21
gdb 53564	4.45152	0.7466	0.71615	0.1427	92.13	-0.2397	0.0646	0.3043	1685.268	0.182609	-349.880249	-349.871081	-349.870137	-349.916665	33.587	
C	-0.053825595	 1.4358471193	 0.2077956098	-0.495743
C	-0.0138880695	-0.0185968243	 0.2704001847	 0.058908
C	 0.0308426273	-1.2208662548	 0.3246721513	 0.071705
C	 0.0465268415	-2.6804426647	 0.3822608175	-0.415048
C	-1.3393342745	-3.2834599673	 0.123045321	 0.080477
C	-1.9606061705	-3.3409807554	-1.3091016357	-0.037037
C	-0.9937421525	-4.5161340609	-1.6402598129	-0.223915
C	-1.5245806247	-4.8010012771	-0.2034634461	-0.065545
C	-2.9334782387	-4.4170213853	-0.7433645496	-0.219401
H	 0.573357365	 1.8186519179	-0.6052065139	 0.144693
H	-1.0730609574	 1.8001208322	 0.0364898921	 0.144817
H	 0.3041769076	 1.8863953438	 1.1403840162	 0.144763
H	 0.7898640636	-3.0655155242	-0.324297762	 0.124055
H	 0.3852442075	-3.003793738	 1.3764248466	 0.123004
H	-2.0350217615	-2.9076016272	 0.8814247217	 0.069183
H	-2.2141394643	-2.4930660756	-1.9464505675	 0.072481
H	-1.3268873136	-5.2067929752	-2.4198868709	 0.088921
H	 0.0665438042	-4.2887122419	-1.7603839032	 0.091618
H	-1.2744379775	-5.6480476105	 0.4382404828	 0.06597
H	-3.6683009717	-4.0793354508	-0.0070586587	 0.088224
H	-3.377241715	-5.1019019798	-1.4706767735	 0.08787
14.1695	44.3401	76.2322	200.3999	225.3801	312.1148	324.8032	381.4678	444.2254	565.4455	588.3439	752.2739	767.3101	788.5357	827.1181	897.0592	901.8111	904.5247	968.5227	1007.4803	1020.4716	1030.3581	1053.2501	1053.7199	1085.6248	1090.527	1113.3891	1143.7592	1149.58	1167.4242	1188.1641	1212.6016	1222.1429	1243.5193	1254.6253	1276.5025	1326.7837	1415.4971	1422.1088	1470.071	1479.6407	1479.8784	1504.8661	1543.2107	2372.0795	3011.8187	3023.7589	3038.3899	3047.4312	3057.7228	3064.927	3083.0212	3083.08	3091.8349	3106.4813	3113.5089	3122.7482
CC#CCC1C2CC1C2	CC#CC[C@H]1[C@H]2C[C@@H]1C2	
InChI=1S/C9H12/c1-2-3-4-9-7-5-8(9)6-7/h7-9H,4-6H2,1H3	InChI=1S/C9H12/c1-2-3-4-9-7-5-8(9)6-7/h7-9H,4-6H2,1H3/t7-,8+,9-
