15
gdb 57118	3.18988	0.79863	0.68745	2.8857	84.08	-0.2493	-0.0459	0.2034	1586.9778	0.108128	-420.585539	-420.575624	-420.57468	-420.621762	34.61	
C	-0.1440423942	 1.4239648227	-0.038235845	-0.483947
C	 0.0677765862	-0.063486959	 0.0430184424	 0.374552
O	 0.2904593234	-0.6598510649	 1.0701973301	-0.303223
C	 0.013779331	-0.8901666578	-1.2748202394	-0.169328
O	 0.339836329	-2.2252254899	-1.0094428313	-0.407533
C	-1.306247895	-0.743573985	-1.893009007	 0.535536
C	-2.3987728164	-0.6258408294	-2.4007442984	-0.397913
C	-3.6271096065	-0.4915126486	-2.9695174816	 0.308911
C	-4.7173422834	-0.3702086685	-3.47393966	-0.553418
H	 0.5861055516	 1.8701900186	-0.7225629839	 0.151234
H	-1.1361690344	 1.6375102544	-0.4474085796	 0.170664
H	-0.043388928	 1.8685582317	 0.9520826153	 0.154181
H	 0.7655982281	-0.4543154247	-1.9548487856	 0.125024
H	 0.3750475188	-2.2823816589	-0.0387115729	 0.29791
H	-5.6765529101	-0.2669531808	-3.917629773	 0.197348
31.2825	68.1495	88.1455	125.0098	199.3111	260.1391	299.9915	392.7232	398.6514	429.4839	500.706	527.4223	537.204	574.0289	595.4171	616.3725	634.6058	771.3235	819.9049	970.0321	1038.0385	1104.8103	1170.3245	1195.195	1242.8073	1334.4429	1388.8336	1427.9446	1462.5704	1470.3348	1815.6113	2180.5353	2356.61	2962.4959	3046.7296	3111.3934	3160.051	3503.4211	3650.6662
CC(=O)C(O)C#CC#C	CC(=O)[C@@H](O)C#CC#C	
InChI=1S/C7H6O2/c1-3-4-5-7(9)6(2)8/h1,7,9H,2H3	InChI=1S/C7H6O2/c1-3-4-5-7(9)6(2)8/h1,7,9H,2H3/t7-/m0/s1
