16
gdb 18777	3.96769	2.40814	2.10608	1.2415	66.77	-0.2341	0.076	0.3101	705.2581	0.131794	-346.521441	-346.515636	-346.514692	-346.550827	24.767	
O	-0.0478277664	 1.3131552794	 0.0743417938	-0.469287
C	 0.0606576251	-0.0590586881	 0.055946916	 0.412659
C	-0.1339076034	-0.9235492044	-1.198351965	-0.153568
C	-1.0664253889	-1.0510692562	 0.0009213466	-0.156603
C	-0.0505817767	-2.0964945581	 0.5509768081	-0.042084
C	 0.7274400355	-2.1498758097	-0.8219068071	-0.050497
C	 2.0038525132	-1.6131546974	-0.123583025	-0.251162
C	 1.0093974647	-0.971057014	 0.8761596942	-0.127077
H	 0.6472111116	 1.6842378071	-0.4812303505	 0.283478
H	-0.3404267869	-0.4845679976	-2.166156278	 0.082487
H	-2.1380414237	-0.9320253851	 0.083016863	 0.091301
H	-0.2547578983	-2.949936648	 1.1919986556	 0.069576
H	 0.7396020192	-3.0151113075	-1.4842840711	 0.063391
H	 2.5804271986	-2.4209690323	 0.3384025408	 0.097032
H	 2.6762892386	-0.9584235714	-0.6893453597	 0.08238
H	 1.2802725377	-0.6661903067	 1.8861592184	 0.067974
252.3567	298.8738	355.1816	426.5386	550.4499	606.5046	723.7084	743.5538	776.8441	806.4165	830.2188	852.5324	874.0726	896.3618	923.2047	930.0358	968.707	980.5083	999.1529	1047.6652	1069.1147	1083.7373	1123.4744	1160.5301	1166.9541	1187.4467	1200.4298	1234.9586	1258.889	1266.2449	1299.2763	1311.4675	1452.9319	1490.2339	3033.3208	3091.324	3114.0144	3126.047	3150.2288	3194.3369	3210.258	3782.859
OC12C3C1C1C3CC21	O[C@]12[C@@H]3[C@H]1[C@H]1[C@@H]3C[C@@H]21	
InChI=1S/C7H8O/c8-7-3-1-2-4(3)6(7)5(2)7/h2-6,8H,1H2	InChI=1S/C7H8O/c8-7-3-1-2-4(3)6(7)5(2)7/h2-6,8H,1H2/t2-,3+,4-,5-,6+,7+/m0/s1
