19
gdb 40701	3.30841	1.07611	0.94017	1.6319	76.68	-0.2375	0.0704	0.3079	1298.6174	0.160203	-419.118667	-419.110233	-419.109288	-419.152573	31.347	
C	-0.2505913556	 1.3762675088	-0.1619033043	-0.243722
N	 1.0905700988	 0.7722039351	-0.0997799701	-0.326455
C	-0.0994246326	-0.0967935581	-0.0491241477	-0.005287
C	-0.3204379079	-0.7943262652	 1.253122287	-0.010177
N	-1.4835145509	-1.6940510326	 1.341107854	-0.348767
C	-0.1370141606	-2.2619251491	 1.4606230828	-0.057633
C	 0.3126356379	-3.2337284484	 0.4101853376	 0.075506
C	-0.6278730227	-4.1516645927	-0.2497247946	-0.175263
O	-0.0934564033	-3.0190767417	-0.9391228022	-0.226716
H	-0.5239714957	 1.9644523082	 0.7108099824	 0.110935
H	-0.6058371315	 1.7810933716	-1.1058999682	 0.111823
H	 1.5030855596	 0.7386066298	-1.0278243542	 0.234005
H	-0.3429453589	-0.6912530434	-0.9221373795	 0.120875
H	-0.0981820526	-0.1714550997	 2.1190838837	 0.086175
H	-1.9301579442	-1.6267819576	 2.250667214	 0.234267
H	 0.2041880979	-2.5535511817	 2.4544872217	 0.083881
H	 1.3520171541	-3.5500394195	 0.5140957301	 0.096072
H	-0.2828031012	-5.1201145985	-0.60831604	 0.111773
H	-1.6840084508	-4.0761264151	-0.0012851125	 0.128707
61.7614	77.3639	143.9619	201.448	239.2126	289.9651	337.3801	472.4504	547.4268	660.3499	728.1033	808.1888	864.9464	871.7132	886.1217	893.6271	926.4901	933.5498	966.2964	981.655	1005.7893	1067.1944	1074.8044	1099.5047	1117.2978	1138.3941	1156.751	1170.7147	1177.3727	1204.5246	1247.9037	1250.3951	1280.6067	1288.1708	1297.3919	1353.9037	1417.7677	1450.4113	1498.8241	1513.6883	1522.1619	3088.9721	3092.9952	3103.3132	3104.6791	3115.8241	3182.899	3188.3237	3193.9573	3509.5724	3515.0544
C1NC1C1NC1C1CO1	C1N[C@H]1[C@H]1N[C@H]1[C@H]1CO1	
InChI=1S/C6H10N2O/c1-3(7-1)5-6(8-5)4-2-9-4/h3-8H,1-2H2	InChI=1S/C6H10N2O/c1-3(7-1)5-6(8-5)4-2-9-4/h3-8H,1-2H2/t3-,4-,5-,6+/m1/s1
