20
gdb 61549	3.31214	0.85727	0.74542	3.5839	76.36	-0.2446	-0.031	0.2136	1546.9207	0.168864	-440.27493	-440.264973	-440.264029	-440.310836	35.699	
C	-0.2412361744	 1.4108776804	 0.0223075523	-0.481687
C	 0.1034066805	-0.059963145	-0.0130453191	 0.365446
O	 0.4827446069	-0.660821	 0.970572779	-0.317146
C	-0.0306887982	-0.8210699087	-1.3350048399	 0.044412
O	 0.388546439	-2.146543549	-1.1614860196	-0.437144
C	-1.4767672997	-0.7830437685	-1.8768487276	-0.250888
C	-1.5994579944	-1.5085805043	-3.197944366	 0.045116
C	-2.6615754311	-1.1389914334	-4.1626849815	-0.252069
N	-1.2486691796	-0.8294088474	-4.458646829	-0.316604
H	 0.0916954763	 1.9244019345	-0.8843536807	 0.139057
H	-1.3294151605	 1.5293488453	 0.0835397477	 0.156812
H	 0.2060631408	 1.8713543555	 0.9041764177	 0.152978
H	 0.6240046721	-0.3132324807	-2.0657671361	 0.09262
H	 0.6229977331	-2.2155328766	-0.2208311332	 0.292978
H	-2.1307531163	-1.2548081383	-1.132183803	 0.114286
H	-1.8088695514	 0.2562578387	-1.9989225577	 0.087008
H	-1.2675826279	-2.5424510186	-3.1640254772	 0.117761
H	-3.1088274121	-1.8942851498	-4.802512176	 0.121522
H	-3.3289892517	-0.3223040221	-3.8967624617	 0.105411
H	-1.0773661212	 0.158536718	-4.2808662982	 0.220131
60.1848	63.3881	101.0948	123.1808	134.2129	226.1909	311.4271	334.0555	408.6618	430.9404	462.4503	485.7805	584.1837	634.8913	784.9611	813.8758	827.0397	899.9332	932.7757	967.0493	973.7032	989.711	1041.8144	1065.3452	1123.1694	1132.1913	1162.1913	1180.6118	1215.33	1243.1519	1265.4716	1275.777	1305.0116	1314.8512	1368.6062	1386.421	1420.7558	1440.4384	1461.6126	1466.0779	1477.3459	1513.5969	1794.2026	2949.3152	3014.54	3041.593	3062.0586	3104.5294	3106.4766	3152.4986	3156.0009	3190.1034	3479.0068	3663.0536
CC(=O)C(O)CC1CN1	CC(=O)[C@@H](O)C[C@H]1CN1	
InChI=1S/C6H11NO2/c1-4(8)6(9)2-5-3-7-5/h5-7,9H,2-3H2,1H3	InChI=1S/C6H11NO2/c1-4(8)6(9)2-5-3-7-5/h5-7,9H,2-3H2,1H3/t5-,6-/m0/s1
