20
gdb 68816	2.84638	1.25706	1.03319	4.4104	82.04	-0.2285	0.0272	0.2557	1230.6263	0.169474	-403.149541	-403.140201	-403.139257	-403.183565	34.589	
C	 0.1127371754	 1.5151182339	-0.1054722211	-0.494823
C	-0.0369664474	 0.0335696208	 0.0749621348	 0.255307
C	 1.025448885	-0.9764530464	-0.3037419285	-0.370763
C	 0.5525329998	-0.9079641388	 1.1290568126	 0.304905
C	 1.4142003238	-0.671242281	 2.3326367451	-0.488548
N	-0.7468644349	-1.5782205176	 1.2298937557	-0.078164
C	-1.3849091118	-0.6936016638	 0.2402587414	-0.229212
C	-1.0559042289	-2.8697014981	 1.5094880662	 0.122212
O	-2.1016422452	-3.4096604523	 1.2118533727	-0.329439
H	 1.1466086928	 1.8330100846	 0.0635599729	 0.122142
H	-0.1591869711	 1.8186421385	-1.1233998764	 0.129219
H	-0.5272703772	 2.0703623826	 0.5891388966	 0.123597
H	 0.785495656	-1.8403031787	-0.9189465752	 0.115778
H	 2.0082348686	-0.5513941078	-0.4868342542	 0.116077
H	 2.2085972	 0.0426006885	 2.0949005018	 0.127368
H	 0.8256148971	-0.2703522844	 3.1638948418	 0.130872
H	 1.8964171121	-1.5949667521	 2.671675597	 0.131836
H	-2.1670693848	-0.0715244523	 0.6876689147	 0.119597
H	-1.7907228383	-1.2159827897	-0.6319280863	 0.12557
H	-0.2517400707	-3.373149196	 2.0850564985	 0.06647
65.081	162.4042	168.5072	180.8979	198.273	214.6901	313.1287	324.8605	355.8115	438.605	478.8376	562.7515	586.8407	708.5078	763.1306	839.3411	860.8162	940.8194	964.8615	986.2473	1018.5081	1033.9717	1062.4144	1091.1105	1103.3089	1117.2788	1157.5509	1207.4104	1249.2414	1256.5947	1342.1169	1387.2893	1400.0733	1415.7344	1427.2191	1441.5191	1478.2303	1485.9495	1492.5921	1496.1663	1503.3753	1516.9677	1789.33	2919.8879	3024.6865	3031.6686	3041.4558	3083.9553	3091.159	3093.4734	3099.3365	3107.3421	3111.6676	3197.5391
CC12CC1(C)N(C2)C=O	C[C@@]12C[C@]1(C)N(C2)C=O	
InChI=1S/C7H11NO/c1-6-3-7(6,2)8(4-6)5-9/h5H,3-4H2,1-2H3	InChI=1S/C7H11NO/c1-6-3-7(6,2)8(4-6)5-9/h5H,3-4H2,1-2H3/t6-,7-/m0/s1
