20
gdb 14034	4.35345	1.61411	1.49503	0.1074	79.05	-0.234	0.03	0.2639	938.9698	0.178985	-311.872566	-311.865395	-311.864451	-311.903926	28.682	
C	 0.1626428737	 1.3585554649	-0.5822653861	-0.208338
C	 1.4226865082	 1.6153659032	 0.2852049156	-0.255676
C	 1.316127621	 0.151487508	 0.823616468	 0.381237
C	-0.1533541112	 0.1318922328	 0.3144433033	-0.278241
C	 2.2864100625	-0.8156879451	 0.0912058972	-0.312945
C	 3.3742517343	-1.0555114671	 1.110487607	-0.061687
C	 3.0084949468	-0.6528586145	 2.3264809631	-0.058308
C	 1.6156706283	-0.0700295795	 2.323432906	-0.341547
H	-0.5845730361	 2.1538522509	-0.6323927751	 0.093734
H	 0.4187466272	 1.0629506018	-1.6034701119	 0.101269
H	 2.3490787714	 1.8953890929	-0.2239821733	 0.094292
H	 1.2264181996	 2.3473080441	 1.0751885324	 0.092496
H	-0.8582430571	 0.3846247974	 1.113225255	 0.094654
H	-0.4997765377	-0.7834943182	-0.1744228647	 0.08967
H	 1.7882321487	-1.7626721925	-0.1673168625	 0.099876
H	 2.6595835858	-0.4000565148	-0.8526618148	 0.098039
H	 4.3133919396	-1.5388503174	 0.8638786384	 0.08716
H	 3.6028063293	-0.755605201	 3.227935533	 0.087596
H	 1.5297660049	 0.8590308063	 2.9001867582	 0.095916
H	 0.8994481809	-0.7756165722	 2.7727753211	 0.100805
87.2309	125.0823	264.9636	356.6739	379.66	414.381	462.7874	664.0493	691.2548	768.0483	772.8771	794.0378	871.9272	895.7087	915.2634	938.5917	945.7095	960.2065	974.5707	980.4037	993.5258	1058.0144	1084.4958	1121.4469	1143.901	1158.0954	1195.9737	1204.9849	1241.6243	1258.0981	1266.3329	1278.5444	1291.6797	1297.5005	1340.7538	1368.0248	1473.9831	1479.7753	1482.6551	1491.2321	1507.4354	1685.6803	2986.3477	2989.4404	3039.0979	3040.4517	3041.9104	3045.9598	3058.9015	3087.1319	3094.0457	3114.1238	3177.4553	3203.2509
C1CC2(C1)CC=CC2	C1CC2(C1)CC=CC2	
InChI=1S/C8H12/c1-2-5-8(4-1)6-3-7-8/h1-2H,3-7H2	InChI=1S/C8H12/c1-2-5-8(4-1)6-3-7-8/h1-2H,3-7H2
