19
gdb 41996	3.31086	1.52843	1.11188	1.9059	78.08	-0.2128	0.0371	0.2499	1095.3366	0.163437	-419.227479	-419.220063	-419.219118	-419.259241	29.32	
C	-0.0008187516	 1.4580615132	 0.0002277429	-0.167522
C	 1.4953741198	 1.8433923426	 0.1171343197	-0.261422
C	 2.1877815332	 0.7107351691	-0.6407796957	 0.059427
O	 3.5174625125	 0.4762015437	-0.2512780953	-0.261338
C	 3.9364937758	-0.7774730152	-0.7920602823	-0.097478
C	 3.1028244338	-1.9400283345	-0.2350005768	-0.152805
N	 1.6667335593	-1.6862606303	-0.1244206856	-0.352917
C	 1.3024239205	-0.4825185654	-0.3072574186	 0.391273
N	 0.0258162376	 0.0051431719	-0.174477033	-0.341203
H	-0.5684553327	 1.7439181645	 0.8916905015	 0.113443
H	-0.471681165	 1.9517624761	-0.8605935151	 0.109206
H	 1.7110887787	 2.8374691192	-0.27824204	 0.110092
H	 1.8188118705	 1.8053028344	 1.1620730094	 0.12412
H	 2.1397284321	 0.8992824833	-1.7293149283	 0.080175
H	 3.8592953342	-0.7423251467	-1.8915068628	 0.088854
H	 4.9915969373	-0.8925044619	-0.5295467637	 0.107256
H	 3.2655947111	-2.8241701145	-0.8652272507	 0.100183
H	 3.4688613677	-2.2087905546	 0.7659008881	 0.105421
H	-0.6856584749	-0.5861044948	 0.2243453066	 0.245238
123.6794	154.2105	241.9014	282.2559	366.4834	394.166	471.6417	487.6794	542.4244	649.0713	685.5362	718.2957	809.2598	878.112	896.5206	904.1217	942.2915	989.9408	1051.3091	1058.0866	1083.9416	1102.6126	1151.4943	1161.9973	1202.4591	1224.4569	1260.4509	1282.2133	1288.7425	1308.2924	1329.2857	1362.0057	1371.6138	1386.9283	1415.0725	1448.2317	1486.2769	1495.242	1498.5547	1532.3978	1773.6414	2929.4423	2967.5123	3004.7522	3008.2986	3035.9801	3057.7297	3069.6368	3092.1306	3123.7576	3638.3892
C1CC2OCCN=C2N1	C1C[C@H]2OCCN=C2N1	
InChI=1S/C6H10N2O/c1-2-7-6-5(1)9-4-3-8-6/h5H,1-4H2,(H,7,8)	InChI=1S/C6H10N2O/c1-2-7-6-5(1)9-4-3-8-6/h5H,1-4H2,(H,7,8)/t5-/m1/s1
