19
gdb 26373	2.53831	1.36204	1.09975	3.3596	76.93	-0.1961	0.0471	0.2432	1184.2989	0.159406	-419.246268	-419.236982	-419.236038	-419.281053	34.105	
C	-0.0015336958	 1.5588637394	 0.0185959999	-0.382808
C	-0.0129533199	 0.0258399305	 0.0324918083	 0.02454
C	 0.7753517372	-0.5534146674	 1.212981906	-0.382764
N	-1.3873702617	-0.487098548	 0.0193437116	-0.051414
C	-2.3713319219	-0.3123073059	 0.9669515186	-0.006924
N	-3.4893429242	-0.9090972546	 0.6403139813	-0.267919
C	-3.2482684806	-1.5111133445	-0.5784926022	-0.224455
C	-1.9592195484	-1.2556139132	-0.965232395	 0.332582
O	-1.2052399884	-1.5892356535	-2.0441094192	-0.442042
H	 1.0268059065	 1.9266249205	-0.0478191005	 0.120543
H	-0.5630043806	 1.9450127954	-0.8361680467	 0.131434
H	-0.4464647631	 1.9665089593	 0.9318719018	 0.124258
H	 0.4349723575	-0.33487265	-0.896816401	 0.119019
H	 1.8173853099	-0.2228701019	 1.1676986608	 0.120535
H	 0.358049712	-0.2212663071	 2.1688862381	 0.124258
H	 0.7578927348	-1.6462718421	 1.1944639442	 0.131421
H	-2.2003312273	 0.2600205357	 1.8656179069	 0.122133
H	-4.0029449843	-2.0826998529	-1.096807891	 0.09611
H	-1.7443820214	-2.1242405896	-2.6343022519	 0.311493
24.7706	110.7847	192.4596	200.851	228.8077	258.993	288.8806	295.1574	407.4198	433.3646	535.1207	620.315	668.7864	680.7941	729.529	764.7759	773.409	888.2251	933.7945	934.2365	950.7955	1095.5213	1125.274	1146.2755	1148.5307	1179.5646	1229.0566	1267.5546	1295.1099	1333.0808	1355.694	1402.2582	1421.6245	1439.2013	1484.2477	1487.929	1489.1774	1500.0069	1508.7102	1546.7224	1610.1119	3039.6023	3043.4751	3082.6157	3109.1411	3119.4731	3121.7911	3124.6645	3242.1197	3253.1539	3848.3993
CC(C)N1C=NC=C1O	CC(C)n1cncc1O	
InChI=1S/C6H10N2O/c1-5(2)8-4-7-3-6(8)9/h3-5,9H,1-2H3	InChI=1S/C6H10N2O/c1-5(2)8-4-7-3-6(8)9/h3-5,9H,1-2H3
