21
gdb 95771	2.56163	1.34707	1.07425	2.283	80.91	-0.2366	0.0138	0.2504	1218.5312	0.183142	-424.229318	-424.220305	-424.21936	-424.263408	34.501	
C	-0.3294557928	 1.5048688774	 0.0901711832	-0.474946
C	 0.0426977472	 0.0440732753	 0.0275424439	 0.292532
C	-0.0237270956	-0.6399094456	-1.1186778138	-0.146599
C	 0.2206256538	-2.109806204	-1.3726270676	-0.276554
C	 1.4078385601	-2.7667807772	-0.6489568789	 0.121571
O	 2.6422682393	-2.1958810411	-1.0464211142	-0.437749
C	 1.2997899478	-2.7324708308	 0.8780226868	-0.105176
O	 1.5476857888	-1.4280437239	 1.3764671179	-0.247184
C	 0.4384035651	-0.5468861918	 1.3708011565	-0.171163
H	 0.523454316	 2.1199658956	 0.405388831	 0.126538
H	-0.6807060196	 1.8746433801	-0.8760983825	 0.123464
H	-1.1251218169	 1.6797288744	 0.8269263542	 0.123414
H	-0.338358376	-0.0820012564	-1.9991542088	 0.081545
H	-0.6922610567	-2.6778806637	-1.1328482694	 0.102163
H	 0.3851099096	-2.2504682497	-2.4457993356	 0.111766
H	 1.4414750092	-3.8189765135	-0.9602401897	 0.07977
H	 2.7420599709	-1.3981793906	-0.5108869903	 0.285015
H	 0.3206020479	-3.1032767801	 1.218965211	 0.086897
H	 2.0810605186	-3.3674757451	 1.3074053369	 0.112784
H	 0.7206018881	 0.2662790708	 2.0479736999	 0.110202
H	-0.4351254649	-1.0480983201	 1.8247142895	 0.101711
32.5111	127.6848	202.9677	250.2014	277.2631	304.2464	345.307	351.2025	409.8646	432.1671	458.3916	518.9066	612.8638	765.4211	784.2059	831.7906	854.9341	901.8797	922.0013	983.2242	989.6311	1012.9393	1056.0165	1077.7901	1105.2731	1125.0859	1144.6732	1194.782	1225.7348	1267.1679	1311.3907	1313.8449	1343.8976	1378.2891	1399.2675	1402.6298	1411.8079	1420.6172	1439.4822	1468.0987	1474.0773	1481.2756	1491.073	1493.0715	1738.2067	2947.0777	2983.968	2990.8154	3011.3404	3029.0802	3055.7323	3065.4394	3069.8547	3081.0092	3115.8334	3134.3955	3772.4197
CC1=CCC(O)COC1	CC1=CC[C@@H](O)COC1	
InChI=1S/C7H12O2/c1-6-2-3-7(8)5-9-4-6/h2,7-8H,3-5H2,1H3	InChI=1S/C7H12O2/c1-6-2-3-7(8)5-9-4-6/h2,7-8H,3-5H2,1H3/t7-/m1/s1
