17
gdb 126988	2.72755	1.32765	1.01448	4.9949	71.3	-0.203	0.0077	0.2107	1187.4715	0.136529	-451.307159	-451.298208	-451.297263	-451.341553	32.309	
C	-0.8468808252	 0.93744553	-0.6110734342	-0.390699
C	 0.0807886156	 0.0550402276	 0.2108489355	-0.069824
O	-0.6389390175	-0.8603874577	 1.0647450702	-0.281084
C	-1.21420002	-1.9158582812	 0.4512131113	 0.298285
C	-2.5129477504	-2.1915782185	 0.0726183441	 0.251433
N	-3.6694485573	-1.432535134	 0.2350509491	-0.599688
N	-2.547407039	-3.4452927462	-0.4535087284	-0.256184
N	-1.347062486	-3.9720520278	-0.4192542854	-0.133753
N	-0.5362911582	-3.0566005545	 0.1227868799	-0.220643
H	-0.2612563555	 1.635735744	-1.2174880051	 0.127007
H	-1.4606365788	 0.3365675943	-1.2890386419	 0.135732
H	-1.5031842055	 1.5190063791	 0.0433255592	 0.131035
H	 0.7606790214	-0.5102525448	-0.4394769806	 0.104729
H	 0.6848495346	 0.6528559414	 0.8979813618	 0.121781
H	-3.5191038461	-0.4374640892	 0.1431385875	 0.246049
H	-4.4023293205	-1.7467073889	-0.3878285754	 0.255728
H	 0.4353214583	-3.2716089436	 0.2808075424	 0.280095
44.9674	82.9087	150.2555	190.5431	265.3001	269.6496	297.6536	365.1301	475.4268	494.1948	537.3424	632.1197	706.2408	712.8498	742.8924	781.1603	818.0372	890.6057	994.971	1040.1112	1097.2979	1103.2094	1108.7617	1191.8812	1235.0915	1271.8706	1318.099	1344.3699	1381.2112	1397.311	1415.9975	1488.0479	1492.3051	1504.8518	1527.6029	1635.158	1677.578	3024.8702	3039.3833	3096.6175	3113.3545	3123.5397	3548.2865	3646.4027	3653.9265
CCOC1=C(N)N=NN1	CCOc1c(N)nn[nH]1	
InChI=1S/C4H8N4O/c1-2-9-4-3(5)6-8-7-4/h2H2,1H3,(H3,5,6,7,8)	InChI=1S/C4H8N4O/c1-2-9-4-3(5)6-8-7-4/h2H2,1H3,(H3,5,6,7,8)
