17
gdb 61193	3.74094	0.85652	0.79698	3.991	74.83	-0.2743	0.0159	0.2901	1426.9528	0.134569	-417.976586	-417.966867	-417.965923	-418.011431	35.318	
N	 0.1631134933	 1.4855054954	-0.053085832	-0.53635
C	 0.0256940737	 0.0296214975	 0.0065758034	-0.000391
C	 0.6524042087	-0.6081044528	-1.2520156279	-0.355794
C	 0.0213977834	-0.1473880168	-2.481639559	 0.271209
C	-0.5146016626	 0.2667905647	-3.4750712513	-0.423448
C	 0.8124262059	-0.4357553692	 1.2621479232	-0.011849
O	 2.1142997543	 0.08920468	 1.251906389	-0.412177
C	 0.0712706864	-0.0275964508	 2.4809992507	 0.263159
N	-0.5243898141	 0.3180525346	 3.409165958	-0.322681
H	-0.0621852505	 1.8189465865	-0.9850916995	 0.250231
H	-0.4773735716	 1.9326016669	 0.5956684169	 0.254004
H	-1.0152844676	-0.3124470042	 0.0925799772	 0.098916
H	 1.7226761824	-0.3735671148	-1.2644310734	 0.154223
H	 0.5666786371	-1.6984047006	-1.1752638026	 0.138996
H	-0.9788604562	 0.6109617747	-4.3663097307	 0.204516
H	 0.8915806273	-1.5284768196	 1.2703849927	 0.130588
H	 2.0007897801	 0.9969226185	 0.9176770151	 0.296849
65.0902	89.2159	108.3781	175.5262	226.9297	276.6446	317.2605	336.2745	348.5449	383.9391	460.9214	537.4873	599.5816	618.3551	628.7487	659.2641	737.0851	854.7513	867.5257	909.0919	959.4517	991.0359	1010.9827	1083.0377	1128.7899	1176.626	1252.6492	1280.8108	1299.4204	1339.6533	1375.5215	1398.4193	1449.8916	1468.7465	1655.6188	2236.7775	2350.9113	3003.1709	3038.3714	3060.0583	3080.667	3502.391	3503.2852	3580.8934	3641.2172
NC(CC#C)C(O)C#N	N[C@@H](CC#C)[C@@H](O)C#N	
InChI=1S/C6H8N2O/c1-2-3-5(8)6(9)4-7/h1,5-6,9H,3,8H2	InChI=1S/C6H8N2O/c1-2-3-5(8)6(9)4-7/h1,5-6,9H,3,8H2/t5-,6-/m0/s1
