18
gdb 47574	2.72675	1.65643	1.27459	4.432	71.62	-0.2348	0.037	0.2718	1017.0544	0.150287	-439.105352	-439.097673	-439.096728	-439.13766	29.879	
O	-0.1781676132	-0.1999093885	-0.1193138094	-0.372062
C	-0.0458480818	 0.9968979586	-0.0679788854	 0.428027
N	-1.0934639559	 1.8668908083	 0.0617875738	-0.342481
C	-1.1061252057	 3.3074435547	 0.02347315	 0.050926
C	 0.0097885128	 4.1696902465	 0.5502721125	-0.314474
C	-0.2259804332	 4.0513060984	-0.9487720891	-0.041727
C	 0.6611839389	 3.2190852225	-1.8605872982	-0.251981
C	 1.6813070284	 2.3201628902	-1.1573976637	-0.082827
O	 1.1890498885	 1.5975756336	-0.0220664317	-0.254715
H	-1.9891129192	 1.4079591274	 0.0159767318	 0.257793
H	-2.116805115	 3.6700636816	 0.1708365269	 0.101884
H	-0.2762056653	 5.1002268187	 1.0284282951	 0.112535
H	 0.8699817407	 3.6838827407	 0.987653685	 0.147263
H	-0.6715934687	 4.9146818702	-1.4340403834	 0.091296
H	 0.0171780173	 2.6049695197	-2.5043897861	 0.117937
H	 1.2283119787	 3.8717281368	-2.5344096767	 0.111839
H	 2.1035085296	 1.6077527274	-1.8774919291	 0.119194
H	 2.5024947831	 2.9211815831	-0.7574412923	 0.121572
72.7614	155.0032	204.4055	287.3651	299.0469	414.1165	471.6353	529.9626	535.8469	615.3072	711.8747	738.4211	751.6984	808.504	833.5544	875.7834	888.1666	938.841	986.3582	1060.5965	1074.6058	1095.1741	1112.1645	1124.6402	1129.1463	1154.7686	1230.9588	1271.6355	1278.7913	1313.404	1377.8099	1393.9619	1418.1617	1436.7897	1475.2556	1484.3393	1500.2251	1513.0087	1833.5214	3017.1473	3029.7009	3060.3024	3093.622	3144.0275	3151.1322	3174.6222	3256.9217	3643.2426
O=C1NC2CC2CCO1	O=C1N[C@H]2C[C@H]2CCO1	
InChI=1S/C6H9NO2/c8-6-7-5-3-4(5)1-2-9-6/h4-5H,1-3H2,(H,7,8)	InChI=1S/C6H9NO2/c8-6-7-5-3-4(5)1-2-9-6/h4-5H,1-3H2,(H,7,8)/t4-,5+/m1/s1
