17
gdb 30635	4.47186	1.08051	0.88265	3.2548	77.9	-0.2177	-0.0049	0.2128	1290.2073	0.137423	-418.078303	-418.069699	-418.068755	-418.112555	30.938	
C	 0.0065114095	 1.4661166188	-0.089044113	-0.323995
N	-0.0364041384	 0.0148169182	-0.0641272606	-0.362305
C	-1.2182712838	-0.6356173106	 0.1353585524	 0.518784
O	-2.2754612577	-0.0877121	 0.3624102767	-0.386827
N	-1.119777242	-2.0497185725	 0.0724066552	-0.103533
C	 0.014678952	-2.8501223108	 0.1103293885	-0.097928
C	-0.3836198534	-4.1539120032	 0.0021341176	-0.168955
C	-1.8092592174	-4.160801793	-0.1094527085	-0.189587
C	-2.2325333986	-2.8622393107	-0.0570712338	-0.047639
H	 0.9856270273	 1.8101354763	 0.2538785701	 0.128041
H	-0.1828256008	 1.8722674937	-1.0905114866	 0.131438
H	-0.7652101243	 1.8419945079	 0.5826341969	 0.16979
H	 0.7103168317	-0.4870807831	-0.5144667638	 0.253298
H	 0.9914467249	-2.4292844172	 0.2807799204	 0.123312
H	 0.268570424	-5.013975945	 0.0151694155	 0.103168
H	-2.4441238015	-5.0269298091	-0.2153129069	 0.10401
H	-3.2084776216	-2.4109842498	-0.1030457999	 0.148927
50.5567	77.6313	109.6701	165.6889	216.0795	312.0062	402.3385	479.4695	522.3335	616.4352	619.4278	691.3467	764.4815	768.0592	808.7593	836.6866	875.1549	880.5974	955.4312	1033.5437	1077.6661	1094.2891	1116.2176	1152.7283	1176.2114	1224.2935	1283.2951	1317.1813	1359.5024	1432.737	1445.895	1488.0358	1503.6971	1507.8284	1556.071	1583.2175	1806.0397	3026.6696	3098.5123	3159.4297	3242.8985	3256.7313	3275.9915	3298.3662	3652.5519
CNC(=O)N1C=CC=C1	CNC(=O)n1cccc1	
InChI=1S/C6H8N2O/c1-7-6(9)8-4-2-3-5-8/h2-5H,1H3,(H,7,9)	InChI=1S/C6H8N2O/c1-7-6(9)8-4-2-3-5-8/h2-5H,1H3,(H,7,9)
