22
gdb 56629	2.04871	1.38332	1.13394	1.1792	88.27	-0.2228	0.0498	0.2726	1246.9515	0.190688	-367.153047	-367.142424	-367.14148	-367.188099	39.706	
C	 1.5264244936	-2.2218602497	 1.2112970915	-0.401776
C	 0.3992089751	-1.6757826231	 0.3074336151	-0.22498
C	-0.2024669389	-0.4746120041	 0.8911254383	 0.342961
C	-0.6840516058	 0.5137316621	 1.378537558	-0.476691
C	 0.8828818042	-1.4187109242	-1.1316103957	 0.351164
C	 1.9793249911	-0.3807535627	-1.2776681786	-0.45725
C	 0.8263607694	-2.5695334122	-2.0854692824	-0.302687
N	-0.0692053175	-1.4301973078	-2.2455606991	-0.113195
C	-1.4950255135	-1.6299137163	-2.0377853318	-0.321798
H	 1.964599224	-3.1195793604	 0.7651642303	 0.118212
H	 2.3173826564	-1.4816125444	 1.3519559582	 0.132426
H	 1.1303409195	-2.4791596433	 2.1971018313	 0.125043
H	-0.3768470898	-2.4481960908	 0.2670698501	 0.102428
H	-1.1180443093	 1.383440579	 1.806244139	 0.195439
H	 2.9106827706	-0.7071446227	-0.803529847	 0.113108
H	 2.1741125349	-0.2015283497	-2.3370533929	 0.125279
H	 1.6776411568	 0.5666488897	-0.8195094885	 0.130112
H	 1.5888595909	-2.6974312362	-2.8507580881	 0.108893
H	 0.3995160783	-3.5034069195	-1.7166649227	 0.098002
H	-1.7550135262	-2.4440809006	-1.3426854235	 0.098181
H	-1.9407205184	-0.7044660224	-1.6620496299	 0.135265
H	-1.9541535955	-1.8648112607	-3.0035879316	 0.121863
59.8191	126.6099	171.3391	174.7222	197.5012	220.5099	238.6447	252.0125	289.5307	346.6431	400.1245	447.2515	471.8835	530.6351	570.7523	627.2707	636.1465	716.5831	763.041	846.8558	904.9349	924.1078	976.5815	1026.8534	1044.3958	1081.8754	1106.1407	1119.3188	1129.3574	1158.1405	1171.2193	1202.0758	1280.5071	1293.1531	1325.6649	1393.5453	1402.7416	1418.171	1452.0128	1482.8115	1487.394	1491.2703	1497.8496	1503.8481	1504.5483	1515.9353	2230.2483	2968.6512	3038.7191	3042.1401	3046.306	3066.5222	3072.7503	3103.3177	3110.1667	3119.7322	3128.5869	3131.353	3158.2563	3503.0592
CC(C#C)C1(C)CN1C	C[C@@H](C#C)[C@@]1(C)CN1C	
InChI=1S/C8H13N/c1-5-7(2)8(3)6-9(8)4/h1,7H,6H2,2-4H3	InChI=1S/C8H13N/c1-5-7(2)8(3)6-9(8)4/h1,7H,6H2,2-4H3/t7-,8+,9?/m0/s1
