19
gdb 95916	2.2847	1.49627	1.19762	3.0074	75.16	-0.2556	0.0236	0.2792	1113.9375	0.160063	-419.217252	-419.208086	-419.207142	-419.25101	33.983	
C	-0.5414921029	 1.3350539729	 0.0477942045	-0.413033
C	 0.0775975761	-0.0559932803	-0.03292314	-0.0136
C	 1.1613054119	-0.2285489734	-1.1274108978	-0.108022
O	 2.2174616677	-1.015267508	-0.5611473045	-0.262221
C	 1.7177118308	-1.6426704305	 0.6039887503	-0.111941
C	 0.8394369234	-0.5374767378	 1.2459707446	 0.094728
N	 1.622518338	 0.5553005993	 1.8355929603	-0.541311
C	-0.0750384711	-1.0732474652	 2.2559635001	 0.270614
N	-0.7863081825	-1.5226181538	 3.0480841215	-0.338289
H	 0.2137022106	 2.0917280283	 0.2707264638	 0.134578
H	-1.0244861538	 1.5903725089	-0.9010041518	 0.11718
H	-1.3010651958	 1.3792074949	 0.8336277552	 0.136476
H	-0.7158661915	-0.7885897175	-0.2127778867	 0.101589
H	 0.7533333735	-0.7256453908	-2.0168842596	 0.109754
H	 1.5906692621	 0.7298298359	-1.4396247725	 0.11267
H	 1.1197417083	-2.5371923949	 0.3691180679	 0.10493
H	 2.5627534964	-1.932624902	 1.2332085606	 0.117806
H	 2.0335697097	 0.2494848349	 2.7128662301	 0.242387
H	 2.3954998391	 0.7617026092	 1.2070691642	 0.245706
76.5799	137.0664	156.3353	209.2263	221.6414	258.7877	269.2396	330.4213	403.507	473.1558	508.1473	566.0794	584.8272	677.5075	739.7251	869.0561	912.5327	935.3781	954.5784	957.4535	1012.5644	1036.2433	1069.7019	1093.6321	1150.9893	1168.3866	1190.4264	1236.5965	1261.4925	1305.8362	1329.8487	1365.3353	1377.398	1407.0744	1415.21	1488.7179	1498.3092	1507.0584	1528.4001	1654.3403	2360.0282	2983.7919	3017.1369	3043.8613	3049.904	3069.7497	3102.1805	3109.8034	3133.998	3482.9528	3567.153
CC1COCC1(N)C#N	C[C@H]1COC[C@]1(N)C#N	
InChI=1S/C6H10N2O/c1-5-2-9-4-6(5,8)3-7/h5H,2,4,8H2,1H3	InChI=1S/C6H10N2O/c1-5-2-9-4-6(5,8)3-7/h5H,2,4,8H2,1H3/t5-,6+/m0/s1
