19
gdb 111023	1.93125	1.80892	1.1242	4.0854	81.84	-0.2365	0.0086	0.2451	1143.1471	0.159517	-382.008867	-382.000456	-381.999511	-382.042016	32.182	
C	 0.8694715755	-0.2734969253	 1.3922391413	-0.381324
C	-0.0784758622	-0.1467600286	 0.1999154676	-0.148461
N	 0.5814074899	-0.6162001396	-1.0228685522	-0.126504
C	-0.2160462266	-0.6707479949	-2.3179568204	-0.035191
C	 0.8857738906	-1.628234445	-2.8409212239	-0.241984
C	 0.4862635236	-2.0933365711	-1.4108632109	 0.246224
C	-1.0077002017	-1.9180270361	-1.8304364321	-0.276451
C	 1.0690617702	-3.158645909	-0.6305036987	 0.177777
N	 1.5192588704	-4.0250819939	-0.0109454556	-0.359001
H	 1.1108102175	-1.3207530641	 1.5969527081	 0.140692
H	 1.8050018215	 0.256290686	 1.1942308466	 0.127626
H	 0.4101479386	 0.1474142912	 2.2918674964	 0.113048
H	-1.0311072019	-0.6474988595	 0.4316951743	 0.08907
H	-0.3156966427	 0.9101847775	 0.0262795192	 0.107089
H	-0.5971748525	 0.2355721567	-2.7866666705	 0.097706
H	 0.6209376067	-2.2975911944	-3.6595829168	 0.111298
H	 1.8844499995	-1.2014642601	-2.9207159532	 0.124009
H	-1.7321592473	-1.7802758544	-1.0300379713	 0.121277
H	-1.3852942691	-2.6064635756	-2.5899549579	 0.113102
76.1454	116.6479	179.7792	222.5725	227.4146	335.4735	394.5984	504.5897	520.4765	551.2109	559.4816	606.1804	761.0526	785.6675	810.2277	825.9867	922.3961	935.2774	949.1413	987.9564	1002.1051	1065.5117	1075.0694	1115.7894	1121.6585	1161.5248	1170.5523	1179.837	1223.4876	1226.331	1228.5178	1269.7918	1311.1886	1384.3407	1412.3324	1477.6398	1488.4815	1492.5658	1507.7503	1530.211	2350.8417	2983.893	3044.318	3046.0086	3078.1243	3091.9841	3115.5835	3125.0391	3130.8412	3159.2655	3176.9384
CCN1C2CC1(C2)C#N	CCN1[C@H]2C[C@@]1(C2)C#N	
InChI=1S/C7H10N2/c1-2-9-6-3-7(9,4-6)5-8/h6H,2-4H2,1H3	InChI=1S/C7H10N2/c1-2-9-6-3-7(9,4-6)5-8/h6H,2-4H2,1H3/t6-,7+
