20
gdb 63960	3.48082	1.24817	1.18898	3.4301	79.82	-0.2458	0.0194	0.2652	1146.2376	0.17114	-403.136734	-403.128442	-403.127498	-403.169061	32.837	
C	-0.1157467004	 1.5667754344	 0.0288814359	-0.41339
C	 0.019531174	 0.04533905	-0.0225627594	 0.299092
C	-1.3545833456	-0.6253891187	 0.1015130463	-0.406728
C	 0.7931450037	-0.4217219406	-1.3342548174	-0.290367
C	 1.502162555	-1.6820851786	-0.8226224837	-0.144946
C	 3.0152030979	-1.9848710655	-0.6016564976	-0.12843
O	 2.8331957464	-1.8549576768	 0.8681420686	-0.274988
C	 1.6073955403	-1.2995386271	 0.6131576321	 0.419504
N	 0.9122590256	-0.3813585018	 1.1213657922	-0.331246
H	 0.8699010979	 2.0408401337	 0.0384030456	 0.115866
H	-0.6700498705	 1.9337255402	-0.8423217097	 0.106645
H	-0.6479551098	 1.8773891512	 0.9324945256	 0.123909
H	-2.0377875705	-0.2719172685	-0.6781623528	 0.109432
H	-1.2778228743	-1.7143930663	 0.0207254506	 0.10974
H	-1.7958675047	-0.3945764623	 1.0753196565	 0.129216
H	 0.1253425146	-0.590137643	-2.1826404975	 0.103147
H	 1.5150194664	 0.3526676879	-1.6146123455	 0.105965
H	 0.9476115687	-2.6035781936	-1.0116799776	 0.109059
H	 3.3638312253	-2.9854993162	-0.8607685625	 0.128478
H	 3.7094952499	-1.2169185585	-0.9526057298	 0.130041
114.9055	190.0205	223.8028	249.5104	298.5856	318.3035	331.2208	371.2415	475.6104	509.4223	568.5726	660.9499	732.0175	769.9661	801.6964	872.0639	883.7787	917.0699	941.0696	951.5036	978.3352	1001.0053	1046.7082	1083.3616	1133.8231	1151.3477	1168.7555	1190.3323	1203.1959	1238.3131	1263.4593	1296.2493	1340.6514	1362.7136	1396.9544	1415.2512	1473.477	1481.8032	1487.918	1495.0001	1499.5769	1505.79	1773.3215	3030.3996	3034.7835	3050.2524	3065.7364	3086.1672	3099.8125	3104.6005	3108.589	3114.544	3117.179	3140.9295
CC1(C)CC2COC2=N1	CC1(C)C[C@H]2CO[C]2[N]1	
InChI=1S/C7H11NO/c1-7(2)3-5-4-9-6(5)8-7/h5H,3-4H2,1-2H3	InChI=1S/C7H11NO/c1-7(2)3-5-4-9-6(5)8-7/h5H,3-4H2,1-2H3/t5-/m0/s1
