16
gdb 79382	3.13101	1.42579	1.11939	3.6048	74.36	-0.275	0.0198	0.2948	1064.1691	0.124942	-400.683996	-400.676635	-400.675691	-400.715771	28.68	
O	 0.0015120692	 1.4736885199	-0.0703517975	-0.438306
C	 0.0682646267	 0.0723868542	-0.0234622177	 0.110685
C	 0.0315227987	-0.6133454682	 1.3608300997	-0.128326
C	-1.5016536245	-0.3156691527	 1.5381794495	-0.062677
C	-1.8293272978	-1.787355159	 1.8532063455	-0.308169
C	-0.7300422878	-1.8608944415	 0.7691579631	 0.233976
C	-0.1282664358	-3.0220024351	 0.1702102283	 0.157132
N	 0.3514396488	-3.9621787809	-0.3039810375	-0.352083
C	-1.3045263136	-0.6057591064	 0.0060372571	-0.097823
H	 0.8951843858	 1.8259002781	-0.0152698747	 0.289737
H	 0.7926487331	-0.3343093072	-0.7422102356	 0.086692
H	 0.7833762245	-0.6589086693	 2.1496852973	 0.089208
H	-1.9290282725	 0.5885993301	 1.9621456093	 0.100101
H	-1.5536520779	-2.158685054	 2.844043867	 0.112067
H	-2.8183035101	-2.1508488032	 1.5607105258	 0.113129
H	-2.0803963269	-0.6369027247	-0.7587129997	 0.094658
117.2402	167.9688	232.725	269.3082	317.9722	427.1973	465.5443	535.1006	559.041	621.2642	732.208	797.0731	870.3764	879.8912	900.2222	909.0326	942.8145	1012.9487	1014.1713	1053.0734	1059.5579	1098.2593	1126.1778	1140.8054	1158.4113	1186.5578	1197.7992	1221.0646	1243.2348	1261.7367	1296.2525	1318.657	1442.3863	1512.5006	2344.9385	3016.188	3053.6902	3112.8093	3115.7823	3124.235	3162.5164	3824.2636
OC1C2C3CC2(C#N)C13	O[C@H]1[C@H]2[C@@H]3C[C@@]2(C#N)[C@H]13	
InChI=1S/C7H7NO/c8-2-7-1-3-4(7)6(9)5(3)7/h3-6,9H,1H2	InChI=1S/C7H7NO/c8-2-7-1-3-4(7)6(9)5(3)7/h3-6,9H,1H2/t3-,4+,5-,6-,7-
