23
gdb 123228	10.12666	0.38079	0.37572	2.9208	85.82	-0.2496	-0.0206	0.229	2856.4261	0.20233	-425.435522	-425.424035	-425.423091	-425.474366	38.579	
C	-0.1123340293	 1.5581433623	-0.0620408522	-0.384385
C	-0.0208276025	 0.0417486921	-0.0433582972	-0.028671
O	-1.329302833	-0.4889612941	 0.0032097936	-0.243388
C	-1.361730935	-1.8975371064	 0.0270202022	-0.051434
C	-2.8154539427	-2.3485897206	 0.0920270401	-0.19377
C	-2.9595443088	-3.8731054492	 0.1184776337	-0.196627
C	-4.4269538228	-4.3283654961	 0.2030255618	-0.272714
C	-4.5558872573	-5.831453963	 0.1178435943	 0.159891
O	-5.0991606498	-6.5295600685	 0.934208945	-0.236571
H	 0.8876920266	 2.0006091655	-0.0961050107	 0.114543
H	-0.6728984398	 1.8979279877	-0.9375501362	 0.126273
H	-0.6234432878	 1.9224237464	 0.8336438077	 0.126831
H	 0.507166328	-0.3253423206	-0.9403548411	 0.083957
H	 0.5594796969	-0.3005136313	 0.8307557013	 0.084669
H	-0.8717751766	-2.3104081217	-0.8728939098	 0.082096
H	-0.8020870143	-2.2819357453	 0.8982688812	 0.084047
H	-3.2779359583	-1.9106454105	 0.98436169	 0.111341
H	-3.3498164154	-1.9352724673	-0.7719758836	 0.107468
H	-2.4972523272	-4.3031677096	-0.7804533057	 0.103336
H	-2.4070635912	-4.2830234751	 0.9737273809	 0.112915
H	-4.9024574079	-3.9867847326	 1.1270429859	 0.12313
H	-4.9834058975	-3.9009819005	-0.6443287888	 0.119056
H	-4.0859302745	-6.2768961417	-0.7920053124	 0.068005
37.4012	51.4345	74.9197	83.7902	104.5621	134.7975	156.9541	200.3999	249.1345	263.7306	331.3367	470.2638	479.0625	532.6517	744.4671	787.488	821.9119	852.3957	895.6231	959.6582	998.8766	1029.1253	1045.3324	1066.6361	1105.5507	1151.8369	1159.7196	1170.5401	1184.6392	1217.7283	1250.8609	1274.3737	1296.0823	1314.3896	1321.0891	1331.3938	1385.7414	1396.119	1411.0614	1430.681	1455.5234	1464.3091	1484.0184	1489.976	1499.5379	1504.3597	1519.1497	1539.7643	1837.5875	2843.5338	2937.137	2954.3667	2963.5576	2974.4515	3008.4342	3015.3627	3034.7373	3045.2005	3047.2406	3079.5387	3099.6843	3119.6392	3121.5419
CCOCCCCC=O	CCOCCCCC=O	
InChI=1S/C7H14O2/c1-2-9-7-5-3-4-6-8/h6H,2-5,7H2,1H3	InChI=1S/C7H14O2/c1-2-9-7-5-3-4-6-8/h6H,2-5,7H2,1H3
