14
gdb 13475	3.41292	1.8864	1.29601	1.3345	58.96	-0.256	0.0042	0.2602	888.401	0.108148	-415.891675	-415.884326	-415.883382	-415.923809	26.797	
N	-0.1412181211	 1.2801076652	 0.3248193438	-0.518692
C	 0.060128072	 0.0150715023	-0.1249388626	 0.375598
O	 1.0974528273	-0.4003290965	-0.6011626785	-0.360145
C	-1.1877152512	-0.8648175874	-0.0292105906	-0.244251
C	-0.9820840088	-2.3472132647	 0.3227388064	-0.093894
O	-1.7893043488	-2.1622907948	 1.5413436122	-0.252653
C	-1.9600381129	-0.8301555779	 1.2723367004	 0.450748
N	-2.513599954	 0.0929016604	 1.9199731074	-0.562212
H	 0.651366606	 1.9015336281	 0.3517686093	 0.263112
H	-0.9512938836	 1.4868532007	 0.894663207	 0.284875
H	-1.8130529404	-0.6862945739	-0.9076643519	 0.142575
H	-1.4446943256	-3.081285057	-0.338096427	 0.129115
H	 0.0438203975	-2.6257334208	 0.5657150772	 0.149492
H	-2.9088621165	-0.2324844036	 2.8025789771	 0.236332
61.5865	129.514	178.0619	265.5139	397.55	434.0172	467.7864	540.5717	596.1386	638.6935	703.4124	759.0168	828.5172	855.1192	938.5272	968.173	1025.6338	1047.5135	1088.9494	1135.75	1145.1496	1200.0763	1241.2138	1272.4494	1362.9048	1365.5789	1517.8588	1633.0354	1805.9312	1813.3237	3086.2405	3091.3129	3154.9897	3490.394	3538.8302	3692.1675
NC(=O)C1COC1=N	NC(=O)[C@H]1CO[C]1[NH]	
InChI=1S/C4H6N2O2/c5-3(7)2-1-8-4(2)6/h2,6H,1H2,(H2,5,7)	InChI=1S/C4H6N2O2/c5-3(7)2-1-8-4(2)6/h2,6H,1H2,(H2,5,7)/t2-/m1/s1
