14
gdb 127716	3.56623	1.31967	0.96913	4.4689	74.9	-0.2258	-0.0004	0.2254	1142.5763	0.1	-432.83373	-432.825188	-432.824244	-432.867316	30.526	
C	 0.0043859198	 1.4418117518	-0.0242124984	-0.333953
N	-0.0234261636	-0.0041561361	 0.0312562133	-0.004849
N	-0.1915476876	-0.7569361876	-1.1024195539	-0.159909
N	-0.1762714886	-2.0023311778	-0.758858932	-0.26341
C	 0.001051944	-2.1025502244	 0.5999592197	 0.110416
C	 0.071972749	-3.2909286251	 1.3536190084	 0.227895
C	 0.1419520621	-4.2648364348	 2.0603296206	-0.442588
C	 0.0979963001	-0.8120447478	 1.0966918838	 0.291762
O	 0.2729213966	-0.3154055169	 2.3280152812	-0.425197
H	 0.9607220264	 1.8229159582	 0.3436172462	 0.154143
H	-0.1266798176	 1.7214386991	-1.0692614188	 0.172643
H	-0.804592458	 1.8658578466	 0.576506279	 0.154139
H	 0.2002724847	-5.1392411874	 2.6599680071	 0.197843
H	 0.3360360928	-1.0595755278	 2.9415873738	 0.321066
61.2491	111.565	121.5075	232.2809	256.1304	312.6416	397.0089	398.0276	488.3654	534.406	536.4667	580.7663	683.7322	692.6165	749.963	752.5462	786.5628	998.0684	1069.0857	1154.3785	1220.4234	1234.0135	1297.628	1354.5455	1378.7013	1444.6748	1481.2782	1504.6995	1583.5053	1629.4173	2228.808	3053.7359	3120.4815	3167.2194	3500.1152	3778.2797
CN1N=NC(C#C)=C1O	Cn1nnc(C#C)c1O	
InChI=1S/C5H5N3O/c1-3-4-5(9)8(2)7-6-4/h1,9H,2H3	InChI=1S/C5H5N3O/c1-3-4-5(9)8(2)7-6-4/h1,9H,2H3
