19
gdb 91219	2.06593	1.69079	1.58213	3.0894	76.59	-0.2105	0.022	0.2326	1018.3003	0.158906	-419.20366	-419.194853	-419.193909	-419.236777	33.03	
C	-0.315001152	 1.4119315085	 0.0113714339	-0.336728
N	 0.1250653606	 0.0302937319	 0.0044222109	-0.099336
C	 1.2226517998	-0.4010685346	-0.8838727793	-0.190102
C	 1.8723161128	-1.1673822803	 0.2960728985	-0.051975
N	 2.8312438977	-0.3759647419	 1.0656602003	-0.325982
C	 1.876030041	 0.2897550875	 1.8190959823	 0.380218
O	 1.9427507684	 1.2254433247	 2.5714295237	-0.3671
C	 0.7372069292	-0.5825304036	 1.2068735009	 0.184788
C	-0.1902741906	-1.323138224	 2.1353103355	-0.481702
H	 0.4932252366	 2.1386930828	 0.197861787	 0.114017
H	-0.7764036551	 1.6480224186	-0.953445767	 0.120402
H	-1.0744417732	 1.5488839247	 0.787350085	 0.130158
H	 0.8740134475	-1.0151220529	-1.7220242465	 0.108094
H	 1.859453335	 0.4056550319	-1.2750386783	 0.091267
H	 2.1014425611	-2.227350492	 0.1960744098	 0.093259
H	 3.7348858196	-0.0271850049	 0.7701700266	 0.242331
H	-0.8119158808	-0.6113901484	 2.6895695566	 0.137675
H	-0.8496022013	-1.9897186527	 1.5728158676	 0.124075
H	 0.3744055737	-1.9074709853	 2.8686515826	 0.126639
117.6595	133.027	179.5229	188.1719	216.8009	242.3235	336.7635	352.7594	421.1473	513.5815	542.8915	637.9242	693.2102	733.3086	772.3801	858.5387	866.7296	880.8744	971.6044	1009.6603	1075.4461	1099.0004	1119.8575	1132.0485	1143.524	1170.6219	1208.2312	1229.7747	1257.0734	1300.4489	1320.7425	1335.944	1359.4801	1406.0607	1452.6447	1481.0985	1485.8893	1489.2168	1499.207	1512.6056	1875.5272	2965.9942	2995.9851	3035.964	3052.6039	3062.4014	3102.4872	3104.8098	3119.2186	3125.1693	3563.6573
CN1CC2NC(=O)C12C	CN1C[C@H]2NC(=O)[C@@]12C	
InChI=1S/C6H10N2O/c1-6-4(3-8(6)2)7-5(6)9/h4H,3H2,1-2H3,(H,7,9)	InChI=1S/C6H10N2O/c1-6-4(3-8(6)2)7-5(6)9/h4H,3H2,1-2H3,(H,7,9)/t4-,6+/m1/s1
