16
gdb 43833	3.05621	1.48736	1.16741	3.0229	68.89	-0.2432	-0.0247	0.2185	1035.5837	0.12479	-437.859947	-437.852733	-437.851788	-437.891712	28.282	
O	 0.0840995804	-0.0255890886	 0.0775919494	-0.320363
C	 0.013074041	 1.1715734496	-0.0198343792	 0.447481
C	-1.2654182285	 2.005032603	-0.1932070449	-0.44301
C	-0.8015619103	 3.2325161928	-0.9732252349	 0.499843
C	-1.3941726798	 3.6630576048	-2.2441445516	-0.257569
O	-1.6274560263	 4.388538862	-1.030244371	-0.279766
C	 0.6673664243	 3.4023821783	-0.6839698379	-0.139588
N	 0.9494939106	 3.3230722719	 0.7544265858	-0.3313
C	 1.1776063549	 2.1232961422	-0.1017572059	-0.167932
H	-2.0510275815	 1.4266289275	-0.6805001083	 0.131923
H	-1.6208635116	 2.3126977824	 0.7961417174	 0.16092
H	-0.7841825138	 4.1782228789	-2.9858625081	 0.115685
H	-2.2535001416	 3.1261141694	-2.6433364475	 0.121028
H	 1.2805460743	 4.0280035901	-1.3235920195	 0.103753
H	 1.8540444789	 3.7502985842	 0.9424250749	 0.246854
H	 2.180463419	 1.7448332615	-0.2584340286	 0.112039
89.919	170.8661	278.9185	315.1916	352.6603	433.9507	494.8792	508.2469	557.7116	652.9934	768.6555	806.2769	843.7094	859.7715	875.0625	909.4754	931.3858	937.0565	996.0457	1029.209	1110.3258	1124.9874	1129.1929	1161.2701	1171.6129	1180.969	1236.0312	1251.7227	1288.2145	1344.4423	1372.5093	1434.6352	1459.2484	1534.9006	1851.7124	3063.7326	3078.9473	3133.8517	3166.025	3173.9381	3197.1053	3498.9116
O=C1CC2(CO2)C2NC12	O=C1C[C@]2(CO2)[C@H]2N[C@@H]12	
InChI=1S/C6H7NO2/c8-3-1-6(2-9-6)5-4(3)7-5/h4-5,7H,1-2H2	InChI=1S/C6H7NO2/c8-3-1-6(2-9-6)5-4(3)7-5/h4-5,7H,1-2H2/t4-,5-,6-/m0/s1
