21
gdb 113096	4.69556	0.7636	0.70516	2.6353	81.18	-0.2329	0.0292	0.2622	1617.7661	0.182359	-424.225443	-424.215771	-424.214827	-424.260511	35.49	
O	-0.0028876697	 1.4472027109	 0.0294109149	-0.423309
C	 0.0337040565	 0.0274834831	 0.0070192654	-0.084261
C	-1.404769321	-0.4820475846	 0.0461476628	-0.012631
C	-1.5065595487	-2.0281919798	-0.0321597561	-0.277719
C	-2.6549962684	-2.433369985	 0.9290788887	-0.012631
C	-2.3659550615	-3.7178435081	 1.7016987906	-0.084261
O	-3.502210551	-4.0144516448	 2.5006919121	-0.423309
C	-2.8083474014	-1.2091233645	 1.80396404	-0.074668
C	-2.1373496045	-0.1618467835	 1.3300939364	-0.074668
H	 0.9012148207	 1.7728383498	 0.0582927376	 0.286283
H	 0.5328940304	-0.3437284937	-0.9033230217	 0.082181
H	 0.5847170707	-0.3725429867	 0.8739853181	 0.082098
H	-1.9250456875	-0.0133686685	-0.8020775718	 0.085844
H	-1.6602630437	-2.3909453442	-1.051506445	 0.099488
H	-0.5658404397	-2.4690473675	 0.3255819485	 0.092573
H	-3.5871182566	-2.6074891605	 0.3717059655	 0.085844
H	-2.1527858297	-4.5354689015	 0.993348866	 0.082181
H	-1.4664559189	-3.5739620905	 2.3225579496	 0.082098
H	-3.3056229634	-4.793087403	 3.0292311373	 0.286283
H	-3.4279945124	-1.2209867484	 2.6928830441	 0.101293
H	-2.1135355196	 0.8305878918	 1.7645897367	 0.101293
44.4431	105.3444	123.3353	211.5273	212.0699	238.001	263.0715	266.2063	325.9041	413.4138	490.1954	566.1486	626.3003	746.2779	783.9933	851.9103	860.0967	902.8426	983.0785	990.3858	995.6767	1042.3087	1072.5362	1081.2023	1105.4964	1108.767	1119.6653	1140.7616	1174.9552	1239.388	1240.8321	1250.8397	1254.5123	1291.0462	1318.6916	1326.6358	1333.6494	1359.813	1394.7178	1452.5259	1453.3631	1487.423	1519.428	1520.169	1684.598	2955.7981	2956.4983	2982.0274	2982.2569	3001.8147	3003.7653	3018.3251	3093.3606	3194.6181	3219.1334	3832.4878	3832.5353
OCC1CC(CO)C=C1	OC[C@H]1C[C@@H](CO)C=C1	
InChI=1S/C7H12O2/c8-4-6-1-2-7(3-6)5-9/h1-2,6-9H,3-5H2	InChI=1S/C7H12O2/c8-4-6-1-2-7(3-6)5-9/h1-2,6-9H,3-5H2/t6-,7+
