23
gdb 116139	3.0912	1.0546	0.83532	1.246	90.02	-0.2329	0.0269	0.2598	1476.7676	0.205691	-388.314763	-388.305149	-388.304205	-388.349115	36.373	
C	-0.0808313819	 1.5702570226	 0.0223616271	-0.384405
C	 0.0315583457	 0.0441467045	 0.0157913537	-0.179861
C	 0.7801859612	-0.5106232049	 1.2328164237	 0.098806
O	 0.0627415403	-0.1017089478	 2.3895199545	-0.26313
C	 0.4886255299	-0.7623222599	 3.5654743525	-0.081604
C	 0.1826171626	-2.2587648765	 3.4938775169	-0.294176
C	 0.6507620683	-2.8300832293	 2.1749327734	 0.295924
C	 0.7660735492	-4.3253683109	 2.0776416677	-0.47524
C	 0.9424160996	-2.008871323	 1.1649934568	-0.164895
H	 0.9099036434	 2.0387858053	 0.008348674	 0.10848
H	-0.6310785342	 1.9270216029	-0.8536515284	 0.10667
H	-0.6007461686	 1.9144804424	 0.9194520405	 0.135252
H	-0.9655639274	-0.4111725952	-0.0057387274	 0.103102
H	 0.5546756341	-0.2925229623	-0.8876030164	 0.09131
H	 1.7864725894	-0.0449334127	 1.2552369737	 0.064209
H	 1.5702886565	-0.6112968631	 3.7188639566	 0.086788
H	-0.0382723803	-0.284242074	 4.3965283361	 0.102199
H	 0.6740557594	-2.7788048932	 4.327479953	 0.097008
H	-0.8954797421	-2.4320169194	 3.6182194954	 0.111654
H	-0.1966334802	-4.8089846479	 2.2897767732	 0.123442
H	 1.0929300241	-4.643287078	 1.083812883	 0.11914
H	 1.4780985692	-4.7174816201	 2.8155620746	 0.120786
H	 1.3129799918	-2.4059237095	 0.2220122358	 0.078542
82.1449	107.9803	138.4296	191.5399	205.8831	263.238	289.6416	306.2265	403.7824	422.4895	455.3252	471.6935	575.2528	699.2334	770.9614	801.9634	831.3238	893.5489	894.8623	949.8325	988.5083	1011.7419	1036.0247	1046.5309	1068.7766	1104.3183	1109.2901	1139.3545	1170.1353	1188.8646	1240.1099	1279.5812	1293.9683	1315.7756	1334.0652	1359.4394	1383.1126	1387.837	1406.5827	1413.31	1421.2687	1468.7243	1476.2936	1479.2756	1490.7518	1495.1626	1499.9312	1508.3938	1742.698	2890.6336	2966.6514	3006.3689	3013.6918	3030.2222	3035.613	3039.5547	3058.0151	3068.6142	3081.132	3099.7931	3108.9249	3127.6717	3146.0385
CCC1OCCC(C)=C1	CC[C@H]1OCCC(=C1)C	
InChI=1S/C8H14O/c1-3-8-6-7(2)4-5-9-8/h6,8H,3-5H2,1-2H3	InChI=1S/C8H14O/c1-3-8-6-7(2)4-5-9-8/h6,8H,3-5H2,1-2H3/t8-/m1/s1
