15
gdb 130957	6.56811	0.73087	0.69598	2.4862	68.34	-0.2705	-0.0466	0.2239	1528.5029	0.113024	-450.115465	-450.107301	-450.106356	-450.150428	27.371	
O	-0.121437921	-0.0342684944	 0.0152476335	-0.221531
C	 0.001844854	 1.1590684825	-0.0536609964	 0.15776
C	 1.3306408325	 1.8847849942	-0.1196866715	-0.28315
C	 1.3837589228	 2.8527066345	-1.3105635115	-0.158857
N	 2.5589652512	 3.7078520424	-1.2601323839	 0.149968
N	 2.7472050522	 4.6334111701	-0.3273451349	-0.252541
C	 3.9323837091	 5.1164717893	-0.6795529625	 0.081949
N	 4.4401446673	 4.5098195862	-1.775632346	-0.20445
N	 3.5549220761	 3.613272965	-2.1337752029	-0.11963
H	-0.8887603844	 1.8305301826	-0.0620819681	 0.081997
H	 1.4342881953	 2.4731060093	 0.8017467335	 0.15588
H	 2.1409685667	 1.1535248871	-0.1627765048	 0.145316
H	 1.4443070144	 2.3188539835	-2.2601712637	 0.167799
H	 0.5008390163	 3.4989744666	-1.3249689666	 0.147594
H	 4.4301258875	 5.9101762711	-0.1467304344	 0.151897
40.157	64.6578	69.0138	124.0466	267.2649	326.4958	376.3692	520.3461	702.628	726.6922	765.4208	778.2267	858.695	904.8085	999.3008	1028.8248	1046.6464	1070.479	1094.1114	1159.0245	1169.8449	1245.0891	1276.8412	1279.6441	1320.496	1361.6448	1399.3173	1403.7828	1430.672	1465.168	1483.8593	1496.7456	1843.413	2858.5954	3036.4119	3067.5837	3118.5123	3142.2515	3288.7516
O=CCCN1N=CN=N1	O=CCCn1ncnn1	
InChI=1S/C4H6N4O/c9-3-1-2-8-6-4-5-7-8/h3-4H,1-2H2	InChI=1S/C4H6N4O/c9-3-1-2-8-6-4-5-7-8/h3-4H,1-2H2
