15
gdb 48235	2.83072	1.25656	0.91265	2.8708	74.17	-0.2556	-0.0743	0.1813	1214.6717	0.112553	-450.133122	-450.124363	-450.123419	-450.167135	30.815	
N	-0.5258847136	 1.4349531159	-0.7943816711	-0.463915
C	-0.3316798048	 0.1875265035	-0.9089524081	 0.104869
N	-1.0310675048	-0.738969304	-0.1167500627	-0.110211
C	-1.9909766385	-0.2957602324	 0.7935442003	 0.088374
N	-2.7930065989	-1.1198399914	 1.3329274052	-0.460538
C	-0.8815680194	-2.1195960615	-0.3716857078	 0.278567
N	-0.5273745848	-2.5274162744	-1.5195756757	-0.476323
C	-1.0182583484	-3.0678869615	 0.8121755018	 0.13106
O	-1.1490966295	-4.2500691879	 0.6287468428	-0.254664
H	 0.0924061881	 1.9476140112	-1.4190853618	 0.24122
H	 0.3609183809	-0.314050275	-1.5846441946	 0.148118
H	-1.9512990088	 0.7837151389	 0.934677571	 0.16089
H	-3.4116687753	-0.6536294823	 1.9925577799	 0.244133
H	-0.422592904	-3.5449472519	-1.4777782766	 0.252437
H	-0.8902546481	-2.6287539272	 1.8139544074	 0.115983
63.7858	112.0586	134.3173	194.3858	236.5371	268.5298	302.3187	357.8321	419.6564	467.2375	551.6614	684.9601	734.6379	815.1915	829.9762	862.0991	927.244	981.9353	1011.534	1070.2767	1079.1998	1140.9752	1158.0715	1268.528	1356.6896	1369.6949	1401.1794	1419.7135	1444.7448	1699.7892	1708.4026	1732.6479	1813.6205	3009.3496	3139.0101	3149.7362	3449.59	3518.4117	3519.5077
N=CN(C=N)C(=N)C=O	N=CN(C=N)C(=N)C=O	
InChI=1S/C4H6N4O/c5-2-8(3-6)4(7)1-9/h1-3,5-7H	InChI=1S/C4H6N4O/c5-2-8(3-6)4(7)1-9/h1-3,5-7H
