18
gdb 99620	2.28624	1.32069	1.0515	4.0828	73.06	-0.2667	0.0144	0.2811	1217.3729	0.145092	-439.064459	-439.054762	-439.053818	-439.099223	34.917	
C	-0.0860337846	 1.3764943414	 0.1208334821	-0.249778
O	 0.3660371096	 0.0402337284	-0.0286346803	-0.251986
C	 0.7745672302	-0.5867447458	 1.1689863368	-0.093339
C	-0.356436916	-0.717815551	 2.1193138308	 0.286046
N	-1.2349618842	-0.7866169339	 2.8662971494	-0.327767
C	 1.3229421825	-1.946290453	 0.7761790685	 0.438255
O	 0.3983838671	-2.7262568845	 0.0847690376	-0.467013
C	 2.7860103885	-2.062304812	 0.4252319434	-0.335829
C	 2.2386546642	-2.6815514963	 1.6979860139	-0.309377
H	 0.7014041395	 2.0164443403	 0.5443637107	 0.116032
H	-0.3383190972	 1.7340652373	-0.8789881046	 0.14046
H	-0.9748421179	 1.4339332405	 0.7619186888	 0.141694
H	 1.5589895827	 0.0021026154	 1.6704203579	 0.111656
H	 0.1036998467	-2.2012566641	-0.6702429369	 0.294235
H	 3.0264800988	-2.7325260234	-0.391348393	 0.128206
H	 3.4199886468	-1.1858347072	 0.5045425746	 0.116297
H	 2.4959592933	-2.231142827	 2.650407229	 0.123739
H	 2.1156523301	-3.7577075153	 1.7214895212	 0.138468
67.7643	96.3323	131.0317	166.8858	175.9687	246.2818	309.6159	324.0817	355.3726	400.0234	432.6661	506.7858	542.4771	611.979	765.7031	841.0945	875.9728	910.6806	954.5216	972.4584	997.3283	1012.9511	1053.4105	1081.7822	1136.5764	1184.1152	1186.8367	1210.4731	1236.5787	1317.6894	1319.6154	1346.0435	1420.5192	1453.4139	1480.6296	1487.4299	1505.9445	1508.4	2355.843	2985.5973	2998.0161	3062.1407	3134.5203	3136.8865	3142.3595	3225.3759	3238.5706	3781.2228
COC(C#N)C1(O)CC1	CO[C@@H](C#N)C1(O)CC1	
InChI=1S/C6H9NO2/c1-9-5(4-7)6(8)2-3-6/h5,8H,2-3H2,1H3	InChI=1S/C6H9NO2/c1-9-5(4-7)6(8)2-3-6/h5,8H,2-3H2,1H3/t5-/m0/s1
