14
gdb 44516	4.71286	1.44129	1.25575	3.2947	60.87	-0.2644	0.0341	0.2986	935.7313	0.102689	-473.795682	-473.789375	-473.78843	-473.826509	25.053	
O	 0.0101272127	-0.0585050067	 0.0476861019	-0.382158
C	-0.0326053216	 1.1411294193	 0.0129858439	 0.486647
N	-1.1754526824	 1.8976655861	 0.0373676689	-0.39149
C	-1.1354603276	 3.3307255482	-0.0084641641	 0.02923
C	-0.0951703572	 3.9580612943	-0.9808228056	-0.013384
O	-0.0198949369	 5.1390830507	-0.1109317169	-0.296207
C	-0.0191262248	 4.013943652	 0.8331261488	-0.013404
C	 1.0006776009	 3.2979213955	-0.0970046354	 0.129107
O	 1.1136206275	 1.8889597884	-0.0583158169	-0.266792
H	-2.0428701537	 1.3912212894	 0.0892597388	 0.26808
H	-2.1249174821	 3.7840796924	 0.0190078919	 0.109447
H	-0.1351595658	 4.1056550786	-2.0587442088	 0.110539
H	 0.0307786389	 4.2275950088	 1.8995030996	 0.110541
H	 2.0009062721	 3.7229383228	-0.152061026	 0.119845
91.4168	290.512	352.8785	420.6702	449.3451	490.2487	498.7655	666.2211	767.1667	776.4644	787.9887	858.2897	869.7425	887.2423	906.0944	915.968	1018.1141	1028.7127	1082.6182	1109.9234	1143.5945	1162.3589	1171.2776	1208.7778	1233.1174	1260.1996	1273.2369	1390.5612	1396.1108	1449.6852	1873.7791	3135.3671	3138.4826	3145.4255	3156.4477	3668.4968
O=C1NC2C3OC2C3O1	O=C1N[C@@H]2[C@H]3O[C@@H]2[C@H]3O1	
InChI=1S/C5H5NO3/c7-5-6-1-2-4(9-5)3(1)8-2/h1-4H,(H,6,7)	InChI=1S/C5H5NO3/c7-5-6-1-2-4(9-5)3(1)8-2/h1-4H,(H,6,7)/t1-,2-,3+,4+
