17
gdb 106883	2.32083	1.41553	1.04638	1.7892	70.45	-0.249	-0.042	0.207	1154.4847	0.134005	-458.919845	-458.911083	-458.910138	-458.953714	31.819	
O	 0.2627727405	 1.2058449793	 0.2783354782	-0.407732
C	 0.0509439744	-0.1611360308	-0.0502406844	-0.179528
C	-1.4057318197	-0.5191817869	-0.0776318184	 0.187813
C	-2.1904344987	-0.9092315514	 1.1456795958	-0.38102
C	-2.0820604577	-1.900470638	 0.0167664047	 0.307343
O	-3.0062808488	-1.6021241881	-1.0241742363	-0.323471
C	-2.3773556015	-0.306522957	-1.2394285051	-0.132813
C	-1.4649169712	-3.2317398522	 0.1145558456	 0.073732
O	-0.6509555901	-3.5319358479	 0.9582627968	-0.274583
H	-0.0664920819	 1.3447157533	 1.1726446158	 0.28619
H	 0.493225628	-0.2942460257	-1.0430889225	 0.117648
H	 0.5775131298	-0.8379719284	 0.6383864454	 0.11874
H	-1.59316656	-1.1642838144	 2.0156511626	 0.145846
H	-3.1695870245	-0.4820202428	 1.3423427428	 0.12861
H	-3.0923217645	 0.5187985498	-1.1575068235	 0.118107
H	-1.8818792017	-0.2780236085	-2.2159708365	 0.120273
H	-1.7962081324	-3.9407743402	-0.6740325311	 0.094844
69.8962	103.7384	143.7803	205.8117	223.2025	298.8614	336.4997	370.5641	424.3846	436.6665	551.6102	684.2791	759.4638	813.2913	823.6469	935.3644	943.5621	973.6453	988.3394	1034.8247	1050.8788	1058.7554	1072.8906	1123.3162	1154.427	1180.8346	1250.2406	1299.4019	1340.0811	1371.3377	1401.9789	1413.4959	1428.1122	1475.396	1501.2189	1517.7225	1793.0912	2909.7439	3003.7032	3035.4853	3076.5857	3089.7041	3119.6944	3219.7842	3811.9241
OCC12CC1(OC2)C=O	OC[C@]12C[C@]1(OC2)C=O	
InChI=1S/C6H8O3/c7-2-5-1-6(5,3-8)9-4-5/h3,7H,1-2,4H2	InChI=1S/C6H8O3/c7-2-5-1-6(5,3-8)9-4-5/h3,7H,1-2,4H2/t5-,6-/m0/s1
