16
gdb 17316	2.79569	2.45897	1.74075	0.9398	63.35	-0.2288	0.0569	0.2857	800.1238	0.128441	-383.645038	-383.637472	-383.636528	-383.677189	28.679	
C	-0.0554405052	 1.6123421183	-0.0326559364	-0.404634
C	 0.1292157375	 0.0987047493	 0.0380183026	-0.07289
C	 1.3853645697	-0.7315137842	-0.2140854306	-0.182943
C	 2.6584254155	-0.1718324727	 0.4870098149	 0.028652
O	 2.3458976835	 1.0555184095	 1.1697020997	-0.239367
C	 2.0052478268	-0.190547503	 1.7889173647	-0.062118
C	 0.6922765597	-0.7612054044	 1.1388159537	 0.323586
O	 0.0322434759	-1.8362241128	 1.7044422486	-0.451624
H	 0.6886059945	 2.0792274189	-0.6813340227	 0.128371
H	-1.0462842988	 1.8452453384	-0.43693034	 0.099399
H	 0.0310081814	 2.0841721459	 0.9472278159	 0.126795
H	-0.7052147089	-0.450830134	-0.3981049582	 0.098589
H	 1.4206056264	-1.5056432283	-0.9696028387	 0.09971
H	 3.6891873977	-0.3355731966	 0.1982387936	 0.110421
H	 2.3748540733	-0.3976720738	 2.786600967	 0.109997
H	-0.667841639	-1.4957154603	 2.2733784659	 0.288055
37.2537	205.9885	236.7378	255.8855	317.1698	343.8004	420.7919	522.6923	577.6342	688.4229	730.7989	760.6654	805.7814	854.5877	871.8696	929.3043	965.1442	970.2881	991.4955	1047.37	1066.7913	1108.2825	1114.4183	1170.6902	1205.6189	1241.9123	1271.1974	1302.837	1340.8306	1377.3122	1421.7001	1471.897	1491.3543	1495.6293	3042.9714	3104.4066	3119.5803	3134.4992	3181.3858	3195.8789	3204.3905	3781.7201
CC1C2C3OC3C12O	C[C@H]1[C@H]2[C@H]3O[C@H]3[C@@]12O	
InChI=1S/C6H8O2/c1-2-3-4-5(8-4)6(2,3)7/h2-5,7H,1H3	InChI=1S/C6H8O2/c1-2-3-4-5(8-4)6(2,3)7/h2-5,7H,1H3/t2-,3-,4+,5+,6+/m0/s1
