20
gdb 100546	2.87577	0.96801	0.87731	2.1897	77.09	-0.2458	0.002	0.2478	1419.1863	0.168983	-440.27879	-440.268497	-440.267553	-440.315597	35.948	
C	-0.6736883832	 1.8612057562	-0.2882953236	-0.394719
C	 0.0203803472	 0.5004223175	-0.1774013843	-0.062908
C	-0.9824536344	-0.6220408128	 0.1397146656	-0.075344
O	-1.5487136764	-0.348550787	 1.4123561882	-0.422842
C	 0.7381223052	 0.1351120677	-1.4739266775	 0.344251
O	 0.2957452781	 0.3863138	-2.573575943	-0.343245
N	 1.8924910193	-0.6330035754	-1.2945800757	-0.074496
C	 3.1466191485	-0.1245862708	-0.7629130247	-0.232179
C	 3.0165018567	-0.5510737603	-2.1956385237	-0.220752
H	 0.0550714407	 2.6723927418	-0.3791912546	 0.107201
H	-1.3122488891	 1.8846235184	-1.1751153936	 0.135459
H	-1.2842663157	 2.0379904979	 0.5990404776	 0.130965
H	 0.748118047	 0.5092792191	 0.641646344	 0.088176
H	-1.7499397963	-0.647392894	-0.6486263212	 0.103391
H	-0.4615180643	-1.5910533485	 0.1367789783	 0.099471
H	-2.2538346946	-0.9831275266	 1.5690321387	 0.288569
H	 3.2171118397	 0.9420099828	-0.5626544578	 0.13242
H	 3.6548196656	-0.7613724215	-0.0439995926	 0.128913
H	 3.4408256803	-1.4985392356	-2.5146739528	 0.1275
H	 2.9752189456	 0.2213730813	-2.9586678873	 0.140169
17.5707	85.4991	107.0522	163.0615	183.5827	215.6242	222.723	234.5183	289.4856	338.7311	382.0845	491.479	616.0417	748.5734	781.3576	817.8917	868.9151	935.1317	935.9808	969.4108	1040.1734	1047.2835	1080.1824	1105.414	1121.0285	1131.0725	1136.8151	1169.0967	1176.6241	1180.4294	1238.4879	1271.5716	1322.6422	1359.9721	1397.0768	1402.2693	1449.1216	1495.064	1496.4533	1500.793	1522.7611	1525.3721	1784.032	2981.1062	3016.2848	3049.0647	3053.8102	3105.6325	3117.5448	3118.0041	3142.566	3190.6586	3208.7769	3833.1411
CC(CO)C(=O)N1CC1	C[C@@H](CO)C(=O)N1CC1	
InChI=1S/C6H11NO2/c1-5(4-8)6(9)7-2-3-7/h5,8H,2-4H2,1H3	InChI=1S/C6H11NO2/c1-5(4-8)6(9)7-2-3-7/h5,8H,2-4H2,1H3/t5-/m0/s1
