16
gdb 16627	3.10028	2.35512	1.55712	4.0969	63.39	-0.2678	0.0088	0.2766	826.328	0.131371	-383.774206	-383.76731	-383.766366	-383.805221	26.53	
C	-0.390038535	 1.4904626305	 0.0307028554	-0.392295
C	 0.0366938734	 0.0241285287	-0.081050701	-0.155647
C	 0.9037004538	-0.3732774347	-1.2598287994	-0.072691
C	 2.3171404272	 0.1807531168	-1.3271851468	-0.320248
C	 2.0545010529	-1.1426792591	-0.6748034554	 0.090514
O	 1.9600576673	-1.1265964402	 0.7380644074	-0.217871
C	 0.8603770484	-0.419886254	 1.1401298177	 0.423531
O	 0.6306919274	-0.2005379103	 2.2926279128	-0.33427
H	 0.4730742877	 2.1596850482	-0.0334559041	 0.123225
H	-1.0841233825	 1.7543666014	-0.7718548866	 0.118668
H	-0.8810687584	 1.6605440975	 0.9921482535	 0.145322
H	-0.8652131009	-0.6023185695	-0.0765139094	 0.115556
H	 0.4293337926	-0.6923976451	-2.1794928159	 0.102395
H	 2.8002691899	 0.1764969592	-2.2978862892	 0.125665
H	 2.5967460846	 1.0090265874	-0.6837566572	 0.131591
H	 2.4406908716	-2.0798428369	-1.0533027319	 0.116555
107.1463	217.6374	222.314	252.135	405.8231	471.6563	497.8263	611.1515	696.9694	713.0097	781.835	794.0172	820.502	912.6326	973.8411	989.3991	1029.7017	1045.899	1072.4893	1092.961	1104.6747	1136.0756	1146.5312	1173.7746	1202.2647	1291.6985	1329.6984	1359.2812	1387.8375	1408.8957	1476.0597	1497.1195	1499.1631	1881.542	3025.8295	3046.3336	3117.1731	3129.0754	3131.992	3185.4258	3202.515	3223.4742
CC1C2CC2OC1=O	C[C@H]1[C@H]2C[C@H]2OC1=O	
InChI=1S/C6H8O2/c1-3-4-2-5(4)8-6(3)7/h3-5H,2H2,1H3	InChI=1S/C6H8O2/c1-3-4-2-5(4)8-6(3)7/h3-5H,2H2,1H3/t3-,4+,5+/m0/s1
