21
gdb 87892	4.11125	0.99512	0.89625	1.7756	85.48	-0.2323	0.0304	0.2626	1392.2932	0.181223	-387.101951	-387.09276	-387.091816	-387.135981	34.829	
C	 0.3355318013	 1.4945628779	-0.4017154682	-0.422368
C	 0.0987113295	 0.0491890543	-0.0453083991	 0.005764
O	 1.2555844507	-0.7674168571	 0.1817084315	-0.293163
C	 0.3667525604	-0.5213491836	 1.281606704	 0.409326
C	 0.9307190558	 0.2691570492	 2.4707972777	-0.343287
C	 0.6476708442	-0.634959626	 3.6422165	-0.171972
C	-0.0604183477	-1.7188455122	 3.3150670471	 0.33323
C	-0.5212972278	-2.8096090467	 4.2287504212	-0.490891
C	-0.386315338	-1.735291063	 1.8378444841	-0.388804
H	 1.0969673318	 1.9423611376	 0.2409081866	 0.127698
H	 0.6714714504	 1.5814803883	-1.4403764151	 0.127846
H	-0.5908152876	 2.0710774747	-0.3009298699	 0.119086
H	-0.6686142251	-0.4458755037	-0.6465022563	 0.078488
H	 1.9996819768	 0.4629690219	 2.3235047142	 0.120855
H	 0.4460872213	 1.249119866	 2.5835686411	 0.106718
H	 0.9869972211	-0.4040815959	 4.6466933719	 0.084485
H	-0.2062103104	-2.631626136	 5.2605955863	 0.122678
H	-1.6151424203	-2.9017333111	 4.2174505786	 0.123116
H	-0.1256300332	-3.7838118804	 3.9141585649	 0.126664
H	-1.4698819391	-1.6646852458	 1.6657196777	 0.104869
H	-0.049148744	-2.6508606685	 1.3360764717	 0.119662
46.0432	155.6229	181.9911	186.5206	221.0065	250.5308	289.1017	404.843	428.2019	440.0114	474.0863	534.467	638.4868	752.7111	796.0623	818.228	885.5396	899.1561	935.2328	961.0965	993.2495	1015.5413	1029.8867	1037.9448	1078.8076	1121.2674	1150.9035	1162.5754	1180.5788	1211.1072	1225.0566	1278.9168	1297.2024	1338.207	1367.6982	1408.2012	1414.9722	1467.2997	1472.0368	1478.8016	1480.0574	1489.6842	1491.4429	1512.7093	1726.1074	3004.4634	3008.3821	3016.109	3035.9613	3048.8607	3053.6553	3060.9106	3069.7521	3097.3785	3109.4453	3129.1412	3184.6601
CC1OC11CC=C(C)C1	C[C@H]1O[C@]21CC=C(C)C2	
InChI=1S/C8H12O/c1-6-3-4-8(5-6)7(2)9-8/h3,7H,4-5H2,1-2H3	InChI=1S/C8H12O/c1-6-3-4-8(5-6)7(2)9-8/h3,7H,4-5H2,1-2H3/t7-,8-/m1/s1
