20
gdb 80412	2.50531	1.73131	1.27449	1.7535	78.58	-0.2144	-0.0107	0.2037	1065.3756	0.171247	-403.140935	-403.132442	-403.131498	-403.173621	32.879	
C	-0.1283223541	 1.5373051383	 0.0115920461	-0.419289
C	 0.0660496319	 0.027871289	-0.0375757145	-0.057878
N	 0.8968872127	-0.4697780034	-1.1815739703	-0.135677
C	 1.0917691659	-1.9096808011	-0.752293774	-0.224788
C	 1.9544010334	-1.3490564973	 0.424399626	 0.191936
C	 2.9418515054	-2.1228222308	 1.2562615978	-0.504799
C	 2.3004227294	-0.2588301779	-0.6408619	-0.229416
C	 0.8554465438	-0.5763685516	 1.1500154154	 0.40448
O	 0.6688810527	-0.45726491	 2.3319410705	-0.34702
H	 0.8222204816	 2.0778408012	 0.0338929223	 0.121558
H	-0.6926101935	 1.877377223	-0.8606313479	 0.129827
H	-0.6816859609	 1.8024574883	 0.9168639044	 0.138988
H	-0.917006215	-0.4547674134	-0.0977525203	 0.101099
H	 0.1719522578	-2.4587764155	-0.528858574	 0.108811
H	 1.6849164146	-2.4510258368	-1.4940151692	 0.113705
H	 3.6912073847	-2.6221718757	 0.6342608113	 0.114751
H	 3.4602687121	-1.4581353811	 1.9547691644	 0.133617
H	 2.4302565692	-2.8830256022	 1.8555133763	 0.132347
H	 3.0373555424	-0.5978254482	-1.3733386428	 0.115481
H	 2.5412025159	 0.7553376852	-0.3134853918	 0.112265
117.8422	160.2055	178.4001	207.6927	236.4341	285.1594	319.9502	472.1951	493.2098	516.9792	595.0877	636.3459	709.256	769.5907	824.0035	842.2874	879.5464	904.5498	925.1358	985.6927	1001.2949	1037.9478	1059.8501	1081.7502	1118.8247	1138.4237	1165.5845	1203.8482	1223.7393	1231.0634	1251.7832	1287.2878	1354.4907	1361.3926	1405.4034	1416.4511	1486.5244	1486.8708	1488.3145	1494.8886	1504.2907	1533.0031	1862.1405	3035.4189	3035.7995	3047.0061	3048.2622	3061.7286	3104.6778	3106.7813	3109.8654	3115.9773	3122.7422	3125.9503
CC1N2CC(C)(C2)C1=O	C[C@H]1N2C[C@@](C)(C2)C1=O	
InChI=1S/C7H11NO/c1-5-6(9)7(2)3-8(5)4-7/h5H,3-4H2,1-2H3	InChI=1S/C7H11NO/c1-5-6(9)7(2)3-8(5)4-7/h5H,3-4H2,1-2H3/t5-/m1/s1
