12
gdb 131705	2.31748	0.84974	0.6475	1.5197	57.25	-0.2752	-0.0531	0.2221	1584.1758	0.07136	-506.027211	-506.015816	-506.014872	-506.070159	32.747	
O	 0.3396098368	 1.56932419	 0.1536796144	-0.400703
C	 0.2043791596	 0.1906657541	-0.0563886797	-0.151886
C	-1.1752392485	-0.3742862994	 0.2561115048	 0.361272
N	-2.1861999077	 0.6236856767	 0.1610670792	-0.459655
C	-3.3905075759	 0.5441277544	 0.3449031668	 0.614308
O	-4.5396556828	 0.5870386964	 0.4980713499	-0.254358
N	-4.0428915337	-2.5607033467	-0.8701552324	-0.003094
N	-4.1780993551	-3.6359451307	-0.6901621602	 0.001164
O	-1.3953942484	-1.5267170953	 0.5068237602	-0.286787
H	-0.4258371235	 2.0038242149	-0.2400766968	 0.296998
H	 0.4275420175	-0.1069367325	-1.0965946962	 0.128781
H	 0.9243640517	-0.3248647119	 0.58425194	 0.153958
10.957	19.1222	37.132	45.9646	74.4748	86.1955	88.1822	114.5683	229.3337	295.7337	467.642	532.2411	615.6008	640.0159	647.1458	794.6291	1002.5623	1082.3351	1157.5667	1229.3024	1350.2073	1419.1183	1452.4214	1478.8473	1817.4971	2340.3339	2433.3258	2955.8246	3104.8934	3800.0336	10.9563	19.123	37.1325	45.9649	74.4744	86.1954	88.1823	114.5684	229.3336	295.7334	467.642	532.241	615.6007	640.0158	647.1457	794.6288	1002.5623	1082.3349	1157.5666	1229.3025	1350.2076	1419.1185	1452.4215	1478.8476	1817.4968	2340.3337	2433.3258	2955.8245	3104.8934	3800.0334
OCC1=NC(=O)N=NO1	OCC(=O)N=C=O.N#N	
InChI=1S/C3H3N3O3/c7-1-2-4-3(8)5-6-9-2/h7H,1H2	InChI=1S/C3H3NO3.N2/c5-1-3(7)4-2-6;1-2/h5H,1H2;
