24
gdb 89065	3.71804	0.72351	0.67178	1.2663	90.19	-0.22	0.0835	0.3035	1782.023	0.216803	-368.36771	-368.357691	-368.356747	-368.403676	37.27	
C	-0.6145918503	 1.1954965401	 0.2506753995	-0.312582
N	 0.0232831252	-0.107606012	 0.1516029845	-0.078387
C	 1.4214080276	-0.1427623208	-0.2617583717	-0.265972
C	 1.0376188284	-0.5153069891	 1.1304129704	 0.027241
C	 1.4599279967	 0.3214903232	 2.32128501	-0.21193
C	 0.5356920611	 0.1512400458	 3.5380225609	-0.204436
C	 1.0067127205	 0.9235114219	 4.7516961297	 0.036699
C	 0.6464226915	 2.3800188572	 4.9169259222	-0.255939
C	 0.0344723407	 1.3401150117	 5.8246457552	-0.277811
H	 0.0480361471	 2.0150793462	 0.5714251504	 0.09885
H	-1.0153984284	 1.4608744756	-0.7332455893	 0.122565
H	-1.4547972199	 1.1390352855	 0.9509349529	 0.120454
H	 1.68938334	-0.8986469276	-0.9961349748	 0.109812
H	 1.9369728941	 0.810222791	-0.3868342525	 0.099996
H	 0.9731861332	-1.5800620457	 1.3594044914	 0.083937
H	 2.4789202571	 0.0201737	 2.6008053032	 0.098246
H	 1.5256147516	 1.3811101085	 2.0532581869	 0.100416
H	-0.480117867	 0.4737323238	 3.2753441748	 0.097111
H	 0.4593288451	-0.9167423345	 3.7851369946	 0.096839
H	 1.9993273101	 0.6441544524	 5.0987521137	 0.078654
H	 1.3850485518	 3.0568727052	 5.3320565335	 0.109215
H	 0.0075425384	 2.8309521547	 4.163938265	 0.107838
H	-1.0130609495	 1.0956748899	 5.6801371436	 0.109605
H	 0.3575546849	 1.3052652169	 6.8592790862	 0.109581
49.9052	53.8379	107.5279	128.1543	194.8567	247.4693	291.6404	306.6448	374.4102	388.7159	466.4971	520.096	731.6384	762.4105	781.9098	786.2795	824.3396	844.0366	907.0663	933.7794	959.428	1004.6896	1034.7598	1042.2545	1058.4269	1078.1033	1090.8463	1110.949	1115.5633	1133.5285	1140.9885	1167.7197	1196.1393	1198.4103	1204.5681	1227.4929	1242.3483	1277.0889	1318.7649	1340.0675	1365.1265	1417.3764	1424.788	1447.3036	1468.421	1474.1684	1486.2044	1493.4213	1505.021	1507.4696	1513.0757	2972.7717	3008.904	3017.8611	3045.3416	3060.4791	3073.1078	3077.9245	3094.3968	3095.0694	3126.3539	3126.6819	3132.6027	3164.2991	3204.3023	3219.6192
CN1CC1CCC1CC1	CN1C[C@H]1CCC1CC1	
InChI=1S/C8H15N/c1-9-6-8(9)5-4-7-2-3-7/h7-8H,2-6H2,1H3	InChI=1S/C8H15N/c1-9-6-8(9)5-4-7-2-3-7/h7-8H,2-6H2,1H3/t8-,9?/m1/s1
