15
gdb 37541	4.15503	1.74985	1.49143	4.2788	68.8	-0.2313	0.0052	0.2364	853.8354	0.114801	-416.681639	-416.675839	-416.674895	-416.711532	24.508	
N	-0.080133607	 1.5577445198	-0.0264826132	-0.330062
C	 1.2955112002	 1.8360129302	-0.1433440574	 0.034074
N	 2.0755825283	 0.8930012066	-0.5567647828	-0.35175
C	 1.1137745441	-0.1429826929	-0.8136886055	 0.37046
C	-0.1411709247	 0.0955722399	 0.0126410218	-0.04124
C	-0.6401061636	-0.871769005	-1.0831322074	-0.142718
C	 0.2904244705	-0.2869461963	-2.1669580364	 0.048389
O	 0.8924173383	-1.5621483418	-2.5333881518	-0.310862
C	 0.7645539862	-1.6449124046	-1.0977523956	-0.028309
H	-0.612366479	 2.1099876119	 0.6308483396	 0.243714
H	 1.6440819023	 2.8413767446	 0.0751516274	 0.128254
H	-0.1677013511	-0.2955770305	 1.0375740316	 0.080287
H	-1.6132485262	-1.3372167435	-1.2352461554	 0.090987
H	 0.0940589018	 0.4447956413	-2.9473636666	 0.105465
H	 1.0598692199	-2.5607317198	-0.5869340683	 0.103309
214.388	309.3538	343.0321	552.2551	559.615	599.8322	622.5886	698.1725	717.9867	809.7828	833.3826	860.099	884.3929	907.9065	923.1335	937.4895	956.8807	1021.4339	1046.6779	1052.5056	1067.9532	1094.9606	1110.5552	1150.7463	1176.2532	1181.3507	1246.1192	1265.1509	1321.0291	1329.7585	1344.7492	1434.7928	1602.0557	3022.448	3123.9653	3133.4573	3151.6327	3186.9559	3597.0685
N1C=NC23C1C1C2OC31	N1[CH][N][C@@]23[C@@H]1[C@H]1[C@@H]2O[C@@H]31	
InChI=1S/C6H6N2O/c1-7-3-2-4-6(3,8-1)5(2)9-4/h1-5H,(H,7,8)	InChI=1S/C6H6N2O/c1-7-3-2-4-6(3,8-1)5(2)9-4/h1-5H,(H,7,8)/t2-,3-,4-,5+,6-/m0/s1
