23
gdb 87202	3.77819	0.84053	0.8033	1.1985	85.9	-0.2491	0.0797	0.3288	1542.0002	0.204364	-388.261281	-388.251284	-388.25034	-388.296356	38.031	
C	 0.1294962639	 1.7150569966	 0.1429519344	-0.460134
C	-0.0663559781	 0.2108652752	 0.1114664148	 0.345615
C	-1.5006185037	-0.2696367129	 0.3040836895	-0.295452
C	-2.4725123512	 0.1810528942	-0.7700271909	 0.043747
C	-2.6495431918	-0.6127889644	-2.040620421	-0.252468
C	-3.7494850907	-0.5843859358	-1.0072716317	-0.278795
C	 0.8410537162	-0.5993909005	-0.8019282728	-0.362439
C	 1.0198041951	-0.6534191499	 0.6966200343	 0.058381
O	 2.1158022972	-0.0186361415	 1.2920045313	-0.423621
H	 1.1907048704	 1.9689660799	 0.1618247908	 0.128128
H	-0.3254862024	 2.1933936868	-0.7306470933	 0.112758
H	-0.3295689489	 2.1481203773	 1.0396994572	 0.111757
H	-1.5133580092	-1.3665377303	 0.351050565	 0.083383
H	-1.8582052834	 0.081485898	 1.2830035645	 0.097582
H	-2.5542275662	 1.2589684024	-0.8793721077	 0.08414
H	-2.8006390956	-0.0777559943	-2.971768997	 0.108289
H	-2.084395324	-1.5326113178	-2.1487431105	 0.106913
H	-3.9164289957	-1.4833524408	-0.4220469036	 0.107274
H	-4.6538238667	-0.0285555753	-1.229433384	 0.108519
H	 0.4408127083	-1.4682899093	-1.3133991105	 0.105085
H	 1.5929560887	-0.0522403429	-1.3619615553	 0.106832
H	 0.6999687543	-1.5634718617	 1.2065531849	 0.077882
H	 2.9088834234	-0.5037237532	 1.0422797318	 0.286623
49.8827	86.5449	131.9965	199.9866	221.3543	264.5696	286.5376	308.443	351.2086	363.9838	409.4439	471.741	571.3339	708.0624	773.1556	802.9847	814.3127	840.2191	888.7512	899.9568	916.1276	962.2953	982.9413	1001.8556	1032.7027	1044.8545	1058.3378	1076.5944	1093.8328	1115.5202	1133.6705	1143.0923	1189.218	1198.0448	1230.0027	1258.585	1274.4377	1305.1573	1340.5442	1353.1646	1411.1512	1422.8654	1424.8424	1469.0356	1476.6081	1485.55	1499.7285	1505.5319	1508.9069	2998.2176	3030.3921	3038.664	3083.5838	3087.0845	3125.1521	3126.9339	3132.8643	3134.3547	3144.3928	3204.0603	3212.5756	3220.0334	3807.4228
CC1(CC2CC2)CC1O	C[C@@]1(CC2CC2)C[C@H]1O	
InChI=1S/C8H14O/c1-8(5-7(8)9)4-6-2-3-6/h6-7,9H,2-5H2,1H3	InChI=1S/C8H14O/c1-8(5-7(8)9)4-6-2-3-6/h6-7,9H,2-5H2,1H3/t7-,8-/m1/s1
