16
gdb 26827	3.52332	1.12643	0.85871	5.5872	82.67	-0.2013	-0.0376	0.1638	1294.4062	0.123614	-437.937446	-437.928588	-437.927644	-437.971558	31.786	
C	-0.0569276172	 1.5592833301	 0.0077835582	-0.516753
C	-0.020760338	 0.0614816461	 0.0284615861	 0.205196
C	 0.0122730892	-0.781152017	-1.0674518584	 0.311329
N	-0.0282482945	-0.5263745775	-2.4144938363	-0.593863
O	 0.0271698467	-2.0711690503	-0.7082962237	-0.186857
C	 0.0009184804	-2.1053575621	 0.6752910662	 0.246542
C	 0.0163127424	-3.3728770915	 1.3539946828	 0.056755
O	 0.0511866676	-4.4704872587	 0.8326275899	-0.309162
C	-0.0289121122	-0.8143108136	 1.142853515	-0.328175
H	 0.7002076392	 1.9798915519	-0.6661505722	 0.119336
H	-1.0300839499	 1.9484006204	-0.316022064	 0.137021
H	 0.1415436961	 1.9639521485	 1.0035213433	 0.136023
H	 0.3134621694	 0.3827607613	-2.687884833	 0.265209
H	 0.3227458028	-1.2755885908	-2.9943119285	 0.27133
H	-0.0069533948	-3.2494150767	 2.4607073536	 0.062684
H	-0.0500341271	-0.5277728602	 2.1845982112	 0.123385
48.8648	102.7947	159.9551	223.9226	237.6442	253.0116	306.7328	377.7029	413.5017	514.0911	564.3296	631.0954	640.5575	715.2614	729.6014	832.9675	855.2619	964.3931	999.6116	1009.6343	1061.6126	1084.1763	1162.2746	1234.5076	1297.8089	1368.2588	1398.1797	1420.2975	1476.6193	1488.2239	1509.3802	1567.2106	1632.906	1662.4622	1770.0161	2868.8332	3016.3761	3061.2931	3112.0443	3241.0723	3568.781	3676.8502
CC1=C(N)OC(C=O)=C1	Cc1c(N)oc(C=O)c1	
InChI=1S/C6H7NO2/c1-4-2-5(3-8)9-6(4)7/h2-3H,7H2,1H3	InChI=1S/C6H7NO2/c1-4-2-5(3-8)9-6(4)7/h2-3H,7H2,1H3
