13
gdb 20505	9.26002	1.02905	0.93152	1.8759	72.05	-0.2328	-0.0093	0.2235	1195.1239	0.096958	-357.646651	-357.639213	-357.638269	-357.681222	25.215	
C	-0.0070467742	 1.4329894192	 0.0097871691	-0.510576
C	 0.007998722	-0.0202667571	 0.002206544	 0.25465
C	 0.0215318787	-1.2247153896	-0.0040914825	-0.042181
C	 0.0214391138	-2.6419440259	-0.0114360698	 0.158219
N	 1.1470263759	-3.3577423004	-0.0216104973	-0.269042
N	 0.6763054837	-4.6228061401	-0.0254046815	-0.17717
C	-0.6727831734	-4.6280328434	-0.0175537975	-0.01216
N	-1.1287034728	-3.395145735	-0.008513872	-0.296847
H	 1.0107300182	 1.8374045089	 0.0018903971	 0.154845
H	-0.5312320955	 1.827731309	-0.8676033545	 0.154536
H	-0.5138969034	 1.8186909388	 0.9012747272	 0.154525
H	 1.3227681494	-5.3947496579	-0.0331431369	 0.284926
H	-1.2625752922	-5.5324605566	-0.0187477054	 0.146273
5.8698	96.7091	111.262	295.7672	319.1556	483.321	486.1185	538.119	549.0731	678.0477	781.9082	853.2024	955.8559	997.4764	1050.2247	1052.8992	1058.2413	1108.5901	1166.292	1295.477	1322.561	1411.3734	1464.9349	1474.0782	1475.175	1488.7903	1531.6374	2374.9464	3028.6143	3089.1277	3094.2592	3257.7675	3662.8479
CC#CC1=NNC=N1	CC#Cc1n[nH]cn1	
InChI=1S/C5H5N3/c1-2-3-5-6-4-7-8-5/h4H,1H3,(H,6,7,8)	InChI=1S/C5H5N3/c1-2-3-5-6-4-7-8-5/h4H,1H3,(H,6,7,8)
