14
gdb 24939	5.01677	1.30755	1.04394	4.3985	68.48	-0.1979	0.004	0.2019	1047.7518	0.104377	-432.934133	-432.927244	-432.926299	-432.96558	26.335	
O	 0.0179405698	 0.0162019478	 0.0033407594	-0.360891
C	-0.0158613024	 1.2219910734	 0.0102598801	 0.414868
C	-1.3099671905	 2.1135829764	 0.032991731	-0.492771
C	-0.7087940506	 3.4759223783	 0.0317192422	 0.266029
C	 0.6504165028	 3.4067246118	 0.0124910839	 0.376551
N	 1.0790666976	 2.0737901188	-0.0003465521	-0.436457
N	 1.2578971909	 4.618504416	 0.010412218	-0.354425
C	 0.2338798151	 5.4635315284	 0.0289926416	-0.009183
N	-0.9791467829	 4.8263111514	 0.0425549589	-0.375575
H	-1.9194414659	 1.8626353928	-0.8423223633	 0.148385
H	-1.8947553221	 1.8534396244	 0.9223541401	 0.148389
H	 2.0286372395	 1.7422387216	-0.0156448006	 0.268914
H	 0.3131439488	 6.5392499363	 0.033481572	 0.135294
H	-1.8796263801	 5.2741707825	 0.0573926388	 0.270873
100.9901	142.263	291.5332	352.1895	418.642	501.4616	544.6201	547.9832	570.975	656.2027	727.987	737.9656	760.6058	822.141	846.5936	959.3367	972.0966	1097.6936	1126.7725	1147.0655	1207.1688	1233.57	1271.8514	1287.5568	1381.2515	1439.9904	1455.0534	1458.6656	1546.3382	1630.6721	1843.4231	3043.7951	3078.0846	3266.4061	3672.6606	3674.6517
O=C1CC2=C(N1)N=CN2	O=C1Cc2c(N1)nc[nH]2	
InChI=1S/C5H5N3O/c9-4-1-3-5(8-4)7-2-6-3/h2H,1H2,(H,6,7)(H,8,9)	InChI=1S/C5H5N3O/c9-4-1-3-5(8-4)7-2-6-3/h2H,1H2,(H,6,7)(H,8,9)
