17
gdb 41104	3.00267	1.96688	1.84404	1.3646	70.47	-0.2369	0.0379	0.2748	836.9254	0.137428	-421.710806	-421.704567	-421.703623	-421.740958	26.429	
C	 0.0750214619	 1.5386189959	 0.0036315483	-0.15789
O	 1.5449545068	 1.5207917875	 0.1551697181	-0.323486
C	 1.5310670352	 0.1051654784	 0.2438799669	 0.325546
C	 1.7364454847	-1.0953917165	-0.7680299467	-0.140825
C	 1.7693132439	-1.9993099928	 0.5022790041	-0.216183
C	 1.2460962314	-0.8675377313	 1.4248898202	 0.002129
O	-0.1992575586	-0.6819227263	 1.2640486757	-0.341811
C	 0.0528597026	-0.0012052072	 0.0151873426	 0.301591
C	 0.2576344799	-0.8899145977	-1.24320395	-0.297445
H	-0.4118079669	 2.0090876213	 0.8629917715	 0.123598
H	-0.2220466812	 2.0359811145	-0.9259731687	 0.112498
H	 2.53389937	-1.2240357083	-1.498511229	 0.079624
H	 1.1693468271	-2.9123943089	 0.4808219521	 0.108286
H	 2.8043042435	-2.2342915608	 0.7686204077	 0.11222
H	 1.559156544	-0.8333650574	 2.4689524212	 0.087801
H	 0.1866081628	-0.3046287427	-2.164411263	 0.111678
H	-0.370837837	-1.7789330676	-1.3298985408	 0.112672
228.1525	289.6607	328.787	378.0343	433.5192	501.8288	554.812	704.2048	712.7693	805.7758	824.6233	841.3896	873.2797	883.36	908.0967	940.0347	953.5549	970.6591	1004.4789	1066.4315	1078.8418	1098.2197	1120.1882	1130.7456	1167.4283	1186.0502	1212.2147	1226.8013	1245.401	1269.8417	1291.3911	1295.4236	1312.2542	1341.682	1457.3396	1473.3285	1495.2443	3034.8414	3054.3035	3059.2012	3100.1759	3109.5055	3117.2344	3119.1322	3123.5579
C1OC23C4CC2OC13C4	C1O[C@@]23[C@H]4C[C@@H]2O[C@@]13C4	
InChI=1S/C7H8O2/c1-4-2-6-3-8-7(4,6)5(1)9-6/h4-5H,1-3H2	InChI=1S/C7H8O2/c1-4-2-6-3-8-7(4,6)5(1)9-6/h4-5H,1-3H2/t4-,5-,6-,7-/m0/s1
