18
gdb 125991	2.66015	1.55597	1.04525	3.1772	80.51	-0.1893	0.0365	0.2259	1152.2519	0.149774	-398.108714	-398.100277	-398.099332	-398.142231	31.208	
C	-0.287333585	 1.5482897132	 0.0519302184	-0.393311
C	 0.0100714356	 0.0531135318	 0.0397561971	-0.16799
C	 1.197203494	-0.4236696361	-0.9064324822	-0.181479
N	 1.8453585041	-0.8852300197	 0.3240474377	 0.083007
N	 2.8803567386	-1.52234532	 0.8603642777	-0.312991
C	 2.5251150763	-1.55051015	 2.1621061691	-0.043635
C	 1.2647269276	-0.940727672	 2.4327058556	-0.039021
N	 0.6569282973	-0.752726864	 3.6893439875	-0.609505
C	 0.8666199434	-0.5179582574	 1.1728535556	 0.363959
H	 0.6264322258	 2.1283395148	 0.2136093377	 0.129172
H	-0.7366905671	 1.8656359573	-0.8951283354	 0.11807
H	-0.9879383964	 1.7971704681	 0.8550661198	 0.126508
H	-0.9064409701	-0.516214251	-0.1481724568	 0.09267
H	 0.9522842905	-1.2238013826	-1.610484199	 0.128352
H	 1.7340422217	 0.3789451274	-1.4206503692	 0.127398
H	 3.1903666578	-2.0051726843	 2.8833950384	 0.097173
H	 1.0329386533	-1.3874189435	 4.3827468134	 0.241801
H	-0.3472789274	-0.8791398817	 3.6561168347	 0.239823
55.1309	124.3147	141.3087	203.4694	248.3995	309.2294	355.6354	436.0359	526.7967	641.4253	651.8069	664.006	711.7443	772.4991	789.4985	829.2994	850.4728	916.0935	1018.003	1065.9486	1081.4498	1090.4361	1128.0042	1163.997	1204.9664	1216.8977	1232.1955	1279.2527	1328.7797	1355.0831	1393.7336	1411.2672	1424.0222	1488.5676	1493.5097	1497.7161	1522.5717	1635.1905	1657.2592	3034.2353	3047.293	3052.4131	3103.5199	3107.1559	3113.073	3230.2337	3526.6503	3612.779
CC1CN2N=CC(N)=C12	C[C@H]1Cn2ncc(N)c12	
InChI=1S/C6H9N3/c1-4-3-9-6(4)5(7)2-8-9/h2,4H,3,7H2,1H3	InChI=1S/C6H9N3/c1-4-3-9-6(4)5(7)2-8-9/h2,4H,3,7H2,1H3/t4-/m0/s1
