15
gdb 12996	2.83156	2.64565	1.63232	3.4537	61.16	-0.2459	0.0205	0.2665	786.408	0.120251	-399.827537	-399.820618	-399.819674	-399.858334	26.812	
O	 0.0272337803	 1.4049741521	-0.0589814236	-0.473713
C	-0.0441738458	 0.0266071057	-0.0158609024	 0.3504
C	-0.4360273361	-0.7962017564	-1.2187003439	-0.340734
C	-1.3077283308	-0.7971673306	 0.0197900728	-0.122087
C	-1.0718030519	-1.9382238044	 1.0073951164	-0.183259
N	 0.3439942388	-1.8074507242	 1.344876636	-0.325471
C	 0.9109903423	-0.6335894443	 0.9420128094	 0.352701
O	 1.9702453609	-0.1515951714	 1.2942789086	-0.403568
H	 0.9069660997	 1.6178167187	 0.2885570766	 0.296725
H	-0.8095739397	-0.2179596028	-2.0568831585	 0.128966
H	 0.129477926	-1.6852990596	-1.4827192563	 0.118811
H	-2.2890601807	-0.3432271831	-0.0276369696	 0.109421
H	-1.7015880337	-1.8259110421	 1.8995898706	 0.117812
H	-1.2827169641	-2.9191544813	 0.5643935696	 0.117805
H	 0.7994872348	-2.3875467864	 2.0310977544	 0.256191
130.5113	210.61	276.6983	320.0184	354.7735	437.7881	486.0503	504.028	588.4435	709.461	717.8176	785.5862	839.8704	859.4217	938.7628	943.9333	1018.0911	1044.8228	1057.7237	1079.9929	1111.838	1182.269	1219.0758	1243.2914	1296.6023	1333.7612	1403.6367	1435.8011	1446.5142	1497.5734	1525.4418	1818.5073	3013.5429	3049.1648	3120.3669	3200.2359	3218.5461	3645.5092	3718.1425
OC12CC1CNC2=O	O[C@]12C[C@H]1CNC2=O	
InChI=1S/C5H7NO2/c7-4-5(8)1-3(5)2-6-4/h3,8H,1-2H2,(H,6,7)	InChI=1S/C5H7NO2/c7-4-5(8)1-3(5)2-6-4/h3,8H,1-2H2,(H,6,7)/t3-,5+/m0/s1
