14
gdb 133196	3.1417	1.45325	0.99977	2.7401	70.41	-0.2288	-0.0735	0.1553	1098.167	0.101539	-474.173509	-474.165829	-474.164885	-474.205992	28.382	
C	-0.031432917	 1.5251219468	 0.0012298524	-0.484826
C	-0.008733512	 0.0283410153	-0.0262652089	 0.188587
N	-0.0428575076	-0.6092931888	-1.1607196449	-0.188831
N	-0.0201180451	-1.9349662135	-1.1204768223	-0.24585
C	 0.0377495722	-2.7439145844	 0.0279416683	 0.443106
N	 0.0515836202	-4.0063742165	-0.1255852211	-0.557426
N	 0.073562902	-2.0427806012	 1.2371715469	-0.360594
C	 0.0508339058	-0.7706122548	 1.1774729851	 0.297189
F	 0.0846341904	-0.0898149229	 2.3151217756	-0.048919
H	 0.8619708559	 1.9265060083	 0.4914489869	 0.145636
H	-0.0765635005	 1.9049805375	-1.0204658549	 0.149166
H	-0.8970805964	 1.8985955	 0.5587117173	 0.145635
H	-0.0475372529	-2.4053373038	-2.0136009144	 0.286091
H	 0.0941319748	-4.457513522	 0.7856570339	 0.231036
76.4253	150.9278	212.9887	271.5946	299.3605	366.0869	421.6157	503.027	549.4232	564.5086	657.6026	720.8379	726.9087	771.4293	800.478	829.8395	958.7886	1015.1065	1061.5152	1108.3892	1218.4057	1263.311	1336.4046	1407.7182	1417.5783	1447.7201	1475.7743	1482.8259	1586.7528	1701.4153	1740.8782	3039.8198	3093.0318	3146.5889	3526.014	3619.267
CC1=NNC(=N)N=C1F	Cc1n[nH]c([NH])nc1F	
InChI=1S/C4H5FN4/c1-2-3(5)7-4(6)9-8-2/h1H3,(H2,6,7,9)	InChI=1S/C4H10FN4/c1-2-3(5)7-4(6)9-8-2/h2-4,6-9H,1H3
