19
gdb 101908	5.8027	0.5233	0.50599	2.3951	70.23	-0.2707	0.0043	0.275	2084.8612	0.156779	-497.310935	-497.30058	-497.299635	-497.348108	35.683	
O	 0.1538474543	 1.2653052562	-0.3656800066	-0.420784
C	 0.0786717698	-0.1252842871	-0.1515258266	-0.063973
C	-1.3581853489	-0.5567697924	 0.1480027977	 0.090553
O	-2.2193837148	-0.0766023425	-0.8943992003	-0.43909
C	-1.5033052292	-2.0632279481	 0.3606189844	-0.220877
C	-2.9273556664	-2.4554622462	 0.7412374028	-0.086364
O	-3.0086988503	-3.8716985396	 0.9402768001	-0.175538
C	-3.8101209386	-4.5852489789	 0.1276991272	 0.169497
O	-3.9260177596	-5.7702135205	 0.2094980843	-0.271876
H	-0.6211498484	 1.4893022823	-0.8971104621	 0.286025
H	 0.4472720352	-0.6929775576	-1.0270218833	 0.07492
H	 0.7345596188	-0.3667690266	 0.6918929176	 0.113596
H	-1.696386173	-0.0169746443	 1.040958168	 0.104423
H	-1.99020836	-0.5508107421	-1.703673287	 0.283928
H	-1.2123176347	-2.5977816101	-0.5542504521	 0.102577
H	-0.8156757667	-2.3925438299	 1.1477326332	 0.126372
H	-3.2219320555	-1.9809739931	 1.6829672505	 0.128059
H	-3.634475563	-2.136029866	-0.0327023772	 0.122476
H	-4.3416693491	-3.9524545935	-0.6110635307	 0.076075
33.2556	49.972	96.6465	115.4466	155.0335	181.1265	274.7909	306.9321	335.7921	373.0011	423.4698	475.375	506.3988	576.6752	684.4092	788.8106	863.9937	954.0562	1015.6642	1044.9633	1048.3849	1074.2217	1098.7937	1104.0261	1122.4097	1157.5308	1207.2976	1255.0642	1270.6492	1312.0361	1335.3958	1360.5083	1386.0339	1407.3842	1421.9303	1434.5277	1443.6878	1482.1354	1506.7111	1512.6188	1868.753	2927.2127	2936.9652	3018.7427	3038.5877	3048.8831	3066.7692	3075.3739	3095.5492	3768.056	3775.8791
OCC(O)CCOC=O	OC[C@@H](O)CCOC=O	
InChI=1S/C5H10O4/c6-3-5(8)1-2-9-4-7/h4-6,8H,1-3H2	InChI=1S/C5H10O4/c6-3-5(8)1-2-9-4-7/h4-6,8H,1-3H2/t5-/m0/s1
