17
gdb 125904	3.89762	1.33634	1.12225	4.3715	74.77	-0.2023	0.0122	0.2145	1089.5662	0.138585	-417.999654	-417.992342	-417.991398	-418.031494	28.544	
C	 0.1593704115	 1.4904133916	 0.0765415889	-0.396442
C	-0.0467389476	-0.0200901044	-0.0291241508	 0.042175
C	 0.6729523542	-0.6330008882	-1.2964656164	-0.380648
C	 1.8900887325	-1.2556488066	-0.6753809945	 0.136613
C	 1.7365817038	-1.2486472838	 0.6747594519	 0.473315
N	 0.5520957379	-0.7357158111	 1.1487310184	-0.413079
O	 2.7417450099	-1.8092997956	 1.3226434404	-0.243758
N	 3.679351512	-2.2441594695	 0.3198659662	-0.171971
C	 3.1311813363	-1.9061949924	-0.8324627547	-0.123047
H	 1.226770124	 1.7359476878	 0.0740944198	 0.133352
H	-0.311513159	 2.000287508	-0.7699553253	 0.126437
H	-0.2859747313	 1.889517767	 0.9944923139	 0.117464
H	-1.1170579108	-0.2417211868	-0.0548894195	 0.094058
H	 0.026888099	-1.3714730811	-1.7858718422	 0.118912
H	 0.8806767668	 0.1504615546	-2.0329244818	 0.113665
H	 0.5856433497	-0.2053078988	 2.0103801636	 0.24633
H	 3.681077401	-2.1481292907	-1.7323165482	 0.126625
77.2025	218.9502	247.3751	268.6091	341.9375	402.3366	460.499	584.1746	614.2307	637.2534	726.642	735.2536	802.3806	813.663	848.8707	909.7013	929.5444	931.4986	970.4483	1044.109	1095.1096	1120.2015	1165.2879	1194.5795	1216.0218	1277.3065	1309.0303	1336.6086	1378.967	1406.3458	1417.6604	1445.2593	1492.1254	1494.0163	1502.8621	1561.8519	1660.217	3026.3907	3029.7091	3060.3961	3068.8562	3100.4728	3110.32	3231.5319	3566.1692
CC1CC2=C(N1)ON=C2	C[C@H]1Cc2c(N1)onc2	
InChI=1S/C6H8N2O/c1-4-2-5-3-7-9-6(5)8-4/h3-4,8H,2H2,1H3	InChI=1S/C6H8N2O/c1-4-2-5-3-7-9-6(5)8-4/h3-4,8H,2H2,1H3/t4-/m0/s1
