17
gdb 63621	2.6504	1.12028	0.95997	1.5019	72.95	-0.2461	-0.091	0.1551	1262.8061	0.132374	-458.971755	-458.962353	-458.961409	-459.006238	34.137	
C	 0.0163019439	 1.6191786727	-0.0151535499	-0.474996
C	 0.0025495008	 0.1127231969	 0.065631925	 0.415714
O	-1.2185834755	-0.4857274338	-0.237924727	-0.442739
C	 1.1716775844	-0.7024372858	-0.3145664209	-0.318981
C	 0.8188768344	-0.639731288	 1.1713256913	-0.206317
C	 1.70348715	 0.0825432303	 2.0887955074	 0.280019
O	 2.4964374502	 0.9573273883	 1.7868318201	-0.324346
C	 1.6091405023	-0.2921215171	 3.5755525295	 0.092943
O	 0.8554200887	-1.1167185682	 4.0212346061	-0.222367
H	 0.9949518832	 2.0210296475	 0.2491493321	 0.162817
H	-0.2347807242	 1.9300654116	-1.0341534415	 0.133505
H	-0.7274276609	 2.0530922783	 0.6646190414	 0.11189
H	-1.8983693395	-0.082047087	 0.3138158236	 0.288168
H	 0.9845404555	-1.6453658391	-0.8145112274	 0.135537
H	 2.0816172055	-0.1810874274	-0.5917769189	 0.141904
H	 0.2913659883	-1.4821873302	 1.5996267965	 0.121814
H	 2.319404053	 0.2901065511	 4.2003183927	 0.105436
53.9539	129.0683	137.9454	171.3862	240.7857	247.2884	310.1859	342.5419	382.2888	417.5371	456.6045	519.4118	597.2895	646.9565	686.7522	782.4034	808.2319	941.3431	964.3932	992.4129	1030.0219	1042.3189	1078.0417	1101.5649	1116.3018	1166.4553	1226.2408	1299.4208	1359.5921	1373.002	1412.3456	1429.7442	1470.5462	1496.7363	1514.6964	1758.5948	1823.8777	2922.4742	3029.4934	3093.9577	3139.4637	3150.5499	3207.0179	3238.9115	3795.4717
CC1(O)CC1C(=O)C=O	C[C@@]1(O)C[C@H]1C(=O)C=O	
InChI=1S/C6H8O3/c1-6(9)2-4(6)5(8)3-7/h3-4,9H,2H2,1H3	InChI=1S/C6H8O3/c1-6(9)2-4(6)5(8)3-7/h3-4,9H,2H2,1H3/t4-,6+/m0/s1
