15
gdb 129462	4.7384	1.00516	0.85936	7.5216	67.13	-0.2463	0.0007	0.247	1267.967	0.114538	-450.163969	-450.155889	-450.154945	-450.197606	29.037	
N	 0.1610295689	 1.2547024448	-0.223897803	-0.516292
C	-0.0273738669	 0.038765374	 0.3472072839	 0.431133
O	 0.6754245373	-0.3730142326	 1.2552749838	-0.368743
C	-1.2242168477	-0.7556799505	-0.1879366191	-0.449761
C	-0.9947780809	-2.2331432471	-0.2192898412	 0.351438
C	-1.4589757995	-3.2349854538	-1.042129731	-0.162918
N	-0.9708622104	-4.4284722203	-0.6040898708	-0.192227
N	-0.2266597199	-4.2217232949	 0.4465746761	-0.119309
N	-0.2458235998	-2.9011745538	 0.6898733143	-0.214132
H	 0.9141543702	 1.8308467132	 0.1163810913	 0.271883
H	-0.3870278542	 1.5812606849	-0.9995605592	 0.268823
H	-2.0634720406	-0.5166915818	 0.4813539204	 0.16225
H	-1.5195131038	-0.4125708844	-1.1835856458	 0.127081
H	-2.101967665	-3.1670299447	-1.9052078453	 0.114819
H	 0.3171975523	-2.4722507129	 1.4123176057	 0.295955
49.9593	77.3937	169.0816	229.3619	269.9577	326.7047	373.7455	506.8944	597.4521	642.4417	675.528	698.0071	769.0306	793.2362	841.0339	858.9612	954.1732	999.952	1072.2187	1085.2154	1091.8197	1136.4561	1201.8966	1237.7958	1276.1211	1335.4428	1367.9756	1396.388	1445.0711	1467.4144	1604.1972	1622.2797	1782.7069	3011.6611	3086.7576	3264.1329	3603.6225	3612.7831	3741.358
NC(=O)CC1=CN=NN1	NC(=O)Cc1cnn[nH]1	
InChI=1S/C4H6N4O/c5-4(9)1-3-2-6-8-7-3/h2H,1H2,(H2,5,9)(H,6,7,8)	InChI=1S/C4H6N4O/c5-4(9)1-3-2-6-8-7-3/h2H,1H2,(H2,5,9)(H,6,7,8)
