16
gdb 26964	3.16595	1.38205	1.04162	1.4016	73.37	-0.1959	0.0166	0.2125	1125.2116	0.125967	-434.059672	-434.051854	-434.05091	-434.092416	29.298	
N	 0.1537137977	 1.401705377	 0.0922012784	-0.601505
C	 0.0170954076	 0.0278704131	 0.0111100106	 0.269791
C	-1.0418767271	-0.7999027564	-0.1979932524	 0.234259
N	-0.5716043	-2.1085851165	-0.3080069874	-0.306917
C	 0.7028436064	-2.0083751319	-0.1510345767	 0.053468
O	 1.1483511522	-0.7324015317	 0.0415334602	-0.169267
N	-2.3834839684	-0.3919445845	-0.2916537803	-0.205781
C	-3.2297627419	-1.0791507097	-1.2807995248	-0.222873
C	-3.4083972917	-1.339881455	 0.1697030139	-0.223311
H	 0.7251990267	 1.7055539624	 0.872543446	 0.255325
H	-0.761913403	 1.8338076688	 0.1331861959	 0.264689
H	 1.4512112653	-2.7839551384	-0.1391599881	 0.146189
H	-3.9252830924	-0.4385881367	-1.8151635177	 0.11583
H	-2.7605655206	-1.8622930899	-1.8690414618	 0.136708
H	-3.0585948513	-2.2965053653	 0.5460265369	 0.138831
H	-4.2372525495	-0.8920586954	 0.7103079774	 0.114566
61.6359	167.8115	180.1024	236.0015	283.0649	304.7319	461.6376	525.4612	589.0025	647.2118	726.3679	738.036	773.2566	796.2601	824.9755	850.7234	918.8529	953.7681	1036.3461	1041.3964	1109.3962	1118.1255	1132.0066	1154.1404	1183.4151	1203.0632	1235.7073	1285.3471	1365.9548	1438.48	1479.1716	1505.7996	1569.0626	1624.0342	1713.8701	3112.7304	3115.6933	3201.0057	3215.4416	3280.0049	3517.8708	3616.2336
NC1=C(N=CO1)N1CC1	Nc1c(nco1)N1CC1	
InChI=1S/C5H7N3O/c6-4-5(7-3-9-4)8-1-2-8/h3H,1-2,6H2	InChI=1S/C5H7N3O/c6-4-5(7-3-9-4)8-1-2-8/h3H,1-2,6H2
