23
gdb 77895	1.91433	1.49444	1.30232	1.1895	85.65	-0.2375	0.0748	0.3123	1192.79	0.203866	-388.261352	-388.251043	-388.250098	-388.295737	38.992	
C	 0.3434052932	 1.912373582	-0.2225320134	-0.428545
C	 0.4373407961	 0.405505278	-0.0652175098	-0.057555
C	 1.5872575562	-0.5323128492	-0.3844412407	-0.167501
C	 2.9714968643	-0.0679672294	 0.0985602673	 0.015898
C	 3.6845923103	 1.1062065671	-0.5675299646	-0.414075
C	 2.4030137119	 0.0338161198	 1.5699913568	-0.05407
C	 2.556016087	 1.2899900911	 2.4231141338	-0.426923
C	 1.0315311773	-0.4181786299	 1.0414337067	 0.348733
O	 0.2777652916	-1.3699118807	 1.7211362832	-0.464716
H	 1.2245529252	 2.4436697884	 0.1327393811	 0.126957
H	 0.2008473085	 2.1781268907	-1.2762365756	 0.11626
H	-0.5186547182	 2.3010651318	 0.3324754607	 0.108495
H	-0.4870710408	-0.0809485148	-0.3809189041	 0.087394
H	 1.4401165805	-1.3389443207	-1.0943039983	 0.084444
H	 3.6514264277	-0.925780729	 0.0603585023	 0.076498
H	 3.0948854512	 2.0244812368	-0.575775207	 0.115561
H	 4.6306995946	 1.3238272279	-0.0589478083	 0.110914
H	 3.9215037461	 0.8629501365	-1.609415568	 0.114216
H	 2.8060184265	-0.8105380246	 2.1392247228	 0.082965
H	 2.1955742716	 2.1950373506	 1.9297855548	 0.116302
H	 1.9978676272	 1.182537672	 3.3604424564	 0.111998
H	 3.6064454502	 1.4545031978	 2.6883154028	 0.1136
H	-0.4359132184	-0.9175563822	 2.1823625812	 0.283148
104.5379	162.9845	169.4547	179.6505	189.2721	228.0071	236.967	248.1117	273.4699	311.841	377.4961	459.7095	558.822	579.0123	658.3498	679.7476	712.632	759.3564	874.8889	907.0777	938.0885	965.0893	1014.745	1031.8351	1055.2544	1063.4707	1084.5052	1120.2164	1140.3702	1163.3878	1171.6736	1204.8253	1240.2145	1259.2455	1303.1179	1329.8743	1346.2742	1373.0223	1387.7318	1404.6635	1407.7241	1420.1247	1476.8029	1482.9583	1492.959	1495.6579	1503.8479	1507.7385	1511.3322	3028.4233	3029.3949	3032.4334	3035.5047	3053.0044	3079.9416	3085.3164	3088.7017	3095.6268	3123.3727	3131.0625	3160.4531	3169.3226	3805.9376
CC1C2C(C)C(C)C12O	C[C@H]1[C@H]2[C@@H](C)[C@@H](C)[C@@]12O	
InChI=1S/C8H14O/c1-4-5(2)8(9)6(3)7(4)8/h4-7,9H,1-3H3	InChI=1S/C8H14O/c1-4-5(2)8(9)6(3)7(4)8/h4-7,9H,1-3H3/t4-,5+,6-,7+,8+/m0/s1
