15
gdb 30359	3.15484	1.58555	1.14644	2.7544	67.35	-0.2087	0.0098	0.2185	1014.5278	0.11427	-457.765819	-457.758709	-457.757764	-457.797571	27.341	
O	-0.1960584429	 1.4915725767	 0.3224372492	-0.424074
C	-0.0221599531	 0.1165515538	-0.0003779498	-0.092457
C	 0.6644516744	-0.7101062381	 1.1426984768	-0.114619
O	-0.3561914304	-1.4227523084	 1.8846865054	-0.283636
C	-1.4612871384	-1.4047532869	 1.1005385016	 0.292592
C	-2.6890574012	-1.9784489113	 1.0921759823	-0.164938
O	-3.3566077683	-1.5123303629	-0.0236065758	-0.156353
C	-2.5373318	-0.6599769024	-0.6912581207	-0.14147
C	-1.3530310586	-0.5625440901	-0.0378517517	 0.201448
H	 0.666857017	 1.9175148177	 0.2788731818	 0.283871
H	 0.5528011456	 0.0143971182	-0.930646767	 0.084868
H	 1.3584391644	-1.448897284	 0.7240822306	 0.113202
H	 1.1991516861	-0.0607510231	 1.8405370606	 0.116535
H	-3.2277447698	-2.666421235	 1.7172950645	 0.14004
H	-2.9486598447	-0.2196005542	-1.5841499079	 0.14499
90.1443	157.8619	283.3338	292.5607	348.7226	442.1103	507.94	595.2207	658.0964	669.5019	708.2077	732.0472	772.8792	798.0006	872.5651	931.9279	982.4022	1017.1108	1038.8986	1094.1845	1136.9221	1158.035	1218.0676	1238.4967	1249.0013	1289.7322	1323.7018	1369.2868	1416.0236	1443.5817	1489.8219	1606.2217	1691.9251	3006.5808	3035.2938	3105.9692	3277.1278	3304.4278	3804.901
OC1COC2=COC=C12	O[C@H]1COc2cocc12	
InChI=1S/C6H6O3/c7-5-2-9-6-3-8-1-4(5)6/h1,3,5,7H,2H2	InChI=1S/C6H6O3/c7-5-2-9-6-3-8-1-4(5)6/h1,3,5,7H,2H2/t5-/m0/s1
