21
gdb 120666	4.49649	0.7742	0.72856	2.489	80.64	-0.2537	0.0697	0.3233	1642.5512	0.180678	-424.183525	-424.173964	-424.17302	-424.21882	34.525	
C	-0.0312626407	 1.3572864988	 0.0847220335	-0.223701
O	-0.0306549193	-0.0492331058	 0.0493131151	-0.231073
C	-1.2989725951	-0.5895232885	-0.2466770724	-0.075231
C	-1.1914927177	-2.089048702	-0.2574093631	-0.069402
O	-1.3910613107	-2.7694688628	 0.994243028	-0.28853
C	-2.3479512218	-2.9597048471	-0.0292737644	 0.454818
C	-3.8365891803	-2.6008137589	 0.0660491751	-0.311434
C	-4.1134805379	-3.7605785124	-0.9382092651	-0.211776
C	-2.6739510487	-4.3035581209	-0.6871616527	-0.311775
H	 0.9877782383	 1.6787685814	 0.312489776	 0.129423
H	-0.333808507	 1.7912262202	-0.8822939284	 0.10111
H	-0.7089351463	 1.7471099733	 0.8607789621	 0.105731
H	-2.0465442557	-0.2786075741	 0.5000085267	 0.095541
H	-1.6461065948	-0.2358541832	-1.2352584488	 0.083899
H	-0.3571899577	-2.4745381789	-0.8454922395	 0.096647
H	-4.2272370609	-2.8113272474	 1.0660052322	 0.116779
H	-4.1425757672	-1.5930913727	-0.2251966052	 0.10338
H	-4.9390619365	-4.4310640951	-0.6951369094	 0.105935
H	-4.2464295803	-3.398248624	-1.9601541035	 0.107345
H	-2.080240515	-4.6015906829	-1.5545801962	 0.105566
H	-2.6568604245	-5.113605937	 0.0480738301	 0.116749
58.1128	87.1325	95.6273	119.9429	206.4182	231.2261	272.4409	326.4	397.3002	468.0907	519.1474	569.3927	716.5086	784.3471	838.8667	857.2286	908.4862	924.2391	959.6268	975.8958	1026.6735	1037.7194	1077.7115	1115.0003	1144.4233	1164.2267	1169.4299	1185.6926	1205.5507	1224.6428	1227.654	1245.0971	1261.1583	1269.9513	1278.5194	1336.5697	1407.1726	1468.9622	1475.617	1480.5769	1484.4119	1493.5974	1496.3189	1516.4795	1529.2575	2935.8624	2967.0475	2996.6947	3010.5426	3056.2672	3060.0357	3074.1339	3104.7604	3105.6057	3110.8128	3115.7386	3132.1338
COCC1OC11CCC1	COC[C@H]1OC21CCC2	
InChI=1S/C7H12O2/c1-8-5-6-7(9-6)3-2-4-7/h6H,2-5H2,1H3	InChI=1S/C7H12O2/c1-8-5-6-7(9-6)3-2-4-7/h6H,2-5H2,1H3/t6-/m1/s1
