21
gdb 121809	3.43018	0.78524	0.74683	4.664	80.48	-0.2584	0.0291	0.2875	1624.9622	0.180218	-420.411973	-420.400934	-420.39999	-420.448596	38.971	
C	 0.0494862213	 1.5140883947	-0.0226302829	-0.387717
C	 0.0095634089	-0.0038385692	-0.0138161689	-0.034109
O	 0.6507410132	-0.4793870083	-1.1858213448	-0.257189
C	 0.6723697435	-1.8818448102	-1.289092413	-0.070069
C	 1.4450989869	-2.2311773488	-2.5877936915	 0.062989
C	 0.6929064735	-1.6948884618	-3.821953172	-0.391227
N	 2.8129405368	-1.68931379	-2.6005670511	-0.52646
C	 1.5288529829	-3.7014266614	-2.6637472807	 0.28324
N	 1.5724684855	-4.855453342	-2.6940446273	-0.335521
H	 1.0826194816	 1.8726293094	-0.0394191912	 0.127508
H	-0.4656512225	 1.9071265944	-0.903522555	 0.130296
H	-0.4401843252	 1.9105240336	 0.8715119551	 0.122356
H	 0.5176809999	-0.4031112151	 0.8791284703	 0.094117
H	-1.0306712578	-0.3661527535	 0.01652587	 0.095918
H	 1.1863122997	-2.3329443966	-0.4246112335	 0.096471
H	-0.348544616	-2.2947613943	-1.3247399632	 0.103263
H	 0.5887585827	-0.6117604704	-3.7286695906	 0.13678
H	 1.2551818364	-1.9260166374	-4.7277026239	 0.143596
H	-0.3047947863	-2.1353891604	-3.8936386086	 0.127334
H	 2.7409587315	-0.7002676809	-2.3730771119	 0.243029
H	 3.3575723537	-2.1144640517	-1.8542192052	 0.235394
52.3277	68.0865	100.4713	157.3907	183.3059	193.2913	229.5182	249.7605	263.1181	301.4705	369.5713	380.9738	421.2511	494.4593	585.6158	591.055	754.8154	820.6955	882.1349	903.0431	929.5707	960.4743	999.0018	1045.5266	1091.1132	1147.9417	1158.5524	1180.1229	1182.7407	1207.6842	1289.501	1298.1762	1340.3142	1386.4089	1398.6152	1408.296	1444.3605	1484.1481	1486.9195	1493.3581	1499.0034	1509.6611	1534.0632	1660.0561	2361.3034	2960.8737	2971.7651	2995.3493	3002.6977	3046.8294	3057.9611	3122.1679	3123.7816	3135.3604	3151.6106	3478.9004	3560.0189
CCOCC(C)(N)C#N	CCOC[C@@](C)(N)C#N	
InChI=1S/C6H12N2O/c1-3-9-5-6(2,8)4-7/h3,5,8H2,1-2H3	InChI=1S/C6H12N2O/c1-3-9-5-6(2,8)4-7/h3,5,8H2,1-2H3/t6-/m0/s1
