20
gdb 119646	4.38848	0.96143	0.92052	2.9579	78.06	-0.2405	0.0724	0.313	1324.8904	0.17152	-403.08627	-403.077884	-403.07694	-403.11982	31.94	
O	-0.1220905524	 1.4702611571	 0.0112219474	-0.416686
C	 0.0085480962	 0.0576788131	-0.0116410624	-0.076589
C	-1.3964361821	-0.5356621638	 0.0362531612	-0.299348
C	-1.3964822807	-2.0390733195	 0.0166066358	 0.341918
C	-1.0046792959	-2.852980722	-1.241547717	-0.279986
C	-2.02620678	-3.8474747281	-0.7291645429	-0.040309
C	-1.9652616967	-3.8669061437	 0.7639706382	-0.040324
C	-0.9043041374	-2.8849940058	 1.2170623964	-0.280002
N	-2.7692061278	-2.8066739769	 0.0626431319	-0.19422
H	 0.7588703216	 1.8546670895	-0.0162667474	 0.285678
H	 0.5270226172	-0.2796849666	-0.9239846524	 0.089967
H	 0.5968211224	-0.3019737753	 0.8483142035	 0.08999
H	-1.9013474907	-0.1797017732	 0.9418009327	 0.114031
H	-1.9709389394	-0.1566204937	-0.8169387487	 0.114023
H	-1.3575350438	-2.3619539029	-2.1529313244	 0.109427
H	 0.0389582423	-3.162391165	-1.3656053978	 0.092983
H	-2.5615390578	-4.6053916236	-1.2900863901	 0.093527
H	-2.4539097372	-4.6396951503	 1.3467853793	 0.093525
H	 0.1456482732	-3.1964051964	 1.2475584217	 0.092986
H	-1.1811910209	-2.4182286128	 2.1666434449	 0.109411
65.829	86.9539	128.099	261.4891	312.787	316.8719	343.2023	435.1364	438.3082	705.5263	731.2224	774.3172	801.5852	805.7107	823.4324	874.1904	904.4285	980.6262	1006.6371	1014.5344	1018.9305	1022.6488	1033.2657	1063.6186	1092.0298	1102.2403	1118.199	1161.0592	1193.0624	1236.8242	1243.9812	1249.5857	1262.0317	1305.6061	1307.2993	1342.1549	1367.1829	1377.1885	1461.3547	1485.3175	1490.2525	1502.9744	1527.4201	2960.7196	2985.3175	3031.5481	3036.34	3039.0381	3080.0056	3095.5357	3097.506	3172.4849	3184.3549	3830.5146
OCCC12CC3C(C1)N23	OCC[C@@]12C[C@H]3[C@@H](C1)N23	
InChI=1S/C7H11NO/c9-2-1-7-3-5-6(4-7)8(5)7/h5-6,9H,1-4H2	InChI=1S/C7H11NO/c9-2-1-7-3-5-6(4-7)8(5)7/h5-6,9H,1-4H2/t5-,6+,7+,8?
