17
gdb 33399	2.26842	1.29338	0.86075	4.6591	77.07	-0.325	-0.008	0.317	1300.7949	0.136402	-380.881764	-380.873026	-380.872082	-380.916008	31.239	
N	-0.1285910095	-1.1530613697	-0.0027036099	-0.305402
C	-0.002392295	-0.0055423492	-0.0147513868	 0.304488
C	 0.099122087	 1.4604349865	-0.0515670001	-0.332511
C	 1.5032512278	 1.8903915588	-0.1181034324	 0.304502
N	 2.5908735169	 2.2710262113	-0.1892794015	-0.305415
C	-0.718947085	 2.0465500903	-1.2263974616	 0.052679
C	-2.2613022075	 1.8837700719	-1.1925229546	-0.241359
C	-2.3728226813	 3.3328080417	-1.7430857844	-0.217303
C	-0.9094497992	 3.585005228	-1.284664383	-0.241302
H	-0.3192031666	 1.8438299604	 0.8889515596	 0.170318
H	-0.3034869574	 1.6656722975	-2.1628866665	 0.112799
H	-2.6930221152	 1.0700977836	-1.7771751459	 0.123514
H	-2.6354859247	 1.8118027137	-0.1660791088	 0.110984
H	-2.465208252	 3.3472629519	-2.8319121792	 0.117493
H	-3.1485053928	 3.9721654227	-1.31872474	 0.112007
H	-0.8704712212	 4.0329129906	-0.2863469237	 0.110983
H	-0.2471692143	 4.1481790797	-1.9438235312	 0.123526
64.8081	113.8975	116.4783	129.7537	200.7078	316.6504	370.881	388.5289	482.4424	510.0003	584.7656	666.6464	783.9086	784.5192	893.7043	917.267	932.9355	963.8421	975.2342	1006.4551	1085.0826	1086.7221	1129.3052	1206.1174	1216.7073	1259.8866	1262.885	1267.2717	1291.5195	1294.8523	1315.3664	1369.0197	1478.9044	1486.8935	1509.5641	2367.0894	2372.3763	3028.1745	3055.2498	3057.8689	3072.0001	3082.0155	3117.7016	3122.8759	3134.6372
N#CC(C#N)C1CCC1	N#CC(C#N)C1CCC1	
InChI=1S/C7H8N2/c8-4-7(5-9)6-2-1-3-6/h6-7H,1-3H2	InChI=1S/C7H8N2/c8-4-7(5-9)6-2-1-3-6/h6-7H,1-3H2
