13
gdb 131135	3.94662	1.06917	0.95478	1.8287	60.05	-0.2908	-0.0668	0.224	1166.9087	0.08804	-489.840058	-489.832414	-489.83147	-489.873495	26.907	
O	-0.1287227539	 1.4312701834	 0.0757401223	-0.423905
C	-0.0033864475	 0.0409037248	 0.0326504735	-0.04581
C	 0.7994510661	-0.3831172918	-1.2018055565	 0.130736
O	 1.1738611864	 0.4373800298	-1.9992948441	-0.243179
C	 0.6720595148	-0.4724822485	 1.2765136528	 0.292512
N	 0.7227765591	-1.7386348627	 1.5920913053	-0.161485
O	 1.4339047718	-1.8003039458	 2.7577050182	-0.141187
N	 1.8225269412	-0.5578756304	 3.1695079886	-0.058022
C	 1.3671247987	 0.27032428	 2.2718170652	-0.092989
H	 0.2890932161	 1.7541507112	-0.7403987262	 0.303615
H	-0.9876867838	-0.4498622527	-0.0568475809	 0.13524
H	 1.0026008296	-1.4648137651	-1.3057002427	 0.135587
H	 1.5190243414	 1.3343124479	 2.3448319746	 0.168888
41.1932	92.8253	170.0354	237.6649	309.6981	373.2011	438.4771	501.1891	646.2664	662.8228	727.9271	784.4615	871.4589	891.5881	908.7091	933.9648	1020.6189	1027.5267	1058.6282	1159.0795	1193.0337	1246.6798	1328.1167	1380.037	1405.2848	1443.3505	1460.2045	1600.3053	1821.5251	2965.7778	2981.6272	3293.2651	3668.4818
OC(C=O)C1=NON=C1	O[C@@H](C=O)c1nonc1	
InChI=1S/C4H4N2O3/c7-2-4(8)3-1-5-9-6-3/h1-2,4,8H	InChI=1S/C4H4N2O3/c7-2-4(8)3-1-5-9-6-3/h1-2,4,8H/t4-/m0/s1
