14
gdb 132638	3.25546	1.39546	0.97993	5.1604	68.31	-0.2185	-0.0222	0.1964	1095.2415	0.103434	-474.221315	-474.213915	-474.21297	-474.253007	28.655	
N	 0.0243299266	 1.4280005714	 0.1213958741	-0.615443
C	-0.0154795431	 0.0180960582	 0.0391302882	 0.189855
C	-1.157730333	-0.7539189595	 0.1139427926	-0.05426
N	-1.1483853899	-2.0987905793	 0.0837605746	-0.32959
C	 0.0454463569	-2.6298380221	-0.044613274	 0.328846
F	 0.0880069715	-3.952079517	-0.1029200357	-0.066437
N	 1.223909843	-2.0324585989	-0.1145221537	-0.379055
C	 1.2008038682	-0.7009486848	-0.0597181624	 0.362604
N	 2.3885116163	-0.0220674735	-0.1425654569	-0.572614
H	 0.4674174185	 1.8452059721	-0.6920317683	 0.25217
H	-0.8995629854	 1.8305190123	 0.226178387	 0.248628
H	-2.1338213173	-0.2806576757	 0.2084059907	 0.106315
H	 3.2083577627	-0.5955869526	-0.0081594197	 0.264739
H	 2.406072175	 0.8754706696	 0.3210141735	 0.264241
136.2955	227.5972	234.3309	294.6034	361.9281	386.9927	458.4324	500.5636	529.5532	563.527	587.5539	618.0231	735.8123	772.5103	794.2	810.7864	843.067	955.7981	1005.7868	1129.2516	1141.5487	1273.7176	1313.9169	1330.8483	1407.0179	1466.6937	1506.2074	1608.433	1628.1043	1645.199	1665.5245	3141.3069	3495.9401	3559.4482	3593.7374	3678.0317
NC1=CN=C(F)N=C1N	Nc1cnc(F)nc1N	
InChI=1S/C4H5FN4/c5-4-8-1-2(6)3(7)9-4/h1H,6H2,(H2,7,8,9)	InChI=1S/C4H5FN4/c5-4-8-1-2(6)3(7)9-4/h1H,6H2,(H2,7,8,9)
