17
gdb 19122	3.2931	1.76715	1.337	1.0401	74.66	-0.2381	0.0371	0.2752	952.4838	0.141684	-326.65004	-326.64217	-326.641226	-326.682155	30.146	
C	-0.1404586389	-1.2592819585	 0.5780242686	-0.441369
C	-0.1061905916	-0.0871114464	 0.3090299777	 0.280124
C	-0.0787981836	 1.3132189856	-0.0371430809	 0.131821
C	 0.6440364342	 2.231790225	 0.8990678577	-0.265318
N	 1.2335983913	 1.9013888278	-0.4029981824	-0.350946
C	-1.2605120177	 1.7982844104	-0.8363204151	-0.067814
C	-1.1649865953	 3.0508267705	-1.6658614795	-0.277469
C	-1.2415889183	 1.7041974915	-2.3404955528	-0.253581
H	-0.1694578782	-2.2928574343	 0.8197467612	 0.195223
H	 0.2908809202	 3.2549905431	 0.9901442171	 0.125645
H	 1.079737688	 1.8053346762	 1.7973448447	 0.122904
H	 1.9586877174	 1.198026126	-0.2890027869	 0.241458
H	-2.2112445848	 1.6023667754	-0.3495345402	 0.090192
H	-2.0323731989	 3.7005789753	-1.7005832783	 0.105236
H	-0.2068599208	 3.5562414414	-1.691167607	 0.134216
H	-0.3319528669	 1.3338522453	-2.7999827683	 0.119862
H	-2.1560065162	 1.4220034457	-2.8498967957	 0.109816
79.5855	141.0355	196.9255	237.201	258.7282	414.4308	446.542	534.2467	573.856	600.7932	647.0813	653.2719	787.6314	824.6217	849.2126	861.003	922.3514	950.4049	961.3393	995.7496	1058.6616	1066.2565	1090.9339	1132.2027	1134.322	1140.9003	1201.8997	1223.1595	1265.5487	1281.1665	1334.9589	1416.6433	1457.0249	1494.8674	1503.7632	2232.0227	3114.9781	3136.9554	3139.1455	3153.0693	3208.1202	3220.2966	3234.4922	3501.9935	3512.9051
C#CC1(CN1)C1CC1	C#C[C@]1(CN1)C1CC1	
InChI=1S/C7H9N/c1-2-7(5-8-7)6-3-4-6/h1,6,8H,3-5H2	InChI=1S/C7H9N/c1-2-7(5-8-7)6-3-4-6/h1,6,8H,3-5H2/t7-/m0/s1
