21
gdb 89166	1.83716	1.59851	1.01225	3.5688	84.92	-0.2338	-0.0178	0.216	1262.0049	0.181038	-387.078894	-387.069524	-387.06858	-387.112874	35.276	
C	-0.17955206	 1.5470969224	-0.0235519114	-0.415871
C	 0.1231528783	 0.0535030644	-0.0109661078	 0.043631
C	 1.0910315376	-0.5953804116	-1.0614152648	-0.328308
C	 1.8440461673	-1.2961958948	 0.0896814618	 0.320152
C	 2.3238966244	-2.7190862373	 0.0404123823	-0.493577
C	 2.4657984935	-0.2777269599	 1.0310590259	-0.140039
C	 3.1212758552	 0.9889188007	 0.6268482209	 0.136893
O	 4.0329934474	 1.4883659116	 1.2451280259	-0.274389
C	 0.9655724065	-0.579614941	 1.1034528976	-0.139771
H	 0.7247525848	 2.1608029454	-0.0014256252	 0.120891
H	-0.743948819	 1.819215152	-0.922432733	 0.117067
H	-0.7867415035	 1.8250688169	 0.8449772756	 0.120224
H	-0.8281275725	-0.4885564201	-0.0515819979	 0.083906
H	 0.5818129307	-1.3073201294	-1.7155616463	 0.106407
H	 1.6722924843	 0.0836462643	-1.6909501734	 0.104299
H	 3.1823492257	-2.8254851462	-0.6332687875	 0.127158
H	 2.6342470828	-3.0686175799	 1.0301394052	 0.124158
H	 1.5339279178	-3.3875658258	-0.3211353767	 0.119545
H	 2.9971641582	-0.7356947626	 1.8623355424	 0.103261
H	 2.7543714285	 1.462254425	-0.3069509456	 0.072702
H	 0.574281652	-0.9482769841	 2.0459803321	 0.091662
73.8623	152.513	169.3912	197.6367	216.7626	236.9968	265.1678	317.9421	378.1587	421.8217	490.9469	535.1598	635.2308	663.59	806.8215	837.2228	868.2275	896.9327	932.1004	979.7691	997.5932	1023.159	1044.4607	1058.2261	1080.7831	1113.7359	1141.633	1158.3015	1190.4281	1232.9484	1242.7757	1253.1772	1296.7111	1320.0619	1375.3316	1406.756	1412.8656	1422.2235	1469.5753	1484.6964	1493.918	1496.1697	1497.6042	1501.4095	1799.7223	2910.9567	3022.7981	3032.9385	3038.5799	3060.5319	3081.8833	3093.6802	3100.4602	3106.894	3118.4538	3143.1332	3165.6742
CC1CC2(C)C(C=O)C12	C[C@H]1C[C@@]2(C)[C@@H](C=O)[C@@H]12	
InChI=1S/C8H12O/c1-5-3-8(2)6(4-9)7(5)8/h4-7H,3H2,1-2H3	InChI=1S/C8H12O/c1-5-3-8(2)6(4-9)7(5)8/h4-7H,3H2,1-2H3/t5-,6-,7+,8-/m0/s1
