19
gdb 79196	2.34592	1.94186	1.39998	2.1113	74.3	-0.2375	0.0707	0.3082	986.3063	0.160015	-422.963936	-422.956251	-422.955307	-422.99554	31.226	
C	 0.0070925735	 1.4179711404	-0.0061182795	-0.47959
C	-0.0525327216	-0.0897106273	-0.0288789312	 0.311415
C	-0.9089975658	-0.8535261896	 0.9332816857	 0.016719
O	-1.8388984058	-1.8283163135	 0.5518730168	-0.417365
C	 0.5987217294	-1.0036127345	 1.0313179682	-0.153257
C	 1.4105675947	-1.8948827059	 0.0733366319	 0.055172
C	 0.4519741472	-2.3094719242	-1.0639931096	-0.24607
C	 0.5592414255	-0.7854253401	-1.2721589711	 0.004733
O	 1.9717080757	-0.8957890226	-0.8592734878	-0.302919
H	 1.0052838066	 1.7609538439	-0.2978434635	 0.134395
H	-0.7211837115	 1.8584156086	-0.6975791424	 0.118793
H	-0.2054603514	 1.811908543	 0.9927482735	 0.112961
H	-1.2963544241	-0.2099124179	 1.727801998	 0.088925
H	-1.9413767944	-2.438123692	 1.2908766361	 0.288261
H	 1.1047281627	-0.6004007409	 1.9026257469	 0.088155
H	 2.1590244353	-2.5586001628	 0.5059468158	 0.075948
H	 1.0047725893	-2.8304262861	-1.8457438544	 0.10472
H	-0.5060062323	-2.7682864471	-0.846109255	 0.123927
H	 0.419819397	-0.2930311013	-2.2349813685	 0.075077
178.9969	204.2757	226.9685	266.2563	290.3075	302.8751	430.7955	526.0676	573.9252	593.3378	698.7771	705.1672	721.0503	817.0146	844.8063	861.2325	911.4488	916.9294	954.4425	978.3594	1027.0026	1040.3163	1048.684	1087.1119	1094.753	1124.2346	1162.3004	1187.8994	1222.7572	1241.034	1265.6728	1280.8387	1296.5212	1303.5419	1323.3905	1370.1138	1412.4115	1474.1038	1489.9628	1494.5599	1501.1152	3024.3412	3058.4889	3087.7638	3103.0176	3103.6302	3118.8123	3124.0669	3162.6916	3204.5661	3799.5332
CC12C(O)C1C1CC2O1	C[C@]12[C@@H](O)[C@H]1[C@H]1C[C@@H]2O1	
InChI=1S/C7H10O2/c1-7-4-2-3(9-4)5(7)6(7)8/h3-6,8H,2H2,1H3	InChI=1S/C7H10O2/c1-7-4-2-3(9-4)5(7)6(7)8/h3-6,8H,2H2,1H3/t3-,4+,5-,6+,7-/m1/s1
