19
gdb 70533	2.60143	1.46618	1.09882	2.1709	74.41	-0.2396	-0.0164	0.2231	1137.4064	0.158687	-423.048891	-423.040512	-423.039568	-423.082288	32.2	
C	-0.3030713979	 1.4549349187	 0.0810885418	-0.470675
C	 0.0669729205	-0.0083624486	 0.050919025	 0.391211
C	-0.7891235617	-0.9188055798	-0.8277570746	-0.388964
C	-1.5618127414	-1.9999260921	-0.0653190028	 0.396165
O	-2.5893466074	-2.4605637021	-0.5016700594	-0.31094
C	-0.9704851028	-2.4652928904	 1.2633909342	-0.303589
C	 0.5223674002	-2.134339932	 1.422564371	-0.260841
C	 0.7568163765	-0.6502758911	 1.1853127261	-0.011224
O	 1.4784374521	-0.2809063648	 0.0055460851	-0.290796
H	 0.3563796563	 2.0058385053	 0.7560657689	 0.128897
H	-0.2154977926	 1.8944046619	-0.9187017299	 0.131272
H	-1.3382157004	 1.5879857969	 0.4140407728	 0.124672
H	-1.5064290982	-0.3595162341	-1.4330683608	 0.127772
H	-0.1231123556	-1.4414231222	-1.5265467734	 0.14897
H	-1.544873578	-1.9589505998	 2.0522013398	 0.131434
H	-1.1795705687	-3.5330245991	 1.3718993828	 0.131115
H	 0.8694829178	-2.4288166928	 2.4170611565	 0.11018
H	 1.117661147	-2.6979065399	 0.6966894735	 0.124737
H	 0.9949547541	-0.042759304	 2.0587676233	 0.090606
39.6542	136.022	198.5867	242.2454	325.4976	360.0501	408.0365	427.2989	481.0793	486.9519	535.078	591.393	700.4684	766.3317	797.3641	860.5508	904.2536	918.3573	952.8597	1006.2323	1030.596	1064.1708	1087.1483	1112.9612	1157.3102	1182.3526	1204.354	1241.654	1256.7395	1324.6623	1330.0705	1333.9587	1364.122	1414.0973	1438.6014	1447.3624	1466.6677	1486.6831	1489.9473	1498.4111	1815.7264	3020.1747	3033.1884	3037.2223	3051.8963	3090.7014	3096.0573	3097.9678	3107.5959	3110.4611	3124.4356
CC12CC(=O)CCC1O2	C[C@]12CC(=O)CC[C@H]1O2	
InChI=1S/C7H10O2/c1-7-4-5(8)2-3-6(7)9-7/h6H,2-4H2,1H3	InChI=1S/C7H10O2/c1-7-4-5(8)2-3-6(7)9-7/h6H,2-4H2,1H3/t6-,7+/m1/s1
