20
gdb 22848	3.09331	1.16544	0.91211	1.1884	78.79	-0.2443	0.0085	0.2528	1293.1674	0.172092	-440.24591	-440.23724	-440.236296	-440.279414	33.149	
O	-0.0605218426	 1.4136871559	-0.3052476393	-0.399942
N	 0.0896668263	 0.0205344356	-0.17679601	-0.175007
C	-1.0130969333	-0.5719842368	 0.0877677144	 0.357069
C	-0.9257939044	-2.0772809504	 0.1885924497	-0.288356
C	-1.469922951	-2.6548312738	 1.5115605789	-0.189945
C	-2.998084898	-2.8241379295	 1.5521436024	-0.200751
C	-3.7595114172	-1.6472670966	 0.9245293989	-0.068376
O	-3.182247052	-0.393847599	 1.2554304085	-0.242062
C	-2.333023943	 0.1564144122	 0.2685920179	-0.178269
H	 0.8501655124	 1.7012126726	-0.4262140825	 0.306633
H	-1.4610679539	-2.531984469	-0.6579566036	 0.104313
H	 0.1285890135	-2.3378672221	 0.0663440275	 0.118376
H	-1.0028912887	-3.6292314769	 1.6901591712	 0.098617
H	-1.1523485356	-2.0052107024	 2.3332328736	 0.115024
H	-3.2945349687	-3.7391400863	 1.0227451404	 0.095507
H	-3.3120550994	-2.9527829832	 2.5937613199	 0.104835
H	-3.8055528756	-1.7577172736	-0.1690592065	 0.089271
H	-4.7935149269	-1.6321560085	 1.2879752712	 0.104181
H	-2.1309884307	 1.1841463012	 0.5725081271	 0.142323
H	-2.8512156815	 0.1983163005	-0.7056094501	 0.106559
57.49	133.3854	194.3429	248.0982	278.9854	321.6484	343.9031	380.0033	426.7673	464.6705	549.3504	572.7685	657.6965	746.477	811.6444	829.9212	893.207	926.7836	966.4923	997.1509	1012.7296	1027.1742	1087.2273	1111.4228	1159.4986	1206.8029	1220.1039	1257.5272	1290.6955	1298.1126	1319.8402	1354.6492	1370.398	1375.0837	1381.8891	1416.3502	1420.2131	1475.6126	1477.4496	1481.4253	1495.4123	1507.2162	1718.9107	2952.5064	2990.2696	3004.4606	3023.8121	3044.6051	3051.8978	3070.6419	3088.686	3095.6047	3125.715	3824.9184
ON=C1CCCCOC1	ON=C1CCCCOC1	
InChI=1S/C6H11NO2/c8-7-6-3-1-2-4-9-5-6/h8H,1-5H2	InChI=1S/C6H11NO2/c8-7-6-3-1-2-4-9-5-6/h8H,1-5H2
