21
gdb 89563	5.18564	0.80254	0.80106	2.3284	78.93	-0.2531	0.0745	0.3276	1484.0357	0.181793	-424.198282	-424.189266	-424.188322	-424.231993	35.166	
O	 0.8303197389	 0.292368385	-0.9110092179	-0.434508
C	 0.0215714365	-0.3642947452	 0.0305515617	 0.178415
C	 0.1236863216	-0.0125673517	 1.538649849	-0.346072
C	-1.4024797322	-0.2409949804	 1.6453231784	 0.371633
C	-1.4985594133	-0.0618505309	 0.104044612	-0.332178
C	-1.9638546289	-1.5710084578	 2.2229907629	-0.299456
C	-3.1821224379	-0.7840220042	 2.7426018844	 0.150979
O	-3.6129102952	-1.1823264135	 4.0228983823	-0.432182
C	-2.3565610706	 0.524977589	 2.5924287838	-0.344795
H	 0.7070209734	 1.2407642792	-0.7969805372	 0.274494
H	 0.1968169473	-1.4320905139	-0.1300743895	 0.095501
H	 0.7825030521	-0.6124270463	 2.1724616935	 0.099387
H	 0.3750388392	 1.0473669015	 1.6720346677	 0.087921
H	-1.6951836444	 0.9849719469	-0.159700379	 0.085887
H	-2.1846817538	-0.7009584498	-0.4588319431	 0.099331
H	-2.1415089662	-2.4045758507	 1.5384126665	 0.097863
H	-1.3680629848	-1.9216770995	 3.0715239488	 0.110104
H	-4.0090468856	-0.8100062617	 2.0183942209	 0.0665
H	-4.3690294484	-0.6407454991	 4.2707128415	 0.280943
H	-1.868806557	 0.7669788402	 3.5425230749	 0.103615
H	-2.8553493007	 1.4171552331	 2.2016675585	 0.08662
73.0416	79.9187	249.4954	260.2972	272.7971	290.1681	327.0382	367.0624	421.8549	455.4453	464.8972	480.2175	651.6199	735.4189	808.6073	847.9431	855.6504	876.2195	932.4016	949.8247	968.4826	1004.4049	1038.5589	1061.2048	1074.4204	1090.8136	1112.296	1164.2237	1199.4736	1208.9648	1211.7048	1230.9375	1235.8959	1261.6199	1268.4399	1283.8009	1309.1382	1329.3189	1338.2496	1427.7509	1437.6471	1463.5444	1466.3965	1490.2604	1497.2	2992.7748	3023.6027	3030.206	3039.8747	3052.0789	3068.3241	3091.389	3097.7939	3098.9553	3108.2103	3805.0163	3814.9715
OC1CC2(C1)CC(O)C2	O[C@H]1C[C@@]2(C1)C[C@@H](O)C2	
InChI=1S/C7H12O2/c8-5-1-7(2-5)3-6(9)4-7/h5-6,8-9H,1-4H2	InChI=1S/C7H12O2/c8-5-1-7(2-5)3-6(9)4-7/h5-6,8-9H,1-4H2/t5-,6-,7-/m0/s1
