22
gdb 120864	3.5032	0.58611	0.53657	0.9086	79.49	-0.2431	0.0707	0.3138	2065.653	0.193225	-441.445454	-441.434702	-441.433758	-441.482644	37.987	
O	 0.201470833	 1.3347932271	 0.3719725392	-0.420214
C	-0.0177038129	-0.0664000727	 0.4106349969	-0.055736
C	-1.2674349684	-0.4955142493	-0.3653131079	-0.210603
C	-1.4461943403	-1.9963310697	-0.3543666421	-0.024681
N	-2.0639883718	-2.5931610024	 0.8459257967	-0.341947
C	-2.7527772999	-2.7035421562	-0.4548284722	-0.024681
C	-4.0988052455	-2.0280403234	-0.5830180713	-0.210601
C	-5.2229153413	-2.8838371559	 0.0103194764	-0.055737
O	-6.5044449643	-2.2949196582	-0.1437341908	-0.420214
H	-0.5283241846	 1.757614599	 0.835513315	 0.280565
H	 0.8750527359	-0.5156091435	-0.0396576345	 0.105888
H	-0.0837683438	-0.4383752601	 1.4443197431	 0.100771
H	-2.14459322	-0.0144221058	 0.0812479398	 0.091479
H	-1.1861061226	-0.1333923916	-1.3974750673	 0.106348
H	-0.6010417269	-2.5371692687	-0.7824328255	 0.081963
H	-1.6090891317	-3.468223762	 1.0897330125	 0.230382
H	-2.7075445488	-3.6773506768	-0.9444004346	 0.081962
H	-4.0791723623	-1.0615696837	-0.067438695	 0.09148
H	-4.322278287	-1.8308484275	-1.6386128153	 0.106349
H	-5.277096974	-3.8455693006	-0.5128461158	 0.105889
H	-4.9996531198	-3.0992577574	 1.0662470605	 0.10077
H	-6.5177987729	-1.4843308705	 0.3749336922	 0.280565
52.1477	78.7454	81.2939	96.4994	123.1805	174.5875	255.3639	298.0737	303.1557	336.1675	380.4975	481.6784	487.373	542.005	759.8892	787.0263	830.9213	862.6441	894.2609	989.0365	991.3396	1021.327	1027.7513	1067.6267	1076.7609	1078.7473	1096.3943	1125.7834	1159.0797	1165.2069	1242.507	1262.5729	1272.4692	1291.2185	1299.4218	1312.8854	1326.147	1386.3009	1395.5117	1418.8368	1422.6017	1429.3635	1470.8641	1478.7907	1486.2131	1513.2136	1514.1517	2992.033	2992.3245	3031.3232	3036.8361	3056.5083	3057.9249	3077.0561	3084.5855	3093.2018	3104.6693	3508.3673	3816.679	3816.8567
OCCC1NC1CCO	OCC[C@H]1N[C@H]1CCO	
InChI=1S/C6H13NO2/c8-3-1-5-6(7-5)2-4-9/h5-9H,1-4H2	InChI=1S/C6H13NO2/c8-3-1-5-6(7-5)2-4-9/h5-9H,1-4H2/t5-,6+
