19
gdb 8596	4.21853	1.8429	1.67592	2.0284	76.83	-0.2052	0.0551	0.2603	863.3603	0.166509	-327.767727	-327.760835	-327.759891	-327.79831	28.185	
C	-0.1565966582	 1.6362157483	-0.060176533	-0.410986
C	 0.0031676101	 0.1210622029	-0.0010576282	-0.018233
C	 0.9541790522	-0.5828844574	-1.0875534671	-0.360294
C	 1.8907435601	-0.9100328467	 0.1027086784	 0.255384
C	 2.5797840267	-1.8020024655	 1.1893354945	-0.249664
N	 2.1136480895	-0.5532563979	 2.0106199569	-0.180633
C	 2.6464856225	 0.2388173428	 0.8160397829	-0.185542
C	 0.8076206186	-0.7007841261	 1.1132286792	 0.009422
H	 0.7859114395	 2.1676985696	-0.2087783582	 0.123132
H	-0.8120733476	 1.9069021558	-0.8958847988	 0.11699
H	-0.617373316	 2.0151979919	 0.8578515524	 0.126954
H	-1.0005444463	-0.3142754812	-0.0273362396	 0.088277
H	 0.4713482446	-1.4520209015	-1.5417218791	 0.108151
H	 1.3613167682	 0.0547110887	-1.8783152205	 0.102084
H	 2.0747506442	-2.7290007837	 1.4721464227	 0.105485
H	 3.6689534676	-1.9132250616	 1.196539872	 0.101355
H	 3.7387160911	 0.2414199636	 0.743026547	 0.091843
H	 2.2593369288	 1.2548722759	 0.7682922632	 0.104381
H	 0.2180509444	-1.551922328	 1.4634177452	 0.071895
152.7805	201.5451	249.4195	342.3793	391.4248	433.0051	538.5561	592.1827	673.5196	727.8979	777.64	814.5101	853.7694	860.2866	868.5791	913.4432	958.4966	990.0036	1005.7331	1057.3635	1068.4675	1080.0174	1091.5789	1153.3516	1173.2358	1180.9523	1190.1315	1195.0591	1216.6391	1230.9923	1264.2005	1287.2391	1343.2437	1373.9058	1415.226	1473.7197	1491.3467	1499.5759	1510.3083	1549.4166	3033.6243	3041.4458	3046.2056	3050.2245	3055.08	3071.7949	3094.0487	3110.7981	3118.0111	3120.0304	3156.448
CC1CC23CN(C2)C13	C[C@H]1C[C@@]23CN(C2)[C@@H]13	
InChI=1S/C7H11N/c1-5-2-7-3-8(4-7)6(5)7/h5-6H,2-4H2,1H3	InChI=1S/C7H11N/c1-5-2-7-3-8(4-7)6(5)7/h5-6H,2-4H2,1H3/t5-,6-/m0/s1
