18
gdb 83124	2.03128	1.82636	1.47411	4.86	72.07	-0.2363	0.0359	0.2722	1005.9971	0.148135	-439.116234	-439.107645	-439.106701	-439.149009	32.552	
C	-0.043794863	 1.5356015747	-0.0040031119	-0.479093
C	 0.0441114793	 0.0311613509	 0.0387156166	 0.166716
C	-0.808854389	-0.781995532	 0.9735964112	 0.0629
O	-1.5010245494	-1.8857422231	 0.4717276019	-0.408783
C	 0.6899775011	-0.810812117	 1.1354712507	-0.171978
C	 1.4166190535	-1.9691680324	 0.4539200543	-0.17642
N	 1.1726004428	-1.747191623	-0.9589210766	-0.304942
C	 0.3887186212	-0.6675801594	-1.2639888912	 0.381581
O	 0.0645207716	-0.307561606	-2.3747082573	-0.388334
H	 0.9286802669	 1.9838840745	-0.2325790003	 0.124472
H	-0.7426001752	 1.8394986102	-0.788845105	 0.149209
H	-0.3899014926	 1.942537974	 0.9506169276	 0.109502
H	-1.3591145299	-0.1972488082	 1.711792314	 0.089735
H	-1.6124316824	-2.5203181099	 1.1880625856	 0.289929
H	 1.1427748277	-0.3633482105	 2.0127456356	 0.094213
H	 2.4887048363	-1.9479156721	 0.6847054344	 0.110976
H	 1.021887093	-2.9417750485	 0.7785878164	 0.100392
H	 1.3873435982	-2.4287998223	-1.6687483163	 0.249923
121.3755	166.7179	191.6817	216.0947	230.358	261.2091	282.5529	414.3095	477.2092	498.0483	556.9052	609.652	693.4631	717.3331	790.8271	824.546	859.1714	917.3644	978.5783	1026.2276	1044.2118	1062.2923	1106.0463	1127.4539	1163.1044	1194.2319	1227.1097	1258.178	1283.4159	1329.858	1333.2669	1375.0056	1415.2211	1444.6223	1476.4049	1484.6187	1500.1705	1522.3738	1824.5361	3003.5714	3037.5055	3038.0985	3093.859	3103.7948	3117.558	3177.0334	3647.4823	3799.2351
CC12C(O)C1CNC2=O	C[C@]12[C@@H](O)[C@H]1CNC2=O	
InChI=1S/C6H9NO2/c1-6-3(4(6)8)2-7-5(6)9/h3-4,8H,2H2,1H3,(H,7,9)	InChI=1S/C6H9NO2/c1-6-3(4(6)8)2-7-5(6)9/h3-4,8H,2H2,1H3,(H,7,9)/t3-,4+,6-/m1/s1
