16
gdb 102927	2.25834	0.99949	0.76406	3.0419	66.86	-0.2599	-0.0566	0.2033	1442.8501	0.120975	-475.011356	-475.001344	-475.0004	-475.048661	33.251	
O	 0.1378420509	 1.3389700252	 0.2159225431	-0.413612
C	 0.0526312716	-0.0453843575	-0.0475648571	-0.097512
C	-1.3937824551	-0.5330260132	-0.0335013838	 0.034691
O	-1.9002685113	-0.1943241325	 1.263813905	-0.274348
C	-3.1127634688	-0.8447200775	 1.6003643013	-0.199543
C	-3.5270431957	-0.3904461481	 2.9294309931	 0.267319
N	-3.872083188	-0.0473256738	 3.9761456562	-0.286719
C	-2.2679860359	 0.1723553211	-1.0727795243	 0.142539
O	-3.1789013697	-0.3758747853	-1.6415549125	-0.244731
H	-0.2680926049	 1.4851431088	 1.0784356312	 0.301409
H	 0.4858245562	-0.2106445589	-1.0399296074	 0.126381
H	 0.6299760342	-0.638834348	 0.6768618105	 0.111959
H	-1.4502062735	-1.6179683518	-0.2014995044	 0.094321
H	-3.9120578599	-0.6250205073	 0.8797105674	 0.168955
H	-2.9799203078	-1.9369667469	 1.6195979054	 0.151294
H	-2.0353207521	 1.2452227557	-1.2226359539	 0.117597
24.0042	44.2149	88.7682	120.4099	145.8371	202.5601	287.4187	311.1707	371.4133	390.3254	428.3656	443.811	534.5588	684.0658	887.7828	913.8076	958.8269	991.3001	1029.7315	1063.2453	1097.7284	1103.6885	1132.6087	1229.2535	1258.8374	1295.7877	1338.792	1384.6213	1415.3823	1419.6207	1426.2442	1492.6032	1498.5968	1820.787	2375.6836	2948.2115	2997.3225	3000.2424	3019.0963	3043.2369	3080.0534	3801.7377
OCC(OCC#N)C=O	OC[C@@H](OCC#N)C=O	
InChI=1S/C5H7NO3/c6-1-2-9-5(3-7)4-8/h3,5,8H,2,4H2	InChI=1S/C5H7NO3/c6-1-2-9-5(3-7)4-8/h3,5,8H,2,4H2/t5-/m0/s1
