23
gdb 103655	3.13588	1.03037	1.02505	1.058	88.24	-0.2418	0.0201	0.2619	1364.5998	0.204319	-388.300101	-388.290141	-388.289197	-388.334892	37.7	
C	-0.089054878	 1.3707781242	 0.1665565249	-0.245251
O	-0.0219254831	-0.0226288897	-0.0293556257	-0.28525
C	 0.6805002369	-0.48684102	-1.1917812571	 0.385566
C	 2.1349565289	 0.0108561818	-1.197925543	-0.442983
C	 0.5868724776	-2.0337052504	-1.1562719841	-0.281342
C	 0.2776254724	-2.5009956448	-2.6016009922	-0.016565
C	-0.6965126187	-3.682207199	-2.682502852	-0.398419
C	-0.2322439846	-1.2315839958	-3.246426305	-0.067392
C	-0.0300927262	-0.1537488114	-2.4937389489	-0.13527
H	 0.8935108463	 1.8222875398	 0.364376521	 0.104191
H	-0.545026476	 1.8978374648	-0.6843235758	 0.101944
H	-0.7213186382	 1.5308718559	 1.0441235166	 0.124708
H	 2.6071873537	-0.1933946514	-0.2312644203	 0.11997
H	 2.7020033886	-0.5049888946	-1.978422914	 0.119383
H	 2.2042509641	 1.0841950984	-1.3986545304	 0.112232
H	 1.4858656988	-2.4968385658	-0.740492664	 0.091296
H	-0.2512063995	-2.2859059503	-0.4999837117	 0.113516
H	 1.2097928375	-2.8027696724	-3.10330512	 0.077321
H	-1.6524499212	-3.4304235473	-2.2107386713	 0.119329
H	-0.8966410668	-3.9619721164	-3.7225845407	 0.109705
H	-0.2906899376	-4.5627039565	-2.1731861072	 0.113825
H	-0.6866639772	-1.2297429415	-4.2329090246	 0.089239
H	-0.2810655275	 0.8628738426	-2.7754772643	 0.09025
51.5193	86.1798	173.1813	206.8397	229.8772	250.7355	284.6257	295.5509	343.7851	372.4117	402.6232	469.4068	557.568	603.832	690.1395	782.5558	807.0417	850.6002	874.1556	908.8774	937.4606	962.7287	979.2639	1016.3733	1068.0246	1093.5544	1115.859	1131.875	1165.3654	1174.4932	1182.1608	1207.7539	1254.814	1257.8288	1295.9755	1313.8897	1341.9643	1384.5419	1398.9997	1410.321	1475.8444	1482.9057	1488.0883	1489.9681	1497.1988	1499.0852	1507.0974	1511.4675	1687.1198	2980.5919	2986.5758	3027.0593	3031.6767	3037.1944	3057.8344	3095.2533	3099.4649	3103.3972	3105.2818	3108.7604	3111.836	3167.7728	3199.5514
COC1(C)CC(C)C=C1	CO[C@@]1(C)C[C@@H](C)C=C1	
InChI=1S/C8H14O/c1-7-4-5-8(2,6-7)9-3/h4-5,7H,6H2,1-3H3	InChI=1S/C8H14O/c1-7-4-5-8(2,6-7)9-3/h4-5,7H,6H2,1-3H3/t7-,8+/m0/s1
