22
gdb 98664	4.75374	0.76857	0.74503	3.3121	85.32	-0.2405	0.0327	0.2732	1649.9166	0.193813	-404.38134	-404.371089	-404.370144	-404.417905	36.704	
C	 0.0417239272	 1.5358236609	-0.2769865778	-0.333491
N	-0.0336481742	 0.0896284054	-0.2202221861	-0.322109
C	-1.0236945387	-0.5729133361	 0.4470396762	 0.417878
O	-1.9192632779	 0.0028362678	 1.0455271523	-0.389481
C	-0.944327147	-2.0864469396	 0.4004260742	-0.099869
C	-1.0448044597	-2.8210908215	 1.7707601187	-0.234854
C	-2.0080412753	-3.8531096109	 1.1225366502	 0.05261
C	-3.1980564336	-4.3560273529	 1.9239156913	-0.409135
C	-2.2476997832	-2.8290412724	-0.0206835587	-0.234868
H	-0.0200993535	 1.900348046	-1.3087523747	 0.12333
H	-0.8052165939	 1.9243790145	 0.2897209831	 0.171856
H	 0.9716433349	 1.9066686477	 0.1690710167	 0.123328
H	 0.6717764293	-0.4511948111	-0.6912009321	 0.243376
H	-0.0816463494	-2.4334461598	-0.1772933486	 0.051632
H	-0.1170469431	-3.1862499235	 2.2182357247	 0.091495
H	-1.5694203378	-2.1840448093	 2.4883599262	 0.123653
H	-1.4315988028	-4.7035629398	 0.7392354504	 0.065392
H	-3.7869959779	-3.5191595536	 2.315357077	 0.120675
H	-3.8616665088	-4.9727120612	 1.3069942723	 0.111712
H	-2.8754937324	-4.9656736055	 2.7757136675	 0.111714
H	-3.1131006344	-2.1942506529	 0.1893528232	 0.12366
H	-2.309184628	-3.2007734024	-1.046522616	 0.091495
26.6708	67.1642	80.0425	128.703	210.4508	223.3219	252.3245	320.7512	321.1749	365.7676	421.4124	479.841	589.4158	701.2823	746.104	814.6102	814.8205	899.7876	905.6829	940.8935	959.1793	983.766	1043.5732	1073.0809	1126.2602	1144.7961	1147.3021	1154.0667	1172.8699	1217.1274	1238.9647	1250.4882	1250.6472	1277.0532	1296.728	1371.0789	1393.5758	1410.079	1437.1563	1470.5788	1490.9626	1493.0018	1497.16	1498.1278	1500.0923	1558.5382	1767.3724	3022.3662	3024.8016	3029.6216	3049.109	3054.9389	3059.4204	3075.3557	3087.7579	3094.5973	3114.9768	3120.235	3153.331	3653.5755
CNC(=O)C1CC(C)C1	CNC(=O)[C@H]1C[C@@H](C)C1	
InChI=1S/C7H13NO/c1-5-3-6(4-5)7(9)8-2/h5-6H,3-4H2,1-2H3,(H,8,9)	InChI=1S/C7H13NO/c1-5-3-6(4-5)7(9)8-2/h5-6H,3-4H2,1-2H3,(H,8,9)/t5-,6+
