18
gdb 128578	2.5961	1.36318	0.90526	2.5982	77.15	-0.1882	0.0521	0.2403	1274.9264	0.148094	-435.277028	-435.267454	-435.26651	-435.312425	33.815	
C	-0.7910822335	 0.468197777	 0.4573178691	-0.247797
O	 0.1891615786	 0.8224779308	-0.5069441178	-0.265706
C	 0.5789392134	-0.1743565721	-1.3231318571	 0.517987
C	 0.2081224324	-1.5021307052	-1.4351999015	-0.472292
C	 1.014686279	-1.9761064594	-2.5019449596	 0.391941
N	 1.0845492727	-3.2877083214	-2.9758825939	-0.589721
N	 1.7992570749	-1.032921306	-3.0050717222	-0.360115
N	 1.5248317172	 0.0815085825	-2.2531233961	-0.058042
C	 2.2017666369	 1.3252292879	-2.5219689435	-0.328201
H	-1.7125394885	 0.1240712933	-0.0276744983	 0.130314
H	-0.4197730385	-0.3194616778	 1.1238450779	 0.132514
H	-0.996035883	 1.3706545001	 1.0344557992	 0.138241
H	-0.5007549326	-2.0477520986	-0.8369089833	 0.096966
H	 0.1782625811	-3.7293008076	-3.0568667466	 0.241024
H	 1.5744546752	-3.3276395909	-3.8611950674	 0.246518
H	 1.9862966291	 1.6689585095	-3.5388473346	 0.137044
H	 1.8544137489	 2.0715664501	-1.807146457	 0.149244
H	 3.2837298868	 1.1984146776	-2.4184334575	 0.140082
29.0524	82.8877	147.2915	178.8433	196.2315	237.276	266.0215	286.6386	386.5686	398.0439	553.8032	611.9498	652.6113	658.8781	680.7002	708.0063	783.8585	849.4271	1012.5641	1045.1833	1076.9837	1139.1198	1154.3049	1182.7645	1194.667	1228.8854	1235.4622	1305.6197	1446.8877	1462.466	1473.1147	1478.552	1485.0557	1505.835	1516.4207	1532.7413	1590.4741	1608.0425	1648.5742	3015.809	3039.2153	3078.7252	3095.4956	3143.3651	3156.2574	3275.7619	3536.8147	3632.3738
COC1=CC(N)=NN1C	COc1cc(N)nn1C	
InChI=1S/C5H9N3O/c1-8-5(9-2)3-4(6)7-8/h3H,1-2H3,(H2,6,7)	InChI=1S/C5H9N3O/c1-8-5(9-2)3-4(6)7-8/h3H,1-2H3,(H2,6,7)
