15
gdb 25514	5.01239	0.9741	0.83794	3.874	76.73	-0.2553	-0.0215	0.2338	1299.1448	0.114007	-420.714322	-420.706981	-420.706037	-420.74678	27.304	
O	 2.4534194455	 0.083995918	 0.026641098	-0.259256
C	 2.2333388822	 1.2244955896	 0.2906867741	 0.153758
O	 1.3001026066	 1.9540393598	-0.377153579	-0.224968
C	 1.177060132	 3.3039917054	-0.0762185184	 0.387258
C	-0.0919230116	 3.7784961897	 0.2399750254	-0.202573
C	-0.2634682382	 5.1334200113	 0.5037817737	-0.086417
C	 0.8253068108	 6.0034755751	 0.4589105109	-0.115652
C	 2.0884685979	 5.515394225	 0.1368294071	-0.084024
C	 2.271634975	 4.1616954034	-0.1409232005	-0.217819
H	 2.7307348056	 1.8062191269	 1.086806397	 0.09563
H	-0.9216611336	 3.0823107487	 0.2730965776	 0.11799
H	-1.2510627167	 5.5089355758	 0.7489900629	 0.108581
H	 0.6871616994	 7.058473498	 0.6676071905	 0.104832
H	 2.9376720183	 6.1884231331	 0.0887143191	 0.108469
H	 3.245275447	 3.7795813201	-0.4263958485	 0.114191
69.5865	130.2819	164.7601	303.1755	399.2506	423.6091	453.1034	544.1868	624.8551	671.8497	714.5372	784.6035	852.4649	882.9646	924.947	958.1673	989.7335	1015.1757	1044.3862	1047.2643	1097.9388	1132.9632	1181.6916	1189.321	1244.6566	1325.9018	1345.7969	1416.0647	1485.1942	1521.2299	1631.8023	1637.533	1871.6773	2986.8129	3178.7294	3186.6686	3196.1332	3203.9589	3210.2728
O=COC1=CC=CC=C1	O=COc1ccccc1	
InChI=1S/C7H6O2/c8-6-9-7-4-2-1-3-5-7/h1-6H	InChI=1S/C7H6O2/c8-6-9-7-4-2-1-3-5-7/h1-6H
