17
gdb 32959	4.19626	0.8995	0.75419	2.0916	72.63	-0.1946	0.0409	0.2355	1475.0031	0.136026	-455.164987	-455.155935	-455.154991	-455.199623	32.137	
C	-0.1156381751	 1.3298941153	 0.0318750574	-0.224371
O	-0.2073520938	-0.0690573827	 0.1739117336	-0.248401
C	 0.7607576901	-0.5955949535	 1.0640673342	-0.172333
C	 0.6278707925	-2.0815827133	 1.0685257417	 0.331865
N	 0.9119085037	-2.8956763669	 2.0523123985	-0.306344
C	 0.6881955102	-4.1721875267	 1.5650309952	-0.237222
C	 0.2547731386	-4.0973489106	 0.2676834596	 0.356682
O	-0.1261192942	-4.9949678246	-0.6729618201	-0.436166
N	 0.2295229772	-2.7661769648	-0.0532062871	-0.319417
H	 0.869326534	 1.6370916049	-0.3536273088	 0.107569
H	-0.8867100919	 1.6369497649	-0.6784992351	 0.129371
H	-0.2864996534	 1.846952053	 0.9883430274	 0.11221
H	 1.7702796923	-0.2879525595	 0.7360127592	 0.102379
H	 0.6248836821	-0.2215628684	 2.0891714847	 0.121832
H	 0.8432139782	-5.0515675086	 2.1708234853	 0.096263
H	-0.0995592601	-5.8734043178	-0.2813868167	 0.31055
H	-0.1191238605	-2.3548841708	-0.9030697889	 0.275534
51.1313	85.374	116.8669	215.7713	233.2183	236.7487	324.207	353.4216	386.1799	469.2363	540.5694	666.8758	672.7336	697.1564	769.9309	773.4158	983.9299	1004.6313	1029.3968	1059.0869	1144.0727	1150.8221	1176.4572	1183.5645	1219.9886	1234.1583	1246.1746	1291.7808	1397.0474	1451.5478	1479.945	1485.8439	1501.4006	1508.8072	1521.9766	1575.924	1637.5169	2936.3902	2975.7048	3016.884	3023.2575	3117.7638	3247.2547	3670.0991	3844.3952
COCC1=NC=C(O)N1	COCc1ncc(O)[nH]1	
InChI=1S/C5H8N2O2/c1-9-3-4-6-2-5(8)7-4/h2,8H,3H2,1H3,(H,6,7)	InChI=1S/C5H8N2O2/c1-9-3-4-6-2-5(8)7-4/h2,8H,3H2,1H3,(H,6,7)
