14
gdb 47991	6.34917	0.62181	0.61281	1.4032	77.07	-0.2796	-0.0768	0.2028	1738.66	0.099266	-436.653576	-436.644988	-436.644044	-436.688596	29.294	
N	-0.1734837445	 0.9782910841	 0.7536003088	-0.528511
C	-0.1117803807	-0.0898464362	 0.1076321653	 0.445716
C	-1.1292758915	-1.0885467965	-0.3996926378	-0.367428
C	 0.1163819152	-1.8074758615	-0.9915386327	-0.067623
O	 0.9794968159	-0.770366088	-0.4092781327	-0.248789
C	 0.4134345557	-3.1382078423	-0.5134491328	 0.155983
C	 0.6359333935	-4.2622594919	-0.131655052	 0.011661
C	 0.9328123339	-5.5910181484	 0.34548353	 0.024724
O	 0.321482838	-6.5811480415	 0.0191265422	-0.221274
H	 0.7508806254	 1.3832135059	 0.9092436214	 0.236643
H	-1.6562904865	-1.640655714	 0.3784662314	 0.157709
H	-1.8397104638	-0.7042164977	-1.1317046319	 0.152696
H	 0.1811274171	-1.7685480309	-2.083073061	 0.137369
H	 1.7854491323	-5.6360816612	 1.0519331817	 0.111123
44.1626	60.7231	94.4241	148.0834	215.8488	278.1493	425.0177	450.053	493.716	547.301	616.552	729.5317	786.7158	865.3205	914.1543	931.2253	969.1685	1012.1226	1017.9871	1020.7137	1118.0918	1168.2099	1212.4231	1232.5538	1294.1026	1360.3844	1419.3006	1462.8569	1769.8757	1839.9901	2326.456	2931.2319	3068.9788	3101.5108	3161.3139	3484.4608
N=C1CC(O1)C#CC=O	[NH][C]1C[C@@H](O1)C#CC=O	
InChI=1S/C6H5NO2/c7-6-4-5(9-6)2-1-3-8/h3,5,7H,4H2	InChI=1S/C6H5NO2/c7-6-4-5(9-6)2-1-3-8/h3,5,7H,4H2/t5-/m0/s1
