17
gdb 106864	2.80978	1.2218	1.01637	1.3533	76.61	-0.237	0.0236	0.2606	1198.4332	0.133801	-421.742833	-421.733955	-421.733011	-421.77683	33.096	
O	 0.013804436	 1.4149212382	 0.3118006686	-0.408719
C	 0.0113283567	 0.0459552577	-0.0625721032	-0.168191
C	-1.3602462637	-0.5447097638	 0.0149629764	 0.397
C	-2.064025207	-1.0832150597	 1.2119187857	-0.365519
C	-1.9094650939	-1.9786146943	-0.0191574469	 0.027953
C	-2.8360902067	-1.4348704487	-1.1118141589	-0.129837
O	-2.3140805353	-0.08971103	-0.9519730626	-0.331707
C	-1.2692137563	-3.2446380043	-0.013927184	 0.191377
C	-0.7379932259	-4.3250564914	-0.0234972374	-0.41138
H	-0.572480031	 1.8760273523	-0.2983758279	 0.296077
H	 0.4099776765	-0.0928183982	-1.0784438557	 0.102241
H	 0.6744657059	-0.4744699207	 0.6347907934	 0.123124
H	-1.4298550654	-1.3699250717	 2.0438569804	 0.134793
H	-3.0459945384	-0.7019396962	 1.4782331232	 0.119855
H	-2.6005325513	-1.8262742699	-2.1062261802	 0.121805
H	-3.9148391042	-1.4904404606	-0.9275515901	 0.112029
H	-0.266664656	-5.2763922086	-0.0285873809	 0.1891
51.9455	89.84	160.4622	194.2423	267.3567	346.3903	353.8572	403.1189	442.618	517.4958	537.5882	569.9518	617.3285	659.0747	741.3882	793.7326	863.2904	928.9785	939.5625	978.7374	988.5848	1041.7532	1056.6881	1075.1163	1112.0477	1150.5558	1172.0693	1252.1499	1287.9401	1340.7689	1380.7938	1391.4834	1432.9591	1488.266	1488.9445	1517.4532	2232.6038	2998.239	3033.5557	3090.9706	3091.7328	3120.0946	3220.8068	3502.297	3807.2095
OCC12CC1(CO2)C#C	OC[C@]12C[C@]1(CO2)C#C	
InChI=1S/C7H8O2/c1-2-6-3-7(6,4-8)9-5-6/h1,8H,3-5H2	InChI=1S/C7H8O2/c1-2-6-3-7(6,4-8)9-5-6/h1,8H,3-5H2/t6-,7+/m0/s1
