18
gdb 40393	4.40345	1.17597	1.10427	2.2551	75.31	-0.2222	0.0598	0.282	1131.3273	0.147757	-401.828371	-401.820937	-401.819993	-401.860482	29.378	
C	 0.4702014672	 1.4513338589	 0.0426722435	-0.176199
O	 1.0401551087	 0.2206927466	-0.4104505314	-0.233243
C	-0.2987178124	 0.1967987274	 0.0879258227	-0.05567
C	-0.5252018156	-0.5560263984	 1.3467439352	 0.351128
C	 0.5635001567	-0.9284386775	 2.3135926221	-0.3717
C	-0.2611119172	-2.0117643847	 1.6716313426	-0.054656
N	-1.6743817268	-2.2438331762	 2.1788660926	-0.139696
C	-1.9732490099	-1.3357872098	 3.3041297871	-0.25208
C	-1.9374256852	-0.7832603133	 1.9346216586	-0.104763
H	 0.8919935455	 1.8458229063	 0.9654922248	 0.115313
H	 0.2684782287	 2.1852339843	-0.7361520528	 0.117093
H	-1.0545959421	 0.0421131752	-0.6849055868	 0.095961
H	 1.5505453759	-0.8539173466	 1.8671820482	 0.139259
H	 0.5393357293	-0.6805011429	 3.3687771002	 0.11188
H	 0.1733097278	-2.7983051345	 1.0682293154	 0.113311
H	-2.9567463802	-1.5299762388	 3.7232392509	 0.12522
H	-1.2200531599	-1.095580529	 4.0450678013	 0.121806
H	-2.8331948204	-0.468559687	 1.4071042758	 0.097035
73.4459	154.8223	187.8071	312.7359	342.7273	460.8186	481.8025	541.4666	656.4158	687.1928	754.7473	791.2141	829.4774	864.431	889.4019	910.1184	945.0985	982.8575	995.1863	1014.2538	1045.0795	1060.6718	1074.8386	1099.5005	1107.0039	1114.6102	1135.0617	1150.1165	1172.7576	1180.5248	1227.7491	1250.9258	1284.7813	1331.7886	1389.9753	1443.9546	1485.889	1521.2807	1522.1435	3083.6921	3088.3125	3124.003	3136.121	3150.4398	3176.9527	3196.7299	3209.4722	3217.2315
C1OC1C12CC1N1CC21	C1O[C@H]1[C@]12C[C@H]1N1C[C@@H]21	
InChI=1S/C7H9NO/c1-4-7(1,6-3-9-6)5-2-8(4)5/h4-6H,1-3H2	InChI=1S/C7H9NO/c1-4-7(1,6-3-9-6)5-2-8(4)5/h4-6H,1-3H2/t4-,5+,6-,7-,8?/m1/s1
