13
gdb 127816	2.55938	1.894	1.09597	2.3492	66.1	-0.2784	-0.0776	0.2008	1007.9733	0.087693	-486.01174	-486.003676	-486.002732	-486.045266	28.123	
C	-0.0392420369	 1.4194522578	-0.0119762292	-0.325346
N	-0.0797538076	-0.0417376315	 0.0082232125	-0.063794
N	-0.3480271253	-0.6410317288	-1.1803402808	-0.037243
N	-0.4137215758	-1.8649120027	-1.3172544203	 0.032027
O	-0.1990567676	-2.7031950735	-0.1773205577	-0.288156
C	 0.0776958401	-2.2049349816	 1.0777685233	 0.325223
N	 0.2614530727	-2.9554033162	 2.0710076519	-0.454085
C	 0.1504122911	-0.7127838767	 1.2036536232	 0.382444
O	 0.3829384394	-0.1155510268	 2.22347317	-0.310499
H	 0.9448847518	 1.7689110838	 0.3073611201	 0.164463
H	-0.2438696484	 1.736747364	-1.0327597692	 0.163386
H	-0.7897066382	 1.8220980218	 0.6716136642	 0.164457
H	 0.1755829346	-3.9391083194	 1.8064371322	 0.247123
63.5068	87.1992	107.2824	205.5637	309.6881	343.4986	463.5275	491.8037	498.7211	544.4966	600.277	671.5952	790.4656	813.555	909.0714	909.7134	1005.2389	1013.3823	1116.612	1154.3713	1265.1647	1287.9026	1372.9114	1450.4465	1475.1161	1506.4585	1602.9896	1750.9455	1819.8656	3066.2203	3135.7667	3182.4927	3476.965
CN1N=NOC(=N)C1=O	CN1N=NO[C]([NH])C1=O	
InChI=1S/C3H4N4O2/c1-7-3(8)2(4)9-6-5-7/h4H,1H3	InChI=1S/C3H4N4O2/c1-7-3(8)2(4)9-6-5-7/h4H,1H3
