19
gdb 87756	4.76292	0.80974	0.76727	2.4215	78.2	-0.2526	-0.0263	0.2263	1502.4779	0.156817	-423.011733	-423.002668	-423.001724	-423.046172	33.231	
C	 0.1046366333	 1.4962094851	-0.2859392179	-0.416221
C	 0.0339145666	 0.0159836675	-0.0215620079	-0.02713
O	 1.2848951588	-0.7019981808	 0.000153229	-0.292867
C	 0.5465320743	-0.6126190297	 1.1998971526	 0.455313
C	 1.0346810515	 0.0394172639	 2.4948237083	-0.34486
C	 0.0986965452	-0.9466440061	 3.2746879118	-0.066616
C	-0.0152316897	-1.8076726498	 1.9703528677	-0.346123
C	 0.706373435	-1.631405543	 4.4652825328	 0.163938
O	 0.2250218841	-1.6735222842	 5.5676606378	-0.251424
H	 0.901016928	 1.9635752076	 0.2986664926	 0.128633
H	 0.3039746013	 1.6864467088	-1.345534308	 0.134459
H	-0.8464987402	 1.9771123894	-0.0322824246	 0.123681
H	-0.7571670476	-0.5152027713	-0.5552090237	 0.092825
H	 2.0935284392	-0.1780343357	 2.6731256201	 0.121014
H	 0.8613607765	 1.1070201124	 2.643523491	 0.119674
H	-0.8486407432	-0.4888119599	 3.5625785553	 0.096552
H	-1.0063092933	-2.1814798075	 1.7059487637	 0.119798
H	 0.693128479	-2.6436604373	 1.9736591605	 0.120788
H	 1.6851982012	-2.1239707594	 4.2448137688	 0.068567
54.6777	74.7164	168.2952	187.0767	212.7176	289.043	320.4906	377.9409	413.7478	457.3241	481.605	599.6965	743.3562	790.6026	826.3665	870.6055	885.5808	938.1298	973.3995	1006.3592	1037.6047	1057.2859	1075.996	1126.8094	1143.503	1160.9985	1194.5068	1215.358	1231.6288	1248.6938	1260.9027	1316.1683	1356.9316	1408.6261	1429.1014	1463.5397	1470.6422	1487.0672	1490.5559	1526.8583	1832.5577	2834.9046	3037.2481	3047.8385	3052.6617	3085.6515	3101.4468	3103.4214	3116.2537	3122.0007	3126.3752
CC1OC11CC(C1)C=O	C[C@H]1O[C@]21C[C@@H](C2)C=O	
InChI=1S/C7H10O2/c1-5-7(9-5)2-6(3-7)4-8/h4-6H,2-3H2,1H3	InChI=1S/C7H10O2/c1-5-7(9-5)2-6(3-7)4-8/h4-6H,2-3H2,1H3/t5-,6-,7+/m1/s1
