21
gdb 106509	3.14488	1.36059	1.17602	1.3179	83.26	-0.2277	0.027	0.2546	1132.0887	0.184374	-387.083691	-387.075645	-387.074701	-387.115899	32.604	
O	-0.0593427994	 1.4355796764	-0.1741028048	-0.424641
C	 0.0072253995	 0.0309438039	 0.0392760386	-0.196734
C	-1.400000548	-0.5190936233	 0.0007833625	 0.323526
C	-2.1857847426	-0.5362258785	-1.3502398431	-0.239771
C	-2.8956368703	-1.8076269338	-0.7991869878	-0.030906
C	-1.5976017864	-2.06781287	 0.0202543578	-0.269317
C	-4.0462314316	-1.4138684193	 0.1439121295	-0.250703
C	-3.5779805382	-0.3581791063	 1.1200977074	-0.087439
C	-2.319948699	 0.0757451901	 1.0529073372	-0.073272
H	 0.8312596253	 1.7927675805	-0.1127987383	 0.28783
H	 0.6149881969	-0.4612515806	-0.7370528006	 0.079042
H	 0.4674401029	-0.2006419039	 1.0150849081	 0.082313
H	-2.7921855507	 0.3395951654	-1.590097436	 0.098971
H	-1.530546467	-0.778329456	-2.1927524897	 0.087567
H	-3.2089462759	-2.5713259271	-1.5149295552	 0.056948
H	-0.8420073027	-2.5801728435	-0.5838694444	 0.088211
H	-1.6849165918	-2.5527614309	 0.9961848038	 0.091232
H	-4.9020228659	-1.0410868334	-0.4370641212	 0.102674
H	-4.4146345082	-2.2985609958	 0.6831007475	 0.10075
H	-4.2825041272	 0.0307709568	 1.8497515159	 0.083269
H	-1.9313035298	 0.8492001192	 1.7072242528	 0.090449
99.683	163.6221	246.3582	273.1271	314.1921	354.8349	402.4582	439.6173	484.6477	523.0839	657.9522	703.3005	718.9162	826.1017	860.1271	877.7969	910.2336	927.7311	937.8603	976.4422	982.3371	1014.5648	1026.5439	1060.0542	1076.0984	1090.0425	1101.868	1166.5372	1167.6027	1210.1858	1219.2755	1226.0392	1250.2266	1281.102	1294.4999	1307.2324	1326.9992	1366.6421	1406.7008	1461.6283	1474.2469	1475.0948	1504.2982	1516.9065	1702.1035	2952.9914	2985.3084	2999.2974	3022.9558	3040.8364	3049.8234	3076.0374	3102.0265	3114.3545	3160.5878	3188.7997	3830.7664
OCC12CC(C1)CC=C2	OC[C@@]12C[C@@H](C1)CC=C2	
InChI=1S/C8H12O/c9-6-8-3-1-2-7(4-8)5-8/h1,3,7,9H,2,4-6H2	InChI=1S/C8H12O/c9-6-8-3-1-2-7(4-8)5-8/h1,3,7,9H,2,4-6H2/t7-,8-
