18
gdb 77654	2.24024	1.64719	1.35985	2.8695	74.4	-0.2259	-0.0412	0.1847	1034.7241	0.146352	-439.053724	-439.045033	-439.044089	-439.086709	32.82	
C	-0.0999807772	 1.5147016908	 0.2774459096	-0.486261
C	 0.0000452886	 0.0414098827	 0.0338607298	 0.208002
C	 0.5702784925	-0.6310558788	-1.2189978561	-0.227945
N	 1.3525270965	-1.6050542587	-0.3922510722	-0.371121
C	 0.8184222052	-1.0396904377	 0.8390973716	 0.127729
C	 1.5987707507	-0.8637380495	 2.0521428227	 0.09531
O	 1.1722817755	-0.3180085323	 3.0606075018	-0.323298
C	-0.7190463972	-0.9767045748	 0.8616884233	 0.050651
O	-1.3443423297	-0.580453494	 2.0266300324	-0.435646
H	 0.8416538252	 2.0282594933	 0.0602342709	 0.125898
H	-0.8763466623	 1.9463727383	-0.3659757656	 0.131363
H	-0.3804201922	 1.7167412846	 1.3132425594	 0.145329
H	-0.1742675394	-1.0767990767	-1.8901964752	 0.107534
H	 1.2332462015	 0.0138596063	-1.8051203297	 0.119812
H	 1.0776669354	-2.573204995	-0.5440161664	 0.221835
H	 2.6310479801	-1.267087685	 2.0118336909	 0.102127
H	-1.2375304891	-1.7990051143	 0.3643985584	 0.096688
H	-0.6485235642	-0.3698343891	 2.6784075843	 0.311992
103.1086	146.3782	195.0435	202.4817	255.7346	279.9291	312.9612	391.6743	418.2179	485.88	569.8117	592.3238	662.1184	681.6336	738.7731	827.6661	880.4063	948.8005	975.89	1013.7	1039.9672	1054.7613	1105.3252	1133.2282	1162.9886	1184.3741	1243.9864	1260.2172	1324.9663	1348.3399	1375.0941	1396.5906	1413.6863	1427.7211	1470.5576	1482.9513	1493.004	1512.9942	1736.8758	2930.4056	3021.3384	3031.9575	3070.5419	3082.9474	3091.6653	3133.2275	3473.2362	3555.8095
CC12CNC1(C=O)C2O	C[C@@]12CN[C@]1(C=O)[C@H]2O	
InChI=1S/C6H9NO2/c1-5-2-7-6(5,3-8)4(5)9/h3-4,7,9H,2H2,1H3	InChI=1S/C6H9NO2/c1-5-2-7-6(5,3-8)4(5)9/h3-4,7,9H,2H2,1H3/t4-,5-,6+/m0/s1
