20
gdb 62118	2.8845	0.85833	0.71574	2.2116	76.31	-0.2447	-0.0348	0.2099	1583.8532	0.168105	-440.252145	-440.241945	-440.241001	-440.289078	35.243	
C	-0.0897706128	 1.4703119932	 0.0371362957	-0.403853
C	 0.0367773171	-0.0561032184	 0.0312368869	 0.102865
O	-1.2390295856	-0.6914779777	 0.064649906	-0.268428
C	-1.8986678445	-0.6777261794	 1.3042419494	-0.151786
C	-3.1119044461	-1.588737917	 1.206674696	 0.13925
O	-3.9148542298	-1.721019325	 2.0903977001	-0.233694
C	 0.75402941	-0.5476006645	-1.2150647103	 0.01481
C	 0.5880207754	-1.9330070255	-1.7078281129	-0.245989
N	 0.0046456597	-0.798417768	-2.4537779693	-0.321155
H	 0.9027169364	 1.9294211126	-0.0018236676	 0.125332
H	-0.6595122921	 1.8078337398	-0.833573848	 0.135219
H	-0.5856855892	 1.8324656739	 0.9421271888	 0.118692
H	 0.6140372685	-0.3748376383	 0.9157877467	 0.077767
H	-1.2499655216	-1.0501827187	 2.1153028059	 0.125462
H	-2.2397181477	 0.3263351774	 1.5976931027	 0.130521
H	-3.1873333197	-2.1314263787	 0.2384349007	 0.095603
H	 1.7102498368	-0.0520684393	-1.3733178033	 0.091078
H	 1.4134951737	-2.4341349425	-2.2051118714	 0.115625
H	-0.0878326666	-2.5816369934	-1.1599453293	 0.114846
H	-0.9890395718	-0.7571375903	-2.2356000069	 0.237836
43.8795	54.2277	82.6783	101.4534	132.3431	207.4857	237.8953	271.8088	337.3625	428.3588	468.6484	511.4308	653.0408	738.2382	759.9587	853.2683	876.5219	939.4925	963.2337	993.726	1025.21	1074.7449	1100.4442	1111.6486	1123.2265	1136.846	1156.4584	1173.1801	1207.7707	1240.224	1278.9013	1307.9652	1339.1678	1348.0364	1385.1293	1403.6281	1412.8147	1423.7067	1480.0029	1491.3797	1497.4931	1505.1303	1846.2071	2896.2257	2959.6797	2969.6483	3014.1659	3043.357	3113.0666	3117.8658	3121.5296	3125.8919	3208.5129	3495.3501
CC(OCC=O)C1CN1	C[C@@H](OCC=O)[C@H]1CN1	
InChI=1S/C6H11NO2/c1-5(6-4-7-6)9-3-2-8/h2,5-7H,3-4H2,1H3	InChI=1S/C6H11NO2/c1-5(6-4-7-6)9-3-2-8/h2,5-7H,3-4H2,1H3/t5-,6-/m1/s1
