21
gdb 78936	3.32722	1.52515	1.32799	0.1641	85.44	-0.2313	0.0922	0.3235	1065.5983	0.183181	-349.891091	-349.883405	-349.882461	-349.922652	31.722	
C	-0.1822164027	 1.4988292872	-0.0107567832	-0.411169
C	-0.0219005718	-0.0174315625	 0.0153298289	 0.004791
C	 1.1565969874	-0.5563643665	-0.8419685829	-0.056158
C	 1.2734267676	-2.0677256753	-0.5442829943	-0.124731
C	 2.4260376234	-1.9122147807	 0.427279121	-0.173366
C	 2.1448934313	-0.381477698	 0.3771424868	-0.050168
C	 0.816272107	-0.5581457923	 1.2065788421	-0.114445
C	 1.0217833639	-2.0776441976	 0.9704434669	 0.365512
C	 0.4045479075	-3.2232550067	 1.7121565098	-0.517737
H	 0.7754633883	 2.007112634	 0.1487027357	 0.113584
H	-0.580198067	 1.838078021	-0.9735649705	 0.11084
H	-0.8705462114	 1.8380560756	 0.7712237578	 0.110749
H	-0.9895327711	-0.5086329637	-0.147116482	 0.05753
H	 1.3623156539	-0.1954667327	-1.8503151953	 0.056392
H	 1.0223785014	-2.9109816454	-1.1754092463	 0.077888
H	 3.3215431722	-2.5030187181	 0.5700879851	 0.080619
H	 2.8582620067	 0.4291472442	 0.497651857	 0.065638
H	 0.6828756142	-0.20127298	 2.2290301428	 0.053312
H	-0.6896424481	-3.2073493369	 1.6353913429	 0.117227
H	 0.74914421	-4.1823291058	 1.3094898769	 0.117458
H	 0.6630857674	-3.2007908598	 2.7773228209	 0.116234
167.9016	206.3168	223.3575	240.9794	258.8355	316.5602	483.4318	536.4464	596.1776	718.5866	770.6419	788.1997	809.5661	828.7688	861.9741	867.0822	884.4862	888.2838	912.3432	943.019	960.444	998.7712	1037.4419	1043.8493	1072.3137	1075.211	1097.0285	1128.3518	1154.984	1166.4289	1166.8798	1183.9523	1209.551	1250.4818	1261.3405	1268.3395	1288.6483	1363.374	1408.2682	1410.6551	1431.6419	1484.855	1495.7387	1499.4283	1500.4841	3015.8524	3022.712	3025.5192	3073.7828	3086.904	3089.1549	3092.6408	3100.9095	3105.8918	3148.6855	3185.6234	3198.0824
CC1C2C3C4C2C1C34C	C[C@H]1[C@@H]2[C@H]3[C@H]4[C@@H]2[C@@H]1[C@@]34C	
InChI=1S/C9H12/c1-3-4-5-6(3)9(2)7(4)8(5)9/h3-8H,1-2H3	InChI=1S/C9H12/c1-3-4-5-6(3)9(2)7(4)8(5)9/h3-8H,1-2H3/t3-,4-,5-,6+,7-,8+,9-/m0/s1
