21
gdb 115413	2.68609	1.10157	0.86193	1.5318	84.84	-0.2506	0.0372	0.2878	1412.2726	0.181571	-387.070964	-387.061323	-387.060379	-387.107019	35.52	
C	-0.112019341	 1.5701214534	 0.0591792592	-0.382749
C	-0.0772534885	 0.0484229489	-0.1081317978	-0.190367
C	-1.4397478495	-0.6067112802	 0.0667866929	 0.150922
C	-1.4734816059	-2.1324400231	-0.0675616006	-0.227652
C	-2.7467139377	-2.5078066938	 0.7097513769	-0.264549
C	-2.9168945575	-1.3235044991	 1.7160516894	-0.049979
O	-1.8941947075	-0.3745646831	 1.4030081899	-0.263031
C	-4.2496765057	-0.7184312441	 1.6534688901	 0.345409
C	-5.3460903497	-0.2281896308	 1.6003207645	-0.482222
H	 0.8865961941	 2.0020909189	-0.0566447187	 0.1082
H	-0.765635863	 2.0351571669	-0.6871556025	 0.11211
H	-0.4908291917	 1.8390074812	 1.048444429	 0.138081
H	 0.3010860886	-0.2140001367	-1.1041394689	 0.094518
H	 0.6116329291	-0.3947987088	 0.6215255201	 0.099915
H	-2.1555675656	-0.1585946965	-0.6449546798	 0.067031
H	-1.4986280269	-2.4685034763	-1.1073005334	 0.103003
H	-0.5831055491	-2.558233265	 0.4078414551	 0.103597
H	-3.6125944966	-2.5606014512	 0.0465120793	 0.12031
H	-2.6658911162	-3.4642452313	 1.2297998101	 0.1127
H	-2.7295210347	-1.6516598249	 2.7451385857	 0.106848
H	-6.3123400952	 0.2105909656	 1.5608719496	 0.197906
14.8109	91.4893	111.5042	173.5247	207.0741	231.9297	249.7159	394.4002	428.1074	497.176	558.2728	577.4559	615.9663	661.7881	707.3556	767.0835	821.1744	872.1317	883.0916	944.3827	967.3366	978.5081	1026.3447	1039.808	1058.9488	1108.1769	1129.4582	1147.2654	1202.5884	1215.4953	1291.5538	1302.419	1305.4243	1321.5845	1349.5787	1360.2212	1379.1378	1407.4659	1415.9632	1473.4213	1485.5419	1495.9592	1504.5656	1508.3077	2231.761	2945.1264	3025.1571	3033.7522	3036.9056	3047.2241	3063.3414	3075.9395	3101.2533	3102.5432	3124.868	3126.0603	3503.1993
CCC1CCC(O1)C#C	CC[C@H]1CC[C@@H](O1)C#C	
InChI=1S/C8H12O/c1-3-7-5-6-8(4-2)9-7/h1,7-8H,4-6H2,2H3	InChI=1S/C8H12O/c1-3-7-5-6-8(4-2)9-7/h1,7-8H,4-6H2,2H3/t7-,8-/m0/s1
