18
gdb 125812	2.89194	1.31892	0.96625	3.3063	77.54	-0.2447	-0.0006	0.2442	1221.6674	0.147999	-401.939305	-401.930988	-401.930043	-401.972992	30.795	
C	 0.2355662304	 1.4332993547	 0.1016052628	-0.497787
C	 0.0246836849	-0.0451737492	 0.0523376022	 0.314773
N	-0.0192714264	-0.6711074523	-1.0991639308	-0.200172
O	-0.2260655494	-2.0152735545	-0.7960045895	-0.172851
C	-0.3051879182	-2.1463258817	 0.5361577052	-0.010383
C	-0.1507263086	-0.9472085981	 1.15580387	 0.085291
C	-0.1606720742	-0.6143180475	 2.5963166363	-0.133806
C	 0.123429813	-1.6615884956	 3.6444717586	-0.270418
C	 1.1314765749	-0.5720827538	 3.3923770194	-0.251847
H	 1.1190680193	 1.6820230113	 0.6985397319	 0.139034
H	 0.3677790127	 1.827980804	-0.9073661036	 0.150164
H	-0.6205998386	 1.9370595321	 0.5636285272	 0.135381
H	-0.476505251	-3.1473006431	 0.9009662426	 0.146472
H	-0.8913884568	 0.1404238268	 2.8768165574	 0.096303
H	-0.4543065546	-1.630522367	 4.5610544445	 0.117379
H	 0.3725994798	-2.6628881356	 3.3116002533	 0.115863
H	 2.0442983952	-0.8421826996	 2.873493749	 0.120497
H	 1.2468738178	 0.2094148689	 4.1349659535	 0.116108
47.9155	121.8212	150.1782	164.0066	266.1668	290.5171	407.447	476.6279	585.5928	620.1833	697.1082	713.0783	795.7284	827.9849	847.051	903.3403	917.5375	928.4076	944.6235	1028.8232	1061.2806	1065.9941	1084.8883	1089.2916	1130.2548	1156.0137	1175.3697	1199.2247	1229.3865	1298.2534	1382.3958	1409.2457	1431.7884	1468.1343	1477.6965	1480.7347	1501.8717	1536.7079	1657.1729	3039.5328	3094.0272	3129.6256	3136.7032	3140.3558	3142.346	3217.2896	3232.1558	3262.062
CC1=NOC=C1C1CC1	Cc1nocc1C1CC1	
InChI=1S/C7H9NO/c1-5-7(4-9-8-5)6-2-3-6/h4,6H,2-3H2,1H3	InChI=1S/C7H9NO/c1-5-7(4-9-8-5)6-2-3-6/h4,6H,2-3H2,1H3
