20
gdb 6833	3.30813	1.45711	1.28999	2.7007	70.56	-0.2459	0.0628	0.3086	1050.5709	0.175795	-386.123187	-386.114201	-386.113257	-386.156619	33.266	
C	-0.2802881125	 1.5703885561	-0.0774084773	-0.459117
C	-0.0723557035	 0.0631963096	 0.0465469402	 0.259022
C	-1.304935921	-0.7011489897	-0.440047566	-0.441823
C	 1.2491068553	-0.5051592401	-0.5317687792	-0.107737
O	 1.5638623249	-1.1735868488	 0.7089334362	-0.3085
C	 0.4681681246	-0.5075967658	 1.393719909	 0.087634
C	 1.0348459316	 0.4189066811	 2.4590004932	-0.077435
O	 1.810950867	-0.3317801307	 3.3742200631	-0.423488
H	 0.5968128763	 2.1406702263	 0.2396865678	 0.120573
H	-0.4889496911	 1.8385253289	-1.1193147271	 0.117758
H	-1.1351535671	 1.9036126498	 0.521424127	 0.120181
H	-1.5303722869	-0.4564050733	-1.4841572348	 0.114133
H	-1.152007062	-1.7828261186	-0.3713937711	 0.126002
H	-2.1853285393	-0.4460923672	 0.1604776936	 0.116927
H	 1.1536813789	-1.2131327928	-1.363413828	 0.101873
H	 2.0016440221	 0.2513600547	-0.791658492	 0.095311
H	-0.1849141224	-1.2460262239	 1.8768753735	 0.078475
H	 1.6345020946	 1.2164835183	 1.9940352372	 0.082312
H	 0.2287953329	 0.8932184709	 3.029982181	 0.105979
H	 2.4219682375	-0.846861525	 2.8319846939	 0.29192
67.7128	113.4129	168.2205	212.1673	252.6521	283.0677	315.7933	343.5549	364.6458	474.0605	481.7349	523.0481	641.6436	836.3903	862.0432	917.4451	935.3478	959.9511	982.2613	1017.601	1030.5459	1051.5836	1081.3939	1110.0747	1158.8072	1217.1964	1220.1777	1223.4237	1271.5092	1300.3698	1339.5947	1365.2584	1400.6361	1404.0895	1423.2007	1436.9037	1484.8245	1488.0228	1498.9561	1503.8606	1508.3563	1527.9361	2982.4268	3005.5852	3021.1736	3025.2588	3032.0718	3056.9333	3069.5475	3088.5765	3094.0619	3102.6316	3111.1817	3776.1171
CC1(C)COC1CO	CC1(C)CO[C@H]1CO	
InChI=1S/C6H12O2/c1-6(2)4-8-5(6)3-7/h5,7H,3-4H2,1-2H3	InChI=1S/C6H12O2/c1-6(2)4-8-5(6)3-7/h5,7H,3-4H2,1-2H3/t5-/m0/s1
