21
gdb 103512	2.91539	1.29172	1.22711	1.5058	83.26	-0.2382	0.0091	0.2472	1158.1876	0.182595	-387.090991	-387.082259	-387.081314	-387.12391	34.737	
C	-0.1451689897	 1.6419245157	 0.1542789536	-0.390877
C	-0.1028984385	 0.1143280822	 0.0494698538	-0.188252
C	 0.7075377789	-0.4149259264	-1.1431284728	 0.359035
O	 0.0519574664	 0.1108280197	-2.3080635234	-0.473003
C	 2.1829547932	-0.0415351156	-1.1532685703	-0.166768
C	 2.9702185834	-1.0971893552	-1.3837203445	-0.088317
C	 2.1935145004	-2.3680322386	-1.4498596525	-0.092013
C	 1.4809177763	-2.7328339195	-0.1590237503	-0.28783
C	 0.7534734735	-1.950727624	-1.2195701108	-0.092149
H	 0.8438597052	 2.0619759312	 0.3655998831	 0.109085
H	-0.5076800657	 2.0807399838	-0.7781897468	 0.135172
H	-0.8121382611	 1.954136939	 0.9637804265	 0.106405
H	 0.3021134798	-0.3180843514	 0.9697391651	 0.09513
H	-1.123794664	-0.2707221886	-0.0597598596	 0.102086
H	 0.62419403	-0.0762131427	-3.0600740359	 0.272884
H	 2.5187752322	 0.9784756428	-1.0106483048	 0.098243
H	 4.0515695567	-1.0665020771	-1.4643384825	 0.099114
H	 2.4800143452	-3.1568773575	-2.1362589884	 0.087315
H	 1.181951776	-3.7676807203	-0.0230411199	 0.110075
H	 1.8029037633	-2.2324208358	 0.7482615183	 0.114625
H	-0.0665413017	-2.4267112419	-1.7445690978	 0.09004
89.7637	151.4338	176.7434	233.6334	286.4859	338.7715	358.1829	382.2883	415.2929	443.1108	595.6801	628.2304	727.3982	773.2593	777.9244	801.9714	815.0297	858.6063	915.9068	960.2132	965.301	977.4522	995.3945	1021.9845	1059.2065	1072.2584	1073.403	1089.9159	1103.1578	1129.5112	1160.2598	1192.4584	1203.1121	1297.2365	1304.992	1338.4999	1359.8566	1379.4111	1398.8142	1404.9086	1474.0362	1479.1802	1498.2994	1510.7264	1654.2362	3036.3863	3039.1247	3080.3209	3100.4744	3122.2894	3129.4759	3168.9666	3180.9159	3185.7197	3210.9942	3214.2157	3807.7231
CCC1(O)C=CC2CC12	CC[C@@]1(O)C=C[C@H]2C[C@@H]12	
InChI=1S/C8H12O/c1-2-8(9)4-3-6-5-7(6)8/h3-4,6-7,9H,2,5H2,1H3	InChI=1S/C8H12O/c1-2-8(9)4-3-6-5-7(6)8/h3-4,6-7,9H,2,5H2,1H3/t6-,7+,8+/m0/s1
