21
gdb 91686	2.76973	1.2397	1.06239	3.1732	83.43	-0.2429	-0.0186	0.2243	1226.1259	0.183768	-387.093432	-387.085173	-387.084229	-387.126386	32.274	
C	 0.0851459901	 1.7059208237	-0.0594045625	-0.421176
C	 0.0748481664	 0.1913103791	 0.1350514914	 0.049451
C	 0.8288431297	-0.6345957547	-0.9669387375	-0.235474
C	 1.7857056487	-1.4445926305	-0.0698676261	-0.033585
C	 0.8491372613	-1.8678819956	 1.0962248248	-0.248035
C	 0.8380164411	-0.3390143985	 1.3745130231	-0.03993
C	 2.3306916777	-0.3121062653	 0.8738199411	-0.05547
C	 3.3725178142	-0.7133668549	 1.8739985802	 0.128558
O	 4.3787782507	-0.0771066062	 2.076206635	-0.26322
H	 1.1021162421	 2.1069808121	-0.1175523582	 0.12317
H	-0.4285765487	 1.9806239359	-0.9868749177	 0.117006
H	-0.4266847616	 2.2126728674	 0.7659428367	 0.114976
H	-0.9683344621	-0.1389563949	 0.2030627394	 0.072669
H	 0.1608619858	-1.2805437355	-1.5441924764	 0.098956
H	 1.3665878047	 0.0092393981	-1.6698314989	 0.102006
H	 2.4625780311	-2.1468031337	-0.5577477124	 0.070527
H	-0.1041079842	-2.3363840222	 0.8325203612	 0.092976
H	 1.3421107834	-2.4580981106	 1.8686864894	 0.106383
H	 0.5600654703	 0.0745315266	 2.3450552415	 0.068529
H	 2.6780428906	 0.6041221769	 0.3906561804	 0.08108
H	 3.1817008486	-1.6494477772	 2.4437033856	 0.070605
69.6383	154.5936	204.5684	240.5506	242.8157	313.2614	400.899	458.3368	484.9244	520.8971	631.4547	790.9763	820.9712	832.0879	859.9649	913.9557	918.0049	938.8191	954.7498	997.4377	1020.1213	1040.2644	1057.3321	1066.5722	1094.1402	1111.4865	1136.7194	1153.4463	1198.2199	1215.02	1234.3345	1243.6873	1266.877	1277.7005	1303.9957	1308.3433	1343.3656	1380.8672	1415.2547	1445.1737	1494.2845	1499.2245	1499.7012	1521.136	1813.4277	2880.0415	3028.0602	3031.1251	3049.517	3057.0317	3086.4823	3093.0938	3096.5739	3104.4767	3105.6867	3110.3137	3132.7514
CC1CC2CC1C2C=O	C[C@H]1C[C@@H]2C[C@H]1[C@H]2C=O	
InChI=1S/C8H12O/c1-5-2-6-3-7(5)8(6)4-9/h4-8H,2-3H2,1H3	InChI=1S/C8H12O/c1-5-2-6-3-7(5)8(6)4-9/h4-8H,2-3H2,1H3/t5-,6+,7+,8-/m0/s1
