17
gdb 113413	4.53574	0.99923	0.93899	2.3232	69.01	-0.2484	0.0675	0.3159	1256.6025	0.134536	-458.849585	-458.84164	-458.840696	-458.882555	30.152	
O	 0.0725391484	 1.335121366	-0.6178020033	-0.414013
C	 0.080982617	 0.1913336188	 0.2159013826	-0.078004
C	-1.2996953945	-0.3968936275	 0.3574071778	-0.136787
O	-1.7799245207	-1.088941052	-0.8402830641	-0.311124
C	-1.5550635553	-1.8300117747	 0.3159063463	 0.565338
C	-0.775937194	-3.1485193778	 0.474745932	-0.072177
C	-1.3159203281	-3.2331068684	 1.9248533569	-0.222077
C	-2.4904124393	-2.8451463334	 0.9916725099	-0.075186
O	-1.9991816137	-3.8574056972	 0.020859137	-0.310171
H	-0.2897324335	 1.0574857341	-1.4670947346	 0.295737
H	 0.7687205966	-0.5816571247	-0.1588096332	 0.093947
H	 0.4472964553	 0.5242743007	 1.193433635	 0.115451
H	-2.0479676548	 0.2616026636	 0.7992687823	 0.108993
H	 0.1790147899	-3.4677580311	 0.0602824268	 0.108141
H	-1.3792312544	-4.249990939	 2.3106821942	 0.11967
H	-0.9656304208	-2.5058219569	 2.6618198209	 0.10298
H	-3.5608288581	-2.8031193405	 1.1865486336	 0.109285
65.7757	118.2406	179.1288	211.2503	333.0873	397.6158	411.3841	483.2472	509.018	639.2197	697.9475	763.5224	787.491	820.3463	869.3292	910.7462	937.8979	983.107	999.2438	1027.628	1068.076	1081.7476	1098.3122	1120.9317	1143.9598	1151.3917	1171.3889	1210.3178	1221.3282	1242.0746	1259.893	1327.3136	1386.6644	1424.114	1473.7737	1489.1376	1550.08	2994.1453	3067.384	3071.2015	3116.5806	3136.8883	3141.3878	3161.3868	3799.6364
OCC1OC11C2CC1O2	OC[C@H]1O[C@]21[C@H]1C[C@@H]2O1	
InChI=1S/C6H8O3/c7-2-5-6(9-5)3-1-4(6)8-3/h3-5,7H,1-2H2	InChI=1S/C6H8O3/c7-2-5-6(9-5)3-1-4(6)8-3/h3-5,7H,1-2H2/t3-,4+,5-,6-/m1/s1
