19
gdb 97468	2.56142	0.81588	0.65292	3.1097	78.81	-0.2546	0.0185	0.2731	1726.9086	0.156808	-456.328435	-456.318029	-456.317085	-456.366345	34.92	
C	-0.7591002371	 0.6399308175	 0.0014134773	-0.315078
N	-0.0408354008	-0.616110702	 0.060498626	-0.203773
C	 0.3232304538	-1.1265564044	-1.0268091975	 0.135118
O	 0.9647917499	-2.3178998472	-1.0430247064	-0.210719
C	 1.5089520889	-2.7531561631	-2.2838275017	-0.080743
C	 1.4622466977	-4.2715692737	-2.3179155542	-0.093142
O	 0.1353336052	-4.7539010676	-2.46260456	-0.184897
C	-0.5844550409	-4.9345094073	-1.3301153585	 0.130624
N	-1.8071889828	-5.2298952224	-1.4138638313	-0.442188
H	-0.2259263001	 1.3944003858	 0.5906610205	 0.129401
H	-0.8972559658	 1.0307803389	-1.019860098	 0.098543
H	-1.7474993779	 0.5190646447	 0.4587888749	 0.13207
H	 0.1537564976	-0.6906782793	-2.0237453955	 0.079865
H	 0.932546518	-2.3487197516	-3.1250935405	 0.125354
H	 2.5499274094	-2.4131285692	-2.3737471602	 0.114327
H	 2.0187951039	-4.632506734	-3.1874155379	 0.12681
H	 1.9320216042	-4.6772995784	-1.4126845522	 0.12384
H	 0.0035279126	-4.8097402816	-0.4133669375	 0.10369
H	-2.1948537459	-5.356494725	-0.4812537674	 0.230897
18.1563	65.4984	75.0251	107.2844	152.8748	181.9405	208.5601	269.6702	307.4363	368.8001	415.8619	500.358	577.8096	618.3407	819.7136	882.333	928.8481	978.7895	997.6225	1037.172	1050.2829	1072.6235	1139.1343	1141.5669	1154.7061	1157.4715	1229.0164	1265.6952	1291.4804	1341.3513	1386.4482	1402.6194	1421.6507	1427.4335	1450.6915	1480.6561	1488.1293	1496.3128	1505.1981	1745.0784	1782.8339	2970.2896	2994.8101	3010.0014	3029.4143	3054.9611	3061.5741	3064.8509	3081.2791	3102.1143	3519.0886
CN=COCCOC=N	CN=COCCO[CH][NH]	
InChI=1S/C5H10N2O2/c1-7-5-9-3-2-8-4-6/h4-6H,2-3H2,1H3	InChI=1S/C5H10N2O2/c1-7-5-9-3-2-8-4-6/h4-6H,2-3H2,1H3
