14
gdb 35468	3.43732	1.56585	1.45438	3.0325	64.42	-0.2707	-0.0237	0.247	898.9763	0.102595	-436.676934	-436.670433	-436.669489	-436.707937	25.479	
N	-0.0732586185	-1.1739468443	-0.1648062389	-0.322863
C	-0.0458220467	-0.0253023759	-0.0438891772	 0.27795
C	-0.0038294473	 1.4358208695	 0.0554343442	-0.028244
O	-0.5073115304	 1.9019049953	 1.3048682062	-0.280193
C	 0.5811335111	 2.7290451668	 1.824813294	 0.13032
O	 1.1239512845	 3.3010421274	 0.6588439742	-0.217856
C	 1.458429462	 2.0504544569	 0.0467299316	-0.030921
C	 2.221910928	 1.3319910012	 1.1476159188	-0.098007
C	 1.6716137147	 1.7700858597	 2.2813703244	-0.065813
H	-0.5898833622	 1.8704111467	-0.7611670194	 0.141415
H	 0.1662705381	 3.4687892839	 2.5040567346	 0.113011
H	 1.9098314959	 2.1796665304	-0.933200817	 0.115649
H	 2.9469226692	 0.5461768337	 0.9953994629	 0.136342
H	 1.8351692716	 1.4413770687	 3.2971265118	 0.129211
115.1531	159.6821	316.9378	400.2812	477.5664	507.0108	571.3283	641.8987	716.1595	750.2111	798.857	831.5681	859.6572	866.3851	921.0164	943.6539	952.9906	969.4825	1012.8122	1045.0357	1079.5789	1150.3075	1208.1361	1242.6156	1269.2545	1306.856	1332.2804	1338.0029	1354.3596	1634.2504	2361.5769	3058.3018	3167.8672	3174.4494	3237.4356	3261.128
N#CC1OC2OC1C=C2	N#C[C@H]1O[C@@H]2O[C@H]1C=C2	
InChI=1S/C6H5NO2/c7-3-5-4-1-2-6(8-4)9-5/h1-2,4-6H	InChI=1S/C6H5NO2/c7-3-5-4-1-2-6(8-4)9-5/h1-2,4-6H/t4-,5+,6-/m0/s1
