19
gdb 19527	3.62228	1.65859	1.58058	0.6698	71.34	-0.2207	0.0873	0.308	926.8253	0.166646	-365.034812	-365.027189	-365.026244	-365.066855	28.74	
C	 0.0049264877	 1.574688812	-0.0880668216	-0.371291
C	-0.3546597652	 0.0907755527	-0.1338547769	-0.13323
N	 0.4552011885	-0.5851309391	-1.1494614339	-0.091675
C	 1.7595360373	-1.1637770097	-0.8601997413	-0.052426
C	 2.1181347783	-1.5201078204	 0.5712329282	-0.108111
O	 1.0211386313	-2.267550734	 1.0913503327	-0.25184
C	 0.3054839987	-2.8678734668	 0.0144117655	-0.105651
C	 0.594990952	-2.0300664093	-1.2177420373	-0.054387
H	 1.0444318605	 1.7186454393	 0.2253820093	 0.11423
H	-0.114138607	 2.0319389295	-1.0744644536	 0.123567
H	-0.635933861	 2.1041478722	 0.6237892998	 0.110974
H	-0.2598873071	-0.3532207139	 0.8655750412	 0.11595
H	-1.4011699823	-0.0232241669	-0.4410010166	 0.099944
H	 2.5649389388	-0.923977285	-1.5494272202	 0.093004
H	 3.0480912252	-2.1116513264	 0.5757547585	 0.097573
H	 2.2638973906	-0.6560145958	 1.2295252703	 0.112148
H	 0.6387698248	-3.9031589979	-0.1637908086	 0.096915
H	-0.7516730451	-2.8963457028	 0.3020816878	 0.111357
H	 0.462154594	-2.4878421279	-2.1947670431	 0.092949
73.0838	161.7389	202.3625	225.2459	266.6696	315.7338	471.6945	495.001	697.0268	732.8243	774.9773	816.0832	829.8089	889.8846	922.4858	950.2312	987.5603	1023.5683	1038.5384	1045.7638	1100.916	1115.3678	1133.3615	1142.9852	1180.8937	1225.3042	1242.2775	1304.0255	1306.4341	1316.4136	1350.5985	1367.4727	1383.2911	1407.7434	1437.6185	1488.9494	1497.908	1507.9809	1518.83	1520.0497	2971.656	2978.4772	3018.2567	3036.8341	3054.0888	3056.1251	3058.9105	3104.8726	3117.7951	3136.4919	3146.7423
CCN1C2COCC12	CCN1[C@H]2COC[C@@H]12	
InChI=1S/C6H11NO/c1-2-7-5-3-8-4-6(5)7/h5-6H,2-4H2,1H3	InChI=1S/C6H11NO/c1-2-7-5-3-8-4-6(5)7/h5-6H,2-4H2,1H3/t5-,6+,7?
