23
gdb 59639	2.77189	1.18021	1.05347	1.7584	81.54	-0.2437	0.072	0.3157	1287.4241	0.205122	-425.438099	-425.428147	-425.427203	-425.472967	37.275	
C	 0.0596096975	 1.4008856941	-0.2274233075	-0.393489
C	 0.1451945763	-0.1208047113	-0.04046841	 0.014001
C	 0.8764441363	-0.7776300038	-1.2192185443	-0.389136
C	 0.7824273322	-0.463153639	 1.315333122	 0.159265
C	 0.7349442051	-1.9587391938	 1.7374698043	-0.285231
C	 2.2063770523	-2.365718236	 1.9001905015	 0.131116
O	 2.6122915433	-2.9932833054	 0.6904886179	-0.431176
C	 2.8776577867	-1.0033442357	 2.1142306422	-0.10454
O	 2.1694507023	-0.1000055139	 1.2924029933	-0.263217
H	 1.0602086779	 1.8443818909	-0.2204067402	 0.130215
H	-0.4161423812	 1.6527767604	-1.1806864538	 0.105484
H	-0.5221132727	 1.8713119946	 0.5729752214	 0.103226
H	-0.879781409	-0.5168208523	 0.0036548859	 0.068018
H	 1.8807758677	-0.3580058424	-1.3217412183	 0.123119
H	 0.9891019074	-1.8568028923	-1.0895575638	 0.127991
H	 0.3325295577	-0.5970123306	-2.1519750904	 0.099194
H	 0.2806795588	 0.1391441107	 2.0901872178	 0.056902
H	 0.1959387775	-2.0762609507	 2.6807453151	 0.101164
H	 0.2547711622	-2.5973765202	 0.9939464584	 0.123678
H	 2.3651085733	-3.0365915069	 2.7563402043	 0.06408
H	 3.5702222112	-3.0858214141	 0.7030180991	 0.28131
H	 2.8139111216	-0.7178689684	 3.1794367941	 0.082173
H	 3.9325057457	-0.9862118639	 1.8182542011	 0.095852
62.5056	77.943	164.2674	194.0375	208.3752	244.2593	267.828	277.072	342.8307	390.5941	409.5121	452.1762	578.0851	676.7614	763.3767	796.9869	858.2816	878.9267	919.1121	936.1329	960.7488	972.8501	982.1666	1009.3809	1059.8986	1080.2407	1106.0276	1133.9069	1160.5785	1197.8601	1204.4063	1214.7469	1262.025	1311.019	1326.594	1336.4038	1351.5482	1358.807	1388.055	1395.9134	1400.2455	1417.7383	1426.4478	1478.698	1485.5005	1495.7721	1500.195	1505.6799	1512.7933	2946.0652	2956.5471	3001.5086	3001.9745	3030.1205	3044.1913	3063.7502	3074.2738	3095.1903	3107.8423	3113.3556	3123.5591	3127.502	3816.8032
CC(C)C1CC(O)CO1	CC(C)[C@H]1C[C@@H](O)CO1	
InChI=1S/C7H14O2/c1-5(2)7-3-6(8)4-9-7/h5-8H,3-4H2,1-2H3	InChI=1S/C7H14O2/c1-5(2)7-3-6(8)4-9-7/h5-8H,3-4H2,1-2H3/t6-,7-/m1/s1
