19
gdb 108608	2.96068	1.24275	0.89484	5.2249	85.32	-0.1983	0.0053	0.2036	1303.6125	0.159463	-419.239365	-419.229855	-419.228911	-419.273969	34.129	
C	 0.1604149564	 1.4617064572	 0.0662973912	-0.335408
N	-0.1487608515	 0.0586179445	-0.152185543	-0.37451
C	 0.5089193891	-0.6933589672	-1.088790293	 0.279934
C	 0.6531838013	-2.0347948371	-1.159028432	 0.084666
C	 0.1949444578	-3.087559201	-0.2018042076	-0.518466
C	 1.3634850678	-2.3462951917	-2.3927224941	 0.361861
N	 1.6930381348	-3.4952903659	-2.8180902267	-0.568006
O	 1.6498057899	-1.1648346821	-3.056638985	-0.258136
C	 1.1492409801	-0.0688766796	-2.3033956407	-0.175576
H	 1.1604960339	 1.6327694542	 0.4925119391	 0.124663
H	 0.0916678282	 2.0135673015	-0.8756517649	 0.144096
H	-0.580153715	 1.8858735674	 0.7482077995	 0.136239
H	-0.4260117883	-0.4498744406	 0.6743573808	 0.246294
H	-0.828205184	-3.4228358872	-0.41294479	 0.131406
H	 0.8437776861	-3.963220905	-0.2828896387	 0.158965
H	 0.2181428406	-2.7358001139	 0.8371831279	 0.101056
H	 2.1954314713	-3.419757832	-3.7025670373	 0.214215
H	 0.4292801495	 0.4975149106	-2.9105240772	 0.125377
H	 1.9780050019	 0.606004498	-2.0486688182	 0.121331
75.9239	95.7024	129.1151	171.1463	193.483	223.7547	258.8208	275.7666	371.0853	489.1259	554.6373	579.4452	613.8849	677.1445	721.4315	758.5686	834.681	905.2586	999.1228	1028.9298	1053.5359	1061.6458	1084.6341	1092.5284	1144.9877	1201.5734	1208.0751	1212.192	1305.0914	1390.1139	1400.4645	1433.5944	1470.8257	1476.9176	1486.8489	1493.0593	1497.2983	1508.1308	1522.5113	1718.8508	1756.6826	2988.6937	3003.0739	3015.5626	3031.0978	3062.9069	3081.7732	3118.8629	3124.0786	3490.098	3603.2641
CNC1=C(C)C(=N)OC1	CN[C]1C(=C([NH])OC1)C	
InChI=1S/C6H10N2O/c1-4-5(8-2)3-9-6(4)7/h7-8H,3H2,1-2H3	InChI=1S/C6H10N2O/c1-4-5(8-2)3-9-6(4)7/h7-8H,3H2,1-2H3
