16
gdb 104561	2.57845	1.21694	0.98623	1.5704	69.99	-0.2666	-0.0435	0.2231	1195.4748	0.122349	-437.900658	-437.891807	-437.890863	-437.934782	32.17	
O	 0.1163972643	 1.1994846809	-0.4773781518	-0.411987
C	-0.0681227571	-0.1360524327	-0.0755420034	-0.111308
C	-1.5544414438	-0.4882952264	 0.1449000343	 0.111056
C	-2.3838193287	-0.4260637462	-1.1865560194	-0.379845
C	-2.390240058	-1.9627115668	-1.189290684	 0.410941
O	-2.6999140433	-2.7880829322	-1.9931832867	-0.271803
C	-1.8010557067	-2.0358074836	 0.2321411134	-0.394783
C	-2.0857768897	 0.3052772139	 1.2439972059	 0.230173
N	-2.4719539602	 0.9640175307	 2.1130116097	-0.341457
H	-0.1161186521	 1.7738288928	 0.2614763017	 0.302432
H	 0.3156324147	-0.7595942114	-0.8904025723	 0.123362
H	 0.5010456416	-0.3829150414	 0.83256116	 0.115036
H	-3.3899049859	-0.0147754691	-1.0646167319	 0.155588
H	-1.8938133967	 0.0790825541	-2.021679903	 0.160292
H	-0.9136572458	-2.6605389752	 0.3657446623	 0.144823
H	-2.5504675927	-2.3229961174	 0.9746845051	 0.157479
50.8459	100.2091	158.3054	174.5848	241.1658	324.2741	378.8539	407.4524	432.6851	453.0382	514.286	581.6859	657.9805	690.4769	723.463	856.1957	893.2018	932.089	1002.7789	1032.2985	1088.8614	1103.5759	1113.106	1130.0002	1203.7651	1217.2036	1235.4518	1308.0271	1384.7838	1419.3709	1426.9067	1443.9283	1499.4236	1908.7844	2347.0252	3001.5296	3065.2145	3072.2127	3075.7035	3123.452	3131.8487	3799.0583
OCC1(CC(=O)C1)C#N	OCC1(CC(=O)C1)C#N	
InChI=1S/C6H7NO2/c7-3-6(4-8)1-5(9)2-6/h8H,1-2,4H2	InChI=1S/C6H7NO2/c7-3-6(4-8)1-5(9)2-6/h8H,1-2,4H2
