15
gdb 48972	4.03923	1.40636	1.24898	3.2318	66.81	-0.2297	-0.0372	0.1924	982.5856	0.112241	-457.718184	-457.711246	-457.710302	-457.74972	26.495	
O	-0.3286033197	 0.4766118353	-0.7001563185	-0.274747
C	 0.1274818836	 1.1077131648	 0.2262882279	 0.054548
C	 1.3502902251	 1.910953995	 0.125830143	 0.333236
O	 1.8001207232	 2.7342045888	 1.1978824214	-0.335019
C	 2.5237621618	 3.5651827031	 0.2316155256	 0.039159
C	 3.9549896118	 3.0556159869	 0.2101839821	-0.076065
O	 3.8236265093	 1.6874697999	-0.215981889	-0.254343
C	 2.5561234953	 1.5487001084	-0.7830652117	 0.052337
C	 1.8543268235	 2.8432282931	-0.9646900686	-0.239659
H	-0.3408975112	 1.1141426078	 1.234316202	 0.092083
H	 2.3698308335	 4.6313778397	 0.3941180242	 0.10264
H	 4.5858391818	 3.6182002733	-0.4939605125	 0.105146
H	 4.4088033338	 3.0680811858	 1.2041832231	 0.13205
H	 2.4408363242	 0.7144056854	-1.4624768295	 0.143734
H	 1.3605400338	 3.2443781627	-1.8385691796	 0.124898
116.7506	161.464	190.5422	271.3796	398.8562	461.8403	568.6171	669.2506	695.6841	733.4521	777.5892	850.7617	883.1425	894.2654	922.6137	963.939	991.1325	1012.737	1038.1544	1047.8273	1055.7299	1109.8443	1143.0374	1194.3866	1236.524	1257.2861	1263.4774	1304.3681	1355.58	1408.0147	1426.8412	1497.4603	1794.7486	2902.725	3001.0527	3105.0551	3129.9757	3211.4763	3220.4068
O=CC12OC3COC1C23	O=C[C@@]12O[C@H]3CO[C@@H]1[C@@H]23	
InChI=1S/C6H6O3/c7-2-6-4-3(9-6)1-8-5(4)6/h2-5H,1H2	InChI=1S/C6H6O3/c7-2-6-4-3(9-6)1-8-5(4)6/h2-5H,1H2/t3-,4-,5+,6-/m0/s1
