20
gdb 73133	2.50795	1.78106	1.53918	1.343	76.82	-0.2278	0.0667	0.2945	982.4107	0.172358	-403.113134	-403.105474	-403.10453	-403.144974	30.804	
C	 0.1755743856	 1.5357607404	-0.0494995204	-0.469564
C	 0.0116496778	 0.0311668036	 0.0322171159	 0.43205
O	-1.3059976308	-0.3294958922	 0.5515252423	-0.325391
C	-0.7298545302	-1.0285688249	 1.6726062218	-0.094953
C	 0.7053264579	-0.7625044094	 1.1801980915	-0.122651
C	 1.5036634862	-1.8961283037	 0.5069417646	-0.189023
N	 1.3003116648	-1.834605981	-0.9587164868	-0.099129
C	-0.0706192945	-2.0940265196	-1.4061841848	-0.251033
C	 0.3991111528	-0.6960348382	-1.2520862596	-0.071175
H	 1.1924364201	 1.7980096323	-0.360891832	 0.121972
H	-0.5244019872	 1.9538005928	-0.7806061866	 0.130829
H	-0.0261373901	 2.0015087065	 0.9187773396	 0.120388
H	-0.9915883488	-0.5482675694	 2.6234830836	 0.10162
H	-1.0379678642	-2.0816467422	 1.7129911774	 0.096925
H	 1.3191535579	-0.1772319236	 1.8668751179	 0.080898
H	 2.5748259001	-1.765564079	 0.6904163697	 0.109987
H	 1.2282388485	-2.8877387702	 0.8835605202	 0.106702
H	-0.1482666166	-2.533814037	-2.3966934412	 0.113357
H	-0.8101348771	-2.4477626081	-0.693289357	 0.124098
H	 0.6469519676	-0.0952463372	-2.123073136	 0.084092
96.653	211.968	227.9852	255.024	327.8538	371.4906	389.0467	506.9256	582.3458	657.3321	669.5336	775.8957	794.3692	848.0403	882.4494	888.6972	909.9536	938.7497	991.3226	1008.2008	1025.0477	1072.0431	1095.2324	1104.7991	1107.4233	1122.4433	1158.3535	1165.3663	1172.525	1230.3194	1241.4517	1243.3227	1288.0526	1332.3323	1335.0356	1355.7448	1391.6743	1406.5658	1482.3326	1490.7112	1498.9265	1511.1833	1526.1008	3006.298	3034.2288	3038.4561	3047.4222	3074.6536	3096.5808	3104.296	3109.8927	3117.0137	3141.0373	3195.6
CC12OCC1CN1CC21	C[C@]12OC[C@H]1CN1C[C@@H]21	
InChI=1S/C7H11NO/c1-7-5(4-9-7)2-8-3-6(7)8/h5-6H,2-4H2,1H3	InChI=1S/C7H11NO/c1-7-5(4-9-7)2-8-3-6(7)8/h5-6H,2-4H2,1H3/t5-,6+,7+,8?/m1/s1
