20
gdb 88511	2.25899	1.39849	1.17371	2.936	80.	-0.2446	-0.0265	0.2181	1172.0273	0.170001	-403.116361	-403.107191	-403.106246	-403.15041	34.385	
C	 0.0633586433	 2.1336596677	-0.0077877348	-0.426425
C	-0.1065769896	 0.6317122811	 0.059148375	 0.005233
C	 0.9922411955	-0.3117322009	-0.3639907566	-0.319762
C	 0.582949533	-0.2436064212	 1.0911617215	-0.105428
C	 1.4643864457	 0.2393838565	 2.2136016806	 0.213161
C	 0.7999881731	 0.5527352409	 3.5294865535	-0.262141
N	 1.6228688699	-0.6391990366	 3.4098315043	-0.350805
C	 2.7457504165	 0.9790635377	 1.9859686253	 0.141413
O	 3.1195606536	 1.4826885622	 0.9555833129	-0.270828
H	 1.0991820216	 2.4272463296	 0.1691120059	 0.151076
H	-0.2244788306	 2.5040869106	-0.9978908924	 0.116035
H	-0.5718269799	 2.6392580114	 0.7289631509	 0.107212
H	-1.1156229465	 0.298282272	-0.1733869197	 0.081645
H	 0.7362528323	-1.2072036058	-0.9201982751	 0.10581
H	 1.9421399024	 0.1339400118	-0.6282166803	 0.148029
H	-0.0352801122	-1.0741440562	 1.4284358799	 0.073101
H	 1.1971972483	 1.3273855673	 4.1807531819	 0.127183
H	-0.2832906643	 0.4626087849	 3.5366116439	 0.127327
H	 1.0467848575	-1.4682470661	 3.2889919964	 0.241415
H	 3.3602112004	 1.026856153	 2.9112063369	 0.096749
54.2066	123.4611	159.2772	196.7046	226.8589	267.2209	326.486	359.1103	372.4714	417.9908	529.1764	558.7573	730.9025	773.5871	794.8925	853.2711	892.1965	894.8974	943.7649	955.4985	976.4586	1044.5265	1051.0672	1075.5952	1088.9288	1102.1054	1123.5383	1139.6761	1154.1192	1205.8057	1229.7049	1252.5167	1294.5269	1383.7357	1388.6874	1404.6288	1424.7928	1447.0139	1488.9588	1503.9699	1506.5471	1508.1509	1817.9716	2903.6518	3030.3806	3083.2637	3103.1722	3103.5005	3122.5696	3142.9423	3146.5984	3190.0575	3244.1177	3507.87
CC1CC1C1(CN1)C=O	C[C@H]1C[C@H]1[C@]1(CN1)C=O	
InChI=1S/C7H11NO/c1-5-2-6(5)7(4-9)3-8-7/h4-6,8H,2-3H2,1H3	InChI=1S/C7H11NO/c1-5-2-6(5)7(4-9)3-8-7/h4-6,8H,2-3H2,1H3/t5-,6+,7-/m0/s1
