22
gdb 103298	2.47498	1.36235	1.31391	2.8394	82.06	-0.234	0.0698	0.3038	1144.769	0.193887	-404.264754	-404.255461	-404.254517	-404.298395	36.135	
C	 0.2405828852	 1.4092831558	-0.260201142	-0.523453
C	 0.0904607511	-0.0865451673	-0.1269600305	 0.25363
C	 0.5576497985	-1.2094537821	-1.0876584084	-0.221111
N	-0.0920660064	-2.0212488984	 0.0479247486	-0.197252
C	 0.6762972966	-1.0359704682	 0.9503876255	-0.215636
C	-1.2221590041	-0.9356467251	 0.0291786884	 0.307117
C	-2.086306468	-0.8405289407	 1.2878815414	-0.483298
C	-2.1883593604	-1.1347462907	-1.1527765291	-0.129604
O	-2.6618206098	-2.4727722554	-1.1648312532	-0.429639
H	 1.2961557202	 1.6940174294	-0.328397291	 0.122789
H	-0.2640764808	 1.7790063154	-1.1594935237	 0.123504
H	-0.190708932	 1.9270163695	 0.6034828145	 0.123366
H	 0.0929440378	-1.3256228877	-2.0648955035	 0.106216
H	 1.6345865298	-1.3814035251	-1.1613116106	 0.097693
H	 1.7560710707	-1.2062290072	 0.9293291775	 0.098808
H	 0.3249063767	-0.9767597614	 1.9782476435	 0.102814
H	-2.624490727	 0.1142397553	 1.285606566	 0.119209
H	-2.8314778617	-1.6405605644	 1.2603127745	 0.144889
H	-1.5491985685	-0.9134217286	 2.2322734812	 0.117497
H	-3.0643503548	-0.4910620421	-1.0171578481	 0.101193
H	-1.7485680279	-0.8629178301	-2.1201892249	 0.086473
H	-1.9033491253	-3.027780781	-0.9383769161	 0.294794
84.0411	125.6277	175.8549	185.7985	201.3827	280.0776	324.5996	412.1912	429.4796	459.5595	487.6392	554.3197	609.6984	648.0961	690.2274	774.8317	800.6147	891.3258	901.766	917.6407	942.1358	958.7188	999.6863	1036.843	1062.8758	1065.4575	1100.3143	1153.8585	1165.5527	1180.2813	1195.0771	1200.6935	1233.627	1249.0788	1275.7476	1329.089	1361.2983	1403.7517	1408.988	1443.511	1484.4144	1488.8388	1489.792	1498.8775	1518.8789	1541.921	1575.9461	3014.9686	3027.3634	3042.0278	3060.5238	3066.7308	3075.6447	3096.0776	3096.7835	3107.1307	3138.5889	3147.212	3162.2355	3751.4185
CC12CN(C1)C2(C)CO	C[C@@]12CN(C1)[C@]2(C)CO	
InChI=1S/C7H13NO/c1-6-3-8(4-6)7(6,2)5-9/h9H,3-5H2,1-2H3	InChI=1S/C7H13NO/c1-6-3-8(4-6)7(6,2)5-9/h9H,3-5H2,1-2H3/t7-/m1/s1
