13
gdb 129142	2.56883	1.82692	1.20327	5.973	72.31	-0.2454	-0.0806	0.1648	967.7643	0.09019	-448.884702	-448.877413	-448.876469	-448.916843	26.944	
N	 0.1062426787	 0.9862561089	-0.7853649879	-0.434458
C	-0.0611690719	-0.0426999859	-0.0682359961	 0.234963
N	 1.0394895303	-0.601400789	 0.6605538297	-0.175011
N	 1.4736701072	-1.7586572814	 0.5378739664	-0.055344
N	 0.8125593516	-2.6985251889	-0.2378391007	-0.24076
C	-0.5411351992	-2.8959537108	-0.4026050073	 0.038366
C	-1.5639749658	-2.0496367369	-0.1614327209	-0.205578
C	-1.4507953991	-0.6282725598	 0.1340247329	 0.361093
O	-2.3806014264	 0.0764906912	 0.4618301971	-0.315582
H	 1.0893887015	 1.2756001483	-0.7664224892	 0.237665
H	 1.385329102	-3.5277522572	-0.2879949351	 0.281105
H	-0.755130552	-3.9105003329	-0.7257200861	 0.142746
H	-2.5729779467	-2.4295840359	-0.2711579226	 0.130793
76.3647	119.0152	263.0759	315.5074	336.1735	408.4151	458.5784	517.757	599.0736	662.5201	686.717	748.0909	820.0349	844.7405	865.6132	912.5626	966.9161	975.6429	1002.5267	1057.3836	1225.647	1281.9023	1309.7171	1434.0296	1462.1342	1635.2209	1669.8594	1722.9314	1770.943	3177.6433	3209.8947	3427.5712	3624.5008
N=C1N=NNC=CC1=O	[NH][C]1N=NNC=CC1=O	
InChI=1S/C4H4N4O/c5-4-3(9)1-2-6-8-7-4/h1-2H,(H2,5,6,7,9)	InChI=1S/C4H4N4O/c5-4-3(9)1-2-6-8-7-4/h1-2H,(H2,5,6,7,9)
