19
gdb 103675	4.07845	0.87543	0.83731	2.7932	78.7	-0.2484	0.05	0.2984	1414.4413	0.156934	-422.977315	-422.967799	-422.966855	-423.011469	36.223	
O	-0.1278980945	 1.4856265482	-0.0351602115	-0.435129
C	 0.0132079961	 0.0735724459	 0.0996996816	-0.142745
C	-1.3928104188	-0.507421404	 0.0107100013	 0.434854
O	-2.2003765185	 0.0630560951	 1.0113428286	-0.490988
C	-1.9666248683	-0.518891811	-1.440024848	-0.290775
C	-1.5459867605	-2.020846724	-1.5547932193	-0.165969
C	-1.4188195045	-2.0512987001	 0.0042297573	-0.291519
C	-2.455361208	-2.9495295232	-2.191665448	 0.308818
C	-3.224840739	-3.7158124496	-2.7091047936	-0.444454
H	 0.6992844531	 1.9057488832	 0.2154920563	 0.295908
H	 0.660464149	-0.3407779671	-0.6875549745	 0.093048
H	 0.4437625475	-0.1897341701	 1.0769451609	 0.09788
H	-1.9817347824	 1.0043599015	 1.0242563124	 0.283064
H	-3.0525386356	-0.4163047074	-1.4111432335	 0.11904
H	-1.5461982545	 0.1800848131	-2.1654406915	 0.109002
H	-0.5562551672	-2.1028476952	-2.0159728991	 0.098944
H	-0.5643186263	-2.5834339535	 0.4305788503	 0.100569
H	-2.3390189958	-2.4075808917	 0.4702578246	 0.128749
H	-3.9022620718	-4.3916266801	-3.1688386342	 0.1917
68.8306	106.4005	156.6449	220.0581	235.1239	257.9027	332.4458	352.8559	415.3258	454.4178	476.6691	523.2857	547.4941	611.8772	621.2828	626.3344	742.5249	833.1589	860.9495	929.7387	948.7273	988.0418	1038.7922	1046.8969	1067.8508	1094.0336	1136.5514	1156.6229	1217.2884	1223.7324	1243.3242	1254.2271	1280.5704	1316.8594	1356.6452	1403.9401	1451.0033	1467.5407	1493.7815	1507.0796	2233.8639	2982.9881	3023.5146	3047.3493	3064.8711	3077.4713	3134.4687	3142.3484	3505.3877	3764.2348	3842.8386
OCC1(O)CC(C1)C#C	OC[C@@]1(O)C[C@@H](C1)C#C	
InChI=1S/C7H10O2/c1-2-6-3-7(9,4-6)5-8/h1,6,8-9H,3-5H2	InChI=1S/C7H10O2/c1-2-6-3-7(9,4-6)5-8/h1,6,8-9H,3-5H2/t6-,7+
