19
gdb 102686	2.63852	0.84147	0.77755	4.297	72.89	-0.2544	0.0133	0.2676	1524.8681	0.159367	-456.331713	-456.321826	-456.320881	-456.367997	34.954	
O	 0.0469331942	 1.2321332058	-0.3198655957	-0.419531
C	-0.1144991628	-0.15078449	-0.0284128887	-0.058565
C	-1.5946503552	-0.4688094003	 0.2437555566	-0.015125
C	-2.0967202678	 0.2222630304	 1.5230036004	-0.07636
O	-2.224571703	 1.6216455684	 1.3624422817	-0.424459
N	-2.3748316626	-0.0037832131	-0.9177523864	-0.31906
C	-2.922100611	-1.0601531428	-1.7558379712	-0.265584
C	-3.6229828319	-0.5016333724	-2.9168245965	 0.255842
N	-4.190358167	-0.0626651204	-3.8217783798	-0.292026
H	-0.5674875967	 1.3936516183	-1.0521731624	 0.291367
H	 0.2579334435	-0.7691749294	-0.8593810055	 0.09363
H	 0.4999556926	-0.3675266806	 0.8512477375	 0.113918
H	-1.7042898154	-1.554924301	 0.3851012715	 0.07262
H	-3.0950272762	-0.1514178101	 1.7787910396	 0.108166
H	-1.4245853886	-0.037525552	 2.3563842076	 0.09641
H	-1.3718226027	 1.9325360509	 1.0231072485	 0.29115
H	-3.0935634695	 0.6444929795	-0.6155529867	 0.250352
H	-2.1019923765	-1.6869663843	-2.1265255955	 0.158501
H	-3.6195148335	-1.7376643969	-1.2316627349	 0.138752
36.2476	59.3152	93.7335	143.5973	176.6314	242.7083	302.9086	316.2545	378.636	389.7881	475.5238	525.2516	554.9448	691.8615	779.0523	788.1309	819.5912	924.4151	944.4241	973.4395	987.3972	1036.1422	1072.3445	1103.6416	1140.0321	1146.2414	1211.1223	1235.1656	1246.5384	1307.2317	1346.8285	1376.8501	1397.5674	1398.4251	1431.1236	1467.0018	1483.7928	1491.5518	1498.964	1513.7873	2369.4615	2949.0889	2976.9767	2983.7856	2997.6107	3052.6824	3059.0344	3082.7379	3540.4546	3710.1217	3723.6783
OCC(CO)NCC#N	OCC(CO)NCC#N	
InChI=1S/C5H10N2O2/c6-1-2-7-5(3-8)4-9/h5,7-9H,2-4H2	InChI=1S/C5H10N2O2/c6-1-2-7-5(3-8)4-9/h5,7-9H,2-4H2
