19
gdb 105467	3.866	0.77976	0.71402	1.3313	77.5	-0.2632	0.0503	0.3135	1586.2745	0.15671	-422.968068	-422.958304	-422.95736	-423.003401	35.709	
O	 0.0033674969	 1.555950049	-0.0262308672	-0.417291
C	 0.0675680632	 0.2192528805	 0.4130517228	-0.132443
C	-1.269523601	-0.499202911	 0.2568456206	 0.371967
C	-1.2729418359	-1.9991339467	 0.4797158252	-0.278601
C	-0.655128223	-2.7795177719	-0.7037914631	-0.352922
C	-0.6942423032	-4.2211298408	-0.4976245994	 0.293895
C	-0.7389095247	-5.4057524978	-0.299190558	-0.436548
C	-2.502622751	 0.2824317269	 0.4117072383	-0.228691
O	-2.0072792391	-0.050782998	-0.8984674884	-0.291257
H	-0.4824580682	 1.5302263813	-0.8619658355	 0.292694
H	 0.8479888452	-0.342155849	-0.1269110125	 0.093964
H	 0.3533972283	 0.2325299431	 1.4711963316	 0.118487
H	-0.7247434419	-2.2312916763	 1.4002063403	 0.117411
H	-2.2993257304	-2.3470242845	 0.6259659363	 0.119785
H	-1.2032535685	-2.5156039701	-1.6156868663	 0.151288
H	 0.3829540974	-2.465405156	-0.8658122837	 0.13341
H	-0.7717860632	-6.4548288718	-0.1393380325	 0.195381
H	-3.4248966381	-0.2215324225	 0.6942468435	 0.118363
H	-2.4357947126	 1.3367166657	 0.6677703879	 0.131109
55.3738	75.8643	95.4209	152.3608	214.1325	264.3392	330.0892	351.871	366.2281	436.382	497.7309	502.2551	608.1473	619.2378	642.9749	721.8591	759.8805	844.0532	901.841	939.4422	966.418	1019.2548	1028.1787	1066.5367	1101.8121	1130.1433	1161.9178	1181.3422	1234.6538	1255.8769	1284.0094	1316.0106	1368.9565	1372.4839	1424.3832	1441.9491	1473.5277	1486.823	1504.6474	1518.7841	2240.1813	2968.6995	3033.0933	3045.9901	3061.5067	3066.8942	3097.5917	3099.3811	3194.4329	3507.3008	3755.6493
OCC1(CCC#C)CO1	OC[C@@]1(CCC#C)CO1	
InChI=1S/C7H10O2/c1-2-3-4-7(5-8)6-9-7/h1,8H,3-6H2	InChI=1S/C7H10O2/c1-2-3-4-7(5-8)6-9-7/h1,8H,3-6H2/t7-/m0/s1
