14
gdb 25008	5.07243	1.35077	1.07394	2.1104	68.49	-0.2127	-0.0123	0.2004	1026.7965	0.104615	-432.940722	-432.934089	-432.933145	-432.971888	25.537	
O	-0.0018633934	 0.0098454967	 0.0041358727	-0.347167
C	-0.0233435185	 1.2129433696	 0.010606877	 0.415782
C	-1.2875164076	 2.1192095186	 0.0325442959	-0.324778
N	-0.7062274852	 3.4426115431	 0.0315223227	-0.031304
C	-1.0461916907	 4.7889324176	 0.0430007951	-0.148997
C	 0.154376939	 5.4469698228	 0.0301095194	-0.091208
N	 1.2329087744	 4.562867401	 0.0108346752	-0.38425
C	 0.6503767662	 3.3998687333	 0.0128110307	 0.500926
N	 1.0617973764	 2.0715798984	 0.0003553213	-0.44544
H	-1.9026260895	 1.9170963307	-0.8496539858	 0.161414
H	-1.8784202873	 1.907830544	 0.9290015657	 0.161417
H	-2.0669307867	 5.1295170514	 0.0586472399	 0.134253
H	 0.3195089495	 6.5129778411	 0.0333790386	 0.114617
H	 2.0193690034	 1.7625220516	-0.0143203385	 0.284736
102.7343	173.7347	298.1675	355.3106	458.07	544.9061	569.3689	580.6313	617.9723	698.0759	741.2769	751.1452	835.5002	846.7396	856.5713	953.9006	1004.7898	1088.8962	1124.0944	1166.6289	1191.5839	1248.073	1289.408	1292.8919	1322.7589	1403.1607	1471.1049	1504.2851	1528.7658	1652.9802	1863.1043	3057.0328	3100.7189	3258.9061	3292.229	3675.3659
O=C1CN2C=CN=C2N1	O=C1Cn2ccnc2N1	
InChI=1S/C5H5N3O/c9-4-3-8-2-1-6-5(8)7-4/h1-2H,3H2,(H,6,7,9)	InChI=1S/C5H5N3O/c9-4-3-8-2-1-6-5(8)7-4/h1-2H,3H2,(H,6,7,9)
