19
gdb 51882	3.91266	0.89874	0.77272	1.9128	72.19	-0.2559	-0.0297	0.2262	1435.7519	0.159408	-460.169451	-460.16084	-460.159895	-460.203909	31.24	
O	-0.6127770403	 0.7531812841	 0.6984925011	-0.236514
C	 0.1147401195	 0.9636313824	-0.2364288578	 0.161993
C	 1.3453862918	 1.8443264409	-0.2001461222	-0.300302
C	 1.2944688231	 2.9559164866	-1.2604024162	-0.024221
C	 0.2222016874	 4.0116722733	-0.9480209915	-0.088492
O	 0.2687974548	 5.066947244	-1.8960081104	-0.233305
C	 1.5398033275	 5.6585222373	-1.9349177303	 0.013887
O	 2.54767789	 4.7561935753	-2.3104720005	-0.234409
C	 2.6414263886	 3.6811220779	-1.3897675329	-0.098693
H	-0.0842829888	 0.5036678564	-1.2334664777	 0.077104
H	 1.4569061363	 2.2498255416	 0.810494669	 0.123462
H	 2.2121968455	 1.1984688922	-0.4048875161	 0.122469
H	 1.0596820615	 2.5187377742	-2.2394557966	 0.096618
H	-0.7880254948	 3.5954120356	-0.9906727555	 0.122956
H	 0.3813904109	 4.4082484444	 0.0703995222	 0.094803
H	 1.5081501007	 6.4392139241	-2.6967717089	 0.121848
H	 1.7798192722	 6.0945706792	-0.9451851637	 0.075902
H	 2.9577696435	 4.0560085213	-0.4001466894	 0.090643
H	 3.4219059905	 3.0125323694	-1.7642948126	 0.114252
47.2739	65.8117	138.0483	207.7773	257.2991	310.1675	381.7557	426.2035	465.4862	474.3423	540.2895	666.4988	800.0197	894.8875	909.0634	950.015	959.521	998.6099	1019.608	1065.4266	1075.1616	1122.0277	1137.7208	1180.0722	1195.8204	1225.6895	1237.252	1272.499	1321.9131	1331.6647	1348.3982	1364.2676	1384.827	1423.3351	1429.887	1443.438	1462.343	1492.0736	1494.4234	1511.0877	1836.9379	2853.7908	2912.5621	2950.532	2959.4463	3008.5191	3032.7819	3084.3014	3088.939	3091.94	3120.115
O=CCC1COCOC1	O=CCC1COCOC1	
InChI=1S/C6H10O3/c7-2-1-6-3-8-5-9-4-6/h2,6H,1,3-5H2	InChI=1S/C6H10O3/c7-2-1-6-3-8-5-9-4-6/h2,6H,1,3-5H2
