21
gdb 101087	2.21878	1.24773	1.04529	3.1277	79.75	-0.257	-0.0294	0.2275	1288.4947	0.180572	-424.233022	-424.223163	-424.222218	-424.267626	36.709	
C	-0.1432046897	 1.6373647206	 0.150866621	-0.381848
C	-0.1034177273	 0.1146819335	 0.2972633071	-0.198695
C	-1.4137816332	-0.5515434329	-0.1586610865	 0.035416
O	-1.7266653146	-0.2442366067	-1.5078050142	-0.444833
C	-1.4080741775	-2.0629176131	 0.0689705923	 0.266637
C	-1.6556323271	-2.6140176464	 1.4664990951	-0.309216
C	-2.7170407653	-2.7675637643	 0.4347430457	-0.312833
C	-0.5273142203	-2.8663032447	-0.8056556721	 0.114823
O	 0.1013425388	-2.4329213775	-1.7474534963	-0.295567
H	 0.813204428	 2.0867835015	 0.4340897333	 0.107767
H	-0.3649303877	 1.9162284898	-0.8822120183	 0.132793
H	-0.9204203816	 2.0761965018	 0.7872250482	 0.108044
H	 0.7229665056	-0.2985643715	-0.2922583075	 0.113095
H	 0.0880717894	-0.1598564582	 1.3423034919	 0.088757
H	-2.2378714805	-0.1279450327	 0.4318082962	 0.076152
H	-1.0426321041	-0.6739145934	-2.0401297315	 0.29297
H	-1.098124808	-3.4929449813	 1.7738881313	 0.124787
H	-1.7917906975	-1.875639439	 2.2491510191	 0.132251
H	-3.5924683074	-2.1297591878	 0.4747375371	 0.140658
H	-2.898249089	-3.7537935081	 0.0208024778	 0.127358
H	-0.487235161	-3.9512134797	-0.5538400296	 0.081485
85.7761	103.4828	144.3368	164.2898	209.9093	232.2933	268.1074	289.7625	329.3709	425.9167	480.0893	489.614	555.3165	569.1673	775.	781.675	831.7693	848.7034	907.7744	931.1272	965.493	987.4869	997.0277	1046.1029	1063.3048	1071.5197	1090.6426	1118.6337	1135.2329	1195.0092	1244.8206	1271.5657	1322.4421	1341.4381	1361.217	1388.2878	1406.2433	1440.1355	1451.4176	1467.5057	1487.1708	1494.5666	1496.9735	1509.2475	1787.4405	2866.9177	3011.4363	3028.2077	3034.5303	3071.5479	3100.7196	3125.6052	3132.039	3138.032	3213.2031	3229.3501	3746.0508
CCC(O)C1(CC1)C=O	CC[C@@H](O)C1(CC1)C=O	
InChI=1S/C7H12O2/c1-2-6(9)7(5-8)3-4-7/h5-6,9H,2-4H2,1H3	InChI=1S/C7H12O2/c1-2-6(9)7(5-8)3-4-7/h5-6,9H,2-4H2,1H3/t6-/m1/s1
