20
gdb 88229	3.88862	0.71613	0.65588	1.3354	92.11	-0.2315	0.0399	0.2714	1772.7172	0.170466	-365.948495	-365.938929	-365.937985	-365.984854	34.723	
C	-0.3857915066	 1.4146985959	 0.0584606683	-0.396816
C	 0.0070401373	-0.0402935293	 0.0414579184	 0.021019
N	 1.4029205864	-0.3475290533	-0.2817444644	-0.322437
C	 0.8974120881	-0.6476099201	 1.0856222669	-0.262294
C	 1.4371792041	 0.1035834531	 2.1842487935	 0.127203
C	 1.8680562507	 0.711164851	 3.1336931248	 0.109691
C	 2.3997189645	 1.4291654161	 4.2547961732	-0.158263
C	 1.9700740903	 2.8635421929	 4.5229551224	-0.250868
C	 1.5087038889	 1.7710064454	 5.4401884967	-0.251981
H	 0.408293449	 2.0187951002	 0.5021113483	 0.139317
H	-0.5664522391	 1.7755496203	-0.9596146184	 0.118287
H	-1.3024707266	 1.5615080265	 0.6396421401	 0.114794
H	-0.7519621051	-0.7157591918	-0.3529096504	 0.083667
H	 1.4666366251	-1.2147157427	-0.8091846428	 0.231383
H	 0.7034749682	-1.6954847128	 1.3091459084	 0.100934
H	 3.4329418008	 1.1978200827	 4.4983033163	 0.109811
H	 2.7314527563	 3.5506327274	 4.8744436607	 0.118025
H	 1.2484199506	 3.2957606178	 3.8403823144	 0.125958
H	 0.4728389085	 1.4591471328	 5.3819225026	 0.125151
H	 1.9496818085	 1.700389198	 6.428130741	 0.117419
17.5551	66.4386	96.6151	165.2575	181.812	219.4591	319.1042	385.2444	427.6309	491.3113	546.8792	588.4097	701.7404	769.7204	792.2674	821.1928	838.2374	890.3993	894.9911	931.7507	980.2194	1006.0321	1049.0199	1062.2658	1079.4409	1086.8377	1117.9529	1141.0552	1168.6675	1200.4822	1202.3701	1226.9031	1249.2557	1269.4683	1381.0069	1397.4052	1424.4318	1455.1078	1466.1048	1487.4335	1494.9639	1497.7011	2355.4683	3037.2787	3098.981	3101.521	3114.6174	3136.5295	3140.2422	3140.6861	3146.3433	3225.1678	3240.2649	3498.622
CC1NC1C#CC1CC1	C[C@H]1N[C@H]1C#CC1CC1	
InChI=1S/C8H11N/c1-6-8(9-6)5-4-7-2-3-7/h6-9H,2-3H2,1H3	InChI=1S/C8H11N/c1-6-8(9-6)5-4-7-2-3-7/h6-9H,2-3H2,1H3/t6-,8+/m1/s1
