18
gdb 78652	2.92104	1.55688	1.18423	2.3161	76.5	-0.2315	-0.0028	0.2287	1081.853	0.146558	-401.911221	-401.902986	-401.902042	-401.943704	31.439	
C	-0.1976587883	 1.4223479192	 0.0009157406	-0.404201
C	 0.0653573995	-0.0641098177	-0.1334776547	 0.067735
C	 1.3128026678	-0.4812824286	-0.9386860329	-0.224393
C	 2.0497207124	-0.5113914126	 0.4541863416	-0.097944
N	 0.7401774901	-0.5929978412	 1.1212388067	-0.178709
C	 1.4299246537	-1.8689726685	 0.7222659015	 0.196982
C	 1.7160858133	-2.9063969731	 1.7577210463	-0.50797
C	 1.2853150794	-2.0142085649	-0.7693744468	 0.398881
O	 1.3679061768	-2.9447835798	-1.5204509563	-0.336588
H	 0.7219593189	 1.9688266342	 0.2323588662	 0.122068
H	-0.6103360822	 1.8228664528	-0.9304443087	 0.121161
H	-0.9165290911	 1.6074357254	 0.8051738722	 0.131203
H	-0.8604334873	-0.6001418408	-0.3788119839	 0.085527
H	 1.6265771016	-0.0219753485	-1.8724872884	 0.094153
H	 2.9582330148	-0.0815344576	 0.8527485705	 0.118065
H	 2.0451766641	-2.4408355959	 2.6901715381	 0.136261
H	 0.818206762	-3.494342955	 1.9725528519	 0.139311
H	 2.4939830544	-3.5911992273	 1.4075459763	 0.138459
136.2479	155.9853	194.7527	213.5902	239.0946	259.6719	315.7485	474.6381	475.9781	608.2345	687.5902	760.158	766.2922	792.6577	821.7389	860.1217	882.3886	909.8904	921.9845	1025.8168	1037.6856	1055.1293	1080.1965	1095.4118	1109.653	1150.2834	1175.8652	1211.5836	1243.4621	1284.1465	1380.6237	1390.6418	1410.9098	1433.3962	1479.7849	1488.1705	1490.7078	1492.4509	1877.1392	3027.4656	3037.2276	3044.0333	3110.1348	3110.8065	3112.4074	3125.6747	3157.9251	3216.1434
CC1C2C3N1C3(C)C2=O	C[C@H]1[C@H]2[C@H]3N1[C@@]3(C)C2=O	
InChI=1S/C7H9NO/c1-3-4-5-7(2,6(4)9)8(3)5/h3-5H,1-2H3	InChI=1S/C7H9NO/c1-3-4-5-7(2,6(4)9)8(3)5/h3-5H,1-2H3/t3-,4-,5+,7+,8?/m0/s1
