17
gdb 71086	3.22793	1.54712	1.42597	1.8965	71.38	-0.2347	-0.0163	0.2184	963.5815	0.136358	-421.805196	-421.79814	-421.797196	-421.836405	28.553	
C	-0.0195270141	 1.4788670743	 0.0456879753	-0.504019
C	-0.0516514103	-0.0177356066	-0.0307686823	 0.413278
C	 0.7922005716	-0.7849684333	-1.0820126386	-0.250262
C	 0.1235323782	-2.1525311503	-0.7978492013	-0.224551
C	-0.3824723891	-1.7952151799	 0.688064539	 0.107874
O	 0.3785668784	-0.7025856766	 1.1928981166	-0.320516
C	-1.3957581591	-0.8694293765	-0.0550480109	-0.263943
C	-1.3125525246	-1.8272569484	-1.2334565529	 0.440947
O	-2.0865839078	-2.2650204481	-2.0342850247	-0.327793
H	 1.0094287378	 1.8247743657	 0.1915690642	 0.136395
H	-0.401509027	 1.9157305386	-0.8820251363	 0.131527
H	-0.6264593186	 1.8403224449	 0.8798246193	 0.135434
H	 0.6542832955	-0.4474080456	-2.1127326229	 0.114335
H	 1.8504557853	-0.7462097768	-0.8155778019	 0.117098
H	 0.6303186462	-3.0741275529	-1.0695859441	 0.091992
H	-0.6265616331	-2.5863893786	 1.3922205517	 0.106006
H	-2.3006737195	-0.45066104	 0.3768831899	 0.0962
137.1856	203.3598	247.0743	290.0873	402.8673	454.3574	546.6517	560.7787	621.8222	690.8056	715.2715	785.9973	803.478	829.6838	852.4697	898.9068	927.3892	966.5783	994.997	1003.5349	1028.9915	1077.6343	1094.5662	1134.7142	1141.871	1161.4411	1177.6364	1212.2641	1249.2929	1272.1649	1304.4409	1349.028	1416.5014	1477.5212	1486.3414	1490.1074	1894.3957	3039.7062	3065.4369	3110.2789	3122.9615	3124.6744	3156.134	3163.8898	3168.8586
CC12CC3C(O1)C2C3=O	C[C@@]12C[C@H]3[C@@H](O1)[C@@H]2C3=O	
InChI=1S/C7H8O2/c1-7-2-3-5(8)4(7)6(3)9-7/h3-4,6H,2H2,1H3	InChI=1S/C7H8O2/c1-7-2-3-5(8)4(7)6(3)9-7/h3-4,6H,2H2,1H3/t3-,4+,6-,7+/m1/s1
