18
gdb 49595	2.67255	1.73704	1.39067	2.28	74.02	-0.2346	-0.0239	0.2107	972.4295	0.14867	-401.909844	-401.9024	-401.901456	-401.942252	29.018	
O	-0.7413453662	 1.0738489604	 0.5047851152	-0.245677
C	 0.1981443241	 1.0617712695	-0.247952537	 0.157938
C	 1.4328445643	 1.9402280089	-0.1429810663	-0.140328
C	 1.4703580433	 2.9783600098	-1.2862885066	-0.065542
C	 0.3472192858	 3.9873019454	-1.3703304706	-0.308157
C	 1.6127082751	 4.3288017291	-0.6223992912	 0.013543
N	 1.7447577825	 4.1872111197	 0.8265642848	-0.111757
C	 0.5650931586	 3.7230676829	 1.570310842	-0.242951
C	 1.5989158781	 2.74872978	 1.1444228235	-0.025007
H	 0.2080368789	 0.3878043298	-1.1356322759	 0.078627
H	 2.2991468096	 1.2783854809	-0.2696817827	 0.097406
H	 2.0119862432	 2.7193533316	-2.1885638428	 0.096397
H	 0.2058953715	 4.4798525395	-2.3267510269	 0.11775
H	-0.578984745	 3.8008752107	-0.8403844585	 0.131828
H	 2.2627079444	 5.0904812397	-1.037720747	 0.101193
H	 0.5401534426	 4.0445998161	 2.6079426892	 0.116919
H	-0.4060358482	 3.7027913855	 1.0931351292	 0.131445
H	 2.2860228775	 2.3480376705	 1.8849414816	 0.096373
47.4439	151.3728	192.1819	295.0249	348.5297	431.4767	499.3599	637.0242	662.3946	702.2	729.8387	791.5807	816.1556	831.8505	856.343	933.8713	947.8479	983.2573	1014.6312	1034.6753	1057.0383	1060.8476	1087.2233	1094.9011	1113.8918	1123.0616	1137.6888	1162.7847	1204.3141	1257.1301	1284.8303	1319.7563	1331.8142	1368.1584	1389.4372	1430.9867	1479.2536	1527.1384	1828.4098	2863.5318	3030.3971	3125.9968	3137.748	3140.7411	3168.3754	3177.0455	3219.7205	3229.1093
O=CC1C2CC2N2CC12	O=C[C@H]1[C@H]2C[C@H]2N2C[C@@H]12	
InChI=1S/C7H9NO/c9-3-5-4-1-6(4)8-2-7(5)8/h3-7H,1-2H2	InChI=1S/C7H9NO/c9-3-5-4-1-6(4)8-2-7(5)8/h3-7H,1-2H2/t4-,5+,6-,7+,8?/m1/s1
