18
gdb 66294	1.90731	1.78201	1.39411	1.4549	72.26	-0.2301	-0.057	0.1731	1039.2442	0.146858	-439.11511	-439.106168	-439.105224	-439.148903	32.571	
C	-0.1211910316	 1.7659572999	 0.3834190023	-0.456034
C	 0.0788440236	 0.2810883304	 0.068173936	 0.062151
C	 0.8809647838	-0.0857367766	-1.1995004635	-0.220499
N	 1.5228212153	-1.3851694319	-0.9401070408	-0.29608
C	 1.8849747158	-1.3787986062	 0.474991515	-0.278257
C	 0.9280865289	-0.4062730294	 1.1795822594	 0.365268
O	 0.8448381269	-0.1830047154	 2.3566437572	-0.309786
C	-1.2661583562	-0.4407312627	 0.0755758166	 0.134537
O	-1.5615504023	-1.3521116262	-0.6563366703	-0.254795
H	 0.8358102239	 2.2944067379	 0.3531814531	 0.130902
H	-0.7948887	 2.2422399735	-0.3357030379	 0.125556
H	-0.5365910082	 1.885944781	 1.3880533248	 0.146063
H	 0.2483480302	-0.1546542367	-2.0858274724	 0.12454
H	 1.6500237071	 0.6755411514	-1.3812636131	 0.106851
H	 0.8244127081	-2.1035469659	-1.0994891025	 0.239852
H	 1.8437651279	-2.3724863905	 0.9287358736	 0.140691
H	 2.9072465945	-1.000066187	 0.6215389897	 0.13812
H	-1.9783552875	-0.0643082155	 0.8415162926	 0.10092
80.5762	93.2003	167.2356	192.2632	207.2815	259.0832	288.7028	341.9487	473.0789	514.9543	556.8309	609.0637	655.3867	729.2332	815.0937	861.9715	911.8621	937.4666	958.7919	993.9562	1057.1833	1080.9048	1107.6521	1117.3528	1173.2378	1209.7553	1239.8748	1293.3646	1315.9615	1357.6515	1401.474	1423.3379	1460.233	1481.8365	1487.3616	1494.7581	1496.0943	1796.9132	1850.8953	2901.2514	3007.1505	3029.2042	3040.6678	3099.9512	3112.3088	3120.7046	3122.6228	3535.3606
CC1(CNCC1=O)C=O	C[C@]1(CNCC1=O)C=O	
InChI=1S/C6H9NO2/c1-6(4-8)3-7-2-5(6)9/h4,7H,2-3H2,1H3	InChI=1S/C6H9NO2/c1-6(4-8)3-7-2-5(6)9/h4,7H,2-3H2,1H3/t6-/m0/s1
