18
gdb 97791	2.9433	0.73011	0.64106	3.0786	84.18	-0.2419	-0.028	0.2139	1784.1386	0.145483	-401.90496	-401.895061	-401.894117	-401.942782	34.181	
C	 0.0359956796	 1.3800946019	-0.3969349834	-0.364974
C	-0.086456598	 0.1904821449	 0.5733141101	-0.318789
C	-1.3834045427	-0.4732304007	 0.5014821523	 0.132312
C	-2.4611008899	-1.0049835514	 0.4136756706	 0.101447
C	-3.7509067276	-1.6382310211	 0.3642438648	-0.254935
N	-4.4502826469	-1.6997484502	-0.9247323486	-0.318242
C	-3.9982089542	-2.9647618912	-0.3223347948	-0.118906
C	-2.8926718479	-3.6560801208	-1.0453413501	 0.181643
O	-2.6949431012	-4.842878974	-0.9772293342	-0.258506
H	 1.0230328631	 1.8428477465	-0.306502565	 0.117127
H	-0.098953733	 1.0530188142	-1.4312085419	 0.132895
H	-0.7223212153	 2.137324403	-0.1810602559	 0.130014
H	 0.706211549	-0.53906413	 0.3637231648	 0.134858
H	 0.0848684578	 0.5343091785	 1.6013761755	 0.132868
H	-4.3620337425	-1.4909787576	 1.2534116992	 0.119226
H	-5.4516819954	-1.5893070968	-0.7886289056	 0.2476
H	-4.7182631209	-3.6296493031	 0.1480672533	 0.108941
H	-2.262301604	-2.9787094821	-1.6580860011	 0.09542
7.7429	59.9634	91.1006	120.4312	192.8551	222.7127	270.4489	309.2561	370.0975	443.5257	474.3801	543.7819	582.6513	718.9347	785.3285	815.5914	880.9612	917.2384	962.6562	986.0565	1041.6849	1074.6322	1101.2437	1104.8178	1139.6245	1182.0035	1213.8483	1245.685	1285.1734	1349.802	1361.517	1409.8847	1413.2568	1445.3144	1473.7027	1494.6831	1505.474	1825.3096	2365.6999	2925.4259	3022.2218	3046.7437	3050.2697	3115.544	3120.9014	3126.889	3151.3104	3511.2473
CCC#CC1NC1C=O	CCC#C[C@H]1N[C@H]1C=O	
InChI=1S/C7H9NO/c1-2-3-4-6-7(5-9)8-6/h5-8H,2H2,1H3	InChI=1S/C7H9NO/c1-2-3-4-6-7(5-9)8-6/h5-8H,2H2,1H3/t6-,7+/m1/s1
