16
gdb 61359	2.89584	0.89367	0.75067	3.5468	71.25	-0.2721	-0.0915	0.1807	1467.9718	0.120481	-437.918642	-437.908828	-437.907884	-437.954858	33.152	
C	-0.2756362719	 1.726668175	 0.2043555587	-0.417463
C	 0.0002515809	 0.2356231467	-0.0562436889	-0.091942
C	 0.7949023456	-0.4443868413	 1.0588330612	-0.312309
C	 2.2687134454	-0.1270352001	 1.0260510413	 0.283145
O	 2.8298785169	 0.5160182349	 0.1741506229	-0.269222
C	 3.0440614665	-0.690940866	 2.1544668181	 0.23728
N	 3.6394781526	-1.1321139465	 3.0419896436	-0.291487
C	-1.294549874	-0.506936583	-0.3344081014	 0.151311
O	-1.6090166714	-1.5592354399	 0.159154423	-0.243448
H	 0.6635389353	 2.2804330567	 0.2685880552	 0.149823
H	-0.8667776875	 2.1633983649	-0.6066650653	 0.130382
H	-0.8280179493	 1.8687834036	 1.1393434422	 0.130371
H	 0.5818680472	 0.1711704285	-0.9883984775	 0.130823
H	 0.4070098243	-0.1813214121	 2.0518879007	 0.150485
H	 0.6800731167	-1.5355298782	 1.0011060803	 0.172436
H	-1.9597910573	 0.0060416168	-1.065388844	 0.089815
38.3038	60.7312	109.4208	116.7039	207.469	226.7267	240.4008	272.5759	336.8795	398.9623	472.6889	574.3904	597.0822	649.9054	823.0893	850.8569	891.061	919.983	942.8562	1062.2341	1096.0945	1118.9213	1164.1247	1238.5227	1288.5978	1312.3109	1385.8058	1405.095	1424.7918	1436.6008	1497.3664	1505.5731	1794.2768	1828.6044	2338.561	2880.3037	3008.7957	3031.2729	3039.9265	3059.5275	3106.5555	3131.0471
CC(CC(=O)C#N)C=O	C[C@@H](CC(=O)C#N)C=O	
InChI=1S/C6H7NO2/c1-5(4-8)2-6(9)3-7/h4-5H,2H2,1H3	InChI=1S/C6H7NO2/c1-5(4-8)2-6(9)3-7/h4-5H,2H2,1H3/t5-/m0/s1
