14
gdb 50147	3.97025	1.14016	0.94778	5.5104	66.51	-0.2632	-0.0542	0.209	1172.5217	0.099642	-473.826898	-473.818913	-473.817968	-473.860049	28.067	
O	-0.1316121628	-0.0026217584	-0.0160392209	-0.263336
C	-0.0231589726	 1.1940948487	-0.0044765225	 0.157419
N	 1.1791428412	 1.8804495335	 0.0097600643	-0.154403
C	 1.4562935827	 3.334135863	 0.0098035276	-0.265596
C	 2.9485654803	 2.9614052002	-0.0613162126	 0.276522
C	 4.0813805011	 3.5843385693	-0.7478616023	-0.246146
O	 3.9783424605	 3.5546900026	 0.6820834317	-0.24291
C	 2.5454093561	 1.4861567722	 0.003178694	 0.391854
O	 3.0896603466	 0.4283746008	 0.0278183348	-0.312964
H	-0.8835864242	 1.8929030068	-0.0040010841	 0.092913
H	 1.0517837713	 3.8635087227	-0.8564340419	 0.137218
H	 1.1700534548	 3.8370696805	 0.9370439714	 0.146171
H	 4.8573576865	 2.9502732671	-1.1712553854	 0.149489
H	 3.9517483786	 4.563187791	-1.2057374441	 0.133771
63.0713	162.4719	180.5021	195.4782	236.5513	249.2711	362.3051	427.044	542.3095	637.6538	730.9686	777.0674	863.5693	877.1252	931.4729	986.5568	1032.2525	1080.3562	1104.2604	1127.9387	1151.9444	1167.3714	1182.525	1247.0809	1358.0289	1430.3632	1451.6492	1510.123	1532.4242	1810.8363	1924.6484	2935.2089	3060.8943	3095.2852	3118.4874	3192.7283
O=CN1CC2(CO2)C1=O	O=CN1C[C@]2(CO2)C1=O	
InChI=1S/C5H5NO3/c7-3-6-1-5(2-9-5)4(6)8/h3H,1-2H2	InChI=1S/C5H5NO3/c7-3-6-1-5(2-9-5)4(6)8/h3H,1-2H2/t5-/m0/s1
