21
gdb 120613	3.23399	0.82314	0.73472	3.49	81.78	-0.2504	-0.0233	0.2271	1617.4203	0.179098	-424.216289	-424.205677	-424.204733	-424.252752	36.959	
C	-0.2357285143	 1.2118104909	 0.0608595672	-0.225196
O	-0.2404382848	-0.1745588784	-0.1797132803	-0.228071
C	 0.8217887734	-0.5873550797	-1.0142496243	-0.087737
C	 0.7518819857	-2.0863942892	-1.1436343236	-0.029149
C	-0.115505924	-2.7462426235	-2.1591832533	-0.302912
C	 1.4043939599	-2.8257148171	-2.3140543342	 0.204312
C	 2.099761036	-2.1062752257	-3.4542181893	-0.488972
C	 1.9967173778	-4.1453175944	-1.9475911002	 0.102028
O	 1.6007294822	-4.8587276518	-1.0566496054	-0.269919
H	 0.6913724097	 1.5387626701	 0.5586668748	 0.103811
H	-0.3443392104	 1.7903337945	-0.870937948	 0.101428
H	-1.0835446651	 1.4330930086	 0.7135133261	 0.12954
H	 0.7449705588	-0.0952442785	-1.9977314845	 0.081273
H	 1.7888886841	-0.2833357601	-0.5770362829	 0.089037
H	 0.8419518986	-2.6157900317	-0.1996897375	 0.118558
H	-0.6240459664	-3.6611544445	-1.8779663595	 0.136211
H	-0.6374906711	-2.118732797	-2.874496832	 0.116705
H	 1.5592473066	-1.2088071316	-3.7611573855	 0.127125
H	 3.1185855077	-1.8055971155	-3.1842343744	 0.125366
H	 2.169621996	-2.7575819588	-4.332831817	 0.125883
H	 2.8633599998	-4.4519096266	-2.577372176	 0.070679
58.9031	83.3605	101.9304	108.1613	146.8802	193.141	237.068	239.0157	283.6345	330.1433	374.3723	454.0519	482.641	613.416	732.5547	817.8601	904.1438	910.3395	930.7977	971.43	984.5065	1035.1582	1066.9045	1101.0984	1116.8163	1133.3582	1153.8936	1175.2253	1194.8434	1225.8451	1260.9017	1281.2423	1302.844	1386.7452	1420.0115	1433.7866	1441.2527	1477.5123	1481.4436	1485.9011	1492.7154	1499.8353	1505.0447	1526.7377	1808.8704	2866.2178	2948.1261	2967.5111	2980.663	3008.6343	3030.7415	3085.7955	3115.4236	3124.1316	3132.1633	3161.1843	3227.8717
COCC1CC1(C)C=O	COC[C@H]1C[C@]1(C)C=O	
InChI=1S/C7H12O2/c1-7(5-8)3-6(7)4-9-2/h5-6H,3-4H2,1-2H3	InChI=1S/C7H12O2/c1-7(5-8)3-6(7)4-9-2/h5-6H,3-4H2,1-2H3/t6-,7-/m1/s1
