19
gdb 51675	4.1418	0.94385	0.86384	4.0113	77.1	-0.2748	0.0102	0.285	1363.6058	0.159468	-423.022286	-423.014	-423.013056	-423.056656	30.569	
O	 0.0796850107	-0.0072946196	-0.1292010399	-0.276554
C	 0.0522662225	 1.1859381545	-0.1642202612	 0.165266
O	 1.073547487	 1.9536828633	 0.2573891677	-0.187227
C	 0.9616519114	 3.3721412792	 0.1508762617	 0.14167
C	 1.3717328297	 4.1699930667	 1.4128861382	-0.27828
C	 2.2781573552	 5.0794931066	 0.5286705612	-0.012494
C	 3.7743934086	 4.6958265459	 0.5530817735	-0.218716
C	 3.4937388936	 3.5624572256	-0.4804411699	-0.233862
C	 2.042137002	 4.0910699018	-0.677335216	-0.059321
H	-0.8047033101	 1.781283514	-0.5374635801	 0.07554
H	-0.0476234173	 3.6313425269	-0.1904961846	 0.086237
H	 0.5493373969	 4.6636731892	 1.934608186	 0.108397
H	 1.9282165827	 3.5651106637	 2.1337222877	 0.119267
H	 2.0088367289	 6.1350327124	 0.4973459467	 0.068798
H	 4.4128132143	 5.48163943	 0.1404109494	 0.102403
H	 4.1818512887	 4.3975358576	 1.5236864196	 0.099762
H	 4.1096638902	 3.6026830369	-1.380502654	 0.106479
H	 3.537793404	 2.5466818411	-0.0829479578	 0.125695
H	 1.7712463908	 4.4065935742	-1.6856474482	 0.06694
31.3591	69.512	144.8663	190.5721	284.7955	346.7377	389.3415	446.9971	610.7033	677.692	741.2849	748.8302	812.5636	851.4275	893.0732	901.1503	956.2462	969.7702	1011.8459	1044.0266	1047.6273	1065.788	1086.7732	1119.4594	1141.5464	1178.3314	1200.5093	1217.0116	1226.5688	1252.9861	1263.8697	1280.7748	1298.9174	1306.9264	1328.5761	1382.4118	1439.8109	1477.5208	1481.0278	1498.1829	1864.828	2939.1374	3029.9953	3049.9716	3064.9952	3077.12	3093.144	3098.86	3108.1743	3122.8407	3131.7639
O=COC1CC2CCC12	O=CO[C@H]1C[C@H]2CC[C@@H]12	
InChI=1S/C7H10O2/c8-4-9-7-3-5-1-2-6(5)7/h4-7H,1-3H2	InChI=1S/C7H10O2/c8-4-9-7-3-5-1-2-6(5)7/h4-7H,1-3H2/t5-,6-,7+/m1/s1
