16
gdb 110195	2.94308	1.11318	0.89257	3.5501	67.07	-0.267	-0.0453	0.2217	1263.1925	0.12288	-475.041654	-475.032688	-475.031744	-475.076207	31.42	
O	 0.0357532463	 1.4115949052	 0.2079104711	-0.417658
C	 0.0705464473	 0.0429915799	-0.1307762981	-0.075888
C	-1.3438256141	-0.5340474287	-0.1111122766	-0.20217
C	-1.5541845892	-2.0914014862	-0.0647069831	-0.084452
N	-2.1023549832	-1.9154181461	 1.2755654557	-0.320181
C	-1.9578388574	-0.5534892827	 1.3068340369	 0.458603
O	-2.1579587665	 0.2904143253	 2.1430134004	-0.373031
C	-2.5029069807	-2.6500603993	-1.0977002536	 0.152246
O	-3.6267862906	-3.005517245	-0.8584434257	-0.239429
H	-0.4561475976	 1.4922417004	 1.0366823069	 0.303001
H	 0.5123239457	-0.0260969405	-1.1304568379	 0.114767
H	 0.7112940163	-0.5376201659	 0.5546044465	 0.094357
H	-1.9801722057	-0.0208370758	-0.836920609	 0.123624
H	-0.6111809082	-2.65558442	-0.0976717436	 0.111001
H	-2.5843400773	-2.5608642938	 1.8832975077	 0.266958
H	-2.071152805	-2.7113706468	-2.1223356376	 0.08825
69.5527	79.8309	114.2131	164.4599	226.8106	230.1402	314.4471	398.2074	409.0938	485.3659	520.9614	701.6049	715.1051	765.1447	825.707	879.7678	948.4891	1009.3084	1062.7365	1079.9601	1084.0964	1113.1547	1170.115	1174.3147	1227.6988	1245.9754	1321.0216	1362.456	1376.0649	1385.3829	1416.1212	1447.3074	1513.7633	1835.3367	1879.0737	2881.7852	2960.8349	3011.6056	3066.5809	3090.7028	3620.9709	3752.8028
OCC1C(NC1=O)C=O	OC[C@H]1[C@@H](NC1=O)C=O	
InChI=1S/C5H7NO3/c7-1-3-4(2-8)6-5(3)9/h2-4,7H,1H2,(H,6,9)	InChI=1S/C5H7NO3/c7-1-3-4(2-8)6-5(3)9/h2-4,7H,1H2,(H,6,9)/t3-,4-/m0/s1
