18
gdb 105505	2.01928	1.7826	1.18444	5.7029	67.63	-0.2417	0.012	0.2537	1085.75	0.148343	-476.23597	-476.227318	-476.226374	-476.269772	31.94	
N	-0.0471218579	 0.6500901638	-0.0213234865	-0.525447
H	-0.3910548503	-0.294004977	 0.1295099974	 0.261449
H	 1.5589987484	 0.7651529322	 0.6809174535	 0.31811
H	-0.3109488545	 0.9400225943	-0.9559455145	 0.249317
C	-0.624557779	 1.5344190453	 1.0044917341	-0.240078
C	-0.062790316	 1.1242550628	 2.3651731429	 0.291067
C	-0.8575228325	 1.5530920812	 3.6118734136	-0.344562
C	-1.104289008	 0.0455554253	 3.8125235833	-0.068438
O	-0.3699308217	-0.2837425895	 2.6051582671	-0.335188
C	 1.4683165944	 1.3330126565	 2.4947695004	 0.400636
O	 1.975804295	 1.7245487241	 3.51467034	-0.341774
O	 2.1829432284	 1.0159513858	 1.4152029145	-0.380661
H	-0.3415114347	 2.5692413106	 0.780137287	 0.128168
H	-1.7218060129	 1.48592962	 1.0456670207	 0.103997
H	-0.2404307263	 2.0322202256	 4.3689991017	 0.149901
H	-1.7463166128	 2.1518379709	 3.4049417218	 0.105129
H	-0.6338007285	-0.394141194	 4.6977583194	 0.122856
H	-2.145267271	-0.2904108682	 3.7515710435	 0.105519
65.3925	79.0341	157.0029	223.7662	281.138	292.4138	346.9049	378.5257	435.692	474.1471	596.2769	725.7678	759.9258	789.3502	839.7067	869.3755	902.6253	963.6939	990.6969	998.0541	1008.4044	1027.1017	1061.4904	1150.9909	1164.3294	1184.6575	1207.9046	1239.763	1274.1766	1281.872	1345.569	1354.6697	1414.5208	1481.2714	1494.4924	1510.7339	1525.8282	1634.3913	1847.1793	3000.1008	3034.2232	3071.1915	3080.3568	3090.3486	3167.6003	3190.8017	3507.1423	3594.5941
[NH3+]CC1(CCO1)C([O-])=O	NC[C@]1(CCO1)C(=O)O	
InChI=1S/C5H9NO3/c6-3-5(4(7)8)1-2-9-5/h1-3,6H2,(H,7,8)	InChI=1S/C5H9NO3/c6-3-5(4(7)8)1-2-9-5/h1-3,6H2,(H,7,8)/t5-/m1/s1
