21
gdb 97556	3.32297	0.68054	0.67171	1.1517	85.4	-0.2453	0.033	0.2782	1819.2852	0.177651	-424.176401	-424.16468	-424.163735	-424.215091	40.471	
C	 0.1072745755	 1.3172139431	 0.237299425	-0.239439
O	 0.1297165624	-0.0768625496	 0.0213672171	-0.27362
C	 0.6419663705	-0.5429663212	-1.2379248311	 0.163432
C	-0.2299781569	-0.0540548701	-2.4131840502	-0.414
C	 2.1157140905	-0.132089208	-1.4378258651	-0.413999
C	 0.5655965627	-2.0079303328	-1.1556971186	 0.088722
C	 0.5297149788	-3.2100697991	-1.126934966	 0.107366
C	 0.4514309863	-4.6638959019	-1.075724412	-0.220433
O	 1.7625714003	-5.2159592842	-1.0332785499	-0.409475
H	 1.109107765	 1.7681500396	 0.2235340607	 0.106887
H	-0.5249221763	 1.8526389281	-0.4846905185	 0.105255
H	-0.3175491342	 1.4602768729	 1.2341858186	 0.129125
H	-0.1445346501	 1.0283716288	-2.5446843678	 0.113671
H	 0.0912006433	-0.533011906	-3.3414606599	 0.126912
H	-1.2772328182	-0.3086517267	-2.2332560223	 0.129459
H	 2.7082947303	-0.4325220572	-0.5706009119	 0.134682
H	 2.5234460689	-0.623937569	-2.3242533136	 0.129883
H	 2.207833982	 0.9487571945	-1.5775812799	 0.112716
H	-0.1337815593	-4.9562160586	-0.1885830712	 0.119761
H	-0.1039189898	-5.0269688653	-1.9562280552	 0.114279
H	 1.6679454282	-6.1727478376	-0.9850406281	 0.288814
20.7336	43.4262	83.2489	94.0136	184.2498	193.0816	225.7687	257.8234	267.8027	282.1671	327.9269	341.2877	387.5423	404.3145	533.8862	541.9448	583.6254	678.152	808.7455	916.5727	927.2828	1012.0677	1025.185	1027.0882	1079.0815	1109.6112	1171.454	1178.515	1179.8475	1212.4689	1246.3097	1251.6751	1302.0427	1386.6061	1406.1123	1458.5469	1472.6596	1475.4293	1478.7083	1497.6325	1500.3142	1502.0816	1504.4303	1514.2402	2373.6587	2961.7919	2980.6687	2993.5431	3039.729	3049.1729	3050.2862	3108.7317	3118.198	3123.9481	3131.7429	3135.3075	3817.3004
COC(C)(C)C#CCO	COC(C)(C)C#CCO	
InChI=1S/C7H12O2/c1-7(2,9-3)5-4-6-8/h8H,6H2,1-3H3	InChI=1S/C7H12O2/c1-7(2,9-3)5-4-6-8/h8H,6H2,1-3H3
