20
gdb 81463	3.04403	1.53064	1.41054	1.5361	77.45	-0.2205	0.0752	0.2957	1007.1313	0.17375	-403.103183	-403.095934	-403.094989	-403.13427	30.423	
O	-0.1068030516	 1.4366430175	 0.0280838146	-0.454326
C	 0.0594276965	 0.0292299866	 0.0314165424	 0.138352
C	 0.1652996777	-0.5917207515	 1.4511966143	-0.058575
C	-1.3870187934	-0.4759215042	 1.525296016	-0.229
C	-1.3408998625	-0.6276459982	-0.0308738202	-0.043364
C	-1.272920453	-2.1178575169	-0.3100491563	-0.012837
C	-0.120838505	-2.780442889	-0.9752804924	-0.26097
N	-0.2913283185	-2.8841476254	 0.4780914537	-0.094867
C	 0.5801472747	-2.0706828028	 1.3528101559	-0.175874
H	 0.7193653487	 1.8314941612	 0.32542406	 0.27989
H	 0.8126738243	-0.264429917	-0.7102590214	 0.054427
H	 0.7714432726	-0.0663909321	 2.1963284289	 0.053966
H	-1.9293249163	-1.2392542806	 2.0889985402	 0.098226
H	-1.7029697353	 0.5211452465	 1.8286458593	 0.112399
H	-2.0913087735	-0.1212579271	-0.6414425045	 0.074175
H	-2.2506989457	-2.5947018985	-0.3759369266	 0.090467
H	-0.2720408959	-3.7111792802	-1.5170436679	 0.11076
H	 0.6856143414	-2.1677340097	-1.3680374043	 0.111711
H	 1.6216020945	-2.1567725778	 1.0160887056	 0.096904
H	 0.5319967704	-2.514357641	 2.3548126128	 0.108535
211.6722	229.0285	285.9499	307.5796	324.3735	395.5771	435.496	472.5541	537.7522	642.2146	730.7726	795.5741	831.9497	861.7813	894.3434	899.6117	926.656	941.339	978.2855	1007.5575	1041.2725	1056.0473	1085.8631	1096.6793	1118.4641	1130.1199	1139.895	1155.4988	1163.4739	1197.6972	1239.302	1249.1658	1288.5576	1300.2929	1310.9386	1316.159	1328.954	1374.2535	1400.6045	1426.3254	1485.4161	1494.6834	1512.8946	3010.8032	3013.7857	3048.3785	3055.2141	3071.9946	3088.3615	3103.2634	3107.5593	3148.2859	3186.2251	3811.0569
OC1C2CC1C1CN1C2	O[C@H]1[C@H]2C[C@@H]1[C@H]1CN1C2	
InChI=1S/C7H11NO/c9-7-4-1-5(7)6-3-8(6)2-4/h4-7,9H,1-3H2	InChI=1S/C7H11NO/c9-7-4-1-5(7)6-3-8(6)2-4/h4-7,9H,1-3H2/t4-,5+,6+,7-,8?/m0/s1
