13
gdb 21795	6.26729	1.17804	1.09227	3.8345	60.42	-0.2482	-0.0273	0.221	1026.989	0.096169	-394.787297	-394.780228	-394.779284	-394.820571	24.214	
O	-0.4107423573	 0.8703923575	 0.9531872454	-0.232909
C	 0.0706633334	 1.1113009173	-0.1217432685	 0.156344
C	 1.4625769272	 1.6992610612	-0.3274297481	-0.376338
C	 1.4298459354	 2.8763115409	-1.2502515782	 0.28502
C	 1.2744692601	 4.2165853774	-0.9746945711	-0.159979
N	 1.2799930986	 4.8013806928	-2.1944233727	-0.143523
N	 1.4237235069	 3.8961096637	-3.1780975682	-0.109119
N	 1.5124636819	 2.7304809357	-2.6071451569	-0.239325
H	-0.4816756562	 0.9189879566	-1.0678894142	 0.096949
H	 1.88077676	 1.9495158552	 0.6501453697	 0.128744
H	 2.0828099022	 0.9186650167	-0.7857465656	 0.149707
H	 1.1715941325	 4.7724837463	-0.0581557017	 0.156887
H	 1.2038009954	 5.7781621088	-2.4304874099	 0.287542
24.2006	62.4711	160.0772	318.6418	374.8367	452.746	587.972	672.3611	704.0211	747.51	798.7505	825.752	988.4148	1009.314	1034.2126	1053.1201	1062.2471	1131.3985	1190.6029	1264.7279	1288.0355	1326.9964	1357.7323	1417.9292	1450.0773	1489.3592	1586.5834	1836.4988	2895.6328	3040.9022	3117.7224	3285.7274	3656.5499
O=CCC1=CNN=N1	O=CCc1c[nH]nn1	
InChI=1S/C4H5N3O/c8-2-1-4-3-5-7-6-4/h2-3H,1H2,(H,5,6,7)	InChI=1S/C4H5N3O/c8-2-1-4-3-5-7-6-4/h2-3H,1H2,(H,5,6,7)
