18
gdb 51528	3.63241	0.84265	0.76745	3.8005	80.69	-0.2518	0.0253	0.2771	1489.4541	0.14689	-401.930011	-401.920915	-401.919971	-401.964966	33.248	
O	 0.8441683398	-0.6546046438	 0.4042020065	-0.317119
C	 0.3339552262	 0.437393659	 0.2810464702	 0.151638
N	 0.9882057982	 1.5794427847	-0.0748858219	-0.291226
C	 2.3992858295	 1.638734155	-0.3567710194	 0.085763
C	 2.8735872449	 2.2516632521	-1.7005730174	-0.254115
C	 4.077216577	 2.9009870459	-0.9330293633	-0.184283
C	 3.274415008	 2.6756103229	 0.3952099452	-0.254119
C	 5.3121354056	 2.1444843361	-1.0161948671	 0.344995
C	 6.3291864116	 1.5059448919	-1.0814560957	-0.481999
H	-0.7457189527	 0.6228035655	 0.4500130129	 0.073452
H	 0.4470075505	 2.427881557	-0.1429843451	 0.242296
H	 2.7824830282	 0.62658447	-0.2253126077	 0.138669
H	 3.1060598302	 1.5690050656	-2.5186963201	 0.123786
H	 2.1842567674	 3.0236875908	-2.0567001304	 0.096922
H	 4.2663895597	 3.9485401951	-1.1811156851	 0.105053
H	 2.702861558	 3.5722044472	 0.6549551452	 0.096924
H	 3.8305678943	 2.335279388	 1.2694285114	 0.123786
H	 7.2302407936	 0.9473804069	-1.1407213582	 0.199579
44.8027	53.1734	151.2134	190.7043	214.69	243.2237	372.2652	410.2195	481.084	530.9384	540.8143	622.5412	629.6798	651.6116	791.4161	808.8753	822.5251	925.6973	927.7779	984.859	989.6311	1031.1025	1087.5906	1098.3651	1125.6739	1183.3559	1186.9698	1241.6056	1249.3724	1270.8624	1294.7217	1345.4105	1370.3095	1433.374	1469.9515	1494.1731	1533.2088	1809.1616	2234.2951	2932.7655	3054.4843	3055.802	3072.2418	3121.3115	3131.7592	3139.1443	3504.1943	3618.5257
O=CNC1CC(C1)C#C	O=CN[C@H]1C[C@@H](C1)C#C	
InChI=1S/C7H9NO/c1-2-6-3-7(4-6)8-5-9/h1,5-7H,3-4H2,(H,8,9)	InChI=1S/C7H9NO/c1-2-6-3-7(4-6)8-5-9/h1,5-7H,3-4H2,(H,8,9)/t6-,7-
