20
gdb 52728	3.52517	0.59158	0.52181	3.1519	86.67	-0.2346	-0.0244	0.2101	2090.2899	0.166963	-403.120126	-403.108789	-403.107844	-403.159395	37.983	
C	-0.2080276174	 1.5026878539	-0.0752429802	-0.500092
C	-0.1015363655	 0.0511253812	-0.0376042534	 0.121313
C	 0.0024046654	-1.147667052	 0.0005668072	 0.031643
C	 0.0837515232	-2.6096901219	 0.0254353477	-0.130009
C	-1.3307364463	-3.2270499878	 0.0986741025	-0.385956
N	 0.9006658355	-3.0664639169	-1.1099875304	-0.299586
C	 1.1793897449	-4.4908656881	-1.1604946022	-0.228533
C	 2.3638992716	-4.7628573064	-2.076040936	 0.153539
O	 2.4891521236	-5.750261055	-2.7514916409	-0.239161
H	 0.4683764799	 1.9293582311	-0.8239550768	 0.151159
H	-1.2252350664	 1.8239512689	-0.3247758914	 0.147759
H	 0.0512195099	 1.9440874522	 0.8933699637	 0.150239
H	 0.6308810846	-2.9120406599	 0.930621208	 0.107697
H	-1.2776377568	-4.3175070924	 0.1677623621	 0.117633
H	-1.8664203813	-2.853610857	 0.9758668211	 0.127352
H	-1.9088664772	-2.9604357201	-0.7918035545	 0.119565
H	 0.4778377114	-2.7484950065	-1.9761165167	 0.223477
H	 1.4922045263	-4.8114613313	-0.1544069095	 0.13002
H	 0.3489003329	-5.1477997026	-1.4607645579	 0.114445
H	 3.1253221217	-3.9511718993	-2.0606226124	 0.087499
17.1663	55.1834	62.0676	82.2998	108.3401	144.8421	213.507	254.6655	286.766	319.4194	335.7696	398.874	492.834	530.0849	575.7711	710.9141	731.6566	817.1336	888.4863	1001.6934	1048.6736	1051.4578	1053.2842	1065.9227	1073.0323	1138.7808	1157.77	1190.8882	1246.1556	1314.3378	1336.468	1363.9969	1397.4131	1404.5928	1414.6815	1469.6249	1477.6556	1478.8781	1485.7362	1490.3674	1502.447	1837.9391	2373.7251	2890.7326	2981.3345	2995.3884	3022.176	3027.5561	3038.1943	3088.3285	3089.4309	3113.8867	3117.8214	3522.2218
CC#CC(C)NCC=O	CC#C[C@@H](C)NCC=O	
InChI=1S/C7H11NO/c1-3-4-7(2)8-5-6-9/h6-8H,5H2,1-2H3	InChI=1S/C7H11NO/c1-3-4-7(2)8-5-6-9/h6-8H,5H2,1-2H3/t7-/m1/s1
