16
gdb 111719	2.38348	1.49151	1.14454	3.673	71.22	-0.2514	-0.0113	0.2401	1098.5457	0.123252	-437.832311	-437.823894	-437.822949	-437.865796	30.214	
C	-0.4057887713	 0.9774159383	-0.144928264	-0.242337
O	 0.6073904389	 0.0055234484	 0.081488122	-0.231117
C	 1.0117141013	-0.6398918307	-1.0638205833	 0.048932
C	 1.451594866	-2.0660006453	-0.9846035343	-0.246552
C	 0.5264501289	-2.8223194099	-0.0335131666	-0.090117
O	-0.6626320031	-2.3666396877	-0.7421915638	-0.313136
C	 0.1421210087	-1.7082370055	-1.7116517563	 0.302836
C	-0.2353224309	-1.7362074759	-3.0868506577	 0.220842
N	-0.5255683521	-1.7287879647	-4.2073967947	-0.343343
H	-0.0638590101	 1.7562637544	-0.8405031031	 0.11689
H	-1.3148880987	 0.5120313884	-0.544554614	 0.135562
H	-0.6253265929	 1.4325569039	 0.8223660778	 0.137659
H	 1.5593672808	-0.0338044725	-1.7890617718	 0.11408
H	 2.3904520729	-2.4250377781	-1.3829284111	 0.129298
H	 0.6175149932	-3.9091823792	-0.1121683042	 0.126376
H	 0.5280445585	-2.5027507439	 1.0109222749	 0.134126
79.2088	107.8326	159.0015	182.4914	215.6453	268.0486	348.494	485.2364	506.1721	528.5043	561.3497	708.3023	795.2478	821.6338	896.3774	965.3525	980.2781	1008.3544	1034.3847	1048.6594	1113.8435	1133.7853	1166.7787	1176.4799	1200.9506	1236.1588	1263.8591	1312.3927	1339.8576	1428.2281	1488.1993	1489.5382	1500.1143	1510.4546	2343.3716	3003.8778	3060.0135	3069.6936	3089.9548	3122.1948	3136.0857	3214.8701
COC1C2COC12C#N	CO[C@H]1[C@H]2CO[C@@]12C#N	
InChI=1S/C6H7NO2/c1-8-5-4-2-9-6(4,5)3-7/h4-5H,2H2,1H3	InChI=1S/C6H7NO2/c1-8-5-4-2-9-6(4,5)3-7/h4-5H,2H2,1H3/t4-,5+,6-/m1/s1
