21
gdb 68869	2.33462	1.85547	1.55588	1.7625	81.19	-0.2407	0.0841	0.3248	1000.415	0.1828	-387.054115	-387.045974	-387.04503	-387.086112	32.953	
C	-0.0382458502	 1.4839778764	 0.0080661204	-0.489581
C	-0.0058996296	-0.0214011178	 0.0193946011	 0.293421
C	 1.2359341072	-0.8209812725	-0.304670968	-0.393615
C	 0.6347858554	-0.9084500453	 1.0800565097	 0.293416
C	 1.3572806242	-0.4481759744	 2.3183998989	-0.48958
C	-0.5160185416	-1.941558857	 1.2127758858	 0.010043
C	-1.7710133059	-1.0345651827	 1.3330326026	-0.228072
C	-1.3332039592	-0.8101419755	-0.1400826614	 0.010041
O	-0.9067443685	-2.2041461117	-0.1671622092	-0.284638
H	 0.9074295359	 1.9075203292	 0.3607503181	 0.118715
H	-0.2102010938	 1.8705131995	-1.0037625821	 0.120349
H	-0.8355531315	 1.8777341154	 0.6500561912	 0.113527
H	 1.1690612042	-1.6695091791	-0.9739076835	 0.125087
H	 2.1549888236	-0.246348191	-0.3792421857	 0.09868
H	 1.9696336587	 0.4369107509	 2.1191015134	 0.118716
H	 0.6588178827	-0.1911838334	 3.1240054215	 0.113527
H	 2.0273642674	-1.2276222834	 2.7007944707	 0.120348
H	-0.3548823405	-2.8405027607	 1.809570007	 0.075446
H	-2.6971625082	-1.6062274705	 1.4143771872	 0.104226
H	-1.7517569597	-0.1902089844	 2.0275495621	 0.094498
H	-2.0182694205	-0.5374961619	-0.9441832196	 0.075446
170.9218	175.1828	196.8174	210.1513	257.9489	322.5286	435.332	490.6766	509.7858	542.9895	571.5218	708.0014	732.1691	780.9182	846.5833	870.2409	902.7045	923.5815	930.7188	951.084	962.7258	976.8655	1032.4747	1065.1746	1066.0233	1089.3539	1114.9768	1121.6013	1176.4162	1196.0625	1225.3582	1234.5792	1236.7057	1274.6883	1298.7832	1334.3736	1384.1359	1414.3554	1425.8228	1476.9137	1483.1908	1483.2152	1492.7062	1495.2954	1506.5095	3017.6272	3020.2492	3059.5267	3072.8579	3074.1746	3092.6532	3096.7263	3109.3822	3112.1386	3128.1227	3135.1489	3222.9407
CC12CC1(C)C1CC2O1	C[C@@]12C[C@]1(C)[C@H]1C[C@@H]2O1	
InChI=1S/C8H12O/c1-7-4-8(7,2)6-3-5(7)9-6/h5-6H,3-4H2,1-2H3	InChI=1S/C8H12O/c1-7-4-8(7,2)6-3-5(7)9-6/h5-6H,3-4H2,1-2H3/t5-,6+,7-,8+
