18
gdb 107163	4.55015	0.99034	0.93905	1.4885	72.48	-0.2564	0.0698	0.3262	1271.5365	0.14743	-439.01091	-439.00262	-439.001676	-439.044181	31.462	
O	 0.102909648	 1.3375505199	-0.4283432684	-0.4151
C	 0.0686141334	 0.0147855703	 0.0868350397	-0.163202
C	-1.3360377908	-0.4849356211	 0.2397688222	 0.321201
C	-2.3496094494	-0.0983759622	 1.3366323308	-0.398065
C	-2.876313632	-1.5474486119	 1.2519311354	 0.452627
C	-3.4053928781	-2.400500669	 2.3127493674	-0.2688
O	-4.24313557	-1.9286316142	 1.2454739679	-0.27334
C	-1.8951857819	-1.8856041666	 0.1509307268	-0.193315
N	-2.0339914396	-0.9407909593	-0.9602660705	-0.369696
H	-0.3124527872	 1.3045674592	-1.2974916145	 0.289419
H	 0.6289068775	-0.6832818215	-0.5520593362	 0.099384
H	 0.5664263551	 0.0571284349	 1.0612645453	 0.109423
H	-1.8941558421	 0.1311875846	 2.3035975253	 0.117724
H	-3.0537104433	 0.6962713067	 1.0731170465	 0.114762
H	-3.2009136563	-3.4706789713	 2.303849443	 0.119124
H	-3.6129081526	-1.9755690611	 3.2941242665	 0.119008
H	-1.4099241557	-2.8370117311	-0.0355864108	 0.099156
H	-2.9822112751	-0.5761944965	-1.0361098464	 0.239692
64.1781	92.2627	181.9062	276.0468	295.9386	354.6067	381.7831	420.9373	433.463	518.3545	611.2837	726.5059	815.3285	821.0187	849.9842	898.6917	926.5493	951.678	983.324	991.9009	1046.8145	1073.5551	1114.6407	1117.5363	1129.3098	1155.0116	1168.608	1186.7222	1206.8276	1228.1164	1260.0152	1305.4785	1375.2162	1412.1548	1438.2099	1449.3734	1483.529	1491.2709	1537.6666	3000.8161	3056.1356	3077.7329	3079.1248	3110.3584	3165.3178	3180.0232	3466.8698	3802.3027
OCC12CC3(CO3)C1N2	OC[C@]12C[C@]3(CO3)[C@H]1N2	
InChI=1S/C6H9NO2/c8-2-5-1-6(3-9-6)4(5)7-5/h4,7-8H,1-3H2	InChI=1S/C6H9NO2/c8-2-5-1-6(3-9-6)4(5)7-5/h4,7-8H,1-3H2/t4-,5+,6-/m0/s1
