18
gdb 87379	2.14948	1.58877	1.13189	5.1168	73.27	-0.2485	0.	0.2486	1139.3213	0.146121	-439.080655	-439.07182	-439.070876	-439.114101	32.502	
C	-0.2365587226	 1.5505684997	 0.04040625	-0.407457
C	 0.1158333653	 0.0805010913	-0.0086855673	 0.075773
O	 1.3715579183	-0.1575784719	-0.7424486772	-0.27549
C	 1.9672924842	-0.7876455775	 0.3304005584	 0.438785
O	 3.0546126634	-1.2606239913	 0.3895845929	-0.334438
C	 0.7596588373	-0.5845098108	 1.2158141487	 0.104693
C	 0.6734722429	-0.2331390042	 2.6587839559	-0.303458
N	 0.2457179061	-1.5374605579	 2.176153879	-0.117794
C	-1.187157052	-1.8063595574	 2.1500987005	-0.32152
H	 0.5668404025	 2.1284374696	 0.505689918	 0.133744
H	-0.4034372991	 1.9367518474	-0.9694514642	 0.13982
H	-1.154971345	 1.702245485	 0.6170533105	 0.125513
H	-0.6802870547	-0.5139374967	-0.4679378802	 0.103726
H	 1.573226156	-0.2203704987	 3.2671356507	 0.141886
H	-0.0917125079	 0.4923196211	 2.9356158703	 0.117231
H	-1.8034977	-0.9175851143	 1.9372840596	 0.103821
H	-1.3984956193	-2.5662600354	 1.3920307726	 0.136917
H	-1.4846170654	-2.203931208	 3.1244427717	 0.138245
109.126	132.3915	167.857	184.994	227.8367	231.2545	283.2458	380.7597	394.8108	504.077	560.5413	630.8958	693.2634	739.5795	846.8455	863.6349	866.1059	941.7642	1036.4884	1045.0147	1055.8419	1090.4678	1116.2644	1134.0347	1155.235	1164.6178	1203.5806	1229.9778	1291.1738	1378.8573	1411.1898	1425.3475	1449.9047	1484.4611	1490.1879	1492.4165	1495.377	1507.5173	1944.5587	2970.4171	3040.637	3062.1772	3078.6167	3086.7633	3111.9747	3116.5607	3124.5595	3186.53
CC1OC(=O)C11CN1C	C[C@H]1OC(=O)[C@]21CN2C	
InChI=1S/C6H9NO2/c1-4-6(3-7(6)2)5(8)9-4/h4H,3H2,1-2H3	InChI=1S/C6H9NO2/c1-4-6(3-7(6)2)5(8)9-4/h4H,3H2,1-2H3/t4-,6-,7?/m1/s1
