12
gdb 8617	2.17139	2.08264	1.45395	2.1473	59.99	-0.3067	-0.0838	0.2228	883.3409	0.081287	-377.541983	-377.533639	-377.532695	-377.575102	28.072	
C	-0.040270612	 1.5896743878	-0.0268677777	-0.408567
C	-0.0180133711	 0.0463480951	-0.0346990751	-0.161485
C	 0.7380550634	-0.5117749423	 1.2288678406	 0.166195
O	 1.2119555954	 0.2080847507	 2.0527806355	-0.200124
C	-1.3776917912	-0.5129131094	 0.0128922633	 0.290034
N	-2.4422668608	-0.950221369	 0.1105949449	-0.302343
C	 0.6929274879	-0.4769841879	-1.2112006254	 0.29007
N	 1.3023325978	-0.8851457523	-2.1034569771	-0.302351
H	 0.984107501	 1.9641532342	-0.0261871935	 0.163203
H	-0.5667278335	 1.9628589971	-0.9061383646	 0.158797
H	-0.5425519214	 1.9375112902	 0.8766178329	 0.16323
H	 0.7835226345	-1.6161828243	 1.2726441462	 0.143341
69.3762	130.8579	172.0049	174.8802	209.4563	268.5759	269.5405	463.2002	500.1118	510.5686	567.5137	587.9241	735.26	897.9568	908.6321	1018.9567	1119.0818	1143.4459	1203.7347	1397.7765	1415.0266	1481.343	1486.514	1858.0946	2358.5804	2363.787	2968.387	3073.1595	3163.2594	3163.6805
CC(C=O)(C#N)C#N	CC(C=O)(C#N)C#N	
InChI=1S/C5H4N2O/c1-5(2-6,3-7)4-8/h4H,1H3	InChI=1S/C5H4N2O/c1-5(2-6,3-7)4-8/h4H,1H3
