23
gdb 122525	2.92352	0.78084	0.66436	2.7964	83.29	-0.2506	0.0841	0.3347	1784.8125	0.204232	-425.403184	-425.392571	-425.391627	-425.440072	38.082	
C	-0.0200141843	 1.1952269921	 0.1346991945	-0.382545
C	-0.363770262	-0.1947769733	-0.4062183984	-0.186974
C	 0.7024567572	-0.7281001006	-1.3519198951	-0.035879
O	 0.3062056442	-2.0142004303	-1.8069601103	-0.261295
C	 1.2009581017	-2.6015673886	-2.7042678072	 0.121236
C	 2.3963232852	-3.362355123	-2.1854455446	-0.335393
C	 1.1911827907	-4.0982648756	-2.7454690884	-0.066647
C	 0.2493178443	-4.8244554747	-1.802643269	-0.068356
O	-1.11078682	-4.6203140001	-2.1449224832	-0.428441
H	 0.9229508898	 1.185279241	 0.6922329632	 0.117975
H	 0.0818941433	 1.9254585197	-0.6756397519	 0.117982
H	-0.8004599719	 1.5566617315	 0.8100984032	 0.120142
H	-0.484234341	-0.9050601184	 0.4199650245	 0.108174
H	-1.3215212486	-0.1689691286	-0.9387890364	 0.107171
H	 0.8291630608	-0.0501564494	-2.2121851564	 0.088601
H	 1.6773373126	-0.7946000707	-0.844319915	 0.093
H	 1.3124045487	-2.0528022748	-3.6402491352	 0.086273
H	 3.3181711318	-3.3394652337	-2.7561728262	 0.11315
H	 2.5294474811	-3.397577038	-1.1088559881	 0.118369
H	 1.2911228307	-4.5470700154	-3.7291469882	 0.093011
H	 0.4223220968	-5.9044866381	-1.854823746	 0.104686
H	 0.4488086702	-4.509943333	-0.768114654	 0.085433
H	-1.2573671813	-3.6704151078	-2.0603512019	 0.290327
55.2876	60.0503	70.8897	130.066	144.3476	194.0589	233.2723	262.807	328.4286	374.4057	442.0948	480.0473	504.547	624.3628	764.8957	778.5905	838.0869	869.4802	900.3335	915.9991	938.8994	998.7306	1016.9508	1048.0955	1056.5446	1068.7165	1093.9957	1134.0391	1145.1913	1153.2747	1177.8521	1192.3472	1242.1459	1249.6603	1268.5833	1314.5738	1333.6155	1357.1315	1390.363	1410.9379	1413.7042	1434.9071	1446.0227	1482.4331	1492.0703	1500.8449	1502.9123	1507.2894	1526.2241	2966.2588	2998.361	3001.262	3033.1354	3037.8524	3071.5349	3071.7105	3091.9564	3101.2941	3110.6043	3129.3988	3155.5511	3217.6328	3790.6311
CCCOC1CC1CO	CCCO[C@H]1C[C@H]1CO	
InChI=1S/C7H14O2/c1-2-3-9-7-4-6(7)5-8/h6-8H,2-5H2,1H3	InChI=1S/C7H14O2/c1-2-3-9-7-4-6(7)5-8/h6-8H,2-5H2,1H3/t6-,7-/m0/s1
