16
gdb 7411	3.02077	1.50618	1.40303	3.08	61.76	-0.2401	0.0085	0.2486	965.1785	0.130093	-417.13688	-417.127831	-417.126887	-417.171041	32.182	
C	-1.0512166829	 1.3778185304	-1.2434986019	-0.390356
C	-0.2125086035	 0.502952986	-0.2855591503	-0.187676
C	-1.112288066	-0.5542979154	 0.351214808	 0.419352
N	-1.3288626738	-0.4109751035	 1.6834636151	-0.518385
O	-1.628694985	-1.4569531462	-0.2942782326	-0.389493
C	 0.9880877018	-0.0964020499	-1.0512007921	 0.379912
N	 0.6929458239	-1.1681524645	-1.8276365678	-0.510018
O	 2.0844837549	 0.4266231699	-0.9882354251	-0.373217
H	-0.4064814977	 2.1076185376	-1.7395215763	 0.139232
H	-1.5332311462	 0.7569072893	-2.001664994	 0.144082
H	-1.8284055621	 1.9180706909	-0.6945233088	 0.120846
H	 0.2371749887	 1.1394353852	 0.4803008488	 0.095618
H	-0.8761103629	 0.3008037778	 2.2285001094	 0.268629
H	-1.9146205699	-1.0852151092	 2.1495251141	 0.266036
H	-0.1939646376	-1.6384400971	-1.6983578798	 0.279813
H	 1.4515936984	-1.6223998815	-2.3091639666	 0.255627
46.2772	59.8101	216.7477	228.22	230.8132	241.8243	257.8046	378.8926	410.2029	450.4572	549.2666	598.2544	644.4024	675.0638	753.6496	772.3882	820.7192	869.0216	1001.5489	1068.7692	1088.393	1116.6419	1147.101	1275.0689	1301.3972	1347.8193	1391.9087	1420.5292	1495.5109	1498.312	1609.706	1617.2107	1766.2273	1802.0643	3046.3865	3082.5576	3118.7373	3139.9822	3526.1648	3601.6307	3695.8594	3740.9777
CC(C(N)=O)C(N)=O	CC(C(=O)N)C(=O)N	
InChI=1S/C4H8N2O2/c1-2(3(5)7)4(6)8/h2H,1H3,(H2,5,7)(H2,6,8)	InChI=1S/C4H8N2O2/c1-2(3(5)7)4(6)8/h2H,1H3,(H2,5,7)(H2,6,8)
