14
gdb 27359	2.08066	1.85479	0.98663	4.4355	67.07	-0.2471	-0.0351	0.212	1117.0857	0.101337	-473.896758	-473.889103	-473.888159	-473.929125	28.323	
C	 0.118970208	 1.4705873547	 0.0245023027	-0.475172
C	-0.0453203059	-0.0091561805	-0.0093250143	 0.388153
C	-1.1725571296	-0.7174715599	-0.1408718315	-0.318687
C	-1.1481151022	-2.1890757531	-0.1534911245	 0.389643
O	-2.1423174493	-2.8701268253	-0.2689188402	-0.348518
N	 0.133608282	-2.7688038098	-0.0198751738	-0.436325
C	 1.1414613581	-1.9968508247	 0.0991944487	 0.494201
O	 2.3849036492	-2.4497088465	 0.2301745967	-0.377739
O	 1.1679316515	-0.6520488822	 0.1173246556	-0.225492
H	 0.774960085	 1.8024799815	-0.7873565061	 0.15496
H	-0.8495533287	 1.9615303663	-0.0767870748	 0.148723
H	 0.582201816	 1.7839641836	 0.966180404	 0.154968
H	-2.1278203897	-0.219745381	-0.2406389498	 0.126109
H	 2.3180059157	-3.4153109731	 0.2122801272	 0.325177
121.4051	161.215	177.2173	208.2241	289.6899	378.8883	500.2576	545.2865	557.0127	570.0545	590.8104	640.2836	740.996	785.1326	885.5926	914.6785	947.187	1004.0856	1068.2421	1075.2579	1159.2423	1222.0249	1263.2044	1357.6639	1417.9111	1455.9382	1469.2163	1481.4055	1653.3872	1738.8354	1801.3382	3042.8243	3099.4163	3151.1528	3228.8503	3777.9917
CC1=CC(=O)N=C(O)O1	Cc1cc(=O)nc(O)o1	
InChI=1S/C5H5NO3/c1-3-2-4(7)6-5(8)9-3/h2H,1H3,(H,6,7,8)	InChI=1S/C5H5NO3/c1-3-2-4(7)6-5(8)9-3/h2H,1H3,(H,6,7,8)
