14
gdb 16881	4.2535	2.00361	1.50027	3.6648	57.56	-0.2535	0.0024	0.256	802.6741	0.10796	-419.68095	-419.674602	-419.673657	-419.71155	24.21	
O	-0.0305480833	 0.1287526734	-0.7471270455	-0.313188
C	-0.0490619302	 1.1338029973	-0.0971267287	 0.406585
C	-1.3096218141	 1.9554074212	 0.1542083265	-0.227093
O	-1.2828370476	 2.6281266755	 1.4019723505	-0.240727
C	-0.186245586	 3.4882010234	 1.4850898306	 0.068549
C	 0.8895537093	 3.1149391253	 2.4730540971	-0.326347
C	 1.108862811	 2.9113619373	 0.9985478259	 0.072703
O	 1.0880400407	 1.591748314	 0.4925718933	-0.218473
H	-1.449468123	 2.6574957619	-0.6823678188	 0.127556
H	-2.1553969091	 1.2671480488	 0.1674115227	 0.154588
H	-0.4131768974	 4.5362084438	 1.2959306444	 0.103916
H	 1.442506603	 3.9038945502	 2.9695143643	 0.126956
H	 0.7014683242	 2.2251304796	 3.0625733812	 0.144334
H	 1.8252211724	 3.5293340882	 0.4680423365	 0.120642
105.7582	194.7825	306.0809	417.7893	462.4583	475.7821	532.3262	614.9357	719.2003	800.2495	819.5184	835.2883	915.5335	1008.0977	1036.2353	1046.7277	1071.3692	1082.7006	1124.6865	1152.5316	1178.1628	1209.9404	1250.2438	1285.4176	1350.2226	1381.6495	1400.969	1466.0146	1477.4906	1867.4159	2993.8959	3115.366	3135.481	3145.3964	3167.4413	3241.9396
O=C1COC2CC2O1	O=C1CO[C@H]2C[C@H]2O1	
InChI=1S/C5H6O3/c6-5-2-7-3-1-4(3)8-5/h3-4H,1-2H2	InChI=1S/C5H6O3/c6-5-2-7-3-1-4(3)8-5/h3-4H,1-2H2/t3-,4+/m0/s1
