17
gdb 47981	6.37284	0.63229	0.5829	4.5443	96.55	-0.243	-0.0736	0.1694	1839.4222	0.135789	-384.692564	-384.683748	-384.682804	-384.72751	30.788	
O	-0.1309052543	-0.0116685736	-0.0783480318	-0.235152
C	-0.0160153272	 1.19356259	-0.0193489538	-0.00729
C	 1.2336317394	 1.8982557842	-0.0373610405	 0.20686
C	 2.2822230938	 2.5075448408	-0.0498301682	-0.136125
C	 3.4782783571	 3.2517674163	-0.0698118866	 0.205913
C	 4.7219803753	 2.7386155627	-0.0634861036	-0.151591
C	 5.7789438276	 3.8069994009	-0.0368531902	-0.249341
C	 4.9892001347	 5.1004325667	-0.3660107632	-0.217717
C	 3.5094108057	 4.7748741678	-0.0460112022	-0.320753
H	-0.9049273745	 1.8533450583	 0.0549915209	 0.09459
H	 4.9428515782	 1.677894868	-0.0412085456	 0.114227
H	 6.2450711643	 3.8490021418	 0.9586242096	 0.121532
H	 6.5936322299	 3.6131826408	-0.7432564928	 0.116528
H	 5.3561765775	 5.9701426576	 0.183337649	 0.106677
H	 5.0900674456	 5.3235535174	-1.4323546166	 0.114699
H	 2.8118659919	 5.216005681	-0.7639735903	 0.117908
H	 3.2102160452	 5.1377424695	 0.9457270759	 0.119034
52.79	71.5846	92.1597	143.3918	196.297	241.9953	392.6024	399.3696	510.7846	564.2089	640.4323	686.706	813.9397	839.3181	869.9838	912.3594	914.562	962.3743	979.1902	1017.7694	1040.9085	1065.3189	1150.9352	1203.8883	1228.9025	1275.3791	1278.9902	1322.3419	1326.1438	1351.574	1422.6034	1476.2468	1486.7767	1505.0614	1655.2285	1752.6599	2298.6924	2911.8863	3003.7001	3027.3977	3052.7773	3064.845	3081.827	3110.7002	3207.8547
O=CC#CC1=CCCC1	O=CC#CC1=CCCC1	
InChI=1S/C8H8O/c9-7-3-6-8-4-1-2-5-8/h4,7H,1-2,5H2	InChI=1S/C8H8O/c9-7-3-6-8-4-1-2-5-8/h4,7H,1-2,5H2
