16
gdb 29495	3.24895	1.60371	1.08245	1.9526	79.58	-0.18	-0.0099	0.1701	1060.6692	0.126659	-400.773418	-400.766196	-400.765252	-400.804746	28.842	
N	-0.0049922389	 1.4395487341	 0.149405944	-0.607667
C	 0.0277469139	 0.0426208325	 0.0324817706	 0.029264
C	-1.0376089097	-0.8256424282	 0.0089473252	-0.103191
O	-0.6145553209	-2.1435345716	-0.0203190555	-0.211162
C	 0.7269197755	-2.0746219638	-0.026442867	 0.339884
C	 1.1876301872	-0.7907348807	 0.0063672947	 0.197267
C	 2.6880710924	-0.8379293673	 0.0162613906	-0.426631
C	 2.9558593913	-2.3395416907	-0.0235360332	-0.080123
C	 1.8021705727	-3.0434571589	-0.0459532767	-0.210434
H	 0.7206435785	 1.8908532446	-0.3927396441	 0.244075
H	-0.9016933686	 1.8355371884	-0.1018132766	 0.242583
H	-2.1042553069	-0.6783307206	 0.0196681405	 0.118526
H	 3.1519992013	-0.3341469126	-0.8429334061	 0.123785
H	 3.1296368858	-0.3824016078	 0.9128255415	 0.133446
H	 3.9547592787	-2.7545365265	-0.0329687063	 0.100564
H	 1.6947138178	-4.118914571	-0.0732460017	 0.109814
162.5858	215.2691	229.2586	265.4597	354.3175	444.14	513.5605	591.7971	609.4831	639.8107	648.2991	676.6689	730.3961	758.496	782.8299	859.098	924.1288	925.1596	934.5469	1030.4652	1087.1087	1114.5826	1131.1373	1139.3354	1199.6687	1262.6219	1280.1682	1324.9246	1426.7732	1444.8718	1492.9911	1535.7687	1598.3874	1633.3466	1662.1229	3021.3504	3048.1467	3218.6241	3240.9308	3279.3081	3534.7044	3624.1311
NC1=COC2=C1CC=C2	Nc1coc2c1CC=C2	
InChI=1S/C7H7NO/c8-6-4-9-7-3-1-2-5(6)7/h1,3-4H,2,8H2	InChI=1S/C7H7NO/c8-6-4-9-7-3-1-2-5(6)7/h1,3-4H,2,8H2
