13
gdb 12584	3.68438	1.98237	1.2992	5.5948	62.41	-0.2388	-0.0914	0.1473	875.6199	0.095178	-398.65805	-398.650535	-398.649591	-398.690069	26.509	
C	-0.0231420953	 1.5351088973	 0.0060576303	-0.495934
C	-0.0071371775	 0.0423459893	-0.0277547914	 0.141571
C	-0.0414565312	-0.7842432435	-1.0965875568	-0.090554
N	-0.0114544048	-2.1402414487	-0.7605411549	-0.349133
C	 0.0468373536	-2.2968959081	 0.6153845908	 0.349208
O	 0.0839350046	-3.3268990871	 1.2322136345	-0.315229
C	 0.0517111489	-0.8184827548	 1.1606089864	 0.222482
O	 0.0955522691	-0.5279083736	 2.3309867585	-0.293306
H	 0.8769958111	 1.9278247315	 0.4914820648	 0.144372
H	-0.0803784148	 1.9568392748	-1.0012992056	 0.122174
H	-0.8774988991	 1.9060954893	 0.5825667964	 0.144628
H	-0.0880523676	-0.5091021768	-2.14279198	 0.146751
H	-0.0296720871	-2.9044801196	-1.4142971331	 0.272971
95.7807	102.4569	235.1857	236.7245	281.332	312.139	451.6765	529.2369	542.5364	605.7335	698.7025	772.4697	828.128	910.5761	927.2783	1015.6647	1069.3998	1104.5267	1126.8337	1314.7923	1339.2657	1409.9619	1421.6324	1473.8162	1494.1214	1678.7141	1817.0953	1862.2345	3033.4333	3087.397	3113.5091	3218.1949	3667.549
CC1=CNC(=O)C1=O	CC1=CNC(=O)C1=O	
InChI=1S/C5H5NO2/c1-3-2-6-5(8)4(3)7/h2H,1H3,(H,6,7,8)	InChI=1S/C5H5NO2/c1-3-2-6-5(8)4(3)7/h2H,1H3,(H,6,7,8)
