19
gdb 98017	4.08971	0.6121	0.54642	4.5137	85.28	-0.2666	-0.0591	0.2074	2020.1476	0.155747	-423.020816	-423.010069	-423.009124	-423.059235	37.065	
C	-0.2098681182	 1.5974169659	-0.1331944316	-0.379216
C	 0.019072208	 0.0725509896	-0.085195663	-0.14407
C	-1.2856408131	-0.693476733	 0.2130997037	-0.377802
C	 0.6407164077	-0.4035354395	-1.3176691886	 0.2248
C	 1.1357032405	-0.8101897912	-2.3422911741	-0.069209
C	 1.7553173932	-1.2540097442	-3.5609748039	 0.190302
O	 1.4887705385	-2.3085465868	-4.1088910992	-0.317262
C	 2.7999103456	-0.3312263449	-4.1781848537	-0.135424
O	 3.3185133654	-0.8780391109	-5.3511647797	-0.421375
H	 0.7255245775	 2.1325659948	-0.3147289876	 0.129528
H	-0.9125908217	 1.8570235609	-0.9304849955	 0.131731
H	-0.6278736629	 1.9409783709	 0.8175946202	 0.122591
H	 0.7290900246	-0.1360414876	 0.7279060367	 0.122328
H	-2.0261339389	-0.5136629833	-0.5718234078	 0.132292
H	-1.106351046	-1.769715018	 0.271328729	 0.134517
H	-1.7058171284	-0.3579692611	 1.1659575226	 0.120547
H	 2.3250715889	 0.6471787471	-4.3595317105	 0.120396
H	 3.5873923569	-0.1575059962	-3.426290852	 0.120652
H	 2.8572763028	-1.7263106824	-5.4579802651	 0.294674
8.8246	61.5919	73.2742	137.1602	163.5251	222.31	237.1581	269.5214	315.9775	338.4329	416.9681	435.7957	502.0488	548.2145	572.0342	593.6357	770.9628	853.9654	932.5359	947.7893	965.9249	1011.2844	1096.9366	1119.625	1133.8559	1175.1624	1224.5778	1235.8048	1310.7565	1310.8271	1342.994	1398.0832	1420.425	1448.892	1485.4233	1488.6862	1489.2874	1499.0979	1510.1044	1745.2368	2326.9911	2974.8044	2991.958	3007.6528	3042.4008	3045.2319	3115.2632	3119.7395	3124.9803	3127.6889	3673.4612
CC(C)C#CC(=O)CO	CC(C)C#CC(=O)CO	
InChI=1S/C7H10O2/c1-6(2)3-4-7(9)5-8/h6,8H,5H2,1-2H3	InChI=1S/C7H10O2/c1-6(2)3-4-7(9)5-8/h6,8H,5H2,1-2H3
