18
gdb 37457	2.82	2.13747	1.79984	0.2806	72.81	-0.2305	0.0699	0.3004	842.0686	0.151082	-401.893031	-401.886916	-401.885972	-401.923161	26.332	
C	 0.0383374064	 1.4837507768	 0.1122365739	-0.298771
C	 1.3586832611	 0.7503921766	 0.0636434696	-0.045926
C	 0.0663339193	-0.0238856817	 0.0906373056	 0.00734
N	-0.0190437824	-0.8804426489	-1.0965637149	-0.127031
C	 0.054568601	-0.4211040212	-2.5018789376	-0.043075
C	 0.2743135532	 1.0134122581	-2.9370083822	-0.119286
O	 1.4582375617	 1.4749757345	-2.29070937	-0.2647
C	 1.9258052991	 0.4934223751	-1.3515004407	 0.047741
C	 1.2774446553	-0.8420724975	-1.7792423205	-0.073146
H	-0.2447138369	 1.9252918675	 1.0629991545	 0.110957
H	-0.2588212399	 2.0668305551	-0.7456268659	 0.133511
H	 2.0428659146	 0.788550893	 0.9035302624	 0.084866
H	-0.2695064768	-0.5441158	 0.9811861393	 0.096733
H	-0.4839854014	-1.067669641	-3.1893670064	 0.099898
H	 0.4301682046	 1.0228092458	-4.0251407361	 0.107455
H	-0.5695787316	 1.6798082254	-2.7192809361	 0.107877
H	 3.0172782718	 0.5070371847	-1.3767890039	 0.08424
H	 1.8454813109	-1.7538191922	-1.935306291	 0.091318
189.3301	252.9293	333.1695	486.9325	547.517	601.5752	652.2058	699.7626	760.0356	776.6524	790.9995	824.6734	836.4757	893.5222	919.331	930.8861	968.5097	977.8429	1002.54	1008.8509	1034.2378	1061.5776	1071.3035	1095.6727	1108.7817	1121.8201	1142.4481	1191.5668	1226.4019	1259.8252	1262.8246	1305.8007	1325.1265	1331.4242	1359.1575	1368.0752	1406.9534	1482.9388	1528.1091	3004.4667	3037.1053	3093.5769	3143.7088	3143.8276	3158.1859	3161.4694	3175.7312	3261.5462
C1C2C1N1C3COC2C13	C1[C@H]2[C@@H]1N1[C@H]3CO[C@@H]2[C@@H]13	
InChI=1S/C7H9NO/c1-3-4(1)8-5-2-9-7(3)6(5)8/h3-7H,1-2H2	InChI=1S/C7H9NO/c1-3-4(1)8-5-2-9-7(3)6(5)8/h3-7H,1-2H2/t3-,4+,5-,6-,7-,8?/m0/s1
