19
gdb 38688	2.66742	2.02375	1.75774	1.4194	77.17	-0.227	0.0057	0.2327	883.1478	0.162965	-385.872584	-385.866156	-385.865212	-385.902872	27.966	
C	-0.0045278803	 1.5453270456	-0.2127962406	-0.323724
C	 1.2885725011	 0.8006494621	 0.0066376832	 0.121766
O	 2.0468677342	 0.9307589466	 1.1865235639	-0.28439
C	 1.5930249448	 0.18580829	 2.3330252975	 0.085461
C	 0.9560245115	-1.1502077667	 1.9147195514	-0.233637
C	-0.3833637529	-0.6078463551	 1.3575490014	-0.071011
C	-0.7208668248	 0.4315581627	 2.4193722605	-0.083248
C	 0.398132712	 0.8826323894	 2.9842008774	-0.08017
C	-0.0199741407	 0.0436854989	 0.0082257216	-0.06499
H	-0.3572674018	 2.1854324915	 0.5862299046	 0.119777
H	-0.2088807796	 1.9098499991	-1.2141940697	 0.104223
H	 1.9509880432	 0.6907295683	-0.8473844133	 0.091323
H	 2.4734904908	 0.0939993562	 2.9720577487	 0.074157
H	 1.5515431631	-1.6939043933	 1.1766804853	 0.098543
H	 0.8006782765	-1.7798116409	 2.7949070736	 0.098989
H	-1.160079857	-1.3641322824	 1.2250845764	 0.06323
H	-1.7273314835	 0.7906938088	 2.6001450111	 0.099169
H	 0.4891546297	 1.6788553293	 3.7125805955	 0.098612
H	-0.2198643964	-0.5783795201	-0.8592303185	 0.085918
198.5514	258.1433	398.9688	408.3827	446.0715	465.625	592.8696	616.2964	732.1298	756.2863	791.7032	799.2398	808.5585	854.7495	890.1926	908.5977	942.5287	957.0565	971.588	988.3185	1007.9483	1026.522	1061.6632	1072.881	1100.0401	1125.5102	1132.667	1166.5024	1174.8661	1212.4125	1239.7995	1296.4887	1299.9717	1318.9659	1340.0006	1365.35	1374.581	1405.7398	1471.9649	1484.1411	1665.8983	3058.7789	3079.2218	3092.438	3113.7031	3134.1589	3136.0076	3148.7172	3190.8173	3219.4245	3230.3975
C1C2OC3CC(C=C3)C12	C1[C@H]2O[C@@H]3C[C@@H](C=C3)[C@@H]12	
InChI=1S/C8H10O/c1-2-6-3-5(1)7-4-8(7)9-6/h1-2,5-8H,3-4H2	InChI=1S/C8H10O/c1-2-6-3-5(1)7-4-8(7)9-6/h1-2,5-8H,3-4H2/t5-,6+,7-,8-/m1/s1
