15
gdb 112236	2.10956	1.45891	0.95921	3.4283	67.29	-0.2857	-0.0097	0.276	1183.2784	0.112294	-453.943833	-453.935313	-453.934368	-453.977723	30.37	
O	-0.1012676032	 1.4081830862	-0.2929875245	-0.412375
C	 0.0247152362	 0.0098582391	-0.1510068589	-0.084303
C	-1.3019097579	-0.6014430877	 0.2549380813	 0.098411
O	-2.3022500837	-0.4091534398	-0.8069386303	-0.270747
C	-2.456884652	-1.7651878354	-0.9898750101	 0.451631
N	-3.1515637408	-2.4298144041	-1.7839919793	-0.520039
C	-1.4959415718	-2.1426181999	 0.1402976479	-0.328935
C	-0.3446553122	-2.9606356768	-0.1992300115	 0.307426
N	 0.5827182532	-3.5988551595	-0.4589375009	-0.320235
H	-0.7338273797	 1.5679433242	-1.0028614133	 0.297691
H	 0.3895624907	-0.4714857869	-1.0702148742	 0.117996
H	 0.7657903911	-0.169700133	 0.6347591248	 0.135439
H	-1.6697755871	-0.1656926244	 1.1863981681	 0.120422
H	-3.6962024774	-1.8375338711	-2.4122280854	 0.24329
H	-2.0195042254	-2.5769888006	 0.9953978963	 0.164327
75.8871	109.2619	115.4644	148.0579	245.0912	358.2577	394.9984	407.3327	466.5895	483.496	565.9283	655.4698	771.4701	818.5366	861.2328	874.6312	937.4119	1001.9939	1022.4318	1078.926	1090.0939	1128.4295	1166.3415	1207.5521	1226.7071	1294.6732	1322.4653	1356.22	1402.2577	1430.7064	1489.7638	1838.282	2365.5916	3005.7619	3083.7872	3092.2871	3103.9844	3490.9589	3803.2273
OCC1OC(=N)C1C#N	OC[C@H]1O[C]([NH])[C@H]1C#N	
InChI=1S/C5H6N2O2/c6-1-3-4(2-8)9-5(3)7/h3-4,7-8H,2H2	InChI=1S/C5H6N2O2/c6-1-3-4(2-8)9-5(3)7/h3-4,7-8H,2H2/t3-,4+/m0/s1
