13
gdb 130303	3.41257	1.61687	1.1097	3.3094	60.7	-0.2067	0.0118	0.2185	994.1714	0.090626	-489.827488	-489.820416	-489.819472	-489.85901	26.543	
N	-0.0161913488	 1.4169699407	 0.156136906	-0.59652
C	 0.0573287582	 0.0433093693	 0.0512675325	 0.293078
N	-1.0583277899	-0.6906179586	-0.0007884131	-0.248924
O	-0.6377163835	-2.0762117037	-0.0274197397	-0.234872
C	 0.6738849383	-2.0339717616	-0.0001942851	 0.460744
C	 1.1890242684	-0.8001884203	 0.0589213311	 0.09594
O	 2.5755567609	-0.86056549	-0.007193254	-0.293769
C	 2.8170021362	-2.2569416908	 0.2250922181	 0.003996
O	 1.595762025	-3.0132847841	-0.0697526323	-0.283784
H	 0.7246748465	 1.9119608663	-0.3190023384	 0.263093
H	-0.9302852819	 1.7807512291	-0.0785532324	 0.265762
H	 3.6100382223	-2.6078577498	-0.4358411375	 0.147102
H	 3.0581988082	-2.4226226365	 1.2841819549	 0.128154
136.6648	183.4261	246.2624	261.5822	320.1098	403.8881	533.6518	601.069	617.8594	649.864	673.4756	731.9945	752.5873	779.6215	870.465	886.347	1037.1123	1116.1142	1126.5944	1137.5854	1223.7333	1252.9887	1413.8897	1425.7689	1517.739	1544.9907	1587.9589	1650.2174	1734.1109	3008.7195	3135.905	3557.8281	3660.291
NC1=NOC2=C1OCO2	Nc1noc2c1OCO2	
InChI=1S/C4H4N2O3/c5-3-2-4(9-6-3)8-1-7-2/h1H2,(H2,5,6)	InChI=1S/C4H4N2O3/c5-3-2-4(9-6-3)8-1-7-2/h1H2,(H2,5,6)
