22
gdb 58866	2.45703	1.41357	1.07208	1.7856	82.01	-0.2299	0.0625	0.2923	1224.3661	0.193062	-404.307525	-404.297829	-404.296884	-404.341861	36.789	
C	-0.004465412	 1.5925039812	 0.3320007262	-0.386263
C	-0.0454815849	 0.0864017173	 0.0200661115	-0.090082
C	 0.8900638306	-0.7121963192	 0.9352849505	-0.40606
C	-1.474774477	-0.4022633851	 0.0621792683	 0.379351
C	-2.1639045534	-0.9626186527	 1.2440418604	-0.287401
N	-1.8946294389	-1.8726996995	 0.1119454014	-0.18236
C	-2.9792719878	-1.563074947	-0.8832347861	-0.199105
C	-2.4992933865	-0.0910155222	-1.0222066949	 0.024037
O	-3.3730111614	 0.9708470814	-0.6998149557	-0.434347
H	 1.0067897866	 1.9904049258	 0.1989424968	 0.107382
H	-0.6830330048	 2.1549835865	-0.3164800816	 0.125191
H	-0.308288797	 1.7805565269	 1.3677250225	 0.117186
H	 0.3044251953	-0.0534101261	-1.0135297946	 0.071078
H	 0.7810894899	-1.7866013577	 0.7631515449	 0.1369
H	 1.9321071034	-0.4350014084	 0.7482337305	 0.109447
H	 0.6838397661	-0.510791705	 1.992122221	 0.11276
H	-1.5593363062	-1.1856899477	 2.1164691291	 0.118654
H	-3.1907854037	-0.6788608867	 1.4615974764	 0.118923
H	-2.8552247285	-2.1644028771	-1.7866258714	 0.10477
H	-3.9914028329	-1.6968994689	-0.4869234361	 0.103089
H	-2.0114040545	 0.0822163467	-1.9908640446	 0.072461
H	-3.9516528225	 1.1284616677	-1.4529134744	 0.284388
55.2129	118.4132	186.5907	202.329	239.3258	253.0377	273.1257	295.7232	315.5929	415.7032	443.5094	505.3888	557.2726	673.3558	716.7743	800.0442	842.4164	869.5236	901.2388	933.9692	963.5425	970.7197	1002.1888	1050.8325	1102.3858	1107.6331	1114.2287	1131.7438	1140.5374	1178.7436	1200.6983	1210.4498	1233.4108	1285.9416	1320.8503	1342.0701	1378.0415	1384.5314	1397.4967	1419.7039	1440.5336	1484.1016	1486.8912	1492.1574	1500.8154	1512.591	1515.7106	2989.8492	3009.6058	3030.002	3035.5648	3044.7705	3096.3511	3101.7419	3107.5119	3110.4387	3114.0493	3117.9774	3207.1721	3812.4139
CC(C)C12CN1CC2O	CC(C)[C@]12CN1C[C@H]2O	
InChI=1S/C7H13NO/c1-5(2)7-4-8(7)3-6(7)9/h5-6,9H,3-4H2,1-2H3	InChI=1S/C7H13NO/c1-5(2)7-4-8(7)3-6(7)9/h5-6,9H,3-4H2,1-2H3/t6-,7+,8?/m1/s1
