16
gdb 30960	2.46146	1.3998	0.94065	4.9771	69.21	-0.1945	0.0423	0.2369	1213.9147	0.125193	-471.244872	-471.236004	-471.23506	-471.278543	32.336	
C	 0.1240768553	 1.1809231068	-0.4661950872	-0.328375
N	-0.0524278793	 0.052052632	 0.4602503463	-0.394088
C	-1.1715461548	-0.7354064224	 0.2625897535	 0.2498
C	-1.2835902129	-2.0202676691	-0.1118188455	 0.264079
N	-0.3235834802	-2.95950102	-0.4809620881	-0.605698
N	-2.6461613339	-2.3145007393	-0.1604339924	-0.408223
C	-3.3876855935	-1.1796056783	 0.1274384262	 0.474989
O	-4.5818009246	-1.0454810212	 0.1420704933	-0.407429
O	-2.4766402603	-0.1982517478	 0.4088554772	-0.24714
H	 1.0666409557	 1.685315118	-0.2352854804	 0.120298
H	 0.181064641	 0.7949694113	-1.4876459194	 0.132232
H	-0.6908681375	 1.9155543237	-0.4198770929	 0.129789
H	 0.0304075965	 0.3668803457	 1.4219864944	 0.236018
H	 0.6011583117	-2.5548903553	-0.3836531025	 0.260494
H	-0.3724514476	-3.808079013	 0.0752319329	 0.250755
H	-3.0603749954	-3.1298730712	-0.5781453255	 0.272499
86.9776	121.8521	160.7946	186.3747	258.2807	292.0513	305.6052	348.9431	391.9128	471.1841	600.4	620.3243	639.9305	660.5261	759.4986	765.7197	832.2326	843.5597	967.9474	1002.8294	1042.6865	1142.0842	1147.275	1171.4411	1238.2719	1298.0299	1357.2784	1451.5015	1472.2431	1481.2995	1491.0088	1520.2264	1641.0039	1797.818	1891.8033	3012.6352	3085.9846	3120.2265	3495.9251	3500.528	3594.3979	3682.5765
CNC1=C(N)NC(=O)O1	CNc1c(N)[nH]c(=O)o1	
InChI=1S/C4H7N3O2/c1-6-3-2(5)7-4(8)9-3/h6H,5H2,1H3,(H,7,8)	InChI=1S/C4H7N3O2/c1-6-3-2(5)7-4(8)9-3/h6H,5H2,1H3,(H,7,8)
