15
gdb 25077	3.35578	1.72653	1.14815	3.7448	76.55	-0.1837	-0.0208	0.1629	988.5539	0.115954	-416.876479	-416.86965	-416.868705	-416.907634	26.769	
O	 0.0692975728	-0.0371103783	 0.0011609239	-0.440628
C	 0.0318545187	 1.1777831115	 0.0085337471	 0.450611
N	-1.0913459662	 2.0136947894	 0.0290288054	-0.360982
C	-0.7432881361	 3.3671340253	 0.0310446464	-0.244191
C	 0.6102063333	 3.4068220446	 0.0118326217	 0.363187
C	 1.778538463	 4.2578341922	-0.0017874291	-0.218885
C	 2.8791755612	 3.482468362	-0.0224454484	-0.097749
C	 2.5178270939	 2.0092696032	-0.0242286603	-0.233043
N	 1.0702265252	 2.087266017	-0.0013229296	-0.139049
H	-2.0227497021	 1.6376481798	 0.0400424763	 0.266883
H	-1.4786756703	 4.1519652109	 0.0457003107	 0.142399
H	 1.7523176334	 5.3381098706	 0.0039710348	 0.118168
H	 3.9042899062	 3.825818315	-0.0363757363	 0.114766
H	 2.8828998822	 1.4817127047	-0.9161505913	 0.139265
H	 2.9104164047	 1.4728822122	 0.8505687588	 0.139247
132.902	187.8108	276.2783	297.3769	391.8609	500.5321	579.4591	643.6102	653.0957	664.9448	684.1366	733.4372	760.5294	814.058	868.8178	943.3178	943.5047	1006.3791	1063.6294	1078.3446	1109.4823	1149.1756	1184.7664	1270.8036	1295.5143	1350.4075	1372.3335	1392.7231	1418.8307	1502.2792	1607.8203	1685.5736	1832.0851	3009.1969	3031.2689	3227.9588	3248.9083	3289.3304	3695.4752
O=C1NC=C2C=CCN12	O=c1[nH]cc2C=CCn12	
InChI=1S/C6H6N2O/c9-6-7-4-5-2-1-3-8(5)6/h1-2,4H,3H2,(H,7,9)	InChI=1S/C6H6N2O/c9-6-7-4-5-2-1-3-8(5)6/h1-2,4H,3H2,(H,7,9)
