20
gdb 73007	2.77766	1.49308	1.19533	2.334	78.76	-0.2325	0.0672	0.2997	1107.4793	0.170807	-403.081836	-403.07343	-403.072486	-403.114693	32.102	
C	-0.0521565633	 1.5483189714	 0.0563600315	-0.492849
C	 0.055545704	 0.0560919274	-0.0411253911	 0.263836
C	-0.6529026201	-0.8090427808	-1.0877716544	-0.310541
C	-0.9802893573	-1.7856642896	 0.0696443303	-0.154115
N	-0.3386317474	-0.8940568957	 1.1011718109	-0.224161
C	 1.0558627247	-0.7498691991	 0.677861708	 0.267258
C	 2.0502658715	-1.81356138	 0.2125986579	-0.152808
O	 3.0641249411	-1.2629250673	 1.079967379	-0.278194
C	 2.1544236979	-0.2798509163	 1.6238407241	-0.162333
H	 0.5191694026	 2.0312676153	-0.7455842039	 0.124784
H	-1.0941884953	 1.8741856307	-0.0308409178	 0.12478
H	 0.3351616493	 1.9109097026	 1.0127152109	 0.131277
H	-1.5425202361	-0.33039299	-1.5025933492	 0.112576
H	-0.0375602218	-1.1769112249	-1.9148581927	 0.103421
H	-2.0469599918	-1.8814403546	 0.278807975	 0.114094
H	-0.542324238	-2.7879837314	 0.0192219771	 0.105602
H	 1.7942935899	-2.8462597689	 0.4855447173	 0.106222
H	 2.3482806755	-1.7831807225	-0.8432505781	 0.105065
H	 2.5251605308	 0.7429381503	 1.4822018946	 0.102409
H	 1.940517614	-0.4491770166	 2.6860880806	 0.113677
100.7846	165.21	175.1094	187.2785	241.1491	263.1624	340.5641	430.3954	495.4714	540.2717	632.7607	747.0499	786.2174	811.5732	873.4797	922.2657	938.1597	964.0498	983.406	1008.4466	1011.0442	1030.0281	1084.582	1115.3718	1128.1829	1152.1375	1160.5242	1178.4832	1192.6873	1224.4423	1239.943	1285.4652	1306.5518	1318.6779	1360.8886	1411.5133	1469.8903	1481.8086	1490.5038	1499.3021	1503.3354	1519.1992	1528.0467	2999.8211	3017.0519	3027.4087	3043.0146	3047.8227	3055.0761	3061.5146	3088.5242	3102.4687	3112.5264	3121.0638
CC12CCN1C21COC1	C[C@]12CCN1C12COC1	
InChI=1S/C7H11NO/c1-6-2-3-8(6)7(6)4-9-5-7/h2-5H2,1H3	InChI=1S/C7H11NO/c1-6-2-3-8(6)7(6)4-9-5-7/h2-5H2,1H3/t6-,8?/m1/s1
