19
gdb 30063	2.95914	1.38012	1.00517	4.0036	81.98	-0.21	0.0331	0.2431	1196.0296	0.161309	-382.096098	-382.087661	-382.086717	-382.129862	31.141	
C	-0.4689205833	 1.2806133877	 0.239793438	-0.34045
N	-0.0462431072	-0.0950075354	 0.0823573635	-0.049203
C	-0.0161366178	-0.8082544579	-1.0810006217	-0.006396
N	 0.4189338504	-2.0341993184	-0.9061420037	-0.274403
C	 0.6909103945	-2.1223769896	 0.4379470124	-0.170699
C	 0.4120626936	-0.9406996879	 1.0824341904	 0.276218
C	 0.526148676	-0.5159844135	 2.4898595899	-0.136265
C	-0.6826549422	-0.5438464534	 3.41408106	-0.255267
C	 0.4313032479	-1.5390273807	 3.5931658073	-0.263435
H	 0.3664498864	 1.9229934127	 0.5380005457	 0.140157
H	-0.8598656524	 1.641111917	-0.7136051572	 0.142537
H	-1.2551381746	 1.3614565646	 0.9958194801	 0.147968
H	-0.3264922553	-0.37073179	-2.0194323258	 0.120376
H	 1.0781874818	-3.0301826356	 0.8758518083	 0.10402
H	 1.2195444109	 0.3025448212	 2.6747020638	 0.093089
H	-0.7851178649	 0.2550523637	 4.1402373064	 0.11176
H	-1.6179226632	-0.9057781344	 3.0019873136	 0.119595
H	 0.2363810671	-2.5663712268	 3.3091240285	 0.125595
H	 1.0932465523	-1.4270272932	 4.4440208005	 0.114801
53.2935	106.2804	148.2335	164.907	207.3785	301.2422	380.0342	483.9227	591.2457	668.9672	691.7697	717.9364	795.378	805.8335	829.0737	848.2302	901.9429	927.9518	942.5113	1059.5236	1074.7715	1083.8825	1090.6532	1130.3633	1147.9222	1151.8209	1181.8162	1200.2994	1230.022	1259.3336	1296.0504	1371.1696	1383.7593	1429.2989	1456.956	1465.3266	1481.7218	1499.7497	1511.7738	1531.6255	1602.5885	3037.795	3098.9053	3112.4843	3134.9321	3136.3907	3145.6009	3218.7838	3234.4145	3235.8266	3244.7798
CN1C=NC=C1C1CC1	Cn1cncc1C1CC1	
InChI=1S/C7H10N2/c1-9-5-8-4-7(9)6-2-3-6/h4-6H,2-3H2,1H3	InChI=1S/C7H10N2/c1-9-5-8-4-7(9)6-2-3-6/h4-6H,2-3H2,1H3
