21
gdb 108932	4.14132	0.9461	0.87302	1.6708	88.46	-0.2046	0.0216	0.2263	1435.1744	0.181772	-387.087227	-387.07813	-387.077186	-387.121567	34.301	
C	-0.3954269748	 1.4696793056	-0.0347061415	-0.373873
C	 0.1415340463	 0.0291654048	 0.0533997941	-0.291469
C	 0.8377974265	-0.4293542947	-1.1911071134	 0.299087
C	 2.1174631626	-0.7609181848	-1.3618851971	-0.301881
C	 2.3594584132	-1.1647478943	-2.7618075651	 0.456781
C	 3.6085790315	-0.845893923	-3.5416388406	-0.324976
C	 3.2795393809	-2.2826483724	-3.1809827149	-0.325086
O	 1.1197808702	-1.0476297067	-3.4345489606	-0.312015
C	 0.1269712912	-0.6018706582	-2.5145416025	-0.171825
H	 0.41705875	 2.1771125349	-0.226886445	 0.123311
H	-1.1291530459	 1.5773422805	-0.8396150018	 0.121657
H	-0.8842203419	 1.7572910581	 0.9009697782	 0.11563
H	 0.8306183133	-0.0524863463	 0.9009609695	 0.105758
H	-0.6979206252	-0.6469410739	 0.2697216908	 0.10589
H	 2.8934268253	-0.7558761724	-0.6064597186	 0.10103
H	 3.4643882758	-0.5471806173	-4.5739990671	 0.123398
H	 4.4292641885	-0.3513184138	-3.0324947048	 0.110314
H	 3.8729251384	-2.7830807575	-2.4228005892	 0.110254
H	 2.9193358771	-2.9244408122	-3.9773132064	 0.123399
H	-0.6865726508	-1.3437036788	-2.4507325942	 0.100501
H	-0.320989812	 0.3343429524	-2.8827669297	 0.104111
53.4707	85.2508	126.0329	195.7125	232.827	268.8702	332.6961	375.7008	454.7805	532.2455	548.2797	617.2565	763.6482	785.2104	833.2087	835.685	893.7486	903.3405	910.2221	916.6988	960.6455	979.8556	1028.1659	1047.8476	1060.2031	1061.7221	1092.8319	1103.0304	1161.168	1191.4279	1199.6159	1241.7455	1274.624	1321.0473	1351.4231	1388.51	1393.6137	1408.7346	1448.5704	1480.1699	1490.4461	1498.9727	1506.785	1521.8948	1719.8247	2962.423	2983.6745	3007.6064	3038.8998	3063.7782	3110.0228	3112.7016	3128.1154	3130.7484	3210.0504	3213.8305	3228.9243
CCC1=CC2(CC2)OC1	CCC1=CC2(CC2)OC1	
InChI=1S/C8H12O/c1-2-7-5-8(3-4-8)9-6-7/h5H,2-4,6H2,1H3	InChI=1S/C8H12O/c1-2-7-5-8(3-4-8)9-6-7/h5H,2-4,6H2,1H3
