13
gdb 129403	2.9756	1.65831	1.06609	3.9998	61.14	-0.2595	-0.0239	0.2356	1016.9873	0.090501	-486.095021	-486.08758	-486.086636	-486.127279	27.654	
N	 0.752363391	 0.0462969123	-0.8496269555	-0.572156
C	-0.0234662648	 0.1412660954	 0.2625891381	 0.461246
N	 0.0938082683	 0.8577967621	 1.3085186759	-0.554701
N	-1.1796598359	-0.6942923462	 0.2003782787	-0.206196
C	-2.1817876964	-0.7185142338	 1.139462482	 0.109801
N	-3.1039794938	-1.5716324864	 0.8664733591	-0.137046
O	-2.6911050696	-2.1771267918	-0.3533302397	-0.234476
C	-1.5122032959	-1.6460490516	-0.7636241039	 0.55811
O	-0.9141959067	-1.966283753	-1.760083059	-0.413936
H	 1.6663276388	 0.4625249692	-0.8246202306	 0.264562
H	 0.5602444859	-0.6892037621	-1.5197011644	 0.295763
H	 0.9295086778	 1.436408617	 1.2768643408	 0.22242
H	-2.1717265886	-0.077488161	 2.0057631088	 0.20661
72.7359	147.3962	254.8821	261.4032	326.0582	410.8002	443.6959	551.9101	601.4602	609.4299	655.2872	715.2713	767.6042	778.2804	797.5202	899.0407	923.7664	948.2665	1099.442	1122.441	1126.4394	1178.4712	1282.8005	1353.5282	1455.9066	1632.447	1652.3991	1748.2773	1857.4009	3296.5087	3514.1422	3527.6932	3712.7676
NC(=N)N1C=NOC1=O	NC(=N)n1cnoc1=O	
InChI=1S/C3H4N4O2/c4-2(5)7-1-6-9-3(7)8/h1H,(H3,4,5)	InChI=1S/C3H4N4O2/c4-2(5)7-1-6-9-3(7)8/h1H,(H3,4,5)
