13
gdb 133285	3.10623	1.35455	0.94875	1.7559	66.84	-0.2516	-0.0977	0.1539	1132.1022	0.089267	-490.185821	-490.178195	-490.177251	-490.218685	26.896	
C	 0.1140343046	 1.4444058988	 0.0756493088	-0.33657
N	 0.0013493817	-0.0004376833	 0.1551827844	-0.337356
C	-1.1343966618	-0.5432943235	 0.0585510183	 0.489265
N	-1.1874117714	-1.9588245409	 0.1430933898	-0.234116
N	-2.2622008689	-2.7072267201	 0.0667887913	-0.003688
N	-3.4028586065	-2.1463941572	-0.1010840908	-0.269226
C	-3.3736529511	-0.7622935073	-0.1864576398	 0.387461
F	-4.5742424081	-0.2670690746	-0.3571009193	-0.033392
N	-2.3857549708	 0.042533529	-0.1237801661	-0.358368
H	 0.7849820362	 1.7045448049	-0.7508707315	 0.130309
H	-0.8423249866	 1.9581254839	-0.0674707593	 0.139169
H	 0.5839824436	 1.8162059586	 0.9931912977	 0.130305
H	-0.317779931	-2.4592198384	 0.2757928964	 0.296208
84.0768	105.9412	198.9395	204.2687	243.0303	433.0706	433.808	502.3913	570.3979	622.9169	714.4256	732.6185	768.1604	807.8984	980.9991	1011.8338	1070.5615	1134.8773	1165.1963	1204.8077	1219.1381	1363.464	1402.7547	1439.4304	1494.8103	1495.127	1519.5155	1682.6879	1781.3972	3020.6967	3078.1855	3097.7479	3598.4076
CN=C1NN=NC(F)=N1	C[N]c1[nH]nnc(F)n1	
InChI=1S/C3H4FN5/c1-5-3-6-2(4)7-9-8-3/h1H3,(H,5,6,7,8)	InChI=1S/C3H9FN5/c1-5-3-6-2(4)7-9-8-3/h2-3,6-9H,1H3
