15
gdb 31314	2.34576	1.46242	0.92094	4.4205	78.28	-0.2215	-0.0169	0.2045	1198.0341	0.11318	-416.812542	-416.804162	-416.803217	-416.846225	30.74	
O	 0.1742975727	 1.2327568985	-0.822647632	-0.418322
C	 0.0537166454	 0.1927701129	 0.1270075566	-0.167675
C	-1.3451626925	-0.345356835	 0.1758311762	 0.165176
C	-2.0912574204	-0.7968211664	 1.2488432434	 0.112601
N	-3.3017711676	-1.1927908817	 0.6925252541	-0.328148
C	-3.2322890908	-0.9608827847	-0.6406649082	 0.0099
N	-2.0667089141	-0.4553180036	-0.9844485902	-0.320627
C	-1.812386025	-0.8831448844	 2.6238399627	 0.279085
C	-1.5734522058	-0.9553651914	 3.8030212647	-0.460684
H	-0.4002340622	 0.9855848129	-1.5587140746	 0.295054
H	 0.7524058602	-0.6310299702	-0.1014499854	 0.10019
H	 0.339232354	 0.591420475	 1.106041485	 0.118719
H	-4.0834208788	-1.5647894653	 1.2065979223	 0.275626
H	-4.0521454302	-1.1757431219	-1.3095087671	 0.141864
H	-1.3536363949	-1.0140835248	 4.8402551924	 0.19724
43.436	122.0978	163.4991	194.7922	284.9223	381.7404	411.0184	460.0043	518.3243	542.7812	564.6626	594.4561	671.9984	687.4434	700.7323	778.9906	821.9912	958.6549	1006.1121	1071.7314	1102.3414	1143.2139	1220.225	1260.9565	1296.2562	1345.2049	1382.2635	1436.0039	1467.8357	1507.0469	1510.2055	1595.4789	2228.0629	2948.0297	3070.5253	3254.9192	3500.6222	3661.6104	3770.059
OCC1=C(NC=N1)C#C	OCc1c([nH]cn1)C#C	
InChI=1S/C6H6N2O/c1-2-5-6(3-9)8-4-7-5/h1,4,9H,3H2,(H,7,8)	InChI=1S/C6H6N2O/c1-2-5-6(3-9)8-4-7-5/h1,4,9H,3H2,(H,7,8)
