23
gdb 104197	2.37394	1.26649	1.20763	2.2971	81.48	-0.2396	0.0653	0.3049	1234.2514	0.202486	-425.420334	-425.40968	-425.408736	-425.455548	40.025	
C	-0.016819216	 1.5552591946	-0.300482689	-0.392688
C	-0.0166563267	 0.0670450602	 0.0726607626	-0.219458
C	-1.4154279984	-0.5480859641	 0.1481008006	 0.383172
C	-2.2849265732	 0.1012635473	 1.2228292776	-0.424503
O	-2.0797858401	-0.4743078867	-1.1521025089	-0.328581
C	-2.4558677051	-1.8609459248	-1.1057103372	-0.11755
C	-1.5396944678	-2.1155179301	 0.1162849959	 0.288692
C	-0.2829249131	-2.9167650099	-0.1992580106	-0.465802
O	-2.1675500284	-2.6164985096	 1.2805698371	-0.469258
H	 1.0058098514	 1.907645009	-0.4656479748	 0.108271
H	-0.5847648306	 1.7156846802	-1.2212800178	 0.137778
H	-0.4564602642	 2.1784909539	 0.4832551624	 0.117475
H	 0.5678764436	-0.4754232317	-0.6758540602	 0.093231
H	 0.4856118775	-0.0815183745	 1.0372613423	 0.09585
H	-2.4249987363	 1.1610744049	 0.9959387077	 0.117922
H	-3.2655091421	-0.3736695914	 1.2733765059	 0.126827
H	-1.8188377387	 0.01090987	 2.2087056008	 0.115806
H	-3.5205597635	-2.0010354892	-0.876906501	 0.095241
H	-2.209531476	-2.3863370151	-2.0366934684	 0.09127
H	 0.2035884172	-2.5741101489	-1.1152923573	 0.134551
H	 0.4372077947	-2.8633108947	 0.6226949743	 0.127487
H	-0.5497210777	-3.9708838716	-0.3523807506	 0.105816
H	-2.1119086967	-3.5771549077	 1.2654493084	 0.278451
66.5142	69.891	183.1493	195.8508	220.1062	229.6921	265.3313	291.2709	327.4004	330.9642	352.4879	376.5269	420.8576	485.3754	554.0985	632.0199	690.7171	781.9232	871.324	897.0947	909.6645	938.0365	977.4011	995.5459	1018.4268	1030.6502	1052.8896	1104.7117	1150.4279	1169.5216	1186.5339	1206.3941	1218.623	1266.4658	1307.086	1333.271	1367.1175	1391.7408	1402.8476	1407.2451	1412.04	1470.5406	1483.9658	1486.973	1495.8222	1500.3646	1505.161	1511.5416	1518.9915	3004.6041	3021.1337	3029.2387	3043.4473	3052.3117	3053.9971	3080.2118	3091.6018	3109.5648	3120.6341	3123.7391	3128.4043	3142.7437	3817.0241
CCC1(C)OCC1(C)O	CC[C@@]1(C)OC[C@]1(C)O	
InChI=1S/C7H14O2/c1-4-7(3)6(2,8)5-9-7/h8H,4-5H2,1-3H3	InChI=1S/C7H14O2/c1-4-7(3)6(2,8)5-9-7/h8H,4-5H2,1-3H3/t6-,7+/m0/s1
