18
gdb 92973	2.37912	1.6405	1.15253	4.1218	73.13	-0.2418	0.0015	0.2432	1080.3102	0.148609	-439.129819	-439.121313	-439.120368	-439.163494	32.506	
N	 0.0511086675	 0.8240126954	-0.9978296262	-0.518014
C	 0.0715321939	-0.1102177528	-0.0166979553	 0.412459
O	 1.0804512323	-0.3724966639	 0.6260375589	-0.392504
C	-1.2368243378	-0.8543394834	 0.2707108848	-0.194647
C	-2.4414420145	-0.4485487278	-0.5434451325	-0.120503
C	-2.7343207273	-1.3484829243	-1.4851399235	-0.065252
C	-1.7973804984	-2.5292264526	-1.4544917377	-0.265195
C	-1.0959648343	-2.3853919339	-0.0816919322	 0.145715
O	 0.2123003867	-2.8898687323	-0.1074632646	-0.449706
H	 0.9228571819	 1.2523865231	-1.2649356577	 0.263886
H	-0.7499015222	 0.9194735474	-1.5989261051	 0.263121
H	-1.3877705799	-0.7338496214	 1.3484474538	 0.110506
H	-2.9781145881	 0.4787117328	-0.3712902977	 0.103332
H	-3.5470347796	-1.2578536896	-2.1981505952	 0.101017
H	-2.3110929678	-3.4901446134	-1.5601395596	 0.111296
H	-1.0509757612	-2.4780192712	-2.2581420708	 0.119259
H	-1.6979769373	-2.9270366981	 0.6643990512	 0.07554
H	 0.7755065561	-2.2845031738	 0.4012871193	 0.299689
45.4349	73.978	211.5298	231.1082	343.0685	384.0304	393.1125	433.8872	477.1232	513.1029	558.0403	589.2419	650.6948	722.4337	751.9903	784.211	850.1375	894.6105	962.1462	980.688	1011.3464	1032.0507	1063.7585	1099.1076	1127.4494	1136.965	1171.8913	1243.4407	1290.7858	1299.8372	1328.6913	1358.0735	1363.7153	1389.6214	1455.0582	1483.9821	1603.0692	1675.0099	1759.3966	2970.1885	3027.2906	3057.8823	3076.1366	3175.2349	3200.4187	3590.8453	3664.3872	3725.5352
NC(=O)C1C=CCC1O	NC(=O)[C@H]1C=CC[C@H]1O	
InChI=1S/C6H9NO2/c7-6(9)4-2-1-3-5(4)8/h1-2,4-5,8H,3H2,(H2,7,9)	InChI=1S/C6H9NO2/c7-6(9)4-2-1-3-5(4)8/h1-2,4-5,8H,3H2,(H2,7,9)/t4-,5+/m0/s1
