13
gdb 128731	2.76884	1.64545	1.03887	3.5019	63.47	-0.2647	-0.0688	0.1959	1058.2298	0.08899	-489.868418	-489.860836	-489.859892	-489.901009	26.96	
C	-0.0368322436	 1.3787390756	 0.0492053321	-0.241355
O	 0.0237293025	-0.0529036394	-0.0367460694	-0.217255
C	 0.6257254777	-0.5758973689	-1.0913130619	 0.33746
N	 1.1301829571	 0.2024511787	-1.9927288535	-0.186867
O	 1.7464546745	-0.4504139735	-3.0702953552	-0.208188
C	 1.7722146174	-1.7844989032	-3.0960014252	 0.172779
N	 1.2965098966	-2.6103731786	-2.244567416	-0.318074
C	 0.6562494979	-2.0774801973	-1.1232007774	 0.352387
O	 0.1667409614	-2.7457338355	-0.2490728882	-0.305035
H	 0.9701328317	 1.8040539189	 0.0710260548	 0.150221
H	-0.5780993912	 1.7912448553	-0.8064914502	 0.150221
H	-0.5651392275	 1.5883675656	 0.9782552165	 0.14951
H	 2.2848845554	-2.1207644078	-3.9952912864	 0.164196
79.1872	138.1484	189.2229	216.2303	311.9761	360.6399	448.9356	502.7834	541.357	589.215	616.4298	745.0184	829.5354	928.3131	968.1164	983.0846	1006.6853	1091.7211	1175.6132	1211.7046	1256.9893	1387.6719	1423.7675	1481.1804	1488.8092	1493.82	1617.811	1645.9023	1819.4461	3049.6752	3124.7508	3169.0206	3169.2447
COC1=NOC=NC1=O	COc1nocnc1=O	
InChI=1S/C4H4N2O3/c1-8-4-3(7)5-2-9-6-4/h2H,1H3	InChI=1S/C4H4N2O3/c1-8-4-3(7)5-2-9-6-4/h2H,1H3
