19
gdb 85692	2.151	1.51905	1.15301	1.8371	81.47	-0.2505	0.0215	0.272	1159.16	0.156874	-385.823873	-385.814791	-385.813847	-385.857833	34.362	
C	-0.7512432936	 1.3122167857	-0.0063522443	-0.400782
C	-0.0449141523	-0.0270415502	-0.0599391775	 0.090753
O	 1.1787758764	 0.0274759404	-0.8455334985	-0.312152
C	 1.9811067398	-0.5017259403	 0.2408964895	-0.116163
C	 3.1082334138	 0.3406455717	 0.6067691125	 0.337302
C	 4.0416776863	 1.022129135	 0.938452693	-0.450442
C	 0.7491714544	-0.4954201404	 1.1598319985	 0.277335
C	 0.6694046923	-0.0275344118	 2.5769234509	-0.323346
C	 0.3908750196	-1.4737596794	 2.2312508575	-0.329729
H	-0.0947014138	 2.0797346601	 0.4122700065	 0.128841
H	-1.0486962997	 1.6191742235	-1.0139001068	 0.128476
H	-1.6562866837	 1.2462181541	 0.6079655682	 0.113029
H	-0.7163754301	-0.7989582378	-0.4632840157	 0.075597
H	 2.33965508	-1.5121828828	-0.0025622368	 0.101395
H	 4.8684856819	 1.628105765	 1.2167151754	 0.200804
H	 1.6028036881	 0.2137174744	 3.0750247403	 0.127526
H	-0.167156349	 0.6021765097	 2.8623118969	 0.117098
H	-0.635851995	-1.8241083497	 2.2775373461	 0.115938
H	 1.1288336146	-2.2200407872	 2.5088846745	 0.118521
47.3402	123.9937	183.3065	203.4141	217.1223	262.7658	318.5066	369.5466	488.4807	503.9055	524.6643	592.7203	618.3784	671.6413	768.0286	793.3166	840.997	888.7969	918.9639	967.9061	972.9029	982.2563	1035.6236	1055.7714	1079.3434	1085.9947	1102.6741	1139.4313	1187.2656	1226.0564	1255.5233	1291.9792	1347.2122	1378.9375	1402.5236	1413.6507	1463.2508	1483.1267	1491.0513	1509.0861	2232.091	2992.1372	2997.6392	3034.6927	3104.0481	3121.1575	3123.2877	3128.9206	3200.4746	3217.0969	3500.6956
CC1OC(C#C)C11CC1	C[C@H]1O[C@@H](C#C)C21CC2	
InChI=1S/C8H10O/c1-3-7-8(4-5-8)6(2)9-7/h1,6-7H,4-5H2,2H3	InChI=1S/C8H10O/c1-3-7-8(4-5-8)6(2)9-7/h1,6-7H,4-5H2,2H3/t6-,7+/m1/s1
