16
gdb 61031	3.84223	1.08945	0.89999	1.3129	65.67	-0.2585	-0.0474	0.2111	1227.8938	0.123946	-475.037791	-475.029513	-475.028568	-475.071673	29.527	
O	-0.1717578406	 1.3369164304	 0.0692458188	-0.432703
C	 0.0555927398	-0.042751143	 0.0695178734	 0.0273
C	 0.7663827979	-0.4653430069	-1.2026124946	 0.130858
O	 1.0617573643	 0.3465152944	-2.0473742151	-0.260731
C	 0.8784346903	-0.429426569	 1.3148810382	 0.056497
C	 0.1526598632	-0.1258449511	 2.6520278728	-0.198912
N	-0.160494125	-1.4508632375	 3.2174717775	-0.252841
C	 0.3687359513	-2.2950654778	 2.4406573456	 0.118672
O	 1.0438102899	-1.8701897497	 1.3356189287	-0.237534
H	 0.200622136	 1.6612620566	-0.7673941253	 0.299685
H	-0.8958585064	-0.602695176	 0.1159205464	 0.104942
H	 1.0019368175	-1.5399334715	-1.3065404256	 0.122147
H	 1.8700240969	 0.0262716455	 1.2522478927	 0.107912
H	 0.7835645837	 0.4310087884	 3.3515017154	 0.126082
H	-0.7603451989	 0.4557309945	 2.4998133674	 0.141969
H	 0.3504326801	-3.3720147271	 2.5633130537	 0.146658
67.9219	73.8103	115.0556	184.4518	300.9599	348.3962	382.7387	420.3886	483.6185	517.5122	750.4251	763.2726	825.1951	880.707	926.2599	953.4659	971.4397	975.055	993.7736	1062.1585	1104.5744	1116.9754	1162.0089	1204.3495	1270.084	1292.956	1306.1719	1319.6438	1342.904	1373.6509	1386.085	1438.2881	1502.7392	1715.2716	1807.5006	2951.8555	2982.1996	3056.9976	3078.8478	3101.6355	3221.4227	3673.4399
OC(C=O)C1CN=CO1	O[C@@H](C=O)[C@H]1CN=CO1	
InChI=1S/C5H7NO3/c7-2-4(8)5-1-6-3-9-5/h2-5,8H,1H2	InChI=1S/C5H7NO3/c7-2-4(8)5-1-6-3-9-5/h2-5,8H,1H2/t4-,5+/m0/s1
