23
gdb 56139	3.18342	0.75556	0.7066	3.0417	82.85	-0.2383	-0.0031	0.2353	1731.9338	0.200719	-425.461878	-425.450224	-425.44928	-425.499906	41.735	
C	-0.0086235734	 1.5136645054	-0.218140868	-0.472478
C	 0.103809767	 0.0015344552	-0.1087973724	 0.376934
O	 1.1766984215	-0.5584536561	-0.1258047309	-0.294144
C	-1.2089860294	-0.7582443009	 0.0205827473	-0.316329
C	-1.0276022981	-2.2733812267	 0.104293498	-0.167771
C	-2.3370286366	-3.0791019287	 0.0491344178	 0.330076
C	-2.0161180464	-4.5792975919	-0.0097395535	-0.41341
C	-3.2589310638	-2.7789646288	 1.2414280257	-0.414958
O	-2.977120032	-2.6773250103	-1.1715365514	-0.461611
H	 0.9857091786	 1.9549352678	-0.2958507848	 0.139815
H	-0.603186484	 1.7877993028	-1.0968732644	 0.138319
H	-0.527370284	 1.9242416348	 0.6554025616	 0.134178
H	-1.7342273552	-0.3592833413	 0.8989738916	 0.112121
H	-1.8456454703	-0.5025557667	-0.835266719	 0.140359
H	-0.3930669257	-2.5917536002	-0.7284395699	 0.116059
H	-0.4836286897	-2.5344650318	 1.0178691649	 0.101927
H	-1.478350724	-4.9088419929	 0.8852537709	 0.115555
H	-2.9374208799	-5.1699765202	-0.0793873898	 0.098557
H	-1.4006116475	-4.80060919	-0.8859564168	 0.123862
H	-3.5634538469	-1.7294026135	 1.2502146813	 0.120233
H	-4.1677736848	-3.3899780331	 1.1852735786	 0.102178
H	-2.7672423486	-3.0075410847	 2.1926584584	 0.11587
H	-3.8028143665	-3.1669744284	-1.2465646054	 0.274659
21.8329	62.5374	95.3617	120.7461	134.3283	222.7585	236.8493	256.5854	277.0461	294.7477	339.0224	385.7255	428.5595	467.055	481.125	520.6831	590.1793	739.0982	762.9611	843.2271	895.2693	911.0557	923.8186	958.8199	966.9143	1005.6662	1054.7172	1080.1777	1152.8513	1169.3782	1173.1401	1203.4421	1245.5107	1315.0651	1329.7847	1371.7991	1382.5966	1395.058	1400.348	1415.0623	1453.9173	1466.6334	1473.0561	1477.8449	1482.3375	1486.6554	1499.8423	1510.1161	1809.3137	3024.0154	3024.9343	3030.8571	3037.7455	3054.825	3064.5076	3088.5714	3094.6027	3096.8922	3099.3905	3117.3147	3120.8844	3151.0451	3809.2473
CC(=O)CCC(C)(C)O	CC(=O)CCC(C)(C)O	
InChI=1S/C7H14O2/c1-6(8)4-5-7(2,3)9/h9H,4-5H2,1-3H3	InChI=1S/C7H14O2/c1-6(8)4-5-7(2,3)9/h9H,4-5H2,1-3H3
