19
gdb 38348	2.24141	2.11241	1.31224	1.6353	84.38	-0.2205	-0.0317	0.1888	1008.6897	0.162179	-385.878398	-385.871146	-385.870201	-385.909987	29.215	
C	 0.0503507729	 1.4544306604	-0.2140332109	-0.322806
C	 1.5634400446	 1.2420413032	-0.0127615957	 0.134584
C	 2.1974564625	 1.7865206911	 1.2513503949	-0.282035
C	 1.5550045404	 1.560356779	 2.5907346887	-0.055723
C	 0.5595689517	 0.7866744611	 3.0668784763	-0.069635
C	-0.3979630785	-0.1659053267	 2.5104248162	-0.056914
C	-0.6976571025	-0.5486560603	 1.2573773677	-0.097661
C	-0.046552421	-0.0803089111	-0.0006561973	 0.087308
O	 1.4034018709	-0.191296138	 0.0400871108	-0.300244
H	-0.4531016475	 2.0678629339	 0.5336507068	 0.119151
H	-0.2329200915	 1.7849221012	-1.2141349329	 0.108783
H	 2.1849253064	 1.5335342643	-0.8694656952	 0.071697
H	 3.2195024903	 1.3786081234	 1.3054218846	 0.128692
H	 2.3379164527	 2.8712322695	 1.1236158546	 0.10865
H	 2.0488577278	 2.1578603587	 3.3570082079	 0.091715
H	 0.4193172068	 0.8913297391	 4.1418790021	 0.082937
H	-0.9967426319	-0.6358271606	 3.2886364021	 0.08939
H	-1.4934672853	-1.2798712872	 1.1400890242	 0.088489
H	-0.4451803888	-0.6304484311	-0.859980755	 0.073621
91.6632	225.81	234.5793	307.2641	340.0466	384.8884	521.0458	564.5505	676.2804	708.5389	729.0533	801.1435	805.0771	823.1989	840.6946	880.5915	926.3209	963.6968	987.1715	1003.171	1018.6996	1025.6616	1068.27	1097.018	1120.2162	1135.797	1224.6731	1248.4855	1267.0933	1291.8503	1316.8617	1337.302	1377.1061	1395.309	1411.585	1436.5814	1444.7759	1475.3178	1488.3071	1669.6036	1702.1225	2985.1703	3011.3061	3016.4015	3038.6173	3085.1158	3109.0537	3127.4437	3142.1712	3143.4518	3162.3752
C1C2CC=CC=CC1O2	C1[C@H]2CC=CC=C[C@@H]1O2	
InChI=1S/C8H10O/c1-2-4-7-6-8(9-7)5-3-1/h1-4,7-8H,5-6H2/b3-1-,4-2-	InChI=1S/C8H10O/c1-2-4-7-6-8(9-7)5-3-1/h1-4,7-8H,5-6H2/b3-1-,4-2-/t7-,8+/m0/s1
