17
gdb 65374	3.52422	0.99445	0.97798	5.9245	75.56	-0.2546	0.0209	0.2756	1270.6251	0.134863	-417.96289	-417.954291	-417.953347	-417.996556	32.082	
O	-0.0056254896	 1.3296451754	 0.0203238649	-0.457974
C	 0.0399249202	-0.0574498449	-0.0054854709	 0.266181
C	-0.476232657	-0.829013248	 1.1997747394	-0.351585
C	-1.2956227917	-0.7975242779	-0.0633484896	-0.045168
N	-2.4182641343	 0.0927980388	-0.1188425426	-0.092176
C	-3.3844970471	-0.1046243443	-1.1992629971	-0.225227
C	-3.739703898	-0.4490053339	 0.204352066	-0.217234
C	 1.1539214444	-0.5939582816	-0.7501849791	 0.26285
N	 2.0347224242	-1.0575049825	-1.3389114409	-0.345911
H	-0.9509203937	 1.5488850441	-0.0475451174	 0.294485
H	 0.0027880548	-1.7627247541	 1.4700114734	 0.140111
H	-0.800272645	-0.2049524096	 2.0248901055	 0.137826
H	-1.3454885829	-1.7106546541	-0.6560420159	 0.110355
H	-3.7676644479	 0.801830709	-1.6570782315	 0.133154
H	-3.2048440418	-0.9257204751	-1.8894546689	 0.130445
H	-3.7989555534	-1.5031569946	 0.4630698744	 0.127955
H	-4.382529411	 0.2045346432	 0.7858520103	 0.131913
60.8412	111.6315	137.2604	207.4337	268.2663	328.0443	367.7965	456.374	472.8738	491.7823	580.025	614.7549	708.1579	756.0662	825.121	857.6155	894.4917	913.2183	939.7784	1019.5193	1050.5776	1070.1141	1079.8803	1109.4874	1123.402	1130.1423	1178.0766	1203.5878	1220.3808	1280.7643	1322.2321	1383.8787	1433.2471	1466.4262	1491.4556	1518.9988	2355.3122	3105.265	3110.4897	3115.0149	3142.9275	3195.4965	3209.6854	3241.695	3648.5594
OC1(CC1N1CC1)C#N	O[C@]1(C[C@H]1N1CC1)C#N	
InChI=1S/C6H8N2O/c7-4-6(9)3-5(6)8-1-2-8/h5,9H,1-3H2	InChI=1S/C6H8N2O/c7-4-6(9)3-5(6)8-1-2-8/h5,9H,1-3H2/t5-,6-/m1/s1
