21
gdb 93270	2.17766	1.62891	1.19639	2.5304	77.75	-0.2449	-0.0257	0.2192	1134.4454	0.181136	-424.270874	-424.261385	-424.260441	-424.304609	36.481	
C	-0.3332717296	 1.5075185478	-0.0250406701	-0.426256
C	 0.0284238992	 0.026759338	 0.0357856717	 0.008714
C	 0.9184110981	-0.4723733148	-1.1298161159	-0.235616
C	 1.4679053713	-1.8370888023	-0.6640061592	-0.334134
C	 1.3166635183	-1.8148897356	 0.8529881613	 0.365984
O	 1.4968645384	-2.7260443393	 1.6237430908	-0.341825
C	 0.7829687264	-0.4440277861	 1.298549684	 0.292549
C	 1.9770436971	 0.4482999151	 1.6914714414	-0.43435
O	-0.0834756406	-0.5978205002	 2.4028220273	-0.490923
H	 0.5586424837	 2.1416333261	-0.0578500275	 0.115483
H	-0.9235323241	 1.7235372078	-0.9217587661	 0.113345
H	-0.9272800348	 1.7998624505	 0.846163471	 0.133497
H	-0.902670962	-0.5565226621	 0.0283045069	 0.085649
H	 0.3589453935	-0.5416025755	-2.0659641617	 0.106833
H	 1.73792251	 0.2344494847	-1.3016307788	 0.106269
H	 0.8791707019	-2.6797621712	-1.0434338017	 0.140757
H	 2.5057660243	-2.030083671	-0.9516094444	 0.134256
H	 2.6573956084	 0.6422159628	 0.8558634115	 0.113482
H	 1.6063782362	 1.4046954107	 2.0682761101	 0.13419
H	 2.5454393515	-0.0374524485	 2.4901159698	 0.126758
H	 0.2153076527	-1.397018007	 2.8617949797	 0.285339
68.0078	157.3831	197.8553	223.872	244.813	268.5473	277.777	309.577	382.3502	415.0429	458.1129	523.443	562.1445	579.2223	625.0262	678.0338	811.6638	840.3449	895.4594	939.8198	961.0311	997.1198	1028.9664	1047.0576	1081.2996	1098.1357	1134.6542	1166.1849	1212.491	1232.5138	1254.0268	1290.2501	1318.8376	1332.9126	1365.6933	1394.2413	1409.6299	1412.4761	1446.2864	1485.1883	1489.235	1500.0212	1504.8022	1507.0202	1835.2196	3013.2746	3033.9241	3038.2436	3047.8036	3053.2118	3089.9682	3098.619	3103.332	3109.522	3111.554	3125.1259	3721.1086
CC1CCC(=O)C1(C)O	C[C@H]1CCC(=O)[C@]1(C)O	
InChI=1S/C7H12O2/c1-5-3-4-6(8)7(5,2)9/h5,9H,3-4H2,1-2H3	InChI=1S/C7H12O2/c1-5-3-4-6(8)7(5,2)9/h5,9H,3-4H2,1-2H3/t5-,7+/m0/s1
