18
gdb 7956	3.38863	1.72791	1.30807	4.4992	67.3	-0.26	0.0185	0.2785	969.3902	0.154047	-385.002177	-384.994273	-384.993329	-385.034262	29.782	
C	-0.7679498157	 1.3170777967	-0.0150202476	-0.416998
C	 0.04994089	 0.0302376362	-0.0850382534	 0.007103
C	 1.2645774914	 0.058434162	-1.0194571881	-0.374203
C	 2.1875642362	-1.0062573757	-0.4373711579	 0.424537
O	 3.1198236473	-1.5515441934	-0.9519312715	-0.337645
O	 1.7935473709	-1.2838204364	 0.8362760043	-0.22509
C	 0.6921569121	-0.440343729	 1.2467440741	 0.108971
C	 1.2209809508	 0.6557081523	 2.1655939177	-0.398467
H	-0.1510325619	 2.1727810995	 0.2762948424	 0.123534
H	-1.210392709	 1.5438003418	-0.9898486715	 0.124818
H	-1.5873023958	 1.2299723919	 0.7065066751	 0.120993
H	-0.6074604246	-0.781942948	-0.4190734967	 0.092305
H	 1.0455258593	-0.1600112716	-2.0655293658	 0.137386
H	 1.7861802228	 1.0230738818	-0.988618006	 0.133369
H	 0.008619686	-1.0858040573	 1.8064211846	 0.095408
H	 1.889506358	 1.3407088177	 1.634373092	 0.123117
H	 0.3981867357	 1.2375446943	 2.5908184008	 0.123577
H	 1.7835342763	 0.2052046672	 2.9872431276	 0.137284
115.9475	119.6118	237.0366	247.2751	267.9674	297.6944	406.4085	479.8383	506.1261	544.3413	633.6152	690.2495	776.3501	835.3152	909.5453	935.3283	958.338	1021.1748	1039.9096	1079.7305	1112.3798	1131.9972	1171.5622	1195.7334	1203.1006	1273.9897	1335.5431	1356.6252	1383.7245	1388.6985	1413.3963	1419.5228	1467.3833	1485.2864	1492.6702	1502.9673	1505.2858	1882.6501	3024.6597	3035.9242	3042.6585	3047.0804	3064.1816	3102.1057	3110.376	3116.189	3125.2695	3126.0305
CC1CC(=O)OC1C	C[C@H]1CC(=O)O[C@H]1C	
InChI=1S/C6H10O2/c1-4-3-6(7)8-5(4)2/h4-5H,3H2,1-2H3	InChI=1S/C6H10O2/c1-4-3-6(7)8-5(4)2/h4-5H,3H2,1-2H3/t4-,5-/m0/s1
