20
gdb 114355	2.75119	1.24841	1.16462	3.1276	74.62	-0.2355	0.0614	0.2969	1170.9273	0.171531	-440.233761	-440.225158	-440.224214	-440.267245	32.93	
C	 0.6851294877	 1.5530235416	-0.1029556916	-0.405883
C	 0.2379623504	 0.1256727884	 0.1072259051	 0.168088
O	 0.8813006744	-0.8292261551	-0.7947149902	-0.315796
C	 1.2005560598	-1.7211897555	 0.2894232401	 0.081382
C	 2.6304446261	-1.5468876989	 0.8604293998	 0.001319
C	 3.7726550796	-1.1500597644	-0.0663885644	-0.070745
O	 4.8012427797	-0.5134472776	 0.674489585	-0.42746
N	 2.1451127678	-0.3943982666	 1.6939342371	-0.346127
C	 0.7320262786	-0.6803033488	 1.3300010931	-0.082508
H	 1.7452879031	 1.6613637792	 0.1339868936	 0.132195
H	 0.5159801296	 1.8495516172	-1.1426253836	 0.127044
H	 0.1103227369	 2.2280150028	 0.5407798545	 0.113301
H	-0.8527976476	 0.0386053445	-0.0037884164	 0.07498
H	 0.8077334127	-2.729066196	 0.1403089547	 0.081139
H	 2.917081048	-2.4094826742	 1.475588475	 0.072884
H	 4.2164807414	-2.0349346322	-0.5345896248	 0.103697
H	 3.3820137797	-0.501992057	-0.8616417904	 0.10473
H	 4.3674358217	 0.2264342053	 1.1185940018	 0.282177
H	 2.3285355501	-0.5126657827	 2.6827042797	 0.22785
H	 0.0414019503	-0.8576693	 2.1549730418	 0.077733
64.9486	114.1674	174.152	216.0042	236.4757	296.2531	378.968	449.6685	491.3051	523.6209	556.2933	662.8538	753.4426	799.9584	806.112	853.6597	891.3405	908.3374	952.9535	1018.0444	1038.3025	1044.4093	1076.578	1081.2485	1100.6962	1121.964	1150.1886	1176.4313	1193.7353	1214.3802	1258.4079	1292.5948	1303.6083	1333.5916	1361.7444	1369.5656	1391.037	1395.2528	1408.3832	1431.6951	1481.7098	1495.8427	1510.9766	2994.6809	3017.5427	3024.1638	3040.807	3080.1376	3085.1492	3105.0678	3106.5725	3138.4288	3551.3134	3768.6597
CC1OC2C(CO)NC12	C[C@H]1O[C@H]2[C@@H](CO)N[C@@H]12	
InChI=1S/C6H11NO2/c1-3-5-6(9-3)4(2-8)7-5/h3-8H,2H2,1H3	InChI=1S/C6H11NO2/c1-3-5-6(9-3)4(2-8)7-5/h3-8H,2H2,1H3/t3-,4-,5+,6+/m1/s1
