17
gdb 14627	6.00603	0.72206	0.68512	3.3544	67.3	-0.2511	-0.0238	0.2273	1570.4366	0.140546	-401.035247	-401.02596	-401.025016	-401.071313	30.767	
O	-0.60986443	 0.5866688394	 0.1531288612	-0.236138
C	 0.0800321986	 1.5655557317	 0.273875656	 0.158421
C	 1.4587292363	 1.7340267766	-0.3230242554	-0.272436
C	 1.5238387757	 2.9582932594	-1.2517960685	-0.192672
C	 2.9449191782	 3.2068464785	-1.7761138534	-0.16215
N	 3.0390351184	 4.3702265302	-2.6442028681	-0.270059
C	 3.1787411794	 5.6283358217	-2.1487679211	 0.153336
O	 3.2649335324	 5.8991473095	-0.9691680831	-0.324653
H	-0.2772692534	 2.451278111	 0.8503646685	 0.076573
H	 2.1660133103	 1.8774054705	 0.5069278402	 0.125564
H	 1.7270361532	 0.8112033903	-0.8464092391	 0.119718
H	 0.8388357151	 2.8188641752	-2.0969058063	 0.107212
H	 1.1957167593	 3.854966147	-0.7145369568	 0.134035
H	 3.6205261719	 3.3751147875	-0.9321663731	 0.142485
H	 3.3080630411	 2.3347007526	-2.3293740448	 0.111344
H	 2.9188254133	 4.2561264839	-3.6375563602	 0.250929
H	 3.2167480803	 6.3906016651	-2.9520885859	 0.07849
33.0701	53.9153	87.5663	102.8852	156.4323	236.2106	281.3973	347.0123	417.3743	506.12	539.1865	724.4557	769.1322	840.9031	922.1006	963.5953	1005.2463	1032.6681	1040.8701	1102.1461	1148.4925	1198.2848	1227.7827	1261.7501	1306.8475	1342.929	1357.6849	1409.2282	1427.963	1431.027	1465.24	1470.1078	1498.7329	1527.3032	1802.399	1836.8336	2857.9963	2938.6914	3012.9948	3034.4864	3051.7447	3075.073	3095.2364	3109.736	3641.707
O=CCCCNC=O	O=CCCCNC=O	
InChI=1S/C5H9NO2/c7-4-2-1-3-6-5-8/h4-5H,1-3H2,(H,6,8)	InChI=1S/C5H9NO2/c7-4-2-1-3-6-5-8/h4-5H,1-3H2,(H,6,8)
