18
gdb 127104	2.67195	1.33311	1.08204	4.0221	74.37	-0.2155	0.0255	0.2411	1173.6211	0.148417	-435.266035	-435.25707	-435.256126	-435.300308	33.051	
C	 0.0458383362	 1.4726894687	-0.066056599	-0.327056
N	-0.0440129904	 0.0166354918	 0.023559676	-0.184505
C	 0.786933869	-0.525383542	 1.0968507919	-0.327064
C	-1.3695971999	-0.4893527111	-0.0010082694	 0.07858
C	-2.4449715389	-0.3829245989	 0.8665324718	-0.097429
N	-3.4507863047	-1.085451063	 0.3006305683	-0.191337
N	-3.1214469093	-1.6569913557	-0.8901107262	-0.306465
C	-1.8639642681	-1.2910148098	-1.0624035999	 0.383939
O	-1.1548807603	-1.6590314756	-2.1456336276	-0.421659
H	 1.0874893876	 1.7654571089	-0.2368321668	 0.117495
H	-0.5568377657	 1.825757068	-0.9059916212	 0.130415
H	-0.3035887548	 1.9836715661	 0.8484174064	 0.098005
H	 0.4919457139	-0.1611820469	 2.0967525338	 0.09801
H	 0.7196108441	-1.6157200489	 1.0970034965	 0.130417
H	 1.8315074767	-0.2405012813	 0.9306474349	 0.117491
H	-2.5658940321	 0.1227652689	 1.8116712579	 0.132697
H	-4.3803637019	-1.2240526838	 0.6543750066	 0.275782
H	-0.2808711514	-1.2598077755	-2.0170373741	 0.292682
29.0147	149.5301	152.2819	238.1462	242.0052	302.2342	304.0109	373.943	398.6948	495.8998	538.1732	547.8263	605.2671	660.8407	754.1353	757.0464	803.0774	929.6051	963.1273	1057.7103	1062.3621	1119.4498	1138.2452	1184.9898	1222.2254	1231.5486	1267.4312	1272.8038	1357.2753	1441.2561	1454.0661	1468.3919	1480.0117	1488.9268	1497.2124	1498.4186	1512.7955	1568.2485	1638.8327	2950.0321	2955.1729	3060.0254	3062.4583	3118.5599	3121.0284	3257.6748	3693.2819	3722.1239
CN(C)C1=CNN=C1O	CN(C)c1c[nH]nc1O	
InChI=1S/C5H9N3O/c1-8(2)4-3-6-7-5(4)9/h3H,1-2H3,(H2,6,7,9)	InChI=1S/C5H9N3O/c1-8(2)4-3-6-7-5(4)9/h3H,1-2H3,(H2,6,7,9)
