18
gdb 27227	3.16923	1.63138	1.0915	1.3033	86.74	-0.1946	0.0024	0.1969	1095.0124	0.149527	-364.863499	-364.855766	-364.854822	-364.896136	29.861	
C	-0.0160176859	 1.5230812762	 0.0228880537	-0.501093
C	 0.0114848081	 0.0243892543	-0.0002492239	 0.094561
C	 0.0019124309	-0.7932379202	-1.1057460373	 0.289047
C	-0.0332281461	-0.8005890683	-2.6108588989	-0.415748
C	-0.0119084588	-2.2927403921	-2.9110946821	-0.141565
C	 0.0286060868	-2.9861430452	-1.7665883851	-0.011188
N	 0.0377463198	-2.1078726597	-0.6746472449	-0.006119
C	 0.0706099768	-2.1560445886	 0.6947019856	-0.140561
C	 0.054728318	-0.8511493412	 1.1370304244	-0.233271
H	 0.8796733868	 1.9401810881	 0.4989002453	 0.124047
H	-0.070538413	 1.9346751707	-0.9893652378	 0.114968
H	-0.8796021913	 1.905551383	 0.5799892552	 0.123955
H	-0.9308542676	-0.3187431085	-3.0215996834	 0.129811
H	 0.8253036897	-0.2855588861	-3.0628021289	 0.129836
H	-0.0273210166	-2.7154963187	-3.9042839656	 0.106935
H	 0.0530296866	-4.0536307056	-1.6025775742	 0.129151
H	 0.1010598521	-3.0914490009	 1.2293506864	 0.116939
H	 0.0721236235	-0.5412178173	 2.1719688815	 0.090296
47.6027	142.9464	210.7133	236.3037	301.2748	443.664	495.589	595.5836	616.4249	658.659	674.1332	690.1082	719.4667	778.8633	792.1371	866.8666	905.2794	941.8548	951.6311	980.299	1057.9592	1058.1296	1078.2346	1126.4481	1141.6885	1182.8237	1241.1229	1268.5313	1324.2195	1329.3671	1414.8774	1431.15	1445.4634	1462.5796	1483.8606	1496.6064	1510.515	1633.3516	1662.5627	3013.1995	3020.7897	3032.6388	3067.3486	3100.8018	3233.8551	3237.9084	3261.2074	3268.1448
CC1=C2CC=CN2C=C1	Cc1c2CC=Cn2cc1	
InChI=1S/C8H9N/c1-7-4-6-9-5-2-3-8(7)9/h2,4-6H,3H2,1H3	InChI=1S/C8H9N/c1-7-4-6-9-5-2-3-8(7)9/h2,4-6H,3H2,1H3
