17
gdb 124548	3.97836	1.04651	0.88184	5.7626	70.24	-0.2537	0.0006	0.2543	1307.5245	0.135535	-455.181941	-455.173192	-455.172248	-455.215907	31.885	
C	 0.0415300114	 1.5907959272	 0.0250003553	-0.382294
C	-0.0248235616	 0.05945025	-0.018622711	-0.105339
C	 0.7338078695	-0.5772790006	 1.1636858032	-0.389925
C	-1.4432281592	-0.4271059701	-0.058343452	 0.439621
N	-2.4842918791	 0.3247512849	 0.0889221267	-0.181802
O	-3.6016082241	-0.5459985003	-0.0083488908	-0.234499
C	-3.1834187523	-1.8324043019	-0.2206532516	 0.506522
O	-3.8906197023	-2.7898911238	-0.3486110952	-0.392304
N	-1.7988209258	-1.7394537523	-0.2476009711	-0.4291
H	 1.0859056589	 1.9141520419	 0.0103607314	 0.115768
H	-0.4750133063	 2.0360290137	-0.8279915506	 0.138454
H	-0.4273499309	 1.9750528359	 0.9346644374	 0.142648
H	 0.4503024438	-0.2853362477	-0.9483594572	 0.102931
H	 0.2981164221	-0.2599332362	 2.1160001553	 0.140033
H	 0.7112844774	-1.6709742448	 1.1302436148	 0.11366
H	 1.7813704538	-0.2642814776	 1.145460426	 0.13084
H	-1.1959883052	-2.5291822283	-0.3986656206	 0.284787
43.7858	121.7417	179.4623	211.9726	234.0792	270.5252	320.1573	406.5652	445.1959	469.4148	545.3203	620.2544	712.2705	754.6502	776.6883	879.5128	919.3507	934.5669	968.9858	971.54	1020.8797	1113.2645	1125.0441	1172.283	1212.6208	1247.7555	1329.3963	1356.7394	1403.6503	1426.0988	1475.8111	1483.7458	1489.3679	1501.7609	1515.2979	1649.556	1903.9338	3005.8765	3040.4068	3052.8911	3110.1117	3119.7195	3126.4982	3134.2739	3689.7462
CC(C)C1=NOC(=O)N1	CC(C)c1noc(=O)[nH]1	
InChI=1S/C5H8N2O2/c1-3(2)4-6-5(8)9-7-4/h3H,1-2H3,(H,6,7,8)	InChI=1S/C5H8N2O2/c1-3(2)4-6-5(8)9-7-4/h3H,1-2H3,(H,6,7,8)
