19
gdb 49268	2.39036	1.67724	1.08826	3.2491	84.68	-0.2373	-0.0538	0.1835	1128.2262	0.159716	-385.909215	-385.901013	-385.900069	-385.942175	31.404	
O	-0.1387531384	 0.0405756453	-0.3886452019	-0.285236
C	-0.0053728528	 1.2391505392	-0.255959563	 0.070708
C	 1.2727625516	 1.9372130929	-0.0968949765	 0.200548
C	 1.3438894208	 3.2622105451	 0.1164202598	-0.161448
C	 2.7576555525	 3.7331129353	 0.3190073381	-0.268481
C	 3.6098463009	 2.4988234937	-0.0845563729	-0.299886
C	 2.6294396308	 1.3123926265	-0.0936611451	 0.251881
C	 2.9090412284	 0.0395314393	 0.6851223791	-0.309557
C	 2.9628632476	 0.0301613837	-0.8185500178	-0.315685
H	-0.8921638595	 1.9120399141	-0.2407315222	 0.073769
H	 0.4818466923	 3.9188250674	 0.1802379784	 0.108118
H	 2.9937411884	 4.6248638341	-0.2721506036	 0.116022
H	 2.9090557328	 4.0187300296	 1.3697445237	 0.121677
H	 4.01793074	 2.6483154467	-1.0901752333	 0.110203
H	 4.4572723362	 2.3373969715	 0.5867231957	 0.105267
H	 3.8413380799	-0.0046461735	 1.2391476963	 0.107299
H	 2.0717312851	-0.4623233239	 1.1549008167	 0.130803
H	 2.1645490807	-0.481924217	-1.3399654552	 0.13903
H	 3.9361289529	-0.01824467	-1.2974684064	 0.104968
69.6795	121.5111	188.5416	244.2622	289.0078	319.6821	343.9512	429.67	577.5345	586.0693	689.9096	738.3258	786.2249	799.5836	842.5654	892.3198	907.9896	935.1271	951.8539	985.4662	1018.7445	1032.5727	1056.8494	1065.7238	1089.8728	1150.6827	1176.0104	1196.1911	1237.3992	1247.4631	1301.1813	1320.8896	1331.8678	1405.5115	1431.0002	1454.6126	1472.6223	1490.0735	1497.9909	1664.9839	1776.2123	2875.8881	3009.6488	3039.9575	3060.2701	3093.6299	3129.9	3133.6622	3185.4486	3223.2826	3237.7067
O=CC1=CCCC11CC1	O=CC1=CCCC21CC2	
InChI=1S/C8H10O/c9-6-7-2-1-3-8(7)4-5-8/h2,6H,1,3-5H2	InChI=1S/C8H10O/c9-6-7-2-1-3-8(7)4-5-8/h2,6H,1,3-5H2
