18
gdb 67445	2.62292	1.76584	1.71736	2.1959	74.67	-0.2321	0.0192	0.2512	923.8857	0.149986	-401.937479	-401.930375	-401.92943	-401.968608	28.633	
C	-0.0326193942	 1.5284588418	-0.0071649891	-0.516317
C	 0.0147319028	 0.0296394572	-0.0030495468	 0.299015
C	 0.4676369159	-0.999521045	-1.0526888755	-0.125517
C	 1.2397835768	-1.7932939389	-0.0020495316	-0.258835
C	 0.6497387242	-0.8458813348	 1.0882761294	 0.034545
O	-0.2911797205	-1.474811916	 1.9721809997	-0.23504
C	-1.349061839	-2.0312275709	 1.3305664506	 0.118228
N	-1.7074400609	-1.8673021049	 0.1258636426	-0.273194
C	-0.9900292763	-0.8840983424	-0.6408794032	-0.038539
H	 0.9632547099	 1.9664852405	 0.1304127432	 0.117169
H	-0.4335182522	 1.905979014	-0.9534702942	 0.12406
H	-0.6759363784	 1.9056634245	 0.7967219185	 0.129075
H	 0.7746289581	-0.8230819163	-2.0768705959	 0.088274
H	 0.9947702932	-2.8536523331	 0.1069391972	 0.114044
H	 2.3231377103	-1.6837216235	-0.0927914975	 0.108481
H	 1.3783106374	-0.3577946729	 1.7345071881	 0.094167
H	-1.9076277904	-2.6801137286	 2.001899762	 0.12349
H	-1.6127098967	-0.4256867508	-1.4033932078	 0.096893
184.4238	187.9885	226.5911	270.5388	379.6425	412.6053	539.036	544.7879	577.9763	664.189	763.5761	807.3269	819.9025	866.5283	919.8259	940.2267	964.9629	966.1081	995.7577	1000.6489	1044.1402	1082.1508	1102.191	1128.5661	1148.7908	1162.235	1213.1766	1239.859	1254.9589	1295.6507	1329.9006	1357.6173	1408.9753	1416.0749	1456.8104	1486.3952	1489.2631	1497.5166	1705.2154	3019.5206	3057.5626	3077.2945	3095.7505	3108.6395	3123.9208	3154.7714	3163.7011	3182.9693
CC12C3CC1OC=NC23	C[C@@]12[C@H]3C[C@@H]1OC=N[C@@H]23	
InChI=1S/C7H9NO/c1-7-4-2-5(7)9-3-8-6(4)7/h3-6H,2H2,1H3	InChI=1S/C7H9NO/c1-7-4-2-5(7)9-3-8-6(4)7/h3-6H,2H2,1H3/t4-,5-,6+,7+/m0/s1
