14
gdb 12458	3.825	2.01476	1.39522	2.3958	60.38	-0.2584	-0.0129	0.2455	836.5582	0.11005	-415.90289	-415.896256	-415.895311	-415.934029	24.436	
O	-0.0073778171	-0.0636212291	-0.2229499247	-0.3673
C	 0.0231752326	 1.114248421	 0.0171265701	 0.471716
N	-1.1622289239	 1.8243925938	 0.2477954651	-0.380992
C	-1.5147352457	 3.1756724698	 0.1572470887	 0.10097
N	-0.8245631764	 4.2287319993	 0.0460302299	-0.235876
C	 0.6230702828	 4.1913099029	 0.0061876328	-0.165482
C	 1.2806381716	 3.0442235118	 0.760275059	-0.102192
O	 1.1819853596	 1.7854584542	 0.0780926917	-0.22881
H	-1.9443083505	 1.1849778663	 0.2382390162	 0.269243
H	-2.6002267359	 3.2802454033	 0.1983118703	 0.123685
H	 0.961998163	 4.1712621934	-1.0384976964	 0.131796
H	 0.9924587417	 5.13344459	 0.4301400316	 0.119243
H	 2.3556767881	 3.2170417885	 0.8452068949	 0.134385
H	 0.86416694	 2.9514828046	 1.769945431	 0.129615
102.6008	122.2375	284.8591	335.5431	414.7016	495.5254	520.7965	624.772	665.9362	762.5084	775.1579	874.4506	894.4992	941.8913	961.9542	1027.7136	1092.7419	1106.0234	1174.9284	1251.151	1258.4532	1321.1682	1385.1903	1418.6435	1455.5668	1473.2646	1486.4864	1499.2448	1771.5496	1845.0113	3019.6366	3041.6384	3057.437	3115.747	3117.5581	3609.601
O=C1NC=NCCO1	O=C1NC=NCCO1	
InChI=1S/C4H6N2O2/c7-4-6-3-5-1-2-8-4/h3H,1-2H2,(H,5,6,7)	InChI=1S/C4H6N2O2/c7-4-6-3-5-1-2-8-4/h3H,1-2H2,(H,5,6,7)
