21
gdb 37289	2.98891	1.6671	1.57793	0.2231	84.11	-0.2268	0.074	0.3008	974.6052	0.185859	-349.865593	-349.858862	-349.857918	-349.896222	29.417	
C	 0.0456597472	 1.420781764	 0.2588956042	-0.287447
C	 1.3671041318	 0.7187407057	 0.1486875915	-0.073083
C	 0.0319456362	-0.076104654	 0.1570840251	-0.073083
C	 0.3796560333	-0.6665953021	-1.2316850192	-0.024155
C	 0.0094901996	-0.0872754018	-2.6462702464	-0.032056
C	-0.7780692245	 1.240215803	-2.8296576876	-0.245349
C	 0.5682847229	 2.0417461042	-2.8380874992	-0.245351
C	 1.3615872215	 0.7176706291	-2.6547683781	-0.032057
C	 1.7075616231	 0.1239377271	-1.24003856	-0.024154
H	-0.1595324315	 1.7761034053	 1.2656904172	 0.107686
H	-0.3486936757	 2.0751743972	-0.5008373191	 0.112431
H	 2.0975389931	 0.8084208074	 0.9448139981	 0.080958
H	-0.3876349031	-0.6710552119	 0.9604398244	 0.080958
H	 0.423146002	-1.7568805087	-1.2091576575	 0.06667
H	-0.2007540548	-0.8619310049	-3.3866113729	 0.059428
H	-1.2931479864	 1.2827458686	-3.7929573	 0.095434
H	-1.510109413	 1.4854363215	-2.0585014552	 0.105818
H	 0.7674662837	 2.5095375861	-3.8058468778	 0.095433
H	 0.7087512273	 2.8063655362	-2.0723695451	 0.105821
H	 2.1358911106	 0.5291558656	-3.4013035022	 0.059428
H	 2.6454728469	-0.4338774977	-1.2231346502	 0.066669
180.8482	251.1085	256.4952	328.9379	468.7211	589.9171	627.5355	646.583	698.0437	731.2369	738.0063	809.9573	818.8573	829.2607	881.4254	897.9947	927.1946	948.9213	951.3192	968.4387	986.6004	1015.0351	1056.4575	1064.4595	1093.1802	1101.2377	1102.148	1102.3036	1125.5303	1168.5104	1190.4996	1202.7997	1221.5753	1238.2693	1254.4697	1261.1101	1276.3476	1303.6227	1305.9933	1326.799	1331.6888	1370.6846	1488.8044	1490.0531	1519.2566	3058.0398	3065.1784	3069.948	3080.1877	3084.3352	3097.8618	3108.9123	3122.0607	3136.9544	3163.3239	3174.8574	3272.8896
C1C2C1C1C3CCC3C21	C1[C@H]2[C@@H]1[C@H]1[C@H]3CC[C@H]3[C@@H]21	
InChI=1S/C9H12/c1-2-5-4(1)8-6-3-7(6)9(5)8/h4-9H,1-3H2	InChI=1S/C9H12/c1-2-5-4(1)8-6-3-7(6)9(5)8/h4-9H,1-3H2/t4-,5+,6+,7-,8+,9-
