21
gdb 69919	2.91847	1.73787	1.61123	0.188	85.14	-0.2335	0.0197	0.2531	965.6866	0.185451	-349.942716	-349.935613	-349.934669	-349.973526	30.742	
C	 0.025998905	 1.4970327901	-0.0079633724	-0.482911
C	-0.0279518891	-0.0120352179	 0.0305638233	 0.371136
C	-0.8896375761	-0.7223093696	 1.0447211271	-0.353215
C	 0.6128518118	-0.8546636072	 1.1141780282	-0.076003
C	 1.3647056556	-1.9859161323	 0.3294775672	-0.071894
C	 1.8503001241	-1.1515736061	-0.889953678	-0.196715
C	 0.3973557107	-0.7622104547	-1.2881815363	-0.116043
C	-0.2277238911	-2.147874248	-1.3305512269	-0.086089
C	 0.3497793599	-2.8780677243	-0.3702627847	-0.081308
H	 0.9746055798	 1.8545295092	-0.4264979707	 0.112508
H	-0.7815364131	 1.9104969842	-0.6246157578	 0.114044
H	-0.0750211222	 1.9238059794	 0.9952198315	 0.112478
H	-1.3487360379	-0.0919605345	 1.8012425077	 0.097501
H	-1.4896996907	-1.5754515282	 0.7518649195	 0.108407
H	 1.1419588422	-0.4011402473	 1.9456280805	 0.079323
H	 2.1229442683	-2.4973890533	 0.9227355984	 0.055367
H	 2.4644935766	-0.291582109	-0.6031819244	 0.08682
H	 2.3670642948	-1.7449227778	-1.650186615	 0.087481
H	 0.2697247086	-0.1521750069	-2.1835024402	 0.052889
H	-1.0549118407	-2.4342653067	-1.9679670928	 0.093017
H	 0.0897333135	-3.8824855389	-0.0604641942	 0.093205
192.1608	210.8963	281.4704	348.4132	378.7184	482.4828	519.126	528.5076	592.8503	710.1315	740.8152	763.4944	810.0688	823.4583	857.6291	897.1786	899.2866	933.9075	941.2273	960.4316	963.5866	966.5161	978.1511	1044.7447	1054.895	1081.9208	1092.1713	1125.161	1125.9516	1140.5076	1166.4992	1225.9139	1232.9122	1255.2801	1278.1241	1280.1823	1298.9286	1358.9649	1386.6429	1417.7313	1481.855	1489.0841	1493.4321	1500.7206	1638.3308	3016.032	3043.3364	3072.0225	3092.5733	3100.4926	3103.4938	3110.2206	3124.7188	3161.5917	3195.4406	3211.9806	3221.2168
CC12CC1C1CC2C=C1	C[C@]12C[C@H]1[C@@H]1C[C@H]2C=C1	
InChI=1S/C9H12/c1-9-5-8(9)6-2-3-7(9)4-6/h2-3,6-8H,4-5H2,1H3	InChI=1S/C9H12/c1-9-5-8(9)6-2-3-7(9)4-6/h2-3,6-8H,4-5H2,1H3/t6-,7+,8-,9+/m0/s1
