19
gdb 93285	2.09432	1.84614	1.25362	4.8768	75.63	-0.2332	0.0244	0.2576	1067.6244	0.161206	-419.227297	-419.218912	-419.217968	-419.260193	32.096	
C	-0.0712730878	 1.5825489388	-0.0447994955	-0.391309
C	 0.0030484305	 0.0508467808	 0.0107906016	-0.099255
C	 0.8755819793	-0.5140771661	-1.1454876036	-0.177342
N	 2.1895018224	-0.6309073996	-0.534057988	-0.329083
C	 2.1786680882	-0.6992283941	 0.8346159286	 0.404037
O	 3.1269519723	-0.9029916364	 1.5582373788	-0.38223
C	 0.7382546165	-0.4589154615	 1.2476791254	 0.210092
C	 0.4047751256	-0.1377305816	 2.6510833602	-0.287097
N	 0.1879970606	-1.5032485063	 2.1447326749	-0.348219
H	 0.9315835004	 2.0216567577	-0.0275304157	 0.133198
H	-0.5706536711	 1.9145475976	-0.9609082496	 0.115247
H	-0.6273184739	 1.9847204375	 0.806695654	 0.120269
H	-1.0092034639	-0.3631127621	-0.0443110613	 0.077162
H	 0.5004739327	-1.4864968986	-1.4938325443	 0.109939
H	 0.8973768544	 0.1656040445	-2.0035303699	 0.111546
H	 3.0174809792	-0.8883575283	-1.0474244666	 0.252315
H	 1.2204065926	-0.0487712353	 3.3625898439	 0.142961
H	-0.4587636187	 0.4939324843	 2.843045637	 0.109919
H	-0.7995362493	-1.6274470112	 1.92733189	 0.227849
75.299	158.3981	204.8439	246.3132	249.2779	270.7119	330.7207	468.5681	482.3668	526.2405	579.8849	697.8587	724.3897	746.6457	836.0292	881.8517	893.2629	945.4395	960.285	980.7144	1017.6481	1060.2922	1066.5482	1102.1369	1140.1112	1158.047	1208.1168	1250.2231	1259.7392	1275.161	1329.6007	1340.3073	1356.8204	1406.3749	1412.5658	1451.733	1492.4943	1498.0503	1502.9862	1533.0423	1838.6448	3001.7857	3035.9056	3048.8569	3066.5733	3105.1064	3109.3713	3114.3458	3202.9692	3475.1253	3641.394
CC1CNC(=O)C11CN1	C[C@H]1CNC(=O)[C@]21CN2	
InChI=1S/C6H10N2O/c1-4-2-7-5(9)6(4)3-8-6/h4,8H,2-3H2,1H3,(H,7,9)	InChI=1S/C6H10N2O/c1-4-2-7-5(9)6(4)3-8-6/h4,8H,2-3H2,1H3,(H,7,9)/t4-,6+/m0/s1
