15
gdb 133070	3.23098	1.22996	0.96046	1.9212	68.46	-0.2829	-0.0574	0.2255	1186.5613	0.113614	-458.162131	-458.154386	-458.153442	-458.196195	27.535	
C	-0.014957543	 1.5349052505	 0.0072046122	-0.383181
C	 0.0183161262	-0.0054019689	-0.0130223331	-0.255558
C	 0.7130866071	-0.5122265243	-1.2425949388	 0.357332
N	-0.0216899742	-0.7127374875	-2.346630483	-0.276424
C	 0.6644705956	-1.131726439	-3.4057636025	 0.079261
N	 1.9783836854	-1.359748122	-3.4553023199	-0.299788
C	 2.5805417309	-1.117961869	-2.3038129518	 0.35601
F	 3.8782891192	-1.3186607386	-2.2796826123	-0.041536
N	 2.0387306928	-0.7024975235	-1.1755398329	-0.326467
H	 0.998964668	 1.9452593769	 0.0021529988	 0.135578
H	-0.5495484183	 1.9231683256	-0.8645630607	 0.135009
H	-0.5237362569	 1.8898521524	 0.9073440839	 0.126053
H	 0.5515081614	-0.3764130642	 0.866014436	 0.126869
H	-1.0018660336	-0.3975312797	-0.0056778591	 0.12631
H	 0.1055245492	-1.3097615487	-4.3214513468	 0.140533
16.9656	123.7209	194.9727	220.1838	287.701	337.4009	472.5202	517.2932	574.7251	593.5875	750.9529	799.3572	803.2606	860.9474	954.0426	1004.2246	1016.0317	1021.1512	1078.8429	1101.3067	1219.3183	1272.6607	1310.8731	1330.5454	1353.8839	1399.7407	1446.9258	1474.0964	1479.9821	1496.8988	1511.0201	1584.4725	1616.15	3044.2705	3066.0445	3109.573	3122.3593	3131.5215	3171.1819
CCC1=NC=NC(F)=N1	CCc1ncnc(F)n1	
InChI=1S/C5H6FN3/c1-2-4-7-3-8-5(6)9-4/h3H,2H2,1H3	InChI=1S/C5H6FN3/c1-2-4-7-3-8-5(6)9-4/h3H,2H2,1H3
