14
gdb 21180	5.37105	1.61596	1.25285	4.1736	68.41	-0.2262	-0.059	0.1673	921.326	0.108911	-374.910648	-374.903466	-374.902522	-374.94261	25.399	
C	 0.0586026583	 1.4499255975	 0.0614326395	-0.328429
N	-0.0624737896	 0.0160922907	-0.070278904	-0.343896
C	-1.2373158245	-0.6651163643	-0.019687638	 0.41926
C	-2.5065161527	-0.042916946	 0.0049152313	-0.068711
N	-3.6061327926	-0.7698869437	 0.0284396899	-0.22459
C	-3.4237059389	-2.0978901902	 0.030753553	 0.078031
N	-2.2525406395	-2.7274226892	 0.0207152816	-0.178459
N	-1.1429474071	-2.0069630564	-0.0020344705	-0.267807
H	 1.1143922549	 1.7182768495	 0.0009842747	 0.141425
H	-0.4642101123	 1.9729192894	-0.7486088894	 0.139155
H	-0.3342238146	 1.8218399374	 1.0182651223	 0.132349
H	 0.7595033665	-0.5610926513	 0.0120451442	 0.257268
H	-2.6142260279	 1.0385051166	 0.0067090349	 0.117036
H	-4.30605534	-2.72833127	 0.0471971606	 0.127369
59.5156	128.0191	200.9482	218.507	387.298	434.5447	476.902	553.1078	609.2581	646.5973	795.2388	848.1416	908.7238	959.9831	1043.1313	1069.5333	1145.0289	1157.0825	1166.5506	1186.4491	1240.738	1353.4155	1388.3603	1453.1212	1480.5608	1485.6981	1512.497	1531.7191	1562.7597	1619.8082	3001.5693	3054.3566	3134.9521	3160.875	3197.9805	3633.3281
CNC1=CN=CN=N1	CNc1cncnn1	
InChI=1S/C4H6N4/c1-5-4-2-6-3-7-8-4/h2-3H,1H3,(H,5,8)	InChI=1S/C4H6N4/c1-5-4-2-6-3-7-8-4/h2-3H,1H3,(H,5,8)
