17
gdb 43414	2.50809	1.75549	1.23069	3.6694	75.42	-0.239	-0.049	0.19	1019.706	0.137379	-421.824293	-421.81697	-421.816026	-421.85604	28.88	
O	 0.059759436	 0.190135143	 0.8127511599	-0.342975
C	-0.0161253364	 1.2544790016	 0.2243386014	 0.393093
C	-1.3621278931	 1.7374846001	-0.1988463929	-0.162939
C	-1.7041848866	 2.6465190989	-1.1177609639	-0.053354
C	-0.8341052046	 3.4618765096	-2.0326100987	-0.152125
O	 0.4614984475	 2.963558893	-2.2732116461	-0.237302
C	 1.3769233308	 2.9581603618	-1.2253050822	 0.11643
C	 1.1659572119	 3.5920233926	 0.1053986579	-0.357077
C	 1.2141575212	 2.0613500201	-0.0085052275	-0.167931
H	-2.1519119087	 1.2051126031	 0.3242849691	 0.114733
H	-2.7674410441	 2.833803717	-1.2649803369	 0.110211
H	-1.308196449	 3.4957913921	-3.0200814791	 0.131437
H	-0.7974312609	 4.5044882828	-1.6733722937	 0.115674
H	 2.3805977768	 2.989100746	-1.6367906713	 0.11846
H	 2.0050767846	 4.087440298	 0.58054977	 0.129555
H	 0.2007420314	 4.020313287	 0.3466394225	 0.135517
H	 2.1016417331	 1.5581157334	 0.3574257915	 0.108594
92.4073	207.3127	244.5405	296.3881	355.1918	400.9217	460.3255	518.835	607.828	646.3198	683.9068	743.9079	804.7588	820.416	862.3982	906.0553	954.9929	962.4199	1019.5172	1043.0284	1049.8552	1059.3868	1107.2719	1131.9142	1182.2316	1213.9132	1262.457	1290.2162	1309.8658	1371.3061	1391.7441	1411.9162	1421.0345	1479.107	1480.6321	1703.9838	1745.7656	2963.1768	3061.5105	3133.7423	3145.2835	3164.1286	3174.2501	3183.0247	3233.0851
O=C1C=CCOC2CC12	O=C1C=CCO[C@H]2C[C@@H]12	
InChI=1S/C7H8O2/c8-6-2-1-3-9-7-4-5(6)7/h1-2,5,7H,3-4H2	InChI=1S/C7H8O2/c8-6-2-1-3-9-7-4-5(6)7/h1-2,5,7H,3-4H2/t5-,7-/m0/s1
