25
gdb 59335	3.14395	0.86796	0.82837	1.461	89.34	-0.2543	0.0741	0.3284	1579.4426	0.226625	-389.494728	-389.483975	-389.483031	-389.530147	41.063	
C	 0.1064545099	 1.5201978732	-0.0716138323	-0.403282
C	 0.0360264561	 0.000337692	 0.0835308694	 0.116895
O	 0.7328959619	-0.4358657164	 1.2505095099	-0.433061
C	-1.3939284423	-0.5271615057	 0.0712286843	 0.041999
C	-2.1933529734	-0.4769595844	-1.2613679063	-0.287411
C	-2.7071697844	-1.9290704578	-0.990778711	 0.351645
C	-4.1117376794	-1.9334935417	-0.3820472115	-0.433921
C	-2.6218844217	-2.8998293806	-2.1642677765	-0.447912
C	-1.5942823816	-2.0654358232	 0.0982267655	-0.278617
H	 1.1464808124	 1.8572525433	-0.0554271095	 0.121826
H	-0.3511366456	 1.8460574261	-1.0113790995	 0.119794
H	-0.4271810652	 2.0178560397	 0.7482705228	 0.102735
H	 0.5844187337	-0.4681563924	-0.7447517806	 0.079286
H	 0.2913120097	-0.0468736323	 2.0137976618	 0.273251
H	-1.9547005148	-0.0414087726	 0.8809639514	 0.053593
H	-2.9504928765	 0.3049855399	-1.3689288611	 0.090962
H	-1.5278657606	-0.4348693391	-2.1308089614	 0.090942
H	-4.8632330583	-1.6448183037	-1.1261773852	 0.109118
H	-4.3744829868	-2.9306504756	-0.0100480083	 0.110475
H	-4.1908115517	-1.2349657758	 0.4580162949	 0.108539
H	-1.6190744434	-2.9044290785	-2.6045438929	 0.10625
H	-2.851458175	-3.9243525491	-1.8475252591	 0.110683
H	-3.3333580087	-2.6305877005	-2.9543015976	 0.108915
H	-0.7098583968	-2.5908990733	-0.2757390967	 0.097318
H	-1.8851398276	-2.5204766816	 1.0488753195	 0.089978
63.2948	78.464	141.53	223.5136	241.1568	262.1103	265.663	286.1989	305.3741	324.8412	365.5343	383.4113	404.2136	473.9506	494.6825	616.1169	733.1227	832.6019	865.7643	877.0391	909.9617	933.6393	959.2093	968.1936	984.8535	1011.5962	1032.7031	1049.355	1089.8411	1108.676	1120.627	1198.0617	1211.4386	1225.6509	1239.1924	1272.1565	1282.4633	1300.9825	1313.1327	1334.5105	1393.2356	1400.926	1402.9919	1419.1681	1420.011	1471.6798	1483.1738	1485.1852	1491.8612	1494.517	1498.4708	1502.0605	1506.3464	3006.536	3015.4827	3020.0225	3021.0118	3028.4205	3036.7889	3049.502	3079.434	3086.2176	3087.6844	3091.7058	3092.0663	3093.4964	3100.8307	3117.1308	3795.9477
CC(O)C1CC(C)(C)C1	C[C@@H](O)C1CC(C)(C)C1	
InChI=1S/C8H16O/c1-6(9)7-4-8(2,3)5-7/h6-7,9H,4-5H2,1-3H3	InChI=1S/C8H16O/c1-6(9)7-4-8(2,3)5-7/h6-7,9H,4-5H2,1-3H3/t6-/m1/s1
