14
gdb 29072	2.70853	1.69735	1.04345	2.6669	79.35	-0.236	-0.0859	0.1501	1053.2505	0.102488	-436.716036	-436.708841	-436.707897	-436.748031	27.258	
O	-0.0359810655	 1.346204187	 0.0096444815	-0.372926
C	 0.0253357169	 0.0040021462	 0.0022034894	 0.268134
C	 1.2492361457	-0.6242462077	-0.0081848222	-0.114465
N	 1.62970059	-1.9218629613	-0.0168634165	-0.246625
C	 0.8480255775	-2.959565427	-0.0184841933	 0.000444
C	-0.5791240358	-3.0384390255	-0.0120730189	-0.081199
C	-1.4979855679	-2.039286658	-0.0014489287	-0.155015
C	-1.3388404535	-0.5875563782	 0.0072002148	 0.288632
O	-2.3162923211	 0.1459500721	 0.0181547574	-0.348954
H	 0.8584703301	 1.7105886529	 0.0061027563	 0.308497
H	 2.1052748953	 0.0574585286	-0.0095373349	 0.093566
H	 1.3663351189	-3.9190761927	-0.0260696233	 0.116059
H	-0.9701604232	-4.0536433964	-0.0163428784	 0.113733
H	-2.5491155774	-2.3162359601	 0.0020434066	 0.13012
67.015	163.7223	327.6845	346.7941	355.329	398.5084	462.0778	520.9942	521.5504	634.3902	668.6539	734.4718	746.7808	852.5138	873.1535	912.6963	974.2073	993.2722	1041.0577	1095.2537	1219.8078	1242.2647	1293.6917	1343.5296	1438.9172	1472.2609	1485.6665	1512.304	1606.6595	1661.635	1720.0038	3070.2206	3117.9779	3153.1245	3177.2339	3781.7978
OC1=CN=CC=CC1=O	Oc1cncccc1=O	
InChI=1S/C6H5NO2/c8-5-2-1-3-7-4-6(5)9/h1-4H,(H,8,9)	InChI=1S/C6H5NO2/c8-5-2-1-3-7-4-6(5)9/h1-4H,(H,8,9)
