21
gdb 58239	2.15538	1.3143	1.19907	2.8605	73.99	-0.2484	0.0552	0.3035	1198.9618	0.180527	-461.34232	-461.332426	-461.331482	-461.376997	38.099	
C	 0.9780057531	 1.1967743727	-0.2782652745	-0.429414
C	-0.1157380135	 0.2486803573	 0.2041523394	 0.114472
O	-0.4983572045	-0.6557422183	-0.8544090173	-0.442841
C	 0.2424797294	-0.5042128858	 1.5214523207	 0.033028
O	-0.8987258621	-0.6155587321	 2.3572073059	-0.443313
C	 0.8061661659	-1.8955172533	 1.2692900616	 0.412126
O	-0.2006175534	-2.7879317817	 0.8548505335	-0.484543
C	 2.2110165634	-2.1127763693	 0.7572452779	-0.342282
C	 1.8280213802	-2.4963090633	 2.1760560628	-0.317606
H	 1.9108923256	 0.6583227832	-0.4844887061	 0.119971
H	 0.6636349199	 1.7034790519	-1.1953667832	 0.129025
H	 1.1942970491	 1.9578598516	 0.4771738545	 0.131583
H	-1.0228047319	 0.818741454	 0.4269477115	 0.105668
H	 0.2990902878	-0.8641933587	-1.3538258702	 0.290082
H	 0.9768580272	 0.1001023606	 2.0680380386	 0.075798
H	-1.2907204569	-1.4740867069	 2.1453023809	 0.28634
H	-0.5722190808	-2.3876241256	 0.0510090778	 0.285899
H	 2.3509876766	-2.9199590783	 0.0468001758	 0.117875
H	 2.8688664322	-1.2612742274	 0.6185023568	 0.111577
H	 2.210139089	-1.8979381216	 2.9953838149	 0.119553
H	 1.7173296937	-3.5527104991	 2.3910093689	 0.127002
38.0036	112.641	193.1635	238.2575	241.6229	282.4339	311.5308	333.0115	344.3358	371.2365	417.4202	441.8364	498.3066	562.2867	615.7948	735.4367	775.8462	817.8196	839.065	895.9305	910.7005	945.8949	961.859	988.9531	1024.7421	1051.5097	1065.6738	1078.4624	1088.1197	1139.3945	1191.9554	1227.0605	1274.6737	1289.8114	1299.8855	1344.5631	1350.8512	1403.6479	1412.2864	1427.6543	1450.1983	1456.2383	1491.8809	1498.7129	1509.4873	3029.4301	3034.9319	3067.2937	3103.0922	3118.1113	3130.9627	3141.1256	3217.202	3234.3622	3666.3761	3745.4341	3803.695
CC(O)C(O)C1(O)CC1	C[C@@H](O)[C@@H](O)C1(O)CC1	
InChI=1S/C6H12O3/c1-4(7)5(8)6(9)2-3-6/h4-5,7-9H,2-3H2,1H3	InChI=1S/C6H12O3/c1-4(7)5(8)6(9)2-3-6/h4-5,7-9H,2-3H2,1H3/t4-,5-/m1/s1
