18
gdb 23321	3.47796	1.32721	1.24579	0.9137	79.48	-0.2332	0.0021	0.2354	1060.3036	0.149918	-401.918274	-401.91113	-401.910186	-401.949655	29.437	
O	-0.1408520057	 1.3227043672	-0.0253827105	-0.398659
N	 0.0101953128	-0.082195483	-0.0092190559	-0.272091
C	-1.1198608503	-0.6597338986	 0.0042284602	 0.462326
C	-2.5203244248	-0.0686954951	 0.0326379786	-0.300034
C	-3.3898334074	-1.3712291589	 0.0254928775	-0.07437
C	-2.5290468704	-2.2900537678	 0.9299960586	-0.221649
C	-1.2757846368	-2.177818425	 0.0207462066	-0.13592
C	-1.9037026204	-2.5052863843	-1.3366740854	-0.084183
C	-3.1542673405	-2.0343176884	-1.3274276616	-0.071727
H	 0.7745272343	 1.6224487782	-0.0281206891	 0.303339
H	-2.6645198216	 0.519890217	 0.9455040381	 0.122593
H	-2.7102249675	 0.5923115092	-0.816271273	 0.124846
H	-4.4290681768	-1.2188766368	 0.3160320135	 0.065846
H	-2.3726260871	-1.8886444565	 1.936686655	 0.098741
H	-2.9112963032	-3.311639196	 0.9877267312	 0.102243
H	-0.3762316769	-2.7238446053	 0.2965673608	 0.077222
H	-1.3604459586	-2.9365978039	-2.1672183366	 0.103883
H	-3.8536368392	-2.011202522	-2.153610728	 0.097594
103.4955	217.7139	286.4979	370.9597	396.8039	450.0337	475.8073	515.2063	566.2798	675.3538	747.1275	766.1641	788.8032	844.8365	863.6984	903.8034	921.6718	943.6699	947.6243	959.7633	965.6841	1005.953	1023.2538	1113.9912	1118.7569	1149.2929	1167.4373	1188.816	1226.466	1266.2907	1281.0322	1294.3678	1308.7502	1351.7084	1397.4761	1467.7906	1493.8996	1640.3881	1767.9367	3049.2501	3053.9392	3103.9217	3115.3774	3117.8741	3144.4939	3202.3103	3228.5216	3816.2725
ON=C1CC2CC1C=C2	ON=C1C[C@@H]2C[C@H]1C=C2	
InChI=1S/C7H9NO/c9-8-7-4-5-1-2-6(7)3-5/h1-2,5-6,9H,3-4H2	InChI=1S/C7H9NO/c9-8-7-4-5-1-2-6(7)3-5/h1-2,5-6,9H,3-4H2/t5-,6+/m0/s1
