19
gdb 69812	3.20888	1.60517	1.26802	1.7945	80.35	-0.2354	0.0053	0.2407	1038.2203	0.160479	-385.881632	-385.874103	-385.873158	-385.913123	30.747	
C	-0.0912992956	 1.522166417	 0.0303902509	-0.479436
C	 0.0529875926	 0.0194239625	-0.0058685811	 0.383639
O	-0.7069486893	-0.6732247845	 1.024479811	-0.292437
C	 0.7175336538	-0.7117833473	 1.0977313537	-0.042685
C	 1.3935874927	-2.0294121603	 0.855311613	-0.052449
C	 0.5592307288	-3.2466717988	 0.5788378701	-0.293778
C	 1.3331544221	-2.5998048669	-0.558019423	-0.091569
C	 0.6531930604	-1.7937687744	-1.5896812657	-0.068962
C	 0.0644876588	-0.6167425468	-1.3469036329	-0.128477
H	 0.7237036424	 2.0058135572	-0.5184955673	 0.123976
H	-1.0357877921	 1.8274550243	-0.4340153085	 0.12616
H	-0.0863257052	 1.8863056287	 1.0604860124	 0.126915
H	 1.1382664421	-0.1221691116	 1.9127175971	 0.083351
H	 2.322484921	-2.1655306132	 1.3983173176	 0.085018
H	 0.9157308808	-4.2043541383	 0.9407144758	 0.11177
H	-0.5145522469	-3.1064989267	 0.5899078574	 0.140935
H	 2.1991058081	-3.1569818089	-0.9032967443	 0.088596
H	 0.6539876248	-2.1901249911	-2.6021072816	 0.094203
H	-0.4107467693	-0.0681480908	-2.1555533348	 0.085231
164.5315	174.6736	207.0194	313.32	337.4088	385.1467	482.3705	492.4167	563.1206	644.8028	683.8965	718.4692	779.4327	792.1696	814.4501	874.4109	881.6018	914.5432	969.4636	988.4463	1013.6827	1027.7177	1071.6464	1080.3278	1089.1243	1117.215	1120.5164	1136.9263	1207.6081	1219.6317	1244.252	1332.7287	1378.7292	1394.7125	1410.4669	1438.6328	1443.6195	1477.6685	1486.0589	1497.0411	1696.9926	3033.4445	3095.7999	3101.6934	3124.5546	3141.1861	3143.6047	3151.8392	3168.7134	3172.1956	3242.2732
CC12OC1C1CC1C=C2	C[C@]12O[C@H]1[C@H]1C[C@H]1C=C2	
InChI=1S/C8H10O/c1-8-3-2-5-4-6(5)7(8)9-8/h2-3,5-7H,4H2,1H3	InChI=1S/C8H10O/c1-8-3-2-5-4-6(5)7(8)9-8/h2-3,5-7H,4H2,1H3/t5-,6+,7+,8-/m1/s1
