14
gdb 29250	3.28523	1.44744	1.00608	4.2918	70.48	-0.205	-0.0329	0.1721	1085.4794	0.102923	-470.069108	-470.061397	-470.060453	-470.101296	29.364	
N	 0.0414641513	 1.4174111704	 0.0338007246	-0.591951
C	-0.0249038	 0.0272085909	 0.0171629969	 0.198453
C	-1.1445969936	-0.716065077	 0.0863425727	-0.07552
N	-1.0747346527	-2.1086505073	 0.1236633431	-0.389629
C	 0.0877876963	-2.8255581628	 0.1227058333	 0.479052
O	 0.1658396134	-4.0220912269	 0.1739974497	-0.372487
O	 1.2272902021	-2.0560744385	 0.0518864578	-0.26027
C	 1.2580465236	-0.6748464207	-0.0294847788	 0.389081
N	 2.3553522292	-0.0514171322	-0.1431760618	-0.53755
H	 0.9523014163	 1.7409500129	-0.2683611016	 0.270518
H	-0.7156805854	 1.8898580252	-0.4381982285	 0.246909
H	-2.1409670902	-0.2964489131	 0.1202638718	 0.12835
H	-1.9151312031	-2.6600576051	 0.1752059379	 0.277431
H	 3.1481286228	-0.6917029359	-0.1648549969	 0.237613
98.6696	137.2946	261.4377	321.446	345.0516	379.7777	385.684	480.617	517.0243	520.8579	613.0878	671.6152	738.7743	747.6789	762.1219	827.3754	839.8855	867.3803	946.1933	1070.6135	1100.8171	1160.8447	1235.4249	1282.9901	1390.348	1429.0104	1497.0958	1628.7974	1723.1924	1735.655	1874.2314	3223.1702	3507.4219	3540.3632	3650.0613	3665.7714
NC1=CNC(=O)OC1=N	NC1=C(OC(=O)N[CH]1)[NH]	
InChI=1S/C4H5N3O2/c5-2-1-7-4(8)9-3(2)6/h1,6H,5H2,(H,7,8)	InChI=1S/C4H5N3O2/c5-2-1-7-4(8)9-3(2)6/h1,6H,5H2,(H,7,8)
