16
gdb 69212	2.69909	1.69097	1.20553	1.2695	72.07	-0.2583	-0.0203	0.2381	1022.5563	0.125387	-434.099446	-434.09162	-434.090676	-434.131664	29.846	
C	-0.0103024727	 1.532710623	 0.0017788973	-0.478228
C	 0.0338677291	 0.0284465992	-0.0065267957	 0.172654
C	 0.315739653	-0.7860785405	 1.2104668667	-0.276777
N	 1.3242605818	-0.6842866263	 0.1342088067	-0.143451
C	 1.2760682754	-1.8133400125	-0.746308739	 0.398105
N	 2.2253361673	-2.6429392929	-0.8280763848	-0.52103
N	 0.0522626192	-1.7735817839	-1.4288907754	-0.370614
C	-0.747322985	-0.6950887998	-1.0781266847	 0.396986
O	-1.8065002854	-0.3950935088	-1.5694762948	-0.359988
H	 0.6048463514	 1.9317808492	 0.8111447405	 0.133641
H	 0.3567096221	 1.9388588445	-0.9453304319	 0.138434
H	-1.0420040713	 1.868758335	 0.1377115165	 0.147726
H	 0.5878307467	-0.2721021837	 2.1269835819	 0.13964
H	-0.1923248996	-1.7370862129	 1.3440862326	 0.138084
H	 2.0192146223	-3.3860232185	-1.4951573867	 0.218189
H	-0.2366108544	-2.4558271209	-2.1133578092	 0.266628
132.0763	143.0352	163.8555	249.1413	300.5639	344.0244	419.8845	528.0147	557.214	609.7782	643.5086	711.8523	754.6052	777.5298	820.4966	825.6286	851.5347	924.7676	970.7083	1040.4888	1050.8561	1102.6634	1128.7197	1138.6984	1168.604	1307.1266	1346.5912	1365.8357	1376.0796	1416.8361	1481.3203	1492.689	1505.8694	1773.9425	1854.3486	3049.7303	3118.1178	3120.0006	3135.6476	3211.847	3490.5165	3633.6091
CC12CN1C(=N)NC2=O	C[C@]12CN1[C]([NH])NC2=O	
InChI=1S/C5H7N3O/c1-5-2-8(5)4(6)7-3(5)9/h2H2,1H3,(H2,6,7,9)	InChI=1S/C5H7N3O/c1-5-2-8(5)4(6)7-3(5)9/h2H2,1H3,(H2,6,7,9)/t5-,8?/m1/s1
