23
gdb 76631	2.30647	1.36978	1.13604	1.3203	85.28	-0.2434	0.0631	0.3065	1231.3528	0.204176	-388.257838	-388.247663	-388.246719	-388.292898	38.578	
C	-0.7607531516	 0.9081041564	-0.1086842269	-0.422756
C	 0.070793129	-0.3552122036	-0.0141955571	-0.057487
C	 1.5089562507	-0.3744048441	-0.4770619873	 0.066931
O	 2.0512227808	 0.8671326295	-0.8297419666	-0.418253
C	 1.1886691903	-0.6496542326	 0.9788749814	-0.126554
C	 1.7256176237	 0.1857672135	 2.1109378903	 0.341918
C	 3.1371805967	-0.2286590233	 2.5034637583	-0.44757
C	 1.3702028918	 1.639271428	 2.3251439229	-0.308805
C	 0.8029098007	 0.5854525188	 3.2433765085	-0.305722
H	-0.1318652406	 1.7895340608	-0.2397078153	 0.145596
H	-1.4177454716	 0.8464829747	-0.9827637795	 0.112619
H	-1.3986818247	 1.0529098103	 0.7694824625	 0.113755
H	-0.4905344161	-1.2503678671	-0.2705052758	 0.083273
H	 1.8482886166	-1.1987053369	-1.1044087466	 0.079352
H	 2.8701229138	 0.9892945725	-0.3397200573	 0.291283
H	 1.2394493061	-1.7083710912	 1.233316685	 0.080437
H	 3.8486623264	-0.07166564	 1.6826957638	 0.101025
H	 3.494831513	 0.3437564697	 3.3650242925	 0.112788
H	 3.1777772289	-1.2919842962	 2.7679691472	 0.116199
H	 2.1528385616	 2.28235149	 2.7154403811	 0.102626
H	 0.6989090667	 2.1350172458	 1.6400576177	 0.121029
H	-0.2496379645	 0.3448025783	 3.1413226269	 0.112882
H	 1.1786385825	 0.5237003767	 4.2596174044	 0.105434
36.1641	123.0857	156.0561	206.285	225.9584	231.8864	252.9505	282.2609	307.7893	343.7642	391.2843	508.7526	556.7322	614.1398	714.4941	756.7056	785.3527	824.3133	864.778	882.928	931.7715	947.6086	989.9112	999.2628	1036.2471	1057.6992	1072.5869	1083.6092	1104.3899	1115.4418	1137.6763	1158.9148	1188.7998	1189.8783	1247.3187	1272.2293	1311.4608	1357.9644	1375.3897	1403.824	1415.5302	1419.3252	1445.6068	1464.7527	1488.2265	1495.377	1498.8168	1508.1369	1516.1554	3015.2067	3036.1066	3071.4725	3087.9872	3088.3674	3096.5927	3098.894	3127.6783	3128.6812	3142.4859	3144.1881	3212.1553	3256.2983	3817.2908
CC1C(O)C1C1(C)CC1	C[C@H]1[C@@H](O)[C@H]1C1(C)CC1	
InChI=1S/C8H14O/c1-5-6(7(5)9)8(2)3-4-8/h5-7,9H,3-4H2,1-2H3	InChI=1S/C8H14O/c1-5-6(7(5)9)8(2)3-4-8/h5-7,9H,3-4H2,1-2H3/t5-,6+,7-/m1/s1
