15
gdb 7427	3.39099	1.56402	1.1843	2.921	58.64	-0.2561	-0.0779	0.1782	993.1677	0.11674	-436.986125	-436.977253	-436.976309	-437.019744	31.524	
C	 0.0093717145	 1.558369197	-0.1327257481	-0.413322
C	 0.073556496	 0.0246777321	 0.008837925	 0.071096
O	 0.764405987	-0.3485396143	 1.174636548	-0.441089
C	-1.3226586688	-0.5674043073	 0.0255123538	 0.270576
O	-1.7724767542	-1.0928089238	 1.0231512387	-0.335802
C	-2.1575257605	-0.496917717	-1.2697353078	 0.339015
N	-3.3940759504	-1.0139273217	-1.1080724784	-0.514415
O	-1.7041853409	-0.0295778112	-2.2972204437	-0.346477
H	 1.0279730429	 1.9489538236	-0.0759029809	 0.137137
H	-0.434776172	 1.8419789709	-1.0882899733	 0.149371
H	-0.5691186355	 1.9944977485	 0.6877641784	 0.120053
H	 0.5896159179	-0.3798577875	-0.8733915899	 0.116955
H	 0.1071815492	-0.7402599942	 1.7681628599	 0.290916
H	-3.6517556853	-1.401026284	-0.2147509942	 0.282316
H	-4.0277217298	-1.0505256011	-1.8886439075	 0.27367
66.5245	74.4417	189.2301	211.2532	248.2363	333.3394	348.8245	352.1638	365.695	420.1312	507.3358	527.2804	627.8372	657.5273	755.2102	817.7757	920.5805	1030.9663	1064.4441	1083.2112	1103.4318	1173.2565	1280.136	1331.8105	1369.5683	1386.2765	1431.0822	1493.0206	1498.8428	1592.0034	1781.807	1802.8225	3016.116	3048.06	3124.1559	3151.9765	3596.7174	3723.1564	3736.5219
CC(O)C(=O)C(N)=O	C[C@@H](O)C(=O)C(=O)N	
InChI=1S/C4H7NO3/c1-2(6)3(7)4(5)8/h2,6H,1H3,(H2,5,8)	InChI=1S/C4H7NO3/c1-2(6)3(7)4(5)8/h2,6H,1H3,(H2,5,8)/t2-/m1/s1
