19
gdb 37010	3.40191	1.10351	1.09316	1.8809	75.62	-0.2476	0.0512	0.2988	1196.0833	0.158878	-422.954062	-422.945827	-422.944882	-422.98752	30.488	
C	-0.0616151805	 1.5936336792	 0.0113302018	-0.424195
C	 1.2430079891	 0.850806494	-0.0051709336	 0.224369
C	 2.3482397431	 0.8497160947	-1.0579457203	-0.137067
O	 3.3570628587	 0.8019072468	-0.0256924425	-0.273105
C	 2.3682107522	 0.8384899042	 1.0261582768	-0.137068
C	-0.040605317	 0.0924357773	 0.0030396981	 0.224368
C	-0.562913945	-0.893251479	 1.0449070353	-0.137068
O	-1.0179329114	-1.7828963354	 0.002292165	-0.273105
C	-0.5828727432	-0.882019114	-1.0391970239	-0.137067
H	-0.3527136789	 2.0962932816	 0.9301017528	 0.118554
H	-0.370215015	 2.1061406276	-0.8962207372	 0.118554
H	 2.3914689195	-0.0291057614	-1.7153599183	 0.104381
H	 2.4266963182	 1.7591854957	-1.6684081182	 0.103827
H	 2.4584445262	 1.7413391074	 1.6447659627	 0.103827
H	 2.4239392184	-0.0473579339	 1.673118786	 0.104381
H	 0.1922139667	-1.3658822429	 1.6873958959	 0.104381
H	-1.3913562985	-0.5331680775	 1.6693888517	 0.103827
H	-1.4230854558	-0.515311891	-1.6437816777	 0.103827
H	 0.1597635132	-1.3476203234	-1.7010858844	 0.104381
71.8868	107.3119	142.305	153.9329	249.3879	366.5493	407.4381	426.4307	503.1198	601.5127	848.8761	854.5528	866.9887	883.1144	890.4796	967.1063	969.9374	995.9675	1005.7066	1028.7035	1035.278	1044.7827	1113.9158	1132.2685	1148.4551	1150.9716	1154.0076	1164.9557	1167.434	1207.0189	1246.0758	1305.773	1308.6057	1353.4886	1371.4159	1444.6606	1503.4546	1510.4411	1515.0226	1528.044	1536.2413	2991.8113	2995.4522	3002.841	3007.1572	3038.0019	3038.6478	3040.5699	3041.7036	3107.3989	3192.0723
C1C2(COC2)C11COC1	C1C2(COC2)C21COC2	
InChI=1S/C7H10O2/c1-6(2-8-3-6)7(1)4-9-5-7/h1-5H2	InChI=1S/C7H10O2/c1-6(2-8-3-6)7(1)4-9-5-7/h1-5H2
