18
gdb 35081	3.38485	1.45526	1.2764	1.5352	82.04	-0.2158	0.0057	0.2215	1032.0926	0.149089	-364.73902	-364.731685	-364.730741	-364.770518	30.025	
C	-0.0849281499	-1.235629902	-0.1085752059	-0.447819
C	-0.0300898806	-0.0363033401	-0.0560105251	 0.340172
C	 0.0074325354	 1.4243022221	 0.0398952035	-0.209501
C	-0.744645812	 1.9098415463	 1.2819189784	-0.07106
C	-0.0899261436	 2.6809828883	 2.1479509416	-0.07476
C	 1.3531671634	 3.0204309722	 1.8320215941	-0.072729
C	 1.4092930642	 3.3887103311	 0.3258626163	-0.170693
N	 1.4133577165	 1.9142621563	-0.0028489162	-0.122406
C	 2.0403524933	 1.7127162313	 1.3581585351	-0.175181
H	-0.1259419629	-2.2950770835	-0.1675666889	 0.195155
H	-0.4854605701	 1.8309632182	-0.8555582225	 0.116276
H	-1.7776429842	 1.6037910395	 1.4104972337	 0.102913
H	-0.557410859	 3.067485298	 3.0478014144	 0.094875
H	 1.8339015513	 3.6595316245	 2.5752028037	 0.062741
H	 0.5784187174	 3.9632899005	-0.0918398498	 0.104716
H	 2.3620557452	 3.8248267734	 0.0108980571	 0.105026
H	 3.1267463982	 1.7964260541	 1.262430165	 0.104788
H	 1.7771965874	 0.7791956598	 1.8591795255	 0.117486
111.686	146.0059	294.6288	363.2795	418.8553	436.719	472.4675	533.8843	589.365	614.4986	657.0417	707.6697	730.0645	806.4022	839.7456	877.3013	917.0617	928.5332	935.0597	971.0774	980.0474	1013.1379	1051.2464	1077.0256	1116.1956	1122.2523	1174.5172	1207.7813	1247.3289	1261.5728	1280.3799	1298.7537	1326.2087	1331.9911	1383.0695	1490.5677	1517.2092	1695.6586	2237.0778	2994.0915	3045.6231	3054.9175	3087.2639	3107.4461	3122.4492	3169.8053	3193.5539	3503.8269
C#CC1C=CC2CN1C2	C#C[C@H]1C=C[C@@H]2CN1C2	
InChI=1S/C8H9N/c1-2-8-4-3-7-5-9(8)6-7/h1,3-4,7-8H,5-6H2	InChI=1S/C8H9N/c1-2-8-4-3-7-5-9(8)6-7/h1,3-4,7-8H,5-6H2/t8-/m0/s1
