20
gdb 109748	1.98135	1.44468	1.09105	6.2773	76.24	-0.2457	0.0262	0.272	1219.8362	0.171064	-440.306163	-440.29675	-440.295806	-440.340464	34.62	
C	-0.1027309531	 1.5551771001	-0.2357266426	-0.329706
N	 0.1414853624	 0.1251262429	-0.0201974324	-0.317825
H	 0.6907780639	-0.0130489532	 0.8217306769	 0.239104
H	-1.4024713935	-0.6621564476	-0.2375256848	 0.31565
C	 0.781358348	-0.5228795121	-1.1437872532	-0.020153
C	 0.8884634515	-2.0195707439	-1.1634363866	-0.053006
C	 0.4542090148	-2.908745242	-0.0163567285	-0.428626
C	-0.0939548771	-1.3227425396	-2.105779952	-0.186116
C	-1.5859974242	-1.4715392234	-1.952430579	 0.411221
O	-2.2677582907	-1.9037751038	-2.845976038	-0.345226
O	-2.1134942073	-1.1066079067	-0.7715867317	-0.390795
H	 0.8100453949	 2.1106660255	-0.4979909833	 0.117382
H	-0.8233937489	 1.6771681295	-1.0492402484	 0.151025
H	-0.5320269465	 1.991094423	 0.6697077705	 0.133138
H	 1.596293572	 0.03879958	-1.6042390782	 0.090707
H	 1.7751789823	-2.3855367457	-1.6741549577	 0.104297
H	-0.4816424578	-2.5835950121	 0.4395824649	 0.140677
H	 0.3053604865	-3.9324633814	-0.3734187105	 0.137431
H	 1.2251975434	-2.940022926	 0.7619749721	 0.11535
H	 0.1870656695	-1.3095614936	-3.1516746875	 0.115473
79.6631	119.5932	144.8651	181.5437	196.6617	212.5372	275.2869	329.8203	391.6123	410.4036	521.3929	544.62	682.2923	735.3158	790.7237	811.2139	833.9458	868.6638	953.1854	983.434	1008.9293	1032.8115	1045.9171	1099.4443	1112.5638	1143.5438	1157.297	1180.6574	1215.4774	1255.9706	1280.6826	1354.4085	1380.419	1425.1149	1429.4364	1455.0619	1466.218	1488.8278	1498.9103	1504.2655	1507.113	1514.7677	1846.2128	2994.9794	3038.7347	3075.5151	3087.6584	3097.3283	3127.2889	3135.5416	3152.2189	3191.465	3198.3135	3518.5659
C[NH2+]C1C(C)C1C([O-])=O	CN[C@H]1[C@@H](C)[C@H]1C(=O)O	
InChI=1S/C6H11NO2/c1-3-4(6(8)9)5(3)7-2/h3-5,7H,1-2H3,(H,8,9)	InChI=1S/C6H11NO2/c1-3-4(6(8)9)5(3)7-2/h3-5,7H,1-2H3,(H,8,9)/t3-,4+,5-/m0/s1
