21
gdb 105810	2.49208	1.45839	1.24428	2.0718	82.86	-0.1978	0.0644	0.2622	1146.1052	0.181256	-383.160453	-383.151393	-383.150449	-383.194074	34.768	
C	 0.6597290676	 1.5195595158	 0.5768749496	-0.377983
C	 0.1456630646	 0.1273468347	 0.1839467237	-0.280513
C	 0.6564886849	-0.3156959223	-1.1585797171	 0.347599
C	 0.0236321052	 0.2091459032	-2.5121790255	-0.125634
N	 0.9832924041	-0.0051034447	-3.6226917474	-0.33963
C	 0.1618336205	-1.1298354753	-3.1118810216	-0.072814
C	 0.8103287934	-1.6790171541	-1.7896729348	-0.141087
N	 1.9377750359	-0.9377961607	-1.3053156982	-0.114802
C	 3.1479158759	-0.4986996615	-2.0008502734	-0.291509
H	 1.7522741207	 1.5244446109	 0.6417937145	 0.126068
H	 0.3662103782	 2.275297625	-0.1599561244	 0.113981
H	 0.2610199859	 1.8283395618	 1.5480406558	 0.110663
H	 0.4570306537	-0.6106924844	 0.9306017666	 0.107692
H	-0.9525300486	 0.128349966	 0.1701823501	 0.092355
H	-0.7884072276	 0.9208479667	-2.5900279386	 0.089467
H	 0.5310803784	 0.3299846112	-4.4736827636	 0.228788
H	-0.5194724586	-1.6752289718	-3.7516803353	 0.091842
H	 0.5934733684	-2.6657017487	-1.3902482524	 0.088412
H	 3.1139328763	 0.5674363187	-2.2341222805	 0.124207
H	 4.010089953	-0.6919610688	-1.3494409909	 0.097509
H	 3.2882221684	-1.0374396219	-2.9396688365	 0.125391
74.1257	129.5196	145.182	200.931	228.8504	274.222	306.5354	356.5923	403.2086	505.6641	615.1424	666.9359	727.4719	752.0776	785.8072	811.6013	821.8264	888.4571	893.9062	921.3921	944.5222	971.3253	1000.9817	1023.6711	1076.8275	1098.0888	1108.4322	1135.4839	1147.0258	1184.4255	1201.8392	1226.9254	1278.5072	1290.016	1309.3984	1343.7756	1356.7189	1405.8083	1435.2836	1463.8738	1473.3139	1491.0175	1497.9103	1501.787	1508.0261	3012.3083	3019.0878	3033.3319	3071.5555	3093.7919	3101.9476	3109.8748	3133.7634	3145.797	3189.1446	3203.8463	3463.2799
CCC12C3NC3C1N2C	CC[C@]12[C@H]3N[C@H]3[C@H]1N2C	
InChI=1S/C7H12N2/c1-3-7-5-4(8-5)6(7)9(7)2/h4-6,8H,3H2,1-2H3	InChI=1S/C7H12N2/c1-3-7-5-4(8-5)6(7)9(7)2/h4-6,8H,3H2,1-2H3/t4-,5+,6-,7+,9?/m1/s1
