19
gdb 68440	2.50194	1.694	1.30767	3.5512	75.35	-0.2416	-0.0298	0.2118	1032.426	0.158747	-423.014163	-423.006099	-423.005155	-423.046714	31.274	
C	-0.0438098979	 1.5120744439	 0.0810227679	-0.509877
C	 0.026432619	 0.0036394266	 0.0573301173	 0.269082
C	 0.9515457389	-0.8007828936	-0.919615766	-0.27184
C	 0.6311357414	-1.9289402145	 0.0849066729	 0.105245
C	 0.670940099	-0.8608327625	 1.1983686754	-0.278167
O	-0.7817221161	-2.1467859547	-0.1119393792	-0.275044
C	-1.2875308327	-0.8121787552	-0.1555949851	 0.009697
C	-2.3423003556	-0.5411738914	 0.8995317002	 0.135564
O	-2.4968308251	-1.1771910839	 1.90860972	-0.238945
H	 0.9567558977	 1.9433983795	 0.1841328992	 0.125366
H	-0.4822389622	 1.9056133004	-0.8434365189	 0.122194
H	-0.6477048946	 1.8758607735	 0.9194512647	 0.128594
H	 0.6253823829	-0.9377181564	-1.9539644633	 0.100679
H	 1.987178575	-0.4572408893	-0.8764246289	 0.103063
H	 1.1434249533	-2.8875855222	 0.1264800931	 0.085967
H	 1.679205619	-0.5209683657	 1.4421019608	 0.100422
H	 0.0863745854	-1.0602529779	 2.0974596516	 0.129463
H	-1.7310459613	-0.5951122285	-1.1398854676	 0.084091
H	-2.980519496	 0.3448966518	 0.669661456	 0.074443
82.2253	146.9852	220.2019	228.49	282.5332	314.2614	383.9604	483.4344	524.7292	566.9893	668.9824	764.7065	791.2725	820.2873	859.4356	892.7573	925.2577	943.5228	962.6034	966.8612	1013.5039	1029.8273	1051.0561	1100.3391	1113.1974	1129.7571	1193.3908	1222.8373	1234.8399	1246.2007	1255.3457	1306.6078	1321.1155	1367.7824	1416.1927	1421.0427	1472.2445	1491.7206	1495.8748	1507.8982	1835.5212	2848.4331	2986.0716	3027.8876	3061.8974	3079.7852	3091.4774	3101.2815	3129.2726	3149.2079	3150.6662
CC12CC(C1)OC2C=O	C[C@@]12C[C@@H](C1)O[C@H]2C=O	
InChI=1S/C7H10O2/c1-7-2-5(3-7)9-6(7)4-8/h4-6H,2-3H2,1H3	InChI=1S/C7H10O2/c1-7-2-5(3-7)9-6(7)4-8/h4-6H,2-3H2,1H3/t5-,6-,7+/m0/s1
