14
gdb 14255	4.03126	1.82065	1.68107	3.9967	57.21	-0.2623	-0.014	0.2483	803.4957	0.107036	-419.672657	-419.665964	-419.66502	-419.70365	24.781	
C	 0.4410312841	 1.4782278819	-0.0072161082	-0.409696
C	 0.1033963715	 0.0085390759	 0.0811762898	 0.12525
O	 0.8727159093	-0.8281333538	-0.8427310281	-0.308131
C	 1.2752992807	-1.7146685771	 0.2174192413	-0.071947
C	 0.6030554146	-0.827476134	 1.275036447	 0.037966
O	 1.9070665357	-0.4070415423	 1.7704562229	-0.255855
C	 2.5820051675	-1.2297090642	 0.8783696116	 0.453711
O	 3.75267337	-1.37691443	 0.7744471397	-0.308313
H	 1.4850717852	 1.6562655714	 0.2577127692	 0.146912
H	 0.2690840265	 1.8357915894	-1.0265035054	 0.137916
H	-0.1977469837	 2.0542866999	 0.6703480109	 0.126604
H	-0.9665533538	-0.1684050027	-0.0912380638	 0.094246
H	 1.1228666479	-2.7734498341	 0.0091594836	 0.118019
H	-0.0606603655	-1.1303449501	 2.0805710195	 0.113318
104.5807	197.0231	230.2882	251.8316	385.9617	449.7266	569.2113	652.3779	744.3927	802.395	823.6989	871.0229	919.7807	928.2809	967.5697	1020.0818	1058.942	1094.473	1102.1142	1152.7929	1195.773	1225.6922	1272.3474	1317.5507	1325.2017	1377.2221	1410.7638	1485.0482	1492.2146	1948.515	3021.0353	3047.1297	3115.5794	3123.0821	3142.1999	3157.3493
CC1OC2C1OC2=O	C[C@H]1O[C@@H]2[C@H]1OC2=O	
InChI=1S/C5H6O3/c1-2-3-4(7-2)5(6)8-3/h2-4H,1H3	InChI=1S/C5H6O3/c1-2-3-4(7-2)5(6)8-3/h2-4H,1H3/t2-,3+,4-/m1/s1
