15
gdb 131157	3.45579	1.27686	0.95409	3.794	72.64	-0.2081	0.0165	0.2246	1156.6646	0.112759	-416.785547	-416.777218	-416.776274	-416.81898	30.986	
O	 0.9158993864	 1.1462262219	-0.0284032997	-0.44752
C	 0.361029909	-0.0921604871	-0.0299720393	 0.186789
C	 0.0725422431	-0.9348561678	-1.0911584762	 0.241818
C	 0.2391041279	-0.783465825	-2.577136444	-0.484931
C	 1.2718551594	 0.1883889726	-2.9352771012	 0.282867
C	 2.1139896219	 0.99847113	-3.2201505291	-0.423924
N	-0.4887366048	-2.0439369531	-0.5223317559	-0.259549
N	-0.5816990926	-1.973564979	 0.8137676463	-0.226279
C	-0.0651733137	-0.7870149517	 1.1234251479	-0.06826
H	 1.2633040413	 1.328769748	-0.9119254249	 0.295923
H	 0.5004054046	-1.7531672927	-3.023334263	 0.148122
H	-0.7074063959	-0.4817566349	-3.0500886051	 0.156141
H	 2.8664185888	 1.6974494897	-3.4929177307	 0.213046
H	-0.8075957766	-2.8753924424	-0.9897040635	 0.269485
H	-0.0091611288	-0.4602657583	 2.1504307584	 0.116272
35.2689	132.5994	219.0906	262.2777	325.0025	337.0255	389.7298	415.741	435.2424	456.5409	629.0593	656.9366	665.1483	702.6767	707.6406	755.0492	864.7633	943.1299	950.0755	963.2095	1126.0728	1161.8951	1209.2859	1248.1146	1261.4782	1303.3113	1358.6242	1435.8238	1455.902	1468.3217	1557.4462	1644.4601	2234.185	2992.1507	3023.614	3256.8859	3498.4672	3670.8442	3742.2854
OC1=C(CC#C)NN=C1	Oc1c(CC#C)[nH]nc1	
InChI=1S/C6H6N2O/c1-2-3-5-6(9)4-7-8-5/h1,4,9H,3H2,(H,7,8)	InChI=1S/C6H6N2O/c1-2-3-5-6(9)4-7-8-5/h1,4,9H,3H2,(H,7,8)
