20
gdb 64162	2.14653	1.46992	1.35295	3.3413	79.09	-0.2869	0.017	0.3039	1108.4425	0.168877	-403.15873	-403.149055	-403.148111	-403.19245	36.882	
C	-0.494637625	 1.4591003847	 0.2491821146	-0.447844
C	 0.0214506761	 0.0491666381	-0.0107313209	 0.281556
C	-1.0970024421	-0.8596548208	-0.5274018043	-0.445201
C	 1.3166599079	-0.0850649926	-0.8743304106	-0.260537
C	 1.8725728904	-1.1177392002	 0.1379423939	-0.274116
C	 0.8260701154	-0.6160033313	 1.1785416295	 0.242694
O	 1.3360008651	 0.3991769728	 2.0223538477	-0.462479
C	 0.1416602799	-1.640540714	 1.978560274	 0.229422
N	-0.3747911255	-2.4553552765	 2.616382561	-0.349475
H	 0.2869005418	 2.1046108389	 0.6524202159	 0.134006
H	-0.8563277505	 1.895242355	-0.6888176116	 0.113335
H	-1.3294912968	 1.4524589669	 0.9580824414	 0.12268
H	-1.4948778668	-0.4555575731	-1.4640039334	 0.117962
H	-0.7485349532	-1.8779266799	-0.7263780636	 0.122073
H	-1.9191199656	-0.9250840885	 0.191989663	 0.134863
H	 1.1773274282	-0.4297209379	-1.9010859503	 0.103681
H	 1.9007156852	 0.8376021684	-0.8862620172	 0.112771
H	 1.6991912724	-2.1526664503	-0.1627431396	 0.124395
H	 2.9107259224	-1.0081374811	 0.45898039	 0.108196
H	 1.9591798308	-0.0040307186	 2.6375975504	 0.292019
88.2138	138.3789	190.0399	209.5902	258.2416	271.4422	303.2974	323.1199	346.3753	369.2592	398.712	447.7601	535.6803	566.3564	617.6854	673.632	749.6247	868.0369	916.3951	942.4765	956.3008	963.7766	985.9505	1011.78	1034.0419	1119.3474	1178.7749	1195.6884	1215.2964	1241.1724	1259.6933	1281.9311	1293.2656	1350.0929	1403.0473	1424.2888	1467.5343	1482.2734	1485.088	1494.3419	1502.606	1509.1549	2343.568	3032.8116	3036.9934	3068.8496	3074.432	3095.3507	3104.1745	3109.4019	3118.4231	3135.645	3138.8634	3800.1514
CC1(C)CCC1(O)C#N	CC1(C)CC[C@]1(O)C#N	
InChI=1S/C7H11NO/c1-6(2)3-4-7(6,9)5-8/h9H,3-4H2,1-2H3	InChI=1S/C7H11NO/c1-6(2)3-4-7(6,9)5-8/h9H,3-4H2,1-2H3/t7-/m0/s1
