20
gdb 94414	2.36894	1.50499	1.34923	1.939	80.11	-0.2037	-0.024	0.1797	1092.1484	0.170088	-403.132832	-403.12396	-403.123016	-403.16644	33.244	
C	-0.3242737335	 1.4561776785	-0.2219973029	-0.341123
N	-0.1672243654	 0.0414576625	 0.0580033166	-0.110882
C	-1.2973591445	-0.7268088426	 0.6129990191	-0.160903
C	-0.2810721266	-1.5607473125	 1.4277719796	-0.300983
C	 0.7301839438	-0.4180557679	 1.1163498011	 0.266071
C	 2.2502102823	-0.678072785	 0.9040785818	-0.318936
C	 2.5714789351	-0.0561674199	 2.2948211121	-0.342225
C	 1.121256568	 0.4653877751	 2.3276141914	 0.341057
O	 0.5511761477	 1.3149597135	 2.9529702022	-0.310789
H	 0.6329665034	 1.8740635405	-0.5528932314	 0.117233
H	-1.0392605312	 1.5812847662	-1.0421096207	 0.11941
H	-0.674741346	 2.0390672606	 0.643909554	 0.125822
H	-1.9544786769	-0.1288103787	 1.2620389055	 0.102754
H	-1.9095403192	-1.2445483588	-0.1335112118	 0.099518
H	-0.5148019897	-1.7431205902	 2.476977919	 0.115911
H	 0.0012588834	-2.4964862284	 0.941163874	 0.115067
H	 2.5308758728	-1.7222012268	 0.7555320937	 0.1068
H	 2.6465211714	-0.0832695237	 0.0772480998	 0.116266
H	 2.7589410033	-0.7942216998	 3.0810238912	 0.130742
H	 3.348261542	 0.7102347275	 2.3462957554	 0.12919
75.5466	117.4455	141.9801	204.0632	221.756	248.2894	338.1669	352.5498	474.3872	515.4837	596.0873	675.7196	704.7941	749.2917	791.0634	853.6336	908.3446	927.2214	960.2608	978.8473	1018.4282	1058.075	1112.6272	1120.6202	1137.5362	1165.8455	1177.7326	1201.3267	1204.7227	1223.4502	1234.1522	1251.5625	1267.8758	1290.6187	1338.8096	1441.2099	1449.3264	1479.553	1480.59	1485.7935	1507.2896	1526.4171	1867.9244	2984.6496	2991.798	3054.5072	3061.2155	3062.4344	3071.1907	3079.3571	3094.1483	3113.9482	3130.1665	3139.9855
CN1CCC11CCC1=O	CN1CC[C@]21CCC2=O	
InChI=1S/C7H11NO/c1-8-5-4-7(8)3-2-6(7)9/h2-5H2,1H3	InChI=1S/C7H11NO/c1-8-5-4-7(8)3-2-6(7)9/h2-5H2,1H3/t7-/m1/s1
