16
gdb 99932	3.84947	0.70877	0.68218	5.8154	79.88	-0.2764	-0.0481	0.2284	1630.3991	0.121782	-437.864109	-437.854279	-437.853335	-437.899082	35.215	
C	-0.0064786335	 1.5383728543	 0.0130283196	-0.420908
C	-0.0011489899	-0.0037618766	-0.0031597761	 0.086799
O	 0.6630653825	-0.5076474888	 1.1457538444	-0.450707
C	-1.4477063776	-0.5789330176	-0.0236959541	-0.108775
O	-2.0632770554	-0.3821870642	 1.2393640423	-0.417797
C	 0.7058767104	-0.485611292	-1.1918244494	 0.189491
C	 1.2421230125	-0.8718291409	-2.2028761193	 0.013957
C	 1.8564190565	-1.3079286345	-3.3418286125	 0.202371
N	 2.3739567844	-1.6770658379	-4.3140849067	-0.332919
H	 1.0165730364	 1.9082358892	 0.1011745559	 0.150693
H	-0.4565955488	 1.9493831963	-0.8954122999	 0.12862
H	-0.5687766455	 1.892930417	 0.8831744842	 0.109771
H	-0.0239714621	-0.5631352775	 1.8263103816	 0.29438
H	-2.0278874896	-0.1393514414	-0.8435354954	 0.116315
H	-1.3926194918	-1.6600297807	-0.1715226926	 0.139454
H	-2.3973122585	 0.5193136851	 1.2861090282	 0.299254
71.4596	79.6428	132.5939	206.8751	234.2833	247.8708	295.2046	311.1895	352.1576	362.9511	441.2331	491.1175	532.389	539.3116	591.2778	604.7632	718.3106	835.5762	911.6614	963.8083	1046.1548	1066.6063	1100.0139	1147.9425	1205.7905	1251.1151	1364.9348	1395.4939	1401.7316	1415.1715	1483.5198	1488.2646	1497.9854	2265.0567	2401.5533	3037.1568	3041.1906	3112.0788	3114.773	3141.1122	3731.2635	3823.6044
CC(O)(CO)C#CC#N	C[C@@](O)(CO)C#CC#N	
InChI=1S/C6H7NO2/c1-6(9,5-8)3-2-4-7/h8-9H,5H2,1H3	InChI=1S/C6H7NO2/c1-6(9,5-8)3-2-4-7/h8-9H,5H2,1H3/t6-/m0/s1
