15
gdb 18305	3.48538	2.48445	1.6192	4.2892	66.84	-0.2415	-0.035	0.2066	776.8534	0.121662	-362.684642	-362.678503	-362.677559	-362.7149	23.806	
O	-0.0485024466	 0.0375300042	 0.4409882791	-0.365023
C	-0.084558871	 1.2006172334	 0.107781567	 0.352182
C	-1.2846583453	 2.0576640227	-0.1406071781	-0.176728
C	-0.927765916	 3.3470744873	-0.1387642575	-0.094327
C	 0.5627137923	 3.4505358558	-0.0331226696	-0.017949
C	 1.3076370924	 3.6900799705	 1.3284526149	-0.253949
C	 1.9180113517	 2.2742828585	 1.1509423664	-0.176197
N	 1.0266568989	 2.0488906108	-0.0241473613	-0.107352
H	-2.2791903765	 1.6417701856	-0.2252018814	 0.126256
H	-1.5804166858	 4.2037994724	-0.2571032989	 0.120051
H	 0.9883460223	 4.040826088	-0.8539472307	 0.100741
H	 2.0055730915	 4.528089587	 1.3421469216	 0.11524
H	 0.626571686	 3.7675105198	 2.1773238151	 0.122175
H	 2.9747823695	 2.2619763424	 0.872779632	 0.119187
H	 1.7469875364	 1.5520074916	 1.9524287714	 0.135695
129.6741	232.7866	240.2753	382.0366	512.9335	645.6422	687.2231	717.7131	756.6232	775.1477	825.0659	845.7833	913.8477	946.7679	981.4832	1000.421	1060.5183	1077.2998	1090.7614	1120.1076	1172.9615	1204.276	1238.3101	1253.5613	1261.7091	1309.7971	1334.3793	1356.3546	1482.476	1516.0702	1634.5394	1811.6118	3031.2392	3063.972	3083.0091	3115.3993	3145.1307	3204.4496	3242.0074
O=C1C=CC2CCN12	O=C1C=C[C@H]2CCN12	
InChI=1S/C6H7NO/c8-6-2-1-5-3-4-7(5)6/h1-2,5H,3-4H2	InChI=1S/C6H7NO/c8-6-2-1-5-3-4-7(5)6/h1-2,5H,3-4H2/t5-/m0/s1
