23
gdb 58509	2.54425	1.32407	1.24595	1.511	84.66	-0.2309	0.0826	0.3135	1193.8573	0.203889	-388.26043	-388.250817	-388.249873	-388.294201	37.587	
C	 0.0744557403	 1.4269292526	-0.255576087	-0.405594
C	 0.0486271641	-0.0562866182	 0.1424106419	 0.00474
C	 0.7360439078	-0.2989031548	 1.4938107617	-0.403359
C	-1.3723974636	-0.6389984706	 0.1038424558	 0.420043
C	-2.3516488966	 0.0025076192	 1.0803564524	-0.44138
O	-1.9433267089	-0.554013616	-1.2551031114	-0.341185
C	-2.2193980325	-1.9534450247	-1.2418482006	 0.101384
C	-0.962897529	-2.761254984	-1.1956679253	-0.319837
C	-1.5302315595	-2.1714182548	 0.0811362073	-0.170639
H	 1.1066591564	 1.7701109214	-0.3796007078	 0.107291
H	-0.4539950669	 1.5831264615	-1.1998217154	 0.134899
H	-0.3907793	 2.0607427169	 0.506812584	 0.111108
H	 0.617730837	-0.6023318152	-0.6184662088	 0.073534
H	 0.2773615781	 0.2896268557	 2.2954452383	 0.115733
H	 0.6940250698	-1.3546368905	 1.7816544475	 0.116243
H	 1.7905542527	-0.0102097467	 1.4409767004	 0.113428
H	-2.4615289171	 1.0706797481	 0.8776179285	 0.126309
H	-3.3349050313	-0.4647610816	 0.9810706704	 0.119919
H	-2.0173987284	-0.1218471129	 2.1154424898	 0.114878
H	-3.1715356058	-2.2877292465	-1.6377963331	 0.099343
H	-1.0973564537	-3.835682411	-1.2804301509	 0.112361
H	-0.0551198568	-2.3782843509	-1.6512024532	 0.117683
H	-1.8199714462	-2.7751503869	 0.9311682656	 0.093098
68.793	175.7561	190.7381	215.242	236.3052	248.0631	292.9508	309.2155	322.0639	433.8751	456.9847	482.5377	513.7135	639.607	760.522	798.9267	851.0965	879.1197	906.5551	933.0601	934.5121	965.6898	971.943	975.5263	1006.7238	1045.1234	1054.2556	1070.965	1086.793	1107.7305	1144.9815	1172.5064	1194.9535	1222.2722	1269.8146	1290.3647	1340.5204	1355.2936	1380.707	1395.3101	1407.223	1419.103	1476.6283	1481.9447	1487.0823	1490.6361	1503.2306	1507.7385	1514.9033	3031.4109	3035.1672	3037.8439	3044.7301	3095.7928	3101.0018	3103.1549	3114.6109	3119.3903	3121.0505	3125.6726	3173.7814	3194.5091	3209.3484
CC(C)C1(C)OC2CC12	CC(C)[C@@]1(C)O[C@H]2C[C@@H]12	
InChI=1S/C8H14O/c1-5(2)8(3)6-4-7(6)9-8/h5-7H,4H2,1-3H3	InChI=1S/C8H14O/c1-5(2)8(3)6-4-7(6)9-8/h5-7H,4H2,1-3H3/t6-,7+,8-/m1/s1
