17
gdb 84634	2.75162	1.86112	1.53956	2.2459	71.45	-0.2337	-0.0175	0.2162	907.7282	0.138097	-421.817388	-421.810496	-421.809551	-421.848332	28.446	
O	 0.1308110823	 1.3970865023	-0.1404492953	-0.438069
C	 0.0301463409	-0.019199776	-0.0305617362	 0.084501
C	 0.7935810729	-0.5378725422	 1.1751423898	-0.104256
C	 0.2371508794	-1.3635756647	 2.0616223884	-0.060285
C	-1.2027427053	-1.7950824466	 1.8174293961	-0.020938
O	-1.406489642	-1.8869603976	 0.4044906968	-0.250852
C	-1.4470563277	-0.5143273016	 0.004695751	-0.008375
C	-2.2442625066	 0.139743619	 1.1245379793	-0.103878
C	-2.1195258791	-0.6281251165	 2.2035568294	-0.07642
H	-0.1386934675	 1.767191702	 0.7079592255	 0.283252
H	 0.4906720349	-0.4051351671	-0.9474369612	 0.103897
H	 1.8077583043	-0.1639039417	 1.290388144	 0.099292
H	 0.7577810641	-1.7015855607	 2.9524977629	 0.096656
H	-1.4475027149	-2.7573137761	 2.2728212477	 0.086691
H	-1.9069837169	-0.4427382791	-0.9837462316	 0.086741
H	-2.7613858319	 1.0858123236	 1.0385569413	 0.111006
H	-2.498067617	-0.4515193972	 3.2016134722	 0.111038
126.3361	251.9302	341.3866	359.58	368.5372	454.8552	459.9433	567.556	637.79	686.6864	743.9437	745.8231	811.6301	838.1881	887.1891	923.7601	931.2652	949.5425	966.8474	985.5067	989.805	1058.9224	1073.104	1084.9866	1133.4363	1175.0791	1242.1321	1261.7613	1271.631	1298.7592	1312.0807	1351.0748	1368.8938	1383.1548	1417.2271	1656.7362	1696.128	3042.8019	3085.7842	3089.6868	3155.733	3181.7388	3213.367	3238.9589	3796.0991
OC1C=CC2OC1C=C2	O[C@H]1C=C[C@@H]2O[C@H]1C=C2	
InChI=1S/C7H8O2/c8-6-3-1-5-2-4-7(6)9-5/h1-8H	InChI=1S/C7H8O2/c8-6-3-1-5-2-4-7(6)9-5/h1-8H/t5-,6-,7-/m0/s1
