20
gdb 40628	3.49589	1.22703	1.22018	1.9752	78.8	-0.239	0.0856	0.3246	1130.9212	0.17305	-403.092944	-403.085493	-403.084548	-403.125162	29.725	
C	 0.8509737407	 1.7001377066	 0.1565253203	-0.225587
C	 1.1371205125	 0.3756825192	-0.4539972349	-0.225597
N	-0.1721996387	 0.6548222413	 0.1356718021	-0.075144
C	-0.4460932917	 0.0136467932	 1.3986629306	 0.065087
C	-1.667002079	 0.4602185479	 2.2416282654	 0.040292
C	-2.8429354753	 0.4435523736	 1.2461456585	-0.21019
C	-2.5431379352	-0.9481889495	 0.6047429681	-0.210175
C	-1.2911598219	-1.2844806433	 1.4375133854	 0.04024
O	-1.695699002	-0.8960047538	 2.7882408322	-0.301379
H	 1.3288952747	 1.9240753564	 1.1088039112	 0.114521
H	 0.6519910652	 2.5654102117	-0.4687415407	 0.11997
H	 1.1509683936	 0.2561473429	-1.5332410684	 0.119974
H	 1.8071496067	-0.2892434645	 0.0885209211	 0.11452
H	 0.4355632636	-0.0954570315	 2.0475096075	 0.067081
H	-1.6158353373	 1.2437993437	 2.9977305238	 0.073339
H	-3.8005209091	 0.4749687002	 1.7696248164	 0.1009
H	-2.7941640354	 1.2632479523	 0.5269317145	 0.108949
H	-3.3368018575	-1.67773264	 0.7775187224	 0.1009
H	-2.3308358389	-0.8875234249	-0.4642696	 0.10895
H	-0.8563288449	-2.2819910917	 1.3727686844	 0.073349
70.3231	166.5624	178.9195	298.0382	313.5364	460.6513	496.2875	534.634	743.5454	777.8025	823.2592	850.7169	852.4742	865.4294	874.0117	894.7633	908.6784	926.8938	991.8157	997.1395	1003.1791	1029.9108	1051.7732	1098.3579	1114.1278	1120.7853	1134.9871	1167.1893	1184.6302	1199.9949	1203.6473	1230.0275	1253.2092	1275.2802	1306.2499	1311.6004	1324.2456	1343.4866	1388.3586	1467.0451	1488.4463	1492.61	1519.3966	2996.0372	3072.7415	3080.1096	3096.9804	3101.2836	3119.5268	3121.9069	3124.7281	3136.8266	3180.8834	3195.2045
C1CN1C1C2CCC1O2	C1CN1[C@H]1[C@H]2CC[C@@H]1O2	
InChI=1S/C7H11NO/c1-2-6-7(5(1)9-6)8-3-4-8/h5-7H,1-4H2	InChI=1S/C7H11NO/c1-2-6-7(5(1)9-6)8-3-4-8/h5-7H,1-4H2/t5-,6+,7+
