19
gdb 119697	4.42418	0.91338	0.89851	0.9813	74.57	-0.2264	0.0772	0.3036	1346.2978	0.15887	-422.947201	-422.93894	-422.937996	-422.980626	31.411	
O	-0.162694701	 1.452845907	 0.0938836261	-0.419738
C	-0.0173204	 0.0440631661	 0.1843492753	-0.066631
C	-1.3607287746	-0.5836606202	-0.1801086741	-0.316159
C	-1.3357581669	-2.0827266516	-0.128782194	 0.298253
C	-0.5755778847	-3.0654240758	-1.0295769564	-0.287393
C	-1.438777794	-4.1574123737	-0.3523024417	 0.068713
O	-0.9579960176	-4.1708567075	 1.0237137676	-0.297605
C	-1.5873640547	-2.8979115914	 1.1597486279	 0.056355
C	-2.5096095649	-3.0575324146	 0.0005588009	-0.209954
H	 0.6826137542	 1.8572550017	 0.3091157704	 0.286062
H	 0.7623452167	-0.3223200386	-0.5025108191	 0.090412
H	 0.2720527087	-0.2673443937	 1.2005154448	 0.090078
H	-2.1222619927	-0.1964958904	 0.5085598666	 0.106303
H	-1.645548656	-0.2376945103	-1.1817620127	 0.108508
H	-0.8467514219	-2.9259044577	-2.0799874522	 0.102043
H	 0.5091444831	-3.1706648669	-0.9216917536	 0.097981
H	-1.592394243	-5.1499198193	-0.7699911465	 0.087291
H	-1.7162534309	-2.4724713337	 2.14669094	 0.106609
H	-3.5772810798	-2.9536129593	-0.1361768093	 0.09887
78.4999	90.883	116.7657	260.3748	292.3412	339.0377	343.6451	455.8362	533.7473	687.8864	747.8278	773.9433	800.759	808.4453	827.3563	907.9473	918.9094	945.9119	968.312	990.3375	1015.1349	1040.547	1043.1868	1070.0668	1084.0041	1143.1838	1156.2987	1166.4405	1197.16	1224.4152	1242.8363	1245.4366	1289.9765	1305.2969	1323.9042	1338.6879	1412.8542	1461.2397	1487.2367	1489.3344	1528.1392	2968.0346	2994.2939	3023.4558	3041.2193	3062.8294	3103.6294	3146.3332	3197.9143	3211.9432	3831.9243
OCCC12CC3OC1C23	OCC[C@@]12C[C@H]3O[C@@H]1[C@@H]23	
InChI=1S/C7H10O2/c8-2-1-7-3-4-5(7)6(7)9-4/h4-6,8H,1-3H2	InChI=1S/C7H10O2/c8-2-1-7-3-4-5(7)6(7)9-4/h4-6,8H,1-3H2/t4-,5+,6-,7+/m1/s1
