16
gdb 37205	2.80701	2.08304	1.76375	1.3425	66.08	-0.2233	0.0383	0.2616	827.1237	0.125213	-437.747343	-437.740875	-437.73993	-437.777783	26.68	
C	-0.0033421662	 1.5237972516	-0.0173131569	-0.23963
N	 1.5099239767	 1.5499128211	 0.0150091061	-0.369225
C	 1.5446203421	 0.0646720495	-0.0479492711	 0.151203
C	 1.5002122623	-0.6900068003	 1.3001517808	-0.130113
O	 0.0343530296	-0.7359119175	 1.258932626	-0.33042
C	 0.037545836	-0.0304531702	 0.0106223535	 0.325295
C	 0.0443138511	-0.8891881823	-1.2683025208	-0.05248
O	 0.6800394853	-0.087591746	-2.2633360638	-0.226835
C	 1.5333029887	-0.7724994522	-1.3403658838	-0.050107
H	-0.4487034681	 1.982886267	 0.8689882149	 0.118133
H	-0.4490847016	 1.9439614835	-0.9228511684	 0.119101
H	 1.9135267396	 1.9935642989	-0.8027842417	 0.230493
H	 1.931495726	-1.696713675	 1.328554877	 0.10836
H	 1.8625803075	-0.0986216884	 2.1459502769	 0.123631
H	-0.6313693162	-1.6681330213	-1.6042836989	 0.113941
H	 2.2856104472	-1.4268258383	-1.7685409297	 0.108653
195.7485	260.1565	311.5925	341.9462	361.4776	531.3125	553.2987	651.5579	712.4796	751.3552	794.3048	833.1939	855.4479	867.8876	903.2304	923.9119	944.8096	970.6478	1002.6683	1034.8701	1096.3258	1130.6047	1135.7917	1150.7818	1170.0176	1188.8782	1238.239	1261.3683	1274.28	1301.0532	1327.1655	1343.4055	1378.1554	1478.2546	1501.3984	3033.5159	3053.109	3097.6728	3111.7133	3165.9821	3182.952	3539.6918
C1NC23COC12C1OC31	C1N[C@@]23CO[C@@]12[C@H]1O[C@@H]31	
InChI=1S/C6H7NO2/c1-6-4-3(9-4)5(6,7-1)2-8-6/h3-4,7H,1-2H2	InChI=1S/C6H7NO2/c1-6-4-3(9-4)5(6,7-1)2-8-6/h3-4,7H,1-2H2/t3-,4+,5-,6-/m1/s1
