20
gdb 74635	2.90615	1.50273	1.34184	1.9394	84.5	-0.2073	0.004	0.2113	1076.3241	0.171165	-365.946938	-365.938929	-365.937985	-365.978977	32.014	
C	-0.08510435	 1.5109194396	 0.0057330056	-0.512071
C	 0.005670999	 0.0247627965	-0.0383332914	 0.341556
C	-0.0311602991	-0.844474067	-1.0548649341	-0.21403
C	 0.0733635492	-2.1857043036	-0.3692868786	-0.064656
N	-0.8439487425	-2.0748100617	 0.8871925351	-0.148588
C	 0.1617194943	-2.9749158078	 1.6056897018	-0.224889
C	 1.1101320895	-2.0720806107	 0.8048378521	 0.314061
C	 2.6148334903	-2.0573318862	 0.7319708512	-0.525705
C	 0.1339691839	-0.8958018234	 1.1632570054	-0.132446
H	 0.7958325243	 1.9532959145	 0.4881761142	 0.127046
H	-0.1705586557	 1.9359193738	-0.9980462654	 0.127653
H	-0.955658689	 1.8374250772	 0.5885182379	 0.135491
H	-0.14155299	-0.6625423548	-2.1148151743	 0.102665
H	-0.0263004287	-3.1117685372	-0.9385081035	 0.064791
H	 0.1437830897	-2.8677006432	 2.694982297	 0.091887
H	 0.0877074215	-4.0289752727	 1.3189801634	 0.092548
H	 3.0014741016	-3.0171860351	 0.3723279254	 0.120608
H	 2.9576143031	-1.2748186069	 0.0459121259	 0.123049
H	 3.0571179832	-1.8661357888	 1.7158647431	 0.119511
H	 0.0983587353	-0.4854106625	 2.1752051893	 0.061521
141.6077	163.9217	206.0174	239.8472	270.0879	296.5798	469.8641	473.3318	538.4282	578.4322	632.4881	730.3628	763.5336	784.7496	815.2303	868.3497	898.2458	918.4109	925.4058	973.7685	989.5637	1014.9148	1028.934	1059.1784	1100.0418	1127.1183	1141.3484	1178.6977	1191.609	1214.079	1243.0581	1249.7298	1297.36	1329.9175	1337.5797	1401.6225	1413.4433	1477.7941	1486.3849	1486.9758	1487.2638	1529.399	1692.9044	3017.3548	3025.6072	3037.2431	3062.9396	3091.7195	3094.2322	3095.9716	3096.617	3103.7606	3110.4862	3229.434
CC1=CC2N3CC2(C)C13	CC1=C[C@@H]2N3C[C@]2(C)[C@@H]13	
InChI=1S/C8H11N/c1-5-3-6-8(2)4-9(6)7(5)8/h3,6-7H,4H2,1-2H3	InChI=1S/C8H11N/c1-5-3-6-8(2)4-9(6)7(5)8/h3,6-7H,4H2,1-2H3/t6-,7+,8-/m0/s1
