21
gdb 57335	2.00414	1.46063	1.30659	4.4279	78.03	-0.2542	0.0303	0.2845	1143.7902	0.179229	-420.421668	-420.410657	-420.409713	-420.456494	41.354	
C	-0.0364683456	 1.53936716	 0.0840352977	-0.445937
C	 0.0159416672	 0.0058584095	 0.0576235896	 0.340841
C	 0.6982277971	-0.520137044	 1.3281045527	-0.436813
O	-1.3107687374	-0.5238866471	-0.0464009728	-0.477641
C	 0.7058315907	-0.5270105167	-1.2657237364	 0.08965
C	 0.7663224825	-2.0706506654	-1.2849781962	-0.411007
N	 0.0076881035	-0.1039322684	-2.4896261144	-0.535085
C	 2.0814914689	 0.0013171368	-1.32714128	 0.299013
N	 3.1583705184	 0.4196730591	-1.3538995645	-0.356505
H	 0.9664795044	 1.9746125566	 0.100760272	 0.147749
H	-0.5784715576	 1.9322325427	-0.7793647267	 0.115665
H	-0.5586961904	 1.8754471624	 0.9867296776	 0.110266
H	 0.2257653699	-0.0804097199	 2.2135559129	 0.108367
H	 0.6053145833	-1.6049508559	 1.4030565948	 0.130673
H	 1.7586657215	-0.2525504947	 1.3522174013	 0.143782
H	-1.8303306678	-0.1723795874	 0.6833937485	 0.283864
H	-0.241583308	-2.465516387	-1.1434792348	 0.140015
H	 1.1459210261	-2.394714933	-2.2548537986	 0.141616
H	 1.414347164	-2.4652837997	-0.5010567465	 0.129066
H	-0.9798445349	-0.307744657	-2.3568758843	 0.245071
H	 0.087627474	 0.8995911988	-2.6189217921	 0.237349
81.4026	148.3719	182.2076	205.0691	208.0289	231.437	239.674	272.3659	299.3068	311.2172	364.5207	368.2816	383.0442	437.0821	474.292	490.2047	576.1947	599.365	662.065	825.4644	871.061	901.5736	929.0718	957.0566	980.9383	1005.9876	1056.9428	1112.5741	1151.8151	1180.5793	1215.8384	1233.4417	1334.1766	1356.93	1397.6116	1401.5645	1416.6774	1481.8164	1482.8647	1493.7958	1496.433	1502.4784	1514.7943	1657.1068	2356.8198	3036.0914	3041.8336	3067.3098	3101.6226	3107.6779	3130.3331	3137.9926	3151.0938	3153.6201	3492.4306	3579.1677	3823.5343
CC(C)(O)C(C)(N)C#N	CC(C)(O)[C@@](C)(N)C#N	
InChI=1S/C6H12N2O/c1-5(2,9)6(3,8)4-7/h9H,8H2,1-3H3	InChI=1S/C6H12N2O/c1-5(2,9)6(3,8)4-7/h9H,8H2,1-3H3/t6-/m0/s1
