21
gdb 78354	2.58882	1.35188	1.08072	1.6849	83.31	-0.2448	0.0736	0.3185	1220.0819	0.181897	-387.047575	-387.038695	-387.037751	-387.080659	34.794	
C	-0.0977890925	 1.39008829	-0.0215386273	-0.425206
C	 0.0660345348	-0.1117597858	 0.0797902157	-0.016574
C	 1.4362680072	-0.6764799216	-0.2112400044	-0.09434
C	 0.8676909666	-0.6754491991	 1.2196994666	-0.152807
C	 0.7884658149	-2.1881450246	 1.1878200568	 0.339862
C	 1.0369150395	-3.1645278253	 2.2921568577	-0.353783
C	-0.3309416485	-3.0767120363	 1.6496283891	-0.324668
C	 1.44636533	-2.209473651	-0.2151097331	 0.04542
O	 0.8299623587	-2.917579087	-1.2643123175	-0.431427
H	 0.8022252337	 1.9083486884	 0.3260898075	 0.117383
H	-0.2808732196	 1.7007270752	-1.0558975246	 0.119695
H	-0.9387398883	 1.7386319733	 0.5874107874	 0.119081
H	-0.8142812434	-0.6743323479	-0.2343522336	 0.066549
H	 2.2132216606	-0.0481003529	-0.6314324239	 0.083004
H	 1.1839576365	-0.0731116448	 2.063242152	 0.085164
H	 1.6506824542	-4.0343744942	 2.0777692169	 0.114194
H	 1.1485281615	-2.7788345671	 3.3008577494	 0.110277
H	-1.1410175753	-2.637938867	 2.2235039181	 0.108985
H	-0.627469397	-3.8806377919	 0.9829279918	 0.116596
H	 2.4676497953	-2.5984507874	-0.162659658	 0.092835
H	-0.048500599	-2.5440392731	-1.3937036566	 0.279762
117.1736	159.1681	190.708	212.0356	220.4679	269.047	292.4421	351.1728	447.0251	459.8594	577.7165	622.2339	738.2838	784.347	793.1073	853.9469	864.0409	909.1234	931.4072	955.6488	984.5318	1000.7714	1002.6176	1045.8759	1047.3704	1066.6831	1077.7703	1106.5822	1119.03	1146.6581	1189.7465	1193.3021	1222.7072	1233.0434	1275.4048	1277.3349	1305.2199	1388.4531	1415.7501	1422.0109	1434.289	1459.2578	1493.3532	1501.849	1502.4929	3028.3796	3069.1609	3078.5348	3092.8869	3101.6471	3118.4364	3122.3238	3171.7214	3183.4126	3197.0464	3212.9616	3806.1543
CC1C2C1C1(CC1)C2O	C[C@H]1[C@H]2[C@@H]1C1(CC1)[C@H]2O	
InChI=1S/C8H12O/c1-4-5-6(4)8(2-3-8)7(5)9/h4-7,9H,2-3H2,1H3	InChI=1S/C8H12O/c1-4-5-6(4)8(2-3-8)7(5)9/h4-7,9H,2-3H2,1H3/t4-,5-,6+,7-/m0/s1
