18
gdb 31162	1.9745	1.79594	0.99521	0.9705	75.38	-0.1749	0.0625	0.2374	1189.272	0.146278	-439.104878	-439.0951	-439.094156	-439.139505	35.105	
C	-0.1184963415	 1.4582258222	 0.120277993	-0.24924
O	 0.1632305733	 0.0745318869	-0.0591983676	-0.289091
C	 0.6897728711	-0.5490898571	 1.0498562287	 0.086127
C	 2.0037702945	-0.9432303126	 1.1286546518	 0.314538
O	 3.0307555463	-0.8085794312	 0.2541752481	-0.444143
N	 2.1862156075	-1.593143636	 2.3115843921	-0.312678
C	 0.9833084177	-1.623751984	 3.000682298	-0.187445
C	 0.0286446218	-0.9861716125	 2.2456425686	 0.184197
C	-1.4167662982	-0.7984840813	 2.5897822233	-0.506813
H	 0.7798695074	 2.0138089609	 0.4207526799	 0.110038
H	-0.4766593254	 1.8363888673	-0.8407980457	 0.122539
H	-0.8960834981	 1.6169073255	 0.8777709902	 0.119488
H	 2.6501228978	-0.4368389092	-0.5510713789	 0.307758
H	 3.051695857	-2.0118715383	 2.6015361863	 0.265494
H	 0.9135755366	-2.0938735705	 3.9676494879	 0.112917
H	-1.6568898696	 0.243551634	 2.8368247502	 0.11907
H	-2.0647197058	-1.0848524303	 1.7538700939	 0.128699
H	-1.6947557524	-1.4094564538	 3.4535115402	 0.118545
67.3898	119.4823	149.0414	154.6454	191.4717	242.8775	262.1129	286.6086	356.6136	400.3459	431.3222	540.0823	563.5716	626.8264	652.0672	691.57	731.2587	773.0543	997.4084	1036.38	1059.8087	1063.7075	1097.6447	1176.7449	1179.7156	1213.299	1247.7255	1283.9622	1385.5292	1407.8307	1418.0989	1477.2016	1480.0281	1487.7201	1496.0897	1506.6248	1566.0971	1586.4727	1667.8602	3002.3256	3018.0345	3063.6332	3068.2547	3104.6408	3114.7759	3267.5076	3693.3225	3800.0445
COC1=C(O)NC=C1C	COc1c(O)[nH]cc1C	
InChI=1S/C6H9NO2/c1-4-3-7-6(8)5(4)9-2/h3,7-8H,1-2H3	InChI=1S/C6H9NO2/c1-4-3-7-6(8)5(4)9-2/h3,7-8H,1-2H3
