15
gdb 10260	2.41981	1.87209	1.32689	4.0421	65.85	-0.2617	-0.0204	0.2413	959.1693	0.117587	-358.84018	-358.831427	-358.830483	-358.873494	30.222	
C	 0.0674908116	 1.4915462111	-0.0357059765	-0.349739
N	-0.0070971739	 0.0333288984	 0.0366688009	-0.046873
C	 0.7089395343	-0.5145718038	 1.1851229052	-0.337466
C	-1.3573350367	-0.4927104605	-0.0684604917	-0.260507
C	-2.2751959178	-0.0338933925	 1.014799795	 0.294613
N	-2.9046677332	 0.3396677373	 1.9085304927	-0.311891
C	-1.9469452267	-0.1892625512	-1.3863601674	 0.321328
N	-2.4014782541	 0.0323288272	-2.4235800765	-0.305783
H	 1.1196713954	 1.782234502	-0.0834928348	 0.137495
H	-0.4242325481	 1.8428460687	-0.9464508515	 0.154071
H	-0.3945203626	 1.9911338825	 0.8314368998	 0.128969
H	 0.2893776554	-0.1974813011	 2.1544550241	 0.129443
H	 0.6984466695	-1.6081679543	 1.1421326287	 0.130324
H	 1.7491365075	-0.183373634	 1.1371678928	 0.139855
H	-1.2979074706	-1.5861207999	 0.0111270291	 0.17616
82.2886	126.8122	151.5387	168.5427	238.6248	242.926	339.4756	362.1941	389.405	396.9063	527.5932	576.5918	623.5719	844.4225	889.6237	997.7469	1063.0202	1072.3513	1123.3707	1187.5017	1203.982	1293.9074	1307.0441	1356.8316	1447.6253	1476.0572	1480.8295	1496.9588	1500.733	1516.2993	2350.5469	2376.0147	2972.1338	2980.3032	3036.3813	3074.828	3088.6949	3120.9784	3129.9695
CN(C)C(C#N)C#N	CN(C)C(C#N)C#N	
InChI=1S/C5H7N3/c1-8(2)5(3-6)4-7/h5H,1-2H3	InChI=1S/C5H7N3/c1-8(2)5(3-6)4-7/h5H,1-2H3
