18
gdb 114027	3.97622	0.69879	0.67434	3.2195	69.98	-0.2666	0.0074	0.274	1659.4968	0.146675	-476.203677	-476.194105	-476.193161	-476.239848	33.154	
O	-0.1799030546	 1.0146572076	-1.0827382281	-0.416616
C	-0.0330214633	 0.1602770396	 0.0366375218	-0.066069
C	-1.2939491472	-0.6435500168	 0.2623712363	-0.040442
N	-1.5310055038	-1.7267826207	-0.7127307279	-0.348853
C	-1.3516245648	-2.0616281786	 0.710205621	-0.025912
C	-0.1503245275	-2.9082403627	 1.0464318222	-0.106678
O	-0.4572828853	-4.2947283821	 0.8403566721	-0.182642
C	-0.1928387899	-4.808090941	-0.3805510014	 0.175432
O	-0.4835441473	-5.9265627952	-0.6798811365	-0.274599
H	-0.3876236785	 0.4449957834	-1.8327853153	 0.291047
H	 0.8339231992	-0.5046464636	-0.0823786659	 0.08875
H	 0.1601883164	 0.8093646676	 0.8972338379	 0.115677
H	-2.1535580159	-0.0306459565	 0.5290551615	 0.101357
H	-2.5117131898	-1.7779079314	-0.9724416889	 0.244314
H	-2.2411738493	-2.3487475449	 1.2682334247	 0.106496
H	 0.7156245407	-2.6219559309	 0.4420306832	 0.119217
H	 0.1141024219	-2.8173213227	 2.1032080394	 0.129775
H	 0.3207432989	-4.090372651	-1.0464584662	 0.089746
39.3586	69.0638	74.2057	130.0892	166.4945	230.5307	304.3208	356.1602	403.4813	433.7522	482.1143	555.8833	681.1837	805.3186	852.2718	892.8985	970.1719	983.9013	1017.6241	1033.2046	1042.0906	1052.5591	1073.7806	1132.8999	1160.0677	1187.1042	1245.6387	1270.8109	1274.8603	1314.2312	1361.7502	1380.3274	1407.9732	1428.5865	1440.6238	1483.4426	1490.0326	1499.0527	1866.4051	2973.2916	3006.0675	3057.7278	3076.8077	3108.8022	3121.9528	3133.5718	3516.6159	3793.713
OCC1NC1COC=O	OC[C@H]1N[C@H]1COC=O	
InChI=1S/C5H9NO3/c7-1-4-5(6-4)2-9-3-8/h3-7H,1-2H2	InChI=1S/C5H9NO3/c7-1-4-5(6-4)2-9-3-8/h3-7H,1-2H2/t4-,5+/m1/s1
