17
gdb 20887	6.5716	1.1299	1.04821	0.7555	70.7	-0.2554	0.0013	0.2567	1155.6019	0.144267	-360.057558	-360.049812	-360.048868	-360.090968	27.229	
C	-0.0275196815	 1.5334791367	-0.0105915107	-0.381697
C	 0.0080532318	 0.0037460493	 0.0034557829	-0.176205
C	 0.7358071191	-0.5373671788	 1.2387168123	-0.125918
N	 0.7795152547	-1.9909879594	 1.2672146998	 0.149202
N	-0.1879261654	-2.7149889219	 1.8189023932	-0.231193
C	 0.1801510995	-3.9737355908	 1.567661247	-0.061186
C	 1.3829136814	-3.9514314479	 0.8509876373	-0.060961
N	 1.7443589979	-2.6791601127	 0.6673400148	-0.231471
H	 0.983282807	 1.9559699601	-0.0179602823	 0.120385
H	-0.5486576004	 1.9042260244	-0.897619667	 0.122245
H	-0.5465969668	 1.9287842347	 0.8694952028	 0.120369
H	-1.0098589031	-0.4013626251	-0.0077910668	 0.119656
H	 0.5127680673	-0.3739875641	-0.8925994154	 0.12011
H	 1.7712529879	-0.1890978207	 1.2635508046	 0.135081
H	 0.2348001661	-0.2193051176	 2.1561418234	 0.135401
H	-0.4142715294	-4.8055261073	 1.9100769237	 0.123099
H	 1.9893914237	-4.7609896188	 0.4777952203	 0.123084
36.4706	87.227	106.2705	225.7799	291.7823	373.8224	376.1577	681.4241	698.2465	754.1431	776.5906	845.8398	881.4163	893.8555	904.115	981.8119	997.3327	1044.6254	1098.0291	1100.6503	1124.4729	1208.6985	1252.682	1295.6506	1314.0003	1331.4716	1385.3408	1397.7251	1403.7223	1415.2674	1446.8952	1472.5906	1493.2231	1498.503	1504.4747	1509.4817	3032.587	3043.134	3074.7368	3076.2676	3101.0915	3111.0526	3132.5393	3263.6214	3281.2852
CCCN1N=CC=N1	CCCn1nccn1	
InChI=1S/C5H9N3/c1-2-5-8-6-3-4-7-8/h3-4H,2,5H2,1H3	InChI=1S/C5H9N3/c1-2-5-8-6-3-4-7-8/h3-4H,2,5H2,1H3
