21
gdb 105883	2.12945	1.40672	1.24785	1.8174	77.99	-0.2293	0.0661	0.2954	1177.7422	0.180895	-424.187129	-424.177652	-424.176708	-424.221205	35.882	
C	-0.2546379211	 1.5451904132	-0.0097717451	-0.373826
C	 0.0987411982	 0.0523710933	 0.0627857502	-0.302521
C	 0.7120727968	-0.4734452049	-1.2057768967	 0.213861
C	-0.0979861826	-1.0255198182	-2.377175378	 0.069632
O	 0.0265817487	-0.6326959586	-3.7093277334	-0.435932
C	 0.9186657935	-1.8967511078	-1.7292371399	-0.043021
O	 2.2013581386	-1.5754803118	-2.2896147963	-0.330368
C	 2.1634331026	-0.2547023264	-1.6493602367	 0.102787
C	 2.5656450352	 0.8904763755	-2.5583064353	-0.426969
H	 0.6361168805	 2.1574812606	-0.1848109377	 0.118955
H	-0.9571327857	 1.7421400321	-0.8256655158	 0.127071
H	-0.712834161	 1.8853629982	 0.9239280277	 0.113045
H	 0.7849946042	-0.1244361315	 0.9023422492	 0.097961
H	-0.806974838	-0.5247879276	 0.2875236173	 0.1006
H	-1.132156358	-1.2319469607	-2.111436714	 0.104209
H	 0.886680337	-0.9687482091	-3.9976502324	 0.293056
H	 0.7888758208	-2.884098101	-1.2984822046	 0.101606
H	 2.828563828	-0.294301077	-0.7750925994	 0.082913
H	 1.8648797631	 1.0115172738	-3.3854541591	 0.13982
H	 2.5908466909	 1.8241455472	-1.9862940248	 0.122019
H	 3.5710040083	 0.7173252804	-2.9568054353	 0.125103
65.8453	130.7788	183.8776	194.2192	219.634	225.2778	298.5999	330.1703	352.9075	421.0834	462.8989	558.6401	629.9146	686.5309	750.0717	780.4464	818.103	855.0524	896.9041	938.3454	995.7561	997.1033	1024.2925	1049.6209	1076.7761	1098.1637	1109.7717	1144.0809	1175.1972	1228.2471	1237.4433	1275.9876	1296.1854	1332.0341	1359.6955	1382.9224	1397.4462	1407.044	1413.6393	1469.4618	1484.3265	1485.5185	1497.94	1503.4327	1507.3777	2999.6178	3011.3991	3036.2657	3041.0109	3045.9066	3101.8186	3105.5434	3110.1147	3144.7598	3146.9624	3166.4116	3745.2749
CCC12C(O)C1OC2C	CC[C@]12[C@@H](O)[C@H]1O[C@H]2C	
InChI=1S/C7H12O2/c1-3-7-4(2)9-6(7)5(7)8/h4-6,8H,3H2,1-2H3	InChI=1S/C7H12O2/c1-3-7-4(2)9-6(7)5(7)8/h4-6,8H,3H2,1-2H3/t4-,5-,6+,7-/m0/s1
