20
gdb 110455	3.14248	1.32487	1.11562	2.1878	78.46	-0.2309	0.0847	0.3156	1168.8738	0.170525	-403.06537	-403.056946	-403.056002	-403.098377	32.143	
C	-0.1033733417	 1.3253422097	 0.1550682184	-0.240797
O	-0.1067387874	-0.0188975578	-0.2715922469	-0.255846
C	-1.3467405982	-0.6623119785	-0.087292531	 0.140926
C	-1.2059516062	-2.113549119	-0.5329492766	-0.077191
C	-0.8150781209	-2.5398999842	 0.8306047585	-0.033399
C	-1.5441534334	-1.2402817365	 1.3466934496	-0.148523
C	-2.8340864751	-2.0785479323	 1.2280552443	 0.08336
C	-4.1605709238	-1.4965922942	 0.7706253482	-0.421089
N	-2.113326832	-3.0019546259	 0.2735213553	-0.167713
H	 0.8851546091	 1.73209775	-0.0707863055	 0.129213
H	-0.8621508733	 1.9218778734	-0.3751558361	 0.105883
H	-0.2855781778	 1.4213615688	 1.2357939313	 0.105074
H	-2.1526732413	-0.0415450669	-0.5046283955	 0.056945
H	-0.8849110942	-2.4860798918	-1.4963005435	 0.100649
H	-0.0421657309	-3.1914646182	 1.2136460047	 0.098966
H	-1.3077194267	-0.638381693	 2.2226918473	 0.071681
H	-2.9868946737	-2.6609432764	 2.1436069799	 0.081976
H	-4.0814051168	-0.9650891999	-0.1806686869	 0.124177
H	-4.8928678288	-2.2999626619	 0.6421367845	 0.129088
H	-4.5519008871	-0.7999549851	 1.5204615199	 0.116621
96.5259	141.4809	173.9628	180.8767	235.4329	298.5756	313.1214	421.424	533.1436	559.7827	683.7153	771.7845	800.665	830.0638	873.2054	880.5285	921.0408	934.4462	982.8405	996.224	1014.1375	1052.8547	1066.1794	1102.9553	1128.3644	1147.9933	1160.985	1170.4432	1183.7102	1202.915	1221.2304	1235.3157	1279.4386	1289.4836	1337.7172	1389.7225	1397.7552	1409.9581	1480.0409	1485.74	1486.9759	1500.2648	1509.6074	2975.1626	2995.2495	3023.3527	3037.02	3042.0446	3102.9505	3116.2481	3122.6683	3128.9208	3205.9125	3219.7903
COC1C2C3C1C(C)N23	CO[C@H]1[C@H]2[C@H]3[C@@H]1[C@@H](C)N23	
InChI=1S/C7H11NO/c1-3-4-5-6(8(3)5)7(4)9-2/h3-7H,1-2H3	InChI=1S/C7H11NO/c1-3-4-5-6(8(3)5)7(4)9-2/h3-7H,1-2H3/t3-,4+,5-,6-,7-,8?/m1/s1
