22
gdb 59521	3.53779	1.05406	0.94195	1.7601	82.3	-0.2249	0.0717	0.2966	1346.2291	0.192994	-404.30285	-404.293191	-404.292247	-404.337098	36.883	
C	-0.6081529486	-0.3725296965	-0.9086117048	-0.416186
C	-0.1077158866	 0.4633892786	 0.2693229348	 0.104408
O	-1.1472500533	 0.6410715634	 1.234225218	-0.437246
C	 1.0599205697	-0.0784905582	 1.0955080898	 0.093459
C	 1.1218308421	-1.5213624108	 1.6614429971	-0.343993
C	 2.5462587461	-1.5715474107	 1.0915738877	 0.367857
C	 3.7597538518	-2.0267018213	 1.8451998527	-0.489695
C	 2.4882281238	-1.3959611905	-0.3683299274	-0.284266
N	 2.4295104314	-0.1757046544	 0.4758119388	-0.207685
H	-0.8770811948	-1.386658122	-0.5984447256	 0.123886
H	-1.5052899245	 0.095011503	-1.3330527648	 0.101655
H	 0.1321490152	-0.4252792887	-1.7109082809	 0.130586
H	 0.2210494798	 1.4421046541	-0.1205379322	 0.07508
H	-1.9258580378	 0.9706737724	 0.7747972425	 0.280978
H	 1.1611452716	 0.6285771929	 1.9235484782	 0.09806
H	 1.0657930953	-1.554847478	 2.7506859987	 0.110077
H	 0.4291441849	-2.2648160376	 1.2567750017	 0.101667
H	 3.7649263077	-3.1183980016	 1.9503877931	 0.11985
H	 4.6742136393	-1.7318173705	 1.3224611583	 0.127803
H	 3.7880617049	-1.5937131081	 2.8510931082	 0.121505
H	 3.4220517875	-1.4513191573	-0.9203708807	 0.114621
H	 1.6211190147	-1.732920318	-0.9267958831	 0.107579
59.0513	133.3709	155.4502	194.0549	247.261	263.9011	290.8822	327.4219	353.669	399.3256	422.1808	514.1899	570.5473	632.6156	697.4171	765.5734	811.3405	894.5278	897.4517	946.8641	964.9207	974.0411	1007.1487	1048.3569	1060.1017	1105.3561	1108.9519	1130.7308	1133.7805	1142.451	1175.5318	1233.9041	1252.0934	1288.2879	1314.9644	1362.0317	1380.8599	1395.5214	1413.3569	1423.6196	1433.3418	1482.3891	1485.7657	1493.3605	1495.773	1502.8561	1517.1342	2954.2245	3025.7895	3027.5122	3059.0097	3064.3942	3085.9172	3090.7206	3110.7864	3118.8077	3121.5961	3127.2711	3205.9944	3818.6075
CC(O)C1CC2(C)CN12	C[C@@H](O)[C@H]1C[C@@]2(C)CN12	
InChI=1S/C7H13NO/c1-5(9)6-3-7(2)4-8(6)7/h5-6,9H,3-4H2,1-2H3	InChI=1S/C7H13NO/c1-5(9)6-3-7(2)4-8(6)7/h5-6,9H,3-4H2,1-2H3/t5-,6-,7+,8?/m1/s1
