14
gdb 27436	2.57221	1.67165	1.05458	4.0619	77.71	-0.2314	-0.0853	0.1462	1060.8414	0.102425	-432.897411	-432.889866	-432.888922	-432.929467	28.497	
N	 0.0467558664	 1.3117287611	 0.3398169632	-0.533925
C	-0.0261224015	-0.0112666741	 0.0124064718	 0.391118
C	-1.2472663892	-0.634653322	-0.1499676168	-0.261911
C	-1.5038204721	-2.0474260232	-0.2586553684	 0.315393
O	-2.5742517424	-2.5322000996	-0.6054376021	-0.372602
C	-0.4542719542	-2.9719477021	 0.2877076324	-0.035297
N	 0.8245222709	-2.8809551792	 0.261346856	-0.21434
C	 1.5160514372	-1.7958411406	-0.2144336261	 0.091038
N	 1.2224299771	-0.5420474786	-0.2291348453	-0.295934
H	 0.9158592669	 1.7782113466	 0.1379567954	 0.268284
H	-0.7900017337	 1.869625468	 0.3453342491	 0.266842
H	-2.1395388941	-0.013983683	-0.1745162147	 0.101938
H	-0.8803179212	-3.8681630562	 0.746121698	 0.14504
H	 2.5240036699	-2.0485473672	-0.5431971426	 0.134357
95.6813	153.5734	264.9103	305.1783	370.3322	387.3992	427.0353	471.5432	494.8955	512.2573	598.6266	653.8441	733.868	817.2957	855.8051	881.3849	939.7111	970.4265	1013.6676	1084.5312	1115.7365	1276.6249	1318.0101	1379.0486	1395.8062	1465.5456	1565.6683	1621.978	1648.7981	1685.2235	1719.3145	3106.3201	3136.9385	3158.7857	3603.2373	3730.5516
NC1=CC(=O)C=NC=N1	N[C]1[CH]C(=O)C=NC=N1	
InChI=1S/C5H5N3O/c6-5-1-4(9)2-7-3-8-5/h1-3H,6H2	InChI=1S/C5H5N3O/c6-5-1-4(9)2-7-3-8-5/h1-3H,6H2
