15
gdb 105305	2.83288	1.04616	0.92302	0.7684	64.9	-0.2761	-0.0782	0.1979	1261.3464	0.108761	-494.880569	-494.871523	-494.870579	-494.914988	31.608	
O	-0.0968793462	 1.3440070721	-0.8612816644	-0.415298
C	 0.0041792121	 0.0299250288	-0.3650946092	-0.14586
C	-1.3495209164	-0.537611281	 0.0357257481	 0.252644
O	-2.1416960462	-1.2269889249	-0.9331128843	-0.25622
C	-1.6333379678	-2.0037006116	 0.1416225403	-0.107915
C	-0.5752610115	-3.0138329148	-0.1919440307	 0.139829
O	-0.326495529	-3.9476292487	 0.5238379296	-0.23295
C	-2.1832776319	 0.3193662914	 0.947678025	 0.137309
O	-1.7744698459	 1.325769692	 1.4717480998	-0.262788
H	-0.3698119245	 1.8991094022	-0.1204050544	 0.303752
H	 0.4305066339	-0.5788515754	-1.1659693234	 0.12458
H	 0.6761671584	-0.0345713411	 0.5041547422	 0.116084
H	-2.3619082415	-2.3438524034	 0.8781993913	 0.126628
H	-0.057559874	-2.8412585181	-1.158104882	 0.108788
H	-3.2212310496	-0.0475563274	 1.0917204619	 0.111417
74.4372	95.9001	114.4454	189.2567	223.6152	242.7781	300.5966	361.3657	420.1596	468.4058	501.097	531.8312	564.8831	799.846	840.536	907.9137	984.8094	990.7223	1037.4555	1081.611	1095.1773	1117.2071	1201.6804	1272.3927	1303.2124	1357.2513	1382.7354	1409.831	1427.6371	1462.3422	1482.448	1811.9642	1827.9202	2922.9302	2924.876	2995.8546	3104.7583	3120.0627	3788.7875
OCC1(OC1C=O)C=O	OC[C@]1(O[C@H]1C=O)C=O	
InChI=1S/C5H6O4/c6-1-4-5(2-7,3-8)9-4/h1-2,4,8H,3H2	InChI=1S/C5H6O4/c6-1-4-5(2-7,3-8)9-4/h1-2,4,8H,3H2/t4-,5+/m0/s1
