17
gdb 129629	2.98264	1.26289	0.95387	4.9531	71.51	-0.2009	0.0213	0.2222	1204.6542	0.136838	-455.140287	-455.131714	-455.13077	-455.173762	31.946	
N	-0.538528681	 1.3990005621	 0.0814966063	-0.597154
C	-0.3168989885	 0.0504315888	 0.0160739401	 0.395849
C	-1.180442869	-1.0196799807	-0.0480476602	 0.08295
C	-2.6799558274	-1.0210025203	-0.0879907979	-0.337949
C	-3.2933053971	-0.4505893886	-1.3673421035	-0.071513
O	-3.0453973912	 0.9578802066	-1.3982840276	-0.411067
C	-0.2869889138	-2.1202826993	-0.0186012805	-0.035665
N	 0.9766627174	-1.7826519604	 0.0554214728	-0.175175
O	 0.9529200337	-0.3669621175	 0.0739688041	-0.216143
H	 0.270075397	 1.9658208847	-0.1280642889	 0.258541
H	-1.3846048668	 1.6748890379	-0.4041722672	 0.272376
H	-3.0393299419	-2.049772298	 0.0244612358	 0.11053
H	-3.0940907839	-0.4547719694	 0.7570862672	 0.121257
H	-2.8514032707	-0.9416089478	-2.2455774562	 0.100033
H	-4.3769362794	-0.6409258921	-1.3746868157	 0.09271
H	-3.3176525667	 1.2981766089	-2.2552292525	 0.293807
H	-0.5374189708	-3.173566715	-0.043607116	 0.116612
55.4606	160.9163	171.6794	227.6505	268.3099	278.1047	340.4341	400.0943	435.3961	489.915	620.0911	627.1003	679.8858	729.9787	764.0538	865.1635	891.3801	918.0416	946.7492	951.7704	1051.2847	1084.1705	1088.5551	1163.609	1213.4463	1254.6817	1269.0134	1305.8155	1354.7964	1374.0948	1436.8556	1448.8304	1468.0314	1515.7722	1549.1925	1634.8523	1682.8363	2985.7115	3014.91	3034.8959	3075.3099	3220.3968	3524.3338	3653.8529	3837.5052
NC1=C(CCO)C=NO1	Nc1c(CCO)cno1	
InChI=1S/C5H8N2O2/c6-5-4(1-2-8)3-7-9-5/h3,8H,1-2,6H2	InChI=1S/C5H8N2O2/c6-5-4(1-2-8)3-7-9-5/h3,8H,1-2,6H2
