12
gdb 132831	3.06036	1.55136	1.02949	1.3149	73.24	-0.2654	-0.0739	0.1915	1037.3175	0.07765	-439.643601	-439.636591	-439.635647	-439.675258	26.108	
F	 0.0004676904	 0.0340346004	 0.0031406678	-0.04782
C	-0.0152182102	 1.3611842956	 0.0106045632	 0.186578
C	-1.2159718677	 2.0514956043	 0.0300146285	-0.079797
N	-1.2502410707	 3.3841763346	 0.0377451897	-0.241337
C	-0.0645169171	 3.9995018808	 0.0256697314	 0.060183
N	 1.13786619	 3.4327240108	 0.0069106035	-0.295903
C	 1.1788644668	 2.0891682753	-0.0009651142	 0.04816
C	 2.4408614273	 1.4278097626	-0.021031429	 0.243086
C	 3.4980382192	 0.8548858849	-0.0379476327	-0.351036
H	-2.1577373081	 1.5086928927	 0.0393054042	 0.139457
H	-0.0833411369	 5.0858678406	 0.0318540701	 0.12902
H	 4.436685757	 0.3569423274	-0.0529070225	 0.20941
118.1675	139.1088	241.6164	354.5835	376.7172	474.943	483.8973	558.1928	614.1716	627.7808	649.2858	664.7455	743.3141	813.5078	881.5698	948.6928	1000.4235	1151.1571	1194.9156	1231.8829	1292.3092	1329.5501	1445.4848	1471.5947	1580.889	1613.7452	2237.2101	3169.6126	3177.8768	3497.3982
FC1=CN=CN=C1C#C	Fc1cncnc1C#C	
InChI=1S/C6H3FN2/c1-2-6-5(7)3-8-4-9-6/h1,3-4H	InChI=1S/C6H3FN2/c1-2-6-5(7)3-8-4-9-6/h1,3-4H
