20
gdb 22817	2.19273	1.53979	0.96426	0.482	83.71	-0.2392	0.0148	0.254	1240.8626	0.171137	-403.132994	-403.124149	-403.123205	-403.166406	34.114	
C	-0.0160786512	 1.5600808114	-0.0037568547	-0.394375
C	 0.1094273719	 0.0366677861	 0.0340641795	-0.059354
C	 0.785790822	-0.5219271698	-1.2372495426	-0.249796
C	 1.0284801205	-2.0046766224	-1.1510125235	-0.072449
C	 1.1026473739	-2.6592441755	 0.0058193825	-0.049179
C	 1.0167167013	-1.9924577398	 1.3529244339	-0.345952
C	 0.8118862757	-0.4987074348	 1.2629389883	 0.368357
N	 1.1747880915	 0.3366863601	 2.1578069588	-0.199874
O	 1.7805953479	-0.2920397096	 3.2614705037	-0.402192
H	 0.9696070005	 2.0343946168	-0.0159087232	 0.122723
H	-0.558553394	 1.8690771455	-0.9031597008	 0.101383
H	-0.5488342768	 1.9377471169	 0.8715620167	 0.124457
H	-0.9025230892	-0.3983970492	 0.054399189	 0.09023
H	 0.1548604899	-0.2933556187	-2.1048787064	 0.103429
H	 1.7341039094	 0.0081494537	-1.412674025	 0.113427
H	 1.1436465496	-2.5464784766	-2.0864228387	 0.086704
H	 1.2676718816	-3.7338402833	 0.0145844824	 0.087375
H	 0.2026923743	-2.4346641308	 1.9483173454	 0.127903
H	 1.9237987214	-2.1898267289	 1.9348519254	 0.143084
H	 2.0236811299	 0.4609458188	 3.8097956493	 0.304099
69.9642	134.0384	207.9653	236.0987	241.9808	305.8011	368.3886	390.636	430.8745	461.487	498.0154	539.3977	624.4557	685.3555	752.0448	789.1558	896.2402	923.5514	953.9729	956.9683	981.9723	1004.2076	1023.2737	1063.5811	1107.0098	1141.9952	1179.2815	1186.7042	1222.2462	1252.8021	1313.8397	1339.4386	1344.23	1379.4492	1404.2616	1410.5507	1418.3168	1457.2132	1478.0365	1488.7742	1497.2522	1728.0687	1733.0375	2977.4483	2994.618	3000.2558	3041.5873	3046.2601	3062.6393	3109.4182	3127.1035	3145.968	3169.268	3823.7509
CC1CC=CCC1=NO	C[C@H]1CC=CCC1=NO	
InChI=1S/C7H11NO/c1-6-4-2-3-5-7(6)8-9/h2-3,6,9H,4-5H2,1H3	InChI=1S/C7H11NO/c1-6-4-2-3-5-7(6)8-9/h2-3,6,9H,4-5H2,1H3/t6-/m0/s1
