18
gdb 19826	3.46112	2.17332	1.82791	1.2583	70.16	-0.2299	0.0674	0.2973	798.2806	0.155172	-347.74083	-347.734132	-347.733188	-347.771227	27.562	
O	 0.0859366318	 1.4525095699	-0.1636045362	-0.42252
C	 0.0314454986	 0.0539128274	 0.012023174	 0.10942
C	 0.2858680901	-0.5451607328	 1.4426127397	-0.299697
C	-1.1202825193	-1.2146861614	 1.3928731363	-0.014176
C	-2.331930567	-0.4603383433	 1.9898765731	-0.06186
C	-2.2196346526	 1.0299231529	 1.8359828388	-0.284342
C	-2.5893628244	 0.2157005772	 0.6309523159	-0.043879
C	-1.4006127365	-0.5517719539	 0.0118614081	-0.040334
H	 1.0111440822	 1.7178167359	-0.1595824256	 0.282695
H	 0.6589650044	-0.4521158075	-0.7358157254	 0.065496
H	 1.1204313467	-1.2503212374	 1.4820630022	 0.092498
H	 0.4227157742	 0.2006824161	 2.2297239716	 0.102108
H	-1.1571868367	-2.2976592265	 1.5054709906	 0.06462
H	-3.0437006157	-0.901784314	 2.6779595429	 0.078912
H	-3.0496517451	 1.5821358275	 2.2672652145	 0.104665
H	-1.2736371184	 1.5546457654	 1.8834981768	 0.122942
H	-3.5284111245	 0.3741694391	 0.1143511327	 0.080972
H	-1.6726447579	-1.1506584245	-0.85770947	 0.062481
157.5263	223.8102	276.5521	324.3001	411.1306	453.1404	587.3543	649.8046	712.5214	739.2037	751.1077	842.8818	863.525	896.8734	908.7579	930.3338	973.3736	991.8571	1025.2789	1048.6928	1059.3544	1067.7061	1083.4525	1102.7359	1128.669	1181.8173	1189.5688	1200.5527	1213.922	1241.0445	1282.431	1302.2387	1318.349	1325.6292	1362.918	1424.0284	1471.714	1504.797	2985.5184	3056.901	3099.5851	3107.6203	3118.3164	3133.0808	3168.1855	3180.0296	3220.0582	3814.4875
OC1CC2C3CC3C12	O[C@H]1C[C@H]2[C@H]3C[C@H]3[C@@H]12	
InChI=1S/C7H10O/c8-6-2-5-3-1-4(3)7(5)6/h3-8H,1-2H2	InChI=1S/C7H10O/c8-6-2-5-3-1-4(3)7(5)6/h3-8H,1-2H2/t3-,4+,5-,6-,7+/m0/s1
