14
gdb 45928	3.02338	1.47745	1.0038	2.0988	66.35	-0.2516	-0.0657	0.1859	1083.515	0.103644	-470.082286	-470.074764	-470.073819	-470.114832	27.748	
N	-0.0696277954	 1.3096893938	-0.2454646972	-0.502524
C	-0.0240480337	 0.0597867727	-0.0078570734	 0.267931
N	-1.1593301534	-0.7025180118	 0.126831092	-0.343935
C	-1.1913492963	-1.9553926001	 0.8521796882	-0.285888
C	 0.0886154313	-2.7645610682	 0.7267298278	 0.425212
O	 0.1455184369	-3.9412443795	 0.985105974	-0.328522
N	 1.2151748289	-2.0448617625	 0.3496480168	-0.385959
C	 1.2941884021	-0.6928330174	 0.0499062806	 0.394582
O	 2.3511983967	-0.1514358704	-0.1693738785	-0.330538
H	 0.883319463	 1.6473859715	-0.3906664914	 0.245072
H	-2.0086558816	-0.1546715616	 0.1345894595	 0.261081
H	-1.362581993	-1.8202336503	 1.9333598456	 0.149257
H	-2.0023458401	-2.5856880063	 0.4791274592	 0.160309
H	 2.0884100247	-2.5605800599	 0.333195037	 0.273921
78.7189	123.2788	145.1667	350.9816	393.5083	414.487	436.1405	510.2687	575.2381	602.2119	623.6293	682.9977	747.5759	801.9689	818.7333	902.8203	910.2532	1014.0703	1052.8381	1197.1157	1240.8515	1256.6278	1340.4043	1353.388	1415.2538	1446.6817	1468.8492	1503.3152	1726.8008	1814.33	1833.2055	2971.1007	3098.3449	3479.0509	3568.057	3596.2066
N=C1NCC(=O)NC1=O	[NH][C]1NCC(=O)NC1=O	
InChI=1S/C4H5N3O2/c5-3-4(9)7-2(8)1-6-3/h1H2,(H2,5,6)(H,7,8,9)	InChI=1S/C4H5N3O2/c5-3-4(9)7-2(8)1-6-3/h1H2,(H2,5,6)(H,7,8,9)
