17
gdb 50707	3.16735	1.36446	1.06416	1.8246	68.08	-0.254	-0.0328	0.2212	1104.0215	0.135858	-458.946008	-458.93813	-458.937185	-458.97932	29.148	
O	-0.8404299348	 1.0226894352	 0.3678068756	-0.249042
C	 0.2461700055	 0.7178068172	-0.0458167448	 0.147958
C	 1.4428362887	 1.6599198612	-0.0219400832	 0.004466
O	 2.6106953591	 0.8707654465	-0.1962432561	-0.253604
C	 3.7454563992	 1.6781928981	-0.390697593	 0.014616
O	 3.7360487757	 2.3137752685	-1.6406906559	-0.242146
C	 2.5757135278	 3.0706028391	-1.8717159834	 0.09077
C	 1.4392332791	 2.3778489016	-2.572343633	-0.312666
C	 1.3223906003	 2.7261067695	-1.1023445369	-0.081059
H	 0.4613527178	-0.273686891	-0.5002641103	 0.096281
H	 1.4641813677	 2.1556176598	 0.9618662008	 0.099702
H	 3.8135536427	 2.4207473447	 0.4239473282	 0.085355
H	 4.6164211687	 1.0209928185	-0.3814766214	 0.124782
H	 2.7922122794	 4.1108506725	-2.0983168855	 0.10569
H	 0.831551309	 2.9368110692	-3.2745548145	 0.120973
H	 1.6229036669	 1.3429811999	-2.8380154243	 0.13423
H	 0.6549921072	 3.5392010294	-0.8393643622	 0.113694
46.2523	95.4613	178.3078	230.5126	310.9831	379.4158	437.0906	509.2754	534.3438	607.7783	744.5556	748.9708	809.2469	843.0003	945.3143	969.9789	1008.1769	1025.7451	1053.4312	1060.6109	1084.5794	1104.2733	1119.9842	1138.4895	1181.8776	1210.7611	1233.1642	1295.81	1314.9434	1337.3327	1355.23	1392.05	1405.7828	1446.9574	1473.4783	1513.8637	1841.0863	2903.3964	2947.7579	2980.5336	3122.0425	3139.9798	3143.8121	3175.1088	3234.0984
O=CC1OCOC2CC12	O=C[C@H]1OCO[C@H]2C[C@@H]12	
InChI=1S/C6H8O3/c7-2-6-4-1-5(4)8-3-9-6/h2,4-6H,1,3H2	InChI=1S/C6H8O3/c7-2-6-4-1-5(4)8-3-9-6/h2,4-6H,1,3H2/t4-,5+,6-/m1/s1
