15
gdb 29917	3.48178	1.32068	0.9633	3.803	78.57	-0.1982	0.0194	0.2176	1162.4764	0.112068	-416.812754	-416.803992	-416.803048	-416.846482	31.658	
C	 0.0244893957	 1.4621852347	 0.0354563214	-0.337691
N	-0.0205419772	 0.0138716055	 0.0008668071	-0.052572
C	-0.1968174062	-0.8078689394	-1.0953533526	-0.021859
N	-0.188109609	-2.0734226939	-0.7822843645	-0.323315
C	 0.0033608133	-2.1144746259	 0.5941719135	 0.053916
C	 0.0829650877	-3.2746341727	 1.3922886371	 0.19903
C	 0.1617381434	-4.2170176145	 2.1416739561	-0.447632
C	 0.1059175392	-0.8222173241	 1.0705117954	 0.281519
O	 0.2923480966	-0.3098679939	 2.3006808855	-0.435333
H	 0.9854554933	 1.8118295589	 0.4230874758	 0.153547
H	-0.1067718974	 1.8378473093	-0.9804291539	 0.146817
H	-0.7733830007	 1.8606565503	 0.6683856312	 0.153531
H	-0.3239003179	-0.395663604	-2.0854666027	 0.128286
H	 0.2270322148	-5.0651787614	 2.7765960932	 0.186285
H	 0.3575542443	-1.0535266689	 2.9141417472	 0.315471
59.7003	110.335	122.7953	220.9611	258.2734	298.7701	385.7181	401.0674	444.1099	507.5997	532.9531	584.0342	653.5358	682.625	725.3023	746.2315	764.9756	778.6902	1029.1481	1070.9727	1154.2205	1186.1565	1256.9645	1306.9641	1312.5774	1387.5191	1455.8426	1479.9705	1508.2965	1513.6516	1580.1201	1613.3649	2218.8278	3048.496	3112.5225	3146.1908	3248.0573	3501.8368	3782.9504
CN1C=NC(C#C)=C1O	Cn1cnc(C#C)c1O	
InChI=1S/C6H6N2O/c1-3-5-6(9)8(2)4-7-5/h1,4,9H,2H3	InChI=1S/C6H6N2O/c1-3-5-6(9)8(2)4-7-5/h1,4,9H,2H3
