21
gdb 92956	2.5706	1.53022	1.15191	1.9923	83.18	-0.2419	0.0162	0.258	1136.4747	0.183326	-387.081805	-387.073329	-387.072385	-387.115375	32.542	
C	-0.6604159608	 1.2174559509	-0.0643412313	-0.422098
C	 0.1543696277	-0.0714486918	-0.1514858409	-0.037803
C	 1.361864665	-0.0118089719	-1.1234400461	-0.281959
C	 2.3417580631	-0.9799486642	-0.5088539218	-0.08096
C	 1.9937307538	-1.314069654	 0.7331075796	-0.139735
C	 0.7372849971	-0.6233558743	 1.1836460063	 0.261881
C	 0.8794995424	 0.3215932103	 2.41714427	-0.119236
O	-0.14753623	-0.3803508897	 3.1407198969	-0.275737
C	-0.2578681569	-1.3739650391	 2.1050047042	-0.123778
H	-0.0352802878	 2.0726199924	 0.2138535369	 0.117803
H	-1.1179531263	 1.4489913902	-1.0317453701	 0.113673
H	-1.4656044636	 1.137566526	 0.673956153	 0.126555
H	-0.5086029873	-0.8655843771	-0.5212857783	 0.080054
H	 1.0818043811	-0.2721792043	-2.1507234509	 0.103928
H	 1.7919674406	 0.9997938362	-1.171030535	 0.104513
H	 3.2338608977	-1.3221580433	-1.0221742677	 0.095467
H	 2.5567835002	-1.9664488404	 1.3930179512	 0.095598
H	 1.8541220296	 0.2567285268	 2.9192970671	 0.092012
H	 0.6290512798	 1.3774741489	 2.2666544248	 0.100653
H	-1.2837344478	-1.4578080422	 1.7222647401	 0.095672
H	 0.0763558524	-2.3641974992	 2.4443989019	 0.093497
48.9305	83.281	227.9728	239.5352	252.717	289.9802	384.531	448.9605	461.9958	520.5628	644.3261	751.1807	763.8619	833.513	869.1285	915.4066	941.8826	960.3076	971.0679	976.3942	989.0026	1001.0737	1044.789	1067.8346	1096.7403	1118.8344	1148.4533	1157.2992	1159.9539	1197.1074	1213.4452	1250.2832	1303.8446	1306.2068	1330.4761	1362.5083	1378.5738	1381.0357	1412.8635	1486.6733	1495.0607	1497.0619	1511.852	1534.4872	1682.3289	2991.8566	2996.1002	3006.0694	3009.8405	3029.1701	3037.8094	3054.034	3062.2356	3097.2943	3098.4721	3174.0433	3200.6912
CC1CC=CC11COC1	C[C@H]1CC=CC21COC2	
InChI=1S/C8H12O/c1-7-3-2-4-8(7)5-9-6-8/h2,4,7H,3,5-6H2,1H3	InChI=1S/C8H12O/c1-7-3-2-4-8(7)5-9-6-8/h2,4,7H,3,5-6H2,1H3/t7-/m0/s1
