20
gdb 60597	3.62537	0.9998	0.86861	2.7511	75.15	-0.2402	0.0436	0.2838	1372.6511	0.170992	-440.22593	-440.216742	-440.215798	-440.260902	33.268	
O	-0.1977637593	 1.4270209766	-0.0537770209	-0.436626
C	-0.0124156999	 0.0170703711	 0.0329715787	 0.068159
C	 0.5927379824	-0.5730497064	-1.233588902	 0.0079
C	 0.1706932375	-0.0844236348	-2.5637586457	-0.248931
N	 1.5282359632	 0.2117319649	-2.0568602571	-0.32549
C	 0.8182456966	-0.3329801725	 1.2663530385	 0.116669
C	 0.1598921196	-0.1131116149	 2.6447579069	-0.30092
C	 0.3208403914	-1.6389464406	 2.8021218269	-0.060856
O	 0.8972772481	-1.7580829205	 1.4805065263	-0.288937
H	 0.6225332109	 1.8575830316	 0.2114418585	 0.287612
H	-1.0155984036	-0.4070680897	 0.1694940605	 0.094814
H	 0.8729690396	-1.6174583576	-1.1213526019	 0.113072
H	 0.1330912834	-0.7657227244	-3.408664868	 0.116134
H	-0.5457524153	 0.7315619783	-2.5907176118	 0.120946
H	 1.5223885774	 1.1757499453	-1.7275919463	 0.2119
H	 1.8251083292	 0.1042256303	 1.1608831389	 0.073598
H	 0.7250777684	 0.4961575553	 3.3508846294	 0.111997
H	-0.8679722227	 0.2505380377	 2.5976823208	 0.122409
H	 1.0235247608	-1.9619833009	 3.5791491228	 0.107386
H	-0.6042274478	-2.2190076987	 2.8963006452	 0.109163
59.5969	76.3788	84.9533	140.3851	232.3962	258.58	311.7452	330.6186	422.2153	469.0812	641.1004	766.2402	790.6762	825.73	855.4491	883.6736	938.8523	950.7898	980.728	997.3647	1018.1419	1043.5942	1056.1352	1098.0661	1113.0844	1147.6057	1159.1041	1167.7182	1193.1781	1210.4789	1251.1711	1257.565	1268.3316	1281.9482	1298.6981	1329.294	1361.8301	1393.0065	1395.7127	1422.7807	1491.7975	1502.1138	1531.2155	2963.8491	3024.4046	3031.6087	3065.4579	3083.2653	3114.2546	3138.4531	3147.3423	3203.487	3476.829	3798.7855
OC(C1CN1)C1CCO1	O[C@@H]([C@H]1CN1)[C@H]1CCO1	
InChI=1S/C6H11NO2/c8-6(4-3-7-4)5-1-2-9-5/h4-8H,1-3H2	InChI=1S/C6H11NO2/c8-6(4-3-7-4)5-1-2-9-5/h4-8H,1-3H2/t4-,5-,6+/m1/s1
