16
gdb 11501	6.15703	1.00904	0.93094	2.8198	75.73	-0.2303	-0.0589	0.1714	1229.9859	0.129889	-379.922776	-379.914601	-379.913657	-379.955911	29.815	
N	 0.1970799189	 1.2060001842	 0.004009957	-0.562544
C	-0.1255926062	-0.1306356007	 0.0391937533	 0.254931
C	 1.0497355079	-1.0472058373	-0.0629676953	 0.138798
O	 2.1932903653	-0.6549886779	-0.088220357	-0.274862
N	-1.2707039846	-0.7027136885	 0.1147292744	-0.261026
C	-2.4555166125	 0.065581369	 0.2019157213	 0.040053
C	-3.7304857667	-0.6081732331	-0.2688966846	-0.26429
C	-3.5040158373	-0.404684411	 1.1978859129	-0.265814
H	 1.1869980754	 1.3803465095	 0.1135020472	 0.26763
H	-0.4109123945	 1.8622040328	 0.4650733406	 0.259169
H	 0.7681453219	-2.1156449013	-0.1057116237	 0.103965
H	-2.4005587889	 1.1408386783	 0.032425531	 0.075549
H	-4.4643196505	 0.0082881697	-0.7754714071	 0.116266
H	-3.6157049488	-1.610380803	-0.6635363531	 0.128669
H	-3.2379719605	-1.2690893536	 1.7938828123	 0.127619
H	-4.0758896989	 0.3558494729	 1.7176408007	 0.115888
52.1854	99.3122	156.9149	240.2715	293.3298	351.5831	396.4629	444.0816	464.1578	561.8821	640.3001	702.8622	774.8829	815.2405	864.6308	910.633	918.8891	989.6103	1030.2683	1052.2384	1072.6416	1113.8092	1129.1924	1192.9406	1200.7608	1226.1863	1362.4289	1376.2285	1410.1031	1457.3296	1491.6271	1615.2273	1720.0431	1799.3045	2975.2874	3092.2387	3141.2702	3145.4217	3229.0132	3243.2434	3566.7905	3693.6778
NC(C=O)=NC1CC1	NC(=NC1CC1)C=O	
InChI=1S/C5H8N2O/c6-5(3-8)7-4-1-2-4/h3-4H,1-2H2,(H2,6,7)	InChI=1S/C5H8N2O/c6-5(3-8)7-4-1-2-4/h3-4H,1-2H2,(H2,6,7)
