16
gdb 62530	2.48929	1.38588	1.1585	3.9627	69.39	-0.2915	-0.0171	0.2744	1101.7424	0.122587	-437.927472	-437.91853	-437.917586	-437.961153	32.025	
C	-0.1225217087	 1.4820343123	-0.0956340198	-0.447483
C	-0.0285234783	-0.038115642	 0.0337957549	 0.049575
C	-1.3860116506	-0.688249864	 0.2951713688	-0.448014
C	 0.8917706768	-0.7247490923	-1.0331706732	-0.041733
O	 1.8350076135	-1.1126231037	 0.0111008511	-0.252638
C	 1.0755795208	-0.5061190767	 0.9939253502	 0.47056
O	 1.3194342399	-0.4347291318	 2.1513461874	-0.313837
C	 0.3652010445	-1.8740821941	-1.7582270551	 0.301665
N	-0.0751713405	-2.7634859632	-2.3495446111	-0.315933
H	 0.8547171143	 1.9364636773	-0.2847613181	 0.134805
H	-0.7959777706	 1.7557833343	-0.9138535697	 0.135766
H	-0.5186683261	 1.9089219503	 0.8298093472	 0.150247
H	-2.085785689	-0.4536758635	-0.5126605258	 0.138231
H	-1.3121467182	-1.7754808074	 0.3766087184	 0.150379
H	-1.7989902478	-0.3028100877	 1.2312954949	 0.144888
H	 1.3665807799	-0.0320056879	-1.7326429703	 0.143522
76.9	141.0297	174.6075	203.3692	219.2708	228.1087	280.7044	339.9575	353.8644	478.7679	520.4164	621.2623	674.9903	737.9042	784.7165	840.376	930.2956	967.6963	993.6831	1027.3248	1048.3414	1096.2319	1179.4801	1204.5477	1251.6025	1293.7723	1362.4868	1405.903	1427.263	1480.269	1484.006	1502.4714	1505.1479	1952.2199	2363.5651	3039.9627	3047.1023	3086.2494	3112.0328	3119.6115	3122.8414	3129.2469
CC1(C)C(OC1=O)C#N	CC1(C)[C@@H](OC1=O)C#N	
InChI=1S/C6H7NO2/c1-6(2)4(3-7)9-5(6)8/h4H,1-2H3	InChI=1S/C6H7NO2/c1-6(2)4(3-7)9-5(6)8/h4H,1-2H3/t4-/m0/s1
