15
gdb 33873	4.41584	1.30483	1.17212	3.3792	69.52	-0.2513	-0.0084	0.2428	1022.4651	0.113908	-416.770281	-416.763379	-416.762435	-416.801556	26.95	
N	-0.0333264858	-1.1147256505	 0.2542226374	-0.324888
C	 0.0090606954	 0.0307190275	 0.1057743368	 0.231546
C	 0.0280804171	 1.4572317995	-0.1144612225	 0.267372
C	-0.984454955	 2.1090623762	-1.0577322331	-0.251719
N	-0.3522388632	 3.3127328061	-1.6343050162	-0.103865
C	-0.0310752072	 4.4074678902	-0.7124230797	-0.243058
C	 1.0212599465	 3.425984685	-1.0921716156	-0.055713
C	 1.2579619453	 2.2854271305	-0.1361363833	-0.032838
O	 0.3952585058	 2.272509146	 1.0057064237	-0.268418
H	-1.2188471188	 1.4152238272	-1.8714000772	 0.138545
H	-1.9159687027	 2.3581620891	-0.5409023334	 0.138875
H	-0.0377317899	 5.3907504416	-1.1738184147	 0.125337
H	-0.3974551048	 4.3630154812	 0.3079599843	 0.142578
H	 1.8182555812	 3.6692159711	-1.7879118831	 0.107621
H	 2.2500620261	 1.8721698393	 0.0162537667	 0.128624
133.7882	150.4082	282.9874	304.0537	421.7925	459.5798	536.7377	569.7124	601.2093	697.7922	734.2813	769.5334	820.9304	878.0668	914.8547	932.8528	1005.5768	1028.2918	1046.5886	1070.4693	1103.7966	1127.957	1151.4503	1191.1069	1232.7556	1262.3957	1290.384	1328.6283	1364.5202	1418.6946	1483.0036	1499.3878	2359.4862	3054.5554	3101.7455	3119.0004	3159.811	3177.9712	3213.6967
N#CC12CN3CC3C1O2	N#C[C@]12CN3C[C@H]3[C@H]1O2	
InChI=1S/C6H6N2O/c7-2-6-3-8-1-4(8)5(6)9-6/h4-5H,1,3H2	InChI=1S/C6H6N2O/c7-2-6-3-8-1-4(8)5(6)9-6/h4-5H,1,3H2/t4-,5+,6-,8?/m0/s1
