15
gdb 128434	4.59666	1.11509	0.90251	4.6009	68.56	-0.266	-0.0334	0.2325	1220.8171	0.113877	-450.138295	-450.130258	-450.129314	-450.172466	28.251	
C	 0.0796207261	 1.3225403639	 0.0070025686	-0.231422
O	-0.0713590338	-0.1034812436	 0.0005299335	-0.238632
C	-1.3279123425	-0.5571931943	 0.0119700261	 0.541952
N	-2.3397305979	 0.1984696616	 0.0264721868	-0.5732
N	-1.303596691	-1.9724361427	 0.0048312938	-0.140001
C	-0.2036996619	-2.8061930274	-0.0046832164	 0.050254
N	-0.5698934384	-4.0544675562	-0.0084473125	-0.229343
N	-1.9596535726	-4.0796537078	-0.0020349593	-0.2185
C	-2.3690667469	-2.8453256137	 0.0055339379	 0.032662
H	 1.1551136562	 1.4973091258	-0.0033353105	 0.141678
H	-0.3945013769	 1.7596552081	-0.8745814813	 0.151606
H	-0.3758329249	 1.7496501275	 0.9032184718	 0.151569
H	-3.2204438653	-0.3051979823	 0.0346201455	 0.239608
H	 0.8054004767	-2.4319490465	-0.0077556608	 0.169308
H	-3.3990812969	-2.5272984524	 0.0113519471	 0.152462
22.5365	106.3989	175.7356	182.532	205.3341	340.5447	420.6111	500.2547	618.9714	682.8871	735.7842	789.7025	792.7747	821.4962	866.0506	950.7	958.9471	1004.8334	1066.6796	1096.4633	1182.1736	1184.3592	1223.4241	1240.2092	1296.4266	1331.6423	1412.5466	1478.6073	1481.7024	1498.8639	1520.1065	1540.1534	1754.4675	3058.2439	3137.785	3166.9588	3273.3857	3302.5199	3563.2197
COC(=N)N1C=NN=C1	CO[C]([NH])n1cnnc1	
InChI=1S/C4H6N4O/c1-9-4(5)8-2-6-7-3-8/h2-3,5H,1H3	InChI=1S/C4H6N4O/c1-9-4(5)8-2-6-7-3-8/h2-3,5H,1H3
