17
gdb 35510	3.26488	1.43403	1.337	1.2667	72.15	-0.2555	0.0435	0.299	1000.5331	0.137676	-421.798316	-421.791144	-421.7902	-421.829923	28.604	
C	-0.10866752	-1.2526476747	-0.1624605867	-0.466446
C	-0.0679108488	-0.0553868201	-0.0560791947	 0.313439
C	-0.0046526488	 1.3900941085	 0.0660720027	-0.161675
C	-0.5662895998	 1.9873212026	 1.407603036	-0.261107
C	 0.6390748844	 2.841849923	 1.845098898	 0.187679
O	 1.6388827724	 1.9887672872	 2.3873873274	-0.272272
C	 2.2483906419	 1.375137514	 1.2354119013	-0.09304
C	 1.4353619691	 1.9972929947	 0.0877493459	 0.015581
O	 1.1809047315	 3.3031083877	 0.6182060251	-0.245445
H	-0.1516152039	-2.3093437207	-0.2583681915	 0.198977
H	-0.5336280683	 1.8423142765	-0.778427857	 0.11524
H	-1.4543668911	 2.5976375826	 1.230151003	 0.112621
H	-0.7994464619	 1.2195199754	 2.1455027322	 0.127625
H	 0.4494600298	 3.6698766182	 2.527286949	 0.096665
H	 3.3060133161	 1.6560531299	 1.1871141306	 0.108744
H	 2.1560149549	 0.2868006459	 1.2855653657	 0.124414
H	 1.9315340126	 2.0590358692	-0.8786246469	 0.099002
102.2363	153.2796	236.6787	340.7711	397.8893	498.2974	517.1526	570.6632	630.3757	640.0013	648.1322	776.144	802.8782	831.8299	866.5701	893.7673	966.9717	975.3312	978.8881	1028.9569	1044.7889	1062.5395	1074.8422	1097.5637	1171.0107	1196.5109	1222.7425	1261.3742	1297.1589	1304.5528	1318.7855	1337.5593	1355.8541	1380.5123	1484.9225	1522.1129	2234.3349	3041.6552	3056.5718	3080.0721	3098.7167	3135.9684	3143.0107	3149.4383	3503.1967
C#CC1CC2OCC1O2	C#C[C@H]1C[C@H]2OC[C@@H]1O2	
InChI=1S/C7H8O2/c1-2-5-3-7-8-4-6(5)9-7/h1,5-7H,3-4H2	InChI=1S/C7H8O2/c1-2-5-3-7-8-4-6(5)9-7/h1,5-7H,3-4H2/t5-,6-,7-/m0/s1
