14
gdb 14891	5.0134	1.53701	1.22608	5.8359	65.03	-0.2766	-0.0459	0.2307	936.8492	0.109276	-378.74397	-378.737127	-378.736182	-378.775207	24.931	
N	 0.0857345399	-1.1266517842	 0.0665835888	-0.318272
C	 0.0068632027	 0.0250814827	 0.0288236196	 0.299692
C	-0.0935380706	 1.4707528059	-0.0162437956	 0.291373
N	-1.2360538873	 2.0150342997	 0.0262467861	-0.298222
C	-1.3041830256	 3.4733865796	 0.0411037339	-0.16138
C	 0.0186628662	 4.1328290161	 0.443006045	-0.240484
C	 1.1515832969	 3.4549440585	-0.3154156311	-0.077973
O	 1.135700426	 2.0305891468	-0.09808651	-0.254479
H	-1.6193622355	 3.8057385552	-0.9569873379	 0.128039
H	-2.1102796668	 3.7589974467	 0.7244008671	 0.129414
H	 0.0119963809	 5.2050034238	 0.2246717781	 0.116425
H	 0.1837993248	 4.0156434659	 1.5195876092	 0.127251
H	 1.0659734273	 3.6336314973	-1.3945336732	 0.125268
H	 2.138299901	 3.7849508357	 0.0140242101	 0.133348
108.655	172.5477	180.9599	286.357	421.1828	458.217	486.1261	577.6898	607.0654	725.0284	824.9176	870.4415	889.8051	941.2319	953.03	1069.0444	1114.8725	1145.6595	1209.3874	1239.3306	1263.7344	1300.5509	1368.893	1371.8691	1412.8041	1478.7453	1484.5258	1512.5304	1724.2168	2368.0456	3024.2978	3034.4036	3048.9976	3073.4173	3098.8762	3119.0086
N#CC1=NCCCO1	N#CC1=NCCCO1	
InChI=1S/C5H6N2O/c6-4-5-7-2-1-3-8-5/h1-3H2	InChI=1S/C5H6N2O/c6-4-5-7-2-1-3-8-5/h1-3H2
