27
gdb 117661	2.59555	0.94681	0.84147	1.0123	92.87	-0.251	0.0769	0.3279	1586.8085	0.248681	-390.692068	-390.679956	-390.679012	-390.729121	44.53	
C	-0.0293946651	 1.4092687976	-0.0137249507	-0.226573
O	-0.0809985932	 0.005046405	-0.0164828233	-0.236887
C	 0.6828763047	-0.5732859899	-1.056633371	-0.076117
C	 0.6150615527	-2.1113902602	-0.9634829112	 0.250469
C	 1.2636723359	-2.5544799198	 0.3624915558	-0.420919
C	-0.8724603425	-2.5223058565	-0.962782854	-0.420318
C	 1.330889564	-2.7199113555	-2.2165599886	 0.031459
C	 2.7662444595	-2.211736265	-2.4446445639	-0.40892
C	 1.3388808194	-4.2581763392	-2.2240376192	-0.407719
H	 0.9994198297	 1.7817163191	 0.1179204039	 0.101719
H	-0.4281442402	 1.8363445351	-0.9480540134	 0.101933
H	-0.6404108732	 1.759449242	 0.8221782984	 0.124805
H	 0.2991011998	-0.2376331034	-2.0368947942	 0.076706
H	 1.7241219075	-0.2250477353	-0.9760414169	 0.082819
H	 0.7862962316	-2.0359507996	 1.1976133288	 0.128714
H	 1.1526213259	-3.6302901905	 0.5247986907	 0.108671
H	 2.3320608351	-2.3170666407	 0.3942567617	 0.105123
H	-1.3482594705	-2.2825995647	-1.9210425339	 0.100501
H	-0.9959165823	-3.5936869171	-0.7847555628	 0.108019
H	-1.4110057312	-1.986507647	-0.178914975	 0.131335
H	 0.7363401534	-2.3976917783	-3.0842252258	 0.067371
H	 2.8121929785	-1.1328281479	-2.6133361302	 0.113495
H	 3.4211880141	-2.4484385431	-1.5992514197	 0.116481
H	 3.1944246009	-2.6946121987	-3.3293535455	 0.109028
H	 0.3386311551	-4.6838886326	-2.1145615525	 0.114226
H	 1.7489072597	-4.6249642353	-3.1707584899	 0.108878
H	 1.9665068907	-4.6603530584	-1.4216750075	 0.115702
45.7146	89.3186	110.2382	147.8317	194.5425	224.4977	227.0358	243.6476	256.8715	290.058	302.6014	328.1966	354.3818	369.9191	385.7613	448.9583	483.3193	567.1128	723.8485	839.4464	923.1908	929.6333	932.8596	959.1702	964.2836	980.2466	999.2467	1019.1588	1102.3887	1119.3762	1158.8147	1175.1912	1184.5589	1214.1218	1227.3995	1240.381	1266.055	1301.9335	1354.5626	1368.5814	1392.0454	1399.6646	1404.4708	1420.0333	1433.0484	1479.8342	1481.3692	1484.1559	1488.4853	1489.6692	1498.8105	1504.9579	1507.1073	1511.4346	1511.6983	1519.6596	1530.0642	2940.4489	2966.4034	2989.3553	2995.1502	3007.8441	3033.0782	3035.1147	3037.6404	3044.107	3092.0623	3099.4821	3101.9218	3106.8953	3109.5898	3112.4296	3119.7952	3122.9391	3133.3387
COCC(C)(C)C(C)C	COCC(C)(C)C(C)C	
InChI=1S/C8H18O/c1-7(2)8(3,4)6-9-5/h7H,6H2,1-5H3	InChI=1S/C8H18O/c1-7(2)8(3,4)6-9-5/h7H,6H2,1-5H3
