13
gdb 132110	3.17025	1.41008	0.97659	6.8581	66.33	-0.2167	-0.0453	0.1715	1077.9642	0.090141	-494.088673	-494.081197	-494.080253	-494.120598	28.355	
N	 0.0098630588	 1.3959024071	 0.1524321472	-0.579718
C	-0.0170963178	 0.0352051669	 0.0529706264	 0.357511
C	-1.1826425016	-0.7009763699	 0.0294796794	 0.137749
F	-2.3633551155	-0.049911305	 0.0430499719	-0.09658
C	-1.0968638029	-2.0938590268	-0.0225707661	-0.055235
N	 0.0220893608	-2.7834115231	-0.0514149379	-0.34465
C	 1.2207341134	-2.1085888759	-0.0267656303	 0.440474
O	 2.3249910003	-2.6058154186	-0.041539	-0.388513
N	 1.1347561774	-0.6751828194	 0.0210687336	-0.418442
H	 0.8141344429	 1.8846498138	-0.2088673813	 0.270638
H	-0.873690837	 1.8537463309	-0.0115997595	 0.281865
H	-2.0304740028	-2.6570260322	-0.0460627423	 0.131507
H	 2.0303183541	-0.2088237678	 0.0718673488	 0.263393
109.5434	190.5696	272.0615	304.4202	353.3877	369.0393	442.5634	466.8769	504.6059	550.2261	607.6739	620.586	709.3293	775.9078	794.7766	802.8435	919.134	991.8342	1074.7276	1099.7569	1260.9089	1316.1079	1336.2762	1423.7844	1501.0433	1600.9514	1653.7286	1691.3833	1813.3701	3128.351	3585.7107	3599.5253	3696.5049
NC1=C(F)C=NC(=O)N1	Nc1c(F)cnc(=O)[nH]1	
InChI=1S/C4H4FN3O/c5-2-1-7-4(9)8-3(2)6/h1H,(H3,6,7,8,9)	InChI=1S/C4H4FN3O/c5-2-1-7-4(9)8-3(2)6/h1H,(H3,6,7,8,9)
