17
gdb 7913	3.41116	1.75648	1.24145	4.7081	71.82	-0.2366	-0.0198	0.2169	981.3791	0.142187	-363.926337	-363.918118	-363.917174	-363.959241	30.014	
C	-0.0575743043	 1.5753490266	 0.0237762074	-0.394304
C	 0.0229884496	 0.0416188559	 0.0249431879	-0.048359
N	 0.7874451503	-0.4841778342	-1.0853807152	-0.344553
C	 1.85564002	-1.2686887897	-0.7017951224	 0.421816
O	 2.6432084153	-1.8238166206	-1.439391893	-0.392326
C	 1.8030685288	-1.2686036965	 0.7879994573	-0.326223
C	 0.7706545741	-0.5357173746	 1.2180377568	 0.335399
C	 0.335116525	-0.2710644467	 2.6217387949	-0.494351
H	 0.9449775328	 2.0103277326	 0.0672466022	 0.132581
H	-0.5501395741	 1.932632635	-0.8858517868	 0.121184
H	-0.6374765988	 1.9360332964	 0.8788265298	 0.122126
H	-1.0033410273	-0.3610656766	 0.0179485988	 0.095667
H	 0.5740297416	-0.3131781507	-2.05328712	 0.248266
H	 2.5230024967	-1.8097507096	 1.386457253	 0.113932
H	 0.9606245031	-0.8095735613	 3.3373088719	 0.136851
H	 0.3876762726	 0.7978409322	 2.8617148189	 0.137934
H	-0.7065331455	-0.5769610481	 2.7783929083	 0.134359
46.3437	145.4501	194.6858	228.4181	255.472	302.0438	343.8623	429.1113	513.6745	562.2598	581.0112	695.289	739.2905	787.661	883.8852	936.2571	975.314	1010.5608	1027.5205	1065.3895	1106.0312	1135.3689	1163.8872	1217.0438	1309.4714	1327.6419	1360.5195	1400.9562	1414.4441	1418.951	1479.4146	1484.1215	1495.2973	1498.2912	1694.9337	1821.3723	2968.0721	3025.4093	3038.8769	3073.4801	3109.1466	3121.6259	3123.2465	3233.6569	3668.3358
CC1NC(=O)C=C1C	C[C@H]1NC(=O)C=C1C	
InChI=1S/C6H9NO/c1-4-3-6(8)7-5(4)2/h3,5H,1-2H3,(H,7,8)	InChI=1S/C6H9NO/c1-4-3-6(8)7-5(4)2/h3,5H,1-2H3,(H,7,8)/t5-/m1/s1
