21
gdb 91178	2.0034	1.78987	1.59092	1.4516	82.41	-0.2396	0.0182	0.2578	1028.3227	0.183407	-387.095193	-387.086893	-387.085949	-387.127608	33.497	
C	 0.2604432792	 1.5743690961	-0.0263116641	-0.484842
C	-0.0366193041	 0.0838532706	 0.0495791672	 0.319915
C	-1.5384984847	-0.269390058	 0.0510201005	-0.32725
C	-1.6256817927	-1.4224060404	 1.0255079213	-0.084311
C	-0.4741915512	-1.6491479015	 1.6634065772	-0.089069
C	 0.6216742029	-0.7098174859	 1.2367823403	-0.096281
C	 1.6696149926	-1.314745864	 0.2571283697	-0.267465
C	 0.8449220737	-0.7736529197	-0.945192046	 0.093295
O	 0.1818921315	-1.7428094149	-1.7269378273	-0.430816
H	 1.3382805328	 1.7727520457	-0.0038864301	 0.111256
H	-0.1341239425	 2.0054490051	-0.9540138662	 0.118543
H	-0.1930789532	 2.1134417554	 0.8131101603	 0.113503
H	-2.1599064531	 0.5761066087	 0.3778891037	 0.09954
H	-1.884055394	-0.5431357522	-0.9526672572	 0.11769
H	-2.5441558125	-1.9772774254	 1.1893877367	 0.092968
H	-0.3206934429	-2.4206718118	 2.411899656	 0.092312
H	 1.0360193861	-0.1349210333	 2.072369799	 0.066462
H	 2.6589575451	-0.8565511001	 0.3411177413	 0.100619
H	 1.7905393648	-2.4020267783	 0.2784367676	 0.09405
H	 1.4087860839	-0.1661180881	-1.6589198213	 0.079923
H	-0.2543005118	-2.3576681979	-1.1259018986	 0.279957
76.4386	207.4836	240.0742	245.4985	295.9959	326.0694	388.9068	431.5749	455.7738	508.8533	565.6872	657.8039	746.2784	756.9701	807.329	837.7752	874.1805	914.8602	931.3598	963.3741	973.6537	983.0147	1015.8172	1035.0939	1096.1858	1101.4815	1129.428	1143.121	1157.3462	1192.3476	1209.3758	1241.0572	1260.2025	1274.937	1297.1752	1305.8817	1354.1217	1370.0691	1411.5958	1441.4697	1472.3701	1479.2926	1494.5288	1496.9232	1670.5772	3007.7186	3018.469	3039.0584	3050.3033	3057.35	3066.2972	3084.0666	3087.0264	3103.8471	3167.8077	3193.5998	3791.4041
CC12CC=CC1CC2O	C[C@]12CC=C[C@H]1C[C@H]2O	
InChI=1S/C8H12O/c1-8-4-2-3-6(8)5-7(8)9/h2-3,6-7,9H,4-5H2,1H3	InChI=1S/C8H12O/c1-8-4-2-3-6(8)5-7(8)9/h2-3,6-7,9H,4-5H2,1H3/t6-,7+,8-/m0/s1
