21
gdb 115858	2.65487	1.40601	1.21094	1.1514	78.76	-0.2514	0.0828	0.3342	1151.0156	0.182847	-424.214739	-424.205784	-424.20484	-424.248358	33.517	
C	-0.0260135281	 1.3845908088	-0.1190173307	-0.239714
O	-0.016055804	-0.0314528672	-0.0825621282	-0.237989
C	-1.2788736621	-0.5983729126	 0.0592907163	 0.231622
O	-2.0539211151	-0.3584546045	-1.1180952632	-0.283263
C	-2.8740704254	-1.487135438	-1.4061433092	-0.095106
C	-2.2354030133	-2.6800362667	-0.7152966501	-0.088686
C	-0.766436652	-2.9308806459	-0.9602071989	-0.004652
C	 0.0034494212	-2.4070620729	-2.1557037272	-0.413363
C	-1.2043105968	-2.0996468669	 0.2262707737	-0.114844
H	 1.0162682353	 1.7103607641	-0.1398965217	 0.124651
H	-0.5430748902	 1.7612368668	-1.0090153256	 0.12869
H	-0.5130702171	 1.802642305	 0.7753391566	 0.103275
H	-1.7910950837	-0.1312286011	 0.9224502209	 0.058762
H	-3.8945297632	-1.3332579686	-1.0234618938	 0.096021
H	-2.9332125829	-1.5811719608	-2.4968694291	 0.108809
H	-2.8810711885	-3.4996234681	-0.4210305914	 0.086926
H	-0.4593487663	-3.9310962594	-0.6615766072	 0.083702
H	-0.3263562284	-1.4106389511	-2.4495476762	 0.142898
H	 1.0716618497	-2.346382898	-1.9252074164	 0.120129
H	-0.1176230493	-3.0832689877	-3.0097488868	 0.103615
H	-1.0567643699	-2.4789908552	 1.2302375082	 0.088518
91.5049	123.6973	169.485	189.901	207.2945	210.0279	271.1352	377.0417	456.1529	507.8151	550.4509	690.8573	746.1325	777.6825	799.2585	892.5344	917.9465	978.6328	985.3815	1012.0578	1032.2614	1047.6848	1079.5535	1102.2025	1115.4667	1134.4369	1147.1615	1162.6325	1180.639	1222.1488	1231.6926	1237.9149	1330.5661	1355.9049	1364.0945	1381.3817	1411.3433	1422.7725	1451.5988	1480.1429	1484.604	1499.0109	1502.5767	1512.5605	1524.0032	2911.966	2987.2296	2989.4431	3035.6251	3050.7001	3065.0589	3093.8403	3122.6458	3123.3108	3154.4726	3171.9066	3185.1985
COC1OCC2C(C)C12	CO[C@H]1OC[C@H]2[C@@H](C)[C@@H]12	
InChI=1S/C7H12O2/c1-4-5-3-9-7(8-2)6(4)5/h4-7H,3H2,1-2H3	InChI=1S/C7H12O2/c1-4-5-3-9-7(8-2)6(4)5/h4-7H,3H2,1-2H3/t4-,5+,6-,7+/m1/s1
