20
gdb 10706	2.38561	1.96638	1.33797	2.7366	75.32	-0.2397	-0.0083	0.2314	1018.7465	0.175167	-349.022759	-349.013627	-349.012683	-349.056446	33.733	
C	 0.5911956453	 0.0348869743	 1.2385033677	-0.379343
C	-0.0754855899	-0.0579616259	-0.1412720411	-0.283626
C	-1.4513469398	-0.7091269197	-0.1186136953	 0.259293
C	-1.8362657686	-1.6271978274	-1.2848716348	-0.293623
C	-1.5226486768	-2.2150761198	 0.0509155097	-0.28358
C	-2.6359620787	 0.0524237692	 0.4208406567	 0.325742
C	-2.5397542183	 1.5664709025	 0.5119212157	-0.498122
O	-3.6649113456	-0.5185299098	 0.7203670215	-0.319323
H	 1.5824518631	 0.4925635787	 1.1637424797	 0.115081
H	 0.0018943589	 0.6342503022	 1.9399833453	 0.119195
H	 0.7106414077	-0.9591844214	 1.6807558359	 0.123029
H	-0.1347844653	 0.9384294282	-0.5949462237	 0.098892
H	 0.5706960474	-0.6460733129	-0.8035414519	 0.097697
H	-2.8746359046	-1.6113469794	-1.5947293072	 0.13225
H	-1.1133264092	-1.7254960718	-2.0877015284	 0.113772
H	-0.5795209788	-2.7358964932	 0.1762745049	 0.11069
H	-2.3516868578	-2.5905359591	 0.638057171	 0.139353
H	-2.3271856006	 1.9949314191	-0.4742336419	 0.140821
H	-3.4874557405	 1.9582087013	 0.8822984244	 0.140407
H	-1.7286219679	 1.8792821246	 1.1762753017	 0.141396
53.3807	132.1628	158.3361	189.1927	211.9286	271.4726	274.1299	340.3842	414.0149	440.6221	549.8462	613.7513	652.7063	777.8477	795.8046	857.8043	862.9294	932.9264	948.8409	977.015	1015.8289	1050.1425	1062.3455	1087.1066	1096.5972	1114.4103	1165.1014	1204.5399	1276.1113	1302.7791	1355.0862	1375.1866	1384.5153	1413.7192	1451.3164	1460.1631	1476.8819	1480.9135	1492.1044	1499.3285	1507.1484	1780.4895	3029.7741	3037.7875	3041.5267	3060.8084	3103.7383	3107.6308	3109.2941	3134.1638	3139.5137	3154.5558	3224.0778	3239.6207
CCC1(CC1)C(C)=O	CCC1(CC1)C(=O)C	
InChI=1S/C7H12O/c1-3-7(4-5-7)6(2)8/h3-5H2,1-2H3	InChI=1S/C7H12O/c1-3-7(4-5-7)6(2)8/h3-5H2,1-2H3
