15
gdb 54752	4.11065	1.08578	0.91727	1.2145	67.71	-0.2431	-0.0316	0.2115	1210.5284	0.111846	-453.94736	-453.939262	-453.938318	-453.980824	30.009	
N	-0.042084091	 1.3044425046	 0.0353280137	-0.533063
C	-0.0536735324	-0.0608054562	-0.0474654362	 0.410376
O	 0.7508081477	-0.7176446138	-0.6706941953	-0.355247
N	-1.1123227821	-0.6276779379	 0.7248342367	-0.163017
C	-1.6413943488	-1.8950354228	 0.2611336286	-0.016037
C	-2.554060288	-2.4072680382	 1.3845463129	-0.37594
C	-3.4102776128	-1.1209932194	 1.1627490166	 0.427144
O	-4.4697662026	-0.749739427	 1.5673759393	-0.294778
C	-2.4625727131	-0.6417012473	 0.072018744	-0.190004
H	 0.7898298974	 1.7612593162	-0.3011007525	 0.268845
H	-0.5435268802	 1.7481484601	 0.78703827	 0.268802
H	-1.1120604073	-2.452763615	-0.497791229	 0.143047
H	-3.1385559502	-3.2916944913	 1.1149329427	 0.139069
H	-2.0918334832	-2.5445890139	 2.3635726064	 0.138794
H	-2.6429067934	-0.0348240882	-0.8063070278	 0.132009
42.4479	113.1946	165.129	198.378	338.7512	410.7788	439.7639	484.8868	530.0539	540.4539	633.2367	657.4737	735.172	790.1492	802.5399	857.9818	897.0834	981.8415	986.4493	992.066	1033.5248	1095.4524	1111.9942	1141.1639	1180.354	1217.3336	1270.2694	1332.7084	1363.1478	1443.7481	1613.9424	1812.2435	1902.5936	3071.7802	3135.7635	3207.2929	3238.6333	3598.8846	3726.1847
NC(=O)N1C2CC(=O)C12	NC(=O)N1[C@H]2CC(=O)[C@@H]12	
InChI=1S/C5H6N2O2/c6-5(9)7-2-1-3(8)4(2)7/h2,4H,1H2,(H2,6,9)	InChI=1S/C5H6N2O2/c6-5(9)7-2-1-3(8)4(2)7/h2,4H,1H2,(H2,6,9)/t2-,4-,7?/m0/s1
