20
gdb 74846	2.25095	1.73049	1.3267	0.3929	80.37	-0.2279	0.0158	0.2437	1066.6692	0.169925	-403.135331	-403.12626	-403.125316	-403.168371	35.189	
C	 0.0477768149	 1.4960798241	-0.0132106715	-0.507726
C	-0.0032762836	 0.0013520729	-0.0459367372	 0.29278
C	-0.0966961567	-0.7791578037	-1.1278616631	-0.168398
C	-0.0678686156	-2.2226794543	-0.7637613036	-0.082847
N	 1.2120230627	-2.6213384417	-0.0982221638	-0.345035
C	 0.0314024013	-2.2692888661	 0.713189305	-0.074619
C	 0.0434305534	-0.8331610712	 1.2437862536	 0.296229
C	 1.2575480051	-0.5342444761	 2.1256626369	-0.451534
O	-1.1715903218	-0.684200876	 1.9925285501	-0.476143
H	 1.0108941089	 1.8637684592	 0.3625460694	 0.130332
H	-0.1055118011	 1.9208992906	-1.0087386102	 0.126631
H	-0.7281446036	 1.9027355862	 0.6479940877	 0.118281
H	-0.1501359523	-0.423092549	-2.1507837214	 0.092049
H	-0.6037279588	-2.9665977978	-1.3430128569	 0.08864
H	 1.2895885463	-3.6377303815	-0.119334739	 0.226555
H	-0.4608259357	-3.0220433734	 1.3188369992	 0.090729
H	 2.1812873191	-0.7468862933	 1.5834780544	 0.146476
H	 1.2717787763	 0.5171643646	 2.4369829325	 0.101955
H	 1.2239747825	-1.1548530592	 3.0265288798	 0.117934
H	-1.0998504814	 0.1191595659	 2.5174981279	 0.277713
116.239	168.5176	190.4834	214.3543	235.8662	256.8462	266.3179	354.2968	426.3653	458.6985	475.3383	584.1027	635.4504	675.1115	739.3845	821.555	854.6275	864.5573	900.5908	925.5867	942.0682	988.2057	1016.8958	1058.782	1064.9086	1106.5637	1113.9135	1122.9428	1141.7367	1179.1962	1230.184	1266.0456	1300.0401	1350.1241	1385.2949	1394.3581	1405.5196	1419.2509	1477.32	1487.0294	1494.1731	1499.5912	1702.584	3016.5688	3029.4448	3063.4743	3095.1934	3110.5611	3134.8079	3168.2547	3179.2438	3192.3817	3466.9283	3820.534
CC1=CC2NC2C1(C)O	CC1=C[C@H]2N[C@H]2[C@]1(C)O	
InChI=1S/C7H11NO/c1-4-3-5-6(8-5)7(4,2)9/h3,5-6,8-9H,1-2H3	InChI=1S/C7H11NO/c1-4-3-5-6(8-5)7(4,2)9/h3,5-6,8-9H,1-2H3/t5-,6-,7-/m1/s1
