17
gdb 50362	2.53635	1.72711	1.5227	3.1256	67.56	-0.246	-0.0251	0.2208	942.1298	0.136323	-458.952604	-458.945176	-458.944232	-458.984726	28.095	
O	 0.7654473588	-0.2340724216	 0.4212041358	-0.239299
C	 0.4173274977	 0.9134995816	 0.4875048066	 0.165203
C	 1.2232989795	 2.1203729661	 0.0177106631	-0.002513
C	 1.5059980936	 3.1208932852	 1.1662058232	-0.277741
C	 2.8888992852	 2.6891115732	 1.6329837122	 0.100218
O	 2.8656779343	 1.5024244436	 2.4538880528	-0.300654
C	 3.5984045689	 0.7387213169	 1.4584958723	-0.108976
C	 3.4913692466	 1.8984362618	 0.4481366081	 0.062889
O	 2.4799639799	 1.7804806983	-0.5377505168	-0.24871
H	-0.5861997671	 1.1971794334	 0.8862145767	 0.076639
H	 0.6210725389	 2.5890332653	-0.7739394274	 0.109293
H	 1.5374727564	 4.1436565467	 0.779675139	 0.117
H	 0.7711913282	 3.0754849843	 1.9740083223	 0.12679
H	 3.477763723	 3.4930667534	 2.0854081242	 0.081881
H	 4.6208009648	 0.5257075403	 1.7940962983	 0.100678
H	 3.0819001429	-0.1798410839	 1.1734732745	 0.145432
H	 4.4069406284	 2.2325162654	-0.0411452647	 0.09187
109.4148	126.6609	166.4007	250.7764	344.2524	369.8493	421.7101	631.1172	678.2709	729.3831	801.2114	817.9473	851.8741	875.7304	915.0797	936.5005	984.1345	1010.7049	1017.8451	1052.9395	1058.1013	1091.3212	1143.8677	1184.5685	1196.9032	1227.6765	1233.5879	1278.8186	1312.5007	1331.3425	1350.0245	1357.503	1377.1807	1419.4359	1472.3214	1505.0233	1843.5556	2848.3682	3013.5246	3027.5892	3055.479	3069.4643	3109.2259	3116.0287	3123.6748
O=CC1CC2OCC2O1	O=C[C@H]1C[C@H]2OC[C@H]2O1	
InChI=1S/C6H8O3/c7-2-4-1-5-6(9-4)3-8-5/h2,4-6H,1,3H2	InChI=1S/C6H8O3/c7-2-4-1-5-6(9-4)3-8-5/h2,4-6H,1,3H2/t4-,5-,6-/m1/s1
