20
gdb 63559	2.51372	1.46523	1.12594	2.0454	81.81	-0.2427	-0.0288	0.2139	1163.2152	0.16914	-403.147315	-403.138025	-403.13708	-403.181067	35.06	
C	-0.0384421404	 1.5082439057	-0.1015961354	-0.432682
C	-0.0140767706	-0.0031564331	-0.0081956007	 0.246951
C	-1.1859210875	-0.7173735817	-0.650516885	-0.475689
N	 1.3219122998	-0.5940876268	-0.1152558034	-0.411774
C	 0.6523024803	-0.6287786441	 1.1890306656	 0.220693
C	 1.1484318331	-0.0149275967	 2.5102377167	-0.327888
C	 0.5183690079	-1.2195543666	 3.283080137	-0.341749
C	 0.1883213794	-1.8613360981	 1.9208067829	 0.341896
O	-0.2002123112	-2.9420840203	 1.5668013062	-0.324767
H	 0.8646531395	 1.9424911212	 0.3320600565	 0.131182
H	-0.0933485669	 1.8200503034	-1.1506424037	 0.12424
H	-0.9124650099	 1.9182127502	 0.4159524315	 0.116769
H	-1.1810855277	-0.5473465297	-1.7335946659	 0.121376
H	-1.1490274616	-1.7927453793	-0.4618265821	 0.150826
H	-2.1364425042	-0.3354398002	-0.262843675	 0.122199
H	 1.2689170816	-1.5243605812	-0.531278893	 0.239703
H	 2.2374097921	 0.0269645855	 2.5783681541	 0.121928
H	 0.7372731145	 0.9656719177	 2.7569566569	 0.110759
H	 1.1931773017	-1.8082919765	 3.9093351485	 0.133551
H	-0.3746748799	-0.9766972196	 3.8662842681	 0.132475
88.3181	119.9808	165.4655	190.7519	209.1237	250.5057	301.1819	357.1449	410.1584	456.9382	490.2409	539.1435	616.4468	686.0236	730.0966	756.9097	817.7736	922.358	956.6891	965.9328	989.0889	1008.0176	1044.2155	1057.4757	1078.5313	1106.7112	1148.1568	1163.5164	1192.995	1213.3235	1246.7099	1259.2093	1325.6526	1409.9224	1414.3375	1426.0056	1442.2246	1480.9266	1485.6425	1488.4625	1502.7878	1511.4364	1860.5111	3029.2005	3034.8913	3064.6739	3076.4469	3089.213	3095.4017	3114.5536	3128.8038	3130.1381	3132.43	3460.8696
CC1(C)NC11CCC1=O	CC1(C)N[C@]21CCC2=O	
InChI=1S/C7H11NO/c1-6(2)7(8-6)4-3-5(7)9/h8H,3-4H2,1-2H3	InChI=1S/C7H11NO/c1-6(2)7(8-6)4-3-5(7)9/h8H,3-4H2,1-2H3/t7-/m1/s1
