19
gdb 90206	3.09086	1.74916	1.5326	1.5251	79.81	-0.2233	0.0531	0.2764	951.499	0.159184	-385.734928	-385.727776	-385.726832	-385.765929	29.766	
C	-0.4744420193	 1.3990612649	-0.0539553976	-0.405122
C	 0.0626441416	-0.0144794304	 0.0354318009	 0.045974
O	 1.2172394464	-0.2553042743	-0.8812579993	-0.350196
C	 2.0704765463	-0.3457775143	 0.2634502505	 0.366294
C	 2.7474474329	 0.8183821333	 0.999674048	-0.308961
C	 2.186201387	-0.1167340027	 2.0909895867	-0.107268
C	 2.5744865324	-1.4389927278	 1.276065861	-0.092666
C	 1.1688398139	-2.0355973444	 1.4078438533	-0.28836
C	 0.905589521	-0.5201565834	 1.2467751228	 0.118345
H	 0.2779375993	 2.1486874026	 0.1960610665	 0.128517
H	-0.8295207068	 1.5981302843	-1.0700363951	 0.130703
H	-1.319190569	 1.5134124168	 0.6337922443	 0.123301
H	-0.7284246845	-0.733422258	-0.2038804686	 0.094644
H	 3.8370161424	 0.888711047	 0.9299543944	 0.097156
H	 2.2892936209	 1.8056837726	 0.9169738514	 0.10186
H	 2.2706128877	-0.0144732336	 3.175582327	 0.081926
H	 3.550662109	-1.9332916452	 1.3300082504	 0.070095
H	 0.84387542	-2.6701537985	 0.5779590947	 0.103653
H	 0.9031352288	-2.4885114688	 2.3676344987	 0.090107
186.8549	202.753	225.712	346.6869	398.0921	406.8977	473.1224	516.1648	554.4136	722.7222	766.0259	779.1124	813.4773	863.4647	891.3069	906.015	924.8705	956.4539	991.1675	1005.1611	1020.6724	1037.6865	1058.775	1096.4583	1117.4718	1129.6388	1137.1255	1148.6335	1163.6168	1202.2438	1221.5591	1241.4515	1249.7154	1260.7785	1298.4968	1368.8844	1406.0883	1480.4432	1491.3053	1503.9561	1515.5378	3040.0897	3040.8994	3046.8718	3052.2952	3055.6024	3084.5761	3102.6855	3107.6296	3119.8102	3142.2072
CC1OC23CC4C2CC134	C[C@H]1O[C@]23C[C@@H]4[C@H]2C[C@]134	
InChI=1S/C8H10O/c1-4-7-2-6-5(7)3-8(6,7)9-4/h4-6H,2-3H2,1H3	InChI=1S/C8H10O/c1-4-7-2-6-5(7)3-8(6,7)9-4/h4-6H,2-3H2,1H3/t4-,5-,6-,7-,8-/m1/s1
