17
gdb 79419	2.7105	1.68389	1.29865	1.549	74.88	-0.2312	-0.028	0.2032	995.0423	0.135895	-421.712821	-421.705346	-421.704402	-421.744725	29.368	
O	 0.1672433576	 1.4523495523	 0.2338688599	-0.409666
C	 0.0529114166	 0.0597791755	 0.0772876452	-0.054571
C	-1.3668935579	-0.5975652474	 0.0875786394	-0.012733
C	-2.7829229761	-0.1991111059	-0.4524444513	-0.090549
C	-2.0824639217	 0.6305316802	-1.545513624	-0.237802
C	-1.2910153325	-0.734662291	-1.4560115591	 0.127389
C	-2.6826951345	-1.4479347163	-1.4356071634	-0.314797
C	 0.2295057882	-0.5375254044	-1.4098101725	 0.285063
O	 1.1858548142	-0.7678373499	-2.0831209226	-0.294239
H	 1.0733581603	 1.6991279232	 0.0147147222	 0.296959
H	 0.7195817481	-0.4726167273	 0.7725088442	 0.097621
H	-1.3391053175	-1.5345673474	 0.6504557945	 0.079663
H	-3.6659902947	 0.0754612504	 0.1301659379	 0.080026
H	-2.6209406349	 0.776032191	-2.4851446328	 0.09643
H	-1.5634650336	 1.5301578935	-1.2242866168	 0.137907
H	-2.701367425	-2.4395367038	-0.9773298415	 0.106957
H	-3.3016278668	-1.4014010825	-2.3350598195	 0.106343
89.0085	192.7127	221.5627	285.6947	298.2971	370.8504	511.7196	541.9188	572.3946	664.7013	713.2939	785.3523	817.187	823.4411	842.5994	908.3079	935.2428	982.987	1013.4924	1014.9506	1053.348	1089.4652	1113.8363	1130.9939	1135.2901	1166.1258	1174.547	1196.8094	1213.3144	1225.5768	1236.5892	1283.3178	1366.2695	1406.6556	1494.5526	1535.93	1880.5113	2985.5735	3056.6038	3066.3013	3069.9926	3082.0883	3130.8625	3176.3652	3794.2591
OC1C2C3CC2(C3)C1=O	O[C@H]1[C@H]2[C@H]3C[C@@]2(C3)C1=O	
InChI=1S/C7H8O2/c8-5-4-3-1-7(4,2-3)6(5)9/h3-5,8H,1-2H2	InChI=1S/C7H8O2/c8-5-4-3-1-7(4,2-3)6(5)9/h3-5,8H,1-2H2/t3-,4-,5+,7-/m1/s1
