23
gdb 38244	2.99243	1.6557	1.35689	0.1029	88.12	-0.281	0.0836	0.3645	1053.1118	0.21069	-351.160421	-351.153207	-351.152263	-351.192105	30.692	
C	-0.0333995194	 1.6336107496	-0.0181505666	-0.263678
C	 1.4984618931	 1.3900319411	 0.0116736261	-0.012106
C	 1.1686766421	 0.1605565982	 0.9255236007	-0.311114
C	-0.0734707585	 0.072742091	-0.0000971247	 0.393954
C	-1.357477877	-0.7311803823	 0.0528173071	-0.355328
C	-1.8074632568	-0.8143869178	-1.4476612464	-0.197817
C	-0.6194985038	-0.2838885863	-2.3181038036	-0.255189
C	 0.5742502106	-0.2868217147	-1.3549953539	 0.036964
C	 1.7268823094	 0.7588417623	-1.3855729245	-0.257578
H	-0.4147305393	 2.0606760536	 0.9133194629	 0.089168
H	-0.4555222754	 2.1693208447	-0.8736091325	 0.085444
H	 2.1949980485	 2.1649261307	 0.3348280298	 0.054681
H	 1.861651272	-0.687538824	 0.9297954889	 0.082907
H	 0.9383780519	 0.4645636728	 1.9500267078	 0.091616
H	-1.1599237202	-1.7357580289	 0.4444588303	 0.096848
H	-2.1231681156	-0.2840173785	 0.6935844118	 0.092229
H	-2.0559931571	-1.8458928462	-1.713270278	 0.098867
H	-2.711658009	-0.2254384986	-1.6248073147	 0.099047
H	-0.4572073077	-0.8977413347	-3.2086085267	 0.09039
H	-0.8286807763	 0.7318443935	-2.6699777595	 0.096024
H	 0.9816392997	-1.3045861396	-1.3016254597	 0.06109
H	 1.6180800067	 1.4991036352	-2.1854492931	 0.093656
H	 2.7135364921	 0.2979279289	-1.4897953316	 0.089927
58.6644	209.447	290.1614	360.3451	404.2275	493.4957	526.5819	585.4972	617.4389	717.218	766.2153	805.3065	825.0251	859.1946	869.0067	887.3813	895.4396	917.8739	962.2063	975.933	992.2899	1004.7484	1021.6757	1031.5922	1069.5284	1085.5317	1101.8288	1145.7968	1165.2514	1175.8651	1197.4409	1217.0425	1231.043	1255.9952	1262.3117	1264.8876	1286.5433	1292.5522	1304.5554	1323.044	1336.9525	1349.9534	1381.6891	1484.6822	1487.6455	1496.026	1498.1646	1513.3521	1529.2827	3012.9309	3035.2573	3040.3489	3042.8968	3044.258	3050.513	3058.8438	3073.4287	3084.3424	3087.5741	3101.6057	3102.0801	3104.9597	3109.0414
C1C2CC11CCCC1C2	C1[C@H]2C[C@]31CCC[C@H]3C2	
InChI=1S/C9H14/c1-2-8-4-7-5-9(8,3-1)6-7/h7-8H,1-6H2	InChI=1S/C9H14/c1-2-8-4-7-5-9(8,3-1)6-7/h7-8H,1-6H2/t7-,8-,9+/m0/s1
