12
gdb 21382	5.54143	2.21343	1.58166	2.5751	61.23	-0.2193	-0.0066	0.2127	722.6689	0.088099	-377.535303	-377.529972	-377.529028	-377.564535	21.066	
N	 0.0269552369	 1.3578094731	 0.0096459763	-0.349749
N	 1.3048338541	 1.824440782	-0.0002846367	-0.218597
C	 2.1012160663	 0.7530300225	-0.0140706781	-0.145608
C	 1.3076888169	-0.4051551798	-0.0127629408	 0.265151
C	-0.0134844992	 0.0016508096	 0.0024618255	 0.340283
C	-0.8154565105	-1.1839615062	 0.0036895924	-0.351682
C	 0.0960395117	-2.1998097996	-0.0109219947	 0.007049
O	 1.3960254769	-1.7630404627	-0.021222733	-0.207983
H	-0.7253557176	 2.0229396934	 0.0207411818	 0.27388
H	 3.1721619941	 0.8769449578	-0.0238770628	 0.123505
H	-1.8874824793	-1.294648445	 0.0135797818	 0.122387
H	-0.0245976403	-3.271181765	-0.0157280116	 0.141363
230.1091	343.5192	420.2276	467.5526	592.4517	666.6272	688.9294	736.272	755.1159	757.2701	813.1714	857.6001	910.8265	978.6084	1049.3917	1084.1879	1149.6116	1172.1991	1245.8776	1307.8567	1357.016	1408.5193	1483.5573	1515.6499	1580.573	1595.3191	3261.7101	3265.7994	3282.6915	3692.6066
N1N=CC2=C1C=CO2	[nH]1ncc2c1cco2	
InChI=1S/C5H4N2O/c1-2-8-5-3-6-7-4(1)5/h1-3H,(H,6,7)	InChI=1S/C5H4N2O/c1-2-8-5-3-6-7-4(1)5/h1-3H,(H,6,7)
