20
gdb 35705	2.16144	1.58491	1.00596	1.2996	85.74	-0.2308	0.0497	0.2806	1216.6661	0.170179	-365.932326	-365.923488	-365.922544	-365.966038	33.76	
C	-0.3439082193	-0.9117277505	-0.919176756	-0.460427
C	-0.1788276265	 0.1673117041	-0.4135887756	 0.334156
C	 9.0178*^-6	 1.4650447567	 0.2007122955	-0.182903
C	 0.1996774361	 1.5774210359	 1.7462011529	-0.220465
C	 1.2028063667	 2.7313096638	 1.4895998943	-0.242501
C	 1.3545094665	 2.2417360315	 0.0245342256	 0.037483
N	 2.4813011974	 1.3396955749	-0.1042612479	-0.055194
C	 2.9223986606	 1.0346549145	-1.4590720873	-0.212127
C	 3.7274827658	 1.9311119779	-0.5836371065	-0.230095
H	-0.4824318681	-1.8664959185	-1.3621515353	 0.189833
H	-0.8141989653	 2.1313355848	-0.1063578644	 0.100368
H	-0.6904279398	 1.7887894248	 2.3416368996	 0.100526
H	 0.697005366	 0.6889585216	 2.1370220252	 0.126811
H	 0.727838607	 3.7148500046	 1.5403809668	 0.099418
H	 2.1190914966	 2.7434276168	 2.081980816	 0.107995
H	 1.3473712474	 3.0160925611	-0.7604262136	 0.051682
H	 3.2285852715	 0.0082003712	-1.6347368913	 0.120267
H	 2.3861683455	 1.4972472471	-2.2859525824	 0.111049
H	 3.7287388088	 2.9932163511	-0.825184989	 0.108033
H	 4.6353101352	 1.5722067567	-0.1074939665	 0.116092
82.0624	95.6303	131.0876	191.2729	232.151	307.5542	338.7787	424.6209	508.1878	584.7845	609.3545	627.0644	661.1672	742.4716	753.5671	828.911	899.3033	912.544	938.4506	946.2434	958.1825	1023.3457	1040.0379	1081.1923	1095.6421	1108.0569	1115.0471	1119.483	1170.1929	1183.7457	1210.7856	1241.8918	1255.1363	1272.4756	1279.2262	1325.046	1348.9073	1376.4562	1473.2519	1490.246	1491.1145	1518.1169	2231.7485	2949.8587	3040.7919	3065.3284	3079.6143	3092.8166	3101.9063	3122.5593	3143.8073	3178.6302	3195.1408	3505.1687
C#CC1CCC1N1CC1	C#C[C@H]1CC[C@H]1N1CC1	
InChI=1S/C8H11N/c1-2-7-3-4-8(7)9-5-6-9/h1,7-8H,3-6H2	InChI=1S/C8H11N/c1-2-7-3-4-8(7)9-5-6-9/h1,7-8H,3-6H2/t7-,8+/m0/s1
