19
gdb 72285	3.06794	1.66093	1.39197	1.4185	74.38	-0.2121	0.0747	0.2868	996.6969	0.160643	-422.989999	-422.98256	-422.981616	-423.021461	29.978	
C	-0.0568330019	 1.5408667524	-0.0670221158	-0.495405
C	-0.076632883	 0.0489298008	-0.0160273731	 0.408065
O	 0.6480494326	-0.6451855766	-1.040583744	-0.338354
C	-0.3167134162	-1.7440919779	-1.0052135932	 0.089931
C	 0.3304033419	-3.0147139078	-0.4635160051	-0.243721
C	 1.2139883882	-2.6496547017	 0.7366564748	-0.055522
O	 0.5647437301	-1.8199498995	 1.6993179378	-0.276296
C	-0.2744622099	-0.8179121238	 1.2084979091	 0.069363
C	-1.1813252023	-1.0114811102	 0.0260950263	-0.252177
H	 0.964416771	 1.9126540768	 0.073768	 0.135151
H	-0.4211267545	 1.9043813503	-1.0333666954	 0.127892
H	-0.6830110362	 1.9626178802	 0.7243924052	 0.124326
H	-0.7772831529	-1.8733634202	-1.9882971859	 0.081633
H	-0.4586320588	-3.7213998941	-0.1800420133	 0.108078
H	 0.9549162549	-3.4983696804	-1.2227018151	 0.106116
H	 1.5166803942	-3.5476164034	 1.2830285603	 0.101752
H	 2.1169583391	-2.147723903	 0.3702547282	 0.113649
H	-0.7204543874	-0.2898559102	 2.0466354469	 0.104392
H	-2.2629175788	-0.9567469717	 0.0368455323	 0.091127
163.0997	196.9589	237.0575	266.917	281.1593	386.2614	439.4208	533.2675	615.5977	654.3123	693.3255	758.537	786.5423	844.9437	889.7516	911.0361	922.6711	949.377	979.4613	1010.7976	1018.1675	1057.4474	1087.7492	1099.7079	1117.7739	1146.4226	1199.2854	1224.9456	1263.2776	1282.2459	1313.883	1329.9645	1342.7007	1370.8931	1408.5718	1420.655	1469.1053	1472.8336	1473.5629	1498.429	1506.3031	3031.7878	3033.9054	3035.0661	3067.9955	3079.4827	3090.7035	3096.1288	3114.8471	3157.2505	3182.6835
CC12OC3CCOC1C23	C[C@@]12O[C@H]3CCO[C@@H]1[C@@H]23	
InChI=1S/C7H10O2/c1-7-5-4(9-7)2-3-8-6(5)7/h4-6H,2-3H2,1H3	InChI=1S/C7H10O2/c1-7-5-4(9-7)2-3-8-6(5)7/h4-6H,2-3H2,1H3/t4-,5-,6+,7-/m0/s1
