19
gdb 53513	5.35676	0.58832	0.55896	1.5937	87.5	-0.242	0.0367	0.2787	1989.1204	0.154706	-385.830731	-385.8195	-385.818555	-385.868805	38.618	
C	 0.0809869196	 1.5171083134	-0.0647157	-0.498519
C	 0.0516194496	 0.0625482914	-0.0126405321	 0.128098
C	 0.0240493542	-1.1400866563	 0.0266995088	 0.028034
C	-0.0233842639	-2.5948814428	 0.0851079822	-0.392737
C	-1.458073428	-3.1658679186	 0.0104607509	 0.139512
O	-2.1345384073	-2.7570997826	-1.1589132791	-0.410969
C	-1.4261848092	-4.7061995292	 0.1503862147	-0.387999
C	-2.7500755664	-5.3121654204	 0.1566468126	 0.307104
C	-3.8438946455	-5.8088498957	 0.1748873457	-0.429117
H	 0.9187930783	 1.8777702701	-0.6719003356	 0.145592
H	-0.8405657483	 1.9160950325	-0.5028206684	 0.15071
H	 0.1869847443	 1.9513330025	 0.9356502871	 0.145802
H	 0.5662204829	-3.0256682321	-0.7387968716	 0.113466
H	 0.4510726879	-2.9496197037	 1.0098688776	 0.126273
H	-2.0458704306	-2.7502248792	 0.8349896845	 0.112166
H	-1.6359931582	-3.0681258061	-1.9231202398	 0.279195
H	-0.8299716482	-5.1223330004	-0.6751507794	 0.118623
H	-0.893601395	-4.9721705491	 1.072777109	 0.130613
H	-4.8120872862	-6.2442066836	 0.184888213	 0.194152
30.5408	48.2729	66.8077	79.2863	147.4154	211.3666	257.5113	264.0137	293.5389	343.4027	374.5037	384.1041	424.2552	462.9467	601.863	617.9024	637.7508	768.9008	865.1631	871.0136	966.2644	1013.0709	1043.8409	1053.0751	1055.8015	1112.7285	1173.0223	1193.0768	1201.5949	1274.8434	1346.0474	1357.5959	1369.8606	1414.9085	1425.6752	1458.547	1472.8378	1478.9379	1479.3985	2242.668	2377.4145	2990.0692	3001.5869	3026.243	3032.7942	3043.4458	3076.8184	3085.8094	3087.6198	3507.8764	3794.2437
CC#CCC(O)CC#C	CC#CC[C@@H](O)CC#C	
InChI=1S/C8H10O/c1-3-5-7-8(9)6-4-2/h2,8-9H,6-7H2,1H3	InChI=1S/C8H10O/c1-3-5-7-8(9)6-4-2/h2,8-9H,6-7H2,1H3/t8-/m0/s1
