23
gdb 84847	2.43501	1.67396	1.25454	0.2083	90.64	-0.2346	0.034	0.2685	1122.8765	0.208665	-351.164115	-351.156058	-351.155114	-351.196135	33.221	
C	-1.0675109299	 1.0573590304	 0.2114188132	-0.397763
C	-0.0043955775	-0.02761602	-0.0545523394	-0.028303
C	 0.7125484926	 0.2648112783	-1.352011746	-0.044246
C	 2.0120467938	 0.3804443984	-1.6362824033	-0.063666
C	 3.2272506567	 0.2469396471	-0.7565443668	-0.260087
C	 3.0000134346	-0.0689436217	 0.7189351964	 0.003552
C	 2.0337970094	-1.2623798731	 0.9662753412	-0.250789
C	 0.8828465316	-0.238940885	 1.176411505	 0.009957
C	 1.9610079997	 0.8607849548	 1.4061844195	-0.236308
H	-0.5993441476	 2.02778526	 0.4063987383	 0.120464
H	-1.7340739685	 1.1782953871	-0.6485578688	 0.110263
H	-1.6818364984	 0.7967624545	 1.0796692956	 0.108996
H	-0.551733211	-0.9724404888	-0.211191704	 0.078385
H	 0.0243476124	 0.4058631935	-2.186037319	 0.076864
H	 2.2607611698	 0.6023619598	-2.6739778388	 0.07964
H	 3.875968293	-0.5292787856	-1.1915547111	 0.103344
H	 3.8101420182	 1.1777497366	-0.8374126508	 0.102894
H	 3.9714531354	-0.1388117009	 1.217500854	 0.058173
H	 1.9162947533	-1.9901277162	 0.157725719	 0.094182
H	 2.2755673889	-1.7991670644	 1.8877921153	 0.090814
H	 0.2339315722	-0.4390403168	 2.034947311	 0.056209
H	 2.1767646789	 1.0025414771	 2.4686844251	 0.0917
H	 1.7917361026	 1.841346925	 0.9520172244	 0.095722
112.1539	213.4538	240.2326	279.5429	305.1981	328.9975	367.6933	402.2968	487.6779	557.6492	697.7168	750.0342	780.2632	802.7726	808.6101	860.3611	877.7754	892.1259	929.882	951.9041	990.688	1016.0975	1023.4089	1037.5315	1075.2462	1086.0087	1107.5167	1120.9834	1151.7162	1171.5596	1189.8003	1236.8623	1251.6858	1269.2468	1282.8665	1304.5287	1317.1518	1352.3214	1367.5753	1371.6503	1396.2305	1404.3913	1441.5081	1463.6516	1471.3087	1495.1015	1498.1622	1501.4431	1730.3068	2959.0595	2983.7754	3004.5029	3030.1023	3040.9198	3047.2617	3049.6868	3061.0882	3098.901	3099.3669	3101.3859	3104.0351	3107.155	3133.0767
CC1C=CCC2CC1C2	C[C@H]1C=CC[C@@H]2C[C@H]1C2	
InChI=1S/C9H14/c1-7-3-2-4-8-5-9(7)6-8/h2-3,7-9H,4-6H2,1H3	InChI=1S/C9H14/c1-7-3-2-4-8-5-9(7)6-8/h2-3,7-9H,4-6H2,1H3/t7-,8-,9+/m0/s1
