19
gdb 9857	4.47045	0.98693	0.95069	1.4657	80.06	-0.2394	0.0508	0.2902	1327.0527	0.163629	-327.883568	-327.874016	-327.873072	-327.919355	33.544	
C	 0.0900510073	 1.4348884068	 0.3165659764	-0.4971
C	 0.0372432222	 0.0015900531	 0.0649530991	 0.065689
C	-0.0000986362	-1.1837770139	-0.1438291273	 0.075936
C	-0.0645271149	-2.6237601708	-0.386234562	-0.436806
C	-1.4447936527	-3.2263703895	-0.1159777982	 0.361097
C	-2.5510481812	-2.7427966162	-1.0282562151	-0.441495
C	-1.4846386395	-4.6003456842	 0.4470402723	-0.288185
N	-1.8429080901	-3.4379841932	 1.2849992835	-0.34028
H	 0.9212970558	 1.692345588	 0.9823603863	 0.146707
H	 0.2239317466	 1.9991891141	-0.6130188832	 0.146763
H	-0.8328563338	 1.7893208017	 0.7887458682	 0.14973
H	 0.2203239565	-2.834674247	-1.4264764849	 0.128327
H	 0.678912427	-3.1360374612	 0.2391284941	 0.116716
H	-2.3523903909	-3.0259670156	-2.0683024154	 0.109527
H	-3.5078537656	-3.1739056329	-0.7253580958	 0.125173
H	-2.6360096489	-1.6525204205	-0.9832550266	 0.130553
H	-2.3127746242	-5.2623829702	 0.208024958	 0.114502
H	-0.5417766554	-5.1096752096	 0.6321646219	 0.105091
H	-1.0723388721	-3.2056424088	 1.9075212087	 0.228054
21.5155	51.8209	89.9039	199.95	214.4605	251.4888	331.7076	348.1317	380.9992	388.3295	402.6655	508.2179	727.223	773.4411	832.0286	901.4605	916.8682	930.2869	978.1682	1043.0637	1053.4703	1055.6402	1073.2606	1111.0134	1144.5621	1165.8665	1213.8438	1255.0349	1309.7654	1347.0386	1390.9556	1415.0388	1423.5033	1462.9329	1478.7993	1479.1859	1485.4321	1499.0896	1516.154	2372.1104	3003.8809	3026.5986	3034.2702	3036.0352	3086.4704	3087.7685	3099.762	3101.5497	3127.2596	3184.7864	3491.8981
CC#CCC1(C)CN1	CC#CC[C@@]1(C)CN1	
InChI=1S/C7H11N/c1-3-4-5-7(2)6-8-7/h8H,5-6H2,1-2H3	InChI=1S/C7H11N/c1-3-4-5-7(2)6-8-7/h8H,5-6H2,1-2H3/t7-/m0/s1
