21
gdb 104533	2.56627	1.22246	1.04152	1.7709	83.98	-0.2555	0.0375	0.293	1253.8829	0.181087	-387.043993	-387.034381	-387.033437	-387.078343	36.614	
O	 0.3420071573	 1.2300576477	-0.4357542648	-0.424037
C	 0.0960484041	-0.065574764	 0.0723760877	-0.111529
C	-1.3797050239	-0.4970756948	 0.0266607303	 0.301817
C	-2.2168918956	 0.1790916113	 1.1308535144	-0.433077
C	-2.2596034392	 1.6390264291	 1.0762138825	 0.290452
C	-2.2963439856	 2.8416769811	 1.0343152275	-0.437654
C	-1.9493779498	-0.4529943542	-1.4229037398	-0.247569
C	-1.6829815744	-1.9780306156	-1.5501696383	-0.212258
C	-1.5019154835	-2.0526492122	-0.0091526823	-0.269401
H	-0.2009631722	 1.8524891374	 0.0633437728	 0.28604
H	 0.6885751684	-0.743189449	-0.5522857156	 0.102202
H	 0.4689191227	-0.1761482594	 1.1058661804	 0.080765
H	-3.2449988065	-0.2011979524	 1.078823627	 0.128322
H	-1.8269304956	-0.1300763753	 2.1109530112	 0.130771
H	-2.3457853785	 3.9021306252	 0.998602912	 0.203463
H	-3.016471786	-0.21316911	-1.4405012785	 0.094739
H	-1.4299308933	 0.2156283096	-2.1112706366	 0.117829
H	-2.4821675203	-2.5864042437	-1.9786774669	 0.098661
H	-0.7605050617	-2.1997116991	-2.0923543268	 0.108294
H	-0.6485079887	-2.6193914992	 0.3756583015	 0.097174
H	-2.4039083277	-2.4066036425	 0.4992683121	 0.094996
61.891	110.8413	148.8704	152.7469	236.3338	296.4066	328.7862	346.0656	373.9886	431.7929	461.9052	500.1163	623.9857	637.459	674.2379	738.5013	793.9455	854.023	900.8925	911.8525	933.4639	943.3744	972.0918	981.6462	1056.897	1067.5106	1102.6255	1142.1455	1183.657	1207.6747	1220.0358	1252.9211	1262.0359	1276.1673	1313.5649	1323.6994	1331.166	1387.618	1443.2182	1464.8367	1478.7668	1485.0654	1501.5677	1510.8088	2223.4456	2950.8507	3008.8626	3044.0513	3045.5221	3059.2667	3060.4462	3067.5816	3090.3211	3112.6897	3127.1114	3500.9674	3769.6631
OCC1(CC#C)CCC1	OCC1(CC#C)CCC1	
InChI=1S/C8H12O/c1-2-4-8(7-9)5-3-6-8/h1,9H,3-7H2	InChI=1S/C8H12O/c1-2-4-8(7-9)5-3-6-8/h1,9H,3-7H2
