20
gdb 8920	3.54245	1.30354	1.02473	4.1025	76.55	-0.2327	0.0329	0.2656	1186.2827	0.17561	-345.185468	-345.175778	-345.174834	-345.220009	34.642	
C	 0.0153521417	 1.5761767245	-0.0739359687	-0.399929
C	-0.0394380417	 0.0507590911	 0.0213201723	-0.111893
N	-1.4068804071	-0.4795804223	 0.0302484453	-0.075929
C	-2.1173338084	-0.1658392656	-1.2081481969	-0.343387
C	-1.4402792331	-1.9222109932	 0.3087024756	-0.06083
C	-0.7485534289	-2.3197357885	 1.6277759739	-0.414857
C	-2.84163592	-2.3793254215	 0.3787246717	 0.283984
N	-3.9251512326	-2.7742640155	 0.4489997819	-0.334082
H	 1.0408285716	 1.9156230672	 0.0998644596	 0.118765
H	-0.2888846001	 1.9494804971	-1.0548574404	 0.124811
H	-0.6310470873	 2.0289264782	 0.6837677367	 0.130842
H	 0.5577171224	-0.3942325083	-0.8003116241	 0.07646
H	 0.444340586	-0.2408922686	 0.9553347808	 0.10977
H	-1.6178464541	-0.5806782109	-2.1044237709	 0.093719
H	-3.132758092	-0.5647279253	-1.166626439	 0.152579
H	-2.1930817728	 0.9154686352	-1.3302934543	 0.129556
H	-0.9701341003	-2.5002176371	-0.5135452662	 0.100248
H	 0.3365874691	-2.2437901755	 1.5462918995	 0.131886
H	-1.0960063913	-1.6785496715	 2.4417153299	 0.14588
H	-0.9933534912	-3.3563418194	 1.8698692435	 0.142407
55.5879	74.1661	158.4271	209.0901	218.8929	220.3304	284.9507	296.8107	346.079	389.5258	427.8936	444.7068	575.4776	588.7718	781.5992	816.3798	844.5644	942.7931	1003.8651	1064.0355	1075.5182	1090.1642	1118.698	1126.7825	1170.8761	1227.6666	1264.2518	1319.9799	1343.7935	1351.3896	1397.7121	1406.8196	1418.8535	1465.4494	1487.1369	1489.0406	1497.4113	1503.073	1506.1192	1511.3356	1518.637	2359.2734	2887.6234	2901.572	2931.3148	3045.8352	3059.3651	3096.0816	3101.1583	3116.3693	3125.0573	3136.9118	3142.7406	3145.959
CCN(C)C(C)C#N	CCN(C)[C@@H](C)C#N	
InChI=1S/C6H12N2/c1-4-8(3)6(2)5-7/h6H,4H2,1-3H3	InChI=1S/C6H12N2/c1-4-8(3)6(2)5-7/h6H,4H2,1-3H3/t6-/m0/s1
