14
gdb 26647	3.42773	1.27508	0.93286	0.7536	74.01	-0.1931	-0.0047	0.1884	1162.3932	0.09972	-436.671924	-436.663288	-436.662344	-436.70487	32.163	
N	 0.0610694604	 1.3970778028	-0.1474213101	-0.630232
C	 0.0270580954	 0.0052333978	-0.0386381759	-0.01724
C	-1.0569361711	-0.813519962	-0.0057845531	 0.320273
O	-2.3743532574	-0.540150822	 0.0842641413	-0.425812
O	-0.6735367173	-2.1319290843	 0.0324319422	-0.161468
C	 0.6760818771	-2.1484643353	 0.0157870343	-0.143029
C	 1.1777020618	-0.8754172571	-0.0208305262	 0.126121
C	 2.5287725253	-0.4673974087	-0.0318320824	 0.210135
C	 3.6659390592	-0.0683397607	-0.0323240321	-0.424423
H	 0.8967223377	 1.7918043096	 0.2656467176	 0.251496
H	-0.763447012	 1.8367371119	 0.2407536366	 0.249964
H	-2.8112003826	-0.7317190161	-0.7556724254	 0.308474
H	 1.1497337225	-3.1150216877	 0.0371535968	 0.146622
H	 4.674005021	 0.264393882	-0.0426077736	 0.189119
116.4536	124.7432	194.0883	230.3175	273.4441	281.5917	315.3069	418.6732	487.3195	515.5077	547.8206	586.1951	604.7896	666.0942	680.978	715.3236	729.2465	764.8638	783.8759	970.3786	1149.2859	1193.0321	1209.6008	1242.9383	1301.5534	1330.7751	1454.7237	1580.8475	1641.5312	1731.9182	2229.4895	3286.0358	3503.1979	3534.5998	3629.6183	3745.6876
NC1=C(O)OC=C1C#C	Nc1c(O)occ1C#C	
InChI=1S/C6H5NO2/c1-2-4-3-9-6(8)5(4)7/h1,3,8H,7H2	InChI=1S/C6H5NO2/c1-2-4-3-9-6(8)5(4)7/h1,3,8H,7H2
