16
gdb 78064	2.08403	1.69614	1.62558	3.2347	70.9	-0.2463	-0.0635	0.1828	964.4747	0.122147	-437.854728	-437.84632	-437.845376	-437.887814	30.434	
C	-0.1772956111	 1.3750459329	 0.5992751188	-0.428683
C	 0.3759851579	-0.0132621223	 0.3477356313	-0.042387
N	 0.6237988281	-0.5059295875	-1.0676444583	-0.15553
C	 1.8829687412	 0.0558042585	-1.6288196474	-0.092162
C	 2.498413961	 1.3899709216	-1.3441821747	 0.136106
O	 2.7587674073	 1.8164863294	-0.2460590633	-0.240124
C	 1.9581863726	-1.0726981412	-0.6500388883	-0.173408
C	 1.7610541883	-0.5603444076	 0.7707628038	 0.402005
O	 2.3128275992	-0.7562002399	 1.8091610358	-0.299313
H	 0.4804419146	 2.1698512929	 0.2541897427	 0.146576
H	-1.1521527762	 1.4784352706	 0.1117510788	 0.128948
H	-0.3252134268	 1.5061350034	 1.6757949467	 0.14177
H	-0.3341855465	-0.7481440028	 0.7527940886	 0.129027
H	 1.9664306143	-0.2309211586	-2.6752293866	 0.117709
H	 2.731367533	 1.979826456	-2.2564146752	 0.100523
H	 2.312280973	-2.0545301856	-0.9463106926	 0.128943
108.5546	123.9147	147.1036	184.2999	215.3946	265.5463	301.8718	459.531	481.0573	623.6052	669.728	685.2699	770.6163	789.0137	841.2758	881.9658	893.7791	1015.6032	1031.8796	1059.6201	1066.4878	1079.8632	1108.4785	1171.953	1232.1832	1246.4746	1287.6372	1364.4933	1396.5934	1407.3557	1424.3838	1489.83	1500.8345	1811.3726	1907.8853	2905.8445	3017.5703	3049.9426	3109.382	3134.813	3176.0213	3177.3256
CC1N2C(C=O)C2C1=O	C[C@H]1N2[C@@H](C=O)[C@H]2C1=O	
InChI=1S/C6H7NO2/c1-3-6(9)5-4(2-8)7(3)5/h2-5H,1H3	InChI=1S/C6H7NO2/c1-3-6(9)5-4(2-8)7(3)5/h2-5H,1H3/t3-,4+,5+,7?/m1/s1
