17
gdb 13872	4.18412	1.52681	1.21587	3.0884	65.54	-0.2545	0.0193	0.2738	1005.4352	0.142455	-401.020457	-401.012234	-401.01129	-401.053687	29.154	
C	 0.2692720115	 1.1636792709	-0.6220307439	-0.391686
C	-0.0272938907	 0.0246360324	 0.3611034151	 0.068195
O	 0.1875019126	 0.4466715375	 1.6882099239	-0.440854
C	-1.4343311076	-0.4858774624	 0.2064943425	 0.397578
N	-2.2949810818	-0.4776335235	 1.1406858268	-0.33784
C	-3.5257474482	-1.0600586377	 0.5867116934	-0.187098
C	-3.1633629717	-1.3938461123	-0.8857325667	-0.113723
O	-1.7792377383	-0.9800449779	-1.0053667788	-0.257061
H	 1.2955958683	 1.5070395468	-0.4717712328	 0.129474
H	 0.152849436	 0.8280903421	-1.6559263659	 0.125478
H	-0.4059999419	 2.0046978941	-0.4393681451	 0.12313
H	 0.6457802805	-0.8170567865	 0.1280210663	 0.096006
H	-0.6470249017	 0.3016919417	 2.1578962845	 0.293956
H	-3.8121047311	-1.9479519021	 1.159651267	 0.122339
H	-4.3490803322	-0.3426392458	 0.6631386159	 0.122113
H	-3.2208759065	-2.459432824	-1.1221786606	 0.125118
H	-3.749861997	-0.8345464134	-1.6192976716	 0.124876
59.0255	89.0454	153.6054	205.029	245.7644	302.0021	342.0239	421.3128	488.55	635.8831	735.4899	759.9904	830.5438	898.9394	931.3405	983.2089	995.8916	1018.0101	1070.6619	1101.6752	1124.2321	1156.0044	1214.6687	1237.8215	1246.9339	1301.3	1343.4008	1360.4735	1379.5668	1400.8369	1454.1238	1490.7911	1501.1134	1505.7275	1526.0638	1735.0203	2970.1664	3045.2895	3046.7323	3061.6755	3074.6843	3111.0305	3125.3046	3132.6954	3716.8053
CC(O)C1=NCCO1	C[C@@H](O)C1=NCCO1	
InChI=1S/C5H9NO2/c1-4(7)5-6-2-3-8-5/h4,7H,2-3H2,1H3	InChI=1S/C5H9NO2/c1-4(7)5-6-2-3-8-5/h4,7H,2-3H2,1H3/t4-/m1/s1
