18
gdb 75835	2.54493	1.61166	1.20195	3.2697	71.46	-0.2417	0.0231	0.2647	1058.2348	0.147706	-439.115036	-439.106628	-439.105684	-439.147632	32.745	
C	-0.2133660648	 1.5576180817	-0.0182813718	-0.402763
C	 0.0262565432	 0.0487226543	 0.0228121012	-0.189323
C	 0.8541138658	-0.4373221931	-1.1857150937	 0.398406
O	 0.7462712658	-0.0594395851	-2.3303300285	-0.375019
N	 1.7536067953	-1.3733449078	-0.7259156451	-0.311662
C	 1.8309456135	-1.4375200996	 0.7045997597	-0.062495
C	 2.2312136497	-0.1611040328	 1.4293776357	-0.364257
C	 0.7704977815	-0.5150695645	 1.227136278	 0.39315
O	 0.0258595446	-0.9327500567	 2.3301630836	-0.468643
H	 0.7204306327	 2.111975494	 0.1198333072	 0.118409
H	-0.629088248	 1.8369764092	-0.9895200035	 0.14589
H	-0.9130607465	 1.8680291714	 0.7639418712	 0.107251
H	-0.9402345772	-0.4705344041	-0.0245286629	 0.115737
H	 2.5154677226	-1.6531187266	-1.3257989286	 0.251199
H	 2.0052671314	-2.4071707034	 1.1547884302	 0.11724
H	 2.5984704674	-0.2736680384	 2.4437030093	 0.120956
H	 2.6875651883	 0.6355442113	 0.8504161896	 0.119606
H	-0.1876117753	-0.1549201498	 2.8572025983	 0.286319
92.6546	204.8867	208.8764	227.907	279.9595	302.3175	347.0458	451.6203	474.3479	502.7583	519.5674	581.7644	694.1927	710.1353	726.6199	813.909	882.1106	902.4423	931.724	982.7778	1031.744	1044.8226	1069.8581	1096.4077	1113.8494	1133.1495	1202.8172	1237.2469	1286.6639	1291.2294	1349.8513	1363.1194	1394.9494	1405.6396	1415.4917	1479.4928	1496.0038	1498.6944	1829.4584	3029.0065	3039.2869	3105.5863	3126.2554	3127.218	3189.2922	3224.0471	3617.8334	3798.6259
CC1C(=O)NC2CC12O	C[C@H]1C(=O)N[C@H]2C[C@@]12O	
InChI=1S/C6H9NO2/c1-3-5(8)7-4-2-6(3,4)9/h3-4,9H,2H2,1H3,(H,7,8)	InChI=1S/C6H9NO2/c1-3-5(8)7-4-2-6(3,4)9/h3-4,9H,2H2,1H3,(H,7,8)/t3-,4-,6+/m0/s1
