17
gdb 48973	3.43342	1.58384	1.23328	2.1856	79.58	-0.2177	-0.0482	0.1695	998.0607	0.135484	-384.596559	-384.589282	-384.588338	-384.628239	28.637	
O	-0.1815158346	 0.3186841561	-0.6419971214	-0.269826
C	 0.2202673377	 1.033913868	 0.2478553615	 0.066898
C	 1.3101537045	 2.0319227465	 0.1186684219	 0.213281
C	 1.6756180328	 2.9526700808	 1.3061282879	-0.340612
C	 2.7187935226	 3.8310362197	 0.6283939605	-0.101246
C	 2.6438055534	 3.6797189328	-0.7086064378	 0.037719
C	 3.5724697198	 2.6130411306	-1.3197498569	-0.275158
C	 2.3052461453	 1.710846267	-1.1092024364	-0.078455
C	 1.3933320151	 2.8813052484	-1.1218029373	-0.117111
H	-0.2355829656	 0.982529308	 1.2633145024	 0.072146
H	 0.7739524289	 3.4417750576	 1.7027887602	 0.11654
H	 2.1525276801	 2.4379811876	 2.149223095	 0.117426
H	 3.6597977293	 4.0353755398	 1.1312508181	 0.102298
H	 3.7650627823	 2.6833747002	-2.3962968441	 0.116208
H	 4.4975329371	 2.3944392153	-0.7803185065	 0.107743
H	 2.1283821922	 0.758214057	-1.5987178816	 0.124748
H	 0.5846925891	 3.1443132845	-1.7904882755	 0.107401
88.4897	196.3226	206.6263	284.3333	397.4854	410.2668	450.3514	554.5955	661.7535	696.622	756.9756	796.127	825.7609	859.6336	885.6747	917.4256	924.1047	993.3805	1003.245	1023.1555	1034.3973	1068.5214	1069.8478	1093.4232	1154.4967	1166.4588	1188.5445	1217.9618	1229.6385	1280.8923	1298.9086	1341.8601	1434.6784	1476.4074	1499.5377	1597.2309	1795.8251	2865.3499	2996.5984	3034.129	3050.7292	3103.4175	3165.4897	3169.3373	3204.7842
O=CC12CC=C3CC1C23	O=C[C@@]12C[CH][C]3C[C@@H]1[C@@H]23	
InChI=1S/C8H8O/c9-4-8-2-1-5-3-6(8)7(5)8/h1,4,6-7H,2-3H2	InChI=1S/C8H8O/c9-4-8-2-1-5-3-6(8)7(5)8/h1,4,6-7H,2-3H2/t6-,7+,8+/m1/s1
