19
gdb 58025	1.89828	1.53323	0.90503	2.9582	77.99	-0.2496	-0.033	0.2167	1298.4857	0.154897	-423.016994	-423.006548	-423.005604	-423.052932	37.804	
C	 0.0717929781	 1.6053022728	-0.222311701	-0.394754
C	 0.1410627294	 0.0845789329	-0.2391213331	 0.125326
O	 1.1458775388	-0.2996481676	 0.6748279965	-0.437429
C	-1.2184447235	-0.5732089678	 0.1547160153	-0.293931
C	-2.3262156593	-0.1383525579	-0.6883202685	 0.312682
C	-3.2175480643	 0.2118186195	-1.4157841486	-0.455406
C	-1.1265944349	-2.1203504596	 0.1873951317	 0.391132
C	-2.4167722414	-2.8860494486	 0.3673248783	-0.475346
O	-0.0587411751	-2.6864481946	 0.0963629389	-0.312995
H	 1.0506418065	 2.0126111557	-0.4874860613	 0.126474
H	-0.6725352696	 1.9776220722	-0.9289718192	 0.127335
H	-0.1824762158	 1.9626253985	 0.7810651435	 0.118983
H	 0.3845238543	-0.2590582004	-1.2567335616	 0.080492
H	 1.228852927	-1.2588162232	 0.5837207564	 0.294764
H	-1.4236571466	-0.2760248908	 1.1961000802	 0.135218
H	-4.008613977	 0.5334166573	-2.0474288918	 0.202712
H	-3.0094515585	-2.4605207128	 1.1836766495	 0.14456
H	-3.0240831594	-2.7979501463	-0.5386631793	 0.165561
H	-2.1948767287	-3.9352374492	 0.5640579339	 0.144623
34.5023	87.5659	120.7265	156.4462	185.9014	208.0923	235.9355	333.4243	341.3687	407.8163	433.5378	485.9984	518.9666	540.5645	608.1288	627.4275	632.9959	653.3361	785.9569	884.2463	943.788	976.5312	1003.2565	1043.7122	1075.2754	1115.5468	1156.2954	1192.3122	1241.6199	1266.9224	1312.5259	1372.5526	1385.0704	1399.319	1447.2577	1458.3351	1471.0102	1486.057	1497.8238	1794.5036	2228.7918	2976.26	2991.4353	3046.5709	3048.9779	3113.6871	3117.8993	3140.2111	3158.5494	3501.2489	3745.5908
CC(O)C(C#C)C(C)=O	C[C@@H](O)[C@@H](C#C)C(=O)C	
InChI=1S/C7H10O2/c1-4-7(5(2)8)6(3)9/h1,5,7-8H,2-3H3	InChI=1S/C7H10O2/c1-4-7(5(2)8)6(3)9/h1,5,7-8H,2-3H3/t5-,7-/m1/s1
