17
gdb 16464	3.21488	2.75101	1.82011	0.1866	67.34	-0.2361	0.0783	0.3145	758.6434	0.144143	-363.797689	-363.791408	-363.790464	-363.827648	25.675	
C	 0.0071569204	 1.5123110838	-0.0112475701	-0.507364
C	 0.0377727628	 0.0048897851	-0.0167231294	 0.336348
C	 0.4655571295	-0.7386935248	-1.2776774092	-0.143173
O	 0.3584154812	-2.1166636218	-0.8706661435	-0.27845
C	-0.0802442095	-1.992744851	 0.4595701657	 0.126568
C	 0.6267365466	-0.8123924309	 1.1884002097	-0.116189
N	-0.6102880188	-0.4932209198	 1.9882325465	-0.33971
C	-1.1217257319	-0.8458261454	 0.6149405176	-0.11619
H	 0.9989920135	 1.9277185335	-0.2223864001	 0.116205
H	-0.6806880298	 1.8956074421	-0.7733714134	 0.116204
H	-0.3203015442	 1.8745458357	 0.9659073533	 0.147881
H	-0.1955144879	-0.5484452208	-2.1327584975	 0.103984
H	 1.4975111406	-0.516072809	-1.5774849515	 0.103984
H	-0.2183783341	-2.9630162168	 0.9373048424	 0.086589
H	 1.6318365137	-0.7573180739	 1.6103072263	 0.077356
H	-0.8072653418	-1.2645928235	 2.6337811808	 0.208601
H	-2.1826831903	-0.8302587925	 0.3592227725	 0.077356
227.0228	247.4262	281.841	342.9828	423.247	473.4223	647.3695	689.8349	723.6359	742.6499	823.4489	883.7309	899.3727	935.536	943.7206	981.1862	1002.7762	1034.2542	1064.7751	1089.6245	1134.7873	1141.3709	1146.0706	1165.7128	1219.1499	1231.3269	1250.3903	1253.9405	1288.9944	1308.3054	1327.7619	1402.3479	1407.6052	1491.8512	1499.5716	1517.9926	3015.2082	3031.3276	3053.359	3087.8068	3097.9312	3101.252	3127.3273	3130.778	3381.5928
CC12COC3C1NC23	C[C@@]12CO[C@H]3[C@@H]1N[C@@H]23	
InChI=1S/C6H9NO/c1-6-2-8-3-4(6)7-5(3)6/h3-5,7H,2H2,1H3	InChI=1S/C6H9NO/c1-6-2-8-3-4(6)7-5(3)6/h3-5,7H,2H2,1H3/t3-,4-,5+,6+
