15
gdb 10154	3.04813	1.28253	0.95282	4.032	63.32	-0.2816	-0.0587	0.2229	1188.611	0.115433	-399.802412	-399.793237	-399.792293	-399.837863	30.074	
C	 0.0668295172	 1.544212899	-0.0076475044	-0.388565
C	 0.1825386546	 0.0348080843	 0.0879301625	-0.054146
O	 0.4604953953	-0.4706167765	-1.2202268935	-0.24445
C	 0.5576856277	-1.8635260538	-1.3022602322	-0.086286
C	 0.6375790892	-2.2067048585	-2.807883208	 0.149393
O	 0.3678628131	-3.2830064479	-3.2535484761	-0.217
C	 1.7513809559	-2.393433411	-0.6089129742	 0.267724
N	 2.6955560945	-2.7833088666	-0.0685534831	-0.311739
H	 1.0011213896	 1.9785670761	-0.3731493303	 0.137866
H	-0.738418535	 1.8285596629	-0.690453207	 0.132793
H	-0.1486341128	 1.9648096536	 0.9786292515	 0.128214
H	 0.988732549	-0.256735008	 0.7754203103	 0.123918
H	-0.7525611778	-0.4120897591	 0.4593128169	 0.102558
H	-0.3279540569	-2.3730298919	-0.890726297	 0.139829
H	 0.9575933263	-1.3407312526	-3.4220777454	 0.119889
33.9473	73.4602	89.3364	141.6044	167.0078	237.6849	259.9836	345.2199	385.1239	477.3722	533.6758	651.9351	824.1111	844.8594	895.3966	1024.8754	1046.6616	1058.1029	1146.5487	1149.6331	1187.2298	1264.4953	1303.5653	1326.6843	1384.7234	1404.7337	1436.9368	1483.9938	1499.448	1525.6217	1857.2208	2350.7739	2939.5235	2987.6557	2992.3771	3032.8101	3050.0206	3126.0791	3128.9529
CCOC(C=O)C#N	CCO[C@@H](C=O)C#N	
InChI=1S/C5H7NO2/c1-2-8-5(3-6)4-7/h4-5H,2H2,1H3	InChI=1S/C5H7NO2/c1-2-8-5(3-6)4-7/h4-5H,2H2,1H3/t5-/m1/s1
