18
gdb 110280	3.078	1.21249	1.0718	2.72	72.83	-0.2383	-0.0319	0.2064	1177.7673	0.146783	-439.042759	-439.034105	-439.03316	-439.076156	32.186	
C	-0.0984981526	 1.5444447695	 0.0210202129	-0.322575
N	 0.1241843111	 0.1022435308	-0.0417909642	-0.078754
C	 0.6274313592	-0.5827719432	-1.1918346858	-0.05407
C	 1.4416633782	-0.4991416866	 0.1146547237	-0.175567
C	 2.4984378367	 0.2343608434	-0.6728007868	 0.412881
O	 3.6671447132	 0.4572276091	-0.4835403431	-0.34105
C	 1.6679764229	 0.2414151763	-1.9796643333	-0.177404
C	 2.4634247215	-0.484788769	-3.0732074361	-0.078151
O	 3.5916572128	 0.2680938568	-3.4594650395	-0.422308
H	 0.652648777	 2.1612712576	-0.4877892539	 0.122854
H	-1.0778957287	 1.7589324299	-0.4165304925	 0.134233
H	-0.1247651459	 1.8363473183	 1.074120922	 0.138137
H	 0.1020186744	-1.4582062521	-1.5581541821	 0.117249
H	 1.6031393798	-1.2185186647	 0.9100363851	 0.116578
H	 1.3286197399	 1.2087081918	-2.3581867277	 0.106051
H	 2.7420459501	-1.4923971826	-2.7208337816	 0.090695
H	 1.8440152253	-0.6135954595	-3.9672590948	 0.112888
H	 4.1027103051	 0.4342370841	-2.6553415222	 0.298312
98.409	128.7629	155.3389	156.2175	217.0882	308.8296	362.1197	407.8278	454.2576	515.2893	550.1658	656.5924	723.6729	767.4099	811.0262	899.6451	913.6462	961.2916	974.4879	1026.4642	1058.9399	1083.6735	1085.4441	1118.9004	1157.9455	1173.6895	1179.3207	1219.543	1237.7857	1262.7622	1320.5157	1359.6269	1388.4766	1448.3127	1454.2738	1494.262	1498.0652	1512.9787	1842.565	2962.2924	3019.0724	3064.338	3083.9496	3091.6261	3120.5495	3172.2313	3181.946	3748.5614
CN1C2C1C(=O)C2CO	CN1[C@@H]2[C@H]1C(=O)[C@H]2CO	
InChI=1S/C6H9NO2/c1-7-4-3(2-8)6(9)5(4)7/h3-5,8H,2H2,1H3	InChI=1S/C6H9NO2/c1-7-4-3(2-8)6(9)5(4)7/h3-5,8H,2H2,1H3/t3-,4-,5-,7?/m0/s1
