21
gdb 62641	2.8648	1.59286	1.19473	1.8662	82.27	-0.2238	0.081	0.3048	1108.4197	0.179982	-387.010994	-387.002121	-387.001177	-387.04377	35.015	
C	-0.0763783636	 1.6488939545	 0.0915217785	-0.447503
C	-0.1655398457	 0.1225774212	 0.1448807261	 0.298367
C	-1.5923569788	-0.3325421816	-0.15338588	-0.46057
C	 1.0017592266	-0.6424031967	-0.541734668	-0.181297
C	 1.969353421	-0.3533721811	 0.6465020176	 0.078852
O	 2.3965341302	-1.7298612855	 0.8085337064	-0.366367
C	 0.9668678106	-1.8276597792	 0.4927507254	 0.464254
C	 0.4007736744	-3.2124125945	 0.4327402818	-0.530477
C	 0.5819968807	-0.5522821619	 1.330256263	-0.181313
H	 0.9335046116	 2.014048693	 0.2995697914	 0.113022
H	-0.3680819241	 2.0221634192	-0.8970250179	 0.114075
H	-0.7525211434	 2.1046926833	 0.8241387175	 0.114089
H	-1.9075426818	 0.0084060142	-1.1465623109	 0.114722
H	-1.706629725	-1.4180132455	-0.1254837518	 0.115038
H	-2.2942773928	 0.0933210059	 0.5731886401	 0.114705
H	 1.2687063727	-0.7079186163	-1.598454899	 0.070984
H	 2.7067967362	 0.4369613338	 0.7738120769	 0.09378
H	 0.538830253	-3.7116670125	 1.3970619609	 0.135918
H	-0.6647755323	-3.209440711	 0.1940136147	 0.132827
H	 0.9258104419	-3.7951506947	-0.3307749896	 0.135909
H	 0.3719101088	-0.5152832445	 2.4010968869	 0.070984
131.793	168.7817	182.1267	213.4641	226.2132	313.5076	333.019	335.3459	357.6474	525.2522	564.9311	605.0108	661.5842	754.7227	779.9041	808.2259	812.5919	872.0377	885.6251	948.648	956.7212	969.3938	983.7038	1029.3974	1068.5735	1094.4155	1114.4176	1131.9523	1155.6797	1156.9827	1181.8391	1221.3598	1230.6419	1280.8789	1322.3055	1369.277	1404.7019	1414.2133	1426.4153	1469.8046	1481.1744	1484.812	1494.3213	1503.2131	1509.5266	3024.5989	3029.9459	3043.1438	3080.2542	3086.1567	3096.1837	3098.7363	3105.5163	3108.7313	3121.6982	3135.7095	3136.3506
CC1(C)C2C3OC2(C)C13	CC1(C)[C@H]2[C@@H]3O[C@@]2(C)[C@H]13	
InChI=1S/C8H12O/c1-7(2)5-4-6(7)8(5,3)9-4/h4-6H,1-3H3	InChI=1S/C8H12O/c1-7(2)5-4-6(7)8(5,3)9-4/h4-6H,1-3H3/t4-,5+,6-,8+
