17
gdb 77104	2.95534	1.20987	0.98413	5.3339	74.1	-0.2535	0.0023	0.2558	1210.6477	0.135555	-417.972847	-417.964215	-417.963271	-418.00649	32.166	
N	 0.2932582043	 1.2010706282	-0.1933124073	-0.506436
C	 0.0172832739	-0.2045400864	-0.0753989921	-0.146426
C	-0.0265908123	-0.7722724875	 1.3793934626	 0.006614
O	-1.3034622858	-1.3975319234	 1.1423282323	-0.308496
C	-1.4113268806	-0.7727613615	-0.1432536046	 0.455223
C	-2.665058594	-0.0935964483	-0.5878332183	-0.342324
C	-2.1871738916	-1.3790089527	-1.2555160155	-0.336614
C	 1.0127673571	-1.7252922966	 1.7612071026	 0.271946
N	 1.8501812158	-2.4698627666	 2.0437524294	-0.319723
H	 0.4778521708	 1.4657849977	-1.1536750557	 0.242773
H	-0.4856425086	 1.7608924558	 0.139108987	 0.237476
H	 0.7184894928	-0.7601585317	-0.701502839	 0.11894
H	-0.0919580671	 0.0204209582	 2.1348804433	 0.125321
H	-3.5265804247	-0.16144099	 0.0674132741	 0.133855
H	-2.5806971862	 0.8388551148	-1.1383785678	 0.111341
H	-1.781233666	-1.3257077951	-2.2609327652	 0.119942
H	-2.7368181978	-2.2878792649	-1.0355294557	 0.136588
48.9146	144.3745	191.2474	199.595	245.5603	263.5344	369.1534	388.2853	471.4335	514.6668	556.5794	631.7555	743.4916	760.4607	825.1464	862.1862	899.0723	932.9645	965.5191	985.3686	1010.3808	1045.4134	1053.6408	1072.5326	1161.748	1173.7737	1187.0743	1224.4552	1236.5891	1276.255	1343.6836	1383.7145	1439.1513	1447.9284	1498.6187	1663.7612	2357.8137	3035.4058	3096.0125	3124.1629	3128.8291	3210.361	3223.9274	3509.118	3598.0417
NC1C(OC11CC1)C#N	N[C@H]1[C@@H](OC21CC2)C#N	
InChI=1S/C6H8N2O/c7-3-4-5(8)6(9-4)1-2-6/h4-5H,1-2,8H2	InChI=1S/C6H8N2O/c7-3-4-5(8)6(9-4)1-2-6/h4-5H,1-2,8H2/t4-,5-/m0/s1
