15
gdb 84186	3.5247	1.16368	0.91703	2.5798	75.78	-0.2564	-0.0679	0.1884	1216.7051	0.113441	-413.024801	-413.016483	-413.015539	-413.057971	30.206	
C	-0.063493251	 1.5598202673	 0.013937606	-0.38251
C	 0.0442515199	 0.0337167325	 0.0032127473	-0.052469
N	 0.8140573472	-0.4558877882	-1.1562392624	-0.289675
C	 1.7596817003	-1.1660624	-0.6706163923	 0.288412
N	 1.793870528	-1.2860961392	 0.7139345391	-0.395841
C	 0.7454945441	-0.526490198	 1.2455248271	 0.388763
N	 0.4113602492	-0.3120806397	 2.4481276655	-0.545039
C	 2.7580422141	-1.8348448341	-1.4571425684	 0.260918
N	 3.5820671213	-2.3882308909	-2.0485961296	-0.308975
H	 0.9299914064	 2.0166999856	 0.0275590847	 0.126728
H	-0.5928602235	 1.9065982298	-0.8761540558	 0.13571
H	-0.6038146019	 1.8753173252	 0.9094490573	 0.148952
H	-0.9637899892	-0.3946973805	-0.0604945877	 0.134977
H	 2.5088695884	-1.7606576778	 1.2407018584	 0.273618
H	 1.0211298365	-0.7835950122	 3.1171611707	 0.216432
91.3409	110.9353	151.1651	231.1873	244.6519	307.0092	380.8371	431.6963	492.4841	539.5177	594.1009	639.2762	701.6482	728.7769	810.2727	857.6032	919.2429	989.1847	1043.939	1085.3849	1116.9653	1120.4005	1210.501	1271.64	1295.0955	1324.0749	1400.2937	1439.5479	1487.3841	1495.55	1660.7464	1769.2005	2366.6769	3037.3337	3052.3577	3129.4039	3143.352	3468.4939	3655.4798
CC1N=C(NC1=N)C#N	C[C@H]1N=C(N[C]1[NH])C#N	
InChI=1S/C5H6N4/c1-3-5(7)9-4(2-6)8-3/h3H,1H3,(H2,7,8,9)	InChI=1S/C5H6N4/c1-3-5(7)9-4(2-6)8-3/h3H,1H3,(H2,7,8,9)/t3-/m1/s1
