16
gdb 29398	4.59624	0.94363	0.78671	2.2515	75.85	-0.2108	0.0064	0.2172	1405.8824	0.124836	-434.110446	-434.101793	-434.100849	-434.14467	30.72	
C	 0.0029419882	 1.5000459806	 0.0034578467	-0.485086
C	-0.0075779577	 0.0081000755	-0.0297565903	 0.285941
C	-0.0607081874	-0.8242031723	-1.1115454955	-0.186824
N	-0.0457214778	-2.115526279	-0.5948463166	-0.337173
C	 0.0148334016	-1.9801779699	 0.7504454523	 0.496773
O	 0.0408898686	-3.1076482003	 1.4990101901	-0.228688
C	 0.1069284793	-2.965390419	 2.8596583097	 0.111009
N	 0.130164041	-4.0107062676	 3.559058034	-0.432359
N	 0.0398157246	-0.7380737497	 1.1440375644	-0.406616
H	 0.9086683604	 1.8780407781	 0.4901628401	 0.133225
H	-0.0394068966	 1.9131846878	-1.0078371857	 0.11935
H	-0.8514648722	 1.8886971006	 0.5682762649	 0.133261
H	-0.1066125126	-0.6378972091	-2.1709520794	 0.131691
H	-0.0730064225	-2.9852921287	-1.0990997084	 0.274687
H	 0.1317726341	-1.9205235393	 3.1721136704	 0.152589
H	 0.1796686391	-3.7611815377	 4.5451976733	 0.23822
52.2509	93.5459	132.2384	149.4201	218.4754	327.2463	336.9195	449.3633	487.0177	514.0007	652.2346	662.1025	693.9694	731.2694	827.9046	837.8691	984.6832	1010.0931	1032.6452	1063.0857	1065.6915	1080.3545	1108.3269	1247.433	1272.1633	1295.4266	1373.2452	1393.8955	1417.8786	1474.9046	1489.1648	1520.3707	1592.4704	1618.844	1748.4294	3033.4474	3086.6931	3117.5223	3132.2866	3281.1758	3516.2231	3674.4071
CC1=CNC(OC=N)=N1	Cc1c[nH]c(O[CH][NH])n1	
InChI=1S/C5H7N3O/c1-4-2-7-5(8-4)9-3-6/h2-3,6H,1H3,(H,7,8)	InChI=1S/C5H7N3O/c1-4-2-7-5(8-4)9-3-6/h2-3,6H,1H3,(H,7,8)
