19
gdb 98452	3.01935	1.22544	1.03513	1.9619	72.28	-0.254	0.0061	0.2601	1223.9871	0.157587	-460.18399	-460.174421	-460.173477	-460.218999	34.549	
C	-0.0863304585	 1.359821499	-0.2072365021	-0.243989
O	 0.0419767431	-0.0634398337	-0.0824375802	-0.259362
C	 0.592440744	-0.6972752948	-1.1431702441	 0.406326
O	 0.956827051	-0.1258598181	-2.1393211371	-0.364201
C	 0.626057949	-2.203766955	-0.9271942531	 0.288037
O	 0.5558627539	-2.5637416531	 0.4264387951	-0.480425
C	-0.3793429074	-2.9073265278	-1.912993224	-0.269405
C	 0.8076754255	-3.1989216767	-2.8674213823	-0.209408
C	 1.7842679123	-2.8848476673	-1.7034051823	-0.249382
H	 0.8954786899	 1.8204269609	-0.3387029142	 0.14754
H	-0.7125792263	 1.6122770654	-1.0660976133	 0.145745
H	-0.5485248201	 1.6997795902	 0.719267971	 0.136964
H	 0.0618243925	-1.87775406	 0.8895101073	 0.287259
H	-0.75757198	-3.807885548	-1.4234132084	 0.11377
H	-1.2186361496	-2.3214453042	-2.2952536338	 0.100851
H	 0.8568231135	-4.1992873677	-3.3009638322	 0.098617
H	 0.8810244504	-2.4574048759	-3.6640791951	 0.124835
H	 2.6573282112	-2.2688485096	-1.9231009656	 0.111805
H	 2.0903540157	-3.7799952335	-1.1574049356	 0.114421
37.1689	111.1064	132.5266	142.3505	216.1704	251.3903	296.3086	318.3912	360.6426	394.1363	454.9934	570.2298	659.7908	750.3344	789.0787	797.6377	845.7156	899.6423	940.4248	979.3135	1003.5378	1038.0761	1049.3261	1119.4088	1179.9819	1197.5444	1207.1487	1212.0965	1222.6281	1247.9175	1268.2268	1279.181	1315.2703	1399.1954	1464.3207	1472.159	1478.5545	1481.1662	1496.9209	1499.6131	1819.9705	3056.3589	3062.5697	3075.3168	3081.2944	3118.1172	3132.0061	3133.9507	3145.7268	3163.5621	3804.17
COC(=O)C1(O)CCC1	COC(=O)C1(O)CCC1	
InChI=1S/C6H10O3/c1-9-5(7)6(8)3-2-4-6/h8H,2-4H2,1H3	InChI=1S/C6H10O3/c1-9-5(7)6(8)3-2-4-6/h8H,2-4H2,1H3
