21
gdb 115490	2.73769	0.99298	0.75984	1.9808	82.84	-0.232	0.0274	0.2594	1526.5892	0.181587	-424.222719	-424.212845	-424.211901	-424.258141	35.403	
C	 0.0617616837	 1.3728370381	 0.100998282	-0.235767
O	-0.0092656069	-0.0066513424	-0.166709762	-0.243669
C	-1.3115459618	-0.5596273096	-0.0149150028	 0.108581
C	-1.3212751351	-1.97216604	-0.6374311358	-0.245686
C	-2.1743670502	-2.846741383	 0.3101869098	-0.314528
C	-2.1974117855	-2.0443640047	 1.5940465648	 0.311788
C	-2.7273699597	-2.6332725146	 2.8602453639	-0.174872
O	-2.6872218996	-1.6710144451	 3.8976866818	-0.413192
C	-1.7346699823	-0.8074063032	 1.4162999291	-0.1904
H	 1.0855405236	 1.6921300398	-0.1113290127	 0.122831
H	-0.6277272611	 1.9484089818	-0.5380064099	 0.099378
H	-0.1666273424	 1.6124203541	 1.1504904758	 0.10633
H	-2.0294505464	 0.1131147627	-0.5184508184	 0.060241
H	-1.6797057958	-1.9782934938	-1.6691711314	 0.097107
H	-0.2841431482	-2.318941042	-0.6436900373	 0.120993
H	-3.194111154	-2.9862813779	-0.0753482509	 0.104946
H	-1.7610299361	-3.8538884453	 0.4466648265	 0.100011
H	-3.756581416	-2.9970774572	 2.6873344038	 0.09362
H	-2.1286622482	-3.5265651365	 3.1152114659	 0.096126
H	-3.0063826707	-2.0862394486	 4.7036041041	 0.28941
H	-1.6956719072	-0.0521327926	 2.1902710538	 0.10675
71.1252	86.7466	106.5958	144.2408	178.5402	208.5514	234.5027	280.3224	402.8591	411.3397	447.0325	509.1494	631.6272	660.8786	840.064	862.7044	894.808	918.5225	969.2119	987.4598	1014.9914	1053.7886	1073.4203	1094.9009	1136.4215	1165.2135	1177.5212	1184.5513	1216.3011	1229.5698	1245.7666	1259.0433	1285.9828	1302.9031	1325.0495	1350.6899	1385.6541	1466.9688	1478.3293	1482.5902	1489.5351	1498.6474	1506.467	1510.6663	1725.9334	2928.2028	2935.8641	2947.6719	2969.5748	3008.7213	3016.9938	3039.8772	3068.4642	3106.7031	3115.1962	3223.4855	3839.332
COC1CCC(CO)=C1	CO[C@H]1CCC(=C1)CO	
InChI=1S/C7H12O2/c1-9-7-3-2-6(4-7)5-8/h4,7-8H,2-3,5H2,1H3	InChI=1S/C7H12O2/c1-9-7-3-2-6(4-7)5-8/h4,7-8H,2-3,5H2,1H3/t7-/m0/s1
