16
gdb 92800	4.59222	0.86531	0.80543	4.6224	68.02	-0.2633	-0.0246	0.2387	1393.5174	0.123548	-475.057219	-475.048618	-475.047674	-475.091886	30.3	
O	-0.6687206206	 1.2447258249	 0.6474439039	-0.434218
C	-0.0499965535	 0.1176805598	 0.0438438261	 0.105598
C	 0.7822171127	-0.7105559581	 1.0655923477	-0.178378
N	-0.0840484533	-1.7843363192	 1.5656273293	-0.291608
C	-1.1045271818	-1.8260257841	 0.8160251238	 0.443565
C	-1.1801442058	-0.8532447846	-0.3309488451	-0.33113
O	-2.1337137639	-2.7125443318	 0.9378866694	-0.236362
C	-2.1998609876	-3.5065153295	 2.0628349063	 0.166381
O	-3.0461364256	-4.3358843169	 2.1660502374	-0.251182
H	 0.0229824476	 1.8315748273	 0.9697886474	 0.285909
H	 0.5490124385	 0.4208394714	-0.8246235102	 0.074365
H	 1.6728039255	-1.1556501556	 0.6038035215	 0.113665
H	 1.1260185298	-0.0843826191	 1.8966835448	 0.108297
H	-2.1444459358	-0.3450659487	-0.4000154675	 0.148743
H	-1.0002799679	-1.371330977	-1.2791769911	 0.13358
H	-1.4161480383	-3.2642942091	 2.7913781365	 0.142776
33.9267	78.1087	121.5517	184.8504	261.3452	298.326	363.5638	405.8036	465.4069	519.639	542.0815	781.3626	785.2674	836.6752	901.0052	930.3801	970.524	1020.3612	1051.8015	1057.8634	1083.6237	1088.7223	1182.463	1206.6122	1237.2385	1262.7611	1318.1728	1338.6307	1354.4915	1395.9049	1418.5978	1459.6062	1483.2312	1726.8928	1876.7009	3012.7851	3029.9778	3060.4901	3066.8216	3081.3831	3119.5877	3816.5569
OC1CN=C(C1)OC=O	O[C@H]1C[N][C](C1)OC=O	
InChI=1S/C5H7NO3/c7-3-9-5-1-4(8)2-6-5/h3-4,8H,1-2H2	InChI=1S/C5H7NO3/c7-3-9-5-1-4(8)2-6-5/h3-4,8H,1-2H2/t4-/m1/s1
