21
gdb 60360	3.4764	0.67505	0.58675	4.0139	80.35	-0.2683	0.0297	0.298	1874.2358	0.181144	-420.418995	-420.40809	-420.407146	-420.455883	38.882	
C	 0.0274468693	 1.5733484273	 0.104612842	-0.404831
C	 0.0082024275	 0.0466221225	 0.037143354	 0.12861
O	 0.7456026105	-0.5289783122	 1.1151145037	-0.427655
C	-1.4186830006	-0.5134555017	-0.0309338438	-0.194899
C	-1.4461629572	-2.0392336302	-0.1484366136	-0.169314
C	-2.8760431059	-2.6099705608	-0.1758160152	-0.141876
N	-3.612232201	-2.1245234712	-1.3472711484	-0.493468
C	-2.8412174894	-4.0877011972	-0.0934939355	 0.255694
N	-2.8352777122	-5.243955638	-0.0703213347	-0.323343
H	 1.0563101144	 1.937433018	 0.1681082644	 0.126134
H	-0.4460806823	 2.0159051133	-0.7775156731	 0.119293
H	-0.5179073742	 1.9301609533	 0.9877669235	 0.106725
H	 0.5537817862	-0.2756553241	-0.8593991409	 0.089724
H	 0.372493584	-0.1903444923	 1.9369913964	 0.276313
H	-1.9613551177	-0.2042398965	 0.8756240358	 0.08216
H	-1.9519097777	-0.0654344017	-0.8752934852	 0.11883
H	-0.9265182124	-2.3568887238	-1.0621720138	 0.10705
H	-0.8962095571	-2.4816552172	 0.6865730156	 0.131631
H	-3.4093512893	-2.2529862905	 0.7143079591	 0.128353
H	-3.1948402371	-2.5059656009	-2.1924067289	 0.240373
H	-4.5698095678	-2.4623351862	-1.3242358315	 0.244497
37.8691	65.5758	100.1747	148.6154	188.8126	232.4677	240.0969	269.1895	290.5855	296.1145	358.3647	425.0968	469.5974	481.3722	586.0411	588.1113	771.8717	836.0421	855.8136	927.2233	939.1513	957.0262	983.6678	1049.0773	1054.6565	1095.0517	1125.9127	1141.4061	1172.2684	1257.5046	1262.9889	1309.6697	1323.271	1341.8487	1373.3766	1393.8628	1396.2413	1406.0948	1420.8439	1477.4414	1490.9529	1495.1887	1498.8273	1662.6889	2343.5219	2995.7862	3022.2779	3025.2684	3032.7383	3041.6688	3080.4368	3094.8434	3104.7781	3120.4687	3490.0177	3569.8048	3793.2732
CC(O)CCC(N)C#N	C[C@@H](O)CC[C@@H](N)C#N	
InChI=1S/C6H12N2O/c1-5(9)2-3-6(8)4-7/h5-6,9H,2-3,8H2,1H3	InChI=1S/C6H12N2O/c1-5(9)2-3-6(8)4-7/h5-6,9H,2-3,8H2,1H3/t5-,6-/m1/s1
