19
gdb 109407	2.28788	1.41571	1.04834	3.8337	76.61	-0.2329	-0.0096	0.2233	1206.9962	0.157241	-423.015927	-423.006643	-423.005699	-423.050062	34.385	
C	 0.0131405506	 1.5864616487	-0.1224121251	-0.382005
C	 0.0491113081	 0.0761035495	 0.1419015927	-0.21502
C	-1.3336633739	-0.5600434095	 0.0164021658	-0.15883
C	-2.0423679568	-0.6718257299	-1.3635840429	 0.432173
O	-2.3943263407	 0.1563619475	-2.1597332433	-0.329814
C	-2.2587120309	-2.1436046637	-1.2353739587	-0.272076
C	-0.9074185532	-2.8252130287	-0.9514705198	-0.357436
C	-1.5323808037	-2.0753047363	 0.157932921	 0.406857
O	-1.8864762773	-2.595012222	 1.3806529502	-0.455256
H	 1.0166432278	 2.019291403	-0.070822719	 0.109464
H	-0.4058044069	 1.7985862289	-1.1099530291	 0.146049
H	-0.610986077	 2.0988433197	 0.6178967851	 0.115444
H	 0.7433011272	-0.4024937027	-0.5596985775	 0.095194
H	 0.442448462	-0.1210465354	 1.1471546228	 0.105009
H	-2.0425356362	-0.0571235225	 0.6884472829	 0.110255
H	-3.1010026482	-2.720062258	-1.5979422519	 0.111646
H	-1.0016089721	-3.9077468404	-0.8906371545	 0.116978
H	 0.0033728674	-2.4984720559	-1.446515983	 0.128556
H	-1.6704627859	-3.5323754122	 1.4038984144	 0.292811
81.9991	104.694	144.729	169.104	204.766	261.2008	284.5663	338.3962	407.2902	488.3281	519.6813	579.0531	658.5811	738.2952	749.8991	777.5651	844.229	905.4791	939.0815	958.0584	985.5015	1018.8774	1067.8597	1089.9497	1105.0202	1120.9322	1130.0824	1176.7394	1187.9013	1236.1174	1279.525	1330.4118	1366.5508	1394.8777	1413.3914	1420.233	1488.7522	1498.0853	1505.4846	1510.7049	1868.2881	3021.2815	3027.0993	3036.9579	3056.8639	3101.7143	3103.3752	3121.9039	3178.9604	3195.7198	3826.8081
CCC1C(=O)C2CC12O	CC[C@H]1C(=O)[C@H]2C[C@@]12O	
InChI=1S/C7H10O2/c1-2-4-6(8)5-3-7(4,5)9/h4-5,9H,2-3H2,1H3	InChI=1S/C7H10O2/c1-2-4-6(8)5-3-7(4,5)9/h4-5,9H,2-3H2,1H3/t4-,5+,7+/m0/s1
