20
gdb 117511	2.31926	1.00346	0.73579	2.0738	80.43	-0.2668	-0.0348	0.2319	1574.4269	0.16779	-403.193976	-403.183192	-403.182248	-403.231342	37.126	
C	-0.1998263969	 1.633348868	-0.0862240052	-0.382546
C	-0.047855322	 0.1104717475	-0.0445726138	-0.190887
C	 0.6185611482	-0.4424318118	-1.3075023269	-0.166615
C	 0.7886822619	-1.9748610244	-1.2955272507	-0.26982
C	-0.4968851759	-2.6730626489	-1.281881237	 0.280619
N	-1.517710269	-3.2161625382	-1.2887373722	-0.333571
C	 1.7080424367	-2.4812613137	-2.4480183599	 0.386148
C	 1.6595421778	-3.9565507356	-2.7710589145	-0.486068
O	 2.4431202384	-1.7089225232	-3.0079896682	-0.279091
H	 0.7726838997	 2.1271530451	-0.187853903	 0.118549
H	-0.8199082846	 1.9452795752	-0.9335409487	 0.121236
H	-0.6714280052	 2.0078182758	 0.8270282451	 0.11828
H	 0.5461486226	-0.1760814412	 0.8337999358	 0.096797
H	-1.032527866	-0.3542902519	 0.0865124387	 0.121255
H	 0.0403237554	-0.1605577587	-2.194751484	 0.118393
H	 1.6152085299	-0.0131545665	-1.4407264766	 0.129223
H	 1.3153605691	-2.2663345704	-0.37253349	 0.148605
H	 1.7359971038	-4.5596461644	-1.8600086303	 0.147025
H	 0.6951393529	-4.2036537119	-3.2276285085	 0.173446
H	 2.4672978833	-4.2058678508	-3.4593183002	 0.14902
28.8184	73.5732	84.8691	128.7515	133.1254	156.8472	237.5377	245.4004	306.8497	315.0478	413.8326	468.4017	522.5845	582.4344	618.5554	744.8674	780.2454	850.2099	897.076	952.6345	962.0106	1021.4096	1048.1623	1081.0596	1126.8205	1138.6767	1191.4986	1239.1079	1250.8734	1315.1758	1324.4149	1341.7026	1387.2489	1395.1661	1414.5272	1457.5889	1472.0065	1484.1234	1494.2359	1499.5011	1511.0183	1826.9549	2350.515	2993.1913	3016.8773	3033.4085	3044.3034	3051.263	3055.622	3098.2018	3106.1865	3108.3395	3109.0978	3159.2391
CCCC(C#N)C(C)=O	CCC[C@@H](C#N)C(=O)C	
InChI=1S/C7H11NO/c1-3-4-7(5-8)6(2)9/h7H,3-4H2,1-2H3	InChI=1S/C7H11NO/c1-3-4-7(5-8)6(2)9/h7H,3-4H2,1-2H3/t7-/m0/s1
