17
gdb 104972	2.53592	1.38717	1.03543	1.5547	69.7	-0.2534	-0.095	0.1583	1173.1375	0.13231	-458.957477	-458.947979	-458.947035	-458.99243	33.262	
C	-0.0779450662	 1.2911762645	 0.6849252194	-0.389354
C	 0.377843978	-0.11104982	 0.2614947554	-0.258099
C	 0.7087655883	-0.2037730753	-1.2144038646	 0.2784
C	 0.2206627386	-1.3410745182	-2.0362717399	-0.223124
O	-0.3971953092	-0.0664646725	-2.1245229616	-0.259514
C	 1.94608387	 0.5210696161	-1.6601202813	 0.256388
O	 2.76182974	 0.9674193513	-0.8834765104	-0.290775
C	 2.2580722216	 0.7457592672	-3.1531873909	 0.099988
O	 1.9692366541	 0.0048111571	-4.0537798891	-0.220199
H	 0.7199782222	 2.0251650969	 0.5462536123	 0.135512
H	-0.9462866574	 1.6063255589	 0.0988797968	 0.131954
H	-0.3600389326	 1.2984346515	 1.7413978312	 0.118787
H	 1.2633839129	-0.4088157692	 0.8322955447	 0.121992
H	-0.410986647	-0.8387132497	 0.4772840826	 0.106329
H	 0.7641001897	-1.6525587589	-2.9222420196	 0.15145
H	-0.3555637865	-2.1063562656	-1.5175011631	 0.124486
H	 2.8939283938	 1.6459968059	-3.2913557218	 0.11578
56.1417	94.3277	95.9104	182.1119	191.5156	221.9122	283.2119	312.7171	356.1537	455.0569	477.1312	570.3866	610.1573	722.6807	766.3362	840.2173	862.4198	945.5631	1001.5209	1005.8958	1054.319	1100.4867	1143.0076	1147.4157	1180.2534	1279.9216	1320.9457	1356.5053	1380.6955	1398.8213	1408.1488	1468.9045	1500.4917	1507.1912	1510.8645	1780.9242	1824.772	2919.1189	3047.3475	3049.7877	3090.5808	3096.0929	3118.1768	3128.4363	3212.7189
CCC1(CO1)C(=O)C=O	CC[C@]1(CO1)C(=O)C=O	
InChI=1S/C6H8O3/c1-2-6(4-9-6)5(8)3-7/h3H,2,4H2,1H3	InChI=1S/C6H8O3/c1-2-6(4-9-6)5(8)3-7/h3H,2,4H2,1H3/t6-/m0/s1
