15
gdb 15324	3.13519	1.34531	1.01244	3.7779	75.17	-0.2478	0.0173	0.2651	1153.3287	0.117782	-325.507269	-325.498698	-325.497754	-325.542065	29.362	
C	 0.0536925885	 1.4975760731	 0.0270052603	-0.500016
C	 0.0598412409	 0.0432176862	 0.0617728804	 0.085991
C	 0.0539751559	-1.1606851385	 0.0901591336	 0.082889
C	 0.0424936871	-2.5926601933	 0.1133413683	-0.187925
C	-0.5447411472	-3.3436246228	 1.2842239815	-0.284745
C	-1.2783406506	-3.3687894625	-0.0400942394	-0.170049
C	-2.5160978263	-2.6590021506	-0.1899177403	 0.295222
N	-3.5201316348	-2.0994868098	-0.3195038471	-0.33484
H	 0.6512121822	 1.8755232149	-0.8096775036	 0.151724
H	-0.9655216042	 1.8803541805	-0.0925848236	 0.161342
H	 0.4646798965	 1.9222848017	 0.9494275848	 0.149868
H	 0.8802020725	-3.0747440536	-0.3827618473	 0.12547
H	-0.0642210981	-4.2625537292	 1.5986754638	 0.133915
H	-0.9825696086	-2.7519036794	 2.0781003356	 0.15242
H	-1.2217352939	-4.2843869667	-0.6187748671	 0.138733
21.8302	65.9698	123.0777	184.7127	218.0407	310.4214	318.7851	448.1743	486.8687	565.394	621.8664	709.7177	765.145	834.6978	901.8785	963.933	1030.4517	1050.7555	1054.5227	1084.8259	1117.1363	1134.1159	1172.0826	1236.2922	1374.0124	1396.3338	1414.2038	1475.8107	1477.0397	1480.0467	2357.5915	2374.8509	3029.0567	3090.0344	3094.1523	3144.7609	3150.8241	3172.405	3248.6972
CC#CC1CC1C#N	CC#C[C@H]1C[C@H]1C#N	
InChI=1S/C7H7N/c1-2-3-6-4-7(6)5-8/h6-7H,4H2,1H3	InChI=1S/C7H7N/c1-2-3-6-4-7(6)5-8/h6-7H,4H2,1H3/t6-,7-/m0/s1
