20
gdb 82239	2.50658	1.8704	1.38524	2.7083	76.83	-0.2283	0.0679	0.2963	1000.9234	0.173618	-403.111636	-403.104169	-403.103225	-403.143293	30.142	
C	 0.0291315009	 1.5979932885	-0.1057696485	-0.401413
C	 0.0316031604	 0.0685874468	-0.0262784908	 0.004336
C	 0.6662890333	-0.6171321598	-1.2347130671	-0.04695
N	 2.1230434092	-0.4231426501	-1.3039334096	-0.324664
C	 1.585725501	-1.7032248151	-0.7936057315	-0.068548
C	 1.5866037724	-1.7682001568	 0.7269137577	 0.12864
O	 2.7836763671	-1.2811730648	 1.3638236119	-0.291616
C	 2.1511521823	-0.0179885356	 1.6755562613	-0.078707
C	 0.7710955754	-0.5343718542	 1.193500707	-0.09935
H	 1.0434042129	 1.9804393253	-0.2464539594	 0.136111
H	-0.5791862644	 1.9447342185	-0.9479320803	 0.109258
H	-0.3838698812	 2.0421055957	 0.8058906839	 0.111374
H	-1.0100811061	-0.2764353758	 0.0239746748	 0.071701
H	 0.1009248549	-0.6903479208	-2.1599755712	 0.081199
H	 2.4475172882	-0.5534385495	-2.2582304028	 0.232571
H	 1.7355518746	-2.6029433529	-1.3815564825	 0.082731
H	 1.3076225619	-2.7635662164	 1.0904166968	 0.069481
H	 2.2210922705	 0.2094569568	 2.7458804789	 0.090857
H	 2.5816585519	 0.8015149457	 1.0932294126	 0.114733
H	 0.0887265549	-0.7164769657	 2.0253132088	 0.078256
127.4453	199.9595	223.5354	247.6853	272.6174	411.353	499.6922	536.5956	624.3006	661.7519	757.1418	805.7319	842.403	869.4832	891.6115	902.1211	913.7064	974.3858	978.4016	1015.8128	1022.7857	1036.8024	1058.643	1072.059	1121.2686	1134.7232	1153.312	1169.5954	1182.4553	1232.0003	1241.6969	1260.6973	1316.6563	1326.7775	1339.8457	1362.0269	1365.4874	1388.0628	1405.0967	1426.2188	1494.1847	1503.6612	1513.0332	3010.4125	3025.1705	3035.7016	3042.8882	3083.3987	3096.2377	3096.804	3121.5292	3142.7569	3163.8711	3508.0705
CC1C2NC2C2OCC12	C[C@H]1[C@H]2N[C@H]2[C@H]2OC[C@@H]12	
InChI=1S/C7H11NO/c1-3-4-2-9-7(4)6-5(3)8-6/h3-8H,2H2,1H3	InChI=1S/C7H11NO/c1-3-4-2-9-7(4)6-5(3)8-6/h3-8H,2H2,1H3/t3-,4+,5-,6-,7+/m1/s1
