17
gdb 83906	2.72742	1.45387	1.23811	3.8437	73.71	-0.2499	0.0131	0.263	1056.5576	0.136615	-417.987847	-417.979717	-417.978773	-418.020425	30.241	
C	-0.2972661561	 1.4722855785	-0.0162945201	-0.342014
N	 0.0552093421	 0.0549566527	 0.044450031	-0.124557
C	 1.356343567	-0.464133152	-0.3174605956	-0.098662
C	 2.5614561647	 0.4587945144	-0.328489382	-0.110469
O	 2.5100659026	 1.1969068501	 0.8889372642	-0.251959
C	 1.8288366861	 0.4368022527	 1.8759654394	-0.154403
C	 0.8844464368	-0.4921917003	 1.1130046588	 0.154595
C	 0.4035002212	-1.670435127	 1.7913448697	 0.240427
N	 0.036180103	-2.6057321522	 2.3630159003	-0.338248
H	 0.5072397674	 2.1608621879	 0.2631090245	 0.14047
H	-0.615594265	 1.692046582	-1.0394650429	 0.13457
H	-1.1559686177	 1.6370173322	 0.6404674518	 0.13806
H	 1.3669735996	-1.3512701017	-0.944520693	 0.121168
H	 3.4804475736	-0.1432513227	-0.4016358878	 0.114034
H	 2.5581172228	 1.1822679522	-1.1505370539	 0.124972
H	 2.5197760809	-0.1690754522	 2.4809416718	 0.122071
H	 1.3118044311	 1.1383352856	 2.5382823638	 0.129948
133.8941	157.1111	167.7684	211.9083	231.4639	253.3412	405.7508	461.44	517.4013	547.0049	574.7189	714.4245	735.4276	799.1234	888.4398	939.1067	981.5426	1000.2437	1066.9698	1094.1244	1114.6462	1121.621	1148.147	1176.1345	1209.8498	1231.2585	1245.0714	1308.5701	1352.035	1365.8772	1418.0962	1460.7518	1489.4066	1503.6607	1516.8932	1518.764	2358.4258	2989.6672	2999.9537	3031.1958	3072.3279	3079.1192	3103.0363	3115.2662	3155.8873
CN1C2COCC12C#N	CN1[C@H]2COC[C@@]12C#N	
InChI=1S/C6H8N2O/c1-8-5-2-9-4-6(5,8)3-7/h5H,2,4H2,1H3	InChI=1S/C6H8N2O/c1-8-5-2-9-4-6(5,8)3-7/h5H,2,4H2,1H3/t5-,6+,8?/m0/s1
