14
gdb 128586	2.8384	1.53288	1.00172	6.4164	68.78	-0.2513	-0.0689	0.1824	1104.22	0.100583	-473.817654	-473.809995	-473.809051	-473.850092	27.956	
C	 0.0214325881	 1.3622968554	 0.116484774	-0.254576
O	 0.0905137746	-0.0539068702	-0.0039553535	-0.221114
C	 0.6304832311	-0.5566306324	-1.1124858141	 0.238003
C	 1.1379327078	 0.1193089948	-2.172549376	-0.2818
C	 1.6691245644	-0.6453462447	-3.2582660694	 0.049269
N	 1.7154751857	-1.9317321269	-3.3327931236	-0.077204
O	 1.191953707	-2.6228159122	-2.239298347	-0.259067
C	 0.6449037152	-2.0360699858	-1.1190807691	 0.42586
O	 0.2267163372	-2.7367372163	-0.2406206704	-0.320294
H	 1.0231485389	 1.8072927547	 0.0942382529	 0.138663
H	-0.5884970928	 1.7949664952	-0.685221886	 0.138655
H	-0.4464295626	 1.5582576967	 1.0807584678	 0.158008
H	 1.1552283526	 1.1998295939	-2.2257031667	 0.124364
H	 2.0855716327	-0.1444200422	-4.127293859	 0.141233
102.1412	139.303	212.222	224.3053	265.2903	353.7948	461.5699	512.589	551.8277	566.1123	597.1643	757.2725	790.9044	857.895	884.4678	945.3619	961.125	1019.0497	1084.136	1137.6102	1175.5631	1213.045	1323.5507	1350.4718	1388.9994	1479.5064	1491.8319	1500.5587	1616.4439	1680.2304	1842.7251	3020.0272	3087.1097	3158.3415	3182.6544	3215.5509
COC1=CC=NOC1=O	COc1ccnoc1=O	
InChI=1S/C5H5NO3/c1-8-4-2-3-6-9-5(4)7/h2-3H,1H3	InChI=1S/C5H5NO3/c1-8-4-2-3-6-9-5(4)7/h2-3H,1H3
