17
gdb 126913	2.71625	1.27566	0.9996	3.5267	71.19	-0.2089	0.0048	0.2136	1208.296	0.137055	-451.314283	-451.30545	-451.304506	-451.348806	31.999	
C	-0.2932506862	 0.9563509669	-1.028181843	-0.37498
C	 0.0945249253	 0.0693441939	 0.1569615753	-0.158727
N	 1.2609959342	-0.8066186318	-0.0748468939	-0.404678
C	 1.0995771833	-1.8447118877	-0.9940884052	 0.258411
C	 1.4658146536	-2.041596293	-2.3111514942	 0.313051
O	 2.1068768691	-1.1601803769	-3.1107228519	-0.444734
N	 1.1038134236	-3.2787650421	-2.7112189923	-0.277974
N	 0.5063195244	-3.8906937771	-1.71445344	-0.13567
N	 0.5169028279	-3.0388163673	-0.6811092106	-0.197972
H	 0.5257373233	 1.6327937393	-1.2955646214	 0.118983
H	-0.532786769	 0.3531920854	-1.9088554562	 0.13696
H	-1.1683561653	 1.5671075772	-0.7828524276	 0.117844
H	 0.3257833584	 0.6837317937	 1.0337116757	 0.109862
H	-0.7466457786	-0.5729438153	 0.4392749374	 0.109895
H	 2.0741976182	-0.254307543	-0.3225146817	 0.242576
H	 2.2550187285	-1.607190263	-3.9533845762	 0.306833
H	 0.1325192294	-3.3209674192	 0.2067944756	 0.280319
35.7715	74.7882	145.3329	233.9389	257.2618	291.9548	336.8752	368.035	465.2746	493.2785	568.4936	646.8441	699.4082	719.5007	746.0561	764.0081	845.8109	900.9427	1000.678	1051.2672	1108.6521	1117.8091	1150.5911	1165.8618	1241.6633	1280.9484	1315.1943	1368.2169	1391.1158	1394.2866	1409.8444	1480.7361	1486.3811	1494.8984	1507.1921	1541.837	1686.2638	3034.3289	3042.4764	3078.026	3104.5286	3117.6332	3544.4555	3653.1067	3798.4094
CCNC1=C(O)N=NN1	CCNc1c(O)nn[nH]1	
InChI=1S/C4H8N4O/c1-2-5-3-4(9)7-8-6-3/h2H2,1H3,(H3,5,6,7,8,9)	InChI=1S/C4H8N4O/c1-2-5-3-4(9)7-8-6-3/h2H2,1H3,(H3,5,6,7,8,9)
