19
gdb 133747	2.31412	1.2558	1.20881	2.4102	64.15	-0.2293	0.0756	0.3049	1155.0412	0.153622	-550.716301	-550.706199	-550.705254	-550.751009	37.167	
C	-0.1776745246	 1.446127005	 0.0982115587	-0.32795
N	 0.0549518234	 0.012945201	-0.0269061294	-0.307421
C	 0.7451106413	-0.4541293496	-1.2344561758	 0.108468
C	-0.0168414311	-0.0186820334	-2.4952594993	-0.424981
C	 2.2262937211	-0.0240967379	-1.3142910138	-0.434319
C	 0.6934800888	-1.991658126	-1.1523258559	 0.298932
F	-0.5518873882	-2.4688770571	-1.2068470648	-0.072187
F	 1.3837742599	-2.5598270937	-2.1570995881	-0.08698
F	 1.2425520941	-2.4302925666	-0.0010114716	-0.097723
H	 0.7198610299	 2.0792507455	-0.0040072611	 0.098688
H	-0.9089096781	 1.7798069019	-0.6435927411	 0.129195
H	-0.6079472355	 1.6380608214	 1.0850143651	 0.126091
H	 0.558386475	-0.3241709141	 0.7857975367	 0.222987
H	 0.1047449681	 1.053288815	-2.6672324359	 0.121098
H	 0.3725520061	-0.5433303791	-3.3708395957	 0.13163
H	-1.0810077635	-0.241335362	-2.3947931761	 0.139265
H	 2.7861797875	-0.4004941867	-0.4532876339	 0.123032
H	 2.7036873821	-0.4004406615	-2.2222910114	 0.13038
H	 2.2980448037	 1.0663253778	-1.3218456466	 0.121795
81.1253	92.6249	184.3233	193.6481	219.203	249.6897	266.8088	309.8626	330.257	354.0328	371.5018	430.1653	457.0334	571.0062	579.16	620.7463	736.2706	777.8481	847.115	932.2312	964.8769	1010.8864	1098.0225	1117.9351	1155.5775	1170.0399	1175.2777	1205.1693	1231.1773	1272.1577	1338.1963	1391.486	1413.9755	1459.6798	1475.077	1485.3355	1497.7415	1500.0739	1506.6318	1516.8505	1530.1552	2960.3308	3048.1511	3057.7972	3073.2688	3112.0912	3122.1096	3126.0708	3131.5804	3141.688	3538.1597
CNC(C)(C)C(F)(F)F	CNC(C)(C)C(F)(F)F	
InChI=1S/C5H10F3N/c1-4(2,9-3)5(6,7)8/h9H,1-3H3	InChI=1S/C5H10F3N/c1-4(2,9-3)5(6,7)8/h9H,1-3H3
