12
gdb 5055	3.69972	2.287	1.57072	3.2899	65.13	-0.2586	-0.0994	0.1592	759.7992	0.085289	-377.539248	-377.53314	-377.532196	-377.569564	22.648	
O	 0.0741574345	 0.2567306155	-0.91593295	-0.309574
C	-0.0135847307	 1.2325647352	-0.2101180455	 0.342223
C	-1.2996217196	 1.8223302827	 0.2171021884	-0.166872
C	-1.563099422	 3.1451851464	 0.1459893417	 0.023082
N	-0.7453059495	 4.1610700155	-0.3060219069	-0.209555
C	 0.5418558544	 4.1256859999	-0.2827217564	 0.003818
C	 1.3841481035	 3.0738966606	 0.2883682845	-0.008859
N	 1.1277941053	 1.822845059	 0.3639133883	-0.205145
H	-2.0924665737	 1.1276432138	 0.4786233762	 0.136941
H	-2.5682965021	 3.4893475683	 0.3782746071	 0.129983
H	 1.0605099295	 5.016239138	-0.6438217479	 0.130043
H	 2.3302430403	 3.4146165352	 0.7196629303	 0.133915
112.1825	251.0161	295.6301	378.2759	423.1194	516.7505	626.6381	651.8614	772.5365	807.7785	864.7335	881.8535	922.1589	942.561	997.9838	1013.0249	1032.196	1201.7981	1245.4845	1411.0634	1419.6663	1435.4548	1566.1745	1639.8545	1696.1102	1798.7838	3082.1011	3110.9794	3155.788	3184.1526
O=C1C=CN=CC=N1	O=c1ccnccn1	
InChI=1S/C5H4N2O/c8-5-1-2-6-3-4-7-5/h1-4H	InChI=1S/C5H4N2O/c8-5-1-2-6-3-4-7-5/h1-4H
