17
gdb 17729	4.52281	2.47794	2.02413	2.0236	71.36	-0.2208	0.0844	0.3052	713.1506	0.145207	-326.617093	-326.61162	-326.610676	-326.646229	23.499	
C	-0.0530229019	 1.5450662901	-0.001061983	-0.274312
N	 1.4649062821	 1.3071701245	-0.0488463756	-0.188674
C	 1.2918510932	 0.1768874244	 0.9957596587	-0.004357
C	 1.8518378295	-0.9831449617	 0.1653712425	-0.079191
C	 0.8164987037	-2.1382889233	 0.3317230057	-0.225988
C	-0.5755711903	-1.3801968694	 0.3207302972	-0.356743
C	 0.001829687	 0.014102312	 0.151794452	 0.294638
C	 1.2055760296	-0.0079528128	-0.8246513474	-0.004355
H	-0.3745902162	 2.1400169785	 0.8600160958	 0.101883
H	-0.4594248122	 1.9582521722	-0.930008656	 0.101883
H	 1.3604173534	 0.3832670569	 2.0658394591	 0.074692
H	 2.9092426771	-1.251656249	 0.1425206222	 0.06851
H	 0.8887132296	-2.8623033813	-0.4854411194	 0.104824
H	 0.9717703373	-2.6843798267	 1.2670535051	 0.104824
H	-1.2135353563	-1.6992821832	-0.508204154	 0.103839
H	-1.130059513	-1.5204753054	 1.2528312553	 0.103838
H	 1.1717004274	-0.0210439357	-1.9160021483	 0.074691
236.3461	354.1748	428.8176	432.1279	661.2489	716.5148	757.6498	816.3659	820.2453	850.5062	853.4345	868.7928	893.7212	897.4507	935.0587	948.4984	1004.6533	1005.0054	1059.6406	1077.2456	1107.8406	1116.1795	1155.7874	1180.5008	1185.8002	1206.0647	1223.7209	1227.3268	1253.4022	1265.8972	1299.3144	1315.117	1344.8123	1486.7656	1507.5583	1516.5094	3037.0898	3049.4261	3059.4573	3088.0476	3089.8679	3090.1649	3098.5933	3107.3427	3108.4439
C1N2C3C4CCC13C24	C1N2[C@@H]3[C@H]4CC[C@@]13[C@@H]24	
InChI=1S/C7H9N/c1-2-7-3-8-5(7)4(1)6(7)8/h4-6H,1-3H2	InChI=1S/C7H9N/c1-2-7-3-8-5(7)4(1)6(7)8/h4-6H,1-3H2/t4-,5-,6+,7-
