21
gdb 82225	2.41949	1.96354	1.4574	1.7331	80.39	-0.2594	0.0824	0.3418	993.2312	0.18521	-387.074938	-387.067596	-387.066652	-387.106198	30.7	
C	 0.0045732062	 1.5659609928	-0.0355718497	-0.403095
C	 0.0398320576	 0.0337958904	 0.0153681163	-0.004663
C	 0.6724315164	-0.5657270059	-1.2390626356	 0.041291
O	 2.0152356032	-0.1711943583	-1.5652424728	-0.258846
C	 1.798066425	-1.4937850449	-1.0589582145	 0.045902
C	 2.203653567	-1.7718404922	 0.383965979	-0.05025
C	 2.2857988232	-0.4376545945	 1.1723774418	-0.227816
C	 0.7343064586	-0.5180112676	 1.2798593192	-0.016095
C	 0.8951182109	-2.0646844575	 1.1816530206	-0.239367
H	 1.0151901387	 1.978415692	-0.1005298758	 0.134122
H	-0.5531616982	 1.9176668139	-0.9099618347	 0.112491
H	-0.4780740867	 1.975292149	 0.8579555511	 0.109344
H	-0.9969341676	-0.3329438106	 0.0341442584	 0.072439
H	 0.0254060731	-0.6559442459	-2.1116081333	 0.087367
H	 1.9698053045	-2.2872538329	-1.7852173659	 0.087459
H	 3.036391707	-2.4750135072	 0.4511449264	 0.059792
H	 2.7566029691	-0.5898219045	 2.146914467	 0.091851
H	 2.7364253503	 0.4172825284	 0.6691585568	 0.116117
H	 0.2635058329	-0.1108105709	 2.1789367098	 0.057042
H	 0.1066886149	-2.6361555891	 0.6807516331	 0.087957
H	 1.1043956141	-2.5124414142	 2.1566123727	 0.09696
163.6108	205.3869	233.5955	316.1666	372.9077	404.8165	431.3474	517.6184	594.393	649.8129	731.1092	795.4457	817.4125	839.539	893.5114	903.3364	912.3645	928.8718	950.2939	992.191	1020.7751	1032.7415	1066.6005	1069.3742	1104.6743	1121.4504	1130.3092	1143.157	1154.9777	1170.9244	1249.1547	1265.0721	1267.2768	1287.0478	1314.3588	1337.6353	1341.8557	1362.1346	1384.6877	1408.5942	1453.6284	1476.1509	1494.1034	1501.3286	1508.0674	2998.6851	3034.9409	3042.7471	3060.8861	3071.57	3082.7495	3098.5765	3103.8556	3104.6276	3117.4463	3121.3304	3140.6507
CC1C2OC2C2CC1C2	C[C@H]1[C@H]2O[C@H]2[C@H]2C[C@@H]1C2	
InChI=1S/C8H12O/c1-4-5-2-6(3-5)8-7(4)9-8/h4-8H,2-3H2,1H3	InChI=1S/C8H12O/c1-4-5-2-6(3-5)8-7(4)9-8/h4-8H,2-3H2,1H3/t4-,5-,6+,7-,8+/m1/s1
