21
gdb 41590	2.73251	1.709	1.62162	1.4597	80.01	-0.2423	0.0744	0.3167	969.1125	0.186136	-387.064973	-387.057913	-387.056969	-387.096442	29.234	
C	-0.1315634931	 1.2350656104	 0.5674084227	-0.22699
C	 1.1778333659	 1.6938296962	-0.14507689	-0.226986
C	 1.4442029059	 0.2320446134	-0.6037808696	-0.027939
C	 0.1294727387	-0.2286165723	 0.1116716926	-0.027942
C	-0.455701807	-0.692582132	-1.260046557	-0.033387
C	-1.5452128921	 0.14136317	-1.9354124717	-0.109645
O	-0.8804674191	 1.275042423	-2.489910894	-0.251385
C	 0.3770245377	 0.8149683244	-2.9814669655	-0.109638
C	 0.8608010725	-0.2312582054	-1.9764812582	-0.033394
H	-0.0998916447	 1.3501226514	 1.6538422383	 0.093357
H	-1.050366949	 1.6995483524	 0.2051205447	 0.109874
H	 1.0469431689	 2.4344139595	-0.9360277079	 0.109865
H	 1.9413591774	 2.0652257268	 0.5431643302	 0.093359
H	 2.4235040738	-0.1815628512	-0.3574020987	 0.058687
H	 0.1216755128	-0.9880533018	 0.8952525324	 0.058686
H	-0.6743690029	-1.7615696171	-1.2970950809	 0.067669
H	-2.0322462157	-0.4452811862	-2.7319968224	 0.085884
H	-2.3217452968	 0.510741716	-1.2594779513	 0.108186
H	 0.2552208969	 0.3563195498	-3.9768086435	 0.085882
H	 1.0310378516	 1.6856473932	-3.0840080037	 0.108187
H	 1.4499026083	-1.0171786506	-2.4531469064	 0.067669
80.3114	194.9618	260.0052	315.2173	415.7409	446.6547	585.3974	686.1797	713.7581	722.0456	752.9551	812.5728	828.3255	862.4097	898.2102	924.543	935.2463	956.7469	980.2819	980.6903	1026.1808	1028.7322	1086.3534	1095.3715	1115.5601	1138.0484	1142.0979	1182.5804	1205.4557	1209.9412	1232.3896	1254.2159	1261.7916	1274.979	1278.2127	1291.6725	1312.2773	1331.0597	1338.4058	1351.5595	1396.4575	1471.1834	1492.8446	1505.6436	1517.0303	2962.9167	2969.0958	3059.9977	3066.913	3074.7039	3083.3047	3084.7566	3086.0087	3087.0173	3101.1143	3109.464	3126.7452
C1CC2C1C1COCC21	C1C[C@H]2[C@@H]1[C@H]1COC[C@@H]21	
InChI=1S/C8H12O/c1-2-6-5(1)7-3-9-4-8(6)7/h5-8H,1-4H2	InChI=1S/C8H12O/c1-2-6-5(1)7-3-9-4-8(6)7/h5-8H,1-4H2/t5-,6+,7-,8+
