16
gdb 62307	3.60885	1.47576	1.1997	1.1971	75.69	-0.2368	0.0272	0.264	1021.788	0.12281	-400.600252	-400.592627	-400.591683	-400.632019	30.136	
O	-0.0077672065	 1.4210617166	-0.1059033889	-0.483147
C	 0.0447635943	 0.0124214951	-0.0499096885	 0.268416
C	 0.9896070352	-0.5457963362	-1.0048081186	 0.278532
C	 1.8102304094	-0.942716875	-1.7887094896	-0.446827
C	-0.014534538	-0.6269245134	 1.3582925618	-0.085336
C	-1.5054517206	-0.227977053	 1.5735564525	-0.079623
C	-1.8188757882	-1.6851012807	 1.8951737711	-0.189446
N	-0.7660467847	-1.8653197554	 0.8018965442	-0.159283
C	-1.3473955864	-0.624095593	 0.0742252176	-0.059397
H	 0.8880544933	 1.7453806293	-0.2452487367	 0.288073
H	 2.5209451605	-1.315700715	-2.4844484365	 0.199751
H	 0.7739175956	-0.7416772746	 2.1040857031	 0.085874
H	-1.9026080854	 0.7019460091	 1.9860616741	 0.082439
H	-1.5074008984	-2.081705171	 2.8669918221	 0.104011
H	-2.8028338112	-2.0777984174	 1.6186886837	 0.104853
H	-2.1212261789	-0.7304398955	-0.6870183514	 0.091109
130.7969	150.787	224.6053	266.2001	307.431	409.4678	476.6267	527.8927	561.5662	632.4433	647.9737	669.0745	744.9726	809.9391	846.6819	849.1287	880.6507	929.7963	984.8808	1017.7919	1031.7247	1052.9111	1072.0217	1110.03	1145.8537	1148.5379	1181.5401	1184.1804	1187.8677	1254.4575	1273.7037	1290.5037	1392.8504	1521.309	2232.766	3038.0676	3083.1092	3096.8884	3105.15	3115.6987	3499.5632	3819.7104
OC1(C#C)C2C3CN2C13	O[C@@]1(C#C)[C@H]2[C@@H]3CN2[C@H]13	
InChI=1S/C7H7NO/c1-2-7(9)5-4-3-8(5)6(4)7/h1,4-6,9H,3H2	InChI=1S/C7H7NO/c1-2-7(9)5-4-3-8(5)6(4)7/h1,4-6,9H,3H2/t4-,5+,6-,7-
