20
gdb 108053	3.65763	1.32848	1.19968	2.0403	78.01	-0.2029	0.0633	0.2663	1094.0327	0.172459	-403.076853	-403.069088	-403.068144	-403.109092	30.838	
O	-0.0868294649	 1.4339923384	 0.1391019113	-0.42483
C	 0.0288706308	 0.0174826102	 0.0673145515	-0.203674
C	-1.3664719602	-0.5444508062	 0.0271459252	 0.375247
C	-2.2464108708	-0.443582967	 1.3056411585	-0.275161
C	-2.842102487	-1.8484830497	 1.0229861754	-0.047763
C	-3.8444674391	-1.842583621	-0.147761747	-0.17022
N	-2.7483985209	-1.7728556913	-1.1751057921	-0.148132
C	-2.2117100256	-0.3703455029	-1.2539076772	-0.213313
C	-1.7406564427	-2.0615640175	-0.0650169633	-0.073731
H	 0.7984470321	 1.8094452822	 0.1539137543	 0.288981
H	 0.5821554737	-0.2927193822	-0.8348545706	 0.084622
H	 0.5710143857	-0.3832640067	 0.9403562929	 0.081085
H	-1.6171843375	-0.4607966868	 2.2013415528	 0.098576
H	-2.9379616088	 0.4008552277	 1.3808234783	 0.097835
H	-3.0289868739	-2.5076747966	 1.8716132542	 0.065882
H	-4.3777513165	-2.7935104535	-0.2512348578	 0.103764
H	-4.5740379004	-1.025707313	-0.1971238618	 0.095967
H	-2.9741507249	 0.415745084	-1.2615408599	 0.100295
H	-1.5919503519	-0.2642029243	-2.1513137657	 0.100176
H	-1.0559105173	-2.9045159337	-0.1625050489	 0.064392
79.4288	147.9192	244.1483	283.7949	304.555	370.3385	385.7353	448.8614	606.6156	652.1526	733.046	806.3583	812.9628	875.7268	903.127	923.3647	937.2397	947.1271	968.7923	986.4917	993.6562	1038.543	1054.1026	1094.1819	1143.1696	1158.1677	1175.4799	1190.8675	1197.9066	1205.4943	1216.6297	1234.0637	1258.7999	1274.4579	1290.2255	1313.9383	1321.3021	1357.4561	1461.7155	1480.9149	1490.7967	1505.9514	1519.9886	2951.8902	2980.5333	3023.9834	3029.6166	3042.5783	3073.7623	3079.4333	3090.7439	3097.1787	3108.3526	3827.2918
OCC12CC3CN(C1)C23	OC[C@@]12C[C@H]3CN(C1)[C@@H]23	
InChI=1S/C7H11NO/c9-4-7-1-5-2-8(3-7)6(5)7/h5-6,9H,1-4H2	InChI=1S/C7H11NO/c9-4-7-1-5-2-8(3-7)6(5)7/h5-6,9H,1-4H2/t5-,6+,7+/m0/s1
