20
gdb 126683	3.05449	1.18518	0.95982	2.4865	81.89	-0.1802	0.0314	0.2116	1280.3644	0.17225	-399.335	-399.325792	-399.324847	-399.369402	34.009	
C	-0.2689543652	 1.5865326218	 0.0761852878	-0.382612
C	-0.0144474369	 0.0746806117	-0.0141192852	-0.162438
N	-1.2091650017	-0.7628237941	-0.011488589	-0.154784
C	-1.9989912493	-0.7626489915	-1.2253512418	-0.334956
C	-1.9233523232	-0.8621949148	 1.1818419205	 0.273868
C	-3.2745715514	-1.1327966115	 1.3465587221	-0.150744
N	-3.4873971136	-1.1954235929	 2.6922977347	-0.188584
N	-2.3858139628	-0.9698476396	 3.4154199607	-0.225474
C	-1.4295227641	-0.7658605438	 2.5117793772	-0.095215
H	 0.6792204326	 2.134087697	 0.0824149496	 0.11351
H	-0.8558147676	 1.9428163506	-0.776511599	 0.117005
H	-0.8133045899	 1.8358236911	 0.9916473237	 0.13276
H	 0.5403734297	-0.1545870687	-0.9310882131	 0.100172
H	 0.626555672	-0.2426626646	 0.8151178866	 0.113531
H	-2.6042068559	-1.6749338565	-1.2738039281	 0.124648
H	-2.6836751227	 0.0991195692	-1.3115917527	 0.104183
H	-1.3319442985	-0.7580849091	-2.0916585488	 0.11937
H	-4.0716043727	-1.2821160069	 0.6384701093	 0.12264
H	-4.3540422789	-1.38138173	 3.1656903849	 0.270267
H	-0.4236712	-0.5572489272	 2.8419826406	 0.102851
52.3925	84.8923	145.8795	197.4716	222.4839	261.7532	308.8866	386.703	439.0214	456.032	501.5268	603.8261	650.3959	686.7287	727.6302	793.3839	841.742	877.8804	947.5492	975.2154	1025.3725	1076.0624	1084.917	1104.8472	1150.7395	1169.8669	1210.39	1247.9807	1276.6913	1326.9459	1370.7677	1386.0812	1404.3394	1409.6073	1415.5307	1460.4405	1483.0452	1487.1696	1493.5117	1507.0539	1513.4656	1519.4043	1629.5796	2950.6638	3036.9938	3037.4966	3051.0713	3072.3046	3106.0189	3106.7238	3118.4042	3251.8666	3278.0899	3684.2922
CCN(C)C1=CNN=C1	CCN(C)c1c[nH]nc1	
InChI=1S/C6H11N3/c1-3-9(2)6-4-7-8-5-6/h4-5H,3H2,1-2H3,(H,7,8)	InChI=1S/C6H11N3/c1-3-9(2)6-4-7-8-5-6/h4-5H,3H2,1-2H3,(H,7,8)
