12
gdb 129348	7.15434	0.90193	0.80261	3.0483	61.61	-0.2606	-0.0357	0.225	1307.555	0.076734	-505.914147	-505.90656	-505.905616	-505.94742	26.392	
N	-0.2494434662	 1.27883131	 0.1232540671	-0.397284
C	-0.0623846827	 0.0548836532	-0.0477994632	 0.119705
O	-1.174804093	-0.7737383108	 0.0569139371	-0.206358
C	-0.9668297094	-2.0801273793	 0.0677968259	 0.543325
N	 0.1416483886	-2.7133812017	 0.1910315206	-0.248147
O	-0.2679719409	-4.0840948139	 0.1212469655	-0.245859
C	-1.6241896159	-4.1328073881	-0.020037407	 0.521269
N	-2.393863413	-5.1119642659	-0.1075883062	-0.564077
O	-2.0748639698	-2.8247545264	-0.0594465764	-0.198054
H	 0.6202497376	 1.7936989126	-0.0023779461	 0.256394
H	 0.8501480159	-0.4921751475	-0.2877612331	 0.166456
H	-1.8845628911	-5.9904240821	-0.0577226643	 0.25263
56.9559	75.6008	165.6101	185.4762	340.037	375.5354	467.9163	562.1102	685.0364	734.9698	744.8519	784.7619	808.9109	843.0658	914.3119	942.7014	973.3417	1018.8891	1050.089	1104.8171	1234.4405	1249.4627	1400.2008	1451.5242	1701.1649	1767.1515	1832.6244	3133.4165	3525.0935	3552.4057
N=COC1=NOC(=N)O1	[NH][CH]OC1=NO[C@H]([NH])O1	
InChI=1S/C3H3N3O3/c4-1-7-3-6-9-2(5)8-3/h1,4-5H	InChI=1S/C3H4N3O3/c4-1-7-3-6-9-2(5)8-3/h1-2,4-5H/t2-/m1/s1
