16
gdb 29387	5.67748	0.8816	0.77465	1.5973	77.52	-0.1841	0.0419	0.226	1398.2074	0.123537	-400.744446	-400.73559	-400.734645	-400.778744	32.882	
O	-0.5598887202	 1.3051865091	-0.5222532874	-0.449923
C	-0.1559044887	 0.0551649355	-0.1474388645	 0.327133
C	 0.5383271363	-0.8066359916	-0.9651948062	-0.179041
N	 0.7560109552	-1.9576434352	-0.2358554442	-0.294572
C	 0.2300603893	-1.8363337656	 1.0155831523	 0.357201
C	 0.2819341373	-2.9617344765	 2.0160817057	-0.467046
C	 1.3311668897	-3.9377861178	 1.7331691823	 0.285938
C	 2.1848617946	-4.7390973628	 1.4601571571	-0.438099
C	-0.3533523398	-0.5870691051	 1.1068305727	-0.399173
H	-1.0160544514	 1.7103107901	 0.2202708314	 0.294589
H	 0.8919695361	-0.6911064532	-1.9749668816	 0.117029
H	 1.2869670902	-2.7563356141	-0.539550751	 0.262762
H	 0.4316444619	-2.5445970212	 3.0195013985	 0.149182
H	-0.6832425074	-3.4883767422	 2.0548762241	 0.148451
H	 2.9439989031	-5.4515945367	 1.2505559407	 0.201698
H	-0.8662894261	-0.1851776127	 1.9687379	 0.083871
24.6514	112.6458	185.5855	203.7277	271.3659	323.7732	334.7395	409.7139	474.2072	491.8756	618.9548	628.4767	640.4782	656.9337	672.034	690.2294	752.0452	759.4731	944.3324	946.3112	994.6956	1008.5018	1124.6646	1163.9112	1185.4389	1213.9033	1294.5766	1325.6133	1338.635	1462.0568	1467.4962	1495.7775	1541.6446	1656.5708	2237.1002	2994.2697	3044.3848	3230.7393	3283.6097	3504.2775	3668.2874	3848.6011
OC1=CNC(CC#C)=C1	Oc1c[nH]c(CC#C)c1	
InChI=1S/C7H7NO/c1-2-3-6-4-7(9)5-8-6/h1,4-5,8-9H,3H2	InChI=1S/C7H7NO/c1-2-3-6-4-7(9)5-8-6/h1,4-5,8-9H,3H2
