18
gdb 16623	3.15565	2.1557	1.47458	1.9838	72.62	-0.2338	0.0071	0.2409	893.6475	0.153614	-347.80222	-347.79461	-347.793666	-347.833718	29.298	
C	-0.0910212908	 1.5447898072	-0.0169719115	-0.396829
C	 0.018715719	 0.0125248137	 0.0028430239	-0.107249
C	 0.803037259	-0.5433488922	-1.1861342872	 0.031417
O	 2.1552213792	-0.085824834	-1.2626385507	-0.263062
C	 1.8909406016	-1.384449565	-0.6678835851	 0.005322
C	 1.7885787912	-1.344857901	 0.8181609139	-0.200605
C	 0.7811302722	-0.5516040932	 1.2043667665	 0.316374
C	 0.4070472174	-0.1957384725	 2.6078206799	-0.491343
H	 0.9067701423	 1.9889154114	-0.0658450515	 0.138321
H	-0.6585077542	 1.8812534758	-0.8904171103	 0.115635
H	-0.599655213	 1.9226551173	 0.8749044308	 0.113104
H	-0.996537435	-0.4120258503	-0.0103958597	 0.079105
H	 0.3123708079	-0.7098531609	-2.1421581656	 0.089725
H	 2.3180161295	-2.225707808	-1.2049491185	 0.093495
H	 2.4687697554	-1.8658233696	 1.4817567005	 0.092548
H	 1.0113679876	-0.7464672064	 3.3334724861	 0.125493
H	 0.5452238877	 0.8755050976	 2.7997268269	 0.134637
H	-0.6505920771	-0.41344185	 2.8049418116	 0.123912
128.5536	181.4031	220.8693	229.2471	257.7382	340.2654	467.0021	481.6143	554.8255	668.2102	704.121	788.3255	804.7776	853.6965	865.6041	898.4835	974.1305	998.6899	1017.614	1035.0824	1058.3793	1098.3177	1113.5811	1125.1115	1192.8426	1252.6258	1286.7287	1303.9593	1326.1303	1350.3889	1397.6152	1409.8	1420.0737	1476.5665	1484.8648	1499.2529	1504.893	1694.6592	2993.5933	3018.4769	3040.0124	3065.5221	3105.2263	3112.2021	3124.3527	3138.3567	3164.4196	3200.4982
CC1C2OC2C=C1C	C[C@H]1[C@H]2O[C@H]2C=C1C	
InChI=1S/C7H10O/c1-4-3-6-7(8-6)5(4)2/h3,5-7H,1-2H3	InChI=1S/C7H10O/c1-4-3-6-7(8-6)5(4)2/h3,5-7H,1-2H3/t5-,6+,7-/m1/s1
