17
gdb 104973	2.10104	1.69898	1.06739	1.6757	70.73	-0.2439	-0.0886	0.1552	1129.3757	0.132238	-458.948898	-458.939448	-458.938503	-458.983911	33.347	
C	-1.2906166879	 0.1721377665	-0.0812787342	-0.258768
O	 0.1273158476	 0.0437549734	-0.0419683683	-0.284538
C	 0.6905910813	-0.687418908	-1.075268937	 0.29084
C	 1.7093165082	-1.7405118871	-0.6460897704	-0.278826
C	 0.3933014077	-2.1812346185	-1.190113056	-0.305285
C	 1.0541965223	 0.0130937016	-2.3426076965	 0.23243
O	 1.5787589514	-0.5562886429	-3.2799087735	-0.310374
C	 0.818335109	 1.5199961856	-2.5506648806	 0.097571
O	-0.0817661252	 2.1704470173	-2.0930068093	-0.217999
H	-1.6151447147	 0.7377897913	-0.9592436311	 0.133704
H	-1.7813618852	-0.8096994094	-0.0685520618	 0.104876
H	-1.5707740047	 0.7215377124	 0.8197295919	 0.131945
H	 2.5872234621	-1.8486576482	-1.2717165498	 0.139264
H	 1.8657938158	-1.7960162683	 0.424369285	 0.137059
H	-0.3422607088	-2.5681829645	-0.4949470134	 0.132015
H	 0.3633182566	-2.5891808302	-2.1934391362	 0.143861
H	 1.5455283547	 1.9284403888	-3.2845140188	 0.112225
36.9771	89.9529	135.5286	192.6903	203.6485	244.8823	260.7635	285.2676	370.2934	442.129	510.4075	567.1813	625.6221	712.1802	787.337	840.1277	864.2215	956.5435	975.6843	1014.0407	1057.3946	1090.9441	1096.7411	1143.8594	1180.9844	1206.0851	1224.3168	1290.0756	1329.6307	1388.5613	1439.6135	1469.343	1480.3756	1487.6125	1507.2736	1759.0686	1827.1838	2917.0598	3015.9001	3097.0783	3134.9847	3147.0386	3147.57	3238.7711	3252.9074
COC1(CC1)C(=O)C=O	COC1(CC1)C(=O)C=O	
InChI=1S/C6H8O3/c1-9-6(2-3-6)5(8)4-7/h4H,2-3H2,1H3	InChI=1S/C6H8O3/c1-9-6(2-3-6)5(8)4-7/h4H,2-3H2,1H3
