19
gdb 92289	2.89831	1.60073	1.26504	3.0552	75.79	-0.2276	0.0331	0.2606	1045.8645	0.161794	-419.198433	-419.190628	-419.189684	-419.23091	30.106	
C	 0.1502850433	 1.5958579992	-0.0640036749	-0.394025
C	 0.0881845572	 0.0840084874	 0.0381336015	 0.041518
N	 1.002668488	-0.6665455711	-0.858341847	-0.330179
C	 1.2724527892	-1.6680264536	 0.2019242715	-0.020333
C	 2.7223361901	-2.1026482369	 0.3569731971	-0.165177
N	 3.599172225	-1.1041495256	 0.954266437	-0.263404
C	 3.0835681821	-0.1528766382	 1.6004704979	 0.137151
O	 1.7796715929	 0.1401060986	 1.8546757384	-0.240107
C	 0.7587397946	-0.6413049236	 1.2394519003	 0.098082
H	 1.1740162833	 1.9495653768	 0.0717582598	 0.132573
H	-0.1992693239	 1.9220328783	-1.0492048272	 0.114341
H	-0.4869419683	 2.0642373166	 0.6936209604	 0.114492
H	-0.9570837061	-0.2580845311	-0.0326379744	 0.06265
H	 0.5908395326	-1.0299625717	-1.7112070042	 0.215599
H	 0.6060563457	-2.5423149421	 0.1638834863	 0.065364
H	 2.7690686726	-3.0086091126	 0.977402276	 0.109002
H	 3.1315247125	-2.3787030286	-0.6221176954	 0.112508
H	 3.7105265014	 0.5975568035	 2.0788222357	 0.12122
H	 0.1048123779	-0.9976145254	 2.0364970212	 0.088725
79.0783	123.3444	200.3187	237.205	328.0298	376.9035	464.8869	484.4297	540.908	617.8123	664.8641	783.4453	803.3738	835.3136	902.8547	916.4654	942.7604	967.0769	993.1657	1012.3695	1049.9188	1079.091	1111.2546	1120.1764	1159.802	1180.3862	1206.1929	1244.095	1278.7259	1320.4302	1348.1406	1364.873	1375.3008	1393.7961	1403.6139	1415.697	1422.7752	1469.9937	1486.6523	1493.1814	1746.5324	2965.153	2984.0117	3014.5184	3039.677	3051.6248	3098.55	3102.664	3137.6695	3157.1708	3523.3007
CC1NC2CN=COC12	C[C@H]1N[C@H]2CN=CO[C@@H]12	
InChI=1S/C6H10N2O/c1-4-6-5(8-4)2-7-3-9-6/h3-6,8H,2H2,1H3	InChI=1S/C6H10N2O/c1-4-6-5(8-4)2-7-3-9-6/h3-6,8H,2H2,1H3/t4-,5+,6+/m1/s1
