16
gdb 27423	2.39572	1.70787	1.08972	4.8851	81.85	-0.2437	-0.0745	0.1692	1099.1808	0.12494	-400.796506	-400.788645	-400.787701	-400.828999	29.464	
C	-0.3650746774	 1.4729710263	 0.0929739977	-0.462835
C	-0.0297434581	 0.0071611109	-0.062930899	 0.286996
N	-0.3451605968	-0.5615115032	-1.1735976417	-0.288408
C	-0.0669316469	-1.8764974457	-1.5344916607	 0.327988
O	 0.4380105717	-2.1467060514	-2.6030073667	-0.323361
C	-0.5135766127	-2.9432164601	-0.6076435965	-0.168265
C	-0.1801641361	-2.9713666731	 0.6994013987	-0.06295
C	 0.4998647956	-1.9291803765	 1.4272899493	-0.077062
C	 0.6059519928	-0.6219936358	 1.0866755693	-0.120234
H	-0.9916172541	 1.6413373963	 0.9757866584	 0.136538
H	 0.5522541046	 2.0565904491	 0.2361297544	 0.139624
H	-0.8804533143	 1.833313034	-0.7970185197	 0.150112
H	-0.999647707	-3.7971637519	-1.0701557788	 0.130689
H	-0.3991380353	-3.8744874846	 1.2639188764	 0.112104
H	 0.9177860655	-2.2244439928	 2.3867806501	 0.1135
H	 1.0875685787	 0.0497993485	 1.7924007887	 0.105565
101.7976	127.8994	170.4004	253.6575	296.8428	393.7436	409.9608	443.3619	535.9569	607.1545	645.9625	670.4767	777.8923	826.6418	848.756	873.7285	928.0841	997.1508	1001.8234	1023.5111	1043.3155	1054.4969	1171.1739	1226.5989	1245.2717	1281.0625	1397.2466	1414.723	1466.557	1476.7264	1480.7635	1575.1025	1661.9054	1691.7704	1775.8234	3033.8462	3089.2819	3147.8086	3157.4944	3158.9758	3172.7125	3184.9522
CC1=NC(=O)C=CC=C1	Cc1nc(=O)cccc1	
InChI=1S/C7H7NO/c1-6-4-2-3-5-7(9)8-6/h2-5H,1H3	InChI=1S/C7H7NO/c1-6-4-2-3-5-7(9)8-6/h2-5H,1H3
