18
gdb 126005	3.04286	1.56178	1.07989	3.1901	77.99	-0.1897	0.0412	0.2309	1102.8283	0.151781	-398.142113	-398.134489	-398.133545	-398.174151	29.641	
C	-0.2433475244	 1.5587166371	-0.062957158	-0.393876
C	 0.0172207685	 0.0523327898	 0.0271325531	-0.129914
C	 0.9397269049	-0.4734851936	-1.1312153042	-0.176605
N	 1.7625237672	-1.5840076896	-0.5576828226	-0.415875
C	 1.745562622	-1.320515006	 0.8116709206	 0.406149
C	 0.789114659	-0.4291326223	 1.22898024	 0.204437
C	 0.9010833742	-0.4345786051	 2.633789289	-0.165644
N	 1.8681630892	-1.2537598894	 3.0500839125	-0.244284
N	 2.3711939579	-1.8081726403	 1.8990064624	-0.336577
H	 0.6934831536	 2.121237954	 0.0059967084	 0.11649
H	-0.7334341577	 1.8207015882	-1.0073025513	 0.110733
H	-0.8947994191	 1.8900068908	 0.751614238	 0.120396
H	-0.9508853143	-0.465721266	-0.0335060957	 0.087488
H	 0.3696762962	-0.8345900341	-1.990962509	 0.11184
H	 1.5891060968	 0.3461510164	-1.4701773412	 0.100933
H	 2.679647622	-1.659315174	-0.9813149918	 0.234758
H	 0.341286589	 0.1228810128	 3.3712850162	 0.103105
H	 3.125943835	-2.4675449186	 1.9679124536	 0.266445
103.1064	163.6473	221.9087	264.872	296.8612	415.1539	438.7168	485.6596	561.626	640.9771	663.7212	684.3608	739.284	805.0214	887.8212	906.3374	942.3924	962.6558	1000.6984	1050.1833	1063.5982	1105.3534	1130.212	1158.3714	1224.8277	1238.5458	1288.6705	1307.7599	1327.6352	1365.0811	1398.4618	1411.2228	1421.2644	1454.0722	1494.3422	1499.8729	1510.4141	1588.6949	1621.5502	2987.4933	3001.8132	3029.6224	3089.9531	3097.6777	3106.7875	3236.2745	3542.6047	3686.9484
CC1CNC2=C1C=NN2	C[C@H]1CNc2c1cn[nH]2	
InChI=1S/C6H9N3/c1-4-2-7-6-5(4)3-8-9-6/h3-4H,2H2,1H3,(H2,7,8,9)	InChI=1S/C6H9N3/c1-4-2-7-6-5(4)3-8-9-6/h3-4H,2H2,1H3,(H2,7,8,9)/t4-/m0/s1
