15
gdb 25647	6.30642	0.7676	0.68777	1.1845	85.74	-0.198	-0.0229	0.1751	1598.9486	0.112529	-416.817531	-416.808651	-416.807707	-416.853665	31.15	
C	-0.0781877251	 1.4221043009	 0.0252723512	-0.513364
C	-0.0105492341	-0.0286245631	 0.0032551508	 0.311105
C	 0.050147665	-1.2326982836	-0.0165074622	-0.112621
C	 0.1225311507	-2.6390572436	-0.0384729005	 0.210173
N	 1.1914762799	-3.3921457592	-0.0356646099	-0.356901
C	 0.7133051228	-4.6853623292	-0.0641750089	 0.25175
N	 1.5974427087	-5.7544607365	-0.1321680819	-0.608522
C	-0.6504999146	-4.6553204072	-0.0814161813	-0.123245
O	-1.0367637449	-3.3387285522	-0.0637411724	-0.171437
H	 0.8972508457	 1.8618545883	-0.2081833846	 0.160074
H	-0.7993601295	 1.7946592178	-0.7104092463	 0.157895
H	-0.3849505646	 1.7907452031	 1.0105476443	 0.156906
H	 2.5123579508	-5.5017179948	 0.2162519388	 0.256702
H	 1.2613826149	-6.6017328882	 0.3031642169	 0.248345
H	-1.4338444958	-5.3911121225	-0.1090857141	 0.13314
6.8927	85.7962	93.3228	233.1015	256.8838	296.3909	347.302	390.3148	471.0615	472.6415	563.8447	636.8805	657.0958	709.1163	740.7615	765.4915	946.8096	1017.6337	1046.4475	1049.7105	1053.0152	1112.903	1136.8698	1254.3749	1344.4379	1400.8941	1411.8373	1471.7028	1473.8419	1566.6241	1628.271	1663.2775	2363.7672	3028.1219	3088.6137	3095.969	3300.2015	3556.8209	3655.5918
CC#CC1=NC(N)=CO1	CC#Cc1nc(N)co1	
InChI=1S/C6H6N2O/c1-2-3-6-8-5(7)4-9-6/h4H,7H2,1H3	InChI=1S/C6H6N2O/c1-2-3-6-8-5(7)4-9-6/h4H,7H2,1H3
