17
gdb 96813	2.32468	1.48693	0.95298	3.344	72.6	-0.2638	0.0024	0.2663	1219.9793	0.135602	-455.212304	-455.203188	-455.202244	-455.24694	32.136	
C	 0.0491393915	 1.4192027693	 0.0217728914	-0.341604
N	 0.1500792021	-0.0313842845	 0.0277086302	-0.310069
C	 0.5940507129	-0.6425664498	-0.9704157499	 0.437106
O	 1.0305809606	-0.0680775763	-2.1508771445	-0.242842
C	 1.4886620217	-1.0548748365	-3.024060089	 0.476124
O	 1.8970685197	-0.8102412223	-4.1203573267	-0.375398
N	 1.3778755336	-2.2487871505	-2.3789113192	-0.368606
C	 0.7451673128	-2.1542933972	-1.0765274993	-0.081112
C	 1.5587288715	-2.7566334564	 0.0694147665	-0.389379
H	 0.5943831132	 1.8129501814	 0.8860067667	 0.133294
H	 0.4309616922	 1.8935404038	-0.8882090679	 0.136597
H	-1.0014019592	 1.6998870148	 0.154729692	 0.134177
H	 1.554255199	-3.1059680064	-2.8733843127	 0.269705
H	-0.2550332389	-2.6092546276	-1.0896745977	 0.120337
H	 2.5663401746	-2.3327747693	 0.0906185551	 0.130498
H	 1.0628353209	-2.5331125343	 1.0166325369	 0.152499
H	 1.6372393419	-3.8425884581	-0.0393210019	 0.118673
61.403	78.4806	122.5185	175.4037	200.2688	234.3572	289.9267	384.9343	430.7312	464.7829	569.5402	616.9307	664.822	738.0123	767.1143	820.7973	941.3786	975.468	1021.1205	1055.123	1104.9193	1126.7237	1136.5754	1150.1883	1176.8364	1292.966	1326.809	1382.1922	1404.5579	1427.5261	1442.1065	1491.8867	1493.858	1495.1302	1496.7185	1820.6612	1926.4476	3007.768	3025.8293	3046.3868	3088.6147	3101.5443	3120.6283	3139.9702	3682.3945
CN=C1OC(=O)NC1C	CN=C1OC(=O)N[C@H]1C	
InChI=1S/C5H8N2O2/c1-3-4(6-2)9-5(8)7-3/h3H,1-2H3,(H,7,8)	InChI=1S/C5H8N2O2/c1-3-4(6-2)9-5(8)7-3/h3H,1-2H3,(H,7,8)/t3-/m0/s1
