14
gdb 11812	3.60578	1.86336	1.40342	3.2386	58.2	-0.2632	-0.0035	0.2597	864.7367	0.105874	-419.673137	-419.66576	-419.664816	-419.704859	26.973	
O	 0.0342704844	 1.3069494235	-0.2926205674	-0.418739
C	 0.0638252674	-0.0735046791	-0.0605861732	-0.163766
C	 0.0886127032	-0.5521426162	 1.410692953	 0.419065
O	 0.7933412457	-0.4501325751	 2.3616660405	-0.325596
O	-1.1114623125	-1.2128814774	 1.3071799245	-0.262111
C	-1.3007646141	-0.742091512	-0.055796795	 0.456335
C	-2.6060195941	-0.2273163458	-0.5344491786	-0.319377
C	-2.034739509	-1.5370229296	-1.071638725	-0.342807
H	 0.9031532362	 1.666270675	-0.0819148936	 0.303372
H	 0.812037808	-0.5928065952	-0.6758232256	 0.108384
H	-3.4459714566	-0.2932629532	 0.1478484131	 0.137843
H	-2.5923683397	 0.6518769956	-1.1688727284	 0.141272
H	-1.6463552318	-1.5641577585	-2.0843625638	 0.12857
H	-2.5016832571	-2.4566674521	-0.7369541006	 0.137556
98.4753	162.4218	196.2372	247.3878	271.8534	361.121	479.3334	523.9726	576.1331	717.5642	760.7736	805.4348	870.658	886.5374	933.9011	970.9627	1023.3408	1053.8281	1078.4234	1087.158	1158.4698	1183.8211	1191.2284	1266.5216	1293.5751	1367.2597	1444.0115	1451.1079	1509.7613	1943.3651	3009.9942	3135.1265	3142.137	3221.057	3236.2386	3814.2364
OC1C(=O)OC11CC1	O[C@H]1C(=O)OC21CC2	
InChI=1S/C5H6O3/c6-3-4(7)8-5(3)1-2-5/h3,6H,1-2H2	InChI=1S/C5H6O3/c6-3-4(7)8-5(3)1-2-5/h3,6H,1-2H2/t3-/m0/s1
