21
gdb 63030	3.26314	1.20625	1.14617	1.8426	83.01	-0.2462	0.0854	0.3317	1193.5305	0.181112	-387.043686	-387.034929	-387.033985	-387.076451	34.632	
C	-0.0422730983	 1.5420182877	-0.0008561324	-0.460108
C	 0.0584787592	 0.0275049716	 0.0411995685	 0.328594
C	-1.1730682536	-0.6653247187	-0.5231712012	-0.452969
C	 1.3441453377	-0.720972032	-0.2075403013	-0.096691
C	 2.5822124996	 0.011427961	 0.3410843678	-0.344579
C	 1.9095089795	 0.0168595946	 1.7258549099	 0.454733
O	 2.6036077232	-0.4334555593	 2.8761798548	-0.284029
C	 2.0638215889	 0.8986106172	 2.8853527178	-0.270595
C	 0.6986339779	-0.7198469691	 1.1937234884	-0.192214
H	 0.8346467197	 2.0391731766	 0.4183491101	 0.121037
H	-0.1636846766	 1.8911116991	-1.0330154653	 0.113585
H	-0.9159597167	 1.8837450677	 0.5662389812	 0.114481
H	-1.3326869836	-0.3821439491	-1.569922364	 0.115975
H	-1.0767714535	-1.7547360304	-0.4810990367	 0.115754
H	-2.0724043326	-0.3858850777	 0.0371567592	 0.116269
H	 1.3878104058	-1.5369042032	-0.91946667	 0.085239
H	 3.46693636	-0.6297535646	 0.3625294903	 0.121803
H	 2.8457090052	 0.9717350928	-0.1127831213	 0.099335
H	 2.8041379077	 1.698052901	 2.8687411129	 0.111517
H	 1.2254702265	 1.0571681051	 3.5628718027	 0.112116
H	 0.1886771639	-1.5174150502	 1.7218398288	 0.090747
111.8456	188.3859	193.2862	222.4993	254.8634	313.5684	336.8703	364.4258	404.2978	448.0982	496.6138	585.9273	671.8741	808.7103	825.7905	843.4663	867.6062	887.9757	945.568	956.6458	969.444	981.9112	1015.8546	1037.2229	1047.2604	1080.8662	1114.2615	1131.153	1149.5045	1158.3443	1182.697	1207.1301	1250.615	1271.7276	1295.7187	1396.5471	1410.3673	1425.4228	1436.3576	1477.0097	1484.945	1492.9607	1504.1225	1512.5448	1535.1103	3023.3596	3029.0433	3050.7359	3076.2636	3081.078	3086.7475	3100.8803	3109.6719	3125.1076	3161.8599	3173.2856	3183.6863
CC1(C)C2CC3(OC3)C12	CC1(C)[C@H]2C[C@]3(OC3)[C@@H]12	
InChI=1S/C8H12O/c1-7(2)5-3-8(4-9-8)6(5)7/h5-6H,3-4H2,1-2H3	InChI=1S/C8H12O/c1-7(2)5-3-8(4-9-8)6(5)7/h5-6H,3-4H2,1-2H3/t5-,6+,8+/m0/s1
