17
gdb 109326	2.01106	1.49538	0.9217	3.8121	74.64	-0.2399	-0.0005	0.2393	1239.167	0.136529	-418.008391	-417.999517	-417.998573	-418.042668	31.845	
O	 0.1428854333	 1.3910296119	 0.0445544345	-0.40396
C	 0.0252116448	-0.0079819672	 0.2143468435	-0.174802
C	-1.384249642	-0.5040771082	 0.0790470414	 0.296283
C	-2.4996937742	 0.2107956149	-0.0319716355	-0.17904
C	-3.7170177932	-0.660754333	-0.1349768061	-0.205293
N	-3.1555332605	-2.0169165375	-0.2526146539	-0.302536
C	-1.7287630895	-1.9884781931	 0.0807962131	-0.229945
C	-0.9257628095	-2.754497617	-0.8994466394	 0.29872
N	-0.2749815575	-3.3478759325	-1.6477477279	-0.335167
H	-0.0535016971	 1.5887823351	-0.8772675869	 0.289442
H	 0.6800826923	-0.5618742115	-0.4770682709	 0.126046
H	 0.3994147201	-0.2216592312	 1.2247217779	 0.12851
H	-2.5414791142	 1.2921375852	-0.0286887668	 0.115885
H	-4.3641884859	-0.5409033006	 0.7496766106	 0.106283
H	-4.334901381	-0.4138609074	-1.0101422026	 0.119727
H	-3.6611155999	-2.7085947505	 0.2813863813	 0.233238
H	-1.5016604958	-2.4268921273	 1.0689446275	 0.116609
64.4314	83.0605	133.4313	198.0226	233.487	240.3824	322.2485	394.2068	437.7229	514.2049	542.6691	621.7332	696.039	814.0872	827.1324	886.2743	949.2259	967.9242	992.7598	1015.6134	1048.0027	1080.662	1125.2867	1167.8962	1199.0914	1215.7852	1254.0327	1271.8447	1335.4597	1374.4609	1396.368	1418.4704	1446.6984	1491.5606	1519.7554	1734.3286	2353.3861	2936.3774	2964.5921	2984.1871	3005.9582	3035.148	3226.0414	3595.6203	3813.4237
OCC1=CCNC1C#N	OCC1=CCN[C@H]1C#N	
InChI=1S/C6H8N2O/c7-3-6-5(4-9)1-2-8-6/h1,6,8-9H,2,4H2	InChI=1S/C6H8N2O/c7-3-6-5(4-9)1-2-8-6/h1,6,8-9H,2,4H2/t6-/m0/s1
