14
gdb 20460	4.93208	2.00595	1.45963	2.8791	62.51	-0.2335	-0.0105	0.223	802.7507	0.110694	-378.696815	-378.690636	-378.689692	-378.728017	22.759	
C	-0.034911757	 1.5011137282	 0.1718084631	-0.296466
N	 1.3051933834	 1.955619957	-0.2941986842	-0.308875
C	 2.207104992	 0.7830883624	-0.5375825788	-0.301856
C	 1.2936152732	-0.3972037628	-0.3863379645	 0.166163
C	 0.068145377	 0.0208857655	-0.0001003776	 0.375177
O	-0.7697062589	-0.9913380591	 0.2047633524	-0.224746
N	-0.0624622092	-2.1818938144	-0.0697707032	-0.141805
C	 1.1542630533	-1.8069831296	-0.4072083005	-0.12907
H	-0.2061276768	 1.7750956093	 1.2222782999	 0.133268
H	-0.8405721109	 1.9575762237	-0.414459468	 0.126482
H	 1.1930785965	 2.4652451839	-1.1598289402	 0.229862
H	 2.6733707929	 0.8610481245	-1.5263285903	 0.114718
H	 3.0221780437	 0.7709780191	 0.1985904061	 0.123059
H	 1.869933771	-2.5776543175	-0.6580546742	 0.13409
37.3554	212.4737	249.203	414.9927	583.0587	633.0127	654.7678	710.6665	719.9492	830.5881	865.5426	890.1625	907.0294	978.3233	1025.4518	1047.6083	1059.0303	1141.8084	1192.8119	1201.6334	1219.8794	1297.5138	1323.9685	1391.624	1420.5467	1455.9075	1506.6472	1511.5315	1518.7239	1657.1318	3005.1158	3009.1437	3049.1349	3052.7286	3240.5185	3573.4053
C1NCC2=C1ON=C2	C1NCc2c1onc2	
InChI=1S/C5H6N2O/c1-4-2-7-8-5(4)3-6-1/h2,6H,1,3H2	InChI=1S/C5H6N2O/c1-4-2-7-8-5(4)3-6-1/h2,6H,1,3H2
