18
gdb 49060	2.72375	1.58999	1.28212	3.2025	77.29	-0.222	-0.0294	0.1927	1032.3142	0.148324	-401.939157	-401.931377	-401.930433	-401.971857	29.55	
O	-0.763778344	 1.0182096016	 0.7459255054	-0.253345
C	 0.0478474497	 1.1153415657	-0.1371348131	 0.117215
C	 1.3683751194	 1.859359765	-0.0263712696	 0.224316
C	 1.4232814663	 3.0150519558	 1.0024228636	-0.305025
C	 1.8753216339	 3.9069052062	-0.1798897924	-0.16218
N	 1.5632207946	 2.8242565019	-1.1587244446	-0.137948
C	 2.6824336514	 2.3517714866	-1.9924875545	-0.233974
C	 3.2650979841	 1.1902138044	-1.2161290144	-0.070013
C	 2.5484995811	 0.923206691	-0.1249643103	-0.152629
H	-0.1170757848	 0.6636047641	-1.1416713658	 0.079403
H	 0.4421951293	 3.2538336255	 1.4145256826	 0.129343
H	 2.1385134883	 2.8964353069	 1.8165376167	 0.110355
H	 1.3044567197	 4.8242796803	-0.3519503789	 0.110066
H	 2.9431110349	 4.1590367212	-0.1477765972	 0.09908
H	 2.3397226388	 2.0389312861	-2.9890833659	 0.114031
H	 3.4083912752	 3.1605527612	-2.1546115074	 0.109913
H	 4.150553543	 0.6518589518	-1.534980072	 0.107934
H	 2.737020049	 0.1342971247	 0.5932735778	 0.113457
64.6019	114.7879	191.3963	225.5345	308.6169	383.7397	462.2987	473.6908	654.3256	699.5081	743.9939	753.1492	795.2438	834.4981	908.6367	934.4993	951.6297	963.5225	971.3516	992.9104	1017.329	1072.4863	1111.5734	1135.2098	1175.0373	1194.5573	1201.0741	1218.5274	1240.1942	1258.6419	1317.4986	1332.5822	1349.3727	1408.2055	1490.4633	1500.7872	1520.3648	1664.0842	1828.7898	2877.2447	2998.6878	3016.6584	3025.9638	3074.1565	3090.7191	3147.2431	3193.024	3218.4916
O=CC12CCN1CC=C2	O=C[C@]12CCN1CC=C2	
InChI=1S/C7H9NO/c9-6-7-2-1-4-8(7)5-3-7/h1-2,6H,3-5H2	InChI=1S/C7H9NO/c9-6-7-2-1-4-8(7)5-3-7/h1-2,6H,3-5H2/t7-/m0/s1
