20
gdb 73206	2.47383	1.79967	1.36175	2.2664	78.33	-0.2435	0.0314	0.2749	1022.0105	0.172709	-403.156273	-403.148308	-403.147363	-403.188615	31.333	
C	-0.4701809051	 1.4103124508	 0.2141584319	-0.455281
C	 0.0537417567	 0.0012062117	-0.0556815172	 0.275368
C	-1.0050426196	-1.1014765249	 0.2784106592	-0.269423
C	-0.3146112918	-1.3159132888	 1.6521178722	-0.233553
C	 0.9163988461	-0.5369062148	 1.1272314691	 0.092576
O	 1.9662511151	-1.4382128018	 0.7486996033	-0.244309
C	 2.1404861252	-1.7435408616	-0.5596998545	 0.123617
N	 1.6304586031	-1.227486849	-1.5932021161	-0.270782
C	 0.7370477249	-0.0889573789	-1.4189115003	-0.222591
H	 0.3453391349	 2.1420884565	 0.2120602012	 0.118555
H	-1.1898428024	 1.7059896714	-0.5576478523	 0.121092
H	-0.9788080945	 1.4776155273	 1.1819384889	 0.115186
H	-2.0480209698	-0.7759823191	 0.2894121719	 0.097644
H	-0.9157187895	-1.9725462906	-0.3756621117	 0.11567
H	-0.815372824	-0.7940580893	 2.4711238759	 0.107409
H	-0.1062799743	-2.3415739425	 1.9610485614	 0.111227
H	 1.3736488605	 0.2024999385	 1.790375413	 0.081555
H	 2.8520454379	-2.5635727797	-0.6438539335	 0.120329
H	-0.020714891	-0.1205113012	-2.2120416681	 0.107694
H	 1.3233694377	 0.8241269859	-1.5984347144	 0.108016
88.177	127.6481	247.3946	265.2553	319.5816	346.989	391.5547	482.5425	490.5968	527.9254	647.2238	727.8078	792.0615	862.2446	875.2678	919.8357	942.864	948.166	955.8935	969.6999	983.484	1021.2559	1029.1644	1127.9353	1162.4349	1169.7422	1196.9034	1212.8489	1243.8548	1261.3553	1274.4577	1301.3667	1302.9612	1356.6497	1387.3863	1413.3499	1417.4355	1471.1494	1481.5913	1490.0144	1496.4961	1498.2733	1736.8125	2999.6477	3023.688	3038.0134	3061.3296	3063.8671	3075.2886	3092.4441	3093.9813	3111.4561	3132.2707	3153.0144
CC12CCC1OC=NC2	C[C@]12CC[C@H]1OC=NC2	
InChI=1S/C7H11NO/c1-7-3-2-6(7)9-5-8-4-7/h5-6H,2-4H2,1H3	InChI=1S/C7H11NO/c1-7-3-2-6(7)9-5-8-4-7/h5-6H,2-4H2,1H3/t6-,7-/m1/s1
