15
gdb 23196	3.31825	1.17583	0.94257	2.4473	72.49	-0.2445	-0.0451	0.1994	1191.6576	0.111257	-453.859795	-453.851649	-453.850705	-453.892684	30.066	
O	-0.2470509001	 1.4457478136	 0.0255566285	-0.384359
N	 0.0119017483	 0.0673392307	 0.0048141742	-0.257641
C	-1.062573393	-0.5959999572	-0.0810647473	 0.402033
C	-2.5615068282	-0.2987916581	-0.036592775	-0.32085
C	-2.7770074154	-1.8224889337	 0.0700072446	-0.082303
N	-2.2230483906	-2.4306825007	-1.1174528969	-0.349713
C	-1.26380483	-2.0713067101	-0.0234463856	 0.13927
C	-0.5298091801	-3.1318149557	 0.6803234198	 0.054062
O	-0.8346951682	-4.3024721978	 0.601249032	-0.28414
H	 0.6383908651	 1.8199740719	 0.0904292731	 0.311832
H	-2.8378598726	 0.2595449506	 0.8613814466	 0.138447
H	-2.9997859977	 0.1720703036	-0.919057917	 0.141935
H	-3.4628315581	-2.3463529231	 0.7239770088	 0.130204
H	-2.3288890953	-3.4456298223	-1.0318442566	 0.258453
H	 0.313814516	-2.7846658118	 1.3083108808	 0.102769
107.4339	124.5605	166.8067	233.8811	245.817	351.0773	393.457	426.5539	454.1964	520.4374	625.7717	723.9283	740.3079	787.7404	857.0752	906.7331	937.4602	991.5138	1017.9137	1034.3423	1061.5109	1095.488	1141.1398	1175.8302	1222.5914	1287.8607	1339.5555	1376.7014	1407.0008	1442.73	1463.7252	1777.6455	1792.3825	2945.8503	3072.9811	3129.9782	3204.4376	3435.6378	3816.2457
ON=C1CC2NC12C=O	ON=C1C[C@H]2N[C@@]12C=O	
InChI=1S/C5H6N2O2/c8-2-5-3(6-5)1-4(5)7-9/h2-3,6,9H,1H2	InChI=1S/C5H6N2O2/c8-2-5-3(6-5)1-4(5)7-9/h2-3,6,9H,1H2/t3-,5-/m1/s1
