22
gdb 104072	2.6094	1.22281	1.06848	1.567	82.8	-0.2372	0.035	0.2722	1288.0311	0.192917	-404.393938	-404.383966	-404.383022	-404.429082	36.837	
C	 0.055321045	 1.5986332992	 0.2047293187	-0.394602
C	 0.1124991595	 0.0711090004	 0.1157113347	-0.210212
C	 0.641149246	-0.4913556369	-1.2109192273	 0.367577
C	 2.0549693301	-0.0294873746	-1.5534873757	-0.437868
C	 0.4741999515	-2.0402261943	-1.2964920704	-0.234669
N	-0.486008838	-2.2804644801	-2.3780104317	-0.309891
C	-0.8067759876	-1.1378489561	-2.833700427	 0.398742
C	-1.7615461458	-0.8696798248	-3.9472821629	-0.475158
O	-0.2455871912	-0.0292570332	-2.2799894359	-0.28602
H	 1.0524166841	 2.0487137902	 0.182362656	 0.116929
H	-0.5215950185	 2.0118802976	-0.6271973322	 0.132472
H	-0.4232950892	 1.9104212437	 1.1379265305	 0.113208
H	 0.7366447869	-0.3325860967	 0.9235232442	 0.098921
H	-0.8924776056	-0.3406767972	 0.2687751021	 0.104169
H	 2.7554599387	-0.341993703	-0.7718921905	 0.118192
H	 2.3783701073	-0.4738423268	-2.4992504831	 0.123951
H	 2.1095527957	 1.057389195	-1.651959631	 0.127572
H	 1.4226073039	-2.5440408609	-1.5173898851	 0.106096
H	 0.096365117	-2.463140281	-0.3580480388	 0.106656
H	-2.1569076941	-1.8115537636	-4.3259844805	 0.150343
H	-2.5848452412	-0.2388437527	-3.5974313629	 0.141544
H	-1.2596917546	-0.3290080843	-4.755933861	 0.142049
39.2209	101.0261	136.4655	190.1294	218.428	230.4147	265.4295	297.9547	338.4946	364.2536	438.6245	477.1533	606.8371	615.5037	689.0173	781.8679	807.9337	887.9243	910.9567	959.6499	979.4794	983.021	1006.1817	1034.1687	1066.478	1072.3202	1083.3596	1173.0903	1177.0137	1213.3643	1268.7435	1284.262	1321.6318	1356.6705	1373.9853	1406.6771	1409.6349	1416.0469	1472.9917	1476.0786	1476.895	1487.1507	1492.8443	1502.5292	1506.1405	1511.6858	1741.1107	3020.4002	3026.2008	3040.3057	3043.7154	3049.7626	3055.0955	3059.164	3106.5138	3107.3251	3110.657	3120.7208	3124.9559	3164.9088
CCC1(C)CN=C(C)O1	CC[C@@]1(C)CN=C(C)O1	
InChI=1S/C7H13NO/c1-4-7(3)5-8-6(2)9-7/h4-5H2,1-3H3	InChI=1S/C7H13NO/c1-4-7(3)5-8-6(2)9-7/h4-5H2,1-3H3/t7-/m0/s1
