18
gdb 86476	2.32285	1.33978	0.98018	1.0177	85.72	-0.2212	0.0286	0.2498	1254.2772	0.144482	-364.709427	-364.699987	-364.699043	-364.743387	35.45	
C	-0.0215725926	 1.5256430702	 0.0278779278	-0.325851
N	-0.0318192537	 0.0836566877	 0.1138867911	-0.060951
C	-1.2657919614	-0.586784671	 0.5434875033	-0.194347
C	-0.3945418294	-1.6417597544	 1.3242512218	-0.062198
C	 0.7444475854	-0.563133888	 1.1796355171	-0.19435
C	-0.8203232904	-1.9494174319	 2.6812187954	 0.251503
C	-1.1738865526	-2.1779407896	 3.8066327755	-0.436574
C	-0.1356991009	-2.8504455491	 0.551291337	 0.309618
C	 0.0791865145	-3.8426038084	-0.0908869733	-0.460431
H	 0.9839481054	 1.8738252935	-0.2305373872	 0.125295
H	-0.7026215498	 1.8539696325	-0.7642424722	 0.125295
H	-0.3256259619	 2.020548363	 0.9703063408	 0.09296
H	-1.8747240198	 0.0030797939	 1.2460638404	 0.097816
H	-1.8958289236	-0.9753593077	-0.2611469495	 0.12052
H	 1.7307876023	-0.9327040745	 0.886504193	 0.12052
H	 0.8256386703	 0.034837627	 2.1006054432	 0.097818
H	-1.4858427824	-2.3922579219	 4.7988112258	 0.196027
H	 0.2681805505	-4.7221848913	-0.6549730301	 0.197331
77.5728	126.1878	160.8304	172.2421	233.4487	243.7153	329.129	336.0486	457.2464	464.3592	500.1122	572.9451	574.8432	627.3586	634.7662	636.1563	638.7904	733.0181	878.1145	948.0452	961.0397	988.4805	1024.9622	1098.3762	1119.1653	1131.477	1191.2274	1236.9033	1245.3088	1269.8201	1297.4431	1339.8953	1452.308	1485.9032	1498.1484	1499.6119	1525.205	2238.1887	2242.777	2924.2157	2978.7598	2988.4016	3058.9586	3085.7711	3086.9402	3101.1238	3501.8023	3503.0603
CN1CC(C1)(C#C)C#C	CN1CC(C1)(C#C)C#C	
InChI=1S/C8H9N/c1-4-8(5-2)6-9(3)7-8/h1-2H,6-7H2,3H3	InChI=1S/C8H9N/c1-4-8(5-2)6-9(3)7-8/h1-2H,6-7H2,3H3
