15
gdb 86877	3.0235	1.23649	0.98859	1.4066	61.25	-0.2772	-0.0552	0.222	1150.1935	0.111317	-494.944137	-494.935892	-494.934947	-494.977829	29.48	
O	 0.4640880348	 0.7808568311	 0.7201259154	-0.431615
C	 0.0211419263	-0.286775437	-0.0692565908	 0.012361
C	-1.4977807266	-0.3714837381	-0.2142095862	-0.271825
C	-1.6389188881	-1.0102625605	-1.6061645732	-0.003659
O	-0.4661776908	-0.6259360008	-2.3594343211	-0.225074
C	 0.4846868457	-0.1429677654	-1.5195587359	 0.410895
O	 1.5156157002	 0.3400113861	-1.8885073915	-0.343498
C	-1.729450924	-2.5349105006	-1.5866830653	 0.133838
O	-2.3147861763	-3.1518683938	-0.7377249735	-0.225242
H	 1.3047281505	 1.07181619	 0.3393887367	 0.299683
H	 0.4170138149	-1.2505155339	 0.2989904459	 0.111307
H	-1.9925819749	-0.9789871759	 0.5435731074	 0.149572
H	-1.9141503252	 0.6386673403	-0.2015100608	 0.134623
H	-2.5091983309	-0.6369874919	-2.1577887278	 0.13785
H	-1.2167578857	-3.0274691496	-2.4407699195	 0.110785
61.3576	91.8612	127.9589	224.4176	268.1048	369.3235	376.6005	415.9948	486.2155	577.9552	601.4372	696.7852	750.7791	814.9741	841.2696	956.1856	981.4662	1034.8773	1076.6447	1081.1447	1141.4911	1178.1492	1188.8894	1269.2284	1272.7956	1322.513	1342.9101	1379.8117	1399.9798	1422.8542	1492.5978	1837.7976	1883.6299	2913.4376	2944.888	3053.6516	3084.6544	3148.9191	3749.1619
OC1CC(OC1=O)C=O	O[C@H]1C[C@@H](OC1=O)C=O	
InChI=1S/C5H6O4/c6-2-3-1-4(7)5(8)9-3/h2-4,7H,1H2	InChI=1S/C5H6O4/c6-2-3-1-4(7)5(8)9-3/h2-4,7H,1H2/t3-,4+/m1/s1
