23
gdb 106770	2.1028	1.45547	1.0949	1.6777	86.14	-0.2223	0.0792	0.3015	1266.3115	0.203517	-388.271559	-388.261505	-388.260561	-388.306148	38.002	
C	 0.2701761224	 1.5359989492	 0.3105143032	-0.370887
C	-0.0758007141	 0.065801172	 0.0314687809	-0.298371
C	 0.5655584348	-0.4663483139	-1.2208461399	 0.225306
C	 2.0219030651	-0.9079367821	-1.2939084997	-0.391438
C	 0.9319586679	-1.8620594199	-1.687125009	 0.411085
C	 0.713097575	-3.2444251818	-1.1642195035	-0.487839
O	 0.5338241197	-1.593867916	-3.039099344	-0.343849
C	 0.0815745881	-0.2568025366	-2.6629891742	 0.097284
C	-1.4136762439	-0.1187403652	-2.8706135357	-0.40715
H	 1.3518118201	 1.6708027468	 0.4121059802	 0.120612
H	-0.0685300501	 2.1852134973	-0.5039747541	 0.117088
H	-0.2037264948	 1.8849460924	 1.2332868041	 0.110504
H	 0.2436615702	-0.548912447	 0.8826200857	 0.09682
H	-1.1654231484	-0.0480493816	-0.0302839681	 0.099713
H	 2.6894860956	-0.514415679	-2.0565945085	 0.106176
H	 2.4847237451	-1.0883449355	-0.327319915	 0.105383
H	 0.9699153534	-3.2993031277	-0.102263654	 0.120938
H	-0.3296426879	-3.5525512498	-1.2899026821	 0.124344
H	 1.3454910009	-3.9615797665	-1.7002050465	 0.131644
H	 0.6218696699	 0.5085675739	-3.2369876928	 0.071674
H	-1.9607407221	-0.8710549227	-2.2946380301	 0.120471
H	-1.7606308622	 0.8756803912	-2.568327882	 0.114201
H	-1.654070715	-0.2569014775	-3.9290521847	 0.126291
73.7891	121.4266	145.5377	183.2052	196.6594	236.1482	258.172	267.7191	357.9171	392.8555	445.6144	474.1739	495.5012	604.6314	709.3032	774.2241	798.4414	833.7049	886.4265	893.7614	935.9002	979.6137	989.9542	1003.3414	1050.8051	1062.4185	1070.0097	1098.6796	1112.9363	1127.9062	1187.3531	1224.1125	1275.0766	1297.0703	1331.4754	1362.1598	1383.0847	1397.3349	1405.7971	1408.4614	1428.3288	1472.2231	1478.6729	1484.4381	1491.153	1495.0946	1497.9616	1505.7122	1512.7034	3007.576	3020.7836	3031.2432	3033.587	3033.9189	3051.8834	3094.0273	3101.4591	3103.808	3104.7651	3107.1112	3114.0747	3115.9746	3194.2259
CCC12CC1(C)OC2C	CC[C@@]12C[C@]1(C)O[C@H]2C	
InChI=1S/C8H14O/c1-4-8-5-7(8,3)9-6(8)2/h6H,4-5H2,1-3H3	InChI=1S/C8H14O/c1-4-8-5-7(8,3)9-6(8)2/h6H,4-5H2,1-3H3/t6-,7-,8-/m0/s1
