12
gdb 11692	5.12123	1.56002	1.36261	4.1488	62.63	-0.2651	-0.0181	0.247	864.8396	0.082404	-381.298242	-381.291586	-381.290642	-381.329066	25.141	
O	-0.066524925	 0.1092077493	-0.0748388145	-0.31593
C	 0.0375463898	 1.2863435601	 0.0184742736	 0.468928
O	-0.9821354979	 2.2099507519	 0.2278087106	-0.285152
C	-0.0367687116	 3.3143952312	 0.0461001977	 0.294005
C	 0.9662997776	 3.252308573	 1.1485144291	-0.322777
C	 1.1211502072	 2.328512848	-0.0610413618	-0.318745
C	-0.4161499497	 4.4246482411	-0.7455819395	 0.231895
C	-0.7395289079	 5.3771042919	-1.4036605391	-0.399107
H	 1.6873391201	 4.0625224984	 1.183029044	 0.148731
H	 0.6613761088	 2.8493951049	 2.1086696324	 0.147003
H	 1.9892756331	 2.3254072	-0.7030259726	 0.144066
H	-1.0289883846	 6.2145650803	-1.98984472	 0.207083
112.04	164.731	252.4436	420.8869	445.7743	495.6956	519.835	597.6695	614.3048	692.9842	703.6955	756.0711	834.3783	895.8392	935.5381	964.9366	986.0856	1030.6044	1067.3601	1098.6897	1192.4644	1234.2193	1380.6598	1478.5694	1952.8534	2245.626	3131.1742	3227.6396	3239.0232	3499.3377
O=C1OC2(CC12)C#C	O=C1O[C@]2(C[C@@H]12)C#C	
InChI=1S/C6H4O2/c1-2-6-3-4(6)5(7)8-6/h1,4H,3H2	InChI=1S/C6H4O2/c1-2-6-3-4(6)5(7)8-6/h1,4H,3H2/t4-,6-/m0/s1
