18
gdb 14461	3.79827	2.1182	2.07867	1.4867	69.72	-0.2258	0.0988	0.3246	771.9361	0.156456	-347.810504	-347.80424	-347.803296	-347.840411	26.11	
C	-0.0171516173	 1.4945162	 0.0308562199	-0.503051
C	 0.0193168462	-0.0062411685	-0.0408025409	 0.301196
C	 0.1864620026	-0.7808521176	-1.3473467952	-0.273407
C	 0.0515766746	-2.1840583553	-0.7175966855	 0.053069
C	 1.1376793991	-2.1628539541	 0.382587956	-0.227836
C	 0.6277829716	-0.8948469741	 1.0553655262	-0.15548
C	-0.8620888861	-0.9156093318	 0.7865924063	 0.056313
O	-1.1688699263	-2.0761955057	 0.0360333663	-0.261228
H	 0.9339626473	 1.9364378217	-0.2889392704	 0.117264
H	-0.8061985646	 1.9042702379	-0.6104573774	 0.119309
H	-0.2099260051	 1.838783309	 1.0526408638	 0.115796
H	-0.6135729701	-0.5724151453	-2.0643931954	 0.100703
H	 1.1562911886	-0.6238475329	-1.829513796	 0.095932
H	 0.0021322278	-3.046562156	-1.3788353942	 0.078501
H	 1.0836205894	-3.0428883208	 1.0297075347	 0.104363
H	 2.1482246186	-2.0724137158	-0.0258931198	 0.098119
H	 1.0528515906	-0.4840411386	 1.9616686038	 0.083208
H	-1.6382267971	-0.596439592	 1.4683289678	 0.09723
209.1794	235.1666	285.3237	416.9474	450.2852	554.0187	575.2957	667.9653	725.666	805.6604	866.3704	879.7737	893.7685	903.2488	922.2641	950.6847	969.9816	998.3867	1006.734	1039.722	1054.4693	1070.85	1111.1504	1150.0839	1167.8985	1183.2459	1239.2205	1245.9981	1277.1135	1283.6527	1315.3966	1342.4425	1417.8644	1425.8247	1477.171	1490.5665	1494.7038	1502.3032	3020.1182	3049.4216	3057.7015	3078.7073	3090.0927	3099.7036	3107.6083	3148.5588	3200.2254	3217.5259
CC12CC3CC1C2O3	C[C@@]12C[C@H]3C[C@@H]1[C@@H]2O3	
InChI=1S/C7H10O/c1-7-3-4-2-5(7)6(7)8-4/h4-6H,2-3H2,1H3	InChI=1S/C7H10O/c1-7-3-4-2-5(7)6(7)8-4/h4-6H,2-3H2,1H3/t4-,5-,6+,7-/m1/s1
