16
gdb 32554	2.62207	1.57679	0.99088	2.9084	77.21	-0.209	-0.0194	0.1896	1144.7418	0.125612	-437.891867	-437.884077	-437.883133	-437.92428	29.475	
C	 0.0477266524	 1.3487260149	-0.0833629175	-0.247254
O	-0.0229708171	-0.0640204779	-0.0748708019	-0.228529
C	-1.2410367788	-0.6316235133	 0.0279657503	 0.267165
C	-2.4002155189	 0.0565184814	 0.1236081338	-0.083784
O	-3.6290868825	-0.538005738	 0.2273973176	-0.199414
C	-3.670778586	-1.8838912086	 0.2333217091	 0.064264
C	-2.5821823119	-2.6628427645	 0.1437466783	-0.230102
C	-1.2384179101	-2.1064702863	 0.0304161699	 0.218418
N	-0.1306348542	-2.7517904522	-0.0609982415	-0.530191
H	 1.1052172863	 1.5995528701	-0.1722054698	 0.144538
H	-0.5002009616	 1.7729782747	-0.9356746103	 0.123497
H	-0.351244526	 1.7762324324	 0.8465349531	 0.123497
H	-2.4906571731	 1.1312749664	 0.1292235882	 0.128373
H	-4.6872127337	-2.2471818079	 0.31894055	 0.136952
H	-2.7048623436	-3.7401555325	 0.1559590809	 0.107403
H	-0.3165837212	-3.7573696588	-0.0436265704	 0.205167
98.7025	132.8599	231.9548	250.4817	326.8373	348.916	421.4202	486.054	516.867	541.1049	593.8082	745.4331	759.1726	815.6911	821.5732	867.8396	894.3613	945.8171	1004.7029	1070.2902	1095.7747	1171.1042	1177.5463	1223.1515	1283.2883	1298.3478	1355.618	1416.3939	1453.2438	1487.1008	1490.5056	1506.6383	1636.0784	1656.2586	1706.3706	2998.183	3055.7509	3142.6162	3192.6092	3223.2775	3256.7885	3436.6001
COC1=COC=CC1=N	COC1=COCC=C1[NH]	
InChI=1S/C6H7NO2/c1-8-6-4-9-3-2-5(6)7/h2-4,7H,1H3	InChI=1S/C6H8NO2/c1-8-6-4-9-3-2-5(6)7/h2,4,7H,3H2,1H3
