17
gdb 88063	2.69526	1.22599	1.06963	2.8122	69.71	-0.2509	-0.034	0.217	1184.7629	0.132705	-458.923999	-458.915101	-458.914157	-458.95834	31.482	
C	 0.0276419836	 1.5725628	-0.1418022676	-0.420366
C	 0.0551796925	 0.0709984785	-0.0426074269	-0.01198
O	 1.3549930722	-0.564136878	-0.051051284	-0.273478
C	 0.5919672496	-0.630597463	 1.1239355091	 0.320103
C	 1.0449796679	-0.1472500178	 2.4985781916	-0.145347
O	 0.5958941385	-1.3847484854	 3.0962643711	-0.271741
C	 0.1849768823	-1.9357268404	 1.8414013402	-0.038829
C	-1.2828553836	-2.2903298175	 1.759588876	 0.133984
O	-2.0955999922	-2.0645848913	 2.6145292041	-0.231636
H	 0.7774846831	 2.0233982532	 0.5134369792	 0.131558
H	 0.2314224286	 1.8932009288	-1.1681937905	 0.138735
H	-0.9594872898	 1.9527857838	 0.1413256552	 0.135274
H	-0.6803638724	-0.4537075873	-0.6542930937	 0.102134
H	 2.1282401464	-0.0075943594	 2.5921053125	 0.121928
H	 0.5187484796	 0.7219207025	 2.9096139872	 0.12188
H	 0.7906622389	-2.8009245451	 1.5311454869	 0.111458
H	-1.5596090354	-2.7779433718	 0.7944959896	 0.076324
65.7585	77.0647	161.8282	178.9638	188.7751	228.8899	278.276	421.4852	435.7288	467.9631	557.0798	747.2988	781.0401	799.1339	874.7802	928.991	962.4087	987.0559	1008.7019	1042.8312	1100.3711	1108.327	1120.3986	1136.8891	1153.2769	1199.3861	1222.027	1311.5324	1335.1184	1369.0138	1411.8443	1415.3898	1474.2946	1488.9416	1510.3199	1530.5134	1841.9521	2849.4146	2999.9203	3026.1078	3040.9106	3076.0687	3098.5721	3108.3195	3127.5839
CC1OC11COC1C=O	C[C@H]1O[C@]21CO[C@H]2C=O	
InChI=1S/C6H8O3/c1-4-6(9-4)3-8-5(6)2-7/h2,4-5H,3H2,1H3	InChI=1S/C6H8O3/c1-4-6(9-4)3-8-5(6)2-7/h2,4-5H,3H2,1H3/t4-,5+,6+/m1/s1
