21
gdb 73624	2.38945	1.80724	1.37447	1.1967	82.42	-0.2389	0.0273	0.2662	1041.5266	0.184526	-387.119139	-387.111247	-387.110303	-387.151416	31.809	
C	 0.2112127977	 1.4028213683	-0.205811791	-0.445994
C	-0.0787977575	-0.077465854	 0.0435345509	 0.413677
C	-1.5868886659	-0.3700168787	 0.2590080726	-0.316733
C	-1.6452201603	-1.0871789124	 1.5824541792	-0.072053
C	-0.4468177262	-1.2212495641	 2.1482578079	-0.083896
C	 0.6625416195	-0.6554577453	 1.3020561838	-0.096225
C	 1.6488515594	-1.7025582851	 0.7194150343	-0.23429
C	 1.6910591626	-1.3261096614	-0.7661786014	-0.087883
O	 0.3860306657	-0.8589183294	-1.0678467804	-0.289541
H	 1.2833335515	 1.5782979024	-0.342539174	 0.111763
H	-0.3085140604	 1.7458984843	-1.1057225336	 0.120722
H	-0.1245616961	 2.0120283926	 0.6401981637	 0.114446
H	-2.1845657216	 0.550315752	 0.26730119	 0.099238
H	-1.9627743131	-0.9824074489	-0.5686639339	 0.120535
H	-2.5770875817	-1.447554684	 2.0059031086	 0.090588
H	-0.2556171113	-1.705948106	 3.1002070046	 0.091285
H	 1.2187300181	 0.1277283436	 1.8303666669	 0.070942
H	 2.6339593131	-1.6756296084	 1.1923021234	 0.096828
H	 1.2413993251	-2.7108702899	 0.8379239285	 0.106503
H	 2.4459906398	-0.54383821	-0.9510152654	 0.084554
H	 1.9077824116	-2.1664614054	-1.4315594947	 0.105535
65.1354	201.8822	236.2007	265.1898	307.5855	363.0884	410.5574	464.3723	588.6222	602.1718	620.3076	732.5609	770.8677	796.6815	878.2365	894.0291	917.9099	939.0065	951.6227	971.2817	977.9108	991.1736	1052.6049	1069.9325	1100.0853	1119.4905	1130.9688	1161.5742	1189.7201	1218.3714	1231.4626	1250.6163	1290.0103	1301.7424	1323.1306	1351.7235	1375.6143	1384.936	1403.1523	1471.6604	1488.7935	1491.4165	1493.1423	1520.5391	1689.5657	2964.5805	3023.489	3028.3674	3032.7847	3055.5187	3063.0936	3086.4391	3100.3201	3106.7537	3108.422	3172.7079	3198.3243
CC12CC=CC1CCO2	C[C@]12CC=C[C@H]1CCO2	
InChI=1S/C8H12O/c1-8-5-2-3-7(8)4-6-9-8/h2-3,7H,4-6H2,1H3	InChI=1S/C8H12O/c1-8-5-2-3-7(8)4-6-9-8/h2-3,7H,4-6H2,1H3/t7-,8-/m0/s1
