18
gdb 120129	3.42952	0.90975	0.85151	3.2907	72.96	-0.2438	-0.0248	0.219	1388.9785	0.146687	-439.042636	-439.033912	-439.032968	-439.076851	32.034	
O	-0.4356046643	 1.5076584731	-0.9971488532	-0.418292
C	-0.4577761255	 0.0964782012	-1.1200939779	-0.064606
C	-1.5114884076	-0.4297905095	-0.1485004986	-0.230725
C	-1.5496977514	-1.943507731	-0.1230272658	 0.006073
C	-2.7242676737	-2.7859479164	 0.2619184915	-0.19599
N	-2.1245692002	-2.8100525693	-1.1578180481	-0.138631
C	-3.3611434393	-2.1254030921	-1.6841041348	-0.296783
C	-3.9966796993	-2.2046830493	-0.2832265644	 0.411012
O	-5.1076161103	-2.0821795288	 0.1442191034	-0.303667
H	 0.2178706877	 1.8555476982	-1.6108114176	 0.289611
H	-0.7068703516	-0.2170517866	-2.1466506335	 0.097005
H	 0.5222987175	-0.3462091119	-0.8773354664	 0.090567
H	-1.2623424066	-0.0759527093	 0.8585105172	 0.123006
H	-2.4794879739	 0.012639549	-0.3958635963	 0.123809
H	-0.612268201	-2.377793707	 0.2256053896	 0.109869
H	-2.6437074973	-3.6111022936	 0.9613030579	 0.120832
H	-3.2027298509	-1.1515036777	-2.1525758951	 0.132179
H	-3.8819998024	-2.7845175492	-2.3840562979	 0.144732
69.185	86.2624	99.9211	187.6359	266.0475	305.8515	386.2087	390.7425	452.5746	534.6363	599.2377	660.1787	705.8046	792.934	811.4922	886.6436	941.6731	967.3488	995.8909	1021.1482	1025.2676	1068.6606	1088.2207	1122.1028	1124.9573	1173.1505	1226.0864	1237.9448	1248.499	1254.7757	1303.067	1322.4966	1328.4744	1436.5821	1461.4225	1465.427	1496.9265	1526.887	1891.6362	2963.5959	2990.5739	3053.6088	3067.5113	3098.3518	3113.974	3124.281	3180.0786	3832.0191
OCCC1C2N1CC2=O	OCC[C@H]1[C@@H]2N1CC2=O	
InChI=1S/C6H9NO2/c8-2-1-4-6-5(9)3-7(4)6/h4,6,8H,1-3H2	InChI=1S/C6H9NO2/c8-2-1-4-6-5(9)3-7(4)6/h4,6,8H,1-3H2/t4-,6-,7?/m0/s1
