18
gdb 14042	4.6593	1.61361	1.49333	1.7025	73.39	-0.2357	0.0151	0.2508	912.5949	0.155243	-347.801268	-347.794143	-347.793199	-347.833145	27.158	
C	 0.1655442072	 1.5430984891	-0.3705688989	-0.069273
C	 1.5841465291	 1.4521087342	 0.2142361257	-0.345806
C	 1.137485643	 0.0575840702	 0.7457159273	 0.446104
C	 1.8388791851	-1.2167647103	 0.2234614015	-0.288922
C	 2.5332393123	-1.8654077335	 1.4459308686	-0.262983
C	 1.8825191217	-1.1680900997	 2.6160332008	-0.068653
C	 1.1278510602	-0.1391153349	 2.2357742413	-0.124232
O	-0.1856236823	 0.2512416011	 0.161236823	-0.323557
H	-0.4674013134	 2.3410946693	 0.0370564391	 0.09892
H	 0.0983243581	 1.5676790986	-1.4654801675	 0.098523
H	 2.3991314394	 1.4272368648	-0.5115380497	 0.107645
H	 1.8189907527	 2.1826307151	 0.9906370362	 0.108275
H	 1.0512735513	-1.8724559201	-0.1595988141	 0.123595
H	 2.5247267841	-1.0119030568	-0.6026501184	 0.094501
H	 2.4046515717	-2.9534084019	 1.4805677209	 0.107313
H	 3.6170551872	-1.6877066418	 1.4424432931	 0.108789
H	 2.0498239224	-1.4756348223	 3.6430021428	 0.096017
H	 0.5765937201	 0.5278963191	 2.8893948683	 0.093744
66.18	82.3062	233.7551	321.2439	389.288	452.6157	500.9217	699.7044	750.0479	790.3466	797.666	841.3286	864.2594	922.2055	934.1104	955.4619	978.7613	982.8412	1004.7253	1027.7666	1071.352	1102.5135	1153.6397	1162.4514	1193.9422	1205.6327	1234.8854	1254.2212	1265.4885	1285.0885	1325.3652	1351.4036	1386.5611	1476.7739	1488.3769	1496.4739	1533.3329	1682.9352	3011.4779	3017.962	3047.7132	3050.369	3061.0863	3073.1862	3104.8716	3128.0753	3178.3699	3204.6751
C1CC2(CCC=C2)O1	C1C[C@]2(CCC=C2)O1	
InChI=1S/C7H10O/c1-2-4-7(3-1)5-6-8-7/h1,3H,2,4-6H2	InChI=1S/C7H10O/c1-2-4-7(3-1)5-6-8-7/h1,3H,2,4-6H2/t7-/m0/s1
