23
gdb 40911	3.38752	1.35356	1.31483	0.0899	88.55	-0.2779	0.0909	0.3688	1111.9339	0.209087	-351.139404	-351.131935	-351.13099	-351.171058	31.547	
C	 0.1760719971	 1.3618968927	 0.5682616647	-0.211621
C	 1.4395751642	 1.6143022601	-0.2971753368	-0.289995
C	 1.3309094544	 0.1597432133	-0.8394327178	 0.421579
C	-0.1303037653	 0.1165140034	-0.3059725821	-0.289996
C	 1.6383295059	-0.1536764198	-2.3371806004	-0.307843
C	 2.6945259891	-1.2617303379	-2.1597082257	-0.010893
C	 2.0509228859	-2.1336663538	-1.0419952494	-0.23118
C	 2.2956720042	-0.8552778641	-0.1891636503	-0.060138
C	 3.5891300815	-0.6660756754	-1.0333584773	-0.231181
H	 0.4281294156	 1.0916638726	 1.5973088564	 0.100376
H	-0.577848559	 2.1519397491	 0.5962864058	 0.093515
H	 1.2581958888	 2.3567223624	-1.0809925005	 0.093272
H	 2.3650378412	 1.8825419622	 0.2219805064	 0.091593
H	-0.444747815	-0.7982129001	 0.2062344497	 0.091593
H	-0.8587746305	 0.3369645994	-1.092857063	 0.093272
H	 0.7512853138	-0.5032751674	-2.8762936034	 0.091044
H	 2.0323403661	 0.7189686208	-2.869115989	 0.091043
H	 3.1200691744	-1.7024399261	-3.0620649089	 0.054827
H	 1.0203956618	-2.4747073611	-1.181308133	 0.087479
H	 2.6855844533	-2.9698709079	-0.7385393767	 0.091876
H	 2.3171330405	-0.8841920834	 0.9019614615	 0.05202
H	 4.3928205038	-1.3410094551	-0.7289494859	 0.091876
H	 3.9789844882	 0.3480579659	-1.1646977843	 0.08748
112.6589	153.9465	222.9838	325.8227	404.4086	432.6782	483.9533	504.5085	674.0681	728.8768	782.7776	811.6469	847.459	851.9927	854.8616	877.9956	900.2259	923.9785	942.2692	947.3946	971.0987	984.5545	1016.5375	1030.172	1065.227	1071.0143	1078.7286	1085.3374	1149.8961	1163.7325	1184.5933	1196.3513	1220.0924	1229.4365	1237.264	1255.6005	1256.1259	1267.9043	1270.4505	1283.3109	1301.1488	1313.0568	1345.1593	1474.7988	1482.0495	1487.2768	1488.9993	1505.1113	1522.7323	3034.4861	3038.0862	3042.7179	3046.0805	3050.4163	3059.8037	3077.2144	3084.1531	3089.6549	3093.9696	3104.4955	3107.4416	3113.3576	3114.5012
C1CC2(C1)CC1CC2C1	C1CC2(C1)C[C@@H]1C[C@H]2C1	
InChI=1S/C9H14/c1-2-9(3-1)6-7-4-8(9)5-7/h7-8H,1-6H2	InChI=1S/C9H14/c1-2-9(3-1)6-7-4-8(9)5-7/h7-8H,1-6H2/t7-,8+
