19
gdb 33238	6.18918	0.7062	0.64147	1.1903	78.35	-0.2071	0.0265	0.2336	1739.8695	0.159135	-423.045852	-423.036931	-423.035987	-423.080407	32.473	
C	 0.059456643	 1.5088853198	 0.0081412512	-0.384506
C	-0.0116258215	-0.0202964707	 0.0023095167	-0.189174
C	-1.4443167099	-0.5291201534	 0.0121191771	-0.053798
O	-1.4165780826	-1.9517124153	 0.0062025765	-0.267291
C	-2.6234687643	-2.5573251951	 0.013274128	 0.325075
C	-3.8808607373	-2.0234938568	 0.0258105385	-0.154097
O	-4.8048200373	-3.0348055328	 0.0288177754	-0.150727
C	-4.1193036421	-4.2016869247	 0.0180304632	 0.022279
C	-2.7800420414	-3.9830757924	 0.0083206957	-0.310397
H	 1.0978408437	 1.8514126349	 0.0006768078	 0.120934
H	-0.4373335501	 1.9358882804	-0.8699777249	 0.118779
H	-0.422181886	 1.928433022	 0.8982096681	 0.118784
H	 0.4952370465	-0.4217238601	-0.8824698385	 0.111562
H	 0.5098548395	-0.4290975092	 0.8751384703	 0.111569
H	-1.9812861227	-0.175598145	 0.9059727547	 0.10076
H	-1.9959893008	-0.1685168556	-0.8698666141	 0.100768
H	-4.2734639256	-1.0230410672	 0.0334014595	 0.129261
H	-4.7179294438	-5.0977772139	 0.018841195	 0.135044
H	-1.9899301373	-4.716155915	-0.0012480705	 0.115174
57.629	83.8776	108.8251	149.9604	237.0345	288.8771	336.0642	339.9583	498.8324	609.0098	644.3849	692.6249	724.0686	763.7701	771.2144	822.9262	883.2035	906.0192	914.891	996.8867	1035.5004	1054.2562	1083.6253	1097.5484	1146.6257	1191.611	1217.2512	1265.1699	1267.9343	1316.8362	1318.0517	1339.0924	1406.5106	1416.679	1444.6475	1492.72	1502.1104	1508.0074	1524.2651	1548.1977	1645.9585	2976.8912	3010.1555	3033.7451	3041.734	3075.2879	3102.4439	3111.9022	3262.4671	3284.7153	3300.0592
CCCOC1=COC=C1	CCCOc1cocc1	
InChI=1S/C7H10O2/c1-2-4-9-7-3-5-8-6-7/h3,5-6H,2,4H2,1H3	InChI=1S/C7H10O2/c1-2-4-9-7-3-5-8-6-7/h3,5-6H,2,4H2,1H3
