15
gdb 15848	2.64842	2.127	1.32788	2.653	68.27	-0.267	0.0184	0.2854	919.8719	0.117435	-362.630513	-362.622637	-362.621693	-362.662803	29.007	
C	-0.2992243438	 1.4928792574	-0.0510818628	-0.404751
C	 0.0967220178	 0.0371618051	-0.0175739645	 0.136308
O	 1.3241297846	-0.2228380097	-0.7823193596	-0.26305
C	 1.9938371629	-0.6797844362	 0.3272923735	 0.44038
N	 3.1681248891	-1.083318727	 0.4765760806	-0.537116
C	 0.7939955933	-0.530072187	 1.2639545848	-0.348974
C	 0.9351330332	 0.3210520304	 2.4246918698	 0.354594
C	 1.0385348856	 1.0339585407	 3.3862489011	-0.457795
H	 0.5006906005	 2.1259412552	 0.3402264476	 0.141315
H	-0.522457024	 1.7962702667	-1.078000797	 0.132563
H	-1.1934805309	 1.6519753352	 0.5593835288	 0.132438
H	-0.7016622626	-0.6098646881	-0.3918098101	 0.100232
H	 3.6894588057	-1.0493029969	-0.4010922283	 0.231504
H	 0.3966755399	-1.5086090846	 1.5510332605	 0.137308
H	 1.1454870586	 1.6583831286	 4.2387036855	 0.205044
83.2431	129.1895	165.6202	225.8734	311.2629	374.6313	419.6285	459.5332	548.949	630.7672	646.2904	655.4946	733.5124	812.5997	864.6224	877.8602	902.6158	1013.7509	1028.6749	1073.1161	1102.8862	1151.4487	1192.9351	1224.7252	1324.7839	1333.3859	1382.6879	1417.1979	1482.2238	1489.643	1827.5884	2243.1835	3046.7539	3061.8912	3074.6585	3119.1757	3134.2962	3478.9595	3502.4764
CC1OC(=N)C1C#C	C[C@H]1O[C]([NH])[C@H]1C#C	
InChI=1S/C6H7NO/c1-3-5-4(2)8-6(5)7/h1,4-5,7H,2H3	InChI=1S/C6H7NO/c1-3-5-4(2)8-6(5)7/h1,4-5,7H,2H3/t4-,5+/m1/s1
