18
gdb 49668	2.62339	1.34667	1.31196	3.2635	78.33	-0.235	-0.0312	0.2038	1077.3401	0.148547	-401.93421	-401.926386	-401.925442	-401.966755	29.878	
O	-0.544173063	 0.6478736069	-0.9011383273	-0.269863
C	 0.0368849402	 1.023332779	 0.0906651855	 0.14157
C	 1.2963053774	 1.8105053206	 0.0251875973	-0.114045
C	 1.5588517653	 2.9355804961	 1.0021190662	-0.034383
C	 0.5918475189	 3.3036829841	 2.1209585204	-0.288954
C	 0.5101623488	 2.2816004086	 3.2196439553	-0.069001
C	 1.2423169965	 1.1716638121	 3.2418445981	-0.04375
C	 2.2388859173	 0.807851107	 2.1779760744	-0.211643
N	 2.360294276	 1.7276424548	 1.0410172168	-0.1115
H	-0.3513629266	 0.7964485629	 1.1040239927	 0.089433
H	 1.662460035	 1.9177477257	-0.9934593747	 0.10854
H	 2.0863901333	 3.7877257791	 0.5764403005	 0.105946
H	 0.9182002234	 4.2590469879	 2.5530203431	 0.124006
H	-0.4074205634	 3.5047689058	 1.7117860707	 0.127559
H	-0.1778374264	 2.4995120587	 4.0319410762	 0.097496
H	 1.165897234	 0.4773867748	 4.0749756676	 0.095605
H	 3.2349575512	 0.7508091384	 2.6401653616	 0.127252
H	 2.0390535821	-0.2005147824	 1.7925441557	 0.125734
92.5359	117.4293	185.903	213.608	380.9841	390.0779	405.1079	511.6091	532.0191	569.8573	674.5053	687.1476	795.7503	896.0333	911.2555	939.0183	951.314	962.7645	997.7063	1022.1123	1043.8812	1067.0295	1102.5691	1130.9183	1184.2197	1195.6148	1231.0082	1265.7762	1315.8648	1348.3194	1354.5299	1365.1862	1398.8274	1424.6171	1448.0405	1479.4571	1481.1872	1735.8461	1799.7701	2931.0686	3002.6739	3014.566	3034.2428	3034.4976	3112.2942	3139.9257	3151.5076	3174.2302
O=CC1C2CC=CCN12	O=C[C@H]1[C@H]2CC=CCN12	
InChI=1S/C7H9NO/c9-5-7-6-3-1-2-4-8(6)7/h1-2,5-7H,3-4H2	InChI=1S/C7H9NO/c9-5-7-6-3-1-2-4-8(6)7/h1-2,5-7H,3-4H2/t6-,7+,8?/m1/s1
