18
gdb 12824	3.46193	2.0087	1.56073	2.4753	67.29	-0.2522	0.0849	0.3372	872.7406	0.154561	-384.933525	-384.926209	-384.925265	-384.964729	28.353	
C	 0.0128998086	 1.5240308148	-0.0340886835	-0.471728
C	-0.0171498696	 0.0176795731	 0.0665122615	 0.371578
C	-1.2474579801	-0.656494904	-0.5225029025	-0.137773
O	-1.2956039358	-2.0473091219	-0.295282954	-0.235279
C	-1.170075719	-2.3691529646	 1.077675936	-0.077851
C	 0.2374449144	-2.0647179846	 1.6024942908	-0.236443
C	 0.7136155523	-0.7035847421	 1.1261128161	-0.011505
O	 1.2149252598	-0.6508154098	-0.2179958132	-0.284287
H	 0.9404989875	 1.9147803472	 0.3910000198	 0.131485
H	-0.0411129994	 1.8430591762	-1.0811938963	 0.127695
H	-0.8327635228	 1.9725715774	 0.4979875786	 0.121366
H	-2.1459991897	-0.1640311794	-0.1091512776	 0.085315
H	-1.2594720007	-0.520398786	-1.6094739972	 0.116012
H	-1.9173194306	-1.8071910892	 1.6642678234	 0.084179
H	-1.4046090087	-3.4332923709	 1.1686538538	 0.109688
H	 0.2368765747	-2.1001258898	 2.697788124	 0.098243
H	 0.9463878782	-2.8213578081	 1.2495214031	 0.124245
H	 1.3038596908	-0.1194782685	 1.833280997	 0.085061
136.3979	175.3969	227.6165	314.2517	326.6148	386.8347	423.6964	460.9013	547.303	613.497	739.9512	793.8062	867.4225	913.4757	919.0133	938.3145	1007.816	1028.9256	1053.4907	1073.9919	1123.6502	1148.0055	1153.8298	1236.1548	1259.2067	1274.4697	1322.9482	1339.0468	1368.7992	1385.322	1411.2918	1425.3719	1464.2616	1468.8307	1480.2062	1489.0464	1500.1726	1505.0392	2948.4325	2958.2854	3033.7479	3039.9978	3068.0567	3081.1074	3091.0555	3095.9456	3099.3415	3124.0392
CC12COCCC1O2	C[C@]12COCC[C@H]1O2	
InChI=1S/C6H10O2/c1-6-4-7-3-2-5(6)8-6/h5H,2-4H2,1H3	InChI=1S/C6H10O2/c1-6-4-7-3-2-5(6)8-6/h5H,2-4H2,1H3/t5-,6+/m1/s1
