13
gdb 35022	2.99766	1.34035	1.12167	4.486	68.88	-0.2872	-0.0314	0.2558	1053.7097	0.089311	-415.577617	-415.570103	-415.569159	-415.609956	27.259	
N	 0.0595345551	-1.1609861421	 0.0210879434	-0.325935
C	 0.0417302872	-0.0052475161	 0.0280949226	 0.325563
C	 0.0154274865	 1.4317412633	 0.0598179906	-0.268537
C	 0.4358285491	 2.2307029564	 1.2844457681	-0.184565
C	 1.6404553605	 1.5668600941	 1.9431794795	-0.109515
O	 2.3659040324	 1.5492986145	 0.6733665333	-0.30178
C	 1.3068218377	 2.2432435319	 0.0429419673	 0.347302
C	 1.5880461631	 3.2446482579	-0.9372941971	 0.237454
N	 1.7924086181	 4.0602968173	-1.7308907609	-0.326664
H	-0.7975309768	 1.8896410205	-0.495448477	 0.165778
H	-0.1961911294	 3.0016286998	 1.7014843031	 0.14555
H	 2.1527757891	 2.2155151191	 2.6579988803	 0.143553
H	 1.5038066773	 0.5626339333	 2.3521076967	 0.151793
104.1772	135.56	168.5619	202.963	357.9595	375.5324	486.7271	510.2615	550.2674	583.3079	704.2811	792.7894	811.4443	883.2889	959.2748	971.1697	980.869	1018.49	1062.3482	1100.8556	1152.8166	1168.7526	1231.3737	1306.6459	1335.7128	1428.5672	1509.6055	2357.0953	2362.5979	3064.8346	3126.5276	3172.2743	3225.8731
N#CC1C2COC12C#N	N#C[C@H]1[C@H]2CO[C@@]12C#N	
InChI=1S/C6H4N2O/c7-1-4-5-2-9-6(4,5)3-8/h4-5H,2H2	InChI=1S/C6H4N2O/c7-1-4-5-2-9-6(4,5)3-8/h4-5H,2H2/t4-,5+,6-/m0/s1
