19
gdb 113500	3.40966	0.99903	0.89631	1.5274	78.84	-0.2453	-0.0286	0.2167	1371.8992	0.157075	-423.012651	-423.003525	-423.002581	-423.047103	33.34	
C	 0.2950081405	 1.4877797128	 0.2423747225	-0.374451
C	-0.2206022451	 0.1277443281	-0.2414651111	-0.194021
C	 0.6171230117	-0.4482259903	-1.3649054141	-0.079206
C	 1.8833832435	-1.2171669571	-1.0660342669	-0.356051
C	 0.6643324315	-1.9418677708	-1.5622134658	 0.312343
O	-0.0861983752	-2.873600198	-0.7729186291	-0.316133
C	-0.3740150987	-3.7114244537	-1.9193148078	-0.192051
C	 0.442708036	-2.7494718849	-2.8023246226	 0.278844
O	 0.755236455	-2.6749186142	-3.9532519719	-0.295829
H	 1.3197578585	 1.4097831705	 0.6199020179	 0.119499
H	 0.2959085363	 2.2233491985	-0.569258977	 0.116872
H	-0.3325856283	 1.8806051937	 1.048128376	 0.115676
H	-0.2443846996	-0.5853881092	 0.5895778323	 0.115995
H	-1.2577822236	 0.2256948426	-0.5849344986	 0.104968
H	 0.6188135116	 0.1252368188	-2.289871824	 0.106127
H	 2.7318234667	-1.1391667776	-1.7376984873	 0.133454
H	 2.1298775445	-1.3864950142	-0.0222068568	 0.132689
H	 0.0364006415	-4.7221286146	-1.8164684295	 0.135917
H	-1.444648977	-3.7625571106	-2.1478563359	 0.135357
66.7237	98.2586	113.4384	150.0249	229.3317	246.0383	284.7818	380.8165	446.0496	518.231	576.6407	630.1005	734.5413	772.2576	795.4835	850.0202	870.2212	946.6248	973.4998	998.5041	1007.9466	1017.7835	1047.8286	1064.8869	1107.2418	1122.2226	1137.2215	1186.4375	1212.3249	1273.5643	1296.1641	1309.9326	1357.3276	1408.4121	1418.3015	1464.0187	1484.3725	1487.7906	1498.2544	1507.4946	1912.3596	3032.5765	3033.4469	3034.2183	3070.3635	3087.1351	3103.5189	3107.6093	3126.0934	3130.5817	3218.9529
CCC1CC11OCC1=O	CC[C@H]1C[C@]21OCC2=O	
InChI=1S/C7H10O2/c1-2-5-3-7(5)6(8)4-9-7/h5H,2-4H2,1H3	InChI=1S/C7H10O2/c1-2-5-3-7(5)6(8)4-9-7/h5H,2-4H2,1H3/t5-,7+/m0/s1
