19
gdb 91308	2.16996	1.83077	1.23217	1.9482	80.22	-0.2495	0.0345	0.284	1060.8266	0.159358	-385.825884	-385.81769	-385.816746	-385.858465	32.674	
O	 0.4583740397	 0.562403062	-1.1405002613	-0.4375
C	 0.0643007279	-0.2904875385	-0.1069280716	 0.160436
C	 0.0859860296	 0.1701379644	 1.3841858942	-0.293465
C	-1.2515475249	-0.5955207454	 1.61847109	-0.010001
C	-2.4952634098	 0.3116759901	 1.6770050538	-0.240061
C	-2.5429502559	 0.3429096169	 0.1041218372	-0.199415
C	-2.3180227509	 1.6326101297	-0.5259147477	 0.324003
C	-2.1549690934	 2.7233305988	-1.011512288	-0.464894
C	-1.4063476977	-0.7495306692	 0.0606995667	-0.08637
H	-0.1356059728	 1.3237423872	-1.1385075731	 0.28662
H	 0.6824928723	-1.1890558381	-0.2114582632	 0.089127
H	 0.9493557401	-0.1542439401	 1.9690412413	 0.102117
H	-0.0211365093	 1.2533289128	 1.4991644607	 0.102198
H	-1.2051455345	-1.4516964453	 2.2907091913	 0.068465
H	-3.3776633231	-0.1847857888	 2.0881463804	 0.105923
H	-2.3720462144	 1.2785012791	 2.1707915626	 0.108231
H	-3.4826384352	-0.0652125454	-0.2788038654	 0.112707
H	-2.024273104	 3.6807243716	-1.4527321222	 0.204016
H	-1.7078043438	-1.6705063619	-0.4399399758	 0.067861
72.5331	155.4532	190.7831	250.4606	360.0003	369.1525	445.1829	457.5818	500.4806	577.6035	618.8909	630.3213	637.5182	722.9762	749.9047	799.1716	852.4968	883.5425	943.775	949.1295	1002.6512	1020.7128	1059.48	1072.3088	1098.8747	1133.1941	1149.4202	1178.7488	1187.9438	1216.5831	1247.606	1265.8672	1289.7965	1298.0749	1323.7394	1331.7492	1350.8932	1455.2031	1479.895	1491.9075	2215.4759	3045.1646	3055.3154	3056.071	3061.7768	3096.0363	3105.7281	3113.1491	3122.0148	3498.8904	3759.0599
OC1CC2CC(C#C)C12	O[C@H]1C[C@H]2C[C@@H](C#C)[C@@H]12	
InChI=1S/C8H10O/c1-2-5-3-6-4-7(9)8(5)6/h1,5-9H,3-4H2	InChI=1S/C8H10O/c1-2-5-3-6-4-7(9)8(5)6/h1,5-9H,3-4H2/t5-,6-,7+,8-/m1/s1
