13
gdb 132786	2.4887	1.85156	1.06211	3.1122	64.13	-0.2246	-0.0107	0.2139	1007.778	0.090543	-494.096623	-494.089206	-494.088262	-494.128256	28.36	
N	 0.0071535718	 1.3855569326	-0.1253631835	-0.566689
C	 0.0112037719	 0.0241674892	-0.0650746573	 0.342822
C	-1.1993286035	-0.6922006389	-0.0897462431	 0.155669
O	-2.385367244	-0.0188306748	-0.126926484	-0.458971
C	-1.0741823287	-2.0657340218	-0.0658510795	 0.236462
F	-2.207723479	-2.7801679404	-0.0830603789	-0.08395
N	 0.0656226342	-2.7220096216	-0.0246901464	-0.32088
C	 1.1502690254	-1.9460818072	-0.0006276344	 0.052972
N	 1.1867830961	-0.6169232013	-0.014836336	-0.327923
H	 0.8714624461	 1.8450381507	 0.1101588539	 0.266568
H	-0.8512585648	 1.8666597413	 0.0843846181	 0.273163
H	-3.0989148934	-0.667917672	-0.1223175071	 0.308699
H	 2.1084665778	-2.4562599958	 0.0369144782	 0.122059
138.2908	251.4	275.2285	312.2971	319.6438	369.7991	377.6566	489.9573	525.6651	553.0871	567.5308	574.8129	671.6069	737.574	798.7931	882.7903	973.1536	1016.0134	1078.6666	1228.0735	1300.9101	1331.5537	1358.6885	1367.1017	1490.4663	1519.5452	1615.713	1636.0562	1663.6617	3177.7142	3603.987	3730.5138	3806.0195
NC1=C(O)C(F)=NC=N1	Nc1c(O)c(F)ncn1	
InChI=1S/C4H4FN3O/c5-3-2(9)4(6)8-1-7-3/h1,9H,(H2,6,7,8)	InChI=1S/C4H4FN3O/c5-3-2(9)4(6)8-1-7-3/h1,9H,(H2,6,7,8)
