18
gdb 16431	3.29372	2.18894	1.64846	1.9927	71.24	-0.2274	0.0806	0.3081	848.2689	0.152784	-347.718529	-347.711221	-347.710277	-347.749563	28.713	
C	-0.1554694819	 1.6044270695	-0.0202422991	-0.416521
C	-0.0489979913	 0.0859745498	-0.0002097095	-0.065106
C	 1.161307812	-0.5905352463	-0.6855036994	-0.102453
C	 2.0940582789	-0.347424893	 0.5409647146	 0.043516
O	 2.5231978675	-1.7372994082	 0.6526294715	-0.334419
C	 1.1129030412	-1.8073115258	 0.2836931297	 0.044405
C	 0.6823633619	-0.6003528959	 1.1845687831	 0.310528
C	 0.3498493051	-0.6377154203	 2.6479749821	-0.530931
H	 0.7985734475	 2.0803229539	 0.2320918246	 0.113309
H	-0.4543508624	 1.9660838504	-1.0101281408	 0.118208
H	-0.9035794475	 1.9585360266	 0.6976092007	 0.117487
H	-1.0135890513	-0.3741882059	-0.2490971146	 0.064988
H	 1.4572260956	-0.6059175169	-1.7346041776	 0.078194
H	 2.8285825835	 0.4351529741	 0.7295546331	 0.091313
H	 0.6500697588	-2.7864485432	 0.1571296222	 0.089673
H	 1.1062869739	-1.217074828	 3.1877681812	 0.136215
H	 0.3209736357	 0.3697486601	 3.0772704465	 0.121425
H	-0.6265103672	-1.1029602909	 2.8226685117	 0.12017
188.7859	201.632	207.2377	232.7486	269.9996	329.7491	520.4258	549.7892	674.8134	732.0724	745.5314	814.4902	821.8391	835.4025	882.0582	908.6782	916.2774	986.8582	1039.8168	1050.0381	1090.2533	1110.5416	1125.4179	1145.814	1158.425	1174.6415	1176.0248	1228.595	1264.8007	1306.0545	1350.4771	1401.3317	1411.1725	1420.1456	1489.4884	1490.8855	1494.0106	1501.225	3024.5777	3026.823	3028.4528	3091.426	3092.4084	3095.4747	3102.1732	3110.7585	3115.6805	3129.0185
CC1C2C3OC2C13C	C[C@H]1[C@H]2[C@@H]3O[C@H]2[C@]13C	
InChI=1S/C7H10O/c1-3-4-5-7(3,2)6(4)8-5/h3-6H,1-2H3	InChI=1S/C7H10O/c1-3-4-5-7(3,2)6(4)8-5/h3-6H,1-2H3/t3-,4-,5-,6+,7+/m0/s1
