17
gdb 114683	3.3899	1.3661	1.30281	2.1037	66.75	-0.2484	-0.0101	0.2383	1016.9347	0.137523	-458.940485	-458.93333	-458.932386	-458.972168	28.483	
O	 0.0138799875	 1.4663819052	-0.0500784446	-0.420896
C	 0.0866847038	 0.0632130076	 0.1216449391	-0.080168
C	-1.2972477937	-0.5633046979	 0.044347301	 0.114736
O	-1.8874830691	-0.2630260231	-1.2373371947	-0.313824
C	-2.3524014105	-1.5557937234	-1.7152339607	 0.136477
O	-2.7276896515	-2.2218380632	-0.5345684696	-0.227069
C	-1.4237547174	-2.1264355072	 0.0774066277	-0.052461
C	-0.5219817676	-2.6809733848	-1.0155359471	-0.094728
C	-1.112572288	-2.3273711221	-2.1587117248	-0.077223
H	-0.4735190203	 1.6086785835	-0.8702049378	 0.292325
H	 0.7454295764	-0.3989027387	-0.6274638282	 0.089514
H	 0.5217273023	-0.1095684188	 1.1129159312	 0.104202
H	-1.9395935342	-0.1408963074	 0.8259087004	 0.097375
H	-3.1862522709	-1.4127240937	-2.3985813871	 0.099683
H	-1.4106962278	-2.588485948	 1.0618292938	 0.097282
H	 0.4423315656	-3.1438676181	-0.8606308939	 0.118067
H	-0.7603528246	-2.4281732098	-3.1753494348	 0.116708
98.8345	164.6728	211.3151	363.4428	433.7974	454.3359	488.5818	509.6877	640.7853	718.4951	742.8462	807.1656	834.5161	850.7364	863.9414	880.6704	926.54	937.4249	985.5516	994.5864	1037.5556	1075.4994	1081.1733	1118.7577	1150.1438	1225.2838	1237.4262	1245.3622	1274.2724	1308.0747	1334.5987	1343.7592	1353.6844	1401.5081	1439.6748	1499.9627	1633.9138	3001.4293	3041.1576	3068.869	3153.5655	3160.2986	3225.0401	3250.3279	3796.3846
OCC1OC2OC1C=C2	OC[C@H]1O[C@@H]2O[C@H]1C=C2	
InChI=1S/C6H8O3/c7-3-5-4-1-2-6(8-4)9-5/h1-2,4-7H,3H2	InChI=1S/C6H8O3/c7-3-5-4-1-2-6(8-4)9-5/h1-2,4-7H,3H2/t4-,5+,6-/m0/s1
