18
gdb 19555	4.18175	1.66499	1.58416	1.6142	71.64	-0.2319	0.0692	0.3011	888.9532	0.154903	-347.744821	-347.737607	-347.736662	-347.776375	27.793	
O	 0.6172722525	 0.0853692698	 0.8475495728	-0.419309
C	-0.1461852407	 0.4302794887	-0.3019563758	-0.248595
C	-1.4746980407	-0.2313930817	-0.1737365235	 0.396182
C	-2.4265511352	-0.3795307781	 0.9863917177	-0.1038
C	-3.5998314505	 0.1522929683	 0.1672367546	-0.226179
C	-2.7781794681	-0.2665335592	-1.0839983884	-0.132148
C	-2.7304563498	-1.8180141255	-1.001692964	-0.2262
C	-1.8787541701	-1.6211009477	 0.2497967086	-0.103725
H	 1.4771104579	 0.5089917634	 0.7713559059	 0.2891
H	-0.2724278418	 1.5238005504	-0.3810004961	 0.08664
H	 0.3562109773	 0.0974840056	-1.226519232	 0.086646
H	-2.2056977494	-0.2227958632	 2.0339218939	 0.089444
H	-4.5905792884	-0.3017795028	 0.2910135448	 0.084129
H	-3.6835450963	 1.2397148661	 0.25270041	 0.094507
H	-2.9143635083	 0.2395531671	-2.0382645225	 0.065239
H	-3.6889524041	-2.3451911537	-0.921355517	 0.084129
H	-2.1436772495	-2.250054117	-1.8176801969	 0.094501
H	-1.2693491947	-2.3445413706	 0.775076658	 0.089437
75.8042	165.8327	195.2999	250.8003	357.9003	457.0228	467.9868	656.7523	710.1903	729.162	818.0713	867.3357	875.8304	914.2035	960.8758	963.1971	982.0509	1013.8746	1020.0344	1055.4387	1079.8694	1085.271	1103.8323	1125.942	1131.3534	1181.1521	1213.6748	1218.3883	1246.2336	1255.5612	1257.2854	1288.4677	1316.0382	1434.8206	1489.6669	1491.6421	1509.4809	1523.7953	2944.3526	2963.2242	3022.3495	3029.0481	3086.7241	3088.9115	3128.0391	3200.3005	3209.4691	3832.2176
OCC12C3CC1CC23	OC[C@@]12[C@H]3C[C@@H]1C[C@@H]23	
InChI=1S/C7H10O/c8-3-7-4-1-5(7)6(7)2-4/h4-6,8H,1-3H2	InChI=1S/C7H10O/c8-3-7-4-1-5(7)6(7)2-4/h4-6,8H,1-3H2/t4-,5+,6-,7+
