18
gdb 99531	2.26241	1.21122	0.83391	3.4414	78.	-0.2746	0.021	0.2956	1357.8236	0.14499	-401.924277	-401.914035	-401.913091	-401.959782	36.567	
C	-0.0788547652	 1.5734981082	 0.0994858499	-0.408265
C	-0.0214541703	 0.0351132263	 0.0001362394	-0.173936
C	-1.3692125642	-0.5291400849	 0.0137729416	 0.320965
C	-2.4861826995	-0.9715140077	 0.0025710526	-0.440955
C	 0.751561544	-0.4408152398	-1.2689296045	-0.155907
C	 2.2075778927	 0.0915229557	-1.3430084891	-0.07656
O	 2.8952604476	-0.3863833537	-2.472973285	-0.416208
C	 0.808459295	-1.9043925317	-1.3336511427	 0.271934
N	 0.9424664444	-3.0513523999	-1.3921764493	-0.329539
H	 0.9160878815	 2.0042924017	 0.2349568649	 0.1285
H	-0.5290777607	 2.0039798445	-0.8001441294	 0.134247
H	-0.6927724625	 1.863836152	 0.9548035553	 0.139864
H	 0.5211392746	-0.3483460218	 0.8747187945	 0.125532
H	-3.4664592621	-1.3805014207	 0.0024390798	 0.205215
H	 0.2151105654	-0.0909099738	-2.1586048663	 0.142555
H	 2.1844785554	 1.1788348647	-1.4408615272	 0.12668
H	 2.7269479307	-0.1549290395	-0.4036016468	 0.105625
H	 2.9769037233	-1.3445370095	-2.3952264476	 0.300253
50.4816	101.862	121.9217	152.7587	196.0042	207.6392	249.4783	291.7221	336.3049	396.7956	409.0202	482.7448	516.5713	566.8959	622.2423	644.9222	657.4261	815.9732	853.8399	938.4044	1018.0811	1034.2179	1078.4639	1095.4198	1106.9689	1144.4376	1204.2249	1250.2902	1316.6959	1340.7342	1355.7259	1389.0547	1408.9806	1428.2259	1492.8219	1499.4723	1507.7764	2240.2552	2351.7256	2984.886	3017.7935	3048.4073	3056.7928	3108.6827	3124.2419	3132.7965	3503.1001	3790.0544
CC(C#C)C(CO)C#N	C[C@@H](C#C)[C@@H](CO)C#N	
InChI=1S/C7H9NO/c1-3-6(2)7(4-8)5-9/h1,6-7,9H,5H2,2H3	InChI=1S/C7H9NO/c1-3-6(2)7(4-8)5-9/h1,6-7,9H,5H2,2H3/t6-,7+/m0/s1
