21
gdb 58733	2.98258	1.33273	1.20825	1.2986	81.86	-0.239	0.0715	0.3105	1143.9167	0.18292	-387.040452	-387.031975	-387.03103	-387.073519	33.352	
C	 0.1016326334	 1.5566434275	 0.1822941039	-0.401306
C	 0.0057694874	 0.0398181887	-0.0034295751	-0.054344
O	 0.7385208041	-0.6562539278	 1.0036333385	-0.422874
C	-1.4123510936	-0.4499226258	-0.0424814771	 0.404785
C	-2.3979030238	-0.7796335654	 1.0604417905	-0.133278
C	-3.4827718548	 0.0920213068	 0.4334213602	-0.224111
C	-2.7050328342	-0.0817007883	-0.8997879377	-0.133403
C	-2.851425891	-1.5928799101	-1.2283277081	-0.227372
C	-1.9969679253	-1.8382367946	 0.0124129055	-0.121042
H	 1.1499558095	 1.8655843276	 0.2173697246	 0.121459
H	-0.3918985595	 2.0869945423	-0.6383990191	 0.118187
H	-0.3823893657	 1.861414218	 1.1179325952	 0.107803
H	 0.5103445151	-0.23154566	-0.9402373987	 0.089697
H	 0.3533290985	-0.4108637881	 1.8527795833	 0.277456
H	-2.1953037132	-0.947976164	 2.1115282445	 0.075305
H	-4.5231267829	-0.2544322162	 0.4555344524	 0.086432
H	-3.4316592146	 1.1201944806	 0.8029188839	 0.095757
H	-2.7674805475	 0.6707082235	-1.6839484123	 0.067559
H	-3.8682735229	-2.001493503	-1.2688192486	 0.085355
H	-2.3114014175	-1.8641547858	-2.1399139261	 0.097868
H	-1.4875814516	-2.7434494256	 0.3165355102	 0.090067
65.3656	135.491	164.9515	251.3514	288.3098	313.0763	380.5395	432.0316	462.6094	509.8957	643.2344	726.5471	733.1709	818.6013	856.0955	896.1173	905.0642	920.1262	959.6387	966.1862	985.4413	1013.2186	1022.8406	1040.8325	1067.5877	1079.5036	1083.898	1118.0258	1131.5717	1137.8183	1182.1337	1220.9185	1227.6148	1250.1519	1279.5272	1299.3183	1314.5562	1352.9763	1398.1844	1416.0548	1448.2597	1490.2013	1490.8509	1496.3292	1509.1162	3019.1343	3024.2332	3028.6206	3030.942	3089.6529	3092.2374	3097.9435	3118.2039	3130.3003	3180.0731	3203.0774	3792.9583
CC(O)C12C3CC1CC23	C[C@@H](O)[C@@]12[C@H]3C[C@@H]1C[C@@H]23	
InChI=1S/C8H12O/c1-4(9)8-5-2-6(8)7(8)3-5/h4-7,9H,2-3H2,1H3	InChI=1S/C8H12O/c1-4(9)8-5-2-6(8)7(8)3-5/h4-7,9H,2-3H2,1H3/t4-,5-,6+,7-,8+/m1/s1
