16
gdb 72340	2.39639	2.26504	1.65064	2.92	66.79	-0.2507	0.02	0.2707	864.589	0.124755	-437.856527	-437.849615	-437.848671	-437.887501	27.449	
C	-0.0830497942	 1.5310312224	-0.030468993	-0.478802
C	 0.0153526461	 0.02640279	 0.0233016623	 0.377924
O	-1.2101094047	-0.5902160972	-0.4203800521	-0.253945
C	-1.5117197967	-1.5172796385	 0.5309943633	 0.119266
N	-0.7936482742	-1.6402039707	 1.5726372106	-0.261159
C	 0.3125763243	-0.715882684	 1.3756782652	-0.117161
C	 1.5857415837	-1.3056059008	 0.7131199183	 0.029759
O	 1.1701777164	-2.0270109662	-0.442721447	-0.22092
C	 1.2952168758	-0.6149369954	-0.5648670091	-0.043899
H	 0.8528042812	 1.9848863144	 0.3111202321	 0.126334
H	-0.2733086491	 1.8710841902	-1.0535002163	 0.135847
H	-0.8949455132	 1.888501994	 0.6089732327	 0.136219
H	-2.4109129873	-2.0852979765	 0.3195328027	 0.140229
H	 0.5148948665	-0.0944951937	 2.2512137155	 0.086647
H	 2.5266132789	-1.5902145858	 1.1690674982	 0.115128
H	 1.9507722266	-0.2306588422	-1.3390219434	 0.108534
194.2037	211.4912	233.5864	260.5351	322.1374	468.7433	511.3309	588.5303	666.5757	710.0795	814.0623	832.7845	855.5555	881.2786	904.3274	928.191	929.7694	966.5377	1014.0893	1035.9625	1053.8329	1096.0506	1141.0832	1179.2316	1190.7185	1223.6315	1236.5898	1277.4653	1319.907	1339.3408	1378.0961	1410.6006	1483.0067	1491.7236	1671.3235	3038.3198	3087.3821	3108.7983	3118.5042	3173.8155	3194.9801	3216.9682
CC12OC=NC1C1OC21	C[C@]12OC=N[C@H]1[C@H]1O[C@@H]21	
InChI=1S/C6H7NO2/c1-6-4(7-2-8-6)3-5(6)9-3/h2-5H,1H3	InChI=1S/C6H7NO2/c1-6-4(7-2-8-6)3-5(6)9-3/h2-5H,1H3/t3-,4+,5-,6+/m1/s1
