20
gdb 17942	3.06526	2.17177	2.01808	0.3331	77.64	-0.2389	0.0903	0.3293	831.2607	0.179671	-311.861715	-311.854806	-311.853861	-311.892262	28.312	
C	 0.0140137657	 1.5320518688	-0.0404684818	-0.518157
C	 0.0002125319	 0.0345295377	 0.0120629616	 0.359034
C	 0.4830764296	-1.023808881	-0.9702474382	-0.112081
C	 1.2337618643	-1.7665269512	 0.1335339397	-0.231815
C	 0.4782425528	-0.8853680502	 1.1819185299	-0.085711
C	-0.7848566883	-1.5911601955	 1.6915667109	-0.204887
C	-1.6020236309	-1.8632686511	 0.3977033992	-0.233312
C	-0.9968086073	-0.8964541256	-0.6212924911	-0.081046
H	 1.0166985234	 1.935946316	 0.1436774163	 0.114665
H	-0.3117033485	 1.8928896006	-1.0221296003	 0.116726
H	-0.658881388	 1.9669320147	 0.7091756792	 0.115622
H	 0.820812731	-0.8928409183	-1.9930986096	 0.072806
H	 1.105058565	-2.8532528457	 0.2109584313	 0.083446
H	 2.3035455595	-1.5419886645	 0.1103109997	 0.095859
H	 1.096679161	-0.436867351	 1.9608193202	 0.059957
H	-0.5575129516	-2.505387936	 2.2500843213	 0.090992
H	-1.3413253398	-0.9264680659	 2.3629794802	 0.092192
H	-1.5136831275	-2.905897764	 0.0727525109	 0.098242
H	-2.6689879603	-1.6681530223	 0.5434932516	 0.09393
H	-1.6199811519	-0.5085314755	-1.4209141009	 0.073539
194.1703	198.2503	222.1854	276.8811	372.2632	449.1513	581.8268	608.4206	707.4775	718.468	808.5405	839.0459	855.7965	870.6334	899.5143	923.3697	954.6133	977.6361	1003.9692	1038.3814	1052.703	1073.782	1102.0212	1103.2275	1134.5629	1150.9925	1204.3479	1213.3996	1235.3959	1257.4061	1282.0686	1289.1061	1303.39	1330.0767	1347.2419	1413.7078	1459.2243	1485.472	1488.8599	1495.7326	1499.8327	1513.1693	3015.0752	3022.9241	3029.8632	3040.7429	3068.5309	3070.6381	3084.0029	3086.7463	3088.2905	3101.1014	3155.197	3166.9019
CC12C3CC1CCC23	C[C@@]12[C@H]3C[C@@H]1CC[C@@H]23	
InChI=1S/C8H12/c1-8-5-2-3-6(8)7(8)4-5/h5-7H,2-4H2,1H3	InChI=1S/C8H12/c1-8-5-2-3-6(8)7(8)4-5/h5-7H,2-4H2,1H3/t5-,6+,7-,8+/m0/s1
