18
gdb 33089	6.2401	0.78429	0.70513	0.3955	76.52	-0.1781	0.045	0.2231	1593.7202	0.148673	-435.300522	-435.291458	-435.290514	-435.334564	33.545	
C	 0.009720212	 1.5275710527	-0.0275504789	-0.399235
C	-0.0751394735	 0.0075996876	-0.1125609105	-0.11257
N	 0.8152081115	-0.505852906	-1.1399150607	-0.392568
C	 0.8449066125	-1.8677394803	-1.3600777195	 0.318928
C	 0.4276127246	-2.8994803067	-0.5814193781	-0.159657
O	 0.7568196863	-4.0790628583	-1.2636877626	-0.190821
C	 1.3263569571	-3.6496751166	-2.3977034299	 0.464675
N	 1.6869607464	-4.6074128675	-3.3129495262	-0.589584
N	 1.4195503417	-2.3605852356	-2.5306409983	-0.405886
H	 1.0340135762	 1.8483836338	 0.1829497048	 0.13049
H	-0.3056839779	 1.9927694706	-0.9686551643	 0.117316
H	-0.643466812	 1.9057334272	 0.7636161768	 0.120903
H	 0.2300333983	-0.4326522133	 0.8456961374	 0.111232
H	-1.1194935135	-0.3074723766	-0.2817682944	 0.093285
H	 0.8054505509	 0.014624572	-2.0068433253	 0.236804
H	-0.0446309937	-3.0166604152	 0.3746695637	 0.125254
H	 1.9255477721	-5.5017821723	-2.9104182426	 0.262783
H	 2.3615744311	-4.2748717254	-3.9855727213	 0.26865
65.8021	97.0202	124.0723	236.4411	269.708	299.9423	338.0241	346.6263	367.2491	498.5784	551.619	558.6047	600.1729	696.1287	733.406	766.3863	789.0318	821.2972	927.6183	979.2567	1023.5341	1083.4079	1093.6005	1139.8323	1157.4068	1186.8871	1259.6075	1281.8221	1301.8554	1394.0209	1417.0416	1452.9808	1489.5114	1499.249	1509.7354	1527.8528	1606.3906	1669.5541	1686.1972	2951.9809	3028.8943	3037.3201	3103.4839	3122.5067	3322.3023	3577.9119	3581.5792	3686.6432
CCNC1=COC(N)=N1	CCNc1coc(N)n1	
InChI=1S/C5H9N3O/c1-2-7-4-3-9-5(6)8-4/h3,7H,2H2,1H3,(H2,6,8)	InChI=1S/C5H9N3O/c1-2-7-4-3-9-5(6)8-4/h3,7H,2H2,1H3,(H2,6,8)
