16
gdb 30178	4.30602	1.33283	1.08495	2.0261	70.26	-0.2015	0.0146	0.2161	1087.0329	0.126014	-437.905056	-437.897761	-437.896817	-437.937668	27.596	
C	 0.2779953116	 1.4708300637	 0.1286585238	-0.391272
C	 0.003964124	-0.0092579642	-0.0387000461	 0.114764
C	 0.7009609928	-0.6674439766	-1.2998858741	-0.387707
C	 1.4579662095	-1.7690353742	-0.6255702583	 0.14163
C	 1.2689574226	-1.6667039038	 0.6967326984	 0.4267
O	 1.9538516349	-2.6068531027	 1.3620010084	-0.204917
C	 2.5784038363	-3.2869272041	 0.3173711995	 0.02398
N	 2.3201560707	-2.8296112509	-0.8657089998	-0.325633
O	 0.4935972293	-0.7037068675	 1.1931918797	-0.293871
H	 1.3550447285	 1.6582614121	 0.1758430193	 0.133996
H	-0.1311771718	 2.0223916491	-0.7240059367	 0.127043
H	-0.1835192656	 1.8529025203	 1.0429225024	 0.135042
H	-1.0710804814	-0.206956724	-0.0561032342	 0.108276
H	-0.0493464154	-1.0047188612	-2.0224905686	 0.123701
H	 1.3430064287	 0.0610429161	-1.8104438372	 0.119264
H	 3.1999552753	-4.1160886621	 0.6102539835	 0.149004
30.1835	198.2884	248.2172	263.123	332.4719	429.7317	473.7231	603.4954	648.1218	702.1722	724.6468	745.9195	755.9679	826.193	874.0031	926.9621	939.866	1030.4272	1039.6169	1091.2035	1114.5766	1153.8317	1205.3754	1255.7709	1278.6445	1336.723	1360.402	1375.4373	1413.644	1483.1737	1483.3612	1499.2134	1506.8294	1519.8354	1705.5242	3022.3778	3042.0334	3057.5187	3077.5584	3115.8088	3126.3927	3295.2847
CC1CC2=C(OC=N2)O1	C[C@H]1Cc2c(ocn2)O1	
InChI=1S/C6H7NO2/c1-4-2-5-6(9-4)8-3-7-5/h3-4H,2H2,1H3	InChI=1S/C6H7NO2/c1-4-2-5-6(9-4)8-3-7-5/h3-4H,2H2,1H3/t4-/m0/s1
