18
gdb 26209	3.80447	1.11665	0.87643	3.5783	76.64	-0.1678	0.0585	0.2263	1302.1824	0.147852	-435.296717	-435.287315	-435.286371	-435.330894	34.214	
C	 1.3634016058	 0.2148912451	 0.4836484922	-0.330297
N	 0.0639945093	 0.1742545528	-0.1698491198	-0.161795
C	-1.0946998523	 0.3325325137	 0.6840081787	-0.344662
C	-0.04590658	-0.6648252164	-1.2609058739	 0.514198
N	 0.9714357771	-1.1294119315	-1.968170071	-0.452927
C	 0.3999799383	-1.8544662217	-2.9823873053	 0.352705
O	 1.1731358969	-2.473458547	-3.903797071	-0.442562
C	-0.9607158081	-1.853497395	-2.9103208117	-0.231421
N	-1.2365352921	-1.0768448972	-1.7726070092	-0.340103
H	 1.5330111827	-0.6479006987	 1.1472733299	 0.110701
H	 2.1418031709	 0.2155983597	-0.2786333613	 0.163297
H	 1.4359156225	 1.1313934889	 1.0762347639	 0.116625
H	-0.8782907035	 1.0960401372	 1.4346538498	 0.13488
H	-1.9555480771	 0.6877461581	 0.1060076137	 0.122429
H	-1.3844087465	-0.5931094151	 1.2098988108	 0.114734
H	 2.0842209255	-2.2662694213	-3.6647806697	 0.295812
H	-1.7331901053	-2.3053532646	-3.5045585155	 0.120928
H	-2.1510660041	-0.8687181172	-1.4161472705	 0.25746
57.7019	135.2771	171.5849	177.3701	228.0706	261.8331	288.4546	353.9577	365.5327	403.6931	415.5954	549.1699	584.7814	595.6533	687.1305	729.7262	743.7353	943.3647	1025.1258	1043.2014	1084.2389	1097.3294	1130.1702	1168.819	1177.288	1243.8589	1282.9089	1296.8942	1360.1247	1417.9203	1442.9835	1470.3635	1488.0131	1489.2485	1499.5738	1506.4827	1516.0031	1631.0658	1682.1993	2959.8422	2980.449	3052.4569	3081.0513	3115.5821	3156.8565	3301.0475	3697.3716	3808.3732
CN(C)C1=NC(O)=CN1	CN(C)c1nc(O)c[nH]1	
InChI=1S/C5H9N3O/c1-8(2)5-6-3-4(9)7-5/h3,9H,1-2H3,(H,6,7)	InChI=1S/C5H9N3O/c1-8(2)5-6-3-4(9)7-5/h3,9H,1-2H3,(H,6,7)
