20
gdb 97072	3.90849	0.99927	0.83942	2.4653	79.03	-0.2426	0.0209	0.2635	1390.3647	0.171171	-440.297908	-440.288678	-440.287734	-440.332128	34.109	
C	 0.0389418323	 1.4622937512	-0.1432451832	-0.325663
N	 0.0152131575	 0.0101138569	-0.1111740575	-0.282921
C	-1.0701878281	-0.6026803778	 0.0907536055	 0.394532
C	-1.1311458042	-2.1137211188	 0.067294394	-0.292096
C	-2.1171228202	-2.6993441903	 1.0875353234	-0.217067
C	-3.4583668024	-1.9932259494	 0.9510329799	 0.101079
O	-4.3320166783	-2.484628995	 1.9542873612	-0.427638
C	-3.2394341903	-0.4880086401	 1.1260655976	-0.1032
O	-2.2740363143	 0.0525619218	 0.2199544749	-0.261198
H	 0.9436148157	 1.8101383426	 0.3658485161	 0.119527
H	 0.1104280242	 1.8019570239	-1.1842133132	 0.124632
H	-0.8384281521	 1.936733433	 0.3097289274	 0.116063
H	-1.4479999738	-2.4101222163	-0.9425975623	 0.121503
H	-0.1189762478	-2.4941137275	 0.2091415273	 0.131317
H	-2.237649994	-3.7761571741	 0.9383099356	 0.109499
H	-1.7504277317	-2.5518982159	 2.1108089675	 0.113558
H	-3.8654229456	-2.1821741885	-0.0556066921	 0.074076
H	-5.2104895531	-2.1228626944	 1.7987214596	 0.286612
H	-4.1608031572	 0.0729943571	 0.9394655878	 0.104228
H	-2.9291869868	-0.3009303084	 2.1636427305	 0.113158
62.9047	98.3923	155.3851	202.5596	249.5559	280.5049	288.0593	326.3986	381.8675	459.1814	476.9976	538.5601	587.0908	719.6664	772.5975	828.6018	920.7969	958.0127	987.5952	1031.4489	1078.731	1092.0954	1105.0691	1111.6569	1131.1481	1153.3478	1186.302	1203.4684	1244.5285	1270.1955	1301.2547	1343.6645	1351.4225	1366.1325	1407.9239	1435.0455	1445.1065	1474.6024	1491.4708	1495.469	1497.4151	1513.7563	1770.449	2971.6436	3012.7645	3016.3644	3016.5463	3040.4197	3073.0515	3079.8275	3092.8174	3093.5554	3126.1251	3815.6421
CN=C1CCC(O)CO1	CN=C1CC[C@@H](O)CO1	
InChI=1S/C6H11NO2/c1-7-6-3-2-5(8)4-9-6/h5,8H,2-4H2,1H3	InChI=1S/C6H11NO2/c1-7-6-3-2-5(8)4-9-6/h5,8H,2-4H2,1H3/t5-/m1/s1
