19
gdb 102280	2.00387	1.27987	0.92985	3.031	73.27	-0.2581	-0.0284	0.2297	1346.5014	0.155018	-460.21615	-460.205582	-460.204638	-460.252988	35.885	
C	-0.0746130707	 1.5216718486	 0.1425865155	-0.386531
C	 0.0719534216	 0.0015935499	 0.0429834774	-0.206134
C	 0.7389745508	-0.4487662554	-1.2607673961	 0.033804
O	 2.0778490921	 0.0385824048	-1.2706612592	-0.241376
C	 2.6894081302	 0.08371872	-2.483916241	 0.451185
C	 4.1366373692	 0.4722543638	-2.3291209756	-0.483979
O	 2.1267134253	-0.1561046657	-3.5198425037	-0.356009
C	 0.7250266862	-1.9665294706	-1.3859531149	 0.15545
O	 1.7054974303	-2.6556465732	-1.4563000626	-0.238765
H	 0.901625221	 2.0095659919	 0.0831068838	 0.134523
H	-0.6980542169	 1.9119890002	-0.668942529	 0.121133
H	-0.5398542745	 1.804863908	 1.0909506321	 0.12088
H	 0.6626914217	-0.3797875724	 0.883893881	 0.122068
H	-0.912805632	-0.4770923098	 0.1035484574	 0.108841
H	 0.1935747269	-0.0495222715	-2.1265070101	 0.121967
H	 4.2371229465	 1.3365562027	-1.6683159773	 0.145304
H	 4.6801435403	-0.3590211045	-1.8695245769	 0.163468
H	 4.5621020323	 0.6875189863	-3.3084874901	 0.149152
H	-0.3014623304	-2.3996326631	-1.3951786306	 0.08502
55.4582	71.0174	89.3585	103.0572	111.0822	175.834	209.5156	255.5566	300.762	373.2816	405.9501	438.5104	595.6615	630.4954	736.9369	777.8267	827.1984	914.4028	949.726	977.7924	993.2115	1032.6683	1063.4001	1083.2152	1155.2419	1168.2512	1245.2954	1276.0712	1309.7797	1368.3944	1378.9788	1395.0393	1408.6257	1418.5914	1469.4374	1475.3196	1478.7565	1496.641	1507.963	1828.3295	1849.291	2872.3258	3029.2877	3035.8027	3041.2558	3058.4306	3074.2426	3110.2739	3125.2952	3125.8515	3170.1594
CCC(OC(C)=O)C=O	CC[C@@H](OC(=O)C)C=O	
InChI=1S/C6H10O3/c1-3-6(4-7)9-5(2)8/h4,6H,3H2,1-2H3	InChI=1S/C6H10O3/c1-3-6(4-7)9-5(2)8/h4,6H,3H2,1-2H3/t6-/m1/s1
