21
gdb 77689	2.50338	1.39073	1.19079	0.4784	78.91	-0.2293	0.0663	0.2956	1171.9076	0.179538	-424.203441	-424.193732	-424.192787	-424.237588	37.202	
C	 0.3704862735	 1.324457413	-0.1712268711	-0.432595
C	-0.1287375933	-0.100036382	 0.0262085311	 0.379676
C	-1.6337361487	-0.222348128	-0.1413173153	-0.437688
O	 0.5662828458	-1.0230670812	-0.8785556124	-0.348637
C	 1.2558030644	-1.6352958808	 0.2053649762	 0.419715
C	 1.7243518257	-3.0467931314	 0.1676189425	-0.342767
C	 2.7314849351	-1.903030618	 0.1773771703	-0.34909
C	 0.4808657009	-0.8521194695	 1.2576807882	-0.052073
O	 1.1926104037	-0.1430852733	 2.2350375963	-0.422913
H	 1.4625723462	 1.3757314762	-0.1253870269	 0.106811
H	 0.0650400477	 1.6934805238	-1.1551409961	 0.125604
H	-0.0393482407	 1.9908782033	 0.5938237251	 0.1264
H	-1.9355242235	 0.0904896672	-1.1461054307	 0.123634
H	-1.955019645	-1.2578013333	 0.0030031074	 0.120683
H	-2.1545374739	 0.4095687452	 0.5862009552	 0.119617
H	 1.6197884611	-3.6538518161	 1.0612384349	 0.118275
H	 1.5920630115	-3.582218605	-0.7665129236	 0.125268
H	 3.2558978682	-1.6915157694	-0.7481969042	 0.123948
H	 3.3052240809	-1.7332304038	 1.0836373939	 0.116081
H	-0.2646987974	-1.4418970656	 1.7975746497	 0.095091
H	 1.9523602577	 0.2684516586	 1.8089625195	 0.284961
48.758	182.6659	196.4894	210.1972	232.2782	240.6775	275.6093	307.9076	326.5321	384.3562	429.163	507.3382	539.6437	577.5824	738.6786	768.2058	806.3744	854.4909	886.6933	915.8862	934.5151	967.4499	983.5055	990.4431	1004.7944	1045.5205	1069.4839	1143.4348	1151.7136	1186.2661	1191.0448	1244.8452	1265.1793	1274.1426	1309.6045	1378.8907	1399.483	1411.9646	1442.1554	1447.4333	1471.7009	1484.9314	1490.0547	1500.2875	1506.642	3032.6722	3039.0061	3077.1553	3104.4258	3107.9263	3113.749	3116.8748	3123.3674	3128.1587	3209.6142	3223.632	3806.4276
CC1(C)OC2(CC2)C1O	CC1(C)OC2(CC2)[C@H]1O	
InChI=1S/C7H12O2/c1-6(2)5(8)7(9-6)3-4-7/h5,8H,3-4H2,1-2H3	InChI=1S/C7H12O2/c1-6(2)5(8)7(9-6)3-4-7/h5,8H,3-4H2,1-2H3/t5-/m0/s1
