23
gdb 66155	4.19005	0.69818	0.68034	1.3998	86.33	-0.2526	0.0757	0.3284	1771.0985	0.204594	-388.263177	-388.253298	-388.252353	-388.298706	37.452	
O	-0.1356590315	 1.4424765203	-0.0172978168	-0.472981
C	 0.002963172	 0.0412584352	-0.0312394656	 0.427036
C	 1.1524110658	-0.470182152	-0.8785524647	-0.235934
C	 2.5296511453	 0.0059855546	-0.3914681675	-0.218388
C	 3.6735794971	-0.5206381905	-1.2318860312	 0.034831
C	 4.0750571764	 0.1852154553	-2.5032682128	-0.25378
C	 4.9847200755	 0.2191845962	-1.2987288219	-0.278881
C	-0.4068542474	-0.6995862052	 1.2197022978	-0.320768
C	-1.3006606615	-0.6934663947	-0.0079286843	-0.306041
H	 0.5613757251	 1.8018650924	 0.5415775411	 0.281842
H	 1.127208901	-1.5669092776	-0.886720862	 0.089656
H	 1.0016770683	-0.1420045432	-1.9144943846	 0.105823
H	 2.5579322671	 1.1040475412	-0.4064289993	 0.085023
H	 2.6699725834	-0.2960888524	 0.6557977925	 0.095006
H	 3.7440525977	-1.6059848949	-1.2560460652	 0.078851
H	 4.3737548477	-0.410583211	-3.3586769116	 0.109672
H	 3.5463085142	 1.0969953817	-2.7627782525	 0.111593
H	 5.0660948885	 1.1539429209	-0.7530450082	 0.107393
H	 5.9038447222	-0.3555769857	-1.3297409723	 0.109482
H	 0.111439357	-1.6169338766	 1.4789809058	 0.108109
H	-0.7280252704	-0.1024194804	 2.0659370144	 0.110847
H	-2.1965759474	-0.0853452991	 0.0350140796	 0.121456
H	-1.3920884961	-1.6057671642	-0.5874003306	 0.110153
52.1097	61.9456	116.1435	125.7086	231.2395	281.2923	308.4869	346.2252	376.7063	412.3255	444.5774	509.4265	724.4912	768.0302	777.2901	784.6648	817.114	835.8684	905.8127	916.2556	924.9795	933.3817	962.6776	984.5077	1038.2882	1045.0319	1059.5841	1065.1937	1077.6177	1081.0965	1122.6771	1140.2371	1187.6557	1197.8787	1228.545	1233.5414	1276.7942	1280.8327	1309.495	1324.6989	1361.6871	1398.798	1418.257	1451.4719	1468.5794	1474.7085	1495.4449	1499.2807	1507.793	3002.8517	3024.3903	3036.0103	3069.1414	3126.6613	3127.4144	3128.6643	3132.6913	3137.4552	3204.2796	3214.4168	3219.5354	3231.253	3805.3712
OC1(CCC2CC2)CC1	OC1(CCC2CC2)CC1	
InChI=1S/C8H14O/c9-8(5-6-8)4-3-7-1-2-7/h7,9H,1-6H2	InChI=1S/C8H14O/c9-8(5-6-8)4-3-7-1-2-7/h7,9H,1-6H2
