21
gdb 97463	2.6612	0.85829	0.70958	4.0046	84.45	-0.2342	0.039	0.2732	1664.7687	0.180935	-420.363502	-420.353476	-420.352532	-420.399821	35.352	
C	 0.5196962329	 0.4670606348	-0.6452103897	-0.310698
N	-0.0281557175	-0.2405459736	 0.4920719082	-0.213982
C	 0.7170289662	-1.0780586347	 1.0607335355	 0.151156
O	 0.284002536	-1.7473633637	 2.1514436497	-0.204196
C	 1.1244460386	-2.7754802634	 2.6597131102	-0.093495
C	 0.8656180289	-4.1201282819	 1.9864404776	-0.136267
N	 1.3500197013	-4.1199400337	 0.6137445449	-0.058396
C	 2.694858538	-4.6435469825	 0.3895886031	-0.225036
C	 1.4935261764	-5.417843896	-0.0298357646	-0.217216
H	 1.5569964309	 0.1861288225	-0.8937640454	 0.09127
H	-0.1035621164	 0.2849387717	-1.5285216761	 0.123866
H	 0.4943779582	 1.5469128525	-0.4568467889	 0.122406
H	 1.7452729237	-1.3206978379	 0.7570585627	 0.07545
H	 2.1821600039	-2.4951153027	 2.5585301618	 0.106151
H	 0.8936025046	-2.8473956772	 3.7263327103	 0.118504
H	 1.3289728088	-4.9167281722	 2.59833169	 0.079892
H	-0.2151284798	-4.2995368256	 1.9716810015	 0.124593
H	 3.2953858358	-4.1146643423	-0.3448026879	 0.120735
H	 3.2493107561	-5.0155535237	 1.2504971821	 0.110068
H	 1.2487981113	-6.3052625992	 0.5521768347	 0.111692
H	 1.2007989118	-5.4639245009	-1.0747322197	 0.123503
47.7777	64.0785	87.8297	122.0728	185.7798	208.8854	258.2808	294.5961	328.5183	420.0605	457.5009	509.1988	575.7378	733.7155	819.5469	887.0914	909.2547	961.2824	971.9061	1025.7047	1043.6364	1054.2322	1073.3444	1114.583	1120.807	1133.9728	1141.5254	1156.4099	1175.595	1186.7177	1226.1664	1284.5601	1322.337	1332.0867	1394.3057	1397.4307	1420.7747	1451.173	1476.9047	1481.4785	1491.4813	1494.6839	1505.9593	1523.3803	1778.2311	2931.2541	2961.1371	3010.2499	3021.211	3052.4346	3069.7036	3071.7149	3091.588	3094.8121	3097.4606	3177.5473	3191.7123
CN=COCCN1CC1	CN=COCCN1CC1	
InChI=1S/C6H12N2O/c1-7-6-9-5-4-8-2-3-8/h6H,2-5H2,1H3	InChI=1S/C6H12N2O/c1-7-6-9-5-4-8-2-3-8/h6H,2-5H2,1H3
