19
gdb 70204	3.32745	1.27811	1.08485	2.5935	74.96	-0.2391	-0.0147	0.2244	1155.1687	0.159032	-423.055282	-423.046967	-423.046023	-423.088321	32.04	
C	 0.088543521	 1.558438375	-0.0778021167	-0.467169
C	-0.0251904768	 0.0594786883	 0.0655440666	 0.392242
C	-1.3064447875	-0.5676840002	-0.4583920248	-0.287647
C	-1.2828420865	-2.103425886	-0.3794118641	-0.307662
C	-0.9684182691	-2.591255589	 1.022845083	 0.384646
O	-1.6277596223	-3.4323752053	 1.5867569362	-0.308784
C	 0.2515739751	-1.9649382429	 1.7017697013	-0.339964
C	 0.7259381776	-0.6532430788	 1.1134516311	-0.008712
O	 1.1712085659	-0.6774342986	-0.2508988588	-0.294084
H	 1.0425120372	 1.914530176	 0.318433707	 0.129903
H	 0.0263388398	 1.8482890442	-1.1324046801	 0.127956
H	-0.723340314	 2.0633276061	 0.4565944568	 0.12371
H	-2.1520239887	-0.1702424893	 0.1177763662	 0.114698
H	-1.4657615475	-0.254616162	-1.4972138012	 0.112331
H	-2.2329230499	-2.5396898276	-0.6942039577	 0.118045
H	-0.4915278168	-2.4718151578	-1.0428000992	 0.139969
H	 0.0162338223	-1.845837413	 2.7643536969	 0.133131
H	 1.0688468594	-2.6978780079	 1.6516510073	 0.145109
H	 1.3702844807	-0.0658372412	 1.7691157602	 0.092283
51.1336	182.8687	190.4411	231.9802	297.3411	348.7603	370.5249	432.1007	477.9525	514.7302	556.4947	681.9458	689.4768	731.8339	798.271	848.5895	891.0879	932.3685	979.4881	1003.8888	1033.1497	1057.7688	1068.0035	1123.0085	1172.3027	1211.8733	1226.1284	1248.4123	1256.3387	1315.378	1341.8819	1354.7916	1384.9294	1415.1963	1433.6112	1457.6141	1468.9978	1484.9023	1490.3682	1511.7137	1817.0885	3024.713	3025.9002	3035.9915	3046.4119	3063.4625	3083.9033	3098.3964	3099.0152	3119.5484	3124.7196
CC12CCC(=O)CC1O2	C[C@]12CCC(=O)C[C@H]1O2	
InChI=1S/C7H10O2/c1-7-3-2-5(8)4-6(7)9-7/h6H,2-4H2,1H3	InChI=1S/C7H10O2/c1-7-3-2-5(8)4-6(7)9-7/h6H,2-4H2,1H3/t6-,7+/m1/s1
