18
gdb 76819	2.97965	1.5512	1.33164	1.472	72.93	-0.2071	0.0337	0.2408	999.9588	0.147724	-438.914516	-438.906775	-438.905831	-438.946311	31.042	
O	 0.2889737518	 1.4181402004	 0.0621598419	-0.418636
C	 0.0753893757	 0.031861197	-0.0551715459	-0.011058
C	 0.3417285152	-0.6499117786	 1.3760283019	 0.025796
O	 1.096128745	 0.0746333654	 2.2916560203	-0.423428
C	-1.209534272	-0.7502422713	 1.4900242977	 0.200322
C	-2.6016594969	-1.4666906213	 1.467740231	-0.253908
N	-2.8216827012	-0.2545427102	 0.5078689531	-0.18585
C	-2.0621095511	 0.5413846761	 1.5809101518	-0.198949
C	-1.3696050504	-0.6305591815	-0.0049164918	-0.016628
H	 0.0730252104	 1.8416804671	-0.7745812431	 0.299042
H	 0.6698427625	-0.3855975525	-0.8779978821	 0.086147
H	 0.8074532098	-1.6316471048	 1.2464515736	 0.097886
H	 0.931399507	 1.0087595716	 2.1111693394	 0.297964
H	-2.6598894001	-2.4380191017	 0.9704358083	 0.10726
H	-3.2491296511	-1.4177643982	 2.3483252526	 0.106412
H	-2.6391345989	 0.6886055683	 2.4981918266	 0.095469
H	-1.6501311165	 1.4790629779	 1.2154270201	 0.118105
H	-1.3955148791	-1.5312277536	-0.6241014453	 0.074053
135.5487	204.7951	230.8936	249.8183	280.6107	367.7786	413.3067	513.8961	563.2599	594.3068	626.3288	693.3319	775.0039	779.7096	835.5022	862.3436	894.2219	926.5116	977.4963	995.2579	1048.9226	1069.3481	1089.7726	1122.2288	1134.9246	1155.7228	1165.0106	1189.012	1194.2392	1224.127	1241.8847	1270.4234	1284.2909	1322.4298	1346.4793	1404.0278	1436.5611	1507.1558	1549.0268	3014.2778	3048.0117	3063.0707	3066.0961	3074.2715	3124.818	3168.8536	3782.7617	3825.8079
OC1C(O)C23CN(C2)C13	O[C@H]1[C@@H](O)[C@@]23CN(C2)[C@@H]13	
InChI=1S/C6H9NO2/c8-3-4-6(5(3)9)1-7(4)2-6/h3-5,8-9H,1-2H2	InChI=1S/C6H9NO2/c8-3-4-6(5(3)9)1-7(4)2-6/h3-5,8-9H,1-2H2/t3-,4+,5-/m1/s1
