17
gdb 18557	3.56004	2.10577	1.60778	3.6527	67.83	-0.2392	0.0142	0.2535	830.0003	0.14509	-363.895508	-363.888856	-363.887912	-363.926475	25.692	
O	 0.0301385879	 0.0963342083	 0.6456367935	-0.343109
C	-0.051704061	 1.2223545736	 0.240788553	 0.396092
C	-1.1856255223	 2.2339758338	-0.0264625858	-0.39193
C	-0.0426871908	 3.2743240831	-0.1884901541	 0.030427
C	 0.3070264867	 4.2374922565	 0.9721386872	-0.233339
C	 1.3676376157	 3.4877980793	 1.8204446485	-0.215365
C	 2.0304273779	 2.4946433901	 0.8339759478	-0.19039
N	 0.9417935166	 2.1603026288	-0.0798549569	-0.092973
H	-1.7995999032	 2.0451920155	-0.9094425716	 0.131327
H	-1.8357401442	 2.3772707151	 0.84024942	 0.13108
H	-0.0201335217	 3.7765503579	-1.1584947886	 0.085239
H	 0.728516678	 5.1614957091	 0.5647076088	 0.109689
H	-0.5698404202	 4.5185054567	 1.5614670984	 0.110875
H	 2.0850903882	 4.1666404782	 2.2881185019	 0.105525
H	 0.8824715515	 2.9204501939	 2.6216254414	 0.118742
H	 2.8560848209	 2.9577596913	 0.282387367	 0.110604
H	 2.4007844999	 1.5859531089	 1.3129269895	 0.137505
107.2316	128.259	256.8732	339.9998	468.2697	546.1088	590.5744	624.5772	710.4348	786.5934	792.5371	871.0188	875.6097	899.3592	967.0171	987.3334	1003.5085	1051.2448	1062.392	1094.382	1153.7693	1185.0244	1194.3352	1225.1274	1226.3786	1280.2758	1303.1385	1323.032	1327.2758	1357.934	1369.716	1450.9692	1488.1755	1492.6325	1506.4527	1881.4586	3043.2603	3052.4932	3053.9199	3072.5807	3077.2328	3096.0926	3109.2988	3122.3424	3131.1131
O=C1CC2CCCN12	O=C1C[C@H]2CCCN12	
InChI=1S/C6H9NO/c8-6-4-5-2-1-3-7(5)6/h5H,1-4H2	InChI=1S/C6H9NO/c8-6-4-5-2-1-3-7(5)6/h5H,1-4H2/t5-/m1/s1
