18
gdb 18721	3.18702	2.17076	1.4914	1.0967	66.96	-0.2503	0.0799	0.3302	876.6638	0.155061	-384.928349	-384.921123	-384.920179	-384.959599	27.877	
C	-0.0513671102	 1.529880166	 0.0363731583	-0.404754
C	 0.0337315779	-0.0003026858	 0.0018936149	-0.01983
C	 0.744373209	-0.501860653	-1.2645887687	-0.09161
O	 0.9010735534	-1.9099730251	-1.24508297	-0.25213
C	 1.8302043749	-2.3485972433	-0.2711885524	-0.102601
C	 1.6371223563	-1.7054129319	 1.0911426579	 0.016838
O	 2.1642363972	-0.3792174547	 1.2514646801	-0.261427
C	 0.7416503275	-0.5474932104	 1.2250338108	 0.0605
H	 0.9495618752	 1.971215004	 0.0781769823	 0.13397
H	-0.5584109426	 1.9170608805	-0.8535292971	 0.115335
H	-0.6073723623	 1.8753676184	 0.9137967934	 0.116315
H	-0.9808045112	-0.4217706433	 0.0038333551	 0.08391
H	 0.1465354263	-0.2715649458	-2.1511254596	 0.106398
H	 1.7202206933	-0.0023789037	-1.3665386942	 0.101169
H	 1.6932262688	-3.4315404168	-0.189722498	 0.111209
H	 2.864004115	-2.1601142272	-0.6060164474	 0.103394
H	 1.8069507117	-2.3522750821	 1.9518311006	 0.095731
H	 0.2525650398	-0.3671492959	 2.1837530439	 0.087584
114.1204	204.4042	229.9074	283.347	316.8169	375.7279	445.4932	491.4393	594.9013	695.7706	788.8876	821.2827	878.6976	916.6436	937.7818	966.4544	995.8264	1033.3483	1068.065	1089.0335	1122.7163	1144.6128	1173.0746	1185.2639	1263.4561	1283.6624	1318.0308	1322.8387	1355.6345	1375.5479	1392.8986	1405.7698	1423.4399	1469.5969	1484.4183	1494.7088	1498.3901	1504.0047	2969.6164	2991.099	3019.8997	3034.0568	3076.5251	3087.023	3094.2238	3101.8427	3109.1656	3114.2366
CC1COCC2OC12	C[C@H]1COC[C@H]2O[C@@H]12	
InChI=1S/C6H10O2/c1-4-2-7-3-5-6(4)8-5/h4-6H,2-3H2,1H3	InChI=1S/C6H10O2/c1-4-2-7-3-5-6(4)8-5/h4-6H,2-3H2,1H3/t4-,5+,6-/m0/s1
