17
gdb 111484	2.87054	1.49676	1.09949	4.4037	67.14	-0.2632	-0.0051	0.2581	1082.5248	0.137163	-458.987259	-458.97966	-458.978716	-459.019492	29.396	
O	 0.1246963067	 1.398672292	-0.0116200236	-0.422837
C	 0.1110791031	-0.0077274018	 0.0075498263	-0.060601
C	-1.327797975	-0.5632453152	 0.0056480312	-0.191557
C	-1.5168176297	-2.064658358	-0.0321037134	-0.089244
C	-1.0662143006	-2.8805204117	 1.1706251756	-0.321371
C	-2.4741346733	-2.3782256453	 1.0853586956	 0.08697
O	-2.7471089281	-1.1895447243	 1.8119187314	-0.209644
C	-2.0637143636	-0.1416456707	 1.2815470483	 0.434464
O	-2.0432284938	 0.9394668653	 1.8077664555	-0.35142
H	-0.4460172298	 1.6909672181	 0.7142352055	 0.300256
H	 0.6284740866	-0.3488106397	-0.8950839711	 0.111637
H	 0.6603690072	-0.4154363258	 0.8717499795	 0.089632
H	-1.8506426279	-0.0942898012	-0.8371921503	 0.124709
H	-1.5996939591	-2.5605615348	-0.9907909788	 0.109495
H	-0.9023166826	-3.9396156867	 1.0068022986	 0.130849
H	-0.4158392476	-2.4294641807	 1.9126060796	 0.136314
H	-3.3379668024	-3.0249068495	 1.0120415801	 0.122348
100.7653	148.8896	186.8529	242.804	369.7289	411.6722	459.9827	497.5233	551.5384	653.6444	698.5463	717.0762	791.3914	813.7571	820.8524	960.7576	969.6745	993.5032	1044.6009	1047.24	1072.3443	1091.4651	1095.9613	1120.6671	1142.0704	1180.8519	1201.6854	1211.6852	1288.9566	1309.9321	1359.3333	1382.6262	1390.636	1461.8966	1477.701	1514.2251	1845.9468	2973.3643	3042.2211	3071.9814	3138.2954	3191.3306	3209.4896	3229.1499	3722.9368
OCC1C2CC2OC1=O	OC[C@H]1[C@H]2C[C@H]2OC1=O	
InChI=1S/C6H8O3/c7-2-4-3-1-5(3)9-6(4)8/h3-5,7H,1-2H2	InChI=1S/C6H8O3/c7-2-4-3-1-5(3)9-6(4)8/h3-5,7H,1-2H2/t3-,4+,5-/m1/s1
