20
gdb 52407	2.47119	0.99864	0.79205	3.5271	77.66	-0.2534	0.032	0.2854	1488.5114	0.169445	-440.251578	-440.241864	-440.24092	-440.288141	34.322	
N	-0.8044140369	 0.8608572276	-0.9401444484	-0.447869
C	-0.7485495043	-0.3820642616	-0.7271703971	 0.13529
O	-1.0418386131	-0.8635366983	 0.4995259176	-0.1829
C	-1.1519828479	-2.2758291433	 0.6320638099	-0.10089
C	-2.5488889602	-2.7643841481	 0.291970626	-0.05974
O	-2.73717967	-2.6183749583	-1.1027260674	-0.253944
C	-4.055999773	-2.8135381048	-1.5162546783	 0.144694
C	-5.0376308217	-1.6766581795	-1.3951025306	-0.289473
C	-4.4797449523	-2.0814189239	-2.7461816925	-0.28663
H	-0.5194781167	 1.057148122	-1.8974922413	 0.22551
H	-0.4612454616	-1.1595736258	-1.4448973252	 0.094912
H	-0.4147195342	-2.783996721	-0.0033178457	 0.115297
H	-0.9242527872	-2.5019649941	 1.677194355	 0.122391
H	-2.6514591671	-3.8200255316	 0.5941033124	 0.091816
H	-3.2912054702	-2.1756252578	 0.8488160558	 0.11262
H	-4.4245048116	-3.8283091454	-1.3613581394	 0.084866
H	-6.0728720135	-1.9029148429	-1.16488041	 0.114717
H	-4.6644560542	-0.7512559763	-0.9705718205	 0.135903
H	-3.7437233243	-1.4209300319	-3.1896508943	 0.127435
H	-5.1251575201	-2.5887963751	-3.4539767259	 0.115995
28.2244	54.9183	84.4371	140.8121	168.7021	180.9976	300.3423	371.6588	393.246	439.6631	520.3541	617.8257	755.2259	814.2205	819.9032	822.7134	882.0034	920.9601	975.0217	1000.2988	1010.7748	1040.0562	1054.7085	1075.515	1112.7063	1130.1801	1140.0828	1152.5939	1194.5752	1204.1444	1244.4851	1250.7717	1276.8137	1340.4709	1376.4773	1401.8195	1424.0742	1432.2142	1453.4275	1489.7289	1495.1543	1508.773	1743.1637	2971.4136	3021.8222	3037.0646	3051.75	3093.7553	3103.8787	3136.5131	3143.4151	3222.0254	3236.4728	3515.6143
N=COCCOC1CC1	[NH][CH]OCCOC1CC1	
InChI=1S/C6H11NO2/c7-5-8-3-4-9-6-1-2-6/h5-7H,1-4H2	InChI=1S/C6H11NO2/c7-5-8-3-4-9-6-1-2-6/h5-7H,1-4H2
