21
gdb 76260	2.31156	1.49466	0.99432	4.0031	86.29	-0.2288	-0.0358	0.193	1249.7341	0.181739	-387.14635	-387.136818	-387.135873	-387.180612	35.72	
C	-0.3562590517	 1.5093802512	 0.0820082562	-0.405762
C	 0.0934208924	 0.0520682855	-0.0094523593	-0.111682
C	 0.9322448665	-0.4071364474	-1.2364360945	-0.105333
C	 1.6112836005	 0.7279835554	-2.0259483971	-0.396517
C	 1.9602379779	-1.3548354432	-0.6321597579	 0.333351
C	 2.8506735274	-2.1876979955	-1.4964440683	-0.491418
C	 1.9596526778	-1.3149231389	 0.7097872542	-0.295928
C	 0.9265525147	-0.3907944392	 1.2087757104	 0.389004
O	 0.7341534364	-0.043471342	 2.3532804556	-0.35018
H	 0.4866151852	 2.2029611672	 0.0143975455	 0.119368
H	-1.0713134897	 1.7638957991	-0.7061772812	 0.108681
H	-0.8351871425	 1.6702287842	 1.0513224332	 0.139728
H	-0.8051219112	-0.5799175108	 0.0289709705	 0.105406
H	 0.3027199773	-0.9626095953	-1.9448794811	 0.079279
H	 2.2914911269	 1.3041917761	-1.3907584772	 0.125339
H	 2.1921498884	 0.3276603901	-2.8622567477	 0.115183
H	 0.8683120742	 1.4149725842	-2.4396842117	 0.125109
H	 3.4864913836	-1.5605410271	-2.1325796646	 0.141
H	 3.4978460188	-2.838368123	-0.9038077905	 0.134092
H	 2.2557273256	-2.8127438295	-2.1743347699	 0.135716
H	 2.6210586515	-1.8637986612	 1.3693542554	 0.105566
52.005	130.2066	177.1676	223.3538	238.3986	257.4562	265.0793	286.8184	308.5866	431.9137	497.278	554.3439	581.9643	640.172	704.1393	763.68	809.1166	856.941	895.3131	995.2114	1007.8539	1027.8653	1041.7382	1052.4346	1085.216	1128.5874	1160.4171	1166.9356	1198.0911	1255.2472	1299.5081	1337.2488	1338.0897	1346.0056	1401.237	1409.3712	1413.1864	1476.4464	1479.1899	1490.9618	1494.1067	1506.8744	1509.7055	1677.9861	1806.2323	3000.7599	3017.1168	3025.3233	3039.4506	3044.709	3074.7505	3107.4042	3112.5731	3118.1313	3122.0652	3123.9126	3208.4545
CC1C(C)C(C)=CC1=O	C[C@H]1[C@@H](C)C(=CC1=O)C	
InChI=1S/C8H12O/c1-5-4-8(9)7(3)6(5)2/h4,6-7H,1-3H3	InChI=1S/C8H12O/c1-5-4-8(9)7(3)6(5)2/h4,6-7H,1-3H3/t6-,7-/m0/s1
