21
gdb 30684	3.63794	0.95141	0.81078	0.879	84.29	-0.218	0.0247	0.2426	1468.4524	0.182726	-387.127047	-387.117812	-387.116868	-387.161629	34.545	
C	 0.2488318807	 1.5921105675	-0.060521475	-0.391488
C	 0.2579782012	 0.0617993651	 0.0013250355	-0.159162
C	 0.6066702032	-0.5260868458	 1.3904171392	-0.089021
C	-0.4435393358	-0.1689774253	 2.4517115987	-0.40418
C	 0.8231099573	-2.0145012692	 1.2908315245	 0.250831
C	 0.0646943036	-3.0179114008	 1.8124496197	-0.105658
O	 0.5755296026	-4.2395781367	 1.4922738239	-0.149805
C	 1.6885960207	-4.0131723057	 0.7485329213	 0.003659
C	 1.8918348523	-2.6816070188	 0.5904270224	-0.28889
H	 1.2111200307	 2.006929003	 0.2613093833	 0.112428
H	 0.0653730967	 1.9376086321	-1.0827523711	 0.112881
H	-0.5287427952	 2.027022873	 0.5747890522	 0.118365
H	-0.7184994515	-0.3327016278	-0.3087564704	 0.097277
H	 0.9812964602	-0.3202718938	-0.7284517388	 0.097643
H	 1.5619032114	-0.0750640551	 1.6985669138	 0.077859
H	-0.5247577438	 0.9128719031	 2.5829950038	 0.115111
H	-1.4331232951	-0.5438763757	 2.1656487814	 0.115276
H	-0.1847980765	-0.6042852294	 3.4215390361	 0.117787
H	-0.8276732233	-3.0348800274	 2.4148644771	 0.130823
H	 2.2170772539	-4.891755013	 0.4167499149	 0.133062
H	 2.7030352166	-2.2168802092	 0.0507729477	 0.105201
45.8244	92.4844	130.6431	201.1387	232.524	281.7302	289.9678	347.0112	404.7656	462.4636	620.7924	641.6339	707.2656	736.8912	779.8327	788.2355	830.02	845.4471	893.0648	956.7902	974.5408	993.9324	1036.7079	1059.5991	1091.6966	1106.6728	1131.1527	1176.766	1204.9006	1247.2393	1274.5321	1289.3461	1323.6572	1359.608	1372.97	1403.9478	1414.5722	1415.4108	1483.0881	1494.8824	1503.4769	1507.5576	1512.2136	1538.1869	1630.5539	2988.3491	3024.0436	3032.1104	3035.12	3059.3986	3097.3232	3100.4822	3106.2904	3119.1971	3245.7489	3279.2632	3284.5118
CCC(C)C1=COC=C1	CC[C@@H](C)c1cocc1	
InChI=1S/C8H12O/c1-3-7(2)8-4-5-9-6-8/h4-7H,3H2,1-2H3	InChI=1S/C8H12O/c1-3-7(2)8-4-5-9-6-8/h4-7H,3H2,1-2H3/t7-/m1/s1
