21
gdb 101035	2.77381	1.07641	0.85509	2.6021	74.12	-0.2546	0.0738	0.3284	1397.5006	0.181018	-461.33937	-461.329515	-461.328571	-461.374123	36.981	
C	-0.0954234647	 1.6549245515	-0.0421380455	-0.405532
C	-0.1161791569	 0.1249204056	-0.0870825372	-0.257161
C	 0.6321984266	-0.5064197777	-1.2498010145	 0.362952
C	 0.9611468416	 0.248740717	-2.4668513257	-0.229363
O	 1.9732491655	-0.0238663858	-1.4771240933	-0.289686
C	 0.544660796	-2.03150093	-1.3642856848	 0.027893
O	 1.461371695	-2.5112144692	-2.3428639389	-0.44649
C	 0.8227728983	-2.7677725471	-0.0433799361	-0.070604
O	 0.8702866845	-4.1591691147	-0.2637361404	-0.426331
H	 0.9300948697	 2.0283165397	-0.1124016725	 0.13981
H	-0.6801063976	 2.0960975681	-0.854907309	 0.119985
H	-0.5220754886	 2.0108014718	 0.8995709748	 0.118922
H	 0.3173063406	-0.2635123129	 0.8420429472	 0.122223
H	-1.1519028454	-0.2382410781	-0.1133836934	 0.11073
H	 1.0843422479	-0.2859346046	-3.4047831174	 0.128925
H	 0.6813717988	 1.2949101305	-2.5512211266	 0.120945
H	-0.4543592878	-2.3138210768	-1.7185633783	 0.100131
H	 2.2671710349	-1.9879753076	-2.2108927076	 0.293606
H	 1.7679670707	-2.3897435872	 0.3855802225	 0.086514
H	 0.0280360925	-2.5819632134	 0.6856375758	 0.105846
H	 1.3703548182	-4.2662698788	-1.0840221792	 0.286685
79.4777	83.4893	145.4967	162.471	223.7393	274.6487	305.7632	336.7688	369.063	381.0746	430.9881	484.0106	531.0428	594.5564	610.7892	736.3651	779.5376	861.4013	866.9289	926.4094	947.425	1014.948	1061.9899	1076.4744	1087.023	1110.9778	1125.809	1143.0347	1179.6992	1203.9441	1211.4887	1283.0384	1311.1191	1313.5305	1379.0247	1385.0564	1392.8035	1414.3495	1434.4511	1447.4054	1480.3017	1498.4561	1508.5301	1508.8001	1524.1416	2948.5565	3025.9824	3043.4296	3044.3112	3061.7937	3080.115	3111.1223	3115.9284	3121.9003	3205.5624	3711.4892	3759.4888
CCC1(CO1)C(O)CO	CC[C@]1(CO1)[C@@H](O)CO	
InChI=1S/C6H12O3/c1-2-6(4-9-6)5(8)3-7/h5,7-8H,2-4H2,1H3	InChI=1S/C6H12O3/c1-2-6(4-9-6)5(8)3-7/h5,7-8H,2-4H2,1H3/t5-,6-/m0/s1
