19
gdb 22921	2.81179	1.30675	1.11471	1.0519	79.45	-0.2211	0.0004	0.2215	1165.8318	0.158335	-419.123415	-419.114661	-419.113717	-419.156912	33.218	
C	-0.1260164225	 1.4407143941	-0.1009707466	-0.462149
C	 0.0048869846	-0.0653431942	-0.0806951276	 0.261961
C	-1.2508102411	-0.9132577698	 0.2685766049	-0.29791
C	-0.3890556884	-1.6057493099	 1.3541060194	-0.163231
N	 0.795567003	-0.7323629899	 1.0591518428	-0.163871
C	 1.7225872059	-1.3660314693	 0.0619624548	-0.282418
C	 0.9607534719	-0.705445294	-1.0661677798	 0.369442
N	 1.0441569618	-0.5989605849	-2.3233609635	-0.245764
O	 2.1238604107	-1.3509856492	-2.8224372815	-0.390187
H	 0.8566594999	 1.9198337016	-0.135633457	 0.124846
H	-0.6905162609	 1.756072335	-0.985230299	 0.130366
H	-0.6517749974	 1.7930026386	 0.7919899176	 0.119316
H	-2.0725210781	-0.3108167817	 0.6625061247	 0.109974
H	-1.633914562	-1.5459545643	-0.5338325758	 0.115436
H	-0.7429886386	-1.4752262688	 2.3804699331	 0.109036
H	-0.1977384369	-2.6722198239	 1.1921955277	 0.102751
H	 2.756750383	-1.0209184798	 0.1694021106	 0.131898
H	 1.7259418471	-2.4623718557	 0.0627831358	 0.122538
H	 2.0794411381	-1.1693512738	-3.7673708005	 0.307967
61.5172	132.4046	169.925	216.5829	249.0066	302.2618	344.569	412.5417	436.108	483.3425	520.7702	636.047	704.5383	750.3274	797.4618	816.5749	893.6322	915.4287	954.973	969.3071	978.2579	1012.5892	1053.9364	1116.5064	1129.4147	1151.4195	1187.9973	1207.3791	1220.1029	1258.1619	1269.5754	1306.7776	1312.704	1402.9521	1408.3467	1469.8746	1481.0829	1482.1404	1490.224	1512.6192	1787.0302	3029.9732	3034.1277	3038.6138	3069.848	3072.813	3084.5475	3106.7734	3113.8654	3127.0259	3817.0301
CC12CCN1CC2=NO	C[C@]12CCN1CC2=NO	
InChI=1S/C6H10N2O/c1-6-2-3-8(6)4-5(6)7-9/h9H,2-4H2,1H3	InChI=1S/C6H10N2O/c1-6-2-3-8(6)4-5(6)7-9/h9H,2-4H2,1H3/t6-/m1/s1
