18
gdb 8501	3.81471	2.05808	1.62711	1.41	72.21	-0.251	0.0821	0.3331	842.1383	0.153309	-347.736817	-347.729573	-347.728629	-347.767552	29.184	
C	-0.0119928897	 1.4536894531	-0.0278080658	-0.515782
C	 0.0342526728	-0.047829472	-0.0568185307	 0.357908
C	 0.5828620331	-0.9634194737	-1.1788004711	-0.372408
C	 0.0742630169	-1.9253466191	-0.0897998139	 0.409527
O	 0.0098690121	-3.3060421601	-0.0996065611	-0.475711
C	 0.5553385629	-0.9940282426	 1.0868268753	-0.147459
C	-0.8243645336	-1.0544740164	 1.7730203451	-0.276659
C	-1.1516596077	-1.0359371541	 0.265578018	-0.110533
H	 0.9948464976	 1.8802947755	-0.0986243809	 0.118571
H	-0.5984003049	 1.8464929064	-0.8658279308	 0.119952
H	-0.4660435997	 1.8203349603	 0.8991913911	 0.121405
H	 0.0371353569	-0.9600132666	-2.1288089717	 0.090818
H	 1.6652014802	-0.9298309985	-1.3522569687	 0.080611
H	 0.90675221	-3.6521495436	-0.1608619471	 0.282313
H	 1.5543461069	-0.968210193	 1.5282608564	 0.060366
H	-1.0623895212	-1.9764838518	 2.3099677389	 0.101092
H	-1.1270413771	-0.1801516566	 2.3577014135	 0.088001
H	-2.1190190955	-1.0554722273	-0.2398169065	 0.067986
217.637	219.4575	239.9972	260.2428	310.0472	388.5617	426.5876	492.0015	589.9967	660.6501	692.094	775.4234	853.8295	861.6196	906.583	916.9841	978.7929	986.0797	1014.8382	1041.1453	1076.5817	1100.4219	1102.3707	1120.2457	1146.1469	1150.6083	1185.07	1198.3589	1232.1716	1272.7835	1286.4204	1335.5129	1394.6193	1414.0093	1487.8508	1491.4974	1501.8855	1512.4844	3021.7542	3025.6973	3045.4877	3082.0478	3085.3171	3088.9718	3093.7148	3099.0457	3105.4085	3805.9831
CC12CC3(O)C1CC23	C[C@@]12C[C@@]3(O)[C@@H]1C[C@@H]23	
InChI=1S/C7H10O/c1-6-3-7(8)4(6)2-5(6)7/h4-5,8H,2-3H2,1H3	InChI=1S/C7H10O/c1-6-3-7(8)4(6)2-5(6)7/h4-5,8H,2-3H2,1H3/t4-,5+,6-,7-
