15
gdb 33482	2.24207	1.73465	1.17351	4.1101	75.04	-0.2611	0.0001	0.2612	1043.1773	0.111899	-379.589386	-379.581428	-379.580484	-379.621832	30.1	
C	 0.0344326456	-1.2228889301	-0.0267487331	-0.419227
C	 0.0148068956	-0.021942182	-0.0290793715	 0.275597
C	 0.0091860877	 1.4328634905	 0.0175234974	-0.03817
C	-0.1761567039	 2.1346509733	 1.4261874316	-0.20155
N	 1.1280401911	 2.8580113166	 1.3185253792	-0.116907
C	 2.160450434	 1.8103565498	 1.2117024155	-0.249457
C	 1.3845152588	 2.1495983246	 0.0082732381	-0.053297
C	-0.9072724103	 1.9844339176	-0.9816085015	 0.246988
N	-1.625030247	 2.4380587043	-1.7651345115	-0.332002
H	 0.0472122265	-2.2852283945	-0.0415163516	 0.210591
H	-1.0099751808	 2.835822381	 1.4318681597	 0.150323
H	-0.24871106	 1.4488464192	 2.2739195001	 0.129115
H	 3.1693372905	 2.2048195401	 1.2734975405	 0.137964
H	 2.0063516586	 0.8539870163	 1.7055354821	 0.132138
H	 1.7884933436	 2.6509545033	-0.8636719349	 0.127895
125.8113	132.5445	161.2088	179.6152	311.5846	425.2341	475.3384	495.8926	550.0788	565.4492	588.2657	650.6977	658.8356	752.1193	791.1525	847.905	922.7403	940.5749	983.0665	1031.6976	1067.1184	1097.8156	1115.6391	1133.981	1185.9695	1222.7632	1241.9372	1288.0075	1351.3471	1486.6747	1504.3416	2240.4483	2360.7866	3072.6767	3114.7844	3150.109	3184.1415	3211.4459	3498.2234
C#CC1(CN2CC12)C#N	C#C[C@]1(CN2C[C@@H]12)C#N	
InChI=1S/C7H6N2/c1-2-7(4-8)5-9-3-6(7)9/h1,6H,3,5H2	InChI=1S/C7H6N2/c1-2-7(4-8)5-9-3-6(7)9/h1,6H,3,5H2/t6-,7+,9?/m0/s1
