18
gdb 96929	2.51904	1.35747	1.12603	1.2594	75.93	-0.2245	0.0209	0.2454	1170.689	0.147324	-435.213384	-435.204021	-435.203077	-435.24743	34.307	
C	 0.0530357894	 1.4202492861	 0.0853166019	-0.341558
N	 0.1515220893	-0.0299217247	-0.0030372283	-0.347607
C	 0.5552815632	-0.6807407349	 0.9835796487	 0.409299
O	 0.9992673954	-0.2419994368	 2.2450155095	-0.298054
C	 1.4773287473	-1.5776498018	 2.5522057769	 0.015669
C	 0.3098161813	-2.5124399156	 2.6027962905	-0.038598
N	-1.0263789447	-2.1933321831	 3.0268141509	-0.525317
C	 0.8768939295	-2.1225979723	 1.2412915061	 0.135687
N	 1.3307748886	-3.0983258131	 0.3222384312	-0.598494
H	 0.5767736751	 1.865538628	-0.7671523799	 0.127279
H	-0.9991962516	 1.7146269994	 0.0013000827	 0.129795
H	 0.4622880323	 1.8392959138	 1.0118200935	 0.128197
H	 2.462412322	-1.6633805394	 2.9915442966	 0.119143
H	 0.5977896033	-3.5342512193	 2.839838349	 0.116734
H	-1.110659206	-2.3615483774	 4.025847102	 0.23314
H	-1.1957169901	-1.200012065	 2.8927557834	 0.245535
H	 0.5472970427	-3.5947191821	-0.0906573224	 0.246972
H	 1.8472966629	-2.6643197816	-0.4366266725	 0.242179
92.1829	101.8567	169.7227	187.2689	211.9325	247.4957	253.9407	303.1517	316.4375	472.3853	517.322	628.7886	650.5678	728.5908	750.821	783.2415	845.0754	883.4545	907.4549	922.5319	965.3576	1018.4264	1047.485	1063.4948	1131.8637	1139.3657	1166.4302	1208.8641	1245.6998	1259.9745	1301.3409	1380.787	1438.2082	1490.4257	1493.2875	1498.6772	1663.1217	1665.4392	1846.6215	3018.1374	3083.1402	3090.3162	3150.9514	3207.47	3485.3779	3498.2274	3562.1894	3572.7815
CN=C1OC2C(N)C12N	CN=C1O[C@H]2[C@@H](N)[C@@]12N	
InChI=1S/C5H9N3O/c1-8-4-5(7)2(6)3(5)9-4/h2-3H,6-7H2,1H3	InChI=1S/C5H9N3O/c1-8-4-5(7)2(6)3(5)9-4/h2-3H,6-7H2,1H3/t2-,3+,5+/m1/s1
