17
gdb 78993	2.81162	1.96659	1.53327	1.9626	70.21	-0.2194	0.0652	0.2846	889.8484	0.136539	-421.742317	-421.735458	-421.734514	-421.773061	28.947	
O	 0.0020974907	 1.3738427894	-0.1128067626	-0.450209
C	 0.067909669	-0.0492544057	-0.0727273823	 0.098298
C	 0.2291400003	-0.5715514613	 1.3767203639	-0.179249
C	-0.1330460125	-2.0695898085	 1.3763421192	-0.080102
C	-1.3053678422	-2.0727699039	 0.3861220178	-0.079913
C	-1.5520729846	-1.8664000003	 1.866495779	-0.166557
C	-1.3310124859	-0.3503328258	 1.5954235228	 0.446942
O	-1.9287383342	 0.6664252033	 2.2918205782	-0.484457
C	-1.3764018003	-0.5762058943	 0.0251049069	-0.141229
H	 0.8782319809	 1.7161442183	 0.0930304288	 0.285412
H	 0.7249711768	-0.4478375429	-0.8572934046	 0.062414
H	 1.0028576939	-0.2030288567	 2.0511014704	 0.061165
H	 0.5135940541	-2.9239107535	 1.5245417329	 0.088026
H	-1.5574920561	-2.9283913844	-0.2256808245	 0.088387
H	-2.1497440427	-2.4207047537	 2.5763998966	 0.093383
H	-1.6504754913	 1.4873557334	 1.8643914741	 0.285262
H	-2.1688079458	-0.2089651331	-0.6250947566	 0.072428
154.3584	283.6532	335.9603	345.6744	361.3676	454.3943	497.7909	539.9446	622.2533	723.0243	754.5912	806.6974	809.9807	865.041	884.909	898.5433	931.8158	945.8205	952.1481	989.7714	994.7274	1011.2215	1033.4147	1063.6472	1083.9259	1093.9385	1129.7974	1182.7569	1205.8942	1211.801	1240.4507	1260.1851	1302.7016	1319.6295	1355.2667	1402.9162	1428.2993	3012.9438	3112.0752	3134.2447	3196.5252	3201.2047	3218.2144	3770.925	3809.2371
OC1C2C3C4C3C2(O)C14	O[C@H]1[C@@H]2[C@@H]3[C@H]4[C@@H]3[C@]2(O)[C@@H]14	
InChI=1S/C7H8O2/c8-6-4-1-2-3(1)7(4,9)5(2)6/h1-6,8-9H	InChI=1S/C7H8O2/c8-6-4-1-2-3(1)7(4,9)5(2)6/h1-6,8-9H/t1-,2+,3-,4+,5-,6+,7-
