18
gdb 22769	1.76734	1.62514	1.02168	2.2231	76.64	-0.245	-0.0271	0.218	1215.4439	0.145005	-439.045279	-439.035791	-439.034847	-439.080681	33.889	
C	-0.688298696	 1.3077748349	 0.1326759381	-0.398391
C	-0.0530481807	-0.053210492	-0.1334637415	-0.06918
C	 0.8783012173	-0.200229743	-1.3849663504	-0.259199
C	 2.0245200914	-0.7513722743	-0.4911388395	-0.193534
C	 3.3494882025	-0.0164758178	-0.5211560629	 0.148281
O	 3.5477296382	 0.9828466358	-1.1642869817	-0.242295
C	 1.1363858544	-0.4516759722	 0.7211176785	 0.398094
N	 1.2876085234	-0.4568641145	 1.9758502667	-0.228095
O	 2.5875906363	-0.8702548987	 2.3288227648	-0.397021
H	 0.0651589538	 2.1012982385	 0.1104925851	 0.1276
H	-1.4436724686	 1.533549864	-0.6270531144	 0.118548
H	-1.1715047874	 1.3275364388	 1.113842198	 0.13139
H	-0.8221296645	-0.834484535	-0.1110290472	 0.097081
H	 0.523982502	-0.8721524221	-2.1672492672	 0.107728
H	 1.15748662	 0.7585048999	-1.8265038098	 0.135333
H	 2.221251145	-1.8269675796	-0.5794056052	 0.11264
H	 4.1382953735	-0.4619940732	 0.1175822506	 0.100303
H	 2.5688401993	-0.8136196596	 3.2903655282	 0.310718
30.223	66.2809	150.2172	185.601	217.1653	250.1244	281.2268	311.4464	362.0453	431.3827	525.6609	555.7412	641.5526	664.8222	782.4046	838.4549	894.925	919.153	962.165	971.5271	1041.3417	1047.6682	1100.0712	1116.9475	1151.7487	1166.1157	1203.2822	1255.2172	1270.2388	1306.5911	1346.1086	1398.99	1408.8702	1415.1158	1486.276	1492.8016	1497.6281	1771.3947	1820.7734	2933.0333	3034.6903	3036.4755	3041.2169	3083.3493	3107.715	3114.7015	3142.341	3816.8959
CC1CC(C=O)C1=NO	C[C@H]1C[C@@H](C=O)C1=NO	
InChI=1S/C6H9NO2/c1-4-2-5(3-8)6(4)7-9/h3-5,9H,2H2,1H3	InChI=1S/C6H9NO2/c1-4-2-5(3-8)6(4)7-9/h3-5,9H,2H2,1H3/t4-,5-/m0/s1
