25
gdb 87120	2.35706	1.20836	1.14215	1.2315	88.58	-0.2531	0.0667	0.3198	1306.1105	0.225617	-389.491896	-389.480743	-389.479799	-389.527043	42.976	
C	-0.057929382	 1.444315017	-0.2563326569	-0.422065
C	 0.172949598	-0.0370446759	-0.0513179858	-0.012906
C	 1.5582131507	-0.6428058296	-0.041521012	-0.363702
C	 0.7194375014	-0.6507345201	 1.2212942585	 0.343112
C	 1.1824238633	 0.2602397227	 2.348335437	-0.480538
C	 0.0852083576	-1.9910506431	 1.6730645005	 0.273667
C	 1.0387990005	-2.7899666087	 2.5751063232	-0.437384
C	-1.2541604569	-1.7478909855	 2.3778484054	-0.396026
O	-0.2538552637	-2.7983096563	 0.5367942983	-0.453886
H	 0.7386656141	 2.0582737094	 0.1733385499	 0.112076
H	-0.1035713133	 1.6784912269	-1.3259033473	 0.11633
H	-1.0044040634	 1.7684868648	 0.1915589614	 0.114821
H	-0.5641232208	-0.6673135957	-0.5402706878	 0.098673
H	 1.7158595365	-1.5613310102	-0.5972513143	 0.086007
H	 2.4108667348	 0.02968273	-0.0610687673	 0.100753
H	 1.6063748775	 1.1887336826	 1.9596546662	 0.115058
H	 0.3623992378	 0.5359925167	 3.0199704146	 0.116273
H	 1.9614796884	-0.2156389267	 2.9525557034	 0.11609
H	 1.2101929375	-2.2966655897	 3.5352197538	 0.119918
H	 0.6122564533	-3.7779243549	 2.7718222995	 0.118757
H	 2.0134377245	-2.922540048	 2.0900915699	 0.107679
H	-1.9417342161	-1.2227855362	 1.709409096	 0.122143
H	-1.7076602006	-2.7041440722	 2.6528877318	 0.115838
H	-1.1275714623	-1.1520320649	 3.2848878349	 0.111748
H	 0.5587473332	-3.1851873923	 0.195499437	 0.277564
62.3086	149.5102	160.452	179.6032	222.8467	241.3093	261.5973	292.4964	300.8215	317.6465	334.713	364.2681	418.6826	440.6055	456.1724	506.7711	535.9514	634.9851	788.3513	815.4929	892.0181	892.6312	925.9305	931.2122	967.0358	970.4024	1007.3548	1027.3194	1050.5009	1096.5016	1121.3273	1133.3783	1143.8189	1183.8392	1197.5517	1213.098	1288.6185	1315.4962	1356.4129	1395.1901	1404.2707	1413.0428	1419.4787	1426.9086	1478.5473	1484.446	1489.9905	1491.9315	1496.8799	1500.9481	1503.2813	1509.5066	1518.3231	3027.4586	3029.0348	3036.9295	3050.569	3083.5301	3092.9945	3099.3976	3100.5524	3116.4943	3119.2895	3121.1192	3122.7498	3131.785	3155.3459	3199.6121	3815.5675
CC1CC1(C)C(C)(C)O	C[C@H]1C[C@]1(C)C(C)(C)O	
InChI=1S/C8H16O/c1-6-5-8(6,4)7(2,3)9/h6,9H,5H2,1-4H3	InChI=1S/C8H16O/c1-6-5-8(6,4)7(2,3)9/h6,9H,5H2,1-4H3/t6-,8-/m0/s1
