18
gdb 124827	4.3992	0.92429	0.79492	1.8369	73.51	-0.2536	0.003	0.2566	1416.9864	0.148859	-435.275202	-435.266435	-435.265491	-435.309546	31.99	
C	 0.1481895857	 1.5148864208	 0.0585145535	-0.403892
C	 0.0324983618	 0.0097577265	 0.2951110151	 0.132578
O	 0.1064247957	-0.300052065	 1.6867960257	-0.42311
C	-1.2411631007	-0.5761647328	-0.3403555735	-0.330214
C	-1.3173668572	-2.070679639	-0.2855075978	 0.31319
N	-1.6488113459	-2.7901714347	-1.363333167	-0.274775
N	-1.6144782332	-4.0409657661	-0.921114861	-0.074592
N	-1.2864140506	-4.213569482	 0.3513598486	-0.196142
C	-1.0921012814	-2.9664231969	 0.7802608083	-0.122529
H	 1.0396589103	 1.9066958963	 0.5552048194	 0.127192
H	 0.2136825588	 1.7453953198	-1.0093850894	 0.12191
H	-0.72777291	 2.0408651605	 0.4594840558	 0.107698
H	 0.9040603175	-0.4930198361	-0.1395778906	 0.1
H	-0.5878919584	 0.1986121733	 2.1329232879	 0.277129
H	-2.1094147719	-0.1324106919	 0.1696193628	 0.101997
H	-1.3086762217	-0.2690286879	-1.3887452347	 0.121054
H	-1.8211353551	-4.8199173745	-1.5246014864	 0.289951
H	-0.7920170336	-2.7571362602	 1.7924945433	 0.132554
39.7326	86.9631	133.0425	242.3012	290.1641	309.6062	322.3898	334.2368	456.338	483.0851	512.7859	697.6219	724.8972	763.6469	846.5518	894.7142	911.5323	945.0021	997.3025	1026.4836	1056.5511	1079.3312	1147.4462	1160.1494	1190.7072	1201.2409	1243.7831	1299.5538	1325.3225	1357.7661	1386.6102	1402.269	1414.1146	1421.8762	1470.2835	1478.3542	1493.121	1495.6415	1563.7975	2997.8652	3024.1213	3051.0675	3083.1593	3097.5875	3122.1374	3297.1959	3672.2916	3789.9251
CC(O)CC1=NNN=C1	C[C@@H](O)Cc1n[nH]nc1	
InChI=1S/C5H9N3O/c1-4(9)2-5-3-6-8-7-5/h3-4,9H,2H2,1H3,(H,6,7,8)	InChI=1S/C5H9N3O/c1-4(9)2-5-3-6-8-7-5/h3-4,9H,2H2,1H3,(H,6,7,8)/t4-/m1/s1
