21
gdb 75048	2.44448	1.48758	1.06894	1.2307	89.45	-0.2127	-0.0111	0.2016	1206.1655	0.183571	-387.094256	-387.085648	-387.084704	-387.127161	33.55	
C	 0.0387095921	 1.607362971	 0.087055608	-0.465737
C	 0.004972749	 0.1038561809	-0.0495837959	 0.257149
C	 0.0311095847	-0.4658219138	-1.2659421051	-0.161503
C	-0.0622973574	-1.866365503	-1.685704149	-0.064438
C	-0.8746995643	-2.8084134847	-1.1927703148	-0.055462
C	-1.7739563625	-2.5995753233	-0.0103659916	-0.286915
C	-1.0027138565	-2.7379277348	 1.3151414103	-0.065783
O	 0.1847057019	-1.9744146061	 1.3476898174	-0.225704
C	 0.016587519	-0.5788740637	 1.3065884525	-0.15761
H	 0.9202362267	 1.9399527446	 0.6509820263	 0.123552
H	 0.051467202	 2.0997116551	-0.8876723301	 0.12499
H	-0.836668261	 1.9753620759	 0.6388680907	 0.123269
H	 0.1374555706	 0.2258582316	-2.1030426259	 0.078806
H	 0.5345200951	-2.1164232869	-2.5618525152	 0.083729
H	-0.8606591313	-3.7974869094	-1.6439989504	 0.085125
H	-2.2161398337	-1.5968836609	-0.0573767302	 0.110702
H	-2.6011497697	-3.3185166669	-0.0057345287	 0.09612
H	-1.6589556386	-2.4694589407	 2.1593710072	 0.085326
H	-0.6804283479	-3.7743800066	 1.4582993001	 0.106897
H	 0.8656592175	-0.160089614	 1.8667353455	 0.114346
H	-0.8862828258	-0.2749751139	 1.8669579689	 0.09314
101.135	150.2045	188.003	233.6318	275.2556	306.3527	346.7992	391.7319	424.6235	487.9815	530.5375	598.1282	702.1959	740.328	836.6549	860.1504	881.9699	893.8361	953.8337	995.578	999.8197	1011.2426	1019.0137	1073.9682	1089.5713	1123.4584	1147.9784	1172.21	1241.1741	1267.4275	1282.232	1329.8333	1354.6165	1382.6745	1401.1022	1408.7474	1422.1403	1435.2095	1472.36	1478.0125	1481.293	1493.8196	1500.8151	1700.0123	1716.4908	2938.8437	2970.3466	3006.3592	3012.9827	3028.6358	3054.3872	3064.874	3082.1027	3103.7603	3120.6567	3129.6333	3161.5621
CC1=CC=CCCOC1	CC1=CC=CCCOC1	
InChI=1S/C8H12O/c1-8-5-3-2-4-6-9-7-8/h2-3,5H,4,6-7H2,1H3/b3-2-,8-5-	InChI=1S/C8H12O/c1-8-5-3-2-4-6-9-7-8/h2-3,5H,4,6-7H2,1H3/b3-2-,8-5-
