20
gdb 93524	2.81834	1.34358	1.04939	4.7725	75.8	-0.2393	0.0184	0.2577	1193.4372	0.171496	-440.324426	-440.315515	-440.314571	-440.35793	33.793	
C	-0.1861177353	 1.4880090455	-0.0179015888	-0.426513
C	 0.0684892267	-0.0167998596	-0.0049863615	 0.031437
N	 0.7832890053	-0.4336593598	-1.2062710752	-0.308925
C	 0.8093431053	-1.8845975224	-1.3154578327	-0.304458
C	 1.246715276	-2.5810866016	-0.0321562833	 0.417701
O	 1.589812031	-3.7321947983	-0.0245372152	-0.328467
O	 1.166153364	-1.8993090216	 1.13028571	-0.24453
C	 0.9133054379	-0.4713458296	 1.1925982768	 0.150408
C	 2.2510078398	 0.2440577928	 1.3502930196	-0.398717
H	 0.7414653715	 2.0425399603	-0.1805403456	 0.13654
H	-0.8818704481	 1.747195985	-0.8229304855	 0.118695
H	-0.6330605754	 1.8191075062	 0.9242098948	 0.125212
H	-0.908246269	-0.532042937	 0.0836144909	 0.064068
H	 0.3621448335	-0.0276590728	-2.0346734023	 0.224199
H	-0.1764679935	-2.3257340977	-1.5564805501	 0.118721
H	 1.5006017587	-2.2012575716	-2.1001841591	 0.141425
H	 0.3206068713	-0.3527281951	 2.1058222242	 0.093245
H	 2.8078971928	 0.2238007645	 0.4104493123	 0.138424
H	 2.1028812191	 1.2854464866	 1.6496859714	 0.118108
H	 2.8396190282	-0.2531582838	 2.1247809292	 0.133424
81.1948	106.043	207.4187	213.8067	262.7979	286.0851	308.4915	398.5141	413.7059	439.6422	525.8748	571.5009	622.9579	696.5634	734.0448	789.3982	854.2633	935.9933	974.9982	1010.9015	1019.0809	1044.5036	1093.2229	1112.7993	1149.707	1153.0934	1207.6995	1226.4812	1263.455	1308.6698	1360.6372	1376.9412	1392.7693	1407.7272	1412.3841	1417.9388	1470.913	1482.9986	1486.5712	1499.6921	1503.1396	1510.5305	1842.7983	2900.2352	2930.2728	3040.4681	3052.126	3054.9029	3099.2101	3105.4338	3124.3441	3128.3684	3138.8305	3525.8213
CC1NCC(=O)OC1C	C[C@H]1NCC(=O)O[C@H]1C	
InChI=1S/C6H11NO2/c1-4-5(2)9-6(8)3-7-4/h4-5,7H,3H2,1-2H3	InChI=1S/C6H11NO2/c1-4-5(2)9-6(8)3-7-4/h4-5,7H,3H2,1-2H3/t4-,5+/m1/s1
