14
gdb 37552	4.22967	1.74913	1.50176	0.8506	64.04	-0.2527	-0.0033	0.2494	836.0914	0.101909	-436.550886	-436.545185	-436.54424	-436.580775	23.634	
O	-0.1312183567	 1.5079856991	-0.0432602443	-0.306007
C	 1.3062228716	 1.2572431783	 0.0145351824	 0.018296
C	 1.2009979169	 0.0850678695	 1.016460347	-0.133163
C	-0.0523741968	 0.0741333307	 0.0047963582	-0.035612
C	 1.2436836168	-0.0466637245	-0.8741890491	 0.408646
O	 1.8732479438	-0.1846584887	-2.126575061	-0.28733
C	 3.154271008	-0.5066959879	-1.6744548397	 0.082996
N	 3.3598622763	-0.8167848416	-0.4528340478	-0.289342
C	 1.9879426103	-0.8949097053	 0.1089070792	-0.036813
H	 1.9893969226	 2.102476628	-0.0129689097	 0.114665
H	 1.1142402278	 0.159513198	 2.0982527774	 0.105849
H	-0.9636992148	-0.5203617112	 0.0287486748	 0.115936
H	 3.9080122731	-0.4590312346	-2.4521050236	 0.14685
H	 1.706533121	-1.9465267899	 0.2291083464	 0.095029
203.6061	311.2234	342.4708	508.7886	565.166	611.2053	687.6907	709.2409	816.7761	828.1063	859.8329	877.2637	909.3663	915.7686	925.1799	958.1917	984.0183	1026.4292	1031.8977	1074.5216	1095.7391	1110.1552	1146.4215	1176.1923	1187.8106	1232.4523	1279.0904	1315.3077	1324.075	1372.3169	1617.1945	3052.3215	3143.2781	3149.7126	3161.4517	3222.6814
O1C2C3C1C21OC=NC31	O1[C@H]2[C@H]3[C@@H]1[C@]12O[CH][N][C@@H]31	
InChI=1S/C6H5NO2/c1-7-3-2-4-6(3,8-1)5(2)9-4/h1-5H	InChI=1S/C6H5NO2/c1-7-3-2-4-6(3,8-1)5(2)9-4/h1-5H/t2-,3-,4-,5+,6-/m0/s1
