18
gdb 82248	2.41197	2.09935	1.48039	1.5736	69.32	-0.2338	0.049	0.2828	922.4263	0.150288	-439.032235	-439.025276	-439.024332	-439.063464	28.352	
O	-0.0193163017	 1.4371437592	-0.147513007	-0.436547
C	-0.017949571	 0.0322968053	-0.0154927287	 0.102533
C	-1.3991076492	-0.6350629991	 0.0035954397	-0.041659
C	-2.2446156942	-0.4745481176	-1.1991275096	-0.257235
N	-1.4832156559	-1.7214748227	-1.0041201269	-0.11751
C	-0.1809580701	-1.8029974981	-1.6998575875	-0.035927
C	-0.0542286876	-1.1029812487	-3.062782505	-0.095193
O	 0.5427529951	 0.0686907194	-2.4421120059	-0.310498
C	 0.7110171983	-0.6553460781	-1.1903047554	 0.068592
H	-0.0708723722	 1.6152349887	-1.0966097439	 0.293703
H	 0.4995453654	-0.1913051771	 0.9237493919	 0.088343
H	-1.8518903983	-0.840008115	 0.9692769027	 0.092354
H	-3.3215030748	-0.5971910727	-1.1284130221	 0.119605
H	-1.9230069521	 0.2418642043	-1.9490681323	 0.122417
H	 0.1885804709	-2.8271551025	-1.6361978044	 0.090778
H	 0.6556136172	-1.5851558358	-3.7446328772	 0.11192
H	-0.9785810936	-0.8707965099	-3.5996269922	 0.118038
H	 1.7688054737	-0.8572112096	-0.9953067362	 0.086287
106.1683	227.6928	267.7929	324.7399	429.9497	465.2041	504.011	530.7797	636.3622	710.3829	741.7452	811.5848	841.6061	868.0781	889.939	923.3225	972.1174	989.2966	1010.4482	1040.0868	1066.8446	1099.4915	1114.3313	1122.6143	1128.9693	1167.6609	1170.5838	1238.8137	1250.6554	1270.251	1276.4201	1310.8603	1331.7848	1347.4067	1353.3343	1394.2653	1445.8305	1509.0867	1518.2961	3034.4282	3048.063	3064.3879	3090.9617	3102.7817	3116.9205	3150.744	3200.3058	3751.5189
OC1C2CN2C2COC12	O[C@H]1[C@H]2CN2[C@H]2CO[C@@H]12	
InChI=1S/C6H9NO2/c8-5-3-1-7(3)4-2-9-6(4)5/h3-6,8H,1-2H2	InChI=1S/C6H9NO2/c8-5-3-1-7(3)4-2-9-6(4)5/h3-6,8H,1-2H2/t3-,4+,5+,6-,7?/m1/s1
