16
gdb 29605	2.96825	1.29025	0.9044	4.2128	73.7	-0.2117	0.0026	0.2142	1225.3559	0.124686	-437.94173	-437.933372	-437.932428	-437.975111	30.422	
C	-0.0208002308	 1.5091624244	 0.0631744878	-0.525944
C	-0.0087963941	 0.0145837797	-0.005419351	 0.140977
C	-0.0244945495	-0.7770184392	-1.110554142	-0.078009
O	-0.0058114388	-2.0899793519	-0.777912904	-0.147206
C	 0.0230421347	-2.1652115123	 0.5827396333	-0.072996
C	 0.0224992589	-0.9049987791	 1.1040622387	 0.221238
N	 0.0468439207	-0.5158556992	 2.4480775595	-0.407768
C	 0.0763002686	-1.369695559	 3.5125966932	 0.140336
O	 0.0842160821	-2.5786891834	 3.4318102342	-0.309402
H	 0.8710755243	 1.9029641118	 0.5667828649	 0.129054
H	-0.0470257616	 1.9450571208	-0.9387889753	 0.137437
H	-0.8964461284	 1.8869256457	 0.6060223369	 0.128992
H	-0.048353269	-0.5540610473	-2.1647383967	 0.137096
H	 0.0409902435	-3.1421892207	 1.0256484094	 0.16927
H	 0.0420451992	 0.4730797927	 2.6429288512	 0.254786
H	 0.0902687002	-0.8215429628	 4.4739140099	 0.082138
68.9563	139.9914	161.6924	202.7396	227.6666	269.413	393.3882	421.384	537.9552	588.6361	615.565	665.7311	684.0131	747.0107	773.8956	863.6204	919.2934	1008.0482	1010.3775	1065.2243	1079.3409	1133.8648	1187.6883	1202.8036	1245.6817	1318.5657	1384.2197	1418.4697	1429.9612	1483.8932	1498.9291	1536.5092	1598.5452	1663.5778	1799.2379	2952.919	3016.2144	3061.7111	3113.7023	3273.3344	3334.7986	3632.1243
CC1=COC=C1NC=O	Cc1cocc1NC=O	
InChI=1S/C6H7NO2/c1-5-2-9-3-6(5)7-4-8/h2-4H,1H3,(H,7,8)	InChI=1S/C6H7NO2/c1-5-2-9-3-6(5)7-4-8/h2-4H,1H3,(H,7,8)
