13
gdb 124386	5.13776	1.04014	0.86967	3.953	61.22	-0.2931	-0.0525	0.2406	1232.9653	0.087674	-489.867879	-489.859984	-489.85904	-489.90203	27.053	
C	-0.1127824617	 1.4381418486	 0.095414787	-0.485331
C	-0.4956362731	 0.0721403211	-0.3989022284	 0.425117
O	-0.6880159301	-0.2596283771	-1.532753024	-0.310026
O	-0.5999911243	-0.7852106986	 0.6770512456	-0.247483
C	-0.9358075278	-2.0855908673	 0.4996386925	 0.418733
N	-1.0170264731	-2.8416726182	 1.561025077	-0.163076
O	-1.3646287775	-4.0732594134	 1.0899395818	-0.141059
N	-1.4984057057	-4.0764925715	-0.2692704771	-0.060974
C	-1.2388916982	-2.8601826638	-0.6600301446	-0.116409
H	-0.0297719925	 2.1172619069	-0.7515190116	 0.160985
H	-0.8649307154	 1.8028997991	 0.8005007127	 0.167641
H	 0.838023072	 1.3860965765	 0.6331848823	 0.167644
H	-1.2687661026	-2.5691422423	-1.6936420033	 0.184237
33.3865	81.6815	99.5697	182.188	351.1104	359.1643	378.1041	588.9085	601.2321	642.0588	718.9276	746.9748	902.2935	902.7705	918.5801	948.1174	1012.3153	1035.356	1064.018	1095.4067	1198.4709	1227.9788	1398.2214	1430.4841	1465.6804	1469.6558	1472.1882	1610.8293	1858.2398	3060.9406	3126.451	3177.526	3325.5031
CC(=O)OC1=NON=C1	CC(=O)Oc1nonc1	
InChI=1S/C4H4N2O3/c1-3(7)8-4-2-5-9-6-4/h2H,1H3	InChI=1S/C4H4N2O3/c1-3(7)8-4-2-5-9-6-4/h2H,1H3
