18
gdb 106071	2.46014	1.68264	1.37415	3.4079	71.19	-0.2294	0.0524	0.2818	1004.693	0.147302	-439.007627	-438.999294	-438.99835	-439.040573	31.817	
O	-0.0373748258	 1.3893557902	-0.3600455923	-0.418629
C	 0.0113082095	-0.003274708	-0.0790293336	-0.225998
C	-1.3574965969	-0.5713277831	 0.0800306681	 0.315874
C	-2.0112996216	-1.8982388937	 0.1542198822	-0.104838
C	-2.8539337216	-1.5079646992	 1.3678195341	-0.310316
C	-2.5982107556	-0.0454763787	 0.8990492844	 0.297253
O	-2.4992821478	 1.0256375888	 1.7782462319	-0.487603
C	-3.3222342164	 0.0111662988	-0.4579675769	-0.207905
N	-2.3096655238	-0.9572320599	-0.9983032411	-0.181841
H	-0.4988888285	 1.8093348542	 0.3751843083	 0.294884
H	 0.5129173694	-0.48025432	-0.9270944658	 0.126026
H	 0.6099980414	-0.2074747595	 0.8230136262	 0.095129
H	-1.6285074085	-2.8722496643	-0.1212248593	 0.104345
H	-3.8905751108	-1.8573680058	 1.4322562428	 0.092521
H	-2.3215022737	-1.7215456991	 2.2980223807	 0.112583
H	-3.3675846652	 1.2169065915	 2.1506948635	 0.288257
H	-4.368385813	-0.3133135485	-0.5148950668	 0.089882
H	-3.1852095712	 0.9658737463	-0.9705580165	 0.120378
81.1438	114.7773	162.4214	209.5411	313.4811	371.2955	408.0523	421.1336	462.2693	501.853	619.8255	682.2062	715.4784	771.5658	848.3918	879.1528	921.0157	952.8523	971.5609	1008.2387	1050.0848	1050.9686	1075.0781	1106.286	1122.9874	1146.8026	1169.5541	1223.444	1238.3959	1251.573	1262.4492	1295.511	1358.5596	1381.7182	1412.6291	1461.8119	1487.4701	1490.5523	1510.4697	2976.8987	3027.3657	3038.7653	3081.3095	3109.0512	3115.1819	3202.3868	3796.6207	3798.0213
OCC12C3CC1(O)CN23	OC[C@@]12[C@H]3C[C@]1(O)CN23	
InChI=1S/C6H9NO2/c8-3-6-4-1-5(6,9)2-7(4)6/h4,8-9H,1-3H2	InChI=1S/C6H9NO2/c8-3-6-4-1-5(6,9)2-7(4)6/h4,8-9H,1-3H2/t4-,5+,6-,7?/m1/s1
