14
gdb 48758	4.17598	1.24816	1.08613	2.1442	64.42	-0.2644	-0.0512	0.2132	1064.8435	0.100013	-473.826503	-473.819143	-473.818198	-473.858638	27.462	
N	 0.0044564662	 1.1432953283	-0.6163234556	-0.559414
C	 0.00485175	 0.046032195	-0.014220858	 0.474007
O	 1.0951134093	-0.7265791593	 0.3127386668	-0.246239
C	 0.6777327224	-1.8536506891	 1.0396774937	 0.037016
C	 0.0187144425	-1.6133222472	 2.3580065148	-0.366331
C	-0.8320172518	-1.7351014857	 1.1070024867	 0.282163
O	-1.1429719449	-0.5433199291	 0.4308025546	-0.260561
C	-1.7563850654	-2.8697003008	 0.878443286	 0.08884
O	-1.6586655267	-3.9209000656	 1.4621337158	-0.263498
H	 0.9509283551	 1.4199559185	-0.8631523656	 0.242007
H	 1.2051079623	-2.7651697006	 0.7908988313	 0.147771
H	-0.0460095436	-2.4665871827	 3.024313463	 0.162997
H	 0.0983415067	-0.633480949	 2.8152473908	 0.151543
H	-2.5360809322	-2.6727378827	 0.1144501457	 0.1097
97.4844	130.9893	209.8323	218.9387	373.0006	409.2148	469.996	526.9546	703.3934	710.786	714.9708	780.9441	800.2895	831.0261	876.2142	918.9451	977.8902	999.3486	1026.1233	1050.969	1076.0347	1093.6726	1150.2099	1224.5906	1260.048	1311.4949	1387.4494	1414.8795	1448.6206	1811.1889	1816.4395	2932.7828	3140.7157	3210.1754	3245.0084	3549.9873
N=C1OC2CC2(O1)C=O	[NH][C]1O[C@H]2C[C@]2(O1)C=O	
InChI=1S/C5H5NO3/c6-4-8-3-1-5(3,2-7)9-4/h2-3,6H,1H2	InChI=1S/C5H5NO3/c6-4-8-3-1-5(3,2-7)9-4/h2-3,6H,1H2/t3-,5-/m0/s1
