20
gdb 109573	2.338	1.41785	0.96461	2.7924	78.06	-0.2284	0.0278	0.2562	1272.534	0.168928	-440.2994	-440.289108	-440.288164	-440.334997	35.652	
C	-0.0426297975	 1.3725666613	 0.3397161893	-0.246392
O	-0.0362182869	 0.1009534379	-0.2903177382	-0.241823
C	-1.2482458966	-0.5780778943	-0.151920286	-0.035521
C	-1.2237776632	-2.0424522149	-0.6972331767	-0.002303
C	 0.1050521387	-2.5518991975	-1.2344135627	-0.393656
N	-1.5678818042	-2.4714718609	 0.6697217935	-0.076848
C	-1.8550321614	-3.7636351219	 1.2356733523	-0.350111
C	-1.5499729948	-1.2233716065	 1.2330429021	 0.391887
O	-1.7100348929	-0.8398405091	 2.3660929336	-0.389378
H	 0.9452363341	 1.809819109	 0.1796869537	 0.12701
H	-0.8032405132	 2.0319498799	-0.106226894	 0.106209
H	-0.23876769	 1.2867186865	 1.4147366072	 0.146243
H	-2.0912795124	 0.0214225311	-0.528870835	 0.084492
H	-2.0321753976	-2.2492841741	-1.4107504986	 0.079194
H	 0.9189528595	-2.3194810839	-0.5445212418	 0.134809
H	 0.0696365331	-3.634688957	-1.3929323396	 0.113943
H	 0.3271273333	-2.0774126591	-2.194638653	 0.130638
H	-1.0053760175	-4.4488625187	 1.133589436	 0.131805
H	-2.0631032339	-3.6192305979	 2.2986182659	 0.162326
H	-2.7312384767	-4.2241812098	 0.7621795018	 0.127478
71.7066	102.6893	117.3778	146.8723	156.8484	193.3102	202.0249	235.1724	256.0398	361.3837	391.588	467.4633	563.0523	651.0097	748.1876	815.7773	858.3894	922.6208	986.0178	1060.4054	1068.5102	1074.9648	1130.4945	1148.4491	1176.4595	1184.4132	1211.4196	1243.1748	1260.6794	1295.9394	1374.914	1384.0997	1409.8077	1418.0764	1448.7353	1481.0239	1482.0384	1485.6063	1489.3044	1492.1425	1513.1112	1517.2417	1862.5894	2983.9122	2989.478	3014.6963	3019.2695	3044.0943	3067.1295	3067.8939	3111.1825	3126.7693	3128.4385	3136.9954
COC1C(C)N(C)C1=O	CO[C@H]1[C@@H](C)N(C)C1=O	
InChI=1S/C6H11NO2/c1-4-5(9-3)6(8)7(4)2/h4-5H,1-3H3	InChI=1S/C6H11NO2/c1-4-5(9-3)6(8)7(4)2/h4-5H,1-3H3/t4-,5+/m1/s1
