16
gdb 105567	2.0128	1.56204	1.3208	3.4446	70.62	-0.2606	-0.0135	0.2471	1065.2057	0.124187	-434.053746	-434.0449	-434.043956	-434.087476	31.568	
C	-0.1118497952	 1.5281232809	-0.0277880335	-0.348352
N	 0.0462879567	 0.0680842207	-0.00797938	-0.330369
C	 0.7120357685	-0.484095276	-1.1725056814	 0.017744
C	 0.5661666096	-2.0271444948	-1.2935919455	-0.115286
O	-0.2927577738	-1.8645794862	-2.460252954	-0.244393
C	-0.1790079346	-0.4979488744	-2.4241325731	 0.455583
N	-0.6528605401	 0.4012510058	-3.1506100023	-0.531451
C	 2.0794570469	 0.0203126985	-1.3913179357	 0.247459
N	 3.1566077074	 0.4269230833	-1.4964188327	-0.335009
H	 0.8421374944	 2.0747994985	-0.0660494917	 0.127907
H	-0.7048075114	 1.8092763406	-0.9003135169	 0.169733
H	-0.6525804222	 1.8259166159	 0.8736625958	 0.128354
H	 0.5594961618	-0.2107726655	 0.8233656028	 0.234543
H	 1.4729913275	-2.5793324281	-1.5441494161	 0.143606
H	 0.0251295303	-2.4817695407	-0.462422564	 0.138214
H	-1.2408757956	 0.0232839615	-3.8952175117	 0.241717
106.8834	111.6956	128.9019	170.3251	186.398	252.814	300.8734	380.3989	423.8839	536.9526	574.3507	635.0486	704.5483	770.4444	789.9998	859.5613	903.0218	970.0391	1011.199	1017.8869	1062.2083	1141.3265	1161.8153	1180.6193	1201.1951	1221.9495	1254.555	1363.5978	1456.7174	1477.8519	1496.3765	1498.5064	1522.025	1831.5905	2345.0923	2997.4913	3080.0222	3097.1385	3142.822	3152.5902	3483.0906	3508.1731
CNC1(COC1=N)C#N	CN[C@]1(CO[C]1[NH])C#N	
InChI=1S/C5H7N3O/c1-8-5(2-6)3-9-4(5)7/h7-8H,3H2,1H3	InChI=1S/C5H7N3O/c1-8-5(2-6)3-9-4(5)7/h7-8H,3H2,1H3/t5-/m0/s1
