17
gdb 35989	6.39835	0.55757	0.55603	1.2295	83.43	-0.2513	0.0312	0.2825	1968.2638	0.134009	-384.597287	-384.587844	-384.5869	-384.633793	32.799	
C	-0.1818172262	-1.1981589159	 0.6884707214	-0.44333
C	-0.094372957	-0.0927980312	 0.2285436191	 0.317766
C	-0.00341349	 1.2556485803	-0.3353210844	-0.492769
C	 1.3530135334	 1.8072046527	-0.323251566	 0.076398
C	 2.4682726454	 2.2601876384	-0.3129156957	 0.09462
C	 3.8022072734	 2.8200851917	-0.3071057275	-0.21432
C	 4.3729915378	 3.4238218119	-1.6222680989	-0.073239
O	 4.7280781966	 4.6473185713	-0.9530190864	-0.267931
C	 4.0115642368	 4.2632915877	 0.2343951839	-0.073145
H	-0.2543066392	-2.1758758122	 1.096197007	 0.201333
H	-0.3850744574	 1.2432015948	-1.365769978	 0.162183
H	-0.6762699796	 1.9251861371	 0.218431655	 0.162197
H	 4.5082843978	 2.1192534633	 0.1471128637	 0.11401
H	 5.2434108344	 2.9186149402	-2.0539772061	 0.110552
H	 3.6148833688	 3.579973989	-2.3997911017	 0.107587
H	 3.0780188429	 4.8263520684	 0.3571502387	 0.107554
H	 4.621757882	 4.3619987626	 1.1383775758	 0.110534
17.829	62.9006	94.6645	110.614	181.9985	283.0405	315.1567	322.6129	463.1183	506.4497	534.3255	623.7113	647.5331	663.0231	843.1787	891.2406	907.7299	933.1132	956.8136	1003.0684	1025.7027	1040.4593	1107.5998	1159.1357	1170.6915	1193.1418	1231.0132	1240.1232	1304.9912	1332.0777	1349.247	1384.1234	1452.3018	1510.3745	1536.3016	2247.7443	2371.8719	3007.588	3015.6029	3025.9552	3031.4071	3059.6521	3074.0524	3083.4118	3506.3371
C#CCC#CC1COC1	C#CCC#CC1COC1	
InChI=1S/C8H8O/c1-2-3-4-5-8-6-9-7-8/h1,8H,3,6-7H2	InChI=1S/C8H8O/c1-2-3-4-5-8-6-9-7-8/h1,8H,3,6-7H2
