16
gdb 24301	4.0414	1.60568	1.24829	2.3195	75.36	-0.2036	0.0224	0.226	965.764	0.127708	-400.766885	-400.760539	-400.759594	-400.797521	25.847	
C	-0.0442876856	 1.4676196035	-0.0053184038	-0.218503
C	 1.4304338272	 1.8745602936	-0.0242665998	 0.053591
O	 2.1627578014	 1.4731702682	 1.1276904727	-0.252409
C	 2.2580474951	 0.6532274646	-0.0727416634	-0.164643
C	 1.3221722281	-0.4830905145	-0.0696224106	 0.397656
C	 1.2540735216	-1.8577902724	-0.060119854	-0.323819
C	-0.1272711856	-2.1942632466	 0.0281931582	-0.138923
C	-0.8534493092	-1.018971299	 0.0758741953	-0.12609
N	 0.0392817881	 0.0119854368	 0.004373854	-0.013801
H	-0.558415487	 1.8477661247	 0.8836193913	 0.136918
H	-0.565572423	 1.8346706447	-0.897405253	 0.122943
H	 1.7154560191	 2.8224600441	-0.472255978	 0.106107
H	 3.241874329	 0.6073110539	-0.5251113131	 0.109216
H	 2.0865746815	-2.542982207	-0.095958206	 0.099461
H	-0.5449559544	-3.1893218871	 0.0528497356	 0.095707
H	-1.9158607962	-0.8453897777	 0.1381615345	 0.116588
141.2963	193.5285	348.2379	427.6802	445.1788	612.2096	626.1529	695.1192	713.8911	739.685	763.813	780.1703	833.1058	844.3497	870.2998	904.1825	924.503	993.4843	1043.2631	1052.2796	1085.3009	1104.8228	1175.6346	1215.4183	1232.5376	1245.6248	1299.3284	1307.6641	1336.206	1393.1132	1422.1827	1446.2043	1490.7422	1521.5032	1605.0593	3033.8496	3079.615	3154.1992	3189.559	3241.3546	3256.3273	3268.7432
C1C2OC2C2=CC=CN12	C1[C@H]2O[C@H]2c2cccn12	
InChI=1S/C7H7NO/c1-2-5-7-6(9-7)4-8(5)3-1/h1-3,6-7H,4H2	InChI=1S/C7H7NO/c1-2-5-7-6(9-7)4-8(5)3-1/h1-3,6-7H,4H2/t6-,7+/m1/s1
