18
gdb 51067	3.77065	1.10755	1.06787	2.4289	76.13	-0.239	-0.0268	0.2122	1181.8588	0.147691	-401.889114	-401.881318	-401.880374	-401.922448	29.302	
O	-0.3192282704	 0.087990255	 0.1652042329	-0.236757
C	-0.0112937888	 1.2500183753	 0.1144157582	 0.155519
C	 1.3879275255	 1.7585406085	-0.187223325	-0.429933
C	 1.401869243	 2.7468602369	-1.3103528629	 0.348012
C	 2.2926449605	 3.8737802416	-1.6803797351	-0.093522
C	 2.3081269804	 3.4657616782	-3.1514405886	-0.239592
C	 0.9806077632	 2.7231076971	-2.8425265924	-0.125471
C	 0.0457334904	 3.8807256114	-2.4645005801	-0.151202
N	 0.8718395379	 4.1413170152	-1.2382108946	-0.185198
H	-0.7577488295	 2.0568379396	 0.2912258082	 0.092083
H	 1.7558490552	 2.2687905304	 0.7141228937	 0.135799
H	 2.0370152046	 0.9009097447	-0.3900779607	 0.126173
H	 3.0648861437	 4.3547285026	-1.0939988585	 0.101169
H	 2.2832142174	 4.2443335661	-3.9213436189	 0.098955
H	 3.1302931023	 2.7735612289	-3.3495457386	 0.110514
H	 0.6604877541	 1.8693915733	-3.4364610755	 0.083824
H	-0.0395278041	 4.7241820176	-3.159535723	 0.09945
H	-0.9501501854	 3.5612145575	-2.1465482293	 0.110177
55.5905	64.2035	156.589	271.8308	316.9938	420.2083	466.0411	500.2606	631.5816	702.3844	749.9019	820.8567	832.3458	846.1387	921.1941	936.5326	966.2625	975.9272	992.3523	1021.3596	1051.6794	1074.9433	1085.9542	1123.2666	1135.1173	1158.8452	1193.0166	1224.3213	1234.3411	1256.0011	1273.3755	1300.3263	1317.7408	1416.9809	1425.7913	1442.6871	1493.3651	1514.1251	1835.3176	2883.7143	3019.7244	3034.0619	3045.6867	3091.6696	3100.2251	3108.2544	3137.7263	3202.0207
O=CCC12C3CC1CN23	O=CC[C@@]12[C@H]3C[C@@H]1CN23	
InChI=1S/C7H9NO/c9-2-1-7-5-3-6(7)8(7)4-5/h2,5-6H,1,3-4H2	InChI=1S/C7H9NO/c9-2-1-7-5-3-6(7)8(7)4-5/h2,5-6H,1,3-4H2/t5-,6-,7+,8?/m1/s1
