18
gdb 111183	2.86949	1.22866	0.98386	3.5694	77.5	-0.2659	0.0231	0.2889	1224.4258	0.148065	-401.900448	-401.89222	-401.891275	-401.933656	30.67	
C	 0.099002726	 1.3206300206	-0.2065867892	-0.250949
O	-0.0020320005	 0.0345463747	 0.3732335612	-0.257056
C	-1.254408679	-0.5493855261	 0.2061707782	 0.177917
C	-1.5620347521	-1.3608796687	-1.1036062082	-0.100888
C	-0.5275439784	-2.4107340495	-0.5983416883	-0.24357
C	-1.3625345012	-2.0255286275	 0.6611991909	-0.093801
C	-2.6253573284	-2.1385779792	-0.2593293734	-0.147424
C	-3.8639781774	-1.478683232	 0.1260420387	 0.267671
N	-4.8623679119	-0.9755300221	 0.4222911793	-0.338368
H	 1.0913287993	 1.7059132839	 0.036566812	 0.133598
H	-0.0127393632	 1.2870547981	-1.2998922059	 0.112452
H	-0.6600942277	 2.0053750543	 0.1993816887	 0.117348
H	-2.0521461323	 0.1260085632	 0.5422889365	 0.092083
H	-1.7071130406	-0.9902483855	-2.117981511	 0.09058
H	-0.647007069	-3.4312296905	-0.97016376	 0.097802
H	 0.5122883021	-2.0925065039	-0.5918455294	 0.125996
H	-1.2727380674	-2.4130389744	 1.6753967301	 0.095101
H	-2.8352607784	-3.1492738954	-0.6153726802	 0.121507
81.8103	125.119	156.1863	183.3475	232.3954	345.5132	414.1744	466.469	508.6744	538.178	625.8638	780.3301	840.624	860.301	890.2819	905.2197	939.9458	1011.3119	1021.5933	1046.3219	1075.357	1090.6565	1097.998	1115.457	1168.7349	1183.0335	1196.7748	1212.7004	1224.7529	1235.3121	1248.0761	1269.4775	1365.4472	1422.1456	1483.8073	1489.215	1505.81	1517.8569	2349.7935	2987.0812	3026.9285	3038.8243	3074.4525	3093.689	3121.4635	3124.9713	3127.9993	3171.4419
COC1C2CC1C2C#N	CO[C@H]1[C@H]2C[C@@H]1[C@H]2C#N	
InChI=1S/C7H9NO/c1-9-7-4-2-5(7)6(4)3-8/h4-7H,2H2,1H3	InChI=1S/C7H9NO/c1-9-7-4-2-5(7)6(4)3-8/h4-7H,2H2,1H3/t4-,5+,6-,7-
