17
gdb 80843	2.55808	1.74147	1.3206	1.1906	68.18	-0.2481	-0.0216	0.2266	980.0182	0.136109	-458.968169	-458.960432	-458.959487	-458.999965	30.842	
O	-0.0999557237	 1.4306769216	 0.0407428573	-0.447315
C	-0.0261487691	 0.0302471906	 0.0003895979	 0.094382
C	-1.4128468817	-0.6408126399	-0.1835528211	-0.061526
C	-1.3164507334	-0.2600070017	-1.6909132425	-0.300552
C	 0.2074256659	-0.5492476776	-1.4522269663	 0.295922
O	 1.2236212466	-0.114908496	-2.2705572899	-0.496011
C	 0.1697194152	-2.0237401685	-1.1409924936	 0.370636
O	 0.9532281177	-2.8444291386	-1.5499085072	-0.359274
C	-1.0324892581	-2.1395719202	-0.1955691394	-0.34765
H	 0.7202208652	 1.7743035997	-0.3327257092	 0.296751
H	 0.6175202702	-0.3603564483	 0.8022093964	 0.070752
H	-2.2589898626	-0.3334298225	 0.4261811256	 0.088655
H	-1.8483170133	-0.8752578346	-2.4208303521	 0.101897
H	-1.491072384	 0.8000033354	-1.8626663297	 0.132717
H	 1.7582014592	-0.8984317276	-2.4768943271	 0.293672
H	-0.7335115343	-2.5404564233	 0.7785187722	 0.131857
H	-1.8140021198	-2.7848942283	-0.6078629514	 0.135087
126.7801	185.9513	267.3871	290.3644	337.2844	387.2712	396.4989	448.0556	489.0731	562.5846	605.3161	619.0986	679.3539	799.749	834.7714	896.1281	911.1391	946.1229	971.8099	1009.5236	1024.0579	1067.4498	1099.2951	1131.3417	1151.491	1174.4843	1201.3697	1246.4553	1249.6667	1290.6355	1328.1188	1371.533	1384.0831	1426.7247	1453.859	1499.0684	1852.1847	2992.8334	3055.2363	3075.942	3102.9908	3149.3075	3167.2824	3692.1931	3793.1116
OC1C2CC1(O)C(=O)C2	O[C@H]1[C@H]2C[C@]1(O)C(=O)C2	
InChI=1S/C6H8O3/c7-4-1-3-2-6(4,9)5(3)8/h3,5,8-9H,1-2H2	InChI=1S/C6H8O3/c7-4-1-3-2-6(4,9)5(3)8/h3,5,8-9H,1-2H2/t3-,5+,6+/m1/s1
