19
gdb 68886	2.35297	1.8071	1.40417	2.202	75.21	-0.2366	0.076	0.3126	1003.0927	0.158972	-422.975238	-422.966986	-422.966041	-423.00751	32.744	
O	-0.1243275792	 1.4176646145	-0.0080651954	-0.460239
C	-0.037974605	 0.0384673023	-0.0537409491	 0.348945
C	-0.2800733295	-0.834970465	 1.1602988296	-0.435624
C	-1.1854006795	-0.9642732295	-0.0475415075	 0.348963
O	-2.5403534321	-0.6939182975	 0.0047906326	-0.460256
C	-0.5113822314	-1.7929645617	-1.1315967532	-0.096073
C	-0.8936116992	-1.3393870591	-2.5645353367	-0.230042
C	 0.2787200896	-0.3143985762	-2.5709499654	-0.230054
C	 0.6862049281	-0.7461861862	-1.1382189913	-0.096175
H	 0.6144028523	 1.7523756009	 0.5121481056	 0.28535
H	 0.410855237	-1.6239197347	 1.4526188111	 0.098708
H	-0.746235091	-0.2964024165	 1.9799822689	 0.113882
H	-2.9673027984	-1.3765417323	 0.5340239857	 0.285368
H	-0.3757816326	-2.8622730004	-0.9498671547	 0.055667
H	-0.7793306312	-2.1287024702	-3.3108026859	 0.093668
H	-1.9014745743	-0.927122046	-2.6495174855	 0.114296
H	 1.0409674477	-0.5369122746	-3.3209197262	 0.093669
H	 0.0041060778	 0.7390220004	-2.6596801517	 0.114285
H	 1.7288820108	-1.0226979483	-0.961612831	 0.055663
124.0258	195.5125	208.6216	225.3086	251.0798	270.0803	428.2062	452.8608	526.7101	527.8686	544.8802	706.6758	716.8531	778.1932	826.7215	838.619	841.9128	856.913	954.7595	982.4195	986.0341	1015.762	1047.542	1060.3814	1123.0627	1131.2781	1141.1008	1186.3491	1238.9886	1240.7124	1248.2898	1269.249	1275.2028	1290.0229	1301.0076	1320.9799	1348.9409	1420.5136	1480.5303	1496.2275	1512.5595	3060.3869	3066.644	3067.7564	3079.3357	3093.6796	3108.2798	3126.2718	3198.5894	3793.3265	3793.539
OC12CC1(O)C1CCC21	O[C@@]12C[C@]1(O)[C@H]1CC[C@@H]21	
InChI=1S/C7H10O2/c8-6-3-7(6,9)5-2-1-4(5)6/h4-5,8-9H,1-3H2	InChI=1S/C7H10O2/c8-6-3-7(6,9)5-2-1-4(5)6/h4-5,8-9H,1-3H2/t4-,5+,6-,7+
