21
gdb 26215	3.77186	1.05137	0.84801	1.4769	88.98	-0.1657	0.0523	0.218	1414.0267	0.182453	-383.28884	-383.278951	-383.278007	-383.324391	35.809	
C	 0.0062165575	 1.3832640274	 0.2897478858	-0.327909
N	-0.0023471357	 0.0537412604	-0.2962568582	-0.152381
C	 1.2067850125	-0.7058942215	-0.0558232949	-0.320757
C	-1.1974877177	-0.67030184	-0.1699406301	 0.319351
C	-1.3239329485	-2.0393871725	-0.001904938	-0.212026
N	-2.6695492079	-2.3527820756	-0.0037063196	 0.014215
C	-3.211406801	-3.6730522467	 0.2173060098	-0.334378
C	-3.3928313628	-1.203141666	-0.1447437481	-0.075076
C	-2.5234188004	-0.1421920539	-0.2523262781	-0.291636
H	 0.9264004688	 1.8987167779	-0.002027658	 0.113471
H	-0.8348844927	 1.969369243	-0.0868336366	 0.127294
H	-0.0505267189	 1.3751637591	 1.3929225468	 0.099348
H	 1.2898441943	-1.0804309267	 0.9813936751	 0.095257
H	 1.2425352615	-1.5680275125	-0.7295548162	 0.123245
H	 2.0781631772	-0.0784789083	-0.2632663267	 0.113088
H	-0.5840759686	-2.8124951459	 0.1156849867	 0.104101
H	-3.0822391865	-3.9988022393	 1.2569149451	 0.132592
H	-4.2787589709	-3.6662994633	-0.0130482148	 0.136497
H	-2.7233211725	-4.4030817637	-0.436606471	 0.134926
H	-4.4712667101	-1.2305863138	-0.1593656976	 0.110927
H	-2.8073385578	 0.8873597019	-0.3992208414	 0.089852
39.7852	55.9889	129.8856	186.3541	191.6206	213.9151	256.3904	348.8922	372.9845	392.8044	504.5019	579.8054	598.4936	612.8875	676.8991	711.1735	739.2733	775.0812	927.4652	1008.4198	1017.4176	1077.6845	1081.4287	1110.3369	1126.2631	1149.8366	1173.2591	1184.5145	1226.7461	1294.3282	1302.6001	1384.8144	1415.1251	1430.613	1443.8698	1457.2718	1477.0275	1482.0074	1483.7185	1493.3201	1501.0305	1515.1777	1523.3164	1553.8729	1615.3965	2931.8786	2947.0486	3019.6514	3059.281	3071.0601	3077.8955	3105.8174	3118.8949	3128.2843	3245.6149	3265.1193	3273.4311
CN(C)C1=CN(C)C=C1	CN(C)c1cn(C)cc1	
InChI=1S/C7H12N2/c1-8(2)7-4-5-9(3)6-7/h4-6H,1-3H3	InChI=1S/C7H12N2/c1-8(2)7-4-5-9(3)6-7/h4-6H,1-3H3
