18
gdb 105334	2.46319	1.45397	1.1383	3.3437	75.51	-0.2679	0.0266	0.2945	1119.0573	0.147932	-401.925941	-401.917472	-401.916528	-401.959028	32.111	
O	 0.1200895059	 1.3990003672	-0.154288245	-0.41718
C	 0.0732791064	 0.0107534813	 0.0970474173	-0.119852
C	-1.3570857241	-0.5518586052	-0.0038936261	 0.121471
C	-2.0618860718	-0.5172220705	-1.4175002679	-0.28239
C	-2.2594386538	-2.0357551448	-1.3405143579	-0.024455
C	-0.9344674502	-2.7233156516	-1.2114968694	-0.300647
C	-1.542486715	-2.0876512124	 0.0104816772	-0.086029
C	-2.1778416932	 0.103792003	 1.0110737486	 0.239301
N	-2.7843103878	 0.6565287906	 1.8268161947	-0.351678
H	-0.3529827906	 1.8483933123	 0.5557579547	 0.299174
H	 0.6962564667	-0.4576244316	-0.6686177098	 0.116377
H	 0.4974138393	-0.2488897725	 1.078702416	 0.106075
H	-2.9909027779	 0.0523434973	-1.4012164599	 0.13368
H	-1.430992754	-0.1465225611	-2.230184197	 0.118861
H	-3.1556681214	-2.5601086098	-1.644906383	 0.099672
H	-0.9689251068	-3.8079308002	-1.2055294053	 0.124076
H	-0.0484123539	-2.3150758345	-1.6898323439	 0.116094
H	-1.7836356579	-2.6577557676	 0.8983421667	 0.107448
94.5927	132.7566	162.619	174.6829	249.7829	369.5606	375.7781	408.371	478.949	500.9544	574.9696	666.2556	747.7108	789.344	846.1559	892.6782	913.3378	951.2895	970.1227	985.5845	1018.9982	1067.3736	1083.7324	1089.5465	1099.5612	1120.8487	1140.2095	1174.5876	1225.3436	1250.5939	1271.463	1303.9764	1359.6881	1383.1988	1420.6117	1482.3284	1492.1717	1505.6039	2343.0146	2995.108	3067.3765	3100.8162	3119.2074	3137.3562	3193.0979	3197.9757	3210.0584	3795.4163
OCC1(CC2CC12)C#N	OC[C@]1(C[C@H]2C[C@@H]12)C#N	
InChI=1S/C7H9NO/c8-3-7(4-9)2-5-1-6(5)7/h5-6,9H,1-2,4H2	InChI=1S/C7H9NO/c8-3-7(4-9)2-5-1-6(5)7/h5-6,9H,1-2,4H2/t5-,6-,7+/m1/s1
