17
gdb 49095	3.45387	1.54944	1.28068	3.2507	72.68	-0.2398	-0.0264	0.2135	989.3753	0.136698	-421.805788	-421.79871	-421.797766	-421.837285	27.81	
O	-0.2330576761	 0.4220495573	-0.6830406634	-0.273611
C	 0.2134254651	 1.0953448828	 0.2162015761	 0.069767
C	 1.4268536933	 1.9321911138	 0.1009068827	 0.351362
O	 1.846985184	 2.5523368163	 1.2926190971	-0.317626
C	 2.3997580024	 3.8284629823	 0.9299633703	-0.092072
C	 2.7920512898	 3.6562452627	-0.5352161246	-0.086942
C	 3.7253784114	 2.4062975859	-0.6910625515	-0.245461
C	 2.4785456941	 1.5612715986	-0.9492942645	-0.105981
C	 1.6292515239	 2.8039302582	-1.1139066722	-0.126583
H	-0.2641898349	 1.1423956371	 1.2180541141	 0.089126
H	 1.6488330126	 4.6217283104	 1.0629591965	 0.098404
H	 3.2503965847	 4.0284585908	 1.5886840102	 0.11406
H	 3.0833167935	 4.5713807781	-1.0485600646	 0.085233
H	 4.3457022208	 2.4778864684	-1.587102064	 0.112894
H	 4.3504310599	 2.1442562612	 0.1683322883	 0.107025
H	 2.4009176646	 0.6184964392	-1.4771161664	 0.110773
H	 0.8548508909	 3.0607190668	-1.8239970941	 0.109632
115.4811	183.8276	208.5505	264.9672	376.3591	452.3572	508.0126	638.0005	683.1386	726.7277	782.7335	844.553	854.904	871.3844	904.0519	949.7564	957.8046	989.7864	1023.6021	1032.2781	1052.0821	1067.0764	1097.6892	1119.6343	1175.6678	1181.091	1214.7295	1232.0757	1262.0679	1274.0288	1306.1308	1368.9692	1378.8425	1416.2453	1487.1982	1511.5665	1806.0008	2911.8368	2993.4403	3051.7877	3083.3073	3111.9431	3130.3112	3191.9385	3209.7248
O=CC12OCC3CC1C23	O=C[C@@]12OC[C@H]3C[C@@H]1[C@@H]23	
InChI=1S/C7H8O2/c8-3-7-5-1-4(2-9-7)6(5)7/h3-6H,1-2H2	InChI=1S/C7H8O2/c8-3-7-5-1-4(2-9-7)6(5)7/h3-6H,1-2H2/t4-,5-,6+,7-/m1/s1
