15
gdb 34877	2.33408	1.73613	1.2039	0.3758	70.87	-0.2497	0.0341	0.2839	1023.0947	0.110221	-420.515424	-420.5077	-420.506756	-420.54774	29.511	
C	-0.1535796635	-1.2711598222	-0.0051471203	-0.454998
C	-0.070557575	-0.0720698678	 0.0165585356	 0.343324
C	 0.0427388138	 1.3700138646	 0.0322663456	-0.323475
C	-0.2170979317	 2.1247637264	 1.3640982577	 0.023987
O	 0.8056937707	 1.752918086	 2.2824217654	-0.22794
C	 1.1019985564	 2.7784293275	 1.3210583749	-0.10029
C	 1.4576898621	 2.0400808351	 0.0406433201	 0.443194
C	 2.7363809443	 1.5951084668	-0.4945659963	-0.259587
O	 1.9803320237	 2.6644789206	-1.1056753932	-0.275151
H	-0.2295517726	-2.3302938966	-0.0131126494	 0.199876
H	-0.5336611643	 1.8258262078	-0.7810818699	 0.126832
H	-1.1664955675	 2.4592161279	 1.7637011192	 0.120408
H	 1.4406245632	 3.7424595061	 1.6797696364	 0.124624
H	 3.6637902532	 1.8976490759	-0.0121893886	 0.125317
H	 2.7779361871	 0.6724539219	-1.0696293272	 0.133878
97.2209	128.4962	179.7863	295.8304	321.7791	357.8894	479.0561	499.1388	574.2836	625.4837	635.1288	666.3475	777.9545	844.1467	857.8612	884.9678	891.0556	914.6412	1003.3498	1009.7243	1051.0417	1063.4481	1118.2448	1137.8008	1156.7718	1175.6737	1219.7817	1253.9044	1325.7907	1374.6883	1444.7455	1537.3782	2238.0732	3053.2224	3094.8697	3187.6297	3193.2069	3208.1738	3502.653
C#CC1C2OC2C11CO1	C#C[C@H]1[C@H]2O[C@H]2[C@]21CO2	
InChI=1S/C7H6O2/c1-2-4-5-6(9-5)7(4)3-8-7/h1,4-6H,3H2	InChI=1S/C7H6O2/c1-2-4-5-6(9-5)7(4)3-8-7/h1,4-6H,3H2/t4-,5+,6+,7+/m0/s1
