23
gdb 100053	2.97757	1.03106	0.9468	2.3746	80.73	-0.2422	0.0652	0.3074	1356.2461	0.203736	-425.399365	-425.388804	-425.38786	-425.43544	38.464	
C	 0.2611481755	 1.4909124524	 0.0867006002	-0.410712
C	-0.0121941904	-0.0256406113	 0.0740503089	 0.222312
C	 0.4656850693	-0.6425423217	 1.4019161644	-0.422488
C	-1.5243888202	-0.2685084487	-0.0847091684	-0.082767
O	-2.2111812972	 0.3201680749	 1.0099846162	-0.426306
C	 0.6776184029	-0.6392829777	-1.1609502607	-0.037172
C	 2.2225230032	-0.7190683298	-1.2051481828	-0.095832
O	 2.1937211595	-2.1519298037	-1.3591541791	-0.274895
C	 0.7539563247	-2.1773810207	-1.3303762076	-0.098422
H	 1.3300638201	 1.6960356448	 0.2071298154	 0.109318
H	-0.0680552166	 1.9590460876	-0.8480956117	 0.103666
H	-0.2739793264	 1.9700032392	 0.9095581272	 0.133569
H	-0.102226781	-0.2133056624	 2.2300484297	 0.134926
H	 0.3178356114	-1.7266050148	 1.428137997	 0.111928
H	 1.5264159119	-0.4441016312	 1.580298706	 0.112607
H	-1.8621074463	 0.1683402586	-1.0389030716	 0.080565
H	-1.7183777347	-1.3525160595	-0.1304000058	 0.084084
H	-3.149516549	 0.1369582953	 0.9120400398	 0.288722
H	 0.2722747293	-0.1524640295	-2.0538002923	 0.073866
H	 2.6973163557	-0.2242412665	-2.0615524135	 0.097632
H	 2.7483827047	-0.4174182987	-0.2913465002	 0.100475
H	 0.3723183749	-2.7782852027	-0.4957572109	 0.098901
H	 0.3324484287	-2.570756694	-2.2642780603	 0.096023
37.2209	70.5672	117.076	179.5782	213.5888	228.4914	244.6176	266.6799	307.0209	333.926	373.7834	385.5197	451.0954	549.4249	699.3237	810.1457	866.4413	893.6392	931.6565	952.1594	960.4677	974.5009	1003.095	1036.955	1047.7097	1076.3619	1091.587	1106.4489	1159.9085	1165.1623	1189.7876	1217.8824	1231.3108	1271.8284	1293.77	1305.6195	1311.4512	1360.8993	1393.3668	1396.6822	1413.7684	1460.2503	1481.2034	1489.7576	1498.2156	1506.5989	1520.1897	1524.5709	1538.8685	2956.8374	2987.7265	3006.7122	3017.595	3029.7244	3037.3908	3046.3676	3050.1403	3062.3558	3092.5493	3107.2409	3125.5799	3130.5757	3838.8118
CC(C)(CO)C1COC1	CC(C)(CO)C1COC1	
InChI=1S/C7H14O2/c1-7(2,5-8)6-3-9-4-6/h6,8H,3-5H2,1-2H3	InChI=1S/C7H14O2/c1-7(2,5-8)6-3-9-4-6/h6,8H,3-5H2,1-2H3
