22
gdb 93784	2.29106	1.44835	1.07062	3.1082	83.78	-0.2518	0.0259	0.2777	1237.8074	0.195202	-404.38501	-404.375785	-404.374841	-404.418922	35.304	
C	-0.0630438704	 1.5299425835	 0.0876729272	-0.399393
C	-0.0327995747	 0.0191166794	-0.075874956	 0.143317
C	 0.7226216345	-0.4544493039	-1.3128805534	-0.207498
C	 0.8280752299	-1.9813615568	-1.3050317707	-0.242879
C	 1.4935571519	-2.4806408408	-0.0103717753	-0.031328
C	 3.02026643	-2.257486208	-0.0070644894	-0.396123
C	 0.8914420417	-1.8275768086	 1.2205560757	 0.365149
N	 0.8199069603	-2.4562890572	 2.318046219	-0.503175
O	 0.5509212742	-0.5042540295	 1.1391331628	-0.273112
H	 0.9539577615	 1.9289267998	 0.1516522602	 0.125231
H	-0.5665211255	 1.9936193602	-0.7659017129	 0.117721
H	-0.5983392974	 1.806315339	 0.9996999647	 0.128215
H	-1.0648541911	-0.3617977878	-0.1283014555	 0.080754
H	 0.1929639924	-0.1057858497	-2.2062215577	 0.10141
H	 1.7173371354	 0.0063904063	-1.330153979	 0.106669
H	-0.1797161302	-2.4087695395	-1.3853885887	 0.101134
H	 1.3916068891	-2.3395920947	-2.173066941	 0.097979
H	 1.3151390405	-3.5527994092	 0.1020978675	 0.101283
H	 3.2787008074	-1.194787522	-0.0404424152	 0.120335
H	 3.4602474323	-2.6804658046	 0.8991039568	 0.138957
H	 3.4760418632	-2.744725065	-0.8753324335	 0.112014
H	 0.4346303651	-1.844053161	 3.0411394143	 0.213338
64.7239	103.2428	215.0407	220.7597	236.5947	260.4942	280.9498	346.0676	440.19	443.9847	468.0332	536.7098	639.7125	703.3617	745.0155	829.3875	863.4768	908.612	933.483	938.4867	964.5966	993.7313	1021.3453	1041.8155	1091.6512	1102.8866	1143.5895	1162.9548	1176.2619	1229.9824	1240.3987	1320.2468	1335.452	1341.3986	1356.4789	1379.1006	1389.0409	1405.9666	1408.9555	1412.7514	1477.6143	1485.2305	1491.4203	1498.3843	1500.1442	1509.5085	1740.3922	2979.8652	3023.4254	3035.2687	3039.6367	3044.2745	3069.9669	3079.6692	3081.4551	3108.4333	3117.7777	3124.3245	3126.2845	3453.7459
CC1CCC(C)C(=N)O1	C[C@H]1CC[C@@H](C)[C]([NH])O1	
InChI=1S/C7H13NO/c1-5-3-4-6(2)9-7(5)8/h5-6,8H,3-4H2,1-2H3	InChI=1S/C7H13NO/c1-5-3-4-6(2)9-7(5)8/h5-6,8H,3-4H2,1-2H3/t5-,6+/m1/s1
