13
gdb 17869	3.53213	2.27664	2.16528	2.7489	57.58	-0.234	-0.0363	0.1977	687.7051	0.097348	-398.592367	-398.586552	-398.585608	-398.622206	22.482	
O	 0.0100044784	 0.0281551442	 0.0501508572	-0.304376
C	 0.0020779682	 1.2197310888	-0.0235683369	 0.432704
C	-1.1005709251	 2.3114899284	 0.0382152274	-0.008777
C	-0.0413274957	 3.1228527543	 0.8398392337	-0.266557
C	 1.0402998693	 2.347989364	 0.019415876	-0.112075
N	 1.0828790619	 2.9233203804	-1.3482910801	-0.256651
C	-0.0570293362	 3.156966135	-1.8513219183	 0.125384
O	-1.258723548	 2.8993841959	-1.2770063132	-0.235635
H	-2.0958145422	 2.1043736824	 0.4248731067	 0.115314
H	-0.057757657	 4.2057877152	 0.7083376034	 0.130435
H	-0.0472679554	 2.8536267305	 1.8977706463	 0.131376
H	 2.0437452285	 2.1872124475	 0.4074401837	 0.103019
H	-0.1737089868	 3.6097124335	-2.8321379359	 0.145839
148.4441	250.7184	389.1697	444.1174	451.3737	570.6358	600.0596	770.8439	817.3173	832.1153	861.1471	896.7181	943.5938	963.8251	1001.0387	1022.642	1099.8156	1126.7339	1137.6945	1154.4294	1232.0612	1242.6218	1284.1575	1328.8499	1373.9693	1472.1694	1702.5125	1903.072	3079.0655	3142.1783	3147.1355	3153.0983	3187.4888
O=C1C2CC1N=CO2	O=C1[C@H]2C[C@@H]1[N][CH]O2	
InChI=1S/C5H5NO2/c7-5-3-1-4(5)8-2-6-3/h2-4H,1H2	InChI=1S/C5H5NO2/c7-5-3-1-4(5)8-2-6-3/h2-4H,1H2/t3-,4+/m0/s1
