17
gdb 52773	3.64714	1.04142	0.893	3.9428	78.16	-0.235	0.0319	0.2669	1324.8045	0.133029	-421.720002	-421.710886	-421.709942	-421.755437	32.868	
C	 0.0972223038	 1.5241136867	-0.0697373152	-0.504022
C	 0.043718137	 0.0700577735	-0.0380557788	 0.06997
C	-0.0149119002	-1.1336839274	-0.007356479	-0.047794
C	-0.010567307	-2.5882472115	-0.0123077371	 0.340596
O	 0.8309015208	-3.1050803936	-1.007328952	-0.469191
C	-0.0290472192	-3.3659108289	 1.3613678122	-0.010566
C	-1.4787805976	-2.8889897728	 1.6001400575	-0.245324
C	-1.3481854044	-3.3824885922	 0.1410236877	 0.009475
O	-0.5679869438	-4.5351462596	 0.6382728826	-0.317298
H	 0.8319368134	 1.9121111504	 0.6441422164	 0.153336
H	 0.3738508243	 1.8882410766	-1.0650757225	 0.154737
H	-0.8755397	 1.9592918198	 0.1838714748	 0.155733
H	 1.5073171556	-2.4443968484	-1.1838029544	 0.285982
H	 0.7860992536	-3.5327595451	 2.0658406585	 0.097717
H	-2.0591691794	-3.5580783977	 2.2337575427	 0.113503
H	-1.6675124836	-1.8313992126	 1.7888253771	 0.112363
H	-2.110743763	-3.5706461072	-0.6147961504	 0.100783
17.2837	96.0768	99.2047	167.2019	264.1081	281.7585	334.909	370.0275	456.1525	504.8396	505.7608	579.8801	702.9203	771.1702	801.9097	879.8697	904.2654	914.1101	935.1818	1019.7681	1035.1166	1052.2951	1054.0942	1105.7655	1124.7779	1159.1589	1166.9548	1198.7691	1221.3809	1262.5101	1267.7185	1388.6072	1413.979	1475.7636	1476.9903	1480.0863	2358.2367	3029.2045	3085.0003	3091.4213	3092.5114	3117.7024	3125.7129	3168.4314	3834.4698
CC#CC1(O)C2CC1O2	CC#C[C@@]1(O)[C@H]2C[C@@H]1O2	
InChI=1S/C7H8O2/c1-2-3-7(8)5-4-6(7)9-5/h5-6,8H,4H2,1H3	InChI=1S/C7H8O2/c1-2-3-7(8)5-4-6(7)9-5/h5-6,8H,4H2,1H3/t5-,6+,7-
