21
gdb 107206	3.75311	1.21931	1.09724	0.2265	81.17	-0.2155	0.0649	0.2803	1194.1553	0.184427	-383.225094	-383.216952	-383.216008	-383.257693	32.356	
C	-0.3243967473	 1.4659205612	 0.0497801256	-0.382507
C	 0.2111990713	 0.0393899963	-0.1275112324	-0.252301
C	 0.8739001852	-0.4969384783	 1.1221405562	 0.337861
C	 2.2025651449	 0.1167119459	 1.5895675261	-0.25279
N	 3.063305018	-0.9501942019	 2.1552030284	-0.091728
C	 2.6333756838	-1.5289027343	 3.4319117251	-0.267085
C	 2.26545367	-2.1981717466	 2.1576286931	-0.019197
C	 0.9193756174	-1.9377634299	 1.5209964954	-0.111909
N	-0.038313619	-1.0196298188	 2.1533909267	-0.37101
H	 0.4810872207	 2.1748312013	 0.2709584409	 0.114936
H	-0.8292161087	 1.8125627484	-0.8568905956	 0.112939
H	-1.0435042883	 1.5042011735	 0.8739826794	 0.128824
H	-0.615125958	-0.6294732967	-0.3895927203	 0.106797
H	 0.9278596697	 0.0074552963	-0.9583663722	 0.09569
H	 2.728035763	 0.5427927659	 0.7276988255	 0.113028
H	 2.0663219064	 0.9266688304	 2.3165188634	 0.107905
H	 3.4411421481	-1.9306487175	 4.0393380059	 0.119032
H	 1.8650071487	-1.0264254981	 4.0158227108	 0.105782
H	 2.7777905172	-3.1077732131	 1.855174808	 0.092421
H	 0.4773804229	-2.7342382395	 0.9297505914	 0.091416
H	 0.2457363238	-0.7644387444	 3.0941012087	 0.221897
80.5168	136.9168	207.7022	258.972	277.4507	365.3178	372.3394	444.9003	547.4311	616.3923	685.1218	728.9305	762.9012	784.6197	813.5937	847.4541	893.6793	943.0351	955.0353	975.6344	1015.454	1031.1198	1045.9228	1069.4478	1105.5867	1107.5689	1116.3915	1129.2497	1153.6502	1165.1921	1228.8863	1257.0096	1273.2173	1294.468	1326.0079	1342.2996	1359.8434	1376.6874	1407.2714	1436.0433	1473.775	1496.3305	1500.6764	1507.3009	1517.6332	3024.6286	3029.618	3034.5452	3065.9491	3073.5247	3094.0404	3103.1302	3111.6071	3137.5042	3156.7242	3170.3366	3517.6446
CCC12CN3CC3C1N2	CC[C@]12CN3C[C@H]3[C@H]1N2	
InChI=1S/C7H12N2/c1-2-7-4-9-3-5(9)6(7)8-7/h5-6,8H,2-4H2,1H3	InChI=1S/C7H12N2/c1-2-7-4-9-3-5(9)6(7)8-7/h5-6,8H,2-4H2,1H3/t5-,6+,7-,9?/m0/s1
