17
gdb 74728	2.501	1.78047	1.24966	2.1439	73.56	-0.2377	-0.0404	0.1973	1018.1134	0.134252	-421.789491	-421.781354	-421.78041	-421.822339	30.538	
C	 0.2948748386	 1.4148647536	 0.0808859065	-0.509806
C	 0.1287109486	-0.0597575401	-0.0081566561	 0.320241
C	-0.0841331041	-0.9013970118	-1.0241006771	-0.205658
C	-0.1489973711	-2.2601735777	-0.3092248899	 0.01284
C	-1.0935004409	-1.943371452	 0.8868145774	-0.248268
C	 0.1759333282	-1.0648588919	 1.179521724	 0.230677
O	 0.9774644755	-2.1594172517	 0.6326444907	-0.320138
C	 0.5446046336	-0.6345035993	 2.5648790005	 0.037002
O	 0.1267678729	 0.3707225308	 3.0835306852	-0.257723
H	 1.286536508	 1.6800038054	 0.467789075	 0.137666
H	 0.1738274271	 1.883039329	-0.8996562842	 0.12502
H	-0.4294546795	 1.8513422763	 0.7762655968	 0.150678
H	-0.1933649846	-0.7092653251	-2.0813726333	 0.11185
H	-0.179881034	-3.1877172037	-0.8781996768	 0.087679
H	-2.0394955013	-1.4340946867	 0.6987975908	 0.113377
H	-1.1966345126	-2.7766900581	 1.5863717114	 0.113361
H	 1.2247986155	-1.3382922269	 3.092046389	 0.101202
75.9485	150.4317	165.4836	182.4142	243.4518	332.2756	447.9566	488.0243	548.4555	593.7798	655.4441	690.1584	779.0463	807.6032	843.5518	875.1377	904.0456	925.1123	997.31	1010.2327	1038.291	1051.3168	1069.2694	1113.4747	1163.2058	1213.0548	1229.9552	1252.5574	1293.5223	1302.9302	1402.9903	1414.478	1470.851	1480.2573	1483.4921	1685.9534	1820.2934	2902.9269	3028.458	3066.9114	3082.8813	3117.8627	3141.562	3146.2447	3241.1409
CC1=CC2CC1(O2)C=O	CC1=C[C@@H]2C[C@]1(O2)C=O	
InChI=1S/C7H8O2/c1-5-2-6-3-7(5,4-8)9-6/h2,4,6H,3H2,1H3	InChI=1S/C7H8O2/c1-5-2-6-3-7(5,4-8)9-6/h2,4,6H,3H2,1H3/t6-,7+/m1/s1
