17
gdb 28957	2.88959	1.48891	0.98857	0.4858	92.93	-0.2279	-0.0278	0.2001	1164.6778	0.136439	-347.601615	-347.593402	-347.592457	-347.634326	31.479	
C	-0.0366625412	 1.5214418017	-0.005132881	-0.506774
C	-0.0101742176	 0.0155594031	-0.0073877271	 0.227149
C	-0.0240006082	-0.7024769279	-1.2025506408	-0.172659
C	 0.0007877898	-2.0949620326	-1.2166832877	-0.113422
C	 0.0402942829	-2.8011528295	-0.0173989122	-0.110862
C	 0.0547247128	-2.1090403298	 1.186420387	-0.192974
C	 0.0299642402	-0.7060569049	 1.2069141298	 0.083993
C	 0.0456056173	-0.0190014055	 2.4556575369	 0.236783
C	 0.0590403795	 0.5629302506	 3.5107411256	-0.434019
H	 0.849112796	 1.9333393253	 0.490605032	 0.139444
H	-0.0743941135	 1.9153444641	-1.0236792546	 0.117787
H	-0.9042747931	 1.9025522402	 0.5442088369	 0.139515
H	-0.0549197075	-0.1564681824	-2.1405812692	 0.093186
H	-0.0108650271	-2.6256614933	-2.1629197495	 0.0988
H	 0.0597363254	-3.8855899522	-0.0184396256	 0.099254
H	 0.0853389429	-2.6438206051	 2.1290141525	 0.103098
H	 0.0715883115	 1.0730431782	 4.441812087	 0.191699
95.0798	130.0444	145.5589	217.0875	338.1982	377.5423	457.0531	467.773	543.6315	561.2942	588.9831	589.3386	644.3006	732.4966	740.9865	782.9178	828.1671	889.1839	941.4132	974.8981	1007.5978	1062.9544	1067.8832	1126.8285	1185.5623	1207.3717	1239.249	1299.0659	1326.4916	1416.2515	1464.2941	1478.7922	1494.3066	1513.7845	1604.0908	1639.6836	2220.477	3034.9545	3088.6615	3119.7001	3168.0905	3179.9385	3191.8836	3203.2026	3502.7744
CC1=CC=CC=C1C#C	Cc1ccccc1C#C	
InChI=1S/C9H8/c1-3-9-7-5-4-6-8(9)2/h1,4-7H,2H3	InChI=1S/C9H8/c1-3-9-7-5-4-6-8(9)2/h1,4-7H,2H3
