18
gdb 9531	2.77891	1.89979	1.55038	1.9997	68.43	-0.2236	-0.0252	0.1983	923.1063	0.151222	-384.939464	-384.930688	-384.929744	-384.972676	31.794	
C	-0.070340428	 1.5358158876	 0.1047851026	-0.262093
O	-0.1736700513	 0.1186977628	 0.1174215767	-0.287706
C	 0.624273589	-0.5520675179	 1.0667119226	 0.325138
C	 0.2967803124	-0.186624017	 2.5154559558	-0.458421
C	 0.6531916983	-2.0858993696	 0.7848637743	-0.283467
C	 2.2109658589	-2.0882695747	 0.7796014975	-0.342416
C	 2.1554372908	-0.5531782161	 0.7650361731	 0.353455
O	 2.9443491015	 0.3091781943	 0.5011460731	-0.304272
H	 0.9715721729	 1.8637372175	 0.0241765553	 0.142102
H	-0.6238723609	 1.8739668583	-0.7743796208	 0.127335
H	-0.5227286626	 1.9913446766	 0.996193811	 0.107449
H	-0.7706928696	-0.3443605381	 2.7011452516	 0.129728
H	 0.8640172815	-0.8131002907	 3.2108817667	 0.121174
H	 0.5430197412	 0.8559326211	 2.7339912948	 0.133109
H	 0.1677656503	-2.712680921	 1.5339643856	 0.105925
H	 0.2293979665	-2.2950797262	-0.1981757653	 0.125947
H	 2.662436721	-2.4736547069	 1.6995159092	 0.132517
H	 2.717805918	-2.5492861599	-0.071179214	 0.134497
72.232	117.9283	153.0641	200.9413	233.4908	276.7133	304.9196	340.7704	420.2723	490.1625	547.459	671.7956	704.386	759.2198	866.9729	908.196	915.5231	950.9751	1028.9404	1068.7922	1091.1935	1140.7814	1173.7779	1183.4287	1213.0477	1218.9993	1231.6796	1251.7488	1289.0662	1398.5248	1442.0888	1473.5031	1479.5568	1484.9612	1490.1486	1505.3671	1515.2442	1878.8476	3006.9257	3037.7865	3060.1019	3079.2021	3086.0573	3109.191	3115.3639	3119.3753	3122.9879	3147.0363
COC1(C)CCC1=O	CO[C@@]1(C)CCC1=O	
InChI=1S/C6H10O2/c1-6(8-2)4-3-5(6)7/h3-4H2,1-2H3	InChI=1S/C6H10O2/c1-6(8-2)4-3-5(6)7/h3-4H2,1-2H3/t6-/m0/s1
