15
gdb 83067	2.92291	1.51264	1.26881	4.2444	72.82	-0.2269	0.0075	0.2344	1003.3449	0.11232	-416.752817	-416.745008	-416.744064	-416.784726	30.576	
O	-0.0248575093	 1.383043878	-0.0796754175	-0.421966
C	-0.0698050462	 0.004408564	-0.021490117	 0.082541
C	-0.4246941596	-0.6920683831	 1.250107779	-0.155614
N	-1.1351654541	 0.1641207335	 2.168333118	-0.322528
C	-2.3712914873	 0.4501921343	 1.5817735213	 0.016001
N	-2.5762866004	-0.0119271431	 0.4076568101	-0.260363
C	-1.4109163366	-0.7640295346	 0.0224878121	 0.124645
C	-1.577921648	-1.917807972	-0.804546564	 0.200476
C	-1.6757459026	-2.8939319323	-1.5007130649	-0.374116
H	-0.166359617	 1.7139008425	 0.8177145199	 0.295313
H	 0.6803297432	-0.4759882188	-0.6419162738	 0.120301
H	 0.1418214333	-1.5214741702	 1.6550505401	 0.116048
H	-1.0995145875	-0.0449155862	 3.1556921637	 0.256106
H	-3.0778011193	 1.0776168977	 2.1146685101	 0.135028
H	-1.7784131285	-3.7502454998	-2.1197333771	 0.188128
136.1076	155.6189	214.8702	247.4737	354.0668	429.8148	446.8415	491.7836	525.3872	560.8342	571.0819	621.2818	672.0311	703.2235	752.8806	774.9103	881.0877	894.0242	945.403	979.8931	1027.3292	1055.4263	1101.884	1119.7346	1220.0698	1251.2868	1303.1233	1342.6439	1360.6385	1412.31	1453.5908	1654.5815	2236.5376	3163.1221	3189.3711	3202.0637	3504.178	3600.5696	3745.5599
OC1C2NC=NC12C#C	O[C@H]1[C@H]2NC=N[C@@]12C#C	
InChI=1S/C6H6N2O/c1-2-6-4(5(6)9)7-3-8-6/h1,3-5,9H,(H,7,8)	InChI=1S/C6H6N2O/c1-2-6-4(5(6)9)7-3-8-6/h1,3-5,9H,(H,7,8)/t4-,5+,6-/m1/s1
