15
gdb 44126	2.54479	1.65495	1.33754	4.0377	70.17	-0.2567	0.0043	0.261	977.5103	0.112362	-420.620465	-420.613007	-420.612062	-420.65261	28.682	
O	 0.0401701991	 0.2645760318	-0.6447679124	-0.318619
C	-0.0462538081	 1.3263477776	-0.1106867914	 0.430722
C	-1.3097230049	 2.12042832	 0.2430627573	-0.387297
C	-0.7970754609	 3.3952724529	 0.8710990687	-0.101762
C	 0.6954802645	 3.2539205269	 0.8802707778	 0.083982
O	 1.0635040833	 2.036108179	 0.2874007669	-0.21049
C	 0.0643370255	 4.3091224562	-0.0144632615	-0.269147
C	 0.0585814355	 4.1800633789	-1.4393359329	 0.327049
C	 0.0353596413	 4.0554495724	-2.6353146627	-0.426151
H	-1.8925108023	 2.2694129548	-0.6699039539	 0.158526
H	-1.9168493271	 1.5320896182	 0.9366542408	 0.14462
H	-1.3332340301	 3.8480057561	 1.6950707819	 0.112454
H	 1.3456950998	 3.5377620181	 1.6977153413	 0.12464
H	 0.1650601505	 5.3232751678	 0.3626785477	 0.125071
H	 0.033792194	 3.9468654892	-3.6917954073	 0.206403
82.1508	137.7101	168.3685	321.8214	361.4193	479.8732	530.3165	583.8127	600.9272	626.5601	670.4435	681.6703	733.8963	771.4785	787.0035	829.5466	937.8227	950.4578	1024.1806	1027.159	1053.7348	1091.8387	1121.7102	1142.3733	1190.1924	1202.3461	1288.1768	1338.6295	1357.7573	1405.9609	1455.3382	1900.1654	2238.4507	3070.5955	3113.5082	3145.9711	3192.6156	3202.6318	3502.4569
O=C1CC2C(O1)C2C#C	O=C1C[C@H]2[C@@H](O1)[C@H]2C#C	
InChI=1S/C7H6O2/c1-2-4-5-3-6(8)9-7(4)5/h1,4-5,7H,3H2	InChI=1S/C7H6O2/c1-2-4-5-3-6(8)9-7(4)5/h1,4-5,7H,3H2/t4-,5+,7-/m0/s1
