22
gdb 121874	3.8232	0.6383	0.56676	5.1167	79.06	-0.2488	0.0194	0.2682	1974.8589	0.19351	-441.530943	-441.520301	-441.519356	-441.567816	37.975	
C	-0.1658704423	 1.6034514928	 0.0534009371	-0.381216
C	-0.0973181226	 0.0753676892	-0.0066114914	-0.16465
C	 0.7017938474	-0.4454958867	-1.206332516	-0.173317
C	 0.762772375	-1.9740102996	-1.2709812029	-0.183043
C	 1.5714564985	-2.5117669321	-2.4583320945	-0.149954
N	 3.0190699624	-2.2291279288	-2.4308730853	-0.538032
H	 3.1553490139	-3.9965305339	-3.0694342161	 0.305147
H	 3.2281009466	-1.3186248358	-2.8228063511	 0.249792
H	 3.3630304317	-2.2278627061	-1.4744138836	 0.243741
C	 1.3576248474	-4.0336778056	-2.6336322054	 0.440075
O	 0.2991454371	-4.5751034059	-2.4536345059	-0.342716
O	 2.4543501963	-4.6854257399	-3.0377506899	-0.371047
H	 0.8352023145	 2.0432360119	 0.1271707043	 0.111746
H	-0.6411134533	 2.0144175622	-0.8442885429	 0.115291
H	-0.7422154486	 1.943111283	 0.9193497289	 0.115404
H	 0.3502362653	-0.3092817844	 0.919352437	 0.096381
H	-1.113220118	-0.3383145707	-0.0449692569	 0.103472
H	 0.2545189807	-0.0616192875	-2.1345340944	 0.095065
H	 1.7193085402	-0.0310548242	-1.1664494086	 0.078223
H	 1.1967725994	-2.3710221168	-0.3414651523	 0.094142
H	-0.244352003	-2.3959649992	-1.3388570387	 0.136196
H	 1.1782953515	-2.0657607919	-3.3820179715	 0.119301
56.7717	58.8231	82.1878	113.2392	143.6544	229.2134	243.0994	287.4887	303.4573	346.1992	416.1209	436.0118	537.5572	612.605	731.4814	740.2917	788.8667	844.6452	859.8308	889.4522	911.9061	930.7429	1004.6347	1031.6699	1067.3202	1086.9039	1104.9577	1147.3085	1209.6004	1222.4805	1244.2029	1267.0632	1308.7633	1322.9016	1332.8763	1374.0427	1393.7669	1400.2913	1413.6048	1430.8821	1482.0766	1486.673	1499.2116	1499.8043	1512.5871	1655.9578	1865.5211	2997.063	3005.0791	3018.548	3025.1797	3029.3631	3031.1357	3053.8119	3093.5356	3096.2576	3103.702	3465.0743	3501.7997	3591.8346
CCCCC([NH3+])C([O-])=O	CCCC[C@@H](N)C(=O)O	
InChI=1S/C6H13NO2/c1-2-3-4-5(7)6(8)9/h5H,2-4,7H2,1H3,(H,8,9)	InChI=1S/C6H13NO2/c1-2-3-4-5(7)6(8)9/h5H,2-4,7H2,1H3,(H,8,9)/t5-/m1/s1
