14
gdb 48636	2.66448	1.63199	1.33982	2.9114	69.36	-0.258	-0.0494	0.2086	958.0445	0.100081	-436.6538	-436.646344	-436.6454	-436.686101	27.609	
O	-0.1077022509	 0.0091395725	-0.1912866695	-0.245184
C	 0.0125419288	 1.1384286589	 0.2130817898	 0.033783
C	 1.2753750551	 1.9167998694	 0.0920941922	 0.079805
N	 1.5072152311	 3.1412807728	 0.9340706344	-0.315371
C	 2.5959463264	 3.4844676901	-0.0422860493	-0.179456
C	 3.4909441524	 2.2739887832	 0.0877782242	-0.068177
C	 2.6245702191	 1.2496609513	 0.1558565663	-0.087808
C	 1.6112606455	 2.9297698772	-1.1660057481	 0.370748
O	 1.1767882944	 3.2203333886	-2.2218099797	-0.273803
H	-0.8359531165	 1.6868532838	 0.6795553206	 0.085165
H	 0.7260456176	 3.7918504921	 0.8050775571	 0.228673
H	 3.0046786818	 4.4920542855	-0.0400196677	 0.102511
H	 4.5688409563	 2.2718278919	 0.0336449734	 0.128212
H	 2.7813027689	 0.1823898627	 0.1717221762	 0.140902
82.0774	131.4013	191.2607	199.629	363.4755	450.8009	490.8172	531.4036	587.9157	694.7045	741.9441	768.3473	807.1964	839.2401	877.8742	918.3437	948.6193	975.5634	1022.4185	1037.0604	1075.7802	1121.9966	1147.4851	1226.9777	1282.1851	1312.9802	1387.0873	1425.0226	1587.9991	1811.4636	1919.8573	2884.6543	3161.4224	3246.2849	3270.6269	3408.529
O=CC12NC(C=C1)C2=O	O=C[C@@]12N[C@@H](C=C1)C2=O	
InChI=1S/C6H5NO2/c8-3-6-2-1-4(7-6)5(6)9/h1-4,7H	InChI=1S/C6H5NO2/c8-3-6-2-1-4(7-6)5(6)9/h1-4,7H/t4-,6-/m0/s1
