19
gdb 65966	2.37301	1.42106	1.28064	1.397	75.65	-0.2372	-0.0288	0.2084	1103.1621	0.156659	-423.001306	-422.992204	-422.99126	-423.035478	33.626	
C	-0.2266172899	 1.5523230452	 0.1515006602	-0.466932
C	-0.0240934837	 0.0529815269	 0.0206069371	 0.054196
C	 1.2126997561	-0.4529905148	-0.7761392535	-0.117575
O	 1.6914663477	-1.2275808921	 0.3419192104	-0.306039
C	 0.6656293547	-0.6990059704	 1.1789709708	 0.434368
C	 0.9426995932	-0.2360195766	 2.5709638587	-0.337199
C	 0.0989467155	-1.4790956568	 2.3182940071	-0.340815
C	-1.2842845165	-0.6742628197	-0.3996298954	 0.139578
O	-2.3653888822	-0.1601973067	-0.5280356373	-0.261681
H	 0.6916535952	 2.0393730978	 0.4897891408	 0.120391
H	-0.5214310458	 1.9867017413	-0.8082440157	 0.130893
H	-1.0259029528	 1.7762647272	 0.8633744939	 0.134974
H	 1.0090469417	-1.0829620511	-1.6498122121	 0.110914
H	 1.9091894747	 0.3459794388	-1.0566917734	 0.111897
H	 1.9533276431	-0.3838367275	 2.9363314852	 0.129447
H	 0.4506436802	 0.6599302332	 2.9349606174	 0.122035
H	-0.9680967274	-1.4277100878	 2.5107345459	 0.126036
H	 0.5518043032	-2.4433045821	 2.5228622787	 0.130411
H	-1.1382083571	-1.7642542148	-0.5773565888	 0.0851
57.7596	76.4293	182.2705	191.8255	236.4989	268.2293	289.2109	352.1958	406.6587	488.2228	517.3514	574.066	744.349	759.2687	857.9127	870.8788	876.2611	919.8873	951.342	978.2576	992.8917	1026.6887	1043.157	1053.6756	1072.1925	1147.8633	1159.5956	1188.0964	1199.561	1222.8689	1282.0156	1351.0585	1370.6646	1409.7115	1431.078	1447.4775	1484.5136	1491.2745	1492.8628	1524.987	1827.9851	2874.8786	3019.2112	3046.6428	3067.5442	3116.6823	3124.6042	3127.8262	3131.0375	3211.9686	3225.9216
CC1(COC11CC1)C=O	C[C@]1(COC21CC2)C=O	
InChI=1S/C7H10O2/c1-6(4-8)5-9-7(6)2-3-7/h4H,2-3,5H2,1H3	InChI=1S/C7H10O2/c1-6(4-8)5-9-7(6)2-3-7/h4H,2-3,5H2,1H3/t6-/m1/s1
