21
gdb 111090	2.99353	1.1645	1.00433	1.1086	84.55	-0.2119	0.0256	0.2375	1281.163	0.182964	-387.054201	-387.04549	-387.044546	-387.087546	33.786	
C	 0.5004085148	 1.4147294156	 0.0876507598	-0.519845
C	 0.1353924126	-0.0286548236	 0.0774783326	 0.349077
C	-0.3653537353	-0.8164732924	-0.8823190424	-0.203547
C	-0.4790649915	-2.188758149	-0.2021496192	-0.093296
C	-1.0835291183	-1.7539221564	 1.1767210447	-0.223119
C	 0.2851616985	-0.9971831287	 1.2675234041	-0.116434
C	 0.9188209927	-2.2339398141	 0.5231685516	 0.075409
C	 1.2788107367	-3.4636944917	 1.3376886269	-0.132383
O	 2.4359717515	-3.1358594223	 2.100149229	-0.423092
H	 1.5638427577	 1.5566683258	 0.3202870631	 0.12811
H	 0.3004066758	 1.8837756992	-0.8803241379	 0.122327
H	-0.0597815557	 1.9660795289	 0.8541203347	 0.124295
H	-0.631974689	-0.5785316112	-1.9028916969	 0.090796
H	-0.8685013285	-3.0295573617	-0.7776684507	 0.053079
H	-1.9871029344	-1.1407900027	 1.1469904194	 0.089707
H	-1.2002823504	-2.5645631236	 1.9006472792	 0.090338
H	 0.6905630144	-0.6166841896	 2.20485724	 0.063264
H	 1.7713215549	-1.9826835759	-0.1144397359	 0.071215
H	 0.4554318315	-3.7817703932	 1.9925435802	 0.084988
H	 1.4836868607	-4.2979883516	 0.6459611483	 0.083603
H	 2.6976345713	-3.916089632	 2.5975564693	 0.285509
83.8797	122.269	182.2729	188.8691	251.3651	301.0031	330.9128	394.0721	504.8144	541.2718	572.7619	616.2794	769.5148	796.4173	815.0298	847.7077	860.104	923.4289	935.1262	991.0749	1001.5372	1020.8889	1053.324	1063.0905	1079.6247	1088.217	1105.873	1114.0901	1177.8628	1198.1269	1223.0596	1229.1721	1240.9898	1248.769	1264.48	1270.9759	1309.8808	1376.8144	1412.9714	1458.2198	1477.072	1486.7682	1499.7211	1525.765	1689.3879	2961.9317	3007.8647	3011.9296	3055.9492	3059.8663	3069.8351	3102.2792	3106.031	3118.6611	3120.9916	3222.7391	3828.8385
CC1=CC2CC1C2CO	CC1=C[C@@H]2C[C@H]1[C@H]2CO	
InChI=1S/C8H12O/c1-5-2-6-3-7(5)8(6)4-9/h2,6-9H,3-4H2,1H3	InChI=1S/C8H12O/c1-5-2-6-3-7(5)8(6)4-9/h2,6-9H,3-4H2,1H3/t6-,7-,8+/m1/s1
