16
gdb 44933	2.73825	1.87774	1.60207	2.2984	68.75	-0.2558	-0.0101	0.2457	889.0774	0.127389	-437.907361	-437.900858	-437.899914	-437.938152	26.404	
N	-0.0450381863	 1.2791214295	-0.0598907721	-0.546547
C	-0.004015898	 0.0211125689	-0.0205602205	 0.416213
O	 1.1140905082	-0.7666917974	-0.0158267207	-0.244743
C	 0.6241814945	-2.1152792835	 0.2135680868	 0.118066
O	-0.6187181903	-2.1426407115	-0.4423375006	-0.24474
C	-1.2039629283	-0.9220015414	 0.0294737139	-0.0306
C	-1.7061510828	-1.1257344335	 1.4701080807	-0.268762
C	-0.6634632062	-1.8651594918	 2.2764865857	-0.074442
C	 0.4423573643	-2.334962504	 1.7012211786	-0.049959
H	 0.8959085802	 1.6761251575	-0.0644536813	 0.22772
H	 1.3101657497	-2.8116346859	-0.2685324607	 0.105697
H	-1.9944648712	-0.616043074	-0.6543552626	 0.117533
H	-1.9282399214	-0.152653887	 1.9222221107	 0.140686
H	-2.6467877916	-1.6919536582	 1.4584759576	 0.123424
H	-0.8476852763	-2.0031750143	 3.3380893919	 0.106147
H	 1.2238189155	-2.8442801933	 2.2536213525	 0.104306
121.3671	240.4559	296.847	419.276	475.0467	490.3937	531.2557	661.2446	672.1719	715.2868	793.3396	816.0042	875.4932	885.5916	908.7292	922.3359	944.7337	974.7994	993.048	1019.1182	1046.2435	1065.7483	1123.4982	1190.0577	1195.2709	1258.5521	1292.4896	1316.7359	1351.0104	1361.5495	1387.1479	1404.2994	1461.2453	1706.3602	1798.0136	3026.0043	3073.2844	3126.6981	3133.3118	3167.6013	3200.1282	3475.4762
N=C1OC2OC1CC=C2	[NH][C]1O[C@@H]2O[C@H]1CC=C2	
InChI=1S/C6H7NO2/c7-6-4-2-1-3-5(8-4)9-6/h1,3-5,7H,2H2	InChI=1S/C6H7NO2/c7-6-4-2-1-3-5(8-4)9-6/h1,3-5,7H,2H2/t4-,5-/m0/s1
