21
gdb 105489	1.87207	1.48431	1.19174	2.3349	77.92	-0.2459	-0.0209	0.2249	1200.3877	0.180046	-424.225305	-424.215187	-424.214243	-424.261215	36.063	
C	 0.4705924204	-0.6012206202	 1.6171271912	-0.403236
C	-0.0105350124	-0.2673103762	 0.201517088	-0.232514
C	-1.4636980178	-0.6768844693	-0.1016466021	 0.184871
C	-1.8138624697	-0.5933178421	-1.6108351781	-0.113156
O	-1.8746120167	-2.0297036647	-1.7173176597	-0.270901
C	-1.6798898454	-2.1993991942	-0.3019634913	-0.128436
C	-2.415231921	 0.1119979603	 0.7945446453	 0.329931
C	-3.124667665	-0.6011995473	 1.9296149771	-0.490925
O	-2.5800556706	 1.293455973	 0.5850663673	-0.317976
H	 1.526231405	-0.3400617183	 1.7350458817	 0.124216
H	-0.0895965717	-0.0472333695	 2.3773548653	 0.126757
H	 0.3709711326	-1.6702768032	 1.837025984	 0.117619
H	 0.072557167	 0.8108816198	 0.0239663619	 0.123742
H	 0.6361428082	-0.7628335036	-0.5328209657	 0.106431
H	-2.77399549	-0.1155710001	-1.8384669058	 0.109884
H	-1.0373490776	-0.1619670519	-2.253546758	 0.105144
H	-0.8148323162	-2.836456983	-0.078485588	 0.100975
H	-2.5658216475	-2.6298085376	 0.1819287425	 0.095284
H	-2.4467658749	-1.2666968002	 2.4734591078	 0.137134
H	-3.559097099	 0.1358965895	 2.6062564381	 0.144535
H	-3.9303375977	-1.2266965712	 1.5271621286	 0.150619
40.0352	63.9989	107.7056	165.2144	184.8126	212.6603	229.8418	285.9833	336.7975	385.7711	423.565	519.3312	608.2046	625.1866	782.0107	832.825	852.7595	944.5439	968.0262	979.3915	1002.2276	1008.6604	1041.9547	1047.7912	1049.9614	1136.0838	1150.234	1161.8242	1175.3828	1208.6111	1268.1957	1310.5975	1327.4565	1364.2009	1380.3828	1384.5027	1414.3905	1461.6042	1475.4662	1481.9902	1501.644	1504.1362	1515.5176	1538.8205	1795.7837	3006.8614	3022.062	3028.9106	3033.3401	3036.2506	3049.4702	3067.403	3070.7393	3098.8745	3101.136	3109.0864	3150.9558
CCC1(COC1)C(C)=O	CCC1(COC1)C(=O)C	
InChI=1S/C7H12O2/c1-3-7(6(2)8)4-9-5-7/h3-5H2,1-2H3	InChI=1S/C7H12O2/c1-3-7(6(2)8)4-9-5-7/h3-5H2,1-2H3
