18
gdb 9938	3.03378	1.52151	1.42926	5.1193	73.62	-0.2422	0.0293	0.2715	997.0588	0.15164	-343.972266	-343.962975	-343.962031	-344.005771	33.112	
C	 1.8884431734	-3.8782060855	 1.6054095834	-0.425733
C	 1.0406637793	-2.818671103	 0.9357614016	-0.022407
N	 0.0778653313	-1.9765486397	 1.6322495981	-0.116388
C	-0.1324551306	-2.0795697707	 3.0691969854	-0.321101
C	 1.2945748341	-1.3363761116	 1.1046989084	 0.11817
C	 2.4040257192	-0.7929941838	 1.9923185563	-0.464562
C	 1.0348876386	-0.482249348	-0.0433768002	 0.275344
N	 0.8618150266	 0.1986709765	-0.9617838305	-0.346126
H	 2.2897506492	-3.5755578155	 2.5732316749	 0.124578
H	 1.2948463713	-4.7856825873	 1.7593638163	 0.135541
H	 2.7313687996	-4.142135175	 0.9588937492	 0.136692
H	 0.6813308214	-3.1251582999	-0.0461166718	 0.110657
H	 0.757896036	-2.3055911371	 3.6704776753	 0.104879
H	-0.5557099971	-1.1368193498	 3.4278018568	 0.137625
H	-0.8705612946	-2.8671813365	 3.2483642765	 0.135514
H	 3.3094189079	-0.6350601927	 1.3993576485	 0.14573
H	 2.112873632	 0.1714817445	 2.4192625994	 0.143712
H	 2.6506205425	-1.4686787949	 2.8106020623	 0.127874
123.5495	132.1999	146.9835	156.0495	168.3837	236.2253	249.1752	305.5955	398.7851	422.4093	512.1699	559.3552	581.373	670.4619	758.9493	788.6812	931.5213	989.4971	1045.5001	1078.9183	1109.3907	1137.1554	1158.2699	1169.3832	1183.985	1256.7432	1358.2904	1399.5181	1417.5054	1420.0282	1457.0198	1478.1687	1485.5604	1486.6334	1500.8732	1505.4258	1512.7661	2352.2816	3008.432	3044.5349	3053.4884	3080.7291	3102.2444	3106.7232	3111.0964	3114.1828	3139.7768	3156.1354
CC1N(C)C1(C)C#N	C[C@H]1N(C)[C@]1(C)C#N	
InChI=1S/C6H10N2/c1-5-6(2,4-7)8(5)3/h5H,1-3H3	InChI=1S/C6H10N2/c1-5-6(2,4-7)8(5)3/h5H,1-3H3/t5-,6-,8?/m1/s1
