24
gdb 99272	4.10001	0.62177	0.56172	3.2995	88.25	-0.2417	0.0377	0.2794	2066.5617	0.215367	-405.597752	-405.586092	-405.585148	-405.636162	40.856	
C	 0.0984185152	 1.4951109582	 0.0924961406	-0.332654
N	 0.3471107746	 0.0695392906	 0.0124525907	-0.312587
C	 0.304119077	-0.6219467287	-1.164697432	 0.418677
O	 0.0772408951	-0.0875710381	-2.2368764189	-0.37725
C	 0.5382407961	-2.1268759406	-1.0353164331	-0.331814
C	 1.3660298418	-2.6754660759	-2.2036652822	-0.152579
C	 1.3993825895	-4.2093770138	-2.3078450907	 0.036803
C	 2.1060641212	-4.6363744814	-3.6016506974	-0.389111
C	 2.0589528466	-4.8723554824	-1.0898215126	-0.380734
H	 0.965847656	 2.0308919102	 0.4943996993	 0.123302
H	-0.0975361495	 1.8448807276	-0.9217229195	 0.171824
H	-0.7712455446	 1.7162777047	 0.7218850771	 0.123048
H	 0.5420463902	-0.4363691315	 0.8597339601	 0.242765
H	 0.9977700172	-2.3642789303	-0.069514251	 0.090791
H	-0.4526766963	-2.6019942581	-1.0364080539	 0.125007
H	 0.949983247	-2.2519176491	-3.1230388964	 0.124576
H	 2.3946421153	-2.2954181092	-2.1299420204	 0.090876
H	 0.3582569424	-4.5614336428	-2.3612437478	 0.069459
H	 3.1526513339	-4.3083906339	-3.6017698175	 0.111059
H	 2.1007222189	-5.7253523348	-3.7171465619	 0.106921
H	 1.6220820348	-4.2008057923	-4.4818059143	 0.114013
H	 2.0842682681	-5.9613519764	-1.2022665141	 0.110089
H	 3.0939862526	-4.5280902156	-0.9724798141	 0.109593
H	 1.5265835667	-4.6517220765	-0.15934566	 0.107923
28.4066	55.8638	81.014	97.429	129.8906	168.474	228.9992	244.3044	258.9912	276.9088	353.1033	405.2174	423.4166	446.3741	485.8706	631.4216	712.0848	786.6379	825.9253	903.0074	927.2639	946.2882	963.4928	975.9649	1040.7902	1080.7255	1128.9422	1140.9317	1156.7994	1170.7272	1195.6406	1217.1646	1242.7444	1289.4308	1324.5188	1358.1423	1373.5232	1394.976	1400.6032	1421.988	1437.2341	1465.0515	1486.2062	1490.7827	1492.66	1499.3143	1500.7102	1505.4203	1512.4086	1558.1297	1776.0835	2990.0975	3012.801	3021.8303	3023.2135	3025.1769	3027.9348	3061.3153	3075.7523	3086.9869	3088.3693	3093.9458	3099.9513	3101.8996	3153.5139	3654.5274
CNC(=O)CCC(C)C	CNC(=O)CCC(C)C	
InChI=1S/C7H15NO/c1-6(2)4-5-7(9)8-3/h6H,4-5H2,1-3H3,(H,8,9)	InChI=1S/C7H15NO/c1-6(2)4-5-7(9)8-3/h6H,4-5H2,1-3H3,(H,8,9)
