19
gdb 95030	2.48878	1.90086	1.42286	1.3927	73.12	-0.237	0.0599	0.2969	967.7484	0.160993	-422.984433	-422.976844	-422.9759	-423.016611	29.976	
O	 0.2309814563	 1.2610374139	-0.5240951902	-0.421893
C	 0.0454466434	-0.0458572711	-0.0042073373	 0.063532
C	 0.4343726385	-0.1761369459	 1.5006611135	-0.114635
O	-0.5948472967	-0.8759330006	 2.1897720872	-0.268499
C	-1.7627883145	-0.9604011312	 1.3886601064	 0.100176
C	-2.8683319898	 0.0993696044	 1.5381138931	-0.071113
C	-2.3416464761	 1.4895753396	 1.3311508394	-0.284628
C	-2.5419556388	 0.6244237681	 0.125495186	-0.043001
C	-1.4389147875	-0.4382778118	-0.0329124119	-0.06602
H	 1.1765038683	 1.4304176474	-0.5794818325	 0.285359
H	 0.6243068757	-0.7693131202	-0.5952179788	 0.072032
H	 1.3696346531	-0.732095891	 1.6422659585	 0.093942
H	 0.5746928434	 0.8324367919	 1.914818615	 0.100011
H	-2.1482986552	-1.9818846667	 1.450008335	 0.078165
H	-3.8346427157	-0.083403834	 1.9921618117	 0.081602
H	-3.0893748083	 2.2677647197	 1.4510511189	 0.110341
H	-1.3533185333	 1.7871229162	 1.6595541618	 0.121644
H	-3.2269651435	 0.9000352138	-0.665820088	 0.087111
H	-1.6620369992	-1.1485045125	-0.8294970378	 0.075875
93.6198	105.9134	219.0973	266.3199	325.4239	417.7064	495.1016	554.3607	619.9507	691.4915	757.6056	759.0845	791.5024	832.2425	906.4143	926.0004	959.8908	976.5013	999.6498	1012.9467	1031.2827	1045.8551	1053.7121	1075.9919	1084.0855	1133.2759	1147.974	1187.2531	1207.6461	1225.2734	1228.5656	1257.9679	1300.9799	1323.7607	1333.8773	1353.9344	1366.167	1377.7417	1436.3837	1501.3495	1530.4252	2991.6019	2997.4589	3042.8643	3066.0275	3103.6371	3136.8612	3180.5798	3194.8533	3218.7354	3820.7255
OC1COC2C3CC3C12	O[C@H]1CO[C@H]2[C@H]3C[C@H]3[C@@H]12	
InChI=1S/C7H10O2/c8-5-2-9-7-4-1-3(4)6(5)7/h3-8H,1-2H2	InChI=1S/C7H10O2/c8-5-2-9-7-4-1-3(4)6(5)7/h3-8H,1-2H2/t3-,4+,5+,6+,7+/m1/s1
