22
gdb 104024	2.93634	1.19737	1.11893	0.8788	80.93	-0.2361	0.0691	0.3052	1212.4309	0.195335	-404.332114	-404.323221	-404.322277	-404.365618	35.091	
C	-0.6669411789	 1.6972649889	 0.0359259425	-0.466581
C	-0.0045166979	 0.3160335249	 0.0034195152	 0.304974
C	-1.0803494818	-0.7911562139	-0.0755199746	-0.096705
O	-1.8466528316	-0.7824623953	-1.2690365823	-0.423415
C	 0.9729056503	 0.1516163673	-1.2023306223	-0.255635
C	 2.134859688	-0.6800851645	-0.6827688466	-0.039664
N	 3.0729806335	 0.1080451765	 0.1475230457	-0.334918
C	 2.0621098958	-0.7511091205	 0.8007417565	-0.037596
C	 0.8496882613	 0.0338390146	 1.279726041	-0.26117
H	 0.0871639616	 2.4858304871	 0.1200367887	 0.126596
H	-1.2373461466	 1.8950253925	-0.8797470304	 0.104123
H	-1.3508659252	 1.7948844551	 0.8877375871	 0.108266
H	-0.5932244014	-1.7727548708	-0.0490437956	 0.106923
H	-1.7310565686	-0.725711479	 0.8116723733	 0.083825
H	-2.3836225996	 0.0156260354	-1.2716166992	 0.284124
H	 0.4560665747	-0.3298158236	-2.0367050511	 0.112195
H	 1.3378451578	 1.1229993372	-1.5508266745	 0.099366
H	 2.5317869668	-1.4972633316	-1.2767025895	 0.083176
H	 3.9748160529	-0.3636375898	 0.1707093512	 0.225551
H	 2.4010872571	-1.6215552505	 1.3536226329	 0.08241
H	 1.1699514056	 0.9659909962	 1.7554138085	 0.104995
H	 0.2729070161	-0.5296555661	 2.0225412435	 0.089159
50.7386	139.0216	214.2517	259.0782	294.9012	312.4315	327.2356	355.5515	387.0241	452.5368	504.9112	611.8162	688.4213	757.9789	787.2522	852.9911	876.8249	900.8865	913.4484	923.2882	954.5818	978.3077	988.5562	992.6598	1076.723	1082.4594	1122.8381	1127.7516	1144.3926	1185.6775	1197.2337	1214.4154	1235.1117	1271.6784	1297.4409	1311.713	1350.8102	1364.9652	1383.9693	1407.0109	1414.6609	1425.1057	1483.1452	1490.2493	1493.3476	1501.4289	1510.2925	2972.1558	3017.9689	3035.558	3051.1264	3061.832	3077.5253	3080.9556	3099.0979	3101.8954	3151.7833	3162.5667	3485.5281	3827.0108
CC1(CO)CC2NC2C1	C[C@@]1(CO)C[C@H]2N[C@H]2C1	
InChI=1S/C7H13NO/c1-7(4-9)2-5-6(3-7)8-5/h5-6,8-9H,2-4H2,1H3	InChI=1S/C7H13NO/c1-7(4-9)2-5-6(3-7)8-5/h5-6,8-9H,2-4H2,1H3/t5-,6+,7-
