16
gdb 27621	3.0282	1.22546	0.87975	6.4194	80.96	-0.2035	0.0021	0.2055	1260.7083	0.12576	-396.993602	-396.984741	-396.983797	-397.027153	32.249	
C	-0.1271016242	 1.4898539266	 0.0720187655	-0.517542
C	-0.019921589	 0.0069722377	-0.0244550372	 0.220345
C	 0.0538180809	-0.8234634283	-1.1321656281	 0.123183
C	 0.1300688333	-2.1816326662	-0.6703170065	-0.338637
C	 0.1115958261	-2.1370266904	 0.6988671652	 0.309725
N	 0.2294792914	-3.1216228546	 1.6948012461	-0.60994
N	 0.0229088029	-0.8110118891	 1.0733766058	-0.321735
C	 0.0366495059	-0.3835556487	-2.4764805415	 0.190684
N	 0.0214855955	-0.0198810339	-3.5776368767	-0.368222
H	 0.7140169332	 1.9269109265	 0.6237931933	 0.134858
H	-0.1307815007	 1.9223525487	-0.930520181	 0.165278
H	-1.0499649989	 1.8009222866	 0.5764504903	 0.135306
H	 0.1754221135	-3.064582435	-1.2870810843	 0.108795
H	-0.6488632915	-3.3025091033	 2.1725227592	 0.249148
H	 0.5547726278	-3.9951007665	 1.2998461358	 0.254384
H	 0.072309574	-0.4990535199	 2.029098564	 0.264368
116.3401	135.8545	137.1912	152.5013	205.5788	267.3461	315.112	414.9756	503.8193	521.6443	544.2131	582.0081	646.1986	651.1489	688.9738	772.8217	787.4699	821.0752	1002.1814	1037.7902	1061.2713	1138.8224	1149.6518	1189.6119	1259.7917	1340.7661	1417.2321	1450.0056	1459.3929	1481.758	1496.7921	1569.9527	1634.0259	1661.6382	2334.2616	3022.3617	3069.569	3132.9863	3265.3727	3494.9882	3603.2312	3664.6005
CC1=C(C=C(N)N1)C#N	Cc1c(cc(N)[nH]1)C#N	
InChI=1S/C6H7N3/c1-4-5(3-7)2-6(8)9-4/h2,9H,8H2,1H3	InChI=1S/C6H7N3/c1-4-5(3-7)2-6(8)9-4/h2,9H,8H2,1H3
