19
gdb 87007	3.50006	0.82725	0.72365	2.5051	72.75	-0.2465	-0.0322	0.2144	1542.5401	0.156407	-460.137959	-460.128502	-460.127558	-460.17366	34.036	
O	 0.1821117465	-0.2252156614	-0.9871444128	-0.427677
C	-0.2847713766	-0.6228302656	 0.2724670371	 0.175562
C	 0.076450199	 0.1993228097	 1.5419658535	-0.283735
C	-1.3336669809	-0.1122085305	 2.0913577202	 0.122852
C	-1.786127435	-0.4548970726	 0.6399433398	-0.302922
O	-1.2432839297	-1.2246631649	 2.9685239744	-0.256649
C	-2.4689524216	-1.6435354539	 3.5189687631	-0.158127
C	-3.1810499477	-2.6958277508	 2.6753108621	 0.132365
O	-4.3589784455	-2.9273619706	 2.7417285582	-0.231188
H	-0.0794318276	 0.690624687	-1.1309123894	 0.277075
H	 0.0272529053	-1.6634433613	 0.3893127767	 0.105652
H	 0.9186467628	-0.1254960765	 2.1552380358	 0.117192
H	 0.1839562251	 1.2635409811	 1.3076752689	 0.096468
H	-1.872966698	 0.7032623828	 2.5894807013	 0.07474
H	-2.2107260803	 0.4309280576	 0.1537585342	 0.097673
H	-2.4636215436	-1.2966033101	 0.481754632	 0.112223
H	-2.2406921798	-2.1172223952	 4.4845472363	 0.138149
H	-3.156639817	-0.8092682601	 3.7156874895	 0.121407
H	-2.4964784953	-3.2672617147	 2.0071453391	 0.08894
39.3991	54.7635	91.8022	168.7142	233.5819	304.8867	316.4186	340.6928	384.5327	430.3402	469.0538	565.7535	672.0926	715.4648	797.1948	840.0201	907.9957	926.7796	978.9882	993.1938	1036.4244	1067.5576	1080.317	1119.3264	1126.5339	1165.0679	1197.7405	1200.6649	1261.1366	1268.2081	1279.6275	1292.2572	1335.3084	1347.5025	1387.7121	1404.1591	1433.3318	1454.9202	1456.2657	1484.504	1838.749	2875.392	3002.5869	3017.2876	3046.7448	3050.1386	3058.376	3087.3466	3115.9705	3129.0316	3803.0982
OC1CC(C1)OCC=O	O[C@H]1C[C@@H](C1)OCC=O	
InChI=1S/C6H10O3/c7-1-2-9-6-3-5(8)4-6/h1,5-6,8H,2-4H2	InChI=1S/C6H10O3/c7-1-2-9-6-3-5(8)4-6/h1,5-6,8H,2-4H2/t5-,6-
