23
gdb 119038	2.39703	0.97098	0.79146	1.331	81.87	-0.2426	0.0615	0.3041	1529.1172	0.203491	-425.404968	-425.394074	-425.39313	-425.441172	39.9	
C	-1.4870755532	-0.0583232456	-0.1355391295	-0.383198
C	 0.0261012693	-0.1677791154	 0.0958366505	-0.255595
C	 0.8101409589	-0.6479299865	-1.1195630295	 0.311252
C	 0.700698116	 0.1730432071	-2.3955577248	-0.262149
C	 1.2806325634	 1.580214144	-2.2802164494	-0.072178
O	 1.1972719342	 2.1832074805	-3.564169314	-0.420876
C	 2.1479523789	-1.3251857977	-0.8530034425	-0.353168
C	 0.9762735701	-2.1475755372	-1.2926406948	 0.057746
O	 0.4643446895	-3.0386231158	-0.341441741	-0.419723
H	-1.7347877689	 0.6798994267	-0.9046245883	 0.121412
H	-1.9109414811	-1.017693167	-0.4539729667	 0.100584
H	-1.9997386001	 0.2403090842	 0.7840778145	 0.11348
H	 0.4145010995	 0.8044318993	 0.4248883118	 0.094239
H	 0.2091452325	-0.865612025	 0.9180360312	 0.110574
H	 1.233892361	-0.336327428	-3.2070678489	 0.101544
H	-0.3438409837	 0.2537796001	-2.7194426426	 0.103325
H	 0.7200233747	 2.1647522556	-1.5340667897	 0.086008
H	 2.3239921805	 1.5221565746	-1.9311300575	 0.087814
H	 1.5445349619	 3.0774224073	-3.4991264265	 0.284425
H	 2.9654928367	-1.1719449756	-1.5496135646	 0.10891
H	 2.4500384585	-1.442504177	 0.182314395	 0.118
H	 0.9836143343	-2.5311676948	-2.3135720154	 0.081224
H	-0.4746802127	-3.1570798638	-0.5198816376	 0.286352
58.0591	87.5303	102.8716	131.9956	188.6587	236.3618	266.6268	288.6434	289.6747	305.8868	345.8687	379.6136	443.7762	472.1664	603.1696	716.8084	774.4818	801.6154	842.2219	897.3247	926.2314	953.1857	1011.0049	1020.3809	1046.8292	1055.3501	1073.7354	1086.545	1118.2276	1130.7648	1184.4253	1220.8698	1242.0225	1257.3314	1287.9397	1301.1404	1321.6721	1336.8553	1353.1679	1391.142	1409.5761	1432.2152	1457.9523	1481.6522	1487.4896	1491.0308	1499.7886	1506.2499	1528.2499	2968.2893	2994.3149	3026.6271	3029.5523	3033.2876	3070.0004	3078.9999	3089.2358	3097.3239	3107.7395	3129.3859	3217.2514	3803.1144	3830.7347
CCC1(CCO)CC1O	CC[C@@]1(CCO)C[C@H]1O	
InChI=1S/C7H14O2/c1-2-7(3-4-8)5-6(7)9/h6,8-9H,2-5H2,1H3	InChI=1S/C7H14O2/c1-2-7(3-4-8)5-6(7)9/h6,8-9H,2-5H2,1H3/t6-,7-/m1/s1
