19
gdb 110805	2.38364	1.34354	1.04233	4.7371	79.5	-0.2361	0.0146	0.2507	1217.7085	0.159988	-382.0339	-382.02522	-382.024276	-382.067643	32.505	
C	-0.1917986813	 1.5470773518	 0.2233210118	-0.379546
C	 0.1674090599	 0.0894315357	-0.0881371524	-0.209735
C	 0.8294715784	-0.5914920931	 1.0924590392	 0.015473
C	 0.10100578	-1.2811244109	 2.2037698596	-0.035025
N	-1.1027426747	-1.9534356454	 1.6545894894	-0.322656
C	-0.2121374663	-2.9030723247	 0.911182052	-0.140424
C	-0.537362156	-3.1129087316	-0.5042534672	 0.306844
N	-0.777243536	-3.30765011	-1.6179632154	-0.331685
C	 1.0308415572	-2.0807531708	 1.2944217342	-0.143415
H	 0.6962119112	 2.1302010377	 0.4930069016	 0.108771
H	-0.6565060456	 2.0294404134	-0.6416578548	 0.116365
H	-0.896368033	 1.6067972828	 1.0593651	 0.120504
H	-0.7376928595	-0.4541699148	-0.3690058676	 0.132766
H	 0.8417736005	 0.0465793746	-0.951711383	 0.103611
H	 1.7025931977	-0.0584251282	 1.4695331412	 0.091753
H	 0.1778046985	-1.0281162532	 3.2542653143	 0.101484
H	-1.62413662	-2.4476992239	 2.369955137	 0.233394
H	-0.1675810446	-3.885711795	 1.3928241311	 0.126027
H	 2.0028631236	-2.5230104743	 1.468024859	 0.10549
71.3995	93.9694	147.0452	209.6702	223.5067	278.733	324.8862	454.2214	533.0162	544.146	596.0289	714.2995	719.7447	790.6061	812.7591	843.7756	885.4706	927.9786	954.7823	1004.5848	1015.0133	1029.8283	1058.6906	1084.0478	1086.0778	1096.2474	1131.3554	1200.3939	1214.8555	1277.3939	1307.2893	1315.6024	1336.2714	1374.1871	1387.6126	1411.6752	1463.9103	1479.1765	1500.4766	1504.9984	2354.9612	3030.8961	3040.7126	3049.6107	3087.8834	3105.737	3108.9524	3118.9869	3183.5306	3199.106	3540.7263
CCC1C2NC(C#N)C12	CC[C@H]1[C@H]2N[C@@H](C#N)[C@@H]12	
InChI=1S/C7H10N2/c1-2-4-6-5(3-8)9-7(4)6/h4-7,9H,2H2,1H3	InChI=1S/C7H10N2/c1-2-4-6-5(3-8)9-7(4)6/h4-7,9H,2H2,1H3/t4-,5+,6-,7-/m1/s1
