15
gdb 30477	4.04303	1.20701	0.93487	2.7203	75.35	-0.2422	-0.0457	0.1964	1198.1508	0.114174	-450.163376	-450.155184	-450.15424	-450.197198	28.997	
C	-0.352201539	 1.4606588701	 0.2127894985	-0.333741
N	-0.1656843495	 0.0261329125	 0.1255853466	-0.347243
C	 0.7205589844	-0.5645912601	 0.7879197575	 0.519283
N	 0.9209102519	-1.923671273	 0.7259872523	-0.384767
C	 1.8801725741	-2.644745758	 1.4288629538	 0.42221
N	 1.9530626601	-3.9031730413	 1.2745267743	-0.537301
N	 2.713359078	-1.8904425068	 2.2777027803	-0.303311
C	 2.5194072964	-0.6384675739	 2.3267296835	 0.126645
O	 1.595591206	 0.0892658898	 1.6556982637	-0.219683
H	 0.33818826	 1.9688229962	 0.8948330483	 0.122626
H	-0.2400391278	 1.89806548	-0.7856355362	 0.132287
H	-1.3780390863	 1.6697853695	 0.5363830754	 0.132287
H	 0.3088476246	-2.4373352169	 0.1094461857	 0.281981
H	 2.7043029291	-4.263382717	 1.8602684463	 0.234732
H	 3.122368568	 0.0080876788	 2.95830126	 0.153993
60.6814	65.4715	125.2025	215.2682	222.9177	399.2863	401.566	477.5486	565.0663	617.635	631.9899	703.8434	750.1918	771.9682	870.287	894.7976	944.2524	981.4994	1040.463	1116.1056	1138.1231	1160.1798	1176.7243	1286.2468	1391.6687	1417.091	1441.931	1449.4435	1494.3033	1503.4288	1699.783	1744.3212	1826.8774	3020.4026	3078.5588	3090.3782	3188.5001	3518.8898	3633.6923
CN=C1NC(=N)N=CO1	CN=C1N[C@H]([NH])N=CO1	
InChI=1S/C4H6N4O/c1-6-4-8-3(5)7-2-9-4/h2H,1H3,(H2,5,6,8)	InChI=1S/C4H7N4O/c1-6-4-8-3(5)7-2-9-4/h2-3,5H,1H3,(H,6,8)/t3-/m1/s1
