15
gdb 27366	2.03922	1.97355	1.00961	6.3513	73.24	-0.2337	-0.0217	0.212	1119.3885	0.113671	-450.181434	-450.173241	-450.172296	-450.214345	30.319	
C	-0.0238696376	 1.4473009382	 0.1157831267	-0.472186
C	 0.0041895721	-0.0336680811	-0.0584252228	 0.391944
N	-0.0302078863	-0.6268040572	-1.1730447697	-0.280271
C	 0.0013880938	-2.042758672	-1.192678102	 0.353218
N	-0.0296169127	-2.6231656044	-2.3255396135	-0.507579
N	 0.0586482828	-2.7325549238	 0.0311073936	-0.376663
C	 0.1017725987	-2.0405712676	 1.1035350682	 0.478319
N	 0.2188633667	-2.5824302481	 2.3417353794	-0.567748
O	 0.0753634426	-0.6748557624	 1.1729193394	-0.251434
H	 0.8752946382	 1.7842956347	 0.6418023243	 0.150348
H	-0.080390719	 1.921375035	-0.8626835267	 0.165443
H	-0.8860687339	 1.7421789396	 0.7228404746	 0.148142
H	-0.0007917056	-3.6316124791	-2.1651711047	 0.21737
H	 0.057984317	-3.5740386124	 2.4048494604	 0.279422
H	-0.0271959167	-2.0124375593	 3.133539893	 0.271675
86.6723	137.1688	175.0032	206.6531	291.2722	346.3443	370.5409	484.7901	534.9819	553.8593	562.7378	581.7877	654.1547	726.0148	792.7178	898.8098	917.0682	919.1502	951.541	1062.7105	1064.1138	1107.162	1190.8998	1204.1676	1361.7871	1399.6742	1416.8418	1470.9161	1474.1518	1604.8294	1693.3689	1711.5254	1793.4698	3048.2734	3105.6798	3174.8776	3475.2046	3608.8492	3735.8427
CC1=NC(=N)N=C(N)O1	CC1=NC(=N[C@@H](N)O1)[NH]	
InChI=1S/C4H6N4O/c1-2-7-3(5)8-4(6)9-2/h1H3,(H3,5,6,8)	InChI=1S/C4H7N4O/c1-2-7-3(5)8-4(6)9-2/h4-5H,6H2,1H3/t4-/m1/s1
