23
gdb 52392	6.10198	0.51624	0.49548	2.8436	88.1	-0.247	-0.0185	0.2286	2213.2919	0.204655	-388.296006	-388.28589	-388.284946	-388.332862	35.98	
O	-0.3011925413	-0.0281386561	-0.2255580057	-0.237978
C	-0.0570099114	 1.141507802	-0.0777320268	 0.159291
C	 1.3113267063	 1.7694865291	-0.1999082827	-0.272092
C	 1.3349583086	 2.8923749257	-1.2522644374	-0.190524
C	 2.6837413276	 3.6192175752	-1.3214231283	-0.210093
C	 2.7157479368	 4.7290564462	-2.3635781171	 0.060204
C	 1.8744428943	 6.0200041571	-2.1339248144	-0.217449
C	 3.0482296186	 6.8440345255	-2.7279173696	-0.210171
C	 3.979626974	 5.6295729998	-2.4686185401	-0.236783
H	-0.8705936424	 1.8681790697	 0.1613437957	 0.067377
H	 1.5691732368	 2.1941111275	 0.7817659068	 0.115922
H	 2.0379014901	 0.984959136	-0.4314301626	 0.120439
H	 1.0965228617	 2.4688612155	-2.2363924118	 0.110068
H	 0.5406933369	 3.6172921296	-1.029466859	 0.10569
H	 2.9186223543	 4.0429288471	-0.334499851	 0.089747
H	 3.4780283975	 2.8915923804	-1.5383422139	 0.097755
H	 2.4810209585	 4.3114315316	-3.3508274987	 0.069044
H	 0.898589428	 6.0934514696	-2.6204332921	 0.094639
H	 1.7442350517	 6.2203058518	-1.0644537268	 0.094638
H	 2.9117375811	 7.0282227358	-3.7973893715	 0.102425
H	 3.300214307	 7.7906506812	-2.2444574619	 0.096183
H	 4.4870627717	 5.711162663	-1.5013279739	 0.096644
H	 4.7236578937	 5.3788803966	-3.2289297874	 0.095024
47.3931	49.8143	86.9492	103.6927	131.7235	169.3579	258.2091	282.6561	402.8697	440.0667	515.9931	636.8753	741.7704	769.3324	785.019	810.3108	885.7461	902.4687	934.1575	946.4356	972.8097	986.3852	1014.651	1041.0558	1050.091	1110.9442	1127.1335	1162.4527	1197.7698	1205.9369	1243.8237	1252.7714	1256.1036	1264.1369	1278.4784	1289.5415	1300.7333	1332.7958	1336.0244	1379.9849	1397.8483	1429.4578	1464.0162	1478.3616	1482.1457	1487.0155	1502.4646	1511.579	1836.4501	2842.4601	3001.4622	3007.1547	3016.8657	3022.7897	3035.514	3040.61	3047.3214	3058.3041	3060.728	3094.5068	3097.0415	3098.3767	3116.2529
O=CCCCC1CCC1	O=CCCCC1CCC1	
InChI=1S/C8H14O/c9-7-2-1-4-8-5-3-6-8/h7-8H,1-6H2	InChI=1S/C8H14O/c9-7-2-1-4-8-5-3-6-8/h7-8H,1-6H2
