15
gdb 11715	6.10238	1.36521	1.2511	2.0964	69.11	-0.2339	0.0244	0.2583	952.8523	0.118467	-362.580935	-362.573651	-362.572707	-362.612217	28.309	
O	-0.043974845	 1.436778738	-0.0942354133	-0.434385
C	 0.0303202206	 0.0435511552	-0.0259283518	 0.15886
C	 0.3826545846	-0.6255471895	 1.3605353736	-0.326062
C	-0.9827851931	-1.3261798572	 1.3221310844	 0.231818
N	-1.9843865294	-0.2176613686	 1.2095322837	-0.389485
C	-1.3099478806	-0.7102826141	-0.0079221225	-0.145131
C	-1.3357830332	-2.5972920765	 1.8485045664	 0.143894
C	-1.6154679769	-3.6740602203	 2.308174272	-0.394657
H	-0.7478415921	 1.6897689054	 0.5187568179	 0.291327
H	 0.6996321375	-0.2878226604	-0.8220871268	 0.097384
H	 1.2221828179	-1.3193976976	 1.2916096905	 0.117977
H	 0.5283800531	 0.0620920332	 2.1962938104	 0.110213
H	-2.9112898678	-0.639791442	 1.245307475	 0.2427
H	-1.8780948964	-1.1154708756	-0.8365578432	 0.105315
H	-1.8638003292	-4.62483512	 2.7105950937	 0.190232
107.5055	144.1955	221.6518	337.8353	427.2902	467.8814	512.1912	521.3019	563.3574	590.7462	648.0473	663.1471	685.7445	812.3247	863.6088	911.4612	971.9535	980.0992	991.3519	1046.5239	1105.6278	1125.5838	1145.199	1206.7616	1222.4825	1284.3343	1293.5148	1350.934	1395.4846	1444.3086	1473.9172	2234.3782	3073.7735	3098.6389	3139.038	3192.6858	3489.4316	3502.098	3754.8078
OC1CC2(NC12)C#C	O[C@H]1C[C@]2(N[C@@H]12)C#C	
InChI=1S/C6H7NO/c1-2-6-3-4(8)5(6)7-6/h1,4-5,7-8H,3H2	InChI=1S/C6H7NO/c1-2-6-3-4(8)5(6)7-6/h1,4-5,7-8H,3H2/t4-,5-,6+/m0/s1
