21
gdb 120209	4.5892	0.87431	0.85383	1.7745	82.74	-0.2336	0.0028	0.2364	1465.6043	0.182715	-387.044718	-387.036254	-387.03531	-387.078278	32.782	
C	 0.0303564656	 1.5601009031	 0.0202170427	-0.37919
C	-0.0124383285	 0.0323058803	 0.1106601864	-0.166242
C	-1.4139340971	-0.5422488207	-0.1372580588	-0.20566
C	-1.4568899639	-2.0627283265	-0.0780461454	 0.026262
C	-1.4859607443	-2.722840973	 1.3502217388	 0.008987
O	-2.9054939183	-2.3657924191	 1.4237867826	-0.286609
C	-2.8775668419	-2.7264397897	 0.002474246	-0.005227
C	-2.5163114178	-4.2198656343	 0.0656320497	-0.083362
C	-1.5566142242	-4.2171557276	 0.9939702322	-0.082068
H	 1.0385296579	 1.9440549381	 0.2049861829	 0.110462
H	-0.2817034553	 1.9062615417	-0.9715273912	 0.11331
H	-0.6412688606	 2.0178119931	 0.7548067262	 0.116806
H	 0.6915593508	-0.3980248523	-0.6141690699	 0.093194
H	 0.3414096921	-0.2841186255	 1.1005409115	 0.096082
H	-2.12208469	-0.1354477688	 0.5924554533	 0.113423
H	-1.7613374083	-0.2193447316	-1.1290425351	 0.089319
H	-0.7626575294	-2.5159253381	-0.7924587528	 0.06805
H	-0.8879730968	-2.3840705039	 2.1956134775	 0.077657
H	-3.7404481427	-2.3867461919	-0.5699171128	 0.076273
H	-2.9407903915	-5.0232857574	-0.5176558387	 0.109472
H	-0.9577973859	-5.0180447158	 1.4012905151	 0.10906
75.706	87.1076	122.1743	247.116	279.4714	306.5265	345.5573	522.0984	544.5088	633.9321	701.6442	737.9188	756.7006	809.0797	855.2661	869.2801	876.3171	899.9709	910.1407	915.8466	932.0547	958.7266	1005.8145	1045.1091	1082.2073	1105.5264	1122.0452	1154.379	1162.8819	1198.2418	1233.3796	1237.819	1262.6687	1293.6196	1299.1713	1309.9885	1328.8294	1376.8489	1397.2231	1412.9737	1483.866	1493.8465	1500.0867	1510.4521	1613.2401	3006.7151	3015.6624	3029.6985	3042.8654	3059.2812	3081.7368	3097.2222	3101.9368	3126.8067	3130.8902	3232.6136	3259.8899
CCCC1C2OC1C=C2	CCC[C@H]1[C@H]2O[C@@H]1C=C2	
InChI=1S/C8H12O/c1-2-3-6-7-4-5-8(6)9-7/h4-8H,2-3H2,1H3	InChI=1S/C8H12O/c1-2-3-6-7-4-5-8(6)9-7/h4-8H,2-3H2,1H3/t6-,7-,8+
