16
gdb 20279	5.38668	2.1535	2.0749	3.0642	67.61	-0.2124	0.0698	0.2822	704.6935	0.13404	-342.668571	-342.663357	-342.662412	-342.697486	22.591	
C	-0.045399324	 1.4934757943	 0.0095425928	-0.180475
C	 1.4635740696	 1.2600164072	-0.0057590173	-0.080301
C	 1.1914616046	 0.0966482981	 1.0035819409	 0.010412
C	 2.153135342	-1.0465009085	 0.7139698151	-0.066634
N	 1.5186345271	-2.168028775	-0.0237027699	-0.316005
C	 2.1393305455	-1.038994271	-0.7616668631	-0.066634
C	 1.172506914	 0.1069409143	-1.0215999802	 0.010414
N	 0.0164840196	-0.0381074952	 0.0011883019	-0.130929
H	-0.4996442329	 1.9023620976	 0.916716954	 0.098617
H	-0.5164993495	 1.9115079802	-0.884776219	 0.098618
H	 2.2854397126	 1.9871131756	-0.0097569157	 0.059174
H	 0.8939429478	 0.3113078895	 2.0311574257	 0.075694
H	 3.0367963035	-1.2120268033	 1.3189319061	 0.092257
H	 2.1784486496	-2.9454018895	-0.0338386307	 0.227841
H	 3.0115026164	-1.1982720538	-1.3847086187	 0.092256
H	 0.855830264	 0.3320043492	-2.0411931418	 0.075695
308.3603	355.0138	450.5394	552.3417	673.6061	714.3776	766.938	793.2493	819.0358	843.7361	877.3298	898.4139	903.4111	921.4539	968.6195	968.9039	1012.5597	1039.425	1067.0023	1091.8076	1107.2762	1129.6879	1144.0031	1149.4727	1181.6305	1210.7371	1231.1516	1244.8771	1268.7099	1274.4651	1352.4257	1353.75	1404.7904	1530.3102	3018.5392	3049.2167	3104.5245	3108.597	3109.3271	3177.6044	3187.7112	3471.7139
C1C2C3C4NC4C2N13	C1[C@H]2[C@@H]3[C@H]4N[C@H]4[C@H]2N13	
InChI=1S/C6H8N2/c1-2-5-3-4(7-3)6(2)8(1)5/h2-7H,1H2	InChI=1S/C6H8N2/c1-2-5-3-4(7-3)6(2)8(1)5/h2-7H,1H2/t2-,3-,4+,5+,6-
