18
gdb 68086	2.55461	1.68721	1.37539	1.3395	77.83	-0.2413	0.0008	0.2422	1022.8201	0.146356	-401.933682	-401.925096	-401.924152	-401.966445	32.731	
C	 0.020345219	 1.5538353014	-0.0430654559	-0.518472
C	-0.0093862189	 0.0524751409	 0.0282829731	 0.158328
N	 0.3399467794	-0.7688509884	-1.2013349	-0.343742
C	-0.3203103802	-1.9337680546	-0.4832901805	 0.158324
C	-0.7175556737	-3.1599118225	-1.2571271814	-0.518472
C	 0.5643452649	-2.005989111	 0.745056039	-0.104132
C	 0.7654105362	-0.7212846205	 1.0759725966	-0.104143
C	-1.3377117687	-0.8207844235	 0.0199710293	 0.350711
O	-2.5125946037	-0.6440564479	 0.0478746846	-0.32146
H	 1.0180607711	 1.9107122089	-0.3164922694	 0.136687
H	-0.6963340391	 1.9289529876	-0.7801335854	 0.128311
H	-0.244475848	 1.9857801323	 0.9266847419	 0.134887
H	-0.2689690184	-0.4747448608	-1.9731684333	 0.217197
H	 0.153113078	-3.6145955912	-1.7395770709	 0.136686
H	-1.1661418831	-3.9018384443	-0.5897162749	 0.134887
H	-1.4552123814	-2.9187955665	-2.0287082323	 0.128311
H	 0.8576356802	-2.9113564241	 1.2568644594	 0.113045
H	 1.2674993465	-0.2925747858	 1.93140965	 0.113047
124.2068	158.2696	161.2489	204.2724	214.5365	254.2715	355.7596	418.396	514.8179	580.8293	594.9664	601.5108	681.6214	736.2849	780.9446	794.4986	871.0537	882.7975	898.9149	899.2639	933.7113	1047.8355	1076.5237	1089.4325	1121.7153	1133.7918	1205.2988	1211.1843	1276.7985	1361.9131	1392.9737	1413.0197	1421.0433	1486.5948	1488.4794	1490.5605	1490.9087	1600.1575	1882.5006	3040.005	3040.2696	3110.0513	3110.06	3113.8889	3114.0731	3224.0813	3248.8951	3388.5097
CC12NC(C)(C=C1)C2=O	C[C@@]12N[C@@](C)(C=C1)C2=O	
InChI=1S/C7H9NO/c1-6-3-4-7(2,8-6)5(6)9/h3-4,8H,1-2H3	InChI=1S/C7H9NO/c1-6-3-4-7(2,8-6)5(6)9/h3-4,8H,1-2H3/t6-,7+
