23
gdb 58530	2.01431	1.39322	1.36085	2.516	85.15	-0.2318	-0.0178	0.214	1188.6095	0.203469	-388.311714	-388.301439	-388.300495	-388.3471	38.614	
C	 0.0285848206	 1.5362542528	-0.1254289572	-0.402117
C	 0.0374897161	 0.0017254267	-0.0155735031	-0.013627
C	 0.6684737253	-0.5943895851	-1.2864425243	-0.418695
C	 0.7188078127	-0.4896610063	 1.289573415	 0.221513
C	 0.1445613857	 0.184068375	 2.5442389305	-0.455962
C	 0.8601913983	-2.0478672142	 1.4551334776	-0.296653
C	 2.4144361232	-1.939110704	 1.454679631	-0.338141
C	 2.264539166	-0.4222902953	 1.2698409489	 0.382795
O	 3.043791891	 0.4812954326	 1.1504027705	-0.313297
H	 1.0463528757	 1.933581791	-0.0594230724	 0.142581
H	-0.3935275437	 1.8429526049	-1.0878486084	 0.107761
H	-0.570768129	 2.0049530607	 0.6588222532	 0.112686
H	-1.0048433529	-0.3464792343	 0.037607696	 0.072931
H	 1.6994936251	-0.246449671	-1.4147228505	 0.131546
H	 0.6775133954	-1.6880656844	-1.283081542	 0.111365
H	 0.1047302137	-0.2772618645	-2.1691604587	 0.115494
H	-0.942539683	 0.0500899964	 2.5890843543	 0.11687
H	 0.5713411352	-0.2535044021	 3.4527239677	 0.113187
H	 0.3621911611	 1.2542692029	 2.5611790886	 0.136916
H	 0.4368316991	-2.4247193005	 2.3880896762	 0.102992
H	 0.4523779913	-2.6357929112	 0.6325373136	 0.107668
H	 2.9200671462	-2.2253390029	 2.3816198698	 0.130542
H	 2.9293173468	-2.4298220874	 0.6230820937	 0.131643
33.5422	81.1452	138.9146	222.0152	227.2514	234.6073	252.2118	300.4727	375.8298	383.1723	403.2974	427.1967	501.7247	524.6892	652.6279	704.0301	745.7339	838.9529	870.679	923.6104	932.8064	934.271	964.6343	975.1952	1023.6401	1062.2695	1089.6853	1101.8467	1165.2041	1187.0787	1200.0783	1211.2672	1222.4929	1244.3984	1279.6873	1343.0287	1352.8624	1400.6473	1407.4922	1423.2305	1434.228	1484.2225	1490.1305	1493.3089	1499.2243	1505.3948	1514.2661	1522.6376	1873.5316	2990.7109	3029.4074	3036.0507	3041.7379	3056.6746	3081.7528	3092.1635	3101.2849	3104.2145	3106.9092	3109.8848	3119.0727	3127.013	3135.4069
CC(C)C1(C)CCC1=O	CC(C)[C@@]1(C)CCC1=O	
InChI=1S/C8H14O/c1-6(2)8(3)5-4-7(8)9/h6H,4-5H2,1-3H3	InChI=1S/C8H14O/c1-6(2)8(3)5-4-7(8)9/h6H,4-5H2,1-3H3/t8-/m1/s1
