15
gdb 48014	3.88757	0.73358	0.65801	4.116	81.04	-0.2573	-0.0647	0.1926	1639.6155	0.110037	-420.609255	-420.600275	-420.59933	-420.644999	30.539	
O	-0.3636392949	 0.1334882389	-0.3238602441	-0.230182
C	 0.0941966094	 0.9088224418	 0.4848253366	 0.018115
C	 1.2410958691	 1.7464637958	 0.2521683921	 0.055188
C	 2.2040746624	 2.4595782901	 0.0902813963	 0.102753
C	 3.3186686347	 3.3366015171	-0.1456417479	-0.300141
C	 3.964030153	 3.4353614031	-1.5723602928	-0.239105
C	 3.9437029607	 4.9893076383	-1.4952467812	-0.339934
C	 3.0451881531	 4.8828091925	-0.2574309072	 0.399836
O	 2.3467284702	 5.6318797569	 0.346902255	-0.264997
H	-0.3555378998	 1.0283193425	 1.4913369573	 0.102091
H	 4.0892570139	 3.1954736777	 0.6235976893	 0.143826
H	 4.9423291339	 2.9662289626	-1.6711548946	 0.124419
H	 3.2960042469	 3.0438887426	-2.3399884303	 0.138358
H	 4.9127757253	 5.4347833827	-1.2474709539	 0.143731
H	 3.5155600421	 5.5388037974	-2.3364625847	 0.146042
36.6549	63.8701	82.4625	115.0685	198.3417	243.752	399.5964	405.7618	437.2086	569.0461	590.0587	666.799	725.3003	766.4835	875.1745	920.6857	957.0718	1012.7469	1020.9254	1024.2301	1061.6841	1179.4465	1188.4305	1207.2214	1231.1244	1259.5865	1322.3638	1421.9492	1439.864	1493.4856	1763.6696	1909.8993	2319.1382	2921.69	3031.7209	3062.4315	3097.3309	3121.0907	3157.4987
O=CC#CC1CCC1=O	O=CC#C[C@H]1CCC1=O	
InChI=1S/C7H6O2/c8-5-1-2-6-3-4-7(6)9/h5-6H,3-4H2	InChI=1S/C7H6O2/c8-5-1-2-6-3-4-7(6)9/h5-6H,3-4H2/t6-/m0/s1
