13
gdb 132294	2.05322	1.88075	0.98194	3.0227	67.58	-0.2136	-0.0297	0.1839	1084.5329	0.089751	-494.07932	-494.071895	-494.070951	-494.11124	28.299	
N	 0.0493468107	 1.3586626041	 0.1243560662	-0.565622
C	-0.0389669023	 0.0022443376	 0.0467544926	 0.394848
C	-1.2085450433	-0.7005728566	 0.0273859019	-0.250521
C	-1.201023715	-2.1285988291	-0.0036247404	 0.393439
N	-2.1903983829	-2.9137181286	-0.0201137195	-0.546899
O	 0.1296754541	-2.6976938224	-0.019542687	-0.244313
C	 1.1678548321	-1.8892061147	-0.0081551983	 0.410698
F	 2.2799419448	-2.5784240166	-0.0371316324	-0.036416
N	 1.2080735462	-0.6210576814	 0.0234081516	-0.431302
H	 0.9452557194	 1.7627737589	-0.0930668905	 0.270644
H	-0.7652785004	 1.9149604489	-0.0711047623	 0.266709
H	-2.1749717098	-0.2168053563	 0.0417041816	 0.11057
H	-1.8998651635	-3.8889836237	-0.0436433035	 0.228165
141.9346	171.6186	209.4436	331.6412	353.232	363.9367	459.2987	486.0504	553.9176	589.2196	639.6332	670.6382	691.2869	760.5063	796.3457	825.6593	865.5711	972.1737	1032.1226	1104.1261	1122.5931	1222.3221	1305.9992	1397.0144	1451.5009	1616.2009	1669.9284	1716.8844	1780.8136	3231.1293	3522.4576	3608.4784	3732.4776
NC1=CC(=N)OC(F)=N1	N[C@@H]1C=C([NH])OC(=N1)F	
InChI=1S/C4H4FN3O/c5-4-8-2(6)1-3(7)9-4/h1,7H,6H2	InChI=1S/C4H5FN3O/c5-4-8-2(6)1-3(7)9-4/h1-2,7H,6H2/t2-/m0/s1
