19
gdb 63977	3.24936	1.33098	1.18668	1.6275	77.15	-0.2189	0.0165	0.2354	1120.1704	0.159924	-419.190104	-419.181677	-419.180733	-419.222777	32.275	
C	 0.0939478244	 1.5146907514	 0.1048444037	-0.445179
C	-0.0168921948	 0.0009860678	 0.025945054	 0.277409
O	-1.3501978086	-0.4477676818	 0.1551790127	-0.464547
C	 0.6503365788	-0.7259789752	-1.1969977753	-0.207532
N	 1.3361112166	-1.6314489346	-0.232707459	-0.082465
C	 2.7493318303	-1.9652923247	-0.0391924387	-0.198275
C	 2.8541952027	-1.7298473505	 1.5082215271	-0.173188
N	 1.7957623371	-0.7273567158	 1.8398868087	-0.352699
C	 1.0273578749	-0.7925393789	 0.8301877105	 0.312971
H	 1.1245918682	 1.8484210879	-0.0407472047	 0.127306
H	-0.5439613082	 1.9752288581	-0.6554016811	 0.127431
H	-0.2301120759	 1.8665815335	 1.0904712692	 0.126698
H	-1.670136571	-0.179221199	 1.0236211649	 0.286217
H	-0.0390748154	-1.2327774593	-1.8745193729	 0.123675
H	 1.3377873971	-0.0773819259	-1.7537314472	 0.105481
H	 2.9893465545	-2.9886286701	-0.3368110664	 0.113467
H	 3.400229527	-1.2733073423	-0.5967065348	 0.09656
H	 2.6648901481	-2.6627006811	 2.0545233631	 0.114575
H	 3.8347546442	-1.3577462395	 1.8146739063	 0.112093
116.2457	140.6937	209.4269	248.7951	256.6318	281.8907	340.3119	366.3705	398.8449	526.1358	610.4233	653.4068	762.8209	796.7252	855.809	869.0539	904.3455	943.4849	947.5594	980.9228	1012.6738	1083.6557	1101.7545	1126.1059	1151.2399	1188.5174	1209.0081	1220.3705	1233.1638	1254.306	1293.5509	1324.2551	1360.4744	1382.21	1408.6671	1485.5099	1486.8197	1491.9591	1494.5812	1517.2478	1738.5698	2981.2993	3027.9642	3029.7057	3037.5827	3092.7287	3100.4688	3106.2879	3117.079	3125.2341	3805.7687
CC1(O)CN2CCN=C12	C[C@@]1(O)CN2CC[N][C]12	
InChI=1S/C6H10N2O/c1-6(9)4-8-3-2-7-5(6)8/h9H,2-4H2,1H3	InChI=1S/C6H10N2O/c1-6(9)4-8-3-2-7-5(6)8/h9H,2-4H2,1H3/t6-/m1/s1
