19
gdb 126802	4.82927	0.90719	0.81288	1.1433	81.1	-0.1997	0.0111	0.2108	1470.4983	0.160755	-415.394195	-415.384917	-415.383973	-415.429269	32.931	
C	 0.1527396491	 1.4712508344	 0.0962040046	-0.377266
C	 0.0306930874	-0.0445502913	-0.0638410132	-0.124472
N	 0.6710075812	-0.5297830129	-1.2740759465	 0.147581
N	-0.0102702356	-0.8548506733	-2.3568080477	-0.225192
C	 0.9314411978	-1.1753045547	-3.2500384176	-0.138945
C	 2.1929150745	-1.0126232494	-2.6411814153	 0.368792
N	 3.4589798531	-1.1770936915	-3.1697547914	-0.372436
C	 3.6244720348	-2.0559892478	-4.313647588	-0.327124
N	 2.0038863747	-0.6031403483	-1.3824217751	-0.347831
H	 1.203818836	 1.7684717187	 0.1288762822	 0.142833
H	-0.3302314456	 1.988205088	-0.737705423	 0.133798
H	-0.3281678853	 1.7886053883	 1.0264261929	 0.119217
H	 0.4928635763	-0.5605269077	 0.7826769675	 0.12878
H	-1.013444263	-0.3542256064	-0.1337938788	 0.137532
H	 0.6696980988	-1.5008167168	-4.2428596666	 0.112895
H	 4.1612820473	-1.2825151181	-2.4520877404	 0.244067
H	 4.6826918128	-2.0935358383	-4.5816620751	 0.127961
H	 3.2696319266	-3.0839846431	-4.1390087973	 0.114694
H	 3.0822936291	-1.6534868898	-5.1758112513	 0.135116
41.0954	73.9511	113.3952	171.1752	192.0385	229.7157	304.4059	359.8635	413.4227	481.7939	561.2124	673.0128	696.2788	731.9911	745.6656	798.3924	818.2966	972.0709	1020.4938	1026.8943	1083.9924	1103.1781	1119.5428	1155.4781	1182.0144	1217.7097	1278.26	1346.0691	1384.7397	1390.3314	1408.2393	1409.9045	1442.9679	1464.3249	1475.7642	1488.6273	1488.8544	1506.4576	1512.2686	1520.8489	1611.4206	2979.8123	3046.3576	3067.6465	3068.0919	3119.4175	3121.3694	3121.8241	3142.6494	3277.6492	3602.3869
CCN1N=CC(NC)=N1	CCn1ncc(NC)n1	
InChI=1S/C5H10N4/c1-3-9-7-4-5(6-2)8-9/h4H,3H2,1-2H3,(H,6,8)	InChI=1S/C5H10N4/c1-3-9-7-4-5(6-2)8-9/h4H,3H2,1-2H3,(H,6,8)
