17
gdb 106263	3.04424	1.28082	1.07904	2.0369	69.69	-0.2523	-0.0102	0.2422	1155.0774	0.133056	-458.909665	-458.900574	-458.89963	-458.943867	32.929	
C	 0.1059959986	 1.4895135836	-0.1038922939	-0.517323
C	-0.0311578805	 0.0042523845	-0.0862441585	 0.26594
C	 0.3011237447	-1.0620709963	-1.1646096802	-0.297868
C	 0.0661501531	-1.8562391679	 0.1427373714	 0.261427
C	 0.2841086239	-3.2986309924	 0.5012452724	-0.214178
O	-0.7265812519	-4.1035823168	-0.081422921	-0.410456
O	 0.813682553	-0.79048356	 0.8723777086	-0.368315
C	-1.1577555439	-0.9438046268	 0.4130616767	 0.40269
O	-2.2514672852	-0.9571851687	 0.8808856631	-0.331706
H	 1.1227947457	 1.7853719402	-0.3778573298	 0.140319
H	-0.5881975764	 1.9157490114	-0.8345203955	 0.141189
H	-0.1296378295	 1.9067706012	 0.8790419562	 0.148308
H	-0.3900970067	-1.2034238608	-1.9990224961	 0.117648
H	 1.3503073499	-1.0455386703	-1.4668738492	 0.117221
H	 1.2392426002	-3.6607135539	 0.1089573155	 0.126697
H	 0.3165366025	-3.387779426	 1.5972481498	 0.116084
H	-1.5661689476	-3.854927431	 0.3213977004	 0.302324
50.2281	121.6626	153.7886	187.2585	207.9516	217.6757	308.3368	367.4591	425.3022	508.7	518.5007	627.6529	662.1913	734.9821	757.3854	806.1781	866.3204	905.0203	933.783	1017.1687	1025.6703	1074.5624	1101.3661	1119.8835	1147.6406	1167.7015	1243.0694	1292.3274	1368.2374	1389.2216	1413.6775	1429.3899	1474.6954	1486.33	1488.5426	1501.6474	1914.5067	3001.7941	3044.6021	3064.6148	3084.947	3118.384	3123.0824	3145.3412	3805.9555
CC12CC(CO)(O1)C2=O	C[C@@]12C[C@@](CO)(O1)C2=O	
InChI=1S/C6H8O3/c1-5-2-6(3-7,9-5)4(5)8/h7H,2-3H2,1H3	InChI=1S/C6H8O3/c1-5-2-6(3-7,9-5)4(5)8/h7H,2-3H2,1H3/t5-,6-/m0/s1
