18
gdb 52983	4.35586	0.92145	0.84819	1.5726	87.5	-0.223	0.0032	0.2263	1419.5965	0.147875	-364.773503	-364.764899	-364.763955	-364.808015	31.809	
C	 0.022405223	 1.4616157881	 0.0594711481	-0.506423
C	-0.007184832	 0.0075988561	 0.0061954965	 0.215393
C	-0.0398880322	-1.1962801281	-0.0229392118	-0.061266
C	-0.0494240768	-2.6294374838	-0.0972470159	 0.100575
C	 0.9553391695	-3.328179299	-1.0296661794	-0.337979
C	 0.237330496	-4.5867686901	-1.4634866584	-0.090665
C	-1.0122895949	-4.6362524723	-0.9932758714	-0.076857
C	-1.3020392567	-3.4762060367	-0.101482258	-0.107427
N	-0.4749408282	-3.3602357562	 1.1157015884	-0.355275
H	 0.9422057911	 1.8572799223	-0.3856011327	 0.146708
H	-0.8228919274	 1.9005723422	-0.4825043823	 0.146842
H	-0.0248371391	 1.8200157298	 1.0937905672	 0.151253
H	 1.1911755617	-2.6836280141	-1.8849119826	 0.12523
H	 1.9077421391	-3.5321876744	-0.5235995236	 0.117665
H	 0.7137011429	-5.3482629551	-2.0703545683	 0.101851
H	-1.7333883426	-5.4218364733	-1.1861400597	 0.103149
H	-2.2977192314	-3.053480099	-0.0221360238	 0.102284
H	 0.0846154379	-4.2055856163	 1.2235173776	 0.224941
26.3242	94.6338	98.228	244.1502	294.1546	340.955	358.7893	434.1293	502.1057	524.4813	565.0372	717.7429	742.2464	763.1072	856.6883	871.2929	941.4696	952.347	959.2819	987.5719	995.689	1052.7938	1054.1023	1086.6058	1124.1499	1133.7148	1163.5678	1182.6515	1260.5615	1289.614	1307.8692	1367.1785	1410.2356	1420.4515	1470.6184	1477.0694	1478.9373	1661.0269	2371.1551	3025.1715	3028.5088	3059.8726	3084.3158	3087.3672	3172.1984	3190.3909	3214.8162	3464.2792
CC#CC12CC=CC1N2	CC#C[C@]12CC=C[C@H]1N2	
InChI=1S/C8H9N/c1-2-5-8-6-3-4-7(8)9-8/h3-4,7,9H,6H2,1H3	InChI=1S/C8H9N/c1-2-5-8-6-3-4-7(8)9-8/h3-4,7,9H,6H2,1H3/t7-,8+/m1/s1
