21
gdb 122093	2.9396	0.68225	0.57158	4.006	80.69	-0.2441	0.03	0.2741	1915.5464	0.181157	-420.40157	-420.390536	-420.389592	-420.438892	38.046	
C	-0.2202346951	 1.5486206864	-0.1007434684	-0.329405
N	 0.0953555974	 0.1322493313	 0.0635642597	-0.287096
C	 0.7538249067	-0.4708937841	-1.0906168005	-0.114322
C	 1.2392060499	-1.9023102497	-0.7787701027	-0.207533
C	 2.3730452056	-1.9501472895	 0.2499794091	-0.192158
C	 2.9213954698	-3.3603913542	 0.4376561715	-0.078378
O	 3.9385114969	-3.2967480699	 1.4234054481	-0.420521
C	-0.188386877	-0.5087239874	-2.2256700549	 0.306306
N	-0.9068040838	-0.5440856625	-3.1298224491	-0.331517
H	 0.6506995378	 2.1743846587	-0.3632393931	 0.100266
H	-0.9688299855	 1.6675855297	-0.8899511618	 0.150664
H	-0.6504793031	 1.9284044432	 0.8293933771	 0.126977
H	 0.6964293688	 0.0092849957	 0.8698537543	 0.229864
H	 1.6244719773	 0.120466866	-1.4383176015	 0.100504
H	 0.379213356	-2.4859226067	-0.433015703	 0.128042
H	 1.578543917	-2.35386359	-1.7175333346	 0.120344
H	 3.1971456998	-1.295773532	-0.0602677458	 0.112146
H	 2.0378711601	-1.5958154483	 1.2320138863	 0.113784
H	 2.1068987521	-4.0369799529	 0.7436838157	 0.092055
H	 3.3136381712	-3.7359289482	-0.5215101675	 0.090835
H	 4.2901320982	-4.1822403456	 1.5533220712	 0.289143
57.7239	68.7429	82.8281	109.8364	145.4203	174.4992	224.3211	255.6983	264.8671	293.0866	307.79	425.3773	476.3866	577.2816	597.9824	732.9963	768.1617	830.4462	911.3411	980.0931	1015.2855	1047.0792	1058.6591	1089.7081	1112.7934	1142.6346	1163.1804	1202.1097	1226.7893	1241.0399	1292.4335	1307.0941	1321.4261	1348.0632	1360.8819	1395.2196	1460.799	1463.4809	1479.6241	1485.7318	1495.3297	1497.0691	1520.3579	1528.5686	2359.629	2900.0582	2954.9248	2962.6182	2989.2526	3027.714	3045.3937	3066.2254	3076.7192	3094.6323	3120.7809	3547.846	3832.4987
CNC(CCCO)C#N	CN[C@@H](CCCO)C#N	
InChI=1S/C6H12N2O/c1-8-6(5-7)3-2-4-9/h6,8-9H,2-4H2,1H3	InChI=1S/C6H12N2O/c1-8-6(5-7)3-2-4-9/h6,8-9H,2-4H2,1H3/t6-/m0/s1
