14
gdb 129481	4.71324	1.03915	0.90205	7.5471	63.17	-0.2776	-0.0149	0.2627	1213.6823	0.102074	-466.193794	-466.185777	-466.184833	-466.227895	27.981	
N	 0.1484079001	 1.2315774489	-0.2727710027	-0.516566
C	-0.0171014723	 0.0225758615	 0.3230570525	 0.412097
O	 0.6588143263	-0.3730075796	 1.2491180848	-0.339749
C	-1.2068812742	-0.787782524	-0.2186264957	-0.269773
N	-0.983871409	-2.2124518357	-0.1171041337	 0.034225
C	-0.6298901377	-2.9951885552	 0.9196438227	 0.076765
N	-0.5674881235	-4.2426097303	 0.5074717073	-0.228939
N	-0.8894740107	-4.2102987736	-0.8138427745	-0.092993
N	-1.140701783	-3.0081892979	-1.2035754263	-0.128136
H	 0.9061577185	 1.8149682121	 0.0451752382	 0.276368
H	-0.326911174	 1.4860311572	-1.1210765209	 0.271846
H	-2.0926546916	-0.5027256013	 0.3613141151	 0.166209
H	-1.4130825531	-0.5834497674	-1.2707023083	 0.154428
H	-0.4139026257	-2.6215930046	 1.9047399116	 0.18422
41.1567	53.4742	133.721	265.3832	281.1645	328.3871	371.5767	497.4571	593.0193	658.2496	670.7076	735.4081	816.6895	853.426	876.3883	971.4811	987.1241	1042.3707	1092.4607	1119.2267	1155.7102	1201.1122	1296.463	1311.0642	1338.8271	1410.0991	1453.262	1477.0278	1513.3377	1625.1335	1812.9951	3046.9699	3126.7153	3316.2741	3599.1177	3732.4561
NC(=O)CN1C=NN=N1	NC(=O)Cn1cnnn1	
InChI=1S/C3H5N5O/c4-3(9)1-8-2-5-6-7-8/h2H,1H2,(H2,4,9)	InChI=1S/C3H5N5O/c4-3(9)1-8-2-5-6-7-8/h2H,1H2,(H2,4,9)
