19
gdb 40142	2.63905	1.50308	1.23176	2.5522	74.78	-0.248	0.0617	0.3097	1083.6531	0.158834	-422.965131	-422.957023	-422.956078	-422.99827	30.798	
C	 0.1509521406	 1.4997457003	-0.1350052074	-0.325917
C	 1.3820541806	 0.6449001353	 0.0681925764	-0.325918
C	 0.0245916193	 0.0157510611	 0.0166156984	 0.221419
C	-0.700888039	-0.7715128463	 1.1000717441	-0.145521
O	-1.1860249839	-1.7062459803	 0.1069119482	-0.318999
C	-0.5291132304	-1.0148740807	-0.9645532618	 0.312538
C	-1.3517565767	-0.6657034024	-2.2189558993	-0.132141
O	-0.3897746919	-1.3158842474	-3.0751993815	-0.275448
C	 0.3338521319	-1.8361572886	-1.9407532895	-0.13214
H	-0.186069346	 2.1236464559	 0.6867603823	 0.118664
H	-0.0092955613	 1.9319880301	-1.1175931746	 0.124006
H	 2.046746425	 0.504342728	-0.7782226232	 0.124006
H	 1.8858847774	 0.6849181284	 1.0287597154	 0.118664
H	-0.0667319607	-1.2642180676	 1.8475849313	 0.105849
H	-1.5238077549	-0.2524561959	 1.6070946538	 0.105849
H	-2.3309680265	-1.1618483818	-2.2309175615	 0.110439
H	-1.4741287513	 0.3967312336	-2.4612051988	 0.102106
H	 1.4041227671	-1.6018773248	-1.9861615548	 0.102106
H	 0.1982434408	-2.9180865069	-1.8134751874	 0.110439
75.8865	76.1503	193.0031	238.8908	268.3502	341.7484	401.1655	493.7946	504.7233	563.006	775.6355	820.829	869.568	892.0063	894.9392	907.3789	938.5705	975.006	996.9414	1022.1685	1028.0812	1056.8563	1068.8281	1081.337	1131.8535	1145.0029	1145.4566	1152.5123	1182.5916	1188.6768	1188.813	1289.2757	1291.6108	1326.9943	1373.7011	1417.0487	1462.9759	1493.0552	1508.3184	1521.8092	1526.0522	3006.8225	3010.753	3019.3144	3054.7055	3063.7084	3063.8449	3124.2539	3127.3482	3202.1634	3216.6982
C1CC11COC11COC1	C1CC21COC12COC1	
InChI=1S/C7H10O2/c1-2-6(1)3-9-7(6)4-8-5-7/h1-5H2	InChI=1S/C7H10O2/c1-2-6(1)3-9-7(6)4-8-5-7/h1-5H2
