18
gdb 18764	3.69635	2.28567	1.72213	1.5491	70.94	-0.2274	0.0739	0.3013	804.7179	0.155462	-347.754024	-347.747554	-347.74661	-347.78445	26.154	
C	 0.0186447021	 1.5102184764	 0.0844069774	-0.231088
C	 1.5794008859	 1.5320643199	-0.0443854457	-0.323072
C	 1.5513175737	 0.0319155357	 0.1789546369	 0.499168
O	 2.501816754	-0.9105417721	-0.2899811164	-0.329894
C	 2.2828686787	-1.7451479909	 0.8797965283	-0.100316
C	 1.3444886355	-0.700999318	 1.5313255283	-0.140177
C	-0.176900373	-0.8573905237	 1.2459408828	-0.251438
C	 0.0043523959	-0.0483638031	-0.0658197547	-0.08884
H	-0.3446929714	 1.8555013081	 1.0559674764	 0.101776
H	-0.5166519652	 2.0537001677	-0.6955799126	 0.107644
H	 1.8900134349	 1.7701922331	-1.0668449366	 0.11361
H	 2.1566328445	 2.147775978	 0.651555204	 0.097037
H	 1.8168701985	-2.7040680113	 0.6196962961	 0.100168
H	 3.2238140479	-1.93281904	 1.408373373	 0.10651
H	 1.6659671946	-0.3003773356	 2.4933959505	 0.073189
H	-0.4977811062	-1.8942150081	 1.1048913322	 0.098726
H	-0.8364857259	-0.3945210089	 1.9862739031	 0.098209
H	-0.4359642043	-0.4244040272	-0.9900527631	 0.068786
113.7597	215.7114	316.6537	354.2126	417.3644	495.8857	640.8393	714.2184	770.5609	805.8593	824.664	851.5437	894.9859	911.1995	924.8702	982.0076	989.3004	1017.2428	1023.3121	1067.4665	1094.4408	1129.0459	1147.4618	1161.8581	1191.4754	1208.9076	1218.3576	1230.4755	1260.9348	1271.2376	1290.5232	1307.0527	1327.4657	1353.4544	1471.9815	1479.4771	1493.912	1517.4675	3014.9695	3042.8052	3047.2421	3065.3742	3065.6797	3087.6826	3095.4498	3103.2499	3104.2196	3126.0015
C1CC23OCC2CC13	C1C[C@@]23OC[C@@H]2C[C@@H]13	
InChI=1S/C7H10O/c1-2-7-5(1)3-6(7)4-8-7/h5-6H,1-4H2	InChI=1S/C7H10O/c1-2-7-5(1)3-6(7)4-8-7/h5-6H,1-4H2/t5-,6+,7+/m1/s1
