15
gdb 67317	3.25536	1.4422	1.21479	3.0052	69.8	-0.2445	0.0205	0.2651	1006.2512	0.112756	-416.717143	-416.709778	-416.708834	-416.748957	28.492	
N	-0.0543904542	 1.3971077704	 0.0171833784	-0.617282
C	 0.0234771428	-0.0075471468	-0.0517241845	 0.298193
C	 0.3388784202	-0.9863526201	 1.1286755234	 0.045127
O	-1.0275363557	-1.0196937406	 1.6186413097	-0.31365
C	-1.1618409019	-1.0074354148	 0.1696351854	 0.059497
C	 0.0621761333	-1.9408286366	-0.0723988826	-0.087727
C	 0.7216874708	-0.9809059491	-1.0888360627	-0.261517
C	 0.2100839455	-0.9623627569	-2.4463716315	 0.260702
N	-0.2227390652	-0.9116615741	-3.518390476	-0.329346
H	 0.8604864963	 1.830103815	 0.0849407605	 0.241508
H	-0.5323783593	 1.7884937898	-0.7879901888	 0.251053
H	 1.1614941029	-0.9789987895	 1.8430161553	 0.107123
H	-2.1560622459	-1.023510547	-0.2731450381	 0.119038
H	 0.070073197	-3.0272583818	-0.064576576	 0.110077
H	 1.8153780634	-0.965802388	-1.0872518725	 0.117203
123.1358	126.7964	235.0409	291.9026	338.1053	402.8842	459.1697	529.6576	616.6378	698.5974	757.3693	761.4816	816.2557	828.6648	861.1753	903.0538	920.5481	926.0883	973.3638	1020.6323	1031.8574	1084.9409	1105.279	1140.5208	1172.5857	1190.8026	1240.245	1274.8104	1296.2145	1344.1714	1412.5521	1653.8795	2344.3808	3073.4364	3129.2358	3143.596	3169.6014	3507.5153	3588.1477
NC12C3OC1C3C2C#N	N[C@@]12[C@H]3O[C@@H]1[C@H]3[C@H]2C#N	
InChI=1S/C6H6N2O/c7-1-2-3-4-6(2,8)5(3)9-4/h2-5H,8H2	InChI=1S/C6H6N2O/c7-1-2-3-4-6(2,8)5(3)9-4/h2-5H,8H2/t2-,3-,4-,5+,6-/m1/s1
