18
gdb 36627	6.28716	0.71964	0.65618	1.8132	79.66	-0.2457	0.0254	0.271	1665.7841	0.147157	-401.9388	-401.929642	-401.928698	-401.97418	32.259	
C	 0.1006413305	-1.2448623832	-0.0668215509	-0.427767
C	 0.0186216236	-0.0457336065	-0.05740093	 0.287168
C	-0.0488076078	 1.4102320597	-0.0431496369	-0.353256
C	 1.3421969086	 2.0532540767	 0.095164945	-0.303041
C	 1.2882827142	 3.5475624296	 0.111285684	 0.429618
N	 0.2475884633	 4.2703737735	 0.0246256557	-0.313115
C	 0.6993869442	 5.6680194561	 0.0864484129	-0.189693
C	 2.2416836624	 5.5758994702	 0.2286530898	-0.112199
O	 2.5021573135	 4.1546654035	 0.2328659093	-0.261414
H	 0.1563107468	-2.3049132616	-0.0769278616	 0.19287
H	-0.5260619161	 1.7769794932	-0.9582472962	 0.147532
H	-0.6874191505	 1.7525049602	 0.778258417	 0.147521
H	 1.83336388	 1.7109331536	 1.0130464404	 0.140409
H	 1.9948790476	 1.7355354705	-0.7258123091	 0.140411
H	 0.3924237762	 6.2005980767	-0.8198483108	 0.117759
H	 0.2291218834	 6.1757481397	 0.9351559799	 0.117759
H	 2.7868131349	 6.0225001974	-0.6076400229	 0.119719
H	 2.6220478852	 5.9975523607	 1.1632833844	 0.119721
50.492	60.3062	90.4774	103.8922	210.368	230.9833	348.3571	376.6965	496.3138	596.2828	616.7926	644.1794	730.6448	761.7289	776.3936	828.5384	923.9958	955.5829	980.5051	1003.5455	1034.4661	1037.9114	1059.2761	1121.3212	1185.8539	1195.1283	1217.0543	1246.7786	1294.1832	1301.1041	1337.8388	1371.54	1416.035	1464.5047	1476.524	1503.3483	1527.4258	1739.3599	2240.6097	3041.0165	3045.0907	3054.1028	3055.6036	3068.5478	3071.0746	3091.8177	3102.6313	3508.1281
C#CCCC1=NCCO1	C#CCCC1=NCCO1	
InChI=1S/C7H9NO/c1-2-3-4-7-8-5-6-9-7/h1H,3-6H2	InChI=1S/C7H9NO/c1-2-3-4-7-8-5-6-9-7/h1H,3-6H2
