19
gdb 35055	2.37189	1.53271	1.46151	1.7866	80.77	-0.2348	0.0475	0.2823	1036.8309	0.160543	-385.847085	-385.839083	-385.838139	-385.879476	31.538	
C	-0.2233477481	-1.2302298443	-0.148322969	-0.480098
C	-0.1073396474	-0.0347346242	-0.076532261	 0.364931
C	-0.0176830284	 1.3925411367	-0.002712839	-0.219539
C	 0.4713113157	 2.1012502718	 1.2638787524	-0.059361
C	 0.9658971205	 1.2861292591	 2.4544213061	-0.233907
C	 2.4608937192	 0.9816797573	 2.3265751163	-0.067733
O	 2.7623626555	 0.4365667546	 1.0542023092	-0.235294
C	 2.6400751032	 1.3900474088	 0.0169218558	-0.1077
C	 1.3141003775	 2.1284446958	 0.013463488	-0.061196
H	-0.305324406	-2.2866092716	-0.2131090816	 0.193923
H	-0.8118030094	 1.9103859744	-0.5340291676	 0.109571
H	-0.0744528075	 3.0071192485	 1.5058214685	 0.092202
H	 0.7834835754	 1.8365937459	 3.3830338107	 0.096113
H	 0.4144272056	 0.3422767942	 2.5198091974	 0.123289
H	 3.0533386922	 1.8974948648	 2.4953090312	 0.082016
H	 2.7748621742	 0.2360278875	 3.0624517352	 0.106425
H	 3.448248994	 2.1381713222	 0.0998433344	 0.087795
H	 2.7869759438	 0.8386323531	-0.9173335719	 0.116711
H	 1.3332088501	 3.0535757354	-0.5554412352	 0.091852
107.7242	115.2428	168.5493	289.0641	342.0904	363.3688	451.6235	491.313	559.4656	581.3215	604.5137	647.4739	724.8103	744.7634	783.6015	814.4087	870.01	926.1589	957.6371	995.0183	1032.5135	1044.5648	1086.084	1092.9835	1113.8442	1141.9782	1155.8786	1228.5553	1255.2264	1273.0437	1322.6527	1351.229	1367.0391	1373.165	1386.9722	1416.1445	1439.5077	1480.4237	1490.9976	1502.0358	2233.7231	2948.1001	2959.5292	3043.4737	3072.3662	3083.1559	3089.9107	3134.3966	3145.767	3161.3372	3505.6891
C#CC1C2CCOCC12	C#C[C@H]1[C@H]2CCOC[C@@H]12	
InChI=1S/C8H10O/c1-2-6-7-3-4-9-5-8(6)7/h1,6-8H,3-5H2	InChI=1S/C8H10O/c1-2-6-7-3-4-9-5-8(6)7/h1,6-8H,3-5H2/t6-,7+,8-/m0/s1
