15
gdb 25571	7.0007	0.73126	0.68018	0.4124	69.74	-0.2132	-0.0388	0.1745	1544.4805	0.112506	-453.965247	-453.956946	-453.956002	-454.0001	28.724	
O	-0.196121887	 0.108213369	 0.3324887946	-0.228635
C	 0.1632409939	 1.2454391715	 0.1866155686	 0.148639
C	 1.3958151497	 1.6521885416	-0.6073505287	-0.250205
N	 1.2037352207	 2.958669984	-1.2269245384	-0.419996
C	 2.2931389262	 3.7798422735	-1.4448838782	 0.408025
C	 2.6807006275	 4.6183066212	-2.4433638427	-0.215139
N	 3.8389829582	 5.2829667044	-2.0447215521	-0.243064
C	 4.094826711	 4.8185984174	-0.8733107853	 0.065821
O	 3.1897172355	 3.8943922821	-0.4246101733	-0.177752
H	-0.377692341	 2.1067957746	 0.6387315074	 0.092609
H	 2.2200691216	 1.7382418585	 0.1099950472	 0.166858
H	 1.653870484	 0.8509794097	-1.3128906843	 0.132681
H	 0.5883921808	 2.9403024427	-2.0281166538	 0.254139
H	 2.2203769442	 4.7918640046	-3.4019958335	 0.115502
H	 4.9158493747	 5.0422539651	-0.2121660477	 0.150515
38.5024	62.7167	69.9573	160.4598	284.0999	337.4951	400.1795	502.8478	622.4004	666.8953	696.131	733.9132	779.8358	788.3546	794.2954	936.4853	977.9013	1052.329	1062.4706	1097.3519	1120.1127	1126.6047	1232.5677	1262.6116	1295.7122	1327.3341	1385.7919	1404.1581	1456.6579	1479.8681	1574.8007	1662.045	1843.7722	2891.532	3018.3331	3084.8086	3268.8393	3287.6315	3596.4153
O=CCNC1=CN=CO1	O=CCNc1cnco1	
InChI=1S/C5H6N2O2/c8-2-1-7-5-3-6-4-9-5/h2-4,7H,1H2	InChI=1S/C5H6N2O2/c8-2-1-7-5-3-6-4-9-5/h2-4,7H,1H2
