23
gdb 40719	3.83467	1.0963	1.02804	0.1084	89.29	-0.2624	0.093	0.3554	1285.3757	0.209032	-351.134224	-351.126478	-351.125534	-351.166604	31.982	
C	-0.2044151005	 1.3869642912	-0.1779769233	-0.275275
C	 1.2426023832	 1.1271237343	 0.1651835817	-0.274666
C	 0.277388472	-0.0260855979	 0.0417226343	 0.014392
C	-0.1534045266	-0.7951849562	 1.2688618518	 0.038027
C	-1.5041091751	-1.5860936118	 1.1224595169	-0.23839
C	-1.015944621	-2.9969895025	 1.5082887751	-0.004911
C	-0.1058017309	-2.7013256819	 2.736323258	-0.227874
C	 0.7614996731	-1.9809906557	 1.6638331624	-0.019656
C	 0.3048316685	-3.1123123294	 0.6956798037	-0.223327
H	-0.8332008205	 1.8304071664	 0.5875122642	 0.107706
H	-0.4463564926	 1.702698005	-1.1868373401	 0.107631
H	 1.9889472381	 1.2652404374	-0.6094027951	 0.107869
H	 1.5822154591	 1.3976783808	 1.1599766261	 0.107624
H	 0.379467199	-0.6273449521	-0.8584671903	 0.07761
H	-0.2156723369	-0.088132456	 2.1056521445	 0.056545
H	-2.2851327841	-1.21261858	 1.7912668615	 0.090578
H	-1.8916766804	-1.545771233	 0.0995302412	 0.093729
H	-1.7569828159	-3.7971761816	 1.5186655506	 0.054075
H	-0.5180369341	-2.1005329013	 3.5536636296	 0.082477
H	 0.3724540654	-3.5999602222	 3.133676566	 0.091538
H	 1.8152657799	-1.7534463848	 1.8289891437	 0.05543
H	 0.8313631807	-4.0520105278	 0.8792864858	 0.092383
H	 0.2726501195	-2.909219151	-0.3786941381	 0.086485
78.4382	143.8479	164.8202	297.4381	375.8335	416.458	455.5694	518.0344	656.3947	764.5021	816.5779	819.2422	834.8331	836.6217	854.5194	863.46	905.2317	927.2439	944.9698	949.001	975.1967	1010.4139	1029.8075	1035.4602	1050.038	1060.2383	1077.9293	1083.4388	1095.9175	1111.673	1137.6156	1169.3398	1197.6337	1207.4017	1225.7178	1230.9002	1240.6762	1248.7879	1274.5539	1289.858	1307.2658	1320.4594	1337.9373	1431.6979	1469.4482	1487.2367	1496.129	1505.7927	1525.3731	3017.0817	3043.2212	3047.0603	3053.8853	3090.0918	3103.4579	3105.5425	3107.6448	3114.3883	3126.333	3130.2359	3135.1608	3203.9608	3219.354
C1CC1C1CC2CC1C2	C1CC1[C@H]1C[C@@H]2C[C@H]1C2	
InChI=1S/C9H14/c1-2-7(1)9-5-6-3-8(9)4-6/h6-9H,1-5H2	InChI=1S/C9H14/c1-2-7(1)9-5-6-3-8(9)4-6/h6-9H,1-5H2/t6-,8+,9-/m1/s1
