16
gdb 85490	2.48199	1.45484	1.08841	2.5175	72.04	-0.2633	0.0164	0.2797	1113.9438	0.123301	-437.860062	-437.85151	-437.850566	-437.893392	31.907	
O	 0.0512474067	 1.3402321601	-0.1726166029	-0.425232
C	 0.0078013147	-0.0418162173	 0.0743686839	 0.111596
C	 0.5218353729	-0.5135363752	 1.4410127933	-0.348132
C	-0.2646863335	-1.7830557995	 1.6637400202	 0.424412
N	 0.0381635926	-2.7277677033	 2.439796157	-0.538491
O	-1.3790276959	-1.7734760753	 0.8559663333	-0.232503
C	-1.4629707384	-0.5337676243	 0.1218465002	-0.131502
C	-2.3745906956	 0.4007270752	 0.7746169607	 0.395687
C	-3.1433607456	 1.1493944952	 1.3136165714	-0.476551
H	 0.9707392724	 1.5987525714	-0.2878333195	 0.293682
H	 0.5124791614	-0.6058287321	-0.7239535549	 0.089906
H	 1.5951817869	-0.6972733212	 1.4943198439	 0.131519
H	 0.2529346355	 0.229739546	 2.1999494111	 0.148414
H	-0.6717776534	-3.4619095684	 2.4062252496	 0.225338
H	-1.8372639107	-0.7811347645	-0.8752288383	 0.124753
H	-3.81912827	 1.8166989131	 1.789503921	 0.207105
80.6033	116.431	146.1344	222.5539	247.7237	307.8628	386.3655	464.7094	502.3354	505.1103	570.752	641.0298	652.039	675.196	722.6916	850.2261	854.9437	897.7871	935.3108	1000.0421	1034.9081	1079.3734	1086.5783	1145.1848	1162.5996	1230.718	1255.5327	1272.6672	1325.8691	1371.1204	1375.4041	1435.516	1470.9114	1787.7735	2241.4315	2994.0751	3059.4208	3076.8429	3135.5168	3470.328	3502.1399	3829.1554
OC1CC(=N)OC1C#C	O[C@H]1C[C]([NH])O[C@H]1C#C	
InChI=1S/C6H7NO2/c1-2-5-4(8)3-6(7)9-5/h1,4-5,7-8H,3H2	InChI=1S/C6H7NO2/c1-2-5-4(8)3-6(7)9-5/h1,4-5,7-8H,3H2/t4-,5-/m0/s1
