20
gdb 8427	3.5614	1.73016	1.71953	1.7746	73.42	-0.255	0.0857	0.3407	897.5102	0.177412	-349.010187	-349.002522	-349.001578	-349.041401	30.783	
C	 0.437443125	 1.2819909113	 0.0311883456	-0.426052
C	-0.1319904981	-0.1479611354	-0.0034313313	 0.315264
C	-1.6639646267	-0.0831791229	-0.0735003481	-0.433646
C	 0.4569511926	-0.9395219662	-1.2176451795	-0.278526
C	 1.619431865	-1.7366461467	-0.66657276	 0.052234
O	 2.5437333374	-0.9637663764	 0.1148304014	-0.256639
C	 1.5520305163	-1.7452471659	 0.7989790573	 0.052243
C	 0.3434281621	-0.9540506478	 1.2503435194	-0.278527
H	 1.5276683977	 1.2651976122	 0.0812290723	 0.138755
H	 0.1401362582	 1.8395265771	-0.8645430125	 0.10288
H	 0.0588820515	 1.829117563	 0.9023480483	 0.102879
H	-1.994650185	 0.4528438521	-0.9703153404	 0.111389
H	-2.1070356677	-1.0848817309	-0.0997886596	 0.10582
H	-2.0758424123	 0.4424205116	 0.7954370858	 0.11139
H	-0.2827591915	-1.6401710755	-1.6253595964	 0.094981
H	 0.7543605099	-0.2725287436	-2.0337820733	 0.105521
H	 2.0662101005	-2.5423584079	-1.244601516	 0.089768
H	 1.9443117945	-2.5579218822	 1.4060858883	 0.089765
H	 0.5642349119	-0.2968603352	 2.0981344033	 0.10552
H	-0.4301891314	-1.6590916604	 1.5801155755	 0.094981
140.6315	241.9415	243.8978	280.2085	340.4455	347.4798	386.752	404.3868	418.2943	612.7595	670.325	784.2942	798.9188	863.2246	884.6997	920.0452	933.5808	940.351	958.8167	995.0202	1013.1175	1037.3289	1043.4708	1110.5574	1163.8091	1187.4473	1213.0321	1227.3994	1263.6718	1304.1093	1306.2427	1338.7491	1341.0857	1396.7286	1417.4348	1450.1595	1475.4439	1478.9609	1490.7901	1494.9919	1503.4214	1517.3449	3019.5499	3023.9227	3026.676	3032.796	3072.1988	3074.3964	3084.3279	3090.4886	3091.5895	3134.1494	3136.2796	3147.0819
CC1(C)CC2OC2C1	CC1(C)C[C@H]2O[C@H]2C1	
InChI=1S/C7H12O/c1-7(2)3-5-6(4-7)8-5/h5-6H,3-4H2,1-2H3	InChI=1S/C7H12O/c1-7(2)3-5-6(4-7)8-5/h5-6H,3-4H2,1-2H3/t5-,6+
