17
gdb 35917	2.78218	1.53975	1.21591	5.8763	72.04	-0.2631	0.0334	0.2965	1038.6869	0.138752	-417.991855	-417.984371	-417.983427	-418.024065	28.629	
N	-0.1694933162	-1.1304868743	-0.4089770037	-0.329662
C	-0.0742748048	 0.0002897811	-0.1918493698	 0.29514
C	 0.0085794636	 1.4429123012	 0.0505857965	-0.170433
C	-0.6952424911	 1.8572345123	 1.3702877837	-0.089585
O	 0.1140728007	 1.6487767069	 2.5001149909	-0.226145
C	 1.2143018842	 2.5373850312	 2.5468548847	-0.085504
C	 2.058857484	 2.4803824562	 1.2906331063	-0.042739
N	 2.4151671782	 1.139145575	 0.8269769291	-0.30132
C	 1.463637237	 1.9306603621	 0.0402251374	-0.053034
H	-0.5273619119	 1.9348138156	-0.7704193872	 0.124263
H	-0.9721200134	 2.9209279987	 1.2837556768	 0.093472
H	-1.6059493068	 1.273013203	 1.5180187114	 0.133239
H	 0.8621070802	 3.5731220802	 2.6943532134	 0.090998
H	 1.8040620587	 2.2463791665	 3.4210180987	 0.124417
H	 2.7885952003	 3.2820451868	 1.1920198884	 0.094341
H	 3.3272742957	 1.130663543	 0.3803986225	 0.240943
H	 1.8030535417	 2.3354484945	-0.9090032089	 0.101609
77.2816	140.7768	219.8447	298.4795	370.0161	373.4789	441.2732	455.8928	591.0815	662.5454	761.0234	779.3216	804.8482	859.9304	886.5061	929.6706	967.1693	978.4714	1051.1104	1068.0534	1096.1598	1115.1356	1146.1689	1171.1187	1210.5541	1249.5819	1275.9327	1286.2118	1320.0864	1351.7789	1374.5012	1405.9807	1425.7179	1462.0512	1483.4044	1494.1747	2361.1629	2960.214	2970.6268	3040.469	3086.7509	3109.4778	3125.0161	3145.1207	3521.0013
N#CC1COCC2NC12	N#C[C@H]1COC[C@H]2N[C@@H]12	
InChI=1S/C6H8N2O/c7-1-4-2-9-3-5-6(4)8-5/h4-6,8H,2-3H2	InChI=1S/C6H8N2O/c7-1-4-2-9-3-5-6(4)8-5/h4-6,8H,2-3H2/t4-,5+,6-/m0/s1
