19
gdb 106924	3.97662	1.14575	1.02093	4.2732	77.15	-0.2538	0.0305	0.2843	1221.3778	0.160066	-419.20583	-419.197413	-419.196469	-419.239094	31.753	
C	 0.4387722279	 1.3638193315	 0.4016967177	-0.387155
C	-0.2208069915	 0.1282250017	-0.2239102143	-0.277203
C	 0.544178045	-0.4038166341	-1.4126097673	 0.317794
C	 0.2904511994	 0.0712172233	-2.7927332466	-0.292257
N	-0.1614161676	-1.2835109121	-2.3665665629	-0.176014
C	 0.7739775545	-2.2818238048	-2.7568512609	 0.433505
N	 0.5025309614	-3.2195939013	-3.5507022223	-0.540301
O	 1.9972700622	-2.0847447753	-2.1559529412	-0.249149
C	 1.9099883483	-1.0400684106	-1.1840080267	-0.159193
H	 1.4458317921	 1.1417371059	 0.7714418717	 0.120885
H	 0.5234964683	 2.1781162646	-0.3254201634	 0.123054
H	-0.1482661602	 1.7290995519	 1.2488249933	 0.124868
H	-0.3115314634	-0.6685313742	 0.5253305271	 0.108781
H	-1.2390095124	 0.3664839896	-0.5476774231	 0.119039
H	-0.5236317126	 0.7621791445	-2.9870374824	 0.130582
H	 1.1200019906	 0.1226716981	-3.4930670681	 0.133857
H	 1.3176135735	-3.8201562152	-3.6727087744	 0.227309
H	 2.7530536957	-0.3579150054	-1.32901037	 0.124351
H	 1.9744048087	-1.4723966379	-0.1775175062	 0.117246
75.027	115.9273	148.01	204.6579	245.9855	343.5931	380.5267	389.3648	485.2217	630.7347	687.6729	719.5476	778.1481	791.3001	825.217	864.8498	887.6596	917.863	961.0457	985.707	1015.0768	1038.1079	1058.7918	1087.2984	1109.3682	1131.8814	1148.1708	1223.4623	1245.0182	1262.8942	1331.744	1357.422	1386.418	1411.391	1417.4104	1484.4633	1499.7844	1506.3737	1508.2251	1524.0795	1785.0971	3025.1457	3031.2323	3035.6344	3076.1071	3082.0569	3103.7716	3113.8644	3114.5432	3207.5242	3500.3817
CCC12CN1C(=N)OC2	CC[C@]12CN1[C]([NH])OC2	
InChI=1S/C6H10N2O/c1-2-6-3-8(6)5(7)9-4-6/h7H,2-4H2,1H3	InChI=1S/C6H10N2O/c1-2-6-3-8(6)5(7)9-4-6/h7H,2-4H2,1H3/t6-,8?/m1/s1
