17
gdb 31880	3.65808	1.02112	0.8369	1.1617	89.3	-0.2076	-0.0164	0.1911	1378.7978	0.135007	-384.700891	-384.692177	-384.691233	-384.734755	32.283	
C	-0.1086993387	 1.5257750545	 0.3538131719	-0.373191
C	-0.0686542237	 0.0487671955	-0.0763887308	-0.307452
C	-1.4193301149	-0.5653103327	-0.209511196	 0.354363
C	-2.1162386413	-1.0832564309	-1.2626300878	-0.250315
C	-3.3748122879	-1.5122043862	-0.7497964939	-0.28196
C	-3.366768126	-1.2270067976	 0.5883831756	 0.207527
O	-2.1680256604	-0.6453795518	 0.9233648986	-0.209706
C	-4.3148932271	-1.4191750757	 1.6066652192	 0.245997
C	-5.1359786151	-1.589723281	 2.4720044994	-0.420664
H	 0.9050116433	 1.923789057	 0.4568307182	 0.115348
H	-0.642973848	 2.1331168792	-0.3828910544	 0.12323
H	-0.6186789145	 1.6347770022	 1.314606886	 0.136853
H	 0.4409808048	-0.0515256291	-1.039860824	 0.115417
H	 0.519762924	-0.5238032792	 0.6522398317	 0.121979
H	-1.768295356	-1.1506295155	-2.281653315	 0.112353
H	-4.186735876	-1.9730830471	-1.2892726939	 0.117513
H	-5.8594683623	-1.7410918716	 3.2341043352	 0.192708
54.4225	115.9823	140.3962	185.5346	217.1715	324.2458	388.3876	455.1721	525.1033	537.0307	560.788	649.8342	677.6085	687.5651	713.0826	787.0541	805.1607	847.3651	950.7341	976.7619	1006.2126	1039.1762	1077.3868	1089.3635	1217.0081	1226.8215	1247.3651	1293.5393	1353.0908	1394.7953	1409.5403	1474.2696	1496.1518	1505.9683	1555.5332	1628.3566	2228.4833	3025.8743	3043.4089	3081.1131	3115.1399	3125.2425	3253.634	3270.2785	3504.162
CCC1=CC=C(O1)C#C	CCc1ccc(o1)C#C	
InChI=1S/C8H8O/c1-3-7-5-6-8(4-2)9-7/h1,5-6H,4H2,2H3	InChI=1S/C8H8O/c1-3-7-5-6-8(4-2)9-7/h1,5-6H,4H2,2H3
