19
gdb 90185	4.04804	1.56064	1.39643	1.4329	78.67	-0.2147	0.0616	0.2763	975.3356	0.161461	-381.938021	-381.931244	-381.9303	-381.968781	28.554	
C	-0.0675186242	 1.5420089427	-0.046419284	-0.402436
C	 0.0250793452	 0.0250052317	 0.0303583466	 0.080608
C	 0.8961720444	-0.634478291	-1.142535617	-0.397659
C	 1.8268581978	-1.3426755961	-0.1927233145	 0.344563
N	 3.0564946468	-2.1772638187	 0.0615501896	-0.429537
C	 2.5078723248	-1.8228596796	 1.4507585481	-0.080878
C	 2.1442830148	-0.399279811	 0.9890209074	-0.009103
N	 0.672105829	-0.4190504274	 1.3322579847	-0.181633
C	 1.0189944289	-1.8559950766	 1.0270720286	-0.040902
H	 0.9268553198	 2.001747235	-0.0542389902	 0.117149
H	-0.5855490562	 1.8548706277	-0.9584817597	 0.115786
H	-0.6142919676	 1.9332304984	 0.8160087923	 0.129035
H	-0.9830077528	-0.4030691589	 0.0186893584	 0.079071
H	 0.3021565797	-1.2958930881	-1.7784303296	 0.104069
H	 1.3824796031	 0.1196623386	-1.7672008093	 0.110678
H	 2.8619551478	-3.1618248466	-0.1443528875	 0.208386
H	 2.9991575936	-2.1640827297	 2.3613190105	 0.089237
H	 2.7644607664	 0.4958275644	 0.982061303	 0.087722
H	 0.294351479	-2.6719992648	 1.0683896727	 0.075847
147.1446	230.83	275.0513	373.0318	434.5873	464.3519	506.7994	644.6856	726.9565	766.7136	797.9013	813.6003	821.6462	859.7102	870.5579	899.1775	912.3381	934.7137	947.9008	1008.4042	1026.6127	1064.753	1086.1789	1105.3542	1112.8386	1115.2411	1155.3538	1159.4163	1191.3969	1211.5833	1238.5671	1246.8038	1283.9875	1291.4639	1318.7888	1348.0811	1367.7065	1408.7467	1490.9167	1495.4915	1507.0205	3035.371	3046.2936	3060.4558	3092.6119	3101.8557	3109.4283	3117.5531	3120.4341	3134.2079	3392.6357
CC1CC23NC4C2N1C34	C[C@H]1C[C@@]23N[C@H]4[C@@H]2N1[C@@H]34	
InChI=1S/C7H10N2/c1-3-2-7-5-4(8-7)6(7)9(3)5/h3-6,8H,2H2,1H3	InChI=1S/C7H10N2/c1-3-2-7-5-4(8-7)6(7)9(3)5/h3-6,8H,2H2,1H3/t3-,4-,5-,6+,7+/m0/s1
