17
gdb 23245	2.77437	1.34841	1.12097	1.3037	72.72	-0.2379	-0.007	0.2309	1120.8945	0.134439	-455.036241	-455.027554	-455.02661	-455.069379	32.732	
C	-0.1774192169	 1.4957117921	 0.0207083913	-0.318951
N	 0.1020660133	 0.06658362	-0.0887758069	-0.081636
C	 0.719997379	-0.5426540583	-1.2321930782	-0.060627
C	 1.4225895609	-0.5003011373	 0.126726566	-0.154112
C	 2.491580064	 0.3299067252	-0.5061370118	 0.385437
N	 3.6715665244	 0.5928652004	-0.1260021005	-0.260121
O	 4.3732002378	 1.2485530513	-1.1748818114	-0.408095
C	 1.8030098764	 0.3559866193	-1.8771340078	 0.028799
O	 2.5417683665	-0.3387648578	-2.8529138874	-0.439916
H	 0.6412886967	 2.1572581797	-0.2893485065	 0.12075
H	-1.0602902416	 1.7241424907	-0.5834606252	 0.130311
H	-0.413742939	 1.7166505326	 1.065434881	 0.131959
H	 0.2501192069	-1.38440677	-1.7276264933	 0.116439
H	 1.5599690849	-1.2605310988	 0.8863317771	 0.111461
H	 5.2546365709	 1.3484147935	-0.799834184	 0.311564
H	 1.4549833708	 1.3295633321	-2.2455538336	 0.086393
H	 3.4187725749	 0.0652837053	-2.8664922788	 0.300346
90.653	148.4047	178.2279	207.6092	271.0927	313.0701	340.4589	394.7066	418.5764	460.1068	475.1245	569.9308	692.2013	737.8226	744.991	871.6976	906.8244	918.4021	959.4146	982.3769	1003.1557	1060.4277	1121.8696	1158.1177	1166.537	1183.1352	1194.5006	1242.9587	1258.0034	1333.335	1369.1069	1392.3052	1407.9516	1454.5215	1489.4309	1506.6576	1772.3328	3011.7791	3021.3524	3088.0413	3115.297	3183.9026	3193.4773	3779.5394	3822.454
CN1C2C1C(=NO)C2O	CN1[C@@H]2[C@H]1[C]([N]O)[C@H]2O	
InChI=1S/C5H8N2O2/c1-7-3-2(6-9)5(8)4(3)7/h3-5,8-9H,1H3	InChI=1S/C5H8N2O2/c1-7-3-2(6-9)5(8)4(3)7/h3-5,8-9H,1H3/t3-,4-,5-,7?/m1/s1
