21
gdb 88168	2.40673	1.4222	1.0773	1.9649	78.44	-0.2449	0.0616	0.3066	1211.494	0.181995	-424.22647	-424.217294	-424.216349	-424.260423	34.954	
C	-0.1518206621	 1.5647517498	 0.1188725088	-0.42419
C	-0.1693964272	 0.0639602704	 0.2535144136	 0.008587
O	 0.9993424745	-0.6471054708	-0.1866510548	-0.312168
C	 0.6730646598	-0.669918865	 1.2086387275	 0.40907
C	 1.6391962159	-0.0130976122	 2.1983371335	-0.291733
C	 1.9596297978	-1.1209214649	 3.22457772	-0.222022
C	 0.6698486049	-1.9566920586	 3.2617122579	-0.246714
C	 0.2514100363	-2.0283429671	 1.7831228066	 0.053535
O	-1.1303177461	-2.2599704417	 1.5639873072	-0.434754
H	 0.8003020025	 1.9871630781	 0.4486181245	 0.123158
H	-0.3102950723	 1.8548204827	-0.9251603203	 0.127315
H	-0.9573446037	 2.0097432553	 0.7136593873	 0.120619
H	-1.1011773902	-0.4196713551	-0.0363457882	 0.104548
H	 2.5220570959	 0.3752394548	 1.685945942	 0.113509
H	 1.1493759892	 0.8307222065	 2.6985941469	 0.106187
H	 2.7928341711	-1.7369227913	 2.866347191	 0.105345
H	 2.2456553437	-0.727732245	 4.2033052903	 0.099683
H	 0.7983161602	-2.9424970606	 3.7188684399	 0.089354
H	-0.1162348321	-1.4284743144	 3.8150211685	 0.106252
H	 0.8521777361	-2.7931488206	 1.2659276771	 0.079583
H	-1.3105736543	-3.1860785603	 1.7506282009	 0.284838
51.556	163.3477	171.7152	199.4823	216.5509	245.5987	288.4187	387.3476	446.2576	474.3339	509.858	552.9618	562.4587	692.3324	779.3008	843.0062	872.064	921.4653	927.5141	948.3102	994.0381	1017.9371	1037.9523	1083.0252	1107.5503	1125.2489	1149.6059	1173.5046	1191.4648	1213.9371	1239.5129	1255.1149	1305.8266	1316.4072	1333.9391	1343.531	1367.1576	1406.9952	1430.8453	1467.389	1478.949	1488.3902	1491.7645	1505.278	1510.2674	2977.169	3034.5641	3036.1972	3036.6631	3041.5846	3088.2328	3096.9974	3097.4923	3107.5981	3117.0195	3135.8701	3827.8274
CC1OC11CCCC1O	C[C@H]1O[C@]21CCC[C@H]2O	
InChI=1S/C7H12O2/c1-5-7(9-5)4-2-3-6(7)8/h5-6,8H,2-4H2,1H3	InChI=1S/C7H12O2/c1-5-7(9-5)4-2-3-6(7)8/h5-6,8H,2-4H2,1H3/t5-,6-,7+/m1/s1
