16
gdb 123454	5.08155	1.00184	0.87269	5.9837	70.48	-0.2509	0.0024	0.2533	1272.5282	0.12625	-434.042641	-434.035083	-434.034139	-434.075626	27.571	
C	-0.0245690156	 1.4189121697	 0.6020877201	-0.360634
C	-0.1377415202	-0.0385868635	 0.1990048328	 0.092522
C	-1.2947007264	-0.5531314091	-0.541825586	-0.180285
O	-0.0573658627	-0.2868832156	-1.2115207435	-0.241944
C	 1.3334319349	 1.9746608683	 0.3086724411	 0.34185
C	 2.2485265374	 2.7051216073	 1.0313712418	-0.163552
N	 3.3344611495	 2.960932097	 0.2484126956	-0.189546
N	 3.1473724721	 2.4263473285	-0.9242764075	-0.113972
N	 1.939811683	 1.8338164156	-0.8974587362	-0.219569
H	-0.7915360245	 1.9939716105	 0.0682451495	 0.127209
H	-0.2336183914	 1.5240853944	 1.6714332454	 0.131093
H	 0.445919339	-0.7372749647	 0.7985892902	 0.112905
H	-1.5626588563	-1.6052900755	-0.4690464786	 0.12837
H	-2.1135728285	 0.120498641	-0.7895880565	 0.12367
H	 2.1876743486	 3.0554594573	 2.049343435	 0.119477
H	 1.5977968511	 1.318852109	-1.6956126132	 0.292406
71.3746	86.8585	132.0681	286.905	301.0575	365.7497	463.5507	637.8519	684.3932	742.3572	754.1691	792.0917	845.2929	867.2262	929.5715	953.867	997.6006	1068.8392	1080.4166	1096.6835	1098.2386	1136.2731	1159.8149	1170.8052	1225.9414	1246.8263	1292.0999	1307.3523	1343.4619	1380.0004	1438.6971	1442.1108	1470.6366	1527.9118	1608.9139	3029.4167	3085.8513	3091.5346	3117.5405	3181.4282	3267.0844	3637.6634
C(C1CO1)C1=CN=NN1	C([C@H]1CO1)c1cnn[nH]1	
InChI=1S/C5H7N3O/c1(5-3-9-5)4-2-6-8-7-4/h2,5H,1,3H2,(H,6,7,8)	InChI=1S/C5H7N3O/c1(5-3-9-5)4-2-6-8-7-4/h2,5H,1,3H2,(H,6,7,8)/t5-/m0/s1
