15
gdb 19500	3.37503	1.97044	1.8172	4.3095	64.38	-0.2504	0.0257	0.2761	788.9711	0.1209	-362.663663	-362.656956	-362.656012	-362.694734	25.029	
N	 0.2993755618	-1.1973844399	-0.0014096776	-0.354661
C	 0.1969348938	-0.0442544173	 0.0108115911	 0.314321
C	 0.0657737765	 1.381526386	 0.0327790268	-0.246311
C	 0.4155044248	 2.2129823019	 1.2765686566	-0.100833
C	 1.2868989711	 1.5709399262	 2.3446190697	-0.254619
C	 2.5470618049	 1.1117757763	 1.5692294994	-0.098448
O	 2.5440069165	 1.8029157091	 0.3056588397	-0.248403
C	 1.2819137706	 2.3209772927	 0.0684275102	 0.112673
H	-0.7785470512	 1.7512788343	-0.5408257143	 0.135777
H	-0.2885937279	 2.9846587684	 1.5624400649	 0.109722
H	 1.5318968652	 2.326815912	 3.0963348137	 0.119232
H	 0.8042989594	 0.7327273236	 2.8539766776	 0.131326
H	 3.4801225157	 1.36430968	 2.0801210893	 0.116631
H	 2.5278640675	 0.0340230301	 1.3878394611	 0.142395
H	 1.2925397712	 3.1632959766	-0.6132923081	 0.121198
122.3677	131.0762	172.4675	332.7312	385.4419	567.9754	636.5727	696.5496	725.3143	741.4863	787.4004	847.2414	909.5545	941.1535	965.9645	983.6403	1021.5091	1046.7964	1091.4181	1128.3047	1150.2473	1197.6492	1224.8648	1246.492	1302.6099	1312.2739	1352.6428	1392.2458	1417.1349	1493.9588	1527.6243	2345.6749	3058.1621	3064.3137	3095.8235	3114.8999	3160.9384	3183.0861	3193.1418
N#CC1C2CCOC12	N#C[C@H]1[C@H]2CCO[C@@H]12	
InChI=1S/C6H7NO/c7-3-5-4-1-2-8-6(4)5/h4-6H,1-2H2	InChI=1S/C6H7NO/c7-3-5-4-1-2-8-6(4)5/h4-6H,1-2H2/t4-,5+,6-/m1/s1
