14
gdb 130701	3.82091	1.06204	0.86193	3.0212	68.62	-0.2249	0.0097	0.2346	1258.3134	0.101402	-432.878276	-432.870112	-432.869168	-432.911783	29.773	
O	-0.1493158223	 0.5220781447	 1.2715445788	-0.417198
C	-0.100703635	 1.4210223191	 0.4631100101	 0.459856
N	-0.6618690975	 1.5215050277	-0.7939384764	-0.29769
N	-0.4237685956	 2.7226838711	-1.4261660661	-0.267794
C	 0.3127592654	 3.3806358555	-0.5859022193	 0.408493
C	 0.8802147012	 4.7441318144	-0.8493542857	-0.449755
C	 0.8725549953	 5.6022721366	 0.3320401254	 0.279193
C	 0.883240298	 6.2793815436	 1.3241279654	-0.432724
N	 0.5562935656	 2.6578790665	 0.5549828093	-0.39123
H	-1.2537529502	 0.8334279413	-1.2244602569	 0.282736
H	 1.9115665594	 4.6457123349	-1.2164992937	 0.160541
H	 0.3018372734	 5.1886797572	-1.6654341893	 0.172619
H	 0.8822420869	 6.895622886	 2.1894863159	 0.210358
H	 1.0223268254	 2.9834692515	 1.3847790424	 0.282595
46.5561	96.4341	171.8058	285.4815	292.6654	332.9479	430.0962	464.2168	509.4828	526.7761	636.5247	655.8732	671.6936	715.101	755.9354	793.1627	941.7814	963.9843	998.3319	1020.6861	1091.089	1209.8795	1237.7619	1273.7553	1332.0689	1387.2666	1454.4158	1481.7339	1646.9128	1861.5181	2244.7543	3013.7622	3084.666	3502.4451	3680.6127	3698.1594
O=C1NN=C(CC#C)N1	O=c1[nH]nc(CC#C)[nH]1	
InChI=1S/C5H5N3O/c1-2-3-4-6-5(9)8-7-4/h1H,3H2,(H2,6,7,8,9)	InChI=1S/C5H5N3O/c1-2-3-4-6-5(9)8-7-4/h1H,3H2,(H2,6,7,8,9)
