19
gdb 23154	2.04338	1.07655	0.7506	2.1129	76.12	-0.2344	0.0031	0.2375	1498.7011	0.158012	-456.262201	-456.252291	-456.251347	-456.297695	35.527	
O	-0.2193594361	 1.4035876575	 0.0016817786	-0.427399
C	 0.0123614824	 0.0011739778	-0.0042681105	-0.084508
C	-1.3602128908	-0.6619059134	 0.000804409	-0.279634
C	-1.3375672779	-2.1695656202	 0.0381151671	 0.34369
N	-0.19662008	-2.7279808566	-0.1287645739	-0.1873
O	-0.2643240144	-4.1292302682	-0.074766648	-0.401599
C	-2.6059236684	-2.9238409694	 0.2295760037	-0.065718
C	-3.4916074623	-2.6288176651	 1.3977003573	-0.238668
N	-3.9242962337	-2.2865491924	 0.0430353074	-0.321622
H	 0.6330830627	 1.846150528	-0.0379508194	 0.287339
H	 0.5767835379	-0.3152097816	-0.8910288828	 0.105915
H	 0.5842377512	-0.3210403983	 0.8773681458	 0.10011
H	-1.9203050883	-0.2747141925	 0.8628001588	 0.122886
H	-1.9083876019	-0.3236856818	-0.8890229593	 0.131573
H	 0.6450076025	-4.3809979269	-0.2652750332	 0.306501
H	-2.5642810581	-3.9476888973	-0.1208826604	 0.12423
H	-4.0309589102	-3.4460224997	 1.8677134796	 0.129101
H	-3.1945214286	-1.8314535461	 2.0739795595	 0.118984
H	-3.818356686	-1.287411514	-0.1125105493	 0.236119
70.7504	81.7257	107.4317	136.7369	215.9955	253.1661	262.3417	292.5719	327.8393	378.9909	406.156	510.7308	618.5727	630.6894	776.1885	810.0718	825.7057	913.4537	966.6772	970.2407	1007.7595	1030.7455	1071.7584	1086.7292	1095.8395	1142.8469	1170.3378	1216.6676	1229.2624	1253.1144	1269.8873	1298.4181	1309.6871	1350.3888	1386.9225	1419.4646	1458.3355	1479.2346	1512.5402	1523.2488	1715.598	3001.2609	3016.0087	3030.7016	3054.9901	3111.0398	3189.6935	3200.4661	3509.0903	3825.5406	3835.5142
OCCC(=NO)C1CN1	OCCC(=NO)[C@H]1CN1	
InChI=1S/C5H10N2O2/c8-2-1-4(7-9)5-3-6-5/h5-6,8-9H,1-3H2	InChI=1S/C5H10N2O2/c8-2-1-4(7-9)5-3-6-5/h5-6,8-9H,1-3H2/t5-/m1/s1
