21
gdb 76208	2.29263	1.3492	1.25023	1.8752	74.88	-0.2456	0.0631	0.3087	1162.7979	0.178268	-461.352086	-461.341582	-461.340638	-461.38625	40.168	
C	-0.1992735958	 1.559965344	-0.0292961648	-0.448954
C	-0.0606645064	 0.0443814397	-0.0390577729	 0.349335
O	-1.3146900892	-0.5946264564	-0.218360823	-0.486481
C	 1.1224603206	-0.4897281458	-0.9117622496	-0.337667
C	 1.9970149251	-0.5945475739	 0.3789193979	 0.36449
C	 2.887798174	-1.8140926951	 0.5567939519	-0.455454
O	 2.7242354065	 0.6030034764	 0.6218582609	-0.463812
C	 0.6776258682	-0.5388188523	 1.1964447583	 0.098229
O	 0.7319432438	 0.1717178155	 2.4025543252	-0.426357
H	 0.7633777278	 2.0342531343	 0.1660782189	 0.151035
H	-0.5726110499	 1.9130979658	-0.9995578745	 0.093926
H	-0.9046259805	 1.8709431866	 0.7469837919	 0.112584
H	-1.7752470564	-0.1551869213	-0.941167877	 0.272682
H	 0.8825864702	-1.4654669165	-1.3411753721	 0.099818
H	 1.5087863723	 0.173929843	-1.6900599065	 0.088518
H	 3.711355428	-1.8036739858	-0.1684643574	 0.103406
H	 3.3199473891	-1.8205172748	 1.5621812447	 0.133515
H	 2.3279520055	-2.7425472489	 0.4081245398	 0.114641
H	 3.443270776	 0.634613967	-0.01856329	 0.274711
H	 0.3120923393	-1.5656393374	 1.3411003226	 0.073092
H	-0.1068751984	 0.0471046561	 2.8574996457	 0.288742
107.6746	204.4989	212.416	219.0317	228.8665	242.1308	245.8688	270.4801	278.9671	313.8124	331.5672	365.3718	404.9731	441.3592	555.6899	586.3021	613.082	759.4316	811.2556	844.5871	909.9691	912.3907	965.5752	976.1854	993.2134	1086.4687	1105.6497	1129.6991	1156.6584	1178.44	1202.515	1215.1271	1245.9966	1280.93	1322.3607	1366.172	1376.4906	1404.0405	1405.9006	1442.7488	1471.0295	1486.7382	1489.2214	1495.0957	1501.0606	3002.6133	3020.9784	3022.0702	3056.4035	3088.7291	3095.684	3113.5734	3120.2816	3147.5809	3800.8642	3803.4523	3821.1347
CC1(O)CC(C)(O)C1O	C[C@@]1(O)C[C@@](C)(O)[C@H]1O	
InChI=1S/C6H12O3/c1-5(8)3-6(2,9)4(5)7/h4,7-9H,3H2,1-2H3	InChI=1S/C6H12O3/c1-5(8)3-6(2,9)4(5)7/h4,7-9H,3H2,1-2H3/t5-,6-/m1/s1
