17
gdb 5739	3.71512	2.13292	1.3906	2.0193	76.98	-0.1869	0.0563	0.2432	895.0999	0.143883	-326.736512	-326.729195	-326.728251	-326.76851	27.069	
C	-0.0856786448	 1.5543113128	-0.0468400097	-0.495014
C	 0.0521927706	 0.0691458109	-0.0759666955	 0.233182
C	-0.1044047572	-0.8468724048	-1.1097939145	-0.204016
C	 0.1381440486	-2.1784322042	-0.6356875791	-0.335607
C	 0.4398476173	-2.0237146771	 0.6962666861	 0.33311
C	 0.8159423896	-2.4243994657	 2.1142326012	-0.37714
C	 0.7388236385	-0.8787813761	 2.4259197065	-0.173453
N	 0.3853934284	-0.6987964784	 1.0095938267	-0.023415
H	 0.8463782953	 2.0537575186	 0.2467637431	 0.122654
H	-0.3564293292	 1.9201949694	-1.0402004707	 0.13372
H	-0.8640805929	 1.8870906511	 0.6515526984	 0.12266
H	-0.3712181723	-0.5791541744	-2.122481874	 0.085337
H	 0.0890081959	-3.0873030674	-1.2141016395	 0.091228
H	 0.0865383545	-3.0309790543	 2.6581318723	 0.121002
H	 1.8090057953	-2.8621542033	 2.2485527027	 0.121012
H	-0.0478740929	-0.578167963	 3.1244267741	 0.122381
H	 1.6838814554	-0.4086694839	 2.7140294219	 0.122358
59.5633	121.8448	179.8367	247.2909	285.6521	507.5613	612.5902	637.4001	637.9455	711.3373	748.3237	792.8229	812.0289	833.7997	901.232	988.4899	1028.8687	1054.1682	1056.3674	1062.7982	1139.2766	1162.4683	1178.1459	1225.3095	1235.1478	1267.7275	1310.9695	1407.156	1420.0547	1437.0483	1479.8953	1488.1777	1504.0828	1511.2775	1542.5386	1593.574	3013.8312	3046.1261	3055.692	3057.3541	3090.4913	3106.0491	3118.303	3229.2349	3257.4151
CC1=CC=C2CCN12	Cc1ccc2CCn12	
InChI=1S/C7H9N/c1-6-2-3-7-4-5-8(6)7/h2-3H,4-5H2,1H3	InChI=1S/C7H9N/c1-6-2-3-7-4-5-8(6)7/h2-3H,4-5H2,1H3
