19
gdb 33075	4.40063	0.80594	0.71324	1.9341	78.61	-0.1983	0.0546	0.2529	1603.8231	0.160136	-419.263164	-419.25402	-419.253075	-419.297647	33.825	
C	-0.0081170501	 1.5652358547	 0.0349117172	-0.380737
C	-0.0873599781	 0.0408138041	-0.0688759916	-0.149847
C	 0.7566970308	-0.5243575137	-1.2253161285	-0.296182
C	 0.7306367457	-2.0172387246	-1.2999483469	 0.290596
C	 0.2272759407	-2.8171544151	-2.2851748542	-0.206824
N	 0.4416177958	-4.1259819647	-1.8544979447	-0.298436
C	 1.0554320889	-4.03048788	-0.6511993135	 0.441086
O	 1.395727706	-5.1473064823	 0.016024212	-0.426506
N	 1.2519472088	-2.798559571	-0.2703083102	-0.41157
H	 1.0229554903	 1.8978520013	 0.2004668815	 0.112787
H	-0.3651333266	 2.0469871575	-0.8827924033	 0.108754
H	-0.6154550972	 1.9409287339	 0.8645046708	 0.10868
H	 0.2521334422	-0.4191858798	 0.8656316844	 0.115021
H	-1.1304123169	-0.2716789444	-0.2039551538	 0.091118
H	 0.4042795833	-0.1102285052	-2.1779025704	 0.09167
H	 1.7943471365	-0.1857531257	-1.101497558	 0.104876
H	-0.2490332564	-2.6014679208	-3.2265263787	 0.122384
H	 0.2086675154	-4.9776496152	-2.3347553328	 0.269921
H	 1.8160439011	-4.8516862292	 0.8332341106	 0.313208
58.9293	87.1436	103.5802	241.4703	254.7151	295.4738	315.8595	371.553	407.5663	462.1874	471.1581	644.129	671.6692	706.3628	734.8627	750.6972	789.1555	874.9964	897.9399	999.6839	1035.2241	1046.7756	1083.0861	1108.5289	1112.1845	1192.7149	1242.7377	1264.0017	1305.4076	1315.4984	1333.7462	1379.379	1385.5832	1410.5515	1474.5829	1492.9884	1498.6531	1510.1572	1567.071	1615.2638	1626.6044	3011.3944	3025.5594	3031.5087	3051.2811	3072.0227	3096.1614	3098.9719	3277.3075	3679.8794	3807.5323
CCCC1=CNC(O)=N1	CCCc1c[nH]c(O)n1	
InChI=1S/C6H10N2O/c1-2-3-5-4-7-6(9)8-5/h4H,2-3H2,1H3,(H2,7,8,9)	InChI=1S/C6H10N2O/c1-2-3-5-4-7-6(9)8-5/h4H,2-3H2,1H3,(H2,7,8,9)
