19
gdb 31968	3.26139	0.97783	0.80946	1.6066	81.94	-0.1798	0.0389	0.2188	1446.4074	0.160521	-419.228425	-419.219048	-419.218104	-419.263396	34.212	
C	 0.5761718232	 0.3424742558	 0.3262651472	-0.326506
N	-0.4421469615	 0.1907501574	-0.7197120918	-0.387196
C	-1.6588977113	-0.3863900226	-0.3267063862	 0.31071
C	-2.9365290212	 0.1252931837	-0.2305674044	-0.231354
C	-3.7976785589	-0.9537720513	 0.1253851122	-0.228336
C	-3.0269625496	-2.0846416966	 0.2619299699	 0.258606
C	-3.3630771318	-3.4847228527	 0.6403684426	-0.184019
O	-2.8402126742	-4.4472997908	-0.2802046802	-0.421053
N	-1.7210944088	-1.7219686763	-0.0136636735	-0.310713
H	 1.4697163161	 0.7968269376	-0.110534463	 0.121823
H	 0.2443593047	 0.9553540801	 1.1784621754	 0.112203
H	 0.8593805794	-0.6411546442	 0.7112029471	 0.125983
H	-0.6204874512	 1.078728715	-1.1706479018	 0.234865
H	-3.2148583715	 1.1560094661	-0.3904592133	 0.081983
H	-4.8632982963	-0.9002340222	 0.2929709516	 0.089335
H	-2.9185723163	-3.7642805425	 1.603991065	 0.112233
H	-4.4537210983	-3.5707710595	 0.749362027	 0.100346
H	-3.1729288563	-4.2076716323	-1.1524134465	 0.279511
H	-0.9720560764	-2.3800220746	-0.1491205273	 0.261579
51.2463	75.9457	124.9526	154.3541	178.0474	286.25	344.9649	389.8323	414.2109	461.707	510.6713	611.5339	648.3996	688.5792	727.5468	767.8019	783.3966	817.9724	961.5792	990.4291	1003.2945	1030.8526	1052.8544	1071.7298	1142.9524	1156.1285	1191.1973	1219.8387	1261.2798	1306.4858	1350.3334	1410.6801	1417.0153	1436.6528	1455.0963	1488.7383	1499.6079	1507.6213	1519.7451	1562.513	1636.9253	2985.0635	3002.2899	3042.4459	3080.3827	3117.3184	3234.6708	3249.8832	3569.9644	3669.288	3798.4342
CNC1=CC=C(CO)N1	CNc1ccc(CO)[nH]1	
InChI=1S/C6H10N2O/c1-7-6-3-2-5(4-9)8-6/h2-3,7-9H,4H2,1H3	InChI=1S/C6H10N2O/c1-7-6-3-2-5(4-9)8-6/h2-3,7-9H,4H2,1H3
