22
gdb 103934	3.19575	1.16443	1.07453	2.2226	83.12	-0.2208	0.0801	0.3009	1266.1424	0.192087	-404.300605	-404.290868	-404.289924	-404.334578	37.139	
C	-0.1260348743	 1.3321546917	-0.065818569	-0.246587
O	 0.1509674032	-0.0495957315	-0.0661917218	-0.281386
C	 0.7149405942	-0.5627035014	 1.1181022739	 0.463734
C	 2.1184217695	-0.0154490061	 1.3827261137	-0.454767
C	-0.1891008928	-0.5694901959	 2.4185828177	-0.347693
C	-0.0716141206	-2.1022072161	 2.4294185989	 0.355709
C	 0.0165195723	-2.9906281695	 3.6308300235	-0.508105
N	-0.7231380161	-2.5307274016	 1.1688317632	-0.365145
C	 0.6949118522	-2.0927695286	 1.1491921936	-0.17357
H	 0.7841567763	 1.9496769443	-0.0659983207	 0.101997
H	-0.6843549836	 1.5421842465	-0.9816480492	 0.126464
H	-0.7435990355	 1.6290208416	 0.7948551475	 0.105039
H	 2.0968673893	 1.0511725181	 1.6258945258	 0.117404
H	 2.5828483659	-0.5375469322	 2.2245679145	 0.116001
H	 2.748885889	-0.1559012986	 0.4985280333	 0.121029
H	 0.283111013	-0.0727035736	 3.2697953381	 0.094825
H	-1.2090417956	-0.2029289365	 2.2852699706	 0.105992
H	-0.9497876372	-3.0586691284	 4.1449246996	 0.12862
H	 0.3172657927	-4.005882908	 3.3488192971	 0.116345
H	 0.7488295769	-2.610955811	 4.3517005927	 0.122692
H	-0.7044194464	-3.5515053475	 1.1545583146	 0.220169
H	 1.4766782678	-2.7537080656	 0.7904420025	 0.081232
95.8308	120.8375	166.5317	199.9004	214.8829	252.0038	311.1524	317.2748	327.9311	370.6006	438.3273	467.2638	545.4636	599.6663	681.9418	777.6006	844.7968	892.1626	908.273	926.3418	928.7423	980.1002	1010.9478	1019.5894	1087.7741	1099.3042	1107.7433	1142.6316	1180.2895	1183.7683	1184.1999	1217.587	1239.3117	1252.559	1309.0906	1359.8215	1399.7485	1407.136	1441.1276	1471.7349	1475.7733	1482.9128	1484.7839	1491.4676	1499.3961	1504.6658	1510.4492	2982.8625	3020.8982	3029.0655	3037.2184	3062.6434	3082.0937	3093.2071	3107.5566	3109.7243	3110.7109	3124.6162	3170.6567	3453.9543
COC1(C)CC2(C)NC12	CO[C@@]1(C)C[C@@]2(C)N[C@@H]12	
InChI=1S/C7H13NO/c1-6-4-7(2,9-3)5(6)8-6/h5,8H,4H2,1-3H3	InChI=1S/C7H13NO/c1-6-4-7(2,9-3)5(6)8-6/h5,8H,4H2,1-3H3/t5-,6-,7+/m1/s1
