13
gdb 129744	3.41454	1.12954	0.88503	2.3421	62.67	-0.2324	-0.0178	0.2147	1206.9332	0.08858	-489.884132	-489.876115	-489.875171	-489.917717	28.338	
N	-0.2962506608	 1.256467279	 0.3211881178	-0.597325
C	-0.1593877748	-0.0821442708	 0.084549977	 0.424181
C	-1.0620653299	-1.0526500345	-0.2695962194	 0.087712
O	-2.3833281373	-0.8450669646	-0.6066783786	-0.23016
C	-3.319946613	-1.1490100072	 0.3441492472	 0.152239
O	-4.4836017612	-1.0083180776	 0.1460954835	-0.2495
C	-0.2949422086	-2.2406429605	-0.3038815386	-0.024935
N	 0.9586724139	-2.0324842099	 0.0115985505	-0.154025
O	 1.0407626777	-0.635730696	 0.2587493734	-0.20963
H	 0.5545920976	 1.7940612348	 0.2374066916	 0.276683
H	-1.090492494	 1.6830610323	-0.1337272558	 0.278565
H	-2.8553690541	-1.5255518467	 1.2732455653	 0.099635
H	-0.6201908455	-3.2419515483	-0.5501979039	 0.146559
41.7901	134.6743	145.4666	253.1567	269.1782	304.1329	422.1281	463.1464	506.7078	571.0811	632.4202	711.6934	741.6654	849.0177	876.3884	911.4058	940.382	1047.2596	1069.1208	1113.8393	1190.7473	1252.5054	1361.6121	1401.5589	1437.6441	1549.1191	1632.6381	1697.8126	1882.2817	2984.3011	3242.2801	3569.424	3675.4306
NC1=C(OC=O)C=NO1	Nc1c(OC=O)cno1	
InChI=1S/C4H4N2O3/c5-4-3(8-2-7)1-6-9-4/h1-2H,5H2	InChI=1S/C4H4N2O3/c5-4-3(8-2-7)1-6-9-4/h1-2H,5H2
