21
gdb 101260	2.15574	1.18032	0.86604	1.3669	85.22	-0.2417	0.0491	0.2908	1397.1208	0.179992	-387.042726	-387.032375	-387.031431	-387.078072	38.278	
C	 0.1867530337	 1.4114101274	 0.229395938	-0.394839
C	-0.1515139952	-0.0690945037	 0.0063385818	 0.006937
C	-1.6630656074	-0.2920990896	-0.0889056231	-0.076716
O	-2.2602592376	 0.1718848275	 1.1140337571	-0.425212
C	 0.5338093433	-0.6064516926	-1.234749984	 0.004802
C	 1.9613351792	-1.0637675772	-1.1964720715	-0.308929
C	 0.8556425064	-2.0912619846	-1.3994501451	-0.205423
C	 0.5487609639	-3.0376062693	-0.3672581507	 0.337337
C	 0.2834723209	-3.8429695572	 0.487120071	-0.474529
H	 1.2642492135	 1.5526585263	 0.3581460638	 0.109084
H	-0.1294643433	 2.0181842479	-0.6280365096	 0.104095
H	-0.325477414	 1.7903742473	 1.1160607173	 0.134628
H	 0.1981396057	-0.6442216932	 0.872407647	 0.092345
H	-2.0595499804	 0.2529828845	-0.9633901783	 0.074701
H	-1.8606578875	-1.3625399751	-0.2429640239	 0.099143
H	-3.2043449662	-0.0017176404	 1.0662427481	 0.285934
H	 0.2213971785	-0.1224410507	-2.1581846628	 0.086702
H	 2.6103051843	-0.8535242484	-2.0392015009	 0.116748
H	 2.4592588045	-1.0744486976	-0.2330526497	 0.127613
H	 0.7553284677	-2.4822068375	-2.4079469018	 0.110717
H	 0.0562101601	-4.5514893637	 1.2443141773	 0.19486
63.4958	90.2306	131.9062	166.8346	219.7012	224.2276	234.4611	265.6294	302.9723	396.7004	414.4926	476.3197	532.7861	578.2486	632.3949	648.8723	774.4808	793.4139	847.6967	891.2155	930.8675	957.5448	990.0339	1006.0125	1072.1282	1075.9574	1102.8966	1127.2975	1139.3256	1169.0147	1187.4256	1228.0398	1257.2561	1267.786	1313.1117	1360.6764	1377.4571	1399.588	1427.3489	1459.1774	1487.4113	1493.1115	1504.5124	1518.9849	2232.0623	2949.7266	3013.7527	3029.4676	3043.5601	3095.1591	3123.7409	3131.9669	3135.8525	3145.7287	3224.9946	3505.0144	3837.2491
CC(CO)C1CC1C#C	C[C@@H](CO)[C@H]1C[C@H]1C#C	
InChI=1S/C8H12O/c1-3-7-4-8(7)6(2)5-9/h1,6-9H,4-5H2,2H3	InChI=1S/C8H12O/c1-3-7-4-8(7)6(2)5-9/h1,6-9H,4-5H2,2H3/t6-,7+,8+/m0/s1
