21
gdb 112901	2.37126	1.29239	1.05504	3.8536	74.52	-0.2432	0.0601	0.3033	1241.2176	0.182103	-461.366209	-461.356644	-461.355699	-461.400753	35.883	
C	 0.6739988759	 1.39830536	 0.1535245482	-0.395247
C	 0.0596548614	 0.007000405	 0.0295828305	 0.154981
C	 0.5073482966	-0.77715199	-1.2236216058	-0.283327
C	 1.657812385	-1.6547029909	-0.7063756585	 0.080657
O	 2.8936365514	-0.9514025112	-0.6337903963	-0.428334
C	 1.1788971986	-1.9608913258	 0.7156637288	 0.118325
C	 2.251035379	-2.2597240497	 1.7561961945	-0.071087
O	 1.6667749925	-2.4585256758	 3.0314344325	-0.429775
O	 0.4719155546	-0.7943971006	 1.1483042764	-0.309172
H	 1.7625488195	 1.3359072306	 0.0784390539	 0.131601
H	 0.2986282759	 2.0578647061	-0.6366675195	 0.105003
H	 0.4138415602	 1.8405367742	 1.1194838596	 0.121023
H	-1.0349022075	 0.0881824678	 0.0602397965	 0.074174
H	-0.3025967237	-1.4150934515	-1.5919101077	 0.107345
H	 0.8178356243	-0.1245791966	-2.04500773	 0.096421
H	 1.7743966147	-2.5769294639	-1.2915726866	 0.071349
H	 3.1480916563	-0.7050212205	-1.5282953137	 0.286087
H	 0.480967124	-2.8128479408	 0.6766405628	 0.071217
H	 2.7766389555	-3.185018594	 1.4975977318	 0.100913
H	 2.9811552257	-1.4412688221	 1.76355391	 0.107834
H	 1.11881239	-1.6813664104	 3.1918195925	 0.29001
56.1715	103.5641	134.5064	181.66	259.8361	291.5896	311.9285	330.7658	382.9109	410.5662	440.4839	460.3779	508.1812	717.8351	788.9623	795.2213	832.5741	886.7309	912.2146	949.3632	992.9515	1033.6382	1050.7868	1075.4489	1103.586	1106.9261	1129.7663	1158.8279	1205.9647	1219.0692	1235.7121	1283.1101	1316.7869	1338.4405	1358.2921	1373.3763	1387.8465	1399.6337	1409.9455	1426.0216	1441.2918	1478.7478	1491.5094	1499.2339	1502.7077	2972.1161	3009.0067	3011.5621	3031.4897	3037.611	3053.5198	3084.6495	3096.6284	3108.3423	3131.1468	3798.6077	3824.2999
CC1CC(O)C(CO)O1	C[C@H]1C[C@@H](O)[C@@H](CO)O1	
InChI=1S/C6H12O3/c1-4-2-5(8)6(3-7)9-4/h4-8H,2-3H2,1H3	InChI=1S/C6H12O3/c1-4-2-5(8)6(3-7)9-4/h4-8H,2-3H2,1H3/t4-,5+,6+/m0/s1
