17
gdb 123571	3.89053	1.56937	1.22506	1.9753	77.83	-0.2224	0.0244	0.2469	997.6624	0.14067	-380.884793	-380.878322	-380.877378	-380.915385	26.823	
C	-0.0348828499	 1.4552505575	 0.0999283621	-0.280453
C	 1.2902569281	 0.7467985357	 0.014453458	-0.026665
C	 2.069806821	 0.4768462875	 1.3205629529	-0.381415
C	 1.1284756543	-0.4168435652	 2.0819268762	 0.219118
C	 0.9594767608	-1.0980257647	 3.2634401722	-0.212093
N	-0.2197377621	-1.7741720518	 3.130251894	-0.18837
N	-0.8385395608	-1.5724777564	 1.9391414189	-0.347346
C	-0.0109684033	-0.7474080527	 1.316282905	 0.356225
C	-0.0131800974	-0.059385437	 0.005776476	-0.170092
H	-0.3368322425	 1.898549834	 1.0437220036	 0.115588
H	-0.3606975629	 2.0029195131	-0.7783727344	 0.110836
H	 1.8623085861	 0.8642352699	-0.8984684956	 0.085801
H	 3.022904874	-0.0203388416	 1.1019710273	 0.111259
H	 2.3135664446	 1.4083634713	 1.8451094335	 0.112036
H	 1.5504350787	-1.1811947197	 4.1621545229	 0.130044
H	-0.6456989416	-2.3946284696	 3.7968654583	 0.270179
H	-0.3913340169	-0.5458751304	-0.884833711	 0.095346
159.6139	233.3222	336.7542	417.7014	439.0411	458.5689	596.6143	649.3114	693.9716	740.7535	769.5061	778.5038	794.4992	816.3723	883.7777	966.0034	971.3154	988.2472	1033.637	1054.6193	1067.6971	1082.7839	1098.4447	1140.5079	1182.7799	1187.2654	1204.2305	1271.0772	1310.0507	1324.3404	1359.0855	1427.8105	1469.7935	1480.2722	1492.9536	1522.0329	1629.0397	3024.6988	3053.8645	3123.4802	3175.7416	3188.7482	3211.8247	3256.1051	3680.3356
C1C2CC3=CNN=C3C12	C1[C@H]2Cc3c[nH]nc3[C@@H]12	
InChI=1S/C7H8N2/c1-4-2-6(4)7-5(1)3-8-9-7/h3-4,6H,1-2H2,(H,8,9)	InChI=1S/C7H8N2/c1-4-2-6(4)7-5(1)3-8-9-7/h3-4,6H,1-2H2,(H,8,9)/t4-,6+/m1/s1
