19
gdb 95987	2.33738	1.55979	1.19388	3.1966	71.59	-0.2386	-0.0214	0.2171	1115.7384	0.157355	-460.180768	-460.171318	-460.170374	-460.215619	33.44	
C	-0.1200794572	 1.5586563739	-0.244857253	-0.424288
C	 0.03002208	 0.0593628883	-0.0565343557	 0.118588
O	 0.9522974246	-0.4387236946	-1.0148948069	-0.25759
C	 1.4834725618	-1.6448319364	-0.5151341543	 0.027573
O	 1.1632993439	-1.7237182148	 0.866177309	-0.253693
C	 0.644162376	-0.4713507263	 1.2656358988	-0.026026
C	 1.7525273883	 0.4371996776	 1.8235549562	 0.38283
C	 1.3539013357	 1.3985966344	 2.9263081751	-0.490027
O	 2.8801608432	 0.3637812016	 1.3974872419	-0.298384
H	 0.8414298147	 2.0663378047	-0.1325823406	 0.141917
H	-0.4960488884	 1.7639808656	-1.2504079947	 0.13765
H	-0.8349328032	 1.9721278183	 0.473152944	 0.118759
H	-0.9492609678	-0.4315012073	-0.179959507	 0.078177
H	 1.0351257346	-2.5190034826	-1.0111429278	 0.096999
H	 2.5685827203	-1.6285712384	-0.6667907661	 0.122668
H	-0.1236321897	-0.6441832711	 2.0271748633	 0.092481
H	 1.147587489	 0.8307715349	 3.8419904392	 0.14832
H	 2.1632966856	 2.1043770692	 3.1165117246	 0.147146
H	 0.4347900285	 1.938218293	 2.6748649638	 0.136899
68.2194	80.5935	122.2138	129.2871	169.7602	255.059	270.1583	320.3915	349.8473	464.2738	552.273	603.6814	677.6439	748.3596	848.8043	869.3116	902.7518	942.8741	992.1431	1019.2684	1061.0821	1087.671	1122.8908	1146.3914	1148.9366	1171.0828	1188.556	1217.236	1267.2396	1330.7117	1369.5074	1379.6838	1397.0467	1416.5348	1436.3192	1461.434	1474.0465	1485.2105	1506.2041	1543.8089	1819.0225	2964.4404	2987.2383	3034.0578	3046.8791	3059.9419	3061.0957	3096.038	3120.0484	3130.5833	3152.962
CC1OCOC1C(C)=O	C[C@H]1OCO[C@H]1C(=O)C	
InChI=1S/C6H10O3/c1-4(7)6-5(2)8-3-9-6/h5-6H,3H2,1-2H3	InChI=1S/C6H10O3/c1-4(7)6-5(2)8-3-9-6/h5-6H,3H2,1-2H3/t5-,6+/m1/s1
