17
gdb 59191	3.71836	1.01879	0.97384	3.2049	69.45	-0.2603	-0.0146	0.2458	1250.5062	0.133465	-458.894862	-458.886255	-458.88531	-458.928368	31.998	
C	 0.0512568733	 1.5060869931	-0.078865956	-0.412529
C	 0.0197275663	-0.0110016508	 0.10310811	 0.093448
O	 0.6712330259	-0.4114221989	 1.3060256963	-0.430044
C	-1.4045891692	-0.5621825278	 0.0766114656	-0.003838
C	-2.0926948555	-0.7851900359	-1.3024778101	-0.10209
O	-1.1852073314	-1.9402314863	-1.5343217495	-0.300644
C	-1.5568184308	-2.0988860051	-0.1003750931	-0.095364
C	-3.0010568524	-1.8397986671	-0.6081995698	 0.477074
O	-4.1054793063	-2.2680645607	-0.5866844517	-0.306804
H	 1.0812652534	 1.8680462603	-0.0245161242	 0.132615
H	-0.3687797673	 1.8004697233	-1.0458371405	 0.123151
H	-0.5309198212	 2.0084759873	 0.7044393015	 0.108227
H	 0.5889495754	-0.4903656701	-0.6968552311	 0.115217
H	 0.2776579944	 0.0802030802	 2.0358691075	 0.278157
H	-2.0323246492	-0.1063448758	 0.8532990989	 0.08237
H	-2.2613581582	-0.0989344566	-2.1297460488	 0.11634
H	-1.0982055673	-2.9121116891	 0.456156135	 0.124716
78.8614	121.1896	130.7364	228.997	253.1208	296.4986	341.3147	397.0773	470.7221	505.8873	547.884	673.1083	783.4967	787.6695	798.0517	861.98	896.7368	926.3081	970.0869	992.2402	1062.5787	1065.9313	1104.8763	1129.9051	1139.0186	1157.0814	1180.4052	1190.7581	1250.3165	1271.9951	1325.9426	1403.2716	1408.6922	1426.5756	1490.2302	1495.2179	1939.7254	3023.3665	3031.6355	3084.4144	3104.509	3121.8596	3151.8341	3168.5858	3793.8576
CC(O)C1C2OC1C2=O	C[C@@H](O)[C@H]1[C@H]2O[C@@H]1C2=O	
InChI=1S/C6H8O3/c1-2(7)3-5-4(8)6(3)9-5/h2-3,5-7H,1H3	InChI=1S/C6H8O3/c1-2(7)3-5-4(8)6(3)9-5/h2-3,5-7H,1H3/t2-,3-,5+,6-/m1/s1
