18
gdb 125999	2.72767	1.52665	1.04634	5.1631	79.69	-0.2374	0.0127	0.2501	1162.1292	0.148461	-398.104411	-398.095984	-398.09504	-398.138043	30.563	
C	-0.2410601373	 1.5579054662	 0.0468095058	-0.398108
C	-0.0225389482	 0.0514566668	-0.0170266849	-0.16596
C	 1.1439834523	-0.4566513056	-0.9628103676	-0.184872
N	 1.7477321439	-1.004277604	 0.2700329137	 0.088096
N	 2.7342758078	-1.6889172192	 0.8602274885	-0.190798
N	 2.3862014891	-1.7122078539	 2.1301560758	-0.23593
C	 1.1955245434	-1.0605342008	 2.350451068	 0.127473
C	 0.6043832905	-0.96274913	 3.7177376749	-0.505804
C	 0.7873344642	-0.6002049199	 1.1125900591	 0.285563
H	 0.6993955894	 2.0852141175	 0.2342890004	 0.130754
H	-0.6648767917	 1.9300001165	-0.8915171704	 0.12484
H	-0.9359706643	 1.8123717515	 0.8528247888	 0.132579
H	-0.9642076366	-0.466168779	-0.2218723584	 0.105948
H	 0.8759781036	-1.2212380972	-1.6945399613	 0.141726
H	 1.7444588874	 0.3273321914	-1.4295307301	 0.139819
H	 0.5277909069	 0.0761387289	 4.0567509978	 0.1279
H	-0.4008981332	-1.3956664949	 3.7590993996	 0.126991
H	 1.2395758424	-1.5044316241	 4.4216907703	 0.149782
60.6647	108.7265	126.2341	201.987	248.2912	293.2929	334.9803	432.3421	492.9777	635.9839	666.6867	697.7739	724.915	778.3331	866.6373	915.0698	989.2429	1031.4767	1065.687	1080.8869	1086.9615	1127.2361	1162.9324	1177.3223	1203.5494	1223.8098	1268.9588	1287.5875	1328.3505	1368.7173	1413.1848	1415.8176	1473.918	1487.2236	1493.0027	1494.0366	1498.5401	1518.5321	1595.9621	3035.477	3037.2928	3065.5818	3073.4874	3086.0248	3108.4714	3113.849	3133.111	3135.9233
CC1CN2N=NC(C)=C12	C[C@H]1Cn2nnc(C)c12	
InChI=1S/C6H9N3/c1-4-3-9-6(4)5(2)7-8-9/h4H,3H2,1-2H3	InChI=1S/C6H9N3/c1-4-3-9-6(4)5(2)7-8-9/h4H,3H2,1-2H3/t4-/m0/s1
