19
gdb 10886	2.38434	2.12149	2.03725	1.8747	72.82	-0.1961	0.0735	0.2696	860.9751	0.164042	-364.982941	-364.974605	-364.97366	-365.014947	31.978	
C	 0.023079522	 1.5171809484	-0.0454352711	-0.338427
N	 0.0359738801	 0.0540573892	 0.0141260799	-0.134418
C	-1.1134845624	-0.7040936732	 0.6406651128	-0.085771
C	-0.1477851791	-1.9177649283	 0.6666578472	-0.250007
C	 0.6451214291	-0.6871682728	 1.2038753371	 0.308911
C	 2.0953988968	-0.5771384334	 1.5734215472	-0.523306
C	-0.6048617871	-0.4009228871	 2.0900938375	 0.110362
O	-0.6963261071	 0.8716685809	 2.6766821226	-0.432802
H	 1.0376541906	 1.8535274828	-0.2882827486	 0.111626
H	-0.6171644354	 1.8082823792	-0.886597312	 0.108878
H	-0.3130641357	 2.0395502827	 0.853724583	 0.123842
H	-2.1269493652	-0.6578862288	 0.2374876632	 0.07302
H	-0.3609552218	-2.7275956221	 1.3671598827	 0.088019
H	 0.167067725	-2.2623393339	-0.316380974	 0.108026
H	 2.7295367034	-0.8008319419	 0.7099450241	 0.128849
H	 2.3318987697	 0.432304577	 1.9251778363	 0.13302
H	 2.3426395583	-1.2796997606	 2.3758833772	 0.121439
H	-0.8364084455	-1.1806876934	 2.8321732993	 0.062794
H	-1.5548309255	 0.9442217352	 3.1051570255	 0.285943
142.6611	180.2556	194.1213	206.8912	241.2272	296.754	333.6331	380.819	431.8796	527.7388	646.5176	677.17	729.5113	751.8642	785.2478	877.7239	894.2276	954.3233	998.6864	1030.4698	1081.6286	1114.6488	1149.5204	1155.3881	1166.2259	1176.8973	1188.1855	1209.0951	1225.2114	1254.2644	1283.1057	1346.733	1407.5673	1432.3861	1451.6777	1481.8797	1486.5067	1491.2195	1504.3382	1519.3276	2970.5012	3022.457	3035.0027	3078.8383	3079.6086	3098.5894	3104.8353	3108.8473	3110.3344	3169.1991	3820.215
CN1C2CC1(C)C2O	CN1[C@H]2C[C@]1(C)[C@H]2O	
InChI=1S/C6H11NO/c1-6-3-4(5(6)8)7(6)2/h4-5,8H,3H2,1-2H3	InChI=1S/C6H11NO/c1-6-3-4(5(6)8)7(6)2/h4-5,8H,3H2,1-2H3/t4-,5-,6+/m0/s1
