21
gdb 78639	3.11918	1.52546	1.17588	0.996	90.19	-0.2044	-0.0272	0.1772	1125.74	0.182005	-349.86378	-349.855611	-349.854667	-349.895691	33.339	
C	-0.5941912238	 1.2983912595	 0.1896061658	-0.397762
C	 0.1480721986	-0.032753688	 0.1573936309	-0.031669
C	 1.0064127686	-0.1923925405	-1.1614531599	-0.096679
C	 2.2439495551	 0.3430110699	-0.4935242422	-0.143604
C	 1.5504777155	-0.1365475349	 0.7944651551	 0.031743
C	 1.9468033543	-1.3837731632	 1.1226363267	-0.116513
C	 2.7471676837	-1.98310711	-0.0234420143	-0.308626
C	 2.386059834	-0.9867905502	-1.1471076942	 0.318096
C	 3.0436338152	-1.1512861381	-2.4988934992	-0.487133
H	 0.0734151845	 2.1310694119	-0.0530830913	 0.117325
H	-1.421851245	 1.3039932173	-0.5289050657	 0.109863
H	-1.01426183	 1.4781767216	 1.1844123401	 0.118194
H	-0.528182672	-0.8543075917	 0.4182129155	 0.069622
H	 0.626148658	 0.1122522937	-2.1350310589	 0.082297
H	 2.7974644418	 1.2573466344	-0.6651953041	 0.082113
H	 1.3440554693	-2.0286908018	 1.7570768498	 0.091898
H	 3.8412413243	-2.0375500074	 0.086376887	 0.10262
H	 2.3990251263	-3.0096431635	-0.198658103	 0.104216
H	 2.7109992465	-2.070301393	-2.9950609703	 0.119046
H	 2.8220203358	-0.3126475178	-3.1657838054	 0.117505
H	 4.1332675894	-1.2109895381	-2.3912617721	 0.11745
178.0015	203.4713	226.2938	231.805	254.5891	335.4622	361.2712	406.0076	454.2781	569.0028	645.9165	692.698	743.7639	799.699	810.8475	842.8044	862.1587	878.3765	896.696	938.3672	961.2914	1009.2112	1025.4937	1061.4151	1067.5961	1082.9038	1094.4541	1111.5593	1149.8093	1180.9043	1212.0185	1224.459	1237.8315	1280.7118	1302.2	1364.5573	1373.6295	1406.1595	1412.9761	1474.9099	1488.9912	1492.0008	1493.6023	1498.3605	1586.2218	2984.1589	3023.3611	3028.7386	3037.1579	3042.2998	3080.3725	3094.6706	3100.6421	3108.9235	3122.0257	3155.2697	3188.4081
CC1C2C3C1=CCC23C	C[C@H]1[C@H]2[C@H]3[C]1[CH]C[C@@]23C	
InChI=1S/C9H12/c1-5-6-3-4-9(2)7(5)8(6)9/h3,5,7-8H,4H2,1-2H3	InChI=1S/C9H12/c1-5-6-3-4-9(2)7(5)8(6)9/h3,5,7-8H,4H2,1-2H3/t5-,7+,8-,9+/m1/s1
