17
gdb 105342	2.52042	1.45808	1.13476	3.2752	71.9	-0.255	0.0165	0.2715	1098.9779	0.136265	-417.960044	-417.951707	-417.950763	-417.993104	31.165	
O	 0.109547815	 1.4054560117	-0.1820842212	-0.414112
C	 0.0688157658	 0.0217017252	 0.0866709457	-0.123765
C	-1.3646356739	-0.5396319176	-0.0006786305	 0.105066
C	-2.0758934343	-0.5679741518	-1.396748356	-0.203262
N	-2.3469303288	-2.0445778914	-1.3028682567	-0.116987
C	-1.0263075163	-2.6874663516	-1.2329232606	-0.252459
C	-1.5598578445	-2.0670044015	-0.0040614581	-0.069745
C	-2.1791830902	 0.1263126728	 1.0115154845	 0.242947
N	-2.7742528219	 0.693953595	 1.824985407	-0.344072
H	-0.3438393968	 1.865807002	 0.5338404601	 0.301694
H	 0.6872318796	-0.4553447464	-0.6771299569	 0.118226
H	 0.4975027036	-0.2271320696	 1.0689806673	 0.110673
H	-3.0103323791	-0.0089079203	-1.4263922801	 0.143637
H	-1.445448182	-0.2771549045	-2.2422472808	 0.124888
H	-1.079833563	-3.7701919725	-1.2906283485	 0.135925
H	-0.1902895886	-2.2480289825	-1.771421883	 0.121636
H	-1.8865195846	-2.6409505069	 0.855996838	 0.119709
88.4991	134.1117	162.1923	177.2211	255.2559	372.8208	398.0967	408.0214	499.6587	508.9493	574.3014	667.7189	750.9222	782.8871	844.5505	908.9153	940.0626	965.6698	990.5777	1055.0239	1082.2075	1100.0433	1107.2195	1121.3149	1136.9169	1172.0651	1206.6013	1235.52	1272.9615	1285.8403	1365.8806	1384.0999	1419.6512	1490.8452	1496.0863	1512.2138	2346.4877	2997.3546	3063.1184	3100.5438	3113.196	3143.6422	3175.5017	3202.787	3796.0669
OCC1(CN2CC12)C#N	OC[C@]1(CN2C[C@@H]12)C#N	
InChI=1S/C6H8N2O/c7-2-6(4-9)3-8-1-5(6)8/h5,9H,1,3-4H2	InChI=1S/C6H8N2O/c7-2-6(4-9)3-8-1-5(6)8/h5,9H,1,3-4H2/t5-,6+,8?/m0/s1
