13
gdb 24549	4.06604	1.75343	1.22511	1.8728	74.77	-0.2324	-0.0836	0.1488	913.6544	0.093309	-415.654731	-415.648926	-415.647981	-415.684829	23.073	
O	-0.0358205437	 1.2936009376	 0.0097421607	-0.169766
C	 1.1197091425	 1.9850969374	 0.0019196689	 0.116382
N	 2.3099619603	 1.4966125364	-0.0125744445	-0.273251
C	 2.4588820938	 0.1303794773	-0.0213805825	-0.110907
C	 1.3723843738	-0.6935713833	-0.0149644882	 0.21906
C	 1.0471668048	-2.0851861379	-0.0191809149	-0.306831
C	-0.3261342208	-2.1228999575	-0.0057157182	-0.028305
N	-0.9472399141	-0.8642592612	 0.0072554553	-0.354485
C	 0.059235206	-0.0523319913	 0.0015722621	 0.384387
H	 0.9357019555	 3.0525037369	 0.0094708331	 0.15927
H	 3.4832717939	-0.2294399524	-0.0335189272	 0.134975
H	 1.7307877197	-2.919309481	-0.0304661038	 0.110866
H	-0.9530445817	-3.004995211	-0.004207451	 0.118606
203.6815	252.6895	366.7213	452.4696	548.3274	578.8267	626.2283	627.1304	746.1685	754.4657	792.7091	881.3953	909.2745	915.9	925.4357	980.1816	1069.0455	1098.5345	1134.4458	1171.8193	1240.5004	1281.5127	1366.2144	1395.6889	1423.3401	1476.8725	1565.696	1613.0209	1667.5483	3180.0853	3224.9435	3225.4279	3261.7018
O1C=NC=C2C=CN=C12	o1cncc2ccnc12	
InChI=1S/C6H4N2O/c1-2-8-6-5(1)3-7-4-9-6/h1-4H	InChI=1S/C6H4N2O/c1-2-8-6-5(1)3-7-4-9-6/h1-4H
