18
gdb 116610	3.3357	0.99418	0.84416	2.2078	77.45	-0.2559	0.0043	0.2602	1414.6537	0.146215	-439.05122	-439.042267	-439.041323	-439.086152	31.964	
C	-0.2851286634	 1.5053795766	 0.0308364936	-0.360636
C	-0.0456129169	-0.0027197952	 0.1074058096	-0.152369
N	 0.5380584534	-0.3563943125	 1.3990919504	-0.340199
C	 0.0597537322	-1.2950681113	 2.0655640407	 0.408354
O	-0.9943439469	-2.172635676	 1.8035503225	-0.281893
C	-0.8536215141	-2.832148945	 3.0992958869	-0.153131
C	 0.3475753804	-1.9343059328	 3.3950040157	 0.269297
C	 1.6109560748	-2.1560084201	 4.0974192615	-0.250928
O	 0.6080589983	-1.2618342107	 4.6005717535	-0.247873
H	 0.6439796028	 2.0510601409	 0.2175908772	 0.126325
H	-0.6630611439	 1.784072319	-0.9578600951	 0.1093
H	-1.0180620856	 1.821082492	 0.7794682721	 0.120984
H	-0.9763955287	-0.5491850984	-0.0926599461	 0.112184
H	 0.6738028893	-0.2943790492	-0.668662723	 0.111121
H	-1.7255332843	-2.6580285176	 3.7349568651	 0.134653
H	-0.662502646	-3.9014816562	 2.9811566421	 0.12676
H	 1.7520032107	-3.0710288559	 4.6705745184	 0.125627
H	 2.5134854979	-1.6783405578	 3.7220485949	 0.142425
30.5417	99.5529	135.611	150.9893	235.0214	276.6324	287.3672	342.4766	442.4143	514.5525	629.0435	700.1228	761.226	817.22	866.2744	883.3368	911.6925	944.9557	978.1448	1054.1782	1068.7029	1085.1408	1118.2598	1127.4137	1147.1172	1160.5865	1167.3055	1212.6527	1301.315	1312.5347	1382.213	1407.5052	1451.847	1487.9561	1491.4496	1507.6892	1509.0299	1534.8404	1850.6959	3011.7841	3040.2086	3047.95	3062.0962	3090.3934	3112.0506	3120.7673	3123.1568	3186.774
CCN=C1OCC11CO1	CCN=C1OC[C@]21CO2	
InChI=1S/C6H9NO2/c1-2-7-5-6(3-8-5)4-9-6/h2-4H2,1H3	InChI=1S/C6H9NO2/c1-2-7-5-6(3-8-5)4-9-6/h2-4H2,1H3/t6-/m1/s1
