13
gdb 56727	2.88881	1.30943	1.0574	1.5018	62.73	-0.3212	-0.0231	0.2981	1087.0306	0.087449	-452.723731	-452.715143	-452.714199	-452.757646	30.06	
O	 0.6154954551	 1.4930448341	-0.095247624	-0.39407
C	 0.1149680919	 0.1859181835	 0.028979749	-0.083089
C	 0.3709518067	-0.6193053787	-1.1835826047	 0.277103
N	 0.5744459653	-1.2411920859	-2.1352114322	-0.313487
C	 0.6974053129	-0.4936376575	 1.2760300745	 0.196958
C	 1.2320396781	-1.8702530998	 1.2824070979	-0.200889
O	 2.1017532346	-0.7390072273	 1.1985017622	-0.247198
C	 0.2331797914	 0.0888647308	 2.5234998222	 0.277666
N	-0.1672938427	 0.5433700641	 3.5068274277	-0.310629
H	 1.5790820093	 1.4384487438	-0.1477971501	 0.312867
H	-0.9690606641	 0.2847588452	 0.1503258897	 0.166319
H	 1.2610695917	-2.4085968097	 2.2265455666	 0.153727
H	 1.1536166897	-2.4681828127	 0.3783897011	 0.164722
41.8955	127.6569	167.4615	189.295	232.9887	274.03	340.3357	423.5446	441.8553	504.9869	566.6192	578.2042	619.382	766.0058	872.0148	894.6828	962.2415	975.2873	1085.8798	1132.8571	1182.0071	1196.0941	1273.6866	1327.8026	1371.4936	1420.3047	1514.8012	2362.1765	2367.0503	3073.0363	3110.4278	3213.2688	3776.4285
OC(C#N)C1(CO1)C#N	O[C@@H](C#N)[C@]1(CO1)C#N	
InChI=1S/C5H4N2O2/c6-1-4(8)5(2-7)3-9-5/h4,8H,3H2	InChI=1S/C5H4N2O2/c6-1-4(8)5(2-7)3-9-5/h4,8H,3H2/t4-,5+/m0/s1
