16
gdb 9313	6.20521	0.88158	0.78317	2.0815	69.67	-0.2774	-0.0394	0.2379	1425.1823	0.127698	-383.738228	-383.729098	-383.728153	-383.773038	31.225	
C	-0.0606327486	 1.4566240968	-0.0645373641	-0.385157
C	 0.0267425706	-0.0689118654	 0.0346296514	-0.192525
C	 0.7688236016	-0.5101692703	 1.284611681	-0.046561
O	 0.800543725	-1.9537099429	 1.290503763	-0.234115
C	 1.4214317662	-2.513900756	 2.3405948121	 0.294678
O	 1.9357624835	-1.9054059009	 3.2458211751	-0.353794
C	 1.3935605992	-3.9588906505	 2.2452610484	 0.223919
C	 1.4009088498	-5.1600005782	 2.2195117974	-0.36028
H	 0.9346455751	 1.9125875082	-0.1005750032	 0.121986
H	-0.5968322151	 1.7570570282	-0.9687536077	 0.122435
H	-0.5902670951	 1.8834238545	 0.7940108123	 0.122006
H	-0.9777996286	-0.5066217804	 0.0454477429	 0.11302
H	 0.5379546032	-0.4776231337	-0.8442539144	 0.113035
H	 1.7971823217	-0.1334420208	 1.3053829918	 0.124642
H	 0.2751930358	-0.1630981273	 2.1987399846	 0.124838
H	 1.4078532256	-6.2225908914	 2.1959456293	 0.211873
47.65	68.3093	102.4732	164.4284	197.5478	240.7928	298.8791	327.3417	370.23	564.6815	608.3277	657.4683	697.1877	758.0728	776.8173	890.7322	893.38	933.3131	1016.8108	1054.1312	1148.5773	1187.7448	1255.3567	1269.0268	1313.0017	1333.8687	1413.1567	1421.9088	1490.961	1501.879	1503.7995	1518.5202	1791.9825	2236.7683	3035.3463	3038.1847	3047.0362	3067.9215	3090.377	3107.4374	3114.1988	3497.5079
CCCOC(=O)C#C	CCCOC(=O)C#C	
InChI=1S/C6H8O2/c1-3-5-8-6(7)4-2/h2H,3,5H2,1H3	InChI=1S/C6H8O2/c1-3-5-8-6(7)4-2/h2H,3,5H2,1H3
