19
gdb 120108	4.15769	1.03377	0.96404	4.2264	75.94	-0.2114	0.0531	0.2644	1266.0004	0.159228	-419.079453	-419.071328	-419.070384	-419.112686	31.673	
O	-0.3889611163	 1.7105527501	-0.0230091676	-0.423566
C	 0.0398685557	 0.37120716	 0.1148569301	-0.058088
C	-1.1441001047	-0.5903198477	 0.2481008721	-0.125505
N	-2.0328268916	-0.3623364097	-0.8993605689	-0.084126
C	-2.4911455763	-1.2529296192	-1.9222132124	-0.064008
C	-3.1257809618	-2.5981803223	-1.4024621498	-0.080865
N	-3.0083214273	-2.6514375697	 0.076842885	-0.330301
C	-4.0731498342	-1.8455014849	-0.5604754884	-0.074755
C	-3.4535770303	-0.4863406018	-1.0502304489	-0.060254
H	-1.0854928878	 1.6696329056	-0.6922701051	 0.276974
H	 0.6640385603	 0.061871177	-0.7413225041	 0.075412
H	 0.6651255629	 0.3177288513	 1.0132140575	 0.097784
H	-0.8011532197	-1.6250367375	 0.3031798827	 0.114409
H	-1.699710844	-0.3722628893	 1.1646609283	 0.110648
H	-2.2084078256	-1.0965127432	-2.9579501203	 0.098742
H	-3.2771256786	-3.4894833705	-1.996382911	 0.097953
H	-3.4346679523	-3.5282347247	 0.3764769613	 0.233631
H	-5.1224555687	-2.0201607972	-0.3633269484	 0.097587
H	-4.0527167898	 0.3899176936	-1.2746291823	 0.09833
48.1687	119.918	186.0874	209.9362	291.1191	396.7137	474.9296	496.1192	525.3592	670.9489	712.7979	728.5011	741.6105	798.2605	855.7825	872.0874	888.3398	895.3073	916.5711	945.6681	955.2661	1021.5699	1038.6796	1051.9777	1089.8113	1107.5402	1109.269	1131.9562	1220.0157	1227.0643	1232.0517	1268.8405	1292.9099	1297.5395	1344.115	1358.7795	1381.3705	1417.0091	1438.6147	1466.2535	1506.9502	2955.3506	3057.2995	3070.8188	3121.6685	3158.1791	3168.6187	3198.7562	3212.2308	3470.0551	3748.3216
OCCN1C2C3NC3C12	OCCN1[C@H]2[C@H]3N[C@H]3[C@@H]12	
InChI=1S/C6H10N2O/c9-2-1-8-5-3-4(7-3)6(5)8/h3-7,9H,1-2H2	InChI=1S/C6H10N2O/c9-2-1-8-5-3-4(7-3)6(5)8/h3-7,9H,1-2H2/t3-,4+,5-,6+,8?
