17
gdb 11732	4.84665	1.38783	1.23324	3.9992	69.22	-0.2432	0.0116	0.2547	1012.0538	0.142245	-363.864589	-363.856934	-363.85599	-363.896627	28.899	
C	-0.1459448851	 1.5214370294	 0.0272208108	-0.380921
C	 0.0338325993	-0.0028919627	 0.0323355055	-0.272532
C	 0.7405667004	-0.5096752127	-1.1908410467	 0.400194
C	 0.1077941544	-0.8844483449	-2.4956693027	-0.319889
C	 0.9215379325	-1.9268833149	-1.7146898708	-0.302321
C	 2.3857766024	-1.5722044407	-1.9057543045	 0.436488
O	 3.3646597674	-2.1104410451	-2.3372067444	-0.344337
N	 2.1882691553	-0.2805003472	-1.3692141145	-0.397714
H	 0.8228944156	 2.0306964953	-0.0065149691	 0.12221
H	-0.7292408584	 1.8485837558	-0.8396078913	 0.119608
H	-0.6647551075	 1.8560188739	 0.9301144038	 0.119663
H	 0.6036603872	-0.3056916471	 0.9183566727	 0.114535
H	-0.9453730616	-0.4914381899	 0.0974844653	 0.104638
H	-0.9654804865	-1.0559656977	-2.4844714929	 0.122952
H	 0.4923022059	-0.4930550516	-3.4332030319	 0.121405
H	 0.4975054994	-2.858558147	-1.3677245908	 0.117784
H	 2.5743398094	 0.550109697	-1.8061226983	 0.238235
81.9919	130.6332	194.0492	235.3975	350.4127	375.6213	435.9147	484.655	574.3247	676.9908	706.0446	758.0835	791.0796	868.4655	893.7948	923.3687	969.7082	975.6263	1003.0953	1031.1866	1072.7403	1082.0848	1111.4674	1140.3976	1215.8318	1246.5203	1307.5388	1331.1771	1347.3143	1405.2565	1413.1098	1474.9895	1491.9038	1499.2122	1507.9894	1899.9539	3033.3901	3036.8993	3071.4149	3107.1229	3111.9574	3112.4539	3199.5288	3223.4483	3534.3763
CCC12CC1C(=O)N2	CC[C@]12C[C@H]1C(=O)N2	
InChI=1S/C6H9NO/c1-2-6-3-4(6)5(8)7-6/h4H,2-3H2,1H3,(H,7,8)	InChI=1S/C6H9NO/c1-2-6-3-4(6)5(8)7-6/h4H,2-3H2,1H3,(H,7,8)/t4-,6-/m0/s1
