20
gdb 105002	2.41858	1.27323	1.02067	1.8232	80.45	-0.2416	0.0341	0.2757	1257.6656	0.168371	-403.080989	-403.070797	-403.069852	-403.116472	37.654	
C	 0.2270037035	 1.2132494178	 0.5675954946	-0.388848
C	 0.0268983493	-0.1961382496	-0.0066073891	-0.253791
C	-1.3782422565	-0.7504950571	 0.180695703	 0.297951
C	-1.5397153119	-2.2025421241	 0.4563697639	-0.295783
N	-1.7869888995	-1.206089659	 1.5169228335	-0.340304
C	-2.4646557069	 0.0084562164	-0.5982103056	-0.113852
O	-2.1210759708	 0.1004323182	-1.9815776147	-0.412297
C	-3.8094532855	-0.5442246001	-0.4226584713	 0.317697
C	-4.9163359064	-1.0068167362	-0.3495290953	-0.447763
H	 1.2742792188	 1.5173072135	 0.4801004678	 0.116146
H	-0.3728165223	 1.9568579642	 0.034524769	 0.131095
H	-0.04745006	 1.2584024672	 1.6270560808	 0.117818
H	 0.2645662986	-0.1909265915	-1.0750425338	 0.116461
H	 0.7315641765	-0.887298018	 0.4723408199	 0.086891
H	-2.4291423724	-2.729334044	 0.1240939563	 0.125829
H	-0.6381206303	-2.8076124251	 0.5067137782	 0.107946
H	-0.9898595622	-1.1658979834	 2.1486324856	 0.22805
H	-2.4705467785	 1.0466889739	-0.2462581981	 0.123229
H	-2.2480276526	-0.7753972951	-2.3640546867	 0.285072
H	-5.8977959007	-1.4036039282	-0.2637472982	 0.19845
33.9843	81.7541	144.4469	184.7161	212.6807	241.3964	256.5251	312.9191	350.687	358.7307	427.9719	483.8678	550.0077	602.3023	633.9639	661.8577	721.5126	775.1665	865.0867	896.294	927.1686	961.9649	990.0477	1011.6757	1049.7979	1057.8763	1102.0633	1115.5951	1154.566	1246.0795	1256.87	1272.1593	1285.1941	1344.8007	1380.1741	1402.2202	1409.8373	1414.1796	1476.0744	1498.1507	1505.8914	1508.3987	2234.735	3027.4031	3036.2405	3047.4105	3079.0223	3106.08	3110.0345	3111.5281	3198.1613	3485.2001	3502.8767	3801.1034
CCC1(CN1)C(O)C#C	CC[C@]1(CN1)[C@@H](O)C#C	
InChI=1S/C7H11NO/c1-3-6(9)7(4-2)5-8-7/h1,6,8-9H,4-5H2,2H3	InChI=1S/C7H11NO/c1-3-6(9)7(4-2)5-8-7/h1,6,8-9H,4-5H2,2H3/t6-,7-/m0/s1
