19
gdb 90620	4.04514	1.21032	1.13446	0.889	74.75	-0.236	0.0714	0.3074	1140.6591	0.158579	-422.964399	-422.956339	-422.955395	-422.996494	32.136	
C	-0.0063910719	 1.5085954282	-0.0299708775	-0.407081
C	-0.0188870379	-0.0055199442	 0.0514259301	 0.12883
O	 0.9526202213	-0.599692233	-0.8662934	-0.319563
C	 1.7291519933	-1.1305763092	 0.2325911116	 0.033297
C	 0.7079241599	-0.6307606691	 1.268146611	-0.072534
C	 0.4163730071	-2.0953786262	 1.6644206317	-0.141737
C	 0.0131872699	-2.9461549208	 0.4736862881	-0.358573
C	 1.455381408	-2.5971618629	 0.6573559865	 0.378238
O	 2.4527405196	-3.5346360443	 0.8515692597	-0.462506
H	 0.9854525825	 1.9060706237	 0.2078661829	 0.119553
H	-0.2730940905	 1.8382702321	-1.0387853446	 0.126152
H	-0.7303833377	 1.934124068	 0.6741587632	 0.113874
H	-1.0270569006	-0.3909401606	-0.1461010616	 0.076328
H	 2.7835412563	-0.8441314042	 0.2094150826	 0.08203
H	 0.9848104257	 0.0336080728	 2.0858077698	 0.077417
H	 0.2190868186	-2.4321434959	 2.6744808137	 0.096289
H	-0.2218377803	-3.9709854705	 0.7443804647	 0.11255
H	-0.5598648763	-2.5499238846	-0.3573662097	 0.129432
H	 2.5060417831	-4.0885519394	 0.0645845378	 0.288003
128.3514	196.7592	231.983	248.4299	269.4184	320.2571	365.9694	410.8983	513.289	532.2468	633.3692	719.6922	803.6179	812.1658	861.673	867.239	898.7646	912.1559	969.1606	972.9486	977.5235	1034.3289	1038.2394	1075.552	1078.0677	1093.0827	1143.8851	1176.3115	1197.2207	1217.3878	1239.5521	1267.7233	1286.9369	1316.3141	1327.3416	1381.7378	1404.2226	1413.0658	1483.9344	1494.6055	1495.7328	3023.0957	3031.4399	3082.1595	3103.3362	3111.4467	3119.254	3130.2825	3190.9577	3216.7387	3788.4435
CC1OC2C1C1CC21O	C[C@H]1O[C@H]2[C@@H]1[C@H]1C[C@@]21O	
InChI=1S/C7H10O2/c1-3-5-4-2-7(4,8)6(5)9-3/h3-6,8H,2H2,1H3	InChI=1S/C7H10O2/c1-3-5-4-2-7(4,8)6(5)9-3/h3-6,8H,2H2,1H3/t3-,4-,5+,6+,7+/m1/s1
