15
gdb 44792	2.53724	2.18939	1.60361	4.5124	64.93	-0.2546	-0.005	0.2495	849.5908	0.113438	-457.669803	-457.663478	-457.662534	-457.700302	25.83	
O	 0.0028012655	 0.1041408969	 0.1834371615	-0.340623
C	 0.014612516	 1.2892979883	 0.084042776	 0.400084
O	-1.09081814	 2.1036390129	 0.1929105715	-0.222693
C	-0.498481779	 3.3994078661	-0.0150020019	 0.038313
C	 0.7820731176	 3.3523120362	 0.9458260596	-0.32797
C	 1.1506096014	 2.2999975752	-0.182354464	 0.244021
O	 2.1319829262	 1.7935279489	-1.1038836111	-0.335328
C	 1.1828722412	 2.1987890259	-2.1840369344	-0.172199
C	 0.5492305614	 3.2268788512	-1.1855785993	-0.052131
H	-1.2588413205	 4.1744550112	 0.0365984579	 0.115623
H	 1.3865606762	 4.2578393139	 0.9199750221	 0.133704
H	 0.604317574	 3.0073354091	 1.9668003152	 0.133535
H	 1.7153982321	 2.6190269959	-3.038295514	 0.130643
H	 0.5624765326	 1.3480194111	-2.4779605082	 0.146871
H	 1.1360825852	 4.1450795073	-1.2445033107	 0.108151
165.7853	247.44	315.992	394.7739	455.2615	562.832	592.8281	647.6412	654.5524	729.6667	775.8535	790.028	848.0558	875.9231	934.1089	952.863	997.2954	1021.3619	1047.2787	1059.3032	1086.0302	1103.9507	1132.9251	1161.8823	1183.7205	1197.9685	1228.1326	1289.0247	1336.2998	1388.0851	1490.1098	1498.6739	1924.2592	3066.1591	3079.0608	3089.2623	3142.9575	3160.8305	3165.414
O=C1OC2CC11OCC21	O=C1O[C@H]2C[C@]31OC[C@@H]23	
InChI=1S/C6H6O3/c7-5-6-1-4(9-5)3(6)2-8-6/h3-4H,1-2H2	InChI=1S/C6H6O3/c7-5-6-1-4(9-5)3(6)2-8-6/h3-4H,1-2H2/t3-,4-,6-/m0/s1
