17
gdb 68273	2.41691	1.5208	1.44123	3.9206	73.24	-0.2648	0.0266	0.2913	1007.2969	0.13648	-417.963199	-417.954936	-417.953992	-417.995544	32.222	
N	-0.0660459114	 1.4645200748	-0.0662173053	-0.573632
C	-0.0164411096	 0.010851045	-0.0196508789	 0.127263
C	 0.9612300335	-0.5299572235	-0.9719482062	 0.208765
N	 1.7456094442	-0.8765248213	-1.7493156315	-0.350771
C	-0.0708206655	-0.6716384435	 1.3858183609	-0.081931
C	-1.5371836693	-0.1716236344	 1.5290694383	-0.309233
C	-1.4101502615	-0.7508002436	 0.086559527	 0.386212
O	-2.3684882386	-0.8619985901	-0.8906337156	-0.460767
C	-0.6425701973	-1.9458085745	 0.6918077771	-0.286518
H	 0.8259452471	 1.8548391938	 0.2256765231	 0.244662
H	-0.2053699313	 1.7717505783	-1.0250149036	 0.243531
H	 0.7190424956	-0.6287475516	 2.1313936163	 0.096462
H	-2.1657278708	-0.7508487353	 2.2078377116	 0.102123
H	-1.6835331973	 0.9019734316	 1.6236950675	 0.121881
H	-2.8349862043	-0.0217426574	-0.9633270143	 0.292366
H	 0.0239268234	-2.5022667046	 0.0314509829	 0.133195
H	-1.2283734869	-2.6069505337	 1.3319950508	 0.10639
121.6589	171.2678	190.1845	239.8903	293.0039	344.8821	372.9257	403.2754	515.3988	522.613	549.2577	620.9837	684.9542	698.129	758.4273	824.1059	879.251	943.9927	953.1978	960.1228	995.6699	1045.4922	1078.7358	1115.396	1140.1432	1154.3913	1185.8262	1201.3808	1211.5719	1245.2312	1282.9287	1300.5237	1382.6262	1489.1086	1540.5794	1659.8778	2332.8318	3080.1571	3086.5676	3149.2132	3154.4043	3172.5763	3488.7565	3560.1021	3806.1419
NC1(C#N)C2CC1(O)C2	N[C@@]1(C#N)[C@H]2C[C@]1(O)C2	
InChI=1S/C6H8N2O/c7-3-6(8)4-1-5(6,9)2-4/h4,9H,1-2,8H2	InChI=1S/C6H8N2O/c7-3-6(8)4-1-5(6,9)2-4/h4,9H,1-2,8H2/t4-,5-,6-/m0/s1
