24
gdb 88472	2.74351	1.18429	1.12045	1.3164	88.99	-0.2158	0.0802	0.296	1272.8588	0.217116	-368.368873	-368.359296	-368.358352	-368.402762	37.277	
C	 2.30276478	-2.2804161961	 1.1672452973	-0.320297
N	 1.590964177	-1.3277519673	 0.3265580808	-0.095971
C	 0.1360955876	-1.2822065931	 0.4478376609	-0.274436
C	 0.9680544967	-0.1360732615	 0.912114477	-0.039662
C	 1.0835089247	 0.3351641173	 2.3528187576	 0.323717
C	 2.4858128362	 0.9080347444	 2.6014657452	-0.43969
C	-0.0246071077	 1.3657859067	 2.7575369464	-0.249017
C	-0.1486608023	 0.6649253942	 4.1357525958	-0.22802
C	 0.6048691901	-0.5565931065	 3.5480054405	-0.255101
H	 1.8778159128	-2.4254578805	 2.1710421559	 0.108295
H	 2.3071992899	-3.2515652958	 0.6608489385	 0.119704
H	 3.3436951273	-1.9597067372	 1.2786598717	 0.121541
H	-0.4214502581	-1.2235489544	-0.4844129117	 0.108697
H	-0.3272095257	-1.9131775291	 1.2047161398	 0.103599
H	 1.0313931522	 0.7158188414	 0.2308376755	 0.084148
H	 2.7231443869	 1.6855448913	 1.8666823747	 0.114276
H	 2.5601712313	 1.3570286743	 3.5975057821	 0.110549
H	 3.2535468942	 0.1316565689	 2.5271438844	 0.11831
H	 0.2607860924	 2.4215091508	 2.7476506657	 0.092922
H	-0.9273627556	 1.2423099249	 2.1523673433	 0.100097
H	 0.4213529652	 1.1735719806	 4.917228763	 0.10414
H	-1.1583449263	 0.4881453401	 4.5124767789	 0.097633
H	-0.0865909862	-1.3439794585	 3.2414108921	 0.099729
H	 1.3899914076	-1.0083894849	 4.1608352345	 0.094834
79.6539	133.2409	171.1677	212.4255	241.0707	249.7942	271.8235	332.4229	361.7204	372.3977	474.2454	488.1279	637.4912	700.9058	763.4279	801.5922	852.9108	874.4858	915.565	920.9807	933.5238	947.6567	995.4304	999.9335	1036.6896	1054.5325	1102.7971	1131.5224	1144.4701	1164.1913	1178.5976	1189.3191	1205.973	1208.7512	1242.612	1258.4775	1269.1271	1275.2568	1305.7137	1350.1101	1405.4139	1416.4189	1451.1385	1472.7158	1482.5911	1491.7513	1498.1947	1498.3735	1503.3105	1508.1339	1514.5899	2997.9494	3028.9036	3048.9262	3055.6845	3066.6434	3067.816	3070.002	3087.1992	3093.8433	3095.0385	3095.8272	3104.251	3107.6588	3123.635	3166.9048
CN1CC1C1(C)CCC1	CN1C[C@H]1C1(C)CCC1	
InChI=1S/C8H15N/c1-8(4-3-5-8)7-6-9(7)2/h7H,3-6H2,1-2H3	InChI=1S/C8H15N/c1-8(4-3-5-8)7-6-9(7)2/h7H,3-6H2,1-2H3/t7-,9?/m0/s1
