16
gdb 81211	3.27949	1.37647	1.29056	2.8221	70.82	-0.2415	-0.0377	0.2038	1007.1917	0.123921	-437.750471	-437.743346	-437.742402	-437.781902	28.754	
O	 0.0015403102	 1.4205389944	-0.128675885	-0.45165
C	 0.0662704469	 0.0464219764	 0.0110844626	 0.188152
C	 0.0420495476	-0.5788796329	 1.4201205309	-0.114944
N	-1.4225076349	-0.0675790221	 1.5068350405	-0.440295
C	-1.2707487944	-0.7750597611	 0.1411605826	 0.245915
C	-1.8062574388	-1.6059009651	-1.0315102938	-0.442629
C	-0.5198954262	-2.5067588932	-0.7181737635	 0.341291
O	 0.1026555474	-3.2856324614	-1.3638058026	-0.26387
C	-0.4817878141	-1.9108348991	 0.7460068355	-0.156692
H	-0.6691953509	 1.7106723805	 0.5080645459	 0.294411
H	 0.8132479053	-0.3437767756	-0.6818570395	 0.107633
H	 0.7134356769	-0.4355075066	 2.2697912629	 0.095868
H	-1.956844821	-0.6655195074	 2.1438793094	 0.218143
H	-2.716255481	-2.1757937692	-0.8167350662	 0.138121
H	-1.8746484017	-1.1537769875	-2.0232484201	 0.140646
H	-1.0465046013	-2.5612545502	 1.4235446703	 0.0999
103.914	224.6677	259.1194	329.2217	417.6104	447.9046	493.7245	560.9571	584.9501	633.6329	667.297	733.7613	770.5695	816.85	864.4121	888.0978	915.687	952.1249	980.3538	1024.9491	1070.7471	1083.1174	1106.4142	1155.076	1174.6988	1180.8229	1189.538	1225.1202	1232.1099	1276.8119	1299.2859	1344.0106	1450.6287	1467.5443	1895.7569	3049.0121	3058.2689	3093.9428	3116.5278	3125.146	3407.2094	3723.4003
OC1C2NC11CC(=O)C21	O[C@H]1[C@H]2N[C@]31CC(=O)[C@@H]23	
InChI=1S/C6H7NO2/c8-2-1-6-3(2)4(7-6)5(6)9/h3-5,7,9H,1H2	InChI=1S/C6H7NO2/c8-2-1-6-3(2)4(7-6)5(6)9/h3-5,7,9H,1H2/t3-,4-,5-,6+/m0/s1
