22
gdb 76345	2.30837	1.35433	0.97579	4.1257	84.06	-0.2367	0.0241	0.2608	1294.0617	0.192901	-404.375543	-404.36537	-404.364426	-404.41116	37.005	
C	-0.6082026887	 1.3573630807	-0.112605915	-0.408207
C	 0.0222055547	-0.0232530163	 0.0150262835	-0.044287
C	 1.2917239574	-0.344430068	-0.8551051172	 0.036401
C	 1.849327062	 0.7143582865	-1.7978435748	-0.400211
N	 2.0398083263	-0.5311696614	 0.3994913842	-0.053063
C	 3.2025820049	-1.1680006382	 0.6643857211	 0.121387
O	 3.5797849948	-1.4875950733	 1.7755443143	-0.337554
C	 0.8868262037	-0.3323146397	 1.2895502314	 0.050299
C	 1.0736045169	 0.7243955816	 2.3692321109	-0.405771
H	 0.113468808	 2.1670480371	 0.0217146476	 0.124923
H	-1.0690811315	 1.4832560323	-1.0978178527	 0.119135
H	-1.3950937125	 1.4896815362	 0.6368776243	 0.122579
H	-0.7529886737	-0.7795049954	-0.1300316188	 0.081236
H	 1.175739194	-1.2878555062	-1.4049612233	 0.08568
H	 2.0062882814	 1.6678504681	-1.2872655076	 0.124362
H	 2.811479133	 0.390919575	-2.2077476323	 0.124536
H	 1.1681283885	 0.8759019368	-2.6398763907	 0.121662
H	 3.7952573082	-1.3588943496	-0.2549714773	 0.065218
H	 0.5962558361	-1.277203943	 1.7656777864	 0.091436
H	 1.3845652184	 1.6848046408	 1.9490340665	 0.113195
H	 0.1429049016	 0.8727357884	 2.9268583761	 0.114559
H	 1.8456288167	 0.3907140075	 3.0668686432	 0.152486
31.4677	81.2874	158.6826	209.8747	221.7494	224.4284	256.9879	272.7587	278.9815	341.4494	410.2712	477.9343	488.5763	583.6873	739.6212	749.79	792.4341	831.7446	967.6591	993.4903	1009.3733	1031.1963	1039.9851	1059.6955	1097.8871	1151.1176	1161.7826	1185.4389	1188.9013	1263.1839	1282.0554	1311.3038	1364.0382	1368.9282	1390.003	1397.0398	1403.7768	1413.9911	1419.764	1438.5526	1479.5747	1483.683	1493.2488	1497.7196	1509.4416	1511.602	1781.4207	2911.055	3007.2502	3021.717	3037.3362	3040.0221	3043.5072	3073.4203	3100.359	3105.352	3110.7092	3118.5336	3126.3833	3130.5706
CC1C(C)N(C=O)C1C	C[C@H]1[C@@H](C)N(C=O)[C@H]1C	
InChI=1S/C7H13NO/c1-5-6(2)8(4-9)7(5)3/h4-7H,1-3H3	InChI=1S/C7H13NO/c1-5-6(2)8(4-9)7(5)3/h4-7H,1-3H3/t5-,6+,7-
