29
gdb 123246	9.34438	0.34396	0.33796	0.0602	102.1	-0.2924	0.09	0.3824	3374.7532	0.273794	-354.783239	-354.770786	-354.769842	-354.822325	43.999	
C	-0.059808944	 1.6198918025	 0.0816508292	-0.378818
C	-0.0177931191	 0.090082898	 0.0356870404	-0.162675
C	 0.6905815741	-0.4572008309	-1.2085100696	-0.157881
C	 0.7380216049	-1.9878890652	-1.2637859277	-0.177639
C	 1.4464533304	-2.5336136885	-2.5084943509	-0.180508
C	 1.4942544253	-4.0644868231	-2.5643962204	-0.177636
C	 2.2027256503	-4.6094759306	-3.8091331828	-0.157885
C	 2.2512783257	-6.1403912626	-3.8664547675	-0.162673
C	 2.9609203737	-6.6748908642	-5.1134143419	-0.378819
H	 0.950821285	 2.0435264066	 0.0810766409	 0.112205
H	-0.5873395377	 2.0273788819	-0.7881247662	 0.112203
H	-0.5710589091	 1.9811148306	 0.979653543	 0.109222
H	 0.4853996029	-0.2904596153	 0.9345595458	 0.092595
H	-1.041204479	-0.3064855975	 0.0724316085	 0.092596
H	 0.1874751108	-0.0761970388	-2.1084645497	 0.089382
H	 1.7147951187	-0.0599926113	-1.2460434594	 0.089382
H	 1.241237906	-2.3681860424	-0.3637295166	 0.089842
H	-0.286345077	-2.3843819894	-1.2260543798	 0.089841
H	 0.9432300289	-2.1532061723	-3.4084621052	 0.089999
H	 2.4707348639	-2.1369885549	-2.5461901064	 0.089999
H	 1.9975362071	-4.4450140779	-1.6644727877	 0.089841
H	 0.4699710559	-4.4612099701	-2.5268274353	 0.089841
H	 1.6998538431	-4.2292917247	-4.7095645658	 0.089382
H	 3.2272530686	-4.2131371914	-3.8472811846	 0.089382
H	 2.7542069349	-6.519765388	-2.9669406558	 0.092595
H	 1.2274916216	-6.5359102285	-3.8288706868	 0.092596
H	 2.4593140047	-6.3396683403	-6.028214221	 0.112204
H	 3.9978200946	-6.3234008101	-5.1596265959	 0.112204
H	 2.9800938547	-7.7692945515	-5.1268780509	 0.109222
44.9111	60.6834	69.054	102.8276	121.44	157.7295	160.4672	166.0901	239.6884	244.2015	244.6144	287.9704	393.6662	454.2899	494.2079	733.1303	733.8514	745.3565	779.2989	836.996	894.916	899.1954	908.2671	981.0408	994.7848	1018.9261	1036.1049	1043.168	1061.8424	1070.7614	1072.9085	1107.0549	1152.5174	1209.8307	1232.2524	1243.8163	1271.0142	1290.7005	1307.5635	1326.7715	1330.9369	1334.6013	1339.0515	1342.4932	1371.678	1395.7988	1401.215	1403.1073	1413.1295	1413.5448	1482.8472	1483.1334	1485.8096	1487.8555	1493.8771	1499.3813	1499.384	1500.9012	1507.8789	1513.8715	1518.0757	2998.9253	2999.6022	3001.4754	3004.1879	3010.9313	3016.3759	3019.0315	3019.4914	3021.3715	3027.3886	3028.1006	3028.2914	3036.8849	3047.5569	3057.1839	3065.5172	3094.3291	3094.4486	3099.1199	3099.1922
CCCCCCCCC	CCCCCCCCC	
InChI=1S/C9H20/c1-3-5-7-9-8-6-4-2/h3-9H2,1-2H3	InChI=1S/C9H20/c1-3-5-7-9-8-6-4-2/h3-9H2,1-2H3
