17
gdb 105600	2.14513	1.52505	1.25809	3.7353	70.26	-0.2306	-0.0386	0.192	1081.1521	0.134867	-455.153667	-455.144355	-455.143411	-455.188151	32.774	
C	-0.3461507378	 1.4444461772	-0.0042719659	-0.332863
N	 0.1453777694	 0.0604291925	 0.0991874464	-0.350969
C	 0.736267167	-0.4612083345	-1.1082188141	 0.055473
C	 0.6513110998	-2.022524522	-1.2884328298	-0.203549
N	-0.0936096208	-1.782489165	-2.5243693284	-0.322065
C	-0.1803528119	-0.4258751084	-2.3911810898	 0.409787
O	-0.737867934	 0.4323941848	-3.0175416077	-0.349753
C	 2.1496614057	 0.0255855407	-1.3978400488	 0.133194
O	 2.7665159084	 0.7426799215	-0.6529267518	-0.260059
H	 0.4257347677	 2.1690496016	-0.2980162257	 0.120601
H	-1.1568499026	 1.4927756298	-0.7327522537	 0.153067
H	-0.7414079657	 1.736150717	 0.9723545841	 0.117417
H	 0.8621414748	 0.0398206719	 0.8206435243	 0.22847
H	 1.596718987	-2.5554070417	-1.432171945	 0.118203
H	 0.0689158256	-2.4780027089	-0.4840902711	 0.135929
H	-0.5761472414	-2.410708194	-3.1506980462	 0.259417
H	 2.5957508887	-0.3534225723	-2.3450025569	 0.0877
74.6758	97.6912	114.4833	166.4034	184.8286	245.9995	272.5796	316.7433	366.4845	474.3562	489.0925	607.6953	710.2275	759.9382	778.9024	805.1081	893.1194	902.239	1004.7767	1051.0997	1064.8145	1122.8066	1163.844	1166.8502	1191.1443	1201.4142	1271.8992	1304.8159	1395.1216	1413.8615	1461.2784	1490.3123	1496.3193	1516.3736	1527.5212	1819.9049	1895.7868	2878.0547	3010.4985	3046.6241	3093.7334	3110.129	3143.0584	3492.2958	3604.9976
CNC1(CNC1=O)C=O	CN[C@]1(CNC1=O)C=O	
InChI=1S/C5H8N2O2/c1-6-5(3-8)2-7-4(5)9/h3,6H,2H2,1H3,(H,7,9)	InChI=1S/C5H8N2O2/c1-6-5(3-8)2-7-4(5)9/h3,6H,2H2,1H3,(H,7,9)/t5-/m1/s1
