15
gdb 10596	2.30295	2.14165	1.29937	2.3436	63.88	-0.257	-0.0492	0.2078	943.1638	0.116626	-399.796689	-399.78844	-399.787495	-399.829475	28.931	
C	-0.2351202764	 1.4172051314	 0.0055030324	-0.405709
C	 0.0171969047	-0.0654146743	 0.1220222831	-0.003843
N	 1.2921675848	-0.5899592882	-0.2991706075	-0.354647
C	 0.9833768755	-0.6713565081	 1.143927766	 0.096256
C	 1.7696220624	 0.2103444161	 2.0543844792	 0.100741
O	 1.7567379978	 0.1009005044	 3.2560202569	-0.257591
C	 0.5649777986	-2.0052602463	 1.6725021003	 0.086933
O	 0.2028170938	-2.9003390442	 0.9434743621	-0.276372
H	 0.6857747692	 1.9926981174	 0.1167484144	 0.136049
H	-0.6505042195	 1.6374955993	-0.9835916947	 0.13818
H	-0.9576531408	 1.7517646479	 0.7559714403	 0.136019
H	-0.8516244598	-0.7016642266	-0.0443379727	 0.121698
H	 1.1712042451	-1.5324610726	-0.6739415603	 0.256865
H	 2.3809817121	 0.9774053118	 1.5355331166	 0.100903
H	 0.6210370226	-2.117991548	 2.7697984838	 0.12452
93.1278	138.0048	180.8442	210.0194	223.4371	234.3997	315.1879	398.2094	460.8481	495.6335	693.1308	734.6381	777.014	875.8649	988.4614	1011.8793	1039.6265	1067.6214	1070.924	1128.6634	1143.8645	1257.2273	1275.949	1336.1895	1403.5383	1407.6199	1415.9298	1452.3013	1485.382	1497.8128	1792.1508	1812.8539	2920.6135	2986.3222	3044.4088	3107.8611	3118.0382	3141.2743	3456.041
CC1NC1(C=O)C=O	C[C@H]1NC1(C=O)C=O	
InChI=1S/C5H7NO2/c1-4-5(2-7,3-8)6-4/h2-4,6H,1H3	InChI=1S/C5H7NO2/c1-4-5(2-7,3-8)6-4/h2-4,6H,1H3/t4-/m1/s1
