18
gdb 52700	3.3185	0.75505	0.67231	2.5928	78.6	-0.2493	0.0388	0.288	1710.9633	0.144757	-439.112067	-439.101249	-439.100305	-439.150431	36.891	
C	 0.0205612813	 1.4492764213	-0.0592303323	-0.498961
C	 0.0215644295	-0.0062416945	-0.060264979	 0.086297
C	 0.031286194	-1.2096473592	-0.0615799459	 0.071225
C	 0.0053671319	-2.6669517557	-0.0254508625	-0.052595
C	-1.4149451358	-3.2375750176	-0.0057726363	-0.397173
O	 0.7046398296	-3.1465367864	-1.2043700462	-0.267864
C	 1.3586684485	-4.325713162	-1.0549737081	 0.505311
N	 1.9302866345	-4.6867775996	-2.2422169627	-0.56274
O	 1.4044180956	-4.9751350685	-0.0348263388	-0.402486
H	 1.0399485817	 1.847620979	-0.1055396014	 0.151004
H	-0.5339913834	 1.8492428021	-0.9150750882	 0.150073
H	-0.446734526	 1.8409548986	 0.8509538544	 0.151677
H	 0.552837793	-3.0372400295	 0.8466819229	 0.136978
H	-1.9552179104	-2.860045649	 0.8665537622	 0.127229
H	-1.9563529219	-2.941116418	-0.9076175113	 0.128317
H	-1.3694868225	-4.327563828	 0.052555245	 0.139756
H	 2.031919174	-3.9901077142	-2.9606282966	 0.265676
H	 2.6082044163	-5.4280050588	-2.2002122652	 0.268277
15.8046	39.5098	71.0537	115.3902	135.1793	223.2078	255.6335	295.1031	329.8755	343.6217	388.1809	419.5244	506.8325	537.353	562.6907	635.8068	772.8759	784.7169	858.4996	998.3558	1035.62	1052.3117	1053.8885	1083.5335	1106.632	1119.8496	1196.6697	1330.1331	1360.2569	1394.7708	1398.8421	1414.6779	1476.417	1479.0967	1487.1807	1494.77	1610.2216	1824.365	2377.4727	3028.8805	3050.4904	3069.1195	3090.5463	3090.8973	3129.4942	3138.5231	3613.34	3743.8599
CC#CC(C)OC(N)=O	CC#C[C@@H](C)OC(=O)N	
InChI=1S/C6H9NO2/c1-3-4-5(2)9-6(7)8/h5H,1-2H3,(H2,7,8)	InChI=1S/C6H9NO2/c1-3-4-5(2)9-6(7)8/h5H,1-2H3,(H2,7,8)/t5-/m1/s1
