15
gdb 85491	3.02396	1.33259	1.06798	3.3941	67.63	-0.2805	-0.0101	0.2705	1099.0613	0.113011	-453.96791	-453.959887	-453.958943	-454.000849	29.59	
O	-0.8494267174	 1.2599399681	-0.574498788	-0.418033
C	-0.1348603927	 0.1279984083	-0.1437177375	 0.078582
C	-1.1563026988	-0.9392113828	 0.2410712288	-0.315129
C	-1.4390143587	-1.6499264233	-1.0633251849	 0.432935
N	-2.4427634607	-2.3560231536	-1.3323561009	-0.529607
O	-0.3927074589	-1.4228871838	-1.9378538439	-0.245752
C	 0.5924720048	-0.5956804647	-1.3198801734	-0.032694
C	 1.1441016474	 0.3486299521	-2.2923220446	 0.269736
N	 1.5951532323	 1.1438613114	-2.9982994491	-0.310932
H	-0.2325860028	 1.9111167283	-0.9299734669	 0.304402
H	 0.5766696291	 0.3668069343	 0.6563900934	 0.095062
H	-0.7307739751	-1.6483429907	 0.9588987149	 0.138636
H	-2.0592013302	-0.5073940635	 0.6705262759	 0.163339
H	-2.3840306966	-2.7375840065	-2.2777440764	 0.233565
H	 1.4091192984	-1.2216893335	-0.9352073174	 0.135889
91.7668	103.5751	139.5391	241.8029	358.9125	378.0928	394.2804	437.8849	515.7246	520.7283	580.8895	686.4129	809.8556	817.8932	879.766	898.6229	907.062	987.4059	1019.3593	1030.8014	1094.1053	1098.1241	1197.6158	1215.2571	1264.0574	1308.0189	1316.1469	1347.2912	1369.3276	1425.6832	1457.164	1798.9927	2364.9324	3019.1912	3033.9227	3067.219	3154.3057	3481.6929	3792.7011
OC1CC(=N)OC1C#N	O[C@H]1C[C]([NH])O[C@H]1C#N	
InChI=1S/C5H6N2O2/c6-2-4-3(8)1-5(7)9-4/h3-4,7-8H,1H2	InChI=1S/C5H6N2O2/c6-2-4-3(8)1-5(7)9-4/h3-4,7-8H,1H2/t3-,4-/m0/s1
