18
gdb 22451	1.98243	1.19767	1.08203	0.8164	79.64	-0.2454	-0.0383	0.2072	1274.4979	0.143124	-438.999261	-438.988714	-438.987769	-439.035207	37.263	
C	-0.0970191335	 1.1494696018	-1.6674261772	-0.236801
O	 0.2324027109	 0.4441321737	-0.4884126757	-0.237465
C	 1.0021847105	-0.7246866179	-0.7053215166	 0.042816
C	 1.5263352536	-1.1705578243	 0.6558459308	-0.414387
C	 0.1773093625	-1.8131194001	-1.3833816556	 0.135677
N	 0.6146080551	-2.2350994536	-2.5175269732	-0.168412
O	-0.1779868508	-3.2322972108	-3.0647169616	-0.380595
C	-1.0058165751	-2.2803807337	-0.7446075133	 0.390926
C	-1.998606055	-2.6541819523	-0.1755732343	-0.473546
H	 0.8049560424	 1.4582546068	-2.2176518942	 0.106218
H	-0.7278736394	 0.5587013685	-2.3455053152	 0.117352
H	-0.6479323638	 2.0410931269	-1.3593904944	 0.127095
H	 1.8415365497	-0.5100836139	-1.383622505	 0.086282
H	 2.1634618553	-2.0529557997	 0.5508582325	 0.123108
H	 2.1081948489	-0.3621939123	 1.1055713173	 0.125958
H	 0.6943542441	-1.4135338434	 1.3218661366	 0.137567
H	 0.279003553	-3.4310459092	-3.8900159269	 0.31119
H	-2.8781910184	-2.9868947566	 0.3184846458	 0.207017
41.5417	92.4504	129.3444	143.3617	198.2297	210.6614	231.3648	280.1717	282.7653	356.1734	411.0612	446.0713	476.1061	518.8002	633.2828	644.0365	684.8498	730.4171	765.7201	875.484	992.4241	1021.4077	1080.5818	1134.4596	1149.6347	1184.8064	1235.6076	1252.0434	1336.5013	1364.1802	1403.8114	1407.1443	1478.7182	1483.4479	1488.0677	1497.3035	1508.3074	1674.7035	2220.0083	2984.7091	2998.9538	3041.0915	3050.0812	3118.686	3128.8077	3131.6198	3499.6401	3805.5117
COC(C)C(=NO)C#C	CO[C@@H](C)C(=NO)C#C	
InChI=1S/C6H9NO2/c1-4-6(7-8)5(2)9-3/h1,5,8H,2-3H3	InChI=1S/C6H9NO2/c1-4-6(7-8)5(2)9-3/h1,5,8H,2-3H3/t5-/m0/s1
