25
gdb 121376	3.96567	0.78197	0.69232	0.2145	95.89	-0.2342	0.03	0.2642	1751.5207	0.230625	-352.386213	-352.376569	-352.375625	-352.421023	36.914	
C	 0.0593555408	 1.640336568	-0.0372009323	-0.378694
C	 0.0342968071	 0.1088685805	-0.0483789398	-0.17655
C	 0.6577471485	-0.5040834533	 1.2111851274	-0.173586
C	 0.6848299018	-2.0468872582	 1.2430514131	-0.014708
C	 1.6149797139	-2.5590844766	 2.3573183425	-0.208785
C	 1.4612421994	-4.0677640922	 2.5794054364	-0.214099
C	 0.0278530058	-4.4129951931	 3.0074409986	-0.235316
C	-0.9927245907	-3.6699010002	 2.1856600134	-0.068848
C	-0.6983989093	-2.639924345	 1.39204032	-0.038078
H	 1.084897034	 2.019253899	 0.0366851547	 0.112494
H	-0.3839578925	 2.0548375236	-0.948116674	 0.109726
H	-0.500418149	 2.038400644	 0.816509817	 0.113795
H	-1.00208405	-0.2317928095	-0.1616318577	 0.099625
H	 0.57242323	-0.2601480453	-0.9317673372	 0.093396
H	 1.6904899711	-0.1397852041	 1.3019074428	 0.087113
H	 0.1266896798	-0.1376848915	 2.1007223759	 0.092058
H	 1.0970735448	-2.379484511	 0.2755062558	 0.073847
H	 2.6540198523	-2.3076513898	 2.1149564864	 0.087217
H	 1.3746441281	-2.0306301056	 3.290567331	 0.093069
H	 1.6955637721	-4.5944836153	 1.6451516863	 0.09685
H	 2.1778391629	-4.422475458	 3.3281604539	 0.088429
H	-0.1451725703	-5.4937811051	 2.9260169336	 0.098643
H	-0.1170516871	-4.1756402274	 4.0724284624	 0.104414
H	-2.0228884198	-4.0133253117	 2.2552244835	 0.079098
H	-1.4947402635	-2.176756542	 0.813952516	 0.078891
71.7077	77.5151	116.3318	172.1705	248.1851	271.6976	281.2824	319.6578	362.0309	461.1933	509.518	539.2715	687.2262	730.584	743.286	807.0452	854.7475	868.9607	898.4052	919.3257	940.1828	973.7924	1006.0504	1029.9655	1043.859	1073.6205	1077.5169	1084.9609	1129.0165	1137.1408	1165.8289	1216.4902	1251.8108	1257.602	1274.0709	1299.4235	1325.5162	1341.1901	1350.3949	1371.1969	1376.2624	1379.0636	1397.4015	1412.6382	1426.2358	1475.2461	1480.1101	1489.6968	1493.3188	1497.6128	1500.249	1510.2587	1720.1481	2957.0843	2993.1908	3002.096	3011.4669	3018.458	3019.8442	3028.5089	3035.1667	3037.7658	3057.6114	3061.1815	3068.6432	3096.0629	3100.2706	3135.9995	3161.1754
CCCC1CCCC=C1	CCC[C@H]1CCCC=C1	
InChI=1S/C9H16/c1-2-6-9-7-4-3-5-8-9/h4,7,9H,2-3,5-6,8H2,1H3	InChI=1S/C9H16/c1-2-6-9-7-4-3-5-8-9/h4,7,9H,2-3,5-6,8H2,1H3/t9-/m1/s1
