15
gdb 27353	2.01339	1.79536	0.9547	5.8291	72.04	-0.2268	-0.0253	0.2016	1160.1665	0.112241	-457.826648	-457.818631	-457.817687	-457.859161	30.065	
C	 0.1206544414	 1.4769281879	 0.004530383	-0.471239
C	-0.0430467668	-0.0058645863	-0.0167916305	 0.384065
C	-1.1799758465	-0.706408644	-0.1238426769	-0.330161
C	-1.2008126799	-2.1809243814	-0.1330498556	 0.407295
O	-2.2365294866	-2.82446705	-0.2307293142	-0.385844
C	 0.1240997361	-2.7771923181	-0.0150021239	-0.407543
C	 1.2125713298	-1.9917266194	 0.0876769797	 0.483779
O	 2.4646389878	-2.4505124472	 0.1995215365	-0.401017
O	 1.1754080809	-0.6402696192	 0.0909906658	-0.274869
H	 0.7583699178	 1.8089778719	-0.8220195575	 0.146447
H	-0.8506355192	 1.9651857789	-0.0831491837	 0.148187
H	 0.5964602079	 1.8021402175	 0.9361504946	 0.146421
H	-2.1266636002	-0.1874653734	-0.207583512	 0.118525
H	 0.2365086343	-3.8524944648	-0.0095291113	 0.125594
H	 3.0629885534	-1.6950110326	 0.261356716	 0.310358
140.1508	168.0209	175.4164	208.797	283.8832	344.3453	362.854	500.6265	510.3571	549.2459	550.0698	615.579	677.832	733.3479	855.2181	892.83	919.8876	930.0578	996.3969	1057.1813	1067.6464	1165.2364	1192.5959	1241.4934	1284.5465	1357.8025	1415.9943	1423.3367	1470.9491	1484.174	1674.1619	1736.0158	1751.6491	3038.9776	3093.8593	3148.4659	3217.3061	3233.7219	3798.0921
CC1=CC(=O)C=C(O)O1	Cc1cc(=O)cc(O)o1	
InChI=1S/C6H6O3/c1-4-2-5(7)3-6(8)9-4/h2-3,8H,1H3	InChI=1S/C6H6O3/c1-4-2-5(7)3-6(8)9-4/h2-3,8H,1H3
