17
gdb 126816	2.88636	1.55683	1.09539	2.2764	80.62	-0.2202	-0.074	0.1462	1101.753	0.138064	-414.198433	-414.190465	-414.189521	-414.231364	29.777	
C	 0.0356172555	 1.5463154612	 0.0772695638	-0.384403
C	-0.0443016397	 0.0252917097	-0.0548103871	-0.121137
N	 0.6870523117	-0.4753728203	-1.223907851	-0.03035
N	-0.0351245785	-0.7036465492	-2.3096380397	-0.151767
C	 0.5844678581	-1.1403684675	-3.3713330404	-0.041506
C	 1.9927924963	-1.3759597833	-3.3396655299	-0.000262
N	 2.7182194352	-1.1541196842	-2.2913864401	-0.29952
C	 2.0926269282	-0.6431212274	-1.1521950994	 0.44002
N	 2.688339903	-0.3263531519	-0.0672258083	-0.560838
H	 1.073268997	 1.8614641795	 0.2017368599	 0.154729
H	-0.3886395718	 2.0356319243	-0.8045874856	 0.12341
H	-0.5325950801	 1.8681732539	 0.955123628	 0.121503
H	 0.3941774639	-0.4548121118	 0.8221458095	 0.148004
H	-1.0756929106	-0.3077277021	-0.1830565837	 0.122229
H	-0.0209943247	-1.3264488446	-4.2494209743	 0.128973
H	 2.4937050795	-1.7678642945	-4.2250841854	 0.125903
H	 3.6809599769	-0.5258404617	-0.1772330464	 0.225009
76.6875	91.9267	165.5095	228.7987	340.4321	368.2994	443.8279	495.4795	561.5429	568.0009	610.6498	733.1025	770.821	796.5158	840.6682	847.8421	906.8933	986.975	993.3856	1010.8139	1053.6614	1094.1907	1109.8519	1222.8985	1245.2	1306.3443	1356.9975	1387.3689	1404.4636	1408.6533	1430.6251	1464.4473	1490.6648	1508.3469	1550.2969	1649.5205	1700.4471	3046.9168	3080.3211	3115.0348	3129.6578	3133.5484	3150.557	3212.9635	3511.7721
CCN1N=CC=NC1=N	CCn1nccnc1[NH]	
InChI=1S/C5H8N4/c1-2-9-5(6)7-3-4-8-9/h3-4,6H,2H2,1H3	InChI=1S/C5H13N4/c1-2-9-5(6)7-3-4-8-9/h5-8H,2-4H2,1H3
