19
gdb 105719	2.36543	1.44912	1.18882	0.9472	83.72	-0.2481	0.0026	0.2507	1146.2929	0.157607	-385.853443	-385.84429	-385.843346	-385.887296	34.371	
C	-0.2264570929	 1.2224990836	-0.03519241	-0.249489
O	 0.0127266567	-0.163723074	-0.1750707226	-0.267763
C	 0.8815832967	-0.5424603984	-1.2541370405	 0.17917
C	 0.862920376	-2.0960396723	-1.2928264956	-0.257287
C	-0.1776951119	-2.4764960371	-2.3708266518	-0.267855
C	-0.290711578	-1.2174609501	-3.1925671483	-0.069283
C	 0.2989934416	-0.1742468138	-2.6140738747	-0.108238
C	 2.2277670396	 0.0085559153	-1.0459831626	 0.318072
C	 3.3283608041	 0.4636005942	-0.8784504772	-0.488245
H	 0.7074240352	 1.7863856539	 0.0918460765	 0.116684
H	-0.7766331456	 1.6364671026	-0.8918235874	 0.104583
H	-0.8382808891	 1.3417501284	 0.8621808785	 0.125632
H	 1.8517700046	-2.4573988242	-1.5828212674	 0.11708
H	 0.6341765527	-2.4817795428	-0.2981984533	 0.120487
H	 0.1407350494	-3.3390106452	-2.9664474756	 0.107061
H	-1.1491186821	-2.7422958289	-1.934273732	 0.119828
H	-0.8188214452	-1.1831863456	-4.1397820967	 0.100497
H	 0.3473450296	 0.8331735464	-3.0077787634	 0.103709
H	 4.3031361285	 0.858627948	-0.7306664859	 0.195358
75.6229	110.922	151.9477	166.3554	209.2931	270.9905	301.6797	408.8303	482.4866	508.5405	536.4972	612.2264	625.727	659.075	704.1167	772.3346	794.1004	844.8673	921.508	936.7994	980.1712	986.5042	1059.3823	1096.7317	1106.1221	1120.5394	1170.2276	1181.545	1191.3252	1230.5668	1244.9728	1310.7761	1318.7035	1378.0101	1470.2267	1472.5699	1488.021	1489.3965	1510.9147	1682.6752	2226.2451	2995.2231	3026.7719	3051.4457	3061.6392	3082.3018	3115.9308	3134.6813	3184.3599	3219.6791	3499.9064
COC1(CCC=C1)C#C	CO[C@]1(CCC=C1)C#C	
InChI=1S/C8H10O/c1-3-8(9-2)6-4-5-7-8/h1,4,6H,5,7H2,2H3	InChI=1S/C8H10O/c1-3-8(9-2)6-4-5-7-8/h1,4,6H,5,7H2,2H3/t8-/m1/s1
