17
gdb 39777	3.05893	1.86552	1.50894	1.8381	71.05	-0.2334	0.0676	0.301	901.6942	0.138117	-417.892858	-417.886368	-417.885423	-417.923392	27.304	
C	-0.0270785746	 1.5033751453	-0.0373820164	-0.348622
N	 1.2870365062	 0.8270473317	 0.079120528	-0.366908
C	 0.094278521	 0.0372582076	 0.0164761266	 0.438147
C	-0.5031675208	-0.9740833011	 0.9983515409	-0.021386
O	-1.6059856609	-1.1198947781	 0.0276525964	-0.301508
C	-0.5382484085	-0.9616619757	-0.9731110398	-0.039312
C	 0.2550642548	-2.2682886024	-0.7572482467	-0.056305
N	 1.5431602895	-2.0713954402	-0.0540754767	-0.324986
C	 0.2949400998	-2.2701199616	 0.7245096751	-0.044775
H	-0.3238512165	 2.073504497	 0.8387827934	 0.120614
H	-0.3134014564	 1.9515413047	-0.9865192398	 0.111388
H	 1.8017719417	 0.8056638563	-0.7963584916	 0.235666
H	-0.8269983675	-0.7408866715	 2.0108470585	 0.084322
H	-0.8952126308	-0.7015869468	-1.9692278077	 0.080203
H	 0.072484487	-3.1491885819	-1.360114597	 0.100549
H	 2.055983474	-2.9522810251	-0.063763758	 0.231204
H	 0.1574046319	-3.1580882781	 1.3287378148	 0.101709
184.5321	239.2797	282.8945	384.0183	438.5855	507.4341	608.1609	674.9671	719.4868	772.9489	831.5748	836.6714	851.7883	868.3357	894.8458	909.323	915.6669	929.4852	961.5434	982.6538	1035.1298	1058.7443	1066.2286	1105.7822	1131.9218	1136.3659	1182.7073	1187.2099	1226.4315	1237.5699	1253.9066	1260.3367	1300.3503	1333.8859	1388.5228	1456.6946	1532.0965	3100.0183	3128.164	3145.6166	3184.0053	3187.2224	3197.3802	3475.538	3520.4824
C1NC11C2OC1C1NC21	C1N[C@]21[C@H]1O[C@@H]2[C@H]2N[C@@H]12	
InChI=1S/C6H8N2O/c1-6(7-1)4-2-3(8-2)5(6)9-4/h2-5,7-8H,1H2	InChI=1S/C6H8N2O/c1-6(7-1)4-2-3(8-2)5(6)9-4/h2-5,7-8H,1H2/t2-,3+,4+,5-,6-
