17
gdb 84700	2.94237	1.73058	1.46349	2.4811	67.85	-0.248	-0.0028	0.2452	931.0118	0.138452	-458.966321	-458.959341	-458.958397	-458.997543	28.027	
O	 0.0463821375	 1.4380866887	-0.0609864777	-0.433238
C	 0.067896499	 0.0158166132	-0.024568423	 0.081847
C	 0.8332855531	-0.4940966579	 1.1759158345	-0.112188
C	 0.2175957677	-1.1761551252	 2.1417875247	-0.057269
C	-1.2560996774	-1.4749214089	 2.000123709	-0.006899
C	-1.4951418689	-2.6193078673	 0.9938357169	-0.078829
O	-1.3427078313	-1.9554015204	-0.2604290826	-0.272379
C	-1.3626593473	-0.5544583328	 0.0002834376	 0.137047
O	-1.8985042723	-0.3981877752	 1.297426355	-0.262194
H	-0.3747410422	 1.7226389787	 0.7593692135	 0.283706
H	 0.5501739074	-0.2991352698	-0.9557345384	 0.103884
H	 1.8857879619	-0.2335790554	 1.2372048789	 0.105197
H	 0.7447078263	-1.5528906017	 3.0130830524	 0.098899
H	-1.7635356688	-1.6097654215	 2.9560725566	 0.094938
H	-0.7645836647	-3.4290854751	 1.0692468083	 0.114084
H	-2.5099480701	-3.0250591858	 1.0911709779	 0.106018
H	-2.0100917498	-0.0404796236	-0.7154445836	 0.097377
122.5976	215.7733	250.7207	353.225	400.2507	416.1935	485.356	555.0264	588.0193	719.6927	742.7805	809.698	855.7803	864.9035	899.1328	946.089	972.2672	987.8267	1004.1892	1035.4872	1052.1143	1070.6092	1091.072	1144.7469	1181.5942	1206.1991	1246.7708	1267.3363	1311.7302	1318.9006	1339.3967	1366.8539	1385.7149	1403.3055	1422.7292	1514.2469	1700.3215	3023.8515	3066.087	3084.8671	3096.1334	3114.1459	3164.5143	3186.5777	3788.4161
OC1C=CC2COC1O2	O[C@H]1C=C[C@@H]2CO[C@H]1O2	
InChI=1S/C6H8O3/c7-5-2-1-4-3-8-6(5)9-4/h1-2,4-7H,3H2	InChI=1S/C6H8O3/c7-5-2-1-4-3-8-6(5)9-4/h1-2,4-7H,3H2/t4-,5+,6+/m1/s1
