26
gdb 100117	3.40298	0.84434	0.83131	1.0314	93.33	-0.2299	0.0782	0.3081	1595.5664	0.238749	-369.590759	-369.579814	-369.57887	-369.626553	41.315	
C	-0.0767553032	 1.5368736526	 0.1593336201	-0.402274
C	 0.0141710063	 0.0206844425	-0.0466171582	-0.179759
C	 0.7428504426	-0.4636721945	-1.3261328637	 0.260971
C	 0.0671504162	 0.096743359	-2.5910315661	-0.408324
C	 2.2245582625	-0.0473880029	-1.2992648329	-0.412702
C	 0.6261365681	-2.0062881763	-1.3359920552	-0.151685
N	 1.2845643406	-2.6315219209	-2.4802400161	-0.068448
C	 2.5898263386	-3.243065549	-2.252663154	-0.21823
C	 1.3798020627	-4.085826038	-2.4474396926	-0.221164
H	 0.9109507113	 2.0030962116	 0.2277825197	 0.116728
H	-0.6217204968	 2.0268922609	-0.6530248018	 0.118866
H	-0.60701972	 1.7610315156	 1.0904396149	 0.110854
H	 0.5118042859	-0.4248531091	 0.8255450405	 0.086846
H	-1.0041206479	-0.3916619213	-0.055582001	 0.088018
H	 0.2125406419	 1.1773949803	-2.6808012167	 0.105245
H	 0.4829256481	-0.3805742906	-3.4816617217	 0.130004
H	-1.0119657007	-0.0968316475	-2.5792185152	 0.100465
H	 2.7364796863	-0.4523800248	-0.4181970366	 0.099343
H	 2.7470263522	-0.4077212646	-2.1893873302	 0.124845
H	 2.3315705029	 1.0411008133	-1.2744524311	 0.109924
H	 1.0107314002	-2.4088228949	-0.379979841	 0.070596
H	-0.4371913443	-2.273425194	-1.3878071977	 0.095148
H	 3.3173426277	-3.1245364977	-3.0509038623	 0.115042
H	 3.0064800927	-3.1977791742	-1.2473961633	 0.109318
H	 0.99058858	-4.6019340404	-1.5705569363	 0.106105
H	 1.202719136	-4.5954942949	-3.3905390215	 0.114268
71.8663	77.413	107.6871	142.2453	216.2014	258.6159	273.5867	280.949	305.6769	322.4736	350.2862	390.329	407.618	441.2872	555.9309	738.4737	770.5103	783.7035	838.4518	876.641	899.1045	935.5936	958.9869	968.9863	999.8092	1020.6103	1033.8517	1043.3847	1083.5168	1096.6711	1115.1254	1119.5076	1170.0594	1177.1301	1217.0835	1234.1411	1264.964	1291.4034	1322.6679	1354.6492	1371.54	1384.5696	1397.9838	1409.6805	1424.662	1476.8491	1483.1271	1486.2626	1491.9568	1493.9489	1508.4689	1509.7783	1512.2194	1514.923	1524.2518	2922.4054	3005.2725	3028.1083	3031.6519	3034.8049	3040.3965	3041.5307	3089.5121	3093.9866	3095.1118	3096.8133	3103.2623	3110.6637	3116.1519	3124.1735	3171.4612	3186.1108
CCC(C)(C)CN1CC1	CCC(C)(C)CN1CC1	
InChI=1S/C8H17N/c1-4-8(2,3)7-9-5-6-9/h4-7H2,1-3H3	InChI=1S/C8H17N/c1-4-8(2,3)7-9-5-6-9/h4-7H2,1-3H3
