21
gdb 94719	3.32433	1.29378	1.11123	1.6261	78.82	-0.2438	0.0909	0.3347	1189.2572	0.182234	-424.225182	-424.216459	-424.215515	-424.258035	34.12	
C	 0.056276463	 1.4959749408	 0.0322693948	-0.407705
C	 0.0410157447	-0.0162744517	-0.0019919876	 0.218412
O	 0.6623069662	-0.4506157449	-1.1888906729	-0.246736
C	 0.4890755461	-1.8474022543	-1.37727979	-0.152008
C	 0.9006837396	-2.6477186352	-0.152601188	 0.268863
C	 0.3788789546	-4.068147954	-0.1172350983	-0.468657
C	 2.2482542386	-2.3506132905	 0.472439673	-0.341998
C	 0.9831482949	-1.8616477773	 1.1351629703	 0.072278
O	 0.7340421527	-0.4813420493	 1.1372808945	-0.26068
H	 1.0881817256	 1.8506511858	-0.0252963654	 0.134606
H	-0.5068235489	 1.8947288428	-0.8144697669	 0.123343
H	-0.3901724227	 1.8519103309	 0.9634335483	 0.126755
H	-0.9928317985	-0.4112540458	 0.0170362546	 0.054218
H	-0.5685910116	-2.0613367148	-1.6089860003	 0.087964
H	 1.0867753045	-2.11786349	-2.2540582806	 0.110864
H	 0.7793771636	-4.6566905647	-0.9516927887	 0.120153
H	 0.6703189552	-4.5732891225	 0.8086424625	 0.119398
H	-0.715069372	-4.0945744256	-0.1838916012	 0.117836
H	 2.796629181	-3.1694699213	 0.9264028504	 0.105913
H	 2.8572473104	-1.5812983033	 0.0106750704	 0.126082
H	 0.6581710029	-2.3362754753	 2.058045001	 0.091098
101.6078	183.2051	205.9998	214.6947	250.1128	288.683	342.5668	375.543	399.9749	478.085	531.6212	571.7049	638.6232	763.0921	790.0787	855.4868	880.9149	919.983	925.4862	977.7197	1019.4186	1045.5097	1051.4472	1076.3025	1103.7033	1115.5968	1128.7457	1149.2641	1178.1202	1193.2323	1263.2636	1291.09	1335.7427	1368.1701	1388.0925	1406.2895	1419.1398	1421.0066	1432.3006	1477.4726	1483.2948	1488.7943	1491.1043	1496.9145	1506.5424	2917.2077	2957.7253	3020.4874	3058.2531	3067.1795	3079.7808	3100.3105	3127.3786	3132.0297	3140.2598	3141.0597	3224.1485
CC1OCC2(C)CC2O1	C[C@H]1OC[C@@]2(C)C[C@H]2O1	
InChI=1S/C7H12O2/c1-5-8-4-7(2)3-6(7)9-5/h5-6H,3-4H2,1-2H3	InChI=1S/C7H12O2/c1-5-8-4-7(2)3-6(7)9-5/h5-6H,3-4H2,1-2H3/t5-,6+,7+/m0/s1
