16
gdb 68131	4.05571	1.23792	1.11282	4.4702	74.12	-0.2551	-0.0147	0.2404	1077.0191	0.124607	-400.727496	-400.72001	-400.719066	-400.75907	30.016	
O	-0.1033429635	 1.4169518025	-0.0014424785	-0.478588
C	-0.0149141958	 0.0350957895	 0.0114791543	 0.356783
C	 0.3407375691	-0.8044140108	 1.2962694179	-0.30356
C	-0.3485683757	-1.9265521236	 0.4331812205	 0.170298
C	-1.3330252195	-0.7926717824	-0.0494759621	-0.269904
C	 0.6179687923	-1.9896516075	-0.7709080093	-0.113415
C	 0.8331947477	-0.7044120429	-1.0454734368	-0.181059
C	-0.8236489513	-3.1568906306	 1.017406064	 0.16001
N	-1.2048862231	-4.1415155961	 1.488744699	-0.343487
H	 0.7850985321	 1.7873078903	 0.0381654968	 0.286436
H	 1.393142272	-0.9562470971	 1.54152274	 0.108962
H	-0.2462542523	-0.5170125055	 2.1721008241	 0.12051
H	-2.0584961807	-0.50407302	 0.7149514163	 0.122317
H	-1.802126282	-0.9315115094	-1.0239432844	 0.117301
H	 0.9843855455	-2.8948850133	-1.231208233	 0.130734
H	 1.4322996053	-0.2406280832	-1.8164425289	 0.116663
145.3915	151.9503	249.9648	335.5792	359.1569	449.4282	501.1855	522.708	524.7559	570.2993	574.6422	636.9403	693.9615	713.812	859.0287	880.9273	905.0596	935.4979	941.8656	1005.5542	1035.7668	1056.3136	1062.3431	1131.3345	1139.759	1176.6895	1192.042	1234.0486	1299.1809	1329.7727	1372.8066	1476.3867	1516.5565	1632.2641	2356.7863	3064.6495	3075.8599	3142.7214	3151.3829	3226.5311	3256.3176	3808.7128
OC12CC(C1)(C=C2)C#N	O[C@@]12C[C@@](C1)(C=C2)C#N	
InChI=1S/C7H7NO/c8-5-6-1-2-7(9,3-6)4-6/h1-2,9H,3-4H2	InChI=1S/C7H7NO/c8-5-6-1-2-7(9,3-6)4-6/h1-2,9H,3-4H2/t6-,7+
