18
gdb 22832	2.2665	1.51181	0.97539	2.2178	71.49	-0.243	-0.0029	0.2401	1183.198	0.14804	-476.183804	-476.175297	-476.174353	-476.216799	32.513	
O	 0.0306673203	 1.2617095851	-0.0179251721	-0.397811
N	 0.0551484535	-0.1364869334	-0.0382505374	-0.218925
C	-1.099057778	-0.6726062942	 0.0267356807	 0.337356
C	-2.4381219441	 0.0083137558	 0.0663522185	-0.314865
C	-3.3339198576	-0.5899027656	-1.0376716474	-0.078592
O	-3.3873974313	-2.001037572	-0.9611525602	-0.239751
C	-2.1167827145	-2.5942497963	-1.1472116824	-0.103662
C	-1.1362035742	-2.1831678605	-0.0263879826	 0.066814
O	 0.1186924946	-2.7734199182	-0.2460274637	-0.439447
H	 0.9655155846	 1.4857686685	-0.0755378984	 0.309618
H	-2.9103054228	-0.1804807263	 1.0381043941	 0.127822
H	-2.3303339147	 1.0870579231	-0.0573186276	 0.136988
H	-4.3615792112	-0.232477535	-0.9329163668	 0.114847
H	-2.958830674	-0.2752825501	-2.0252087336	 0.099772
H	-2.2608760907	-3.677079637	-1.136885691	 0.120221
H	-1.6782661111	-2.3083500262	-2.1169167807	 0.096286
H	-1.5603164386	-2.5423411266	 0.9263357009	 0.091636
H	 0.7597763999	-2.0487061911	-0.2628609004	 0.291693
85.3829	163.1405	225.0623	253.3691	299.9864	317.1902	361.8467	364.6051	427.5315	451.9868	476.365	536.6293	649.0605	689.6604	785.4376	858.2654	912.8524	990.3972	1004.6246	1026.3645	1061.333	1107.3768	1120.6354	1139.8514	1198.0682	1235.5086	1258.0488	1293.8873	1303.6219	1330.1882	1344.666	1383.2464	1406.3355	1415.876	1440.1232	1470.2705	1493.0788	1506.2113	1747.3656	2963.6103	2975.9349	2986.3625	3041.7692	3095.1898	3106.7964	3128.3279	3727.1014	3821.6975
ON=C1CCOCC1O	ON=C1CCOC[C@H]1O	
InChI=1S/C5H9NO3/c7-5-3-9-2-1-4(5)6-8/h5,7-8H,1-3H2	InChI=1S/C5H9NO3/c7-5-3-9-2-1-4(5)6-8/h5,7-8H,1-3H2/t5-/m1/s1
