20
gdb 49311	3.04955	1.1567	0.87303	5.7335	87.7	-0.2096	-0.0173	0.1923	1324.249	0.173827	-403.184957	-403.176571	-403.175626	-403.218109	32.147	
O	-0.1885468294	 0.0156390374	-0.4745125518	-0.317723
C	 0.0107178295	 1.2138190589	-0.4151808269	 0.105938
C	 1.2467457165	 1.8467877491	 0.0346274277	 0.128265
C	 1.2282204316	 3.2056075891	 0.013581289	-0.019049
N	 2.1764280548	 4.123044295	 0.3525186628	-0.303227
C	 3.2599049301	 3.9389456449	 1.3132790926	-0.151744
C	 4.1120387209	 2.6861861074	 1.1128465497	-0.185934
C	 3.3804181071	 1.3807788353	 1.4439637346	-0.206244
C	 2.3935992709	 0.9265072576	 0.3654432167	-0.295319
H	-0.7892544185	 1.9328076304	-0.7143053148	 0.04344
H	 0.3210708047	 3.6695460413	-0.372535364	 0.102842
H	 1.8613579258	 5.077849689	 0.2888950812	 0.247648
H	 3.8929543514	 4.828643572	 1.2354148095	 0.108891
H	 2.854792675	 3.9194460111	 2.3387520229	 0.107156
H	 4.4948098732	 2.65881646	 0.084653266	 0.104671
H	 4.9817516447	 2.7929967431	 1.7717341815	 0.101824
H	 4.119988891	 0.5838807445	 1.5819369785	 0.098123
H	 2.8628888941	 1.4925935475	 2.4064753418	 0.094499
H	 1.9593990673	-0.0412243662	 0.6351949251	 0.127825
H	 2.9635777092	 0.7384845728	-0.5579909719	 0.108121
69.7236	151.6021	178.0455	226.5144	306.9986	352.1261	370.5414	413.109	444.1392	501.7657	559.9579	604.9422	729.2476	765.4227	823.1588	891.5021	919.7826	926.6086	942.0533	997.8917	1026.2288	1068.3668	1104.0133	1109.6959	1178.2682	1195.7974	1261.498	1295.096	1305.3696	1317.2707	1367.2267	1379.3147	1388.9731	1401.5253	1423.3885	1459.4792	1475.2973	1486.3371	1488.3296	1502.2178	1553.1749	1700.4104	1770.9184	2833.928	2965.5242	2986.6446	3017.3278	3025.6332	3063.15	3069.9826	3070.994	3079.7127	3130.4634	3624.5864
O=CC1=CNCCCC1	O=CC1=CNCCCC1	
InChI=1S/C7H11NO/c9-6-7-3-1-2-4-8-5-7/h5-6,8H,1-4H2	InChI=1S/C7H11NO/c9-6-7-3-1-2-4-8-5-7/h5-6,8H,1-4H2
