18
gdb 126266	2.40723	1.33116	0.91109	3.1191	76.36	-0.2189	-0.0067	0.2122	1302.743	0.146802	-439.072126	-439.06297	-439.062026	-439.107219	32.256	
C	 0.0835196354	 1.5362560314	 0.3707609796	-0.373843
C	 0.0256604632	 0.0755769638	-0.1108815301	-0.301532
C	-1.3546912018	-0.4793037108	-0.1494307603	 0.331397
C	-2.162800244	-0.8942444103	-1.1705225412	 0.14693
O	-1.8209392455	-0.8877910204	-2.4815955781	-0.266111
C	-2.8017040001	-1.3832901452	-3.3763807962	-0.254196
C	-3.3635044178	-1.2997087361	-0.5246289753	-0.079644
N	-3.2876936035	-1.1417617335	 0.7767538833	-0.143359
O	-2.0243385458	-0.6250224804	 1.0147541626	-0.214798
H	 1.1183662964	 1.8896565239	 0.3962724516	 0.116832
H	-0.4858997607	 2.1905997055	-0.2958207762	 0.125328
H	-0.335790599	 1.6303945438	 1.375993441	 0.137639
H	 0.4398861306	-0.0092380927	-1.1201847076	 0.12806
H	 0.6468908421	-0.5493302973	 0.5428694018	 0.12581
H	-2.3714989215	-1.3132471219	-4.3764093108	 0.14033
H	-3.0480404251	-2.4315875827	-3.1616634076	 0.126064
H	-3.7208505579	-0.7838633202	-3.3361550038	 0.1258
H	-4.271025625	-1.6982090269	-0.9532425524	 0.129293
45.9624	55.9073	146.1545	170.382	211.6797	232.0154	300.3885	316.8139	397.6205	529.4103	607.3829	651.9683	698.5072	728.3457	787.4903	880.2644	934.9648	956.1834	978.5497	1053.9111	1078.7113	1089.1024	1172.1128	1180.1205	1212.2335	1241.4588	1252.7505	1318.915	1355.0137	1406.213	1423.7926	1474.9347	1490.3487	1492.984	1496.8637	1499.727	1507.0109	1516.2807	1688.3055	3001.8572	3031.8377	3044.2148	3060.38	3087.2949	3116.5906	3125.7854	3138.792	3251.2048
CCC1=C(OC)C=NO1	CCc1c(OC)cno1	
InChI=1S/C6H9NO2/c1-3-5-6(8-2)4-7-9-5/h4H,3H2,1-2H3	InChI=1S/C6H9NO2/c1-3-5-6(8-2)4-7-9-5/h4H,3H2,1-2H3
