18
gdb 115193	4.57408	0.97324	0.83314	3.9417	75.95	-0.2428	-0.0365	0.2063	1357.1249	0.14856	-439.115916	-439.107309	-439.106365	-439.149519	31.661	
C	 0.1137211393	 1.3554020403	 0.0786497795	-0.242777
O	 0.0081009899	-0.0431462785	-0.0734336824	-0.241354
C	-1.3200409742	-0.5351510176	-0.0421628911	 0.084756
C	-1.3022028557	-1.8782579833	-0.7729215291	-0.194865
N	-2.5645685927	-2.5752051681	-0.5718992886	-0.348444
C	-3.1588465207	-2.6864235306	 0.6640226713	 0.403187
O	-4.044238482	-3.4905178884	 0.8964059719	-0.379065
C	-2.6649980902	-1.7174278176	 1.6797610951	-0.155464
C	-1.8353421499	-0.7213174514	 1.3662871845	-0.089481
H	 1.1743763507	 1.6056848649	 0.0042741067	 0.134933
H	-0.4365067819	 1.8902298954	-0.7106282298	 0.111302
H	-0.2587427229	 1.7035957335	 1.0532715873	 0.110749
H	-1.9874360893	 0.163494861	-0.5774738959	 0.089289
H	-1.1479762404	-1.7149282254	-1.8421635126	 0.11928
H	-0.4434009597	-2.4524422696	-0.3939438005	 0.120864
H	-2.8038710222	-3.3215410672	-1.2082071594	 0.248261
H	-3.0641008798	-1.8591494798	 2.6774363794	 0.118089
H	-1.5168144783	-0.0000599476	 2.1140931439	 0.110739
75.3328	95.7766	171.7801	190.5642	260.4793	278.6939	366.28	421.0869	464.2029	501.1287	565.6187	605.0218	701.6504	751.1102	813.4077	848.0115	941.2387	1004.1989	1012.8128	1050.0127	1077.7934	1137.3132	1146.43	1177.0074	1186.544	1220.3567	1253.6122	1298.5133	1339.5742	1367.5875	1387.687	1406.8184	1470.1065	1479.6027	1490.2779	1509.0663	1513.7332	1689.0049	1787.3172	2942.839	2980.7785	2997.5692	3029.1151	3095.8372	3120.1754	3165.2087	3208.3465	3613.5826
COC1CNC(=O)C=C1	CO[C@H]1CNC(=O)C=C1	
InChI=1S/C6H9NO2/c1-9-5-2-3-6(8)7-4-5/h2-3,5H,4H2,1H3,(H,7,8)	InChI=1S/C6H9NO2/c1-9-5-2-3-6(8)7-4-5/h2-3,5H,4H2,1H3,(H,7,8)/t5-/m1/s1
