23
gdb 119728	3.34326	1.00049	0.89344	1.5112	85.74	-0.2362	0.0743	0.3106	1441.289	0.205532	-388.269369	-388.260006	-388.259062	-388.304071	35.195	
C	 0.0174368297	 1.5720641167	-0.056079455	-0.381879
C	-0.0313817835	 0.0441525402	 0.0197545442	-0.163844
C	-1.4561013059	-0.5157174082	-0.0982906664	-0.274939
C	-1.5003638966	-2.0200686204	 0.0192004317	 0.476989
C	-0.9207404982	-2.9149588353	-1.1108294016	-0.269426
C	-2.1951278362	-3.8141472368	-1.0390552029	-0.227642
C	-2.7785348371	-2.9163161054	 0.0838731677	-0.150343
C	-2.2877696673	-3.2653574757	 1.4956131443	-0.081634
O	-1.0785400472	-2.4901445903	 1.329456512	-0.333655
H	 1.04318288	 1.9428835452	 0.03529612	 0.110995
H	-0.3848569936	 1.9368614339	-1.0081447673	 0.110184
H	-0.5734566168	 2.0270482269	 0.7467451709	 0.114035
H	 0.5936202734	-0.3829840553	-0.7749480537	 0.096116
H	 0.3991147782	-0.2979191844	 0.9674974183	 0.119318
H	-2.0878421238	-0.0806852405	 0.6871709142	 0.094905
H	-1.897448309	-0.2215591823	-1.0604371967	 0.089741
H	-0.801541546	-2.400434692	-2.0686970642	 0.09695
H	 0.0243645894	-3.392803232	-0.8452047219	 0.108494
H	-2.7872515902	-3.7965479014	-1.9568192333	 0.102283
H	-2.0318103717	-4.8588946896	-0.7600109092	 0.099865
H	-3.7974248432	-2.5451201997	-0.0263578195	 0.071163
H	-2.9063728926	-2.8674844277	 2.3108753046	 0.097209
H	-2.0803729917	-4.3252682758	 1.6937128738	 0.095118
65.6796	91.3596	102.6848	127.6469	250.9139	277.3901	303.9919	348.8179	400.2479	404.881	667.3681	693.2407	739.5466	746.7789	829.8627	860.617	882.0583	895.8857	910.5572	944.532	979.5075	996.9516	1008.7387	1041.8958	1047.9898	1060.7208	1117.3902	1145.1611	1147.9605	1180.1683	1194.4561	1217.5795	1234.992	1263.5827	1273.0491	1299.1859	1311.4493	1331.9793	1336.9743	1355.7103	1395.2249	1412.9584	1461.6764	1474.4431	1487.6472	1493.216	1500.6355	1509.3766	1523.721	3000.7666	3010.1067	3025.8198	3028.3025	3041.3155	3046.3531	3054.2351	3060.2364	3070.1781	3097.0733	3099.6565	3100.7432	3110.9508	3123.9388
CCCC12CCC1CO2	CCC[C@]12CC[C@H]1CO2	
InChI=1S/C8H14O/c1-2-4-8-5-3-7(8)6-9-8/h7H,2-6H2,1H3	InChI=1S/C8H14O/c1-2-4-8-5-3-7(8)6-9-8/h7H,2-6H2,1H3/t7-,8-/m0/s1
