18
gdb 81320	3.94275	1.14553	1.06241	1.3809	88.69	-0.2123	-0.0262	0.1861	1192.097	0.147038	-364.721696	-364.71372	-364.712776	-364.753847	31.845	
C	-0.2370925269	 1.4366406538	 0.0438325514	-0.330739
N	 0.0272246367	 0.0027172269	 0.0482156926	-0.091377
C	 1.1937911937	-0.4764751112	-0.8148610085	-0.049068
C	 2.1774763185	-0.0457214582	 0.3229236689	-0.231735
C	 0.9399380194	-0.5120327557	 1.15111499	-0.122319
C	 0.9090641617	-2.0158341376	 0.7913821269	 0.323094
C	 1.0832104709	-1.9754441284	-0.5424822816	-0.196334
C	 0.7228527017	-3.0803232733	 1.6870426291	 0.061296
C	 0.5659651233	-3.9653558895	 2.4912629129	-0.363786
H	 0.634410403	 2.1009308259	 0.1668290658	 0.093688
H	-0.7248372734	 1.6959836095	-0.9018832013	 0.122553
H	-0.9444947565	 1.6601038078	 0.8495842938	 0.124214
H	 1.2586098044	-0.1204713457	-1.842551551	 0.072875
H	 3.1133766758	-0.5980667016	 0.4343978817	 0.103095
H	 2.3610257337	 1.0295107875	 0.3676936086	 0.105077
H	 0.7392851994	-0.2154337625	 2.1798074599	 0.078053
H	 1.1148714842	-2.7804455587	-1.2608326292	 0.117814
H	 0.4237642004	-4.7542993989	 3.1870723902	 0.1836
111.9252	146.735	200.5304	295.177	298.2883	411.0288	458.9563	492.977	547.4258	579.5288	596.6061	618.8003	631.8892	748.0945	781.0775	821.9325	848.1275	858.7801	902.7096	929.8542	1001.558	1034.5361	1077.254	1110.4463	1140.5697	1142.3843	1176.3909	1193.1688	1219.402	1235.2229	1256.9824	1277.2965	1293.387	1439.672	1476.3444	1499.7379	1510.8642	1635.0996	2220.2679	2957.3804	3057.4157	3067.9934	3095.4919	3125.922	3128.4322	3134.1541	3250.5744	3503.795
CN1C2CC1C(=C2)C#C	CN1[C@H]2C[C@@H]1C(=C2)C#C	
InChI=1S/C8H9N/c1-3-6-4-7-5-8(6)9(7)2/h1,4,7-8H,5H2,2H3	InChI=1S/C8H9N/c1-3-6-4-7-5-8(6)9(7)2/h1,4,7-8H,5H2,2H3/t7-,8-/m1/s1
