20
gdb 36408	4.22654	1.00168	0.95172	4.2164	82.52	-0.307	0.0391	0.3461	1284.2753	0.174062	-366.023661	-366.015984	-366.01504	-366.056203	30.346	
N	 0.047636038	-1.1661716013	-0.1060072044	-0.311166
C	 0.0082561159	-0.0157641321	-0.0019862816	 0.263433
C	-0.0149887011	 1.4404293543	 0.1277171685	-0.375721
C	 1.3860927687	 2.0661806322	-0.0060203196	 0.042113
C	 2.0628237811	 1.8979377255	-1.4103661848	-0.227759
C	 2.3256010708	 3.3814708806	-1.7396838559	-0.007691
C	 2.8497393858	 3.9264475846	-0.3784546731	-0.230879
C	 1.395721215	 3.6091327411	 0.0778868266	-0.033278
C	 0.9716205928	 4.0432940415	-1.357615469	-0.227362
H	-0.6950871386	 1.8416910432	-0.6319017028	 0.14905
H	-0.4484368234	 1.6914684851	 1.1033239074	 0.147797
H	 2.0156154535	 1.6416258265	 0.7821999915	 0.089515
H	 2.9803741062	 1.3062664815	-1.3614177333	 0.108137
H	 1.3991994892	 1.4202224691	-2.1381385299	 0.106467
H	 2.8280366789	 3.6012057653	-2.6816872634	 0.064592
H	 3.671177714	 3.3946517813	 0.1116972959	 0.091698
H	 3.0556937227	 4.9987387234	-0.4033685521	 0.100053
H	 0.9602344146	 4.0585445381	 0.9718904229	 0.06081
H	 0.9838847525	 5.1285598379	-1.4784676215	 0.102059
H	 0.0532728334	 3.6348459423	-1.7902101511	 0.088133
70.5677	116.6597	197.3957	288.3404	393.816	406.472	433.1889	512.3103	552.1732	651.229	817.196	831.4155	837.0034	853.2333	868.8488	896.2226	941.2281	947.0258	973.293	979.4381	1027.8927	1031.9554	1051.2784	1081.7994	1097.3634	1116.802	1132.2563	1172.3542	1224.2204	1235.7552	1245.5448	1252.7718	1274.2705	1294.9865	1300.8559	1323.4442	1351.1641	1389.5237	1467.1704	1492.3868	1498.2684	1529.8332	2360.1752	3038.279	3049.9719	3051.5114	3053.1141	3057.5196	3081.216	3100.5172	3102.0517	3114.2105	3115.2359	3121.7078
N#CCC1CC2CC1C2	N#CC[C@H]1C[C@@H]2C[C@H]1C2	
InChI=1S/C8H11N/c9-2-1-7-3-6-4-8(7)5-6/h6-8H,1,3-5H2	InChI=1S/C8H11N/c9-2-1-7-3-6-4-8(7)5-6/h6-8H,1,3-5H2/t6-,7-,8+/m0/s1
