18
gdb 38028	3.872	1.47988	1.16823	1.3571	86.81	-0.2036	-0.0128	0.1908	1059.4771	0.151104	-364.805723	-364.798921	-364.797977	-364.836856	27.885	
C	-0.0240853286	 1.4918451615	-0.0101394306	-0.249203
C	 1.4790853759	 1.9232372472	 0.0882957383	-0.362929
C	 2.2311707629	 0.6224727508	-0.0167029785	 0.314091
C	 3.4894257431	 0.1658766843	-0.1174585122	-0.259645
C	 3.4639847081	-1.3363682682	-0.1101270435	-0.065252
N	 2.926604621	-1.9084318701	 1.1569158166	-0.33594
C	 2.025749451	-1.7519107033	-0.0264702002	-0.248026
C	 1.2631799344	-0.47824671	-0.002042781	 0.423585
C	 0.0049346883	-0.0257722028	-0.0101558751	-0.267693
H	-0.6171494559	 1.8879722521	 0.8231334934	 0.110241
H	-0.4969554794	 1.8769620317	-0.9234540832	 0.109888
H	 1.7571562536	 2.6319472689	-0.6977018118	 0.116352
H	 1.6786013883	 2.4213312845	 1.0431393382	 0.124087
H	 4.4026271073	 0.7461048466	-0.152465796	 0.093783
H	 4.2009758461	-1.9121914017	-0.6608536627	 0.086735
H	 3.1900473934	-2.8929491339	 1.201393978	 0.225328
H	 1.6420582743	-2.6433684336	-0.5088561313	 0.090272
H	-0.899482214	-0.623160554	-0.0234965486	 0.094327
106.6976	195.0933	261.6197	392.8585	431.8005	471.0819	607.9325	665.3037	722.9902	761.8763	797.4409	799.3773	822.7637	829.0775	848.0252	875.2714	900.414	911.2394	956.953	992.7781	1025.7368	1034.5974	1079.0981	1121.2441	1159.5874	1162.2225	1183.8136	1234.351	1242.1018	1268.9548	1271.6438	1317.6733	1350.0712	1372.9919	1389.5302	1470.0116	1493.1966	1679.5944	1717.187	3016.9056	3041.715	3050.8416	3084.729	3159.123	3178.9537	3197.7729	3211.6485	3461.3144
C1CC2=CC3NC3C2=C1	C1CC2=C[C@H]3N[C@H]3C2=C1	
InChI=1S/C8H9N/c1-2-5-4-7-8(9-7)6(5)3-1/h3-4,7-9H,1-2H2	InChI=1S/C8H9N/c1-2-5-4-7-8(9-7)6(5)3-1/h3-4,7-9H,1-2H2/t7-,8+/m1/s1
