21
gdb 122152	1.98236	1.32692	1.27931	2.4338	71.85	-0.2525	0.0717	0.3242	1178.0096	0.182977	-498.475983	-498.466561	-498.465617	-498.510043	35.624	
O	-1.016850496	 1.3884136164	-1.046914242	-0.432921
C	-0.4900428915	 0.3567843325	-0.2242564105	-0.069012
C	-1.5892381902	-0.5914075935	 0.2480400576	-0.0883
O	-2.2087946013	-1.183406157	-0.8792032804	-0.289935
C	-3.5284299593	-0.8485913208	-1.3160964113	 0.091725
C	-4.255539458	 0.3025042639	-0.6004167302	-0.115006
O	-3.7950076336	 1.6110687874	-0.9004947777	-0.440289
C	-3.4388859673	-0.6242473801	-2.8322259992	-0.067073
O	-2.716981277	 0.5496881582	-3.1888994153	-0.423502
H	-1.3046855522	 0.9783521006	-1.8843603746	 0.304207
H	 0.2758442499	-0.2135816887	-0.7669950128	 0.108414
H	-0.0102787228	 0.836869374	 0.6359230259	 0.107003
H	-1.1537850875	-1.3948378682	 0.8577581974	 0.102177
H	-2.2993737688	-0.0513861332	 0.8837768794	 0.104851
H	-4.1621099516	-1.7378191152	-1.1561364246	 0.078473
H	-5.2976310503	 0.2648376251	-0.937139237	 0.115125
H	-4.278667805	 0.1228456624	 0.4842156048	 0.107353
H	-2.8430094939	 1.674669915	-0.690724978	 0.299486
H	-2.9044987152	-1.4671765296	-3.2786041581	 0.120251
H	-4.4546604609	-0.6019906146	-3.2552731995	 0.092903
H	-3.2035932374	 1.2833927254	-2.7801141139	 0.29407
74.6317	139.3428	187.0875	192.8419	203.8893	264.4863	283.5941	313.7034	371.174	389.0021	500.5396	527.7822	626.7592	669.9866	736.4388	809.2729	861.5362	881.3217	895.5151	923.9817	954.0286	977.2731	1056.2822	1075.1864	1105.9773	1118.1554	1135.3928	1166.3505	1226.1596	1251.2521	1271.9684	1295.3332	1340.2045	1370.8945	1392.6799	1393.4698	1403.8092	1415.6034	1444.6604	1458.8458	1484.4601	1492.9144	1494.3656	1497.303	1515.6029	2956.232	2996.6672	3000.8875	3012.0229	3020.8036	3065.1532	3067.9305	3082.1768	3096.8002	3539.4712	3599.927	3688.4729
OCCOC(CO)CO	OCCOC(CO)CO	
InChI=1S/C5H12O4/c6-1-2-9-5(3-7)4-8/h5-8H,1-4H2	InChI=1S/C5H12O4/c6-1-2-9-5(3-7)4-8/h5-8H,1-4H2
