20
gdb 91341	2.98835	1.39154	1.16319	1.1158	79.41	-0.2359	0.026	0.2619	1148.3799	0.171688	-403.172428	-403.16402	-403.163076	-403.205508	32.124	
C	 0.0533535861	 1.5824590936	 0.0204652446	-0.39802
C	 0.025395841	 0.0628594095	 0.0592492179	 0.030177
C	 0.8989878282	-0.7246104015	-0.9731319348	-0.270889
C	 1.4458244635	-1.611661119	 0.1708750424	 0.08407
O	 2.857011099	-1.4748429526	 0.4172135258	-0.261381
C	 2.9640401768	-0.4595804678	 1.3285390296	 0.397864
C	 4.3623559445	-0.0671849697	 1.6621876633	-0.47367
N	 1.900356799	 0.0465759269	 1.812613133	-0.306181
C	 0.772532003	-0.675526045	 1.2165758227	-0.033451
H	 1.0764080144	 1.9569327546	 0.1165699395	 0.123418
H	-0.3639319149	 1.9531127086	-0.9224261471	 0.108316
H	-0.5321554533	 2.0118254311	 0.83999556	 0.118673
H	-1.0109091232	-0.2900399066	 0.0202396738	 0.071611
H	 0.3599174202	-1.2429180967	-1.7695114524	 0.10266
H	 1.6908682908	-0.1205415287	-1.4246496769	 0.107549
H	 1.20157386	-2.673605513	 0.1391390138	 0.085529
H	 4.9176460539	-0.9336240167	 2.0349242241	 0.145431
H	 4.8809529191	 0.2884122046	 0.7661625608	 0.143581
H	 4.3544057597	 0.7177369322	 2.4174505876	 0.151149
H	 0.139199022	-1.0960726438	 2.0030159023	 0.073564
78.9088	133.7562	145.9229	222.6209	257.2155	325.0343	352.4486	413.6558	509.8521	605.9733	625.0189	683.6921	750.4988	805.7338	864.0586	897.2198	916.9505	929.1954	937.4826	974.024	1022.4234	1048.435	1067.6849	1112.4958	1119.7796	1137.2264	1174.3239	1221.0547	1228.9019	1257.2149	1284.1077	1294.319	1325.9164	1349.3732	1372.289	1410.4493	1413.6655	1474.018	1475.368	1476.6532	1490.3	1498.4208	1720.6674	3032.4177	3040.5213	3050.3885	3059.9471	3062.5749	3097.0231	3105.934	3107.2373	3113.7697	3121.5907	3166.4905
CC1CC2OC(C)=NC12	C[C@H]1C[C@H]2OC(=N[C@@H]12)C	
InChI=1S/C7H11NO/c1-4-3-6-7(4)8-5(2)9-6/h4,6-7H,3H2,1-2H3	InChI=1S/C7H11NO/c1-4-3-6-7(4)8-5(2)9-6/h4,6-7H,3H2,1-2H3/t4-,6+,7-/m0/s1
