17
gdb 39201	2.71844	2.23358	1.8849	2.3565	70.25	-0.2327	-0.0065	0.2262	812.0611	0.139697	-421.800209	-421.794347	-421.793403	-421.83005	25.322	
C	-0.0145478543	 1.5003907109	 0.1001392897	-0.085244
O	 1.3050777936	 2.0183791552	-0.0691011013	-0.256661
C	 2.0958061749	 1.2379214723	-0.9717653451	 0.027749
C	 1.5117279738	 1.3413481876	-2.3737005134	-0.08975
C	 0.5816165571	 0.3972368145	-2.5476959678	-0.099878
C	 0.5667887577	-0.5309093188	-1.364349251	-0.081374
C	 0.0242564703	-0.0282696049	 0.0273592054	 0.044967
O	 1.2686925774	-0.4326377286	 0.66208011	-0.284854
C	 1.8909854659	-0.2771547516	-0.628546948	 0.078958
H	-0.3463171668	 1.836229762	 1.0870753282	 0.115509
H	-0.7055742457	 1.9023125821	-0.656715504	 0.092732
H	 3.1174702504	 1.6031745897	-0.8565010963	 0.08234
H	 1.7314247383	 2.1610025266	-3.0472313987	 0.105955
H	-0.0716030883	 0.2970449797	-3.4067719271	 0.102781
H	 0.3096088512	-1.5722415573	-1.5597493717	 0.079733
H	-0.8548702936	-0.511256262	 0.4606935234	 0.082466
H	 2.7704914481	-0.9067609775	-0.7785880823	 0.084572
265.8807	293.6896	387.3476	438.1435	510.3624	585.2844	652.0018	700.8151	752.5651	780.6278	819.3028	841.2491	881.8444	908.1239	953.2079	957.8778	972.8521	985.792	1000.2118	1025.6771	1029.3604	1078.8402	1088.1383	1133.4623	1164.5876	1218.1242	1242.7945	1268.7486	1278.3432	1306.468	1314.5226	1346.0149	1347.8039	1373.5605	1398.5784	1494.5034	1653.3942	2990.5387	3077.8375	3087.5167	3090.4773	3103.9964	3112.1884	3190.8905	3216.3057
C1OC2C=CC3C1OC23	C1O[C@@H]2C=C[C@@H]3[C@H]1O[C@H]23	
InChI=1S/C7H8O2/c1-2-5-7-4(1)6(9-7)3-8-5/h1-2,4-7H,3H2	InChI=1S/C7H8O2/c1-2-5-7-4(1)6(9-7)3-8-5/h1-2,4-7H,3H2/t4-,5-,6+,7+/m1/s1
