21
gdb 97927	3.94921	0.65048	0.62524	1.598	88.39	-0.2427	0.0529	0.2956	1910.8632	0.179651	-387.054803	-387.044188	-387.043244	-387.092609	37.523	
C	-0.0944468594	 1.5146656943	-0.518426032	-0.363563
C	-0.0364801539	 0.1539143547	 0.1996913671	-0.313779
C	-1.3511111705	-0.4568431092	 0.3713407728	 0.092085
C	-2.4503455011	-0.9332175264	 0.4970027542	 0.048591
C	-3.7743083109	-1.5322396356	 0.6451167046	-0.420357
C	-3.8479755463	-2.9777046507	 0.151737152	 0.429887
C	-2.9020390956	-3.9578488482	 0.8058947131	-0.457613
C	-5.1075599626	-3.4478119273	-0.4416695698	-0.231722
O	-3.9883722241	-3.1118190821	-1.2668284045	-0.265806
H	 0.9107780479	 1.9330105445	-0.6264449534	 0.112776
H	-0.5336006684	 1.4089843838	-1.5140500817	 0.130385
H	-0.7050070639	 2.2254648878	 0.0451915149	 0.12645
H	 0.6104725533	-0.5293615834	-0.3652460741	 0.129147
H	 0.4417557348	 0.2773657414	 1.1799269531	 0.125394
H	-4.0769912897	-1.5070173299	 1.7011063105	 0.125534
H	-4.5139735523	-0.9415392307	 0.092801123	 0.131181
H	-3.1109483588	-4.0416587477	 1.8781425676	 0.117874
H	-3.0029824942	-4.9459732596	 0.3511690948	 0.124765
H	-1.867495476	-3.6225916881	 0.6893329762	 0.14035
H	-5.3597943846	-4.507002841	-0.4019621422	 0.110187
H	-5.9610876234	-2.7739297067	-0.5137482364	 0.108232
14.1555	48.0454	81.5917	139.7989	187.1721	196.6842	269.7333	312.2894	351.6604	355.4002	392.074	400.172	508.4087	522.4777	732.6066	752.952	785.9555	840.1876	891.8461	927.506	933.2889	968.2204	1042.6222	1078.9334	1101.4552	1106.6973	1134.567	1161.4756	1166.6016	1219.9131	1282.8345	1285.811	1324.6849	1350.8356	1400.3021	1408.5321	1425.1114	1455.6336	1476.5456	1481.7347	1494.5617	1498.7372	1506.001	1534.9244	2367.1952	3014.1246	3019.4095	3039.9863	3043.7877	3046.0125	3061.6155	3076.3878	3107.8048	3116.8165	3123.5963	3129.8356	3160.5133
CCC#CCC1(C)CO1	CCC#CC[C@@]1(C)CO1	
InChI=1S/C8H12O/c1-3-4-5-6-8(2)7-9-8/h3,6-7H2,1-2H3	InChI=1S/C8H12O/c1-3-4-5-6-8(2)7-9-8/h3,6-7H2,1-2H3/t8-/m0/s1
