23
gdb 57790	4.27779	0.61513	0.58948	0.1249	97.44	-0.2362	0.0537	0.2899	2036.7182	0.204926	-351.130564	-351.120158	-351.119214	-351.168054	37.755	
C	 0.6908749109	 1.7484801599	-0.2825465722	-0.371898
C	 0.0499127099	 0.3689039357	-0.0317516826	-0.123883
C	 0.2802437643	-0.5793462952	-1.2255017355	-0.371862
C	 0.5385919426	-0.2227358323	 1.2146915765	 0.143857
C	 0.9615835084	-0.7050150389	 2.2364068738	-0.012304
C	 1.4478293135	-1.3136070519	 3.4581058777	-0.140306
C	 0.4321916379	-1.9948809537	 4.4344451879	-0.2125
C	 1.487056812	-3.1009312554	 4.6985003095	-0.216899
C	 2.2023406065	-2.682713093	 3.3872543419	-0.212159
H	 1.7746014475	 1.6527498511	-0.4021950589	 0.121755
H	 0.2830817642	 2.1983375415	-1.1937486511	 0.108817
H	 0.5019625484	 2.4272758753	 0.5532319491	 0.121553
H	-1.0346102212	 0.5191472962	 0.0689339173	 0.100709
H	 1.3500556938	-0.7543490855	-1.3765768199	 0.121892
H	-0.1999474974	-1.5469215488	-1.0573352977	 0.120476
H	-0.1293838848	-0.1437117449	-2.1427439714	 0.109073
H	 2.0582132525	-0.5954682077	 4.0181409396	 0.094473
H	 0.0783601642	-1.4006645011	 5.2798091055	 0.099646
H	-0.4308629589	-2.3784884303	 3.8846085452	 0.109705
H	 2.0950297165	-2.8793159465	 5.5805931165	 0.10216
H	 1.1313873128	-4.1305393915	 4.773580842	 0.098536
H	 1.8572438201	-3.2676256622	 2.5310112428	 0.109606
H	 3.2940359661	-2.6502769806	 3.3775088241	 0.099552
11.9893	68.9096	83.6588	140.0934	194.4068	227.009	229.158	269.067	334.4895	431.8793	484.1721	511.6053	556.7576	579.182	710.1209	787.5719	801.2895	892.2871	914.5266	930.1372	934.5997	939.5419	962.8532	989.8635	1021.4063	1092.1501	1117.2748	1123.433	1161.3778	1202.028	1214.9396	1235.3826	1246.7466	1254.1604	1274.6526	1278.9485	1325.7241	1346.4429	1363.7986	1394.2032	1416.3213	1478.6879	1485.3046	1487.1694	1489.0539	1498.0592	1508.9766	1510.1756	2353.2217	2998.2211	3031.5297	3033.662	3037.3001	3057.5148	3062.388	3067.0077	3104.0768	3104.4038	3109.2693	3116.7008	3118.2819	3118.6936	3128.2604
CC(C)C#CC1CCC1	CC(C)C#CC1CCC1	
InChI=1S/C9H14/c1-8(2)6-7-9-4-3-5-9/h8-9H,3-5H2,1-2H3	InChI=1S/C9H14/c1-8(2)6-7-9-4-3-5-9/h8-9H,3-5H2,1-2H3
