16
gdb 43067	2.80283	2.09678	1.63152	3.7107	72.56	-0.228	-0.0113	0.2168	850.8034	0.127397	-400.742312	-400.73612	-400.735176	-400.77273	25.366	
O	-0.0695356555	 0.0088172198	 0.268244839	-0.316496
C	-0.0841667818	 1.1828839233	 0.053879373	 0.391687
C	-1.1884217671	 2.2882391537	-0.0825294377	-0.237496
C	-1.7112320667	 2.5436531325	 1.3146013904	-0.063127
C	-0.8932090312	 3.3226519452	 2.0313748997	-0.077674
C	 0.3198296785	 3.7588079652	 1.2529288279	-0.092845
C	 1.4940647908	 2.7034608755	 1.2609843091	-0.195369
N	 0.9858997535	 2.1298392375	-0.0354330464	-0.152639
C	 0.0127892557	 3.2594995457	-0.1887605455	 0.007795
H	-1.9362154331	 2.2033042519	-0.8722486714	 0.095572
H	-2.6017054958	 2.0548814293	 1.6913963262	 0.114244
H	-1.0346217823	 3.5674114396	 3.0782784266	 0.105536
H	 0.6202862853	 4.7962520677	 1.4135153586	 0.082794
H	 2.4863247939	 3.1436220456	 1.1278876149	 0.119876
H	 1.5179658296	 1.9861731543	 2.0846382454	 0.131812
H	 0.1277051762	 3.9153341832	-1.0508016298	 0.086329
148.937	229.7733	301.8703	419.3778	515.0642	629.7142	648.381	699.7452	753.635	789.5211	827.8017	850.2718	861.3702	893.4622	914.3707	958.2783	970.2675	982.0245	1005.2391	1011.3521	1068.5027	1080.7587	1133.4455	1170.8955	1188.0468	1204.151	1225.865	1252.0453	1268.6243	1298.6607	1307.8978	1371.9897	1501.4584	1653.0135	1889.574	3055.2236	3087.3084	3103.2025	3119.1468	3123.4311	3190.2392	3216.829
O=C1C2C=CC3CN1C23	O=C1[C@H]2C=C[C@H]3CN1[C@@H]23	
InChI=1S/C7H7NO/c9-7-5-2-1-4-3-8(7)6(4)5/h1-2,4-6H,3H2	InChI=1S/C7H7NO/c9-7-5-2-1-4-3-8(7)6(4)5/h1-2,4-6H,3H2/t4-,5-,6+/m0/s1
