16
gdb 93619	2.62322	1.38141	1.08918	2.0059	70.33	-0.2411	-0.042	0.1991	1118.5628	0.123349	-437.851491	-437.842937	-437.841992	-437.885095	31.955	
O	 0.3536946937	 1.1868382429	 0.6548244712	-0.434808
C	 0.0767506039	-0.0880862007	 0.1542743591	 0.058173
C	-1.4059225895	-0.4790003534	 0.0541407078	-0.215373
N	-1.4405867582	-1.5802364248	-0.9281559875	-0.28697
C	-0.4481841287	-1.2552537639	-1.9741060225	-0.330473
C	-1.0546298281	-0.6518701991	-3.1581899374	 0.400679
C	-1.5406031768	-0.1286088385	-4.1237709381	-0.452102
C	 0.5271848662	-0.2492956567	-1.296527605	 0.366384
O	 1.4271886715	 0.3676717277	-1.7978887406	-0.314809
H	 1.0652057797	 1.547194459	 0.1049572023	 0.294888
H	 0.5973836424	-0.8726794276	 0.7376446836	 0.089767
H	-1.842204327	-0.8006099102	 1.0006567244	 0.121126
H	-1.9849068759	 0.3730124749	-0.3200011979	 0.134408
H	-1.1722302393	-2.4471325562	-0.4760134599	 0.230163
H	 0.1101678668	-2.1512131881	-2.2705169362	 0.133881
H	-1.9748688206	 0.3241843148	-4.9807767832	 0.205065
44.9436	128.0617	155.7045	249.7872	267.8844	353.5607	370.6157	418.9806	465.585	540.615	597.7227	632.5163	638.8495	661.4405	668.6817	770.775	851.2397	894.0842	978.416	1000.2391	1047.5904	1076.913	1106.0202	1174.7457	1187.6086	1225.6183	1268.2832	1299.0685	1333.3967	1374.9347	1405.9109	1460.3526	1501.7544	1855.0341	2240.1718	2914.4175	3041.3601	3052.4136	3127.9538	3502.9885	3534.976	3722.542
OC1CNC(C#C)C1=O	O[C@H]1CN[C@@H](C#C)C1=O	
InChI=1S/C6H7NO2/c1-2-4-6(9)5(8)3-7-4/h1,4-5,7-8H,3H2	InChI=1S/C6H7NO2/c1-2-4-6(9)5(8)3-7-4/h1,4-5,7-8H,3H2/t4-,5-/m0/s1
