21
gdb 41523	3.26174	1.41944	1.03909	0.1563	94.31	-0.1979	-0.0018	0.1961	1193.4596	0.186196	-350.003775	-349.996113	-349.995169	-350.035978	30.832	
C	-0.04965923	 1.5407358684	 0.1005251683	-0.261615
C	 1.4381233803	 1.942730625	-0.1234324989	-0.331897
C	 2.2024288874	 0.6298797698	-0.084921272	 0.303734
C	 3.5228473978	 0.4125865744	-0.0971687187	-0.216034
C	 4.0964311285	-0.9826445089	-0.0169885204	-0.241979
C	 3.0933135819	-1.9912262698	 0.570718099	-0.206836
C	 1.7094902604	-1.8756885399	-0.0954115295	-0.325472
C	 1.2210429372	-0.457338011	-0.0248121717	 0.303082
C	-0.0234849458	 0.0307259461	 0.0774902439	-0.217786
H	-0.4333614672	 1.9166899915	 1.0586605933	 0.106451
H	-0.7123066151	 1.9540332696	-0.6698591116	 0.103452
H	 1.5642887013	 2.4342606134	-1.0944902164	 0.113788
H	 1.7954560793	 2.6485894067	 0.6321333919	 0.110207
H	 4.2212585995	 1.2441023224	-0.1585168175	 0.0739
H	 4.4180004551	-1.315922719	-1.0164445414	 0.102552
H	 5.008804706	-0.9750270501	 0.5923214296	 0.098399
H	 3.4777954428	-3.0113632282	 0.4672342419	 0.089717
H	 2.9859622944	-1.7967932489	 1.6448691289	 0.102381
H	 1.7986220266	-2.1724744653	-1.1507357363	 0.108491
H	 0.9928127974	-2.5656135927	 0.3624035073	 0.099541
H	-0.9250241078	-0.5687182935	 0.1500471403	 0.085924
67.7701	188.2921	212.8736	298.6778	328.0259	372.2989	452.9143	520.5705	605.3499	674.3267	702.6455	782.1622	793.6839	809.2536	863.4649	879.2183	889.7732	902.7646	927.7483	962.7759	1015.6139	1032.2928	1075.2101	1078.5085	1115.4748	1159.142	1161.1052	1180.2522	1210.5204	1240.0808	1274.2169	1283.4632	1302.6877	1323.8052	1355.8281	1364.6862	1373.3294	1408.9615	1473.2593	1474.6561	1482.3316	1494.1454	1497.2576	1690.6741	1719.8116	2981.7054	3001.9762	3012.5793	3027.0735	3035.0597	3042.2308	3046.6485	3067.8951	3076.255	3083.1158	3149.0255	3185.1323
C1CC2=CCCCC2=C1	C1CC2=CCCCC2=C1	
InChI=1S/C9H12/c1-2-5-9-7-3-6-8(9)4-1/h4,7H,1-3,5-6H2	InChI=1S/C9H12/c1-2-5-9-7-3-6-8(9)4-1/h4,7H,1-3,5-6H2
