21
gdb 108835	3.22351	1.10632	0.93727	2.0454	84.52	-0.226	0.0133	0.2392	1333.6357	0.182966	-387.090681	-387.081719	-387.080775	-387.124435	34.45	
C	-0.24846453	 1.5375428267	-0.0550029757	-0.373949
C	 0.0931490315	 0.0383368198	 0.0190777494	-0.291121
C	 0.8108553348	-0.4657638598	-1.1984684766	 0.341463
C	 2.0649416585	-0.9248894358	-1.2723756774	-0.259844
C	 2.466913639	-1.33640396	-2.6781725775	 0.096871
O	 3.0657582471	-2.6245951516	-2.7641117961	-0.433891
C	 1.1660289559	-1.1660688432	-3.4705652669	-0.061734
C	-0.0344634898	-1.9798308766	-3.044179555	-0.295878
C	 0.1413654006	-0.5598242202	-2.5420421024	-0.130476
H	 0.6600757331	 2.1395269478	-0.1532106134	 0.122873
H	-0.8914788407	 1.7608298836	-0.9122478896	 0.11934
H	-0.7753372661	 1.8596052294	 0.8482927573	 0.114797
H	 0.7073938171	-0.1511794293	 0.9060448284	 0.103482
H	-0.8382930054	-0.5297635133	 0.1502469452	 0.105031
H	 2.7456148482	-1.0377661142	-0.4353279193	 0.090076
H	 3.2386411908	-0.6652247684	-3.0764594545	 0.090089
H	 2.405042391	-3.2648004883	-2.4770235984	 0.273557
H	 1.2276471037	-0.8734573733	-4.5114717094	 0.087296
H	-0.7888391444	-2.163596382	-3.802215738	 0.112243
H	 0.0829707055	-2.7838812251	-2.3232925568	 0.102195
H	-0.5553036203	 0.2044707538	-2.8673730235	 0.087578
64.1082	121.5844	177.1013	197.7539	229.2068	271.6507	307.9412	369.2367	461.8661	543.4649	576.2412	623.0951	717.5141	772.6826	804.0296	819.0899	843.2131	866.2549	936.6377	951.828	972.2273	1022.7742	1039.5591	1056.6747	1065.8418	1074.1395	1093.9491	1099.6622	1102.4288	1181.0406	1202.3869	1250.0382	1267.3923	1295.4684	1308.8797	1353.1634	1368.633	1378.1982	1408.5614	1427.8065	1478.0536	1480.115	1498.7672	1506.7534	1700.6144	3011.8814	3025.3089	3037.37	3065.0418	3107.4933	3112.119	3116.6821	3171.0821	3184.334	3191.0359	3206.4076	3796.3149
CCC1=CC(O)C2CC12	CCC1=C[C@@H](O)[C@H]2C[C@@H]12	
InChI=1S/C8H12O/c1-2-5-3-8(9)7-4-6(5)7/h3,6-9H,2,4H2,1H3	InChI=1S/C8H12O/c1-2-5-3-8(9)7-4-6(5)7/h3,6-9H,2,4H2,1H3/t6-,7-,8+/m0/s1
