21
gdb 61507	2.18204	0.92521	0.8533	1.9193	79.7	-0.2525	-0.0283	0.2242	1508.0435	0.178125	-424.25418	-424.243188	-424.242244	-424.29257	37.757	
C	 0.9447856809	-0.5081509549	 1.2009564074	-0.417144
C	 0.0767204626	 0.0541583388	 0.0658281385	-0.070103
C	 0.6441264133	-0.3419598291	-1.3172761867	-0.198961
C	-0.0302107112	 0.3490637904	-2.510732586	-0.092758
C	 0.3206192609	 1.842080129	-2.6520389193	-0.409366
C	 0.2759005183	-0.3645278233	-3.8157613855	 0.15489
O	 0.9048153341	-1.385927979	-3.9230478546	-0.246758
C	-1.3374686564	-0.4802173439	 0.1759431996	 0.169411
O	-2.3412051194	 0.1753442386	 0.055796094	-0.255685
H	 0.9867599756	-1.6025442902	 1.160613715	 0.12635
H	 1.9696449962	-0.1342231505	 1.1204817822	 0.127184
H	 0.5565378906	-0.2212889945	 2.1831165126	 0.126316
H	 0.0154252559	 1.1443591663	 0.146490357	 0.095202
H	 1.7176306004	-0.1183979734	-1.330495765	 0.108028
H	 0.5699937572	-1.4279467202	-1.4481124017	 0.120811
H	-1.1253287521	 0.285302257	-2.4048061918	 0.120312
H	 1.4038080944	 1.9849343647	-2.7305960363	 0.126793
H	-0.1424879182	 2.2728960588	-3.5458110397	 0.124688
H	-0.0376267857	 2.4120313444	-1.7916096786	 0.138098
H	-0.1444327178	 0.1434737662	-4.715271444	 0.078576
H	-1.3915466396	-1.5818130752	 0.3541731428	 0.074115
13.4983	49.6837	86.5828	113.5765	151.9387	209.9326	220.8417	237.4522	308.3493	337.4556	343.013	403.4692	421.1956	537.9747	666.8496	801.5973	828.3212	894.6492	919.3665	935.2466	944.7061	976.0699	1038.4945	1056.9719	1124.3401	1145.8983	1158.1567	1177.9692	1245.7919	1283.7926	1310.1977	1330.451	1347.4277	1381.7694	1407.3772	1408.46	1427.1846	1431.1594	1480.3465	1496.1597	1500.0336	1501.9559	1504.3952	1827.8271	1829.2944	2841.3652	2859.9134	2991.8207	3032.4525	3034.6646	3037.413	3058.3671	3075.2368	3102.4885	3102.9524	3111.6224	3122.3539
CC(CC(C)C=O)C=O	C[C@@H](C[C@@H](C)C=O)C=O	
InChI=1S/C7H12O2/c1-6(4-8)3-7(2)5-9/h4-7H,3H2,1-2H3	InChI=1S/C7H12O2/c1-6(4-8)3-7(2)5-9/h4-7H,3H2,1-2H3/t6-,7+
