19
gdb 94980	2.60082	1.774	1.32227	2.904	74.74	-0.2326	0.0652	0.2978	1004.8385	0.160075	-422.933858	-422.926287	-422.925343	-422.966041	30.474	
O	-0.127601334	 1.4018821385	-0.1247298053	-0.43412
C	-0.0331315493	-0.0034460925	-0.0066642953	-0.048627
C	 0.6277380077	-0.4929560702	 1.350847479	-0.240248
C	-0.2477066413	-1.6538769057	 1.9762802788	-0.29109
C	-1.2232473672	-1.9828119742	 0.8376156701	-0.008958
C	-2.7440773057	-1.6797533495	 0.6161063976	-0.008242
C	-2.5380966388	-0.2291009333	 1.0781507683	-0.264141
C	-1.378820536	-0.6481405174	 0.1301495085	 0.486912
O	-2.3916001429	-1.2442808495	-0.7792319542	-0.382531
H	 0.761601558	 1.7589064824	-0.211419843	 0.286658
H	 0.4992911124	-0.4388690099	-0.8649555527	 0.084983
H	 1.6536421298	-0.8262380696	 1.1720273777	 0.104865
H	 0.6768333124	 0.3678047952	 2.0237123912	 0.111913
H	 0.3653900395	-2.5132476918	 2.2571558355	 0.102765
H	-0.7431065344	-1.3080104974	 2.8860918455	 0.112163
H	-0.8702232882	-2.7763902658	 0.1742685043	 0.082289
H	-3.6145693425	-2.3313363525	 0.6996739378	 0.092346
H	-3.2309432583	 0.49457443	 0.6507801373	 0.113894
H	-2.3180486812	-0.0348786366	 2.1288963089	 0.099172
57.3955	180.9968	256.042	287.126	329.1024	433.9502	495.379	536.7731	588.8684	644.1741	664.7809	688.9025	775.8047	820.9589	884.8696	904.1241	928.5937	944.4992	963.8525	980.5818	1011.0334	1047.9462	1078.4484	1109.2749	1122.2571	1122.7669	1174.8333	1190.1552	1208.5913	1218.4275	1242.6079	1252.7544	1266.7835	1286.7117	1316.3969	1334.9724	1377.4281	1446.7016	1477.4417	1493.7957	1513.4338	2996.883	3056.274	3070.8775	3079.6719	3084.5249	3098.5396	3112.9248	3119.1541	3162.9411	3823.3231
OC1CCC2C3CC12O3	O[C@H]1CC[C@H]2[C@H]3C[C@@]12O3	
InChI=1S/C7H10O2/c8-6-2-1-4-5-3-7(4,6)9-5/h4-6,8H,1-3H2	InChI=1S/C7H10O2/c8-6-2-1-4-5-3-7(4,6)9-5/h4-6,8H,1-3H2/t4-,5+,6-,7-/m0/s1
