16
gdb 47315	3.2882	1.2762	0.98293	1.4462	65.88	-0.2536	-0.0043	0.2493	1142.4658	0.125721	-475.081647	-475.073582	-475.072638	-475.115125	29.388	
O	-0.0829735971	-0.0765188199	-0.3740621751	-0.35387
C	-0.0800586881	 1.1110968298	-0.1244850983	 0.381987
C	-1.3482428172	 1.9352128201	 0.0510507983	-0.341338
C	-1.4395372042	 2.539455844	 1.4531607897	-0.063951
O	-0.6835254524	 3.7342426148	 1.7106797367	-0.223387
C	 0.5389646684	 4.05224856	 1.2416227729	 0.412374
O	 1.0832099388	 5.0361687778	 1.6644992759	-0.308098
C	 1.1829760108	 3.259480826	 0.0967647722	-0.316108
N	 1.0719682186	 1.8126872617	 0.112764559	-0.296754
H	-1.4289205259	 2.7229831711	-0.7072692548	 0.129867
H	-2.1882939558	 1.2524831572	-0.0905381247	 0.144973
H	-2.469548251	 2.8436441297	 1.6535220528	 0.135994
H	-1.15979339	 1.7903515966	 2.2028347788	 0.136301
H	 0.7922071146	 3.686312459	-0.8393850388	 0.145008
H	 2.2388889963	 3.52288881	 0.1398642511	 0.158743
H	 1.9202814643	 1.2795793421	-0.0098163256	 0.258259
50.1595	90.373	166.8032	241.478	309.9927	344.3698	427.0672	496.0922	537.5916	552.9046	585.1972	686.3086	740.3147	786.7582	809.8294	918.5179	960.9659	1002.3073	1062.6682	1090.3653	1137.9542	1188.0975	1240.9811	1283.8318	1296.6991	1340.4935	1364.7629	1394.9222	1437.2688	1453.3704	1465.8511	1487.3897	1511.7723	1810.1159	1831.6422	2995.8891	3042.1514	3051.5485	3103.7056	3124.5964	3144.8492	3617.3825
O=C1CCOC(=O)CN1	O=C1CCOC(=O)CN1	
InChI=1S/C5H7NO3/c7-4-1-2-9-5(8)3-6-4/h1-3H2,(H,6,7)	InChI=1S/C5H7NO3/c7-4-1-2-9-5(8)3-6-4/h1-3H2,(H,6,7)
