13
gdb 24918	5.28693	1.36729	1.09084	2.6282	67.59	-0.1908	-0.0082	0.1826	1003.7114	0.09264	-448.941103	-448.934572	-448.933628	-448.971897	25.654	
N	-0.083650629	 1.272374014	-0.0069469023	-0.573492
C	 0.0062902207	 0.0049325705	-0.0560381559	 0.401722
N	 1.169449894	-0.8347240907	-0.1130151597	-0.441046
C	 0.7100286152	-2.1188765363	 0.1493148648	 0.291118
C	-0.6386261007	-2.1539846435	 0.1434336718	 0.290923
N	-1.1018823498	-0.8547845224	-0.0416623264	-0.40417
N	-1.0840425893	-3.4440589794	-0.0074201888	-0.334453
C	 0.0266551767	-4.1219443743	-0.078078254	 0.045429
O	 1.1849683474	-3.3738613792	-0.043116138	-0.188952
H	 0.826204997	 1.7227927847	-0.0521900883	 0.213825
H	 2.0218466394	-0.4627236784	 0.2790858759	 0.265251
H	-2.0043144617	-0.4884249667	 0.2120261575	 0.276925
H	 0.15732903	-5.1913612181	-0.0870132868	 0.15692
126.3832	269.1063	326.9712	348.0517	433.8336	476.9667	554.7519	602.9439	628.6627	704.1296	715.7468	731.2914	749.6822	778.4224	884.1823	917.6493	959.0214	1050.1685	1066.4258	1150.213	1267.4576	1285.3031	1313.0302	1344.406	1459.1256	1484.3658	1520.5234	1655.2422	1760.0403	3291.0979	3532.6402	3612.205	3664.397
N=C1NC2=C(N1)N=CO2	[NH][C@H]1Nc2c(N1)nco2	
InChI=1S/C4H4N4O/c5-4-7-2-3(8-4)9-1-6-2/h1H,(H3,5,7,8)	InChI=1S/C4H5N4O/c5-4-7-2-3(8-4)9-1-6-2/h1,4-5,7-8H/t4-/m1/s1
