20
gdb 40852	4.73429	1.27415	1.17667	1.6252	83.5	-0.2264	0.0813	0.3077	1109.711	0.172368	-365.897479	-365.890342	-365.889398	-365.929019	29.189	
C	 0.0767998367	 1.4178078321	-0.5563929095	-0.20935
C	 1.3552165779	 1.7074680725	 0.2820827661	-0.313564
C	 1.2874384158	 0.2520934459	 0.8010749102	 0.427485
C	-0.1726965496	 0.1471762627	 0.3056460497	-0.296728
C	 2.3421986223	-0.7974055499	 0.437671943	-0.09208
C	 3.2972162936	-0.4025912237	 1.6053617617	-0.068346
C	 3.3116519697	-1.8562336533	 2.061282946	-0.186576
N	 1.8663902313	-1.733598523	 1.5864981888	-0.165149
C	 1.8320700995	-0.2721152409	 2.1270620911	-0.117535
H	-0.7016843422	 2.1836963336	-0.5566310253	 0.097287
H	 0.3164416996	 1.1693959677	-1.5938268209	 0.102802
H	 2.2576707376	 2.0122023849	-0.2549347188	 0.097299
H	 1.1668456521	 2.433746265	 1.079362608	 0.101452
H	-0.8897615513	 0.3309562557	 1.1119606999	 0.100561
H	-0.4608125087	-0.7722043848	-0.2083454714	 0.109361
H	 2.6143769037	-1.2157087401	-0.5345659419	 0.077021
H	 4.0851622732	 0.3577706966	 1.6066500022	 0.065755
H	 3.901033422	-2.5761362872	 1.4830869824	 0.098297
H	 3.4012948553	-2.0624029323	 3.1332729448	 0.098807
H	 1.5035636915	-0.0723455715	 3.1500072942	 0.073201
96.4673	155.7648	231.1875	290.8787	419.5024	473.3918	536.7026	687.4645	720.0448	791.8253	795.1681	832.9604	842.6302	858.8367	880.0788	887.1463	923.2033	934.403	958.3046	1026.7723	1029.1851	1036.9525	1078.6423	1081.4967	1102.8538	1103.7626	1160.6406	1164.7926	1176.692	1184.9595	1198.6871	1203.919	1250.2056	1254.2427	1269.2755	1277.185	1281.4351	1295.9765	1372.6901	1472.9566	1482.6311	1505.051	1520.1064	3029.3694	3044.2638	3047.9625	3053.7145	3061.4311	3080.8111	3088.3364	3088.8733	3092.5075	3106.1059	3120.3884
C1CC2(C1)C1C3CN1C23	C1CC2(C1)[C@H]1[C@@H]3CN1[C@H]23	
InChI=1S/C8H11N/c1-2-8(3-1)6-5-4-9(6)7(5)8/h5-7H,1-4H2	InChI=1S/C8H11N/c1-2-8(3-1)6-5-4-9(6)7(5)8/h5-7H,1-4H2/t5-,6+,7-
