21
gdb 88543	3.3377	1.12414	1.04807	1.9486	82.16	-0.2247	0.0781	0.3028	1248.5835	0.182332	-387.031347	-387.022735	-387.02179	-387.064879	33.335	
C	 0.2122694167	 1.5475171845	-0.3214949606	-0.411835
C	 0.0383428535	 0.0675358585	-0.0601517345	 0.018613
C	 1.2139061316	-0.8714683039	-0.123819522	-0.308904
C	 0.5547329419	-0.5933756702	 1.2089397431	-0.153688
C	 1.2181013929	 0.177167931	 2.2934830031	 0.297698
C	 2.6437731087	 0.7054257884	 2.301473496	-0.345646
C	 2.1943885859	-0.2204801846	 3.3865164493	 0.041623
O	 1.4875237597	 0.4906316013	 4.40302937	-0.28896
C	 0.464757864	 0.8609590494	 3.4398711017	-0.130181
H	 1.1662663505	 1.9149216737	 0.0661299867	 0.126758
H	 0.1858317281	 1.7590994603	-1.3962426927	 0.115596
H	-0.5856645508	 2.1324600235	 0.1499986389	 0.115326
H	-0.901978838	-0.3374200417	-0.4258979654	 0.082498
H	 1.0844467103	-1.8541700906	-0.5639345052	 0.110651
H	 2.1882616431	-0.4303464951	-0.3067963073	 0.110662
H	-0.0788092452	-1.3952573307	 1.5833095412	 0.083631
H	 3.2953468927	 0.261905688	 1.5554459511	 0.115467
H	 2.8543488201	 1.7451996518	 2.5405579553	 0.110385
H	 2.6618951645	-1.1623056837	 3.6508275015	 0.104328
H	 0.3166488287	 1.9462557161	 3.3806401621	 0.102032
H	-0.4858337489	 0.3712013639	 3.683142268	 0.103946
51.9601	122.0619	179.1793	217.5643	239.7687	346.2475	358.2512	392.3914	463.6272	490.7839	662.9234	760.4181	776.8364	839.4829	841.3928	883.5096	910.4007	928.3924	938.2291	986.3505	995.6688	1010.6838	1028.94	1062.1418	1067.6867	1077.9668	1088.3913	1110.2003	1148.3833	1150.9267	1157.9077	1198.4914	1207.3554	1224.9081	1279.5961	1309.8492	1379.1511	1399.3808	1422.6251	1436.3866	1481.4665	1491.2586	1496.0111	1504.7129	1516.8028	3015.5467	3029.5895	3064.9488	3085.2655	3108.9966	3109.4921	3115.4077	3130.7839	3138.5668	3177.4713	3206.8714	3214.8605
CC1CC1C12CC1OC2	C[C@H]1C[C@H]1[C@]12C[C@H]1OC2	
InChI=1S/C8H12O/c1-5-2-6(5)8-3-7(8)9-4-8/h5-7H,2-4H2,1H3	InChI=1S/C8H12O/c1-5-2-6(5)8-3-7(8)9-4-8/h5-7H,2-4H2,1H3/t5-,6+,7+,8+/m0/s1
