18
gdb 17582	2.72271	2.39634	1.8456	1.2294	71.56	-0.2418	0.0792	0.3211	822.4802	0.153514	-347.759464	-347.751935	-347.750991	-347.790581	29.865	
C	 0.0031730277	 1.5176521038	 0.0944596451	-0.490091
C	-0.0404984087	 0.0159906252	 0.0550250668	 0.283148
C	 1.1620625609	-0.8341222144	-0.3195169461	-0.401423
C	 0.5474027843	-0.9873400777	 1.0523280169	 0.354685
O	 1.2368434262	-0.6494678643	 2.2078358358	-0.467848
C	-0.7087054585	-1.8215821706	 1.0023225589	-0.118871
C	-1.915901045	-0.9858823821	 1.3449349682	-0.298472
C	-1.2940797293	-0.8313850392	-0.0177087268	-0.09616
H	 0.9548870702	 1.8687065695	 0.5056653302	 0.124628
H	-0.1087893077	 1.949630516	-0.9069588386	 0.115695
H	-0.7999163653	 1.9187315507	 0.72217808	 0.118676
H	 1.0795223173	-1.6215881701	-1.0647649475	 0.099852
H	 2.1083883629	-0.2998774961	-0.3274271144	 0.106544
H	 1.9494662289	-1.284890636	 2.334167466	 0.284152
H	-0.7520900377	-2.9046741197	 0.959977781	 0.079487
H	-2.8609118243	-1.520663215	 1.3712508803	 0.106619
H	-1.8312355103	-0.1905303294	 2.080166365	 0.116983
H	-1.8258028716	-1.0918751407	-0.9262834708	 0.082397
173.9299	198.355	216.1761	237.8356	270.5799	398.7208	437.3591	521.1274	558.836	580.7183	719.8933	748.2857	799.2845	835.0722	852.2594	926.3991	963.9975	971.6714	994.2515	1017.7591	1047.6262	1065.062	1078.7636	1090.8049	1115.4737	1154.214	1175.7041	1246.7511	1259.0192	1284.5975	1329.2451	1353.5159	1404.0144	1420.7259	1486.6555	1488.9717	1497.0497	1502.3727	3025.2229	3084.6167	3101.6522	3104.3619	3116.7684	3161.8995	3173.4478	3192.6619	3202.1169	3798.9155
CC12CC1(O)C1CC21	C[C@@]12C[C@]1(O)[C@H]1C[C@@H]21	
InChI=1S/C7H10O/c1-6-3-7(6,8)5-2-4(5)6/h4-5,8H,2-3H2,1H3	InChI=1S/C7H10O/c1-6-3-7(6,8)5-2-4(5)6/h4-5,8H,2-3H2,1H3/t4-,5+,6+,7+/m1/s1
