16
gdb 107776	2.77499	1.75212	1.32829	3.7458	67.83	-0.233	-0.0021	0.2309	971.2185	0.123476	-437.825638	-437.81788	-437.816936	-437.858147	28.956	
C	 0.0431095395	 1.3858436688	 0.0271377117	-0.279559
O	 0.0376534974	-0.0396367532	 0.0721866741	-0.294197
C	-1.2136807502	-0.586437477	 0.0421746116	 0.289443
C	-2.2546826897	-0.4627927582	 1.2071612168	-0.320326
C	-2.7771330796	-1.8109141479	 0.7007627737	-0.030388
C	-1.5312808839	-2.1357261125	 0.002175953	-0.116561
N	-2.7843832584	-1.8214830169	-0.8133772723	-0.205298
C	-2.1342606055	-0.5653543051	-1.1837718508	 0.381325
O	-2.220904734	 0.0553359585	-2.1963598555	-0.325386
H	 1.0904201296	 1.6911530032	 0.0229391478	 0.138462
H	-0.4511755719	 1.7529211762	-0.8786677638	 0.150802
H	-0.4514743369	 1.8133019018	 0.910268131	 0.117528
H	-1.7710581561	-0.5740205178	 2.1807332389	 0.124928
H	-2.9301817333	 0.3980452173	 1.206175212	 0.115673
H	-3.5035480334	-2.4674020199	 1.1614675011	 0.120817
H	-0.9354733235	-3.0158700775	-0.1850183993	 0.132737
75.9929	144.8624	173.5689	204.4509	295.7421	381.5165	417.9332	498.7255	623.9633	687.9459	696.8616	756.9545	805.5119	852.1447	888.8862	910.8307	968.2063	999.9925	1006.9536	1027.1588	1056.2052	1099.8289	1139.8692	1176.5784	1181.8448	1201.8633	1233.2976	1247.8465	1332.4111	1363.9728	1484.3212	1488.8445	1498.4121	1508.3335	1912.9193	3007.4549	3053.8058	3083.0384	3119.3378	3141.296	3203.466	3246.6332
COC12CC3C1N3C2=O	CO[C@]12C[C@@H]3[C@H]1N3C2=O	
InChI=1S/C6H7NO2/c1-9-6-2-3-4(6)7(3)5(6)8/h3-4H,2H2,1H3	InChI=1S/C6H7NO2/c1-9-6-2-3-4(6)7(3)5(6)8/h3-4H,2H2,1H3/t3-,4-,6-,7?/m1/s1
