20
gdb 87041	2.38994	1.34999	1.00174	4.1406	83.81	-0.2702	0.0383	0.3086	1256.5863	0.170508	-366.008036	-365.998793	-365.997849	-366.042309	34.606	
C	-0.0952178516	 1.3480511797	-0.2202223267	-0.417503
C	 0.2118768322	-0.1109907583	 0.0248337662	-0.02647
C	 1.6222770552	-0.6146099965	 0.0904633326	-0.332717
C	 0.7714642428	-0.617137481	 1.3566869214	 0.155731
C	 1.1105178709	 0.3794465433	 2.3456584605	 0.248285
N	 1.3685834212	 1.1720260575	 3.148635886	-0.358747
C	 0.2437884509	-1.8945892263	 1.9620503422	-0.064496
C	 0.2977171023	-3.2191952522	 1.2443104933	-0.289668
C	 1.1778608815	-2.9760642513	 2.4440418324	-0.254621
H	 0.6302276115	 1.9985639033	 0.2759480645	 0.141692
H	-0.0703713953	 1.568622162	-1.2925788008	 0.12295
H	-1.0892408901	 1.6114797442	 0.1552409792	 0.129051
H	-0.5031293626	-0.8075920274	-0.4047949805	 0.102879
H	 1.8674683542	-1.5722500348	-0.3535664743	 0.126028
H	 2.4225953092	 0.1158063138	 0.0475983315	 0.135281
H	-0.6409049011	-1.7320119451	 2.5714936737	 0.10244
H	-0.5572742486	-3.8770991273	 1.3521916462	 0.119612
H	 0.7714893376	-3.2759181008	 0.2709249836	 0.116768
H	 2.2377173327	-2.8342770283	 2.2627233625	 0.12164
H	 0.9459698972	-3.4802899146	 3.3749128365	 0.121867
49.7499	132.9197	141.1261	179.9302	202.6865	243.2778	301.0308	380.117	430.6244	448.7045	566.5483	613.4969	628.7126	770.3803	804.1762	832.9735	862.3604	899.3234	905.8144	937.5825	958.6394	1012.2962	1055.9133	1063.2112	1078.9402	1083.336	1125.5822	1141.134	1152.2425	1192.0239	1197.1092	1212.564	1264.2123	1293.2603	1398.215	1408.5072	1426.424	1464.4923	1486.9722	1492.5461	1502.4566	1509.1322	2344.8695	3037.5481	3100.7973	3115.7042	3138.7213	3141.1756	3142.6043	3145.6315	3148.8112	3216.8101	3229.3571	3231.5923
CC1CC1(C#N)C1CC1	C[C@H]1C[C@]1(C#N)C1CC1	
InChI=1S/C8H11N/c1-6-4-8(6,5-9)7-2-3-7/h6-7H,2-4H2,1H3	InChI=1S/C8H11N/c1-6-4-8(6,5-9)7-2-3-7/h6-7H,2-4H2,1H3/t6-,8+/m0/s1
