17
gdb 44203	3.86125	1.17436	1.12342	2.995	73.83	-0.2362	-0.0123	0.2239	1124.0002	0.13545	-421.791447	-421.783809	-421.782865	-421.824043	29.153	
O	 0.2261248485	 0.0320061198	-0.0202335305	-0.317851
C	 0.1283061012	 1.2263206345	-0.0617356658	 0.416109
C	-1.0938093173	 2.1850034335	-0.0044624061	-0.367098
C	-0.1014890944	 3.3509777155	 0.1199514805	-0.157681
C	 1.1101317984	 2.3474004636	 0.0010712643	-0.262569
C	 0.7718164461	 3.3945772535	-1.0606377237	 0.469941
C	 0.5350916027	 3.2741572703	-2.5664568496	-0.362937
C	 1.5999181813	 4.38833033	-2.6521146152	-0.081119
O	 1.7030722415	 4.4569477086	-1.206157322	-0.314868
H	-1.7756171474	 2.1913627486	-0.8603195288	 0.119879
H	-1.6682605941	 2.0042438996	 0.9084400226	 0.138452
H	-0.1838370233	 4.1852690724	 0.8042276603	 0.115797
H	 2.0957377761	 2.3610934442	 0.4494542617	 0.118524
H	 0.8071701691	 2.3179431486	-3.0144437551	 0.13142
H	-0.4640029957	 3.5638567926	-2.897049539	 0.12246
H	 2.552311225	 4.0976643122	-3.1076328207	 0.116288
H	 1.2687473523	 5.3424494326	-3.073659653	 0.115254
73.9774	104.2196	181.5466	240.2486	377.0973	423.8392	478.8313	503.1071	600.361	630.3805	787.3353	799.3667	819.5412	869.1186	885.4307	919.1164	960.7918	972.4592	980.4119	1004.9669	1019.343	1062.3076	1091.7989	1128.552	1155.1583	1164.3526	1212.411	1218.1245	1223.187	1246.1814	1260.7851	1354.3838	1427.8941	1459.701	1487.6014	1530.5441	1876.0132	3039.4753	3055.6805	3081.5808	3087.2755	3111.9202	3140.1833	3200.3299	3208.6118
O=C1CC2C1C21CCO1	O=C1C[C@H]2[C@@H]1[C@]12CCO1	
InChI=1S/C7H8O2/c8-5-3-4-6(5)7(4)1-2-9-7/h4,6H,1-3H2	InChI=1S/C7H8O2/c8-5-3-4-6(5)7(4)1-2-9-7/h4,6H,1-3H2/t4-,6-,7+/m0/s1
