21
gdb 10729	2.75301	1.50245	1.33945	2.25	74.	-0.2379	0.0739	0.3119	1075.3414	0.187503	-366.238549	-366.228994	-366.228049	-366.272572	35.429	
C	 0.9857604975	-1.2200610765	 0.6803990445	-0.40575
C	 0.0635961037	-0.2946593677	-0.11938441	-0.271913
C	-1.4203919758	-0.6427683463	-0.1337602896	 0.333165
C	-1.8903542665	-2.0185943256	 0.1659085234	-0.284534
N	-2.1406428288	-0.9197669531	 1.1225296373	-0.35348
C	-2.2744049197	 0.188153848	-1.0974553275	 0.101281
C	-2.344786447	 1.6662139903	-0.716647009	-0.427486
O	-1.8534122441	 0.0047752158	-2.4484676685	-0.438363
H	 2.0019724948	-0.8156711274	 0.6969549227	 0.119234
H	 0.6668955833	-1.3248363764	 1.7238938211	 0.113043
H	 1.0366598521	-2.2206727502	 0.2421360453	 0.127975
H	 0.1752964622	 0.7290577572	 0.2616461052	 0.102767
H	 0.407454294	-0.2737312597	-1.160702497	 0.102214
H	-2.7767067859	-2.4042404873	-0.3309964658	 0.115808
H	-1.1629547011	-2.7777722604	 0.4349822608	 0.108449
H	-1.4867343648	-0.9894532481	 1.8986989633	 0.224556
H	-3.2883548017	-0.2240582484	-1.0510972995	 0.090052
H	-1.364055916	 2.1514467583	-0.7963017154	 0.104409
H	-3.0360466662	 2.1939095106	-1.3798099765	 0.121387
H	-2.6940541429	 1.7745119755	 0.313685075	 0.1382
H	-1.175759557	 0.6601481915	-2.6406429097	 0.278984
68.671	79.851	194.6985	214.8765	234.8536	258.9887	273.208	311.2757	326.9336	351.3837	473.3318	520.1202	549.3675	674.1398	784.916	851.1237	875.3172	913.454	927.768	980.3969	1001.3645	1031.1483	1047.4165	1078.8513	1087.699	1121.4196	1130.0214	1152.1868	1259.9406	1285.1321	1298.9414	1319.0016	1330.2749	1392.7173	1395.4465	1406.8314	1407.9373	1428.4893	1487.8701	1497.2529	1498.0454	1502.0076	1503.7249	1523.4023	3016.652	3029.0047	3034.2702	3050.1982	3053.5686	3097.8359	3099.6775	3112.758	3117.461	3125.633	3199.8166	3494.1306	3821.4819
CCC1(CN1)C(C)O	CC[C@]1(CN1)[C@@H](C)O	
InChI=1S/C6H13NO/c1-3-6(4-7-6)5(2)8/h5,7-8H,3-4H2,1-2H3	InChI=1S/C6H13NO/c1-3-6(4-7-6)5(2)8/h5,7-8H,3-4H2,1-2H3/t5-,6+/m1/s1
