18
gdb 65709	3.27376	0.90671	0.86586	2.0483	74.74	-0.2549	-0.036	0.219	1379.7651	0.144373	-439.0904	-439.080736	-439.079792	-439.125985	33.748	
C	 0.340241854	 1.3966790034	-0.0743732504	-0.462425
C	-0.0129738265	-0.0788251344	-0.0722600026	 0.268225
C	-1.4580906509	-0.4022762983	 0.2891389802	-0.326912
C	-1.7670270272	-0.0640858611	 1.7352483099	 0.157155
O	-2.672898538	 0.6400117711	 2.0976857236	-0.233667
C	 0.7300562653	-1.0002110605	-1.0036369915	-0.284249
N	 0.9700251177	-1.045181225	 0.4208071699	-0.091635
C	 2.1957238252	-0.7617995279	 1.0019391173	 0.13606
O	 3.2651713149	-1.0819316996	 0.5453188583	-0.28318
H	 1.3914158182	 1.5534855574	-0.3310424704	 0.140399
H	-0.2746311644	 1.9276342928	-0.8080654316	 0.139327
H	 0.1524192116	 1.8558930807	 0.9019505493	 0.140592
H	-2.1553160379	 0.1382809486	-0.3573891674	 0.126802
H	-1.620981747	-1.479787305	 0.1624023393	 0.129925
H	-1.0703628837	-0.5325754777	 2.4670926103	 0.088198
H	 0.2211875518	-1.8600769173	-1.4311124461	 0.127523
H	 1.5210028281	-0.5778148406	-1.6180722283	 0.140446
H	 2.079668419	-0.2649958464	 1.9841015001	 0.087416
51.6867	60.4364	101.684	150.9647	208.3566	234.5694	257.787	316.5781	380.0717	420.6429	462.6443	499.8208	619.4136	726.3222	828.7254	863.1883	918.4578	952.0783	978.3545	1036.6753	1040.8763	1050.6164	1112.3505	1127.4118	1140.2986	1189.84	1234.2601	1302.7302	1308.2759	1403.9946	1416.5744	1420.6753	1425.3966	1452.1797	1486.2958	1499.4524	1513.3709	1799.3817	1835.5686	2877.9155	2953.9863	3036.0859	3038.7123	3102.2185	3106.6283	3109.7812	3119.9847	3198.9573
CC1(CC=O)CN1C=O	C[C@@]1(CC=O)CN1C=O	
InChI=1S/C6H9NO2/c1-6(2-3-8)4-7(6)5-9/h3,5H,2,4H2,1H3	InChI=1S/C6H9NO2/c1-6(2-3-8)4-7(6)5-9/h3,5H,2,4H2,1H3/t6-,7?/m1/s1
