18
gdb 9694	3.63621	1.57343	1.54096	0.6268	78.21	-0.2425	0.0237	0.2662	933.5231	0.153162	-310.651355	-310.643429	-310.642485	-310.683129	30.96	
C	-0.0416428881	 1.535745371	 0.0099888163	-0.42548
C	-0.0030657017	-0.0086407137	 0.0024519833	 0.11748
C	 0.8962825796	-0.5026298073	-1.185526505	-0.286407
C	 2.2359805249	-0.7435043516	-0.5383103203	-0.062534
C	 2.1584672994	-0.7519134236	 0.7905489482	-0.062543
C	 0.75242975	-0.5182409017	 1.2806124451	-0.286399
C	-1.3627421598	-0.5342685209	-0.0801588717	 0.292548
C	-2.4856418305	-0.9599305601	-0.1484407388	-0.470971
H	 0.9766765339	 1.9327332985	 0.0718631033	 0.119611
H	-0.509608124	 1.9169094647	-0.902038903	 0.121689
H	-0.6126804999	 1.9057106918	 0.8662087229	 0.121688
H	 0.4990849549	-1.4256375646	-1.6258798248	 0.117345
H	 0.9284420668	 0.2387029386	-1.9922116283	 0.105913
H	 3.1364135717	-0.9205436002	-1.1161541702	 0.092791
H	 2.9857529941	-0.9368756433	 1.4668708161	 0.09279
H	 0.6900169914	 0.2128289371	 2.0948548054	 0.105913
H	 0.3073986375	-1.4464394097	 1.6601081778	 0.117343
H	-3.4751615601	-1.340007755	-0.2084547264	 0.189223
99.6618	163.3454	188.3665	271.3882	335.5819	362.7649	405.1375	502.6243	532.2322	565.1434	621.6065	621.7148	694.0512	770.5563	771.6398	915.8152	936.8949	941.5793	957.364	976.9328	984.6997	991.9667	1092.8095	1128.8866	1137.6666	1178.979	1199.3243	1271.597	1294.9126	1334.5407	1363.7051	1402.357	1481.8728	1486.5132	1493.4941	1499.9887	1690.0422	2231.2903	3026.4568	3027.5709	3036.5974	3059.6513	3060.4216	3112.1472	3116.7136	3181.6599	3206.9183	3503.0059
CC1(CC=CC1)C#C	C[C@]1(CC=CC1)C#C	
InChI=1S/C8H10/c1-3-8(2)6-4-5-7-8/h1,4-5H,6-7H2,2H3	InChI=1S/C8H10/c1-3-8(2)6-4-5-7-8/h1,4-5H,6-7H2,2H3
