17
gdb 66089	2.5983	1.22298	1.19354	1.0382	69.43	-0.2539	-0.0432	0.2107	1128.7345	0.132283	-458.959677	-458.950353	-458.949409	-458.994753	32.407	
C	-0.0055873446	 1.69788303	-0.0306433758	-0.46362
C	 0.0281155983	 0.1790230986	 0.0207373392	 0.309909
O	 1.2329029041	-0.3599149817	-0.5773373821	-0.321002
C	 1.5505263161	-1.1096805712	 0.6259256689	-0.093343
C	 0.3270606694	-0.5527650432	 1.3679936727	-0.202585
C	 0.5940286772	 0.331784331	 2.5566737699	 0.135045
O	 1.6916860359	 0.6201299685	 2.9630837455	-0.241329
C	-1.1547804612	-0.4194052144	-0.7345029936	 0.133605
O	-2.0414398521	-1.0601722291	-0.2349215836	-0.246539
H	 0.882942727	 2.1123081259	 0.4523674419	 0.152155
H	-0.0137461573	 2.0320160962	-1.0732764121	 0.137197
H	-0.8996800962	 2.0913971054	 0.4644961184	 0.13441
H	 1.5452642988	-2.1888918864	 0.4447811514	 0.115977
H	 2.5088335503	-0.799770669	 1.050689145	 0.136886
H	-0.4671730629	-1.2641006186	 1.6107650521	 0.123703
H	-0.3203128305	 0.7298030517	 3.0506075966	 0.090041
H	-1.1060579924	-0.2301458337	-1.8297692946	 0.09949
53.9976	65.3641	94.2064	190.4039	217.2298	237.9868	283.6873	308.1246	340.4863	426.9569	563.4887	625.7577	715.1633	771.4185	881.5002	900.4564	922.1491	978.6169	1002.5694	1009.6907	1046.6474	1101.5561	1136.2007	1169.0802	1174.2027	1212.722	1262.9984	1332.6374	1373.6329	1397.9256	1404.9372	1425.6351	1481.3746	1491.158	1517.8582	1820.4969	1833.4545	2884.2438	2896.7164	3036.9072	3048.8515	3082.0807	3108.9826	3110.2192	3125.7501
CC1(OCC1C=O)C=O	C[C@]1(OC[C@H]1C=O)C=O	
InChI=1S/C6H8O3/c1-6(4-8)5(2-7)3-9-6/h2,4-5H,3H2,1H3	InChI=1S/C6H8O3/c1-6(4-8)5(2-7)3-9-6/h2,4-5H,3H2,1H3/t5-,6+/m1/s1
