22
gdb 117360	2.95185	0.78919	0.67576	2.3868	83.83	-0.2371	-0.0086	0.2285	1756.6394	0.191784	-404.338573	-404.328146	-404.327202	-404.375867	36.787	
C	 0.4316768737	 0.6899571741	-0.7500451635	-0.386729
C	-0.283153384	 0.0094145087	 0.4196305167	-0.1636
C	-1.2267252824	-1.103538956	-0.0345688934	-0.268536
C	-1.9347339402	-1.8076220877	 1.107881908	 0.358534
O	-1.7047714992	-1.5646021773	 2.2708985404	-0.301579
C	-3.0161260857	-2.830726689	 0.7435211506	-0.249593
N	-2.7654907667	-3.5084394188	-0.5198067318	-0.068484
C	-2.0453477742	-4.7784693537	-0.4396429063	-0.222732
C	-3.5028091226	-4.7470604416	-0.7413436939	-0.216977
H	 1.0995445248	 1.4823279714	-0.3981952258	 0.113368
H	 1.0358123938	-0.0255456889	-1.3194448136	 0.111786
H	-0.2829218772	 1.1429770881	-1.4466916424	 0.112182
H	 0.4486926419	-0.4073874791	 1.1196675316	 0.110955
H	-0.8511327808	 0.7485790639	 0.9955631534	 0.107136
H	-1.9908636938	-0.7298766537	-0.7304798418	 0.121052
H	-0.6933420778	-1.8685216799	-0.615213575	 0.131004
H	-3.132331577	-3.5114361488	 1.6025417107	 0.107658
H	-3.9574064822	-2.270386363	 0.6468921742	 0.128306
H	-1.3225393353	-4.9625641719	-1.2290169266	 0.120662
H	-1.7485895254	-5.1340081331	 0.5457167701	 0.119722
H	-4.178710742	-5.0847845915	 0.0424763647	 0.114315
H	-3.8614553777	-4.9080377822	-1.7538619762	 0.121551
36.5787	54.108	77.4218	99.2321	114.203	212.3052	244.9228	310.2272	351.1009	380.3016	446.8746	497.0838	619.6957	720.8748	773.3535	815.7492	830.2566	857.4977	901.5672	919.8397	959.1235	1032.9047	1039.4446	1051.5083	1103.12	1113.5047	1121.1187	1126.7767	1159.5419	1172.7992	1197.3266	1241.2943	1266.3778	1317.2062	1323.5289	1325.4652	1352.4662	1396.1409	1414.5764	1436.9605	1463.5557	1486.6358	1492.0931	1500.257	1507.8546	1519.7263	1806.5867	2973.1054	3022.3355	3027.6379	3029.7724	3043.8571	3047.9954	3073.6548	3096.8116	3098.5228	3101.2376	3101.762	3180.653	3194.932
CCCC(=O)CN1CC1	CCCC(=O)CN1CC1	
InChI=1S/C7H13NO/c1-2-3-7(9)6-8-4-5-8/h2-6H2,1H3	InChI=1S/C7H13NO/c1-2-3-7(9)6-8-4-5-8/h2-6H2,1H3
