17
gdb 10418	2.57655	1.99763	1.41363	4.6913	68.41	-0.2406	0.0221	0.2627	932.7727	0.143842	-360.024122	-360.016015	-360.015071	-360.05652	29.878	
N	-0.1081071738	 1.3535830009	 0.3687357217	-0.517004
C	-0.1225331075	-0.0642994575	 0.0188667728	-0.214973
C	-1.5804831583	-0.5376603493	-0.145546268	 0.189209
C	-1.7553148149	-2.0794552375	 0.0087889539	-0.28598
C	-2.2376277153	-1.7682461009	 1.4485003149	-0.159425
N	-2.418605749	-0.3499898024	 1.0567501746	-0.320808
C	-2.1496292565	 0.0696026979	-1.360062811	 0.266285
N	-2.5623735626	 0.5516598852	-2.326532989	-0.350887
H	 0.8279319998	 1.6462517784	 0.6266927836	 0.237975
H	-0.3816607436	 1.9148780672	-0.433142969	 0.247964
H	 0.4420712844	-0.327737837	-0.8909646019	 0.1027
H	 0.3181975746	-0.625584908	 0.8503678621	 0.107853
H	-2.5396734713	-2.4816894124	-0.6319073788	 0.134482
H	-0.8465170951	-2.6713685954	-0.1086556209	 0.115152
H	-3.1591207872	-2.2582608332	 1.7757079892	 0.114579
H	-1.4624325358	-1.9430227716	 2.2058552568	 0.099541
H	-2.0500014978	 0.3618090158	 1.6806091991	 0.233336
105.4294	134.2291	187.7862	191.8456	249.1791	283.3978	368.7332	452.5323	533.2342	573.5904	644.9634	730.4279	783.2471	851.8489	906.7843	909.6008	950.8049	984.7754	1024.6944	1078.643	1086.1575	1113.7275	1156.7846	1176.6659	1207.9172	1248.8035	1281.093	1306.9295	1340.1508	1377.3379	1416.5651	1485.8293	1500.9058	1527.7828	1658.8411	2348.1199	2964.432	3014.571	3063.4997	3076.5173	3089.8194	3151.0852	3498.6125	3519.9487	3581.6725
NCC1(CCN1)C#N	NC[C@]1(CCN1)C#N	
InChI=1S/C5H9N3/c6-3-5(4-7)1-2-8-5/h8H,1-3,6H2	InChI=1S/C5H9N3/c6-3-5(4-7)1-2-8-5/h8H,1-3,6H2/t5-/m1/s1
