22
gdb 115632	2.21032	1.38304	0.99732	2.0777	83.94	-0.2307	0.0765	0.3071	1301.5213	0.192938	-404.302289	-404.292548	-404.291604	-404.33709	36.04	
C	-0.3753431552	 1.4862724018	-0.0182473985	-0.23614
O	-0.4901823868	 0.2258795876	 0.6029491975	-0.232022
C	-1.3682646212	-0.6358555377	-0.0574152174	 0.10485
C	-0.904536088	-1.353947161	-1.363481603	-0.256496
C	-1.495977852	-2.6812658263	-0.8008825753	-0.319162
C	-1.5506057239	-2.0186469655	 0.5830550963	 0.304043
N	-0.7663402711	-2.4418446217	 1.7424140189	-0.361842
C	-2.2442580072	-2.4195400163	 1.8247980382	-0.081657
C	-2.8388271221	-1.4033689185	 2.7699267802	-0.400929
H	 0.3026096051	 2.08796435	 0.5917108057	 0.128213
H	 0.038409057	 1.4099063844	-1.0351175804	 0.106187
H	-1.3485717646	 1.9990796545	-0.0816655443	 0.101591
H	-2.345762162	-0.1457849734	-0.2088949437	 0.06025
H	-1.2980193074	-0.9903209302	-2.3148492062	 0.095018
H	 0.1871341863	-1.3864413393	-1.4066585744	 0.114503
H	-2.4858001435	-2.9141748178	-1.2050539395	 0.106946
H	-0.8674634666	-3.5720482141	-0.887189391	 0.1025
H	-0.4339323434	-3.3933461445	 1.5995925796	 0.223285
H	-2.7525335118	-3.3837639465	 1.7949277816	 0.074619
H	-2.2615143934	-0.4762279463	 2.7296703139	 0.141416
H	-3.879449005	-1.1832849349	 2.5059862391	 0.108126
H	-2.8225146232	-1.7710951942	 3.8015533127	 0.116701
70.5312	86.9233	143.8554	163.192	204.4741	215.6457	233.3594	321.0827	391.4741	443.5426	451.9982	528.9308	583.6061	729.336	782.0199	802.4191	872.0961	913.5917	931.9558	958.2728	1014.1488	1018.5112	1045.7504	1072.1519	1100.7652	1115.5872	1126.3902	1170.5243	1183.6885	1190.9343	1224.9281	1230.7556	1248.4524	1253.8183	1280.307	1284.6499	1351.4019	1398.2498	1410.4803	1467.7409	1473.3329	1480.9275	1487.7875	1491.6613	1497.9076	1506.2264	1512.9508	2947.9871	2972.0748	3019.1104	3031.1619	3048.9076	3065.3864	3092.1867	3095.7012	3097.036	3115.1041	3126.1652	3127.9317	3482.6923
COC1CCC11NC1C	CO[C@H]1CC[C@]21N[C@H]2C	
InChI=1S/C7H13NO/c1-5-7(8-5)4-3-6(7)9-2/h5-6,8H,3-4H2,1-2H3	InChI=1S/C7H13NO/c1-5-7(8-5)4-3-6(7)9-2/h5-6,8H,3-4H2,1-2H3/t5-,6-,7-/m0/s1
