21
gdb 79899	3.74759	1.3299	1.14811	1.7415	81.6	-0.2482	0.0744	0.3226	1123.664	0.185659	-387.055861	-387.048427	-387.047483	-387.087289	30.882	
O	 0.2788574839	 1.4142247495	-0.1760703102	-0.455497
C	 0.0874822581	 0.0346820577	-0.0374420766	 0.182998
C	-0.0172221347	-0.6541260381	 1.3556667875	-0.108634
C	-1.4693696246	-0.0872216378	 1.4712877549	 0.008172
C	-2.446761836	-0.7876405011	 2.4163887777	-0.247752
C	-2.7471609436	-2.2097853911	 1.9261556745	-0.192572
C	-1.4672416481	-2.8688144472	 1.3956984039	-0.242301
C	-0.6313616029	-1.8698362966	 0.5966520181	 0.031337
C	-1.3326334429	-0.6042391994	-0.0080650816	-0.134326
H	-0.3231689555	 1.8809231497	 0.4120260672	 0.283503
H	 0.7911308009	-0.4321659026	-0.7321741447	 0.078319
H	 0.737633729	-0.6900143454	 2.1450749614	 0.06236
H	-1.5380132819	 1.0002214662	 1.5921780112	 0.035437
H	-2.0122663289	-0.807450326	 3.4252301939	 0.096691
H	-3.3758583343	-0.2116513986	 2.4944836095	 0.093897
H	-3.2140282863	-2.8141888502	 2.7104158479	 0.089449
H	-3.4722356013	-2.1481628004	 1.1054825479	 0.100546
H	-0.8605759088	-3.2600119973	 2.2235981008	 0.096285
H	-1.7209556944	-3.7309465099	 0.7685910611	 0.0951
H	 0.066435908	-2.3718885601	-0.082590602	 0.06024
H	-2.0871905655	-0.5751113812	-0.7969163724	 0.066749
175.6664	214.2461	236.9814	253.3251	301.1728	426.3398	450.1249	527.8	569.2272	677.683	750.1474	779.5721	803.5261	813.1034	879.1735	892.4988	900.7609	930.5436	984.5631	1009.3911	1021.4304	1041.4218	1061.7532	1092.5604	1107.1545	1111.9819	1143.7127	1169.2899	1179.9236	1205.2322	1217.8125	1234.227	1242.7424	1275.3034	1283.7141	1303.2995	1346.2504	1362.6987	1364.811	1396.0284	1430.4418	1461.4126	1486.9079	1488.2716	1504.8985	3010.9345	3014.8493	3023.8141	3027.6211	3041.0561	3057.4791	3060.6083	3075.3036	3077.9352	3082.9132	3093.9628	3819.323
OC1C2C3CCCC2C13	O[C@H]1[C@H]2[C@@H]3CCC[C@H]2[C@H]13	
InChI=1S/C8H12O/c9-8-6-4-2-1-3-5(6)7(4)8/h4-9H,1-3H2	InChI=1S/C8H12O/c9-8-6-4-2-1-3-5(6)7(4)8/h4-9H,1-3H2/t4-,5+,6-,7+,8-
