13
gdb 48386	2.78434	1.2567	1.05154	2.5756	67.94	-0.2604	-0.0723	0.1881	1121.392	0.084138	-456.506896	-456.498049	-456.497105	-456.540866	30.673	
O	-0.3703475001	 0.3797987063	-0.7088271228	-0.239836
C	-0.0096273531	 1.1066543921	 0.1768387879	 0.092033
C	 1.2346232136	 1.9571844323	 0.0940264437	 0.193384
O	 2.1958067898	 1.6248607227	-0.9029257723	-0.241617
C	 1.4739883208	 2.8221873653	-1.123603944	-0.229208
C	 0.5385356765	 2.8882422327	-2.2071729892	 0.352297
C	-0.2263609108	 3.0062960591	-3.1255041862	-0.375622
C	 1.8119616778	 2.4703232552	 1.3807567915	 0.106313
O	 1.1874829732	 2.5524175075	 2.4064852376	-0.242536
H	-0.5558535626	 1.215579536	 1.1326248383	 0.125217
H	 2.0549180215	 3.7304872483	-0.955414609	 0.13513
H	-0.9080940571	 3.0875585889	-3.9367357488	 0.21723
H	 2.8793563906	 2.7705780035	 1.2959992934	 0.107214
81.8419	103.8517	137.9359	169.1301	199.1785	255.7113	304.6364	328.3386	467.1623	522.9689	568.1344	660.3643	673.7441	684.7247	759.5184	811.7041	907.4704	994.1017	1049.7081	1059.6116	1083.1281	1221.1173	1305.0814	1385.7239	1410.2592	1423.7517	1819.3421	1832.3206	2245.8403	2901.1256	2965.7338	3100.1917	3498.9212
O=CC1(OC1C#C)C=O	O=CC1(O[C@H]1C#C)C=O	
InChI=1S/C6H4O3/c1-2-5-6(3-7,4-8)9-5/h1,3-5H	InChI=1S/C6H4O3/c1-2-5-6(3-7,4-8)9-5/h1,3-5H/t5-/m0/s1
