17
gdb 123569	3.86812	1.65596	1.28086	2.9612	77.82	-0.2295	0.0275	0.257	969.7337	0.140519	-380.885937	-380.8796	-380.878655	-380.91655	26.049	
C	-0.0681139172	 1.4404123217	 0.1306568277	-0.297191
C	 1.2788402638	 0.7563426984	 0.0249757097	-0.045739
C	 2.0479035868	 0.4266538325	 1.3175765444	-0.376991
C	 1.097167949	-0.4837187212	 2.0458569979	 0.389885
C	 0.8697580747	-1.1363245178	 3.2415284059	-0.382021
C	-0.3779795106	-1.7765365273	 3.0484029449	 0.008023
N	-0.9013085929	-1.5318639469	 1.8427171368	-0.300367
N	 0.0273348219	-0.7602249697	 1.2584214262	 0.064583
C	 0.0034814828	-0.0606672765	 0.0075240571	 0.004455
H	-0.3809268965	 1.8480056844	 1.086354825	 0.130774
H	-0.4048341021	 1.9979656123	-0.736727052	 0.122516
H	 1.8474492535	 0.8959306696	-0.8857889953	 0.10144
H	 2.995251268	-0.0746135006	 1.0871158319	 0.12521
H	 2.2942241374	 1.3252081786	 1.8934265528	 0.127944
H	 1.5007149329	-1.16510873	 4.1147512352	 0.101152
H	-0.9129314303	-2.4117843206	 3.7397599217	 0.107534
H	-0.380113001	-0.6013080168	-0.8475822198	 0.118793
129.1639	227.6406	322.3435	421.3756	447.0871	610.3121	656.7278	677.2426	716.4077	766.124	785.2673	807.1431	811.0435	880.12	895.9011	955.5206	975.767	999.1715	1048.0492	1054.9902	1068.2703	1080.7089	1098.2416	1155.2389	1187.592	1200.0851	1208.756	1282.2999	1291.987	1342.5625	1351.4174	1405.3677	1424.2194	1469.3544	1485.3865	1497.0604	1579.9935	3036.1411	3069.6037	3131.5199	3189.6743	3204.1702	3223.3785	3239.8595	3270.3022
C1C2CC3=CC=NN3C12	C1[C@H]2Cc3ccnn3[C@@H]12	
InChI=1S/C7H8N2/c1-2-8-9-6(1)3-5-4-7(5)9/h1-2,5,7H,3-4H2	InChI=1S/C7H8N2/c1-2-8-9-6(1)3-5-4-7(5)9/h1-2,5,7H,3-4H2/t5-,7+/m1/s1
