15
gdb 125594	3.2236	1.45097	1.00682	1.6173	73.25	-0.2232	-0.0418	0.1813	1117.8986	0.114444	-450.188098	-450.179994	-450.17905	-450.220584	30.309	
C	-0.0168303122	 1.493884429	-0.0195043292	-0.45325
C	-0.001478975	-0.0063142269	-0.0186373625	 0.36977
N	-0.0332786952	-0.6067273549	-1.1757669753	-0.265181
N	-0.0173603195	-1.9708151649	-1.1162924245	-0.285666
C	 0.0275473575	-2.7488778624	-0.0003872919	 0.401688
O	 0.038580105	-3.9733875759	 0.004145452	-0.409417
C	 0.0583105512	-1.9174695844	 1.2305183762	 0.310006
N	 0.1022397882	-2.6276841944	 2.3662376117	-0.542641
N	 0.044569717	-0.611961767	 1.211521863	-0.370558
H	 0.8756397297	 1.8809531198	 0.4828129934	 0.137145
H	-0.0533750941	 1.8742555412	-1.0405510501	 0.137513
H	-0.8831432697	 1.8630100641	 0.5389912271	 0.137164
H	-0.0423824955	-2.4369388985	-2.0129653132	 0.274941
H	 0.1110058194	-3.6320241325	 2.2857264093	 0.28605
H	 0.127290953	-2.1663021924	 3.2585226239	 0.272439
113.6049	148.1526	193.1288	253.9214	291.9168	333.6775	355.9973	453.359	499.6971	532.4959	580.1161	632.4243	657.2727	721.7547	721.8718	800.8636	821.1336	971.6664	997.6508	1065.1753	1118.8706	1205.9074	1302.8475	1367.5174	1406.7415	1414.645	1462.672	1475.4916	1476.7991	1557.0413	1619.1195	1664.1885	1770.4978	3044.902	3100.5754	3154.2017	3599.0406	3603.9517	3744.2811
CC1=NNC(=O)C(N)=N1	Cc1n[nH]c(=O)c(N)n1	
InChI=1S/C4H6N4O/c1-2-6-3(5)4(9)8-7-2/h1H3,(H,8,9)(H2,5,6,7)	InChI=1S/C4H6N4O/c1-2-6-3(5)4(9)8-7-2/h1H3,(H,8,9)(H2,5,6,7)
