21
gdb 115970	3.32957	1.03845	0.82432	2.4768	81.51	-0.2394	0.0227	0.2621	1419.4566	0.182682	-424.23841	-424.229238	-424.228294	-424.272246	34.738	
C	 0.0149867683	 1.5060242297	 0.0037469074	-0.476281
C	-0.0077832339	 0.0036891093	-0.0201465668	 0.307619
C	-0.0604895945	-0.7075319615	-1.1467572267	-0.158942
C	-0.039576804	-2.2105124815	-1.1665418049	-0.123195
O	 0.3134889012	-2.7745629397	 0.083134138	-0.277182
C	-0.3717548718	-2.1714124771	 1.1795332011	 0.092505
C	-0.0245190694	-3.0273565811	 2.391498035	-0.066084
O	-0.4076008448	-4.3727558254	 2.1996769437	-0.427424
C	 0.0323681583	-0.7031261428	 1.3169350714	-0.30744
H	 0.9101008146	 1.8781002533	 0.5191505971	 0.125023
H	 0.0050269144	 1.927530207	-1.004975794	 0.121206
H	-0.8472227496	 1.906923069	 0.5522143207	 0.123326
H	-0.1182948517	-0.2138758152	-2.1140866299	 0.083448
H	-1.0190432754	-2.6006939924	-1.5003088896	 0.098423
H	 0.7055430664	-2.5744836992	-1.8843002125	 0.116582
H	-1.4582866817	-2.2374067755	 1.0019420545	 0.073073
H	 1.0570881827	-2.9383964238	 2.5874900695	 0.088137
H	-0.5578669621	-2.6578124701	 3.2737177056	 0.104739
H	-0.0732277362	-4.6098131388	 1.3259634957	 0.288118
H	 1.039702904	-0.6268485343	 1.7518394051	 0.11051
H	-0.6436247646	-0.2027843399	 2.0232809996	 0.103839
83.2426	133.4045	168.0358	188.2519	219.2362	273.1502	306.2527	392.6184	425.7918	455.4889	461.9976	489.7198	569.8236	714.7976	804.7908	823.9295	867.9975	914.0698	948.1663	1030.696	1036.5518	1042.982	1069.8634	1087.6015	1092.5556	1113.5185	1158.0176	1185.3055	1210.6529	1241.5579	1275.1331	1296.7126	1338.857	1376.9592	1380.7212	1399.9754	1407.8012	1416.9417	1444.8426	1468.0318	1478.7027	1490.9224	1492.2633	1499.0589	1748.329	2932.8642	2961.9324	2975.0474	3002.4576	3014.8415	3039.834	3046.598	3060.3895	3075.2211	3111.1406	3154.9724	3787.3336
CC1=CCOC(CO)C1	CC1=CCO[C@@H](CO)C1	
InChI=1S/C7H12O2/c1-6-2-3-9-7(4-6)5-8/h2,7-8H,3-5H2,1H3	InChI=1S/C7H12O2/c1-6-2-3-9-7(4-6)5-8/h2,7-8H,3-5H2,1H3/t7-/m1/s1
