19
gdb 118594	1.71662	1.20835	0.7186	3.7321	77.74	-0.2526	-0.0218	0.2308	1537.9244	0.157191	-456.363767	-456.353246	-456.352302	-456.400213	36.183	
C	-0.0529260596	 1.4637699314	 0.0333293368	-0.348428
N	 0.0169212526	 0.0171665152	-0.0629095697	-0.271444
C	 0.6520709796	-0.6562612094	 0.8119283581	 0.391233
C	 0.7251143653	-2.156570783	 0.7127688579	-0.251206
C	-0.0174449521	-2.7070509512	-0.4979197323	-0.084169
O	 0.1395967366	-4.1195960781	-0.4566224463	-0.426022
N	 1.3094772607	-0.0436027481	 1.9012787534	-0.358302
C	 2.0363362339	-0.6011411344	 2.9326624664	 0.161972
O	 2.2620375973	-1.7717980328	 3.1123826476	-0.288129
H	 0.9392655569	 1.940342874	-0.0130326333	 0.116609
H	-0.636216741	 1.8509748303	-0.8051848089	 0.134519
H	-0.5467350598	 1.8037541459	 0.9575870518	 0.1167
H	 1.7724928425	-2.4741456374	 0.6820636493	 0.142572
H	 0.3281453472	-2.607040822	 1.6283510197	 0.142554
H	-1.0749033877	-2.4126930668	-0.4547520474	 0.097982
H	 0.3977871351	-2.2771855023	-1.4196211759	 0.097983
H	-0.3228258652	-4.4898125522	-1.2135857989	 0.28514
H	 1.2383569787	 0.9623721145	 1.9347422495	 0.251727
H	 2.4073981788	 0.1931148964	 3.611185972	 0.088709
52.5515	96.1092	106.9802	133.0299	141.2157	203.8834	249.1552	257.2317	261.3783	282.6954	371.4058	423.7222	592.2743	605.3552	640.8193	801.8034	804.3851	841.5759	1027.8678	1028.9504	1051.8788	1077.1437	1079.9476	1112.5508	1120.3893	1192.178	1214.3072	1227.2421	1262.7904	1299.6192	1374.5475	1434.4464	1447.565	1453.3692	1462.9744	1476.8612	1512.7299	1520.9132	1524.9914	1735.4703	1828.489	2932.2339	2964.9588	3003.1747	3013.9365	3033.5807	3063.1724	3094.8259	3104.5635	3620.0465	3835.5754
CN=C(CCO)NC=O	CN=C(CCO)NC=O	
InChI=1S/C5H10N2O2/c1-6-5(2-3-8)7-4-9/h4,8H,2-3H2,1H3,(H,6,7,9)	InChI=1S/C5H10N2O2/c1-6-5(2-3-8)7-4-9/h4,8H,2-3H2,1H3,(H,6,7,9)
