21
gdb 57252	2.11446	1.56284	1.21753	1.8489	83.42	-0.2535	0.055	0.3085	1155.6577	0.178286	-387.042516	-387.03216	-387.031216	-387.077193	39.321	
C	-0.2838614298	 1.5060499921	-0.2179929524	-0.413413
C	 0.0035972998	-0.0020151097	-0.0071221426	-0.017912
C	 0.8161457601	-0.213611289	 1.2934403637	-0.418492
C	-1.2851040798	-0.6907215223	 0.1345172208	 0.348903
C	-2.3487753954	-1.2239629023	 0.307012131	-0.486632
C	 0.7873381431	-0.5468651675	-1.2280195134	 0.425048
C	 2.1979862485	-0.0244444046	-1.4275411917	-0.476875
C	 0.4433491645	-1.8463410173	-1.8253168552	-0.239814
O	 0.0172803839	-0.6198530488	-2.4322944981	-0.27995
H	 0.6442910595	 2.0841133263	-0.2376814879	 0.11289
H	-0.8159576102	 1.6603490237	-1.1593951261	 0.144015
H	-0.9033861	 1.8875668872	 0.5975784457	 0.123392
H	 0.2314101405	 0.1160652552	 2.1559010473	 0.128098
H	 1.0632235445	-1.2696969523	 1.4347733205	 0.124027
H	 1.7447520155	 0.3630156105	 1.271001347	 0.118089
H	-3.2900055829	-1.6973427025	 0.4408168082	 0.194094
H	 2.8735576661	-0.3776905815	-0.6430922626	 0.125708
H	 2.5762283504	-0.3758521142	-2.3901998373	 0.130434
H	 2.2296614312	 1.0687563947	-1.4361158404	 0.127368
H	 1.2084816033	-2.3937992254	-2.3751311096	 0.103948
H	-0.3529084427	-2.4484904123	-1.3967570969	 0.127076
46.1103	153.4599	174.1604	192.4412	209.0177	262.6088	274.3272	301.5857	316.3785	377.7881	394.083	411.0856	480.3386	549.1559	570.5045	622.2785	631.8912	645.3921	791.8604	845.5229	907.0359	924.1953	941.3806	949.2635	1025.4391	1029.4582	1097.4251	1136.1889	1164.4444	1167.3757	1175.0587	1223.7457	1291.2046	1381.8429	1390.5412	1408.6712	1419.6346	1475.9833	1485.3802	1494.3523	1496.7564	1503.0899	1509.0754	1523.3619	2230.734	3043.2969	3045.1378	3050.8521	3088.4225	3112.0752	3119.9466	3120.7367	3123.5081	3129.5051	3134.8444	3188.0731	3500.3415
CC(C)(C#C)C1(C)CO1	CC(C)(C#C)[C@@]1(C)CO1	
InChI=1S/C8H12O/c1-5-7(2,3)8(4)6-9-8/h1H,6H2,2-4H3	InChI=1S/C8H12O/c1-5-7(2,3)8(4)6-9-8/h1H,6H2,2-4H3/t8-/m1/s1
