19
gdb 59346	3.07624	1.10524	1.02069	2.1181	71.85	-0.2507	-0.0341	0.2166	1249.6932	0.156974	-460.166634	-460.156959	-460.156015	-460.201344	35.42	
C	 0.0092840075	 1.5440062548	 0.0528002845	-0.414614
C	 0.0060691643	 0.0139185757	 0.0734942631	 0.11496
O	 0.6960907511	-0.4977963374	 1.2071654338	-0.439994
C	-1.4173276543	-0.5541088778	 0.0019349389	-0.11506
C	-1.638001542	-2.1006474775	 0.0392920092	-0.310302
C	-2.8479873826	-1.9031124146	 1.0297256378	 0.073825
O	-3.0976072352	-2.7688953792	 2.0884904191	-0.426563
C	-2.2046187169	-0.5494971737	 1.3210280133	 0.328106
O	-2.0273012423	 0.0258658047	 2.3657347766	-0.333637
H	 1.0345811562	 1.9154254156	 0.129123259	 0.126628
H	-0.4317471602	 1.9292510436	-0.8725446637	 0.113045
H	-0.5682713884	 1.9387129044	 0.895354757	 0.135484
H	 0.5695119516	-0.3622226456	-0.7891206526	 0.095236
H	 0.2721143253	-0.1175584134	 1.9872854917	 0.292275
H	-1.984676595	-0.0919992461	-0.812398339	 0.100595
H	-1.8674679613	-2.5971595851	-0.903187886	 0.115257
H	-0.8008691828	-2.5898342753	 0.5416968099	 0.135617
H	-3.7695426436	-1.7910909146	 0.4464341545	 0.114739
H	-2.5463400613	-2.4913703085	 2.8303419027	 0.294405
75.5488	85.7132	114.7034	157.9434	229.5495	258.4647	276.2351	330.6823	362.263	440.2232	465.382	500.6203	570.7281	647.9407	708.2846	788.4666	821.0441	891.2725	941.3934	967.357	998.597	1010.386	1050.134	1055.058	1097.2694	1150.4424	1160.6425	1173.7212	1228.1482	1251.69	1288.3198	1327.5278	1344.0753	1353.3119	1403.3035	1423.6922	1434.8372	1478.5179	1492.4816	1502.627	1834.6773	3035.5038	3037.1131	3047.9196	3065.1833	3083.2861	3107.6509	3122.146	3153.5942	3773.6715	3784.3213
CC(O)C1CC(O)C1=O	C[C@@H](O)[C@H]1C[C@@H](O)C1=O	
InChI=1S/C6H10O3/c1-3(7)4-2-5(8)6(4)9/h3-5,7-8H,2H2,1H3	InChI=1S/C6H10O3/c1-3(7)4-2-5(8)6(4)9/h3-5,7-8H,2H2,1H3/t3-,4-,5-/m1/s1
