15
gdb 31378	2.95141	1.42124	0.96512	6.2749	70.66	-0.23	-0.0193	0.2107	1152.6717	0.11429	-454.008671	-454.000762	-453.999818	-454.041431	28.861	
C	-0.0500422616	 1.3810779558	 0.0723134359	-0.23504
O	 0.0124250118	-0.049420938	-0.0179928384	-0.26839
C	 0.629612042	-0.5418086703	-1.0983579887	 0.540381
N	 1.1441784231	 0.1936112633	-2.0145491273	-0.427489
C	 1.778053591	-0.4120282952	-3.1232301282	 0.370936
O	 2.2740909039	 0.2584588957	-4.0058742753	-0.365157
C	 1.7952167871	-1.8852399325	-3.1335639905	-0.225863
C	 1.2313447193	-2.5798943038	-2.1311237663	 0.012304
N	 0.6328176706	-1.91048684	-1.0858704919	-0.374005
H	 0.954861397	 1.8079033646	 0.0961901324	 0.152597
H	-0.5876555663	 1.796082446	-0.7828306369	 0.15271
H	-0.5812269817	 1.5858508477	 1.0018623174	 0.133785
H	 2.2716551066	-2.3848498085	-3.9659812075	 0.119578
H	 1.2060274889	-3.6609777944	-2.0720633277	 0.139236
H	 0.1991985483	-2.3931995603	-0.3158782772	 0.274417
103.4782	138.7804	150.7513	214.022	231.6299	402.1536	451.3599	504.2845	513.6275	541.1013	611.4363	724.3248	748.6907	772.1892	847.0548	944.1805	964.9727	1014.6359	1050.0492	1092.7273	1183.3786	1195.2827	1209.2913	1266.0401	1321.5551	1415.534	1473.9183	1477.4932	1497.5497	1522.7128	1631.7955	1708.3716	1781.7042	3059.0309	3139.5473	3163.0532	3209.8689	3235.9139	3653.8424
COC1=NC(=O)C=CN1	COc1nc(=O)cc[nH]1	
InChI=1S/C5H6N2O2/c1-9-5-6-3-2-4(8)7-5/h2-3H,1H3,(H,6,7,8)	InChI=1S/C5H6N2O2/c1-9-5-6-3-2-4(8)7-5/h2-3H,1H3,(H,6,7,8)
