19
gdb 57280	2.61029	1.27986	1.07703	2.456	75.02	-0.2557	0.027	0.2828	1182.0188	0.158903	-419.189923	-419.18041	-419.179466	-419.224688	34.567	
C	 0.0195122336	 1.5237088307	 0.0923945609	-0.400985
C	 0.0016251355	-0.0140098672	 0.0297982691	 0.041767
N	 0.7154588571	-0.5307464251	 1.2011501991	-0.510722
C	-1.4110844349	-0.4793136754	 0.0016084063	 0.259075
N	-2.499788988	-0.8701814384	 0.0072050419	-0.341302
C	 0.6767517442	-0.5005735826	-1.2715990282	-0.016031
C	 2.2224614435	-0.4685736184	-1.3001975144	-0.094443
O	 2.2906417716	-1.9092256162	-1.3562926133	-0.271503
C	 0.8594889178	-2.02326763	-1.4577063177	-0.102353
H	 1.0557622052	 1.8705619016	 0.0860728777	 0.139093
H	-0.5131864814	 1.9559965495	-0.7579216395	 0.136167
H	-0.4584903935	 1.8787667432	 1.0098904133	 0.131242
H	 0.2578729545	-0.2193051588	 2.0523953056	 0.242822
H	 0.7050774322	-1.546019533	 1.2169348395	 0.24916
H	 0.1898194655	-0.00709013	-2.1145571177	 0.09672
H	 2.653637652	-0.0040109202	-2.1954852809	 0.100119
H	 2.7068066201	-0.0719809667	-0.4033268867	 0.1246
H	 0.4332151141	-2.6727373988	-0.6817308413	 0.104952
H	 0.5414033708	-2.4053264542	-2.4354609536	 0.111623
44.0343	91.5913	142.6072	187.5338	229.6486	258.2652	286.6223	298.6807	368.6537	415.3558	443.5797	568.8854	601.7481	694.4878	814.1583	855.9946	878.3151	888.3272	943.9205	975.4007	1029.786	1036.4945	1046.5858	1083.6901	1092.3804	1157.6572	1169.2742	1178.579	1230.7346	1259.1198	1304.2805	1314.6821	1368.435	1393.7354	1408.9083	1486.5546	1492.9039	1507.8046	1539.2826	1663.21	2337.7665	3009.6271	3024.6305	3048.294	3049.095	3087.2131	3097.5055	3123.2171	3136.453	3502.887	3581.6545
CC(N)(C#N)C1COC1	C[C@@](N)(C#N)C1COC1	
InChI=1S/C6H10N2O/c1-6(8,4-7)5-2-9-3-5/h5H,2-3,8H2,1H3	InChI=1S/C6H10N2O/c1-6(8,4-7)5-2-9-3-5/h5H,2-3,8H2,1H3/t6-/m1/s1
