21
gdb 74660	3.42673	1.33081	1.26494	0.215	87.3	-0.2261	0.0321	0.2582	1117.1815	0.18444	-349.943269	-349.93562	-349.934676	-349.975052	31.411	
C	-0.0478512145	 1.5227901761	 0.0560711473	-0.488543
C	-0.0020626124	 0.0270851268	 0.001659578	 0.326207
C	 0.0092952181	-0.737764428	-1.0975417704	-0.182491
C	 0.0619896901	-2.2028956555	-0.7820289039	-0.056784
C	 1.4208481365	-2.9559575421	-0.8277655867	-0.056297
C	 2.4807940552	-2.2061954285	-0.0747327425	-0.285786
C	 1.4580727518	-2.9870171745	 0.7034250401	-0.057861
C	 0.1025491598	-2.2572306576	 0.783029313	-0.022064
C	 0.0323461775	-0.797173181	 1.2814037478	-0.328193
H	 0.8211863068	 1.9269691265	 0.5909944588	 0.12346
H	-0.0683411282	 1.9657262696	-0.9434552631	 0.121037
H	-0.9343909722	 1.8710258446	 0.6021100547	 0.122525
H	-0.0029125548	-0.3442834388	-2.1095940772	 0.079662
H	-0.740075371	-2.7844997107	-1.246205332	 0.067898
H	 1.6658539075	-3.7448330011	-1.5289388539	 0.078245
H	 3.4679726127	-2.656749433	-0.1027916833	 0.105749
H	 2.4887815454	-1.1202854551	-0.0661994091	 0.109623
H	 1.7522919367	-3.8019818624	 1.3546521805	 0.078166
H	-0.6714527689	-2.8913023287	 1.2183192846	 0.067992
H	 0.8962601157	-0.5281134746	 1.9051587972	 0.101536
H	-0.8574849116	-0.603814422	 1.89586798	 0.095918
119.3857	169.1126	203.6042	291.3632	317.1502	408.9153	461.372	513.083	608.8517	643.1814	741.4708	762.6866	801.6676	847.8368	856.1434	864.8305	909.2128	927.1613	969.3525	981.5711	1002.7244	1010.8624	1037.6953	1048.9162	1064.4734	1077.9381	1086.2821	1091.8259	1135.413	1176.8086	1190.8659	1212.2756	1247.7271	1279.2587	1281.9211	1312.1748	1323.7458	1349.4985	1365.6561	1411.8093	1479.546	1481.0517	1486.7696	1488.9545	1704.4757	3004.5631	3015.2552	3029.8114	3055.9203	3059.4558	3092.5006	3108.553	3121.3803	3168.4123	3173.3399	3179.7469	3204.4186
CC1=CC2C3CC3C2C1	CC1=C[C@H]2[C@H]3C[C@H]3[C@H]2C1	
InChI=1S/C9H12/c1-5-2-6-7(3-5)9-4-8(6)9/h2,6-9H,3-4H2,1H3	InChI=1S/C9H12/c1-5-2-6-7(3-5)9-4-8(6)9/h2,6-9H,3-4H2,1H3/t6-,7+,8-,9+/m1/s1
