22
gdb 78325	2.82185	1.45387	1.24325	1.218	86.76	-0.2107	0.0856	0.2964	1143.6253	0.193925	-367.146773	-367.13828	-367.137336	-367.179096	34.279	
C	-0.1467493086	 1.3004991225	-0.0633691746	-0.318075
N	 0.1042303598	-0.1329103024	 0.0489243329	-0.102805
C	 1.5223845801	-0.4882715375	-0.1379849055	-0.038327
C	 0.9094696544	-0.4884344664	 1.227862141	-0.091239
C	 1.019461609	-2.0343585676	 1.3161028981	 0.345684
C	 1.7789972653	-2.5538514852	 2.5157958142	-0.493578
C	-0.2000213724	-2.8463507869	 0.7746340154	-0.273417
C	 0.429727043	-2.8502855191	-0.6540455332	-0.220304
C	 1.6409815649	-2.0278378118	-0.1249909033	-0.099853
H	 0.6796181798	 1.9302007482	 0.3089066188	 0.096169
H	-0.3205286474	 1.5531102693	-1.1142279446	 0.122509
H	-1.0485889518	 1.5526653366	 0.5036472129	 0.122171
H	 2.1931705227	 0.226118171	-0.6025011062	 0.083939
H	 1.0094854557	 0.2204447424	 2.0440034044	 0.078699
H	 1.1823597392	-2.4616183136	 3.4321923575	 0.114523
H	 2.0380281099	-3.6110031079	 2.392528502	 0.113881
H	 2.7104397285	-1.996027815	 2.6691553209	 0.112441
H	-0.2791098246	-3.8403302324	 1.2243758714	 0.086561
H	-1.1631731561	-2.3401856966	 0.8532861283	 0.103959
H	 0.7109318458	-3.8455603015	-1.0069926968	 0.088782
H	-0.1636221123	-2.3521143341	-1.4216974822	 0.10679
H	 2.6483806551	-2.410258472	-0.2979701014	 0.061489
165.4575	184.525	212.2031	229.579	250.1079	280.7768	324.9098	369.029	444.1635	502.5996	615.6596	707.1632	734.3616	799.9077	831.2533	848.3924	851.2337	885.0577	896.4083	923.4553	947.1162	992.5243	1005.7105	1020.246	1083.3371	1121.3074	1121.9507	1129.517	1161.774	1164.6288	1200.8654	1226.9404	1230.8388	1245.391	1260.6073	1274.1119	1309.0335	1329.3692	1366.3952	1408.9522	1453.6812	1457.339	1478.4606	1491.6109	1492.6443	1493.1777	1499.2014	2955.6322	3014.8951	3055.5339	3064.1623	3066.7871	3076.2284	3089.6313	3095.5999	3101.4078	3118.1259	3133.9021	3154.8946	3173.4244
CN1C2C1C1(C)CCC21	CN1[C@H]2[C@@H]1[C@@]1(C)CC[C@@H]21	
InChI=1S/C8H13N/c1-8-4-3-5(8)6-7(8)9(6)2/h5-7H,3-4H2,1-2H3	InChI=1S/C8H13N/c1-8-4-3-5(8)6-7(8)9(6)2/h5-7H,3-4H2,1-2H3/t5-,6+,7+,8-,9?/m0/s1
