14
gdb 20656	7.16008	1.29993	1.10773	4.7429	68.2	-0.2569	-0.0458	0.2112	1020.8541	0.107923	-378.762181	-378.754961	-378.754016	-378.794023	25.525	
C	-0.03180943	 1.547100304	 0.0269952397	-0.504456
C	 0.0039088479	 0.051409786	-0.0088934074	 0.165677
C	-0.0387362378	-0.7778224477	-1.0948470006	-0.096972
N	 0.0208113588	-2.0727931752	-0.62644594	-0.016352
C	 0.0038358017	-3.2271927189	-1.4198483271	 0.191928
O	 0.0558168708	-4.3493605519	-1.0093754738	-0.257887
N	 0.1011404837	-2.1177355395	 0.7313002603	-0.226771
C	 0.0905691926	-0.8523977897	 1.0972541318	-0.034069
H	 0.8618045692	 1.9570838797	 0.5100669562	 0.139304
H	-0.0870813894	 1.9657857882	-0.9810981758	 0.130077
H	-0.8983766612	 1.9134730634	 0.5882520795	 0.139448
H	-0.1052485997	-0.5694116161	-2.1514077831	 0.147293
H	-0.0652815942	-2.9530505965	-2.4893884166	 0.096929
H	 0.1456675776	-0.6024666457	 2.1484637468	 0.125852
89.2446	104.9738	202.667	266.74	300.6781	333.0456	498.3443	619.9215	673.9386	683.5833	796.2979	822.8119	907.3692	974.8058	996.1631	1025.5672	1030.9811	1067.4103	1183.7277	1223.0488	1290.7175	1377.6705	1398.5004	1421.4792	1452.7627	1459.6786	1483.6857	1500.3314	1641.0055	1853.7561	2963.1059	3035.0371	3087.5003	3117.2008	3230.8972	3257.9772
CC1=CN(C=O)N=C1	Cc1cn(C=O)nc1	
InChI=1S/C5H6N2O/c1-5-2-6-7(3-5)4-8/h2-4H,1H3	InChI=1S/C5H6N2O/c1-5-2-6-7(3-5)4-8/h2-4H,1H3
