14
gdb 9448	2.85006	1.80472	1.73165	5.6395	64.07	-0.253	-0.0011	0.2519	841.8208	0.10805	-374.891639	-374.883782	-374.882838	-374.923725	28.431	
N	 0.1567404813	 1.5003461018	 0.1422535521	-0.550591
C	 0.021965625	 0.0631632573	 0.0036663669	 0.075473
C	-1.4514741499	-0.4665350803	-0.1370827179	-0.1873
N	-1.0131446823	-1.1807550835	-1.3440608926	-0.32418
C	 0.2359269406	-0.583253828	-1.4004816109	 0.333214
N	 1.1931267121	-0.4642830572	-2.2111396916	-0.53698
C	 0.7765341082	-0.6159668883	 1.056320368	 0.288142
N	 1.3738755824	-1.1615937332	 1.8809081093	-0.329329
H	 1.1433257774	 1.7442596469	 0.1669141667	 0.258651
H	-0.2247317203	 1.949823886	-0.6861090971	 0.241201
H	-1.8193914873	-1.1077118241	 0.6663446601	 0.139932
H	-2.1521742264	 0.3565264472	-0.3144711378	 0.122279
H	-1.5876117252	-1.4723752332	-2.1211426814	 0.249676
H	 1.0203043344	-0.9364354914	-3.0996891638	 0.219812
104.3675	141.1662	182.1307	226.4942	240.0061	329.4269	426.7743	436.996	553.0176	578.4667	651.0072	708.086	781.4892	829.6525	855.8823	936.8727	1002.2786	1017.0741	1036.4234	1078.4884	1144.472	1228.163	1240.9164	1323.4276	1347.4404	1379.353	1520.6305	1662.9465	1805.5838	2363.9041	3043.7905	3114.5553	3470.4192	3489.6433	3567.9594	3609.1352
NC1(CNC1=N)C#N	N[C@]1(CN[C]1[NH])C#N	
InChI=1S/C4H6N4/c5-1-4(7)2-8-3(4)6/h2,7H2,(H2,6,8)	InChI=1S/C4H6N4/c5-1-4(7)2-8-3(4)6/h2,7H2,(H2,6,8)/t4-/m0/s1
