17
gdb 105282	2.49635	1.27531	0.96768	2.9994	77.59	-0.2604	-0.0533	0.2072	1235.5581	0.131626	-421.778045	-421.768422	-421.767477	-421.812683	34.4	
C	-0.5086664765	 1.3152209798	 0.1595308621	-0.385734
C	 0.2347788682	-0.0013130752	-0.0978720092	-0.279922
C	 0.9096709231	-0.5219353625	 1.1588512482	 0.175108
O	 0.0429597598	-1.1101139628	 2.1331975571	-0.25014
C	 0.9584976737	-1.9880264602	 1.5001459979	-0.094926
C	 0.4276753748	-3.0373651928	 0.5734764951	 0.138187
O	-0.6808807523	-3.0532042333	 0.102980092	-0.245164
C	 1.9764749696	 0.2966087598	 1.6920716862	 0.309703
C	 2.8686794686	 0.98866377	 2.1043283088	-0.415399
H	 0.1732746147	 2.0979531476	 0.504456544	 0.128718
H	-0.9915603002	 1.6636813645	-0.7574437306	 0.119282
H	-1.282605216	 1.1766258186	 0.9199418667	 0.136992
H	-0.4641495674	-0.7616143768	-0.4514733347	 0.145998
H	 1.001646282	 0.1399040808	-0.8682441278	 0.10899
H	 1.7942213533	-2.315052666	 2.1203003714	 0.11475
H	 1.1734292796	-3.8292534899	 0.3381174262	 0.087857
H	 3.6530171549	 1.6001683084	 2.4780995364	 0.2057
79.531	105.0283	128.707	158.9145	180.6712	223.2457	267.6025	275.5138	381.5359	416.8955	545.7451	579.6111	635.7571	667.464	672.3328	753.912	793.0253	835.7946	908.2927	944.6542	985.322	1000.087	1080.2282	1096.7951	1116.7916	1229.0976	1279.242	1322.0733	1373.2558	1408.9699	1418.3105	1426.1827	1475.549	1498.1517	1508.2042	1822.9245	2235.1174	2885.3524	3044.7778	3047.0594	3109.4208	3110.1754	3120.1432	3130.8606	3498.6777
CCC1(OC1C=O)C#C	CC[C@]1(O[C@H]1C=O)C#C	
InChI=1S/C7H8O2/c1-3-7(4-2)6(5-8)9-7/h1,5-6H,4H2,2H3	InChI=1S/C7H8O2/c1-3-7(4-2)6(5-8)9-7/h1,5-6H,4H2,2H3/t6-,7+/m0/s1
