16
gdb 127721	2.40022	1.68523	1.00245	1.5133	75.34	-0.2672	-0.0725	0.1947	1136.496	0.123805	-434.090054	-434.081173	-434.080229	-434.12468	30.438	
C	-0.0346151921	 1.4498015542	-0.0091889854	-0.320033
N	-0.0231943215	-0.0017985855	 0.0754872064	-0.014291
N	-0.0776772167	-0.7337137795	-1.0334139423	-0.131593
N	-0.0537507142	-2.0027823249	-0.6922144573	-0.249965
C	 0.0172363813	-2.0977429168	 0.6565844867	 0.24746
C	 0.0597079958	-3.4207359608	 1.3481045102	-0.50398
C	 0.0383921791	-0.8070587963	 1.1793412339	 0.172229
C	 0.1078220531	-0.3312109172	 2.5498699258	 0.074735
O	 0.119777099	 0.8362624942	 2.8839304102	-0.295804
H	 0.8726972304	 1.8602769609	 0.4364245129	 0.16338
H	-0.0912361314	 1.7015223882	-1.0678029469	 0.162084
H	-0.8943558084	 1.851764024	 0.5289086541	 0.163378
H	 0.9756022131	-3.5431430616	 1.9353445227	 0.141339
H	-0.7881872078	-3.5511727714	 2.0283713645	 0.141324
H	 0.0237695407	-4.2132329327	 0.5983373878	 0.158128
H	 0.1509981897	-1.1460176945	 3.3017326768	 0.091609
35.9494	108.6277	132.7348	172.2028	184.4883	271.6499	273.6684	344.1044	396.4948	525.8896	616.2347	691.0736	718.2703	750.4205	840.7981	1001.2232	1027.1883	1061.8208	1067.2563	1099.068	1153.5358	1235.7582	1277.5844	1315.6945	1372.1081	1413.4367	1430.2398	1445.8694	1476.4404	1480.7695	1485.7681	1493.6531	1505.6846	1576.6483	1771.7048	2919.0547	3041.8758	3071.6424	3096.357	3139.4383	3147.2591	3174.4373
CN1N=NC(C)=C1C=O	Cn1nnc(C)c1C=O	
InChI=1S/C5H7N3O/c1-4-5(3-9)8(2)7-6-4/h3H,1-2H3	InChI=1S/C5H7N3O/c1-4-5(3-9)8(2)7-6-4/h3H,1-2H3
