16
gdb 114421	3.3139	1.13493	1.12796	4.2699	64.22	-0.2522	-0.008	0.2442	1129.1987	0.125184	-475.000734	-474.992971	-474.992027	-475.033602	28.98	
O	 0.1025626409	 1.1071717229	-0.5634582533	-0.42131
C	 0.0507258321	-0.2120109593	-0.051887775	-0.072806
C	-1.399286966	-0.6300618077	 0.1591086974	-0.00716
N	-2.2218622137	-0.5056967906	-1.0915690285	-0.346988
C	-2.7424442676	-1.8920339648	-0.9178020673	-0.205844
C	-1.7682343912	-2.1291292971	 0.2530484521	 0.071148
O	-0.9557942044	-2.9993720721	-0.5939732897	-0.257631
C	-1.8350013411	-2.8880858184	-1.6606754891	 0.486749
O	-1.7645365593	-3.42598777	-2.7138288113	-0.312649
H	-0.3522234043	 1.0752252997	-1.4142968825	 0.289504
H	 0.5469463031	-0.9274922361	-0.7204848785	 0.112426
H	 0.5896702608	-0.2079259338	 0.9013202935	 0.112161
H	-1.8371874633	-0.0751332385	 0.9974134562	 0.089511
H	-2.9522458143	 0.1921296445	-1.0214440189	 0.239047
H	-3.8201168954	-2.0464957144	-0.9247596816	 0.114312
H	-1.9837301863	-2.5969644044	 1.2106062764	 0.109529
70.8343	115.4247	179.1609	216.4623	311.3766	425.0192	449.4331	476.3981	543.9267	666.3525	726.437	788.9265	814.2364	829.7025	872.2902	915.3127	940.8148	1016.5185	1019.8228	1047.0683	1079.6899	1105.9547	1119.2741	1172.6132	1182.4591	1219.4948	1246.43	1293.6885	1322.4299	1354.9537	1379.751	1398.7193	1429.4181	1504.7596	1950.51	3021.7558	3037.0255	3084.4928	3132.8872	3149.5071	3556.6881	3781.5212
OCC1NC2C1OC2=O	OC[C@H]1N[C@@H]2[C@H]1OC2=O	
InChI=1S/C5H7NO3/c7-1-2-4-3(6-2)5(8)9-4/h2-4,6-7H,1H2	InChI=1S/C5H7NO3/c7-1-2-4-3(6-2)5(8)9-4/h2-4,6-7H,1H2/t2-,3-,4+/m1/s1
