25
gdb 118958	2.27309	1.00613	0.94956	1.2619	89.03	-0.2514	0.0783	0.3297	1483.5619	0.22725	-389.489725	-389.478911	-389.477967	-389.525429	40.53	
C	 0.0443661554	 1.5995436278	 0.0256081443	-0.377345
C	 0.0177736526	 0.0683648971	-0.017026843	-0.184886
C	 0.5989033711	-0.5615129787	 1.2559935129	-0.199038
C	 0.7136631022	-2.0967117936	 1.2342519093	 0.302174
C	-0.6346435661	-2.7755313157	 1.0012114707	-0.465461
C	 1.9032269265	-2.5939023526	 0.3440212417	-0.258949
C	 2.8046753129	-2.659700435	 1.6060829991	-0.270968
C	 1.5157119467	-2.6254533905	 2.4656093157	 0.107032
O	 1.4645599509	-1.8020680431	 3.6091830053	-0.433385
H	 1.0687825623	 1.9760300368	 0.1238621627	 0.111727
H	-0.3845256861	 2.0331364	-0.8835069237	 0.107072
H	-0.5279176816	 1.9804772639	 0.8788335752	 0.114104
H	-1.0156024769	-0.2672918774	-0.1628152964	 0.096945
H	 0.5767956408	-0.2799811459	-0.8953696106	 0.092964
H	 1.5895666565	-0.1293844538	 1.4434587765	 0.091114
H	-0.0130413116	-0.2697972174	 2.1181381338	 0.103666
H	-1.0397581932	-2.5449334897	 0.010825231	 0.115954
H	-0.5401892261	-3.8647580266	 1.0697415113	 0.10327
H	-1.3723344596	-2.4556583521	 1.7467605929	 0.115787
H	 1.7112082919	-3.5825584657	-0.0826386615	 0.09488
H	 2.2283719581	-1.9305275682	-0.460707596	 0.098155
H	 3.4668502368	-3.522126027	 1.7174687844	 0.088446
H	 3.3884365542	-1.7458519003	 1.744519124	 0.107121
H	 1.1890379943	-3.6481326305	 2.7089148181	 0.057225
H	 2.0103687981	-2.2016637318	 4.2934422723	 0.282397
69.5455	94.126	125.8289	140.0519	201.5865	230.7512	247.6417	265.5935	286.223	314.2826	352.0058	410.0481	476.5752	543.0155	608.6763	733.0996	745.2056	781.9532	860.4095	874.1966	907.2988	926.4393	952.0995	963.4415	996.5809	1049.5947	1049.9972	1082.2353	1114.7136	1143.1695	1160.4045	1184.3149	1210.6247	1218.8184	1249.1362	1258.7722	1286.5343	1303.9697	1324.6023	1329.4159	1348.9416	1394.1583	1407.9494	1412.5175	1426.8503	1476.153	1481.3163	1493.3266	1494.4596	1498.2705	1500.3885	1504.3271	1511.1668	2976.141	3017.629	3023.4543	3026.7205	3031.2345	3046.9226	3055.1145	3061.3054	3069.2544	3087.4857	3095.4651	3098.2612	3099.3693	3101.4218	3118.7011	3820.0928
CCCC1(C)CCC1O	CCC[C@@]1(C)CC[C@H]1O	
InChI=1S/C8H16O/c1-3-5-8(2)6-4-7(8)9/h7,9H,3-6H2,1-2H3	InChI=1S/C8H16O/c1-3-5-8(2)6-4-7(8)9/h7,9H,3-6H2,1-2H3/t7-,8+/m1/s1
