23
gdb 116303	2.16746	1.32415	0.94502	1.3547	82.56	-0.2393	0.0751	0.3144	1362.4786	0.205175	-425.416878	-425.406714	-425.40577	-425.452758	36.336	
C	 0.3974588942	 1.1332887418	 0.501034289	-0.230619
O	 0.277647099	-0.222577539	 0.1492509158	-0.242967
C	 0.4575330234	-0.4815940542	-1.232721393	 0.094615
C	 1.945562335	-0.6127986663	-1.6011836399	-0.236433
C	 2.3455131839	-2.0504318387	-1.1545598768	-0.20342
C	 1.013293736	-2.8033405029	-0.8913162686	-0.233045
C	-0.0682567113	-1.8955198175	-1.5130383113	 0.144195
O	-1.3744704754	-2.0548566316	-1.0207697476	-0.244221
C	-1.9955289869	-3.2517087857	-1.4251638677	-0.235506
H	 1.4017496891	 1.5386676989	 0.3017774777	 0.099699
H	-0.3345629968	 1.7574518359	-0.0355619835	 0.104484
H	 0.2023206847	 1.2069736054	 1.5739662601	 0.125681
H	-0.0698015706	 0.2783262896	-1.8273027754	 0.057757
H	 2.0670664938	-0.4909763905	-2.6831463191	 0.097525
H	 2.549844725	 0.1634140689	-1.1255438821	 0.10146
H	 2.9416142946	-2.5439319657	-1.9270153392	 0.097105
H	 2.9600533057	-2.0274324763	-0.2517533829	 0.107728
H	 1.0132343204	-3.8132643921	-1.3085018217	 0.089534
H	 0.8112349549	-2.8793344499	 0.1806795584	 0.120829
H	-0.0669162506	-2.0304197763	-2.6101503871	 0.056365
H	-2.0211764149	-3.3478954459	-2.5232385498	 0.097628
H	-1.497264502	-4.1426644143	-1.0154250745	 0.106632
H	-3.0223839914	-3.2249850135	-1.0518235408	 0.124973
58.6473	82.6079	92.9458	131.6056	164.5107	197.7202	210.4461	290.5327	350.1284	357.6486	456.0153	516.3492	649.4186	714.9732	769.7875	842.1553	885.657	895.62	953.9287	979.3033	1019.0011	1029.4398	1056.8516	1117.0157	1144.8009	1167.7959	1178.6217	1183.6579	1184.9595	1206.6418	1225.9778	1242.7159	1251.4952	1283.4904	1294.035	1326.1421	1337.8243	1359.4878	1389.2267	1408.2741	1477.0329	1480.832	1482.2435	1486.0979	1490.353	1492.563	1509.1624	1510.9241	1512.5592	2934.5581	2967.8036	2970.3067	3001.8444	3014.465	3019.4755	3047.5122	3058.7427	3067.9451	3089.0272	3103.6218	3109.4965	3109.9456	3117.3998
COC1CCCC1OC	CO[C@H]1CCC[C@H]1OC	
InChI=1S/C7H14O2/c1-8-6-4-3-5-7(6)9-2/h6-7H,3-5H2,1-2H3	InChI=1S/C7H14O2/c1-8-6-4-3-5-7(6)9-2/h6-7H,3-5H2,1-2H3/t6-,7+
