20
gdb 118307	5.6661	0.58572	0.55218	4.017	74.99	-0.2516	0.0311	0.2827	1957.775	0.168491	-477.403462	-477.392712	-477.391768	-477.44048	37.259	
O	 0.1829033721	 1.176309501	 0.2934750429	-0.422276
C	 0.00777506	-0.1572717506	-0.1589126426	-0.073639
C	-1.4393545333	-0.5482310479	 0.1179588373	-0.203809
C	-1.7536460768	-1.9916368506	-0.2806248826	 0.110488
O	-0.9246009507	-2.9326473903	 0.3978490005	-0.427245
C	-3.2345073435	-2.3234095509	-0.0754189526	-0.10553
O	-3.5805679037	-3.5730724741	-0.653344401	-0.178724
C	-3.4074940659	-4.6798636986	 0.0985150491	 0.148352
N	-3.5773554189	-5.8195500357	-0.4143974023	-0.444675
H	 1.0991861874	 1.4263391344	 0.1433845095	 0.288264
H	 0.2111159265	-0.2461351446	-1.2384990693	 0.09124
H	 0.6833145918	-0.8540864065	 0.357146234	 0.097737
H	-1.644331592	-0.402247796	 1.1882643805	 0.099022
H	-2.1013643117	 0.139244475	-0.4211223092	 0.114684
H	-1.5280508203	-2.1428814617	-1.3430963057	 0.109797
H	-0.9696609708	-2.7391745974	 1.3416550097	 0.27928
H	-3.4777976294	-2.3109913053	 0.998236035	 0.095547
H	-3.8632646468	-1.5784695723	-0.5717368512	 0.123057
H	-3.1444598236	-4.4627727167	 1.1414643127	 0.071935
H	-3.4402472204	-6.5396557412	 0.291541935	 0.226495
48.4332	62.4937	90.3944	110.7074	151.0486	158.5626	271.2034	279.5784	304.7008	342.2079	365.5827	384.8423	472.6088	567.7549	662.9422	799.4939	813.1324	884.4366	947.9852	984.3473	1010.5213	1032.7566	1061.7498	1084.0681	1102.9879	1122.9712	1155.9138	1209.1655	1230.461	1244.6799	1294.5581	1298.6047	1320.1912	1360.5065	1372.6115	1403.9367	1420.3517	1427.293	1462.8325	1482.6165	1493.2091	1531.119	1746.098	2971.3895	2990.9	3012.1234	3018.6716	3035.5381	3051.4776	3072.5668	3094.5828	3519.5183	3789.0097	3831.5577
OCCC(O)COC=N	OCC[C@@H](O)CO[CH][NH]	
InChI=1S/C5H11NO3/c6-4-9-3-5(8)1-2-7/h4-8H,1-3H2	InChI=1S/C5H11NO3/c6-4-9-3-5(8)1-2-7/h4-8H,1-3H2/t5-/m1/s1
