21
gdb 122836	7.30496	0.52501	0.4974	2.3737	77.84	-0.2604	0.0174	0.2778	2249.6795	0.179079	-461.386744	-461.375503	-461.374559	-461.425192	37.308	
C	-0.0573318468	 1.5323008737	 0.0109898776	-0.384007
C	-0.0523767737	 0.0018271203	 0.0028779104	-0.183465
C	-1.457302037	-0.5825678631	 0.0128308908	-0.026546
O	-1.3605452741	-1.9936738132	 0.0044545138	-0.227699
C	-2.6031998085	-2.625831309	 0.0127041017	-0.175207
C	-2.4051028441	-4.1330946597	 0.002672035	 0.410561
O	-1.3569558001	-4.7162770349	-0.0117998295	-0.334519
O	-3.6146620927	-4.7333537104	 0.0125036992	-0.234386
C	-3.5849526502	-6.1658676346	 0.0041495747	-0.238394
H	 0.9625474733	 1.9270000452	 0.0035761105	 0.11939
H	-0.5751658138	 1.9358954831	-0.8662314472	 0.116125
H	-0.55870691	 1.9265823921	 0.9019011335	 0.116123
H	 0.4731888802	-0.3737691049	-0.8821911415	 0.111887
H	 0.4894818749	-0.3830235931	 0.8740360365	 0.111874
H	-2.010338672	-0.2431956478	 0.9065035378	 0.08453
H	-2.0268046447	-0.2338045952	-0.8667746076	 0.084531
H	-3.2001253687	-2.3625417549	 0.9027687957	 0.116367
H	-3.2165725548	-2.3531223936	-0.8632618783	 0.116369
H	-3.0612719105	-6.5461130319	 0.8849640975	 0.141758
H	-4.6271136854	-6.4851866459	 0.0125591817	 0.132916
H	-3.0785842914	-6.5361414323	-0.8909081925	 0.141792
33.9031	43.2241	83.7824	113.478	119.9798	134.7572	171.049	210.8637	240.2184	277.6755	335.929	404.8775	517.7665	599.5781	712.6529	764.598	894.5648	900.7763	928.1793	1006.6564	1039.912	1043.2457	1071.0733	1151.5028	1180.0807	1191.9144	1192.308	1208.7648	1225.1561	1248.9631	1270.7844	1315.5967	1333.23	1398.7754	1414.2355	1445.8722	1475.0745	1482.4804	1488.9214	1493.6827	1499.0266	1501.9359	1508.1519	1530.0999	1852.0483	2941.3277	2961.4583	2967.6764	2982.122	3032.039	3042.7524	3051.6937	3074.7221	3101.0577	3109.7883	3125.813	3158.8335
CCCOCC(=O)OC	CCCOCC(=O)OC	
InChI=1S/C6H12O3/c1-3-4-9-5-6(7)8-2/h3-5H2,1-2H3	InChI=1S/C6H12O3/c1-3-4-9-5-6(7)8-2/h3-5H2,1-2H3
