19
gdb 53165	5.04639	0.85127	0.84669	1.7887	85.37	-0.2265	0.0524	0.2789	1452.0244	0.159796	-385.843262	-385.834812	-385.833868	-385.878018	31.386	
C	 0.0680819642	 1.5098212805	-0.052117572	-0.502072
C	 0.0556114329	 0.0546311884	-0.0051557448	 0.140559
C	 0.0484517445	-1.1502157632	 0.0316260032	 0.004131
C	 0.050431333	-2.5963144191	 0.0511271396	-0.195329
C	 0.0049503716	-3.2851975324	 1.4732540788	-0.063583
C	-1.5279839477	-2.994091788	 1.4675882672	-0.249657
C	-1.3385529543	-3.3234483831	-0.0296895076	 0.114006
O	-0.9669203041	-4.7057630921	-0.0341256054	-0.281271
C	 0.0030358219	-4.7539591165	 1.041722599	-0.09583
H	 0.8098110556	 1.8768748852	-0.7702620252	 0.148751
H	-0.9072881059	 1.9089070793	-0.3525039205	 0.147189
H	 0.3143967733	 1.9397705792	 0.9252725299	 0.146754
H	 0.7960104624	-3.0018769928	-0.6405968509	 0.095363
H	 0.6678883509	-2.9833354987	 2.2822305048	 0.079881
H	-2.1814752392	-3.6549405561	 2.0416243084	 0.0982
H	-1.7555004843	-1.9453151298	 1.6531339093	 0.120942
H	-2.071604689	-3.1281119348	-0.8098257183	 0.087244
H	 0.9684282681	-5.1040346061	 0.6585223311	 0.102152
H	-0.3395944239	-5.4374832	 1.8274959337	 0.102567
17.662	94.1989	98.6662	273.2178	281.7014	352.2072	384.5029	447.6064	496.2466	501.9459	650.7034	814.4761	841.7619	863.9283	888.2258	905.1291	931.4064	944.0707	982.8303	1009.7821	1040.7192	1052.9835	1053.6472	1065.9418	1098.2357	1128.6388	1165.793	1197.4747	1212.4168	1230.666	1252.0087	1263.1197	1280.5107	1346.9435	1374.8974	1415.196	1478.1403	1478.9723	1486.9527	1527.1611	2363.8196	3023.2046	3024.4103	3052.1935	3064.3731	3077.1197	3083.5566	3085.3659	3135.7609	3146.1857	3155.8476
CC#CC1C2CC1OC2	CC#C[C@H]1[C@H]2C[C@@H]1OC2	
InChI=1S/C8H10O/c1-2-3-7-6-4-8(7)9-5-6/h6-8H,4-5H2,1H3	InChI=1S/C8H10O/c1-2-3-7-6-4-8(7)9-5-6/h6-8H,4-5H2,1H3/t6-,7-,8-/m0/s1
