15
gdb 15531	2.81191	2.09488	1.35676	4.4495	67.39	-0.2594	-0.0054	0.254	905.6746	0.118746	-362.680109	-362.672451	-362.671507	-362.712411	27.259	
C	-0.1723938539	 1.5273089512	 0.0058811858	-0.501078
C	-0.050039729	 0.0403967728	-0.014974195	 0.313133
C	 0.0915531421	-0.7976759308	-1.0368209949	-0.201727
C	 0.1915225493	-2.2145615426	-0.5588012388	-0.119772
O	-0.0040754771	-2.1411742574	 0.859008253	-0.259455
C	-0.0574372652	-0.7854423286	 1.264559841	-0.090929
C	 1.0928375164	-0.4458257556	 2.1362458034	 0.269096
N	 1.9849742523	-0.1533137621	 2.809822035	-0.325819
H	 0.6314688997	 1.978387576	 0.5993803964	 0.156323
H	-0.1281792802	 1.9414605691	-1.003820733	 0.136268
H	-1.1188009335	 1.8409447797	 0.4635904826	 0.136241
H	 0.1407948646	-0.5227834841	-2.08306511	 0.114703
H	-0.5803062536	-2.8700334883	-0.9848826723	 0.120545
H	 1.1697576066	-2.6668424742	-0.7819829005	 0.122169
H	-0.9705082484	-0.6198671451	 1.8567754774	 0.130301
73.3582	135.805	173.1813	239.8114	250.104	310.9468	425.4499	509.992	588.9979	629.5878	775.2679	808.3547	894.1278	933.9752	957.1624	984.0825	1037.1247	1047.0395	1070.7472	1109.5701	1193.8793	1203.9853	1271.4778	1316.1683	1350.4048	1379.1403	1419.5211	1478.2484	1489.2765	1520.3177	1739.6544	2353.259	2988.9496	2992.3128	3025.0495	3026.9875	3077.9672	3125.54	3216.5632
CC1=CCOC1C#N	CC1=CCO[C@H]1C#N	
InChI=1S/C6H7NO/c1-5-2-3-8-6(5)4-7/h2,6H,3H2,1H3	InChI=1S/C6H7NO/c1-5-2-3-8-6(5)4-7/h2,6H,3H2,1H3/t6-/m0/s1
