19
gdb 9522	3.04916	1.57013	1.4517	2.4268	71.79	-0.2383	-0.0208	0.2175	993.8249	0.163927	-365.065602	-365.056705	-365.055761	-365.098989	32.538	
C	 0.1357204751	 1.5356912415	 0.1873780207	-0.396888
C	-0.0194599577	 0.0299030429	-0.0455352613	-0.185923
C	 0.6522101989	-0.4706957128	-1.3320902269	 0.190897
C	 0.0238797754	 0.0955144879	-2.6091053844	-0.448445
N	 2.1528937346	-0.3767444697	-1.2802910262	-0.352839
C	 2.3385917878	-1.8328387256	-1.5257625565	-0.289347
C	 0.8181993063	-2.0043739159	-1.397199605	 0.357744
O	 0.0660269006	-2.931409472	-1.3492979832	-0.298538
H	 1.193953166	 1.8147885055	 0.1780188177	 0.129513
H	-0.3818748222	 2.1267474112	-0.5746947916	 0.113715
H	-0.2788506905	 1.8196010706	 1.1592302044	 0.116528
H	 0.4250657242	-0.5083066448	 0.7990733181	 0.101108
H	-1.078907884	-0.2515209626	-0.0761784073	 0.106209
H	 0.1594628093	 1.1806206996	-2.6604845238	 0.126834
H	 0.477471747	-0.34407305	-3.5036950731	 0.116392
H	-1.0495150707	-0.1149041156	-2.6380114768	 0.136884
H	 2.5387478777	 0.2019212178	-2.0179511936	 0.218571
H	 2.7128309248	-2.1116737509	-2.5200908896	 0.123755
H	 2.9444915874	-2.3477368471	-0.7720633815	 0.133832
82.0595	97.0342	145.3351	207.5231	220.8201	266.9641	305.7192	354.4432	397.5692	524.3894	558.0828	636.1346	717.1505	757.529	797.1926	890.8704	916.3233	957.3324	1000.4411	1011.9438	1024.829	1050.6435	1067.5766	1130.1354	1177.1497	1207.0513	1230.4267	1285.2738	1303.01	1368.4877	1378.2185	1401.2677	1407.4467	1472.3709	1473.3325	1491.9265	1492.4614	1506.7829	1509.0692	1906.8491	3015.406	3030.805	3034.6323	3038.9312	3067.6504	3070.2513	3099.1891	3107.2215	3112.2343	3113.4621	3536.7652
CCC1(C)NCC1=O	CC[C@@]1(C)NCC1=O	
InChI=1S/C6H11NO/c1-3-6(2)5(8)4-7-6/h7H,3-4H2,1-2H3	InChI=1S/C6H11NO/c1-3-6(2)5(8)4-7-6/h7H,3-4H2,1-2H3/t6-/m1/s1
