17
gdb 53103	2.17885	1.17179	0.96086	1.6924	83.94	-0.2328	0.029	0.2618	1320.4796	0.132187	-384.613828	-384.603643	-384.602699	-384.650015	35.836	
C	 0.0200667136	 1.4612034901	 0.0618794841	-0.501012
C	 0.0034310071	 0.0064274023	 0.0156150873	 0.106822
C	-0.0088190677	-1.1976635044	-0.055592939	 0.050875
C	-0.0303565897	-2.6280100161	-0.0714868618	-0.283647
C	-0.4078756227	-3.3448342901	 1.2091688633	 0.127258
O	-0.6815793245	-2.6364126392	 2.3609449151	-0.412293
C	-1.3863337286	-3.3832455436	 0.0428752817	-0.2849
C	-2.6156408507	-2.6593012749	 0.1111674269	 0.346705
C	-3.6559751118	-2.0593604939	 0.1795408395	-0.451162
H	 0.7139327643	 1.8324626707	 0.8240960993	 0.150567
H	 0.3293556048	 1.8802671111	-0.9018894311	 0.153963
H	-0.9739514889	 1.8600025927	 0.2917076977	 0.1539
H	 0.7062066552	-3.1098074254	-0.707449199	 0.118736
H	 0.1111221592	-4.2708254235	 1.4345326163	 0.118063
H	-0.8011623251	-1.7074564092	 2.1207386758	 0.291574
H	-1.4237168472	-4.3153746388	-0.513960045	 0.119179
H	-4.5762498175	-1.5332218777	 0.2353463089	 0.195372
37.8736	67.8165	84.4854	133.861	172.4167	222.2363	277.4872	302.509	358.006	400.6903	438.324	573.2893	586.3174	628.649	654.1683	661.4419	735.0868	754.1532	808.7468	951.7656	990.1702	1025.2793	1050.5999	1054.1807	1107.9656	1114.152	1185.3146	1234.375	1342.4974	1359.0511	1366.9697	1413.7895	1451.1373	1475.9998	1478.24	2236.7205	2360.3154	3028.3914	3089.2826	3091.8357	3142.1965	3149.6891	3169.4103	3505.6445	3750.6467
CC#CC1C(O)C1C#C	CC#C[C@H]1[C@@H](O)[C@H]1C#C	
InChI=1S/C8H8O/c1-3-5-7-6(4-2)8(7)9/h2,6-9H,1H3	InChI=1S/C8H8O/c1-3-5-7-6(4-2)8(7)9/h2,6-9H,1H3/t6-,7+,8-/m0/s1
