18
gdb 79501	2.38932	1.7693	1.22905	1.5609	76.82	-0.227	-0.0399	0.1871	1049.3665	0.146528	-401.857955	-401.849912	-401.848968	-401.890767	30.37	
C	-0.1852130117	 1.5702809676	-0.1695433549	-0.423467
C	-0.0387614044	 0.0777289879	 0.04731495	-0.002205
N	 1.1423454304	-0.59449781	-0.6589846576	-0.173503
C	 2.089212879	-0.2149325634	 0.5240464148	-0.045241
C	 2.5812297908	-1.6589776459	 0.6477458297	-0.264395
C	 1.081315895	-1.7459628687	 0.3721602414	-0.034805
C	 0.7343770299	-0.4791555679	 1.249957011	 0.222418
C	 0.4512832015	-0.4672838107	 2.713954385	 0.023835
O	 1.3072550636	-0.4517121477	 3.5662408936	-0.253223
H	 0.7289809821	 2.1142508377	 0.0859338747	 0.122655
H	-0.4195758637	 1.7758666708	-1.2189256361	 0.133925
H	-0.9993999848	 1.9726382817	 0.4425540199	 0.121527
H	-0.9751363994	-0.4445033835	-0.1880183457	 0.075118
H	 2.6629735958	 0.7110145259	 0.5138722535	 0.094448
H	 3.2298937156	-2.013570856	-0.157100425	 0.112637
H	 2.9265941158	-1.974745421	 1.6328154989	 0.125214
H	 0.4321263952	-2.6067879209	 0.2006220543	 0.091789
H	-0.6298100307	-0.4992891657	 2.9867663323	 0.073273
66.8675	158.9766	197.5505	203.5025	233.4656	291.3514	434.9517	489.7893	525.9758	668.0892	714.9038	732.6433	833.5882	860.0639	880.1006	889.0573	923.0509	975.7696	1021.5213	1023.7374	1056.0773	1074.5034	1090.7078	1123.918	1142.5572	1160.5583	1187.2776	1198.6271	1229.4967	1244.9027	1276.7272	1315.6021	1401.7982	1416.7319	1425.0261	1487.9646	1491.7552	1493.3057	1805.3409	2853.9646	3024.4506	3037.1115	3069.0279	3100.1441	3104.0405	3112.3971	3125.1465	3144.4521
CC1N2C3CC2C13C=O	C[C@H]1N2[C@@H]3C[C@H]2[C@]13C=O	
InChI=1S/C7H9NO/c1-4-7(3-9)5-2-6(7)8(4)5/h3-6H,2H2,1H3	InChI=1S/C7H9NO/c1-4-7(3-9)5-2-6(7)8(4)5/h3-6H,2H2,1H3/t4-,5-,6+,7-/m1/s1
