16
gdb 49136	3.42177	1.13267	0.8696	2.3926	75.42	-0.2528	-0.0883	0.1645	1252.5428	0.125796	-437.948173	-437.940252	-437.939307	-437.980979	29.26	
O	-0.0863010981	-0.0175997415	 0.0892412277	-0.262554
C	-0.0086714746	 1.1890317815	 0.1058811931	 0.101366
C	 1.2650316264	 1.9336973708	 0.0038912663	 0.201595
C	 1.2562253577	 3.275567311	 0.0205574951	-0.24225
C	 2.5062305478	 4.0846314389	-0.0154207644	 0.410468
O	 2.5074032754	 5.28611564	 0.1895378284	-0.369656
N	 3.6462500688	 3.3607859474	-0.253017992	-0.337134
C	 3.6234843218	 2.0062152294	-0.7975548426	-0.179071
C	 2.5589562869	 1.169076545	-0.0874418356	-0.299356
H	-0.9125101962	 1.8295073407	 0.1971816701	 0.084459
H	 0.3373168136	 3.8467333272	 0.1092843691	 0.126761
H	 4.4724268125	 3.9249237155	-0.3896166928	 0.252352
H	 3.4179032532	 2.0216284636	-1.8788985519	 0.115009
H	 4.6124900649	 1.5613486357	-0.6602393476	 0.122484
H	 2.8917247148	 0.9103121706	 0.9265408431	 0.135397
H	 2.3952910148	 0.2236229841	-0.6108879862	 0.14013
93.6675	124.7108	195.1907	227.9211	249.3005	380.5655	428.8682	451.3373	503.3155	566.7722	645.3064	725.0479	730.9163	796.1218	883.9152	916.6403	944.9743	1002.7785	1033.3484	1081.6358	1111.4787	1160.0073	1219.0204	1256.4955	1294.8668	1355.9112	1392.1225	1399.2879	1419.6373	1464.8553	1475.9619	1517.2543	1685.5339	1779.9949	1790.3159	2900.6007	2986.2406	3029.2145	3089.2312	3103.9191	3189.727	3613.8822
O=CC1=CC(=O)NCC1	O=CC1=CC(=O)NCC1	
InChI=1S/C6H7NO2/c8-4-5-1-2-7-6(9)3-5/h3-4H,1-2H2,(H,7,9)	InChI=1S/C6H7NO2/c8-4-5-1-2-7-6(9)3-5/h3-4H,1-2H2,(H,7,9)
