16
gdb 116630	3.36101	1.05416	0.82858	4.2534	70.88	-0.2717	-0.0547	0.217	1364.4583	0.123701	-475.063121	-475.054451	-475.053506	-475.098347	29.902	
C	-0.5117134985	 0.3945883206	-1.038209999	-0.367201
C	-0.081530828	 0.4718820596	 0.4255339861	-0.146686
N	 0.1739961169	-0.8651051558	 0.9479526197	-0.290138
C	-0.0848833588	-1.1345461578	 2.1443583558	 0.285477
O	-0.6000511949	-0.292552893	 3.0949577871	-0.24928
C	-0.7683997742	-1.0192400365	 4.303532972	 0.027954
O	-0.30927381	-2.3400718208	 4.0874265869	-0.22021
C	 0.1201306492	-2.4763082002	 2.7955730393	 0.379118
O	 0.5561791997	-3.4870909649	 2.3455256248	-0.302713
H	-1.4553766651	-0.1499488741	-1.1374352554	 0.123527
H	-0.650369469	 1.3990945778	-1.449444668	 0.112492
H	 0.24293556	-0.127665343	-1.6321666905	 0.13325
H	 0.8575897499	 1.0371016918	 0.5017621565	 0.122757
H	-0.826620991	 1.013512312	 1.0230885474	 0.111162
H	-0.1754270346	-0.5505442262	 5.0959896358	 0.14069
H	-1.8293723116	-1.0404702696	 4.5754683415	 0.139801
18.9667	120.4366	128.7127	155.7794	172.1947	262.0289	331.3249	373.6965	542.6386	598.0835	658.3143	752.4479	784.6256	791.2794	821.6757	911.0851	991.0474	1063.9372	1077.7857	1104.9544	1117.7737	1145.922	1157.7192	1214.1734	1273.836	1297.3632	1385.2687	1411.215	1443.3251	1480.1268	1489.2043	1505.5274	1545.4017	1797.034	1916.7446	3006.5201	3037.0393	3041.3729	3043.9038	3087.9079	3114.8679	3125.1535
CCN=C1OCOC1=O	CCN=C1OCOC1=O	
InChI=1S/C5H7NO3/c1-2-6-4-5(7)9-3-8-4/h2-3H2,1H3	InChI=1S/C5H7NO3/c1-2-6-4-5(7)9-3-8-4/h2-3H2,1H3
