22
gdb 76792	1.91966	1.78849	1.14375	1.1419	81.99	-0.2349	0.0621	0.2971	1173.1387	0.193364	-404.313422	-404.303748	-404.302803	-404.347403	37.013	
C	-0.5863016446	 0.8154766171	-1.5765506657	-0.412725
C	 0.2419184156	-0.3016421659	-0.9613399407	-0.065404
C	 1.7524630519	-0.4185834822	-1.3257095674	 0.073452
O	 2.2423810321	 0.8521306643	-1.7119123837	-0.425777
C	 2.058882503	-0.7926923404	 0.1652312992	-0.050578
C	 3.2965753568	-0.2129173444	 0.82971703	-0.43871
C	 0.6715212121	-0.2371398147	 0.5145566237	 0.34614
C	 0.322150368	 0.8165977832	 1.4905556487	-0.299899
N	-0.0938661148	-0.5880945318	 1.7038917394	-0.382978
H	-0.0781706148	 1.776887864	-1.4794864553	 0.137136
H	-0.7633599436	 0.633349519	-2.6415931256	 0.115562
H	-1.565508636	 0.8875030281	-1.0889634142	 0.10423
H	-0.2331000403	-1.2730173222	-1.1498771534	 0.074582
H	 2.0083797646	-1.1789300721	-2.0753545322	 0.056306
H	 3.201057506	 0.7955991962	-1.7721788012	 0.28641
H	 2.0437535018	-1.8838231233	 0.2740958509	 0.075785
H	 3.3556072568	 0.8681085765	 0.6718287175	 0.121713
H	 3.2785597274	-0.3967113844	 1.9088894786	 0.129436
H	 4.2134022067	-0.6687559379	 0.4373327261	 0.1061
H	 1.0642638655	 1.1824333601	 2.1951411261	 0.114241
H	-0.4296793233	 1.5493890313	 1.2084031168	 0.109978
H	-1.0785680909	-0.6978950206	 1.4688700023	 0.225001
66.2835	192.8881	197.147	206.1557	222.7792	240.3689	243.729	278.1089	300.3878	407.0225	462.2963	493.4804	570.0167	611.5083	743.9972	793.8641	837.373	868.0875	899.5429	939.6998	970.3217	993.1511	995.8887	1000.5305	1059.6308	1100.5129	1120.885	1137.9099	1157.9171	1176.1954	1177.8771	1239.5347	1261.7742	1271.1213	1287.028	1310.4376	1359.6081	1380.6294	1399.4791	1402.1005	1407.8062	1432.3348	1490.7321	1496.5994	1499.099	1506.1168	1521.3222	3002.8452	3023.1147	3027.4708	3033.2875	3040.1578	3090.2488	3090.866	3105.9565	3110.0536	3132.5034	3188.2238	3478.7755	3822.1719
CC1C(O)C(C)C11CN1	C[C@H]1[C@@H](O)[C@@H](C)[C@]21CN2	
InChI=1S/C7H13NO/c1-4-6(9)5(2)7(4)3-8-7/h4-6,8-9H,3H2,1-2H3	InChI=1S/C7H13NO/c1-4-6(9)5(2)7(4)3-8-7/h4-6,8-9H,3H2,1-2H3/t4-,5+,6+,7+
