23
gdb 106495	2.33961	1.5487	1.21383	1.6705	84.63	-0.233	0.0758	0.3088	1164.411	0.206291	-388.283086	-388.274219	-388.273275	-388.316236	35.17	
C	 0.0304142878	 1.5196492914	 0.1443151342	-0.386612
C	-0.0340650881	-0.0047950098	-0.0203262177	-0.297949
C	 0.6925684797	-0.5284333357	-1.2422649906	 0.302044
C	 2.2454268008	-0.3981834738	-1.4414509634	-0.276124
C	 1.9588823162	-1.4992588749	-2.4878432276	 0.105803
C	 0.9094777019	-2.0596320514	-1.5034902883	-0.290573
O	 1.1624866596	-0.8257947623	-3.4751022154	-0.300419
C	 0.23689589	-0.0698744363	-2.6509967058	 0.126444
C	-1.202578184	-0.3482539818	-3.0546036037	-0.419502
H	 1.0670859492	 1.8691028853	 0.1938574854	 0.120878
H	-0.4544125871	 2.0391963575	-0.6883870165	 0.120592
H	-0.4707933089	 1.833455111	 1.0648645945	 0.113781
H	 0.392206993	-0.4823195082	 0.87095914	 0.095667
H	-1.0834692266	-0.3259442432	-0.060708176	 0.099941
H	 2.646295574	 0.5486473461	-1.8128500054	 0.095849
H	 2.8110887279	-0.7506850639	-0.5762555676	 0.094414
H	 2.7254049775	-2.0972489461	-2.9782838809	 0.075372
H	 1.3471060719	-2.5622602432	-0.6383037357	 0.095204
H	 0.092296699	-2.6514329	-1.9209030932	 0.09685
H	 0.444385523	 0.9997941782	-2.7922441837	 0.070135
H	-1.4921133908	-1.3839325747	-2.8568970614	 0.117873
H	-1.8895136598	 0.3133342473	-2.5157186784	 0.112843
H	-1.3271601264	-0.1630614717	-4.125586213	 0.12749
83.7588	166.9052	190.5511	206.6526	224.9459	264.0174	356.3566	394.7523	489.9004	495.4209	533.6505	592.4424	667.7953	764.5034	818.2949	839.0948	853.9332	900.6615	920.3903	932.9494	963.6751	977.5225	995.0502	1031.8361	1055.576	1074.5818	1091.3978	1117.0137	1127.722	1150.8485	1175.2716	1214.1306	1234.0286	1242.348	1273.9868	1301.1647	1321.6403	1351.3157	1378.5142	1392.3771	1410.0584	1415.5233	1471.6258	1483.4015	1491.0256	1495.5631	1501.4961	1507.0855	1513.4422	3000.4654	3016.7095	3036.5927	3038.6285	3046.8858	3058.4226	3070.2343	3103.3342	3106.2682	3107.2636	3118.3383	3124.565	3132.1267	3135.2159
CCC12CC(C1)OC2C	CC[C@@]12C[C@@H](C1)O[C@H]2C	
InChI=1S/C8H14O/c1-3-8-4-7(5-8)9-6(8)2/h6-7H,3-5H2,1-2H3	InChI=1S/C8H14O/c1-3-8-4-7(5-8)9-6(8)2/h6-7H,3-5H2,1-2H3/t6-,7-,8+/m0/s1
