16
gdb 128476	2.89952	1.28214	0.98598	2.3348	66.67	-0.2775	-0.0751	0.2024	1187.2108	0.122136	-471.137436	-471.128647	-471.127703	-471.172243	30.441	
C	-0.6288667214	 0.9936134002	-0.4778451064	-0.245807
O	 0.4177257629	 0.1638631779	-0.0047801167	-0.240515
C	 1.0666754331	-0.6116791479	-0.9980372547	 0.023433
C	 2.4275273269	-1.0179666127	-0.4462347593	-0.401676
C	 0.2223004544	-1.805449735	-1.3713219183	 0.419511
N	 0.3488937186	-3.0099000793	-0.8920026022	-0.140275
O	-0.6359699586	-3.724175116	-1.4779087413	-0.13764
N	-1.3529864909	-2.8869908223	-2.3314131279	 0.043765
N	-0.8359626052	-1.7442918262	-2.2672444214	-0.207145
H	-0.2724838486	 1.6786737033	-1.2613973982	 0.111739
H	-1.472589336	 0.4182960343	-0.8793555459	 0.131285
H	-0.9720102667	 1.5785826704	 0.3781155439	 0.134962
H	 1.1905945352	-0.0127033648	-1.9137225056	 0.097404
H	 2.9966092396	-0.1177047935	-0.2058113751	 0.13036
H	 2.307195149	-1.6109855016	 0.4629551514	 0.151532
H	 2.9840288376	-1.6096583568	-1.1773629523	 0.129066
28.4762	95.5554	137.8698	200.826	213.5355	234.4726	287.7532	363.756	444.798	520.5182	674.9059	681.0166	695.0969	807.7839	867.7398	963.2159	1018.3116	1061.3814	1072.6685	1112.248	1130.1993	1150.0992	1183.2539	1225.9693	1251.4534	1366.0048	1385.6868	1414.4232	1471.3814	1478.6069	1485.8908	1492.1299	1498.3976	1509.4663	1580.912	2988.3029	2993.8881	3056.9123	3059.2912	3125.6665	3137.5544	3144.2117
COC(C)C1=NON=N1	CO[C@@H](C)c1nonn1	
InChI=1S/C4H7N3O2/c1-3(8-2)4-5-7-9-6-4/h3H,1-2H3	InChI=1S/C4H7N3O2/c1-3(8-2)4-5-7-9-6-4/h3H,1-2H3/t3-/m0/s1
