16
gdb 125730	3.05755	1.38991	0.96692	5.3391	76.04	-0.2592	-0.0747	0.1844	1185.5194	0.122882	-437.912525	-437.904081	-437.903137	-437.9456	30.952	
C	-0.0101450619	 1.5149165771	-0.067206289	-0.475992
C	-0.0392832728	 0.0205385729	-0.0269554911	 0.136603
C	-1.1499518836	-0.7413632694	-0.0671038951	-0.228438
C	-1.0492325403	-2.1788287468	-0.0210389935	 0.354245
C	-2.2832281537	-3.0361580982	-0.0652048797	-0.473551
N	 0.0769608055	-2.809318897	 0.0590871457	-0.1292
O	 1.2336001958	-2.0399993123	 0.1014662262	-0.260632
C	 1.2585391497	-0.6591958462	 0.0640965287	 0.40996
O	 2.3289870364	-0.1097587825	 0.1080503631	-0.330441
H	 0.585003031	 1.8603611246	-0.9188555416	 0.158508
H	-1.0168759652	 1.9324267087	-0.1369707676	 0.124512
H	 0.4840719617	 1.9093444409	 0.8267191776	 0.158452
H	-2.1362709627	-0.2908181829	-0.134495806	 0.116775
H	-2.8479315721	-2.8529709359	-0.9859521603	 0.140975
H	-2.0083055471	-4.0904733304	-0.0205907357	 0.157238
H	-2.9451684206	-2.8037849525	 0.7762625781	 0.140987
97.707	141.7743	161.1169	191.851	263.0066	321.5419	341.6505	378.8145	473.2294	497.0799	569.7354	604.4791	679.7469	777.6684	791.4172	922.7669	933.7382	975.6834	1018.7526	1042.4017	1063.1768	1067.7283	1122.2903	1186.4746	1322.0537	1402.6233	1413.3155	1414.9936	1465.6027	1473.7272	1480.2314	1480.3949	1612.1655	1700.0593	1821.3878	3037.8721	3043.0979	3093.7924	3100.1848	3133.5645	3151.2404	3168.9817
CC1=CC(C)=NOC1=O	Cc1cc(C)noc1=O	
InChI=1S/C6H7NO2/c1-4-3-5(2)7-9-6(4)8/h3H,1-2H3	InChI=1S/C6H7NO2/c1-4-3-5(2)7-9-6(4)8/h3H,1-2H3
