21
gdb 73122	2.34487	1.79491	1.57587	1.7654	80.54	-0.2516	0.0891	0.3407	1000.2309	0.183979	-387.081969	-387.074219	-387.073275	-387.113654	31.722	
C	 0.3279841994	 1.5084610239	-0.166915749	-0.48266
C	-0.0543054803	 0.0469269881	 0.0242480021	 0.315374
C	-1.4950852919	-0.263608089	 0.5391363501	-0.26177
C	-0.9022982963	-1.2475317763	 1.5863050878	-0.22428
C	 0.5303950242	-0.7318459797	 1.2599355148	-0.042259
C	 1.5943130002	-1.7293558106	 0.7544201946	-0.268757
C	 1.3498768672	-1.8266437555	-0.7400377309	 0.051124
O	 0.0015206674	-2.1810454542	-1.0783030338	-0.264438
C	 0.3819269614	-0.7994957564	-1.1617676256	-0.012148
H	 1.3970579834	 1.6202421227	-0.3843952392	 0.113638
H	-0.2279638494	 1.9590123652	-0.9980218706	 0.116251
H	 0.1087416999	 2.0912639463	 0.7334398048	 0.115013
H	-1.9635980579	 0.6145041776	 0.9928589313	 0.091743
H	-2.1859753594	-0.6895694467	-0.1914571366	 0.104627
H	-1.2327436352	-1.1064183567	 2.6184790621	 0.087516
H	-1.0439477456	-2.2922482292	 1.307115927	 0.114458
H	 0.9240198359	-0.0778832868	 2.0418962065	 0.06425
H	 2.6105134786	-1.3549481688	 0.9284607189	 0.099045
H	 1.5194223504	-2.7060673842	 1.2457147509	 0.109822
H	 2.1114340735	-2.2300329774	-1.4044024735	 0.089777
H	 0.3654586246	-0.3810809923	-2.1670688018	 0.083672
140.7858	209.2254	223.4816	247.3884	310.9442	353.454	390.9439	489.7321	565.8057	636.7605	708.5543	755.3043	781.5045	822.3322	861.0373	879.1688	882.9839	916.2799	952.4776	964.3631	971.0401	1007.4552	1051.593	1064.21	1087.2264	1137.7993	1153.6933	1165.696	1209.6939	1226.2132	1232.142	1262.1232	1268.1773	1274.4466	1280.451	1308.2317	1334.4291	1367.8787	1409.6227	1427.5169	1471.9313	1476.1221	1491.7959	1493.6222	1496.8275	3018.9073	3030.7925	3055.3591	3063.8355	3071.0731	3077.2645	3081.1561	3095.2358	3109.2184	3120.069	3133.9374	3138.2198
CC12CCC1CC1OC21	C[C@]12CC[C@H]1C[C@H]1O[C@@H]21	
InChI=1S/C8H12O/c1-8-3-2-5(8)4-6-7(8)9-6/h5-7H,2-4H2,1H3	InChI=1S/C8H12O/c1-8-3-2-5(8)4-6-7(8)9-6/h5-7H,2-4H2,1H3/t5-,6+,7+,8-/m0/s1
