19
gdb 108272	2.5419	1.62227	1.19201	2.3509	77.18	-0.2375	-0.0014	0.2361	1078.9768	0.160128	-422.98942	-422.981391	-422.980446	-423.021936	31.342	
O	 0.0337073122	 1.4759484895	 0.3234942496	-0.424307
C	 0.1250166957	 0.1288306066	-0.09942334	-0.108188
C	-1.2629591237	-0.5032244089	-0.1121375251	 0.396307
C	-2.1458144971	-0.1208310556	-1.3094463596	-0.298339
C	-2.1018942084	-1.427226451	-2.1754324033	-0.250857
C	-1.9349005914	-2.5268997571	-1.1230425006	-0.201378
C	-1.416073343	-1.987318342	-0.0266631653	 0.145548
C	-1.5558281261	-1.8563120679	 1.4689969365	-0.1709
O	-1.7860485028	-0.4213378135	 1.2799004438	-0.35836
H	-0.4618719602	 1.4493128262	 1.152401357	 0.291946
H	 0.5559151406	 0.134298192	-1.1063280093	 0.107594
H	 0.7977681347	-0.4535164618	 0.5498766272	 0.080815
H	-3.1688603361	 0.0469235832	-0.9601151981	 0.117486
H	-1.8089533526	 0.7742367951	-1.8384179712	 0.109359
H	-3.0191531427	-1.5668647681	-2.7562803227	 0.110539
H	-1.2776389861	-1.4035520782	-2.9006750526	 0.112865
H	-2.3109690674	-3.5349529153	-1.2516343293	 0.103105
H	-2.4096283664	-2.3592571298	 1.9335669404	 0.123754
H	-0.6539563193	-2.0360459535	 2.0669031125	 0.11301
94.8329	133.1024	199.2505	252.5751	297.8431	354.5692	376.3748	488.7213	504.9521	606.1807	648.5957	710.2121	775.2858	833.7171	865.99	890.4276	915.251	926.1301	952.8702	965.1175	996.8986	1029.3724	1065.2489	1100.3244	1125.3936	1139.9455	1187.2854	1195.2511	1227.1046	1248.0545	1280.8905	1303.0327	1318.5692	1336.9292	1385.2286	1432.4385	1479.4608	1491.2823	1501.4339	1512.5313	1741.6914	2977.9346	3019.4207	3022.8763	3059.8948	3071.4671	3075.7852	3082.3234	3115.3461	3202.0448	3770.6263
OCC12CCC=C1CO2	OC[C@@]12CC[CH][C]1CO2	
InChI=1S/C7H10O2/c8-5-7-3-1-2-6(7)4-9-7/h2,8H,1,3-5H2	InChI=1S/C7H10O2/c8-5-7-3-1-2-6(7)4-9-7/h2,8H,1,3-5H2/t7-/m0/s1
