20
gdb 112590	3.49001	0.91814	0.85515	1.6324	83.11	-0.2137	0.0318	0.2456	1446.3173	0.167928	-403.083431	-403.073528	-403.072584	-403.118189	36.872	
C	-0.0824572176	 1.5485998888	-0.0264530207	-0.380453
C	 0.0391556997	 0.0277508031	-0.0896679383	-0.12191
N	 0.7545904394	-0.5009929239	 1.0539284664	-0.072296
C	 2.2061558344	-0.2594572845	 1.1569416222	-0.199689
C	 2.39506685	-1.707852221	 1.6856209085	 0.227626
O	 2.476042487	-1.6729724376	 3.0992725083	-0.465267
C	 0.950892599	-1.9571278879	 1.1389243227	-0.221113
C	 3.4593324129	-2.5149976286	 1.1066881988	 0.29073
C	 4.3288631519	-3.2133476476	 0.6565914508	-0.484268
H	 0.9040662786	 2.0243848029	-0.0351294469	 0.119551
H	-0.6408401881	 1.9275274051	-0.8877341943	 0.112645
H	-0.5966853291	 1.8553203213	 0.8887533445	 0.126934
H	-0.9605814032	-0.4241535353	-0.0935363091	 0.101771
H	 0.5230763429	-0.2674122326	-1.0438613829	 0.070486
H	 2.7043715587	-0.105962546	 0.1876977269	 0.095344
H	 2.5061465389	 0.5230650974	 1.8596730156	 0.120235
H	 2.5735583543	-2.579828335	 3.4100672753	 0.283093
H	 0.2704686103	-2.4802172804	 1.8199899491	 0.103767
H	 0.9633199353	-2.4652204467	 0.1622323881	 0.092546
H	 5.1024841047	-3.8188639812	 0.2528388552	 0.200268
61.2488	94.5281	173.3011	180.4403	197.2457	233.4942	281.0447	327.197	360.7994	403.712	419.4281	516.5027	563.38	607.7706	632.8638	663.0863	730.9903	810.4824	910.5586	927.4765	936.6877	977.9461	1011.1433	1051.6646	1094.8182	1116.7802	1131.1006	1153.8504	1206.8852	1241.5	1254.3734	1277.1118	1313.929	1331.0562	1379.9326	1394.6332	1413.8018	1482.9162	1488.1205	1491.4823	1503.7411	1517.4706	2231.1552	2887.8108	2979.2749	2991.1863	3037.7032	3041.6925	3060.3363	3084.0039	3105.276	3119.2628	3500.3334	3807.3434
CCN1CC(O)(C1)C#C	CCN1CC(O)(C1)C#C	
InChI=1S/C7H11NO/c1-3-7(9)5-8(4-2)6-7/h1,9H,4-6H2,2H3	InChI=1S/C7H11NO/c1-3-7(9)5-8(4-2)6-7/h1,9H,4-6H2,2H3
