16
gdb 48787	3.69906	1.38469	1.22253	2.181	68.86	-0.2382	-0.0483	0.1899	1019.0952	0.124204	-437.842986	-437.83574	-437.834796	-437.874844	27.811	
O	-0.087673385	 0.2260548065	-0.7938499807	-0.247031
C	 0.0378480611	 1.1606280211	-0.0472107271	 0.065598
C	 1.297655007	 1.9499718718	 0.1068544366	 0.322015
O	 2.2869010316	 1.8064063321	-0.9191724992	-0.269104
C	 2.6097806686	 1.2919487154	 0.3636232733	-0.007809
C	 3.4228003177	 2.2258097634	 1.2478281154	-0.201233
N	 2.621735373	 3.4437001953	 1.5022721953	-0.105715
C	 2.3115369408	 4.2820786623	 0.3374940545	-0.241978
C	 1.3189989884	 3.2839087713	 0.8141435091	-0.131677
H	-0.7907279622	 1.4983648257	 0.6147880708	 0.083734
H	 2.7211583987	 0.2105825999	 0.4189360066	 0.122285
H	 3.6162235717	 1.7353791644	 2.2084459351	 0.122368
H	 4.388452735	 2.4796744658	 0.798529595	 0.129985
H	 2.1709178191	 5.3335421194	 0.5724280504	 0.119645
H	 2.8011408458	 4.0730234284	-0.6078891159	 0.140206
H	 0.4266350786	 3.577364677	 1.3603096608	 0.098713
84.2942	183.8911	209.0368	278.7395	361.6891	401.7875	449.6321	552.424	700.8027	713.4295	745.3793	791.161	825.8431	869.7452	882.6127	956.4179	962.6434	1030.0792	1041.9431	1063.5215	1086.2613	1110.0218	1126.5239	1153.8166	1162.7702	1231.1871	1272.3132	1284.5748	1328.8258	1368.8878	1419.2491	1431.8031	1481.3579	1498.0985	1829.3317	2882.3262	3043.2961	3087.8499	3116.4612	3139.0697	3147.913	3212.0419
O=CC12OC1CN1CC21	O=C[C@]12O[C@H]1CN1C[C@@H]21	
InChI=1S/C6H7NO2/c8-3-6-4-1-7(4)2-5(6)9-6/h3-5H,1-2H2	InChI=1S/C6H7NO2/c8-3-6-4-1-7(4)2-5(6)9-6/h3-5H,1-2H2/t4-,5-,6+,7?/m0/s1
