20
gdb 77967	3.21224	1.20405	1.01492	2.2439	80.47	-0.2365	-0.0316	0.2049	1234.0396	0.169347	-403.06477	-403.055492	-403.054548	-403.099741	33.775	
C	-0.0712882421	 1.5925103913	-0.6778657975	-0.461272
C	 0.005918968	 0.0947643367	-0.4371691257	 0.100459
C	 0.908753265	-0.9177800232	-1.1966561395	-0.123941
C	 2.0838039834	-0.435077731	-0.2983446539	 0.094105
C	 2.8735108937	 0.8657791346	-0.4582833165	-0.456146
N	 0.8941802451	-0.4915135198	 0.7061312868	-0.202552
C	 0.6081002132	-1.8403101314	 0.0018678916	-0.015572
C	-0.7407145323	-2.4702272446	 0.2473970274	 0.106396
O	-1.5049572623	-2.8173101355	-0.6173497826	-0.239714
H	 0.8411334895	 2.0596008126	-1.0380419902	 0.125202
H	-0.8555532259	 1.7843872719	-1.4181886855	 0.12432
H	-0.3695921144	 2.0936422082	 0.2497670784	 0.132769
H	-1.0239386156	-0.2505681557	-0.3098636653	 0.092172
H	 0.9149014236	-1.171917566	-2.2616102222	 0.074161
H	 2.7893399786	-1.2371056195	-0.0592097717	 0.07613
H	 2.5710744715	 1.6118868583	 0.280100621	 0.142033
H	 3.9378589588	 0.6698734368	-0.3018429144	 0.118632
H	 2.7693785026	 1.3043408392	-1.4540034554	 0.130847
H	 1.3686778681	-2.5908606201	 0.2585187338	 0.093997
H	-0.9649098987	-2.643269173	 1.3252640513	 0.087973
45.0366	50.4475	139.7646	195.5669	211.3302	252.5585	311.6392	342.569	384.1038	442.3181	630.8671	666.4965	731.1967	758.2152	771.2479	807.8361	827.4251	889.8756	1005.257	1019.5078	1037.8679	1054.4994	1067.3478	1074.8779	1130.1509	1147.9395	1160.7194	1191.9126	1193.9532	1212.9391	1253.9615	1281.6891	1383.9657	1403.378	1411.5859	1413.4871	1450.9043	1480.198	1490.6617	1502.2221	1512.4814	1517.4841	1823.8106	2870.6305	3013.7742	3037.7868	3042.0392	3049.7242	3053.4526	3064.713	3095.8492	3112.1007	3127.7046	3185.7888
CC1C2C(C)N1C2C=O	C[C@H]1[C@H]2[C@@H](C)N1[C@H]2C=O	
InChI=1S/C7H11NO/c1-4-7-5(2)8(4)6(7)3-9/h3-7H,1-2H3	InChI=1S/C7H11NO/c1-4-7-5(2)8(4)6(7)3-9/h3-7H,1-2H3/t4-,5+,6-,7-/m0/s1
