22
gdb 8714	2.3893	1.60577	1.23054	2.1508	73.54	-0.2514	0.0506	0.3021	1116.922	0.198027	-387.34555	-387.335332	-387.334388	-387.380074	37.884	
C	 0.6023188407	 0.1509059217	-1.3132289971	-0.39743
C	 0.0070126824	 0.2133409622	 0.0981046463	-0.218392
C	 0.7073384535	-0.6288411201	 1.1918272282	 0.348209
O	-0.0671212019	-0.5357073124	 2.3877381755	-0.47543
C	 0.8087419892	-2.1220479553	 0.8428368903	-0.187686
C	-0.5368225306	-2.8101055804	 0.5907965971	-0.39628
C	 2.1131296595	-0.0829983896	 1.5146690427	-0.113142
O	 2.0413952844	 1.1954946337	 2.145487286	-0.43233
H	 0.5581511283	-0.8607038924	-1.727670056	 0.125717
H	 0.0473473573	 0.8062294695	-1.9919146579	 0.117037
H	 1.649939947	 0.4703663964	-1.339708854	 0.110139
H	-0.013371361	 1.2565629849	 0.4426484631	 0.07265
H	-1.0417387572	-0.0972302718	 0.0724446293	 0.113191
H	 0.1938839293	 0.299785705	 2.7982242738	 0.280365
H	 1.4661902466	-2.2489033782	-0.0258894862	 0.09067
H	 1.3065782861	-2.614724905	 1.6860407309	 0.100336
H	-1.2128326495	-2.6452980096	 1.4333809886	 0.140703
H	-1.0267357298	-2.4388696227	-0.3149012947	 0.112369
H	-0.3982776121	-3.8886841759	 0.4685194537	 0.108284
H	 2.5873240805	-0.7426888366	 2.2473614275	 0.114774
H	 2.7498368142	-0.0528527838	 0.6209948812	 0.095214
H	 1.8616596329	 1.8558393003	 1.4692352218	 0.291032
78.5976	94.7566	142.1687	185.2424	215.7269	230.8296	275.6829	313.5412	326.9979	345.2807	396.69	431.8934	477.6579	506.7407	598.1155	729.0798	767.6465	797.3704	900.9028	930.5813	971.4433	996.1338	1033.3666	1050.6081	1067.187	1083.8518	1133.9685	1164.5841	1211.3692	1250.4178	1282.8253	1314.3833	1342.4664	1360.4166	1376.8249	1405.6905	1409.9924	1414.578	1433.8907	1472.9503	1486.9552	1494.0867	1501.6542	1503.5908	1506.3059	1515.7143	3014.1381	3020.1142	3029.427	3036.6089	3042.2832	3064.3817	3076.1121	3090.9353	3099.7467	3104.0696	3107.8391	3127.2794	3752.1373	3827.9955
CCC(O)(CC)CO	CCC(O)(CC)CO	
InChI=1S/C6H14O2/c1-3-6(8,4-2)5-7/h7-8H,3-5H2,1-2H3	InChI=1S/C6H14O2/c1-3-6(8,4-2)5-7/h7-8H,3-5H2,1-2H3
