21
gdb 107569	3.17209	1.25924	1.04069	1.491	83.65	-0.2334	0.0328	0.2661	1211.4239	0.183865	-387.090247	-387.081684	-387.08074	-387.123259	33.498	
O	-0.0588651772	 1.3553335568	 0.6376702424	-0.423452
C	 0.0478033817	 0.0064617448	 0.194412627	-0.162613
C	-1.3350610584	-0.5012903539	-0.1288372929	 0.359657
C	-2.1604580483	-1.0355759444	 1.0185663713	-0.314098
C	-1.5787729509	-1.9894937245	 0.0038192345	-0.083467
C	-2.4866296353	-2.7102777424	-0.9784863795	-0.27382
C	-3.387714745	-1.7897383953	-1.7559514471	-0.065233
C	-3.1926107998	-0.4769711013	-1.8655237971	-0.054208
C	-2.0483112336	 0.2665192651	-1.2348822507	-0.320331
H	 0.8295272751	 1.7127993837	 0.7253820911	 0.285564
H	 0.6856817951	-0.0589147953	-0.703035457	 0.081261
H	 0.5043615434	-0.6296239671	 0.9699467579	 0.078446
H	-1.7268734157	-1.0095669428	 2.0124909395	 0.106878
H	-3.2312954242	-0.8624391582	 0.990423138	 0.11339
H	-0.7344917434	-2.5838520504	 0.3443817474	 0.073681
H	-1.8707452925	-3.2865638721	-1.6855215132	 0.108007
H	-3.0898968143	-3.4594867645	-0.4465308388	 0.104054
H	-4.2309563828	-2.251597843	-2.2637804047	 0.081892
H	-3.8794092007	 0.117063565	-2.4640075622	 0.082366
H	-2.3907418093	 1.2334208621	-0.8464817187	 0.119352
H	-1.3170891539	 0.5193980676	-2.0190135073	 0.102674
91.8668	124.014	165.0194	250.8666	279.5988	342.8116	363.9813	385.6717	407.3666	543.759	564.6585	681.5496	691.569	782.3312	820.6245	903.3637	911.7274	924.7509	951.3199	964.1721	994.9177	1009.2892	1044.7654	1050.2556	1065.6125	1071.1611	1119.9216	1131.1054	1202.0922	1211.9673	1227.2251	1239.8772	1246.5947	1280.5716	1330.8593	1362.71	1382.4362	1411.4347	1427.4634	1461.334	1474.8072	1480.1739	1498.1969	1516.5753	1730.5047	2953.9708	2982.3416	2987.5542	2991.5315	3015.7443	3043.1624	3128.2147	3131.8619	3141.7132	3165.5137	3213.9994	3829.0453
OCC12CC1CC=CC2	OC[C@]12C[C@H]1CC=CC2	
InChI=1S/C8H12O/c9-6-8-4-2-1-3-7(8)5-8/h1-2,7,9H,3-6H2	InChI=1S/C8H12O/c9-6-8-4-2-1-3-7(8)5-8/h1-2,7,9H,3-6H2/t7-,8+/m1/s1
