25
gdb 106619	2.46632	1.35364	1.18421	0.1527	91.95	-0.2746	0.0838	0.3584	1243.4116	0.230764	-352.362824	-352.353731	-352.352787	-352.396151	36.462	
C	-0.1509617514	 1.5378842509	 0.0374116965	-0.38442
C	 0.1089247859	 0.0257907859	 0.0161635002	-0.292467
C	 0.7706101927	-0.4780870336	-1.2524140869	 0.362858
C	 0.0690513498	-0.4215277885	-2.6478593175	-0.264246
C	 1.1063482886	-1.5233853964	-3.0024099949	-0.036467
C	 2.4281834548	-0.7344461274	-2.9393381288	-0.216877
C	 2.1770894097	 0.0583464425	-1.6163262669	-0.253988
C	 0.920251321	-2.0162647885	-1.5343227247	 0.010131
C	 1.9571135419	-2.8774613693	-0.8271180918	-0.44184
H	 0.7814625234	 2.10872824	-0.0144915997	 0.117503
H	-0.7746806942	 1.8440058364	-0.8094114248	 0.117264
H	-0.668537029	 1.8337288936	 0.9551897338	 0.109645
H	 0.7341319365	-0.2466189393	 0.8780020215	 0.091885
H	-0.8430308567	-0.5039582171	 0.1532760978	 0.088707
H	-0.9572122387	-0.7969946733	-2.6153571435	 0.088367
H	 0.1094105228	 0.5177112622	-3.2087126955	 0.081141
H	 0.9639107061	-2.1939557441	-3.8514153387	 0.050373
H	 3.307724523	-1.3824254005	-2.8879596079	 0.092878
H	 2.5536334432	-0.077524918	-3.8050538428	 0.091368
H	 2.1732717712	 1.1403365169	-1.7747549571	 0.093274
H	 2.9188090258	-0.1560429596	-0.8405897393	 0.090458
H	-0.065515402	-2.485765192	-1.4345843352	 0.061205
H	 2.9671434294	-2.4623755652	-0.8841021017	 0.115851
H	 1.7087791442	-2.9942966109	 0.2339599567	 0.11391
H	 1.9894325018	-3.8814124644	-1.2655621088	 0.113487
80.6086	154.6718	187.3379	217.6875	252.1593	268.2521	311.0867	341.3529	434.7088	475.6339	559.2724	592.4254	693.2822	749.1926	778.8471	814.3646	848.9659	868.4698	889.6999	932.0855	953.5817	967.8097	979.0973	1000.7135	1010.2748	1056.6492	1066.5863	1085.7474	1123.184	1143.1615	1150.0392	1174.9373	1195.6798	1223.805	1239.1863	1247.3107	1257.6735	1282.5633	1308.4537	1330.6515	1345.3212	1375.3366	1401.6942	1411.0738	1415.8858	1483.605	1486.9454	1492.6512	1500.5183	1506.3595	1507.7233	1510.1962	1527.5898	3006.8201	3028.2705	3033.4955	3034.8598	3038.8921	3044.7047	3048.0257	3057.0905	3081.7178	3086.1552	3098.2101	3099.2655	3101.0288	3105.184	3107.2123	3110.7065
CCC12CC(CC1)C2C	CC[C@@]12C[C@@H](CC1)[C@H]2C	
InChI=1S/C9H16/c1-3-9-5-4-8(6-9)7(9)2/h7-8H,3-6H2,1-2H3	InChI=1S/C9H16/c1-3-9-5-4-8(6-9)7(9)2/h7-8H,3-6H2,1-2H3/t7-,8-,9+/m1/s1
