19
gdb 37764	2.89521	2.16087	2.04634	0.1618	81.18	-0.2267	0.0154	0.2421	819.1752	0.163713	-348.715368	-348.709701	-348.708757	-348.744863	25.91	
C	-0.0281388664	 1.5409213954	 0.0443263192	-0.227469
C	 1.5141529894	 1.5300808444	-0.05685745	-0.052353
C	 2.2228120677	 0.9741461676	 1.262344421	-0.065697
C	 1.4169743237	 1.0547452108	 2.5346561435	-0.084679
C	 0.4694286165	 0.1078701048	 2.539369	-0.08468
C	 0.5431389613	-0.7043474089	 1.2707011757	-0.065697
C	-0.0188657175	-0.0018627255	-0.049229796	-0.052352
C	 1.4448137564	 0.0636561949	-0.6142566278	-0.04273
C	 1.9861390447	-0.4713058549	 0.7407950547	-0.044226
H	-0.4871929944	 2.0046715238	 0.9226361471	 0.091113
H	-0.4654725862	 1.9740524073	-0.860933709	 0.092667
H	 2.0148395111	 2.3595331533	-0.5571040462	 0.05924
H	 3.2607546673	 1.3041523238	 1.3365278802	 0.06093
H	 1.5484168277	 1.8205154695	 3.2912829571	 0.090786
H	-0.2926584764	-0.019253967	 3.3004396367	 0.090786
H	 0.2127873645	-1.7416708099	 1.3516924199	 0.06093
H	-0.8511427043	-0.5044367211	-0.542848015	 0.05924
H	 1.7545853658	-0.2512842356	-1.6082078329	 0.055993
H	 2.751152169	-1.2361399726	 0.8838469619	 0.058197
303.5447	325.1274	460.0039	526.7592	632.8071	638.7932	671.3835	735.8288	777.991	778.3276	806.9515	846.3215	861.1518	874.1249	935.563	942.1021	952.5971	956.1655	975.4153	982.5798	996.4953	1021.3391	1045.3425	1066.1619	1115.0525	1129.1736	1152.3925	1166.0665	1188.5562	1191.2233	1232.2013	1242.2541	1252.7947	1267.5874	1279.2174	1305.4624	1308.4686	1322.0241	1365.5504	1476.1164	1640.7949	3042.9601	3080.043	3084.007	3091.3773	3094.1864	3099.0731	3101.5916	3136.9567	3179.0537	3204.4756
C1C2C3C=CC4C1C2C34	C1[C@H]2[C@H]3C=C[C@H]4[C@@H]1[C@@H]2[C@@H]34	
InChI=1S/C9H10/c1-2-5-7-3-6-4(1)8(5)9(6)7/h1-2,4-9H,3H2	InChI=1S/C9H10/c1-2-5-7-3-6-4(1)8(5)9(6)7/h1-2,4-9H,3H2/t4-,5+,6+,7-,8+,9-
