20
gdb 90623	4.05012	1.23208	1.15741	0.4879	78.69	-0.2267	0.0609	0.2877	1157.5981	0.170374	-403.080252	-403.071961	-403.071017	-403.112611	32.579	
C	 0.1197150164	 1.5685254098	 0.0627667898	-0.409483
C	-0.0432206624	 0.0607213327	 0.0885353236	 0.126786
O	 0.7898699967	-0.5891486787	-0.9260245796	-0.31771
C	 1.604797206	-1.2153474178	 0.0884998413	 0.041922
C	 0.7167678148	-0.6786219249	 1.2078600711	-0.034798
N	 0.3013219144	-2.0745239032	 1.6357822456	-0.20349
C	-0.2595111552	-2.7979468201	 0.4684981675	-0.297557
C	 1.2009735152	-2.6425930659	 0.5266462015	 0.341626
C	 2.1798390558	-3.7527692541	 0.7660992486	-0.499494
H	 1.1614131776	 1.8550340694	 0.2382623531	 0.121468
H	-0.1838205624	 1.9641448297	-0.9111053509	 0.129319
H	-0.5048006126	 2.0318668353	 0.8344939294	 0.11918
H	-1.0987784575	-0.2123351242	-0.0326097705	 0.083753
H	 2.6731428934	-1.024638846	-0.0363834739	 0.078128
H	 1.06477431	-0.1019839766	 2.0635956556	 0.087946
H	-0.6653679702	-3.7628259148	 0.7581034391	 0.118319
H	-0.8327884425	-2.2793162241	-0.2917463133	 0.134534
H	 2.4983729457	-4.1999964279	-0.1830839283	 0.126087
H	 3.0748972945	-3.3926649319	 1.2854484668	 0.121901
H	 1.7282062525	-4.5379038968	 1.3791477534	 0.131561
133.6245	175.6744	189.9	233.911	244.6403	295.1442	352.7961	391.8575	519.4401	527.1094	624.4295	693.6041	767.5486	821.5499	855.2844	862.8587	899.7973	931.444	936.1859	977.664	993.8817	1030.2437	1071.3097	1085.1306	1088.8199	1114.9325	1128.9715	1154.9551	1199.9631	1231.9549	1249.7356	1273.716	1303.5841	1322.1379	1375.3022	1396.6609	1403.6988	1419.254	1480.8964	1483.3905	1491.8794	1492.9317	1506.2589	3025.7383	3027.1329	3033.6103	3081.924	3086.6957	3107.0921	3111.5907	3113.5278	3122.1943	3128.4679	3213.6178
CC1OC2C1N1CC21C	C[C@H]1O[C@H]2[C@@H]1N1C[C@@]21C	
InChI=1S/C7H11NO/c1-4-5-6(9-4)7(2)3-8(5)7/h4-6H,3H2,1-2H3	InChI=1S/C7H11NO/c1-4-5-6(9-4)7(2)3-8(5)7/h4-6H,3H2,1-2H3/t4-,5-,6+,7+,8?/m1/s1
