16
gdb 75974	2.15347	1.96876	1.06755	1.2049	66.79	-0.2636	-0.0321	0.2314	1069.7354	0.124756	-475.086741	-475.07841	-475.077466	-475.120394	29.689	
C	 0.0360932992	 1.4679596421	 0.0000703085	-0.348256
N	 0.0492790334	 0.0019275923	 0.014852253	-0.165693
C	 0.0681138353	-0.6513617293	-1.217751517	 0.392041
O	 0.0366158184	-0.0376239703	-2.2593939192	-0.340093
C	 0.1042354647	-2.1732286101	-1.1679654317	-0.198836
O	 0.6625542943	-2.6784032892	 0.0214755902	-0.228816
C	-0.0146497395	-2.1918047141	 1.1549248334	-0.197818
C	-0.0568866181	-0.6702206253	 1.2355271751	 0.398389
O	-0.1962705643	-0.0920268692	 2.2884462643	-0.339686
H	 0.9022059583	 1.8363353837	-0.5521991096	 0.151106
H	-0.8671516307	 1.8310847026	-0.4954145194	 0.149493
H	 0.0617656638	 1.8074710561	 1.0329065248	 0.16697
H	-0.9238468138	-2.5448886964	-1.323336459	 0.124908
H	 0.7172840139	-2.5186835962	-2.0016866555	 0.155325
H	-1.0540968957	-2.5621038914	 1.196775705	 0.12526
H	 0.5083733507	-2.5542385352	 2.041026587	 0.155706
63.7723	99.3273	109.8466	209.5716	296.5076	330.7095	374.0453	461.1162	468.3418	561.1365	573.5559	629.1264	652.5167	758.2759	958.1372	993.3812	1007.8897	1025.1737	1116.6202	1139.4731	1157.6375	1192.7148	1244.3097	1306.5005	1334.4912	1353.1926	1379.6284	1394.0036	1450.3736	1465.8875	1477.801	1491.4053	1506.0857	1781.3593	1823.2156	2961.371	2963.2655	3068.6449	3127.0422	3129.2539	3134.9573	3189.8232
CN1C(=O)COCC1=O	CN1C(=O)COCC1=O	
InChI=1S/C5H7NO3/c1-6-4(7)2-9-3-5(6)8/h2-3H2,1H3	InChI=1S/C5H7NO3/c1-6-4(7)2-9-3-5(6)8/h2-3H2,1H3
