19
gdb 74703	2.74458	1.67774	1.24954	3.2085	81.82	-0.235	-0.0439	0.1911	1053.213	0.161086	-385.918196	-385.910485	-385.909541	-385.950205	30.476	
C	 0.0027839723	 1.4885363919	 0.0499299204	-0.483885
C	 0.0004892938	-0.0081741627	-0.02845929	 0.203259
C	-0.0232219809	-0.7431291519	-1.1530880466	-0.154322
C	-0.0215467241	-2.2511634541	-1.0604030626	-0.058642
C	-1.0702700312	-2.6783299572	 0.014230444	-0.229349
C	 0.0226957041	-2.2965208543	 1.0626875865	-0.118823
C	 1.0708913698	-2.6786609298	-0.030405456	-0.229346
C	 0.0267381421	-0.7822037882	 1.2503595948	 0.349261
O	 0.0497985227	-0.2501357175	 2.3414014398	-0.339654
H	 0.8921718859	 1.8494408653	 0.5776048885	 0.139329
H	-0.0229409302	 1.9400860951	-0.9452587806	 0.114201
H	-0.8576957677	 1.8494939178	 0.623375538	 0.139475
H	-0.0436939143	-0.2739492756	-2.1333233908	 0.099129
H	-0.0420290411	-2.7317185772	-2.039396004	 0.067041
H	-2.0204554924	-2.1400244368	 0.0356075742	 0.106129
H	-1.2512325975	-3.7567529961	 0.0091958159	 0.10467
H	 0.0428366815	-2.7932962864	 2.0329406501	 0.08072
H	 1.2511420396	-3.7571402867	-0.0429943197	 0.10468
H	 2.0213195477	-2.1406649056	-0.0486399818	 0.106125
116.2	136.1754	204.1069	274.251	375.6386	389.3702	438.0334	439.4182	523.7039	595.6943	696.7704	782.205	815.9908	840.8414	864.1068	868.3101	916.5282	947.8664	975.1047	1005.1418	1039.294	1054.2883	1069.7299	1085.5264	1101.4691	1143.7111	1165.1437	1231.8052	1249.0168	1255.1912	1278.5892	1324.1773	1344.587	1364.9524	1412.4956	1470.1413	1479.1862	1483.8089	1508.4591	1690.0975	1782.3005	3036.1936	3054.4923	3058.8859	3091.0924	3097.6799	3112.3063	3117.321	3118.8256	3119.4944	3162.6995
CC1=CC2CC(C2)C1=O	CC1=C[C@@H]2C[C@@H](C2)C1=O	
InChI=1S/C8H10O/c1-5-2-6-3-7(4-6)8(5)9/h2,6-7H,3-4H2,1H3	InChI=1S/C8H10O/c1-5-2-6-3-7(4-6)8(5)9/h2,6-7H,3-4H2,1H3/t6-,7+
