18
gdb 91506	2.6096	1.87148	1.49322	1.095	71.5	-0.224	0.0308	0.2548	932.9487	0.148678	-438.927256	-438.92015	-438.919206	-438.95827	29.582	
O	-0.112708545	 1.4137985078	 0.2053313742	-0.44544
C	 0.0318603775	 0.0055999692	 0.1351358721	 0.09831
C	 0.4546183225	-0.564074892	 1.5036478854	-0.178631
N	-0.7148313662	-1.4120865869	 1.885114125	-0.17425
C	-1.8847004386	-0.4630261531	 1.468587288	-0.272902
C	-1.3222142782	-0.7543209516	 0.0237150052	 0.339156
O	-1.5809693478	-1.2374056603	-1.3454964982	-0.371092
C	-0.7383578327	-2.4129853928	-0.9830103189	-0.173175
C	-1.0842777007	-2.1099403004	 0.5189672637	-0.017832
H	-0.4287016346	 1.7208512735	-0.6514766276	 0.286938
H	 0.7163383248	-0.2601579175	-0.6783386358	 0.069088
H	 1.3542682279	-1.1819861027	 1.458055164	 0.109481
H	 0.6012121953	 0.2291156945	 2.2403381528	 0.122819
H	-2.8432676772	-0.9274249536	 1.6909176931	 0.124588
H	-1.8011851958	 0.5438488814	 1.8800783073	 0.130728
H	-1.1570572593	-3.3371617534	-1.3870961987	 0.125365
H	 0.2929269117	-2.277244387	-1.3175317808	 0.121889
H	-2.0045342137	-2.6512728452	 0.7393955292	 0.104961
166.4669	270.2815	279.3578	327.2736	347.0258	427.1933	464.3435	537.721	579.8644	625.7205	658.3975	742.8189	801.9376	830.1101	855.928	894.9213	933.9041	960.7064	986.2811	993.4907	1033.718	1061.3251	1087.3647	1122.3954	1129.4997	1149.6662	1190.9244	1208.7919	1219.3166	1240.4609	1256.4631	1300.1586	1319.7624	1335.4755	1414.1423	1429.3024	1486.9519	1499.2144	1507.8514	3030.9733	3062.4285	3070.362	3090.5302	3096.2927	3124.5989	3130.0224	3175.9652	3804.5944
OC1CN2CC11OCC21	O[C@H]1CN2C[C@]31OC[C@@H]23	
InChI=1S/C6H9NO2/c8-5-1-7-3-6(5)4(7)2-9-6/h4-5,8H,1-3H2	InChI=1S/C6H9NO2/c8-5-1-7-3-6(5)4(7)2-9-6/h4-5,8H,1-3H2/t4-,5+,6+/m1/s1
