17
gdb 34540	3.90401	1.17293	0.99221	5.585	81.52	-0.248	-0.0439	0.2041	1174.8077	0.139152	-380.881729	-380.87432	-380.873376	-380.913623	28.919	
N	 0.0021227035	-1.1686457364	 0.1121267376	-0.339469
C	-0.0316172015	-0.011190321	 0.0626109737	 0.212416
C	-0.0290169515	 1.4141388989	-0.0039110823	 0.14261
C	-1.1830173602	 2.1009097299	 0.0523864442	-0.083392
C	-1.1994169167	 3.5765782104	-0.0094848171	-0.083829
N	-0.2847816401	 4.2946699667	 0.9276915196	-0.330197
C	 0.0261560763	 4.2754078219	-0.5017001221	-0.022758
C	 1.2024412444	 3.4250466468	-0.9303550423	-0.223636
C	 1.3109265018	 2.1160029931	-0.1231855258	-0.309442
H	-2.128655855	 1.5748488098	 0.1302515504	 0.116656
H	-2.1633226842	 4.03604609	-0.2041695494	 0.094303
H	-0.7046135675	 5.1835529749	 1.1882202378	 0.238099
H	-0.1283867056	 5.1889917367	-1.0722437585	 0.092283
H	 1.0827156702	 3.1930287483	-1.995886828	 0.1128
H	 2.1355264464	 3.9895569115	-0.8287381424	 0.112728
H	 1.6809933576	 2.3391616644	 0.8825925869	 0.148576
H	 2.0409889222	 1.449609394	-0.5902092223	 0.122252
106.3605	161.7387	209.5368	299.6786	354.1552	410.6195	462.7618	562.2152	579.1466	621.277	659.6822	759.6796	772.2428	834.0935	865.5601	920.8174	933.4209	975.3868	988.9651	1023.4157	1059.0831	1115.0345	1141.2551	1167.7609	1189.2784	1218.4375	1246.2761	1283.8463	1331.2129	1357.2425	1389.6689	1405.738	1451.5257	1477.7318	1487.3969	1684.0499	2331.0125	3033.0369	3055.7225	3075.7189	3100.3613	3128.2023	3158.0286	3190.1348	3502.3631
N#CC1=CC2NC2CC1	N#CC1=C[C@H]2N[C@H]2CC1	
InChI=1S/C7H8N2/c8-4-5-1-2-6-7(3-5)9-6/h3,6-7,9H,1-2H2	InChI=1S/C7H8N2/c8-4-5-1-2-6-7(3-5)9-6/h3,6-7,9H,1-2H2/t6-,7+/m0/s1
