20
gdb 6463	3.9839	1.26768	1.19944	2.9984	75.17	-0.2383	-0.0164	0.2218	1104.7036	0.174678	-349.025232	-349.016344	-349.0154	-349.058828	33.393	
C	 0.1159911037	 1.4706564618	-0.2238331115	-0.390311
C	-0.0654100576	-0.0293349787	 0.0331699218	-0.237199
C	-1.5218193774	-0.4982802743	 0.1319542011	 0.35008
C	-2.2781973485	 0.152283593	 1.2929848683	-0.449364
C	-2.3354645203	-0.4322472685	-1.2114125041	-0.389037
C	-2.6749985542	-1.9171287873	-1.0271563719	 0.41156
O	-3.4530706743	-2.6605484931	-1.5511195937	-0.292665
C	-1.6892569644	-2.0597577206	 0.1396921354	-0.398568
H	 1.1746048788	 1.7158270337	-0.3525081107	 0.116664
H	-0.4091136264	 1.7852725744	-1.1325653891	 0.11862
H	-0.2626850219	 2.0760300318	 0.6051328719	 0.120891
H	 0.4250975987	-0.5908818292	-0.7730130914	 0.091387
H	 0.4581222248	-0.3085045487	 0.9576165375	 0.097383
H	-2.3578463153	 1.2365509231	 1.1683313455	 0.120774
H	-3.2972290786	-0.2429686485	 1.3690317889	 0.117261
H	-1.7749871747	-0.0424646882	 2.2468187872	 0.115987
H	-3.1870514827	 0.2520482564	-1.2613163275	 0.124154
H	-1.7100367634	-0.2709118218	-2.0968934656	 0.124872
H	-0.7834796524	-2.5997106516	-0.1587123817	 0.123857
H	-2.0848378039	-2.5230054037	 1.0480717297	 0.123655
40.7328	105.2208	191.8978	234.5354	264.851	330.942	341.4653	353.407	398.7745	421.4122	512.8466	609.8757	682.6755	727.0969	788.113	874.566	880.1293	893.0818	954.1925	994.1626	1022.481	1037.1614	1081.3511	1084.6229	1139.861	1169.8846	1187.3696	1210.7669	1255.0465	1289.7796	1335.689	1368.0761	1410.9307	1415.6843	1424.3981	1444.7534	1482.2194	1494.8339	1496.9063	1505.1675	1511.3422	1891.2621	3008.5478	3026.6317	3035.7196	3041.1693	3043.1053	3048.4063	3090.6578	3099.9944	3101.5388	3103.5642	3104.3713	3111.3581
CCC1(C)CC(=O)C1	CCC1(C)CC(=O)C1	
InChI=1S/C7H12O/c1-3-7(2)4-6(8)5-7/h3-5H2,1-2H3	InChI=1S/C7H12O/c1-3-7(2)4-6(8)5-7/h3-5H2,1-2H3
