15
gdb 18780	4.13153	2.4377	2.1466	1.2069	62.76	-0.2124	0.068	0.2804	680.8541	0.12019	-362.552944	-362.54726	-362.546316	-362.58227	23.845	
O	-0.0108459795	 1.3274423968	 0.0910567163	-0.462081
C	 0.0875520903	-0.0425312762	 0.0592620348	 0.390488
C	-1.0454307173	-1.0403696502	 0.1637195211	-0.164368
C	-0.2807355013	-0.9324986861	-1.13401307	-0.111635
N	 0.5446865079	-2.1615413534	-0.9296672155	-0.155625
C	 1.882938304	-1.6357669459	-0.4577676867	-0.185439
C	 1.1400893134	-0.9768992917	 0.720023247	-0.149745
C	 0.0392115488	-2.0767354275	 0.5298566502	 0.000141
H	 0.5699603043	 1.6967075866	-0.5840924351	 0.287728
H	-2.0980680134	-0.9408576863	 0.3873424658	 0.101864
H	-0.5908443389	-0.5641445026	-2.1041448241	 0.092118
H	 2.5144962326	-2.4778069077	-0.1602815599	 0.108133
H	 2.416972571	-1.0042097886	-1.1761174711	 0.092766
H	 1.5850550313	-0.6867371499	 1.6712021646	 0.074538
H	-0.064676603	-2.9927387673	 1.1078428226	 0.081117
250.0137	305.2226	347.5992	445.7178	561.0794	616.4747	734.5406	763.8025	802.1654	827.6976	833.8935	857.2251	888.5037	895.8336	932.2751	941.6486	989.8796	998.939	1041.7551	1070.7654	1125.0508	1133.8519	1155.6289	1194.2198	1195.7067	1205.9508	1228.3453	1275.8127	1288.9312	1307.6873	1449.5111	1498.3889	3040.2902	3102.0018	3123.3785	3135.746	3190.6694	3218.7843	3782.2034
OC12C3C1N1CC2C31	O[C@@]12[C@H]3[C@@H]1N1C[C@@H]2[C@@H]31	
InChI=1S/C6H7NO/c8-6-2-1-7-4(2)3(6)5(6)7/h2-5,8H,1H2	InChI=1S/C6H7NO/c8-6-2-1-7-4(2)3(6)5(6)7/h2-5,8H,1H2/t2-,3-,4+,5+,6+/m1/s1
