20
gdb 77968	2.56766	1.39863	1.05596	2.1336	82.31	-0.2198	-0.0221	0.1977	1198.6944	0.168561	-403.068828	-403.059685	-403.058741	-403.102794	33.906	
C	 0.0720561244	 1.6158004701	 0.1276244781	-0.454577
C	 0.0831442869	 0.1130646135	-0.086535839	 0.071736
C	 1.3324187511	-0.7249223161	-0.5213207172	-0.063442
C	 1.9170854499	-0.6036200773	 0.9159901369	-0.051777
C	 2.6214544696	 0.6124238363	 1.4434863673	 0.09464
O	 3.3708788873	 1.3041242188	 0.7972997452	-0.255775
C	 0.3841241788	-0.9188644453	 1.0432139283	-0.081427
N	 0.5088344463	-1.9289580107	-0.0832267069	-0.092366
C	 1.1650794919	-3.2066036025	 0.1559623535	-0.335353
H	 0.1414733283	 2.133367787	-0.8351325354	 0.129572
H	-0.8770271625	 1.9105505289	 0.5886435718	 0.11939
H	 0.8762737509	 1.9988905226	 0.7553696604	 0.137102
H	-0.7916244964	-0.1994675717	-0.661899722	 0.087669
H	 1.8666276589	-0.7072932322	-1.4719659074	 0.08879
H	 2.5466328677	-1.4480479811	 1.2246654859	 0.100869
H	 2.4590401441	 0.8068219406	 2.5310203396	 0.072299
H	-0.1929894589	-1.1341522164	 1.9451841053	 0.08072
H	 0.4679378674	-3.8551977988	 0.6964020325	 0.125597
H	 1.3698847778	-3.6733594672	-0.8128769858	 0.128146
H	 2.1107575264	-3.1873751686	 0.722069429	 0.098187
74.063	116.3509	163.0759	186.1313	213.8011	220.8411	266.8294	348.0108	382.5191	532.9335	546.5718	684.5231	721.4724	741.2801	755.2132	811.5049	853.4735	910.3397	999.7887	1014.8806	1050.963	1059.2001	1071.6439	1092.4972	1123.5699	1133.083	1156.256	1171.7057	1201.8695	1208.8928	1229.8409	1255.4886	1278.6108	1347.7282	1410.3264	1420.065	1423.1377	1448.0318	1490.1393	1493.1574	1496.7059	1501.5811	1807.0732	2838.6329	2964.2511	3031.5938	3041.662	3062.9518	3081.314	3093.4138	3095.2898	3101.6272	3114.3882	3149.4339
CC1C2C(C=O)C1N2C	C[C@H]1[C@H]2[C@@H](C=O)[C@@H]1N2C	
InChI=1S/C7H11NO/c1-4-6-5(3-9)7(4)8(6)2/h3-7H,1-2H3	InChI=1S/C7H11NO/c1-4-6-5(3-9)7(4)8(6)2/h3-7H,1-2H3/t4-,5+,6-,7+
