17
gdb 36132	4.00273	1.12604	1.00455	3.6073	77.37	-0.2374	-0.003	0.2344	1184.8976	0.137097	-380.865982	-380.858241	-380.857296	-380.898725	29.534	
N	-0.2164995608	-1.1165967365	 0.3016304841	-0.309679
C	-0.1201499394	 0.0103521529	 0.0653295507	 0.261628
C	 0.0304044073	 1.433324289	-0.2395604471	-0.426918
C	 1.4706868402	 1.9038473244	-0.0953669107	 0.301713
C	 1.9929001869	 2.4419657055	 1.1926066053	-0.268733
N	 1.6963550638	 3.3552525559	 0.0793468018	-0.1494
C	 2.8665807431	 3.7070943577	-0.7595103847	-0.216286
C	 3.3172588566	 2.4120310409	-1.3995389376	-0.087726
C	 2.5185322921	 1.4085408092	-1.039543411	-0.140067
H	-0.3241527533	 1.6130686889	-1.2613124778	 0.156316
H	-0.6111028452	 2.0151490973	 0.4291548632	 0.162901
H	 1.3342746249	 2.5556162032	 2.0502655869	 0.120301
H	 3.0316627859	 2.2273209542	 1.4325947559	 0.120134
H	 2.5645633498	 4.4521473024	-1.5071746549	 0.12061
H	 3.6457986673	 4.1744303777	-0.1444232912	 0.121441
H	 4.1872578719	 2.3373155763	-2.0412272303	 0.109887
H	 2.5916824689	 0.3736687311	-1.3493916927	 0.123876
53.6215	113.1909	239.1611	267.1072	341.025	390.7569	434.4541	466.1217	507.8736	680.1633	745.6799	759.6651	774.7436	844.9178	906.811	913.9547	940.1471	948.66	958.3245	973.0123	1016.9799	1057.9236	1113.1783	1123.0109	1149.1783	1185.1527	1216.5692	1268.3086	1313.6577	1335.2363	1363.5036	1371.8479	1459.3465	1486.6353	1502.6124	1672.124	2363.0173	3017.3248	3046.0096	3049.8702	3095.3076	3098.2557	3187.8663	3200.184	3226.2539
N#CCC12CN1CC=C2	N#CC[C@]12CN1CC=C2	
InChI=1S/C7H8N2/c8-4-3-7-2-1-5-9(7)6-7/h1-2H,3,5-6H2	InChI=1S/C7H8N2/c8-4-3-7-2-1-5-9(7)6-7/h1-2H,3,5-6H2/t7-,9?/m1/s1
