16
gdb 28530	3.2279	1.3539	0.95716	2.6654	76.93	-0.197	0.0032	0.2002	1162.1261	0.127622	-434.13897	-434.131139	-434.130194	-434.170821	31.196	
N	 0.0261071119	 1.4090310518	 0.1336344196	-0.615623
C	 0.0095947365	-0.0074360795	 0.0248856691	 0.180874
C	-1.1421378342	-0.772866741	 0.0475823355	-0.067671
N	-1.1655357859	-2.1141480319	 0.0052771691	-0.391741
C	 0.004682154	-2.7291349127	-0.0879209531	 0.436318
O	-0.0083911168	-4.0830191456	-0.150128568	-0.429664
C	 1.2373792159	-2.0763699077	-0.117472154	-0.31412
C	 1.2492721794	-0.6874492712	-0.046560667	 0.329575
N	 2.4130911814	 0.0632755244	-0.0850131883	-0.598898
H	 0.4343165187	 1.8444354997	-0.6892638381	 0.246792
H	-0.9074140154	 1.7833501791	 0.2564662731	 0.241975
H	-2.1110313013	-0.2792966667	 0.1123963997	 0.090498
H	-0.9420011502	-4.3312894903	-0.1094838449	 0.292071
H	 2.155373585	-2.6495249079	-0.176082944	 0.091882
H	 3.2579791332	-0.4402449611	 0.1425746805	 0.250086
H	 2.3344125775	 0.9423812608	 0.4112224506	 0.257646
150.1483	215.3596	220.8528	305.7449	343.7684	378.5348	453.9563	462.4153	475.0251	521.4052	537.1174	581.2362	654.9851	711.5438	762.8928	781.772	792.5714	851.3177	862.6246	930.9578	993.3676	1106.2737	1140.1303	1185.8378	1240.5572	1279.3105	1332.1333	1353.607	1401.6036	1496.5897	1541.8752	1625.9085	1633.2229	1652.2503	1677.5129	3131.5397	3194.5643	3486.6381	3538.323	3589.5371	3651.8207	3772.5402
NC1=CN=C(O)C=C1N	Nc1cnc(O)cc1N	
InChI=1S/C5H7N3O/c6-3-1-5(9)8-2-4(3)7/h1-2H,7H2,(H3,6,8,9)	InChI=1S/C5H7N3O/c6-3-1-5(9)8-2-4(3)7/h1-2H,7H2,(H3,6,8,9)
