13
gdb 50062	3.2496	0.96792	0.89452	4.1034	66.73	-0.2696	-0.1107	0.1589	1271.6104	0.087231	-452.731113	-452.722533	-452.721589	-452.766117	29.08	
O	-0.1122111521	-0.0224884883	 0.6768384967	-0.2443
C	 0.4182917535	 0.4661872251	-0.2874382785	 0.167288
C	 1.3549251551	 1.6343458238	-0.166367572	-0.122568
N	 2.2622963537	 1.849246139	-1.2860934807	-0.302372
C	 1.2413750465	 2.867115553	-1.0463162198	-0.151491
C	 0.1692654365	 2.9981201187	-2.0845106902	 0.346183
O	-0.2608569928	 2.1012961307	-2.7632387712	-0.272099
C	-0.3627758209	 4.3700629035	-2.2221330077	 0.219713
N	-0.7648489138	 5.4498549736	-2.3199584458	-0.289617
H	 0.2782891177	 0.0878734907	-1.3160122781	 0.128253
H	 1.6853769068	 1.8293539515	 0.8518801066	 0.127432
H	 3.1713630206	 2.1785612506	-0.9723720886	 0.262355
H	 1.5291052291	 3.8031141981	-0.5738593208	 0.131225
25.2068	68.3666	143.1608	194.6412	240.3634	280.5361	324.7797	363.2963	479.0471	506.4894	600.8101	737.2783	804.2223	842.0758	900.9834	935.1025	993.2996	1041.5996	1080.736	1116.4944	1191.7529	1200.8247	1226.248	1362.8846	1415.8166	1460.8181	1796.238	1822.4284	2337.699	2985.9503	3141.3148	3150.6945	3518.7827
O=CC1NC1C(=O)C#N	O=C[C@H]1N[C@H]1C(=O)C#N	
InChI=1S/C5H4N2O2/c6-1-4(9)5-3(2-8)7-5/h2-3,5,7H	InChI=1S/C5H4N2O2/c6-1-4(9)5-3(2-8)7-5/h2-3,5,7H/t3-,5-/m1/s1
