20
gdb 17346	4.00692	1.26383	1.07212	1.3887	75.97	-0.2394	0.0809	0.3203	1159.1488	0.176177	-348.97183	-348.963081	-348.962137	-349.005464	32.837	
C	-0.2689230968	 1.5180750237	 0.0426967628	-0.400476
C	-0.0153306431	 0.0263366027	 0.0381476409	 0.00068
C	 1.3391785582	-0.5326604264	-0.3283466671	-0.308205
C	 0.8306534758	-0.6610805183	 1.0896272361	 0.006795
C	 1.4875465051	 0.0879440409	 2.2066677818	-0.02481
C	 0.8323947321	 0.16078358	 3.5774037084	-0.33818
C	 2.0828593333	-0.656305396	 3.3708050962	 0.090927
O	 1.9945684256	-2.0525394188	 3.3437684066	-0.415462
H	 0.6132300715	 2.0803937686	 0.3628486538	 0.111529
H	-0.5349526649	 1.8717612102	-0.9597859796	 0.112775
H	-1.0907433497	 1.7828137707	 0.7176317118	 0.114799
H	-0.8659890946	-0.5570835621	-0.3068290561	 0.077537
H	 1.398688218	-1.4221983991	-0.9460874086	 0.106843
H	 2.1375118706	 0.1823372679	-0.5069883342	 0.102929
H	 0.5016872984	-1.6526765835	 1.3816300052	 0.091349
H	 2.0403828845	 0.9728885592	 1.905520324	 0.082629
H	 0.8888009279	 1.0828309108	 4.1462130266	 0.10679
H	-0.0910732771	-0.3962634621	 3.7013586112	 0.111699
H	 3.0144354523	-0.2721204463	 3.7869856412	 0.082364
H	 1.7929317133	-2.3521952523	 4.2359816088	 0.287488
40.0758	125.6516	171.8381	206.3828	218.4118	303.7962	335.6366	392.7904	436.8923	481.3079	591.1431	746.3094	779.2589	812.2964	844.0176	867.4978	898.0514	916.9754	988.3787	1007.3698	1038.2375	1040.2046	1059.5717	1070.7395	1114.7156	1132.9285	1149.693	1176.5044	1199.3214	1204.8486	1233.699	1254.1169	1298.2085	1317.5438	1396.4812	1413.9204	1418.906	1447.8428	1485.4948	1491.3043	1494.0033	1506.7457	3027.6983	3084.6915	3092.4481	3099.2466	3120.7197	3125.4063	3128.9268	3146.2277	3167.0796	3206.0204	3214.9481	3810.1867
CC1CC1C1CC1O	C[C@H]1C[C@H]1[C@H]1C[C@H]1O	
InChI=1S/C7H12O/c1-4-2-5(4)6-3-7(6)8/h4-8H,2-3H2,1H3	InChI=1S/C7H12O/c1-4-2-5(4)6-3-7(6)8/h4-8H,2-3H2,1H3/t4-,5+,6+,7+/m0/s1
