14
gdb 10582	2.7575	1.88161	1.33712	0.917	71.16	-0.2403	0.0184	0.2587	924.0213	0.103276	-345.311715	-345.303279	-345.302335	-345.344117	31.428	
O	 0.0630630957	 1.3717485002	-0.021918956	-0.419465
C	 0.0311502255	-0.0083573937	 0.0389552435	 0.12002
C	-0.3908071218	-0.7378596139	 1.2674188002	-0.340026
C	-1.3281383124	-0.7571877891	 0.0347386546	-0.065444
C	-2.4807275	 0.1005011882	 0.087254293	 0.221334
C	-3.3865770076	 0.8930344218	 0.1208433185	-0.431373
C	-1.4422354514	-1.9732109574	-0.7223062646	 0.247569
C	-1.5092723278	-2.9963895594	-1.3499799367	-0.42864
H	-0.8445134538	 1.7024841018	 0.0384051664	 0.291443
H	 0.799761995	-0.4595465444	-0.5798200214	 0.128356
H	 0.0892727086	-1.6781765678	 1.5117815119	 0.137549
H	-0.7359766359	-0.1495066729	 2.1096659178	 0.136551
H	-4.2183035911	 1.552670639	 0.1594348531	 0.205344
H	-1.5798719931	-3.8965270222	-1.9086442303	 0.196783
124.9398	135.822	159.3987	192.1214	237.6418	367.152	398.7437	457.5684	498.5417	566.5005	578.4778	588.9094	607.8336	650.9113	663.3665	682.3956	785.1617	866.193	933.3268	1012.7608	1050.8564	1095.7608	1147.2089	1243.8147	1279.0318	1361.7515	1423.6333	1466.486	2226.5239	2239.6202	3143.603	3174.0042	3243.4541	3498.8331	3503.4098	3727.3579
OC1CC1(C#C)C#C	O[C@H]1CC1(C#C)C#C	
InChI=1S/C7H6O/c1-3-7(4-2)5-6(7)8/h1-2,6,8H,5H2	InChI=1S/C7H6O/c1-3-7(4-2)5-6(7)8/h1-2,6,8H,5H2/t6-/m0/s1
