20
gdb 64151	3.66572	1.02184	0.96508	4.9595	76.8	-0.2351	0.0303	0.2654	1296.8884	0.170636	-440.326585	-440.317304	-440.31636	-440.36087	34.568	
C	-0.2870695242	 1.4796431773	-0.0749515098	-0.452038
C	 0.0731256763	-0.0017892842	-0.0168327319	 0.364227
O	-1.103846422	-0.811026008	-0.0214342228	-0.465057
C	 0.909943505	-0.5092191115	-1.2040966567	-0.245323
C	 1.5152546417	-1.8239125237	-0.6932558853	-0.159069
N	 1.627607925	-1.6019000134	 0.7527683419	-0.038593
C	 0.9707468765	-0.3742412444	 1.1846053322	-0.196974
C	 2.2020195441	-2.5108242691	 1.5744120086	 0.138144
O	 2.7157719577	-3.5487503214	 1.2057226749	-0.342587
H	 0.6057151597	 2.1097128173	-0.131310462	 0.120763
H	-0.9107775519	 1.6781300606	-0.9507851973	 0.132466
H	-0.8515638246	 1.7804352184	 0.8161435192	 0.11012
H	-1.6407833891	-0.5681908221	 0.7403896637	 0.278945
H	 0.2903700989	-0.6439119343	-2.092381221	 0.120157
H	 1.6961639413	 0.2163886661	-1.4345575871	 0.105703
H	 0.857794625	-2.6768815128	-0.8898296424	 0.131966
H	 2.4939760139	-2.0514272286	-1.1233468637	 0.124449
H	 1.6950764908	 0.4280780832	 1.3858213603	 0.104654
H	 0.3812763699	-0.5305570584	 2.0949294876	 0.105953
H	 2.156928006	-2.2024753312	 2.6393970317	 0.062095
38.0609	155.5727	185.7453	193.1259	234.3421	293.8598	302.3656	329.5573	349.9594	409.1786	425.2796	525.5534	605.9216	741.7447	779.3163	836.356	867.1917	926.3015	941.2555	975.9014	1008.1405	1022.4507	1034.8704	1120.8341	1156.5682	1165.3825	1197.3148	1229.7089	1239.7398	1285.9147	1314.7316	1340.804	1362.6358	1394.0617	1404.861	1412.4551	1448.4354	1479.5805	1490.6564	1494.6481	1507.5339	1521.2498	1790.2612	2917.3986	2995.7734	3028.278	3053.7654	3058.5952	3061.0892	3094.8985	3096.7169	3120.5299	3127.0952	3806.9225
CC1(O)CCN(C1)C=O	C[C@@]1(O)CCN(C1)C=O	
InChI=1S/C6H11NO2/c1-6(9)2-3-7(4-6)5-8/h5,9H,2-4H2,1H3	InChI=1S/C6H11NO2/c1-6(9)2-3-7(4-6)5-8/h5,9H,2-4H2,1H3/t6-/m1/s1
