24
gdb 88681	3.06882	0.99249	0.90558	1.1596	91.75	-0.2203	0.09	0.3104	1462.3554	0.215263	-368.378864	-368.368526	-368.367582	-368.413979	39.141	
C	-0.2237121097	 1.5063615026	-0.1639188931	-0.410127
C	-0.0065313694	 0.0202231469	 0.0168326797	 0.032203
C	 1.3244428237	-0.6074783355	-0.231567621	-0.257255
N	 0.776845931	-0.5456627948	 1.1195374104	-0.081728
C	 1.4129535771	 0.3168315663	 2.0738634937	 0.019213
C	 0.7375624358	 0.4878659715	 3.4142100406	-0.348712
C	 2.0279576043	-0.2987378813	 3.3164884872	 0.323834
C	 1.9656547139	-1.8015814816	 3.5033315518	-0.448275
C	 3.2880781358	 0.3522440692	 3.8543019111	-0.448635
H	 0.6953886069	 2.0820074628	-0.0302273642	 0.119239
H	-0.5963003441	 1.7072778662	-1.1740372708	 0.119798
H	-0.9669668587	 1.8854547965	 0.5458488671	 0.125952
H	-0.8885260858	-0.5786459019	-0.209021002	 0.08692
H	 1.4107049805	-1.5978208625	-0.6721528264	 0.11013
H	 2.1455084897	 0.0672410963	-0.4750307318	 0.103404
H	 1.9381174666	 1.1900640829	 1.6803516995	 0.065384
H	 0.7520078087	 1.4680915883	 3.8797982662	 0.10184
H	-0.1790176816	-0.0723716555	 3.5648208401	 0.111928
H	 1.0821385418	-2.221039854	 3.0194266994	 0.131504
H	 2.8477559705	-2.2865352941	 3.0678828634	 0.106056
H	 1.940197094	-2.05835987	 4.5689527456	 0.10538
H	 3.3804354397	 0.1949775766	 4.9357026782	 0.113242
H	 4.1833128598	-0.0691305543	 3.3812699552	 0.111607
H	 3.2926925195	 1.4326333092	 3.6764041503	 0.107097
51.5762	119.1685	146.4512	183.8865	197.8289	218.5819	231.2582	319.7941	349.6202	372.2775	394.428	440.5208	451.8248	549.0744	704.9419	743.7314	801.9939	862.1081	883.8827	912.9717	921.6617	970.5499	973.8284	998.0485	1036.2336	1046.0115	1057.4998	1071.2831	1114.5658	1119.9346	1124.3636	1150.8929	1158.4054	1187.3445	1198.0482	1284.0104	1337.7367	1339.7118	1402.1669	1404.5866	1413.9875	1421.849	1423.1446	1480.7278	1483.6247	1490.5348	1492.1038	1498.6208	1502.9153	1510.8275	1514.2126	3017.0807	3024.4057	3035.4813	3058.7751	3075.2373	3078.5398	3081.8661	3092.7704	3095.0297	3098.199	3123.1516	3126.5635	3134.5244	3167.5337	3214.8618
CC1CN1C1CC1(C)C	C[C@H]1CN1[C@H]1CC1(C)C	
InChI=1S/C8H15N/c1-6-5-9(6)7-4-8(7,2)3/h6-7H,4-5H2,1-3H3	InChI=1S/C8H15N/c1-6-5-9(6)7-4-8(7,2)3/h6-7H,4-5H2,1-3H3/t6-,7-,9?/m0/s1
