23
gdb 111691	2.26746	1.44125	1.23534	1.0834	85.36	-0.235	0.0771	0.3121	1193.1753	0.206701	-388.284311	-388.275141	-388.274197	-388.318037	35.136	
C	 0.3989158172	 1.2862489979	 0.198199694	-0.236129
O	-0.2903543573	 0.1642508381	-0.3159552741	-0.233916
C	 0.4552194567	-0.5338014059	-1.267803357	 0.125479
C	 1.4221254327	-1.635375147	-0.8971199896	-0.108434
C	 1.3418304728	-2.2455042504	 0.4993987718	-0.221499
C	-0.1511424831	-2.5705994654	 0.7355148153	-0.224453
C	-0.7710908007	-2.7706644216	-0.6702146856	 0.044321
C	-2.2646096708	-2.4390919166	-0.7436119806	-0.402844
C	 0.1096355844	-1.9504920788	-1.6115318494	-0.117262
H	 1.3398309704	 0.9992381503	 0.6882277306	 0.112259
H	 0.6314077402	 2.0124966201	-0.5959904935	 0.105731
H	-0.2576449928	 1.7621983158	 0.9303435901	 0.125572
H	 0.7618233117	 0.093423744	-2.1083442623	 0.07837
H	 2.3751792354	-1.670052756	-1.4156454056	 0.075739
H	 1.9433961701	-3.1622386365	 0.5092431896	 0.097157
H	 1.7496783616	-1.593429912	 1.2796111504	 0.094142
H	-0.2865511552	-3.4526815044	 1.3687215661	 0.085284
H	-0.6418460737	-1.7304516091	 1.2303713689	 0.114007
H	-0.6355518229	-3.821950732	-0.9612909795	 0.066502
H	-2.4352829705	-1.3902573073	-0.4852636499	 0.134978
H	-2.6613704251	-2.6098775856	-1.7503900115	 0.103283
H	-2.8403644886	-3.0632548026	-0.0511800107	 0.104195
H	 0.0851102076	-2.2084678749	-2.6659914576	 0.077515
97.8388	106.1008	158.3782	195.0119	235.0989	248.4561	255.0136	340.7104	408.2647	514.8363	538.6092	660.976	706.7691	757.4873	776.9616	828.5866	841.3347	917.5896	950.6639	966.1616	1000.584	1038.2262	1041.5886	1055.159	1074.6386	1110.2357	1121.0214	1137.6134	1160.7849	1182.2077	1205.4058	1217.4854	1232.9283	1258.1614	1311.7721	1323.3557	1335.458	1344.3902	1365.7506	1380.3979	1407.5514	1436.8967	1482.5823	1484.9264	1487.0852	1496.7481	1505.8943	1506.6134	1510.3711	2981.712	2997.3584	3029.2709	3029.4813	3035.3679	3060.315	3062.5397	3067.8526	3089.7011	3115.071	3117.6504	3119.5558	3146.9757	3157.9302
COC1C2CCC(C)C12	CO[C@H]1[C@H]2CC[C@@H](C)[C@@H]12	
InChI=1S/C8H14O/c1-5-3-4-6-7(5)8(6)9-2/h5-8H,3-4H2,1-2H3	InChI=1S/C8H14O/c1-5-3-4-6-7(5)8(6)9-2/h5-8H,3-4H2,1-2H3/t5-,6+,7-,8+/m1/s1
