25
gdb 100083	3.12429	0.8677	0.81165	2.4834	89.37	-0.2399	-0.0108	0.2292	1597.6512	0.224674	-389.528083	-389.516295	-389.515351	-389.565693	42.799	
C	 0.2893828255	 1.4709468404	 0.0253787064	-0.404692
C	-0.060104659	-0.0214836967	 0.0244190508	-0.172517
C	-1.5682195905	-0.3885291212	 0.0979102966	 0.267803
C	-2.1864134266	 0.1426469799	 1.4057700256	-0.422226
C	-2.3190048217	 0.1889317442	-1.1177041051	-0.422
C	-1.6296497633	-1.9344655236	 0.0735944983	-0.319531
C	-2.985223719	-2.6297282906	 0.1587212103	 0.37182
C	-2.9244052608	-4.1496020375	 0.2214495902	-0.466795
O	-4.0476422895	-2.0489491562	 0.1781624798	-0.292407
H	 1.3747555237	 1.6027886276	-0.0288061743	 0.111433
H	-0.145392472	 1.9954248912	-0.8306027869	 0.119554
H	-0.0540635018	 1.972561407	 0.9348703141	 0.119248
H	 0.3608328022	-0.4789904119	-0.8815325697	 0.085606
H	 0.453028163	-0.5013448506	 0.869255434	 0.08556
H	-2.1447015093	 1.2349994175	 1.4463580766	 0.109973
H	-3.2328706391	-0.1556183596	 1.4871906661	 0.141556
H	-1.6483149889	-0.2421817416	 2.2805947492	 0.096879
H	-1.8690355664	-0.1549535366	-2.0570069737	 0.09674
H	-3.3657464501	-0.1178783678	-1.1051770669	 0.143287
H	-2.2875192362	 1.2823988088	-1.1167642723	 0.109159
H	-1.1499441818	-2.3072943411	-0.8441945622	 0.115013
H	-1.0135838054	-2.343001937	 0.8882869644	 0.111121
H	-2.4355218295	-4.4674342624	 1.1496492411	 0.139517
H	-3.9342755673	-4.5597733218	 0.1861085636	 0.141161
H	-2.3286210462	-4.5525709103	-0.604563526	 0.134736
24.5417	79.3792	106.3364	112.7734	147.8484	205.5437	253.5249	274.7295	278.2129	305.62	327.1752	334.0435	391.7328	397.8093	481.4107	509.51	610.7214	744.1939	783.048	811.5328	820.1265	894.3921	930.4666	945.6174	996.8657	997.7626	1002.4867	1032.22	1082.3004	1091.411	1167.1817	1194.4195	1217.3319	1260.9046	1272.5739	1348.4879	1364.0912	1371.9265	1383.2565	1395.6561	1410.2173	1418.7184	1438.7884	1464.557	1478.1163	1480.6387	1482.5279	1496.7534	1506.5286	1508.1656	1515.3616	1524.6652	1805.1307	2996.3576	3002.898	3025.9456	3028.2786	3033.2096	3035.6826	3037.6221	3040.9454	3093.8793	3096.6122	3098.5783	3104.6523	3113.0349	3138.5438	3143.1491	3151.8284
CCC(C)(C)CC(C)=O	CCC(C)(C)CC(=O)C	
InChI=1S/C8H16O/c1-5-8(3,4)6-7(2)9/h5-6H2,1-4H3	InChI=1S/C8H16O/c1-5-8(3,4)6-7(2)9/h5-6H2,1-4H3
