20
gdb 19477	4.32417	1.44438	1.39039	1.7326	74.21	-0.232	0.089	0.321	1003.7346	0.178861	-348.983137	-348.975803	-348.974859	-349.014715	28.943	
C	 0.435081304	 0.2429614203	-1.5012313591	-0.374584
C	-0.0426096646	 0.1745332325	-0.0451974434	-0.229373
C	-1.4160439782	-0.4757659383	 0.0877897311	 0.05813
C	-1.5240875436	-2.0411034737	-0.0331022466	-0.076562
C	-1.1178898793	-2.1061396307	 1.4743628024	-0.245147
C	-1.9723514052	-0.8172797264	 1.5001038203	 0.086387
O	-3.2966644549	-1.2994770662	 1.2114888228	-0.283711
C	-3.0429717471	-2.1987184791	 0.1035069779	-0.083387
H	 1.4065178991	 0.7412006742	-1.5763189755	 0.112569
H	 0.5396018846	-0.7579226402	-1.9331613751	 0.116681
H	-0.274537523	 0.7989424293	-2.1236555277	 0.116128
H	 0.7076039976	-0.3496072081	 0.556333485	 0.097671
H	-0.099522164	 1.1922007988	 0.3633093222	 0.098912
H	-2.1374609615	 0.075553379	-0.5274844104	 0.067802
H	-1.0219774923	-2.6172596391	-0.8101008563	 0.068423
H	-1.4812502399	-2.9480969816	 2.0686297712	 0.097879
H	-0.0549042205	-1.9462782199	 1.6484937315	 0.104003
H	-2.0112748301	-0.1151701624	 2.3324610991	 0.074066
H	-3.5989099545	-1.869986618	-0.7826161237	 0.097408
H	-3.3583588766	-3.2158546105	 0.3655045943	 0.096703
87.5287	163.5504	208.3138	305.4282	351.407	381.7585	491.553	515.5349	654.2397	747.1618	826.9834	845.3164	871.0953	908.6163	916.1339	942.6477	943.5368	971.9803	1007.3523	1028.5331	1051.9328	1070.5437	1105.6439	1113.8745	1129.3388	1152.8202	1185.189	1222.3076	1237.7988	1260.7755	1268.2584	1280.2968	1305.116	1341.6473	1369.3701	1408.206	1414.7651	1482.4448	1497.5538	1500.194	1509.9982	1528.8819	3018.7872	3021.7671	3029.8912	3033.4078	3058.3548	3063.1719	3076.733	3101.1048	3104.206	3119.2403	3128.2088	3150.4014
CCC1C2CC1OC2	CC[C@H]1[C@H]2C[C@@H]1OC2	
InChI=1S/C7H12O/c1-2-6-5-3-7(6)8-4-5/h5-7H,2-4H2,1H3	InChI=1S/C7H12O/c1-2-6-5-3-7(6)8-4-5/h5-7H,2-4H2,1H3/t5-,6-,7-/m0/s1
