19
gdb 13796	4.07422	1.24168	1.13142	1.6316	74.38	-0.2264	-0.0236	0.2028	1150.0325	0.163367	-365.055954	-365.046851	-365.045907	-365.090018	32.538	
C	-0.2308637281	 1.630346423	-0.4492181469	-0.373582
C	-0.4394711061	 0.1200185088	-0.36900618	-0.130555
N	 0.5972157573	-0.5527685311	-1.1596667332	-0.080006
C	 1.8390505941	-0.901591001	-0.5162798939	-0.238041
C	 0.8945258044	-1.9845669373	-0.9558013769	-0.108836
C	 0.2137937548	-2.8072622766	 0.1008453889	 0.386114
C	-0.2109098562	-4.1981216947	-0.3310420348	-0.485972
O	 0.008931591	-2.3946674451	 1.2242516268	-0.320859
H	 0.7233844408	 1.9188624627	 0.0038819269	 0.117795
H	-0.2278754087	 1.9692400436	-1.4891378718	 0.123149
H	-1.0284993236	 2.1532346394	 0.0871230539	 0.114053
H	-0.4538512454	-0.2131319024	 0.6752067599	 0.129197
H	-1.4063390945	-0.1467401749	-0.8119728307	 0.098652
H	 2.7482703767	-0.7315793688	-1.0875714352	 0.117783
H	 1.918315311	-0.7619731551	 0.5608554403	 0.132966
H	 1.0957870351	-2.5117213465	-1.8856265108	 0.090001
H	 0.6516871794	-4.7607182778	-0.7068292403	 0.141172
H	-0.6603933798	-4.7274555234	 0.5094208862	 0.142299
H	-0.9291542221	-4.1345037429	-1.1569204584	 0.144671
57.7541	91.2119	143.979	165.6115	209.0241	248.6206	276.076	345.4063	398.5767	460.6858	594.0787	646.8382	729.6387	777.4329	815.8857	891.0104	942.9036	960.8196	1006.9228	1039.2301	1053.2684	1096.1607	1118.4536	1124.6667	1139.4905	1191.0814	1205.9193	1310.0374	1329.024	1376.1925	1386.0109	1398.9164	1410.3155	1462.5928	1474.0478	1486.7245	1489.0972	1500.1259	1519.8947	1787.1362	3028.5998	3032.9923	3038.7255	3068.4165	3091.771	3091.9028	3108.3591	3119.0271	3129.4101	3155.382	3184.3159
CCN1CC1C(C)=O	CCN1C[C@H]1C(=O)C	
InChI=1S/C6H11NO/c1-3-7-4-6(7)5(2)8/h6H,3-4H2,1-2H3	InChI=1S/C6H11NO/c1-3-7-4-6(7)5(2)8/h6H,3-4H2,1-2H3/t6-,7?/m0/s1
