14
gdb 73739	2.08189	1.82593	0.98469	6.816	71.95	-0.2901	-0.0793	0.2108	1118.4808	0.100842	-436.757489	-436.749399	-436.748455	-436.7905	28.674	
C	-0.0050041991	 1.4869462845	 0.07939432	-0.511189
C	 0.0143097003	 0.0035413924	-0.0177465544	 0.184997
C	-0.0294269296	-0.7824530658	-1.1077723729	-0.057111
C	-0.1065489605	-0.3732325909	-2.4630010382	 0.233098
N	-0.1694252307	-0.0201889337	-3.5633545533	-0.333698
C	 0.0157739962	-2.2160225696	-0.6902560592	 0.416233
O	-0.0024655833	-3.2066752888	-1.3541484674	-0.321861
O	 0.0871343906	-2.2274678078	 0.679911954	-0.229838
C	 0.091463801	-0.8979566685	 1.1830083775	-0.159005
H	 0.8964049237	 1.8520461132	 0.5859520191	 0.156265
H	-0.0639200567	 1.9501546527	-0.907124283	 0.169232
H	-0.8605156647	 1.8231618165	 0.6773082744	 0.156262
H	 1.0075211252	-0.7306391598	 1.7641923962	 0.148307
H	-0.7644434022	-0.7596941545	 1.8562380172	 0.148307
115.3179	129.3016	131.7448	206.179	230.4597	279.4227	430.9684	437.7997	523.2883	586.453	586.6401	658.4528	758.5377	785.5519	934.8721	949.5221	1029.2939	1067.2537	1081.7523	1105.2867	1195.7662	1207.1243	1326.3188	1376.5336	1415.2622	1474.6086	1477.4233	1486.534	1698.5164	1889.7313	2352.5209	3023.2536	3032.6084	3057.7055	3083.3629	3139.2427
CC1=C(C#N)C(=O)OC1	CC1=C(C#N)C(=O)OC1	
InChI=1S/C6H5NO2/c1-4-3-9-6(8)5(4)2-7/h3H2,1H3	InChI=1S/C6H5NO2/c1-4-3-9-6(8)5(4)2-7/h3H2,1H3
