20
gdb 57315	2.9456	1.02188	0.91222	0.9595	78.51	-0.272	-0.0218	0.2501	1382.7213	0.167623	-440.332104	-440.321557	-440.320613	-440.368027	37.562	
C	-0.0547906044	 1.5241912617	 0.0752925761	-0.402777
C	 0.0184922952	-0.0061645867	-0.0245191647	 0.113183
C	 0.8012276131	-0.587010457	 1.1741088671	-0.414128
C	-1.4022071175	-0.6117509596	-0.0645450897	-0.414132
C	 0.7467179251	-0.3765523289	-1.3124197251	 0.479503
O	 1.1949095352	 0.3855893044	-2.1245471355	-0.349399
O	 0.8338534518	-1.7475874053	-1.4406850851	-0.215619
C	 1.4614524523	-2.2589940212	-2.5473442602	 0.115264
N	 1.5363339761	-3.5100304793	-2.6557584673	-0.422456
H	 0.9433571455	 1.9692510514	 0.0907155052	 0.125556
H	-0.5943107953	 1.9519887788	-0.7735479871	 0.125543
H	-0.5748943496	 1.8091604628	 0.9949331639	 0.110644
H	 0.2902270356	-0.3218747301	 2.1049471563	 0.119866
H	 0.8699641482	-1.6751870735	 1.114982947	 0.14143
H	 1.8159911896	-0.1786486181	 1.2204829031	 0.122011
H	-1.9760406459	-0.2213122379	-0.9112625559	 0.122001
H	-1.3688555159	-1.7003325415	-0.1434438385	 0.141432
H	-1.936408657	-0.3467801718	 0.8532230314	 0.119865
H	 1.8303728015	-1.4857881083	-3.2213355574	 0.142978
H	 2.0225841364	-3.7514665099	-3.5181743735	 0.239233
41.512	100.2627	107.8862	153.7145	196.7372	233.6899	260.1672	279.8288	296.8827	325.7767	357.8819	372.6019	455.3242	556.6218	604.2709	767.4265	811.3505	853.0342	913.8854	941.4123	948.4602	970.2288	1010.1332	1048.4065	1056.5733	1073.2565	1139.3073	1226.7321	1246.2496	1270.277	1296.7948	1387.4609	1395.9554	1403.6722	1433.3666	1475.7291	1483.6665	1490.7823	1498.6139	1502.4541	1522.3278	1744.47	1833.3421	3037.9099	3039.259	3046.8774	3104.1443	3105.7895	3117.8205	3124.5521	3131.6346	3134.9876	3140.0435	3506.39
CC(C)(C)C(=O)OC=N	CC(C)(C)C(=O)O[CH][NH]	
InChI=1S/C6H11NO2/c1-6(2,3)5(8)9-4-7/h4,7H,1-3H3	InChI=1S/C6H11NO2/c1-6(2,3)5(8)9-4-7/h4,7H,1-3H3
