16
gdb 46125	3.19455	1.13091	0.91398	4.783	70.28	-0.2623	0.0316	0.2939	1240.4813	0.124773	-437.903881	-437.895615	-437.89467	-437.937408	30.435	
O	-0.1972998475	 0.0334290436	 0.2531620815	-0.384637
C	-0.1364045603	 1.2208746847	 0.1124636517	 0.473808
N	-1.1342684365	 2.0915262947	-0.2799921144	-0.357041
C	-0.7687564501	 3.4700389828	-0.0261835985	 0.000239
C	-1.3266099137	 4.013215642	 1.3126332842	-0.364334
C	-2.7806830355	 3.9454310042	 1.363411162	 0.275016
C	-3.9796265982	 3.8572619657	 1.3587624608	-0.422159
C	 0.767296327	 3.3195762331	-0.0236392628	-0.100154
O	 1.0069625489	 1.9514250036	 0.3173160524	-0.237523
H	-2.089656037	 1.7851114841	-0.1777922022	 0.267307
H	-1.1023776825	 4.1218948094	-0.8389585315	 0.107204
H	-0.8946960123	 3.434641585	 2.1393387963	 0.148882
H	-0.9922599897	 5.0506166537	 1.4406103748	 0.137118
H	-5.0398306628	 3.7948725634	 1.3789681631	 0.206208
H	 1.1893642796	 3.5229310669	-1.0136880054	 0.123755
H	 1.2608418007	 3.9563912432	 0.7144717679	 0.126312
61.8048	116.0032	129.0972	186.1131	315.7941	349.5688	393.9692	500.915	534.4112	555.6067	635.2278	659.5632	715.3394	761.2125	772.454	847.7599	921.9768	942.7707	963.0265	1013.503	1070.4222	1098.8725	1132.626	1204.474	1228.8264	1254.5733	1279.1866	1336.9933	1386.4964	1418.5932	1421.8094	1467.6316	1517.0811	1898.4842	2237.6048	3021.7798	3043.6487	3054.3748	3072.1656	3105.0494	3503.5463	3638.4526
O=C1NC(CC#C)CO1	O=C1N[C@@H](CC#C)CO1	
InChI=1S/C6H7NO2/c1-2-3-5-4-9-6(8)7-5/h1,5H,3-4H2,(H,7,8)	InChI=1S/C6H7NO2/c1-2-3-5-4-9-6(8)7-5/h1,5H,3-4H2,(H,7,8)/t5-/m0/s1
