17
gdb 53044	3.59735	0.92859	0.84472	2.0978	80.62	-0.2258	0.0145	0.2403	1422.5579	0.134051	-421.751371	-421.742306	-421.741362	-421.786789	32.584	
C	 0.0219626161	 1.4552210774	-0.0391580961	-0.510925
C	-0.013768905	 0.0021738109	-0.0040260996	 0.268549
C	-0.0397471057	-1.2031754568	 0.0199470254	-0.150425
C	-0.0678173743	-2.6193445802	 0.0679261152	 0.209382
O	 0.8208885425	-3.383913945	-0.782000725	-0.340639
C	-0.242486318	-4.3397883502	-1.0725795425	-0.108525
C	-1.1779425651	-3.6843538587	-0.0727138998	-0.233665
C	-0.4289935726	-3.5013791016	 1.2306267398	 0.075405
O	 0.4741956469	-4.4310349754	 1.7280715447	-0.433126
H	 0.8186609206	 1.8061473175	-0.7042833674	 0.157602
H	-0.9228794708	 1.8692959374	-0.408526992	 0.151894
H	 0.2085448494	 1.8772629909	 0.9544859238	 0.152365
H	-0.5623923006	-4.2410620673	-2.1142839561	 0.120353
H	 0.0642500381	-5.3709236801	-0.8666075615	 0.114878
H	-2.2471023804	-3.5578145714	-0.1769402028	 0.110807
H	-1.0038149523	-3.0198402616	 2.0156374775	 0.117025
H	 1.2317488711	-4.4146812958	 1.1259588664	 0.299045
18.377	88.2829	98.4098	226.8418	252.0838	270.1314	315.1963	413.7771	439.3362	460.8516	509.5875	557.3578	694.2899	793.5607	806.7201	859.667	959.4937	967.2415	983.4353	1013.4666	1027.1554	1050.3927	1054.0016	1090.4915	1103.786	1165.5869	1172.8713	1277.4314	1303.7457	1338.386	1377.7438	1412.0811	1464.4019	1473.0738	1477.5755	1515.4091	2359.0093	3026.5448	3038.7193	3087.1548	3090.818	3091.1258	3169.7386	3206.0035	3740.2457
CC#CC12OCC1C2O	CC#C[C@]12OC[C@H]1[C@H]2O	
InChI=1S/C7H8O2/c1-2-3-7-5(4-9-7)6(7)8/h5-6,8H,4H2,1H3	InChI=1S/C7H8O2/c1-2-3-7-5(4-9-7)6(7)8/h5-6,8H,4H2,1H3/t5-,6+,7-/m0/s1
