18
gdb 103251	3.86318	1.05804	1.03547	1.0949	73.17	-0.247	-0.03	0.217	1204.6009	0.146365	-439.050972	-439.042279	-439.041335	-439.084316	32.797	
C	-0.2031454235	 1.6204862103	-0.1893502049	-0.478724
C	-0.0828171962	 0.109825913	-0.1379735764	 0.282832
C	-1.2493526603	-0.5626931026	 0.5817581629	-0.105796
O	-1.25120943	-0.227539825	 1.9557202925	-0.417299
C	 0.551246336	-0.7242850436	-1.2081598926	-0.224776
N	 1.1570719235	-0.6119139293	 0.2020901733	-0.171088
C	 2.3245147674	 0.1534278829	-0.3607841305	-0.300646
C	 1.7574711457	-0.0326699344	-1.7817813523	 0.40721
O	 2.1896240632	 0.1122475106	-2.8876460959	-0.302688
H	 0.6456219196	 2.1190798325	-0.6580770459	 0.130669
H	-1.0962662923	 1.8909670936	-0.7614850492	 0.133872
H	-0.3282850962	 2.0082203173	 0.8256862374	 0.144225
H	-2.2017663932	-0.2104870344	 0.1728700274	 0.114386
H	-1.1923763789	-1.6502431374	 0.4329386393	 0.096637
H	-0.4127928174	-0.5483339029	 2.3093182358	 0.293785
H	 0.0917554608	-1.6289970983	-1.5933827314	 0.117926
H	 2.4713158937	 1.1587216514	 0.0386658106	 0.134025
H	 3.243824618	-0.4257116337	-0.2346387301	 0.145453
82.3104	115.0321	173.6886	183.1446	286.4491	313.2602	358.5697	414.2148	458.0027	484.6614	520.2749	597.6352	664.8371	674.7978	834.191	835.0417	898.3213	940.2294	973.6907	1000.3623	1017.3542	1036.8778	1079.0964	1091.8559	1110.5839	1136.1541	1193.4462	1211.7653	1251.52	1295.3478	1364.483	1399.3006	1419.3728	1428.2146	1461.9402	1489.1036	1497.7955	1507.1872	1893.4537	3003.8058	3051.0425	3068.6778	3083.4941	3112.8698	3125.746	3145.8394	3170.8279	3790.9898
CC1(CO)C2N1CC2=O	C[C@@]1(CO)[C@@H]2N1CC2=O	
InChI=1S/C6H9NO2/c1-6(3-8)5-4(9)2-7(5)6/h5,8H,2-3H2,1H3	InChI=1S/C6H9NO2/c1-6(3-8)5-4(9)2-7(5)6/h5,8H,2-3H2,1H3/t5-,6-,7?/m1/s1
