17
gdb 98124	4.57202	0.85467	0.73493	2.669	76.15	-0.2337	-0.0462	0.1875	1515.0433	0.13597	-451.354326	-451.344411	-451.343467	-451.390117	34.076	
C	-0.169457504	 1.467716752	-0.090648884	-0.310516
N	-0.1786247235	 0.0260742387	-0.2101524183	-0.282669
C	 0.6574156887	-0.6240308265	-1.0526071897	 0.251391
N	 1.4007622006	-0.0022152491	-1.8974365216	-0.548893
C	 0.5685642793	-2.1411785059	-0.8330931463	 0.394627
O	 0.1872974708	-2.6014018287	 0.2179103655	-0.330916
N	 0.9360995525	-2.8764342616	-1.9448824104	-0.340368
C	 1.0226235496	-4.2620884581	-2.0894562201	 0.086028
N	 0.9048535944	-5.083214317	-1.1342342459	-0.391714
H	 0.8040157236	 1.8428458095	 0.2497363788	 0.13471
H	-0.3762891298	 1.926729323	-1.0616155438	 0.147421
H	-0.941619613	 1.7698701522	 0.6192020349	 0.124352
H	-0.5634336701	-0.543687258	 0.5276975531	 0.266784
H	 2.0044088491	-0.6393132725	-2.4108752305	 0.207001
H	 1.069625179	-2.3387287164	-2.7871778152	 0.25684
H	 1.2143715641	-4.5218568203	-3.138140398	 0.101515
H	 1.0085014086	-6.0345890614	-1.4841149386	 0.234407
55.4795	74.4737	98.14	137.9283	148.8778	190.371	242.7026	294.1413	351.7492	444.3373	511.8863	563.1329	575.1761	622.1301	776.7081	808.1283	819.108	832.1319	938.2794	979.0675	1065.9397	1075.3976	1156.1663	1174.5159	1192.5592	1210.0069	1254.1226	1323.1041	1431.5345	1454.2572	1474.6051	1510.3387	1531.1467	1568.703	1696.3785	1734.1665	1810.5521	3024.182	3037.1924	3089.2844	3136.4051	3499.6038	3512.2409	3628.0023	3629.6268
CNC(=N)C(=O)NC=N	CNC(=N)C(=O)NC=N	
InChI=1S/C4H8N4O/c1-7-3(6)4(9)8-2-5/h2H,1H3,(H2,6,7)(H2,5,8,9)	InChI=1S/C4H8N4O/c1-7-3(6)4(9)8-2-5/h2H,1H3,(H2,6,7)(H2,5,8,9)
