21
gdb 40050	3.07897	1.54081	1.44264	1.5699	81.26	-0.234	0.0897	0.3237	1021.5351	0.185731	-387.090269	-387.083067	-387.082123	-387.121667	30.149	
C	 0.0139902894	 1.5100202211	-0.0060829488	-0.324892
C	 1.318893788	 0.7470687234	-0.0247440076	-0.33614
C	 0.0066773403	 0.0106523122	 0.0150219671	 0.425697
C	-0.4508903064	-0.8260021291	 1.2311888876	-0.313038
C	-1.1927023292	-2.0000798958	 0.5436406504	-0.045071
C	-2.4451824405	-1.4265977956	-0.1431494809	-0.068974
O	-1.926429107	-0.6662771451	-1.2511518472	-0.27809
C	-0.4966342622	-0.7947979738	-1.1803773223	 0.024477
C	-0.3061242523	-2.24032028	-0.699912257	-0.235948
H	-0.25656282	 2.0343770983	 0.9049982714	 0.107758
H	-0.3046150812	 2.0082885678	-0.9159501298	 0.11653
H	 1.892773632	 0.7348419322	-0.9465021701	 0.108599
H	 1.9262565551	 0.7489242659	 0.8752295785	 0.106793
H	 0.4012774484	-1.1909970811	 1.8150323193	 0.096052
H	-1.1046629867	-0.2669299626	 1.9086219558	 0.098769
H	-1.3920556707	-2.8576581386	 1.1873722165	 0.065607
H	-3.1106919217	-2.2132085564	-0.5230752987	 0.093081
H	-3.0260978514	-0.7712297147	 0.5180354081	 0.094703
H	-0.0818182637	-0.509541902	-2.1482941494	 0.065003
H	 0.7298746841	-2.4868093085	-0.4541690473	 0.099862
H	-0.7114196444	-2.9762829876	-1.3987322255	 0.09922
97.5003	226.632	267.6551	305.7648	395.5078	441.0167	481.1276	520.8072	664.2807	774.7467	792.8212	820.7018	845.4682	875.3915	898.5601	915.359	939.6502	952.1268	959.2589	967.0022	975.9148	979.7147	1009.1846	1052.2199	1075.2744	1081.5646	1093.9623	1130.6924	1159.3907	1185.3906	1190.1779	1230.6276	1251.3966	1266.4255	1290.3185	1296.584	1314.3035	1330.2438	1381.5209	1391.2619	1467.8583	1483.7982	1497.2109	1505.4541	1528.4048	3005.5633	3034.2571	3043.1183	3064.0464	3077.045	3107.2503	3111.739	3118.008	3120.976	3125.7191	3196.0863	3212.6128
C1CC11CC2COC1C2	C1CC21C[C@H]1CO[C@@H]2C1	
InChI=1S/C8H12O/c1-2-8(1)4-6-3-7(8)9-5-6/h6-7H,1-5H2	InChI=1S/C8H12O/c1-2-8(1)4-6-3-7(8)9-5-6/h6-7H,1-5H2/t6-,7+/m0/s1
