15
gdb 132526	3.16114	1.35284	0.95294	1.8079	71.6	-0.2292	-0.0187	0.2105	1144.8766	0.113031	-461.997473	-461.989815	-461.988871	-462.02973	29.035	
C	-0.028654102	 1.5456946631	-0.0143753913	-0.491046
C	-0.0005437371	 0.0424545543	-0.0377626339	 0.17656
C	-0.0876280804	-0.7118188562	-1.2023104967	-0.130704
C	-0.0564526172	-2.1056369039	-1.1665538717	-0.289505
C	 0.065038012	-2.6859032796	 0.084355386	 0.332003
F	 0.1012749622	-4.0117894081	 0.1872271859	-0.073434
N	 0.1514849518	-2.0216124308	 1.2196593275	-0.419226
C	 0.118652516	-0.6949069437	 1.1515610206	 0.38129
O	 0.2078598829	-0.0181526584	 2.3158717861	-0.411009
H	 0.8828460123	 1.9546616361	 0.4347683702	 0.139891
H	-0.1235354373	 1.9497095088	-1.0254781666	 0.120065
H	-0.865957976	 1.9196735635	 0.5847341301	 0.139853
H	-0.1815856666	-0.2022325481	-2.1565391856	 0.109893
H	-0.1222170279	-2.716352508	-2.0567198025	 0.113305
H	 0.2826647173	-0.684524139	 3.0127058518	 0.302065
109.0135	132.7062	242.9405	277.2924	335.8841	349.9598	465.2067	481.1975	543.7877	547.7562	585.5959	694.6398	748.0561	776.0988	783.0367	826.9985	963.0136	994.0037	1025.592	1068.331	1114.8017	1201.5355	1243.9276	1291.3016	1357.6407	1363.5009	1416.2995	1458.8538	1477.337	1498.7701	1522.5935	1646.2286	1653.43	3034.8583	3087.9617	3117.9886	3178.3145	3225.8228	3772.7175
CC1=CC=C(F)N=C1O	Cc1ccc(F)nc1O	
InChI=1S/C6H6FNO/c1-4-2-3-5(7)8-6(4)9/h2-3H,1H3,(H,8,9)	InChI=1S/C6H6FNO/c1-4-2-3-5(7)8-6(4)9/h2-3H,1H3,(H,8,9)
