17
gdb 17863	4.32108	1.79239	1.55708	1.6252	69.12	-0.2351	0.0807	0.3158	863.0489	0.141602	-363.745546	-363.738514	-363.73757	-363.776501	27.412	
C	-0.1276737427	 1.4780263196	-0.0728527719	-0.318482
N	 0.0179007745	 0.0290368574	 0.0062712444	-0.158455
C	 1.3858690687	-0.5101555168	-0.1923299762	-0.35539
C	 0.7322913718	-0.5149752137	 1.1212242216	 0.460921
C	 1.1302843417	 0.0100783384	 2.5172945526	-0.049576
C	-0.2508688691	-0.4566950708	 3.0483010248	-0.225031
C	 0.3418482994	-1.5793332723	 2.1598695212	-0.04769
O	 1.6586852571	-1.3440358442	 2.8059653731	-0.307619
H	 0.7394846581	 2.0296893534	 0.3260087175	 0.101079
H	-0.2667472723	 1.7687296329	-1.1184767135	 0.127657
H	-1.017525945	 1.7860776595	 0.4855777897	 0.124486
H	 1.4534124513	-1.410918028	-0.7960121091	 0.122476
H	 2.1916395983	 0.2066143757	-0.3479833622	 0.112246
H	 1.7406828346	 0.8621347585	 2.8150087716	 0.098439
H	-0.2721472727	-0.6845200324	 4.1147774556	 0.108144
H	-1.1465211513	 0.0599174684	 2.6944957791	 0.106046
H	 0.0181841276	-2.6105095857	 2.0255527918	 0.100751
155.1775	170.3414	205.1996	257.4015	395.0149	423.9104	482.4734	593.1417	654.9886	741.6615	806.5713	840.1857	863.8497	873.6299	915.8389	974.0542	1012.0152	1026.8123	1058.2301	1093.0794	1103.0341	1129.5565	1131.629	1167.8497	1171.7754	1179.6536	1208.5692	1220.007	1242.671	1264.6172	1446.4169	1453.9697	1479.8631	1494.207	1497.0996	1533.9855	2967.8829	3064.996	3069.1222	3091.0297	3104.9623	3124.5778	3134.9492	3149.9969	3180.2503
CN1CC11C2CC1O2	CN1C[C@]21[C@H]1C[C@@H]2O1	
InChI=1S/C6H9NO/c1-7-3-6(7)4-2-5(6)8-4/h4-5H,2-3H2,1H3	InChI=1S/C6H9NO/c1-7-3-6(7)4-2-5(6)8-4/h4-5H,2-3H2,1H3/t4-,5+,6+,7?
