20
gdb 57888	2.54487	1.28156	1.10679	1.9402	77.03	-0.2369	0.0234	0.2604	1220.945	0.168045	-440.290595	-440.280059	-440.279115	-440.327241	36.668	
C	 0.6741285171	 1.3161119935	-1.7165496564	-0.34424
N	 0.3636305728	 0.0255339463	-1.1222619019	-0.091355
C	 0.8671451016	-0.1762973133	 0.2250249817	-0.340989
C	-0.4082279826	-0.8503169561	-1.8295115254	 0.340758
O	-0.8847985548	-0.5891551351	-2.924731027	-0.392881
C	-0.7325438327	-2.210739275	-1.2170858594	 0.302636
C	-2.0787156999	-2.2791367609	-0.5303161112	-0.464209
C	-0.1679121482	-3.3898683232	-1.8810567362	-0.205427
O	 0.3321641728	-2.9571465178	-0.6080701867	-0.284236
H	 1.7600592142	 1.4659914409	-1.7516680126	 0.122297
H	 0.2640584486	 1.339675382	-2.724579197	 0.169557
H	 0.2356863096	 2.1302558812	-1.1254097215	 0.121467
H	 0.4787220726	 0.6044017552	 0.8925520561	 0.118478
H	 0.5853406495	-1.1503464176	 0.6127562404	 0.174035
H	 1.9626140178	-0.1115839175	 0.2365613415	 0.126895
H	-2.8648131392	-1.9674664074	-1.2239351928	 0.149845
H	-2.2799714537	-3.298976985	-0.1929508499	 0.128252
H	-2.1107997778	-1.6158644361	 0.3406816057	 0.125424
H	-0.7223816429	-4.3269730302	-1.8678597835	 0.115115
H	 0.5121504752	-3.2603483739	-2.7202349539	 0.12858
23.1323	81.0807	90.3532	141.9735	192.2258	211.6065	235.8185	276.986	305.988	329.0183	368.4288	406.6757	520.3309	548.55	688.903	756.691	812.8621	877.1475	926.9002	968.0655	1022.5659	1082.8778	1103.7157	1129.8756	1131.8685	1139.5408	1166.2927	1181.1996	1258.0549	1292.2509	1383.7203	1404.5044	1430.3526	1443.3399	1475.1899	1479.2369	1485.5357	1497.5587	1499.864	1505.5893	1531.9017	1547.7371	1739.8276	3009.8423	3018.0557	3039.6043	3053.515	3064.7375	3090.4902	3108.2137	3130.0324	3171.0789	3181.6174	3200.9216
CN(C)C(=O)C1(C)CO1	CN(C)C(=O)[C@@]1(C)CO1	
InChI=1S/C6H11NO2/c1-6(4-9-6)5(8)7(2)3/h4H2,1-3H3	InChI=1S/C6H11NO2/c1-6(4-9-6)5(8)7(2)3/h4H2,1-3H3/t6-/m1/s1
