14
gdb 25842	4.0591	1.32668	1.00156	3.0747	71.69	-0.2451	-0.0719	0.1732	1098.4396	0.104101	-429.099329	-429.091992	-429.091048	-429.131522	27.271	
N	-0.0968478475	 1.3000255201	 0.2285272909	-0.547044
C	 0.0686836609	-0.0541966108	 0.0778845071	 0.267311
N	 1.1566302659	-0.717628018	-0.0244053988	-0.48455
C	-1.2353642824	-0.8086178171	 0.0702985044	 0.387799
N	-2.3561748966	-0.0742896876	 0.0444233409	-0.300753
C	-3.4894660477	-0.7735059585	 0.0271177005	 0.08276
N	-3.5842286949	-2.1004944844	 0.0345723232	-0.23846
C	-2.4011441552	-2.7231498931	 0.0627355803	 0.078868
N	-1.2061499575	-2.1428379343	 0.0815535258	-0.245206
H	 0.6784727098	 1.9028111735	 0.0101485591	 0.250393
H	-1.0267759786	 1.6636907726	 0.0872322667	 0.267511
H	 1.9655861821	-0.0921394116	-0.0125073701	 0.206055
H	-4.418304068	-0.2076124514	 0.0040667977	 0.136309
H	-2.4191515904	-3.8107674893	 0.0726087624	 0.139007
66.0928	140.1294	237.5326	346.537	365.6334	397.194	452.8482	495.3768	525.25	610.2434	684.5385	706.7334	803.003	856.8887	898.0888	986.9517	1012.0507	1047.1295	1095.8289	1130.4919	1179.9434	1202.1086	1265.8733	1284.8469	1420.6854	1425.0929	1480.4133	1574.043	1604.3376	1612.4544	1715.2536	3163.0503	3167.5932	3446.5262	3582.3675	3711.8249
NC(=N)C1=NC=NC=N1	NC(=N)c1ncncn1	
InChI=1S/C4H5N5/c5-3(6)4-8-1-7-2-9-4/h1-2H,(H3,5,6)	InChI=1S/C4H5N5/c5-3(6)4-8-1-7-2-9-4/h1-2H,(H3,5,6)
