20
gdb 35248	2.9661	1.04613	0.86814	1.5707	86.1	-0.2427	0.0381	0.2808	1386.7162	0.170791	-365.938457	-365.929568	-365.928624	-365.972709	33.728	
C	-0.2395854536	-1.2551439481	 0.3069092877	-0.446502
C	-0.1330348303	-0.0613308054	 0.2096216225	 0.384218
C	-0.0298538482	 1.3637429565	 0.0535518407	-0.252162
N	 0.5907604639	 2.1349891457	 1.1589034756	-0.333755
C	 1.2833075243	 2.067586214	-0.1328993722	-0.040023
C	 2.5956784517	 1.3422326109	-0.1748375228	 0.066775
C	 3.1951277506	 0.9695685347	-1.5615140443	-0.23445
C	 4.5987567613	 1.3373436454	-1.0092442932	-0.209688
C	 3.9001843189	 2.139222591	 0.1222463741	-0.233046
H	-0.3308305022	-2.3083831678	 0.4054686947	 0.196896
H	-0.8826424989	 1.818510788	-0.446802833	 0.10757
H	 0.1042109624	 3.0219402704	 1.26214925	 0.235035
H	 1.2357241289	 2.9528263486	-0.769171619	 0.080423
H	 2.535810607	 0.4597285361	 0.4670111988	 0.089009
H	 3.0302055666	-0.0464926544	-1.9266884128	 0.102796
H	 2.8717116125	 1.6731832513	-2.3364691258	 0.093604
H	 5.1215586727	 0.4596719881	-0.6184987206	 0.103893
H	 5.2791884275	 1.8786436095	-1.6705905755	 0.094524
H	 3.7908570362	 3.1965286132	-0.1432036142	 0.092327
H	 4.3110688586	 2.0768636424	 1.1322060491	 0.102557
51.6134	90.8163	134.3133	168.518	235.7678	303.9714	359.6042	429.7743	548.2608	585.7191	609.0102	650.7841	657.6916	757.3616	786.0309	817.9113	860.1276	899.262	925.1971	934.4988	956.0806	975.1343	978.6225	1043.3326	1059.2327	1100.3279	1143.2625	1198.112	1203.034	1220.3206	1236.5476	1255.3744	1258.4466	1268.0314	1283.5319	1286.2102	1334.0588	1407.0767	1465.8915	1479.8434	1486.4557	1510.6115	2238.9423	3043.4307	3046.8126	3058.4194	3077.1848	3092.6982	3101.3288	3106.0643	3119.5464	3123.1792	3501.1229	3504.2387
C#CC1NC1C1CCC1	C#C[C@H]1N[C@H]1C1CCC1	
InChI=1S/C8H11N/c1-2-7-8(9-7)6-4-3-5-6/h1,6-9H,3-5H2	InChI=1S/C8H11N/c1-2-7-8(9-7)6-4-3-5-6/h1,6-9H,3-5H2/t7-,8+/m1/s1
