19
gdb 114095	2.96222	1.28605	1.077	2.7899	71.13	-0.2504	0.0506	0.301	1175.4001	0.15821	-460.118847	-460.110139	-460.109195	-460.152323	32.691	
C	-0.1293027402	 1.498797894	-0.1198327802	-0.483562
C	 0.1569132311	 0.0319402424	 0.0390143298	 0.40662
C	-0.9788539727	-1.0093398427	 0.0552171405	-0.119689
O	-0.3739276658	-1.7032550995	 1.177694793	-0.290382
C	 0.6882821695	-0.7376025419	 1.2729652299	-0.02112
C	 1.9109771791	-1.063288525	 0.3979202887	 0.097653
C	 2.2655977958	-2.5054655165	 0.0883488168	-0.084093
O	 3.0974142636	-2.5693982918	-1.0571980886	-0.424241
O	 1.2842443997	-0.4178317836	-0.7562676483	-0.367973
H	 0.7624320561	 2.0939956864	 0.0949998533	 0.132247
H	-0.4354296467	 1.7112936136	-1.1503915659	 0.135629
H	-0.9354118372	 1.8152782797	 0.5488373095	 0.126032
H	-1.96881404	-0.618463959	 0.3224922322	 0.104074
H	-1.0493270313	-1.6318114503	-0.8427902189	 0.111797
H	 0.8327408844	-0.3588792422	 2.2863454001	 0.087615
H	 2.8078781334	-0.4992281032	 0.687127645	 0.084482
H	 2.8303354086	-2.9405168939	 0.9202553364	 0.109335
H	 1.344544359	-3.0894579916	-0.0385753159	 0.103572
H	 2.6330542036	-2.0835962951	-1.7494823572	 0.292005
83.7926	115.8717	159.0315	198.2552	239.7447	288.7922	350.1909	405.4447	436.5985	495.1313	520.7364	657.1546	720.7032	819.4303	856.9596	879.8351	918.597	948.5641	963.9138	1003.8911	1031.5323	1063.9545	1078.9855	1108.4822	1144.5035	1161.3733	1190.0266	1199.1037	1222.7151	1274.6014	1291.2032	1313.0126	1340.1837	1378.0654	1395.1451	1413.0002	1433.0946	1480.606	1489.2933	1502.738	1505.3804	3015.2523	3017.8112	3023.3086	3036.8384	3077.5608	3081.8557	3097.8177	3104.8748	3120.8658	3790.5538
CC12COC1C(CO)O2	C[C@]12CO[C@H]1[C@@H](CO)O2	
InChI=1S/C6H10O3/c1-6-3-8-5(6)4(2-7)9-6/h4-5,7H,2-3H2,1H3	InChI=1S/C6H10O3/c1-6-3-8-5(6)4(2-7)9-6/h4-5,7H,2-3H2,1H3/t4-,5+,6+/m1/s1
