18
gdb 66625	2.70774	1.97485	1.49876	2.0346	74.88	-0.2087	0.062	0.2707	934.206	0.147491	-401.865683	-401.858114	-401.85717	-401.897197	30.31	
C	 0.0532458692	 1.5186681604	 0.0612090096	-0.527584
C	-0.0674284647	 0.0410935332	-0.0896982732	 0.305522
C	 0.6978013503	-0.9951572624	-0.8284730413	-0.09628
C	-0.5055523502	-1.9171680941	-1.0949299709	-0.154881
C	-0.4347334552	-3.0157978775	-0.0048355121	-0.25234
C	-0.4840539421	-1.8329106497	 0.9754351642	-0.065813
N	 0.7334049924	-0.9633539445	 0.6820163411	-0.188189
C	-1.2572700406	-0.9515993264	-0.0697210925	 0.340566
O	-2.575842527	-0.5642471141	-0.0987954037	-0.476402
H	 1.1086785893	 1.804823971	 0.1059072106	 0.132064
H	-0.4114231836	 2.0407662423	-0.7818560551	 0.126517
H	-0.4317463708	 1.8626986749	 0.9811319303	 0.12922
H	 1.6440549109	-0.9304587418	-1.3532032357	 0.092
H	-0.8287563712	-2.0916700518	-2.1197501547	 0.073733
H	-1.3519950317	-3.6130560793	 0.0373490032	 0.091877
H	 0.4387657667	-3.6722927503	 0.0213024702	 0.107041
H	-0.6956981047	-1.9257466845	 2.0399569471	 0.075579
H	-3.136969077	-1.3466495152	-0.1476563271	 0.28737
175.0435	192.2352	207.3203	217.159	293.9215	355.0494	476.8546	566.7942	580.4803	622.5328	699.8018	766.7382	800.6228	832.3321	866.5024	898.2553	915.2738	939.5078	970.5801	976.3107	1002.3299	1050.4317	1055.5843	1079.9924	1094.4963	1123.344	1161.1318	1205.9577	1219.5681	1225.0211	1261.8303	1269.1147	1313.3656	1376.5776	1408.3021	1467.743	1479.1858	1480.446	1491.5748	3031.4119	3046.9286	3095.8456	3108.3418	3109.2504	3124.5122	3134.4875	3174.4187	3796.3748
CC12C3C4CC(N13)C24O	C[C@@]12[C@@H]3[C@H]4C[C@@H](N13)[C@@]24O	
InChI=1S/C7H9NO/c1-6-5-3-2-4(8(5)6)7(3,6)9/h3-5,9H,2H2,1H3	InChI=1S/C7H9NO/c1-6-5-3-2-4(8(5)6)7(3,6)9/h3-5,9H,2H2,1H3/t3-,4-,5+,6+,7-,8?/m1/s1
