22
gdb 78358	2.60712	1.35892	1.08595	1.4172	87.07	-0.2202	0.0877	0.3078	1238.4512	0.1935	-367.160676	-367.151615	-367.15067	-367.193879	35.386	
C	 0.36349026	 1.6166653506	 0.4669179777	-0.415975
C	 0.2387015802	 0.1412619576	 0.1757086589	 0.018103
C	 0.9734932037	-0.4609262621	-0.9561639771	-0.136645
N	 1.4581010456	-0.6387341999	 0.4787183713	-0.162439
C	 1.1217478145	-2.1132540312	 0.3667460527	-0.018983
C	 0.204392876	-2.6954786495	 1.4278534002	-0.407452
C	 0.6436900086	-1.9271261067	-1.0852138575	 0.366718
C	-0.5042282072	-2.564360986	-1.815520571	-0.327313
C	 0.9222423696	-2.8235194263	-2.2496477694	-0.342963
H	 1.3562899064	 1.9808834264	 0.1884080256	 0.12651
H	-0.3864654335	 2.1888301899	-0.0897799866	 0.11337
H	 0.2213595215	 1.8148203563	 1.5343024613	 0.122002
H	-0.725366233	-0.2953214081	 0.4315641321	 0.080522
H	 1.5371141997	 0.1281448738	-1.6748203738	 0.089145
H	 2.0784956366	-2.646241819	 0.3857766074	 0.084702
H	-0.7858701179	-2.2316406524	 1.4267629877	 0.118537
H	 0.066542947	-3.7699918166	 1.2638676653	 0.115969
H	 0.6451348643	-2.5622484247	 2.4213135054	 0.126807
H	-1.0391626551	-3.3686863324	-1.3202507165	 0.112212
H	-1.1273179226	-1.9356036985	-2.4437517865	 0.112122
H	 1.2644683101	-2.369299039	-3.1744514126	 0.113368
H	 1.3498181753	-3.8020643023	-2.0519797947	 0.111684
121.2047	179.6693	186.6118	193.6604	207.4599	228.0511	284.1532	364.6938	401.7368	460.84	549.8439	582.0534	721.295	760.5046	781.0896	811.4254	889.1963	902.4423	919.4858	934.4891	965.2	986.665	1031.1723	1045.9038	1054.6187	1076.813	1098.5512	1103.9191	1127.3631	1149.1825	1162.7591	1187.3495	1214.4707	1253.7615	1281.1693	1297.4531	1367.0494	1398.8235	1406.1762	1413.6904	1438.7486	1464.1271	1489.2371	1490.1358	1493.4704	1497.7513	1507.4105	3034.255	3034.8477	3042.3725	3098.6224	3099.6485	3107.9548	3114.5729	3118.4589	3123.3605	3127.7519	3144.409	3196.0836	3211.5934
CC1C2N1C(C)C21CC1	C[C@H]1[C@H]2N1[C@@H](C)C12CC1	
InChI=1S/C8H13N/c1-5-7-8(3-4-8)6(2)9(5)7/h5-7H,3-4H2,1-2H3	InChI=1S/C8H13N/c1-5-7-8(3-4-8)6(2)9(5)7/h5-7H,3-4H2,1-2H3/t5-,6-,7+,9?/m0/s1
