17
gdb 90285	3.56926	1.31356	1.15523	4.6337	76.14	-0.2254	-0.0144	0.211	1081.3515	0.138154	-418.018599	-418.011059	-418.010114	-418.050506	29.617	
C	-0.2249099913	 1.4073358235	-0.2897360228	-0.392934
C	-0.0773644707	-0.0800956797	-0.0313860968	-0.003796
N	 1.1517674649	-0.7153251735	-0.6586750289	-0.375518
C	 1.8172990249	-0.5622837202	 0.5517330882	 0.346527
C	 2.8935253663	-0.073591044	 1.1848679097	-0.392267
C	 2.3915479125	 0.4574923693	 2.4865140856	 0.409799
O	 3.0101041837	 0.9377475382	 3.4067545229	-0.372272
N	 0.9651143791	 0.3998820457	 2.435667166	-0.357183
C	 0.5703140359	-0.4726422713	 1.3674387158	-0.050015
H	 0.6739138795	 1.9510372341	 0.0146917497	 0.141021
H	-0.4160760263	 1.6052098809	-1.3496082734	 0.119373
H	-1.0684977332	 1.8042950191	 0.2836494504	 0.132031
H	-0.9892448366	-0.6287223504	-0.2829359416	 0.08762
H	 1.5517580303	-0.3240463202	-1.5040244821	 0.242451
H	 3.8897747486	 0.1295371783	 0.824200961	 0.113592
H	 0.498043084	 0.3659331306	 3.3304300656	 0.241701
H	 0.1690196482	-1.4315795403	 1.7099490206	 0.109872
106.2717	175.8743	219.2151	237.1874	380.4185	412.2264	453.0759	537.6575	577.2586	604.4144	681.4811	738.0858	763.302	806.6553	815.5852	832.5476	863.8369	896.0049	944.3815	1030.2785	1065.6345	1105.9915	1123.5635	1146.4715	1179.8964	1219.6931	1229.6504	1312.7727	1330.0817	1353.9098	1378.8295	1406.3087	1413.4871	1486.2369	1492.0208	1695.8143	1826.3036	3037.7308	3053.6296	3069.085	3105.8489	3121.5436	3255.516	3548.1691	3608.6837
CC1NC2=CC(=O)NC12	C[C@H]1N[C]2[CH]C(=O)N[C@@H]12	
InChI=1S/C6H8N2O/c1-3-6-4(7-3)2-5(9)8-6/h2-3,6-7H,1H3,(H,8,9)	InChI=1S/C6H8N2O/c1-3-6-4(7-3)2-5(9)8-6/h2-3,6-7H,1H3,(H,8,9)/t3-,6+/m1/s1
