25
gdb 116006	1.75974	1.42484	0.86454	0.212	95.63	-0.2229	0.0316	0.2545	1471.1327	0.22941	-352.385205	-352.375071	-352.374127	-352.420289	38.164	
C	 0.0034934884	 1.6502186897	-0.0044308435	-0.383843
C	-0.0110622784	 0.1178419194	 0.0091419617	-0.187539
C	 0.704751905	-0.5077511058	-1.1980432184	-0.05369
C	 2.2241100785	-0.1987076887	-1.2572396323	-0.214852
C	 2.8819749331	-1.4418251585	-1.9021062341	-0.259154
C	 1.8475215051	-2.5157104215	-1.6810644396	-0.171249
C	 0.6659058538	-2.031619333	-1.2898101539	 0.323476
C	-0.5800521634	-2.8427798629	-1.0483982312	-0.293273
C	-0.775150858	-3.2715029392	 0.4185093457	-0.368774
H	 1.024728997	 2.0430840806	 0.0308014581	 0.118648
H	-0.4690171265	 2.0402916454	-0.913320791	 0.111923
H	-0.5383880134	 2.0590019363	 0.8541432882	 0.109431
H	 0.4579082198	-0.2465376113	 0.9328954052	 0.094336
H	-1.0523485708	-0.2266965006	 0.0339774637	 0.094116
H	 0.2118007917	-0.1097094271	-2.1020470955	 0.068769
H	 2.4514713212	 0.7281788158	-1.7899268725	 0.093419
H	 2.5981074303	-0.082349372	-0.2327523047	 0.097341
H	 3.0639821707	-1.2946848906	-2.9769712333	 0.100408
H	 3.8567421601	-1.6791980813	-1.4599492138	 0.097361
H	 2.0439320401	-3.5650369299	-1.8809212803	 0.078275
H	-1.4604151785	-2.2743852684	-1.3763313221	 0.096669
H	-0.5469923892	-3.7436750847	-1.6719237913	 0.101028
H	 0.0717133482	-3.8761430196	 0.7572335413	 0.118292
H	-0.8552948248	-2.4096938545	 1.0864376908	 0.120699
H	-1.6862396598	-3.8687067873	 0.5292316629	 0.108182
90.9459	92.8653	116.4056	149.7802	198.3591	222.2118	239.6519	290.9746	313.7846	384.9355	436.3402	550.176	582.6949	681.3116	771.4277	786.5642	816.2583	839.0309	874.0873	920.1992	933.473	957.0988	978.6036	996.5637	1026.1044	1063.4171	1076.3842	1090.4593	1112.9048	1136.1967	1172.6431	1205.5216	1237.3846	1263.3251	1281.4548	1292.792	1318.5053	1322.6766	1349.6353	1355.2425	1363.0003	1380.3244	1407.3911	1411.0714	1481.8286	1486.4614	1488.4522	1498.3142	1499.2168	1502.225	1507.3788	1510.5219	1709.8528	2946.8905	2997.0804	3013.7717	3017.7996	3029.9898	3031.015	3038.5818	3049.2966	3050.2357	3056.9739	3093.5085	3096.3498	3104.2438	3105.9086	3120.8092	3172.2785
CCC1CCC=C1CC	CC[C@H]1CCC=C1CC	
InChI=1S/C9H16/c1-3-8-6-5-7-9(8)4-2/h6,9H,3-5,7H2,1-2H3	InChI=1S/C9H16/c1-3-8-6-5-7-9(8)4-2/h6,9H,3-5,7H2,1-2H3/t9-/m0/s1
