19
gdb 82525	2.32144	1.60511	1.35884	1.7997	75.36	-0.2387	0.0705	0.3092	1051.228	0.157642	-422.971703	-422.962985	-422.962041	-423.00466	33.469	
C	-0.0655338735	 1.5051892439	-0.0604303443	-0.497939
C	 0.0301561823	 0.0082237134	 0.0000400785	 0.174295
C	-0.8110118874	-0.8740675456	 0.8875115231	 0.054636
O	-1.5143212856	-1.9943696927	 0.4258276737	-0.421485
C	 0.668570316	-0.9553131203	 1.0467029513	-0.150204
C	 1.2819578899	-1.8067524377	-0.0785504317	-0.321188
C	 0.6360526841	-0.8548062353	-1.0941909225	 0.429971
C	 0.2308812366	-1.0396339739	-2.4870327758	-0.274928
O	 1.3954811516	-0.2684825665	-2.1385024999	-0.282798
H	 0.8755823092	 1.9430266363	-0.4067552351	 0.13733
H	-0.8527916361	 1.8284502484	-0.7527681691	 0.117395
H	-0.2983467936	 1.9248315105	 0.9232747687	 0.118074
H	-1.3162761438	-0.3277677422	 1.6864825235	 0.086475
H	-2.2511160744	-1.6844876605	-0.1108723747	 0.286001
H	 1.1590081698	-0.7179361737	 1.9832525716	 0.090693
H	 2.370522973	-1.7272209081	-0.1224788595	 0.117274
H	 0.9804571202	-2.8559326835	-0.1103087014	 0.115345
H	 0.4341793778	-1.9842277897	-2.9898033527	 0.115632
H	-0.5983610861	-0.4651329528	-2.8994863336	 0.105422
96.469	160.7109	205.8344	215.3591	225.0245	283.2186	312.892	377.9062	409.5769	524.1786	546.0382	613.6805	654.9012	766.004	829.1309	848.0991	875.3611	901.4527	949.4091	972.7074	1008.8566	1026.6089	1076.6545	1108.0058	1120.5044	1128.1989	1148.7211	1165.227	1172.9187	1247.1547	1255.3882	1273.9548	1315.6919	1344.1682	1413.2201	1433.0467	1456.5378	1481.5459	1488.0505	1498.6881	1537.2455	3024.2966	3068.4369	3076.8472	3083.0935	3086.6207	3108.5645	3125.843	3162.4399	3182.262	3810.0548
CC12C(O)C1CC21CO1	C[C@]12[C@@H](O)[C@H]1C[C@]12CO1	
InChI=1S/C7H10O2/c1-6-4(5(6)8)2-7(6)3-9-7/h4-5,8H,2-3H2,1H3	InChI=1S/C7H10O2/c1-6-4(5(6)8)2-7(6)3-9-7/h4-5,8H,2-3H2,1H3/t4-,5+,6-,7-/m1/s1
