14
gdb 42548	4.6368	1.22433	1.12167	2.7462	74.13	-0.2552	-0.0283	0.2269	1052.7387	0.100306	-399.468451	-399.461329	-399.460385	-399.499969	27.693	
O	 0.0381938894	 0.0682981276	 0.021875187	-0.323084
C	 0.0037119713	 1.2612781562	-0.0457152546	 0.482553
C	-1.0723246131	 2.3021362798	-0.0288530279	-0.233882
N	-0.1404933096	 3.2508167474	 0.713809196	-0.171788
C	 1.0272037405	 2.3915723468	 0.1013001541	-0.156873
C	 0.9222714941	 3.1898833776	-1.2107951387	-0.303597
C	-0.490741396	 3.5164698867	-0.7233528463	 0.19847
C	-1.318425683	 4.5975948279	-1.1442718739	 0.150878
C	-1.9968767773	 5.5099412837	-1.5350537042	-0.351359
H	-2.1273677347	 2.2281730275	 0.199725058	 0.13233
H	 1.956925913	 2.2639125601	 0.648093374	 0.118571
H	 1.5383848472	 4.0913135275	-1.1900319273	 0.134461
H	 1.056646918	 2.6591191284	-2.1569128778	 0.12483
H	-2.5993483698	 6.3180123129	-1.8703456284	 0.19849
118.3065	142.0972	208.6103	352.9092	445.7271	496.829	518.2015	535.1984	623.2148	640.293	674.69	708.9378	754.3782	798.069	815.9944	880.1421	948.5943	962.127	1017.2944	1028.449	1091.7496	1114.6831	1153.3772	1177.8534	1235.0928	1239.5733	1270.34	1354.096	1497.9208	1899.8436	2241.7278	3064.0028	3125.175	3174.7128	3218.5376	3500.5645
O=C1C2N3C1CC23C#C	O=C1[C@H]2N3[C@@H]1C[C@@]23C#C	
InChI=1S/C7H5NO/c1-2-7-3-4-5(9)6(7)8(4)7/h1,4,6H,3H2	InChI=1S/C7H5NO/c1-2-7-3-4-5(9)6(7)8(4)7/h1,4,6H,3H2/t4-,6-,7+,8?/m1/s1
