19
gdb 97998	6.16597	0.40268	0.39381	2.5379	83.25	-0.2512	-0.0259	0.2253	2652.9997	0.155906	-423.001499	-422.99051	-422.989566	-423.041275	36.301	
O	 0.2043673107	 0.8375421288	-1.0963821315	-0.401641
C	-0.0093614213	 0.2383104888	 0.174661333	-0.193429
C	-1.3331320163	-0.3663607519	 0.3215269878	 0.125913
C	-2.4456004686	-0.8184726079	 0.4230819397	-0.008885
C	-3.7711862365	-1.4142157578	 0.5398610347	-0.3564
C	-3.791102077	-2.9136312127	 0.1795325874	-0.183347
C	-5.1959268206	-3.5239009346	 0.3109452624	-0.274407
C	-5.2280334241	-4.9634672153	-0.1510572645	 0.156836
O	-5.6051489773	-5.8940090502	 0.5122367636	-0.234371
H	-0.5292305276	 1.4403359796	-1.2561971379	 0.286645
H	 0.7678624228	-0.5275416214	 0.2749823274	 0.140192
H	 0.1532448889	 0.9612235329	 0.9902927602	 0.117411
H	-4.1469029177	-1.2798481998	 1.5628207346	 0.134723
H	-4.4736816308	-0.8758911856	-0.1107265652	 0.13018
H	-3.4219417488	-3.0384997564	-0.8449917546	 0.118589
H	-3.0911634188	-3.448027685	 0.8307276436	 0.126283
H	-5.5633603018	-3.4797228675	 1.3405969676	 0.123888
H	-5.8944558448	-2.9593419359	-0.3249085783	 0.118954
H	-4.8581235304	-5.1156508679	-1.19297664	 0.072865
10.0721	44.1441	68.7202	78.8275	102.6981	145.3008	205.2221	259.2204	313.6358	338.3458	359.2713	481.2662	521.1019	569.5271	739.8845	774.7234	812.2265	904.1935	980.2675	987.4321	1031.9715	1046.168	1091.4894	1112.9753	1157.6701	1183.9772	1214.3898	1249.9288	1286.1569	1323.9814	1335.2032	1358.837	1383.5959	1417.9647	1428.8457	1463.4869	1471.367	1492.6002	1500.379	1838.1318	2361.4379	2850.6775	2974.7312	3006.7205	3012.8517	3039.8371	3043.7563	3061.4529	3080.9692	3100.4768	3816.676
OCC#CCCCC=O	OCC#CCCCC=O	
InChI=1S/C7H10O2/c8-6-4-2-1-3-5-7-9/h6,9H,1-2,4,7H2	InChI=1S/C7H10O2/c8-6-4-2-1-3-5-7-9/h6,9H,1-2,4,7H2
