21
gdb 93232	2.78851	1.30315	0.92987	3.7017	80.02	-0.2135	0.0322	0.2456	1290.0228	0.184134	-420.445668	-420.436363	-420.435418	-420.479684	34.588	
C	 0.0622985677	 1.5671066515	 0.0056657454	-0.405265
C	 0.0372654063	 0.0410567779	 0.0095169789	 0.026996
C	 0.7307824144	-0.5325656571	-1.2318051525	-0.145106
N	 0.9120034612	-1.9784451322	-1.1609780285	-0.100513
C	 1.2953881792	-2.6383372734	-2.3970656797	-0.344411
C	 0.8844275645	-2.7040049364	 0.0016085137	 0.392681
O	 1.0888848132	-3.9065911064	 0.042292236	-0.390611
C	 0.5362004639	-1.9374642846	 1.2816955904	-0.28865
N	 0.6250708447	-0.4822436357	 1.241620385	-0.290355
H	 1.0925522345	 1.9414488546	 0.0369537783	 0.114232
H	-0.4114721134	 1.9695241913	-0.8949975593	 0.11849
H	-0.4642512297	 1.9531377786	 0.8814841933	 0.13254
H	-1.0087736895	-0.2969323807	-0.0000708496	 0.089965
H	 0.1422674774	-0.3030114076	-2.1307944309	 0.105725
H	 1.709359775	-0.0399640021	-1.3657246451	 0.094305
H	 2.2363320612	-2.2261838478	-2.7853184781	 0.117619
H	 1.4224953438	-3.6997310757	-2.1899245808	 0.170269
H	 0.5216635637	-2.5014747186	-3.1622878676	 0.119481
H	-0.4894717428	-2.2274758777	 1.5486485326	 0.133926
H	 1.1798617568	-2.332691948	 2.0710308834	 0.134011
H	 1.6004065876	-0.1981068002	 1.2902842853	 0.21467
88.018	109.7544	143.2315	212.2139	226.0752	237.9006	272.8011	362.7538	394.8354	435.9173	480.8526	533.2424	574.5297	691.8466	751.9683	803.3532	866.8587	923.5193	949.5338	990.2604	1022.8977	1097.7765	1132.2558	1134.1898	1157.115	1158.3744	1189.0884	1246.6435	1272.6107	1301.7649	1312.6164	1346.4517	1373.9568	1387.1261	1411.6818	1428.4825	1454.2695	1465.9146	1477.6842	1495.8833	1498.8412	1500.3633	1506.1118	1540.782	1760.1462	2955.3168	3005.9571	3011.1644	3021.0408	3024.1288	3033.8225	3059.5795	3099.6392	3107.9537	3128.141	3167.5291	3488.8975
CC1CN(C)C(=O)CN1	C[C@H]1CN(C)C(=O)CN1	
InChI=1S/C6H12N2O/c1-5-4-8(2)6(9)3-7-5/h5,7H,3-4H2,1-2H3	InChI=1S/C6H12N2O/c1-5-4-8(2)6(9)3-7-5/h5,7H,3-4H2,1-2H3/t5-/m0/s1
