14
gdb 9698	3.52319	1.79095	1.64575	3.1646	61.72	-0.2757	-0.0046	0.2711	827.3367	0.107563	-378.748395	-378.741126	-378.740182	-378.780173	26.228	
C	-0.1370315192	 1.6183197659	-0.0260248708	-0.429555
C	 0.030705832	 0.0996176463	-0.0281240512	 0.212394
C	 0.9466147173	-0.4399432145	-1.1856327149	-0.2257
N	 2.1121757905	-1.0157364563	-0.5096895287	-0.248585
C	 1.8999952719	-0.8907781104	 0.7298880828	 0.122291
O	 0.7589416292	-0.2952089529	 1.1693345123	-0.240546
C	-1.2763710097	-0.5732702039	 0.0002152408	 0.266
N	-2.3094000004	-1.0901128793	-0.0159769445	-0.328452
H	 0.8505388989	 2.0869750442	-0.0389815209	 0.140266
H	-0.6922002997	 1.9369774659	-0.9126163264	 0.145444
H	-0.6768122131	 1.9476605915	 0.8643287677	 0.152194
H	 0.4453551155	-1.200810571	-1.7893311756	 0.147244
H	 1.2526940233	 0.3720978102	-1.8524284693	 0.131385
H	 2.5606565435	-1.2183091458	 1.5242311086	 0.155619
66.6918	180.442	188.9411	242.8242	328.6356	388.9648	503.0837	516.8084	570.9152	623.7465	786.0076	852.7446	905.0196	945.2299	957.7975	982.4111	993.9	1096.8178	1143.0419	1170.6859	1190.9634	1269.7875	1317.757	1333.5318	1408.9314	1480.0286	1489.4591	1498.0251	1716.9035	2360.3626	3050.2377	3056.6841	3101.1095	3129.8981	3140.1933	3226.1104
CC1(CN=CO1)C#N	C[C@]1(CN=CO1)C#N	
InChI=1S/C5H6N2O/c1-5(2-6)3-7-4-8-5/h4H,3H2,1H3	InChI=1S/C5H6N2O/c1-5(2-6)3-7-4-8-5/h4H,3H2,1H3/t5-/m1/s1
