14
gdb 132149	3.28134	1.36161	0.96798	6.7074	66.75	-0.2447	-0.0284	0.2164	1115.5481	0.101295	-478.041267	-478.033582	-478.032638	-478.073628	28.435	
C	-0.0175007647	 1.5112620626	-0.0144399347	-0.473655
C	-0.042280388	 0.0139444925	 0.00113989	 0.143355
C	-1.1652881253	-0.7120542811	-0.151217447	-0.076496
N	-1.1116439703	-2.0963797788	-0.1261971485	-0.373002
C	 0.0960090115	-2.6854043337	 0.0549663874	 0.414728
F	 0.0105582002	-4.008184857	 0.0593210365	-0.064216
N	 1.2125324382	-2.1053554114	 0.2082913282	-0.39001
C	 1.2481972646	-0.6914700416	 0.1955419616	 0.334103
O	 2.2916038791	-0.0885568273	 0.3378983135	-0.347282
H	 0.6450681922	 1.8724224496	-0.8074796745	 0.150251
H	-1.0151029991	 1.9331720142	-0.1636747233	 0.110406
H	 0.3956101258	 1.8945473286	 0.9239946342	 0.150236
H	-2.150043301	-0.2861585226	-0.2980983784	 0.139691
H	-1.9355024032	-2.6651322638	-0.2374096949	 0.281891
97.6435	153.7529	192.0043	280.4265	322.4453	381.6164	414.5302	471.2717	499.9334	537.8587	596.1604	727.0174	751.8072	784.217	802.3054	885.2329	996.9257	1033.4405	1067.0846	1116.4466	1202.3977	1265.7142	1300.4382	1383.0252	1417.0622	1465.6833	1485.717	1534.6326	1666.72	1728.9471	1781.0488	3039.4636	3099.5029	3119.7413	3211.2125	3649.9842
CC1=CNC(F)=NC1=O	Cc1c[nH]c(F)nc1=O	
InChI=1S/C5H5FN2O/c1-3-2-7-5(6)8-4(3)9/h2H,1H3,(H,7,8,9)	InChI=1S/C5H5FN2O/c1-3-2-7-5(6)8-4(3)9/h2H,1H3,(H,7,8,9)
