20
gdb 30732	3.05963	1.20799	0.89715	1.4247	84.76	-0.1728	0.0455	0.2182	1342.976	0.16991	-403.182088	-403.172017	-403.171073	-403.217462	35.908	
C	-0.1106698516	 1.4059768731	-0.2509835429	-0.329791
N	-0.0981060032	 0.1153984686	 0.4360997794	-0.387346
C	-1.1829449341	-0.7292569023	 0.261560243	 0.332296
C	-1.292785134	-2.0816156932	 0.093010201	 0.054356
C	-0.1843478393	-3.0774185615	-0.0537104468	-0.515883
C	-2.7147646619	-2.3526882974	 0.0874698359	 0.202548
C	-3.3655610647	-3.6910820442	-0.0676897996	-0.502585
C	-3.3310375584	-1.1549699183	 0.2324689596	-0.14314
O	-2.4046518864	-0.1461107676	 0.3458787249	-0.186248
H	 0.7832228628	 1.9647483379	 0.0364313814	 0.121977
H	-0.1391798714	 1.3216020087	-1.3482979899	 0.110877
H	-0.9853183922	 1.9748418847	 0.0695002717	 0.151207
H	 0.7715769697	-0.3844930429	 0.3164748671	 0.23784
H	 0.0016522089	-3.645393731	 0.8673361375	 0.126114
H	-0.4055113833	-3.8092026934	-0.839164419	 0.125255
H	 0.760129869	-2.5933889044	-0.3280134342	 0.106528
H	-3.0819492499	-4.3757132038	 0.7406679677	 0.125314
H	-4.4555935642	-3.6029130817	-0.0615456686	 0.122537
H	-3.0770982039	-4.1748355004	-1.0088977298	 0.124196
H	-4.362153082	-0.8456004008	 0.2606450318	 0.123945
48.3469	106.5122	120.268	152.2437	168.8703	215.5841	231.8833	281.2235	308.0785	376.8478	500.5728	544.6878	618.1059	648.1096	666.3823	709.3213	722.669	770.675	925.5507	1010.2267	1049.2717	1052.5958	1069.7143	1087.0149	1140.6711	1148.9068	1170.5158	1200.6287	1276.1702	1330.6627	1416.1527	1419.0981	1437.7127	1456.4463	1473.4587	1480.9226	1487.6359	1490.3508	1494.7431	1505.088	1516.7981	1628.4574	1684.9768	2984.6161	3010.4205	3021.7304	3058.7282	3067.9997	3080.927	3093.6813	3107.4955	3138.0403	3279.2739	3594.7646
CNC1=C(C)C(C)=CO1	CNc1c(C)c(C)co1	
InChI=1S/C7H11NO/c1-5-4-9-7(8-3)6(5)2/h4,8H,1-3H3	InChI=1S/C7H11NO/c1-5-4-9-7(8-3)6(5)2/h4,8H,1-3H3
