18
gdb 123786	5.2198	0.97031	0.84756	3.8284	79.21	-0.1943	0.0465	0.2407	1346.8384	0.150404	-398.125129	-398.117117	-398.116173	-398.158371	30.512	
C	 0.8778273834	 0.0002213053	-0.7037635118	-0.259188
C	 1.0726688272	 1.1411501691	 0.2622839083	-0.286646
C	 0.4736561908	-0.1474565362	 0.747773594	 0.012461
N	-0.9268915347	-0.1433235605	 1.0581951824	-0.39105
C	-1.6277740665	-1.3430868085	 1.0208533958	 0.451767
C	-2.8148734042	-1.7288540553	 1.6222171853	-0.339562
C	-3.0376417522	-3.0383289568	 1.1423253838	 0.009594
N	-2.0854336448	-3.4518579468	 0.3175457929	-0.249568
N	-1.2288102229	-2.3943934615	 0.2615023178	-0.252612
H	 0.0772058099	 0.0953363573	-1.4277981466	 0.133021
H	 1.7523418649	-0.5399507717	-1.049262265	 0.119817
H	 2.0787891739	 1.385132932	 0.5824124012	 0.121597
H	 0.4039384026	 1.9889536057	 0.1690334025	 0.125854
H	 1.1084064395	-0.7857782913	 1.3652425181	 0.09565
H	-1.1628384544	 0.4146526445	 1.8668399261	 0.244818
H	-3.4192157393	-1.1477894869	 2.2994163055	 0.088834
H	-3.8633012532	-3.6961742468	 1.3739097071	 0.103749
H	-0.4140263599	-2.4451995917	-0.3238324276	 0.271465
61.9516	83.2748	133.9591	287.07	336.3389	362.6402	459.3079	473.1457	587.0479	674.8545	700.8995	746.7276	755.0931	779.2307	840.0031	848.105	891.1578	931.6332	965.3749	1012.4634	1048.1091	1059.0349	1066.1183	1084.6588	1108.608	1136.5002	1189.9601	1198.7508	1238.1632	1259.0532	1319.3638	1352.2173	1390.2452	1410.0254	1457.0444	1484.7979	1501.6119	1549.6157	1628.9799	3076.7069	3139.7397	3145.6581	3225.8425	3236.7213	3239.1728	3265.6125	3585.131	3691.8425
C1CC1NC1=CC=NN1	C1CC1Nc1ccn[nH]1	
InChI=1S/C6H9N3/c1-2-5(1)8-6-3-4-7-9-6/h3-5H,1-2H2,(H2,7,8,9)	InChI=1S/C6H9N3/c1-2-5(1)8-6-3-4-7-9-6/h3-5H,1-2H2,(H2,7,8,9)
