14
gdb 20666	3.46189	1.96835	1.26465	2.7634	72.31	-0.2278	-0.0037	0.2241	910.532	0.10763	-341.581028	-341.573467	-341.572523	-341.613212	27.55	
C	-0.038023308	 1.5419481621	 0.0077228904	-0.516623
C	-0.0124858482	 0.0471444414	-0.0165758637	 0.122846
C	-0.0290381881	-0.7966982085	-1.104432954	-0.109996
N	 0.007365739	-2.0646189676	-0.6179916718	-0.194592
N	 0.0465417864	-2.1232966705	 0.7183798495	-0.291371
C	 0.0351042455	-0.8382279145	 1.1009069395	 0.145647
C	 0.0674604536	-0.4652280471	 2.4678097483	 0.282284
C	 0.093483889	-0.0932365112	 3.6124178134	-0.44111
H	 0.8483855644	 1.9485765778	 0.5065319993	 0.138724
H	-0.0727507819	 1.9533725203	-1.0045446528	 0.121079
H	-0.9097229239	 1.917838612	 0.5543057332	 0.138705
H	-0.0628609016	-0.5938418277	-2.1634545354	 0.135932
H	 0.0067661172	-2.9251459759	-1.1388716021	 0.278152
H	 0.1168474367	 0.2171752393	 4.6274140861	 0.190323
57.4793	134.7106	171.3913	266.7881	309.7484	471.2506	521.0405	537.3371	572.7101	590.5817	663.6886	665.3272	700.4579	747.8116	782.7971	949.7868	1008.0161	1067.6052	1088.3643	1149.0562	1242.0432	1320.8507	1366.7569	1421.95	1450.749	1481.0413	1488.0086	1504.9112	1602.9832	2236.3979	3034.4122	3086.6595	3114.2383	3259.0493	3504.3935	3673.8695
CC1=CNN=C1C#C	Cc1c[nH]nc1C#C	
InChI=1S/C6H6N2/c1-3-6-5(2)4-7-8-6/h1,4H,2H3,(H,7,8)	InChI=1S/C6H6N2/c1-3-6-5(2)4-7-8-6/h1,4H,2H3,(H,7,8)
