21
gdb 90994	3.44344	1.50603	1.38029	1.8383	79.92	-0.2353	0.085	0.3203	1026.6681	0.186081	-387.084689	-387.077698	-387.076754	-387.115656	29.723	
C	-0.150655202	 1.5657854891	-0.004026201	-0.414572
C	 0.0511587593	 0.0520536415	-0.0078526304	 0.048942
C	 0.847472227	-0.5122749879	-1.2286506178	-0.271201
C	 1.5986643346	-1.7042647026	-0.6281580628	-0.023139
C	 2.793236018	-1.409668082	 0.3387811092	 0.067942
C	 2.3354809752	-0.150528699	 1.1010547821	-0.228133
C	 0.8276082216	-0.5411214774	 1.1864459517	-0.053212
C	 1.0070951022	-2.0385540969	 0.7629038177	 0.07866
O	 2.3091601529	-2.4618225604	 1.2278788609	-0.30253
H	 0.8030257675	 2.1039461696	 0.0094564337	 0.11585
H	-0.6963811826	 1.8883867041	-0.8974827903	 0.113465
H	-0.7264239613	 1.8874048522	 0.8704975605	 0.112946
H	-0.9437253266	-0.4161268887	-0.0147118571	 0.070568
H	 0.1819994555	-0.8137025563	-2.042823837	 0.098971
H	 1.5325855279	 0.237005213	-1.6428419515	 0.097694
H	 1.7846114615	-2.5636288197	-1.2712585588	 0.075873
H	 3.8405682063	-1.5144334594	 0.0536701779	 0.073537
H	 2.8221241633	-0.1049056143	 2.0771624091	 0.106911
H	 2.5201049162	 0.7870276245	 0.5710875188	 0.094238
H	 0.3619378137	-0.370923023	 2.1580438592	 0.060987
H	 0.2007248299	-2.7467469063	 0.9537432359	 0.076203
162.6253	228.3329	257.8019	338.6584	383.6653	467.4711	522.0092	550.0768	682.3816	712.7746	782.1369	798.8237	845.0938	871.5306	892.7926	900.5659	919.6194	951.0339	961.2173	975.0184	1004.1932	1017.4018	1058.5891	1062.0385	1087.979	1118.1277	1131.276	1163.7678	1185.7236	1217.5974	1233.2097	1242.6275	1257.3188	1288.9419	1305.7158	1308.1398	1315.605	1341.4792	1364.6666	1381.7753	1414.9324	1484.1451	1495.0813	1498.4853	1505.4031	2994.2498	3028.7355	3035.5778	3072.2455	3081.0125	3093.442	3098.8545	3101.4321	3113.5622	3118.8102	3123.0742	3131.28
CC1CC2C3CC1C2O3	C[C@H]1C[C@H]2[C@H]3C[C@@H]1[C@@H]2O3	
InChI=1S/C8H12O/c1-4-2-6-7-3-5(4)8(6)9-7/h4-8H,2-3H2,1H3	InChI=1S/C8H12O/c1-4-2-6-7-3-5(4)8(6)9-7/h4-8H,2-3H2,1H3/t4-,5-,6-,7+,8-/m0/s1
