23
gdb 78224	2.24726	1.46637	1.20668	1.138	85.77	-0.2389	0.0702	0.3091	1196.1215	0.203923	-388.266966	-388.25715	-388.256206	-388.300519	38.592	
C	-0.5393917961	 1.2663845528	 0.228035492	-0.423863
C	-0.1990526434	-0.1902271185	 0.4780980666	-0.019141
C	 1.0043656538	-0.9267015688	-0.0367262536	-0.079257
C	 0.769869366	-0.7799926958	 1.4733110084	-0.092791
C	 2.103137653	-0.0395490326	 1.6345661255	 0.388436
C	 2.1555482052	 1.3052929861	 2.349728856	-0.460647
O	 2.9628338062	-0.9623999634	 2.3000156429	-0.467007
C	 2.2909730778	-0.0829014601	 0.0620889052	-0.040257
C	 3.5531316226	-0.7748125743	-0.4365657299	-0.422224
H	 0.3415743211	 1.8943148591	 0.0811064352	 0.121574
H	-1.1512866732	 1.3551187075	-0.6765130217	 0.113313
H	-1.1156698788	 1.68774997	 1.0592466163	 0.116755
H	-1.0872803386	-0.8202904954	 0.4319640042	 0.08618
H	 0.9194855305	-1.8189601456	-0.6474361855	 0.076696
H	 0.4571349446	-1.5334418763	 2.1875786714	 0.084923
H	 1.8983395756	 1.1775480264	 3.405890509	 0.122977
H	 3.1681009267	 1.7279289594	 2.297687576	 0.100788
H	 1.4726042863	 2.0360957808	 1.9132385413	 0.119473
H	 3.8402142073	-0.567054948	 2.3461764308	 0.273884
H	 2.211522554	 0.9022448782	-0.4134252485	 0.05672
H	 3.6751366504	-1.7546081345	 0.0309523599	 0.132034
H	 3.5067783817	-0.9120147334	-1.5223448568	 0.111571
H	 4.4492611972	-0.1802963836	-0.2224021148	 0.099863
123.4148	182.1616	191.2761	210.8054	234.4668	248.5974	277.2217	307.3997	318.3717	354.1816	396.4024	439.0138	553.7479	599.6012	629.0356	716.4698	757.2977	810.3917	874.6815	910.9908	928.2481	956.0377	988.2326	998.952	1025.4598	1060.011	1073.953	1091.9715	1113.8991	1125.3507	1155.1113	1165.701	1190.7481	1218.9051	1267.0772	1281.3176	1329.8807	1370.82	1384.1484	1400.6338	1405.1752	1413.9851	1445.0093	1485.9092	1490.8538	1495.1556	1500.293	1504.3932	1505.9571	3018.0598	3020.4107	3029.323	3033.7554	3085.373	3087.1417	3090.3263	3104.7773	3124.1259	3127.0904	3140.6467	3163.1805	3176.5866	3802.1599
CC1C2C1C(C)(O)C2C	C[C@H]1[C@@H]2[C@H]1[C@@](C)(O)[C@H]2C	
InChI=1S/C8H14O/c1-4-6-5(2)8(3,9)7(4)6/h4-7,9H,1-3H3	InChI=1S/C8H14O/c1-4-6-5(2)8(3,9)7(4)6/h4-7,9H,1-3H3/t4-,5-,6-,7-,8-/m0/s1
