19
gdb 105479	2.2203	1.14046	0.87135	2.7824	80.75	-0.2477	0.0329	0.2807	1410.8701	0.156147	-422.964265	-422.95392	-422.952976	-423.002017	35.125	
C	-0.0351372865	 1.3985705127	 0.1118279803	-0.253586
O	-0.1046328135	-0.0067455995	-0.0409508566	-0.268015
C	 0.6193448498	-0.5214492468	-1.1388130498	 0.160273
C	 2.163511576	-0.6238974382	-0.9189748219	-0.111922
O	 2.1063315589	-2.059843322	-0.8792021726	-0.268995
C	 0.6772138496	-2.0671002089	-1.0426980467	-0.109226
C	 0.1939401796	 0.0311899292	-2.4197018456	 0.094721
C	-0.1540160174	 0.4800015061	-3.4823494475	 0.006839
C	-0.5769303598	 1.0157674796	-4.7679233112	-0.500776
H	 0.998488698	 1.7426171729	 0.2648980746	 0.10636
H	-0.4530305625	 1.9216647588	-0.7575057023	 0.120823
H	-0.6218115609	 1.6442035781	 0.9994598713	 0.130296
H	 2.7909453793	-0.2559753947	-1.7376174638	 0.106583
H	 2.4949906526	-0.1931592152	 0.0340034293	 0.103589
H	 0.1516620034	-2.4458054645	-0.1590577632	 0.114205
H	 0.3624676888	-2.6117394123	-1.9383390764	 0.109265
H	-0.2651348204	 0.3604664471	-5.588519617	 0.154627
H	-1.6668135469	 1.1135600553	-4.8171889684	 0.153747
H	-0.1440391682	 2.0053946721	-4.9501924524	 0.151193
14.3049	53.1475	93.0983	110.8461	134.5929	187.8973	250.4992	296.4739	320.5925	375.1594	433.5916	504.7066	549.3492	587.5562	811.7811	866.2537	951.5188	971.7027	1030.6883	1046.428	1051.7911	1053.576	1060.1252	1089.8153	1154.7728	1161.0585	1183.7304	1193.7811	1222.5444	1285.4609	1302.723	1371.501	1413.7457	1475.0033	1476.2696	1477.4876	1486.1081	1493.6048	1509.2674	1520.1674	2362.4257	2992.2115	3016.559	3029.4221	3034.4125	3055.5723	3076.9927	3091.0969	3091.3045	3092.5417	3125.2005
COC1(COC1)C#CC	COC1(COC1)C#CC	
InChI=1S/C7H10O2/c1-3-4-7(8-2)5-9-6-7/h5-6H2,1-2H3	InChI=1S/C7H10O2/c1-3-4-7(8-2)5-9-6-7/h5-6H2,1-2H3
