19
gdb 116580	5.11089	0.8897	0.83417	3.0058	80.02	-0.2338	0.0204	0.2541	1450.9553	0.159665	-419.166073	-419.157451	-419.156507	-419.200383	31.653	
C	 0.0579052221	 1.6468485554	-0.2529143444	-0.361445
C	-0.1001602433	 0.1337975746	-0.1058992737	-0.147076
N	-1.4924015663	-0.2533883671	-0.3213011549	-0.342683
C	-1.7566590068	-1.2510099019	-1.0210020442	 0.513721
O	-0.9096542485	-2.1270190084	-1.7146967608	-0.289112
C	-2.0395942684	-2.8303235607	-2.3021746463	 0.10345
C	-2.5140979815	-4.0411885728	-1.4783291734	-0.188968
N	-3.3019628649	-3.1383524243	-0.5864830392	-0.314867
C	-3.0167406676	-1.967045621	-1.4660744328	-0.192546
H	 1.0859429291	 1.9508094334	-0.0314962849	 0.107032
H	-0.1807057652	 1.9658190697	-1.2723650498	 0.11555
H	-0.6168690189	 2.1706700956	 0.4300969593	 0.124179
H	 0.5865737772	-0.3910293245	-0.7831040929	 0.109023
H	 0.1696978755	-0.161347754	 0.9165334898	 0.111385
H	-1.9606661532	-2.8870938742	-3.3866732854	 0.098472
H	-3.1251177157	-4.7296305799	-2.0745991758	 0.105222
H	-1.7296802956	-4.6061680814	-0.9658460582	 0.122325
H	-4.2870123764	-3.369681919	-0.5528787096	 0.22875
H	-3.8606071416	-1.3818224195	-1.8290381729	 0.09759
36.8494	97.0147	141.0512	159.4801	235.676	290.3585	372.0922	445.9006	452.5635	665.4431	683.0957	751.9838	801.1445	802.7193	839.7618	858.7542	926.4335	940.48	985.9745	1004.3788	1026.822	1055.9257	1076.5753	1105.277	1123.5385	1144.0069	1167.6068	1196.2611	1222.6715	1258.1713	1300.2518	1322.2441	1341.8626	1383.1994	1387.9399	1408.0146	1487.8898	1490.8215	1493.0919	1508.1487	1848.2571	3009.6764	3026.8767	3038.3049	3044.9909	3087.5299	3108.9428	3118.2025	3121.9321	3132.3637	3556.472
CCN=C1OC2CNC12	CCN=C1O[C@H]2CN[C@@H]12	
InChI=1S/C6H10N2O/c1-2-7-6-5-4(9-6)3-8-5/h4-5,8H,2-3H2,1H3	InChI=1S/C6H10N2O/c1-2-7-6-5-4(9-6)3-8-5/h4-5,8H,2-3H2,1H3/t4-,5+/m0/s1
