17
gdb 68666	2.42984	1.84283	1.45903	2.295	72.87	-0.2277	-0.0149	0.2129	953.6373	0.136395	-421.837673	-421.830065	-421.829121	-421.869401	30.087	
O	 0.2027670932	 1.4378082945	-0.1942436788	-0.495442
C	 0.0730708977	 0.0588119006	-0.0890078191	 0.277751
C	-1.3246407968	-0.6699259922	-0.047671348	-0.286707
C	-0.6326886471	-1.7792560938	 0.8187336612	-0.159663
C	 0.1318027005	-2.773129167	-0.0851328943	-0.261851
C	 0.9424495709	-2.0115313537	-1.1089450813	-0.083666
C	 0.9333734753	-0.6790328813	-1.1029639103	-0.08953
C	 0.2889451641	-0.6309203926	 1.2618002894	 0.370193
O	 0.740795174	-0.2437214617	 2.3028533512	-0.338368
H	 0.2529739029	 1.790903791	 0.7028351017	 0.293851
H	-2.0646136774	-0.1051930754	 0.5238982937	 0.113193
H	-1.7225981342	-0.9762596303	-1.0161486427	 0.114625
H	-1.2143479168	-2.274031713	 1.596907276	 0.094537
H	 0.7895081595	-3.401359783	 0.5305490047	 0.124769
H	-0.5719879156	-3.461315828	-0.5730911163	 0.115263
H	 1.5314715153	-2.5725882596	-1.8278081809	 0.100354
H	 1.5162002947	-0.0643301542	-1.7803119161	 0.110692
126.2309	168.9681	226.7632	294.357	331.4235	393.5814	444.9995	451.2479	513.2052	619.7027	686.0121	696.0554	784.863	805.9387	840.1133	900.9855	922.056	941.4752	974.1707	991.992	1012.0165	1039.7748	1078.5566	1122.5417	1155.7795	1159.4847	1194.1093	1251.483	1269.8904	1291.0959	1356.3057	1367.651	1398.8551	1474.9481	1484.9916	1698.5861	1876.0125	3010.0219	3036.6026	3069.7747	3113.8462	3141.2507	3173.2847	3200.1066	3779.5636
OC12CC(CC=C1)C2=O	O[C@@]12C[C@@H](CC=C1)C2=O	
InChI=1S/C7H8O2/c8-6-5-2-1-3-7(6,9)4-5/h1,3,5,9H,2,4H2	InChI=1S/C7H8O2/c8-6-5-2-1-3-7(6,9)4-5/h1,3,5,9H,2,4H2/t5-,7-/m1/s1
