14
gdb 94260	2.21575	1.49021	1.32634	2.5283	63.18	-0.2778	-0.0831	0.1947	1018.1324	0.099006	-473.804232	-473.795815	-473.794871	-473.837638	29.851	
O	 0.395660716	 1.2164880887	-0.3605022725	-0.415116
C	 0.1756620789	-0.065092909	 0.0974013362	 0.05778
C	-0.0738125374	-0.3623863463	 1.5971825345	-0.126207
O	-1.1840972588	-1.2464321302	 1.2638366058	-0.304617
C	-1.2261263362	-0.7571554148	-0.0988143929	 0.136382
C	-2.4298754449	 0.1975723436	-0.1454670443	 0.149388
O	-2.3344927039	 1.3851101317	 0.0396828056	-0.262417
C	-1.3461541223	-1.8190399475	-1.0899821381	 0.235026
N	-1.447850661	-2.6326807621	-1.9047018068	-0.311438
H	-0.3846820161	 1.745204769	-0.1363581075	 0.307028
H	 0.9633249828	-0.7025633035	-0.3091204849	 0.135894
H	 0.7046092258	-0.8955663856	 2.1478778486	 0.134233
H	-0.4104781609	 0.5117570263	 2.1658699593	 0.125973
H	-3.4117996322	-0.2985827603	-0.2699357229	 0.138092
83.47	114.3754	146.0127	180.9428	244.3735	289.7405	342.5518	444.7248	513.6028	539.3711	547.5569	595.0186	687.2431	766.3689	908.8541	956.6768	980.0707	1005.5994	1054.4404	1127.8654	1145.2264	1161.4023	1192.7555	1270.2991	1313.7388	1357.5516	1415.4292	1469.8078	1513.2805	1809.3584	2352.0131	2954.9359	3042.3482	3097.5407	3116.5661	3717.6493
OC1COC1(C=O)C#N	O[C@H]1CO[C@]1(C=O)C#N	
InChI=1S/C5H5NO3/c6-2-5(3-7)4(8)1-9-5/h3-4,8H,1H2	InChI=1S/C5H5NO3/c6-2-5(3-7)4(8)1-9-5/h3-4,8H,1H2/t4-,5-/m0/s1
