19
gdb 63112	2.27059	1.67438	1.19385	4.5965	81.25	-0.2511	0.0001	0.2512	1101.472	0.158835	-382.04873	-382.039904	-382.03896	-382.081665	33.754	
C	-0.0630735682	 1.5640153239	 0.0317965347	-0.473045
C	 0.0083867698	 0.050106442	 0.0814658764	 0.277837
C	-1.2540778802	-0.6238860391	-0.4255029568	-0.451765
N	 1.207181219	-0.7145445403	-0.3218914363	-0.193684
C	 2.4366383276	 0.0542930237	 0.0907052142	-0.157635
C	 2.0444164655	 0.0354178069	 1.5867963561	-0.320429
C	 0.759514477	-0.6806813617	 1.1519288656	 0.162093
C	 0.2259880179	-1.8152177168	 1.8457118979	 0.216439
N	-0.2019084036	-2.7070971174	 2.4468872295	-0.351546
H	 0.77466034	 2.0681678618	 0.5143082317	 0.126287
H	-0.1067451855	 1.8988424243	-1.0105304765	 0.133939
H	-0.9797726452	 1.9014021523	 0.5249798087	 0.134456
H	-1.4696197386	-0.2842242095	-1.4435354849	 0.124896
H	-1.1402356602	-1.7089365087	-0.4464624411	 0.149557
H	-2.1099389501	-0.3731395931	 0.2089598581	 0.126873
H	 3.3207236914	-0.543687316	-0.1337902645	 0.125437
H	 2.5354448416	 1.0273991606	-0.3966863514	 0.115314
H	 2.6908132285	-0.6082835064	 2.1837299648	 0.136687
H	 1.9139239533	 0.9861445534	 2.1092692037	 0.118287
128.6533	148.1396	169.7464	202.9779	268.37	285.1272	323.7315	371.1915	402.0523	469.5435	540.1535	572.9522	599.5696	666.4436	741.9967	798.9803	857.5904	926.5454	964.3971	970.5154	974.6888	1031.6525	1059.0168	1124.8081	1142.9729	1157.7438	1193.6613	1221.2289	1262.9643	1287.8556	1309.2905	1389.1883	1414.039	1425.1525	1475.6608	1481.1139	1490.7388	1507.1723	1510.2069	1521.3244	2341.5011	3041.2341	3046.0645	3070.2508	3075.5084	3102.7053	3109.466	3120.9815	3139.2167	3141.068	3143.4577
CC1(C)N2CCC12C#N	CC1(C)N2CC[C@@]12C#N	
InChI=1S/C7H10N2/c1-6(2)7(5-8)3-4-9(6)7/h3-4H2,1-2H3	InChI=1S/C7H10N2/c1-6(2)7(5-8)3-4-9(6)7/h3-4H2,1-2H3/t7-,9?/m1/s1
