19
gdb 120421	2.78057	0.90285	0.8181	3.3814	72.22	-0.2498	-0.0277	0.2221	1456.1977	0.156865	-460.156292	-460.146378	-460.145433	-460.191831	35.211	
O	-0.3734232078	 1.4233317051	 0.4509799663	-0.418571
C	-0.1241121207	 0.0620836204	 0.1404559995	-0.078006
C	-1.467884085	-0.6538579723	 0.0885086071	-0.175291
C	-1.3418545369	-2.1395887813	-0.2326744714	-0.085604
C	-0.9305012208	-3.0370984908	 0.9843398607	-0.348047
C	-2.4309519993	-3.3015063885	 1.1683321961	 0.340499
O	-3.1503564119	-3.4359032547	 2.1186237155	-0.305685
C	-2.735041986	-2.8882799415	-0.2722095324	 0.053485
O	-3.923490835	-2.2126462964	-0.5402709377	-0.424297
H	 0.4698120286	 1.8835309937	 0.4921373059	 0.287015
H	 0.3855486444	-0.0408307142	-0.8321092073	 0.086025
H	 0.5266650271	-0.4065525465	 0.8968894463	 0.085468
H	-1.9745744903	-0.5101430001	 1.0519220336	 0.106952
H	-2.0984672771	-0.1714274935	-0.6655544709	 0.124823
H	-0.7439044233	-2.2933908613	-1.1342291604	 0.080095
H	-0.3794022713	-3.9350963906	 0.6914468465	 0.129915
H	-0.4257014473	-2.5640753031	 1.8291017698	 0.132303
H	-2.6505685708	-3.7511567521	-0.9462905301	 0.109936
H	-4.3356751267	-2.0031657421	 0.3068140728	 0.298987
64.5553	96.1539	109.744	136.9865	143.2815	242.062	263.406	268.5713	334.4969	412.7087	453.2218	542.6351	601.7151	726.5975	758.4931	791.4716	854.2846	881.6848	922.3853	1015.0059	1031.7623	1063.5762	1075.8721	1085.4053	1128.5103	1166.8641	1186.3009	1209.5996	1233.8785	1245.5167	1272.3343	1309.2582	1322.5265	1327.3385	1389.7924	1411.0807	1448.6452	1466.1369	1493.7332	1526.7744	1873.5484	2957.4835	2982.2853	3023.416	3029.2553	3066.7894	3076.9599	3087.9924	3128.635	3783.7188	3831.1453
OCCC1CC(=O)C1O	OCC[C@H]1CC(=O)[C@H]1O	
InChI=1S/C6H10O3/c7-2-1-4-3-5(8)6(4)9/h4,6-7,9H,1-3H2	InChI=1S/C6H10O3/c7-2-1-4-3-5(8)6(4)9/h4,6-7,9H,1-3H2/t4-,6-/m0/s1
