19
gdb 124857	3.54687	1.27884	1.02179	1.9354	81.84	-0.2228	0.0238	0.2467	1188.6516	0.16118	-382.086698	-382.07853	-382.077586	-382.119748	31.761	
C	 0.0376652308	 1.4956423951	-0.0510609449	-0.478247
C	 0.0124220179	-0.020142532	-0.035132382	 0.262797
C	 1.3341700915	-0.7553742691	-0.1729349832	-0.290186
C	 0.6332594587	-0.7298576299	 1.1555232585	-0.290212
C	-1.1860587122	-0.6440702451	-0.6553778991	 0.318233
N	-1.329029465	-1.9708279875	-0.7049902923	-0.318221
N	-2.5091500817	-2.1668099451	-1.3240894337	-0.178442
C	-3.1247867408	-1.0139417329	-1.6713285061	-0.023464
C	-2.2956948546	 0.0050058421	-1.2536049678	-0.311722
H	 0.9498300482	 1.8689090132	 0.4233066677	 0.110367
H	 0.0111352936	 1.886806122	-1.0746090636	 0.117047
H	-0.8160281522	 1.9168770993	 0.4921884168	 0.117048
H	 1.3200265275	-1.6841832851	-0.7307895744	 0.126778
H	 2.229617242	-0.1549107865	-0.2974833685	 0.102581
H	 1.0454181395	-0.1119161109	 1.9468095997	 0.102591
H	 0.1502258737	-1.6417255317	 1.4860973549	 0.1268
H	-2.8287679199	-3.1081754396	-1.4739840137	 0.273051
H	-4.078655055	-1.0076411299	-2.1747436247	 0.131229
H	-2.4665338821	 1.0626443136	-1.3643715738	 0.101973
41.7221	177.0035	191.4957	241.5824	308.611	325.1471	432.7632	450.0449	496.6983	540.2978	660.1205	742.134	769.5261	791.7388	835.019	837.0943	848.8498	946.5916	956.0801	958.485	980.5786	1044.5474	1064.8792	1076.7905	1083.0401	1110.6945	1118.8895	1198.5264	1199.6746	1229.7243	1304.8368	1342.4508	1390.769	1414.74	1457.625	1484.0095	1488.164	1489.2567	1492.9492	1515.0498	1570.411	3023.8812	3083.4153	3104.2013	3128.7821	3132.274	3218.7352	3232.3706	3258.1357	3280.1516	3679.0774
CC1(CC1)C1=NNC=C1	CC1(CC1)c1n[nH]cc1	
InChI=1S/C7H10N2/c1-7(3-4-7)6-2-5-8-9-6/h2,5H,3-4H2,1H3,(H,8,9)	InChI=1S/C7H10N2/c1-7(3-4-7)6-2-5-8-9-6/h2,5H,3-4H2,1H3,(H,8,9)
