17
gdb 78145	2.09468	1.7423	1.02852	1.2655	76.54	-0.2534	-0.0149	0.2385	1148.9294	0.137714	-418.059522	-418.05167	-418.050726	-418.091835	30.278	
C	-0.0606634084	 1.4528020098	 0.010932011	-0.423834
C	 0.0506967507	-0.0532723316	-0.038585552	-0.015194
C	 0.7387288833	-0.7048536236	-1.2167663138	-0.103789
C	 1.4116754569	-0.6977384706	 0.1440991849	-0.189239
C	 1.3827846979	-2.118287673	 0.6302970468	 0.418782
O	 1.8712196901	-2.5871429511	 1.6281680737	-0.361354
N	 0.661500203	-2.8384442722	-0.3252163586	-0.375591
C	 0.3576660034	-2.1244382367	-1.491017499	 0.386344
N	-0.1251874967	-2.5415866975	-2.5881608601	-0.542261
H	 0.8191844514	 1.9315484913	-0.4305091898	 0.123192
H	-0.9416481492	 1.7952388979	-0.5414861454	 0.133445
H	-0.1514598986	 1.8041809146	 1.0437883091	 0.132323
H	-0.7954231044	-0.5895341049	 0.3828945877	 0.108058
H	 1.0655318249	-0.0959770398	-2.0487357824	 0.119082
H	 2.2679260813	-0.0871228716	 0.3974469414	 0.118418
H	 0.4886086751	-3.8256855912	-0.2095420654	 0.259853
H	-0.3076145907	-3.5464368698	-2.5659670481	 0.211766
133.9939	159.5328	205.1034	215.8913	264.5884	341.8151	422.4637	511.1138	559.433	613.8288	631.9349	694.3219	746.2588	832.8227	861.0808	867.0854	889.8587	935.9331	957.5847	1016.7314	1026.4975	1075.4337	1107.1821	1128.4762	1138.332	1203.5173	1216.4115	1292.2429	1306.1553	1355.6135	1387.5212	1416.8371	1425.4904	1490.9839	1500.7907	1761.4476	1849.9754	3035.165	3103.338	3104.5906	3145.8482	3209.0985	3217.0051	3458.3972	3631.7785
CC1C2C1C(=O)NC2=N	C[C@H]1[C@H]2[C@@H]1C(=O)N[C]2[NH]	
InChI=1S/C6H8N2O/c1-2-3-4(2)6(9)8-5(3)7/h2-4H,1H3,(H2,7,8,9)	InChI=1S/C6H8N2O/c1-2-3-4(2)6(9)8-5(3)7/h2-4H,1H3,(H2,7,8,9)/t2-,3-,4+/m0/s1
