23
gdb 120655	4.39278	0.74887	0.70375	1.6482	87.3	-0.2534	0.0795	0.3328	1734.6987	0.20469	-388.273557	-388.263798	-388.262853	-388.308843	36.251	
C	-0.0331698012	 1.5428728745	 0.1150170319	-0.382012
C	-0.0990526049	 0.0140443723	 0.1198894314	-0.156176
C	-1.4269913662	-0.5307547637	-0.4258639363	-0.205279
C	-1.4798664961	-2.0376776854	-0.4125215705	-0.051333
O	-1.6435456529	-2.6647444986	 0.8766189332	-0.298293
C	-2.679834648	-2.811113241	-0.0771331986	 0.453797
C	-4.1257226719	-2.3360458914	 0.101229971	-0.308579
C	-4.5560475273	-3.5036767286	-0.838240116	-0.211832
C	-3.1483618694	-4.1484484857	-0.658010354	-0.311452
H	 0.9211843384	 1.9018971882	 0.5125056699	 0.112899
H	-0.142852164	 1.9424529073	-0.8995967796	 0.111557
H	-0.8323302508	 1.9754481508	 0.7273496742	 0.115129
H	 0.7299443597	-0.3928259554	-0.4741118391	 0.093882
H	 0.0394810845	-0.3643565194	 1.1392900304	 0.115857
H	-2.2588271374	-0.1348923442	 0.168094204	 0.100488
H	-1.5757731149	-0.1809308515	-1.4573063865	 0.093716
H	-0.7298333564	-2.5310183591	-1.0367721826	 0.083428
H	-4.4654562605	-2.4824020557	 1.1308609857	 0.113706
H	-4.3709892245	-1.3170808787	-0.2081904963	 0.103746
H	-5.4121080917	-4.0993907339	-0.5177609592	 0.104141
H	-4.7286336886	-3.166480664	-1.8629061194	 0.106419
H	-2.6376008338	-4.5218595431	-1.5490914601	 0.102353
H	-3.1448348121	-4.9323872936	 0.1053904365	 0.113836
62.9824	90.1085	94.4023	120.3508	209.3081	244.7843	268.4676	307.8343	386.7809	469.173	512.7553	567.9613	715.9048	746.7929	784.0478	816.2857	853.5679	892.7599	899.247	912.2875	923.9624	973.7423	1025.2987	1035.1087	1054.5092	1067.313	1127.2638	1145.1228	1156.8387	1175.5189	1204.4643	1223.6648	1244.7554	1260.6554	1268.135	1277.5915	1303.7197	1329.2803	1359.0575	1391.7509	1414.1475	1468.1799	1472.5804	1481.1516	1492.4084	1493.862	1500.0403	1509.9503	1522.3854	3011.5753	3022.2899	3028.7629	3053.9245	3054.8916	3058.4235	3066.2241	3073.2039	3079.4569	3096.8721	3102.2307	3103.3858	3108.3154	3130.7004
CCCC1OC11CCC1	CCC[C@H]1OC21CCC2	
InChI=1S/C8H14O/c1-2-4-7-8(9-7)5-3-6-8/h7H,2-6H2,1H3	InChI=1S/C8H14O/c1-2-4-7-8(9-7)5-3-6-8/h7H,2-6H2,1H3/t7-/m1/s1
