18
gdb 99037	5.25322	0.74499	0.65861	1.9202	75.08	-0.231	-0.0132	0.2178	1666.3935	0.146523	-472.445339	-472.435202	-472.434258	-472.480991	35.879	
C	-1.551292461	 1.7281388847	 0.7658557273	-0.336152
N	-1.8661122875	 0.3476770923	 1.073736132	-0.327476
C	-1.685077736	-0.513453155	 0.150050855	 0.466976
N	-1.20549646	-0.3335331468	-1.1148309582	-0.567106
N	-1.9767867201	-1.8532873058	 0.5043791963	-0.381406
C	-2.0061689364	-2.9652144923	-0.2727951475	 0.411584
O	-1.7467261443	-2.994288386	-1.4716780428	-0.403146
C	-2.3926612105	-4.2622853722	 0.4418654044	-0.143692
O	-2.4046135378	-5.326740947	-0.459018883	-0.417161
H	-1.7177186176	 2.3430235349	 1.6536289202	 0.126981
H	-0.5025329465	 1.8652317416	 0.4574782957	 0.113551
H	-2.1860773346	 2.1406910541	-0.0366286888	 0.105223
H	-1.2182922852	 0.6025024008	-1.4808754907	 0.260922
H	-1.2975952566	-1.1070844233	-1.7605301711	 0.284013
H	-2.2440923102	-1.9267103992	 1.4762040206	 0.269256
H	-1.6741137036	-4.4374189505	 1.2591063097	 0.120676
H	-3.3813477967	-4.1263952869	 0.9090056523	 0.119677
H	-2.1367785752	-4.9404216232	-1.3088938713	 0.297281
56.3635	89.6725	95.2964	148.1045	152.0351	246.8945	276.4805	340.0653	372.8469	388.9856	408.8867	417.7755	548.8616	596.275	645.9717	673.5493	729.9405	742.869	913.0101	964.0308	1033.2933	1039.217	1115.5562	1137.6126	1142.3566	1203.5227	1237.7694	1250.8534	1315.795	1403.0108	1439.7794	1455.8823	1493.8189	1504.4056	1506.3701	1535.0188	1622.9188	1752.0209	1759.1168	2956.0137	2975.0337	2995.0026	3001.176	3101.327	3535.6999	3609.7351	3678.3746	3707.456
CN=C(N)NC(=O)CO	CN=C(N)NC(=O)CO	
InChI=1S/C4H9N3O2/c1-6-4(5)7-3(9)2-8/h8H,2H2,1H3,(H3,5,6,7,9)	InChI=1S/C4H9N3O2/c1-6-4(5)7-3(9)2-8/h8H,2H2,1H3,(H3,5,6,7,9)
