20
gdb 9748	3.764	1.50191	1.4085	1.3844	75.25	-0.2374	0.0307	0.2681	1000.4762	0.176642	-349.021746	-349.013342	-349.012397	-349.0543	32.382	
C	-0.0660008251	 1.546657713	-0.0674610174	-0.408581
C	 0.0034383639	 0.0187606741	 0.021146687	-0.215408
C	 0.7253481873	-0.5129811385	 1.2698365564	 0.402317
O	 2.0775877823	-0.0411845918	 1.3052692153	-0.48031
C	 0.004729768	-0.1714455623	 2.6124599996	-0.298436
C	 0.1531255691	-1.4257263786	 3.4356959042	-0.06242
C	 0.6059715372	-2.4466369215	 2.7117301904	-0.060724
C	 0.8479085204	-2.0603971241	 1.2760630577	-0.281067
H	 0.9354335841	 1.988214877	-0.1139194227	 0.112754
H	-0.5969392799	 1.8615361754	-0.9705513684	 0.118142
H	-0.5901511104	 1.981340817	 0.7907955253	 0.117757
H	-1.0112182961	-0.397917504	 0.0009507659	 0.092987
H	 0.5231399141	-0.3721709108	-0.8619143689	 0.101143
H	 2.0571196109	 0.9058777404	 1.4761063622	 0.274003
H	 0.457732329	 0.7076371959	 3.0887211426	 0.092094
H	-1.0547801606	 0.0751001055	 2.4557204425	 0.101306
H	-0.1080584781	-1.4674238488	 4.487468378	 0.088382
H	 0.7708295734	-3.4527978446	 3.0812695132	 0.088838
H	 0.1113029171	-2.5261297406	 0.6076302536	 0.098245
H	 1.8389895232	-2.3466886928	 0.9085339934	 0.11898
80.0739	113.4814	200.6221	244.9192	303.351	340.0961	375.381	391.5323	419.8762	474.7841	619.0658	694.8825	774.1618	785.5038	792.8181	906.2483	929.7869	955.2156	972.0011	975.1875	988.7188	1014.7705	1025.1232	1098.2672	1116.4623	1129.4733	1162.1978	1180.5055	1255.0669	1295.0328	1310.6601	1317.8798	1350.4146	1364.2449	1393.9129	1410.9575	1466.9286	1472.9488	1480.5362	1501.4705	1511.3339	1692.5395	3005.2398	3015.6141	3026.1545	3031.4271	3037.5413	3061.0393	3071.2615	3097.9956	3104.6258	3179.027	3204.6901	3813.8012
CCC1(O)CC=CC1	CC[C@@]1(O)CC=CC1	
InChI=1S/C7H12O/c1-2-7(8)5-3-4-6-7/h3-4,8H,2,5-6H2,1H3	InChI=1S/C7H12O/c1-2-7(8)5-3-4-6-7/h3-4,8H,2,5-6H2,1H3
