18
gdb 85320	2.32598	1.85438	1.19157	4.3272	72.96	-0.2541	0.006	0.2601	1055.3616	0.148974	-439.083344	-439.075488	-439.074543	-439.116077	29.725	
C	 0.1274547495	 1.5510431029	-0.1427553063	-0.410138
C	 0.0333804411	 0.0453088287	 0.0248514734	 0.110255
O	 0.6139618784	-0.5977589668	-1.1356659983	-0.253617
C	 1.1308316702	-1.8214219265	-0.807155663	 0.397199
N	 1.4079065591	-2.7417810426	-1.6232441305	-0.532759
C	 1.3652758149	-1.8837828424	 0.6894337266	 0.047839
O	 2.698594959	-1.4454075025	 1.0343122402	-0.281468
C	 2.203141593	-0.1843366382	 1.5334022791	-0.085741
C	 0.7406807275	-0.5817251123	 1.2346341918	-0.11812
H	 1.1665804845	 1.8802856307	-0.2200041289	 0.133784
H	-0.3959951414	 1.8628726268	-1.0502210091	 0.13683
H	-0.3370878583	 2.0539367136	 0.7112206107	 0.123517
H	-1.0261027061	-0.246481913	 0.0571594202	 0.091259
H	 1.1853454658	-2.4562199018	-2.5792703232	 0.223472
H	 1.1247728464	-2.8598180138	 1.1149081929	 0.104272
H	 2.4385923095	-0.0502539092	 2.5952652061	 0.109655
H	 2.6038939775	 0.6659727013	 0.9703333827	 0.110611
H	 0.0902455693	-0.6493566649	 2.1057730657	 0.09315
77.0398	107.3789	217.3402	247.902	260.2972	312.5109	449.4175	498.7049	589.6001	665.4561	700.7523	766.085	852.4026	875.1906	889.0038	913.1126	946.1455	965.7631	1008.0926	1031.5999	1036.9436	1061.1427	1116.6536	1135.8239	1164.9738	1173.2321	1217.6253	1250.2257	1296.3367	1319.1574	1332.1697	1352.269	1386.718	1389.3501	1415.4056	1483.755	1500.1817	1523.5077	1779.2103	2998.9905	3027.552	3049.5628	3070.2455	3099.048	3120.5161	3121.9607	3132.6651	3462.8615
CC1OC(=N)C2OCC12	C[C@H]1O[C]([NH])[C@H]2OC[C@@H]12	
InChI=1S/C6H9NO2/c1-3-4-2-8-5(4)6(7)9-3/h3-5,7H,2H2,1H3	InChI=1S/C6H9NO2/c1-3-4-2-8-5(4)6(7)9-3/h3-5,7H,2H2,1H3/t3-,4+,5+/m1/s1
