16
gdb 34005	3.56415	1.36223	1.16979	2.398	76.22	-0.2312	0.0092	0.2404	1055.4385	0.124647	-400.707562	-400.699906	-400.698962	-400.739603	29.682	
C	 0.1406487882	-1.2145304298	-0.1380683957	-0.393285
C	 0.0651824887	-0.022117757	-0.0061915501	 0.236339
C	 0.0107302735	 1.4086577961	 0.1388808087	 0.148267
C	 0.2437931455	 2.2707838705	-1.106457833	-0.314128
C	 1.2914676045	 2.2135362621	-0.0385618758	-0.095459
C	 1.4842937995	 3.3471778992	 0.939947291	-0.100741
O	 0.2496891708	 3.8868725701	 1.438776258	-0.226503
C	-0.7788412483	 3.0211590576	 1.6109953536	 0.104094
N	-0.9641408613	 1.8854325456	 1.0847429808	-0.305382
H	 0.1927903907	-2.2691085297	-0.2492624542	 0.189338
H	 0.4357861015	 1.7534334032	-2.0387589937	 0.133079
H	-0.3757065824	 3.1576820729	-1.1867202664	 0.135235
H	 2.1967950001	 1.6555815133	-0.2547813281	 0.112026
H	 2.0725970063	 2.993423395	 1.7965340284	 0.122599
H	 2.0108788913	 4.1941907523	 0.4899467372	 0.125468
H	-1.5189883086	 3.4442340186	 2.2866444192	 0.129053
107.7171	147.6127	173.468	278.1799	352.5313	413.7063	506.3847	526.9734	573.2639	583.8869	641.1156	664.2795	667.2	780.412	855.8624	895.0155	897.1286	930.6412	953.153	983.7907	1057.9391	1065.6227	1101.7099	1108.5812	1164.6735	1244.9997	1269.3603	1285.1488	1395.1495	1405.4022	1416.6813	1481.339	1511.8682	1717.3162	2242.7519	3022.7834	3078.9392	3139.2024	3166.0048	3166.9647	3234.954	3503.8195
C#CC12CC1COC=N2	C#C[C@]12C[C@H]1COC=N2	
InChI=1S/C7H7NO/c1-2-7-3-6(7)4-9-5-8-7/h1,5-6H,3-4H2	InChI=1S/C7H7NO/c1-2-7-3-6(7)4-9-5-8-7/h1,5-6H,3-4H2/t6-,7-/m0/s1
