18
gdb 46034	4.54376	0.99055	0.89919	3.8293	73.1	-0.256	0.0301	0.2861	1292.6796	0.149002	-439.080781	-439.072788	-439.071844	-439.113971	29.827	
N	-0.0120610628	 1.2125133252	 0.2099368288	-0.539922
C	-0.005859593	-0.0389442739	 0.0516071359	 0.407747
C	-1.2187065085	-0.9408369057	 0.0373130677	-0.312413
C	-0.7047928286	-2.2122533417	-0.6646040127	-0.04895
C	 0.7834336176	-2.1823786922	-0.276357388	-0.110372
O	 1.1202602132	-0.7938858365	-0.1381855624	-0.239665
C	-1.4544317721	-3.4661172931	-0.2780469405	 0.07013
C	-0.8187566081	-4.773972845	-0.0735243439	-0.187901
O	-1.2350325384	-3.9761407678	 1.0390041675	-0.22985
H	 0.9414581457	 1.5791366344	 0.1961389385	 0.221359
H	-1.5047047186	-1.1711978968	 1.0704653786	 0.147142
H	-2.0664035377	-0.4581328117	-0.4490346331	 0.136548
H	-0.7947302941	-2.0844942753	-1.7504956172	 0.094166
H	 0.9461110439	-2.6909241115	 0.6810454712	 0.129499
H	 1.4454630005	-2.6108441145	-1.0321526498	 0.118381
H	-2.5046590783	-3.4656326745	-0.5755369756	 0.10145
H	-1.3934370633	-5.6841856436	-0.2360577993	 0.123427
H	 0.2582046425	-4.8823691758	-0.1914286755	 0.119223
70.8087	103.5301	162.707	186.3325	258.2852	382.8999	475.3571	503.1389	579.9079	596.3626	681.6236	802.243	850.8165	886.2925	894.0722	903.113	914.4031	974.853	1015.5266	1039.2478	1068.5088	1103.7503	1113.0941	1130.2711	1164.9491	1177.4333	1192.4574	1251.3663	1270.8549	1286.9123	1298.7668	1331.3765	1369.4611	1414.7538	1435.9778	1472.8315	1522.9803	1537.3884	1782.0407	3031.7588	3042.1022	3052.4195	3089.0707	3095.4025	3106.2264	3134.5555	3175.4134	3470.5321
N=C1CC(CO1)C1CO1	[NH][C]1C[C@@H](CO1)[C@H]1CO1	
InChI=1S/C6H9NO2/c7-6-1-4(2-9-6)5-3-8-5/h4-5,7H,1-3H2	InChI=1S/C6H9NO2/c7-6-1-4(2-9-6)5-3-8-5/h4-5,7H,1-3H2/t4-,5+/m0/s1
