22
gdb 103234	2.44654	1.59234	1.19032	1.6685	85.21	-0.2153	0.0644	0.2797	1144.0274	0.193877	-367.115169	-367.106414	-367.10547	-367.148068	34.955	
C	-1.2913435891	 0.3435686942	 0.0548362192	-0.371735
C	 0.225491426	 0.5520602535	 0.1382240127	-0.296163
C	 0.9155666142	-0.3377701543	 1.186180592	 0.331019
C	 1.1408735799	 0.4441900595	 2.4842924384	-0.44551
C	 0.6550864251	-1.7973137996	 1.5215210896	-0.132643
C	 0.6531689704	-2.8023959189	 0.3583426723	-0.042948
C	 0.8643322821	-2.2627125215	-0.9971126469	-0.253908
N	 2.0305073571	-2.3895956795	-0.0927916355	-0.1608
C	 2.0207702191	-1.3566376942	 1.0220811537	-0.063898
H	-1.7587494378	 0.4843175083	 1.035096735	 0.116427
H	-1.7483403472	 1.0571340836	-0.6379829757	 0.111098
H	-1.5411029987	-0.6662376277	-0.2838185633	 0.125281
H	 0.6845853159	 0.450821556	-0.8476228047	 0.114055
H	 0.4169863354	 1.5933536528	 0.4241803624	 0.092549
H	 0.1910086948	 0.8348959561	 2.8664427055	 0.119356
H	 1.5854783872	-0.1778093094	 3.2668189426	 0.116629
H	 1.8073511602	 1.2956462968	 2.3092554673	 0.119884
H	 0.3673004697	-2.0990363663	 2.5213010807	 0.086843
H	 0.4310337985	-3.8512752538	 0.5320010454	 0.097107
H	 0.9200276055	-2.9966362865	-1.7975469261	 0.120365
H	 0.4810718388	-1.3051710223	-1.3080452361	 0.121057
H	 2.9609632629	-1.2607469969	 1.5533268217	 0.095935
93.0376	139.8459	226.5903	237.8628	240.6646	310.1966	334.268	376.0414	405.7505	533.6881	592.8232	658.7655	680.9198	735.3164	779.5952	793.4875	843.0061	878.9246	898.108	962.1579	975.1259	1006.5176	1017.3313	1034.9434	1053.0146	1060.9469	1064.4537	1081.8363	1099.0509	1127.006	1136.942	1188.3479	1229.6226	1267.5445	1283.6058	1287.7617	1356.085	1361.5458	1393.2451	1415.1452	1418.0428	1488.3309	1495.9818	1496.902	1500.3052	1506.71	1532.8753	3025.4681	3033.6475	3037.2018	3081.2936	3090.2127	3104.5316	3105.5159	3112.0996	3132.1012	3149.4288	3167.2302	3183.0493	3280.099
CCC1(C)C2C3CN3C12	CC[C@@]1(C)[C@H]2[C@H]3CN3[C@@H]12	
InChI=1S/C8H13N/c1-3-8(2)6-5-4-9(5)7(6)8/h5-7H,3-4H2,1-2H3	InChI=1S/C8H13N/c1-3-8(2)6-5-4-9(5)7(6)8/h5-7H,3-4H2,1-2H3/t5-,6+,7-,8+,9?/m1/s1
