15
gdb 105141	2.54187	1.2233	0.95955	4.9926	73.9	-0.256	-0.0165	0.2395	1219.5363	0.110444	-416.745744	-416.736485	-416.735541	-416.779996	33.098	
N	-0.0548626998	 1.4188730181	-0.4426217978	-0.502322
C	-0.0197131742	 0.1518916733	 0.2788182176	-0.248462
C	-1.3867936672	-0.4980882734	 0.1977672766	 0.243842
O	-1.716672595	-1.1036948758	-1.056108187	-0.257378
C	-1.5625150121	-1.9739521139	 0.074352309	-0.221354
C	-0.4531304337	-2.887050739	 0.0855811557	 0.326677
C	 0.4395876325	-3.6910705187	 0.1135990755	-0.385297
C	-2.4748393772	 0.2442102693	 0.8169711214	 0.288089
N	-3.3349697778	 0.8060190733	 1.3453256453	-0.330311
H	 0.7948203687	 1.9455067805	-0.2750263573	 0.240048
H	-0.1104973894	 1.2471519125	-1.4415759639	 0.244455
H	 0.716515154	-0.5782512473	-0.0858010997	 0.116102
H	 0.2057715895	 0.3536604275	 1.3318917134	 0.129763
H	-2.502362802	-2.3831512434	 0.4420583388	 0.14295
H	 1.2332674037	-4.397456393	 0.1345889024	 0.213198
81.0811	110.111	123.178	157.6335	215.7409	261.6909	276.3662	359.0596	403.6528	473.9132	541.0382	596.2854	632.4877	652.2852	681.0756	690.5213	827.0096	857.9148	932.6161	947.3147	1022.0328	1077.8554	1088.1394	1176.7334	1239.0415	1304.081	1339.0929	1418.6519	1429.7852	1490.2892	1658.9301	2242.1676	2362.1037	3006.1287	3074.0174	3127.1166	3498.5359	3509.6495	3593.9026
NCC1(OC1C#C)C#N	NC[C@]1(O[C@H]1C#C)C#N	
InChI=1S/C6H6N2O/c1-2-5-6(3-7,4-8)9-5/h1,5H,3,7H2	InChI=1S/C6H6N2O/c1-2-5-6(3-7,4-8)9-5/h1,5H,3,7H2/t5-,6-/m0/s1
