14
gdb 43608	2.34911	1.3685	1.01036	2.5888	72.86	-0.2697	-0.0485	0.2213	1147.3662	0.097973	-399.527101	-399.518568	-399.517624	-399.561133	31.156	
O	-0.0170200275	 0.3409506679	-0.9971081538	-0.269139
C	-0.0195604853	 1.3022560924	-0.2913090111	 0.427874
C	-1.137060026	 2.1458072135	 0.3383408336	-0.385511
C	-0.027953462	 3.1625151461	 0.8415476266	-0.038236
C	 1.0928744672	 2.1761189229	 0.3050872148	-0.385509
C	-0.0556349223	 4.4451405415	 0.1546414305	 0.284442
C	-0.0787202954	 5.4848106648	-0.4454387293	-0.41996
C	-0.0086428074	 3.3354591827	 2.2940609668	 0.252727
N	 0.0071383413	 3.4376047092	 3.4449209264	-0.333602
H	-1.8683886646	 2.5670755172	-0.3531322492	 0.161417
H	-1.657175432	 1.6332579414	 1.1516869274	 0.164706
H	 1.650680424	 1.678187207	 1.102383403	 0.164707
H	 1.7916037042	 2.6168103395	-0.4076596693	 0.161415
H	-0.0990527441	 6.4126365141	-0.9629364764	 0.214668
29.967	125.1671	173.4875	185.6304	237.9895	401.8617	438.5172	458.6242	480.3279	504.2493	584.8141	600.5122	642.2514	669.7494	675.0973	725.8104	865.0831	891.1639	930.5384	1036.6687	1090.8308	1095.2312	1123.1872	1213.6391	1233.1561	1275.6916	1418.9023	1432.4807	1911.9871	2245.3693	2359.9629	3076.9496	3080.8097	3145.0155	3145.9896	3498.4885
O=C1CC(C1)(C#C)C#N	O=C1CC(C1)(C#C)C#N	
InChI=1S/C7H5NO/c1-2-7(5-8)3-6(9)4-7/h1H,3-4H2	InChI=1S/C7H5NO/c1-2-7(5-8)3-6(9)4-7/h1H,3-4H2
