17
gdb 19071	3.61189	2.44287	2.06523	1.4272	65.96	-0.2354	0.07	0.3054	726.3562	0.146148	-363.82248	-363.816749	-363.815805	-363.851914	24.316	
C	-0.0773146043	 1.5691821213	 0.0526534359	-0.250535
C	 1.4614465857	 1.4670671225	-0.0025746662	 0.092634
C	 2.0907876293	 1.2784505412	 1.388345331	-0.222454
C	 1.4074429174	 0.1280101981	 2.1217645377	-0.00935
N	 0.0094257634	 0.3247084436	 2.5571507595	-0.336514
C	 0.2977483879	-0.5500470142	 1.4018544516	-0.044431
C	 0.0400343022	 0.0344624082	 0.0166469294	 0.090238
O	 1.3411309564	 0.1609034607	-0.6418691988	-0.302807
H	-0.5449444709	 2.0294177391	 0.9206989499	 0.126553
H	-0.4870793344	 1.9572831884	-0.8808963824	 0.101862
H	 2.0216280868	 2.175908864	-0.6182866702	 0.072104
H	 3.1493773335	 1.0288612493	 1.2568845177	 0.106106
H	 2.0377164308	 2.2090717807	 1.9660563818	 0.104862
H	 2.0434760039	-0.4740117662	 2.7648799363	 0.086982
H	-0.1759000852	-0.2434786701	 3.3798920111	 0.230075
H	 0.1677009101	-1.6223487724	 1.5169298901	 0.083806
H	-0.6658664927	-0.5482146341	-0.5796032945	 0.070869
253.1067	300.4609	407.6957	436.8018	490.0454	564.9023	667.3216	762.2371	800.0607	852.4928	854.117	888.1986	905.8991	915.4402	943.4424	957.0064	973.8381	1026.6896	1063.3077	1073.2407	1104.1832	1122.1988	1166.3776	1189.1343	1197.564	1247.1219	1256.3682	1260.7926	1316.0748	1332.5184	1344.3842	1373.5383	1397.6598	1444.5815	1464.295	1486.1764	3033.196	3071.3526	3078.7644	3080.2112	3094.592	3138.1595	3150.9882	3165.8347	3499.1679
C1C2CC3NC3C1O2	C1[C@H]2C[C@H]3N[C@H]3[C@@H]1O2	
InChI=1S/C6H9NO/c1-3-2-5(8-3)6-4(1)7-6/h3-7H,1-2H2	InChI=1S/C6H9NO/c1-3-2-5(8-3)6-4(1)7-6/h3-7H,1-2H2/t3-,4-,5-,6-/m1/s1
