18
gdb 53330	3.11085	0.95904	0.86773	1.1152	81.63	-0.2151	0.0397	0.2548	1417.9683	0.145944	-401.865926	-401.856538	-401.855594	-401.90138	34.076	
C	 0.0434125261	 1.5272032927	-0.0667219445	-0.498848
C	 0.0274553219	 0.0737448991	 0.009007023	 0.073672
C	 0.0218171941	-1.1288526322	 0.0824662159	 0.112391
C	-0.0104167949	-2.5791193235	 0.1506708324	-0.262869
N	 0.1079986433	-3.1954630357	 1.5374111465	-0.318592
C	-1.0887337552	-4.021169444	 1.2566171411	-0.079231
C	-2.2692005266	-3.0912654288	 1.1154864341	-0.333134
C	-1.3502721424	-3.322404306	-0.0552756844	 0.364919
O	-1.7596279302	-3.8196090557	-1.2743896605	-0.457288
H	 0.8656288204	 1.8867307314	-0.6953594373	 0.14755
H	-0.8905788423	 1.9159359443	-0.4877871407	 0.145993
H	 0.1671530202	 1.9715835374	 0.927093521	 0.15186
H	 0.7298410035	-3.01267982	-0.531444198	 0.104706
H	 0.9419864685	-3.7753526544	 1.565996976	 0.222191
H	-1.1685895708	-5.0579288865	 1.5576580564	 0.102448
H	-3.2265037768	-3.5935646645	 1.0141719454	 0.112297
H	-2.2787770222	-2.1468495853	 1.6528182205	 0.122346
H	-2.3850883465	-3.1962682285	-1.661392107	 0.289589
26.7871	82.9185	84.9174	203.5791	246.1036	277.9088	335.7452	356.1787	391.0535	448.2011	488.8931	525.133	645.3467	713.8235	792.1084	857.9221	869.4894	910.8614	969.3326	975.7256	998.0726	1020.1408	1051.7215	1054.2647	1068.6892	1104.892	1171.0631	1193.0681	1221.9962	1244.2277	1316.9919	1350.9973	1371.674	1412.7596	1414.6191	1477.533	1478.6056	1494.0772	2365.7833	3026.0566	3039.9124	3085.7465	3087.9903	3113.5911	3196.1629	3212.031	3503.9913	3783.3143
CC#CC1NC2CC12O	CC#C[C@H]1N[C@H]2C[C@@]12O	
InChI=1S/C7H9NO/c1-2-3-5-7(9)4-6(7)8-5/h5-6,8-9H,4H2,1H3	InChI=1S/C7H9NO/c1-2-3-5-7(9)4-6(7)8-5/h5-6,8-9H,4H2,1H3/t5-,6+,7-/m1/s1
