20
gdb 111017	2.50807	1.25398	0.98468	4.2423	85.	-0.3015	0.0257	0.3272	1277.7362	0.172045	-365.985529	-365.977002	-365.976058	-366.019056	32.561	
C	-0.0445692143	 1.5949203528	 0.0069186638	-0.376583
C	-0.1906831248	 0.0699447488	-0.074723037	-0.242379
C	 0.6259496506	-0.5197949798	-1.214869313	 0.032728
C	 2.1749367522	-0.7479923377	-1.1263570745	-0.081282
C	 1.9085628659	-1.9759932706	-0.2066378439	-0.262135
C	 0.8559749341	-2.0695623895	-1.3578741871	 0.212674
C	 2.0224459316	-1.7176936901	-2.3341006984	-0.256026
C	-0.1572942844	-3.0792170522	-1.5363241481	 0.151992
N	-0.9802940172	-3.8800610927	-1.6763145793	-0.355113
H	 0.9919448434	 1.8857054123	 0.2085582342	 0.118362
H	-0.346232889	 2.0734027736	-0.9311821254	 0.118967
H	-0.6677610462	 2.0067757422	 0.8059992442	 0.119269
H	 0.0820256202	-0.3732372383	 0.8879270291	 0.103791
H	-1.2445894546	-0.1877185503	-0.2396521207	 0.115795
H	 0.3172013402	-0.060457854	-2.1616003812	 0.076787
H	 2.9448773717	 0.0111234046	-0.9963618456	 0.08585
H	 2.6726199544	-2.756570971	-0.2046200218	 0.108693
H	 1.5305700517	-1.7948912956	 0.7987720977	 0.112585
H	 1.7323911895	-1.2791111213	-3.291586717	 0.108071
H	 2.7920063948	-2.4835554712	-2.4510812257	 0.107955
64.1925	107.8514	177.2122	206.4983	218.8136	335.8491	365.6249	511.2852	524.2023	544.734	575.859	619.6772	741.3078	795.4356	825.5646	863.6476	919.5002	947.7792	958.1816	973.1182	1011.9827	1033.4763	1057.7377	1098.8634	1117.7038	1135.1454	1154.5727	1173.9238	1181.2891	1216.3486	1237.8938	1239.1894	1265.7367	1296.3876	1348.5774	1412.3568	1432.0417	1483.5104	1500.2908	1502.5428	1510.452	1543.937	2347.274	3030.2782	3033.4175	3034.9647	3064.5381	3072.6556	3080.3063	3103.0592	3109.1855	3127.845	3135.191	3149.8114
CCC1C2CC1(C2)C#N	CC[C@H]1[C@H]2C[C@@]1(C2)C#N	
InChI=1S/C8H11N/c1-2-7-6-3-8(7,4-6)5-9/h6-7H,2-4H2,1H3	InChI=1S/C8H11N/c1-2-7-6-3-8(7,4-6)5-9/h6-7H,2-4H2,1H3/t6-,7-,8+/m0/s1
