15
gdb 24036	4.43836	1.05184	0.87402	2.1125	77.71	-0.2655	-0.0374	0.2281	1247.1786	0.115351	-379.744464	-379.737035	-379.736091	-379.777842	27.159	
N	-0.3643167716	-0.7849388717	-1.1898538141	-0.307893
C	-0.1841938815	 0.1438792293	-0.5268992266	 0.269763
C	 0.0519690365	 1.3320326398	 0.2916316812	-0.446924
C	 1.4427922316	 1.9238434057	 0.1283389287	 0.252342
C	 2.0283890467	 2.6095180101	 1.1944143862	-0.052319
N	 3.2217415201	 3.2000204314	 1.1406688544	-0.261677
C	 3.8933349927	 3.1192420496	-0.0109046564	 0.006121
C	 3.4097345013	 2.453535624	-1.1336758818	-0.115809
C	 2.1621630425	 1.8450435709	-1.0624407646	-0.150831
H	-0.7117060101	 2.0765132946	 0.0297168557	 0.173389
H	-0.123853782	 1.0730725187	 1.3414737039	 0.166942
H	 1.5019368971	 2.6819279949	 2.1452979631	 0.106456
H	 4.8653114623	 3.6055968395	-0.0344592985	 0.116176
H	 3.9997532171	 2.4096060054	-2.0421573346	 0.112051
H	 1.7571511174	 1.307267268	-1.9136432166	 0.132213
21.4658	117.4861	213.7173	315.7059	374.6664	410.2121	445.156	470.6457	621.0241	662.2337	737.6512	804.9739	830.8392	930.692	952.3697	962.7092	995.9814	1008.5969	1039.432	1068.4883	1147.1396	1206.1193	1229.3159	1242.8879	1289.8433	1324.4696	1376.5313	1457.0006	1462.1811	1512.7376	1615.0429	1634.5047	2365.7022	3027.525	3074.5054	3135.195	3161.2405	3184.2362	3202.9452
N#CCC1=CN=CC=C1	N#CCc1cnccc1	
InChI=1S/C7H6N2/c8-4-3-7-2-1-5-9-6-7/h1-2,5-6H,3H2	InChI=1S/C7H6N2/c8-4-3-7-2-1-5-9-6-7/h1-2,5-6H,3H2
