22
gdb 110854	2.20245	1.2906	1.09935	2.2068	82.1	-0.23	0.0699	0.2999	1262.5892	0.193248	-404.301441	-404.29158	-404.290636	-404.33592	36.94	
C	-0.4143604999	 1.5825649115	 0.0383040528	-0.428241
C	-0.0683675399	 0.0985604648	 0.1005080187	-0.021705
C	 0.8478322504	-0.5915443185	-0.9433453149	-0.1963
N	 1.6753526606	-1.2605236795	 0.1264452533	-0.201333
C	 2.3162808086	-0.1800994166	 0.9255043152	-0.058126
C	 3.0045529253	 1.022023396	 0.3216711809	-0.100611
O	 4.2929902713	 0.6682127464	-0.1633099262	-0.420228
C	 0.8825330984	-0.4580395104	 1.1705318362	 0.294291
C	 0.3975158139	-1.0618233275	 2.4586233892	-0.489459
H	 0.4698780811	 2.2208100194	-0.0322209662	 0.123875
H	-1.047352429	 1.7943697122	-0.8305550287	 0.118366
H	-0.9717161928	 1.8875586246	 0.9310783819	 0.118766
H	-1.0041116944	-0.4676953541	 0.1637501121	 0.082863
H	 0.3470983174	-1.3534599401	-1.5435641062	 0.109775
H	 1.4111037663	 0.059750572	-1.6193961372	 0.099703
H	 2.9627341292	-0.6395969172	 1.6733369589	 0.099354
H	 2.408516721	 1.5006584886	-0.4637104954	 0.091514
H	 3.1713956335	 1.7737145748	 1.1011148972	 0.113446
H	 4.1818564751	-0.1055298249	-0.7266403366	 0.290719
H	 0.0952711647	-0.2786756605	 3.1645330303	 0.121819
H	-0.4677965526	-1.7113178082	 2.2869891501	 0.121209
H	 1.181223082	-1.658434173	 2.9337699845	 0.130303
72.9366	143.7375	160.2134	172.5813	184.103	209.8727	272.1177	314.0337	340.9772	388.6186	406.7029	541.2084	559.727	624.0341	689.8216	744.8123	817.5397	880.8604	913.6704	936.8792	954.6779	1026.7204	1048.9941	1068.9137	1090.5485	1104.5901	1117.6542	1144.2923	1165.0063	1190.5832	1220.4127	1247.2319	1275.9439	1315.0143	1333.2228	1360.5666	1388.4214	1410.7069	1413.8066	1415.8637	1473.6194	1486.1078	1493.078	1494.6637	1497.5944	1499.1333	1525.8042	3025.7447	3030.2924	3033.0212	3040.1297	3051.7525	3070.3872	3086.6757	3091.8295	3107.5835	3109.8167	3115.4411	3119.8851	3805.7468
CC1CN2C(CO)C12C	C[C@H]1CN2[C@@H](CO)[C@@]12C	
InChI=1S/C7H13NO/c1-5-3-8-6(4-9)7(5,8)2/h5-6,9H,3-4H2,1-2H3	InChI=1S/C7H13NO/c1-5-3-8-6(4-9)7(5,8)2/h5-6,9H,3-4H2,1-2H3/t5-,6-,7+,8?/m0/s1
