17
gdb 31086	2.31015	1.47328	0.91434	1.5583	73.74	-0.1981	0.0128	0.2109	1262.6527	0.134991	-455.171502	-455.161995	-455.161051	-455.206369	33.217	
C	-0.0776123917	 1.4656228775	-0.1615426224	-0.233241
O	 0.0015706683	 0.0467605052	-0.0703451319	-0.266445
C	-1.1683512735	-0.6077523899	-0.0042348947	 0.337688
C	-1.3299810227	-1.9563135923	 0.0895659015	 0.137934
N	-0.4477200589	-3.0218829912	 0.144876293	-0.597886
O	-2.7168132147	-2.1642899655	 0.129263482	-0.199069
C	-3.2624839113	-0.9389095681	 0.056977067	 0.384885
C	-4.7446580226	-0.8249116526	 0.0769291047	-0.486187
N	-2.3940395063	 0.0279057124	-0.024236772	-0.392274
H	 0.9550153424	 1.8156079649	-0.2038313958	 0.126701
H	-0.6154904217	 1.7785703028	-1.0623638052	 0.129554
H	-0.5821432604	 1.8943672113	 0.710442957	 0.129496
H	-0.5027335398	-3.5513038322	 1.0084326514	 0.244857
H	-0.5330735831	-3.661876953	-0.6375350708	 0.24486
H	-5.1941965563	-1.3650900941	-0.7630717095	 0.143151
H	-5.1612602581	-1.2460657122	 0.9981080419	 0.143148
H	-5.0204174994	 0.227894417	 0.0109248238	 0.152828
59.8461	88.8181	154.5068	179.9482	192.8151	193.3975	262.8775	269.8525	371.367	381.1012	570.7944	612.8909	645.6921	662.9929	733.0107	735.2459	839.4182	991.3459	1012.313	1058.2434	1063.1901	1115.4444	1179.0989	1202.3718	1211.5334	1255.2379	1343.9049	1398.505	1412.1888	1475.6591	1481.2766	1481.4185	1490.9556	1503.3654	1607.1986	1655.9654	1740.6155	3031.3505	3040.893	3093.7517	3097.1931	3140.2897	3154.7113	3497.5798	3563.8453
COC1=C(N)OC(C)=N1	COc1c(N)oc(C)n1	
InChI=1S/C5H8N2O2/c1-3-7-5(8-2)4(6)9-3/h6H2,1-2H3	InChI=1S/C5H8N2O2/c1-3-7-5(8-2)4(6)9-3/h6H2,1-2H3
