14
gdb 32068	3.98332	1.20082	0.92797	1.523	68.04	-0.269	-0.0832	0.1858	1170.3989	0.101572	-470.030915	-470.023056	-470.022112	-470.064186	27.904	
O	 0.1755971847	 1.3439053109	-0.0781192188	-0.416149
C	 0.0340751396	-0.0450048351	-0.09420179	-0.128961
C	-1.4053250852	-0.4736883135	-0.0373621042	 0.420603
N	-2.346786678	 0.404854489	 0.0178998652	-0.3597
C	-3.6218727576	-0.1305421732	 0.0662870747	 0.075285
N	-3.9323554669	-1.3804414568	 0.0602153903	-0.286331
C	-2.8991807772	-2.3048892677	-0.0008561204	 0.434354
N	-2.9781014881	-3.5604578675	-0.0185750406	-0.50946
O	-1.5804228293	-1.7894899048	-0.0501016268	-0.20327
H	-0.7188776357	 1.7130733957	-0.0332778664	 0.30169
H	 0.4760932471	-0.4844988118	-1.0024950079	 0.140892
H	 0.5540376344	-0.5127273824	 0.7569030338	 0.140914
H	-4.4292417236	 0.5968972826	 0.1140216528	 0.144124
H	-3.9611928742	-3.8250013954	 0.0203767984	 0.246009
62.1933	90.2753	156.1275	206.3973	302.9054	381.3793	405.0788	494.4788	568.5498	612.2497	654.7644	772.0043	805.6414	863.9998	876.5559	968.9768	1010.2122	1015.2596	1036.0847	1132.4735	1200.3748	1247.0658	1251.2357	1301.3834	1352.5574	1420.5378	1469.3222	1488.1266	1592.4774	1681.2582	1762.842	2988.3366	3005.6451	3167.1992	3522.6228	3718.478
OCC1=NC=NC(=N)O1	OC[C@@H]1N=CN=C([NH])O1	
InChI=1S/C4H5N3O2/c5-4-7-2-6-3(1-8)9-4/h2,5,8H,1H2	InChI=1S/C4H6N3O2/c5-4-7-2-6-3(1-8)9-4/h2-3,5,8H,1H2/t3-/m1/s1
