17
gdb 30557	6.29404	0.76458	0.70241	1.834	81.37	-0.2006	0.0148	0.2154	1594.7669	0.13614	-418.031849	-418.023215	-418.022271	-418.065957	31.389	
C	 0.1260791708	 1.0317820024	-0.62429496	-0.315341
N	-0.2577725488	 0.2922035978	 0.5607147633	-0.198081
C	 0.5739034505	-0.5219766188	 1.0263530487	 0.106846
O	 0.2775305355	-1.215438364	 2.1639149497	-0.231363
C	 1.1082995036	-2.2422876776	 2.5007332411	 0.374622
C	 1.7001439114	-3.2488401247	 1.7770419878	-0.267946
C	 2.428513959	-4.0400667893	 2.7169916026	-0.132519
C	 2.2448786713	-3.4948083345	 3.9625644755	-0.092807
N	 1.4370081566	-2.3869517857	 3.8187496198	-0.298287
H	 1.1280398992	 0.7798221707	-1.006874066	 0.100904
H	-0.6048111069	 0.8488576703	-1.419689639	 0.132217
H	 0.0996177789	 2.1057542685	-0.4086645049	 0.131671
H	 1.5675407013	-0.7540171875	 0.621163446	 0.098155
H	 1.602046277	-3.4134258086	 0.716261037	 0.102276
H	 3.0120017738	-4.9193777518	 2.4927189469	 0.098515
H	 2.6059706434	-3.7930993073	 4.9326541773	 0.121069
H	 1.1197443934	-1.7721640799	 4.5480313143	 0.27007
47.129	94.126	120.3472	208.9984	279.7819	298.8855	367.39	399.3221	459.3869	527.7566	627.8322	654.0025	707.0729	773.5613	777.581	843.1375	893.0921	984.3946	995.506	1048.3571	1060.2317	1103.5668	1135.98	1141.9198	1149.4592	1199.8022	1279.0818	1296.8568	1383.9959	1427.5394	1449.4962	1481.6006	1486.8212	1504.2817	1514.1651	1616.5451	1780.1455	2975.6532	3038.2906	3064.2239	3083.295	3249.5399	3264.0065	3279.9794	3684.292
CN=COC1=CC=CN1	CN=COc1ccc[nH]1	
InChI=1S/C6H8N2O/c1-7-5-9-6-3-2-4-8-6/h2-5,8H,1H3	InChI=1S/C6H8N2O/c1-7-5-9-6-3-2-4-8-6/h2-5,8H,1H3
