20
gdb 73574	2.17941	2.11151	1.5218	1.566	77.02	-0.2302	0.0799	0.31	970.6623	0.172672	-403.103679	-403.096095	-403.09515	-403.135214	30.711	
C	-0.044241053	 1.4601262714	-0.0249591944	-0.486662
C	-0.0063922957	-0.0597119805	-0.0331984716	 0.311881
C	-1.3076885789	-0.7259904355	-0.5019991827	-0.147284
O	-1.4270400559	-1.9508855856	 0.2223697489	-0.25705
C	-0.8149177947	-1.7797586647	 1.5033934118	-0.111657
C	 0.3196723887	-0.7807524271	 1.3061240121	-0.028686
N	 1.663952812	-1.2656936532	 0.799952793	-0.15119
C	 1.4375015998	-2.1097983079	-0.3951208161	-0.265866
C	 1.3243167124	-0.6464897476	-0.5464155116	-0.079455
H	 0.8865637447	 1.8748762206	 0.3745427352	 0.128656
H	-0.1749703418	 1.857048173	-1.0387041515	 0.120305
H	-0.8724589693	 1.8317752039	 0.5877497554	 0.118118
H	-2.1676885167	-0.0697769795	-0.2889909904	 0.088334
H	-1.317725399	-0.9741720937	-1.5677936642	 0.110354
H	-1.5427938531	-1.3821561436	 2.2288192613	 0.09568
H	-0.4829597129	-2.7633507043	 1.8491278574	 0.119743
H	 0.4831924935	-0.1399303971	 2.1740660491	 0.083682
H	 2.3634306096	-2.5601148238	-0.7413770857	 0.117412
H	 0.5638497696	-2.747235963	-0.4620596864	 0.144986
H	 2.0600799807	-0.0613803319	-1.0917824097	 0.0887
155.4015	218.6076	236.5588	255.8027	296.0251	325.4016	412.6421	507.1958	580.1422	633.756	736.3258	749.7641	758.2968	839.6916	889.4919	910.7458	928.9006	950.1992	991.5891	1007.7128	1017.5033	1061.5574	1082.769	1094.5465	1133.69	1154.0844	1175.6998	1187.7538	1213.9072	1222.4127	1253.3764	1257.4639	1279.9151	1329.7763	1344.6587	1369.4829	1405.526	1417.0916	1490.6256	1495.1325	1499.5642	1500.2647	1510.7848	2966.3571	2977.5745	3025.3329	3077.9142	3083.9095	3088.3978	3097.8169	3103.6593	3126.5802	3143.5197	3221.1953
CC12COCC1N1CC21	C[C@]12COC[C@H]1N1C[C@@H]21	
InChI=1S/C7H11NO/c1-7-4-9-3-6(7)8-2-5(7)8/h5-6H,2-4H2,1H3	InChI=1S/C7H11NO/c1-7-4-9-3-6(7)8-2-5(7)8/h5-6H,2-4H2,1H3/t5-,6+,7+,8?/m0/s1
