20
gdb 10750	3.1448	1.47617	1.35966	2.6352	75.03	-0.2422	-0.0169	0.2252	1031.5601	0.174707	-349.005947	-348.996734	-348.995789	-349.039874	33.876	
C	 0.1390007828	 1.4973333661	 0.0363558998	-0.407705
C	-0.0089984107	-0.0293062757	 0.0596830791	 0.142496
C	 0.5689189878	-0.6103628791	 1.3651751321	-0.445281
C	-1.4843633069	-0.4223472748	 0.0127414881	 0.151983
O	-2.4104618485	 0.3415907541	-0.0751053035	-0.253387
C	 0.6166696044	-0.6300901755	-1.2077644186	 0.017167
C	 2.0796124749	-0.9762231266	-1.3385524225	-0.284981
C	 1.0435043408	-2.0716319547	-1.3508929944	-0.282941
H	 1.1970030063	 1.7755230093	 0.0513982373	 0.110559
H	-0.3181998474	 1.9207151722	-0.8617619574	 0.124217
H	-0.3547863098	 1.9525609617	 0.8992511019	 0.120411
H	 0.0905960663	-0.1395252883	 2.229546828	 0.129041
H	 0.4091958935	-1.6899933746	 1.4459395188	 0.121415
H	 1.6429044669	-0.4176153623	 1.4382652984	 0.127212
H	-1.6528948381	-1.5240662193	 0.055705032	 0.072234
H	 0.1796835461	-0.2015035423	-2.1070844872	 0.094175
H	 2.5770056677	-0.718583472	-2.2669349537	 0.1165
H	 2.7154340888	-0.8977876173	-0.4640821987	 0.115387
H	 0.9962533923	-2.7196604311	-0.4831971613	 0.115401
H	 0.8275543726	-2.5754576298	-2.2864404285	 0.116096
57.1451	70.6235	184.4944	226.1241	247.4813	257.1936	278.2276	346.8457	362.313	407.0137	453.2486	606.7167	724.4503	788.6427	829.2991	840.2301	905.7243	924.3153	953.979	962.9042	1011.6657	1049.3209	1060.0625	1082.8347	1095.2607	1150.8506	1183.7601	1200.2319	1223.1652	1252.699	1268.372	1389.5068	1401.1593	1415.8766	1434.5269	1466.4842	1482.3918	1487.5303	1504.571	1509.7773	1511.5406	1829.5909	2859.0575	3039.6733	3045.1598	3107.5737	3113.0182	3117.7537	3120.4097	3127.2129	3137.3216	3141.6066	3212.976	3227.4432
CC(C)(C=O)C1CC1	CC(C)(C=O)C1CC1	
InChI=1S/C7H12O/c1-7(2,5-8)6-3-4-6/h5-6H,3-4H2,1-2H3	InChI=1S/C7H12O/c1-7(2,5-8)6-3-4-6/h5-6H,3-4H2,1-2H3
