23
gdb 57339	1.95065	1.45429	1.29732	2.7262	81.01	-0.2475	-0.0251	0.2225	1183.494	0.2006	-425.443838	-425.432577	-425.431632	-425.478913	42.551	
C	 0.1179207651	 1.5643671693	 0.0629450167	-0.428255
C	 0.0010460109	 0.0307865095	-0.0151260804	 0.257815
C	 0.5677066811	-0.5857526234	 1.2788880913	-0.446691
C	-1.4866765791	-0.3645406904	-0.1284403297	-0.431011
C	 0.7828291327	-0.5397503498	-1.2646402859	 0.257852
C	 2.2305627044	-0.0438624358	-1.3782002175	-0.45936
O	 0.7357279856	-1.9695743099	-1.2706994352	-0.477519
C	 0.0413672921	-0.1678402831	-2.553411106	 0.154865
O	 0.0708621827	 0.9184029903	-3.0719052246	-0.268446
H	 1.1385568021	 1.8822171678	 0.2961229333	 0.110641
H	-0.1778801751	 2.0409466376	-0.8745846604	 0.14284
H	-0.5328076009	 1.9430721989	 0.85840085	 0.108643
H	 0.035976828	-0.1757321949	 2.1436046177	 0.120149
H	 0.4333480069	-1.6717004003	 1.303904748	 0.111864
H	 1.6298623232	-0.3610688425	 1.419057479	 0.112511
H	-1.9817232992	 0.1533070411	-0.9566402809	 0.122456
H	-1.5936213896	-1.4415932423	-0.2820725305	 0.128341
H	-2.0204295144	-0.093634304	 0.7881872483	 0.109252
H	 2.7874067242	-0.204493736	-0.4502255122	 0.112564
H	 2.7360491671	-0.5909817143	-2.179133557	 0.127055
H	 2.2566384981	 1.0190487559	-1.6231358119	 0.14935
H	 1.361957408	-2.2923201713	-0.6162513683	 0.285132
H	-0.5318013137	-1.0141268125	-2.989157544	 0.099951
80.5522	106.7907	211.6408	221.2618	237.9752	248.9666	261.3814	263.1043	283.6879	298.7559	323.4678	348.0902	352.3514	394.4393	431.3707	471.5943	488.5487	609.8513	674.6219	818.4335	891.511	933.8204	936.4561	941.0017	962.6584	990.0491	1033.9243	1045.625	1103.6133	1153.4851	1164.9949	1240.7318	1250.64	1256.5659	1356.4005	1390.2322	1394.1398	1401.5088	1409.6922	1430.3547	1479.3894	1489.5586	1491.0977	1493.6597	1502.4601	1508.7331	1512.8538	1524.7003	1830.7166	2908.1115	3031.0821	3034.196	3040.0927	3048.2933	3096.5125	3097.747	3101.2886	3103.6247	3114.9257	3119.7883	3127.6869	3144.4761	3838.1003
CC(C)(C)C(C)(O)C=O	CC(C)(C)[C@@](C)(O)C=O	
InChI=1S/C7H14O2/c1-6(2,3)7(4,9)5-8/h5,9H,1-4H3	InChI=1S/C7H14O2/c1-6(2,3)7(4,9)5-8/h5,9H,1-4H3/t7-/m0/s1
