22
gdb 86338	1.98584	1.69292	1.02609	1.9322	82.34	-0.2357	0.0762	0.3119	1227.2917	0.193987	-404.305829	-404.296584	-404.29564	-404.339804	35.479	
C	-0.9079745639	 1.0949686219	 0.1416149602	-0.411019
C	 0.0266914988	-0.0887690604	-0.0580956871	 0.026324
C	 1.3930346689	 0.1433215218	-0.7623599276	-0.279521
C	 2.0243681426	-0.8819306664	 0.2161744495	 0.157409
O	 3.3030795845	-0.6502699399	 0.7390462734	-0.439803
C	 0.7938582527	-0.6919838262	 1.1615433826	-0.022171
N	 1.1226725462	 0.304132563	 2.1706350483	-0.08585
C	 0.2076581513	 0.4188424715	 3.3037983012	-0.221717
C	 1.5388493039	-0.2208104433	 3.4716113511	-0.220483
H	-0.404762052	 1.9024303026	 0.680521443	 0.126983
H	-1.2403037344	 1.4882924122	-0.8254343123	 0.112828
H	-1.8029892416	 0.8147320063	 0.7085299212	 0.10816
H	-0.5098424793	-0.9040789087	-0.5562664215	 0.071758
H	 1.4661702349	-0.0562083436	-1.8340663057	 0.093849
H	 1.7740988519	 1.1494056155	-0.5607401028	 0.100789
H	 2.0386861229	-1.8884712715	-0.2114680887	 0.085719
H	 3.2424224795	 0.1766711917	 1.2332162447	 0.286216
H	 0.3612143196	-1.6012999347	 1.6100741785	 0.042312
H	 0.0280375006	 1.4261249988	 3.6678260882	 0.118502
H	-0.6642754654	-0.2323644393	 3.3154079675	 0.113856
H	 1.5676161806	-1.3015466386	 3.5935613739	 0.11922
H	 2.3468683378	 0.3132175473	 3.9629887624	 0.11664
84.7572	89.3661	153.8384	194.5576	229.148	287.849	322.5404	356.5825	408.4173	452.1502	479.6956	598.6344	641.3821	758.7609	779.0236	833.6158	888.5052	898.6229	917.9169	950.27	963.1644	1014.634	1040.4842	1069.8591	1087.0048	1114.2283	1122.521	1132.1796	1156.0416	1161.4147	1178.588	1190.5151	1223.5584	1254.9759	1267.9241	1290.0406	1321.367	1328.0994	1367.9324	1373.8716	1405.1899	1444.277	1481.7567	1491.9626	1493.1002	1502.3723	1518.3523	2952.7768	3028.9683	3040.9038	3054.2336	3071.9145	3088.7626	3100.7746	3105.0506	3111.3528	3116.3727	3181.8436	3196.0171	3780.3264
CC1CC(O)C1N1CC1	C[C@H]1C[C@@H](O)[C@H]1N1CC1	
InChI=1S/C7H13NO/c1-5-4-6(9)7(5)8-2-3-8/h5-7,9H,2-4H2,1H3	InChI=1S/C7H13NO/c1-5-4-6(9)7(5)8-2-3-8/h5-7,9H,2-4H2,1H3/t5-,6+,7-/m0/s1
