15
gdb 34769	2.15217	1.86796	1.20731	1.8557	76.12	-0.2358	0.0157	0.2515	1026.4213	0.10996	-383.36275	-383.354612	-383.353668	-383.395401	31.057	
C	-0.3587070419	-1.1811792119	 0.0286825717	-0.418283
C	-0.1622742679	 0.0045127211	 0.0427186502	 0.327331
C	 0.0034020158	 1.4285738816	 0.0530101224	-0.245776
C	 0.5332769379	 2.2104479437	 1.230540342	 0.080271
O	 1.5115136301	 1.472836178	 1.9543722151	-0.282582
C	 2.4186768337	 1.5307381778	 0.8051097169	-0.078637
C	 3.0346229528	 0.2742070581	 0.4239435003	 0.336742
C	 3.618794382	-0.7262880128	 0.1058960292	-0.421033
C	 1.3272922168	 2.1865789459	-0.0493120525	-0.167336
H	-0.5059150363	-2.2324795958	 0.0231730315	 0.194369
H	-0.7784523305	 1.9759395074	-0.471760339	 0.121918
H	-0.0128075884	 2.9858606945	 1.7547246649	 0.116629
H	 3.2012153567	 2.2665965827	 1.0300397869	 0.119784
H	 4.104284585	-1.6260653132	-0.1818918009	 0.202203
H	 1.5018405441	 2.9374704128	-0.8072937487	 0.1144
99.9343	117.1996	157.6588	207.3801	320.3009	356.4953	480.1192	518.9653	575.2582	597.6065	623.7177	638.9713	656.2213	682.4761	749.5617	798.1576	805.2712	898.6931	941.9531	973.8311	1005.4094	1036.7805	1041.581	1053.3339	1111.443	1171.2543	1239.9537	1270.7491	1328.3558	1360.5588	1417.3644	2239.054	2241.4174	3023.428	3122.2785	3184.7305	3210.6852	3502.8614	3505.8129
C#CC1C2OC(C#C)C12	C#C[C@H]1[C@H]2O[C@@H](C#C)[C@@H]12	
InChI=1S/C8H6O/c1-3-5-7-6(4-2)9-8(5)7/h1-2,5-8H	InChI=1S/C8H6O/c1-3-5-7-6(4-2)9-8(5)7/h1-2,5-8H/t5-,6+,7-,8-/m1/s1
