17
gdb 100367	2.5635	1.11383	0.95373	1.554	71.39	-0.2836	-0.0062	0.2774	1278.4571	0.133044	-455.144483	-455.134401	-455.133457	-455.179761	35.284	
C	-0.0034571513	 1.634914887	 0.0294519342	-0.413118
C	-0.0244439639	 0.1030990243	 0.0089022822	 0.187261
C	 0.6667584672	-0.4859210827	 1.2686929468	-0.101794
O	 2.0162821381	-0.1033832574	 1.3624284493	-0.40948
O	-1.3556236656	-0.4125077691	 0.066871216	-0.221322
C	-2.1575836404	-0.2744720732	-1.0211752544	 0.120632
N	-3.3866316019	-0.5199158668	-0.9081410481	-0.431421
C	 0.6996723996	-0.4082329803	-1.1783792583	 0.242098
N	 1.3091845532	-0.8169916777	-2.0716493278	-0.332099
H	 1.022666289	 1.9819035471	 0.1656951018	 0.158891
H	-0.4039690066	 2.0565811247	-0.8953061623	 0.134104
H	-0.6135673949	 1.9781306255	 0.8690408261	 0.145559
H	 0.1506052901	-0.0803764604	 2.1430339628	 0.13725
H	 0.5272742519	-1.5739674469	 1.2609813733	 0.125822
H	 2.5230248721	-0.6051113688	 0.7138682395	 0.303964
H	-1.6242005629	 0.0221546112	-1.9317230343	 0.115219
H	-3.8499541536	-0.4118480566	-1.8082232167	 0.238433
71.9949	109.3537	118.1249	135.667	171.7034	211.776	230.5989	294.875	366.6187	392.9883	402.7384	411.8224	514.9882	588.203	690.2541	739.8999	824.6845	906.0282	939.5695	972.3287	1043.0902	1065.4973	1107.8578	1132.2317	1160.8986	1198.2757	1265.1869	1287.0986	1378.6072	1402.0005	1411.283	1425.332	1483.0155	1489.2587	1501.9071	1748.2899	2346.4907	3033.3646	3054.1169	3057.6917	3107.2338	3134.6074	3148.629	3519.2316	3804.1368
CC(CO)(OC=N)C#N	C[C@@](CO)(O[CH][NH])C#N	
InChI=1S/C5H8N2O2/c1-5(2-6,3-8)9-4-7/h4,7-8H,3H2,1H3	InChI=1S/C5H8N2O2/c1-5(2-6,3-8)9-4-7/h4,7-8H,3H2,1H3/t5-/m1/s1
