25
gdb 121834	3.91674	0.66052	0.64769	0.2986	86.54	-0.248	0.0626	0.3106	1905.1348	0.225185	-426.624251	-426.612331	-426.611387	-426.661651	42.797	
C	 0.0590634264	 1.4811822825	 0.2799180565	-0.393518
C	-0.0222397699	-0.0134510769	-0.0437361109	-0.194118
C	 0.6793463427	-0.4402285081	-1.3543741784	 0.337654
C	 0.0788430864	 0.2667080086	-2.5735210351	-0.402613
O	 2.0552640973	-0.0283789216	-1.3266414052	-0.458851
C	 0.5954067843	-1.9764734103	-1.4819769295	-0.225798
C	 1.3113960735	-2.5637350815	-2.6932081927	-0.06785
O	 1.3420327521	-3.9693073451	-2.5391375119	-0.232881
C	 1.9827929731	-4.6197889685	-3.6080075731	-0.226557
H	 1.0931100791	 1.8312596704	 0.2194280924	 0.125614
H	-0.5394225132	 2.0829621485	-0.4102222426	 0.117418
H	-0.3124624756	 1.6770792023	 1.2902815305	 0.10865
H	 0.4357085583	-0.5844446494	 0.7766767034	 0.082802
H	-1.0702302238	-0.3357274256	-0.0822038337	 0.09562
H	 0.1542036855	 1.3506716408	-2.4647250979	 0.124113
H	 0.6147819775	-0.0095267568	-3.4846008037	 0.124132
H	-0.9752751794	 0.0000440044	-2.6951361272	 0.111221
H	 2.4702669715	-0.4481089303	-0.5646003	 0.275146
H	 1.0414853038	-2.4277422212	-0.5855417488	 0.092912
H	-0.45470272	-2.2906123653	-1.492444337	 0.10149
H	 0.7929282828	-2.3000857995	-3.6294866687	 0.083588
H	 2.3322855508	-2.1564404719	-2.760199767	 0.096191
H	 1.4721391155	-4.435274979	-4.5672172855	 0.100726
H	 3.0313929608	-4.2980266582	-3.7151210156	 0.101357
H	 1.9628871604	-5.6927109983	-3.4001214281	 0.123554
60.2445	69.1847	106.0535	113.6888	137.889	200.6943	230.0802	236.4616	259.1752	297.3265	320.4036	336.5501	350.6123	393.9258	438.6543	496.5628	593.9907	758.113	781.5019	801.9226	900.1536	942.5172	973.1403	994.688	1003.5122	1041.1338	1084.5198	1088.3503	1145.2459	1159.8161	1177.1693	1182.4409	1213.1088	1230.2576	1244.3862	1290.1804	1304.9765	1332.4111	1367.7975	1387.1439	1406.6389	1419.5938	1428.9266	1471.5141	1480.8288	1484.9985	1486.9647	1487.9531	1495.6958	1505.7463	1509.596	1515.4526	1537.6536	2959.4653	2971.6825	3001.7706	3003.3997	3006.7547	3021.3272	3043.4689	3048.2212	3051.5934	3071.6055	3107.2242	3109.201	3121.1967	3123.8345	3131.6828	3794.8577
CCC(C)(O)CCOC	CC[C@@](C)(O)CCOC	
InChI=1S/C7H16O2/c1-4-7(2,8)5-6-9-3/h8H,4-6H2,1-3H3	InChI=1S/C7H16O2/c1-4-7(2,8)5-6-9-3/h8H,4-6H2,1-3H3/t7-/m1/s1
