17
gdb 39366	2.79831	1.9173	1.32123	2.7875	72.66	-0.2478	0.0092	0.2569	956.9682	0.139276	-417.975833	-417.969037	-417.968093	-418.00676	27.385	
C	 0.0027790365	 1.450192614	-0.1997672253	-0.185621
O	 1.2840683493	 1.489975437	 0.537923464	-0.285241
C	 1.2366111061	 0.1334806163	 0.7528101921	 0.438632
N	 1.9261199452	-0.609620938	 1.4942392941	-0.3275
C	 1.3669942876	-1.9774370761	 1.508725785	-0.188988
C	-0.1892283584	-2.0466588727	 1.5202713716	-0.240506
C	-0.8655536608	-1.1948214061	 0.4508240442	-0.087643
N	-0.3382083772	-1.1430394382	-0.9190561895	-0.375871
C	-0.0183741976	-0.0632750234	-0.0040294668	 0.175654
H	-0.753531146	 2.0424307293	 0.3201018432	 0.130653
H	 0.1289693251	 1.7880005137	-1.2305593044	 0.135241
H	 1.7629712633	-2.5516789344	 0.6590434509	 0.105615
H	 1.7382126517	-2.483041498	 2.4043270172	 0.119626
H	-0.4949561745	-3.0951397387	 1.4247821945	 0.113214
H	-0.5505050752	-1.6995095965	 2.4963341226	 0.121312
H	-1.9458077054	-1.0912924494	 0.5118002906	 0.108504
H	 0.4531760404	-1.766435759	-1.0609866339	 0.24292
183.5557	210.1358	271.0755	305.9183	386.6108	439.2503	510.435	574.7658	651.6433	720.5659	766.2716	804.9002	814.7189	882.5092	922.2396	931.7325	959.9669	1025.5671	1063.4348	1078.6033	1088.4067	1115.2687	1134.776	1161.7267	1187.1876	1235.1502	1238.8333	1269.2643	1316.921	1343.2465	1364.3685	1370.4228	1464.8425	1486.5228	1503.0043	1508.7969	1812.432	3001.0411	3030.7152	3069.1301	3071.1556	3082.6661	3133.3418	3147.5091	3494.4094
C1OC2=NCCC3NC123	C1O[C]2[N]CC[C@@H]3N[C@]123	
InChI=1S/C6H8N2O/c1-2-7-5-6(3-9-5)4(1)8-6/h4,8H,1-3H2	InChI=1S/C6H8N2O/c1-2-7-5-6(3-9-5)4(1)8-6/h4,8H,1-3H2/t4-,6-/m0/s1
