19
gdb 73559	2.78106	1.62763	1.31521	2.8149	76.71	-0.238	0.0039	0.2419	1026.6529	0.160644	-423.032464	-423.024513	-423.023569	-423.064804	30.987	
O	-0.1300074531	 1.4572129977	 0.0388659703	-0.483728
C	-0.0274229978	 0.0285472366	 0.0551842434	 0.344997
C	 0.8820955964	-0.5019551737	 1.1825745136	-0.296479
C	 2.2552489965	-0.7558858206	 0.4911686356	-0.262255
C	 1.8835874647	-0.9051222356	-0.9744842395	-0.242037
C	 0.638978392	-0.4952556748	-1.1989323281	 0.264384
C	-0.4031520541	-0.5535589806	-2.2699891478	-0.176215
O	-1.6543572169	-0.4835199858	-1.571229087	-0.275949
C	-1.4432567515	-0.5053015994	-0.1539894463	-0.105705
H	 0.7399817342	 1.8111850776	-0.1759741219	 0.27493
H	 0.9346463046	 0.2038878941	 2.0145071924	 0.107192
H	 0.4926184755	-1.4486046554	 1.5698586355	 0.106922
H	 2.9636012387	 0.0689860854	 0.6512184195	 0.10688
H	 2.7505744835	-1.6532976053	 0.8779611131	 0.111135
H	 2.5643063403	-1.3228537213	-1.7089835877	 0.098837
H	-0.3524611633	 0.2916814375	-2.9693155512	 0.115568
H	-0.3457274036	-1.479941575	-2.8577844244	 0.109359
H	-1.5323608939	-1.5297407854	 0.2373370961	 0.085882
H	-2.2073564123	 0.126528644	 0.3058438343	 0.116282
96.3848	141.0362	213.253	247.4909	298.4521	339.985	367.7283	476.7562	569.4515	590.2003	674.6813	733.5693	785.7296	825.9857	862.5003	907.853	921.9676	937.2972	971.2089	1001.1041	1023.0279	1044.4708	1066.3086	1105.1916	1133.0239	1175.7274	1194.5328	1205.4449	1226.0744	1256.9994	1289.1838	1305.1881	1323.1145	1340.1865	1381.2895	1399.0571	1477.4919	1498.2507	1501.1916	1510.2803	1744.3904	2990.8563	3004.0678	3011.6696	3028.8925	3052.7608	3065.4483	3096.7488	3113.3624	3185.8704	3801.9413
OC12CCC=C1COC2	O[C@]12CCC=C1COC2	
InChI=1S/C7H10O2/c8-7-3-1-2-6(7)4-9-5-7/h2,8H,1,3-5H2	InChI=1S/C7H10O2/c8-7-3-1-2-6(7)4-9-5-7/h2,8H,1,3-5H2/t7-/m0/s1
