18
gdb 70764	4.01518	1.3382	1.15375	1.7735	84.67	-0.2315	0.0245	0.256	1094.3851	0.146254	-364.689102	-364.681069	-364.680125	-364.721143	31.958	
C	-0.0551463085	 1.4286382837	-0.0107915245	-0.519294
C	 0.0802137185	-0.0629301488	-0.0308382128	 0.343092
C	 0.5810246768	-0.967063934	-1.1631130567	-0.346768
C	 0.0782958152	-1.9250784642	-0.0748314748	 0.269193
C	-0.0323549038	-3.3510692631	-0.0975099339	 0.102345
C	-0.1057301197	-4.5517368311	-0.119946823	-0.364811
C	 0.5896903323	-1.0193934624	 1.0992582753	-0.140113
C	-0.8068441309	-1.0412656013	 1.7028607733	-0.201103
N	-1.1542615487	-0.9971332415	 0.216943881	-0.208589
H	 0.9241785317	 1.9047196506	-0.1285424086	 0.125781
H	-0.6985733497	 1.7637105395	-0.8305900134	 0.135134
H	-0.4915293897	 1.7807280128	 0.9293948901	 0.126996
H	-0.0026848127	-0.9535755649	-2.0877033387	 0.112577
H	 1.6565571636	-0.9728605998	-1.3575360716	 0.101834
H	-0.1765664975	-5.6111355992	-0.142184966	 0.181971
H	 1.5798818558	-1.0494447808	 1.5668847481	 0.069101
H	-1.1387201634	-1.9594072817	 2.1957278757	 0.1121
H	-1.148802229	-0.1620125238	 2.2567882705	 0.100554
131.4618	135.8388	201.921	272.9371	293.8829	401.5111	413.9236	509.7318	525.1621	543.0215	628.8273	641.5628	654.1344	681.1243	771.8164	841.8779	866.7631	879.6252	925.2056	994.798	1008.6782	1046.333	1078.8256	1088.3329	1104.9662	1138.0944	1148.7627	1159.2201	1208.1053	1259.3277	1261.0467	1273.8009	1357.42	1413.3903	1483.5888	1485.3739	1493.6533	1515.8844	2231.5263	3033.5939	3040.8817	3052.4329	3057.8931	3102.1792	3106.4904	3109.8928	3122.5181	3500.7993
CC12CC3(C#C)C1CN23	C[C@@]12C[C@@]3(C#C)[C@@H]1CN23	
InChI=1S/C8H9N/c1-3-8-5-7(2)6(8)4-9(7)8/h1,6H,4-5H2,2H3	InChI=1S/C8H9N/c1-3-8-5-7(2)6(8)4-9(7)8/h1,6H,4-5H2,2H3/t6-,7-,8+/m1/s1
