19
gdb 98985	5.16672	0.72245	0.64738	6.0932	75.85	-0.243	0.002	0.2451	1757.0457	0.157173	-456.415013	-456.404074	-456.40313	-456.452965	36.713	
C	-0.2164993131	 1.4677579533	 0.2088024342	-0.370504
C	 0.1131351711	-0.0027055101	-0.0335325412	-0.315357
C	 0.7670431015	-0.2349099288	-1.3973734069	 0.434755
O	 1.0521252672	 0.655393244	-2.1568711932	-0.308644
N	 0.9821769302	-1.5898890071	-1.6628453682	-0.434181
C	 1.7089965348	-2.13740923	-2.7450896537	 0.508151
O	 2.4473653079	-1.5055212535	-3.4599917113	-0.351833
N	 1.5125934986	-3.498831265	-2.8463716605	-0.365802
C	 2.1160470763	-4.2325026784	-3.9456980856	-0.32289
H	 0.6847124317	 2.0810204742	 0.1418014934	 0.140751
H	-0.918257097	 1.8386769716	-0.5421451742	 0.134221
H	-0.6611604349	 1.6035037738	 1.1985461506	 0.108349
H	 0.7955791675	-0.3819067477	 0.7392015335	 0.125235
H	-0.7910236148	-0.6226710799	 0.0346261452	 0.114275
H	 0.6634275365	-2.2376848183	-0.9586188672	 0.243682
H	 0.665852445	-3.8802651722	-2.4550854399	 0.238074
H	 3.0591548636	-3.7467092381	-4.1963431507	 0.170648
H	 2.3085594215	-5.2643572379	-3.6399287887	 0.123143
H	 1.4866383464	-4.2385925399	-4.8447826857	 0.127928
41.2643	48.5097	65.0411	73.7741	122.7375	170.3699	201.8221	263.7688	304.1049	336.2018	400.1306	448.3759	515.2343	578.9926	652.8201	736.518	760.5276	816.2305	896.8177	962.5164	1009.1785	1077.9008	1096.8755	1122.5839	1150.5259	1161.3714	1178.4152	1238.8643	1284.8131	1366.5162	1415.4475	1443.8121	1463.5982	1486.2592	1491.3822	1494.8401	1499.1003	1506.7872	1544.5299	1803.2917	1861.5981	3016.2996	3022.5623	3047.9163	3054.69	3093.898	3125.7302	3135.9826	3158.4046	3616.3299	3625.6988
CCC(=O)NC(=O)NC	CCC(=O)NC(=O)NC	
InChI=1S/C5H10N2O2/c1-3-4(8)7-5(9)6-2/h3H2,1-2H3,(H2,6,7,8,9)	InChI=1S/C5H10N2O2/c1-3-4(8)7-5(9)6-2/h3H2,1-2H3,(H2,6,7,8,9)
