20
gdb 111598	4.2286	1.27006	1.23343	2.5872	78.6	-0.2221	0.0807	0.3028	1099.4643	0.173303	-403.075531	-403.068168	-403.067224	-403.107451	29.413	
C	 0.2171319907	 1.3627485283	 0.1515252179	-0.244679
O	-0.2662346282	 0.0698953332	-0.1468751575	-0.250814
C	 0.4638558325	-0.5770116541	-1.1467385439	 0.192025
C	 1.8249268968	-1.2783690592	-0.8389584327	-0.133985
C	 1.3731480087	-2.2085464155	 0.3006408942	-0.156461
N	 0.3753096645	-3.0209968126	-0.4678829777	-0.151251
C	 1.3083518956	-3.6463291683	-1.4851898331	-0.183138
C	 1.4906157175	-2.2471802473	-2.0591570951	-0.050244
C	 0.0345368927	-1.9695496674	-1.5719601245	-0.0609
H	 1.2434048187	 1.3390037939	 0.5464971849	 0.109307
H	 0.2047738816	 2.0125587516	-0.7374022683	 0.106336
H	-0.4425571739	 1.7891633842	 0.9104695607	 0.130511
H	 0.5501338547	 0.0572002583	-2.0437715099	 0.066546
H	 2.7631027905	-0.7305181698	-0.766307533	 0.065139
H	 2.155219582	-2.8532979228	 0.7076052108	 0.094184
H	 0.8852900938	-1.6693858591	 1.1141114756	 0.115401
H	 2.1545007882	-4.1956601948	-1.0599855275	 0.096991
H	 0.7446846364	-4.3011005556	-2.1560610069	 0.106192
H	 1.8786777271	-1.9987832302	-3.0469693547	 0.068697
H	-0.87857623	-2.2020319529	-2.1157495693	 0.080144
86.4918	161.2084	178.7867	297.2921	344.3632	463.8251	514.2282	563.9658	699.9861	727.8017	763.387	825.3252	833.7164	850.485	903.3746	922.6137	970.6635	981.7815	1004.5694	1019.6264	1022.2094	1047.7379	1056.6693	1118.583	1136.7501	1157.437	1169.2128	1183.2046	1197.8443	1208.9037	1227.701	1234.2133	1264.1011	1266.9223	1284.1903	1306.3595	1334.7788	1404.3337	1482.3914	1489.0417	1499.8736	1509.4537	1523.8651	2975.3949	2982.9073	3028.2274	3042.1711	3073.6972	3098.6351	3111.617	3119.4091	3127.4614	3129.6655	3142.7634
COC1C2CN3CC2C13	CO[C@H]1[C@H]2CN3C[C@H]2[C@H]13	
InChI=1S/C7H11NO/c1-9-7-5-3-8-2-4(5)6(7)8/h4-7H,2-3H2,1H3	InChI=1S/C7H11NO/c1-9-7-5-3-8-2-4(5)6(7)8/h4-7H,2-3H2,1H3/t4-,5+,6-,7+/m1/s1
