18
gdb 95607	2.32062	1.79004	1.04522	5.3813	75.45	-0.2246	-0.0256	0.199	1123.3313	0.150518	-435.313384	-435.304931	-435.303987	-435.346594	31.336	
C	-0.0243649292	 1.3820176137	 0.4201353879	-0.331149
N	 0.0052693711	 0.0700171122	-0.206760241	-0.114722
C	-1.2389309684	-0.6810463337	-0.2365733433	-0.159214
C	-1.1807064518	-1.7426487876	-1.3255357705	-0.167469
N	 0.0054740871	-2.5580078388	-1.1330750407	-0.339976
C	 1.192245992	-2.0715620011	-0.677421392	 0.374442
O	 2.2139020824	-2.7317174308	-0.6569986658	-0.370574
C	 1.1963249408	-0.6293550436	-0.1616014146	 0.268784
N	 2.2802683067	-0.1007721994	 0.2547621716	-0.525907
H	 0.8909852054	 1.9158289336	 0.166107464	 0.165682
H	-0.8925022625	 1.9357285713	 0.0515109907	 0.114516
H	-0.0811707856	 1.3186940319	 1.5168384399	 0.121233
H	-1.4582076282	-1.1546870129	 0.7352628444	 0.11066
H	-2.0560784067	 0.0126018864	-0.4543401167	 0.117974
H	-2.0665078682	-2.3820191202	-1.2662265379	 0.121079
H	-1.1768130501	-1.2592134592	-2.3129616239	 0.121107
H	 0.0549041259	-3.4746340306	-1.5542348019	 0.254038
H	 3.0232427294	-0.7927075413	 0.1363342898	 0.239495
94.0885	122.8396	135.956	178.1885	296.7677	346.3301	381.9649	448.8931	458.6171	470.3905	567.4854	616.0466	673.5967	719.7607	804.6517	895.8897	922.2631	951.5861	996.6339	1094.7223	1103.5251	1112.284	1153.5286	1197.5352	1263.0198	1280.775	1307.6867	1329.6106	1388.5578	1404.6838	1437.9237	1465.9809	1477.7548	1489.662	1504.0372	1515.3147	1521.0763	1700.3892	1792.8448	2962.0309	3000.6	3004.0273	3082.524	3082.7467	3086.2406	3156.1533	3465.5533	3607.2331
CN1CCNC(=O)C1=N	CN1CCNC(=O)[C]1[NH]	
InChI=1S/C5H9N3O/c1-8-3-2-7-5(9)4(8)6/h6H,2-3H2,1H3,(H,7,9)	InChI=1S/C5H9N3O/c1-8-3-2-7-5(9)4(8)6/h6H,2-3H2,1H3,(H,7,9)
