19
gdb 39473	2.39828	2.09403	1.53882	0.5949	75.21	-0.2346	0.0145	0.2491	933.4333	0.162437	-423.028313	-423.02139	-423.020446	-423.059285	28.572	
C	-0.0136287493	 1.3822674993	-0.0601266366	-0.055565
C	 1.3985163869	 1.9880695423	 0.0224704193	-0.234913
C	 2.1947556628	 1.4834584597	 1.2569235745	 0.052825
O	 1.3053782064	 1.0885356005	 2.3078712165	-0.271182
C	 1.0944997353	-0.3221741618	 2.1800218637	 0.027424
C	-0.1641769057	-0.5664113414	 1.3216177165	-0.090762
O	-0.0544575276	-0.0363043122	 0.0176777904	-0.248855
C	 2.3522016534	-0.815871101	 1.5082647003	-0.068565
C	 2.9743252067	 0.2203191115	 0.9615265805	-0.086279
H	-0.6414705372	 1.8160932404	 0.7291398316	 0.101573
H	-0.4561507704	 1.6472996924	-1.0268998976	 0.099148
H	 1.9597152091	 1.7587477892	-0.8901922214	 0.103562
H	 1.2841890784	 3.0785166927	 0.0614520448	 0.097327
H	 2.8283458403	 2.2876193347	 1.6487913995	 0.084615
H	 0.929908415	-0.7356076643	 3.1835546767	 0.08149
H	-0.3410945542	-1.6418954083	 1.2038015676	 0.102228
H	-1.0283156199	-0.1299604309	 1.8467158858	 0.096505
H	 2.618854342	-1.8618447812	 1.4321571966	 0.105351
H	 3.8667664983	 0.2070466684	 0.3489180913	 0.104074
162.0228	207.3632	307.6568	330.9001	364.3932	400.9075	498.0718	608.8799	657.6977	720.2088	770.7819	811.7598	840.3154	847.4349	886.5254	919.9693	928.3664	949.2503	965.9548	1015.5692	1041.1395	1054.1011	1082.9901	1116.0277	1136.3299	1158.3527	1218.0377	1261.4233	1288.4877	1308.1074	1314.5848	1340.0908	1350.9889	1358.968	1382.6675	1395.1263	1421.6763	1475.5814	1479.5604	1497.3027	1685.2243	2982.3813	3014.0755	3026.0521	3027.9038	3040.5308	3063.3533	3066.1604	3079.5758	3207.5845	3233.1491
C1CC2OC(CO1)C=C2	C1C[C@H]2O[C@@H](CO1)C=C2	
InChI=1S/C7H10O2/c1-2-7-5-8-4-3-6(1)9-7/h1-2,6-7H,3-5H2	InChI=1S/C7H10O2/c1-2-7-5-8-4-3-6(1)9-7/h1-2,6-7H,3-5H2/t6-,7+/m0/s1
