18
gdb 67139	2.17842	1.8263	1.47808	2.5642	76.63	-0.2298	-0.002	0.2277	1004.1259	0.146601	-401.91474	-401.906318	-401.905374	-401.947496	31.726	
C	-0.1006546574	 1.5076808112	 0.157311677	-0.530739
C	-0.0086841528	 0.033655014	-0.042989784	 0.303186
C	 0.9145941622	-0.9096991613	-0.9238625608	-0.25435
C	 1.1865759121	-1.6583498176	 0.386496008	-0.164846
N	-0.0465421963	-1.0242878001	 0.9853076645	-0.213603
C	-1.0885248032	-1.0383584548	-0.1047373073	 0.159261
C	-2.5352376595	-1.0133530352	 0.2634920611	-0.507675
C	-0.4282482782	-1.5289954472	-1.3604362706	 0.398166
O	-0.8461148593	-1.9786768404	-2.3913270163	-0.339948
H	 0.842923985	 1.9164270527	 0.5339545047	 0.136125
H	-0.3384518744	 2.0139852058	-0.7838418916	 0.137757
H	-0.8849450542	 1.742240658	 0.8830195009	 0.141432
H	 1.6694934911	-0.6385136333	-1.6572591022	 0.094914
H	 1.1851402564	-2.7540946343	 0.3642700289	 0.112058
H	 2.0555469838	-1.2964537763	 0.9411238099	 0.117761
H	-2.7202483287	-0.3011220354	 1.0720309869	 0.132787
H	-3.1436949368	-0.7346785166	-0.6019495165	 0.138196
H	-2.86414978	-1.999479289	 0.6064115073	 0.139519
117.6316	136.7706	177.744	191.9122	228.6039	289.0264	316.4117	444.7763	505.4021	583.2529	615.651	666.4491	729.2657	762.0842	803.0296	811.0315	897.4985	950.4907	989.2563	1007.3986	1055.5875	1085.5968	1093.1442	1122.0811	1145.3703	1164.7632	1175.4002	1226.5163	1304.8438	1336.9211	1404.4975	1412.6148	1448.757	1475.6353	1483.1777	1488.0414	1494.5245	1511.0049	1872.1096	3034.557	3040.0941	3042.5648	3099.7141	3106.7017	3108.1026	3113.985	3121.9523	3158.292
CC12C3CN1C2(C)C3=O	C[C@@]12[C@H]3CN1[C@]2(C)C3=O	
InChI=1S/C7H9NO/c1-6-4-3-8(6)7(6,2)5(4)9/h4H,3H2,1-2H3	InChI=1S/C7H9NO/c1-6-4-3-8(6)7(6,2)5(4)9/h4H,3H2,1-2H3/t4-,6-,7+,8?/m0/s1
