23
gdb 122674	3.14623	0.99303	0.81013	2.0125	82.69	-0.2385	0.0807	0.3192	1495.5495	0.206015	-425.42665	-425.41676	-425.415816	-425.462894	35.544	
C	 0.136769186	 1.0208602845	-1.2194075754	-0.375348
C	-0.1500543672	-0.2091199139	-0.3663827338	-0.040277
O	 1.030643827	-0.976626225	-0.1389640775	-0.254191
C	 1.096795584	-2.2409587747	-0.7525726175	-0.103505
C	 1.5145570444	-2.2238718024	-2.2188179316	 0.134006
C	 1.8078125027	-3.6285579383	-2.799951352	-0.244722
C	 1.1811791189	-3.5893430534	-4.217708481	-0.217321
C	 0.7033414942	-2.1311671562	-4.3478783047	-0.075808
O	 0.4561879321	-1.698970805	-3.0194072706	-0.253667
H	 0.9376310426	 1.6172253414	-0.7717685588	 0.116114
H	 0.4343724626	 0.7226072306	-2.2269560776	 0.133318
H	-0.7584058629	 1.6488226658	-1.2911555369	 0.102605
H	-0.525629346	 0.0962500783	 0.6197967024	 0.091755
H	-0.9209357165	-0.8278198787	-0.8412475886	 0.101302
H	 1.8498514653	-2.8097620146	-0.1935956728	 0.102531
H	 0.1386022954	-2.7791896762	-0.6705307201	 0.091398
H	 2.4007356128	-1.5767068854	-2.3215447813	 0.070742
H	 2.8809737136	-3.8321960865	-2.8191645632	 0.106989
H	 1.3394523737	-4.4044854786	-2.1861393809	 0.104775
H	 1.8905277683	-3.8610188119	-5.0031357986	 0.103494
H	 0.3339585115	-4.2764742868	-4.2850456737	 0.10984
H	 1.4814547429	-1.5069314483	-4.8171094448	 0.088728
H	-0.2212371654	-2.0139267748	-4.918766021	 0.107241
43.7204	66.6368	72.4763	101.5395	187.1211	216.3692	253.825	343.7031	401.9207	428.8628	486.385	641.6167	660.951	797.5356	810.4063	841.5248	863.7877	895.7885	923.7821	963.7181	995.4799	1019.221	1048.3576	1098.0679	1104.8292	1119.3326	1130.3071	1155.5626	1206.367	1215.9941	1238.638	1259.2389	1290.907	1307.9252	1318.2095	1335.9524	1348.3583	1367.2208	1392.005	1406.8887	1414.2634	1425.5002	1474.4397	1486.0876	1487.9606	1495.1204	1504.9516	1514.9654	1520.5763	2966.564	2971.6564	2981.7415	3006.3117	3037.6734	3050.9319	3054.9179	3058.4392	3067.3816	3091.7558	3098.9698	3104.96	3117.8273	3136.7517
CCOCC1CCCO1	CCOC[C@H]1CCCO1	
InChI=1S/C7H14O2/c1-2-8-6-7-4-3-5-9-7/h7H,2-6H2,1H3	InChI=1S/C7H14O2/c1-2-8-6-7-4-3-5-9-7/h7H,2-6H2,1H3/t7-/m1/s1
