17
gdb 68268	2.46843	1.492	1.44521	2.6119	73.24	-0.256	0.0161	0.2722	1014.3222	0.135031	-417.952552	-417.944127	-417.943182	-417.985066	32.54	
C	 0.031073729	 1.4788157477	 0.1216263915	-0.517542
C	 0.018664568	-0.0032247288	-0.0587852495	 0.38336
C	 0.7053027539	-0.9187397006	-1.1011804109	-0.291732
C	 0.1071277465	-1.8121580462	-0.0009241411	-0.002644
O	 0.6115242909	-0.8640313549	 1.012367302	-0.355931
C	-1.2300784372	-0.9673998557	-0.0254631519	 0.184551
N	-2.0460780547	-0.852068616	 1.1530827923	-0.581238
C	-2.0624209173	-1.058706773	-1.2223267925	 0.236373
N	-2.7137586479	-1.1525857975	-2.1727515554	-0.340731
H	 1.0544901536	 1.8375334804	 0.2628132526	 0.14095
H	-0.3917772269	 1.96400715	-0.7631914579	 0.145112
H	-0.5697502936	 1.7601240019	 0.9909488719	 0.14841
H	 0.2874456366	-0.9678652976	-2.1078635262	 0.134013
H	 1.7933240904	-0.8658664462	-1.0865486649	 0.118512
H	 0.23646898	-2.8764044353	 0.1948175773	 0.106262
H	-2.7208353036	-1.6072179078	 1.2115859628	 0.243118
H	-1.4299147278	-0.8972183103	 1.9600288898	 0.249158
122.4576	164.4739	184.2514	209.1116	306.5233	321.7817	356.5316	391.6787	502.2631	517.0947	542.6274	589.349	655.7408	713.2355	731.2633	798.8062	879.5038	898.8628	920.5662	948.634	1012.1663	1021.7	1037.741	1114.2393	1147.7294	1197.4895	1200.9371	1231.5656	1271.1878	1298.204	1367.1765	1415.1251	1476.3712	1483.0403	1493.2751	1634.0203	2353.2858	3046.0245	3086.241	3122.3829	3126.0695	3127.5899	3166.747	3497.9387	3588.8977
CC12CC(O1)C2(N)C#N	C[C@@]12C[C@@H](O1)[C@]2(N)C#N	
InChI=1S/C6H8N2O/c1-5-2-4(9-5)6(5,8)3-7/h4H,2,8H2,1H3	InChI=1S/C6H8N2O/c1-5-2-4(9-5)6(5,8)3-7/h4H,2,8H2,1H3/t4-,5+,6-/m1/s1
