19
gdb 119714	3.28254	1.02221	0.90921	1.4578	71.88	-0.2295	0.0544	0.2839	1352.7544	0.157093	-460.096571	-460.087367	-460.086423	-460.131173	33.712	
C	-0.0076483813	 1.535346114	-0.0592289786	-0.387837
C	-0.1594054551	 0.0280244456	-0.1463308868	-0.060098
O	 0.8651831019	-0.4722179255	-1.0107626103	-0.283246
C	 0.8201715382	-1.8287844882	-1.1989460106	 0.31039
C	 1.5509222692	-2.8683482577	-0.3475258899	-0.159551
O	 1.8358744141	-3.6704905109	-1.534214026	-0.302692
C	 1.2800104074	-2.6565702147	-2.3878355238	-0.067133
C	-0.1852821644	-2.5484506715	-2.0866177444	 0.045585
O	-0.9313390954	-3.6543137226	-1.6896969075	-0.434935
H	 0.9741363931	 1.8011759144	 0.3425784309	 0.129107
H	-0.1070387965	 1.9893936254	-1.0492340205	 0.128882
H	-0.7765498924	 1.9561224211	 0.5953659315	 0.119252
H	-0.0655142372	-0.4312228426	 0.8489836977	 0.097181
H	-1.1452853872	-0.2503798178	-0.5447219241	 0.104854
H	 2.4807942317	-2.487861517	 0.0867249561	 0.120908
H	 0.973162596	-3.4242772008	 0.3983156073	 0.113173
H	 1.7904231346	-2.4368402945	-3.3183696896	 0.115421
H	-0.7363311783	-1.8738716676	-2.7372902739	 0.11324
H	-0.3001175284	-4.3827207093	-1.6097113475	 0.297499
61.726	72.7319	119.4631	216.1751	238.9158	248.6421	326.3477	351.5148	370.0473	435.5832	511.9337	641.8485	695.9581	789.9559	816.9423	842.1436	899.7321	934.0871	955.0867	985.4256	1013.3449	1054.2508	1072.11	1091.8962	1120.6967	1142.2155	1162.3533	1184.0772	1208.89	1269.7281	1284.5904	1293.676	1311.1022	1384.8001	1401.5135	1423.1452	1475.8468	1482.8539	1499.5181	1508.1206	1526.1543	2990.1687	3026.0712	3038.5189	3046.2675	3096.6719	3121.4572	3123.0922	3153.9314	3183.3222	3751.1401
CCOC12COC1C2O	CCO[C@]12CO[C@H]1[C@H]2O	
InChI=1S/C6H10O3/c1-2-9-6-3-8-5(6)4(6)7/h4-5,7H,2-3H2,1H3	InChI=1S/C6H10O3/c1-2-9-6-3-8-5(6)4(6)7/h4-5,7H,2-3H2,1H3/t4-,5+,6+/m1/s1
