16
gdb 25504	4.24135	1.11925	0.88556	3.2721	82.74	-0.2244	-0.0153	0.2091	1243.0896	0.127374	-400.845051	-400.837687	-400.836743	-400.877342	28.149	
O	 1.7992868041	 4.0765774175	-0.6126596314	-0.305444
C	 0.9585436776	 3.2144481573	-0.4877519515	 0.158652
N	 1.17605633	 1.8716706465	-0.3375627232	-0.394252
C	 2.3930960516	 1.1625054086	-0.2907758498	 0.394502
C	 2.3266972446	-0.2267925359	-0.129041334	-0.2095
C	 3.4892250293	-0.9843883234	-0.0750153956	-0.084222
C	 4.7340012251	-0.3677045825	-0.181487102	-0.126118
C	 4.7965565284	 1.0137291212	-0.3422747278	-0.079996
C	 3.6410512603	 1.7882122325	-0.3983976681	-0.214426
H	-0.1279180375	 3.4330976931	-0.4819008206	 0.082295
H	 0.3429988951	 1.3091951165	-0.2481087195	 0.251015
H	 1.3579014098	-0.712140479	-0.0456165628	 0.083895
H	 3.4193563725	-2.059696733	 0.0507170038	 0.097732
H	 5.6427322705	-0.9576955077	-0.139529006	 0.096292
H	 5.7599170365	 1.506077272	-0.4264391781	 0.101321
H	 3.687592792	 2.8594878962	-0.5231092232	 0.148255
60.2891	178.0354	196.6477	326.1054	344.2219	417.6918	504.1078	531.3853	592.9982	627.4271	712.9005	772.3094	780.4152	851.8791	871.0935	913.5693	953.8497	994.0443	1010.7876	1018.3803	1050.5034	1109.4597	1143.6477	1182.8246	1202.8722	1269.1997	1336.8359	1352.5875	1444.7037	1467.208	1527.5426	1555.0262	1633.4304	1644.3285	1807.6234	2934.5961	3156.4056	3176.6379	3186.2229	3201.5531	3255.5207	3613.6972
O=CNC1=CC=CC=C1	O=CNc1ccccc1	
InChI=1S/C7H7NO/c9-6-8-7-4-2-1-3-5-7/h1-6H,(H,8,9)	InChI=1S/C7H7NO/c9-6-8-7-4-2-1-3-5-7/h1-6H,(H,8,9)
