21
gdb 111145	3.52299	1.13251	0.99498	2.3958	79.65	-0.2455	0.0744	0.3199	1271.382	0.181063	-424.15952	-424.150329	-424.149385	-424.193059	35.447	
C	-0.6857375252	 1.0540074462	-0.1078736352	-0.243868
O	-0.9064843911	-0.2647582141	-0.5546895964	-0.253813
C	 0.0783483813	-0.7135576753	-1.443903901	 0.181816
C	 1.4303783134	-1.2698337661	-0.8774355459	-0.183156
C	 0.5850171055	-2.4465777827	-0.2942690632	-0.234884
C	 0.043554983	-2.2306823312	-1.7482722813	-0.14915
C	 1.5288750204	-2.108164001	-2.2047596859	 0.468462
C	 1.9119511077	-1.4455048015	-3.5242198703	-0.486716
O	 2.2076595028	-3.3504101537	-2.1187142079	-0.479084
H	 0.2416608176	 1.1407029783	 0.4775900587	 0.107766
H	-0.6289619214	 1.7635189041	-0.9486853428	 0.102968
H	-1.5316451941	 1.3281682752	 0.5269285277	 0.127239
H	 0.1413387157	-0.0218034174	-2.2915007012	 0.054321
H	 2.2333871876	-0.7127800957	-0.3896266388	 0.059532
H	 1.1132084532	-3.3773528056	-0.1094358284	 0.112333
H	-0.1047189648	-2.1824890925	 0.5037456583	 0.107999
H	-0.7526554557	-2.7781716908	-2.254780288	 0.071803
H	 1.4151321823	-0.4923467704	-3.7088131603	 0.124549
H	 2.9930185818	-1.2549154281	-3.543510765	 0.10626
H	 1.6813949018	-2.1215556255	-4.3530743223	 0.13024
H	 3.1455679182	-3.1824395523	-2.2555757507	 0.275383
81.992	163.705	181.6944	194.0264	224.7589	263.5526	296.5096	378.6966	391.2164	451.3457	484.5556	544.7915	583.4616	692.4476	743.9381	812.3306	891.1774	903.9762	927.6379	959.7319	1019.4162	1022.195	1043.1685	1058.9269	1100.3583	1113.0408	1129.9062	1156.1521	1175.9217	1184.3918	1194.8213	1208.8205	1227.4892	1241.5437	1255.3054	1263.0975	1371.6572	1403.6786	1431.5529	1480.5579	1487.4478	1493.9158	1498.1197	1505.2042	1514.3205	2973.962	3022.9395	3024.5594	3036.0416	3085.4359	3092.6344	3104.1332	3115.7118	3124.4317	3137.5367	3195.4907	3811.9773
COC1C2CC1C2(C)O	CO[C@H]1[C@H]2C[C@@H]1[C@]2(C)O	
InChI=1S/C7H12O2/c1-7(8)4-3-5(7)6(4)9-2/h4-6,8H,3H2,1-2H3	InChI=1S/C7H12O2/c1-7(8)4-3-5(7)6(4)9-2/h4-6,8H,3H2,1-2H3/t4-,5+,6+,7-
