21
gdb 106297	3.68786	1.16317	1.09138	2.5596	78.4	-0.2453	0.0778	0.3232	1206.9004	0.182809	-424.211081	-424.202508	-424.201564	-424.243825	34.059	
C	-0.0976623976	 1.4896427039	 0.0751910654	-0.501851
C	 0.0413997559	-0.0130266194	 0.0524782667	 0.280377
C	 0.9984100741	-0.7780141097	-0.9269977098	-0.318852
C	 0.7369215642	-1.9201776103	 0.0841482395	 0.420261
C	 1.467922662	-3.2336343314	 0.154609743	-0.166637
O	 0.9694485795	-4.0401890308	 1.2066737755	-0.422368
C	 0.7277072346	-0.8383083612	 1.1926314567	-0.297262
O	-0.6762623413	-2.1893647922	-0.103935029	-0.328238
C	-1.2307928269	-0.8578020032	-0.1288279852	-0.106257
H	 0.8733623485	 1.9751423694	 0.214426724	 0.120004
H	-0.5263861006	 1.8625893464	-0.8622114651	 0.119345
H	-0.7527760593	 1.8137009753	 0.8920865476	 0.120163
H	 0.6708149948	-0.9380327103	-1.9577323013	 0.097556
H	 2.0200796978	-0.3938886625	-0.8951604028	 0.099604
H	 1.3863901135	-3.7422851494	-0.8200728377	 0.0915
H	 2.5301824243	-3.0612775348	 0.3547652802	 0.106029
H	 0.009505888	-4.0290903914	 1.1108310101	 0.292684
H	 1.7245615706	-0.4665042893	 1.4384229434	 0.098201
H	 0.1559722181	-1.0536083185	 2.0982819841	 0.100028
H	-1.953108174	-0.729682686	 0.6870613374	 0.097757
H	-1.7383033162	-0.6785985346	-1.0848174826	 0.097956
100.2653	146.5842	217.1445	244.2438	274.9933	313.8999	375.5791	416.0471	440.2091	496.9888	517.715	593.9832	649.5728	701.4035	811.9149	858.7752	881.8785	922.2357	935.2402	977.4722	996.2751	1003.5757	1037.1231	1044.4361	1067.216	1107.2851	1129.1785	1153.5275	1162.131	1179.7987	1229.4698	1248.6582	1258.8804	1285.2927	1332.9705	1376.4723	1380.0929	1416.4302	1449.4353	1471.2842	1493.4697	1494.8701	1497.3227	1507.7266	1532.0199	2973.798	3013.8841	3025.7339	3054.4197	3059.6185	3068.4068	3078.9411	3087.5234	3099.3864	3126.5061	3133.3146	3791.4015
CC12CC(CO)(C1)OC2	C[C@@]12C[C@@](CO)(C1)OC2	
InChI=1S/C7H12O2/c1-6-2-7(3-6,4-8)9-5-6/h8H,2-5H2,1H3	InChI=1S/C7H12O2/c1-6-2-7(3-6,4-8)9-5-6/h8H,2-5H2,1H3/t6-,7+
