23
gdb 41336	2.83125	1.75812	1.45497	0.098	87.8	-0.26	0.0807	0.3408	1019.9688	0.210652	-351.163889	-351.156895	-351.155951	-351.19469	30.724	
C	-0.0138124432	 1.51918608	 0.23017473	-0.258942
C	 1.5186084553	 1.5216121155	-0.0885876804	-0.341475
C	 1.3090296204	 0.1870573241	-0.8356043895	 0.395252
C	 2.1301639155	-1.0997812629	-0.8490133975	-0.310801
C	 1.1696829096	-2.0362212128	-1.6736962429	-0.206125
C	 0.0441059532	-1.0884856054	-2.1963498067	 0.005257
C	-0.9559046641	-0.7577206898	-1.0554548243	-0.256107
C	-0.0269637416	-0.0121367506	-0.067269128	 0.024657
C	 0.8093370905	 0.244624789	-2.2988681809	-0.263218
H	-0.3133503562	 1.8318739591	 1.2332356684	 0.092824
H	-0.5909649479	 2.0976894772	-0.496452911	 0.100544
H	 1.9250357328	 2.3645176262	-0.6543086651	 0.091376
H	 2.1127654594	 1.3956813812	 0.8219841526	 0.097696
H	 3.096790195	-0.9822939433	-1.3517744445	 0.08792
H	 2.3254681202	-1.4817775918	 0.1579132019	 0.088023
H	 1.6991565181	-2.4980856363	-2.5118756166	 0.09589
H	 0.7632887731	-2.8496708667	-1.0645357192	 0.093275
H	-0.4321412822	-1.4528223213	-3.109360277	 0.051353
H	-1.7697924313	-0.1246994389	-1.4277867483	 0.089452
H	-1.4103251464	-1.6529369548	-0.6191964294	 0.087877
H	 0.1184138409	-0.5694184448	 0.8633106298	 0.062144
H	 0.1626039392	 1.0988266992	-2.5183824003	 0.088187
H	 1.6296345299	 0.2311793881	-3.0243050813	 0.084938
174.1745	245.8729	299.2707	369.4118	384.7319	443.9072	499.3005	589.5425	657.2156	742.7349	762.3513	791.319	809.6226	840.2172	870.9917	887.0729	917.0237	918.245	948.094	949.9369	975.802	989.1191	1000.0095	1034.9461	1072.2772	1113.5723	1126.1802	1131.6081	1161.87	1188.891	1199.2475	1209.8669	1235.7898	1246.7107	1254.9599	1271.0484	1275.0374	1280.6181	1316.5075	1322.6651	1333.1989	1345.598	1355.5378	1480.8734	1483.8904	1490.662	1494.3648	1500.991	1519.5799	3031.7423	3032.3848	3044.0723	3045.5325	3049.3062	3051.2765	3059.5357	3072.472	3079.7071	3086.7522	3093.621	3094.6501	3097.4364	3114.5075
C1CC23CCC(CC12)C3	C1C[C@@]23CC[C@@H](C[C@H]12)C3	
InChI=1S/C9H14/c1-3-9-4-2-8(9)5-7(1)6-9/h7-8H,1-6H2	InChI=1S/C9H14/c1-3-9-4-2-8(9)5-7(1)6-9/h7-8H,1-6H2/t7-,8-,9+/m0/s1
