20
gdb 63008	2.41643	1.73937	1.50576	1.6831	77.17	-0.2328	0.072	0.3048	996.8135	0.171714	-403.114604	-403.106597	-403.105653	-403.146363	33.023	
C	 0.0004175103	 1.5550411674	 0.0598153582	-0.431823
C	 0.0184877323	 0.0277149822	 0.0095064431	 0.36835
O	-1.3157671526	-0.4936217138	-0.037344627	-0.47416
C	 0.7013583234	-0.5612284283	-1.234768656	-0.047694
C	 2.1671393116	-0.343218336	-1.5059066612	-0.310773
C	 1.7154711131	-1.6043399334	-0.8113865994	-0.041027
C	 1.7413546946	-1.5969614946	 0.7046126453	-0.040723
N	 2.183540489	-0.3140098945	 1.3046666162	-0.348863
C	 0.7445549218	-0.6195983458	 1.2031554311	-0.097158
H	 1.0166186822	 1.9518762288	 0.1125382328	 0.137831
H	-0.496368533	 1.9604285234	-0.8263734889	 0.119837
H	-0.5412338859	 1.9074097583	 0.9473500966	 0.094614
H	-1.8228256497	-0.0587396245	 0.6565083203	 0.273028
H	 0.0369173329	-0.7251362491	-2.0752495015	 0.090544
H	 2.4814116957	-0.4300081018	-2.5406841115	 0.102474
H	 2.7193449254	 0.3765159814	-0.9152045788	 0.137557
H	 1.7970501025	-2.5610968944	-1.3129337758	 0.080711
H	 1.9598006794	-2.5184384664	 1.2328832033	 0.08416
H	 2.4973087703	-0.4727030785	 2.2588496289	 0.229853
H	 0.1692161869	-0.7724035503	 2.1128752244	 0.073259
156.7893	197.8644	231.642	271.9207	339.0527	353.2033	373.7762	390.7263	527.116	535.3996	597.6093	694.9672	731.7623	795.7006	814.1473	854.5519	881.5708	891.5832	914.129	947.5457	963.4297	1003.7626	1029.6298	1062.6413	1078.1901	1088.8427	1102.829	1108.0955	1130.57	1144.6088	1189.0025	1197.1108	1213.7397	1251.4766	1308.5578	1355.0446	1371.6274	1391.164	1401.7945	1426.3921	1475.8117	1491.3887	1494.0779	3022.0765	3094.342	3133.3095	3137.2109	3137.7639	3168.3106	3175.6702	3186.1905	3232.7305	3498.8116	3806.2784
CC1(O)C2CC2C2NC12	C[C@@]1(O)[C@H]2C[C@H]2[C@H]2N[C@@H]12	
InChI=1S/C7H11NO/c1-7(9)4-2-3(4)5-6(7)8-5/h3-6,8-9H,2H2,1H3	InChI=1S/C7H11NO/c1-7(9)4-2-3(4)5-6(7)8-5/h3-6,8-9H,2H2,1H3/t3-,4+,5-,6-,7-/m1/s1
