14
gdb 15504	3.72151	1.94373	1.31356	5.956	60.94	-0.2545	-0.0115	0.243	874.1128	0.108574	-415.893585	-415.886491	-415.885547	-415.925434	25.067	
N	 0.0302854244	 1.3368827963	 0.139356277	-0.537206
C	 0.0288559035	 0.0804563221	 0.1775556431	 0.482601
O	 1.1254535788	-0.7195133751	 0.3717948918	-0.249819
C	 0.778721653	-2.0909141531	 0.1464933656	-0.097736
C	-0.7344382886	-2.1352208347	 0.3736097691	-0.197045
N	-1.0958252767	-0.7570986959	 0.0538690913	-0.137041
C	-2.3884372516	-0.3849000006	-0.2811190182	 0.160019
O	-2.7741632075	 0.7216637784	-0.5397201576	-0.265223
H	 0.9848849208	 1.6828939967	 0.2250179969	 0.232876
H	 1.0437965198	-2.3679465386	-0.880666466	 0.126932
H	 1.3428310325	-2.7103620372	 0.8451918333	 0.134266
H	-1.2412101521	-2.8461788246	-0.2826008637	 0.136537
H	-0.9789928928	-2.3796657761	 1.4146275247	 0.132519
H	-3.0469213834	-1.2778587275	-0.2907073073	 0.07832
70.5041	168.9025	210.3272	224.0204	234.4716	462.4832	483.4318	681.6169	715.3114	735.0162	792.5972	833.0713	901.9739	971.5381	1005.6622	1025.2921	1092.2599	1135.5669	1198.6665	1216.4335	1243.899	1257.2688	1330.3198	1393.9268	1424.4418	1458.1729	1517.0122	1525.1733	1770.1664	1852.865	2917.8795	3026.4724	3039.1537	3103.8508	3124.6168	3513.9485
N=C1OCCN1C=O	[NH][C]1OCCN1C=O	
InChI=1S/C4H6N2O2/c5-4-6(3-7)1-2-8-4/h3,5H,1-2H2	InChI=1S/C4H6N2O2/c5-4-6(3-7)1-2-8-4/h3,5H,1-2H2
