19
gdb 63357	2.48807	1.46896	1.16115	4.2117	78.23	-0.2576	0.0058	0.2634	1138.5484	0.157907	-423.082796	-423.073796	-423.072851	-423.117526	33.7	
C	 0.0710426252	 1.3543489479	-0.2299495807	-0.394632
C	-0.1663867994	-0.1270927088	 0.0991224224	 0.298273
C	-1.6561792572	-0.3970417819	 0.3579616485	-0.394629
O	 0.1588322646	-0.8559060333	-1.1164648203	-0.26534
C	 1.0934439159	-1.8209496563	-1.2450541229	 0.404325
O	 1.2522962434	-2.3384790973	-2.3179019016	-0.330242
C	 1.9144828272	-2.221870114	-0.0301609566	-0.411336
C	 1.596184342	-1.4850161847	 1.2312619099	-0.091159
C	 0.6608034801	-0.5466546984	 1.2794663777	-0.072172
H	 1.1276594616	 1.5338680124	-0.4444735912	 0.126583
H	-0.517941398	 1.6416057918	-1.1050633843	 0.132652
H	-0.2237868988	 1.9859542129	 0.6134040699	 0.11745
H	-2.2452635435	-0.1101279288	-0.5171958492	 0.132657
H	-1.8230881636	-1.4581540829	 0.5601092947	 0.12659
H	-2.0056855647	 0.1793545235	 1.2197669109	 0.117447
H	 1.7828141243	-3.3042058541	 0.0950943212	 0.150036
H	 2.9689272596	-2.0998226503	-0.3090373936	 0.150044
H	 2.1635867046	-1.7461780507	 2.1202833488	 0.103268
H	 0.4415332165	-0.0202739069	 2.2040822364	 0.100183
21.8583	69.471	215.3212	233.0936	251.7516	312.9427	337.6363	391.0808	473.6005	503.0792	503.6575	531.2742	578.7747	663.674	743.3213	813.9626	893.3696	931.082	944.9536	971.1732	980.3944	1006.5176	1023.046	1029.9973	1136.0905	1193.8734	1214.0886	1220.2264	1237.652	1302.6084	1352.9324	1395.3779	1407.9518	1427.2262	1448.6299	1474.4863	1481.2233	1494.1051	1505.1527	1751.185	1836.0844	3032.5342	3042.1587	3046.4879	3054.5819	3118.0383	3123.319	3126.1757	3129.1512	3157.1799	3179.6456
CC1(C)OC(=O)CC=C1	CC1(C)OC(=O)CC=C1	
InChI=1S/C7H10O2/c1-7(2)5-3-4-6(8)9-7/h3,5H,4H2,1-2H3	InChI=1S/C7H10O2/c1-7(2)5-3-4-6(8)9-7/h3,5H,4H2,1-2H3
