18
gdb 82327	2.62746	1.72953	1.27982	1.8894	70.39	-0.2328	0.0542	0.2869	1005.5043	0.148196	-439.031984	-439.024179	-439.023235	-439.06419	30.513	
O	 0.3526885423	 0.9939689998	-0.6355999927	-0.42811
C	 0.1108631583	-0.2388611481	 0.0228573718	 0.021068
C	 0.5560155197	-0.2970985236	 1.4770272488	-0.055383
C	-0.2174117603	 0.5239840666	 2.4420770413	-0.246731
N	-0.492713682	-0.914404878	 2.323717109	-0.102354
C	-1.6356156039	-1.2163129334	 1.4425398428	-0.254699
C	-1.3948241806	-0.504397058	 0.1133148912	 0.409689
C	-2.3794927344	 0.3315867066	-0.5828076944	-0.241396
O	-2.0620493794	-0.9888555985	-1.0443192127	-0.291785
H	 1.292803738	 1.0517890474	-0.8305985104	 0.28905
H	 0.5701877982	-1.0667500076	-0.538119002	 0.086419
H	 1.5810212958	-0.5831479942	 1.6970491673	 0.087865
H	 0.2377102923	 0.8194215458	 3.3824747621	 0.118445
H	-0.9369281688	 1.2344626838	 2.0415673211	 0.124067
H	-1.6620526479	-2.2990448848	 1.2739068678	 0.122934
H	-2.5768277786	-0.9286564134	 1.920446745	 0.114893
H	-3.3757187034	 0.4476746257	-0.1568350705	 0.110098
H	-2.0333115053	 1.1406482641	-1.2198338356	 0.135931
81.3924	191.1957	232.4251	266.7021	294.4272	375.4907	381.022	435.5467	530.9322	594.7584	639.5298	767.488	780.2924	846.2069	887.2011	911.0045	939.5771	948.6741	1000.4837	1031.4276	1058.9083	1106.11	1111.6794	1122.5334	1133.8288	1162.3548	1169.1846	1218.2769	1224.1205	1243.8233	1273.5657	1318.0082	1327.2324	1386.153	1412.7404	1443.8705	1493.2048	1507.3937	1523.6761	2991.7763	3041.1681	3087.5716	3090.2433	3108.2986	3142.0285	3192.7986	3195.6572	3828.6999
OC1C2CN2CC11CO1	O[C@H]1[C@H]2CN2C[C@]21CO2	
InChI=1S/C6H9NO2/c8-5-4-1-7(4)2-6(5)3-9-6/h4-5,8H,1-3H2	InChI=1S/C6H9NO2/c8-5-4-1-7(4)2-6(5)3-9-6/h4-5,8H,1-3H2/t4-,5+,6-,7?/m1/s1
