17
gdb 34579	3.61009	1.2223	0.96618	0.9711	96.21	-0.213	-0.0478	0.1652	1205.1182	0.136605	-347.544435	-347.536558	-347.535614	-347.576536	31.088	
C	 0.1482193309	-1.1469757418	-0.3688772816	-0.419135
C	 0.0423178363	 0.0392541755	-0.1841371887	 0.229005
C	-0.0469436853	 1.4470198716	 0.0341275234	 0.07047
C	-1.2769082829	 2.0525097725	-0.0322112645	-0.163623
C	-1.5718938783	 3.4239450974	 0.2861637749	-0.047441
C	-0.7315719424	 4.4676172708	 0.139415999	-0.084162
C	 0.5993350715	 4.3263271644	-0.5528795723	-0.315791
C	 1.4620835583	 3.4160204883	 0.2835194317	-0.079927
C	 1.1740257493	 2.1164952145	 0.4655540259	-0.101988
H	 0.2324098283	-2.192160387	-0.5352408844	 0.193738
H	-2.1257711224	 1.4032035921	-0.2283598871	 0.099836
H	-2.566773096	 3.6123964897	 0.6842803965	 0.093846
H	-1.0219023061	 5.4459723358	 0.5119403782	 0.09868
H	 0.4516000843	 3.8831249198	-1.5473415653	 0.12319
H	 1.0759104763	 5.2991520073	-0.6908181857	 0.103688
H	 2.3524656527	 3.8310622283	 0.7477067019	 0.098552
H	 1.8862833053	 1.4883087806	 0.9936824882	 0.101062
110.0095	152.4381	212.1163	294.5093	337.1439	383.5861	415.8426	519.3657	547.7334	574.0601	606.4214	640.7608	648.0593	709.5085	758.6573	794.9548	896.5816	915.6638	937.7806	968.5001	983.798	995.8028	1037.3603	1088.9694	1159.5757	1221.0335	1230.1985	1269.6905	1324.759	1353.9172	1423.7704	1430.7388	1476.1143	1563.7419	1659.3917	1674.0821	2216.4678	3006.051	3100.2206	3143.2634	3156.5642	3166.9593	3174.7503	3178.4853	3503.3793
C#CC1=CC=CCC=C1	C#CC1=CC=CCC=C1	
InChI=1S/C9H8/c1-2-9-7-5-3-4-6-8-9/h1,3,5-8H,4H2	InChI=1S/C9H8/c1-2-9-7-5-3-4-6-8-9/h1,3,5-8H,4H2
