21
gdb 68917	2.34775	1.79413	1.18905	1.7491	83.29	-0.2391	0.0311	0.2702	1114.6603	0.181728	-387.106497	-387.097578	-387.096634	-387.139527	34.767	
C	-0.0040269539	 1.5063086979	-0.0738515122	-0.469863
C	 0.0435849124	-0.0056010535	 0.0148880632	 0.331029
C	-0.1396664684	-0.6935275343	-1.3297849274	-0.319413
C	 0.1805544466	-2.159016835	-1.3436075071	-0.053512
C	 0.7818201772	-2.797789359	-0.3453845437	-0.05351
C	 1.2207457517	-2.1388006241	 0.9287700802	-0.319409
C	 0.714189975	-0.7180275334	 1.1282148332	 0.331024
C	 1.4040191957	 0.0104403798	 2.2637660749	-0.46986
O	-0.7183737001	-0.5892459089	 1.0869420237	-0.331097
H	 0.863699985	 1.8920434266	-0.6201941164	 0.118811
H	-0.9031331077	 1.8186982205	-0.6172343628	 0.123452
H	-0.0323790879	 1.9731343242	 0.9106971833	 0.127591
H	-1.1786479903	-0.5333670251	-1.6536781256	 0.114174
H	 0.4770082413	-0.1728646144	-2.077701332	 0.108431
H	-0.1017491419	-2.7044017361	-2.2407849339	 0.084849
H	 0.9877096736	-3.8618212845	-0.4320618847	 0.084849
H	 0.896966839	-2.7384587388	 1.7922619651	 0.114174
H	 2.3197861417	-2.1306005418	 0.9816763575	 0.10843
H	 2.4556513197	 0.2007185259	 2.0227351998	 0.11881
H	 0.9211876338	 0.9602431955	 2.4935789327	 0.127587
H	 1.3781554375	-0.6049472615	 3.1703383222	 0.123454
114.4956	145.832	162.1562	169.9225	298.4302	329.0831	339.8291	390.2825	422.3752	451.387	479.9859	564.7738	655.9931	677.2277	685.3483	822.6234	878.0429	899.668	925.2283	949.5118	954.3427	1003.6986	1003.7534	1032.2772	1070.6999	1107.3002	1139.1897	1181.0241	1201.2965	1214.9262	1239.9806	1266.0837	1374.948	1386.5015	1405.7709	1417.0796	1418.7526	1447.547	1461.5739	1466.1672	1476.704	1485.4889	1504.2434	1518.0558	1745.5792	2995.1504	2995.4687	3017.2673	3017.6631	3034.0623	3037.6348	3091.4455	3092.5576	3137.5763	3144.6198	3152.7236	3168.0757
CC12CC=CCC1(C)O2	C[C@@]12CC=CC[C@]1(C)O2	
InChI=1S/C8H12O/c1-7-5-3-4-6-8(7,2)9-7/h3-4H,5-6H2,1-2H3	InChI=1S/C8H12O/c1-7-5-3-4-6-8(7,2)9-7/h3-4H,5-6H2,1-2H3/t7-,8+
