20
gdb 22585	3.85784	0.98938	0.83524	1.216	88.48	-0.2217	-0.0281	0.1936	1403.6421	0.171742	-403.139037	-403.130321	-403.129377	-403.172252	33.874	
C	-0.0554392574	 1.5592348347	 0.0114049372	-0.402763
C	 0.0106450151	 0.0243872478	-0.0003788595	-0.016212
C	 0.660236715	-0.5108865862	-1.2880422508	-0.213626
C	 0.93956117	-2.0170684606	-1.1940719607	-0.298216
C	 1.8154997114	-2.3181501521	-0.0015217763	 0.358582
C	 1.5689260661	-1.5450130784	 1.212597123	-0.134054
C	 0.7266132028	-0.5021037512	 1.2193214789	-0.058484
N	 2.6911844116	-3.2478183761	-0.1428981904	-0.215896
O	 3.4388754535	-3.4628136207	 1.0264002228	-0.395889
H	 0.950102063	 1.9933822136	-0.0085104447	 0.121475
H	-0.6015167651	 1.9318194592	-0.861205409	 0.114939
H	-0.5625945866	 1.9289456161	 0.9087061505	 0.113844
H	-1.0266934778	-0.3479369613	 0.0402381751	 0.088399
H	 0.0177861356	-0.2964297884	-2.1489035259	 0.095257
H	 1.6051309058	 0.0226219514	-1.4546745723	 0.104869
H	-0.0138898924	-2.5518130513	-1.0764986001	 0.110824
H	 1.4125696241	-2.4010200163	-2.1010895156	 0.115057
H	 2.0812631598	-1.8547627876	 2.1147184853	 0.113638
H	 0.5415396414	 0.0239087294	 2.1543269164	 0.092559
H	 4.0193187541	-4.183078282	 0.7607662662	 0.305696
65.5269	179.9305	230.218	232.1231	277.075	310.5944	336.1635	370.498	396.3914	457.6056	518.3783	589.0721	635.4753	725.0713	770.9446	792.5697	839.9772	917.2068	958.0214	964.2109	978.295	1014.4737	1028.488	1069.6456	1113.0861	1124.6667	1173.4285	1233.3835	1239.662	1288.5212	1315.7369	1344.8967	1351.7181	1370.5674	1403.9225	1409.0839	1429.4377	1477.703	1490.6937	1497.879	1501.4356	1673.4854	1702.182	2962.6699	3007.7644	3025.1546	3030.7699	3072.1608	3100.0231	3100.7158	3103.2154	3141.8688	3215.3733	3826.9881
CC1CCC(C=C1)=NO	C[C@H]1CCC(=NO)C=C1	
InChI=1S/C7H11NO/c1-6-2-4-7(8-9)5-3-6/h2,4,6,9H,3,5H2,1H3	InChI=1S/C7H11NO/c1-6-2-4-7(8-9)5-3-6/h2,4,6,9H,3,5H2,1H3/t6-/m1/s1
