17
gdb 114653	2.92754	1.27764	1.1186	2.2805	67.68	-0.25	-0.0157	0.2343	1117.3187	0.135994	-458.939509	-458.931532	-458.930588	-458.972383	29.976	
O	-0.1034774378	 1.4265541226	-0.0761922202	-0.417058
C	 0.0198330405	 0.0220560285	 0.0860043369	-0.108689
C	-1.3800605376	-0.5694650791	 0.0118747244	 0.013973
C	-2.0841790292	-0.4075108589	-1.38317086	-0.24102
C	-2.3297889214	-1.8943794789	-1.6903983935	-0.045202
O	-2.7730628989	-2.4195009337	-0.391317605	-0.294696
C	-1.4275069131	-2.1108946274	 0.0985285535	-0.071398
C	-0.983095125	-2.5543124326	-1.3166165827	 0.447816
O	-0.1514753013	-3.2418166106	-1.8189404167	-0.317693
H	 0.7782326553	 1.8105625485	-0.0680570892	 0.290993
H	 0.654991089	-0.41632917	-0.7010703918	 0.100055
H	 0.4800325607	-0.2298480112	 1.0551517013	 0.09255
H	-1.9899700904	-0.135979801	 0.8085851115	 0.098348
H	-3.0237909528	 0.1430313116	-1.3142236467	 0.121505
H	-1.446369833	 0.0847419623	-2.1221235999	 0.122116
H	-2.9468766432	-2.1951175983	-2.5343940872	 0.104878
H	-1.1538658017	-2.6208731118	 1.0202315554	 0.103521
85.9604	118.9516	170.8705	216.891	275.3379	390.1244	412.5346	453.8027	500.6845	636.0894	669.451	762.4881	834.7423	865.1867	871.7499	921.6068	936.6913	958.8632	1021.4187	1049.182	1059.9372	1078.5093	1087.1806	1160.6037	1164.3418	1218.2545	1225.571	1249.1102	1259.2471	1286.9444	1310.8923	1313.0121	1364.223	1467.0347	1484.6519	1522.6551	1921.201	2963.376	2992.0339	3073.2019	3079.9557	3125.7535	3149.6231	3155.6277	3829.084
OCC1CC2OC1C2=O	OC[C@H]1C[C@@H]2O[C@H]1C2=O	
InChI=1S/C6H8O3/c7-2-3-1-4-5(8)6(3)9-4/h3-4,6-7H,1-2H2	InChI=1S/C6H8O3/c7-2-3-1-4-5(8)6(3)9-4/h3-4,6-7H,1-2H2/t3-,4+,6-/m1/s1
