18
gdb 10740	2.48276	1.99358	1.64074	2.687	72.08	-0.2552	0.0284	0.2835	911.472	0.15233	-343.973739	-343.965034	-343.96409	-344.006384	32.212	
C	 0.3811626249	 1.5184336533	 0.219515514	-0.394943
C	-0.0420840174	 0.0541566332	 0.0073064474	 0.123629
C	 0.4984027907	-0.8460034169	 1.1324332342	-0.394946
C	-1.5263288536	-0.0184507557	 0.0097461495	 0.253915
N	-2.679733084	-0.0932221725	-0.0351547568	-0.353775
N	 0.5445079305	-0.4056520303	-1.2589567646	-0.079517
C	-0.0597247286	-1.5167511817	-1.9871800728	-0.235185
C	-0.1286176932	-0.127377684	-2.5236397729	-0.235189
H	 1.4724945284	 1.5720893384	 0.2123545363	 0.133969
H	-0.004973633	 2.1534427993	-0.5816826829	 0.133929
H	 0.0068673849	 1.8973941421	 1.1737224468	 0.131297
H	 0.1267103946	-0.5175065534	 2.1061651303	 0.131299
H	 0.1951439721	-1.8843964627	 0.9774270011	 0.133934
H	 1.5899396995	-0.7964520275	 1.1267404264	 0.133976
H	 0.6414189934	-2.2374593299	-2.3969683232	 0.122204
H	-0.9911691453	-1.9361652946	-1.6129673295	 0.1366
H	-1.1046549414	 0.3523656349	-2.4966172055	 0.136596
H	 0.5210838874	 0.1892059481	-3.333956138	 0.122207
105.4319	148.9416	186.5841	217.6843	239.0857	247.2499	310.6343	329.98	406.8281	468.0294	590.128	601.0325	638.9746	765.6532	831.1982	914.9873	933.8028	949.2045	1002.4854	1025.2993	1045.7503	1117.8803	1131.973	1169.4368	1174.9074	1196.8357	1211.6228	1234.4279	1315.9786	1394.5197	1416.0601	1475.8073	1482.5678	1489.8114	1491.7755	1505.4097	1517.038	2337.4379	3049.5152	3053.1386	3106.0993	3108.6288	3129.5374	3131.6709	3133.3317	3137.9189	3189.7265	3203.0609
CC(C)(C#N)N1CC1	CC(C)(C#N)N1CC1	
InChI=1S/C6H10N2/c1-6(2,5-7)8-3-4-8/h3-4H2,1-2H3	InChI=1S/C6H10N2/c1-6(2,5-7)8-3-4-8/h3-4H2,1-2H3
