14
gdb 23189	2.67898	1.35244	0.9858	3.6235	72.67	-0.2557	-0.0205	0.2352	1143.39	0.10059	-432.78091	-432.773027	-432.772083	-432.813534	29.301	
O	-0.1324279823	 1.330407857	-0.0660441733	-0.380146
N	 0.0148852387	-0.0549812146	 0.0516945396	-0.244007
C	-1.1007988067	-0.6417419645	-0.0271132063	 0.410677
C	-2.5781215711	-0.2509652286	-0.0836978261	-0.317969
C	-2.89852859	-1.748643852	 0.0955806553	-0.107372
N	-2.3054601391	-2.4433318479	-1.0457926865	-0.348925
C	-1.4232951181	-2.0959507818	 0.1271805611	 0.152058
C	-0.7324956112	-3.102073802	 0.8599517257	 0.182825
N	-0.1769512922	-3.9236089177	 1.456209322	-0.341711
H	 0.7750427348	 1.6424017103	 0.0239409824	 0.316215
H	-2.8589767317	 0.3702034189	 0.7706699152	 0.144038
H	-2.9395148023	 0.1983904787	-1.0103145876	 0.145038
H	-3.6874509765	-2.1883556063	 0.6911141517	 0.134147
H	-2.5208512524	-3.4382746794	-0.9608418333	 0.255131
101.0798	140.5617	160.844	227.2244	336.0642	405.2518	426.118	455.9018	520.7405	528.3867	583.1247	649.8505	732.4186	818.1607	836.2711	893.6908	954.3104	1004.2	1017.1823	1042.856	1088.2295	1126.0834	1164.5375	1214.9236	1275.0375	1333.6599	1375.6784	1428.1044	1460.0137	1797.8363	2351.9712	3076.2648	3134.925	3215.5596	3464.6931	3812.1464
ON=C1CC2NC12C#N	ON=C1C[C@H]2N[C@@]12C#N	
InChI=1S/C5H5N3O/c6-2-5-3(7-5)1-4(5)8-9/h3,7,9H,1H2	InChI=1S/C5H5N3O/c6-2-5-3(7-5)1-4(5)8-9/h3,7,9H,1H2/t3-,5-/m1/s1
