21
gdb 107287	3.3026	1.32129	1.16734	0.9205	81.81	-0.2304	0.0852	0.3157	1151.4934	0.182705	-387.023675	-387.015438	-387.014493	-387.05638	32.587	
C	 0.0704809572	 1.3250994185	 0.2620830559	-0.257206
O	 0.0137592045	-0.0135551376	-0.2004674505	-0.28196
C	-1.251426875	-0.5592059992	-0.133109198	 0.445853
C	-1.8241533672	-1.0740616796	 1.1570442758	-0.358215
C	-1.618222368	-2.0296475993	-0.0038203908	-0.156785
C	-2.701170128	-1.8630955285	-1.0943213984	-0.006154
C	-4.1539420713	-1.4607912136	-0.6901583295	-0.241313
C	-3.7741716629	 0.050564778	-0.8363910869	-0.245255
C	-2.3243258214	-0.3576410315	-1.2341958433	-0.092102
H	 1.1096598243	 1.6505766572	 0.1755659813	 0.125297
H	-0.5618409546	 1.9908587465	-0.3426586799	 0.110694
H	-0.2475372051	 1.4009485651	 1.3114471743	 0.109546
H	-1.0789284371	-1.1845028304	 1.9389971161	 0.11444
H	-2.8129117281	-0.8118659236	 1.5207287161	 0.107872
H	-0.9746960163	-2.8945850687	 0.1045061715	 0.091272
H	-2.59125415	-2.5447395528	-1.9379065702	 0.068452
H	-4.904745021	-1.7873336434	-1.4135937541	 0.098482
H	-4.4794190404	-1.7839291023	 0.3019572041	 0.100588
H	-4.3155075661	 0.5543288795	-1.6408937227	 0.097583
H	-3.8654838155	 0.6607677796	 0.066421991	 0.097354
H	-1.9135532878	 0.0318239261	-2.1660709216	 0.071558
83.968	134.6437	184.8305	229.8318	294.4061	334.2377	388.9506	428.6348	504.2872	645.3379	675.3899	729.3794	793.5699	816.9429	853.2001	877.716	911.3881	927.3701	951.8219	973.493	976.1367	1013.3085	1040.7715	1063.8189	1083.1039	1097.6495	1110.0989	1141.1956	1179.648	1183.509	1213.4031	1226.1395	1238.2462	1243.9009	1246.6504	1276.2393	1299.3224	1310.5415	1378.1542	1473.0386	1474.3756	1487.3709	1492.2559	1503.0452	1506.9874	2989.6855	3042.6135	3054.735	3062.4748	3093.3652	3103.7262	3108.0984	3119.3544	3119.7899	3121.525	3180.1921	3204.3263
COC12CC1C1CCC21	CO[C@]12C[C@H]1[C@H]1CC[C@@H]21	
InChI=1S/C8H12O/c1-9-8-4-7(8)5-2-3-6(5)8/h5-7H,2-4H2,1H3	InChI=1S/C8H12O/c1-9-8-4-7(8)5-2-3-6(5)8/h5-7H,2-4H2,1H3/t5-,6+,7-,8-/m0/s1
