18
gdb 88893	6.20142	0.56821	0.54359	5.662	91.51	-0.278	-0.0347	0.2432	1981.8365	0.14679	-364.793535	-364.784026	-364.783082	-364.829065	33.848	
C	 0.2581068544	 1.5566517919	-0.2712462483	-0.40694
C	 0.104732568	 0.0683995935	-0.0409391902	-0.00853
C	 1.3096879123	-0.8345819127	 0.0755533617	-0.283688
C	 0.4241494342	-0.6062701294	 1.2753454579	 0.009176
C	 0.9289000499	 0.1752461825	 2.4835700647	-0.407791
C	 1.6715532774	-0.661452967	 3.4149313209	 0.098618
C	 2.2795328844	-1.3729048542	 4.1796275269	 0.046544
C	 2.9683295325	-2.1729818219	 5.0445790839	 0.207543
N	 3.5548233255	-2.8540912464	 5.7809973587	-0.340677
H	 1.1649275932	 1.9560896791	 0.1925274611	 0.116228
H	 0.3260966347	 1.7719033338	-1.3428300655	 0.125211
H	-0.5961876327	 2.1165777435	 0.1253948696	 0.121144
H	-0.749781533	-0.3619668951	-0.5570058485	 0.09287
H	 1.2977602986	-1.8067986724	-0.4038819619	 0.11964
H	 2.28539785	-0.3571678085	 0.0809848456	 0.115433
H	-0.2263336333	-1.4308492903	 1.5512963007	 0.101408
H	 1.5741370452	 1.0027249933	 2.1669548218	 0.145258
H	 0.0859446387	 0.6337304903	 3.0184105808	 0.148554
35.5822	63.1118	148.856	154.6608	200.6325	220.4143	299.5695	361.1817	396.1588	457.1523	484.1952	577.0754	579.1757	731.6473	761.0764	824.3652	863.0288	875.7627	926.777	977.5083	1051.0533	1074.3119	1107.7225	1143.0481	1151.1756	1169.4062	1198.8842	1243.016	1251.1127	1316.3086	1387.7671	1415.6037	1427.9086	1455.4722	1493.614	1494.4175	1505.5871	2264.7024	2401.2763	3019.5626	3031.8504	3064.4153	3092.261	3102.2265	3127.6046	3137.8123	3153.6759	3213.7198
CC1CC1CC#CC#N	C[C@H]1C[C@H]1CC#CC#N	
InChI=1S/C8H9N/c1-7-6-8(7)4-2-3-5-9/h7-8H,4,6H2,1H3	InChI=1S/C8H9N/c1-7-6-8(7)4-2-3-5-9/h7-8H,4,6H2,1H3/t7-,8+/m0/s1
