12
gdb 16785	3.65779	2.26297	1.52564	3.4298	56.64	-0.2734	-0.0348	0.2386	767.6077	0.085552	-414.673596	-414.667604	-414.666659	-414.703812	22.702	
N	-0.0740078156	 1.2642573197	-0.0556342627	-0.529051
C	-0.0522169543	 0.0132324587	 0.0379603075	 0.474728
O	 1.0992270016	-0.7513760237	 0.2018406106	-0.230794
C	 0.8433641429	-2.1039565397	 0.0062118519	 0.489716
O	 1.7164885938	-2.9062060993	-0.0886927143	-0.315444
C	-0.6452423973	-2.2788556783	-0.0824030119	-0.204097
N	-1.2872228211	-1.7717587546	 1.1556282387	-0.322526
C	-1.217852051	-0.9104866274	-0.0465022766	-0.131204
H	 0.8653786717	 1.6587400744	 0.0161427378	 0.24277
H	-1.0551891528	-3.1182417761	-0.6274406664	 0.135839
H	-2.2236846103	-2.1697187511	 1.2095880866	 0.254601
H	-2.1138103675	-0.6027608926	-0.5677706512	 0.135462
147.918	196.2459	331.8301	374.5463	497.9442	612.6166	628.8065	727.3305	768.0044	849.1673	859.5782	871.864	895.6745	907.9126	940.6153	984.2042	1074.905	1110.0241	1138.1148	1161.8399	1251.4787	1330.4056	1358.7906	1391.8824	1803.311	1923.5348	3216.1991	3224.9173	3482.8631	3490.3416
N=C1OC(=O)C2NC12	[NH][C]1OC(=O)[C@H]2N[C@@H]12	
InChI=1S/C4H4N2O2/c5-3-1-2(6-1)4(7)8-3/h1-2,5-6H	InChI=1S/C4H4N2O2/c5-3-1-2(6-1)4(7)8-3/h1-2,5-6H/t1-,2+/m1/s1
