15
gdb 26607	2.41165	1.89876	1.0662	2.1748	74.07	-0.1906	-0.0194	0.1712	1045.4214	0.11648	-450.206812	-450.199126	-450.198182	-450.238631	29.899	
N	-0.0095767596	 1.3720858526	 0.1483321833	-0.570877
C	-0.0163090443	-0.0054249165	 0.0587467109	 0.301434
C	-1.2067436457	-0.694091539	-0.0388200693	 0.097869
N	-2.4470954982	-0.0289254353	-0.1117279346	-0.611679
C	-1.200200801	-2.1271360236	-0.1203220219	 0.378783
O	-2.1815830664	-2.8535844614	-0.2264942555	-0.421513
N	 0.1018170263	-2.6655240314	-0.0737899534	-0.347634
C	 1.2191604714	-1.9098340919	 0.053790581	 0.088091
N	 1.2110577925	-0.6173585706	 0.1210883159	-0.334588
H	 0.8927262059	 1.7824805582	-0.0447681	 0.256495
H	-0.780642361	 1.8208318946	-0.3291688922	 0.259532
H	-2.615464281	 0.5639552623	 0.6955502525	 0.245253
H	-3.1850366903	-0.7244758252	-0.1748860017	 0.259207
H	 0.1588244418	-3.6736966639	-0.1202978576	 0.265564
H	 2.1622190695	-2.447300829	 0.0952070325	 0.134063
143.7295	206.0071	236.1238	272.2962	300.6445	341.7328	492.3936	516.8201	534.7274	540.6995	563.5377	620.0614	679.3988	712.1545	736.8423	781.3943	857.6265	913.3635	923.1814	998.9847	1085.1017	1161.914	1204.8051	1289.3534	1339.8318	1394.721	1460.0293	1463.674	1601.7568	1626.5286	1636.5534	1680.7548	1764.8873	3174.6897	3485.0512	3543.9404	3574.8389	3605.4719	3663.2467
NC1=C(N)C(=O)NC=N1	Nc1c(N)c(=O)[nH]cn1	
InChI=1S/C4H6N4O/c5-2-3(6)7-1-8-4(2)9/h1H,5H2,(H3,6,7,8,9)	InChI=1S/C4H6N4O/c5-2-3(6)7-1-8-4(2)9/h1H,5H2,(H3,6,7,8,9)
