18
gdb 113184	3.38459	1.0049	0.89193	17.7162	74.31	-0.1689	-0.0428	0.126	1320.0712	0.146987	-476.168097	-476.158913	-476.157969	-476.202488	33.666	
N	-0.5727858762	 0.9571274809	-0.0050177338	-0.409797
H	-0.6047018958	-0.0651005966	 0.0275010813	 0.318224
H	 0.0810300926	 1.2489687258	-0.7337002296	 0.328074
H	-1.4946656941	 1.3241832545	-0.2619926373	 0.323445
C	-0.1944997642	 1.6250434861	 1.3501919882	-0.232115
C	-0.4166162824	 3.0837472311	 1.2686858147	-0.127907
C	-1.8364086396	 3.5984651813	 0.9902799748	-0.380416
C	-1.3078402139	 3.6776513778	 2.3768850743	 0.313915
O	-1.808619303	 2.8297406793	 3.3393560946	-0.487291
C	-0.8232163522	 5.0288286236	 2.97727096	 0.340769
O	-0.984373064	 5.0325018047	 4.2224633993	-0.501591
O	-0.3493868841	 5.8484566125	 2.1828019347	-0.477598
H	-0.8520581812	 1.168565796	 2.0966860321	 0.182129
H	 0.8415025851	 1.3354222566	 1.5347379986	 0.158353
H	 0.3972889644	 3.7227657416	 0.9442331882	 0.126192
H	-1.896010529	 4.5221994293	 0.4263947988	 0.150837
H	-2.6364097982	 2.8776376652	 0.8150006407	 0.083092
H	-1.6295638541	 3.4197884302	 4.1300741903	 0.291684
70.8546	92.1722	127.1305	177.7181	214.085	264.2069	288.3245	366.9031	439.5132	495.6713	537.3895	621.232	681.7344	751.6282	784.9162	821.0571	830.1635	848.4257	889.5468	894.9325	953.9222	1015.5673	1018.842	1049.5389	1097.0081	1169.3159	1204.9452	1296.3901	1319.1077	1340.2374	1346.4742	1375.0083	1423.7185	1436.3989	1491.1492	1495.5367	1631.1323	1656.596	1793.5013	3067.2173	3075.6771	3137.5558	3163.2984	3177.0162	3209.8305	3384.3852	3477.8032	3515.2693
[NH3+]CC1CC1(O)C([O-])=O	[NH3]C[C@H]1C[C@]1(O)C(=O)[O]	
InChI=1S/C5H9NO3/c6-2-3-1-5(3,9)4(7)8/h3,9H,1-2,6H2,(H,7,8)	InChI=1S/C5H9NO3/c6-2-3-1-5(3,9)4(7)8/h3,9H,1-2H2,6H3/t3-,5-/m1/s1
