16
gdb 16879	4.18786	1.85666	1.42006	2.3499	64.08	-0.2298	-0.0174	0.2124	861.2951	0.131433	-383.742751	-383.736066	-383.735122	-383.773685	26.045	
O	-0.0228313626	 0.6675988372	-1.3473635548	-0.30251
C	-0.0277677363	 1.2836715881	-0.3098834169	 0.362601
C	-1.3329543254	 1.810134174	 0.2975395207	-0.17436
O	-1.1498966662	 2.376448753	 1.5848210957	-0.247369
C	-0.2222943112	 3.4254192369	 1.5549274161	 0.105875
C	 0.931155862	 3.3142890032	 2.5014561966	-0.313884
C	 1.1385100376	 3.0428426771	 1.0255014354	-0.064264
C	 1.2224384706	 1.6130433536	 0.4981811695	-0.330188
H	-1.78182646	 2.5280163371	-0.4070769488	 0.121713
H	-2.0320849441	 0.9759869889	 0.4071852293	 0.141972
H	-0.6479660982	 4.4022744144	 1.3274958371	 0.090378
H	 1.3403218757	 4.2285168617	 2.9163032634	 0.118727
H	 0.9281201612	 2.4643146354	 3.1753324631	 0.126164
H	 1.6827109693	 3.7862909244	 0.4529507757	 0.1018
H	 1.2754826267	 0.8967613791	 1.3278478163	 0.133254
H	 2.0989960908	 1.4475223859	-0.1309273384	 0.130091
82.9209	207.0041	298.6002	376.2807	445.7191	464.0263	490.1508	544.2161	662.2908	758.6373	787.6662	816.3548	870.6813	898.0413	977.7188	1002.9694	1033.2145	1064.5503	1090.9519	1104.2664	1124.6941	1167.0808	1189.0075	1225.3363	1242.0223	1270.947	1288.1596	1343.9215	1369.9038	1400.7524	1451.4192	1460.1185	1480.9175	1828.6936	2988.768	3035.6	3095.5606	3105.7501	3117.4401	3136.6994	3165.6678	3227.5531
O=C1COC2CC2C1	O=C1CO[C@H]2C[C@H]2C1	
InChI=1S/C6H8O2/c7-5-1-4-2-6(4)8-3-5/h4,6H,1-3H2	InChI=1S/C6H8O2/c7-5-1-4-2-6(4)8-3-5/h4,6H,1-3H2/t4-,6+/m1/s1
