18
gdb 32628	2.97034	1.28649	0.97325	1.3582	75.15	-0.1716	0.0569	0.2285	1223.1907	0.146838	-439.110625	-439.101198	-439.100254	-439.144924	34.752	
C	-0.0296550892	 1.555469989	 0.0213123615	-0.375384
C	-0.01169248	 0.0253337021	-0.0269745081	-0.152139
N	 0.655982334	-0.5031216636	-1.2047015968	-0.040452
C	 0.0504225981	-0.9329169252	-2.3727325269	-0.109084
C	 1.0273357043	-1.303462885	-3.2659774941	-0.282927
C	 2.280036945	-1.0723606789	-2.6265437795	 0.139675
O	 3.5660402015	-1.338533544	-3.0571879183	-0.463217
C	 2.0109963278	-0.5790189181	-1.3731652812	 0.30523
O	 2.8423361854	-0.2080311781	-0.363935052	-0.45687
H	 0.9897342998	 1.9493210463	 0.0489815191	 0.14003
H	-0.5366040096	 1.9663836523	-0.8567507211	 0.124817
H	-0.5558189565	 1.8997254462	 0.9174275655	 0.11531
H	 0.4926990145	-0.3720841134	 0.8592019126	 0.129879
H	-1.0307103966	-0.3726849414	-0.0286398365	 0.115149
H	-1.0242512785	-0.9448786299	-2.4513628728	 0.112256
H	 0.8711377907	-1.7053001613	-4.2551818859	 0.093877
H	 3.7219313157	-0.8589740372	-3.8772828086	 0.295018
H	 3.7376533937	-0.3919206597	-0.6734001067	 0.308831
55.7551	89.5884	201.7906	211.334	243.4939	254.2789	295.2366	305.4656	354.9431	399.0124	528.2044	578.6452	609.3382	620.6695	683.872	741.5554	752.9672	763.0715	803.5794	951.4193	1023.4441	1065.9545	1103.2655	1123.2034	1168.6085	1236.7512	1260.4621	1288.6441	1323.5715	1392.1016	1402.0841	1410.1848	1415.8652	1481.3044	1491.3647	1507.1621	1523.4081	1567.1444	1671.3019	3041.7285	3054.1317	3094.4814	3114.5191	3129.6999	3245.4444	3270.5535	3800.182	3803.6804
CCN1C=CC(O)=C1O	CCn1ccc(O)c1O	
InChI=1S/C6H9NO2/c1-2-7-4-3-5(8)6(7)9/h3-4,8-9H,2H2,1H3	InChI=1S/C6H9NO2/c1-2-7-4-3-5(8)6(7)9/h3-4,8-9H,2H2,1H3
