23
gdb 53502	4.02237	0.63249	0.60705	1.5416	91.32	-0.2377	0.0606	0.2983	1959.8508	0.202125	-388.2773	-388.265433	-388.264488	-388.315917	41.626	
C	 0.0959523677	 1.5269802672	 0.046362684	-0.498377
C	 0.0502081044	 0.0717914091	 0.0020926736	 0.102759
C	 0.0278083942	-1.1322991248	-0.0326452228	 0.026617
C	-0.0186301052	-2.5898793749	-0.063825541	-0.364554
C	-1.4527665576	-3.1756338332	-0.0935417838	 0.034927
C	-2.216339438	-2.7088226564	-1.3392523976	-0.41303
C	-1.3761444053	-4.7146593111	 0.0320194218	 0.137108
C	-2.7344498882	-5.3885709321	 0.229236617	-0.424214
O	-0.662611423	-5.3006316035	-1.0571037032	-0.436245
H	 0.8729911839	 1.8802341247	 0.7336653948	 0.145551
H	 0.3113666108	 1.951908317	-0.9405246609	 0.144429
H	-0.8576616718	 1.9474531098	 0.3850711739	 0.143744
H	 0.5285655081	-2.9704488692	-0.9350084875	 0.135208
H	 0.5072101441	-2.9868687098	 0.8150057312	 0.117899
H	-1.9809978599	-2.8059658726	 0.7952605728	 0.07798
H	-3.2595587602	-3.0375608269	-1.328796765	 0.111868
H	-2.2089833382	-1.6177749103	-1.3996875762	 0.134703
H	-1.7463272775	-3.0867341396	-2.2552547311	 0.106403
H	-0.7537831888	-4.9409191456	 0.9074165129	 0.083577
H	-3.3874918974	-5.2415233175	-0.6387709393	 0.111649
H	-2.5992443225	-6.4645915337	 0.3690022438	 0.124681
H	-3.2523859025	-4.987356876	 1.1064830507	 0.117292
H	-1.2343164872	-5.2722810104	-1.8315547982	 0.280027
23.0819	50.3991	69.0276	89.4568	203.493	218.1302	226.9139	242.2842	274.9942	288.0014	297.5564	321.4913	385.4601	394.514	473.4737	518.1187	612.0526	757.8811	805.8332	871.758	896.2858	937.2527	1002.5337	1020.6603	1053.3017	1054.1848	1076.2298	1103.129	1126.6324	1164.0547	1170.4641	1244.5096	1277.4869	1306.9366	1343.4071	1365.9606	1378.9116	1404.3389	1411.0724	1415.9991	1426.3672	1473.3422	1479.6117	1480.3036	1490.3657	1493.8845	1502.6389	1511.1866	2369.6126	3014.0229	3018.1287	3023.9587	3027.9496	3031.312	3033.6725	3057.2404	3082.947	3083.2941	3096.6377	3100.9344	3116.2779	3121.7735	3809.933
CC#CCC(C)C(C)O	CC#CC[C@@H](C)[C@@H](C)O	
InChI=1S/C8H14O/c1-4-5-6-7(2)8(3)9/h7-9H,6H2,1-3H3	InChI=1S/C8H14O/c1-4-5-6-7(2)8(3)9/h7-9H,6H2,1-3H3/t7-,8-/m1/s1
