16
gdb 33320	4.66472	0.83229	0.78826	1.4988	92.85	-0.2289	-0.025	0.2039	1447.8115	0.123635	-363.507545	-363.499372	-363.498428	-363.540685	30.914	
C	-0.0111148082	-3.805213139	-0.0731676336	-0.561245
C	 0.006783537	-2.5981048838	-0.0305792721	 0.298965
C	 0.0269883182	-1.2397441744	 0.0172922729	-0.271427
C	 0.0421667027	-0.0284234511	 0.0649037627	 0.478652
C	 0.036530114	 1.4006442154	 0.0959446797	-0.269899
C	 0.5133099043	 2.2014452439	 1.2593623787	-0.019222
C	 1.6476843411	 1.511143315	 2.008969468	-0.258597
C	 2.3859450798	 1.4785038259	 0.6445276776	-0.155302
N	 1.2723264802	 2.2324559016	-0.0448262188	-0.144404
H	-0.0287387317	-4.8660810339	-0.1110981329	 0.193571
H	-0.7778057357	 1.8553754537	-0.4637280423	 0.126049
H	-0.0620725991	 3.0532868386	 1.6098280417	 0.10274
H	 2.1320416301	 2.1623275133	 2.7380961892	 0.116
H	 1.4056241167	 0.556998353	 2.4831739039	 0.121094
H	 3.291516344	 2.0862071633	 0.6176665669	 0.117642
H	 2.5908460665	 0.4988098988	 0.2066646284	 0.125382
74.4946	89.9558	195.5686	215.6747	315.1144	372.4924	485.4102	490.7969	525.1466	537.2218	590.671	603.9669	747.3065	750.7766	771.8258	796.7812	804.3851	944.9588	951.8039	1004.4494	1027.5391	1061.6818	1101.2664	1153.855	1175.1328	1220.9737	1246.6149	1267.4824	1290.3368	1349.9911	1398.2942	1480.8532	1502.0781	2179.0806	2348.175	3069.484	3074.9696	3119.8997	3134.7984	3136.8947	3156.997	3504.2369
C#CC#CC1C2CCN12	C#CC#C[C@H]1[C@H]2CCN12	
InChI=1S/C8H7N/c1-2-3-4-7-8-5-6-9(7)8/h1,7-8H,5-6H2	InChI=1S/C8H7N/c1-2-3-4-7-8-5-6-9(7)8/h1,7-8H,5-6H2/t7-,8+,9?/m0/s1
