18
gdb 109482	2.09233	1.81673	1.05684	2.2444	76.69	-0.2359	0.0058	0.2417	1142.2768	0.149224	-435.309586	-435.300917	-435.299972	-435.343551	31.722	
C	-0.014196109	 1.5672359873	-0.0133003678	-0.386767
C	-0.0404109231	 0.0388709524	 0.0287176402	-0.143011
N	-1.3964396013	-0.4973219711	 0.0297994339	-0.116546
C	-2.1248613961	-0.7806078847	 1.1632290394	 0.338162
N	-1.6952399697	-0.6131340388	 2.3476884035	-0.548421
C	-3.4538611546	-1.3017812251	 0.6404939413	-0.194055
O	-3.3461534477	-1.2381099646	-0.7835574118	-0.251967
C	-2.113423425	-0.755205292	-1.1280590714	 0.482384
N	-1.6793818467	-0.5687959884	-2.2990334832	-0.591944
H	 1.0212224117	 1.9212223276	-0.0131720272	 0.119573
H	-0.5021707841	 1.9339855672	-0.9200368689	 0.139476
H	-0.5194660918	 1.9872688127	 0.8606075971	 0.134029
H	 0.464807843	-0.3796362181	-0.8444781367	 0.14047
H	 0.4397938472	-0.332111044	 0.9371286596	 0.139032
H	-2.3925380126	-0.8983931207	 3.0329884811	 0.221442
H	-3.6323474406	-2.3370470003	 0.950391528	 0.143594
H	-4.2926987471	-0.6814090317	 0.9732892308	 0.143379
H	-2.3779990125	-0.8382950776	-2.987462798	 0.23117
53.3625	109.0263	132.0379	174.5003	217.3222	313.0591	341.8076	420.419	552.4107	562.9015	616.7798	689.549	723.0923	745.0379	788.5791	794.0076	818.2442	955.6928	977.6007	1025.8279	1034.204	1086.1009	1089.6567	1112.541	1198.9246	1208.5353	1231.0995	1297.2244	1365.1696	1394.549	1403.5181	1412.0594	1460.4088	1489.2368	1494.0559	1502.9248	1505.0502	1740.4699	1795.1696	3043.5201	3046.516	3075.9757	3085.9948	3118.409	3120.9133	3141.8017	3501.3692	3534.9956
CCN1C(=N)COC1=N	CCN1[C]([NH])CO[C]1[NH]	
InChI=1S/C5H9N3O/c1-2-8-4(6)3-9-5(8)7/h6-7H,2-3H2,1H3	InChI=1S/C5H9N3O/c1-2-8-4(6)3-9-5(8)7/h6-7H,2-3H2,1H3
