15
gdb 25980	4.62095	1.01349	0.85762	3.8789	67.75	-0.2397	-0.0087	0.2311	1268.2394	0.113956	-454.015512	-454.007587	-454.006643	-454.049537	28.746	
N	 0.1818531491	 0.1966999966	 0.99372656	-0.513656
C	-0.0988107516	 0.2402979395	-0.3302843405	 0.394317
O	 0.234931449	 1.1411799443	-1.0740039208	-0.362302
C	-0.9700163938	-0.9144232874	-0.8685195612	-0.432205
C	-0.8493314145	-2.2431445951	-0.2023777184	 0.413369
N	-0.6989778735	-2.5229559977	 1.0574359449	-0.320087
C	-0.6703076296	-3.9105297443	 1.1179583718	-0.110932
C	-0.8112694951	-4.4031062297	-0.1321322517	-0.048269
O	-0.9247731272	-3.3434415247	-0.9899667052	-0.166611
H	 0.7637293069	 0.9265677739	 1.3708083436	 0.257673
H	-0.0319698341	-0.628133836	 1.5400371946	 0.278408
H	-2.0112678725	-0.5704637737	-0.8030287811	 0.161473
H	-0.7425107688	-1.0166525421	-1.9301501908	 0.159543
H	-0.5511038798	-4.4382630352	 2.0502571717	 0.134662
H	-0.8462546844	-5.3852269984	-0.5698570769	 0.154619
35.4723	49.2546	172.3598	271.0439	336.5587	384.3936	417.0211	522.2521	580.8186	628.7368	681.9565	724.2341	760.7763	801.8754	860.4716	867.7415	937.8529	950.0642	976.8547	1102.8789	1122.65	1153.9095	1169.2779	1189.9072	1239.9112	1318.5552	1357.6524	1401.8748	1455.1649	1556.7249	1607.8489	1625.519	1806.8869	3030.0799	3134.2078	3268.9461	3306.4553	3517.5219	3695.187
NC(=O)CC1=NC=CO1	NC(=O)Cc1ncco1	
InChI=1S/C5H6N2O2/c6-4(8)3-5-7-1-2-9-5/h1-2H,3H2,(H2,6,8)	InChI=1S/C5H6N2O2/c6-4(8)3-5-7-1-2-9-5/h1-2H,3H2,(H2,6,8)
