17
gdb 88344	4.0699	0.92986	0.8392	5.5414	74.86	-0.2406	-0.0236	0.217	1375.4601	0.135822	-455.154727	-455.145897	-455.144953	-455.189029	32.302	
O	 0.1843463012	 1.1844291842	-0.4413687892	-0.419802
C	 0.0141102158	-0.1495744877	-0.1428545802	 0.160616
C	-0.2582802965	-0.6409086912	 1.2340678374	-0.323035
C	-1.3801169371	-0.7236768075	 0.1919167709	-0.235015
C	-2.478194659	 0.2692863432	 0.3067440898	 0.495072
O	-2.2872604434	 1.4138893851	 0.6813233995	-0.371445
N	-3.7252086733	-0.2147596192	-0.0699846971	-0.349514
C	-4.9526461548	 0.4471798409	-0.1209145303	 0.085968
N	-5.1291548408	 1.662150705	 0.1869196741	-0.393264
H	-0.52899664	 1.6697557336	 0.0112566341	 0.308923
H	 0.6218873105	-0.7725189972	-0.7917068033	 0.113014
H	 0.1751133445	-1.5781733467	 1.5651096781	 0.119709
H	-0.3994708776	 0.1092074109	 2.0050317649	 0.142963
H	-1.6270782328	-1.703841341	-0.2031897773	 0.083212
H	-3.7529962254	-1.1833097068	-0.3450844735	 0.255657
H	-5.7344477269	-0.2426177572	-0.4648025762	 0.09547
H	-6.1112854042	 1.9049998214	 0.0649960285	 0.231469
54.5841	74.2001	153.5568	178.4907	238.2482	289.5795	328.1338	437.6399	466.7434	563.6429	581.2433	600.3245	728.5154	753.5227	787.0208	824.3319	834.7659	903.1346	940.8578	1002.7961	1059.4653	1064.2052	1065.2695	1099.693	1112.8586	1143.5379	1184.2322	1237.8243	1264.982	1362.4016	1399.7704	1434.8283	1450.1112	1488.2089	1539.4519	1729.4327	1777.5338	3028.6305	3133.1457	3151.5602	3165.7258	3229.6123	3496.6377	3614.7255	3643.67
OC1CC1C(=O)NC=N	O[C@H]1C[C@H]1C(=O)NC=N	
InChI=1S/C5H8N2O2/c6-2-7-5(9)3-1-4(3)8/h2-4,8H,1H2,(H2,6,7,9)	InChI=1S/C5H8N2O2/c6-2-7-5(9)3-1-4(3)8/h2-4,8H,1H2,(H2,6,7,9)/t3-,4+/m1/s1
