19
gdb 17644	3.27303	1.67343	1.18934	3.6339	72.6	-0.234	0.0325	0.2665	1035.5245	0.164232	-365.077835	-365.068778	-365.067834	-365.111714	32.447	
C	 0.4389075059	 1.5044821745	 0.0083715074	-0.340638
N	 0.0363068774	 0.1019408128	 0.0251680975	-0.08824
C	 0.3657458752	-0.6588225809	 1.1969748828	 0.028594
C	-0.1056491265	-0.1697431293	 2.5444919334	-0.280707
C	-0.6970183652	-1.4190225778	 1.9524645975	-0.264453
C	-0.3261729293	-0.4837156224	-1.1741194894	 0.399008
C	-0.5288553061	-1.9914157117	-1.1752905781	-0.485562
O	-0.4814707841	 0.1699279179	-2.1911176234	-0.369862
H	 1.5149380358	 1.6046823676	 0.2000080133	 0.11639
H	 0.2084276515	 1.9059351736	-0.9767493373	 0.167767
H	-0.0981637085	 2.0763304895	 0.7710321341	 0.11797
H	 1.3594706438	-1.1087868779	 1.1885341583	 0.095372
H	 0.5803487212	-0.2546407598	 3.3793137598	 0.120937
H	-0.7349230285	 0.7121057171	 2.5678477501	 0.126694
H	-1.713025156	-1.3525256702	 1.582121466	 0.125595
H	-0.4300997367	-2.3823663389	 2.3723197638	 0.119823
H	-1.4075644959	-2.2774892689	-0.5910638559	 0.13914
H	-0.6764764555	-2.296814165	-2.2106464392	 0.142092
H	 0.3285630714	-2.5234780202	-0.7533621409	 0.13008
79.9735	90.6817	116.1837	163.9344	203.1101	209.0262	327.2117	383.3373	413.9662	507.9754	581.9201	602.4907	695.1871	787.3388	833.6346	895.2004	955.208	972.8964	1009.6639	1051.031	1064.9376	1086.6756	1110.5897	1133.8894	1156.5059	1173.167	1200.3278	1220.6998	1303.8117	1377.8725	1396.7566	1399.9475	1442.2245	1462.3606	1468.1177	1486.3476	1499.4944	1504.3535	1514.284	1765.5665	3020.9056	3054.7407	3081.3781	3083.6185	3119.3687	3141.3408	3146.0045	3161.7074	3171.328	3223.5043	3237.7983
CN(C1CC1)C(C)=O	CN(C1CC1)C(=O)C	
InChI=1S/C6H11NO/c1-5(8)7(2)6-3-4-6/h6H,3-4H2,1-2H3	InChI=1S/C6H11NO/c1-5(8)7(2)6-3-4-6/h6H,3-4H2,1-2H3
