17
gdb 78343	2.8472	1.36156	1.05154	2.2733	74.76	-0.2372	-0.0112	0.2261	1142.427	0.134947	-421.792702	-421.784637	-421.783693	-421.825194	31.092	
O	-0.0098801073	 1.2724369671	-0.0944018301	-0.42664
C	-0.0657834771	-0.1167937747	-0.0236018699	 0.092986
C	-0.5089546339	-0.6883565037	 1.3388765409	-0.23668
C	-1.429563119	-0.6786116667	 0.0801403394	-0.188139
C	-1.3507748571	-2.1968814229	 0.026877117	 0.23408
C	-2.4508248054	-3.1914097747	-0.2328916765	-0.328206
C	-1.2559790675	-3.1418514579	-1.1435042282	-0.319482
C	-0.5107221634	-2.1896458514	 1.2923904453	 0.366339
O	-0.119678143	-3.058748931	 2.0237016751	-0.338044
H	 0.8272016785	 1.5609928402	 0.2846996442	 0.295083
H	 0.6937377155	-0.642782519	-0.6036051703	 0.102616
H	-0.5114238844	-0.0419452086	 2.2069872821	 0.113384
H	-2.3155975498	-0.0751759879	-0.064901052	 0.116839
H	-2.530947532	-4.0158734307	 0.4677235795	 0.138072
H	-3.395990209	-2.8089344397	-0.6030923934	 0.12333
H	-1.3857566723	-2.7237048576	-2.1361498555	 0.122733
H	-0.5255727827	-3.9410769308	-1.0734015477	 0.131726
120.1338	156.8609	196.7079	208.9229	276.8428	316.4437	391.9155	428.0366	490.9505	635.2383	664.305	767.6241	789.2947	798.0762	852.688	872.2682	905.5353	948.6043	949.1488	981.4664	1003.6308	1054.1551	1081.5442	1088.2633	1095.1299	1116.8812	1160.4167	1196.2857	1200.5859	1241.5454	1266.028	1299.967	1388.1869	1453.3957	1457.306	1493.8519	1869.3676	3088.7104	3129.6848	3132.5051	3203.6136	3212.9353	3213.5581	3227.5421	3808.5792
OC1C2C1C1(CC1)C2=O	O[C@H]1[C@H]2[C@@H]1C1(CC1)C2=O	
InChI=1S/C7H8O2/c8-5-3-4(5)7(1-2-7)6(3)9/h3-5,8H,1-2H2	InChI=1S/C7H8O2/c8-5-3-4(5)7(1-2-7)6(3)9/h3-5,8H,1-2H2/t3-,4+,5+/m1/s1
