22
gdb 80930	2.58635	1.46312	1.26859	1.8246	87.48	-0.2248	0.0881	0.3128	1146.9682	0.193399	-367.125125	-367.116188	-367.115244	-367.158007	35.382	
C	-0.1212965714	 1.5082502702	-0.115148085	-0.451384
C	 0.1066545421	 0.0139537559	 0.0178170268	 0.065647
N	 1.3372507396	-0.6130036724	-0.6927874413	-0.204513
C	 2.1499717182	-0.1080697716	 0.5170996868	-0.21904
C	 0.8706637955	-0.6501659804	 1.2080056385	 0.196738
C	 0.5113466579	-0.7048595259	 2.6710404785	-0.525903
C	 1.0492307134	-1.8005955276	 0.207329044	 0.437298
C	 0.2844669271	-3.0179701168	-0.1580775628	-0.381058
C	 1.772491574	-3.0949487262	 0.2051968538	-0.387102
H	-0.3058837046	 1.7613265052	-1.1645471165	 0.131172
H	-1.011164539	 1.7952479928	 0.4558227681	 0.118408
H	 0.7101132709	 2.1230456681	 0.2360317989	 0.118912
H	-0.8043350208	-0.5187927942	-0.2762613021	 0.071533
H	 3.0775068947	-0.6649532009	 0.6703995289	 0.100309
H	 2.337700225	 0.9661523492	 0.5134601757	 0.094572
H	 0.4507199871	 0.3007658145	 3.1007566082	 0.122428
H	-0.4590425675	-1.1918821884	 2.8185595191	 0.120665
H	 1.2604829431	-1.2667217145	 3.2398690587	 0.121768
H	-0.4328579331	-3.423930014	 0.5488604765	 0.111434
H	 0.020301704	-3.160654695	-1.2010104393	 0.123195
H	 2.4713127642	-3.2876500213	-0.6024613963	 0.123448
H	 2.0407472997	-3.5518249868	 1.153003751	 0.111473
160.7465	175.3185	179.0142	183.94	205.4103	223.1486	334.6202	395.7806	420.8915	479.4327	607.9105	615.4401	661.6161	734.9563	773.537	783.4045	795.035	897.1675	899.7677	906.197	953.8325	1005.9361	1017.5533	1035.5168	1043.7734	1080.3586	1084.3337	1118.8943	1136.8278	1169.9806	1180.0984	1180.7651	1191.3661	1212.4141	1252.7189	1303.4956	1388.9968	1405.5743	1407.1781	1431.3448	1452.447	1487.024	1489.8109	1491.1607	1495.3832	1514.0514	1542.9188	3025.9354	3037.1988	3045.8125	3070.0151	3093.6762	3096.1191	3098.1744	3120.4227	3121.4328	3123.8195	3137.2623	3201.0621	3214.4523
CC1N2CC1(C)C21CC1	C[C@H]1N2C[C@]1(C)C12CC1	
InChI=1S/C8H13N/c1-6-7(2)5-9(6)8(7)3-4-8/h6H,3-5H2,1-2H3	InChI=1S/C8H13N/c1-6-7(2)5-9(6)8(7)3-4-8/h6H,3-5H2,1-2H3/t6-,7+/m1/s1
