16
gdb 69622	3.60196	1.20468	1.15126	3.8756	74.5	-0.2522	0.008	0.2602	1108.2395	0.12316	-400.695161	-400.68733	-400.686386	-400.727334	30.202	
C	-0.1332239536	 1.5191322342	 0.0423559421	-0.505489
C	 0.1194036456	 0.0506384064	 0.0100673616	 0.41888
O	-0.7902884081	-0.8398962362	 0.685666301	-0.273375
C	 0.6021188528	-0.9180157491	 0.9889892421	-0.116928
C	 1.3204257637	-1.7590006365	-0.1273828585	 0.176325
C	 0.3461031202	-2.1687681962	-1.2160427747	-0.324309
C	 0.7929195061	-0.7434634762	-1.1619840325	-0.181843
C	 2.6361556664	-2.2750317103	 0.0026180608	 0.192365
N	 3.7113725884	-2.6857331245	 0.1359781303	-0.350355
H	 0.7735624662	 2.070341638	-0.226255742	 0.137195
H	-0.9191352585	 1.7931125369	-0.6701168259	 0.139828
H	-0.4496742841	 1.8270841312	 1.0418377795	 0.143972
H	 0.9178059894	-0.8355066139	 2.0218635324	 0.123932
H	 0.7874737701	-2.7627910032	-2.0086335662	 0.141975
H	-0.662243945	-2.4352076547	-0.9278192928	 0.153828
H	 1.3786521804	-0.2745403361	-1.9410567471	 0.123999
111.5573	154.2004	194.7149	252.2266	293.2483	399.7241	458.9279	484.3357	541.3671	546.8376	594.2763	648.2344	763.5568	797.0299	831.2606	877.5607	927.0631	953.8067	978.5486	1008.7121	1010.7148	1064.3687	1102.979	1114.4843	1175.9486	1177.3095	1215.5678	1284.3793	1353.092	1408.0312	1454.9059	1472.4111	1485.0933	1503.3633	2339.0762	3037.9256	3101.7209	3128.7139	3151.882	3198.4669	3214.975	3248.2572
CC12OC1C1(CC21)C#N	C[C@]12O[C@H]1[C@]1(C[C@@H]21)C#N	
InChI=1S/C7H7NO/c1-6-4-2-7(4,3-8)5(6)9-6/h4-5H,2H2,1H3	InChI=1S/C7H7NO/c1-6-4-2-7(4,3-8)5(6)9-6/h4-5H,2H2,1H3/t4-,5+,6+,7+/m0/s1
