16
gdb 17585	2.77093	2.43981	1.87003	2.9372	63.84	-0.244	0.0659	0.3099	785.0667	0.129111	-383.676096	-383.668732	-383.667788	-383.707193	28.453	
C	-0.0111585276	 1.5148106391	 0.1000328208	-0.494635
C	-0.023503814	 0.0159112816	 0.0311955798	 0.246527
C	 1.1762388292	-0.8374539825	-0.3368081828	-0.401865
C	 0.5663887043	-0.9835697508	 1.0411960723	 0.343582
O	 1.2453231314	-0.6460132217	 2.1955702244	-0.457649
C	-0.7058572253	-1.8019116134	 0.9620368749	-0.058261
O	-1.8309755073	-0.9608995036	 1.2742150168	-0.244921
C	-1.2592446297	-0.8650430972	-0.0338129775	-0.029649
H	 0.9340734056	 1.8738545436	 0.5188019677	 0.127374
H	-0.134903087	 1.967961794	-0.8900266884	 0.11776
H	-0.8201638549	 1.8719979818	 0.7446559797	 0.136846
H	 1.0988488843	-1.6291421853	-1.0777157393	 0.107649
H	 2.1239264548	-0.3054401155	-0.3483293324	 0.115957
H	 1.9931058793	-1.2437720645	 2.2996964987	 0.288926
H	-0.8524541752	-2.8716638713	 1.0584306025	 0.101144
H	-1.9011075079	-1.0804982443	-0.8803869373	 0.101217
171.6884	192.3231	206.4424	248.5723	266.995	403.337	433.5287	527.252	596.5758	633.8686	735.2281	784.2651	814.5131	864.2018	872.1609	921.6049	964.8333	975.9767	988.1335	1053.0754	1077.3028	1098.8184	1146.6356	1198.8024	1228.1473	1257.6247	1288.9655	1348.5477	1352.3915	1408.8012	1419.9124	1486.5702	1496.0599	1501.9827	3030.5977	3094.2848	3106.7766	3109.7496	3178.0232	3192.049	3193.6099	3802.9225
CC12CC1(O)C1OC21	C[C@@]12C[C@]1(O)[C@H]1O[C@@H]21	
InChI=1S/C6H8O2/c1-5-2-6(5,7)4-3(5)8-4/h3-4,7H,2H2,1H3	InChI=1S/C6H8O2/c1-5-2-6(5,7)4-3(5)8-4/h3-4,7H,2H2,1H3/t3-,4+,5+,6+/m1/s1
