17
gdb 32543	2.8476	1.43482	1.02715	2.7767	78.19	-0.2351	-0.0291	0.2059	1155.7367	0.13777	-418.044542	-418.036489	-418.035545	-418.077445	30.065	
C	 0.106437707	 1.4993859042	 0.1530725148	-0.375495
C	-0.0191113093	-0.0162702045	-0.0794738922	-0.278325
C	-1.4408726409	-0.5063742813	-0.0337312283	 0.201004
C	-2.0939387694	-0.8887293914	-1.1386065301	-0.039937
O	-3.3931399961	-1.3285398758	-1.1341958856	-0.185137
C	-3.9999178554	-1.3617559231	 0.074562155	 0.125679
N	-3.5001703575	-1.040993667	 1.1956302097	-0.310164
C	-2.1589969481	-0.5857961988	 1.2476895172	 0.278465
N	-1.5902496962	-0.2662598244	 2.3468041738	-0.521092
H	 1.1573035869	 1.8021086616	 0.1180616465	 0.113312
H	-0.4343635423	 2.0612461737	-0.6154341696	 0.108864
H	-0.2974343188	 1.7676884573	 1.1310942945	 0.152549
H	 0.4230203942	-0.2824650927	-1.0466322811	 0.093504
H	 0.5460328812	-0.5419546363	 0.6973418823	 0.131927
H	-1.6822355401	-0.8958541196	-2.1396085747	 0.138348
H	-5.0224833892	-1.7154156307	-0.0219216248	 0.145845
H	-2.2525847059	-0.4005937713	 3.1134199126	 0.220653
91.6947	98.294	182.7287	213.0125	306.646	353.8984	428.5066	466.6888	505.2578	538.648	609.4241	730.4866	781.8588	807.3609	891.5189	893.0922	918.6127	956.2056	971.1815	1007.3359	1053.791	1082.7679	1108.642	1185.9812	1227.3012	1289.0613	1345.4552	1359.005	1399.2621	1410.4666	1431.5479	1473.3344	1494.4849	1513.1735	1650.8596	1690.7023	1725.298	3034.1899	3041.4718	3080.6686	3108.1494	3141.3373	3187.6226	3223.2446	3463.5935
CCC1=COC=NC1=N	CCC1=C(N=COC1)[NH]	
InChI=1S/C6H8N2O/c1-2-5-3-9-4-8-6(5)7/h3-4,7H,2H2,1H3	InChI=1S/C6H9N2O/c1-2-5-3-9-4-8-6(5)7/h4,7H,2-3H2,1H3
