18
gdb 23446	3.48763	1.18353	1.05267	0.7972	75.12	-0.2457	-0.001	0.2447	1167.7802	0.148376	-439.037868	-439.029986	-439.029042	-439.070639	30.363	
O	-0.1021054972	 1.3674885528	 0.0456395806	-0.391601
N	 0.0449656815	-0.0226851472	 0.2062062533	-0.241731
C	-1.0399837338	-0.6257143494	-0.0439222328	 0.413956
C	-2.4457476365	-0.2326134186	-0.4491601275	-0.353007
C	-2.8157248194	-1.7540896556	-0.4317873251	 0.108273
O	-3.0414361384	-2.352228539	-1.6897620839	-0.254327
C	-1.7774602467	-2.5971978381	-2.3041959718	-0.093914
C	-0.8229153799	-2.9678470485	-1.1569565743	-0.229931
C	-1.3478575187	-2.1115065056	 0.0073304776	-0.14563
H	 0.7765171245	 1.6920522682	 0.2705685155	 0.306339
H	-2.9683976955	 0.3812158689	 0.2908571627	 0.127147
H	-2.5400706547	 0.2518254742	-1.4254928854	 0.132364
H	-3.6403197939	-2.0291141942	 0.227252917	 0.085979
H	-1.9159166823	-3.3937056099	-3.0393106472	 0.112973
H	-1.4206006716	-1.7005462138	-2.8337381461	 0.100743
H	-0.9248518129	-4.0282071153	-0.9068994185	 0.110044
H	 0.2238744019	-2.7656677729	-1.3936654077	 0.119564
H	-1.2073608965	-2.5797296461	 0.9832151137	 0.09276
59.5781	154.9161	191.8606	237.1142	330.8775	381.4923	413.2689	478.0249	536.2267	612.9517	667.386	734.9728	787.3964	851.9263	875.4691	897.7106	944.1942	964.518	975.0876	991.4102	1031.7814	1046.1204	1109.6338	1123.9521	1161.0036	1193.3737	1210.5953	1223.1001	1254.7635	1263.376	1280.6247	1330.4191	1352.1761	1393.031	1404.1789	1444.9481	1483.0809	1518.5701	1778.8942	2988.9343	3054.9635	3058.6163	3092.4182	3097.407	3101.435	3109.5353	3119.8226	3816.3384
ON=C1CC2OCCC12	ON=C1C[C@H]2OCC[C@@H]12	
InChI=1S/C6H9NO2/c8-7-5-3-6-4(5)1-2-9-6/h4,6,8H,1-3H2	InChI=1S/C6H9NO2/c8-7-5-3-6-4(5)1-2-9-6/h4,6,8H,1-3H2/t4-,6+/m0/s1
