21
gdb 114814	2.59729	1.2653	1.12656	2.3195	78.29	-0.2361	0.0632	0.2993	1223.6235	0.181121	-424.197134	-424.187769	-424.186825	-424.231506	35.042	
C	-0.0785599541	 1.4941835409	-0.3298978733	-0.379699
C	 0.025233402	-0.0164190953	-0.0889838185	-0.205144
C	-1.328307451	-0.6449821866	 0.1816776363	 0.108247
O	-2.237093568	-0.5568369369	-0.9528538552	-0.31886
C	-2.5842770693	-1.9533672056	-0.8630801286	 0.085145
C	-1.7563008071	-2.8301367269	-1.8306581372	-0.227247
C	-0.6958927719	-3.0589580421	-0.7047138393	-0.307744
C	-1.5405339799	-2.1801273753	 0.2618565032	 0.309425
O	-1.8977066292	-2.7187798556	 1.500079245	-0.4768
H	 0.9010041912	 1.9290749941	-0.5494151011	 0.109489
H	-0.7418404958	 1.6990275462	-1.1748544716	 0.138895
H	-0.4857172621	 2.0075314035	 0.5480278004	 0.114521
H	 0.4832888942	-0.4957843111	-0.9614575646	 0.09999
H	 0.6796553943	-0.2189232079	 0.770117729	 0.09012
H	-1.7911378107	-0.1777762405	 1.0646648858	 0.074648
H	-3.6588842203	-2.1217813915	-0.7623956287	 0.080992
H	-2.2600714135	-3.7468237989	-2.1466518232	 0.104663
H	-1.4120709356	-2.2870978676	-2.7126377034	 0.111967
H	-0.6678918977	-4.0950097786	-0.3585224779	 0.105856
H	 0.3250794064	-2.7300508859	-0.9100955251	 0.100905
H	-1.0928867618	-2.9710941385	 1.9658556781	 0.280631
64.6833	94.0253	145.8623	170.4358	205.0943	246.5255	294.6275	361.2053	401.8641	469.1066	498.4883	631.946	660.2144	735.3254	776.0635	846.2485	876.9691	903.2884	930.3137	948.937	961.1931	1001.7601	1028.8023	1068.3508	1103.0933	1118.8521	1152.2884	1174.5276	1192.3753	1209.5762	1235.3906	1243.641	1266.08	1285.0705	1304.8086	1319.2819	1349.747	1382.8956	1405.9662	1417.9677	1461.1737	1474.1075	1484.3012	1497.3628	1508.2524	2984.5311	3017.3224	3036.8189	3062.7477	3066.6826	3069.1879	3087.0869	3104.1535	3113.7378	3119.6563	3132.8517	3800.2493
CCC1OC2CCC12O	CC[C@H]1O[C@H]2CC[C@@]12O	
InChI=1S/C7H12O2/c1-2-5-7(8)4-3-6(7)9-5/h5-6,8H,2-4H2,1H3	InChI=1S/C7H12O2/c1-2-5-7(8)4-3-6(7)9-5/h5-6,8H,2-4H2,1H3/t5-,6+,7-/m1/s1
