18
gdb 45549	3.50385	1.3501	1.15679	2.2463	72.07	-0.2579	0.0246	0.2825	1079.0714	0.150732	-439.113003	-439.105684	-439.10474	-439.145441	28.128	
N	-0.0524887689	 1.0223298258	-0.6857078875	-0.535814
C	-0.0502123066	-0.0754998897	-0.064637504	 0.406979
C	-1.27572866	-0.8926893612	 0.293625564	-0.329985
C	-0.7058441989	-2.2647446189	 0.6556210075	-0.045063
C	-0.5277728711	-3.2478826013	-0.5151653847	-0.098345
O	 0.6259249151	-4.0047200132	-0.1908423841	-0.246907
C	 1.5695905159	-3.1155421053	 0.3944730976	-0.095243
C	 0.763584942	-1.9617220401	 1.0254743586	 0.069536
O	 1.075397133	-0.7068197117	 0.394073782	-0.251038
H	 0.8987031205	 1.3800723765	-0.7880337475	 0.222662
H	-1.7782089062	-0.4264107944	 1.1473444445	 0.135433
H	-1.9863668114	-0.9043337861	-0.5349162063	 0.139874
H	-1.2337127	-2.7511722275	 1.4774832005	 0.090201
H	-1.3631021412	-3.9412955495	-0.6382894477	 0.116689
H	-0.3905348423	-2.6971378405	-1.4614424762	 0.100226
H	 2.1530273059	-3.6824102716	 1.1249960783	 0.113259
H	 2.2524127978	-2.6967261429	-0.3581892776	 0.1123
H	 0.9426330363	-1.8525541584	 2.0985424427	 0.095238
68.5408	92.8565	208.0956	324.1169	355.1532	471.5787	523.477	573.0134	653.4629	710.1707	732.2654	825.421	870.8904	877.8552	895.7974	940.449	966.0787	1005.5584	1016.0058	1053.0337	1077.778	1083.987	1114.107	1129.327	1199.9069	1226.0689	1248.6292	1264.9615	1272.9813	1305.1947	1325.0954	1330.4773	1363.2439	1388.693	1405.2547	1473.9823	1503.3938	1520.0179	1777.8986	2963.8307	3010.7335	3061.2467	3066.9556	3091.8513	3094.1018	3107.0488	3119.0093	3474.3114
N=C1CC2COCC2O1	[NH][C]1C[C@H]2COC[C@H]2O1	
InChI=1S/C6H9NO2/c7-6-1-4-2-8-3-5(4)9-6/h4-5,7H,1-3H2	InChI=1S/C6H9NO2/c7-6-1-4-2-8-3-5(4)9-6/h4-5,7H,1-3H2/t4-,5+/m0/s1
