19
gdb 98758	2.57757	1.32754	1.17458	3.1432	74.62	-0.237	-0.0166	0.2204	1149.4665	0.157894	-423.000721	-422.991892	-422.990947	-423.035137	32.423	
C	-0.2726714216	 1.0676502187	-1.3211644276	-0.388773
C	 0.0240478967	 0.0251694015	-0.2237902589	-0.279433
C	 1.3056386592	-0.7265300838	-0.5419121192	 0.378005
O	 2.3854185521	-0.3225143601	-0.1713739164	-0.322126
C	 1.2516358639	-2.0089696461	-1.3735428327	-0.111813
C	-0.0352334545	-2.5586217139	-2.0963276903	-0.297178
C	 0.7381870586	-2.4767752982	-3.4193833061	 0.035691
O	 1.121246131	-1.1072066043	-3.594360512	-0.237555
C	 1.9336811642	-1.9367653915	-2.7550094808	 0.030041
H	 0.5196938479	 1.8209884393	-1.3441848134	 0.136023
H	-0.3168165457	 0.6044689823	-2.3103477569	 0.146715
H	-1.2226705808	 1.5715782089	-1.123076698	 0.115891
H	 0.1692221535	 0.5285270152	 0.7361024255	 0.120772
H	-0.8161482852	-0.670195872	-0.1265088051	 0.102175
H	 1.7149292838	-2.7952083173	-0.7690108553	 0.112937
H	-0.2762930553	-3.5782467375	-1.7878450324	 0.112635
H	-0.9382938582	-1.9464872662	-2.0609612493	 0.118894
H	 0.6363439083	-3.0808019781	-4.3129003818	 0.111548
H	 2.9882305221	-2.0024991568	-2.9910997694	 0.115549
40.0222	87.8197	129.7067	192.3587	225.9827	234.2551	352.4308	448.3896	462.1055	552.9273	616.8229	745.4278	792.7889	814.9384	840.9786	860.7706	898.1179	928.375	951.4884	985.4624	1004.9265	1032.6071	1052.488	1077.6238	1087.7853	1146.2447	1186.7507	1207.6106	1234.8353	1237.2367	1265.1004	1279.2532	1319.8787	1331.971	1388.1826	1410.1944	1476.6209	1484.226	1495.9571	1513.6738	1794.005	3046.2838	3048.4957	3065.9493	3076.7613	3099.1112	3121.1203	3129.3006	3132.7345	3190.4468	3208.7118
CCC(=O)C1CC2OC12	CCC(=O)[C@H]1C[C@H]2O[C@@H]12	
InChI=1S/C7H10O2/c1-2-5(8)4-3-6-7(4)9-6/h4,6-7H,2-3H2,1H3	InChI=1S/C7H10O2/c1-2-5(8)4-3-6-7(4)9-6/h4,6-7H,2-3H2,1H3/t4-,6-,7+/m1/s1
