21
gdb 83429	2.90351	1.33593	1.16451	2.537	83.14	-0.2298	0.0824	0.3122	1165.1336	0.183603	-383.1964	-383.187814	-383.18687	-383.22961	33.051	
C	-0.0779922805	 1.6048912806	 0.2721494984	-0.324508
N	 0.0393079161	 0.1568545246	 0.3708268996	-0.129152
C	 1.1896216122	-0.581350601	-0.1169267611	-0.101159
C	 2.5222733016	 0.1463659102	 0.1329224736	-0.24184
C	 2.173064062	 0.2155059025	 1.6524370108	-0.306042
C	 0.8465942002	-0.5214697495	 1.3622978589	 0.351456
C	 0.1980562542	-1.5179591697	 2.2581428033	-0.110501
C	-1.0512633326	-1.1632760793	 2.9837754506	-0.242169
N	-1.0837529252	-2.1151566073	 1.8624706919	-0.319995
H	 0.8522485745	 2.1608714643	 0.4486777522	 0.110536
H	-0.4403950426	 1.8584569684	-0.7288085388	 0.126275
H	-0.8210022288	 1.950413601	 0.9973087481	 0.124387
H	 1.0187985698	-1.3711833639	-0.8414067852	 0.095682
H	 3.3827323899	-0.496226822	-0.0642383452	 0.109574
H	 2.6711474417	 1.093309969	-0.3946289773	 0.101769
H	 2.8520288324	-0.3873506961	 2.2596244857	 0.11023
H	 2.087744953	 1.2052830442	 2.1108765323	 0.099989
H	 0.8886922929	-2.2158240435	 2.7282945728	 0.085337
H	-1.2536522958	-1.5918670408	 3.9614659449	 0.114488
H	-1.4565447623	-0.1670447211	 2.8263798637	 0.108428
H	-1.3974426128	-1.6129976806	 1.0315608108	 0.237214
84.5354	129.9279	149.7625	195.9504	271.0023	277.3499	333.5154	405.3873	492.8167	556.1832	654.8158	739.2145	767.2832	800.1665	847.2209	872.2964	918.7535	939.03	952.3694	982.1735	1008.9928	1013.9374	1059.6195	1074.1365	1105.7639	1115.7377	1146.9899	1157.8176	1179.9204	1192.7542	1205.841	1223.9624	1228.3018	1269.3587	1277.364	1291.5363	1316.9394	1388.2873	1446.2053	1459.1887	1473.3247	1487.5758	1501.9776	1506.1003	1510.0422	3011.8926	3053.5657	3060.3138	3078.7162	3102.1314	3105.9138	3106.8245	3118.5666	3121.3953	3163.0633	3192.9921	3465.7971
CN1C2CCC12C1CN1	CN1[C@H]2CC[C@@]12[C@H]1CN1	
InChI=1S/C7H12N2/c1-9-6-2-3-7(6,9)5-4-8-5/h5-6,8H,2-4H2,1H3	InChI=1S/C7H12N2/c1-9-6-2-3-7(6,9)5-4-8-5/h5-6,8H,2-4H2,1H3/t5-,6+,7+,9?/m1/s1
