16
gdb 36544	4.07228	0.93869	0.8637	1.7074	72.67	-0.2511	0.0109	0.262	1340.5478	0.123474	-437.848201	-437.839595	-437.838651	-437.883036	30.455	
C	 0.119698721	-1.0176495724	-0.4655474295	-0.475776
C	 0.1138765631	 0.1342331886	-0.123802929	 0.337789
C	 0.1114916388	 1.5351937514	 0.29414756	-0.314566
N	 1.4497911145	 2.1372021648	 0.2173307581	-0.320516
C	 1.794699466	 2.6653956569	-0.8706635969	 0.420811
C	 3.1311633317	 3.3111454247	-1.1698522728	-0.189835
O	 2.8846102319	 4.0463308333	-2.3610149386	-0.236154
C	 1.8469858842	 3.371420799	-3.0156171215	 0.022238
O	 1.0373235516	 2.7700292795	-2.0027133786	-0.238958
H	 0.1212485788	-2.0358560005	-0.7662070792	 0.196766
H	-0.6204458658	 2.0888412501	-0.309836752	 0.137014
H	-0.2154638126	 1.5959653407	 1.3380707528	 0.1356
H	 3.4519310083	 3.993115329	-0.3815953478	 0.151515
H	 3.9040951214	 2.5414710868	-1.3167200403	 0.12979
H	 1.2451033864	 4.0876353589	-3.5802958226	 0.134545
H	 2.2239696209	 2.5740981892	-3.6760576524	 0.109736
22.0186	90.8451	134.6319	210.5923	218.4124	275.5115	327.3677	419.2791	560.8694	606.6408	635.8739	652.856	688.5225	749.924	852.3878	942.2702	978.4494	1002.9841	1020.1716	1030.1636	1068.8325	1113.4495	1150.4647	1202.42	1232.1998	1238.3786	1270.6306	1347.0565	1359.2374	1437.221	1485.036	1499.0219	1542.8757	1809.7028	2238.7817	2979.1197	2998.7576	3011.006	3058.6779	3102.3526	3127.3285	3506.5845
C#CCN=C1COCO1	C#CCN=C1COCO1	
InChI=1S/C6H7NO2/c1-2-3-7-6-4-8-5-9-6/h1H,3-5H2	InChI=1S/C6H7NO2/c1-2-3-7-6-4-8-5-9-6/h1H,3-5H2
