18
gdb 90537	4.4864	1.01472	0.93081	5.09	76.23	-0.2698	0.028	0.2978	1251.9334	0.148467	-401.933674	-401.925476	-401.924532	-401.966979	31.042	
O	-0.141882774	 1.502815322	 0.4798355687	-0.425855
C	 0.0511784227	 0.1541910331	 0.1247978798	 0.129349
C	 0.326414709	-0.888091673	 1.2582067338	-0.292464
C	-0.8752762085	-1.7359773988	 0.7551904028	-0.023893
C	-2.1889322264	-1.4800731389	 1.5589342611	-0.156808
C	-2.4738409196	-0.2319517576	 0.6471281207	-0.247513
C	-1.2515815994	-0.5829451531	-0.2431008188	-0.037111
C	-3.1777672247	-2.5397905496	 1.4441889526	 0.259105
N	-3.9581283487	-3.3866984368	 1.3352964181	-0.328796
H	 0.711699131	 1.8879569035	 0.7015365913	 0.28802
H	 0.7917187594	 0.0599959968	-0.6815096735	 0.073403
H	 1.2985110065	-1.3832461094	 1.2086835004	 0.106532
H	 0.1923558959	-0.4783141488	 2.2637842282	 0.104476
H	-0.6712551177	-2.7604274698	 0.4493922557	 0.091593
H	-2.034179765	-1.2599362138	 2.6194921721	 0.11891
H	-3.434020323	-0.2779926361	 0.133649619	 0.128205
H	-2.3900172489	 0.7240906243	 1.1643576132	 0.134585
H	-1.4581977786	-0.7402975239	-1.3011413753	 0.078262
45.6338	133.7535	160.2713	256.6865	271.346	338.9227	386.3328	465.662	525.1855	557.012	653.5356	744.7332	779.4691	818.6999	856.7537	873.8327	910.3377	974.2433	985.6892	1021.3043	1050.5913	1081.4873	1095.8828	1126.8747	1144.0203	1187.3676	1201.9894	1212.3099	1239.6737	1253.288	1265.8688	1281.4792	1319.9497	1327.1118	1348.8482	1421.8618	1472.7663	1485.0203	2349.7826	2999.1779	3055.8799	3063.2608	3093.9032	3111.2994	3113.8874	3131.8481	3153.5196	3820.9723
OC1CC2C(CC12)C#N	O[C@H]1C[C@H]2[C@@H](C[C@@H]12)C#N	
InChI=1S/C7H9NO/c8-3-4-1-6-5(4)2-7(6)9/h4-7,9H,1-2H2	InChI=1S/C7H9NO/c8-3-4-1-6-5(4)2-7(6)9/h4-7,9H,1-2H2/t4-,5-,6+,7-/m0/s1
