18
gdb 68769	2.52197	1.72151	1.2217	5.2703	71.91	-0.2431	0.0079	0.251	1051.143	0.147341	-439.114424	-439.105857	-439.104913	-439.14725	32.206	
C	-0.0656740504	 1.5392701847	-0.0045485935	-0.499132
C	 0.117483521	 0.0464789052	 0.0041188623	 0.247971
C	 0.4578403873	-0.6722179523	-1.2935766295	-0.114314
O	 1.1340855991	-1.8858183764	-0.9259817259	-0.234252
C	 1.4163191271	-1.9225044141	 0.4047112136	 0.471545
O	 2.1077450619	-2.7653270379	 0.8993673337	-0.351442
C	 0.7522787442	-0.7512765509	 1.0856402605	 0.088268
C	 1.3204979378	-0.2752924723	 2.3906175004	-0.494913
N	-0.7227576115	-0.8310790568	 0.8419196806	-0.393345
H	 0.8023206849	 2.042324806	-0.4433583278	 0.134007
H	-0.9472822015	 1.8194570379	-0.5921134043	 0.137282
H	-0.2044426266	 1.9277307419	 1.0087612907	 0.12671
H	-0.433954562	-0.9382473119	-1.8679434147	 0.129098
H	 1.1325080534	-0.077560829	-1.9200350966	 0.114357
H	 2.3742723352	-0.0010791307	 2.2827684415	 0.139817
H	 0.7757886428	 0.5937583097	 2.7709981087	 0.115256
H	 1.2644677677	-1.0749686858	 3.1350585023	 0.153738
H	-1.1773778605	-0.2623865472	 1.5568483479	 0.22935
125.7286	154.688	189.6477	205.4035	217.2206	269.0382	314.002	384.6889	458.5533	525.6143	539.586	655.2737	682.5558	723.816	799.4434	846.4337	893.2929	952.8286	989.3632	1043.0451	1059.2273	1074.2623	1096.4631	1123.8453	1136.0304	1159.9695	1238.0017	1310.4385	1369.6177	1388.7913	1419.6935	1424.1329	1452.19	1475.9428	1489.6335	1491.807	1503.0134	1509.6653	1879.6818	3031.0152	3040.0974	3042.2416	3093.6508	3097.5998	3108.5755	3112.2936	3116.8713	3460.1413
CC12COC(=O)C1(C)N2	C[C@@]12COC(=O)[C@]1(C)N2	
InChI=1S/C6H9NO2/c1-5-3-9-4(8)6(5,2)7-5/h7H,3H2,1-2H3	InChI=1S/C6H9NO2/c1-5-3-9-4(8)6(5,2)7-5/h7H,3H2,1-2H3/t5-,6+/m1/s1
