20
gdb 113329	2.16078	1.22999	0.91377	1.4691	83.55	-0.2273	0.0387	0.266	1356.3261	0.168006	-403.074895	-403.064678	-403.063734	-403.109978	37.67	
C	 0.4922566821	 1.2878965868	 0.2843769604	-0.377096
C	-0.1424279523	-0.0530329995	-0.0762797315	-0.134936
N	 0.5203921439	-0.6072965622	-1.26049809	-0.105301
C	 1.6767097415	-1.4623445736	-1.0682267739	-0.285129
C	 0.3811596151	-2.0431277769	-1.5640403563	 0.066448
C	-0.4296429148	-2.9934716618	-0.6633676709	-0.168577
O	 0.0323648238	-3.1101843005	 0.6699059375	-0.401063
C	 0.2174494365	-2.3455283957	-2.9675054156	 0.283003
C	 0.0581604204	-2.6435933487	-4.121583849	-0.404265
H	 1.5453324128	 1.1616864017	 0.5573016673	 0.116065
H	 0.443344503	 1.9788229953	-0.5617999066	 0.126928
H	-0.0243087566	 1.7394240542	 1.1369054411	 0.112196
H	-0.1090903482	-0.734417397	 0.7841386535	 0.118705
H	-1.1969712826	 0.0964762803	-0.3369806599	 0.10374
H	 2.5027133917	-1.3219475417	-1.76011971	 0.119714
H	 1.9569023446	-1.7147147301	-0.0466961836	 0.107256
H	-1.4597886929	-2.6285607059	-0.5933598373	 0.130291
H	-0.4670868777	-3.9711391343	-1.1609198742	 0.112382
H	 0.8531005287	-3.6129422741	 0.6554152911	 0.287615
H	-0.077567259	-2.8838992962	-5.146938112	 0.192022
76.0558	100.5139	136.0499	146.7349	172.3824	232.6367	274.4422	293.3011	348.8279	393.8922	441.2013	480.1667	528.0579	580.8724	612.8133	650.9109	704.6094	766.5622	819.1392	874.3243	921.2898	978.8604	1004.3623	1062.301	1077.6773	1106.4426	1130.0026	1144.7144	1198.1765	1211.0433	1244.047	1312.6648	1340.898	1384.9346	1399.5581	1408.353	1419.5076	1488.2217	1489.6457	1493.1083	1500.9394	1522.4217	2234.8996	3017.6276	3020.8379	3038.0941	3058.2081	3078.5837	3092.9322	3106.5748	3120.4015	3184.3666	3502.8	3817.9255
CCN1CC1(CO)C#C	CCN1C[C@]1(CO)C#C	
InChI=1S/C7H11NO/c1-3-7(6-9)5-8(7)4-2/h1,9H,4-6H2,2H3	InChI=1S/C7H11NO/c1-3-7(6-9)5-8(7)4-2/h1,9H,4-6H2,2H3/t7-,8?/m0/s1
