19
gdb 120584	4.18373	0.7757	0.74532	4.4021	79.	-0.2275	0.0115	0.239	1584.6801	0.157694	-419.188966	-419.179051	-419.178107	-419.224188	35.926	
C	-0.0251680444	 1.5598943517	-0.162699267	-0.389981
C	-0.2342046972	 0.0651452712	-0.3819604506	-0.101574
N	 1.0301322412	-0.5884274345	-0.7135593638	-0.298955
C	 0.932237473	-1.9944219058	-0.930070138	 0.009181
C	 0.2898592967	-2.612849837	-2.1630514811	-0.35789
C	 1.8053543167	-2.6121585287	-1.9987220794	 0.203229
O	 2.5559440953	-1.7025617069	-2.7487736107	-0.444454
C	 2.4749551463	-3.8655758379	-1.7231903515	 0.254982
N	 3.0062363543	-4.8738991489	-1.5259572887	-0.342447
H	 0.7074809104	 1.7349647592	 0.6299301688	 0.131649
H	 0.3426098745	 2.0433848341	-1.075216566	 0.11437
H	-0.9651287282	 2.0457693704	 0.1142983342	 0.118045
H	-0.618159674	-0.3948187539	 0.5376614674	 0.106027
H	-1.0081306003	-0.0976270491	-1.1541531112	 0.079902
H	 1.4753161639	-0.1455156371	-1.5101546904	 0.232542
H	 0.8365703767	-2.5754376552	-0.0159143807	 0.123499
H	-0.2370312007	-3.5563528829	-2.0764626371	 0.135964
H	-0.0784251263	-1.9343154651	-2.9253529405	 0.125334
H	 2.5980637023	-2.0182976436	-3.6587446838	 0.300575
64.2727	83.5313	105.9353	155.5015	203.1714	252.9648	283.9579	323.8724	328.8636	389.7218	442.367	517.9775	577.137	612.4654	702.8915	733.0502	816.7317	849.0745	900.3994	925.7203	934.9278	1005.9458	1041.0479	1063.2109	1099.3619	1143.7383	1175.6499	1220.5034	1249.5853	1265.63	1303.1229	1339.681	1371.0045	1405.8548	1420.0684	1461.2101	1488.0563	1498.2923	1515.817	1524.3203	2349.1508	2935.2086	3032.6277	3038.231	3102.495	3122.9582	3134.6718	3139.1879	3232.6474	3538.0441	3797.7837
CCNC1CC1(O)C#N	CCN[C@H]1C[C@]1(O)C#N	
InChI=1S/C6H10N2O/c1-2-8-5-3-6(5,9)4-7/h5,8-9H,2-3H2,1H3	InChI=1S/C6H10N2O/c1-2-8-5-3-6(5,9)4-7/h5,8-9H,2-3H2,1H3/t5-,6-/m0/s1
