18
gdb 94181	2.50349	1.32714	1.20241	3.674	68.19	-0.2449	0.0211	0.2661	1127.4818	0.145537	-476.238546	-476.228805	-476.227861	-476.27364	35.315	
C	 0.1540522915	 1.5769166459	 0.0289564477	-0.404713
C	 0.0474005007	 0.0709841267	 0.1005042976	 0.107257
O	 0.8663051599	-0.6054665412	-0.8877851124	-0.297054
C	 1.3796413249	-1.5174898989	 0.0993556599	-0.122158
C	 0.7680295517	-0.6933925646	 1.2587030389	 0.229585
O	 1.6864287567	 0.0528084692	 2.0299751335	-0.498263
C	-0.1620002207	-1.4693586546	 2.1898124833	 0.375243
N	 0.1004019213	-1.3362430688	 3.5114112845	-0.534135
O	-1.0618984019	-2.1517616746	 1.7335549705	-0.377588
H	 1.1834959645	 1.9229976531	 0.1621484939	 0.100527
H	-0.1922771295	 1.9207291746	-0.9503714859	 0.135711
H	-0.4704614903	 2.0423032057	 0.7979703156	 0.127926
H	-0.994873226	-0.2575571793	 0.0185674575	 0.101796
H	 0.9554299809	-2.5221638404	 0.0009670583	 0.126001
H	 2.4760361975	-1.5686884067	 0.0977400229	 0.096013
H	 2.340652866	 0.4460673084	 1.4442051138	 0.293253
H	 0.8627908148	-0.7603312676	 3.8236827407	 0.277882
H	-0.4782068019	-1.8282635268	 4.1710847198	 0.262717
40.6295	65.1362	173.3677	190.431	229.5916	254.03	283.9619	290.8707	368.8852	412.7839	431.9401	496.5625	571.7305	620.1691	651.6836	734.8909	798.4109	873.8254	916.7192	1005.0913	1017.0709	1027.8579	1073.3701	1094.129	1097.6752	1151.5294	1166.6085	1235.7767	1278.5329	1302.0428	1352.8841	1373.0663	1404.1543	1437.4239	1477.3261	1491.9243	1509.1517	1596.5163	1794.2482	3015.8184	3038.5071	3048.1435	3080.8323	3110.6824	3116.5225	3606.4878	3747.4733	3827.0942
CC1OCC1(O)C(N)=O	C[C@H]1OC[C@]1(O)C(=O)N	
InChI=1S/C5H9NO3/c1-3-5(8,2-9-3)4(6)7/h3,8H,2H2,1H3,(H2,6,7)	InChI=1S/C5H9NO3/c1-3-5(8,2-9-3)4(6)7/h3,8H,2H2,1H3,(H2,6,7)/t3-,5-/m1/s1
