14
gdb 26620	2.45371	1.90781	1.07458	2.0591	72.62	-0.1883	-0.0333	0.155	1024.8171	0.102596	-470.046145	-470.038528	-470.037583	-470.077947	29.541	
N	 0.0009460664	 1.4175632211	 0.1547674621	-0.593311
C	-0.0237579723	 0.0374000828	 0.052952741	 0.153568
C	-1.1553447788	-0.719335232	 0.0221122878	 0.3348
O	-2.3707160195	-0.119615668	 0.025468766	-0.432168
N	-1.1493025838	-2.0927532632	-0.0115356311	-0.345968
C	-0.00942348	-2.6677091216	-0.0213651114	 0.10439
O	 1.1829563804	-2.0424536062	-0.0127813401	-0.215271
C	 1.2502951506	-0.6481286933	 0.0071328788	 0.357282
N	 2.3645720113	-0.0368356588	-0.0200851553	-0.565394
H	 0.8846600229	 1.8108794309	-0.1406834446	 0.268813
H	-0.8121274416	 1.8860527024	-0.2165449749	 0.257771
H	-3.0284419617	-0.825588168	-0.0056009979	 0.302818
H	 0.0992431275	-3.7455614525	-0.0401340742	 0.147338
H	 3.1495409685	-0.6837890934	-0.0608235963	 0.225333
126.6777	186.6772	276.4614	294.5748	348.0831	375.4719	421.5557	512.5778	519.9103	532.8479	551.6642	624.9447	655.2291	708.7586	753.0788	804.6528	887.3954	892.1456	956.1122	1043.402	1135.3237	1186.3862	1253.1947	1319.9043	1349.6681	1421.9106	1436.6206	1611.1566	1638.9427	1719.665	1736.3591	3216.1288	3518.6054	3550.9371	3668.6747	3798.6156
NC1=C(O)N=COC1=N	NC1=C(OC=N[C@H]1O)[NH]	
InChI=1S/C4H5N3O2/c5-2-3(6)9-1-7-4(2)8/h1,6,8H,5H2	InChI=1S/C4H6N3O2/c5-2-3(6)9-1-7-4(2)8/h1,4,6,8H,5H2/t4-/m0/s1
