19
gdb 37229	4.00344	1.31211	1.16855	2.1701	78.04	-0.214	0.0673	0.2813	1087.48	0.159956	-385.783125	-385.775834	-385.77489	-385.814807	29.461	
C	 0.0091409259	 1.4824528193	-0.0765515372	-0.307676
C	 1.3459526051	 0.7925459042	-0.011056131	-0.056933
C	 0.0623849112	-0.0161279746	 0.0603667749	-0.056933
C	 0.4532262399	-0.7643171573	-1.2429298283	-0.139362
C	 1.7482413899	 0.0515682357	-1.3149893287	-0.139361
C	 0.7437639003	 0.1091555119	-2.4233242305	 0.281376
C	 1.0330923077	-0.4725862154	-3.8104049579	-0.14547
O	 0.3178823148	 0.606782949	-4.4429611755	-0.282857
C	 0.002314428	 1.2195582631	-3.1759718697	-0.160943
H	-0.2624035028	 1.9946342173	 0.8424960198	 0.112307
H	-0.3555709517	 1.9829068614	-0.9645954861	 0.121172
H	 2.0572541155	 0.9929025458	 0.7793992233	 0.091493
H	-0.3599324127	-0.5299759959	 0.9139009211	 0.091493
H	 0.3233313661	-1.8341127322	-1.3598356241	 0.087675
H	 2.7574467096	-0.3005721672	-1.495278116	 0.087675
H	 2.0902346915	-0.4971612664	-4.1080127636	 0.101293
H	 0.5785038887	-1.4495680551	-4.0239006021	 0.101293
H	-1.0809939913	 1.2715487401	-3.0065336362	 0.106879
H	 0.4332442442	 2.2255459962	-3.0907810524	 0.106879
100.3452	187.4531	191.7591	296.233	369.8485	445.5374	452.8727	635.6208	696.9481	726.7285	760.0489	838.8718	854.9099	878.9592	888.6412	928.1003	937.9846	983.5794	994.6133	1007.7541	1011.1425	1021.39	1038.8586	1056.1801	1067.0474	1076.5184	1132.5602	1139.8029	1161.7967	1176.9375	1182.9434	1250.1373	1258.4776	1280.4317	1310.7697	1335.1243	1374.7114	1448.7246	1490.9444	1509.5861	1534.7506	2993.3433	3007.0075	3036.1523	3047.8832	3134.0242	3168.2052	3177.9483	3191.5791	3200.9967	3219.737
C1C2C1C1C2C11COC1	C1[C@H]2[C@@H]1[C@@H]1[C@H]2C21COC2	
InChI=1S/C8H10O/c1-4-5(1)7-6(4)8(7)2-9-3-8/h4-7H,1-3H2	InChI=1S/C8H10O/c1-4-5(1)7-6(4)8(7)2-9-3-8/h4-7H,1-3H2/t4-,5+,6-,7+
