15
gdb 42158	3.92866	1.00607	0.85407	0.5902	75.1	-0.2516	-0.1	0.1516	1318.1432	0.109847	-420.601336	-420.592377	-420.591432	-420.636163	31.626	
O	-0.0357772162	-0.0385305668	 0.2108251762	-0.272545
C	-0.0210366176	 1.1732553445	 0.2259847499	 0.112027
C	 1.1992743319	 1.9473207187	 0.2172228635	 0.297919
C	 2.232689626	 2.5640609918	 0.2085997749	-0.377699
C	-1.3317414677	 1.9973459635	 0.2562175387	 0.295036
O	-1.2734444435	 3.2078994108	 0.2707101507	-0.312254
C	-2.5826422964	 1.2136069228	 0.2651663482	-0.122698
C	-3.7621767836	 1.8045929858	 1.0334437868	-0.249608
C	-3.7847316929	 1.8235230407	-0.451529343	-0.24962
H	 3.143066932	 3.1132865584	 0.201222277	 0.219866
H	-2.4649253854	 0.1392349772	 0.2497889682	 0.122784
H	-4.3940527128	 1.1019489838	 1.5638039989	 0.127163
H	-3.5657878373	 2.7402782535	 1.5444321135	 0.141231
H	-3.6034290407	 2.7721164918	-0.9439976738	 0.141228
H	-4.4327700359	 1.1345682436	-0.9803209097	 0.127169
38.1974	66.5789	120.086	209.8976	223.6223	250.4529	286.9188	384.4986	493.6273	506.6648	647.8892	665.9048	718.6785	745.3504	804.9028	809.5152	832.7264	870.0669	914.751	987.875	1066.9977	1097.5788	1108.7077	1140.3629	1210.5731	1210.9061	1218.9817	1411.6115	1455.2634	1486.75	1757.0894	1784.0871	2214.972	3142.5726	3144.1591	3219.0463	3230.1941	3245.6665	3493.6386
O=C(C#C)C(=O)C1CC1	O=C(C#C)C(=O)C1CC1	
InChI=1S/C7H6O2/c1-2-6(8)7(9)5-3-4-5/h1,5H,3-4H2	InChI=1S/C7H6O2/c1-2-6(8)7(9)5-3-4-5/h1,5H,3-4H2
