20
gdb 90818	3.29338	1.74881	1.53737	1.6203	79.81	-0.2192	0.089	0.3081	947.5231	0.174045	-365.956697	-365.94986	-365.948916	-365.987712	28.669	
C	-0.2133124066	 1.5710786082	-0.0040700563	-0.407246
C	 0.0093565996	 0.0583293246	-0.020690674	 0.03125
C	 0.816033395	-0.4693925957	-1.2506033123	-0.256623
C	 1.9569683768	-1.262014591	-0.6166514326	 0.022171
C	 3.0157272162	-0.46007337	 0.1332221513	-0.09508
C	 2.2428862748	 0.1001646922	 1.3498597118	-0.094918
C	 2.7855469941	-1.2968293026	 1.3529895122	-0.040577
N	 1.465724964	-1.7802158243	 0.7376460966	-0.192858
C	 0.8330537925	-0.4580112988	 1.161617852	 0.004055
H	 0.7419841492	 2.1074207225	-0.0256143652	 0.118
H	-0.7960063662	 1.8935852343	-0.8729102807	 0.114804
H	-0.7557596372	 1.8863804393	 0.8941765598	 0.11169
H	-0.9665912545	-0.4406972345	 0.0034922553	 0.077622
H	 0.1954527428	-1.1028076573	-1.8912622209	 0.102505
H	 1.2017534066	 0.3460317726	-1.8716111597	 0.097667
H	 2.3609448822	-2.0751862563	-1.2230702163	 0.071235
H	 3.9299187788	 0.0008433976	-0.2203186568	 0.084686
H	 2.5938873871	 0.9674527172	 1.8947845504	 0.086077
H	 3.4242702723	-1.858448003	 2.0189164845	 0.09692
H	 0.2755080227	-0.5716160751	 2.0944531808	 0.068622
101.0641	237.3353	246.3451	347.1315	438.3278	477.5472	636.4542	676.7119	754.2838	756.9945	809.8475	815.7495	837.8157	864.387	879.0043	887.0513	938.0196	968.1617	974.5317	984.7929	1016.0322	1030.9038	1034.0698	1050.3906	1062.5081	1090.0083	1116.2374	1149.5774	1184.0854	1202.6513	1216.6773	1253.0993	1256.1188	1276.4183	1332.8246	1349.1775	1356.387	1363.215	1375.1011	1411.0504	1487.7814	1499.1521	1500.5371	3026.5104	3028.346	3045.8114	3080.4363	3084.138	3091.6259	3095.86	3098.9257	3184.1778	3191.5079	3224.0293
CC1CC2C3C4C3N2C14	C[C@H]1C[C@H]2[C@H]3[C@@H]4[C@H]3N2[C@H]14	
InChI=1S/C8H11N/c1-3-2-4-5-6-7(3)9(4)8(5)6/h3-8H,2H2,1H3	InChI=1S/C8H11N/c1-3-2-4-5-6-7(3)9(4)8(5)6/h3-8H,2H2,1H3/t3-,4-,5-,6-,7+,8-/m0/s1
