15
gdb 32039	3.02359	1.38168	0.95415	6.5074	72.61	-0.2248	-0.0387	0.1861	1159.8147	0.114091	-454.004159	-453.996412	-453.995468	-454.036765	28.551	
C	 0.0438237518	 1.4255126181	 0.0080064307	-0.277199
O	 0.0130699417	-0.0004075904	 0.004840131	-0.244471
C	-1.1605651896	-0.639063659	 0.0118347846	 0.552238
C	-1.2082260543	-2.0133554913	 0.0085346853	-0.306757
C	-2.4943406842	-2.5863420031	 0.0165842352	 0.044954
N	-3.6423004571	-1.9473258812	 0.026786617	-0.342361
C	-3.6293997483	-0.5752083013	 0.0303355874	 0.440034
O	-4.5906843382	 0.16093665	 0.0394259471	-0.386928
N	-2.3256351308	 0.0410393625	 0.0222866758	-0.443673
H	 1.0993458357	 1.6954650838	 0.0006643545	 0.163303
H	-0.4387519208	 1.8376119462	-0.8856177333	 0.147994
H	-0.4251470176	 1.8333282944	 0.9107951295	 0.147988
H	-0.3011503032	-2.5978010141	 0.0002179003	 0.116386
H	-2.5642974199	-3.6743642568	 0.0141828102	 0.121837
H	-2.3581060252	 1.0495467525	 0.0252544047	 0.266655
91.4666	142.5247	192.5519	218.9044	240.9664	430.4508	448.6016	509.9404	561.016	595.25	614.2985	716.7828	779.034	781.4622	805.0466	915.1042	1012.6786	1024.6041	1038.9208	1078.3467	1122.1224	1171.6825	1208.0592	1285.6649	1368.6688	1406.2839	1470.8949	1496.1582	1499.2618	1505.2605	1591.86	1659.7426	1815.0571	3022.6176	3092.8586	3128.3668	3158.2521	3251.5661	3627.6336
COC1=CC=NC(=O)N1	COc1ccnc(=O)[nH]1	
InChI=1S/C5H6N2O2/c1-9-4-2-3-6-5(8)7-4/h2-3H,1H3,(H,6,7,8)	InChI=1S/C5H6N2O2/c1-9-4-2-3-6-5(8)7-4/h2-3H,1H3,(H,6,7,8)
