18
gdb 10030	3.24652	1.04745	0.82766	2.8456	78.41	-0.2417	-0.0254	0.2163	1407.1307	0.150184	-347.796737	-347.786553	-347.785609	-347.833966	33.727	
C	-0.0258384333	 1.5703088921	 0.0670579994	-0.394592
C	 0.0767530921	 0.0435823656	 0.0507332499	-0.184283
C	 0.6575737633	-0.516865391	-1.2786974164	-0.234994
C	 2.1268073292	-0.1055081595	-1.3983169964	 0.173163
O	 2.5412296031	 0.7403758483	-2.1441548631	-0.24841
C	 0.5681352368	-1.971884136	-1.3424793888	 0.019389
C	 0.5408627543	-3.1757653937	-1.3784645247	 0.109739
C	 0.4881494036	-4.6294803702	-1.4356423375	-0.498926
H	 0.9477143889	 2.045407864	-0.0871025745	 0.134467
H	-0.6942592299	 1.9287123721	-0.7228163606	 0.123774
H	-0.4224338001	 1.9186958379	 1.0251584176	 0.117161
H	 0.7003312726	-0.3103212777	 0.8809452512	 0.11008
H	-0.9099387848	-0.4071166621	 0.1964528725	 0.117301
H	 0.1279730178	-0.0578272825	-2.1220299304	 0.117189
H	 2.7992778535	-0.6566521007	-0.7023604922	 0.084855
H	 1.4638870633	-5.0512513133	-1.7005272075	 0.151993
H	 0.1923483817	-5.0565963636	-0.4712120103	 0.149849
H	-0.2340233624	-4.9698543594	-2.1857372182	 0.152246
19.6325	53.4024	83.7262	96.3305	130.1593	219.7894	259.9986	290.5186	327.6992	354.8763	455.9692	488.7195	505.3257	771.7648	811.1474	875.0006	949.2769	1013.3413	1050.6905	1052.7466	1061.2289	1105.389	1138.2019	1177.0008	1248.4948	1296.4717	1319.469	1359.4606	1414.3704	1416.2269	1419.0862	1477.3844	1478.0187	1488.387	1497.9586	1505.12	1835.633	2366.7013	2877.7003	3028.7198	3033.7409	3039.3594	3046.0654	3078.2078	3090.1419	3090.8403	3108.5673	3115.1337
CCC(C=O)C#CC	CC[C@@H](C=O)C#CC	
InChI=1S/C7H10O/c1-3-5-7(4-2)6-8/h6-7H,4H2,1-2H3	InChI=1S/C7H10O/c1-3-5-7(4-2)6-8/h6-7H,4H2,1-2H3/t7-/m1/s1
