23
gdb 89380	2.56455	1.33448	1.0744	1.5165	85.21	-0.2311	0.0699	0.301	1253.5957	0.205211	-388.298976	-388.289497	-388.288553	-388.332605	37.357	
C	 0.0523052354	 1.5723029214	 0.0440341664	-0.405146
C	 0.0558210982	 0.0456226746	 0.0119554566	 0.064642
C	 0.7778708853	-0.5716680053	-1.215686731	-0.30437
C	 1.2167195571	-1.9737334032	-0.7800727599	 0.28244
C	 0.8042002391	-3.1752674609	-1.5954423948	-0.491799
C	 2.5128406471	-2.0271873011	 0.0155626556	-0.362659
C	 1.207204012	-1.9879104857	 0.7449559744	 0.380846
O	 0.8997395672	-3.1369937429	 1.4806985666	-0.47167
C	 0.7117719162	-0.6267881859	 1.2436319861	-0.30758
H	 1.0756241366	 1.963648338	 0.0873558976	 0.112001
H	-0.4254758415	 1.9893365823	-0.849156529	 0.111418
H	-0.4863638112	 1.9541324354	 0.9180135476	 0.111449
H	-0.9859476693	-0.3021850803	-0.0254106178	 0.065203
H	 0.115238513	-0.6094881819	-2.0865251109	 0.09466
H	 1.6397588916	 0.0447908481	-1.5040281012	 0.092914
H	 1.3435254738	-3.2227318814	-2.5485721045	 0.116195
H	 1.0060786388	-4.1003004537	-1.0471528312	 0.12497
H	-0.2679681769	-3.1500021353	-1.8269750769	 0.105281
H	 3.0323808885	-2.9800239589	 0.0317720764	 0.113297
H	 3.1603927329	-1.1548082745	 0.0384729028	 0.099527
H	-0.0590775139	-3.2353736032	 1.493963508	 0.277047
H	 1.5387516617	-0.0186378704	 1.632956662	 0.09823
H	 0.0037668885	-0.755470005	 2.0686732469	 0.093106
73.0377	176.4499	196.1082	212.7415	242.0431	253.8406	330.2902	342.3557	392.9497	424.1908	425.9144	507.9425	531.5408	553.4235	715.7315	747.3946	831.8154	876.6498	906.024	928.5315	934.208	948.1183	961.3997	983.9587	1043.6881	1056.4344	1077.8095	1099.1022	1126.9101	1163.569	1179.0704	1232.9153	1260.1663	1264.076	1292.3009	1320.8032	1340.5768	1356.7754	1376.3981	1406.9444	1412.2181	1416.1101	1481.6084	1489.1656	1494.5156	1495.4309	1497.3298	1501.3624	1509.0477	2997.8003	3014.3975	3018.3228	3019.8194	3025.696	3069.725	3073.156	3075.3542	3090.6149	3094.1324	3104.5525	3111.0834	3203.8975	3787.895
CC1CC2(C)CC2(O)C1	C[C@H]1C[C@@]2(C)C[C@@]2(O)C1	
InChI=1S/C8H14O/c1-6-3-7(2)5-8(7,9)4-6/h6,9H,3-5H2,1-2H3	InChI=1S/C8H14O/c1-6-3-7(2)5-8(7,9)4-6/h6,9H,3-5H2,1-2H3/t6-,7-,8-/m0/s1
