16
gdb 16565	3.29521	2.62966	2.12246	1.8724	63.39	-0.2424	0.0072	0.2495	711.402	0.133796	-383.748094	-383.742241	-383.741296	-383.777828	23.764	
C	 0.0126870964	 1.5629686803	-0.0114434992	-0.0995
O	 1.3954062746	 1.91876428	-0.1034283479	-0.259168
C	 2.0958591594	 0.7038683332	 0.1391540432	 0.138902
O	 1.3205821484	-0.2886385449	-0.4985046678	-0.245508
C	 0.0192834254	 0.0064034696	 0.0181849251	 0.044681
C	-0.0852800448	-0.5616339496	 1.4409281513	-0.26445
C	 1.1443243294	-0.1733145379	 2.2292023266	-0.074017
C	 2.1743562154	 0.4217996376	 1.6300864459	-0.054398
H	-0.4418266913	 1.9888728089	 0.8908652533	 0.102772
H	-0.5027730085	 1.9591400678	-0.8915902683	 0.112111
H	 3.07203552	 0.762569643	-0.3464325479	 0.092641
H	-0.7199643111	-0.4336913292	-0.653709484	 0.08738
H	-0.9921624784	-0.1824792358	 1.9298572728	 0.109142
H	-0.188261038	-1.6549513165	 1.4069801656	 0.116759
H	 1.1624273318	-0.3980777903	 3.2921469354	 0.096329
H	 3.0578896213	 0.7438030638	 2.1711182461	 0.096323
160.6735	290.0882	340.5538	478.9881	492.577	554.0512	702.6504	720.4517	784.1741	829.1654	876.2569	890.4679	922.963	934.1449	972.0993	987.3963	1015.9013	1032.4444	1050.2195	1080.9538	1123.559	1191.6123	1200.4144	1213.1524	1293.4374	1320.3561	1330.639	1356.0153	1366.4464	1390.6803	1407.647	1467.5412	1520.2436	1707.9867	3014.1473	3030.7428	3046.4917	3078.4826	3098.2223	3103.9604	3160.323	3191.3331
C1OC2OC1CC=C2	C1O[C@@H]2O[C@H]1CC=C2	
InChI=1S/C6H8O2/c1-2-5-4-7-6(3-1)8-5/h1,3,5-6H,2,4H2	InChI=1S/C6H8O2/c1-2-5-4-7-6(3-1)8-5/h1,3,5-6H,2,4H2/t5-,6+/m0/s1
