21
gdb 91499	2.49634	1.80454	1.47762	1.2548	82.98	-0.2344	0.0731	0.3075	998.9404	0.184834	-387.002603	-386.995234	-386.99429	-387.033775	31.433	
O	-0.2977309745	 1.4255370306	 0.0881600626	-0.449347
C	-0.0448305113	 0.0253528836	 0.092074319	 0.117453
C	 0.5044079776	-0.532274005	 1.4390916237	-0.24631
C	-0.6909824837	-1.4092111566	 1.8219062388	-0.087239
C	-1.9262561066	-0.4449191448	 1.480097075	-0.32763
C	-1.4088070632	-0.7068597253	 0.0184668962	 0.311661
C	-1.7131353239	-1.2744433423	-1.401892733	-0.332429
C	-0.7276010734	-2.4685574983	-1.0094817828	-0.296365
C	-1.1068691698	-2.1140697337	 0.4739775845	 0.032177
H	 0.5495187345	 1.8790144675	 0.1333784687	 0.278198
H	 0.6097434754	-0.2262738472	-0.7511753346	 0.055343
H	 1.4285956106	-1.1059971084	 1.3175831667	 0.091587
H	 0.68572117	 0.2732027975	 2.1574129663	 0.092223
H	-0.645827945	-1.94726428	 2.7709558468	 0.060201
H	-2.8880706469	-0.9157358236	 1.6883912779	 0.098921
H	-1.892067695	 0.5724777249	 1.8751167369	 0.108384
H	-2.7364568616	-1.6408274364	-1.5150101732	 0.106358
H	-1.4537710259	-0.6565603904	-2.2659859722	 0.101818
H	-0.9960332046	-3.4699675969	-1.3542319746	 0.096204
H	 0.3039758983	-2.2632338513	-1.3002756889	 0.111959
H	-2.0532616508	-2.6315929938	 0.6652147261	 0.076834
164.6639	248.5818	277.0678	289.224	342.4928	410.418	456.2735	549.1111	579.6386	646.0299	660.3942	746.2363	798.6518	815.5324	837.2036	859.7437	873.5409	934.2917	942.2626	977.2344	1006.2181	1041.7598	1045.3687	1061.9339	1071.2049	1085.6879	1133.8649	1142.9467	1161.747	1185.8701	1196.299	1214.0228	1225.9529	1233.5349	1248.3772	1254.0859	1270.6222	1312.1335	1346.9074	1406.6956	1427.4471	1480.4621	1483.9474	1494.5034	1505.3045	3014.4076	3033.0786	3045.3543	3056.2056	3071.1249	3073.1683	3092.6557	3094.2663	3111.845	3131.6869	3142.3338	3821.1163
OC1CC2CC11CCC21	O[C@H]1C[C@H]2C[C@]31CC[C@@H]23	
InChI=1S/C8H12O/c9-7-3-5-4-8(7)2-1-6(5)8/h5-7,9H,1-4H2	InChI=1S/C8H12O/c9-7-3-5-4-8(7)2-1-6(5)8/h5-7,9H,1-4H2/t5-,6-,7-,8+/m0/s1
