18
gdb 75014	3.34809	1.4426	1.25034	0.4649	71.73	-0.252	0.0238	0.2758	1056.0509	0.149954	-439.130113	-439.122558	-439.121614	-439.162371	28.794	
C	 0.0098005602	 1.4411746877	-0.138607824	-0.47557
C	-0.0625610752	-0.0465159881	-0.1022082099	 0.397255
N	-1.101637787	-0.7482769241	 0.116810852	-0.312146
C	-0.6821311017	-2.1523422007	 0.0541079791	-0.060948
C	-1.3147979814	-2.9147754741	-1.1249860344	-0.223966
C	-0.3084044148	-2.6635246231	-2.2513476355	-0.096818
O	 0.9707424124	-2.6510298097	-1.5997020397	-0.246127
C	 0.8272169685	-2.101603931	-0.3295641666	 0.193308
O	 1.122736077	-0.6862772305	-0.317820101	-0.263822
H	 0.7221163778	 1.8020286285	 0.6099543535	 0.146874
H	 0.3685161499	 1.7788604351	-1.1159732749	 0.147014
H	-0.9752881805	 1.8627346999	 0.0581586936	 0.151045
H	-0.875838456	-2.6394229933	 1.0130159009	 0.089764
H	-1.3705060412	-3.9839060218	-0.8995338781	 0.108845
H	-2.317679107	-2.5474139274	-1.3473799533	 0.122523
H	-0.2792784292	-3.4499348989	-3.0083497102	 0.115341
H	-0.4924073339	-1.7029600447	-2.7510213797	 0.109431
H	 1.548125252	-2.5813205038	 0.3337548383	 0.097998
107.0381	130.5427	155.8093	231.3325	305.5011	415.1718	494.7916	589.8485	616.0194	648.7498	698.5196	840.7396	855.0253	894.6886	917.4758	936.3672	947.0402	974.3053	983.8545	1028.6521	1064.5396	1077.7266	1111.5745	1124.7743	1205.1181	1228.0835	1261.7275	1285.7732	1312.1137	1322.3947	1347.8836	1375.1473	1401.8662	1415.7751	1474.5749	1475.735	1480.2875	1520.6892	1730.0066	3017.3301	3051.1944	3061.4042	3077.7666	3107.6239	3108.7974	3112.3124	3132.6236	3165.7622
CC1=NC2CCOC2O1	CC1=N[C@H]2CCO[C@H]2O1	
InChI=1S/C6H9NO2/c1-4-7-5-2-3-8-6(5)9-4/h5-6H,2-3H2,1H3	InChI=1S/C6H9NO2/c1-4-7-5-2-3-8-6(5)9-4/h5-6H,2-3H2,1H3/t5-,6-/m0/s1
