20
gdb 96976	3.1409	1.25518	1.03505	2.6447	82.24	-0.2347	0.0302	0.265	1236.9277	0.170264	-403.161422	-403.152415	-403.151471	-403.195449	33.679	
C	 0.4710107867	 1.3792471319	-0.1720330705	-0.328781
N	 0.4715938042	-0.0742288011	-0.1237762287	-0.320052
C	 0.4504385009	-0.6566723158	 0.9908327857	 0.403717
C	 0.4560759951	-2.1656521869	 1.1939407053	-0.327304
C	 0.6742352984	-2.3309142573	 2.6832733628	-0.112779
C	 1.9087626748	-1.668695027	 3.2767626667	-0.345254
C	 0.5876030244	-0.9495291015	 3.2733245461	 0.431228
C	-0.1551811596	-0.547279809	 4.5129025483	-0.468543
O	 0.4211230913	-0.0183891788	 2.2108705529	-0.279302
H	 1.0934119798	 1.7070194678	-1.0106259158	 0.118449
H	-0.5457079618	 1.7437466082	-0.3666596764	 0.122885
H	 0.8300409649	 1.8541835413	 0.7486246846	 0.119154
H	-0.5108075425	-2.5790178966	 0.8871220937	 0.131197
H	 1.2209600743	-2.6293627683	 0.5660060902	 0.134682
H	 0.2426818054	-3.1835194967	 3.1937074111	 0.096063
H	 2.2704997175	-2.0527331978	 4.2245293524	 0.117243
H	 2.6837191293	-1.3156516036	 2.6032101949	 0.124163
H	-0.0203682972	-1.2989990193	 5.2954032908	 0.121999
H	 0.2127874141	 0.4107668347	 4.8941253045	 0.132848
H	-1.2259402401	-0.4453041741	 4.3096832212	 0.128388
61.7051	80.866	183.8891	197.6968	213.8636	250.0301	332.9082	393.0992	430.7307	497.2942	587.3159	592.1778	681.4939	740.3871	832.863	837.6401	859.7527	932.4779	958.7197	987.3399	1033.1995	1047.1598	1052.6111	1072.7273	1101.6776	1126.5625	1130.4174	1154.7046	1191.1611	1195.8185	1252.6715	1303.8545	1310.0307	1396.7993	1429.9513	1438.6233	1472.9459	1478.5123	1487.2999	1491.481	1499.4201	1504.5604	1801.121	3012.2909	3038.1174	3053.8531	3069.1753	3090.7057	3099.6416	3104.0739	3119.0686	3126.4477	3181.2978	3217.0004
CN=C1CC2CC2(C)O1	CN=C1C[C@H]2C[C@@]2(C)O1	
InChI=1S/C7H11NO/c1-7-4-5(7)3-6(8-2)9-7/h5H,3-4H2,1-2H3	InChI=1S/C7H11NO/c1-7-4-5(7)3-6(8-2)9-7/h5H,3-4H2,1-2H3/t5-,7+/m0/s1
