21
gdb 113810	3.92314	0.8013	0.71933	1.0541	80.6	-0.2533	0.0751	0.3284	1614.8687	0.180714	-424.185367	-424.175385	-424.174441	-424.221379	36.084	
C	-0.0266801894	 1.4877227859	-0.2024920664	-0.419334
C	-0.186929173	 0.0353064029	 0.1672676609	 0.066368
O	 0.970068253	-0.8020485549	 0.0689231828	-0.273215
C	 0.3857053226	-0.6018585235	 1.3674721561	 0.060802
C	 1.1974974952	 0.1090469813	 2.3974236735	-0.052709
C	 0.8546634167	-0.0553988798	 3.8623572826	-0.297543
C	 2.1366081492	-0.6336117574	 3.3289221472	 0.01588
C	 2.3459186358	-2.1228589047	 3.2486505928	-0.100533
O	 2.8140678981	-2.5616728352	 4.5186435351	-0.422015
H	 0.8978290536	 1.9096171201	 0.196194763	 0.130011
H	-0.0015686732	 1.5958346584	-1.2919365956	 0.129056
H	-0.8724180197	 2.0743539073	 0.1724953156	 0.122217
H	-1.0913761885	-0.4269318159	-0.2366747089	 0.084233
H	-0.1431414005	-1.4818721143	 1.7387516712	 0.083668
H	 1.5481726444	 1.0896380518	 2.0951653581	 0.086064
H	 0.8945359041	 0.8153948761	 4.5065130956	 0.114362
H	 0.0623002322	-0.7551749614	 4.1111228968	 0.11446
H	 3.0451782135	-0.0965240396	 3.5864327907	 0.093942
H	 1.4074110883	-2.6306401203	 2.9789139773	 0.081623
H	 3.0764844828	-2.3506210492	 2.4569048138	 0.097834
H	 3.0478570348	-3.4915817474	 4.4429081079	 0.284829
30.522	80.1733	106.6848	155.3684	196.5416	213.1946	260.5627	313.0268	345.4981	402.3225	472.2156	472.7862	609.3074	767.5862	800.6302	815.6138	864.0074	899.4919	917.1429	967.6255	991.7438	1016.1375	1045.838	1068.4145	1071.8053	1094.476	1130.1574	1152.4532	1167.7275	1178.4445	1204.5642	1238.3727	1256.6883	1283.6652	1305.5305	1331.0049	1393.4546	1406.9087	1428.208	1471.3725	1474.814	1488.887	1497.1473	1517.7805	1521.2674	2976.1117	3003.8161	3039.3256	3069.1441	3087.9356	3099.6242	3129.9511	3133.9225	3147.3203	3167.7974	3216.1305	3826.0758
CC1OC1C1CC1CO	C[C@H]1O[C@H]1[C@H]1C[C@H]1CO	
InChI=1S/C7H12O2/c1-4-7(9-4)6-2-5(6)3-8/h4-8H,2-3H2,1H3	InChI=1S/C7H12O2/c1-4-7(9-4)6-2-5(6)3-8/h4-8H,2-3H2,1H3/t4-,5+,6+,7-/m1/s1
