12
gdb 42378	8.56032	0.5908	0.55451	3.0199	83.38	-0.2635	-0.0976	0.1659	1811.6792	0.074018	-398.307119	-398.297994	-398.29705	-398.342172	31.068	
O	-0.2451078718	-0.0849190241	 0.0019190297	-0.23242
C	-0.0976663753	 1.105222478	 0.0063900131	 0.309868
C	 1.2410950968	 1.8417046483	-0.0016630728	-0.511875
C	 2.3958001017	 0.9687095281	-0.0165922479	 0.389761
C	 3.3658133134	 0.2482164156	-0.0290740668	-0.20826
C	 4.4576834591	-0.5628935196	-0.0431298025	 0.296684
C	 5.4277267174	-1.2809575787	-0.0556072967	-0.543912
C	-1.2631386642	 2.0158338613	 0.021008745	 0.220465
N	-2.1639969187	 2.7405404838	 0.032348613	-0.288694
H	 1.2357624661	 2.5171761404	-0.8702129253	 0.184071
H	 1.251264261	 2.5077723109	 0.8740938735	 0.18409
H	 6.2794750646	-1.915283374	-0.0665797724	 0.200223
38.0844	60.1347	152.225	152.62	205.897	268.7503	336.809	364.4098	436.7351	530.2315	546.0143	578.4102	597.0018	607.3826	611.2139	749.5048	830.2781	936.4623	1059.3124	1185.6545	1213.7764	1345.2344	1423.7167	1817.6886	2188.8462	2338.1231	2375.1191	3005.8596	3032.1156	3502.6734
O=C(CC#CC#C)C#N	O=C(CC#CC#C)C#N	
InChI=1S/C7H3NO/c1-2-3-4-5-7(9)6-8/h1H,5H2	InChI=1S/C7H3NO/c1-2-3-4-5-7(9)6-8/h1H,5H2
