17
gdb 18678	3.01396	2.28217	1.50468	3.0232	67.94	-0.2128	-0.0115	0.2013	850.8075	0.145066	-363.866208	-363.859397	-363.858453	-363.897201	26.684	
O	 0.0358009303	-0.0178352531	-0.2949087744	-0.332495
C	 0.0186332958	 1.179303819	-0.1017730427	 0.388329
C	-1.2890823002	 1.9624538192	 0.0452980246	-0.280591
N	-1.3045338099	 3.1714547535	-0.784091053	-0.280668
C	-0.2514761044	 4.1152698263	-0.4087746673	-0.19156
C	 1.1498656129	 3.5125022598	-0.2085821183	-0.044796
C	 1.5213593166	 2.9166036624	 1.1105568457	-0.290164
C	 1.2640626855	 1.9968622889	-0.0804137673	-0.113985
H	-2.1113576934	 1.2985244962	-0.232645518	 0.127678
H	-1.4428076652	 2.259932795	 1.091935087	 0.119725
H	-1.1809765698	 2.8995997994	-1.7552035863	 0.222928
H	-0.2057455396	 4.8875000505	-1.1820502339	 0.111684
H	-0.5665432554	 4.6162373808	 0.5160883851	 0.113216
H	 1.9514245506	 3.9922653522	-0.761993534	 0.097439
H	 2.546712973	 2.9865035348	 1.4553243753	 0.126012
H	 0.7821117621	 2.934082724	 1.9050778733	 0.122341
H	 2.1257401409	 1.4931548912	-0.5039191258	 0.104906
93.1976	196.6687	253.4912	372.7464	418.3332	461.4638	474.8091	578.7778	707.962	748.2649	775.0606	813.1899	865.3553	897.6036	904.7668	954.4868	983.5302	1013.4152	1060.6415	1091.5699	1119.8727	1127.5921	1159.7803	1204.2559	1217.4101	1259.1021	1319.5232	1341.3243	1360.8698	1373.477	1390.0031	1460.0836	1482.0997	1493.1829	1496.7915	1796.2548	3017.4882	3019.5834	3084.0994	3105.2006	3131.6091	3150.9354	3177.6777	3219.0238	3504.2446
O=C1CNCC2CC12	O=C1CNC[C@H]2C[C@@H]12	
InChI=1S/C6H9NO/c8-6-3-7-2-4-1-5(4)6/h4-5,7H,1-3H2	InChI=1S/C6H9NO/c8-6-3-7-2-4-1-5(4)6/h4-5,7H,1-3H2/t4-,5-/m1/s1
