16
gdb 11940	3.25214	1.91997	1.53855	1.4868	67.12	-0.2446	-0.0298	0.2148	862.8234	0.128773	-383.716102	-383.708424	-383.70748	-383.747964	28.333	
C	 0.0334302359	 1.4394672849	 0.203779619	-0.48328
C	 0.01736052	-0.0474047129	 0.0876195724	 0.432275
C	-0.8735170802	-0.9889007019	 0.8013980836	-0.374166
C	 0.6273340863	-1.1659110408	 0.9961500107	 0.113344
C	 1.2355702218	-1.6677274824	-0.305132006	-0.15018
O	 0.5651118099	-0.6423028228	-1.0857195608	-0.30878
C	 1.2884663905	-0.9692034076	 2.2849648162	 0.061185
O	 0.7653271668	-0.4629457731	 3.2545566132	-0.284513
H	 1.0101199475	 1.8430683943	-0.0766407024	 0.134701
H	-0.7225920653	 1.8786031573	-0.4570599988	 0.140267
H	-0.1947182352	 1.7359156704	 1.2309715498	 0.151285
H	-1.3644186059	-0.5981080052	 1.6864527757	 0.148618
H	-1.4182974195	-1.74543554	 0.243247832	 0.121785
H	 2.3229327785	-1.5367681305	-0.3577408578	 0.115732
H	 0.9659046884	-2.6779922412	-0.6330874113	 0.113054
H	 2.3537389905	-1.2938442686	 2.3127743046	 0.068673
96.5414	174.2272	199.9889	223.0118	262.2965	352.6338	391.3709	472.9923	516.2156	650.6593	700.0402	762.2126	816.3652	929.7872	961.4153	979.1523	994.694	1029.2363	1039.6122	1069.233	1104.226	1156.4647	1181.3437	1240.1064	1291.9689	1346.0969	1386.5211	1422.9071	1438.6212	1474.9519	1480.0309	1498.4519	1516.7653	1783.1849	2867.7841	3023.7053	3038.1209	3074.3884	3105.0246	3118.7052	3130.9287	3222.7735
CC12CC1(CO2)C=O	C[C@]12C[C@]1(CO2)C=O	
InChI=1S/C6H8O2/c1-5-2-6(5,3-7)4-8-5/h3H,2,4H2,1H3	InChI=1S/C6H8O2/c1-5-2-6(5,3-7)4-8-5/h3H,2,4H2,1H3/t5-,6+/m0/s1
