20
gdb 59089	2.13391	1.38631	1.11798	2.6536	77.49	-0.2322	-0.0408	0.1914	1201.556	0.167946	-440.256141	-440.245961	-440.245017	-440.291114	36.772	
C	 0.3053581052	 0.9987691261	-1.0564941828	-0.410853
C	-0.2023247906	 0.5657037777	 0.318301326	 0.105241
O	-0.3509196641	 1.6788531041	 1.2014172688	-0.432222
C	-1.5279457982	-0.1720177256	 0.2132649777	-0.021883
C	-1.6524839545	-1.6807489171	 0.0625306063	-0.127858
C	-0.4533004392	-2.5563685515	 0.0110427659	 0.14872
O	 0.5791709468	-2.4121743174	 0.6293811599	-0.273106
N	-2.0919373901	-0.9580576456	 1.2734786397	-0.103049
C	-1.3921497316	-1.1180649758	 2.5492524817	-0.334526
H	 1.2144510443	 1.5953044006	-0.9457883048	 0.130357
H	 0.531959527	 0.1320137769	-1.6850058724	 0.12489
H	-0.4428684987	 1.6079919833	-1.5796975155	 0.10513
H	 0.542030899	-0.0744504088	 0.7924379216	 0.127165
H	-0.9802608759	 2.2912313368	 0.8031078694	 0.277292
H	-2.2791824501	 0.3922262224	-0.3475038571	 0.090036
H	-2.4766350213	-2.0600210195	-0.5392682961	 0.097908
H	-0.5791934479	-3.4248400479	-0.6736074604	 0.085591
H	-0.3376288622	-1.3952286992	 2.4635293129	 0.150558
H	-1.4683192085	-0.1698155091	 3.0864162203	 0.140985
H	-1.9103505794	-1.8919550506	 3.122842099	 0.119621
65.183	123.1948	143.1541	167.2835	198.1038	233.3525	235.9302	269.4222	304.0115	361.6618	374.6384	425.3082	483.1245	565.1892	702.8958	785.1363	816.6006	863.8691	911.2341	971.9319	996.1469	1038.7461	1076.7397	1078.8753	1101.0943	1141.28	1160.1081	1173.6406	1193.6152	1272.5272	1330.219	1348.8943	1383.4256	1403.7411	1420.7335	1432.3999	1437.1382	1454.4163	1482.3718	1490.7515	1495.0936	1520.0494	1789.03	2880.7865	3024.3847	3040.6004	3054.9525	3092.4731	3108.1557	3121.5338	3123.4413	3129.1137	3131.2568	3790.6848
CC(O)C1C(C=O)N1C	C[C@@H](O)[C@H]1[C@@H](C=O)N1C	
InChI=1S/C6H11NO2/c1-4(9)6-5(3-8)7(6)2/h3-6,9H,1-2H3	InChI=1S/C6H11NO2/c1-4(9)6-5(3-8)7(6)2/h3-6,9H,1-2H3/t4-,5-,6+,7?/m1/s1
