19
gdb 87361	2.00665	1.58616	1.11035	2.9059	77.4	-0.2343	-0.0176	0.2167	1165.4144	0.156885	-423.021256	-423.011951	-423.011007	-423.055604	34.492	
C	-0.4413613429	 1.4215567594	 0.0233481848	-0.40287
C	 0.0641453699	-0.0114870012	-0.0793464872	-0.073284
C	 1.396001421	-0.2158302026	-0.8847685688	-0.373072
C	 2.0456236098	-0.7668627167	 0.3991451676	 0.34548
O	 3.1369978635	-1.1760232036	 0.6862010321	-0.319648
C	 0.7681467052	-0.5937862262	 1.1644130801	 0.215002
C	 0.6200691481	-0.2485676067	 2.6347317728	-0.386095
C	 0.2101281105	-1.5992563603	 2.1425927189	 0.050175
O	-1.1421691127	-1.8939532162	 1.9701729109	-0.418545
H	 0.3448794296	 2.0964115583	 0.3800892061	 0.115253
H	-0.7814149042	 1.7860845757	-0.9517134764	 0.118109
H	-1.2854561741	 1.493329523	 0.7173840124	 0.119205
H	-0.7371896841	-0.668020123	-0.4275477958	 0.094728
H	 1.3544730887	-0.9340871107	-1.708243656	 0.1302
H	 1.8636266766	 0.7042783115	-1.2498203665	 0.126651
H	 1.5342234368	-0.156920105	 3.212483584	 0.133779
H	-0.1720821492	 0.4496769173	 2.8858574998	 0.123226
H	 0.8520645633	-2.4481831412	 2.3781136468	 0.107375
H	-1.5326489859	-2.0327061215	 2.8395878943	 0.294332
51.4682	111.7075	146.9038	180.2153	243.2107	243.588	275.1615	368.9471	399.7592	492.3883	523.4822	546.5994	605.902	681.5532	784.6418	812.9248	869.5503	879.1593	910.9644	991.0565	1019.716	1050.0599	1056.7047	1071.4342	1103.8241	1114.4171	1170.5255	1181.3121	1188.4423	1234.3873	1245.3006	1296.674	1328.783	1366.4812	1408.745	1413.0236	1438.9807	1468.4055	1494.5509	1499.4575	1874.0504	3027.2755	3055.5569	3072.3921	3097.2773	3099.41	3105.6206	3111.8458	3124.8182	3219.9748	3805.9065
CC1CC(=O)C11CC1O	C[C@H]1CC(=O)[C@]21C[C@H]2O	
InChI=1S/C7H10O2/c1-4-2-5(8)7(4)3-6(7)9/h4,6,9H,2-3H2,1H3	InChI=1S/C7H10O2/c1-4-2-5(8)7(4)3-6(7)9/h4,6,9H,2-3H2,1H3/t4-,6+,7+/m0/s1
