25
gdb 115330	3.00697	1.00843	0.86034	1.5989	87.72	-0.2564	0.0698	0.3262	1465.3843	0.229487	-389.508152	-389.497862	-389.496918	-389.543188	39.	
C	-0.8946737016	 1.1042366167	-0.0173477631	-0.422314
C	 0.1160415319	-0.0413390091	-0.0029673071	 0.055973
C	 1.179470992	 0.0359713448	-1.1250539313	-0.219158
C	 2.3964105541	-0.7801038076	-0.609830283	-0.240463
C	 2.0139423495	-1.2485999797	 0.8204637945	 0.034276
C	 3.2093110909	-1.4672977927	 1.7448817146	-0.103027
O	 4.0323455369	-2.5494067232	 1.3249923787	-0.42525
C	 0.9499232343	-0.225405529	 1.2917572991	-0.019977
C	 1.5398848931	 1.0833743544	 1.8396642329	-0.401812
H	-0.4040877675	 2.0799696303	 0.0613191425	 0.114969
H	-1.4673027367	 1.102598374	-0.9511987155	 0.111506
H	-1.6107425532	 1.0205149288	 0.8077615457	 0.109964
H	-0.4409803048	-0.9785572982	-0.1398473854	 0.069069
H	 0.7906149072	-0.3435266664	-2.0744320258	 0.095136
H	 1.4625635811	 1.0794978897	-1.3028275355	 0.095837
H	 2.629557061	-1.6278678963	-1.2606141287	 0.098373
H	 3.2952974166	-0.1513503778	-0.5797654735	 0.090895
H	 1.5102777514	-2.2202586492	 0.7341528928	 0.076428
H	 3.7995512856	-0.5420575504	 1.8355489402	 0.084054
H	 2.8672600036	-1.7345531362	 2.7511506094	 0.104123
H	 4.4044839744	-2.3158990341	 0.4689601112	 0.28294
H	 0.3276566646	-0.6676866074	 2.0796569803	 0.062726
H	 2.1851455446	 1.5866329072	 1.1111436381	 0.113276
H	 0.7470008563	 1.7845140874	 2.1157335583	 0.1152
H	 2.1374976047	 0.902126384	 2.7378851907	 0.117257
78.6848	93.5184	119.5461	175.7724	226.885	240.1695	275.8842	303.6914	309.305	329.1578	382.7279	455.255	516.9559	591.59	654.1869	776.6047	808.1356	822.646	874.8339	903.2768	962.6626	993.7444	1006.9841	1027.21	1036.5075	1048.8002	1071.3516	1080.3897	1124.0038	1145.5066	1181.3053	1204.2686	1232.1758	1248.9355	1282.8469	1294.1242	1304.4839	1315.5676	1340.6169	1368.2108	1378.2856	1384.8017	1396.3507	1411.1284	1416.1938	1422.8016	1487.3304	1495.1878	1496.7475	1502.9135	1505.9597	1512.3434	1518.1776	2981.7051	2998.5547	3012.667	3022.6932	3028.0141	3030.7381	3034.9636	3043.3891	3062.9926	3069.3006	3089.5169	3091.3709	3099.5668	3100.94	3107.8503	3822.2215
CC1CCC(CO)C1C	C[C@H]1CC[C@@H](CO)[C@H]1C	
InChI=1S/C8H16O/c1-6-3-4-8(5-9)7(6)2/h6-9H,3-5H2,1-2H3	InChI=1S/C8H16O/c1-6-3-4-8(5-9)7(6)2/h6-9H,3-5H2,1-2H3/t6-,7-,8-/m0/s1
