13
gdb 25468	2.86379	1.63518	1.04086	1.5076	69.67	-0.2544	-0.0993	0.1551	1036.2879	0.090804	-452.813964	-452.806977	-452.806033	-452.845718	25.747	
O	-0.0522462092	-0.0707539053	-0.0020919617	-0.27823
C	-0.041961596	 1.1295745133	 0.0074244159	 0.178033
N	 1.1618083457	 1.8830210038	 0.0000494899	-0.193216
C	 2.3757112823	 1.225314008	-0.0186881118	 0.016691
C	 3.5258479116	 1.9321238109	-0.0257961013	-0.07644
N	 3.544449458	 3.3110525719	-0.0149574142	-0.22388
C	 2.4153849812	 3.9383405479	 0.0025821162	-0.071228
C	 1.088725039	 3.3045201939	 0.0122084228	 0.402424
O	 0.0301257096	 3.8991741845	 0.0286363747	-0.367363
H	-0.9216851626	 1.7833956702	 0.0224505542	 0.161234
H	 2.3065065237	 0.1455279393	-0.0265541478	 0.171691
H	 4.4859900506	 1.432789175	-0.040455526	 0.133945
H	 2.4084220463	 5.0258832366	 0.0113712193	 0.146338
100.3479	171.5308	249.5585	253.0521	373.5927	428.6011	536.4866	536.5043	581.3731	649.7021	770.6113	837.7649	846.718	871.3132	952.8885	963.1539	1038.0779	1055.4939	1124.4041	1219.6799	1252.8462	1279.4188	1362.2693	1401.1733	1455.7485	1567.3553	1661.8442	1780.9526	1826.3405	3091.2062	3166.3861	3214.8651	3236.923
O=CN1C=CN=CC1=O	O=Cn1ccncc1=O	
InChI=1S/C5H4N2O2/c8-4-7-2-1-6-3-5(7)9/h1-4H	InChI=1S/C5H4N2O2/c8-4-7-2-1-6-3-5(7)9/h1-4H
