15
gdb 109200	4.23429	0.95125	0.86454	2.7294	67.2	-0.2802	-0.0145	0.2656	1301.808	0.112723	-453.962737	-453.954181	-453.953236	-453.997101	29.612	
O	 0.1423328627	 1.2464660629	 0.3727679871	-0.416708
C	-0.004644407	-0.1245972561	 0.1237823852	-0.127761
C	-1.4420565599	-0.5044832689	-0.054452453	 0.395031
N	-2.4164079955	 0.2948292911	 0.0729142566	-0.323026
C	-3.6399997277	-0.4687726022	-0.1692454478	-0.205196
C	-3.1298884208	-1.92870583	-0.4327914211	-0.054069
O	-1.691432099	-1.8071375356	-0.3674740383	-0.245351
C	-3.5886643659	-2.903026312	 0.560654425	 0.278537
N	-3.9848839093	-3.6572767858	 1.3405717288	-0.303817
H	-0.7477698067	 1.6057997744	 0.4901711112	 0.301755
H	 0.5475891143	-0.412840224	-0.7826011271	 0.131394
H	 0.4066767438	-0.7327184559	 0.9456167501	 0.13076
H	-4.3073354801	-0.4180686121	 0.6945310958	 0.150442
H	-4.1759637411	-0.071817332	-1.0359997533	 0.138544
H	-3.3918889177	-2.2919123838	-1.4299952191	 0.149464
42.2308	81.974	149.2027	207.3962	220.2012	255.884	273.1764	417.2454	513.145	572.7935	598.7402	708.2537	760.0349	828.1269	949.022	989.0761	1026.095	1036.7702	1049.4957	1071.2972	1115.1999	1206.8181	1225.5566	1247.6862	1295.8852	1318.9091	1343.9864	1375.3827	1474.8638	1501.5788	1503.6929	1751.7599	2364.4376	2985.876	3017.8324	3062.8885	3080.701	3108.8836	3747.7348
OCC1=NCC(O1)C#N	OCC1=NC[C@@H](O1)C#N	
InChI=1S/C5H6N2O2/c6-1-4-2-7-5(3-8)9-4/h4,8H,2-3H2	InChI=1S/C5H6N2O2/c6-1-4-2-7-5(3-8)9-4/h4,8H,2-3H2/t4-/m0/s1
