18
gdb 87113	2.18813	1.46049	1.1825	2.0842	73.96	-0.2336	-0.0919	0.1417	1137.6601	0.143647	-439.067962	-439.058014	-439.057069	-439.103146	34.863	
C	-0.3420726769	 1.4249980286	 0.2667855393	-0.320031
N	 0.0132634718	 0.0192744777	 0.1409237578	-0.113446
C	 1.3757620188	-0.3504357396	-0.2347092544	-0.28955
C	 0.8743642157	-0.6197997894	 1.1409205325	 0.240138
C	 1.4410389481	 0.09957818	 2.3502630379	-0.495159
C	 0.3203066023	-2.0028526028	 1.3974451516	 0.248685
O	 0.7808679088	-3.0321800672	 0.9643045647	-0.284804
C	-0.9672920881	-2.0872112073	 2.2337026205	 0.094497
O	-1.4737943684	-1.1519510907	 2.7954306684	-0.224449
H	 0.4887712936	 2.0767732885	 0.574590155	 0.103895
H	-0.7079859857	 1.7780330167	-0.7021152238	 0.130469
H	-1.1509478153	 1.522115476	 0.9967041388	 0.14178
H	 1.4770281746	-1.1580274188	-0.9538760481	 0.131745
H	 2.1066820848	 0.4514879436	-0.3343686719	 0.11045
H	 1.8537549196	 1.0734727384	 2.0796503016	 0.128965
H	 0.6727662737	 0.2436435247	 3.1138485867	 0.152807
H	 2.2542083957	-0.4907314347	 2.7859055974	 0.134624
H	-1.3706176132	-3.1212816537	 2.2831095862	 0.109384
51.9557	105.8423	124.8627	167.7188	181.7346	199.3373	232.8901	269.9586	345.1288	368.533	431.9933	514.7304	589.211	637.8079	652.1465	797.0555	823.9262	930.9296	973.4951	1012.5282	1058.3034	1090.6793	1115.9553	1133.0017	1145.57	1187.2118	1217.4428	1293.0537	1366.7784	1391.4449	1404.4205	1444.1617	1481.8187	1488.7132	1502.5419	1508.8873	1510.3979	1804.84	1821.1934	2918.2255	2991.8494	3046.615	3077.7341	3091.0886	3112.9185	3114.1237	3136.6026	3186.2399
CN1CC1(C)C(=O)C=O	CN1C[C@]1(C)C(=O)C=O	
InChI=1S/C6H9NO2/c1-6(4-7(6)2)5(9)3-8/h3H,4H2,1-2H3	InChI=1S/C6H9NO2/c1-6(4-7(6)2)5(9)3-8/h3H,4H2,1-2H3/t6-,7?/m1/s1
