17
gdb 39281	2.48525	2.25703	1.58891	0.798	66.08	-0.2626	0.0589	0.3214	864.9932	0.138622	-458.91571	-458.909401	-458.908456	-458.946018	26.672	
C	-0.0704408206	 1.5243276759	 0.049817209	-0.14509
O	 1.3273329067	 1.8838227225	-0.0979103446	-0.290597
C	 2.1625607159	 0.7102543658	 0.0619759309	 0.24403
C	 1.2708580157	-0.2499082897	 0.8349706283	-0.330107
C	 0.0779316573	 0.0222487033	-0.0775247333	 0.331424
O	-0.725637528	-1.0252500366	-0.5679964444	-0.303377
C	 0.2626644242	-0.4397360883	-1.453751351	 0.003257
C	 1.6816895682	-0.915619317	-1.6814733331	-0.131537
O	 2.5557016847	 0.1200274824	-1.1709318866	-0.280559
H	-0.4428618992	 1.8651871838	 1.023875784	 0.103022
H	-0.65152987	 1.9904183934	-0.7490994084	 0.119083
H	 3.0845390013	 1.0553949419	 0.5294489926	 0.09698
H	 1.6165499634	-1.2814163867	 0.8429660923	 0.12322
H	 1.0930476646	 0.087876313	 1.8587586987	 0.11204
H	-0.1878083133	 0.1430668689	-2.2532877391	 0.111705
H	 1.8759290828	-1.8792533967	-1.1958886185	 0.11539
H	 1.9314106062	-1.008278636	-2.7400637268	 0.121116
222.1443	283.6894	393.8675	401.9317	436.7042	501.0163	502.0651	568.6865	588.9864	752.1594	817.1146	820.0911	854.7784	888.5609	918.8362	935.5509	989.8048	996.7068	1021.4807	1041.9706	1076.8852	1101.0805	1109.4144	1143.891	1175.6715	1215.5431	1233.9532	1277.5045	1311.9127	1331.5803	1361.6696	1371.0792	1386.0424	1486.1415	1492.9056	1520.098	1531.8064	3025.2943	3035.3018	3080.8013	3103.3019	3110.6289	3123.23	3145.4089	3160.5899
C1OC2CC11OC1CO2	C1O[C@H]2C[C@]31O[C@@H]3CO2	
InChI=1S/C6H8O3/c1-5-7-2-4-6(1,9-4)3-8-5/h4-5H,1-3H2	InChI=1S/C6H8O3/c1-5-7-2-4-6(1,9-4)3-8-5/h4-5H,1-3H2/t4-,5+,6-/m1/s1
