21
gdb 63811	3.2494	1.42114	1.39624	1.3533	81.96	-0.2564	0.0764	0.3328	1053.5978	0.18361	-387.059384	-387.051612	-387.050667	-387.09105	32.282	
C	-0.1317398585	 1.5499370218	-0.0428165888	-0.453955
C	 0.0221804994	 0.0296122032	-0.018749144	 0.388011
O	-1.2621522899	-0.5982459937	-0.0164260555	-0.485642
C	 0.9567480877	-0.5350986055	-1.1385866752	-0.304791
C	 1.9750207573	-1.2808825373	-0.2820120509	 0.001588
C	 1.2420255092	-1.9561972336	 0.9240581101	-0.054883
C	 2.49009627	-1.7026738897	 1.8028788033	-0.244733
C	 2.3081762192	-0.4092914823	 0.9735820404	-0.066542
C	 0.7665821581	-0.4964196601	 1.2087663033	-0.003497
H	 0.8393588113	 2.0509847966	 0.0191423271	 0.117694
H	-0.6121052369	 1.8785652455	-0.9730969524	 0.103132
H	-0.7500229445	 1.8847819151	 0.7957778758	 0.120913
H	-1.7561376693	-0.2640650879	-0.7725975729	 0.271996
H	 0.3975364066	-1.197555146	-1.8067443608	 0.093835
H	 1.4189081918	 0.2523261815	-1.7444021854	 0.08903
H	 2.7850378828	-1.8233184863	-0.7744784042	 0.058034
H	 0.6102907813	-2.8441878441	 0.8902078334	 0.074178
H	 2.3263081959	-1.6244431918	 2.8815907233	 0.087513
H	 3.3775516689	-2.304350163	 1.5841788501	 0.085839
H	 2.9245531196	 0.4923398764	 0.9975373353	 0.06231
H	 0.3551161799	-0.2488939987	 2.1893223781	 0.059971
122.5584	227.0522	247.6901	277.6177	324.9242	359.6648	396.4721	480.9393	493.6769	593.0995	675.1931	770.6013	817.8307	825.9077	875.9858	878.1729	914.7388	925.2444	947.9246	959.8791	973.5077	1003.7271	1005.153	1041.0192	1059.9864	1099.424	1111.5293	1131.8115	1135.6202	1167.9973	1180.6672	1199.6523	1226.0366	1237.552	1260.1992	1265.3593	1273.3359	1285.0977	1362.7256	1393.8031	1406.3925	1483.5629	1490.174	1495.4209	1516.8222	3021.4888	3037.6184	3042.123	3078.8117	3084.6761	3087.6329	3092.4599	3097.9019	3101.9898	3111.356	3113.0939	3804.3953
CC1(O)CC2C3CC2C13	C[C@@]1(O)C[C@@H]2[C@H]3C[C@@H]2[C@@H]13	
InChI=1S/C8H12O/c1-8(9)3-6-4-2-5(6)7(4)8/h4-7,9H,2-3H2,1H3	InChI=1S/C8H12O/c1-8(9)3-6-4-2-5(6)7(4)8/h4-7,9H,2-3H2,1H3/t4-,5+,6-,7+,8-/m1/s1
