21
gdb 117554	2.00906	1.29323	1.0238	3.4635	79.74	-0.2185	0.0273	0.2458	1307.3015	0.180017	-420.383764	-420.372765	-420.37182	-420.420525	37.956	
C	 0.3774967902	 1.1097018179	-0.3562357244	-0.252502
O	-0.0391418449	 0.0766650921	-1.2344029072	-0.231113
C	 0.9180696652	-0.9273883963	-1.4759759648	-0.09248
C	 0.6388180607	-2.2499293	-0.7061329043	-0.139038
C	 0.6832712659	-2.0168447388	 0.7495735672	 0.311857
N	 0.7419140206	-1.8192426781	 1.8865454165	-0.340104
N	-0.5674746921	-2.9911262186	-1.0509889185	-0.051504
C	-1.83965416	-2.3345292195	-0.7683959093	-0.329887
C	-0.5224708913	-3.5986893261	-2.3687201007	-0.327857
H	 0.5978709054	 0.7353920633	 0.6500838784	 0.141575
H	 1.2651456287	 1.6285669674	-0.7472904201	 0.108836
H	-0.448335736	 1.8222948491	-0.2974592725	 0.132582
H	 0.893595231	-1.1602948751	-2.5474522161	 0.114858
H	 1.9341137748	-0.5829946703	-1.2347905776	 0.106265
H	 1.4883398688	-2.9099328103	-0.9362678982	 0.123423
H	-2.077394344	-1.5109160083	-1.4576934569	 0.118406
H	-2.6359425759	-3.0839069128	-0.8309420047	 0.115854
H	-1.8311598535	-1.9340051391	 0.2482961314	 0.140236
H	 0.4127544859	-4.1547540663	-2.4945598307	 0.118161
H	-1.3502883698	-4.309179301	-2.4595514831	 0.128342
H	-0.6119690295	-2.8815516391	-3.2047703741	 0.104089
45.4737	68.4998	105.0035	137.1685	157.3556	192.8768	221.255	233.2043	250.7712	314.8493	384.1334	402.6737	419.8665	443.0703	572.1273	697.5576	794.2639	842.0816	949.4454	968.2705	1049.8947	1077.0251	1098.6162	1126.0491	1156.001	1183.5178	1187.3094	1213.8758	1230.2734	1285.4135	1311.2524	1332.3502	1382.574	1402.1768	1448.7428	1472.6883	1473.2765	1479.2994	1486.8949	1495.2882	1499.2363	1504.8792	1513.1744	1522.2232	2357.4791	2941.1066	2991.4208	2993.6325	2998.7512	3010.0711	3053.9217	3059.8275	3068.0123	3069.7673	3099.1198	3118.6714	3124.3551
COCC(C#N)N(C)C	COC[C@@H](C#N)N(C)C	
InChI=1S/C6H12N2O/c1-8(2)6(4-7)5-9-3/h6H,5H2,1-3H3	InChI=1S/C6H12N2O/c1-8(2)6(4-7)5-9-3/h6H,5H2,1-3H3/t6-/m1/s1
