19
gdb 8892	4.0645	1.04774	1.01854	2.4384	69.36	-0.2415	0.035	0.2765	1250.4736	0.163652	-402.230759	-402.22052	-402.219575	-402.266979	34.817	
C	-0.2422664814	 1.4465202627	 0.1340989741	-0.333769
N	-0.1707612287	 0.0025542122	 0.2404447962	-0.317611
C	 0.8971921827	-0.6439584929	 0.7910495525	 0.413446
O	 1.8648137509	-0.0578244945	 1.2499984425	-0.392016
C	 0.8119328144	-2.1701675725	 0.7866870363	-0.090077
C	 1.83713565	-2.7488242714	-0.2021123235	-0.387418
C	 1.061642351	-2.6765646295	 2.2112699925	-0.069364
O	 0.9079493373	-4.0886928421	 2.2063442724	-0.426956
H	-0.3130340157	 1.7679467845	-0.9111805838	 0.124817
H	-1.1034084709	 1.845598586	 0.6817946876	 0.1244
H	 0.6739753088	 1.8472582917	 0.5692966343	 0.171954
H	-0.932267099	-0.5489022824	-0.1173848536	 0.24575
H	-0.1945199021	-2.4936940125	 0.4917902985	 0.070814
H	 1.5975543221	-2.4674221231	-1.2322246957	 0.107985
H	 2.8351302489	-2.3667834199	 0.0316535879	 0.13523
H	 1.8485932646	-3.8379759808	-0.1295453371	 0.134483
H	 2.0701732575	-2.371680351	 2.5202302106	 0.113697
H	 0.3454869996	-2.2045326322	 2.9026282238	 0.086294
H	 1.2036685799	-4.4241996526	 3.0571413045	 0.288342
24.5709	84.2479	105.4957	121.9216	195.1423	224.2906	236.2779	255.1271	277.354	349.9115	364.3733	480.5746	506.2485	709.93	763.8047	855.9578	900.3834	933.4214	1037.0613	1057.28	1084.0978	1108.1913	1154.1703	1167.9221	1171.2726	1211.3024	1255.3284	1270.8907	1350.2188	1367.932	1395.9431	1436.6701	1450.2043	1490.7832	1496.266	1500.3222	1504.6839	1523.2778	1559.3645	1768.7867	2974.3675	3021.1546	3026.5487	3042.3875	3044.7906	3077.869	3113.4502	3138.9173	3153.1704	3654.2334	3837.2219
CNC(=O)C(C)CO	CNC(=O)[C@@H](C)CO	
InChI=1S/C5H11NO2/c1-4(3-7)5(8)6-2/h4,7H,3H2,1-2H3,(H,6,8)	InChI=1S/C5H11NO2/c1-4(3-7)5(8)6-2/h4,7H,3H2,1-2H3,(H,6,8)/t4-/m0/s1
