16
gdb 128347	4.75156	1.06958	0.87864	4.7933	79.32	-0.2147	-0.0603	0.1544	1278.0159	0.124772	-434.048591	-434.040287	-434.039343	-434.081637	30.761	
C	-0.1916536015	 1.4404791408	-0.0717826654	-0.316108
N	-0.1968914681	-0.0095146115	-0.1707764675	-0.35541
C	 0.6677830567	-0.6447694382	-1.0326127907	 0.419251
N	 1.3507722729	 0.085696969	-1.8587194526	-0.191184
O	 2.1546224712	-0.6007681984	-2.7943168241	-0.293852
C	 2.3020781956	-1.9667703743	-2.8182243326	 0.407158
N	 3.0742409202	-2.5314456491	-3.6584840016	-0.537406
C	 1.5301245881	-2.7291216643	-1.8507886684	-0.114007
C	 0.7299249578	-2.0968488294	-0.9862658436	-0.158564
H	 0.7822170175	 1.8395925496	 0.2416676754	 0.133155
H	-0.4240776682	 1.8715224294	-1.0484074832	 0.157777
H	-0.9577473293	 1.7445858713	 0.6441282931	 0.12277
H	-0.3756422299	-0.5080910687	 0.6868416902	 0.246459
H	 3.5271411321	-1.8329210548	-4.250869499	 0.225134
H	 1.6426223972	-3.8052077557	-1.8872488079	 0.139115
H	 0.1235367277	-2.6291565657	-0.260824102	 0.115713
73.248	145.623	164.2955	199.2332	289.7498	343.6149	379.0743	433.8308	454.8423	550.1034	558.3712	626.0397	742.6207	775.8061	814.2824	841.778	875.3852	941.2895	1010.7049	1013.6859	1083.8338	1093.8643	1150.2818	1167.5738	1191.4713	1307.2404	1334.8234	1439.2599	1454.7031	1474.2573	1505.8022	1541.9813	1615.5912	1681.6016	1731.6102	3017.523	3097.1974	3138.9922	3182.8884	3227.1779	3473.4682	3623.6747
CNC1=NOC(=N)C=C1	CNC1=NOC(=C[CH]1)[NH]	
InChI=1S/C5H7N3O/c1-7-5-3-2-4(6)9-8-5/h2-3,6H,1H3,(H,7,8)	InChI=1S/C5H7N3O/c1-7-5-3-2-4(6)9-8-5/h2-3,6H,1H3,(H,7,8)
