19
gdb 75042	2.50775	1.56029	1.00799	2.961	88.53	-0.2306	-0.0662	0.1644	1185.8649	0.16024	-385.934143	-385.925687	-385.924743	-385.967428	32.088	
C	-0.1576655379	 1.6102849557	 0.0282676791	-0.463022
C	-0.1093002971	 0.1033668599	-0.0114691219	 0.170817
C	 0.1737720656	-0.5417416267	-1.1680389607	-0.143478
C	 0.2155313662	-1.952229824	-1.5231169277	-0.057271
C	-0.2745908789	-3.0021681499	-0.8468448013	-0.082607
C	-0.9145987441	-2.9409576504	 0.5088463684	-0.271664
C	-0.164982436	-2.0404950093	 1.5013043988	-0.304332
C	-0.3653694617	-0.5431268792	 1.305743201	 0.308145
O	-0.6881327909	 0.1469787353	 2.2570137529	-0.312722
H	 0.547947205	 2.0064369419	 0.7659009767	 0.137329
H	 0.0713848726	 2.0400786197	-0.9496716265	 0.110138
H	-1.1465910485	 1.9575995699	 0.3441472076	 0.141214
H	 0.3907176284	 0.108501231	-2.0148745721	 0.094647
H	 0.6422898432	-2.147200512	-2.5040296532	 0.091598
H	-0.2195122566	-3.9797952102	-1.3188459688	 0.099653
H	-1.9577950936	-2.6004577098	 0.4128080726	 0.12515
H	-0.9707682632	-3.9511384205	 0.9264975814	 0.114179
H	-0.4796147096	-2.2510404729	 2.5262442138	 0.12135
H	 0.9107543173	-2.2538297385	 1.4344569299	 0.120873
53.2822	150.8373	172.2028	224.4965	297.2523	323.9137	346.3287	409.1474	485.547	527.0749	549.2236	654.5461	730.6504	751.2601	776.447	876.8062	910.9263	937.8381	954.1071	1005.8945	1020.8815	1054.2331	1072.8301	1090.7027	1122.1269	1172.3264	1244.3101	1267.0592	1285.3704	1344.5747	1375.227	1407.965	1415.7668	1444.4623	1466.6092	1468.5193	1471.8945	1487.0303	1652.2376	1698.4825	1744.0558	2989.7912	3023.7359	3040.1056	3070.3497	3094.9146	3104.7357	3121.6891	3128.5793	3148.5464	3170.373
CC1=CC=CCCC1=O	CC1=CC=CCCC1=O	
InChI=1S/C8H10O/c1-7-5-3-2-4-6-8(7)9/h2-3,5H,4,6H2,1H3	InChI=1S/C8H10O/c1-7-5-3-2-4-6-8(7)9/h2-3,5H,4,6H2,1H3
