19
gdb 17399	4.07917	1.55651	1.50353	1.4994	75.95	-0.2214	0.0847	0.306	948.7208	0.165935	-327.864864	-327.857351	-327.856407	-327.896354	29.576	
C	-0.1256250819	 1.4911564718	 0.0082071474	-0.40456
C	-0.0021499634	-0.0157530914	 0.0457323016	-0.044928
C	 1.3406018617	-0.6827407551	-0.1803652051	-0.373685
C	 0.7001559131	-0.7023850642	 1.1778382125	 0.413634
C	 1.2957333063	-0.1083737787	 2.4825333848	-0.3138
C	 0.8316335081	-1.3871351618	 3.1981394987	-0.035249
N	-0.6408322805	-1.4618818556	 3.0212264332	-0.336932
C	 0.2641126604	-1.9384854279	 1.9379147677	-0.154504
H	 0.7642577444	 1.9713550741	 0.4287254494	 0.112834
H	-0.2431132952	 1.8549755611	-1.0187723919	 0.113153
H	-0.9907280051	 1.8321754132	 0.5871695705	 0.12304
H	-0.8625363398	-0.5475020955	-0.3546393515	 0.081019
H	 1.3747388042	-1.6067935707	-0.7498389769	 0.105629
H	 2.2071383573	-0.0426394972	-0.3225479912	 0.105267
H	 2.3837612053	-0.0096691759	 2.4423664016	 0.101484
H	 0.8515769059	 0.8185219268	 2.855407471	 0.106115
H	 1.3178451726	-1.8936559017	 4.0224504276	 0.090854
H	-0.9522592352	-2.2922140253	 3.5269659191	 0.223287
H	 0.2125777618	-2.958788366	 1.5758082717	 0.087343
114.4622	167.5922	200.2235	228.7945	359.4043	396.7462	445.9309	494.2605	570.1609	761.0134	792.8326	809.9565	832.6488	874.5404	889.5051	907.751	928.2942	964.6968	986.1195	1013.3302	1043.1125	1060.27	1091.2051	1107.1518	1125.5651	1130.4168	1164.1903	1184.2334	1202.2797	1229.0235	1293.8303	1308.6548	1329.8183	1374.613	1411.4787	1435.2822	1474.1849	1491.0831	1493.2764	1507.9014	3026.1857	3054.9692	3088.5266	3094.6254	3110.6007	3112.8048	3130.9738	3176.6857	3193.7347	3196.1301	3456.1586
CC1CC11CC2NC12	C[C@H]1C[C@]21C[C@H]1N[C@@H]21	
InChI=1S/C7H11N/c1-4-2-7(4)3-5-6(7)8-5/h4-6,8H,2-3H2,1H3	InChI=1S/C7H11N/c1-4-2-7(4)3-5-6(7)8-5/h4-6,8H,2-3H2,1H3/t4-,5+,6+,7+/m0/s1
