22
gdb 59668	2.65455	1.21595	1.09142	1.9251	81.86	-0.2431	0.0636	0.3066	1256.8533	0.193279	-404.305546	-404.295985	-404.295041	-404.339905	35.836	
C	 0.8700418621	-0.4619438867	-1.2924077823	-0.39815
C	 0.0724825433	 0.0390692384	-0.0813302795	 0.013034
C	-0.0709551741	 1.5687286436	-0.1114038064	-0.392389
C	-1.3103958705	-0.6077449049	 0.0196739134	 0.068888
O	-2.0804497009	-0.4984513645	-1.2066774129	-0.301103
C	-2.3024995014	-1.9265735441	-1.2760817097	-0.12485
C	-1.472319237	-2.1315809813	-0.0166847263	 0.268629
C	-0.5458609567	-3.2037232675	 0.3960479941	-0.30478
N	-1.8437078919	-3.0143289422	 1.0784186573	-0.363912
H	 1.8552515355	 0.0129840597	-1.3275631698	 0.108452
H	 1.0208789058	-1.5447597045	-1.2623436768	 0.114229
H	 0.3417408548	-0.2196176448	-2.2188149446	 0.132993
H	 0.6092215086	-0.2385998812	 0.8389520997	 0.067255
H	-0.6537998463	 1.8788873106	-0.9847829181	 0.135933
H	-0.5811164256	 1.9417684518	 0.7830146137	 0.108747
H	 0.9084320347	 2.0537986474	-0.168178305	 0.109715
H	-1.8632864421	-0.1526000872	 0.8575364722	 0.069758
H	-3.3617740434	-2.18966336	-1.1701979927	 0.11176
H	-1.9050312854	-2.3574212532	-2.2030419355	 0.104827
H	-0.4678751935	-4.1154946241	-0.1908377447	 0.122758
H	 0.3668316758	-2.922757065	 0.9162784261	 0.116914
H	-1.7077791416	-2.5464909503	 1.9725272877	 0.231291
80.2251	86.4979	146.6439	202.881	225.9969	250.9861	276.5941	281.5815	362.3249	386.2682	480.5555	553.856	618.586	797.6636	825.1011	869.77	908.7238	926.6715	933.2069	941.1221	965.3806	973.0802	1007.726	1040.1969	1051.0601	1071.6954	1121.6333	1127.4518	1142.7353	1156.2433	1205.3371	1259.532	1272.2747	1285.7722	1318.2096	1328.5084	1359.8617	1377.582	1398.9251	1420.7752	1440.0849	1486.5105	1494.4967	1502.8544	1514.8092	1518.1517	1519.6156	2965.6143	2990.499	3017.6252	3032.5633	3043.459	3065.4851	3100.333	3101.547	3107.6911	3110.8618	3120.2846	3184.7331	3483.0318
CC(C)C1OCC11CN1	CC(C)[C@H]1OC[C@]21CN2	
InChI=1S/C7H13NO/c1-5(2)6-7(3-8-7)4-9-6/h5-6,8H,3-4H2,1-2H3	InChI=1S/C7H13NO/c1-5(2)6-7(3-8-7)4-9-6/h5-6,8H,3-4H2,1-2H3/t6-,7+/m1/s1
