17
gdb 64871	2.63747	1.25293	1.00914	2.1056	74.55	-0.2472	-0.0321	0.215	1208.0638	0.131841	-421.781973	-421.772595	-421.771651	-421.81711	33.738	
C	-0.4001241414	 1.6519299526	-0.1392212328	-0.438043
C	 0.0591512671	 0.2004020127	-0.0853947448	 0.211869
C	 1.1055344806	-0.2342183441	-1.1580945856	-0.339714
C	 2.0289806484	-0.4864762086	 0.0430949345	 0.048703
O	 1.0520762838	 0.0095790044	 0.9796174052	-0.320217
C	 2.380877198	-1.9347454441	 0.3335023424	 0.134144
O	 2.6878340728	-2.7338195384	-0.5118963286	-0.236412
C	-1.0636165052	-0.7184231487	 0.072230471	 0.346621
C	-1.9893267277	-1.4756960094	 0.1915486868	-0.470662
H	 0.4638463983	 2.3124671404	-0.2519670471	 0.121478
H	-1.0803858905	 1.8040470106	-0.9825286696	 0.132163
H	-0.9261603428	 1.9136720395	 0.7825066403	 0.140854
H	 0.8587973189	-1.1198747426	-1.7417358201	 0.142356
H	 1.4156719489	 0.5758559445	-1.81845594	 0.11865
H	 2.9562331008	 0.1044181698	 0.0731591913	 0.107385
H	 2.32783357	-2.195321261	 1.4140623888	 0.095558
H	-2.8040447201	-2.1486090775	 0.3010150682	 0.205267
34.7845	62.1045	154.1204	179.643	205.6755	238.9862	306.1099	349.2784	435.9505	509.015	534.8533	579.7962	630.456	645.1242	672.1275	789.4792	850.2381	898.8607	912.8934	938.4107	988.4269	1036.2191	1066.0174	1119.3958	1131.2049	1195.1535	1251.3566	1263.1891	1271.4909	1346.1753	1396.7089	1403.2822	1478.2954	1486.8872	1495.206	1832.9188	2233.4489	2894.5131	3000.9859	3043.8656	3096.7529	3122.6252	3128.6448	3161.5188	3499.452
CC1(CC(O1)C=O)C#C	C[C@]1(C[C@@H](O1)C=O)C#C	
InChI=1S/C7H8O2/c1-3-7(2)4-6(5-8)9-7/h1,5-6H,4H2,2H3	InChI=1S/C7H8O2/c1-3-7(2)4-6(5-8)9-7/h1,5-6H,4H2,2H3/t6-,7-/m1/s1
