20
gdb 15903	2.59958	1.79098	1.2386	2.104	71.01	-0.2382	0.0683	0.3066	1043.6914	0.175585	-386.124387	-386.115174	-386.11423	-386.158438	33.426	
C	-0.8520517893	 1.0948848627	-1.1871460719	-0.400888
C	 0.0272294299	-0.0758084649	-0.7984611595	 0.163399
O	 1.3852369804	 0.0558426801	-1.2902250867	-0.314337
C	 1.9358273687	-0.3533175055	-0.0183479585	 0.143386
C	 3.092842131	 0.5235127545	 0.4227274878	-0.40704
C	 0.5408288827	-0.2552890726	 0.6565413131	-0.067254
C	 0.3084546323	 0.8842914307	 1.6315020139	-0.100472
O	-1.0628503078	 0.8401022759	 2.0072991973	-0.423828
H	-0.4118009761	 2.0459305864	-0.8754339948	 0.112382
H	-0.9727002289	 1.1221434683	-2.27477807	 0.119122
H	-1.8379114412	 0.9979323799	-0.7242890299	 0.129238
H	-0.4197985404	-1.0077570137	-1.1754679545	 0.068865
H	 2.2771932299	-1.3985808688	-0.0719440865	 0.06865
H	 2.7993503438	 1.5736442299	 0.5009645078	 0.118438
H	 3.4855169856	 0.1919527865	 1.3900806726	 0.114681
H	 3.90220674	 0.4552804078	-0.3111286072	 0.127947
H	 0.2033994111	-1.1785085741	 1.1338477728	 0.079242
H	 0.9643542844	 0.7552092893	 2.5076393146	 0.088481
H	 0.5620908144	 1.8522231504	 1.1759270004	 0.092948
H	-1.2432577204	 1.5925879073	 2.5783229691	 0.287039
43.2741	118.514	173.7861	194.2372	222.7235	251.8159	278.8696	322.3856	365.92	405.8574	482.6876	543.1493	730.2766	783.2367	844.2687	881.4642	936.0544	984.6285	1012.3005	1041.5513	1066.6006	1083.7553	1120.7498	1139.1225	1162.8478	1180.3895	1227.6269	1253.3504	1280.9985	1285.0277	1340.0805	1370.9544	1374.1468	1399.3171	1403.0221	1423.6647	1462.3767	1476.5402	1482.9038	1493.9821	1500.8521	1530.7249	2971.0352	2975.7178	2985.5875	3009.6389	3037.3624	3043.2617	3080.8537	3105.3364	3112.2132	3119.9264	3127.1506	3828.7128
CC1OC(C)C1CO	C[C@H]1O[C@@H](C)[C@H]1CO	
InChI=1S/C6H12O2/c1-4-6(3-7)5(2)8-4/h4-7H,3H2,1-2H3	InChI=1S/C6H12O2/c1-4-6(3-7)5(2)8-4/h4-7H,3H2,1-2H3/t4-,5+,6+
