16
gdb 45283	2.87625	1.75821	1.27143	2.6932	69.59	-0.2295	-0.0314	0.198	970.2299	0.12487	-437.831797	-437.824764	-437.82382	-437.863318	27.62	
O	-0.0659243344	-0.0039154178	-0.1148616303	-0.298109
C	-0.0070792127	 1.1864490773	-0.0157415112	 0.330334
C	-1.0830293837	 2.3074425368	 0.1101445663	-0.371615
C	 0.0048828041	 3.3686690575	-0.1829480445	 0.031937
O	 0.511637646	 4.053881086	 0.9803279276	-0.290244
C	 1.5011253519	 3.0423578171	 1.1767676534	 0.05358
C	 2.853040382	 3.2542645024	 0.4363045258	-0.193717
N	 2.459258673	 2.2075900713	-0.5490369852	-0.413023
C	 1.0973480051	 2.2194642858	-0.093821526	 0.212522
H	-1.8489874636	 2.2272857547	-0.6662744081	 0.138123
H	-1.5640854109	 2.3933690524	 1.0869445096	 0.140746
H	-0.1492503115	 4.0271170174	-1.0391635081	 0.092622
H	 1.5315336711	 2.6486054145	 2.1938367246	 0.105988
H	 2.930610667	 4.2744776478	 0.0436298396	 0.115162
H	 3.7620200903	 3.003211348	 0.9917326101	 0.116976
H	 2.6285146662	 2.3905143989	-1.5318666036	 0.228719
106.8559	154.6814	267.5823	302.1287	429.0161	446.1297	495.1472	562.7837	634.1673	659.1558	775.2391	832.0547	842.074	868.825	902.6038	959.5894	986.1965	990.198	1033.4941	1041.8569	1073.4661	1089.3802	1126.6509	1141.4221	1165.2367	1184.0104	1221.2357	1283.6965	1298.2294	1324.0048	1355.0883	1385.1279	1422.0458	1506.6878	1884.2922	3031.0497	3068.9465	3083.5338	3103.3384	3107.6324	3131.2498	3535.4941
O=C1CC2OC3CNC123	O=C1C[C@H]2O[C@@H]3CN[C@]123	
InChI=1S/C6H7NO2/c8-3-1-4-6(3)5(9-4)2-7-6/h4-5,7H,1-2H2	InChI=1S/C6H7NO2/c8-3-1-4-6(3)5(9-4)2-7-6/h4-5,7H,1-2H2/t4-,5-,6-/m1/s1
