20
gdb 62808	2.21081	1.52673	1.33325	4.2304	84.46	-0.2972	0.0252	0.3224	1099.9711	0.171146	-365.982742	-365.973996	-365.973052	-366.015915	33.804	
C	-0.1362195052	 1.5358949399	 0.0392961299	-0.47185
C	-0.0204909545	 0.0089758333	-0.0038731922	 0.318079
C	-1.4331082884	-0.546888031	-0.2093419778	-0.471849
C	 1.181260817	-0.6453022852	-0.7910516481	-0.106232
C	 2.1501487656	-0.1205039164	 0.3111292713	-0.271541
C	 0.9143519736	-0.701384398	 1.0702610378	 0.205254
C	 1.0311518536	-1.9175743514	 0.09650177	-0.271526
C	 0.7032213032	-0.7402208494	 2.4954727564	 0.152224
N	 0.5126092934	-0.7579798868	 3.636575092	-0.35607
H	 0.8070648591	 2.065461222	 0.167875815	 0.121628
H	-0.5896942323	 1.8959253441	-0.8906622505	 0.122121
H	-0.7980545991	 1.8373918747	 0.858312701	 0.132669
H	-1.8568921097	-0.1395188211	-1.133754959	 0.122122
H	-1.4956510798	-1.6325985172	-0.2732737756	 0.121631
H	-2.0835996429	-0.2268492317	 0.6117286512	 0.132668
H	 1.3457694502	-0.6190817512	-1.8682458733	 0.082284
H	 3.0748220343	-0.6864575676	 0.438832267	 0.107981
H	 2.3371295255	 0.9475516683	 0.3851736578	 0.111213
H	 0.1581250856	-2.5518439871	-0.032773756	 0.111215
H	 1.9335521807	-2.5192951781	 0.2199472332	 0.10798
106.7038	117.7249	129.5618	204.1259	233.7775	352.4822	395.0018	423.4369	499.3302	528.4077	567.8504	569.3386	584.1873	692.9332	754.905	816.703	907.2589	942.352	945.4657	952.8624	968.0515	1002.0751	1015.3218	1059.2392	1075.5517	1133.5999	1151.2206	1151.2454	1196.9451	1202.9305	1228.4718	1231.5725	1259.3307	1288.0803	1408.9495	1427.0585	1476.9041	1482.8105	1506.0253	1510.4301	1525.0071	1558.4668	2344.4072	3037.7811	3044.6486	3085.3197	3089.8272	3091.5729	3098.5203	3118.2248	3140.8842	3143.5464	3172.6065	3173.2767
CC1(C)C2CC1(C2)C#N	CC1(C)[C@H]2C[C@@]1(C2)C#N	
InChI=1S/C8H11N/c1-7(2)6-3-8(7,4-6)5-9/h6H,3-4H2,1-2H3	InChI=1S/C8H11N/c1-7(2)6-3-8(7,4-6)5-9/h6H,3-4H2,1-2H3/t6-,8+
