18
gdb 69700	3.88444	1.31984	1.20862	3.9512	75.62	-0.2326	0.0273	0.2599	1069.9507	0.148195	-401.932515	-401.924797	-401.923853	-401.96444	30.573	
C	-0.0517700763	 1.5283477146	 0.022325192	-0.501382
C	 0.0291345157	 0.0287869401	 0.0183814365	 0.353554
C	-0.8514718503	-0.8628643507	 0.8449567697	-0.356394
C	 0.6380364963	-0.9450804474	 1.0383485161	-0.101058
C	 1.3333343671	-1.7445285069	-0.0943984728	-0.185914
C	 0.7087748873	-0.7809763834	-1.1332490028	-0.054839
N	 0.027696181	-1.9371862206	-1.7194370594	-0.319751
C	 0.498228679	-2.8560849804	-0.7889131532	 0.39591
O	 0.2811268613	-4.0260954069	-0.6327078753	-0.356638
H	 0.9057812603	 1.984184348	-0.2552918464	 0.11897
H	-0.8077314685	 1.8879051413	-0.6870713099	 0.120917
H	-0.3242308734	 1.9060133455	 1.0130591734	 0.122697
H	-1.3798572225	-0.3516873074	 1.6439551616	 0.113737
H	-1.4091292229	-1.6846553156	 0.4052537232	 0.124862
H	 1.1024597221	-0.7336856445	 1.99338035	 0.09438
H	 2.4083247388	-1.8852442039	-0.0086709162	 0.098717
H	 1.315785699	-0.1941842505	-1.8239863791	 0.08626
H	-0.7750171438	-2.0031023613	-2.3302236474	 0.245973
111.4829	174.6077	195.0075	285.2645	295.5586	407.3267	452.3906	470.6416	522.6323	612.0585	707.6517	739.4786	772.2094	788.7386	871.3324	890.7537	924.0203	937.8744	968.0497	978.6209	991.049	1044.1225	1080.1759	1093.3785	1110.7968	1134.2797	1149.9576	1205.8397	1236.9534	1246.6005	1262.6462	1310.2485	1351.8345	1397.1222	1421.3278	1485.1326	1495.5492	1499.1762	1886.9592	3017.806	3074.7643	3096.6192	3102.023	3120.5316	3148.0854	3188.0691	3203.0882	3590.1974
CC12CC1C1C2NC1=O	C[C@]12C[C@H]1[C@@H]1[C@H]2NC1=O	
InChI=1S/C7H9NO/c1-7-2-3(7)4-5(7)8-6(4)9/h3-5H,2H2,1H3,(H,8,9)	InChI=1S/C7H9NO/c1-7-2-3(7)4-5(7)8-6(4)9/h3-5H,2H2,1H3,(H,8,9)/t3-,4+,5+,7-/m0/s1
