15
gdb 85652	2.09369	1.76338	1.21036	4.119	66.61	-0.2898	-0.0125	0.2774	1041.6137	0.112412	-453.967952	-453.959753	-453.958809	-454.001331	29.526	
C	 0.6499953815	 1.2270369258	-0.3886753765	-0.407912
C	-0.0224686253	-0.057077337	 0.0556913877	 0.200788
O	 0.0266882288	-1.0819686412	-0.9300354088	-0.24504
C	 1.082091827	-1.9593400378	-0.598423856	-0.130095
C	 2.3014393164	-1.6941521607	-1.3873432374	 0.306541
N	 3.2422152986	-1.4745480351	-2.0203043419	-0.323585
C	 1.3073151654	-1.7182541902	 0.894795952	 0.392892
N	 1.9893553981	-2.4538818408	 1.6490037293	-0.518344
O	 0.6213311736	-0.5939912137	 1.219682017	-0.23459
H	 1.7001195862	 1.0498619657	-0.6354759351	 0.151983
H	 0.1401823923	 1.6164737212	-1.2736021398	 0.143192
H	 0.5920311343	 1.9720057331	 0.4093956576	 0.138958
H	-1.0765957997	 0.0995324286	 0.3052112785	 0.1169
H	 0.7643731596	-2.9899124434	-0.7781597492	 0.167908
H	 2.0046657031	-2.1027408646	 2.6068149123	 0.240401
71.921	87.1619	147.9607	235.1753	240.8593	343.2213	415.522	458.6935	475.5649	544.0887	653.808	685.485	756.8812	841.3864	880.7078	907.4042	912.994	979.4809	1050.7113	1071.0169	1079.7008	1139.1665	1176.1526	1252.3465	1288.865	1346.9907	1379.7676	1394.046	1416.4699	1484.0283	1486.224	1803.0358	2361.6423	3051.854	3068.5454	3086.9977	3133.9795	3137.9396	3495.2946
CC1OC(C#N)C(=N)O1	C[C@H]1O[C@@H](C#N)[C]([NH])O1	
InChI=1S/C5H6N2O2/c1-3-8-4(2-6)5(7)9-3/h3-4,7H,1H3	InChI=1S/C5H6N2O2/c1-3-8-4(2-6)5(7)9-3/h3-4,7H,1H3/t3-,4-/m0/s1
