19
gdb 52220	3.73093	0.62993	0.57753	2.7988	79.2	-0.2524	-0.0291	0.2233	1864.2096	0.156532	-423.032925	-423.023181	-423.022237	-423.069327	33.833	
O	-0.1493681633	-0.1166812431	-0.2892507661	-0.232736
C	 0.0450772598	 1.0339655679	 0.0040397356	 0.157859
C	 1.3499292528	 1.7717396196	-0.1957520536	-0.268422
C	 1.1633923354	 3.0420624704	-1.0483691057	-0.233478
C	 2.4500037712	 3.8378644841	-1.1533191327	 0.006211
C	 3.4478576898	 3.5830154068	-2.2322127348	-0.297956
C	 2.6881631461	 4.9063842488	-2.2231286349	-0.122185
C	 1.6999965938	 5.1690693081	-3.2932993122	 0.163471
O	 1.4481283482	 6.2653619919	-3.7297359773	-0.266657
H	-0.7653979904	 1.6544162273	 0.455712191	 0.073194
H	 1.7220547223	 2.0602211473	 0.7984130421	 0.120218
H	 2.0761756073	 1.0893739303	-0.6457956929	 0.127672
H	 0.8083448317	 2.7532700637	-2.0430693487	 0.117923
H	 0.3765834435	 3.6670052791	-0.6064076443	 0.116039
H	 2.8644629813	 4.1162880543	-0.1870037482	 0.102134
H	 4.5078121336	 3.6176624818	-2.0094223815	 0.131766
H	 3.1760552042	 2.874711489	-3.009947375	 0.127372
H	 3.2241743674	 5.7945650537	-1.9066834836	 0.110358
H	 1.1953194752	 4.2633165491	-3.701797327	 0.067217
47.3486	66.4463	73.6959	113.1264	148.0735	249.185	257.0583	321.2393	388.7823	440.3684	498.4238	551.5646	769.0552	800.6216	839.6638	859.7889	874.6376	925.237	976.4205	1007.8918	1046.8501	1050.4968	1076.2823	1099.8952	1138.6255	1159.4151	1191.647	1218.1829	1235.3748	1269.5661	1311.8546	1343.1206	1364.4856	1416.6865	1431.9848	1450.1534	1464.2446	1487.5425	1497.7833	1816.5551	1838.8857	2850.6229	2861.8028	3010.9056	3027.8039	3074.2776	3105.027	3128.8864	3134.4498	3177.7873	3219.8448
O=CCCC1CC1C=O	O=CCC[C@H]1C[C@H]1C=O	
InChI=1S/C7H10O2/c8-3-1-2-6-4-7(6)5-9/h3,5-7H,1-2,4H2	InChI=1S/C7H10O2/c8-3-1-2-6-4-7(6)5-9/h3,5-7H,1-2,4H2/t6-,7-/m0/s1
