20
gdb 95017	2.50182	1.86881	1.40354	0.9196	76.44	-0.2337	0.0677	0.3014	997.2914	0.173087	-403.098593	-403.09096	-403.090015	-403.130516	30.352	
C	-0.3110750877	 1.5332217129	 0.010983974	-0.41004
C	 0.0550908507	 0.0482722352	-0.0092906134	-0.010477
C	 0.978193952	-0.3808770028	-1.1802965887	-0.102599
O	 1.8305290754	-1.4310344255	-0.7160483715	-0.271325
C	 1.8278202379	-1.4823980646	 0.6977324887	 0.090218
C	 2.872110095	-0.6678612527	 1.4771012734	-0.045506
C	 2.8667663002	 0.7512152031	 1.0911361373	-0.247656
N	 1.8056568711	 0.2954760433	 2.0099074339	-0.155424
C	 0.7719901415	-0.5033522295	 1.233120822	-0.016097
H	 0.5690834944	 2.1689888256	 0.139273191	 0.129499
H	-0.8037369835	 1.8248449387	-0.9225955769	 0.117071
H	-0.9994594506	 1.7538681304	 0.8322741115	 0.125402
H	-0.8734621075	-0.5293084956	-0.0951721078	 0.08604
H	 0.4084837584	-0.7665382367	-2.0332613503	 0.102858
H	 1.5774088995	 0.4647519334	-1.5473116662	 0.098356
H	 1.7605823975	-2.5264810216	 1.0127014377	 0.084761
H	 3.6221104542	-1.0920910686	 2.1367817128	 0.093215
H	 3.5799741716	 1.3967869195	 1.595588943	 0.123564
H	 2.6458487863	 1.051200096	 0.0746282221	 0.120465
H	 0.0735856436	-0.9123158205	 1.9641404575	 0.087675
129.8234	151.1079	191.7413	220.3881	327.3902	370.5566	484.2266	549.5469	606.4227	667.3985	725.5824	756.4638	808.0354	846.482	894.5021	928.7517	940.4756	965.8242	971.6649	1008.1503	1012.3749	1055.9281	1068.1885	1103.3004	1131.1508	1142.6745	1147.3243	1182.2101	1217.9831	1230.2801	1245.9955	1263.1697	1320.6152	1334.4756	1348.9321	1357.8756	1371.6866	1398.0427	1415.7595	1496.5793	1498.9875	1504.3801	1544.0758	2997.3077	3022.2092	3039.1019	3055.1864	3078.9882	3102.8483	3103.4358	3116.5052	3134.2895	3165.0302	3225.0186
CC1COC2C3CN3C12	C[C@H]1CO[C@H]2[C@H]3CN3[C@@H]12	
InChI=1S/C7H11NO/c1-4-3-9-7-5-2-8(5)6(4)7/h4-7H,2-3H2,1H3	InChI=1S/C7H11NO/c1-4-3-9-7-5-2-8(5)6(4)7/h4-7H,2-3H2,1H3/t4-,5+,6-,7-,8?/m0/s1
