20
gdb 7839	3.6167	1.13378	1.03	1.8851	71.67	-0.2492	0.0749	0.3241	1228.8145	0.175181	-386.122218	-386.11284	-386.111896	-386.156541	34.668	
C	-0.2242515171	 1.5488761807	 0.0633092537	-0.404256
C	-0.2904097149	 0.0289331383	-0.0813564637	 0.14451
O	 0.9980821176	-0.5614618128	 0.1030468879	-0.433724
C	-1.3338994811	-0.5999196024	 0.8540903804	-0.221089
C	-1.447720014	-2.0980861203	 0.6745884012	-0.005367
C	-2.6774611421	-2.8407452157	 1.1610284992	-0.352362
C	-2.4199649128	-2.6706879782	-0.3164216558	 0.109156
O	-3.1870378365	-1.7561367265	-1.049618775	-0.42104
H	 0.5443418636	 1.9606067721	-0.5964797129	 0.121094
H	-1.1838563966	 2.0127004283	-0.1865774918	 0.117705
H	 0.0232331087	 1.8310741189	 1.0950147963	 0.10141
H	-0.5580963475	-0.223850513	-1.1136661601	 0.103195
H	 1.3018457745	-0.3183508844	 0.9850620199	 0.2726
H	-1.0615238789	-0.3684943283	 1.895044387	 0.077044
H	-2.3055124788	-0.1321737726	 0.6676828791	 0.106758
H	-0.5004328764	-2.6217139505	 0.7524396508	 0.096024
H	-2.5652806972	-3.8231319261	 1.6075510795	 0.107912
H	-3.4759549978	-2.2379566859	 1.5831063802	 0.108802
H	-2.1053019325	-3.5486501966	-0.8802380647	 0.084165
H	-4.0721632303	-2.1216174052	-1.1467386113	 0.287464
48.7895	79.9181	149.4297	232.0691	253.4577	293.4833	300.6051	317.9503	342.5942	431.1289	465.785	483.871	584.9128	777.612	820.5359	828.4605	861.9824	906.9857	943.3966	1003.2328	1014.2843	1040.1622	1071.9026	1081.551	1135.3942	1151.2874	1159.361	1174.6822	1232.4911	1235.5291	1292.6231	1307.2491	1331.4405	1372.8854	1399.8099	1404.0959	1424.0114	1427.9656	1470.0432	1490.4969	1492.508	1495.8285	2994.1601	3020.9927	3053.2463	3082.274	3094.9172	3098.7768	3117.6962	3124.0095	3164.4901	3212.2256	3791.9634	3809.1954
CC(O)CC1CC1O	C[C@@H](O)C[C@H]1C[C@H]1O	
InChI=1S/C6H12O2/c1-4(7)2-5-3-6(5)8/h4-8H,2-3H2,1H3	InChI=1S/C6H12O2/c1-4(7)2-5-3-6(5)8/h4-8H,2-3H2,1H3/t4-,5+,6-/m1/s1
