15
gdb 131307	4.98083	1.31242	1.18668	2.4044	71.87	-0.2195	-0.0023	0.2172	1015.6059	0.115043	-416.759291	-416.75279	-416.751846	-416.79001	26.333	
O	 0.0941385213	 1.2842919439	 0.103877542	-0.420095
C	 0.1410578014	-0.0597957351	 0.0468654891	 0.434827
N	 0.0217537751	-0.710895713	-1.1066010096	-0.381138
N	-0.062021429	-2.0120775309	-0.6893934373	 0.02978
C	 0.5981883986	-3.2781767671	-1.0488977123	 0.000254
C	 1.9785428186	-3.3643881811	-0.4562544487	-0.268235
C	 0.7622421775	-3.5420262094	 0.4471901535	-0.190539
C	 0.1829973001	-2.158630157	 0.6490009935	 0.270833
C	 0.2992269676	-0.9024286864	 1.1939657054	-0.398801
H	-0.0247228892	 1.5994387366	-0.801484469	 0.3054
H	 0.2122555122	-3.9110988455	-1.8366459111	 0.121902
H	 2.535977497	-4.2683708387	-0.6895358257	 0.124892
H	 2.5814222785	-2.4665533648	-0.3670306376	 0.141464
H	 0.5523626617	-4.4489419054	 0.9956573099	 0.115249
H	 0.4604189585	-0.5884598761	 2.2109534578	 0.114208
131.0628	268.0802	320.2596	349.5456	440.1691	529.5556	533.9271	622.4345	690.8568	725.1003	776.7151	785.0365	790.9015	854.8772	881.5772	946.3235	974.5772	999.2595	1018.2326	1048.1465	1086.9854	1102.894	1147.4559	1176.3093	1214.9879	1244.5214	1270.2757	1294.0292	1385.4745	1452.0087	1475.8517	1529.7888	1598.431	3119.2437	3207.1436	3210.9843	3224.0487	3282.635	3788.1699
OC1=NN2C3CC3C2=C1	OC1=NN2[C@H]3C[C@H]3[C]2[CH]1	
InChI=1S/C6H6N2O/c9-6-2-5-3-1-4(3)8(5)7-6/h2-4H,1H2,(H,7,9)	InChI=1S/C6H6N2O/c9-6-2-5-3-1-4(3)8(5)7-6/h2-4H,1H2,(H,7,9)/t3-,4+/m1/s1
