15
gdb 15301	2.97428	1.68192	1.17607	3.226	69.61	-0.2473	0.0174	0.2647	1001.7394	0.117005	-362.603821	-362.595709	-362.594765	-362.636777	29.256	
N	-0.2878527569	 1.1712195555	-0.0377741383	-0.437042
C	-0.4679790904	-0.0445563059	-0.3145166903	 0.135092
O	-0.9714927353	-0.8758877931	 0.6325723796	-0.185008
C	-0.996337757	-2.2342030122	 0.3090443669	 0.112734
C	-2.1236013238	-3.0174477208	 0.8806061214	-0.315481
C	-2.078679657	-2.772882851	-0.6266407094	-0.233779
C	-3.0130017461	-1.8828237165	-1.2451869608	 0.324718
C	-3.7850335602	-1.1340792288	-1.7836123203	-0.444981
H	 0.0781057734	 1.6607207636	-0.8518185755	 0.231007
H	-0.2655535058	-0.5454751196	-1.2687331162	 0.096603
H	-0.0138595666	-2.6959856763	 0.2420551052	 0.112442
H	-1.9358131458	-4.0220742713	 1.2400883349	 0.128521
H	-2.8616494487	-2.4503477774	 1.4345290397	 0.152144
H	-1.7756867043	-3.6197410702	-1.2361547516	 0.121034
H	-4.4732135655	-0.471740086	-2.2473924654	 0.201997
67.1298	121.4996	144.3171	175.9833	234.7521	352.8975	423.6264	527.1147	558.509	598.6636	656.0201	684.3303	775.0851	790.2862	825.3809	862.3219	978.4366	1030.7637	1044.7366	1070.7965	1076.9042	1124.5631	1127.0357	1178.3835	1244.6797	1285.7948	1371.1586	1393.9576	1420.161	1476.4465	1749.3317	2239.5104	3051.1068	3129.6611	3145.9065	3151.5773	3247.5771	3504.4275	3518.47
N=COC1CC1C#C	[NH][CH]O[C@H]1C[C@H]1C#C	
InChI=1S/C6H7NO/c1-2-5-3-6(5)8-4-7/h1,4-7H,3H2	InChI=1S/C6H7NO/c1-2-5-3-6(5)8-4-7/h1,4-7H,3H2/t5-,6+/m1/s1
