20
gdb 101147	3.6522	0.99004	0.83601	3.0184	77.09	-0.2538	0.02	0.2738	1428.9901	0.170941	-440.309475	-440.299919	-440.298975	-440.344762	34.009	
C	-0.0926332444	 1.6422150069	-0.30517476	-0.388237
C	-0.2840482583	 0.1339660953	-0.4702519357	-0.175981
C	 0.9895023744	-0.552040585	-0.9992662897	 0.053045
O	 2.0820980852	-0.3347778637	-0.1345195945	-0.44094
C	 0.7732210251	-2.0282606142	-1.1854811799	 0.401663
N	 1.4121661719	-2.9211061618	-0.5463612141	-0.33991
C	 0.9025235163	-4.2196447109	-1.009856671	-0.187895
C	-0.1865231039	-3.8536430451	-2.0540446477	-0.114462
O	-0.16666365	-2.4045837322	-2.083891108	-0.257127
H	 0.7446320003	 1.8487546325	 0.3659442238	 0.140068
H	 0.1198267562	 2.1211825587	-1.2677167028	 0.11204
H	-0.9917085317	 2.1080317597	 0.1089719269	 0.109197
H	-0.5385235245	-0.3221907117	 0.4942295989	 0.100296
H	-1.1083268874	-0.0798169842	-1.1597343404	 0.106916
H	 1.2223212182	-0.1253962568	-1.9889294882	 0.093522
H	 2.3475211974	-1.2078239253	 0.1904952615	 0.293898
H	 1.716885677	-4.8097304025	-1.4426703019	 0.122304
H	 0.4995061957	-4.7892641604	-0.16634317	 0.121826
H	 0.0303836907	-4.2167421477	-3.0618792529	 0.125127
H	-1.1921289083	-4.1741782818	-1.7693360842	 0.12465
53.3516	83.0811	97.7936	128.0472	211.1346	247.5801	268.2061	326.8468	339.5138	417.1601	511.1393	648.9641	754.5043	770.267	807.8976	832.274	893.9267	932.1315	985.8408	992.076	1008.5321	1046.7002	1076.9697	1117.2202	1130.2064	1151.8775	1214.0797	1233.251	1245.9507	1285.1017	1294.8472	1340.9238	1345.4525	1373.0133	1387.6777	1407.3712	1464.2739	1481.2147	1495.9693	1505.3873	1509.773	1526.5304	1734.352	2973.1858	3032.8056	3036.7936	3044.8952	3061.4208	3074.1576	3077.1994	3102.5544	3110.7156	3128.1013	3714.2634
CCC(O)C1=NCCO1	CC[C@@H](O)C1=NCCO1	
InChI=1S/C6H11NO2/c1-2-5(8)6-7-3-4-9-6/h5,8H,2-4H2,1H3	InChI=1S/C6H11NO2/c1-2-5(8)6-7-3-4-9-6/h5,8H,2-4H2,1H3/t5-/m1/s1
