19
gdb 113885	3.70802	0.80999	0.7081	2.6975	73.65	-0.2639	0.0141	0.278	1593.5236	0.156316	-460.174889	-460.164623	-460.163679	-460.212278	35.326	
C	-0.008898706	 1.435343511	-0.1229342875	-0.480889
C	-0.097211668	-0.0611740136	 0.0533750899	 0.431334
O	-0.522805097	-0.6329577977	 1.0223608396	-0.34442
O	 0.3874153201	-0.692641184	-1.0454419183	-0.247509
C	 0.3502508225	-2.1099666389	-1.0216443391	 0.118249
C	-0.6452778548	-2.8049992501	-1.9010293635	-0.305338
C	 0.8299955957	-2.806393386	-2.257736521	-0.04378
C	 1.3090797685	-2.0281448361	-3.4552388748	-0.093611
O	 1.0953742585	-2.8320000843	-4.6085691448	-0.419869
H	-0.3728027153	 1.9278328937	 0.7777832851	 0.149542
H	 1.0248947898	 1.7315350968	-0.3210999853	 0.149596
H	-0.6070917791	 1.7459702376	-0.9844780335	 0.149165
H	 0.576972916	-2.5190329042	-0.0453019279	 0.12476
H	-1.1102986284	-3.7153217605	-1.5406769745	 0.122235
H	-1.2860640388	-2.1730656326	-2.5065209428	 0.123942
H	 1.3703384329	-3.7344941519	-2.0947497795	 0.099249
H	 0.7657375539	-1.0750002942	-3.520915088	 0.093512
H	 2.3772420762	-1.7869618238	-3.3338501708	 0.088397
H	 1.4614781532	-2.3660257414	-5.3661566133	 0.285436
22.6998	64.0326	79.7445	101.4998	112.8252	218.1219	253.5272	277.0348	331.6303	423.4116	465.6066	567.6177	607.3202	631.5392	789.6137	829.7557	875.8417	907.9561	950.2502	1010.1721	1026.9995	1049.6552	1062.2854	1070.3268	1074.1823	1128.031	1162.5733	1172.7499	1235.0032	1256.0659	1259.8842	1280.3948	1366.5143	1393.3065	1415.1833	1467.7614	1469.6499	1476.3772	1489.9738	1523.5068	1832.3655	2973.5684	3018.6407	3057.2673	3122.0231	3138.0576	3152.0484	3170.0876	3194.9118	3228.12	3826.8722
CC(=O)OC1CC1CO	CC(=O)O[C@H]1C[C@H]1CO	
InChI=1S/C6H10O3/c1-4(8)9-6-2-5(6)3-7/h5-7H,2-3H2,1H3	InChI=1S/C6H10O3/c1-4(8)9-6-2-5(6)3-7/h5-7H,2-3H2,1H3/t5-,6-/m0/s1
