14
gdb 25863	4.19056	1.1325	0.89155	0.7494	69.53	-0.2092	-0.0275	0.1817	1204.1936	0.101568	-470.065923	-470.057525	-470.056581	-470.099346	30.336	
N	-0.1611546603	 1.3218936248	-0.0018251275	-0.544387
C	 0.0310565024	-0.0270436789	-0.0053401432	 0.314425
O	 1.1273538914	-0.5623653444	-0.0163780669	-0.373674
C	-1.2038324527	-0.8214762659	 0.0042303229	 0.249096
C	-1.3748450528	-2.1535357925	 0.0019617692	-0.148916
N	-2.7335193356	-2.3882012985	 0.0147250813	-0.326946
C	-3.4266913277	-1.1891024635	 0.0245736784	 0.460496
N	-4.6828500086	-1.0498669292	 0.0373934867	-0.597866
O	-2.4566042283	-0.2043292367	 0.0176679162	-0.266434
H	 0.647700186	 1.9193721627	-0.0019629365	 0.266326
H	-1.0823052207	 1.7235780883	 0.0143966206	 0.271769
H	-0.6348451833	-2.9344457081	-0.0072782269	 0.182012
H	-3.2013440759	-3.2768126284	 0.0178062373	 0.285016
H	-4.9452431739	-0.0684843099	 0.0424354485	 0.229083
83.0527	115.963	133.3381	159.7096	235.504	383.2665	412.3136	413.2717	539.269	550.821	608.0415	653.0097	714.6933	742.2941	760.1559	763.0537	842.0244	940.1496	952.6817	1033.6742	1073.9957	1095.847	1185.9309	1218.5697	1352.1745	1402.713	1428.3232	1609.0662	1691.2246	1774.6595	1797.196	3302.1362	3550.3861	3611.6454	3701.9161	3750.9284
NC(=O)C1=CNC(=N)O1	NC(=O)C1=CN[C@@H]([NH])O1	
InChI=1S/C4H5N3O2/c5-3(8)2-1-7-4(6)9-2/h1H,(H2,5,8)(H2,6,7)	InChI=1S/C4H6N3O2/c5-3(8)2-1-7-4(6)9-2/h1,4,6-7H,(H2,5,8)/t4-/m1/s1
