17
gdb 38386	4.54347	1.28358	1.25285	2.9742	72.38	-0.2226	0.0564	0.279	1038.5562	0.135859	-421.718778	-421.711799	-421.710855	-421.750151	27.871	
C	 0.0621743398	 1.4464276015	 0.2124735974	-0.301972
C	 1.3101264954	 0.6395903033	 0.0528710804	 0.102966
O	 1.6758269064	 0.0017334267	 1.2850000132	-0.319094
C	 0.451453558	-0.7502376684	 1.2423356672	 0.495833
C	-0.0318102199	-0.0551489005	-0.0055342251	-0.235992
C	 0.3541330559	-2.2225069482	 1.4847212614	-0.256249
C	 1.1728315051	-2.5636702192	 2.7260586084	-0.085984
O	 0.5128986106	-1.53566086	 3.5131306553	-0.282712
C	-0.3339356627	-1.201993075	 2.4171794034	-0.011176
H	-0.1747711302	 1.8798711726	 1.1795050817	 0.124524
H	-0.2223016054	 2.0428379515	-0.649147679	 0.116638
H	 2.08766391	 0.7960606143	-0.6845234658	 0.109233
H	-0.5569387689	-0.5152015559	-0.8311318188	 0.106105
H	-0.0355113951	-2.9264135806	 0.7597103129	 0.10018
H	 0.9551255946	-3.5546754006	 3.1377204045	 0.110371
H	 2.254600378	-2.4072870632	 2.6613470482	 0.122491
H	-1.3700246414	-0.9577816384	 2.6299013645	 0.104838
130.6118	156.6356	193.9388	328.3163	411.2728	482.6927	537.6794	603.3973	756.2303	767.555	789.2316	824.8531	882.938	914.0484	935.495	957.2958	967.8952	974.1996	1002.2968	1021.5368	1044.6904	1045.6828	1053.9195	1076.0692	1087.5423	1105.9263	1146.0261	1163.293	1191.1092	1230.5309	1242.4776	1287.159	1336.0159	1345.4543	1454.5165	1471.9755	1509.8451	3036.3444	3089.4034	3119.9705	3160.179	3187.0721	3189.9216	3206.0673	3215.8608
C1C2OC3(C12)C1COC31	C1[C@H]2O[C@@]3([C@@H]12)[C@H]1CO[C@@H]31	
InChI=1S/C7H8O2/c1-3-5(1)9-7(3)4-2-8-6(4)7/h3-6H,1-2H2	InChI=1S/C7H8O2/c1-3-5(1)9-7(3)4-2-8-6(4)7/h3-6H,1-2H2/t3-,4-,5+,6+,7-/m0/s1
