25
gdb 100942	2.42609	0.91203	0.70274	0.1472	85.92	-0.2559	0.0741	0.3301	1698.4574	0.226149	-426.626116	-426.614162	-426.613218	-426.663769	42.877	
C	-0.3416372439	 1.2124992756	 1.0291188102	-0.379512
C	-0.4300376222	-0.2382761982	 0.5463890703	-0.198242
C	 0.6115814384	-0.5744462997	-0.5308164093	 0.116719
O	 1.9228275634	-0.2234292985	-0.077405611	-0.428933
C	 0.5800440244	-2.044119614	-1.0220156116	 0.021036
C	-0.8230048779	-2.4830537444	-1.4867505885	-0.190798
C	-0.934536388	-3.9336585874	-1.9724658433	-0.376817
C	 1.6495791263	-2.2366402729	-2.1073609439	-0.101155
O	 2.0426417679	-3.606865905	-2.1351602297	-0.42329
H	 0.6549859246	 1.4365501434	 1.416172856	 0.125488
H	-0.5403172224	 1.9103325036	 0.2079178403	 0.113098
H	-1.074203431	 1.4087112397	 1.8178586282	 0.107128
H	-0.2933828594	-0.9261547453	 1.3944943794	 0.084359
H	-1.4346849125	-0.4291825493	 0.1570267671	 0.104865
H	 0.4445149222	 0.0872298266	-1.3930802935	 0.083302
H	 2.1292093696	-0.7938122724	 0.6723265502	 0.276195
H	 0.8822690136	-2.6785920276	-0.1736862789	 0.068075
H	-1.5324518689	-2.3458542877	-0.6644188811	 0.097157
H	-1.1527571414	-1.8044495778	-2.2870253425	 0.089817
H	-0.2916049708	-4.1294733103	-2.8321839821	 0.126705
H	-0.6379059177	-4.6351646071	-1.1858355798	 0.115166
H	-1.9688288915	-4.1591361482	-2.2527013027	 0.098977
H	 1.2404249664	-1.9231828381	-3.0828322793	 0.077865
H	 2.5074325716	-1.5936228238	-1.879237876	 0.108765
H	 2.745194879	-3.6984810612	-2.7854287486	 0.284029
52.6199	71.2365	77.918	112.3122	171.2457	194.2902	228.9678	246.2658	252.4859	302.6909	309.3467	340.427	341.2328	395.8216	426.9454	504.0772	584.7828	780.1903	785.3102	847.8717	877.9506	973.1404	977.4489	984.0171	1023.9063	1043.0291	1061.2503	1083.8484	1105.5658	1133.599	1142.8312	1167.6802	1217.5674	1257.4484	1265.1059	1278.1684	1315.3175	1334.3765	1351.9361	1355.8731	1384.4297	1393.3904	1405.5049	1417.555	1418.9095	1457.1486	1482.2002	1484.8394	1494.9655	1496.7623	1504.065	1508.7862	1527.4017	2956.7033	2984.3014	2997.8966	3005.9348	3018.8227	3037.6258	3038.7581	3050.9524	3063.6807	3081.6765	3099.6918	3100.6945	3127.538	3135.8249	3788.5754	3827.3456
CCC(O)C(CC)CO	CC[C@@H](O)[C@@H](CC)CO	
InChI=1S/C7H16O2/c1-3-6(5-8)7(9)4-2/h6-9H,3-5H2,1-2H3	InChI=1S/C7H16O2/c1-3-6(5-8)7(9)4-2/h6-9H,3-5H2,1-2H3/t6-,7+/m0/s1
