16
gdb 42995	2.27529	1.68499	1.31102	5.0332	72.74	-0.2606	-0.0377	0.2228	1010.0133	0.125899	-400.781827	-400.774307	-400.773363	-400.814099	28.56	
O	-0.0780841028	 0.3731627874	-1.1110342296	-0.309924
C	-0.06947744	 1.3237523396	-0.3791962729	 0.418633
C	-1.2319648445	 2.0222917898	 0.2241157693	-0.142702
C	-1.1185822351	 2.3366893891	 1.7166765851	-0.298927
C	-0.753697502	 3.3809017841	 0.7199352612	-0.033624
C	 0.7283450091	 3.5415435795	 0.385375573	-0.248032
C	 1.2339984755	 2.1207126404	 0.0070740188	-0.270526
C	 1.9576467954	 1.4460744042	 1.0776147872	 0.284912
N	 2.5171217978	 0.9205638219	 1.9429071972	-0.332103
H	-2.2090230024	 1.8437628788	-0.2049114229	 0.117872
H	-2.0672039966	 2.4386469167	 2.2309365082	 0.136138
H	-0.3449458974	 1.848903881	 2.29948161	 0.157456
H	-1.3947209177	 4.2473443718	 0.6085234231	 0.107327
H	 0.8413101095	 4.1963561255	-0.4832739237	 0.124429
H	 1.2987628696	 3.9793112384	 1.2081970512	 0.134513
H	 1.8748867616	 2.1340514318	-0.8779804153	 0.15456
80.8033	142.8825	176.2519	265.8259	358.3418	409.4192	480.9367	521.3179	566.6575	669.5588	691.1692	789.2495	808.4531	845.7437	864.3208	932.2273	950.2607	964.8103	1033.4988	1068.076	1078.4281	1102.0643	1108.8142	1166.3723	1186.1713	1201.6701	1228.1323	1305.9357	1321.9912	1341.1573	1383.7836	1491.3306	1500.9715	1851.0716	2349.3911	3062.281	3088.6593	3109.4999	3142.7243	3183.2669	3208.785	3230.8416
O=C1C2CC2CC1C#N	O=C1[C@H]2C[C@H]2C[C@H]1C#N	
InChI=1S/C7H7NO/c8-3-5-1-4-2-6(4)7(5)9/h4-6H,1-2H2	InChI=1S/C7H7NO/c8-3-5-1-4-2-6(4)7(5)9/h4-6H,1-2H2/t4-,5+,6+/m1/s1
