17
gdb 75992	2.05273	1.68434	1.10258	3.7056	77.04	-0.2326	0.0165	0.2492	1125.8546	0.133783	-417.955322	-417.945656	-417.944712	-417.990169	34.397	
C	-0.1387068825	 1.3102242962	 0.5581849187	-0.347319
N	-0.0274376088	-0.1090835671	 0.3363977684	-0.04894
C	-1.0992590811	-1.0573750777	-0.0135172082	-0.265835
C	-1.9428513208	-0.6424755643	-1.122965316	 0.353341
C	-2.6039430363	-0.2897538626	-2.0641747516	-0.4556
C	 0.0707995027	-2.0577075512	-0.4354944639	 0.07771
O	 0.0109056797	-2.7139441359	-1.6522232712	-0.405783
C	 0.9905768073	-0.8397143802	-0.2659277295	 0.301007
N	 2.1907543457	-0.6383027946	-0.6091474809	-0.555723
H	 0.8638520161	 1.723404464	 0.6996618287	 0.137874
H	-0.6140537844	 1.8245492333	-0.2882055156	 0.134198
H	-0.7204361237	 1.5154734218	 1.4629426462	 0.134807
H	-1.7059470093	-1.3715163086	 0.8432053958	 0.104465
H	-3.2069473791	 0.016894738	-2.8834102247	 0.207875
H	 0.2268677726	-2.8172896537	 0.3336078678	 0.12473
H	-0.0251217652	-2.0549656875	-2.3554196375	 0.292688
H	 2.494912587	 0.3166530301	-0.4100618265	 0.210506
66.913	102.5549	109.8549	128.8491	175.1289	238.5832	273.5309	324.4619	358.9016	458.0016	527.0637	592.7183	640.3667	655.3742	663.3302	760.3185	802.2397	821.2878	835.8244	949.0791	982.2859	1040.6992	1141.3549	1146.4297	1158.6099	1212.7013	1247.4536	1263.4645	1310.1134	1354.1415	1390.0788	1441.8118	1451.5786	1478.1785	1514.3594	1787.2049	2226.7869	3008.3971	3041.5752	3074.7999	3099.1773	3114.263	3455.6269	3499.4596	3799.0684
CN1C(C#C)C(O)C1=N	CN1[C@@H](C#C)[C@@H](O)[C]1[NH]	
InChI=1S/C6H8N2O/c1-3-4-5(9)6(7)8(4)2/h1,4-5,7,9H,2H3	InChI=1S/C6H8N2O/c1-3-4-5(9)6(7)8(4)2/h1,4-5,7,9H,2H3/t4-,5+/m0/s1
