17
gdb 39551	2.73956	2.22408	1.72527	2.0313	75.26	-0.233	-0.0086	0.2243	841.7891	0.140249	-380.865148	-380.859001	-380.858057	-380.895286	25.871	
C	-0.0083259819	 1.5481843389	-0.1048245831	-0.260318
C	 1.3673719606	 2.143521135	 0.0764165224	-0.051015
C	 2.3379391654	 1.5372847551	 0.7653699173	-0.064532
C	 2.1076822533	 0.2646113792	 1.4915759226	-0.053972
C	 0.8140997971	-0.4274267214	 1.304855739	-0.074651
C	 0.0361158592	 0.0191801307	 0.0543305314	-0.020961
N	 0.8147578962	-0.5312947647	-1.0836990089	-0.201981
C	 1.8725407872	-1.0403631991	-0.5979646982	 0.045578
N	 2.0368110068	-1.1023445907	 0.8154251731	-0.159739
H	-0.7159131352	 1.9939026066	 0.6092475679	 0.111063
H	-0.3857786798	 1.7821976268	-1.1049162532	 0.126158
H	 1.5576389967	 3.1099224927	-0.3827415329	 0.098668
H	 3.3187163182	 1.993991223	 0.8584566409	 0.092224
H	 2.6114670316	 0.1773987093	 2.4500899272	 0.106099
H	 0.2972531066	-0.8958754996	 2.1360186657	 0.096553
H	-0.9770595373	-0.3934684672	 0.0374849775	 0.086296
H	 2.6565232652	-1.4706183748	-1.2145434687	 0.12453
199.6668	245.6547	352.8305	431.834	496.5171	551.0589	608.7455	688.8732	722.5224	765.3458	797.4415	833.6368	857.4581	901.36	925.9378	953.971	980.4677	984.5057	999.9287	1018.9798	1027.3968	1070.8803	1079.7321	1122.9595	1180.8095	1213.8174	1260.6206	1288.2876	1308.4176	1321.0846	1337.0693	1373.5156	1413.6949	1419.4859	1464.7051	1678.2029	1702.2042	3008.7331	3061.8961	3079.9151	3145.4152	3157.8614	3161.311	3180.6407	3186.7929
C1C=CC2C3C1N=CN23	C1C=C[C@H]2[C@H]3[C@@H]1N=CN23	
InChI=1S/C7H8N2/c1-2-5-7-6(3-1)9(7)4-8-5/h1,3-7H,2H2	InChI=1S/C7H8N2/c1-2-5-7-6(3-1)9(7)4-8-5/h1,3-7H,2H2/t5-,6+,7-,9?/m1/s1
