20
gdb 16421	3.23682	2.14605	1.78316	1.3359	73.99	-0.2403	0.0819	0.3221	849.0186	0.179296	-348.998665	-348.991496	-348.990551	-349.029937	28.61	
C	-0.3165854157	 1.5477031706	 0.0570879864	-0.402971
C	 0.0752716291	 0.0711658623	-0.0033538603	 0.153057
O	 0.8210681376	-0.206351137	-1.195839545	-0.287177
C	 2.2265838045	-0.4010627591	-1.0778602326	-0.064702
C	 2.6388440729	-0.8885122893	 0.3112853439	-0.025297
C	 1.5029822981	-1.7824424715	 0.8851513916	-0.232435
C	 0.8060393296	-0.4391797327	 1.2452752758	-0.026662
C	 2.2256323201	 0.1835860692	 1.3511850049	-0.228196
H	 0.5566925976	 2.1970154203	 0.1689537659	 0.116747
H	-0.8330585962	 1.8314833699	-0.8638419371	 0.123017
H	-0.9903096059	 1.7331056337	 0.9010797427	 0.108446
H	-0.8460598327	-0.5201617252	-0.1107127799	 0.076407
H	 2.4904291267	-1.1422273615	-1.8426184379	 0.099909
H	 2.7675277636	 0.5293344849	-1.3183330532	 0.085283
H	 3.66794102	-1.2566060388	 0.3062073273	 0.061733
H	 0.9843193751	-2.4576003876	 0.199187766	 0.101112
H	 1.8245004512	-2.3287616176	 1.7751020758	 0.094054
H	 0.1474882644	-0.3960029738	 2.1165082283	 0.061713
H	 2.6710155506	 0.0021179756	 2.3328297786	 0.094491
H	 2.3640321596	 1.2349292476	 1.0827900687	 0.091471
72.0576	220.0226	231.2679	329.3504	378.6409	407.6215	451.0092	545.1344	620.9652	759.407	817.0376	830.2895	876.5686	888.1507	902.5057	939.9162	950.4568	1002.1406	1009.7287	1044.5213	1064.1263	1101.9037	1119.423	1121.515	1135.2	1159.8944	1200.129	1239.9254	1248.7789	1269.7567	1296.9501	1341.0356	1345.5764	1362.9059	1384.7504	1402.8637	1413.7908	1474.9927	1488.1373	1492.8813	1508.5372	1518.7147	2963.7673	2992.0148	3036.202	3038.0125	3049.6088	3055.8434	3074.7295	3078.783	3101.9969	3107.8192	3115.0917	3119.6117
CC1OCC2CC1C2	C[C@H]1OC[C@@H]2C[C@H]1C2	
InChI=1S/C7H12O/c1-5-7-2-6(3-7)4-8-5/h5-7H,2-4H2,1H3	InChI=1S/C7H12O/c1-5-7-2-6(3-7)4-8-5/h5-7H,2-4H2,1H3/t5-,6-,7+/m1/s1
