18
gdb 71654	3.12866	1.92523	1.65436	2.2862	73.27	-0.208	0.0732	0.2812	869.8807	0.14991	-401.886737	-401.880196	-401.879252	-401.917134	27.94	
O	-0.0259395744	 1.4307842332	 0.0885896915	-0.494837
C	 0.0347058994	 0.0336387914	-0.0077356177	 0.376667
C	 0.3216432099	-0.6427593788	-1.3741985429	-0.228689
N	-0.785229101	-1.6231691498	-1.113521592	-0.135204
C	-0.478117541	-2.6189189485	-0.0559608886	-0.038656
C	 0.1847496315	-2.0332863508	 1.1871966904	-0.056953
C	 0.8580490232	-0.6760606364	 1.081235218	-0.304742
C	-1.3029194262	-1.8910180208	 0.9873537548	-0.108428
C	-1.3411741082	-0.7313328327	-0.0219266978	-0.033407
H	 0.8708035736	 1.7724984863	 0.1711830154	 0.277809
H	 0.0512541785	-0.0103657342	-2.2254057648	 0.10638
H	 1.3140127096	-1.0778038535	-1.5330030865	 0.093501
H	-0.4169114589	-3.6748466395	-0.2948614745	 0.091241
H	 0.5376210082	-2.7586653108	 1.9129301274	 0.087549
H	 1.9206216752	-0.7285176229	 0.8158713671	 0.093099
H	 0.7635056596	-0.1341359597	 2.0308772298	 0.101068
H	-2.0828382004	-2.2392173114	 1.6498329951	 0.092866
H	-2.2497159586	-0.1704821712	-0.2389940848	 0.080736
202.3651	254.6341	294.3569	396.5275	423.0688	486.1935	577.859	623.5479	716.3655	724.7343	774.7919	790.6941	849.5681	877.6193	915.1451	925.0732	933.205	960.0535	975.3497	1001.6015	1009.1564	1045.1661	1072.6373	1089.9209	1104.7573	1148.5905	1159.0414	1174.215	1209.135	1235.0795	1239.4922	1271.7015	1273.9282	1301.4113	1318.3751	1374.4759	1398.4473	1485.9698	1498.5486	3018.8682	3036.1024	3064.4799	3095.8323	3118.8211	3165.2194	3173.7801	3211.8483	3804.9665
OC12CN3C4C(C1)C4C23	O[C@@]12CN3[C@H]4[C@@H](C1)[C@H]4[C@@H]23	
InChI=1S/C7H9NO/c9-7-1-3-4-5(3)8(2-7)6(4)7/h3-6,9H,1-2H2	InChI=1S/C7H9NO/c9-7-1-3-4-5(3)8(2-7)6(4)7/h3-6,9H,1-2H2/t3-,4+,5-,6-,7+/m0/s1
