16
gdb 19925	4.38479	2.15127	1.75131	1.5937	69.85	-0.2361	0.0003	0.2364	768.2991	0.132498	-346.560437	-346.554502	-346.553558	-346.590209	24.3	
C	 0.0326041283	 1.5562872683	 0.050418663	-0.241391
C	 1.5965698114	 1.3636313304	 0.051904904	-0.304967
C	 1.2771494222	-0.0478180114	 0.4852663268	 0.251785
C	 1.426140674	-0.85673795	 1.5389100537	-0.230571
C	 0.1052575231	-1.503266599	 1.8222933528	 0.012972
O	-0.8674356393	-0.5219953064	 2.277947546	-0.255867
C	-0.9013969292	-0.9015664493	 0.9069078016	 0.007648
C	-0.1362146174	-0.0050364176	-0.049485835	-0.070104
H	-0.3227145547	 1.9209196787	 1.0151025106	 0.132072
H	-0.3889201445	 2.1492788203	-0.7635191331	 0.104642
H	 1.999290771	 1.4313633229	-0.9639691405	 0.112274
H	 2.1967570484	 1.9825970291	 0.7216704801	 0.113999
H	 2.2632645456	-0.8913633289	 2.2254341414	 0.09951
H	-0.0057314805	-2.4832840964	 2.2765895606	 0.096775
H	-1.7949693015	-1.4348885789	 0.5934761179	 0.090976
H	-0.2525144369	-0.3276589916	-1.0893253198	 0.080248
192.3747	208.1175	352.1927	458.318	521.1817	674.8338	686.5147	706.5309	784.5375	812.0528	825.3221	855.6394	861.7915	894.7116	921.2563	969.6572	999.8022	1034.8625	1059.9446	1075.3712	1107.8413	1120.4947	1173.9376	1213.4816	1232.4462	1243.7005	1251.273	1278.1271	1325.336	1327.9316	1390.3266	1470.0922	1484.4723	1691.4616	3050.4463	3054.872	3074.5719	3113.5699	3145.2534	3146.8062	3162.4755	3205.9925
C1CC2=CC3OC3C12	C1C[C]2[CH][C@H]3O[C@H]3[C@@H]12	
InChI=1S/C7H8O/c1-2-5-4(1)3-6-7(5)8-6/h3,5-7H,1-2H2	InChI=1S/C7H8O/c1-2-5-4(1)3-6-7(5)8-6/h3,5-7H,1-2H2/t5-,6+,7-/m0/s1
