22
gdb 100159	2.93442	0.91466	0.84286	3.9699	80.33	-0.2462	0.0369	0.2831	1486.4445	0.191228	-441.510502	-441.499375	-441.49843	-441.547661	39.453	
C	-0.2656033738	 1.3992735937	-0.1713961444	-0.24533
O	-0.0103611073	 0.0159596032	-0.0637453727	-0.289024
C	 0.7252728929	-0.6231910826	-1.1236964345	 0.337556
C	 0.0209705937	-0.4647512406	-2.4773763504	-0.41948
C	 2.1685548209	-0.1061236113	-1.1841734054	-0.425652
C	 0.7428736081	-2.098260109	-0.6782073251	-0.164963
N	-0.5914480488	-2.6172158444	-0.4548992003	-0.270824
C	-1.0751066079	-3.7321058167	-1.0591479819	 0.152168
O	-0.4563307015	-4.4463017632	-1.8214149055	-0.329917
H	 0.6545652235	 1.9947731954	-0.2443298052	 0.109977
H	-0.9085517769	 1.6459847696	-1.0270462219	 0.111039
H	-0.7870168907	 1.6887525579	 0.7448087679	 0.128012
H	 0.0249323471	 0.5755764806	-2.814096708	 0.114604
H	 0.5326581759	-1.0599056207	-3.239196741	 0.129286
H	-1.0149847895	-0.8073344951	-2.4174083621	 0.123061
H	 2.6346854326	-0.1568941456	-0.1958374234	 0.122974
H	 2.7599514018	-0.7123194264	-1.8773361102	 0.124747
H	 2.2141335228	 0.9283105793	-1.5354550677	 0.117775
H	 1.2109902303	-2.7286256692	-1.436318534	 0.142175
H	 1.3319347451	-2.1717012058	 0.2444598495	 0.108106
H	-1.1990859498	-2.0638818805	 0.1284247704	 0.253441
H	-2.1267223187	-3.9292607888	-0.7689989842	 0.07027
28.232	70.7558	82.2038	161.8214	179.0556	222.2573	237.9618	252.0491	281.3742	308.3002	353.1534	380.5316	412.349	469.7495	572.4477	590.6834	719.135	778.9574	862.952	919.8606	928.8948	967.1092	1021.7559	1035.9277	1051.4704	1118.7049	1179.3479	1189.4884	1201.2391	1209.246	1221.0744	1267.5903	1306.741	1385.5545	1397.19	1418.0599	1429.5431	1473.4597	1474.7916	1482.1067	1486.1091	1498.2558	1502.8981	1508.3386	1515.257	1528.5907	1802.1474	2930.9051	2999.2951	3027.1034	3040.7798	3049.1083	3053.5025	3107.9581	3111.4173	3116.9325	3119.1279	3127.1093	3130.349	3640.9351
COC(C)(C)CNC=O	COC(C)(C)CNC=O	
InChI=1S/C6H13NO2/c1-6(2,9-3)4-7-5-8/h5H,4H2,1-3H3,(H,7,8)	InChI=1S/C6H13NO2/c1-6(2,9-3)4-7-5-8/h5H,4H2,1-3H3,(H,7,8)
