17
gdb 7330	4.00187	1.22937	0.95718	2.9482	67.1	-0.2609	-0.0594	0.2015	1204.7763	0.139661	-401.031253	-401.021984	-401.02104	-401.066	31.844	
C	-0.8724498148	 1.0730179427	 0.6809984839	-0.392238
C	 0.0369742071	-0.0010080646	 0.1171674773	-0.041011
O	 0.4316388282	-0.8571278453	 1.2052998625	-0.246344
C	 1.2467410217	-1.8767546665	 0.8940930851	 0.30233
N	 1.6690138475	-2.1093619506	-0.2774653671	-0.511469
C	 1.6085934502	-2.726843704	 2.1144880683	 0.328642
C	 1.0325655914	-2.3331005825	 3.4514851901	-0.477323
O	 2.3395120325	-3.6762816323	 1.9554098104	-0.291426
H	-0.3545696912	 1.6667016314	 1.4396992132	 0.128511
H	-1.1928532117	 1.7442797891	-0.1211280299	 0.125963
H	-1.7636436239	 0.6324618716	 1.1370367064	 0.12851
H	-0.4616614167	-0.6094187838	-0.6446480352	 0.126285
H	 0.937607721	 0.4176302275	-0.3441003407	 0.126279
H	 2.2675657831	-2.937247049	-0.2354070087	 0.245516
H	 1.377371962	-3.0277067307	 4.2176678702	 0.141735
H	 1.3302716656	-1.3098707778	 3.7019776624	 0.153021
H	-0.0610535621	-2.3301149852	 3.4030898616	 0.153017
48.4716	92.6997	123.0636	139.4947	142.516	252.8815	289.9769	365.4858	402.643	442.1177	481.9723	621.6086	701.9173	806.2788	833.1555	889.8614	922.3527	977.2645	1043.8753	1045.9205	1118.0684	1139.582	1182.2682	1204.8362	1289.8121	1365.3041	1383.7361	1405.6834	1431.8265	1457.42	1463.9455	1485.8403	1495.629	1518.7856	1714.2362	1812.7731	3045.9596	3048.0019	3048.3531	3084.6813	3110.4881	3121.3864	3124.1717	3160.2265	3467.523
CCOC(=N)C(C)=O	CCO[C]([NH])C(=O)C	
InChI=1S/C5H9NO2/c1-3-8-5(6)4(2)7/h6H,3H2,1-2H3	InChI=1S/C5H9NO2/c1-3-8-5(6)4(2)7/h6H,3H2,1-2H3
