17
gdb 109487	2.08334	1.81091	1.05523	1.8687	69.99	-0.2613	-0.0052	0.2561	1125.9362	0.13697	-455.242262	-455.233433	-455.232489	-455.276856	31.328	
C	-0.008746466	 1.5735637584	 0.0554971962	-0.384205
C	-0.0173340658	 0.0473021792	-0.0397289478	-0.156678
N	 0.6714556215	-0.4447747157	-1.2253301586	-0.159586
C	 0.0558209437	-0.7495469744	-2.4198387203	 0.411341
O	-1.1215269651	-0.6584557802	-2.6707457702	-0.366708
C	 1.1693668783	-1.2349046809	-3.3565115533	-0.29067
N	 2.3553284723	-1.0529297534	-2.5482870053	-0.368368
C	 2.0639167981	-0.6672144558	-1.263873621	 0.48144
O	 2.8214650282	-0.5294661288	-0.3334327313	-0.401442
H	 1.0164682409	 1.9500475299	 0.1060306265	 0.139956
H	-0.507954627	 2.0198734743	-0.8091214063	 0.133897
H	-0.5363267495	 1.8941475485	 0.9588297724	 0.12312
H	 0.4817063491	-0.3941056248	 0.8264308171	 0.137804
H	-1.0401608879	-0.3333150804	-0.0937807362	 0.136873
H	 0.9841216817	-2.2803538228	-3.6318126655	 0.147363
H	 1.1744325413	-0.6350227713	-4.2729058478	 0.149173
H	 3.2546199661	-1.4522276518	-2.7546434588	 0.266691
32.0305	110.2524	132.227	151.5894	210.1589	298.9099	346.3568	394.1926	437.3701	586.5955	594.8271	604.2103	706.1854	747.5937	770.7004	784.8359	953.4668	1002.8234	1015.4172	1073.4889	1102.0255	1126.9928	1193.8015	1195.6892	1245.0492	1317.2976	1378.528	1391.6137	1408.6547	1418.088	1446.3694	1475.2452	1493.9175	1501.4191	1503.7829	1819.9617	1875.4141	3034.5113	3045.6619	3072.4866	3074.6596	3114.7541	3120.2167	3137.7408	3675.9278
CCN1C(=O)CNC1=O	CCN1C(=O)CNC1=O	
InChI=1S/C5H8N2O2/c1-2-7-4(8)3-6-5(7)9/h2-3H2,1H3,(H,6,9)	InChI=1S/C5H8N2O2/c1-2-7-4(8)3-6-5(7)9/h2-3H2,1H3,(H,6,9)
