18
gdb 50734	2.36461	1.48339	0.98901	4.3137	72.89	-0.2424	-0.0219	0.2205	1181.4581	0.149078	-439.145718	-439.137362	-439.136418	-439.179366	30.852	
O	-0.5533739488	 0.7591725975	-0.7413119032	-0.250116
C	 0.1141093896	 1.0424819373	 0.2202608174	 0.146432
C	 1.3416939869	 1.945118313	 0.1489924098	-0.204398
C	 1.4941513923	 2.6375078718	-1.2094912532	-0.21082
C	 2.5361282101	 3.7530772535	-1.1291001087	-0.221518
C	 2.1043426163	 4.7923239682	-0.096777795	-0.148725
N	 1.7700674465	 4.1533776683	 1.1708755368	-0.317826
C	 1.3560503307	 2.8718874806	 1.3745450674	 0.402829
O	 1.03863398	 2.4607390808	 2.4777768469	-0.382966
H	-0.1110916862	 0.6621732297	 1.2343653198	 0.120346
H	 2.1949857415	 1.2696283001	 0.3247282544	 0.13377
H	 1.7570358464	 1.898902465	-1.9713672484	 0.11637
H	 0.5253116857	 3.0514648918	-1.5120365155	 0.120207
H	 3.5124503629	 3.3397601125	-0.8471020479	 0.10853
H	 2.6590049177	 4.2434642492	-2.0995688159	 0.109151
H	 2.9058767294	 5.5167141708	 0.0826794163	 0.115257
H	 1.2408448389	 5.3557830734	-0.4813698553	 0.113672
H	 1.7281206002	 4.7252594064	 2.0026866943	 0.249806
54.3466	111.8591	136.0153	216.5155	281.3413	322.973	395.2455	446.4664	505.0474	562.1375	618.0273	661.4612	710.6991	753.8276	866.8339	889.6935	900.5828	964.0931	998.4955	1060.0044	1092.5058	1116.2247	1147.9432	1199.7831	1211.1214	1249.4819	1284.4126	1309.4994	1341.6306	1378.15	1380.1208	1400.4391	1403.1441	1478.6314	1487.3377	1498.2287	1528.8276	1771.7682	1824.6098	2966.1071	2990.1501	2990.5426	3032.1417	3048.9325	3063.1485	3088.3001	3096.3311	3602.6868
O=CC1CCCNC1=O	O=C[C@H]1CCCNC1=O	
InChI=1S/C6H9NO2/c8-4-5-2-1-3-7-6(5)9/h4-5H,1-3H2,(H,7,9)	InChI=1S/C6H9NO2/c8-4-5-2-1-3-7-6(5)9/h4-5H,1-3H2,(H,7,9)/t5-/m1/s1
