19
gdb 82324	2.53966	1.78663	1.31642	1.3802	73.99	-0.2248	0.0723	0.2971	1013.4789	0.159626	-422.99241	-422.984596	-422.983652	-423.024428	31.671	
O	 0.4504140738	 0.8574489405	-0.7060404282	-0.426724
C	 0.2231784337	-0.33906423	 0.0132669724	 0.044717
C	 0.6003278006	-0.3186725182	 1.4851075772	-0.112372
C	-0.3367031773	 0.4482149741	 2.4144191894	-0.344186
C	-0.5120693176	-1.0288059492	 2.1939737504	 0.106373
O	-1.4893237025	-1.4558770172	 1.2755510451	-0.292076
C	-1.2540695567	-0.7828335362	 0.0548988033	 0.393447
C	-2.3558516358	 0.0772388893	-0.5102091431	-0.324527
C	-2.0132264174	-1.2653742847	-1.1317634721	-0.341954
H	 0.0962593671	 1.5811999554	-0.1770072405	 0.281458
H	 0.8257561644	-1.0936650341	-0.5044063416	 0.098117
H	 1.6410240475	-0.4377933203	 1.7598948724	 0.096165
H	 0.0746520741	 0.7680048899	 3.3654305192	 0.117543
H	-1.0765022169	 1.1222779543	 1.9945089354	 0.121046
H	-0.3687347018	-1.7417580341	 2.9964549214	 0.104072
H	-3.2701299449	 0.1399218452	 0.0689414269	 0.119013
H	-2.0822442035	 0.9705980488	-1.0598934182	 0.114909
H	-1.5056004271	-1.2684936822	-2.0908349875	 0.121488
H	-2.7038695996	-2.0857238216	-0.9724819118	 0.123491
87.996	198.3762	246.6257	266.2879	318.3961	392.8581	428.6459	457.7582	522.6908	594.631	662.828	751.4026	766.4439	785.2033	817.9383	891.6018	904.8418	923.3713	967.5811	980.2051	999.2205	1025.7425	1052.3489	1055.2803	1078.188	1080.8874	1100.8979	1110.3055	1160.6092	1196.9797	1198.4662	1232.17	1283.7115	1295.6346	1343.8402	1359.3286	1386.6097	1433.2612	1442.3198	1473.9308	1493.5505	3050.3755	3130.4174	3131.5658	3136.168	3184.261	3193.1961	3218.783	3219.1583	3234.0487	3800.6764
OC1C2CC2OC11CC1	O[C@H]1[C@H]2C[C@H]2OC21CC2	
InChI=1S/C7H10O2/c8-6-4-3-5(4)9-7(6)1-2-7/h4-6,8H,1-3H2	InChI=1S/C7H10O2/c8-6-4-3-5(4)9-7(6)1-2-7/h4-6,8H,1-3H2/t4-,5+,6-/m0/s1
