24
gdb 118497	1.68676	1.24113	0.76504	1.6842	86.57	-0.2438	0.0771	0.321	1584.8049	0.215762	-405.52082	-405.509929	-405.508985	-405.557516	39.019	
C	 1.4258507516	 1.5688170926	 2.0992384131	-0.382961
C	 0.5840497641	 0.4209873879	 1.5663642043	-0.038616
O	 1.2661844293	-0.7896568988	 1.8401070988	-0.253783
C	 0.7023359533	-1.9598422399	 1.2700686469	 0.104155
C	 1.7613467442	-3.0601073676	 1.3898060219	-0.179744
C	 3.0460644113	-2.7488661415	 0.6192108702	-0.387965
C	-0.5953111247	-2.3564574871	 1.9532548034	 0.010699
C	-1.912902256	-1.9373873321	 1.4132523236	-0.249589
N	-1.4829721519	-3.3427584216	 1.3150622028	-0.322998
H	 2.4078847469	 1.5821690441	 1.6179212663	 0.124601
H	 0.9305999018	 2.5257679531	 1.908764787	 0.113445
H	 1.5753778071	 1.4648411536	 3.1777406258	 0.127096
H	-0.4099336889	 0.4250862404	 2.0366444855	 0.096662
H	 0.4289057843	 0.527552828	 0.4792879727	 0.080958
H	 0.4850004082	-1.7808469618	 0.1985604125	 0.048302
H	 1.9858163639	-3.1976463957	 2.4546084317	 0.106385
H	 1.3231174385	-4.001272559	 1.0381645139	 0.100203
H	 3.4847345417	-1.8111995498	 0.9682371077	 0.132454
H	 3.7850362057	-3.5450902045	 0.7494530566	 0.11035
H	 2.849720832	-2.6495841222	-0.4546681295	 0.106717
H	-0.4976766073	-2.4919969838	 3.02924544	 0.09594
H	-2.7479018669	-1.7601353961	 2.0852584489	 0.120127
H	-1.9249187406	-1.3339978726	 0.5084685971	 0.109554
H	-1.1562865478	-3.5317248356	 0.3687634587	 0.228007
65.0855	82.9606	95.3437	99.3333	164.2653	171.0653	230.973	249.9973	269.0844	324.3427	369.3984	425.8575	502.3302	540.5336	763.4931	816.7946	824.4555	877.1587	891.0038	900.2885	964.5786	975.1921	996.2709	1019.1687	1061.6935	1098.0342	1120.9763	1135.3727	1150.8717	1164.963	1173.726	1187.3942	1217.1797	1254.9426	1288.4749	1289.8247	1294.4593	1321.8273	1345.8155	1383.2379	1400.8772	1405.7897	1426.8678	1435.143	1476.4563	1483.3631	1496.1724	1500.1934	1509.9197	1510.5582	1530.3805	2909.2567	2961.8372	3010.9593	3033.2538	3035.7585	3044.1191	3070.8346	3100.3506	3103.7628	3118.304	3120.9483	3123.0259	3128.1258	3188.8796	3475.6099
CCOC(CC)C1CN1	CCO[C@@H](CC)[C@H]1CN1	
InChI=1S/C7H15NO/c1-3-7(9-4-2)6-5-8-6/h6-8H,3-5H2,1-2H3	InChI=1S/C7H15NO/c1-3-7(9-4-2)6-5-8-6/h6-8H,3-5H2,1-2H3/t6-,7+/m1/s1
