19
gdb 81993	2.37346	1.46507	1.31419	4.9891	79.13	-0.2537	0.0232	0.277	1090.4343	0.15858	-382.041055	-382.032159	-382.031215	-382.074134	33.75	
C	-0.2381916107	 1.6064462274	 0.0827308553	-0.420073
C	-0.0092757617	 0.1012399544	 0.071092586	-0.046575
C	 0.5200423194	-0.5731946546	-1.1938939109	-0.024475
C	 1.9132021659	-0.1985992556	-1.4872037576	-0.248625
N	 1.6792158568	-1.2414890887	-0.4675344246	-0.145852
C	 1.2420828642	-0.5332567611	 0.8055065994	 0.131128
C	 2.2858422894	 0.3599468681	 1.4760777732	-0.44574
C	 0.814082382	-1.5596547293	 1.7616431682	 0.285111
N	 0.457705295	-2.3402835554	 2.5357537355	-0.345905
H	 0.6268316004	 2.1663045818	-0.2828557424	 0.118767
H	-1.0893731911	 1.8594678752	-0.5581269273	 0.129824
H	-0.4678684074	 1.9609463454	 1.092810392	 0.129389
H	-0.9132964218	-0.4033851613	 0.4181282385	 0.110866
H	-0.0916701617	-1.1281536302	-1.8971999959	 0.105346
H	 2.3622834084	-0.6131794684	-2.3841616902	 0.133807
H	 2.3048080041	 0.773266867	-1.2045820502	 0.115934
H	 2.5886584635	 1.1877183098	 0.8332049582	 0.124262
H	 1.8869870625	 0.7794989136	 2.4037189558	 0.142639
H	 3.172260463	-0.231831018	 1.721175097	 0.150173
129.3168	155.4383	182.9849	187.1058	206.0722	233.8339	322.4896	356.4262	451.7078	502.3599	544.3245	557.5718	635.063	724.009	762.3109	795.935	865.6534	901.0302	947.8743	987.7391	1032.8515	1055.8399	1083.0658	1097.6335	1113.5252	1137.6524	1142.1266	1188.5019	1213.1034	1233.2483	1299.347	1369.7092	1379.4733	1408.2888	1416.1784	1482.6388	1484.5594	1490.0155	1499.2103	1510.3665	2356.5826	3037.6176	3053.2886	3084.7372	3102.656	3115.1339	3124.3833	3126.6826	3140.2739	3169.6916	3211.0063
CC1C2CN2C1(C)C#N	C[C@H]1[C@H]2CN2[C@]1(C)C#N	
InChI=1S/C7H10N2/c1-5-6-3-9(6)7(5,2)4-8/h5-6H,3H2,1-2H3	InChI=1S/C7H10N2/c1-5-6-3-9(6)7(5,2)4-8/h5-6H,3H2,1-2H3/t5-,6+,7+,9?/m0/s1
