19
gdb 118817	4.6175	0.77018	0.72781	2.4597	74.1	-0.2576	-0.0427	0.215	1557.5411	0.155544	-460.145553	-460.13536	-460.134416	-460.181286	35.739	
C	 0.0812548122	 1.6356544187	 0.2402909174	-0.477971
C	-0.1036171134	 0.136012609	 0.1682751448	 0.376125
C	-1.4110282881	-0.3744433972	-0.4133336183	-0.242896
C	-1.570578392	-0.0612976112	-1.9008228343	-0.075041
O	-2.7832876988	-0.6665539573	-2.3214424301	-0.420246
O	 1.0509479439	-0.6019821052	-0.2313791184	-0.265237
C	 0.6219885257	-0.7710304302	 1.1152328488	-0.101228
C	 1.5012786454	-0.2600512142	 2.2108094709	 0.140434
O	 2.398100019	 0.5335019516	 2.0762901437	-0.250337
H	 1.0415048596	 1.8869569456	 0.6903428884	 0.165858
H	 0.0533029332	 2.0645742482	-0.7661743016	 0.132009
H	-0.7254560184	 2.0943513903	 0.8213294702	 0.122382
H	-1.4680140991	-1.4606750608	-0.2957662336	 0.116457
H	-2.2549364866	 0.0585314552	 0.1359778182	 0.112466
H	-1.594018548	 1.0264871121	-2.0669654183	 0.089722
H	-0.705120748	-0.4638576533	-2.4482373425	 0.107178
H	-2.8840659631	-0.5133545285	-3.2653895397	 0.288347
H	 0.1536268772	-1.7315481056	 1.3378981888	 0.100735
H	 1.2433035193	-0.6801057474	 3.2096602658	 0.081244
58.6344	81.7359	115.7419	131.7325	183.2191	235.4772	247.9354	260.6955	299.6969	351.9433	380.5747	436.6062	551.2629	733.5566	770.3183	797.4109	822.6532	902.2576	956.3613	963.5953	1002.136	1035.8464	1071.2243	1098.7537	1120.144	1126.0565	1219.9186	1243.14	1264.9299	1302.4017	1336.1273	1360.9074	1414.7658	1424.3597	1433.2594	1460.5207	1476.8399	1493.6238	1505.5901	1530.9038	1823.8629	2874.3244	2979.9103	3012.4273	3043.8427	3048.2715	3095.4072	3099.9096	3106.2089	3157.6113	3831.4463
CC1(CCO)OC1C=O	C[C@@]1(CCO)O[C@H]1C=O	
InChI=1S/C6H10O3/c1-6(2-3-7)5(4-8)9-6/h4-5,7H,2-3H2,1H3	InChI=1S/C6H10O3/c1-6(2-3-7)5(4-8)9-6/h4-5,7H,2-3H2,1H3/t5-,6-/m0/s1
