18
gdb 76385	2.51828	1.20456	1.14636	5.4983	68.36	-0.2461	0.0211	0.2672	1175.0534	0.146634	-476.243469	-476.233915	-476.23297	-476.277628	35.159	
C	-0.0886432015	 1.5119198121	-0.1772684716	-0.438859
C	 0.0704171144	 0.0135802795	-0.070713511	-0.079271
C	 1.4107488605	-0.646467353	-0.2045002421	 0.051674
O	 2.5749285689	 0.1225254582	-0.2805727948	-0.423977
C	 0.7333498709	-0.6155421594	 1.1596257167	 0.083566
N	 1.3323060097	 0.1730983027	 2.2107771279	-0.61061
H	 2.2613440598	 0.47857099	 1.9362675842	 0.259982
H	 0.7853805118	 0.9998007022	 2.4271320152	 0.245785
H	 0.8707600185	-1.3955116379	 3.2477712118	 0.304107
C	 0.1637557325	-1.9337533531	 1.6239797802	 0.429571
O	 0.3682088357	-2.1744100152	 2.9247673491	-0.380232
O	-0.4084919473	-2.7023535705	 0.8916955066	-0.365234
H	 0.8134638192	 2.0393466248	 0.1426381636	 0.120251
H	-0.2950317611	 1.8024872796	-1.2129298516	 0.127987
H	-0.9272634773	 1.8666342301	 0.4314353254	 0.128827
H	-0.756023805	-0.5822574191	-0.4460987224	 0.123788
H	 1.4583827541	-1.6183451565	-0.690381865	 0.122525
H	 2.6026942262	 0.5554956055	-1.1400987722	 0.300119
83.3038	140.569	156.2106	194.3541	209.7664	225.2503	245.5817	331.7069	348.9072	383.5507	493.683	521.7349	601.8517	635.1758	726.0662	752.3676	822.8326	846.3639	880.3041	888.8117	1003.5372	1030.542	1056.9997	1070.2448	1137.6831	1165.3083	1205.4892	1234.4213	1258.8867	1278.6635	1333.5096	1370.212	1411.8834	1423.0344	1441.2547	1498.862	1504.1027	1661.522	1850.1467	3035.9709	3092.6565	3117.6357	3137.0511	3166.2951	3492.7988	3509.0591	3575.6062	3812.9368
CC1C(O)C1([NH3+])C([O-])=O	C[C@H]1[C@@H](O)[C@]1(N)C(=O)O	
InChI=1S/C5H9NO3/c1-2-3(7)5(2,6)4(8)9/h2-3,7H,6H2,1H3,(H,8,9)	InChI=1S/C5H9NO3/c1-2-3(7)5(2,6)4(8)9/h2-3,7H,6H2,1H3,(H,8,9)/t2-,3+,5-/m0/s1
