20
gdb 37177	3.7358	1.61554	1.467	1.5472	82.03	-0.2222	0.0809	0.3032	961.6468	0.174786	-365.913073	-365.906755	-365.90581	-365.943188	28.381	
C	-0.0389652428	 1.5289656913	 0.2278247187	-0.282799
C	 1.4899821075	 1.5675841154	-0.1579054999	-0.340943
C	 1.2841938561	 0.1869381301	-0.8077602479	 0.371597
C	 0.3768446575	 0.1694913492	-2.0881294748	-0.2728
C	-0.4193569361	-0.8672556742	-1.2678134737	-0.092
C	 0.653500899	-1.9936895334	-1.0955178152	-0.025886
N	 1.7832252019	-1.974330564	-2.0635012342	-0.344308
C	 1.895213342	-1.2196061972	-0.794440252	-0.166231
C	-0.027246138	-0.0284449599	 0.0017825012	 0.017417
H	-0.2680744458	 1.8198088997	 1.2547832017	 0.09887
H	-0.6776695515	 2.1099811286	-0.4385548805	 0.111519
H	 1.8351046618	 2.3843634085	-0.7982099495	 0.097936
H	 2.1240155528	 1.5265793736	 0.7336754523	 0.100543
H	-0.1612366806	 1.1044890557	-2.2293383511	 0.090673
H	 0.831140392	-0.1569329706	-3.0201565641	 0.124673
H	-1.4304323549	-1.1903350947	-1.5234233429	 0.054665
H	 0.3997786929	-2.9214117759	-0.5947810771	 0.086815
H	 2.2964991776	-2.8491619715	-1.9714545703	 0.226696
H	 2.6083565571	-1.5225356639	-0.0359088382	 0.085563
H	 0.0319997615	-0.5788090166	 0.9460165773	 0.058001
266.5684	300.7197	307.9943	442.3102	500.2604	534.78	580.7099	650.1008	708.2999	761.4272	772.1854	820.762	842.8299	859.7234	869.7732	879.0448	904.2927	913.7243	930.8408	980.3026	1015.3392	1034.7138	1059.0147	1075.3901	1084.0243	1103.4632	1125.9562	1140.52	1185.2177	1200.1353	1215.4437	1220.1196	1228.7804	1243.1588	1253.6836	1266.4848	1291.6004	1325.7404	1349.4027	1388.9849	1474.7372	1486.1076	1514.7573	3044.133	3052.5947	3078.8575	3088.2294	3095.403	3115.567	3133.1304	3167.3004	3175.5282	3177.1709	3485.0248
C1CC23CC(C4NC24)C13	C1C[C@@]23C[C@@H]([C@H]4N[C@@H]24)[C@H]13	
InChI=1S/C8H11N/c1-2-8-3-4(5(1)8)6-7(8)9-6/h4-7,9H,1-3H2	InChI=1S/C8H11N/c1-2-8-3-4(5(1)8)6-7(8)9-6/h4-7,9H,1-3H2/t4-,5+,6-,7-,8+/m1/s1
