17
gdb 88898	6.78118	0.57176	0.5498	2.4148	92.02	-0.243	-0.0126	0.2303	1969.7022	0.13263	-384.618206	-384.60848	-384.607535	-384.65386	34.646	
C	 0.2427184295	 1.4535727465	-0.2894513428	-0.419551
C	-0.0129056354	 0.0223864917	 0.1097504033	 0.075002
O	 1.121556413	-0.8429242043	 0.254247092	-0.249669
C	 0.3322964589	-0.5746406426	 1.4106023354	 0.072569
C	 0.995527723	 0.1916822129	 2.5473855218	-0.424808
C	 1.7605355499	-0.6784278749	 3.4293647881	 0.371709
C	 2.3833822817	-1.4152136443	 4.1593757135	-0.228355
C	 3.084535062	-2.2442150402	 4.9796653514	 0.294009
C	 3.706098238	-2.9791747064	 5.7087882054	-0.550903
H	 1.0699132409	 1.8973743426	 0.2678145947	 0.127831
H	 0.4909381158	 1.5050434722	-1.3545313321	 0.134923
H	-0.6549611897	 2.0598313762	-0.1264955459	 0.125415
H	-0.8444079259	-0.4449767283	-0.4226380944	 0.092301
H	-0.2624404117	-1.4241276365	 1.7503143724	 0.10217
H	 1.6504045117	 0.9670250083	 2.1371661385	 0.145617
H	 0.2169523316	 0.7055880352	 3.1287176268	 0.141151
H	 4.2532455167	-3.6268549882	 6.3475537919	 0.190587
34.0262	63.2576	145.9273	152.5995	183.5189	221.8913	327.7502	346.4842	413.2122	475.028	494.2668	533.8893	537.8269	590.4543	595.8627	741.9159	767.5979	828.8001	897.2261	967.1181	999.8994	1087.2392	1094.6509	1168.7535	1177.1257	1183.7589	1234.7667	1300.0011	1319.7531	1397.2636	1416.1981	1445.953	1468.2706	1487.8531	1509.6891	2183.4783	2367.1021	3015.0108	3040.9087	3074.9764	3081.3906	3102.1733	3102.3402	3134.1316	3506.497
CC1OC1CC#CC#C	C[C@H]1O[C@H]1CC#CC#C	
InChI=1S/C8H8O/c1-3-4-5-6-8-7(2)9-8/h1,7-8H,6H2,2H3	InChI=1S/C8H8O/c1-3-4-5-6-8-7(2)9-8/h1,7-8H,6H2,2H3/t7-,8+/m1/s1
