20
gdb 57259	2.08854	1.61902	1.23242	3.8915	78.26	-0.2479	0.0232	0.271	1118.1412	0.16991	-399.311518	-399.301545	-399.300601	-399.345716	37.578	
C	-0.2208101768	 1.5339459775	-0.114149587	-0.407992
C	 0.0194914416	 0.0127360958	-0.0086323362	 0.009284
N	 0.7278643948	-0.2540147097	 1.2515452616	-0.518736
C	-1.3087287814	-0.635163031	 0.1002731941	 0.301729
N	-2.3475338059	-1.1387567911	 0.1573226943	-0.353545
C	 0.7490555385	-0.5348524161	-1.2660142228	 0.318557
C	 2.0835150073	 0.1208879869	-1.5692459997	-0.463535
C	 0.5577850932	-1.9632683701	-1.6354525244	-0.293314
N	-0.0211491305	-0.888793088	-2.4669956098	-0.355924
H	 0.7356024619	 2.062969199	-0.1198307937	 0.126139
H	-0.7569917005	 1.7799154431	-1.0334186731	 0.142266
H	-0.8006513097	 1.8784553224	 0.7438707639	 0.149393
H	 1.0132406228	-1.2283862756	 1.2910920615	 0.239824
H	 1.5719267151	 0.3084980649	 1.2905728867	 0.237815
H	 2.7689190524	 0.0579741346	-0.7175420907	 0.107025
H	 2.5499418331	-0.3844366664	-2.4172618248	 0.137688
H	 1.964485306	 1.1737841224	-1.8411053108	 0.129113
H	 1.3773441677	-2.5090099313	-2.0950564657	 0.116829
H	-0.1208585317	-2.5730836616	-1.0456248558	 0.133255
H	-1.0220219181	-0.8331961657	-2.2859870976	 0.24413
63.5569	159.4616	183.5805	189.0787	216.465	268.8313	275.8371	304.4738	330.5145	376.2082	398.1926	427.6743	488.3779	558.2858	598.7638	641.6976	788.9205	845.3777	852.8268	909.4633	930.2	965.9452	986.1593	1018.5475	1036.8398	1078.5549	1109.2555	1130.052	1181.0511	1197.2921	1266.4327	1318.8172	1321.4374	1365.2564	1402.8516	1421.0368	1483.5812	1487.5098	1491.3364	1505.0903	1513.2739	1654.7492	2352.4575	3042.4853	3056.5013	3107.5616	3110.4302	3129.5631	3133.4358	3146.8099	3196.6964	3485.7654	3494.9488	3582.3562
CC(N)(C#N)C1(C)CN1	C[C@@](N)(C#N)[C@@]1(C)CN1	
InChI=1S/C6H11N3/c1-5(8,3-7)6(2)4-9-6/h9H,4,8H2,1-2H3	InChI=1S/C6H11N3/c1-5(8,3-7)6(2)4-9-6/h9H,4,8H2,1-2H3/t5-,6-/m1/s1
