13
gdb 15465	3.06468	2.10364	1.49122	1.8862	60.31	-0.2711	0.0045	0.2756	830.2057	0.095425	-398.565154	-398.558086	-398.557142	-398.596762	25.62	
N	-0.0061310963	 1.2743648205	-0.2666574835	-0.527072
C	 0.0084982976	 0.0429274142	-0.0189756509	 0.404836
O	 1.0941650396	-0.7290384065	 0.2672312988	-0.23307
C	 0.6405394522	-2.0645025509	 0.5049141705	 0.015724
O	-0.6132816273	-2.1770471636	-0.1130810472	-0.230098
C	-1.2106657081	-0.8827636089	-0.0055566515	-0.177139
C	-2.006073197	-0.7285478823	 1.2126852292	 0.365889
C	-2.6524467227	-0.6214669497	 2.2191305493	-0.468257
H	 0.9311691404	 1.6747245098	-0.2094294419	 0.233006
H	 1.3341084341	-2.7684577571	 0.0400144702	 0.136953
H	 0.5806033445	-2.227441382	 1.5909133391	 0.118664
H	-1.8265120375	-0.721253697	-0.8929942602	 0.149791
H	-3.2305516294	-0.5167342665	 3.1043872681	 0.210773
88.5819	141.0726	176.5652	263.5112	383.8081	437.9096	538.8797	642.3831	662.3385	683.68	691.4811	751.3946	883.9049	902.846	948.6626	995.5648	1013.3502	1052.4252	1124.0185	1173.8558	1221.0681	1264.4155	1294.4253	1337.1954	1438.2402	1537.3468	1802.598	2239.5657	3002.1753	3096.0068	3112.4831	3484.5706	3500.3948
N=C1OCOC1C#C	[NH][C]1OCO[C@H]1C#C	
InChI=1S/C5H5NO2/c1-2-4-5(6)8-3-7-4/h1,4,6H,3H2	InChI=1S/C5H5NO2/c1-2-4-5(6)8-3-7-4/h1,4,6H,3H2/t4-/m0/s1
