20
gdb 15088	2.48193	1.7613	1.26242	2.1217	71.13	-0.2467	0.0715	0.3181	1053.8505	0.175897	-386.108521	-386.099301	-386.098357	-386.142747	33.196	
C	 0.0607939419	 1.4251280958	-0.0531759517	-0.240445
O	-0.0367206822	 0.0176239834	-0.1222864347	-0.256924
C	 0.6863736181	-0.5812971262	-1.2004401633	 0.056926
C	 2.1354662067	-0.8243413073	-0.7525267532	-0.06036
O	 2.1953877017	-1.5796011026	 0.4388286651	-0.419672
C	-0.025807452	-1.8579765867	-1.603774476	 0.025138
C	-0.8028299797	-2.6832098699	-0.6134537425	-0.243975
C	-1.5287377927	-1.9189608279	-1.6932190477	-0.282485
H	 1.0930398398	 1.7690840864	 0.1021543344	 0.113661
H	-0.3278875616	 1.8982175758	-0.966695865	 0.113574
H	-0.5450785108	 1.7470565662	 0.7974663063	 0.130473
H	 0.6973297388	 0.1093445703	-2.0601646115	 0.066051
H	 2.6743872189	-1.3838255024	-1.5253520214	 0.10406
H	 2.649498423	 0.1451468925	-0.637594885	 0.07839
H	 1.5111777705	-1.2123592832	 1.0119424697	 0.286195
H	 0.5224315429	-2.4127001662	-2.3604626656	 0.08298
H	-0.7375032855	-3.7626409099	-0.6891998365	 0.108014
H	-0.8894147907	-2.3056967012	 0.3975569373	 0.118409
H	-2.0800710604	-1.0384460264	-1.3837902667	 0.114397
H	-1.9715123767	-2.4682929305	-2.516729682	 0.105592
74.4338	79.1581	112.2617	164.7952	201.6564	236.7292	304.0804	355.1368	386.616	435.546	540.4886	675.3149	776.8261	794.0596	835.9391	875.8252	916.6074	964.7181	996.6411	1062.6431	1069.972	1087.0041	1101.6049	1127.3182	1136.2023	1153.9192	1183.3847	1200.3861	1211.2661	1232.3168	1242.7907	1313.7641	1373.603	1389.3093	1414.8235	1433.0166	1458.0707	1479.34	1486.5565	1501.6404	1508.7872	1514.6199	2953.497	2968.6554	2990.6066	3041.1317	3064.7225	3114.6214	3136.2627	3142.1503	3148.2817	3220.833	3237.8274	3782.2345
COC(CO)C1CC1	CO[C@@H](CO)C1CC1	
InChI=1S/C6H12O2/c1-8-6(4-7)5-2-3-5/h5-7H,2-4H2,1H3	InChI=1S/C6H12O2/c1-8-6(4-7)5-2-3-5/h5-7H,2-4H2,1H3/t6-/m0/s1
