14
gdb 130172	3.58813	1.60533	1.11117	2.0086	69.3	-0.2004	0.0149	0.2153	998.465	0.105489	-429.05022	-429.043103	-429.042159	-429.081396	27.562	
N	-0.0602148325	 1.3829634635	 0.154719039	-0.588075
C	 0.0371126682	 0.002632433	 0.0398328927	 0.217364
N	-1.0438788365	-0.7580597026	 0.0170340222	-0.304349
N	-0.5955261846	-2.0801680021	 0.0499608204	-0.375278
C	 0.7564919545	-2.0919923147	-0.0270413328	 0.499538
C	 1.2326398176	-0.7860486471	 0.0118497272	 0.151314
C	 2.6449057731	-0.9384617499	 0.0164588382	-0.175417
N	 2.994012341	-2.2153130984	-0.0231773635	-0.217271
N	 1.8164306649	-2.9295027455	-0.0359853683	-0.364841
H	 0.6274155172	 1.8860521352	-0.3887959695	 0.24933
H	-0.99654563	 1.7144071173	-0.038991975	 0.252979
H	-1.2447771226	-2.7893884444	-0.2408397123	 0.267413
H	 3.419767403	-0.1867320155	 0.0469414601	 0.114813
H	 1.8577162969	-3.9304642088	-0.0989854185	 0.27248
197.6574	242.8087	252.9854	277.5972	323.1701	331.5531	439.7542	541.7113	637.404	646.1656	655.2418	688.7453	720.8805	779.4431	850.4807	875.3006	970.774	1022.3091	1051.4685	1151.2743	1165.4206	1238.3742	1302.0389	1353.5782	1391.5544	1447.8346	1505.4478	1536.1607	1587.9779	1641.3855	1656.5074	3245.6618	3545.926	3646.2677	3684.8457	3698.4472
NC1=NNC2=C1C=NN2	Nc1n[nH]c2c1cn[nH]2	
InChI=1S/C4H5N5/c5-3-2-1-6-8-4(2)9-7-3/h1H,(H4,5,6,7,8,9)	InChI=1S/C4H5N5/c5-3-2-1-6-8-4(2)9-7-3/h1H,(H4,5,6,7,8,9)
