15
gdb 50887	4.81257	0.68117	0.65109	3.0511	72.19	-0.2669	-0.0111	0.2558	1665.1656	0.11296	-450.177654	-450.168281	-450.167337	-450.213408	31.928	
N	 0.9237781728	-0.0219161521	-0.0019147084	-0.470419
C	-0.2362786412	 0.4167853077	-0.2713065608	 0.108687
N	-1.3471051573	-0.1551318684	 0.329449846	-0.358593
C	-2.6382782859	 0.2903462184	 0.0992115457	 0.546644
O	-2.9007520831	 1.2180894958	-0.6407271318	-0.388067
N	-3.5972448038	-0.3979596697	 0.8170969839	-0.377405
C	-4.9990366768	-0.1487321847	 0.5506879605	-0.280248
C	-5.648380126	-1.2527140681	-0.1718066106	 0.252558
N	-6.1504319554	-2.1411307141	-0.7131156986	-0.294292
H	 1.6280471258	 0.4968104427	-0.5224416673	 0.235543
H	-0.5092605554	 1.2277707698	-0.9484958848	 0.145681
H	-1.1551218867	-0.9058977454	 0.9774137435	 0.258551
H	-3.3554258669	-1.2665587691	 1.2672351343	 0.257721
H	-5.5490363243	 0.0316920345	 1.4809911659	 0.161005
H	-5.0436510958	 0.7618007626	-0.0537101076	 0.202634
34.7067	57.6449	119.7227	166.1064	171.1911	244.9268	305.7128	365.4092	390.6012	410.7907	501.3617	583.6789	613.9052	753.4461	765.4876	828.0962	921.9649	966.9298	1068.2074	1071.2631	1085.2599	1163.5515	1208.245	1278.9332	1307.5484	1372.4281	1392.391	1460.4248	1487.1946	1545.853	1732.8278	1800.7622	2363.1299	3048.9672	3109.6063	3129.8505	3514.6017	3607.8778	3633.3055
N=CNC(=O)NCC#N	N=CNC(=O)NCC#N	
InChI=1S/C4H6N4O/c5-1-2-7-4(9)8-3-6/h3H,2H2,(H3,6,7,8,9)	InChI=1S/C4H6N4O/c5-1-2-7-4(9)8-3-6/h3H,2H2,(H3,6,7,8,9)
