21
gdb 103121	1.87259	1.26679	0.94894	2.9208	80.89	-0.2465	-0.0218	0.2247	1347.0866	0.179786	-424.224885	-424.214444	-424.2135	-424.260196	37.934	
C	-0.1958355159	 0.9868042504	-1.8727107367	-0.422382
C	-0.0803599731	-0.1569042389	-0.8853417975	-0.072505
C	 1.2587500548	-0.6314906323	-0.3033906374	-0.167144
C	 2.5411236494	 0.0347643805	-0.6110297788	 0.153491
O	 3.5961404024	-0.5522447737	-0.6805381406	-0.27478
C	 0.1724656986	 0.0212289497	 0.5783120858	 0.26158
C	 0.3847925708	 1.3927554778	 1.1947919966	-0.462043
C	-0.5230724095	-0.9506935228	 1.5204736322	-0.112583
O	 0.1958939722	-1.1692807087	 2.7215710351	-0.414396
H	 0.4336315905	 1.8411088925	-1.6168434689	 0.124374
H	 0.0835249419	 0.658788703	-2.8791305502	 0.130994
H	-1.2304816417	 1.3435488316	-1.9150094056	 0.126936
H	-0.7324483512	-0.9917465751	-1.1348553976	 0.095658
H	 1.3809103437	-1.706450029	-0.1990996503	 0.096199
H	 2.4974442974	 1.1316352025	-0.7821271266	 0.067989
H	 0.9562423575	 2.0733741421	 0.5627187046	 0.117968
H	-0.5848828967	 1.8627310043	 1.3960207698	 0.121898
H	 0.9067319974	 1.2925446093	 2.1499625567	 0.14026
H	-1.4894220374	-0.5346152931	 1.829378349	 0.113509
H	-0.7249687573	-1.8974177105	 0.9950428179	 0.087139
H	 1.0528701063	-1.5412431596	 2.4848117725	 0.28784
72.1243	108.0028	144.9656	167.2163	184.0913	215.3947	241.5194	266.0895	319.9167	330.919	394.8857	416.1437	467.9468	509.5409	562.9004	672.863	795.8734	903.4697	943.1175	946.758	978.1245	1030.5218	1037.3872	1062.0324	1068.1758	1094.4857	1127.9432	1142.175	1184.1499	1219.7889	1247.3042	1324.8989	1334.5324	1387.4627	1412.3722	1420.6461	1425.1674	1438.0362	1457.2208	1485.0336	1494.7773	1498.579	1503.5978	1519.2561	1801.8474	2895.9833	2978.0593	3039.1834	3042.0851	3059.331	3098.1888	3107.3025	3115.2417	3132.2404	3143.1774	3146.116	3800.9107
CC1C(C=O)C1(C)CO	C[C@H]1[C@@H](C=O)[C@]1(C)CO	
InChI=1S/C7H12O2/c1-5-6(3-8)7(5,2)4-9/h3,5-6,9H,4H2,1-2H3	InChI=1S/C7H12O2/c1-5-6(3-8)7(5,2)4-9/h3,5-6,9H,4H2,1-2H3/t5-,6+,7+/m0/s1
