20
gdb 22612	2.23009	1.55896	1.02793	1.0613	83.68	-0.2272	0.0173	0.2445	1212.2181	0.16917	-403.088719	-403.079283	-403.078339	-403.122463	35.697	
C	-0.0926386681	 1.6335059393	-0.0183306135	-0.410184
C	 0.0620153807	 0.1158397687	-0.0166528771	-0.076262
C	 0.7399362567	-0.596784899	-1.2087409309	-0.119255
C	 2.1893128193	-0.2322347429	-1.2912088627	-0.325523
C	 1.7707404525	-1.2687866636	-0.262822918	 0.262604
C	 2.3298768941	-2.6614566258	-0.2166659676	-0.493425
C	 1.1108160851	-0.5610806822	 0.8710834878	 0.368985
N	 1.2929261128	-0.702913522	 2.1174790796	-0.277292
O	 0.3719734545	 0.0811474502	 2.8520857182	-0.398793
H	 0.8513001499	 2.1385877806	-0.2433013063	 0.115001
H	-0.8268854983	 1.9448153888	-0.769077411	 0.112889
H	-0.431710987	 1.9782115626	 0.9617548234	 0.139453
H	-0.906315264	-0.3492916169	 0.2054562171	 0.100209
H	 0.2121992971	-1.0556911169	-2.0359307228	 0.092411
H	 2.7264157143	-0.6479463532	-2.1387821473	 0.115233
H	 2.5442360318	 0.7480104227	-0.9862764206	 0.115857
H	 2.5271349267	-3.0369875416	-1.2257171337	 0.115549
H	 3.2730779511	-2.6864338945	 0.3399005739	 0.132799
H	 1.6364800406	-3.349323475	 0.2778761767	 0.125642
H	 0.6180409603	-0.1220836592	 3.7603774451	 0.304102
96.8484	158.6484	179.9901	192.6532	204.2684	219.1338	280.3575	330.2164	357.879	417.4342	491.9826	526.706	605.5571	632.4509	747.9446	765.0338	830.2574	853.8668	945.8564	964.0913	968.9634	987.0847	1013.2273	1046.6676	1081.5201	1101.406	1114.3171	1123.775	1155.0483	1226.4158	1262.1766	1302.0768	1352.5997	1368.2537	1406.3749	1412.3789	1428.5998	1481.4843	1490.1212	1495.9274	1498.8051	1504.1181	1777.7289	3031.1154	3036.3115	3038.2342	3094.2086	3103.4545	3104.7714	3116.1488	3123.9438	3186.1574	3199.402	3823.2345
CC1C2CC2(C)C1=NO	C[C@H]1[C@H]2C[C@@]2(C)C1=NO	
InChI=1S/C7H11NO/c1-4-5-3-7(5,2)6(4)8-9/h4-5,9H,3H2,1-2H3	InChI=1S/C7H11NO/c1-4-5-3-7(5,2)6(4)8-9/h4-5,9H,3H2,1-2H3/t4-,5+,7+/m0/s1
