12
gdb 27029	3.00993	1.37605	0.94524	5.4257	68.58	-0.2124	-0.016	0.1964	1125.4041	0.076386	-472.638757	-472.630857	-472.629913	-472.671193	29.17	
N	 0.1845100862	 1.3816646119	 0.1774003791	-0.604214
C	-0.0036321083	 0.0357924736	 0.0524685412	 0.248532
C	-1.1004116039	-0.7503128417	 0.0128723351	 0.130176
O	-0.6429841711	-2.0885226518	-0.0144290976	-0.247329
C	 0.7037021794	-2.068422847	-0.0135445331	 0.485736
O	 1.4410205237	-2.9973123273	-0.0477870881	-0.362764
O	 1.117198104	-0.7414303105	 0.0334142788	-0.217739
C	-2.4624066007	-0.4576935352	 0.004908869	 0.224126
C	-3.6366857553	-0.1805413879	-0.0074137356	-0.410065
H	 1.0150413444	 1.7356912525	-0.2773737159	 0.27642
H	-0.6405777744	 1.9341428228	-0.0075708681	 0.277255
H	-4.671944474	 0.0558809807	-0.0101867549	 0.199866
124.6505	128.0982	199.661	258.6961	319.3618	340.814	440.3489	442.6026	500.391	564.049	595.3381	644.0228	674.1158	690.7939	724.9591	770.6807	821.2393	951.5931	1000.695	1126.7832	1197.7336	1304.0027	1438.3707	1625.291	1748.6244	1949.729	2218.687	3500.3499	3560.4726	3667.6382
NC1=C(OC(=O)O1)C#C	Nc1c(oc(=O)o1)C#C	
InChI=1S/C5H3NO3/c1-2-3-4(6)9-5(7)8-3/h1H,6H2	InChI=1S/C5H3NO3/c1-2-3-4(6)9-5(7)8-3/h1H,6H2
