19
gdb 61666	4.3083	0.78346	0.69881	1.7175	76.19	-0.2482	0.0209	0.2692	1565.7783	0.159864	-419.1877	-419.178323	-419.177379	-419.222831	33.353	
N	-0.0375436208	 1.5109537269	 0.000182532	-0.48751
C	-0.0100675511	 0.0489753499	-0.0898702743	-0.138828
C	-1.4201461797	-0.5417214119	 0.1081497902	-0.211873
C	-2.0219201979	-0.1912471075	 1.4623016985	-0.007261
C	-2.6594535024	 1.1978609973	 1.6845909832	-0.064925
O	-3.886766334	 0.6035860248	 2.1591619431	-0.272459
C	-3.4429733076	-0.7119064187	 1.7777076355	-0.099556
C	 0.5811310187	-0.4426200312	-1.3546129962	 0.254744
N	 1.0417116754	-0.7853933335	-2.3584004657	-0.318678
H	 0.9059233402	 1.8840431809	-0.0447749833	 0.247787
H	-0.5378275207	 1.8961467296	-0.7964406513	 0.244191
H	 0.6287119161	-0.3140487359	 0.7248965593	 0.133992
H	-2.0734478806	-0.1907821859	-0.7011759131	 0.114681
H	-1.3533875857	-1.630767614	 0.0012106118	 0.12444
H	-1.3157621774	-0.4423422594	 2.2597988923	 0.082295
H	-2.1936148171	 1.8465277897	 2.4325347521	 0.109641
H	-2.8156998291	 1.7747942076	 0.7637101491	 0.088794
H	-3.9883392249	-1.0919353297	 0.9010308088	 0.095241
H	-3.5384641514	-1.4364261591	 2.5945487979	 0.105285
52.7083	94.0766	101.5983	137.9454	196.2814	257.0221	303.2983	315.4103	366.7504	434.327	566.7092	584.91	742.0588	831.7265	872.771	896.2698	902.5618	936.3249	965.9069	990.1776	1032.7516	1049.7784	1085.464	1136.4011	1142.2736	1158.2612	1163.0253	1215.3645	1257.7493	1284.1972	1306.7134	1323.8577	1346.1685	1379.1838	1395.019	1408.9943	1480.3804	1509.5291	1535.3984	1664.1325	2344.6393	2989.5792	3015.157	3026.5943	3040.0187	3047.0175	3060.7711	3073.5743	3083.9527	3494.1956	3573.3327
NC(CC1COC1)C#N	N[C@@H](CC1COC1)C#N	
InChI=1S/C6H10N2O/c7-2-6(8)1-5-3-9-4-5/h5-6H,1,3-4,8H2	InChI=1S/C6H10N2O/c7-2-6(8)1-5-3-9-4-5/h5-6H,1,3-4,8H2/t6-/m0/s1
