16
gdb 54226	2.30696	1.48871	1.33235	1.8615	66.31	-0.2524	-0.0367	0.2157	1044.8867	0.121551	-475.030902	-475.021672	-475.020728	-475.065329	32.761	
C	-0.2492704758	 1.5171307217	-0.0030893105	-0.490357
C	-0.002790123	 0.0316354037	 0.0944062651	 0.357002
O	 0.1057406868	-0.5667304414	 1.1373702524	-0.295227
C	 0.0615423714	-0.7201426787	-1.2545674204	 0.162794
O	 0.6951228164	 0.0542111306	-2.2391177136	-0.472325
C	 0.4524352653	-2.2097302733	-1.1226330063	-0.120839
O	-0.9465203686	-2.5954519625	-1.3918549568	-0.250501
C	-1.2932818569	-1.3009666114	-1.643904732	 0.370382
N	-2.3230597224	-0.7631177778	-2.1165597147	-0.54673
H	 0.5861116226	 2.0002545139	-0.5174131399	 0.159147
H	-1.1441097561	 1.7006747457	-0.6086958979	 0.160487
H	-0.3752234739	 1.9339293225	 0.9962463966	 0.141682
H	 0.0558562428	 0.2199148615	-2.9421754947	 0.303033
H	 1.111546907	-2.568242478	-1.9141611994	 0.129676
H	 0.7598276337	-2.5327776432	-0.1297099075	 0.151501
H	-3.0467430392	-1.4438860433	-2.3517703103	 0.240276
55.1379	109.3962	129.4985	158.3066	197.8403	248.5847	277.3992	356.3235	415.3693	472.1701	520.4258	605.6121	637.3361	700.8917	774.2263	856.6709	880.0157	930.4982	959.7162	989.6703	1025.1694	1065.8435	1110.1748	1158.4481	1218.0153	1233.3443	1253.116	1356.7202	1358.4267	1380.429	1460.5472	1468.8947	1490.3954	1806.9002	1823.9383	3045.5035	3092.6324	3113.9811	3161.5432	3177.4458	3484.459	3793.7801
CC(=O)C1(O)COC1=N	CC(=O)[C@@]1(O)CO[C]1[NH]	
InChI=1S/C5H7NO3/c1-3(7)5(8)2-9-4(5)6/h6,8H,2H2,1H3	InChI=1S/C5H7NO3/c1-3(7)5(8)2-9-4(5)6/h6,8H,2H2,1H3/t5-/m0/s1
