19
gdb 36522	3.88617	0.96273	0.81337	1.6298	76.84	-0.2607	0.0479	0.3086	1387.3694	0.159671	-422.992247	-422.983707	-422.982763	-423.025713	32.374	
C	-0.0647209154	-1.2190762442	-0.0270641784	-0.434277
C	-0.0475728232	-0.0175416886	 0.000622916	 0.297619
C	 0.0030541143	 1.4396928814	 0.0348964796	-0.380869
C	 1.4370913738	 2.0026970162	-0.0055949284	-0.007866
C	 2.1722590557	 1.636457897	-1.3022762805	-0.088309
O	 3.4452064767	 2.2646825557	-1.3505288481	-0.23325
C	 3.3272108644	 3.6556723853	-1.23126019	 0.014829
O	 2.750251191	 4.0509266333	-0.014172609	-0.236396
C	 1.4364879548	 3.5321085742	 0.1226960585	-0.100629
H	-0.0918181553	-2.280306225	-0.0509014086	 0.198196
H	-0.5726371988	 1.8441354996	-0.809279646	 0.130947
H	-0.4990908317	 1.7989087547	 0.9429403207	 0.134075
H	 2.008602132	 1.5909924945	 0.8334644624	 0.103022
H	 2.3436246673	 0.5606335274	-1.3743121541	 0.127432
H	 1.5660873249	 1.9471821882	-2.1726149173	 0.08479
H	 4.3372009279	 4.0689120544	-1.2554425151	 0.119182
H	 2.7276959384	 4.0543895567	-2.0738289311	 0.072265
H	 0.7755540964	 3.9699204842	-0.6474305939	 0.085381
H	 1.0725216169	 3.8544525052	 1.1026411134	 0.113858
67.9719	106.9131	170.1258	259.6004	280.8934	345.9393	379.4911	394.7755	447.8347	473.477	561.7668	623.3729	642.0423	678.4018	845.9994	912.7552	925.6924	936.6901	976.9087	987.6513	1066.4014	1069.6024	1097.5596	1122.1413	1179.6586	1199.5701	1234.2927	1237.9691	1290.7871	1321.3565	1333.4946	1352.3587	1369.308	1389.0992	1422.7528	1443.7315	1471.4112	1494.3223	1496.4479	1511.1172	2238.8514	2906.1563	2942.0443	2951.4147	3010.3686	3039.3326	3059.682	3084.4539	3111.2271	3116.9202	3505.4285
C#CCC1COCOC1	C#CCC1COCOC1	
InChI=1S/C7H10O2/c1-2-3-7-4-8-6-9-5-7/h1,7H,3-6H2	InChI=1S/C7H10O2/c1-2-3-7-4-8-6-9-5-7/h1,7H,3-6H2
