14
gdb 57245	2.0803	1.45446	1.22377	3.1044	69.18	-0.2835	-0.0909	0.1926	1083.0467	0.096347	-436.664906	-436.655158	-436.654214	-436.699983	34.109	
C	-0.5950677458	 1.6065940028	-0.0658704553	-0.406983
C	 0.0936114855	 0.2456117609	-0.0066018111	 0.105916
O	 0.9436146762	 0.2368701187	 1.1235877938	-0.431592
C	-0.9013805801	-0.849420798	 0.0802344296	 0.251794
N	-1.6509691915	-1.7268099699	 0.1468102228	-0.321255
C	 0.9361925044	-0.0008603181	-1.3011475042	 0.233535
O	 0.7910717502	 0.6478788004	-2.3056205748	-0.270469
C	 1.9210636902	-1.0587532078	-1.1743361793	 0.233606
C	 2.7133091328	-1.9571425197	-1.0504425888	-0.372838
H	 0.1694109917	 2.3848979717	-0.1082211526	 0.146326
H	-1.2222453135	 1.6769619865	-0.9546881237	 0.156598
H	-1.2037349374	 1.7456212892	 0.8290875393	 0.145535
H	 1.4012563353	-0.6132547373	 1.1617102713	 0.298535
H	 3.4196557319	-2.7485147894	-0.9670533071	 0.231292
32.6044	114.7046	147.031	177.8048	196.7135	231.418	275.7111	320.6569	355.5224	384.0395	454.9923	468.6765	595.2405	620.2807	670.4282	682.6883	714.0033	765.1781	857.5914	950.4108	1048.0422	1130.8722	1174.3071	1178.2936	1378.9596	1409.8656	1474.8315	1484.4674	1793.4438	2208.1048	2347.2936	3069.3106	3151.7409	3165.3459	3486.695	3774.2251
CC(O)(C#N)C(=O)C#C	C[C@@](O)(C#N)C(=O)C#C	
InChI=1S/C6H5NO2/c1-3-5(8)6(2,9)4-7/h1,9H,2H3	InChI=1S/C6H5NO2/c1-3-5(8)6(2,9)4-7/h1,9H,2H3/t6-/m1/s1
