16
gdb 46276	3.16502	1.47252	1.23339	5.4978	68.51	-0.2398	0.0064	0.2462	1016.591	0.125336	-437.853047	-437.845811	-437.844866	-437.885017	27.631	
O	-0.1311821005	 0.0868276329	-0.3738308481	-0.317141
C	-0.0369909425	 1.2280448943	-0.0632753177	 0.423255
O	-1.0258113599	 2.0388126942	 0.4567404932	-0.250124
C	-0.1117130053	 3.1723341861	 0.5716650555	-0.148916
C	 1.0251081171	 2.3312810975	-0.0302668318	 0.1544
C	 2.4125782884	 2.1966165263	 0.6846082548	-0.306216
C	 3.0802507314	 2.6968920955	-0.6036991687	-0.036823
N	 2.7101643483	 1.7175313007	-1.6475095988	-0.311697
C	 1.7631041156	 2.7989705072	-1.2900841612	-0.139355
H	-0.4616481838	 4.0171321571	-0.0274983397	 0.122295
H	 0.0107682688	 3.4695821429	 1.6162354964	 0.122832
H	 2.4966925745	 2.8908343264	 1.523830652	 0.112636
H	 2.6959337768	 1.1893697205	 0.9961442478	 0.133443
H	 3.9670732447	 3.3098447543	-0.6982778011	 0.103292
H	 3.1678558046	 2.001824503	-2.5135735432	 0.235413
H	 1.3952368519	 3.495335581	-2.0337877194	 0.102706
116.7141	121.3279	165.2043	323.9059	331.5793	438.899	455.7921	629.3664	721.4633	752.4597	790.4083	820.1005	836.5042	881.3857	901.9386	935.1087	955.6894	975.2988	1000.1747	1064.7944	1093.386	1095.5841	1132.9297	1141.7171	1161.4344	1188.3804	1221.1888	1247.2905	1290.692	1324.5651	1355.1326	1379.9677	1465.6167	1516.4992	1941.6368	3057.8004	3070.2253	3115.6189	3132.8263	3186.7458	3204.5632	3474.098
O=C1OCC11CC2NC12	O=C1OC[C@]21C[C@H]1N[C@@H]21	
InChI=1S/C6H7NO2/c8-5-6(2-9-5)1-3-4(6)7-3/h3-4,7H,1-2H2	InChI=1S/C6H7NO2/c8-5-6(2-9-5)1-3-4(6)7-3/h3-4,7H,1-2H2/t3-,4-,6-/m1/s1
