20
gdb 70523	2.53565	1.67949	1.21974	2.1587	79.36	-0.2358	0.0233	0.2591	1077.9431	0.172151	-403.142102	-403.133914	-403.13297	-403.174495	32.215	
C	-0.3568662059	 1.4869240965	-0.0685063063	-0.463986
C	-0.0876839916	-0.0062084027	-0.0330892188	 0.318105
C	-0.7123391309	-0.8108332057	 1.0912731955	-0.367034
C	 0.7637541925	-0.5295167771	 1.0886460241	 0.077208
O	 1.6257547318	-1.6322068818	 0.9165725478	-0.234856
C	 2.5660824573	-1.6616108213	-0.0810436207	 0.122971
N	 2.6020701336	-1.189358674	-1.2456998944	-0.246966
C	 1.5416399449	-0.4521829469	-1.9116509068	-0.144394
C	 0.114983214	-0.6671965858	-1.3866939708	-0.297288
H	 0.4187969553	 2.0252064417	-0.6240329898	 0.122811
H	-1.3186001917	 1.6942240373	-0.5517732926	 0.121013
H	-0.3955017694	 1.910706283	 0.9397245209	 0.116389
H	-1.3307063186	-0.3025146664	 1.823666533	 0.112479
H	-1.0067937453	-1.8321868671	 0.8761875952	 0.123246
H	 1.1596127401	 0.1763572313	 1.8157686964	 0.097047
H	 3.399246143	-2.2735301978	 0.2669402211	 0.11712
H	 1.7994121419	 0.6158766439	-1.8890878163	 0.111456
H	 1.5848526091	-0.7374246213	-2.9699638256	 0.108571
H	-0.0762103694	-1.7435464038	-1.3253985982	 0.109502
H	-0.6060860908	-0.2628499419	-2.1084127437	 0.096608
100.1908	174.0167	210.3753	238.4485	311.9712	343.1751	375.6263	420.1555	445.7707	482.774	593.1437	698.5449	757.3514	828.1424	845.2063	880.4011	926.2626	940.5156	964.6024	985.4892	1009.5348	1025.5686	1054.0852	1071.6231	1101.4038	1121.4698	1126.9778	1175.0649	1205.1011	1280.97	1301.499	1333.8093	1370.7942	1390.5496	1415.5443	1421.3813	1435.219	1475.4924	1485.5078	1492.0104	1496.7841	1503.9547	1765.0084	3012.9468	3023.6366	3028.4388	3043.9198	3076.7824	3089.41	3100.215	3122.682	3130.4481	3133.3434	3222.2868
CC12CC1OC=NCC2	C[C@]12C[C@H]1OC=NCC2	
InChI=1S/C7H11NO/c1-7-2-3-8-5-9-6(7)4-7/h5-6H,2-4H2,1H3	InChI=1S/C7H11NO/c1-7-2-3-8-5-9-6(7)4-7/h5-6H,2-4H2,1H3/t6-,7+/m1/s1
