16
gdb 22376	3.22798	1.2021	1.01786	2.7315	69.48	-0.2482	-0.0131	0.2351	1161.16	0.122226	-474.929826	-474.921394	-474.92045	-474.963103	31.37	
O	-0.1598349464	 1.3323640896	 0.4229412554	-0.38578
N	-0.0122113331	-0.0616792761	 0.3975939192	-0.234601
C	-1.0594322157	-0.6237710466	-0.0374202988	 0.448691
C	-2.4513479834	-0.177565123	-0.4589297338	-0.409668
C	-2.8267900724	-1.6876556617	-0.6173390798	 0.342466
O	-3.9249106195	-2.1720168221	 0.0840940886	-0.470961
C	-2.4782921649	-2.2950349993	-1.991878915	-0.12582
O	-1.1080678314	-2.5267393292	-1.5859296518	-0.284706
C	-1.3647623068	-2.0911833855	-0.2285932658	-0.043056
H	 0.6887076478	 1.6222999607	 0.7758738448	 0.3107
H	-2.9949181876	 0.3080096212	 0.3583130029	 0.132348
H	-2.5169838304	 0.4492539044	-1.3528400184	 0.125297
H	-4.695831663	-1.6400703947	-0.1413786391	 0.287647
H	-3.0048681153	-3.2381579766	-2.1831107381	 0.108917
H	-2.5495388764	-1.6419795033	-2.8698718634	 0.101281
H	-1.0681161715	-2.8223277678	 0.5250354032	 0.097245
64.9239	157.8278	161.5684	205.2049	275.338	351.1985	380.4021	391.7341	420.1227	485.1217	559.3383	647.8929	696.628	788.7207	875.9348	887.7298	927.0155	967.6394	996.9054	1010.8229	1035.4392	1083.9156	1135.635	1168.4096	1176.3109	1185.548	1226.211	1265.8065	1295.0838	1322.3062	1392.9266	1408.3073	1448.9146	1513.6446	1779.0211	3015.564	3049.2879	3068.8137	3102.5688	3108.6933	3804.487	3811.9211
ON=C1CC2(O)COC12	ON=C1C[C@@]2(O)CO[C@@H]12	
InChI=1S/C5H7NO3/c7-5-1-3(6-8)4(5)9-2-5/h4,7-8H,1-2H2	InChI=1S/C5H7NO3/c7-5-1-3(6-8)4(5)9-2-5/h4,7-8H,1-2H2/t4-,5+/m0/s1
