21
gdb 84453	2.66532	1.51253	1.23711	1.1736	83.33	-0.244	0.0144	0.2585	1113.3445	0.182712	-387.093809	-387.085113	-387.084169	-387.126675	34.186	
C	-0.0375561418	 1.6167244703	-0.0417979973	-0.40214
C	 0.0175194213	 0.0838486127	-0.0180452224	-0.043077
C	 0.7485937684	-0.5406650967	-1.1939359234	-0.055907
C	 1.5651017586	-1.5314198455	-0.8365297444	-0.17895
C	 1.5342281546	-1.7896990706	 0.6530354342	 0.394544
O	 0.9718487596	-3.0453379083	 0.9899077494	-0.48327
C	 2.7939106402	-1.3414495958	 1.4437056394	-0.291965
C	 2.13203862	 0.052596923	 1.6256058436	-0.232937
C	 0.7593827606	-0.5475512749	 1.179509241	-0.052502
H	 0.9618649916	 2.0609757614	-0.066302195	 0.118706
H	-0.5781519014	 1.9710590675	-0.9260186852	 0.111579
H	-0.5568654007	 2.0030891946	 0.8412662825	 0.11488
H	-1.0226590203	-0.2759772406	-0.0270998194	 0.085714
H	 0.5915972266	-0.2013156122	-2.2138714572	 0.091405
H	 2.1733464852	-2.1238439728	-1.5148596505	 0.084961
H	 1.4168882983	-3.7249966926	 0.4724157317	 0.272388
H	 2.859276178	-1.895469285	 2.3841150168	 0.103811
H	 3.7609345691	-1.3816954666	 0.9338677047	 0.087469
H	 2.1673508405	 0.4811922969	 2.628766582	 0.099163
H	 2.5208928547	 0.7905670713	 0.9212697357	 0.103267
H	 0.1114341169	-0.771408426	 2.028863364	 0.07286
111.4659	139.6775	190.5722	223.1737	229.0503	287.1388	323.6789	394.1137	466.9949	524.7139	611.7164	652.7562	697.6766	754.3852	793.3257	806.2155	878.2487	882.3742	933.1953	945.0229	975.5393	986.628	1024.6249	1037.5977	1067.7468	1116.7935	1125.1783	1130.9982	1158.7393	1169.878	1214.2434	1234.0308	1265.7222	1268.1561	1299.2175	1326.221	1339.7761	1361.997	1383.6266	1412.1893	1472.7393	1488.2639	1498.745	1503.3032	1674.688	2983.2884	3033.7741	3049.553	3074.1892	3094.1667	3097.279	3103.5695	3109.0606	3129.2252	3156.9399	3184.0693	3803.9882
CC1C=CC2(O)CCC12	C[C@H]1C=C[C@@]2(O)CC[C@@H]12	
InChI=1S/C8H12O/c1-6-2-4-8(9)5-3-7(6)8/h2,4,6-7,9H,3,5H2,1H3	InChI=1S/C8H12O/c1-6-2-4-8(9)5-3-7(6)8/h2,4,6-7,9H,3,5H2,1H3/t6-,7-,8+/m0/s1
