21
gdb 58897	3.04078	1.3043	1.08506	1.1756	77.85	-0.228	0.0721	0.3001	1194.9152	0.182302	-424.218198	-424.2092	-424.208256	-424.251635	34.757	
C	 0.0427732141	 1.508808099	 0.170154221	-0.412937
C	 0.038262149	-0.0122550573	 0.0341228331	 0.038342
O	 0.7276042961	-0.6462598456	 1.1062715314	-0.428701
C	-1.3674130006	-0.567662854	-0.1051257737	 0.463313
C	-2.2296789484	-0.9429595115	 1.0769223364	-0.371883
C	-1.7532916251	-2.0019840862	 0.0898280741	-0.112981
C	-2.6705027415	-2.3430554749	-1.0722348792	-0.243043
C	-3.0604965714	-0.952492478	-1.6228353647	-0.096353
O	-2.0177624924	-0.0520752309	-1.2450052318	-0.311799
H	 1.0687183373	 1.8832998522	 0.2262664109	 0.117255
H	-0.4617782093	 1.9694902583	-0.6824581407	 0.141964
H	-0.492210226	 1.8139931266	 1.0785797086	 0.106052
H	 0.5905264997	-0.2926381301	-0.8714449513	 0.093064
H	 0.4790961127	-0.1943945928	 1.9195797168	 0.281618
H	-1.7616511538	-0.9621729897	 2.0549311485	 0.101264
H	-3.2735934251	-0.6469996445	 1.085528123	 0.110873
H	-1.0266462147	-2.7283171695	 0.4316843486	 0.102511
H	-2.1133502088	-2.9190270406	-1.818675214	 0.108996
H	-3.5530214107	-2.9259781947	-0.7909026151	 0.104178
H	-3.1530334184	-0.9224550772	-2.7121414283	 0.1096
H	-4.0160010926	-0.6180293785	-1.1957935434	 0.098665
74.6251	146.1115	183.7556	221.7773	245.7248	267.0679	302.9903	354.6422	411.1999	475.6546	486.2036	656.0292	671.3212	708.7386	821.0452	862.09	871.568	907.0322	928.0193	941.269	976.3475	1013.5006	1022.3608	1052.8346	1065.0672	1086.7479	1101.9331	1130.4813	1140.8689	1208.8821	1220.6148	1237.7299	1276.5354	1302.5716	1324.9666	1367.8044	1389.2823	1396.4965	1403.9977	1411.2213	1478.8132	1489.3137	1495.7593	1498.0984	1528.4721	3004.7148	3025.4472	3036.7469	3045.0958	3079.2163	3092.2326	3101.0322	3130.5739	3132.5501	3191.5919	3216.7104	3807.9372
CC(O)C12CC1CCO2	C[C@@H](O)[C@]12C[C@H]1CCO2	
InChI=1S/C7H12O2/c1-5(8)7-4-6(7)2-3-9-7/h5-6,8H,2-4H2,1H3	InChI=1S/C7H12O2/c1-5(8)7-4-6(7)2-3-9-7/h5-6,8H,2-4H2,1H3/t5-,6-,7-/m1/s1
