17
gdb 36462	2.90207	1.08069	0.85738	4.1676	79.17	-0.244	0.0212	0.2652	1319.6957	0.135719	-380.827205	-380.818314	-380.817369	-380.861509	32.314	
C	-0.1023313138	-1.2756223985	-0.0124178691	-0.477975
C	-0.0780213546	-0.0736769492	 0.022783091	 0.359111
C	-0.0499196879	 1.3737721186	 0.0610576901	-0.230121
C	-0.1192312481	 2.0141528589	 1.4862294035	-0.166594
N	 1.3404139861	 2.233152366	 1.4367607628	-0.300323
C	 1.3681330813	 2.0454944051	-0.0224316323	 0.034727
C	 2.5445088489	 1.2125710424	-0.5431151312	-0.343558
C	 3.805702181	 1.9353663013	-0.4015179211	 0.256857
N	 4.7865299303	 2.5349856668	-0.2823777452	-0.308302
H	-0.1315253397	-2.3369713312	-0.0394570086	 0.205316
H	-0.7686098098	 1.7814890502	-0.6531974172	 0.113552
H	-0.726610668	 2.929144745	 1.4844724005	 0.100275
H	-0.4526712718	 1.3609650686	 2.296777995	 0.121946
H	 1.6772261806	 3.1260616828	 1.7775913087	 0.231931
H	 1.3039178501	 2.9796433793	-0.598391821	 0.086566
H	 2.5976232383	 0.273669917	 0.0151661689	 0.166314
H	 2.3917772369	 0.9636479769	-1.5996626949	 0.150278
65.0197	94.9576	101.73	158.6198	222.7753	310.9529	390.3391	396.9468	470.8014	532.5085	568.2547	626.5926	646.7516	693.3732	804.0576	819.5826	872.7608	944.6283	970.5954	997.6831	1038.5742	1060.4612	1109.3334	1127.4698	1144.5987	1187.0723	1227.7983	1256.0374	1297.9159	1340.5465	1359.9717	1383.7774	1399.9946	1451.1443	1521.2838	2234.0112	2360.6908	2996.5024	3010.0266	3051.8194	3082.4177	3090.6523	3107.1	3502.186	3543.3878
C#CC1CNC1CC#N	C#C[C@H]1CN[C@H]1CC#N	
InChI=1S/C7H8N2/c1-2-6-5-9-7(6)3-4-8/h1,6-7,9H,3,5H2	InChI=1S/C7H8N2/c1-2-6-5-9-7(6)3-4-8/h1,6-7,9H,3,5H2/t6-,7-/m0/s1
