15
gdb 34847	4.02967	1.33453	1.24838	2.9398	69.1	-0.2706	-0.0134	0.2572	990.9448	0.115566	-416.811253	-416.804575	-416.80363	-416.842342	26.081	
N	-0.013377535	-1.12705782	-0.0233077904	-0.325643
C	-0.0161777452	 0.0296390844	-0.0092379555	 0.278116
C	-0.007823348	 1.4772551942	 0.0156463532	-0.193955
C	-0.1139851326	 2.0800283218	 1.4613471407	 0.115753
C	 1.4177015908	 1.9124680193	 1.5784982266	-0.268361
C	 1.4307865136	 2.1313935923	 0.0380515204	 0.000572
N	 1.2748483486	 3.5587363044	-0.2423607039	-0.25132
C	 0.3557684876	 4.1062761754	 0.4382161316	 0.105241
O	-0.4441385119	 3.4711004382	 1.3337144732	-0.233034
H	-0.701041366	 1.8800447007	-0.7258221694	 0.136389
H	-0.8008029483	 1.6522925518	 2.188371329	 0.117413
H	 1.9615158882	 2.63186781	 2.1916447152	 0.124996
H	 1.6768669649	 0.8896229508	 1.8549268825	 0.14414
H	 2.2140804451	 1.6925952842	-0.5761570653	 0.105596
H	 0.1142814682	 5.1623064026	 0.3625599122	 0.144096
146.6187	148.5972	313.2458	357.58	422.6627	481.6929	503.2094	536.7148	605.2882	766.7269	854.8216	865.3654	905.1046	909.7727	945.3645	954.7041	974.5352	1012.5979	1050.5034	1092.3158	1137.49	1148.4456	1155.9422	1212.2972	1246.0996	1266.8247	1295.9724	1318.7211	1360.8817	1390.2621	1482.8205	1698.5347	2350.6269	3087.2239	3096.2134	3137.9555	3146.9579	3153.241	3193.543
N#CC1C2CC1N=CO2	N#C[C@H]1[C@H]2C[C@@H]1[N][CH]O2	
InChI=1S/C6H6N2O/c7-2-4-5-1-6(4)9-3-8-5/h3-6H,1H2	InChI=1S/C6H6N2O/c7-2-4-5-1-6(4)9-3-8-5/h3-6H,1H2/t4-,5+,6-/m1/s1
