21
gdb 58718	2.18194	1.40507	1.2287	2.933	78.6	-0.2534	-0.0353	0.218	1167.4139	0.181073	-424.229203	-424.21968	-424.218736	-424.263253	35.919	
C	 0.1380737132	 1.5625262294	-0.1657401876	-0.424998
C	 0.0306672076	 0.0524640332	 0.0754897147	 0.072949
O	 0.6503693298	-0.3290057022	 1.2936249153	-0.447907
C	-1.4174595479	-0.4791748001	 0.0139119539	 0.233062
C	-2.0483161499	-0.5042110696	-1.4153286148	-0.283561
C	-1.705930935	-2.0112853898	-1.5387501307	-0.21086
C	-1.4688412632	-2.054428784	-0.0077340041	-0.263613
C	-2.290907968	 0.0760314028	 1.1060172756	 0.110868
O	-1.9017228707	 0.6114591753	 2.1198637118	-0.281026
H	 1.1896428482	 1.8587696454	-0.1289050954	 0.125935
H	-0.2625202173	 1.8469271324	-1.1441548672	 0.110353
H	-0.4016378935	 2.1218455434	 0.60323121	 0.132035
H	 0.6012961535	-0.4635585123	-0.7077076766	 0.081548
H	 0.1297804672	 0.0875573838	 1.9942463811	 0.291229
H	-3.1278433381	-0.3234220392	-1.3852865966	 0.103845
H	-1.6093951036	 0.1772054866	-2.1475506031	 0.10995
H	-2.4860777801	-2.663783662	-1.9359495333	 0.104218
H	-0.7904732134	-2.1880420954	-2.1083333653	 0.113601
H	-0.5650173457	-2.5314864914	 0.3734207594	 0.134654
H	-2.3305221735	-2.4533298335	 0.5361977555	 0.104145
H	-3.3832153393	-0.0811667329	 0.9449012275	 0.083573
100.0076	111.6333	123.927	207.512	220.5329	244.8103	291.3201	310.1554	380.0542	457.0191	481.5799	487.6966	561.1679	687.8387	764.124	777.2915	850.6223	888.9943	921.151	935.438	952.7311	967.3298	1031.0501	1058.5043	1077.2575	1096.5303	1117.1233	1143.6142	1210.9479	1217.0343	1258.9963	1275.8015	1280.9319	1302.7948	1339.1953	1361.978	1405.6994	1430.0029	1446.9681	1475.4963	1484.8072	1495.0087	1505.0787	1506.4319	1794.3814	2857.8212	3021.9273	3043.1062	3049.3413	3057.3352	3069.2927	3102.5783	3113.6647	3118.9152	3127.7019	3132.5662	3749.1233
CC(O)C1(CCC1)C=O	C[C@@H](O)C1(CCC1)C=O	
InChI=1S/C7H12O2/c1-6(9)7(5-8)3-2-4-7/h5-6,9H,2-4H2,1H3	InChI=1S/C7H12O2/c1-6(9)7(5-8)3-2-4-7/h5-6,9H,2-4H2,1H3/t6-/m1/s1
