17
gdb 19842	3.35397	2.54212	1.81403	1.3387	66.63	-0.2184	0.0828	0.3012	762.9066	0.144767	-363.802762	-363.796624	-363.795679	-363.832594	25.515	
C	 0.0704488658	 1.5868988613	-0.1793929552	-0.363415
C	 1.3074450329	 0.7465245295	 0.0202968731	 0.140895
O	 2.0486342634	 0.7820116625	 1.2046627388	-0.25011
C	 1.2687779333	 0.8765913175	 2.3927978772	-0.123814
C	 0.2197549477	-0.2200345627	 2.4672235987	-0.01909
C	-1.224706887	 0.1008082266	 2.2595063151	-0.250819
N	-0.4677753291	-0.5790826148	 1.2208397526	-0.082072
C	-0.0404195007	 0.07442129	 0.0087693488	-0.027868
H	-0.2584679889	 2.2432692023	 0.6165830487	 0.117769
H	-0.1215908361	 1.9772014588	-1.1728987619	 0.115497
H	 1.9831016538	 0.5983950804	-0.8143138434	 0.104688
H	 1.9818847316	 0.7766879477	 3.2140810626	 0.118187
H	 0.8171091667	 1.8760531395	 2.4691716454	 0.097303
H	 0.4886420948	-1.0795084905	 3.0771642026	 0.095724
H	-1.995671951	-0.499036045	 2.7357679349	 0.116929
H	-1.4888682691	 1.1474604242	 2.1192033304	 0.110388
H	-0.313987158	-0.4959519374	-0.8735593383	 0.099807
222.9474	243.9823	359.9055	401.2707	456.9697	522.4729	553.1344	659.9592	739.7684	790.423	795.418	835.7477	878.002	929.254	968.0121	982.6153	1021.6775	1034.9411	1053.9234	1086.3034	1120.2222	1126.5175	1139.6042	1150.6873	1172.6618	1186.6942	1232.9943	1282.7178	1337.2885	1362.539	1379.9614	1402.8137	1422.1515	1473.234	1501.2024	1517.5612	2994.6276	3098.1519	3098.8919	3127.6148	3142.8917	3146.6834	3177.7449	3181.8467	3231.3274
C1C2OCC3CN3C12	C1[C@H]2OC[C@H]3CN3[C@@H]12	
InChI=1S/C6H9NO/c1-5-6(1)8-3-4-2-7(4)5/h4-6H,1-3H2	InChI=1S/C6H9NO/c1-5-6(1)8-3-4-2-7(4)5/h4-6H,1-3H2/t4-,5+,6-,7?/m1/s1
