19
gdb 56750	2.86624	1.31451	1.08646	1.4115	81.1	-0.2608	0.0306	0.2915	1164.0915	0.158434	-385.798448	-385.789837	-385.788893	-385.831875	33.293	
O	-0.0537022996	 1.4288340256	 0.0662776452	-0.409327
C	 0.047024573	 0.0068055159	 0.0372221166	-0.212739
C	 0.677103173	-0.4727000482	-1.198134637	 0.303885
C	 1.2375027829	-0.8449115795	-2.1947309153	-0.45932
C	 0.771879829	-0.5205865027	 1.2630634278	 0.375235
C	 2.2480891244	-0.2332357538	 1.6811150629	-0.264339
C	 1.6569846577	-1.1451454073	 2.7945520354	-0.049504
C	 0.3769446748	-0.2622938042	 2.7477434932	-0.262457
C	 1.02593528	-2.0050330915	 1.6608705472	-0.260162
H	 0.8325080876	 1.780112641	-0.0768005392	 0.286353
H	-0.9916767623	-0.3462686972	 0.0699626536	 0.118006
H	 1.7119628041	-1.176055603	-3.0854674948	 0.199804
H	 3.027592141	-0.6668575806	 1.0494140694	 0.097472
H	 2.4853104481	 0.7953738393	 1.9686215985	 0.087886
H	 2.1722331232	-1.5074840316	 3.683958727	 0.074596
H	 0.4702321707	 0.7667574474	 3.1023691262	 0.096828
H	-0.5526929273	-0.7246613266	 3.0919150545	 0.089339
H	 0.1443007246	-2.5959819847	 1.9252900385	 0.090117
H	 1.713307835	-2.5683202883	 1.0249487604	 0.098329
58.6626	111.8904	173.6121	203.9837	267.1194	318.5103	396.0746	449.8753	539.3841	553.5306	586.0783	630.8559	670.0499	715.9125	802.2739	811.412	882.828	915.7162	955.6097	961.8258	963.9942	994.4361	995.5422	1056.7941	1095.2425	1100.381	1133.2751	1143.7879	1151.3154	1164.0412	1224.9171	1233.3029	1234.8542	1267.3373	1300.6164	1330.1187	1413.1768	1497.4322	1498.9084	1554.8482	2230.2399	3032.4881	3045.618	3048.4943	3055.6702	3112.7022	3113.8003	3118.6826	3121.3204	3502.3166	3803.4964
OC(C#C)C12CC(C1)C2	O[C@@H](C#C)[C@@]12C[C@@H](C1)C2	
InChI=1S/C8H10O/c1-2-7(9)8-3-6(4-8)5-8/h1,6-7,9H,3-5H2	InChI=1S/C8H10O/c1-2-7(9)8-3-6(4-8)5-8/h1,6-7,9H,3-5H2/t6-,7-,8-/m0/s1
