18
gdb 70385	2.38839	1.58471	1.34425	4.1261	75.72	-0.2574	0.0095	0.2669	1048.0744	0.145687	-401.92567	-401.91682	-401.915876	-401.958655	33.454	
C	-0.1185250198	 1.5728443379	 0.046332022	-0.503867
C	 0.0017420724	 0.0776403045	 0.0355461031	 0.231573
C	-0.820794149	-0.8532797489	 0.9117431766	-0.360487
C	 0.6702780711	-0.9133815488	 0.9599509775	 0.067512
O	 1.1547158331	-1.7222565404	-0.1236817411	-0.319217
C	 0.643185039	-0.7653225819	-1.096387155	 0.202248
C	-0.2196997893	-1.3993731485	-2.1779931354	-0.446798
C	 1.7822294329	-0.0505158615	-1.7028565088	 0.284192
N	 2.6594586934	 0.5272667602	-2.1846422488	-0.345633
H	 0.7996741506	 2.0501143327	-0.3092403941	 0.150155
H	-0.9449398197	 1.9091837603	-0.5905149587	 0.128609
H	-0.3176388038	 1.9348672075	 1.0594354212	 0.127076
H	-1.3001818634	-0.343042315	 1.7420809596	 0.123004
H	-1.3773630683	-1.6948628129	 0.5110924361	 0.121282
H	 1.3044009963	-0.8049245189	 1.8312380186	 0.11754
H	-1.083673834	-1.8945655358	-1.7316124381	 0.132479
H	-0.5675987634	-0.6365092014	-2.8806365786	 0.140461
H	 0.361024262	-2.140544469	-2.7337581763	 0.149871
130.9292	139.9373	183.7361	208.8699	217.6172	252.5121	326.9362	352.626	443.3071	476.5508	525.16	557.9963	648.843	661.0231	808.7762	855.7513	877.9143	896.4734	935.2912	982.0341	1001.1351	1034.3813	1067.2906	1099.7806	1118.228	1122.6242	1169.1378	1206.9039	1256.0857	1288.6278	1387.6861	1408.7232	1428.2695	1477.9892	1482.8397	1487.7176	1492.3723	1500.3185	2353.3196	3031.5554	3052.1547	3094.4208	3112.673	3120.9274	3125.4932	3143.1854	3193.0843	3209.8006
CC12CC1OC2(C)C#N	C[C@]12C[C@H]1O[C@]2(C)C#N	
InChI=1S/C7H9NO/c1-6-3-5(6)9-7(6,2)4-8/h5H,3H2,1-2H3	InChI=1S/C7H9NO/c1-6-3-5(6)9-7(6,2)4-8/h5H,3H2,1-2H3/t5-,6+,7-/m1/s1
