16
gdb 56755	2.99335	1.38599	1.13771	4.6618	68.84	-0.2635	0.0105	0.274	1073.8677	0.123587	-437.817878	-437.809876	-437.808931	-437.850803	30.069	
O	 0.1898764449	 1.4521162745	 0.0758789685	-0.402131
C	 0.0517429666	 0.0509692255	 0.0422906126	-0.162142
C	 0.6556552236	-0.537287208	-1.1762532875	 0.272063
N	 1.1259411366	-1.0000253935	-2.1243225949	-0.321438
C	 0.6641632949	-0.5640771976	 1.2828058172	 0.414696
C	 0.3188619132	-0.2856886785	 2.7670466949	-0.265806
C	 1.6747826724	-1.0239150183	 2.6779401931	 0.048146
C	 1.0770924105	-2.0108803308	 1.6446713898	-0.269858
O	 2.0589534201	-0.1266211214	 1.5535286276	-0.351636
H	 1.0998284738	 1.6330803031	 0.3501502297	 0.308562
H	-1.0226435792	-0.164970525	 0.0225123761	 0.146864
H	 0.3739105407	 0.7603445007	 3.0666582361	 0.121395
H	-0.5294183463	-0.8178168731	 3.203297686	 0.105834
H	 2.4219846658	-1.1977617356	 3.4498182741	 0.113021
H	 0.2967038832	-2.6966224939	 1.981185756	 0.1073
H	 1.7957295892	-2.4683467582	 0.9654069207	 0.135129
66.9461	114.5566	177.439	221.9853	311.601	396.6375	434.8303	459.4928	520.3146	590.3167	617.3705	702.1582	765.0505	810.3578	892.5063	926.8106	943.8473	958.9702	984.6383	992.839	1075.6416	1090.2607	1111.1091	1122.5929	1161.2702	1213.9376	1227.5256	1239.2832	1257.2643	1303.2091	1344.1412	1433.076	1467.8549	1512.7353	2359.358	3059.7871	3071.6288	3079.6539	3142.0778	3161.2903	3166.0515	3760.0313
OC(C#N)C12CC(C1)O2	O[C@@H](C#N)[C@@]12C[C@@H](C1)O2	
InChI=1S/C6H7NO2/c7-3-5(8)6-1-4(2-6)9-6/h4-5,8H,1-2H2	InChI=1S/C6H7NO2/c7-3-5(8)6-1-4(2-6)9-6/h4-5,8H,1-2H2/t4-,5-,6+/m0/s1
