15
gdb 127196	2.39973	2.03913	1.11001	2.6603	73.42	-0.2479	-0.0723	0.1757	1018.754	0.114377	-446.286997	-446.278868	-446.277924	-446.320516	29.394	
C	-0.0032428885	 1.3487427017	 0.5380174308	-0.336357
N	-0.0285976675	-0.0451123723	 0.0963112776	-0.16667
C	-1.2327826994	-0.6632361233	-0.1763582692	 0.509144
N	-2.3550089605	-0.0723830508	-0.0615386912	-0.565904
N	-1.0584213559	-1.9909475643	-0.5849123454	-0.31327
N	 0.1059188952	-2.6585220539	-0.7204198623	-0.020496
N	 1.1841133287	-2.0702166596	-0.4654226721	-0.253663
C	 1.1862573329	-0.7109670465	-0.0363235233	 0.465375
N	 2.276825446	-0.1076086935	 0.2235209092	-0.532264
H	 0.5856164865	 1.9425722238	-0.1649008765	 0.150844
H	-1.0287290494	 1.7051971427	 0.5849040129	 0.173787
H	 0.477948672	 1.4117549407	 1.516763422	 0.150833
H	-3.1339434702	-0.6791039105	-0.3035287842	 0.219314
H	-1.8688742857	-2.5448819211	-0.8110276189	 0.280161
H	 3.047589236	-0.7561900533	 0.0678960106	 0.239167
46.7897	96.0085	127.2984	206.194	348.3689	395.7413	395.9572	523.4435	539.0812	564.9539	579.8691	696.0669	706.2219	744.9606	764.847	881.468	907.9059	977.4759	1061.795	1081.3371	1139.0502	1160.4647	1198.2171	1259.5948	1348.9545	1416.1585	1442.1487	1471.9539	1486.2771	1508.0817	1604.8803	1705.508	1743.5329	3064.3463	3125.9258	3196.9177	3507.7108	3527.7386	3652.3631
CN1C(=N)NN=NC1=N	CN1[C@H]([NH])N[N]N=C1[NH]	
InChI=1S/C3H6N6/c1-9-2(4)6-8-7-3(9)5/h1H3,(H3,4,5,6,7)	InChI=1S/C3H7N6/c1-9-2(4)6-8-7-3(9)5/h2,4H,1H3,(H2,5,6,7)/t2-/m1/s1
