22
gdb 64338	2.39573	1.39746	1.13849	2.5509	81.8	-0.2112	-0.0136	0.1976	1192.5887	0.194495	-404.378873	-404.369612	-404.368667	-404.412433	36.045	
C	 0.0240480629	 1.5398865434	 0.0124620115	-0.41721
C	-0.0512944151	 0.0064785803	-0.0064624655	 0.240992
C	-1.5261726626	-0.4338232036	-0.0020309427	-0.416098
C	 0.6716588166	-0.5294079186	-1.2692333953	-0.179466
N	 0.8124412621	-1.9813524525	-1.344737537	-0.291953
C	 1.4859010809	-2.5481214599	-0.1717281451	-0.259011
C	 0.8855931633	-2.0773797933	 1.1539318234	 0.372543
O	 0.6030646522	-2.8378248422	 2.0513753233	-0.309914
C	 0.6715337436	-0.57240153	 1.2398529879	-0.314237
H	 1.0630906982	 1.8865620316	-0.0137408849	 0.111403
H	-0.4944975517	 1.9696512284	-0.8519479615	 0.113148
H	-0.442075401	 1.9470894342	 0.9160327961	 0.115646
H	-2.0498269879	-0.0572102527	-0.8876179179	 0.112843
H	-1.6335351267	-1.52368349	 0.0152929062	 0.114146
H	-2.0440169754	-0.0480036126	 0.8821616036	 0.121456
H	 0.145683515	-0.1880839939	-2.168410585	 0.100541
H	 1.6814236211	-0.0961021211	-1.3097111606	 0.097939
H	-0.0993769829	-2.4133603392	-1.4510133038	 0.224725
H	 1.4563043539	-3.6394728215	-0.2095897183	 0.122808
H	 2.542134925	-2.2397615252	-0.1999973306	 0.117222
H	 1.667542052	-0.1110211206	 1.3127973963	 0.110325
H	 0.1328892467	-0.344522261	 2.16450912	 0.112151
79.9283	117.2325	211.7563	236.2543	263.1431	289.4265	314.4366	375.8152	389.6614	426.6848	443.6166	490.3685	534.0863	633.3717	737.1457	777.9712	842.0967	857.765	910.686	926.668	939.7657	949.6375	985.8323	1032.0226	1057.1255	1119.7609	1148.4686	1176.9524	1194.9195	1241.9771	1261.3895	1297.0461	1302.8794	1339.7963	1354.3097	1375.1903	1401.6011	1424.8535	1454.8007	1461.921	1475.9337	1482.3785	1489.0552	1495.4058	1503.1629	1509.2856	1814.853	2996.747	3002.5766	3008.9349	3023.2195	3029.5395	3060.9155	3086.787	3091.5479	3094.6929	3095.4826	3100.7799	3109.0671	3524.5768
CC1(C)CNCC(=O)C1	CC1(C)CNCC(=O)C1	
InChI=1S/C7H13NO/c1-7(2)3-6(9)4-8-5-7/h8H,3-5H2,1-2H3	InChI=1S/C7H13NO/c1-7(2)3-6(9)4-8-5-7/h8H,3-5H2,1-2H3
