16
gdb 24669	4.45394	1.15805	0.97858	1.8596	78.7	-0.2515	-0.0262	0.2253	1177.5501	0.126794	-400.784876	-400.777814	-400.77687	-400.816867	26.901	
C	 0.9232216848	 0.7777129538	-0.2821758286	-0.175999
O	-0.29087582	 0.2974061922	-0.8532529085	-0.229596
C	-0.3206037249	 0.7245254392	 0.5097241128	 0.00372
C	-0.5460137039	-0.3205245706	 1.5494616345	 0.314292
N	-0.8377224778	 0.1390447038	 2.7722901813	-0.324606
C	-1.0265535933	-0.7593535162	 3.7412775037	-0.006093
C	-0.946380389	-2.1351421864	 3.5452683849	-0.120248
C	-0.6575078174	-2.6018539583	 2.2660055742	-0.08121
C	-0.4538874574	-1.6808468295	 1.24654912	-0.17303
H	 1.6910765674	 0.0246515055	-0.1116090923	 0.117981
H	 1.2761507055	 1.7348784753	-0.6631788093	 0.123997
H	-0.846874028	 1.6588584075	 0.697170926	 0.109886
H	-1.2608749887	-0.3572338538	 4.724342355	 0.108638
H	-1.1153279291	-2.8171713234	 4.3708517203	 0.103086
H	-0.5982683739	-3.6667043171	 2.0652197027	 0.109516
H	-0.2452329343	-1.987161972	 0.2286319933	 0.119665
73.925	145.5414	199.1227	326.3719	416.7498	419.9911	553.6277	587.5976	637.9497	776.9103	779.1579	805.02	870.2327	914.4338	927.2771	983.8272	1004.5011	1008.98	1014.9047	1067.6479	1092.3068	1113.2785	1152.2412	1169.0474	1173.1718	1252.9855	1266.0218	1306.9465	1317.993	1414.7823	1465.5494	1508.9299	1523.6323	1613.7343	1631.8744	3084.3965	3133.9373	3152.7805	3176.6816	3179.9582	3200.7915	3211.4421
C1OC1C1=NC=CC=C1	C1O[C@H]1c1ncccc1	
InChI=1S/C7H7NO/c1-2-4-8-6(3-1)7-5-9-7/h1-4,7H,5H2	InChI=1S/C7H7NO/c1-2-4-8-6(3-1)7-5-9-7/h1-4,7H,5H2/t7-/m1/s1
