19
gdb 70991	3.11006	1.59427	1.47278	1.1569	80.74	-0.2183	0.0079	0.2262	976.8108	0.159503	-385.782394	-385.775137	-385.774193	-385.813299	31.094	
O	-0.0461801901	 1.4852935761	-0.0791046276	-0.485295
C	 0.0182841236	 0.0996093229	-0.0274989834	 0.317618
C	 0.2571513039	-0.7272077035	 1.363518391	-0.369933
C	-0.3781825436	-1.8474363218	 0.4511323108	 0.241547
C	-1.5435982506	-2.8584851145	 0.230982942	-0.319747
C	-2.0311085132	-1.870261669	-0.9164086962	-0.285035
C	-1.2929988492	-0.756718954	-0.1027454678	 0.014082
C	 0.7082593591	-1.938248946	-0.641308091	-0.119942
C	 0.9670879599	-0.6700489185	-0.9539261208	-0.15829
H	 0.8486481808	 1.8382526229	-0.0276374427	 0.281328
H	 1.294141774	-0.8490561952	 1.6896725811	 0.088759
H	-0.3827355984	-0.3784683597	 2.1788769021	 0.102176
H	-1.2784570863	-3.8799547488	-0.0583063692	 0.095805
H	-2.2563627552	-2.8890005748	 1.0589179625	 0.108255
H	-1.5559449339	-2.1134526084	-1.8684167825	 0.117129
H	-3.1069913866	-1.7490967394	-1.059653618	 0.096859
H	-1.9788215644	-0.4060554443	 0.6763218406	 0.08109
H	 1.1383143266	-2.8570960941	-1.0179256845	 0.095252
H	 1.6656452037	-0.2325073298	-1.6543592264	 0.098346
220.035	248.6438	280.1361	289.149	373.8469	439.6264	471.8914	526.8856	587.9884	618.7056	653.7258	696.0442	752.6023	785.5481	828.424	837.6051	860.0602	899.175	903.5577	950.0976	986.5443	1000.096	1025.2453	1062.0509	1072.527	1103.8957	1131.8603	1145.5043	1168.3573	1190.9826	1205.4148	1227.4874	1240.4933	1270.6041	1322.1889	1341.2945	1399.7206	1469.5019	1481.671	1489.226	1634.7534	3039.9432	3047.35	3051.5478	3072.1974	3110.0226	3121.0941	3136.6229	3203.267	3233.0123	3805.4062
OC12CC3(CCC13)C=C2	O[C@@]12C[C@]3(CC[C@H]13)C=C2	
InChI=1S/C8H10O/c9-8-4-3-7(5-8)2-1-6(7)8/h3-4,6,9H,1-2,5H2	InChI=1S/C8H10O/c9-8-4-3-7(5-8)2-1-6(7)8/h3-4,6,9H,1-2,5H2/t6-,7-,8-/m0/s1
