23
gdb 64472	2.45507	1.43773	1.15486	1.0566	86.97	-0.2395	0.0094	0.2489	1199.8522	0.206564	-388.308546	-388.29934	-388.298396	-388.341678	36.829	
C	 0.152854709	 1.6121795445	 0.0149889769	-0.4297
C	-0.0412715645	 0.0887993571	-0.0069009425	 0.331163
O	-1.4491186365	-0.2025895883	-0.1042841108	-0.462118
C	 0.5913942926	-0.4927552189	-1.2884599438	-0.19115
C	 0.2210259846	-1.9432430461	-1.6252837005	-0.196215
C	 0.7121601084	-3.0197483931	-0.6482528469	-0.183022
C	 0.0814854798	-2.9580009397	 0.7556720226	-0.242673
C	 0.5605194992	-1.8015057012	 1.6005720393	-0.072916
C	 0.5385260955	-0.5104047541	 1.2678340944	-0.092994
H	 1.2161972038	 1.8758295893	 0.0075811876	 0.113807
H	-0.3282442333	 2.0661768265	-0.8550071229	 0.118706
H	-0.2915798627	 2.0453211705	 0.918694948	 0.101575
H	-1.8400857734	-0.0104943207	 0.7543610128	 0.273529
H	 0.2729226421	 0.1392160401	-2.1266493615	 0.092881
H	 1.6797778455	-0.3849478331	-1.2087425294	 0.091672
H	-0.8683534742	-2.0105113097	-1.7154564187	 0.114322
H	 0.6293143045	-2.1680400427	-2.6184856468	 0.084045
H	 0.4864864368	-4.0021313284	-1.0812139907	 0.08899
H	 1.8048795196	-2.9673047826	-0.5530865967	 0.08982
H	-1.0100372586	-2.9064633107	 0.6491948088	 0.1163
H	 0.2979202153	-3.8929970875	 1.282785329	 0.090669
H	 0.9728387348	-2.0591016237	 2.5745484034	 0.086787
H	 0.9398946817	 0.2079106826	 1.9804971683	 0.076523
89.2864	181.3606	237.6166	247.8373	264.8637	275.5196	320.5534	334.6963	382.0544	423.551	428.3659	523.2857	573.5822	643.8775	708.7231	766.0287	796.3712	862.1206	867.5604	900.3115	928.3398	962.3134	983.6694	998.9516	1035.4968	1067.8225	1090.3307	1118.151	1135.4897	1147.0754	1216.1817	1247.5589	1270.8024	1283.1522	1312.8841	1352.2943	1371.4209	1386.4554	1389.8433	1399.8213	1404.619	1429.8608	1471.9688	1476.7961	1485.4714	1491.6218	1492.3825	1493.3092	1717.7344	3012.9245	3019.5487	3023.2865	3026.395	3032.0425	3053.6843	3061.6691	3068.5745	3082.1486	3091.5643	3120.0488	3126.0173	3151.0059	3812.6697
CC1(O)CCCCC=C1	C[C@@]1(O)CCCCC=C1	
InChI=1S/C8H14O/c1-8(9)6-4-2-3-5-7-8/h4,6,9H,2-3,5,7H2,1H3	InChI=1S/C8H14O/c1-8(9)6-4-2-3-5-7-8/h4,6,9H,2-3,5,7H2,1H3/t8-/m0/s1
