16
gdb 57179	3.32605	1.12554	0.84549	1.1851	69.34	-0.2575	-0.0917	0.1658	1276.0115	0.123538	-471.251164	-471.241847	-471.240903	-471.287203	32.825	
C	-1.1123415978	 1.1510244054	-0.2941119729	-0.369101
N	-0.2414120272	 0.0001921951	-0.0237702123	-0.198592
C	-0.2199454983	-0.4221017869	 1.3579170017	 0.483566
N	 0.5708037433	-1.4758024151	 1.6340089054	-0.554647
O	-0.8911842161	 0.1689433613	 2.1827465038	-0.40154
C	 0.4757046452	-0.5909480682	-1.0465153189	 0.320903
N	 1.2575751843	-1.596111191	-0.9028042232	-0.52453
C	 0.3286572138	-0.0054820942	-2.456546391	 0.100357
O	 0.934528742	-0.4891459871	-3.3769944381	-0.23423
H	-0.5460356981	 2.0044582537	-0.6783811936	 0.133211
H	-1.9115923902	 0.8963413584	-0.9962753176	 0.133207
H	-1.557047326	 1.4254855637	 0.6594690052	 0.190795
H	 1.1068293832	-1.9252746274	 0.895797945	 0.2951
H	 0.5883391896	-1.7724975851	 2.5940160645	 0.263335
H	 1.6560299511	-1.8261885337	-1.814532198	 0.248294
H	-0.3372256089	 0.8590965813	-2.60640447	 0.113873
14.26	69.168	88.726	212.8613	242.875	275.1481	364.7368	384.467	412.3332	440.0128	467.4258	554.7683	569.1826	690.9263	709.8761	782.8902	805.2548	876.9575	888.6387	1033.3147	1066.4338	1150.3668	1153.7836	1218.4718	1267.8118	1349.8929	1380.4508	1449.001	1463.3097	1509.5436	1519.8541	1594.4165	1673.3754	1807.9746	1818.5878	3009.0174	3041.5604	3101.9727	3178.6961	3414.1077	3467.7342	3706.6507
CN(C(N)=O)C(=N)C=O	CN(C(=O)N)C(=N)C=O	
InChI=1S/C4H7N3O2/c1-7(4(6)9)3(5)2-8/h2,5H,1H3,(H2,6,9)	InChI=1S/C4H7N3O2/c1-7(4(6)9)3(5)2-8/h2,5H,1H3,(H2,6,9)
