13
gdb 25298	4.5469	1.09167	0.88031	5.4165	71.52	-0.2476	-0.1017	0.1459	1202.2971	0.09011	-452.799239	-452.791706	-452.790762	-452.832151	26.483	
O	-0.0121001503	-0.0014743542	 0.0015816137	-0.21926
C	-0.0073461696	 1.1994545269	 0.0087688376	 0.089052
C	 1.3168828928	 1.9899884653	-0.0006827204	 0.204147
O	 2.3961031845	 1.4311960753	-0.015558222	-0.319799
C	 1.2017613295	 3.4452203535	 0.0091735659	 0.264601
N	 0.0941414863	 4.1789769975	 0.0253611077	-0.286981
C	 0.5143852768	 5.4722241589	 0.028549024	-0.087753
C	 1.8973083184	 5.531673833	 0.0141038977	-0.0816
N	 2.3154251438	 4.2379548322	 0.0019225523	-0.261891
H	-0.929110835	 1.8103446462	 0.0222733074	 0.126973
H	-0.1816335325	 6.2970243025	 0.0408980344	 0.128744
H	 2.5854787032	 6.3608620179	 0.0116627988	 0.152631
H	 3.2578961822	 3.879149165	-0.0103146971	 0.291136
67.0877	117.1589	150.5927	195.4372	289.2068	391.5773	509.0405	552.9876	637.291	683.8546	742.967	786.6309	841.2406	878.388	918.183	956.3691	1017.7582	1032.2528	1106.9367	1139.2182	1195.7315	1307.8747	1389.4124	1426.7221	1443.4746	1476.1183	1558.5025	1757.2441	1830.5182	2970.1901	3253.9361	3282.0766	3647.8932
O=CC(=O)C1=NC=CN1	O=CC(=O)c1ncc[nH]1	
InChI=1S/C5H4N2O2/c8-3-4(9)5-6-1-2-7-5/h1-3H,(H,6,7)	InChI=1S/C5H4N2O2/c8-3-4(9)5-6-1-2-7-5/h1-3H,(H,6,7)
