19
gdb 28012	4.6365	1.00215	0.86275	1.8357	83.86	-0.1722	0.0483	0.2206	1354.4179	0.161028	-382.079854	-382.071368	-382.070423	-382.113224	32.72	
N	 0.0546050915	 1.245617188	-0.6589009636	-0.604964
C	 0.046375556	-0.0545858781	-0.1136540958	 0.235471
C	-0.8824204155	-1.0483585778	-0.3353531329	-0.180633
N	-0.5414490345	-2.1413406967	 0.447371836	 0.019341
C	 0.5826491577	-1.8347073954	 1.1670189196	-0.078452
C	 0.9774038919	-0.5570669458	 0.8429897035	-0.242147
C	-1.3440433195	-3.3123538026	 0.6109669884	 0.02706
C	-1.6277301262	-4.1782683543	-0.5893685829	-0.268677
C	-0.6940792842	-4.6649214605	 0.4910232356	-0.273795
H	 0.995620954	 1.5816837475	-0.8223192771	 0.237147
H	-0.460581672	 1.3011450247	-1.5284981289	 0.234487
H	-1.7494857896	-1.0803936579	-0.9748650007	 0.101036
H	 1.0055513744	-2.552296989	 1.8515603607	 0.113196
H	 1.8389378129	-0.037242254	 1.2347955467	 0.083682
H	-2.1436355377	-3.2147019377	 1.342499489	 0.104954
H	-2.6120974761	-4.6247571227	-0.6698244254	 0.117831
H	-1.1850709982	-3.8759707161	-1.5309323067	 0.127919
H	 0.364414731	-4.6870976768	 0.2610909235	 0.127887
H	-1.030929196	-5.4482689348	 1.160078731	 0.118655
64.7024	103.2027	172.7252	181.1071	292.6436	346.7556	370.3455	487.0722	576.8861	618.5568	628.7576	660.0632	697.7391	735.2261	780.9749	786.4171	800.7744	836.4948	893.2511	960.8442	999.2435	1004.5585	1059.5916	1079.6898	1083.6303	1096.7576	1114.3572	1132.6271	1197.8501	1204.6619	1244.8006	1284.0869	1357.963	1393.2528	1421.9118	1448.7643	1462.1624	1500.6491	1541.1749	1623.7589	1657.2935	3115.504	3142.528	3147.0736	3226.3008	3237.7201	3239.9145	3260.3687	3267.2214	3527.7047	3615.3676
NC1=CN(C=C1)C1CC1	Nc1cn(cc1)C1CC1	
InChI=1S/C7H10N2/c8-6-3-4-9(5-6)7-1-2-7/h3-5,7H,1-2,8H2	InChI=1S/C7H10N2/c8-6-3-4-9(5-6)7-1-2-7/h3-5,7H,1-2,8H2
