22
gdb 89036	3.62644	0.71155	0.67463	1.587	83.64	-0.2233	-0.0114	0.2119	1764.3756	0.191116	-404.339917	-404.329237	-404.328293	-404.377761	37.598	
C	-0.4253954337	 1.2883085585	 0.1156136131	-0.314345
N	 0.0177526944	-0.0969333196	 0.1385653785	-0.08022
C	 1.3942748393	-0.3667475867	-0.2612935863	-0.264591
C	 0.9716875114	-0.5547115797	 1.1560070975	 0.017743
C	 1.5203332913	 0.3186141244	 2.2657798483	-0.213011
C	 0.5863894872	 0.3924858744	 3.4768602703	-0.298387
C	 1.1562839137	 1.1955913275	 4.640041174	 0.376239
C	 0.2925648352	 1.2778679254	 5.8870880052	-0.472849
O	 2.2367076324	 1.7363461509	 4.5747764474	-0.289708
H	 0.3446929114	 2.027430886	 0.3861565726	 0.10257
H	-0.770531701	 1.5250267907	-0.89615123	 0.124933
H	-1.2757056325	 1.4123465253	 0.7950588285	 0.117171
H	 1.5470196644	-1.2169899987	-0.9215356269	 0.111441
H	 2.0393044092	 0.4877182637	-0.4689292499	 0.104284
H	 0.7596265697	-1.5752884191	 1.4784272185	 0.08345
H	 2.4851225164	-0.0894879635	 2.587922806	 0.117373
H	 1.7388899531	 1.3286303942	 1.909684092	 0.114532
H	-0.3828356249	 0.8319562897	 3.203302878	 0.124933
H	 0.3423133504	-0.6146797779	 3.844360699	 0.119588
H	-0.6914348218	 1.6958947871	 5.6472772987	 0.137119
H	 0.1191927717	 0.2755305384	 6.2951090821	 0.138804
H	 0.7834365227	 1.897832419	 6.6381005134	 0.142933
18.6551	48.3058	93.6902	114.7202	125.6915	189.3605	243.4571	294.154	306.7479	375.9309	463.2691	477.1582	508.073	589.8762	721.3611	754.5112	788.7433	840.6652	906.7121	935.1678	951.0233	1027.4193	1047.7524	1064.2034	1096.7247	1115.8983	1134.2564	1150.5943	1169.8804	1178.753	1202.9404	1218.2581	1292.1216	1311.7547	1339.5513	1377.3898	1386.5592	1427.1754	1445.2413	1450.3901	1465.5288	1477.2258	1478.3365	1491.4414	1504.5598	1515.3844	1810.8299	2977.169	3014.0786	3037.2992	3040.6587	3053.3554	3061.2749	3079.9802	3083.6884	3094.1267	3097.3085	3104.8026	3152.1771	3166.9471
CN1CC1CCC(C)=O	CN1C[C@H]1CCC(=O)C	
InChI=1S/C7H13NO/c1-6(9)3-4-7-5-8(7)2/h7H,3-5H2,1-2H3	InChI=1S/C7H13NO/c1-6(9)3-4-7-5-8(7)2/h7H,3-5H2,1-2H3/t7-,8?/m1/s1
