16
gdb 115139	3.0229	1.2928	0.94035	5.1715	66.16	-0.2444	-0.0754	0.169	1181.6101	0.125349	-475.069603	-475.061368	-475.060424	-475.103011	30.173	
O	-0.0289393685	 1.4757545511	-0.1765808933	-0.419865
C	 0.05696617	 0.0741005053	-0.1295909058	-0.066304
C	-1.3285833546	-0.5728038597	 0.0458279661	-0.137401
C	-1.3569100222	-2.1164481716	 0.0231855745	-0.202644
N	-2.2479063881	-2.4762616948	 1.1200912926	-0.320535
C	-2.6050688847	-1.4744191614	 1.9757170388	 0.331538
O	-3.2731932681	-1.5516734983	 2.9784406423	-0.347088
C	-1.950503447	-0.2083141391	 1.3836326789	 0.306952
O	-1.9120692272	 0.8662189296	 1.9286911187	-0.309828
H	-0.5003220225	 1.7528731609	 0.6218374253	 0.301119
H	 0.5012031378	-0.2546449618	-1.0756433191	 0.114327
H	 0.7198919508	-0.2754084309	 0.6805876888	 0.094274
H	-1.9864044893	-0.170612241	-0.7347509832	 0.134487
H	-1.7297639806	-2.5083814859	-0.9277117067	 0.129826
H	-0.3513819651	-2.5290193657	 0.1822378481	 0.125617
H	-2.5060356008	-3.4309835869	 1.317425404	 0.265525
53.571	139.6893	162.1051	205.8952	284.338	331.6519	385.7178	441.1309	545.141	556.7905	586.6095	618.4111	690.7782	736.1611	799.7091	920.2748	965.5279	1033.8696	1076.4495	1095.6361	1096.3269	1122.9612	1196.1036	1220.7192	1262.1412	1286.9709	1312.8257	1351.7641	1388.5649	1447.6238	1458.9228	1513.0429	1531.851	1836.8591	1844.5929	2958.3547	3012.2948	3040.57	3064.121	3074.6084	3631.352	3739.71
OCC1CNC(=O)C1=O	OC[C@H]1CNC(=O)C1=O	
InChI=1S/C5H7NO3/c7-2-3-1-6-5(9)4(3)8/h3,7H,1-2H2,(H,6,9)	InChI=1S/C5H7NO3/c7-2-3-1-6-5(9)4(3)8/h3,7H,1-2H2,(H,6,9)/t3-/m1/s1
