21
gdb 65158	2.53366	1.24328	1.08726	0.7458	88.94	-0.2329	0.0485	0.2814	1240.337	0.180961	-349.896567	-349.887216	-349.886272	-349.930524	36.557	
C	 0.1514942186	 1.5346299434	 0.0103836349	-0.489685
C	 0.0718455139	 0.0189382603	 0.0095179815	 0.386459
C	 1.1454353158	-0.7422540487	-0.7376030185	-0.288172
C	 1.1559704574	-0.7178568982	 0.7703105264	-0.315018
C	-1.2956777289	-0.6169911888	 0.0327777578	-0.077419
C	-2.5619522578	 0.1331130032	 0.3267072695	-0.318875
C	-2.3427546818	-0.4302844416	-1.0707200371	-0.195427
C	-2.1341548844	 0.4299601369	-2.1975030916	 0.342334
C	-1.9843472635	 1.1215447549	-3.1714291941	-0.472965
H	 1.1956118413	 1.8572024899	-0.0457011432	 0.108707
H	-0.3772217301	 1.9691248711	-0.8425328249	 0.13626
H	-0.2735124073	 1.9544525603	 0.9291797973	 0.113563
H	 0.862473054	-1.6661194573	-1.2308903861	 0.109655
H	 1.8995154462	-0.1709570523	-1.2681938344	 0.109805
H	 1.9148152182	-0.1244199764	 1.269663024	 0.108223
H	 0.8891756225	-1.6266918464	 1.2999885312	 0.107001
H	-1.2765684271	-1.6390158393	 0.4027831977	 0.087503
H	-3.3214564958	-0.3338849114	 0.9440381458	 0.1158
H	-2.5047493499	 1.2103773552	 0.4246729463	 0.129183
H	-2.9118741037	-1.3253750146	-1.3068705982	 0.110193
H	-1.8454652475	 1.7358926698	-4.0258992041	 0.192876
48.3236	123.4546	187.3277	233.2698	251.8406	265.4085	333.1842	345.3894	407.5928	442.2098	529.6684	570.4747	614.8934	645.4271	693.6112	766.7764	780.7443	826.5666	861.6867	871.2637	925.1327	953.5537	961.3649	1012.349	1034.171	1052.528	1076.0129	1078.6268	1094.0079	1124.1293	1126.9053	1157.4499	1188.8374	1220.1583	1291.62	1344.5346	1381.5063	1411.1802	1429.1417	1470.0911	1489.214	1493.1059	1504.9667	1514.6133	2230.6891	3031.096	3094.2573	3115.4339	3124.662	3128.9593	3132.3227	3138.8114	3143.9585	3202.8374	3218.8372	3231.8287	3504.884
CC1(CC1)C1CC1C#C	CC1(CC1)[C@H]1C[C@H]1C#C	
InChI=1S/C9H12/c1-3-7-6-8(7)9(2)4-5-9/h1,7-8H,4-6H2,2H3	InChI=1S/C9H12/c1-3-7-6-8(7)9(2)4-5-9/h1,7-8H,4-6H2,2H3/t7-,8+/m1/s1
