20
gdb 128216	2.3695	1.35061	0.87632	2.1764	85.39	-0.1816	0.0361	0.2177	1358.5007	0.171017	-399.348092	-399.338123	-399.337179	-399.383353	35.361	
C	 0.0270721506	 1.4435614719	-0.1570997694	-0.322276
N	 0.0442537387	 0.0186204017	 0.118426913	-0.388771
C	-1.1752204002	-0.6609502273	 0.0435665317	 0.143552
C	-2.4581240746	-0.1464137105	-0.0059850367	-0.122773
N	-3.3048704777	-1.2176846249	-0.02391509	 0.050254
C	-4.7467270502	-1.1987445412	 0.0448369096	-0.320411
N	-2.6463452219	-2.3874380545	 0.0144591753	-0.328855
C	-1.3519893818	-2.0702590628	 0.0529544686	 0.292746
C	-0.2891854933	-3.1203287902	 0.086822353	-0.508217
H	 1.0480375147	 1.831735781	-0.1242428431	 0.120402
H	-0.416779912	 1.7017576557	-1.133630569	 0.104793
H	-0.5502571737	 1.9604330943	 0.6180354566	 0.128683
H	 0.7791049107	-0.4629198996	-0.3817115823	 0.2316
H	-2.8280675241	 0.8652663734	-0.0304993864	 0.116895
H	-5.1387331941	-0.3814451404	-0.5669261411	 0.131439
H	-5.1151616015	-2.1488147964	-0.3432174191	 0.154388
H	-5.1044493306	-1.073102703	 1.074136406	 0.1334
H	 0.3430445483	-3.0964338248	-0.810897128	 0.115044
H	 0.3737438006	-2.9915290926	 0.9506107133	 0.127774
H	-0.7475125179	-4.1097244499	 0.1463591878	 0.140333
75.1425	79.3173	127.4795	146.7276	168.4982	207.3179	249.9944	258.2198	337.9803	370.6496	525.7884	559.323	623.1638	640.1629	671.2207	693.6173	744.4365	837.1935	1007.6044	1021.724	1063.6863	1070.4899	1090.6892	1143.134	1147.0305	1158.7742	1214.6977	1228.5745	1365.0123	1390.975	1413.2242	1435.3339	1450.3558	1463.9248	1475.8808	1481.7327	1483.3877	1489.8594	1497.0473	1513.3979	1519.5142	1547.7508	1636.18	2958.8966	3014.1293	3024.8306	3055.5326	3062.8263	3094.028	3113.9376	3129.1158	3151.7622	3266.6343	3569.7758
CNC1=CN(C)N=C1C	CNc1cn(C)nc1C	
InChI=1S/C6H11N3/c1-5-6(7-2)4-9(3)8-5/h4,7H,1-3H3	InChI=1S/C6H11N3/c1-5-6(7-2)4-9(3)8-5/h4,7H,1-3H3
