14
gdb 18185	4.39953	1.86279	1.53749	1.8101	66.67	-0.2526	-0.0075	0.2451	814.5841	0.108035	-341.522007	-341.515436	-341.514492	-341.552682	25.223	
C	-0.0504220943	-1.2522062146	-0.0972129424	-0.459539
C	-0.0323652347	-0.0539188037	-0.015190325	 0.353103
C	 0.0197085426	 1.4018684967	 0.0694079227	-0.180213
N	-0.5606878814	 1.9065433866	 1.3459839929	-0.19518
C	 0.3071428904	 2.6762032624	 1.8649472124	 0.037529
N	 1.5378121415	 2.9208945176	 1.1826386065	-0.123948
C	 2.3618972272	 1.676729988	 1.1392208392	-0.242007
C	 1.4394376175	 1.9984865762	 0.0294199092	-0.035584
H	-0.0777768053	-2.3115953836	-0.1664492056	 0.201497
H	-0.5734083032	 1.8220880667	-0.7535027968	 0.124637
H	 0.1469637094	 3.1875594228	 2.8099507148	 0.134083
H	 3.4268314924	 1.8485678587	 1.0232776199	 0.131079
H	 2.0856020825	 0.8737125728	 1.8166933378	 0.141805
H	 1.8269483553	 2.3614010735	-0.9155666857	 0.112737
114.0427	153.447	299.9985	345.6965	470.924	524.9468	561.4566	629.9228	654.6002	708.6683	784.9207	805.954	864.8778	893.6873	963.5383	971.6915	1018.5204	1038.0802	1070.3248	1090.3088	1111.7373	1162.9209	1247.4943	1277.9985	1314.3302	1324.7493	1373.6268	1496.9314	1677.4589	2242.1404	3019.9064	3120.5406	3178.2766	3188.0505	3216.3577	3503.8926
C#CC1N=CN2CC12	C#C[C@H]1N=CN2C[C@@H]12	
InChI=1S/C6H6N2/c1-2-5-6-3-8(6)4-7-5/h1,4-6H,3H2	InChI=1S/C6H6N2/c1-2-5-6-3-8(6)4-7-5/h1,4-6H,3H2/t5-,6+,8?/m1/s1
