19
gdb 17239	4.35977	1.65219	1.58628	1.5553	74.59	-0.2316	0.0894	0.321	913.0427	0.166552	-327.866551	-327.859338	-327.858394	-327.89801	28.279	
C	 0.0491892276	 1.4706949406	-0.2248150957	-0.378896
C	-0.0424426431	-0.0065797418	 0.1788452075	-0.294267
C	-1.4513550333	-0.5180744695	 0.1752201992	 0.375335
C	-2.5984457728	-0.1663513317	 1.1302799025	-0.289529
C	-3.3790951267	-1.319422922	 0.445478836	-0.084233
C	-3.5225845613	-0.7990050202	-0.99218523	-0.144855
N	-2.0362507811	-0.9011534443	-1.1680040932	-0.184631
C	-1.9884968046	-1.8836606097	-0.0423191865	-0.116344
H	 1.0876156668	 1.8151638213	-0.2230545754	 0.110075
H	-0.3587446502	 1.6176646565	-1.2292376028	 0.132489
H	-0.5144337517	 2.1082185571	 0.4648532159	 0.113303
H	 0.549751891	-0.6157250744	-0.5130758833	 0.109417
H	 0.3886516196	-0.150841615	 1.1781267852	 0.094921
H	-2.3227974838	-0.411908216	 2.1597490809	 0.102305
H	-3.0420549567	 0.8354341082	 1.0944133757	 0.091666
H	-4.1725469169	-1.8515476617	 0.967116574	 0.071561
H	-3.9982580007	-1.5109960964	-1.6720858879	 0.105876
H	-3.9485502621	 0.2005980331	-1.1438349259	 0.092691
H	-1.5360426099	-2.8651223941	-0.1071702361	 0.093118
75.7366	152.1083	210.3021	329.0057	349.7575	440.3226	479.8827	613.4804	698.7495	748.7876	788.7263	807.3645	849.4969	905.71	929.4178	950.9003	966.2699	987.3567	996.1571	1019.0116	1053.338	1059.9404	1104.772	1142.5874	1148.4138	1159.6498	1187.6162	1225.2528	1242.6723	1270.6978	1298.3162	1328.6047	1343.5441	1404.1934	1427.0229	1475.1419	1493.735	1497.287	1509.1756	1514.0248	3023.3042	3024.771	3034.3052	3037.1667	3066.7369	3094.784	3097.4574	3103.9022	3115.4562	3130.364	3194.9081
CCC12CC3CN1C23	CC[C@@]12C[C@H]3CN1[C@@H]23	
InChI=1S/C7H11N/c1-2-7-3-5-4-8(7)6(5)7/h5-6H,2-4H2,1H3	InChI=1S/C7H11N/c1-2-7-3-5-4-8(7)6(5)7/h5-6H,2-4H2,1H3/t5-,6+,7-,8?/m0/s1
