19
gdb 81354	2.55333	1.45051	1.32697	1.5751	69.91	-0.2473	0.056	0.3033	1063.1165	0.159368	-460.130174	-460.121778	-460.120834	-460.162743	32.836	
C	-0.1647892309	 1.5302032739	-0.0077443734	-0.407508
C	 0.0898428417	 0.0243674304	-0.013152933	-0.005189
C	 1.0497527707	-0.5050300199	-1.0923992927	 0.005694
O	 1.2525860834	-1.9002383385	-0.6506250965	-0.330805
C	 1.9908407886	-1.2693351482	 0.4494905566	-0.020989
C	 2.4790291393	-0.2051701095	-0.5638272522	 0.192986
O	 3.5192546958	-0.620209556	-1.4037319741	-0.458381
C	 0.8653305738	-0.5523528654	 1.2266912729	 0.084554
O	 1.3267660948	 0.4915940746	 2.0664926252	-0.424131
H	 0.7584709792	 2.1071333049	 0.0780580735	 0.131581
H	-0.6723766097	 1.8304650327	-0.9304579181	 0.110936
H	-0.8021522554	 1.8117714471	 0.8346383843	 0.126935
H	-0.8621466229	-0.5036909459	-0.1189822794	 0.086327
H	 0.7822957635	-0.4062585796	-2.1451617675	 0.081082
H	 2.6704560795	-1.9400314478	 0.978594872	 0.075358
H	 2.7193001313	 0.7931350776	-0.1989758812	 0.100893
H	 3.2821849219	-1.5071429236	-1.7055776255	 0.286264
H	 0.2527813616	-1.268027889	 1.7880880819	 0.075728
H	 1.7535284441	 0.0956593621	 2.8324366073	 0.288666
127.5695	165.217	184.3493	247.8148	260.9172	310.8788	331.1269	403.8036	512.5824	529.1174	536.1333	585.2491	682.6582	789.289	850.8133	881.4917	909.2376	914.9434	936.9332	968.9814	1019.644	1045.0823	1061.6372	1116.8874	1125.8157	1152.0166	1185.3916	1189.6927	1211.5809	1242.2485	1255.8688	1287.9493	1310.8555	1325.8489	1345.9023	1358.5632	1405.505	1423.423	1451.0842	1492.9438	1497.4824	3024.4989	3044.4452	3063.8097	3106.286	3110.1354	3118.3524	3126.9685	3132.8585	3767.5207	3824.877
CC1C2OC(C2O)C1O	C[C@H]1[C@@H]2O[C@@H]([C@H]2O)[C@H]1O	
InChI=1S/C6H10O3/c1-2-3(7)6-4(8)5(2)9-6/h2-8H,1H3	InChI=1S/C6H10O3/c1-2-3(7)6-4(8)5(2)9-6/h2-8H,1H3/t2-,3+,4+,5+,6-/m1/s1
