20
gdb 104749	2.0773	1.31053	0.97406	4.7785	79.95	-0.2776	0.0289	0.3065	1284.2832	0.16992	-403.153587	-403.143664	-403.14272	-403.188437	36.293	
C	 0.4495370238	-0.8420005888	 1.9971005295	-0.390693
C	 0.2918009678	-0.3649608919	 0.5470353171	-0.259049
C	-1.1249831943	-0.4573855241	-0.0032161267	 0.298803
C	-2.1559024592	 0.3917683744	 0.73866573	-0.152007
O	-3.463224645	 0.3233354822	 0.1934096639	-0.408643
C	-1.2958569545	-0.6567533331	-1.4804099841	-0.346148
C	-1.6325981666	-1.7984094142	-0.5282568478	-0.192854
C	-0.8032115658	-2.967701812	-0.4857504051	 0.294198
N	-0.1315087286	-3.9096727477	-0.4432516687	-0.35281
H	 1.4997884815	-0.7930231934	 2.2986438216	 0.12156
H	-0.1203067054	-0.2264036066	 2.6996220409	 0.11814
H	 0.1203121308	-1.8794014735	 2.1071823803	 0.140571
H	 0.6268155134	 0.6774048324	 0.460441243	 0.098948
H	 0.956760765	-0.9531210911	-0.0937722955	 0.120776
H	-2.2452983047	 0.0382949434	 1.7704637296	 0.125894
H	-1.7952199784	 1.4310032788	 0.7807040707	 0.100548
H	-3.5100476703	 0.9202431203	-0.5588896383	 0.291944
H	-2.1416540597	-0.2093453463	-1.9896809333	 0.111217
H	-0.4022023568	-0.758412466	-2.0853245332	 0.135016
H	-2.6909412928	-1.9852039126	-0.3816098039	 0.14459
80.0118	96.3933	133.9075	145.5247	214.9875	228.0682	267.5984	315.2374	335.6461	364.4331	440.1637	500.956	563.0516	606.5785	703.906	779.1037	789.8201	862.6575	905.5447	948.8272	1006.271	1027.7978	1032.1959	1076.0912	1085.1183	1099.7586	1120.892	1127.3181	1228.6455	1247.886	1281.7788	1313.3699	1367.1717	1393.9935	1406.1642	1414.3381	1425.6636	1481.4606	1487.9981	1498.0117	1505.0768	1506.8696	2347.3659	2988.8705	3020.5434	3044.0622	3071.6029	3082.6253	3112.8506	3119.0159	3141.064	3176.5675	3230.2972	3834.9389
CCC1(CO)CC1C#N	CC[C@@]1(CO)C[C@H]1C#N	
InChI=1S/C7H11NO/c1-2-7(5-9)3-6(7)4-8/h6,9H,2-3,5H2,1H3	InChI=1S/C7H11NO/c1-2-7(5-9)3-6(7)4-8/h6,9H,2-3,5H2,1H3/t6-,7-/m0/s1
