17
gdb 68944	2.61526	1.61481	1.35718	2.8278	72.89	-0.2487	-0.0308	0.2178	997.4857	0.134284	-421.783776	-421.775709	-421.774765	-421.816223	30.58	
C	 0.1685379408	 1.4423102359	 0.2008779724	-0.495019
C	 0.0309385613	-0.039526304	 0.013590287	 0.270403
C	 1.142470492	-0.9413853457	-0.4017084562	-0.372113
C	 0.5800718593	-1.1630095138	 0.9932529199	 0.172787
C	 1.3523715208	-0.8630784357	 2.2065029753	 0.067304
O	 2.3691025669	-0.2035216549	 2.2202020735	-0.279302
C	-0.7696019477	-1.8396527138	 0.9038852775	-0.078615
O	-1.7959897138	-0.9200760286	 1.3145582702	-0.240796
C	-1.279848362	-0.8089870906	-0.016406243	-0.035194
H	 1.1553869678	 1.688273245	 0.6032826559	 0.151896
H	 0.0491638154	 1.9688531976	-0.7529538408	 0.126305
H	-0.5896599434	 1.8142950578	 0.8961651695	 0.137693
H	 0.9811456019	-1.7169430584	-1.1451307661	 0.119014
H	 2.1322966622	-0.4958236129	-0.4125541352	 0.149148
H	 0.9175161764	-1.2674982649	 3.146397332	 0.082212
H	-1.0063194274	-2.8956849512	 0.9539375204	 0.112001
H	-1.9895140605	-0.8967198719	-0.8308365523	 0.112276
109.3283	161.4334	196.3495	209.5582	226.3725	306.9211	397.2197	487.8581	503.7808	607.0543	651.7718	711.257	779.7888	805.8207	855.0552	872.5678	941.4196	958.3848	983.7078	994.0918	1038.0033	1056.8516	1086.8234	1108.0694	1148.2355	1208.1611	1235.6037	1282.0228	1329.6464	1355.8681	1365.6556	1417.4902	1435.0041	1481.5749	1490.7535	1496.5582	1784.6519	2894.2498	3033.3388	3098.9417	3119.7873	3121.174	3183.9662	3198.1282	3213.4288
CC12CC1(C=O)C1OC21	C[C@@]12C[C@]1(C=O)[C@H]1O[C@@H]21	
InChI=1S/C7H8O2/c1-6-2-7(6,3-8)5-4(6)9-5/h3-5H,2H2,1H3	InChI=1S/C7H8O2/c1-6-2-7(6,3-8)5-4(6)9-5/h3-5H,2H2,1H3/t4-,5+,6+,7+/m1/s1
