17
gdb 63729	3.34177	1.17569	1.04114	2.9162	70.73	-0.2577	-0.0393	0.2184	1174.6054	0.132386	-458.933618	-458.924793	-458.923849	-458.966916	33.055	
C	-0.0473990148	 1.5758335236	 0.1110838827	-0.45659
C	 0.0144191642	 0.0628611057	-0.010466691	 0.384052
O	-1.2622547735	-0.5281030364	-0.1416239862	-0.476636
C	 1.0740843621	-0.5422332789	-1.0165807771	-0.36467
C	 1.720353534	-1.2649872463	 0.1628008575	 0.32132
O	 2.0877327328	-0.2768899014	 1.1475235804	-0.273241
C	 0.7385889294	-0.6919227534	 1.1278413242	-0.059927
C	 2.3900919357	-2.5755104636	 0.2331477634	 0.06371
O	 2.4987527465	-3.3233229868	-0.7073992385	-0.257477
H	 0.9428388044	 1.9820228574	 0.3311772605	 0.140908
H	-0.396433011	 2.0230053698	-0.8276560115	 0.113081
H	-0.7389526238	 1.866211899	 0.9077820211	 0.127789
H	-1.6910296317	-0.1497058335	-0.9168214887	 0.284079
H	 0.5968448957	-1.2365368927	-1.7095672414	 0.133208
H	 1.7249911267	 0.1528892779	-1.5509527155	 0.110725
H	 0.3064001041	-1.1123213359	 2.0297609656	 0.121074
H	 2.7792503394	-2.8210474746	 1.2449988845	 0.088593
84.7621	148.3054	168.5368	252.8987	260.2378	278.04	298.7661	371.0506	410.9423	441.762	495.4772	549.9049	633.24	735.6191	792.6914	860.8233	871.7295	938.3397	947.3935	964.2679	1006.307	1036.2776	1097.4849	1108.2534	1157.9668	1198.0815	1226.4157	1252.0009	1300.1648	1367.0975	1382.039	1400.9058	1435.1453	1462.6584	1489.712	1497.0878	1810.4589	2903.7493	3029.9872	3076.6896	3098.6327	3129.901	3146.6258	3184.3863	3807.7811
CC1(O)CC2(OC12)C=O	C[C@@]1(O)C[C@]2(O[C@@H]12)C=O	
InChI=1S/C6H8O3/c1-5(8)2-6(3-7)4(5)9-6/h3-4,8H,2H2,1H3	InChI=1S/C6H8O3/c1-5(8)2-6(3-7)4(5)9-6/h3-4,8H,2H2,1H3/t4-,5+,6-/m0/s1
