21
gdb 112980	5.24687	0.76714	0.73831	2.8607	78.95	-0.2631	0.0745	0.3375	1571.6716	0.182081	-424.184162	-424.174903	-424.173959	-424.218824	34.149	
O	-0.3636688374	 1.4762552257	 0.0039507011	-0.42157
C	-0.022163678	 0.103972002	 0.1327634999	-0.080184
C	-1.3023212852	-0.7092837069	 0.0527267863	 0.020652
C	-1.9531431767	-0.7205523838	-1.3587125703	-0.240133
C	-1.3406456924	-2.1335824019	-1.6043152015	 0.004077
C	-1.0554443914	-2.2391956937	-0.0790817043	-0.273077
C	-2.2262015027	-3.1644585599	-2.2490218322	 0.066856
C	-2.2775929151	-4.5657919112	-1.8150655595	-0.183004
O	-3.3261434292	-3.6548001969	-1.4742237334	-0.233477
H	 0.4464946722	 1.9933834462	 0.0300578902	 0.285726
H	 0.6720724838	-0.2083083204	-0.6662237977	 0.078509
H	 0.4791527902	-0.0960986023	 1.0942864649	 0.083496
H	-1.9619016229	-0.4028056824	 0.8686872382	 0.077461
H	-3.0440485676	-0.762931912	-1.307558573	 0.111523
H	-1.660355714	 0.0855744273	-2.034761927	 0.105026
H	-0.4137464593	-2.0658688408	-2.1845940561	 0.072631
H	-0.0722976429	-2.6128761138	 0.2228460127	 0.088974
H	-1.8302979067	-2.8198982115	 0.4263680977	 0.120165
H	-2.4900131754	-2.9542454797	-3.2882243785	 0.088994
H	-2.5487035969	-5.3465335063	-2.5243897947	 0.113953
H	-1.6574900226	-4.8919245477	-0.9811704528	 0.113402
62.5029	89.801	112.3472	164.8727	217.1513	245.2524	260.6415	366.1341	437.1258	465.8365	567.6093	645.8832	801.7423	813.033	834.1701	878.9564	901.7537	933.9362	946.0625	967.2048	1022.9019	1032.7204	1074.8168	1090.0339	1100.7524	1124.2423	1144.9358	1162.6657	1173.9661	1196.2916	1217.9731	1250.9755	1260.4464	1277.4046	1282.6554	1289.6422	1299.327	1361.0908	1378.4133	1429.3109	1460.933	1471.163	1494.5311	1518.7009	1529.0796	2950.9583	2978.4973	3043.1283	3052.2464	3064.1289	3074.4301	3080.82	3085.875	3115.4721	3122.2588	3169.0303	3830.5234
OCC1CC(C1)C1CO1	OC[C@H]1C[C@@H](C1)[C@H]1CO1	
InChI=1S/C7H12O2/c8-3-5-1-6(2-5)7-4-9-7/h5-8H,1-4H2	InChI=1S/C7H12O2/c8-3-5-1-6(2-5)7-4-9-7/h5-8H,1-4H2/t5-,6-,7-/m1/s1
