22
gdb 113390	2.92503	0.95767	0.82504	2.1874	79.92	-0.2268	0.0543	0.281	1489.1609	0.192424	-441.44387	-441.433351	-441.432407	-441.479521	38.426	
C	 0.4284734597	 1.5656723885	 0.0022299947	-0.376042
C	-0.1705457353	 0.1645931541	-0.1028286189	-0.116033
N	 0.4773601451	-0.5698300983	-1.1866007337	-0.126157
C	 1.6214907884	-1.4161179748	-0.8619445485	-0.278517
C	 0.3371526928	-2.0230500143	-1.3170671044	 0.2768
C	-0.4606717198	-2.8767959463	-0.337616115	-0.122727
O	 0.1232605617	-4.1501602494	-0.1365332522	-0.428634
C	 0.1980539228	-2.4507711246	-2.7643274922	-0.139969
O	 0.6038723929	-3.8198288318	-2.8763335423	-0.424144
H	 1.4945555739	 1.5148052669	 0.2464664527	 0.120153
H	 0.3249929522	 2.1003135284	-0.945976154	 0.125035
H	-0.0717469203	 2.1414693535	 0.7870317266	 0.111251
H	-0.0817332584	-0.3405777329	 0.8722174855	 0.090551
H	-1.2404394072	 0.2319773119	-0.3343920881	 0.101946
H	 2.4754362781	-1.3540547615	-1.5320546053	 0.111833
H	 1.8753757078	-1.5505306563	 0.1890571174	 0.114769
H	-0.5085882896	-2.4005313771	 0.6447856377	 0.100933
H	-1.4984118361	-2.9663796971	-0.7046697075	 0.076989
H	 0.3231616062	-4.491377275	-1.0187779405	 0.290537
H	-0.8512065899	-2.3346672138	-3.0765001275	 0.093209
H	 0.8137735437	-1.8007470418	-3.3988979999	 0.102614
H	 0.3079483013	-4.1608459282	-3.7249189944	 0.295603
71.4218	80.8675	121.0035	142.2862	196.8236	235.7602	252.981	265.1061	329.3733	346.9544	379.9172	390.263	474.9854	543.8696	629.7526	711.2124	814.1151	834.2289	922.4054	934.6373	963.8691	969.9202	1023.2043	1042.6782	1072.5276	1081.5887	1105.166	1118.9626	1158.7136	1195.6529	1216.4647	1235.9933	1249.7637	1306.6906	1316.0749	1378.4776	1386.2703	1399.6483	1410.6981	1456.4632	1474.4457	1487.8245	1490.277	1502.08	1505.607	1512.4102	1526.0432	2946.3206	2969.226	2985.2714	3039.3106	3041.5811	3047.4596	3087.0603	3092.5477	3108.8204	3120.4802	3173.5842	3747.8968	3839.3449
CCN1CC1(CO)CO	CCN1CC1(CO)CO	
InChI=1S/C6H13NO2/c1-2-7-3-6(7,4-8)5-9/h8-9H,2-5H2,1H3	InChI=1S/C6H13NO2/c1-2-7-3-6(7,4-8)5-9/h8-9H,2-5H2,1H3
