14
gdb 9143	4.41755	0.86807	0.77633	3.2887	64.07	-0.2638	-0.0445	0.2193	1406.8674	0.103684	-419.633528	-419.624375	-419.623431	-419.669099	30.392	
O	 0.0993824176	 1.0832368719	 0.8851945856	-0.407793
C	-0.0583922289	 0.1767821804	-0.1977886412	-0.214498
C	-1.3530485119	-0.4843672657	-0.0976216142	 0.069447
C	-2.4110313593	-1.0551166293	-0.036375679	 0.097194
C	-3.7170566749	-1.7124035149	 0.0653481291	-0.115342
O	-3.6558824434	-3.0310131228	 0.5342537083	-0.409372
C	-4.5997793312	-0.8595009426	 0.9868152564	 0.147348
O	-5.1055896882	-1.3334356214	 1.9706579794	-0.248685
H	 0.9717880059	 1.4817321509	 0.8020354918	 0.292798
H	 0.0047351404	 0.6956375522	-1.1682478135	 0.120732
H	 0.7290678995	-0.594224245	-0.1971526903	 0.126759
H	-4.1968445345	-1.6937675576	-0.9296280739	 0.124525
H	-4.1145136316	-3.0195030985	 1.3903225061	 0.29789
H	-4.7261389796	 0.2003006524	 0.6970532552	 0.118997
27.5924	59.9184	110.4129	140.2997	223.1986	256.4291	308.3219	329.8151	382.3638	430.8247	528.1452	588.9425	706.0039	790.1316	863.4506	1014.5751	1024.6149	1050.0635	1116.008	1159.5464	1236.0066	1246.5601	1256.3299	1327.8501	1387.954	1430.7068	1459.3299	1499.6761	1822.6106	2363.8633	2948.7805	2965.9871	2970.1576	2986.236	3680.4497	3818.9105
OCC#CC(O)C=O	OCC#C[C@@H](O)C=O	
InChI=1S/C5H6O3/c6-3-1-2-5(8)4-7/h4-6,8H,3H2	InChI=1S/C5H6O3/c6-3-1-2-5(8)4-7/h4-6,8H,3H2/t5-/m1/s1
