19
gdb 37309	3.15748	1.6812	1.36646	1.1965	79.66	-0.2365	0.0193	0.2559	987.4989	0.161797	-385.860624	-385.853649	-385.852705	-385.89184	28.663	
C	 0.0924132086	 1.5220121749	-0.1190394867	-0.277602
C	 1.3583358872	 0.7278621804	 0.0409045475	-0.066437
C	-0.0127494583	 0.0381354731	 0.0670154003	-0.071242
C	 0.3242345021	-0.7094315931	-1.2374343961	-0.074069
C	-0.5048826891	-0.5506711261	-2.4707979162	-0.073612
C	 0.041965287	-0.0626048639	-3.5831835052	-0.081939
C	 1.4672456836	 0.4319709173	-3.6080752481	-0.122394
O	 1.903192011	 0.9247832691	-2.3510766175	-0.262773
C	 1.705064011	 0.0320479945	-1.2749513911	 0.091624
H	-0.1854923329	 2.1164448843	 0.7451231411	 0.108621
H	-0.1383390445	 1.9786120856	-1.0763172735	 0.121088
H	 2.0520332118	 0.9009831994	 0.8537215061	 0.084926
H	-0.52417068	-0.4042280899	 0.913149615	 0.083891
H	 0.4804220804	-1.7738933843	-1.0274196849	 0.083368
H	-1.5441564304	-0.8705337748	-2.4458785922	 0.088858
H	-0.5216752991	 0.0066249218	-4.5095574788	 0.092036
H	 2.1439587586	-0.3620084878	-3.9737955014	 0.096622
H	 1.5663489432	 1.2725481478	-4.3030005305	 0.114252
H	 2.5534316996	-0.6610724583	-1.1924003381	 0.064781
130.0052	153.1684	262.4705	354.3173	444.285	475.8654	533.2583	560.6496	668.9162	728.1248	786.8469	799.6199	817.5038	873.7	921.4063	927.1313	969.9748	986.3073	992.708	1024.3139	1036.1365	1054.5822	1061.3819	1070.3882	1082.3118	1100.7265	1115.8519	1175.9799	1208.7871	1229.3205	1264.5144	1274.9203	1307.6323	1328.055	1357.7824	1367.4852	1400.8539	1411.5724	1486.4545	1493.2041	1710.7522	2936.454	3000.3706	3036.2259	3065.5063	3127.6078	3145.0457	3172.5858	3180.8938	3192.634	3214.1998
C1C2C1C1C=CCOC21	C1[C@H]2[C@@H]1[C@H]1C=CCO[C@@H]21	
InChI=1S/C8H10O/c1-2-5-6-4-7(6)8(5)9-3-1/h1-2,5-8H,3-4H2	InChI=1S/C8H10O/c1-2-5-6-4-7(6)8(5)9-3-1/h1-2,5-8H,3-4H2/t5-,6+,7+,8-/m1/s1
