21
gdb 72790	2.50531	1.68591	1.33388	1.0392	85.14	-0.2329	0.0167	0.2496	1068.3104	0.183544	-387.086026	-387.077889	-387.076945	-387.11818	32.869	
C	 0.1798436755	 1.7432246123	 0.1041798345	-0.420911
C	-0.0397108318	 0.2315647825	 0.1693769131	 0.364952
C	 0.9150842018	-0.5398948641	-0.8147220782	-0.27316
C	 1.8962090919	-0.7609778618	 0.3891157417	-0.323405
C	 0.698486787	-0.4860011152	 1.2747089156	 0.278295
C	 0.107701739	-1.044652028	 2.3229093064	-0.245215
C	-1.3889273177	-0.8491277798	 2.4299485655	-0.264381
C	-1.9779825503	-0.9415853324	 1.0078299095	-0.070763
O	-1.4438361418	 0.0311218067	 0.1198890538	-0.31761
H	 1.2438201898	 1.9957628547	 0.0756088689	 0.110949
H	-0.2940883295	 2.137354209	-0.8004921726	 0.122595
H	-0.2729261684	 2.2329629134	 0.9705163742	 0.118496
H	 0.4671063468	-1.4809799911	-1.1400151217	 0.11089
H	 1.2869903687	 0.0145026836	-1.6800499799	 0.096379
H	 2.36962272	-1.7403559143	 0.4845154427	 0.110206
H	 2.6719325308	 0.0101896626	 0.4309951482	 0.11131
H	 0.6222396942	-1.728509594	 2.99206385	 0.086864
H	-1.8421669005	-1.6245041766	 3.0568242323	 0.101327
H	-1.6577064754	 0.1170224248	 2.8755859774	 0.113796
H	-1.8063547955	-1.9593577073	 0.6233931672	 0.08719
H	-3.0575444749	-0.7614827949	 1.0132922113	 0.102197
102.9456	198.714	239.6171	249.2342	303.8416	325.2561	390.7047	448.3536	476.7901	500.611	628.8904	670.1085	731.9373	774.0328	838.4064	855.4132	881.9903	912.8291	919.0108	946.9061	959.4638	1010.3846	1065.413	1085.0361	1089.5383	1119.0536	1139.5878	1177.462	1183.9396	1218.4107	1230.5833	1237.6344	1258.4923	1289.4817	1338.0155	1352.5762	1401.3904	1404.5502	1471.4394	1474.1824	1483.2811	1488.081	1493.4365	1505.3678	1758.8355	2978.499	3025.2239	3037.8988	3050.8654	3063.394	3074.4721	3075.667	3106.2164	3111.0772	3118.7836	3130.2494	3162.9284
CC12CCC1=CCCO2	C[C@@]12CC[C]1[CH]CCO2	
InChI=1S/C8H12O/c1-8-5-4-7(8)3-2-6-9-8/h3H,2,4-6H2,1H3	InChI=1S/C8H12O/c1-8-5-4-7(8)3-2-6-9-8/h3H,2,4-6H2,1H3/t8-/m1/s1
