20
gdb 59752	2.38339	1.52927	1.0744	4.0592	75.33	-0.2274	0.0062	0.2336	1174.1388	0.171392	-440.31087	-440.301827	-440.300883	-440.345249	33.221	
C	 0.9820251246	-0.5598608881	-0.8812435431	-0.319843
N	-0.069577471	-0.1504384423	 0.0446058444	-0.086183
C	 0.0634988241	 1.2812504533	 0.3212078724	-0.323552
C	-1.4028768144	-0.5226661566	-0.4472449898	-0.09263
C	-1.6293093937	-2.0421127129	-0.4410699413	-0.261074
C	-2.081921652	-2.2929069219	 1.0001642264	-0.067692
O	-2.8169141301	-1.1121318442	 1.3659059037	-0.216759
C	-2.4823542867	-0.071932832	 0.5632471373	 0.441525
O	-2.9898057479	 1.0073703185	 0.669952648	-0.345552
H	 1.9537471088	-0.28900638	-0.4587203772	 0.125119
H	 0.9812273968	-1.6405364822	-1.0365384135	 0.117647
H	 0.8931193609	-0.0714311897	-1.8702957428	 0.097163
H	-0.0588095722	 1.9022581322	-0.5851060473	 0.098109
H	-0.6742454887	 1.6095015531	 1.0521185343	 0.150733
H	 1.061910027	 1.4669825479	 0.7273936903	 0.115398
H	-1.626180925	-0.060880124	-1.4241210382	 0.080845
H	-2.4366774014	-2.2908880275	-1.1369996495	 0.119638
H	-0.7555739342	-2.6332144715	-0.7128419648	 0.115909
H	-2.7502981037	-3.1485281323	 1.113730337	 0.123289
H	-1.2323230209	-2.4025700896	 1.6814210838	 0.127911
39.4311	92.0486	195.3271	205.5109	227.0162	241.7593	322.4829	355.0689	390.5736	462.5031	517.808	659.6584	685.6214	712.8276	808.1031	882.2127	910.541	942.444	996.0316	1039.68	1064.4552	1066.9171	1105.9406	1120.6576	1173.8546	1186.0872	1205.6708	1221.774	1248.0409	1289.3672	1308.4684	1344.2371	1352.3614	1404.7003	1445.681	1478.0948	1485.5199	1487.8578	1497.477	1503.2064	1512.9124	1515.4759	1872.7283	2929.4911	2945.2604	2957.535	3057.9944	3065.9516	3078.3205	3082.8593	3117.5512	3121.2681	3141.7407	3156.3991
CN(C)C1CCOC1=O	CN(C)[C@H]1CCOC1=O	
InChI=1S/C6H11NO2/c1-7(2)5-3-4-9-6(5)8/h5H,3-4H2,1-2H3	InChI=1S/C6H11NO2/c1-7(2)5-3-4-9-6(5)8/h5H,3-4H2,1-2H3/t5-/m0/s1
