13
gdb 24959	5.24864	1.34813	1.07486	5.8102	65.68	-0.193	0.0244	0.2174	1013.2969	0.092191	-452.800808	-452.794131	-452.793187	-452.831787	25.955	
O	-0.000010835	-0.0029804877	-0.061518226	-0.378349
C	-0.0336872755	 1.193312738	-0.0475653282	 0.448713
N	-1.163421437	 2.0246994479	-0.0797055743	-0.483572
C	-0.7187976329	 3.3278841932	 0.1226213092	 0.305458
C	 0.6424660174	 3.3078781601	 0.1246513722	 0.311911
O	 1.0904273247	 2.0061729929	 0.0196615551	-0.250353
C	 1.130053686	 4.6307731051	 0.0273926872	-0.30414
C	-0.0036368909	 5.4216208273	-0.0225778195	-0.069056
N	-1.1404707843	 4.6182426615	-0.0173500586	-0.371569
H	-2.0565683505	 1.6312853523	 0.1662305774	 0.274392
H	 2.1496773736	 4.9779578428	 0.0133502485	 0.117863
H	-0.1020307865	 6.49397646	 0.0063730224	 0.128318
H	-2.0812074291	 4.9603649266	 0.0678809147	 0.270384
117.348	239.0821	322.3142	356.4535	392.2081	424.3694	587.7076	600.1994	607.4894	651.1971	707.121	754.9202	765.2297	805.5101	850.8296	915.492	948.2384	1052.1448	1073.0988	1118.2455	1252.5351	1261.1729	1315.2204	1387.4625	1468.7807	1484.1204	1584.9985	1626.3048	1897.7697	3266.6259	3283.3764	3663.9342	3685.4902
O=C1NC2=C(O1)C=CN2	O=c1[nH]c2c(o1)cc[nH]2	
InChI=1S/C5H4N2O2/c8-5-7-4-3(9-5)1-2-6-4/h1-2,6H,(H,7,8)	InChI=1S/C5H4N2O2/c8-5-7-4-3(9-5)1-2-6-4/h1-2,6H,(H,7,8)
