21
gdb 73438	2.76636	1.85	1.44689	0.3397	85.83	-0.2168	0.0197	0.2365	995.3655	0.185445	-349.968251	-349.96096	-349.960016	-349.999322	30.853	
C	-0.0166155275	 1.489920478	 0.0538753013	-0.491961
C	 0.0111648874	-0.0193896861	-0.0119019092	 0.361457
C	 1.0198436682	-0.6873907711	-0.9587799091	-0.288192
C	 0.2016364955	-1.7641738752	-1.7144433577	-0.190727
C	-0.8911266733	-2.179841383	-0.6918453679	-0.095487
C	-0.2295525354	-2.9685886634	 0.4297076482	-0.084623
C	 0.066778535	-2.1799177858	 1.4653097876	-0.084569
C	-0.4359956545	-0.7930971769	 1.2468930927	-0.123161
C	-1.2581388601	-0.8323096411	-0.0231205591	-0.112343
H	 0.9241558092	 1.8906305743	 0.4495039123	 0.116629
H	-0.1689440587	 1.9267841766	-0.9405708118	 0.113191
H	-0.8252647504	 1.84652424	 0.7004091138	 0.112225
H	 1.4534255015	 0.04819129	-1.6431699885	 0.091192
H	 1.8495640536	-1.1443531261	-0.4101921732	 0.102096
H	-0.2789135559	-1.3220526429	-2.5952990527	 0.092722
H	 0.8141763001	-2.6048665838	-2.0574619796	 0.089247
H	-1.7297230645	-2.6999078108	-1.1631940282	 0.064567
H	 0.0758707537	-4.0025987704	 0.3121976378	 0.089244
H	 0.6198121452	-2.4760110309	 2.3495935846	 0.089162
H	-0.7422362781	-0.1883435121	 2.0950954663	 0.073976
H	-2.246936441	-0.3957469292	-0.1059604675	 0.075355
205.1429	205.2855	228.3732	301.404	327.4791	407.1152	515.5302	554.0067	628.1747	712.2415	724.6788	778.4387	807.2252	818.6177	845.2224	878.0646	900.586	917.8802	942.473	951.4423	968.7902	999.3402	1009.5656	1034.3179	1055.5894	1081.9321	1108.9287	1127.2978	1143.9605	1179.284	1231.1002	1263.9897	1266.9799	1289.3143	1295.4197	1331.6948	1337.2842	1372.6312	1407.9772	1416.3415	1481.0405	1489.2	1494.5788	1498.7509	1661.623	3017.4763	3028.9968	3047.518	3067.2507	3073.5964	3075.7686	3089.0829	3093.1275	3151.191	3171.3874	3181.792	3207.5179
CC12CCC3C=CC1C23	C[C@@]12CC[C@H]3C=C[C@@H]1[C@@H]23	
InChI=1S/C9H12/c1-9-5-4-6-2-3-7(9)8(6)9/h2-3,6-8H,4-5H2,1H3	InChI=1S/C9H12/c1-9-5-4-6-2-3-7(9)8(6)9/h2-3,6-8H,4-5H2,1H3/t6-,7-,8+,9-/m1/s1
