17
gdb 51253	4.30816	0.95867	0.93259	1.1612	74.22	-0.2347	-0.0332	0.2014	1276.1775	0.135298	-421.78201	-421.774198	-421.773253	-421.815684	29.014	
O	-0.6167961316	 0.6043440126	 0.5813705474	-0.229343
C	 0.1594992104	 0.9202473728	-0.2796815207	 0.16511
C	 1.2756248431	 1.9423003725	-0.1003206199	-0.41501
C	 1.2827013035	 2.9634588214	-1.1891067698	 0.34061
C	 1.0237248723	 4.2748647863	-1.1900454531	-0.201606
C	 1.2447056754	 4.6343468258	-2.6696946891	 0.031178
C	 0.4587935592	 3.4981386521	-3.3930137625	-0.217309
C	 1.6182818476	 2.7353617717	-2.6861167034	-0.036045
O	 2.4736145483	 3.8872853789	-2.9748533095	-0.281332
H	 0.1091104657	 0.4643740599	-1.2956241717	 0.078839
H	 1.1656231753	 2.3996024881	 0.8860839812	 0.134126
H	 2.2221568086	 1.3783673423	-0.1120095652	 0.134078
H	 0.7433256124	 4.9383565339	-0.3852407405	 0.116291
H	 1.2520046546	 5.6750499862	-2.9890140968	 0.086186
H	-0.5712075796	 3.2966773389	-3.0919191848	 0.101114
H	 0.5769418276	 3.5272904185	-4.478499327	 0.112099
H	 2.0172261772	 1.7766735482	-3.0180869047	 0.081014
48.5857	60.5174	131.9306	243.1762	342.5115	433.8944	495.4338	561.2046	642.0494	664.468	784.6581	791.4983	798.895	844.5206	850.1282	891.6128	916.6407	934.7717	1018.9845	1026.5533	1043.6236	1059.2144	1094.3942	1153.996	1177.0398	1198.6207	1231.6339	1239.1819	1256.0926	1289.0955	1297.5561	1308.8165	1428.7313	1452.4534	1485.9502	1679.2675	1839.6397	2862.4734	2989.5463	3065.5785	3105.8127	3123.5716	3138.6744	3142.5936	3243.2865
O=CCC1=CC2CC1O2	O=CCC1=C[C@@H]2C[C@H]1O2	
InChI=1S/C7H8O2/c8-2-1-5-3-6-4-7(5)9-6/h2-3,6-7H,1,4H2	InChI=1S/C7H8O2/c8-2-1-5-3-6-4-7(5)9-6/h2-3,6-7H,1,4H2/t6-,7-/m1/s1
