17
gdb 12148	5.91215	1.29831	1.27829	1.4782	68.95	-0.244	0.0623	0.3063	993.7982	0.141952	-363.796845	-363.789645	-363.788701	-363.828744	27.813	
C	 0.4179715302	 1.466284969	-0.0014034565	-0.307014
N	 1.2766783523	 0.2605432389	 0.0400079135	-0.352818
C	-0.1769484371	 0.1165256831	 0.009739041	 0.347867
C	-0.9440330861	-0.6250406383	 1.1179850407	-0.3692
C	-1.580545842	-1.4763491542	 0.0099718835	 0.45364
C	-1.8711825628	-2.9093612498	-0.0106353491	-0.260661
O	-2.9198702288	-1.9282088254	 0.0214957879	-0.269078
C	-0.9843505715	-0.590832127	-1.0956281444	-0.395689
H	 0.431819125	 2.0654985016	 0.9054605482	 0.120228
H	 0.3672990847	 2.0418448109	-0.9228744531	 0.111754
H	 1.6639251832	 0.0842782863	-0.8846729286	 0.22825
H	-0.3240630377	-1.1467320364	 1.8507809469	 0.11802
H	-1.6796766261	-0.0033259502	 1.6373960927	 0.116664
H	-1.7847667661	-3.4683588007	-0.9419501191	 0.114235
H	-1.7560607205	-3.4987308374	 0.8983349304	 0.117254
H	-1.7381924315	 0.0450136599	-1.5703776109	 0.120487
H	-0.4061456552	-1.0998687704	-1.8732315233	 0.106061
36.1089	245.4705	279.6207	317.3052	332.8926	394.2695	426.887	448.0954	661.0785	806.0217	819.9529	844.2152	870.6731	888.9452	891.7362	929.7482	968.6249	985.3179	1029.1417	1070.6678	1110.5336	1124.5287	1128.5665	1156.6762	1174.8514	1203.3744	1214.7384	1234.8917	1269.5976	1288.9624	1407.2907	1435.7336	1454.9405	1478.827	1514.357	1539.3142	3043.3997	3057.2776	3077.9544	3096.4016	3100.5596	3115.5344	3164.828	3184.5423	3485.4869
C1NC11CC2(CO2)C1	C1N[C@]21C[C@]1(CO1)C2	
InChI=1S/C6H9NO/c1-5(3-7-5)2-6(1)4-8-6/h7H,1-4H2	InChI=1S/C6H9NO/c1-5(3-7-5)2-6(1)4-8-6/h7H,1-4H2/t5-,6-
