18
gdb 79649	2.70776	1.49816	1.1904	1.6567	84.01	-0.206	0.0306	0.2365	1093.0456	0.145957	-364.686244	-364.677682	-364.676738	-364.71969	33.029	
C	-0.0900663909	 1.6110171445	-0.0393453343	-0.391461
C	 0.1425099506	 0.1049354305	 0.0513788532	-0.071918
C	 1.387649273	-0.69990753	-0.1965199059	-0.135528
C	 2.6808938191	-0.1616884708	 0.4653949219	-0.052525
N	 2.3874096461	 1.1258801332	 1.1493709349	-0.339333
C	 2.0503134263	-0.1635672769	 1.7948631263	-0.128164
C	 0.7114050299	-0.7152957522	 1.2060862895	 0.146681
C	 0.0025161031	-1.7708767153	 1.836545384	 0.200468
C	-0.5854056502	-2.6624453479	 2.394869907	-0.409736
H	 0.6805883895	 2.1049774868	-0.6318848619	 0.129393
H	-1.0612585941	 1.7978115095	-0.5101816092	 0.098275
H	-0.0910084466	 2.0822203213	 0.9440203884	 0.131697
H	-0.7002954545	-0.4593090972	-0.3454009888	 0.104633
H	 1.4083578879	-1.5267113033	-0.8954277001	 0.103022
H	 3.686102064	-0.4285807649	 0.1690430565	 0.099991
H	 3.2613833497	 1.4445394653	 1.5684265172	 0.231413
H	 2.4413702869	-0.4450397711	 2.763201514	 0.100505
H	-1.1095097499	-3.4471696216	 2.8807117975	 0.182587
43.7251	129.0065	151.7711	211.4655	265.634	405.7339	415.6436	471.7781	500.3197	536.7922	569.6075	648.7826	674.6386	720.6816	739.3523	812.8795	826.1001	868.8438	908.5132	914.3956	957.9736	982.8433	1032.9805	1061.1547	1080.2635	1104.3852	1111.9884	1123.3459	1210.9963	1229.8568	1273.105	1301.8982	1340.1862	1366.8072	1418.7563	1450.3237	1486.1447	1488.3761	2222.7013	3042.8694	3112.9345	3128.3093	3146.4291	3191.2787	3202.1816	3214.345	3465.0691	3504.3667
CC1C2C3NC3C12C#C	C[C@H]1[C@H]2[C@H]3N[C@H]3[C@@]12C#C	
InChI=1S/C8H9N/c1-3-8-4(2)5(8)6-7(8)9-6/h1,4-7,9H,2H3	InChI=1S/C8H9N/c1-3-8-4(2)5(8)6-7(8)9-6/h1,4-7,9H,2H3/t4-,5-,6+,7+,8-/m0/s1
