15
gdb 127717	3.37867	1.31332	0.9571	7.2215	75.44	-0.2671	-0.0268	0.2402	1165.2036	0.113042	-413.014536	-413.005985	-413.005041	-413.048076	29.754	
C	 0.008519727	 1.4499778415	-0.0147136479	-0.338407
N	 0.0047591682	 0.0027127047	 0.069235112	 0.002155
N	-0.0328769901	-0.7394843745	-1.0692473473	-0.13645
N	-0.0288739084	-1.9865966449	-0.7309326562	-0.256611
C	 0.0132246203	-2.0667252072	 0.6356915687	 0.14932
C	 0.0297128616	-3.2899542618	 1.3510914462	 0.236182
N	 0.044291161	-4.2646346855	 1.9757761366	-0.344437
C	 0.0345382788	-0.7862840015	 1.1662004207	 0.238091
C	 0.079091974	-0.293118072	 2.5692066004	-0.517203
H	 0.9161597951	 1.8601802346	 0.4364489617	 0.154687
H	-0.0225126274	 1.7090123354	-1.0725043616	 0.18117
H	-0.8663985238	 1.8679841137	 0.4906703814	 0.154698
H	 0.9716679315	 0.3147605852	 2.7537880699	 0.151709
H	-0.7961452181	 0.3211921708	 2.8076908125	 0.151747
H	 0.0969523205	-1.1408389487	 3.2565664529	 0.173349
108.1903	121.193	126.9265	137.8658	250.7103	255.0164	266.4029	400.7937	530.1996	533.9731	587.8097	681.6836	704.3969	748.0651	764.3461	992.4076	1009.8572	1063.3206	1145.1004	1151.716	1209.8508	1246.405	1325.7597	1383.7908	1420.6846	1443.5234	1466.6014	1478.3617	1489.8054	1498.1507	1522.2764	1594.6084	2352.5799	3036.5469	3052.0567	3091.0429	3118.8933	3139.253	3169.4766
CN1N=NC(C#N)=C1C	Cn1nnc(C#N)c1C	
InChI=1S/C5H6N4/c1-4-5(3-6)7-8-9(4)2/h1-2H3	InChI=1S/C5H6N4/c1-4-5(3-6)7-8-9(4)2/h1-2H3
