18
gdb 72705	2.69454	1.99062	1.63287	1.0083	70.72	-0.24	0.0716	0.3116	885.9388	0.149667	-438.984577	-438.977838	-438.976894	-439.015107	28.829	
O	-0.0173306542	 1.2935366851	-0.236459625	-0.480066
C	 0.0457663377	-0.109722949	-0.0462614708	 0.398322
C	 0.105725355	-0.4327701339	 1.4790712109	-0.221668
O	-1.366078551	-0.5247971169	 1.4921713346	-0.370446
C	-1.3053532538	-0.7959569607	 0.0723677408	 0.34701
C	-1.9310441043	-0.4737098934	-1.3056136086	-0.261433
N	-0.8218443398	-1.423076219	-1.7968040866	-0.130766
C	-1.0653099531	-2.1956215178	-0.5187473514	-0.240026
C	 0.4751661621	-0.7420656377	-1.3909059594	-0.256728
H	-0.5928430842	 1.6576580553	 0.4484698492	 0.285073
H	 0.565426001	-1.3838495806	 1.7653647682	 0.113011
H	 0.4650277496	 0.3755748324	 2.1206530878	 0.11332
H	-2.8970397604	-0.9289907823	-1.5251154771	 0.117639
H	-1.8669393572	 0.5522201829	-1.6668805482	 0.126996
H	-0.2236600052	-2.8024228657	-0.1752668558	 0.103687
H	-1.9688108809	-2.8036199346	-0.5972936988	 0.111782
H	 0.7495603237	 0.0340843027	-2.1055006983	 0.127821
H	 1.2627819749	-1.4957313367	-1.3489067718	 0.116474
224.484	265.3513	327.0178	395.1516	426.9572	445.2293	492.0006	531.0758	569.6205	607.346	734.346	792.5511	810.4203	841.8236	876.3509	912.7452	930.6555	932.9339	981.7546	986.3717	1035.523	1060.6762	1101.9469	1105.7858	1140.5578	1158.0791	1190.2278	1196.1344	1207.5385	1245.7419	1256.7214	1275.1811	1293.5131	1327.077	1386.6749	1485.9104	1488.872	1507.0803	1531.3754	3046.0659	3063.7777	3087.9826	3092.0469	3113.7199	3126.3766	3149.6619	3165.4072	3772.3065
OC12COC11CN(C1)C2	O[C@@]12CO[C@]31CN(C3)C2	
InChI=1S/C6H9NO2/c8-5-1-7-2-6(5,3-7)9-4-5/h8H,1-4H2	InChI=1S/C6H9NO2/c8-5-1-7-2-6(5,3-7)9-4-5/h8H,1-4H2/t5-/m0/s1
