17
gdb 33060	4.39839	0.82608	0.72882	2.4104	73.44	-0.1913	0.0283	0.2197	1509.9463	0.135946	-455.164507	-455.155421	-455.154476	-455.199202	32.632	
O	 0.1629490319	 1.381082854	-0.1204998929	-0.412938
C	 0.0991423799	-0.0322197989	-0.071928137	-0.059791
C	-1.3410370113	-0.5424116626	 0.1324663895	-0.331414
C	-1.4359900457	-2.020560731	 0.1913690177	 0.339423
C	-1.7443910206	-2.8985559065	 1.154141991	-0.198513
N	-1.6292164772	-4.1735689097	 0.6030662871	-0.32841
C	-1.2549087771	-4.0799741347	-0.7191587022	 0.459605
N	-1.0696481903	-5.0394411464	-1.5260465312	-0.606866
O	-1.1271167296	-2.7261563406	-0.9724018799	-0.252863
H	-0.2538232854	 1.6701517586	-0.9384919358	 0.284503
H	 0.5303229615	-0.4936609726	-0.9715688574	 0.108589
H	 0.7164520341	-0.3359130851	 0.7793568381	 0.118486
H	-1.7402048758	-0.1215087168	 1.0603106509	 0.123683
H	-1.9673652809	-0.1652906233	-0.6887630779	 0.10925
H	-2.0325075416	-2.7346750424	 2.1780921738	 0.148626
H	-1.8263704582	-5.0521454198	 1.0452567613	 0.275712
H	-0.8000223737	-4.6925959321	-2.4421883951	 0.222918
64.5546	90.7754	95.6377	131.9979	265.5042	299.2444	309.0995	356.669	401.2134	482.128	613.8644	690.5921	710.6286	735.907	761.771	782.4282	791.7068	937.8599	963.3648	1010.5569	1032.6533	1058.161	1077.2506	1095.9726	1152.803	1222.46	1256.0621	1296.4563	1330.1632	1378.0946	1400.2939	1407.8967	1412.8453	1468.0042	1511.4544	1725.5153	1794.178	3006.6263	3008.759	3078.8104	3097.583	3288.9505	3545.8292	3713.2415	3817.9286
OCCC1=CNC(=N)O1	OCCC1=CN[C@@H]([NH])O1	
InChI=1S/C5H8N2O2/c6-5-7-3-4(9-5)1-2-8/h3,8H,1-2H2,(H2,6,7)	InChI=1S/C5H9N2O2/c6-5-7-3-4(9-5)1-2-8/h3,5-8H,1-2H2/t5-/m1/s1
