18
gdb 126410	4.60502	1.02425	0.84657	2.4167	85.57	-0.2064	-0.048	0.1584	1357.2312	0.149458	-398.151996	-398.143644	-398.1427	-398.185229	31.622	
C	-0.0525541642	 1.5703492743	 0.0782137678	-0.372347
C	 0.0206955737	 0.0483624505	-0.0341623731	-0.270294
C	 0.7233842923	-0.468134358	-1.2664065625	 0.329345
N	 1.200406792	 0.38601508	-2.1200081957	-0.255198
N	 1.8230241006	-0.1066578372	-3.2116310834	-0.307626
C	 2.0328051772	-1.4440837734	-3.5630774717	 0.384098
N	 2.634894784	-1.8587354702	-4.6198102186	-0.563389
C	 1.4815989662	-2.3599996419	-2.5777549898	-0.088375
C	 0.8556112285	-1.8915648671	-1.4797641424	-0.144768
H	 0.9468439696	 2.0125047165	 0.0958557743	 0.128603
H	-0.5841044216	 2.0029749667	-0.7731766406	 0.12867
H	-0.574908859	 1.8570091735	 0.995316775	 0.107677
H	 0.5249239072	-0.3695561617	 0.8487768529	 0.115818
H	-0.9919892705	-0.3788660868	-0.0123475964	 0.115872
H	 2.1688414706	 0.6105077166	-3.8317396675	 0.260147
H	 2.9576153669	-1.0822720196	-5.2001393762	 0.194771
H	 1.6062028187	-3.4162133741	-2.7827816218	 0.12825
H	 0.4422630678	-2.571075388	-0.7408400604	 0.108745
65.7714	100.6955	188.7776	221.7811	301.5683	368.7756	368.831	446.831	495.3377	529.6314	624.1692	635.9039	724.7578	751.4416	790.7813	803.3727	827.6141	870.542	992.3277	1005.2342	1020.8572	1070.5794	1105.9501	1107.2147	1169.4467	1213.884	1235.3839	1288.3329	1339.2266	1386.5492	1416.9465	1444.3829	1455.9275	1477.3122	1492.5505	1501.6471	1593.2568	1662.6418	1714.9746	3006.7089	3028.1422	3050.1038	3120.714	3126.2133	3177.6809	3219.1521	3451.5593	3613.1405
CCC1=NNC(=N)C=C1	CCC1=NNC(=CC1)[NH]	
InChI=1S/C6H9N3/c1-2-5-3-4-6(7)9-8-5/h3-4H,2H2,1H3,(H2,7,9)	InChI=1S/C6H10N3/c1-2-5-3-4-6(7)9-8-5/h4,7,9H,2-3H2,1H3
