21
gdb 115928	3.54789	1.10474	0.93308	2.4615	78.34	-0.2495	0.0815	0.3311	1304.8075	0.18352	-424.216477	-424.207889	-424.206944	-424.249941	32.728	
C	 0.1298400505	 1.3274709248	-0.1149311806	-0.242259
O	-0.0013036619	-0.0563753161	 0.1092896672	-0.248062
C	-1.3325287473	-0.5457420893	 0.0571928661	 0.144902
C	-1.8566223521	-0.7106514229	-1.3752270826	-0.230478
C	-3.3261402582	-1.1567694473	-1.3599264189	-0.247173
C	-3.5348535688	-2.381144664	-0.4960620524	 0.069634
O	-2.6013912791	-3.4474318857	-0.6823267348	-0.254834
C	-2.5655210054	-2.72570339	 0.5588680537	 0.030377
C	-1.3295366891	-1.8809322053	 0.8108048933	-0.243767
H	 1.1837801155	 1.5776931307	 0.0306189243	 0.127418
H	-0.1579040403	 1.6248292732	-1.1339482922	 0.106779
H	-0.4738062598	 1.9135501651	 0.5964166352	 0.101724
H	-1.9957682646	 0.1619861255	 0.5868956442	 0.056647
H	-1.7671272992	 0.2308616087	-1.9255065594	 0.093381
H	-1.245083629	-1.4555697858	-1.8937682057	 0.121115
H	-3.9641660358	-0.3508836082	-0.971745363	 0.101186
H	-3.6742901932	-1.3652617755	-2.3785063968	 0.108869
H	-4.5690441924	-2.7092445756	-0.3786176463	 0.084245
H	-2.9167523127	-3.3141415004	 1.4066521358	 0.090105
H	-0.4449898576	-2.4479221473	 0.4985292457	 0.128096
H	-1.2217321694	-1.6920053647	 1.8835669073	 0.102097
73.2654	102.7108	186.3651	197.2806	278.4212	336.6602	342.3129	393.9496	459.9617	488.4831	549.2064	665.4889	781.6872	804.0126	829.2511	894.1065	913.144	942.3832	1015.5229	1025.0716	1040.6603	1059.3148	1072.1621	1141.9959	1149.5876	1166.9618	1180.7405	1188.0203	1221.9802	1248.9102	1277.5855	1291.4528	1332.4282	1342.748	1370.893	1377.7819	1395.9201	1408.9229	1463.965	1476.2568	1479.8819	1485.9985	1491.7582	1495.0197	1511.3577	2933.9962	2974.2678	3018.0064	3022.4918	3044.2239	3051.12	3061.3815	3086.0575	3092.676	3099.5981	3110.0285	3110.6151
COC1CCC2OC2C1	CO[C@H]1CC[C@H]2O[C@H]2C1	
InChI=1S/C7H12O2/c1-8-5-2-3-6-7(4-5)9-6/h5-7H,2-4H2,1H3	InChI=1S/C7H12O2/c1-8-5-2-3-6-7(4-5)9-6/h5-7H,2-4H2,1H3/t5-,6+,7-/m0/s1
