23
gdb 68019	2.48927	1.72271	1.29291	0.1313	89.14	-0.2465	0.0965	0.3429	1105.9075	0.206789	-351.13209	-351.123875	-351.122931	-351.163885	34.666	
C	-0.0426603177	 1.5267134155	 0.0497744459	-0.501933
C	 0.0320290162	 0.0163475752	 0.0544821174	 0.337245
C	 0.8977741762	-0.7966393986	-0.9779253692	-0.278727
C	 0.7445831648	-1.9306149665	 0.1023347323	 0.337246
C	 1.6620330798	-3.1311387047	 0.1642527962	-0.501933
C	 0.8325300177	-0.7686541402	 1.1322553585	-0.314867
C	-0.775352112	-2.1919964371	-0.0215727583	-0.067095
C	-1.7303434823	-1.708794172	 1.0436779038	-0.325146
C	-1.2956900285	-0.770238365	-0.0565219331	-0.067095
H	 0.9551116647	 1.9768587927	 0.0846160145	 0.10938
H	-0.543671852	 1.8960150965	-0.8529505351	 0.112067
H	-0.607463341	 1.8957908921	 0.9135509471	 0.116285
H	 0.4651830158	-0.9792659999	-1.9668434387	 0.080185
H	 1.923168336	-0.4236801397	-1.0722566603	 0.081991
H	 2.7140763636	-2.8292837954	 0.2027523611	 0.109379
H	 1.4549997368	-3.73965116	 1.05204795	 0.116285
H	 1.5319016426	-3.7751844043	-0.7135738878	 0.112067
H	 1.8560373417	-0.3921352458	 1.2109407302	 0.0872
H	 0.423803727	-0.8935517875	 2.1367565134	 0.087303
H	-1.1029186045	-2.9481085706	-0.7276989245	 0.077695
H	-2.7464333062	-2.0828069807	 0.9564611933	 0.104694
H	-1.4177013691	-1.5691053422	 2.0715790159	 0.11008
H	-2.0225246895	-0.4353922017	-0.7894673825	 0.077695
212.3299	219.095	226.4444	240.5167	245.2691	335.9682	403.3823	422.5014	539.4212	551.9423	578.6896	584.6771	667.7158	784.4213	789.7101	818.9148	825.6769	871.2378	926.4753	940.2345	970.8038	975.6138	1002.8672	1032.3769	1038.0781	1043.7514	1062.5428	1077.8277	1105.2194	1123.8417	1147.4582	1189.7068	1191.2039	1196.5303	1242.9583	1248.6683	1267.4701	1274.4654	1347.9658	1381.9703	1412.5348	1416.0165	1473.9214	1492.2597	1492.8962	1493.9549	1494.4828	1497.2289	1537.2766	3021.7258	3021.7612	3035.3566	3063.3317	3083.9384	3084.0029	3091.7342	3092.5856	3096.9576	3110.0721	3128.9138	3154.1093	3163.8702	3204.9179
CC12CC(C)(C1)C1CC21	C[C@@]12C[C@@](C)(C1)[C@H]1C[C@@H]21	
InChI=1S/C9H14/c1-8-4-9(2,5-8)7-3-6(7)8/h6-7H,3-5H2,1-2H3	InChI=1S/C9H14/c1-8-4-9(2,5-8)7-3-6(7)8/h6-7H,3-5H2,1-2H3/t6-,7+,8-,9+
