19
gdb 55918	4.03793	0.94046	0.85157	1.4173	75.19	-0.2441	-0.01	0.2341	1387.1876	0.156923	-423.008452	-422.999401	-422.998457	-423.043679	32.74	
C	-0.1247805947	 1.5134068934	-0.0929131932	-0.472185
C	-0.1601792906	 0.0004669511	 0.0349400561	 0.380469
O	-0.3938530831	-0.5464467713	 1.0896421398	-0.294285
C	 0.1150311314	-0.7910075189	-1.2366424307	-0.32366
C	 0.018875562	-2.2965274754	-1.0481893114	 0.003109
C	-1.3963282294	-2.9298964434	-0.7690243522	-0.255866
C	-1.2321170272	-3.7471250673	-2.0549217988	 0.033243
O	-1.0492308531	-2.8121132524	-3.1291476199	-0.250099
C	 0.08709518	-3.154833798	-2.3253582377	-0.006479
H	 0.8439586823	 1.8435511669	-0.4842241085	 0.1365
H	-0.8851516458	 1.8505826894	-0.8064791215	 0.140881
H	-0.3057607082	 1.9730663699	 0.8793883973	 0.141816
H	-0.5850374951	-0.4666960189	-2.0173719351	 0.135961
H	 1.1119863806	-0.5040598603	-1.6025593008	 0.116364
H	 0.7348974887	-2.6369975316	-0.2963944178	 0.089541
H	-1.406614192	-3.5305880578	 0.141870208	 0.115157
H	-2.2491519781	-2.2469716223	-0.7620171057	 0.107476
H	-1.6353834238	-4.7189635046	-2.314751267	 0.104023
H	 0.9551182363	-3.5492620387	-2.8422940807	 0.098034
33.3669	71.986	110.3315	122.2014	197.4807	301.636	330.7981	430.2781	476.7928	563.7827	583.1237	726.4291	795.9225	825.2661	833.409	847.0825	880.3365	916.2575	934.6051	962.9523	982.1019	1008.9354	1045.9708	1087.0279	1114.8921	1156.0881	1171.202	1211.5703	1232.6239	1239.7151	1241.3224	1278.4348	1328.5824	1379.147	1383.5676	1397.6775	1446.3824	1464.9085	1473.6898	1476.9726	1805.8087	3010.298	3037.2023	3054.2895	3073.6847	3086.8781	3097.6262	3133.3792	3151.88	3173.4451	3192.0233
CC(=O)CC1CC2OC12	CC(=O)C[C@H]1C[C@H]2O[C@@H]12	
InChI=1S/C7H10O2/c1-4(8)2-5-3-6-7(5)9-6/h5-7H,2-3H2,1H3	InChI=1S/C7H10O2/c1-4(8)2-5-3-6-7(5)9-6/h5-7H,2-3H2,1H3/t5-,6+,7-/m0/s1
