15
gdb 6665	6.01752	0.91823	0.86536	4.9146	63.67	-0.2549	0.0108	0.2657	1276.1686	0.117704	-399.786082	-399.777665	-399.77672	-399.819984	29.635	
O	-0.5243603864	 0.1783950304	 0.8394876572	-0.360872
C	-0.3197892547	 1.4645658186	 0.5176839711	 0.421354
O	 0.5753511549	 2.1250349941	 0.9668649327	-0.327162
C	-1.3290780115	 1.9993188267	-0.5131348848	-0.305321
N	-2.5070360207	 1.1382964174	-0.5969462923	-0.320198
H	-2.8852923396	 1.1157493063	-1.5361696792	 0.243484
H	-1.3180300052	-0.0920246151	 0.3297618377	 0.307304
C	-3.571533704	 1.5025442292	 0.3526847929	-0.293116
C	-4.7485885846	 0.6620037531	 0.1773736072	 0.270061
C	-5.7207887357	-0.022769675	 0.0095147708	-0.406969
H	-1.5507784854	 3.0452574137	-0.2615851305	 0.13145
H	-0.8193044621	 2.0012700759	-1.4819788192	 0.143803
H	-3.1753971541	 1.3797823883	 1.3690218677	 0.155846
H	-3.8595739379	 2.5636264221	 0.2591093432	 0.132622
H	-6.581541353	-0.6303621656	-0.1256898646	 0.207712
54.5538	69.1911	116.9515	165.8306	303.4667	338.4242	343.5387	455.6256	560.2224	567.7511	624.7757	670.1155	677.1244	760.5103	850.8101	869.5554	930.2134	986.6446	1016.3945	1080.6229	1131.0596	1207.8059	1239.181	1268.8327	1349.5721	1371.846	1414.1274	1465.483	1478.84	1498.5726	1881.4311	2247.3654	2959.4642	3020.2086	3039.3518	3087.7187	3503.932	3505.204	3553.5603
[O-]C(=O)C[NH2+]CC#C	OC(=O)CNCC#C	
InChI=1S/C5H7NO2/c1-2-3-6-4-5(7)8/h1,6H,3-4H2,(H,7,8)	InChI=1S/C5H7NO2/c1-2-3-6-4-5(7)8/h1,6H,3-4H2,(H,7,8)
