15
gdb 78127	2.88577	1.32742	1.09762	3.2432	72.69	-0.2388	-0.0194	0.2194	1104.8749	0.110504	-420.569759	-420.561532	-420.560588	-420.602662	31.034	
O	-0.2589601906	 1.4204004804	 0.0756891159	-0.409379
C	-0.0839783062	 0.0415524021	-0.027838031	 0.080659
C	-1.2634771808	-0.8416164275	 0.0010155491	-0.090996
C	-0.3902847779	-0.7443444497	-1.2988153235	-0.245587
C	-1.5697732175	-0.1499188602	-2.0004151814	 0.423191
O	-1.8195279592	 0.0709644698	-3.1468728853	-0.305901
C	-2.4594102268	-0.1475847036	-0.6989531914	-0.328613
C	-3.6582409366	-0.9463804032	-0.8272130606	 0.30629
C	-4.6439462264	-1.6242902533	-0.9444377846	-0.414145
H	 0.4115380236	 1.8553313294	-0.4618712661	 0.297618
H	 0.7930970848	-0.3460977225	 0.4918086663	 0.110926
H	-1.3663316113	-1.6940174916	 0.6581316213	 0.123957
H	 0.3326628048	-1.4249536169	-1.7319161708	 0.114121
H	-2.6768364899	 0.8509024913	-0.3111446777	 0.140064
H	-5.5226615899	-2.2108957646	-1.05064332	 0.197794
85.5656	126.61	142.8335	246.4692	304.0869	370.6105	397.9238	452.4849	497.427	592.3622	618.2394	643.7083	657.4175	692.4073	759.0152	854.3276	888.9804	913.3292	946.0929	986.4738	1036.4574	1057.3927	1089.1489	1106.1175	1170.9083	1206.8479	1257.0933	1262.6091	1316.559	1334.2154	1451.7101	1891.4115	2237.7743	3081.4365	3101.1935	3193.4189	3219.2746	3504.544	3811.1919
OC1C2C1C(=O)C2C#C	O[C@H]1[C@@H]2[C@H]1C(=O)[C@H]2C#C	
InChI=1S/C7H6O2/c1-2-3-4-5(6(3)8)7(4)9/h1,3-5,7,9H	InChI=1S/C7H6O2/c1-2-3-4-5(6(3)8)7(4)9/h1,3-5,7,9H/t3-,4-,5-,7-/m0/s1
