17
gdb 55500	3.44039	0.98446	0.77272	2.6643	72.93	-0.2501	-0.0833	0.1669	1444.7755	0.133738	-455.210207	-455.200266	-455.199322	-455.246073	34.249	
C	 0.0499855086	 1.5409930467	-0.008173121	-0.466015
C	-0.0401460266	 0.0502678642	 0.1900491776	 0.380814
N	-0.1227727337	-0.4656495957	 1.3452221379	-0.48505
N	-0.021293863	-0.6639694862	-1.0326154682	-0.371914
C	-0.0878149479	-2.0136892266	-1.2013077695	 0.31755
O	-0.1749583546	-2.8551760074	-0.3256568557	-0.351829
C	-0.0397637986	-2.4089094673	-2.698454014	 0.318481
C	-0.1072764087	-3.8825305277	-2.9816623254	-0.473263
O	 0.0468513779	-1.5466367692	-3.5436163105	-0.300509
H	 0.9749154197	 1.8124160521	-0.5299626971	 0.137147
H	-0.7884419633	 1.9081448752	-0.611240468	 0.137207
H	 0.031478058	 2.0279895249	 0.9656513191	 0.159426
H	-0.1753607573	-1.4834763715	 1.2868218165	 0.249976
H	 0.0472993331	-0.1494137738	-1.9026132514	 0.271131
H	-1.0251513117	-4.299637363	-2.5552417498	 0.165748
H	-0.0679144711	-4.0571415313	-4.0566044351	 0.145367
H	 0.7178086492	-4.3945166435	-2.4762240452	 0.165732
57.4354	83.2124	87.7151	128.2077	145.0227	164.7318	288.8526	311.3147	376.9043	420.5799	517.6762	543.9198	556.9824	618.8405	703.6705	740.5262	851.0688	918.1659	966.0066	976.9213	1026.8918	1034.0482	1082.0149	1123.7859	1172.2544	1265.2301	1356.1536	1386.7915	1410.5936	1449.032	1455.9134	1473.0892	1483.4956	1525.8519	1731.8597	1788.4118	1808.0614	3034.8788	3051.5033	3090.1403	3112.0079	3166.7492	3167.7397	3483.1584	3566.7964
CC(=N)NC(=O)C(C)=O	CC(=N)NC(=O)C(=O)C	
InChI=1S/C5H8N2O2/c1-3(8)5(9)7-4(2)6/h1-2H3,(H2,6,7,9)	InChI=1S/C5H8N2O2/c1-3(8)5(9)7-4(2)6/h1-2H3,(H2,6,7,9)
