25
gdb 59593	2.4494	1.27457	0.95877	0.1186	93.27	-0.2348	0.0287	0.2635	1360.2758	0.228959	-352.379173	-352.369279	-352.368335	-352.413243	38.623	
C	-0.140760998	 1.5619067061	-0.2633016622	-0.391041
C	 0.0165529548	 0.0552742404	-0.003790668	 0.013407
C	 0.7520538475	-0.1659623566	 1.3273130917	-0.39092
C	-1.3425752187	-0.6651565759	-0.0184505201	 0.05157
C	-2.2444316139	-0.3914851939	-1.2526601474	-0.282737
C	-3.1295218385	-1.6138931205	-1.2963557992	-0.07484
C	-2.647543152	-2.5968149259	-0.5384781596	-0.066319
C	-1.3255871559	-2.2270367835	 0.1036894706	-0.053125
C	-0.169054651	-2.9423064764	-0.6224412495	-0.391027
H	 0.830473066	 2.0666035645	-0.2256483896	 0.105909
H	-0.5832312865	 1.7662756591	-1.2423251461	 0.113893
H	-0.7825654182	 2.0242175775	 0.4968698613	 0.109148
H	 0.6354380964	-0.3578897382	-0.8123232081	 0.070815
H	 0.1808356483	 0.2642372828	 2.1589851977	 0.109593
H	 0.9050133831	-1.2263003621	 1.5470736015	 0.114316
H	 1.7346987448	 0.3173798326	 1.3177773614	 0.107345
H	-1.9074254551	-0.3059146081	 0.8541248547	 0.069017
H	-2.8070747415	 0.5433208083	-1.1562664512	 0.101244
H	-1.6575046855	-0.3010252846	-2.1798105404	 0.100715
H	-4.0275855343	-1.6688280461	-1.9022319751	 0.087707
H	-3.0842772579	-3.5850354747	-0.4357850441	 0.085398
H	-1.2947600632	-2.5243838053	 1.1592232395	 0.069696
H	-0.1277887845	-2.6580240918	-1.6790447313	 0.117128
H	 0.8030323951	-2.7211067253	-0.1719844544	 0.114496
H	-0.311041471	-4.0276025124	-0.5821134219	 0.108611
104.7348	115.5923	175.7269	218.5948	226.909	253.734	259.1741	286.6837	327.8258	387.6862	430.1728	483.6477	488.6556	659.5312	736.5376	763.5138	775.7464	864.0274	891.1075	930.0009	954.9808	962.949	969.395	974.2719	978.9447	1009.1777	1062.5536	1071.5441	1105.0853	1133.1278	1142.4552	1158.4541	1190.9289	1208.0486	1277.7652	1295.3476	1314.5515	1328.385	1343.8235	1359.2727	1367.2398	1389.8492	1400.0448	1408.5847	1421.6829	1485.8909	1487.9824	1492.6107	1497.468	1498.8946	1506.7842	1512.31	1686.5013	2985.4125	2993.3459	3009.7188	3021.4728	3023.4154	3029.5513	3033.2702	3059.1171	3085.5329	3092.5278	3097.2507	3104.6079	3106.9869	3109.7862	3173.0208	3199.7041
CC(C)C1CC=CC1C	CC(C)[C@H]1CC=C[C@H]1C	
InChI=1S/C9H16/c1-7(2)9-6-4-5-8(9)3/h4-5,7-9H,6H2,1-3H3	InChI=1S/C9H16/c1-7(2)9-6-4-5-8(9)3/h4-5,7-9H,6H2,1-3H3/t8-,9-/m1/s1
