16
gdb 33376	5.97636	0.60656	0.56982	4.2662	82.95	-0.263	-0.0441	0.219	1830.4475	0.124238	-400.711824	-400.703042	-400.702098	-400.747032	30.239	
N	-0.0162661187	-3.6931178588	-0.2626925806	-0.335384
C	-0.0153062348	-2.5352000517	-0.1682718453	 0.209658
C	-0.0128539871	-1.1746210389	-0.0568260725	 0.060238
C	-0.0151032471	 0.0297191171	 0.0426106521	 0.074229
C	 0.0155390655	 1.4779082299	 0.1642026291	-0.395155
C	 1.4432729336	 2.0460383551	 0.1494029106	-0.02713
C	 2.1593925674	 2.0364536984	-1.2194931369	-0.075215
O	 2.0741248388	 3.4731120049	-1.3213176822	-0.265941
C	 1.5283997267	 3.5821378029	 0.006820868	-0.089695
H	-0.5628629299	 1.920834776	-0.6576036669	 0.156183
H	-0.4904417594	 1.7711710475	 1.0935285711	 0.151791
H	 2.020446775	 1.6233385172	 0.9734214924	 0.100895
H	 3.1987278154	 1.6870798164	-1.1970929678	 0.111306
H	 1.6318752761	 1.5304863276	-2.0373919052	 0.112102
H	 0.5725430753	 4.1219414283	 0.0192527648	 0.105116
H	 2.2224599533	 4.0736981581	 0.7000276693	 0.107002
53.1086	54.1208	81.3113	158.6171	199.1397	312.338	355.1504	372.435	476.7113	577.1572	580.3143	725.0448	785.873	862.5189	884.129	887.1407	970.867	1042.1113	1052.2346	1091.4296	1133.0913	1161.0737	1164.7574	1171.1851	1234.676	1264.3412	1312.3612	1320.7643	1367.8177	1391.683	1460.1766	1513.73	1538.3686	2265.9151	2402.0306	3007.0402	3017.0799	3021.6075	3050.6422	3052.4596	3060.8944	3100.6424
N#CC#CCC1COC1	N#CC#CCC1COC1	
InChI=1S/C7H7NO/c8-4-2-1-3-7-5-9-6-7/h7H,3,5-6H2	InChI=1S/C7H7NO/c8-4-2-1-3-7-5-9-6-7/h7H,3,5-6H2
