18
gdb 19454	4.9171	1.53327	1.50464	0.7769	77.7	-0.2481	0.0542	0.3023	913.8482	0.155775	-310.627837	-310.621041	-310.620097	-310.658436	27.774	
C	-0.0703794958	-1.2079643518	-0.0983190422	-0.43647
C	-0.0335186762	-0.0068251095	-0.0367496662	 0.293999
C	-0.0078143887	 1.4401676958	 0.0178864816	-0.169603
C	-0.0687378385	 2.079186342	 1.4547917185	-0.009171
C	 1.4531041908	 1.7753610097	 1.5524890454	-0.233537
C	 1.4178743002	 2.1064390445	 0.0336066184	-0.009171
C	 1.0517069234	 3.601771565	 0.0336009682	-0.223437
C	-0.0809812876	 3.5810070411	 1.1164394853	-0.223436
H	-0.1016967353	-2.2677925497	-0.1513780936	 0.188255
H	-0.7128987677	 1.8548149734	-0.7117063643	 0.087942
H	-0.7812435618	 1.7158807372	 2.1947709028	 0.069079
H	 2.0612566342	 2.4131109331	 2.2008685381	 0.08641
H	 1.6593801397	 0.7227954474	 1.7480773898	 0.116696
H	 2.1958498989	 1.770457317	-0.6512983741	 0.069079
H	 1.8993443456	 4.2298033337	 0.3216944359	 0.098746
H	 0.696304139	 3.9456494262	-0.9420531149	 0.097935
H	-1.046143208	 3.9137070834	 0.7237090833	 0.097935
H	 0.1567721178	 4.1978582715	 1.987576008	 0.098746
150.0254	157.6516	302.5844	370.8091	439.5285	499.2461	522.2912	605.1095	634.1448	648.0149	820.0411	829.0374	842.9777	882.4215	890.1905	908.0615	941.4776	967.2854	994.0284	1023.5131	1052.3325	1060.3445	1081.8463	1126.1311	1150.5334	1198.071	1219.9784	1237.578	1257.8729	1270.1932	1277.328	1311.9432	1314.8559	1364.158	1493.0041	1498.2429	1519.7478	2230.0002	3036.0008	3049.829	3058.0138	3061.5207	3086.9558	3105.789	3120.4184	3123.0091	3137.9281	3505.1254
C#CC1C2CC1CC2	C#C[C@H]1[C@H]2C[C@@H]1CC2	
InChI=1S/C8H10/c1-2-8-6-3-4-7(8)5-6/h1,6-8H,3-5H2	InChI=1S/C8H10/c1-2-8-6-3-4-7(8)5-6/h1,6-8H,3-5H2/t6-,7+,8+
