16
gdb 101973	1.7813	1.47209	1.29024	2.0449	72.7	-0.2355	-0.0507	0.1849	1121.4154	0.119167	-437.839056	-437.828807	-437.827863	-437.874704	35.275	
C	-0.2222685682	 1.4098921144	 0.3687718775	-0.342253
N	-0.0567085161	-0.0338717932	 0.1678959257	-0.31783
C	 0.5854086935	-0.415508605	-1.0794960446	-0.099915
C	-0.3461332445	-0.012197981	-2.2532305329	 0.148238
O	 0.0301791315	 0.4464800978	-3.2952790364	-0.239322
C	 2.0184931	 0.1402024303	-1.3057364171	 0.141568
O	 2.6697338119	 0.615191666	-0.4155521236	-0.250852
C	 0.7120526995	-1.8713127429	-1.1665686796	 0.297308
C	 0.8502474081	-3.0609258869	-1.2730513817	-0.427772
H	 0.7178656517	 1.9733472273	 0.4018753056	 0.137181
H	-0.8460252185	 1.8240684622	-0.4312698153	 0.130038
H	-0.7588672079	 1.5646179809	 1.3083169367	 0.130669
H	 0.462343948	-0.4371520785	 0.9396042547	 0.240058
H	-1.4131041892	-0.210751969	-2.0215186578	 0.117497
H	 2.3976238425	 0.0394867694	-2.3403467175	 0.121552
H	 0.9642354176	-4.1145084318	-1.3528057936	 0.213835
56.4481	92.6083	107.5273	143.9528	161.689	199.9851	218.1557	259.0275	301.5706	413.2159	459.7303	476.2817	528.0691	630.396	644.749	668.0764	716.2397	776.8581	920.0426	980.7538	1040.9437	1065.8181	1096.1693	1155.6368	1190.0311	1236.9061	1382.46	1395.7912	1458.2805	1482.8128	1485.0148	1527.0004	1827.2355	1838.179	2224.7715	2925.2238	2958.8278	3022.8282	3082.5941	3113.7178	3497.0415	3545.6014
CNC(C=O)(C=O)C#C	CNC(C=O)(C=O)C#C	
InChI=1S/C6H7NO2/c1-3-6(4-8,5-9)7-2/h1,4-5,7H,2H3	InChI=1S/C6H7NO2/c1-3-6(4-8,5-9)7-2/h1,4-5,7H,2H3
