25
gdb 100998	2.44929	1.08198	1.00973	1.3385	88.41	-0.2519	0.067	0.319	1404.5851	0.227301	-389.490933	-389.480279	-389.479335	-389.526362	40.478	
C	-0.1172496335	 1.5126923422	 0.3540934653	-0.392972
C	-0.0682898149	 0.0076788096	 0.0695458312	-0.172469
C	-1.4533594049	-0.6523784258	-0.0956004671	 0.027601
C	-2.1533618292	-0.1749751801	-1.3780585964	-0.408023
C	-1.3448676205	-2.1889445485	-0.0611218665	 0.41688
O	-0.5232826415	-2.555947354	-1.1530607958	-0.488713
C	-0.9632525159	-2.7704136299	 1.3402604873	-0.281787
C	-2.4594572048	-3.0921596198	 1.5886049568	-0.213074
C	-2.7182260731	-2.9262415709	 0.069160847	-0.283781
H	 0.8905923475	 1.9125962936	 0.5053142984	 0.109509
H	-0.5697468802	 2.0746710385	-0.468736309	 0.117057
H	-0.6968924397	 1.7276647156	 1.2595721029	 0.107987
H	 0.5208476223	-0.1842282726	-0.8336691351	 0.110367
H	 0.4706234421	-0.4830084515	 0.8881261494	 0.090478
H	-2.0723780551	-0.3623530576	 0.7659577687	 0.062995
H	-1.5716418646	-0.4630226315	-2.2579980421	 0.131289
H	-3.1524912394	-0.6080829472	-1.4818954046	 0.108053
H	-2.2702968759	 0.9120663638	-1.3835377387	 0.108862
H	-0.4440444897	-3.5146856973	-1.1598329905	 0.272382
H	-0.3631136618	-3.6798557217	 1.2275248584	 0.087652
H	-0.4550000156	-2.1121804893	 2.0487507369	 0.099625
H	-2.6928187256	-4.0631413998	 2.0298359314	 0.097237
H	-2.9567101456	-2.3196862786	 2.1804673777	 0.106232
H	-3.619362598	-2.3949379566	-0.2447134777	 0.099424
H	-2.6873903423	-3.8867910307	-0.4567670881	 0.087189
61.3158	89.3244	124.4369	193.8378	200.9449	222.8639	271.2491	285.4754	319.4288	327.3741	346.3577	446.5322	479.8481	491.4289	662.1363	729.754	774.7287	782.903	813.0712	874.6959	908.6889	939.8243	967.3954	982.3825	984.9896	1017.5362	1033.7451	1052.4624	1062.7979	1099.2039	1156.044	1187.2398	1197.6157	1201.6871	1220.5915	1244.5257	1272.4066	1275.7587	1293.8205	1333.8769	1351.821	1375.5237	1406.4012	1408.1535	1414.9745	1470.451	1482.9729	1487.6192	1493.9511	1501.6605	1504.5519	1510.0125	1510.8639	2999.3487	3029.2927	3037.748	3043.0409	3046.2177	3049.4944	3065.8432	3071.508	3095.7691	3100.6126	3101.9025	3107.0361	3112.0373	3121.1293	3123.5935	3819.8457
CCC(C)C1(O)CCC1	CC[C@@H](C)C1(O)CCC1	
InChI=1S/C8H16O/c1-3-7(2)8(9)5-4-6-8/h7,9H,3-6H2,1-2H3	InChI=1S/C8H16O/c1-3-7(2)8(9)5-4-6-8/h7,9H,3-6H2,1-2H3/t7-/m1/s1
