20
gdb 36900	4.83317	0.87039	0.83679	1.9951	79.55	-0.2323	0.0903	0.3226	1430.2877	0.170945	-403.06918	-403.060951	-403.060007	-403.102773	31.309	
C	-0.2058983657	 1.6644109223	 0.0722168023	-0.157203
C	-0.1465347315	 0.1504016382	-0.0604420046	-0.01391
C	 0.2771538608	-0.6922195706	 1.200181667	-0.256966
C	-1.0865927832	-1.3907389136	 1.1309122285	 0.03419
O	-2.0914809143	-0.3733899224	 1.2397041546	-0.245932
C	-1.4922437947	-0.6000681041	-0.0420874995	 0.003716
N	 1.1270824771	 2.2167897385	 0.2919248989	-0.059856
C	 1.8792990316	 2.5911325881	-0.9014959483	-0.220858
C	 1.298361138	 3.6321284544	-0.0086216442	-0.219191
H	-0.6902101721	 2.0972754492	-0.8242974928	 0.072768
H	-0.8287209569	 1.9205834973	 0.9354362123	 0.11884
H	 0.4517890678	-0.1367434351	-0.9312182415	 0.075541
H	 1.1201632692	-1.3556954472	 0.9956158787	 0.104532
H	 0.4685464246	-0.1298337912	 2.1162695406	 0.118278
H	-1.3669707021	-2.3918315259	 1.4373604089	 0.102428
H	-2.160105169	-0.832491	-0.8642318451	 0.097655
H	 2.9438293762	 2.3756641736	-0.8819523834	 0.115261
H	 1.4028828068	 2.4495309958	-1.8711001782	 0.105786
H	 0.4366348961	 4.18235091	-0.384076182	 0.108728
H	 1.9309182914	 4.1899390424	 0.6761567878	 0.116194
68.521	82.3778	130.448	182.574	315.8659	340.1224	422.7487	466.1775	555.3127	728.9261	773.3464	815.0161	837.1669	843.5572	867.201	879.9273	909.1682	943.242	966.0658	1001.3195	1021.9128	1036.8398	1045.3041	1081.4195	1111.8242	1115.4783	1116.7855	1155.2883	1177.0129	1198.6773	1210.6963	1238.2734	1239.8449	1276.4644	1278.9163	1321.0592	1339.3669	1383.1554	1407.6958	1474.0559	1488.4432	1498.8366	1522.9429	2916.7062	3055.1888	3074.4742	3077.7459	3089.4793	3094.7504	3131.2916	3173.6704	3174.1875	3187.8233	3191.4206
C(C1CC2OC12)N1CC1	C([C@H]1C[C@H]2O[C@@H]12)N1CC1	
InChI=1S/C7H11NO/c1-2-8(1)4-5-3-6-7(5)9-6/h5-7H,1-4H2	InChI=1S/C7H11NO/c1-2-8(1)4-5-3-6-7(5)9-6/h5-7H,1-4H2/t5-,6-,7+/m1/s1
