20
gdb 91537	2.62166	1.37912	1.16212	0.9783	79.47	-0.2263	0.0731	0.2994	1153.6073	0.170751	-403.08184	-403.073299	-403.072355	-403.115183	32.645	
C	 0.0300272903	 1.6331652132	 0.0290294975	-0.416419
C	 0.0438483027	 0.111015195	 0.0062553918	-0.034079
C	 1.0902893266	-0.6087919485	-0.925791585	-0.238269
C	 1.6503732446	-1.3210594991	 0.3066489652	-0.111557
N	 2.1073984462	-0.2563803874	 1.233796663	-0.385501
C	 0.6719887044	-0.636322665	 1.2015476666	 0.371706
C	-0.0138599746	-1.1438850033	 2.4100978745	-0.064913
C	-1.1454109264	-0.4477058239	 3.0404959539	-0.186379
O	-1.357076483	-1.6117862226	 2.2392502678	-0.233148
H	 1.0207677398	 2.0195234488	 0.2826529795	 0.137175
H	-0.2550423726	 2.0327007973	-0.9503011398	 0.112146
H	-0.6866761022	 2.020311676	 0.762094081	 0.108002
H	-0.9563448384	-0.2900026298	-0.1782980662	 0.090136
H	 0.6215848077	-1.2832743564	-1.6450305648	 0.10444
H	 1.800349084	 0.0439052869	-1.4407396934	 0.105481
H	 2.0608499671	-2.321721836	 0.373570439	 0.094821
H	 2.5271491938	-0.7175079569	 2.0421498515	 0.225093
H	 0.6018279773	-1.786291374	 3.045128249	 0.083706
H	-1.3291695234	-0.572048493	 4.1069415939	 0.116915
H	-1.5072332839	 0.4851837587	 2.6120819851	 0.120644
66.1955	137.2575	167.1016	200.6115	223.2197	296.3058	385.2568	411.336	478.747	564.9729	644.0088	678.522	803.7251	848.1359	858.566	868.2903	887.7579	928.4994	934.9805	966.3393	1009.6273	1048.9903	1090.6382	1096.3844	1106.0947	1112.0496	1145.1668	1154.9752	1168.035	1194.7509	1221.37	1239.514	1276.9798	1293.9572	1334.7054	1364.601	1393.8455	1401.759	1467.111	1485.6119	1489.9977	1504.2014	1527.9181	3029.9739	3061.8562	3073.1255	3074.7956	3085.8914	3089.4018	3119.3711	3124.2158	3173.9656	3184.0617	3456.1219
CC1CC2NC12C1CO1	C[C@H]1C[C@H]2N[C@@]12[C@H]1CO1	
InChI=1S/C7H11NO/c1-4-2-5-7(4,8-5)6-3-9-6/h4-6,8H,2-3H2,1H3	InChI=1S/C7H11NO/c1-4-2-5-7(4,8-5)6-3-9-6/h4-6,8H,2-3H2,1H3/t4-,5+,6+,7-/m0/s1
