23
gdb 119963	2.89085	0.76677	0.716	0.8313	82.7	-0.254	0.0733	0.3273	1688.415	0.203848	-425.399459	-425.388299	-425.387355	-425.436589	39.56	
C	-0.3281206548	 0.9365280738	-1.8715938186	-0.405985
C	-0.0339476662	-0.2072938728	-0.9238894349	-0.008411
C	 1.3677916551	-0.5309901609	-0.4514696687	-0.036329
C	 2.5655350676	 0.2736492518	-0.8843924652	-0.097824
O	 2.9311718107	-0.1654559359	-2.1898834126	-0.423131
C	 0.3386623528	-0.0131449118	 0.5348965233	-0.05179
C	 0.4253182907	 1.3442068219	 1.2049140674	-0.198564
C	-0.9201888067	 1.7910855432	 1.768792607	-0.068313
O	-0.726568216	 3.0389163561	 2.4183867102	-0.423441
H	 0.2477833148	 1.8365568022	-1.6437385419	 0.115126
H	-0.0878025214	 0.6510139144	-2.9007517459	 0.128389
H	-1.3884409938	 1.2106860578	-1.8356018777	 0.109645
H	-0.6497924665	-1.0817409212	-1.1200417081	 0.079721
H	 1.5998155131	-1.5899897113	-0.372497425	 0.085075
H	 2.3468013439	 1.3502742408	-0.8819104433	 0.082985
H	 3.3907085122	 0.1130036911	-0.1717670773	 0.085846
H	 3.7418426232	 0.2887148015	-2.4389631268	 0.283033
H	-0.0499384253	-0.777807388	 1.2053108708	 0.078286
H	 1.1469967882	 1.3116785627	 2.0308989529	 0.104379
H	 0.7784696688	 2.1189355406	 0.518744968	 0.104558
H	-1.6557815779	 1.8733903895	 0.9529145878	 0.090061
H	-1.2982275625	 1.0298761103	 2.4714038293	 0.08207
H	-1.5730990602	 3.3299400742	 2.7691814493	 0.284613
59.6494	73.6774	87.8874	94.785	137.9831	208.5577	239.0735	259.7402	266.4239	285.826	309.1393	390.5218	502.6059	534.925	571.4268	763.6535	777.5651	814.6777	862.9381	935.999	986.1103	1014.4593	1030.8455	1055.0371	1059.6636	1073.8591	1091.2033	1120.1001	1156.4707	1170.034	1183.7734	1232.0394	1239.472	1250.6143	1259.2603	1284.5751	1311.8063	1323.2681	1375.7255	1398.0877	1420.0016	1449.9027	1459.7387	1474.5801	1486.113	1498.4462	1505.6236	1523.8501	1527.968	2961.1288	2969.8364	2990.4862	3015.2486	3033.6188	3035.7734	3088.3033	3093.3831	3112.0644	3113.7958	3129.0389	3143.1895	3822.0655	3831.3365
CC1C(CO)C1CCO	C[C@H]1[C@@H](CO)[C@H]1CCO	
InChI=1S/C7H14O2/c1-5-6(2-3-8)7(5)4-9/h5-9H,2-4H2,1H3	InChI=1S/C7H14O2/c1-5-6(2-3-8)7(5)4-9/h5-9H,2-4H2,1H3/t5-,6+,7-/m1/s1
