27
gdb 121350	2.99478	0.85964	0.74788	0.1014	95.58	-0.2906	0.0766	0.3672	1699.9359	0.25322	-353.586585	-353.576058	-353.575114	-353.622464	39.543	
C	 0.0972191781	 1.5300284516	 0.4664470007	-0.380006
C	-0.0266853847	 0.0370446192	 0.1503881959	-0.167897
C	 0.7691921333	-0.3832144348	-1.092423801	-0.197681
C	 0.692920995	-1.8818663793	-1.398210892	 0.053881
C	-0.713207386	-2.3997890539	-1.7937842899	-0.207567
C	-0.4739579976	-3.6792273802	-2.6448404477	-0.208507
C	 1.0644450575	-3.8187255985	-2.7659714828	-0.208991
C	 1.6165689259	-2.3979266428	-2.5323324651	-0.002014
C	 1.5799831233	-1.548871153	-3.8114573961	-0.391699
H	 1.1411250641	 1.8117286292	 0.6448675278	 0.111802
H	-0.2710083261	 2.1427950842	-0.364103441	 0.112195
H	-0.477194824	 1.8000457204	 1.3583445614	 0.108896
H	 0.3165592117	-0.5495111503	 1.0133696491	 0.091498
H	-1.0844278764	-0.2190652029	 0.0118092934	 0.098178
H	 0.4089104804	 0.1897474683	-1.9575802423	 0.09127
H	 1.8211102331	-0.0955287959	-0.9529847554	 0.08522
H	 0.9992131224	-2.4193557445	-0.4883335541	 0.061641
H	-1.3335056796	-2.5981942272	-0.9156327749	 0.094873
H	-1.2423937448	-1.6392924033	-2.3798149859	 0.092739
H	-0.9208658974	-4.5671373397	-2.189150921	 0.093838
H	-0.9339953524	-3.5757647953	-3.6321525204	 0.097942
H	 1.4407559615	-4.486763482	-1.982676887	 0.090544
H	 1.3768869001	-4.2435962378	-3.7250954185	 0.086313
H	 2.6551883806	-2.4378943307	-2.182289241	 0.058678
H	 0.5649187719	-1.4536101941	-4.2127467569	 0.113039
H	 1.9624618101	-0.5384100854	-3.6389853429	 0.113592
H	 2.19790375	-2.0072053215	-4.5908334223	 0.108221
64.9795	95.5045	98.0046	121.1884	163.2961	230.9142	246.1521	285.5778	305.2786	333.2814	402.7032	506.8026	627.8668	654.7806	747.2708	780.6714	803.5063	842.3916	855.0093	896.0141	905.5011	928.6573	972.2165	992.9459	1027.3563	1038.5346	1048.3139	1062.1503	1076.5521	1105.1788	1133.0283	1178.829	1213.3741	1216.6816	1247.0155	1264.056	1290.0764	1299.1071	1303.9592	1323.4788	1334.3054	1344.0064	1349.1283	1381.5765	1384.398	1400.4326	1411.1902	1414.2794	1482.959	1487.3784	1490.5284	1493.9019	1499.3252	1503.1006	1507.1164	1511.3163	1516.4953	2984.2738	3001.143	3016.0041	3023.3062	3027.5401	3031.0226	3033.6893	3036.046	3039.3052	3054.8181	3058.2895	3071.3944	3081.7765	3094.1429	3094.7999	3098.7717	3099.8451	3105.1014
CCCC1CCCC1C	CCC[C@H]1CCC[C@H]1C	
InChI=1S/C9H18/c1-3-5-9-7-4-6-8(9)2/h8-9H,3-7H2,1-2H3	InChI=1S/C9H18/c1-3-5-9-7-4-6-8(9)2/h8-9H,3-7H2,1-2H3/t8-,9+/m1/s1
