25
gdb 95950	2.49878	1.41115	1.17755	0.055	91.09	-0.2763	0.0724	0.3488	1220.3028	0.23082	-352.368173	-352.358977	-352.358033	-352.402298	35.973	
C	 0.6887316747	 1.5672252602	-0.5427896195	-0.402979
C	 0.0301436511	 0.2493924812	-0.1089424795	-0.054296
C	 0.356451445	-0.9138313329	-1.075740206	-0.214308
C	 1.6542446412	-1.5743162337	-0.523721361	-0.202287
C	 1.9003797129	-0.9254633777	 0.8626320158	-0.269255
C	 0.5571963585	-0.2742831805	 1.2395010995	 0.406262
C	 0.5815225598	 0.6427806899	 2.4952748027	-0.291508
C	 0.0406724778	-0.5386080361	 3.344107206	-0.213879
C	-0.3801237392	-1.247356318	 2.0300181311	-0.272501
H	 1.7704090175	 1.4594514776	-0.6778922175	 0.11374
H	 0.2735232891	 1.908589528	-1.4968904335	 0.109733
H	 0.5245651459	 2.3605415518	 0.1939404815	 0.112491
H	-1.0523057575	 0.4161426027	-0.0500115109	 0.055312
H	-0.4630702617	-1.639601858	-1.0736045519	 0.09551
H	 0.4671808669	-0.5695612071	-2.1085703561	 0.089474
H	 1.526488836	-2.6570003605	-0.4361214193	 0.09734
H	 2.5072957687	-1.4182875372	-1.1898168614	 0.096508
H	 2.2423751417	-1.6456175571	 1.6125489319	 0.089713
H	 2.6763420054	-0.1544164125	 0.7941119094	 0.094139
H	 1.545995961	 1.0727619253	 2.7810271349	 0.090051
H	-0.1480354394	 1.4557573435	 2.420001375	 0.094012
H	 0.8413099808	-1.0723582876	 3.8633393986	 0.100923
H	-0.7472683955	-0.317214652	 4.0677601927	 0.093302
H	-1.4350719301	-1.0757582878	 1.7922779255	 0.091833
H	-0.1776950206	-2.3191631116	 1.9460771419	 0.090669
48.6806	119.5883	124.9387	195.0629	224.0461	296.1966	309.417	367.312	443.735	486.6014	652.3926	691.6497	713.3078	767.3428	795.2195	849.3366	862.4962	870.379	895.8429	928.0133	943.6289	962.1647	977.9369	997.1351	1022.0673	1041.2926	1064.4776	1088.2545	1126.4985	1145.6334	1195.3036	1207.1355	1223.5754	1232.5572	1242.8364	1258.5522	1274.3958	1281.3349	1288.201	1301.3942	1312.5584	1339.9056	1354.8799	1371.8033	1407.5679	1473.5651	1482.2731	1485.8838	1488.2147	1498.6512	1502.5863	1507.1272	1514.7789	3022.5192	3028.4526	3033.4723	3038.8973	3042.9798	3044.8912	3058.8204	3059.0788	3069.5244	3078.5289	3085.4713	3090.7378	3096.0088	3097.0075	3102.488	3113.7013
CC1CCCC11CCC1	C[C@H]1CCCC21CCC2	
InChI=1S/C9H16/c1-8-4-2-5-9(8)6-3-7-9/h8H,2-7H2,1H3	InChI=1S/C9H16/c1-8-4-2-5-9(8)6-3-7-9/h8H,2-7H2,1H3/t8-/m0/s1
