18
gdb 103665	2.72484	1.20989	0.99504	3.9729	72.25	-0.2699	-0.0035	0.2664	1222.0621	0.146339	-439.080499	-439.071314	-439.07037	-439.114829	33.665	
C	-0.4743358345	 1.676405933	-0.132406176	-0.444246
C	 0.0190481088	 0.2437472029	-0.1766390124	 0.398784
C	-1.0813241753	-0.77325951	 0.1334260322	-0.095986
O	-1.5552125574	-0.6112488125	 1.4528874754	-0.41647
C	 0.9594078949	-0.1518966442	-1.3406569832	-0.365071
C	 2.0023971841	-0.4298258723	-0.2293970737	-0.00163
O	 1.1084084128	 0.0347553142	 0.7971216636	-0.328384
C	 2.39027754	-1.8334586813	-0.0506705811	 0.277255
N	 2.6927634967	-2.9412891769	 0.0796611386	-0.317894
H	 0.3576729708	 2.379506839	-0.2243347988	 0.119565
H	-1.1776101364	 1.8580144443	-0.9525152639	 0.123206
H	-0.9941496184	 1.859805797	 0.811129081	 0.147506
H	-1.9345006854	-0.6230206595	-0.5376794237	 0.112968
H	-0.6945543573	-1.7904540693	-0.034101357	 0.100205
H	-0.7860914871	-0.7127396188	 2.0276262122	 0.295868
H	 0.65425411	-1.0173357169	-1.9295590851	 0.13606
H	 1.2365408659	 0.6676065107	-2.0038914187	 0.126611
H	 2.9114942376	 0.1799230406	-0.2754461093	 0.131654
46.1445	115.5788	147.3682	223.9483	233.1779	244.0717	324.8337	337.5235	408.6201	464.4885	476.658	550.3052	574.8698	708.8992	782.4679	869.21	885.1182	910.2714	970.8674	974.5114	1002.7785	1042.2673	1081.3364	1107.5049	1139.1312	1203.3133	1236.6315	1264.4519	1279.1658	1303.3334	1363.1336	1389.0401	1411.9034	1427.3258	1478.1519	1489.3244	1494.9401	1499.9493	2354.7736	2985.8383	3040.7596	3048.124	3071.144	3091.0602	3112.5553	3133.2369	3151.2219	3783.9782
CC1(CO)CC(O1)C#N	C[C@@]1(CO)C[C@@H](O1)C#N	
InChI=1S/C6H9NO2/c1-6(4-8)2-5(3-7)9-6/h5,8H,2,4H2,1H3	InChI=1S/C6H9NO2/c1-6(4-8)2-5(3-7)9-6/h5,8H,2,4H2,1H3/t5-,6+/m1/s1
