20
gdb 57925	3.00253	0.96838	0.82019	2.3196	76.68	-0.2453	-0.0312	0.2142	1454.1188	0.168773	-440.352308	-440.341872	-440.340928	-440.389307	37.335	
C	 0.2965880111	 1.5766614688	 0.2864340626	-0.388343
C	-0.1158286492	 0.1420836766	-0.0459223417	-0.066559
C	-0.0201641467	-0.7850044102	 1.1877409796	-0.399587
C	-1.5356445671	 0.0696596047	-0.5924242506	 0.376246
O	-2.3337837601	 0.9727885119	-0.438694211	-0.328748
C	-1.92624032	-1.2074314828	-1.3338820638	-0.399321
C	-3.2088530012	-1.8856580251	-0.8188933375	 0.383862
N	-4.2858731874	-1.0572958214	-0.7425470893	-0.507025
O	-3.2342814356	-3.0713540487	-0.5586873565	-0.354939
H	 1.3175658593	 1.5975805539	 0.6788843726	 0.111983
H	 0.2544759409	 2.2184494637	-0.5979203318	 0.121488
H	-0.3728132019	 2.0064369304	 1.0360590419	 0.134522
H	 0.547591283	-0.267158604	-0.8204132282	 0.093962
H	-0.649547763	-0.4057381885	 1.9992631662	 0.133114
H	-0.335646434	-1.808376161	 0.9646619943	 0.140246
H	 1.0118945557	-0.8207357171	 1.5479267706	 0.127741
H	-2.0967497508	-0.9167165189	-2.3784156917	 0.154833
H	-1.1342481836	-1.9550003822	-1.3149715994	 0.134535
H	-4.121112516	-0.0594075986	-0.7308362556	 0.27446
H	-5.1113717336	-1.4233388313	-0.2948370608	 0.257531
18.6129	58.0597	79.6672	187.1115	193.4462	232.8742	243.0253	307.2433	323.5026	391.5892	414.6581	490.1874	534.7055	578.595	620.2218	656.6494	705.6616	812.9519	880.0738	896.7675	930.6403	950.9418	973.3185	1056.1196	1100.5895	1131.4937	1139.1288	1174.0047	1202.7402	1297.0016	1308.5356	1349.5918	1375.8478	1402.8547	1422.7348	1455.4081	1484.6039	1487.3322	1503.6214	1510.7292	1618.6667	1780.6841	1810.1255	3014.3296	3039.8665	3044.1392	3046.618	3112.3918	3115.6317	3117.351	3125.6034	3146.0019	3539.8127	3688.6744
CC(C)C(=O)CC(N)=O	CC(C)C(=O)CC(=O)N	
InChI=1S/C6H11NO2/c1-4(2)5(8)3-6(7)9/h4H,3H2,1-2H3,(H2,7,9)	InChI=1S/C6H11NO2/c1-4(2)5(8)3-6(7)9/h4H,3H2,1-2H3,(H2,7,9)
