21
gdb 105371	2.68869	1.06289	0.88278	1.6849	78.38	-0.2479	0.0776	0.3255	1391.4753	0.180397	-424.174746	-424.165082	-424.164138	-424.21005	35.333	
C	 1.1980187959	-1.3248649426	 0.3341070265	-0.251358
O	 2.0648218335	-1.1268517879	-0.767510768	-0.285727
C	 1.435500512	-1.1572160876	-2.0234420648	 0.450327
C	 0.5977756268	 0.0681914287	-2.3469223399	-0.321615
C	 1.4112803572	 1.3433432234	-2.3155317152	 0.113174
C	 1.8942199543	 1.9987191675	-3.5368398198	-0.174066
O	 0.7719386295	 2.5180779979	-2.8204205119	-0.243464
C	 2.2639417631	-1.8000333984	-3.0940533608	-0.310953
C	 1.0381267186	-2.5124276232	-2.5548601219	-0.332448
H	 0.4853051535	-0.4982319589	 0.4615031647	 0.11118
H	 0.6304106578	-2.2610365184	 0.2398309953	 0.108742
H	 1.8287461574	-1.3785055083	 1.2245751966	 0.127885
H	 0.1382993747	-0.0478873836	-3.3337782125	 0.105193
H	-0.22899766	 0.157732314	-1.6304244461	 0.109326
H	 1.9798331976	 1.5030268661	-1.3996579312	 0.103557
H	 2.7936541564	 2.612363116	-3.5083317426	 0.114623
H	 1.6649592462	 1.561087899	-4.5082701474	 0.107599
H	 2.2273891146	-1.3845443256	-4.095004389	 0.111244
H	 3.2319066537	-2.1822223928	-2.7922011431	 0.124423
H	 1.2114686619	-3.3653748723	-1.9083226844	 0.118935
H	 0.1585614853	-2.5915502929	-3.1846852844	 0.113423
59.0312	64.9656	112.4188	142.1778	201.8648	262.8559	297.0915	318.089	374.5307	421.2114	450.2304	556.8413	731.7011	780.3629	821.3264	865.8998	877.1962	900.769	919.0053	955.9467	973.1373	1021.3599	1048.2956	1077.5	1083.4278	1103.2176	1116.9385	1156.9151	1181.6136	1182.8001	1188.1856	1207.7074	1222.4379	1282.2906	1292.0014	1332.469	1361.8804	1444.9868	1451.7915	1471.2296	1477.9252	1497.4148	1499.0805	1509.6156	1531.7441	2995.1381	3029.1809	3047.7477	3078.2705	3080.1509	3117.423	3119.3037	3133.2849	3139.82	3164.3911	3217.7373	3233.4133
COC1(CC2CO2)CC1	COC1(C[C@H]2CO2)CC1	
InChI=1S/C7H12O2/c1-8-7(2-3-7)4-6-5-9-6/h6H,2-5H2,1H3	InChI=1S/C7H12O2/c1-8-7(2-3-7)4-6-5-9-6/h6H,2-5H2,1H3/t6-/m0/s1
