20
gdb 74876	2.70862	1.68414	1.20644	1.3307	85.11	-0.2198	0.0216	0.2414	1082.9328	0.173535	-365.99513	-365.987514	-365.98657	-366.026838	31.162	
C	-0.0321468276	 1.5084388918	 0.0665474081	-0.479925
C	 0.0041420662	 0.0057631248	-0.0070902462	 0.32383
C	-0.0108097696	-0.6501386755	-1.1770165654	-0.147464
C	 0.0061106315	-2.1237433801	-1.2824207666	-0.074147
N	 1.2537536906	-2.8364526025	-0.8788531142	-0.340677
C	 0.0561630456	-2.9340863902	-0.0299308999	-0.058244
C	 0.0740558652	-2.2312010605	 1.2983309735	-0.027759
C	 1.2856361558	-1.4638408796	 1.7436406201	-0.299544
C	 0.0446179375	-0.7097771478	 1.2927091616	-0.127513
H	 0.8579344177	 1.8998682597	 0.5751311946	 0.12784
H	-0.0848059771	 1.9602199531	-0.9276365913	 0.11791
H	-0.8982939988	 1.8541043656	 0.6456922705	 0.120611
H	-0.0446942821	-0.0855667358	-2.1056358285	 0.07562
H	-0.5262448027	-2.5405403548	-2.1345743682	 0.079672
H	 1.349342999	-3.6857756016	-1.4308324055	 0.226208
H	-0.4849627634	-3.8765713564	-0.0350017931	 0.078639
H	-0.5176730539	-2.7157061863	 2.0675319509	 0.080235
H	 1.5232173711	-1.4500842566	 2.8017714259	 0.105142
H	 2.1336550787	-1.4714291884	 1.0696221657	 0.141424
H	-0.5164430839	-0.2281695888	 2.089782418	 0.078142
134.3968	178.0389	209.173	279.6271	324.9367	437.2231	460.129	510.5391	543.5657	637.4041	713.7566	725.8885	799.9528	822.1994	834.0762	851.0134	889.6932	918.7256	945.8569	986.1321	1009.0767	1037.9525	1053.7104	1063.304	1080.9388	1099.917	1118.5381	1145.5359	1149.4725	1186.3401	1197.9288	1229.9329	1259.8056	1333.5835	1388.6136	1408.6552	1414.137	1421.1392	1447.6433	1477.4126	1481.878	1491.7994	1711.5541	3015.6019	3062.8252	3110.0403	3123.3412	3130.072	3136.4091	3137.6459	3152.6481	3166.1211	3236.5699	3490.3949
CC1=CC2NC2C2CC12	CC1=C[C@H]2N[C@H]2[C@H]2C[C@@H]12	
InChI=1S/C8H11N/c1-4-2-7-8(9-7)6-3-5(4)6/h2,5-9H,3H2,1H3	InChI=1S/C8H11N/c1-4-2-7-8(9-7)6-3-5(4)6/h2,5-9H,3H2,1H3/t5-,6-,7+,8-/m0/s1
