18
gdb 64976	3.50634	1.01311	0.85495	2.1493	75.47	-0.2757	-0.0262	0.2495	1350.8662	0.145629	-439.102779	-439.093487	-439.092543	-439.138157	33.559	
C	-0.1296581915	 1.4360045056	-0.232636043	-0.469668
C	-0.0478622172	-0.069190678	-0.062222376	 0.255419
C	 1.3333895543	-0.724098906	-0.0702285608	-0.276586
C	 0.5674339913	-0.6283405062	 1.2092406109	-0.284846
C	-1.1328047149	-0.8887412756	-0.6690715665	 0.350697
N	-1.324378424	-2.1090756718	-0.39970037	-0.507274
O	-1.8636747598	-0.1568588664	-1.6089514132	-0.200967
C	-3.2154745598	-0.3242975076	-1.6723827239	 0.150928
O	-3.8705558527	 0.155805399	-2.5424821334	-0.25125
H	 0.7265434775	 1.9102227615	 0.2549689216	 0.116387
H	-0.1241772983	 1.7251761353	-1.2866363516	 0.138038
H	-1.0387311217	 1.8447977268	 0.2208804979	 0.122174
H	 1.4074763919	-1.6972937817	-0.5404453749	 0.13538
H	 2.1802996163	-0.0650654168	-0.2276104947	 0.119697
H	 0.8826028728	 0.0988055604	 1.9495384578	 0.116187
H	 0.1287530273	-1.5371006649	 1.6014354143	 0.146156
H	-2.0451431632	-2.5420207298	-0.9734657704	 0.233007
H	-3.6063679184	-0.9153612136	-0.827019724	 0.106522
20.2775	82.1638	142.2921	215.3483	223.9854	285.2075	307.7439	325.1535	351.3093	408.7103	523.5791	621.3426	710.0559	772.6095	797.491	844.3107	867.3018	912.2543	959.2527	965.0191	1028.9871	1052.4518	1062.8478	1079.6611	1090.8069	1120.4583	1128.4188	1202.5851	1225.3768	1316.8809	1353.7816	1416.1151	1425.8335	1456.9317	1489.0119	1491.3404	1503.3197	1730.7017	1873.681	3001.8531	3040.5863	3104.8796	3121.241	3139.0732	3143.3868	3230.1526	3244.6934	3513.2447
CC1(CC1)C(=N)OC=O	CC1(CC1)[C]([NH])OC=O	
InChI=1S/C6H9NO2/c1-6(2-3-6)5(7)9-4-8/h4,7H,2-3H2,1H3	InChI=1S/C6H9NO2/c1-6(2-3-6)5(7)9-4-8/h4,7H,2-3H2,1H3
