14
gdb 27961	3.02064	1.37045	0.9432	3.5435	76.19	-0.2394	-0.0789	0.1605	1150.5864	0.102417	-432.92693	-432.919378	-432.918434	-432.959136	28.1	
N	-0.0162743435	 1.373614001	 0.146985178	-0.569022
C	 0.0068800971	 0.0067344825	 0.0541674607	 0.369869
N	-1.1574742777	-0.6341779375	 0.0424805255	-0.352872
C	-1.1051265131	-1.974186903	 0.0073834645	 0.205128
C	-2.3865042399	-2.7380504079	-0.0057175871	 0.102793
O	-3.4859554466	-2.2471478923	 0.0083813638	-0.248482
C	 0.0986872118	-2.6676994641	-0.0248246783	-0.069981
N	 1.2786791981	-2.0256935686	-0.0249569722	-0.230839
C	 1.234132114	-0.7084863355	 0.0159962382	-0.04642
H	 0.7919250479	 1.8893445292	-0.1594630391	 0.261308
H	-0.9094813918	 1.8032471978	-0.0393887141	 0.268941
H	-2.2419348816	-3.8415332104	-0.0314885121	 0.076753
H	 0.1249448126	-3.7528798919	-0.0552054646	 0.119813
H	 2.1826217126	-0.1742085994	 0.0200266867	 0.113011
98.3709	184.616	200.8997	228.2376	371.881	401.6298	449.8157	458.3306	496.5777	577.143	617.3462	684.0564	765.4852	775.1061	889.0505	943.1589	997.6933	1018.4649	1030.4818	1118.5108	1186.4804	1245.3338	1293.0394	1368.5212	1434.3343	1468.137	1496.0493	1582.1822	1613.0194	1645.902	1818.4959	2881.0978	3141.7774	3173.9479	3590.1371	3710.4549
NC1=NC(C=O)=CN=C1	Nc1nc(C=O)cnc1	
InChI=1S/C5H5N3O/c6-5-2-7-1-4(3-9)8-5/h1-3H,(H2,6,8)	InChI=1S/C5H5N3O/c6-5-2-7-1-4(3-9)8-5/h1-3H,(H2,6,8)
