23
gdb 94712	3.16232	1.23629	1.06164	1.3195	85.95	-0.2341	0.0881	0.3223	1261.6953	0.206081	-388.297025	-388.288025	-388.287081	-388.330076	35.791	
C	 0.0128345664	 1.5248211358	 0.1005949933	-0.39904
C	 0.0198415133	 0.0083475262	-0.0191646847	 0.156152
C	 0.6466418493	-0.4981539049	-1.3199985748	-0.219946
C	 0.5471217574	-2.0283538956	-1.3972429679	-0.280808
C	 0.8909712396	-2.7191877131	-0.0832999758	 0.307718
C	 0.3397045338	-4.1256292897	 0.0479696203	-0.459841
C	 2.2178739883	-2.4367181752	 0.5955485072	-0.346353
C	 0.9387853964	-1.8649559819	 1.1615602386	 0.074719
O	 0.7589185519	-0.4788274481	 1.1010134223	-0.272371
H	 1.0314714588	 1.9183708091	 0.0264129377	 0.120629
H	-0.5924410873	 1.9707572262	-0.6943454444	 0.110584
H	-0.4001012616	 1.8285023398	 1.0663053648	 0.12237
H	-1.0173560259	-0.3667518055	 0.0400838133	 0.059855
H	 0.1398968305	-0.0493758281	-2.1815112591	 0.094488
H	 1.6909769005	-0.1633121041	-1.3520617738	 0.101832
H	-0.4887139197	-2.2917763898	-1.6515979422	 0.094903
H	 1.1713096078	-2.4203282509	-2.2099763247	 0.0961
H	 0.7550411534	-4.7823839323	-0.7262203936	 0.115378
H	 0.5879081942	-4.5648864891	 1.0193758441	 0.112797
H	-0.7516973025	-4.1365783055	-0.0564912306	 0.113073
H	 2.7088927185	-3.2514293506	 1.1180586815	 0.102853
H	 2.891946687	-1.7193629227	 0.1400822146	 0.111458
H	 0.54988391	-2.2875713301	 2.086432514	 0.08345
95.949	174.9791	218.9314	222.2967	244.645	277.2185	347.0658	363.6235	392.1615	466.9946	474.8298	515.4536	608.009	696.2412	770.7518	834.1723	878.8062	901.5111	918.2611	927.4569	961.8963	986.4482	1026.632	1041.6798	1054.3856	1069.6594	1100.666	1118.304	1154.7843	1168.1645	1188.7012	1209.0871	1258.6336	1271.8185	1326.1926	1346.5006	1365.2954	1376.0984	1400.667	1410.1475	1415.3933	1418.2265	1476.7937	1479.966	1485.1293	1492.0457	1494.8196	1499.9888	1507.314	2943.1356	3008.2052	3018.7597	3025.7751	3041.1065	3046.718	3073.9031	3078.0091	3096.5283	3112.7491	3114.4832	3120.4946	3127.8474	3216.6974
CC1CCC2(C)CC2O1	C[C@H]1CC[C@@]2(C)C[C@H]2O1	
InChI=1S/C8H14O/c1-6-3-4-8(2)5-7(8)9-6/h6-7H,3-5H2,1-2H3	InChI=1S/C8H14O/c1-6-3-4-8(2)5-7(8)9-6/h6-7H,3-5H2,1-2H3/t6-,7+,8-/m0/s1
