14
gdb 23255	3.12744	1.46685	1.10775	2.9054	66.56	-0.2413	-0.0742	0.1671	1039.2692	0.100378	-473.774292	-473.766837	-473.765893	-473.806522	27.958	
O	-0.0651272683	 1.3320077723	-0.1970602825	-0.346691
N	 0.0335549926	-0.0350378111	-0.0559368766	-0.198287
C	-1.091021973	-0.6280342623	 0.0742246751	 0.272971
C	-1.1480819239	-2.1382070188	 0.218074283	-0.323312
C	-2.5771388448	-2.3991441005	 0.6614749193	 0.035788
O	-2.9245932263	-1.672578297	 1.83528652	-0.241187
C	-3.3868875801	-1.1697695501	 0.5645785743	-0.080423
C	-2.4921589293	-0.0523614717	 0.0819177106	 0.360992
O	-2.8478905554	 1.0443379764	-0.2660947606	-0.305207
H	 0.8592428109	 1.6003428848	-0.2624077734	 0.317095
H	-0.9507803226	-2.6288158791	-0.7428004535	 0.131256
H	-0.4209313287	-2.5158915963	 0.9418449701	 0.143095
H	-3.0232187879	-3.3847847911	 0.564906644	 0.112853
H	-4.4601821131	-1.1333020854	 0.4123701101	 0.121057
67.7343	193.4291	218.7766	284.9973	344.262	372.8253	432.4946	489.3772	534.166	625.7177	693.3788	720.3373	803.2578	836.6627	860.8568	926.3155	991.6878	1023.3978	1040.8093	1092.8764	1130.7894	1187.5761	1217.4312	1243.0213	1299.9113	1314.9994	1409.119	1423.5542	1465.6556	1702.0154	1830.8809	3041.6481	3098.5693	3160.8709	3185.4209	3795.8924
ON=C1CC2OC2C1=O	ON=C1C[C@H]2O[C@H]2C1=O	
InChI=1S/C5H5NO3/c7-4-2(6-8)1-3-5(4)9-3/h3,5,8H,1H2	InChI=1S/C5H5NO3/c7-4-2(6-8)1-3-5(4)9-3/h3,5,8H,1H2/t3-,5-/m1/s1
