20
gdb 110563	3.5811	1.13638	1.01477	1.5938	79.85	-0.2407	0.0719	0.3126	1257.8143	0.170405	-403.054914	-403.046483	-403.045539	-403.08789	32.779	
C	-0.1813044569	 1.5593725623	 0.0418234592	-0.378327
C	 0.1741562374	 0.0743859509	-0.0930503996	-0.215398
C	 0.8288016164	-0.488832695	 1.1615433056	 0.001408
C	-0.0430060288	-0.8524614438	 2.3779616451	-0.087016
N	-0.5557555013	-2.14609461	 1.7005631278	-0.157538
C	-0.1887991008	-2.964626302	 2.9333491796	-0.24542
C	 0.9551092975	-1.9552046161	 2.8804417477	 0.342669
O	 2.0988590962	-1.8279239773	 3.6473139424	-0.467976
C	 0.9486431674	-2.012360656	 1.3335176076	-0.063129
H	 0.7090601917	 2.1646027144	 0.2471288898	 0.111735
H	-0.6398365715	 1.9424986919	-0.8748917778	 0.11298
H	-0.8895646575	 1.7253941231	 0.8608725446	 0.115483
H	-0.7242193266	-0.5086206456	-0.3206451541	 0.119253
H	 0.8598023661	-0.0607489708	-0.9399462123	 0.092776
H	 1.7424041669	 0.0550575914	 1.4257361697	 0.078196
H	-0.7253800338	-0.2411073589	 2.9730409525	 0.075706
H	-0.9231984139	-2.8837379955	 3.7422195288	 0.095379
H	 0.0344783869	-4.0131269636	 2.7112483949	 0.104268
H	 1.842075215	-1.6340911531	 4.555762954	 0.283581
H	 1.4234515297	-2.7611196264	 0.6962069944	 0.081371
84.6863	136.8197	174.5961	248.5614	263.2366	318.2326	353.6027	376.0998	486.9449	537.0687	642.472	731.5631	751.0222	823.4891	858.783	880.7316	898.5821	915.813	922.133	960.0834	1030.4081	1044.2783	1056.3711	1078.7509	1089.0158	1108.4874	1109.6683	1161.7985	1183.5122	1197.2359	1212.4265	1233.3659	1277.8214	1285.5708	1302.1056	1347.1036	1376.8824	1408.6909	1416.9909	1488.9311	1500.3389	1506.4109	1518.479	3022.6667	3029.2341	3035.0815	3049.5572	3074.8824	3087.0982	3097.6416	3098.6539	3099.4881	3103.3699	3802.4
CCC1C2N3CC2(O)C13	CC[C@H]1[C@H]2N3C[C@@]2(O)[C@H]13	
InChI=1S/C7H11NO/c1-2-4-5-7(9)3-8(5)6(4)7/h4-6,9H,2-3H2,1H3	InChI=1S/C7H11NO/c1-2-4-5-7(9)3-8(5)6(4)7/h4-6,9H,2-3H2,1H3/t4-,5+,6-,7-
