14
gdb 45851	2.43864	1.7753	1.04961	4.5994	66.75	-0.2198	-0.0192	0.2006	1047.4798	0.104578	-470.092685	-470.085251	-470.084307	-470.12501	27.841	
O	 0.0262909345	-0.0540099699	-0.1206460966	-0.372815
C	-0.0492080233	 1.1516453776	-0.0192299584	 0.440044
N	-1.228775384	 1.8247747472	-0.2338813499	-0.36829
C	-1.5691964976	 3.1345842593	 0.1197858766	-0.02811
C	-0.7454004909	 4.1815539597	 0.1137679426	-0.02811
N	 0.605736583	 4.1562724108	-0.2472826388	-0.36829
C	 1.5386647468	 3.1696868701	-0.0308301777	 0.440044
O	 2.727656566	 3.3791794149	-0.1403813428	-0.372815
N	 1.0763157504	 1.9019619021	 0.3579541013	-0.405531
H	-1.9817276917	 1.1848139899	-0.4340522367	 0.266583
H	-2.5972438914	 3.2694465919	 0.4313379297	 0.127909
H	-1.1165919241	 5.1512204257	 0.4205216279	 0.127909
H	 1.0494683123	 5.0371881179	-0.4561965385	 0.266583
H	 1.8656148054	 1.2816481497	 0.4862011313	 0.27489
104.7389	108.7662	154.4461	337.8513	394.7902	448.4685	510.881	552.3664	572.1147	576.4387	671.6867	701.1229	744.126	749.9761	796.4308	879.2759	904.4878	904.4946	995.2694	1054.8126	1181.9656	1271.7643	1277.0474	1428.1546	1449.2864	1450.5857	1488.1368	1505.3111	1771.6495	1811.1268	1812.1598	3200.9133	3218.9663	3600.1405	3637.1123	3637.66
O=C1NC=CNC(=O)N1	O=c1[nH]cc[nH]c(=O)[nH]1	
InChI=1S/C4H5N3O2/c8-3-5-1-2-6-4(9)7-3/h1-2H,(H3,5,6,7,8,9)	InChI=1S/C4H5N3O2/c8-3-5-1-2-6-4(9)7-3/h1-2H,(H3,5,6,7,8,9)
