18
gdb 69272	2.66921	1.61744	1.21072	5.4398	72.27	-0.2558	0.0113	0.2671	1058.8041	0.148298	-439.104128	-439.096113	-439.095169	-439.136741	30.677	
C	-0.0314312812	 1.506052737	 0.0482762464	-0.452932
C	-0.0255739698	-0.0034682733	-0.0746156008	 0.320359
C	 0.7456339082	-0.628263885	-1.1874729256	-0.3015
N	 1.2864853377	-0.6170726833	 0.1859335863	-0.185112
C	 1.4136987019	-1.8472302395	 0.8790695384	 0.433693
O	 2.47484554	-2.3716137018	 1.0512877414	-0.327554
O	 0.2888940336	-2.3840996588	 1.4306725715	-0.231862
C	-0.9589592929	-2.1788135446	 0.7543871726	-0.102349
C	-1.2354567015	-0.7018047766	 0.5144953482	-0.2819
H	 0.8939891154	 1.931045955	-0.3466923653	 0.135176
H	-0.8764371388	 1.9332711753	-0.5029359982	 0.120705
H	-0.123805078	 1.807222338	 1.0970819589	 0.128411
H	 0.4139488137	-1.5801755409	-1.593804357	 0.12821
H	 1.2828746271	-0.0030871531	-1.8951010576	 0.130457
H	-0.9537460174	-2.7473105266	-0.1843078476	 0.116727
H	-1.7164438189	-2.6236377195	 1.4024566029	 0.131056
H	-1.4735701903	-0.2251333702	 1.4724485109	 0.12136
H	-2.1135861386	-0.5843800222	-0.1305944053	 0.117052
71.9092	151.5154	209.9504	253.5176	302.8506	361.5865	380.4277	441.1556	497.6542	542.4899	641.4834	704.4725	726.8191	796.656	880.279	901.9654	931.2461	953.7051	994.1805	1035.8243	1055.1365	1096.032	1101.3685	1130.6406	1140.7465	1190.061	1249.4407	1263.7781	1300.3331	1370.1752	1399.065	1415.028	1428.0392	1478.452	1488.0168	1495.3525	1509.3612	1525.9586	1859.3536	3023.0125	3034.0407	3039.1966	3078.4723	3099.7464	3110.0348	3112.0566	3127.849	3195.0064
CC12CN1C(=O)OCC2	C[C@@]12CN1C(=O)OCC2	
InChI=1S/C6H9NO2/c1-6-2-3-9-5(8)7(6)4-6/h2-4H2,1H3	InChI=1S/C6H9NO2/c1-6-2-3-9-5(8)7(6)4-6/h2-4H2,1H3/t6-,7?/m1/s1
