19
gdb 39356	2.76339	1.80474	1.28159	1.5553	81.34	-0.2137	0.0129	0.2266	1016.8719	0.16117	-385.860365	-385.853163	-385.852219	-385.891551	29.686	
C	-0.005492658	 1.5500282707	 0.3122199696	-0.364024
C	 1.258053443	 0.767625337	-0.031100962	-0.114883
C	 2.2798686111	 0.3920434849	 1.0378019547	-0.213437
C	 1.6698708575	-0.1105871202	 2.380609241	-0.266965
C	 0.6004301409	-1.1674154451	 2.1701116674	-0.246374
C	-0.1982105777	-0.9897407902	 1.127998324	 0.213529
C	-1.1724112249	-1.656826459	 0.1842502609	-0.184591
O	-0.8780311245	-0.6387464898	-0.8256080688	-0.334157
C	-0.0621354078	 0.0689701288	 0.1147764476	 0.421093
H	-0.1570656895	 1.9654840876	 1.3038813483	 0.115232
H	-0.4142068588	 2.149325703	-0.4952484752	 0.122942
H	 1.6512527904	 0.9289328721	-1.0302348867	 0.097708
H	 2.9170640678	-0.4032479428	 0.6308175777	 0.105275
H	 2.9366865986	 1.2438191471	 1.2497839271	 0.100911
H	 2.4783363793	-0.5096820263	 3.0013346468	 0.10422
H	 1.2640885823	 0.7433221438	 2.9389868578	 0.114221
H	 0.5531274124	-2.0330222383	 2.8228252846	 0.091342
H	-0.9123727503	-2.6644495973	-0.1586841326	 0.121393
H	-2.2305002118	-1.6300361763	 0.4731743979	 0.116565
171.4137	204.1029	252.1212	306.6657	366.6698	408.0051	473.0932	519.6637	595.3978	666.6758	741.8348	769.0423	809.1122	854.6999	890.568	897.516	929.8706	945.1861	963.6697	1006.9756	1028.71	1036.902	1062.2655	1071.7658	1108.9791	1113.4251	1134.0243	1190.8246	1216.1586	1247.1571	1273.1296	1311.33	1336.8762	1364.5199	1381.2103	1415.02	1475.0751	1484.0055	1494.9434	1510.2622	1784.2497	3016.446	3019.0442	3023.4673	3061.6946	3067.8642	3073.9744	3122.6991	3157.8387	3178.7126	3210.767
C1C2CCC=C3COC123	C1[C@H]2CC[CH][C]3CO[C@]123	
InChI=1S/C8H10O/c1-2-6-4-8(6)7(3-1)5-9-8/h3,6H,1-2,4-5H2	InChI=1S/C8H10O/c1-2-6-4-8(6)7(3-1)5-9-8/h3,6H,1-2,4-5H2/t6-,8-/m1/s1
