17
gdb 37023	3.35367	1.79813	1.48515	1.8607	76.22	-0.2361	0.0019	0.2381	914.8055	0.137624	-384.681863	-384.675334	-384.67439	-384.712274	27.55	
C	-0.0486231699	 1.6060875137	-0.0554808275	-0.370096
C	 1.4122253692	 2.0200829535	-0.1923070466	-0.065925
C	 2.260512025	 0.9998941659	-0.0157803207	-0.172436
C	 1.4939713906	-0.2593886095	 0.2105425097	 0.3316
C	 1.6970788528	-1.3798589116	 1.2181384946	-0.370096
C	 0.2803095429	-1.6066568079	 1.7334240466	-0.065925
C	-0.6104265956	-0.7667448949	 1.1924300945	-0.172436
C	 0.0661693889	 0.110556852	 0.1938518605	 0.3316
O	 0.6509043598	-0.6229677375	-0.9068161403	-0.332608
H	-0.5405891322	 2.1192373409	 0.7802317739	 0.11629
H	-0.624408769	 1.8382422252	-0.9589922215	 0.125513
H	 1.7008176765	 3.0335389295	-0.4505142351	 0.100268
H	 3.3409945068	 1.0572619693	-0.0655820957	 0.101091
H	 2.1144378151	-2.2848286005	 0.7614119901	 0.125513
H	 2.380146031	-1.081430031	 2.0232025578	 0.11629
H	 0.0429419785	-2.4025677334	 2.4314440394	 0.100268
H	-1.6715777203	-0.7420165937	 1.4082078701	 0.101091
205.4794	239.3831	312.2272	391.8313	461.6984	485.6953	578.0851	617.8112	633.0479	721.155	747.1925	761.3866	827.3528	834.0098	892.137	925.1021	928.7202	943.1356	949.362	967.4512	1002.2899	1006.0827	1118.085	1143.6935	1151.9374	1165.4288	1202.4985	1229.9115	1302.6928	1305.321	1366.1083	1386.2728	1394.2391	1459.9101	1462.334	1645.1051	1649.373	3031.234	3031.9506	3067.5541	3067.8464	3184.7308	3184.9236	3213.7757	3214.3415
C1C=CC23CC=CC12O3	C1C=C[C@@]23CC=C[C@@]12O3	
InChI=1S/C8H8O/c1-3-7-5-2-6-8(7,4-1)9-7/h1-3,6H,4-5H2	InChI=1S/C8H8O/c1-3-7-5-2-6-8(7,4-1)9-7/h1-3,6H,4-5H2/t7-,8+/m1/s1
