14
gdb 44707	3.35183	1.41937	1.18742	5.7134	62.03	-0.2577	-0.0528	0.2049	1004.9723	0.101603	-473.871531	-473.864365	-473.86342	-473.903804	26.747	
O	-0.0448065474	-0.0299295621	-0.3728295135	-0.262617
C	-0.0625198057	 1.1348096883	-0.1248564611	 0.374347
C	-1.175815362	 2.1708238118	 0.1418533627	-0.3638
C	-0.0793933661	 3.1489194255	 0.6579405793	-0.039169
N	 0.204274579	 3.0710598256	 2.0670521233	-0.362972
C	 1.3977348916	 2.4553858537	 2.3749111732	 0.481194
O	 1.9213485234	 2.344443558	 3.4437026826	-0.375243
O	 1.9374159129	 1.9507547135	 1.2081442614	-0.236192
C	 1.0505256562	 2.2013672985	 0.1366124009	 0.000858
H	-1.652054579	 2.5038473402	-0.7868125745	 0.142049
H	-1.948729178	 1.871971123	 0.8530594225	 0.144851
H	-0.12052758	 4.1719214774	 0.277174584	 0.100318
H	-0.2588214739	 3.6154545502	 2.7742438776	 0.269213
H	 1.6091076291	 2.5052277263	-0.7511921785	 0.127164
66.5719	104.1895	226.6344	360.674	405.159	419.7344	508.3258	544.8605	618.5227	694.417	757.0281	764.8971	783.2478	875.9061	906.034	926.4097	974.48	1047.7153	1068.1376	1123.388	1135.0639	1155.6767	1208.4102	1237.886	1270.2888	1330.8453	1381.4035	1412.7709	1432.445	1902.4994	1914.6944	3057.1436	3081.0029	3099.0925	3125.9305	3676.8723
O=C1CC2NC(=O)OC12	O=C1C[C@H]2NC(=O)O[C@@H]12	
InChI=1S/C5H5NO3/c7-3-1-2-4(3)9-5(8)6-2/h2,4H,1H2,(H,6,8)	InChI=1S/C5H5NO3/c7-3-1-2-4(3)9-5(8)6-2/h2,4H,1H2,(H,6,8)/t2-,4-/m1/s1
