17
gdb 42215	3.57798	1.17629	1.01648	2.7291	80.45	-0.2575	-0.0591	0.1985	1186.8635	0.135429	-384.610949	-384.603025	-384.602081	-384.644034	30.124	
O	 0.4746714015	 0.4123114977	-0.9492091141	-0.295197
C	 0.0520768685	 1.0545470433	-0.0097630359	 0.213316
C	 0.8175427761	 1.18082862	 1.2239253132	 0.257173
C	 1.4346546447	 1.2981416105	 2.2511731574	-0.423155
C	-1.2678094274	 1.7844135879	-0.0016095555	-0.07157
C	-2.2545194489	 1.6510841996	-1.1966987983	-0.054226
C	-2.5780815713	 0.2022189564	-0.7162197694	-0.22204
C	-2.5515738776	 1.0731337452	 0.5723107488	-0.049546
C	-3.3678799243	 2.1348225851	-0.2187222984	-0.226794
H	 1.9935921247	 1.3883409862	 3.1509086159	 0.214671
H	-1.11978092	 2.7957406103	 0.3944511594	 0.088422
H	-2.076204322	 1.9845062931	-2.2184385711	 0.083916
H	-3.5585571218	-0.1869877439	-1.0022888368	 0.091685
H	-1.7976899112	-0.5465311524	-0.8427414501	 0.122802
H	-2.6996515504	 0.7517899503	 1.6037538992	 0.081796
H	-3.308271423	 3.1688728443	 0.1320974754	 0.092485
H	-4.3918678376	 1.8557243265	-0.4789031796	 0.096262
49.3553	114.0486	184.4155	225.9381	269.6377	418.3197	448.7833	569.9677	624.1414	644.6924	685.514	707.0643	777.8555	815.0227	883.8402	894.1278	902.5926	909.2532	933.8085	1012.2408	1025.6345	1048.1254	1080.226	1103.8406	1114.0109	1130.6208	1164.3933	1192.0335	1209.9659	1237.0538	1243.7483	1264.0987	1389.9309	1502.6108	1541.0351	1755.9941	2207.9737	3044.742	3051.7778	3069.1106	3109.4821	3118.7364	3122.3571	3153.9945	3494.4909
O=C(C#C)C1C2CC1C2	O=C(C#C)[C@H]1[C@H]2C[C@@H]1C2	
InChI=1S/C8H8O/c1-2-7(9)8-5-3-6(8)4-5/h1,5-6,8H,3-4H2	InChI=1S/C8H8O/c1-2-7(9)8-5-3-6(8)4-5/h1,5-6,8H,3-4H2/t5-,6+,8-
