21
gdb 35844	3.14265	1.13285	0.88682	0.5926	90.01	-0.2399	0.0168	0.2567	1335.4885	0.183521	-349.936753	-349.927943	-349.926998	-349.970156	34.422	
C	-0.0378440842	-1.2267477889	-0.1086662412	-0.447072
C	-0.029281045	-0.0253208548	-0.0563325656	 0.309022
C	-0.0031315287	 1.4342570578	 0.0363463094	-0.170395
C	-0.830001902	 1.895848208	 1.2610331782	-0.178738
C	-1.0933371146	 3.4108311053	 1.3348735579	-0.265186
C	 0.0982424628	 4.2615614597	 1.7057593561	-0.04767
C	 1.2692089151	 4.2809413959	 1.0700030797	-0.047667
C	 1.6286033248	 3.4558738025	-0.1429518155	-0.265188
C	 1.4620459911	 1.9337787339	 0.016602654	-0.178737
H	-0.0519698516	-2.28675139	-0.1669254623	 0.189882
H	-0.49779263	 1.8345678398	-0.8625388033	 0.097666
H	-1.7935137174	 1.3764803881	 1.2227044852	 0.104884
H	-0.3292450306	 1.5608574328	 2.1765710947	 0.106902
H	-1.5021590861	 3.7439023249	 0.3684695885	 0.106613
H	-1.8908454294	 3.5808685577	 2.0652627406	 0.099191
H	-0.0298458031	 4.916885849	 2.5643596395	 0.084451
H	 2.0420960644	 4.9511791852	 1.4394322632	 0.084451
H	 1.0323390616	 3.7858486349	-1.0075867195	 0.106613
H	 2.6707927746	 3.6563421076	-0.4113815548	 0.099191
H	 1.9656739071	 1.5988316596	 0.9305803296	 0.106902
H	 1.9676572812	 1.4387137608	-0.8193604843	 0.104885
67.1549	144.0655	166.6773	200.2085	301.6757	314.2198	321.4911	454.8705	474.8931	519.674	523.4748	624.0584	634.6441	664.3385	723.1548	760.9478	861.1111	862.303	901.4579	915.461	993.3322	1003.4118	1010.3015	1059.6861	1069.5845	1077.1857	1120.781	1159.8629	1205.0267	1264.1955	1272.1908	1295.0896	1313.6373	1325.2825	1358.2158	1365.922	1366.205	1401.2708	1423.4472	1478.5346	1480.6803	1484.7716	1491.6193	1727.0777	2232.2398	2981.5485	2991.82	2993.4314	3035.8392	3038.0647	3066.9422	3068.5622	3078.8481	3082.3912	3136.9249	3161.5653	3505.222
C#CC1CCC=CCC1	C#C[C@H]1CCC=CCC1	
InChI=1S/C9H12/c1-2-9-7-5-3-4-6-8-9/h1,3-4,9H,5-8H2	InChI=1S/C9H12/c1-2-9-7-5-3-4-6-8-9/h1,3-4,9H,5-8H2
