20
gdb 115401	3.7093	0.9071	0.87142	2.2855	78.4	-0.2394	0.0359	0.2752	1426.1584	0.170721	-440.299017	-440.289343	-440.288398	-440.334835	34.244	
C	-0.3980621435	 1.2128403556	-0.2984157195	-0.332709
N	 0.0673309406	-0.1529212891	-0.1174940739	-0.330726
C	 0.6911525449	-0.7294903726	-1.0464703662	 0.440032
C	 1.2527254094	-2.1367915554	-0.9845274766	-0.347042
C	 1.4974580409	-2.4910533041	-2.4593935653	-0.014209
C	 0.2858591909	-3.173784223	-3.0911325856	-0.08339
O	 0.5788606997	-3.396308246	-4.4620002569	-0.422638
C	 1.7446412431	-1.0996607323	-3.0651930415	-0.089914
O	 0.9650139071	-0.1860330315	-2.2770734917	-0.251316
H	 0.0031243054	 1.8360070656	 0.5092490122	 0.121125
H	-0.1247019497	 1.6635827811	-1.2589510147	 0.121188
H	-1.4897913438	 1.2358699293	-0.198754378	 0.120239
H	 2.1912882226	-2.1270113902	-0.4198054015	 0.128247
H	 0.5667511726	-2.8085077429	-0.4649205781	 0.129415
H	 2.3679088177	-3.1366057133	-2.6012074159	 0.089154
H	 0.0876168078	-4.1208442546	-2.5655332263	 0.092327
H	-0.6038401841	-2.5355154841	-2.9694984957	 0.101854
H	-0.2124793825	-3.7330047159	-4.8916989831	 0.29109
H	 2.8016089809	-0.8122821076	-3.0041476627	 0.105324
H	 1.4150115502	-1.0264372191	-4.1029244289	 0.131949
33.5407	59.0125	116.2666	160.554	210.176	242.4634	257.6274	265.2073	344.0602	430.6404	533.8693	581.6939	687.336	731.3806	820.9317	850.1486	904.3038	946.4934	1020.3847	1026.8611	1031.9225	1080.4249	1083.7417	1130.8944	1137.8007	1151.4011	1175.5678	1205.7089	1219.4051	1244.6603	1277.8645	1284.7273	1324.7028	1374.4921	1389.8793	1438.1989	1458.2198	1473.4443	1495.5944	1497.559	1521.0094	1526.3421	1803.1784	2972.0568	3003.416	3015.3968	3028.6887	3053.2583	3071.7669	3084.4632	3086.9577	3114.7722	3121.3656	3835.8646
CN=C1CC(CO)CO1	CN=C1C[C@@H](CO)CO1	
InChI=1S/C6H11NO2/c1-7-6-2-5(3-8)4-9-6/h5,8H,2-4H2,1H3	InChI=1S/C6H11NO2/c1-7-6-2-5(3-8)4-9-6/h5,8H,2-4H2,1H3/t5-/m0/s1
