23
gdb 119278	2.03753	1.19572	0.88716	0.6028	92.03	-0.2524	0.0519	0.3043	1450.7305	0.20419	-351.120968	-351.110778	-351.109834	-351.156128	38.386	
C	-0.1289411694	 1.556741365	-0.2689424304	-0.379138
C	-0.0976310526	 0.0342042593	-0.1065729859	-0.177132
C	 0.7544975224	-0.6547447393	-1.1771587101	-0.228183
C	 0.8134150625	-2.1936841135	-1.0718950007	 0.139245
C	-0.5215115525	-2.8911256665	-1.5285075923	-0.249309
C	 0.0992892971	-3.1302621802	-2.9286090442	-0.216488
C	 1.4995892656	-2.830701468	-2.3348912546	-0.256702
C	 1.3485734433	-2.619722404	 0.2108129969	 0.274352
C	 1.7997917098	-2.9901045694	 1.2634992078	-0.459422
H	 0.8785812614	 1.9825751772	-0.2043210501	 0.11434
H	-0.546863656	 1.8463145654	-1.2398996188	 0.110859
H	-0.7388756972	 2.0271353977	 0.5085787889	 0.111367
H	 0.2937135994	-0.2260568811	 0.8832802092	 0.11314
H	-1.1222711131	-0.3571716399	-0.142387778	 0.095169
H	 0.3729013274	-0.3944885683	-2.1735614507	 0.090445
H	 1.7811214372	-0.2690304888	-1.1292128082	 0.10019
H	-0.6912040156	-3.8212270502	-0.9826556583	 0.111609
H	-1.4267843142	-2.2819949326	-1.4719522342	 0.101682
H	-0.046416711	-4.119097691	-3.3678059858	 0.100992
H	-0.2156154126	-2.38295659	-3.6612356181	 0.104812
H	 2.1616289038	-2.1677175646	-2.8982282104	 0.099763
H	 2.0471871334	-3.7392127148	-2.0764696949	 0.110461
H	 2.1950547109	-3.3160577124	 2.1934242029	 0.187948
76.0607	99.9636	117.6749	148.7596	175.8938	210.8797	250.0301	309.1799	358.8002	383.9556	526.253	533.1689	615.9173	618.1362	630.563	711.677	748.3409	794.0767	853.9287	870.7859	888.2337	943.9702	949.3834	968.5015	989.9716	1047.7406	1054.497	1062.492	1138.2492	1174.2468	1210.5955	1212.838	1255.7152	1265.575	1267.7364	1276.7383	1310.4176	1317.7492	1344.4679	1394.2576	1411.6381	1472.098	1481.4274	1484.3702	1493.4865	1500.157	1505.637	1510.5637	2224.1617	3011.5857	3026.5861	3028.9915	3047.3365	3060.1566	3064.8511	3069.2036	3071.9453	3096.8027	3101.3138	3105.1259	3120.9458	3131.3252	3502.0668
CCCC1(CCC1)C#C	CCCC1(CCC1)C#C	
InChI=1S/C9H14/c1-3-6-9(4-2)7-5-8-9/h2H,3,5-8H2,1H3	InChI=1S/C9H14/c1-3-6-9(4-2)7-5-8-9/h2H,3,5-8H2,1H3
