17
gdb 86522	3.95853	0.92847	0.84126	3.72	76.04	-0.2644	-0.0602	0.2042	1359.8545	0.133655	-421.78798	-421.778869	-421.777925	-421.822739	33.261	
O	 0.4464523672	 0.5592959613	-0.8711641281	-0.429236
C	-0.2137901284	-0.2845780926	 0.0321287279	 0.180502
C	 0.2415703507	-0.354680527	 1.5150726396	-0.285346
C	-1.2481194122	-0.4666132042	 1.9300126377	-0.123457
C	-1.64837154	 0.0729606233	 0.5092256706	-0.274619
C	-1.7255561306	-1.8876569272	 2.1413088641	 0.230427
O	-1.0434142373	-2.8680351841	 1.9293614049	-0.294993
C	-3.1040145585	-2.0091937454	 2.5926777395	 0.259259
C	-4.244888006	-2.0924409642	 2.9680165822	-0.401976
H	 0.4740067673	 1.4443400157	-0.4918206178	 0.276224
H	-0.1929034574	-1.2792518829	-0.4199174659	 0.113675
H	 0.897194268	-1.1764348896	 1.8039406084	 0.128203
H	 0.6701065159	 0.59704915	 1.8457160775	 0.090366
H	-1.5897864462	 0.1499835082	 2.7645467702	 0.096847
H	-1.8011747909	 1.1563125812	 0.5400174485	 0.10179
H	-2.4980015593	-0.3889915584	 0.0012075128	 0.117099
H	-5.2508871723	-2.185946524	 3.2987725478	 0.215233
34.5214	81.8959	133.3983	195.1368	248.0098	273.0227	315.192	393.3637	439.7281	467.8814	586.6644	643.5696	651.22	704.563	722.2889	762.8475	818.1366	891.0505	934.573	973.1612	980.9496	1058.6922	1073.5571	1127.0097	1137.6349	1152.5254	1185.6161	1244.4118	1266.3452	1286.1268	1330.6994	1365.9201	1436.3448	1459.9254	1489.404	1760.94	2209.7673	3052.6575	3055.4243	3083.4475	3088.7412	3116.7591	3137.7849	3494.0619	3802.6072
OC1CC(C1)C(=O)C#C	O[C@H]1C[C@@H](C1)C(=O)C#C	
InChI=1S/C7H8O2/c1-2-7(9)5-3-6(8)4-5/h1,5-6,8H,3-4H2	InChI=1S/C7H8O2/c1-2-7(9)5-3-6(8)4-5/h1,5-6,8H,3-4H2/t5-,6-
