20
gdb 9148	5.47875	0.73023	0.68418	1.8275	81.46	-0.2477	0.041	0.2887	1730.1223	0.174442	-348.985787	-348.975356	-348.974412	-349.023389	35.993	
C	 0.3071693145	 1.2709087868	 0.5831604366	-0.363534
C	-0.4177291499	 0.2769230698	-0.3425848472	-0.316504
C	 0.3972053108	-0.1523264658	-1.4746546489	 0.103336
C	 1.0994002358	-0.4810550911	-2.3978421311	 0.020601
C	 1.9163024363	-0.9388999635	-3.5250360471	-0.046553
O	 2.6489254339	-2.1220811667	-3.1988042475	-0.418011
C	 1.0661153266	-1.1275086813	-4.7977209889	-0.168671
C	 1.9064369416	-1.5399987073	-6.0070091316	-0.385569
H	 1.217183391	 0.8256186119	 0.9939406945	 0.130522
H	 0.5914900229	 2.1738955508	 0.0362773177	 0.128877
H	-0.3421738739	 1.5608756114	 1.4146138959	 0.114309
H	-0.7259584802	-0.6041781859	 0.2350314766	 0.129168
H	-1.3459173029	 0.7299887125	-0.714177741	 0.129716
H	 2.6917026163	-0.1905370564	-3.7361831707	 0.109962
H	 2.0250956766	-2.7398114655	-2.8014597586	 0.280912
H	 0.2981598797	-1.8831394298	-4.5876229794	 0.093932
H	 0.5321749329	-0.1910804997	-4.9968366294	 0.104478
H	 2.6310124347	-0.7605238132	-6.2684155346	 0.113316
H	 2.4648451793	-2.4545025746	-5.7923225196	 0.131292
H	 1.2749374939	-1.7157930123	-6.8828490958	 0.108421
7.7613	76.6339	86.4302	138.0537	179.4255	215.2037	228.536	275.4931	295.8075	348.2161	415.4737	495.3031	520.9094	561.7215	748.7836	784.4605	792.6242	878.8464	964.4429	977.7794	1058.0759	1075.1462	1098.9563	1103.1844	1113.8816	1170.3788	1250.6794	1286.1562	1291.8269	1325.9373	1349.5187	1373.7137	1404.6881	1408.9129	1420.3255	1473.5643	1479.7271	1494.5006	1494.6192	1505.2738	1509.1514	2357.603	3017.7338	3018.8878	3029.3639	3036.625	3044.3732	3045.6822	3067.3755	3101.7287	3117.6991	3124.5814	3125.2258	3804.1561
CCC#CC(O)CC	CCC#C[C@@H](O)CC	
InChI=1S/C7H12O/c1-3-5-6-7(8)4-2/h7-8H,3-4H2,1-2H3	InChI=1S/C7H12O/c1-3-5-6-7(8)4-2/h7-8H,3-4H2,1-2H3/t7-/m0/s1
