21
gdb 80900	2.03079	1.68108	1.40669	1.4677	79.22	-0.2374	0.0641	0.3015	1088.9786	0.17929	-424.165091	-424.155347	-424.154403	-424.198636	37.456	
C	-0.0596956343	 1.490911515	-0.1052831427	-0.456464
C	-0.0379650925	-0.0374684277	-0.0514062825	 0.307806
C	-1.3936938497	-0.587829201	-0.4928535654	-0.489778
C	 1.2966359708	-0.6955527001	-0.5297424397	-0.060945
O	 1.9879859012	-0.0854648613	 0.6255671453	-0.340298
C	 0.7255746164	-0.6420552626	 1.1940232686	 0.334134
C	 0.4613829093	-0.4672284281	 2.656451281	-0.526008
C	 1.0973172495	-1.929859268	 0.4110840546	 0.084809
O	 0.1440796315	-2.9419645664	 0.2301184208	-0.426512
H	 0.8946265154	 1.9183123028	 0.2013408563	 0.134021
H	-0.2860377382	 1.8310293242	-1.1223786207	 0.107841
H	-0.8490923291	 1.8847212179	 0.545709304	 0.107607
H	-2.1809038085	-0.2052049385	 0.1677617978	 0.110194
H	-1.6251807753	-0.2256781361	-1.5016335453	 0.108652
H	-1.442032732	-1.6732659052	-0.4938519854	 0.146618
H	 1.7979061086	-0.6260395863	-1.4971988811	 0.080038
H	 0.3375730182	 0.5901609841	 2.909179439	 0.132838
H	-0.4537135988	-0.9998702716	 2.9340729108	 0.135971
H	 1.2887044449	-0.8719041101	 3.2476820606	 0.132136
H	 2.0622651253	-2.329068481	 0.7410424338	 0.086617
H	 0.5712518374	-3.6778377798	-0.2184704398	 0.290723
158.1655	167.5889	178.502	192.7803	204.5788	223.0828	244.2772	279.4968	359.5444	397.6353	427.2381	453.0969	584.9545	643.1249	652.6221	669.7284	718.6522	821.0676	867.1204	887.4129	944.8536	952.7854	977.0599	1011.9328	1071.9879	1105.1529	1137.2885	1164.0302	1178.3206	1205.288	1212.5079	1242.9585	1269.4722	1320.4645	1336.7296	1393.4842	1403.1213	1417.1379	1450.9379	1477.2889	1482.1271	1488.9321	1498.6717	1504.8813	1522.7187	3026.5118	3032.4586	3038.6147	3054.0276	3076.069	3083.0017	3099.6393	3112.7336	3113.8548	3149.657	3185.3032	3826.7403
CC1(C)C2OC1(C)C2O	CC1(C)[C@H]2O[C@]1(C)[C@H]2O	
InChI=1S/C7H12O2/c1-6(2)5-4(8)7(6,3)9-5/h4-5,8H,1-3H3	InChI=1S/C7H12O2/c1-6(2)5-4(8)7(6,3)9-5/h4-5,8H,1-3H3/t4-,5-,7+/m0/s1
