16
gdb 88926	3.56367	0.85765	0.7347	4.567	70.88	-0.2736	-0.0808	0.1928	1473.5169	0.121933	-437.88265	-437.873399	-437.872455	-437.918014	32.514	
O	-0.1489478244	 1.473366185	 0.1225720373	-0.416894
C	-0.003441347	 0.0820299481	 0.1159758949	 0.07306
C	-0.6067151335	-0.729479268	 1.2333641578	-0.31399
C	-1.2511650375	-0.7154598756	-0.1390327256	-0.018591
C	-2.5593599548	 0.0041075001	-0.3501939519	-0.328782
C	-3.7637529499	-0.813327782	 0.0545053807	 0.288998
O	-3.7420736866	-1.9406587033	 0.4773949399	-0.261706
C	-5.0610579964	-0.1134809578	-0.1167874151	 0.225979
N	-6.0661176235	 0.4422875226	-0.2513678091	-0.295996
H	 0.4272745241	 1.8313083971	 0.8058129115	 0.293862
H	 0.9189130819	-0.2776028852	-0.3388289273	 0.096039
H	-0.1080215889	-1.6330932355	 1.5643772469	 0.122924
H	-1.1090080982	-0.1731069873	 2.0183333928	 0.117933
H	-1.1324438145	-1.6172478287	-0.730470669	 0.107323
H	-2.5820082319	 0.9548270362	 0.1959387575	 0.159752
H	-2.7015618689	 0.2890251443	-1.4034687515	 0.150091
40.9791	61.3462	100.4188	188.0811	221.1774	273.3511	304.9689	315.9748	427.8063	485.2571	537.1921	574.578	613.968	773.5436	826.6799	832.7392	891.3897	912.98	995.1421	1036.0564	1061.3653	1073.381	1125.2114	1145.7227	1173.9236	1233.1541	1239.3991	1298.2088	1334.8064	1403.1615	1423.5147	1443.7785	1491.1453	1801.2843	2336.2221	3015.4408	3068.1454	3105.8251	3134.5761	3166.3476	3224.7375	3809.5542
OC1CC1CC(=O)C#N	O[C@H]1C[C@H]1CC(=O)C#N	
InChI=1S/C6H7NO2/c7-3-5(8)1-4-2-6(4)9/h4,6,9H,1-2H2	InChI=1S/C6H7NO2/c7-3-5(8)1-4-2-6(4)9/h4,6,9H,1-2H2/t4-,6+/m1/s1
