23
gdb 64359	1.82985	1.80463	1.44491	2.2535	79.92	-0.252	0.0587	0.3106	1100.0354	0.204521	-425.45222	-425.442245	-425.441301	-425.486121	39.225	
C	 0.4717895684	 1.4440539501	-0.3650749388	-0.436441
C	 0.0063332083	 0.0435297469	 0.0439048065	 0.329903
O	-1.3773903203	 0.0952264304	 0.4169806919	-0.499658
C	 0.3023636056	-1.0034391189	-1.049091496	-0.257532
C	 1.773582889	-1.4228271886	-0.8141433347	-0.214449
C	 2.0887676343	-1.0521369635	 0.6641790136	-0.234197
C	 0.7686156477	-0.5468054916	 1.2702801503	 0.407313
C	 0.9314005736	 0.4093652436	 2.4514996	-0.459098
O	 0.0561233615	-1.7101594155	 1.6980877124	-0.492207
H	 1.543765094	 1.4706586137	-0.5841368295	 0.120156
H	-0.0559550471	 1.7613313393	-1.271926807	 0.10417
H	 0.2581983667	 2.1720636111	 0.4206181258	 0.127672
H	-1.906135347	 0.1819406288	-0.3819655786	 0.282202
H	-0.3630889245	-1.8552863358	-0.8895681424	 0.108141
H	 0.1252855452	-0.6153813815	-2.0577135327	 0.080365
H	 1.913524143	-2.4887175118	-1.0068748635	 0.106591
H	 2.4449028816	-0.8914684908	-1.4952724761	 0.096904
H	 2.4442512	-1.905125368	 1.2464104325	 0.112124
H	 2.8577042965	-0.2760934876	 0.7204995516	 0.092466
H	 1.5569223867	 1.2728264297	 2.2068624382	 0.106365
H	-0.0469261812	 0.7751234291	 2.7802351222	 0.119244
H	 1.3920867925	-0.1238170803	 3.2878261448	 0.119331
H	-0.8789311545	-1.4672222588	 1.6628737096	 0.280635
73.823	146.0197	186.3616	228.546	238.4107	272.2871	292.5065	343.8212	354.4087	372.2693	404.2125	464.7466	490.1277	537.5328	577.2072	629.3031	694.9021	765.2797	835.7293	879.1097	902.8448	941.3403	954.0563	962.9359	1003.0887	1026.2355	1066.688	1090.7833	1140.5739	1167.3367	1170.673	1200.8308	1236.9515	1260.1975	1272.0424	1313.6232	1322.4756	1336.3522	1375.9321	1399.4391	1406.3088	1406.9106	1477.9211	1479.2654	1488.9513	1490.6282	1498.1735	1506.1022	1511.8331	3031.8356	3037.6562	3046.0302	3054.019	3065.987	3089.4245	3095.6352	3104.589	3108.8601	3114.5103	3119.4584	3127.2871	3756.0702	3826.025
CC1(O)CCCC1(C)O	C[C@@]1(O)CCC[C@]1(C)O	
InChI=1S/C7H14O2/c1-6(8)4-3-5-7(6,2)9/h8-9H,3-5H2,1-2H3	InChI=1S/C7H14O2/c1-6(8)4-3-5-7(6,2)9/h8-9H,3-5H2,1-2H3/t6-,7+
