17
gdb 34865	3.80824	1.29018	1.18545	4.357	72.44	-0.2379	0.0133	0.2513	1059.4467	0.138543	-417.971955	-417.964753	-417.963809	-418.003571	28.144	
N	-0.0416640961	-1.1318469784	-0.0826233484	-0.325376
C	 0.0001071967	 0.0226998131	-0.0437929011	 0.298574
C	 0.0139910429	 1.4765001178	 0.0508614756	-0.155866
C	-0.1329243108	 2.0669250423	 1.4913858484	 0.121898
C	 1.4027545359	 1.929226522	 1.5479828452	-0.231451
N	 1.4228252567	 2.0444339107	 0.0372866636	-0.119036
C	 1.2844928503	 3.4757470294	-0.3087090633	-0.19228
C	 0.4196268648	 4.2493027471	 0.7233295591	-0.088892
O	-0.5460357546	 3.41079816	 1.3693409846	-0.268846
H	-0.6605048498	 1.9060505043	-0.6941233429	 0.123114
H	-0.7839023422	 1.5827482008	 2.2217211172	 0.10452
H	 1.9813904469	 2.6783431488	 2.0908853622	 0.120548
H	 1.7267314401	 0.9295743211	 1.8445153005	 0.140811
H	 2.2835514353	 3.9221798094	-0.3520910193	 0.118949
H	 0.8585027889	 3.5318441007	-1.3151738705	 0.12122
H	 1.0654135077	 4.701301703	 1.487194149	 0.110469
H	-0.1394944027	 5.0600434278	 0.2490205102	 0.121645
129.4833	148.503	218.1537	332.5763	377.1793	437.854	464.0496	506.4965	542.367	654.6154	811.264	829.5781	836.1062	891.2977	906.1269	926.0518	952.286	963.1943	1030.0224	1052.9261	1089.7879	1132.1411	1140.4045	1176.4469	1220.6393	1240.7118	1262.1353	1281.4008	1283.9129	1331.9905	1352.5575	1369.2981	1405.654	1495.5447	1496.3917	1526.8515	2355.1142	3015.3939	3045.1401	3077.6949	3082.7229	3085.8477	3099.1249	3099.7484	3136.6657
N#CC1C2CN1CCO2	N#C[C@H]1[C@H]2CN1CCO2	
InChI=1S/C6H8N2O/c7-3-5-6-4-8(5)1-2-9-6/h5-6H,1-2,4H2	InChI=1S/C6H8N2O/c7-3-5-6-4-8(5)1-2-9-6/h5-6H,1-2,4H2/t5-,6+/m0/s1
