24
gdb 103081	2.0577	1.32017	1.1666	2.2278	86.02	-0.2221	0.0751	0.2972	1273.4287	0.21429	-405.523149	-405.511881	-405.510937	-405.558817	41.847	
C	-2.5182785328	-2.6847329924	 0.8001609657	-0.32092
N	-1.2999047426	-2.049121302	 0.3200801252	-0.173743
C	-0.9460248066	-2.0393854057	-1.1100796964	 0.259972
C	 0.5039266099	-2.3953623214	-1.4063904582	-0.444861
C	-1.8835463449	-2.6332210693	-2.1516571073	-0.459893
C	-1.3276651654	-0.762827245	-0.3994136796	 0.250899
C	-2.6374696256	-0.0418543531	-0.6785449282	-0.474549
C	-0.2702996587	 0.1992323503	 0.1393639369	-0.117575
O	-0.5202588768	 0.4843789267	 1.5072054741	-0.424109
H	-3.3657426265	-2.6840150532	 0.1017244503	 0.103286
H	-2.2943026237	-3.7274081312	 1.049102008	 0.122621
H	-2.842274616	-2.1851712412	 1.7189655528	 0.123035
H	 0.5897150186	-3.4715015265	-1.5979006918	 0.112148
H	 0.8674014057	-1.8727909908	-2.2987162711	 0.113025
H	 1.1594120508	-2.1598331949	-0.5679482957	 0.127243
H	-2.9258825437	-2.3390477628	-2.0349980889	 0.118871
H	-1.5649064917	-2.3193552865	-3.151544244	 0.122628
H	-1.8363912065	-3.7282111388	-2.1256642332	 0.120005
H	-3.490052487	-0.705402518	-0.8226747629	 0.113731
H	-2.8630641038	 0.6173642055	 0.1659936885	 0.137701
H	-2.5449597138	 0.5821410298	-1.5742527298	 0.119397
H	 0.7406672043	-0.2016744956	 0.0023930963	 0.085561
H	-0.3220084667	 1.1567183004	-0.3904138678	 0.100448
H	-0.5444922465	-0.3800631746	 1.9372452671	 0.285077
61.474	138.3837	150.4395	164.3603	173.3225	178.6423	234.8777	261.3826	284.087	313.6186	347.4406	379.2512	397.4994	468.7891	493.8248	524.1812	574.147	697.1929	715.151	775.9088	920.464	938.5214	953.148	1000.3816	1005.2079	1058.7047	1078.3479	1127.8109	1141.6948	1150.534	1168.4036	1173.7662	1215.2819	1248.319	1281.7742	1373.2677	1402.547	1405.0082	1415.0503	1421.4771	1429.3656	1460.932	1479.564	1482.152	1487.587	1494.1737	1498.6367	1507.5546	1510.2873	1515.683	1523.6929	3005.5617	3027.1066	3031.5612	3036.499	3041.2596	3068.5586	3074.5811	3083.6389	3090.1717	3095.6285	3098.8492	3137.7887	3143.5179	3153.3684	3770.9897
CN1C(C)(C)C1(C)CO	CN1C(C)(C)[C@]1(C)CO	
InChI=1S/C7H15NO/c1-6(2)7(3,5-9)8(6)4/h9H,5H2,1-4H3	InChI=1S/C7H15NO/c1-6(2)7(3,5-9)8(6)4/h9H,5H2,1-4H3/t7-,8?/m0/s1
