16
gdb 26732	3.2798	1.29254	0.93376	3.5996	76.39	-0.2007	-0.0442	0.1565	1191.3013	0.125098	-434.127088	-434.118441	-434.117497	-434.160352	31.248	
C	-0.0539856685	 1.5499163249	 0.094113026	-0.513547
C	-0.0208876409	 0.0648895412	-0.0220481719	 0.234318
C	-0.0483379944	-0.765020554	-1.1095236718	 0.21432
N	-0.1471313398	-0.4473982537	-2.461172922	-0.594894
N	-0.0325093363	-2.1017590803	-0.7277584587	-0.315619
C	 0.0090772517	-2.0961310802	 0.5717380631	 0.028538
N	 0.0244530912	-0.8128186128	 1.0824464273	-0.11098
C	 0.0853607491	-0.491956103	 2.4341314988	 0.171405
O	 0.1193056036	-1.3089913119	 3.3183125393	-0.292258
H	 0.8706062415	 1.9734890977	 0.507645894	 0.132815
H	-0.1974996633	 1.9844236628	-0.8987389873	 0.137122
H	-0.8847323089	 1.9045096772	 0.7169129754	 0.137469
H	 0.3971874603	 0.355585216	-2.7440518223	 0.246597
H	 0.0718256249	-1.2496643618	-3.0368048138	 0.256106
H	 0.0355222178	-2.9529472356	 1.2254850778	 0.164342
H	 0.0996934518	 0.5976102834	 2.6052935261	 0.104266
106.1995	132.3673	179.875	202.4213	228.8263	266.021	283.2207	334.7123	404.8751	532.4263	620.6716	645.5859	677.4501	750.7729	789.3103	837.0526	850.8094	957.2475	1034.9893	1040.0226	1064.3218	1156.087	1228.5893	1245.8135	1305.5643	1405.1536	1420.0576	1431.2274	1453.6643	1481.3488	1497.7417	1545.4678	1638.6331	1687.5112	1817.411	2997.4094	3012.5719	3055.862	3112.4508	3279.7053	3552.0045	3648.1877
CC1=C(N)N=CN1C=O	Cc1c(N)ncn1C=O	
InChI=1S/C5H7N3O/c1-4-5(6)7-2-8(4)3-9/h2-3H,6H2,1H3	InChI=1S/C5H7N3O/c1-4-5(6)7-2-8(4)3-9/h2-3H,6H2,1H3
