18
gdb 10398	2.62698	1.89421	1.38307	2.6027	63.44	-0.2509	0.0607	0.3117	953.1207	0.152341	-422.03225	-422.023582	-422.022638	-422.065611	30.996	
C	-1.4709137325	-0.1343222828	-0.1231747238	-0.264386
O	-0.0712471081	 0.0934063079	-0.1410446408	-0.295516
C	 0.6609175614	-0.665147803	-1.0865653803	 0.318197
C	 0.3965228994	-0.1686844846	-2.504735648	-0.106361
O	 0.6570608372	 1.2163521066	-2.6053541405	-0.426249
C	 2.1536515634	-0.7444887609	-0.7211812596	-0.11975
O	 2.135858329	-2.184379966	-0.851530112	-0.273945
C	 0.6972251895	-2.203909527	-0.924186914	-0.130764
H	-1.9681905655	 0.2136390696	-1.0383648146	 0.119408
H	-1.707632536	-1.1975272426	 0.019563016	 0.117779
H	-1.8674946898	 0.4286767213	 0.7244867467	 0.137321
H	 1.0648963252	-0.685177628	-3.2012975325	 0.120133
H	-0.6364567534	-0.4117638237	-2.8057993814	 0.085048
H	 0.3044272974	 1.6124534574	-1.7986712302	 0.288402
H	 2.8579549293	-0.2686614389	-1.4098515154	 0.118609
H	 2.3534592343	-0.423241788	 0.3081096551	 0.106893
H	 0.2405450493	-2.5563909064	 0.0105037264	 0.100544
H	 0.3319310199	-2.8093406609	-1.762235561	 0.104639
83.7235	104.1324	137.3312	193.6485	211.9792	268.6604	355.7824	372.1004	425.5394	442.0758	542.8017	694.5022	826.3093	898.2915	915.3681	964.2312	999.4441	1027.1457	1082.807	1088.5637	1118.2151	1150.991	1165.1034	1174.6998	1182.0341	1222.3849	1266.1492	1277.3284	1301.8686	1354.6165	1383.1191	1435.3038	1481.381	1491.8081	1499.0637	1507.4287	1516.6488	1527.5296	2961.1653	2999.0425	3006.0332	3029.8746	3053.8568	3059.2039	3076.3543	3093.0114	3122.7131	3778.5046
COC1(CO)COC1	COC1(CO)COC1	
InChI=1S/C5H10O3/c1-7-5(2-6)3-8-4-5/h6H,2-4H2,1H3	InChI=1S/C5H10O3/c1-7-5(2-6)3-8-4-5/h6H,2-4H2,1H3
