14
gdb 123626	4.1445	1.60015	1.26117	3.33	66.77	-0.2599	-0.0503	0.2096	927.3575	0.103429	-432.790922	-432.784898	-432.783954	-432.821283	24.104	
C	 0.0718133061	 1.4720094712	-0.0346160897	-0.238675
C	 1.3379982869	 0.6805451287	 0.0040456864	-0.16478
N	-0.0071325084	 0.0132042565	-0.0249631084	-0.102312
C	-0.2277098787	-0.6041523038	-1.3684673966	-0.287632
C	 1.0153740924	-0.2682049091	-2.1435533283	 0.306266
N	 1.5408327533	-0.4721048004	-3.3101869827	-0.196039
O	 2.7997799044	 0.1000165799	-3.2239858705	-0.1586
N	 3.0302162373	 0.6602244639	-1.9769413627	-0.2172
C	 1.9324911521	 0.4388915124	-1.3231541387	 0.364483
H	-0.2809337285	 1.9533119102	 0.8728910421	 0.136809
H	-0.1555127235	 2.0071908691	-0.9549504178	 0.129513
H	 1.9235110569	 0.5899947294	 0.9111641221	 0.129937
H	-0.3438883933	-1.6849562892	-1.2424631871	 0.151477
H	-1.146761597	-0.216883459	-1.8172473583	 0.146753
163.4496	240.0783	368.2957	444.4086	449.2917	604.2235	614.8435	693.1105	733.4766	750.1774	796.02	819.7713	850.8331	888.1881	960.4725	1015.0732	1018.4093	1057.6967	1071.3143	1120.7275	1148.3431	1203.5482	1215.2126	1255.5512	1300.1446	1339.797	1408.3715	1483.4596	1502.4835	1573.1477	1670.1919	3058.2187	3100.1223	3100.6549	3185.6989	3195.2384
C1C2N1CC1=NON=C21	C1[C@H]2N1Cc1nonc21	
InChI=1S/C5H5N3O/c1-3-5(7-9-6-3)4-2-8(1)4/h4H,1-2H2	InChI=1S/C5H5N3O/c1-3-5(7-9-6-3)4-2-8(1)4/h4H,1-2H2/t4-,8?/m1/s1
