16
gdb 37653	3.29605	2.3609	2.10893	1.1658	67.61	-0.2342	0.0571	0.2913	732.9499	0.128331	-400.662903	-400.657898	-400.656953	-400.691954	22.681	
O	-0.0722195545	 1.4530766413	 0.0613466103	-0.301312
C	 1.3872224065	 1.4709956676	-0.0110464198	 0.070652
C	 1.978675808	 1.2982850924	 1.3762099022	-0.053202
C	 1.2754614019	 0.2659548637	 2.1747229089	-0.032285
C	 0.55092449	-0.6970291028	 1.2186915336	-0.099492
C	-0.022398252	 0.0250155735	-0.0635432837	 0.100932
C	 1.4277584102	 0.0363506763	-0.6177581844	-0.100389
C	 1.9371856615	-0.8566219974	 0.5366245666	-0.019435
N	 2.6447327687	-0.013266498	 1.5910183901	-0.166173
H	 1.7548270354	 2.3280653809	-0.576665448	 0.084455
H	 2.4501102746	 2.13211761	 1.8834487929	 0.096726
H	 1.1110935067	 0.350285606	 3.2431289303	 0.098695
H	 0.0039703067	-1.524735373	 1.6647206832	 0.076142
H	-0.9042708831	-0.3992350988	-0.5453510727	 0.081662
H	 1.7155847199	-0.1008122231	-1.6579943988	 0.082856
H	 2.4166032695	-1.8111293886	 0.3322683492	 0.08017
382.2824	445.8624	592.73	648.5108	683.3215	714.0872	748.8207	769.4788	793.8599	831.4031	840.8901	858.6104	899.8968	911.8523	935.3134	956.5711	968.5834	983.2683	1013.1054	1034.9433	1053.0077	1073.2639	1122.994	1146.1784	1178.1024	1188.3862	1216.8032	1231.1064	1246.5337	1262.3577	1267.9906	1298.3874	1332.5753	1336.6975	1386.2237	3102.9477	3104.9505	3132.0788	3135.4744	3146.733	3169.3997	3185.1437
O1C2C3C4C5C1C2C5N34	O1[C@H]2[C@H]3[C@H]4[C@H]5[C@@H]1[C@@H]2[C@H]5N34	
InChI=1S/C7H7NO/c9-6-1-3-2(6)7(9)5-4(1)8(3)5/h1-7H	InChI=1S/C7H7NO/c9-6-1-3-2(6)7(9)5-4(1)8(3)5/h1-7H/t1-,2-,3-,4+,5+,6+,7+,8?/m0/s1
