16
gdb 44236	4.08079	1.25374	1.18838	4.3218	69.73	-0.2361	0.007	0.2432	1060.7973	0.124494	-437.85546	-437.848149	-437.847205	-437.887322	28.51	
O	 0.0073411487	 0.0603387113	-0.1297958137	-0.343452
C	 0.011223063	 1.2511597912	-0.0038838249	 0.412312
N	-1.0070651298	 2.1891013469	 0.1200800778	-0.318367
C	-0.1354168238	 3.3646975554	 0.0753075562	-0.160797
C	 1.0735282013	 2.3901694968	 0.0175937611	-0.040237
O	 1.4007058617	 2.81537931	-1.3254564887	-0.315939
C	 0.3429909259	 3.78565189	-1.3096487675	 0.465349
C	-0.407548882	 4.1737567519	-2.5349443104	-0.33732
C	 0.5419490134	 5.1579399087	-1.8602447671	-0.334754
H	-1.9733215058	 2.1012752396	-0.1657986364	 0.251554
H	-0.3141962534	 4.1213381304	 0.8377452835	 0.104077
H	 1.9288658977	 2.3547907308	 0.690998545	 0.111213
H	-0.0795952123	 3.728544704	-3.4678719885	 0.136951
H	-1.4769537779	 4.344514524	-2.4640981306	 0.117034
H	 0.1209837759	 5.9989433227	-1.3184095831	 0.118859
H	 1.4870275975	 5.3572356963	-2.3531000126	 0.133517
84.1267	185.0136	210.2649	280.0347	367.244	445.8795	489.7872	513.1224	590.4429	732.2671	748.7124	767.9456	815.3393	868.8601	882.6283	907.968	955.6671	979.8378	987.6775	1020.0859	1037.1039	1051.5392	1071.1587	1131.7006	1169.7543	1185.4893	1198.706	1226.5221	1295.7592	1307.2403	1352.9465	1391.8026	1449.1631	1498.687	1901.654	3122.9834	3129.7908	3131.9676	3133.5944	3214.4073	3227.8497	3583.9477
O=C1NC2C1OC21CC1	O=C1N[C@H]2[C@@H]1OC12CC1	
InChI=1S/C6H7NO2/c8-5-3-4(7-5)6(9-3)1-2-6/h3-4H,1-2H2,(H,7,8)	InChI=1S/C6H7NO2/c8-5-3-4(7-5)6(9-3)1-2-6/h3-4H,1-2H2,(H,7,8)/t3-,4-/m0/s1
