16
gdb 20198	3.90486	2.69708	2.01612	0.6229	74.84	-0.1902	-0.0149	0.1752	704.6801	0.132846	-309.401974	-309.396322	-309.395378	-309.431222	23.983	
C	 0.0065362596	 1.5762255516	 0.1071166334	-0.261412
C	 1.4888251762	 1.8953904406	-0.0602974943	-0.092233
C	 2.1642515715	 0.7971704741	-0.4451870528	 0.064649
C	 3.1471337179	 0.1565785173	 0.4953444963	-0.154945
C	 2.415752159	-0.7915594483	 1.1070461	-0.073369
C	 1.0876867054	-1.0136401536	 0.4083461813	-0.08101
C	-0.0014638938	 0.0570758645	-0.1014148418	-0.046486
C	 1.2008557697	-0.2993321316	-0.8957539593	-0.113823
H	-0.2972382196	 1.8894686214	 1.1151363899	 0.11163
H	-0.6914563039	 2.0670034314	-0.5897900153	 0.101896
H	 1.9440379179	 2.7136788627	 0.4893832712	 0.092045
H	 4.1103667846	 0.5422186708	 0.80015811	 0.106778
H	 2.7273185459	-1.3724975464	 1.9674765395	 0.097396
H	 0.6586877765	-2.0103671868	 0.4552120576	 0.0847
H	-0.955770306	-0.4233926903	-0.3028531042	 0.081994
H	 1.245379509	-0.7574576873	-1.8795526812	 0.08219
227.1323	303.8192	393.5605	507.3161	603.5854	650.7594	712.9223	738.4891	746.1911	783.6323	835.1723	841.4863	856.3011	907.5423	918.3667	961.0281	970.2933	994.7362	1022.7672	1058.5266	1100.7315	1105.1373	1116.9739	1142.7973	1193.2574	1251.6935	1294.1491	1302.6501	1327.4142	1341.1378	1378.9862	1478.1379	1589.6004	1617.3003	2974.1701	3028.7048	3136.9549	3141.7275	3156.4722	3172.4352	3195.7059	3232.7673
C1C=C2C=CC3C1C23	C1[CH][C]2C=C[C@H]3[C@@H]1[C@@H]23	
InChI=1S/C8H8/c1-3-6-7-4-2-5(1)8(6)7/h1-3,6-8H,4H2	InChI=1S/C8H8/c1-3-6-7-4-2-5(1)8(6)7/h1-3,6-8H,4H2/t6-,7+,8-/m0/s1
