18
gdb 80690	3.42478	1.14327	1.11707	2.3322	81.36	-0.2351	-0.0634	0.1717	1161.3514	0.147789	-401.940417	-401.93237	-401.931426	-401.973033	30.61	
C	-0.1860696201	 1.5096395753	 0.0884670618	-0.320176
N	 0.0586616353	 0.0823317302	-0.0462380787	-0.085829
C	 0.6604418958	-0.4829861339	-1.2363648047	-0.044841
C	 1.4578132512	 0.4120407379	-2.1869003533	-0.340476
C	 2.5972167319	 0.9209727484	-1.3276218969	 0.216924
C	 3.5818672712	 1.9010157297	-1.784311282	 0.072028
O	 3.5670010847	 2.4239305058	-2.8780871699	-0.274003
C	 2.5797608023	 0.3628788316	-0.1018166754	-0.162157
C	 1.3997483495	-0.5173089655	 0.0866977377	-0.071609
H	 0.6021585514	 2.1663495471	-0.303798392	 0.111824
H	-1.1179690267	 1.7430938178	-0.4358843984	 0.129571
H	-0.3272345189	 1.7403319637	 1.1487719787	 0.12646
H	 0.158941587	-1.3592666813	-1.6373665449	 0.09867
H	 1.8345628562	-0.1596345362	-3.0419415808	 0.129258
H	 0.8649619133	 1.2335069716	-2.6050153221	 0.133823
H	 4.3785987175	 2.1361758122	-1.0431857168	 0.067552
H	 3.3140422923	 0.5544358421	 0.6738367059	 0.1141
H	 1.4539271761	-1.3806098365	 0.7427013917	 0.09888
89.3762	175.4757	186.3251	210.8399	250.3973	329.0351	419.223	450.4053	489.959	586.2186	688.1524	727.8616	731.9388	845.0206	869.3409	883.4194	923.7416	974.8163	980.8652	1021.6081	1032.728	1070.0772	1116.7156	1157.2919	1165.6504	1189.6124	1209.857	1275.0598	1307.871	1314.8996	1357.14	1378.2309	1420.5228	1450.9914	1468.3996	1489.6339	1507.3242	1657.8617	1778.3456	2878.1717	3006.1621	3048.9482	3077.0797	3079.5809	3107.2194	3145.2549	3156.2755	3191.0629
CN1C2CC(C=O)=CC12	CN1[C@H]2CC(=C[C@@H]12)C=O	
InChI=1S/C7H9NO/c1-8-6-2-5(4-9)3-7(6)8/h2,4,6-7H,3H2,1H3	InChI=1S/C7H9NO/c1-8-6-2-5(4-9)3-7(6)8/h2,4,6-7H,3H2,1H3/t6-,7+,8?/m1/s1
