21
gdb 113229	3.02149	1.08351	0.97664	1.6702	79.69	-0.2194	0.0715	0.2909	1323.1728	0.180541	-424.179406	-424.169807	-424.168863	-424.213919	36.199	
C	-0.8761188888	 0.6861115431	-0.3197800265	-0.24686
O	 0.2917206384	-0.0412373618	 0.0364164162	-0.251861
C	 0.9996900548	-0.488834251	-1.0865904593	 0.030809
C	 2.0106465753	-1.5767971914	-0.8361918708	-0.393014
C	 0.7040645013	-1.9014706599	-1.5417899764	 0.402574
O	-0.2718932793	-2.5855668411	-0.8056355496	-0.482804
C	 0.6881049411	-2.2654897331	-2.9910493999	-0.035972
C	 0.3581245416	-3.6725094886	-3.4237844678	-0.268215
C	-0.6145448928	-2.5503020097	-3.6957386664	-0.271273
H	-0.6194001325	 1.5902188195	-0.8898766406	 0.116281
H	-1.5649299846	 0.0768827375	-0.9197447773	 0.123389
H	-1.3658253366	 0.9804096486	 0.6111956362	 0.130685
H	 1.2190881304	 0.2870999773	-1.8208058582	 0.085651
H	 2.9358568802	-1.5549417042	-1.4023046515	 0.11414
H	 2.1061257204	-1.9228872241	 0.1877142792	 0.12159
H	-0.4555652471	-2.0393914229	-0.0292607554	 0.28887
H	 1.4505806008	-1.7497767902	-3.5679851266	 0.07662
H	 0.9105404595	-4.0950474154	-4.2557817378	 0.10479
H	 0.0928802973	-4.378822463	-2.6462203317	 0.129919
H	-1.5150144871	-2.5241442347	-3.0936819444	 0.1214
H	-0.7336103323	-2.200358985	-4.7152985214	 0.10328
67.5751	107.6569	120.8772	168.3726	217.1689	266.0718	285.5294	337.3447	395.763	448.2235	461.6027	519.7812	619.6404	726.0611	788.1684	795.6125	818.3355	869.4984	878.2452	947.6101	957.3879	1000.547	1051.2505	1058.8046	1068.5015	1083.4931	1085.0064	1113.7348	1132.4028	1148.849	1183.1312	1199.4832	1203.2039	1225.538	1244.1772	1299.827	1349.5838	1373.7814	1447.3678	1458.73	1475.1209	1486.6407	1488.9413	1508.3873	1513.9944	2995.9887	3054.2224	3093.8649	3123.4598	3128.4956	3137.0833	3139.633	3147.3141	3221.3664	3222.4936	3236.4616	3750.729
COC1CC1(O)C1CC1	CO[C@H]1C[C@]1(O)C1CC1	
InChI=1S/C7H12O2/c1-9-6-4-7(6,8)5-2-3-5/h5-6,8H,2-4H2,1H3	InChI=1S/C7H12O2/c1-9-6-4-7(6,8)5-2-3-5/h5-6,8H,2-4H2,1H3/t6-,7-/m0/s1
