16
gdb 22381	2.84	1.20651	1.01897	1.3743	69.91	-0.2303	0.0128	0.2431	1175.1911	0.121594	-474.934179	-474.925238	-474.924294	-474.967627	33.41	
O	-0.1295055254	 1.2995707409	-0.046436793	-0.392872
N	 0.0104296515	-0.1024079619	 0.0027700219	-0.270704
C	-1.1226041532	-0.6682240088	-0.0293941982	 0.472439
C	-2.5747342193	-0.2109143189	-0.0212419438	-0.392504
C	-2.9658057246	-1.7019434126	 0.0672667201	 0.355426
O	-3.9464880498	-2.1886262311	 0.9043876286	-0.453813
C	-2.4135671686	-2.4720218544	-1.0754480513	 0.031048
O	-2.3430062109	-1.9069615574	-2.3485879482	-0.420789
C	-1.4585324514	-2.1128427078	 0.0589800773	-0.29341
H	 0.7851651022	 1.5945064764	 0.0139630244	 0.305347
H	-2.8128331085	 0.324226664	 0.9019637175	 0.135005
H	-2.931001565	 0.3526238499	-0.8857634381	 0.128583
H	-4.7584056306	-2.2950417343	 0.3957593506	 0.293112
H	-2.6919578709	-3.5275829351	-1.0512659618	 0.098137
H	-1.4822026775	-2.1180276758	-2.7259811153	 0.294793
H	-0.918967158	-2.8737809332	 0.6084896893	 0.110202
81.2172	161.1903	191.0222	217.5304	224.8716	291.7107	313.9498	367.9551	382.343	476.3497	489.2233	522.3607	605.3131	649.1441	729.1141	806.9764	862.1327	916.9162	948.8277	981.9066	987.8367	1057.3741	1097.8575	1131.0302	1165.1053	1215.0261	1225.5499	1261.1595	1291.9366	1320.6932	1350.1832	1410.9008	1448.6521	1489.8323	1790.6182	3070.3855	3091.4774	3127.5101	3201.2089	3792.2531	3805.9166	3820.9475
ON=C1CC2(O)C(O)C12	ON=C1C[C@@]2(O)[C@@H](O)[C@@H]12	
InChI=1S/C5H7NO3/c7-4-3-2(6-9)1-5(3,4)8/h3-4,7-9H,1H2	InChI=1S/C5H7NO3/c7-4-3-2(6-9)1-5(3,4)8/h3-4,7-9H,1H2/t3-,4+,5+/m1/s1
