17
gdb 54863	3.16957	1.31751	1.24563	2.9764	73.	-0.2408	-0.0176	0.2231	1062.9632	0.135148	-421.828495	-421.820488	-421.819544	-421.861474	30.121	
C	 0.5859436399	 0.4608893287	-0.7833213797	-0.487038
C	-0.1531365722	 0.1378375765	 0.4962544358	 0.382555
O	 0.1030916947	 0.668529043	 1.5514818505	-0.305814
C	-1.2587942615	-0.9348381347	 0.4223203707	-0.151805
C	-2.1835477842	-0.8689049569	-0.7811150813	-0.107058
C	-2.2542888919	-2.0289174145	-1.4399639084	-0.087879
C	-1.3428289149	-3.0330426057	-0.8160152146	-0.005046
O	 0.0525517888	-2.644492061	-0.8628292663	-0.246988
C	-0.6924190388	-2.3611791187	 0.3231134163	 0.009518
H	 1.4332599542	 1.1117632236	-0.5649823715	 0.135547
H	 0.905992519	-0.4615082803	-1.2759183578	 0.169687
H	-0.0917137001	 0.9668857364	-1.4813521508	 0.136875
H	-1.8175972567	-0.8381037493	 1.3601183027	 0.109471
H	-2.7040738851	 0.0420786554	-1.0549370879	 0.114457
H	-2.8607085805	-2.2308620176	-2.3138140672	 0.111992
H	-1.5199097707	-4.1023052588	-0.8706557296	 0.107162
H	-0.35248046	-2.8698851761	 1.2200816391	 0.114363
58.2223	139.272	163.4149	180.6862	311.3236	392.1808	419.3273	477.2972	573.0999	600.3398	718.2616	745.6348	802.0746	834.5175	848.3529	861.4924	931.5448	941.5073	975.7024	999.7483	1025.3443	1028.1043	1076.6265	1111.41	1134.6512	1215.9671	1250.0576	1266.9546	1271.2488	1299.3325	1375.047	1386.1456	1402.255	1464.5711	1471.6203	1653.9564	1808.7606	3039.9141	3050.5264	3108.2357	3158.9832	3161.0778	3174.2391	3191.6988	3222.5875
CC(=O)C1C=CC2OC12	CC(=O)[C@H]1C=C[C@H]2O[C@@H]12	
InChI=1S/C7H8O2/c1-4(8)5-2-3-6-7(5)9-6/h2-3,5-7H,1H3	InChI=1S/C7H8O2/c1-4(8)5-2-3-6-7(5)9-6/h2-3,5-7H,1H3/t5-,6-,7+/m1/s1
