19
gdb 95177	2.45178	1.65808	1.14334	3.1891	75.16	-0.244	-0.0316	0.2123	1102.2417	0.159952	-423.046267	-423.038132	-423.037188	-423.079165	31.324	
C	 0.0837583542	 1.5850726281	 0.0014285522	-0.40314
C	 0.0829354326	 0.0530562915	-0.0303653722	-0.08503
C	 0.7180832333	-0.5236587382	-1.3063065785	-0.219873
C	 0.7450196596	-2.0572610082	-1.3091711796	-0.262024
C	 1.4570244813	-2.5879444974	-0.0848016373	 0.061484
O	 2.5824785043	-1.8312603206	 0.3508670866	-0.241519
C	 1.4077357009	-1.8344819988	 1.1846852002	-0.070662
C	 0.6563975607	-0.5298586264	 1.2657142208	 0.406986
O	 0.4637697892	-0.0159409238	 2.3447034744	-0.322175
H	 1.1042887568	 1.9739001262	-0.0807123438	 0.123437
H	-0.4995816974	 1.9882465265	-0.8315771953	 0.111192
H	-0.340713317	 1.9465251728	 0.9396497941	 0.14151
H	-0.9673254922	-0.2855812721	-0.0043837208	 0.106014
H	 0.1614757907	-0.1627619718	-2.1774158885	 0.099426
H	 1.7417182718	-0.1488554984	-1.4037176951	 0.123481
H	-0.2742744484	-2.4660009523	-1.3261596766	 0.108149
H	 1.2461085189	-2.427675835	-2.2109216457	 0.113142
H	 1.5909481403	-3.6678836303	-0.0177564437	 0.100162
H	 1.5297573506	-2.3376821517	 2.1418884288	 0.10944
51.6628	174.6769	209.4936	273.8301	287.615	335.4909	372.1655	413.3451	484.5663	544.7463	628.4931	660.7608	780.1474	799.467	854.1985	875.2513	904.7795	953.4191	977.4298	1028.4693	1047.7772	1069.9961	1109.3992	1138.2806	1149.6385	1210.0566	1224.9591	1250.5933	1271.0997	1305.9852	1347.8651	1358.5506	1372.9868	1382.2298	1407.7454	1446.3886	1483.0409	1490.2591	1496.4356	1504.135	1798.1727	2964.7185	3023.4528	3041.7812	3048.5582	3065.2401	3092.6958	3107.4752	3111.2756	3139.3462	3140.6339
CC1CCC2OC2C1=O	C[C@H]1CC[C@H]2O[C@H]2C1=O	
InChI=1S/C7H10O2/c1-4-2-3-5-7(9-5)6(4)8/h4-5,7H,2-3H2,1H3	InChI=1S/C7H10O2/c1-4-2-3-5-7(9-5)6(4)8/h4-5,7H,2-3H2,1H3/t4-,5+,7+/m0/s1
