17
gdb 47879	2.25872	1.69211	1.152	4.0009	68.89	-0.2317	-0.0493	0.1824	1071.8794	0.135746	-458.983041	-458.974714	-458.97377	-459.01653	30.34	
O	-0.006316213	-0.0438295937	-0.2063014676	-0.290742
C	-0.0301799982	 1.1494653929	-0.0451324204	 0.34207
C	-1.2983017541	 1.9662083001	 0.1542748459	-0.35456
C	-1.772956909	 2.5703529608	-1.1887834896	-0.070918
O	-0.7224762919	 2.9059102408	-2.078659257	-0.243729
C	 0.2879627115	 3.7597302027	-1.5688487294	-0.105086
C	 1.5235425943	 2.9541991849	-1.1318600735	-0.306881
C	 1.2759889406	 1.9771148089	 0.0027303931	 0.308431
O	 2.0326071379	 1.8251720374	 0.9315380611	-0.291118
H	-2.0789868236	 1.3166179692	 0.5584514245	 0.138347
H	-1.0981433212	 2.7587749916	 0.8848454332	 0.125598
H	-2.3660261322	 1.8277787831	-1.7280706579	 0.135521
H	-2.4122569089	 3.444217647	-0.9935458587	 0.104892
H	 0.5782182959	 4.4328031566	-2.3820733694	 0.124402
H	-0.0916380309	 4.3847832397	-0.748369256	 0.105799
H	 1.8530595029	 2.3661246248	-1.9992094061	 0.149594
H	 2.3459184598	 3.6137567033	-0.8390220322	 0.12838
54.7149	113.6761	164.1326	229.2079	240.3286	329.5605	345.9953	417.9548	502.3833	519.8041	645.0552	702.3968	774.2156	818.1259	874.3322	878.0277	916.7953	1007.6698	1017.1382	1068.6175	1099.2627	1138.014	1177.3056	1227.0928	1252.5505	1265.4265	1296.1117	1332.4388	1349.7035	1391.9952	1415.1888	1443.0158	1475.5345	1499.9581	1510.3766	1805.0921	1824.9048	2994.2984	3008.392	3029.4203	3042.4127	3074.9196	3096.9804	3100.1573	3114.7819
O=C1CCOCCC1=O	O=C1CCOCCC1=O	
InChI=1S/C6H8O3/c7-5-1-3-9-4-2-6(5)8/h1-4H2	InChI=1S/C6H8O3/c7-5-1-3-9-4-2-6(5)8/h1-4H2
