24
gdb 14792	11.31851	0.53039	0.51805	0.8453	84.18	-0.2475	0.0906	0.3381	2247.3252	0.221405	-351.412879	-351.401976	-351.401032	-351.449857	37.486	
C	-0.0062709291	 1.5703145668	 0.0378712087	-0.378798
C	 0.0180189856	 0.0393937369	 0.0260156242	-0.164703
C	 0.7394125041	-0.5545213845	 1.2399384589	-0.177674
C	 0.763776023	-2.0767400582	 1.228513285	-0.050371
O	 1.4450866847	-2.530987134	 2.3775451677	-0.248135
C	 1.5226857118	-3.9365717739	 2.4645497376	-0.028779
C	 2.2733261306	-4.3118625619	 3.7348833998	-0.18148
C	 2.4057504121	-5.8262334131	 3.9121048664	-0.381946
H	 1.0092404774	 1.9814260027	 0.0387470045	 0.115005
H	-0.5266538593	 1.9685887077	-0.8387140335	 0.110523
H	-0.5160145688	 1.9503273451	 0.9300764349	 0.115002
H	-1.011071468	-0.3421723831	-0.0100142232	 0.095362
H	 0.5030571293	-0.3112978441	-0.8946733441	 0.095369
H	 1.7728811897	-0.1886078596	 1.2794586859	 0.10237
H	 0.2558285653	-0.2194673162	 2.1658937919	 0.102349
H	-0.2657368141	-2.4768081137	 1.209848188	 0.079837
H	 1.2638858802	-2.4455839971	 0.3151845931	 0.079841
H	 0.5096648554	-4.377662751	 2.4739364873	 0.079184
H	 2.0390117094	-4.3486896854	 1.5788624817	 0.079176
H	 3.2642108383	-3.8443190672	 3.7039232705	 0.105471
H	 1.7483467531	-3.873047844	 4.5911838126	 0.105469
H	 1.4241167373	-6.3096838642	 3.9693810403	 0.115344
H	 2.9495301	-6.2807867611	 3.0764649113	 0.115344
H	 2.9479875721	-6.068693677	 4.8305882006	 0.116238
44.9118	68.7386	80.1877	110.6654	141.3699	161.6339	199.1513	237.612	246.7236	290.1129	341.6546	483.3039	500.9627	745.3855	764.8184	815.7972	901.0177	901.3812	915.2492	955.1482	1009.0921	1030.8061	1058.0863	1072.3555	1127.046	1161.8994	1167.9446	1183.346	1205.7619	1252.3428	1271.4098	1293.3369	1311.3187	1314.6284	1325.1704	1333.6834	1385.6654	1406.3666	1413.0287	1414.7627	1456.7784	1488.4746	1491.4953	1496.5355	1499.6218	1501.1348	1506.4782	1510.7085	1519.7743	1538.6168	2931.7177	2945.4852	2959.7377	2962.8089	3013.2652	3028.2357	3031.2466	3032.3564	3038.1425	3038.945	3070.5404	3072.6659	3097.9997	3099.0947	3102.1699	3107.4555
CCCCOCCC	CCCCOCCC	
InChI=1S/C7H16O/c1-3-5-7-8-6-4-2/h3-7H2,1-2H3	InChI=1S/C7H16O/c1-3-5-7-8-6-4-2/h3-7H2,1-2H3
