23
gdb 114363	3.11321	1.05405	1.03292	0.9749	86.	-0.2414	0.0788	0.3201	1341.2631	0.20574	-388.258306	-388.249081	-388.248137	-388.292404	35.292	
C	 0.1377510862	 1.1484034545	-0.3506680133	-0.236493
O	-0.0020533654	-0.1163583032	 0.2536877605	-0.239367
C	-1.3177487705	-0.6048772355	 0.2271736467	 0.163323
C	-1.9017950006	-1.1409079651	-1.119527278	-0.289622
C	-2.3489394864	-2.4426549345	-0.3857150541	-0.037631
C	-1.4267733723	-3.6800658048	-0.5509509559	 0.052613
C	-0.9332421108	-4.11058844	-1.9242388853	-0.411198
C	-0.4285870357	-3.0424972368	 0.4646813197	-0.25737
C	-1.5043406105	-1.9895103169	 0.8631440465	-0.067359
H	 1.1880872192	 1.4378071919	-0.2649521101	 0.124997
H	-0.1376078935	 1.1303935152	-1.4160399646	 0.106769
H	-0.482086183	 1.9092545821	 0.1502936772	 0.102024
H	-2.00147396	 0.1325573506	 0.6783110312	 0.059347
H	-2.7063818304	-0.5464498132	-1.5576538709	 0.09705
H	-1.1348392972	-1.2991530638	-1.8825023052	 0.102912
H	-3.4262680484	-2.6110436474	-0.3503663123	 0.056973
H	-1.9231771995	-4.5312964519	-0.0697767416	 0.068301
H	-0.4120020291	-3.2994807862	-2.4437039315	 0.11451
H	-0.2297206031	-4.9465131904	-1.8388869871	 0.113594
H	-1.7619445609	-4.4381329251	-2.5624826022	 0.110411
H	-0.0883582822	-3.698287439	 1.2688712392	 0.094653
H	 0.4487753539	-2.584680979	 0.0014615723	 0.112216
H	-1.86702467	-2.0347085913	 1.8905510185	 0.059347
61.7565	106.4739	164.4016	196.1762	223.4885	248.1127	313.4938	341.5918	425.6423	486.2286	495.9228	604.2208	713.8619	758.0307	785.8713	847.4713	886.2044	902.5881	930.4015	954.8496	984.6625	1033.814	1057.0831	1072.7535	1110.2644	1119.1819	1134.3808	1136.0987	1171.5197	1185.3343	1192.2587	1209.5003	1239.2249	1249.6292	1259.0321	1286.5413	1306.2252	1314.0957	1333.55	1371.1625	1387.7097	1409.023	1473.1588	1482.9819	1488.1477	1491.5702	1497.9288	1500.6876	1509.5136	2961.4708	2973.3526	3018.9544	3024.035	3027.1234	3061.9955	3067.6335	3087.6921	3088.3915	3095.8404	3100.0265	3111.5958	3115.7025	3121.9772
COC1CC2C(C)CC12	CO[C@H]1C[C@H]2[C@@H](C)C[C@@H]12	
InChI=1S/C8H14O/c1-5-3-7-6(5)4-8(7)9-2/h5-8H,3-4H2,1-2H3	InChI=1S/C8H14O/c1-5-3-7-6(5)4-8(7)9-2/h5-8H,3-4H2,1-2H3/t5-,6-,7+,8-/m0/s1
