17
gdb 47414	2.75492	1.64509	1.26787	4.0963	67.6	-0.2457	-0.0047	0.241	1015.7253	0.137129	-458.98805	-458.980349	-458.979405	-459.020782	28.575	
O	 0.173942266	 0.1031869662	 0.4528676774	-0.350175
C	 0.0859685319	 1.2607266803	 0.1611055342	 0.425363
O	-1.0614090178	 1.8325250007	-0.2802954614	-0.225582
C	-0.8621006853	 3.2351233785	-0.5536192992	-0.08751
C	 0.4148889714	 3.6233493545	 0.2068439485	-0.312997
C	 1.1999409114	 2.3233218421	 0.186423234	 0.307975
C	 2.3921603434	 2.0256054741	 1.1080618936	-0.358457
C	 3.1590600598	 1.7529475232	-0.2008726466	-0.068645
O	 2.022890772	 2.1676415076	-1.0001917185	-0.324625
H	-0.7496503647	 3.3649747907	-1.634653159	 0.134237
H	-1.7562892659	 3.7652157181	-0.2211958744	 0.127671
H	 0.9611207967	 4.4457665332	-0.2576685724	 0.125648
H	 0.1749501552	 3.8921917362	 1.2414236565	 0.121896
H	 2.7437693046	 2.8861785826	 1.6792488371	 0.114089
H	 2.2498006694	 1.1673494145	 1.7646801766	 0.138744
H	 4.035844153	 2.3786095015	-0.3982887739	 0.108736
H	 3.412209379	 0.7024357759	-0.3766945828	 0.123632
79.1292	95.5186	193.6083	225.3998	275.1822	350.3609	446.7398	560.1962	670.852	705.3828	737.6561	773.9744	820.1205	868.2051	919.5487	952.1806	967.3466	987.9403	1011.7942	1047.0226	1099.1957	1130.873	1162.3485	1197.8999	1206.6463	1224.7101	1245.0288	1274.6018	1282.1817	1330.3037	1357.9729	1401.8719	1468.6417	1477.6263	1520.9911	1525.2973	1879.4552	3037.3754	3053.3238	3058.8732	3082.9284	3088.2454	3117.9237	3129.8165	3150.3377
O=C1OCCC11CCO1	O=C1OCC[C@]21CCO2	
InChI=1S/C6H8O3/c7-5-6(1-3-8-5)2-4-9-6/h1-4H2	InChI=1S/C6H8O3/c7-5-6(1-3-8-5)2-4-9-6/h1-4H2/t6-/m1/s1
