18
gdb 53587	4.72215	0.66091	0.61174	1.6686	88.64	-0.2374	0.0338	0.2712	1827.7887	0.144978	-364.726269	-364.716088	-364.715144	-364.764321	35.47	
C	-0.0622841592	 1.4592825846	-0.2394050468	-0.496359
C	-0.0417701707	 0.0268890543	 0.0214180624	 0.089495
C	-0.0114401768	-1.1579681114	 0.2325514902	 0.042686
C	-0.006447447	-2.594866082	 0.4900731204	-0.364056
C	-1.3623759017	-3.2309091173	 0.2347589892	 0.005362
N	-1.6304434063	-3.6867809887	-1.1266474467	-0.313735
C	-1.5098510587	-4.6956947908	-0.0439644371	-0.256992
C	-0.3889387137	-5.5942548333	-0.0883656542	 0.383607
C	 0.5368830467	-6.3615338454	-0.0910417588	-0.448627
H	 0.7911652442	 1.7635717942	-0.8555471922	 0.14784
H	-0.9736727254	 1.7542333026	-0.7714865562	 0.145502
H	-0.0212154795	 2.0371524833	 0.6907017633	 0.144545
H	 0.7355000702	-3.0965568562	-0.1401324197	 0.146543
H	 0.2848663187	-2.7883619532	 1.5312619418	 0.128419
H	-2.1824446207	-2.7750192149	 0.786837459	 0.097389
H	-2.6100752674	-3.5611683582	-1.3675053088	 0.238049
H	-2.4310980616	-5.1506216916	 0.3148027543	 0.110938
H	 1.3566725888	-7.0362534161	-0.1069261599	 0.199396
8.637	42.8511	68.9244	126.8764	206.6547	210.6049	267.7374	321.9958	380.8523	384.3656	491.7858	550.2748	582.5329	615.4425	659.9001	771.9451	805.3913	836.4456	885.2101	935.9421	999.7348	1011.6043	1053.1747	1054.8095	1112.818	1167.6927	1177.4634	1211.3712	1247.134	1271.6024	1324.9917	1400.3053	1415.4636	1455.1615	1460.1909	1479.0187	1479.569	2239.2782	2375.1773	3020.6882	3024.809	3073.8104	3084.2113	3085.096	3118.2951	3128.1843	3504.1686	3507.8927
CC#CCC1NC1C#C	CC#CC[C@H]1N[C@H]1C#C	
InChI=1S/C8H9N/c1-3-5-6-8-7(4-2)9-8/h2,7-9H,6H2,1H3	InChI=1S/C8H9N/c1-3-5-6-8-7(4-2)9-8/h2,7-9H,6H2,1H3/t7-,8+/m0/s1
