20
gdb 121902	3.91114	0.63458	0.56333	4.4338	71.82	-0.2507	0.0175	0.2681	1898.4057	0.170116	-477.45104	-477.440623	-477.439679	-477.487708	36.689	
N	 0.0733385102	 0.9986492938	-0.0461506672	-0.538375
H	-0.21551722	 0.0752096925	-0.357660975	 0.24429
H	 1.4335571137	 0.7447302324	 1.2391235018	 0.305688
H	-0.0558486397	 1.6296869916	-0.8282423073	 0.251963
C	-0.7156438743	 1.4201296026	 1.1255755259	-0.147768
C	-2.1774790463	 0.9558223781	 1.1531930989	-0.189752
C	-3.0287104912	 1.5618740108	 0.035982572	-0.179383
C	-4.4777609089	 1.0941123556	 0.0783765373	-0.074833
O	-5.1580799722	 1.6918734433	-1.0140791284	-0.42159
C	 0.025382826	 0.9922585814	 2.4139830424	 0.441159
O	 1.3086585469	 0.6720279205	 2.2116357367	-0.370641
O	-0.4936210731	 0.9782115162	 3.4985793711	-0.34269
H	-0.6963899812	 2.5182494888	 1.1419292687	 0.121967
H	-2.1981398626	-0.1420524077	 1.0912240292	 0.096278
H	-2.5847317322	 1.2115515633	 2.1359650241	 0.137212
H	-3.0155645257	 2.6571985778	 0.1033058509	 0.107881
H	-2.6176494145	 1.3044637893	-0.9482668143	 0.093116
H	-4.5146528297	-0.0063713187	 0.0184225678	 0.085381
H	-4.931919084	 1.3814393063	 1.0403312865	 0.092548
H	-6.080852601	 1.4240739218	-0.977937391	 0.287549
57.3158	63.6337	83.2894	114.7026	146.7473	237.0168	263.4219	288.6767	305.5523	349.7061	423.5141	461.0528	541.9506	612.5544	735.0093	760.9571	839.9152	857.4983	868.2754	900.6421	997.4346	1024.7209	1048.6901	1079.1567	1092.5023	1130.8901	1191.8608	1218.1724	1224.9956	1240.7793	1279.7073	1305.6579	1316.9317	1331.794	1389.7204	1395.9226	1429.8811	1464.3126	1484.8163	1501.6117	1529.2232	1656.4907	1865.645	2960.2316	2987.6949	3006.7987	3023.4268	3031.5294	3062.1188	3095.1617	3468.5671	3501.5756	3591.0713	3831.9314
[NH3+]C(CCCO)C([O-])=O	N[C@@H](CCCO)C(=O)O	
InChI=1S/C5H11NO3/c6-4(5(8)9)2-1-3-7/h4,7H,1-3,6H2,(H,8,9)	InChI=1S/C5H11NO3/c6-4(5(8)9)2-1-3-7/h4,7H,1-3,6H2,(H,8,9)/t4-/m0/s1
