20
gdb 119644	4.19664	1.04926	0.98073	2.7981	79.18	-0.2326	0.0825	0.3151	1285.5184	0.171122	-403.065456	-403.057185	-403.056241	-403.09875	31.382	
C	-0.5460695481	 1.4348184442	 0.5167066289	-0.220099
O	-0.7222568039	 0.0471991322	 0.6724059214	-0.238406
C	-0.7588990101	-0.645624073	-0.5580629989	-0.205839
C	-0.9493671235	-2.1076839064	-0.285719714	 0.305056
C	-1.1080390682	-3.127412039	-1.4487270406	-0.301973
C	-1.857404127	-3.9928573048	-0.4374922004	-0.033708
C	-2.1674992864	-2.8302960989	 0.4256419905	-0.092534
N	-1.2156687364	-3.8608547047	 0.9204459159	-0.148234
C	-0.0818932527	-2.9010631476	 0.7094711127	-0.181629
H	-0.5314022759	 1.8770846667	 1.5156626215	 0.129086
H	 0.4019633662	 1.6721423344	 0.0080852817	 0.104107
H	-1.3665184271	 1.889114012	-0.0614653406	 0.103838
H	-1.5776263389	-0.2612136831	-1.1914633609	 0.086571
H	 0.180441036	-0.4882250123	-1.1196964312	 0.087966
H	-1.7889052547	-2.763514687	-2.223649684	 0.104267
H	-0.1911104658	-3.5122528402	-1.9094518027	 0.094739
H	-2.4268725022	-4.8967378371	-0.6078278503	 0.097598
H	-3.0488250405	-2.4989508688	 0.9580482138	 0.097771
H	 0.8520582957	-3.3465110945	 0.3444773281	 0.089129
H	 0.0937580534	-2.3613278519	 1.6414016292	 0.122293
79.8931	92.2252	130.8494	228.5976	289.9679	341.5343	370.0412	445.9607	469.6055	685.3836	724.0758	763.8425	800.3851	849.7575	851.9681	930.7321	963.1271	970.2936	984.3041	996.6739	1015.3369	1034.6903	1107.5203	1123.6072	1143.9167	1157.8704	1167.7731	1174.067	1190.1631	1210.3575	1226.601	1240.7503	1270.5991	1285.0433	1328.5551	1355.4973	1426.4504	1480.8402	1485.5358	1491.5275	1499.8153	1515.0514	1520.7864	2934.002	2962.3993	2970.2219	3012.9078	3025.8818	3037.2319	3096.6276	3115.5982	3123.2348	3200.1366	3214.2576
COCC12CC3C1N3C2	COC[C@]12C[C@@H]3[C@H]1N3C2	
InChI=1S/C7H11NO/c1-9-4-7-2-5-6(7)8(5)3-7/h5-6H,2-4H2,1H3	InChI=1S/C7H11NO/c1-9-4-7-2-5-6(7)8(5)3-7/h5-6H,2-4H2,1H3/t5-,6-,7-,8?/m1/s1
