16
gdb 124187	4.90249	0.83187	0.71749	3.7049	77.62	-0.2541	0.0161	0.2702	1530.3624	0.125491	-396.93731	-396.928516	-396.927572	-396.9731	30.043	
C	 0.2514414538	 1.2705236256	-0.8402726108	-0.499166
C	 0.0897514356	-0.0645559441	-0.2808519259	 0.092226
C	-0.0209136544	-1.1662016914	 0.1925630589	 0.037277
C	-0.1736772487	-2.5039346542	 0.7578988994	-0.485077
C	-1.4774831725	-3.1582471931	 0.3964873697	 0.408469
N	-1.8800273677	-4.3617285385	 0.767976475	-0.327848
C	-3.1049583505	-4.4636321438	 0.181000504	 0.02225
N	-3.4853495811	-3.410865178	-0.5243664169	-0.218963
N	-2.4229381262	-2.5842237845	-0.371403789	-0.228501
H	 1.2119087473	 1.7049264821	-0.5429423425	 0.15744
H	 0.2213158988	 1.2512149411	-1.9349678566	 0.153127
H	-0.5385663057	 1.9463588837	-0.4956371154	 0.153095
H	 0.6444409131	-3.1553806654	 0.4255815299	 0.165113
H	-0.0958577935	-2.4681034535	 1.8518759509	 0.165121
H	-3.7324800167	-5.3372127131	 0.276541258	 0.125161
H	-2.4028816717	-1.672982273	-0.8005196988	 0.280275
28.7539	36.7313	77.1186	198.747	241.8989	248.8288	347.3825	378.7328	465.6702	594.1618	697.3792	707.5288	727.2439	782.266	911.4332	948.9732	983.6277	1049.0931	1052.5076	1055.1903	1124.8378	1164.6178	1208.6765	1214.0242	1277.6345	1307.8573	1312.4704	1415.5695	1427.1447	1457.966	1477.6014	1478.5358	1506.146	1581.088	2375.0978	3028.3331	3031.3018	3053.7961	3093.3326	3094.6761	3260.2284	3660.0425
CC#CCC1=NC=NN1	CC#CCc1ncn[nH]1	
InChI=1S/C6H7N3/c1-2-3-4-6-7-5-8-9-6/h5H,4H2,1H3,(H,7,8,9)	InChI=1S/C6H7N3/c1-2-3-4-6-7-5-8-9-6/h5H,4H2,1H3,(H,7,8,9)
