15
gdb 44407	3.77203	1.51951	1.49827	3.1859	70.57	-0.2302	-0.0277	0.2025	902.947	0.114161	-416.680634	-416.674215	-416.673271	-416.71119	26.555	
O	-0.1863982176	 0.0392712062	-0.3047112198	-0.314766
C	-0.0940911118	 1.2061783413	-0.0972026626	 0.333206
N	-1.074801151	 2.2559069221	-0.0629255489	-0.36305
C	-0.1973331025	 3.0709162442	 0.7977100978	 0.051559
C	 0.8807276972	 4.2539873582	 0.6994359865	-0.127143
N	 1.8429669939	 3.1206493188	 1.1643311816	-0.38066
C	 0.9787332271	 2.3389350524	 0.176709769	 0.078688
C	 1.2005271328	 3.0926373155	-1.1587740708	-0.111397
C	 1.1433209187	 4.3728552294	-0.7906383884	-0.069678
H	-2.0532939411	 2.0667676715	 0.1188366213	 0.252588
H	-0.3426579527	 2.8356107405	 1.8538157735	 0.116459
H	 0.8369228252	 5.1358929843	 1.3382814212	 0.08329
H	 2.7763951969	 3.2797255087	 0.7795688309	 0.215031
H	 1.3354403765	 2.6270069024	-2.1237440797	 0.119441
H	 1.2079558383	 5.2831520745	-1.3684003116	 0.116431
137.1816	270.4097	304.0873	432.9467	519.8588	544.0965	587.9091	629.4556	669.4503	700.8102	733.6984	752.1	808.1302	828.0544	874.0903	902.5014	925.0713	968.805	997.3507	1005.9857	1017.9002	1094.0254	1118.9068	1123.0565	1197.9066	1199.8535	1235.5117	1283.4952	1296.7618	1320.0744	1406.9655	1615.8213	1906.6071	3084.785	3124.868	3230.8686	3258.7799	3435.91	3566.875
O=C1NC2C3NC12C=C3	O=C1N[C@@H]2[C@H]3N[C@@]12C=C3	
InChI=1S/C6H6N2O/c9-5-6-2-1-3(8-6)4(6)7-5/h1-4,8H,(H,7,9)	InChI=1S/C6H6N2O/c9-5-6-2-1-3(8-6)4(6)7-5/h1-4,8H,(H,7,9)/t3-,4+,6+/m0/s1
