18
gdb 35981	2.45605	1.47432	1.21603	5.3751	72.21	-0.2672	0.0355	0.3027	1086.3112	0.14926	-439.083101	-439.074929	-439.073984	-439.116195	30.344	
N	-0.1664770953	-1.130252488	-0.414397237	-0.321092
C	-0.1064241631	 0.0075955597	-0.2240971469	 0.289708
C	-0.0265689036	 1.4568835111	-0.0207778459	-0.175554
C	-0.8150623387	 1.867829175	 1.2500510266	-0.096166
O	-0.4395145112	 1.1228594499	 2.3785188026	-0.236023
C	 0.7152723881	 1.5174526891	 3.1048393867	-0.056698
C	 1.8169555567	 2.2187671988	 2.3078131365	-0.111899
O	 2.1777180599	 1.5418858988	 1.1186227313	-0.226391
C	 1.4425808666	 1.9405323541	-0.0121928883	-0.091153
H	-0.5127809041	 1.9364264648	-0.8821485109	 0.125129
H	-0.7141887477	 2.9532036066	 1.398563831	 0.099561
H	-1.876106265	 1.6545296364	 1.0907419598	 0.130932
H	 0.4338097182	 2.1826346365	 3.9378692306	 0.095091
H	 1.1091976882	 0.5912268993	 3.5344962404	 0.12952
H	 1.5380734916	 3.2583967272	 2.0781428305	 0.09585
H	 2.7089761048	 2.2591206388	 2.9436686141	 0.119248
H	 1.9675641635	 1.5351168838	-0.8810750497	 0.132847
H	 1.433711451	 3.0395526281	-0.0985292312	 0.09709
66.9796	133.2096	158.7398	237.9304	297.0515	324.4219	365.3709	405.5715	483.3904	577.6781	621.8177	724.1217	771.048	850.477	856.6516	910.9992	950.9381	969.9101	1029.2638	1067.7678	1112.4588	1121.5086	1177.1813	1206.0284	1259.4003	1272.4963	1288.4954	1301.4235	1330.5886	1364.3836	1382.82	1412.2199	1424.6317	1427.0437	1483.9914	1490.0151	1498.9875	1509.9446	2362.4031	2970.4945	2973.6082	2987.7311	3002.9029	3022.9729	3061.4084	3083.6933	3086.9657	3098.3007
N#CC1COCCOC1	N#CC1COCCOC1	
InChI=1S/C6H9NO2/c7-3-6-4-8-1-2-9-5-6/h6H,1-2,4-5H2	InChI=1S/C6H9NO2/c7-3-6-4-8-1-2-9-5-6/h6H,1-2,4-5H2
