16
gdb 52272	3.99013	0.81945	0.71499	3.3455	67.48	-0.2606	-0.0313	0.2293	1502.8709	0.121893	-475.004148	-474.995161	-474.994217	-475.039729	30.542	
N	-0.2291154905	 1.1388186427	-0.335074101	-0.541984
C	-0.1078397769	-0.0767679771	-0.0571291254	 0.42447
O	 0.9645275787	-0.803590452	 0.4124216182	-0.248986
C	 0.1505353022	-2.0133819348	 0.5462130803	-0.115175
C	-1.0551503143	-1.2759084228	-0.0619001612	 0.001992
O	-2.1644461112	-1.2161938539	 0.786678462	-0.259581
C	-3.2071934359	-0.387972014	 0.300834864	-0.165585
C	-4.3111883148	-0.3757602258	 1.3416999797	 0.141881
O	-5.389322727	 0.1219851426	 1.1591874333	-0.234423
H	 0.6335523551	 1.6585900058	-0.1626973989	 0.235505
H	 0.5731588723	-2.839492249	-0.0279264797	 0.129197
H	 0.0145059832	-2.2848037041	 1.5948286214	 0.138036
H	-1.335046728	-1.604898115	-1.0726046207	 0.104563
H	-2.8555069045	 0.6403095605	 0.1337188929	 0.167431
H	-3.6112511975	-0.7615862527	-0.6531463001	 0.12659
H	-4.0286918609	-0.8651996805	 2.2999094252	 0.09607
48.0417	58.0157	93.6609	116.8205	172.1252	240.0234	345.9626	366.8139	455.5864	557.3239	691.5195	741.0185	742.5761	850.2353	875.0775	947.4569	964.0284	1013.9705	1040.8175	1059.9494	1113.4603	1122.8616	1156.8209	1199.1468	1232.3417	1243.1809	1257.5032	1331.2937	1356.7472	1396.0213	1422.5432	1483.0504	1506.4885	1824.4274	1846.8998	2897.6965	2989.8301	3010.9643	3038.067	3077.591	3144.5426	3472.5213
N=C1OCC1OCC=O	[NH][C]1OC[C@H]1OCC=O	
InChI=1S/C5H7NO3/c6-5-4(3-9-5)8-2-1-7/h1,4,6H,2-3H2	InChI=1S/C5H7NO3/c6-5-4(3-9-5)8-2-1-7/h1,4,6H,2-3H2/t4-/m1/s1
