19
gdb 121521	5.40442	0.49322	0.45713	4.2872	85.83	-0.2569	-0.0476	0.2092	2388.0966	0.154815	-423.006686	-422.995604	-422.99466	-423.045415	36.645	
C	-0.0115264083	 1.4995126435	 0.0123400309	-0.387245
C	 0.0049403368	-0.0179171541	-0.0357873833	-0.021325
O	 0.6846013896	-0.4182471054	-1.2133104779	-0.236227
C	 0.751807499	-1.819009132	-1.3468523219	-0.20791
C	 1.4558197985	-2.1818130829	-2.5676214296	-0.021586
C	 2.0367893803	-2.5034512384	-3.5753359491	 0.133665
C	 2.7354172929	-2.8899186156	-4.7872181519	 0.246011
C	 2.8576889837	-4.3832117924	-5.016226457	-0.478352
O	 3.1843896285	-2.0649132778	-5.5535095417	-0.272885
H	 1.0085095824	 1.8928756662	 0.0251003258	 0.133172
H	-0.5245777078	 1.9044013078	-0.864138715	 0.133185
H	-0.5303697168	 1.8450328619	 0.9113277155	 0.117349
H	 0.5118432666	-0.4312644689	 0.8527262047	 0.089314
H	-1.0225967943	-0.4197012764	-0.036915237	 0.089324
H	 1.2693712809	-2.2734241283	-0.4829029969	 0.123957
H	-0.2599857833	-2.2624015315	-1.3682007923	 0.123951
H	 1.863020921	-4.8396814032	-5.0625392849	 0.145842
H	 3.396651787	-4.5657626916	-5.9469734963	 0.143981
H	 3.3858608435	-4.8508712808	-4.1782813922	 0.145777
23.8793	55.4269	61.2801	110.939	117.0314	145.7028	155.117	244.7595	258.8807	353.3247	377.305	454.9527	495.815	600.8461	622.3161	699.2038	823.6972	905.9339	959.3766	1014.4237	1025.907	1042.5989	1061.1422	1136.4398	1158.7724	1187.7097	1245.4972	1251.6868	1297.0187	1374.7919	1380.109	1406.4701	1445.884	1460.9342	1468.6304	1483.3439	1486.6751	1499.8597	1529.9275	1770.6628	2333.4959	2940.4354	2956.7579	2957.0621	2980.8906	3039.1176	3048.1391	3103.389	3122.7576	3127.322	3152.2345
CCOCC#CC(C)=O	CCOCC#CC(=O)C	
InChI=1S/C7H10O2/c1-3-9-6-4-5-7(2)8/h3,6H2,1-2H3	InChI=1S/C7H10O2/c1-3-9-6-4-5-7(2)8/h3,6H2,1-2H3
