16
gdb 128648	3.58622	1.21066	0.91561	2.9202	69.85	-0.1991	0.0379	0.237	1241.6721	0.123632	-471.207345	-471.198179	-471.197235	-471.243533	31.242	
C	 0.0191323475	 1.3400015198	 0.055201185	-0.240338
O	 0.001646107	-0.0894109168	-0.0692575654	-0.245976
C	 0.6403249057	-0.5604490397	-1.1215393972	 0.508784
N	 1.2689556947	 0.0778416499	-2.0400296247	-0.371083
N	 1.7278694857	-0.95061672	-2.8695310404	-0.062943
C	 2.4995016631	-0.6725041467	-4.0509757265	-0.325016
C	 1.3526341894	-2.1817173413	-2.4117848929	 0.457618
N	 1.5940689346	-3.318134666	-2.9116017742	-0.612393
O	 0.6255519714	-1.9073581223	-1.2416646319	-0.23297
H	 1.0477331203	 1.7009553761	 0.1404855182	 0.14952
H	-0.4526206001	 1.8025945854	-0.8160245224	 0.149526
H	-0.5433433352	 1.561724223	 0.9610545062	 0.146532
H	 1.9303378808	-0.0541077281	-4.7531715564	 0.135925
H	 3.4309948131	-0.1555865268	-3.7969127413	 0.135931
H	 2.7303185755	-1.6321913235	-4.515055866	 0.175427
H	 1.1901315764	-4.0659470329	-2.3573466601	 0.231456
10.2022	93.3211	110.6918	157.0945	194.6683	212.7207	296.853	337.1877	396.4571	565.8167	663.0764	670.7202	692.6068	696.0016	733.3906	838.5585	968.9921	1019.177	1039.9338	1081.6196	1160.0668	1176.4434	1182.0508	1224.671	1277.7395	1418.6835	1429.4254	1449.0993	1478.8714	1481.1594	1488.3433	1500.7866	1518.6869	1708.7396	1814.1732	3031.646	3048.5733	3087.5808	3123.1812	3155.8718	3169.0129	3564.2726
COC1=NN(C)C(=N)O1	COC1=NN(C)[C@@H]([NH])O1	
InChI=1S/C4H7N3O2/c1-7-3(5)9-4(6-7)8-2/h5H,1-2H3	InChI=1S/C4H8N3O2/c1-7-3(5)9-4(6-7)8-2/h3,5H,1-2H3/t3-/m1/s1
