17
gdb 54159	2.17697	1.46606	1.12813	1.5222	75.59	-0.2487	-0.0294	0.2193	1147.4827	0.130926	-421.794113	-421.784273	-421.783328	-421.828895	35.419	
C	 0.3994430311	 0.86763861	-0.8095316397	-0.488193
C	-0.0660598242	 0.1016411801	 0.4061318115	 0.323554
O	 0.4720807721	 0.1832123169	 1.4869269291	-0.299094
C	-1.3045431194	-0.7736767595	 0.2654873023	 0.275565
C	-2.1900168177	-0.8229418182	 1.4890297512	-0.463056
O	-1.9639673825	-0.7320396294	-1.0042992547	-0.269385
C	-1.2811728138	-1.9434831933	-0.6620278005	-0.207026
C	-0.1491334668	-2.3477441455	-1.4513466839	 0.332834
C	 0.7757765276	-2.7503504635	-2.1053926006	-0.403264
H	 1.2708462312	 1.4655426617	-0.5409032741	 0.137158
H	 0.6453741888	 0.1842251679	-1.6267027698	 0.159632
H	-0.4074210794	 1.5116301802	-1.1747072657	 0.150352
H	-2.6113591882	 0.1670146278	 1.6902231069	 0.135701
H	-3.0134073815	-1.5254943632	 1.3427398919	 0.126105
H	-1.6003853884	-1.1188567416	 2.3588078218	 0.155261
H	-1.9483734971	-2.7633703952	-0.3934831859	 0.124257
H	 1.5983121181	-3.0965297553	-2.6820136897	 0.209599
57.1895	129.4569	136.3192	139.1664	175.606	242.0687	264.2891	309.3173	347.9683	459.6399	490.6735	513.3974	565.094	629.9169	637.8535	659.5357	677.9754	803.4193	870.5093	941.9162	984.4792	1040.0754	1055.492	1067.2264	1112.2431	1144.613	1285.231	1335.4611	1386.0587	1403.9693	1416.4056	1456.562	1470.6678	1477.2031	1494.0066	1802.7275	2238.0668	3050.2901	3050.9405	3102.5386	3118.2664	3120.4389	3147.1081	3159.5152	3498.8181
CC(=O)C1(C)OC1C#C	CC(=O)[C@@]1(C)O[C@H]1C#C	
InChI=1S/C7H8O2/c1-4-6-7(3,9-6)5(2)8/h1,6H,2-3H3	InChI=1S/C7H8O2/c1-4-6-7(3,9-6)5(2)8/h1,6H,2-3H3/t6-,7+/m0/s1
