19
gdb 127471	2.36709	1.59493	0.96847	2.9608	81.23	-0.1853	0.0484	0.2337	1221.6516	0.159923	-415.412611	-415.402525	-415.401581	-415.447385	36.181	
C	-0.0530541	 1.393780684	-0.0629388071	-0.328104
N	-0.0234410623	-0.0445609667	 0.0100363091	 0.003345
N	 0.0620588722	-0.7892748828	-1.1326763433	-0.36922
C	 0.0639595871	-2.0461836657	-0.7068486336	 0.301091
N	 0.0431257061	-3.1112968044	-1.6127677351	-0.589866
C	 0.0240445098	-2.1456646456	 0.7078996133	 0.088543
C	 0.0204951234	-3.3843254273	 1.5457272105	-0.523115
C	-0.0233145257	-0.8225496084	 1.1217683904	 0.282148
N	-0.1389855931	-0.2481850528	 2.3980012397	-0.615213
H	 0.9531467967	 1.8260269978	-0.1413437431	 0.123067
H	-0.6242053232	 1.6856563679	-0.9461354597	 0.149075
H	-0.540044103	 1.7821406172	 0.8345135457	 0.145052
H	 0.2857289135	-2.7981123199	-2.5448943508	 0.245359
H	 0.6451308555	-3.8770050717	-1.3371554876	 0.238647
H	 0.8379901447	-4.0659163463	 1.2762847469	 0.116274
H	 0.1523926766	-3.148126371	 2.6078109812	 0.103932
H	-0.912168462	-3.9547445286	 1.4521398879	 0.132656
H	-0.3283071837	-0.9531158247	 3.0990748171	 0.248342
H	 0.6878436175	 0.2689989689	 2.6788536683	 0.247988
88.5463	106.1499	126.654	172.7576	191.3366	231.0516	245.4574	288.9227	289.6809	318.6501	380.1524	571.6641	580.4024	625.7228	637.3016	699.433	736.8809	791.7034	797.2948	885.2311	1004.4872	1053.2438	1061.8309	1143.922	1149.9343	1177.4798	1229.8631	1272.0859	1342.9288	1422.6488	1436.2625	1461.8429	1481.5359	1490.2302	1496.0584	1509.5121	1539.1429	1566.4809	1619.7019	1644.0456	1668.4818	3007.6149	3015.5193	3051.9689	3076.7441	3098.5568	3144.7234	3507.9258	3528.0862	3607.034	3623.1769
CN1N=C(N)C(C)=C1N	Cn1nc(N)c(C)c1N	
InChI=1S/C5H10N4/c1-3-4(6)8-9(2)5(3)7/h7H2,1-2H3,(H2,6,8)	InChI=1S/C5H10N4/c1-3-4(6)8-9(2)5(3)7/h7H2,1-2H3,(H2,6,8)
