17
gdb 127667	3.18556	1.35987	1.02866	2.5646	75.6	-0.2375	0.0031	0.2406	1149.3542	0.138963	-414.188659	-414.180556	-414.179612	-414.222526	28.79	
C	 0.1800604928	 1.4453399214	-0.1094343449	-0.332886
N	 0.0466630389	 0.0069715394	 0.0067556709	-0.035203
N	 0.0311844982	-0.7652715044	-1.1146346015	-0.254598
C	-0.1447010268	-1.9774796144	-0.6193802917	 0.02531
N	-0.2454892164	-2.0407276741	 0.7328314001	-0.344005
C	-0.1278962175	-0.7704949243	 1.0995070028	 0.408547
C	-0.1692169435	-0.2979756594	 2.4942062367	-0.135754
C	-1.198968162	-0.8788189322	 3.4087563332	-0.224488
N	 0.2086030356	-1.2505972926	 3.5517908325	-0.308115
H	 0.7741476769	 1.8360015941	 0.7191676765	 0.149812
H	 0.6893869699	 1.6555917402	-1.0495196303	 0.168058
H	-0.798258102	 1.9363367481	-0.1140522046	 0.148569
H	-0.1942558802	-2.8474513348	-1.2571820776	 0.127034
H	 0.1654376552	 0.7211379057	 2.6638415017	 0.095057
H	-1.6017729546	-0.2669805008	 4.2111574717	 0.122946
H	-1.8848178038	-1.5987937667	 2.9724346341	 0.135602
H	 0.356878259	-2.1557350551	 3.1061762002	 0.254112
51.9847	62.8037	171.0896	186.1912	216.481	302.0415	422.8511	488.9216	643.7407	677.3795	757.7396	761.5468	837.2684	892.3094	908.272	978.7295	993.4273	1011.9092	1029.7793	1114.3882	1130.6232	1148.9357	1165.4083	1190.667	1227.9934	1280.9295	1304.1877	1313.0232	1320.8234	1391.4234	1421.9287	1458.2094	1487.6734	1497.9454	1501.0605	1539.3229	1561.3578	3049.1275	3112.9637	3121.4052	3150.9568	3164.4736	3208.4134	3259.1597	3480.8819
CN1N=CN=C1C1CN1	Cn1ncnc1[C@H]1CN1	
InChI=1S/C5H8N4/c1-9-5(4-2-6-4)7-3-8-9/h3-4,6H,2H2,1H3	InChI=1S/C5H8N4/c1-9-5(4-2-6-4)7-3-8-9/h3-4,6H,2H2,1H3/t4-/m1/s1
