17
gdb 98481	2.54983	1.26878	1.01467	2.6881	65.37	-0.2653	-0.0051	0.2602	1217.0328	0.133414	-496.096234	-496.086601	-496.085657	-496.131633	33.371	
C	-0.4322203815	 1.5214686911	-0.4573758082	-0.242613
O	-0.4970307505	 0.094686444	-0.5929291597	-0.228501
C	-0.9577292133	-0.5582547071	 0.4832700135	 0.415709
O	-1.307334684	-0.0285213365	 1.5079861531	-0.367892
C	-1.0373166207	-2.050591913	 0.2569273836	 0.226777
C	-0.9803725575	-2.9001387632	 1.5090853111	-0.127087
O	 0.3369674215	-2.9407383805	 2.0224708255	-0.416855
C	-1.6852269105	-2.5426081642	-0.9765897514	-0.202674
O	-0.2717584604	-2.5802463726	-0.8337468032	-0.261506
H	-0.0315297144	 1.8892253811	-1.4015572804	 0.137842
H	-1.4263114664	 1.9365737571	-0.2728023736	 0.141647
H	 0.2233791446	 1.7965975569	 0.3721345725	 0.148021
H	-1.608066881	-2.4566764167	 2.2846538408	 0.138819
H	-1.3585225677	-3.9067345653	 1.27751798	 0.089165
H	 0.8980390105	-3.2852102968	 1.3177382927	 0.293903
H	-2.1918287343	-3.5063566398	-0.9535295438	 0.124044
H	-2.0582131545	-1.8243517345	-1.7035137723	 0.131202
47.691	79.574	118.9898	138.3319	185.7394	206.9241	304.0353	321.0319	330.228	431.2041	482.774	490.9687	608.3851	764.6893	793.2478	862.2537	919.1284	963.9655	982.0522	1021.2035	1077.0073	1129.8652	1158.4753	1179.794	1186.6975	1210.9854	1230.9786	1335.0455	1355.0039	1407.6524	1429.2556	1475.1308	1482.6603	1486.2025	1497.1782	1515.5231	1815.8478	2997.6231	3054.3668	3090.2678	3119.7148	3130.1056	3164.2656	3185.1737	3794.6502
COC(=O)C1(CO)CO1	COC(=O)[C@@]1(CO)CO1	
InChI=1S/C5H8O4/c1-8-4(7)5(2-6)3-9-5/h6H,2-3H2,1H3	InChI=1S/C5H8O4/c1-8-4(7)5(2-6)3-9-5/h6H,2-3H2,1H3/t5-/m1/s1
