23
gdb 100054	3.03509	1.04494	0.94296	2.2186	81.26	-0.2543	0.0561	0.3104	1366.125	0.204583	-425.417203	-425.407113	-425.406169	-425.451778	38.597	
C	 0.2304138905	 1.4862927449	 0.1577368996	-0.439253
C	-0.0783827364	-0.0038228757	-0.0143229264	 0.270908
O	 0.3465967476	-0.7294570028	 1.1575907979	-0.473414
C	-1.5983346328	-0.2468616538	-0.0527125499	-0.057092
O	-2.2229123262	 0.1538717602	 1.1496352429	-0.430147
C	 0.5879764865	-0.5722514943	-1.2717617609	 0.050855
C	 2.1421172298	-0.6185629465	-1.3549707235	-0.244124
C	 2.0240915626	-1.9981841847	-2.0559143375	-0.217868
C	 0.5746699418	-2.1090503358	-1.5135082647	-0.236392
H	 1.3042823351	 1.6488736119	 0.3079562993	 0.106251
H	-0.0659290985	 2.0512471899	-0.7316083442	 0.118942
H	-0.315504601	 1.8849177988	 1.0158520274	 0.133306
H	 1.1666106131	-0.3397245075	 1.4745501135	 0.284331
H	-2.0486611354	 0.3355443097	-0.8630911949	 0.102125
H	-1.7815400028	-1.3124346444	-0.2593872893	 0.092729
H	-1.6915552133	-0.2478772442	 1.8490279017	 0.284785
H	 0.1858794644	-0.0462434809	-2.1458682539	 0.066463
H	 2.6526917337	 0.187853427	-1.8869136465	 0.095711
H	 2.5905712939	-0.7194994381	-0.3609649024	 0.084885
H	 2.0444104227	-1.8991745484	-3.1450734513	 0.101348
H	 2.7353640346	-2.7749347357	-1.7657834043	 0.09655
H	 0.5403282912	-2.6432642156	-0.5605859021	 0.115747
H	-0.1895386109	-2.516219154	-2.1796625105	 0.093354
85.2023	112.2833	142.0634	166.4142	242.5818	255.5807	274.1179	298.239	340.0525	377.359	380.9471	484.9716	500.6999	571.3208	679.1913	748.676	781.9179	837.4629	894.745	922.78	937.4336	941.9393	953.5723	966.9559	1020.5892	1034.9441	1075.865	1118.603	1119.1098	1164.9377	1195.6731	1206.5946	1246.831	1258.3253	1259.8811	1261.3466	1282.1934	1288.7999	1360.1708	1366.4177	1385.8341	1406.8065	1439.879	1473.3323	1485.1621	1486.7979	1500.0506	1502.8017	1508.4598	2988.0443	3030.0986	3034.5792	3045.1714	3056.1235	3063.2105	3077.5666	3095.794	3097.6244	3107.3634	3123.2462	3129.8358	3774.7598	3832.2848
CC(O)(CO)C1CCC1	C[C@@](O)(CO)C1CCC1	
InChI=1S/C7H14O2/c1-7(9,5-8)6-3-2-4-6/h6,8-9H,2-5H2,1H3	InChI=1S/C7H14O2/c1-7(9,5-8)6-3-2-4-6/h6,8-9H,2-5H2,1H3/t7-/m1/s1
