19
gdb 28412	3.01779	1.31026	0.92082	2.1043	89.71	-0.1699	0.0145	0.1844	1264.287	0.161139	-382.143422	-382.134554	-382.13361	-382.176201	34.837	
C	 0.0006319917	 1.5201608214	-0.0055566787	-0.514017
C	 0.0241217491	 0.0132184829	-0.0014576195	 0.301
C	 0.0085326555	-0.703257282	-1.1960568891	-0.271146
C	 0.0461094148	-2.1011210805	-1.2306816019	 0.295021
N	 0.1014236254	-2.7924778988	-2.456147947	-0.59548
C	 0.0966677443	-2.7831881558	-0.0126654636	-0.190067
C	 0.1033426569	-2.0831767764	 1.1879818321	-0.157466
C	 0.0693540385	-0.6875022398	 1.2182292493	 0.177141
N	 0.1495441014	 0.0130391289	 2.4397899954	-0.592341
H	 0.8419766889	 1.9328328721	 0.5639226423	 0.136701
H	 0.0526662166	 1.9140216896	-1.0235274485	 0.121162
H	-0.9166865588	 1.9199403427	 0.4502286514	 0.116308
H	-0.0247264748	-0.1531647872	-2.1335937186	 0.069889
H	-0.3381185058	-2.2939202609	-3.2181404435	 0.238327
H	-0.2693338572	-3.7316663813	-2.4026434811	 0.238394
H	 0.1284914934	-3.868896676	-0.0025532781	 0.076423
H	 0.1363992215	-2.6333454247	 2.1248117399	 0.074683
H	-0.0892162668	-0.5614755188	 3.2371050882	 0.236599
H	-0.3982760345	 0.8631045748	 2.458992401	 0.238869
140.2401	170.0027	202.2883	231.2225	269.4581	293.4266	321.8204	360.6074	445.9352	453.8719	494.986	567.1066	583.0781	664.4769	715.1042	736.9788	751.6055	798.5751	828.3535	871.0948	906.5328	961.0274	1013.8839	1057.1035	1082.7519	1128.6665	1172.4624	1189.1319	1276.7496	1323.2925	1334.9739	1359.7728	1411.2682	1474.2889	1482.3049	1508.5856	1544.6886	1628.8912	1649.9572	1654.7067	1673.3548	3002.8575	3057.9749	3113.8702	3149.1549	3151.5607	3171.7169	3538.6497	3543.466	3631.3212	3636.7922
CC1=CC(N)=CC=C1N	Cc1cc(N)ccc1N	
InChI=1S/C7H10N2/c1-5-4-6(8)2-3-7(5)9/h2-4H,8-9H2,1H3	InChI=1S/C7H10N2/c1-5-4-6(8)2-3-7(5)9/h2-4H,8-9H2,1H3
