19
gdb 68982	3.27064	1.09239	0.95444	4.9679	80.69	-0.2356	0.0281	0.2637	1280.0894	0.159126	-382.050693	-382.041793	-382.040849	-382.084633	33.238	
C	-0.1383138834	 1.4983232254	 0.1687221582	-0.50606
C	 0.133764638	 0.03304855	 0.0273354324	 0.270648
C	 0.5912613648	-0.707609585	-1.2401525839	-0.253241
C	 1.3545089701	-1.7321586368	-0.3303404423	-0.262447
C	 0.8592887633	-0.9483028985	 0.8908416702	 0.306524
C	 1.5755737129	-0.7657537113	 2.2040548081	-0.473528
C	 1.5194470796	-1.9564763989	 3.0590121224	 0.271123
N	 1.4753789533	-2.8980629023	 3.7268571519	-0.302066
N	-0.6231602453	-0.9830016262	 0.8093723693	-0.393756
H	 0.6583086374	 2.0945931506	-0.288730812	 0.127638
H	-1.0803251777	 1.7690979626	-0.3224672586	 0.13736
H	-0.219022067	 1.7924680829	 1.2213462549	 0.115719
H	-0.2162389303	-1.1095901781	-1.8560531275	 0.111891
H	 1.26775709	-0.1146803355	-1.8603275308	 0.101673
H	 1.0258395783	-2.7722284387	-0.3770172533	 0.120483
H	 2.4381529978	-1.6820608428	-0.4622853419	 0.102356
H	 2.6304961708	-0.5223578463	 2.0276654349	 0.156148
H	 1.146507208	 0.0777991064	 2.7587316833	 0.147848
H	-0.9845893104	-0.5111444774	 1.6400873747	 0.221688
51.644	102.5544	190.0596	200.1407	214.5661	316.0852	333.8264	389.4616	425.7774	477.8499	510.4439	609.8098	690.1713	767.5942	783.3706	876.4019	891.029	926.8964	939.9919	942.5694	995.3224	1056.7532	1068.1807	1097.4963	1130.8636	1161.5989	1209.3319	1229.1108	1235.2892	1243.2405	1318.7986	1339.8052	1361.3524	1411.5264	1449.0439	1452.8314	1466.7693	1480.8861	1496.0243	1506.7575	2363.5321	3022.8009	3030.2642	3062.8355	3068.2889	3070.8597	3085.15	3094.6892	3116.1075	3132.6261	3449.9487
CC12CCC1(CC#N)N2	C[C@@]12CC[C@]1(CC#N)N2	
InChI=1S/C7H10N2/c1-6-2-3-7(6,9-6)4-5-8/h9H,2-4H2,1H3	InChI=1S/C7H10N2/c1-6-2-3-7(6,9-6)4-5-8/h9H,2-4H2,1H3/t6-,7-/m1/s1
