21
gdb 31638	3.35872	1.01445	0.83167	1.7089	88.4	-0.1785	0.0558	0.2343	1461.6701	0.182927	-383.309074	-383.298997	-383.298053	-383.344486	36.644	
C	-0.2611459075	 1.5436254931	 0.054456642	-0.359183
C	 0.1372420062	 0.0616907297	-0.0544567507	-0.29314
C	 0.8065429872	-0.4714892604	 1.1795202012	 0.292733
C	 2.1280317787	-0.8328279479	 1.3013126334	-0.215923
N	 2.3570959234	-1.2674797513	 2.5899153547	-0.009376
C	 3.616540432	-1.7513981108	 3.109963033	-0.342761
C	 1.1856365131	-1.1616213722	 3.3059073383	 0.278196
N	 1.1453532564	-1.6044922872	 4.6467363668	-0.608261
C	 0.2104987778	-0.6758971898	 2.4614981788	-0.340606
H	 0.6191838348	 2.17053919	 0.2286475769	 0.113297
H	-0.7528833582	 1.8900579821	-0.8609427849	 0.101924
H	-0.9506631748	 1.7053251885	 0.889293107	 0.113915
H	-0.7603541731	-0.5305435704	-0.2774300791	 0.096815
H	 0.8074515234	-0.0694291491	-0.9124007339	 0.092007
H	 2.9285791266	-0.8192962623	 0.5778073758	 0.103748
H	 4.2613925561	-0.9347957796	 3.459272593	 0.124258
H	 3.4156636131	-2.4206364468	 3.9488039596	 0.155246
H	 4.1492839304	-2.3021859063	 2.3304747445	 0.133628
H	 1.4993814976	-0.9090868228	 5.2981785498	 0.241187
H	 0.1926843199	-1.8161105607	 4.9169547142	 0.245803
H	-0.8182869127	-0.489575556	 2.7342746097	 0.076493
44.0484	102.5321	118.4542	169.8367	187.9046	195.0438	254.0146	289.7469	313.7095	393.9124	489.727	576.9436	625.1933	654.9571	681.053	694.0585	764.2719	787.6435	806.9648	832.3266	948.9509	1013.1669	1062.8616	1074.5053	1087.2014	1141.9758	1152.3013	1178.6237	1211.9895	1250.1712	1293.5011	1346.4529	1387.4623	1397.0468	1407.105	1443.474	1480.0269	1485.6247	1494.8249	1499.409	1507.171	1520.1639	1553.3228	1617.3868	1655.3151	3012.7685	3018.42	3030.4468	3051.4401	3091.5192	3099.4409	3106.2236	3139.0788	3230.1641	3248.1735	3483.3214	3592.0802
CCC1=CN(C)C(N)=C1	CCc1cn(C)c(N)c1	
InChI=1S/C7H12N2/c1-3-6-4-7(8)9(2)5-6/h4-5H,3,8H2,1-2H3	InChI=1S/C7H12N2/c1-3-6-4-7(8)9(2)5-6/h4-5H,3,8H2,1-2H3
