18
gdb 105774	2.35877	1.39278	1.12279	2.7091	71.66	-0.2751	0.0242	0.2993	1139.295	0.148553	-439.097839	-439.089091	-439.088147	-439.131688	32.03	
O	 0.1266226242	 1.2678205179	 0.2791967712	-0.416581
C	-0.0695688307	-0.1227752962	 0.188318195	-0.106307
C	-1.5460727826	-0.5096848913	-0.0956323296	 0.120861
C	-1.7178829154	-2.061761009	-0.0976330363	-0.304097
C	-2.5277765191	-2.3315813711	 1.1916097473	-0.075059
O	-2.3778364036	-1.168295381	 1.9932206642	-0.241371
C	-2.443334395	-0.0767560592	 1.1014794609	-0.125577
C	-1.9578042902	 0.1217710745	-1.3467281663	 0.228686
N	-2.2438661907	 0.6598415722	-2.3300236799	-0.348918
H	-0.0209060716	 1.6523155809	-0.5929852686	 0.300029
H	 0.5767208788	-0.5836869222	-0.572631957	 0.106513
H	 0.1953327668	-0.541753833	 1.1638647543	 0.132742
H	-2.2325530312	-2.4182896189	-0.9909461342	 0.131939
H	-0.7358135724	-2.5420526789	-0.0661849336	 0.122879
H	-3.5891859173	-2.4962238797	 0.9512127405	 0.104214
H	-2.1650536872	-3.1861618545	 1.7664750627	 0.120633
H	-2.057831251	 0.8156657376	 1.5965441961	 0.143304
H	-3.4746840118	 0.1066995519	 0.7644636933	 0.10611
58.5249	116.4008	159.8145	177.783	237.4232	272.0462	357.8882	394.05	438.876	503.5638	559.3807	622.3839	686.3954	777.4507	829.6644	918.5515	935.8493	967.2508	972.8808	1025.9149	1085.9967	1097.5773	1129.8469	1133.3336	1162.4273	1232.2068	1234.655	1276.7729	1297.0488	1315.541	1356.7993	1383.8045	1399.533	1418.4764	1493.086	1499.8209	1508.0768	1524.007	2345.9289	2989.3039	2995.0652	3001.1855	3065.9962	3092.6863	3106.9101	3126.5465	3128.2846	3794.1134
OCC1(CCOC1)C#N	OC[C@]1(CCOC1)C#N	
InChI=1S/C6H9NO2/c7-3-6(4-8)1-2-9-5-6/h8H,1-2,4-5H2	InChI=1S/C6H9NO2/c7-3-6(4-8)1-2-9-5-6/h8H,1-2,4-5H2/t6-/m0/s1
