19
gdb 94415	2.3882	1.4954	1.40253	2.7194	76.46	-0.2069	0.0265	0.2333	1060.3781	0.159463	-419.202605	-419.193771	-419.192826	-419.236185	32.509	
C	-0.0848840595	 1.4889108051	-0.1334692893	-0.341408
N	-0.0674995989	 0.0524303765	 0.068802689	-0.102179
C	-1.3073042461	-0.6481257608	 0.4611778539	-0.162661
C	-0.4509629015	-1.5900792387	 1.3419243842	-0.307997
C	 0.6643319449	-0.5303343256	 1.1903808653	 0.200066
C	 2.1898250487	-0.8376136321	 1.1041506983	-0.232621
N	 2.3537551367	-0.0241326189	 2.3134141589	-0.33494
C	 1.0306772116	 0.3177463374	 2.4526019441	 0.371111
O	 0.4336897666	 0.9994870556	 3.2452899854	-0.37287
H	 0.9281186329	 1.8431192435	-0.353931897	 0.119164
H	-0.7119897527	 1.7219590881	-1.0002025106	 0.120013
H	-0.4643401177	 2.0476726323	 0.7369761838	 0.125906
H	-1.987865298	-0.0273303322	 1.0620148735	 0.105665
H	-1.8655761217	-1.0862975373	-0.3731328521	 0.099088
H	-0.8050243006	-1.7740100532	 2.3562284665	 0.123265
H	-0.2041560479	-2.5354000172	 0.8550291558	 0.112708
H	 2.4625968434	-1.8913404095	 1.2246387794	 0.110787
H	 2.6742376501	-0.426549733	 0.2127967075	 0.115902
H	 3.1584850297	 0.17548699	 2.8880513335	 0.251001
89.9686	112.1833	136.1807	193.9229	218.4797	240.3269	330.8774	349.3005	460.2799	497.4535	589.4683	689.2746	747.2455	759.1693	794.4086	885.9397	907.5888	957.3656	976.9654	993.275	1106.0366	1115.6499	1136.5941	1153.5295	1166.988	1176.1044	1194.7814	1211.9595	1238.1632	1257.1329	1286.2786	1302.4151	1337.039	1383.5568	1449.5278	1478.0969	1485.4834	1505.0517	1520.7034	1524.3982	1876.4917	2979.273	2996.3292	3036.1392	3057.4634	3063.025	3082.4159	3087.1462	3097.1159	3144.6376	3617.0218
CN1CCC11CNC1=O	CN1CC[C@]21CNC2=O	
InChI=1S/C6H10N2O/c1-8-3-2-6(8)4-7-5(6)9/h2-4H2,1H3,(H,7,9)	InChI=1S/C6H10N2O/c1-8-3-2-6(8)4-7-5(6)9/h2-4H2,1H3,(H,7,9)/t6-/m0/s1
