12
gdb 50776	3.62461	0.64588	0.56478	3.3753	74.59	-0.2858	-0.1171	0.1688	1791.9456	0.073971	-435.472971	-435.463693	-435.462749	-435.509934	29.794	
O	-0.4003897965	 0.723305894	 1.0000442103	-0.210439
C	-0.0296525155	 1.1237318592	-0.0656900703	 0.168997
C	 1.358927169	 1.7532187671	-0.2773652426	-0.427618
C	 1.3452659246	 2.8387339265	-1.2364171324	 0.029754
C	 1.2885703522	 3.740432229	-2.0376673348	 0.097403
C	 1.2393854111	 4.8132968205	-2.9881421399	 0.197844
O	 1.9215839671	 5.8106783081	-2.9479894611	-0.244405
C	 0.2560953477	 4.6095605445	-4.0690149238	 0.225547
N	-0.5133235543	 4.4524367712	-4.9176418604	-0.312849
H	-0.6490950015	 1.0501274354	-0.9834573095	 0.114704
H	 1.7560751481	 2.0652841663	 0.6935439073	 0.178635
H	 2.0130229379	 0.9508157681	-0.6520288528	 0.182427
21.6525	48.8725	69.1377	128.2486	169.813	229.2777	291.5523	379.2468	424.9774	466.3797	552.5891	600.5848	693.1	747.9237	770.9428	979.9923	1016.3225	1036.2035	1201.3609	1220.758	1282.9722	1411.1127	1428.5508	1748.0606	1848.2218	2333.2362	2341.2933	2924.3814	3011.0622	3091.674
O=CCC#CC(=O)C#N	O=CCC#CC(=O)C#N	
InChI=1S/C6H3NO2/c7-5-6(9)3-1-2-4-8/h4H,2H2	InChI=1S/C6H3NO2/c7-5-6(9)3-1-2-4-8/h4H,2H2
