17
gdb 16644	3.28906	2.16557	1.49455	3.6987	67.44	-0.2451	-0.006	0.2392	864.6471	0.143309	-363.876611	-363.8694	-363.868455	-363.908115	27.4	
C	-0.4460507084	 1.5151438539	 0.0056712082	-0.398124
C	 0.0706360711	 0.0819048356	-0.0397980537	-0.072363
C	 0.9779657387	-0.3072218318	-1.2304936948	-0.269067
C	 1.9128199007	-1.3700065246	-0.6393314747	-0.021579
C	 3.0630627543	-0.9389353479	 0.1962027618	-0.245129
N	 1.7980727062	-1.3637757711	 0.8291492637	-0.118831
C	 0.9270310717	-0.2875312306	 1.1832788752	 0.365716
O	 0.8853785664	 0.2210514404	 2.2699655747	-0.318384
H	 0.3789554907	 2.2313240866	-0.0695442455	 0.119045
H	-1.1422607509	 1.7122329685	-0.8147464841	 0.113817
H	-0.9589516506	 1.6999162506	 0.9528902544	 0.14167
H	-0.7820369656	-0.6120147033	-0.0181848047	 0.11247
H	 0.4093281439	-0.7033709448	-2.0739976369	 0.115001
H	 1.5370122442	 0.561786237	-1.5954183593	 0.112777
H	 1.9359699692	-2.3535621079	-1.0990674706	 0.102824
H	 3.9033954425	-1.6042839619	 0.3711816462	 0.131091
H	 3.3085489057	 0.1203130014	 0.2271101601	 0.129065
75.4281	198.8756	209.1491	260.1622	356.0692	375.4023	499.13	546.	678.8227	691.4844	767.169	809.9209	869.0891	893.8401	912.9952	962.9525	995.4235	1040.2055	1088.3686	1114.2725	1126.1793	1143.8043	1152.4595	1166.1325	1197.0684	1285.1525	1291.0059	1309.7664	1351.2304	1383.0322	1413.4107	1492.6924	1496.1597	1496.5832	1513.6881	1851.2621	3008.5666	3040.4951	3046.4776	3105.8997	3106.3198	3109.0216	3125.8615	3152.7613	3195.6259
CC1CC2CN2C1=O	C[C@H]1C[C@H]2CN2C1=O	
InChI=1S/C6H9NO/c1-4-2-5-3-7(5)6(4)8/h4-5H,2-3H2,1H3	InChI=1S/C6H9NO/c1-4-2-5-3-7(5)6(4)8/h4-5H,2-3H2,1H3/t4-,5-,7?/m0/s1
