18
gdb 117114	2.51867	1.04054	0.79041	2.1797	74.73	-0.2488	0.0054	0.2542	1469.615	0.144454	-439.075457	-439.064749	-439.063805	-439.114377	36.622	
C	-0.2324809587	 1.4637902957	 0.2927830187	-0.391494
C	-0.0490092354	-0.014370636	 0.0121388854	-0.044346
O	-1.3492479821	-0.6399491076	 0.0996943952	-0.232234
C	-1.386011815	-1.9570288464	-0.126669066	 0.425674
O	-0.4333587206	-2.635293516	-0.4147600082	-0.362334
C	-2.8321862261	-2.5057766982	-0.0284411552	-0.24871
N	-2.9329364815	-3.9270903654	-0.3464083745	-0.496257
C	-3.3961126727	-2.223998908	 1.290060694	 0.351886
C	-3.8397985393	-2.0211517496	 2.387266852	-0.466145
H	 0.7343280027	 1.972983037	 0.2394626929	 0.12509
H	-0.903708205	 1.9203799897	-0.4398614224	 0.13186
H	-0.6521359455	 1.6218814701	 1.2899491179	 0.135393
H	 0.3619300237	-0.1981068512	-0.9853780433	 0.124514
H	 0.6178956615	-0.4918243287	 0.7364897881	 0.12653
H	-3.40969195	-1.9424213974	-0.7761693748	 0.138318
H	-2.3543100777	-4.1080932216	-1.1634542036	 0.239805
H	-2.5026278153	-4.4571988459	 0.4067140681	 0.239437
H	-4.242967373	-1.8335559406	 3.3516821457	 0.203011
4.603	52.1624	91.8886	133.2549	154.5538	181.4546	234.9378	265.5741	299.4272	348.8458	411.3435	449.1451	573.8746	610.2876	632.9501	657.5308	798.7986	810.125	878.5939	890.9884	940.4327	977.8485	1048.0543	1134.2518	1148.8708	1181.651	1202.6769	1245.1402	1291.6641	1307.8456	1392.1058	1397.6055	1423.1643	1485.803	1496.1558	1518.3372	1665.5064	1819.7866	2244.6654	3004.9396	3048.0927	3054.2555	3093.5748	3122.5046	3129.5958	3487.0409	3504.6693	3561.3072
CCOC(=O)C(N)C#C	CCOC(=O)[C@@H](N)C#C	
InChI=1S/C6H9NO2/c1-3-5(7)6(8)9-4-2/h1,5H,4,7H2,2H3	InChI=1S/C6H9NO2/c1-3-5(7)6(8)9-4-2/h1,5H,4,7H2,2H3/t5-/m0/s1
