19
gdb 99629	2.71681	1.11027	0.89001	4.3914	75.99	-0.261	0.0278	0.2888	1341.8038	0.158641	-419.18854	-419.178724	-419.17778	-419.223965	35.085	
C	-0.0232290073	 1.5140605509	-0.3321081818	-0.419497
C	-0.0391460417	 0.0530732127	 0.0493595213	-0.008159
N	 1.2225612141	-0.704274044	-0.0147327142	-0.326748
C	 0.5542235372	-0.5454215442	 1.2791398777	-0.024894
C	 1.2990029127	 0.1649463875	 2.4044298989	-0.173
C	 2.1227563397	-0.8643688924	 3.230752609	-0.06037
O	 2.7678218965	-0.2876396446	 4.3387903889	-0.420141
C	 2.2172327048	 1.2231692349	 1.9794785312	 0.28922
N	 3.0012555935	 2.0392562375	 1.7420008796	-0.349089
H	 0.9074335624	 2.0019966899	-0.0429100827	 0.163297
H	-0.1323332716	 1.6154782939	-1.4170660921	 0.124491
H	-0.8599744246	 2.0427499922	 0.137474291	 0.118161
H	-0.9291154596	-0.474292179	-0.2961209953	 0.088353
H	 1.0843549313	-1.6365208914	-0.392809972	 0.236461
H	 0.0136375607	-1.4069551928	 1.6726628234	 0.090935
H	 0.5694586459	 0.6211507393	 3.0861066713	 0.136062
H	 1.4303446335	-1.6119430543	 3.6300242554	 0.116937
H	 2.823647746	-1.3742990609	 2.5543718425	 0.118133
H	 3.4395721165	 0.3222190049	 4.0114316278	 0.299848
35.3079	112.964	138.1191	142.6622	180.3984	217.4054	242.2855	344.2686	388.6468	400.0887	422.392	489.1688	589.9869	665.4926	776.8936	812.1403	835.4383	892.842	974.4785	1006.0011	1031.871	1052.9886	1058.5857	1095.7333	1098.0323	1153.9098	1197.6885	1208.2434	1255.2799	1266.9918	1287.7603	1359.9082	1387.9391	1402.1829	1419.6036	1435.0612	1468.8282	1496.116	1504.9376	1506.573	2351.5978	3005.3563	3037.4589	3040.292	3084.3847	3091.5377	3096.7051	3102.7814	3159.0007	3516.7231	3794.0913
CC1NC1C(CO)C#N	C[C@H]1N[C@H]1[C@@H](CO)C#N	
InChI=1S/C6H10N2O/c1-4-6(8-4)5(2-7)3-9/h4-6,8-9H,3H2,1H3	InChI=1S/C6H10N2O/c1-4-6(8-4)5(2-7)3-9/h4-6,8-9H,3H2,1H3/t4-,5-,6-/m1/s1
