17
gdb 97414	5.53547	0.78305	0.73574	2.9492	73.92	-0.2611	0.0096	0.2707	1548.5883	0.135631	-455.153268	-455.144595	-455.143651	-455.187911	30.262	
C	 0.007653281	 1.4190776926	 0.0445644978	-0.317028
N	-0.0560178885	-0.0275941097	 0.0188445107	-0.198697
C	 0.5000154838	-0.6150610024	-0.9389049262	 0.131918
O	 0.4983005161	-1.9741582169	-1.0002928983	-0.203359
C	 1.0320485528	-2.5470454108	-2.1652412617	 0.174632
C	 1.117805263	-4.0753082394	-1.985106288	-0.206531
N	 0.0458874963	-4.6193961111	-2.8318854138	-0.251021
C	-0.4194274072	-3.6296246885	-3.4658342079	 0.118369
O	 0.1132556082	-2.3891734819	-3.2599287745	-0.223324
H	 0.4972016045	 1.7463310417	 0.9685425077	 0.132099
H	 0.5462598726	 1.8606513808	-0.8094984465	 0.099116
H	-1.0086340786	 1.8278051842	 0.0607494601	 0.133524
H	 1.025838274	-0.1249433856	-1.7716220125	 0.086675
H	 1.9624516445	-2.045750749	-2.4483630198	 0.102018
H	 2.084028527	-4.4750084598	-2.3078891856	 0.126891
H	 0.9647161089	-4.3433821874	-0.93713819	 0.145665
H	-1.2204401784	-3.6575963768	-4.1950218412	 0.149053
48.4762	77.2482	104.8553	168.9263	208.7565	299.8926	326.312	388.941	463.6391	535.6406	630.9547	775.065	884.6295	899.4173	953.6381	963.9079	973.1977	989.4106	1033.2842	1049.8862	1086.6945	1122.5465	1141.1857	1159.0175	1216.8174	1231.4836	1303.1587	1321.7093	1353.0633	1381.2971	1425.1617	1450.1884	1479.7551	1480.4943	1504.455	1713.0576	1788.3866	2972.1123	3008.2032	3058.3805	3064.321	3071.8974	3084.3635	3114.2241	3226.8919
CN=COC1CN=CO1	CN=CO[C@H]1CN=CO1	
InChI=1S/C5H8N2O2/c1-6-3-8-5-2-7-4-9-5/h3-5H,2H2,1H3	InChI=1S/C5H8N2O2/c1-6-3-8-5-2-7-4-9-5/h3-5H,2H2,1H3/t5-/m1/s1
