18
gdb 102285	2.73033	1.02574	0.79475	4.2039	70.32	-0.2558	-0.0509	0.2049	1397.8767	0.146313	-476.260856	-476.251319	-476.250375	-476.296073	33.434	
C	-0.2524156343	 1.5696071005	 0.2377398089	-0.336506
N	 0.026738914	 0.139340588	 0.0451477144	-0.298743
H	-1.3080489127	-0.9945532403	 0.2630064437	 0.310734
H	 0.5670561951	 0.0297949925	-0.8106680371	 0.242994
C	 0.8015922948	-0.4678280626	 1.1297171546	-0.085645
C	 0.6120362364	-2.0049386492	 1.1481568432	-0.362574
C	-0.8380103499	-2.4662122442	 1.3673194699	 0.401167
O	-1.763762082	-1.7534828237	 0.7189712096	-0.369264
O	-1.108993974	-3.4173703498	 2.0505003311	-0.326313
C	 2.2937050168	-0.1717315218	 1.0232564527	 0.162286
O	 2.7959754876	 0.3282000072	 0.0489516467	-0.246905
H	 0.6540307478	 2.1711982013	 0.3838067952	 0.131416
H	-0.7830124583	 1.9480270229	-0.6390594151	 0.138888
H	-0.9042928147	 1.6950744797	 1.1074458747	 0.140489
H	 0.4411339902	-0.0638005856	 2.0852580605	 0.117791
H	 0.9538710574	-2.4127395955	 0.1874597114	 0.139629
H	 1.2189253165	-2.4656345953	 1.9300184101	 0.141233
H	 2.9054644394	-0.4879758641	 1.8960680955	 0.099324
65.1308	84.7278	121.7355	127.5972	205.5631	221.9459	281.429	318.4722	345.6445	377.6277	508.4378	602.1032	680.3504	744.3946	791.1593	863.2607	885.1909	895.3299	984.7346	1002.0974	1032.4126	1071.1589	1138.3404	1162.7641	1174.196	1245.1911	1265.486	1291.52	1333.5739	1362.7124	1409.6993	1457.3979	1460.5805	1490.8065	1498.8846	1514.5125	1522.8604	1823.2234	1863.2576	2900.0631	3017.8247	3027.1908	3039.5334	3092.815	3120.7039	3126.2057	3182.1616	3492.1713
C[NH2+]C(CC([O-])=O)C=O	CN[C@@H](CC(=O)O)C=O	
InChI=1S/C5H9NO3/c1-6-4(3-7)2-5(8)9/h3-4,6H,2H2,1H3,(H,8,9)	InChI=1S/C5H9NO3/c1-6-4(3-7)2-5(8)9/h3-4,6H,2H2,1H3,(H,8,9)/t4-/m0/s1
