19
gdb 108532	2.75212	1.64171	1.23568	1.5795	73.86	-0.2367	0.0697	0.3065	1055.0951	0.159515	-422.960596	-422.952979	-422.952035	-422.992672	30.172	
C	-0.1705844846	 1.5311617083	 0.0150579682	-0.386668
C	 0.1285075059	 0.0260549583	 0.0253809271	-0.298284
C	 0.8177274868	-0.4725245601	-1.2230057493	 0.306383
C	 2.1941066593	 0.0404201845	-1.6305391829	-0.150962
O	 2.4507127944	-0.7038006232	-2.8417425795	-0.275818
C	 1.2957525899	-1.486852892	-2.9703534025	 0.10128
C	 0.798245639	-2.0000231968	-1.5902322521	-0.036214
O	-0.5957632444	-1.9195892793	-2.0347274465	-0.317565
C	 0.0196326698	-0.6975482252	-2.5597850029	-0.02271
H	 0.7452477547	 2.1296081711	-0.0294769228	 0.117837
H	-0.7899063086	 1.8054276381	-0.8454921167	 0.120248
H	-0.7116466292	 1.8242782475	 0.9194659258	 0.119031
H	 0.7459648752	-0.2198316578	 0.8994810735	 0.097678
H	-0.8047879855	-0.5380413691	 0.1301437821	 0.121704
H	 2.2152941509	 1.1142049678	-1.8493260062	 0.110669
H	 2.9706168667	-0.1803718443	-0.887228144	 0.107726
H	 1.3164930015	-2.1278405544	-3.8485156901	 0.103715
H	 1.1010378707	-2.8615440955	-0.9942716341	 0.090805
H	-0.6066643325	-0.007816048	-3.1260191371	 0.091144
92.713	169.0025	206.3611	275.5596	306.6657	387.1899	431.633	515.7711	646.288	689.1436	713.431	754.8748	796.7875	818.3893	885.2132	886.269	933.7785	966.1262	981.8114	1001.4207	1039.5201	1049.5624	1081.3325	1102.3807	1132.2637	1152.9033	1170.1417	1192.0429	1210.9151	1227.1202	1249.0661	1287.1561	1310.1978	1340.7947	1368.5862	1401.4629	1413.4073	1484.2882	1501.7639	1505.6409	1519.7023	3019.6265	3022.7541	3035.9785	3062.1054	3069.1906	3104.6105	3108.8285	3113.8403	3119.2472	3164.2859
CCC12COC3C1OC23	CC[C@@]12CO[C@H]3[C@@H]1O[C@@H]23	
InChI=1S/C7H10O2/c1-2-7-3-8-4-5(7)9-6(4)7/h4-6H,2-3H2,1H3	InChI=1S/C7H10O2/c1-2-7-3-8-4-5(7)9-6(4)7/h4-6H,2-3H2,1H3/t4-,5-,6+,7+
