22
gdb 9907	4.53864	0.86551	0.82054	1.3125	78.76	-0.2609	0.0806	0.3415	1477.8756	0.198978	-350.193488	-350.183767	-350.182823	-350.228257	35.572	
C	 0.0468075214	 1.5693528538	 0.3247288944	-0.461768
C	-0.01744788	 0.0762116109	 0.0595837126	 0.395664
C	-1.3572372035	-0.4491459365	-0.4379229422	-0.269497
C	-1.7761616924	 0.0919081196	-1.8110506106	-0.165401
C	-3.0837009071	-0.5116135142	-2.3058510924	-0.073035
O	-3.3845338708	 0.0646325653	-3.5686908434	-0.42245
C	 1.2322423048	-0.5995443427	-0.4552825277	-0.292687
C	 0.783618537	-0.8229630972	 0.9709956444	-0.316289
H	 1.0268754838	 1.8557153153	 0.7190341909	 0.110567
H	-0.123141219	 2.1528797702	-0.5864646775	 0.120115
H	-0.708459266	 1.8728261074	 1.0599736829	 0.111242
H	-1.3102479465	-1.545201517	-0.4850049877	 0.088095
H	-2.1345174524	-0.2100107658	 0.3024038	 0.091095
H	-1.895695293	 1.1806283079	-1.778558941	 0.107353
H	-0.9929274021	-0.1153884911	-2.5499275032	 0.106507
H	-2.9830892331	-1.6072353035	-2.3820677413	 0.081097
H	-3.8859245638	-0.3110875784	-1.57603816	 0.081769
H	-4.2092870806	-0.3161187795	-3.88380345	 0.283892
H	 1.1220326309	-1.4196106061	-1.1577154674	 0.106209
H	 2.1142178273	 0.0092957669	-0.6247007311	 0.106707
H	 1.3614483204	-0.3628475046	 1.7659838873	 0.105831
H	 0.3722069947	-1.7933268805	 1.2299230629	 0.104984
64.2044	83.0637	126.333	141.2158	224.6401	262.8347	274.805	312.3409	347.2453	370.8077	428.8466	507.3572	722.5536	759.3528	788.5233	856.9795	876.5926	925.289	952.0633	954.4693	1015.6171	1037.659	1048.3365	1058.1692	1079.1034	1082.5375	1106.6685	1136.9186	1187.8028	1210.3075	1234.6963	1288.818	1303.6158	1315.5697	1327.7277	1364.8165	1395.6859	1421.3419	1463.166	1470.2509	1479.9497	1496.0118	1501.3924	1502.1478	1513.5911	1528.6262	2954.2394	2978.9104	2999.3647	3023.1809	3035.0005	3038.2121	3081.2827	3085.6601	3099.5981	3123.5306	3128.4118	3200.1597	3214.7177	3829.1216
CC1(CCCO)CC1	CC1(CCCO)CC1	
InChI=1S/C7H14O/c1-7(4-5-7)3-2-6-8/h8H,2-6H2,1H3	InChI=1S/C7H14O/c1-7(4-5-7)3-2-6-8/h8H,2-6H2,1H3
