19
gdb 119691	4.57932	1.02422	0.94505	2.5011	75.74	-0.2247	0.078	0.3027	1292.4993	0.15849	-422.939278	-422.93104	-422.930096	-422.972718	30.874	
C	-0.6670318215	 1.3692724663	 0.5289357449	-0.220123
O	-0.8348167726	-0.0236642864	 0.6412032674	-0.239049
C	-0.604515491	-0.7077524412	-0.5746265393	-0.205751
C	-0.8154659019	-2.1690667052	-0.3391404162	 0.285911
C	-0.7871632453	-3.3080099541	-1.3586033023	-0.302857
C	-1.3604442075	-4.1742238551	-0.206527592	 0.067625
O	-0.2640891472	-4.2454914217	 0.7474514264	-0.29935
C	-0.5155042538	-2.8637607351	 1.004440467	 0.071003
C	-1.9090486365	-2.8622771027	 0.4742978308	-0.181859
H	-0.8691634302	 1.8033661224	 1.5109767672	 0.128882
H	 0.3584484261	 1.6340001256	 0.2263947461	 0.106197
H	-1.3637181369	 1.8062483934	-0.2038817721	 0.105273
H	-1.2889322917	-0.3351753855	-1.3579413757	 0.087637
H	 0.4240044556	-0.5223180908	-0.9336182893	 0.091557
H	-1.5223601224	-3.1517386945	-2.1531936073	 0.101123
H	 0.1728657881	-3.628997517	-1.7766756362	 0.099209
H	-1.8639524706	-5.1248803505	-0.3674900838	 0.086352
H	-0.0590372223	-2.3808261212	 1.856302144	 0.117252
H	-2.8621290184	-2.5375041566	 0.8669825504	 0.100967
73.963	84.2803	125.6306	222.0404	270.4034	341.0061	389.1494	443.5214	539.7376	681.51	750.3657	773.756	798.2699	841.2115	900.6266	915.5956	930.8107	969.3751	985.1908	1017.6914	1040.0963	1041.1877	1090.62	1127.5162	1154.3368	1158.7193	1161.9477	1187.8996	1192.3237	1220.0022	1235.3068	1260.5511	1287.5479	1302.1447	1404.6109	1433.431	1480.9785	1484.7459	1490.1192	1503.386	1525.8036	2933.859	2955.7944	2971.964	3015.6317	3041.6975	3104.1952	3116.1759	3146.2881	3212.9845	3233.1139
COCC12CC3OC1C23	COC[C@@]12C[C@H]3O[C@@H]1[C@@H]23	
InChI=1S/C7H10O2/c1-8-3-7-2-4-5(7)6(7)9-4/h4-6H,2-3H2,1H3	InChI=1S/C7H10O2/c1-8-3-7-2-4-5(7)6(7)9-4/h4-6H,2-3H2,1H3/t4-,5+,6-,7-/m1/s1
