19
gdb 122055	2.12477	1.11508	0.85214	2.5006	76.28	-0.252	-0.0177	0.2343	1417.339	0.158434	-456.360327	-456.35035	-456.349406	-456.396378	34.365	
C	-0.2695817855	 1.3054852402	 0.1174791691	-0.229115
O	-0.0314094617	-0.080254631	 0.0224228658	-0.234955
C	 0.3439466805	-0.4935377344	-1.2729511635	-0.054915
C	 0.4403997667	-2.0135691129	-1.2681886892	-0.203044
N	-0.8511128195	-2.6544418993	-1.0335863974	-0.052538
C	-1.6885493545	-2.9382542535	-2.1062222351	 0.091723
N	-1.3484398161	-2.6609237647	-3.3005332259	-0.474508
C	-1.2838044469	-2.9097044995	 0.2597478809	 0.166676
O	-2.3576842729	-3.3822575141	 0.5476651724	-0.319851
H	 0.6316882955	 1.8906267152	-0.1228256539	 0.107181
H	-1.0780758314	 1.6259722322	-0.5572600861	 0.111015
H	-0.5634377575	 1.5160086722	 1.1483040886	 0.132248
H	-0.3931649917	-0.167248377	-2.0217861136	 0.115215
H	 1.3208238055	-0.0664130406	-1.5554802854	 0.091767
H	 0.8173133675	-2.3623311243	-2.2306526841	 0.14969
H	 1.1290880636	-2.329359886	-0.4791808401	 0.123499
H	-2.6170244112	-3.4060453584	-1.7759192788	 0.144276
H	-2.0783341476	-2.9533911897	-3.947372633	 0.232707
H	-0.519693163	-2.6322087043	 1.0045704392	 0.10293
47.8037	63.3468	103.401	151.6892	211.9435	229.0245	240.968	266.496	293.6944	356.4077	394.7002	532.9994	563.1565	723.2604	837.6458	852.9401	854.3245	990.3445	1025.6678	1035.196	1083.1443	1097.8102	1157.8684	1165.3491	1185.7093	1209.191	1245.2967	1279.985	1345.6444	1372.2197	1399.419	1415.3584	1423.5364	1444.2187	1477.587	1481.0795	1485.9321	1502.3932	1526.6943	1709.4231	1808.8521	2965.7812	2978.482	3002.0971	3017.1811	3023.6582	3071.468	3119.5321	3130.9225	3137.2593	3506.3618
COCCN(C=N)C=O	COCCN(C=N)C=O	
InChI=1S/C5H10N2O2/c1-9-3-2-7(4-6)5-8/h4-6H,2-3H2,1H3	InChI=1S/C5H10N2O2/c1-9-3-2-7(4-6)5-8/h4-6H,2-3H2,1H3
