19
gdb 92199	3.15319	1.57908	1.31829	2.2265	75.02	-0.2364	0.0638	0.3001	1007.1456	0.160677	-422.955888	-422.948631	-422.947687	-422.987155	30.12	
O	-0.0735028126	 1.5106706807	 0.0618436916	-0.431686
C	-0.00163995	 0.1118970787	 0.0220496911	-0.011275
C	 0.3337825496	-0.7182199504	 1.346895596	-0.339672
C	-0.7066525146	-1.7658404743	 0.832797129	 0.008947
C	-2.0123842517	-2.448108447	 1.3231686416	-0.292903
C	-2.9869092918	-1.5114089443	 0.5130056086	 0.05469
C	-2.5043051612	-0.128831853	 0.9695467065	-0.257412
C	-1.3407870231	-0.6104406267	 0.0793438326	 0.454036
O	-2.3267892136	-1.2506732975	-0.7899842908	-0.367096
H	 0.8151960847	 1.8689014101	-0.0238888131	 0.288628
H	 0.6240917272	-0.2508713953	-0.8046793359	 0.088459
H	 1.3639710371	-1.0577466251	 1.4671713585	 0.100043
H	 0.0224050085	-0.1598586352	 2.231609226	 0.116402
H	-0.1943458897	-2.4181292042	 0.1206172543	 0.085415
H	-2.0663264875	-3.4958652368	 1.0209968084	 0.10468
H	-2.2215524154	-2.3855106286	 2.3946329951	 0.1058
H	-4.0346681328	-1.792011501	 0.4107894547	 0.080691
H	-3.0444132699	 0.6870871546	 0.4904422791	 0.117303
H	-2.343546263	 0.0600723357	 2.0331786968	 0.09495
156.8718	216.8107	233.8054	295.1443	396.2255	427.1154	475.9296	567.161	584.9394	644.3434	665.2719	769.1219	786.0044	827.5421	845.7804	878.2513	909.2743	951.4298	972.4961	1013.8764	1029.7718	1056.1877	1080.2427	1094.981	1138.0467	1151.7984	1162.2454	1180.3969	1195.3449	1217.0136	1226.1056	1246.7889	1266.2544	1285.8998	1291.6912	1329.4688	1382.1852	1443.9596	1480.3422	1483.7765	1499.2776	3016.9841	3064.2543	3067.4312	3072.8874	3078.1947	3118.6071	3131.525	3139.4878	3153.7315	3826.5744
OC1CC2CC3CC12O3	O[C@H]1C[C@H]2C[C@H]3C[C@@]12O3	
InChI=1S/C7H10O2/c8-6-2-4-1-5-3-7(4,6)9-5/h4-6,8H,1-3H2	InChI=1S/C7H10O2/c8-6-2-4-1-5-3-7(4,6)9-5/h4-6,8H,1-3H2/t4-,5+,6+,7+/m1/s1
