18
gdb 45482	2.92695	1.69739	1.51051	2.5936	73.97	-0.2376	-0.0231	0.2146	941.0756	0.150857	-401.96572	-401.958995	-401.95805	-401.996919	27.408	
O	 0.0568409523	 0.0308835207	-0.4506180871	-0.323385
C	 0.016186874	 1.1843487979	-0.1042203359	 0.397968
C	-1.2384203488	 2.0250086228	 0.1410479196	-0.329237
C	-0.7330922451	 3.3162075359	 0.8086267122	-0.016923
C	-0.7048097907	 3.2166770123	 2.342222142	-0.199863
C	 0.5493911844	 2.3569609076	 2.6220733957	-0.262601
C	 1.4453844514	 2.6874623144	 1.4298020549	-0.010633
C	 1.1885343304	 2.1011674979	 0.0752663819	-0.154616
N	 0.7236094717	 3.4699842918	 0.4115880859	-0.125404
H	-1.6660299698	 2.241308364	-0.8454060238	 0.140621
H	-1.9926693856	 1.4739555367	 0.7085970029	 0.12789
H	-1.2746276709	 4.1961141527	 0.4594522356	 0.08973
H	-0.5701608521	 4.2154476124	 2.7691349935	 0.112
H	-1.6254887415	 2.797173817	 2.7570086116	 0.105328
H	 1.0356044238	 2.6263658738	 3.562244022	 0.112498
H	 0.3115584922	 1.2899546461	 2.6801808384	 0.123316
H	 2.4645202876	 3.0086892078	 1.6266424404	 0.101824
H	 2.0131994766	 1.999376898	-0.6239035497	 0.111487
91.4854	167.3297	353.5796	366.6686	456.4672	511.8429	595.0113	625.1916	677.9595	729.7962	760.8722	821.2965	823.8683	855.9498	887.0761	932.0832	943.1328	951.1279	978.3267	1033.9784	1043.1312	1093.436	1104.6901	1159.0365	1171.3003	1201.2426	1219.3231	1224.2907	1258.7098	1293.0988	1312.8497	1333.6062	1336.8129	1362.0128	1387.047	1447.939	1490.2072	1511.8835	1836.6101	3044.7411	3053.4772	3055.1904	3096.7	3099.6477	3104.131	3110.3951	3143.7224	3160.2279
O=C1CC2CCC3C1N23	O=C1C[C@H]2CC[C@H]3[C@@H]1N23	
InChI=1S/C7H9NO/c9-6-3-4-1-2-5-7(6)8(4)5/h4-5,7H,1-3H2	InChI=1S/C7H9NO/c9-6-3-4-1-2-5-7(6)8(4)5/h4-5,7H,1-3H2/t4-,5+,7+,8?/m1/s1
