20
gdb 64509	3.4471	1.27559	1.14123	2.3386	78.99	-0.218	0.0777	0.2957	1144.3913	0.170242	-403.059214	-403.050843	-403.049899	-403.092006	32.613	
C	-0.1960994066	 1.3975298284	-0.2813801212	-0.455497
C	 0.0969162855	-0.0743557785	-0.0974700857	 0.301523
C	 0.8461994628	-0.9042735535	-1.1477298524	-0.200164
C	 2.0016124625	-0.09754182	-1.7279900251	-0.10659
O	 2.4878498682	 0.2441530769	-0.3990463492	-0.287256
C	 1.4815436102	-0.5781262403	 0.192914965	 0.058548
N	-0.9519710214	-0.722537445	 0.6638559078	-0.11709
C	-2.0745455089	-1.3276894863	-0.0483470381	-0.221147
C	-1.105870637	-2.1730994357	 0.7025704146	-0.235153
H	-0.9942878091	 1.5542967125	-1.0152469513	 0.111262
H	-0.5249722148	 1.8206638172	 0.6719192053	 0.128705
H	 0.6937999104	 1.9381631773	-0.6073744679	 0.136098
H	 0.4827224225	-1.8390053558	-1.5525888101	 0.095296
H	 2.7405639456	-0.7129892887	-2.2539682409	 0.110767
H	 1.7659707088	 0.7884521033	-2.328555572	 0.107257
H	 1.7516038711	-1.1812863243	 1.0531868712	 0.10639
H	-3.0598807524	-1.1179247874	 0.3577697556	 0.117837
H	-2.0241943998	-1.3699632909	-1.1348943731	 0.112516
H	-0.437169675	-2.8049687896	 0.1243610096	 0.117653
H	-1.3682498825	-2.5762159995	 1.6768929777	 0.119042
84.0054	169.5027	176.0195	221.4975	257.3484	294.7843	381.7514	414.6809	475.1966	525.3572	648.9004	753.7454	766.1612	826.2342	879.0332	894.0518	919.6374	944.748	967.243	995.8773	1004.3229	1022.5659	1037.753	1073.0924	1091.7049	1108.8472	1120.976	1125.0452	1158.1815	1164.1988	1176.8699	1193.1242	1241.5267	1268.0888	1327.4061	1342.535	1409.2296	1412.1013	1484.6715	1493.1253	1500.9505	1519.6841	1521.5503	3023.447	3040.6074	3070.3282	3098.9139	3105.3481	3110.5476	3140.8398	3168.8867	3181.1975	3194.0255	3200.3087
CC1(C2COC12)N1CC1	C[C@]1([C@H]2CO[C@@H]12)N1CC1	
InChI=1S/C7H11NO/c1-7(8-2-3-8)5-4-9-6(5)7/h5-6H,2-4H2,1H3	InChI=1S/C7H11NO/c1-7(8-2-3-8)5-4-9-6(5)7/h5-6H,2-4H2,1H3/t5-,6+,7+/m0/s1
