21
gdb 71246	2.20994	2.01683	1.62016	1.2947	81.5	-0.246	0.0717	0.3178	972.5362	0.18369	-387.06728	-387.059455	-387.058511	-387.098758	32.69	
C	-0.0331537187	 1.4981455891	 0.1111675736	-0.522334
C	 0.014271747	-0.0083940135	 0.0421383011	 0.279536
C	 0.9200604964	-0.7644785387	-0.9754690065	-0.285841
C	 0.8326143168	-1.9082093115	 0.0427928077	-0.068368
C	-0.6901195966	-2.1385368552	 0.4492920038	-0.049722
C	-0.3191487768	-1.752680633	 1.9093722595	-0.310326
C	 0.7245739933	-0.8787381756	 1.1985895147	 0.393544
O	 1.8663901868	-0.3579333041	 1.7970503804	-0.488711
C	-1.2950943076	-0.8183416398	-0.0747013643	-0.247026
H	 0.9633697802	 1.9144404405	 0.2986673914	 0.114777
H	-0.396002661	 1.9281974955	-0.8295738816	 0.120626
H	-0.7024854954	 1.8450577403	 0.9080869356	 0.108569
H	 0.5376539926	-0.9036822022	-1.9920904598	 0.082594
H	 1.9330711776	-0.3547893671	-1.0098840364	 0.104669
H	 1.5032466934	-2.7655914283	 0.0768530121	 0.068477
H	-1.2022858587	-3.07257439	 0.2266441562	 0.064384
H	-1.0959746925	-1.2994645094	 2.5354046264	 0.080348
H	 0.1740502794	-2.565659333	 2.4502383668	 0.099592
H	 1.6178957316	 0.4293946126	 2.294271952	 0.280106
H	-2.1032653755	-0.4496075903	 0.5656242119	 0.085903
H	-1.6647772623	-0.8662599165	-1.1039914347	 0.089203
199.5915	210.2911	219.9977	247.1052	328.2896	365.5705	446.1087	465.7152	481.0032	570.2334	627.6368	678.4445	698.297	801.9509	826.9618	877.996	900.3013	925.2473	936.357	963.0946	978.1645	992.5803	1035.1805	1038.2906	1056.6271	1100.2947	1132.5958	1142.9612	1155.9627	1185.1998	1221.3747	1225.1919	1233.2533	1257.764	1271.1818	1290.171	1307.1732	1333.6911	1371.6211	1409.6789	1484.5676	1491.9381	1495.3436	1497.9789	1517.0403	3016.0357	3032.799	3038.1136	3043.9353	3078.4435	3083.1041	3084.8695	3099.4465	3105.6073	3124.7526	3134.4319	3793.148
CC12CC3C(CC13O)C2	C[C@@]12C[C@@H]3[C@@H](C[C@]13O)C2	
InChI=1S/C8H12O/c1-7-2-5-3-8(7,9)6(5)4-7/h5-6,9H,2-4H2,1H3	InChI=1S/C8H12O/c1-7-2-5-3-8(7,9)6(5)4-7/h5-6,9H,2-4H2,1H3/t5-,6-,7-,8-/m1/s1
