15
gdb 74169	2.90111	1.28431	0.94375	4.0833	75.43	-0.2394	-0.0342	0.2052	1173.6137	0.113844	-416.868634	-416.860533	-416.859589	-416.901656	30.228	
N	 0.0726194232	 1.3259572265	-0.0390488176	-0.579795
C	-0.0570858975	-0.0232794716	-0.0206212178	 0.4069
C	-1.1709728428	-0.7839526921	 0.0917089982	-0.33901
C	-0.8419380939	-2.203677156	 0.0929270962	 0.397888
O	-1.5880342774	-3.1493435233	 0.2159024137	-0.348093
C	 0.6829138994	-2.3295528809	-0.1251452397	-0.350934
C	 1.2124238698	-0.8803183008	-0.0299443637	-0.23298
C	 2.1340715945	-0.4809519152	-1.0944969406	 0.265288
N	 2.854182292	-0.1264967872	-1.9267057586	-0.325216
H	 0.9252367167	 1.7199687461	-0.4069093924	 0.278083
H	-0.7526304267	 1.8881280903	-0.1730126788	 0.272934
H	-2.1857023006	-0.4172581321	 0.1701092888	 0.106606
H	 1.1309521578	-2.9920480626	 0.617467724	 0.141176
H	 0.867267844	-2.7640087127	-1.1110559998	 0.153696
H	 1.7380630715	-0.7229981584	 0.9207472479	 0.153456
62.8398	138.4168	161.9929	237.4816	334.4474	423.5908	451.0473	459.7605	495.7252	523.7241	559.7436	595.7745	635.3586	682.1953	814.8024	844.918	857.0626	953.5399	1013.1472	1053.4431	1095.0962	1163.0447	1195.2882	1235.6736	1268.9088	1291.5931	1324.4005	1391.9806	1466.1882	1642.528	1691.9345	1809.3477	2353.4662	3031.6584	3079.8266	3130.4879	3224.1992	3583.1211	3694.0699
NC1=CC(=O)CC1C#N	NC1=CC(=O)C[C@H]1C#N	
InChI=1S/C6H6N2O/c7-3-4-1-5(9)2-6(4)8/h2,4H,1,8H2	InChI=1S/C6H6N2O/c7-3-4-1-5(9)2-6(4)8/h2,4H,1,8H2/t4-/m0/s1
