15
gdb 85601	2.91305	1.39789	0.9955	1.3619	61.4	-0.2676	-0.0471	0.2206	1110.1981	0.111926	-494.950504	-494.942563	-494.941618	-494.983472	29.356	
O	 0.1670583543	 1.2956032815	 0.2885131649	-0.433039
C	 0.0604773868	-0.0652357176	-0.0055577806	-0.013307
C	-1.3961079131	-0.5489805579	 0.0528084523	-0.332894
C	-1.4662364896	-2.0228099293	-0.2923861468	 0.357777
O	-2.3210659298	-2.7802182783	 0.0898663337	-0.285251
C	-0.3089687965	-2.545333942	-1.1511616925	-0.181196
O	 0.3722403334	-1.5518054546	-1.9313146799	-0.215673
C	 0.6200230713	-0.3424698746	-1.3991919244	 0.407747
O	 1.2222964364	 0.4939607576	-2.0202044822	-0.340847
H	 0.7122185456	 1.6745943626	-0.4194343259	 0.301277
H	 0.6557077739	-0.6607197616	 0.7112529429	 0.108565
H	-1.8409213064	-0.3770049259	 1.0350824905	 0.153396
H	-1.9900705112	 0.0149013702	-0.678645333	 0.15333
H	 0.406787871	-3.0484837366	-0.4862786967	 0.15321
H	-0.6855824959	-3.2838612236	-1.8596842224	 0.166905
60.2694	132.4188	175.0993	306.2279	327.7851	373.873	421.0098	442.9675	467.9671	512.4362	606.092	615.2356	710.1028	787.4687	816.0471	916.7547	992.8119	1071.5244	1088.3675	1138.8242	1155.8487	1191.4456	1221.9545	1263.167	1275.7692	1300.9247	1372.0089	1386.494	1447.8202	1457.4869	1472.1948	1834.7083	1839.4425	2936.0841	3022.5276	3039.0059	3119.4002	3135.3207	3695.1614
OC1CC(=O)COC1=O	O[C@H]1CC(=O)COC1=O	
InChI=1S/C5H6O4/c6-3-1-4(7)5(8)9-2-3/h4,7H,1-2H2	InChI=1S/C5H6O4/c6-3-1-4(7)5(8)9-2-3/h4,7H,1-2H2/t4-/m0/s1
