17
gdb 65685	3.6656	0.93524	0.87129	2.4746	70.1	-0.2602	-0.0384	0.2217	1330.3617	0.132324	-458.994537	-458.985547	-458.984603	-459.02871	32.785	
C	-0.1443096573	 1.74534065	 0.0746073755	-0.437305
C	-0.0063313658	 0.2302723665	 0.0129840431	 0.379553
C	 1.1278842425	-0.2926064561	-0.9338067283	-0.405225
C	 1.9443672267	-0.6122302976	 0.3306088843	 0.410271
O	 3.0946900542	-0.8638744392	 0.5304083373	-0.27981
C	 0.7243787896	-0.3928057284	 1.2356814828	-0.388579
O	-1.2951300286	-0.3882138843	-0.1488958944	-0.234523
C	-1.8819075063	-0.3293338973	-1.3603149296	 0.158813
O	-2.9714473148	-0.7724740942	-1.5678451579	-0.270738
H	 0.8227441473	 2.2101135386	 0.2902311617	 0.133522
H	-0.5080351694	 2.1525986753	-0.8740412739	 0.129077
H	-0.8470244696	 2.0268656075	 0.8639499053	 0.143511
H	 0.8459852288	-1.2120688019	-1.4570525475	 0.147796
H	 1.5693792388	 0.4066384088	-1.6475594058	 0.136802
H	 0.8614051589	 0.2303432795	 2.1221562719	 0.136709
H	 0.2665138726	-1.3428612715	 1.5284685998	 0.155199
H	-1.2510576174	 0.1533496942	-2.1301193743	 0.084928
54.6245	102.932	166.772	177.2527	252.9227	309.5354	334.5368	367.5611	402.6419	429.0371	509.9558	536.1581	676.9724	704.0501	764.6798	869.3369	896.386	949.0771	974.2084	1015.7089	1049.4529	1069.2514	1122.6169	1160.3529	1168.5609	1180.5391	1230.0652	1256.2685	1291.7911	1412.4944	1417.5741	1432.5047	1439.7715	1486.0666	1494.3462	1864.0247	1904.4813	2962.3564	3039.0569	3059.1054	3066.2274	3110.0078	3120.8355	3123.9184	3127.592
CC1(CC(=O)C1)OC=O	CC1(CC(=O)C1)OC=O	
InChI=1S/C6H8O3/c1-6(9-4-7)2-5(8)3-6/h4H,2-3H2,1H3	InChI=1S/C6H8O3/c1-6(9-4-7)2-5(8)3-6/h4H,2-3H2,1H3
