15
gdb 22463	3.4114	0.78384	0.64238	4.104	77.51	-0.2574	-0.0484	0.209	1610.5769	0.10988	-416.748022	-416.738458	-416.737514	-416.783369	33.486	
O	-0.0691268222	 1.4093262709	 0.010291489	-0.386045
N	 0.0709037691	 0.032860729	 0.0014850798	-0.155414
C	-1.0559400369	-0.5851454843	 0.0088911042	 0.16555
C	-1.0350600559	-2.0974664365	 0.000634704	-0.281895
C	 0.3856702461	-2.6887822488	-0.0162706226	-0.347713
C	 0.3584686243	-4.1491389456	-0.0236092126	 0.255198
N	 0.3235470167	-5.3041005859	-0.0295367132	-0.302828
C	-2.3295203776	 0.0519982247	 0.024564461	 0.320761
C	-3.434638568	 0.5285320029	 0.037739076	-0.424052
H	 0.8454090771	 1.714682464	 0.0032236141	 0.313452
H	-1.5816095093	-2.4624725594	 0.8777447753	 0.148741
H	-1.5985723135	-2.4531727242	-0.8695343172	 0.148737
H	 0.9335726201	-2.3348386824	-0.8946251723	 0.166379
H	 0.9505608781	-2.344068179	 0.8549460755	 0.166379
H	-4.4013834279	 0.9693185344	 0.049390899	 0.212749
62.8729	66.9652	96.6541	157.481	214.8849	261.3064	284.9863	345.6994	401.7104	450.8162	464.6835	524.6249	623.91	655.3762	656.3633	692.2442	774.452	818.3718	956.3678	1031.0452	1036.3776	1060.1826	1190.8909	1200.8397	1294.0894	1301.5103	1388.5913	1407.0251	1460.0191	1478.3667	1686.0739	2223.3625	2364.2209	3044.0155	3068.4198	3073.7061	3108.3239	3498.5757	3806.154
ON=C(CCC#N)C#C	ON=C(CCC#N)C#C	
InChI=1S/C6H6N2O/c1-2-6(8-9)4-3-5-7/h1,9H,3-4H2	InChI=1S/C6H6N2O/c1-2-6(8-9)4-3-5-7/h1,9H,3-4H2
