20
gdb 90738	2.62507	1.52054	1.211	3.9757	78.99	-0.2356	0.0218	0.2574	1105.7688	0.173235	-403.18088	-403.172823	-403.171879	-403.213758	31.113	
C	-0.7552095725	 1.2857335863	-0.2198702184	-0.406649
C	-0.1298799453	-0.0912191948	-0.0457209211	-0.008076
C	 1.0882618804	-0.3966584374	-0.9775712217	-0.199077
N	 1.9635353469	-0.4520808127	 0.2113474063	-0.076855
C	 0.8494443158	-0.3116907485	 1.1663894204	 0.020817
C	 1.2850957069	 0.8011461259	 2.1476028749	-0.255513
C	 2.8167421604	 0.8570176076	 1.9426803972	-0.321306
C	 2.9976748193	 0.4226988689	 0.4758047458	 0.360776
O	 3.8350177799	 0.7969180564	-0.3129990562	-0.363107
H	 0.0003840416	 2.0783349482	-0.2349099528	 0.126593
H	-1.2998991427	 1.3374200274	-1.1684293493	 0.1232
H	-1.4637409839	 1.5099917794	 0.5846290019	 0.120755
H	-0.9068408439	-0.8587271427	-0.0900801891	 0.079314
H	 1.0348921622	-1.3476500976	-1.5148675387	 0.114317
H	 1.3781302546	 0.3941009941	-1.6766498286	 0.126764
H	 0.6399209017	-1.2470607475	 1.6984613278	 0.080049
H	 0.8365756809	 1.7606265302	 1.8740500941	 0.113526
H	 0.9951267509	 0.5864382115	 3.1783247964	 0.107076
H	 3.2584165015	 1.8425078032	 2.0943164854	 0.129481
H	 3.3375201154	 0.151404082	 2.5998824356	 0.127915
58.4664	144.4117	194.8923	222.69	286.2207	359.5399	395.7824	496.9575	551.126	616.959	666.336	695.5502	781.5285	791.6631	840.5222	895.7822	915.0844	962.5152	1007.2623	1008.7936	1029.8098	1082.0636	1103.4796	1113.4032	1159.0243	1176.775	1200.1122	1215.5125	1254.386	1277.2368	1292.3755	1301.4307	1307.9703	1343.3082	1359.6261	1384.2743	1414.567	1470.9584	1491.9059	1495.7744	1509.3781	1512.8721	1820.256	3023.6073	3031.051	3048.1858	3052.0318	3064.3627	3069.5351	3097.2276	3099.7025	3104.3975	3111.1534	3131.6645
CC1CN2C1CCC2=O	C[C@H]1CN2[C@H]1CCC2=O	
InChI=1S/C7H11NO/c1-5-4-8-6(5)2-3-7(8)9/h5-6H,2-4H2,1H3	InChI=1S/C7H11NO/c1-5-4-8-6(5)2-3-7(8)9/h5-6H,2-4H2,1H3/t5-,6-/m0/s1
