15
gdb 31903	3.61928	1.12418	0.86244	1.1703	82.48	-0.1928	-0.0083	0.1845	1278.9367	0.111142	-420.615294	-420.606785	-420.605841	-420.648953	30.868	
C	 0.0857375987	 1.4479672955	 0.1865617194	-0.250467
O	 0.0396466988	 0.0249886831	 0.0593803696	-0.272138
C	 0.6166094408	-0.6943800582	 1.0189252734	 0.430355
C	 0.7202873023	-2.050561464	 1.1517027484	-0.284095
C	 1.4373132566	-2.2516191248	 2.3660244381	-0.281064
C	 1.7219145571	-1.0211951431	 2.8906064051	 0.192829
O	 1.2048128384	-0.045599793	 2.0413964752	-0.220868
C	 2.3905698837	-0.59299229	 4.0432453802	 0.264246
C	 2.9684161515	-0.2329612877	 5.0388353979	-0.432614
H	 1.1188580551	 1.8082254176	 0.1986294056	 0.141736
H	-0.4349382823	 1.8359769574	-0.6887589716	 0.141684
H	-0.4190261367	 1.777462921	 1.0997698941	 0.141686
H	 0.3341365265	-2.7892706272	 0.4703837807	 0.118529
H	 1.71544657	-3.1948127193	 2.8091048371	 0.119843
H	 3.4776072695	 0.080625543	 5.9157741169	 0.19034
58.4942	128.4284	136.7231	173.4979	246.8492	297.4341	444.4952	474.3982	484.9811	545.9721	573.5541	650.4416	689.1428	695.6412	703.8847	764.2309	851.1893	963.3127	985.6203	1033.1012	1067.0645	1177.2486	1202.747	1207.9602	1244.0689	1319.1385	1400.0277	1473.1925	1485.9341	1500.8312	1581.7546	1648.2961	2221.4425	3039.3249	3109.6159	3156.5574	3262.4837	3281.5639	3505.1092
COC1=CC=C(O1)C#C	COc1ccc(o1)C#C	
InChI=1S/C7H6O2/c1-3-6-4-5-7(8-2)9-6/h1,4-5H,2H3	InChI=1S/C7H6O2/c1-3-6-4-5-7(8-2)9-6/h1,4-5H,2H3
