18
gdb 7600	2.70934	1.99091	1.40223	3.3082	69.21	-0.236	-0.0217	0.2143	946.3262	0.151348	-384.953899	-384.945254	-384.94431	-384.986658	32.511	
C	 0.0997494152	 1.3655402991	 0.3598271072	-0.488277
C	-0.0230310966	-0.039171494	-0.1924456486	 0.357305
O	 0.9489165968	-0.5870084896	-0.7005371761	-0.366548
C	-1.3276359079	-0.7406202919	-0.0742039917	 0.155476
C	-2.5022186084	-0.0410804878	 0.5803533237	-0.486116
C	-1.6303362626	-1.7434507556	-1.2048832528	-0.350419
C	-1.1992190725	-2.2846428276	 0.1073580406	 0.130771
O	 0.0167211994	-2.8996367898	 0.2997626782	-0.420165
H	 1.1087693753	 1.7357499203	 0.1774927132	 0.144023
H	-0.6320119755	 2.035037219	-0.1048636591	 0.141075
H	-0.1037726722	 1.3731592318	 1.4364227405	 0.14595
H	-2.8311215338	 0.8329343376	 0.0061403467	 0.122104
H	-3.3569683353	-0.720555861	 0.6485537513	 0.121691
H	-2.2708130511	 0.2915813399	 1.5976067186	 0.12472
H	-2.669802439	-1.8265986769	-1.5049035501	 0.117261
H	-0.9057551298	-1.7752115138	-2.011639473	 0.134992
H	-1.9551782138	-2.7154780051	 0.7573117668	 0.111125
H	 0.6746282618	-2.3708592047	-0.1863525654	 0.305032
74.1509	151.1869	198.8954	231.4906	248.5409	290.918	317.4585	396.5813	454.7588	479.9643	561.7608	587.4441	640.0983	660.9644	743.0657	828.0103	913.5641	947.7142	969.9871	1023.5765	1052.1581	1057.727	1099.092	1123.0978	1154.7992	1202.3526	1265.3688	1336.553	1369.7654	1387.7341	1421.8829	1450.4796	1459.0898	1472.9349	1488.2668	1499.2588	1501.0827	1730.5845	3026.6857	3039.6814	3087.2645	3099.9582	3103.1776	3128.3292	3156.3701	3159.7553	3224.8632	3615.6054
CC(=O)C1(C)CC1O	CC(=O)[C@@]1(C)C[C@H]1O	
InChI=1S/C6H10O2/c1-4(7)6(2)3-5(6)8/h5,8H,3H2,1-2H3	InChI=1S/C6H10O2/c1-4(7)6(2)3-5(6)8/h5,8H,3H2,1-2H3/t5-,6-/m1/s1
