23
gdb 80614	2.05654	1.8367	1.43408	1.2901	84.29	-0.2515	0.0724	0.3239	1074.425	0.206397	-388.287053	-388.27832	-388.277376	-388.319356	35.991	
C	-0.1413447403	 1.560207124	-0.1030004788	-0.420512
C	 0.0622697795	 0.0468787342	-0.0292583194	-0.014973
C	 0.9509017973	-0.5419000698	-1.1504951959	-0.021685
C	 1.1703797782	-2.002155639	-0.6643245927	-0.239761
C	 1.9618790391	-1.2887793607	 0.4699445856	-0.028392
C	 2.3881549504	-0.2652263677	-0.6204793829	-0.239295
C	 0.8394849335	-0.5431533841	 1.2227744531	 0.408667
C	 1.3489178665	 0.4687394493	 2.2486819699	-0.459525
O	 0.0616776545	-1.5338823393	 1.9015792343	-0.4863
H	 0.8044929548	 2.1096868386	-0.1332505106	 0.114604
H	-0.7004616526	 1.8219761756	-1.0079715683	 0.112612
H	-0.7135062389	 1.9358372806	 0.7520228971	 0.10773
H	-0.9217523586	-0.4357475703	-0.0487580305	 0.067409
H	 0.660734942	-0.3121987436	-2.1774885897	 0.051962
H	 0.299427898	-2.5939349719	-0.3790143001	 0.105969
H	 1.8243900078	-2.5700459045	-1.3301298081	 0.088767
H	 2.6855747486	-1.8129705716	 1.095476463	 0.057735
H	 3.1608647935	-0.6680315498	-1.2793467345	 0.096648
H	 2.657800085	 0.7510953279	-0.3216952009	 0.086148
H	 2.0158932607	 1.2162766953	 1.8123260475	 0.117038
H	 0.5174753144	 1.0083731976	 2.7181549318	 0.103239
H	 1.8922384745	-0.059879535	 3.0376133859	 0.121384
H	-0.6421809477	-1.0805426958	 2.3771274942	 0.270529
158.3998	208.665	245.5249	256.3658	266.7349	289.9962	293.8574	369.0753	429.9497	491.485	501.4743	536.8974	589.1451	714.4031	795.1849	838.7758	853.653	864.5208	890.5813	937.7772	949.499	980.4871	1016.3457	1034.2737	1038.6596	1053.2952	1072.4425	1083.6068	1102.9392	1131.078	1148.5594	1181.3285	1199.4679	1225.9403	1238.9052	1256.808	1279.505	1288.136	1326.2647	1367.4753	1378.5827	1405.3336	1415.6811	1485.8387	1487.5086	1489.8568	1503.4874	1506.7194	1524.8899	3028.2962	3031.3651	3033.8597	3059.8179	3068.8333	3090.0125	3094.3303	3095.1551	3103.5996	3107.4005	3113.5837	3122.8355	3134.7039	3808.8037
CC1C2CC(C2)C1(C)O	C[C@H]1[C@@H]2C[C@@H](C2)[C@]1(C)O	
InChI=1S/C8H14O/c1-5-6-3-7(4-6)8(5,2)9/h5-7,9H,3-4H2,1-2H3	InChI=1S/C8H14O/c1-5-6-3-7(4-6)8(5,2)9/h5-7,9H,3-4H2,1-2H3/t5-,6-,7+,8+/m0/s1
