19
gdb 89136	2.0411	1.66463	1.12468	0.7117	81.99	-0.233	0.0468	0.2799	1145.561	0.157205	-385.825493	-385.816402	-385.815458	-385.858634	35.323	
C	-0.3419316459	 1.5108922601	 0.0228030759	-0.418171
C	 0.0151381727	 0.0303680137	 0.0002254842	 0.040462
C	 1.1520636606	-0.5022614483	-0.9456165652	-0.341112
C	 1.7698963408	-1.2179527396	 0.2654232715	 0.383659
O	 2.231588986	-2.5195504251	 0.2628228777	-0.458756
C	 2.2083157179	-0.2210895149	 1.3229289629	-0.286088
C	 2.7941702325	 1.0603919158	 1.050310145	 0.335811
C	 3.3457642508	 2.1068074714	 0.8242163432	-0.455065
C	 0.7334763113	-0.6228843472	 1.1924896247	-0.150104
H	 0.531598126	 2.1354568853	 0.2181477566	 0.139046
H	-0.772855622	 1.8161535809	-0.9373457667	 0.109693
H	-1.087049669	 1.7166619039	 0.7994908125	 0.111489
H	-0.8901159682	-0.5530694503	-0.1992546413	 0.082682
H	 0.7843780321	-1.2000588946	-1.7001638636	 0.108243
H	 1.784899634	 0.2525392999	-1.4212969905	 0.106759
H	 3.1319314549	-2.5222708094	-0.0822583444	 0.288516
H	 2.6599043919	-0.7388230577	 2.1671112799	 0.115557
H	 3.8139686162	 3.0396666931	 0.6299295914	 0.193036
H	 0.2452030076	-1.072534657	 2.049635516	 0.094339
130.0187	139.8745	170.0597	217.8856	236.4475	274.2526	356.1154	370.8643	405.8474	432.2427	544.2385	559.3787	580.3819	645.9537	652.5521	707.5666	793.2025	835.1487	895.6584	899.5053	957.1265	972.6805	1014.1772	1044.5663	1094.3602	1096.0589	1126.8636	1183.6221	1207.4959	1237.1942	1242.3665	1300.621	1309.0453	1334.0087	1374.824	1410.8036	1455.2618	1491.5148	1494.5083	1504.9941	2223.6925	3031.8092	3042.7074	3059.2711	3089.5237	3122.5759	3130.643	3137.5433	3177.9908	3502.8229	3787.1516
CC1CC2(O)C(C#C)C12	C[C@H]1C[C@@]2(O)[C@@H](C#C)[C@@H]12	
InChI=1S/C8H10O/c1-3-6-7-5(2)4-8(6,7)9/h1,5-7,9H,4H2,2H3	InChI=1S/C8H10O/c1-3-6-7-5(2)4-8(6,7)9/h1,5-7,9H,4H2,2H3/t5-,6-,7+,8+/m0/s1
