16
gdb 128058	4.50202	1.07462	0.87266	5.3456	73.51	-0.2137	-0.018	0.1958	1280.3015	0.127119	-430.280873	-430.272362	-430.271418	-430.314793	29.996	
C	-0.0102080298	 1.365482068	 0.0781384383	-0.310353
N	-0.032322499	-0.0692574925	-0.1032644458	-0.311627
C	 0.6313797205	-0.6561586642	-1.1418231193	 0.290331
N	 1.1875008839	 0.0334772137	-2.0678971175	-0.556514
C	 0.6331674838	-2.1408637232	-1.101592564	 0.324752
N	 0.0860159525	-2.8384859931	-0.1137145034	-0.28876
N	 0.3329704674	-4.1123197999	-0.4886147529	-0.179046
C	 1.0022481603	-4.1314929097	-1.6603783219	 0.020364
N	 1.2107584923	-2.9018618248	-2.0778988145	-0.306669
H	 0.9990110088	 1.7431910288	 0.2902804707	 0.125824
H	-0.3580716142	 1.861549625	-0.8320774584	 0.148501
H	-0.6726624152	 1.6290870666	 0.9056388943	 0.113562
H	-0.2872227982	-0.6606382121	 0.6689968572	 0.256254
H	 1.5908651582	-0.5983408343	-2.7579204657	 0.229561
H	 0.0215325412	-4.8777983245	 0.0873601615	 0.287552
H	 1.3061958575	-5.0419679938	-2.1544768687	 0.156268
69.583	91.3342	111.3326	161.598	235.4258	295.4346	373.528	405.4898	497.0614	549.1575	654.2796	679.946	789.6936	807.5409	861.2526	873.9727	978.384	1001.6652	1033.5849	1112.6382	1156.8748	1166.6923	1187.9693	1197.8424	1280.9939	1328.4596	1375.0654	1452.0461	1462.7746	1467.6103	1474.6922	1516.5928	1541.0852	1584.6277	1703.8151	3014.9834	3085.6764	3129.4232	3261.9167	3504.1189	3657.7921	3664.6777
CNC(=N)C1=NNC=N1	CNC(=N)c1n[nH]cn1	
InChI=1S/C4H7N5/c1-6-3(5)4-7-2-8-9-4/h2H,1H3,(H2,5,6)(H,7,8,9)	InChI=1S/C4H7N5/c1-6-3(5)4-7-2-8-9-4/h2H,1H3,(H2,5,6)(H,7,8,9)
