23
gdb 103071	1.89293	1.3814	1.2045	1.459	82.4	-0.2376	0.0657	0.3033	1243.4578	0.202333	-425.413938	-425.402789	-425.401845	-425.449031	41.712	
C	-0.0278784602	 1.5926121004	 0.2509685073	-0.424667
C	 0.0181594425	 0.0825140447	 0.3373198601	-0.126452
C	 1.2184126833	-0.7151822782	-0.1497925427	 0.360236
C	 1.0351419241	-1.9703654261	-0.9734751212	-0.471169
O	 2.3669848028	 0.0184425489	-0.5147262101	-0.462789
C	 0.9083958292	-0.6637130256	 1.3300150974	 0.220577
C	 1.8456385546	 0.1091608327	 2.2436405907	-0.460448
C	 0.3480002584	-1.8973015949	 2.0487968321	-0.147515
O	-0.8265974618	-2.4731217152	 1.4959857934	-0.406571
H	 0.9757653539	 2.0223567359	 0.2407120322	 0.12892
H	-0.5340209871	 1.9113934103	-0.6675578161	 0.110548
H	-0.5759050833	 2.0301172934	 1.0929476579	 0.112581
H	-0.9338142158	-0.4046472323	 0.1384244432	 0.068
H	 0.8904348226	-1.714534495	-2.0316497276	 0.096697
H	 1.9256827214	-2.6046789372	-0.9052147946	 0.117951
H	 0.1694981336	-2.5427609703	-0.6377049289	 0.149821
H	 2.2594508859	 0.2858794387	-1.4344053772	 0.279334
H	 2.4121270074	 0.8659830634	 1.7034876868	 0.141874
H	 1.2898734812	 0.5945549882	 3.0544531688	 0.107092
H	 2.5712979409	-0.571477347	 2.7054552408	 0.114365
H	 1.0976757413	-2.6972895211	 2.0426961044	 0.115745
H	 0.1777988612	-1.6290040705	 3.1030171492	 0.090403
H	-1.5523564363	-1.8602598831	 1.6483531339	 0.285467
103.855	138.87	172.111	183.8915	195.2951	212.7833	244.2978	247.286	277.1835	297.2149	317.7165	336.1089	387.4097	409.1199	514.6	552.6818	585.7413	687.5069	693.6074	778.7357	942.5868	958.1238	978.3883	994.5632	1030.3288	1073.3321	1085.9783	1097.7441	1125.7321	1131.3811	1180.4435	1202.6964	1235.5571	1267.5029	1284.3803	1351.6819	1393.5922	1403.3342	1408.8327	1411.2237	1420.0155	1462.6365	1487.0635	1492.5893	1496.5633	1499.773	1505.1613	1510.5104	1522.7	2980.8077	3016.5387	3025.8506	3030.3074	3056.2059	3075.8849	3078.2414	3080.9827	3120.208	3135.3711	3146.5149	3160.3332	3791.5054	3824.8658
CC1C(C)(O)C1(C)CO	C[C@H]1[C@@](C)(O)[C@]1(C)CO	
InChI=1S/C7H14O2/c1-5-6(2,4-8)7(5,3)9/h5,8-9H,4H2,1-3H3	InChI=1S/C7H14O2/c1-5-6(2,4-8)7(5,3)9/h5,8-9H,4H2,1-3H3/t5-,6-,7-/m1/s1
