15
gdb 54056	1.95123	1.58182	0.93991	3.8759	68.94	-0.2615	-0.0201	0.2414	1186.5803	0.112857	-450.165084	-450.156131	-450.155187	-450.199432	31.904	
N	-0.1134246847	 1.3006858313	-0.3587769401	-0.565859
C	 0.0405702239	-0.0202159018	 0.0274802769	 0.404831
N	 1.0927945088	-0.5949399287	 0.459086749	-0.522298
N	-1.1673944265	-0.7594941259	-0.017875761	-0.116657
C	-2.4745190505	-0.1207587273	 0.068487786	-0.303122
C	-2.8928382439	 0.5081651394	-1.1925049933	 0.272841
N	-3.175223024	 1.0329715949	-2.1827565425	-0.311709
C	-1.1390197414	-2.1524259511	-0.0109809563	 0.17962
O	-2.1366067627	-2.8313297909	 0.0465485624	-0.322027
H	 0.747891745	 1.8241762196	-0.4009845759	 0.25959
H	-0.7346494998	 1.4949617031	-1.1335354655	 0.279456
H	 1.9131705013	-0.0034206515	 0.346798963	 0.217155
H	-3.1826480575	-0.9142226702	 0.3253547885	 0.200721
H	-2.4804760101	 0.6372579321	 0.8565797603	 0.176452
H	-0.114095178	-2.5374227631	-0.0637468815	 0.151006
65.2812	70.6022	123.8638	208.4688	258.2919	321.5318	338.5231	378.0732	430.3671	452.9402	474.9046	579.2772	637.2311	665.8037	724.1072	809.8627	841.3185	934.6111	979.6086	1046.1471	1096.2523	1118.7583	1171.0619	1266.2905	1336.2471	1371.625	1404.7526	1447.6643	1454.6623	1645.1743	1734.8178	1799.1139	2357.4554	3064.1531	3087.0903	3114.7915	3512.7904	3549.3561	3665.7057
NC(=N)N(CC#N)C=O	NC(=N)N(CC#N)C=O	
InChI=1S/C4H6N4O/c5-1-2-8(3-9)4(6)7/h3H,2H2,(H3,6,7)	InChI=1S/C4H6N4O/c5-1-2-8(3-9)4(6)7/h3H,2H2,(H3,6,7)
