16
gdb 72356	2.47304	1.53446	1.21757	3.3249	69.99	-0.2452	-0.0261	0.2191	1053.364	0.123646	-437.891574	-437.883589	-437.882645	-437.924338	29.38	
C	-0.0661496207	 1.5007093198	-0.0387408621	-0.473211
C	-0.0022329932	 0.0088742301	 0.0892063449	 0.366197
O	-1.2563796212	-0.634996689	-0.145169922	-0.231644
C	-1.2736617651	-1.7085970531	 0.6860075345	 0.084409
N	-0.2697686422	-1.9134028172	 1.4401825201	-0.246065
C	 0.6596855397	-0.8499653784	 1.1336845365	-0.096451
C	 1.236198987	-0.7992422717	-0.2957475559	-0.194452
C	 1.232197125	-1.9517455017	-1.2270472939	 0.159863
O	 2.0739915637	-2.1063656079	-2.0803578966	-0.269077
H	 0.8960056477	 1.9422322094	 0.2324058348	 0.13584
H	-0.2995406418	 1.7962290965	-1.0661585347	 0.145308
H	-0.8358850214	 1.9088194139	 0.6231798151	 0.138913
H	-2.1678264796	-2.3169253326	 0.6294959333	 0.154375
H	 1.2814553859	-0.4924390975	 1.9454483055	 0.119899
H	 2.1268384479	-0.1865205944	-0.3909595089	 0.117469
H	 0.4110972884	-2.6840916763	-1.0985908907	 0.088628
86.6314	162.302	178.3221	191.2345	230.0911	314.0111	429.8837	465.7352	503.7137	596.247	690.5583	749.8547	810.5192	881.1222	915.6806	921.8548	949.7801	1005.4087	1030.2053	1056.2457	1084.4044	1114.5348	1125.4575	1149.154	1214.402	1235.9669	1308.8235	1333.5306	1400.0681	1423.6401	1460.1017	1477.17	1496.3415	1664.0942	1802.9555	2933.6088	3043.972	3113.0244	3128.0235	3172.6198	3187.9365	3234.9459
CC12OC=NC1C2C=O	C[C@]12OC=N[C@H]1[C@H]2C=O	
InChI=1S/C6H7NO2/c1-6-4(2-8)5(6)7-3-9-6/h2-5H,1H3	InChI=1S/C6H7NO2/c1-6-4(2-8)5(6)7-3-9-6/h2-5H,1H3/t4-,5+,6-/m1/s1
