21
gdb 119577	2.92445	1.09821	0.93307	2.4762	79.96	-0.248	0.073	0.3209	1350.9994	0.181442	-424.182657	-424.173144	-424.172199	-424.217544	35.033	
C	 0.0214848995	 1.3069191022	 0.134019182	-0.22049
O	 0.127692078	-0.0960542772	 0.0801319165	-0.243891
C	 0.6139330895	-0.5679952957	-1.1693115976	-0.209294
C	 0.5841606574	-2.0591928534	-1.1213607948	 0.360671
C	 1.7180001755	-2.9069394729	-0.6111717738	-0.320862
C	 1.2141592994	-3.1394231794	-2.0075407975	-0.132057
C	-0.0710363968	-3.9778007902	-1.9472306245	-0.24544
C	-0.7205316667	-2.8634264608	-1.0739652207	 0.07163
O	-1.1784959333	-3.2960321459	 0.1875835974	-0.436304
H	 0.9990343756	 1.7957163551	-0.0030833442	 0.104987
H	-0.6651878953	 1.6954716281	-0.6350022249	 0.104058
H	-0.3678664395	 1.5697853697	 1.120657145	 0.127013
H	-0.0297081146	-0.1874554977	-1.9821714387	 0.084053
H	 1.6335697112	-0.1908930206	-1.3572505697	 0.085823
H	 2.6693771536	-2.3901604173	-0.532042992	 0.107407
H	 1.5360989012	-3.6452757912	 0.1647888427	 0.119409
H	 1.844340678	-3.008662141	-2.8791562122	 0.08684
H	-0.5722046956	-4.1069977329	-2.9084666342	 0.101508
H	 0.0230559863	-4.9503050126	-1.4560055033	 0.106679
H	-1.5167430199	-2.3402459719	-1.6244142476	 0.06149
H	-1.2357649134	-2.5113325445	 0.745030012	 0.28677
56.8283	88.2529	97.4568	174.6371	222.6413	282.4229	312.8236	348.7204	349.177	394.4362	453.9734	562.3921	673.6277	756.9025	832.5884	859.3517	911.6416	944.4953	963.004	981.4399	983.2687	1034.7359	1044.2855	1079.007	1084.678	1134.7709	1146.0345	1173.7289	1181.7802	1212.9963	1222.7686	1227.954	1259.4751	1271.7377	1296.647	1336.9589	1393.155	1406.7886	1436.5071	1477.8569	1479.9982	1484.5029	1502.3676	1503.1096	1522.3032	2942.4375	2969.8745	2975.4405	2984.2048	3013.4006	3061.4564	3113.1728	3117.1235	3118.4166	3181.1653	3205.1292	3797.9
COCC12CC1CC2O	COC[C@]12C[C@H]1C[C@H]2O	
InChI=1S/C7H12O2/c1-9-4-7-3-5(7)2-6(7)8/h5-6,8H,2-4H2,1H3	InChI=1S/C7H12O2/c1-9-4-7-3-5(7)2-6(7)8/h5-6,8H,2-4H2,1H3/t5-,6-,7-/m1/s1
