17
gdb 48369	2.52684	1.42883	1.04732	3.0297	68.4	-0.2502	-0.0466	0.2035	1136.8144	0.13426	-458.918966	-458.910442	-458.909498	-458.953119	30.22	
O	-1.0049429951	 1.3178331633	-0.1414905987	-0.254758
C	 0.0808144024	 0.9713550059	 0.2469768442	 0.133651
C	 1.3511517683	 1.7115478418	-0.0540195713	 0.268146
C	 2.3776343466	 1.698584863	 1.0121995721	-0.223688
O	 2.4908330611	 0.8326230605	-0.1048320449	-0.250802
C	 1.2597030462	 2.8137551176	-1.0737188507	-0.122953
C	 2.56438876	 3.4277791215	-1.6261380872	-0.100104
O	 2.1849464436	 3.1217996229	-2.9810435236	-0.270446
C	 1.0140557115	 2.4021556013	-2.5456093538	-0.077508
H	 0.2339879762	 0.0547427679	 0.8580498165	 0.092686
H	 3.087557899	 2.523505942	 1.0484553382	 0.133191
H	 2.1732540421	 1.2135620253	 1.9659573056	 0.129231
H	 0.5384717566	 3.5543461099	-0.723047751	 0.105779
H	 2.6995181822	 4.5036526223	-1.4676989851	 0.103576
H	 3.4768971896	 2.8949378326	-1.3311543289	 0.110989
H	 1.0995917216	 1.3252637894	-2.7397377968	 0.107628
H	 0.0968020781	 2.7808744129	-3.0071801447	 0.115383
58.8052	83.4517	130.1742	156.1356	234.2814	258.6792	358.8368	428.5263	486.6307	594.0028	645.07	825.5304	860.0368	884.7181	892.3343	926.3174	977.2186	1021.126	1043.3824	1055.6428	1069.5771	1116.8486	1135.4544	1163.6821	1166.4763	1182.7934	1237.8663	1264.9059	1316.446	1337.906	1369.8317	1403.8854	1428.5403	1506.5101	1518.6231	1533.1584	1825.2578	2899.1342	3014.0099	3024.2493	3063.6932	3075.1014	3084.571	3100.0535	3174.0695
O=CC1(CO1)C1COC1	O=C[C@]1(CO1)C1COC1	
InChI=1S/C6H8O3/c7-3-6(4-9-6)5-1-8-2-5/h3,5H,1-2,4H2	InChI=1S/C6H8O3/c7-3-6(4-9-6)5-1-8-2-5/h3,5H,1-2,4H2/t6-/m0/s1
