19
gdb 78187	2.90664	1.28003	1.05179	3.7695	80.61	-0.2507	0.0261	0.2768	1191.8182	0.158967	-382.038401	-382.029581	-382.028637	-382.07173	33.007	
C	-0.0716737125	 1.5867422443	-0.026191631	-0.407984
C	-0.0021763206	 0.065665029	-0.0032579734	-0.029536
C	 0.7098113887	-0.544682174	-1.2326585832	-0.039983
C	 1.8031942589	-1.1257442186	-0.3714085984	-0.046337
C	 1.1187198389	-0.569482022	 0.9148856264	-0.21221
C	 1.9346068197	 0.3787151089	 1.6499354283	 0.281845
N	 2.6003930457	 1.1271593595	 2.228335573	-0.333743
N	 0.9314183683	-1.9678055526	-1.1414917278	-0.079886
C	-0.0161027072	-2.9098209293	-0.568149864	-0.323634
H	 0.9038643809	 2.0318966759	-0.2433828683	 0.13915
H	-0.7732835509	 1.9143310511	-0.8004056709	 0.119274
H	-0.4139864427	 1.9851200164	 0.9330987236	 0.133685
H	-0.9957618345	-0.3475176785	 0.1982625244	 0.086137
H	 0.7704082341	-0.0680600684	-2.2059965081	 0.101503
H	 2.876325211	-1.1801793639	-0.5156072423	 0.115621
H	 0.7715472203	-1.338948184	 1.611877266	 0.121741
H	-0.5656171354	-2.5495139261	 0.3133083438	 0.109007
H	-0.7495273402	-3.1745336533	-1.3352611435	 0.132254
H	 0.5225579176	-3.8189438041	-0.2853422146	 0.133095
100.378	142.4775	163.8203	186.0662	234.4304	249.4857	300.0417	359.439	446.6571	509.4139	552.1744	588.7219	729.7616	765.9169	805.8735	868.6801	908.8848	938.2981	968.54	1007.6383	1050.0368	1065.5857	1091.9486	1113.3379	1122.7409	1160.2561	1183.9544	1191.5508	1229.3303	1268.7875	1270.7891	1334.0606	1360.9315	1387.1018	1416.3057	1456.5832	1491.7529	1495.5435	1497.8003	1500.2923	2350.5253	2998.9193	3039.2292	3050.2524	3062.5263	3078.819	3108.2081	3114.0045	3118.2253	3161.7346	3180.4649
CC1C2C(C1C#N)N2C	C[C@H]1[C@H]2[C@@H]([C@H]1C#N)N2C	
InChI=1S/C7H10N2/c1-4-5(3-8)7-6(4)9(7)2/h4-7H,1-2H3	InChI=1S/C7H10N2/c1-4-5(3-8)7-6(4)9(7)2/h4-7H,1-2H3/t4-,5+,6+,7-,9?/m1/s1
