19
gdb 52656	3.46789	0.82241	0.68784	1.2068	87.51	-0.2423	0.0279	0.2702	1643.9026	0.154669	-385.829285	-385.818016	-385.817072	-385.867095	39.119	
C	 0.0196394307	 1.48602183	 0.0451332781	-0.499389
C	 0.0000551685	 0.0304767885	 0.0204219142	 0.071545
C	-0.0004525495	-1.1733691545	 0.0016058455	 0.081738
C	-0.0428848837	-2.6330994678	-0.0355338978	-0.192145
C	-1.4935157277	-3.1488440912	-0.1004833669	-0.39662
C	 0.8111934136	-3.1672532445	-1.2281474761	-0.031465
O	 2.1245438489	-2.6304698115	-1.2303859009	-0.41092
C	 0.8407713816	-4.6340081861	-1.2461545324	 0.297551
C	 0.9084167431	-5.8344125312	-1.2192083703	-0.450157
H	 0.8251047885	 1.8813617287	-0.5836338857	 0.150717
H	-0.9236657508	 1.9058828651	-0.3215296254	 0.145486
H	 0.1771475269	 1.8650505071	 1.0611058398	 0.146011
H	 0.421747498	-3.0273470823	 0.8801518777	 0.097893
H	-1.5160866805	-4.2412446225	-0.0901821831	 0.12966
H	-2.064386788	-2.7761447612	 0.7531883691	 0.126626
H	-1.9855748597	-2.7970223884	-1.0127061758	 0.12465
H	 0.3546355483	-2.7997877472	-2.154628929	 0.124847
H	 2.6049950707	-3.0293741122	-0.4961285181	 0.283779
H	 0.9636935311	-6.8952207788	-1.2191091229	 0.200194
23.2977	49.7263	76.9611	146.4283	159.9676	215.1067	225.0199	252.4082	279.2923	300.2496	336.5687	410.9611	461.2569	507.1144	549.0415	595.4519	640.1275	667.4222	754.2914	856.2411	970.9738	997.2752	1052.4282	1053.695	1071.3813	1092.9081	1102.506	1186.0704	1251.3044	1281.0399	1326.9152	1357.0619	1404.9045	1414.4314	1422.3828	1478.3819	1479.2724	1495.0881	1498.1295	2228.5386	2372.2477	2996.1729	3026.1115	3045.699	3050.6962	3085.7215	3087.5604	3119.089	3132.1144	3501.6699	3803.3544
CC#CC(C)C(O)C#C	CC#C[C@@H](C)[C@@H](O)C#C	
InChI=1S/C8H10O/c1-4-6-7(3)8(9)5-2/h2,7-9H,1,3H3	InChI=1S/C8H10O/c1-4-6-7(3)8(9)5-2/h2,7-9H,1,3H3/t7-,8+/m1/s1
