18
gdb 70963	4.15472	1.22366	1.10774	1.2241	83.67	-0.2337	0.0307	0.2644	1139.0476	0.146768	-364.71985	-364.711827	-364.710883	-364.75193	31.916	
C	-0.1134236484	 1.4941422567	-0.0135597466	-0.497114
C	-0.0045539358	 0.0036696971	-0.0623768091	 0.343355
C	 0.8829664977	-0.8459788414	-0.9726118013	-0.32647
C	 0.0813871768	-2.0752944236	-0.4422046573	 0.210355
C	 0.4613029155	-2.0564196689	 1.0578318865	-0.188293
N	-0.2574065869	-0.756610768	 1.2207345772	-0.186553
C	-1.0518060823	-1.0441589497	-0.0056089323	-0.153261
C	-0.0515949712	-3.2796680122	-1.2052889063	 0.030286
C	-0.1702393589	-4.2979965021	-1.8356030228	-0.331014
H	 0.8191713185	 1.9418243775	 0.3478065853	 0.126052
H	-0.3230127426	 1.9042156978	-1.0071712218	 0.119889
H	-0.9155451359	 1.7965798044	 0.6646880227	 0.135975
H	 0.662387264	-0.6482518423	-2.0242281	 0.115474
H	 1.9666122325	-0.8561704853	-0.811695583	 0.098664
H	-0.0590111533	-2.8215261657	 1.6380858791	 0.119047
H	 1.5276178801	-2.0479155464	 1.3114947201	 0.100427
H	-2.1328546313	-1.0481840774	-0.0615850096	 0.102096
H	-0.2715072385	-5.1954508004	-2.3939641209	 0.181086
128.9951	142.9076	194.5447	261.3488	303.4525	412.0032	448.9923	488.6749	516.9668	542.9396	616.8931	621.9197	644.0006	711.636	753.7216	838.6211	900.6999	914.5033	957.0533	972.7554	1002.6876	1017.9823	1026.6175	1086.9894	1104.0315	1142.879	1153.33	1160.2042	1198.2981	1252.8122	1276.4969	1327.7991	1395.7575	1435.3676	1484.999	1491.0474	1494.6615	1514.3188	2232.0189	3032.8392	3035.1913	3044.1098	3094.0307	3111.1351	3114.3186	3119.7684	3199.4833	3502.0583
CC12CC3(CN1C23)C#C	C[C@@]12C[C@]3(CN1[C@@H]23)C#C	
InChI=1S/C8H9N/c1-3-8-4-7(2)6(8)9(7)5-8/h1,6H,4-5H2,2H3	InChI=1S/C8H9N/c1-3-8-4-7(2)6(8)9(7)5-8/h1,6H,4-5H2,2H3/t6-,7-,8-,9?/m0/s1
