20
gdb 96112	2.24243	1.75411	1.23012	2.5871	74.09	-0.2417	0.0651	0.3069	1078.3051	0.172417	-440.265001	-440.256618	-440.255673	-440.297533	33.053	
C	 0.0218720995	 1.5292713495	-0.0177119611	-0.484047
C	 0.064398518	 0.0191006304	-0.0259995413	 0.303484
N	-0.8583320357	-0.7395083922	 0.8479254547	-0.383283
C	 0.595002166	-0.7370892299	 1.1383693368	-0.103684
C	 1.3428836864	-2.0450490559	 0.9260152742	-0.081138
O	 1.6824018252	-2.2821015133	-0.4288795666	-0.24574
C	 0.5742676222	-2.1094550379	-1.2926355286	-0.122632
C	 0.1765235648	-0.628533108	-1.4000327499	 0.072703
O	-1.037282815	-0.4845950669	-2.1226696369	-0.438185
H	 0.9577880098	 1.9491330317	-0.4021067468	 0.128489
H	-0.7914955017	 1.8880206169	-0.6565511373	 0.13802
H	-0.1300255321	 1.9182081709	 0.9947199024	 0.107863
H	-1.3383599659	-0.1050140166	 1.4818197686	 0.228524
H	 0.9165130554	-0.1516846914	 1.9975336034	 0.088625
H	 2.2915058323	-2.0228007485	 1.4708277476	 0.108459
H	 0.7374885156	-2.8768714608	 1.3208338091	 0.098559
H	 0.8705724124	-2.4865325749	-2.2744600498	 0.112154
H	-0.2929671388	-2.6919727852	-0.9434231229	 0.09486
H	 0.937851489	-0.0980673301	-1.9824551386	 0.089917
H	-1.7262680373	-0.8400555977	-1.5459812071	 0.287053
97.7586	200.0857	233.1314	236.2466	264.3005	331.2438	368.8488	413.9007	462.6881	476.8716	504.4386	565.1697	690.2963	717.1725	799.5577	872.5814	896.6559	956.1915	976.6004	1016.5597	1028.6864	1065.307	1083.2892	1092.2174	1108.0149	1129.2097	1148.2187	1207.8829	1245.3553	1267.428	1302.2444	1325.7143	1329.8347	1378.008	1388.4421	1408.6963	1418.2878	1429.3498	1458.8299	1482.9315	1484.2283	1494.1883	1505.2404	2976.1719	2986.2179	3029.2473	3056.2784	3079.9829	3097.0122	3102.175	3105.9595	3125.8165	3492.4872	3768.9131
CC12NC1COCC2O	C[C@]12N[C@H]1COC[C@H]2O	
InChI=1S/C6H11NO2/c1-6-4(7-6)2-9-3-5(6)8/h4-5,7-8H,2-3H2,1H3	InChI=1S/C6H11NO2/c1-6-4(7-6)2-9-3-5(6)8/h4-5,7-8H,2-3H2,1H3/t4-,5+,6-/m0/s1
