25
gdb 103749	3.00418	0.99789	0.87595	1.246	89.8	-0.2484	0.0711	0.3195	1497.4286	0.225959	-389.489725	-389.478411	-389.477467	-389.525666	42.39	
C	 0.3719195646	 1.387011409	 0.3541970034	-0.380421
C	-0.2021124414	 0.0783830514	-0.2035339381	-0.234509
C	 0.5642524537	-0.4779697749	-1.4006467257	 0.298511
C	 0.4328932027	 0.3619436386	-2.6603371402	-0.464853
C	 1.901901292	-1.1548808033	-1.1213338307	-0.39684
C	 0.6988627642	-1.9840345942	-1.5173340975	 0.350419
O	 0.0631953962	-2.7135841844	-0.4901247501	-0.467333
C	 0.6571269309	-2.7091127244	-2.8526948333	-0.220238
C	 1.3378925053	-4.0832009431	-2.8050338087	-0.395131
H	 1.4174892719	 1.2617832426	 0.6560288746	 0.112599
H	 0.3338773042	 2.2019828781	-0.3756666212	 0.112435
H	-0.1930005321	 1.7111889584	 1.2340403326	 0.108761
H	-0.2230855155	-0.6770553417	 0.58440419	 0.112993
H	-1.2480933077	 0.2369156329	-0.4993611743	 0.089396
H	 0.7363540053	 1.3960927974	-2.4668734063	 0.117901
H	 1.056634844	-0.0036451486	-3.4789873495	 0.112666
H	-0.6050646216	 0.3835386356	-3.0133482603	 0.115527
H	 2.7082630054	-1.028713857	-1.8380461955	 0.101244
H	 2.224777169	-1.2161948846	-0.086430732	 0.103828
H	 0.6643835281	-3.4118448628	-0.2115691901	 0.282259
H	-0.3916996034	-2.8331178291	-3.1504099154	 0.102761
H	 1.1355584995	-2.100046487	-3.624381352	 0.095176
H	 2.3901924425	-3.9954080513	-2.5117997969	 0.114532
H	 0.8390174775	-4.7473021411	-2.091701619	 0.113562
H	 1.3033166948	-4.5716662966	-3.7832316937	 0.114754
67.6287	88.2054	124.0829	152.6852	198.3989	225.535	241.0672	257.0066	295.8168	321.0262	328.7391	373.5609	403.1025	427.4397	469.0933	611.7413	686.6231	714.7968	786.323	791.047	890.2087	899.0455	918.7017	950.4348	991.2041	1015.463	1024.4176	1048.416	1067.6276	1068.5251	1095.5549	1127.6477	1190.3273	1202.7237	1265.5921	1302.4471	1312.0037	1328.6211	1357.5011	1369.1254	1403.2138	1406.0263	1407.6598	1421.0189	1472.1158	1482.0273	1489.3011	1494.3476	1499.5555	1503.8527	1509.3953	1511.0102	1513.9284	3018.4663	3028.4638	3031.1947	3032.9582	3034.4659	3082.6877	3086.7981	3093.159	3099.771	3102.4724	3107.5846	3114.3065	3115.7535	3120.6654	3202.488	3810.4425
CCC1(C)CC1(O)CC	CC[C@@]1(C)C[C@]1(O)CC	
InChI=1S/C8H16O/c1-4-7(3)6-8(7,9)5-2/h9H,4-6H2,1-3H3	InChI=1S/C8H16O/c1-4-7(3)6-8(7,9)5-2/h9H,4-6H2,1-3H3/t7-,8+/m0/s1
