18
gdb 67631	2.40663	1.95319	1.61531	2.5524	74.44	-0.2182	0.0732	0.2914	932.1245	0.148129	-401.892353	-401.884888	-401.883943	-401.923739	30.212	
C	-0.0991615314	 1.4926145883	 0.0529607487	-0.507844
C	-0.0424790012	 0.0024203137	-0.0037578439	 0.308306
C	-0.1017310895	-0.8880891709	-1.235994153	-0.20735
C	 1.0288757144	-1.8949647442	-1.1913290975	-0.248216
C	 1.115344767	-2.0455945819	 0.3123985552	-0.043435
C	-0.2139175292	-1.8759198883	 0.9533849074	-0.139799
N	 0.7907747946	-0.7636473769	 1.0150654943	-0.185444
C	-1.0645279057	-1.0906717103	-0.0655879542	 0.324747
O	-2.4365901918	-1.0013048152	-0.1160811149	-0.465019
H	 0.8723967455	 1.930934331	-0.20229415	 0.123435
H	-0.8439798005	 1.8756160982	-0.6509234237	 0.125279
H	-0.3698025268	 1.834261062	 1.0569446705	 0.132394
H	-0.4960498029	-0.4712498168	-2.1548373133	 0.091575
H	 0.7879633195	-2.8428423651	-1.6861384199	 0.101787
H	 1.9588240541	-1.5061315205	-1.6202019484	 0.109452
H	 1.8959556712	-2.6345596365	 0.78259625	 0.095156
H	-0.5688722598	-2.3725381238	 1.8494074345	 0.097827
H	-2.7728814575	-1.7242688527	-0.6580747918	 0.287147
168.7276	179.9558	237.3735	277.6794	333.0473	357.9659	415.2531	576.4207	609.2693	627.6944	727.5114	746.352	758.5774	805.213	847.377	871.2498	893.6641	931.0467	953.7338	987.7721	1012.5345	1035.3764	1069.4577	1100.2882	1112.9851	1162.0983	1173.2637	1194.708	1223.6111	1242.8708	1284.5092	1317.8252	1339.6766	1369.4947	1412.9773	1476.7434	1489.9596	1491.7158	1521.6036	3030.8212	3038.4775	3080.3333	3094.5971	3112.5119	3168.5484	3179.7913	3197.2927	3781.196
CC12C3CC4C(N14)C23O	C[C@@]12[C@H]3C[C@@H]4[C@@H](N14)[C@@]23O	
InChI=1S/C7H9NO/c1-6-4-2-3-5(8(3)6)7(4,6)9/h3-5,9H,2H2,1H3	InChI=1S/C7H9NO/c1-6-4-2-3-5(8(3)6)7(4,6)9/h3-5,9H,2H2,1H3/t3-,4-,5-,6+,7-,8?/m1/s1
