16
gdb 33587	3.99647	1.50224	1.36681	1.3282	79.44	-0.2215	0.0304	0.2519	955.472	0.125166	-363.487586	-363.481	-363.480055	-363.518338	27.292	
C	 0.060832884	-1.1275231532	-0.0274913088	-0.368391
C	 0.0007101916	 0.0752897949	-0.0192318229	 0.039054
C	-0.0851748463	 1.4883129238	 0.0260955095	 0.30172
C	 0.0933835837	 2.4235990453	-1.209084524	-0.144517
C	 0.9899872261	 2.5526943118	-0.0229837129	-0.092796
N	 0.0281455819	 3.549600464	 0.5989671666	-0.188539
C	-0.755974641	 3.6099407348	-0.7327643776	-0.011847
C	-2.0133417038	 3.080658655	-0.0223061861	-0.25104
C	-0.972655895	 2.4128064905	 0.8886504046	-0.080285
H	 0.1170827438	-2.1875078306	-0.0378332082	 0.178977
H	 0.2869726544	 2.0271723395	-2.1966367522	 0.106139
H	 2.061308564	 2.508316322	 0.1244633333	 0.110167
H	-0.7387387876	 4.5393499484	-1.3017587099	 0.085385
H	-2.5422365731	 3.8829776854	 0.4989612159	 0.118047
H	-2.7120868885	 2.4508792231	-0.5770323863	 0.109627
H	-1.1644649244	 2.1343664954	 1.923998319	 0.088299
137.4032	158.3597	380.9408	446.4158	494.2863	530.0922	563.1926	589.2554	664.0697	722.2995	774.8781	785.267	807.4793	877.7117	882.1841	912.4146	923.3149	945.0546	957.1497	996.0514	1012.2086	1012.7675	1066.6733	1090.964	1133.5222	1160.3641	1190.2455	1207.6848	1234.3921	1248.5856	1280.68	1303.4415	1394.1269	1475.6779	2230.175	3065.9745	3116.9302	3127.3045	3130.1679	3195.534	3212.9185	3503.529
C#CC12C3C1N1C3CC21	C#C[C@]12[C@@H]3[C@H]1N1[C@@H]3C[C@@H]21	
InChI=1S/C8H7N/c1-2-8-5-3-4-6(8)7(8)9(4)5/h1,4-7H,3H2	InChI=1S/C8H7N/c1-2-8-5-3-4-6(8)7(8)9(4)5/h1,4-7H,3H2/t4-,5+,6+,7-,8+/m1/s1
