17
gdb 74189	2.44853	1.68477	1.1013	5.5304	78.83	-0.2094	-0.0277	0.1817	1081.4208	0.137785	-418.016917	-418.009163	-418.008219	-418.049029	30.559	
N	 0.0958723275	 1.34650266	 0.222387181	-0.572386
C	-0.0012190853	-0.0063727288	 0.035267666	 0.408675
C	-1.1824912884	-0.6765270915	-0.0264928807	-0.329871
C	-1.2474080582	-2.1228673764	-0.0567451183	 0.361798
O	-2.285093306	-2.7511907933	-0.1954379358	-0.366347
C	 0.0662513225	-2.8868387629	 0.1742016404	-0.273205
N	 1.3307435044	-2.1787948065	-0.0360813289	-0.099364
C	 1.5639698448	-1.5231249836	-1.3072320116	-0.243685
C	 1.2971351569	-0.7188201287	-0.0659752276	-0.11514
H	 0.9379818249	 1.8111703051	-0.0775661145	 0.261809
H	-0.7453808562	 1.8948103908	 0.1349867074	 0.264179
H	-2.1290443095	-0.1443915258	-0.0297875217	 0.084005
H	 0.0489196802	-3.2360922969	 1.2141871779	 0.134008
H	 0.0571636532	-3.7807980932	-0.4552848505	 0.13444
H	 2.5776510051	-1.597591996	-1.6935199338	 0.121996
H	 0.7753432908	-1.5265400896	-2.0572193164	 0.12806
H	 2.1301771832	-0.2310166727	 0.4380240271	 0.101026
90.5514	166.9076	252.9092	327.0006	348.6201	399.4259	463.4295	472.4051	486.2429	501.0542	571.7061	627.387	680.4713	757.5012	848.5559	859.4499	888.8008	906.2055	986.41	1030.7516	1052.4089	1098.6482	1112.9827	1116.8648	1156.2995	1249.9973	1262.6712	1290.9338	1324.2549	1334.085	1362.726	1450.7557	1461.7221	1500.0134	1637.243	1672.3864	1747.0649	3034.9314	3094.0983	3099.2803	3114.4163	3173.5936	3184.778	3584.9419	3697.7444
NC1=CC(=O)CN2CC12	NC1=CC(=O)CN2C[C@@H]12	
InChI=1S/C6H8N2O/c7-5-1-4(9)2-8-3-6(5)8/h1,6H,2-3,7H2	InChI=1S/C6H8N2O/c7-5-1-4(9)2-8-3-6(5)8/h1,6H,2-3,7H2/t6-,8?/m0/s1
