18
gdb 78387	2.89272	1.47296	1.24472	2.2644	70.96	-0.213	0.054	0.2671	1045.5447	0.147729	-438.987952	-438.980136	-438.979192	-439.019857	31.123	
O	-0.0724745898	 1.3847915932	 0.0165915967	-0.430923
C	 0.0034760141	-0.0146601565	 0.0061606249	 0.064131
C	-1.356914724	-0.6407875348	 0.0448004896	-0.086252
C	-0.5341479345	-0.6572747799	-1.2537246043	-0.08103
N	-0.5114604895	-2.134564512	-1.2869832274	-0.133077
C	 0.6505029491	-2.8191414267	-0.6205621355	-0.224981
C	-0.1742691715	-2.9850325071	 0.6981150739	 0.088518
O	 0.3198933919	-2.4089875892	 1.8846066595	-0.417826
C	-1.2978068652	-2.1688290224	-0.0007148607	-0.010998
H	 0.6492264538	 1.7223897034	-0.5242323377	 0.287669
H	 0.8224791066	-0.4371066535	 0.5813175065	 0.102919
H	-2.2250699581	-0.0494675843	 0.3045541192	 0.101025
H	-0.6478870135	-0.0789582378	-2.165187725	 0.09174
H	 0.9123022778	-3.7534739057	-1.1259375136	 0.100834
H	 1.5501408121	-2.2056078047	-0.5154334012	 0.104586
H	-0.4791202972	-4.0261808676	 0.8671874744	 0.07677
H	 0.9593699069	-3.0152165924	 2.2716180455	 0.28791
H	-2.2790956791	-2.649173932	-0.0507514848	 0.078985
141.3103	202.2023	243.9154	260.4517	290.0717	314.6022	391.9939	414.3459	497.6934	599.3865	664.7078	754.1156	807.5225	833.4361	847.3558	895.3947	916.4321	951.8705	989.4615	1017.5748	1036.7246	1048.7358	1069.4405	1104.5637	1129.6427	1171.076	1175.2685	1186.1513	1190.6961	1213.3823	1242.0652	1280.6388	1296.838	1306.7698	1307.6106	1347.9075	1431.7349	1442.1552	1490.7643	3008.5018	3044.0511	3063.1735	3097.2992	3143.2856	3156.7205	3202.7851	3805.7583	3817.819
OC1C2C1N1CC(O)C21	O[C@H]1[C@H]2[C@@H]1N1C[C@@H](O)[C@@H]21	
InChI=1S/C6H9NO2/c8-2-1-7-4(2)3-5(7)6(3)9/h2-6,8-9H,1H2	InChI=1S/C6H9NO2/c8-2-1-7-4(2)3-5(7)6(3)9/h2-6,8-9H,1H2/t2-,3-,4+,5+,6+/m1/s1
