21
gdb 100129	3.64702	0.7464	0.7233	3.9143	79.92	-0.244	0.0266	0.2706	1620.8906	0.180246	-420.40462	-420.393728	-420.392784	-420.440774	39.168	
C	-0.032497738	 1.5765159964	 0.1210291725	-0.412844
C	 0.0367932035	 0.0428468836	 0.0865938297	 0.267896
C	 0.7060628524	-0.4979195361	 1.3649062603	-0.415685
C	-1.3930000073	-0.5190909225	-0.0297008792	-0.09399
O	-2.1180982681	-0.1767033791	 1.1399424043	-0.421654
N	 0.7024671253	-0.4064399635	-1.1560469001	-0.329019
C	 2.0602946853	 0.0823817859	-1.3766955183	-0.277085
C	 2.6106876366	-0.4906432646	-2.6088056888	 0.260744
N	 3.055475086	-0.9585959016	-3.5665576391	-0.301137
H	 0.9369831765	 2.02858229	 0.3516190489	 0.109973
H	-0.3783923923	 1.9657969093	-0.8416242198	 0.121746
H	-0.7374470808	 1.8860353245	 0.8950589476	 0.141447
H	 0.1239006899	-0.220353521	 2.2463933656	 0.142556
H	 0.7697478448	-1.5918707043	 1.3361119111	 0.104943
H	 1.7180974009	-0.1001742923	 1.4880636705	 0.109596
H	-1.8576458976	-0.1055643332	-0.9353979125	 0.102038
H	-1.3393690457	-1.6142805534	-0.1525465995	 0.079256
H	-3.0322177533	-0.4474020589	 1.0194143961	 0.293565
H	 0.7197414693	-1.4222794096	-1.1713590799	 0.224351
H	 2.0416950173	 1.1711791416	-1.4917359056	 0.159912
H	 2.7737201051	-0.1358682413	-0.5634110536	 0.13339
49.3355	99.5968	110.1581	134.1077	215.8976	224.6669	248.7026	275.321	286.6887	337.5635	368.1553	389.3622	394.3168	442.0857	509.2932	611.0439	752.4372	774.1198	906.063	919.3328	944.9157	961.852	995.0901	1016.6174	1054.7933	1076.7626	1121.9506	1181.7455	1214.4416	1238.1399	1253.1889	1282.3327	1307.6408	1373.3739	1393.8317	1410.3783	1453.7725	1482.0132	1489.0912	1494.3848	1501.3314	1510.5761	1518.2542	1522.1567	2367.5033	2956.2854	2958.236	3023.6176	3032.5468	3042.5334	3071.27	3098.3837	3108.7082	3128.6335	3136.9499	3504.2047	3843.1053
CC(C)(CO)NCC#N	CC(C)(CO)NCC#N	
InChI=1S/C6H12N2O/c1-6(2,5-9)8-4-3-7/h8-9H,4-5H2,1-2H3	InChI=1S/C6H12N2O/c1-6(2,5-9)8-4-3-7/h8-9H,4-5H2,1-2H3
