21
gdb 101414	3.10251	1.01992	0.9266	1.857	80.43	-0.2164	0.0228	0.2392	1374.5861	0.181997	-420.387334	-420.377554	-420.37661	-420.42261	35.43	
C	-0.2038348286	 1.5959677967	-0.0326842875	-0.395788
C	-0.0154932556	 0.0792422341	 0.0026887337	-0.120814
N	 0.7907394181	-0.4262881718	-1.1160060894	-0.064722
C	 2.1806014761	 0.0196982043	-1.0599530783	-0.344368
C	 0.6422978091	-1.8454629398	-1.3138377923	-0.082285
C	 1.1888485994	-2.5017733296	-2.6081347231	-0.119454
O	 1.946732553	-3.462678613	-1.811209985	-0.254611
C	 1.5642808654	-2.8641634273	-0.6259881661	 0.41141
N	 1.9084285064	-3.0996859653	 0.5565892182	-0.545982
H	 0.7260499747	 2.136357258	 0.1652927178	 0.121478
H	-0.5844200282	 1.9133248565	-1.0082538553	 0.121846
H	-0.9229409256	 1.8966265061	 0.735434153	 0.117105
H	 0.4099182911	-0.2227803038	 0.975480579	 0.108709
H	-0.999833657	-0.396648012	-0.0693655846	 0.099855
H	 2.6978097855	-0.3027925102	-0.1415169266	 0.122608
H	 2.7368908508	-0.3702508436	-1.9166034258	 0.120146
H	 2.2229073741	 1.1092318781	-1.1195763577	 0.124022
H	-0.4061285612	-2.1085144586	-1.1498139954	 0.109568
H	 0.4585513232	-3.0057313771	-3.2451172106	 0.120582
H	 1.8520602327	-1.8787595825	-3.2117060557	 0.12393
H	 2.5811200166	-3.8677154491	 0.6066946515	 0.226765
54.1675	76.6162	108.8253	156.8892	199.5658	248.248	258.6746	336.6078	368.7999	387.0733	453.1467	490.2532	673.3436	731.4439	792.8602	806.7932	866.8238	889.6388	939.5029	969.3486	996.3192	1008.9212	1066.8716	1075.9979	1112.7945	1132.0724	1152.3925	1166.8224	1210.5075	1229.3181	1235.8229	1269.7191	1340.317	1349.0329	1389.538	1401.2057	1426.7859	1462.6764	1486.6847	1491.3201	1503.791	1506.6727	1516.0956	1525.06	1814.0365	2958.9064	2978.2597	3041.9709	3052.4178	3068.3102	3076.059	3087.3172	3111.1746	3116.3701	3124.3044	3129.1039	3463.7965
CCN(C)C1COC1=N	CCN(C)[C@H]1CO[C]1[NH]	
InChI=1S/C6H12N2O/c1-3-8(2)5-4-9-6(5)7/h5,7H,3-4H2,1-2H3	InChI=1S/C6H12N2O/c1-3-8(2)5-4-9-6(5)7/h5,7H,3-4H2,1-2H3/t5-/m0/s1
