14
gdb 48120	3.28605	1.26013	1.03739	1.0398	62.98	-0.2549	-0.1095	0.1454	1104.6824	0.100077	-473.84173	-473.833674	-473.83273	-473.875744	27.548	
O	-0.9287554344	 1.5624510077	 0.1742166665	-0.215111
C	 0.0993612266	 1.0779481508	-0.2218570685	 0.08044
C	 1.4031626201	 1.877828869	-0.3395880448	 0.271405
O	 2.4107967756	 1.3205369504	-0.6946923662	-0.261869
C	 1.3077011824	 3.3390427398	 0.0606337882	-0.012406
C	 1.3172195317	 3.5267776916	 1.6192772723	-0.202416
N	 2.562007837	 4.2573563457	 1.8838729818	-0.250906
C	 3.092951118	 4.4743636666	 0.7568489542	 0.127664
O	 2.4800577868	 4.041962144	-0.3758598295	-0.208823
H	 0.2043969181	 0.0175053979	-0.5308371637	 0.12112
H	 0.4256155933	 3.7894481145	-0.4000738171	 0.129622
H	 0.4520794194	 4.099430102	 1.9638046201	 0.139808
H	 1.3168512349	 2.5753029057	 2.1604180876	 0.128658
H	 4.0246151205	 5.0000674441	 0.584693839	 0.152813
52.0667	71.699	130.4515	155.836	239.7959	292.9156	479.0427	519.4265	546.2941	632.1729	757.2612	787.251	876.1865	956.3485	972.1484	980.1181	987.2684	1025.1252	1061.9441	1122.4151	1176.2967	1197.3729	1272.4037	1311.888	1331.598	1360.0119	1376.7184	1499.8561	1714.3028	1816.9727	1820.0883	2936.8826	3053.6516	3085.2055	3099.692	3230.0468
O=CC(=O)C1CN=CO1	O=CC(=O)[C@H]1CN=CO1	
InChI=1S/C5H5NO3/c7-2-4(8)5-1-6-3-9-5/h2-3,5H,1H2	InChI=1S/C5H5NO3/c7-2-4(8)5-1-6-3-9-5/h2-3,5H,1H2/t5-/m1/s1
