21
gdb 113209	3.25387	0.97221	0.85109	1.821	78.89	-0.2455	0.0467	0.2922	1417.1895	0.182319	-420.345586	-420.335925	-420.33498	-420.380481	35.939	
C	-0.0355918145	 1.8115999552	 0.189429399	-0.448307
C	-0.0655830387	 0.2957438845	 0.1347848775	 0.282512
N	 1.0274100916	-0.3321385699	-0.6258191035	-0.387015
C	 0.9399349922	-0.5550261006	 0.8371490318	-0.069706
C	 2.1287812999	-0.0587702535	 1.6278646104	-0.07631
O	 3.2833472781	-0.8287298038	 1.3348013537	-0.419623
C	-1.4733929556	-0.2411544203	 0.0122391119	-0.045572
C	-2.0792555563	-0.5090286041	-1.3173848744	-0.246783
N	-1.7859894962	-1.615658488	-0.3856305523	-0.325773
H	 0.9863431235	 2.192141737	 0.1918934268	 0.132045
H	-0.5454362016	 2.2266772657	-0.6864585213	 0.124222
H	-0.5494054729	 2.1811213512	 1.083581433	 0.120384
H	 0.7103021157	-1.1539734082	-1.1360557747	 0.216991
H	 0.5851972245	-1.535327363	 1.1529605876	 0.094742
H	 2.3054937328	 1.0080810629	 1.435571136	 0.089287
H	 1.9431560546	-0.1766782388	 2.7007043893	 0.110325
H	 3.3999793811	-0.7733588769	 0.3787904791	 0.289197
H	-2.1295515556	 0.1272053453	 0.7995648979	 0.099149
H	-3.1348658307	-0.3248498594	-1.4937052214	 0.123239
H	-1.4438713887	-0.3844649823	-2.1910127221	 0.116707
H	-0.9503991433	-2.1161468228	-0.6826992244	 0.220288
57.4558	84.8717	142.6264	160.7517	194.0584	270.7582	277.5034	344.7997	375.4678	432.5821	469.9746	511.3047	610.0833	675.6595	804.9592	839.7411	853.9827	889.9616	940.9773	960.0996	972.2141	994.7382	1016.5697	1051.6431	1084.404	1086.9627	1107.118	1135.0621	1159.485	1183.7969	1189.1157	1240.3879	1253.9891	1281.544	1297.1216	1332.7763	1372.0362	1414.18	1415.898	1424.3248	1463.7638	1491.1865	1496.7119	1506.957	1513.1813	3012.6055	3038.5574	3075.0809	3097.6751	3107.6942	3116.6294	3120.0331	3142.0514	3194.2493	3468.2138	3483.8503	3789.297
CC1(NC1CO)C1CN1	C[C@]1(N[C@H]1CO)[C@H]1CN1	
InChI=1S/C6H12N2O/c1-6(4-2-7-4)5(3-9)8-6/h4-5,7-9H,2-3H2,1H3	InChI=1S/C6H12N2O/c1-6(4-2-7-4)5(3-9)8-6/h4-5,7-9H,2-3H2,1H3/t4-,5+,6+/m1/s1
