23
gdb 101105	3.12327	1.13309	0.99163	1.0586	86.85	-0.2483	0.0846	0.333	1325.7663	0.205125	-388.235228	-388.225808	-388.224864	-388.269917	35.588	
C	 0.0114965466	 1.3433080873	-0.0496674484	-0.227197
O	-0.0305259014	-0.0484256906	 0.1535054389	-0.251647
C	-1.3255290219	-0.6316335185	 0.0509860153	-0.029643
C	-1.7958327327	-0.7445213259	-1.4025488433	-0.411027
C	-1.233518887	-1.9763704055	 0.7309225741	 0.401055
C	-0.338906645	-3.1911616738	 0.3254649104	-0.247242
C	-1.1082483346	-3.6391664319	 1.600821679	-0.051178
C	-0.7891518005	-2.2415430695	 2.2011367341	-0.259161
C	-2.3819211745	-3.0033029595	 0.9732085778	-0.270535
H	 1.0330368988	 1.6686250515	 0.1643833893	 0.124883
H	-0.2332870026	 1.6325891871	-1.0823836764	 0.104232
H	-0.6767615521	 1.8747368189	 0.6271037751	 0.100779
H	-2.0443383222	-0.0089319623	 0.6136666317	 0.058406
H	-2.7778228087	-1.225016608	-1.4500564047	 0.119448
H	-1.8855429869	 0.2385401023	-1.872960985	 0.1139
H	-1.0872560354	-1.3419189799	-1.9840567805	 0.125848
H	-0.5968176455	-3.7034377332	-0.6061512596	 0.083962
H	 0.7401772759	-3.0503973761	 0.4221402645	 0.096924
H	-1.038738783	-4.6038842679	 2.1041359247	 0.068774
H	 0.2563605249	-2.0287991497	 2.4351837678	 0.096183
H	-1.4600992224	-1.8792642038	 2.9862287628	 0.08125
H	-3.1725101193	-2.6987031904	 1.6660071776	 0.085309
H	-2.7941510803	-3.5003782107	 0.0900391748	 0.086677
52.2682	73.5966	141.9236	180.665	203.8561	246.0478	316.5447	358.7837	400.1682	483.1836	545.2193	552.6686	693.5681	795.5913	803.3865	853.4392	887.0203	937.5995	952.4446	954.9479	962.2902	993.3217	1029.6935	1059.3666	1095.1429	1100.7199	1109.8143	1136.3871	1141.8818	1150.0462	1166.0604	1174.289	1182.4313	1222.3872	1228.0787	1238.0473	1243.399	1309.4602	1365.8885	1388.9577	1399.1476	1476.8737	1482.9384	1492.1529	1497.7985	1498.6316	1502.9239	1512.1997	1554.8179	2939.0363	2972.5079	3020.2992	3038.0624	3042.1445	3045.1204	3051.3802	3102.4743	3106.3986	3107.3564	3113.0375	3115.3221	3118.564	3119.894
COC(C)C12CC(C1)C2	CO[C@@H](C)[C@@]12C[C@@H](C1)C2	
InChI=1S/C8H14O/c1-6(9-2)8-3-7(4-8)5-8/h6-7H,3-5H2,1-2H3	InChI=1S/C8H14O/c1-6(9-2)8-3-7(4-8)5-8/h6-7H,3-5H2,1-2H3/t6-,7-,8-/m0/s1
