16
gdb 18990	3.84111	2.26605	2.15622	1.9906	62.51	-0.2438	0.0597	0.3034	712.8647	0.132629	-383.668099	-383.662253	-383.661309	-383.697955	23.458	
C	 0.2742085101	 1.5553147115	-0.2111779641	-0.088651
O	 1.5657390584	 1.4053226322	 0.4448180799	-0.291584
C	 1.3282910721	 0.0080824356	 0.6940565964	 0.103867
C	-0.0258664602	 0.0557433134	-0.0629216604	-0.104517
C	 0.588900864	-0.8681002045	-1.1642814395	 0.103867
O	 1.2382298338	-0.1822785385	-2.2500085648	-0.291584
C	 2.5407682142	-0.30640846	-1.6105839157	-0.088651
C	 1.9196911581	-0.9706532569	-0.3721241158	-0.104518
H	-0.3844869082	 2.2091796969	 0.3718203272	 0.101603
H	 0.3724180363	 1.9287765611	-1.2339298175	 0.124933
H	 1.4594394336	-0.2602807725	 1.7459947831	 0.077522
H	-0.9805930898	-0.2494838595	 0.3635902155	 0.076827
H	-0.0164728196	-1.7137058746	-1.5023141088	 0.077522
H	 3.1993756695	-0.9604842475	-2.1934451	 0.101603
H	 3.015206746	 0.665307187	-1.4499073972	 0.124933
H	 2.3476099717	-1.9029114039	-0.005574088	 0.076827
137.8679	265.2476	297.6526	472.3923	534.9267	661.0827	726.5462	788.4459	828.2265	842.088	885.3457	930.7374	941.7468	953.8812	988.9278	998.8339	1014.2073	1076.617	1079.1111	1082.0685	1145.4292	1169.2803	1181.4301	1191.6741	1205.4311	1239.9318	1283.3949	1292.709	1301.3986	1324.7529	1349.8498	1374.5055	1504.7383	1512.3845	3031.1186	3031.5504	3066.3574	3066.4213	3099.1403	3099.9224	3117.6892	3122.4295
C1OC2C1C1OCC21	C1O[C@H]2[C@@H]1[C@H]1OC[C@@H]21	
InChI=1S/C6H8O2/c1-3-5(7-1)4-2-8-6(3)4/h3-6H,1-2H2	InChI=1S/C6H8O2/c1-3-5(7-1)4-2-8-6(3)4/h3-6H,1-2H2/t3-,4+,5+,6-/m1/s1
