17
gdb 38077	3.57209	1.89238	1.85293	1.2434	75.37	-0.2339	-0.0052	0.2288	819.2702	0.139784	-384.68073	-384.675038	-384.674094	-384.710275	25.459	
O	-0.0294166478	 1.4586198487	 0.0405965874	-0.28366
C	 1.3722929471	 1.8424704629	 0.0219706327	 0.053821
C	 1.8110746458	 1.718201825	 1.4701001831	-0.086651
C	 1.810520852	 0.4085461927	 1.7482253602	-0.089003
C	 1.4631235523	-0.3246176501	 0.4852106482	-0.085848
C	 0.0112342121	 0.0077524031	-0.035645061	 0.053821
C	 0.1337675744	-0.283222451	-1.5206936215	-0.086651
C	 1.3588717187	 0.1205468724	-1.879359701	-0.089003
C	 2.0646729806	 0.5885736528	-0.639918499	-0.085848
H	 1.4705451756	 2.8062000991	-0.474908911	 0.074862
H	 1.9241002879	 2.5466877179	 2.1575148643	 0.100917
H	 1.9580338708	-0.0595098058	 2.7132360015	 0.100367
H	 1.709891701	-1.3833187	 0.4168479076	 0.073364
H	-0.837225341	-0.4009951339	 0.5105775873	 0.074862
H	-0.6818638129	-0.5919386354	-2.1618974486	 0.100917
H	 1.7660110445	 0.1782898912	-2.8808512354	 0.100367
H	 3.1513274289	 0.6608483904	-0.6592589547	 0.073364
324.9695	353.1672	432.4265	450.0079	576.9794	582.1878	700.6714	700.8257	739.6473	791.5285	809.1293	826.4705	893.8011	906.8325	911.7715	926.9071	933.5021	934.5565	964.1389	965.4578	987.1787	1006.6345	1021.848	1123.9098	1125.6888	1154.5943	1219.736	1224.9142	1241.2702	1260.0909	1284.9868	1305.8049	1331.3443	1347.9098	1352.7444	1629.8572	1639.0003	3124.8766	3128.204	3133.414	3137.7373	3200.1776	3200.2557	3225.1636	3225.5935
O1C2C=CC3C1C=CC23	O1[C@H]2C=C[C@H]3[C@@H]1C=C[C@@H]23	
InChI=1S/C8H8O/c1-3-7-6-2-4-8(9-7)5(1)6/h1-8H	InChI=1S/C8H8O/c1-3-7-6-2-4-8(9-7)5(1)6/h1-8H/t5-,6-,7+,8+/m1/s1
