17
gdb 33865	4.12287	1.27538	1.14055	5.4204	76.03	-0.2589	0.0175	0.2763	1075.0107	0.13852	-380.851683	-380.84454	-380.843596	-380.883118	28.605	
N	-0.0647080206	-1.1178558563	 0.2015489992	-0.34381
C	-0.0275303753	 0.0348771375	 0.1168597942	 0.257128
C	 0.0062499692	 1.4690655706	-0.0374520181	 0.154949
C	-1.0126353448	 2.1094256898	-0.9933083148	-0.318646
C	-0.3162703067	 3.3125606256	-1.6374541865	-0.031257
C	 0.0987751362	 4.4909763298	-0.7985755312	-0.315836
C	 1.0985122526	 3.3978719788	-1.0923035211	-0.028806
C	 1.2817334021	 2.2752225724	-0.0926664344	-0.081356
N	 0.4902597381	 2.2238116174	 1.1319694813	-0.345739
H	-1.2770586561	 1.3807231204	-1.7649306989	 0.134332
H	-1.9410764646	 2.3712157863	-0.4728777894	 0.123283
H	-0.5179383181	 3.4932246944	-2.6870639154	 0.101105
H	 0.2441552226	 5.4341938568	-1.3141827811	 0.12563
H	-0.3003268338	 4.6149234347	 0.2035644657	 0.114678
H	 1.9438595454	 3.6217229715	-1.7312888148	 0.099099
H	 2.2576478947	 1.8071033896	-0.0204290559	 0.11881
H	-0.0611170208	 3.0644244608	 1.2793863514	 0.236435
128.7188	154.8289	259.1704	286.2182	413.1366	451.7024	547.0713	557.5855	598.7811	666.1481	714.5141	782.9103	800.1322	825.3522	868.1371	899.9856	951.6544	979.4347	1016.6026	1038.4694	1058.5919	1068.4585	1089.3909	1110.1292	1116.7776	1145.2828	1185.0958	1218.3787	1258.7488	1292.2711	1324.2773	1352.5628	1374.2622	1411.8477	1484.5544	1497.8613	2354.6256	3045.9046	3092.9047	3126.1537	3170.3676	3172.3981	3189.5756	3207.1929	3514.9654
N#CC12CC3CC3C1N2	N#C[C@]12C[C@H]3C[C@H]3[C@H]1N2	
InChI=1S/C7H8N2/c8-3-7-2-4-1-5(4)6(7)9-7/h4-6,9H,1-2H2	InChI=1S/C7H8N2/c8-3-7-2-4-1-5(4)6(7)9-7/h4-6,9H,1-2H2/t4-,5-,6-,7-/m1/s1
