19
gdb 29695	2.32699	1.61412	0.97039	3.0463	80.43	-0.1805	0.0369	0.2174	1220.8244	0.15855	-419.264605	-419.2547	-419.253756	-419.299352	35.299	
C	 0.0061937882	 1.4468601867	 0.027840568	-0.34473
N	 0.0251007958	 0.0004617078	 0.0227823282	-0.082755
C	 0.0082393332	-0.8253253317	-1.063036487	 0.323213
C	-0.0334706066	-0.3562645447	-2.4796193066	-0.502014
N	 0.033899612	-2.0967705405	-0.6951658161	-0.397895
C	 0.0679164326	-2.0786653373	 0.6670025967	 0.264125
O	 0.1008904085	-3.2258293755	 1.3903140223	-0.447121
C	 0.0642015561	-0.8033683792	 1.1666158964	 0.17662
C	 0.0928852253	-0.279321229	 2.5592699731	-0.514034
H	 0.9014997395	 1.8508151767	 0.5126435785	 0.140165
H	-0.0247653096	 1.8134013729	-0.9983812337	 0.144714
H	-0.8736126893	 1.8274265928	 0.5578387267	 0.140173
H	 0.8370229997	 0.2556367019	-2.7448342976	 0.12887
H	-0.039002394	-1.235730247	-3.1247448146	 0.153264
H	-0.9310307375	 0.2339135022	-2.7000362878	 0.12885
H	 0.0932478831	-3.9441513655	 0.7467780288	 0.295921
H	 0.9737051036	 0.3443697418	 2.7620937257	 0.120797
H	-0.7931275145	 0.3200239419	 2.8077844441	 0.120807
H	 0.122400644	-1.1241087042	 3.2512770249	 0.151029
64.1504	131.2693	142.7574	153.1958	190.8916	243.0897	258.8134	292.3269	301.3627	352.3988	360.9648	559.2382	586.8321	622.4242	655.0663	724.1541	732.3568	860.2154	986.3446	1024.0204	1056.7358	1066.042	1112.045	1151.143	1174.4254	1213.1752	1308.6781	1356.8511	1407.072	1416.3044	1447.7626	1456.1176	1470.1453	1475.3079	1483.4565	1492.3424	1495.1698	1505.2795	1531.3053	1548.2556	1696.7347	3004.5185	3023.7274	3033.8665	3043.2707	3070.2009	3086.0292	3123.8393	3145.185	3150.015	3808.5504
CN1C(C)=NC(O)=C1C	Cn1c(C)nc(O)c1C	
InChI=1S/C6H10N2O/c1-4-6(9)7-5(2)8(4)3/h9H,1-3H3	InChI=1S/C6H10N2O/c1-4-6(9)7-5(2)8(4)3/h9H,1-3H3
