17
gdb 18775	4.05192	2.3795	2.08639	1.8016	70.07	-0.2238	0.0815	0.3053	732.3587	0.143916	-326.648373	-326.642306	-326.641362	-326.678122	25.018	
C	-0.0457235704	 1.438338828	-0.0148507235	-0.516398
C	 0.0640493273	-0.0479031733	 0.0944653299	 0.365582
C	 0.9906686225	-0.9272185033	-0.6756361856	-0.090376
C	 1.0393758446	-2.1840915191	 0.2154303681	-0.072559
C	 1.0620566917	-1.6845396449	 1.6830137267	-0.250777
C	-0.2561551865	-0.963989686	 1.3015241994	-0.123188
C	-0.5160105791	-2.0209114986	 0.1815761515	 0.027506
N	-0.4914171257	-0.9845741835	-0.9470842667	-0.220267
H	 0.6742388221	 1.9358878045	 0.6452904782	 0.119942
H	 0.1535012601	 1.7604548698	-1.0417110688	 0.130883
H	-1.0496160144	 1.7829968655	 0.2558212808	 0.124462
H	 1.6945970617	-0.580367944	-1.4231715426	 0.089778
H	 1.5808799278	-3.0630080084	-0.1281587962	 0.073222
H	 0.8872414285	-2.5011559262	 2.3911078775	 0.099826
H	 1.9110012766	-1.0785281104	 2.0149048586	 0.094525
H	-0.9932237188	-0.634621703	 2.0317958453	 0.070185
H	-1.2578912881	-2.8164448271	 0.1906618672	 0.077655
185.7524	232.1751	282.8478	409.1083	549.5212	605.5522	735.7487	744.1212	799.3508	809.5724	841.322	859.3309	867.5631	903.8411	936.0079	963.5243	982.358	995.7387	1007.3469	1054.41	1074.3946	1096.5384	1115.6321	1177.9398	1186.618	1217.2036	1222.7421	1227.0219	1258.1309	1281.8867	1305.7373	1401.3526	1435.5051	1480.4418	1483.459	1492.8254	3026.6882	3040.95	3089.4713	3098.5998	3105.7731	3128.5939	3134.5946	3144.0314	3180.5818
CC12C3C4CC1C4N23	C[C@@]12[C@H]3[C@H]4C[C@@H]1[C@H]4N23	
InChI=1S/C7H9N/c1-7-4-2-3-5(4)8(7)6(3)7/h3-6H,2H2,1H3	InChI=1S/C7H9N/c1-7-4-2-3-5(4)8(7)6(3)7/h3-6H,2H2,1H3/t3-,4+,5-,6+,7-,8?/m0/s1
