20
gdb 88082	3.38302	1.24826	1.1428	1.1374	78.88	-0.2356	0.073	0.3086	1165.6436	0.17197	-403.123487	-403.115358	-403.114413	-403.156002	32.007	
C	-0.0281818283	 1.5179675147	-0.0984776023	-0.421125
C	-0.0367845039	 0.0265041901	 0.1211148517	-0.00641
O	 1.2073116107	-0.6745193245	-0.051566614	-0.310413
C	 0.6111063587	-0.6385848629	 1.2563224824	 0.466918
C	 1.3739442129	 0.0566366168	 2.3857998309	-0.309501
C	 1.9234828532	-1.0965701855	 3.2677549875	-0.218517
C	 0.9682889774	-2.2526157017	 3.0204725508	-0.027097
N	-0.4519345371	-1.8569199751	 3.1330889714	-0.349596
C	 0.1797056108	-1.9734119587	 1.7947985563	-0.134705
H	 0.8218440464	 1.9909965189	 0.3976214386	 0.125716
H	 0.0283873548	 1.7460916223	-1.1680953705	 0.126931
H	-0.9507187813	 1.9625436144	 0.290571635	 0.123647
H	-0.8864759456	-0.4902826081	-0.3320234907	 0.079946
H	 2.1653271087	 0.6960590338	 1.9919346934	 0.111523
H	 0.6839798004	 0.676873304	 2.9636465045	 0.122509
H	 2.927392705	-1.3892930562	 2.9403932066	 0.107364
H	 1.9839772052	-0.8173567227	 4.3237722924	 0.103876
H	 1.2539948941	-3.2630918986	 3.2941454006	 0.086818
H	-1.0156219023	-2.6875315168	 3.2973838064	 0.232118
H	-0.1422210499	-2.7443914744	 1.1034283088	 0.089998
98.2509	164.025	188.5965	200.9129	304.4252	368.6993	383.0053	443.3438	504.3628	558.3796	665.4017	743.7347	796.0931	822.9892	836.6438	867.0719	908.9783	919.5215	942.6912	979.4501	993.9696	1027.4594	1052.1773	1073.5267	1116.224	1126.2042	1152.1363	1161.7048	1197.5806	1223.5691	1234.3849	1266.2048	1308.8467	1337.1644	1340.8931	1381.9738	1406.5198	1418.9679	1467.0561	1476.4489	1487.2887	1493.6222	1523.8842	3038.0151	3044.4886	3071.4262	3074.611	3090.2718	3099.0996	3126.5176	3134.6644	3162.0598	3178.8756	3501.5212
CC1OC11CCC2NC12	C[C@H]1O[C@]21CC[C@H]1N[C@@H]21	
InChI=1S/C7H11NO/c1-4-7(9-4)3-2-5-6(7)8-5/h4-6,8H,2-3H2,1H3	InChI=1S/C7H11NO/c1-4-7(9-4)3-2-5-6(7)8-5/h4-6,8H,2-3H2,1H3/t4-,5-,6-,7+/m1/s1
