18
gdb 50337	2.9871	1.43635	1.2756	1.7323	77.09	-0.2202	-0.0245	0.1957	1045.8359	0.14869	-401.936296	-401.928645	-401.927701	-401.969209	28.823	
O	-0.4021822362	 0.4020327655	-0.7491970371	-0.243308
C	 0.6098533554	 0.6137120215	-0.1291674597	 0.141385
C	 1.3530584126	 1.9188334639	-0.1138549875	-0.104238
C	 0.7688815004	 3.1012926725	-0.9101201914	-0.196718
N	 0.8817086278	 3.9914309572	 0.2774950207	-0.090982
C	-0.3705577302	 4.6208887626	 0.7297143166	-0.223945
C	-0.9251320906	 3.6632796081	 1.7616983206	-0.065807
C	-0.0786927809	 2.6617600673	 1.9953386174	-0.082265
C	 1.1660380789	 2.8234374446	 1.1639458567	-0.045647
H	 1.0615897479	-0.1803866742	 0.5098379602	 0.07444
H	 2.414425779	 1.7252089237	-0.298536062	 0.095896
H	 1.3472826605	 3.442808228	-1.7734043681	 0.106083
H	-0.2630568158	 2.9024108328	-1.2241486319	 0.12026
H	-0.1877663369	 5.6145571223	 1.1648250668	 0.109077
H	-1.0486288233	 4.7718270044	-0.1210397648	 0.111912
H	-1.877081496	 3.8158178191	 2.257127514	 0.104112
H	-0.2199680337	 1.8633902418	 2.7141583941	 0.104114
H	 2.0696705811	 2.9149264088	 1.7800347655	 0.085631
60.9583	79.4848	178.4885	249.5454	311.3657	409.9604	473.6854	623.4266	678.8521	700.483	740.2166	806.4619	817.2487	866.2824	927.7317	940.9136	951.8425	963.824	992.4021	1032.1535	1076.1649	1083.6907	1105.9252	1110.4874	1127.4992	1185.4324	1197.3348	1235.6651	1248.6372	1296.4635	1315.5734	1340.2823	1353.9306	1365.8699	1426.6767	1497.0846	1517.141	1672.5206	1821.0813	2860.296	2992.7765	3013.1286	3029.0497	3032.0588	3063.0457	3084.5811	3192.5665	3216.9017
O=CC1CN2CC=CC12	O=C[C@H]1CN2CC=C[C@@H]12	
InChI=1S/C7H9NO/c9-5-6-4-8-3-1-2-7(6)8/h1-2,5-7H,3-4H2	InChI=1S/C7H9NO/c9-5-6-4-8-3-1-2-7(6)8/h1-2,5-7H,3-4H2/t6-,7+/m1/s1
