17
gdb 107815	3.56338	1.51106	1.33039	1.7529	70.67	-0.2525	-0.0149	0.2376	975.3684	0.137739	-417.958137	-417.951097	-417.950153	-417.989528	28.237	
O	 0.0383294448	 1.3911575731	 0.0176054566	-0.419013
C	 0.0669714567	-0.0218681776	 0.0198968365	-0.164752
C	-1.3327367849	-0.5890968269	 0.0235612444	 0.291496
C	-2.2692965749	-0.3784613928	 1.2689372418	-0.262347
C	-2.7804535211	-1.7999869481	 1.0427311071	-0.0431
C	-1.6528501548	-2.1178753201	 0.1352007754	-0.110573
N	-3.0139498897	-2.126432539	-0.4255498911	-0.159711
C	-3.0586337501	-0.9632832071	-1.2597011523	 0.033791
N	-2.1247912847	-0.1103486504	-1.1310530576	-0.240807
H	-0.5701829215	 1.6399639373	-0.6899051388	 0.295606
H	 0.6123942831	-0.4196320355	-0.8523146733	 0.092103
H	 0.6096105687	-0.3313714039	 0.919810555	 0.106103
H	-1.6842542701	-0.3420659137	 2.1912231326	 0.120905
H	-2.9656814789	 0.4622971639	 1.2281472648	 0.111586
H	-3.3253675928	-2.4266535125	 1.7369785625	 0.11237
H	-1.0139251165	-2.9878225602	 0.0315012576	 0.103301
H	-3.8807456733	-0.8664001766	-1.9615319114	 0.133044
100.5446	171.5211	280.28	371.2027	410.0761	423.1388	466.8338	558.6344	670.6639	708.5682	723.1199	802.3465	847.3735	860.1934	885.2686	936.0534	958.3907	968.3018	987.7786	1009.2528	1037.0951	1041.0209	1079.8398	1103.5489	1145.6675	1194.4039	1222.4149	1243.1184	1260.3614	1294.7341	1311.9892	1337.2704	1379.0013	1444.6692	1480.9346	1503.846	1665.0848	2966.7788	3065.0018	3068.0954	3125.2581	3174.7943	3196.7325	3202.7549	3776.3597
OCC12CC3C1N3C=N2	OC[C@]12C[C@@H]3[C@H]1N3[CH][N]2	
InChI=1S/C6H8N2O/c9-2-6-1-4-5(6)8(4)3-7-6/h3-5,9H,1-2H2	InChI=1S/C6H8N2O/c9-2-6-1-4-5(6)8(4)3-7-6/h3-5,9H,1-2H2/t4-,5-,6-,8?/m1/s1
