18
gdb 92941	2.29344	1.54959	1.33973	5.7949	76.29	-0.2426	0.0031	0.2457	1060.93	0.148266	-398.159035	-398.150279	-398.149334	-398.192154	33.057	
C	 0.084801366	 1.580122266	-0.2194362888	-0.418621
C	-0.0428051294	 0.0805411821	 0.0495650963	-0.011001
N	 0.550561573	-0.7239039183	-1.0323714872	-0.291085
C	 1.782442541	-1.1470263897	-0.5871345883	 0.061786
N	 2.0289242473	-1.0561713004	 0.6651189243	-0.265759
C	 0.8041768679	-0.4683459469	 1.2711639135	 0.107921
C	 1.1780341548	 0.5587309128	 2.3475400096	-0.42906
C	 0.0429272855	-1.5649075086	 1.9074492899	 0.30207
N	-0.5708285881	-2.404706035	 2.4113164679	-0.348314
H	 1.1300284853	 1.8768561737	-0.3474228091	 0.133991
H	-0.4580528081	 1.8402600479	-1.1344753846	 0.120735
H	-0.3467460857	 2.1673142612	 0.5955625097	 0.135195
H	-1.0959614627	-0.1808525667	 0.1772055654	 0.113597
H	 0.4568237638	-0.3995832681	-1.9841029271	 0.245608
H	 2.4882840382	-1.5685392404	-1.2972551595	 0.135142
H	 1.7826582742	 1.3562892391	 1.9117730092	 0.12794
H	 0.2888430599	 0.9913517407	 2.8140313392	 0.129018
H	 1.7712737371	 0.0647739405	 3.1193907096	 0.150837
75.7464	151.8682	188.5976	247.9596	272.9008	284.2638	296.2888	368.8306	430.3407	522.5357	530.9245	548.332	594.9298	648.038	746.6353	837.8637	875.3602	905.9079	964.1558	972.6294	1043.5634	1068.2181	1116.8002	1133.3187	1138.8184	1186.1481	1197.0498	1288.2523	1338.7254	1381.8707	1404.3336	1411.5682	1440.7618	1478.1165	1487.2482	1501.19	1503.2757	1674.9317	2351.9182	3038.1079	3055.7813	3076.1992	3106.2084	3123.9646	3135.125	3143.8533	3187.0456	3604.6074
CC1NC=NC1(C)C#N	C[C@H]1N[CH][N][C@]1(C)C#N	
InChI=1S/C6H9N3/c1-5-6(2,3-7)9-4-8-5/h4-5H,1-2H3,(H,8,9)	InChI=1S/C6H9N3/c1-5-6(2,3-7)9-4-8-5/h4-5H,1-2H3,(H,8,9)/t5-,6-/m1/s1
