17
gdb 93465	2.87722	1.40717	0.98748	2.0205	70.71	-0.2575	-0.02	0.2375	1158.2288	0.137587	-455.193113	-455.184836	-455.183892	-455.226456	30.929	
N	-0.0057409007	 1.4742968015	 0.1706507949	-0.50818
C	-0.037646493	 0.03388141	-0.0259141456	-0.105205
C	-1.4620275067	-0.5182737088	-0.0271350939	-0.228327
C	-1.4082458173	-2.0351759461	-0.2078960583	-0.288521
C	-0.6717889455	-2.4252943882	-1.459950494	 0.402775
N	-0.9832045727	-3.4277900487	-2.1555793235	-0.483821
O	 0.4120370815	-1.6347539455	-1.8363657668	-0.237036
C	 0.7332516719	-0.4191784276	-1.2748483236	 0.396606
O	 1.6140923531	 0.2174144967	-1.7760418543	-0.306258
H	 0.9507210764	 1.7971179837	 0.0468742249	 0.246631
H	-0.5359152893	 1.92532564	-0.5716895521	 0.23089
H	 0.4978442269	-0.4284501433	 0.8182236893	 0.121737
H	-1.9541937101	-0.2515125387	 0.9108710669	 0.129575
H	-2.0399404948	-0.0578073609	-0.8391657914	 0.113865
H	-0.8863706378	-2.4836760584	 0.6485367357	 0.135045
H	-2.3976345402	-2.4917033398	-0.2533439393	 0.145535
H	-0.3461079017	-3.5286233859	-2.9482365388	 0.234688
52.538	109.0084	211.3359	241.1726	299.2024	349.3839	367.9008	406.6908	475.8558	540.367	575.4853	660.5373	696.1039	769.9815	866.1119	907.8714	926.2582	932.8346	986.7196	1032.7195	1051.6186	1107.563	1131.7874	1151.2018	1177.096	1228.0057	1275.7076	1323.4192	1343.2889	1360.7897	1364.0645	1407.0302	1474.2473	1501.0078	1671.5894	1766.9911	1857.6305	2990.2324	3022.5325	3035.724	3106.3815	3129.0103	3473.0818	3481.2524	3554.2484
NC1CCC(=N)OC1=O	N[C@H]1CC[C]([NH])OC1=O	
InChI=1S/C5H8N2O2/c6-3-1-2-4(7)9-5(3)8/h3,7H,1-2,6H2	InChI=1S/C5H8N2O2/c6-3-1-2-4(7)9-5(3)8/h3,7H,1-2,6H2/t3-/m0/s1
