13
gdb 7208	4.45635	1.14249	0.91454	0.727	66.27	-0.2443	-0.0814	0.1628	1206.0237	0.093048	-398.62237	-398.613324	-398.61238	-398.658847	29.833	
C	 0.0146162779	 1.4516389414	 0.0096097822	-0.507234
C	 0.0270284565	 0.001294861	 0.0018596147	 0.158753
C	 0.0444582437	-1.2056781519	-0.0047074772	 0.055211
C	 0.0350843972	-2.6395183265	-0.0121818366	 0.089558
O	-0.9772394915	-3.3134328721	-0.0051046931	-0.305402
C	 1.4291272631	-3.3129812233	-0.0303810434	 0.343798
N	 1.3264017944	-4.6600631399	-0.0364304556	-0.534057
O	 2.4571431477	-2.6679678384	-0.0377609756	-0.349764
H	 1.0306431343	 1.8584664698	 0.0048243603	 0.16802
H	-0.5147703059	 1.8374798794	-0.8684498219	 0.166476
H	-0.5029152234	 1.8283120445	 0.8986379617	 0.166435
H	 0.4101225955	-5.0782264334	-0.0290095075	 0.279367
H	 2.1568197004	-5.2267517205	-0.0481344779	 0.268838
8.0041	56.5348	79.5169	146.3754	254.9925	299.3809	335.9508	383.131	409.6225	467.6434	482.8026	635.2578	655.3015	655.3428	840.5877	957.2855	1042.4431	1052.5493	1090.3985	1224.3466	1368.1324	1407.5933	1466.1662	1471.1442	1584.6727	1744.6945	1811.7098	2341.2224	3032.855	3095.9037	3104.6561	3597.286	3740.0161
CC#CC(=O)C(N)=O	CC#CC(=O)C(=O)N	
InChI=1S/C5H5NO2/c1-2-3-4(7)5(6)8/h1H3,(H2,6,8)	InChI=1S/C5H5NO2/c1-2-3-4(7)5(6)8/h1H3,(H2,6,8)
