18
gdb 74248	3.11364	1.27283	1.0453	4.55	81.87	-0.2436	0.0031	0.2467	1179.0526	0.148596	-364.832869	-364.824752	-364.823808	-364.865546	31.075	
C	-0.0682020109	 1.5111218869	 0.090306024	-0.495798
C	-0.0112698216	 0.0182477009	 0.0180369433	 0.328866
C	 0.0731756981	-0.7337777082	-1.0835695358	-0.19558
C	 0.0672167566	-2.2259722931	-0.7678951865	-0.198918
C	 1.1782634963	-2.9511159961	-1.3947695093	 0.275179
N	 2.0540928608	-3.5166538932	-1.8941937687	-0.33502
C	 0.1013569397	-2.2651898328	 0.7690531488	-0.047768
C	 1.2665428913	-1.6244633575	 1.4715504533	-0.282118
C	-0.0069990627	-0.8316460707	 1.2505805726	-0.133163
H	 0.7722494466	 1.9071992902	 0.6731231732	 0.136572
H	-0.0442060157	 1.9653694406	-0.9031986656	 0.130286
H	-0.9832212353	 1.8437729806	 0.5959837849	 0.131461
H	 0.1598583998	-0.3682171424	-2.0994134533	 0.110291
H	-0.8599813269	-2.6894951018	-1.1336179469	 0.128892
H	-0.4212680846	-3.0728369543	 1.2651311709	 0.10284
H	 1.4738980401	-1.9748093349	 2.4769362349	 0.119427
H	 2.1437480589	-1.3505054681	 0.8948462737	 0.132117
H	-0.6144544005	-0.551398446	 2.1044755965	 0.092432
95.9368	134.8644	183.3881	201.3781	310.8817	325.8888	367.4217	494.7306	551.692	574.1422	601.0044	725.1988	786.8215	815.6316	835.1789	846.6825	926.0411	963.2081	1000.7317	1014.1164	1035.676	1051.3104	1066.0846	1073.8361	1102.2408	1104.607	1181.6551	1200.9347	1261.8178	1269.213	1315.5725	1364.2133	1382.1798	1413.3737	1477.9243	1479.2376	1486.9674	1707.2354	2354.5257	3006.2752	3023.5746	3072.0232	3119.5794	3130.6072	3167.1861	3192.6166	3209.6976	3221.0213
CC1=CC(C#N)C2CC12	CC1=C[C@@H](C#N)[C@H]2C[C@@H]12	
InChI=1S/C8H9N/c1-5-2-6(4-9)8-3-7(5)8/h2,6-8H,3H2,1H3	InChI=1S/C8H9N/c1-5-2-6(4-9)8-3-7(5)8/h2,6-8H,3H2,1H3/t6-,7-,8+/m0/s1
