21
gdb 106680	2.51719	1.29267	1.08428	1.8751	79.47	-0.2242	0.0704	0.2946	1247.2756	0.179942	-424.194189	-424.184389	-424.183445	-424.228631	36.798	
C	-0.1474106282	 1.4922824176	 0.1062035057	-0.378105
C	 0.1184062457	-0.0109722727	-0.0541975825	-0.285837
C	 0.7729048104	-0.6071529532	 1.1512022571	 0.43369
C	 0.0846825788	-1.0686220303	 2.4198112932	-0.411843
C	 1.0178990159	-1.9980806018	 1.6703683926	 0.233992
O	 0.6393090059	-3.2165989817	 1.1402803802	-0.457228
C	 2.4667847577	-1.5489581292	 1.8880240827	 0.078317
C	 3.4924695971	-2.1709633192	 0.9635996072	-0.394205
O	 2.1123904489	-0.1932957096	 1.4661384833	-0.344062
H	 0.785085198	 2.0285501575	 0.3044381633	 0.136056
H	-0.5940564366	 1.9091574089	-0.8013137232	 0.109851
H	-0.8291381765	 1.6844631069	 0.9409131781	 0.117055
H	-0.8188924598	-0.5477395423	-0.2400723209	 0.107203
H	 0.7622417963	-0.1828860361	-0.9252067778	 0.108175
H	 0.3607172525	-0.6435805997	 3.3817243932	 0.108312
H	-0.9662118822	-1.3161871737	 2.2977909666	 0.112672
H	 0.370879243	-3.7941189948	 1.8635092431	 0.289147
H	 2.8205986332	-1.5473814229	 2.927834601	 0.071104
H	 3.1252152689	-2.1939627631	-0.0658678481	 0.128033
H	 4.4214008137	-1.5939948048	 0.9935304169	 0.122698
H	 3.7120305272	-3.1980682556	 1.2731272183	 0.114976
68.9082	115.5889	145.5252	202.2401	220.9684	224.3405	256.9598	306.09	374.0751	414.2995	448.0642	492.3039	541.4956	614.9344	731.8734	773.4787	802.7658	845.8285	884.7534	910.8261	977.0764	988.7389	994.9799	1040.5804	1052.0435	1061.1397	1103.4421	1125.9284	1165.8819	1212.287	1264.4596	1278.623	1308.7971	1326.1381	1371.497	1379.6709	1406.7509	1408.3666	1421.9276	1472.456	1481.3409	1487.805	1497.0008	1505.6988	1522.0518	3013.3498	3031.5183	3039.5114	3040.9116	3070.6848	3104.8735	3109.2717	3111.5429	3117.9463	3124.9993	3201.6114	3789.1462
CCC12CC1(O)C(C)O2	CC[C@@]12C[C@]1(O)[C@@H](C)O2	
InChI=1S/C7H12O2/c1-3-6-4-7(6,8)5(2)9-6/h5,8H,3-4H2,1-2H3	InChI=1S/C7H12O2/c1-3-6-4-7(6,8)5(2)9-6/h5,8H,3-4H2,1-2H3/t5-,6-,7+/m1/s1
