20
gdb 52739	2.56298	0.94826	0.81487	2.2774	85.77	-0.202	-0.026	0.176	1526.8022	0.166523	-403.111899	-403.100636	-403.099692	-403.149976	38.159	
C	-0.0393122309	 1.4813648736	 0.093933532	-0.5023
C	-0.0240816061	 0.0285088787	 0.0059683142	 0.162899
C	 0.0161123099	-1.1730221527	-0.0668712373	-0.000083
C	-0.0212262379	-2.6372124545	-0.1370978832	-0.26111
C	-1.4989923211	-3.0615097678	 0.0393920817	 0.16546
O	-2.096400247	-3.7836031282	-0.7123316547	-0.242495
N	 0.6805426923	-3.1799244282	-1.2857073811	-0.039275
C	 0.9095273523	-4.6153609485	-1.2127774693	-0.32637
C	 0.2023986891	-2.7360007209	-2.5891411138	-0.332855
H	 0.8714274991	 1.9106602925	-0.3373769834	 0.155524
H	-0.895117495	 1.9060359614	-0.4417142882	 0.152474
H	-0.1003196186	 1.8125939099	 1.1362742209	 0.152659
H	 0.4818831091	-3.027379832	 0.764990728	 0.119473
H	-1.978018558	-2.6345889963	 0.9513087076	 0.086898
H	 0.0010593592	-5.221758525	-1.3487592143	 0.121796
H	 1.6286130435	-4.8992585348	-1.9886475871	 0.117072
H	 1.3522199197	-4.8689103538	-0.242830386	 0.109992
H	 0.1024165964	-1.6474421825	-2.5870064865	 0.126262
H	 0.9468043125	-3.0046184459	-3.3465458922	 0.113174
H	-0.7624017382	-3.1773066151	-2.8796278273	 0.120806
18.2235	63.0589	89.0285	110.6035	162.672	192.1506	217.1854	234.8792	276.8756	293.4904	338.3987	375.577	395.5459	456.5778	520.3665	702.5687	725.835	855.8498	913.045	1009.6014	1051.8327	1054.203	1077.0212	1081.555	1120.5372	1167.2689	1185.9719	1219.0244	1265.8726	1321.8859	1359.8379	1405.9898	1414.3526	1440.4207	1469.4767	1475.9197	1477.8777	1478.259	1493.4646	1512.9728	1527.9573	1835.3949	2365.6169	2859.8991	2955.554	2987.1794	2997.5284	3030.3968	3055.8107	3065.7241	3089.6653	3092.5379	3093.5827	3113.0839
CC#CC(C=O)N(C)C	CC#C[C@@H](C=O)N(C)C	
InChI=1S/C7H11NO/c1-4-5-7(6-9)8(2)3/h6-7H,1-3H3	InChI=1S/C7H11NO/c1-4-5-7(6-9)8(2)3/h6-7H,1-3H3/t7-/m0/s1
