17
gdb 18500	5.88393	1.12355	1.05378	3.9821	69.34	-0.2373	-0.0148	0.2225	1111.6774	0.142095	-363.821313	-363.813758	-363.812814	-363.854043	27.673	
O	-0.237386966	 0.0420758127	-0.1540939977	-0.243502
C	 0.0390250055	 1.2021885736	 0.0202423278	 0.156103
C	 1.3981105561	 1.8144986049	-0.2128054651	-0.286884
C	 1.3610133096	 2.9443631353	-1.247851772	 0.005385
C	 0.5689389836	 4.2712896203	-0.9184325868	-0.245328
C	 1.8771373913	 5.0454670684	-1.095742465	-0.037405
N	 2.815668356	 4.4909269433	-0.0897290305	-0.329975
C	 2.6327068627	 3.7972043363	-1.3861104096	-0.067423
H	-0.7363055529	 1.9217087163	 0.3745516254	 0.070611
H	 1.7555097167	 2.2418901434	 0.73354614	 0.137466
H	 2.0856539715	 1.0212165267	-0.5229134682	 0.112983
H	 1.0512141009	 2.5575892514	-2.2228248801	 0.088223
H	-0.186460419	 4.5015727333	-1.6720454128	 0.109031
H	 0.1262449111	 4.3455221018	 0.0783125129	 0.108624
H	 2.0115939875	 6.0473519787	-1.4840906662	 0.096689
H	 3.6825455554	 5.0234072674	-0.1548031016	 0.231261
H	 3.4758550599	 3.6186714563	-2.0425362405	 0.09414
56.8641	84.8279	161.0406	211.7465	351.0029	407.7429	485.8106	560.8896	677.3363	796.4685	812.8576	825.1001	846.7773	904.1174	945.8899	957.2714	972.6775	1011.2264	1049.1242	1087.857	1100.9335	1112.2599	1131.3375	1162.0602	1204.2539	1238.7376	1253.4734	1285.2624	1300.7894	1327.4807	1363.8444	1385.8781	1434.0048	1465.8814	1479.4132	1829.8444	2854.4012	3028.0497	3063.867	3068.1456	3095.1589	3124.8741	3181.7072	3196.5115	3477.4928
O=CCC1CC2NC12	O=CC[C@H]1C[C@H]2N[C@@H]12	
InChI=1S/C6H9NO/c8-2-1-4-3-5-6(4)7-5/h2,4-7H,1,3H2	InChI=1S/C6H9NO/c8-2-1-4-3-5-6(4)7-5/h2,4-7H,1,3H2/t4-,5+,6-/m0/s1
