20
gdb 66848	2.56039	2.01977	1.79255	1.871	80.72	-0.2157	0.0841	0.2999	909.4241	0.173659	-365.966137	-365.959296	-365.958351	-365.996776	29.145	
C	 0.0071005195	 1.5304585913	 0.0195998226	-0.524389
C	 0.0165046904	 0.0251689898	-0.0202597778	 0.349371
C	 0.5947857436	-0.7728909865	-1.2069328998	-0.111123
C	 0.8534725601	-2.1013590769	-0.6312463074	-0.022311
C	 1.2013245001	-1.9933924729	 0.8405249522	-0.23705
C	 0.3449651095	-0.8100737291	 1.3048414538	-0.098113
C	-1.1412959296	-1.2636497555	 1.3587600787	-0.236552
C	-1.2385758854	-0.8786413322	-0.1204279083	-0.006428
N	-0.528954969	-1.7875636415	-1.1152030994	-0.178007
H	 1.02190053	 1.9320521503	 0.1288915011	 0.118105
H	-0.4188336846	 1.9494062612	-0.8991007182	 0.120523
H	-0.5866764442	 1.9034690921	 0.8615033967	 0.118187
H	 0.9579431627	-0.3886608733	-2.154911752	 0.086664
H	 1.3122537706	-2.8783048668	-1.2355078852	 0.092059
H	 0.9811970147	-2.9027052105	 1.4104229815	 0.101957
H	 2.2763032242	-1.7946204905	 0.9359489214	 0.098458
H	 0.7463358366	-0.271323871	 2.1647549876	 0.06374
H	-1.3382466767	-2.301670846	 1.6437342083	 0.095737
H	-1.7627621046	-0.6002560128	 1.9682987675	 0.098609
H	-2.1854216377	-0.5509086993	-0.5545657533	 0.070565
214.166	219.2823	256.586	320.9198	418.1472	466.2621	572.1067	614.9521	656.9512	696.0198	748.8759	771.1526	848.2095	867.5315	882.3512	897.3437	928.3368	939.2664	954.2465	981.4456	1021.9991	1046.0701	1057.4546	1097.068	1126.2093	1135.9703	1157.134	1177.0379	1185.1514	1212.7802	1235.4373	1244.4246	1269.6291	1287.321	1319.1721	1337.9402	1371.6961	1397.3838	1414.876	1477.5441	1490.2664	1494.9979	1498.4768	3019.5111	3024.4167	3043.072	3069.4966	3080.9305	3083.775	3089.6924	3091.3818	3098.9193	3152.0895	3163.8856
CC12C3C4CC1CC2N34	C[C@@]12[C@H]3[C@H]4C[C@@H]1C[C@@H]2N34	
InChI=1S/C8H11N/c1-8-4-2-5-7(8)9(5)6(8)3-4/h4-7H,2-3H2,1H3	InChI=1S/C8H11N/c1-8-4-2-5-7(8)9(5)6(8)3-4/h4-7H,2-3H2,1H3/t4-,5-,6+,7-,8-,9?/m1/s1
