19
gdb 32910	4.60736	0.78567	0.70352	2.333	78.96	-0.1956	0.0506	0.2462	1622.3481	0.160305	-419.262058	-419.252928	-419.251984	-419.296609	33.619	
C	-0.1244676806	 1.5731543544	-0.0539007066	-0.37974
C	-0.1368030019	 0.0437140228	-0.0988360718	-0.155379
C	 0.8429324577	-0.5293927879	-1.1426294029	-0.315763
C	 0.8751766522	-2.0192195476	-1.2056630982	 0.304414
C	 1.8287201597	-2.9425112065	-0.8848345115	-0.180908
N	 1.3817894296	-4.2389317973	-1.106677407	-0.36347
C	 0.1685437941	-4.0854619955	-1.5569050352	 0.43827
O	-0.6900460026	-5.0547587496	-1.9222888395	-0.4275
N	-0.2100384251	-2.7850689685	-1.6443684519	-0.359633
H	 0.8713982955	 1.952517173	 0.2008161269	 0.117524
H	-0.4016609039	 2.0020380358	-1.0235549737	 0.11365
H	-0.8272520987	 1.9555948986	 0.6924991085	 0.114658
H	 0.1187733944	-0.365493392	 0.8854816973	 0.107875
H	-1.1529673344	-0.3092717059	-0.3184090148	 0.087605
H	 0.5982153891	-0.1079031987	-2.1291362864	 0.100188
H	 1.8571904443	-0.184471847	-0.911904997	 0.115617
H	 2.82199624	-2.7539315343	-0.506308366	 0.10267
H	-0.2233883237	-5.8886243776	-1.7842721579	 0.312954
H	-1.0999987857	-2.4516226062	-1.9730581322	 0.266967
60.0316	82.4636	97.3049	240.7741	247.9144	287.2626	315.7754	391.3335	414.816	457.5667	463.9526	640.9862	689.9612	727.4102	743.0289	766.4543	827.7825	871.0178	895.8249	1006.3712	1041.1369	1045.2925	1092.8055	1110.8431	1151.9373	1200.272	1236.6776	1252.0617	1294.4228	1317.3798	1328.8469	1383.5612	1391.9932	1412.4214	1475.1455	1490.71	1499.4363	1509.4099	1557.8668	1603.5394	1643.4002	2994.2672	3020.2004	3029.7477	3054.8297	3071.9231	3097.2443	3104.6197	3248.018	3673.31	3804.4568
CCCC1=CN=C(O)N1	CCCc1cnc(O)[nH]1	
InChI=1S/C6H10N2O/c1-2-3-5-4-7-6(9)8-5/h4H,2-3H2,1H3,(H2,7,8,9)	InChI=1S/C6H10N2O/c1-2-3-5-4-7-6(9)8-5/h4H,2-3H2,1H3,(H2,7,8,9)
