15
gdb 30983	2.63046	1.35222	0.93885	4.3212	64.42	-0.1801	0.0466	0.2268	1190.4494	0.11184	-491.113787	-491.104732	-491.103788	-491.147754	32.294	
C	 0.2592543845	 1.058760802	-0.3154292527	-0.25045
O	-0.1746384776	 0.1193780759	 0.6794241681	-0.274786
C	-1.2845497255	-0.5807947777	 0.3485659041	 0.200006
C	-1.4004843952	-1.8571555743	-0.0616200532	 0.301779
O	-0.4938383896	-2.8330380927	-0.2942253267	-0.436565
N	-2.7456903915	-2.1099943507	-0.3105144359	-0.389487
C	-3.5234539022	-0.9949625129	 0.0063931515	 0.437961
O	-4.7337553324	-0.9105835383	 0.008613762	-0.420766
N	-2.5854797249	-0.0174745226	 0.3265170227	-0.412193
H	 1.1642519464	 1.5277645556	 0.0748956155	 0.136109
H	 0.4787355743	 0.5503609713	-1.2615822346	 0.124148
H	-0.5033109107	 1.8255371347	-0.4917773665	 0.129834
H	 0.3585344001	-2.5223757361	 0.0325406292	 0.312885
H	-3.1470152824	-3.0188400613	-0.4655252989	 0.274692
H	-2.8617607232	 0.780145437	 0.8755176854	 0.266832
76.965	124.696	143.4789	175.8963	254.8285	280.9724	307.2705	342.7509	370.561	427.6301	500.1155	576.5023	630.7356	660.0212	672.5959	750.0269	840.6814	995.0724	1008.7534	1093.6856	1171.5924	1188.9383	1201.9348	1255.085	1295.4925	1344.9677	1390.5122	1474.7919	1484.2253	1501.8186	1513.0699	1781.2703	1851.4695	3019.1441	3087.8319	3138.0259	3659.6189	3683.204	3815.9006
COC1=C(O)NC(=O)N1	COc1c(O)[nH]c(=O)[nH]1	
InChI=1S/C4H6N2O3/c1-9-3-2(7)5-4(8)6-3/h7H,1H3,(H2,5,6,8)	InChI=1S/C4H6N2O3/c1-9-3-2(7)5-4(8)6-3/h7H,1H3,(H2,5,6,8)
