23
gdb 97971	4.57451	0.50486	0.47639	0.8128	93.76	-0.2391	0.0447	0.2838	2429.6105	0.201925	-388.266317	-388.254512	-388.253568	-388.306461	40.59	
C	 0.6428924981	 1.1756055558	-0.4344852364	-0.364373
C	-0.3203540615	 0.2389403876	 0.3169544165	-0.315844
C	 0.2722105247	-0.3651790393	 1.5052659784	 0.151811
C	 0.7840802343	-0.8585117567	 2.4768569784	-0.011047
C	 1.3840421838	-1.4400000954	 3.6707416134	-0.219656
O	 1.9561014755	-2.6978240062	 3.3601752056	-0.257192
C	 2.7121728811	-3.28114723	 4.4181481024	 0.176925
C	 1.8142896504	-3.8477243712	 5.5228751893	-0.395353
C	 3.578593496	-4.358550947	 3.7756562079	-0.390173
H	 1.5344461918	 0.6335855062	-0.7609732601	 0.130067
H	 0.153466065	 1.5994621931	-1.3165517228	 0.112962
H	 0.9659936188	 1.9983837757	 0.2091253753	 0.126485
H	-1.2235875062	 0.7930656198	 0.6035323058	 0.127982
H	-0.6600218819	-0.5570328263	-0.3581908351	 0.132006
H	 2.1578635882	-0.7601706688	 4.0692212696	 0.108822
H	 0.6160856034	-1.5324018685	 4.4557978501	 0.113777
H	 3.3667092752	-2.5061875125	 4.8543825119	 0.061641
H	 2.4215353915	-4.31360602	 6.3056439689	 0.114066
H	 1.2066235683	-3.0713218191	 5.9966606543	 0.115856
H	 1.1411747585	-4.6056631911	 5.1094439662	 0.124257
H	 4.2045257111	-3.9260077499	 2.9910610591	 0.12236
H	 4.2248496183	-4.8315543373	 4.5210764547	 0.110388
H	 2.9483200858	-5.1308549289	 3.3234618265	 0.124233
10.4344	26.2	72.9682	104.7603	126.1022	194.8314	202.1702	233.2687	263.5045	287.6639	317.112	369.5236	433.5426	447.1604	513.3705	541.2626	754.9039	783.6623	845.204	925.0827	932.6737	946.2813	965.4016	1029.901	1077.8484	1090.7088	1103.3545	1147.2267	1163.0148	1178.5627	1201.1335	1253.5996	1286.6033	1351.282	1358.983	1368.443	1396.8991	1408.612	1413.2349	1429.5752	1472.9657	1479.7881	1484.3747	1494.3041	1494.7853	1501.6396	1505.3513	1512.6716	2372.6732	2944.3258	2949.6513	2976.0382	3020.1171	3036.4736	3043.213	3044.0378	3047.142	3106.6233	3110.9172	3116.7325	3116.8228	3123.8893	3124.2568
CCC#CCOC(C)C	CCC#CCOC(C)C	
InChI=1S/C8H14O/c1-4-5-6-7-9-8(2)3/h8H,4,7H2,1-3H3	InChI=1S/C8H14O/c1-4-5-6-7-9-8(2)3/h8H,4,7H2,1-3H3
