19
gdb 93069	2.21285	1.6345	0.98762	3.1425	79.1	-0.2114	0.0175	0.229	1197.7662	0.162146	-419.26598	-419.25753	-419.256586	-419.299035	32.479	
C	-0.148882313	 1.5049914266	 0.1063907023	-0.416045
C	 0.0764827286	-0.0012015499	-0.0320895589	 0.03364
C	 0.5143742927	-0.3737591313	-1.4547073702	-0.240989
C	 0.6548748154	-1.8499247924	-1.6832587692	-0.102354
C	 0.8115194314	-2.8148510951	-0.773006737	 0.014885
N	 0.9310974067	-2.7360894558	 0.6164848092	-0.354188
C	 1.2645804145	-1.6739832199	 1.4528029856	 0.422544
O	 1.7123987203	-1.8886476028	 2.566372339	-0.40397
N	 1.0762557488	-0.4064851022	 0.9604564898	-0.338789
H	 0.7783876303	 2.0548799676	-0.0892798303	 0.127712
H	-0.9032824052	 1.8464861191	-0.6067632758	 0.127443
H	-0.4956330895	 1.7606600239	 1.1128819739	 0.123177
H	-0.8724219005	-0.5160666776	 0.1759091606	 0.095354
H	-0.22828509	 0.0228030758	-2.1598606797	 0.100201
H	 1.4542990974	 0.1511829402	-1.6782873759	 0.111897
H	 0.6038692953	-2.1840500251	-2.7146293458	 0.088016
H	 0.8575925475	-3.8449633764	-1.1120655977	 0.106973
H	 1.1040364912	-3.6076398401	 1.0924964985	 0.256925
H	 1.293092638	 0.2762204254	 1.6714919916	 0.247569
104.1962	106.8975	162.7682	237.1933	288.7006	376.7445	382.343	430.3121	458.4241	535.3471	545.5653	616.4864	644.1065	733.8667	773.0609	817.8461	846.4346	919.3211	928.0206	960.4955	973.5758	1026.1085	1076.0496	1115.2172	1151.5095	1199.3949	1242.5738	1290.2249	1332.1595	1364.989	1381.3214	1408.1852	1413.9153	1454.8008	1467.4909	1475.4275	1485.5775	1495.4095	1504.1427	1747.1672	1796.1718	2994.0438	3005.3264	3035.2752	3036.6117	3103.1417	3122.4094	3166.1384	3187.4217	3616.6441	3637.3472
CC1CC=CNC(=O)N1	C[C@H]1CC=CNC(=O)N1	
InChI=1S/C6H10N2O/c1-5-3-2-4-7-6(9)8-5/h2,4-5H,3H2,1H3,(H2,7,8,9)	InChI=1S/C6H10N2O/c1-5-3-2-4-7-6(9)8-5/h2,4-5H,3H2,1H3,(H2,7,8,9)/t5-/m0/s1
