17
gdb 19665	4.42318	2.07002	1.96402	2.8959	66.99	-0.2214	0.0678	0.2893	748.813	0.145243	-363.795884	-363.789915	-363.788971	-363.825565	24.968	
O	 0.0617874285	 1.4874648113	-0.0479127998	-0.435654
C	 0.0143693563	 0.0873804304	 0.0418922072	 0.157014
C	 0.1267379089	-0.6442222551	 1.4146990756	-0.135128
C	-0.9978065182	 0.0792015191	 2.1756532105	-0.153411
N	-2.145770577	-0.3368078216	 1.3062520215	-0.151077
C	-2.0772477309	-1.8355149513	 1.5196342302	-0.181327
C	-0.7540040095	-1.8019186673	 0.7659708833	-0.049637
C	-1.3460245409	-0.5862043076	-0.0127233224	-0.024933
H	 0.9829408819	 1.764831411	-0.0145012257	 0.284427
H	 0.6639404092	-0.3917689643	-0.7051468149	 0.070299
H	 1.0862895203	-0.8324089803	 1.8952832842	 0.061624
H	-1.1549463908	-0.2604695913	 3.2016814886	 0.093604
H	-0.8773341588	 1.1634007939	 2.1628563046	 0.114427
H	-2.1213861536	-2.1551608607	 2.5658456475	 0.096516
H	-2.8688449325	-2.3307282448	 0.9498509141	 0.105691
H	-0.248669921	-2.6526933084	 0.3088802941	 0.067586
H	-1.9818783017	-0.6382562031	-0.8940058785	 0.079979
219.2515	263.2006	294.4469	461.4361	516.9139	563.4393	692.2993	709.0292	762.6155	825.8031	832.8088	849.5242	904.0075	920.0485	971.5854	977.5409	992.2964	1015.5439	1034.6149	1046.1892	1118.743	1124.0295	1142.0024	1168.3024	1196.2597	1198.08	1226.7918	1242.01	1262.6449	1273.0962	1288.1205	1323.1035	1335.7614	1441.6188	1499.7139	1523.7087	3001.2766	3041.8707	3074.1209	3098.2517	3110.1684	3122.5277	3130.2443	3142.8097	3816.2551
OC1C2CN3CC2C13	O[C@H]1[C@H]2CN3C[C@H]2[C@H]13	
InChI=1S/C6H9NO/c8-6-4-2-7-1-3(4)5(6)7/h3-6,8H,1-2H2	InChI=1S/C6H9NO/c8-6-4-2-7-1-3(4)5(6)7/h3-6,8H,1-2H2/t3-,4+,5-,6+/m1/s1
