19
gdb 50529	2.33447	1.40345	1.01196	4.0143	75.69	-0.2408	-0.0175	0.2233	1204.6552	0.158416	-422.99668	-422.987962	-422.987018	-423.031111	31.684	
O	-0.2627292839	 0.0609884934	-0.2124417219	-0.262399
C	-0.1431161755	 1.245008637	-0.0174803682	 0.167647
C	 1.171179764	 1.9811886783	-0.0809595461	-0.115471
C	 1.0612906227	 3.3525255968	-0.8246416437	-0.245913
C	 1.0267745385	 4.0899656954	 0.5378172646	-0.243685
C	 1.5357426529	 2.7947112748	 1.2228790744	-0.005374
C	 0.9381452597	 2.3713496529	 2.5379107731	 0.053254
C	 0.493819031	 3.3414556358	 3.546583849	-0.181892
O	-0.4545165446	 2.6403736315	 2.7379202958	-0.231192
H	-1.027042067	 1.8783379988	 0.2150668023	 0.090496
H	 1.9334629158	 1.2844375704	-0.4340868721	 0.087881
H	 1.9657630043	 3.5628373292	-1.3993946132	 0.114463
H	 0.1970499946	 3.4824354437	-1.4810488299	 0.111479
H	 1.6427561993	 4.9857134303	 0.6410254018	 0.101795
H	 0.0061939995	 4.3205056123	 0.8533661658	 0.126911
H	 2.626095717	 2.8036075815	 1.3276908954	 0.089952
H	 1.2450553654	 1.3844877275	 2.8895330702	 0.103544
H	 0.4997805354	 3.0693113217	 4.600616277	 0.121058
H	 0.5810256908	 4.4070511186	 3.3400848956	 0.117445
51.842	74.4028	113.8771	182.1295	227.7316	300.3857	311.0471	428.502	460.0366	603.2227	663.0483	746.6282	823.3461	867.9037	878.9688	895.9167	942.1736	954.8246	965.1424	1008.9526	1037.952	1073.5898	1101.3216	1132.9796	1143.0102	1164.772	1172.9769	1215.7721	1243.2497	1252.9948	1269.1444	1278.4445	1287.7816	1323.4574	1365.282	1428.4214	1442.5815	1481.4385	1497.5947	1528.2965	1821.6961	2896.829	3048.8604	3063.0765	3068.3968	3087.907	3095.2549	3098.1442	3110.7788	3128.5621	3175.7918
O=CC1CCC1C1CO1	O=C[C@H]1CC[C@H]1[C@H]1CO1	
InChI=1S/C7H10O2/c8-3-5-1-2-6(5)7-4-9-7/h3,5-7H,1-2,4H2	InChI=1S/C7H10O2/c8-3-5-1-2-6(5)7-4-9-7/h3,5-7H,1-2,4H2/t5-,6-,7-/m1/s1
