16
gdb 32491	6.2194	0.81555	0.73625	1.6235	78.64	-0.2288	-0.0476	0.1812	1462.0814	0.125374	-437.936092	-437.927742	-437.926798	-437.969801	30.249	
O	 0.3000991428	 1.0837773711	 0.7466490261	-0.410232
C	 0.0589845482	 0.0345465094	-0.1814979091	-0.165347
C	-1.3623329395	-0.4521627547	-0.1538544375	 0.227999
C	-2.1812178064	-0.478308677	 0.9714318904	-0.136218
N	-3.3844335338	-0.9895712979	 0.6146364464	-0.288685
C	-3.3818791761	-1.3040035635	-0.7245220299	 0.2425
C	-4.560940587	-1.8607925687	-1.3461339569	 0.077392
O	-5.5984813968	-2.0823056844	-0.7470497371	-0.320144
C	-2.1267078809	-0.9717703795	-1.2219844532	-0.344433
H	-0.3099320086	 1.7983502844	 0.5340737976	 0.281341
H	 0.3293120063	 0.3281864942	-1.2078067181	 0.096209
H	 0.7529510055	-0.7632918324	 0.1087017199	 0.125285
H	-1.9721265332	-0.162048989	 1.9809485436	 0.145052
H	-4.1956584956	-1.1275341691	 1.196365137	 0.280071
H	-4.4558977879	-2.0784221447	-2.4293518491	 0.077119
H	-1.8068381971	-1.0944535183	-2.24675388	 0.112092
48.4266	106.3515	149.4847	217.7518	281.6385	306.1886	358.1126	385.3761	554.5971	606.0632	640.9367	674.0485	712.1505	783.6579	810.8983	838.0457	976.5972	988.1227	1004.7932	1026.2743	1064.0054	1129.565	1164.4025	1205.2348	1264.5829	1336.5509	1381.4377	1391.5384	1417.2017	1431.1322	1469.7412	1505.0403	1520.6182	1607.3068	1756.2406	2915.5151	2983.2635	3049.5393	3240.2624	3268.1289	3655.6626	3806.4058
OCC1=CNC(C=O)=C1	OCc1c[nH]c(C=O)c1	
InChI=1S/C6H7NO2/c8-3-5-1-6(4-9)7-2-5/h1-2,4,7-8H,3H2	InChI=1S/C6H7NO2/c8-3-5-1-6(4-9)7-2-5/h1-2,4,7-8H,3H2
