16
gdb 67866	2.58556	1.7253	1.42392	3.0126	69.12	-0.2421	-0.0358	0.2063	956.1645	0.123909	-437.909291	-437.901576	-437.900632	-437.941607	29.049	
C	-0.2714828861	 1.4780638288	-0.0627028694	-0.460357
C	 0.0133828167	-0.0103185557	-0.0178724444	 0.174177
N	-1.2102753856	-0.8226402405	-0.1215030406	-0.286375
C	-1.1663267242	-1.6619509089	 0.8309878009	 0.10632
O	-0.1138068318	-1.6726985914	 1.6871939788	-0.222198
C	 0.8007258529	-0.6889337856	 1.1676773498	 0.028675
C	 1.8522252066	-1.2694317014	 0.192475112	-0.379447
C	 1.1275447949	-0.5464701162	-0.9659232667	 0.383437
O	 1.3641813495	-0.3957874489	-2.1250852303	-0.28399
H	 0.6476219677	 2.0604392645	 0.0564247998	 0.118146
H	-0.7191764188	 1.7353318734	-1.0261130081	 0.15255
H	-0.9709714331	 1.7595056593	 0.730155031	 0.128016
H	-1.9295797241	-2.4003911962	 1.0495015557	 0.149471
H	 1.1700209679	-0.0855966516	 1.9958947308	 0.103505
H	 2.8785923459	-0.9237948534	 0.3457970159	 0.141511
H	 1.8566339414	-2.3611615663	 0.1269030149	 0.14656
77.1328	177.9556	183.3806	242.2528	289.8097	335.1433	472.9816	483.1212	576.5387	604.2526	663.715	777.7184	792.4342	835.1813	897.3991	919.5423	959.3992	970.4825	1004.0132	1039.9126	1100.2212	1121.653	1144.4434	1172.3776	1190.525	1222.4112	1285.2566	1314.9757	1357.0675	1403.3032	1422.9598	1482.2018	1487.1195	1675.424	1900.3034	3040.0337	3063.3198	3111.4316	3116.9708	3126.7656	3129.5394	3218.8821
CC12N=COC1CC2=O	C[C@]12N=CO[C@H]1CC2=O	
InChI=1S/C6H7NO2/c1-6-4(8)2-5(6)9-3-7-6/h3,5H,2H2,1H3	InChI=1S/C6H7NO2/c1-6-4(8)2-5(6)9-3-7-6/h3,5H,2H2,1H3/t5-,6+/m0/s1
