18
gdb 51606	5.65971	0.60019	0.57884	1.6329	75.54	-0.2471	-0.0296	0.2175	1838.4498	0.144839	-439.071537	-439.061785	-439.060841	-439.108534	33.074	
O	-0.7397495755	 0.490989424	 0.1795122049	-0.235427
C	-0.1097239133	 1.5157766992	 0.1411635985	 0.158643
C	 1.3510104451	 1.6165627901	-0.2564609536	-0.285044
C	 1.5376882695	 2.6191663025	-1.3783832511	-0.035786
N	 1.4706248094	 4.0457959283	-1.0187493316	-0.335008
C	 2.7320136089	 3.4967016198	-1.5445858308	-0.035784
C	 3.9299637216	 3.5114583197	-0.6153548965	-0.285046
C	 4.5088213036	 4.9093063362	-0.501532574	 0.158643
O	 5.6595727014	 5.1929925046	-0.7110232753	-0.235427
H	-0.5749205823	 2.4929285078	 0.3999698685	 0.090591
H	 1.9051463781	 1.9470391428	 0.630042154	 0.124751
H	 1.7081303098	 0.6236514421	-0.5447824659	 0.125743
H	 1.0551078362	 2.3248480281	-2.3094643845	 0.103532
H	 0.9788017606	 4.5807698056	-1.7283137576	 0.240999
H	 2.9796141367	 3.7388834662	-2.5772819963	 0.103533
H	 3.6201161105	 3.2070640012	 0.3913755811	 0.12475
H	 4.713340854	 2.8317632363	-0.9630215529	 0.125744
H	 3.7655879758	 5.6821529054	-0.204001317	 0.090592
36.5235	52.4074	70.7238	74.701	144.7724	200.9397	250.5025	383.275	455.6319	488.2982	493.4548	537.0356	780.0872	793.127	822.4288	871.0737	889.0777	978.4016	996.828	1018.0293	1047.7432	1079.5279	1087.3744	1138.5419	1182.2517	1211.4562	1254.7421	1258.5961	1277.223	1283.5766	1299.8439	1412.4025	1420.5248	1420.6688	1445.0061	1454.2692	1470.3489	1833.1928	1836.7218	2889.2769	2890.3689	3039.2725	3045.0738	3100.276	3104.8157	3114.9678	3124.7889	3516.6631
O=CCC1NC1CC=O	O=CC[C@H]1N[C@H]1CC=O	
InChI=1S/C6H9NO2/c8-3-1-5-6(7-5)2-4-9/h3-7H,1-2H2	InChI=1S/C6H9NO2/c8-3-1-5-6(7-5)2-4-9/h3-7H,1-2H2/t5-,6+
