16
gdb 76063	2.64143	1.32334	1.13019	2.7975	70.48	-0.2499	0.0219	0.2718	1114.5633	0.123262	-437.854666	-437.84613	-437.845186	-437.888256	30.916	
O	 0.0506768368	 1.4538116218	 0.0250437101	-0.403289
C	 0.0541340962	 0.0688350543	 0.0029309784	 0.005122
C	-0.5199439797	-0.7181811611	 1.2065864014	-0.345947
C	-0.9831866872	-0.0090360139	 2.3574313226	 0.299136
N	-1.3618125222	 0.5838819716	 3.2772808528	-0.343865
C	-1.2710677512	-0.5779254929	-0.1172318799	 0.442327
C	-2.6265529529	 0.0595404094	-0.3678072694	-0.352057
C	-2.8671186073	-1.2058880194	-1.2236205124	-0.081777
O	-1.5278133551	-1.7002930984	-0.9331224154	-0.307046
H	 0.670029267	 1.7605746583	 0.6973698837	 0.305143
H	 0.8967977375	-0.4156995986	-0.490736302	 0.115353
H	-0.0675886797	-1.6869608415	 1.3933325789	 0.14436
H	-3.2609773274	 0.1727946208	 0.5115286476	 0.140962
H	-2.5840459403	 1.001444058	-0.9146975619	 0.140176
H	-3.6331762923	-1.8938125078	-0.8531717782	 0.120582
H	-3.0038496322	-1.0424809407	-2.2965193164	 0.120821
79.2708	110.6432	129.3844	178.2674	241.1574	292.5204	374.922	401.0442	459.3252	530.9787	625.2182	662.6117	789.1061	801.0092	863.4715	885.2609	923.3676	961.0986	1006.1928	1039.2421	1076.6135	1114.0513	1133.2822	1162.1203	1204.2553	1209.065	1242.2604	1283.4087	1302.9591	1350.2344	1363.1289	1475.5586	1491.6727	1531.1709	2344.2512	3047.2205	3096.2983	3097.6634	3107.734	3153.4341	3170.2203	3794.9085
OC1C(C#N)C11CCO1	O[C@H]1[C@@H](C#N)[C@]21CCO2	
InChI=1S/C6H7NO2/c7-3-4-5(8)6(4)1-2-9-6/h4-5,8H,1-2H2	InChI=1S/C6H7NO2/c7-3-4-5(8)6(4)1-2-9-6/h4-5,8H,1-2H2/t4-,5+,6+/m1/s1
