17
gdb 34381	2.6579	1.6023	1.2903	1.2044	79.59	-0.25	0.0073	0.2573	1026.3567	0.136081	-384.646851	-384.639194	-384.63825	-384.678868	30.025	
C	-0.0594009587	-1.224066153	-0.1339055354	-0.431801
C	-0.0420883066	-0.0244706835	-0.0486894562	 0.226663
C	-0.0294185849	 1.4194560118	 0.0480033596	 0.085142
C	-0.256400681	 2.2269989114	-1.2668952682	-0.110733
O	 0.9100399595	 3.0312162224	-1.0213975049	-0.291194
C	 1.3289141998	 2.2056929641	 0.0851595293	 0.085159
C	 1.3891990238	 2.9766620892	 1.407633164	-0.28422
C	-0.0091846319	 2.8194477891	 1.9592451174	-0.063126
C	-0.7615666521	 1.9809914459	 1.248558994	-0.15228
H	-0.0714860584	-2.2834073436	-0.2067600097	 0.193587
H	-0.1576091123	 1.6200230459	-2.1750564854	 0.106216
H	-1.1733173169	 2.8245541001	-1.3138037586	 0.108967
H	 2.2331277134	 1.6381518807	-0.1546359491	 0.082841
H	 2.1454334474	 2.5722294211	 2.0931161783	 0.110871
H	 1.656372496	 4.0217580777	 1.2122761292	 0.125931
H	-0.3440608433	 3.34077838	 2.8494589877	 0.102302
H	-1.786895924	 1.704961131	 1.4646664681	 0.105675
113.591	147.2566	173.3499	256.1355	358.0287	447.4913	501.5858	511.4616	561.5333	622.82	631.8662	667.2225	756.567	766.9306	865.9801	874.8472	933.6628	947.6902	973.8897	1007.4266	1019.2395	1029.0462	1054.8671	1115.6837	1148.6308	1172.6917	1183.0885	1206.0112	1261.1628	1311.1654	1324.7962	1355.9141	1384.5062	1465.3437	1518.7101	1678.7488	2233.2732	3019.0263	3022.3189	3063.216	3068.196	3075.6652	3187.1455	3213.89	3501.137
C#CC12COC1CC=C2	C#C[C@]12CO[C@H]1CC=C2	
InChI=1S/C8H8O/c1-2-8-5-3-4-7(8)9-6-8/h1,3,5,7H,4,6H2	InChI=1S/C8H8O/c1-2-8-5-3-4-7(8)9-6-8/h1,3,5,7H,4,6H2/t7-,8-/m0/s1
