19
gdb 44387	3.43771	1.52559	1.36293	2.9331	78.44	-0.2345	-0.0193	0.2152	993.3126	0.161889	-385.884969	-385.878262	-385.877318	-385.915976	28.169	
O	 0.0111056624	 0.0186747795	-0.50286599	-0.302764
C	-0.0097448657	 1.1577119091	-0.1361015961	 0.399666
C	-1.1470668266	 2.1484403014	 0.1988477643	-0.383153
C	-0.0672896501	 3.22491493	 0.5108860208	-0.009558
C	 0.3269193954	 3.4901461872	 1.9773717351	-0.027739
C	 1.8696177994	 3.68954433	 1.8308924666	-0.220671
C	 1.8302181318	 2.1654447036	 1.4821275102	-0.025338
C	 0.6850687842	 2.0791845335	 2.5306597859	-0.246142
C	 1.0815166277	 2.212974053	 0.1299357893	-0.139198
H	-1.7597398765	 2.3689491631	-0.6813801495	 0.128743
H	-1.8147634576	 1.8492532945	 1.0122189942	 0.126943
H	-0.1450406608	 4.1391398766	-0.0785630961	 0.074437
H	-0.2926564789	 4.1850529974	 2.5451815156	 0.063328
H	 2.2287447331	 4.3844512346	 1.0656592474	 0.091546
H	 2.3652840216	 3.8873549928	 2.7844634379	 0.100042
H	 2.7121653123	 1.5287771412	 1.5408543111	 0.074139
H	 1.0680828776	 2.1323341881	 3.5517869125	 0.101583
H	-0.0436997867	 1.2680505744	 2.4607500497	 0.103873
H	 1.7342237576	 2.4291933501	-0.719274359	 0.090263
99.6772	229.0147	302.0007	435.0131	448.105	507.5397	556.5918	582.6245	723.7321	746.3104	801.6595	837.2414	844.5429	857.3408	881.095	906.4837	939.9955	979.0156	994.5117	1015.3085	1035.4924	1044.849	1067.9494	1085.0661	1100.0497	1109.0227	1129.5529	1160.1481	1214.9466	1222.5702	1228.7846	1241.8252	1250.6497	1268.415	1286.9393	1318.5435	1335.0219	1434.6162	1491.0342	1529.2582	1885.1764	3050.5291	3052.9193	3068.332	3084.3232	3097.9124	3105.9984	3112.3419	3114.0112	3120.9759	3126.139
O=C1CC2C3CC(C3)C12	O=C1C[C@H]2[C@@H]3C[C@@H](C3)[C@@H]12	
InChI=1S/C8H10O/c9-7-3-6-4-1-5(2-4)8(6)7/h4-6,8H,1-3H2	InChI=1S/C8H10O/c9-7-3-6-4-1-5(2-4)8(6)7/h4-6,8H,1-3H2/t4-,5+,6-,8+/m0/s1
