17
gdb 74101	2.62543	1.71943	1.23083	5.845	77.14	-0.2128	-0.0197	0.1931	1016.8321	0.139119	-418.008489	-418.001216	-418.000272	-418.039875	29.5	
N	 0.0599649004	 1.3602329766	 0.0933330594	-0.597563
C	-0.0096406125	-0.0000794443	 0.0117443109	 0.457532
C	-1.1483495603	-0.7402246927	-0.0063298947	-0.320944
C	-1.0003265907	-2.1904161259	-0.0003559739	 0.448039
O	-1.9134091095	-2.9952555682	 0.0129631232	-0.374546
C	 0.4745222998	-2.6357849006	 0.0098287598	-0.125371
C	 1.245701291	-1.8618670322	 1.1150290516	-0.237432
C	 1.3035572945	-0.7622115666	 0.0191670067	-0.111181
N	 1.1907899421	-1.8203634972	-1.0530555701	-0.326241
H	 0.9033001027	 1.8150443803	-0.2168186197	 0.260032
H	-0.7859241666	 1.8874437774	-0.0597164738	 0.263356
H	-2.142123064	-0.306399969	-0.0219686701	 0.083932
H	 0.5473944502	-3.7204054846	-0.0686040695	 0.083893
H	 0.7471238918	-1.637754505	 2.061538969	 0.114554
H	 2.2321537338	-2.2979261727	 1.3000129846	 0.100244
H	 2.171239047	-0.0996029258	-0.0436607513	 0.06375
H	 2.1201950904	-2.2319117896	-1.1553914122	 0.217945
153.0779	163.5738	320.026	340.3324	386.3487	432.2598	456.7819	485.7745	508.7791	569.9264	687.6043	730.1292	752.2214	832.4971	846.7303	864.4486	909.3679	920.6383	940.7921	989.5942	1052.1344	1077.8569	1096.9421	1110.9433	1169.2494	1203.3401	1237.5324	1259.0704	1277.2262	1299.3041	1344.1486	1383.8073	1435.813	1491.414	1635.0374	1677.4299	1775.745	3046.7865	3070.5493	3109.8257	3121.3873	3189.1679	3431.8234	3583.2622	3695.3618
NC1=CC(=O)C2CC1N2	NC1=CC(=O)[C@@H]2C[C@H]1N2	
InChI=1S/C6H8N2O/c7-3-1-6(9)5-2-4(3)8-5/h1,4-5,8H,2,7H2	InChI=1S/C6H8N2O/c7-3-1-6(9)5-2-4(3)8-5/h1,4-5,8H,2,7H2/t4-,5+/m1/s1
