19
gdb 12094	3.24221	1.63429	1.39938	2.1983	71.03	-0.2445	0.074	0.3185	980.0968	0.164086	-365.017538	-365.008941	-365.007997	-365.051043	31.894	
C	-1.4928971628	-0.7208385449	 1.8357720659	-0.420825
C	-0.547261388	-0.5590710881	 0.6746409865	 0.083313
O	-0.2982073232	 0.7777203851	 0.2325052302	-0.250594
C	 0.8031405752	 0.0357846259	 0.7629264328	-0.038685
C	 1.4610415649	 0.559636958	 2.0204913036	 0.291843
C	 1.4997798605	 2.0692318396	 2.136610858	-0.433053
C	 1.4796725405	-0.2890243307	 3.2447766022	-0.27029
N	 2.7016268478	-0.1234514196	 2.4362720159	-0.353323
H	-1.2665418528	-0.01276088	 2.6348640754	 0.136296
H	-2.5215008313	-0.5476551355	 1.5025007381	 0.129956
H	-1.4411752017	-1.7377117218	 2.239999462	 0.119481
H	-0.7129830629	-1.2611222312	-0.1462703591	 0.088133
H	 1.5222510238	-0.2581455001	-0.0081347331	 0.092518
H	 0.4875214264	 2.480460714	 2.1701009429	 0.128354
H	 2.0415050005	 2.3627170537	 3.0389456493	 0.121655
H	 2.0111185614	 2.5097120415	 1.2739189322	 0.122294
H	 1.5141269756	 0.1783481912	 4.2258453733	 0.116518
H	 0.9702990257	-1.2477275436	 3.2198689979	 0.110559
H	 2.8468906703	-0.9570108835	 1.8689226959	 0.225848
28.9047	160.6187	199.5088	213.499	232.6394	303.9597	346.8193	375.4189	391.3959	480.0845	562.5461	720.4708	790.0496	827.1273	838.6426	921.6676	940.8139	973.5661	988.4901	1033.8345	1035.2938	1072.3435	1098.8789	1117.2249	1140.7389	1169.8743	1176.5635	1266.1487	1289.3604	1345.5135	1358.567	1392.7472	1413.4436	1416.9657	1459.2522	1481.2847	1487.9747	1495.947	1502.3666	1510.6607	3038.3917	3041.403	3052.0553	3079.1463	3098.7454	3106.695	3109.0529	3131.7143	3138.9058	3193.0547	3474.9183
CC1OC1C1(C)CN1	C[C@H]1O[C@H]1[C@@]1(C)CN1	
InChI=1S/C6H11NO/c1-4-5(8-4)6(2)3-7-6/h4-5,7H,3H2,1-2H3	InChI=1S/C6H11NO/c1-4-5(8-4)6(2)3-7-6/h4-5,7H,3H2,1-2H3/t4-,5-,6-/m1/s1
