16
gdb 38094	3.01845	2.03459	1.43785	1.7049	72.55	-0.2319	0.0003	0.2322	889.2138	0.127168	-400.749807	-400.743552	-400.742608	-400.780173	25.879	
C	-0.094070246	 1.4152730425	 0.0468392818	-0.36337
C	 1.347000046	 0.8723526467	 0.0081692945	-0.158033
C	 2.0343699297	 0.5260804765	 1.2891708845	-0.077558
C	 1.4473904748	-0.4952700726	 1.9225827432	-0.093192
C	 0.2055826433	-0.9590520697	 1.1905179723	-0.095904
N	 0.2110583432	-2.3128998393	 0.5856705983	-0.276122
C	-0.0265492815	-2.1289213439	-0.6464780753	 0.095135
O	-0.1804743301	-0.8634791724	-1.1396951556	-0.253929
C	 0.1507394118	-0.0414543439	-0.0321740536	 0.419247
H	-0.4899615131	 1.8304445554	 0.9694492461	 0.12022
H	-0.4223531178	 1.9138044753	-0.8595268197	 0.129422
H	 1.9239576356	 1.1012152791	-0.8808927273	 0.10457
H	 2.9124247	 1.0545850944	 1.6431585145	 0.103841
H	 1.7509439691	-0.9146617155	 2.8738109359	 0.107822
H	-0.6718573778	-0.8927831812	 1.8490424289	 0.09754
H	-0.1401641671	-2.9080478614	-1.3915320286	 0.140311
172.3334	262.5533	318.3177	400.9846	477.8595	540.1849	590.4415	623.3914	740.3081	777.7016	809.9979	848.6195	881.8627	904.7083	932.8079	958.6473	973.1176	982.5953	990.5666	1048.0088	1058.3122	1075.1483	1077.8545	1110.9004	1137.1487	1203.4384	1258.1832	1289.2248	1318.3796	1331.3426	1365.5499	1397.2923	1480.5386	1649.614	1684.7057	3007.1075	3118.2534	3176.6582	3192.7728	3212.2713	3219.8289	3220.7659
C1C2C=CC3N=COC123	C1[C@H]2C=C[C@@H]3[N][CH]O[C@]123	
InChI=1S/C7H7NO/c1-2-6-7(3-5(1)7)9-4-8-6/h1-2,4-6H,3H2	InChI=1S/C7H7NO/c1-2-6-7(3-5(1)7)9-4-8-6/h1-2,4-6H,3H2/t5-,6+,7-/m1/s1
