14
gdb 66701	3.24553	1.74739	1.47227	3.3378	63.81	-0.2393	-0.017	0.2223	873.7543	0.101302	-436.631583	-436.625176	-436.624232	-436.662176	26.104	
O	-0.1125494934	 1.3892595102	-0.0186716288	-0.453373
C	 0.0405258351	 0.0310981465	-0.0022274748	 0.391995
C	-1.0022078807	-1.0176988658	 0.1707891445	-0.152592
C	-0.2870384664	-1.8904118802	-0.9152342735	-0.055717
C	 0.7484012367	-0.8571686587	-1.0967067794	-0.156631
N	 1.0982566997	-2.142465027	-0.4366811659	-0.177066
C	 1.1156522374	-1.9081716585	 1.0023802614	 0.447212
O	 1.84628524	-2.461181425	 1.7693496443	-0.316415
C	 0.0814810537	-0.8587711241	 1.2380415446	-0.296399
H	 0.7042625284	 1.798962053	 0.2912479011	 0.297573
H	-2.0593481906	-0.9405704881	 0.3755487925	 0.118165
H	-0.7374230516	-2.5961287613	-1.5999135264	 0.114997
H	 1.3151984499	-0.5307505168	-1.9591425558	 0.115429
H	-0.1491209383	-0.4652941141	 2.2172635162	 0.122823
140.3165	277.2703	320.3639	352.2892	471.8214	537.7165	576.9862	628.1393	714.3055	749.2744	770.0227	801.1645	838.4864	861.6396	892.1859	907.8037	924.44	945.2718	963.3274	1001.5515	1040.1238	1094.8679	1123.2562	1172.8294	1227.0688	1235.8747	1242.0908	1298.0786	1322.1298	1482.1434	1889.369	3199.1479	3213.0387	3233.1878	3240.8184	3778.0652
OC12C3C4C1N4C(=O)C23	O[C@@]12[C@H]3[C@H]4[C@@H]1N4C(=O)[C@@H]23	
InChI=1S/C6H5NO2/c8-5-2-1-3-4(7(3)5)6(1,2)9/h1-4,9H	InChI=1S/C6H5NO2/c8-5-2-1-3-4(7(3)5)6(1,2)9/h1-4,9H/t1-,2+,3+,4+,6-,7?/m1/s1
