17
gdb 63867	2.30792	1.61187	1.28707	2.7207	74.23	-0.254	0.0058	0.2598	1042.8485	0.135179	-417.978942	-417.970409	-417.969464	-418.011704	32.653	
C	-0.0578265616	 1.557777525	 0.0348147731	-0.461395
C	 0.0376389675	 0.0458364112	-0.0518383942	 0.339541
O	-1.1811884114	-0.5604696269	-0.4183377295	-0.460372
C	 1.1617750622	-0.5867167866	-0.9425954496	-0.252068
C	 1.7288410262	-1.2890968973	 0.2931854562	-0.112489
N	 2.0954812259	-0.2324828462	 1.2518965829	-0.367546
C	 0.679993708	-0.6832615082	 1.172990859	 0.19811
C	-0.0251903809	-1.223514246	 2.2836241489	 0.164104
N	-0.6388766077	-1.6350496307	 3.1756567447	-0.348326
H	 0.9002201447	 1.9861280006	 0.3363445746	 0.14718
H	-0.3459423573	 1.969792671	-0.936991535	 0.12962
H	-0.8144966525	 1.8558202943	 0.7708845825	 0.115539
H	-1.8643363913	-0.2657777776	 0.1956014735	 0.288476
H	 0.7137310127	-1.2722267729	-1.6621945839	 0.132665
H	 1.8454739626	 0.1044261091	-1.4386537638	 0.115887
H	 2.1666303168	-2.2770200322	 0.3579810395	 0.121339
H	 2.5149625462	-0.6746235368	 2.0702473511	 0.249735
110.6003	129.2342	191.9177	243.8938	288.6255	323.1507	369.7856	379.9513	454.0811	473.1795	532.2363	586.2351	612.0016	650.3984	802.6146	867.2928	888.5667	907.2076	949.9336	969.8177	1000.7422	1031.6378	1088.757	1117.8029	1149.2269	1176.2554	1231.8823	1254.3664	1288.4516	1329.446	1369.8798	1396.4433	1407.3188	1466.7451	1485.9034	1497.6219	2338.8933	3030.2999	3083.112	3100.3506	3137.7216	3152.5378	3203.587	3474.9367	3792.2326
CC1(O)CC2NC12C#N	C[C@@]1(O)C[C@H]2N[C@@]12C#N	
InChI=1S/C6H8N2O/c1-5(9)2-4-6(5,3-7)8-4/h4,8-9H,2H2,1H3	InChI=1S/C6H8N2O/c1-5(9)2-4-6(5,3-7)8-4/h4,8-9H,2H2,1H3/t4-,5-,6-/m1/s1
