12
gdb 23771	3.35865	2.41815	1.40592	3.2342	61.75	-0.213	-0.05	0.1629	786.9668	0.086111	-418.841661	-418.835587	-418.834642	-418.871908	23.302	
F	 0.0829371804	 0.0993072568	 0.2391955435	-0.065116
C	-0.0017611733	 1.4164712675	 0.077057587	 0.274327
N	-1.1511121205	 1.9557053469	 0.0007473635	-0.288936
C	-1.2122523099	 3.3269002936	-0.1682604256	-0.077303
C	-0.0845510936	 4.0699338678	-0.2497024238	 0.005497
N	 1.1370627884	 3.459927808	-0.1641551771	-0.325123
C	 1.3045513364	 2.0889300593	 0.005717631	 0.264266
N	 2.476102994	 1.581292394	 0.0781414898	-0.557433
H	-2.1960554068	 3.7697675479	-0.2312475942	 0.125373
H	-0.0809138642	 5.143750553	-0.3815724696	 0.140372
H	 1.992123255	 3.9940983467	-0.2223550092	 0.273225
H	 2.4085174841	 0.5737131085	 0.2013106247	 0.23085
128.857	281.036	325.0266	434.7819	514.1925	546.3046	569.0785	571.8938	664.9108	757.1023	764.6114	788.58	818.0419	906.0854	916.7252	1060.8381	1094.6489	1205.6048	1250.03	1297.4929	1391.7226	1412.2871	1490.9978	1616.5268	1675.5654	1710.4534	3220.2832	3238.6544	3528.3606	3617.6386
FC1=NC=CNC1=N	FC1=NC=CN[C@@H]1[NH]	
InChI=1S/C4H4FN3/c5-3-4(6)8-2-1-7-3/h1-2H,(H2,6,8)	InChI=1S/C4H5FN3/c5-3-4(6)8-2-1-7-3/h1-2,4,6,8H/t4-/m0/s1
