25
gdb 100912	2.15508	0.9961	0.72905	2.78	90.12	-0.2426	-0.0164	0.2262	1659.7717	0.225524	-389.514321	-389.502521	-389.501577	-389.55262	41.682	
C	-0.0846726879	 1.5745610411	 0.1148863409	-0.39113
C	 0.1242762905	 0.0561360456	 0.0827506726	-0.174839
C	 0.7312153271	-0.4773412955	-1.2316295799	 0.019642
C	 2.1972446739	-0.0331697115	-1.3733124255	-0.411303
C	 0.6068381893	-2.0254786051	-1.3265445331	-0.049176
C	-0.8490779719	-2.5125333444	-1.5175276822	-0.205394
C	-1.0147664301	-4.0274389911	-1.3535407708	-0.389733
C	 1.4064195254	-2.5457407143	-2.5054142472	 0.155367
O	 2.2714184619	-3.3820837601	-2.4599134216	-0.261129
H	 0.85585755	 2.1260484793	 0.0252376283	 0.12084
H	-0.7394246535	 1.8991430877	-0.7017140862	 0.11488
H	-0.5528483352	 1.8804129147	 1.0556776796	 0.115168
H	 0.7751718389	-0.2448098377	 0.9148705879	 0.09769
H	-0.8420328959	-0.4237047052	 0.2686930444	 0.098038
H	 0.1591417121	-0.0484440211	-2.0684024347	 0.070568
H	 2.8160765493	-0.4873098488	-0.5907530263	 0.12377
H	 2.6249671958	-0.3234442475	-2.3376781092	 0.123039
H	 2.2949084383	 1.0523288502	-1.2908874114	 0.11667
H	 1.034384317	-2.4791178813	-0.4235002839	 0.085179
H	-1.5020745841	-1.9994406113	-0.8054780774	 0.107346
H	-1.1937395608	-2.2055939307	-2.5149956827	 0.099647
H	-0.3833498581	-4.5838313196	-2.0531671829	 0.13286
H	-0.7384098028	-4.3445792851	-0.3424147971	 0.121346
H	-2.052850264	-4.326867657	-1.5264250914	 0.114124
H	 1.0995575047	-2.0958192312	-3.4825301403	 0.066529
35.3969	58.1509	67.2474	82.7123	170.659	191.5091	215.2822	237.8166	259.1731	307.7115	328.7278	343.5884	382.2552	444.7254	462.1286	562.1265	767.4157	772.8516	833.153	879.1699	919.6542	968.4051	978.7706	987.6013	1013.5981	1039.8692	1050.2141	1083.4104	1143.3455	1166.5767	1169.0768	1184.3627	1254.6764	1266.1139	1298.9609	1333.9037	1346.4978	1360.6327	1368.3643	1384.9316	1410.8825	1416.6906	1419.2134	1427.0526	1481.0287	1487.5866	1493.5107	1498.6454	1499.5708	1505.3321	1508.1798	1511.5085	1831.0379	2820.9983	2989.1232	3014.7849	3020.7947	3033.7006	3036.1101	3037.0406	3041.9345	3065.6398	3079.9573	3099.2849	3100.6063	3105.452	3107.6	3112.2432	3117.4323
CCC(C)C(CC)C=O	CC[C@@H](C)[C@@H](CC)C=O	
InChI=1S/C8H16O/c1-4-7(3)8(5-2)6-9/h6-8H,4-5H2,1-3H3	InChI=1S/C8H16O/c1-4-7(3)8(5-2)6-9/h6-8H,4-5H2,1-3H3/t7-,8+/m1/s1
