17
gdb 105791	2.41009	1.51167	1.28187	2.4643	64.04	-0.2417	-0.0353	0.2065	1052.5568	0.134408	-496.094728	-496.085712	-496.084768	-496.12931	31.575	
O	 0.1028957102	 1.4230239625	-0.0894898725	-0.418208
C	 0.0777754124	 0.0102596706	-0.047271793	-0.123282
C	-1.361994444	-0.4780825311	-0.0119512122	 0.339053
O	-2.0009171872	-0.1066616331	-1.2064144458	-0.29009
C	-2.9715434158	-1.1073736596	-1.5189141492	-0.101533
C	-2.6466515553	-2.2713077992	-0.5521707347	-0.12317
O	-1.4110346136	-1.8889934384	 0.0578365248	-0.286085
C	-2.125876686	 0.0594802149	 1.2188050377	 0.149903
O	-3.2994950746	 0.3209975205	 1.2005430807	-0.26067
H	-0.3948352567	 1.6873676809	-0.8723294386	 0.300123
H	 0.5808433989	-0.4556648439	-0.9050163486	 0.107526
H	 0.5969444742	-0.2952287902	 0.865943303	 0.123463
H	-3.9814664759	-0.7195962894	-1.3610398078	 0.130729
H	-2.8462827072	-1.3847102978	-2.5699174939	 0.115264
H	-3.4306201756	-2.39208463	 0.2038930694	 0.12419
H	-2.4844620107	-3.2256010908	-1.057791849	 0.124704
H	-1.5241053933	 0.1111182342	 2.1522936395	 0.088084
63.1913	87.2645	97.7488	153.4698	182.2461	265.7603	292.1346	385.6346	437.8309	453.1856	645.9235	677.5319	732.7791	830.5102	856.6909	885.7739	954.5937	968.0406	1041.6073	1065.7247	1072.9488	1090.1638	1136.4171	1161.1368	1230.0803	1237.9507	1247.4932	1275.532	1374.3452	1375.0154	1382.7178	1413.7316	1429.1007	1498.149	1515.4953	1527.5334	1836.5403	2897.8965	3021.5628	3040.9689	3051.7847	3094.2498	3097.0625	3114.8549	3797.7342
OCC1(OCCO1)C=O	OCC1(OCCO1)C=O	
InChI=1S/C5H8O4/c6-3-5(4-7)8-1-2-9-5/h3,7H,1-2,4H2	InChI=1S/C5H8O4/c6-3-5(4-7)8-1-2-9-5/h3,7H,1-2,4H2
