18
gdb 63565	2.66704	1.45476	1.1071	4.0001	73.67	-0.2464	0.0128	0.2592	1134.0609	0.145375	-439.095279	-439.086036	-439.085091	-439.129019	33.898	
C	-0.0542199746	 1.5393985472	-0.020298361	-0.454326
C	-0.0799743466	 0.0298256643	 0.0565180418	 0.282903
C	-1.229326191	-0.6670099691	-0.6359366094	-0.463816
O	 1.2097139944	-0.6039052651	-0.127627275	-0.309216
C	 0.6254155092	-0.6567081396	 1.1491018683	 0.230433
C	 1.2701586867	-0.1447908418	 2.4568817431	-0.252138
N	 0.8297909716	-1.4141364272	 3.0501860684	-0.348091
C	 0.2618637577	-1.9439176964	 1.9115593061	 0.386234
O	-0.2956792132	-2.9806082245	 1.6708812934	-0.369648
H	 0.8401034869	 1.9438212901	 0.4594442871	 0.12762
H	-0.0578622176	 1.864345811	-1.0663123619	 0.132316
H	-0.9384779805	 1.9661706091	 0.464815389	 0.125396
H	-1.2043750539	-0.4549114254	-1.7102811765	 0.124076
H	-1.1746765606	-1.7459293659	-0.4819011824	 0.164291
H	-2.186308406	-0.3058817954	-0.2446443107	 0.120807
H	 2.3563402816	-0.0246063583	 2.4027054997	 0.127869
H	 0.8123214686	 0.7460473661	 2.8989875505	 0.117843
H	 0.8517342272	-1.7501587091	 4.0000663094	 0.257447
103.3687	138.0327	151.8696	184.3793	190.0097	227.5406	299.0803	339.655	377.9114	449.9054	488.5147	524.201	642.0847	686.8745	757.8614	785.3633	889.6541	948.5313	956.8974	969.6355	998.6712	1049.7719	1077.544	1135.6711	1152.9692	1167.1071	1193.8412	1253.5478	1280.9863	1373.6525	1409.38	1419.7784	1467.6339	1476.6288	1483.5817	1498.7802	1521.0179	1533.0891	1890.6497	3034.8632	3039.4504	3041.6591	3092.9214	3097.7246	3102.6537	3125.8709	3144.9809	3636.3793
CC1(C)OC11CNC1=O	CC1(C)O[C@]21CNC2=O	
InChI=1S/C6H9NO2/c1-5(2)6(9-5)3-7-4(6)8/h3H2,1-2H3,(H,7,8)	InChI=1S/C6H9NO2/c1-5(2)6(9-5)3-7-4(6)8/h3H2,1-2H3,(H,7,8)/t6-/m1/s1
