21
gdb 59276	3.0044	1.31994	1.02609	1.6535	82.77	-0.2436	0.0005	0.2441	1224.7648	0.182228	-387.082291	-387.073529	-387.072584	-387.1159	33.853	
C	 0.0533920984	 1.5560609141	 0.0238023401	-0.399
C	 0.030351969	 0.0218899669	 0.0517133976	 0.045593
C	 0.7600951564	-0.5010376397	 1.2976201612	-0.397388
C	-1.4133989617	-0.5360783305	-0.0225729178	-0.060266
C	-2.1823989582	-0.1494370543	-1.2784695979	-0.091612
C	-2.6582589018	-1.2058129736	-1.9423320264	-0.096112
C	-2.2523731973	-2.4674381753	-1.254675306	-0.005284
O	-0.8158104193	-2.6515447229	-1.1950524826	-0.262206
C	-1.4796112808	-2.0668976114	-0.0696529621	 0.0203
H	 1.081381102	 1.9267138953	 0.092203332	 0.112575
H	-0.3797783579	 1.9605481385	-0.8953241212	 0.113783
H	-0.5043988356	 1.9746824793	 0.8706652212	 0.109573
H	 0.5558610023	-0.3527954461	-0.8348064909	 0.094331
H	 0.8377359671	-1.5919536001	 1.2957693045	 0.123474
H	 1.7766188104	-0.0975977136	 1.3480503411	 0.111318
H	 0.2398287811	-0.1998576975	 2.2154586769	 0.10732
H	-1.9560810898	-0.184654801	 0.8692221199	 0.077686
H	-2.2893965512	 0.8809536099	-1.5967032059	 0.104255
H	-3.2324005525	-1.1790172501	-2.8601254198	 0.101537
H	-2.8282226143	-3.3852736728	-1.3239107412	 0.095309
H	-1.4478096563	-2.6533215451	 0.8444094872	 0.094812
49.6901	125.3248	179.1514	227.8358	239.6248	328.0806	342.5623	391.3988	440.9437	494.3741	548.9485	716.1144	741.8259	812.995	833.4363	858.3381	873.8136	894.2767	929.3446	939.9032	963.241	978.6158	987.3989	1015.6129	1049.2213	1109.3493	1127.8366	1140.2749	1152.1119	1189.5002	1253.9714	1272.5214	1292.0869	1301.4715	1354.1387	1362.8478	1379.0669	1399.9301	1413.6486	1420.9132	1486.8238	1494.1756	1504.0372	1511.8264	1660.9311	2983.6567	3023.3066	3026.8435	3041.5288	3087.0221	3094.9383	3107.2637	3109.6949	3147.1151	3164.7156	3193.5237	3219.7299
CC(C)C1C=CC2OC12	CC(C)[C@H]1C=C[C@H]2O[C@@H]12	
InChI=1S/C8H12O/c1-5(2)6-3-4-7-8(6)9-7/h3-8H,1-2H3	InChI=1S/C8H12O/c1-5(2)6-3-4-7-8(6)9-7/h3-8H,1-2H3/t6-,7-,8+/m1/s1
