17
gdb 74871	2.94793	1.56228	1.10853	2.6854	76.11	-0.2384	-0.0224	0.216	1078.0225	0.136625	-418.037378	-418.029478	-418.028534	-418.069829	29.865	
C	 0.02388429	 1.4869852723	-0.0569764437	-0.467144
C	-0.0122729884	-0.0036213307	-0.0519854243	 0.360733
N	-0.0866225938	-0.7283334442	-1.106475661	-0.28363
C	-0.041209422	-2.1138108757	-0.7140449305	-0.006108
C	 1.230098037	-2.5962496204	-0.0507786486	-0.312567
C	 0.0688553003	-2.1506943645	 0.8017127608	-0.038715
N	 0.0450562204	-0.7494824862	 1.1550430803	-0.102809
C	 0.0165152186	-0.2869091584	 2.448928812	 0.148032
O	-0.0176967603	 0.8737053118	 2.7874811792	-0.316572
H	 0.9466388222	 1.8578181354	 0.3977454835	 0.150766
H	-0.0420820918	 1.8254533842	-1.0913931316	 0.142213
H	-0.796706956	 1.9014636042	 0.5329575251	 0.157648
H	-0.6392598259	-2.8028896707	-1.2977906267	 0.107526
H	 1.420723995	-3.663299593	-0.0783244626	 0.125291
H	 2.1104183344	-1.9648194808	-0.108291618	 0.1279
H	-0.4579379457	-2.8284027969	 1.4614369755	 0.118351
H	 0.0300503758	-1.1256347164	 3.1709671506	 0.089085
86.4122	176.4227	197.4408	236.8921	242.7224	361.9627	387.5494	458.2064	496.0447	654.9936	673.7857	742.3339	773.3447	786.7738	841.3594	942.3853	985.355	1000.3434	1027.6637	1048.0217	1055.9302	1069.4182	1089.535	1141.3893	1184.2115	1194.6705	1282.7333	1299.113	1342.0555	1411.134	1418.6783	1445.1895	1459.2233	1466.3426	1471.7595	1688.1017	1801.2325	2951.1356	3060.9095	3123.6343	3132.5345	3160.3521	3183.3886	3191.5986	3227.1913
CC1=NC2CC2N1C=O	CC1=N[C@H]2C[C@H]2N1C=O	
InChI=1S/C6H8N2O/c1-4-7-5-2-6(5)8(4)3-9/h3,5-6H,2H2,1H3	InChI=1S/C6H8N2O/c1-4-7-5-2-6(5)8(4)3-9/h3,5-6H,2H2,1H3/t5-,6+/m0/s1
