19
gdb 34305	3.17539	1.43692	1.27596	4.5728	78.39	-0.2552	0.0233	0.2786	1046.6564	0.163755	-382.099852	-382.092541	-382.091597	-382.131472	29.476	
N	 0.0454173863	-1.1004769801	-0.0335745862	-0.343514
C	 0.0024279177	 0.05414053	-0.0155610032	 0.191058
C	-0.0155783269	 1.5101869427	 0.0220065074	 0.194604
C	-0.8172832325	 2.11628139	 1.2068251514	-0.227337
C	-1.1295041288	 3.5464050118	 0.6706437896	-0.201245
C	-0.458605028	 3.5248430808	-0.718022971	-0.007127
C	 1.0813070584	 3.5875907119	-0.5388298189	-0.225673
C	 1.4049066237	 2.1627018722	-0.0014946845	-0.253056
N	-0.7335780495	 2.125813282	-1.1220028578	-0.322454
H	-1.7294321605	 1.5425505792	 1.3758005562	 0.127591
H	-0.2323934821	 2.1102442547	 2.1285770119	 0.111269
H	-2.2061747894	 3.6984185926	 0.5755678757	 0.115114
H	-0.7281323531	 4.3369981831	 1.3088538534	 0.101939
H	-0.8632313058	 4.2478149641	-1.4271257604	 0.076026
H	 1.5752359292	 3.7684006542	-1.497838317	 0.103335
H	 1.3932487312	 4.3809930166	 0.1457257485	 0.10569
H	 1.8708747888	 2.1629583628	 0.9865879687	 0.115048
H	 2.0635199286	 1.6110293827	-0.6767854573	 0.116691
H	-0.2572313174	 1.9001655188	-1.9940302864	 0.222041
128.5774	161.1227	182.6576	331.4356	390.0542	496.8885	506.4179	550.7044	561.918	579.9593	759.693	804.4977	818.0199	826.7671	867.0628	920.8991	931.2117	948.4775	962.4667	978.5538	1014.7473	1046.2307	1056.4332	1110.1769	1157.1521	1175.7903	1196.1061	1229.0196	1238.3936	1261.7395	1298.8154	1308.9625	1321.4205	1334.6801	1340.0769	1401.1861	1480.6771	1495.1911	1496.6745	1516.1949	2361.7734	3054.3456	3069.0366	3070.8258	3083.7092	3094.6864	3111.4802	3116.6048	3117.6292	3137.1019	3476.062
N#CC12CCC(CC1)N2	N#C[C@@]12CC[C@@H](CC1)N2	
InChI=1S/C7H10N2/c8-5-7-3-1-6(9-7)2-4-7/h6,9H,1-4H2	InChI=1S/C7H10N2/c8-5-7-3-1-6(9-7)2-4-7/h6,9H,1-4H2/t6-,7+
