19
gdb 39175	2.33298	1.73532	1.57037	1.1822	83.14	-0.212	0.0182	0.2302	988.623	0.160991	-385.869495	-385.86188	-385.860936	-385.901571	30.255	
C	 0.1733302231	 1.4053935593	 0.3795786381	-0.230352
C	 1.6527625492	 1.3743035398	-0.105530379	-0.141026
C	 1.8724286454	 2.012018411	-1.4847370091	-0.067155
O	 1.3589298644	 1.3412460322	-2.63832834	-0.23699
C	 0.1760150928	 0.6715873581	-2.6618476018	 0.06035
C	-0.4620223585	 0.0420464151	-1.6722269267	-0.141929
C	 2.3691939677	-1.145210861	 0.035781621	-0.486322
C	 1.5267162714	-0.1416161508	-0.1409174787	 0.426292
C	 0.0043048794	-0.0244943157	-0.2428566181	-0.166555
H	 0.1113258844	 1.3873386007	 1.4704324842	 0.103122
H	-0.4723021535	 2.1906978288	-0.020887148	 0.095719
H	 2.3994456337	 1.8004409656	 0.5723099064	 0.080761
H	 1.4648479256	 3.0338075658	-1.4692313949	 0.103479
H	 2.9459054956	 2.081157803	-1.6831541192	 0.118281
H	-0.2065448797	 0.6462803323	-3.6783629426	 0.107759
H	-1.3910174318	-0.4525756121	-1.9329000843	 0.091271
H	 2.0291962319	-2.1758763378	 0.0554430118	 0.10719
H	 3.4336794588	-0.9783537405	 0.1694294095	 0.103635
H	-0.5845277897	-0.7468288338	 0.3265316813	 0.072468
83.025	138.9025	202.9311	318.1743	356.4238	378.6282	435.5704	535.4821	656.1128	701.1744	729.0457	748.0797	774.7879	825.1794	830.5941	888.3282	910.4329	912.3295	922.3503	938.6389	975.0493	995.5408	1079.6526	1091.9712	1119.4789	1149.5879	1172.465	1205.6853	1226.2879	1252.7013	1302.6996	1313.8865	1322.8618	1325.6209	1406.2742	1429.2927	1450.6292	1482.3788	1496.2133	1705.3397	1761.3578	2995.4925	3051.4352	3060.9261	3083.0117	3084.5584	3120.2117	3139.6608	3167.4113	3194.2502	3218.6672
C1C2COC3C4CC23C14	C1[C@@H]2COC=C[C@H]1C2=C	
InChI=1S/C8H10O/c1-4-3-9-7-5-2-8(4,7)6(1)5/h4-7H,1-3H2	InChI=1S/C8H10O/c1-6-7-2-3-9-5-8(6)4-7/h2-3,7-8H,1,4-5H2/t7-,8-/m1/s1
