20
gdb 70187	3.04643	1.32445	1.11551	3.8216	78.63	-0.2303	0.0359	0.2662	1154.5686	0.172788	-403.187458	-403.179142	-403.178198	-403.22013	32.758	
C	-0.0142325746	 1.5184820619	 0.0192477965	-0.475791
C	-0.0449660953	 0.004953708	 0.023598472	 0.374073
C	-0.8840915312	-0.7274441284	 1.0417428935	-0.351013
C	 0.6226647235	-0.7481612795	 1.1513713232	-0.049795
C	 1.4413474936	-1.975172221	 0.7631009479	-0.35391
C	 2.2442290195	-1.7734745006	-0.5244990992	 0.393718
O	 3.3622283412	-2.2202552956	-0.6967517247	-0.37568
N	 1.5796900253	-1.0460890673	-1.4751299574	-0.295225
C	 0.1796570133	-0.6603925851	-1.3348697793	-0.25954
H	 0.918076098	 1.888533302	-0.4231588144	 0.124731
H	-0.8486150793	 1.9339061495	-0.5585963226	 0.115544
H	-0.0817580566	 1.9187124313	 1.0354956708	 0.11702
H	-1.439786989	-0.1368270781	 1.7626428348	 0.112585
H	-1.3854384133	-1.6419580191	 0.7374989937	 0.108371
H	 1.0578188344	-0.1406639479	 1.9391302585	 0.092718
H	 2.1491938816	-2.2600203261	 1.5427539414	 0.131392
H	 0.7856782442	-2.8415234377	 0.6023890445	 0.121898
H	 2.0321257544	-0.9899277371	-2.3747238606	 0.246227
H	-0.4815301716	-1.5311585601	-1.4514261454	 0.108424
H	-0.0647986882	 0.0304526208	-2.146625683	 0.114254
80.1501	171.7299	190.4482	240.872	334.6369	338.4474	418.4461	452.3818	462.5103	475.4647	515.2585	623.2603	679.3912	757.6462	836.2271	855.3274	890.3877	903.1443	944.118	966.4671	977.6194	1033.5308	1066.8086	1085.6401	1106.6736	1123.8914	1141.0583	1217.9294	1236.6191	1291.6632	1301.7039	1316.864	1339.7561	1378.4156	1412.9695	1422.1456	1459.5642	1466.1935	1490.0875	1494.8425	1502.9007	1515.7478	1799.7349	2992.9578	3020.6656	3024.8295	3081.2291	3081.5237	3100.8342	3119.5141	3120.9695	3151.6765	3205.9777	3626.1422
CC12CC1CC(=O)NC2	C[C@]12C[C@H]1CC(=O)NC2	
InChI=1S/C7H11NO/c1-7-3-5(7)2-6(9)8-4-7/h5H,2-4H2,1H3,(H,8,9)	InChI=1S/C7H11NO/c1-7-3-5(7)2-6(9)8-4-7/h5H,2-4H2,1H3,(H,8,9)/t5-,7-/m1/s1
