22
gdb 56172	3.52966	0.77072	0.69454	3.4394	83.1	-0.2434	0.0356	0.279	1683.8004	0.19257	-404.381376	-404.370774	-404.36983	-404.418299	38.491	
C	 0.0730760124	 1.58042018	 0.2692849476	-0.46242
C	-0.0109408122	 0.0793974696	 0.0594342241	 0.386113
C	-1.3425132531	-0.4467109505	-0.4525432841	-0.257563
C	-1.7127207867	 0.0507473656	-1.855585717	-0.313326
C	-2.8956635185	-0.7181358662	-2.4430081202	 0.410452
N	-3.6667282241	-0.0060544032	-3.318561133	-0.522766
O	-3.1354226273	-1.8778749476	-2.1668791216	-0.359777
C	 1.2394742543	-0.6396523254	-0.3946782628	-0.297432
C	 0.7464317513	-0.7994067391	 1.0255247873	-0.314323
H	 1.0442839389	 1.8663309372	 0.6851095635	 0.112195
H	-0.0550618666	 2.1324208289	-0.6690241558	 0.110606
H	-0.7012127897	 1.9250906547	 0.9655240556	 0.112878
H	-1.3270721578	-1.5399584839	-0.4853187453	 0.123517
H	-2.1413903505	-0.173928109	 0.249891035	 0.096868
H	-1.9217607485	 1.1262337614	-1.8598902252	 0.098343
H	-0.8613541971	-0.1031985942	-2.5329873165	 0.129067
H	-3.4223815732	 0.9227447018	-3.6131095012	 0.255557
H	-4.3947598658	-0.4941950243	-3.8143333502	 0.258405
H	 1.1304747412	-1.4852412596	-1.0663398347	 0.111498
H	 2.1391254684	-0.0558773627	-0.560428134	 0.104661
H	 1.3118329472	-0.3207441475	 1.8184134172	 0.105453
H	 0.3065159976	-1.7505287461	 1.3066104312	 0.111994
26.9526	58.2107	99.5574	133.6416	169.8547	215.6063	234.8078	314.6005	336.6872	368.1317	420.2467	475.6029	529.7984	602.6367	668.547	723.6372	781.1063	792.6814	861.5315	874.133	922.8722	949.8302	954.3534	1009.8893	1047.8249	1059.2733	1068.8874	1080.1655	1098.9806	1120.3706	1178.3521	1188.8735	1254.6053	1292.6705	1315.6275	1358.6175	1367.1658	1405.9945	1421.4516	1464.0907	1468.3114	1485.9194	1495.7155	1500.7728	1511.023	1615.5527	1796.1891	3016.5536	3021.1528	3026.6575	3064.1217	3078.916	3093.0326	3097.2298	3123.6827	3129.1157	3201.5496	3216.3417	3600.6097	3738.0409
CC1(CCC(N)=O)CC1	CC1(CCC(=O)N)CC1	
InChI=1S/C7H13NO/c1-7(4-5-7)3-2-6(8)9/h2-5H2,1H3,(H2,8,9)	InChI=1S/C7H13NO/c1-7(4-5-7)3-2-6(8)9/h2-5H2,1H3,(H2,8,9)
