21
gdb 104432	3.07576	1.22444	1.10721	1.5327	80.96	-0.2445	0.0166	0.2611	1210.8239	0.181733	-424.218171	-424.208962	-424.208018	-424.251801	35.017	
C	 0.1284823222	 1.3752661163	-0.1103550664	-0.245597
O	-0.0361229705	-0.0134572162	 0.0688892872	-0.285994
C	-1.3723312255	-0.5328381377	 0.0313114057	 0.342166
C	-2.1366605558	-0.097656269	-1.2264275173	-0.441625
C	-1.1598511622	-2.0576969771	 0.0322516167	-0.130019
O	-2.3711220707	-2.7419966602	 0.2881340779	-0.250804
C	-2.8523607607	-2.5186429893	 1.5996958234	-0.117745
C	-2.7836236748	-1.0753289148	 2.0117127463	-0.083243
C	-2.1272785387	-0.1678651637	 1.2940677543	-0.10221
H	 1.1952197353	 1.5777120021	 0.0160015783	 0.128062
H	-0.1718574585	 1.710399967	-1.1124188982	 0.109265
H	-0.4220567489	 1.9710566306	 0.6317416986	 0.105575
H	-1.5105819469	-0.2307051736	-2.1154399896	 0.118162
H	-3.0284379966	-0.7209302259	-1.3283957248	 0.136762
H	-2.4584475409	 0.946667447	-1.1778322965	 0.111524
H	-0.8067528709	-2.3971631677	-0.9450697202	 0.106098
H	-0.3940932557	-2.2986971687	 0.7841807415	 0.099406
H	-3.8885275598	-2.877166178	 1.6121565525	 0.117068
H	-2.2932683951	-3.1377265172	 2.3263803812	 0.100905
H	-3.2881518846	-0.8076270917	 2.9369053212	 0.093715
H	-2.1065481809	 0.8725703177	 1.6059985784	 0.088528
87.1067	112.2577	177.0133	215.4312	269.6432	282.6737	292.8682	344.4824	382.9088	418.5876	485.7451	514.0315	555.083	702.506	730.0866	828.9267	883.6721	911.8811	962.6073	979.9373	994.2393	1003.5164	1043.0793	1098.8277	1125.8167	1152.9884	1175.9072	1181.4702	1206.3661	1221.2499	1256.4548	1294.5457	1310.116	1361.0028	1390.2322	1406.7631	1421.0318	1476.3502	1483.3991	1486.6409	1493.0745	1496.7984	1503.5479	1511.7232	1720.946	2932.365	2992.9189	3001.2251	3034.8693	3044.233	3049.8804	3095.1648	3106.6713	3109.29	3126.9014	3150.3676	3173.9241
COC1(C)COCC=C1	CO[C@@]1(C)COCC=C1	
InChI=1S/C7H12O2/c1-7(8-2)4-3-5-9-6-7/h3-4H,5-6H2,1-2H3	InChI=1S/C7H12O2/c1-7(8-2)4-3-5-9-6-7/h3-4H,5-6H2,1-2H3/t7-/m1/s1
