20
gdb 97103	2.42818	1.34971	1.01304	2.0735	83.66	-0.2408	0.0295	0.2703	1263.4157	0.169866	-403.134581	-403.125103	-403.124159	-403.169155	34.294	
C	-0.0628995906	 1.3831769706	-0.0383834558	-0.339996
N	-0.1832991308	-0.0607355167	-0.1817871627	-0.34722
C	 0.5792154408	-0.6652934892	-0.9688672208	 0.438492
O	 1.5981354831	-0.1893252849	-1.7918648915	-0.283209
C	 1.9023860561	-1.5396511923	-2.2634837034	-0.1504
C	 0.7818379832	-2.081663549	-1.3819103136	 0.15688
C	 0.7194533512	-3.3085641521	-0.5123179799	-0.344399
C	-0.2558897775	-3.1438840315	-1.6478035441	-0.055649
C	-1.7204563579	-2.8687423159	-1.3883801611	-0.414816
H	 0.7444144742	 1.8257489337	-0.6333520321	 0.126523
H	-1.0089711075	 1.8549430656	-0.32724549	 0.125212
H	 0.1050308601	 1.6263239122	 1.0166980043	 0.124764
H	 1.7582060731	-1.6174877577	-3.3450967731	 0.118118
H	 2.9223452655	-1.8275644832	-1.9920296871	 0.118711
H	 1.5183595568	-4.0365860272	-0.6100066609	 0.116187
H	 0.3544816631	-3.1610746359	 0.499196535	 0.134335
H	-0.0484803591	-3.7560191679	-2.5233271407	 0.089908
H	-1.8418673396	-2.1763051693	-0.5514839838	 0.153373
H	-2.1972953608	-2.4166165746	-2.2645088075	 0.118112
H	-2.2535394537	-3.7972329346	-1.1571826712	 0.115074
74.2401	109.8528	119.6848	152.3974	211.6939	217.4559	239.4519	308.2226	400.6635	413.3732	496.2268	635.7182	713.6601	754.8268	786.097	867.612	894.2318	929.8871	968.804	993.7164	1046.4394	1059.3111	1085.1154	1097.4824	1115.8373	1130.1206	1133.5993	1145.3678	1169.4335	1192.9845	1246.7909	1301.7761	1364.6966	1416.2352	1436.7771	1440.8047	1485.7578	1494.251	1496.3761	1498.586	1508.3447	1515.2302	1841.6094	3016.0563	3034.0835	3046.5051	3078.7866	3086.2248	3094.4187	3101.6431	3116.8213	3126.5584	3134.3986	3216.3812
CN=C1OCC11CC1C	CN=C1OC[C@]21C[C@H]2C	
InChI=1S/C7H11NO/c1-5-3-7(5)4-9-6(7)8-2/h5H,3-4H2,1-2H3	InChI=1S/C7H11NO/c1-5-3-7(5)4-9-6(7)8-2/h5H,3-4H2,1-2H3/t5-,7-/m1/s1
