20
gdb 105884	2.10497	1.47414	1.32242	0.8043	75.2	-0.2313	0.0533	0.2846	1115.6766	0.169861	-440.225536	-440.216068	-440.215124	-440.259824	35.319	
C	-0.2005024003	 1.4572693312	 0.042289009	-0.328282
N	 0.0844458586	 0.0272264831	 0.1511436295	-0.133248
C	 1.3613762169	-0.5540780468	-0.1865977952	-0.123294
C	 2.5510511358	 0.3276220993	 0.2465745755	-0.277267
C	 2.0432346681	 0.2252890962	 1.7120210284	 0.079249
O	 1.8254281378	 1.4490007712	 2.3809053329	-0.43216
C	 0.8268318956	-0.5942452057	 1.2332718717	 0.285706
C	 0.1549555845	-1.6372993878	 2.0708499589	-0.191245
O	-0.56145618	-1.0221989745	 3.1461437039	-0.422498
H	 0.5836210428	 2.1210471524	 0.4161143356	 0.139308
H	-0.3997204004	 1.6854780952	-1.0098065972	 0.1186
H	-1.1150104694	 1.6694295579	 0.6062627271	 0.110508
H	 1.3951904145	-1.3443864571	-0.9296783573	 0.094908
H	 3.5222867065	-0.1490116489	 0.1025025663	 0.108047
H	 2.5838733452	 1.333549888	-0.1778551305	 0.112359
H	 2.7094296156	-0.4251923361	 2.2986305653	 0.074925
H	 1.2657273858	 1.2555865062	 3.1417354425	 0.285723
H	-0.5024359682	-2.2606723131	 1.4504924804	 0.10207
H	 0.8957534303	-2.2870371219	 2.5492233265	 0.108108
H	-1.2930067995	-0.5367520889	 2.7495214465	 0.288484
62.3584	101.8504	132.644	201.8143	231.738	289.5468	316.9344	330.8899	370.042	409.87	427.0569	517.8968	604.7018	700.7174	721.5426	808.2354	844.1601	922.031	932.1764	970.3642	1011.0058	1030.1022	1045.8085	1093.3407	1096.6972	1146.8297	1170.6055	1180.2198	1201.5829	1218.4699	1249.6036	1254.2422	1279.0107	1325.17	1369.1376	1408.4294	1408.7377	1439.046	1462.5729	1484.0739	1490.7895	1491.8101	1517.0322	2983.8579	3017.2424	3030.9336	3075.1775	3077.2825	3094.8222	3111.5091	3127.2034	3163.4146	3799.9299	3808.2437
CN1C2CC(O)C12CO	CN1[C@H]2C[C@@H](O)[C@@]12CO	
InChI=1S/C6H11NO2/c1-7-4-2-5(9)6(4,7)3-8/h4-5,8-9H,2-3H2,1H3	InChI=1S/C6H11NO2/c1-7-4-2-5(9)6(4,7)3-8/h4-5,8-9H,2-3H2,1H3/t4-,5+,6-,7?/m0/s1
