16
gdb 51762	2.29009	1.30518	0.92959	4.3193	71.16	-0.2636	0.0014	0.2651	1230.6825	0.125295	-434.073266	-434.064609	-434.063665	-434.108103	30.368	
O	-0.1181827637	 0.0175162499	 0.4030284419	-0.313964
C	-0.0484460812	 1.1966151963	 0.137980155	 0.157953
N	 1.094785239	 1.8509662332	-0.2298710785	-0.276903
C	 2.3738937603	 1.2039515357	-0.2589100772	 0.030882
C	 3.2639177877	 1.5110130836	-1.4938559634	-0.192956
N	 4.0310927952	 2.4818244788	-0.6797780001	-0.305759
C	 3.5157596089	 1.9013230115	 0.5763971784	-0.168251
C	 3.1137780378	 2.8770300455	 1.5878896019	 0.308344
N	 2.7655027617	 3.6479596447	 2.3752420587	-0.320913
H	-0.92053648	 1.8769779751	 0.1527352891	 0.090169
H	 1.0510722176	 2.8492268014	-0.370778813	 0.26537
H	 2.2038148008	 0.1562286099	-0.0216267803	 0.140179
H	 3.8301154274	 0.6296375662	-1.8223234725	 0.111841
H	 2.7569478831	 1.9515377185	-2.3576585736	 0.119073
H	 5.0391070507	 2.4741343421	-0.784432422	 0.234453
H	 4.1658374648	 1.1508301475	 1.0463686156	 0.120483
32.7279	74.8068	118.8402	203.3326	221.6811	252.0886	359.4215	411.8815	547.2073	558.6698	570.8754	683.2545	740.5104	800.3463	883.1358	954.6996	987.9818	1006.8902	1032.1682	1044.1142	1092.7216	1123.095	1144.0168	1183.1707	1243.4171	1262.8483	1314.7585	1351.1818	1363.8897	1391.8728	1430.6995	1520.0565	1533.2931	1809.1921	2357.3019	2961.0421	3011.2527	3017.1323	3080.6062	3156.2605	3544.7527	3621.0522
O=CNC1CNC1C#N	O=CN[C@H]1CN[C@H]1C#N	
InChI=1S/C5H7N3O/c6-1-4-5(2-7-4)8-3-9/h3-5,7H,2H2,(H,8,9)	InChI=1S/C5H7N3O/c6-1-4-5(2-7-4)8-3-9/h3-5,7H,2H2,(H,8,9)/t4-,5-/m0/s1
