16
gdb 130395	2.12339	1.63902	1.00423	3.6061	67.27	-0.243	-0.0422	0.2009	1145.8769	0.124479	-471.16488	-471.156134	-471.155189	-471.199138	31.072	
N	 0.295163319	 1.5332644234	-0.1142040262	-0.520266
C	-0.0515221062	 0.1276750147	 0.1399320042	-0.285661
C	 0.8290885238	-0.4622525291	 1.1978588965	 0.215902
C	 2.1621384691	-0.7591737888	 1.1909157707	 0.287245
C	 3.2427675954	-0.5962562947	 0.1649576172	-0.184984
O	 3.3304718134	 0.7321792855	-0.3364625184	-0.393426
O	 2.4927088464	-1.2557691189	 2.3855643002	-0.210274
N	 1.2936221313	-1.2758814964	 3.1638704383	-0.018535
N	 0.3699226985	-0.8082175034	 2.4500145768	-0.16519
H	 1.2210020113	 1.5666999592	-0.5336464162	 0.237691
H	-0.3516512817	 1.9165019236	-0.7972761489	 0.228
H	-1.0798352591	 0.0809798903	 0.5097331437	 0.13583
H	-0.0051297359	-0.5131970805	-0.7581021028	 0.095324
H	 4.1933321877	-0.9371498648	 0.5936690663	 0.134344
H	 3.0277471358	-1.2220182491	-0.7071243738	 0.144528
H	 3.5366185312	 1.3166245491	 0.4020812223	 0.299472
50.8829	84.0644	165.4514	174.8597	212.6033	292.9355	353.5449	380.2067	423.5026	491.4953	640.3275	662.424	692.821	728.6746	791.7261	887.9771	964.4579	992.7041	1020.7803	1057.049	1066.3735	1133.1291	1186.2142	1239.7557	1257.6193	1324.7457	1353.7371	1402.9459	1422.5451	1432.4698	1462.0262	1491.9725	1502.8596	1633.653	1663.6174	2940.6481	3033.026	3085.6972	3088.1744	3481.7001	3564.8093	3803.9611
NCC1=C(CO)ON=N1	NCc1c(CO)onn1	
InChI=1S/C4H7N3O2/c5-1-3-4(2-8)9-7-6-3/h8H,1-2,5H2	InChI=1S/C4H7N3O2/c5-1-3-4(2-8)9-7-6-3/h8H,1-2,5H2
