14
gdb 25450	6.84448	0.86817	0.77044	2.6554	76.24	-0.2532	-0.0683	0.185	1355.6917	0.101453	-436.754583	-436.746992	-436.746048	-436.787108	27.375	
O	-0.1097938681	-0.0259421927	-0.0011654832	-0.276271
C	-0.0398352728	 1.17192916	 0.0081202414	 0.188224
N	 1.1637056078	 1.8810083505	 0.0005192546	-0.052839
C	 2.4412404688	 1.3157146338	-0.0184807781	-0.045022
C	 3.3467286037	 2.3281622556	-0.0202966155	-0.2706
C	 2.6140943973	 3.5707963436	-0.001712437	 0.158049
C	 3.1728598514	 4.9202610254	 0.0032235137	 0.084707
O	 4.3574278592	 5.1700748581	-0.0078186811	-0.276156
C	 1.2774522265	 3.2554631179	 0.0106738798	-0.150906
H	-0.9119830295	 1.8493618623	 0.0234166971	 0.107886
H	 2.541094395	 0.243752505	-0.0284846518	 0.165846
H	 4.421288162	 2.2396154642	-0.0331222572	 0.14231
H	 2.4133270901	 5.7340960652	 0.0186941923	 0.066041
H	 0.4007030187	 3.8843169811	 0.0257473651	 0.15873
81.4282	150.0135	168.6692	261.6892	281.6164	299.2431	405.0827	607.9903	617.2538	644.3127	733.7536	751.6985	797.3844	815.2961	894.1999	980.1474	995.5078	1030.1819	1036.8749	1090.9416	1174.8239	1259.0887	1327.4456	1383.2343	1398.0079	1444.2542	1452.1434	1535.6152	1602.7844	1791.6133	1834.8788	2876.045	2985.6901	3258.4151	3268.5495	3296.7244
O=CN1C=CC(C=O)=C1	O=Cn1ccc(C=O)c1	
InChI=1S/C6H5NO2/c8-4-6-1-2-7(3-6)5-9/h1-5H	InChI=1S/C6H5NO2/c8-4-6-1-2-7(3-6)5-9/h1-5H
