23
gdb 59783	3.06251	1.08617	0.97101	1.6783	81.73	-0.258	0.0843	0.3423	1348.6863	0.206489	-425.4405	-425.431167	-425.430223	-425.474492	35.651	
C	-0.0496584935	 1.5340051703	 0.0632858132	-0.394681
C	 0.0637396676	 0.0062311556	-0.0464736339	 0.012738
C	 0.7276528576	-0.3998267034	-1.3707431147	-0.388065
C	 0.7854383805	-0.5644612209	 1.1834280875	 0.142946
C	 0.7930570846	-2.0946527448	 1.2976674702	-0.22602
C	 1.6593115329	-2.4994103064	 2.4940150248	-0.092798
O	 2.9482099935	-1.9070944565	 2.3966369674	-0.23294
C	 2.8508027598	-0.5119767575	 2.2991808549	 0.019115
O	 2.1347411352	-0.0893639438	 1.1703703465	-0.255733
H	 0.9433901534	 1.9919867137	 0.0830161649	 0.131522
H	-0.5997377552	 1.946783468	-0.7880260746	 0.107508
H	-0.5745327155	 1.8300373514	 0.9781583707	 0.104711
H	-0.9509745785	-0.4156926399	-0.0220654719	 0.069317
H	 1.7680222455	-0.064724167	-1.3973468103	 0.134196
H	 0.7180293038	-1.4828874699	-1.523710021	 0.110315
H	 0.2000002744	 0.0550030932	-2.2149867527	 0.107438
H	 0.288989991	-0.1614670854	 2.0861845469	 0.055987
H	-0.2280741122	-2.4736450686	 1.4208984149	 0.095099
H	 1.2148688669	-2.5342955396	 0.3891323059	 0.114756
H	 1.17514281	-2.1862458338	 3.4354381508	 0.086638
H	 1.8151074011	-3.5803897155	 2.5372928938	 0.111171
H	 2.3742550594	-0.1067461717	 3.2139725013	 0.071193
H	 3.8671066275	-0.1251265976	 2.1994702553	 0.115584
71.1405	117.6229	187.3476	207.9269	235.6094	258.5487	292.9179	325.7315	395.8493	428.2847	489.5345	500.2162	582.523	675.9137	815.8331	852.981	897.4975	921.963	931.6425	968.8775	983.0209	1018.1073	1022.6086	1060.8264	1089.0813	1125.4974	1131.7397	1179.7882	1203.5563	1208.5555	1239.0029	1269.4825	1307.5807	1331.2263	1352.237	1358.714	1381.8384	1395.3848	1400.1284	1405.4028	1423.2896	1449.2097	1468.5978	1489.3961	1493.8786	1497.8997	1505.9201	1509.169	1515.4484	2905.7671	2923.759	2959.2321	3007.2176	3033.6011	3042.1263	3044.9075	3090.9041	3097.8399	3101.0203	3107.5144	3109.8761	3116.4653	3123.3695
CC(C)C1CCOCO1	CC(C)[C@H]1CCOCO1	
InChI=1S/C7H14O2/c1-6(2)7-3-4-8-5-9-7/h6-7H,3-5H2,1-2H3	InChI=1S/C7H14O2/c1-6(2)7-3-4-8-5-9-7/h6-7H,3-5H2,1-2H3/t7-/m1/s1
