15
gdb 42931	2.65036	1.45378	1.16825	3.7767	69.58	-0.2593	-0.0113	0.2481	1055.3753	0.11296	-416.804301	-416.79646	-416.795516	-416.837449	28.506	
O	-0.0023589188	-0.0039911391	-0.2058602003	-0.347023
C	-0.0491920784	 1.191597816	-0.1661242158	 0.424438
C	-1.0875526766	 2.2750674577	 0.0854483183	-0.217787
C	-0.6104016338	 3.1039290328	 1.2804259181	-0.289697
C	 0.0522837324	 3.269659935	-0.0510442819	-0.009795
N	 0.9652362621	 2.1562855678	-0.3367434745	-0.104858
C	 2.360289524	 1.9955789311	 0.0130058929	-0.303997
C	 2.6800049183	 2.3330955727	 1.4119663607	 0.264116
N	 2.910627509	 2.6161486429	 2.5081968996	-0.308028
H	-2.0928878033	 2.3237706804	-0.3051347356	 0.127954
H	-1.2940300185	 3.893354439	 1.5790458175	 0.134292
H	-0.078114485	 2.6319811971	 2.0991099014	 0.15548
H	 0.0841440191	 4.1773425038	-0.6383651294	 0.124428
H	 2.6108176007	 0.9445388939	-0.1661982957	 0.187654
H	 2.9948405689	 2.601487299	-0.6430421953	 0.162822
51.9638	102.0613	194.4698	227.6513	246.5225	371.5525	444.3705	471.8563	594.6883	692.256	743.9543	765.2947	831.8704	842.0731	906.7182	916.9511	943.4294	964.8639	1018.3817	1047.8097	1086.051	1092.7904	1138.9598	1184.7251	1242.9566	1282.7285	1311.2427	1349.7527	1376.3679	1456.3212	1485.6118	1894.0956	2357.0572	3048.4561	3094.6129	3131.8852	3210.5764	3221.814	3238.9089
O=C1C2CC2N1CC#N	O=C1[C@H]2C[C@H]2N1CC#N	
InChI=1S/C6H6N2O/c7-1-2-8-5-3-4(5)6(8)9/h4-5H,2-3H2	InChI=1S/C6H6N2O/c7-1-2-8-5-3-4(5)6(8)9/h4-5H,2-3H2/t4-,5+/m0/s1
