18
gdb 62267	3.70683	0.63088	0.58977	2.8422	70.97	-0.2402	-0.0449	0.1953	1829.3555	0.143512	-476.211116	-476.200603	-476.199659	-476.248822	35.261	
O	-1.155558565	 0.6031975314	-0.0358109676	-0.426065
C	 0.0558979482	-0.1190623131	-0.1953892609	 0.017983
C	 1.0469805701	 0.5963978366	-1.1363167821	-0.176204
N	 0.548141609	 0.8432958044	-2.4797503788	-0.295339
C	 0.4230069258	-0.3311747019	-3.3293099348	-0.234506
C	 0.2599172778	 0.0808961728	-4.7850243654	 0.151727
O	-0.3627897925	-0.5438808409	-5.6020376712	-0.233792
C	 0.6875824986	-0.4509258042	 1.1524468496	 0.124431
O	 1.8192542118	-0.8359860543	 1.2919520782	-0.237627
H	-0.9481661427	 1.4601805664	 0.3551626586	 0.286331
H	-0.2408769565	-1.0775719939	-0.6431822894	 0.129911
H	 1.3143762706	 1.5617074045	-0.6838915169	 0.100452
H	 1.9686410327	 0.0086910865	-1.1860440513	 0.13476
H	-0.3487376264	 1.3152168481	-2.411743219	 0.227197
H	 1.3672779761	-0.8940302344	-3.2742868037	 0.136577
H	-0.3850818923	-1.0350642368	-3.0755349049	 0.117274
H	 0.7890319329	 1.0276168078	-5.0358882402	 0.087417
H	-0.0015458981	-0.302517039	 2.01642885	 0.089472
42.3212	54.9847	73.4166	88.0009	93.7352	195.5823	235.0454	265.3482	328.5956	388.5545	445.4936	496.0952	514.3247	625.5087	722.7482	782.5197	829.1795	894.8393	1008.8652	1035.2126	1055.2086	1073.8756	1118.9547	1132.2731	1170.0421	1208.5258	1269.0506	1274.9776	1317.9496	1347.265	1374.4362	1394.918	1401.7938	1407.1615	1466.9129	1476.9249	1512.4442	1828.3939	1840.8506	2868.5561	2888.8566	2979.3118	3009.1969	3025.8687	3032.0451	3094.7536	3514.0649	3789.6515
OC(CNCC=O)C=O	O[C@@H](CNCC=O)C=O	
InChI=1S/C5H9NO3/c7-2-1-6-3-5(9)4-8/h2,4-6,9H,1,3H2	InChI=1S/C5H9NO3/c7-2-1-6-3-5(9)4-8/h2,4-6,9H,1,3H2/t5-/m0/s1
