13
gdb 7950	3.79782	1.84253	1.28594	1.2309	55.61	-0.2834	-0.0238	0.2596	870.4027	0.095792	-435.787686	-435.780758	-435.779814	-435.819162	25.454	
O	 0.1862518683	 1.318624907	 0.3425212521	-0.431945
C	 0.0051296792	-0.0410008271	 0.0589971987	 0.063561
C	-1.4559186349	-0.4307601571	-0.1740490238	-0.377571
C	-1.3793636093	-1.4823073719	-1.267551053	 0.416672
O	-2.1873490197	-2.271391556	-1.6344800648	-0.292758
O	-0.1234401545	-1.3986859409	-1.8781202072	-0.211106
C	 0.6540877628	-0.4538845056	-1.2506724314	 0.387968
N	 1.7298606419	 0.0309071543	-1.6798151067	-0.538259
H	 1.0385001246	 1.5648396639	-0.0436428103	 0.303925
H	 0.4331360936	-0.6734365135	 0.8551582307	 0.111882
H	-1.9869644971	-0.8170296389	 0.6953744654	 0.154383
H	-2.007139115	 0.4336887484	-0.5608096063	 0.167473
H	 1.9995592101	-0.3469185227	-2.5878227533	 0.245774
83.5782	138.8375	254.6312	346.152	391.1558	410.4864	530.1589	554.2039	608.4755	637.8198	718.6887	810.8484	869.2706	903.5223	972.3057	1041.6041	1063.1915	1111.9573	1134.0608	1186.4737	1254.3846	1279.4943	1319.8528	1383.0854	1426.8267	1459.5095	1795.1817	1932.6654	2963.2827	3067.0266	3146.773	3500.5409	3751.9652
OC1CC(=O)OC1=N	O[C@H]1CC(=O)O[C]1[NH]	
InChI=1S/C4H5NO3/c5-4-2(6)1-3(7)8-4/h2,5-6H,1H2	InChI=1S/C4H5NO3/c5-4-2(6)1-3(7)8-4/h2,5-6H,1H2/t2-/m0/s1
