14
gdb 25234	3.30813	1.65856	1.11252	4.7319	70.4	-0.2094	-0.0143	0.1951	999.9381	0.103773	-436.738332	-436.731669	-436.730725	-436.769366	26.078	
O	-0.1327293999	-0.0502806295	 0.0069525719	-0.351385
C	 0.0078409623	 1.1527536028	 0.0108415166	 0.251038
C	-1.1948132502	 2.1560864324	 0.0314260002	-0.216338
O	-0.6497010895	 3.5107617262	 0.0295022849	-0.275919
C	 0.6718687362	 3.3108845082	 0.0097469214	 0.457757
C	 1.1632170088	 2.0225366151	-0.0026287263	 0.08878
C	 2.5947954568	 2.1396881462	-0.0231890629	-0.329607
C	 2.8797114179	 3.4762961367	-0.0217859212	-0.062482
N	 1.6755035942	 4.2071480724	-0.0008307731	-0.3917
H	-1.8251862746	 2.0391087842	-0.853247253	 0.15024
H	-1.8005046949	 2.0317520875	 0.9321837673	 0.150172
H	 3.3180177989	 1.3402869656	-0.0371248758	 0.121165
H	 3.8211277239	 4.0005184481	-0.0334165224	 0.13214
H	 1.5878969	 5.2087417541	 0.0047215423	 0.27614
148.0888	188.7628	299.2091	308.5293	462.5855	540.6299	548.164	610.1031	618.0457	658.5363	673.4369	733.0846	754.8631	842.5398	920.8685	975.8896	979.1048	1010.9758	1055.6833	1080.5931	1162.1916	1191.2186	1282.0741	1298.6964	1339.5614	1436.9415	1468.7276	1535.921	1568.2486	1618.5587	1810.4126	3075.4252	3133.1225	3260.654	3280.1795	3679.3063
O=C1COC2=C1C=CN2	O=C1COc2c1cc[nH]2	
InChI=1S/C6H5NO2/c8-5-3-9-6-4(5)1-2-7-6/h1-2,7H,3H2	InChI=1S/C6H5NO2/c8-5-3-9-6-4(5)1-2-7-6/h1-2,7H,3H2
