16
gdb 15647	3.29397	1.72412	1.19418	1.8732	66.12	-0.2426	-0.0193	0.2233	977.6107	0.130022	-383.762969	-383.755179	-383.754235	-383.795604	28.306	
O	-0.0480282218	 1.4767405404	 0.068354158	-0.425398
C	 0.0507551903	 0.0607326669	 0.0628389353	-0.079267
C	-1.3697002579	-0.4954470378	-0.0480847241	-0.145093
C	-2.0777461845	-0.226151341	-1.3500954207	-0.066483
C	-2.5414519068	-1.3374376879	-1.9249952584	-0.082213
C	-2.233422664	-2.5752793971	-1.1255324612	-0.368377
C	-1.3956271791	-2.0336057305	 0.0427796566	 0.382186
O	-0.8280762133	-2.6920652161	 0.8752825609	-0.312966
H	 0.8411329616	 1.8398815081	 0.1180986839	 0.289475
H	 0.6548435992	-0.2954213928	-0.7864283575	 0.089422
H	 0.5061575717	-0.3247219873	 0.985823466	 0.111015
H	-1.9322722815	-0.0874126612	 0.8051269079	 0.118095
H	-2.1810799292	 0.7774061912	-1.7437130271	 0.113748
H	-3.0863191047	-1.3714480567	-2.8614204265	 0.101524
H	-3.1287495258	-3.0803101413	-0.7375915886	 0.137733
H	-1.6689717243	-3.3397188271	-1.6738172244	 0.1366
67.3114	103.588	171.2854	238.0716	272.5372	335.7421	450.3598	528.7915	557.5437	632.2069	726.1009	760.1096	801.1945	894.4258	933.6936	972.3804	989.7597	1057.3913	1075.6871	1095.2386	1128.3781	1133.1455	1157.5811	1219.2775	1233.7064	1280.4549	1285.9686	1326.1851	1380.9175	1442.7473	1448.6376	1523.7238	1677.6712	1845.5212	2976.183	3001.4391	3022.7098	3028.2547	3055.2141	3193.0061	3220.5586	3828.1844
OCC1C=CCC1=O	OC[C@H]1C=CCC1=O	
InChI=1S/C6H8O2/c7-4-5-2-1-3-6(5)8/h1-2,5,7H,3-4H2	InChI=1S/C6H8O2/c7-4-5-2-1-3-6(5)8/h1-2,5,7H,3-4H2/t5-/m1/s1
