23
gdb 122420	3.55	0.75681	0.71574	2.4084	83.29	-0.2477	0.0795	0.3271	1721.6935	0.204483	-425.409882	-425.399793	-425.398849	-425.445771	37.249	
C	-0.5286510056	 0.9159069995	-0.0570461323	-0.382504
C	 0.0740371293	-0.4877487783	 0.0409106999	-0.185122
C	 0.7404627269	-0.73930965	 1.3864072208	-0.043708
O	 1.2999565661	-2.0420691985	 1.3828806404	-0.26936
C	 1.975954174	-2.3840292762	 2.5837467096	 0.119093
C	 1.0044984766	-2.8833189237	 3.6941176012	-0.271392
C	 1.183208452	-4.3238135553	 3.1246114494	 0.154625
O	 0.1780231654	-4.7064632678	 2.2126405168	-0.441608
C	 2.4964577712	-3.831907827	 2.4460507384	-0.265052
H	 0.2377882283	 1.6887391998	 0.0677908459	 0.117614
H	-1.0015824303	 1.0725199471	-1.0305763014	 0.119669
H	-1.2913888139	 1.0782635904	 0.7124230625	 0.117918
H	-0.7035717176	-1.2451314359	-0.1133024213	 0.104752
H	 0.8185589025	-0.6390435742	-0.7489295532	 0.109201
H	 1.535961464	 0.0034146501	 1.5657682531	 0.088732
H	 0.0087690726	-0.6310880314	 2.2032517982	 0.091028
H	 2.6936037228	-1.5958522283	 2.848720005	 0.062417
H	 1.4352072568	-2.7713767047	 4.6935763262	 0.099822
H	-0.0135144895	-2.4857664166	 3.6916298973	 0.103125
H	 1.2676951375	-5.1381464725	 3.8477041439	 0.078995
H	 0.1285193168	-4.005803405	 1.5490672746	 0.280917
H	 2.6849411496	-4.1823565678	 1.4287949302	 0.109115
H	 3.3789434845	-4.0056039537	 3.0675070746	 0.101724
55.5919	64.2926	94.5598	140.7479	180.5715	232.0577	293.4099	325.29	386.6827	403.9726	461.7955	472.6696	505.4563	755.6845	765.2262	837.7413	861.7034	868.8875	902.2644	908.0822	920.1725	957.7423	998.5037	1041.446	1054.9198	1077.798	1100.878	1144.1397	1152.5381	1169.6305	1192.9689	1210.1442	1248.082	1267.7017	1272.0281	1292.3195	1317.3046	1332.0543	1337.5968	1369.6347	1413.7586	1438.8165	1446.4339	1454.0081	1474.9852	1491.7577	1500.8986	1507.3612	1526.6658	2960.9103	2991.437	3008.021	3032.9551	3037.5982	3055.5999	3064.8574	3071.5509	3087.9267	3101.0416	3110.2207	3116.3734	3126.9567	3763.1452
CCCOC1CC(O)C1	CCCO[C@H]1C[C@@H](O)C1	
InChI=1S/C7H14O2/c1-2-3-9-7-4-6(8)5-7/h6-8H,2-5H2,1H3	InChI=1S/C7H14O2/c1-2-3-9-7-4-6(8)5-7/h6-8H,2-5H2,1H3/t6-,7+
