12
gdb 129125	2.49637	1.94237	1.30266	5.5014	65.54	-0.2871	-0.1102	0.1769	917.7979	0.076975	-468.765988	-468.758787	-468.757843	-468.798118	26.016	
N	-0.034529082	 1.1759303075	-0.3967379944	-0.447492
C	-0.0248257923	-0.0365167242	-0.0341100262	 0.204969
N	 1.1166096722	-0.793238347	 0.2715303951	-0.207715
C	 1.3244860925	-1.8808890104	-0.3618699655	-0.02014
C	 0.4652634204	-2.4247754397	-1.42256851	 0.033484
N	-0.81138634	-2.4115747265	-1.5293304742	-0.039747
O	-1.5747801475	-1.9202054554	-0.4642153166	-0.24581
C	-1.3465791039	-0.7354629324	 0.2241734384	 0.439296
O	-2.175990646	-0.3597690967	 0.9866527089	-0.264067
H	 0.9239445121	 1.5279164959	-0.4762563412	 0.240581
H	 2.2388869782	-2.4346811607	-0.1434784265	 0.149965
H	 0.9525549364	-2.9369892304	-2.2509441979	 0.156676
76.156	116.9964	245.3748	300.1986	329.801	402.1455	447.0521	558.8936	600.5179	698.7325	732.0291	803.1261	872.0913	898.5149	922.4475	959.0111	969.5277	994.6517	1021.1278	1112.2508	1312.9621	1343.8794	1404.4559	1636.551	1700.748	1722.7573	1885.4262	3123.2874	3154.297	3443.2843
N=C1N=CC=NOC1=O	[NH][C]1N=CC=NOC1=O	
InChI=1S/C4H3N3O2/c5-3-4(8)9-7-2-1-6-3/h1-2,5H	InChI=1S/C4H3N3O2/c5-3-4(8)9-7-2-1-6-3/h1-2,5H
