15
gdb 43777	4.79057	1.07985	1.00748	3.3477	66.08	-0.2761	-0.0045	0.2716	1152.308	0.111866	-457.731215	-457.723777	-457.722832	-457.763695	27.757	
O	 0.2910299253	 0.0976272097	-0.2289665796	-0.316559
C	 0.1862064999	 1.2660420765	-0.0574582916	 0.458968
O	-0.9990842293	 1.9949157016	 0.0769827885	-0.303757
C	-0.2400886882	 3.2399634013	 0.0651631624	 0.479247
C	 0.6256834746	 3.2969663259	 1.2632531173	-0.339434
C	 1.0689469824	 2.4796334574	 0.0341313374	-0.329089
C	-0.7574646418	 4.3484962919	-0.7682513372	-0.055468
C	-1.3786413166	 5.5363938937	-0.1634953597	-0.169121
O	-0.0353284643	 5.5724708067	-0.652550305	-0.226359
H	 1.1894249151	 4.2154578649	 1.3912826521	 0.151964
H	 0.3226729558	 2.7903016856	 2.1736059411	 0.138862
H	 1.9962316937	 2.6582618559	-0.4894984235	 0.139381
H	-1.0402056928	 4.0670495489	-1.7823244837	 0.114727
H	-2.0997394534	 6.1116897589	-0.740536338	 0.130279
H	-1.4818421004	 5.5906478212	 0.9182966495	 0.126359
70.4304	118.8933	185.531	250.032	375.8898	410.485	459.3548	522.9461	668.5941	687.2928	761.8286	834.6985	865.3498	881.5022	913.7189	943.2778	964.9999	998.368	1018.7436	1040.4016	1089.068	1099.7162	1107.3369	1154.881	1169.3629	1188.9691	1234.1379	1277.8046	1384.6507	1448.4041	1503.4188	1522.9865	1950.814	3095.8195	3119.2748	3130.4595	3189.8456	3227.441	3236.6696
O=C1OC2(CC12)C1CO1	O=C1O[C@]2(C[C@@H]12)[C@H]1CO1	
InChI=1S/C6H6O3/c7-5-3-1-6(3,9-5)4-2-8-4/h3-4H,1-2H2	InChI=1S/C6H6O3/c7-5-3-1-6(3,9-5)4-2-8-4/h3-4H,1-2H2/t3-,4+,6-/m0/s1
