21
gdb 88776	3.65828	1.02643	0.9107	1.7412	83.63	-0.2382	0.0267	0.2649	1354.9539	0.182774	-387.086844	-387.078038	-387.077094	-387.121098	33.131	
C	 0.1218158585	 1.2872147932	-0.5685330049	-0.420581
C	-0.0972782213	-0.0327977838	 0.1257277835	 0.068257
O	 1.0351685087	-0.9015234172	 0.267178583	-0.273854
C	 0.4216449087	-0.3921892394	 1.4569574634	 0.070253
C	 1.2524932952	 0.5039800597	 2.3481469728	-0.0276
C	 0.3586613187	 1.127632732	 3.4621516451	-0.272311
C	 0.6749802121	 0.2935669289	 4.6805745162	-0.055881
C	 1.7303814499	-0.4955523698	 4.4898436281	-0.05483
C	 2.3214881924	-0.3370633102	 3.1106437153	-0.26607
H	 1.0307786298	 1.7847559987	-0.2254469312	 0.129871
H	 0.2111326452	 1.1320955252	-1.6489662109	 0.129327
H	-0.7300813476	 1.9545177336	-0.3970226245	 0.120552
H	-1.0013224141	-0.5558943683	-0.1959882583	 0.084248
H	-0.1392158591	-1.1495431053	 2.0129106395	 0.08781
H	 1.729760011	 1.2728010944	 1.7389247721	 0.071168
H	 0.6034251149	 2.1846448756	 3.6327514986	 0.105135
H	-0.7056617266	 1.1028291523	 3.194751461	 0.10096
H	 0.1078522294	 0.3713096486	 5.6017628477	 0.090012
H	 2.1557473718	-1.1613535944	 5.2329072691	 0.090858
H	 2.5167934685	-1.2916064678	 2.6086999423	 0.118961
H	 3.2868951038	 0.1848991242	 3.1567116022	 0.103714
49.3032	77.0298	139.0765	190.3809	220.2159	322.4403	376.1694	400.6892	434.4447	544.4718	684.7562	741.7305	776.7102	791.1706	824.6772	898.91	901.5618	942.7657	957.6512	978.737	980.0525	986.3144	1009.3726	1057.8503	1100.823	1104.0768	1131.9533	1166.4587	1176.377	1183.5899	1223.0347	1239.4954	1298.6398	1307.3992	1315.3436	1330.5224	1373.9207	1403.0461	1420.2243	1469.9979	1487.4183	1491.6428	1494.9617	1513.1897	1689.2501	3012.4686	3014.6334	3038.341	3039.4176	3058.0483	3060.5199	3077.8517	3097.5487	3098.2574	3137.2049	3180.3878	3206.0199
CC1OC1C1CC=CC1	C[C@H]1O[C@H]1[C@H]1CC=CC1	
InChI=1S/C8H12O/c1-6-8(9-6)7-4-2-3-5-7/h2-3,6-8H,4-5H2,1H3	InChI=1S/C8H12O/c1-6-8(9-6)7-4-2-3-5-7/h2-3,6-8H,4-5H2,1H3/t6-,8-/m1/s1
