21
gdb 73266	2.35093	1.74901	1.39237	1.8365	77.66	-0.2534	0.0797	0.3331	1043.2711	0.183987	-424.225129	-424.217111	-424.216167	-424.257164	32.239	
C	 0.0069958379	 1.525005401	-0.0765208597	-0.458246
C	-0.018551367	 0.0117498039	 0.0515652545	 0.395928
C	-1.3179238506	-0.6879397434	 0.5194012787	-0.252348
C	-0.4536153004	-1.692765575	 1.3267612244	-0.24321
C	 0.7262722672	-0.6848960739	 1.2419359193	-0.032806
C	 2.1309046065	-1.1831766187	 0.9393802072	-0.123797
O	 2.2005395676	-1.7612146504	-0.3581480762	-0.229866
C	 1.7259862093	-0.8582923982	-1.3199060935	 0.007908
O	 0.3528042445	-0.6042624358	-1.1929298148	-0.290945
H	 1.0130339652	 1.8934638411	-0.3048735966	 0.115357
H	-0.6596564371	 1.8441158829	-0.8840194587	 0.12619
H	-0.3211570764	 2.0001936671	 0.8532386567	 0.111881
H	-1.910688517	-0.0377533184	 1.1691290532	 0.095129
H	-1.9493436511	-1.0780366497	-0.2809966942	 0.107786
H	-0.7993202767	-1.970267243	 2.3245474526	 0.093608
H	-0.2414698674	-2.5977847422	 0.7539815271	 0.12206
H	 0.7430301117	-0.0260462693	 2.116091733	 0.070844
H	 2.8537179855	-0.3519045614	 1.0094659503	 0.08749
H	 2.4414312539	-1.9600038641	 1.6453177266	 0.110881
H	 2.3078857784	 0.0814844739	-1.2638428283	 0.071474
H	 1.8664174959	-1.3237640464	-2.2976586017	 0.114682
145.3819	179.4143	211.4895	238.9778	308.0884	367.6908	375.2135	417.3975	484.4247	559.2797	610.6911	703.4881	744.1669	768.9783	858.3919	878.469	906.6169	934.6383	953.4021	975.6452	1029.1793	1031.1444	1075.9684	1120.8363	1141.7285	1163.3097	1175.7946	1198.7094	1218.171	1242.5463	1254.83	1266.5946	1288.0308	1309.4323	1339.3348	1353.0735	1394.9464	1405.1	1443.4067	1471.2545	1484.5341	1485.8779	1492.5498	1494.5946	1510.1707	2919.2127	2957.5629	3031.5712	3057.4633	3062.3181	3073.1425	3075.3849	3099.1052	3109.1442	3109.2623	3119.2192	3134.54
CC12CCC1COCO2	C[C@]12CC[C@H]1COCO2	
InChI=1S/C7H12O2/c1-7-3-2-6(7)4-8-5-9-7/h6H,2-5H2,1H3	InChI=1S/C7H12O2/c1-7-3-2-6(7)4-8-5-9-7/h6H,2-5H2,1H3/t6-,7-/m0/s1
