23
gdb 53383	2.7711	0.93367	0.83874	0.1873	95.62	-0.2352	0.0546	0.2898	1549.5375	0.203461	-351.136783	-351.126027	-351.125083	-351.173414	39.196	
C	 0.3139103096	 1.4011886987	-0.6410985717	-0.498919
C	 0.1905384991	-0.0043755124	-0.2808041716	 0.076964
C	 0.0974576218	-1.1689437702	 0.0174739439	 0.061248
C	-0.0335482693	-2.56384738	 0.3849747401	-0.193992
C	-0.1742762189	-2.9543260346	 1.8893660214	-0.233615
C	-1.1930103966	-4.0464472656	 1.4791092957	-0.260198
C	-1.3863587326	-3.3371226497	 0.1011551986	 0.336624
C	-2.6053969855	-2.4143881495	 0.0990137821	-0.43293
C	-1.3744791607	-4.2294622221	-1.1346693726	-0.453033
H	 1.3547896058	 1.738711111	-0.5800135785	 0.145744
H	-0.0304841769	 1.5827012629	-1.6655712175	 0.145065
H	-0.27922704	 2.0395022314	 0.0234990367	 0.144583
H	 0.788563444	-3.1386283749	-0.0582207665	 0.089268
H	 0.7382591038	-3.2728903796	 2.3973993514	 0.099502
H	-0.6324324012	-2.1500075647	 2.4687259156	 0.110183
H	-0.7226275217	-5.0283318344	 1.3688058521	 0.094567
H	-2.0848682928	-4.1580938113	 2.1012270422	 0.094243
H	-2.6337787554	-1.7730385138	 0.9852052457	 0.11455
H	-2.6012002376	-1.7604492563	-0.7786596624	 0.11925
H	-3.5279932193	-3.0057623401	 0.0818312253	 0.105796
H	-2.2785124332	-4.8480872431	-1.182703435	 0.111263
H	-1.3333436367	-3.6304818175	-2.0519227726	 0.117372
H	-0.5097601956	-4.9018745342	-1.1327757622	 0.106465
26.8774	74.1651	87.6509	166.8516	208.0741	233.503	250.5333	269.7709	318.4659	342.9485	375.5739	391.4286	478.2437	525.287	588.8683	702.9326	763.9213	865.1367	877.0204	921.5661	951.3939	962.5449	970.304	998.417	1013.6745	1052.4964	1054.1083	1106.7258	1177.7953	1184.9424	1194.003	1224.4639	1243.9488	1265.4803	1281.2136	1305.7279	1360.7201	1401.2717	1414.7455	1418.2313	1478.2774	1478.9688	1479.5662	1480.7335	1489.7685	1497.1611	1502.3	1504.4226	2361.0592	3018.107	3023.2231	3026.4597	3029.4247	3050.8228	3070.9824	3082.3409	3082.7062	3084.383	3090.2224	3095.6581	3099.4276	3105.4497	3126.5805
CC#CC1CCC1(C)C	CC#C[C@H]1CCC1(C)C	
InChI=1S/C9H14/c1-4-5-8-6-7-9(8,2)3/h8H,6-7H2,1-3H3	InChI=1S/C9H14/c1-4-5-8-6-7-9(8,2)3/h8H,6-7H2,1-3H3/t8-/m0/s1
