18
gdb 92859	2.8705	1.70394	1.25727	2.5349	71.63	-0.2548	0.017	0.2718	1017.6037	0.149856	-439.095719	-439.088203	-439.087258	-439.127666	28.888	
C	-0.058198215	 1.5829915101	-0.0464519187	-0.389992
C	-0.0146964778	 0.0539936535	 0.0065058944	-0.067532
C	 0.9533383995	-0.5480357397	-1.0839624794	-0.171928
N	 2.3082506339	-0.6071444878	-0.4774928188	-0.314695
C	 2.0942874925	-0.5616429322	 0.7666619467	 0.42173
O	 2.9464422603	-0.3903743511	 1.7934452612	-0.257857
C	 2.1078374073	-0.0414432787	 2.9226119398	 0.014515
O	 0.8399042796	 0.3246026034	 2.4277832652	-0.262224
C	 0.6812351755	-0.4875038392	 1.2632539772	 0.010981
H	 0.9481931167	 2.0098229047	 0.000090895	 0.132241
H	-0.5228439942	 1.9133365918	-0.9802257101	 0.116028
H	-0.6338991364	 1.9914353584	 0.7882218262	 0.127719
H	-1.0257785714	-0.3489391877	-0.0986595652	 0.077303
H	 0.6321685106	-1.5492533558	-1.3991534029	 0.107132
H	 0.9868005258	 0.0767839944	-1.9818925832	 0.113447
H	 2.0496076528	-0.919119114	 3.5836764178	 0.111836
H	 2.554760669	 0.8095080186	 3.4406764694	 0.138349
H	 0.2907922512	-1.4784473189	 1.5469283652	 0.092945
115.9889	167.9192	224.0509	242.5128	268.0807	346.7712	469.4406	490.0497	648.3386	679.1011	735.9921	760.0233	806.8543	881.967	920.1009	937.6633	946.4193	1013.9802	1034.6757	1066.4268	1083.4453	1103.0192	1146.2101	1147.5194	1211.3138	1223.7359	1243.7249	1276.6441	1322.4326	1334.9787	1359.1788	1374.4191	1414.5259	1442.0957	1492.0357	1497.0559	1503.0686	1534.8514	1780.9186	2971.5503	2995.0747	3023.1961	3043.5487	3069.9053	3078.5281	3114.3672	3114.4463	3121.2254
CC1CN=C2OCOC12	C[C@H]1C[N][C]2OCO[C@@H]12	
InChI=1S/C6H9NO2/c1-4-2-7-6-5(4)8-3-9-6/h4-5H,2-3H2,1H3	InChI=1S/C6H9NO2/c1-4-2-7-6-5(4)8-3-9-6/h4-5H,2-3H2,1H3/t4-,5-/m0/s1
