17
gdb 66117	2.70111	1.4684	1.32893	3.1495	71.68	-0.251	0.0215	0.2725	1024.4793	0.137346	-417.993711	-417.985712	-417.984767	-418.02608	30.826	
N	-0.0534782406	 1.4367333824	 0.0923001456	-0.525622
C	-0.0233795997	-0.0256688484	-0.0081751388	 0.069408
C	 0.6170614619	-0.631725167	 1.2876858785	-0.116514
O	-0.0628195532	-1.8392192193	 1.5724851696	-0.245557
C	-1.3500852272	-1.7581818351	 1.0194043384	 0.121325
C	-2.1909797075	-0.5419384042	 1.2944240071	-0.347256
C	-1.4135729508	-0.6604065734	-0.0046900293	-0.082211
C	 0.7057687521	-0.484353346	-1.2112169887	 0.245648
N	 1.2856681274	-0.7933465759	-2.1631539296	-0.342105
H	 0.8939450799	 1.8064645502	 0.0677713259	 0.243134
H	-0.5291987129	 1.8263614373	-0.7168590771	 0.244895
H	 1.68103866	-0.8549960842	 1.1813646268	 0.132271
H	 0.4837335244	 0.1104707325	 2.0849631762	 0.117038
H	-1.7954856525	-2.7359288852	 0.8858182857	 0.114393
H	-3.2667198865	-0.6597838927	 1.2255485862	 0.123244
H	-1.8645538214	 0.1848045055	 2.0287288607	 0.13797
H	-1.9292026734	-0.7702191465	-0.9504604272	 0.109938
101.715	148.6519	206.6337	247.2138	265.2193	368.5972	400.1851	472.2608	493.9002	554.686	644.9693	707.3871	742.2607	801.8536	829.9726	895.8141	908.5399	941.5692	965.8281	992.6052	1046.0766	1068.4907	1083.5118	1103.9805	1152.3173	1157.2371	1189.4064	1202.0396	1252.7375	1306.0061	1320.8931	1375.037	1397.9267	1477.9851	1519.2222	1662.0757	2340.3847	3023.0652	3106.5057	3143.9608	3188.6381	3200.0133	3232.6604	3484.5543	3563.1648
NC1(COC2CC12)C#N	N[C@]1(CO[C@H]2C[C@@H]12)C#N	
InChI=1S/C6H8N2O/c7-2-6(8)3-9-5-1-4(5)6/h4-5H,1,3,8H2	InChI=1S/C6H8N2O/c7-2-6(8)3-9-5-1-4(5)6/h4-5H,1,3,8H2/t4-,5+,6+/m1/s1
