20
gdb 94397	2.44178	1.34602	1.2438	3.4556	79.83	-0.2402	0.0329	0.2731	1148.0729	0.171279	-403.165624	-403.156704	-403.15576	-403.199493	33.287	
C	-0.6071146284	 1.2531205445	-0.0019206573	-0.419634
C	 0.1581709545	-0.0552051498	-0.1177578401	-0.010401
C	 1.5442037602	-0.0666150462	-0.8209356608	-0.236759
C	 2.0455994937	-1.0625334854	 0.2575555071	-0.291671
C	 0.826819359	-0.6913934478	 1.1394203523	 0.178774
C	 1.0120638773	 0.0851780117	 2.4788964155	-0.234578
N	 0.2889051671	-1.0130250553	 3.1308621247	-0.339354
C	 0.0948127268	-1.7501223687	 1.9878225663	 0.384531
O	-0.4415085596	-2.8043619867	 1.765743148	-0.374611
H	 0.0186720328	 2.050745013	 0.4134926322	 0.111929
H	-0.9510937363	 1.5851877486	-0.98761043	 0.119838
H	-1.4905808828	 1.1483022894	 0.6378267521	 0.121315
H	-0.4857378945	-0.822712373	-0.5624107392	 0.096716
H	 1.578473244	-0.3891316021	-1.8642528868	 0.101117
H	 2.0416691683	 0.9055899931	-0.7416126537	 0.097926
H	 1.9800451373	-2.1033424821	-0.0715535455	 0.124727
H	 3.0356269448	-0.8913318212	 0.6873331671	 0.100903
H	 2.0517025842	 0.193854072	 2.8066215895	 0.108793
H	 0.5038604174	 1.0520067234	 2.5448902646	 0.112044
H	 0.0382940343	-1.1817991074	 4.0937720941	 0.248396
74.0636	93.3065	133.0342	202.7931	238.8434	263.5902	305.8493	394.0641	440.7212	502.6849	619.0865	656.3192	703.8277	775.7685	803.5306	863.3062	893.7529	908.3231	941.9335	958.6475	992.313	1059.3786	1077.2409	1140.5316	1151.707	1163.2253	1174.1644	1185.3582	1203.6328	1256.2331	1267.529	1283.6018	1287.9566	1303.7378	1371.7085	1391.2877	1409.8596	1479.2333	1494.1145	1497.2333	1501.2071	1526.215	1886.5691	3024.8888	3034.7529	3040.6175	3050.1593	3059.0153	3081.92	3093.0961	3094.1373	3100.9159	3116.7932	3609.1966
CC1CCC11CNC1=O	C[C@H]1CC[C@]21CNC2=O	
InChI=1S/C7H11NO/c1-5-2-3-7(5)4-8-6(7)9/h5H,2-4H2,1H3,(H,8,9)	InChI=1S/C7H11NO/c1-5-2-3-7(5)4-8-6(7)9/h5H,2-4H2,1H3,(H,8,9)/t5-,7+/m0/s1
