25
gdb 88947	2.92543	0.89016	0.8395	1.3003	89.34	-0.2486	0.0646	0.3132	1571.1981	0.225994	-389.488794	-389.477652	-389.476708	-389.525242	42.025	
C	 0.2241930305	 1.5867464711	-0.3181264039	-0.402766
C	-0.001664952	 0.1155998771	-0.0419076566	-0.015653
C	 1.1499368934	-0.857715756	 0.0054951707	-0.274269
C	 0.3739321626	-0.5575191906	 1.2650690656	 0.017552
C	 0.9997182671	 0.1856975392	 2.426871232	-0.240502
C	 1.8743538095	-0.6717327133	 3.3760799105	 0.355876
C	 2.3987607267	 0.2080766179	 4.5213595465	-0.416415
C	 1.1121398758	-1.8745976399	 3.9382814107	-0.391579
O	 2.9818196185	-1.2385380926	 2.6651145552	-0.454376
H	 1.1782232152	 1.9401961177	 0.083726975	 0.111763
H	 0.239149184	 1.7775051127	-1.3971257557	 0.115376
H	-0.5687293519	 2.2065933069	 0.1162765399	 0.113522
H	-0.9148144508	-0.268050016	-0.4910676889	 0.078703
H	 1.0468374565	-1.8329898292	-0.4575110802	 0.10581
H	 2.1512276727	-0.4447155745	-0.066343579	 0.096062
H	-0.3205018256	-1.3346017356	 1.5727269439	 0.08003
H	 1.6277620742	 1.0045828665	 2.0526610622	 0.076746
H	 0.2115213647	 0.6636660531	 3.0248345893	 0.092132
H	 1.5817527443	 0.5933797286	 5.1401233292	 0.112509
H	 3.0747667796	-0.3689722225	 5.1587415112	 0.119201
H	 2.9518687076	 1.0704489323	 4.1291426745	 0.099058
H	 0.8372517778	-2.564054812	 3.1370592428	 0.126381
H	 1.7425351638	-2.4183116177	 4.6474638751	 0.116404
H	 0.2028479152	-1.5549414696	 4.4563238625	 0.107224
H	 3.5252862109	-0.5122062636	 2.3415720274	 0.271211
26.5791	94.3119	124.9647	187.1367	203.4695	229.1281	256.9234	280.3532	302.9073	341.1802	346.8957	389.6472	424.649	436.6061	482.4492	546.1361	759.0658	769.586	830.2798	858.7239	871.5469	903.4159	931.6507	933.4797	961.3024	985.0978	1013.9012	1048.4433	1069.5572	1100.6062	1111.6968	1149.6897	1162.7507	1198.1149	1200.0514	1229.6556	1249.8074	1272.5947	1340.8135	1371.9675	1394.1685	1402.6674	1416.262	1419.047	1434.0151	1467.7978	1481.2273	1487.2836	1493.811	1494.2486	1498.8485	1506.8543	1512.5083	3006.7167	3023.8877	3027.1635	3043.9451	3046.0631	3083.3641	3090.0453	3099.646	3111.7408	3118.3542	3126.3079	3128.2623	3130.1024	3143.7197	3209.7895	3804.8722
CC1CC1CC(C)(C)O	C[C@H]1C[C@H]1CC(C)(C)O	
InChI=1S/C8H16O/c1-6-4-7(6)5-8(2,3)9/h6-7,9H,4-5H2,1-3H3	InChI=1S/C8H16O/c1-6-4-7(6)5-8(2,3)9/h6-7,9H,4-5H2,1-3H3/t6-,7-/m0/s1
