21
gdb 120820	4.22066	0.61152	0.57838	3.2038	81.28	-0.2505	-0.0256	0.225	1965.4354	0.179491	-424.221171	-424.210743	-424.209799	-424.258481	36.106	
C	-0.4102058005	 1.4725617584	-0.0972998392	-0.38414
C	-0.206326966	-0.038219288	-0.2287139688	-0.158708
C	 1.0910536548	-0.4042569732	-0.9661021694	-0.213801
C	 1.2754790094	-1.8975910857	-1.0744337568	 0.065109
O	 0.4584286014	-2.6016140744	-2.0214229826	-0.263688
C	 1.8787840601	-2.6134016183	-2.2123785754	 0.036269
C	 2.4088902085	-1.9575723548	-3.4707610741	-0.312399
C	 2.0721686096	-2.7806119521	-4.7014647473	 0.160323
O	 2.872635443	-3.1240011179	-5.5321149787	-0.236569
H	 0.4118460744	 1.93784214	 0.458146161	 0.114505
H	-0.4575642493	 1.9532552522	-1.080771505	 0.116602
H	-1.340841258	 1.703117927	 0.4299225341	 0.116625
H	-0.1966403054	-0.4979686762	 0.768049533	 0.0978
H	-1.0512704865	-0.4858017715	-0.7649180229	 0.116806
H	 1.0822984793	 0.0525776391	-1.9610099047	 0.101289
H	 1.9535020928	 0.0151733239	-0.4298864642	 0.102522
H	 1.3387245416	-2.4055730514	-0.1084631561	 0.091499
H	 2.3380857984	-3.5800583099	-1.9939604911	 0.100857
H	 1.9461263166	-0.9724851736	-3.6007287387	 0.12703
H	 3.4947026967	-1.8311893461	-3.4203738963	 0.125522
H	 0.9964428192	-3.0504276375	-4.7859617666	 0.096547
42.6063	58.2591	74.0941	89.2133	126.9322	188.7792	241.1954	260.4625	320.8923	424.2516	485.9348	498.9738	542.0189	739.9438	781.7393	797.709	859.1704	884.8976	904.6904	949.4822	1009.6197	1045.1906	1060.0092	1071.2742	1123.2634	1127.6911	1164.9235	1184.8398	1234.2029	1264.3988	1285.4423	1297.1777	1314.4715	1330.5452	1384.9969	1410.5185	1414.3484	1422.2948	1445.5628	1470.5981	1489.4115	1492.7864	1500.019	1509.0446	1834.4742	2896.6385	3019.0703	3025.0254	3030.4144	3045.7646	3059.4366	3068.1657	3082.7414	3088.5659	3099.1828	3105.0681	3108.8014
CCCC1OC1CC=O	CCC[C@H]1O[C@H]1CC=O	
InChI=1S/C7H12O2/c1-2-3-6-7(9-6)4-5-8/h5-7H,2-4H2,1H3	InChI=1S/C7H12O2/c1-2-3-6-7(9-6)4-5-8/h5-7H,2-4H2,1H3/t6-,7+/m1/s1
