15
gdb 30088	2.53134	1.84415	1.07416	5.2973	72.87	-0.2184	-0.0407	0.1778	1054.3169	0.113159	-453.981913	-453.97384	-453.972895	-454.015145	29.282	
C	-0.0162358476	 1.4549375662	 0.0070256478	-0.359899
N	-0.0297373114	-0.003275866	-0.004397337	-0.138386
C	-0.1285400093	-0.6765190144	-1.2224459739	-0.06726
C	-0.1443530178	-2.0054781889	-1.28086582	-0.022447
O	-0.0656005561	-2.7872219406	-0.1617743968	-0.232597
C	 0.0344691787	-2.2063120181	 1.0835952707	 0.282602
N	 0.1083600075	-2.9054363255	 2.1309165044	-0.462637
C	 0.0560873694	-0.6876609214	 1.1928446154	 0.369451
O	 0.1428151447	-0.137501267	 2.2674611524	-0.34301
H	 0.8383552298	 1.8335323734	-0.5630983331	 0.138803
H	-0.9394187259	 1.8487808892	-0.4303333359	 0.138768
H	 0.0640211931	 1.776721685	 1.0435531714	 0.18291
H	-0.1912614104	-0.0658117916	-2.1113656948	 0.1369
H	-0.2187134037	-2.5828686639	-2.1893571727	 0.144502
H	 0.081688439	-3.8993715365	 1.8946023621	 0.2323
73.992	88.0824	126.2274	220.5853	328.4831	380.4595	463.9545	480.322	515.7562	539.9491	565.1608	696.7385	733.0684	791.9397	848.1923	869.6093	907.9904	977.7159	1009.7675	1106.7264	1135.9596	1154.5858	1237.4894	1262.2457	1318.6822	1405.0155	1414.9743	1453.8046	1502.5504	1508.5407	1728.2384	1744.8346	1792.3425	3037.3108	3095.6985	3178.2502	3236.8863	3263.8754	3475.2453
CN1C=COC(=N)C1=O	CN1C=CO[C]([NH])C1=O	
InChI=1S/C5H6N2O2/c1-7-2-3-9-4(6)5(7)8/h2-3,6H,1H3	InChI=1S/C5H6N2O2/c1-7-2-3-9-4(6)5(7)8/h2-3,6H,1H3
