20
gdb 18754	2.80896	2.13896	1.51502	1.7142	74.17	-0.2338	0.0742	0.308	924.2499	0.177177	-348.974976	-348.967026	-348.966082	-349.007249	30.568	
C	-1.0106314605	 1.0893894188	-0.0396595827	-0.418256
C	-0.1451763399	-0.1637263424	 0.0057519865	 0.04437
C	 1.1812888036	-0.2385872966	-0.8196640643	-0.265558
C	 1.8846477865	-0.8732563859	 0.4059312017	 0.131107
O	 2.6572303362	 0.07663848	 1.161929716	-0.312674
C	 1.5586141544	 0.2988578339	 2.0885816766	 0.157252
C	 1.2919248551	 1.7696192667	 2.3438393447	-0.409132
C	 0.6208292431	-0.6377088882	 1.2803940242	-0.135807
H	-0.4353604851	 2.0036074425	 0.1213156457	 0.120183
H	-1.4956815125	 1.1777774733	-1.0184347308	 0.114305
H	-1.8023445269	 1.053509932	 0.7172517652	 0.113366
H	-0.7737224685	-1.0125640329	-0.2886397486	 0.07864
H	 1.1330379789	-0.8502274751	-1.7244421083	 0.095638
H	 1.6223982888	 0.7302106163	-1.0682553729	 0.10678
H	 2.3957868107	-1.8317302601	 0.282196783	 0.071253
H	 1.796607771	-0.1843984687	 3.0488526873	 0.074073
H	 0.3933216656	 1.9005461153	 2.9561188013	 0.115486
H	 2.1374008559	 2.2055592902	 2.8862821007	 0.124027
H	 1.1710124458	 2.3272727153	 1.4137466313	 0.126511
H	 0.1300205078	-1.4105328944	 1.8729471935	 0.068437
59.7969	161.4371	205.9459	261.5825	282.72	327.901	394.3055	414.7052	582.4015	593.9187	685.189	766.6431	836.0052	858.4786	880.9177	919.5921	929.0919	950.2239	1015.0279	1056.1479	1078.6774	1091.2169	1107.246	1127.6891	1165.3108	1181.2678	1205.4308	1215.7936	1254.8731	1275.8899	1305.7047	1333.8951	1345.5282	1374.1574	1396.4347	1409.2821	1413.5867	1471.2623	1476.863	1489.4615	1496.4143	1513.1052	2972.4771	3023.7643	3032.2351	3040.5528	3055.5988	3069.5125	3087.9648	3099.2992	3103.0257	3114.8355	3120.9087	3140.562
CC1CC2OC(C)C12	C[C@H]1C[C@H]2O[C@@H](C)[C@@H]12	
InChI=1S/C7H12O/c1-4-3-6-7(4)5(2)8-6/h4-7H,3H2,1-2H3	InChI=1S/C7H12O/c1-4-3-6-7(4)5(2)8-6/h4-7H,3H2,1-2H3/t4-,5-,6+,7+/m0/s1
