22
gdb 118031	2.40343	0.96096	0.88591	2.3677	79.62	-0.2343	-0.0301	0.2041	1453.9138	0.191262	-441.472221	-441.461349	-441.460405	-441.508869	38.648	
C	 0.3778443819	 1.0564377965	-0.6970182032	-0.402274
C	 0.3135770061	-0.3463681479	-0.0797384238	-0.058596
C	 1.1198425335	-1.3638505128	-0.8844300856	 0.153972
O	 1.5874742086	-1.1667454135	-1.9747259141	-0.240007
N	 0.686769754	-0.4772030671	 1.3331606443	-0.08916
C	 2.0079671243	 0.0618209411	 1.6439313738	-0.340609
C	-0.3515179988	-0.05755401	 2.2813046934	-0.169634
C	-1.4172725105	-1.146517745	 2.4307469394	-0.052846
O	-0.8271039747	-2.382348536	 2.767792237	-0.419631
H	 1.4029255216	 1.4335766686	-0.7310289516	 0.13136
H	 0.0124078429	 1.0221655329	-1.7257333841	 0.138549
H	-0.2371243959	 1.7638117143	-0.134158351	 0.117469
H	-0.7213101362	-0.7135174478	-0.1579515915	 0.109099
H	 1.2340993716	-2.3411764814	-0.3621918148	 0.081478
H	 2.0548058478	 1.1625634388	 1.6290173172	 0.111147
H	 2.312084242	-0.2759563159	 2.63873089	 0.130219
H	 2.742136627	-0.3142515332	 0.9239479466	 0.131695
H	 0.1326741951	 0.0764197025	 3.253718734	 0.111664
H	-0.8160490352	 0.9063256458	 2.0138920833	 0.090053
H	-2.1093854909	-0.8717890544	 3.2344063875	 0.106733
H	-2.0186038649	-1.226973144	 1.5081776958	 0.083991
H	-0.0139838193	-2.4147277914	 2.2434578775	 0.27533
53.5036	66.7032	80.8141	142.13	185.7286	220.4384	237.7812	249.1725	269.9598	306.3862	380.237	442.2558	491.5717	522.2588	566.6042	626.7695	753.7713	841.8167	886.3996	913.3953	939.7409	1009.8456	1066.6964	1083.5404	1104.6011	1120.1909	1128.9756	1157.0411	1198.2067	1214.6343	1253.0163	1302.2169	1329.3174	1364.6908	1375.7749	1394.1268	1396.0532	1412.4161	1445.0587	1459.0144	1484.4757	1488.8655	1493.7935	1496.6407	1516.5988	1518.7646	1835.3229	2877.1599	2948.2753	2967.2859	2976.6192	3002.2477	3054.3671	3063.0096	3067.3035	3078.4312	3108.2338	3126.6494	3133.2109	3724.0777
CC(C=O)N(C)CCO	C[C@@H](C=O)N(C)CCO	
InChI=1S/C6H13NO2/c1-6(5-9)7(2)3-4-8/h5-6,8H,3-4H2,1-2H3	InChI=1S/C6H13NO2/c1-6(5-9)7(2)3-4-8/h5-6,8H,3-4H2,1-2H3/t6-/m0/s1
