17
gdb 96661	3.17444	0.92876	0.72491	1.6507	78.31	-0.2544	-0.0867	0.1676	1515.0798	0.133148	-455.187689	-455.177567	-455.176623	-455.224037	34.175	
C	-0.4725358659	 1.6953689908	-1.0074830271	-0.328343
N	-0.1711566024	 0.2851931013	-0.9689601149	-0.273207
C	-0.5986915001	-0.4934119514	-0.0608887837	 0.375674
C	-1.4671220247	-0.2043558834	 1.1353153553	-0.465731
N	-0.1814494211	-1.8331551453	-0.2196817995	-0.351176
C	-0.4273876458	-2.9380751144	 0.5328728053	 0.305339
O	-1.0859439588	-3.0345066227	 1.5516507973	-0.354423
C	 0.2509745591	-4.1873986452	-0.0471370353	 0.111594
O	 0.9192577967	-4.1851017235	-1.0474105854	-0.241552
H	 0.4679025563	 2.2590172756	-0.9986183575	 0.13458
H	-0.9644366144	 1.926667857	-1.9597002667	 0.134571
H	-1.1053729711	 2.0776007237	-0.1964451663	 0.108971
H	-1.740724024	 0.8485036439	 1.175677375	 0.129043
H	-2.3741987718	-0.8124864356	 1.1047385265	 0.160323
H	-0.9503421213	-0.4789521487	 2.0578799482	 0.160318
H	 0.4009089704	-1.9860455795	-1.0368009292	 0.271988
H	 0.0541592889	-5.0913333426	 0.5617114582	 0.122031
50.9228	76.6312	95.0949	111.5938	138.1704	169.5548	253.8339	276.8071	338.1133	380.2493	517.2174	541.7867	543.5379	607.7751	694.8628	790.4018	826.6866	949.0824	1012.1444	1025.8608	1056.2501	1122.2455	1131.5801	1147.1741	1223.371	1306.1724	1360.7525	1409.0549	1439.8696	1465.1761	1470.2914	1483.9752	1501.9168	1536.1671	1747.6238	1786.798	1826.4346	2961.8132	3007.3598	3067.4851	3072.7833	3073.2962	3129.475	3167.3862	3550.282
CN=C(C)NC(=O)C=O	CN=C(C)NC(=O)C=O	
InChI=1S/C5H8N2O2/c1-4(6-2)7-5(9)3-8/h3H,1-2H3,(H,6,7,9)	InChI=1S/C5H8N2O2/c1-4(6-2)7-5(9)3-8/h3H,1-2H3,(H,6,7,9)
