19
gdb 15116	7.94061	0.70049	0.673	4.1809	76.64	-0.2862	0.0377	0.3239	1637.4464	0.165468	-327.936514	-327.927732	-327.926788	-327.970875	31.267	
N	-0.0138037316	-1.1298307947	-0.3130250251	-0.305312
C	-0.0188390261	 0.0096930723	-0.120665075	 0.25614
C	-0.0006820733	 1.4509747188	 0.1192097171	-0.341933
C	 1.4124599712	 2.0566526775	 0.0057242605	-0.171018
C	 1.4125231929	 3.5684493249	 0.2627461519	-0.211592
C	 2.7936943624	 4.1798689399	 0.1626915863	 0.028589
C	 3.3498818913	 4.592980308	-1.1779904587	-0.254743
C	 2.9627739755	 5.6413571542	-0.1632434639	-0.276465
H	-0.6776084078	 1.9299810015	-0.5982771574	 0.150422
H	-0.416684794	 1.6418507499	 1.1156311595	 0.150858
H	 2.0739304355	 1.5552271685	 0.7211822391	 0.119711
H	 1.8163934793	 1.8476142617	-0.9905101081	 0.124448
H	 0.7459464047	 4.0616785485	-0.4579818061	 0.09542
H	 0.9894833212	 3.7695416272	 1.2570393471	 0.10016
H	 3.5143101093	 3.7665015701	 0.8646302602	 0.084926
H	 4.4032641611	 4.4301823645	-1.3764113305	 0.115002
H	 2.7123573099	 4.4740200003	-2.0485114634	 0.110076
H	 2.0672399368	 6.2238736324	-0.3542707521	 0.110963
H	 3.7520380117	 6.1935129943	 0.3345245986	 0.114349
54.3759	85.9482	95.5128	134.0563	210.6196	291.946	385.6613	399.3356	407.4153	560.3767	739.7674	774.6941	801.1379	833.2403	854.8113	918.8461	940.5267	973.493	1022.5829	1047.3946	1060.6849	1073.0605	1081.5866	1139.0918	1147.2099	1198.1113	1222.9283	1232.238	1263.7476	1300.2886	1327.1907	1342.4038	1386.2444	1420.4039	1468.1891	1468.4587	1483.1761	1503.2247	1508.3294	2362.0334	3003.8462	3034.9782	3036.6681	3048.0497	3068.3591	3094.9789	3128.6271	3131.4416	3135.1063	3207.2573	3222.3324
N#CCCCC1CC1	N#CCCCC1CC1	
InChI=1S/C7H11N/c8-6-2-1-3-7-4-5-7/h7H,1-5H2	InChI=1S/C7H11N/c8-6-2-1-3-7-4-5-7/h7H,1-5H2
