14
gdb 99419	1.75099	1.4926	1.31333	4.0804	72.54	-0.2798	-0.0339	0.246	1099.2114	0.098275	-395.678495	-395.668926	-395.667982	-395.712832	33.485	
C	-0.0162554091	 1.4814918055	 0.1001915681	-0.351921
N	-0.0448997577	 0.0244431491	-0.0501724391	-0.289505
C	 0.678752659	-0.5049356394	-1.2056456529	-0.224053
C	 0.6713945261	-1.9736886278	-1.1604325269	 0.313778
C	 0.675346823	-3.170634872	-1.0991950226	-0.3655
C	-0.0001101204	-0.0457015529	-2.4474353984	 0.349454
N	-0.5302060974	 0.3167430448	-3.4060068511	-0.322135
C	 2.1030973966	-0.0393233193	-1.2639960062	 0.300173
N	 3.1885151564	 0.3536400983	-1.2204595498	-0.325723
H	 0.9961446626	 1.9028459937	 0.1809944545	 0.138139
H	-0.520136097	 1.9433251103	-0.7534520502	 0.160526
H	-0.5782657891	 1.7358062727	 1.0010277513	 0.142184
H	 0.3084910007	-0.4404991146	 0.7792364446	 0.249776
H	 0.6760193463	-4.2328752484	-1.0536856415	 0.224808
106.5187	119.3039	124.7647	148.1956	172.6061	196.224	269.7444	345.2776	351.4114	492.5797	512.7487	547.8015	569.5829	584.135	657.6236	676.5312	691.5217	743.6736	981.8272	1034.2353	1071.3425	1138.1237	1167.8377	1231.6538	1459.0519	1477.7237	1493.7554	1518.9392	2257.2949	2349.411	2373.4796	3004.1915	3095.5227	3135.511	3495.5608	3541.8961
CNC(C#C)(C#N)C#N	CNC(C#C)(C#N)C#N	
InChI=1S/C6H5N3/c1-3-6(4-7,5-8)9-2/h1,9H,2H3	InChI=1S/C6H5N3/c1-3-6(4-7,5-8)9-2/h1,9H,2H3
