16
gdb 61158	3.07004	1.01472	0.8552	2.308	73.81	-0.2549	-0.0788	0.1762	1334.2133	0.12094	-437.871165	-437.861213	-437.860269	-437.907568	33.852	
C	-0.5316797188	 1.2939417392	-0.1283207055	-0.368264
N	-0.0685098738	-0.0888950217	-0.117323085	-0.104225
C	-0.0987255062	-0.7645149102	 1.1847253891	-0.323275
C	-1.4544816336	-0.9381541102	 1.7017554268	 0.3163
C	-2.5690009558	-1.0699593761	 2.1303913381	-0.454706
C	 0.3793611804	-0.8052246565	-1.1821523431	 0.321789
O	 0.7605340032	-1.9666580386	-1.1156126996	-0.366565
C	 0.4546079872	-0.199303007	-2.5984193931	 0.10395
O	 0.1657939918	 0.9051084477	-2.9743684147	-0.24258
H	-0.5009697957	 1.694510696	-1.1360821649	 0.189687
H	-1.5558311238	 1.3400265794	 0.256434009	 0.145073
H	 0.1062451964	 1.9038640511	 0.523765239	 0.127437
H	 0.3881624483	-1.7330116521	 1.051401029	 0.182553
H	 0.4960389352	-0.1787600462	 1.8987569052	 0.138791
H	-3.5520675689	-1.2016930789	 2.5104845068	 0.207444
H	 0.8453485141	-0.982452886	-3.2783949969	 0.12659
37.4409	44.7556	97.752	126.4612	156.4227	262.9515	275.6826	311.9523	334.2495	387.3378	499.1964	535.9992	598.3208	620.2389	672.8698	698.3935	759.5701	932.1465	963.7547	1027.2654	1032.3863	1162.7654	1164.048	1222.0555	1290.2708	1373.3547	1379.4878	1442.0361	1466.6937	1473.71	1502.7868	1529.794	1733.5759	1829.0011	2240.3438	2952.5832	3016.4597	3024.9575	3082.1433	3112.472	3209.0366	3503.7772
CN(CC#C)C(=O)C=O	CN(CC#C)C(=O)C=O	
InChI=1S/C6H7NO2/c1-3-4-7(2)6(9)5-8/h1,5H,4H2,2H3	InChI=1S/C6H7NO2/c1-3-4-7(2)6(9)5-8/h1,5H,4H2,2H3
