19
gdb 63274	2.13584	1.67188	1.27774	4.	78.06	-0.2354	0.0147	0.25	1090.5145	0.157369	-419.183326	-419.174128	-419.173184	-419.216714	34.927	
C	 0.2502051116	 1.4493777138	-0.1999352097	-0.43606
C	-0.0512611337	-0.0319760437	 0.0193731024	 0.232036
C	-1.5430184623	-0.3403356737	-0.0139987025	-0.416532
N	 0.7582824319	-0.9404160744	-0.8473823543	-0.398251
C	 1.5502657851	-1.4390726087	 0.1909992165	 0.326381
N	 2.5623403556	-2.187210595	 0.3088698981	-0.553283
C	 0.7205756236	-0.6800973807	 1.2006921338	 0.333244
C	 1.0767467807	-0.1754129243	 2.5246200511	-0.265856
O	 0.1191010131	-1.2299532186	 2.350031964	-0.262573
H	 1.3234748765	 1.6495798254	-0.1270615752	 0.122714
H	-0.0943774255	 1.7725664509	-1.1889416763	 0.118741
H	-0.2656520935	 2.0653210317	 0.5436191612	 0.126849
H	-1.9792966325	-0.0399647361	-0.9726920108	 0.112414
H	-1.7193948369	-1.4084850571	 0.1289662607	 0.134343
H	-2.0628700142	 0.2021795056	 0.7818274726	 0.123685
H	 1.0905681658	-0.7123937029	-1.7745711351	 0.233764
H	 2.9036725572	-2.513153799	-0.5970883158	 0.21069
H	 2.0248930841	-0.4775355603	 2.9648193463	 0.140289
H	 0.6680061835	 0.7735227271	 2.869161213	 0.117404
87.4584	175.2997	185.3805	213.6757	233.738	250.0819	299.4406	332.3047	346.4318	435.7274	488.4644	560.0822	617.7792	639.3231	697.2008	815.5879	841.6813	867.5203	918.0838	943.8485	968.7473	985.0766	1020.7253	1051.4778	1118.0776	1124.0953	1165.4111	1178.125	1207.5021	1250.6162	1316.6222	1351.5069	1401.9606	1417.173	1447.0676	1476.382	1482.38	1500.7051	1501.6223	1534.3415	1796.8329	3029.3037	3039.0916	3087.2042	3095.9065	3106.1487	3111.0508	3131.584	3182.2913	3460.3557	3588.6792
CC1(C)NC(=N)C11CO1	CC1(C)N[C]([NH])[C@]21CO2	
InChI=1S/C6H10N2O/c1-5(2)6(3-9-6)4(7)8-5/h3H2,1-2H3,(H2,7,8)	InChI=1S/C6H10N2O/c1-5(2)6(3-9-6)4(7)8-5/h3H2,1-2H3,(H2,7,8)/t6-/m0/s1
