18
gdb 85015	2.39165	1.60814	1.01737	1.5096	73.72	-0.2556	-0.0154	0.2402	1164.0456	0.147687	-439.183324	-439.174184	-439.17324	-439.218276	32.346	
C	-0.1580457926	 1.5593851886	 0.0153200292	-0.399088
C	 0.0611544856	 0.0444034366	-0.0194961295	-0.114095
C	 0.8848001538	-0.4915630161	-1.2045070996	-0.36371
C	 1.9555314908	-1.3873308522	-0.592198471	 0.410176
O	 2.7670265354	-2.0691207784	-1.1680702266	-0.35496
N	 1.8553805834	-1.2727198189	 0.7934766592	-0.133596
C	 2.7514128852	-1.9452789543	 1.7168073224	-0.349698
C	 0.8239135856	-0.4422803877	 1.2153656758	 0.410817
O	 0.5937285662	-0.1781577781	 2.3708296946	-0.365207
H	 0.7949196966	 2.0951382854	-0.0503204762	 0.123121
H	-0.7859983182	 1.8799400375	-0.8206599149	 0.122025
H	-0.6443906584	 1.8469764371	 0.9504051384	 0.147123
H	-0.9161694236	-0.4517457011	 0.0168186996	 0.117799
H	 0.3048117644	-1.0631684163	-1.932420508	 0.143316
H	 1.3878159948	 0.3094871679	-1.7565830726	 0.143396
H	 3.4653634171	-2.5167402839	 1.1234246059	 0.164303
H	 3.2740935518	-1.2125146955	 2.3366413001	 0.149635
H	 2.187781742	-2.6126124906	 2.3737245331	 0.148644
45.9484	53.5072	119.5097	200.7494	225.6439	260.8234	281.9544	359.2885	395.7314	562.257	574.8761	602.2347	614.4392	698.7093	758.4653	891.328	922.8965	948.1446	1024.3359	1074.1757	1099.632	1129.6332	1143.9078	1159.7552	1213.1394	1273.1865	1304.1693	1312.6189	1341.0456	1399.1713	1412.5224	1455.8374	1465.0196	1488.8908	1496.2759	1500.3044	1508.9509	1802.3546	1864.0438	3037.9074	3042.3339	3056.5132	3063.2036	3109.5004	3114.4097	3121.9671	3131.4875	3164.0985
CC1CC(=O)N(C)C1=O	C[C@H]1CC(=O)N(C)C1=O	
InChI=1S/C6H9NO2/c1-4-3-5(8)7(2)6(4)9/h4H,3H2,1-2H3	InChI=1S/C6H9NO2/c1-4-3-5(8)7(2)6(4)9/h4H,3H2,1-2H3/t4-/m0/s1
