23
gdb 98272	2.98677	0.95259	0.86498	3.5098	84.45	-0.2239	0.0666	0.2905	1505.6474	0.203794	-421.648575	-421.636937	-421.635993	-421.686064	40.715	
C	-0.0131544928	 1.4628921844	 0.0123330643	-0.313987
N	 0.0628786467	 0.0126999749	-0.034119893	-0.373244
C	 0.7141386806	-0.6485714721	 0.9930252161	 0.50391
O	 1.3493074653	-0.0398416501	 1.8439396303	-0.431771
N	 0.6224182625	-2.0272046533	 0.9599153796	-0.13096
C	-0.0167740111	-2.7290484201	-0.1369332016	-0.359371
C	 1.2350512275	-2.7899001717	 2.0570733631	 0.039744
C	 0.2134202021	-3.6935508549	 2.759106572	-0.388785
C	 2.4734190872	-3.5683972123	 1.5927215987	-0.38935
H	 0.9669215118	 1.8564156678	 0.2822188872	 0.158764
H	-0.2934382076	 1.8377735292	-0.9756595529	 0.113564
H	-0.737166665	 1.8321278074	 0.7512874237	 0.119042
H	-0.7069998512	-0.4556075259	-0.4821079116	 0.238333
H	 0.2955197476	-2.3181187262	-1.1029107043	 0.135351
H	 0.2787285451	-3.7793284531	-0.1200088285	 0.136064
H	-1.1163183804	-2.7013441043	-0.085968312	 0.116472
H	 1.5636743183	-2.0225747865	 2.7596503386	 0.130768
H	-0.1546389332	-4.4898349663	 2.1020064391	 0.107028
H	 0.6737794772	-4.1752289015	 3.6272939625	 0.118533
H	-0.6462465372	-3.113375974	 3.1071837196	 0.119338
H	 2.2234010675	-4.34759595	 0.863335807	 0.106168
H	 3.2023759413	-2.8926843628	 1.1373056406	 0.128389
H	 2.9499535778	-4.0625624486	 2.4454534516	 0.116
40.4707	62.8193	87.1893	144.2919	146.0247	182.4881	207.9128	240.1304	245.6883	297.0974	314.6368	343.9073	424.965	452.2459	475.6411	538.6969	654.5898	763.9219	797.2465	879.5667	928.41	946.6994	976.5687	1078.8097	1113.3284	1142.3641	1146.7833	1150.9831	1167.2996	1182.1607	1222.2085	1277.9176	1336.6602	1368.9837	1398.7331	1415.1051	1420.6373	1442.8421	1466.054	1483.7231	1485.2315	1486.3389	1501.7202	1502.7032	1506.7688	1509.5547	1527.9631	1547.443	1753.289	2980.4643	3012.9379	3028.9036	3033.4757	3062.2944	3088.3792	3091.906	3092.5579	3112.5912	3117.1863	3121.555	3131.3377	3153.1102	3641.5103
CNC(=O)N(C)C(C)C	CNC(=O)N(C)C(C)C	
InChI=1S/C6H14N2O/c1-5(2)8(4)6(9)7-3/h5H,1-4H3,(H,7,9)	InChI=1S/C6H14N2O/c1-5(2)8(4)6(9)7-3/h5H,1-4H3,(H,7,9)
