21
gdb 121161	2.59693	1.17049	0.90107	1.3923	79.4	-0.2424	0.0649	0.3074	1363.5683	0.181197	-424.175985	-424.166525	-424.165581	-424.210924	34.344	
C	 0.5597919826	 1.312373281	-0.3270470906	-0.224518
O	 0.8552872449	-0.0615096952	-0.421129583	-0.237239
C	-0.1386450851	-0.7941466123	-1.1065151257	-0.079716
C	 0.2756398529	-2.2552984325	-1.0943742904	 0.053292
O	-0.6983142926	-3.078754196	-1.7787688628	-0.304062
C	 0.2893678617	-3.5686808208	-2.7169970599	-0.139691
C	 1.3637991216	-2.7031990275	-2.0686719786	 0.302343
C	 2.433208627	-1.8769773538	-2.7146989826	-0.325913
C	 2.7981022723	-3.0228614571	-1.7956577386	-0.326223
H	 0.4710120829	 1.7805919819	-1.3198980692	 0.105954
H	-0.3798277832	 1.4883517251	 0.2195288117	 0.10753
H	 1.3797357666	 1.7881300795	 0.2164623626	 0.127298
H	-1.1203443907	-0.6885894063	-0.6149121071	 0.095906
H	-0.2460955447	-0.4418860832	-2.145192914	 0.089174
H	 0.4264259402	-2.5825828198	-0.0563311282	 0.081362
H	 0.4315652874	-4.6538586037	-2.6279124993	 0.10097
H	 0.0235528587	-3.3254823088	-3.754083479	 0.100981
H	 2.600667264	-2.0008203823	-3.7801957442	 0.109707
H	 2.5747364119	-0.8683210757	-2.3432463024	 0.130163
H	 3.1945535775	-2.7815460681	-0.8145473471	 0.121463
H	 3.211739334	-3.9240720043	-2.2377893916	 0.111221
66.2891	77.6192	105.5518	178.3437	208.2087	241.533	272.2564	310.0353	370.3332	408.2715	536.7565	575.5729	776.6017	816.8641	866.4252	894.8869	921.4679	962.115	985.3279	1014.5246	1031.1707	1050.1254	1062.1323	1079.9427	1105.0967	1133.5941	1152.5503	1164.1149	1185.9041	1191.4817	1223.3229	1237.5616	1251.5395	1276.6322	1326.3504	1355.2455	1416.4994	1423.6741	1458.0712	1480.8712	1485.4871	1501.242	1506.0692	1522.5904	1524.5382	2960.2785	2975.5429	2992.7898	3001.7141	3016.3227	3019.0131	3042.7903	3114.1038	3122.8311	3128.7667	3204.715	3222.5988
COCC1OCC11CC1	COC[C@H]1OCC21CC2	
InChI=1S/C7H12O2/c1-8-4-6-7(2-3-7)5-9-6/h6H,2-5H2,1H3	InChI=1S/C7H12O2/c1-8-4-6-7(2-3-7)5-9-6/h6H,2-5H2,1H3/t6-/m1/s1
