16
gdb 23159	2.63757	1.20235	0.91666	0.773	75.34	-0.2542	-0.0085	0.2457	1246.9162	0.121411	-437.789591	-437.780524	-437.77958	-437.823524	33.764	
O	-0.1509938951	 1.3960305947	 0.5110247884	-0.387485
N	-0.0538802669	-0.0006361588	 0.6176602414	-0.22943
C	-1.0118058306	-0.5700504801	 0.0204881228	 0.421264
C	-2.2768394001	-0.1536637351	-0.6922333088	-0.359504
C	-2.8103772266	-1.6046485101	-0.4539027339	 0.149959
O	-3.449026266	-2.2824962465	-1.4846609982	-0.42536
C	-1.3389626676	-2.0606534255	-0.037776736	-0.331754
C	-0.6710104313	-2.7780185403	-1.1072400596	 0.301411
C	-0.1944394245	-3.3594147794	-2.0474558956	-0.433298
H	 0.6145352143	 1.6922381207	 1.0155745074	 0.309431
H	-2.8375362615	 0.6785653738	-0.2619968322	 0.132441
H	-2.1095688055	 0.0463305714	-1.75661169	 0.13118
H	-3.4686586046	-1.6442454058	 0.417124337	 0.10846
H	-2.7783653833	-2.5378089698	-2.1330660066	 0.285066
H	-1.2603108571	-2.6013779562	 0.9092945562	 0.121093
H	 0.2723572163	-3.8787380429	-2.8481094223	 0.206525
69.3675	105.863	142.9219	188.9088	290.9834	343.4439	361.4511	385.6348	423.1928	432.2596	458.5481	547.6213	632.2146	656.329	666.3037	685.1462	777.0222	816.032	938.928	971.3341	993.4745	1029.5987	1082.5332	1151.6185	1157.3033	1173.8283	1226.0118	1246.0903	1297.9867	1343.6541	1404.1361	1440.5641	1454.1915	1786.792	2223.958	3051.4568	3072.7761	3089.2548	3119.1707	3500.0679	3741.3659	3813.9546
ON=C1CC(O)C1C#C	ON=C1C[C@@H](O)[C@H]1C#C	
InChI=1S/C6H7NO2/c1-2-4-5(7-9)3-6(4)8/h1,4,6,8-9H,3H2	InChI=1S/C6H7NO2/c1-2-4-5(7-9)3-6(4)8/h1,4,6,8-9H,3H2/t4-,6+/m0/s1
