20
gdb 93642	2.11523	1.52295	1.25561	3.0547	77.81	-0.2638	0.025	0.2889	1121.3292	0.171373	-403.176418	-403.167252	-403.166308	-403.210411	33.995	
C	 0.8064563633	 1.2664511153	-0.4662725898	-0.414475
C	 0.0229410866	 0.0931058798	 0.1251239291	 0.10318
O	-0.1350911279	-0.9695590668	-0.8161538078	-0.255545
C	 1.0090452149	-1.8037628571	-0.7651692849	-0.094345
C	 1.6311262275	-1.6336201412	 0.6615437575	-0.200522
C	 3.0247941409	-1.1997930561	 0.6015603035	 0.286224
N	 4.1291264023	-0.8606836209	 0.5457894365	-0.343218
C	 0.6707418606	-0.6030480825	 1.3421828909	 0.009324
C	 1.2880070775	 0.2987303627	 2.4072593662	-0.426646
H	 1.8453774262	 1.0031312487	-0.6874749872	 0.13797
H	 0.329460855	 1.5861184367	-1.3966231197	 0.12919
H	 0.8157757208	 2.1162119239	 0.2230161814	 0.121542
H	-0.9906207725	 0.4273112095	 0.3714185625	 0.088106
H	 0.6854984719	-2.832311324	-0.9467393171	 0.11959
H	 1.7400270364	-1.5320562955	-1.5371981295	 0.120027
H	 1.6125397535	-2.5797497684	 1.2090498363	 0.130692
H	-0.1198910598	-1.2029938763	 1.8050178452	 0.094932
H	 2.11942193	 0.8880604233	 2.0129839932	 0.147359
H	 0.5358177542	 0.9888161781	 2.8026927711	 0.120712
H	 1.6691617386	-0.2905970492	 3.2467809626	 0.125902
55.3231	133.787	160.6489	212.2686	221.7574	247.8752	269.7448	335.6134	406.7832	477.9019	493.9879	583.4289	673.7271	697.9045	777.6237	812.8491	875.1854	950.312	970.5876	993.0305	1038.1334	1048.5716	1066.6138	1111.3712	1137.7942	1151.1766	1177.1476	1225.7311	1247.2725	1308.5441	1323.2461	1352.9962	1368.827	1381.5923	1395.5994	1412.9098	1420.8084	1488.2798	1493.1279	1500.2245	1505.5345	1527.2189	2349.951	3022.9448	3041.707	3042.0224	3044.4218	3056.247	3072.7527	3090.5985	3105.6464	3115.665	3121.6584	3127.3622
CC1OCC(C#N)C1C	C[C@H]1OC[C@@H](C#N)[C@H]1C	
InChI=1S/C7H11NO/c1-5-6(2)9-4-7(5)3-8/h5-7H,4H2,1-2H3	InChI=1S/C7H11NO/c1-5-6(2)9-4-7(5)3-8/h5-7H,4H2,1-2H3/t5-,6+,7+/m0/s1
