21
gdb 69376	3.98646	0.98231	0.92895	2.1523	83.57	-0.2329	0.0762	0.3092	1361.0891	0.183196	-383.201054	-383.192412	-383.191468	-383.234591	33.297	
C	 0.0059171559	 1.5462854422	-0.1483639472	-0.488577
C	-0.0567557713	 0.051493018	-0.0475093777	 0.365843
C	-0.891943165	-0.6699732256	 0.9326892622	-0.281687
N	 0.5759075959	-0.7290147656	 1.1025900641	-0.172771
C	 1.0460975974	-1.7541804424	 0.0957627665	 0.050609
C	 0.4873288675	-0.9219175111	-1.0939106725	-0.340148
C	 2.5380730896	-1.9187107065	 0.1352846737	 0.022753
C	 3.1511330346	-3.0143056346	 0.9214298561	-0.244763
N	 3.1698778184	-3.0582446311	-0.5534498508	-0.329948
H	 0.9944362696	 1.879621036	-0.482548423	 0.121993
H	-0.7347441625	 1.9185545746	-0.8663249135	 0.121804
H	-0.1991271506	 2.0100004025	 0.8209051651	 0.128967
H	-1.3816782121	-0.082832066	 1.7041692356	 0.117116
H	-1.4265335077	-1.5755201292	 0.6489460444	 0.105108
H	 0.5675704994	-2.7317593368	 0.2468387696	 0.060015
H	-0.2423535151	-1.3930197849	-1.7593287617	 0.099017
H	 1.2879150793	-0.4914128751	-1.7008958551	 0.115136
H	 3.0928955226	-0.9879071527	 0.0323365356	 0.091448
H	 4.1222169757	-2.8727396118	 1.3865237079	 0.120694
H	 2.4866955602	-3.6880341319	 1.4568131874	 0.110902
H	 2.4503715784	-3.6989845379	-0.8832145566	 0.226489
67.4925	97.5506	173.9582	198.6318	289.8233	321.9096	363.1459	383.0416	468.0815	479.3022	622.6827	738.0939	776.4713	808.6562	853.2791	888.8077	898.7788	937.0405	956.0562	966.1685	969.8005	1026.1761	1035.3794	1059.9406	1093.5113	1112.3642	1131.1757	1138.6469	1147.1747	1165.1626	1236.5814	1247.2329	1255.0776	1260.6951	1291.3413	1314.3291	1327.0204	1377.323	1422.4603	1445.6492	1482.8467	1487.5238	1493.5514	1511.1434	1514.897	3004.1324	3026.7099	3051.0609	3087.8839	3092.2062	3105.6951	3109.4142	3111.5599	3126.3216	3186.7621	3195.1857	3481.0587
CC12CN1C(C2)C1CN1	C[C@]12CN1[C@@H](C2)[C@H]1CN1	
InChI=1S/C7H12N2/c1-7-2-6(5-3-8-5)9(7)4-7/h5-6,8H,2-4H2,1H3	InChI=1S/C7H12N2/c1-7-2-6(5-3-8-5)9(7)4-7/h5-6,8H,2-4H2,1H3/t5-,6+,7+,9?/m1/s1
