15
gdb 49100	2.02332	1.58797	0.89972	3.2881	81.65	-0.2486	-0.0847	0.164	1211.9154	0.110757	-420.609769	-420.601161	-420.600217	-420.643932	30.201	
O	-0.0197608084	-0.0858043754	-0.0191094835	-0.263358
C	-0.0156171168	 1.1271264377	-0.0062880203	 0.04247
C	 1.2119026436	 1.9193417673	 0.028044624	 0.089575
C	 1.307356932	 3.2651856167	 0.0434170085	 0.088551
C	 2.7713901684	 3.648591101	 0.0788137103	-0.165043
O	 3.485734772	 2.4254890538	 0.0823002542	-0.26726
C	 2.5887758039	 1.3159153998	 0.0518247016	-0.14963
C	 0.2739836341	 4.2221615828	 0.0305374044	 0.211369
C	-0.565727241	 5.0868772814	 0.0208299817	-0.393114
H	-0.9567205392	 1.7136527582	-0.0214988607	 0.088665
H	 3.0454533395	 4.2575944033	-0.796243861	 0.125553
H	 3.007178476	 4.240241799	 0.9766203733	 0.125565
H	 2.7417704868	 0.6777658071	 0.933644281	 0.128408
H	 2.7800154404	 0.6953990432	-0.8351042633	 0.128408
H	-1.3187496712	 5.8359677341	 0.0114280298	 0.209842
55.2621	119.507	124.8932	145.6957	201.3495	267.493	395.3001	428.5669	528.1601	581.2993	586.9688	637.4205	648.1562	710.0881	840.8195	945.4481	984.9764	1027.0666	1034.2377	1067.9283	1101.6327	1167.796	1189.4384	1219.516	1290.9733	1377.4641	1393.0396	1415.7396	1510.2051	1521.7897	1665.2678	1770.8246	2219.1069	2925.8891	2983.2809	3002.8177	3005.9925	3025.1957	3500.1094
O=CC1=C(COC1)C#C	O=CC1=C(COC1)C#C	
InChI=1S/C7H6O2/c1-2-6-4-9-5-7(6)3-8/h1,3H,4-5H2	InChI=1S/C7H6O2/c1-2-6-4-9-5-7(6)3-8/h1,3H,4-5H2
