17
gdb 38115	3.06112	1.89246	1.35413	2.0611	77.55	-0.2282	-0.0051	0.2231	940.3476	0.138188	-384.686525	-384.68002	-384.679075	-384.717131	27.13	
C	-0.0117996941	 1.583199953	-0.2291782312	-0.30128
C	 1.4554149881	 1.9485097316	-0.0735795378	-0.070023
C	 2.1774649396	 0.9839047295	 0.5036004695	-0.204878
C	 1.3030708817	-0.1670323685	 0.8130038746	 0.463239
O	 1.7059862073	-1.5156499461	 1.0005059657	-0.32138
C	 1.0211320301	-0.841695303	 2.0951579266	-0.104127
C	-0.4606162914	-1.0339639119	 2.1412612699	-0.083677
C	-1.0414097287	-0.5248659966	 1.0469276985	-0.106984
C	-0.029907087	 0.0583790263	 0.0861147873	-0.108535
H	-0.6216292301	 2.1461490439	 0.4886641331	 0.11669
H	-0.401114646	 1.8211815311	-1.2250068378	 0.108277
H	 1.8394038233	 2.9182052556	-0.3698395058	 0.101361
H	 3.2299003458	 1.0228711452	 0.7538091536	 0.107353
H	 1.6206512148	-0.7237124047	 2.9926582718	 0.097934
H	-0.9733166997	-1.5254372149	 2.9596118678	 0.101785
H	-2.1018439938	-0.5798727634	 0.8238287777	 0.101315
H	-0.0399845099	-0.5012149573	-0.8572512735	 0.102929
155.8433	218.7615	359.4915	378.0371	442.6587	527.5917	583.0179	623.527	696.7945	744.0167	772.3691	788.4685	817.6295	866.385	899.6821	942.2125	952.2304	965.0823	967.923	991.9991	1022.6372	1056.1484	1065.0563	1116.9168	1137.1175	1171.0342	1197.293	1251.0015	1267.9735	1298.3866	1320.7825	1345.0097	1369.2992	1452.3518	1486.5284	1644.3198	1659.3259	3028.132	3035.7145	3066.4435	3162.4172	3181.8141	3193.2977	3211.1643	3223.8245
C1C=CC23OC2C=CC13	C1C=C[C@@]23O[C@@H]2C=C[C@@H]13	
InChI=1S/C8H8O/c1-2-6-3-4-7-8(6,5-1)9-7/h1,3-7H,2H2	InChI=1S/C8H8O/c1-2-6-3-4-7-8(6,5-1)9-7/h1,3-7H,2H2/t6-,7-,8+/m1/s1
