21
gdb 73932	2.6387	1.24578	0.91979	1.8526	87.66	-0.2207	0.018	0.2387	1326.0013	0.182666	-387.092733	-387.083688	-387.082743	-387.126943	33.615	
C	 0.1836508357	 1.553364354	 0.0818350535	-0.502395
C	 0.042522855	 0.0683153051	-0.0465320187	 0.204278
C	-1.0770597838	-0.6651709805	-0.1504098659	 0.260969
C	-0.7761833789	-2.1513324	-0.1835028777	-0.305493
C	 0.7468224856	-2.2008551043	-0.4474020792	-0.214385
C	 1.274644236	-0.8130277281	-0.0181095357	-0.286641
C	-2.4627821936	-0.1587908501	-0.1508362792	-0.040409
C	-3.5510906139	-0.7813751371	-0.930349621	-0.186835
O	-3.4600019031	-0.9937523099	 0.4733262785	-0.235143
H	 0.7546191607	 1.8112142408	 0.9832963346	 0.127003
H	 0.7439039324	 1.9683838544	-0.7661556064	 0.127028
H	-0.7753511425	 2.0740595727	 0.1319082563	 0.124627
H	-1.0468636451	-2.6088442409	 0.7767575432	 0.117807
H	-1.3462591985	-2.692618348	-0.9464984692	 0.098195
H	 1.2410318585	-3.0250307468	 0.0730863849	 0.096721
H	 0.9266161442	-2.3418423298	-1.5180820988	 0.102323
H	 2.0724618751	-0.441917181	-0.673317552	 0.097474
H	 1.7006845573	-0.8281156649	 0.9965647371	 0.103715
H	-2.5849687731	 0.8986249321	 0.0803488001	 0.084801
H	-4.3856162284	-0.1632748275	-1.2612279377	 0.113237
H	-3.3454551595	-1.65088391	-1.5521964168	 0.113125
60.7764	121.7384	146.229	163.7586	184.4906	243.6325	290.5286	394.7889	455.8105	555.4531	589.878	622.5335	705.3845	824.6291	841.7674	887.8238	899.0611	925.4265	934.624	976.4555	1005.1096	1032.2692	1067.0222	1088.904	1095.1282	1149.2652	1157.1254	1168.1176	1200.1042	1219.6908	1231.8433	1266.3946	1292.6229	1328.1105	1329.9616	1365.926	1415.6635	1422.3533	1478.8828	1483.7014	1486.2163	1490.7077	1506.8599	1521.8876	1728.8664	2994.3496	3016.4732	3025.7616	3035.8094	3050.2592	3058.3863	3062.7618	3080.009	3100.2035	3111.0178	3121.1003	3167.255
CC1=C(CCC1)C1CO1	CC1=C(CCC1)[C@H]1CO1	
InChI=1S/C8H12O/c1-6-3-2-4-7(6)8-5-9-8/h8H,2-5H2,1H3	InChI=1S/C8H12O/c1-6-3-2-4-7(6)8-5-9-8/h8H,2-5H2,1H3/t8-/m1/s1
