17
gdb 89319	1.97204	1.80533	1.12047	5.2803	74.66	-0.2474	0.0002	0.2476	1113.71	0.135113	-417.983883	-417.975105	-417.974161	-418.017091	32.867	
C	 0.0600251733	 1.5623558232	 0.0235034122	-0.495112
C	-0.1075100453	 0.0824762173	 0.1157304119	 0.322243
C	-1.3706275289	-0.7685215533	-0.0621737537	-0.318942
C	-0.7566095769	-1.8251278726	 0.9554216066	-0.045819
N	-0.4518274824	-3.1811389026	 0.5814531657	-0.518045
C	 0.4760423714	-0.9099421294	 1.0587102059	 0.268474
O	 0.99145364	-0.7552850274	-0.2755754457	-0.311958
C	 1.376969154	-0.744624505	 2.1562707378	 0.20518
N	 2.0698107804	-0.6085871361	 3.0724371363	-0.343493
H	 1.046989956	 1.8595294225	 0.3862338484	 0.15215
H	-0.0403304716	 1.8921809677	-1.0162269678	 0.141029
H	-0.7052635121	 2.0732653538	 0.6153087914	 0.136095
H	-2.2785547501	-0.2944480909	 0.3182575596	 0.113528
H	-1.5352895335	-1.1258707053	-1.0814341248	 0.110857
H	-1.3226197525	-1.8225407267	 1.8907550947	 0.106974
H	-1.2980452283	-3.7243547884	 0.448963803	 0.235349
H	 0.0622333465	-3.1889915669	-0.2941463616	 0.24149
111.6881	127.1694	166.4374	197.7365	228.9336	305.3918	344.154	383.9337	420.4657	503.4646	560.4207	571.8639	596.3982	709.8712	737.1395	813.8055	868.0926	874.3811	914.0986	966.5864	1035.2782	1055.8481	1140.1005	1152.7778	1166.8013	1190.2304	1226.3807	1261.1466	1299.2155	1397.4309	1416.2879	1450.1884	1476.3169	1484.0524	1498.3736	1653.907	2354.0358	3041.0692	3065.3873	3082.8097	3106.6932	3127.2918	3131.1531	3504.7288	3588.0188
CC12CC(N)C1(O2)C#N	C[C@]12C[C@@H](N)[C@]1(O2)C#N	
InChI=1S/C6H8N2O/c1-5-2-4(8)6(5,3-7)9-5/h4H,2,8H2,1H3	InChI=1S/C6H8N2O/c1-5-2-4(8)6(5,3-7)9-5/h4H,2,8H2,1H3/t4-,5+,6-/m1/s1
