16
gdb 132375	1.821	1.77634	0.9007	2.5766	77.86	-0.1949	0.0239	0.2189	1208.5312	0.125527	-442.102292	-442.09429	-442.093346	-442.134294	32.09	
N	-0.0092896821	 1.3994235556	 0.1962981455	-0.592004
C	-0.0000437134	 0.0103081079	 0.064445513	 0.368339
C	-1.2067193716	-0.7033873194	 0.0660673787	-0.378957
C	-1.1490378314	-2.0849015777	-0.0034529926	 0.349012
F	-2.3014938633	-2.7693371892	-0.0008010557	-0.088756
C	 0.0361767619	-2.7967859162	-0.0755659695	-0.378996
C	 1.2403316185	-2.0788028065	-0.0795154368	 0.368545
N	 2.454940085	-2.7518016004	-0.2139494175	-0.591975
C	 1.213116561	-0.6820576717	-0.0088908118	-0.283771
H	 0.8063910477	 1.8642541265	-0.1749928951	 0.245411
H	-0.8601660956	 1.846080171	-0.1129334074	 0.247341
H	-2.1658641022	-0.2037538003	 0.1271227259	 0.088745
H	 0.0156810362	-3.8781955664	-0.1343443206	 0.08873
H	 2.4412277324	-3.71218081	 0.0965336102	 0.247369
H	 3.2549390606	-2.2572920612	 0.1528175318	 0.245441
H	 2.1471752762	-0.1273208822	-0.0110065781	 0.065528
203.2149	228.4694	239.4448	303.0695	304.5725	320.7945	322.4903	514.6976	515.7599	529.6409	568.9886	585.6692	606.8057	632.6349	664.2209	700.5742	791.4984	803.7246	823.9786	998.6029	1014.3867	1022.2313	1119.1203	1126.5063	1181.431	1210.6113	1296.1189	1372.5124	1410.0408	1521.3003	1526.0562	1637.5831	1651.9012	1660.9227	1668.634	3159.4468	3200.6307	3201.1865	3565.2538	3566.4302	3663.8517	3665.1066
NC1=CC(F)=CC(N)=C1	Nc1cc(F)cc(N)c1	
InChI=1S/C6H7FN2/c7-4-1-5(8)3-6(9)2-4/h1-3H,8-9H2	InChI=1S/C6H7FN2/c7-4-1-5(8)3-6(9)2-4/h1-3H,8-9H2
