17
gdb 109068	4.01938	1.3192	1.18965	3.477	71.82	-0.2534	-0.0083	0.245	1057.4099	0.137554	-417.96212	-417.954913	-417.953968	-417.993869	28.204	
O	 0.0788707302	 1.3723733009	-0.0281728025	-0.422586
C	-0.0164800786	-0.027531223	-0.0146536075	-0.132535
C	-1.4318839602	-0.4950330925	 0.0963370528	 0.328334
N	-2.4238704675	 0.3005506162	 0.1833654632	-0.278168
C	-3.6092191892	-0.5666875393	 0.1145431525	-0.039195
C	-3.6490608059	-1.1324004073	-1.3494176683	-0.23727
C	-2.8145952161	-2.3109067748	-0.8463685683	-0.04866
C	-3.1145385721	-1.9811453872	 0.5686292591	-0.050095
N	-1.7174913197	-1.9002915034	 0.1193779967	-0.189187
H	-0.8293540253	 1.7027736296	 0.0228911839	 0.295697
H	 0.4204782497	-0.4631445091	-0.9285291872	 0.115683
H	 0.5559614373	-0.4521576013	 0.8252699137	 0.121708
H	-4.5072285741	-0.1154730102	 0.5282212506	 0.088237
H	-4.649194406	-1.4847224964	-1.6131341127	 0.118649
H	-3.2550191716	-0.4837831419	-2.1362007897	 0.112323
H	-2.6573897549	-3.2650540282	-1.3330000328	 0.111634
H	-3.382052766	-2.5898499324	 1.4244458365	 0.10543
92.0847	171.7631	207.7275	296.6453	384.8872	418.2465	459.5674	599.2211	705.6688	715.5611	732.6616	825.1274	833.362	877.0858	919.8613	930.2126	947.7146	975.3826	1016.7633	1037.3485	1043.116	1084.3525	1109.519	1133.1224	1160.9772	1189.6656	1214.4951	1240.623	1252.9572	1271.4091	1293.6028	1323.9394	1346.4166	1470.2823	1481.9721	1497.7991	1699.1256	2976.561	2994.5596	3060.9577	3121.1925	3153.6285	3181.5551	3201.2833	3729.3321
OCC1=NC2CC3C2N13	OC[C]1[N][C@H]2C[C@@H]3[C@H]2N13	
InChI=1S/C6H8N2O/c9-2-5-7-3-1-4-6(3)8(4)5/h3-4,6,9H,1-2H2	InChI=1S/C6H8N2O/c9-2-5-7-3-1-4-6(3)8(4)5/h3-4,6,9H,1-2H2/t3-,4+,6-,8?/m0/s1
