22
gdb 6608	4.04266	1.40623	1.29741	0.1467	82.61	-0.2598	0.0851	0.3449	1077.7607	0.199363	-313.056338	-313.04773	-313.046786	-313.088973	33.983	
C	-0.2389710592	 1.5243171941	-0.0200532816	-0.436798
C	-0.0142648266	 0.0115113755	 0.0032035166	 0.370258
C	-1.3163828289	-0.7425411124	-0.2463178282	-0.451872
C	 1.199553964	-0.4170402342	-0.8924527875	-0.343616
C	 2.0481183596	-0.5503309374	 0.3772444602	 0.403406
C	 3.2742769064	-1.3833909329	 0.5936097959	-0.333675
C	 3.3653799692	 0.126558284	 0.6286319233	-0.315878
C	 0.8015589167	-0.4430208419	 1.2629831939	-0.343616
H	 0.6949886387	 2.0672331315	 0.1589437925	 0.115273
H	-0.6341042007	 1.848461944	-0.9899820168	 0.108225
H	-0.955778453	 1.8274635982	 0.7521197472	 0.108225
H	-1.7439203052	-0.4817383784	-1.2219219478	 0.109659
H	-1.1583023315	-1.8262225245	-0.2301907317	 0.107613
H	-2.0652119639	-0.5027116219	 0.5181077718	 0.109659
H	 1.0308758379	-1.3743469294	-1.3974805303	 0.090423
H	 1.5321716951	 0.3144497909	-1.6359587647	 0.090594
H	 3.3688312538	-1.9225087153	 1.5313676135	 0.107792
H	 3.6997610392	-1.9009060233	-0.2608605763	 0.107792
H	 3.8517648366	 0.6278284601	-0.2027678129	 0.10776
H	 3.5206727833	 0.6062152283	 1.5903392104	 0.10776
H	 0.8436159444	 0.2695017286	 2.0930772505	 0.090594
H	 0.4677928328	-1.4111042837	 1.6520282989	 0.090423
53.5908	217.0931	232.117	247.8938	288.3216	310.3459	321.3317	351.4204	416.2194	424.0879	509.4185	692.5834	775.8602	823.8178	833.8231	874.7209	882.625	912.0648	933.1823	947.7216	959.2201	986.9102	1006.4792	1040.7514	1050.5261	1074.3185	1105.3238	1166.625	1187.7022	1193.9639	1207.3576	1239.6461	1265.9107	1293.9614	1310.8884	1381.1455	1401.622	1419.6078	1464.1281	1473.839	1484.8712	1485.4955	1497.5553	1501.212	1504.6151	1507.5871	3015.1986	3019.8792	3029.7881	3036.1655	3078.254	3080.5921	3082.5112	3085.6766	3090.9879	3095.126	3115.6431	3120.0433	3192.833	3208.2031
CC1(C)CC2(CC2)C1	CC1(C)CC2(CC2)C1	
InChI=1S/C8H14/c1-7(2)5-8(6-7)3-4-8/h3-6H2,1-2H3	InChI=1S/C8H14/c1-7(2)5-8(6-7)3-4-8/h3-6H2,1-2H3
