12
gdb 20694	4.07183	2.01277	1.3582	2.0688	59.16	-0.2601	-0.0983	0.1618	833.1705	0.084456	-410.848806	-410.842078	-410.841134	-410.880128	23.833	
C	 0.0020718416	 1.4732494543	-0.004243474	-0.451274
C	-0.0478152863	-0.0209983728	 0.0103850179	 0.387376
N	-1.157562892	-0.6371388386	-0.2589419823	-0.322546
C	-1.1506440946	-2.0233074948	-0.2319028767	 0.46599
O	-2.0853943529	-2.748145208	-0.4550812765	-0.352454
N	 0.113620694	-2.5668239626	 0.0977669516	-0.24441
N	 1.224321477	-1.8916951277	 0.3661626992	-0.015059
N	 1.1775802048	-0.6193496667	 0.3310735754	-0.234548
H	 0.7527411719	 1.810896945	-0.7263031539	 0.158704
H	-0.9746050194	 1.882455234	-0.2584285645	 0.1551
H	 0.3228368151	 1.8418596898	 0.9756122447	 0.158699
H	 0.2068275708	-3.5743176418	 0.1397445193	 0.294422
102.5873	120.1632	188.875	321.9126	412.107	502.3327	562.1831	589.1289	638.5505	756.0274	762.5183	815.6907	920.5651	998.7863	1052.9936	1060.2027	1103.0099	1206.7043	1313.2978	1376.0839	1407.6445	1460.5008	1469.5472	1532.6269	1634.5841	1848.7046	3048.9952	3106.376	3170.5745	3588.5569
CC1=NC(=O)NN=N1	Cc1nc(=O)[nH]nn1	
InChI=1S/C3H4N4O/c1-2-4-3(8)6-7-5-2/h1H3,(H,4,5,6,8)	InChI=1S/C3H4N4O/c1-2-4-3(8)6-7-5-2/h1H3,(H,4,5,6,8)
