19
gdb 94579	3.15241	0.92953	0.84479	3.678	72.55	-0.2394	-0.0067	0.2327	1433.3715	0.156075	-460.15724	-460.147216	-460.146272	-460.194271	34.715	
C	-0.5650511652	 1.3259833353	 0.0367803694	-0.478986
C	 0.1382177798	-0.0164035349	 0.0149497385	 0.387999
O	 0.7879287446	-0.4181995763	 0.9524672784	-0.300153
C	 0.0034608976	-0.8247559673	-1.2756835126	-0.310604
C	 0.0834595903	-2.3227211092	-1.0381038825	 0.131845
O	-1.1775985589	-2.8803312424	-0.5853986275	-0.295594
C	-1.2921344419	-3.7167568792	-1.753195765	-0.096416
C	 0.076241138	-3.2351580688	-2.2860689961	 0.030613
O	 0.0867679221	-2.5161878253	-3.4975321224	-0.423687
H	-0.2886611277	 1.8824907812	 0.9330865242	 0.140646
H	-0.3212636152	 1.9066799374	-0.8599223776	 0.135113
H	-1.6499706778	 1.1667325409	 0.0247799516	 0.147656
H	-0.9162875463	-0.567051238	-1.8077740713	 0.117676
H	 0.8312079294	-0.5197772392	-1.9313401271	 0.140533
H	 0.8798389215	-2.5314965095	-0.316606322	 0.103175
H	-1.3725389145	-4.7793977177	-1.493277233	 0.099622
H	-2.136444582	-3.4297639671	-2.3937054523	 0.099167
H	 0.8580675927	-4.0040860593	-2.2729027644	 0.080783
H	 0.1081461832	-3.1433083107	-4.2266757384	 0.290614
31.8732	47.3621	55.0099	133.4039	155.613	218.7435	232.8055	337.6797	407.7405	416.0667	474.9783	540.3585	588.218	757.3956	797.7812	846.0506	878.5095	897.5793	944.9309	983.1441	1025.0995	1055.2701	1072.5905	1112.6882	1149.7576	1169.9873	1186.0268	1195.5284	1212.4729	1286.9966	1313.4396	1315.5752	1354.4757	1380.4834	1403.6555	1431.6321	1442.1415	1463.1292	1475.765	1512.8668	1813.327	3007.6969	3024.3391	3029.6176	3034.5619	3058.5223	3065.15	3093.7972	3099.0524	3151.952	3826.0176
CC(=O)CC1OCC1O	CC(=O)C[C@H]1OC[C@H]1O	
InChI=1S/C6H10O3/c1-4(7)2-6-5(8)3-9-6/h5-6,8H,2-3H2,1H3	InChI=1S/C6H10O3/c1-4(7)2-6-5(8)3-9-6/h5-6,8H,2-3H2,1H3/t5-,6-/m1/s1
