18
gdb 114942	3.5526	0.97963	0.81584	4.2691	74.82	-0.2601	-0.074	0.1861	1408.6969	0.14676	-439.111187	-439.102181	-439.101237	-439.145968	31.741	
C	-0.047361503	 1.5328636732	 0.1992311218	-0.38674
C	-0.0706548509	 0.0028673327	 0.1853355002	-0.187156
C	-1.4407029555	-0.584373656	-0.1294108865	 0.092995
C	-1.5170432501	-2.1366089264	-0.0735652118	-0.209425
N	-2.4614756341	-2.44748986	 1.0079041424	-0.277418
C	-2.8645598074	-1.3267167079	 1.4478617665	 0.305738
O	-2.3987998883	-0.1775212013	 0.8935686428	-0.265044
C	-3.8458708722	-1.1109665797	 2.5613623277	 0.109178
O	-4.3716497314	-2.0008802733	 3.1725734881	-0.218264
H	 0.9523542631	 1.9073808582	 0.4366394312	 0.119128
H	-0.3350427928	 1.9412603821	-0.7758059189	 0.117572
H	-0.7442065273	 1.9244680828	 0.9450760922	 0.134927
H	 0.6314644844	-0.3808629756	-0.5661608006	 0.107251
H	 0.2615458535	-0.3935945343	 1.1531993981	 0.109992
H	-1.8150266074	-0.1851043642	-1.0781836741	 0.094825
H	-1.874182016	-2.5790831862	-1.0091969621	 0.127153
H	-0.5434288706	-2.5899285356	 0.1470380876	 0.123881
H	-4.0426952642	-0.0393066586	 2.7695675253	 0.101408
44.6562	99.7498	117.6266	166.372	221.4575	233.5592	249.5085	391.3523	418.021	500.4775	606.019	719.4454	763.2188	800.6361	836.3879	943.8697	946.4813	971.7162	1006.2932	1031.2918	1046.2097	1076.6654	1116.8223	1149.0039	1216.3615	1224.4293	1295.7066	1317.3527	1333.7533	1364.1565	1403.9405	1411.5102	1431.8584	1474.2124	1494.8028	1498.4491	1507.8173	1706.327	1837.5768	2930.038	3022.4125	3038.2884	3039.3079	3043.9527	3064.0521	3076.8564	3106.8816	3123.2061
CCC1CN=C(O1)C=O	CC[C@H]1CN=C(O1)C=O	
InChI=1S/C6H9NO2/c1-2-5-3-7-6(4-8)9-5/h4-5H,2-3H2,1H3	InChI=1S/C6H9NO2/c1-2-5-3-7-6(4-8)9-5/h4-5H,2-3H2,1H3/t5-/m0/s1
