18
gdb 72109	2.63307	1.90021	1.50699	3.2641	75.37	-0.2408	-0.0194	0.2214	939.8097	0.148873	-401.913648	-401.906399	-401.905455	-401.945037	29.064	
C	 0.0049360541	 1.5386158899	 0.0536154535	-0.499459
C	 0.0325043531	 0.0379733531	 0.0152063261	 0.199761
C	-1.2682959831	-0.7843206537	-0.2249760101	-0.278021
C	-0.7320413338	-2.0712943165	 0.4438535761	-0.049997
C	-0.4218468966	-1.5272126557	 1.8483715777	-0.16829
N	 0.6830387515	-0.7260819582	 1.2096940344	-0.188306
C	 0.8117573852	-1.8731206088	 0.1752478233	-0.145372
C	 0.9778446875	-0.7855898877	-0.8734780213	 0.450878
O	 1.6467330295	-0.5918182602	-1.8430525236	-0.326311
H	 1.004413743	 1.9395945979	 0.2394696271	 0.139819
H	-0.3530448949	 1.9354204707	-0.9020988252	 0.131563
H	-0.6642444695	 1.8998325024	 0.8418316892	 0.12127
H	-2.1451286938	-0.3791646768	 0.2888057861	 0.105299
H	-1.5043767906	-0.8877420008	-1.2883211195	 0.115667
H	-1.2535379898	-3.0113943365	 0.259498111	 0.074226
H	-1.1918500936	-0.9542414055	 2.3760581894	 0.102399
H	 0.0266952151	-2.2561055774	 2.5281294867	 0.115815
H	 1.5140788065	-2.6814103062	 0.3704292793	 0.099057
146.5168	170.3314	212.8895	287.4299	326.4561	454.5763	517.6428	573.5414	652.3089	685.3575	714.8751	784.0882	811.8575	843.3852	848.1162	894.2304	931.4061	949.2866	972.8443	1010.2323	1038.667	1056.9379	1098.8222	1109.3321	1135.0772	1146.114	1201.0924	1217.752	1245.7539	1254.4755	1289.3384	1291.1041	1347.2952	1413.9892	1481.3656	1490.5459	1499.9829	1521.4011	1909.2693	3037.0265	3043.3633	3051.4548	3096.9802	3102.3573	3104.7936	3109.7666	3122.8256	3143.298
CC12CC3CN1C3C2=O	C[C@]12C[C@@H]3CN1[C@@H]3C2=O	
InChI=1S/C7H9NO/c1-7-2-4-3-8(7)5(4)6(7)9/h4-5H,2-3H2,1H3	InChI=1S/C7H9NO/c1-7-2-4-3-8(7)5(4)6(7)9/h4-5H,2-3H2,1H3/t4-,5+,7-/m1/s1
