19
gdb 100412	3.5011	0.89838	0.77533	2.9696	74.71	-0.232	0.041	0.273	1481.3463	0.158689	-456.322502	-456.31281	-456.311866	-456.358481	34.138	
C	-0.3052535024	 1.1112780988	 0.0777604447	-0.224169
O	 0.1086626873	-0.2447351495	-0.0852667902	-0.25488
C	 0.718481251	-0.5417868346	-1.2513888426	 0.473933
N	 0.9490580924	-1.9021223157	-1.3222565268	-0.568155
N	 0.9677432249	 0.3479660451	-2.1265923913	-0.347994
C	 1.5818185699	-0.055401475	-3.3598050226	-0.018424
C	 1.7355766791	 1.0452140615	-4.4304018904	-0.087206
O	 3.1402462656	 0.7499772402	-4.5977719179	-0.273272
C	 3.1366749897	-0.108471317	-3.4447374878	-0.085865
H	 0.5533574442	 1.7867953834	 0.0444493732	 0.136962
H	-1.0049025994	 1.4013170023	-0.7104875812	 0.136241
H	-0.7889865547	 1.1531785101	 1.0546680191	 0.124932
H	 0.8732416737	-2.3917025769	-0.4439429233	 0.261034
H	 1.723450741	-2.1944835418	-1.8950861872	 0.265162
H	 1.1254850348	-0.9635864903	-3.7793217505	 0.077598
H	 1.1777874681	 0.9264121456	-5.3659297117	 0.097941
H	 1.5681937644	 2.0499168757	-4.0223085402	 0.101813
H	 3.6242721842	 0.3557346927	-2.5761853744	 0.096134
H	 3.6071016062	-1.0784275947	-3.6528718887	 0.088214
29.2152	77.8643	111.0101	148.1283	162.3503	206.7089	266.1793	364.7875	389.1059	461.6246	511.7915	522.0886	596.1127	733.9968	765.9428	871.3035	881.5511	910.0737	997.9241	1023.0195	1032.8122	1067.7105	1129.2498	1141.4996	1157.9032	1175.6041	1183.1388	1187.4086	1235.6165	1271.9807	1299.984	1350.1644	1376.4554	1404.9749	1475.2956	1481.877	1502.5296	1503.12	1530.7822	1633.6719	1743.1244	2989.5226	2994.5325	3019.8607	3043.2845	3048.3238	3072.3854	3122.2798	3149.1568	3594.5368	3706.927
COC(N)=NC1COC1	COC(=NC1COC1)N	
InChI=1S/C5H10N2O2/c1-8-5(6)7-4-2-9-3-4/h4H,2-3H2,1H3,(H2,6,7)	InChI=1S/C5H10N2O2/c1-8-5(6)7-4-2-9-3-4/h4H,2-3H2,1H3,(H2,6,7)
