23
gdb 59019	2.90938	1.00635	0.93133	1.1621	88.34	-0.2274	0.0344	0.2618	1422.638	0.20512	-388.312593	-388.302653	-388.301709	-388.347613	37.568	
C	-0.0638406267	 1.4405711323	 0.2098955819	-0.388484
C	-0.0580531827	-0.0704514593	-0.0877942198	-0.085795
C	-1.4966158083	-0.5998304571	-0.2453447198	-0.384306
C	 0.7871866712	-0.4000068364	-1.2906800391	 0.381626
C	 1.8442550577	-1.2149196416	-1.3170483454	-0.195101
C	 2.4735987149	-1.3093505144	-2.6835097046	-0.277929
C	 1.4164217368	-0.6502312348	-3.6086817661	 0.124347
O	 0.5520143001	-1.6174930735	-4.1976046453	-0.440131
C	 0.5420924417	 0.1993694193	-2.6640544648	-0.313038
H	 0.9524889681	 1.8213863919	 0.3509985893	 0.113451
H	-0.5242823102	 2.0042236588	-0.6089519731	 0.11632
H	-0.636131996	 1.6523020615	 1.1190913259	 0.10988
H	 0.391333922	-0.5804794842	 0.7742282672	 0.072014
H	-2.0107017127	-0.114128235	-1.0816643572	 0.117077
H	-1.5020239136	-1.6779201644	-0.4302154536	 0.119617
H	-2.0802114105	-0.4037214991	 0.6604895501	 0.107677
H	 2.2349672377	-1.7441441026	-0.4537856448	 0.080125
H	 3.4325136059	-0.7726926158	-2.7243538144	 0.099728
H	 2.6813450717	-2.3404751614	-2.9984920866	 0.090236
H	 1.8859783311	-0.0397419629	-4.3927676124	 0.056322
H	 1.0942405512	-2.2177951438	-4.7191391162	 0.277522
H	-0.5022351095	 0.1528034625	-2.9892997958	 0.117591
H	 0.8387732102	 1.25613022	-2.6912619054	 0.101251
48.8299	77.9379	156.7685	201.83	228.5508	254.9866	300.1883	302.5942	315.884	401.3815	427.6974	476.6787	544.0091	601.6825	769.3857	813.7719	840.934	868.2515	901.6863	910.6119	928.6647	962.5966	966.4141	974.8429	1027.6879	1047.9409	1073.6186	1117.1386	1160.868	1169.8568	1198.8479	1224.3589	1242.9806	1280.0237	1305.1501	1332.6486	1340.9683	1352.5578	1383.2368	1394.2742	1415.3574	1421.374	1467.915	1478.64	1487.8112	1492.4971	1502.0765	1511.0348	1712.9133	2988.72	3006.0124	3016.3325	3024.9675	3029.2825	3033.7661	3036.8761	3076.3943	3095.4723	3101.4985	3104.3042	3110.7878	3179.4778	3815.2112
CC(C)C1=CCC(O)C1	CC(C)C1=CC[C@@H](O)C1	
InChI=1S/C8H14O/c1-6(2)7-3-4-8(9)5-7/h3,6,8-9H,4-5H2,1-2H3	InChI=1S/C8H14O/c1-6(2)7-3-4-8(9)5-7/h3,6,8-9H,4-5H2,1-2H3/t8-/m1/s1
