18
gdb 17638	3.11519	1.47	1.23027	4.2695	68.2	-0.2372	0.0284	0.2657	1044.1335	0.15337	-381.129667	-381.120494	-381.11955	-381.164202	32.392	
C	-0.3115301323	 1.5581590341	 0.0565566844	-0.391672
C	 0.003629587	 0.0625761334	-0.1001199243	-0.127451
C	-1.2684465252	-0.7721434447	-0.1069950706	 0.055796
C	-1.2780935201	-2.1521015436	 0.4347000633	-0.249298
N	-1.9767106274	-1.063793086	 1.1474011527	-0.329092
C	 0.7360968323	-0.1746394419	-1.4268070804	 0.425667
N	 1.9171382182	-0.8514779936	-1.3381072522	-0.528582
O	 0.2823560265	 0.2114459068	-2.4870989032	-0.374669
H	 0.6053262528	 2.1497695792	 0.1395157851	 0.115933
H	-0.8635509149	 1.9097247849	-0.8183262931	 0.149292
H	-0.9176883743	 1.7332496792	 0.9499661407	 0.117101
H	 0.6297284074	-0.271429438	 0.7389912122	 0.055255
H	-1.9290998874	-0.540447075	-0.9389413221	 0.114299
H	-1.9267574729	-2.9086276457	 0.0029753005	 0.123872
H	-0.3543902361	-2.5408517335	 0.8579697823	 0.099101
H	-1.4150079712	-0.7601143992	 1.9405331085	 0.225973
H	 2.2679091825	-1.2147214848	-0.4703122247	 0.257136
H	 2.4024181151	-1.0775173416	-2.1913837193	 0.261339
39.8224	81.4226	138.4325	161.2462	222.946	240.4469	247.3611	360.1251	394.5769	490.0021	585.0772	624.3468	746.8256	795.8091	820.2475	870.9961	921.4945	959.2544	972.7628	1025.4952	1064.1776	1100.0052	1117.8648	1142.6374	1168.7893	1218.8958	1247.4043	1265.582	1293.6334	1317.7681	1391.6875	1406.8712	1417.7002	1490.025	1502.4434	1510.6056	1617.0401	1793.3344	3005.9244	3043.3941	3102.7686	3112.1403	3132.5979	3144.03	3189.5378	3482.2283	3601.6017	3742.0608
CC(C1CN1)C(N)=O	C[C@@H]([C@H]1CN1)C(=O)N	
InChI=1S/C5H10N2O/c1-3(5(6)8)4-2-7-4/h3-4,7H,2H2,1H3,(H2,6,8)	InChI=1S/C5H10N2O/c1-3(5(6)8)4-2-7-4/h3-4,7H,2H2,1H3,(H2,6,8)/t3-,4+/m0/s1
