19
gdb 9626	3.59461	1.29182	1.24746	3.7365	73.4	-0.2486	0.0047	0.2533	1086.8931	0.163636	-365.069222	-365.060184	-365.05924	-365.102874	32.578	
C	 0.1496835339	 1.4838526984	 0.1365008294	-0.386251
C	-0.035912101	 0.0426812738	-0.3518268483	-0.23056
C	-1.3695233342	-0.5709498178	 0.0479877342	 0.308827
C	-2.6099040444	 0.049024991	-0.5686904481	-0.464333
C	-1.4170539666	-2.0359365587	 0.3997093203	-0.289038
N	-1.438381776	-1.0288836787	 1.436821934	-0.086612
C	-2.4827218041	-0.8572617096	 2.324683257	 0.134502
O	-3.1149765127	-1.7508068221	 2.8348914467	-0.292079
H	 1.1462781469	 1.8535263963	-0.1212254891	 0.119633
H	-0.5793313858	 2.1667050944	-0.3107153404	 0.118403
H	 0.0423079563	 1.5371382449	 1.2246946884	 0.12784
H	 0.0538536894	 0.0004310149	-1.4448344017	 0.101112
H	 0.7658452437	-0.5815172178	 0.0562094131	 0.107393
H	-2.5599202771	-0.0190037399	-1.6604980561	 0.129129
H	-3.5164558656	-0.4647062002	-0.2366844656	 0.135657
H	-2.7061129946	 1.1075196196	-0.3082006977	 0.131019
H	-2.3423278749	-2.5814634189	 0.2303215497	 0.132768
H	-0.51128757	-2.6333406855	 0.3342365173	 0.122146
H	-2.6321248332	 0.2100736759	 2.5790879169	 0.080446
73.4996	101.1146	150.0308	204.5382	227.9092	247.3319	279.6673	339.8964	400.2931	439.0461	476.332	607.2777	726.7429	793.8737	853.4155	894.6028	948.7483	979.5159	1012.0828	1039.6744	1059.2731	1068.9213	1123.6556	1130.8178	1146.1861	1237.3501	1262.3665	1332.636	1357.9153	1407.6499	1410.3948	1414.5707	1429.139	1473.3514	1489.4644	1498.5643	1505.7397	1508.9896	1512.177	1795.0122	2945.1303	3029.2822	3038.0724	3040.5379	3073.326	3103.1644	3105.533	3110.8222	3111.9769	3116.9816	3193.1817
CCC1(C)CN1C=O	CC[C@@]1(C)CN1C=O	
InChI=1S/C6H11NO/c1-3-6(2)4-7(6)5-8/h5H,3-4H2,1-2H3	InChI=1S/C6H11NO/c1-3-6(2)4-7(6)5-8/h5H,3-4H2,1-2H3/t6-,7?/m0/s1
