13
gdb 129725	2.44571	1.91679	1.07483	3.1885	70.51	-0.2129	-0.0698	0.1431	1009.5576	0.088306	-486.033182	-486.025119	-486.024174	-486.065515	30.226	
N	 0.0420958144	 1.3563480731	-0.088630335	-0.58554
C	-0.0080540252	 0.010875667	-0.0190583717	 0.185213
C	-1.1438947262	-0.7360970533	 0.07797749	 0.370771
O	-2.3663811272	-0.1428548793	 0.0830969986	-0.439144
N	-1.1093866931	-2.0924574517	 0.1770147698	-0.185133
N	-0.0828655814	-2.78514341	 0.1856024265	-0.010574
O	 1.1912452206	-2.0644316638	 0.0739942052	-0.287854
C	 1.2616494785	-0.7117625411	-0.0347395309	 0.409154
N	 2.3564359728	-0.0703056436	-0.1504359922	-0.564457
H	 0.9457894563	 1.7614690809	-0.279832954	 0.28819
H	-0.7979429435	 1.8860076241	-0.2413108365	 0.27821
H	-3.0281300551	-0.8421524197	 0.1545092167	 0.30865
H	 3.1589988791	-0.6979427126	-0.1517053665	 0.232514
112.479	158.2293	236.9428	272.9991	301.9478	326.8613	351.4388	467.7996	516.0356	527.5	533.231	556.9498	639.6831	648.2561	756.5301	769.4724	832.5887	898.8713	973.4762	1076.1808	1155.4506	1270.927	1329.0456	1383.2732	1454.4525	1539.4031	1604.7198	1705.8526	1728.6173	3510.187	3589.0722	3734.3997	3798.9118
NC1=C(O)N=NOC1=N	NC1=C(O[N]N=C1O)[NH]	
InChI=1S/C3H4N4O2/c4-1-2(5)9-7-6-3(1)8/h5,8H,4H2	InChI=1S/C3H4N4O2/c4-1-2(5)9-7-6-3(1)8/h5,8H,4H2
