21
gdb 60858	2.20901	1.31335	1.11164	3.2935	78.39	-0.2393	-0.0202	0.2191	1225.2387	0.179782	-424.226921	-424.216872	-424.215928	-424.262696	36.782	
C	 0.0936367088	 1.4361082183	-0.2248051966	-0.447067
C	-0.0768779717	-0.0823195887	-0.0558369597	-0.098563
C	 0.7509749644	-0.5666021815	 1.1216018517	 0.164066
O	 1.569021493	-1.4498791125	 1.0662190714	-0.258571
C	-1.5588276505	-0.4875505255	 0.1574133426	 0.400823
O	-2.1027696634	 0.1411479332	 1.3050486887	-0.484299
C	-2.4105708678	-0.419483714	-1.1496666825	-0.286839
C	-2.2518430518	-1.9568142939	-1.2959150375	-0.214442
C	-1.7834772449	-2.0227661565	 0.1823862161	-0.267731
H	 1.1233518256	 1.6879132893	-0.493665926	 0.135017
H	-0.5597972299	 1.8217815025	-1.0137113666	 0.127571
H	-0.1395858034	 1.9700588337	 0.7034847207	 0.121194
H	 0.2981551114	-0.6031350822	-0.9432855962	 0.094257
H	 0.5359261288	-0.0414033645	 2.0785601708	 0.084542
H	-2.1732850239	 1.0859596457	 1.1311131136	 0.279052
H	-3.4376303822	-0.1341463212	-0.9064793773	 0.106372
H	-2.0480485181	 0.2110804269	-1.9660847138	 0.095073
H	-3.1493814441	-2.5207811289	-1.5550245564	 0.104813
H	-1.4602452856	-2.2301481187	-1.9979437198	 0.110167
H	-0.9207863604	-2.6489996333	 0.4179470071	 0.119781
H	-2.6003689043	-2.2617586484	 0.8666527899	 0.114785
27.1981	76.2221	118.9263	195.151	206.7621	244.3529	277.5148	286.845	341.7624	398.6679	424.99	470.5906	528.4004	666.3475	733.1649	791.3017	835.1431	885.8516	911.4183	939.9357	954.2913	972.555	1001.0099	1039.4962	1046.9369	1112.1545	1125.0644	1161.1387	1198.5172	1202.0629	1251.8047	1269.7937	1279.3714	1285.1421	1299.6618	1321.1791	1366.5101	1400.348	1422.3224	1470.582	1483.4133	1499.0844	1504.6896	1505.2036	1825.5886	2888.1781	3031.8265	3053.4036	3058.4309	3069.824	3075.1563	3098.1535	3105.3163	3111.6147	3120.9562	3136.2252	3807.5835
CC(C=O)C1(O)CCC1	C[C@@H](C=O)C1(O)CCC1	
InChI=1S/C7H12O2/c1-6(5-8)7(9)3-2-4-7/h5-6,9H,2-4H2,1H3	InChI=1S/C7H12O2/c1-6(5-8)7(9)3-2-4-7/h5-6,9H,2-4H2,1H3/t6-/m0/s1
