23
gdb 101236	3.69831	0.76232	0.6843	1.475	82.3	-0.2554	0.0672	0.3227	1711.0911	0.20415	-425.417273	-425.406865	-425.405921	-425.452929	38.769	
C	-0.003022025	 1.588581984	-0.0266497851	-0.381837
C	-0.0429527266	 0.0599977344	-0.0895137265	-0.188138
C	 0.7850552747	-0.5195812937	-1.2437787488	 0.122369
O	 2.1527877447	-0.115829823	-1.1650429641	-0.432922
C	 0.6698087959	-2.0356766893	-1.3458383812	 0.022265
C	-0.6724470856	-2.6615846004	-1.8249779943	-0.288955
C	 0.1613605648	-3.7009992944	-2.6221764451	 0.167839
O	-0.2885675579	-4.1657787666	-3.8683727788	-0.432602
C	 1.3792680628	-2.7454087738	-2.5321520941	-0.285175
H	 1.0291274122	 1.9433333134	 0.0341122191	 0.127733
H	-0.4522572396	 2.0304825391	-0.9230427778	 0.113224
H	-0.5513718607	 1.9657049735	 0.841751454	 0.108323
H	 0.3327450559	-0.3642347135	 0.8536712132	 0.082928
H	-1.0788079723	-0.288392628	-0.1865441128	 0.101913
H	 0.4327264392	-0.07966398	-2.1875223616	 0.074494
H	 2.5198471967	-0.4908031085	-0.3563011327	 0.274983
H	 0.9773581608	-2.485382464	-0.3921615376	 0.060242
H	-1.3841173199	-3.0258631619	-1.0808255767	 0.101198
H	-1.1960463109	-1.9817374913	-2.5090389119	 0.090213
H	 0.3283128587	-4.5999975658	-2.0207838183	 0.091849
H	-0.4162562171	-3.4018398188	-4.4407476611	 0.274961
H	 1.4229747119	-2.0831732119	-3.405328874	 0.094216
H	 2.3695300974	-3.1773040396	-2.3751570838	 0.10088
65.7657	75.5841	113.5009	142.8363	215.8387	250.3327	288.6799	296.7583	317.74	369.1742	385.0051	455.1194	476.9601	510.4793	637.2792	770.3937	802.7516	809.2267	890.2347	926.9589	955.0979	983.0238	1025.2783	1042.1975	1050.8822	1064.7242	1084.725	1115.2943	1124.66	1157.4167	1178.2148	1212.5673	1250.0105	1258.278	1264.7296	1289.672	1293.1264	1330.1837	1336.5554	1377.642	1397.9208	1405.8742	1420.1089	1441.1112	1469.9333	1481.4582	1495.3965	1498.1858	1509.3617	2997.8351	3006.8391	3022.2237	3031.5057	3036.971	3041.5637	3052.1481	3065.9179	3101.0615	3105.9833	3113.5062	3122.0203	3793.0805	3806.3705
CCC(O)C1CC(O)C1	CC[C@@H](O)[C@H]1C[C@@H](O)C1	
InChI=1S/C7H14O2/c1-2-7(9)5-3-6(8)4-5/h5-9H,2-4H2,1H3	InChI=1S/C7H14O2/c1-2-7(9)5-3-6(8)4-5/h5-9H,2-4H2,1H3/t5-,6+,7-/m1/s1
