18
gdb 53795	2.83254	1.26401	1.00713	0.9413	73.97	-0.248	-0.0851	0.1628	1220.6435	0.1447	-439.094344	-439.084534	-439.08359	-439.129882	34.668	
C	 0.3107870425	 1.3388244185	-0.015655177	-0.478031
C	-0.0543153734	-0.0326460586	 0.4939682928	 0.310244
O	 0.2954306014	-0.474509184	 1.5630430567	-0.277085
C	-1.0037245231	-0.8524824731	-0.4135584938	 0.2249
O	-1.7340229926	-0.2456491388	-1.1728967042	-0.317228
C	-1.0606755454	-2.3472275983	-0.2832089779	 0.230913
C	 0.1727006283	-3.1199995565	 0.1360238964	-0.480566
C	-2.4321998962	-2.8507754782	 0.0794571022	-0.242741
N	-1.9268043017	-3.0041313609	-1.2777034257	-0.337934
H	 0.8900912736	 1.8702854596	 0.7394355809	 0.143753
H	 0.8954222246	 1.246774259	-0.9385740539	 0.150562
H	-0.5944521887	 1.8918103605	-0.27939555	 0.167036
H	 0.4690072079	-2.8720872682	 1.1554845048	 0.15203
H	-0.0401216427	-4.1890496728	 0.0657417574	 0.13247
H	 1.0160618886	-2.9080825925	-0.5303226985	 0.118869
H	-2.4960873882	-3.7627579538	 0.6670887277	 0.128623
H	-3.2109936018	-2.1172185835	 0.2693710272	 0.127582
H	-2.3340546432	-2.2744964584	-1.8635567952	 0.2466
41.1958	57.1653	124.3103	158.3338	213.4614	231.7598	294.2492	331.8207	342.1882	383.9133	406.2396	537.4157	590.9831	646.809	736.7955	815.4027	836.9242	912.6221	943.5532	1002.4654	1028.1435	1045.7228	1050.8858	1110.465	1112.1378	1144.8456	1237.8399	1297.6324	1344.2852	1359.4232	1380.9346	1414.6086	1455.6368	1461.1608	1486.8582	1500.591	1502.3207	1756.4228	1806.8672	3045.2726	3045.4191	3107.4741	3113.5181	3114.3843	3155.6842	3164.6902	3199.4232	3465.6802
CC(=O)C(=O)C1(C)CN1	CC(=O)C(=O)[C@@]1(C)CN1	
InChI=1S/C6H9NO2/c1-4(8)5(9)6(2)3-7-6/h7H,3H2,1-2H3	InChI=1S/C6H9NO2/c1-4(8)5(9)6(2)3-7-6/h7H,3H2,1-2H3/t6-/m1/s1
