16
gdb 86850	3.04424	1.21084	1.01201	6.6578	69.98	-0.2673	0.0031	0.2703	1168.4311	0.126805	-434.094162	-434.086116	-434.085172	-434.127025	30.298	
N	-0.0204138839	 1.0648745302	-0.1240687958	-0.542735
H	-0.1836837874	 0.1017687413	-0.4037619956	 0.243313
H	 1.4898289738	 1.0144488037	 1.4249303235	 0.30803
H	-0.2548387902	 1.6552381935	-0.9135196793	 0.250813
C	-0.7991202577	 1.4097855489	 1.0597421766	-0.090595
C	-2.2203297003	 0.8580919592	 1.2707343859	-0.264003
C	-2.2631722293	 0.6868878518	 2.8233342382	-0.132688
N	-0.8694110267	 0.4847429443	 3.2695930316	-0.265069
C	-0.1207934843	 0.8649109106	 2.3127130597	 0.417779
O	 1.2075134217	 0.8123925233	 2.336060521	-0.390835
C	-2.8516209233	 1.8688112956	 3.4758439546	 0.289389
N	-3.3201520398	 2.806803019	 3.9619649641	-0.326778
H	-0.7999994303	 2.505180495	 1.1341035129	 0.130642
H	-3.0150247133	 1.4961239222	 0.8817239208	 0.129561
H	-2.3062861293	-0.130085718	 0.8060508608	 0.111259
H	-2.8649213497	-0.1790960007	 3.1170354611	 0.131918
74.3669	120.0637	209.1493	272.8701	313.6769	323.413	392.7408	461.5995	490.8821	572.4386	625.651	686.9714	697.6701	765.916	803.5138	825.1509	864.0271	964.3716	1006.3341	1015.1416	1046.3963	1131.8803	1165.6022	1201.0877	1256.1486	1291.2186	1311.6959	1314.3876	1347.4742	1405.8823	1437.7724	1486.0663	1661.5632	1759.3265	2355.4112	3031.9163	3052.0369	3063.1414	3129.4674	3502.8043	3592.7011	3630.9509
[NH3+]C1CC([N-]C1=O)C#N	N[C@H]1C[C@@H]([N][C]1O)C#N	
InChI=1S/C5H7N3O/c6-2-3-1-4(7)5(9)8-3/h3-4H,1,7H2,(H,8,9)	InChI=1S/C5H7N3O/c6-2-3-1-4(7)5(9)8-3/h3-4H,1,7H2,(H,8,9)/t3-,4+/m1/s1
