23
gdb 114888	3.04867	1.18434	1.05878	1.3513	84.65	-0.238	0.0768	0.3148	1278.1822	0.207596	-388.295354	-388.286664	-388.28572	-388.328996	33.653	
C	 0.2080588936	 1.3181233582	-0.2491286696	-0.382324
C	 0.0265655515	-0.175173377	 0.0420056809	-0.185983
C	-1.4356516762	-0.6026670631	 0.0602587777	 0.026258
C	-2.246193162	-0.6017600243	-1.2727688329	-0.264919
C	-2.7526026291	-2.0435676244	-0.9653839189	-0.026505
C	-2.2875392569	-3.1601771071	-1.9022428353	-0.234404
C	-0.8092129936	-3.3170685442	-1.5136578103	-0.082752
O	-0.7370038138	-3.0319834584	-0.1187716118	-0.258008
C	-1.7651704764	-2.1184549074	 0.2382009228	 0.080595
H	 1.2672237036	 1.5933227692	-0.2716067175	 0.110659
H	-0.2257772393	 1.5908605591	-1.2176112135	 0.115107
H	-0.2800679376	 1.9341009447	 0.5146205461	 0.111043
H	 0.5709125878	-0.7665089754	-0.7035492596	 0.100655
H	 0.4833396191	-0.4228937609	 1.0085250832	 0.098282
H	-1.9717882619	-0.0294026251	 0.8266941699	 0.063512
H	-3.0209648246	 0.1625350437	-1.3652219976	 0.097229
H	-1.6137252833	-0.5510058389	-2.1659209953	 0.092208
H	-3.8133336431	-2.1013553628	-0.7177344153	 0.068776
H	-2.8346688974	-4.0851360443	-1.6923324033	 0.104574
H	-2.418335412	-2.9188929796	-2.9612767818	 0.10055
H	-0.4188315812	-4.3271069256	-1.6686557314	 0.106565
H	-0.1780682909	-2.6198101425	-2.0862482685	 0.089446
H	-2.1356399466	-2.4154793238	 1.2233456523	 0.069437
77.1152	85.3763	152.8868	219.3329	230.6264	289.413	359.0242	396.006	501.6494	631.9465	648.3407	746.2843	767.5303	785.1732	848.4598	854.9387	901.9563	928.87	950.6269	955.6202	970.591	988.2614	1009.6934	1042.8191	1071.715	1123.2649	1142.1322	1151.7841	1159.9663	1200.9484	1224.7494	1234.7386	1258.5001	1273.5512	1282.5558	1288.8181	1305.5865	1332.7528	1339.1566	1360.4444	1386.0681	1398.4171	1409.6655	1480.8298	1484.8775	1489.005	1499.227	1506.4268	1526.1009	2981.1183	3022.5797	3027.1534	3028.8825	3043.0933	3046.9599	3059.3904	3064.8032	3080.7814	3093.1009	3095.0138	3097.9402	3099.8649	3109.7949
CCC1CC2CCOC12	CC[C@H]1C[C@H]2CCO[C@@H]12	
InChI=1S/C8H14O/c1-2-6-5-7-3-4-9-8(6)7/h6-8H,2-5H2,1H3	InChI=1S/C8H14O/c1-2-6-5-7-3-4-9-8(6)7/h6-8H,2-5H2,1H3/t6-,7+,8-/m0/s1
