19
gdb 7187	3.14931	1.24504	1.02327	2.8587	70.87	-0.2529	0.0221	0.275	1201.7022	0.1631	-402.185397	-402.17566	-402.174716	-402.22077	33.293	
C	 0.1863994953	 0.6900860863	 0.6916782756	-0.241621
O	-0.4563951219	 0.2592974468	-0.4976438916	-0.236862
C	-1.5320772374	-0.6279415116	-0.3060054721	-0.079039
C	-1.1279693518	-2.1009583336	-0.1787669573	 0.102278
C	-0.1736031311	-2.5532520588	-1.2790368393	-0.386094
O	-0.5187946096	-2.2753874897	 1.113934409	-0.194353
C	-0.6370006772	-3.4808042136	 1.6983455601	 0.129538
N	-0.0242140043	-3.7294797518	 2.7737408672	-0.444586
H	 0.9085355633	 1.4549423148	 0.395288157	 0.122702
H	-0.5358912655	 1.1367132078	 1.3914926757	 0.105556
H	 0.7058139204	-0.1263346298	 1.2040884863	 0.140015
H	-2.1275783907	-0.3455471591	 0.575461686	 0.098056
H	-2.1701839549	-0.5342389367	-1.1931231248	 0.106608
H	-2.0537760044	-2.6957499144	-0.2105991967	 0.079795
H	 0.1085898385	-3.6011043259	-1.1430842598	 0.117275
H	-0.6489007429	-2.4498445299	-2.2595935163	 0.121001
H	 0.7280195911	-1.9378123845	-1.2683775547	 0.148488
H	-1.308489758	-4.1638486903	 1.1575218484	 0.08303
H	-0.2477522489	-4.670840736	 3.0896996772	 0.228215
61.6472	69.047	100.1942	121.4308	177.5732	212.3294	244.5877	288.6613	330.9287	415.0833	442.3776	579.7715	665.1864	815.9162	840.3883	905.6868	930.3534	963.9889	1044.4977	1054.0894	1104.2006	1135.8551	1145.8611	1176.1992	1185.4168	1230.6969	1295.9059	1323.3293	1358.8972	1374.5383	1398.5949	1421.3067	1426.312	1467.929	1482.1489	1488.4121	1491.6124	1495.8774	1516.3151	1743.6555	2984.1979	2992.7588	2998.9944	3010.3295	3046.9126	3060.6203	3075.6283	3114.7214	3120.6659	3142.8019	3518.2265
COCC(C)OC=N	COC[C@@H](C)O[CH][NH]	
InChI=1S/C5H11NO2/c1-5(3-7-2)8-4-6/h4-6H,3H2,1-2H3	InChI=1S/C5H11NO2/c1-5(3-7-2)8-4-6/h4-6H,3H2,1-2H3/t5-/m1/s1
