18
gdb 121607	3.29787	0.86295	0.69924	2.6414	72.28	-0.2279	-0.0132	0.2147	1566.1898	0.147496	-472.442394	-472.432319	-472.431374	-472.478503	35.679	
N	 0.0426813417	 1.1906610823	-0.1722978366	-0.521869
C	 0.0048237132	-0.1355757597	 0.0566201508	 0.40043
O	 0.967506263	-0.8430133326	 0.307828439	-0.388309
C	-1.4085448345	-0.7176106955	-0.022968415	 0.285774
N	-2.3885244704	 0.0864539212	-0.2300783577	-0.568869
N	-1.3911984534	-2.061387352	 0.1374260539	-0.313581
C	-2.5626531389	-2.8959552205	 0.2367781859	-0.137429
C	-2.1867710617	-4.3491082596	-0.0136738308	-0.091235
O	-1.2116499551	-4.7039678839	 0.9553174904	-0.414393
H	 0.9155366918	 1.6847672344	-0.1109688972	 0.262394
H	-0.8329337544	 1.6647885976	-0.3348053142	 0.280772
H	-3.2906975115	-0.3880061568	-0.2441153516	 0.208859
H	-0.5006177669	-2.4493748726	 0.4228904321	 0.269687
H	-3.039628349	-2.8094106265	 1.2252066519	 0.118902
H	-3.3016889451	-2.5887324277	-0.5135278078	 0.111366
H	-3.0878842637	-4.9751841934	 0.0692650572	 0.097148
H	-1.790143629	-4.4506716685	-1.0343937513	 0.104009
H	-0.8250662459	-5.5488972261	 0.709129401	 0.296342
41.142	85.6693	91.5083	104.6237	192.8416	261.0569	295.84	316.9881	329.0025	396.3698	479.5694	488.7152	555.1487	627.1139	651.1179	671.0623	816.1374	833.2918	844.0229	902.9991	928.4858	1070.3886	1098.3726	1107.2913	1126.8516	1196.5524	1220.5382	1260.7547	1283.3398	1310.7287	1375.0223	1406.9311	1458.1693	1499.4466	1514.9902	1548.7252	1582.2614	1707.4654	1797.7281	2984.7687	2987.4724	3025.4298	3050.3602	3482.1523	3577.6965	3580.412	3736.1389	3840.6606
NC(=O)C(=N)NCCO	NC(=O)C(=N)NCCO	
InChI=1S/C4H9N3O2/c5-3(4(6)9)7-1-2-8/h8H,1-2H2,(H2,5,7)(H2,6,9)	InChI=1S/C4H9N3O2/c5-3(4(6)9)7-1-2-8/h8H,1-2H2,(H2,5,7)(H2,6,9)
