19
gdb 58844	3.11184	1.27712	1.18769	1.55	75.4	-0.2407	0.0062	0.2469	1132.8867	0.158131	-423.014955	-423.006296	-423.005352	-423.048198	33.238	
C	 0.2856136093	 1.3797153991	 0.2635388377	-0.423203
C	-0.0964218643	-0.0744492738	-0.0195546049	 0.033038
O	-1.5070919551	-0.2443150533	-0.1301640657	-0.440737
C	 0.5000666412	-0.5661598718	-1.3190345188	 0.449639
C	 0.0284681972	-0.0155540675	-2.6661233601	-0.335503
C	 0.3280012608	-1.148897784	-3.6252917089	-0.078915
C	 0.8287948659	-2.2206132861	-3.0052248487	-0.076
C	 0.9828253421	-1.9401655948	-1.5477723284	-0.084292
O	 1.9013489235	-0.8488802327	-1.2669907798	-0.317533
H	 1.3738567534	 1.4846873815	 0.2978872096	 0.140661
H	-0.109562482	 2.0426136852	-0.512293133	 0.125199
H	-0.1155907205	 1.7049740168	 1.2304293305	 0.1051
H	 0.3078394563	-0.7086511366	 0.7846628667	 0.071239
H	-1.9176683949	 0.1998743057	 0.6181432542	 0.284542
H	-1.0406526562	 0.2226553053	-2.6291690716	 0.131073
H	 0.5615025224	 0.9030301183	-2.9389274768	 0.118309
H	 0.1686056704	-1.0592146567	-4.6940956693	 0.100603
H	 1.1161216223	-3.1555664828	-3.469411857	 0.100841
H	 0.9595423683	-2.7198633616	-0.7922960157	 0.095939
61.4182	139.7129	200.2329	250.8787	258.1234	287.8817	325.5833	374.0199	472.8669	503.7535	543.0702	628.3657	720.1833	739.9035	810.8118	883.3222	890.6055	912.9969	942.4369	951.7008	980.096	1008.3912	1014.82	1064.9256	1095.2273	1128.9283	1140.143	1168.7813	1200.5751	1255.7942	1279.1502	1329.2359	1362.3275	1371.9955	1389.3623	1401.9467	1453.8378	1466.516	1492.3065	1506.3534	1662.3293	2980.5661	3030.1957	3038.2992	3076.2472	3098.946	3122.0019	3160.7862	3190.3498	3220.8057	3822.2508
CC(O)C12CC=CC1O2	C[C@@H](O)[C@]12CC=C[C@H]1O2	
InChI=1S/C7H10O2/c1-5(8)7-4-2-3-6(7)9-7/h2-3,5-6,8H,4H2,1H3	InChI=1S/C7H10O2/c1-5(8)7-4-2-3-6(7)9-7/h2-3,5-6,8H,4H2,1H3/t5-,6-,7-/m1/s1
