16
gdb 84469	4.20282	1.20515	1.05415	1.9475	77.05	-0.2356	-0.0112	0.2244	1120.8598	0.124345	-400.687535	-400.67972	-400.678776	-400.719611	30.867	
O	-0.0093228813	 1.4484562061	-0.049643553	-0.434829
C	 0.0628437775	 0.0339795521	-0.0398804987	 0.094734
C	 0.7287332009	-0.5138981178	 1.2171319181	-0.119712
C	-0.0699874441	-1.3213534655	 1.9122704271	-0.146224
C	-1.4038943156	-1.4617280617	 1.2324219176	 0.19427
N	-2.1121069729	-0.1315980543	 1.1408114159	-0.384809
C	-1.3225207819	-0.6259522359	-0.0007846543	-0.133848
C	-2.1766404494	-2.6614279867	 1.3266245692	 0.166425
C	-2.8258522067	-3.6687072161	 1.4321888138	-0.386573
H	-0.6372725389	 1.6737275504	 0.6511085842	 0.290446
H	 0.6099360769	-0.242714781	-0.9478651804	 0.094421
H	 1.717126592	-0.1851869127	 1.515855634	 0.111172
H	 0.1503240943	-1.8040153274	 2.8560805634	 0.113263
H	-3.0994079136	-0.3064916443	 0.957420505	 0.240985
H	-1.830407121	-0.9069690893	-0.9156650841	 0.105965
H	-3.3948819664	-4.5613912358	 1.5159419122	 0.194314
111.988	136.2351	191.4659	281.7212	405.1971	422.6556	484.9726	503.4957	520.5162	580.7775	601.5075	614.0695	665.493	717.8467	762.9735	825.0843	855.458	885.0132	946.0428	972.6018	1000.9212	1011.1149	1065.6487	1084.1653	1120.8893	1159.2244	1254.6432	1265.6048	1305.512	1323.4507	1352.0785	1406.1532	1441.1885	1671.5735	2237.6661	3052.8789	3187.1126	3199.6698	3224.5964	3481.0291	3502.1385	3748.7492
OC1C=CC2(NC12)C#C	O[C@H]1C=C[C@]2(N[C@@H]12)C#C	
InChI=1S/C7H7NO/c1-2-7-4-3-5(9)6(7)8-7/h1,3-6,8-9H	InChI=1S/C7H7NO/c1-2-7-4-3-5(9)6(7)8-7/h1,3-6,8-9H/t5-,6-,7+/m0/s1
