19
gdb 107360	3.41879	1.15577	0.9764	4.383	74.9	-0.2678	0.0106	0.2784	1246.5032	0.159263	-423.065665	-423.057318	-423.056374	-423.098809	31.893	
C	 0.0511310483	 1.5411908482	 0.4131636946	-0.376159
C	 0.034586482	 0.0696957177	-0.0192988676	-0.280985
C	-1.3614516547	-0.4952799156	-0.1685204057	 0.3296
C	-2.1031902335	-1.0276629463	 1.0502243007	-0.358668
C	-1.6645823055	-1.9647419187	-0.037610288	 0.044081
O	-2.6537000633	-2.3454642249	-0.9739668501	-0.218461
C	-3.0512705355	-1.2712576911	-1.7232137516	 0.427635
O	-3.9092860629	-1.3540226503	-2.5497114682	-0.327064
C	-2.2440110762	-0.0337037205	-1.313757661	-0.449736
H	 1.0767303208	 1.9055549095	 0.5234724207	 0.117679
H	-0.4504536237	 2.1785775049	-0.3225384444	 0.122313
H	-0.4601333129	 1.6751568875	 1.3720768697	 0.121664
H	 0.570646556	-0.040994134	-0.9713717256	 0.102905
H	 0.5865335818	-0.531853135	 0.7136361415	 0.099308
H	-1.5538023757	-1.0559595709	 1.9854140129	 0.121733
H	-3.1678955351	-0.8415750644	 1.1530593308	 0.126076
H	-0.9191257966	-2.7353050841	 0.1147027721	 0.114937
H	-2.9363020771	 0.7766019921	-1.0690811894	 0.143851
H	-1.6549947064	 0.2947577259	-2.1774331213	 0.139292
86.5716	104.7559	162.3206	220.7807	288.6921	342.6783	376.2049	450.02	484.0339	560.1241	617.8764	686.7639	738.5962	791.4557	823.6681	876.9834	908.4486	923.8599	968.8746	1004.4841	1024.9735	1036.774	1062.5563	1091.1257	1122.9876	1135.1536	1159.4604	1183.2012	1241.6715	1263.968	1309.2537	1350.7802	1368.3323	1405.7073	1412.8645	1459.2464	1477.3268	1488.4583	1499.0499	1506.9987	1888.4232	3015.3899	3036.2571	3050.3891	3053.7288	3098.3893	3105.0204	3109.9541	3125.3776	3192.3843	3216.1923
CCC12CC1OC(=O)C2	CC[C@]12C[C@H]1OC(=O)C2	
InChI=1S/C7H10O2/c1-2-7-3-5(7)9-6(8)4-7/h5H,2-4H2,1H3	InChI=1S/C7H10O2/c1-2-7-3-5(7)9-6(8)4-7/h5H,2-4H2,1H3/t5-,7-/m1/s1
