23
gdb 100064	2.4033	1.25461	1.19158	1.6733	81.66	-0.2374	0.0784	0.3158	1242.2488	0.203141	-425.402517	-425.392016	-425.391072	-425.438205	38.306	
C	-0.169453049	 1.216074517	 0.2060084629	-0.241346
O	 0.1817048901	-0.1396988037	 0.0591803659	-0.280938
C	 0.7452394577	-0.5619582344	-1.1884001689	 0.330426
C	-0.1498147957	-0.1856720486	-2.3775439556	-0.432012
C	 2.1696231592	-0.009415757	-1.3561092551	-0.429128
C	 0.8105594325	-2.0940021039	-1.0841205578	 0.154787
C	 1.2586000525	-2.7043897395	 0.2635338467	-0.293923
C	-0.1814029222	-3.2478060354	 0.3276805548	-0.058641
O	-0.4948845532	-2.7003048539	-0.9706509925	-0.298989
H	 0.6746838004	 1.8988533135	 0.0318495789	 0.102282
H	-0.9962951597	 1.512957469	-0.453505813	 0.110521
H	-0.497686107	 1.338672774	 1.2417300637	 0.124996
H	-0.2017899791	 0.89766953	-2.5177241065	 0.10914
H	 0.2504798724	-0.6172289763	-3.3002385598	 0.11372
H	-1.1570046525	-0.5784590313	-2.2228681836	 0.143763
H	 2.7921295268	-0.2778732693	-0.4974407757	 0.121838
H	 2.6362406516	-0.4099047145	-2.2614145385	 0.116329
H	 2.1656694755	 1.0803108029	-1.4474119006	 0.117277
H	 1.3411245513	-2.4758420249	-1.9671360921	 0.066012
H	 2.0374677764	-3.4640806808	 0.1844240658	 0.101275
H	 1.5185142053	-1.9781211619	 1.0319793675	 0.120813
H	-0.2854715581	-4.3393668158	 0.3425997254	 0.095239
H	-0.8108274551	-2.8124960552	 1.1118986778	 0.106562
49.5547	87.3317	102.7985	179.2696	196.5488	211.817	238.4373	270.8698	315.4664	341.4032	367.5288	419.193	493.6305	578.0339	702.8503	791.6111	810.0426	870.604	920.4705	927.8039	953.1407	972.3141	1009.3966	1036.6462	1052.277	1091.211	1129.6277	1164.9678	1177.7209	1188.7119	1199.6172	1218.2503	1232.1467	1261.7075	1273.13	1292.5709	1363.2278	1381.0145	1390.0777	1409.4819	1473.4851	1478.5677	1480.2616	1483.2515	1496.4243	1503.9394	1508.5763	1514.6428	1523.5564	2990.512	3004.7144	3021.7785	3036.8699	3043.7537	3047.5647	3065.1947	3089.9904	3104.2212	3107.2359	3113.04	3115.7537	3136.8637	3155.6996
COC(C)(C)C1CCO1	COC(C)(C)[C@H]1CCO1	
InChI=1S/C7H14O2/c1-7(2,8-3)6-4-5-9-6/h6H,4-5H2,1-3H3	InChI=1S/C7H14O2/c1-7(2,8-3)6-4-5-9-6/h6H,4-5H2,1-3H3/t6-/m1/s1
