18
gdb 46330	3.12038	1.28023	1.1711	3.0242	72.08	-0.2486	0.0301	0.2788	1106.8288	0.149449	-439.108514	-439.100358	-439.099413	-439.142617	29.818	
O	-0.2736276961	 0.0470936493	 0.1224886807	-0.368551
C	-0.155942551	 1.2416607737	 0.0501478575	 0.381643
N	-1.0524660965	 2.2761645771	-0.0425032463	-0.333891
C	-0.0516880972	 3.3488103347	-0.009617741	-0.219115
C	 1.0379772218	 2.2291984196	 0.0259624849	 0.184577
C	 2.0242392789	 2.1878991744	 1.2132967762	-0.326553
C	 3.4140134471	 2.3635672718	 0.5467032083	-0.075662
O	 3.1642299472	 2.7891466988	-0.7860704054	-0.242817
C	 1.9762594476	 2.1298474544	-1.1855557155	-0.155002
H	-2.060886375	 2.2904824301	-0.0110455435	 0.2526
H	-0.0455501105	 3.9857385939	-0.8999709628	 0.11585
H	-0.097333254	 3.9730627528	 0.8887677757	 0.112406
H	 1.8119407968	 2.9828434592	 1.9320519451	 0.112341
H	 1.9524888167	 1.2324798662	 1.739494225	 0.130442
H	 4.0392762663	 3.1196092464	 1.0279432819	 0.111007
H	 3.9622288132	 1.4092116113	 0.5467463716	 0.098985
H	 2.1669573621	 1.067986182	-1.4134731991	 0.108516
H	 1.5954906127	 2.6194749943	-2.0851022332	 0.113224
24.9401	95.2216	160.0796	199.7619	272.3253	329.5787	404.9111	471.255	605.606	673.8197	723.5198	734.304	801.9107	823.7956	906.616	936.4228	970.3234	979.7286	993.655	1015.9041	1101.9536	1125.0284	1150.3711	1166.7041	1190.157	1192.3925	1242.6463	1256.9041	1282.899	1299.5225	1316.9938	1357.0601	1389.8969	1402.5662	1486.5762	1503.7271	1522.3002	1529.7242	1889.7333	2972.5235	2988.6324	3036.5484	3065.7617	3084.5195	3091.7417	3099.974	3115.1318	3615.0047
O=C1NCC11CCOC1	O=C1NC[C@]21CCOC2	
InChI=1S/C6H9NO2/c8-5-6(3-7-5)1-2-9-4-6/h1-4H2,(H,7,8)	InChI=1S/C6H9NO2/c8-5-6(3-7-5)1-2-9-4-6/h1-4H2,(H,7,8)/t6-/m1/s1
