17
gdb 24435	3.46168	1.62821	1.15194	3.2681	74.44	-0.1739	0.0419	0.2158	1024.2295	0.141637	-414.21597	-414.209009	-414.208065	-414.247131	28.121	
C	-0.0354290564	 1.4197063137	 0.1180922393	-0.178212
C	 1.4156583445	 1.961841692	 0.0288990722	-0.166606
N	 2.3171012026	 1.3999332792	 1.0377478814	-0.392243
C	 1.9922233589	 0.0714245434	 1.3455191695	 0.284841
C	 0.9311003261	-0.5951122233	 0.7877791872	 0.255582
N	 0.9800460026	-1.8673701311	 1.330528402	-0.333844
C	 2.0567620575	-1.8921972076	 2.1710465664	-0.00774
N	 2.688193081	-0.7374783175	 2.207831572	-0.332559
N	-0.1052400367	-0.0481278268	 0.0103935803	-0.399178
H	-0.4726529142	 1.7072931616	 1.0814233307	 0.114198
H	-0.6486967972	 1.8587108367	-0.6738306504	 0.102986
H	 1.8101943277	 1.718167272	-0.9675660735	 0.104461
H	 1.4166330917	 3.0520517497	 0.1176336466	 0.104398
H	 2.4147359424	 1.9775424458	 1.863507945	 0.23294
H	 0.3351564771	-2.6167448369	 1.1464247302	 0.260902
H	 2.3424859013	-2.7824611861	 2.7102810129	 0.123327
H	-0.0486512789	-0.330892095	-0.9647127618	 0.226747
117.5228	230.7062	323.8826	341.2055	409.1914	455.6286	473.0937	527.1074	604.1389	652.8679	703.5172	721.3826	755.8258	772.9055	819.4219	867.4789	950.5079	957.8081	1037.7037	1045.1097	1109.5622	1133.1984	1184.1579	1260.5602	1266.133	1279.6421	1317.6371	1367.014	1386.5629	1387.905	1444.5315	1451.3354	1472.4911	1482.9825	1497.4367	1534.0238	1660.0906	3006.1454	3038.5934	3088.3584	3097.6722	3253.9979	3467.0533	3546.4733	3670.7092
C1CNC2=C(NC=N2)N1	C1CNc2c([nH]cn2)N1	
InChI=1S/C5H8N4/c1-2-7-5-4(6-1)8-3-9-5/h3,6-7H,1-2H2,(H,8,9)	InChI=1S/C5H8N4/c1-2-7-5-4(6-1)8-3-9-5/h3,6-7H,1-2H2,(H,8,9)
