23
gdb 97915	3.38341	0.61483	0.54121	1.0841	92.5	-0.2361	0.0592	0.2953	2151.4999	0.202308	-388.265569	-388.25379	-388.252846	-388.304673	40.495	
C	 0.0181852299	 1.6516818974	-0.0634628485	-0.362311
C	-0.0071542719	 0.112865281	-0.0175193516	-0.312876
C	 0.6581549815	-0.4354429903	 1.1602963513	 0.118838
C	 1.2048228802	-0.8642126625	 2.1442054834	 0.021437
C	 1.8825335428	-1.3989054062	 3.3195878079	-0.363931
C	 2.0111865394	-2.9329956553	 3.3095762038	 0.149934
C	 2.9051892722	-3.4261919788	 4.4506070521	-0.402368
O	 0.6935399836	-3.4482589556	 3.4170149157	-0.237154
C	 0.5318198975	-4.7598552895	 2.9333504692	-0.234362
H	 1.0466116932	 2.0230840651	-0.0763843971	 0.125125
H	-0.491884998	 2.016688347	-0.9601786018	 0.110928
H	-0.480564421	 2.07409619	 0.8131112566	 0.127039
H	-1.0479236192	-0.2353525286	-0.0446895189	 0.126223
H	 0.4655724289	-0.2859231482	-0.924658502	 0.123071
H	 2.8864669886	-0.9640206662	 3.4032976697	 0.119088
H	 1.3410949403	-1.1161796373	 4.2316805791	 0.131129
H	 2.445122824	-3.2395393744	 2.3442336628	 0.071459
H	 2.9675630632	-4.5179137734	 4.4613743737	 0.116609
H	 3.9225996175	-3.0364923665	 4.3434582185	 0.114322
H	 2.5058284538	-3.0982327474	 5.4157649132	 0.123172
H	-0.5305102502	-5.0034809115	 3.0157106048	 0.126667
H	 0.8324514822	-4.8427287188	 1.877323379	 0.106087
H	 1.1023741718	-5.50182134	 3.512343729	 0.101875
22.4192	47.5703	65.4556	89.9003	148.2609	183.0654	197.9706	218.8325	266.3357	288.3558	303.0305	385.3063	400.5812	468.0674	510.1724	545.6298	751.2255	786.9236	813.5834	890.4827	918.5908	968.5931	1064.0321	1079.2847	1104.5957	1110.555	1118.5378	1163.6849	1167.2486	1183.1474	1207.4612	1270.6046	1286.1804	1314.0053	1351.7311	1380.7582	1384.924	1403.7876	1408.2495	1459.0331	1478.0936	1478.5751	1483.5116	1493.9651	1494.0171	1500.4593	1505.9587	1511.0178	2369.7654	2971.0254	2979.3342	3016.1747	3020.3499	3020.8012	3038.6741	3042.0959	3042.6047	3056.7319	3109.6422	3110.006	3114.9909	3115.0999	3121.876
CCC#CCC(C)OC	CCC#CC[C@@H](C)OC	
InChI=1S/C8H14O/c1-4-5-6-7-8(2)9-3/h8H,4,7H2,1-3H3	InChI=1S/C8H14O/c1-4-5-6-7-8(2)9-3/h8H,4,7H2,1-3H3/t8-/m1/s1
