19
gdb 122473	3.61192	0.70498	0.63138	1.1452	79.7	-0.2549	0.0192	0.274	1781.0503	0.155838	-422.954775	-422.944687	-422.943743	-422.991034	35.342	
C	 0.2418055913	 1.3206103672	 0.1556552739	-0.229153
O	-0.1807309719	 0.0255493371	-0.1968208086	-0.230649
C	 0.6969123619	-0.6105058224	-1.0979764966	-0.045407
C	 0.1594557375	-2.011092997	-1.3770789321	-0.253092
C	 1.0073565056	-2.7411858806	-2.3854064727	 0.067184
O	 2.2918582389	-3.195702366	-1.9550447863	-0.245691
C	 1.3094696066	-4.1882731143	-2.2971938966	-0.155052
C	 0.8052634541	-5.0230961771	-1.240069902	 0.341041
C	 0.3793091533	-5.751741581	-0.3841055105	-0.430665
H	 1.2283309386	 1.3099685074	 0.6457143429	 0.105664
H	 0.3040442894	 1.9841922669	-0.721915499	 0.102369
H	-0.494588972	 1.7271158431	 0.8531679613	 0.12694
H	 0.7732048201	-0.0307094149	-2.0354662894	 0.080858
H	 1.7127069089	-0.67641797	-0.6750822317	 0.105136
H	 0.1183825686	-2.5779566493	-0.4434300492	 0.128688
H	-0.8649801813	-1.9296513438	-1.7598356689	 0.113731
H	 1.0137351243	-2.314756106	-3.3914881696	 0.096283
H	 1.5230519833	-4.7133136357	-3.2282101366	 0.116723
H	 0.0064112529	-6.3897189436	 0.3789026418	 0.205089
47.2207	76.9466	94.0441	115.3385	162.725	215.1834	237.878	299.3806	318.726	452.9625	468.7262	555.8018	607.8074	630.9618	671.3047	782.15	819.4731	837.5143	954.3049	985.7332	1026.4784	1064.0805	1085.1541	1145.022	1158.6568	1166.9684	1187.2937	1227.8416	1242.0684	1280.8951	1306.0243	1310.3207	1385.4057	1423.8677	1461.987	1479.9385	1481.8013	1486.0303	1504.9265	1533.6103	2240.1915	2941.4755	2969.0813	2987.2718	3011.943	3046.1974	3078.8927	3108.9648	3112.933	3113.7762	3501.8369
COCCC1OC1C#C	COCC[C@H]1O[C@H]1C#C	
InChI=1S/C7H10O2/c1-3-6-7(9-6)4-5-8-2/h1,6-7H,4-5H2,2H3	InChI=1S/C7H10O2/c1-3-6-7(9-6)4-5-8-2/h1,6-7H,4-5H2,2H3/t6-,7+/m0/s1
