16
gdb 20006	4.31441	1.34211	1.16989	4.1889	66.17	-0.246	-0.0305	0.2155	1023.1138	0.131031	-379.869154	-379.861545	-379.860601	-379.901601	27.51	
O	-0.2089995751	 0.1698728121	 0.5245283191	-0.256898
C	 0.3396195157	 0.7241346608	-0.395291679	 0.169081
C	 1.3600674656	 1.7941265591	-0.1986035469	-0.120423
N	 2.3477195738	 1.9779174514	-1.2862283161	-0.34223
C	 1.3907259923	 3.0445176064	-1.0389097068	-0.040955
C	 0.4067879145	 3.3362355394	-2.1352888157	-0.007893
C	 0.910599518	 3.7868910724	-3.4577044865	-0.237129
N	 0.3161937875	 2.4490096102	-3.299545008	-0.314217
H	 0.1139233716	 0.4752032473	-1.4522114513	 0.101629
H	 1.693237203	 1.8918462895	 0.8317113687	 0.109521
H	 3.2636844057	 2.18603387	-0.9009406335	 0.249998
H	 1.7361051374	 3.9262015963	-0.4991983722	 0.104855
H	-0.5510207273	 3.7184892211	-1.788019139	 0.104295
H	 0.3303015532	 4.4869579533	-4.0516447612	 0.122051
H	 1.9878068399	 3.8556976771	-3.5882492379	 0.113752
H	 1.0770280141	 1.7734612536	-3.2301822538	 0.244563
84.076	103.1942	158.9118	222.7014	297.5792	332.0373	442.3056	535.4257	618.2122	741.749	835.7227	856.7295	899.7451	916.0585	958.2876	985.5478	1001.1877	1034.7224	1050.5565	1110.7337	1120.2861	1151.4586	1179.8726	1197.8047	1225.4961	1235.2601	1290.6853	1317.3548	1370.4021	1397.7084	1433.3016	1459.3587	1508.4072	1819.062	2933.7097	3107.3155	3108.4311	3129.9353	3150.1357	3195.9096	3471.3002	3527.1284
O=CC1NC1C1CN1	O=C[C@H]1N[C@H]1[C@H]1CN1	
InChI=1S/C5H8N2O/c8-2-4-5(7-4)3-1-6-3/h2-7H,1H2	InChI=1S/C5H8N2O/c8-2-4-5(7-4)3-1-6-3/h2-7H,1H2/t3-,4-,5+/m1/s1
