17
gdb 7734	3.32624	1.78717	1.21321	3.7333	72.74	-0.2129	-0.0459	0.1669	985.6881	0.143429	-363.892765	-363.885151	-363.884207	-363.924678	28.529	
C	-0.0068334468	 1.5166647732	 0.0348921385	-0.476404
C	-0.0396481236	 0.0184651438	-0.0270659391	 0.304342
C	-0.1315615608	-0.6666079169	-1.1800804396	-0.251585
C	-0.0449939441	-2.1373490666	-1.2348730285	 0.365908
O	-0.1068715204	-2.7580919818	-2.2785932351	-0.333614
C	 0.1856835029	-2.8315399049	 0.1098030672	-0.283647
N	-0.3676146502	-2.1168082537	 1.2598332721	-0.290437
C	 0.0582019735	-0.7216727585	 1.2927751546	-0.257089
H	 0.8993317807	 1.8630685609	 0.5482884827	 0.138016
H	-0.0314258142	 1.9664447952	-0.960225491	 0.134823
H	-0.8553596715	 1.9024188337	 0.6142338071	 0.135283
H	-0.2241469498	-0.1608685502	-2.137711436	 0.097361
H	-0.2254176168	-3.8428840999	 0.0594845364	 0.128273
H	 1.2723024506	-2.9348958343	 0.2494784996	 0.12672
H	-1.3811831123	-2.1414609809	 1.1965586898	 0.222634
H	 1.1038223031	-0.6778839065	 1.6399095237	 0.125233
H	-0.5267761704	-0.1940491626	 2.0555382678	 0.114183
99.8878	146.0441	190.4174	254.4453	300.7812	430.7914	443.1093	473.3526	505.9157	559.0027	649.7571	786.3306	837.259	865.838	896.9561	952.3876	959.8691	1032.2413	1048.9861	1095.8451	1151.0822	1169.2348	1203.5719	1261.3637	1313.759	1326.9576	1344.0517	1386.9741	1407.6319	1452.6998	1465.4574	1477.5078	1480.896	1498.8029	1689.3183	1775.6803	2979.326	3005.4735	3019.785	3052.9496	3067.8057	3103.6011	3122.8867	3166.0554	3505.8218
CC1=CC(=O)CNC1	CC1=CC(=O)CNC1	
InChI=1S/C6H9NO/c1-5-2-6(8)4-7-3-5/h2,7H,3-4H2,1H3	InChI=1S/C6H9NO/c1-5-2-6(8)4-7-3-5/h2,7H,3-4H2,1H3
