23
gdb 60225	3.88125	0.8632	0.73857	1.4017	86.98	-0.2319	0.032	0.2639	1587.6961	0.205458	-388.307651	-388.297913	-388.296968	-388.342781	36.766	
C	 0.0009926862	 1.5784459459	-0.076161187	-0.400325
C	 0.0275780715	 0.0493689124	-0.0282757032	 0.132124
O	 0.8737520505	-0.4095659919	 1.0263248945	-0.420951
C	-1.3826631088	-0.5520827932	 0.0469455509	-0.221274
C	-1.4474393217	-2.0818485767	-0.0165366076	 0.050577
C	-0.9329597004	-2.8497159761	 1.233495936	-0.249639
C	-1.8037154566	-4.0838568255	 1.2630498753	-0.068306
C	-2.8608835551	-3.967889109	 0.4614879187	-0.06443
C	-2.8828551953	-2.6336189882	-0.2450688031	-0.276229
H	 1.0200408934	 1.973255219	-0.108343672	 0.122756
H	-0.5419301818	 1.9418894522	-0.9546408128	 0.114441
H	-0.4954317818	 1.9860959585	 0.8137405658	 0.10482
H	 0.5150105711	-0.3241558662	-0.938290046	 0.086742
H	 0.4967876935	-0.0986911707	 1.8570745362	 0.274521
H	-1.8756111749	-0.1977948126	 0.965951504	 0.08062
H	-1.9669795453	-0.1365399572	-0.7853571971	 0.093851
H	-0.8385096068	-2.4117491774	-0.8685859314	 0.074302
H	 0.1378113961	-3.0624348984	 1.1791715048	 0.114797
H	-1.0757466281	-2.2609530923	 2.1525947234	 0.083915
H	-1.5924289727	-4.9348202624	 1.9018812866	 0.086556
H	-3.6459742861	-4.7069525965	 0.3439913682	 0.086652
H	-3.641682263	-1.9725273958	 0.2023527008	 0.097057
H	-3.133777654	-2.7068781881	-1.3099002447	 0.097424
43.0962	86.9542	116.695	179.8698	239.2371	267.1863	294.1404	304.5896	399.307	430.0223	465.4232	477.3376	626.3738	719.289	775.7985	827.1765	847.4683	882.2971	918.4184	945.3894	958.4447	975.5435	977.87	1002.4277	1045.617	1065.6524	1094.6951	1122.2953	1129.9339	1144.2987	1149.4984	1180.7945	1248.4424	1284.5622	1292.5939	1321.5297	1325.097	1341.4117	1366.8929	1379.4878	1392.7753	1403.9176	1420.7009	1473.0419	1482.4271	1490.8255	1493.501	1496.1732	1687.4115	2983.1574	2986.8421	2990.1784	3014.0607	3021.3544	3028.2106	3041.3898	3049.6897	3087.3709	3093.4152	3118.1457	3177.2754	3203.3355	3797.3551
CC(O)CC1CC=CC1	C[C@@H](O)C[C@H]1CC=CC1	
InChI=1S/C8H14O/c1-7(9)6-8-4-2-3-5-8/h2-3,7-9H,4-6H2,1H3	InChI=1S/C8H14O/c1-7(9)6-8-4-2-3-5-8/h2-3,7-9H,4-6H2,1H3/t7-/m1/s1
