15
gdb 64907	2.06462	1.69503	1.10064	2.1917	74.57	-0.2454	0.0152	0.2606	1095.8312	0.106783	-420.520601	-420.510838	-420.509893	-420.554563	36.302	
O	-0.0934619082	 1.3635868816	-0.0824289405	-0.436432
C	 0.0144633135	-0.0265161917	-0.0266560494	 0.17258
C	-0.4691998414	-0.7265156575	 1.2363001458	-0.411397
C	-1.3335085202	-0.7519241148	-0.0172221382	 0.172522
O	-2.4348034284	 0.103582856	-0.0660686993	-0.43642
C	-1.4814850677	-1.9903392847	-0.7375856081	 0.318422
C	-1.666442387	-3.0281237994	-1.3156565391	-0.471774
C	 1.1216932811	-0.5894107642	-0.7558146355	 0.318392
C	 2.0833897395	-1.0100593816	-1.3419603994	-0.471768
H	 0.7173058394	 1.7289117937	 0.2901085115	 0.290954
H	 0.0238174075	-1.6386030352	 1.5498104418	 0.134688
H	-0.8215771076	-0.0615307546	 2.0167454523	 0.131507
H	-3.1821272052	-0.3694727319	 0.3177504444	 0.290954
H	-1.8130736372	-3.9381649819	-1.8430211038	 0.198884
H	 2.9178265217	-1.3919393339	-1.8764432823	 0.198887
104.2512	113.9806	164.8825	189.9219	220.3963	231.7315	262.3412	318.9273	421.6122	427.7347	457.941	540.4249	572.4756	603.769	609.0505	632.556	679.3449	680.9121	690.7387	757.8133	870.7938	903.3668	931.851	1043.9505	1078.2654	1195.0036	1257.0485	1282.7362	1329.3557	1389.1959	1454.6235	2235.3756	2235.6524	3139.9232	3246.8159	3502.0134	3502.6849	3796.4183	3796.4424
OC1(CC1(O)C#C)C#C	O[C@]1(C[C@]1(O)C#C)C#C	
InChI=1S/C7H6O2/c1-3-6(8)5-7(6,9)4-2/h1-2,8-9H,5H2	InChI=1S/C7H6O2/c1-3-6(8)5-7(6,9)4-2/h1-2,8-9H,5H2/t6-,7+
