16
gdb 12934	2.63695	2.16357	1.68906	4.2613	65.69	-0.236	-0.0036	0.2324	846.5766	0.129042	-383.730625	-383.722752	-383.721808	-383.762631	29.258	
C	-0.054647581	 1.5636652873	 0.0090290907	-0.496953
C	 0.0326579698	 0.0640811039	 0.0181750967	 0.170723
C	-0.8338090928	-0.8209963244	 0.8738987214	 0.066594
O	-1.6437040542	-1.7860087985	 0.2651845173	-0.417112
C	 0.6373268729	-0.9883651654	 1.0359320387	-0.171114
C	 1.1865050238	-1.8462922955	-0.1130824122	-0.351313
C	 0.6517673435	-0.7625611351	-1.0773868375	 0.38719
O	 0.8602923973	-0.5251851867	-2.2334291328	-0.317871
H	 0.8946301093	 2.0124731289	-0.2994410625	 0.132566
H	-0.8232462874	 1.8978625175	-0.6959399559	 0.143411
H	-0.3138475833	 1.9546123283	 0.9976540967	 0.119579
H	-1.3245283938	-0.2671896907	 1.6764978908	 0.09449
H	-1.8069397536	-2.48726583	 0.9057195977	 0.289425
H	 1.1587966354	-0.7729309149	 1.9603213405	 0.102771
H	 2.2779840308	-1.8896809221	-0.1578807508	 0.127578
H	 0.7725379035	-2.8515080726	-0.2160234887	 0.120035
99.4236	139.4236	219.6156	235.4293	254.2068	304.8145	400.9626	469.3032	549.0974	598.7913	650.7402	683.3944	771.4409	864.0866	886.545	933.9111	985.261	997.9436	1037.031	1057.1861	1103.2762	1133.752	1158.2202	1217.2187	1249.4613	1286.9299	1302.982	1342.7659	1413.3293	1446.4689	1474.0083	1482.4522	1495.3061	1878.7449	3035.0596	3069.0787	3087.653	3101.0182	3108.55	3124.5151	3194.473	3799.2329
CC12C(O)C1CC2=O	C[C@]12[C@@H](O)[C@H]1CC2=O	
InChI=1S/C6H8O2/c1-6-3(5(6)8)2-4(6)7/h3,5,8H,2H2,1H3	InChI=1S/C6H8O2/c1-6-3(5(6)8)2-4(6)7/h3,5,8H,2H2,1H3/t3-,5+,6+/m1/s1
