20
gdb 109271	3.25758	1.13332	0.92075	2.4167	81.91	-0.2312	-0.0007	0.2305	1319.3424	0.171988	-403.15208	-403.143215	-403.142271	-403.185958	32.861	
C	-0.3910470139	 1.2797006522	 0.34570249	-0.375113
C	-0.0767470867	-0.1732861141	-0.0534369261	-0.286185
C	 0.8641992212	-0.2817584442	-1.2260806588	 0.319273
C	 2.1036630697	-0.7654543493	-1.1330932058	-0.172153
C	 3.0507437474	-0.8837723559	-2.3090140915	-0.216103
N	 2.5604490307	-1.570935709	-3.5011976522	-0.263151
C	 1.3765911543	-1.5437484192	-3.9329920632	 0.139414
O	 0.2537334641	-0.8893702144	-3.5392939	-0.221529
C	 0.3692728721	 0.1760040251	-2.5798885415	-0.173483
H	 0.5211743671	 1.8074733219	 0.6406516071	 0.122207
H	-0.8470902089	 1.8382700697	-0.4786959144	 0.118344
H	-1.0897018524	 1.3081468275	 1.1873492784	 0.11844
H	 0.3554073831	-0.6992453964	 0.8045537582	 0.105142
H	-1.0175574478	-0.6874747407	-0.2953922368	 0.109058
H	 2.4735699965	-1.1106247887	-0.1694309686	 0.08846
H	 3.4191461223	 0.1129258843	-2.6015304348	 0.118873
H	 3.9427412197	-1.4307870984	-1.9873243719	 0.115086
H	 1.1202454136	-2.1499127801	-4.8031480343	 0.118142
H	-0.6399061732	 0.5884632013	-2.5199198577	 0.115769
H	 1.022632221	 0.9531484283	-2.9983212861	 0.119507
71.7934	97.6743	163.2079	186.7933	226.9575	257.6069	351.9103	366.9285	426.0333	470.6132	592.43	663.4659	774.8686	788.3536	831.2166	851.0124	931.7479	940.9584	954.0738	969.2697	1001.8651	1019.9899	1058.9911	1079.389	1124.948	1154.3976	1206.5989	1262.5939	1280.5816	1295.7802	1348.5425	1367.0912	1380.866	1409.4163	1415.0923	1436.6518	1479.4133	1485.3276	1498.8834	1505.0016	1506.8248	1739.5733	1760.0359	2974.754	3010.8048	3017.1581	3036.0501	3058.5676	3066.6773	3103.5657	3108.6015	3111.8189	3127.734	3143.3284
CCC1=CCN=COC1	CCC1=CCN=COC1	
InChI=1S/C7H11NO/c1-2-7-3-4-8-6-9-5-7/h3,6H,2,4-5H2,1H3	InChI=1S/C7H11NO/c1-2-7-3-4-8-6-9-5-7/h3,6H,2,4-5H2,1H3
