20
gdb 126590	5.36629	0.65242	0.63635	0.6054	81.24	-0.2564	0.0003	0.2567	1817.2634	0.172838	-399.347984	-399.338823	-399.337879	-399.383628	32.608	
C	 0.0832653277	 1.5345778092	-0.2370150936	-0.382526
C	 0.0084529056	 0.0396268194	 0.0844958262	-0.162029
C	-1.4024398627	-0.5364586875	-0.0690751745	-0.154383
C	-1.4767662337	-2.0405000722	 0.256076202	-0.319221
C	-2.8538681057	-2.6072747639	 0.1079656281	 0.310279
N	-3.7048301783	-2.6876920191	 1.1367323016	-0.268225
N	-4.8004499696	-3.2028131204	 0.5925235569	-0.073054
N	-4.7509712767	-3.475041097	-0.7029398432	-0.193708
C	-3.515298516	-3.1000467888	-1.0348540192	-0.128277
H	 1.1017292071	 1.9178191622	-0.1201467893	 0.112156
H	-0.2316705892	 1.7341510284	-1.2673098514	 0.11414
H	-0.5690362456	 2.1147096821	 0.4250567336	 0.1159
H	 0.6982763839	-0.5116248368	-0.5686680651	 0.093912
H	 0.3599169079	-0.1339540519	 1.1101968861	 0.097303
H	-2.0970577891	 0.0023797401	 0.5876358679	 0.107437
H	-1.759496436	-0.3690157896	-1.0938936443	 0.095821
H	-0.7881992342	-2.5873968212	-0.3994793942	 0.105967
H	-1.1378320245	-2.2074841131	 1.2839221884	 0.118822
H	-5.6229621846	-3.3935259875	 1.1412018301	 0.290875
H	-3.1604197863	-3.2007082223	-2.0484918861	 0.118811
29.0262	81.5794	90.4959	121.7579	241.9216	245.9339	325.5848	338.6278	436.7491	517.6701	704.7902	723.836	736.422	770.1423	794.1292	878.8721	912.0587	931.4017	995.9806	1009.298	1030.7104	1062.8763	1093.5632	1122.9246	1165.7488	1202.973	1229.5633	1258.0528	1280.8548	1312.7249	1330.4468	1349.1546	1372.8347	1396.0617	1414.7169	1415.1163	1474.564	1485.0272	1488.0174	1499.8116	1500.3714	1512.9706	1566.1438	3011.6802	3019.6854	3030.4233	3033.6561	3038.691	3059.6665	3086.3383	3097.4347	3102.2659	3265.2594	3670.6989
CCCCC1=NNN=C1	CCCCc1n[nH]nc1	
InChI=1S/C6H11N3/c1-2-3-4-6-5-7-9-8-6/h5H,2-4H2,1H3,(H,7,8,9)	InChI=1S/C6H11N3/c1-2-3-4-6-5-7-9-8-6/h5H,2-4H2,1H3,(H,7,8,9)
