19
gdb 111166	4.00177	1.04193	0.96004	2.4623	76.51	-0.2544	0.0717	0.3261	1265.1189	0.159131	-422.933683	-422.92553	-422.924586	-422.966594	31.545	
O	 0.2964050328	 0.5792333874	 1.0248072511	-0.420689
C	-0.0836921353	 0.3646283716	-0.3299739509	-0.140744
C	-1.4338696633	-0.321801311	-0.3029525253	 0.071761
C	-2.0091052016	-1.0381560404	-1.5710882449	-0.186348
C	-1.0165758755	-2.21877118	-1.3011814783	-0.247959
C	-1.5656177879	-1.8284565892	 0.1106582949	-0.154581
C	-2.9364373377	-1.7583886984	-0.5786931128	 0.557812
C	-4.322453147	-1.6378265429	-0.1592747287	-0.321811
O	-3.8171925098	-2.815133793	-0.8469193823	-0.30711
H	 1.1303234271	 1.058169727	 1.030029217	 0.287248
H	-0.1844262507	 1.321090582	-0.8687852175	 0.086378
H	 0.6732916385	-0.227150657	-0.8616979151	 0.089279
H	-2.1480881894	 0.3351261627	 0.2052916338	 0.074647
H	-2.2726837292	-0.5889616492	-2.5289698862	 0.076899
H	-1.3224547582	-3.1955338993	-1.6797701646	 0.115271
H	 0.0405145216	-2.0372691633	-1.4936205383	 0.095589
H	-1.3176242999	-2.2729138794	 1.0731962917	 0.085717
H	-4.5995806106	-1.8003358438	 0.8811497209	 0.12053
H	-5.0239165638	-1.0377793938	-0.7370503446	 0.118111
72.2605	134.1633	184.719	257.2225	286.0251	346.1599	366.6439	430.4569	492.9175	617.4809	644.7781	742.5195	797.2869	834.7856	880.8756	898.1861	905.9152	988.9997	1008.9625	1024.2661	1055.3428	1066.7762	1083.8739	1108.1782	1111.964	1123.2767	1128.859	1151.1068	1164.574	1194.3343	1212.1049	1221.9427	1250.3307	1258.5482	1275.2167	1402.1867	1456.4383	1469.8101	1509.54	1532.6642	1563.9818	2967.7263	3017.0254	3052.6836	3083.1339	3084.4803	3112.8598	3132.0853	3146.7372	3169.9233	3828.1485
OCC1C2CC1C21CO1	OC[C@H]1[C@H]2C[C@@H]1[C@]12CO1	
InChI=1S/C7H10O2/c8-2-4-5-1-6(4)7(5)3-9-7/h4-6,8H,1-3H2	InChI=1S/C7H10O2/c8-2-4-5-1-6(4)7(5)3-9-7/h4-6,8H,1-3H2/t4-,5+,6-,7+
