20
gdb 9379	5.1255	0.77906	0.70335	4.8648	76.39	-0.2616	0.0249	0.2865	1608.9218	0.176515	-345.200422	-345.190539	-345.189595	-345.235729	34.727	
C	 0.0660760393	 1.5717393074	 0.0445551502	-0.38183
C	 0.0271793279	 0.0413818383	 0.0378536374	-0.169691
C	-1.3975099616	-0.522460164	-0.0198595105	-0.178286
C	-1.4348691431	-2.0532250394	-0.0313728446	-0.184319
C	-2.8736814884	-2.6287636062	-0.0523933741	-0.136514
N	-3.7000364865	-2.3018424434	-1.2178555358	-0.502024
C	-2.8143785436	-4.0944495267	 0.0862758354	 0.297726
N	-2.7261289586	-5.2414789101	 0.1922279193	-0.320438
H	 1.0945813588	 1.9429401894	 0.0839678067	 0.11725
H	-0.4023211008	 1.9845498409	-0.8558350887	 0.11487
H	-0.4678060673	 1.9782957988	 0.9106285602	 0.116441
H	 0.5994520738	-0.3377272578	-0.8188249912	 0.100376
H	 0.5317560003	-0.3438858295	 0.9332330019	 0.102059
H	-1.9708371574	-0.1498617442	 0.841070789	 0.097754
H	-1.8988398561	-0.1312246533	-0.9151364551	 0.089325
H	-0.8917281755	-2.439914714	-0.9033579423	 0.108494
H	-0.9176378475	-2.4424620334	 0.8540936506	 0.118057
H	-3.4069255156	-2.250508902	 0.8301680494	 0.131887
H	-3.8439832514	-1.2985209726	-1.2614631631	 0.240534
H	-3.2212638266	-2.573970708	-2.0720020648	 0.238329
55.8291	84.5965	101.0363	144.5761	188.6891	228.6467	245.8277	290.5093	317.2667	384.3038	434.2686	572.0062	588.8733	737.6737	787.8648	834.6454	848.572	911.2156	927.9625	999.0371	1032.9506	1067.0471	1086.7759	1117.8543	1152.2524	1212.7763	1245.8515	1270.3335	1313.1823	1332.4713	1335.1261	1369.557	1393.5447	1411.8463	1415.1181	1478.344	1485.5557	1497.9931	1499.8987	1511.8517	1655.9124	2361.8927	3002.8842	3017.9852	3022.6595	3030.2922	3031.2459	3032.215	3054.4401	3074.0576	3097.5042	3105.4819	3495.4294	3585.2774
CCCCC(N)C#N	CCCC[C@@H](N)C#N	
InChI=1S/C6H12N2/c1-2-3-4-6(8)5-7/h6H,2-4,8H2,1H3	InChI=1S/C6H12N2/c1-2-3-4-6(8)5-7/h6H,2-4,8H2,1H3/t6-/m1/s1
