20
gdb 61059	3.17139	1.01135	0.95365	5.1083	77.73	-0.232	0.0345	0.2665	1322.8718	0.17041	-440.290141	-440.280573	-440.279629	-440.324955	34.769	
C	-0.0289765224	-0.3518868477	 1.4639387383	-0.358056
N	 0.0187580525	 0.0934224631	 0.0743764423	-0.046288
C	 0.2394697928	 1.4173312469	-0.184785121	 0.149917
O	 0.3744557533	 2.2907631974	 0.6456212088	-0.346333
C	-0.1049847661	-0.8455493667	-1.0103099509	 0.05107
C	 0.5943166622	-2.2321109773	-0.9647381096	-0.255978
C	-0.6037142826	-2.7963071927	-1.7775743681	-0.25248
C	-1.4518142435	-1.5705540561	-1.3311055799	 0.098396
O	-2.1841406872	-1.7958029069	-0.1423160496	-0.426445
H	-0.8857023794	-1.0067878395	 1.6181790924	 0.153315
H	 0.8897621119	-0.8835049355	 1.7398032845	 0.119787
H	-0.1139460844	 0.5388496285	 2.0861029532	 0.161448
H	 0.2815848495	 1.6187758917	-1.2740517202	 0.065382
H	 0.2003348888	-0.3257764741	-1.9239509827	 0.095588
H	 1.5946060988	-2.3030990988	-1.3965546677	 0.104948
H	 0.6125715259	-2.6437531636	 0.0457534805	 0.120695
H	-0.4186652648	-2.7983921257	-2.8551295755	 0.107013
H	-0.9924434929	-3.7728162202	-1.4806096819	 0.10144
H	-2.0841634764	-1.0949157344	-2.0928616819	 0.068055
H	-2.907497616	-2.3972298584	-0.3457613511	 0.288526
51.845	97.2437	138.4665	163.6576	232.5166	261.8257	279.144	326.5487	350.4423	387.9992	437.703	473.9836	674.1803	731.9336	801.5124	857.6199	894.12	915.4038	931.3072	988.7096	1027.7709	1035.9133	1081.4597	1111.6359	1142.6877	1160.8151	1196.4489	1219.6637	1253.2582	1261.6199	1279.3372	1296.5249	1309.7993	1347.6401	1414.7063	1438.8087	1444.8076	1454.7403	1472.7599	1495.9784	1504.5271	1521.5006	1796.2312	2926.2202	3005.2133	3032.1323	3058.172	3065.5096	3078.1792	3116.1306	3126.9443	3137.3522	3174.2438	3816.4368
CN(C=O)C1CCC1O	CN(C=O)[C@H]1CC[C@H]1O	
InChI=1S/C6H11NO2/c1-7(4-8)5-2-3-6(5)9/h4-6,9H,2-3H2,1H3	InChI=1S/C6H11NO2/c1-7(4-8)5-2-3-6(5)9/h4-6,9H,2-3H2,1H3/t5-,6+/m0/s1
