20
gdb 119695	4.8265	0.92798	0.87525	1.682	78.34	-0.2379	0.0779	0.3157	1368.4337	0.171957	-403.086708	-403.078391	-403.077447	-403.12016	31.791	
O	 0.0497810755	 1.4073234546	-0.1273339315	-0.418425
C	 0.0318054799	-0.0113271501	-0.1251759946	-0.062009
C	-1.3380002505	-0.5782407806	 0.2669439139	-0.336915
C	-1.3905923066	-2.0787406278	 0.2662155041	 0.346152
C	-0.4307586271	-3.0583124202	 0.9309880892	-0.293505
C	-0.9866708365	-4.0615345394	-0.0953970887	-0.002965
C	-2.4601240161	-4.2956647483	 0.2858041125	-0.239374
C	-2.623516939	-2.8417142216	-0.1137877121	-0.084314
N	-1.4170860462	-2.8733394974	-1.0191936833	-0.201367
H	-0.5332252807	 1.7062779958	-0.8323889505	 0.2814
H	 0.3339079704	-0.4251541737	-1.0984615074	 0.107625
H	 0.7894768475	-0.3111285491	 0.6063363073	 0.110408
H	-1.6143008127	-0.1926595753	 1.2565962555	 0.111095
H	-2.0909256823	-0.202166754	-0.4392433826	 0.094339
H	 0.6088488194	-2.8015128892	 0.7122404835	 0.111773
H	-0.5388313984	-3.2838305445	 1.9977639515	 0.094878
H	-0.3686048868	-4.8577762856	-0.5052017488	 0.083048
H	-2.9590683626	-4.9541268753	-0.4298420741	 0.112768
H	-2.6940767114	-4.6095019256	 1.3087847012	 0.095576
H	-3.5321815858	-2.3304067328	-0.4136384952	 0.089811
67.1051	87.9051	130.1586	282.4965	304.0637	327.3707	358.081	411.3931	487.8047	686.1503	735.4658	762.4309	770.684	802.6107	837.5874	894.6595	930.7286	946.7404	995.7903	1008.0596	1020.4418	1028.8014	1053.1643	1074.619	1090.3936	1128.8603	1133.3565	1160.1224	1191.8116	1219.8547	1242.4452	1271.0902	1281.6078	1306.8796	1319.0078	1353.5194	1394.3632	1417.1287	1425.3257	1470.3386	1489.4534	1505.7207	1514.5051	3000.332	3014.0315	3036.7581	3042.4554	3052.7498	3079.927	3103.2842	3104.5072	3138.6236	3171.5573	3816.1275
OCCC12CC3CC1N23	OCC[C@@]12C[C@H]3C[C@@H]1N23	
InChI=1S/C7H11NO/c9-2-1-7-4-5-3-6(7)8(5)7/h5-6,9H,1-4H2	InChI=1S/C7H11NO/c9-2-1-7-4-5-3-6(7)8(5)7/h5-6,9H,1-4H2/t5-,6+,7-,8?/m1/s1
