18
gdb 97510	3.30609	0.78899	0.65543	3.8285	85.42	-0.2491	-0.0319	0.2172	1721.3063	0.14605	-401.92092	-401.911114	-401.91017	-401.957647	33.696	
C	 0.0316736067	 1.5600324978	-0.0757351948	-0.368201
C	-0.0482320865	 0.0370620463	 0.1324343037	-0.323245
C	 0.7472796409	-0.4380948684	 1.2561653305	 0.102761
C	 1.4134935311	-0.8216364648	 2.186113674	 0.027474
C	 2.1759500989	-1.3366713358	 3.3036975813	 0.196402
O	 2.1602943979	-2.5012935031	 3.6423021569	-0.322187
N	 2.9877091662	-0.3791614972	 3.9147528871	-0.070368
C	 2.4881434242	 0.7925702345	 4.6104653989	-0.225198
C	 3.1656038427	-0.327060953	 5.3467536799	-0.220085
H	 1.0621482968	 1.8731966357	-0.2625599604	 0.134093
H	-0.5805823176	 1.8574102575	-0.9317604069	 0.12104
H	-0.3293927278	 2.0930213204	 0.8078451342	 0.129679
H	-1.0922531114	-0.2659406708	 0.2838964686	 0.141457
H	 0.2836229684	-0.481560734	-0.7762482545	 0.143955
H	 3.0183026779	 1.721126996	 4.418709397	 0.128382
H	 1.4112931603	 0.890872905	 4.7221846987	 0.133664
H	 2.5499430199	-0.9957257736	 5.9420829302	 0.140975
H	 4.1873360213	-0.2039494626	 5.6937407456	 0.129403
24.6431	58.0977	85.2522	138.164	178.0908	214.3371	259.0655	263.1635	402.3651	422.6764	525.062	573.6291	682.5718	773.9923	781.2589	816.1878	854.3952	949.3827	976.4161	1043.3052	1052.107	1085.837	1100.392	1126.8106	1133.7839	1167.8956	1174.3416	1218.5942	1283.6101	1348.6636	1388.1511	1411.5082	1465.0517	1496.0836	1497.8149	1504.4308	1525.089	1755.5355	2342.9451	3024.2848	3047.8624	3052.5455	3110.4746	3118.0576	3122.3339	3127.1976	3195.1359	3210.1399
CCC#CC(=O)N1CC1	CCC#CC(=O)N1CC1	
InChI=1S/C7H9NO/c1-2-3-4-7(9)8-5-6-8/h2,5-6H2,1H3	InChI=1S/C7H9NO/c1-2-3-4-7(9)8-5-6-8/h2,5-6H2,1H3
