16
gdb 43897	2.84592	1.3854	1.11485	2.9771	73.97	-0.2616	-0.0432	0.2185	1087.6459	0.124274	-400.757614	-400.7498	-400.748856	-400.790443	29.332	
O	 0.0557536435	 0.1758446736	-0.6400652695	-0.285254
C	 0.0410177376	 1.274629532	-0.171849298	 0.419692
C	-1.0785050988	 2.1769786128	 0.3823566276	-0.409539
C	 0.0041783945	 3.2495448534	 0.7257023422	 0.19254
C	 0.6694357433	 3.0704439041	 2.1280551804	-0.279193
C	 1.7688049989	 2.159032549	 1.5108736641	-0.22899
C	 1.1319635979	 2.3172610692	 0.0969628174	-0.200251
C	-0.2420815487	 4.594974099	 0.2676351646	 0.197113
N	-0.4301096699	 5.6767469181	-0.0972099572	-0.340282
H	-1.7598466268	 2.4958145019	-0.4125513501	 0.160397
H	-1.6686243616	 1.7854800185	 1.2149273613	 0.141467
H	 1.056859752	 4.0040445084	 2.5373286076	 0.136471
H	 0.0168111756	 2.6094839134	 2.87263732	 0.119515
H	 2.7674879195	 2.5942566272	 1.5668109315	 0.130662
H	 1.8197275018	 1.1333198845	 1.8815368377	 0.128503
H	 1.776328421	 2.607262995	-0.7323497895	 0.11715
56.7394	140.6424	177.2727	209.801	324.5547	427.209	476.4384	519.836	552.3018	573.7573	614.7042	719.0898	772.9926	845.0164	885.1469	905.7435	936.9868	966.7745	1008.8538	1028.8	1084.0077	1115.8705	1136.9737	1156.7091	1206.3112	1225.7954	1240.0149	1263.5774	1282.1929	1310.243	1430.7709	1480.6301	1495.924	1899.0821	2348.0571	3061.5407	3075.4752	3080.6071	3119.1145	3122.275	3129.3927	3142.5846
O=C1CC2(CCC12)C#N	O=C1C[C@]2(CC[C@@H]12)C#N	
InChI=1S/C7H7NO/c8-4-7-2-1-5(7)6(9)3-7/h5H,1-3H2	InChI=1S/C7H7NO/c8-4-7-2-1-5(7)6(9)3-7/h5H,1-3H2/t5-,7+/m0/s1
