15
gdb 95618	2.14863	1.82549	1.17764	2.9441	62.33	-0.243	-0.0957	0.1472	1025.3309	0.111414	-494.905477	-494.897217	-494.896273	-494.939454	29.732	
O	-0.0534450454	 1.4084470179	 0.0236224107	-0.420219
C	-0.0128574694	-0.0149095478	 0.0226831197	 0.021923
C	-1.4556121923	-0.5085464849	-0.0293369843	-0.106984
O	-2.0963678588	-0.1044185152	-1.2221837098	-0.229717
C	-1.5644419693	-0.719337185	-2.3743406347	-0.191
C	-0.0617779998	-0.502305501	-2.5493362697	 0.297884
O	 0.4777697808	-0.4679744577	-3.6231769725	-0.262515
C	 0.7639523759	-0.4208211449	-1.2322199507	 0.269071
O	 1.9505192471	-0.6269561017	-1.2349080707	-0.278723
H	 0.8537077223	 1.7297912769	 0.084403934	 0.30231
H	 0.4993115378	-0.4139305518	 0.9096046927	 0.092537
H	-1.4735473783	-1.6059880897	 0.0815971415	 0.0991
H	-2.0206353459	-0.0640266449	 0.7939198801	 0.134662
H	-1.731045503	-1.8133998563	-2.3552579754	 0.121034
H	-2.0883326318	-0.3154896941	-3.243509481	 0.150636
26.5855	96.5468	186.8709	263.0874	327.5736	349.9654	376.263	399.0869	414.5618	513.1718	578.4132	637.4798	703.0125	800.9059	882.397	952.9299	987.5209	999.8679	1092.5751	1124.1741	1156.2898	1203.5546	1226.6316	1257.17	1302.4904	1345.6506	1357.0771	1403.5662	1411.5923	1457.9733	1481.1375	1813.8631	1837.1833	2933.8825	2971.3354	3014.437	3103.4072	3113.4038	3801.615
OC1COCC(=O)C1=O	O[C@H]1COCC(=O)C1=O	
InChI=1S/C5H6O4/c6-3-1-9-2-4(7)5(3)8/h3,6H,1-2H2	InChI=1S/C5H6O4/c6-3-1-9-2-4(7)5(3)8/h3,6H,1-2H2/t3-/m0/s1
