21
gdb 103369	2.95447	1.36809	1.2292	1.3252	77.02	-0.2454	0.0676	0.313	1115.6683	0.183259	-424.201552	-424.19302	-424.192076	-424.234263	33.774	
C	-0.1626148017	 1.6439441307	 0.0455501897	-0.490531
C	-0.0305875991	 0.1254153433	 0.0282266669	 0.319237
C	-1.3974419321	-0.5164494566	-0.249192719	-0.130199
O	-1.9335658698	-0.1345722167	-1.5123819471	-0.423993
C	 1.1212648635	-0.5827242218	-0.758101216	 0.037192
C	 2.4177363156	 0.107036724	-0.2857825932	-0.229431
C	 2.1079093892	 0.0758078251	 1.2464272075	-0.226443
C	 0.7404969528	-0.6321062102	 1.1531342115	 0.026953
O	 1.0306466679	-1.6933767159	 0.1871405248	-0.305269
H	 0.7935239913	 2.1669116018	 0.1008683961	 0.1137
H	-0.6854761245	 1.9744587003	-0.8560781029	 0.13695
H	-0.7639646146	 1.9597526374	 0.9063418132	 0.116109
H	-1.32667843	-1.6052386682	-0.1583371055	 0.111332
H	-2.1207069836	-0.1586495668	 0.4929428362	 0.102238
H	-1.4436528538	-0.6063447205	-2.1927290789	 0.283413
H	 1.040588799	-0.8814612369	-1.8054765974	 0.062581
H	 3.2892612308	-0.4956160742	-0.5485221502	 0.108768
H	 2.5566284358	 1.1115687175	-0.6919134428	 0.102011
H	 2.8218760085	-0.5303073322	 1.8072364453	 0.108962
H	 2.0539394975	 1.0650952882	 1.7069778495	 0.102085
H	 0.2608852573	-0.983049858	 2.068459192	 0.074336
104.5359	161.5863	178.9358	269.3351	283.4105	297.272	336.4074	374.675	415.101	523.1601	578.6202	667.886	726.1134	825.8494	838.7498	863.0911	889.5913	919.7806	924.1219	936.6556	952.9547	978.6722	1015.7849	1031.6087	1056.5907	1095.1601	1136.3996	1172.1651	1189.9165	1195.3742	1238.77	1248.214	1259.2102	1272.7799	1298.7962	1321.1025	1354.191	1385.892	1407.853	1416.9438	1475.6339	1495.0787	1499.1193	1508.2046	1510.1723	3032.8863	3039.3933	3069.7335	3076.0017	3081.8364	3095.3933	3105.0086	3109.1978	3113.4234	3127.6927	3135.6115	3823.7821
CC1(CO)C2CCC1O2	C[C@@]1(CO)[C@H]2CC[C@@H]1O2	
InChI=1S/C7H12O2/c1-7(4-8)5-2-3-6(7)9-5/h5-6,8H,2-4H2,1H3	InChI=1S/C7H12O2/c1-7(4-8)5-2-3-6(7)9-5/h5-6,8H,2-4H2,1H3/t5-,6+,7-
