18
gdb 124855	3.61517	1.30736	1.04545	3.1894	77.71	-0.241	0.0163	0.2573	1150.8941	0.150077	-398.152714	-398.144769	-398.143824	-398.185472	30.307	
C	-0.0255025294	 1.4937671918	-0.052798163	-0.499633
C	 0.0115211812	-0.0216554836	-0.0230428483	 0.226413
C	 1.3429262079	-0.7263306467	-0.2311483771	-0.28632
C	 0.7185504817	-0.7147155436	 1.1312750417	-0.286308
C	-1.1781368614	-0.7109514734	-0.562302509	 0.375927
N	-1.3685278884	-2.0214550724	-0.6383915724	-0.340277
C	-2.6017909605	-2.124772071	-1.2025899674	 0.022136
N	-3.1958343959	-0.9787040044	-1.4846491549	-0.222983
N	-2.2643135252	-0.0822266152	-1.065392904	-0.271037
H	 0.896168779	 1.9056789701	 0.3661021266	 0.127981
H	-0.1182292318	 1.8766909742	-1.0762890901	 0.122293
H	-0.8588003636	 1.890103665	 0.5399486478	 0.122305
H	 1.3176050682	-1.6560382354	-0.78647078	 0.142259
H	 2.2080942832	-0.0975536587	-0.4129389513	 0.113136
H	 1.149776066	-0.0778090976	 1.8963240571	 0.113134
H	 0.2753192004	-1.6365868935	 1.487730418	 0.142262
H	-3.0755623265	-3.0726352355	-1.4109889533	 0.123159
H	-2.4447984547	 0.9031434999	-1.1567464202	 0.275551
55.0656	173.4397	187.5886	243.245	305.8219	320.3218	437.0071	439.2772	549.9576	558.8304	693.4613	769.3877	792.7095	840.5953	846.0942	912.7264	958.7587	960.8361	983.7297	1030.2885	1050.7255	1075.9826	1090.4548	1120.7716	1124.4936	1197.4413	1201.8057	1241.5156	1293.9002	1309.1328	1339.8154	1414.7718	1422.8361	1456.8835	1488.3482	1493.8327	1499.056	1519.1215	1589.6051	3020.5258	3077.8478	3111.9777	3136.1178	3138.9857	3227.7955	3240.6268	3258.3729	3674.33
CC1(CC1)C1=NC=NN1	CC1(CC1)c1ncn[nH]1	
InChI=1S/C6H9N3/c1-6(2-3-6)5-7-4-8-9-5/h4H,2-3H2,1H3,(H,7,8,9)	InChI=1S/C6H9N3/c1-6(2-3-6)5-7-4-8-9-5/h4H,2-3H2,1H3,(H,7,8,9)
