21
gdb 106765	2.06026	1.59604	1.0631	2.0345	78.9	-0.2481	0.0695	0.3177	1217.504	0.180229	-424.201205	-424.191375	-424.190431	-424.235755	36.637	
C	-0.2235454488	 1.5086488446	 0.0407046949	-0.41022
C	-0.0574064984	 0.0041363232	-0.116427608	-0.030493
C	 1.1503158873	-0.5429175022	-0.9657916299	-0.313962
C	 1.6433992485	-1.2907193552	 0.2851680708	 0.342036
C	 2.4638686549	-2.5378674374	 0.3571126003	-0.501537
O	 1.8604499753	-0.2781184302	 1.2862917385	-0.338166
C	 0.5138731022	-0.7726738701	 1.0862224485	 0.316848
C	-0.18616681	-1.2597534039	 2.3141727873	-0.180053
O	-0.5062484251	-0.1858039916	 3.1890003716	-0.415023
H	 0.7106181178	 1.9567584108	 0.3913479098	 0.12662
H	-0.492775077	 1.9795060639	-0.9106525508	 0.109456
H	-1.0067690351	 1.7385269201	 0.7700186494	 0.126029
H	-0.9924033177	-0.4574387652	-0.4521817363	 0.073479
H	 0.8371088431	-1.2042318055	-1.7777433696	 0.101346
H	 1.8490556678	 0.2040783326	-1.351934003	 0.105411
H	 3.4851902986	-2.3458340978	 0.0087192496	 0.132794
H	 2.5211749454	-2.9083146672	 1.3839172382	 0.13223
H	 2.0353855892	-3.3205145781	-0.2771742907	 0.124918
H	-1.1394990653	-1.7276496533	 2.0465985995	 0.110757
H	 0.4342197056	-2.0177948587	 2.8159267393	 0.093321
H	 0.3220172616	 0.2700697011	 3.3774176007	 0.294209
65.0182	115.173	145.667	194.2831	205.5701	221.3897	277.4879	329.7445	334.89	392.8738	422.1769	518.3629	566.9077	608.4451	694.3413	754.0694	815.1659	880.2661	889.7534	923.7098	940.5314	1003.2203	1036.0478	1050.0633	1104.2392	1106.62	1147.4373	1176.0358	1194.6905	1210.5158	1225.0542	1261.5501	1310.0383	1353.9625	1373.8801	1400.8918	1408.4408	1424.7146	1464.3623	1478.1059	1487.7352	1488.5027	1490.765	1505.5167	1518.4856	2991.0619	3033.9713	3034.9658	3047.3198	3059.5248	3074.9911	3095.8241	3101.9291	3113.9385	3118.0203	3121.1956	3801.8515
CC1CC2(C)OC12CO	C[C@H]1C[C@@]2(C)O[C@@]12CO	
InChI=1S/C7H12O2/c1-5-3-6(2)7(5,4-8)9-6/h5,8H,3-4H2,1-2H3	InChI=1S/C7H12O2/c1-5-3-6(2)7(5,4-8)9-6/h5,8H,3-4H2,1-2H3/t5-,6+,7-/m0/s1
