18
gdb 81885	2.94675	1.31498	1.09768	1.739	73.83	-0.2471	-0.0341	0.213	1142.3998	0.145882	-439.048484	-439.039488	-439.038544	-439.08212	33.115	
C	-0.2674153508	 1.5463246401	 0.0922704229	-0.402996
C	 0.0557190128	 0.0654890165	 0.0336390844	 0.045738
C	 1.1040947251	-0.4608638213	-0.9864357363	-0.001958
O	 1.7358098145	 0.551682012	-1.7340516206	-0.425762
C	 1.8599180603	-1.0391810746	 0.2081298269	 0.233239
C	 2.1557201927	 0.0325231183	 1.1974729141	-0.283209
N	 0.8098225411	-0.5217297102	 1.2168949078	-0.1779
C	 2.4098819083	-2.4006200067	 0.3014885866	 0.054918
O	 2.6403173151	-3.0936532927	-0.6618850526	-0.268707
H	 0.6258362365	 2.1738422926	 0.0971291555	 0.132579
H	-0.8595554337	 1.8302030996	-0.7828724969	 0.130828
H	-0.8551875632	 1.763650509	 0.9897710752	 0.126524
H	-0.8698004989	-0.5098727541	-0.0468715335	 0.09585
H	 0.7081196361	-1.2511509843	-1.6327108433	 0.095628
H	 2.3687880014	 0.1358853468	-2.3290234159	 0.293067
H	 2.7387467938	-0.2454672014	 2.0706789761	 0.131372
H	 2.3482207172	 1.029469348	 0.8125232505	 0.139912
H	 2.5975049817	-2.7537475776	 1.3400786492	 0.080876
83.0016	144.378	164.3516	176.6371	216.8574	253.3962	283.428	330.3334	439.0675	459.6657	564.8835	575.1251	707.5924	749.4887	766.0161	804.394	857.6587	943.9307	974.0993	1026.4127	1047.1954	1092.0119	1112.9617	1127.3408	1145.4533	1164.2872	1213.0948	1271.7276	1278.682	1319.3102	1361.6931	1379.9417	1407.9518	1425.0355	1437.1754	1483.0551	1491.517	1504.6127	1800.8159	2885.7587	3046.3276	3050.9967	3077.5251	3113.3164	3119.7827	3133.7923	3208.771	3813.988
CC1C(O)C2(CN12)C=O	C[C@H]1[C@@H](O)[C@]2(CN12)C=O	
InChI=1S/C6H9NO2/c1-4-5(9)6(3-8)2-7(4)6/h3-5,9H,2H2,1H3	InChI=1S/C6H9NO2/c1-4-5(9)6(3-8)2-7(4)6/h3-5,9H,2H2,1H3/t4-,5+,6-,7?/m0/s1
