21
gdb 53675	6.43857	0.55441	0.53719	0.7905	89.7	-0.2398	0.0436	0.2834	2126.7018	0.18048	-387.045375	-387.035022	-387.034078	-387.083231	35.812	
C	 0.3174475603	 1.4986489452	-0.221561127	-0.498785
C	 0.13473041	 0.0679853094	-0.0276197401	 0.134091
C	-0.0234406702	-1.1145338639	 0.1279443074	 0.000693
C	-0.1891491604	-2.5471100693	 0.3294999128	-0.220284
O	-1.4283708292	-2.9786508688	-0.2104298935	-0.254471
C	-1.6344193989	-4.3589478953	-0.06421265	 0.197388
C	-2.0447901597	-4.9283146999	 1.3262445842	-0.247551
C	-3.0752091776	-5.8238490597	 0.583016813	-0.219635
C	-2.9702280072	-4.8671510953	-0.6372341026	-0.252814
H	 1.2322554154	 1.7121739755	-0.7852936135	 0.147782
H	-0.5222855051	 1.9275176299	-0.7793530196	 0.152865
H	 0.3838827986	 2.0277793553	 0.7354431871	 0.147499
H	 0.6422302438	-3.0931717847	-0.1500005636	 0.111373
H	-0.1370255042	-2.7809755384	 1.4059561269	 0.116342
H	-0.7788575485	-4.919482575	-0.4756690626	 0.061009
H	-1.2832201145	-5.4151429607	 1.9398807492	 0.093603
H	-2.5412767413	-4.1505233686	 1.914217203	 0.110053
H	-2.6693523137	-6.8147169046	 0.3620545453	 0.104037
H	-4.0573966589	-5.9470211309	 1.0426863789	 0.102747
H	-3.7156762499	-4.0687593669	-0.5875801409	 0.115854
H	-2.9684001189	-5.2938177133	-1.6423552347	 0.098206
22.0475	38.6771	70.7246	93.7006	146.3933	203.9017	224.1889	300.6	377.0062	390.331	431.2822	518.323	637.2551	755.0602	785.1677	815.0506	899.9592	925.0828	946.8198	975.4088	1025.8173	1036.9378	1051.5291	1057.8147	1066.1582	1139.3812	1168.172	1184.6801	1192.9548	1244.5195	1247.8124	1253.4905	1260.8623	1273.0552	1305.4074	1368.9765	1414.4137	1434.4415	1471.747	1476.8856	1479.2462	1486.2403	1501.5945	1509.9071	2380.7997	2947.51	2964.149	2972.1199	3027.8123	3055.9909	3064.2817	3067.9789	3088.1342	3090.2555	3107.619	3116.756	3129.1427
CC#CCOC1CCC1	CC#CCOC1CCC1	
InChI=1S/C8H12O/c1-2-3-7-9-8-5-4-6-8/h8H,4-7H2,1H3	InChI=1S/C8H12O/c1-2-3-7-9-8-5-4-6-8/h8H,4-7H2,1H3
