17
gdb 74603	3.28127	1.85238	1.3949	1.6983	76.87	-0.2185	0.0005	0.219	936.0279	0.135723	-384.557046	-384.550301	-384.549356	-384.587839	27.924	
C	-0.1056214089	 1.4298535052	 0.0836183117	-0.509151
C	 0.0054898547	-0.0503491273	-0.0065147532	 0.179222
C	-0.0321781353	-0.9040158221	-1.0479279435	-0.181012
C	 0.1433799921	-2.3351451724	-0.4726901364	-0.172391
C	-0.6951112289	-2.2950526321	 0.8452707301	-0.062172
C	 0.4099528253	-2.6643517515	 1.8593243454	-0.025797
O	 0.3698265344	-1.3144478305	 2.5368248417	-0.401698
C	 0.2030968282	-1.0581076823	 1.1181203972	 0.394455
C	 1.2135910485	-2.1398113841	 0.6490021721	-0.062173
H	 0.7914784879	 1.8693011983	 0.5369009941	 0.137352
H	-0.2435867684	 1.8762732199	-0.9047648563	 0.129587
H	-0.9509969117	 1.7275896001	 0.7161218656	 0.137352
H	-0.1597965403	-0.6559517477	-2.0927197484	 0.101784
H	 0.141032682	-3.1780739685	-1.1622399148	 0.067911
H	-1.776012114	-2.3309368306	 0.9828276697	 0.085338
H	 0.5473070571	-3.5176262298	 2.5201751183	 0.096055
H	 2.2915117775	-2.0001154646	 0.5645726666	 0.085338
172.8994	184.0211	228.4882	413.9026	475.4478	509.2786	570.2263	574.8182	699.3309	737.0805	749.2951	799.497	807.0673	853.9102	865.9576	891.1796	898.917	924.9973	989.6726	1012.6236	1033.4762	1065.1057	1071.5807	1098.7562	1121.1752	1154.9392	1162.8359	1198.204	1203.1141	1242.0823	1275.7945	1296.291	1330.3032	1415.0682	1475.5172	1486.0699	1649.0781	3021.2133	3067.6765	3113.0768	3115.4071	3119.5835	3126.5421	3146.3046	3227.7323
CC1=CC2C3C4OC13C24	CC1=C[C@@H]2[C@H]3[C@@H]4O[C@]13[C@H]24	
InChI=1S/C8H8O/c1-3-2-4-5-7-6(4)8(3,5)9-7/h2,4-7H,1H3	InChI=1S/C8H8O/c1-3-2-4-5-7-6(4)8(3,5)9-7/h2,4-7H,1H3/t4-,5+,6-,7+,8-
