19
gdb 102848	2.90758	0.86206	0.74393	2.2114	76.99	-0.2449	-0.0401	0.2048	1523.2595	0.156423	-419.206938	-419.196616	-419.195672	-419.243695	35.461	
C	-1.6328377255	-0.5189239551	 0.0460799505	-0.396334
C	-0.1608205514	-0.0838221609	-0.0176146331	-0.166562
N	 0.6557882532	-0.6630802583	-1.0951210877	-0.078375
C	 0.9277691025	-2.0812592762	-0.9401690279	-0.244377
C	 1.8760092339	-2.3313906817	 0.2265430083	 0.153222
O	 1.8704844337	-3.3276050715	 0.8983732359	-0.232889
C	 0.230364142	-0.3045250784	-2.4405393362	-0.286418
C	 0.2631790789	 1.1484182301	-2.6555189925	 0.277064
N	 0.2721128476	 2.2896106263	-2.8330561462	-0.304375
H	-2.1884513596	-0.2205341445	-0.8484567783	 0.125932
H	-1.739311417	-1.6008312475	 0.1698328375	 0.128483
H	-2.1165607446	-0.0401614627	 0.9026872081	 0.130872
H	-0.1037245603	 1.0054479132	-0.1125862492	 0.137665
H	 0.3333679499	-0.3353481902	 0.9276558311	 0.117984
H	 0.0424648983	-2.7262337098	-0.8214828339	 0.118821
H	 1.4586881949	-2.4352661322	-1.8355994864	 0.131048
H	 2.6071001269	-1.5071646966	 0.3862439101	 0.094831
H	 0.9186713161	-0.7632747417	-3.159293329	 0.155521
H	-0.7814614894	-0.6580643224	-2.7082979711	 0.137888
41.2463	53.1797	82.838	136.0982	154.0271	222.7596	242.5122	268.3073	339.2549	388.219	407.9092	466.2574	484.5733	618.4756	748.842	791.8426	816.6636	937.0503	963.5697	1004.9206	1046.5601	1067.357	1091.0463	1101.6372	1180.3248	1208.5249	1255.0053	1296.4263	1320.526	1375.7622	1388.7028	1396.671	1409.3824	1410.7077	1461.554	1481.5357	1485.305	1501.4426	1505.0723	1842.4062	2366.2545	2888.2146	2946.2595	2980.238	3031.589	3039.9395	3043.8571	3061.6402	3080.0376	3111.9579	3117.1902
CCN(CC=O)CC#N	CCN(CC=O)CC#N	
InChI=1S/C6H10N2O/c1-2-8(4-3-7)5-6-9/h6H,2,4-5H2,1H3	InChI=1S/C6H10N2O/c1-2-8(4-3-7)5-6-9/h6H,2,4-5H2,1H3
