17
gdb 127571	3.34	1.28608	0.93949	2.8	85.94	-0.2167	0.007	0.2237	1220.2806	0.135275	-380.874579	-380.865381	-380.864436	-380.908871	32.957	
C	 0.0085895422	 1.4185760542	-0.0300029363	-0.329139
N	 0.0059341688	-0.0276432951	 0.0284878387	-0.010141
N	-0.0285827862	-0.7418802793	-1.1236154713	-0.262701
C	-0.0220819639	-2.0076258827	-0.7367103751	-0.109013
C	 0.016839232	-2.1278800222	 0.6766369978	-0.001566
C	 0.0346821283	-3.3004583664	 1.462372403	 0.247024
C	 0.0499537644	-4.300828637	 2.1345422684	-0.461042
C	 0.034119662	-0.8106749054	 1.134774157	 0.263269
C	 0.0750456405	-0.2768857706	 2.5257610683	-0.518417
H	 0.9112988298	 1.8291503799	 0.4336324308	 0.140519
H	-0.0158536186	 1.6974180128	-1.0824631717	 0.166774
H	-0.8685143135	 1.8344237365	 0.4762222746	 0.140539
H	-0.0450796857	-2.8022328722	-1.467036369	 0.119161
H	 0.063319243	-5.1849893783	 2.7215553598	 0.183692
H	 0.9689078762	 0.3323291323	 2.7044968604	 0.137472
H	-0.7974290377	 0.3477902214	 2.7505636047	 0.137291
H	 0.0863281983	-1.1106053878	 3.2303224901	 0.156277
58.5976	116.3456	126.4415	134.1302	233.1731	253.9888	263.4077	393.126	477.9226	523.8404	528.5178	569.0191	651.4579	655.8977	700.4447	701.014	769.0156	877.7816	957.0853	1035.8135	1060.0037	1127.533	1150.0199	1201.6653	1210.8201	1319.584	1390.0094	1416.1816	1423.2342	1455.0989	1479.4628	1483.8643	1491.2906	1498.9647	1524.1674	1587.7774	2229.2009	3026.9569	3038.9328	3076.2434	3096.9058	3134.8724	3168.7132	3255.2587	3504.9742
CN1N=CC(C#C)=C1C	Cn1ncc(C#C)c1C	
InChI=1S/C7H8N2/c1-4-7-5-8-9(3)6(7)2/h1,5H,2-3H3	InChI=1S/C7H8N2/c1-4-7-5-8-9(3)6(7)2/h1,5H,2-3H3
