15
gdb 61350	3.21525	0.93799	0.81023	1.6218	76.25	-0.2747	-0.0459	0.2288	1402.118	0.108166	-420.581062	-420.571419	-420.570475	-420.616257	34.121	
C	-0.0326478471	 1.5444442696	-0.0197520187	-0.402733
C	 0.0072826717	 0.0148158066	-0.000452966	-0.061157
O	 0.6417991054	-0.4720579981	-1.2198847211	-0.241439
C	-0.1759453108	-0.6560013538	-2.2724298832	 0.312267
O	-1.3634132565	-0.4416600171	-2.2798366515	-0.359122
C	 0.5652713186	-1.1517810245	-3.4109547652	 0.225966
C	 1.1317800851	-1.5624687478	-4.387369196	-0.353103
C	 0.7692042076	-0.5186782661	 1.1208121221	 0.32716
C	 1.3770552063	-0.9285986988	 2.0715973639	-0.434633
H	 0.9781406185	 1.948559944	-0.1115029398	 0.139127
H	-0.6422666321	 1.8848848471	-0.8594598389	 0.144785
H	-0.4748322635	 1.9127701818	 0.9094672241	 0.136798
H	-1.0138919004	-0.377474506	 0.0148965836	 0.145202
H	 1.6341710893	-1.9261408168	-5.2506062635	 0.21473
H	 1.9136921279	-1.3020231802	 2.9087992504	 0.206152
49.6492	73.6336	116.7505	182.0824	205.2887	241.0018	270.6223	307.748	396.8382	462.5368	544.1155	566.377	619.9423	629.6027	658.655	683.5722	702.6929	774.6223	840.1207	887.8117	957.4224	1042.7855	1108.4003	1138.2333	1246.9697	1347.6027	1362.2735	1400.4538	1487.2044	1493.768	1785.2222	2238.4945	2247.9735	3055.142	3073.5156	3135.2844	3144.5054	3497.2013	3503.2476
CC(OC(=O)C#C)C#C	C[C@@H](OC(=O)C#C)C#C	
InChI=1S/C7H6O2/c1-4-6(3)9-7(8)5-2/h1-2,6H,3H3	InChI=1S/C7H6O2/c1-4-6(3)9-7(8)5-2/h1-2,6H,3H3/t6-/m1/s1
