16
gdb 76539	2.81837	1.21663	1.17747	3.0335	67.35	-0.2465	0.0234	0.2699	1112.6393	0.123495	-474.983653	-474.975219	-474.974275	-475.01685	31.286	
O	 0.1049543474	 1.3436551001	-0.009200289	-0.426102
C	 0.0634751205	-0.044592888	 0.0099913397	 0.030563
C	-0.457243782	-0.7166532326	 1.2522082187	-0.04801
O	-0.9239043692	 0.14318057	 2.260777559	-0.42778
C	-1.2952286199	-0.7262127845	 0.0060138756	 0.127104
C	-2.6561272446	-0.1076465334	-0.2677331349	-0.146796
O	-3.0014848197	-1.2958237509	-1.0611155253	-0.269669
C	-1.7754302751	-1.8810843666	-0.7943741012	 0.38691
N	-1.2934308978	-2.9891957419	-1.1314126307	-0.568073
H	-0.2766426322	 1.6359578705	 0.8313471248	 0.288121
H	 0.8618173587	-0.5043466068	-0.5635435015	 0.131022
H	-0.0408033282	-1.6658892744	 1.5820823458	 0.123212
H	-0.2153643962	 0.255577491	 2.9048189228	 0.303771
H	-3.3260089223	-0.0007461182	 0.5880999995	 0.132619
H	-2.6554854507	 0.7945060647	-0.8835773952	 0.133414
H	-1.9464180685	-3.5245028891	-1.7048695682	 0.229694
98.7123	128.7226	143.4049	218.253	235.2349	289.3138	324.8652	473.6546	496.6033	560.2896	622.0448	656.4523	662.3818	784.4746	846.8776	854.229	891.9417	944.0472	989.8273	1020.9869	1060.4987	1078.3687	1120.1736	1139.2734	1156.7817	1169.6009	1235.4588	1258.1598	1295.3192	1324.4739	1369.3034	1410.4936	1487.2326	1517.0902	1822.8085	3067.8165	3129.3316	3134.0403	3171.6267	3487.2726	3729.8071	3800.6663
OC1C(O)C11COC1=N	O[C@H]1[C@@H](O)[C@]21CO[C]2[NH]	
InChI=1S/C5H7NO3/c6-4-5(1-9-4)2(7)3(5)8/h2-3,6-8H,1H2	InChI=1S/C5H7NO3/c6-4-5(1-9-4)2(7)3(5)8/h2-3,6-8H,1H2/t2-,3+,5+
