23
gdb 114063	2.72449	1.13015	0.95216	1.0306	86.29	-0.2374	0.0804	0.3178	1369.9508	0.20405	-388.271526	-388.261471	-388.260527	-388.305986	38.288	
C	 0.0323249395	 1.5609520676	-0.0599369567	-0.378419
C	 0.0067095897	 0.043067474	 0.1497061512	-0.195018
C	-1.3891780671	-0.5559703508	-0.0012226341	-0.006202
C	-2.0527983347	-0.6088177605	-1.4257972846	-0.320656
C	-2.2280578131	-2.1199714273	-1.2474882864	 0.363585
O	-3.3655776095	-2.8240389911	-1.6099439085	-0.467982
C	-0.8974901465	-2.7860522753	-1.0351654933	-0.402356
C	-1.5767531734	-2.081508353	 0.1282438258	 0.277699
C	-1.9396730087	-2.7941433346	 1.3991539237	-0.499585
H	 1.0434870586	 1.963268966	 0.0571170383	 0.10979
H	-0.3182536317	 1.8296341893	-1.0624310015	 0.117459
H	-0.6149030002	 2.0709422782	 0.6624936529	 0.112562
H	 0.6955791855	-0.4341264278	-0.5584613863	 0.092535
H	 0.3895046926	-0.1938457237	 1.1513284796	 0.093993
H	-2.0692286478	-0.0499755584	 0.6948814861	 0.067374
H	-3.0070964852	-0.0792059113	-1.4641892552	 0.105363
H	-1.4334329632	-0.2882643002	-2.2720853066	 0.084727
H	-3.2384894633	-3.1697890478	-2.5002249994	 0.282968
H	-0.9500521232	-3.8694027756	-0.9764775977	 0.107331
H	 0.0124330104	-2.4056039126	-1.494628117	 0.099032
H	-1.0815986774	-2.8740597442	 2.0774808393	 0.116207
H	-2.7373428838	-2.2652010126	 1.9336564529	 0.115565
H	-2.2952735874	-3.8084533884	 1.1920580476	 0.12403
90.9998	131.884	151.3662	176.1067	188.6003	237.567	256.8167	293.6669	332.6304	381.0022	440.6267	455.2467	566.1272	573.6365	693.3491	738.0032	771.7387	815.3393	854.4023	932.0018	950.5632	965.461	971.6087	990.2706	1050.3045	1059.4853	1085.0218	1093.164	1130.4588	1170.36	1191.3983	1228.8152	1234.0878	1251.8193	1289.8002	1301.9962	1331.5673	1348.014	1383.6504	1409.965	1412.7016	1430.0156	1477.9729	1484.9098	1487.0369	1497.4741	1499.2164	1506.9849	1518.7831	3016.5397	3020.0026	3023.8594	3028.6755	3030.2478	3051.8658	3076.7397	3095.6728	3098.4704	3100.2498	3100.9669	3107.8534	3191.4861	3790.8322
CCC1CC2(O)CC12C	CC[C@H]1C[C@@]2(O)C[C@@]12C	
InChI=1S/C8H14O/c1-3-6-4-8(9)5-7(6,8)2/h6,9H,3-5H2,1-2H3	InChI=1S/C8H14O/c1-3-6-4-8(9)5-7(6,8)2/h6,9H,3-5H2,1-2H3/t6-,7-,8+/m0/s1
