22
gdb 15906	2.48814	1.7584	1.2087	1.6127	78.02	-0.2372	0.0805	0.3177	1109.1288	0.198967	-350.203087	-350.193643	-350.192699	-350.237542	34.723	
C	-0.010187434	 1.6966642525	 0.1155096511	-0.390909
C	 0.0249671293	 0.1656886556	 0.1915963552	-0.187355
C	-1.3534071002	-0.4776331858	 0.0487791898	-0.070941
C	-1.959629045	-0.6779801011	-1.3747392875	 0.162222
C	-1.2986879316	-0.1226550129	-2.6212962463	-0.407281
O	-1.7979351406	-2.1116663254	-1.2757339859	-0.313082
C	-1.446010671	-2.0290204283	 0.1238072455	 0.147986
C	-0.2322770796	-2.8718999051	 0.4634891385	-0.404179
H	 0.989317913	 2.1212274181	 0.2517090086	 0.113366
H	-0.3888492662	 2.045584333	-0.8500548836	 0.120944
H	-0.6584807785	 2.1133957488	 0.8944202456	 0.114809
H	 0.7140305595	-0.2252892659	-0.5652338464	 0.102769
H	 0.4459370197	-0.1324356861	 1.1604502104	 0.097677
H	-2.0446744727	 0.0211844686	 0.7354138049	 0.06525
H	-3.0297890472	-0.4199183008	-1.3908866923	 0.065721
H	-0.2201074622	-0.3001772276	-2.6255223916	 0.118776
H	-1.7227282502	-0.6185615031	-3.5006391904	 0.126882
H	-1.4819292712	 0.9521446474	-2.7200906213	 0.115217
H	-2.2947943318	-2.3516260626	 0.746503413	 0.065053
H	 0.6416393069	-2.577166853	-0.1229673248	 0.118697
H	 0.0130979327	-2.7899106912	 1.5279006774	 0.113323
H	-0.4461562792	-3.923513135	 0.2469898402	 0.125052
32.429	112.4854	171.1418	206.0648	216.6956	234.3809	274.2357	302.5169	370.7952	397.5172	483.0898	519.6398	726.6492	744.5263	812.4573	839.8179	878.9311	931.5006	958.0155	1007.9094	1024.9491	1058.3499	1073.4869	1081.5705	1121.9212	1156.1941	1174.5189	1198.2984	1245.9949	1283.1857	1287.8811	1337.047	1344.6271	1372.0518	1397.6512	1399.2073	1402.2619	1413.3361	1426.4799	1478.5048	1482.1574	1485.6424	1497.3258	1499.1266	1503.4673	1509.5273	2971.8681	2976.8614	3024.2707	3034.2109	3037.1541	3039.0039	3049.0359	3065.333	3100.5083	3104.0635	3104.9451	3111.3008	3120.3411	3122.0958
CCC1C(C)OC1C	CC[C@H]1[C@@H](C)O[C@H]1C	
InChI=1S/C7H14O/c1-4-7-5(2)8-6(7)3/h5-7H,4H2,1-3H3	InChI=1S/C7H14O/c1-4-7-5(2)8-6(7)3/h5-7H,4H2,1-3H3/t5-,6+,7+
