20
gdb 78752	2.70023	1.6629	1.48297	0.5577	77.8	-0.2257	0.0849	0.3106	1011.1487	0.171538	-403.109633	-403.101576	-403.100631	-403.141752	31.808	
C	-0.3729400003	 1.5524940552	 0.0027040733	-0.420143
C	 0.0260199701	 0.0885554428	 0.0423156784	 0.058676
C	 1.0131471271	-0.5177400574	-0.9877691005	 0.047142
O	 1.9972342942	 0.425493657	-1.3888271392	-0.260493
C	 2.7318659927	 0.7866139529	-0.216170054	-0.151198
C	 2.3355691063	-0.217122617	 0.8584771307	 0.306973
C	 3.2558185014	-0.4250104543	 2.0317519802	-0.481003
C	 1.5978119967	-1.3091039209	 0.2013885813	-0.111928
N	 0.8843245791	-0.4061891537	 1.1885255104	-0.209802
H	 0.4593113179	 2.2100918257	-0.2522643537	 0.129324
H	-1.1577726418	 1.708845246	-0.7449955837	 0.118825
H	-0.7706020192	 1.8538088221	 0.9775238424	 0.12584
H	-0.8748591045	-0.5343833923	 0.0865867233	 0.082655
H	 0.6269202226	-1.0184773951	-1.8750796373	 0.082736
H	 3.805764167	 0.7116192114	-0.4321282386	 0.106129
H	 2.5198338437	 1.8231747957	 0.0764578496	 0.103021
H	 3.3709175504	 0.5026761957	 2.6031148626	 0.125146
H	 2.8476213247	-1.1819444456	 2.7049636154	 0.136205
H	 4.2494983906	-0.7443145971	 1.6995901513	 0.119212
H	 1.7217379911	-2.375951331	 0.3429784481	 0.092684
132.3421	174.3234	199.2341	239.9733	253.1859	311.6105	358.6173	473.8284	546.8833	612.2326	635.0526	678.1104	781.8645	809.0989	870.1411	889.8944	897.1703	924.9938	959.9024	1003.5738	1011.1103	1023.5997	1041.5651	1099.039	1119.8593	1128.4057	1154.1593	1193.6318	1221.2804	1230.1603	1268.3825	1298.0764	1334.0596	1355.9385	1388.0889	1407.0072	1413.9066	1427.6729	1485.7229	1488.6823	1493.7956	1495.7918	1526.7213	3008.593	3034.5755	3034.9645	3039.0376	3043.5975	3095.1628	3102.7957	3122.7038	3128.638	3141.6432	3186.0227
CC1C2OCC3(C)C2N13	C[C@H]1[C@H]2OC[C@]3(C)[C@H]2N13	
InChI=1S/C7H11NO/c1-4-5-6-7(2,3-9-5)8(4)6/h4-6H,3H2,1-2H3	InChI=1S/C7H11NO/c1-4-5-6-7(2,3-9-5)8(4)6/h4-6H,3H2,1-2H3/t4-,5+,6-,7+,8?/m0/s1
