12
gdb 132931	3.11194	1.37349	0.95291	1.9222	62.98	-0.2241	-0.0574	0.1667	1080.9619	0.076258	-521.887261	-521.88022	-521.879276	-521.919038	26.508	
F	 0.0205581222	 0.0107352494	 0.0035418233	-0.054413
C	-0.0270443062	 1.3399985668	 0.010743272	 0.060285
C	-1.1853235679	 2.015501033	 0.0290348397	-0.039738
O	-1.2347573269	 3.3650784531	 0.0363647417	-0.238666
C	-0.0717687175	 4.1538064257	 0.0253077842	 0.406574
N	-0.1579526587	 5.4184517178	 0.0327040798	-0.534468
C	 1.1849905337	 3.4319802847	 0.0054870493	-0.320374
C	 1.2038267891	 2.0876243906	-0.0014310521	 0.226506
F	 2.3294486433	 1.3926599581	-0.0194142669	-0.043666
H	-2.1604467674	 1.5475346579	 0.0392952615	 0.160135
H	-1.1318398938	 5.7197200863	 0.0467679169	 0.226816
H	 2.0947573101	 4.0154866364	-0.0033604893	 0.151009
99.4095	202.7872	274.4558	355.8102	367.5638	387.1255	420.8391	533.7639	589.4664	668.5426	678.6809	747.2034	774.648	829.0504	846.4632	871.5591	885.2376	1074.1575	1191.2644	1233.7293	1252.2673	1279.1903	1336.6414	1492.1308	1640.6773	1709.0771	1754.4353	3233.2563	3241.5186	3502.372
FC1=COC(=N)C=C1F	FC1=C(C=C(OC1)[NH])F	
InChI=1S/C5H3F2NO/c6-3-1-5(8)9-2-4(3)7/h1-2,8H	InChI=1S/C5H4F2NO/c6-3-1-5(8)9-2-4(3)7/h1,8H,2H2
