23
gdb 101896	3.15319	0.62867	0.54758	2.9422	84.6	-0.2519	-0.0246	0.2273	2045.1669	0.201738	-425.438001	-425.426533	-425.425589	-425.476539	39.406	
C	 0.1465482646	 1.5458757945	-0.211795598	-0.38579
C	 0.0845968275	 0.0256601185	-0.0495026266	-0.173044
C	 0.6729617497	-0.4708514876	 1.272481756	 0.153829
C	 0.49495176	-1.980589628	 1.4520068111	-0.404705
O	 2.0522637549	-0.1017377912	 1.270839765	-0.257077
C	 2.6733082955	-0.0733877838	 2.5343395645	-0.06705
C	 4.0758763714	 0.5102766044	 2.3520169982	-0.278335
C	 4.9159324761	 0.3775780244	 3.6005916444	 0.153188
O	 5.4746869884	 1.2865593887	 4.1575391401	-0.23346
H	 1.1783906232	 1.8979038799	-0.1393403024	 0.130517
H	-0.2547549929	 1.8553145041	-1.1814329107	 0.110744
H	-0.4371611094	 2.0510888632	 0.5661852335	 0.109272
H	-0.9540958142	-0.3198447923	-0.1135045689	 0.094238
H	 0.629224387	-0.4619782672	-0.8676859026	 0.103632
H	 0.1702340059	 0.0529081176	 2.1043134051	 0.063447
H	 0.9172189157	-2.3310819684	 2.3982452534	 0.115009
H	-0.5677293935	-2.2426753772	 1.4487820813	 0.117282
H	 0.987036243	-2.5201388697	 0.6364343487	 0.123172
H	 2.0919977181	 0.5442475606	 3.2385492913	 0.100403
H	 2.7447842373	-1.0827689137	 2.9717601737	 0.091566
H	 4.5692875502	-0.0612927451	 1.5533414265	 0.131822
H	 4.0334459927	 1.5593212446	 2.0506882997	 0.129599
H	 4.9955586388	-0.6650949463	 3.9910762568	 0.071743
42.4031	45.4439	67.989	106.0028	125.2794	142.5362	205.3199	222.9352	247.4751	311.341	331.2337	412.123	485.5975	498.4195	535.5648	769.9689	789.6389	833.2261	873.6995	904.8852	976.5189	995.6822	1013.234	1035.4843	1097.041	1119.0124	1136.0597	1143.0363	1163.4368	1199.317	1228.2632	1275.1978	1301.5683	1309.2658	1331.3486	1373.4356	1395.441	1406.4865	1407.1347	1432.9521	1439.6396	1466.3603	1473.6966	1491.8168	1496.8162	1498.8768	1510.7226	1528.8171	1837.9654	2847.8915	2949.7309	2962.7858	2989.7871	3026.8446	3028.3718	3036.6127	3039.7917	3066.4363	3101.0643	3110.3544	3113.6786	3117.7741	3126.0965
CCC(C)OCCC=O	CC[C@@H](C)OCCC=O	
InChI=1S/C7H14O2/c1-3-7(2)9-6-4-5-8/h5,7H,3-4,6H2,1-2H3	InChI=1S/C7H14O2/c1-3-7(2)9-6-4-5-8/h5,7H,3-4,6H2,1-2H3/t7-/m1/s1
