18
gdb 65063	2.19423	1.73826	1.14335	1.6968	77.92	-0.238	0.0352	0.2732	1095.3801	0.145639	-401.86317	-401.854239	-401.853294	-401.896493	34.807	
O	 0.1172684601	 0.9385902601	-1.1308555784	-0.45901
C	 0.0383630612	-0.0261523804	-0.1089118737	 0.304599
C	 1.2934910754	-0.7837175859	 0.2304848648	-0.341851
C	 0.7783368863	 0.3021491591	 1.1555564198	-0.294073
C	-1.3271285799	-0.6936956027	-0.0360317406	 0.097853
C	-2.5252697578	 0.1466816036	-0.3417976482	-0.266652
N	-2.087943034	-0.8807906436	-1.2962626714	-0.35341
C	-1.452720062	-1.7656656812	 0.9209246556	 0.254571
C	-1.5495482196	-2.6412834889	 1.7394811031	-0.407496
H	 0.5634838569	 0.5395646925	-1.8845966321	 0.291362
H	 1.2000650199	-1.814852241	 0.5492323658	 0.136481
H	 2.1765291573	-0.5589888972	-0.3590741251	 0.109719
H	 1.307208028	 1.247718461	 1.1649807781	 0.123005
H	 0.339968464	-0.0012680802	 2.0989442297	 0.130834
H	-3.4610710556	-0.0652525268	 0.1652014675	 0.125855
H	-2.3390258527	 1.1880081275	-0.5854103893	 0.131443
H	-1.5681466005	-0.4137950949	-2.0373349371	 0.222858
H	-1.6473889671	-3.421925941	 2.4527651916	 0.193912
58.0588	147.44	202.1596	249.6397	261.8385	309.6856	353.7052	386.3531	434.4629	490.8758	533.9195	575.8029	590.5	609.159	658.0411	774.1211	827.9331	857.9885	907.7292	929.6908	937.7088	945.6469	987.6646	999.4478	1055.7246	1074.7316	1084.8518	1125.7287	1192.4553	1216.8237	1249.3486	1294.017	1332.3323	1352.1991	1364.9431	1448.0458	1487.4792	1494.5758	2236.5872	3121.3974	3134.2753	3145.6006	3216.9911	3226.6029	3242.0106	3486.3634	3501.7461	3813.5909
OC1(CC1)C1(CN1)C#C	OC1(CC1)[C@]1(CN1)C#C	
InChI=1S/C7H9NO/c1-2-6(5-8-6)7(9)3-4-7/h1,8-9H,3-5H2	InChI=1S/C7H9NO/c1-2-6(5-8-6)7(9)3-4-7/h1,8-9H,3-5H2/t6-/m1/s1
