18
gdb 38014	3.39113	2.16306	1.80025	0.943	80.86	-0.1986	-0.0187	0.18	817.6833	0.151007	-364.683014	-364.677214	-364.67627	-364.712598	25.963	
C	-0.084609529	 1.6006594707	-0.0051789812	-0.239915
C	 1.4649026658	 1.6347854472	 0.0543482812	-0.078503
C	 2.0717679512	 1.4386977006	 1.3859219223	-0.107346
C	 1.6988523082	 0.2667123881	 1.9658124092	-0.009221
C	 2.7053778656	-0.8482332345	 1.6161738617	-0.18952
N	 1.7693299382	-1.0610320422	 0.4343493727	-0.103742
C	 1.4374367531	 0.0367048333	-0.5302405071	-0.030238
C	-0.0298244691	 0.0788243786	-0.0236491508	-0.037256
C	 0.6014375653	-0.5466427504	 1.2452103907	-0.026882
H	-0.6081386471	 2.0874220035	 0.8210027868	 0.106474
H	-0.4595051576	 2.0001215147	-0.9519554318	 0.100678
H	 1.9602654133	 2.3809801328	-0.5682049488	 0.071294
H	 3.0965696359	 1.7782949962	 1.5281424483	 0.080244
H	 3.732540566	-0.5526036168	 1.3951234653	 0.11435
H	 2.6840694471	-1.76920475	 2.2077585047	 0.11276
H	 1.7716561569	-0.1018261822	-1.5564487535	 0.085794
H	-0.8221190249	-0.5206685267	-0.4729912111	 0.073491
H	 0.0520924312	-1.2801573529	 1.8396950613	 0.077539
278.6676	360.8668	414.1061	504.8426	557.5292	591.1108	606.3787	645.1034	732.3451	763.619	807.5993	841.7999	860.7263	882.809	895.5795	927.2959	954.2893	999.5382	1004.0854	1017.2813	1038.0781	1062.4933	1089.4882	1103.0167	1116.5637	1151.5815	1163.5824	1183.1852	1215.5762	1230.5513	1254.7241	1262.8229	1300.6903	1327.0462	1345.6047	1351.5992	1491.9935	1503.3347	1571.1079	3045.3023	3053.6702	3076.5606	3096.7015	3104.3853	3109.0577	3121.9541	3127.976	3140.1815
C1C2C=C3CN4C2C1C34	C1[C@H]2[CH][C]3CN4[C@H]2[C@H]1[C@H]34	
InChI=1S/C8H9N/c1-4-2-6-7(4)9-3-5(1)8(6)9/h1,4,6-8H,2-3H2	InChI=1S/C8H9N/c1-4-2-6-7(4)9-3-5(1)8(6)9/h1,4,6-8H,2-3H2/t4-,6+,7-,8+/m1/s1
