16
gdb 24557	2.19181	2.05929	1.21554	3.9081	84.07	-0.2047	-0.0121	0.1925	1008.881	0.127025	-396.931743	-396.924205	-396.923261	-396.963717	28.734	
N	-0.0489690202	 1.2900756425	-0.1655393572	-0.29208
C	 0.9335297429	 2.2725340274	 0.033443767	-0.040001
C	 2.2490952986	 2.2156742322	-0.2337924454	-0.076371
C	 3.0776100449	 1.1200724334	-0.6943580721	-0.165215
C	 3.3083111267	-0.072675626	-0.0970489214	-0.005768
N	 2.9147949153	-0.486865388	 1.1448945474	-0.233066
C	 1.7175078224	-0.6578100527	 1.5693918857	 0.057679
N	 0.5555731126	-0.8012467506	 0.8759205523	-0.234246
C	-0.1164563158	-0.0484838411	 0.1003068721	 0.097711
H	-0.8951395441	 1.6468672546	-0.5845390784	 0.256929
H	 0.5028107671	 3.228374097	 0.3182317805	 0.106943
H	 2.7540266626	 3.1775173877	-0.1416716463	 0.103069
H	 3.7242244935	 1.3584090521	-1.5368015724	 0.09205
H	 4.0573598924	-0.7201862605	-0.552770873	 0.102285
H	 1.6138044498	-0.9212166128	 2.6249094132	 0.113666
H	-0.9795755486	-0.4990815052	-0.3955174521	 0.116416
126.1951	136.8538	197.4995	240.7159	357.3144	369.0108	487.3216	513.091	545.3009	644.4072	685.7866	728.4128	806.2484	843.432	863.2056	892.5561	953.6435	960.8462	963.1168	981.438	995.9791	1029.8387	1114.195	1243.3784	1280.4267	1343.0753	1399.4548	1446.3032	1463.6615	1497.2012	1546.6922	1623.9119	1664.2261	1707.0123	1766.8524	3093.4203	3099.0464	3115.6205	3120.6283	3144.541	3165.3282	3600.2033
N1C=CC=CN=CN=C1	N1C=CC=C[N][CH]N=C1	
InChI=1S/C6H7N3/c1-2-4-8-6-9-5-7-3-1/h1-6H,(H,7,8,9)/b3-1-,4-2-	InChI=1S/C6H7N3/c1-2-4-8-6-9-5-7-3-1/h1-6H,(H,7,8,9)/b3-1-,4-2-
