16
gdb 22353	2.45709	1.36374	0.92256	3.8725	68.66	-0.2659	-0.0213	0.2446	1212.4955	0.122872	-475.033115	-475.0245	-475.023555	-475.067204	31.327	
C	-0.0542538291	 1.5566796053	-0.0041123369	-0.389754
C	 0.0428858693	 0.0377441502	 0.02882675	 0.049745
O	 0.7847325273	-0.4357491639	-1.1136938958	-0.231538
C	 1.841566217	-1.2286420697	-0.7806298985	 0.431815
O	 2.5613219919	-1.7098492575	-1.603692097	-0.328402
C	 1.920571249	-1.3725929155	 0.7342596393	-0.481568
C	 0.7926176425	-0.5225216286	 1.2247460327	 0.370655
N	 0.4399507896	-0.244769366	 2.4119995287	-0.218179
O	 1.2719876165	-0.8724336003	 3.3461015796	-0.383171
H	 0.9416249576	 2.0071393807	 0.0294148089	 0.128414
H	-0.5587467886	 1.8848212363	-0.9162563483	 0.13485
H	-0.6222085322	 1.9011998566	 0.8637169201	 0.142878
H	-0.959518493	-0.4027078666	-0.035565898	 0.120059
H	 1.816625042	-2.4239749216	 1.0229823773	 0.170036
H	 2.8965939523	-1.0451843619	 1.1051130644	 0.17095
H	 0.9024662676	-0.5793565476	 4.1865091534	 0.313209
40.3924	107.6043	173.381	202.3928	235.2923	313.1667	382.0354	450.441	473.2417	509.2295	533.0506	574.5722	651.9312	699.0612	816.9183	846.6783	952.5123	959.3661	996.8756	1039.7413	1104.7689	1119.5884	1149.9061	1175.5228	1249.0652	1258.4075	1342.8201	1368.4929	1402.1593	1411.2639	1433.3774	1486.052	1492.5902	1769.115	1890.9858	3034.1714	3050.3952	3062.1873	3096.9355	3129.6506	3136.381	3812.7843
CC1OC(=O)CC1=NO	C[C@H]1OC(=O)CC1=NO	
InChI=1S/C5H7NO3/c1-3-4(6-8)2-5(7)9-3/h3,8H,2H2,1H3	InChI=1S/C5H7NO3/c1-3-4(6-8)2-5(7)9-3/h3,8H,2H2,1H3/t3-/m1/s1
