16
gdb 22469	3.82726	0.77152	0.65788	8.4779	78.21	-0.2252	-0.0653	0.1599	1617.1961	0.122432	-471.152078	-471.142497	-471.141553	-471.187432	33.049	
O	-0.3621984119	 0.3501700991	-0.1875496131	-0.412903
N	-0.0774917169	 1.5429957113	 0.032029491	 0.070768
C	 1.095543459	 2.1534410545	 0.0481436044	 0.179166
C	 1.0897299791	 3.6362348048	 0.3680032552	-0.234595
N	-0.2645081004	 4.1380538381	 0.4737985018	-0.246506
C	-0.5315196063	 5.2596191198	-0.0679459587	 0.116317
N	-1.7447651977	 5.8659301045	 0.0400677588	-0.494839
H	-1.9910556097	 6.5874324672	-0.6151255489	 0.268286
H	-2.5024288086	 5.3277185106	 0.4313105345	 0.266538
C	 2.3558833566	 1.4648580523	-0.2030285435	 0.093359
O	 2.5100003185	 0.291629927	-0.4615709075	-0.266298
H	 1.6095846332	 3.7922733145	 1.3267127056	 0.130031
H	 1.685464895	 4.1747959376	-0.3905341419	 0.104898
H	-0.851757415	 2.2001953811	 0.2449277213	 0.262434
H	 0.206376573	 5.8488820132	-0.6290792397	 0.103134
H	 3.2297232519	 2.1567744644	-0.1368439992	 0.06021
49.337	74.9373	142.0154	163.7878	206.3561	261.7442	289.7633	303.5329	349.0887	372.9508	409.1558	507.1773	573.8847	607.2834	738.499	939.9684	947.6829	985.923	1029.1083	1044.2054	1045.0046	1161.2679	1203.0886	1237.4101	1301.9802	1354.6875	1410.1226	1429.4129	1446.8456	1489.1101	1505.2033	1629.8177	1642.0645	1764.7096	1788.7698	2836.7488	2939.2013	2980.0678	3033.9578	3224.1383	3596.1476	3725.4023
[O-]N=C(CNC=[NH2+])C=O	[O]N[C](CN=CN)C=O	
InChI=1S/C4H7N3O2/c5-3-6-1-4(2-8)7-9/h2-3,9H,1H2,(H2,5,6)	InChI=1S/C4H7N3O2/c5-3-6-1-4(2-8)7-9/h2-3,7H,1H2,(H2,5,6)
