19
gdb 82927	2.46136	1.85545	1.4289	2.8032	73.56	-0.2316	0.0615	0.2931	975.0268	0.160288	-423.003392	-422.995544	-422.9946	-423.035188	31.941	
O	-0.1621302894	 1.4286337574	-0.0857156079	-0.422517
C	-0.1224699444	 0.0274865214	-0.0083349453	 0.070274
C	-0.5595092906	-0.7147779254	 1.2367967449	-0.090313
C	-1.2359988833	 0.0843441274	 2.3553936164	-0.253028
C	-2.5201030979	 0.6257592021	 1.7397917468	-0.0912
C	-3.5969712628	-0.3575486054	 1.3051595905	-0.342173
C	-2.6288465726	 0.1745748933	 0.297567088	 0.455421
O	-3.1178125707	 1.0010752074	-0.7102480826	-0.485934
C	-1.4362411775	-0.6932419725	-0.0096768578	-0.179208
H	 0.5256295438	 1.7892481497	 0.4831300349	 0.292233
H	 0.6869238	-0.4257810202	-0.5797629097	 0.089169
H	 0.0034601809	-1.6028694863	 1.5027494364	 0.083472
H	-1.4253863855	-0.560085644	 3.2217501292	 0.100831
H	-0.5990673026	 0.9046143441	 2.7100710686	 0.086064
H	-2.8496092773	 1.6252146721	 1.9988085619	 0.084047
H	-3.5271569535	-1.3981666805	 1.608025278	 0.106137
H	-4.6053449325	 0.0370553558	 1.2499267062	 0.119148
H	-2.4008393891	 1.6150273008	-0.9165798839	 0.288427
H	-1.564127435	-1.5626836873	-0.6465960946	 0.089152
135.606	173.8059	241.0531	254.4978	337.278	376.3789	423.6575	482.9799	507.2894	567.2726	600.4965	705.4317	763.4477	789.6664	804.0257	835.1431	895.0787	914.8197	945.0955	996.5832	1008.5336	1038.8689	1043.4851	1063.039	1075.7142	1099.1847	1113.4865	1121.793	1215.9587	1221.9742	1246.054	1257.5711	1288.2995	1300.5813	1331.501	1362.8218	1378.9903	1414.1597	1443.6234	1482.4229	1497.2358	3019.843	3052.5077	3104.0532	3123.842	3156.4773	3169.3587	3179.2149	3218.528	3768.7064	3810.7251
OC1C2CC3CC3(O)C12	O[C@H]1[C@H]2C[C@@H]3C[C@]3(O)[C@@H]12	
InChI=1S/C7H10O2/c8-6-4-1-3-2-7(3,9)5(4)6/h3-6,8-9H,1-2H2	InChI=1S/C7H10O2/c8-6-4-1-3-2-7(3,9)5(4)6/h3-6,8-9H,1-2H2/t3-,4+,5-,6+,7-/m1/s1
