13
gdb 27709	2.94222	1.36064	0.93108	1.3393	73.29	-0.1913	-0.0029	0.1884	1154.3893	0.088806	-452.75122	-452.743049	-452.742104	-452.783686	30.743	
N	 0.1202408791	 1.390511485	 0.1568966174	-0.602907
C	 0.0276060499	 0.0264223333	 0.0562323666	 0.190166
C	-1.0936879331	-0.7662831941	 0.0224749641	 0.124428
O	-0.6150814208	-2.09905888	-0.0125785407	-0.242815
C	 0.7121883804	-1.9597896249	-0.0036730176	 0.46284
O	 1.4460661228	-3.065024678	-0.0381010317	-0.398525
N	 1.1733491293	-0.7504426259	 0.0348707304	-0.366819
C	-2.4608922375	-0.5125180792	 0.0165624187	 0.21775
C	-3.64147202	-0.2549294975	 0.0034216291	-0.41885
H	 0.9912925976	 1.7690452175	-0.1839572668	 0.26419
H	-0.6951067695	 1.9049359008	-0.1403088354	 0.262188
H	 0.8520355692	-3.82569572	-0.0639930155	 0.321466
H	-4.6794812974	-0.0335125269	 0.0108407915	 0.186888
127.7075	131.973	227.5919	300.0829	335.0573	367.5197	371.7482	386.6135	424.3579	496.8345	549.8873	571.857	615.6492	667.5024	716.0493	718.224	756.7676	829.0714	1025.5546	1082.4177	1124.6787	1222.103	1288.7188	1414.2455	1460.3543	1616.4716	1680.5306	1689.987	2206.1179	3503.6165	3575.9675	3685.8573	3810.0405
NC1=C(OC(O)=N1)C#C	Nc1c(oc(O)n1)C#C	
InChI=1S/C5H4N2O2/c1-2-3-4(6)7-5(8)9-3/h1H,6H2,(H,7,8)	InChI=1S/C5H4N2O2/c1-2-3-4(6)7-5(8)9-3/h1H,6H2,(H,7,8)
