18
gdb 16412	3.61301	2.06647	1.65699	1.6529	72.5	-0.2266	0.0152	0.2418	849.5708	0.155487	-347.797334	-347.790533	-347.789589	-347.827912	27.275	
C	-0.0170696788	 1.5071606956	 0.0494791636	-0.505077
C	 0.0013281921	 0.01086327	-0.0114816989	 0.361088
C	-0.0071491469	-0.724023234	-1.1264908806	-0.169613
C	-0.0006520288	-2.235670464	-1.0218404336	-0.257704
C	-0.0257400334	-2.6312648996	 0.461326351	 0.091802
C	-1.1025447364	-1.8541874247	 1.2525380567	-0.24107
C	 0.0228064572	-0.7936999832	 1.2823309134	-0.006295
O	 1.0047384677	-1.8673714999	 1.1546556343	-0.294155
H	 0.8709937432	 1.8932334346	 0.5667119701	 0.129134
H	-0.049260803	 1.9500506271	-0.9498468804	 0.122347
H	-0.8863635646	 1.8751513206	 0.610719538	 0.1234
H	-0.0070046347	-0.2673809866	-2.1130366764	 0.082497
H	-0.8617337035	-2.6716669445	-1.5472840136	 0.102593
H	 0.8963601915	-2.6516293307	-1.4997854647	 0.113565
H	 0.0788672875	-3.7077839745	 0.6208082459	 0.073386
H	-2.0444650865	-1.5985739047	 0.7636583085	 0.098647
H	-1.2757114223	-2.3016048912	 2.2327976923	 0.105851
H	 0.1838076397	-0.1904733306	 2.1793251243	 0.069605
159.1905	194.178	303.183	308.5064	363.0427	448.6718	484.5189	583.0001	662.7892	774.5854	813.3666	832.1625	869.2369	895.5749	941.8761	948.1471	961.4957	993.958	1034.9273	1065.0412	1076.1954	1088.6471	1116.4044	1172.8779	1185.9418	1224.0838	1251.7815	1287.0603	1325.2919	1342.7351	1364.3854	1370.887	1413.3303	1466.9751	1477.8853	1486.1914	1489.3355	1728.3812	3010.0822	3011.1615	3039.463	3056.1314	3067.7716	3075.9342	3083.448	3107.7242	3136.3643	3156.8198
CC1=CCC2CC1O2	CC1=CC[C@@H]2C[C@H]1O2	
InChI=1S/C7H10O/c1-5-2-3-6-4-7(5)8-6/h2,6-7H,3-4H2,1H3	InChI=1S/C7H10O/c1-5-2-3-6-4-7(5)8-6/h2,6-7H,3-4H2,1H3/t6-,7-/m1/s1
