18
gdb 77182	3.44011	1.0269	0.84593	2.9614	73.56	-0.2439	0.0228	0.2667	1350.7144	0.147089	-439.084969	-439.076005	-439.075061	-439.119283	32.735	
O	-0.0379559753	 1.3878481564	 0.1960302176	-0.434472
C	 0.041199725	-0.0063613888	 0.0545136042	-0.04632
C	-1.3351404829	-0.7413613739	-0.0263363165	 0.034681
N	-0.8884722302	-1.245218958	-1.3438448919	-0.346554
C	 0.2661370421	-0.5117116893	-1.3936714589	 0.400624
O	 1.0861955473	-0.2949184351	-2.2480671631	-0.374142
C	-1.6593274588	-1.7905867908	 0.996636496	 0.010611
C	-2.4730498852	-1.4189480487	 2.2114390148	-0.266557
C	-3.077504355	-2.2917889449	 1.1431244874	-0.276252
H	 0.6690831027	 1.7673685143	-0.3392323975	 0.300766
H	 0.7210707638	-0.4621778956	 0.7878497659	 0.093096
H	-2.1482037161	-0.0106079573	-0.1108116106	 0.092721
H	-1.381906492	-1.7522006089	-2.0651991661	 0.250749
H	-0.8714884532	-2.5247775858	 1.1432010178	 0.087619
H	-2.2063698654	-1.8703815064	 3.1599605217	 0.118991
H	-2.824464302	-0.3955695074	 2.2905661563	 0.123116
H	-3.8385788179	-1.854428934	 0.504653585	 0.113378
H	-3.2284366468	-3.343615606	 1.357625238	 0.117946
70.4964	75.3823	144.5265	162.2183	241.0022	259.6113	341.835	373.5627	394.2063	506.8393	554.7068	725.7436	746.5244	783.9172	831.6724	859.0602	907.8464	924.6805	953.6445	989.017	1044.3642	1061.5898	1082.5389	1122.0243	1136.0486	1160.2065	1191.3694	1198.7056	1213.7972	1227.9268	1256.3794	1317.2178	1341.0588	1364.924	1400.3323	1442.8256	1469.5106	1506.0826	1890.5412	3009.9268	3041.0148	3131.1236	3137.4724	3143.5052	3211.6372	3226.8665	3595.4767	3793.4751
OC1C(NC1=O)C1CC1	O[C@H]1[C@@H](NC1=O)C1CC1	
InChI=1S/C6H9NO2/c8-5-4(3-1-2-3)7-6(5)9/h3-5,8H,1-2H2,(H,7,9)	InChI=1S/C6H9NO2/c8-5-4(3-1-2-3)7-6(5)9/h3-5,8H,1-2H2,(H,7,9)/t4-,5-/m0/s1
