19
gdb 111401	2.14805	1.52452	1.0917	3.443	74.96	-0.246	-0.0237	0.2223	1154.4003	0.15823	-422.99366	-422.984713	-422.983769	-423.028072	32.814	
O	 0.0099233831	 1.0199668493	-1.2809658671	-0.422273
C	-0.265769899	 0.6560088935	 0.0683986437	-0.100873
C	-1.4833167137	-0.2622887314	 0.1269439535	-0.018686
C	-1.3419884784	-1.6916920606	-0.4283122169	-0.070711
C	-0.4701499039	-2.5445973451	 0.4521919317	-0.28742
C	-1.8920418475	-2.287330421	 0.8673962232	-0.072258
C	-2.0267471313	-0.8672299158	 1.4732154436	-0.131879
C	-1.3083976561	-0.7082395959	 2.7833484018	 0.152445
O	-0.2626218584	-0.1325962588	 2.9590053576	-0.253299
H	 0.3252574481	 0.2308534433	-1.7328422988	 0.283668
H	 0.6074111565	 0.1994289938	 0.5471397612	 0.106619
H	-0.4681099091	 1.5901135362	 0.6004113705	 0.114623
H	-2.3044920004	 0.2519151422	-0.3810055965	 0.088383
H	-1.5872167793	-1.9884914847	-1.4408159729	 0.093577
H	-0.2792600883	-3.5457916074	 0.0798641448	 0.118064
H	 0.3562696724	-2.1157628429	 1.0124972939	 0.130158
H	-2.6122422324	-3.0845755219	 0.9994681907	 0.096176
H	-3.0800078836	-0.611395411	 1.6319682494	 0.095869
H	-1.8174243086	-1.2282888421	 3.6298445565	 0.077819
44.9183	91.1991	157.4005	159.5831	228.0382	255.6599	306.0142	389.2797	425.5658	520.4396	633.8698	727.8061	762.0008	794.6655	839.0264	897.2471	919.9716	937.2241	993.5069	1017.2747	1028.3631	1047.597	1064.22	1069.1522	1086.5059	1100.6828	1144.4363	1166.3954	1195.7751	1216.2854	1254.7085	1279.5632	1339.9474	1346.5125	1360.9281	1394.6252	1414.5613	1425.2797	1484.1603	1496.8326	1819.5668	2848.3681	3042.82	3048.812	3067.0071	3096.5088	3117.8585	3180.3981	3191.6256	3207.7248	3817.1324
OCC1C2CC2C1C=O	OC[C@H]1[C@H]2C[C@H]2[C@H]1C=O	
InChI=1S/C7H10O2/c8-2-6-4-1-5(4)7(6)3-9/h2,4-7,9H,1,3H2	InChI=1S/C7H10O2/c8-2-6-4-1-5(4)7(6)3-9/h2,4-7,9H,1,3H2/t4-,5+,6-,7+/m1/s1
