16
gdb 115035	2.23005	1.5761	1.01615	4.7042	69.27	-0.243	0.0042	0.2472	1127.3219	0.125901	-434.078614	-434.070265	-434.069321	-434.111998	30.283	
O	-0.2175227987	 1.4681425094	-0.212861167	-0.430031
C	 0.0073943853	 0.0733943209	-0.0534837891	-0.103379
C	-1.3719123055	-0.5594451145	 0.1307893219	 0.001074
N	-2.2564167018	-0.2340682418	-0.99668607	-0.291936
C	-2.2886581375	-1.3487634804	-1.8069199605	 0.069051
N	-1.8503790512	-2.453010956	-1.3309710387	-0.249819
C	-1.3972473097	-2.1257814325	 0.0419379676	-0.13841
C	-0.1146567286	-2.7622532882	 0.3585325637	 0.300428
N	 0.9001420757	-3.2421452122	 0.6318024719	-0.334555
H	 0.6259021913	 1.895569274	-0.3873400746	 0.298235
H	 0.4987945194	-0.3587792888	-0.9378290659	 0.113693
H	 0.6343905987	-0.143442708	 0.8217851299	 0.120204
H	-1.8035307226	-0.2050015231	 1.070065369	 0.108507
H	-2.1285874446	 0.6816125305	-1.4068364394	 0.258834
H	-2.7228090436	-1.2716567809	-2.7995166789	 0.13736
H	-2.1367472366	-2.5189451182	 0.75182644	 0.140745
77.9616	126.7898	133.1305	215.1901	254.8433	277.3586	363.9156	434.7447	494.5558	566.3673	585.6023	630.8364	790.3618	816.8775	877.4136	908.2482	971.7429	1016.1801	1048.3231	1069.7091	1086.1513	1107.3002	1147.3524	1213.7614	1251.7308	1271.3153	1282.0756	1326.9869	1338.6436	1381.163	1428.0833	1457.7103	1513.8849	1678.7059	2361.9317	2994.7899	3020.8217	3039.7713	3082.3996	3190.3974	3591.7627	3837.0654
OCC1NC=NC1C#N	OC[C@H]1N[CH][N][C@H]1C#N	
InChI=1S/C5H7N3O/c6-1-4-5(2-9)8-3-7-4/h3-5,9H,2H2,(H,7,8)	InChI=1S/C5H7N3O/c6-1-4-5(2-9)8-3-7-4/h3-5,9H,2H2,(H,7,8)/t4-,5+/m0/s1
