20
gdb 90831	3.04907	1.88294	1.44483	1.5797	82.5	-0.2266	0.0925	0.3191	965.6679	0.173114	-365.920889	-365.91396	-365.913016	-365.951794	29.151	
C	-0.1691299156	 1.5018081477	-0.031251136	-0.405072
C	 0.0573886329	-0.0073860489	 0.047745537	-0.10525
C	 1.0696305624	-0.5706461619	-1.0294864076	-0.242388
C	 2.1727937381	-1.1787061153	-0.1354441651	-0.014747
C	 1.4862967294	-1.8840913581	 1.0340273255	-0.081949
C	 2.3321110858	-1.1699181393	 2.1128976742	-0.026021
C	 1.1124358166	-0.4723246829	 2.7662246384	-0.347043
C	 0.8568945818	-0.470143473	 1.2502757426	 0.352622
N	 2.3494880754	-0.1337382341	 0.9660644633	-0.178929
H	 0.7808068516	 2.0339847448	 0.0753869435	 0.135812
H	-0.6142103628	 1.7824452479	-0.9913932468	 0.111028
H	-0.8428523116	 1.8441240922	 0.7614877079	 0.111749
H	-0.9012287194	-0.5341332773	-0.0106722842	 0.072602
H	 0.6105460037	-1.3179931062	-1.6835921979	 0.099273
H	 1.466541586	 0.2320543435	-1.6585947582	 0.108644
H	 3.0730301523	-1.5527520795	-0.6291338301	 0.062111
H	 0.9769236829	-2.8529636834	 1.089043257	 0.05781
H	 3.2560944535	-1.4975967864	 2.5914525273	 0.079684
H	 0.4530194311	-1.093386335	 3.3775123539	 0.099793
H	 1.3046115555	 0.498529015	 3.2305831054	 0.11027
147.8394	223.2246	241.6917	355.4832	422.6416	459.0948	477.9908	659.941	683.1906	721.3546	798.5123	828.4485	833.2634	864.3657	877.7186	918.0426	922.9453	936.2697	967.586	997.7482	1019.6951	1043.8213	1063.0331	1080.1992	1097.3306	1131.9116	1141.3385	1170.6883	1187.0956	1197.0927	1207.9257	1240.7882	1264.0119	1269.3658	1284.4956	1316.2551	1333.439	1375.6897	1406.6538	1482.8801	1491.2021	1497.3158	1504.0807	3032.482	3034.6677	3042.8226	3052.9059	3056.8699	3086.0069	3096.0107	3100.2841	3103.6492	3114.8289	3124.088
CC1CC2C3C4CC13N24	C[C@H]1C[C@@H]2[C@H]3[C@@H]4C[C@]13N24	
InChI=1S/C8H11N/c1-4-2-5-7-6-3-8(4,7)9(5)6/h4-7H,2-3H2,1H3	InChI=1S/C8H11N/c1-4-2-5-7-6-3-8(4,7)9(5)6/h4-7H,2-3H2,1H3/t4-,5+,6-,7-,8-/m0/s1
