14
gdb 129165	6.68186	0.82216	0.74217	3.0103	66.28	-0.236	-0.0434	0.1926	1416.4069	0.099902	-470.003766	-469.995482	-469.994538	-470.038155	28.996	
N	-0.2000065598	 1.338802513	-0.1552385477	-0.600554
C	-0.0331586942	 0.0940985804	-0.0332374145	 0.494455
N	-1.026579508	-0.875257176	-0.0323811412	-0.390764
C	-0.4323952183	-2.0953666079	 0.1340688189	 0.426921
C	-1.173693455	-3.3885448681	 0.2038662357	-0.423482
C	-0.2616025596	-4.6117129295	 0.1307355935	 0.181252
O	-0.4663680656	-5.6096225648	 0.7658418928	-0.230927
N	 0.8517814855	-2.0032076652	 0.2314028575	-0.177571
O	 1.1346753448	-0.6112722873	 0.1232057318	-0.242628
H	 0.6877212012	 1.8332988148	-0.122907213	 0.238281
H	-2.0059713913	-0.6658096442	-0.1127313983	 0.288924
H	-1.7761701076	-3.4552086618	 1.1155234267	 0.163203
H	-1.8696509017	-3.4476519416	-0.6463764198	 0.154637
H	 0.5837345195	-4.5233465518	-0.5792119123	 0.118252
35.9927	58.2811	146.449	172.849	297.5703	335.4164	407.7786	442.8579	496.94	632.114	685.0297	722.9885	749.3771	766.0407	809.7437	911.4532	959.6929	1030.1431	1040.337	1052.9984	1084.4634	1207.7861	1212.8432	1306.1142	1325.7018	1421.4395	1440.8292	1504.6094	1662.1144	1800.0284	1842.9352	2950.3281	3015.1099	3087.1656	3542.9718	3693.5947
N=C1NC(CC=O)=NO1	[NH][C@H]1NC(=NO1)CC=O	
InChI=1S/C4H5N3O2/c5-4-6-3(1-2-8)7-9-4/h2H,1H2,(H2,5,6,7)	InChI=1S/C4H6N3O2/c5-4-6-3(1-2-8)7-9-4/h2,4-5H,1H2,(H,6,7)/t4-/m0/s1
