17
gdb 73754	2.51903	1.55035	1.03489	2.1107	84.25	-0.2237	-0.0265	0.1972	1146.8307	0.134468	-384.658964	-384.650637	-384.649693	-384.691671	31.854	
C	 0.0737089252	 1.5002022319	 0.120807121	-0.509885
C	 0.0016593729	 0.0138791563	 0.0220087808	 0.192407
C	-0.0345848278	-0.724851194	-1.1098153356	 0.143699
C	-0.0657305884	-0.248925027	-2.4404508924	 0.198301
C	-0.10715166	 0.1195093006	-3.5878701189	-0.433781
C	 0.0007675193	-2.1884694472	-0.7705186471	-0.093117
O	 1.1999429779	-2.5775375463	-0.0686807796	-0.252963
C	 0.0287676046	-2.2838817575	 0.6962304466	 0.03783
C	-0.0073016795	-0.869552817	 1.2565259264	-0.323266
H	 1.0079286622	 1.8143432975	 0.6039391556	 0.136006
H	 0.0231035008	 1.9670531224	-0.8652473218	 0.142559
H	-0.7436370696	 1.8937293243	 0.7385169922	 0.128824
H	-0.1331798035	 0.450757409	-4.5962281328	 0.190566
H	-0.4174258937	-2.9365004644	-1.4360579281	 0.101487
H	-0.3917889187	-3.1173072078	 1.2518801531	 0.097587
H	 0.8499967078	-0.6677517591	 1.9109282528	 0.128115
H	-0.9108658594	-0.7006248817	 1.8582302877	 0.11563
129.7164	138.9965	157.2642	177.8226	306.6173	352.9774	406.2527	434.36	491.8203	562.8207	564.2815	628.9131	647.9996	704.3539	769.1958	842.5779	861.9396	897.2065	923.5991	976.5045	1005.5861	1063.1502	1097.8625	1116.1935	1183.9947	1188.3483	1235.5067	1257.8753	1310.4762	1353.1863	1406.8453	1416.9673	1455.5161	1478.0175	1480.0406	1668.668	2217.9601	3016.3833	3020.9414	3055.7226	3063.7239	3126.5911	3152.0423	3175.2356	3502.5696
CC1=C(C#C)C2OC2C1	CC1=C(C#C)[C@H]2O[C@H]2C1	
InChI=1S/C8H8O/c1-3-6-5(2)4-7-8(6)9-7/h1,7-8H,4H2,2H3	InChI=1S/C8H8O/c1-3-6-5(2)4-7-8(6)9-7/h1,7-8H,4H2,2H3/t7-,8+/m0/s1
