17
gdb 99080	4.38555	0.74172	0.69648	0.6387	66.69	-0.2727	-0.0438	0.2288	1594.122	0.131575	-496.137466	-496.127199	-496.126255	-496.174436	34.491	
C	 0.0209309913	 1.4209885674	-0.1045654937	-0.406848
C	 0.1083605077	-0.0952542495	-0.033065119	 0.02485
O	 0.8114638489	-0.532372035	 1.1529024876	-0.2542
C	 2.1343445557	-0.7241898454	 1.0435204572	 0.418949
O	 2.7763539987	-0.5732510769	 0.0315683712	-0.366785
C	 2.7594474387	-1.161997195	 2.3544195546	-0.144361
O	 4.1341367102	-1.3702064409	 2.2079622997	-0.416981
C	-1.2491178495	-0.7827593897	 0.0169044743	 0.151115
O	-2.2342605551	-0.348641585	-0.5163318044	-0.23583
H	 1.0103311198	 1.8526189345	-0.268317457	 0.140741
H	-0.6354435206	 1.6993644895	-0.932031989	 0.152596
H	-0.4008726692	 1.8245855099	 0.8197933571	 0.136131
H	 0.6470007912	-0.4870204781	-0.9057246295	 0.145896
H	 2.5457876954	-0.3887193584	 3.1078953342	 0.129734
H	 2.248060072	-2.0765265773	 2.6899574344	 0.129026
H	 4.338015834	-1.161186845	 1.2848361429	 0.298931
H	-1.2475038493	-1.7432212553	 0.5768996492	 0.097034
34.2468	68.4421	76.2773	91.5456	161.1014	215.1622	240.6626	306.3835	325.6589	350.7518	396.5529	466.8408	585.565	628.1781	713.3073	834.0875	904.3559	920.1455	966.7232	1039.58	1091.5169	1127.1533	1132.9946	1158.1302	1244.5406	1247.8979	1313.4103	1327.6359	1353.4086	1394.8852	1413.764	1464.4435	1485.4797	1495.6977	1496.9531	1807.049	1843.0626	2904.4927	2996.9233	3018.315	3039.9349	3057.6149	3136.2084	3146.2521	3731.3309
CC(OC(=O)CO)C=O	C[C@@H](OC(=O)CO)C=O	
InChI=1S/C5H8O4/c1-4(2-6)9-5(8)3-7/h2,4,7H,3H2,1H3	InChI=1S/C5H8O4/c1-4(2-6)9-5(8)3-7/h2,4,7H,3H2,1H3/t4-/m1/s1
