20
gdb 76384	2.45783	1.18125	1.12968	2.4925	76.22	-0.2416	0.0341	0.2757	1228.9049	0.168434	-440.311296	-440.300595	-440.29965	-440.346821	38.635	
C	-0.1507656864	 1.4869136998	 0.0827907515	-0.432368
C	 0.0722268245	-0.0080303201	 0.050430941	-0.073188
C	 1.4107066189	-0.6023461783	-0.2744248611	 0.06245
O	 2.5294288201	 0.2248806813	-0.4215918749	-0.426718
C	 0.8738144159	-0.7374583687	 1.1435434228	 0.159111
C	 1.5433810027	 0.0458761448	 2.255590235	-0.506048
C	 0.3353279772	-2.1130012817	 1.4425455993	 0.373423
N	 0.443435021	-2.541999776	 2.7338594167	-0.549997
O	-0.1647222416	-2.8149021148	 0.5768077153	-0.384979
H	 0.7756695844	 2.0359452356	 0.2656097196	 0.12554
H	-0.5524707339	 1.8276388736	-0.878174492	 0.118802
H	-0.8733146811	 1.7701724799	 0.8553525545	 0.121171
H	-0.7664132398	-0.5978846349	-0.3069699425	 0.111166
H	 1.4244802161	-1.5195898645	-0.8590161862	 0.112235
H	 2.4766626586	 0.6397493464	-1.2890009317	 0.292101
H	 2.0244301759	 0.9424931193	 1.8659009642	 0.145217
H	 0.8265746969	 0.3531632895	 3.0264981291	 0.113154
H	 2.330887225	-0.5482144049	 2.73291993	 0.122578
H	 0.7601483441	-1.9503637667	 3.4797772373	 0.257985
H	 0.0330064016	-3.4326341594	 2.9604061824	 0.258363
60.1669	114.3918	125.7971	166.7008	192.1888	203.8163	227.1304	245.5125	266.2909	328.3473	373.35	439.4751	482.2156	579.6031	592.2609	596.0964	688.1652	737.5712	817.1833	860.3067	928.2447	993.4322	1033.7449	1067.32	1084.4379	1097.5221	1121.5605	1153.8808	1176.8821	1226.5521	1271.8915	1311.9087	1365.8264	1380.0677	1407.306	1420.8013	1443.4671	1488.9628	1496.5022	1504.3547	1517.9513	1613.9706	1765.5186	3025.9955	3034.5704	3081.0371	3088.6965	3119.0389	3132.6888	3150.4793	3162.2339	3613.0218	3750.7923	3806.9114
CC1C(O)C1(C)C(N)=O	C[C@H]1[C@@H](O)[C@]1(C)C(=O)N	
InChI=1S/C6H11NO2/c1-3-4(8)6(3,2)5(7)9/h3-4,8H,1-2H3,(H2,7,9)	InChI=1S/C6H11NO2/c1-3-4(8)6(3,2)5(7)9/h3-4,8H,1-2H3,(H2,7,9)/t3-,4+,6+/m0/s1
