21
gdb 91705	2.4629	1.76372	1.56897	1.2834	82.42	-0.2348	0.0205	0.2554	998.6499	0.18553	-387.118385	-387.110892	-387.109947	-387.149846	31.056	
C	-0.2775519563	 1.5330740426	-0.0618092099	-0.408041
C	 0.0263443475	 0.0467264607	 0.0211347407	 0.166315
O	 0.823785135	-0.3461950223	-1.1105180814	-0.296218
C	 1.841183911	-1.2653125632	-0.6860909463	 0.107751
C	 1.3366163088	-1.7933377099	 0.6623312927	-0.244182
C	 0.8388163293	-0.4553131672	 1.2415899892	-0.091637
C	 2.0452964403	 0.4189592349	 1.5181557601	-0.064955
C	 3.1134245042	 0.3795658407	 0.7190276068	-0.04887
C	 3.1677370821	-0.5070808481	-0.5016232539	-0.251802
H	 0.6403874326	 2.12306315	-0.0057082187	 0.12421
H	-0.7779337835	 1.7593871037	-1.0076433538	 0.122859
H	-0.9424944299	 1.8336784672	 0.7552033164	 0.106324
H	-0.9240393366	-0.5117180914	-0.0086352213	 0.063295
H	 1.9392591425	-2.0370855917	-1.4557425522	 0.070361
H	 0.5150609836	-2.5029493364	 0.523814868	 0.0975
H	 2.1175476184	-2.2619821034	 1.2648423671	 0.100939
H	 0.2076508194	-0.5652360514	 2.1264619544	 0.064078
H	 2.0198291743	 1.0836473383	 2.376798682	 0.084557
H	 3.9822295096	 0.9985801018	 0.9292007004	 0.085789
H	 4.0085344604	-1.2129280866	-0.4291262646	 0.097105
H	 3.3500408671	 0.0946501516	-1.4010993558	 0.114622
128.2057	215.5855	229.402	320.661	356.0197	398.0242	449.9116	499.9919	521.7098	637.085	705.7724	744.1043	818.3901	821.6208	852.5429	899.1916	905.8626	937.028	942.4352	986.9579	995.311	1036.4012	1044.3531	1053.9561	1077.6687	1115.9714	1136.5094	1159.3216	1186.0824	1210.5096	1238.102	1301.2239	1309.8447	1334.6717	1348.9666	1356.5913	1384.3722	1388.6186	1407.5034	1418.9285	1461.1543	1485.2728	1496.8687	1497.3553	1705.2931	2957.5693	3000.8966	3039.5741	3044.2279	3051.3096	3063.9636	3084.4973	3108.5949	3115.547	3127.5275	3148.9502	3174.2219
CC1OC2CC1C=CC2	C[C@H]1O[C@@H]2C[C@H]1C=CC2	
InChI=1S/C8H12O/c1-6-7-3-2-4-8(5-7)9-6/h2-3,6-8H,4-5H2,1H3	InChI=1S/C8H12O/c1-6-7-3-2-4-8(5-7)9-6/h2-3,6-8H,4-5H2,1H3/t6-,7-,8+/m1/s1
