21
gdb 112840	2.9615	1.14938	0.94058	1.879	77.37	-0.2509	0.0777	0.3285	1315.6442	0.182904	-424.223541	-424.214674	-424.21373	-424.25723	33.993	
C	-0.0287688566	 1.5339698783	 0.1082264996	-0.385095
C	 0.0475525312	 0.0063173228	 0.032440459	-0.183723
C	 0.7059921074	-0.5176851814	-1.2502814038	-0.000209
C	 2.1917567832	-0.1184511345	-1.4337960259	-0.269036
C	 2.8641198043	-1.2561298072	-2.2486305619	 0.128341
O	 4.2391489399	-1.4369211636	-1.9668695301	-0.440193
C	 2.0065843607	-2.4720855171	-1.9451831772	-0.007968
O	 1.7825889919	-2.6293351528	-0.530317526	-0.274928
C	 0.7492997547	-2.0364607701	-1.3370543861	 0.031975
H	 0.9675798459	 1.9873229495	 0.0918686007	 0.121337
H	-0.59362958	 1.9448836343	-0.7363719628	 0.112579
H	-0.5244556679	 1.8581877175	 1.028300428	 0.114027
H	 0.6046698265	-0.3845497103	 0.8929607408	 0.109382
H	-0.9651222933	-0.4114881804	 0.1062821989	 0.092148
H	 0.1231489966	-0.1646454382	-2.1141847089	 0.073191
H	 2.3180552491	 0.8537589611	-1.9137362287	 0.106169
H	 2.6814774013	-0.0648218253	-0.4559865076	 0.105492
H	 2.814384579	-1.0464255122	-3.3238618094	 0.090375
H	 4.2967933322	-1.729946802	-1.0495115252	 0.28614
H	 2.1230403569	-3.3954651108	-2.5064943542	 0.097619
H	-0.168699533	-2.6163915478	-1.4043306393	 0.092376
87.9448	101.5624	144.743	191.0876	250.5436	309.3225	373.8505	397.7873	427.5564	470.6219	563.472	636.3378	669.8936	786.7353	823.6358	839.8961	874.5482	899.0055	951.5027	964.6672	979.6649	1024.9914	1064.1869	1065.7638	1096.457	1106.4726	1134.2736	1148.2258	1198.3223	1251.8148	1257.9744	1287.7306	1301.0763	1313.9436	1328.5175	1337.9189	1359.146	1387.3054	1413.4229	1433.3361	1438.8009	1484.5361	1491.0453	1502.4911	1507.5724	2997.0343	3017.9225	3031.8641	3043.4757	3055.4903	3057.8068	3098.6531	3106.0068	3115.6789	3136.8783	3155.6221	3789.4379
CCC1CC(O)C2OC12	CC[C@H]1C[C@@H](O)[C@H]2O[C@@H]12	
InChI=1S/C7H12O2/c1-2-4-3-5(8)7-6(4)9-7/h4-8H,2-3H2,1H3	InChI=1S/C7H12O2/c1-2-4-3-5(8)7-6(4)9-7/h4-8H,2-3H2,1H3/t4-,5+,6-,7+/m0/s1
