21
gdb 126736	3.90516	0.914	0.8155	1.9152	87.13	-0.2283	0.0293	0.2576	1519.868	0.183396	-383.309014	-383.299465	-383.298521	-383.344811	34.483	
C	-0.0462524733	 1.5286191335	-0.5417005666	-0.371092
C	-0.0157629093	 0.1411197194	 0.1004759164	-0.140165
N	-1.3228503457	-0.4923833617	 0.1244241996	 0.060763
C	-1.7739724725	-1.5130935313	-0.6445126521	-0.022612
C	-3.0927853352	-1.72066191	-0.3016588342	-0.316039
C	-3.361214421	-0.758705661	 0.7009648875	 0.355187
C	-4.6297707368	-0.5396399419	 1.4707305878	-0.281328
C	-4.8778179979	-1.613806048	 2.5433014946	-0.367691
N	-2.2798556252	-0.0173698052	 0.9490098015	-0.334627
H	 0.949149958	 1.9820484937	-0.5086666009	 0.116732
H	-0.3654263466	 1.469343671	-1.5865403128	 0.123272
H	-0.7435629255	 2.1745338188	-0.0034034875	 0.148927
H	 0.6574568425	-0.527899994	-0.4432496988	 0.115651
H	 0.3417800841	 0.2081889913	 1.1324859465	 0.129521
H	-1.1318144781	-2.0007927736	-1.3616721468	 0.124454
H	-3.7630645349	-2.4599420384	-0.7104658485	 0.097016
H	-4.5770942557	 0.4467545412	 1.9416825767	 0.113945
H	-5.4790377467	-0.5182675437	 0.7769349062	 0.100915
H	-5.8121297585	-1.4217451253	 3.0805849394	 0.108338
H	-4.9439559495	-2.6112078503	 2.0967925956	 0.114911
H	-4.0613816321	-1.6285993047	 3.2716785463	 0.123923
31.6946	50.3408	107.7803	167.5858	192.106	225.4552	297.9514	378.9997	394.4774	435.6381	608.359	651.4739	698.1553	736.2026	769.844	789.7328	797.2491	828.173	958.2707	962.9035	1017.2278	1023.819	1068.4455	1073.4142	1087.2324	1107.7406	1124.9731	1226.6923	1267.9499	1283.4364	1336.4983	1362.8621	1387.2023	1405.2831	1407.9552	1412.1262	1449.3391	1480.5295	1480.8602	1488.6907	1496.1567	1502.1993	1508.8564	1516.3223	1566.3398	3032.4968	3034.6108	3044.8542	3056.1163	3081.281	3098.875	3105.3009	3113.1579	3117.56	3137.7422	3247.4914	3267.6222
CCN1C=CC(CC)=N1	CCn1ccc(CC)n1	
InChI=1S/C7H12N2/c1-3-7-5-6-9(4-2)8-7/h5-6H,3-4H2,1-2H3	InChI=1S/C7H12N2/c1-3-7-5-6-9(4-2)8-7/h5-6H,3-4H2,1-2H3
