16
gdb 99414	1.67746	1.45444	1.28019	3.8511	80.42	-0.2863	0.0047	0.291	1158.1813	0.120188	-363.54547	-363.535464	-363.53452	-363.580074	36.068	
C	 0.088740637	 1.557618302	 0.0093909301	-0.406477
C	 0.0007490571	 0.0340871809	 0.0022873656	-0.189213
C	-1.4758409085	-0.5100271115	 0.0134439126	-0.293651
C	-2.1788664911	-0.0764812639	 1.2324921527	 0.360023
C	-2.72760934	 0.2854165003	 2.2360823911	-0.442807
C	-2.2019368294	-0.063446888	-1.1872354981	 0.360021
C	-2.7696566143	 0.3092355427	-2.1762163705	-0.442811
C	-1.4068969838	-1.991716958	 0.0047870973	 0.303366
N	-1.3162531372	-3.1427301083	-0.0020731372	-0.337174
H	 1.137949323	 1.8655518536	 0.0009831872	 0.125555
H	-0.3988667402	 1.9864343097	-0.8701657974	 0.137132
H	-0.3819542476	 1.9771996527	 0.9025081712	 0.137125
H	 0.4839461082	-0.3801240329	-0.8873595185	 0.131026
H	 0.5007009686	-0.3893433813	 0.8782313122	 0.131028
H	-3.2265599313	 0.5985355414	 3.1204444182	 0.21343
H	-3.2853921106	 0.6317308607	-3.0474825565	 0.21343
104.546	116.0599	128.5528	145.9821	168.2142	181.9292	254.4409	334.5949	347.7338	457.822	498.6721	548.7032	570.4062	579.9604	633.9122	655.5209	656.8219	665.8646	666.9899	792.2279	949.3742	1003.3571	1015.1019	1054.5499	1147.1926	1189.6227	1316.5396	1360.3854	1411.8634	1479.9359	1492.6159	1505.8846	2244.371	2249.0766	2364.5991	3049.5947	3059.0559	3103.6095	3121.4706	3130.9575	3498.7684	3499.5157
CCC(C#C)(C#C)C#N	CCC(C#C)(C#C)C#N	
InChI=1S/C8H7N/c1-4-8(5-2,6-3)7-9/h1-2H,6H2,3H3	InChI=1S/C8H7N/c1-4-8(5-2,6-3)7-9/h1-2H,6H2,3H3
