23
gdb 60855	2.2614	1.26829	1.05488	2.5991	85.49	-0.242	-0.022	0.22	1287.5754	0.20379	-388.296477	-388.286336	-388.285392	-388.331721	37.751	
C	-0.0320733601	 1.6633095686	-0.0181684987	-0.428497
C	 0.036715427	 0.1338567064	-0.1326997667	-0.122075
C	 0.8476010992	-0.2822603002	-1.3462186573	 0.161921
O	 0.5724137145	-1.2077487976	-2.0676959566	-0.258577
C	 0.5953918951	-0.5570996346	 1.139561915	 0.354244
C	 2.0137286415	-0.1050112565	 1.506412014	-0.462249
C	-0.3618770887	-0.5132434461	 2.3777015317	-0.262651
C	-0.1371094505	-2.035181373	 2.582264179	-0.219745
C	 0.4653477111	-2.1161254237	 1.1549392411	-0.260352
H	 0.9651045457	 2.1148599985	-0.0027736147	 0.124316
H	-0.5778363784	 2.0956225937	-0.8626086869	 0.124098
H	-0.5474383895	 1.9606159229	 0.9000167785	 0.128184
H	-0.9703203869	-0.2676557832	-0.2932521908	 0.089349
H	 1.7611570057	 0.3304422558	-1.5356144837	 0.070811
H	 2.0601322021	 0.9691457901	 1.712506972	 0.116701
H	 2.3569163199	-0.6228296583	 2.4079420133	 0.118732
H	 2.7325584378	-0.3298453826	 0.7108915199	 0.117387
H	-0.0738070539	 0.1526407132	 3.1961617919	 0.094672
H	-1.3925862565	-0.2827950198	 2.0920647906	 0.097808
H	 0.5967352834	-2.2502742197	 3.3630605053	 0.103633
H	-1.025073309	-2.6399918228	 2.7774965633	 0.100535
H	-0.251185253	-2.4745425744	 0.411856748	 0.114464
H	 1.3924051533	-2.6825809866	 1.0330923318	 0.097291
57.1523	71.5843	120.1431	194.4542	219.803	249.4779	276.3247	284.9205	324.3293	374.5915	417.3997	429.8039	520.4168	654.9701	710.4073	793.2835	858.9176	885.8132	908.5773	919.0697	926.0324	948.4434	970.4666	992.5593	1042.5528	1066.0715	1102.0965	1146.3892	1177.7933	1182.6582	1209.2502	1216.918	1259.8828	1273.7929	1277.9172	1302.8452	1315.7927	1353.0853	1407.1542	1413.7391	1432.7924	1476.7565	1483.0521	1493.4633	1495.2724	1501.5812	1508.7041	1512.7768	1823.2328	2844.545	3030.293	3039.266	3043.1888	3048.2303	3059.1164	3067.0271	3093.4456	3095.7064	3099.7677	3106.2488	3107.6094	3111.6001	3122.8863
CC(C=O)C1(C)CCC1	C[C@@H](C=O)C1(C)CCC1	
InChI=1S/C8H14O/c1-7(6-9)8(2)4-3-5-8/h6-7H,3-5H2,1-2H3	InChI=1S/C8H14O/c1-7(6-9)8(2)4-3-5-8/h6-7H,3-5H2,1-2H3/t7-/m0/s1
