14
gdb 131891	2.7957	1.60509	1.02608	3.9218	68.74	-0.2512	-0.0742	0.177	1069.5648	0.100369	-473.779586	-473.7718	-473.770856	-473.812728	27.726	
C	 0.1016659905	 1.5157759592	 0.0086050767	-0.488346
C	-0.0590670558	 0.0410497243	 0.0014945597	 0.342856
C	-1.1369352692	-0.8083678612	 0.0027749666	 0.223425
C	-0.6529623519	-2.1541800931	-0.0069577864	-0.269724
C	 0.6933563229	-2.0360019876	-0.0138415566	-0.003438
O	 1.060353445	-0.7139481626	-0.0086319879	-0.169868
N	-2.51089697	-0.411400252	 0.0123118465	 0.346129
O	-3.354642676	-1.3021161889	 0.0114980284	-0.363248
O	-2.7577395947	 0.7946397517	 0.0204495456	-0.395995
H	 1.1636876754	 1.7682413031	 0.0005295951	 0.142572
H	-0.3881914406	 1.9631238936	-0.8607506268	 0.164553
H	-0.3721076272	 1.9530530713	 0.8919651261	 0.164418
H	-1.2493790125	-3.0501851442	-0.0084620948	 0.152221
H	 1.5068364241	-2.7410405735	-0.0221522423	 0.154445
63.5316	89.7698	201.8787	203.4865	258.9282	338.002	440.5392	547.1061	614.2414	651.9848	692.2989	752.8301	796.7724	838.7772	859.7253	909.4544	968.3995	1047.7055	1057.303	1125.4043	1167.1436	1248.6058	1287.0378	1394.6218	1417.1968	1446.2818	1465.6181	1483.4382	1553.1406	1597.8623	1638.4741	3053.3068	3112.9916	3145.5822	3283.3347	3303.9236
CC1=C(C=CO1)N(=O)=O	Cc1c(cco1)N(=O)=O	
InChI=1S/C5H5NO3/c1-4-5(6(7)8)2-3-9-4/h2-3H,1H3	InChI=1S/C5H5NO3/c1-4-5(6(7)8)2-3-9-4/h2-3H,1H3
