19
gdb 55635	2.76085	1.0805	0.94021	1.8304	76.96	-0.2594	0.0104	0.2697	1323.3271	0.156291	-419.263149	-419.252426	-419.251482	-419.299681	37.768	
C	-0.0430849822	 1.5434571341	-0.1090787004	-0.483623
C	-0.0159444039	 0.0355331108	 0.0882851015	 0.421957
O	-0.0751191117	-0.4765447315	 1.1926555393	-0.377751
N	 0.0574792097	-0.6909000006	-1.0684990054	-0.356524
C	 0.0497231493	-2.16563081	-1.1199901651	 0.129732
C	 1.2790204431	-2.7547139715	-0.3914945378	-0.404519
C	-1.2646565705	-2.7390678504	-0.5433718517	-0.405355
C	 0.1328800152	-2.5192383885	-2.5505015302	 0.253685
N	 0.1973103036	-2.7931434559	-3.6710858925	-0.331067
H	 0.3235376499	 1.8639866609	-1.0875824977	 0.121543
H	-1.0717875771	 1.8980406485	 0.0103242409	 0.156455
H	 0.559345018	 2.0057139712	 0.6746702271	 0.157992
H	 0.0974375237	-0.2005165358	-1.9464775436	 0.261733
H	 1.2305586976	-2.471114681	 0.6598181622	 0.167002
H	 1.2787794907	-3.8441491232	-0.4772990571	 0.131429
H	 2.2032306073	-2.368765325	-0.8278252624	 0.129725
H	-2.1258640284	-2.3436140057	-1.0870635975	 0.128964
H	-1.2672471717	-3.8285807513	-0.6279257129	 0.131872
H	-1.3386034927	-2.4545144154	 0.5062786234	 0.166751
27.7702	77.4177	110.9499	130.9357	197.7506	230.0112	238.737	269.1757	320.9274	373.4594	375.0606	407.2931	409.2813	579.3383	583.6846	603.9789	639.9121	758.4493	877.357	940.7675	968.9561	987.3307	1032.5749	1047.1666	1052.3777	1172.1694	1216.5257	1233.3609	1287.7525	1389.793	1395.2978	1411.5589	1466.4119	1474.2697	1484.6484	1488.8501	1495.433	1513.5376	1531.5418	1771.8926	2359.3862	3049.6163	3055.7707	3059.2894	3119.3563	3130.414	3134.0337	3146.5347	3161.4571	3164.2547	3650.1402
CC(=O)NC(C)(C)C#N	CC(=O)NC(C)(C)C#N	
InChI=1S/C6H10N2O/c1-5(9)8-6(2,3)4-7/h1-3H3,(H,8,9)	InChI=1S/C6H10N2O/c1-5(9)8-6(2,3)4-7/h1-3H3,(H,8,9)
