15
gdb 128673	5.02834	1.10546	0.91143	1.2506	74.62	-0.2107	-0.0742	0.1365	1221.621	0.114209	-450.12251	-450.114648	-450.113704	-450.155188	28.973	
C	-0.0008594694	 1.3903217767	 0.2070256089	-0.228104
O	-0.036165609	-0.0301736206	 0.0936921053	-0.240588
C	-1.2428868215	-0.5864602787	-0.071355519	 0.486985
N	-2.31137069	 0.1415973713	-0.1225350709	-0.288252
N	-3.4738517016	-0.5362720176	-0.2924558347	-0.264951
C	-3.6117730966	-1.9042653592	-0.41234028	 0.365681
N	-4.7701068817	-2.4340598071	-0.5703344294	-0.561058
C	-2.3049228024	-2.5705481393	-0.3324957672	-0.044449
N	-1.1824233449	-1.9641006664	-0.1722275471	-0.264112
H	 1.0507492525	 1.6488491641	 0.3321946274	 0.136774
H	-0.4062579056	 1.8643846513	-0.692431369	 0.136469
H	-0.5825043406	 1.7281043884	 1.0705908868	 0.136431
H	-4.304141708	 0.0357495649	-0.3316697602	 0.276429
H	-4.6900933869	-3.4465830292	-0.6410943273	 0.216514
H	-2.2957024642	-3.6575985988	-0.4160936138	 0.13623
69.4221	138.4417	199.0594	227.2225	339.0527	367.4796	384.5769	488.0054	519.7188	559.7072	644.7527	652.2641	747.0319	791.3209	808.5448	831.7903	980.7383	1000.0606	1075.808	1114.1992	1180.784	1202.2232	1255.1642	1327.3881	1387.5545	1418.2261	1444.318	1479.0536	1492.8312	1500.0908	1589.3409	1651.9412	1706.8265	3036.5593	3104.107	3133.7881	3153.8164	3503.1584	3625.3691
COC1=NNC(=N)C=N1	COc1n[nH]c([NH])cn1	
InChI=1S/C4H6N4O/c1-9-4-6-2-3(5)7-8-4/h2H,1H3,(H2,5,7)	InChI=1S/C4H11N4O/c1-9-4-6-2-3(5)7-8-4/h3-8H,2H2,1H3
