18
gdb 70104	2.5004	1.89087	1.35747	1.2468	77.28	-0.2255	0.0084	0.2339	980.6164	0.148771	-401.910892	-401.903368	-401.902424	-401.942346	30.87	
O	-0.1155518404	 1.3522148731	 0.003878355	-0.464293
C	 0.0345184571	-0.0353847975	-5.3861*^-6	 0.316049
C	-0.5362894789	-0.7941002147	 1.1556329781	-0.308969
C	 0.9758939672	-0.7936212283	 0.9187449948	-0.182853
C	 1.5161434083	-1.9096612485	 0.0878586783	-0.095841
C	 1.020094584	-1.8913689869	-1.1547748829	-0.142756
C	 0.0874805287	-0.7470582319	-1.347282158	 0.259512
C	-1.0815129946	-0.7331393423	-2.2655393186	-0.2877
N	 0.129548415	 0.0319167656	-2.6028897721	-0.377508
H	 0.7373817468	 1.7448495768	-0.2148679105	 0.288862
H	-0.8919950627	-0.1845790836	 1.9795344104	 0.119643
H	-1.0889299075	-1.7100342388	 0.9745638119	 0.117078
H	 1.6000133262	-0.2860928447	 1.6464999237	 0.091477
H	 2.2071565158	-2.6489296412	 0.4758398427	 0.10054
H	 1.230636208	-2.6041357663	-1.9423455674	 0.105007
H	-1.278714445	-1.5862427653	-2.9094470051	 0.115727
H	-1.9659658549	-0.1927793724	-1.9358012619	 0.118069
H	-0.0332702429	 1.0096126569	-2.3641446223	 0.227956
129.2356	232.6487	260.4938	298.428	361.4866	391.4239	410.0403	470.3037	551.3894	590.3941	636.2605	750.8402	766.7866	819.4067	861.8353	891.4742	919.7075	929.8655	952.5349	955.1323	981.315	998.7464	1039.1531	1058.2893	1070.0224	1082.2741	1110.3775	1137.9659	1214.9614	1246.0089	1281.0553	1295.6114	1325.6102	1354.5595	1400.5387	1412.2813	1473.3865	1505.2727	1650.9188	3099.3666	3127.7316	3168.6078	3187.1668	3194.721	3220.5092	3223.5708	3473.118	3790.1941
OC12CC1C=CC21CN1	O[C@]12C[C@H]1C=C[C@]12CN1	
InChI=1S/C7H9NO/c9-7-3-5(7)1-2-6(7)4-8-6/h1-2,5,8-9H,3-4H2	InChI=1S/C7H9NO/c9-7-3-5(7)1-2-6(7)4-8-6/h1-2,5,8-9H,3-4H2/t5-,6-,7-/m1/s1
