16
gdb 88221	3.8775	0.68411	0.66768	2.6741	77.81	-0.2593	-0.0307	0.2286	1701.4469	0.121878	-437.867745	-437.857924	-437.85698	-437.904266	33.811	
C	 1.0188546799	 1.2029164251	-0.5416925185	-0.425311
C	 0.1179187833	 0.1003784926	-0.0561784959	 0.097508
O	 0.7330146462	-1.0899962495	 0.428523454	-0.240045
C	 0.0006161775	-0.2869779575	 1.3711529863	-0.16999
C	 0.7465382035	 0.3686077335	 2.4084329813	 0.069762
C	 1.3431129024	 0.9151764498	 3.3031592685	 0.092181
C	 2.0078727899	 1.5972597707	 4.4056320259	 0.260997
N	 3.3602624477	 1.4121919848	 4.4301502128	-0.520889
O	 1.405641658	 2.277574052	 5.212858908	-0.330745
H	 1.8431087476	 1.3703108396	 0.1544241515	 0.138141
H	 1.4333916092	 0.9451029953	-1.5214924806	 0.133951
H	 0.45384762	 2.1346439998	-0.6481103402	 0.131677
H	-0.7692334594	-0.0837937146	-0.6655292679	 0.101019
H	-0.9381871811	-0.7328974643	 1.6988190154	 0.124385
H	 3.8089610552	 0.7547375154	 3.816072341	 0.26955
H	 3.8736437101	 1.7889379171	 5.2104709283	 0.267809
23.4296	71.227	82.0656	172.33	189.7764	205.7978	228.657	349.063	382.4944	406.1461	548.2717	559.9038	577.4404	615.0036	733.6542	771.1743	782.3403	843.1296	949.8602	1000.6486	1069.3471	1091.7672	1100.0197	1162.0346	1177.0004	1282.0629	1349.0099	1376.9488	1411.9852	1445.9686	1483.3908	1496.6011	1609.3927	1775.4858	2341.5793	3043.5058	3089.6968	3108.189	3115.1363	3139.5396	3598.4608	3738.7886
CC1OC1C#CC(N)=O	C[C@H]1O[C@H]1C#CC(=O)N	
InChI=1S/C6H7NO2/c1-4-5(9-4)2-3-6(7)8/h4-5H,1H3,(H2,7,8)	InChI=1S/C6H7NO2/c1-4-5(9-4)2-3-6(7)8/h4-5H,1H3,(H2,7,8)/t4-,5+/m1/s1
