18
gdb 115111	2.80865	1.32458	1.05286	0.5738	68.07	-0.2534	0.0096	0.263	1153.3164	0.148305	-476.223516	-476.214781	-476.213837	-476.257134	32.262	
O	 0.0451488413	 1.4094293682	-0.045801648	-0.424065
C	 0.0605681694	-0.0038153935	-0.0136563168	-0.078088
C	-1.3438150962	-0.5818431944	 0.0951421343	 0.101137
O	-2.0606535042	-0.0926781058	-1.067609087	-0.25893
C	-3.1547968865	-0.7931008379	-1.4528303417	 0.115059
N	-3.6097523163	-1.8828723052	-1.0004630052	-0.270193
C	-2.87822808	-2.5321131498	 0.0899007173	-0.191391
C	-1.4073147121	-2.111772925	 0.1448266854	 0.06987
O	-0.6498746075	-2.7046382866	-0.9024340459	-0.436791
H	-0.5050242723	 1.6624115247	-0.7952866944	 0.291299
H	 0.5534570421	-0.4361089912	-0.8941093591	 0.1097
H	 0.6352665726	-0.2957483594	 0.8715104101	 0.112892
H	-1.838569125	-0.1645036324	 0.9819551945	 0.095991
H	-3.6470129383	-0.2841006852	-2.2800222996	 0.129703
H	-3.3793320652	-2.3072329244	 1.0397895162	 0.118851
H	-2.9402103237	-3.6161025731	-0.0516132132	 0.122511
H	-0.9439364133	-2.4530782475	 1.076863778	 0.098052
H	-1.165354995	-2.6446787716	-1.7147807252	 0.294393
85.1957	113.4271	137.3205	175.4332	287.7705	304.2197	351.2782	392.5682	404.5354	468.3446	514.5351	605.8903	709.2505	794.4785	857.1054	905.9109	925.7526	958.81	970.5791	1024.1659	1053.4473	1093.8139	1109.5121	1131.939	1168.2798	1229.6592	1235.4477	1252.4007	1324.0068	1330.5481	1365.0317	1379.4174	1397.4941	1407.6486	1420.3046	1434.9581	1478.5901	1498.7702	1727.5957	3021.0385	3027.4341	3033.9614	3060.5651	3074.0163	3086.8063	3156.8398	3801.9814	3810.4495
OCC1OC=NCC1O	OC[C@H]1OC=NC[C@H]1O	
InChI=1S/C5H9NO3/c7-2-5-4(8)1-6-3-9-5/h3-5,7-8H,1-2H2	InChI=1S/C5H9NO3/c7-2-5-4(8)1-6-3-9-5/h3-5,7-8H,1-2H2/t4-,5-/m1/s1
