18
gdb 56923	2.18944	1.24498	0.94927	1.4185	84.03	-0.2493	0.033	0.2823	1296.6383	0.14481	-364.71671	-364.707043	-364.706099	-364.751432	35.951	
C	 0.2008414818	 1.357715013	 0.2040995801	-0.3954
C	-0.2478632544	-0.0974340236	-0.0404963668	-0.162923
C	-1.7019681143	-0.1995165442	-0.158190484	 0.328734
C	-2.8968099686	-0.2593780382	-0.2754974463	-0.474759
C	 0.4248404889	-0.6635085722	-1.2840785889	-0.00101
N	 1.8452047411	-0.9831350201	-1.1576856786	-0.332531
C	 0.876086654	-2.0876603024	-1.3791145212	-0.249156
C	 0.6958528006	-3.0357315427	-0.314277146	 0.381252
C	 0.5261154869	-3.8473045339	 0.5562477108	-0.440478
H	 1.2893255341	 1.392504848	 0.2985398381	 0.132555
H	-0.1031251845	 2.0040591481	-0.6252337297	 0.1195
H	-0.2477710915	 1.7505591547	 1.1197935526	 0.126247
H	 0.0792529205	-0.707476927	 0.8098562093	 0.124533
H	-3.9526296127	-0.3265855074	-0.3653338513	 0.194482
H	 0.0812103067	-0.2185851785	-2.2170769298	 0.097463
H	 2.3417473964	-0.7861623862	-2.0225465409	 0.238097
H	 0.8452727385	-2.5241343673	-2.3753424552	 0.11309
H	 0.3797281466	-4.5595320001	 1.3301376079	 0.200304
47.8879	101.1046	137.9157	203.2204	219.2131	247.8526	253.5748	340.5062	417.063	496.3406	528.9756	554.1077	609.4175	626.6574	634.2324	642.6062	662.0045	783.956	834.9931	862.2669	923.522	959.0672	986.9603	1031.4905	1085.9902	1111.3	1139.4241	1191.7163	1228.1484	1251.1829	1303.633	1324.2028	1396.345	1404.0848	1454.0714	1497.347	1498.3273	2236.1518	2241.2134	3041.4676	3045.5608	3114.7189	3118.4957	3128.2979	3130.0989	3504.0424	3505.5824	3507.7067
CC(C#C)C1NC1C#C	C[C@@H](C#C)[C@H]1N[C@H]1C#C	
InChI=1S/C8H9N/c1-4-6(3)8-7(5-2)9-8/h1-2,6-9H,3H3	InChI=1S/C8H9N/c1-4-6(3)8-7(5-2)9-8/h1-2,6-9H,3H3/t6-,7-,8+/m0/s1
