21
gdb 56974	2.7804	1.22148	0.95318	0.7205	87.76	-0.2471	0.0576	0.3047	1295.8959	0.181643	-349.893816	-349.884711	-349.883767	-349.927629	35.232	
C	-0.1080887764	 1.5135269967	-0.0096946805	-0.39316
C	 0.0194459984	-0.0201667364	-0.1040679315	-0.175973
C	 0.7742654007	-0.4132967757	-1.2931240292	 0.336937
C	 1.4217847183	-0.7273981748	-2.2567062243	-0.480836
C	 0.6726529859	-0.6080378133	 1.1610461205	 0.040286
C	-0.0940736067	-0.5216313605	 2.5284859696	-0.271927
C	 0.0606943932	-2.0395931882	 2.6857782666	-0.040265
C	-0.6059340024	-2.7405000249	 1.5386891606	-0.275121
C	 0.7527479021	-2.1317276864	 1.3223502346	-0.058148
H	 0.8792728512	 1.9778275263	 0.0752371036	 0.123906
H	-0.5976272616	 1.9210950468	-0.897916827	 0.123957
H	-0.6971244067	 1.7933280943	 0.8689288029	 0.117761
H	-0.9923955812	-0.438977572	-0.1924805821	 0.099908
H	 1.9807930474	-1.0103461036	-3.1138314064	 0.191588
H	 1.668303298	-0.1662270828	 1.2673197082	 0.08037
H	 0.447354985	 0.0625252762	 3.2752312185	 0.103099
H	-1.1274813605	-0.1581786057	 2.486894971	 0.092418
H	 0.3073364955	-2.5509013395	 3.6080171536	 0.084562
H	-0.6121542443	-3.8244727382	 1.5919266777	 0.110762
H	-1.4969020121	-2.3195685935	 1.0776661415	 0.10287
H	 1.5990030863	-2.7383194749	 1.0247355222	 0.087006
66.374	118.4262	148.5734	206.8833	229.6248	260.9861	351.8497	388.6666	447.653	507.9404	569.429	622.5812	631.7362	691.0802	779.6608	796.4719	806.7592	872.7309	925.1689	951.6947	954.5389	996.0623	1008.1081	1029.7341	1046.6562	1064.68	1084.6661	1093.791	1107.5639	1142.187	1169.4898	1211.9695	1244.1861	1265.256	1285.259	1302.6469	1328.8425	1367.377	1377.9946	1407.4901	1482.4159	1493.7206	1498.0841	1500.4695	2231.1929	3010.6499	3035.0445	3040.6372	3056.2788	3105.9788	3106.9608	3113.4044	3120.4693	3180.8229	3186.7347	3201.2096	3505.3261
CC(C#C)C1CC2CC12	C[C@@H](C#C)[C@H]1C[C@H]2C[C@@H]12	
InChI=1S/C9H12/c1-3-6(2)8-4-7-5-9(7)8/h1,6-9H,4-5H2,2H3	InChI=1S/C9H12/c1-3-6(2)8-4-7-5-9(7)8/h1,6-9H,4-5H2,2H3/t6-,7-,8+,9+/m0/s1
