14
gdb 16656	3.23642	2.26285	1.53718	3.0609	57.19	-0.2501	-0.0421	0.2081	797.1641	0.107091	-419.671725	-419.664938	-419.663994	-419.702969	25.416	
O	 0.4118139154	 1.031802495	 0.7277435063	-0.432137
C	-0.0469615402	-0.0913756528	 0.0301353367	 0.064416
C	-1.5733440837	-0.1259190986	-0.2027079434	-0.271759
C	-1.7302462379	-0.6623242135	-1.6203629278	 0.037659
O	-1.3223556248	 0.2925157309	-2.6001071077	-0.231378
C	-0.4230263257	-0.791441146	-2.2969876755	-0.098592
C	 0.6154804195	-0.2537556466	-1.3433383574	 0.37437
O	 1.7599643296	 0.0451952406	-1.5744784549	-0.328905
H	 1.3085630034	 1.2003318616	 0.4047328249	 0.295691
H	 0.2285570259	-1.0249274295	 0.5607114937	 0.099128
H	-2.0832000794	-0.7570082299	 0.5287841353	 0.114161
H	-1.9858842784	 0.8843129936	-0.1363274059	 0.142573
H	-2.5764106381	-1.2830610142	-1.9011690525	 0.112055
H	-0.1866434857	-1.4710906105	-3.1096064318	 0.122722
69.0703	189.8152	265.5608	368.4968	393.0242	425.6855	475.1527	598.8937	627.9039	718.9007	796.1779	848.6501	856.0633	936.4773	974.2544	1028.6291	1053.603	1098.4076	1139.8712	1165.8454	1208.1439	1234.0861	1255.0739	1298.6632	1312.0392	1361.04	1399.3603	1417.3431	1480.912	1843.2796	2903.294	3070.6262	3120.3547	3158.0309	3173.8288	3741.1462
OC1CC2OC2C1=O	O[C@H]1C[C@H]2O[C@H]2C1=O	
InChI=1S/C5H6O3/c6-2-1-3-5(8-3)4(2)7/h2-3,5-6H,1H2	InChI=1S/C5H6O3/c6-2-1-3-5(8-3)4(2)7/h2-3,5-6H,1H2/t2-,3+,5+/m0/s1
