20
gdb 78522	2.35342	1.82721	1.19239	1.2674	80.13	-0.2157	0.0804	0.2961	1103.7994	0.167898	-403.046234	-403.037312	-403.036368	-403.07909	34.528	
C	-0.6280036529	 1.4508703715	-0.422510556	-0.326941
N	-0.4176544805	 0.033103666	-0.1506877448	-0.113238
C	-1.237999803	-0.5799375545	 0.933547419	-0.178525
C	-0.1365841782	-1.6514949152	 1.205895619	 0.472359
C	 0.0409487128	-3.0173914853	 0.6343371524	-0.531369
O	-0.1224110136	-1.4463929203	 2.6467050824	-0.381208
C	-0.3309362474	-0.0921333697	 2.1347245074	 0.455008
C	-0.4548318578	 0.9931022636	 3.1585371826	-0.533142
C	 0.6037353636	-0.3173339751	 0.8780634459	-0.178518
H	 0.1934917517	 1.8209873475	-1.044987058	 0.121162
H	-1.5553378668	 1.5715937121	-0.9924191293	 0.121162
H	-0.6925984109	 2.0921466701	 0.4710726192	 0.097837
H	-2.322035112	-0.7011179661	 0.8824069546	 0.081188
H	-0.0009345388	-2.9591582776	-0.4571183931	 0.143305
H	 1.0071067646	-3.4384401953	 0.928885242	 0.13196
H	-0.7493484023	-3.6892688334	 0.9829252556	 0.131972
H	 0.4527495922	 1.0357996102	 3.7694658081	 0.136335
H	-0.6074680711	 1.969731504	 2.6939678884	 0.133143
H	-1.3012381606	 0.7864639067	 3.8216025134	 0.136323
H	 1.673504591	-0.1314308689	 0.7620173711	 0.081188
162.6834	186.0548	190.277	200.5598	218.3579	234.4032	257.5405	329.0058	392.0366	550.0293	562.137	591.261	669.9072	738.3095	742.4544	782.5022	802.425	828.0321	908.4322	914.9853	1015.9287	1066.6781	1073.0247	1095.5489	1106.8325	1118.8052	1146.0257	1159.3196	1166.0758	1208.9189	1233.0848	1268.905	1284.9925	1387.6526	1403.7802	1443.8364	1451.8643	1472.375	1477.3434	1483.6023	1491.2435	1495.4435	1497.9065	2978.3735	3040.206	3040.7197	3062.5066	3095.7306	3096.5487	3102.4539	3105.9911	3110.9278	3123.0826	3131.4155
CN1C2C3(C)OC2(C)C13	CN1[C@H]2[C@]3(C)O[C@@]2(C)[C@H]13	
InChI=1S/C7H11NO/c1-6-4-7(2,9-6)5(6)8(4)3/h4-5H,1-3H3	InChI=1S/C7H11NO/c1-6-4-7(2,9-6)5(6)8(4)3/h4-5H,1-3H3/t4-,5+,6-,7+
