20
gdb 65782	3.14431	1.03859	1.00135	2.2799	77.02	-0.2563	0.0198	0.2761	1293.0476	0.170705	-440.286395	-440.277256	-440.276312	-440.321397	33.602	
C	-0.0390572966	 1.6144915758	-0.0369864641	-0.4391
C	-0.00489015	 0.0871774571	 0.0095033586	 0.375234
C	 0.7653736737	-0.5135320408	-1.1964992358	-0.28466
C	 1.8977587738	-1.3296862544	-0.5500320996	-0.08439
O	 2.0975671716	-0.7350171917	 0.7283757359	-0.245076
C	 0.8028527345	-0.4624193896	 1.221608148	-0.128712
O	-1.342640151	-0.4512786672	-0.0435198657	-0.231986
C	-2.1509315064	-0.2573140632	 1.0153033974	 0.115132
N	-3.3413334707	-0.6792392192	 0.9819832327	-0.445145
H	 0.983762187	 2.0021546678	-0.0099837806	 0.133736
H	-0.5193032072	 1.9583919663	-0.9575776587	 0.134029
H	-0.5835058286	 2.0360397732	 0.8137767621	 0.116236
H	 0.091495462	-1.1195768354	-1.8035531189	 0.131691
H	 1.1684753149	 0.2845203973	-1.8241111157	 0.110764
H	 1.6073961563	-2.3860685023	-0.4378155995	 0.100245
H	 2.8443223384	-1.285738938	-1.0927586459	 0.11367
H	 0.9004559382	 0.2450622851	 2.0491402424	 0.109329
H	 0.3149867768	-1.3806044678	 1.5879906707	 0.101632
H	-1.6802236127	 0.2702584112	 1.8547183465	 0.090068
H	-3.8095589241	-0.461966894	 1.8593427002	 0.2273
26.3622	82.0858	148.3653	182.4785	254.5907	279.4576	344.9601	353.0916	388.1668	457.842	508.1821	645.5855	692.33	785.066	818.6219	846.1355	934.1515	938.6071	952.4437	977.8526	1000.8162	1040.318	1046.6331	1105.8089	1110.6403	1167.2197	1188.29	1210.131	1246.9359	1257.446	1288.63	1299.121	1334.2367	1362.2414	1396.2498	1410.3804	1428.3441	1483.7108	1491.3543	1494.319	1503.013	1522.0278	1740.1043	2972.1005	2985.5699	3032.1712	3039.8634	3075.0452	3093.5326	3106.3085	3111.1157	3120.2849	3134.78	3515.7306
CC1(CCOC1)OC=N	C[C@]1(CCOC1)O[CH][NH]	
InChI=1S/C6H11NO2/c1-6(9-5-7)2-3-8-4-6/h5,7H,2-4H2,1H3	InChI=1S/C6H11NO2/c1-6(9-5-7)2-3-8-4-6/h5,7H,2-4H2,1H3/t6-/m1/s1
