18
gdb 18263	4.29988	1.59171	1.32385	2.0158	67.67	-0.2533	0.0892	0.3425	970.1921	0.154055	-384.928158	-384.920635	-384.919691	-384.960088	28.204	
C	 0.0752043981	 1.4855790223	 0.1445267576	-0.38308
C	 0.0342382111	-0.0394886028	 0.0204164731	-0.185222
C	 0.6642344069	-0.5513157399	-1.2713497044	 0.11967
O	 2.0339119267	-0.1345512501	-1.3174259795	-0.272198
C	 2.8295773718	-1.1098998293	-1.977829375	-0.105507
C	 2.0681895686	-2.4106760593	-1.8486300225	 0.025411
O	 1.6425190216	-2.6750742461	-0.5069734257	-0.249245
C	 0.716788268	-2.0615267336	-1.4126339799	 0.002331
H	 1.1063941177	 1.8458852543	 0.1137571511	 0.137855
H	-0.4732730462	 1.9654376	-0.6741296064	 0.108792
H	-0.3758528707	 1.8141071001	 1.0856060705	 0.110146
H	 0.5638879337	-0.5068403311	 0.8571888545	 0.118545
H	-1.0043211812	-0.392847359	 0.0561019019	 0.091049
H	 0.1155610823	-0.1470417107	-2.1417503658	 0.065062
H	 2.9679643158	-0.8715261479	-3.0455822328	 0.093868
H	 3.8122848991	-1.1263859273	-1.4947240666	 0.119102
H	 2.3088848447	-3.2738497278	-2.4628824705	 0.102588
H	-0.1724965982	-2.6343045818	-1.6614524796	 0.100833
99.4793	127.4349	185.1897	235.3949	292.3381	374.5397	427.4583	507.8109	685.5314	758.2993	794.1605	837.8862	863.5566	886.0853	926.486	948.665	974.5051	1023.4115	1049.4255	1058.7669	1100.2546	1120.9513	1131.3761	1162.2765	1228.386	1258.9287	1289.423	1305.8834	1324.9906	1345.5522	1375.2646	1405.904	1409.536	1446.089	1479.1962	1498.1439	1505.6717	1509.1911	2937.8644	2972.0089	3029.282	3036.1888	3070.2147	3079.0203	3102.5985	3126.732	3150.8504	3163.9427
CCC1OCC2OC12	CC[C@H]1OC[C@H]2O[C@@H]12	
InChI=1S/C6H10O2/c1-2-4-6-5(8-6)3-7-4/h4-6H,2-3H2,1H3	InChI=1S/C6H10O2/c1-2-4-6-5(8-6)3-7-4/h4-6H,2-3H2,1H3/t4-,5-,6+/m1/s1
