17
gdb 91527	2.69121	1.43231	1.13138	1.8216	69.27	-0.244	0.0071	0.2511	1094.7197	0.136706	-455.134974	-455.126488	-455.125544	-455.168438	32.105	
N	 0.070992679	 1.2718781617	-0.2247049822	-0.542505
C	 0.0026660525	-0.0429706854	 0.1329286709	 0.283669
O	 0.9501930534	-0.6667980692	 0.582538138	-0.380086
C	-1.3156832609	-0.6931893397	-0.0951309157	 0.249408
N	-1.7115679476	-1.7964704993	 0.8203883754	-0.384949
C	-1.5505096081	-2.0839538483	-0.6087616772	-0.086666
C	-2.8588494797	-1.6676890143	-1.2813985599	-0.262093
C	-2.6336058738	-0.2074617443	-0.7216014647	 0.04325
O	-3.5748290946	 0.3419519221	 0.1557207846	-0.437165
H	 0.9121239803	 1.7709516077	 0.0182943573	 0.264996
H	-0.7689854806	 1.8075135607	-0.3675913865	 0.27193
H	-0.8445051058	-2.0686342623	 1.2878734504	 0.253972
H	-0.8002035912	-2.7832651162	-0.9542720191	 0.118261
H	-2.8284991171	-1.7061008363	-2.3720745825	 0.110295
H	-3.7546940741	-2.1738742953	-0.9140570727	 0.11223
H	-2.4870492103	 0.5125618175	-1.5311772414	 0.092103
H	-3.5857967113	-0.2449127992	 0.9243625354	 0.293348
50.6648	119.4769	179.4513	192.9495	325.5693	344.6894	404.658	441.2079	470.4571	510.6746	564.0236	641.9721	660.983	707.6011	762.8314	828.8891	873.5157	906.2626	953.5402	997.6047	1035.0781	1050.4273	1093.3104	1107.4025	1141.5309	1169.5644	1186.7101	1236.0447	1288.9078	1308.5283	1317.1387	1371.9333	1432.9438	1444.6061	1474.6122	1620.1283	1774.5289	3068.4936	3078.5689	3131.2071	3207.9124	3460.2845	3591.98	3722.3847	3755.5704
NC(=O)C12NC1CC2O	NC(=O)[C@]12N[C@H]1C[C@H]2O	
InChI=1S/C5H8N2O2/c6-4(9)5-2(7-5)1-3(5)8/h2-3,7-8H,1H2,(H2,6,9)	InChI=1S/C5H8N2O2/c6-4(9)5-2(7-5)1-3(5)8/h2-3,7-8H,1H2,(H2,6,9)/t2-,3+,5-/m0/s1
