20
gdb 64169	2.18039	1.47658	1.32419	2.8986	78.73	-0.263	0.023	0.286	1113.3412	0.168467	-403.15923	-403.149426	-403.148482	-403.193381	36.533	
C	-0.4493567348	 1.5267127715	 0.208336238	-0.437473
C	 0.0073522233	 0.0877473254	 0.0361235607	 0.382479
C	-1.0744418542	-0.7673566817	-0.6158634949	-0.43333
O	 1.2404558519	 0.0165525563	-0.7357264986	-0.314249
C	 1.8567184533	-0.867735649	 0.2079397789	-0.108836
C	 0.7425696921	-0.6080437376	 1.2597212913	 0.053506
C	 1.1876879579	 0.3090772953	 2.4067029176	-0.457255
C	 0.0918071036	-1.7957365934	 1.7997447768	 0.247688
N	-0.4193923728	-2.7355925237	 2.2388078094	-0.352864
H	 0.3376750454	 2.1604867841	 0.6194690626	 0.123622
H	-0.7288010058	 1.9314354062	-0.769459779	 0.133564
H	-1.3270493701	 1.5823399694	 0.8600926502	 0.125932
H	-1.3248711915	-0.3457954195	-1.5937353345	 0.125649
H	-0.7381612037	-1.7965270497	-0.7625008358	 0.134238
H	-1.9810624678	-0.7912805906	-0.0035262622	 0.13034
H	 1.9081687228	-1.9018444868	-0.1533643972	 0.117466
H	 2.8579775039	-0.5341493144	 0.5011376371	 0.113789
H	 1.7554575789	 1.1568429466	 2.0172153999	 0.136965
H	 0.3316932262	 0.6883532083	 2.971074044	 0.138895
H	 1.8310219415	-0.2434735067	 3.0973481758	 0.139874
67.2857	147.5369	167.0571	188.0013	227.6983	245.6295	280.8577	319.8423	344.9857	364.9345	394.3371	466.0522	547.9518	567.8582	608.5515	677.0905	852.2048	888.9944	930.9301	936.7225	950.0032	987.8472	997.0505	1039.4056	1132.9957	1151.2359	1167.4261	1181.8571	1216.3727	1252.0422	1281.6376	1347.1776	1400.9099	1408.4037	1418.3217	1468.4126	1476.45	1486.8908	1492.2329	1499.3248	1508.169	1527.0392	2349.137	3022.4627	3041.8656	3046.6387	3049.9312	3073.9592	3109.0411	3119.0667	3120.8493	3126.8612	3130.9461	3141.8789
CC1(C)OCC1(C)C#N	CC1(C)OC[C@]1(C)C#N	
InChI=1S/C7H11NO/c1-6(2)7(3,4-8)5-9-6/h5H2,1-3H3	InChI=1S/C7H11NO/c1-6(2)7(3,4-8)5-9-6/h5H2,1-3H3/t7-/m0/s1
