16
gdb 27899	1.98538	1.92032	0.98803	1.4672	73.83	-0.2634	-0.0376	0.2258	1165.2185	0.124588	-434.158992	-434.150339	-434.149395	-434.194385	30.286	
C	 0.0590879545	 1.4543973351	-0.0181191711	-0.460647
C	 0.0522138516	-0.0457004176	 0.0013973188	 0.342707
N	 0.0889630186	-0.6730471607	-1.1813599251	-0.377028
C	 0.0806145287	-2.0021853924	-1.0987639071	 0.439378
O	 0.1157922059	-2.6888949215	-2.2417794524	-0.381233
N	 0.0404252466	-2.7295220377	 0.016004535	-0.31184
C	 0.0062446792	-2.0038878938	 1.134079207	 0.346977
C	-0.0403475831	-2.7355699135	 2.4424231707	-0.459885
N	 0.0102445001	-0.6617886654	 1.1837708142	-0.316998
H	 0.9563249738	 1.8179951719	-0.5287679201	 0.145788
H	-0.800694048	 1.8252475894	-0.5849369424	 0.145813
H	 0.0281283588	 1.8470914909	 0.9977554357	 0.142372
H	 0.1422093442	-2.03185336	-2.9519773688	 0.307574
H	 0.8196521126	-2.4519902444	 3.0571613589	 0.14713
H	-0.9360693008	-2.4434883228	 2.9994385924	 0.147119
H	-0.0401352126	-3.8129457874	 2.2792643944	 0.142773
20.6133	39.3181	181.8961	187.8908	198.4673	287.8156	330.9416	533.4698	569.2063	583.3422	597.2937	599.6083	633.943	692.6338	842.6874	965.1013	983.7227	1001.0203	1053.832	1061.0482	1069.9783	1103.5848	1203.2746	1279.1038	1375.789	1392.2824	1419.4582	1444.4622	1467.9398	1476.1951	1478.1844	1478.4933	1504.3767	1592.4765	1628.706	3049.8456	3050.3757	3107.932	3108.689	3162.0348	3162.4753	3768.2868
CC1=NC(O)=NC(C)=N1	Cc1nc(O)nc(C)n1	
InChI=1S/C5H7N3O/c1-3-6-4(2)8-5(9)7-3/h1-2H3,(H,6,7,8,9)	InChI=1S/C5H7N3O/c1-3-6-4(2)8-5(9)7-3/h1-2H3,(H,6,7,8,9)
