19
gdb 68140	3.62478	1.27537	1.1181	1.7456	82.47	-0.2459	0.0255	0.2714	1146.2917	0.158375	-385.849356	-385.841065	-385.840121	-385.881629	33.244	
C	-0.1365113052	 1.4927769971	-0.0209201677	-0.49773
C	 0.0338438975	 0.0011460051	-0.0212077394	 0.405519
C	 0.7978810469	-0.7839856802	-1.1139609184	-0.311091
C	-0.2269195921	-1.8498959467	-0.6473975999	 0.334056
C	 0.2458942824	-2.1876122974	 0.7929980835	-0.269766
C	 0.4495822347	-0.723510921	 1.2827509409	-0.254604
O	-1.1730055379	-0.754826302	-0.3940686885	-0.358651
C	-0.7021206449	-2.915498153	-1.4899884923	 0.08835
C	-1.0726320357	-3.8222933552	-2.1865087535	-0.341536
H	 0.8111989235	 1.9840516319	 0.2231086425	 0.122217
H	-0.4716429706	 1.848758108	-0.9987954687	 0.12875
H	-0.8770565885	 1.792914007	 0.7277800115	 0.130279
H	 0.5682717272	-0.4210330241	-2.1158427226	 0.115699
H	 1.8641325685	-0.98902143	-0.9884582267	 0.095099
H	-0.5351300996	-2.7189760354	 1.3387920899	 0.116968
H	 1.156334757	-2.791603526	 0.8012250558	 0.105435
H	 1.478295705	-0.5014740184	 1.5802014577	 0.097881
H	-0.2172182961	-0.4585097063	 2.1064024191	 0.106934
H	-1.4065078522	-4.6186434335	-2.8048160631	 0.186191
135.0987	145.2139	197.3615	248.0416	296.1063	338.8239	433.173	487.8688	524.1748	529.344	576.4771	609.7619	621.1912	680.3557	726.1472	800.4724	827.5778	842.746	896.2268	920.2349	961.0527	979.7967	1008.0716	1059.1051	1100.8023	1131.9043	1160.699	1191.6003	1223.909	1230.6678	1240.2135	1249.425	1321.2158	1362.0564	1417.6479	1477.7516	1482.002	1482.9076	1492.8488	1508.6751	2242.0911	3037.4716	3060.5545	3067.0227	3077.1603	3105.0196	3109.6928	3118.2503	3132.4831	3148.4109	3501.8583
CC12CC(CC1)(O2)C#C	C[C@@]12C[C@@](CC1)(O2)C#C	
InChI=1S/C8H10O/c1-3-8-5-4-7(2,6-8)9-8/h1H,4-6H2,2H3	InChI=1S/C8H10O/c1-3-8-5-4-7(2,6-8)9-8/h1H,4-6H2,2H3/t7-,8+/m0/s1
