19
gdb 74851	2.46783	1.79916	1.22745	1.7287	81.69	-0.2279	0.0094	0.2372	1059.8824	0.159442	-385.8743	-385.866386	-385.865442	-385.906384	31.406	
C	 0.0664548845	 1.4871182269	 0.0521723718	-0.510047
C	 0.0238177452	-0.006577054	 0.0000872818	 0.248233
C	-0.1049652286	-0.7979321603	-1.0744037127	-0.191534
C	-0.056499374	-2.2486659737	-0.7311007074	-0.085908
C	 1.2486440872	-2.73088152	-0.1237287514	-0.288262
C	 0.1190013178	-2.2893253489	 0.7742463372	-0.133933
C	 0.1190176171	-0.8527474141	 1.2346837581	 0.378277
C	 0.6911495627	-0.4093121781	 2.5154948618	-0.249949
O	-0.7241438596	-0.5041736251	 2.3515154021	-0.289072
H	 1.0589213461	 1.8557888251	 0.3411698564	 0.124949
H	-0.182161982	 1.9251677337	-0.9177902283	 0.12425
H	-0.6441905904	 1.8638844384	 0.7962980853	 0.142744
H	-0.1951305405	-0.4412331428	-2.0947773258	 0.095012
H	-0.6809025638	-2.9570902865	-1.2636192137	 0.09091
H	 1.4575398608	-3.7956321749	-0.1550825757	 0.111679
H	 2.1202479432	-2.0924300483	-0.2262990804	 0.112834
H	-0.3831631425	-3.0184209783	 1.3979677123	 0.099729
H	 1.1400203859	-1.1487801466	 3.1782904296	 0.111997
H	 1.083022931	 0.6016871473	 2.6223348789	 0.108092
122.9105	168.7669	205.8569	244.8212	263.8381	371.2907	432.287	450.3985	533.0183	617.7262	654.3134	724.1219	808.5996	815.9841	835.5705	861.6347	895.2731	932.3519	980.8269	995.8177	1008.6969	1027.8224	1064.474	1070.1668	1071.458	1098.6363	1129.3972	1153.9634	1166.4104	1189.5594	1239.6585	1315.7664	1338.4544	1360.545	1407.1451	1419.1762	1476.4377	1478.5299	1494.7656	1528.068	1693.7863	3021.9499	3074.6556	3076.8377	3116.6469	3122.279	3160.1741	3170.6582	3190.01	3192.307	3212.9836
CC1=CC2CC2C11CO1	CC1=C[C@H]2C[C@H]2[C@]21CO2	
InChI=1S/C8H10O/c1-5-2-6-3-7(6)8(5)4-9-8/h2,6-7H,3-4H2,1H3	InChI=1S/C8H10O/c1-5-2-6-3-7(6)8(5)4-9-8/h2,6-7H,3-4H2,1H3/t6-,7+,8+/m0/s1
