17
gdb 72357	2.33012	1.49474	1.18452	2.6119	74.78	-0.2312	-0.0221	0.2092	1085.9956	0.135189	-421.825229	-421.81717	-421.816225	-421.857774	30.974	
O	-0.0323317088	 1.3483372855	 0.0100803548	-0.458636
C	-0.0012089678	-0.0392642938	-0.0571954579	 0.376811
C	 0.9027866292	-0.6965717392	-1.1078638176	-0.349511
C	 0.0833390814	-1.8729101008	-1.5912903032	-0.074017
C	-1.1126655479	-1.9223871931	-0.9978017767	-0.075944
C	-1.2837364491	-0.8079493901	-0.0193189084	-0.151225
C	-0.3610234686	-0.8056173333	 1.223466622	-0.181021
C	 0.3593280948	-1.996596571	 1.7222049232	 0.140782
O	 0.7020084213	-2.1291200814	 2.8757182223	-0.277023
H	 0.7568696426	 1.6490300205	 0.4745328296	 0.290269
H	 1.0945563927	 0.0256989686	-1.9121467508	 0.125904
H	 1.8809766599	-0.9972346346	-0.7133891228	 0.11846
H	 0.4556030435	-2.5829775286	-2.3203095058	 0.105753
H	-1.8754119606	-2.6715174029	-1.1736390736	 0.106303
H	-2.2410141099	-0.3152563241	 0.1060791396	 0.111636
H	-0.6900305986	-0.1416228826	 2.0168180045	 0.112848
H	 0.5750546961	-2.7827886089	 0.9701893508	 0.07861
93.4683	163.7349	199.5894	230.0345	302.8134	350.5859	393.2583	434.8744	487.3846	530.3116	601.7622	701.1917	763.3682	780.9725	879.077	895.3289	933.401	958.4948	971.674	995.4158	1031.0679	1051.3648	1060.754	1119.237	1142.1808	1166.6649	1206.6163	1235.4436	1296.2991	1303.2685	1314.5251	1373.6929	1419.7173	1453.2289	1475.7055	1663.8549	1795.5824	2922.9284	3024.7292	3057.2834	3168.8167	3183.3679	3194.9939	3218.3419	3794.8478
OC12CC=CC1C2C=O	O[C@]12CC=C[C@H]1[C@H]2C=O	
InChI=1S/C7H8O2/c8-4-6-5-2-1-3-7(5,6)9/h1-2,4-6,9H,3H2	InChI=1S/C7H8O2/c8-4-6-5-2-1-3-7(5,6)9/h1-2,4-6,9H,3H2/t5-,6+,7+/m0/s1
