16
gdb 112229	2.02758	1.51952	0.98509	6.1799	71.25	-0.2687	-0.046	0.2227	1196.8365	0.122066	-437.887609	-437.878646	-437.877702	-437.922143	31.494	
C	-0.1068987033	 1.4222837761	-0.1433238892	-0.243503
O	-0.1175260907	 0.1042781562	 0.3684121814	-0.229627
C	-1.3081802478	-0.5841722035	 0.1311348656	 0.116543
C	-1.4029890984	-1.2025273202	-1.3027282948	-0.377552
C	-0.9434281982	-2.5396596216	-0.7081859159	 0.406114
O	-0.5108776295	-3.5557827475	-1.1465275904	-0.260429
C	-1.2017929914	-2.0200006916	 0.7467458614	-0.31339
C	-0.2341695748	-2.2795230231	 1.7905446628	 0.312384
N	 0.5404592845	-2.5066763457	 2.617302304	-0.321037
H	 0.8557134029	 1.8590255315	 0.1278438363	 0.146874
H	-0.2114357697	 1.4409968637	-1.2378052164	 0.112987
H	-0.9145044196	 2.0271224905	 0.2947553627	 0.116486
H	-2.1810260737	-0.0058512082	 0.458846828	 0.085633
H	-2.4198633408	-1.2620165843	-1.7038879295	 0.141751
H	-0.7437744525	-0.7724520893	-2.0595664869	 0.151169
H	-2.192105797	-2.3720319431	 1.0587912809	 0.155597
51.628	108.9809	118.4974	140.9323	196.3408	286.0438	366.2517	392.0785	412.1969	432.4381	562.8442	587.3445	698.5047	766.9014	820.5676	894.8162	966.0557	1031.1424	1039.0568	1059.1605	1089.7826	1148.3301	1182.4621	1184.3471	1216.0415	1241.4913	1269.0166	1311.456	1382.8703	1423.543	1481.4237	1488.4408	1506.8511	1920.1449	2362.7751	2986.7858	3027.3732	3038.9691	3056.1877	3066.0078	3130.2549	3134.5647
COC1CC(=O)C1C#N	CO[C@H]1CC(=O)[C@H]1C#N	
InChI=1S/C6H7NO2/c1-9-6-2-5(8)4(6)3-7/h4,6H,2H2,1H3	InChI=1S/C6H7NO2/c1-9-6-2-5(8)4(6)3-7/h4,6H,2H2,1H3/t4-,6+/m1/s1
