17
gdb 10905	3.19741	2.00086	1.42031	3.5934	69.32	-0.2298	-0.0133	0.2165	914.8578	0.141007	-363.843143	-363.83505	-363.834106	-363.875354	29.882	
C	-0.0363027216	 1.6262701338	-0.0696061723	-0.413271
C	 0.0254582673	 0.105430055	-0.0520144548	-0.101421
C	 0.7306161944	-0.6463041282	-1.1970092459	-0.123357
N	 2.1301753336	-0.1969917295	-1.1704089056	-0.361541
C	 1.7025184722	-1.3274476179	-0.2681052322	 0.203832
C	 2.3759201897	-2.6627099391	-0.2818253904	-0.514226
C	 1.033422406	-0.6194022988	 0.8958524782	 0.395375
O	 1.1161526374	-0.7217648147	 2.0853921086	-0.313499
H	 0.9336163745	 2.0424281028	-0.3508932568	 0.143012
H	-0.7887742239	 1.9840019728	-0.7801267397	 0.113636
H	-0.3025462217	 2.0053789647	 0.9218330295	 0.130907
H	-0.9619639353	-0.3301425116	 0.1481906583	 0.099582
H	 0.2792965763	-1.0562290468	-2.0919673324	 0.103322
H	 2.6181156514	-0.6418199329	-1.9491861875	 0.232823
H	 2.5160057286	-3.0240585967	-1.3064158724	 0.120515
H	 3.3595362441	-2.6097941535	 0.1967288742	 0.144649
H	 1.781184947	-3.4028065997	 0.2624836514	 0.139661
103.3381	173.446	195.524	203.7101	210.342	274.9338	323.4713	485.5907	531.8447	615.2968	635.9801	752.5665	765.111	823.855	870.0821	923.4087	953.9142	1015.8444	1024.2196	1057.7524	1088.0121	1106.5916	1132.0731	1141.4243	1224.7568	1278.7201	1321.0338	1359.8869	1399.3163	1406.5578	1435.9408	1479.1175	1492.6581	1495.3453	1504.5833	1888.756	3031.4765	3036.2644	3041.164	3097.9401	3103.9769	3105.342	3132.2506	3196.6009	3454.9106
CC1C2NC2(C)C1=O	C[C@H]1[C@H]2N[C@@]2(C)C1=O	
InChI=1S/C6H9NO/c1-3-4-6(2,7-4)5(3)8/h3-4,7H,1-2H3	InChI=1S/C6H9NO/c1-3-4-6(2,7-4)5(3)8/h3-4,7H,1-2H3/t3-,4+,6+/m0/s1
