16
gdb 24680	3.77234	1.67799	1.18665	2.2502	79.19	-0.188	-0.0066	0.1814	990.3509	0.127361	-400.782634	-400.775915	-400.774971	-400.813661	26.997	
C	-0.0068709557	 1.4817146128	 0.0531875651	-0.149002
O	 1.3316227944	 2.0088417709	 0.0459494715	-0.276338
C	 2.1655638579	 1.4166919983	-0.8392239083	 0.410626
C	 3.2862411317	 1.88479954	-1.4675954289	-0.313225
C	 3.8468941197	 0.7701213058	-2.1765757564	-0.150317
C	 3.0586237911	-0.3245580675	-1.952938263	-0.116379
N	 2.0155919786	 0.071757086	-1.1255100133	-0.081005
C	 0.9783017833	-0.6678112698	-0.5655438369	 0.033269
C	-0.0182198795	-0.0243763944	 0.0443940675	-0.157903
H	-0.4684129056	 1.8835756302	 0.9581744185	 0.127196
H	-0.5564085449	 1.8864324614	-0.8133858224	 0.114619
H	 3.6653118312	 2.8923087257	-1.4180154931	 0.104403
H	 4.7303678563	 0.7922142303	-2.7956887873	 0.100288
H	 3.1061608928	-1.3354943043	-2.3231540281	 0.119163
H	 1.0657751988	-1.744286602	-0.6437209272	 0.124763
H	-0.83041849	-0.5595700034	 0.5180352424	 0.109843
132.4156	148.6412	312.1352	411.5721	440.0181	538.1241	604.5158	607.4099	636.7751	680.9736	716.9452	723.9065	765.3852	823.1116	855.3234	901.8576	929.5005	946.09	1015.9915	1030.735	1054.0067	1105.9699	1172.6956	1214.9522	1247.8775	1264.2749	1315.1592	1346.3295	1391.7244	1428.591	1472.6149	1495.2523	1541.8481	1629.1298	1718.3631	2959.4625	3097.7859	3208.2128	3228.9479	3248.1775	3266.8626	3275.5528
C1OC2=CC=CN2C=C1	C1Oc2cccn2C=C1	
InChI=1S/C7H7NO/c1-3-7-8(4-1)5-2-6-9-7/h1-5H,6H2	InChI=1S/C7H7NO/c1-3-7-8(4-1)5-2-6-9-7/h1-5H,6H2
