17
gdb 81559	3.30244	1.18417	1.02857	2.9013	69.13	-0.2371	-0.0136	0.2235	1178.0517	0.133401	-458.899304	-458.890718	-458.889773	-458.933301	31.758	
C	 0.7076087708	 0.8224781514	 0.4767789123	-0.487152
C	-0.5064535497	 0.2140449687	-0.1885095622	 0.358014
O	-1.6348627598	 0.431809134	 0.1928369585	-0.303859
C	-0.3074564657	-0.7019303595	-1.3880698951	-0.084286
C	 1.0969149012	-1.1628043759	-1.8664651708	-0.013
O	 1.2399123759	-1.9848571903	-0.6388909551	-0.314011
C	-0.1432798261	-2.2236787642	-1.1029207062	-0.00489
C	 0.4622839846	-2.4035829932	-2.5338887043	 0.120774
O	-0.2939042846	-2.185415173	-3.6852560293	-0.421628
H	 1.2704260984	 1.4255273027	-0.2461071709	 0.131806
H	 0.3962271046	 1.4489105003	 1.313533074	 0.134411
H	 1.3748230779	 0.0236688852	 0.8128778655	 0.1631
H	-1.0300423728	-0.4651588162	-2.1707071302	 0.120064
H	 1.9585427299	-0.5743638863	-2.1817039453	 0.1024
H	-0.7739033119	-2.8794895974	-0.5028313752	 0.106483
H	 1.1462609035	-3.2560493098	-2.6012026528	 0.09495
H	-0.7057252163	-3.0152382564	-3.9456605629	 0.296824
31.8879	154.3784	164.1674	182.1442	257.1883	275.3453	367.7159	399.0977	479.418	549.3156	604.9883	628.2483	764.669	820.7857	825.7915	881.7589	897.1193	908.3932	967.1208	1011.3003	1049.8144	1081.0594	1116.8535	1123.2936	1152.4865	1177.2574	1193.2864	1237.3229	1246.5323	1261.5554	1298.3045	1354.2702	1377.2872	1423.9073	1467.846	1472.1587	1800.9591	3036.2434	3063.9943	3107.0451	3111.7599	3122.1819	3128.5866	3155.8681	3825.5231
CC(=O)C1C2OC1C2O	CC(=O)[C@H]1[C@H]2O[C@@H]1[C@H]2O	
InChI=1S/C6H8O3/c1-2(7)3-5-4(8)6(3)9-5/h3-6,8H,1H3	InChI=1S/C6H8O3/c1-2(7)3-5-4(8)6(3)9-5/h3-6,8H,1H3/t3-,4-,5+,6-
