17
gdb 45689	3.53031	1.40333	1.07291	4.2995	75.24	-0.2479	-0.0037	0.2442	1099.0785	0.137302	-421.854628	-421.847279	-421.846335	-421.886695	28.482	
O	 0.0517372421	 0.1129232369	 0.654660175	-0.322219
C	-0.0027049434	 1.1255913303	 0.013566679	 0.40299
C	-1.3330092688	 1.810576699	-0.3311713567	-0.38907
C	-1.2234566376	 3.3088397348	-0.4918415102	-0.245778
C	-0.0929341264	 3.7542882508	-1.0126706816	 0.303918
C	 0.7539935647	 5.0073775848	-1.0919068726	-0.328136
C	 1.9863396	 4.0723297256	-0.8296998621	-0.245608
C	 1.0950948389	 2.8641203091	-1.2398843455	 0.073548
O	 1.1511849243	 1.6911481921	-0.4331075845	-0.231916
H	-1.7089844122	 1.3348071737	-1.2488529047	 0.146178
H	-2.0294757899	 1.5270672123	 0.4601673864	 0.145362
H	-2.0244330738	 3.9486840055	-0.1356709909	 0.106028
H	 0.7792997604	 5.4519923811	-2.0920653613	 0.120057
H	 0.5529765013	 5.7959940837	-0.3641780766	 0.123502
H	 2.8916131619	 4.2439886663	-1.4138592046	 0.111948
H	 2.2316693255	 4.0183851022	 0.2323607229	 0.130316
H	 1.259174613	 2.5732747617	-2.2851868122	 0.098881
84.0889	125.325	238.7318	319.5174	346.3626	448.0162	467.3579	539.9769	607.771	661.8192	739.4704	740.6921	804.0083	852.1909	874.5018	928.1418	951.6197	984.5383	1008.3485	1058.5339	1096.5432	1111.6497	1140.7231	1169.1222	1191.9038	1212.7463	1226.2374	1261.4644	1276.7395	1316.6253	1338.341	1379.4878	1459.2926	1473.1297	1486.6769	1782.3036	1846.3363	3009.6115	3023.0837	3053.3439	3081.55	3111.5658	3113.6121	3146.2902	3179.3964
O=C1CC=C2CCC2O1	O=C1C[CH][C]2CC[C@H]2O1	
InChI=1S/C7H8O2/c8-7-4-2-5-1-3-6(5)9-7/h2,6H,1,3-4H2	InChI=1S/C7H8O2/c8-7-4-2-5-1-3-6(5)9-7/h2,6H,1,3-4H2/t6-/m1/s1
