15
gdb 65471	3.0802	1.05753	0.91847	4.2374	65.44	-0.2682	-0.0536	0.2146	1245.9423	0.109185	-494.90486	-494.896086	-494.895142	-494.938844	31.28	
O	-0.4811367386	 1.2815848878	-0.1771310422	-0.454622
C	-0.1710174508	-0.0479141603	 0.0279123257	 0.320689
C	-0.3730626023	-0.626642866	 1.4145312197	-0.36783
C	-1.3388361943	-1.0067539662	 0.344478964	 0.026536
O	-2.6126459876	-0.4387896089	 0.4342098872	-0.18462
C	-3.1440422779	 0.0578197886	-0.7180697563	 0.194417
O	-4.2307974828	 0.5419073539	-0.7498120403	-0.264791
C	 0.9070548571	-0.5599779484	-0.8436943962	 0.096801
O	 1.4272586239	 0.1465775357	-1.677683734	-0.281128
H	 0.0756561021	 1.5551631943	-0.9250652057	 0.304219
H	 0.3216250225	-1.3738335711	 1.7820134426	 0.13579
H	-0.7313136615	 0.0894978318	 2.1450609123	 0.165888
H	-1.3208170531	-2.0157745025	-0.0592275254	 0.121695
H	-2.4684801301	-0.0574505749	-1.5830297445	 0.088544
H	 1.1987185533	-1.6199658137	-0.7010973268	 0.098412
76.3203	91.8404	154.5006	190.9046	238.9564	275.2424	346.3571	356.6803	425.6795	460.1372	534.6517	601.6152	691.0379	774.7413	851.2283	883.9108	911.3502	1030.6856	1034.79	1053.079	1072.0012	1096.6216	1136.8576	1172.1698	1227.4069	1343.9295	1356.4788	1390.399	1423.7511	1440.3994	1481.5967	1789.8879	1880.342	2934.5809	2993.655	3137.9029	3141.8338	3241.0129	3682.1748
OC1(CC1OC=O)C=O	O[C@]1(C[C@H]1OC=O)C=O	
InChI=1S/C5H6O4/c6-2-5(8)1-4(5)9-3-7/h2-4,8H,1H2	InChI=1S/C5H6O4/c6-2-5(8)1-4(5)9-3-7/h2-4,8H,1H2/t4-,5-/m1/s1
