17
gdb 127088	2.65347	1.3688	1.10266	3.3819	71.13	-0.2278	0.0107	0.2385	1144.6527	0.136305	-451.304466	-451.29566	-451.294715	-451.338289	32.058	
C	 0.2895734394	 1.0425226869	-0.4698462938	-0.324961
N	 0.0035749372	-0.1490113354	 0.3346661624	-0.195864
C	 0.4233753516	 0.0155527567	 1.7294691493	-0.324969
C	-1.3147755447	-0.624874578	 0.1926840926	 0.211786
C	-1.6471919243	-1.8437888807	-0.3560498726	 0.357457
O	-0.8881685999	-2.8254391203	-0.8603682406	-0.424657
N	-2.9892992869	-1.8946878952	-0.2981937516	-0.24138
N	-3.4893299828	-0.7506311432	 0.2655244151	-0.137703
N	-2.4727108834	 0.0016959691	 0.5557607088	-0.239147
H	 1.3648428214	 1.2476760744	-0.4415797185	 0.115022
H	-0.0018603165	 0.8616170447	-1.5074659724	 0.122722
H	-0.2452898453	 1.9352172641	-0.11086338	 0.124829
H	-0.1024692612	 0.8391559639	 2.2364385199	 0.124829
H	 0.2286237961	-0.9074850893	 2.2811829908	 0.122719
H	 1.4988582819	 0.2190737535	 1.7611860695	 0.115022
H	 0.0259041469	-2.5140827747	-0.7707104054	 0.308776
H	-3.6121195395	-2.6252803166	-0.6013195934	 0.285517
50.3712	142.5224	152.8578	220.6539	232.1594	291.4258	297.601	374.6864	473.1916	501.3934	536.8986	537.8246	623.0345	712.5994	746.3394	776.4016	951.1023	997.3446	1009.5368	1056.1906	1116.4453	1171.2217	1187.5163	1219.3556	1225.252	1248.2363	1309.9317	1361.2676	1418.2317	1439.6302	1471.3596	1478.2721	1494.8599	1500.412	1516.8151	1570.9145	1671.2773	2987.8857	2992.2968	3069.7037	3070.7405	3114.9138	3117.6917	3667.5105	3725.23
CN(C)C1=C(O)NN=N1	CN(C)c1c(O)[nH]nn1	
InChI=1S/C4H8N4O/c1-8(2)3-4(9)6-7-5-3/h1-2H3,(H2,5,6,7,9)	InChI=1S/C4H8N4O/c1-8(2)3-4(9)6-7-5-3/h1-2H3,(H2,5,6,7,9)
