18
gdb 26095	3.21835	1.2399	1.11059	3.2465	73.51	-0.235	0.0073	0.2423	1153.7809	0.146448	-439.120814	-439.111814	-439.110869	-439.154634	33.388	
C	-0.1888957994	 1.5148655902	-0.1018913567	-0.416806
C	 0.0174408988	-0.005534665	 0.0219700759	 0.222496
C	 0.8967970264	-0.346464501	 1.2385527673	-0.41682
O	-1.2411653999	-0.6725789337	 0.1151541355	-0.458364
C	 0.6259337117	-0.5551703068	-1.2340465689	 0.364456
C	 0.2353701726	-1.4553983984	-2.1669579686	-0.203778
N	 1.2288314223	-1.5746041263	-3.1369718002	-0.258548
C	 2.1475384668	-0.7574485744	-2.7476076429	 0.062413
O	 1.8648654668	-0.094059663	-1.5981105287	-0.19805
H	 0.7609078133	 2.0281120948	-0.2749856987	 0.131399
H	-0.8637219526	 1.732851438	-0.933177521	 0.132231
H	-0.6271874322	 1.9127052659	 0.8206361858	 0.105236
H	 0.4516983846	 0.0630791803	 2.1526646839	 0.10524
H	 0.9814867146	-1.430641377	 1.3450059642	 0.132235
H	 1.8992573237	 0.0765036015	 1.1304608246	 0.131398
H	-1.678829559	-0.3547596508	 0.9114198389	 0.281141
H	-0.6801578993	-2.0199453649	-2.2086778576	 0.137308
H	 3.0964236608	-0.5370510894	-3.2105192228	 0.146812
48.9139	141.6055	183.5666	215.463	234.7391	276.5903	327.3116	345.7868	347.3266	469.0684	485.0935	607.7601	666.9658	713.5536	827.1193	847.62	870.4226	918.3646	939.1099	970.2836	987.5973	1015.927	1109.557	1116.361	1127.3814	1187.0943	1208.3827	1220.0961	1252.0459	1347.359	1384.33	1389.5861	1411.0095	1477.664	1481.8484	1494.7064	1507.5319	1553.0561	1640.5734	3030.7489	3036.1854	3104.1786	3110.2992	3130.4703	3133.0704	3277.9506	3290.4113	3821.1078
CC(C)(O)C1=CN=CO1	CC(C)(O)c1cnco1	
InChI=1S/C6H9NO2/c1-6(2,8)5-3-7-4-9-5/h3-4,8H,1-2H3	InChI=1S/C6H9NO2/c1-6(2,8)5-3-7-4-9-5/h3-4,8H,1-2H3
