14
gdb 19134	3.33164	1.8162	1.35337	1.5424	62.33	-0.2735	0.0062	0.2798	888.4617	0.107277	-378.674828	-378.667518	-378.666574	-378.706788	26.336	
N	 1.0993726849	-1.0474830735	-0.5232070328	-0.330033
C	 0.6574190206	 0.0075984062	-0.3496995484	 0.234199
C	 0.1154807728	 1.3345173699	-0.1651718243	 0.154329
C	-0.1064982763	 1.8096422444	 1.2353247387	-0.262761
N	 0.9902400861	 2.3634835471	 0.4383640167	-0.336839
C	-0.7679565144	 1.8095210724	-1.2908798385	 0.001985
C	-2.1965472504	 1.4751480211	-1.3215538678	-0.166247
O	-1.7430594486	 2.7827196244	-0.9540789304	-0.220666
H	-0.9346592847	 2.4911885562	 1.3962395711	 0.157803
H	 0.1183239264	 1.1210834547	 2.0439929178	 0.137763
H	 1.878055974	 1.9492460685	 0.7134158642	 0.253759
H	-0.2449242154	 1.9894541174	-2.2296372373	 0.120078
H	-2.7120857933	 1.4101204152	-2.2770863494	 0.131626
H	-2.6251661119	 0.8876615161	-0.5117431897	 0.125003
72.0308	147.1332	207.1836	241.942	258.5485	432.303	475.0504	554.8074	600.733	658.9266	846.7697	859.9269	898.9679	917.3395	958.6762	976.2325	1041.0459	1094.2346	1111.196	1148.6291	1159.935	1167.6712	1257.8479	1289.2313	1296.9236	1353.3273	1428.8934	1493.5656	1525.9959	2348.085	3096.4845	3120.4444	3127.4679	3188.9043	3228.1809	3504.6468
N#CC1(CN1)C1CO1	N#C[C@]1(CN1)[C@H]1CO1	
InChI=1S/C5H6N2O/c6-2-5(3-7-5)4-1-8-4/h4,7H,1,3H2	InChI=1S/C5H6N2O/c6-2-5(3-7-5)4-1-8-4/h4,7H,1,3H2/t4-,5+/m1/s1
