21
gdb 107021	2.90841	1.2618	1.05164	2.1479	77.84	-0.2457	0.0744	0.32	1231.7214	0.180852	-424.199478	-424.189928	-424.188984	-424.233787	35.91	
C	-0.3258462833	 1.4947721614	-0.1850891908	-0.381094
C	 0.0513905355	 0.0203452089	 0.0183734677	-0.30297
C	 0.8966585735	-0.5293412302	-1.0896570078	 0.435021
O	 0.2460071357	-0.8150634912	-2.3503160423	-0.311442
C	 0.9586343076	-1.8769036116	-1.6845046204	-0.110711
C	 2.4222593609	-1.6908702577	-2.1016165151	 0.121454
O	 2.691524129	-1.7775998293	-3.4738593075	-0.430884
C	 2.3764184514	-0.2508073731	-1.4302964996	-0.108292
C	 2.7153370168	 0.9492210238	-2.3023030986	-0.413133
H	 0.5618490748	 2.134183856	-0.2160395167	 0.122557
H	-0.8696761143	 1.6275925352	-1.1248545801	 0.134108
H	-0.9634988877	 1.8476187792	 0.6306201892	 0.115331
H	 0.595200478	-0.099272728	 0.9639114008	 0.103904
H	-0.8572563705	-0.5876074931	 0.0933950735	 0.111242
H	 0.399144637	-2.7808094323	-1.4672328216	 0.10044
H	 3.1169476234	-2.3629782941	-1.5923122015	 0.089168
H	 1.9572676572	-1.3337335272	-3.9172467387	 0.290657
H	 2.9851704639	-0.2568769979	-0.5193159802	 0.073135
H	 2.0093728938	 1.0409005037	-3.132174442	 0.121083
H	 2.6836771734	 1.8810602505	-1.7287875895	 0.113888
H	 3.719217944	 0.8457413771	-2.7252768087	 0.126538
64.6961	104.8211	163.1465	195.3	208.4593	237.4449	271.2542	315.3765	362.2366	464.0079	496.0571	601.9745	619.629	672.6462	718.6231	764.4309	796.6116	864.3899	886.7742	947.5648	963.8602	1014.0462	1018.2652	1052.6892	1068.5987	1102.7808	1131.3987	1137.6711	1197.687	1202.2968	1245.3281	1263.1301	1291.8477	1324.7452	1348.8423	1361.0699	1404.5546	1409.2482	1433.5333	1461.9532	1471.7084	1488.9807	1500.3904	1505.8534	1510.126	3027.8969	3038.9556	3042.0473	3047.582	3068.7475	3089.6841	3105.1365	3112.2361	3117.3664	3118.9345	3173.5282	3776.5092
CCC12OC1C(O)C2C	CC[C@]12O[C@H]1[C@@H](O)[C@H]2C	
InChI=1S/C7H12O2/c1-3-7-4(2)5(8)6(7)9-7/h4-6,8H,3H2,1-2H3	InChI=1S/C7H12O2/c1-3-7-4(2)5(8)6(7)9-7/h4-6,8H,3H2,1-2H3/t4-,5+,6+,7-/m1/s1
