18
gdb 40402	3.58665	1.35978	1.20139	1.7399	75.35	-0.2419	0.0162	0.2581	1075.2346	0.149019	-401.929825	-401.922411	-401.921466	-401.962001	29.207	
C	-0.0749637824	 1.496110034	-0.0634297357	-0.270655
C	 1.2877375949	 0.8714909862	 0.1101360044	-0.267928
C	 0.0577091618	-0.0018707631	 0.04358209	-0.084876
C	-0.4271818953	-0.7348767277	 1.243915894	 0.408119
C	-0.4043024289	-2.2299595272	 1.3927793076	-0.354073
C	-1.7336694658	-1.4982541442	 1.4428564751	-0.069902
N	-2.2106305404	-1.1421351038	 2.7608417089	-0.256464
C	-1.3316374287	-0.3587716637	 3.2393678663	 0.089101
O	-0.2618069142	-0.018772643	 2.4717067757	-0.249812
H	-0.491761514	 2.0199769758	 0.7888023368	 0.123862
H	-0.3364604955	 1.9178994422	-1.0273349478	 0.112032
H	 1.9672732493	 0.8596860723	-0.7346600577	 0.112266
H	 1.7671143632	 0.9841177528	 1.0755303796	 0.127443
H	-0.0803226317	-0.5704144665	-0.8710998557	 0.08884
H	-0.195671444	-2.7921987642	 0.4888761816	 0.121131
H	-0.0239490962	-2.6681774454	 2.3098090632	 0.123897
H	-2.4826790456	-1.6642184268	 0.677947823	 0.104268
H	-1.3418257165	 0.0892192923	 4.2254029006	 0.142749
65.2724	154.0583	185.9529	332.1413	362.8281	393.6171	488.0902	598.7365	639.3527	743.9802	789.1141	796.6098	827.73	845.5141	905.0155	914.8609	932.3958	949.6995	973.7087	1015.3243	1031.5383	1063.8398	1070.329	1074.8321	1085.7907	1113.9336	1127.4551	1133.9535	1200.6331	1216.7338	1229.7602	1271.4662	1319.342	1348.2761	1440.1835	1463.2591	1472.3701	1508.7405	1669.9299	3127.3063	3139.1061	3142.2569	3154.6915	3183.2842	3221.2942	3221.7521	3229.8999	3235.8817
C1CC1C12CC1N=CO2	C1CC1[C@]12C[C@H]1N=CO2	
InChI=1S/C7H9NO/c1-2-5(1)7-3-6(7)8-4-9-7/h4-6H,1-3H2	InChI=1S/C7H9NO/c1-2-5(1)7-3-6(7)8-4-9-7/h4-6H,1-3H2/t6-,7-/m1/s1
