17
gdb 82739	3.04803	1.9447	1.56357	2.0849	70.57	-0.2283	0.0004	0.2287	872.5948	0.139135	-421.798092	-421.791979	-421.791035	-421.828181	26.557	
O	 0.0150944409	 1.4061407643	 0.0270255306	-0.449774
C	 0.0320772124	 0.0034594609	 0.0233191035	 0.183312
C	-1.3658000739	-0.5847261877	-0.269288967	 0.001919
O	-1.5849704077	 0.0208972342	-1.5878877445	-0.319376
C	-0.5939168754	-0.9501098826	-2.0216718959	 0.087653
C	-1.0987722308	-1.9724996406	-0.9772520735	-0.071606
C	 0.1099734636	-2.7661749564	-0.567824006	-0.107998
C	 1.1934394498	-2.016253952	-0.8065496383	-0.089237
C	 0.7371663213	-0.643849695	-1.2430339745	-0.152502
H	-0.5554921428	 1.6531428993	-0.7150868197	 0.285119
H	 0.4822360686	-0.3270138188	 0.9600905411	 0.08578
H	-2.173594243	-0.4118469648	 0.4397782036	 0.08985
H	-0.564573362	-1.1215407167	-3.0977739327	 0.090132
H	-2.0197554037	-2.4984951466	-1.2244198058	 0.08266
H	 0.0848797411	-3.766425045	-0.1551054661	 0.104154
H	 2.2237877436	-2.2767253963	-0.5969606619	 0.105304
H	 1.468354348	 0.0125467437	-1.7115326227	 0.07461
221.4623	330.5859	351.6391	414.8316	515.0434	565.5987	608.8109	630.8734	731.7629	777.1615	780.7602	816.0451	859.3627	865.9032	899.2712	908.759	948.0817	955.7206	967.555	995.2237	1007.2174	1036.8124	1082.9631	1126.0004	1139.952	1149.1622	1195.4466	1232.1065	1243.1161	1253.1967	1277.7141	1291.2094	1316.4605	1330.2868	1365.7616	1442.1312	1640.8047	3110.6377	3120.7878	3130.4117	3135.8012	3143.6105	3198.3013	3223.8991	3735.0893
OC1C2OC3C2C=CC13	O[C@H]1[C@H]2O[C@@H]3[C@H]2C=C[C@H]13	
InChI=1S/C7H8O2/c8-5-3-1-2-4-6(3)9-7(4)5/h1-8H	InChI=1S/C7H8O2/c8-5-3-1-2-4-6(3)9-7(4)5/h1-8H/t3-,4-,5-,6+,7+/m1/s1
