25
gdb 101679	2.82399	0.76076	0.69841	1.4431	86.51	-0.247	0.0721	0.3191	1808.2251	0.225442	-426.627498	-426.615577	-426.614633	-426.665283	42.487	
C	-0.0177559183	 1.5818975771	 0.1205428141	-0.37995
C	-0.0451121096	 0.05722545	-0.0100440552	-0.189908
C	 0.7219419109	-0.4571370209	-1.233930582	 0.134809
O	 2.0863376202	-0.0270237491	-1.2123816687	-0.433846
C	 0.6259073564	-1.9797923716	-1.3862243784	-0.217899
C	 1.2670666681	-2.4982273783	-2.6743691665	 0.141384
C	 1.3304908068	-4.0272794742	-2.7140716799	-0.403959
O	 0.4833543094	-1.9807327833	-3.74727605	-0.248247
C	 1.1471872324	-1.9258452854	-4.9876872648	-0.235744
H	 1.0121606386	 1.9475678378	 0.1427928605	 0.124809
H	-0.5178755102	 2.0561708296	-0.7309929752	 0.115065
H	-0.5235320495	 1.9128306391	 1.0326460597	 0.1064
H	 0.3833918658	-0.4042456898	 0.8928720743	 0.07958
H	-1.0813895979	-0.298379295	-0.0682080812	 0.097175
H	 0.3090379602	 0.0016012884	-2.1390824804	 0.101284
H	 2.4895342262	-0.3877598415	-0.4140739166	 0.272601
H	 1.1066339422	-2.462154653	-0.5234620462	 0.077946
H	-0.4277948041	-2.2846976478	-1.3753479572	 0.102276
H	 2.2848522584	-2.0842633961	-2.7436391446	 0.075667
H	 1.7707261003	-4.3867872796	-3.6487715272	 0.11486
H	 1.9441956143	-4.4096470848	-1.891844815	 0.110553
H	 0.325966384	-4.453435954	-2.6238851997	 0.119915
H	 0.4663643496	-1.4471260318	-5.696615595	 0.1234
H	 2.0716085977	-1.3309957548	-4.9279398612	 0.109535
H	 1.4042958181	-2.9224949108	-5.3764023338	 0.102293
49.8499	67.7361	81.3269	125.8998	134.3408	201.2238	217.1022	222.8722	256.7497	286.1061	323.1198	327.7213	357.0167	453.3886	459.9865	532.7037	555.2041	778.3105	806.2342	853.686	893.7524	929.9329	971.9971	1010.9663	1046.7586	1064.2019	1095.4333	1121.2937	1125.2777	1147.6591	1173.2538	1183.128	1196.4952	1250.2309	1267.3787	1285.2489	1329.6618	1361.0053	1379.5378	1392.4277	1398.2282	1405.3731	1407.6539	1426.8366	1462.0917	1479.5774	1481.8897	1483.8349	1494.8234	1495.1116	1501.5892	1508.9542	1513.102	2976.8422	2990.9212	2994.1368	3012.3093	3023.9324	3036.6472	3037.2814	3046.6036	3057.1348	3073.2188	3101.6694	3105.8694	3106.7564	3110.9855	3120.9316	3787.1127
CCC(O)CC(C)OC	CC[C@@H](O)C[C@@H](C)OC	
InChI=1S/C7H16O2/c1-4-7(8)5-6(2)9-3/h6-8H,4-5H2,1-3H3	InChI=1S/C7H16O2/c1-4-7(8)5-6(2)9-3/h6-8H,4-5H2,1-3H3/t6-,7-/m1/s1
