23
gdb 120142	2.94399	0.93604	0.83688	1.4921	86.3	-0.2305	0.0858	0.3163	1529.4991	0.204957	-388.255372	-388.245717	-388.244772	-388.290194	36.296	
C	 0.233137346	 1.6668061803	-0.3904282945	-0.382288
C	 0.3459847825	 0.1443749619	-0.2794134595	-0.163933
C	 0.8357128045	-0.3200306617	 1.100062904	-0.208858
C	 0.9507052567	-1.8290440171	 1.1835851512	-0.015233
C	 2.2194359063	-2.5866964744	 0.9542236816	 0.076985
O	 3.3488158941	-1.8867793957	 1.4901937512	-0.305831
C	 2.8569161132	-2.112568258	 2.8480662829	 0.158963
C	 2.9289187385	-0.90812348	 3.7653862443	-0.414264
C	 1.5409664619	-2.6741870403	 2.3073006981	-0.205174
H	 1.2023332606	 2.1481834884	-0.2193615143	 0.116128
H	-0.1194461478	 1.9708222088	-1.3810320974	 0.109864
H	-0.4686970062	 2.0667879366	 0.3500871866	 0.111758
H	-0.6300356748	-0.3123630369	-0.4922196585	 0.090356
H	 1.0324169379	-0.2325614363	-1.0481270522	 0.101637
H	 1.8147521604	 0.125351792	 1.2992946529	 0.115827
H	 0.1492178274	 0.0510352216	 1.8730799279	 0.089436
H	 0.0961575726	-2.3547097896	 0.7552976777	 0.083834
H	 2.4077568372	-3.3203038273	 0.1781201726	 0.097288
H	 3.4445713117	-2.9337815347	 3.282661135	 0.081328
H	 3.9634219249	-0.5570916962	 3.8417824186	 0.126261
H	 2.3065234868	-0.0820866119	 3.419622026	 0.127104
H	 2.5969306388	-1.1939057252	 4.7696153416	 0.117176
H	 0.9908656768	-3.4901225143	 2.757776514	 0.091636
73.2727	90.5146	111.4012	194.5187	212.7539	230.3645	252.7502	314.8753	363.5179	398.0058	548.2483	620.0113	717.7423	746.0701	758.631	799.4722	862.7596	871.4064	905.9109	925.7914	948.0187	1002.6523	1027.9793	1034.3386	1055.8589	1060.8331	1090.8706	1101.7318	1120.5252	1152.0165	1158.5144	1209.3727	1261.6902	1268.4242	1300.3154	1307.7894	1335.0314	1349.2117	1387.1155	1396.6223	1409.4221	1412.9194	1451.7801	1482.0229	1488.927	1495.3942	1496.3715	1499.6442	1510.7516	2997.5655	3012.5611	3016.9018	3029.0372	3041.3226	3048.2052	3087.1565	3097.1251	3100.897	3101.7996	3107.5536	3147.5591	3169.7061	3194.0781
CCCC1C2OC(C)C12	CCC[C@H]1[C@H]2O[C@@H](C)[C@@H]12	
InChI=1S/C8H14O/c1-3-4-6-7-5(2)9-8(6)7/h5-8H,3-4H2,1-2H3	InChI=1S/C8H14O/c1-3-4-6-7-5(2)9-8(6)7/h5-8H,3-4H2,1-2H3/t5-,6+,7-,8+/m0/s1
