18
gdb 76598	2.45105	1.40038	1.04291	3.7102	80.85	-0.25	-0.0343	0.2157	1189.9627	0.144646	-401.916315	-401.906521	-401.905577	-401.950995	35.222	
C	 0.1757200464	 1.4373333141	 0.3516697444	-0.414909
C	-0.0530036178	-0.0105573324	-0.0123581995	-0.019471
C	 0.6366881638	-0.6992822706	-1.1734462308	-0.012192
C	 1.6315807508	-0.0175645533	-2.0833837787	-0.408053
N	 0.9648923674	-1.025980776	 0.1975465439	-0.094144
C	 2.1966562197	-0.9543897839	 0.8087749393	 0.237492
O	 3.2351733614	-1.3102153521	 0.2865822295	-0.344479
C	 2.1377917166	-0.5057989094	 2.1934752394	 0.268925
C	 2.1339720251	-0.1346177127	 3.3375985414	-0.43316
H	 1.1805477569	 1.7784544884	 0.093462765	 0.132566
H	-0.5486083922	 2.0688234046	-0.1732506245	 0.127681
H	 0.0397775463	 1.5886067663	 1.4262547827	 0.141202
H	-1.0571920682	-0.3651220661	 0.2198985111	 0.10235
H	 0.0583325966	-1.4810923857	-1.6659174347	 0.102746
H	 2.1558262218	 0.8037089769	-1.5917819761	 0.130342
H	 2.3877483151	-0.7330341203	-2.4158766906	 0.153153
H	 1.1149027675	 0.3777397357	-2.9639489843	 0.119655
H	 2.1429855228	 0.1885417066	 4.3499439026	 0.210297
70.6625	113.1708	134.9728	159.4721	185.5814	197.1089	261.5401	281.6195	350.7967	472.6391	489.5101	529.9231	593.4344	651.8632	688.288	694.3916	759.8964	796.2944	851.8222	957.4843	988.9945	1035.4403	1078.9216	1124.6544	1141.6638	1169.3395	1199.6984	1209.1115	1380.0214	1401.1553	1417.3652	1421.071	1454.8587	1478.9591	1484.2739	1493.6857	1508.79	1740.9735	2221.7142	3044.7732	3050.262	3097.7972	3107.9712	3110.6025	3119.8553	3130.8855	3142.7657	3496.3319
CC1C(C)N1C(=O)C#C	C[C@H]1[C@@H](C)N1C(=O)C#C	
InChI=1S/C7H9NO/c1-4-7(9)8-5(2)6(8)3/h1,5-6H,2-3H3	InChI=1S/C7H9NO/c1-4-7(9)8-5(2)6(8)3/h1,5-6H,2-3H3/t5-,6+,8?
