23
gdb 121001	5.00852	0.68876	0.62881	1.1796	88.71	-0.2254	0.0342	0.2597	1818.5806	0.205477	-388.309215	-388.29918	-388.298236	-388.344579	37.006	
C	-0.7648727706	 1.4881118699	 0.2017959645	-0.491404
C	-0.1824779772	 0.1273364616	-0.014658653	 0.337255
C	-0.3062667833	-0.6466459204	-1.0949573757	-0.167983
C	 0.4672936347	-1.9365950161	-0.9789490261	-0.261376
C	 0.8330551273	-1.9984358875	 0.5319866115	 0.030846
C	 2.1815559942	-2.6464677251	 0.8518728742	-0.188341
C	 2.255644935	-4.1218603869	 0.4795633488	-0.076009
O	 3.5350768484	-4.6056383887	 0.8636197292	-0.422008
C	 0.7088948683	-0.530811922	 1.0185837179	-0.323701
H	 0.0226102568	 2.2343490987	 0.3707186532	 0.12309
H	-1.3618379129	 1.8142984977	-0.6544735531	 0.120646
H	-1.4057160796	 1.5097405513	 1.0927734413	 0.121933
H	-0.8634747786	-0.3755477409	-1.9862630427	 0.079516
H	-0.1040646831	-2.8125695247	-1.3082130494	 0.096722
H	 1.3716576655	-1.9087153937	-1.6069460609	 0.099626
H	 0.0436913703	-2.5741131954	 1.0334238473	 0.071402
H	 2.9853023543	-2.1125774576	 0.3284601754	 0.100748
H	 2.3947309777	-2.5567521799	 1.9242623864	 0.101647
H	 1.4509186255	-4.6738485358	 0.9939003672	 0.081285
H	 2.0941830525	-4.2473776615	-0.6029366061	 0.087066
H	 3.5953558585	-5.5305673359	 0.6080691763	 0.283718
H	 1.6903637977	-0.032243109	 1.0470575059	 0.099504
H	 0.3058149086	-0.4619551782	 2.036696978	 0.095819
57.3818	98.8291	103.1718	165.8595	188.5656	246.0171	267.0215	276.409	327.9701	394.9432	441.5673	466.1611	593.4869	670.3472	792.6685	825.8719	853.038	880.1926	922.1321	949.354	976.8687	1011.5567	1034.4486	1039.9139	1063.6872	1079.7277	1107.6659	1123.3782	1157.0424	1194.9291	1204.7202	1245.6651	1255.5991	1285.7371	1303.8611	1315.6129	1324.9745	1334.2697	1365.7053	1384.9686	1414.2916	1461.974	1479.3742	1485.165	1489.2964	1490.2359	1499.194	1527.2552	1725.1148	2956.8585	2983.273	2987.2688	2988.354	3007.637	3013.727	3025.1164	3040.3386	3047.3921	3057.6889	3067.888	3107.0424	3178.9113	3829.3614
CC1=CCC(CCO)C1	CC1=CC[C@@H](CCO)C1	
InChI=1S/C8H14O/c1-7-2-3-8(6-7)4-5-9/h2,8-9H,3-6H2,1H3	InChI=1S/C8H14O/c1-7-2-3-8(6-7)4-5-9/h2,8-9H,3-6H2,1H3/t8-/m0/s1
