17
gdb 54734	3.04961	1.4573	1.41446	4.5688	71.36	-0.2139	0.0447	0.2586	988.6527	0.136633	-417.941514	-417.933877	-417.932932	-417.973602	30.395	
N	 0.1273438052	 1.0572194489	-0.5847332918	-0.514843
C	 0.1416780562	-0.0497027599	 0.2333707118	 0.386735
O	 0.9672389186	-0.2174079413	 1.1049670169	-0.368091
C	-1.0898533671	-0.9292692383	 0.1130225869	-0.119139
C	-1.7546325062	-1.5362321211	-1.1017729018	-0.114853
C	-0.7548090077	-2.137921055	-2.1331200508	-0.066976
N	 0.6206234147	-1.8393719551	-1.6708132537	-0.331692
C	-0.135105129	-2.9719799609	-1.0861324253	-0.042378
C	-1.1186467122	-2.4194629142	-0.0178502266	-0.071721
H	 0.9925889571	 1.5769702133	-0.6066435572	 0.250094
H	-0.351563293	 0.9740955196	-1.4672886457	 0.251505
H	-1.8412416765	-0.5930808015	 0.8275323228	 0.120952
H	-2.8065371126	-1.3983615979	-1.3176540076	 0.092913
H	-0.974034112	-2.3518316497	-3.1708572309	 0.097237
H	 1.2751766278	-2.222861172	-2.3512890958	 0.233277
H	 0.2487732812	-3.9823281382	-1.1244119631	 0.100225
H	-1.6176685144	-3.0580190468	 0.6989823818	 0.096756
90.368	139.9171	167.7106	338.6307	361.9204	455.1375	479.3213	538.7433	592.5761	640.7391	690.7262	716.1632	746.0459	754.4008	834.3041	849.7957	881.0595	905.9015	911.4388	970.2309	984.9397	996.9244	1043.5678	1064.3663	1100.1894	1110.3076	1125.6391	1148.9225	1242.7636	1247.0969	1308.1101	1310.7788	1339.4088	1368.637	1431.4188	1614.8392	1805.5054	3117.9721	3186.7999	3198.4078	3200.329	3212.9413	3480.8602	3572.6576	3696.5898
NC(=O)C1C2C3NC3C12	NC(=O)[C@H]1[C@H]2[C@H]3N[C@H]3[C@@H]12	
InChI=1S/C6H8N2O/c7-6(9)3-1-2(3)5-4(1)8-5/h1-5,8H,(H2,7,9)	InChI=1S/C6H8N2O/c7-6(9)3-1-2(3)5-4(1)8-5/h1-5,8H,(H2,7,9)/t1-,2+,3-,4+,5-
