23
gdb 100810	3.69153	0.76379	0.66941	1.4729	88.57	-0.2539	0.058	0.3119	1734.1947	0.202113	-388.266762	-388.255434	-388.25449	-388.30331	41.529	
C	-0.0413010428	 1.6175274551	-0.137980816	-0.377916
C	 0.0020135179	 0.0963874882	 0.0332596021	-0.206953
C	-1.3914900182	-0.5465636221	 0.0317243348	 0.13459
O	-2.1109098963	-0.1858333131	-1.1503647653	-0.430705
C	-1.3733306045	-2.0796131756	 0.2159362363	 0.008876
C	-0.6621681571	-2.5246921275	 1.5002660089	-0.409154
C	-2.8254573627	-2.6224681436	 0.173907658	-0.364669
C	-2.899981672	-4.0751651796	 0.0917646631	 0.302288
C	-2.9362787432	-5.2749469757	 0.0159667685	-0.449402
H	 0.9680161263	 2.0380619238	-0.1753724366	 0.109091
H	-0.56611139	 1.892393425	-1.056054984	 0.126043
H	-0.5696093603	 2.0900665325	 0.6975086126	 0.114996
H	 0.5974313724	-0.355920754	-0.7744937123	 0.08505
H	 0.5165660641	-0.1531226707	 0.9667442083	 0.105062
H	-1.9826548075	-0.10693576	 0.8479243234	 0.084055
H	-1.6068923556	-0.5110530484	-1.905602207	 0.277069
H	-0.8380536186	-2.5081471238	-0.64462125	 0.071977
H	-0.7836364631	-3.6018282912	 1.643653721	 0.133396
H	 0.4090007041	-2.3107559395	 1.4743979786	 0.11751
H	-1.0864547033	-2.0206343216	 2.3772779476	 0.112708
H	-3.3599810946	-2.2786510559	 1.0707206317	 0.122224
H	-3.3414372193	-2.1731632926	-0.6801690377	 0.142916
H	-2.9856177158	-6.3332804297	-0.0510802562	 0.190946
58.4656	69.9436	102.0272	128.9313	195.2029	217.9169	235.6215	287.9805	315.827	320.0001	351.2778	371.9816	387.1115	462.73	512.8536	580.275	609.6121	634.5818	781.869	849.0156	862.3043	895.2075	952.9267	975.1694	990.0492	1038.1301	1078.064	1097.365	1103.7343	1145.954	1148.9617	1223.0654	1252.2387	1269.778	1325.6434	1331.8674	1355.7768	1375.2082	1387.7014	1405.7868	1412.1093	1417.7251	1477.0075	1482.3116	1495.8005	1497.3982	1508.0019	1509.3331	2234.4265	2992.5947	2996.1105	3012.539	3020.5535	3032.0219	3038.9051	3074.1549	3080.8365	3102.306	3102.3679	3120.4338	3126.5125	3507.06	3788.6092
CCC(O)C(C)CC#C	CC[C@@H](O)[C@@H](C)CC#C	
InChI=1S/C8H14O/c1-4-6-7(3)8(9)5-2/h1,7-9H,5-6H2,2-3H3	InChI=1S/C8H14O/c1-4-6-7(3)8(9)5-2/h1,7-9H,5-6H2,2-3H3/t7-,8+/m0/s1
