19
gdb 78761	2.92807	1.55784	1.20607	0.5409	75.28	-0.2211	0.0682	0.2893	1080.657	0.157078	-422.968821	-422.96019	-422.959246	-423.001307	33.793	
C	-0.0902111196	 1.384509123	 0.0314342419	-0.505246
C	 0.0259296794	-0.1007728762	 0.0301721725	 0.470988
O	-1.1385809196	-0.8910180897	-0.2632944754	-0.362472
C	-0.3859470731	-2.0385316451	 0.2332806501	 0.391464
C	-1.2089404588	-3.1546865533	 0.7895803973	-0.531564
C	 0.6327568011	-1.0836537406	 0.9682876057	-0.247686
C	 1.250607055	-0.9126548886	-0.423111916	-0.177507
C	 0.683074155	-2.2403633895	-0.8928158796	 0.082695
O	 1.5990764242	-3.2826380514	-0.6226058456	-0.436533
H	 0.8597329198	 1.8383054826	 0.3290709567	 0.126909
H	-0.348380132	 1.756016556	-0.9659773004	 0.1324
H	-0.8650851705	 1.7121971874	 0.7315254812	 0.130892
H	-1.914609692	-3.5175713527	 0.0335206188	 0.128751
H	-0.5593905131	-3.9823827578	 1.0911724382	 0.126098
H	-1.7825686688	-2.8272627952	 1.6610925229	 0.133854
H	 1.0399815208	-1.0251156745	 1.9680623372	 0.096563
H	 2.1977352036	-0.4607468016	-0.6888188785	 0.091077
H	 0.2818012332	-2.3031938225	-1.9147289576	 0.064646
H	 1.1872030656	-4.1102791205	-0.8904235092	 0.284671
178.6233	192.7544	204.3464	208.5591	237.0653	247.6875	306.9799	352.8214	427.6727	504.8808	555.3571	617.2397	673.6249	779.3332	803.0663	822.8608	851.8597	893.8629	900.6115	921.9034	955.754	997.3771	1053.0137	1089.2118	1093.418	1108.7758	1135.5167	1143.518	1208.3071	1237.2894	1241.7147	1281.0016	1344.1589	1400.2309	1409.7358	1420.9843	1466.2658	1474.2847	1484.1655	1489.1529	1502.2624	2999.0034	3033.903	3035.7922	3101.6046	3103.8447	3115.1895	3116.8009	3198.4385	3211.181	3816.3823
CC12OC3(C)C1C2C3O	C[C@]12O[C@]3(C)[C@H]1[C@H]2[C@H]3O	
InChI=1S/C7H10O2/c1-6-3-4(6)7(2,9-6)5(3)8/h3-5,8H,1-2H3	InChI=1S/C7H10O2/c1-6-3-4(6)7(2,9-6)5(3)8/h3-5,8H,1-2H3/t3-,4-,5+,6+,7+/m0/s1
