15
gdb 16289	3.41133	1.78499	1.45489	2.6193	67.56	-0.2429	0.0072	0.2501	879.0127	0.120845	-358.806062	-358.798915	-358.797971	-358.837327	27.207	
N	 0.1155263855	 1.4606323863	-0.0209251021	-0.505384
C	 0.0560506441	 0.0267395903	 0.0491069631	-0.037578
C	 0.2270430693	-0.60705146	 1.4769715265	-0.220403
C	-1.1330039355	-1.2866859996	 1.3224563052	-0.106642
N	-2.1142725083	-0.2071338499	 1.1111838533	-0.368638
C	-1.3232871503	-0.707532251	-0.0475444444	 0.234244
C	-1.9455326146	-1.2583821613	-1.2014771482	 0.155419
N	-2.4233668388	-1.6889546341	-2.1651788046	-0.344778
H	-0.0013271106	 1.7850276367	-0.9758646046	 0.235729
H	-0.6405499834	 1.8563371765	 0.5315680441	 0.244397
H	 0.7629076668	-0.4069737991	-0.6615352062	 0.102367
H	 1.0649238253	-1.3041917632	 1.5265816808	 0.118569
H	 0.2912548399	 0.1101994759	 2.2975363054	 0.121165
H	-1.4443011871	-2.2590317793	 1.6819258778	 0.121627
H	-3.0429633723	-0.6246629382	 1.0549390139	 0.249907
123.6096	163.1846	194.7961	317.3005	374.8187	416.2334	501.8613	539.637	568.1962	647.3997	683.4957	814.1479	862.2962	871.0021	904.739	954.1817	978.1631	1013.9695	1033.6592	1097.1476	1143.3099	1162.8278	1224.3146	1229.2435	1265.8335	1278.998	1328.3577	1391.2631	1420.9064	1476.8919	1661.5267	2335.8913	3078.9389	3092.5212	3140.1101	3205.7997	3483.0765	3490.55	3574.5493
NC1CC2NC12C#N	N[C@H]1C[C@H]2N[C@@]12C#N	
InChI=1S/C5H7N3/c6-2-5-3(7)1-4(5)8-5/h3-4,8H,1,7H2	InChI=1S/C5H7N3/c6-2-5-3(7)1-4(5)8-5/h3-4,8H,1,7H2/t3-,4+,5-/m0/s1
