14
gdb 29111	3.13732	1.44178	0.98782	5.859	69.8	-0.1886	-0.028	0.1605	1096.4273	0.1026	-470.055497	-470.04757	-470.046626	-470.087892	29.984	
O	-0.160905565	 1.3449108879	-0.3021987228	-0.427877
C	 0.0675649132	 0.0297332225	-0.0451664646	 0.411355
C	 1.2414502387	-0.6079179779	 0.0579058735	-0.185997
N	 1.2493483422	-1.9781319169	 0.3304408465	-0.362412
C	 0.1252119285	-2.7524300837	 0.5075421241	 0.280238
N	 0.2045762287	-4.0022186384	 0.7547457009	-0.532299
C	-1.1990813824	-2.0244452478	 0.3895208795	 0.375617
O	-2.2594939227	-2.598569812	 0.5254019926	-0.363196
N	-1.1167546296	-0.6768570006	 0.1194383033	-0.402331
H	 0.6806007655	 1.7994346906	-0.4096681463	 0.311307
H	 2.1976708959	-0.1213951336	-0.0580985981	 0.122176
H	 2.1281750023	-2.4653988204	 0.4094451717	 0.263278
H	-0.7448260738	-4.3654513538	 0.8463784868	 0.238294
H	-1.9902998315	-0.1744736559	 0.037058613	 0.271848
94.1098	149.4209	216.6622	299.1982	346.1443	348.6823	394.7881	467.2189	527.967	537.4122	584.263	612.9082	631.2439	694.9354	710.2649	790.2862	816.2243	870.0598	1020.0419	1074.5788	1184.2196	1211.8694	1267.2584	1290.2964	1394.5978	1443.2045	1453.0551	1520.9541	1708.6808	1760.7662	1797.8471	3245.034	3486.9938	3607.0727	3636.7284	3841.1906
OC1=CNC(=N)C(=O)N1	OC1=CN[C]([NH])C(=O)N1	
InChI=1S/C4H5N3O2/c5-3-4(9)7-2(8)1-6-3/h1H,(H2,5,6)(H2,7,8,9)	InChI=1S/C4H5N3O2/c5-3-4(9)7-2(8)1-6-3/h1H,(H2,5,6)(H2,7,8,9)
