17
gdb 129695	2.98381	1.38015	0.99593	4.6629	75.1	-0.2036	0.0074	0.2111	1165.0751	0.138399	-414.172948	-414.164817	-414.163873	-414.206317	30.473	
N	-0.109941817	 1.310145067	 0.4009120282	-0.596449
C	-0.080170289	-0.0513325394	 0.1110883743	 0.237924
C	-1.1252435163	-0.9041332543	-0.1982357185	 0.2719
N	-0.474309907	-2.0760909174	-0.4647567811	-0.231323
N	 0.8478497664	-1.9694746752	-0.3259790466	-0.128142
N	 1.09445379	-0.7324531078	 0.029092011	-0.255978
C	-2.583134113	-0.7115821236	-0.2984847921	-0.143502
C	-3.5377674554	-1.6846450775	 0.361133021	-0.268256
C	-3.3813337422	-0.2985043338	 0.9233594541	-0.255297
H	 0.7430162509	 1.6053268401	 0.8585717557	 0.25448
H	-0.9217842376	 1.5928895092	 0.9332487147	 0.246707
H	-0.8765608066	-2.9603620406	-0.732302601	 0.275276
H	-2.9314985704	-0.2843206784	-1.2365664632	 0.110505
H	-4.4535502287	-1.9289649757	-0.1645990989	 0.121002
H	-3.113824833	-2.5049579097	 0.9297146835	 0.119007
H	-2.8475934819	-0.1987751249	 1.8619368646	 0.120909
H	-4.189346109	 0.4102314719	 0.7833058142	 0.121236
43.1814	137.7182	148.7294	240.367	294.8053	329.2194	398.5163	490.5652	553.7548	609.5876	697.6202	714.9166	737.7447	780.5453	806.7464	832.9265	914.2636	923.1347	1010.2079	1060.3334	1080.9853	1087.4511	1103.593	1127.1913	1130.6583	1201.3938	1206.8436	1230.3894	1256.6596	1339.781	1379.217	1415.3996	1467.2853	1500.1391	1526.8833	1629.0302	1656.6291	3119.3288	3136.5834	3141.5894	3218.3984	3232.958	3542.3643	3640.4619	3654.0431
NC1=C(NN=N1)C1CC1	Nc1c([nH]nn1)C1CC1	
InChI=1S/C5H8N4/c6-5-4(3-1-2-3)7-9-8-5/h3H,1-2H2,(H3,6,7,8,9)	InChI=1S/C5H8N4/c6-5-4(3-1-2-3)7-9-8-5/h3H,1-2H2,(H3,6,7,8,9)
