22
gdb 113850	3.23642	1.03131	0.91444	2.251	82.93	-0.2397	0.0707	0.3105	1398.0743	0.194588	-404.304763	-404.295324	-404.29438	-404.340024	34.454	
C	 0.5294590929	 1.3547326805	 0.3333054934	-0.375669
C	-0.190030733	 0.0576096929	-0.0531681354	-0.196094
C	 0.4393164994	-0.5848125841	-1.2696584342	 0.005805
N	 1.6661459934	-1.384253967	-1.0685930286	-0.338232
C	 0.4580249451	-2.0398654226	-1.5883666784	-0.05762
C	-0.1397974691	-3.1635632338	-0.7729457247	 0.13159
C	 0.7853800039	-4.3906087277	-0.566622982	-0.284718
C	 0.735883063	-3.9942793368	 0.9208253221	-0.055313
O	-0.2001010328	-2.929482905	 0.650469164	-0.276082
H	 1.5795900367	 1.1549930205	 0.5694072996	 0.124614
H	 0.5029919054	 2.088706263	-0.481048465	 0.102594
H	 0.0676162212	 1.816873788	 1.2111562926	 0.10912
H	-0.171406054	-0.6534585245	 0.7733162083	 0.138566
H	-1.2448233448	 0.268077734	-0.2746276969	 0.087526
H	 0.439274372	 0.062576391	-2.1493114456	 0.074565
H	 2.3346309846	-1.2165354822	-1.8149221261	 0.227304
H	 0.4405022839	-2.2838900662	-2.6530614672	 0.076537
H	-1.1375848159	-3.3989501043	-1.1689009991	 0.075647
H	 0.3344443446	-5.354557491	-0.8064535245	 0.107247
H	 1.7642135428	-4.3116911724	-1.0414939639	 0.111315
H	 0.3147081489	-4.7372695003	 1.6080538497	 0.098156
H	 1.6760053816	-3.6089925419	 1.3305111219	 0.11314
58.439	63.6974	92.6926	144.9569	207.001	240.4811	249.1497	306.8437	441.0733	530.5454	641.5225	721.0941	765.3571	792.936	823.7653	840.9242	897.5113	921.2856	948.0814	962.534	979.3408	1026.1071	1032.9174	1044.2576	1084.5762	1106.0658	1113.8226	1157.926	1166.5252	1193.1123	1220.2359	1250.8217	1260.8976	1274.2061	1276.0444	1310.132	1343.8469	1355.9971	1383.2114	1404.5745	1425.2164	1480.8127	1485.3826	1487.6997	1499.4031	1508.7068	1522.8176	3003.7608	3025.1094	3025.7045	3027.3848	3070.1476	3071.4533	3081.8128	3084.9136	3088.5662	3107.6346	3137.2816	3140.315	3505.4857
CCC1NC1C1CCO1	CC[C@H]1N[C@H]1[C@H]1CCO1	
InChI=1S/C7H13NO/c1-2-5-7(8-5)6-3-4-9-6/h5-8H,2-4H2,1H3	InChI=1S/C7H13NO/c1-2-5-7(8-5)6-3-4-9-6/h5-8H,2-4H2,1H3/t5-,6-,7-/m1/s1
