17
gdb 45447	2.92894	1.62945	1.13777	4.3562	75.16	-0.231	-0.0625	0.1685	1051.123	0.138081	-418.020458	-418.012985	-418.012041	-418.052919	28.497	
N	 0.0007965004	 1.2889342188	-0.3751962508	-0.519791
C	 0.0300604084	 0.0556148447	-0.0579430951	 0.231656
N	-1.0318218652	-0.8183036041	-0.0809345288	-0.082659
C	-1.8908449053	-1.0309383161	-1.2709855611	-0.17452
C	-1.2948003268	-2.4619956179	-1.4220320876	-0.254671
C	-0.5951769674	-2.2419615305	-0.0494526936	 0.02762
C	 0.9301008483	-2.2392160952	 0.1115809386	-0.375867
C	 1.2775613798	-0.7562475904	 0.2906627076	 0.336977
O	 2.3458142253	-0.2803326976	 0.5668815433	-0.298671
H	 0.9451640581	 1.6674824323	-0.2665054191	 0.233424
H	-2.9560384053	-1.0010148935	-1.0261531218	 0.122208
H	-1.6858413465	-0.3154576453	-2.0713459433	 0.136854
H	-2.0038645967	-3.2895836027	-1.476954922	 0.115727
H	-0.5881690454	-2.5402537125	-2.2523708418	 0.115751
H	-1.0841004646	-2.7893417143	 0.7628529217	 0.094725
H	 1.2965422117	-2.8263564344	 0.9568290046	 0.144545
H	 1.4446540011	-2.6044528914	-0.7846332207	 0.146691
65.5481	103.6468	217.9507	312.5811	326.5858	414.8031	501.4066	564.0173	647.2674	668.3324	680.3634	728.3666	801.3918	861.0472	889.7647	913.4489	941.6046	954.5765	1046.2168	1065.2333	1094.3944	1108.3577	1144.7139	1181.4886	1216.2693	1224.6097	1257.7827	1265.9506	1283.7268	1311.9523	1360.6144	1416.4535	1444.011	1484.763	1514.9759	1719.2098	1849.4348	3044.5538	3053.2606	3059.3748	3068.6731	3108.9259	3111.5133	3132.2951	3449.1957
N=C1N2CCC2CC1=O	[NH][C]1N2CC[C@H]2CC1=O	
InChI=1S/C6H8N2O/c7-6-5(9)3-4-1-2-8(4)6/h4,7H,1-3H2	InChI=1S/C6H8N2O/c7-6-5(9)3-4-1-2-8(4)6/h4,7H,1-3H2/t4-/m0/s1
