20
gdb 59441	2.71852	1.05719	0.95866	3.995	76.59	-0.2513	0.0074	0.2588	1351.5174	0.168488	-440.305113	-440.294756	-440.293812	-440.341057	37.169	
C	 0.1149406429	-0.6771185305	-3.3616360082	-0.394105
C	 0.224715964	-0.7121780321	-1.8299862761	-0.010442
C	 0.4246008568	 0.6910118961	-1.24025966	-0.395974
C	-1.0213879404	-1.344292195	-1.2491593595	 0.075995
O	-1.1901701229	-2.7513322921	-1.3885818273	-0.241921
C	-1.0520110322	-2.2412124741	-0.0685120282	-0.062884
C	 0.2013058347	-2.6310757667	 0.6834677435	 0.394469
N	 0.0495835635	-2.5967232909	 2.0414872872	-0.52981
O	 1.2522023272	-2.9167230565	 0.145971471	-0.353093
H	 1.0224066072	-0.2544805121	-3.8041310629	 0.112803
H	-0.0232260894	-1.6847442279	-3.7638371944	 0.132752
H	-0.7325357154	-0.0614358634	-3.6874566206	 0.105851
H	 1.0713219621	-1.3444108222	-1.5521898773	 0.124745
H	 0.5410188056	 0.6572312984	-0.1521138971	 0.11506
H	 1.3208226695	 1.1594193251	-1.6583164382	 0.118627
H	-0.4261276578	 1.3451170519	-1.4681103904	 0.108837
H	-1.941681652	-0.7779359013	-1.4259219593	 0.087694
H	-1.9724069139	-2.2645655436	 0.5194683576	 0.0844
H	-0.8499522818	-2.5013615402	 2.4791733039	 0.261267
H	 0.8279688122	-2.8935125228	 2.6073854464	 0.265728
44.7889	54.9872	135.0746	185.5997	207.4991	213.9718	237.688	269.109	316.8233	347.7218	402.3957	471.9747	494.8695	574.5428	657.7042	759.5906	775.1296	857.9737	889.4348	920.8886	935.0946	968.8784	985.458	1065.0376	1089.0563	1119.3453	1158.6645	1183.0815	1208.6062	1291.1214	1297.8933	1320.0131	1360.636	1396.9307	1415.0141	1431.777	1476.6091	1488.0129	1491.4512	1503.5296	1513.324	1617.2679	1801.7364	3023.666	3026.9509	3053.5267	3079.6134	3081.4595	3089.295	3104.9389	3109.1045	3114.7838	3602.1208	3736.0475
CC(C)C1OC1C(N)=O	CC(C)[C@H]1O[C@H]1C(=O)N	
InChI=1S/C6H11NO2/c1-3(2)4-5(9-4)6(7)8/h3-5H,1-2H3,(H2,7,8)	InChI=1S/C6H11NO2/c1-3(2)4-5(9-4)6(7)8/h3-5H,1-2H3,(H2,7,8)/t4-,5-/m1/s1
