15
gdb 24206	4.23537	1.57426	1.37198	1.7283	70.35	-0.2066	0.0096	0.2162	918.4474	0.115377	-420.576836	-420.570792	-420.569847	-420.607434	24.604	
C	-0.0427385263	 1.5988067133	-0.0487679106	-0.209873
C	 1.4946592069	 1.3077548179	-0.0185019875	-0.093
O	 1.1820145974	 0.1863524016	 0.8886120148	-0.283081
C	-0.0229307498	 0.0372677565	 0.0342993175	-0.090713
C	 0.6130244506	-0.3402540057	-1.3069183574	 0.288534
C	 1.6448340913	 0.539007948	-1.3222065937	 0.360058
O	 2.4202578084	 0.4194305217	-2.4086814078	-0.211797
C	 1.8419116026	-0.6005562767	-3.135649996	-0.016001
C	 0.7330906327	-1.1021276003	-2.5056226474	-0.40585
H	-0.3905839696	 2.0615960102	 0.8778481818	 0.112228
H	-0.471407633	 2.0727913042	-0.9342707128	 0.105161
H	 2.2495980367	 2.0014712038	 0.3432008445	 0.098959
H	-0.8176712655	-0.5550258735	 0.4815813137	 0.091003
H	 2.3404508612	-0.8434274327	-4.0588653566	 0.137306
H	 0.1149273064	-1.9053918382	-2.8755066925	 0.117067
84.1359	300.9321	397.4923	475.8417	541.966	598.1257	679.1953	682.8418	697.7416	739.9855	819.2192	825.6425	834.2432	873.4613	904.4547	933.4539	1009.2925	1013.7783	1038.08	1071.0133	1106.1677	1153.3441	1158.1525	1209.5677	1241.8168	1249.3498	1270.3038	1278.3935	1376.673	1462.9437	1482.4293	1486.2156	1592.7705	3062.7745	3135.6728	3154.8974	3160.3915	3252.7549	3288.9479
C1C2OC1C1=C2OC=C1	C1[C@H]2O[C@@H]1c1c2occ1	
InChI=1S/C7H6O2/c1-2-8-7-4(1)5-3-6(7)9-5/h1-2,5-6H,3H2	InChI=1S/C7H6O2/c1-2-8-7-4(1)5-3-6(7)9-5/h1-2,5-6H,3H2/t5-,6+/m0/s1
