13
gdb 130333	3.30653	1.40819	1.00898	3.3942	63.22	-0.2384	-0.0445	0.1938	1069.0226	0.090657	-486.048887	-486.041473	-486.040529	-486.081141	27.479	
N	 0.6278631577	 0.8067421229	-0.9739875935	-0.603657
C	 0.2511685293	-0.3102436881	-0.2827484302	 0.311765
N	-0.9935512326	-0.6955082591	-0.1307829167	-0.162558
O	-0.9559416726	-1.7870583054	 0.7140016932	-0.16047
N	 0.3182280421	-2.0947915632	 1.065630977	-0.156854
C	 1.0775193764	-1.2147080044	 0.4742182632	 0.390314
N	 2.4558063102	-1.2483843034	 0.6951683912	-0.404559
C	 3.4444695969	-0.7533504537	-0.1057822811	 0.156574
O	 3.2889945956	-0.1322953967	-1.1363628094	-0.312045
H	 1.5576339436	 0.7443222853	-1.3757069064	 0.287352
H	-0.0871807863	 1.1785399175	-1.5818473629	 0.264114
H	 2.7389325069	-1.8294771873	 1.4722272025	 0.279425
H	 4.4420565728	-0.9842389943	 0.306222323	 0.110599
66.5872	206.8772	226.8325	269.5061	315.0133	416.3397	451.6287	502.3767	595.7382	598.0857	611.5089	681.1679	744.2359	772.4509	864.0959	920.8844	969.2976	1024.3374	1062.2166	1159.3831	1176.9628	1335.5861	1435.4406	1442.4033	1511.5977	1592.2485	1620.0337	1672.1692	1799.4893	2991.8689	3501.1914	3605.1155	3650.9789
NC1=NON=C1NC=O	Nc1nonc1NC=O	
InChI=1S/C3H4N4O2/c4-2-3(5-1-8)7-9-6-2/h1H,(H2,4,6)(H,5,7,8)	InChI=1S/C3H4N4O2/c4-2-3(5-1-8)7-9-6-2/h1H,(H2,4,6)(H,5,7,8)
