16
gdb 38891	3.68704	1.6287	1.26946	2.5586	69.16	-0.2353	0.0095	0.2448	962.8978	0.126351	-437.842978	-437.836408	-437.835464	-437.873833	26.403	
C	-0.0089567856	 1.523640284	 0.0528812978	-0.297138
C	 1.306768628	 0.7903077063	 0.0012232876	 0.067522
O	 2.1509823376	 0.8428134754	 1.1414900055	-0.271426
C	 2.1122396395	-0.4107122282	 1.7845203651	-0.02582
C	 2.187186236	-0.5107053717	 3.3252421473	-0.127452
O	 0.8633170579	-1.1680144677	 3.337745166	-0.268751
C	 0.6923646309	-0.8315970805	 2.0227851436	 0.438379
N	-0.3522817972	-0.6308438948	 1.3534078072	-0.310686
C	 0.0032731342	 0.0111252663	 0.0979440476	-0.029623
H	-0.238041975	 2.0243711251	 0.9871668372	 0.131247
H	-0.3620475991	 2.0242468775	-0.8422086429	 0.116874
H	 1.8644357365	 0.7719757981	-0.932389507	 0.096406
H	 2.7450561094	-1.1526599535	 1.2817745372	 0.105571
H	 2.9541615056	-1.1577407753	 3.7526447482	 0.130068
H	 2.1382588414	 0.4525912111	 3.837207665	 0.140349
H	-0.3349554201	-0.5211281323	-0.7853237454	 0.104481
147.6534	189.6655	340.6271	359.2242	418.5529	479.7701	512.5979	600.6661	723.6543	779.7577	790.855	807.1482	810.2015	907.6341	930.7481	968.2097	1008.6234	1038.3449	1064.084	1085.0606	1120.7718	1122.4897	1147.5504	1151.8872	1174.8531	1204.0184	1212.6065	1244.4868	1325.723	1348.1252	1365.6353	1400.8731	1464.9029	1502.046	1808.4928	3028.903	3077.5979	3124.6664	3135.0879	3149.647	3158.8274	3229.3632
C1C2OC3COC3=NC12	C1[C@H]2O[C@H]3CO[C]3[N][C@@H]12	
InChI=1S/C6H7NO2/c1-3-4(1)9-5-2-8-6(5)7-3/h3-5H,1-2H2	InChI=1S/C6H7NO2/c1-3-4(1)9-5-2-8-6(5)7-3/h3-5H,1-2H2/t3-,4+,5-/m0/s1
