17
gdb 45257	3.0476	1.65565	1.33251	1.9197	70.81	-0.2405	-0.0276	0.2129	966.4063	0.136498	-421.815665	-421.808607	-421.807663	-421.847438	28.086	
O	 0.0259726393	 0.1492977816	-0.8724766141	-0.290499
C	 0.0209180711	 1.1795772092	-0.2664737919	 0.397914
C	-1.0702038962	 1.9804860917	 0.4699640172	-0.380913
C	-0.0274405293	 3.1198202468	 0.686570435	 0.100357
O	 0.3493604938	 3.3862446714	 2.0280034345	-0.2646
C	 1.5603196771	 2.7474533249	 2.3370930419	 0.112909
C	 1.5943255475	 1.245349373	 2.3827570136	-0.336153
C	 2.0829727965	 1.986049328	 1.1454366174	-0.074277
C	 1.0963499008	 2.2543845457	 0.0184999089	-0.184854
H	-1.9340642537	 2.2289390987	-0.1534782785	 0.132879
H	-1.4281276846	 1.5233600055	 1.3971554234	 0.141031
H	-0.2899301151	 4.063442237	 0.2025673082	 0.09383
H	 2.1869537462	 3.3402139039	 2.9942784313	 0.105234
H	 2.3563361253	 0.7806384647	 2.9995954591	 0.120895
H	 0.6591093581	 0.6978988818	 2.347329047	 0.125728
H	 3.137713233	 1.951679403	 0.9042150213	 0.102415
H	 1.5914991302	 2.6503228733	-0.8706357642	 0.098104
66.983	149.4177	266.9318	388.5025	407.0733	442.174	532.3522	602.3573	684.7053	708.929	755.3801	795.6587	800.3884	853.6397	897.1239	933.5493	948.8043	976.8258	1013.6088	1035.4463	1061.8515	1072.4955	1080.2552	1095.9081	1119.2115	1160.1097	1179.0032	1206.1558	1231.5535	1252.5564	1260.4907	1321.362	1358.4571	1386.7583	1422.9054	1481.2333	1893.2512	3060.1221	3079.1624	3095.7954	3116.6293	3135.8068	3172.2473	3189.631	3222.8894
O=C1CC2OC3CC3C12	O=C1C[C@H]2O[C@H]3C[C@H]3[C@@H]12	
InChI=1S/C7H8O2/c8-4-2-6-7(4)3-1-5(3)9-6/h3,5-7H,1-2H2	InChI=1S/C7H8O2/c8-4-2-6-7(4)3-1-5(3)9-6/h3,5-7H,1-2H2/t3-,5+,6-,7+/m1/s1
