17
gdb 17757	2.9065	2.79457	1.84835	1.7591	71.23	-0.2063	0.0762	0.2825	786.5039	0.141045	-326.61786	-326.610701	-326.609757	-326.648649	28.092	
C	-0.0644315312	 1.4947727956	 0.0462647559	-0.525441
C	 0.1131393808	 0.0166417019	-0.0148234624	 0.305745
C	 0.2914503144	-0.9737718734	-1.1994394026	-0.166418
C	-0.5996562867	-1.9298023326	-0.4547197036	-0.00823
C	 0.8852463154	-2.0005681697	-0.2250945682	-0.166421
C	 0.6911024046	-0.9828071411	 0.9335672909	 0.30574
C	 1.3016025003	-0.8674837328	 2.2878667446	-0.52544
N	-0.8059330128	-0.9541232849	 0.6991743886	-0.262389
H	 0.8345213893	 2.0177595199	-0.2994895416	 0.120785
H	-0.9066555893	 1.8150681107	-0.5775963689	 0.12796
H	-0.2707810484	 1.8083826807	 1.0742695694	 0.131901
H	 0.4817473993	-0.8481378233	-2.2561568583	 0.092904
H	-1.3262981695	-2.6622703061	-0.7837767147	 0.095755
H	 1.6025490295	-2.7862360789	-0.4170629044	 0.092904
H	 2.3719641552	-0.6408801661	 2.2234170857	 0.120784
H	 0.8144330511	-0.0683571782	 2.8551303005	 0.131902
H	 1.1835709979	-1.7994745116	 2.8523086992	 0.127959
181.4789	195.3102	201.9146	267.0048	291.5804	334.0593	585.7881	636.9447	672.1985	738.7671	748.9224	776.4079	815.4104	853.9113	857.3272	890.9048	965.2711	996.0202	997.856	1019.6008	1032.3336	1079.0604	1094.5508	1131.188	1169.8029	1185.7184	1252.4013	1324.4834	1343.2037	1403.8528	1408.6008	1463.8501	1474.7744	1484.9983	1486.9069	1500.0944	3024.7592	3026.5873	3086.9046	3087.6931	3105.9821	3108.7735	3182.904	3206.3599	3219.1331
CC12C3C4C3C1(C)N24	C[C@@]12[C@@H]3[C@H]4[C@@H]3[C@]1(C)N24	
InChI=1S/C7H9N/c1-6-3-4-5(3)8(6)7(4,6)2/h3-5H,1-2H3	InChI=1S/C7H9N/c1-6-3-4-5(3)8(6)7(4,6)2/h3-5H,1-2H3/t3-,4+,5-,6+,7-,8?
