20
gdb 104209	2.63945	1.2728	1.2257	1.939	74.51	-0.248	0.0543	0.3023	1147.9521	0.17003	-440.234658	-440.225518	-440.224574	-440.268327	34.667	
C	-0.3707181295	 1.5967352624	 0.2589691694	-0.440151
C	-0.1118177184	 0.1067222858	 0.1310362045	 0.306497
C	-1.3464608402	-0.668682805	-0.3471831199	-0.093584
O	-1.6551679752	-0.3159680836	-1.6802148856	-0.422006
O	 0.9694170496	-0.1651421485	-0.8214464695	-0.345371
C	 1.7209575121	-0.9339545742	 0.1507616042	-0.132515
C	 0.7068074368	-0.5876458071	 1.2302132842	 0.234272
C	 0.8957169662	-0.2028989839	 2.6412332122	-0.305004
N	 0.2634344242	-1.4915752379	 2.2806024968	-0.363772
H	 0.5570894084	 2.1345332148	 0.4675171915	 0.120742
H	-0.8042658343	 1.9758106426	-0.670345558	 0.141093
H	-1.0816034488	 1.7947320436	 1.0690428482	 0.112096
H	-1.158857504	-1.7493604888	-0.2498991635	 0.091174
H	-2.2240531905	-0.4222852548	 0.2615724308	 0.100883
H	-0.8267221061	-0.4193043723	-2.1674333544	 0.292399
H	 1.7697909106	-1.9993942519	-0.1039922409	 0.1139
H	 2.7356075056	-0.5409119334	 0.2803290486	 0.110665
H	 1.8753637252	-0.2909431254	 3.1038672709	 0.123782
H	 0.2737004824	 0.5918670114	 3.0456635491	 0.117792
H	-0.744906754	-1.4386398437	 2.4070141712	 0.23711
83.9095	117.6411	161.5934	223.648	230.89	285.4324	298.1718	342.1785	391.8612	476.709	504.2428	521.7664	588.7591	718.5853	827.5283	870.2763	890.6683	924.0676	927.9528	968.6504	977.1979	1004.1916	1049.2176	1070.3078	1081.8825	1119.3485	1131.3473	1149.3843	1189.7653	1208.4701	1259.1663	1271.7356	1298.4874	1323.2061	1380.9673	1404.8947	1435.753	1437.4674	1480.6765	1492.667	1505.4269	1519.4826	1520.7679	2982.351	3022.6976	3038.3448	3062.3932	3071.0962	3103.7976	3109.9787	3132.0846	3188.2974	3492.8894	3764.1829
CC1(CO)OCC11CN1	C[C@@]1(CO)OC[C@]21CN2	
InChI=1S/C6H11NO2/c1-5(3-8)6(2-7-6)4-9-5/h7-8H,2-4H2,1H3	InChI=1S/C6H11NO2/c1-5(3-8)6(2-7-6)4-9-5/h7-8H,2-4H2,1H3/t5-,6-/m0/s1
