22
gdb 8330	5.15371	1.21296	1.2096	0.0871	82.47	-0.2649	0.0879	0.3528	1138.7264	0.200827	-313.057004	-313.048824	-313.04788	-313.089457	32.009	
C	-0.0579283441	 1.5820385387	 0.3038813605	-0.407733
C	 0.0487649527	 0.0793904125	 0.0975081421	 0.065485
C	 1.011486246	-0.4693153299	-0.9941283867	-0.315595
C	 1.4044929786	-1.6149573378	-0.0339749828	 0.395144
C	 0.8030568191	-3.0389030147	-0.208334529	-0.269924
C	 2.1201025718	-3.6252788773	 0.3674065545	-0.206111
C	 2.8053849849	-2.2629942859	 0.0732415886	-0.293861
C	 0.8304750958	-0.7715050619	 1.1380815989	-0.292021
H	 0.9325162323	 2.0286163004	 0.4505814347	 0.108588
H	-0.5186783472	 2.072421351	-0.5613068036	 0.11174
H	-0.664794372	 1.8229311667	 1.1842766796	 0.111385
H	-0.9505604457	-0.3461877668	-0.0482368722	 0.069505
H	 0.5876840625	-0.7476014501	-1.9641267971	 0.087857
H	 1.850193977	 0.2164848435	-1.1646826312	 0.090735
H	-0.1299881656	-3.2623944601	 0.31750406	 0.091387
H	 0.6750037282	-3.2931226904	-1.2659174942	 0.094243
H	 2.0453782175	-3.8203247994	 1.4407956621	 0.101429
H	 2.5303500414	-4.5144860898	-0.1168071016	 0.093309
H	 3.3219047286	-2.2672605894	-0.8927689937	 0.095457
H	 3.4860653921	-1.8574730883	 0.8278818996	 0.089444
H	 1.614063773	-0.1783193397	 1.6242568882	 0.089508
H	 0.2584011532	-1.2930893312	 1.9115903736	 0.090029
76.6713	107.8686	221.6033	257.8102	274.3491	317.4231	393.3747	424.3181	466.5327	659.416	715.02	774.4315	839.2155	841.5936	872.3327	893.4676	904.3609	930.2221	936.6847	953.4083	970.6081	1014.0312	1080.2531	1082.7481	1131.9474	1180.5643	1184.785	1192.1642	1210.2476	1231.6937	1247.57	1254.9057	1260.1774	1280.194	1286.9795	1295.2992	1311.1031	1375.6959	1410.0447	1469.565	1473.4436	1482.3826	1492.7235	1495.9357	1497.7661	1506.0239	3018.8113	3025.3956	3030.1882	3035.3355	3036.2924	3041.4622	3058.2316	3081.0739	3081.9648	3084.3242	3086.6726	3088.9013	3091.7694	3113.3356
CC1CC2(CCC2)C1	CC1CC2(CCC2)C1	
InChI=1S/C8H14/c1-7-5-8(6-7)3-2-4-8/h7H,2-6H2,1H3	InChI=1S/C8H14/c1-7-5-8(6-7)3-2-4-8/h7H,2-6H2,1H3
