16
gdb 17592	2.76076	2.45946	1.85125	1.6213	64.26	-0.228	0.0672	0.2952	781.3269	0.129962	-383.681226	-383.674005	-383.67306	-383.712076	28.611	
O	-0.1122995623	 1.3940270705	 0.0472864108	-0.462381
C	 0.0144807431	 0.0166414276	-0.0018598077	 0.296057
C	-0.2161218938	-0.8706639293	 1.2091961504	-0.390363
C	-1.1368996848	-1.0054583082	 0.0256718559	 0.352464
O	-2.4919833283	-0.8168156321	 0.2145528238	-0.456012
C	-0.4921472774	-1.7684602428	-1.1024796738	-0.120046
C	-0.2637925432	-0.8755111882	-2.299808062	-0.308953
C	 0.6668006894	-0.7540001953	-1.123441727	-0.10446
H	 0.5983167097	 1.7494067646	 0.5915486719	 0.286411
H	 0.4806362819	-1.6594932664	 1.4825512516	 0.103063
H	-0.6768910031	-0.351357328	 2.0446201911	 0.119654
H	-2.8590148722	-0.4471446197	-0.5965638001	 0.286446
H	-0.3951717151	-2.8466327153	-1.1645769705	 0.089334
H	 0.1458896151	-1.368718227	-3.1762080145	 0.112377
H	-0.9522943358	-0.0660341125	-2.5278573118	 0.111437
H	 1.7190698569	-1.0069163978	-1.1942332882	 0.084971
171.616	222.1457	236.5832	255.35	319.2791	435.8293	442.1497	558.5269	564.9415	585.6237	741.9005	766.804	800.4424	841.001	861.766	923.3847	970.4576	986.759	1026.6385	1057.0824	1065.6461	1082.3327	1092.2991	1130.1474	1169.4111	1214.9892	1250.8293	1270.3644	1312.251	1356.5448	1372.3335	1412.8756	1487.7473	1504.402	3104.6426	3114.3144	3167.3745	3177.0963	3201.427	3201.7075	3792.8142	3796.7224
OC12CC1(O)C1CC21	O[C@@]12C[C@]1(O)[C@H]1C[C@@H]21	
InChI=1S/C6H8O2/c7-5-2-6(5,8)4-1-3(4)5/h3-4,7-8H,1-2H2	InChI=1S/C6H8O2/c7-5-2-6(5,8)4-1-3(4)5/h3-4,7-8H,1-2H2/t3-,4+,5-,6+
