17
gdb 15781	6.03101	1.08646	1.01413	2.3867	70.32	-0.2404	0.0379	0.2783	1153.3677	0.141118	-363.79721	-363.788685	-363.787741	-363.830368	31.362	
O	-0.8603204587	 0.7034522261	 0.2425456449	-0.439722
C	-0.1660293393	-0.4984287798	-0.0347110877	 0.093983
C	 0.8927439885	-0.2886081249	-1.1452420844	-0.357548
C	 0.2806750813	 0.2244849988	-2.364390466	 0.255435
C	-0.2930231132	 0.6688889212	-3.3240814728	-0.419345
C	 0.4805404464	-0.9772068533	 1.2501389576	 0.013317
C	 1.0255970185	-0.0067660038	 2.2304790432	-0.235628
N	-0.1988064642	-0.77487597	 2.5331978765	-0.337377
H	-1.2003424061	 1.0412258099	-0.5944879777	 0.293367
H	-0.8716017476	-1.2703661308	-0.3837318115	 0.083926
H	 1.6491028003	 0.415745189	-0.7796521584	 0.141612
H	 1.4036667049	-1.2382125039	-1.3458278587	 0.133788
H	-0.7666970401	 1.0493743647	-4.1952941683	 0.202144
H	 0.9612356741	-1.949064497	 1.1519019807	 0.089701
H	 1.8931174716	-0.2692926385	 2.8290516522	 0.113052
H	 0.9181810642	 1.0484365804	 2.0009006163	 0.12491
H	-0.9995336905	-0.166916078	 2.3705052641	 0.244385
69.3308	96.9825	132.9938	234.5242	274.1192	350.2303	359.6166	377.5597	421.6727	546.804	622.3263	629.622	660.4695	800.0916	861.2827	872.6701	942.0337	954.729	983.603	1006.0226	1046.9934	1092.8094	1126.7649	1158.3269	1205.5354	1230.9254	1243.2694	1288.5083	1296.7887	1318.639	1371.7104	1416.8615	1445.6756	1462.1912	1501.865	2230.6755	2966.3544	3031.7997	3073.1988	3116.9787	3123.4388	3209.2422	3494.4385	3504.1344	3789.7601
OC(CC#C)C1CN1	O[C@@H](CC#C)[C@H]1CN1	
InChI=1S/C6H9NO/c1-2-3-6(8)5-4-7-5/h1,5-8H,3-4H2	InChI=1S/C6H9NO/c1-2-3-6(8)5-4-7-5/h1,5-8H,3-4H2/t5-,6+/m1/s1
