22
gdb 99104	2.82981	0.98215	0.8852	2.2818	82.51	-0.24	-0.0152	0.2247	1448.4635	0.191875	-404.350478	-404.340001	-404.339057	-404.386953	37.818	
C	 1.1174523214	-0.6674992086	-0.9444019595	-0.374635
C	 0.0272747976	-1.3359130271	-0.1105460613	-0.29301
C	-0.7946938909	-2.3552209251	-0.8892353836	 0.384172
O	-0.5841282377	-2.5873587711	-2.0578623379	-0.302774
C	-1.911844102	-3.0797217936	-0.1307207339	-0.36161
C	-3.0685860183	-2.1647261169	 0.2615885801	 0.329182
C	-3.7607258067	-1.4661149832	-0.891685218	-0.43896
C	-3.8562850741	-2.5170428025	 1.4708081226	-0.283742
N	-2.9502705644	-1.3500408891	 1.4899273022	-0.344112
H	 1.6823104384	 0.047856791	-0.3403105097	 0.109808
H	 1.8126224025	-1.4092104779	-1.3456811567	 0.13044
H	 0.6849415576	-0.1359936241	-1.795799113	 0.132036
H	 0.4558488035	-1.8489404882	 0.7625954589	 0.113067
H	-0.6657211721	-0.5931496956	 0.3068486876	 0.144803
H	-2.2720461505	-3.8790786132	-0.7857502111	 0.123775
H	-1.4947561099	-3.5413987799	 0.7735491231	 0.099179
H	-4.2040148303	-2.1965930377	-1.5768746695	 0.122479
H	-4.5501784357	-0.8107090263	-0.517420962	 0.127795
H	-3.058944626	-0.8550004137	-1.4690434967	 0.127734
H	-4.9145569695	-2.2743226248	 1.5152292435	 0.118951
H	-3.573748651	-3.4038578531	 2.0324406366	 0.110281
H	-2.101579692	-1.5947401493	 1.9946775582	 0.225141
37.1991	58.4045	92.5972	137.7606	197.0336	201.5531	242.0002	316.0299	331.344	371.6206	397.5682	453.7927	522.0725	635.0828	707.9543	761.9539	802.0331	832.8821	904.4968	918.7618	929.9764	976.639	1000.6544	1016.3699	1062.3022	1076.5054	1096.2484	1111.7084	1130.9077	1161.695	1220.3322	1256.9142	1278.2465	1301.8561	1338.1405	1369.9799	1386.9891	1414.2932	1425.1181	1457.442	1462.5653	1487.9447	1493.0067	1493.9538	1497.7112	1515.1718	1805.151	3012.415	3025.6207	3037.6269	3049.0086	3051.9627	3090.0656	3099.23	3105.5263	3123.0979	3127.7284	3128.3228	3190.0318	3492.9154
CCC(=O)CC1(C)CN1	CCC(=O)C[C@@]1(C)CN1	
InChI=1S/C7H13NO/c1-3-6(9)4-7(2)5-8-7/h8H,3-5H2,1-2H3	InChI=1S/C7H13NO/c1-3-6(9)4-7(2)5-8-7/h8H,3-5H2,1-2H3/t7-/m0/s1
