21
gdb 115870	2.42755	1.40497	1.03652	1.1586	77.82	-0.2523	0.0779	0.3303	1218.0703	0.18226	-424.226975	-424.217828	-424.216884	-424.260704	34.721	
C	-0.0650765058	 1.4804141097	 0.0779921079	-0.492385
C	 0.1103696734	-0.0126508241	 0.0063106473	 0.400614
O	-0.7425764878	-0.7936069427	 0.8710068454	-0.308433
C	 0.6792020207	-0.8346149871	 1.0835650252	-0.009103
C	 1.3482428907	-2.0620145952	 0.5030327667	-0.254079
C	 0.7515527124	-2.1646525612	-0.9195321042	-0.21787
C	 0.3753883543	-0.7160019461	-1.3246383257	-0.0309
C	-0.7917646277	-0.6464036542	-2.30044608	-0.098391
O	-0.4140573741	-1.3449762389	-3.4796957044	-0.424366
H	 0.7945013453	 1.9938680493	-0.3662782228	 0.121503
H	-0.961366079	 1.800673173	-0.4641227349	 0.127039
H	-0.1682020331	 1.804995053	 1.1164501878	 0.128561
H	 1.0158412698	-0.4033489194	 2.0242928653	 0.084915
H	 2.4320203294	-1.8914806022	 0.4759494896	 0.100388
H	 1.1751684344	-2.9637477853	 1.0989394144	 0.106513
H	 1.4333645422	-2.6270947261	-1.6345957623	 0.107973
H	-0.1551140886	-2.7745003398	-0.8951095447	 0.113367
H	 1.2386457408	-0.2244491485	-1.7949312458	 0.076393
H	-1.678405664	-1.0988348661	-1.829972042	 0.099983
H	-1.035146188	 0.4037888135	-2.5290682992	 0.081954
H	-1.1702488655	-1.3633241917	-4.0732075338	 0.286322
87.1112	123.5947	174.8691	189.8873	239.4017	265.0804	287.6051	309.7403	431.1953	451.2687	514.8547	564.3641	662.8271	720.864	825.6355	836.5772	867.0413	922.3568	948.4696	972.9055	1000.771	1026.4062	1036.1231	1066.9201	1086.0008	1112.673	1141.9252	1181.0693	1228.7856	1232.7577	1251.7326	1261.9632	1297.5214	1327.4737	1331.4477	1338.2876	1371.0533	1410.9379	1452.3266	1459.7605	1477.9419	1487.7372	1491.7509	1499.8345	1525.1061	2965.8805	2997.2547	3019.5715	3031.5645	3035.4598	3070.0891	3083.2331	3095.6216	3120.3081	3124.8251	3133.9379	3831.3199
CC12OC1CCC2CO	C[C@]12O[C@H]1CC[C@H]2CO	
InChI=1S/C7H12O2/c1-7-5(4-8)2-3-6(7)9-7/h5-6,8H,2-4H2,1H3	InChI=1S/C7H12O2/c1-7-5(4-8)2-3-6(7)9-7/h5-6,8H,2-4H2,1H3/t5-,6-,7+/m0/s1
