18
gdb 45253	2.98167	1.68537	1.33195	3.566	74.48	-0.2284	-0.0302	0.1982	980.4873	0.149174	-401.929921	-401.922807	-401.921862	-401.961571	28.529	
O	 0.113011058	 0.2377146224	-1.0738202696	-0.287123
C	 0.0537593141	 1.2041009422	-0.3733544734	 0.403934
C	-1.0816740609	 1.8811536421	 0.4180149919	-0.374114
C	-0.1009710832	 3.0497548582	 0.7540123181	-0.016564
C	 0.3629156913	 3.2654087566	 2.2087792132	-0.26247
C	 1.6509970824	 2.4597138251	 2.3503335063	-0.001361
C	 1.6070561032	 0.998846041	 2.1084937599	-0.255725
N	 2.0828075427	 1.9053918186	 1.0436983671	-0.099018
C	 1.0744906085	 2.294456544	 0.0398778758	-0.116638
H	-1.9489661716	 2.1415803959	-0.1957951493	 0.132282
H	-1.4383673887	 1.2982377	 1.2744043854	 0.129453
H	-0.3978145449	 3.9852126505	 0.2786045455	 0.086019
H	 0.5747222561	 4.3242992566	 2.3847640922	 0.112297
H	-0.3964478587	 2.9659643832	 2.939140707	 0.112331
H	 2.4412765183	 2.8731049382	 2.9714114082	 0.095538
H	 2.380558131	 0.3531061159	 2.5140211154	 0.123838
H	 0.6378505824	 0.5166135916	 2.0165260079	 0.118058
H	 1.5773557598	 2.796898828	-0.7908086517	 0.099265
78.1872	165.0604	257.6931	357.1987	392.9967	437.7958	536.6175	588.7662	672.2433	703.8356	732.0944	783.4942	818.8966	845.0516	862.2437	913.4076	930.6688	985.2655	1017.6186	1044.2573	1070.1041	1091.6681	1097.0051	1113.168	1127.9538	1160.6354	1176.3502	1203.4572	1234.1101	1251.3576	1265.7963	1287.6385	1308.0334	1341.2617	1388.0922	1436.8668	1489.963	1514.1225	1892.2167	3046.0819	3048.0416	3072.2535	3083.963	3095.6765	3109.4173	3114.4777	3141.9108	3194.937
O=C1CC2CC3CN3C12	O=C1C[C@H]2C[C@H]3CN3[C@@H]12	
InChI=1S/C7H9NO/c9-6-2-4-1-5-3-8(5)7(4)6/h4-5,7H,1-3H2	InChI=1S/C7H9NO/c9-6-2-4-1-5-3-8(5)7(4)6/h4-5,7H,1-3H2/t4-,5+,7-,8?/m1/s1
