19
gdb 96713	3.48923	0.91524	0.76097	2.781	82.5	-0.2275	-0.0665	0.1609	1505.1526	0.156933	-419.190159	-419.180206	-419.179262	-419.226043	35.086	
C	-0.4453299159	 1.3138299982	-0.0551498263	-0.306719
N	-0.1395026254	-0.1053454435	-0.0309949857	-0.291045
C	 0.6244071419	-0.6483978621	-0.8958807884	 0.289318
N	 0.8387188044	-2.0177768559	-0.8943264681	-0.344364
C	 0.3658450898	-2.8226544476	 0.1905488484	 0.077321
C	-0.9937507395	-3.4591042276	 0.0800932682	-0.239051
C	 0.2529469294	-4.3031692668	-0.0399437515	-0.303999
C	 1.3561551987	 0.0276681018	-2.0298857824	 0.102054
O	 1.3696385324	 1.2140137904	-2.2336666587	-0.240504
H	 0.4334543394	 1.92837373	 0.1766127445	 0.126822
H	-0.8195513609	 1.6592156277	-1.025890846	 0.126797
H	-1.2083200109	 1.5109961896	 0.7034025877	 0.111694
H	 1.6937313681	-2.3289038919	-1.3317269555	 0.241028
H	 0.6579530739	-2.4764779332	 1.1798181761	 0.102517
H	-1.5908549839	-3.533333755	 0.9813207354	 0.119978
H	-1.5542367623	-3.2637112515	-0.8260422612	 0.121047
H	 0.5083587729	-4.6777607062	-1.025695446	 0.113284
H	 0.51882672	-4.966372372	 0.7751286919	 0.119539
H	 1.9101102478	-0.6731472246	-2.6996767821	 0.074285
48.0212	65.6684	101.3746	133.1445	166.7628	237.0462	249.5031	344.4046	352.7557	406.7305	443.4344	488.0184	559.6369	752.5816	771.3048	833.8267	845.582	856.9646	964.1084	1000.6095	1008.093	1059.3497	1079.0475	1103.9756	1110.0674	1119.376	1139.9154	1193.0311	1207.5565	1241.6245	1282.5932	1400.008	1433.4872	1442.3688	1461.1463	1478.0102	1497.1206	1499.9198	1506.9153	1697.991	1827.3497	2839.8976	3012.4431	3067.5311	3092.5037	3123.3602	3135.411	3148.4616	3218.9189	3240.1609	3596.4293
CN=C(NC1CC1)C=O	CN=C(NC1CC1)C=O	
InChI=1S/C6H10N2O/c1-7-6(4-9)8-5-2-3-5/h4-5H,2-3H2,1H3,(H,7,8)	InChI=1S/C6H10N2O/c1-7-6(4-9)8-5-2-3-5/h4-5H,2-3H2,1H3,(H,7,8)
