21
gdb 120335	3.12773	0.97097	0.92951	2.5251	78.23	-0.2441	0.0766	0.3207	1371.2475	0.183729	-424.208068	-424.199188	-424.198243	-424.242223	33.12	
O	 0.0359756897	 1.4070738218	-0.0399438684	-0.420777
C	-0.022438319	 0.0116550769	 0.2131500909	-0.065067
C	-1.3773589854	-0.4956775487	-0.2715404642	-0.216274
C	-1.5068782694	-1.9986398358	-0.1193431195	-0.018814
C	-1.9424038448	-2.7043362976	 1.1489046426	-0.079139
C	-2.7348038958	-1.91771798	 2.1774018832	-0.094953
O	-3.775555628	-1.2514799489	 1.4657605708	-0.251025
C	-4.0773583437	-1.9867382026	 0.2815062956	-0.092511
C	-2.8180238471	-2.750337472	-0.084722194	-0.101832
H	 0.8819866655	 1.7353751017	 0.2776339226	 0.284069
H	 0.7864006077	-0.5224616456	-0.3138929133	 0.077859
H	 0.094009047	-0.2063872785	 1.2871967977	 0.085491
H	-2.1669041138	 0.0249661459	 0.2747171204	 0.134081
H	-1.4837981497	-0.2220299891	-1.3286951295	 0.101962
H	-0.7296777494	-2.5449410304	-0.652121782	 0.081727
H	-1.393729858	-3.5746236748	 1.4908506325	 0.085733
H	-3.1477978367	-2.6069466667	 2.9318896768	 0.092607
H	-2.1616962333	-1.1453760036	 2.7028960136	 0.107995
H	-4.902797713	-2.6960148547	 0.4545978144	 0.092216
H	-4.4047466017	-1.2614649366	-0.4717116142	 0.109612
H	-2.9269788013	-3.6539757604	-0.6737082259	 0.087037
73.461	94.7746	115.4818	225.2794	230.6917	255.8831	265.2582	380.4985	465.2596	519.0868	689.0348	735.8128	765.3267	807.3425	825.5018	907.3645	920.3038	974.7172	978.1239	1007.6102	1023.1557	1035.1684	1076.7097	1086.9532	1102.7882	1126.6973	1130.3798	1138.9988	1208.143	1224.7986	1236.534	1242.7649	1255.6897	1313.0941	1323.344	1329.9573	1359.6163	1365.3433	1400.4902	1456.2126	1461.1528	1501.1457	1516.5619	1524.3673	1529.4403	2954.3055	2969.5994	2976.2696	2982.4692	3036.4587	3055.8609	3059.904	3105.7918	3122.1064	3168.5401	3178.7438	3831.1814
OCCC1C2COCC12	OCC[C@H]1[C@H]2COC[C@@H]12	
InChI=1S/C7H12O2/c8-2-1-5-6-3-9-4-7(5)6/h5-8H,1-4H2	InChI=1S/C7H12O2/c8-2-1-5-6-3-9-4-7(5)6/h5-8H,1-4H2/t5-,6+,7-
