19
gdb 107833	3.26697	1.44835	1.25854	2.857	73.76	-0.2239	0.066	0.2899	1042.6276	0.160481	-422.985685	-422.978024	-422.97708	-423.017743	30.39	
O	-0.109450065	 1.4132607211	 0.1759811618	-0.425683
C	-0.0220948951	 0.0069250779	-0.0135209206	-0.19621
C	-1.4254637571	-0.5437414844	-0.0117446374	 0.316034
C	-2.2170191144	-0.5375326026	 1.3414913296	-0.26335
C	-2.6555399298	-1.9717589419	 1.0509704337	-0.107029
C	-3.0860792246	-2.0661355914	-0.4002503492	 0.1184
O	-3.4912872167	-0.8927783014	-1.0703416913	-0.273747
C	-2.345386331	-0.0316005946	-1.1245066154	-0.110836
C	-1.6325378753	-2.0869832369	-0.0891384303	-0.196893
H	 0.7822068064	 1.7726889243	 0.1948831666	 0.290413
H	 0.4689333288	-0.2365906632	-0.9709809287	 0.087133
H	 0.5643874469	-0.4700791845	 0.7876700445	 0.08933
H	-1.5377070533	-0.4819040112	 2.1958236734	 0.100248
H	-2.9997781729	 0.2194668958	 1.4511664086	 0.103086
H	-2.9421992699	-2.7202939897	 1.7814258583	 0.081669
H	-3.6100777876	-2.9554892282	-0.729400067	 0.100327
H	-2.6752042193	 0.9981878139	-0.9659548988	 0.120386
H	-1.8592079137	-0.1041317657	-2.1107752984	 0.082706
H	-0.9096247664	-2.8496302872	-0.3496817995	 0.084016
91.9804	168.2247	220.4449	264.273	331.8864	360.5933	412.8368	491.9147	618.2063	668.3958	724.8919	759.8963	796.6835	844.6641	901.0912	939.2805	951.1369	963.5458	986.0123	1018.7717	1026.3461	1037.522	1064.7329	1067.7938	1108.9457	1138.92	1141.9341	1187.3863	1200.9683	1214.0315	1238.4202	1275.3501	1283.4955	1291.9344	1321.9307	1384.912	1403.2277	1463.4674	1491.3374	1512.5993	1520.3211	2955.9312	2974.9203	2990.2381	3048.8173	3096.7105	3104.4917	3167.9848	3184.422	3197.0434	3831.9523
OCC12CC3C(OC1)C23	OC[C@@]12C[C@H]3[C@@H](OC1)[C@@H]23	
InChI=1S/C7H10O2/c8-2-7-1-4-5(7)6(4)9-3-7/h4-6,8H,1-3H2	InChI=1S/C7H10O2/c8-2-7-1-4-5(7)6(4)9-3-7/h4-6,8H,1-3H2/t4-,5+,6-,7+/m1/s1
