17
gdb 7739	3.31381	1.79599	1.2114	5.6393	74.62	-0.214	-0.0171	0.1969	975.5651	0.144288	-363.916693	-363.909271	-363.908327	-363.948151	28.921	
N	 0.0538694149	 1.3691809241	 0.1812543781	-0.561578
C	-0.0133811119	 0.011079798	 0.0162837953	 0.38694
C	-1.1866940136	-0.6725786452	-0.0045511477	-0.287678
C	-1.2644267051	-2.1255903319	-0.0450805862	 0.383652
O	-2.326388044	-2.7273445003	-0.0563785024	-0.367312
C	 0.067082639	-2.8805578156	-0.0426495558	-0.302983
C	 1.1943233758	-2.0805971942	-0.700769969	-0.222681
C	 1.3201057988	-0.6931781033	-0.0629775034	-0.28832
H	 0.878260294	 1.8507897316	-0.1386864483	 0.255045
H	-0.8014176151	 1.8985741913	 0.1146399837	 0.260066
H	-2.1356885007	-0.144898489	 0.0393565205	 0.075408
H	 0.3231644638	-3.0925642907	 1.005467077	 0.1148
H	-0.0925761231	-3.8456341288	-0.5299616862	 0.117154
H	 2.1475184277	-2.6135696756	-0.6226915711	 0.099732
H	 0.9808739302	-1.9641178879	-1.770085519	 0.109866
H	 2.0296285451	-0.0722256901	-0.6250984447	 0.099186
H	 1.7298822342	-0.7773300224	 0.9535638792	 0.128702
111.2016	166.6607	245.7749	336.7323	380.7352	429.765	445.8774	480.6894	501.153	546.8274	605.6027	654.7436	761.5338	850.7784	875.1643	889.9126	920.3799	977.5525	1063.1616	1073.8007	1094.9695	1154.1352	1206.2581	1258.8038	1266.5154	1298.9678	1346.5897	1358.9468	1380.038	1425.9782	1460.8439	1472.8302	1496.202	1639.771	1675.0881	1751.4675	3010.0576	3014.093	3031.3678	3047.0858	3078.3705	3100.9033	3163.9973	3585.1503	3698.5911
NC1=CC(=O)CCC1	NC1=CC(=O)CCC1	
InChI=1S/C6H9NO/c7-5-2-1-3-6(8)4-5/h4H,1-3,7H2	InChI=1S/C6H9NO/c7-5-2-1-3-6(8)4-5/h4H,1-3,7H2
