16
gdb 48886	3.37761	1.59622	1.32704	2.7374	67.68	-0.2436	-0.0425	0.201	953.6417	0.124757	-437.836782	-437.829738	-437.828794	-437.868513	27.167	
O	-0.8082510535	 1.0704104863	 0.2769805347	-0.252403
C	 0.3196301514	 0.8137094822	-0.058015153	 0.079251
C	 1.4396557927	 1.8168785177	-0.0289039243	 0.296581
C	 1.4585073459	 2.9301836454	 1.0504071527	-0.206713
N	 1.8152649034	 3.9773969742	 0.0333152699	-0.150825
C	 2.8739992966	 3.3869037217	-0.845453861	-0.053061
C	 3.6641534012	 2.1796572631	-0.3605494668	-0.117779
O	 2.6865330538	 1.1552107349	-0.1271186329	-0.30927
C	 1.4735718698	 2.9936069299	-1.0522626796	-0.09777
H	 0.6198483493	-0.1899242408	-0.4282096674	 0.097086
H	 0.458450395	 3.1409840941	 1.4324099462	 0.141492
H	 2.1661013428	 2.7995357534	 1.8750405552	 0.110434
H	 3.3527769029	 4.1199506144	-1.4841531817	 0.114954
H	 4.3684799954	 1.8294253349	-1.1225287431	 0.121377
H	 4.226420928	 2.3873603217	 0.5591077724	 0.115066
H	 0.8202423254	 3.2060302768	-1.8888249113	 0.11158
73.7243	182.3724	222.3554	291.065	415.1129	432.0657	484.2015	656.6471	694.8958	720.7507	768.8557	793.6286	855.8358	872.6436	932.5791	956.1199	974.2629	987.8572	1043.3103	1058.2965	1096.6483	1102.5799	1133.6195	1186.6769	1192.058	1222.4099	1247.3033	1270.662	1310.7096	1357.9619	1387.7601	1410.8354	1492.3998	1521.3929	1830.7954	2910.3224	3019.8947	3057.0873	3071.0288	3134.6665	3187.2589	3201.1849
O=CC12CN3C(CO1)C23	O=C[C@@]12CN3[C@@H](CO1)[C@@H]23	
InChI=1S/C6H7NO2/c8-3-6-2-7-4(1-9-6)5(6)7/h3-5H,1-2H2	InChI=1S/C6H7NO2/c8-3-6-2-7-4(1-9-6)5(6)7/h3-5H,1-2H2/t4-,5-,6+,7?/m0/s1
