18
gdb 116852	6.67039	0.49082	0.46114	2.4081	82.06	-0.2501	-0.0139	0.2362	2314.4478	0.145328	-439.081995	-439.070941	-439.069997	-439.121009	36.356	
C	-0.0338583012	 1.4349539793	 0.0903572692	-0.338779
N	 0.1007277036	-0.0026374854	-0.0256364181	-0.309714
C	 0.5550108978	-0.6087570448	-1.1628346445	 0.255144
O	 0.8845893069	-0.0069624876	-2.1706178916	-0.361226
C	 0.6107709176	-2.0593786859	-1.0608988835	-0.01761
C	 0.6739518278	-3.2629443548	-1.0226359469	 0.113108
C	 0.7649848138	-4.714716763	-1.0170309769	-0.337751
C	 1.2863857867	-5.2784576839	-2.3446775355	-0.064014
O	 1.3235223013	-6.6868174889	-2.1991481315	-0.414881
H	 0.5961295458	 1.8308331948	 0.8948884787	 0.127307
H	 0.2851234307	 1.8688449136	-0.8578006923	 0.173571
H	-1.0729773514	 1.7238549641	 0.2843886493	 0.12731
H	-0.1460664226	-0.5909837634	 0.7529599139	 0.252915
H	 1.4280484879	-5.0498161983	-0.2100144465	 0.144875
H	-0.2183333535	-5.1553694985	-0.8117700789	 0.144876
H	 0.6180664277	-4.9671679291	-3.1606457529	 0.106482
H	 2.2821011518	-4.8604422743	-2.5524527749	 0.106481
H	 1.6480457196	-7.0673633838	-3.0202812568	 0.291906
15.357	57.6509	70.557	74.12	113.2703	151.0715	201.6569	240.8545	304.5467	328.7643	393.819	434.9066	484.8213	543.1338	610.0425	762.5953	790.4929	832.9085	987.4779	1011.9271	1082.8455	1085.116	1139.5245	1151.8064	1172.4223	1220.0016	1238.3428	1259.4012	1303.6256	1329.5303	1438.5879	1455.9714	1470.2347	1490.2582	1498.9191	1528.0044	1556.5247	1755.4014	2349.3869	2989.5136	3021.4685	3026.2336	3031.6542	3069.6194	3077.5305	3155.0973	3649.127	3835.6911
CNC(=O)C#CCCO	CNC(=O)C#CCCO	
InChI=1S/C6H9NO2/c1-7-6(9)4-2-3-5-8/h8H,3,5H2,1H3,(H,7,9)	InChI=1S/C6H9NO2/c1-7-6(9)4-2-3-5-8/h8H,3,5H2,1H3,(H,7,9)
