17
gdb 10540	3.01542	1.3992	1.07414	3.7526	69.19	-0.2978	0.0042	0.3019	1132.8643	0.140692	-363.858638	-363.850001	-363.849056	-363.892261	30.605	
C	-0.1019446623	 1.5671881981	 0.0950946569	-0.385507
C	-0.1610749114	 0.0403380546	 0.1791906422	-0.175337
C	 0.9476293251	-0.5403587866	 1.0672805673	-0.268433
C	 0.8841961552	-2.0511517276	 1.1831748284	 0.258241
C	 1.1875411122	-2.7526382203	 2.4476299727	-0.211277
O	-0.1578433718	-2.5823014079	 2.0115101959	-0.249545
C	 1.0926495903	-2.7861424968	-0.0570293166	 0.266767
N	 1.2765452445	-3.3409929864	-1.0541001636	-0.334704
H	 0.8519496089	 1.9056650618	-0.3242988859	 0.118673
H	-0.9019354035	 1.9567906806	-0.5409595851	 0.12135
H	-0.210419539	 2.0247508393	 1.0846840014	 0.117222
H	-1.1320029485	-0.2763408928	 0.5772645197	 0.118945
H	-0.0813389772	-0.389771139	-0.8263523304	 0.123031
H	 1.9332420305	-0.2585342716	 0.6758778164	 0.11877
H	 0.871984344	-0.1292908291	 2.0800968507	 0.113058
H	 1.5645936554	-3.7727554752	 2.4214957192	 0.13949
H	 1.4846272177	-2.155365831	 3.307997351	 0.129258
73.8019	90.2669	137.3925	194.2979	239.4059	248.1338	327.4511	366.0098	424.5245	577.0129	595.9158	714.5047	746.6905	828.9228	887.0566	899.6418	926.2208	970.0371	1050.8148	1096.7327	1120.3947	1139.0656	1172.0055	1232.5721	1278.5522	1303.9281	1333.492	1375.0974	1403.1401	1416.2525	1468.2665	1492.9101	1500.6273	1509.3089	1520.9903	2357.116	3028.5908	3031.2235	3038.9894	3063.1744	3083.1226	3092.718	3101.9533	3109.6312	3188.6678
CCCC1(CO1)C#N	CCC[C@]1(CO1)C#N	
InChI=1S/C6H9NO/c1-2-3-6(4-7)5-8-6/h2-3,5H2,1H3	InChI=1S/C6H9NO/c1-2-3-6(4-7)5-8-6/h2-3,5H2,1H3/t6-/m1/s1
