18
gdb 53123	4.54414	0.98109	0.94476	1.7549	84.57	-0.2224	0.0357	0.2581	1318.8119	0.147781	-364.706764	-364.698604	-364.69766	-364.740861	30.373	
C	 0.0080267112	 1.5449197636	-0.0442971139	-0.501121
C	 0.0081669223	 0.0908794145	 0.0197035128	 0.102943
C	 0.0067809662	-1.1133797941	 0.0685940417	 0.068503
C	 0.0280636719	-2.5633919724	 0.1211649354	-0.156617
C	 0.1931039405	-3.3188545799	 1.4370628884	-0.087012
C	-1.2217292301	-3.4557616489	 2.0333625167	-0.08211
C	-2.1513434174	-2.7769380927	 1.0440687531	-0.176798
N	-1.2957187828	-3.3198818443	-0.0872062644	-0.180818
C	-0.7576808732	-4.3567230502	 0.9283478356	-0.04398
H	 0.9452757877	 1.9236836004	-0.4667300885	 0.150089
H	-0.8095125084	 1.9105432508	-0.6754560799	 0.152547
H	-0.1142927629	 1.9907011197	 0.9489846031	 0.148279
H	 0.7227428897	-2.9549417612	-0.6290373246	 0.103716
H	 1.0803516106	-3.448974814	 2.0439299185	 0.093636
H	-1.3622807879	-3.6925402383	 3.080787398	 0.089606
H	-3.1330016596	-3.254912056	 0.9957488839	 0.107007
H	-2.2606152338	-1.6886722361	 1.0503666045	 0.111746
H	-0.7073183141	-5.4243446408	 0.7728995796	 0.100384
28.0381	91.9666	99.882	252.3653	292.3298	393.56	427.2354	470.5648	540.5888	734.1649	778.016	806.3375	813.8789	821.8782	847.9979	866.6579	949.8565	961.643	996.9767	1005.8864	1032.5228	1042.7551	1051.232	1053.9715	1070.9867	1109.8764	1167.1339	1170.0992	1198.432	1221.6524	1269.8371	1297.586	1357.152	1375.0727	1413.7064	1476.7058	1478.3688	1507.3589	2362.1585	3027.1514	3051.0124	3055.972	3088.1613	3089.0262	3111.4488	3187.5132	3194.3972	3227.3856
CC#CC1C2C3CN1C23	CC#C[C@H]1[C@H]2[C@H]3CN1[C@@H]23	
InChI=1S/C8H9N/c1-2-3-6-7-5-4-9(6)8(5)7/h5-8H,4H2,1H3	InChI=1S/C8H9N/c1-2-3-6-7-5-4-9(6)8(5)7/h5-8H,4H2,1H3/t5-,6+,7-,8-/m1/s1
