19
gdb 99220	4.76646	0.68205	0.60757	3.0662	74.16	-0.2389	0.0157	0.2546	1813.2884	0.157405	-456.421928	-456.411045	-456.410101	-456.460479	36.933	
C	 0.1728942243	 1.4669540831	 0.2569636913	-0.366352
C	-0.1483458968	 0.0426759693	-0.1977305842	-0.29846
C	 0.6769008775	-0.370986568	-1.4141501589	 0.424614
O	 1.0672209773	 0.4242031302	-2.2546657427	-0.387273
N	 0.9333862297	-1.7025066896	-1.5127284288	-0.327738
C	 1.603178303	-2.2605138105	-2.6564605931	-0.242124
C	 1.5287692592	-3.7852899212	-2.5687817168	 0.402743
N	 2.1201430749	-4.4428841555	-3.5988404385	-0.522571
O	 0.9847877524	-4.3557113168	-1.640279562	-0.361724
H	 1.1926855639	 1.5354717939	 0.6477515218	 0.120173
H	 0.0964811983	 2.1539454727	-0.5881694409	 0.143368
H	-0.5156119318	 1.7896500981	 1.0428643951	 0.106844
H	-0.0081364444	-0.6766823977	 0.6169897348	 0.104089
H	-1.2046802755	-0.0261206863	-0.4904704775	 0.127258
H	 0.5707055916	-2.3813059037	-0.8578211884	 0.260062
H	 1.1427896123	-1.9117409069	-3.5901798513	 0.141752
H	 2.6556067407	-1.9472995571	-2.7005311143	 0.138035
H	 2.5509619394	-3.9609662229	-4.3683998972	 0.268531
H	 2.0994305341	-5.449119371	-3.6039269085	 0.268774
17.75	42.5182	56.9684	105.4177	155.7749	164.4763	214.0919	250.6854	292.1005	342.3409	489.8032	499.9023	536.1667	605.6165	620.6504	642.0213	699.6575	811.3514	833.0759	943.092	1013.4723	1024.843	1067.3494	1095.7701	1099.0337	1162.8161	1228.854	1235.704	1284.8626	1300.2844	1368.9625	1407.7056	1415.0755	1466.6665	1493.1729	1500.691	1506.1173	1524.2299	1622.2057	1764.2856	1798.0372	3013.4222	3025.0281	3039.7849	3048.0501	3065.8972	3113.7662	3138.6687	3597.4549	3606.3863	3740.6352
CCC(=O)NCC(N)=O	CCC(=O)NCC(=O)N	
InChI=1S/C5H10N2O2/c1-2-5(9)7-3-4(6)8/h2-3H2,1H3,(H2,6,8)(H,7,9)	InChI=1S/C5H10N2O2/c1-2-5(9)7-3-4(6)8/h2-3H2,1H3,(H2,6,8)(H,7,9)
