18
gdb 75087	2.91678	1.53097	1.12729	3.8253	78.79	-0.2341	0.0023	0.2364	1097.4487	0.14845	-401.969397	-401.961416	-401.960472	-402.001822	30.619	
C	 0.313828796	 1.4391776047	-0.0009023321	-0.48302
C	 0.0294975218	-0.0356499676	-0.0385455902	 0.312494
C	-0.1685865148	-0.7363070652	-1.1597208643	-0.170411
C	-0.4736210353	-2.2217096712	-1.1387907407	-0.352954
C	 0.2771455971	-2.849947042	 0.0287466827	 0.360506
O	 1.0273626448	-3.7902726744	-0.0655936886	-0.330628
N	 0.0237716894	-2.1979410201	 1.2455696254	-0.091371
C	 1.0756531866	-1.4504599599	 1.9147553374	-0.240531
C	-0.0909707613	-0.7497268796	 1.2647653635	-0.122336
H	 1.2745994242	 1.6467436401	 0.4857035683	 0.131596
H	 0.3395163113	 1.8668969723	-1.0063128083	 0.127676
H	-0.45076367	 1.9744925822	 0.576474705	 0.128731
H	-0.0971125895	-0.2505183143	-2.1294027617	 0.095891
H	-1.5529349119	-2.3975060359	-1.0331930172	 0.135371
H	-0.1489196473	-2.7168643511	-2.0556854979	 0.132988
H	 1.114885004	-1.5431921201	 2.996658348	 0.126721
H	 2.0399494491	-1.4065639491	 1.4155290906	 0.135518
H	-0.8607734942	-0.3669049289	 1.9374775301	 0.10376
89.9958	172.4502	198.5393	244.2781	262.7879	322.8784	399.344	491.0646	532.6828	560.674	625.2236	700.0722	751.299	806.1384	833.0402	934.6294	956.663	970.7775	1012.9897	1029.9117	1060.4421	1079.9991	1099.8099	1120.4528	1125.6957	1167.635	1197.8947	1212.6066	1300.8246	1329.5607	1358.9986	1414.7305	1421.1592	1464.3017	1477.4439	1490.7421	1506.2583	1721.2813	1817.9489	3018.847	3020.3023	3068.3074	3085.4115	3110.4783	3115.5605	3116.2559	3161.5109	3202.2588
CC1=CCC(=O)N2CC12	CC1=CCC(=O)N2C[C@@H]12	
InChI=1S/C7H9NO/c1-5-2-3-7(9)8-4-6(5)8/h2,6H,3-4H2,1H3	InChI=1S/C7H9NO/c1-5-2-3-7(9)8-4-6(5)8/h2,6H,3-4H2,1H3/t6-,8?/m0/s1
