19
gdb 17263	3.08446	2.1235	1.77731	1.8977	76.16	-0.2282	0.0883	0.3165	856.4577	0.165723	-327.834582	-327.827274	-327.82633	-327.865543	29.386	
C	 0.0179088969	 1.5285525965	 0.0291044832	-0.521792
C	 0.0078254322	 0.021926814	 0.0237090893	 0.212428
C	 0.5236141798	-0.9725412546	-1.0506540957	-0.201985
N	-0.0311827634	-1.9353902195	 0.0182564679	-0.186246
C	 0.6468727483	-0.9807713144	 1.0214460107	-0.201984
C	-1.1819932679	-0.9471799632	 0.090628882	 0.432426
C	-2.3975151515	-1.0759040228	 0.9306161055	-0.380188
C	-2.4885826601	-1.0698286078	-0.6003331411	-0.380186
H	 1.0407426117	 1.9157312839	-0.0294425968	 0.122833
H	-0.54103228	 1.9286915816	-0.824053435	 0.122136
H	-0.4371012108	 1.92164672	 0.9449922301	 0.122132
H	-0.0117867742	-1.0241134348	-2.0019056075	 0.100789
H	 1.6054558519	-1.0600577788	-1.1886959026	 0.093232
H	 1.7374110709	-1.0688482097	 1.029559166	 0.093232
H	 0.2280005846	-1.0401356072	 2.0290244559	 0.100789
H	-2.5710874837	-2.0215935442	 1.4339233292	 0.124079
H	-2.7653608217	-0.205353001	 1.465132021	 0.112113
H	-2.9167856897	-0.1952403882	-1.0805569435	 0.112113
H	-2.7210477333	-2.01158215	-1.0869879686	 0.124079
179.8628	185.9989	218.7052	245.0147	327.9672	366.5862	503.2298	616.7164	621.7451	636.5251	750.8771	773.3084	780.759	893.9416	901.706	904.9206	916.4697	963.7562	987.7964	1033.1414	1041.4331	1042.5455	1077.1304	1103.752	1145.1511	1173.5221	1178.5837	1182.8429	1196.6856	1203.5433	1261.2358	1309.1944	1398.6767	1413.9197	1451.3607	1489.0567	1490.4167	1502.1166	1506.5618	1548.9742	3026.6901	3045.3261	3051.4826	3094.4787	3097.5305	3116.9158	3119.8739	3122.5655	3125.105	3202.3973	3215.7894
CC12CN(C1)C21CC1	C[C@@]12CN(C1)C12CC1	
InChI=1S/C7H11N/c1-6-4-8(5-6)7(6)2-3-7/h2-5H2,1H3	InChI=1S/C7H11N/c1-6-4-8(5-6)7(6)2-3-7/h2-5H2,1H3
