16
gdb 10595	2.9714	1.76259	1.32317	0.7415	67.5	-0.2539	-0.0451	0.2089	946.1145	0.127904	-383.756382	-383.748054	-383.74711	-383.788923	29.864	
C	 0.0225492573	 1.3789968714	-0.0239340862	-0.427718
C	 0.2106585054	-0.1153055937	 0.0531961811	-0.004851
C	 1.5191324526	-0.7645659962	-0.0965802162	-0.297657
C	 0.8851109073	-0.7904701018	 1.3075374447	 0.10438
C	 1.4807002959	 0.0579289829	 2.3629338101	 0.085713
O	 2.1768490984	 1.0294260617	 2.175009031	-0.275983
C	 0.2559078734	-2.0616479643	 1.7377331081	 0.086019
O	-0.2060635611	-2.885945448	 0.983455844	-0.276419
H	 0.8817014013	 1.9130064656	 0.3844605425	 0.161164
H	-0.0999590447	 1.6704933624	-1.0729254711	 0.130811
H	-0.8751989515	 1.6951856392	 0.5161066698	 0.125994
H	-0.6363445896	-0.71750961	-0.2653225594	 0.128114
H	 1.5687168458	-1.7352527728	-0.5770149171	 0.147897
H	 2.3989009981	-0.1332587721	-0.1653066601	 0.14795
H	 1.2389338839	-0.2701687838	 3.3995003217	 0.082361
H	 0.2273270775	-2.2182551104	 2.839541167	 0.082224
114.2956	155.682	203.0723	214.3971	222.5202	236.4302	280.7475	382.7231	429.6176	490.9774	658.577	713.2948	731.0745	886.2678	921.2916	945.0836	1000.003	1059.9999	1063.6195	1072.0473	1129.9336	1137.8187	1210.2722	1239.0676	1309.994	1391.627	1422.2474	1439.2483	1444.239	1468.7637	1498.7834	1502.4592	1782.4425	1820.735	2863.2325	2885.5895	3041.0244	3100.1763	3135.7709	3140.9069	3159.4701	3237.8832
CC1CC1(C=O)C=O	C[C@H]1CC1(C=O)C=O	
InChI=1S/C6H8O2/c1-5-2-6(5,3-7)4-8/h3-5H,2H2,1H3	InChI=1S/C6H8O2/c1-5-2-6(5,3-7)4-8/h3-5H,2H2,1H3/t5-/m0/s1
