19
gdb 53670	2.91376	0.83639	0.74516	2.8395	79.67	-0.2342	0.0307	0.265	1595.0259	0.155967	-422.962376	-422.951961	-422.951016	-423.000683	36.08	
C	-0.8626088354	 0.7606035937	 0.6921935047	-0.497344
C	-0.4113152642	-0.5760255977	 0.3346037742	 0.032315
C	-0.0443525969	-1.6853239048	 0.0435062998	 0.106592
C	 0.4338076099	-3.0164288349	-0.3279414614	-0.230608
O	-0.5682140817	-3.8959560862	-0.8329194595	-0.253667
C	-1.4393404112	-4.426293279	 0.1237497712	 0.063332
C	-2.6935089779	-3.657115269	 0.4950080049	-0.342651
C	-2.7619701321	-4.8345874648	-0.4542895343	 0.118775
O	-2.9831880311	-4.625928507	-1.8137636665	-0.433507
H	-0.5084801063	 1.5083238867	-0.0256727145	 0.151199
H	-1.9567722267	 0.8121887653	 0.7120043484	 0.154176
H	-0.5000619199	 1.0508539102	 1.6843071803	 0.15112
H	 1.1724770577	-2.9353366079	-1.1327457981	 0.137573
H	 0.9374820579	-3.4872399395	 0.5298185834	 0.121592
H	-0.9508467716	-5.0483816796	 0.8736940559	 0.088744
H	-3.0827463681	-3.7607601803	 1.5024963492	 0.108786
H	-2.8050173036	-2.6760870398	 0.0496957284	 0.130075
H	-3.2169632412	-5.7561812816	-0.1035017585	 0.099032
H	-2.1716380576	-4.2356527937	-2.1640705276	 0.294466
17.4661	22.0688	63.7614	141.2897	173.5813	207.9562	296.5513	304.5505	338.5864	378.8296	383.6533	471.1396	529.0085	648.0146	743.9964	772.3525	807.3231	880.8905	982.6545	1010.4981	1028.7175	1049.5979	1051.9217	1059.9698	1075.5117	1115.913	1134.8756	1159.5227	1172.9651	1237.5651	1296.9564	1347.7125	1366.1652	1408.9495	1415.424	1427.1699	1475.4212	1476.1656	1478.6308	1481.0535	2369.2555	2992.2866	3029.0926	3065.4347	3091.1223	3091.3297	3099.1488	3136.6746	3152.6389	3237.0133	3763.4072
CC#CCOC1CC1O	CC#CCO[C@H]1C[C@H]1O	
InChI=1S/C7H10O2/c1-2-3-4-9-7-5-6(7)8/h6-8H,4-5H2,1H3	InChI=1S/C7H10O2/c1-2-3-4-9-7-5-6(7)8/h6-8H,4-5H2,1H3/t6-,7+/m1/s1
