22
gdb 87455	2.73835	1.3483	1.22348	1.6261	87.4	-0.2329	0.0733	0.3062	1178.1039	0.194117	-367.144954	-367.136131	-367.135187	-367.177895	34.84	
C	-0.0462953284	 1.529743791	-0.1095337607	-0.390392
C	-0.0125232532	 0.0286528288	 0.0469825739	-0.137346
N	 1.3308531955	-0.6210111791	-0.1034831136	-0.43417
C	 0.6392760823	-0.6574134637	 1.1697970287	 0.439249
C	 1.1707994768	-0.2536607636	 2.5547759047	-0.129697
C	-0.1897434039	-0.7675363526	 3.1138711257	-0.253775
C	 0.244449446	-1.8492289151	 2.0701638352	 0.231696
C	-0.4845198282	-3.1045675252	 1.6745639391	-0.519735
C	 1.6857265759	-1.7199857743	 2.6748087875	-0.259171
H	 0.8235320485	 1.9841580584	 0.3717903767	 0.125183
H	-0.0336055791	 1.8130541376	-1.1676325862	 0.118205
H	-0.9518446011	 1.9501509147	 0.3419575948	 0.11281
H	-0.8479677842	-0.4968342217	-0.4169534411	 0.07868
H	 1.2385268059	-1.5079659473	-0.5953821297	 0.223397
H	 1.7000639386	 0.6573965583	 2.8304158948	 0.075984
H	-0.1866217231	-1.0872618819	 4.1598338388	 0.08668
H	-1.0809207758	-0.18166066	 2.8729392557	 0.089489
H	-1.4901125162	-2.8780999865	 1.3027330362	 0.12023
H	 0.0535653012	-3.6425959329	 0.8851241832	 0.115604
H	-0.5885706207	-3.785874232	 2.5256211723	 0.124171
H	 2.518536736	-2.0002940107	 2.0256095962	 0.098665
H	 1.8144103375	-2.1047828124	 3.6909065678	 0.084244
132.3349	149.6807	181.7426	190.0288	215.1294	261.2432	326.318	440.9332	448.4089	484.0438	608.9898	619.0273	649.2388	785.4105	788.3389	822.6405	886.6333	902.3581	905.4111	948.976	997.7091	1013.3953	1021.9517	1031.7911	1053.4965	1067.9721	1078.5037	1099.8748	1125.6043	1177.3402	1182.7427	1195.4254	1215.0943	1223.0344	1231.4528	1250.323	1333.4983	1357.9234	1409.8459	1412.8931	1479.1345	1488.0368	1489.7705	1491.7424	1494.0795	1510.6741	1548.6481	3022.9375	3031.8312	3046.1488	3050.7698	3086.0777	3092.9502	3094.5204	3096.2251	3113.2074	3119.684	3122.633	3126.88	3474.9298
CC1NC11C2CC1(C)C2	C[C@H]1N[C@]21[C@H]1C[C@]2(C)C1	
InChI=1S/C8H13N/c1-5-8(9-5)6-3-7(8,2)4-6/h5-6,9H,3-4H2,1-2H3	InChI=1S/C8H13N/c1-5-8(9-5)6-3-7(8,2)4-6/h5-6,9H,3-4H2,1-2H3/t5-,6-,7+,8-/m1/s1
