19
gdb 10177	3.38465	1.14018	0.90307	4.473	72.92	-0.2693	0.0365	0.3058	1319.2987	0.163689	-365.073139	-365.063366	-365.062422	-365.108289	33.361	
C	-0.041211717	 1.5621236339	 0.0327824567	-0.397354
C	 0.0183405991	 0.0342709138	-0.0155484749	-0.186348
C	 0.7331887084	-0.5184691014	-1.269370976	-0.152096
C	 0.8575050866	-2.0482368181	-1.2269108277	-0.06013
O	 1.6476189398	-2.4580399691	-2.3122863094	-0.22986
C	 1.7503217493	-3.8594066702	-2.425995836	-0.231395
C	 0.0451401483	-0.0976940614	-2.495116029	 0.293495
N	-0.526088777	 0.2494586907	-3.4379353095	-0.334997
H	 0.963696004	 1.9979016649	 0.0299339441	 0.120277
H	-0.5843242589	 1.9645050868	-0.8272259765	 0.147732
H	-0.5489887916	 1.8990359768	 0.940885675	 0.121115
H	 0.5528488305	-0.3469655913	 0.8621700308	 0.107168
H	-0.9949311199	-0.3817500888	 0.02633675	 0.117944
H	 1.7513047135	-0.1109067008	-1.3112043423	 0.133623
H	 1.3187899455	-2.3404842875	-0.268458504	 0.093322
H	-0.1433585717	-2.5086654066	-1.2676153906	 0.102765
H	 2.2202706068	-4.3073616048	-1.5363736856	 0.105803
H	 0.7648189748	-4.3280462533	-2.5697370368	 0.112608
H	 2.3728838694	-4.0683270536	-3.2984563084	 0.13633
68.9329	88.7484	98.0771	142.2895	164.8337	219.0053	239.7314	272.0291	317.4878	368.8285	436.7031	557.9709	619.7567	760.2958	837.272	920.7507	981.5281	1014.766	1037.9756	1099.7265	1131.6155	1142.3171	1170.7219	1185.482	1230.7276	1254.2589	1272.7374	1299.488	1368.5818	1376.9699	1413.5814	1418.8717	1480.6934	1487.0446	1487.4476	1498.7546	1502.1535	1508.0108	1527.4204	2357.5851	2956.5608	2977.2077	2991.756	3023.4491	3033.3582	3039.2677	3041.3855	3073.8383	3109.1431	3119.8651	3124.2687
CCC(COC)C#N	CC[C@@H](COC)C#N	
InChI=1S/C6H11NO/c1-3-6(4-7)5-8-2/h6H,3,5H2,1-2H3	InChI=1S/C6H11NO/c1-3-6(4-7)5-8-2/h6H,3,5H2,1-2H3/t6-/m1/s1
