17
gdb 44468	4.23518	1.37142	1.24752	2.393	72.97	-0.2389	0.011	0.2499	1006.5934	0.138931	-417.940416	-417.933869	-417.932925	-417.971172	27.402	
O	 0.0518540566	-0.0249746743	-0.0283208545	-0.346884
C	-0.0172110971	 1.1767177299	-0.0519664657	 0.392561
C	-1.3402410407	 2.0258720026	-0.0785914073	-0.422412
C	-0.7940400148	 3.4115824728	-0.4051248866	 0.063766
N	-0.725008582	 4.7709459938	 0.3920286576	-0.170185
C	-0.0370701645	 3.9602795991	 1.4920352139	-0.215516
C	 0.5896518845	 3.3738477516	 0.1955991593	 0.319417
C	 0.6932371768	 4.8559259972	-0.2480490034	-0.232976
N	 1.0831176852	 2.0500572964	-0.0235358287	-0.446628
H	-2.0285420047	 1.6228088417	-0.8223809966	 0.136601
H	-1.8139319515	 1.9136521255	 0.9002430226	 0.146112
H	-0.8529101031	 3.616693415	-1.4766020631	 0.088427
H	 0.5982566057	 4.5666812495	 2.1418186287	 0.102488
H	-0.7161446247	 3.3412427659	 2.0799091123	 0.109945
H	 0.6815579918	 5.0770110172	-1.3173961958	 0.116645
H	 1.3599801599	 5.5226417366	 0.3034335976	 0.10904
H	 1.9606248624	 1.6817426393	 0.3141138696	 0.2496
115.2814	320.9104	335.445	434.7833	470.6013	510.9036	520.6562	593.1321	598.7282	666.4869	714.5676	757.3293	793.8116	826.9098	899.6176	912.0245	970.5622	981.6772	1018.9933	1053.5681	1062.8032	1096.355	1139.2334	1159.9211	1170.3095	1188.3023	1194.27	1198.4031	1233.4708	1256.652	1306.9121	1381.8409	1412.8041	1462.6471	1511.9232	1552.4943	1845.0022	3062.6847	3067.8854	3077.7048	3083.393	3131.923	3138.5013	3139.7873	3612.2783
O=C1CC2N3CC2(C3)N1	O=C1C[C@H]2N3C[C@@]2(C3)N1	
InChI=1S/C6H8N2O/c9-5-1-4-6(7-5)2-8(4)3-6/h4H,1-3H2,(H,7,9)	InChI=1S/C6H8N2O/c9-5-1-4-6(7-5)2-8(4)3-6/h4H,1-3H2,(H,7,9)/t4-/m1/s1
