15
gdb 124414	3.26859	1.13644	1.05549	4.9243	71.59	-0.2759	-0.0315	0.2444	1167.7488	0.113069	-416.817279	-416.809198	-416.808254	-416.850874	28.808	
C	 0.0651009405	 1.5756368125	 0.0031665677	-0.393183
C	 0.0423846663	 0.029311197	-0.0004544225	-0.255887
C	 0.6792982157	-0.497575482	-1.217816241	 0.28144
N	 1.1661302095	-0.8997030529	-2.1850064141	-0.3126
C	 0.6761644982	-0.5521134561	 1.232131442	 0.463502
C	 0.2296596015	-1.4107364465	 2.1863323332	-0.353844
C	 1.3330145126	-1.5111275333	 3.0763813363	 0.041579
N	 2.3482999925	-0.7790449147	 2.6926872947	-0.126635
O	 1.9313948217	-0.1646343201	 1.5141510299	-0.209761
H	 1.0928089755	 1.9413732281	 0.0338171455	 0.163579
H	-0.4207206581	 1.9617913108	-0.8953589138	 0.143608
H	-0.4658966735	 1.9465716018	 0.8830818402	 0.137451
H	-0.9983234847	-0.3129498328	-0.0123414292	 0.147666
H	-0.7287398973	-1.8984256145	 2.246077792	 0.130567
H	 1.4197049796	-2.0925923774	 3.9832998392	 0.142519
44.3959	103.4525	179.196	202.342	228.8224	324.6498	389.2749	469.7672	564.3239	647.944	686.6335	747.6195	818.5342	855.8296	919.727	924.3289	944.5922	987.6042	1019.5466	1053.1199	1080.8653	1110.0617	1209.5716	1265.4314	1294.9742	1315.0953	1393.8636	1410.733	1490.7864	1496.047	1513.0117	1636.9268	2363.3586	3058.7502	3059.6361	3139.1974	3151.4072	3247.7875	3282.4525
CC(C#N)C1=CC=NO1	C[C@@H](C#N)c1ccno1	
InChI=1S/C6H6N2O/c1-5(4-7)6-2-3-8-9-6/h2-3,5H,1H3	InChI=1S/C6H6N2O/c1-5(4-7)6-2-3-8-9-6/h2-3,5H,1H3/t5-/m0/s1
