19
gdb 111895	2.7773	1.32957	1.00146	1.9553	77.59	-0.2309	0.0136	0.2445	1226.5818	0.160149	-419.206862	-419.198341	-419.197397	-419.239957	32.735	
C	-0.0487861655	 1.5437238675	 0.0680604263	-0.379035
C	-0.0732003983	 0.017351515	-0.0323661605	-0.168954
C	 0.7382287195	-0.5225594821	-1.2181735652	 0.012519
N	 2.1600182234	-0.138390896	-1.1297894039	-0.304861
C	 2.8893983142	-1.1824624102	-1.2689899473	 0.390653
N	 4.2582412506	-1.1632198644	-1.3705133963	-0.580874
C	 2.1263806165	-2.4743278492	-1.3839930585	-0.088888
O	 1.3320104476	-2.7005036961	-0.2034584651	-0.248889
C	 0.7241777347	-2.0479774496	-1.3256683288	 0.0269
H	 0.9777416803	 1.9052595254	 0.1643232987	 0.136964
H	-0.4833176758	 2.006953591	-0.8252856524	 0.106129
H	-0.6223892661	 1.8884619987	 0.9341066884	 0.104381
H	 0.3283875672	-0.4321552994	 0.8820593847	 0.111179
H	-1.1082489734	-0.3351711157	-0.1310687751	 0.087696
H	 0.3244297605	-0.1028315797	-2.147942296	 0.077355
H	 4.6809726596	-0.2771647646	-1.1308250123	 0.258686
H	 4.749570184	-1.964988306	-1.0056075636	 0.256406
H	 2.5052527063	-3.3576734615	-1.8900652271	 0.104207
H	-0.0879372852	-2.5919972331	-1.800507096	 0.098428
92.804	138.6927	157.6803	227.0367	246.3713	324.9718	375.426	427.819	468.8283	506.0542	588.5481	642.0877	714.0726	755.0048	817.3031	834.562	873.8361	877.1356	912.3379	958.5496	973.393	1019.3819	1061.4751	1089.9754	1116.751	1147.1065	1178.56	1237.4825	1276.912	1280.5921	1302.4514	1335.65	1373.2429	1393.9243	1407.2968	1439.8115	1485.119	1495.0811	1509.4078	1626.4488	1713.3773	2988.5275	3023.6034	3034.0742	3074.2407	3098.5432	3127.1474	3147.7554	3161.149	3563.6128	3676.1901
CCC1N=C(N)C2OC12	CC[C@H]1N=C(N)[C@H]2O[C@@H]12	
InChI=1S/C6H10N2O/c1-2-3-4-5(9-4)6(7)8-3/h3-5H,2H2,1H3,(H2,7,8)	InChI=1S/C6H10N2O/c1-2-3-4-5(9-4)6(7)8-3/h3-5H,2H2,1H3,(H2,7,8)/t3-,4+,5+/m1/s1
