19
gdb 124592	3.77275	1.05046	0.90727	2.4771	78.57	-0.2111	0.03	0.241	1325.6073	0.159835	-419.239918	-419.230995	-419.230051	-419.274006	33.636	
C	-0.0888253264	 1.4781593917	-0.1101550945	-0.379506
C	-0.0573308423	-0.0481936405	 0.0408918652	 0.076299
C	 0.7901440037	-0.4969524354	 1.2307970891	-0.411698
N	-1.4147220673	-0.5866021611	 0.1201732137	 0.033314
C	-2.1430340169	-0.9512843737	 1.2009800797	-0.003627
C	-3.4094410177	-1.2846085569	 0.7619307574	-0.348914
C	-3.3426077064	-1.0725910068	-0.6289036934	 0.440963
O	-4.3478273161	-1.2742566184	-1.507587002	-0.430301
N	-2.1500132956	-0.6482371245	-1.0235586252	-0.378313
H	 0.9208400902	 1.865302997	-0.2794174478	 0.115036
H	-0.7178438568	 1.7587757554	-0.9577110031	 0.141299
H	-0.4918662238	 1.94860957	 0.7929253477	 0.118949
H	 0.3627481588	-0.4781572656	-0.8744381992	 0.106498
H	 0.4413077003	-0.049873942	 2.1675027467	 0.124496
H	 0.7838057157	-1.5849085117	 1.3395917328	 0.130665
H	 1.8233299015	-0.1729983331	 1.080355669	 0.125961
H	-1.7213062492	-0.9592411819	 2.1927016954	 0.129761
H	-4.2441325169	-1.6362415046	 1.3438251378	 0.108206
H	-4.0043242349	-1.051984898	-2.3818668695	 0.300911
35.5397	106.5339	200.2361	243.1916	272.9469	306.1391	325.304	391.6515	410.8847	434.9687	511.0116	630.3898	635.0755	715.7851	723.1935	755.3958	826.7446	884.6045	933.7045	954.8005	999.1605	1031.2338	1072.3514	1112.737	1142.4885	1175.4037	1211.4263	1272.9746	1278.0261	1356.6504	1377.1272	1396.9369	1416.9071	1426.7831	1482.0842	1485.4174	1489.8287	1501.1665	1513.1433	1567.2686	1594.5633	3037.212	3041.8414	3054.553	3106.1719	3114.2159	3123.8059	3132.6152	3265.5743	3285.5792	3796.0021
CC(C)N1C=CC(O)=N1	CC(C)n1ccc(O)n1	
InChI=1S/C6H10N2O/c1-5(2)8-4-3-6(9)7-8/h3-5H,1-2H3,(H,7,9)	InChI=1S/C6H10N2O/c1-5(2)8-4-3-6(9)7-8/h3-5H,1-2H3,(H,7,9)
