13
gdb 123987	3.87336	1.65551	1.16808	2.7906	63.83	-0.2616	-0.0246	0.237	944.2015	0.092324	-452.741092	-452.73495	-452.734006	-452.771886	23.551	
C	 0.0154395796	 1.5257501282	-0.0498263126	-0.283656
N	 1.383950868	 2.0220409692	 0.1112958191	-0.248554
C	 2.3578488147	 1.2405369992	 0.2507092645	 0.122547
O	 2.3820422098	-0.145505378	 0.2839905474	-0.229159
C	 1.1635310295	-0.7146462206	 0.1433456523	 0.450892
N	 0.9995323639	-2.0101774715	 0.1510336872	-0.240225
O	-0.3775097905	-2.1658436779	-0.0185584668	-0.170212
C	-0.9603433699	-0.9562746308	-0.1181761013	-0.027083
C	-0.0332089151	 0.0283583166	-0.0232234959	 0.034937
H	-0.5940851129	 1.9711648914	 0.7461823978	 0.141645
H	-0.3758833779	 1.9332246888	-0.9902395013	 0.141646
H	 3.3729025713	 1.6064716851	 0.37025062	 0.146246
H	-2.0310168906	-0.9659996097	-0.2524570204	 0.160974
101.6247	234.579	346.0185	430.3789	495.4	502.9885	592.3819	632.9465	729.1624	732.1654	837.0434	873.5175	935.1124	945.2623	952.2996	973.101	1021.6389	1085.8168	1141.0982	1215.2853	1253.2785	1286.8109	1340.6313	1401.1844	1471.8797	1488.5751	1545.2677	1675.9177	1754.5035	3024.2356	3044.1947	3197.4763	3263.6976
C1N=COC2=NOC=C12	C1N=COc2nocc12	
InChI=1S/C5H4N2O2/c1-4-2-9-7-5(4)8-3-6-1/h2-3H,1H2	InChI=1S/C5H4N2O2/c1-4-2-9-7-5(4)8-3-6-1/h2-3H,1H2
