23
gdb 122201	3.64572	0.72973	0.69791	2.222	82.61	-0.2443	0.0703	0.3146	1732.0652	0.203851	-425.394147	-425.383647	-425.382703	-425.430802	37.175	
C	 0.0818244907	 1.334447926	 0.2067613075	-0.228776
O	 0.0266484976	-0.0620223577	 0.0476868871	-0.226813
C	 0.6387372639	-0.5043248349	-1.1440477254	-0.060065
C	 0.4994980984	-2.021819222	-1.2131349493	-0.276334
C	 1.2541515207	-2.6773866116	-2.3721386255	 0.290401
C	 0.775383753	-2.2113430162	-3.7476892584	-0.459436
C	 2.8016966264	-2.7170871521	-2.2370490655	-0.107862
O	 2.8207484065	-4.1560867662	-2.2911289924	-0.272663
C	 1.3816769976	-4.2208118267	-2.2668423416	-0.117085
H	 1.1199832849	 1.7018346645	 0.2477013374	 0.102806
H	-0.4337255776	 1.8612782542	-0.6123991705	 0.102387
H	-0.4148142224	 1.5772953204	 1.1493572519	 0.12747
H	 0.165363196	-0.021013417	-2.0146573094	 0.087047
H	 1.7048913296	-0.2131959898	-1.1572990193	 0.0852
H	 0.8639172053	-2.4314151983	-0.2637553814	 0.109761
H	-0.5665663655	-2.2749582854	-1.2739121151	 0.104535
H	 0.9603474123	-1.1432910545	-3.9024407988	 0.11889
H	 1.2969169236	-2.7545704718	-4.5422226979	 0.123854
H	-0.2997813187	-2.3858754586	-3.870222185	 0.116523
H	 3.3736772704	-2.2664788301	-3.0579100646	 0.096557
H	 3.191617225	-2.3385452814	-1.2819311797	 0.093492
H	 1.0060563074	-4.651382774	-1.3284883144	 0.094148
H	 0.9803339049	-4.7975868966	-3.1096524497	 0.095965
48.8334	65.8208	85.9237	127.3046	132.3364	236.6479	252.9099	280.395	313.0544	340.1143	369.6417	438.4535	486.3116	693.9053	800.5147	852.1615	910.9934	933.3924	955.0789	967.7141	997.2432	1017.0225	1038.8678	1043.195	1077.5029	1160.3964	1163.2231	1164.5751	1173.2317	1181.1513	1217.4369	1235.5689	1265.3409	1292.4979	1311.4334	1327.6023	1337.2646	1383.0564	1417.6348	1428.2746	1481.904	1485.8159	1486.2022	1497.4192	1499.5447	1505.1853	1515.4062	1532.8756	1536.994	2938.4396	2966.7238	2977.6205	2992.8105	3003.82	3008.9416	3025.0203	3029.8977	3043.9315	3046.9086	3071.0362	3094.8123	3101.5066	3113.3351
COCCC1(C)COC1	COCCC1(C)COC1	
InChI=1S/C7H14O2/c1-7(3-4-8-2)5-9-6-7/h3-6H2,1-2H3	InChI=1S/C7H14O2/c1-7(3-4-8-2)5-9-6-7/h3-6H2,1-2H3
