16
gdb 11057	3.49014	2.33863	1.99745	1.4659	63.6	-0.2418	0.0042	0.246	732.6151	0.132007	-383.728551	-383.722225	-383.721281	-383.758463	26.108	
O	-0.0610598849	 1.381843793	 0.0109020572	-0.494814
C	 0.0009030852	-0.015703155	-0.0241382563	 0.33712
C	 0.6491911717	-0.7095526264	 1.2236939546	-0.115256
O	 0.1681891067	-2.0514360714	 1.1612513228	-0.274768
C	-0.6883326308	-2.1088976454	-0.0252425969	 0.052214
C	-1.3682309611	-0.7331891256	 0.0138786473	-0.24812
C	 0.2172882777	-1.9625994612	-1.2389888942	-0.073847
C	 0.6364755398	-0.6930401882	-1.2318581551	-0.15047
H	 0.8365719588	 1.7298230148	-0.0097869007	 0.281465
H	 1.7463305684	-0.6934197807	 1.1928486913	 0.087111
H	 0.3060737353	-0.2221008733	 2.1450868938	 0.103012
H	-1.2996319279	-3.0053254008	 0.0532943667	 0.078291
H	-1.9293494113	-0.556710453	 0.9350566829	 0.106169
H	-1.9761896847	-0.5102921154	-0.8631889428	 0.110094
H	 0.5456848259	-2.7717330861	-1.8783365218	 0.104923
H	 1.3790393412	-0.2256462353	-1.8682001289	 0.096876
219.2804	276.8868	325.8669	375.5727	415.9865	490.7611	516.4822	630.8042	668.3508	738.5579	789.6249	807.7585	862.3421	915.8793	934.5498	947.1486	963.3881	984.2951	1032.1332	1060.4768	1089.3127	1093.0531	1168.4728	1194.1304	1229.0051	1262.8577	1278.3301	1291.785	1335.4178	1356.905	1389.3563	1491.1249	1522.2031	1635.9939	3007.5313	3051.6711	3074.6309	3144.0811	3146.3215	3192.7166	3222.9834	3810.3198
OC12COC(C1)C=C2	O[C@@]12CO[C@@H](C1)C=C2	
InChI=1S/C6H8O2/c7-6-2-1-5(3-6)8-4-6/h1-2,5,7H,3-4H2	InChI=1S/C6H8O2/c7-6-2-1-5(3-6)8-4-6/h1-2,5,7H,3-4H2/t5-,6-/m1/s1
