20
gdb 32980	3.23814	1.04995	0.80491	2.9586	83.67	-0.1919	0.0498	0.2417	1441.8973	0.170493	-403.167309	-403.157576	-403.156631	-403.203341	34.041	
C	-0.0076876588	 1.3996616464	-0.0680611593	-0.223412
O	-0.0072985781	-0.0056604077	-0.0175357479	-0.221696
C	 0.6340943608	-0.5902169744	-1.1242344499	-0.176588
C	 0.5794548956	-2.0773250335	-0.9756966494	 0.272655
C	 0.0294750964	-2.8521202394	 0.0198102814	-0.219273
C	 0.2534734709	-4.2131301368	-0.3262656827	-0.165086
C	 0.9321281529	-4.2237020223	-1.5202123506	-0.113403
N	 1.1312756766	-2.9200564601	-1.9167954367	-0.04312
C	 1.8111263032	-2.5100135758	-3.1259271584	-0.339731
H	 1.0151144647	 1.8095886116	-0.0771957402	 0.103483
H	-0.5355805895	 1.7774499465	-0.9584813884	 0.103492
H	-0.523279361	 1.7572968857	 0.8261562241	 0.129794
H	 0.1458321901	-0.2658915045	-2.0642088127	 0.08962
H	 1.6812854634	-0.235052731	-1.1905722284	 0.089638
H	-0.4740578341	-2.4687255089	 0.8921832825	 0.102193
H	-0.0489560126	-5.0828840292	 0.2365038538	 0.089689
H	 1.2943992905	-5.0372043007	-2.1290366796	 0.108514
H	 1.1506784546	-1.9297882201	-3.7804545784	 0.136224
H	 2.6957422663	-1.9025922001	-2.9027557839	 0.136206
H	 2.1353695783	-3.3990465456	-3.6692218154	 0.140802
46.6973	52.2794	80.2905	134.8408	188.7454	231.5642	238.4123	288.3617	358.6294	480.724	614.4447	631.842	656.7302	700.4649	778.7716	790.1733	840.5797	913.3929	997.9401	1029.0276	1048.9919	1070.5186	1111.6201	1149.0472	1166.0722	1184.1192	1184.4205	1230.5235	1255.4619	1258.887	1333.7264	1392.0383	1416.3828	1457.2897	1476.8518	1483.0574	1485.2304	1485.7615	1501.7027	1513.9388	1526.9116	1532.2599	1600.757	2902.8213	2908.4267	2967.5111	3010.1221	3024.2394	3075.0864	3117.6114	3135.7599	3241.7538	3261.7268	3273.435
COCC1=CC=CN1C	COCc1cccn1C	
InChI=1S/C7H11NO/c1-8-5-3-4-7(8)6-9-2/h3-5H,6H2,1-2H3	InChI=1S/C7H11NO/c1-8-5-3-4-7(8)6-9-2/h3-5H,6H2,1-2H3
