21
gdb 58999	3.6177	1.02415	1.00176	1.3565	84.85	-0.2198	0.0222	0.242	1314.5977	0.182696	-387.089821	-387.080947	-387.080003	-387.123535	34.418	
C	-0.0572606858	 1.480975585	 0.120782432	-0.411619
C	 0.0485643056	-0.0458954286	 0.0112917032	 0.019504
O	-1.2521401447	-0.6423715482	-0.0306427681	-0.440577
C	 0.772406046	-0.4865845068	-1.228213057	 0.364342
C	 1.9411689088	-1.1348795002	-1.2734442868	-0.216048
C	 2.333276138	-1.4989697381	-2.6640037722	-0.066541
C	 1.3856586959	-2.4624548681	-3.3563649084	-0.275086
C	 1.2006527599	-0.9789283977	-3.537088306	-0.041204
C	 0.2127502478	-0.2536943072	-2.6237354507	-0.319998
H	 0.9360717293	 1.9390079639	 0.1492698458	 0.122157
H	-0.610101153	 1.8937389704	-0.7279910877	 0.127035
H	-0.5833993928	 1.7641094109	 1.0405907345	 0.102599
H	 0.6049228204	-0.4201435388	 0.885605794	 0.063765
H	-1.7613003574	-0.2853053401	 0.7043821602	 0.279378
H	 2.5245781464	-1.4176385813	-0.4033236807	 0.086201
H	 3.3732636463	-1.4700561265	-2.9703055721	 0.081347
H	 1.7675171164	-3.0156358509	-4.2085686969	 0.105064
H	 0.6829226167	-3.0097063859	-2.7358942494	 0.115076
H	 1.4042252195	-0.5628250407	-4.5166819551	 0.080959
H	-0.8104371087	-0.6360404663	-2.710267151	 0.124898
H	 0.1651990255	 0.8176059954	-2.8622567973	 0.098747
50.0349	112.824	201.1837	242.0934	257.2086	274.6708	331.6867	360.7228	462.8043	515.1505	541.5871	630.7149	696.8881	790.2024	809.1962	841.5365	869.6843	898.853	900.1979	938.2142	987.1852	1002.4217	1020.1678	1049.9097	1069.5368	1079.1029	1094.7565	1105.2422	1117.2199	1172.1742	1182.7773	1209.6107	1240.9209	1289.6042	1326.2624	1356.2763	1362.0612	1380.4144	1398.0047	1419.5261	1472.4991	1484.9036	1490.1731	1499.4521	1704.2147	2967.7349	3012.8627	3026.6526	3064.4234	3094.641	3120.0717	3120.8024	3163.7428	3176.7358	3185.2478	3210.8914	3810.6307
CC(O)C1=CC2CC2C1	C[C@@H](O)C1=C[C@H]2C[C@H]2C1	
InChI=1S/C8H12O/c1-5(9)6-2-7-4-8(7)3-6/h2,5,7-9H,3-4H2,1H3	InChI=1S/C8H12O/c1-5(9)6-2-7-4-8(7)3-6/h2,5,7-9H,3-4H2,1H3/t5-,7+,8-/m1/s1
