19
gdb 5871	4.24712	0.97398	0.95431	5.4386	72.36	-0.2806	0.0405	0.3211	1286.3167	0.162942	-365.09112	-365.081461	-365.080517	-365.125473	35.017	
C	-0.0398055424	 1.5814434622	 0.1693169277	-0.419809
C	 0.0228479293	 0.0529747483	 0.0256004653	 0.334899
C	 0.7195097203	-0.5695522263	 1.2438317497	-0.417822
O	-1.3006342386	-0.4815381804	-0.1030661956	-0.459933
C	 0.7526921941	-0.3846195813	-1.2574725464	-0.178092
C	 0.0345598019	 0.0470465447	-2.5519850341	-0.354684
C	 0.6923769799	-0.4790860591	-3.7448514825	 0.25729
N	 1.2261925731	-0.9004003258	-4.6793803515	-0.310268
H	 0.962094696	 2.0219871734	 0.1910226432	 0.121516
H	-0.6031665316	 2.0365234738	-0.6493402075	 0.124765
H	-0.5394957621	 1.8533244581	 1.1061993878	 0.109714
H	 0.1994577346	-0.2905012369	 2.1675053124	 0.106322
H	 0.7172514464	-1.6602410943	 1.1669427768	 0.127434
H	 1.7557976757	-0.22739623	 1.3309797747	 0.119481
H	-1.8028658747	-0.2277929807	 0.6782629914	 0.280077
H	 1.772957954	 0.0111406253	-1.2482020292	 0.115302
H	 0.8302679417	-1.4762434714	-1.2519740005	 0.12499
H	-0.9999910477	-0.3070117861	-2.5251988748	 0.172475
H	-0.0022797398	 1.1380899267	-2.6375639267	 0.146344
58.4009	101.2683	128.2529	223.8669	238.9835	260.5177	280.6265	338.0484	339.0052	391.3656	408.8993	450.8971	513.9081	550.9379	760.1173	779.6479	914.5658	926.6246	943.0879	951.5698	995.2003	1035.6933	1046.5134	1148.6737	1170.0568	1194.3219	1247.6391	1296.3636	1331.6344	1365.3635	1394.2484	1398.946	1418.8959	1467.4051	1479.8242	1484.1809	1488.9914	1501.0626	1510.6387	2361.2921	3028.2538	3033.8096	3052.0571	3061.0573	3091.9703	3093.3938	3100.1424	3112.2071	3118.9814	3120.6689	3813.1119
CC(C)(O)CCC#N	CC(C)(O)CCC#N	
InChI=1S/C6H11NO/c1-6(2,8)4-3-5-7/h8H,3-4H2,1-2H3	InChI=1S/C6H11NO/c1-6(2,8)4-3-5-7/h8H,3-4H2,1-2H3
