16
gdb 123852	3.47187	1.54669	1.11524	3.6697	69.32	-0.2467	-0.0414	0.2053	1032.5032	0.127928	-434.033604	-434.026876	-434.025932	-434.064852	26.429	
C	-0.0042229684	 1.4535129283	 0.0548610225	-0.174485
C	 1.4350715049	 2.0258008615	-0.0266414003	-0.333847
C	 2.1585501495	 1.3273368039	-1.1337674091	 0.301067
N	 3.2823660089	 1.6650421996	-1.7020500936	-0.175501
O	 3.524793739	 0.6946323425	-2.639926499	-0.155583
N	 2.532774965	-0.2562786201	-2.6477414887	-0.174507
C	 1.6894118612	 0.1188674661	-1.7292044834	 0.280689
C	 0.4000014116	-0.5355430141	-1.31312321	-0.290902
N	-0.0823806048	-0.0061538699	-0.0337046357	-0.281488
H	-0.4765217884	 1.7728913065	 0.9881620028	 0.116285
H	-0.6062159392	 1.8657425444	-0.7644845609	 0.120458
H	 1.4242330626	 3.1092040588	-0.1819833306	 0.134525
H	 1.957580666	 1.8485171331	 0.922020467	 0.129156
H	-0.3644127562	-0.3517921557	-2.0796443544	 0.140029
H	 0.5143461423	-1.6200522565	-1.2381909356	 0.140016
H	 0.442562266	-0.4246068385	 0.728037959	 0.224088
103.154	216.0416	319.8937	326.4101	387.6865	453.5196	523.5456	633.7311	677.7752	693.4158	726.9532	781.1527	860.8093	880.9198	923.0224	946.0536	968.5866	982.3195	1050.731	1109.4702	1133.6533	1189.5066	1230.9355	1239.0997	1316.8082	1343.4909	1357.8166	1384.6052	1427.7809	1471.2249	1472.2975	1488.1734	1496.7633	1527.076	1628.4184	3024.9048	3029.3952	3036.8793	3083.7462	3093.244	3097.9847	3514.795
C1CC2=NON=C2CN1	C1Cc2nonc2CN1	
InChI=1S/C5H7N3O/c1-2-6-3-5-4(1)7-9-8-5/h6H,1-3H2	InChI=1S/C5H7N3O/c1-2-6-3-5-4(1)7-9-8-5/h6H,1-3H2
