22
gdb 57300	2.78236	1.11141	1.03218	2.5092	83.25	-0.2517	-0.0228	0.229	1314.509	0.192232	-404.35172	-404.341401	-404.340457	-404.387002	38.119	
C	-0.0588376055	 1.5540329466	-0.0534557872	-0.399635
C	-0.0261132566	 0.0238448588	 0.065766256	 0.141144
C	 0.9592694086	-0.3904526604	 1.1837273227	-0.415971
C	-1.437936754	-0.5111950614	 0.3880082851	-0.414739
C	 0.465421859	-0.5810682681	-1.2575211514	 0.381505
O	 0.8840114778	 0.1072626818	-2.1679775479	-0.350908
C	 0.4302302461	-2.0741143626	-1.4238584845	-0.09707
C	-0.1881259647	-2.577231055	-2.6947628765	-0.22276
N	 1.2528383254	-2.6437316688	-2.5010602149	-0.307444
H	 0.9290724392	 1.9522453115	-0.2953969139	 0.127082
H	-0.7421946273	 1.8738550432	-0.8447503504	 0.119951
H	-0.3927007414	 1.9959549863	 0.8908441408	 0.103926
H	 0.6411705838	 0.0502709029	 2.1343203784	 0.12137
H	 1.0024677514	-1.4749524375	 1.3193713356	 0.121256
H	 1.9717429119	-0.0339390594	 0.9699924076	 0.128621
H	-2.154456697	-0.2351482298	-0.3922240815	 0.122921
H	-1.4563887881	-1.5994040605	 0.4949267944	 0.119324
H	-1.7888592903	-0.0805833266	 1.3315368267	 0.120195
H	 0.3508475828	-2.6863605322	-0.532752761	 0.099589
H	-0.7099924043	-3.5298568291	-2.6810015379	 0.124456
H	-0.5872378152	-1.828654988	-3.3736638774	 0.129834
H	 1.6755230483	-1.8504084613	-2.9862028931	 0.247351
52.5692	70.4562	184.6357	189.3334	217.6117	243.6619	260.1719	288.8074	310.2254	327.9652	359.8819	380.1182	463.7207	579.9121	755.683	767.7478	823.7469	855.3754	887.7752	937.9254	944.1852	963.5001	967.9447	1006.7235	1018.9346	1043.6965	1083.8701	1123.5681	1138.2076	1181.8249	1222.203	1242.2665	1279.3779	1296.0599	1324.843	1396.9894	1398.0128	1401.2138	1431.9577	1476.2675	1481.3533	1484.9158	1498.1375	1498.8707	1504.5806	1517.3051	1769.0721	3033.3305	3035.361	3044.5202	3102.1509	3103.9254	3109.6537	3111.1127	3112.3173	3114.1441	3127.9096	3172.5719	3204.7666	3455.0658
CC(C)(C)C(=O)C1CN1	CC(C)(C)C(=O)[C@H]1CN1	
InChI=1S/C7H13NO/c1-7(2,3)6(9)5-4-8-5/h5,8H,4H2,1-3H3	InChI=1S/C7H13NO/c1-7(2,3)6(9)5-4-8-5/h5,8H,4H2,1-3H3/t5-/m1/s1
