14
gdb 12180	4.10444	1.40645	1.10739	3.3308	61.91	-0.2544	-0.0409	0.2135	1006.5062	0.10566	-415.845364	-415.837237	-415.836293	-415.878576	28.247	
O	 0.1010581239	 0.9501408651	 0.5713127348	-0.414519
C	 0.0411860217	-0.313154352	 0.002597789	 0.066411
C	-1.3578965785	-0.8727881133	-0.5169052964	-0.089434
N	-0.6405902305	-1.2406921319	-1.7523182845	-0.344947
C	 0.4759422316	-0.4616926789	-1.4561781927	 0.325574
N	 1.4361663227	 0.0765958858	-2.0728880027	-0.539539
C	-1.9421664912	-2.0372335108	 0.2409968262	 0.151839
O	-2.9516888754	-1.9847732416	 0.8935056994	-0.238906
H	 0.3321237579	 1.5750009776	-0.1263143855	 0.302018
H	 0.5241414263	-1.0338819517	 0.6710891145	 0.122703
H	-2.0887756762	-0.0648993315	-0.6186421045	 0.10795
H	-1.0635005411	-1.3348813558	-2.6660638365	 0.248809
H	 1.4151974759	-0.109164184	-3.0767213198	 0.220616
H	-1.3345600473	-2.968413127	 0.1605960786	 0.081424
79.6662	84.9922	109.3701	226.2638	261.8921	296.3028	388.3577	461.0448	503.3885	519.6391	698.3945	766.9738	841.1323	872.4612	893.3005	1014.5652	1039.074	1055.4597	1114.891	1145.4722	1160.3067	1234.2444	1275.1962	1322.4036	1342.6271	1350.775	1411.4053	1420.7371	1805.6289	1833.7479	2870.1441	3057.3558	3075.3039	3468.7741	3583.2053	3794.8423
OC1C(NC1=N)C=O	O[C@H]1[C@@H](N[C]1[NH])C=O	
InChI=1S/C4H6N2O2/c5-4-3(8)2(1-7)6-4/h1-3,8H,(H2,5,6)	InChI=1S/C4H6N2O2/c5-4-3(8)2(1-7)6-4/h1-3,8H,(H2,5,6)/t2-,3-/m0/s1
