20
gdb 86089	2.59836	1.47609	1.07498	1.2464	81.59	-0.2214	0.0306	0.252	1192.0506	0.170347	-403.171598	-403.162663	-403.161719	-403.205472	33.799	
C	-0.2578476906	 1.5478872668	 0.0748772136	-0.397224
C	 0.0741060347	 0.0677457455	-0.0336776058	 0.027252
O	 1.0727634795	-0.1206015627	-1.0717416484	-0.271537
C	 2.1277651519	-0.7563259507	-0.4862294023	 0.388015
C	 3.2768927162	-1.0367428907	-1.3913692497	-0.477497
N	 2.0460250296	-1.0481004119	 0.7493553579	-0.343748
C	 0.7502178495	-0.583175914	 1.1903281478	 0.336163
C	 0.6159965833	-0.0844511607	 2.6059772044	-0.318777
C	 0.0038046233	-1.405866488	 2.2051315208	-0.312105
H	 0.6126371241	 2.1172151656	 0.4131008151	 0.127938
H	-0.5771236637	 1.9364374677	-0.8961688826	 0.126398
H	-1.0732191391	 1.7060167628	 0.7877091452	 0.11965
H	-0.8149537787	-0.4941627145	-0.3443886478	 0.090054
H	 2.9585993747	-1.6730329359	-2.2234493544	 0.143497
H	 3.6574349833	-0.1053910453	-1.8227631268	 0.142802
H	 4.0702369596	-1.5337008803	-0.8340606329	 0.150424
H	 1.5152445646	-0.1036687108	 3.2105947612	 0.125664
H	-0.0465639195	 0.7513754526	 2.802621571	 0.111124
H	-1.0770617212	-1.4612430934	 2.1132041943	 0.108139
H	 0.4816074087	-2.3167368124	 2.5466676793	 0.12377
44.6908	135.0528	162.5238	227.9686	249.7628	257.1537	298.398	391.3893	438.241	507.1271	525.0955	641.6444	661.7721	758.8733	780.9404	870.5952	903.5562	918.9288	946.0091	961.4175	977.2046	1051.0257	1055.6831	1066.2822	1069.7284	1076.8185	1096.8194	1137.1201	1193.4594	1234.5064	1270.0965	1337.081	1367.0602	1384.5978	1407.7495	1415.6729	1455.3139	1474.3285	1477.3943	1487.3948	1488.8392	1500.0705	1735.4603	3028.0666	3041.585	3048.4282	3104.421	3113.6767	3123.6946	3125.1229	3137.453	3164.4288	3215.3205	3230.7072
CC1OC(C)=NC11CC1	C[C@H]1OC(=NC21CC2)C	
InChI=1S/C7H11NO/c1-5-7(3-4-7)8-6(2)9-5/h5H,3-4H2,1-2H3	InChI=1S/C7H11NO/c1-5-7(3-4-7)8-6(2)9-5/h5H,3-4H2,1-2H3/t5-/m1/s1
