20
gdb 65807	3.42405	0.81627	0.7558	3.8265	79.33	-0.2576	0.0318	0.2895	1535.1254	0.170078	-403.146222	-403.136608	-403.135664	-403.181806	34.319	
C	 0.0131238538	 1.6507252536	 0.0978881689	-0.473553
C	 0.0198630905	 0.1268882974	 0.0167670752	 0.285794
C	-1.3863494248	-0.4857550585	-0.007492628	-0.248541
C	-2.2424981627	-0.0404391958	-1.2124728645	-0.357547
C	-3.5391601289	-0.7127259026	-1.2456642301	 0.262864
N	-4.5610491958	-1.2521309766	-1.255210035	-0.302156
C	 0.9904004338	-0.4947734967	-1.0261341635	-0.110154
O	 1.6861062174	-1.2386053944	-0.009707768	-0.268442
C	 0.9412993213	-0.5919278423	 1.0394018386	-0.119643
H	 1.0315728696	 2.0389149167	 0.194499589	 0.12664
H	-0.4238993353	 2.1077735313	-0.7964205874	 0.121517
H	-0.5614444601	 1.9978435138	 0.9643392482	 0.123201
H	-1.3006047159	-1.5775694672	-0.0237884702	 0.130591
H	-1.9139520469	-0.2260402484	 0.9178942741	 0.120593
H	-2.4192072407	 1.0398652254	-1.1878718541	 0.155792
H	-1.7199541779	-0.2535546313	-2.1527140591	 0.15379
H	 0.5463233971	-1.1539644511	-1.7834089657	 0.099333
H	 1.6462553178	 0.229006102	-1.5287516398	 0.098656
H	 1.5712920455	 0.0797111346	 1.637953877	 0.097417
H	 0.4561851822	-1.3144678499	 1.7073088645	 0.103847
44.1299	69.9245	112.4741	127.6849	214.6566	232.1015	319.5566	336.7473	379.4718	402.4748	449.1288	531.1968	683.4322	769.2648	852.3267	894.4808	926.5312	942.1722	966.5712	976.1575	1007.9331	1024.5192	1044.3227	1049.0354	1159.024	1162.0049	1166.3227	1181.5291	1259.2662	1289.2164	1300.6598	1314.5519	1336.3146	1384.8435	1388.3161	1419.1346	1467.8775	1489.5491	1494.369	1500.1147	1515.2206	1537.1255	2363.1715	2995.9444	3007.4043	3027.9362	3035.1577	3041.5216	3046.0017	3051.843	3072.8098	3093.056	3095.8354	3103.2138
CC1(CCC#N)COC1	CC1(CCC#N)COC1	
InChI=1S/C7H11NO/c1-7(3-2-4-8)5-9-6-7/h2-3,5-6H2,1H3	InChI=1S/C7H11NO/c1-7(3-2-4-8)5-9-6-7/h2-3,5-6H2,1H3
