22
gdb 107037	3.87144	1.09865	0.97854	1.576	87.65	-0.2259	0.0176	0.2435	1323.4473	0.194531	-367.205382	-367.196295	-367.195351	-367.23895	35.187	
C	-0.4189573485	 1.4702718298	-0.0804031536	-0.37518
C	 0.1424608645	 0.0537735174	 0.1078005277	-0.296534
C	 0.8944912757	-0.4562419313	-1.098776334	 0.328658
N	 0.1373493851	-0.8895926201	-2.3161745584	-0.369598
C	 0.9313299443	-1.8753466795	-1.5437097245	-0.126007
C	 2.3054931824	-2.1798581365	-2.1462568522	-0.033073
C	 2.2513735831	-2.756515151	-3.5687511908	-0.391439
C	 2.9936234675	-0.8270451206	-2.0593452012	-0.078541
C	 2.2341471214	 0.1032258586	-1.4799673927	-0.122561
H	 0.38078814	 2.1958660992	-0.2600814201	 0.1218
H	-1.1001614945	 1.5128996761	-0.9362420147	 0.122729
H	-0.96896272	 1.7951513011	 0.8079360058	 0.11219
H	 0.8082955618	 0.0347127457	 0.9800446502	 0.104181
H	-0.6788162579	-0.6389532179	 0.3329175695	 0.091445
H	-0.8421259021	-1.0099855494	-2.0570378958	 0.21854
H	 0.3987254266	-2.6531793105	-1.004916985	 0.079024
H	 2.8277099962	-2.9005994749	-1.4994276002	 0.07563
H	 1.6711356786	-2.0955449609	-4.2171606729	 0.140631
H	 3.2568050898	-2.8646061685	-3.9887996324	 0.106976
H	 1.7805771259	-3.7453025674	-3.572800515	 0.107451
H	 3.9837342788	-0.6617397867	-2.4717088649	 0.090879
H	 2.5129502214	 1.1381241074	-1.3180920449	 0.092799
78.0146	119.1341	184.6008	203.5927	224.5677	245.4852	324.5505	363.924	409.6049	497.2859	568.1321	638.7103	698.6351	756.662	778.379	803.7627	830.1985	874.2452	923.0833	932.108	946.2314	966.8038	1000.1782	1024.1073	1057.0498	1089.4094	1095.8706	1116.7909	1117.3718	1141.0853	1165.6774	1256.6179	1281.6296	1304.8891	1321.0054	1335.6798	1371.5954	1388.9439	1398.1712	1411.3293	1435.5904	1478.2085	1493.5591	1498.63	1504.6545	1506.3648	1670.8122	2991.36	3016.0911	3034.6005	3037.0267	3050.6925	3096.4177	3106.1785	3108.8308	3126.9004	3151.6951	3177.7389	3205.2125	3453.6598
CCC12NC1C(C)C=C2	CC[C@]12N[C@H]1[C@@H](C)C=C2	
InChI=1S/C8H13N/c1-3-8-5-4-6(2)7(8)9-8/h4-7,9H,3H2,1-2H3	InChI=1S/C8H13N/c1-3-8-5-4-6(2)7(8)9-8/h4-7,9H,3H2,1-2H3/t6-,7-,8+/m0/s1
