17
gdb 91482	2.63254	1.65476	1.2377	2.1567	72.46	-0.2507	0.0131	0.2639	1013.8781	0.138372	-417.982367	-417.974922	-417.973978	-418.01415	29.362	
O	 0.0757686679	 1.3729769253	 0.0654623875	-0.432979
C	-0.0015931534	-0.032277853	 0.0310985828	 0.080306
C	 0.4167768451	-0.6260872107	 1.413485566	-0.197965
N	-0.813031927	-1.33314873	 1.8718430339	-0.132072
C	-1.2055392774	-2.0243866021	 0.5829733456	-0.221838
C	-1.4536787247	-0.5907640315	 0.0318332937	 0.184312
C	-1.8608501196	-0.305071973	 1.5076552444	-0.213333
C	-2.2711711386	-0.2764963286	-1.1159385861	 0.127519
N	-2.9163112548	-0.0067482361	-2.0377565845	-0.337011
H	-0.1834906416	 1.7166281843	-0.7968058937	 0.297959
H	 0.5752160331	-0.4419536567	-0.8080809674	 0.087154
H	 1.2476371916	-1.3307192812	 1.3439645541	 0.116174
H	 0.680199842	 0.1759244452	 2.1056411385	 0.132044
H	-0.4244636874	-2.6320187041	 0.1182177408	 0.117211
H	-2.1198063948	-2.6050166183	 0.7145635803	 0.13155
H	-2.8585624944	-0.6659152366	 1.7604949368	 0.126754
H	-1.6899737959	 0.7017892073	 1.8906166072	 0.134216
122.7675	150.2588	211.7769	337.699	359.3722	463.91	477.0746	499.9277	528.3371	548.7182	606.4564	694.7924	836.8606	854.3307	867.5169	891.9609	971.1402	982.0166	1003.7404	1014.1957	1054.3662	1082.6178	1152.8071	1161.4843	1203.366	1225.4473	1231.0531	1238.4883	1259.0687	1274.2422	1314.2046	1346.2614	1423.2335	1492.7478	1496.4982	1530.6668	2344.8325	3020.1794	3065.4917	3079.3259	3085.6817	3135.179	3138.2511	3155.4357	3804.3171
OC1CN2CC1(C2)C#N	O[C@H]1CN2C[C@]1(C2)C#N	
InChI=1S/C6H8N2O/c7-2-6-3-8(4-6)1-5(6)9/h5,9H,1,3-4H2	InChI=1S/C6H8N2O/c7-2-6-3-8(4-6)1-5(6)9/h5,9H,1,3-4H2/t5-/m0/s1
