18
gdb 70079	2.65262	1.82586	1.37155	3.2036	76.56	-0.2395	-0.0053	0.2342	985.4994	0.148923	-401.913047	-401.905677	-401.904733	-401.94442	29.866	
C	-0.0430563399	 1.4939013253	 0.0044156992	-0.498149
C	 0.0083956973	-0.018751013	 0.008359744	 0.303163
N	-0.3198773887	-0.7530846461	 1.2354700957	-0.347938
C	 1.0952149898	-0.7197093273	 0.7686525995	-0.144503
C	 1.6811805495	-1.9624592768	 0.22288222	-0.032017
C	 1.2671691675	-2.5143168022	-0.9232404876	-0.087707
C	 0.1876625601	-1.9181966511	-1.7411839054	-0.009482
O	-1.1493197281	-1.9026424734	-1.1975650001	-0.235943
C	-0.4566395002	-0.6698941129	-1.2752822786	 0.000033
H	 0.5039969917	 1.9083113026	-0.8498283788	 0.128848
H	-1.0781385849	 1.8494229725	-0.0606989119	 0.130636
H	 0.4012885988	 1.9055580582	 0.9159023154	 0.116143
H	-0.4259384298	-0.0885441882	 2.0002575321	 0.226766
H	 1.7765628237	-0.0968764123	 1.3445977699	 0.08291
H	 2.4971534568	-2.4148445647	 0.7799604566	 0.097795
H	 1.7414478718	-3.4150752457	-1.3012178492	 0.09617
H	 0.2140143842	-2.1302061765	-2.8091836623	 0.090233
H	-0.8421218595	 0.0220081316	-2.0251576487	 0.083042
146.4936	214.0168	241.2022	291.0251	321.591	417.6452	482.5428	528.2329	539.3586	589.9505	699.6496	751.8789	811.552	834.3769	842.8998	890.1769	917.3191	940.8817	975.5834	983.72	995.0213	1052.91	1071.3808	1096.7361	1130.3132	1133.3905	1178.3782	1215.2267	1272.5837	1281.9352	1333.2079	1389.5795	1415.0463	1424.596	1431.0661	1473.3203	1487.0905	1501.0069	1696.8098	3024.535	3087.2875	3096.7193	3103.0709	3118.4736	3123.5099	3158.0158	3181.0226	3477.1392
CC12NC1C=CC1OC21	C[C@]12N[C@H]1C=C[C@H]1O[C@@H]21	
InChI=1S/C7H9NO/c1-7-5(8-7)3-2-4-6(7)9-4/h2-6,8H,1H3	InChI=1S/C7H9NO/c1-7-5(8-7)3-2-4-6(7)9-4/h2-6,8H,1H3/t4-,5+,6-,7+/m1/s1
