23
gdb 84087	2.24621	1.4276	1.08356	2.0561	87.4	-0.241	0.0165	0.2575	1252.5066	0.204896	-388.315283	-388.305196	-388.304252	-388.349597	38.445	
C	-0.9464601174	 1.0035988929	-0.1072867466	-0.401096
C	 0.0429097937	-0.1543146826	-0.0045319137	-0.015912
C	 1.06822061	-0.2316421083	-1.1729285137	 0.091831
O	 1.4594494822	 1.0374690296	-1.7112140113	-0.434586
C	 2.2260250657	-0.9569835643	-0.538914149	-0.231375
C	 2.1621680491	-0.9500796881	 0.7969255414	 0.338358
C	 3.1670044629	-1.5298019721	 1.7437744123	-0.496358
C	 0.9068610872	-0.2447350658	 1.2914314831	-0.095314
C	 1.2270853004	 1.0987316448	 1.9721710862	-0.394765
H	-0.4369230314	 1.9688341533	-0.1499785629	 0.120408
H	-1.543881402	 0.91532283	-1.0205639339	 0.113304
H	-1.6371110076	 1.0122242824	 0.7427502128	 0.103847
H	-0.5225257467	-1.0934946879	-0.0537414808	 0.074887
H	 0.6385232206	-0.7614910291	-2.030185092	 0.077609
H	 2.1151434849	 1.4098159196	-1.1122152627	 0.273908
H	 3.0425807882	-1.370328793	-1.1223716583	 0.086626
H	 4.0013363854	-1.9942692909	 1.211427742	 0.125022
H	 3.5770047899	-0.7646760505	 2.4143850108	 0.12859
H	 2.7062979199	-2.2903049497	 2.3871579356	 0.127275
H	 0.3927968884	-0.8685096855	 2.0357221085	 0.068786
H	 1.7385774645	 1.7850752358	 1.2887717459	 0.105272
H	 0.3146423135	 1.5921508256	 2.3192057007	 0.12089
H	 1.8751267184	 0.9542646538	 2.8424744757	 0.112796
79.9941	131.9084	176.8416	222.8867	228.7403	240.808	249.2083	275.0031	307.2937	315.5297	439.341	457.9351	495.1299	586.2046	633.4339	715.5714	764.8166	817.3566	855.1226	884.4751	975.3801	988.8288	1005.1466	1031.0967	1039.6095	1046.5011	1074.0908	1104.2956	1150.8757	1163.7929	1197.6722	1236.74	1270.7085	1301.3928	1325.3618	1346.4381	1356.3359	1364.3274	1404.8403	1412.0621	1414.1358	1426.9164	1478.4458	1486.5806	1487.7597	1491.767	1504.6912	1505.9519	1707.1096	3000.0729	3019.8133	3021.9546	3033.5885	3037.7868	3050.3492	3067.0309	3096.6633	3099.5605	3109.324	3111.6941	3124.4094	3181.4604	3808.9925
CC1C(O)C=C(C)C1C	C[C@H]1[C@@H](O)C=C(C)[C@H]1C	
InChI=1S/C8H14O/c1-5-4-8(9)7(3)6(5)2/h4,6-9H,1-3H3	InChI=1S/C8H14O/c1-5-4-8(9)7(3)6(5)2/h4,6-9H,1-3H3/t6-,7-,8+/m1/s1
