23
gdb 112724	2.09635	1.27318	1.08367	2.7525	81.37	-0.2439	0.0671	0.311	1296.1082	0.203592	-425.417847	-425.407403	-425.406459	-425.453333	39.022	
C	 0.4617287025	 1.3457914923	-0.3622173047	-0.409742
C	 0.1187298532	-0.0651650932	 0.0772848035	 0.133882
O	 0.7956123128	-1.0688431323	-0.7222600817	-0.331696
C	 1.451846516	-1.6391031407	 0.4384240403	 0.095598
C	 2.9597882684	-1.5801946169	 0.2446798784	-0.078123
O	 3.3123888499	-2.2740665601	-0.9380197305	-0.423642
C	 0.7144082763	-0.6573545865	 1.3967016825	 0.219761
C	 1.564684266	 0.2646297151	 2.2696552416	-0.456497
C	-0.3444915012	-1.3605873253	 2.2483414762	-0.446625
H	 1.5380879214	 1.5333468177	-0.3284757446	 0.119339
H	 0.1249212653	 1.5002530617	-1.3923202257	 0.127422
H	-0.0428612382	 2.0830356307	 0.2718672857	 0.116613
H	-0.9691945207	-0.2081634389	 0.0135976983	 0.072178
H	 1.1572006587	-2.6897636421	 0.5652105378	 0.076113
H	 3.3028773902	-0.5352879714	 0.2058641154	 0.080213
H	 3.4766309636	-2.073992512	 1.0752973266	 0.104661
H	 2.7390467446	-1.9165613885	-1.6279002262	 0.29214
H	 2.3279198731	 0.8071754397	 1.7081122564	 0.120739
H	 0.932406688	 1.0064294226	 2.7700950096	 0.116309
H	 2.0732489598	-0.3080681026	 3.0531242034	 0.118767
H	 0.1212584096	-1.9622673658	 3.0370288693	 0.11571
H	-1.0047705991	-0.6314597065	 2.7319500155	 0.113512
H	-0.9651459504	-2.0263611471	 1.6402292929	 0.123367
34.633	105.5016	165.9905	208.7076	212.2646	223.343	260.6942	289.1766	315.0575	334.1485	392.5162	452.3401	472.8667	485.5329	538.3639	642.8773	772.961	836.1927	892.929	929.8734	953.5377	983.7178	1001.6517	1031.4224	1045.558	1077.5683	1091.4513	1116.7261	1133.1718	1205.2696	1217.585	1219.0983	1269.3303	1278.0098	1331.1228	1348.4039	1381.1299	1399.1583	1404.8685	1412.6741	1428.0551	1437.5721	1478.6687	1482.2201	1489.6716	1495.6429	1500.0067	1506.8305	1514.0727	2987.1106	2997.2507	3012.7097	3024.0052	3033.0217	3037.5155	3068.6848	3087.9797	3093.1233	3101.0629	3104.8425	3115.6503	3125.031	3778.4359
CC1OC(CO)C1(C)C	C[C@H]1O[C@@H](CO)C1(C)C	
InChI=1S/C7H14O2/c1-5-7(2,3)6(4-8)9-5/h5-6,8H,4H2,1-3H3	InChI=1S/C7H14O2/c1-5-7(2,3)6(4-8)9-5/h5-6,8H,4H2,1-3H3/t5-,6+/m1/s1
