14
gdb 130041	3.34638	1.82745	1.1914	2.3698	68.61	-0.2467	-0.0212	0.2255	948.5515	0.10533	-429.085803	-429.079159	-429.078215	-429.116706	25.686	
N	 0.0709911837	 1.3406183191	 0.1233114638	-0.584579
C	-0.0225962285	-0.0099761663	 0.0377660957	 0.467384
N	-1.074979453	-0.7444891661	 0.0112105498	-0.331715
C	-0.6393163002	-2.1567315872	-0.0113415994	-0.29219
C	 0.8621712878	-2.0854965258	-0.0116618054	 0.369036
N	 1.9679397877	-2.8007560124	-0.0406943547	-0.370886
C	 2.9329337479	-1.8240942016	-0.0241866459	 0.027354
N	 2.4999501049	-0.5657314222	 0.0132089273	-0.284479
N	 1.1642950095	-0.7718384519	 0.0231180207	 0.00386
H	 0.9438606929	 1.7571509189	-0.1601746928	 0.282925
H	-0.7684387415	 1.8565268359	-0.0856836351	 0.27708
H	-1.0305281304	-2.6918705705	 0.8613261196	 0.151946
H	-1.0321867469	-2.6624628978	-0.9003031897	 0.15111
H	 3.989083666	-2.050625982	-0.0394431839	 0.133154
163.74	227.0867	265.3906	290.3957	403.5983	459.5011	535.0849	649.3679	658.092	670.9162	673.2123	734.2691	808.6493	907.4215	960.8139	977.4038	985.1738	1135.9306	1152.3582	1173.8613	1179.6197	1255.6222	1278.2145	1303.6426	1393.4274	1440.0408	1462.4877	1466.331	1572.7095	1615.5359	1740.4255	3047.8513	3077.4834	3257.7014	3595.6607	3715.6188
NC1=NCC2=NC=NN12	NC1=NCc2ncnn12	
InChI=1S/C4H5N5/c5-4-6-1-3-7-2-8-9(3)4/h2H,1H2,(H2,5,6)	InChI=1S/C4H5N5/c5-4-6-1-3-7-2-8-9(3)4/h2H,1H2,(H2,5,6)
