19
gdb 90614	3.32752	1.44426	1.29642	3.0146	74.25	-0.2421	0.0682	0.3103	1046.5302	0.159027	-422.971584	-422.963757	-422.962812	-423.00346	31.595	
C	-0.1456411443	 1.4924650643	 0.0598454486	-0.505072
C	 0.1408469572	 0.0288790678	-0.006647595	 0.405862
O	-0.7808881994	-0.8598144731	 0.6585775877	-0.300061
C	 0.6227459231	-0.9577094944	 0.9833965643	-0.055297
C	 1.3082823956	-1.8040557727	-0.1095376728	-0.096026
C	 0.4347586425	-2.9182447876	-0.7868208956	 0.148724
O	-0.5048961099	-3.5960754685	-0.0030771352	-0.438534
C	-0.0777111695	-1.868895111	-1.8365469611	-0.284476
C	 0.7954282613	-0.772403386	-1.1692423657	-0.104572
H	 0.7434415444	 2.0722532608	-0.2078613092	 0.127795
H	-0.945875356	 1.7629066606	-0.6386817239	 0.133635
H	-0.4612932128	 1.7760125414	 1.067502202	 0.135943
H	 0.8755752733	-0.8596232626	 2.0337849983	 0.105161
H	 2.3695691597	-1.994533114	 0.0504252928	 0.070009
H	 1.059149111	-3.6873452443	-1.2500971058	 0.08629
H	-1.0731182389	-2.9131599925	 0.3763380508	 0.293986
H	 0.2109887344	-2.0987241326	-2.8649820148	 0.099011
H	-1.1554709171	-1.6956194856	-1.8003447577	 0.104896
H	 1.4897589355	-0.20181735	-1.7853478478	 0.072727
133.3889	188.627	198.3945	253.836	294.3932	399.9407	424.894	484.3847	559.4306	605.3227	645.7417	696.4083	759.8405	777.9333	821.7555	845.6374	888.302	906.582	950.4365	981.9617	999.915	1017.9574	1050.2184	1074.1446	1108.226	1118.7705	1156.557	1178.2477	1209.0718	1217.8121	1246.1409	1261.8637	1284.0586	1299.6199	1334.4253	1403.2444	1452.8111	1454.1992	1467.0456	1481.3914	1492.8564	3033.3795	3062.1682	3069.3847	3096.5871	3110.1461	3117.4672	3121.047	3126.3226	3174.2255	3768.3242
CC12OC1C1C(O)CC21	C[C@]12O[C@H]1[C@H]1[C@@H](O)C[C@@H]21	
InChI=1S/C7H10O2/c1-7-3-2-4(8)5(3)6(7)9-7/h3-6,8H,2H2,1H3	InChI=1S/C7H10O2/c1-7-3-2-4(8)5(3)6(7)9-7/h3-6,8H,2H2,1H3/t3-,4+,5-,6+,7-/m1/s1
