18
gdb 26392	4.2249	0.96294	0.92411	2.9197	74.72	-0.2229	0.0112	0.2341	1334.9107	0.146907	-439.115616	-439.106801	-439.105857	-439.150352	31.913	
C	 0.0824068881	 1.4768965939	-0.331892041	-0.393156
C	 0.0017987257	 0.0038808053	 0.0507966699	 0.121001
C	-1.4203243838	-0.524102792	 0.1390200156	-0.393582
O	 0.6613591037	-0.8118619799	-0.9643893383	-0.286206
C	 1.9879645034	-0.765974455	-1.0082154647	 0.393758
C	 2.8823726123	-0.5266340706	-1.9986164865	-0.220564
N	 4.1686590508	-0.7257560756	-1.5025513746	-0.253348
C	 3.990683466	-1.0545271929	-0.2686333884	 0.077037
O	 2.6890940739	-1.1114418431	 0.1223196453	-0.186538
H	 1.1218802453	 1.7976129848	-0.4453232884	 0.132101
H	-0.4401141256	 1.6564087975	-1.2765999185	 0.127771
H	-0.3812040671	 2.0930888539	 0.4444969907	 0.122307
H	 0.5218280149	-0.1665499228	 1.0002524571	 0.103879
H	-1.9357476327	-0.3970137893	-0.8179411094	 0.12968
H	-1.4213554306	-1.5868021288	 0.3938083143	 0.130977
H	-1.9774517457	 0.0199607675	 0.9069709034	 0.121528
H	 2.6916469703	-0.2378077603	-3.0183610195	 0.125658
H	 4.729831901	-1.2784906724	 0.484050553	 0.147696
33.5214	62.8304	130.9919	212.5777	247.4678	300.3691	321.5743	425.5138	450.5062	470.3422	665.2987	672.0596	747.898	807.0147	826.5091	841.8326	919.9026	933.9715	934.6771	948.3208	991.0731	1110.1369	1123.4019	1133.4147	1158.6143	1200.1671	1245.1751	1281.4302	1347.9865	1374.2613	1375.9581	1403.7841	1418.9874	1480.0351	1485.3232	1492.6996	1508.3863	1560.6291	1666.2215	3040.4875	3046.4181	3048.9479	3114.677	3118.065	3123.5145	3128.0595	3274.52	3278.9961
CC(C)OC1=CN=CO1	CC(C)Oc1cnco1	
InChI=1S/C6H9NO2/c1-5(2)9-6-3-7-4-8-6/h3-5H,1-2H3	InChI=1S/C6H9NO2/c1-5(2)9-6-3-7-4-8-6/h3-5H,1-2H3
