21
gdb 103594	3.30672	1.04945	0.96103	3.652	75.16	-0.2427	0.0556	0.2983	1313.5823	0.180032	-461.352585	-461.342761	-461.341817	-461.386519	38.246	
C	-0.1296257317	 1.6020708251	 0.0450971344	-0.435097
C	 0.0043000967	 0.0946118521	-0.0167144763	 0.425005
O	-1.2626647662	-0.4259724955	-0.3756750267	-0.492331
C	 1.1541902506	-0.5184572404	-0.8846274385	-0.30901
C	 1.3381240959	-1.599918507	 0.2026528755	 0.406752
O	 0.507425933	-2.7096442478	-0.1423626316	-0.489583
C	 2.730139979	-2.0996790014	 0.5322395535	-0.15973
O	 2.575279229	-3.031933174	 1.600970238	-0.436035
C	 0.6189243653	-0.6541113166	 1.2110660887	-0.304163
H	 0.8208193276	 2.0705814885	 0.3164339328	 0.102571
H	-0.4491653285	 1.9938116252	-0.9258324896	 0.122265
H	-0.8832304161	 1.8843232447	 0.7870434071	 0.122668
H	-1.1665586027	-1.3876174733	-0.4096635002	 0.284288
H	 0.8803717152	-0.8785809744	-1.8787206963	 0.108552
H	 2.0226444091	 0.143534615	-0.9520635404	 0.092596
H	 0.6327228766	-3.3553944211	 0.565991839	 0.287139
H	 3.1612918567	-2.5833538393	-0.3565301601	 0.098157
H	 3.3791665831	-1.2604039652	 0.8224673758	 0.088793
H	 3.3909770035	-3.5304077242	 1.6993507306	 0.29596
H	 1.3266241847	-0.0318820425	 1.7670132346	 0.091343
H	-0.0889910508	-1.1151567376	 1.9033648696	 0.099859
96.9369	121.5122	190.4803	218.6287	248.8806	257.0925	324.0547	330.8006	344.4571	429.9893	443.4799	455.5174	483.3292	503.1206	552.7675	650.0353	724.7702	816.5712	871.6145	897.6283	935.0021	939.8928	963.2518	995.3835	1030.7191	1057.9597	1078.9689	1098.0076	1168.8811	1172.2595	1211.0966	1218.7696	1239.8211	1271.9638	1289.4335	1303.441	1390.7482	1398.2398	1446.5636	1448.5753	1454.7513	1480.6588	1481.8642	1496.8656	1506.7645	2985.3512	3026.258	3036.7572	3052.4841	3060.0964	3108.5393	3113.7873	3121.0302	3124.0386	3746.7358	3765.7046	3842.4665
CC1(O)CC(O)(CO)C1	C[C@@]1(O)C[C@@](O)(CO)C1	
InChI=1S/C6H12O3/c1-5(8)2-6(9,3-5)4-7/h7-9H,2-4H2,1H3	InChI=1S/C6H12O3/c1-5(8)2-6(9,3-5)4-7/h7-9H,2-4H2,1H3/t5-,6+
