21
gdb 54141	2.3339	1.34904	1.15863	1.5014	79.22	-0.2388	-0.0186	0.2201	1211.5968	0.177059	-424.244834	-424.233809	-424.232865	-424.280789	39.445	
C	 0.8025949214	 1.0674713714	 0.1449000657	-0.472637
C	-0.2915166932	 0.0361218116	-0.0294420867	 0.303852
O	-1.2008075661	-0.0997550766	 0.757925043	-0.308935
C	-0.2673051295	-0.8022355432	-1.3041671999	 0.230825
C	-1.5278947705	-0.609732084	-2.1231335699	-0.471102
O	 0.9857784689	-0.830314521	-2.0025417574	-0.32789
C	 0.5592269764	-2.0368223358	-1.3386101349	 0.354369
C	 1.3824626484	-2.4548465572	-0.1350662067	-0.460037
C	 0.2147905585	-3.1928689349	-2.2560618813	-0.45947
H	 1.7923788123	 0.6316034074	-0.0046039397	 0.151849
H	 0.6912616504	 1.832924511	-0.6335293691	 0.146536
H	 0.7181254898	 1.5327338432	 1.127634204	 0.136378
H	-1.6057974728	 0.4323734384	-2.452357	 0.127227
H	-1.5438958923	-1.2426698927	-3.0099473271	 0.125573
H	-2.3987888085	-0.8316819475	-1.5014214184	 0.149898
H	 1.6226915229	-1.6190401698	 0.5227519435	 0.128037
H	 0.8388604442	-3.202025387	 0.4523767043	 0.132516
H	 2.3224239128	-2.9087436309	-0.4668492823	 0.125811
H	 1.1282177989	-3.7382296347	-2.5175751208	 0.126898
H	-0.4600785909	-3.8955382199	-1.7560170494	 0.128167
H	-0.2493610812	-2.8582593879	-3.183488987	 0.132137
62.6252	94.0165	133.7953	144.4766	160.1456	173.3482	181.3583	256.8898	299.9239	322.8309	378.0185	407.4762	482.7729	514.1487	537.192	597.1326	652.7406	712.8929	828.867	892.8451	941.3857	952.4168	991.7497	1002.1939	1031.1515	1092.3471	1123.4172	1148.215	1170.2559	1235.7096	1280.7905	1381.1882	1396.3235	1408.2349	1419.5045	1426.0719	1457.6965	1462.8291	1472.1565	1480.7163	1481.9507	1493.1263	1503.5941	1519.5246	1801.8323	3038.9514	3039.9137	3043.9871	3047.0116	3097.6999	3104.237	3112.7715	3114.7226	3143.7795	3146.3621	3159.6941	3162.8935
CC(=O)C1(C)OC1(C)C	CC(=O)[C@@]1(C)OC1(C)C	
InChI=1S/C7H12O2/c1-5(8)7(4)6(2,3)9-7/h1-4H3	InChI=1S/C7H12O2/c1-5(8)7(4)6(2,3)9-7/h1-4H3/t7-/m1/s1
