25
gdb 87392	2.01426	1.42822	1.16081	0.0193	92.82	-0.2518	0.0791	0.3309	1277.9137	0.227873	-352.343705	-352.333534	-352.33259	-352.37851	39.154	
C	 0.138676633	 1.4562634865	-0.4406602289	-0.406218
C	 0.1846706252	-0.0346824027	-0.1818080576	-0.058647
C	 1.5101930809	-0.7592836179	-0.1541339829	-0.357022
C	 0.6902334708	-0.6383077443	 1.1030575219	 0.370446
C	 1.1604687431	 0.0165254593	 2.4233574789	-0.066948
C	 0.416628594	 1.2574382538	 2.9166786777	-0.398249
C	 0.7632046784	-1.3032776565	 3.1577943864	-0.238152
C	 0.1067608749	-1.8537293064	 1.8545489177	-0.054314
C	-1.4142958585	-1.9743953599	 1.8887190587	-0.398267
H	 1.0026620836	 1.9638207163	-0.0012368663	 0.115303
H	 0.1518152696	 1.6604513111	-1.5174554085	 0.112554
H	-0.7649702878	 1.9159001448	-0.0260338273	 0.114736
H	-0.6332771521	-0.5834963708	-0.645295567	 0.077014
H	 1.5900644571	-1.7342845243	-0.6264303155	 0.102259
H	 2.4095106288	-0.1532551007	-0.2311259264	 0.101618
H	 2.2375986139	 0.2141383397	 2.4415121743	 0.064122
H	-0.6690424709	 1.1182843279	 2.8741354423	 0.114275
H	 0.6828837811	 1.4664478127	 3.9592948207	 0.108853
H	 0.6604173219	 2.1463905043	 2.3278322592	 0.112743
H	 1.6174529904	-1.8907133422	 3.5021623639	 0.095832
H	 0.076098174	-1.1693775272	 3.9991984075	 0.089493
H	 0.5348673316	-2.8062276351	 1.5227541992	 0.063325
H	-1.8833721839	-1.0400115892	 2.2153815034	 0.114439
H	-1.8209243708	-2.221217101	 0.9016021055	 0.110766
H	-1.7253908882	-2.7642275882	 2.5819351932	 0.110039
44.032	128.2345	167.4284	215.7545	230.8771	236.4024	250.7784	268.4241	340.6525	347.9608	413.9016	456.106	505.7655	575.0493	723.2538	793.6826	816.494	839.2194	881.9183	905.1001	907.4564	933.4984	967.9867	981.6316	1031.5199	1043.8942	1070.7937	1083.1738	1113.4229	1120.0355	1132.4772	1177.018	1186.3925	1205.7675	1208.444	1244.0151	1265.1297	1280.9426	1324.2135	1347.5722	1369.4227	1403.5126	1407.8142	1411.5012	1425.6825	1480.724	1485.8214	1489.2173	1492.2499	1495.2482	1499.7384	1502.5563	1505.9963	3023.5437	3025.96	3028.6358	3031.3764	3036.1464	3050.2713	3084.9775	3087.9911	3090.2538	3095.9293	3098.3206	3104.4855	3106.8826	3109.8758	3123.643	3190.2763
CC1CC11C(C)CC1C	C[C@H]1C[C@]21[C@@H](C)C[C@H]2C	
InChI=1S/C9H16/c1-6-4-7(2)9(6)5-8(9)3/h6-8H,4-5H2,1-3H3	InChI=1S/C9H16/c1-6-4-7(2)9(6)5-8(9)3/h6-8H,4-5H2,1-3H3/t6-,7+,8-,9-/m0/s1
