23
gdb 120916	3.16454	0.93426	0.84108	0.8875	86.78	-0.2476	0.0851	0.3327	1502.2497	0.205234	-388.247648	-388.237933	-388.236989	-388.282687	36.05	
C	-0.354640573	 1.2260601394	 0.3726452755	-0.222986
O	-0.3508081237	-0.1571124118	 0.1232450604	-0.23346
C	 0.4622363856	-0.5181776133	-0.9764734658	-0.081859
C	 0.3828838329	-2.02538366	-1.1405422784	 0.024
C	-0.9105596081	-2.7152167056	-1.6861170004	-0.257935
C	-0.0485422821	-3.500411673	-2.6880657712	-0.073353
C	 0.6818037348	-2.5910503109	-3.6341792068	 0.01887
C	 0.1099163242	-1.3578820954	-4.3045922496	-0.419834
C	 1.2067387766	-2.7351359805	-2.2246702835	-0.119627
H	 0.6538893188	 1.603490192	 0.6079168164	 0.100373
H	-0.738344455	 1.7982796159	-0.4876618698	 0.10025
H	-1.0060934005	 1.4045597543	 1.2320610804	 0.12412
H	 0.1304295337	 0.0130353001	-1.8817267488	 0.084221
H	 1.5101984806	-0.2175794346	-0.7952025612	 0.079895
H	 0.624109122	-2.4627325302	-0.1664184092	 0.084602
H	-1.393325473	-3.3467226427	-0.9386318146	 0.104616
H	-1.6719700609	-2.0564746892	-2.1157608849	 0.096409
H	-0.1526992944	-4.5614599663	-2.8826230158	 0.080885
H	 1.3111467909	-3.1659428748	-4.3132470384	 0.083641
H	-0.6554762462	-0.8644091575	-3.7025159548	 0.122885
H	 0.8929669121	-0.6214799922	-4.5175619785	 0.113934
H	-0.3558725697	-1.6301448031	-5.2585801568	 0.112462
H	 2.2048690544	-3.1249136305	-2.0552229442	 0.077889
63.5234	84.5285	105.8933	176.58	221.4763	237.8478	247.2698	323.3716	347.4621	405.8996	471.9752	590.7935	709.7389	713.8129	788.6898	848.9285	872.9515	904.9578	967.5054	983.1453	991.2149	1002.9952	1040.4941	1060.7263	1072.6988	1106.8665	1123.5975	1144.0311	1158.2661	1178.1375	1197.7356	1218.3033	1224.5038	1244.3912	1260.1211	1273.5762	1301.9685	1342.7864	1371.461	1413.0845	1426.187	1447.8913	1479.3007	1484.019	1490.0941	1498.8115	1504.4226	1507.2609	1526.5227	2941.9	2964.3751	3000.5465	3005.1219	3030.9264	3052.6902	3055.7567	3084.9147	3105.7997	3108.5019	3114.3384	3127.2153	3159.5397	3177.6919
COCC1CC2C(C)C12	COC[C@H]1C[C@H]2[C@@H](C)[C@@H]12	
InChI=1S/C8H14O/c1-5-7-3-6(4-9-2)8(5)7/h5-8H,3-4H2,1-2H3	InChI=1S/C8H14O/c1-5-7-3-6(4-9-2)8(5)7/h5-8H,3-4H2,1-2H3/t5-,6-,7+,8+/m1/s1
