19
gdb 76581	2.94484	1.16722	1.14187	2.1814	71.32	-0.2349	0.0497	0.2846	1169.1899	0.159408	-460.134029	-460.125401	-460.124456	-460.167556	32.705	
O	 0.1384345565	 1.3649928035	 0.0053106424	-0.432288
C	 0.0385873789	-0.0255643537	-0.0130871683	 0.033352
C	-0.4877305732	-0.7123189775	 1.2259978866	-0.033419
O	-0.9194861606	 0.1415333034	 2.257537599	-0.425286
C	-1.3246676136	-0.6884280217	-0.0268473536	 0.239826
C	-2.6113883863	 0.1307679099	-0.1126398686	-0.307158
C	-3.4113603615	-0.6467700324	-1.1720580971	-0.081192
O	-2.9903567137	-1.9992889161	-1.0512068339	-0.243408
C	-1.5895861813	-1.9658606948	-0.8311332957	-0.152678
H	-0.2523544337	 1.6477967236	 0.8442246213	 0.285017
H	 0.846335182	-0.4821482651	-0.5803217751	 0.09874
H	-0.0663747181	-1.6615566269	 1.5560247987	 0.091145
H	-0.1854573839	 0.2590540574	 2.8710988997	 0.29787
H	-3.1332926089	 0.1382261563	 0.8481556123	 0.121082
H	-2.4186917866	 1.1659727298	-0.4060070371	 0.113242
H	-4.49293487	-0.6180657793	-1.0193860501	 0.109203
H	-3.1914236037	-0.2628575555	-2.1818184832	 0.090936
H	-1.0446712375	-1.9355961451	-1.7905623237	 0.090006
H	-1.3088101647	-2.8850383958	-0.3064921537	 0.105011
52.1575	153.3239	187.4394	241.7134	250.4474	273.87	285.2154	400.2964	495.3034	509.8998	592.5527	654.0049	679.19	763.689	836.1641	850.3181	887.2566	952.4989	968.9149	1014.4579	1041.6591	1079.3148	1093.4063	1118.038	1133.4032	1160.0807	1188.2405	1221.3834	1228.1981	1252.6939	1273.2405	1286.5935	1319.083	1325.5227	1359.8796	1401.8587	1410.369	1471.2842	1495.5874	1508.6535	1523.0727	2951.9106	2970.7419	3061.5537	3064.6021	3096.4775	3101.4182	3110.5237	3137.8537	3737.197	3799.6515
OC1C(O)C11CCOC1	O[C@H]1[C@@H](O)[C@]21CCOC2	
InChI=1S/C6H10O3/c7-4-5(8)6(4)1-2-9-3-6/h4-5,7-8H,1-3H2	InChI=1S/C6H10O3/c7-4-5(8)6(4)1-2-9-3-6/h4-5,7-8H,1-3H2/t4-,5+,6+
