21
gdb 121635	2.88981	0.90175	0.78879	2.9218	77.76	-0.2252	0.0632	0.2884	1544.3512	0.181251	-457.571255	-457.560081	-457.559137	-457.60888	38.298	
C	 0.000488002	 1.018085774	-0.8848976357	-0.340492
N	-0.0209335335	-0.1284880804	 0.0032830779	-0.118696
C	 1.2333860935	-0.5308175599	 0.6056042962	-0.349272
C	-1.1990800525	-0.831762994	 0.1503146773	 0.495643
O	-2.2661021077	-0.4367985942	-0.3016109744	-0.43124
N	-1.0979396422	-2.0015248616	 0.8913799492	-0.368904
C	-2.2568936676	-2.87854794	 0.9540788861	-0.146596
C	-2.3043965111	-3.8654613847	-0.2061968454	-0.078118
O	-1.1104311039	-4.6415998571	-0.1444504259	-0.427661
H	 0.3593174939	 1.9112416873	-0.3579039014	 0.115553
H	 0.6581939458	 0.8441881592	-1.7479312855	 0.111289
H	-1.0152215327	 1.1925615342	-1.2356970842	 0.169237
H	 1.0651234031	-0.9718976134	 1.5911135953	 0.14258
H	 1.8008352753	-1.2462104217	-0.0105062694	 0.11767
H	 1.8620334598	 0.3540256536	 0.7436489843	 0.130115
H	-0.2247957615	-2.5034639792	 0.8367827098	 0.246358
H	-2.2225896776	-3.4342870861	 1.8976884381	 0.104438
H	-3.1502803207	-2.253405759	 0.9428727175	 0.141459
H	-3.1992944993	-4.5006005192	-0.1158598496	 0.087298
H	-2.3723885527	-3.3075975363	-1.1504027814	 0.109117
H	-1.0423263306	-5.1588769215	-0.9514900687	 0.290223
30.575	63.7253	112.7383	119.4099	142.8535	144.8251	192.2567	249.3759	263.0541	281.9987	387.1934	394.808	489.7338	536.5861	560.6712	627.8616	766.2576	809.6775	899.0948	922.8774	1024.6398	1087.4032	1088.053	1097.4007	1133.6822	1135.8672	1172.6991	1212.627	1235.9595	1256.6385	1299.409	1321.1909	1384.8171	1408.8397	1432.0902	1444.3656	1458.7187	1471.7021	1497.3555	1499.6075	1507.0672	1517.7967	1523.448	1547.5145	1753.3544	2979.3314	2982.0284	3002.3208	3027.5543	3048.1945	3054.3903	3072.0129	3116.3323	3141.345	3168.833	3621.0694	3838.8928
CN(C)C(=O)NCCO	CN(C)C(=O)NCCO	
InChI=1S/C5H12N2O2/c1-7(2)5(9)6-3-4-8/h8H,3-4H2,1-2H3,(H,6,9)	InChI=1S/C5H12N2O2/c1-7(2)5(9)6-3-4-8/h8H,3-4H2,1-2H3,(H,6,9)
