18
gdb 38528	3.49317	1.63008	1.30112	3.6081	75.19	-0.2414	0.0224	0.2637	989.1519	0.151188	-401.952852	-401.946251	-401.945307	-401.983688	27.261	
C	 0.0287966098	 1.4403685597	-0.2555486002	-0.322094
C	 1.3432167419	 0.7782284753	 0.0357028504	 0.089027
O	 1.7827916458	 0.8272141884	 1.3934903587	-0.245843
C	 0.8057662437	 0.2578038323	 2.1334202213	 0.403302
N	 0.5114545625	 0.4848733824	 3.3419290705	-0.303035
C	-0.7296253814	-0.2851459227	 3.588923116	-0.158386
C	-1.3620199496	-0.5616833814	 2.185080356	-0.254007
C	-0.1024111644	-0.635817501	 1.310285255	-0.093196
C	 0.0878864319	-0.0672150396	-0.0815009918	-0.112029
H	-0.4124928324	 2.0484249081	 0.5280549864	 0.136561
H	-0.1321970537	 1.8121796858	-1.2612813155	 0.123403
H	 2.171746002	 0.7739455169	-0.6593661606	 0.113972
H	-0.4938265662	-1.2235323479	 4.1097262044	 0.105771
H	-1.3901557952	 0.287758618	 4.2459845663	 0.110054
H	-1.9792280557	-1.4625732787	 2.158271741	 0.100862
H	-1.9842266155	 0.2891538793	 1.88704398	 0.10885
H	 0.2989976383	-1.6595361209	 1.3202047045	 0.098468
H	-0.0693813618	-0.697228704	-0.9481950725	 0.09832
140.0314	206.8964	280.1651	412.9986	454.4039	482.0848	607.3334	633.7276	699.5924	716.6632	792.3596	810.442	833.339	859.5647	919.4212	941.3836	957.7168	977.1658	1026.5703	1050.953	1059.8686	1087.3999	1091.6974	1120.7011	1134.5333	1174.0564	1192.3886	1204.528	1245.59	1272.4361	1295.4667	1321.7909	1357.3627	1369.2584	1387.1219	1473.8625	1488.6911	1507.691	1761.9411	3003.8319	3014.3682	3051.1817	3082.4786	3110.9263	3132.3769	3185.2551	3210.5484	3223.7146
C1C2OC3=NCCC3C12	C1[C@H]2O[C]3[N]CC[C@H]3[C@@H]12	
InChI=1S/C7H9NO/c1-2-8-7-4(1)5-3-6(5)9-7/h4-6H,1-3H2	InChI=1S/C7H9NO/c1-2-8-7-4(1)5-3-6(5)9-7/h4-6H,1-3H2/t4-,5+,6+/m0/s1
