20
gdb 6140	4.62191	1.18345	1.124	0.9121	81.86	-0.2525	0.0525	0.305	1152.0797	0.175023	-311.837157	-311.828267	-311.827323	-311.870098	34.182	
C	-0.1441301852	 1.5105684331	-0.0016678821	-0.43709
C	-0.0115280715	-0.0148200263	 0.0044536473	 0.345371
C	-1.3599754385	-0.6787990547	-0.254484004	-0.452593
C	 1.1737918639	-0.5047207456	-0.8868198185	-0.264965
C	 2.07675389	-0.5846574067	 0.3860108628	-0.158329
C	 0.7761769735	-0.5307014885	 1.2505449082	-0.264966
C	 2.9632038249	-1.719262212	 0.5371189579	 0.304418
C	 3.6812588533	-2.6769772861	 0.6590825698	-0.449472
H	 0.8158601324	 2.0046744852	 0.1829038723	 0.112939
H	-0.519567395	 1.8663955416	-0.9679733417	 0.112689
H	-0.8434247775	 1.84522784	 0.7731237886	 0.112689
H	-1.7685305296	-0.3780032886	-1.2265699284	 0.112244
H	-1.2723881941	-1.7702623799	-0.2514094729	 0.111233
H	-2.0920965434	-0.3990689389	 0.5123898202	 0.112242
H	 0.9919407114	-1.4987205677	-1.3027256288	 0.106639
H	 1.5115222539	 0.158530306	-1.6874221789	 0.099227
H	 2.6470004916	 0.3423287086	 0.5033640385	 0.101345
H	 0.8005522964	 0.1120810396	 2.134380017	 0.099227
H	 0.4612889794	-1.5333910385	 1.5497797916	 0.106639
H	 4.3207039641	-3.5172735307	 0.767946731	 0.190514
66.0179	145.9876	217.1946	219.7344	258.8436	298.8052	330.1055	378.2854	393.3917	502.0936	524.7983	564.0606	615.1657	620.8837	720.7633	838.3325	877.3246	883.8336	931.7362	958.1467	964.1568	1000.542	1021.7988	1067.1972	1086.7921	1150.0011	1211.8249	1220.0658	1237.5017	1250.2441	1297.2711	1311.4573	1356.8622	1403.1119	1420.637	1473.9171	1482.927	1484.2208	1499.1385	1502.0738	1506.5018	2231.5111	3017.6565	3022.8054	3048.3638	3056.0258	3061.2351	3081.9589	3089.3097	3090.6976	3094.2246	3114.7002	3118.0667	3506.0065
CC1(C)CC(C1)C#C	CC1(C)CC(C1)C#C	
InChI=1S/C8H12/c1-4-7-5-8(2,3)6-7/h1,7H,5-6H2,2-3H3	InChI=1S/C8H12/c1-4-7-5-8(2,3)6-7/h1,7H,5-6H2,2-3H3
