23
gdb 96093	2.48692	1.45707	1.06631	1.15	86.04	-0.2373	0.0859	0.3232	1235.7011	0.206638	-388.301451	-388.292745	-388.291801	-388.334262	35.114	
C	 0.0077531693	 1.4868441983	 0.1287198817	-0.403444
C	 0.0340353962	-0.0293644753	 0.0099542585	 0.141036
C	 0.665639037	-0.525975177	-1.2962434154	-0.189695
C	 0.7756586884	-2.0569735029	-1.3013969427	-0.21943
C	 1.4857711461	-2.5376300446	-0.0264409061	-0.25764
C	 0.8291922421	-1.9208671602	 1.1915896024	 0.462244
C	-0.3142446103	-2.6228176626	 1.8906366848	-0.322593
C	 1.0395027027	-2.4711611921	 2.5633014601	-0.335018
O	 0.7685231686	-0.5184717636	 1.1362490163	-0.307012
H	 1.0243162819	 1.8905569202	 0.0876407524	 0.121629
H	-0.5741532818	 1.9264951165	-0.6870181406	 0.111221
H	-0.4408401377	 1.7885421208	 1.07916768	 0.119697
H	-0.9972277774	-0.4190156436	 0.0691480117	 0.061059
H	 0.0711501166	-0.1752842224	-2.1478040507	 0.090497
H	 1.6645706137	-0.0798639478	-1.3906385229	 0.09678
H	-0.2309966318	-2.4937086445	-1.3411840742	 0.096676
H	 1.3073890349	-2.4037889962	-2.1938217062	 0.091772
H	 1.4678435904	-3.6301127105	 0.0459900775	 0.090881
H	 2.5395219292	-2.2298176078	-0.0524799992	 0.099614
H	-1.1211260001	-2.0022889543	 2.2635873061	 0.114695
H	-0.6152048027	-3.6074060928	 1.5481850331	 0.107306
H	 1.6651734741	-3.3502154523	 2.6757707275	 0.108628
H	 1.1152206105	-1.7488464752	 3.3679001759	 0.121098
123.0717	135.2034	218.9312	234.0438	252.8544	330.5542	361.7733	386.6071	451.1718	480.5612	504.6936	556.5514	712.6833	773.8464	815.8789	855.3162	861.7191	893.3999	908.3462	940.8663	957.3159	976.9492	997.3113	1015.0315	1046.5896	1053.4044	1075.0449	1102.332	1147.311	1163.781	1183.6319	1188.017	1228.3229	1270.1443	1289.6746	1330.8015	1337.2466	1370.8517	1378.2749	1393.7234	1400.3631	1411.2917	1450.9417	1471.6662	1477.9635	1484.4363	1492.9155	1499.6943	1500.8648	2950.0424	3018.6108	3019.3531	3022.652	3040.8254	3066.0599	3070.771	3076.872	3114.1653	3118.793	3129.9522	3135.7918	3215.6145	3230.1207
CC1CCCC2(CC2)O1	C[C@H]1CCCC2(CC2)O1	
InChI=1S/C8H14O/c1-7-3-2-4-8(9-7)5-6-8/h7H,2-6H2,1H3	InChI=1S/C8H14O/c1-7-3-2-4-8(9-7)5-6-8/h7H,2-6H2,1H3/t7-/m0/s1
