17
gdb 48971	3.92073	1.37229	1.22105	3.0035	73.1	-0.2375	-0.0328	0.2047	1032.5502	0.136617	-421.806991	-421.799807	-421.798863	-421.838678	27.974	
O	-0.3086252755	 0.4299000964	-0.6822309485	-0.274367
C	 0.126863262	 1.1224429751	 0.208144483	 0.059746
C	 1.378740304	 1.8877645766	 0.1129377586	 0.35761
O	 1.8206309199	 2.6892894743	 1.2051364738	-0.345821
C	 2.4914868431	 3.5873584063	 0.2512501854	 0.07744
C	 3.9674745362	 3.210034865	 0.2290063327	-0.209059
C	 3.9371077219	 1.7191868728	-0.2191500202	-0.230967
C	 2.5422864762	 1.538857137	-0.8197221918	-0.111634
C	 1.8433230467	 2.8602056433	-0.9495755519	-0.18461
H	-0.3992507397	 1.2442905841	 1.1801396106	 0.088317
H	 2.2420698457	 4.6310036365	 0.4452353665	 0.089087
H	 4.5022264996	 3.8353212043	-0.4951816541	 0.104734
H	 4.430483602	 3.34971403	 1.2091504934	 0.115189
H	 4.7066789278	 1.5017061932	-0.9646043893	 0.108683
H	 4.0984799105	 1.0449959241	 0.6261284092	 0.119459
H	 2.3268564129	 0.7575341211	-1.5388476636	 0.119888
H	 1.3123140668	 3.2586330497	-1.8021927238	 0.116305
115.9447	173.0987	188.669	222.8684	377.8562	447.9124	528.5929	653.5576	724.4367	728.5004	739.5501	821.3568	859.4426	871.248	888.6794	903.4289	956.7969	979.6354	1000.7179	1021.2112	1033.1499	1062.0281	1067.6973	1146.1946	1168.5761	1205.5542	1229.4943	1258.8851	1282.7035	1295.3091	1321.7523	1337.6879	1404.3933	1427.9758	1473.9864	1497.7218	1802.1405	2899.6801	3044.686	3063.8987	3096.5835	3112.0777	3115.089	3197.8747	3219.1449
O=CC12OC3CCC1C23	O=C[C@@]12O[C@H]3CC[C@@H]1[C@@H]23	
InChI=1S/C7H8O2/c8-3-7-4-1-2-5(9-7)6(4)7/h3-6H,1-2H2	InChI=1S/C7H8O2/c8-3-7-4-1-2-5(9-7)6(4)7/h3-6H,1-2H2/t4-,5+,6-,7-/m1/s1
