20
gdb 7598	2.73001	1.62341	1.42257	2.0701	71.03	-0.2508	0.0628	0.3137	1017.6323	0.174497	-386.129194	-386.119728	-386.118784	-386.162746	35.606	
C	 0.0516556117	 1.4896092698	-0.3085659576	-0.410275
C	 0.0426984302	 0.0276510639	 0.1550786322	 0.097618
O	 0.5743808604	-0.0931741629	 1.468483753	-0.443668
C	-1.3480439059	-0.5842318553	 0.115996663	 0.378028
O	-2.2072170192	 0.0073565474	 1.0721981939	-0.481272
C	-1.9644550131	-1.090836025	-1.1625752596	-0.366457
C	-1.5738694507	-2.0570227745	-0.054987315	-0.031236
C	-0.4563744353	-3.0615741928	-0.2242449194	-0.412825
H	 1.0617485824	 1.8981744442	-0.2257858112	 0.126589
H	-0.2806074262	 1.5813206818	-1.3481120328	 0.112148
H	-0.6038333871	 2.1031268938	 0.3204926626	 0.100142
H	 0.7082011351	-0.5494143893	-0.4952367123	 0.080582
H	-0.1550113574	 0.1253681152	 2.0628125282	 0.283005
H	-2.5069838771	 0.8535058029	 0.7212726808	 0.285596
H	-3.0194026957	-0.8964780492	-1.3241345437	 0.1104
H	-1.3569007241	-1.0773284471	-2.0630046337	 0.109729
H	-2.4139107306	-2.4138113425	 0.5347088097	 0.0975
H	 0.3224283341	-2.7007212511	-0.9025076233	 0.116425
H	 0.0193233197	-3.2888375434	 0.7350798247	 0.132243
H	-0.8423730712	-3.9970009059	-0.6431584495	 0.115728
69.2302	131.0921	198.8381	205.0256	238.7332	257.0324	286.6754	335.4112	370.7883	415.7579	446.1318	461.9889	533.0131	564.5969	725.0546	809.3521	864.7318	895.5833	919.4841	937.4785	1002.0465	1032.7786	1039.6754	1093.472	1107.6092	1109.6679	1129.867	1184.9337	1226.2626	1275.9117	1304.2961	1325.1173	1372.2243	1396.2092	1404.9163	1418.0898	1437.6464	1483.1016	1490.757	1495.0233	1501.6001	1505.22	3029.7638	3034.7108	3058.8945	3097.0927	3098.4635	3105.3326	3120.6726	3122.4826	3149.7364	3210.3639	3771.931	3793.4858
CC(O)C1(O)CC1C	C[C@@H](O)[C@@]1(O)C[C@H]1C	
InChI=1S/C6H12O2/c1-4-3-6(4,8)5(2)7/h4-5,7-8H,3H2,1-2H3	InChI=1S/C6H12O2/c1-4-3-6(4,8)5(2)7/h4-5,7-8H,3H2,1-2H3/t4-,5-,6-/m1/s1
