19
gdb 40800	3.94954	1.11842	0.92457	2.4012	76.45	-0.2436	0.0268	0.2704	1256.9366	0.161374	-419.182783	-419.174828	-419.173884	-419.215621	30.121	
C	 1.3787154466	 0.0295850709	-0.3563154253	-0.22818
C	 0.5692220753	-1.0669033468	-0.9519130349	-0.221868
N	-0.0339161516	-0.1269487168	-0.0091985992	-0.068284
C	-0.3244981459	-0.6438980263	 1.3210659101	-0.010954
C	-0.3963994313	 0.5224990494	 2.3048102823	-0.079143
O	-0.7799197804	 0.0746535749	 3.6111071934	-0.225842
C	-1.705664173	-0.916409781	 3.6416381143	 0.132086
N	-2.1840859887	-1.6002446996	 2.6931574398	-0.272865
C	-1.6773620386	-1.3633247529	 1.344033186	-0.161053
H	 2.1213105077	-0.2512533759	 0.389095348	 0.114082
H	 1.6263550594	 0.9128449645	-0.937284551	 0.121134
H	 0.2147770147	-1.000143189	-1.9760457325	 0.12197
H	 0.7722562437	-2.0781100494	-0.6032118956	 0.116311
H	 0.4571227782	-1.343652597	 1.6706599707	 0.06811
H	 0.5705420123	 1.0166382883	 2.4250216425	 0.116924
H	-1.1234715272	 1.260779931	 1.9453470989	 0.122608
H	-2.0239507443	-1.0875282727	 4.6683260018	 0.123158
H	-2.4078345922	-0.7704390171	 0.7787097363	 0.122926
H	-1.6047800646	-2.3303093046	 0.8341438647	 0.108879
93.8757	118.9872	168.7781	183.5853	295.5163	393.3399	450.6045	482.1151	491.2525	530.1863	764.3081	814.4617	876.4702	890.9408	906.1476	934.9519	961.6479	983.6196	1003.8381	1027.5215	1054.231	1114.0919	1121.1725	1136.6499	1140.4938	1173.907	1181.9939	1192.5636	1225.0013	1283.5904	1314.8786	1331.9213	1348.2054	1372.7917	1405.186	1422.4392	1487.2686	1489.9096	1511.8576	1517.2153	1738.7129	2928.1209	3027.0781	3039.1271	3063.489	3095.8475	3101.0163	3105.073	3161.056	3181.8353	3195.9297
C1CN1C1COC=NC1	C1CN1[C@H]1COC=NC1	
InChI=1S/C6H10N2O/c1-2-8(1)6-3-7-5-9-4-6/h5-6H,1-4H2	InChI=1S/C6H10N2O/c1-2-8(1)6-3-7-5-9-4-6/h5-6H,1-4H2/t6-/m1/s1
