17
gdb 124699	4.02973	0.99059	0.85231	0.3776	69.24	-0.2709	-0.0234	0.2475	1323.1923	0.135793	-455.143433	-455.134652	-455.133708	-455.17774	31.141	
C	 0.03491613	 1.4136027411	-0.2694005131	-0.397751
C	 0.0164070458	-0.0844522529	 0.0877939071	-0.086863
C	 0.7331075583	-0.3697829442	 1.4096210613	-0.086401
O	 2.0860398967	 0.0274107649	 1.2416232335	-0.424716
C	-1.3868742059	-0.6078387702	 0.0914062878	 0.367804
N	-1.9867618616	-1.0617843372	 1.1609199072	-0.180082
O	-3.2620447555	-1.4244149111	 0.700428622	-0.159763
C	-3.2726348318	-1.1403080886	-0.6013503484	 0.104223
N	-2.1695346237	-0.6390995408	-1.0514773115	-0.307519
H	 1.067152664	 1.7656579963	-0.3043550575	 0.140827
H	-0.4377000321	 1.586000572	-1.2390929894	 0.134321
H	-0.5046896681	 1.9964350205	 0.4849653166	 0.117787
H	 0.5542297086	-0.6255597717	-0.7014021722	 0.11514
H	 0.245555627	 0.1876397352	 2.2232586538	 0.10313
H	 0.6548552447	-1.4390341939	 1.6519969374	 0.102904
H	 2.5400167978	-0.0939362143	 2.0800626078	 0.290102
H	-4.1823917642	-1.3533707051	-1.1436216524	 0.166858
45.2763	104.5185	149.7543	185.5672	239.7587	243.9474	296.5943	366.8759	418.0307	465.9268	631.1896	714.1337	783.6739	882.1579	906.3183	908.8427	936.0994	985.5131	994.427	1052.7973	1083.291	1117.6474	1148.5006	1160.3899	1223.3394	1264.3182	1281.7203	1315.9586	1345.5565	1383.0319	1403.66	1462.9096	1495.0671	1501.6652	1520.6727	1524.8042	1597.9379	2989.566	3020.4074	3037.8896	3046.4645	3118.5449	3146.4957	3265.6472	3839.4691
CC(CO)C1=NOC=N1	C[C@@H](CO)c1nocn1	
InChI=1S/C5H8N2O2/c1-4(2-8)5-6-3-9-7-5/h3-4,8H,2H2,1H3	InChI=1S/C5H8N2O2/c1-4(2-8)5-6-3-9-7-5/h3-4,8H,2H2,1H3/t4-/m0/s1
