13
gdb 5359	5.36914	1.59701	1.23089	3.7729	68.88	-0.256	-0.0741	0.1819	902.3443	0.097876	-361.532018	-361.525797	-361.524853	-361.562566	22.907	
O	-0.0734818417	-0.0238289463	-0.0015917621	-0.260436
C	-0.0061113717	 1.1822987545	 0.007312175	 0.091781
C	 1.2549862386	 1.9564493292	-0.0003956786	 0.154297
C	 2.4976182169	 1.3084095699	-0.0194412857	-0.032756
N	 3.6639217825	 1.9492056942	-0.0271744071	-0.263382
C	 3.6250548551	 3.2878969613	-0.0158578276	 0.017246
C	 2.4483323427	 4.0336721151	 0.0032530084	-0.115617
C	 1.2389832463	 3.3511949754	 0.0111092248	-0.159312
H	-0.9261370376	 1.8102179774	 0.0224758721	 0.07462
H	 2.5247422936	 0.2223575611	-0.0285700108	 0.141951
H	 4.589289228	 3.7907275054	-0.022457263	 0.121111
H	 2.4868397962	 5.1169030672	 0.0116351991	 0.113359
H	 0.2922793311	 3.8848013456	 0.0259296456	 0.117137
119.4907	211.6943	233.3955	410.0375	449.4308	450.4686	626.7879	676.7148	729.8298	825.7905	842.5368	976.0157	986.9838	1014.7798	1038.152	1048.075	1061.5247	1139.9055	1223.3595	1228.7686	1301.0214	1352.1227	1422.9703	1463.1538	1503.7128	1610.4874	1630.1424	1803.5009	2871.9868	3158.8351	3168.1312	3179.6378	3203.2831
O=CC1=CN=CC=C1	O=Cc1cnccc1	
InChI=1S/C6H5NO/c8-5-6-2-1-3-7-4-6/h1-5H	InChI=1S/C6H5NO/c8-5-6-2-1-3-7-4-6/h1-5H
