18
gdb 90187	4.07088	1.57228	1.40517	1.389	74.42	-0.2273	0.0541	0.2814	954.4257	0.148265	-401.811181	-401.804435	-401.803491	-401.84193	28.228	
C	-0.0704561285	 1.5388821622	-0.0520375225	-0.40347
C	 0.0265106169	 0.0232445438	 0.027263865	 0.078971
C	 0.9080909123	-0.6371357303	-1.139874797	-0.391703
C	 1.8208569503	-1.3257314742	-0.1651053558	 0.470629
O	 2.967597642	-2.2014395415	 0.0421776857	-0.401637
C	 2.498537158	-1.821440588	 1.420166559	 0.006011
C	 2.1406853378	-0.3803777596	 1.0131748983	-0.07182
N	 0.663857488	-0.4177216835	 1.3440438966	-0.185394
C	 1.0082816088	-1.8559047322	 1.0363528054	-0.068338
H	 0.9219226448	 2.0028477623	-0.0566141002	 0.117976
H	-0.5868984019	 1.8489158089	-0.9658072174	 0.118667
H	-0.6218537878	 1.927647867	 0.8085435126	 0.131745
H	-0.9783259028	-0.410804213	 0.0088093775	 0.08535
H	 0.3256678779	-1.3094600352	-1.7736818122	 0.114969
H	 1.3992157601	 0.115123793	-1.7620675323	 0.114195
H	 3.0624499899	-2.2390701024	 2.2516879914	 0.103601
H	 2.7550805948	 0.5183733567	 1.0224343038	 0.090969
H	 0.2908331795	-2.6752924542	 1.0670607124	 0.089282
147.4821	231.2113	275.9644	373.1767	434.3735	469.985	538.7693	636.5413	703.1315	746.3719	785.177	805.5341	811.3515	857.7876	863.2599	898.917	910.5308	934.5983	948.2903	1018.8085	1028.2401	1061.9804	1082.7958	1101.7363	1120.7035	1146.199	1158.8148	1170.4429	1211.793	1222.9765	1260.4924	1269.8264	1315.8793	1358.5591	1374.0016	1409.4595	1490.8076	1495.0443	1507.1253	3036.3293	3053.612	3066.9936	3103.5007	3116.9693	3120.7547	3124.2099	3131.0641	3149.1852
CC1CC23OC4C2N1C34	C[C@H]1C[C@@]23O[C@H]4[C@@H]2N1[C@@H]34	
InChI=1S/C7H9NO/c1-3-2-7-5-4(9-7)6(7)8(3)5/h3-6H,2H2,1H3	InChI=1S/C7H9NO/c1-3-2-7-5-4(9-7)6(7)8(3)5/h3-6H,2H2,1H3/t3-,4-,5-,6+,7+/m0/s1
