21
gdb 52624	3.11913	0.76658	0.72816	2.8949	89.13	-0.2427	-0.027	0.2157	1675.1009	0.177765	-387.083698	-387.072158	-387.071214	-387.122978	39.558	
C	 0.0251525991	 1.4671301507	 0.0715136016	-0.498734
C	 0.0174717795	 0.0117765937	 0.015814789	 0.047741
C	 0.0077742531	-1.1918774749	-0.0312592602	 0.098098
C	-0.0014079333	-2.6580320805	-0.085912778	 0.029711
C	-1.4276244301	-3.1751015181	 0.2101968082	-0.398809
C	 0.4394946607	-3.1154487589	-1.496330648	-0.407248
C	 0.9911117956	-3.1783004695	 1.0090370003	-0.27441
C	 1.1216397507	-4.6847178679	 1.0518172424	 0.139216
O	 0.655938779	-5.3837086557	 1.9165416313	-0.240088
H	 0.6921725652	 1.8315188429	 0.8606555109	 0.148573
H	 0.3656059938	 1.9005065182	-0.8754124046	 0.148024
H	-0.9757546264	 1.8630321209	 0.2759037875	 0.149113
H	-2.1304632639	-2.7952592076	-0.536216641	 0.121679
H	-1.4572197149	-4.2688543369	 0.18956924	 0.124866
H	-1.7650350351	-2.8442507797	 1.1959374951	 0.127952
H	 1.4650874853	-2.80091181	-1.7106103977	 0.120602
H	 0.3814070223	-4.2039597917	-1.5951221818	 0.116086
H	-0.2131927341	-2.6735391605	-2.2538056728	 0.127609
H	 1.9805176992	-2.7509473556	 0.8055597047	 0.116327
H	 0.6558107777	-2.8363558582	 1.9914548965	 0.126081
H	 1.6968235766	-5.1358578908	 0.2114028966	 0.07761
17.9184	24.8262	69.7006	90.6472	121.7637	233.4806	253.5375	264.9402	288.8049	298.123	339.2434	354.6855	384.1994	480.0611	545.8025	559.7885	650.1307	799.4284	880.6135	925.0464	945.9013	985.0892	1048.1912	1051.4418	1056.5198	1062.2623	1076.0804	1153.9856	1207.2672	1246.4804	1270.2931	1322.7674	1399.3367	1414.6799	1421.355	1432.5985	1466.5091	1478.4917	1478.8774	1479.8884	1488.1985	1498.2783	1509.01	1824.4711	2366.0715	2868.5692	3026.4149	3036.0527	3037.8776	3043.0645	3086.9862	3087.429	3109.2233	3110.3306	3115.4641	3118.8734	3122.8649
CC#CC(C)(C)CC=O	CC#CC(C)(C)CC=O	
InChI=1S/C8H12O/c1-4-5-8(2,3)6-7-9/h7H,6H2,1-3H3	InChI=1S/C8H12O/c1-4-5-8(2,3)6-7-9/h7H,6H2,1-3H3
