21
gdb 98300	3.8049	0.94161	0.81291	3.6247	82.09	-0.2137	0.0651	0.2788	1480.158	0.181724	-420.418667	-420.408234	-420.40729	-420.454801	36.971	
C	-0.0525057991	 1.4651998995	-0.1379951091	-0.313481
N	-0.007138125	 0.026947525	 0.0695461978	-0.377954
C	-1.2076497971	-0.6571109489	 0.1626107861	 0.499856
O	-2.2787439319	-0.069914671	 0.2159846064	-0.425493
N	-1.1007712882	-2.0356256053	 0.2292114756	-0.140045
C	 0.1787354203	-2.7134196102	 0.2730264971	-0.362783
C	-2.3300213147	-2.7887068205	 0.1846017141	 0.081839
C	-2.4247731561	-4.1528466099	-0.4420477482	-0.301291
C	-2.5927263003	-3.9849074763	 1.0577631033	-0.29141
H	 0.9385392671	 1.8835280005	 0.0561633889	 0.114043
H	-0.3646723604	 1.7429092861	-1.1536028302	 0.120849
H	-0.7690523297	 1.8989979371	 0.5596946415	 0.158651
H	 0.7721577787	-0.4512411334	-0.3514221009	 0.239409
H	 0.872390455	-2.1766493519	 0.9261608875	 0.140288
H	 0.0560000452	-3.7138507513	 0.6925431875	 0.137406
H	 0.6433335986	-2.8280597978	-0.7186948224	 0.118152
H	-3.1564163039	-2.1096164972	 0.0296342246	 0.141194
H	-3.2945356286	-4.3782079182	-1.0495056994	 0.118623
H	-1.5141693089	-4.6324332463	-0.7851310182	 0.10991
H	-1.7950459824	-4.3561839191	 1.6926195794	 0.112278
H	-3.5808218587	-4.0873436909	 1.4925736287	 0.119959
51.2348	74.3839	99.3865	142.9379	150.7131	178.2116	213.2445	300.0391	336.8039	360.4581	422.0992	476.249	519.2127	643.9187	757.2889	764.39	801.5405	809.1659	889.5639	929.6001	989.2406	1055.1191	1068.4325	1077.9373	1114.7087	1144.7059	1148.967	1150.7722	1168.0777	1196.3902	1202.7572	1229.448	1318.1378	1340.6219	1430.2423	1445.3507	1463.938	1469.7782	1483.3577	1499.5763	1504.6629	1507.9522	1529.7392	1544.0942	1758.0007	2980.2973	3015.6885	3078.9293	3094.5245	3124.6703	3131.6116	3134.8746	3152.672	3208.0974	3215.7326	3229.3703	3638.7858
CNC(=O)N(C)C1CC1	CNC(=O)N(C)C1CC1	
InChI=1S/C6H12N2O/c1-7-6(9)8(2)5-3-4-5/h5H,3-4H2,1-2H3,(H,7,9)	InChI=1S/C6H12N2O/c1-7-6(9)8(2)5-3-4-5/h5H,3-4H2,1-2H3,(H,7,9)
