18
gdb 35815	3.07546	1.42127	1.12475	4.8791	75.85	-0.2328	0.0404	0.2731	1088.0265	0.151502	-398.119937	-398.112358	-398.111414	-398.152175	29.37	
N	-0.3614672062	-1.0036043386	-0.7438143442	-0.332106
C	-0.1947529283	 0.0715763512	-0.3527187389	 0.277168
C	 0.0016980184	 1.4282288662	 0.1360371474	-0.151511
C	-0.3143116804	 1.6244962019	 1.6522677139	-0.194309
N	 0.3752341978	 2.8593913435	 2.0418488443	-0.287398
C	 1.5909733972	 2.9456940993	 1.2374237304	-0.020849
C	 2.7847745777	 2.0781273036	 1.7210630414	-0.160482
N	 2.4170479101	 1.0321351972	 0.738058724	-0.304379
C	 1.4630997135	 1.9223643839	 0.0542254084	-0.020512
H	-0.6304607218	 2.1042006679	-0.4541095698	 0.112142
H	-1.3834955591	 1.68837459	 1.8619808909	 0.118568
H	 0.0953936919	 0.7761490814	 2.2070831803	 0.144355
H	-0.2171445411	 3.6569847444	 1.8395048083	 0.223666
H	 1.829455347	 3.9835569758	 1.0062824545	 0.081489
H	 3.754420517	 2.5599931932	 1.5407477584	 0.096579
H	 2.7384142861	 1.7500861394	 2.7647035602	 0.113502
H	 3.1644086709	 0.657284333	 0.1688331	 0.228203
H	 1.7442499294	 2.2586415965	-0.9483013193	 0.075874
98.7897	137.5611	166.1562	250.1763	366.8683	412.4117	481.2809	535.4662	595.83	655.6861	686.4835	764.582	797.6956	845.4445	861.4665	945.0304	958.4572	992.1022	997.7743	1027.7443	1045.9459	1068.3842	1097.3928	1133.9317	1149.8568	1194.7972	1219.1581	1222.9674	1274.5239	1294.3429	1307.8563	1358.8135	1362.0912	1380.6273	1391.5908	1469.0228	1497.0168	1513.1356	2355.5424	3012.9884	3030.6513	3059.3955	3071.1963	3072.1223	3114.7299	3127.3272	3531.0622	3568.099
N#CC1CNC2CNC12	N#C[C@H]1CN[C@H]2CN[C@@H]12	
InChI=1S/C6H9N3/c7-1-4-2-8-5-3-9-6(4)5/h4-6,8-9H,2-3H2	InChI=1S/C6H9N3/c7-1-4-2-8-5-3-9-6(4)5/h4-6,8-9H,2-3H2/t4-,5-,6-/m0/s1
