20
gdb 77984	2.80629	1.24157	1.01757	4.5708	85.49	-0.263	0.0213	0.2843	1241.8494	0.171079	-366.009668	-366.000639	-365.999695	-366.04306	34.237	
C	-0.6867580135	 1.252724088	-0.2094211177	-0.425381
C	-0.3559598961	-0.2016042213	-0.4742879707	-0.047247
C	 0.4866312187	-0.7897025376	-1.5692425616	-0.138825
C	 1.7592368676	-0.0034499273	-1.92602581	 0.043248
C	 1.6720766695	 1.2861555335	-2.7344414788	-0.41895
C	 2.1648877853	 0.0160823987	-0.4134398428	-0.329924
C	 0.9473870523	-0.8725920099	-0.0861733693	 0.19482
C	 0.9909210887	-2.0104139377	 0.770746278	 0.184399
N	 1.0371537481	-2.9332693904	 1.4695389953	-0.35647
H	-1.420578061	 1.6182399667	-0.9354875365	 0.127447
H	-1.1238463348	 1.3586803579	 0.7888014002	 0.129381
H	 0.1838947606	 1.9083800516	-0.2572474976	 0.127725
H	-1.1973254805	-0.8592340936	-0.262569883	 0.111729
H	 0.1001688242	-1.6092689631	-2.164703701	 0.105854
H	 2.4384396776	-0.6895325919	-2.4420203502	 0.091863
H	 1.0146034768	 2.0274945806	-2.2749866755	 0.121866
H	 2.6636728444	 1.7389529677	-2.8431025839	 0.120601
H	 1.2903069848	 1.0838651024	-3.7411514962	 0.121362
H	 3.1159396815	-0.4811855563	-0.2203172439	 0.126671
H	 2.1747872257	 0.9896057922	 0.0845226152	 0.109831
113.9001	145.6815	151.082	196.6541	235.559	237.7399	297.035	351.6684	428.0587	481.8836	555.8521	575.1504	632.5888	675.7058	746.5096	832.883	871.5117	886.5626	955.9623	971.3302	1003.6898	1036.7763	1060.0225	1099.5642	1116.4385	1125.7242	1139.0039	1190.2874	1233.9804	1249.2874	1262.6156	1301.8576	1349.1857	1378.8642	1412.4532	1416.3334	1456.875	1488.3565	1494.3245	1497.8667	1504.5968	1508.3352	2338.6329	3036.5426	3041.4205	3050.4046	3064.9239	3095.4813	3099.3401	3121.6805	3126.8891	3129.8466	3141.8136	3178.0693
CC1C2C(C)CC12C#N	C[C@H]1[C@H]2[C@@H](C)C[C@@]12C#N	
InChI=1S/C8H11N/c1-5-3-8(4-9)6(2)7(5)8/h5-7H,3H2,1-2H3	InChI=1S/C8H11N/c1-5-3-8(4-9)6(2)7(5)8/h5-7H,3H2,1-2H3/t5-,6-,7+,8+/m0/s1
