12
gdb 132716	6.05993	1.01959	0.87275	1.1648	74.4	-0.256	-0.0676	0.1884	1185.006	0.077478	-439.648007	-439.641033	-439.640089	-439.679651	26.143	
F	 0.0185476684	 0.0412647291	 0.0032150394	-0.057604
C	-0.0066323148	 1.365194444	 0.0103377475	 0.327673
C	-1.2394120943	 2.0231863842	 0.0301592255	-0.148503
N	-1.2985384426	 3.3461827724	 0.0377514074	-0.278958
C	-0.1276567172	 4.0134955882	 0.0255694377	 0.156541
C	 1.0907116492	 3.3201334848	 0.0058074331	-0.063558
N	 1.1478537407	 1.9878699526	-0.0018157841	-0.282776
C	-0.1493408259	 5.4392115844	 0.0332443853	 0.231557
C	-0.1300927046	 6.6421068689	 0.039229338	-0.364301
H	-2.1696481244	 1.4631409009	 0.0396771005	 0.137597
H	 2.0328420551	 3.8591827988	-0.0039359611	 0.137431
H	-0.1277718896	 7.7043250416	 0.0447306408	 0.204902
95.8074	146.8549	253.352	409.4814	436.7644	455.9046	470.3936	545.9118	584.4191	626.3099	658.4694	669.0531	730.1094	807.0329	891.2839	932.6187	965.4211	1037.0956	1237.7738	1261.8369	1288.4771	1335.0837	1371.8278	1504.9049	1584.9836	1607.3989	2234.6145	3178.8679	3185.1169	3501.5426
FC1=CN=C(C=N1)C#C	Fc1cnc(cn1)C#C	
InChI=1S/C6H3FN2/c1-2-5-3-9-6(7)4-8-5/h1,3-4H	InChI=1S/C6H3FN2/c1-2-5-3-9-6(7)4-8-5/h1,3-4H
