20
gdb 47501	2.65515	1.4292	1.08983	2.477	79.05	-0.2118	-0.0147	0.1971	1156.6868	0.172781	-403.156439	-403.1483	-403.147356	-403.189219	32.046	
O	 0.0296328358	-0.071456077	-0.0114688684	-0.30497
C	-0.0067592991	 1.1365305769	-0.0351005836	 0.379034
C	-1.3199751125	 1.924906052	-0.0505733294	-0.259036
N	-1.3535899911	 3.0016137813	-1.0475641272	-0.282451
C	-0.185445546	 3.8808779939	-0.9501665132	-0.249656
C	 1.1354302899	 3.1347303924	-1.0692404483	 0.361811
C	 1.709410097	 2.9172893153	-2.4503555165	-0.304086
C	 2.3767281303	 3.8737399836	-1.4875288781	-0.324819
C	 1.2483686808	 2.0046937143	-0.0503733364	-0.380541
H	-2.1458361465	 1.2295459792	-0.2180758985	 0.124513
H	-1.459524899	 2.3751598792	 0.9439834181	 0.119414
H	-1.37246531	 2.5853258723	-1.9747752274	 0.223049
H	-0.2619214708	 4.6509263295	-1.725238743	 0.101422
H	-0.2367211976	 4.3964256097	 0.019776558	 0.104149
H	 2.2054991716	 1.9753097625	-2.658999359	 0.120172
H	 1.1822905829	 3.3378753541	-3.3013213121	 0.11018
H	 2.2955471255	 4.9375381343	-1.6875198585	 0.113787
H	 3.322984944	 3.5771467393	-1.0467489438	 0.114114
H	 1.3521048084	 2.4365793151	 0.9573920898	 0.117626
H	 2.1187220762	 1.3670516321	-0.2266742725	 0.116289
77.3882	109.6857	232.5242	261.5869	338.7127	360.1328	404.3905	437.7528	476.8053	528.1727	613.7838	747.9252	775.1975	784.6016	827.9771	859.0686	906.371	932.3008	950.5416	960.3933	985.1536	1001.7533	1052.899	1082.4421	1107.875	1122.4271	1141.0471	1186.8895	1209.3936	1237.5426	1281.6173	1309.0053	1325.2005	1338.4905	1358.1075	1395.9463	1455.0334	1461.3574	1466.6353	1480.2839	1492.1436	1506.1493	1819.0791	2994.0072	3001.432	3007.4302	3069.1946	3094.8767	3107.804	3123.1653	3127.1543	3201.1311	3215.3245	3498.7696
O=C1CNCC2(CC2)C1	O=C1CNCC2(CC2)C1	
InChI=1S/C7H11NO/c9-6-3-7(1-2-7)5-8-4-6/h8H,1-5H2	InChI=1S/C7H11NO/c9-6-3-7(1-2-7)5-8-4-6/h8H,1-5H2
