19
gdb 71724	2.58017	2.02138	1.49066	1.2113	77.7	-0.2111	0.0727	0.2837	946.2995	0.159806	-385.846844	-385.839365	-385.838421	-385.878051	31.12	
C	-0.1154857383	 1.504485126	 0.0366581774	-0.518017
C	 0.0216575212	 0.0148877577	 0.0135488375	 0.317348
C	 0.8642341485	-0.8335271256	-0.9765910646	-0.146325
C	 1.1237499564	-2.1394377748	-0.243602627	-0.075566
C	 0.9652662385	-1.9533863184	 1.249177525	-0.295938
C	-0.1179900973	-0.8857098008	 1.2250586774	 0.331531
O	-0.5979148195	-0.3006280556	 2.3908724471	-0.480899
C	-1.0411696218	-1.0816860618	 0.0245303165	-0.217299
C	-0.1986196666	-1.9138233532	-0.9645739933	-0.085784
H	 0.8508369203	 1.9879524776	 0.2264836348	 0.116581
H	-0.4994901336	 1.890710566	-0.9143104525	 0.113671
H	-0.800351649	 1.8072861894	 0.8336422953	 0.133857
H	 1.4627388971	-0.4581911202	-1.7963322598	 0.082782
H	 1.8338439384	-2.8438374599	-0.6597334159	 0.084231
H	 0.6360855134	-2.8681838275	 1.7577715946	 0.087588
H	 1.8784848898	-1.5920565031	 1.7346853903	 0.103231
H	-1.1833204333	-0.9311497454	 2.8243408168	 0.284074
H	-2.1182771368	-0.9898242545	 0.0765334904	 0.080688
H	-0.5638045075	-2.5305613559	-1.7746235701	 0.084244
198.2068	205.3492	228.4517	287.6548	340.8058	377.0334	429.1381	527.6597	600.4126	632.809	715.7816	725.5624	747.8886	775.7763	830.4886	860.575	902.3667	918.0933	926.0561	950.746	972.8735	1011.4371	1029.6104	1057.2903	1065.4383	1112.5639	1125.7295	1163.1699	1186.4495	1197.6037	1226.0976	1265.6005	1281.363	1300.437	1358.5964	1368.8846	1413.5883	1457.8751	1488.1001	1492.5526	1500.056	3021.0805	3027.3656	3075.0243	3075.4781	3112.6346	3187.7527	3190.4837	3197.8669	3207.6776	3795.3981
CC12C3C4CC1(O)C2C34	C[C@@]12[C@H]3[C@H]4C[C@]1(O)[C@@H]2[C@@H]34	
InChI=1S/C8H10O/c1-7-5-3-2-8(7,9)6(7)4(3)5/h3-6,9H,2H2,1H3	InChI=1S/C8H10O/c1-7-5-3-2-8(7,9)6(7)4(3)5/h3-6,9H,2H2,1H3/t3-,4+,5-,6+,7-,8-/m0/s1
