17
gdb 86963	3.48519	0.93857	0.866	3.8582	72.25	-0.2701	-0.0166	0.2535	1349.1481	0.135433	-458.989336	-458.980737	-458.979792	-459.024433	30.93	
O	-0.6175526208	 1.3322373592	-0.6297119954	-0.428981
C	-0.0990325395	 0.1275161665	-0.0797423783	 0.100045
C	-1.1639869805	-0.9670111414	 0.1916374513	-0.271217
C	-1.0139628545	-1.9925876458	-0.9490727059	 0.065322
O	-2.0163154351	-1.7702555649	-1.9735767581	-0.19932
C	-2.849422512	-2.7772304912	-2.2918740044	 0.167589
O	-3.7071422054	-2.6728565472	-3.1160965541	-0.275031
C	 0.3461870527	-1.6908022501	-1.5269592704	-0.076795
C	 0.8492449355	-0.5577143764	-1.0405680043	-0.09775
H	-1.0095490133	 1.1141408005	-1.4839113772	 0.285873
H	 0.3933833948	 0.4398431721	 0.8459877628	 0.09502
H	-0.9628610094	-1.4574839072	 1.1486107935	 0.113487
H	-2.1697414209	-0.5451230103	 0.2318948001	 0.128006
H	-1.1125467866	-3.0265353202	-0.5974518455	 0.090908
H	-2.6498743257	-3.6998716676	-1.7112666706	 0.076869
H	 0.8001192142	-2.3240848788	-2.2805390152	 0.112301
H	 1.7905164164	-0.1055303072	-1.3316156684	 0.113674
30.5467	40.0166	151.8203	185.9143	295.2134	360.4681	376.1173	397.3942	416.9968	517.7339	648.7238	750.1544	792.3586	809.0218	829.7705	914.9654	968.242	988.5129	993.2936	1020.34	1044.4754	1063.9407	1089.5297	1135.9511	1175.7863	1207.485	1247.5346	1286.4375	1316.4052	1328.0681	1359.9958	1381.5056	1435.5642	1439.459	1467.6663	1680.2644	1864.4287	2939.563	3033.5616	3061.9906	3075.4283	3128.1276	3192.3985	3216.6646	3788.161
OC1CC(OC=O)C=C1	O[C@H]1C[C@@H](OC=O)C=C1	
InChI=1S/C6H8O3/c7-4-9-6-2-1-5(8)3-6/h1-2,4-6,8H,3H2	InChI=1S/C6H8O3/c7-4-9-6-2-1-5(8)3-6/h1-2,4-6,8H,3H2/t5-,6+/m1/s1
