19
gdb 127131	2.56491	1.50568	1.00749	1.0417	79.03	-0.2003	0.0117	0.212	1198.4566	0.160132	-415.38904	-415.379733	-415.378788	-415.423122	33.706	
C	 0.0264623509	 1.3527631328	-1.0920644177	-0.316576
N	-0.0771462156	 0.1160595517	-0.3305242295	-0.154936
C	 0.5631727891	 0.1930691842	 0.9766591375	-0.342228
C	-1.3192165135	-0.5106369403	-0.3812925871	 0.305029
N	-2.3713981294	 0.0438760549	-0.9910919075	-0.300749
N	-3.3125941965	-0.8936987367	-0.8816426461	-0.095646
N	-2.9671272595	-2.0049332332	-0.2527489601	-0.256109
C	-1.6929777319	-1.8028525743	 0.0855523803	 0.249035
C	-0.8983807565	-2.8553349132	 0.7864251387	-0.51015
H	 1.0792928358	 1.6461113629	-1.1422601058	 0.112358
H	-0.3493150781	 1.1943643979	-2.1042038234	 0.139974
H	-0.5476460949	 2.1803381844	-0.6454236907	 0.111978
H	 0.0847412258	 0.9323021934	 1.6415102232	 0.109236
H	 0.5428994015	-0.7769378325	 1.4744626845	 0.131761
H	 1.6104675769	 0.4815625551	 0.8447905623	 0.123418
H	-4.2225763507	-0.7776847422	-1.2935417754	 0.286171
H	-1.4236600756	-3.8108863671	 0.7263266815	 0.140882
H	 0.0896880992	-2.9714137025	 0.328912624	 0.13472
H	-0.7444680069	-2.6267349454	 1.8478571911	 0.131831
56.7059	154.8558	173.3563	198.9621	218.9385	239.4339	271.651	306.6815	379.0938	388.5601	433.2227	527.5995	613.7566	703.9115	714.7286	763.9288	969.9258	976.0271	1022.8657	1067.3759	1077.2845	1125.0384	1166.9683	1180.0363	1189.6651	1237.1674	1254.4662	1321.7854	1371.7673	1412.7596	1446.6854	1460.6952	1468.3449	1476.6561	1482.814	1492.4085	1495.314	1501.5564	1507.882	1558.4799	1582.8261	2962.2968	2980.5593	3028.2796	3075.4479	3077.3232	3082.1434	3129.057	3135.2767	3143.5213	3683.9125
CN(C)C1=NNN=C1C	CN(C)c1n[nH]nc1C	
InChI=1S/C5H10N4/c1-4-5(9(2)3)7-8-6-4/h1-3H3,(H,6,7,8)	InChI=1S/C5H10N4/c1-4-5(9(2)3)7-8-6-4/h1-3H3,(H,6,7,8)
