23
gdb 113089	4.73838	0.77963	0.71819	0.9857	89.37	-0.2418	0.0193	0.2611	1683.8468	0.205225	-388.297417	-388.287485	-388.286541	-388.332919	36.472	
C	-0.1160207339	 1.5326789415	 0.1540931115	-0.387567
C	-0.0429772468	 0.0098939138	 0.0085483355	-0.178252
C	 0.6649435964	-0.4662537461	-1.2713281179	-0.014224
C	 0.8636086341	-2.0029323607	-1.336820579	-0.272669
C	 0.651477794	-2.4127963978	-2.8078931438	 0.103864
O	-0.0605642308	-3.6430993559	-2.8470838698	-0.244044
C	-0.0513048209	-4.2713503361	-4.1061004711	-0.235679
C	-0.094564411	-1.2278997329	-3.3854492273	-0.106912
C	-0.0796487398	-0.1842871407	-2.5595144732	-0.06486
H	 0.8851635784	 1.9784682791	 0.1515691973	 0.113426
H	-0.6842377927	 1.9929030847	-0.6610446476	 0.116776
H	-0.602731694	 1.8160910915	 1.0924965612	 0.113069
H	 0.4877579362	-0.4090989976	 0.8732373674	 0.095429
H	-1.0538072479	-0.4174385377	 0.0335591377	 0.098227
H	 1.6452211787	 0.0348031946	-1.3105875362	 0.074219
H	 1.8284366369	-2.3276567346	-0.9403421201	 0.09581
H	 0.0805644705	-2.5013842369	-0.7554484696	 0.117047
H	 1.6128666247	-2.5531321547	-3.3340568237	 0.062229
H	-0.5682473407	-3.6813068338	-4.8782339706	 0.10303
H	 0.9750100869	-4.4665970275	-4.4570494982	 0.101148
H	-0.5721686343	-5.2260756168	-3.9959294696	 0.124993
H	-0.5448666844	-1.2435226486	-4.3716933051	 0.092107
H	-0.5210680497	 0.7833098932	-2.7751413579	 0.092832
41.7869	89.6894	101.7301	182.4869	194.8123	231.2394	257.5094	277.1922	326.8635	408.7684	483.0531	565.5229	603.9884	733.1827	778.9008	794.007	849.2687	879.557	951.5239	976.3919	979.1452	984.4005	1027.1941	1051.3174	1069.6304	1122.6236	1136.8051	1143.839	1163.0862	1182.8454	1198.4921	1234.5564	1270.5858	1283.9993	1312.5051	1314.5225	1341.9531	1368.6763	1377.4435	1399.3866	1413.1442	1478.1364	1483.4368	1488.0332	1490.2568	1500.6235	1506.967	1509.5937	1683.9346	2932.0738	2969.7286	2972.6825	3014.651	3016.8312	3031.392	3050.7821	3054.7591	3097.1558	3102.3938	3107.122	3108.1398	3176.9473	3204.062
CCC1CC(OC)C=C1	CC[C@H]1C[C@@H](OC)C=C1	
InChI=1S/C8H14O/c1-3-7-4-5-8(6-7)9-2/h4-5,7-8H,3,6H2,1-2H3	InChI=1S/C8H14O/c1-3-7-4-5-8(6-7)9-2/h4-5,7-8H,3,6H2,1-2H3/t7-,8+/m1/s1
