16
gdb 49898	3.33049	1.19014	0.91704	2.4034	74.76	-0.2285	-0.0373	0.1911	1212.4621	0.124829	-437.938878	-437.930902	-437.929958	-437.972161	29.181	
O	-0.1012070215	-0.0850777957	 0.1053263479	-0.318498
C	-0.0382503392	 1.117078632	-0.0087207649	 0.153337
N	 1.1322048068	 1.8392324543	-0.0837135717	-0.089457
C	 1.1095524905	 3.2966756634	-0.1289621015	-0.276867
C	 2.2545996567	 3.87566499	-0.9641125668	 0.379304
O	 2.0828982638	 4.8326267922	-1.6765547316	-0.291658
C	 3.6124029537	 3.2162470037	-0.7709681836	-0.369111
C	 3.5265760601	 1.8096762481	-0.2462880543	-0.153904
C	 2.3713933474	 1.196134926	 0.0157505246	 0.035776
H	-0.9269803271	 1.7729453358	-0.0684128602	 0.085708
H	 0.1619814111	 3.64836978	-0.5396336745	 0.14858
H	 1.2195885145	 3.7090199322	 0.887422147	 0.13999
H	 4.1406540748	 3.2615182629	-1.7305506417	 0.150159
H	 4.1934350369	 3.8602539202	-0.092307403	 0.146034
H	 4.4508013366	 1.2592492598	-0.1144088831	 0.110207
H	 2.2939154947	 0.161563115	 0.3231143274	 0.1504
64.3074	79.4294	192.9638	251.6742	287.0473	389.1624	414.7549	466.3571	480.3621	567.0718	642.6232	739.2965	775.0522	827.795	851.596	948.4197	975.0384	985.0898	1020.2426	1024.7128	1151.8613	1160.1514	1211.8487	1240.4566	1316.4771	1327.9389	1337.5817	1365.4208	1428.3879	1439.6324	1444.9183	1477.1918	1727.8995	1800.6674	1832.7073	2958.2509	2977.2066	2997.5192	3059.5341	3124.3499	3196.5997	3234.0214
O=CN1CC(=O)CC=C1	O=CN1CC(=O)CC=C1	
InChI=1S/C6H7NO2/c8-5-7-3-1-2-6(9)4-7/h1,3,5H,2,4H2	InChI=1S/C6H7NO2/c8-5-7-3-1-2-6(9)4-7/h1,3,5H,2,4H2
