24
gdb 115723	2.65691	1.09578	0.85795	1.0172	90.43	-0.2288	0.0796	0.3085	1463.0305	0.217536	-368.374537	-368.364942	-368.363998	-368.409304	36.311	
C	-0.0363322735	 1.5638211605	 0.0116532745	-0.387132
C	-0.1335887149	 0.0390636092	-0.1007000196	-0.162097
C	 0.7010331372	-0.5209634441	-1.2539486074	-0.011013
C	 2.2365520705	-0.5693516394	-0.979003334	-0.228535
C	 2.1066982391	-2.080725792	-0.647490486	-0.241679
C	 0.7324650325	-2.080143949	-1.3601836711	 0.065937
N	-0.3349416659	-2.8186623955	-0.7150784182	-0.059017
C	-1.4519985145	-3.2251190175	-1.5641315036	-0.225386
C	-0.4581161053	-4.2250791114	-1.0889948595	-0.225552
H	 0.9963580168	 1.891959079	 0.1729675207	 0.114069
H	-0.3966277481	 2.0515740856	-0.9014182111	 0.109625
H	-0.6357734626	 1.9385219169	 0.8474130036	 0.109234
H	 0.1775637916	-0.4252992481	 0.8424486916	 0.099005
H	-1.1804110117	-0.2536013739	-0.2417123595	 0.098886
H	 0.4135114568	-0.0134108223	-2.1815534787	 0.056085
H	 2.8300570055	-0.388901775	-1.8792021261	 0.096694
H	 2.6135497035	 0.0800832547	-0.1848727795	 0.096986
H	 2.8739424062	-2.7580031097	-1.0301428782	 0.090725
H	 1.9830403247	-2.2584852238	 0.4237690194	 0.110497
H	 0.8518573694	-2.379326379	-2.4170086498	 0.046547
H	-2.437440104	-3.1663516989	-1.1109230815	 0.114612
H	-1.4176862344	-2.9525290113	-2.6180713289	 0.10846
H	 0.2402301173	-4.6201472574	-1.825464946	 0.108193
H	-0.7038756959	-4.9098751876	-0.282407491	 0.114857
71.4816	100.4109	121.7913	131.4434	218.2187	227.9698	285.6793	313.474	395.5195	435.8658	528.7279	671.7535	742.7867	763.4841	808.6911	823.0002	882.1026	897.0274	913.603	931.7364	969.2363	977.9836	995.1064	1032.0415	1050.243	1084.6395	1102.0773	1114.161	1117.3658	1130.3165	1166.1876	1175.8453	1204.6011	1219.3496	1248.7881	1263.1725	1271.071	1280.5247	1311.6306	1323.7076	1338.8192	1383.6842	1392.4409	1411.1454	1480.3184	1481.527	1491.5305	1497.9674	1501.4149	1507.9339	1517.8234	2926.3665	3027.7453	3031.4097	3037.3211	3057.1939	3064.6946	3065.7702	3091.6791	3095.5082	3096.3247	3099.3646	3101.7522	3120.5194	3174.8056	3189.2286
CCC1CCC1N1CC1	CC[C@H]1CC[C@H]1N1CC1	
InChI=1S/C8H15N/c1-2-7-3-4-8(7)9-5-6-9/h7-8H,2-6H2,1H3	InChI=1S/C8H15N/c1-2-7-3-4-8(7)9-5-6-9/h7-8H,2-6H2,1H3/t7-,8+/m0/s1
