18
gdb 31071	2.2516	1.4788	0.90437	2.6495	77.95	-0.1671	0.0495	0.2166	1279.5925	0.147794	-435.3041	-435.294365	-435.293421	-435.339025	34.558	
C	-0.0315398488	 1.4402532872	 0.0798445239	-0.230608
O	-0.0195991712	 0.0214787439	 0.0256899501	-0.281472
C	 0.5937386262	-0.60591617	 1.0556275154	 0.309323
C	 0.7226081778	-1.9632686226	 1.1763378505	 0.1765
C	 0.2989024842	-3.0953416354	 0.3109289128	-0.514304
N	 1.4278188283	-2.1131394924	 2.3810562881	-0.347914
C	 1.6595293259	-0.8734437334	 2.8814398933	 0.376926
N	 2.2676273074	-0.6714868219	 4.1211579564	-0.597597
N	 1.1786131702	 0.0707959902	 2.100235406	-0.404775
H	 0.9845556969	 1.8498603508	 0.0851813098	 0.1232
H	-0.5598824627	 1.7692910558	-0.8171974704	 0.118148
H	-0.5522842143	 1.8031780544	 0.9726734529	 0.124963
H	 1.1467494201	-3.6868002101	-0.0607893346	 0.118317
H	-0.3836706627	-3.7891589038	 0.8205403457	 0.117403
H	-0.2288998297	-2.6944562049	-0.5575328283	 0.149943
H	 1.6015110365	-2.9820607569	 2.8565928019	 0.257203
H	 3.1734641324	-1.119888947	 4.2021138409	 0.246072
H	 2.3697313237	 0.3226453662	 4.2842631456	 0.258671
45.0714	134.7386	159.6479	184.6095	187.7555	214.0033	248.375	259.406	332.5378	387.206	442.6614	565.3153	619.1628	632.508	671.9099	722.3983	803.532	837.8865	987.5888	1052.2432	1065.7595	1073.2429	1141.7232	1180.8171	1202.5362	1211.1958	1237.0942	1324.0585	1408.9358	1429.8675	1479.3787	1481.2826	1488.5342	1496.6556	1505.9294	1523.0715	1598.0485	1650.7328	1680.5511	2999.6245	3024.4383	3036.3671	3086.5899	3122.8912	3130.0624	3519.1123	3618.9563	3667.9379
COC1=C(C)NC(N)=N1	COc1c(C)[nH]c(N)n1	
InChI=1S/C5H9N3O/c1-3-4(9-2)8-5(6)7-3/h1-2H3,(H3,6,7,8)	InChI=1S/C5H9N3O/c1-3-4(9-2)8-5(6)7-3/h1-2H3,(H3,6,7,8)
