19
gdb 74622	2.97454	1.42558	1.38607	1.0507	80.64	-0.2109	0.0248	0.2357	1050.6679	0.159795	-385.865412	-385.857636	-385.856692	-385.897118	31.61	
C	 0.0045992786	 1.5292337261	 0.0587667144	-0.499845
C	-0.0546154981	 0.0362939972	 0.0035278626	 0.313764
C	 0.0010277359	-0.7624413383	-1.0752568104	-0.185347
C	-0.0437228886	-2.1874055243	-0.6606313501	-0.165065
C	 0.8843357907	-2.6734054817	 0.5171777812	-0.115181
C	 1.4161318578	-1.4953833424	 1.3160411056	-0.22139
C	-0.0215734853	-0.8359228818	 1.2383820548	-0.227128
C	-0.5294714248	-2.2569210678	 0.7627922808	 0.385375
O	-1.5683385565	-3.0029211501	 1.267406902	-0.462069
H	 0.9029478072	 1.879861224	 0.5839294496	 0.124933
H	 0.0106391325	 1.9674816982	-0.9433306653	 0.121703
H	-0.8529863275	 1.9425907035	 0.6056121849	 0.120214
H	 0.0916737953	-0.4343538623	-2.1042860943	 0.086156
H	-0.3206393289	-2.9811312369	-1.3452683176	 0.082537
H	 1.3074703641	-3.6689331081	 0.4618174132	 0.090767
H	 1.6464759952	-1.8020883245	 2.339313711	 0.106517
H	 2.2437547557	-0.9071420056	 0.9066093711	 0.091415
H	-0.4084451367	-0.4108178949	 2.1646932777	 0.065625
H	-2.3932755166	-2.6550346804	 0.9085678987	 0.287017
147.2401	180.0976	250.2625	265.7612	335.1154	351.3786	386.9659	480.0541	552.7338	578.6169	635.8747	694.2413	759.3427	802.8851	835.7553	860.3217	899.026	911.4756	958.6798	963.4887	995.8495	1025.449	1050.4884	1059.4858	1079.7985	1118.2798	1138.6465	1141.4705	1192.0124	1204.5572	1255.6174	1272.9262	1303.3707	1316.6067	1340.738	1413.1308	1463.0294	1478.6578	1488.8694	1495.2258	1679.9597	3010.7915	3043.5294	3053.3585	3103.5778	3104.6983	3114.0695	3178.6899	3190.8167	3198.6853	3780.3519
CC1=CC2C3CC1C23O	CC1=C[C@H]2[C@H]3C[C@@H]1[C@@]23O	
InChI=1S/C8H10O/c1-4-2-6-7-3-5(4)8(6,7)9/h2,5-7,9H,3H2,1H3	InChI=1S/C8H10O/c1-4-2-6-7-3-5(4)8(6,7)9/h2,5-7,9H,3H2,1H3/t5-,6-,7+,8+/m0/s1
