17
gdb 87083	4.22383	0.72171	0.68829	6.2147	90.69	-0.2522	-0.0392	0.2131	1648.9726	0.134077	-380.828787	-380.819236	-380.818291	-380.863493	34.088	
C	-0.2410149528	 1.4200954641	-0.0538387439	-0.318966
N	 0.0432733839	-0.0047250095	 0.0460164656	-0.090874
C	 1.3931914687	-0.4676588902	-0.1913466255	-0.265397
C	 0.8103130505	-0.5202690291	 1.1987517527	 0.04516
C	 1.366333661	 0.3877552028	 2.2872351436	-0.466431
C	 0.3207009042	-1.7846143403	 1.6876812979	 0.078211
C	-0.0698391746	-2.8410933699	 2.1277238568	 0.118584
C	-0.5137933903	-4.0356667927	 2.6147730001	 0.192
N	-0.889774368	-5.0529230773	 3.0324570458	-0.339351
H	 0.6041035943	 2.0779348593	 0.1965619931	 0.106508
H	-0.5380183401	 1.6317552601	-1.0853812769	 0.138798
H	-1.0832240215	 1.6678628583	 0.5985161717	 0.136526
H	 1.4967654555	-1.3752555705	-0.779103474	 0.132655
H	 2.1787203962	 0.2735563918	-0.3411451013	 0.116817
H	 1.8100346972	 1.2925152977	 1.8688168094	 0.130074
H	 0.5809628033	 0.6769283933	 2.9921103562	 0.141034
H	 2.1430239723	-0.1393388678	 2.8481810288	 0.144654
77.3234	78.8305	168.0762	173.0267	196.062	223.5117	293.297	309.2389	361.1042	434.0451	513.2181	532.1879	578.745	589.8	608.1216	749.6091	810.2326	924.9492	961.9037	1061.4073	1064.7497	1090.4074	1124.987	1142.7923	1174.7677	1202.6027	1292.4702	1362.4206	1412.4995	1451.1726	1482.114	1484.9721	1495.9551	1502.1157	1510.7047	2261.9696	2394.2766	2992.3036	3050.1087	3079.33	3082.6955	3113.7228	3116.3866	3139.5901	3183.2109
CN1CC1(C)C#CC#N	CN1C[C@]1(C)C#CC#N	
InChI=1S/C7H8N2/c1-7(4-3-5-8)6-9(7)2/h6H2,1-2H3	InChI=1S/C7H8N2/c1-7(4-3-5-8)6-9(7)2/h6H2,1-2H3/t7-,9?/m0/s1
