17
gdb 88305	2.5232	1.11354	0.96962	1.9438	74.49	-0.2615	-0.0443	0.2172	1278.0208	0.13459	-418.011042	-418.001759	-418.000815	-418.04637	32.782	
C	 0.9048861547	 1.8539122595	-0.2187415745	-0.406843
C	 0.0543165494	 0.6665999974	 0.15333925	 0.012925
N	 0.6406083335	-0.6560131385	 0.0021803784	-0.311898
C	 0.3158997887	-0.200959355	 1.3662213297	-0.152983
C	 1.4602712593	 0.0697614297	 2.2853565844	 0.416354
O	 2.5898755351	 0.2897123039	 1.9291112268	-0.293085
C	 1.1366894476	 0.0431845813	 3.8025065999	-0.436954
C	-0.1323016594	 0.6645574289	 4.1596430631	 0.258814
N	-1.1433014847	 1.1621918366	 4.4171437619	-0.307337
H	 1.9464849979	 1.6847528997	 0.0564500182	 0.163033
H	 0.854424801	 2.0173222888	-1.3003890954	 0.125891
H	 0.5421153862	 2.7599000084	 0.2772910051	 0.123896
H	-1.0064517009	 0.7716070423	-0.0737519171	 0.102882
H	-0.0526689689	-1.3369836803	-0.2969054776	 0.242454
H	-0.5705320315	-0.6046332156	 1.8489565801	 0.107107
H	 1.1169873459	-1.008179222	 4.1191765158	 0.176346
H	 1.9639391761	 0.5284667848	 4.3256912913	 0.179398
37.3839	54.5518	131.8242	170.978	212.0437	253.6152	332.634	379.2395	382.4903	433.8779	484.624	585.4362	692.1599	753.5944	811.4503	842.5254	927.9949	948.8718	968.6326	1002.3811	1022.1199	1078.3978	1111.0555	1151.3541	1191.1467	1213.2519	1236.0231	1261.6028	1282.6847	1400.7975	1432.9439	1441.4572	1462.9167	1494.5242	1501.7998	1820.1191	2359.0781	3037.6751	3042.7022	3103.4033	3108.5773	3114.9067	3142.3446	3155.4314	3505.6954
CC1NC1C(=O)CC#N	C[C@H]1N[C@H]1C(=O)CC#N	
InChI=1S/C6H8N2O/c1-4-6(8-4)5(9)2-3-7/h4,6,8H,2H2,1H3	InChI=1S/C6H8N2O/c1-4-6(8-4)5(9)2-3-7/h4,6,8H,2H2,1H3/t4-,6-/m1/s1
