20
gdb 110038	2.02692	1.71544	1.06969	2.0829	76.98	-0.2512	0.0179	0.2692	1184.2982	0.171032	-440.29855	-440.289263	-440.288319	-440.332658	33.91	
C	-0.3766894665	 1.3031033692	-0.0308758963	-0.24179
O	-0.059156871	-0.0776059122	 0.0246592098	-0.257291
C	 0.7081424098	-0.5399430173	-1.0740557808	 0.027659
C	 1.1512302938	-1.9825794341	-0.7910373193	-0.029331
C	 1.6133623883	-2.2757709712	 0.6324022889	-0.416444
C	-0.0943449158	-2.7613431824	-1.2414943383	-0.089511
O	-0.6396358278	-2.0056810674	-2.3392429507	-0.243785
C	-0.1831150433	-0.7215855492	-2.2975840783	 0.409105
N	-0.48079175	 0.1828278141	-3.1292993605	-0.544659
H	 0.5362015373	 1.9176888209	-0.0263954521	 0.106404
H	-0.9586929082	 1.5530515717	-0.9249735731	 0.142737
H	-0.9610183159	 1.5252521347	 0.8650139584	 0.123375
H	 1.5364497973	 0.1471948358	-1.2861634873	 0.086334
H	 1.9589759076	-2.2083988522	-1.4984826939	 0.09114
H	 0.8420087839	-2.0021388068	 1.3549177585	 0.141579
H	 1.8457704401	-3.3390099082	 0.7527705665	 0.114334
H	 2.5174236469	-1.7086891047	 0.8737789158	 0.121418
H	 0.1217624524	-3.7690548968	-1.6037576881	 0.117023
H	-0.8421852871	-2.8193512851	-0.4419746948	 0.120847
H	-1.1318925617	-0.1770566988	-3.8311682445	 0.220856
79.9241	121.7344	170.8829	184.3973	203.1112	209.8911	252.082	294.7489	386.9464	436.5078	517.3468	622.6181	677.0806	701.8874	874.7394	891.5164	901.7185	938.1981	960.4686	968.9921	1011.4042	1077.9152	1111.4311	1127.1071	1151.6827	1180.2141	1188.0142	1212.9869	1239.3184	1272.7683	1295.9875	1348.4501	1363.1598	1368.5838	1410.022	1420.2112	1478.9501	1482.6946	1494.1161	1503.4991	1514.1847	1517.4023	1768.7127	2991.9629	3026.5557	3038.0628	3043.2312	3044.2772	3070.0857	3104.7928	3106.695	3123.7749	3136.9949	3454.2425
COC1C(C)COC1=N	CO[C@H]1[C@@H](C)CO[C]1[NH]	
InChI=1S/C6H11NO2/c1-4-3-9-6(7)5(4)8-2/h4-5,7H,3H2,1-2H3	InChI=1S/C6H11NO2/c1-4-3-9-6(7)5(4)8-2/h4-5,7H,3H2,1-2H3/t4-,5-/m0/s1
