17
gdb 74663	3.60244	1.50247	1.44625	2.4246	71.74	-0.2343	0.0329	0.2672	968.8421	0.137718	-417.97783	-417.97075	-417.969806	-418.009279	27.953	
C	 0.0718839642	 1.4404100391	 0.0639636316	-0.479195
C	 0.0262999208	-0.042789011	-0.0517315337	 0.432675
N	-0.0544053246	-0.7166804577	-1.1303220977	-0.305933
C	 0.0025517627	-2.113037867	-0.7336312954	-0.040729
C	 1.3925262967	-2.7999963025	-0.7409015112	-0.047402
N	 2.321226005	-1.8920928698	-0.0424405812	-0.32361
C	 1.4493657444	-2.7753896174	 0.757899797	-0.081519
C	 0.0733833446	-2.0940943075	 0.8278747388	 0.069817
O	 0.0502041125	-0.7035290838	 1.1549605458	-0.259972
H	 1.0246928798	 1.7480536248	 0.5059315174	 0.150783
H	-0.0329222682	 1.8888639955	-0.9232709444	 0.149085
H	-0.7257659712	 1.7969957652	 0.7228555421	 0.13956
H	-0.780817991	-2.7177798117	-1.1949688275	 0.080226
H	 1.7559331542	-3.5448968907	-1.4378590595	 0.097623
H	 3.2438646464	-2.3235110313	-0.0672317782	 0.235311
H	 1.8643494559	-3.4912472616	 1.4567305602	 0.094499
H	-0.683930572	-2.6254166327	 1.4054880058	 0.088782
122.8638	147.3273	217.4306	319.6708	330.6272	493.7567	561.2742	620.4865	658.0224	718.0918	764.2066	815.1283	873.518	874.0538	889.4442	913.4326	961.2301	964.8375	991.5965	1018.109	1051.5178	1066.2065	1096.5629	1100.6953	1125.5071	1177.9823	1214.5864	1243.1116	1265.6528	1319.2664	1321.4241	1364.1277	1379.8433	1409.4713	1473.3957	1476.0617	1716.2935	3051.7013	3088.5032	3108.1336	3110.3133	3165.7471	3184.7407	3198.1282	3487.3518
CC1=NC2C3NC3C2O1	CC1=N[C@H]2[C@H]3N[C@H]3[C@H]2O1	
InChI=1S/C6H8N2O/c1-2-7-4-3-5(8-3)6(4)9-2/h3-6,8H,1H3	InChI=1S/C6H8N2O/c1-2-7-4-3-5(8-3)6(4)9-2/h3-6,8H,1H3/t3-,4+,5-,6+/m1/s1
