19
gdb 120782	3.13337	0.89765	0.78041	2.6575	72.19	-0.2593	0.0703	0.3296	1486.2914	0.157649	-460.105786	-460.096418	-460.095474	-460.141041	33.38	
O	-0.0507263864	 1.2899134812	 0.5249099206	-0.419988
C	-0.1960691918	-0.1192424869	 0.4639829017	-0.053914
C	-1.4245267494	-0.5471516174	-0.347987041	-0.261585
C	-1.512665545	-2.0474204137	-0.4709030826	 0.055704
O	-1.9539699562	-2.7850766287	 0.6852855108	-0.25861
C	-2.7600964247	-2.8344957919	-0.4854396772	 0.018596
C	-4.1533190363	-2.2863026679	-0.4002222946	 0.045781
C	-4.9125611513	-2.3476242658	 0.8580822503	-0.174318
O	-4.3926044129	-1.1103401835	 0.3648847845	-0.223657
H	-0.8137866214	 1.6416886595	 0.9946366771	 0.283155
H	 0.7203773801	-0.4903320359	-0.0093012876	 0.106675
H	-0.2467337515	-0.5658242218	 1.4684046496	 0.104705
H	-2.3335399597	-0.1679792631	 0.1238811039	 0.132673
H	-1.3547175278	-0.107096039	-1.3505790474	 0.106607
H	-0.6529929325	-2.513782385	-0.9597959844	 0.091545
H	-2.7346854944	-3.7933812876	-1.0115074565	 0.092146
H	-4.7048941423	-2.3337108463	-1.3407856652	 0.100914
H	-5.9966802714	-2.4404977988	 0.8340444442	 0.118484
H	-4.4147116553	-2.7314569173	 1.7455041338	 0.135087
60.068	83.0111	97.0399	126.2484	214.0284	223.6418	310.2154	319.5761	375.9083	488.2255	546.4392	661.7918	743.0247	783.2658	837.9599	865.5154	913.347	964.2783	978.6723	1020.0237	1059.3584	1078.183	1094.6307	1103.4743	1140.6185	1145.5943	1168.5657	1170.8784	1208.0433	1276.2012	1293.1744	1302.2955	1323.2786	1388.3973	1410.3947	1423.0259	1432.3857	1479.4729	1493.6832	1515.0174	1519.3216	2994.2167	3040.8991	3060.5291	3062.0909	3075.2927	3094.6461	3102.4145	3123.3236	3192.7862	3815.3922
OCCC1OC1C1CO1	OCC[C@H]1O[C@H]1[C@H]1CO1	
InChI=1S/C6H10O3/c7-2-1-4-6(9-4)5-3-8-5/h4-7H,1-3H2	InChI=1S/C6H10O3/c7-2-1-4-6(9-4)5-3-8-5/h4-7H,1-3H2/t4-,5-,6-/m1/s1
