14
gdb 9198	5.15886	1.0196	0.98722	3.3692	58.83	-0.2601	-0.0101	0.25	1179.0429	0.106357	-415.887945	-415.879226	-415.878282	-415.923047	28.88	
N	 0.2266070301	 1.1192234953	-0.476942467	-0.483888
C	-0.1402137151	-0.0064290654	 0.3579200335	-0.27487
C	-1.5138948282	-0.6035548209	 0.0755896194	 0.430372
O	-2.2915397468	-0.2196249758	-0.7556162103	-0.343209
O	-1.7594943467	-1.6521879512	 0.9121144561	-0.233189
C	-3.016467588	-2.3083783316	 0.728756567	-0.197856
C	-2.9260402219	-3.3707123207	-0.278885826	 0.268454
N	-2.861430161	-4.2178009197	-1.0608721123	-0.291215
H	 0.2053862169	 0.837442271	-1.4528327144	 0.241758
H	-0.4781589029	 1.8463486437	-0.3945498328	 0.239296
H	 0.5980465897	-0.8100386866	 0.2538730355	 0.150972
H	-0.1130409044	 0.2821114027	 1.4154407947	 0.14558
H	-3.2786490956	-2.7432742967	 1.695500701	 0.167547
H	-3.7795054362	-1.587466104	 0.4241233957	 0.180246
30.0308	55.3284	76.3918	210.0196	215.15	263.5374	335.2478	370.0278	409.7757	560.2876	622.7567	677.6467	853.9961	918.9297	923.6448	930.185	1021.8657	1048.5216	1152.7365	1174.2204	1183.3453	1298.0751	1368.597	1388.1034	1400.6424	1451.9131	1457.6737	1678.228	1837.6841	2369.0442	3044.3504	3076.8518	3080.7181	3131.2285	3499.3829	3569.341
NCC(=O)OCC#N	NCC(=O)OCC#N	
InChI=1S/C4H6N2O2/c5-1-2-8-4(7)3-6/h2-3,6H2	InChI=1S/C4H6N2O2/c5-1-2-8-4(7)3-6/h2-3,6H2
