21
gdb 73542	2.4867	1.94252	1.58787	1.3786	82.02	-0.2431	0.0851	0.3282	967.7737	0.184156	-387.025729	-387.018164	-387.01722	-387.057216	31.435	
C	-0.1434235524	 1.5864818207	-0.1210568559	-0.476202
C	-0.0019138977	 0.0777335673	 0.0155638565	 0.467436
O	-1.3046654491	-0.482238653	 0.1794769889	-0.3361
C	-1.4683493047	-0.8055495901	 1.5834391982	-0.079073
C	-0.0902874165	-0.6313064184	 2.3255738312	-0.397275
C	 0.8032060681	-0.6310448113	 1.1126193215	 0.299454
C	 2.1068572355	-0.1191467567	 0.4322444606	-0.33315
C	 1.1775420166	-0.6474446708	-0.7363156563	-0.130772
C	 0.9063791687	-1.8744733058	 0.1572909067	-0.255457
H	 0.7909236891	 2.0911806591	-0.3758151624	 0.114186
H	-0.8625729764	 1.7899181428	-0.9206508981	 0.12955
H	-0.5428221317	 2.0370369866	 0.7948046031	 0.111818
H	-2.2414668798	-0.1587742525	 2.0140875441	 0.103366
H	-1.817653306	-1.8417983147	 1.6475052873	 0.107081
H	-0.05103842	 0.3194556581	 2.8666342098	 0.109025
H	 0.0847411675	-1.44024277	 3.039130436	 0.107055
H	 2.3220734541	 0.9485404161	 0.4806787514	 0.099111
H	 3.01000112	-0.7089537109	 0.6040137966	 0.097218
H	 1.4149716755	-0.6362457693	-1.8018150101	 0.069181
H	 1.7564459164	-2.5367822763	 0.3394882869	 0.082515
H	-0.008725517	-2.4298330409	-0.039962816	 0.111033
135.6283	188.1323	208.6714	312.2218	348.9214	408.108	456.5508	532.596	569.6596	627.1717	696.7006	734.4307	796.2757	823.4472	843.0591	882.5106	900.3273	927.8046	950.7702	960.1837	994.4116	1000.8853	1021.1227	1062.346	1092.4273	1124.0889	1144.3992	1148.2397	1166.1627	1184.8158	1200.575	1204.4053	1226.9189	1233.5919	1270.1885	1286.592	1324.7672	1377.8636	1409.6324	1482.2364	1487.046	1490.4884	1502.38	1521.9738	1538.6554	3028.681	3034.5841	3052.0156	3066.4304	3067.8975	3071.6056	3094.8671	3096.6148	3105.8106	3120.4729	3141.6372	3155.007
CC12OCCC11CC2C1	C[C@]12OCC[C@@]31C[C@H]2C3	
InChI=1S/C8H12O/c1-7-6-4-8(7,5-6)2-3-9-7/h6H,2-5H2,1H3	InChI=1S/C8H12O/c1-7-6-4-8(7,5-6)2-3-9-7/h6H,2-5H2,1H3/t6-,7-,8+/m1/s1
