21
gdb 87708	2.35161	1.33671	1.20952	2.19	78.62	-0.2462	0.0536	0.2998	1175.4826	0.181267	-424.199356	-424.189914	-424.18897	-424.233323	36.168	
C	-0.1143530964	 1.4603094025	-0.0494486948	-0.413943
C	 0.0469732206	-0.0413034699	 0.0268007688	-0.043432
C	 1.4014995001	-0.6799431115	-0.1884033704	-0.381128
C	 0.7691836149	-0.7079889822	 1.1686344159	 0.293728
C	 1.1957227759	-0.0594822091	 2.4951549758	-0.355491
C	 0.2230318754	-1.0227380594	 3.2231236592	 0.089811
O	-1.0679042046	-0.4722924588	 3.4701760763	-0.446206
C	 0.1949288287	-1.916218246	 1.9406809106	 0.073653
O	-1.0501106426	-2.4395183888	 1.5818470008	-0.432054
H	 0.7675863335	 1.9778375265	 0.3420411112	 0.116953
H	-0.2557777859	 1.7884701545	-1.0848958086	 0.124632
H	-0.9839343626	 1.8080251279	 0.5230140563	 0.104093
H	-0.7999264382	-0.6136730037	-0.3450727552	 0.098309
H	 1.45606564	-1.6100716613	-0.7461496595	 0.114886
H	 2.2489917793	-0.0169312135	-0.3411202102	 0.105369
H	 2.2412097185	-0.2533583803	 2.7542298377	 0.112275
H	 1.0006681019	 1.0088273433	 2.637808508	 0.100697
H	 0.5493232297	-1.4821534799	 4.1584900036	 0.084466
H	-1.1862304856	 0.2910831211	 2.8948401741	 0.292898
H	 0.9160142417	-2.7404429123	 1.9937027916	 0.079729
H	-1.6961677544	-1.8996938391	 2.0619973488	 0.280754
68.1431	133.2939	180.2243	198.1663	220.5755	237.9176	266.8829	377.8919	395.2275	450.1983	491.5861	526.3275	565.6414	657.9082	771.3835	786.7932	842.1072	848.8482	890.9423	903.4031	944.6311	996.2086	1017.4673	1053.8136	1083.3793	1105.1692	1121.018	1126.5386	1160.28	1172.4274	1185.4007	1228.2923	1238.54	1267.3803	1308.2593	1334.0585	1334.8151	1405.5517	1413.1194	1431.2862	1437.2593	1480.6972	1489.6871	1492.1254	1506.078	3017.0461	3037.2067	3042.7321	3076.2753	3086.0385	3094.1549	3096.6757	3113.0561	3137.2946	3197.0847	3711.403	3811.0273
CC1CC11CC(O)C1O	C[C@H]1C[C@]21C[C@@H](O)[C@H]2O	
InChI=1S/C7H12O2/c1-4-2-7(4)3-5(8)6(7)9/h4-6,8-9H,2-3H2,1H3	InChI=1S/C7H12O2/c1-4-2-7(4)3-5(8)6(7)9/h4-6,8-9H,2-3H2,1H3/t4-,5+,6+,7+/m0/s1
