20
gdb 88629	3.50834	1.12217	1.03585	2.3469	79.24	-0.2177	0.0748	0.2925	1235.8378	0.170965	-403.059009	-403.050665	-403.049721	-403.092542	31.834	
C	-0.3811716722	 1.306320213	 0.1348443282	-0.303149
N	 0.0491714517	-0.0840224286	 0.1209762995	-0.092033
C	 1.4331955061	-0.3469741302	-0.2558047212	-0.268525
C	 0.9875266015	-0.5485892196	 1.1535423589	 0.004838
C	 1.4973508724	 0.332651803	 2.2519316373	-0.063817
C	 0.7353169909	 0.6274373118	 3.5423034998	-0.147831
C	 0.0262272441	-0.6332445786	 4.0253785309	-0.096683
O	 1.2540434178	-1.409201639	 3.920444286	-0.282092
C	 1.9776797721	-0.2297340303	 3.5602743471	 0.062078
H	 0.4015265273	 2.0277095018	 0.4187292803	 0.093819
H	-0.7354240355	 1.572385649	-0.8663246948	 0.121283
H	-1.2179147799	 1.4214718505	 0.8312815234	 0.120563
H	 1.6011721828	-1.1938514513	-0.9164900607	 0.113226
H	 2.0783540843	 0.5108612029	-0.4491532439	 0.099755
H	 0.7864806692	-1.5650160053	 1.4810561395	 0.108446
H	 2.0841299685	 1.1936146055	 1.9420516096	 0.095153
H	 0.5619580817	 1.6319391622	 3.9037377638	 0.098993
H	-0.2955717772	-0.577267505	 5.0708100821	 0.112409
H	-0.7813200709	-1.0409141375	 3.407350869	 0.118188
H	 2.969089085	-0.0992350844	 3.9794397353	 0.105379
42.574	136.9257	169.9642	207.4965	250.3882	311.6511	392.0897	419.8059	554.8439	575.8053	742.2354	771.8807	799.488	807.3074	864.027	907.7626	953.9839	965.2774	985.3396	1011.5044	1033.3969	1053.6323	1061.543	1069.2264	1107.8465	1115.8046	1130.6351	1149.1217	1164.7121	1170.7438	1206.5182	1218.3352	1259.6455	1307.4196	1318.8109	1330.605	1378.3346	1450.1926	1461.6201	1491.3994	1497.7952	1512.968	1514.9015	2975.9656	3032.2305	3065.0618	3079.1044	3082.1973	3099.9418	3140.3384	3147.4809	3168.5821	3174.4139	3204.1379
CN1CC1C1C2COC12	CN1C[C@H]1[C@H]1[C@H]2CO[C@@H]12	
InChI=1S/C7H11NO/c1-8-2-5(8)6-4-3-9-7(4)6/h4-7H,2-3H2,1H3	InChI=1S/C7H11NO/c1-8-2-5(8)6-4-3-9-7(4)6/h4-7H,2-3H2,1H3/t4-,5+,6-,7-,8?/m1/s1
