21
gdb 53447	4.38327	0.76762	0.68602	1.3323	88.26	-0.2409	0.0617	0.3026	1685.4175	0.183199	-387.081197	-387.071762	-387.070818	-387.117166	34.347	
C	-0.0060385966	 1.5057281162	 0.0015333457	-0.50005
C	 0.0159424462	 0.0496026384	 0.0100855355	 0.134221
C	 0.0388598038	-1.1547797133	 0.0102044485	 0.003788
C	 0.0496652196	-2.6140350918	 0.0353706204	-0.175307
C	 0.7121605782	-3.1730818582	 1.3161192989	-0.19615
C	 0.6306132504	-4.7007562868	 1.3308369843	-0.082581
O	-0.7040131693	-5.1632867678	 1.2188177426	-0.242205
C	-1.3137379982	-4.7378899402	 0.0125908301	-0.08258
C	-1.3701918557	-3.2128509245	-0.0956916612	-0.196151
H	 0.566647378	 1.9089339321	-0.8411892838	 0.146005
H	-1.0292872005	 1.8888183767	-0.081532222	 0.146371
H	 0.426087436	 1.9166687143	 0.9208199949	 0.146372
H	 0.6387756244	-2.9718519284	-0.8234577391	 0.094366
H	 1.7569774083	-2.850659832	 1.3762724382	 0.101793
H	 0.192247137	-2.7720057009	 2.1932920845	 0.111693
H	 1.2429973471	-5.1152690097	 0.5098147107	 0.082064
H	 1.0168751878	-5.1043571193	 2.2713584032	 0.106399
H	-0.7668667221	-5.1536548975	-0.8528478495	 0.082064
H	-2.3195226656	-5.1680746712	 0.0093228326	 0.106399
H	-2.0030603832	-2.8139316738	 0.7048987517	 0.111695
H	-1.8208993658	-2.9189896224	-1.0494866162	 0.101792
16.6533	80.9118	87.7282	203.5487	237.4026	287.6875	316.3659	340.7173	401.1752	461.1341	494.5728	525.5963	568.8164	789.6629	818.8813	837.6181	892.1053	912.4535	994.3663	1016.1774	1034.5746	1053.1753	1053.6571	1095.6955	1134.107	1155.8914	1178.7594	1189.0245	1261.9892	1275.9953	1296.7963	1317.4619	1343.1334	1355.3017	1385.303	1389.5351	1415.0211	1424.4553	1471.845	1479.2879	1479.2896	1484.7856	1491.6875	1503.4317	2369.7682	2942.7979	2949.3027	2979.8352	3024.7139	3040.0644	3042.6999	3080.7457	3083.6177	3084.5384	3084.6441	3087.8053	3090.6825
CC#CC1CCOCC1	CC#CC1CCOCC1	
InChI=1S/C8H12O/c1-2-3-8-4-6-9-7-5-8/h8H,4-7H2,1H3	InChI=1S/C8H12O/c1-2-3-8-4-6-9-7-5-8/h8H,4-7H2,1H3
