19
gdb 76175	2.09354	1.44767	1.21041	6.1114	77.4	-0.2454	0.0257	0.271	1150.2805	0.157434	-419.206877	-419.19689	-419.195946	-419.240994	37.21	
C	-0.0795943065	 1.4961992797	 0.1542509022	-0.425614
C	 0.0111191122	-0.0054380824	 0.0071884194	-0.104454
C	 0.6699670486	-0.6937262024	-1.1679708203	 0.193355
C	 0.049503533	-1.9510709157	-1.7360201182	-0.470307
N	 1.4010268892	 0.1488284843	-2.0900226429	-0.563901
C	 1.3546713938	-0.7106222806	 0.2179881446	 0.24554
O	 2.4976689644	 0.0633415073	 0.3488529197	-0.462671
C	 1.3888207695	-1.9337901579	 0.9805026688	 0.273358
N	 1.3810308248	-2.9221158787	 1.5823703362	-0.360889
H	 0.8750201124	 1.9785235043	-0.0620852299	 0.134714
H	-0.8432614353	 1.9138849	-0.5114615604	 0.116174
H	-0.356484305	 1.757691476	 1.1798263381	 0.136978
H	-0.845764296	-0.5512329521	 0.3929538659	 0.106517
H	-0.7538903598	-1.6992640259	-2.4377524782	 0.119344
H	 0.7973008492	-2.5469938242	-2.2727134389	 0.125584
H	-0.3683219407	-2.5844040965	-0.9499202816	 0.148542
H	 1.7826915615	-0.4005903381	-2.8523948982	 0.245162
H	 0.8163321362	 0.8745495385	-2.4904602163	 0.248468
H	 2.6680765083	 0.3872662745	-0.5567247001	 0.294098
123.1868	130.3812	152.0037	201.2758	211.1681	228.4172	240.6853	285.2986	312.9522	379.3364	445.55	476.1511	532.5742	578.5271	605.8781	629.5732	698.5694	744.9476	777.352	861.	978.1951	989.6252	1031.4236	1066.2757	1091.5482	1117.641	1149.5265	1187.5329	1257.2014	1292.1218	1325.5284	1404.2605	1414.2136	1422.4932	1451.3929	1489.5477	1491.9659	1496.3534	1503.7193	1651.4007	2346.22	3025.7275	3038.9279	3085.9728	3099.7814	3123.9238	3134.9264	3151.9393	3509.052	3573.3321	3589.013
CC1C(C)(N)C1(O)C#N	C[C@H]1[C@@](C)(N)[C@]1(O)C#N	
InChI=1S/C6H10N2O/c1-4-5(2,8)6(4,9)3-7/h4,9H,8H2,1-2H3	InChI=1S/C6H10N2O/c1-4-5(2,8)6(4,9)3-7/h4,9H,8H2,1-2H3/t4-,5+,6-/m0/s1
