18
gdb 91275	2.84193	1.53039	1.25831	2.8938	72.66	-0.2597	0.0238	0.2836	1048.9401	0.148602	-439.096508	-439.088703	-439.087759	-439.129231	29.832	
C	 0.2252574065	 1.5550088661	-0.0708919468	-0.406466
C	 0.0824759422	 0.0583738838	 0.0832981246	 0.129795
O	 0.9021541068	-0.6975241591	-0.8516096203	-0.31493
C	 1.3922002442	-1.5636356431	 0.195673352	 0.096488
C	 2.8900477764	-1.4564523917	 0.4189030244	-0.321146
C	 3.0381076844	-0.2739528344	 1.3569227942	 0.408795
N	 4.116157188	 0.3107420933	 1.6451188134	-0.53195
O	 1.811895418	 0.0600582272	 1.8869572099	-0.244449
C	 0.7516058763	-0.6654128007	 1.2743451692	 0.021992
H	 1.2575506867	 1.8711665491	 0.09167541	 0.137122
H	-0.0770486109	 1.8507072224	-1.0799912565	 0.131743
H	-0.417871701	 2.0752191005	 0.6464567432	 0.122488
H	-0.9701476867	-0.2445143301	-0.0143582773	 0.078276
H	 1.015763827	-2.5853118712	 0.0908430314	 0.085198
H	 3.2915274179	-2.3546508848	 0.8999604278	 0.134012
H	 3.4389350101	-1.2944475135	-0.5098843011	 0.153306
H	 3.9506636423	 1.0670351015	 2.3113058026	 0.224124
H	 0.1108295715	-1.0817020455	 2.0523019993	 0.095602
78.4775	88.0191	199.5285	244.1538	355.5339	376.5107	428.418	522.2727	552.6019	629.7083	688.4764	807.0216	834.0163	848.1181	872.2121	897.0956	913.8069	925.5222	997.6602	1019.8035	1041.381	1063.6096	1102.2437	1139.4515	1158.3021	1176.0135	1233.6307	1251.9506	1280.852	1294.88	1332.0568	1343.8307	1378.5206	1393.6266	1414.1459	1449.0917	1484.0432	1491.275	1781.6733	2998.8684	3045.3679	3057.3669	3070.7053	3108.4531	3113.4584	3132.091	3137.95	3475.0144
CC1OC2CC(=N)OC12	C[C@H]1O[C@H]2C[C]([NH])O[C@@H]12	
InChI=1S/C6H9NO2/c1-3-6-4(8-3)2-5(7)9-6/h3-4,6-7H,2H2,1H3	InChI=1S/C6H9NO2/c1-3-6-4(8-3)2-5(7)9-6/h3-4,6-7H,2H2,1H3/t3-,4+,6+/m1/s1
