21
gdb 75829	2.39535	1.61677	1.1703	2.769	81.81	-0.2377	-0.015	0.2228	1132.666	0.181915	-387.125313	-387.116395	-387.115451	-387.15852	34.635	
C	 0.1368356249	 1.6433931761	-0.0098865281	-0.40066
C	 0.1239546282	 0.1149611329	 0.0340118604	-0.154236
C	 0.8388305598	-0.5227299638	-1.1712711108	 0.371989
O	 0.8890984842	-0.0485992633	-2.2767303258	-0.313924
C	 1.4805742663	-1.8462990393	-0.7328813829	-0.33309
C	 1.5688131378	-1.744293967	 0.7759629698	-0.085487
C	 2.2569984612	-0.5154940195	 1.3242642137	-0.337776
C	 0.7472416316	-0.5552520964	 1.2544437849	 0.354048
C	-0.0570698345	-0.6047597481	 2.53155448	-0.484708
H	 1.1483795796	 2.0311393675	 0.1467543492	 0.119937
H	-0.2076184833	 1.9900281448	-0.9875806813	 0.136682
H	-0.5120088365	 2.0686498293	 0.7612164103	 0.112519
H	-0.9219559702	-0.2273504447	-0.03962077	 0.096723
H	 0.8183213852	-2.6658954568	-1.0427233463	 0.126515
H	 2.4353371912	-1.9920305298	-1.2471287738	 0.128143
H	 1.5952904256	-2.6555177888	 1.3634519324	 0.084761
H	 2.710332845	-0.5898132199	 2.30684414	 0.112173
H	 2.8077576371	 0.1199468841	 0.6351756099	 0.114948
H	-0.2322511612	 0.3995040102	 2.9345608279	 0.121787
H	-1.0360818748	-1.0706127697	 2.3664295792	 0.114597
H	 0.4615092329	-1.1826999179	 3.3033320711	 0.115058
76.3999	176.9189	190.3686	220.2582	234.5132	256.7532	301.7806	394.0866	452.8605	480.1607	530.6471	571.4175	639.8062	697.6348	770.8488	828.9308	868.2256	872.324	920.6412	950.8669	1000.1765	1017.5794	1053.5352	1058.9657	1087.312	1101.6475	1106.8784	1124.412	1165.6718	1193.9077	1224.0676	1279.8606	1304.0149	1308.8542	1345.0627	1401.0908	1404.1672	1422.5624	1454.6369	1488.3977	1490.3086	1494.1557	1498.2601	1503.1597	1842.26	2972.7191	3020.6416	3028.3714	3042.5193	3079.5954	3086.3482	3095.971	3109.9848	3115.041	3124.5733	3165.846	3203.3228
CC1C(=O)CC2CC12C	C[C@H]1C(=O)C[C@H]2C[C@@]12C	
InChI=1S/C8H12O/c1-5-7(9)3-6-4-8(5,6)2/h5-6H,3-4H2,1-2H3	InChI=1S/C8H12O/c1-5-7(9)3-6-4-8(5,6)2/h5-6H,3-4H2,1-2H3/t5-,6-,8-/m0/s1
