19
gdb 79189	2.66321	1.8567	1.52461	2.3825	72.59	-0.236	0.07	0.306	945.3739	0.160721	-422.991481	-422.984071	-422.983127	-423.022995	30.29	
C	-0.195959052	 1.5575472328	-0.0258152186	-0.403555
C	 0.0219192687	 0.0468716109	-9.1889*^-6	-0.013274
C	 0.8511829437	-0.5149310654	-1.15085007	 0.07523
O	 2.2568575405	-0.0864705277	-0.9615204252	-0.327615
C	 2.546108965	-1.3826155876	-0.4192855443	 0.083589
C	 1.2140516597	-1.9609483954	-0.7568122891	-0.156993
C	 1.571446003	-1.702013173	 0.6977723571	-0.111618
C	 0.8113803341	-0.4890378131	 1.2467366887	 0.106545
O	 1.6694948103	 0.471866123	 1.8365398464	-0.43772
H	 0.7524278651	 2.0939212677	-0.1052598015	 0.125984
H	-0.8190658887	 1.8425654247	-0.8799875442	 0.106642
H	-0.692906092	 1.8976254066	 0.8869843543	 0.12352
H	-0.9510641965	-0.4633815714	-0.0270207972	 0.075834
H	 0.5138553203	-0.3016371031	-2.1665384904	 0.081481
H	 3.560567655	-1.7531055248	-0.5019933947	 0.108046
H	 0.9055942961	-2.8927271045	-1.2086099996	 0.100549
H	 1.8203343372	-2.5368131364	 1.3427799939	 0.092715
H	 0.121324174	-0.7818590468	 2.0426653766	 0.082132
H	 2.2904657264	 0.7292347634	 1.1433449267	 0.288508
119.1611	191.1376	235.6789	265.0606	346.5226	476.0207	499.6859	517.0437	580.4915	658.5365	748.7316	772.5046	804.1515	814.3408	835.2454	872.0706	904.3361	950.5285	981.6635	992.4464	1007.4836	1025.4907	1051.4463	1061.3426	1074.1352	1107.1139	1126.9514	1145.4674	1219.6806	1234.1663	1253.5368	1275.3022	1290.3307	1326.6398	1341.0317	1357.1215	1401.5536	1412.6572	1451.1496	1490.2056	1500.1622	3010.6979	3042.6486	3072.9497	3101.9125	3108.3462	3125.9712	3182.5024	3190.6954	3216.1784	3778.1215
CC1C2OC3C2C3C1O	C[C@H]1[C@H]2O[C@@H]3[C@H]2[C@@H]3[C@H]1O	
InChI=1S/C7H10O2/c1-2-5(8)3-4-6(2)9-7(3)4/h2-8H,1H3	InChI=1S/C7H10O2/c1-2-5(8)3-4-6(2)9-7(3)4/h2-8H,1H3/t2-,3-,4+,5+,6-,7+/m1/s1
