25
gdb 101570	4.22761	0.64488	0.61843	2.3619	90.06	-0.2405	-0.0065	0.234	1979.3602	0.225524	-389.531409	-389.519623	-389.518678	-389.569634	41.709	
C	-0.0705964439	 1.5557687959	 0.1492810884	-0.391078
C	-0.021832478	 0.0414001802	-0.0773354122	-0.175399
C	 0.9216674503	-0.4091496765	-1.2077593982	 0.059429
C	 2.3891306651	-0.0525054052	-0.9269379786	-0.398649
C	 0.7683360795	-1.9156221004	-1.4618916125	-0.31031
C	 1.3641294661	-2.4083372213	-2.7773765862	 0.377537
O	 1.6699509472	-1.6509819838	-3.671499248	-0.305144
C	 1.5321492877	-3.9173239928	-2.9126822563	-0.274637
C	 1.9460665146	-4.3664481909	-4.311696668	-0.375623
H	 0.8915997223	 1.9517786707	 0.4874650892	 0.119152
H	-0.3414110276	 2.0833444464	-0.7722456056	 0.115697
H	-0.8149953933	 1.8121631579	 0.9096787604	 0.110693
H	 0.2682223706	-0.4595260789	 0.8572947231	 0.088887
H	-1.0354204851	-0.3131360813	-0.3068399353	 0.088197
H	 0.6234348158	 0.1024307464	-2.131480013	 0.091706
H	 3.0328687863	-0.3851720462	-1.744987217	 0.129197
H	 2.5281080726	 1.0266466588	-0.8196108699	 0.115619
H	 2.7368652962	-0.5263951569	-0.0000139448	 0.102428
H	 1.1905724761	-2.5022057341	-0.6341041857	 0.106441
H	-0.2972306882	-2.1905554574	-1.491333614	 0.117202
H	 2.2762863637	-4.2264358525	-2.1643437612	 0.122785
H	 0.5975064977	-4.3986477953	-2.5942242206	 0.115996
H	 1.189700342	-4.0899219441	-5.0512020799	 0.127637
H	 2.8810239645	-3.8871734039	-4.6113949708	 0.133759
H	 2.0825484777	-5.4509193947	-4.3467132233	 0.108479
36.5864	56.7226	70.3845	99.4973	130.4147	195.5935	212.9544	236.6943	266.2119	270.1198	320.691	351.3856	418.6845	473.2615	497.8602	648.2042	734.5297	773.7652	807.3883	852.4485	878.7699	924.9112	972.5676	990.3689	1009.5574	1026.8965	1049.4723	1054.9215	1124.6851	1145.5066	1161.0861	1186.0066	1238.285	1278.6648	1292.0497	1309.7296	1357.9502	1374.2803	1377.597	1392.3527	1410.2617	1412.5996	1413.514	1443.9053	1454.4726	1484.2911	1492.7515	1496.5004	1497.8655	1498.2694	1507.5994	1517.1936	1802.6858	2998.7921	3004.889	3014.9673	3023.6495	3029.1661	3032.8322	3035.5787	3043.8419	3049.8634	3051.2642	3098.4915	3099.2513	3107.8539	3120.337	3122.4135	3129.3838
CCC(C)CC(=O)CC	CC[C@@H](C)CC(=O)CC	
InChI=1S/C8H16O/c1-4-7(3)6-8(9)5-2/h7H,4-6H2,1-3H3	InChI=1S/C8H16O/c1-4-7(3)6-8(9)5-2/h7H,4-6H2,1-3H3/t7-/m1/s1
