18
gdb 62024	4.0805	0.76692	0.75203	2.8753	69.11	-0.2588	-0.0465	0.2123	1511.0439	0.145649	-476.254329	-476.244533	-476.243589	-476.290542	34.154	
C	-0.653669665	 1.2772172707	-0.1392388582	-0.408731
C	-0.0435173565	-0.1096041826	 0.121659701	-0.034609
N	-1.07535588	-1.1232003892	 0.3913379494	-0.335808
H	-2.790110039	-0.8140668601	-0.5018860335	 0.297043
H	-0.6370788176	-2.0342638851	 0.4614532899	 0.241718
C	-1.9135922848	-0.8867537503	 1.5721114027	-0.317367
C	-3.271746114	-0.2669480426	 1.2040207407	 0.431352
O	-3.576454106	-0.3911617717	-0.0964802302	-0.359759
O	-3.9985174565	 0.246463289	 2.0087538724	-0.331129
C	 0.7183457734	-0.5272988343	-1.1303948403	 0.144936
O	 1.9013889389	-0.3834460273	-1.2826283393	-0.233756
H	 0.1456330426	 1.9942760859	-0.3418579655	 0.14553
H	-1.3351066781	 1.2569502655	-0.9950562947	 0.137982
H	-1.2122130513	 1.6339986052	 0.73016482	 0.148778
H	 0.6858754008	-0.0299811954	 0.9417027737	 0.099483
H	-2.1339148123	-1.846632002	 2.0507902349	 0.14723
H	-1.4414867614	-0.25526631	 2.333566904	 0.141157
H	 0.0689080766	-0.9621613657	-1.9253800068	 0.085949
47.5119	55.1238	66.71	115.2206	239.6119	251.3684	273.8513	306.635	361.7595	415.1529	531.6215	547.6024	566.2078	663.0086	774.6171	843.4629	864.8522	879.0361	909.315	951.3366	1012.3779	1079.7178	1126.8682	1138.7427	1167.9938	1214.6173	1265.8871	1311.3353	1325.1515	1368.3554	1400.0207	1414.0503	1416.4944	1466.9215	1486.0273	1498.9457	1501.2035	1843.5105	1880.7158	2869.3753	2996.3837	3041.3935	3047.8508	3089.8676	3122.4048	3131.2069	3513.8256	3537.4644
CC([NH2+]CC([O-])=O)C=O	C[C@@H](NCC(=O)O)C=O	
InChI=1S/C5H9NO3/c1-4(3-7)6-2-5(8)9/h3-4,6H,2H2,1H3,(H,8,9)	InChI=1S/C5H9NO3/c1-4(3-7)6-2-5(8)9/h3-4,6H,2H2,1H3,(H,8,9)/t4-/m1/s1
