20
gdb 103528	2.4146	1.47569	1.219	3.2356	81.51	-0.2307	-0.0008	0.2299	1135.851	0.171293	-399.365153	-399.35585	-399.354906	-399.398918	35.009	
C	 0.0751424343	 1.5505392424	-0.0215096204	-0.3976
C	-0.02551959	 0.0239302693	 0.0115433491	-0.178214
C	-1.4683718501	-0.5287832917	 0.0334279214	 0.196869
C	-2.2757141954	-0.0362219634	 1.2426614447	-0.407888
N	-2.1715928731	-0.154569391	-1.219049746	-0.264033
C	-2.4666009576	-1.2451096875	-1.8064044367	 0.047775
N	-2.077691843	-2.4109499629	-1.1569051433	-0.353695
C	-1.4256385816	-2.0659926724	 0.025113655	 0.360575
N	-0.9000222042	-2.7952183987	 0.9222916827	-0.548228
H	 1.1190521579	 1.8580598023	-0.1374151263	 0.108683
H	-0.4981904056	 1.9588963288	-0.8578773913	 0.137184
H	-0.2984264038	 2.0052848757	 0.9007282609	 0.115681
H	 0.477348994	-0.3914008285	-0.8701538098	 0.094206
H	 0.4924371603	-0.3866203141	 0.8852179919	 0.119237
H	-2.384992685	 1.0496586913	 1.215168911	 0.127257
H	-3.2771519272	-0.4760773	 1.2395082569	 0.115428
H	-1.7734914323	-0.3329162579	 2.1673964174	 0.134755
H	-2.9888613566	-1.3141961646	-2.7560397236	 0.132076
H	-2.2270873222	-3.3491963744	-1.4886899666	 0.255441
H	-0.9865123589	-3.7911948128	 0.713299073	 0.204488
81.355	112.82	174.3847	213.0989	225.6556	275.4967	286.6294	328.3752	341.8201	409.2953	526.5839	613.2615	616.2479	695.5924	722.7668	784.3961	847.8373	853.8685	912.7689	922.0286	942.4586	1013.053	1026.4728	1061.767	1078.1278	1083.1511	1173.7447	1197.0486	1208.2483	1302.3349	1313.7107	1353.8137	1370.0199	1397.1166	1409.1476	1415.5857	1477.7607	1485.261	1494.8806	1506.5846	1511.7509	1682.4423	1757.2185	3031.9542	3043.2307	3048.5552	3075.2838	3106.2569	3118.7867	3125.2809	3139.3082	3184.3437	3453.3611	3656.7022
CCC1(C)N=CNC1=N	CC[C@@]1(C)N=CN[C]1[NH]	
InChI=1S/C6H11N3/c1-3-6(2)5(7)8-4-9-6/h4H,3H2,1-2H3,(H2,7,8,9)	InChI=1S/C6H11N3/c1-3-6(2)5(7)8-4-9-6/h4H,3H2,1-2H3,(H2,7,8,9)/t6-/m1/s1
