25
gdb 119352	4.64458	0.7832	0.76516	0.0445	94.71	-0.2822	0.0913	0.3736	1672.0524	0.22848	-352.328295	-352.318417	-352.317473	-352.36316	37.934	
C	-0.0416515754	 1.5654988619	 0.0110058188	-0.378961
C	-0.0017369339	 0.0351167211	 0.0027183923	-0.162918
C	-1.3981472639	-0.601219399	 0.0117652878	-0.32439
C	-1.3817510907	-2.1099509817	 0.0038336605	 0.370505
C	-0.7528153547	-3.0655271281	 1.0671946938	-0.286655
C	-1.3802071329	-4.0062355182	-0.0060426756	 0.336438
C	-1.3782746621	-5.5118240066	-0.0138629637	-0.50808
C	-2.6184844981	-3.0584761334	 0.0084823717	-0.304602
C	-0.7694541697	-3.0543776024	-1.0790466011	-0.286652
H	 0.9661010851	 1.9927887374	 0.0041951575	 0.109044
H	-0.5732827489	 1.9525384387	-0.8656125339	 0.112624
H	-0.5574715626	 1.943398963	 0.9009548649	 0.112625
H	 0.5477370647	-0.3134863856	-0.8809197783	 0.098202
H	 0.563286682	-0.3225809997	 0.8728148544	 0.098186
H	-1.9504978027	-0.2544847339	 0.8966158788	 0.091751
H	-1.9659803031	-0.2454226262	-0.8595846272	 0.091751
H	 0.3391086932	-3.0719118305	 1.1440649203	 0.081956
H	-1.2205451093	-3.0716156222	 2.0573565861	 0.080095
H	-1.8817322938	-5.9118878461	 0.8733551671	 0.115668
H	-1.8958056857	-5.9027189723	-0.8970608856	 0.115668
H	-0.3554363584	-5.9048479653	-0.0240261264	 0.11547
H	-3.2293675286	-3.0627034682	 0.9173145142	 0.08011
H	-3.243380904	-3.0532693909	-0.8907693996	 0.080109
H	-1.2524762054	-3.0502163699	-2.0618491707	 0.080096
H	 0.3211456886	-3.0598575021	-1.1728866562	 0.08196
70.578	78.6837	106.9253	201.6873	225.8475	242.3057	264.9144	310.2313	365.5699	397.7339	544.7195	546.0589	615.3626	681.6967	736.0633	769.6397	787.0635	869.9735	898.9463	928.4179	948.2146	957.1828	960.5429	993.6544	1043.9298	1050.5966	1070.1599	1098.7227	1104.9885	1110.3702	1145.7745	1146.0182	1169.7398	1189.95	1209.2255	1215.5014	1277.8929	1302.2413	1319.8872	1333.2743	1353.321	1397.3081	1410.8739	1411.2646	1477.3477	1488.8844	1489.8829	1492.0032	1496.2498	1496.7105	1497.4906	1509.3697	1560.4936	3000.9324	3022.0839	3023.3476	3027.3301	3028.5237	3028.6828	3030.3732	3041.3509	3057.78	3089.7973	3090.3561	3090.8501	3094.4632	3096.9539	3097.4337	3099.2523
CCCC12CC(C)(C1)C2	CCC[C@@]12C[C@@](C)(C1)C2	
InChI=1S/C9H16/c1-3-4-9-5-8(2,6-9)7-9/h3-7H2,1-2H3	InChI=1S/C9H16/c1-3-4-9-5-8(2,6-9)7-9/h3-7H2,1-2H3/t8-,9+
