20
gdb 99648	2.32062	1.15275	0.87771	2.7726	80.2	-0.2452	0.0306	0.2758	1392.204	0.170515	-399.303984	-399.293865	-399.292921	-399.339624	36.	
C	 0.008429978	 1.4751270497	 0.1221220541	-0.33018
N	-0.1921686771	 0.0564955713	-0.1653948576	-0.275289
C	 0.7233217887	-0.4943546294	-1.1570290635	-0.106691
C	 2.142540313	-0.4579611371	-0.7134765698	 0.263206
N	 3.2267458149	-0.4217704608	-0.3123620652	-0.334492
C	 0.3250181723	-1.9182120226	-1.5133279059	-0.029038
N	-0.6373329188	-2.0643790718	-2.6070334301	-0.336172
C	 0.7235350462	-2.6031665383	-2.7731142207	 0.008221
C	 1.5931456302	-1.9909484218	-3.8457583748	-0.403475
H	 1.0250625845	 1.7284894772	 0.4626438236	 0.123276
H	-0.2034189721	 2.0586317	-0.780302088	 0.130811
H	-0.7021809017	 1.7837254602	 0.8931370823	 0.127575
H	-0.1200872447	-0.4817578331	 0.6925846605	 0.225756
H	 0.6407712548	 0.119497099	-2.0595410329	 0.134357
H	 0.2073807663	-2.5554455838	-0.6370119573	 0.090085
H	-1.3104528593	-2.7972833315	-2.4038958181	 0.23651
H	 0.8369762566	-3.6826449681	-2.6772369172	 0.08861
H	 1.4012542602	-0.9212264426	-3.9562408579	 0.12753
H	 2.6537370053	-2.1333205707	-3.6151641936	 0.135029
H	 1.3891383825	-2.462705536	-4.812532798	 0.12437
51.2146	94.242	112.5391	152.7471	179.3863	186.0291	254.1758	270.6238	329.8956	394.394	448.9194	475.8594	555.6531	618.9956	752.9829	790.1681	846.573	911.8087	920.4537	986.2897	998.6213	1024.1744	1045.0399	1091.9592	1133.8251	1155.3125	1159.9498	1172.2989	1229.4863	1257.4353	1271.3186	1279.7549	1336.4948	1403.7088	1425.716	1458.2534	1468.9314	1486.9844	1491.0049	1498.3535	1504.8915	1520.9395	2339.3827	2980.9999	3041.6621	3069.0444	3069.6777	3101.801	3105.1904	3111.938	3115.6224	3131.6394	3516.1808	3517.0911
CNC(C#N)C1NC1C	CN[C@@H](C#N)[C@H]1N[C@H]1C	
InChI=1S/C6H11N3/c1-4-6(9-4)5(3-7)8-2/h4-6,8-9H,1-2H3	InChI=1S/C6H11N3/c1-4-6(9-4)5(3-7)8-2/h4-6,8-9H,1-2H3/t4-,5-,6-/m0/s1
