17
gdb 76955	2.429	1.26157	1.0287	2.7458	71.21	-0.2367	-0.0227	0.214	1197.503	0.133816	-458.924223	-458.915425	-458.914481	-458.958342	31.757	
O	 0.0463963353	 1.4459350559	 0.0241182808	-0.412577
C	 0.0322951397	 0.0528131171	 0.0235168664	-0.015753
C	-0.5400907078	-0.721847628	 1.2367940052	-0.255324
C	-1.0355078286	-0.005436193	 2.4282165334	 0.153874
O	-1.0325661486	-0.461494517	 3.5483673851	-0.274616
C	-1.2898952729	-0.581097538	-0.0909545146	 0.424293
C	-2.6394819815	 0.0625652009	-0.3854427591	-0.352652
C	-2.8472995235	-1.1875845057	-1.2700679499	-0.078185
O	-1.5392133923	-1.7087478816	-0.9085566911	-0.301906
H	 0.7838324727	 1.7458186357	 0.5672452458	 0.298876
H	 0.8636870067	-0.4410271734	-0.4789849809	 0.11395
H	-0.1038770156	-1.6971043298	 1.4280044451	 0.119683
H	-1.4274939221	 1.0151282393	 2.2274991808	 0.080081
H	-3.3211809778	 0.1521589333	 0.4606092828	 0.127673
H	-2.5785206109	 1.0158082793	-0.9110543977	 0.136977
H	-3.6471088859	-1.8664719708	-0.958389281	 0.118222
H	-2.9191470069	-1.0042585043	-2.3467807312	 0.117383
63.8079	100.2317	140.287	184.0675	199.9333	259.6723	356.2224	420.1131	446.8478	485.645	555.5453	601.3805	791.712	811.8733	879.983	912.0494	939.1601	965.2132	1011.0699	1035.1699	1052.6878	1100.5895	1113.0955	1148.1716	1161.8452	1198.1168	1211.507	1242.0765	1270.3305	1283.5007	1337.1515	1360.6394	1440.0182	1482.5303	1491.5463	1531.9599	1801.2914	2894.2106	3042.0557	3090.049	3092.2993	3110.6226	3148.4297	3175.6473	3798.1146
OC1C(C=O)C11CCO1	O[C@H]1[C@@H](C=O)[C@]21CCO2	
InChI=1S/C6H8O3/c7-3-4-5(8)6(4)1-2-9-6/h3-5,8H,1-2H2	InChI=1S/C6H8O3/c7-3-4-5(8)6(4)1-2-9-6/h3-5,8H,1-2H2/t4-,5+,6+/m1/s1
