16
gdb 68102	3.24012	1.29557	1.08165	3.4291	78.95	-0.243	-0.0058	0.2372	1133.7513	0.122049	-400.662845	-400.65435	-400.653406	-400.695697	32.077	
C	 0.0525316372	 1.4926712348	 0.0710804892	-0.516773
C	-0.0145967335	 0.0022540758	-0.0309929705	 0.170555
C	 0.5426358419	-0.9583384306	-1.1352848786	-0.306312
C	 0.0037439551	-1.9131618912	-0.0156851806	 0.093529
N	 0.5572025549	-0.9388799722	 1.0408994162	-0.37339
C	 0.1041287929	-3.3308042434	 0.0811394543	 0.050746
C	 0.1675332012	-4.529864314	 0.1480777075	-0.33523
C	-1.2272599011	-0.9513630403	 0.0006350348	 0.464955
O	-2.4111501494	-0.9581609345	-0.0118320959	-0.306326
H	 1.0851572457	 1.8518180073	 0.0135604003	 0.128614
H	-0.5142711297	 1.955586072	-0.7425914328	 0.140221
H	-0.3758891449	 1.8254663742	 1.0207481399	 0.149408
H	 0.0699229191	-0.9816458336	-2.1220683707	 0.120532
H	 1.634540169	-0.9557443014	-1.2024169726	 0.1148
H	 1.5782809867	-0.9388100232	 0.9316667823	 0.216462
H	 0.218720115	-5.5886749098	 0.2144787572	 0.188209
121.1446	137.3099	166.7608	198.9547	210.3425	308.9538	370.8315	503.5828	523.7204	548.3387	577.5281	619.2493	668.1871	669.1818	744.3649	762.3409	801.2128	828.8604	908.9548	934.0683	1022.8286	1059.6483	1097.1504	1119.908	1139.4699	1218.5636	1257.8016	1299.8968	1381.0666	1424.0592	1482.2294	1488.7062	1499.7499	1944.8129	2237.4504	3039.4743	3041.9377	3107.8985	3117.1271	3119.8364	3369.8146	3500.094
CC12CC(N1)(C#C)C2=O	C[C@@]12C[C@](N1)(C#C)C2=O	
InChI=1S/C7H7NO/c1-3-7-4-6(2,8-7)5(7)9/h1,8H,4H2,2H3	InChI=1S/C7H7NO/c1-3-7-4-6(2,8-7)5(7)9/h1,8H,4H2,2H3/t6-,7+/m0/s1
