14
gdb 116839	3.87702	0.61613	0.53523	5.8641	77.79	-0.2854	-0.109	0.1764	1947.8706	0.097763	-436.648639	-436.6389	-436.637955	-436.685279	31.637	
C	 0.0113287183	 1.3837034179	 0.0085792418	-0.226172
O	 0.0626444069	-0.0288227859	 0.0010455793	-0.22572
C	-1.2195592437	-0.6053451056	 0.0110353152	-0.201527
C	-1.1181813679	-2.0564696952	 0.0024749275	-0.024643
C	-1.0684628065	-3.2623769208	-0.004472388	 0.172889
C	-1.0135134978	-4.6936949834	-0.0131330781	 0.188734
O	-1.97654584	-5.4259673349	-0.0081484181	-0.248665
C	 0.3546102833	-5.2453763247	-0.0295479691	 0.230327
N	 1.4209772695	-5.6919001631	-0.0425472981	-0.314812
H	 1.0432742837	 1.7383074478	 0.0000112972	 0.144226
H	-0.5113261165	 1.7758410726	-0.8772552111	 0.114466
H	-0.4934480646	 1.7669736537	 0.9085496343	 0.114462
H	-1.794097717	-0.2959807866	 0.9026675954	 0.138214
H	-1.8120527278	-0.2867411519	-0.8654619582	 0.13822
45.6382	52.8159	72.1269	147.8831	148.5487	233.1088	235.5173	292.007	340.7535	402.5801	444.6221	553.1459	627.186	712.9682	771.5073	962.6596	996.4549	1007.0548	1152.7222	1182.068	1218.9462	1226.9492	1248.2055	1403.3193	1472.194	1486.2178	1486.7611	1511.9193	1745.6289	2337.2904	2342.4489	2945.4736	2963.2544	2979.7598	3028.5344	3134.9207
COCC#CC(=O)C#N	COCC#CC(=O)C#N	
InChI=1S/C6H5NO2/c1-9-4-2-3-6(8)5-7/h4H2,1H3	InChI=1S/C6H5NO2/c1-9-4-2-3-6(8)5-7/h4H2,1H3
