19
gdb 77516	2.39488	1.79155	1.29185	2.3082	75.47	-0.2304	0.0097	0.2401	1027.7075	0.157454	-422.988534	-422.979816	-422.978872	-423.020966	34.812	
C	-0.1653505966	 1.5254413297	-0.0050086369	-0.433553
C	 0.0229183435	 0.0159921944	 0.0191581879	-0.015427
C	 1.1879198302	-0.6134351957	-0.8316560457	 0.369874
O	 1.3490952893	-0.1874000796	-2.145569748	-0.489852
C	 2.1621722122	-0.2192038825	 0.3379849857	-0.364901
C	 0.8890113446	-0.6186785122	 1.1699611704	 0.369903
O	 0.6589936873	-0.1994730757	 2.4757929666	-0.489853
C	 0.7781591315	-2.1087520595	 0.8014622137	-0.168474
C	 0.9754158054	-2.1052995398	-0.519247418	-0.168438
H	 0.7613624568	 2.0860620919	 0.134906399	 0.118137
H	-0.5959064079	 1.8304617457	-0.9640327269	 0.12547
H	-0.8576233809	 1.8258655816	 0.7878635618	 0.125469
H	-0.9392499376	-0.4828315395	-0.125824476	 0.07147
H	 2.1537003072	-0.5820048065	-2.4983577877	 0.279831
H	 3.0591960667	-0.8295344254	 0.4703326237	 0.082197
H	 2.3967462105	 0.8459190509	 0.3758096146	 0.103621
H	 1.3250469208	-0.5973901438	 3.0464052473	 0.279828
H	 0.549534077	-2.9164096937	 1.4839903995	 0.102346
H	 0.9568227898	-2.9092693303	-1.2429235308	 0.102353
156.7771	191.5447	210.7317	220.1683	240.1085	284.3314	375.796	394.0336	446.6017	474.8746	556.2908	565.0519	611.5995	662.7508	663.1499	687.8593	814.4122	846.6725	893.5536	898.5551	946.006	1020.9391	1041.6892	1048.3027	1066.6656	1094.3667	1116.5659	1153.424	1156.5968	1202.8971	1234.7452	1306.4121	1311.0838	1349.6509	1362.2107	1394.0871	1407.6058	1487.8086	1492.6891	1506.6614	1624.884	3043.2872	3060.9626	3069.6101	3106.3516	3121.852	3137.9827	3205.0454	3233.262	3807.9077	3808.042
CC1C2(O)CC1(O)C=C2	C[C@H]1[C@@]2(O)C[C@]1(O)C=C2	
InChI=1S/C7H10O2/c1-5-6(8)2-3-7(5,9)4-6/h2-3,5,8-9H,4H2,1H3	InChI=1S/C7H10O2/c1-5-6(8)2-3-7(5,9)4-6/h2-3,5,8-9H,4H2,1H3/t5-,6-,7+
