20
gdb 110891	2.60475	1.47838	1.15269	3.6648	79.96	-0.2277	0.0298	0.2575	1149.3219	0.172557	-403.163067	-403.154825	-403.153881	-403.196655	31.408	
C	-0.3399610685	 1.4904125374	 0.0286749179	-0.373633
C	 0.2120089785	 0.068887801	-0.0928393515	-0.156234
N	 0.8819094863	-0.1754326265	-1.3533914979	-0.06604
C	 0.223827136	-0.4893469894	-2.6431812092	-0.006275
C	 0.6608709557	-1.9655080208	-2.8889896552	-0.230369
C	 2.0717701549	-1.2730009752	-2.9321392029	-0.156823
C	 1.3428837266	-0.081824449	-3.6380946252	-0.221954
C	 2.1296924292	-0.7592546758	-1.4797104347	 0.412425
O	 2.9936800932	-0.8647603375	-0.6403771671	-0.401942
H	 0.4648070436	 2.2247268716	-0.0670992609	 0.129473
H	-1.0839572048	 1.6990140027	-0.747510998	 0.114213
H	-0.8239513758	 1.629732017	 1.0006091131	 0.11706
H	 0.9611720135	-0.1172034557	 0.6827203695	 0.140774
H	-0.5976373857	-0.6621514381	 0.0536944378	 0.098545
H	-0.8037772438	-0.1356984496	-2.7086472989	 0.081554
H	 0.4664912308	-2.6889239358	-2.0930822744	 0.108899
H	 0.3537122806	-2.363446759	-3.8591411263	 0.106177
H	 2.9704881805	-1.7506498667	-3.3134082114	 0.089621
H	 1.0982005223	-0.2993812641	-4.6800318245	 0.105409
H	 1.764863357	 0.9193564836	-3.52987873	 0.109121
48.0623	76.2486	195.5904	204.7465	289.3671	323.3106	461.8722	479.9653	522.4602	618.9548	717.9153	755.3703	788.1206	830.854	843.3112	858.8698	889.7187	928.4907	979.1558	1000.3265	1024.5333	1038.6644	1059.7356	1096.7346	1104.178	1113.353	1152.9494	1219.4755	1225.3638	1230.3912	1244.0135	1251.7657	1279.6648	1338.4206	1392.2103	1410.5405	1421.3165	1479.0244	1482.8377	1491.9374	1503.5797	1514.8247	1840.9351	2987.8022	3036.2105	3059.1152	3068.0828	3085.4499	3107.3339	3119.8258	3123.977	3133.2728	3134.6906	3159.0363
CCN1C2CC(C2)C1=O	CCN1[C@@H]2C[C@@H](C2)C1=O	
InChI=1S/C7H11NO/c1-2-8-6-3-5(4-6)7(8)9/h5-6H,2-4H2,1H3	InChI=1S/C7H11NO/c1-2-8-6-3-5(4-6)7(8)9/h5-6H,2-4H2,1H3/t5-,6+
