21
gdb 103737	3.06181	1.0593	0.92676	4.277	80.61	-0.2396	-0.0107	0.2289	1352.6053	0.178801	-424.231567	-424.221039	-424.220095	-424.266835	38.581	
C	 0.127561906	 1.516017253	-0.1312129239	-0.399333
C	 0.0099818865	 0.0209801337	 0.192831854	-0.22263
C	-1.4167520404	-0.488382349	 0.080934074	 0.369125
O	-2.310775195	 0.1641087106	 0.9526583586	-0.467481
C	-1.9712671629	-0.963243994	-1.2254273815	-0.395663
C	-1.7011461485	-1.9771031061	-0.0976725614	 0.157544
C	-0.5863194836	-2.9940349792	-0.235556138	-0.466514
C	-2.9298713947	-2.505370076	 0.565912889	 0.134882
O	-3.0287751762	-3.6371447812	 0.9766636966	-0.276964
H	 1.1660959619	 1.8493347787	-0.0530250254	 0.122565
H	-0.2180193433	 1.7321863185	-1.1482663831	 0.117819
H	-0.4607577724	 2.1208159707	 0.5664191881	 0.117598
H	 0.659502422	-0.5479659708	-0.4778213573	 0.102237
H	 0.3649380251	-0.1623941418	 1.2138582937	 0.113438
H	-2.5007167903	 1.0336987603	 0.5846858766	 0.287378
H	-3.0088690563	-0.7320718529	-1.4453708076	 0.120054
H	-1.3202928909	-1.0178975228	-2.0917121624	 0.121792
H	 0.2116358065	-2.6439442512	-0.8933496455	 0.110652
H	-0.1501513884	-3.2351475202	 0.7384788926	 0.132665
H	-0.98771644	-3.9236633801	-0.6473004675	 0.137765
H	-3.7682397251	-1.7865536303	 0.6471986903	 0.08307
72.8135	104.7444	118.9735	152.9222	196.0279	235.9711	268.4221	288.1195	310.8851	327.2177	394.0598	400.932	451.9536	477.5603	630.0746	688.1583	770.552	795.3062	870.722	901.4646	918.2246	965.2176	992.3876	1027.136	1044.3898	1059.3157	1085.6784	1114.3345	1163.3245	1210.07	1287.5341	1309.7075	1327.6731	1354.0156	1390.319	1407.8433	1417.1669	1438.2014	1471.4986	1476.0771	1486.1625	1497.9482	1502.7283	1512.6789	1805.8882	2943.6368	3033.752	3041.073	3050.2129	3086.4034	3106.983	3112.1012	3115.1395	3123.066	3130.1591	3214.3375	3805.35
CCC1(O)CC1(C)C=O	CC[C@@]1(O)C[C@]1(C)C=O	
InChI=1S/C7H12O2/c1-3-7(9)4-6(7,2)5-8/h5,9H,3-4H2,1-2H3	InChI=1S/C7H12O2/c1-3-7(9)4-6(7,2)5-8/h5,9H,3-4H2,1-2H3/t6-,7-/m1/s1
