19
gdb 72086	2.86214	1.76583	1.61209	0.96	78.35	-0.2143	0.0222	0.2366	927.1893	0.162511	-385.904533	-385.89775	-385.896806	-385.935017	29.449	
O	-0.0820940411	 1.377385669	 0.058485333	-0.481272
C	-0.0006132966	-0.0121670593	 0.0520396457	 0.411249
C	 0.9913216995	-0.7242572059	 0.9581292013	-0.28651
C	 0.5230242276	-2.2020361207	 0.8530015575	-0.089755
C	-1.0309165613	-2.0454532453	 0.8984487786	-0.220012
C	-1.2514340446	-0.8309903143	 0.0170861828	-0.100868
C	-0.3379922513	-0.7854974981	-1.228592761	-0.160757
C	 0.4520795939	-1.9945785269	-1.5480358043	-0.047577
C	 0.8932080148	-2.7227681859	-0.5171546309	-0.10324
H	 0.7081254915	 1.7236784677	-0.3707333886	 0.28107
H	 2.0356382208	-0.5978029294	 0.6518469535	 0.088354
H	 0.877988289	-0.3440933336	 1.9794076273	 0.102606
H	 0.9099003736	-2.8270482561	 1.6589535599	 0.065001
H	-1.5436034265	-2.9466326	 0.5487640183	 0.098711
H	-1.3656985791	-1.8316520889	 1.9199822242	 0.098731
H	-2.2240391358	-0.3610496431	-0.0600778962	 0.09179
H	-0.7056987812	-0.1706945303	-2.0419856954	 0.081615
H	 0.6393990804	-2.2568438284	-2.5842807047	 0.086916
H	 1.4661350266	-3.6357397805	-0.633713101	 0.083948
236.2081	295.704	340.6169	357.6216	381.55	435.2933	500.0757	542.4268	627.874	657.4935	688.4058	756.9443	803.8852	840.465	862.0197	892.2822	910.3904	931.7473	959.6941	980.6261	993.5958	1035.9388	1040.5978	1070.4989	1083.3034	1138.1315	1149.5856	1163.5401	1190.8112	1231.6792	1250.3632	1282.5564	1305.4722	1316.0779	1343.8044	1352.3853	1401.1539	1450.3354	1480.7903	1500.4514	1677.9892	3034.9551	3038.5824	3080.6213	3086.1266	3099.2859	3168.275	3180.8926	3192.8697	3198.2048	3793.7256
OC12CC3CC1C2C=C3	O[C@@]12C[C@H]3C[C@@H]1[C@@H]2C=C3	
InChI=1S/C8H10O/c9-8-4-5-1-2-6(8)7(8)3-5/h1-2,5-7,9H,3-4H2	InChI=1S/C8H10O/c9-8-4-5-1-2-6(8)7(8)3-5/h1-2,5-7,9H,3-4H2/t5-,6+,7-,8-/m1/s1
