18
gdb 76090	2.008	1.70054	1.2671	5.0218	76.15	-0.2738	0.031	0.3048	1079.8279	0.147097	-401.926242	-401.917397	-401.916453	-401.959967	32.276	
C	 0.1238104549	 1.6320290225	 0.0409477069	-0.4248
C	 0.0521946701	 0.1209845832	 0.0420838665	-0.033792
C	 1.3127944008	-0.7291855006	-0.1203191389	-0.210941
C	 2.605675926	-0.1237225022	-0.2851581636	 0.308189
N	 3.6582544113	 0.3147495514	-0.4819647869	-0.355818
C	 0.5425643383	-0.7175291478	 1.1949918735	-0.064981
C	 1.0577696999	-0.1378178437	 2.4770424815	 0.055121
C	 2.4249920474	-0.3502275029	 2.9767041741	-0.179575
O	 2.0204389488	 0.9084587385	 2.4300009966	-0.214385
H	 1.0230471924	 1.9952882362	 0.539552943	 0.172801
H	 0.1222380458	 2.0110396136	-0.9858783748	 0.127976
H	-0.7461839334	 2.0540512566	 0.5548202768	 0.121002
H	-0.8061029179	-0.2859262839	-0.4861883674	 0.10232
H	 1.2103173779	-1.6362794826	-0.7079896037	 0.133879
H	-0.014798328	-1.6348502511	 1.3715517895	 0.106093
H	 0.272645957	 0.0196327185	 3.2199871809	 0.10127
H	 2.6103803133	-0.3499738949	 4.0492984477	 0.12179
H	 3.1391812352	-0.9046750407	 2.3723137785	 0.13385
81.0894	117.8941	135.1556	177.5799	208.0627	242.653	311.0874	366.3964	454.9358	544.0366	604.6514	701.8318	725.3777	769.7675	800.5778	869.9538	904.5583	958.9112	988.2602	997.9796	1066.3939	1087.9812	1104.671	1116.3111	1153.5379	1158.1967	1169.7745	1183.0053	1245.4375	1297.5278	1365.6125	1381.144	1426.6403	1430.6688	1443.8491	1498.2668	1503.5307	1525.711	2351.1438	3043.6939	3082.2905	3096.7885	3101.3131	3129.9423	3138.3554	3155.0628	3160.737	3189.7607
CC1C(C#N)C1C1CO1	C[C@H]1[C@@H](C#N)[C@H]1[C@H]1CO1	
InChI=1S/C7H9NO/c1-4-5(2-8)7(4)6-3-9-6/h4-7H,3H2,1H3	InChI=1S/C7H9NO/c1-4-5(2-8)7(4)6-3-9-6/h4-7H,3H2,1H3/t4-,5+,6+,7-/m0/s1
