18
gdb 15794	3.21814	1.33181	1.00921	4.2261	69.55	-0.2722	0.0121	0.2844	1162.6704	0.152017	-384.955024	-384.946262	-384.945318	-384.989269	31.003	
C	 0.1679999381	 1.620074676	 0.0237119789	-0.392134
C	-0.0185058907	 0.1082581008	 0.056333616	 0.087334
O	-1.4412527035	-0.1409892475	 0.1490379235	-0.18706
C	-1.8776245655	-1.0559253211	 1.0288352568	 0.170798
O	-3.0271367929	-1.3666731558	 1.1293078463	-0.280434
C	 0.5267767047	-0.5892204923	-1.1656965234	 0.03746
C	 1.9792837931	-0.9921016735	-1.2111209301	-0.270149
C	 0.9064541375	-2.0463131785	-1.1066059764	-0.275589
H	 1.231082931	 1.8663960748	-0.0448174216	 0.126067
H	-0.3436217172	 2.0475113018	-0.8435279075	 0.134882
H	-0.24323693	 2.0807429551	 0.9256972684	 0.126991
H	 0.4658346334	-0.3069101888	 0.9523143983	 0.081398
H	-1.0638751195	-1.4752008597	 1.6542489349	 0.069703
H	 0.0877188467	-0.2395639582	-2.0959676011	 0.098057
H	 2.5117765443	-0.8819148119	-2.1487694085	 0.120828
H	 2.5887885776	-0.8029877298	-0.3330204633	 0.114727
H	 0.7999074754	-2.5647434113	-0.1588900614	 0.113713
H	 0.6986747874	-2.6635339799	-1.9728539399	 0.123408
44.0104	76.3487	148.9881	203.0762	217.2025	229.0835	340.2351	354.2787	421.4656	512.9899	650.2856	768.962	829.0357	834.5454	925.1249	942.8639	959.6021	1001.3584	1044.7611	1058.6291	1083.6917	1093.5839	1129.9919	1136.711	1195.3501	1202.1899	1226.4364	1234.5475	1318.8634	1360.2298	1410.6031	1423.1919	1441.786	1471.1631	1486.2659	1496.9366	1507.8675	1862.1121	2931.6953	3000.7007	3047.402	3123.5587	3126.8536	3131.2571	3135.6584	3150.337	3210.7482	3225.3879
CC(OC=O)C1CC1	C[C@@H](OC=O)C1CC1	
InChI=1S/C6H10O2/c1-5(8-4-7)6-2-3-6/h4-6H,2-3H2,1H3	InChI=1S/C6H10O2/c1-5(8-4-7)6-2-3-6/h4-6H,2-3H2,1H3/t5-/m1/s1
