17
gdb 33473	2.19692	1.71092	1.17184	0.9254	84.13	-0.2538	0.03	0.2838	1087.5467	0.133777	-347.448575	-347.440104	-347.439159	-347.481265	33.217	
C	 0.0560027219	-1.2232533213	-0.0387942345	-0.459295
C	 0.0250298381	-0.0216556416	-0.0366065172	 0.29591
C	 0.0092644568	 1.4376179187	 0.0087573256	-0.044401
C	-0.2274621613	 2.0906244844	 1.4451883447	-0.281812
C	 1.1444247122	 2.7594783273	 1.3572127989	-0.028991
C	 2.2186971663	 1.724704161	 1.1759145728	-0.295303
C	 1.4009298299	 2.1389657112	-0.0113263811	-0.070222
C	-0.8964989556	 1.9865931774	-0.9941441582	 0.251137
C	-1.6292971374	 2.4651172874	-1.817555101	-0.423623
H	 0.0762151608	-2.2848007727	-0.0583281306	 0.195624
H	-1.065154927	 2.7870341935	 1.4140006131	 0.127252
H	-0.3730329297	 1.3741892036	 2.2579440217	 0.110798
H	 1.3635438964	 3.7651699105	 1.6922457792	 0.091103
H	 3.2361468523	 2.1019078483	 1.1770866895	 0.115689
H	 2.1077067323	 0.7285464559	 1.5961910575	 0.120502
H	 1.8271952017	 2.5692805705	-0.9080145249	 0.101527
H	-2.2822998478	 2.8736892458	-2.5484458855	 0.194106
125.6454	127.1145	157.8624	173.9394	297.724	393.0869	468.0802	472.8476	537.3865	555.9238	572.9644	622.9704	628.5905	637.433	640.7835	739.7809	794.126	844.4377	901.5171	935.0251	956.6022	978.3165	1006.165	1055.0318	1065.5743	1086.3493	1102.548	1145.9511	1196.6136	1231.7368	1251.2822	1291.4639	1354.3287	1477.763	1494.7294	2232.7547	2238.9271	3066.933	3117.3766	3139.6415	3190.1512	3198.5117	3210.7288	3501.671	3503.0991
C#CC1(CC2CC12)C#C	C#CC1(C[C@H]2C[C@@H]12)C#C	
InChI=1S/C9H8/c1-3-9(4-2)6-7-5-8(7)9/h1-2,7-8H,5-6H2	InChI=1S/C9H8/c1-3-9(4-2)6-7-5-8(7)9/h1-2,7-8H,5-6H2/t7-,8-/m1/s1
