19
gdb 119541	3.14313	1.0867	0.8932	1.7651	77.76	-0.2305	0.0198	0.2503	1347.0448	0.159009	-419.167973	-419.159096	-419.158151	-419.202092	33.111	
C	-0.1204239787	 1.6223857062	 0.1751751434	-0.396527
C	-0.1681285576	 0.0990171775	 0.1352658014	-0.12323
N	 0.8527611144	-0.4715609488	 1.0283283658	-0.391415
C	 0.874142766	-1.8796800707	 1.0779569893	 0.233585
C	-0.1427513987	-2.6650313191	 1.9203805378	-0.314532
C	 1.3091270629	-2.8525126586	 2.1625646386	 0.016577
O	 1.839290217	-3.7722890028	 1.1694642226	-0.278662
C	 1.5484361618	-2.8577366355	 0.153762086	 0.386048
N	 1.862009745	-2.861381631	-1.059327233	-0.561144
H	 0.8441034314	 1.9968461194	-0.1870676125	 0.115994
H	-0.8996498975	 2.0493408532	-0.4628058235	 0.119097
H	-0.2631139905	 1.9889490715	 1.1959629739	 0.124305
H	-1.1439430651	-0.2553577116	 0.4875192589	 0.106828
H	-0.0549449027	-0.2558337933	-0.9005905337	 0.114296
H	 1.7685833773	-0.1173363116	 0.7685673451	 0.225488
H	-0.6590115161	-2.0313759622	 2.6350200839	 0.133033
H	-0.7259511235	-3.4723978481	 1.489357149	 0.129883
H	 1.8716116902	-2.7201354301	 3.0755929883	 0.129934
H	 2.3905727343	-3.6996988145	-1.3070874015	 0.230444
65.4393	86.9711	131.3111	187.3809	251.7143	281.6396	340.9493	378.6436	464.8889	492.0844	640.7324	713.0626	744.3809	780.747	817.3969	858.0962	865.5901	903.7225	910.215	943.0621	961.2549	1001.9213	1024.8592	1053.2576	1078.0398	1086.3158	1142.7725	1172.3637	1188.3012	1265.2592	1282.9399	1295.2126	1377.8772	1410.9312	1421.9746	1479.1062	1487.2433	1498.2136	1504.9075	1522.392	1824.3633	2989.0506	3034.1977	3053.6036	3101.6573	3119.5194	3126.2448	3221.2315	3229.2564	3475.269	3509.3245
CCNC12CC1OC2=N	CCN[C@]12C[C@H]1O[C]2[NH]	
InChI=1S/C6H10N2O/c1-2-8-6-3-4(6)9-5(6)7/h4,7-8H,2-3H2,1H3	InChI=1S/C6H10N2O/c1-2-8-6-3-4(6)9-5(6)7/h4,7-8H,2-3H2,1H3/t4-,6-/m1/s1
