14
gdb 125596	2.34858	1.82969	1.03511	4.7207	65.84	-0.243	-0.0449	0.198	1066.3484	0.101076	-470.066708	-470.058589	-470.057644	-470.099573	28.934	
C	-0.0271699308	 1.4819717164	 0.0107549818	-0.501155
C	 0.004631404	-0.0061630642	-0.0036282895	 0.402777
N	 0.0063526012	-0.7127881114	-1.0852668489	-0.251254
N	 0.0397173987	-2.0217412311	-0.6655467781	-0.318433
C	 0.0602449889	-2.1870149382	 0.6988308322	 0.490214
O	 0.0899507848	-3.1934718207	 1.3536236328	-0.373229
N	 0.0362687426	-0.8157742004	 1.137283308	-0.227115
C	 0.0424002341	-0.373445981	 2.4658537812	 0.168161
O	 0.0695825783	-1.0841459735	 3.4286774055	-0.25113
H	 0.8542590284	 1.9029735093	 0.5060689581	 0.151076
H	-0.0455631264	 1.8290629069	-1.0231968869	 0.166965
H	-0.9152804152	 1.8649516532	 0.5246940867	 0.151117
H	 0.0472986696	-2.7689232128	-1.3375775521	 0.287452
H	 0.0187241218	 0.7299634674	 2.5178153892	 0.104556
93.2695	151.0381	203.2719	209.3996	233.8463	294.0675	300.4361	453.7237	477.9848	537.8696	629.4135	666.2487	760.6688	786.6274	814.2225	994.2227	1026.8708	1063.2056	1066.7168	1112.3358	1212.0848	1322.8747	1380.5672	1396.2333	1424.1999	1454.7157	1477.9681	1484.407	1666.4413	1817.9547	1900.0502	2975.5112	3039.9996	3095.0418	3150.3943	3693.4212
CC1=NNC(=O)N1C=O	Cc1n[nH]c(=O)n1C=O	
InChI=1S/C4H5N3O2/c1-3-5-6-4(9)7(3)2-8/h2H,1H3,(H,6,9)	InChI=1S/C4H5N3O2/c1-3-5-6-4(9)7(3)2-8/h2H,1H3,(H,6,9)
