17
gdb 72382	2.85771	2.1006	1.40484	3.7117	71.55	-0.2236	0.0191	0.2427	909.7676	0.137229	-417.955167	-417.94791	-417.946966	-417.986509	28.916	
C	 0.0211511265	 1.5355037197	-0.0728580837	-0.512345
C	 0.0151864045	 0.0263483859	-0.0104092013	 0.401056
N	 0.3510789672	-0.5802309254	-1.2761955301	-0.364657
C	 0.3799546604	-1.9411334661	-1.3511537265	 0.085154
N	 0.1234205461	-2.7004146443	-0.3519358561	-0.300528
C	-0.1962099282	-1.9706610374	 0.8489839361	 0.023485
C	 0.6213077769	-0.6943363193	 1.2428434203	-0.033527
O	-0.520415461	-0.232634882	 2.0407396276	-0.299907
C	-1.1182149548	-0.7063279355	 0.7871070917	-0.033547
H	 1.0105441844	 1.9098312105	-0.3595893059	 0.12035
H	-0.7052686868	 1.8980143073	-0.8091594023	 0.120335
H	-0.2380156852	 1.9398554787	 0.9056114486	 0.1572
H	 0.5562037722	-0.0062924351	-2.076235193	 0.246066
H	 0.6369939589	-2.3633795576	-2.3214199724	 0.117162
H	-0.4130582433	-2.6233892726	 1.6938653148	 0.090704
H	 1.62008001	-0.614400709	 1.6718380881	 0.091503
H	-2.1999714878	-0.6407443076	 0.6710305541	 0.091498
115.6826	221.8098	240.6151	315.0171	331.0994	393.023	446.4971	581.6236	602.1742	633.944	665.8789	781.7414	820.3	858.3581	897.7294	900.5196	922.7162	958.0959	963.9158	1016.6465	1056.2264	1104.2769	1137.2126	1146.3713	1165.7126	1199.0838	1200.2932	1240.2308	1257.6725	1292.6563	1357.4968	1394.8204	1402.2292	1493.3455	1496.2695	1497.8295	1687.9062	3031.9523	3088.7554	3116.6378	3119.3094	3130.6824	3146.0088	3154.5288	3651.7043
CC12NC=NC3C1OC23	C[C@@]12N[CH][N][C@H]3[C@@H]1O[C@@H]23	
InChI=1S/C6H8N2O/c1-6-4-3(5(6)9-4)7-2-8-6/h2-5H,1H3,(H,7,8)	InChI=1S/C6H8N2O/c1-6-4-3(5(6)9-4)7-2-8-6/h2-5H,1H3,(H,7,8)/t3-,4-,5+,6+
