20
gdb 83976	2.46103	1.66588	1.2189	3.6611	79.57	-0.2373	0.0384	0.2757	1091.438	0.173108	-403.196036	-403.187697	-403.186753	-403.229176	31.329	
C	-0.0155804883	 1.4532230841	-0.0436224705	-0.350481
N	-0.0052741025	 0.0139460542	-0.0168206166	-0.063256
C	-1.0776262989	-0.9919971312	-0.0489299797	 0.009851
C	-1.8036158804	-1.1408227336	-1.3929701973	-0.220628
C	-0.778855354	-1.8370241579	-2.3124272423	-0.21606
C	-0.0400030798	-2.820587735	-1.3794183898	-0.21564
C	 0.049893795	-2.0818523497	-0.0356574327	-0.178684
C	 1.0320340996	-0.885601644	-0.0102437848	 0.401583
O	 2.2281036963	-0.7368917697	-0.0094710733	-0.387461
H	 1.0241530231	 1.7899301512	-0.0469498688	 0.161382
H	-0.5131369491	 1.8413384638	-0.9410305335	 0.126459
H	-0.5190083523	 1.8699730016	 0.8376266729	 0.126447
H	-1.7449980903	-0.9381197715	 0.8169670093	 0.074693
H	-2.6795388344	-1.7843347167	-1.2459370503	 0.103042
H	-2.1667062272	-0.1873923698	-1.7896819022	 0.100259
H	-1.2466180547	-2.3327481621	-3.1667522242	 0.099618
H	-0.0738591196	-1.1009502377	-2.7129866525	 0.115851
H	-0.6279012118	-3.7373365385	-1.2550220524	 0.100179
H	 0.9446019837	-3.110195855	-1.7565635448	 0.119839
H	 0.1143270456	-2.7297959125	 0.8391794737	 0.093006
97.3698	108.7059	137.5251	214.8382	232.0653	257.0438	369.3084	487.0655	581.7816	606.6018	660.3302	753.2746	825.9968	842.7408	855.0324	861.86	901.8643	933.6162	983.8273	1008.5881	1041.9502	1072.282	1091.2706	1131.748	1149.3517	1162.8231	1183.549	1245.0618	1266.6051	1272.2762	1291.3962	1321.4787	1332.3101	1357.7851	1364.5531	1414.714	1448.0955	1477.2701	1483.4718	1487.9072	1501.8163	1518.125	1869.3765	3011.6775	3034.2327	3039.0541	3052.6314	3058.2019	3061.5512	3083.7593	3095.3018	3105.3634	3113.0937	3126.2143
CN1C2CCCC2C1=O	CN1[C@H]2CCC[C@H]2C1=O	
InChI=1S/C7H11NO/c1-8-6-4-2-3-5(6)7(8)9/h5-6H,2-4H2,1H3	InChI=1S/C7H11NO/c1-8-6-4-2-3-5(6)7(8)9/h5-6H,2-4H2,1H3/t5-,6+/m1/s1
