19
gdb 47431	2.74478	1.3369	0.99099	2.7327	75.27	-0.223	-0.0267	0.1963	1210.1593	0.160952	-419.190169	-419.181783	-419.180839	-419.224238	31.258	
O	-0.2742797904	-0.0277236595	 0.2090271304	-0.306792
C	-0.1661501151	 1.1558962701	 0.0268585571	 0.397218
C	-1.2985398134	 2.1741895868	-0.1269163675	-0.327819
C	-0.5747618471	 3.5265788775	-0.013522714	-0.184591
N	 0.8107023845	 3.3046228674	-0.4830196532	-0.293454
C	 1.1718844977	 1.9308067416	-0.0996426932	-0.157549
C	 1.9405189179	 1.8757781052	 1.2085777355	 0.065442
C	 2.8135541119	 0.7138329466	 1.4940594546	-0.236171
N	 3.398404602	 2.041604179	 1.2312380918	-0.325107
H	-1.7368064871	 2.040001668	-1.124248737	 0.130803
H	-2.0891790703	 1.9942852893	 0.6053117438	 0.133466
H	-1.042207233	 4.3247918169	-0.5931839344	 0.112824
H	-0.5474027072	 3.8588478846	 1.031054427	 0.120623
H	 0.8278127438	 3.3818240851	-1.4940878705	 0.222545
H	 1.7810314134	 1.4568042577	-0.878141843	 0.087991
H	 1.441148569	 2.3672928383	 2.0415721456	 0.093887
H	 2.9299457532	 0.3539522465	 2.5118135732	 0.121143
H	 2.8874670554	-0.0584308481	 0.7330242588	 0.118526
H	 3.7591025249	 2.087764487	 0.2808070949	 0.227016
54.6685	57.538	153.4839	173.1583	295.9332	313.7598	414.1627	503.0187	540.0376	623.6623	654.9525	764.9576	803.4903	830.2577	834.8846	890.7306	908.1506	947.4317	953.4059	982.4409	1023.0715	1053.986	1094.9506	1120.4341	1135.7611	1146.9709	1157.946	1210.3533	1222.3833	1246.6163	1257.9452	1279.3884	1310.088	1332.0611	1364.6553	1420.3296	1446.4346	1463.1325	1507.9949	1515.6466	1847.1827	3034.1518	3040.6448	3042.9062	3107.0988	3113.5792	3114.1174	3123.3623	3198.3864	3491.789	3526.0872
O=C1CCNC1C1CN1	O=C1CCN[C@H]1[C@H]1CN1	
InChI=1S/C6H10N2O/c9-5-1-2-7-6(5)4-3-8-4/h4,6-8H,1-3H2	InChI=1S/C6H10N2O/c9-5-1-2-7-6(5)4-3-8-4/h4,6-8H,1-3H2/t4-,6+/m1/s1
