20
gdb 112265	2.70854	1.11383	0.86377	3.1606	76.84	-0.2612	0.0192	0.2804	1380.6973	0.170736	-440.288961	-440.279524	-440.278579	-440.323577	34.56	
C	-0.1222046429	 1.6579731245	-0.1896840407	-0.388533
C	-0.0448767993	 0.2125215495	 0.3128383322	-0.192725
C	-1.3319198054	-0.5503003483	 0.0687356888	 0.109365
O	-1.590796186	-0.7386327228	-1.3790636435	-0.268661
C	-1.5974794004	-2.1012240782	-1.2342784846	 0.454283
N	-1.6692487075	-3.0316678631	-2.0780546432	-0.564824
C	-1.3913451959	-2.0916901393	 0.2602828308	-0.192374
C	-0.1856256997	-2.9265114587	 0.7045237926	-0.077235
O	-0.4320865336	-4.2907323801	 0.4428669103	-0.423137
H	 0.8208850098	 2.183590285	-0.0164099232	 0.119836
H	-0.3336332207	 1.6817371573	-1.2624389122	 0.139198
H	-0.9153312534	 2.2137400028	 0.3221681943	 0.118477
H	 0.7861539182	-0.3078122004	-0.1749721124	 0.112652
H	 0.1584936641	 0.1955049782	 1.3914585897	 0.109519
H	-2.1848178104	-0.0236611654	 0.5092209338	 0.095327
H	-1.7457189456	-2.6843559159	-3.0348718449	 0.230584
H	-2.27505207	-2.4249409511	 0.8101403511	 0.11598
H	 0.7271875743	-2.5761423765	 0.1987816657	 0.090519
H	-0.0226418638	-2.8307840422	 1.7832160155	 0.109745
H	-0.6898544018	-4.3571315751	-0.4891305202	 0.302005
84.6877	99.9912	131.2159	135.5068	189.1495	228.2474	285.0798	351.6643	415.331	451.6282	525.7013	544.3832	672.3938	738.8909	799.7271	830.2593	855.7526	863.0109	902.7147	982.5231	1035.8915	1043.978	1054.6355	1079.1299	1097.2958	1137.7995	1163.5693	1199.3206	1237.7243	1249.4152	1288.9772	1315.4853	1330.6283	1370.4878	1392.861	1410.9045	1415.6321	1457.6778	1474.6091	1498.8408	1508.3176	1514.7703	1808.0133	2984.916	3031.2501	3039.7195	3053.2994	3067.1567	3078.3082	3090.7324	3109.854	3121.7106	3482.1813	3711.4133
CCC1OC(=N)C1CO	CC[C@H]1O[C]([NH])[C@H]1CO	
InChI=1S/C6H11NO2/c1-2-5-4(3-8)6(7)9-5/h4-5,7-8H,2-3H2,1H3	InChI=1S/C6H11NO2/c1-2-5-4(3-8)6(7)9-5/h4-5,7-8H,2-3H2,1H3/t4-,5+/m0/s1
