13
gdb 25134	3.71452	1.27037	0.94662	4.8129	80.68	-0.2374	-0.0858	0.1516	1142.2403	0.089099	-415.595536	-415.588074	-415.58713	-415.627906	27.858	
N	-0.0104383956	 1.3255042481	 0.0106453529	-0.516329
C	-0.0343578884	 0.0617559741	 0.002288698	 0.426007
O	 1.2060911398	-0.6470763934	-0.0075666444	-0.224856
C	 1.2094253138	-1.9831895943	-0.0146792428	 0.100321
C	 0.0805423312	-2.7116354867	-0.0129440843	-0.240476
C	-1.1575966144	-1.9633230449	-0.0027965866	 0.164526
N	-1.2049581598	-0.6632376486	 0.0046243044	-0.31923
C	-2.3894208729	-2.6898785295	-0.0002130854	 0.218096
C	-3.3947278465	-3.3506145727	 0.0015730696	-0.32706
H	 0.9507630154	 1.664247005	 0.0080207612	 0.228569
H	 2.2146584472	-2.3907540665	-0.0218434636	 0.150422
H	 0.095538904	-3.7909367611	-0.0187278892	 0.128691
H	-4.2978099038	-3.9109036394	 0.0033552701	 0.211318
77.9149	134.6784	145.8548	333.5161	412.1422	436.093	458.5921	567.7854	584.2089	656.5828	669.784	711.7585	714.937	770.4086	793.99	806.1974	850.5938	960.5652	966.7504	1064.3339	1111.547	1182.8257	1273.488	1301.2663	1449.3343	1564.9605	1677.7951	1737.7236	2232.6622	3200.1845	3253.2929	3497.5971	3510.7698
N=C1OC=CC(=N1)C#C	[NH]C1=NC(=CCO1)C#C	
InChI=1S/C6H4N2O/c1-2-5-3-4-9-6(7)8-5/h1,3-4,7H	InChI=1S/C6H5N2O/c1-2-5-3-4-9-6(7)8-5/h1,3,7H,4H2
