16
gdb 129278	3.22683	1.64745	1.1201	4.5962	71.7	-0.2172	0.0078	0.225	1036.9978	0.127421	-434.074474	-434.067348	-434.066404	-434.106282	27.178	
N	-0.1600396005	 1.2971324675	 0.0423697963	-0.613538
C	-0.0513654684	 0.0362010357	 0.0458086194	 0.469002
O	 1.0910078433	-0.73399898	 0.0431293248	-0.259784
N	 0.7554743316	-2.1403906313	 0.036808839	-0.251972
C	-0.5317530118	-2.132376454	 0.0413372601	 0.437505
C	-1.6139058452	-3.1672326672	 0.0092076083	-0.347929
C	-2.8637028548	-2.328704399	 0.4169174338	-0.224976
C	-2.5274162543	-0.8555632696	 0.0491521119	-0.172634
N	-1.0776272216	-0.8851743372	 0.059665568	-0.099151
H	 0.7557719851	 1.739576978	 0.0396479493	 0.232265
H	-1.7097132996	-3.5689314946	-1.0052308054	 0.146198
H	-1.4192490696	-4.0055567794	 0.6795072329	 0.149065
H	-3.7756938364	-2.6752930429	-0.0712389341	 0.12445
H	-3.0151101336	-2.4045380172	 1.4970029126	 0.132557
H	-2.902139933	-0.573526169	-0.9416877797	 0.132212
H	-2.909856231	-0.13393456	 0.7742915031	 0.14673
106.7259	152.3819	180.8996	284.2187	320.1305	546.0811	577.1689	616.6124	659.6878	716.3472	721.8463	757.9956	794.3854	858.5323	863.5586	894.8319	916.8968	1000.5629	1019.977	1094.4187	1100.2802	1188.3551	1205.4331	1230.3156	1238.2995	1304.4678	1318.3104	1344.6316	1386.8835	1473.9114	1482.1688	1500.5563	1535.3441	1687.1224	1780.8015	3040.1775	3058.8325	3073.1228	3106.7114	3123.3534	3133.7235	3535.4456
N=C1ON=C2CCCN12	[NH][C@H]1ON=C2CCCN12	
InChI=1S/C5H7N3O/c6-5-8-3-1-2-4(8)7-9-5/h6H,1-3H2	InChI=1S/C5H8N3O/c6-5-8-3-1-2-4(8)7-9-5/h5-6H,1-3H2/t5-/m1/s1
