14
gdb 28986	3.10938	1.54512	1.0323	3.394	81.2	-0.2295	-0.0416	0.1878	1069.599	0.102507	-395.767216	-395.759375	-395.758431	-395.799425	29.45	
N	-0.029237374	 1.3417852208	 0.0683613839	-0.584912
C	 0.0098513512	-0.00823999	 0.0235810657	 0.361249
N	-1.1601939769	-0.6619402797	 0.0198348305	-0.321686
C	-1.1024170853	-1.9898739823	-0.0014963657	 0.077545
N	-0.0146684123	-2.7621678026	-0.022940262	-0.275872
C	 1.1466178753	-2.1024414096	-0.0239613656	-0.052241
C	 1.2463059782	-0.7135907165	-0.0018420192	 0.030147
C	 2.4850018233	-0.0243656979	-0.0067155006	 0.186752
C	 3.5180148248	 0.5979796976	-0.0137299474	-0.393784
H	 0.8151024049	 1.8750450726	-0.0465620309	 0.269592
H	-0.9234530323	 1.7926482706	-0.0214688086	 0.267408
H	-2.0602070387	-2.5058153457	-0.0031610824	 0.118104
H	 2.0542220721	-2.7006773137	-0.0443603603	 0.120149
H	 4.4403210095	 1.1245307063	-0.0159510072	 0.197548
122.0855	141.0003	183.7499	218.5333	365.63	380.1052	478.8748	489.1239	554.0101	562.358	572.2533	602.9335	610.9318	667.3615	761.729	822.2632	920.2166	966.0551	1017.8645	1027.1951	1167.3479	1215.8811	1280.9349	1325.4272	1379.802	1436.4046	1498.6403	1578.7453	1608.8466	1644.3764	2215.1018	3158.5466	3164.0249	3499.3533	3611.7534	3745.85
NC1=NC=NC=C1C#C	Nc1ncncc1C#C	
InChI=1S/C6H5N3/c1-2-5-3-8-4-9-6(5)7/h1,3-4H,(H2,7,8,9)	InChI=1S/C6H5N3/c1-2-5-3-8-4-9-6(5)7/h1,3-4H,(H2,7,8,9)
