20
gdb 89754	2.45585	1.53684	1.13776	1.2483	79.49	-0.2391	0.0699	0.309	1134.3003	0.170969	-403.091166	-403.082611	-403.081667	-403.12417	33.589	
O	 0.6267431949	 0.6012616318	-0.8506845683	-0.433496
C	 0.0647367071	-0.3178291094	 0.0505055254	 0.076766
C	 0.0486056156	-0.0097922637	 1.5834728474	-0.379475
C	-1.3872941773	-0.5548458246	 1.6299449895	 0.326302
C	-1.8713072747	-1.7234028813	 2.4399677466	-0.312872
C	-2.4708516236	-0.3499051982	 2.6418446022	-0.338429
C	-1.4649409397	-0.476460471	 0.1199521707	 0.245336
C	-2.4296018167	 0.2458258338	-0.7415533722	-0.315157
N	-2.361329746	-1.2319220356	-0.7375224974	-0.377358
H	 0.2255653196	 1.460663434	-0.6799849294	 0.278491
H	 0.5562142538	-1.2740021125	-0.156471543	 0.098893
H	 0.8027333067	-0.5093381455	 2.1958762211	 0.106843
H	 0.0980984585	 1.069524241	 1.7685634023	 0.094868
H	-2.4708942604	-2.465112808	 1.9228762445	 0.128667
H	-1.2190254497	-2.1166096597	 3.2132574081	 0.108478
H	-2.2250816992	 0.189784548	 3.5509678494	 0.11044
H	-3.4800863872	-0.1795356375	 2.2795445483	 0.116009
H	-3.3393342357	 0.6638237736	-0.3187910658	 0.118084
H	-2.0343645067	 0.7784459804	-1.6038144359	 0.112932
H	-1.8677963592	-1.5616423556	-1.5646149236	 0.234679
69.74	183.6248	194.7154	224.8863	244.6965	309.005	340.7539	418.1856	477.9493	505.6588	571.1719	629.9591	766.4894	785.853	849.9589	870.229	880.4403	926.7807	937.1843	962.0584	986.3722	995.7294	1018.1673	1041.4847	1054.6196	1077.989	1109.2581	1129.9888	1139.8664	1191.4194	1199.3231	1213.6938	1253.9626	1263.3944	1282.5225	1312.2117	1363.7688	1425.7644	1437.2563	1457.6583	1482.2236	1499.7639	1513.6784	3036.7221	3062.0358	3100.1377	3105.5984	3121.087	3126.59	3187.6579	3201.4242	3219.2496	3485.7077	3801.2307
OC1CC2(CC2)C11CN1	O[C@H]1CC2(CC2)[C@]21CN2	
InChI=1S/C7H11NO/c9-5-3-6(1-2-6)7(5)4-8-7/h5,8-9H,1-4H2	InChI=1S/C7H11NO/c9-5-3-6(1-2-6)7(5)4-8-7/h5,8-9H,1-4H2/t5-,7+/m0/s1
