17
gdb 20231	4.09496	2.64518	2.27543	1.725	69.12	-0.2288	0.0851	0.3138	681.9402	0.146097	-326.673179	-326.667792	-326.666848	-326.702322	23.024	
C	-0.0357321658	 1.5883943098	 0.0204203185	-0.230744
C	 1.4612789635	 2.0294938393	 0.0015129663	-0.223908
C	 2.2279582604	 0.7126774498	-0.1191677189	 0.046592
C	 1.3353319474	-0.3574109362	-0.7864881786	-0.107924
C	 1.7326425718	-1.3017153523	 0.393654676	-0.056964
C	 0.756807366	-0.5544229983	 1.2176292608	-0.048302
C	 0.0486141413	 0.0578811239	 0.002459261	-0.023543
N	 2.1983290008	-0.1061729777	 1.1544513962	-0.156163
H	-0.571764911	 1.9556035536	 0.9009371205	 0.102131
H	-0.5701248664	 1.9614499453	-0.8598989037	 0.096136
H	 1.6774115449	 2.6902582032	-0.8440705911	 0.097799
H	 1.75724794	 2.558141308	 0.9127021505	 0.112121
H	 3.2584736594	 0.7901611438	-0.4692579587	 0.071058
H	 1.3187755924	-0.564970518	-1.8544068909	 0.066936
H	 2.1762911934	-2.2843091051	 0.4778314112	 0.094909
H	 0.3640155571	-0.7682431625	 2.2037441322	 0.090934
H	-0.8617168452	-0.4746858269	-0.2774660212	 0.068931
181.9856	350.844	449.726	652.8101	665.1781	742.0345	746.3895	782.954	821.8486	837.7854	881.9367	893.1468	894.9274	929.7368	936.4645	979.8687	988.9578	1011.5083	1032.8829	1057.6119	1071.52	1133.1931	1146.777	1164.2327	1199.9096	1213.1068	1234.0725	1248.8416	1265.8463	1283.2775	1316.5084	1327.3324	1342.1431	1360.5611	1475.202	1497.955	3039.8971	3052.3368	3077.4446	3098.4602	3101.1839	3103.469	3135.7698	3190.3199	3211.2743
C1CC2C3C4C(C13)N24	C1C[C@@H]2[C@H]3[C@@H]4[C@H]([C@@H]13)N24	
InChI=1S/C7H9N/c1-2-4-5-3(1)6-7(5)8(4)6/h3-7H,1-2H2	InChI=1S/C7H9N/c1-2-4-5-3(1)6-7(5)8(4)6/h3-7H,1-2H2/t3-,4+,5-,6-,7+,8?/m0/s1
