17
gdb 53796	2.70424	1.28671	1.08045	1.4462	69.32	-0.2421	-0.0908	0.1513	1180.9303	0.131336	-458.968308	-458.958364	-458.95742	-459.004538	34.301	
C	 0.0071986008	 1.3259279759	-0.5359472333	-0.476658
C	 0.0571527536	-0.145779238	-0.2107905178	 0.313894
O	 1.0753939691	-0.7614072561	-0.0017960186	-0.269783
C	-1.315991074	-0.8617137938	-0.1414486421	 0.208715
O	-2.3321750396	-0.2100825132	-0.1908482062	-0.280187
C	-1.3063867334	-2.3830309959	-0.0751290694	 0.345592
C	-0.6856186705	-3.0469775664	 1.1305099305	-0.493754
C	-2.3247795861	-3.0507303602	-0.8922088791	-0.215898
O	-0.9731612573	-2.923117767	-1.3641399941	-0.270186
H	 1.0143449862	 1.7415910935	-0.5046158449	 0.143814
H	-0.4294799057	 1.4711417585	-1.5300485602	 0.157822
H	-0.6507280554	 1.8468300816	 0.1656033746	 0.159214
H	-1.2103816993	-2.748374789	 2.0447779629	 0.128414
H	-0.7588231987	-4.1330694137	 1.0297722351	 0.1324
H	 0.3648512386	-2.767477921	 1.2208099739	 0.164715
H	-2.6265300444	-4.0639602283	-0.6335959167	 0.119937
H	-3.0659004139	-2.4559077067	-1.4203028646	 0.131949
27.4511	51.2616	112.3682	157.3664	174.5995	204.5005	284.9506	319.9175	349.6006	392.9651	425.0887	509.215	599.124	636.0845	736.0228	794.9473	855.6021	925.5388	933.9536	1007.3011	1039.938	1049.2412	1109.7132	1136.8875	1161.9231	1221.9322	1295.7432	1383.3605	1391.1681	1409.1676	1452.5587	1460.4793	1476.0133	1504.5388	1525.6653	1800.0502	1808.9831	3043.7694	3049.3959	3098.1332	3112.6891	3113.8738	3151.2966	3163.9568	3191.6058
CC(=O)C(=O)C1(C)CO1	CC(=O)C(=O)[C@@]1(C)CO1	
InChI=1S/C6H8O3/c1-4(7)5(8)6(2)3-9-6/h3H2,1-2H3	InChI=1S/C6H8O3/c1-4(7)5(8)6(2)3-9-6/h3H2,1-2H3/t6-/m1/s1
