22
gdb 64380	2.17628	1.50621	1.13702	4.1403	85.16	-0.3034	0.035	0.3383	1188.9317	0.194873	-367.258263	-367.248776	-367.247832	-367.292279	36.04	
C	 0.340797225	 1.5220434387	-0.2346924887	-0.429783
C	 0.0451762115	 0.0253575893	-0.0355360465	 0.275183
C	-1.458468969	-0.186201819	 0.1633676784	-0.445211
C	 0.61777952	-0.8103729011	-1.2038537615	-0.232496
C	 2.1334758243	-0.9471601426	-0.9319414634	-0.224157
C	 2.3139560841	-0.7454080051	 0.5991852175	-0.231717
C	 0.8735254709	-0.566961781	 1.1520139497	-0.141253
C	 0.8056790982	 0.2089263026	 2.3851245265	 0.270633
N	 0.7471770652	 0.8327342825	 3.3572488871	-0.343606
H	 1.4038910275	 1.7170115781	-0.4053553371	 0.117429
H	-0.2077691339	 1.8987617989	-1.1039335601	 0.115807
H	 0.0323163818	 2.1049969309	 0.638101416	 0.139913
H	-2.0194669589	 0.171188458	-0.7064881326	 0.117402
H	-1.6961662288	-1.2467090626	 0.3019443213	 0.110675
H	-1.8224500714	 0.3597121391	 1.0401166711	 0.132101
H	 0.1443653588	-1.7995438881	-1.2016850348	 0.095969
H	 0.4002437953	-0.3556920005	-2.1747488257	 0.099812
H	 2.5111052683	-1.9185487104	-1.2605971525	 0.106165
H	 2.700167947	-0.1913473309	-1.482029049	 0.110996
H	 2.8149747791	-1.5864596992	 1.0834651776	 0.115806
H	 2.9115272049	 0.1435209382	 0.814085041	 0.124157
H	 0.4570332503	-1.5577159355	 1.3739478057	 0.116174
71.5892	126.8442	140.2404	218.9807	221.9133	247.8218	296.8951	335.8457	380.4916	401.5443	505.2454	555.1846	570.314	631.7876	717.1279	788.6228	835.0692	899.8771	934.7741	953.117	960.501	991.7359	1012.2534	1023.0619	1055.2138	1085.4364	1095.3712	1175.2281	1227.8709	1244.6081	1247.8115	1265.7054	1295.1591	1325.7289	1331.8059	1347.3133	1364.0363	1405.607	1426.581	1482.1706	1484.2653	1492.3286	1499.7379	1506.5017	1510.3067	1517.0289	2350.8369	3026.7498	3027.6254	3033.996	3040.1878	3061.2644	3073.6426	3083.311	3096.1755	3098.3659	3101.0373	3105.8577	3113.9319	3119.9022
CC1(C)CCCC1C#N	CC1(C)CCC[C@H]1C#N	
InChI=1S/C8H13N/c1-8(2)5-3-4-7(8)6-9/h7H,3-5H2,1-2H3	InChI=1S/C8H13N/c1-8(2)5-3-4-7(8)6-9/h7H,3-5H2,1-2H3/t7-/m0/s1
