20
gdb 103527	2.38782	1.44186	1.19322	3.0371	80.23	-0.2152	0.0009	0.2161	1151.0999	0.170673	-403.203517	-403.194222	-403.193278	-403.237282	35.141	
C	-0.0980575525	 1.5644878652	 0.1311499053	-0.403839
C	 0.008328342	 0.0452978354	-0.0262196207	-0.18636
C	 0.7521718631	-0.4374238886	-1.2991720311	 0.113761
C	 0.0528978244	 0.0321116499	-2.5900092769	-0.423095
C	 2.2343727754	-0.1232596508	-1.2852278335	-0.176595
C	 2.9269734189	-1.2650742321	-1.2601053381	-0.039204
N	 2.070405158	-2.3775130218	-1.2540514517	-0.337133
C	 0.7462228827	-1.9864213389	-1.2798188764	 0.406416
O	-0.2171180932	-2.7196867348	-1.2816963467	-0.390343
H	 0.8887037403	 2.0390225917	 0.1468671874	 0.114968
H	-0.6782167594	 2.0218959633	-0.6755611397	 0.120805
H	-0.5969236942	 1.8126450138	 1.0730751277	 0.117234
H	 0.5224329586	-0.3703825935	 0.8487145328	 0.100482
H	-0.9904759517	-0.4060073969	-0.0412266799	 0.117737
H	 0.0491396871	 1.1227746804	-2.6632958158	 0.116042
H	 0.5647709016	-0.359630156	-3.4738261914	 0.121027
H	-0.9802633277	-0.3280304542	-2.6054923943	 0.134976
H	 2.6564417351	 0.8702294839	-1.3051788895	 0.104633
H	 3.9962531808	-1.4222367875	-1.2473496123	 0.128504
H	 2.3549647206	-3.3426670887	-1.2374898351	 0.259984
81.959	110.8792	170.8891	223.8701	227.7084	271.8324	284.2385	332.1849	342.4342	455.3071	548.7192	590.7366	600.8962	713.7799	722.944	765.2114	785.7139	805.2403	903.5998	909.7077	941.6511	1010.9945	1020.9659	1069.5966	1074.2428	1113.2958	1163.9148	1166.4922	1221.5901	1242.6954	1320.4092	1364.4155	1375.5937	1397.7942	1411.8034	1417.4135	1482.1463	1490.9504	1498.5926	1506.6685	1511.4122	1665.8354	1827.0692	3029.842	3038.1043	3041.7012	3068.2405	3103.626	3109.6935	3114.2552	3121.7589	3229.7052	3253.667	3662.6388
CCC1(C)C=CNC1=O	CC[C@@]1(C)C=CNC1=O	
InChI=1S/C7H11NO/c1-3-7(2)4-5-8-6(7)9/h4-5H,3H2,1-2H3,(H,8,9)	InChI=1S/C7H11NO/c1-3-7(2)4-5-8-6(7)9/h4-5H,3H2,1-2H3,(H,8,9)/t7-/m0/s1
