20
gdb 110575	3.20482	1.36111	1.13139	2.7399	79.64	-0.2253	0.069	0.2943	1134.8335	0.170496	-403.047112	-403.038645	-403.0377	-403.080007	32.716	
C	 0.0382099482	 1.2714982054	-0.3850318081	-0.519949
C	 0.1041582078	-0.1982956583	-0.0997799986	 0.38142
C	 0.5724007474	-1.3308771558	-1.0308906867	-0.036829
C	 2.044417055	-1.4404109633	-1.3639909603	-0.124732
O	 2.3678698137	-0.3576012849	-2.230473592	-0.418683
C	 0.026501611	-2.0183865558	 0.2242320292	-0.035296
C	 0.5601422781	-0.9376103696	 1.2101250313	-0.118243
C	-0.8476279194	-0.7877997802	 1.7697491752	-0.197439
N	-1.1641851252	-1.0273955021	 0.2975763972	-0.194522
H	 1.0334664314	 1.6446982992	-0.6431506667	 0.136709
H	-0.6238802144	 1.4605992746	-1.2360051734	 0.132696
H	-0.3384903317	 1.8353646354	 0.4747627888	 0.116291
H	-0.051965147	-1.4530940357	-1.9228853271	 0.083689
H	 2.6476333108	-1.402584746	-0.4427993332	 0.084673
H	 2.2463329258	-2.4098155049	-1.8468037801	 0.088658
H	 3.2923250375	-0.4391678414	-2.4827350078	 0.287742
H	-0.1356987296	-3.0788900763	 0.4281254458	 0.076585
H	 1.5317480824	-0.8928801288	 1.7141876106	 0.061723
H	-1.2263912232	-1.5777115675	 2.4271481111	 0.0966
H	-1.1651924185	 0.1937921261	 2.1358656646	 0.098907
87.8184	142.7391	191.2837	229.9268	271.8959	287.1403	308.5123	371.1576	494.3367	554.7955	638.3495	706.8634	763.3613	811.7272	850.3055	869.2984	899.3589	925.2835	957.0795	1021.3313	1032.198	1058.4648	1070.0602	1082.8275	1104.1975	1117.7844	1145.5535	1169.1531	1174.171	1208.5735	1241.6111	1250.4846	1260.7509	1275.9492	1296.9942	1311.2443	1396.3672	1415.9792	1465.7925	1480.1468	1487.8886	1520.3428	1521.771	2967.4735	2993.2198	3031.5487	3035.7964	3045.2611	3058.8234	3092.3978	3093.6555	3105.0618	3116.7226	3828.1618
CC12C(CO)C3C1CN23	C[C@@]12[C@@H](CO)[C@H]3[C@@H]1CN23	
InChI=1S/C7H11NO/c1-7-4-2-8(7)6(4)5(7)3-9/h4-6,9H,2-3H2,1H3	InChI=1S/C7H11NO/c1-7-4-2-8(7)6(4)5(7)3-9/h4-6,9H,2-3H2,1H3/t4-,5-,6+,7-/m0/s1
