23
gdb 62555	1.80872	1.59191	1.56172	1.0667	86.15	-0.2334	0.0708	0.3042	1130.1758	0.203625	-388.270921	-388.260781	-388.259837	-388.304719	39.246	
C	-0.0097117892	 1.5239217315	-0.0356220548	-0.462229
C	 0.051531049	 0.0041381896	-0.0463935118	 0.199438
C	-1.1863296154	-0.6168662654	 0.5880678135	-0.463323
C	 0.6721451452	-0.7963964314	-1.1938969937	 0.245572
C	-0.0357266473	-1.8704999163	-1.9731394564	-0.49637
C	 1.8923786235	-0.0484255257	-1.7620368686	-0.284192
C	 2.570484535	-0.0746644404	-0.3549236334	-0.297866
C	 1.3289662717	-0.7834987203	 0.1916333519	 0.308056
O	 1.4013754282	-1.833046183	 1.0993329547	-0.460545
H	 0.8762894932	 1.9974657876	-0.4622600353	 0.118022
H	-0.8778782509	 1.8779616189	-0.6045159547	 0.112936
H	-0.1203359634	 1.898456885	 0.9893120432	 0.107054
H	-2.0811766643	-0.4103791696	-0.0099134749	 0.113138
H	-1.0939483192	-1.6966958708	 0.7117393981	 0.132517
H	-1.35654087	-0.1869482686	 1.5828951611	 0.103966
H	-0.5889469852	-1.4399293928	-2.8175799822	 0.114973
H	 0.6830499846	-2.5876187067	-2.3861150834	 0.116548
H	-0.7484610034	-2.4315616004	-1.3649722946	 0.123172
H	 2.4367108946	-0.6528175811	-2.4924044911	 0.099059
H	 1.7049626739	 0.9349469883	-2.2035843041	 0.093195
H	 3.4415232168	-0.7334895827	-0.3348304276	 0.106115
H	 2.8446733462	 0.8843838485	 0.0974738901	 0.087594
H	 1.3069372963	-1.4760215845	 1.9896161841	 0.283169
149.326	159.9106	172.4764	194.942	204.8733	249.2898	254.1951	287.7089	307.3648	342.9982	394.55	427.5097	481.4356	555.9339	624.3418	647.6037	693.2716	720.6722	810.257	911.1101	947.2536	964.2753	969.7571	997.6591	1024.2153	1058.9535	1120.9626	1127.3099	1156.3466	1186.8021	1196.7798	1206.7191	1230.2315	1240.251	1267.2872	1314.1004	1327.4848	1403.4211	1415.4082	1427.9589	1448.5077	1474.9062	1486.2406	1490.7031	1493.7166	1499.0452	1511.6145	1516.6698	1524.6969	3020.8566	3021.8213	3027.2492	3041.2701	3052.5465	3072.8351	3072.9332	3077.3893	3091.4326	3111.2821	3121.144	3127.7036	3137.7497	3785.9313
CC1(C)C2(C)CCC12O	CC1(C)[C@@]2(C)CC[C@@]12O	
InChI=1S/C8H14O/c1-6(2)7(3)4-5-8(6,7)9/h9H,4-5H2,1-3H3	InChI=1S/C8H14O/c1-6(2)7(3)4-5-8(6,7)9/h9H,4-5H2,1-3H3/t7-,8-/m1/s1
