21
gdb 22684	2.28913	1.16909	1.00699	1.2823	81.63	-0.2244	-0.0046	0.2198	1316.001	0.181192	-420.328376	-420.318362	-420.317418	-420.364035	36.547	
C	 0.2108020193	-0.7058170135	-1.5457744517	-0.379428
C	-0.1254379054	-0.2072066426	-0.128090434	-0.26192
C	-1.5819629758	-0.3552000302	 0.2541982575	 0.297855
C	-2.0374519307	-1.5140630756	 1.1381484396	-0.206452
N	-2.8356085959	-2.5989337215	 0.5525539927	-0.076084
C	-4.0134220492	-2.2798197989	-0.242644538	-0.219365
C	-2.8020024597	-2.8694919287	-0.8795131203	-0.228934
N	-2.4940787262	 0.4781961093	-0.0839744493	-0.15036
O	-2.0006317747	 1.5051727062	-0.9064667014	-0.395197
H	 1.2648480203	-0.5171710805	-1.7711478855	 0.115631
H	 0.0369472649	-1.7809997985	-1.6476784318	 0.125029
H	-0.3956696782	-0.184016144	-2.2898870743	 0.138446
H	 0.4882819127	-0.7424099915	 0.6035535883	 0.100416
H	 0.1305737877	 0.8545902052	-0.0624748232	 0.129813
H	-1.1449323653	-1.9793352954	 1.5700863895	 0.107311
H	-2.6268759904	-1.1111683251	 1.9680522603	 0.126154
H	-4.8859595101	-2.896572567	-0.0420587631	 0.110243
H	-4.2157836677	-1.233918429	-0.4569893323	 0.133199
H	-2.229399036	-2.2117941729	-1.5283649617	 0.116781
H	-2.7713441475	-3.9204561616	-1.1547993527	 0.110295
H	-2.7778179521	 2.062046786	-1.0221684586	 0.306568
41.893	75.7011	101.666	144.2985	217.6528	248.7446	301.4667	318.9042	344.3158	382.9039	431.2488	458.8637	600.0485	657.7398	755.2772	793.9096	811.1493	834.8388	877.1079	946.1944	987.6276	1008.6698	1032.0901	1053.1854	1087.3609	1098.9898	1117.8877	1129.3763	1174.1936	1185.1317	1218.1763	1293.7787	1305.1243	1316.6298	1351.2077	1379.2479	1399.0428	1403.4564	1471.3984	1484.7705	1490.002	1501.1785	1509.3624	1519.34	1708.1078	3038.8698	3044.1373	3047.2057	3083.7804	3090.8306	3104.0314	3107.6973	3111.4748	3131.0525	3186.47	3199.9338	3819.2237
CCC(CN1CC1)=NO	CCC(=NO)CN1CC1	
InChI=1S/C6H12N2O/c1-2-6(7-9)5-8-3-4-8/h9H,2-5H2,1H3	InChI=1S/C6H12N2O/c1-2-6(7-9)5-8-3-4-8/h9H,2-5H2,1H3
