19
gdb 6022	2.57455	1.73447	1.39231	3.5154	71.21	-0.2817	0.0341	0.3158	992.7853	0.162845	-365.087401	-365.077668	-365.076724	-365.12103	35.691	
C	 0.1264091831	 1.53735709	-0.0829808188	-0.4425
C	 0.0242662402	 0.016401559	-0.0028783185	 0.136602
O	 0.76498577	-0.5004569356	 1.0931114232	-0.434898
C	-1.4451952883	-0.5422504641	 0.0366537292	 0.077129
C	-1.3945183163	-2.084952455	-0.0318041059	-0.412587
C	-2.1919032955	-0.0964940834	 1.3123417364	-0.427049
C	-2.1636747223	-0.042217518	-1.1443641568	 0.272409
N	-2.7187446581	 0.3522300139	-2.0791056378	-0.352069
H	 1.1777189758	 1.8270500468	-0.1601698593	 0.132246
H	-0.40668731	 1.9280720148	-0.953160135	 0.154388
H	-0.291552569	 2.0160168337	 0.8105658216	 0.114819
H	 0.4951614568	-0.4150747748	-0.8937909199	 0.104073
H	 0.6367630734	 0.0861912771	 1.8456312784	 0.285684
H	-0.8017599388	-2.4573932348	 0.8059267613	 0.141563
H	-2.4000109917	-2.5100137558	 0.0208524013	 0.126661
H	-0.929153363	-2.4205644905	-0.9626896843	 0.130825
H	-2.2920486599	 0.9898418832	 1.3720663303	 0.132855
H	-3.1961502808	-0.5264187662	 1.3369101447	 0.138181
H	-1.6500034755	-0.4540629104	 2.1924228299	 0.121667
80.3892	150.6467	190.2979	217.9769	239.7274	245.5817	266.034	290.7534	302.5336	344.8419	394.4659	443.5011	515.2806	567.2847	594.9523	699.6544	834.4007	914.4937	949.7722	959.3892	1009.0944	1049.4858	1081.7299	1117.4546	1175.8939	1219.8125	1237.7731	1305.413	1365.2092	1390.3043	1408.6725	1415.8806	1422.6728	1483.3444	1488.335	1494.3906	1495.3749	1505.8155	1512.9706	2346.9733	3034.3173	3044.9428	3048.6684	3051.8591	3107.0107	3122.6385	3125.2626	3129.0945	3132.4799	3141.7399	3814.0358
CC(O)C(C)(C)C#N	C[C@@H](O)C(C)(C)C#N	
InChI=1S/C6H11NO/c1-5(8)6(2,3)4-7/h5,8H,1-3H3	InChI=1S/C6H11NO/c1-5(8)6(2,3)4-7/h5,8H,1-3H3/t5-/m1/s1
