19
gdb 123410	4.63923	0.89775	0.8531	2.0406	81.25	-0.2391	0.0277	0.2668	1406.7927	0.161755	-382.081338	-382.073159	-382.072215	-382.115569	30.76	
C	-0.0997606818	 1.635525923	 0.0779501305	-0.336246
C	-0.2526271619	 0.1736069456	-0.314145072	 0.037178
C	-0.0122168148	-0.9060994454	 0.7069780283	-0.24701
C	-1.4124922264	-0.6332573439	 0.2097757699	-0.276156
C	 1.3231043585	 2.1121405377	 0.0368962498	 0.356953
N	 2.0062319344	 2.3019612005	 1.1657299053	-0.291699
N	 3.2321470389	 2.6914669306	 0.7618358195	-0.180757
C	 3.3511054442	 2.7591292243	-0.5853022724	-0.018586
C	 2.1273870932	 2.3886017052	-1.0972145886	-0.278818
H	-0.7163159766	 2.256772292	-0.5844611078	 0.101973
H	-0.4784199372	 1.7792514902	 1.0952251229	 0.111872
H	 0.0665948998	-0.0517412634	-1.3285541848	 0.079618
H	 0.4774775555	-1.820778256	 0.3914262771	 0.106221
H	 0.2406735389	-0.5922955493	 1.7143651212	 0.119813
H	-2.1048800944	-0.1434920681	 0.8871607992	 0.10871
H	-1.8778645092	-1.3596319022	-0.4476943917	 0.106761
H	 3.9274067877	 2.9075106026	 1.4551192891	 0.272578
H	 4.2713374452	 3.06182849	-1.0598323238	 0.129377
H	 1.850385306	 2.3280411464	-2.1374949316	 0.098216
32.7639	61.2256	118.0676	277.2705	311.8862	358.1791	410.7331	495.7238	655.3861	685.2996	750.4759	771.8149	776.0008	807.3374	838.6411	846.9319	894.1079	945.5583	954.354	991.6737	999.0553	1055.0325	1068.5287	1076.1649	1101.2225	1124.2836	1138.5348	1196.9268	1207.2783	1225.0477	1256.269	1294.1958	1332.9283	1400.3532	1414.6021	1467.3798	1472.2804	1479.8963	1492.2468	1508.7277	1575.2252	3022.6424	3079.0934	3127.7793	3132.9195	3138.787	3205.5184	3221.262	3252.7474	3271.782	3679.9329
C(C1CC1)C1=NNC=C1	C(C1CC1)c1n[nH]cc1	
InChI=1S/C7H10N2/c1-2-6(1)5-7-3-4-8-9-7/h3-4,6H,1-2,5H2,(H,8,9)	InChI=1S/C7H10N2/c1-2-6(1)5-7-3-4-8-9-7/h3-4,6H,1-2,5H2,(H,8,9)
