17
gdb 99735	2.11324	1.48303	0.90414	3.5551	65.26	-0.2503	0.0088	0.2591	1230.1891	0.136861	-492.355126	-492.346205	-492.345261	-492.389797	32.833	
N	 0.0967436558	 1.2719725452	 0.2859078108	-0.526695
C	 0.1178364388	-0.0368347297	-0.051533141	 0.416431
O	 1.1011786676	-0.6145070687	-0.483029201	-0.37598
C	-1.239026574	-0.7823820082	 0.0504213055	-0.294876
C	-0.9699109685	-2.3000279466	 0.0114970239	-0.183748
N	-2.2360170445	-3.0556501101	-0.099368528	-0.538394
H	-2.9777271529	-2.0609144202	 1.024288734	 0.32791
H	-2.6146564206	-2.9874728459	-1.040076834	 0.249065
H	-2.0807943178	-4.0406113491	 0.0877203366	 0.254684
C	-2.1764023415	-0.3354588692	 1.2000654259	 0.433146
O	-2.1421540012	 0.7677140176	 1.7006865289	-0.353011
O	-3.0732250729	-1.2313743726	 1.584829015	-0.368157
H	 0.9855075581	 1.7470465679	 0.2999196201	 0.255061
H	-0.6741082549	 1.5985579261	 0.8599302838	 0.285237
H	-1.7854681411	-0.5096447283	-0.8669405698	 0.137693
H	-0.2649754195	-2.5021305248	-0.7971790769	 0.145912
H	-0.4845050709	-2.6052398535	 0.9437164562	 0.135721
31.9012	75.2693	149.425	262.331	288.7699	323.1479	356.3515	391.4469	420.1311	453.322	514.5436	582.065	625.9917	653.0505	726.9547	756.3992	820.285	917.9419	931.1871	1005.9867	1057.2753	1062.6478	1083.9436	1146.9057	1183.2521	1232.7068	1275.5875	1303.3162	1340.2881	1364.9286	1415.1188	1507.6643	1542.6222	1605.5277	1650.1762	1782.5234	1820.0424	2992.3559	2999.1407	3067.1721	3116.991	3483.715	3498.0046	3580.7036	3675.7192
NC(=O)C(C[NH3+])C([O-])=O	NC(=O)[C@@H](CN)C(=O)O	
InChI=1S/C4H8N2O3/c5-1-2(3(6)7)4(8)9/h2H,1,5H2,(H2,6,7)(H,8,9)	InChI=1S/C4H8N2O3/c5-1-2(3(6)7)4(8)9/h2H,1,5H2,(H2,6,7)(H,8,9)/t2-/m1/s1
