16
gdb 14397	4.20475	1.90966	1.63098	1.3089	63.87	-0.2288	0.0526	0.2815	812.7061	0.128439	-383.645672	-383.63849	-383.637546	-383.676435	28.615	
C	-0.0866530263	 1.6240384805	-0.0585517032	-0.478465
C	 0.1259724936	 0.1274746941	-0.0101129337	 0.411764
O	-0.9603507711	-0.5676625814	-0.5927091653	-0.466047
C	 1.4134999955	-0.6598632973	-0.2167489387	-0.176877
C	 2.6574639065	-0.1647338649	 0.5787220299	 0.007319
O	 2.3538136756	 1.0389301403	 1.3007230153	-0.246287
C	 1.9217852916	-0.2198635527	 1.8383336439	 0.007145
C	 0.6406630019	-0.7290074425	 1.1146395294	-0.141888
H	-0.154904191	 1.9492532042	-1.1055829052	 0.099064
H	-1.0377815452	 1.8655139924	 0.4273695448	 0.121664
H	 0.7188326853	 2.1713152986	 0.4208613577	 0.159065
H	-1.0602056752	-0.2372255447	-1.4925822483	 0.280253
H	 1.4656405839	-1.429613616	-0.9757355757	 0.095457
H	 3.697473627	-0.349816747	 0.3372601986	 0.111727
H	 2.2280230848	-0.4608386745	 2.849200863	 0.112356
H	 0.046938693	-1.555338519	 1.4830091473	 0.10375
177.9117	200.7118	266.3761	286.5753	367.2298	371.9201	421.3413	484.9507	608.0583	685.1277	746.4391	764.1735	795.8254	851.8602	887.5325	917.7868	929.376	957.4236	987.4395	1011.5448	1034.1602	1046.81	1095.05	1141.3152	1208.1999	1226.5	1243.977	1275.5424	1284.014	1374.0917	1406.4933	1442.7293	1490.9825	1509.0083	3018.8226	3085.2187	3179.2532	3193.7295	3198.1121	3200.6204	3207.9117	3795.918
CC1(O)C2C3OC3C12	C[C@@]1(O)[C@H]2[C@H]3O[C@H]3[C@@H]12	
InChI=1S/C6H8O2/c1-6(7)2-3(6)5-4(2)8-5/h2-5,7H,1H3	InChI=1S/C6H8O2/c1-6(7)2-3(6)5-4(2)8-5/h2-5,7H,1H3/t2-,3+,4-,5+,6-
