15
gdb 126871	4.59726	0.97528	0.84381	2.4602	77.66	-0.2551	-0.0923	0.1629	1334.358	0.110154	-450.025279	-450.016785	-450.01584	-450.060005	29.94	
C	-0.0544593745	 1.5592765796	 0.0248010269	-0.366566
C	 0.0790535171	 0.0330211099	 0.0001977294	-0.154325
N	 0.8315765094	-0.3756110487	-1.1748013447	-0.271774
C	 1.8881733055	-1.0739728724	-1.0809205017	 0.358125
C	 2.6456770676	-1.4759432577	-2.2471996322	 0.018825
N	 3.6904827576	-2.2209260971	-2.2074434477	-0.042421
O	 4.1050573515	-2.650272435	-0.9715738208	-0.242171
N	 3.4202478791	-2.2307978069	 0.2502435614	 0.06494
N	 2.4272883324	-1.5217255596	 0.1733139649	-0.154624
H	 0.9233072646	 2.033087566	 0.1531702195	 0.125223
H	-0.4912089767	 1.9245438796	-0.9083977875	 0.132225
H	-0.694779506	 1.8659379264	 0.8568867867	 0.121672
H	 0.5120960527	-0.3335034161	 0.937121527	 0.126885
H	-0.92040127	-0.4088803253	-0.1037461244	 0.123462
H	 2.3292856997	-1.1409475128	-3.2301359368	 0.160525
29.6889	54.4961	136.0982	193.5469	272.3683	345.0127	421.1433	437.2117	472.1285	514.2132	582.8288	670.0622	759.7151	779.3151	822.7962	886.3651	916.9422	945.2117	1026.8264	1063.0648	1113.0049	1160.7924	1260.9713	1291.5882	1330.8606	1374.5588	1405.0617	1487.2898	1491.4784	1508.074	1614.4483	1685.126	1726.8694	3022.041	3044.5924	3071.1169	3117.9307	3127.165	3189.8024
CCN=C1C=NON=N1	CC[N]C1=N[N]ON=C1	
InChI=1S/C4H6N4O/c1-2-5-4-3-6-9-8-7-4/h3H,2H2,1H3	InChI=1S/C4H6N4O/c1-2-5-4-3-6-9-8-7-4/h3H,2H2,1H3
