20
gdb 58386	2.14526	1.07623	0.75946	3.8559	80.37	-0.2614	-0.0363	0.2251	1502.7074	0.168096	-403.180169	-403.169613	-403.168669	-403.21681	36.862	
C	-0.1110364053	 1.5521192887	 0.0957688013	-0.4077
C	-0.0389596219	 0.0210541012	 0.021019144	 0.031563
C	-1.4460119237	-0.5858000027	 0.1103695218	-0.409642
C	 0.6905296525	-0.4559085946	-1.2719181115	-0.146708
C	 2.1291234608	 0.1053072299	-1.4152562904	-0.301209
C	 2.8347382896	-0.3563310781	-2.6780966521	 0.148463
O	 3.3163724529	 0.397365962	-3.4835030505	-0.235916
C	 0.725611214	-1.9236720476	-1.3215635065	 0.283312
N	 0.7711015343	-3.0787370744	-1.3434055234	-0.335084
H	 0.8734532768	 2.0197548051	 0.1732857628	 0.125713
H	-0.6161133416	 1.9666871906	-0.784806486	 0.122056
H	-0.685963885	 1.8536611511	 0.9762448388	 0.125279
H	 0.5502478283	-0.343419796	 0.872868401	 0.095492
H	-2.0732395492	-0.242100622	-0.720750315	 0.119288
H	-1.4216574212	-1.6782541983	 0.0868775032	 0.146658
H	-1.9321862288	-0.2783721418	 1.0407736817	 0.122225
H	 0.1000980234	-0.1170857168	-2.1345740484	 0.13393
H	 2.1118283509	 1.1955491012	-1.427497382	 0.136595
H	 2.7237296559	-0.2271964396	-0.5532891315	 0.13624
H	 2.8866232975	-1.4579170977	-2.8150308172	 0.109444
47.5696	68.34	70.0509	152.2817	167.2389	214.695	235.9216	263.1422	314.9875	362.1538	402.9716	427.9154	496.942	546.8484	589.8367	805.2147	825.4529	872.2331	936.3975	955.7423	967.9487	1007.6403	1054.8011	1089.7582	1140.9127	1154.3406	1188.172	1223.0023	1273.3682	1317.3754	1333.8707	1350.7061	1370.1183	1407.1458	1428.3162	1431.7495	1462.6968	1487.9812	1495.595	1506.0907	1515.1443	1833.3219	2351.3547	2909.416	3012.812	3024.4826	3032.8784	3034.0421	3039.1776	3100.1071	3106.107	3118.3808	3123.1133	3137.7173
CC(C)C(CC=O)C#N	CC(C)[C@@H](CC=O)C#N	
InChI=1S/C7H11NO/c1-6(2)7(5-8)3-4-9/h4,6-7H,3H2,1-2H3	InChI=1S/C7H11NO/c1-6(2)7(5-8)3-4-9/h4,6-7H,3H2,1-2H3/t7-/m0/s1
