18
gdb 95276	2.69312	1.76346	1.27341	2.912	70.63	-0.2455	0.0241	0.2696	997.6352	0.150425	-439.109285	-439.101885	-439.100941	-439.141258	28.924	
O	 0.0187864899	 1.3961478855	-0.123885514	-0.423636
C	 0.015072319	 0.005117666	 0.0950131619	 0.147466
C	 0.5365543615	-0.4622885625	 1.4644087504	-0.264581
C	 0.0113339221	-1.9047547924	 1.5552152814	-0.234042
C	-1.3845515227	-1.8514464122	 0.9083146844	 0.084321
O	-2.4082960035	-1.610268399	 1.9113764605	-0.23463
C	-2.8681038493	-0.3592193524	 1.6675034501	 0.112946
N	-2.4171065094	 0.308576426	 0.6911642886	-0.247102
C	-1.4249840127	-0.5572242283	 0.0312289913	-0.036146
H	 0.9339099891	 1.6932614867	-0.1155426449	 0.283115
H	 0.5957381982	-0.5124469996	-0.6892804618	 0.061989
H	 1.6253367305	-0.3963763274	 1.5503528053	 0.089942
H	 0.0976955614	 0.1694194069	 2.2442822279	 0.122121
H	 0.6492035793	-2.5803999322	 0.9734212276	 0.103708
H	-0.0403543558	-2.2969725543	 2.5732862302	 0.117091
H	-1.6562668591	-2.7756855373	 0.3953380433	 0.090448
H	-3.6300669055	-0.0214841535	 2.3618922103	 0.138851
H	-1.7353446531	-0.7218102298	-1.0039628124	 0.088137
79.9754	185.9155	230.9556	257.8181	337.1342	410.7576	483.8839	502.9332	595.7044	647.3966	785.0018	818.6759	842.6336	863.2412	915.157	932.1748	953.1799	963.5868	976.6972	1033.5749	1066.5453	1103.8948	1124.6478	1140.1966	1172.6041	1193.4485	1243.2674	1258.0377	1297.6678	1307.5761	1321.4233	1335.4536	1342.6184	1370.863	1385.2457	1434.6072	1477.969	1498.5303	1703.5966	2937.9237	3042.5537	3049.3848	3068.6932	3093.8425	3097.0542	3111.1521	3211.4752	3822.327
OC1CCC2OC=NC12	O[C@H]1CC[C@H]2OC=N[C@@H]12	
InChI=1S/C6H9NO2/c8-4-1-2-5-6(4)7-3-9-5/h3-6,8H,1-2H2	InChI=1S/C6H9NO2/c8-4-1-2-5-6(4)7-3-9-5/h3-6,8H,1-2H2/t4-,5+,6-/m0/s1
