17
gdb 30428	3.26711	1.1836	0.88247	3.5708	75.23	-0.203	0.0292	0.2321	1309.3904	0.134494	-455.165083	-455.155553	-455.154609	-455.200493	33.461	
C	-0.0225564497	 1.3917658863	-0.0970517405	-0.329552
N	-0.0523353861	-0.0581348739	-0.1338043212	-0.362005
C	-1.1512433138	-0.651973955	-0.0588539931	 0.514691
O	-1.2527676321	-2.0186486208	-0.0863087471	-0.255745
C	-2.5963907592	-2.3378916947	 0.0217923642	 0.327392
C	-2.973810828	-3.7680738673	 0.0182027017	-0.494544
C	-3.30490054	-1.2135970661	 0.1112492603	 0.135477
N	-4.6685697221	-0.993749202	 0.2343794684	-0.597327
O	-2.4112677754	-0.1231638666	 0.0603999904	-0.249373
H	 0.6785517942	 1.7188289447	 0.6790331422	 0.124109
H	 0.3593860433	 1.7756234695	-1.0507803965	 0.123655
H	-0.9958175697	 1.8599843039	 0.096328882	 0.114962
H	-2.5013802791	-4.3021971955	 0.8499774624	 0.144853
H	-4.0578533772	-3.8535256805	 0.1110082412	 0.1529
H	-2.6556605904	-4.2571312404	-0.9091416917	 0.144826
H	-5.0464943388	-0.4620343458	-0.5442498816	 0.25285
H	-4.9056121359	-0.5041913558	 1.0922559789	 0.25283
22.2448	107.133	162.4628	189.1738	200.9248	236.0466	249.1591	261.1158	359.8865	376.7857	562.3969	608.0319	647.45	657.3089	728.5789	786.8188	813.9974	916.0146	953.3805	1017.9647	1071.794	1117.143	1137.8067	1161.8549	1221.2888	1235.7519	1281.3422	1331.0105	1422.323	1446.99	1473.6085	1489.2039	1494.7227	1502.8856	1658.0883	1807.1338	1859.8367	3008.5581	3035.9242	3068.1556	3076.0818	3088.0805	3144.3403	3490.8765	3554.3158
CN=C1OC(C)=C(N)O1	CN=c1oc(C)c(N)o1	
InChI=1S/C5H8N2O2/c1-3-4(6)9-5(7-2)8-3/h6H2,1-2H3	InChI=1S/C5H8N2O2/c1-3-4(6)9-5(7-2)8-3/h6H2,1-2H3
