20
gdb 107890	2.61647	1.67368	1.17922	1.0693	79.9	-0.2119	0.0863	0.2982	1102.1442	0.169847	-403.037264	-403.028829	-403.027884	-403.07016	32.534	
C	 0.4049146419	 0.6055086597	-0.597599748	-0.24498
O	-0.1085111447	 0.534247245	 0.7262410346	-0.293939
C	 0.5361225648	-0.321299643	 1.5711734004	 0.443451
C	 0.1270300509	-0.5302084155	 3.0290902229	-0.330886
C	 1.3360160903	-1.470238429	 2.8512817655	-0.07831
C	 0.9446171226	-1.8341706172	 1.3727968194	-0.090268
N	 2.2625242622	-1.4578817235	 0.7715239996	-0.129115
C	 3.3422984255	-2.4236152643	 0.9473398397	-0.322738
C	 2.0764800658	-0.4753659698	 1.88510483	-0.090267
H	 0.3567296569	-0.3672763004	-1.1003256356	 0.122933
H	-0.2191443033	 1.3265250734	-1.1302803141	 0.119463
H	 1.4480204096	 0.9419568861	-0.6066276775	 0.122959
H	 0.2634464157	 0.3236304205	 3.6988997459	 0.099753
H	-0.8435710437	-1.0053426324	 3.197838202	 0.099752
H	 1.7866460092	-2.124786832	 3.5917641537	 0.086829
H	 0.337673338	-2.6703323091	 1.020317546	 0.078463
H	 3.2115115368	-3.2427724937	 0.2321291694	 0.117377
H	 4.2983352259	-1.9380702613	 0.7239805899	 0.117377
H	 3.4087484116	-2.8599644008	 1.9579822453	 0.093681
H	 2.8075892341	 0.2948169773	 2.1382570009	 0.078464
80.8603	166.1678	169.7349	219.6973	268.8183	268.935	354.0653	403.1306	477.702	532.4728	672.0365	712.5823	751.6424	818.7158	853.3712	858.7972	883.8611	931.2378	981.3214	1049.3543	1049.6777	1052.54	1078.9711	1115.5537	1115.9417	1147.7413	1156.0393	1166.3346	1167.7459	1181.0548	1204.8947	1215.785	1225.4567	1274.9664	1304.3728	1357.818	1446.5576	1483.0568	1487.2696	1491.0003	1495.8614	1497.6067	1522.4854	2965.6629	3019.6343	3049.9829	3058.99	3081.6599	3093.9498	3096.3457	3101.885	3108.0811	3124.0052	3160.6712
COC12CC3C1N(C)C23	CO[C@@]12C[C@H]3[C@@H]1N(C)[C@@H]23	
InChI=1S/C7H11NO/c1-8-5-4-3-7(5,9-2)6(4)8/h4-6H,3H2,1-2H3	InChI=1S/C7H11NO/c1-8-5-4-3-7(5,9-2)6(4)8/h4-6H,3H2,1-2H3/t4-,5-,6+,7-
