21
gdb 53506	5.31715	0.63594	0.60314	1.8019	88.09	-0.2432	0.0595	0.3027	1892.3708	0.179951	-387.049518	-387.03884	-387.037896	-387.087708	37.13	
C	 0.1939193325	 1.4738033553	-0.0525277493	-0.498272
C	 0.086262282	 0.0214680598	-0.0728324977	 0.102542
C	 0.0111586594	-1.1806418077	-0.0910191299	 0.028468
C	-0.1047515777	-2.6342622214	-0.1010822188	-0.354104
C	-1.5603126192	-3.1476741849	 0.0780140718	 0.005238
C	-2.4562018299	-2.7060797803	-1.0826163863	-0.412022
C	-1.5115986269	-4.652668948	 0.2745759451	 0.081442
C	-2.5173768307	-5.601250515	-0.219121958	-0.188248
O	-1.2579954816	-5.4602472267	-0.881143227	-0.238453
H	 1.0885699441	 1.7992792882	 0.490054321	 0.146651
H	 0.2550524456	 1.8848622084	-1.0663977774	 0.146348
H	-0.6727274938	 1.9316944723	 0.4373456933	 0.14535
H	 0.2918697141	-3.0386457071	-1.0415667583	 0.139733
H	 0.5225718988	-3.0544036324	 0.6964645822	 0.119801
H	-1.9452543216	-2.7168264437	 1.0120186726	 0.085703
H	-3.5120412606	-2.8989236777	-0.8721360626	 0.110596
H	-2.3395821901	-1.6340881198	-1.2588408897	 0.129601
H	-2.1839488917	-3.2387232766	-1.9991830854	 0.132836
H	-0.9333404984	-4.9650092432	 1.1478948123	 0.088108
H	-2.665139029	-6.5447233816	 0.3052274018	 0.112528
H	-3.3789125654	-5.2451816179	-0.7790809198	 0.116153
11.7214	52.6413	67.6773	98.5816	212.3228	219.2801	234.4281	275.8868	287.6981	360.3816	389.6357	417.1618	510.2584	593.2951	752.7525	793.837	849.1943	875.1399	899.9511	958.417	996.2061	1051.6275	1054.0226	1057.407	1105.81	1122.5189	1145.3423	1165.4531	1169.385	1178.6284	1246.2125	1295.4631	1299.8781	1354.4602	1377.9948	1400.5281	1415.7901	1439.6657	1472.6911	1479.1548	1479.8454	1502.2054	1508.7622	1534.4864	2370.9841	3012.4638	3019.7265	3025.2804	3044.0558	3048.9994	3075.5964	3084.9084	3085.2483	3090.8523	3113.3602	3125.2712	3178.6981
CC#CCC(C)C1CO1	CC#CC[C@@H](C)[C@H]1CO1	
InChI=1S/C8H12O/c1-3-4-5-7(2)8-6-9-8/h7-8H,5-6H2,1-2H3	InChI=1S/C8H12O/c1-3-4-5-7(2)8-6-9-8/h7-8H,5-6H2,1-2H3/t7-,8-/m1/s1
