25
gdb 121111	4.73751	0.69225	0.64038	1.5881	89.89	-0.2366	0.0832	0.3198	1873.9209	0.228851	-389.514449	-389.504032	-389.503088	-389.550786	38.084	
C	-0.1657469801	 1.5944621502	-0.0055007079	-0.379997
C	 0.0483961626	 0.0787142859	-0.0358517054	-0.169612
C	 0.6989266344	-0.459621005	 1.2451680186	-0.192806
C	 0.8875513684	-1.9777546013	 1.2590070785	 0.001747
C	 1.8653358774	-2.5162773598	 0.1963036486	-0.066629
O	 2.4492751905	-3.7051225294	 0.7215632817	-0.280823
C	 2.0426900565	-3.9050929005	 2.0814298107	 0.1566
C	 3.2164660593	-4.4593080117	 2.8738150903	-0.39648
C	 1.5082521162	-2.5465531971	 2.5445371993	-0.253646
H	 0.7847950185	 2.1262127802	 0.1143991503	 0.114408
H	-0.6322323967	 1.9514349535	-0.9289303285	 0.111905
H	-0.8131628035	 1.8852866399	 0.8293469775	 0.113614
H	-0.9152249791	-0.4250139512	-0.18975351	 0.095057
H	 0.6690944984	-0.1835265739	-0.9021426295	 0.101983
H	 1.6761230488	 0.0235329493	 1.3887792649	 0.092204
H	 0.0851793024	-0.1667085726	 2.1076673254	 0.092202
H	-0.0900177628	-2.4558064183	 1.1066336828	 0.072465
H	 1.3734268211	-2.7464251225	-0.7562913265	 0.097466
H	 2.6594699953	-1.7802963854	-0.0077403916	 0.086259
H	 1.2205554524	-4.6411236204	 2.0977842114	 0.061784
H	 4.0432567672	-3.7420564102	 2.8867702805	 0.115759
H	 2.9190510974	-4.6704950795	 3.9063518498	 0.109554
H	 3.5769574891	-5.3888897347	 2.4242766	 0.123913
H	 2.3388739958	-1.9104310244	 2.8774199571	 0.095178
H	 0.7953821408	-2.6302130212	 3.3694377821	 0.097893
48.0166	69.3227	93.7929	104.1371	179.8244	237.481	246.5623	288.7374	303.5734	381.3029	439.9361	468.7914	582.9427	655.9592	744.3119	834.3986	851.1762	890.5386	902.1309	908.381	921.8646	983.9274	1026.0676	1031.7934	1049.3705	1075.1256	1089.6219	1133.9703	1154.1274	1157.4102	1184.9851	1204.7842	1243.5406	1263.0943	1280.2989	1313.9417	1326.772	1349.4298	1359.1284	1369.6112	1392.6117	1398.6644	1406.1114	1413.353	1415.9067	1481.0936	1484.8828	1488.979	1493.62	1499.5164	1499.9305	1509.7935	1528.6938	2947.414	2973.313	3000.9558	3006.0821	3017.5664	3027.2701	3029.4378	3031.7939	3036.778	3045.3659	3057.1144	3094.6248	3095.984	3102.1371	3109.1648	3115.5794
CCCC1COC(C)C1	CCC[C@H]1CO[C@@H](C)C1	
InChI=1S/C8H16O/c1-3-4-8-5-7(2)9-6-8/h7-8H,3-6H2,1-2H3	InChI=1S/C8H16O/c1-3-4-8-5-7(2)9-6-8/h7-8H,3-6H2,1-2H3/t7-,8+/m0/s1
