17
gdb 42921	2.84407	1.46436	1.16959	4.6057	73.17	-0.2259	-0.0232	0.2027	1073.774	0.135959	-417.927186	-417.919394	-417.91845	-417.960127	29.446	
O	-0.2913130774	-0.0710225357	 0.4240708173	-0.298557
C	-0.1316330851	 1.0861869769	 0.1838406502	 0.429008
C	-1.0534978477	 2.2594150105	-0.0894740934	-0.186832
N	-0.6300993506	 3.2993893105	 0.9107526122	-0.321617
C	 0.1300689725	 3.149933163	-0.3386685681	-0.099944
C	 1.12175718	 1.96728474	-0.1519951232	-0.062836
N	 2.2760182883	 1.9381540266	 0.7025839109	-0.087139
C	 3.1538674203	 3.1044883446	 0.7227311895	-0.225062
C	 2.3233610502	 2.7574304937	 1.9110708238	-0.221579
H	-2.0482713518	 2.2782776689	-0.5145651441	 0.119853
H	-1.2769890394	 4.0797784271	 0.794268022	 0.241932
H	 0.1956323247	 3.9508019939	-1.0641689267	 0.107721
H	 1.4391543497	 1.6406518381	-1.1533385728	 0.115128
H	 4.2195498017	 2.893012884	 0.706674449	 0.118938
H	 2.8555854337	 3.9813548582	 0.1502656232	 0.106507
H	 1.4714587358	 3.3884171311	 2.1361897775	 0.145535
H	 2.7835132453	 2.2710615185	 2.7667696326	 0.118945
51.448	133.3296	172.0854	217.4262	297.1033	342.3934	513.3405	563.8278	617.2524	659.847	786.37	806.2253	834.7929	843.8548	860.5483	885.8694	915.2247	952.8868	992.8555	1041.0871	1048.0059	1087.2363	1095.7787	1098.2116	1124.3639	1137.4472	1168.9855	1181.4393	1188.4887	1269.9286	1307.7754	1338.0041	1349.0411	1365.6741	1493.6753	1519.239	1908.9293	3012.3726	3094.8482	3122.4873	3180.1511	3196.081	3212.5267	3224.1473	3466.297
O=C1C2NC2C1N1CC1	O=C1[C@H]2N[C@H]2[C@H]1N1CC1	
InChI=1S/C6H8N2O/c9-6-4-3(7-4)5(6)8-1-2-8/h3-5,7H,1-2H2	InChI=1S/C6H8N2O/c9-6-4-3(7-4)5(6)8-1-2-8/h3-5,7H,1-2H2/t3-,4+,5-/m1/s1
