15
gdb 9241	6.36293	0.77941	0.71565	4.3623	76.19	-0.2882	-0.0505	0.2378	1509.017	0.117198	-362.649749	-362.640778	-362.639834	-362.683848	30.983	
C	-0.0141857084	 1.5635240706	 0.0526777918	-0.388255
C	-0.0248568974	 0.0357359867	-0.0157220089	-0.184776
C	 0.7390120576	-0.4965074816	-1.245713864	-0.079867
O	 2.0948646313	-0.0717688892	-1.2784745219	-0.403124
C	 0.6390181918	-1.9572900906	-1.3360074754	 0.085886
C	 0.5791547144	-3.164005392	-1.3719527925	 0.066182
C	 0.509073102	-4.5268042854	-1.4177079303	 0.205248
N	 0.4489868007	-5.6863772545	-1.4535102688	-0.332493
H	 1.0097244288	 1.9449161161	 0.0578647913	 0.135431
H	-0.5298948363	 2.0002915743	-0.8093477305	 0.122292
H	-0.5188019399	 1.9131673118	 0.9574146536	 0.120601
H	 0.4305386457	-0.3951343678	 0.8852555695	 0.106572
H	-1.051760719	-0.3447511249	-0.0555100849	 0.119623
H	 0.2915288589	-0.0654156455	-2.1505957578	 0.135287
H	 2.5532237797	-0.482366878	-0.5357600413	 0.291393
72.5263	74.9269	134.0525	206.8519	218.5626	252.7164	293.4744	327.721	396.4485	506.395	527.7744	576.1838	596.126	747.8929	793.9513	886.6905	982.2021	1061.3716	1091.5816	1113.5364	1163.3385	1251.3104	1290.1528	1327.4877	1369.8431	1407.3642	1416.7404	1479.9489	1494.5265	1507.1853	2261.2617	2398.7968	3025.375	3038.3259	3042.7826	3073.1976	3110.5054	3129.5785	3795.4625
CCC(O)C#CC#N	CC[C@@H](O)C#CC#N	
InChI=1S/C6H7NO/c1-2-6(8)4-3-5-7/h6,8H,2H2,1H3	InChI=1S/C6H7NO/c1-2-6(8)4-3-5-7/h6,8H,2H2,1H3/t6-/m1/s1
