18
gdb 8496	2.70811	2.07927	1.98495	1.8846	67.76	-0.2481	0.0683	0.3165	827.449	0.15289	-384.890758	-384.882921	-384.881976	-384.922071	31.27	
C	-0.1566345356	 1.5403792092	-0.0111612973	-0.486585
C	 0.0264825364	 0.0289896541	 0.0112081188	 0.397666
O	-1.2475906107	-0.5896939161	-0.09296379	-0.494098
C	 1.219018811	-0.6516259921	-0.7513081415	-0.128767
C	 2.1634665433	-0.127047888	 0.3754376852	-0.276987
C	 0.9087728627	-0.6678118402	 1.0959129062	 0.370051
O	 0.7286867362	-0.638018748	 2.4645763324	-0.476233
C	 0.9949931756	-1.9095304086	 0.1394392947	-0.297776
H	 0.7759113177	 2.1001826987	 0.0620702303	 0.127591
H	-0.6441597863	 1.8451108434	-0.9465373878	 0.105183
H	-0.8059376873	 1.8445487283	 0.8156361946	 0.129485
H	-1.725909465	-0.1735090561	-0.8167398493	 0.277362
H	 1.4118785908	-0.6356151766	-1.8221582756	 0.073156
H	 3.0732485502	-0.7113303365	 0.5256730877	 0.099113
H	 2.3713267572	 0.9410696057	 0.4298708966	 0.093911
H	-0.1490150915	-0.9907012094	 2.6513655327	 0.288849
H	 0.0822690569	-2.4766963468	-0.0274755865	 0.110055
H	 1.8680591584	-2.550069261	 0.2818505088	 0.088023
176.5546	187.4142	222.1049	270.6884	313.2127	352.8555	381.2404	431.6592	500.407	563.9857	581.8831	671.6686	699.7115	750.6761	812.5899	916.2208	947.1596	949.5494	968.0387	1002.9578	1031.8102	1052.8558	1104.0033	1113.0247	1148.2274	1156.0573	1190.3481	1194.8098	1207.4936	1236.1552	1289.7059	1362.4734	1391.9081	1413.0099	1484.3225	1495.3251	1505.1648	1548.0216	3024.7743	3076.6191	3081.8433	3090.9739	3136.4832	3137.1202	3151.6507	3168.5467	3800.9424	3816.645
CC1(O)C2CC1(O)C2	C[C@@]1(O)[C@H]2C[C@]1(O)C2	
InChI=1S/C6H10O2/c1-5(7)4-2-6(5,8)3-4/h4,7-8H,2-3H2,1H3	InChI=1S/C6H10O2/c1-5(7)4-2-6(5,8)3-4/h4,7-8H,2-3H2,1H3/t4-,5-,6-/m1/s1
