16
gdb 77334	2.99109	1.2672	0.94294	3.6077	69.77	-0.2466	0.008	0.2546	1179.8976	0.126462	-434.117367	-434.108799	-434.107855	-434.150927	30.953	
N	-0.0323095171	 1.5040189379	 0.1437878527	-0.50769
C	-0.0319559075	 0.0708258957	-0.0661399504	-0.096264
C	-1.4514139661	-0.5451484475	-0.1283160526	-0.15135
C	-1.2564270118	-1.8380456918	-0.9678811449	-0.183755
N	-0.1469867855	-1.4725685127	-1.8293278856	-0.318174
C	 0.6102196237	-0.4272190682	-1.3811810521	 0.383894
O	 1.5954341415	 0.0394624653	-1.9067690677	-0.375874
C	-2.0659629088	-0.788418517	 1.169814048	 0.28498
N	-2.5489584318	-1.00383218	 2.1971352094	-0.317563
H	 0.9290781354	 1.8196284637	 0.2385607579	 0.250609
H	-0.3883867557	 1.97254789	-0.6864433644	 0.233666
H	 0.5247415835	-0.3944811829	 0.7571515847	 0.12962
H	-2.0919202549	 0.1457906999	-0.6893122191	 0.13514
H	-1.0189903459	-2.6901313329	-0.3179260508	 0.134887
H	-2.151961061	-2.0875959359	-1.5428531725	 0.136306
H	 0.1453967419	-2.0275556136	-2.6185057425	 0.261567
71.7695	136.923	151.0003	177.8573	228.6205	264.3623	366.6919	445.8068	480.1438	517.7022	569.8244	593.3355	669.4449	714.4041	841.6737	867.0619	957.8105	1024.6934	1027.9418	1060.6508	1076.8866	1172.0642	1178.9625	1238.8655	1244.5189	1271.3768	1311.8363	1335.6624	1365.0587	1414.0121	1448.9652	1532.936	1670.12	1838.4136	2364.1288	3021.7912	3035.516	3051.3426	3090.7278	3483.7325	3560.7727	3634.8524
NC1C(CNC1=O)C#N	N[C@H]1[C@@H](CNC1=O)C#N	
InChI=1S/C5H7N3O/c6-1-3-2-8-5(9)4(3)7/h3-4H,2,7H2,(H,8,9)	InChI=1S/C5H7N3O/c6-1-3-2-8-5(9)4(3)7/h3-4H,2,7H2,(H,8,9)/t3-,4+/m1/s1
