17
gdb 42872	2.88693	1.39502	1.35939	2.6577	71.54	-0.2437	-0.0404	0.2033	1016.7348	0.136794	-421.86149	-421.854093	-421.853149	-421.893813	28.711	
O	-0.0017228125	 0.0474525945	-0.1804993656	-0.314015
C	-0.0162068755	 1.2383564805	-0.0723868786	 0.427675
C	-1.1138759192	 2.2996218459	 0.1233211819	-0.148847
C	-0.0279643038	 3.0956949197	 0.9167530649	-0.252601
C	 1.057503354	 2.3286344279	 0.0946551466	-0.148847
C	 1.2572440006	 3.0208589407	-1.2655519285	-0.320339
C	-0.070031457	 3.4476236012	-1.9133521727	 0.387354
O	-0.0921994866	 4.1141643629	-2.9178822869	-0.306337
C	-1.3678724885	 2.9857898534	-1.2308906952	-0.320339
H	-2.038153095	 2.0021484323	 0.6211734915	 0.095171
H	-0.0439079228	 4.1835950686	 0.8101714818	 0.110423
H	-0.0104409168	 2.8299258681	 1.9750769323	 0.121086
H	 2.0022179042	 2.0561371615	 0.5678307784	 0.095171
H	 1.8796209548	 3.9171040112	-1.1650825937	 0.139307
H	 1.7746265887	 2.362490408	-1.9736829406	 0.147916
H	-1.8860057599	 2.3135969234	-1.9253525493	 0.147915
H	-2.0110894046	 3.8651314803	-1.1137017664	 0.139307
53.1949	141.4629	223.1695	360.6239	406.9909	450.786	482.1465	490.4331	505.1006	676.3259	725.8343	763.1278	765.3822	849.8235	860.7451	899.8567	961.5758	1019.8779	1037.2364	1055.2531	1063.5732	1071.5033	1099.4286	1169.7487	1197.4209	1199.6589	1244.3765	1271.4754	1279.1355	1282.4983	1336.501	1349.5981	1446.0298	1448.302	1497.7233	1822.8574	1894.6495	3039.6371	3041.4155	3065.6325	3080.3693	3081.1037	3101.9684	3103.3733	3128.8254
O=C1C2CC1CC(=O)C2	O=C1[C@H]2C[C@@H]1CC(=O)C2	
InChI=1S/C7H8O2/c8-6-2-4-1-5(3-6)7(4)9/h4-5H,1-3H2	InChI=1S/C7H8O2/c8-6-2-4-1-5(3-6)7(4)9/h4-5H,1-3H2/t4-,5+
