20
gdb 89804	3.00136	1.4727	1.19072	2.5757	79.86	-0.2236	0.0732	0.2968	1113.9078	0.171457	-403.114818	-403.106777	-403.105833	-403.14712	32.2	
C	 0.2228403269	 1.5576533908	-0.1059462585	-0.403943
C	 0.0611588814	 0.0532141995	 0.038660971	 0.131701
O	 0.6472588022	-0.5764362	-1.11136979	-0.314556
C	 1.1798862481	-1.8288508781	-0.7473717851	 0.499603
C	 0.6182586503	-3.0782944233	-1.3788836099	-0.342434
C	 1.9853110436	-2.5434934772	-1.7783474503	-0.32802
C	 1.4858242736	-1.7655249274	 0.7165379158	-0.154248
N	 2.2419675439	-0.5458384469	 1.0879049285	-0.339005
C	 0.7711717409	-0.5773444117	 1.2280648241	-0.065396
H	 1.2839555333	 1.8167348979	-0.0912781724	 0.141675
H	-0.2120056959	 1.8971623628	-1.0499177102	 0.122897
H	-0.2850124522	 2.0779325415	 0.7128016719	 0.106088
H	-1.0078334177	-0.2111905821	 0.1021025806	 0.067064
H	 0.565601377	-3.9905316986	-0.7924878333	 0.105713
H	-0.1924542333	-2.9413160363	-2.085498869	 0.120296
H	 2.0690957867	-2.0639024307	-2.7469821687	 0.126046
H	 2.8712382549	-3.0818324022	-1.4597279924	 0.114212
H	 1.6059605245	-2.6783579353	 1.2894782879	 0.092524
H	 2.661486913	-0.6881505793	 2.0040852298	 0.230129
H	 0.3137599089	-0.5406820634	 2.2110634701	 0.089652
96.8249	170.274	224.0846	238.1023	274.7846	346.8514	403.3251	460.7878	542.1591	577.2658	682.8648	762.0405	807.2141	811.4485	859.795	868.3646	883.1445	898.6578	927.9427	951.0259	970.6677	1002.3989	1039.965	1052.068	1070.8846	1080.4369	1112.608	1129.0233	1135.997	1168.2991	1188.0957	1251.0505	1269.4871	1302.0893	1353.0471	1374.8708	1388.6452	1404.2337	1442.8605	1450.7276	1485.5009	1499.2115	1504.5092	2959.7912	3043.6774	3113.6111	3125.6329	3136.2101	3136.238	3166.1678	3177.4079	3214.2542	3229.3814	3495.0953
CC1OC2(CC2)C2NC12	C[C@H]1OC2(CC2)[C@H]2N[C@@H]12	
InChI=1S/C7H11NO/c1-4-5-6(8-5)7(9-4)2-3-7/h4-6,8H,2-3H2,1H3	InChI=1S/C7H11NO/c1-4-5-6(8-5)7(9-4)2-3-7/h4-6,8H,2-3H2,1H3/t4-,5+,6+/m1/s1
