18
gdb 99921	2.34647	1.36475	1.05574	5.3712	72.01	-0.2522	0.0233	0.2755	1183.4474	0.148119	-435.238289	-435.229008	-435.228064	-435.272375	34.27	
N	-0.048337611	 1.4779909522	 0.1241573308	-0.531229
C	 0.0530321591	 0.0396290057	-0.1266465911	-0.195831
C	-1.3588220797	-0.5788594389	 0.0460617065	 0.189378
O	-1.9163010598	-0.1244390879	 1.2555606502	-0.449659
C	-2.2020580354	-0.1188188923	-1.0964617417	 0.260381
N	-2.8205893851	 0.2771331917	-1.9890445125	-0.339317
C	-1.3045425127	-2.1024659068	 0.0553925812	-0.010497
C	-0.9910751231	-2.8083988249	 1.3208314192	-0.247497
N	-2.3463012498	-2.8664021955	 0.7424256119	-0.323744
H	 0.8514262603	 1.8721501455	 0.3705685955	 0.248775
H	-0.3838681852	 1.9676954436	-0.6995510537	 0.256349
H	 0.4627823173	-0.2306128547	-1.1093193222	 0.115022
H	 0.689782361	-0.4030932088	 0.644123789	 0.126396
H	-1.5772498924	 0.7844516684	 1.350219316	 0.2971
H	-0.9849825808	-2.5287080379	-0.8928334859	 0.10617
H	-0.4366633641	-3.7417441869	 1.2919316055	 0.119661
H	-0.8431068228	-2.2002194069	 2.2072890069	 0.125908
H	-2.9435294857	-2.2177965657	 1.2520677442	 0.252635
80.5521	106.5579	150.4412	177.1337	206.4401	287.175	293.7967	334.4962	408.4548	444.9975	492.3418	579.4118	621.0675	662.7566	724.6456	844.683	855.7336	882.8512	935.0769	954.2873	993.6995	1026.4293	1054.898	1086.7699	1107.6352	1141.4433	1162.3538	1222.4595	1231.1119	1277.3588	1309.0664	1324.5883	1380.7491	1404.3813	1443.5914	1492.6542	1500.5199	1654.4502	2346.3345	3013.4188	3099.5289	3119.4497	3136.4766	3211.5344	3497.6834	3513.9539	3601.1042	3620.1596
NCC(O)(C#N)C1CN1	NC[C@@](O)(C#N)[C@H]1CN1	
InChI=1S/C5H9N3O/c6-2-5(9,3-7)4-1-8-4/h4,8-9H,1-2,6H2	InChI=1S/C5H9N3O/c6-2-5(9,3-7)4-1-8-4/h4,8-9H,1-2,6H2/t4-,5-/m1/s1
