20
gdb 10653	2.68635	1.60427	1.26665	3.0526	76.74	-0.2454	-0.0133	0.2321	1071.1985	0.175087	-349.017036	-349.00782	-349.006876	-349.050642	33.673	
C	 0.3016940483	 1.512128252	 0.3194494885	-0.38188
C	-0.2011067941	 0.1303218194	-0.1196144063	-0.268502
C	 0.5918993479	-0.4538053848	-1.2754842234	 0.254213
C	 2.000894131	-1.0049017923	-1.056322499	-0.331985
C	 0.9036705741	-1.9565345072	-1.3923260022	-0.047293
C	 0.3783352575	-2.970242671	-0.4003017777	-0.414803
C	 0.3752252354	 0.190765902	-2.5953472629	 0.123779
O	-0.4095851189	 1.0812158108	-2.8167069913	-0.277041
H	 1.3477732812	 1.4692154944	 0.6417438166	 0.108433
H	 0.2254706069	 2.230053322	-0.5004741504	 0.141842
H	-0.2915452707	 1.8908243915	 1.1574462385	 0.110255
H	-0.1743332072	-0.5547560595	 0.7329631273	 0.092475
H	-1.2493394965	 0.2098458002	-0.4281830471	 0.115722
H	 2.7636786536	-0.7874472711	-1.7973861555	 0.119187
H	 2.3563049262	-0.9808538236	-0.0309746946	 0.123377
H	 0.9087840098	-2.3209976006	-2.4177026503	 0.093481
H	 0.4650883208	-2.6219495549	 0.6318383024	 0.124472
H	-0.6733518782	-3.2095374602	-0.5892807258	 0.127353
H	 0.9514166316	-3.9003841322	-0.4795904369	 0.125087
H	 1.0069555413	-0.2299630849	-3.4150711099	 0.061827
91.7162	108.8755	147.4079	208.7664	217.682	231.5041	269.5371	311.5784	373.8244	430.6492	507.7033	547.3653	731.6279	762.7738	794.9224	874.0343	904.377	926.2093	984.7157	1016.4859	1035.2873	1054.9564	1069.0421	1102.9387	1130.9566	1146.1536	1196.8239	1251.3392	1317.7064	1330.6637	1372.9456	1405.0919	1407.8605	1425.7894	1444.8605	1471.8258	1488.6422	1493.7579	1496.0257	1502.4893	1511.8545	1810.5361	2836.5793	3036.0082	3038.5201	3046.6376	3083.4951	3095.8302	3103.0011	3111.511	3124.1185	3129.2258	3131.1708	3209.013
CCC1(CC1C)C=O	CC[C@]1(C[C@H]1C)C=O	
InChI=1S/C7H12O/c1-3-7(5-8)4-6(7)2/h5-6H,3-4H2,1-2H3	InChI=1S/C7H12O/c1-3-7(5-8)4-6(7)2/h5-6H,3-4H2,1-2H3/t6-,7+/m1/s1
