23
gdb 106282	2.67046	1.29677	1.04704	1.0127	87.01	-0.2438	0.0913	0.3351	1279.3288	0.20411	-388.246577	-388.236709	-388.235765	-388.280976	37.332	
C	-0.7295543482	 1.5859310636	-0.3297621773	-0.261706
O	-0.5269406737	 0.186859029	-0.3065848917	-0.290781
C	-1.6737240991	-0.5499486371	-0.1065838894	 0.441007
C	-2.6161654371	-0.5690902707	 1.1391595352	-0.330138
C	-3.16396371	-1.6499697303	 0.1554226578	 0.317701
C	-4.3578263916	-2.540277774	 0.3668652395	-0.509126
C	-2.9646671219	-0.6025147647	-0.9865920835	-0.344273
C	-1.670249468	-2.0974203181	-0.0505244085	-0.041224
C	-1.2315942656	-2.944004481	-1.2353645942	-0.447748
H	 0.2456195012	 2.048171758	-0.4980654555	 0.126531
H	-1.4102380929	 1.8840433716	-1.1398308588	 0.111557
H	-1.1386235308	 1.9530091077	 0.6222607146	 0.111467
H	-2.184175157	-0.932760881	 2.0760178241	 0.087005
H	-3.2551563963	 0.3042967689	 1.2966764863	 0.083046
H	-5.2740517335	-1.9514147786	 0.4849309265	 0.118073
H	-4.5034141428	-3.2158809925	-0.4833282197	 0.119412
H	-4.2367194737	-3.1552023862	 1.2654930376	 0.118128
H	-3.623151659	 0.2700083611	-0.9475138657	 0.084566
H	-2.8722857632	-0.9752469084	-2.0075478821	 0.091765
H	-1.2158346786	-2.4856661492	 0.8695369148	 0.059116
H	-1.6585655195	-2.6185113004	-2.1870553034	 0.115983
H	-0.1416187084	-2.913941356	-1.3369744562	 0.126287
H	-1.5177072003	-3.9910188116	-1.0846520803	 0.11335
74.3021	143.4103	160.3991	168.7142	183.6193	202.3075	251.2523	305.8541	349.3579	426.527	483.7167	549.1113	578.3506	612.9043	644.8847	745.6163	775.8083	830.6148	954.5476	958.1665	995.2172	996.6971	1033.3103	1042.6876	1084.6601	1107.8977	1125.4596	1135.2745	1143.027	1154.4187	1180.77	1182.4276	1196.2619	1207.0656	1249.5577	1296.1333	1345.3302	1405.7701	1412.6866	1426.3056	1482.4357	1486.794	1487.0592	1489.8385	1491.7731	1494.8755	1506.0331	1509.8548	1551.7457	2990.5245	3023.5797	3025.3228	3035.6538	3040.6818	3045.9718	3060.7659	3090.9068	3092.3594	3092.8477	3110.2209	3115.0429	3119.9457	3129.167
COC12CC(C)(C1)C2C	CO[C@@]12C[C@@](C)(C1)[C@H]2C	
InChI=1S/C8H14O/c1-6-7(2)4-8(6,5-7)9-3/h6H,4-5H2,1-3H3	InChI=1S/C8H14O/c1-6-7(2)4-8(6,5-7)9-3/h6H,4-5H2,1-3H3/t6-,7-,8-/m1/s1
