16
gdb 22608	3.10258	1.2696	1.07141	1.6465	69.61	-0.2322	0.0022	0.2344	1121.0254	0.122253	-474.936118	-474.927499	-474.926555	-474.969057	32.897	
O	-0.2416337	 1.3092545749	 0.1364340266	-0.416075
N	 0.0326956459	-0.0851510417	 0.0329137914	-0.273219
C	-1.0640539176	-0.72119081	 0.0165681173	 0.431424
C	-1.3972888581	-2.1560782393	-0.0862731266	-0.267243
C	-2.2918856257	-2.5156380888	 1.1062939461	-0.30661
C	-2.9177185168	-1.7618865178	 0.0007191054	 0.409738
O	-4.0121274298	-2.2793384376	-0.6443429131	-0.450028
C	-2.5279401849	-0.2775625733	 0.0341121429	-0.049259
O	-2.9965040931	 0.4824509289	 1.1152525024	-0.435881
H	 0.6425890664	 1.6882615281	 0.167899726	 0.309056
H	-0.8864477926	-2.9136316416	-0.6653437654	 0.112639
H	-2.5720909528	-3.5640354999	 1.129314907	 0.130343
H	-2.1268556785	-2.060487663	 2.0774537952	 0.134032
H	-4.0785997341	-1.8714490622	-1.5154233864	 0.289971
H	-2.7684015372	 0.1930149259	-0.93590338	 0.081597
H	-2.405992511	 1.2425509873	 1.1851361513	 0.299517
89.41	159.9178	195.8267	252.0917	279.8318	347.5321	363.4808	393.4938	395.6088	417.8147	528.5753	537.6889	636.8654	669.894	738.0571	811.6241	858.2721	900.2038	951.874	956.2703	998.8154	1051.9246	1096.9981	1133.7287	1160.9201	1168.2419	1220.9758	1245.6913	1308.8276	1331.7378	1398.5774	1408.2087	1441.2859	1506.9384	1783.251	2949.3818	3128.1721	3210.1596	3219.4919	3792.3037	3792.821	3830.0989
ON=C1C2CC2(O)C1O	O[N][C]1[C@H]2C[C@@]2(O)[C@H]1O	
InChI=1S/C5H7NO3/c7-4-3(6-9)2-1-5(2,4)8/h2,4,7-9H,1H2	InChI=1S/C5H7NO3/c7-4-3(6-9)2-1-5(2,4)8/h2,4,7-9H,1H2/t2-,4+,5+/m1/s1
