18
gdb 60949	3.52703	1.0838	0.97841	2.2626	72.29	-0.2388	-0.0413	0.1976	1234.4258	0.146978	-439.033155	-439.024773	-439.023829	-439.066806	31.255	
O	 0.716254667	 1.0495411166	-0.477613589	-0.433754
C	-0.0356626022	-0.0522419363	-0.0431083199	 0.008713
C	-0.0552317018	-1.1314382063	-1.1111136418	 0.140849
O	 0.5211754865	-0.988433046	-2.1623105397	-0.262543
C	 0.5672249455	-0.616818077	 1.2381797541	-0.013004
C	 0.2792429909	-0.1340197143	 2.6020241965	-0.034925
C	-1.1773987069	 0.2794665793	 2.7900370241	-0.256841
C	-1.5443658283	-1.1433867179	 2.3029694358	-0.153306
N	-0.0951434726	-1.5539285828	 2.1710931618	-0.166879
H	 1.0215433895	 0.8177518421	-1.3698379337	 0.295942
H	-1.0830708034	 0.2447788645	 0.1239835559	 0.096541
H	-0.616264763	-2.0555013179	-0.869900134	 0.113756
H	 1.6021574371	-0.9175381128	 1.0839791866	 0.109156
H	 1.0777055503	 0.0498882535	 3.3138296484	 0.102451
H	-1.4423850151	 0.4471364132	 3.8347957938	 0.117506
H	-1.5202428028	 1.1370194746	 2.2031582955	 0.116134
H	-2.0084442143	-1.7575746559	 3.0765192073	 0.119076
H	-2.1359203965	-1.2415418065	 1.3871977784	 0.101128
51.5099	101.6525	164.0703	201.9953	294.4352	315.0782	369.4202	453.8516	486.0157	504.9991	751.5088	761.4549	781.0826	790.7234	794.3409	840.8111	938.0958	963.1075	983.853	1012.8895	1018.0612	1076.5327	1095.8843	1140.2214	1155.2494	1172.4241	1216.6898	1241.3483	1259.57	1269.3911	1297.0422	1312.6635	1366.102	1393.2538	1420.7831	1451.3909	1491.1137	1513.2746	1812.2495	2947.7219	2990.0333	3050.0329	3059.3427	3106.6863	3126.3717	3126.6928	3164.485	3680.5352
OC(C=O)C1C2CCN12	O[C@@H](C=O)[C@H]1[C@H]2CCN12	
InChI=1S/C6H9NO2/c8-3-5(9)6-4-1-2-7(4)6/h3-6,9H,1-2H2	InChI=1S/C6H9NO2/c8-3-5(9)6-4-1-2-7(4)6/h3-6,9H,1-2H2/t4-,5+,6-,7?/m1/s1
