18
gdb 37676	3.01111	2.42156	2.05648	1.621	75.67	-0.2185	0.085	0.3035	775.7477	0.15274	-364.773052	-364.767762	-364.766818	-364.802265	24.295	
C	-0.0128605669	 1.5766205542	 0.0925545687	-0.241976
C	 1.4373586878	 1.9628010431	-0.1287307749	-0.027
C	 2.1421023483	 0.8889370228	-0.8931958003	-0.049023
C	 1.2878191319	-0.3793444229	-0.8453318297	-0.091185
C	 1.8092203461	-1.1919552743	 0.379467242	-0.087434
C	 0.7138200909	-0.5793496479	 1.2389160163	-0.080601
C	 2.1305504033	-0.0319189582	 1.2752664979	-0.013148
N	 2.5063280726	 1.1607431119	 0.5091721273	-0.124977
C	 0.0347949191	 0.0510335113	 0.025443188	-0.049958
H	-0.4091013463	 1.9298017467	 1.0522130575	 0.101965
H	-0.6269462344	 2.0146642106	-0.703405787	 0.099108
H	 1.690615697	 3.0141820997	-0.2420756695	 0.084037
H	 2.8861261626	 1.0662305788	-1.6646985293	 0.082931
H	 1.1043413668	-0.8897453605	-1.7886306423	 0.066663
H	 2.2745544009	-2.1683509895	 0.4033551112	 0.086892
H	 0.2232723561	-0.9691697248	 2.1241153211	 0.079077
H	 2.7052164791	-0.1890293925	 2.1801269643	 0.093689
H	-0.8978164447	-0.4365109885	-0.2601904912	 0.07094
314.665	438.0622	523.4146	619.0725	655.4626	681.2878	725.499	777.133	792.1714	799.6772	813.4485	850.7952	867.9957	905.1504	918.1457	924.6532	976.3763	994.3128	1010.5131	1022.7646	1043.9417	1054.0877	1065.1574	1071.329	1101.6436	1113.2258	1135.9925	1201.4486	1220.7279	1231.2979	1249.7758	1269.2759	1276.9499	1304.549	1318.8006	1355.7223	1380.9052	1393.4583	1483.2041	3026.9156	3065.8025	3101.9401	3131.4478	3134.4849	3148.3162	3165.594	3185.459	3203.1591
C1C2C3C4C5C(C5N23)C14	C1[C@@H]2[C@@H]3[C@H]4[C@@H]5[C@@H]([C@@H]5N23)[C@@H]14	
InChI=1S/C8H9N/c1-2-4-6-5(2)8(6)9-3(1)7(4)9/h2-8H,1H2	InChI=1S/C8H9N/c1-2-4-6-5(2)8(6)9-3(1)7(4)9/h2-8H,1H2/t2-,3+,4+,5-,6+,7+,8-,9?/m0/s1
