20
gdb 14773	10.88247	0.55532	0.54384	3.0826	74.54	-0.2512	-0.021	0.2302	2012.1207	0.173842	-386.147051	-386.136899	-386.135955	-386.183757	33.738	
C	-0.0644345723	 1.5278092669	 0.079853268	-0.384626
C	-0.0082767184	 0.0098607429	 0.0563279302	-0.030469
O	-1.3290651358	-0.4894179486	-0.0112514835	-0.243491
C	-1.3951924417	-1.8954186708	-0.0404471746	-0.044484
C	-2.8594680964	-2.3067840635	-0.1307450748	-0.210012
C	-3.0358419653	-3.833073052	-0.1628069681	-0.275837
C	-4.4941671356	-4.2305325949	-0.1288541729	 0.161246
O	-5.0339967994	-4.9527315456	-0.9257684715	-0.23575
H	 0.9451738541	 1.9460171334	 0.1318516812	 0.115433
H	-0.552083074	 1.9074291097	-0.822446887	 0.127719
H	-0.6307033312	 1.8773440599	 0.9477712865	 0.126905
H	 0.5757239029	-0.3430731077	-0.8108076625	 0.086195
H	 0.4968591897	-0.3732955723	 0.9595476203	 0.085097
H	-0.8319011182	-2.2928488049	-0.9029579375	 0.087883
H	-0.9342463504	-2.3253346118	 0.8669508242	 0.083435
H	-3.3947443962	-1.8822780126	 0.7270979124	 0.113751
H	-3.29703043	-1.8581115014	-1.0294047381	 0.122508
H	-2.5736527144	-4.2810413	-1.047427901	 0.123585
H	-2.5590746523	-4.2708163233	 0.7274146632	 0.119653
H	-5.0656482753	-3.7881901133	 0.7218382754	 0.07126
45.0686	60.1938	73.7638	103.3578	124.4749	153.3622	242.2907	247.8297	288.218	420.0998	484.3668	533.345	756.6426	813.8571	822.5917	896.639	927.5937	999.4741	1033.0603	1060.3452	1100.7154	1151.7194	1154.73	1169.8801	1186.3016	1223.0717	1261.4087	1290.572	1297.3879	1314.9575	1355.4974	1392.19	1409.3296	1429.757	1453.8904	1464.8389	1483.5691	1496.9364	1500.2714	1517.7135	1539.0513	1838.3242	2849.4607	2937.6985	2955.0053	2965.992	2976.2397	3004.6482	3037.5212	3045.0118	3077.4478	3098.7785	3119.6554	3121.648
CCOCCCC=O	CCOCCCC=O	
InChI=1S/C6H12O2/c1-2-8-6-4-3-5-7/h5H,2-4,6H2,1H3	InChI=1S/C6H12O2/c1-2-8-6-4-3-5-7/h5H,2-4,6H2,1H3
