21
gdb 54142	2.34779	1.39774	1.11246	2.1217	80.51	-0.2346	-0.0143	0.2203	1211.5681	0.178294	-424.243104	-424.232589	-424.231645	-424.277926	39.279	
C	-0.2642221244	 1.4646706494	-0.0310924168	-0.469904
C	 0.1162049607	-0.0025778105	 0.0358938649	 0.333824
O	 0.4370370215	-0.5312588086	 1.0815369979	-0.32157
C	 0.0731130251	-0.7664223678	-1.258994315	 0.209674
O	-0.0105363286	 0.0336130106	-2.4102901371	-0.456604
C	 0.8116631746	-2.0901209946	-1.3403941269	-0.377224
C	-0.6918788466	-2.1057870163	-1.331374336	 0.300994
C	-1.4142273471	-2.6409160725	-0.109388506	-0.46754
C	-1.4079071083	-2.3952868861	-2.638625286	-0.435542
H	 0.4734923733	 2.024515456	-0.6159639524	 0.130997
H	-1.2224233373	 1.5953092961	-0.5426188012	 0.146743
H	-0.3078591694	 1.8674755912	 0.9812464046	 0.135268
H	 0.8811039657	 0.3066842414	-2.6510749713	 0.287232
H	 1.3205774185	-2.296445141	-2.2768645112	 0.108636
H	 1.3342069362	-2.3910339154	-0.4387968708	 0.135423
H	-0.8889749366	-2.4025915261	 0.8151558647	 0.155346
H	-2.4303478142	-2.2345795119	-0.0463896275	 0.111926
H	-1.5011009442	-3.7308372573	-0.1860749537	 0.113859
H	-1.4876245894	-3.4787284997	-2.7827198374	 0.11467
H	-2.4243748458	-1.9867660529	-2.6246080515	 0.1178
H	-0.887077194	-1.9656453842	-3.4944965414	 0.125992
70.3446	134.5629	148.7837	177.8593	193.2508	224.4043	278.9124	300.7293	308.0061	365.4805	371.8697	416.5158	461.8921	470.3	567.0329	596.2163	656.9056	719.8913	826.4705	896.557	925.5638	966.3326	975.8366	997.4528	1036.4217	1047.9627	1066.626	1109.4399	1145.3716	1193.2816	1250.2594	1306.8941	1331.7817	1361.1264	1384.0886	1405.9778	1420.1347	1454.5113	1458.903	1470.6629	1484.2138	1490.847	1507.9102	1512.373	1779.949	3028.8521	3035.0353	3045.3757	3082.8468	3089.9963	3107.2143	3124.7833	3145.2803	3152.5585	3156.9139	3222.8686	3800.5158
CC(=O)C1(O)CC1(C)C	CC(=O)[C@@]1(O)CC1(C)C	
InChI=1S/C7H12O2/c1-5(8)7(9)4-6(7,2)3/h9H,4H2,1-3H3	InChI=1S/C7H12O2/c1-5(8)7(9)4-6(7,2)3/h9H,4H2,1-3H3/t7-/m0/s1
