16
gdb 127822	4.58311	1.04596	0.85686	1.4974	75.62	-0.223	-0.01	0.213	1297.5144	0.126024	-430.256369	-430.247992	-430.247048	-430.289583	30.654	
C	-0.0022582663	 1.4494779015	 0.0337259778	-0.338077
N	 0.061276072	 0.0009778708	 0.0398821374	-0.301923
C	-1.0506213276	-0.6334096877	-0.0157928487	 0.269451
N	-2.3152008731	-0.0992913887	-0.1059081423	-0.570368
C	-1.0221278594	-2.1042921372	-0.0262249941	 0.331151
C	 0.0624131776	-2.9513042083	-0.0529985745	-0.162868
N	-0.4937510096	-4.1806800437	-0.0405796356	-0.15517
N	-1.8406130894	-4.1241519558	-0.0080775057	-0.111184
N	-2.1569648385	-2.8628846296	 0.0001652652	-0.28204
H	 1.0108296044	 1.8595562837	 0.0341681717	 0.120353
H	-0.5254418355	 1.8454382451	-0.8515576399	 0.112659
H	-0.5160174247	 1.8540893774	 0.9227441746	 0.103268
H	-2.4549443217	 0.8520399585	 0.1886536717	 0.255241
H	-3.0829852013	-0.7363381839	 0.0442035921	 0.271963
H	 1.1214393399	-2.766281782	-0.0772497539	 0.17071
H	-0.0409386166	-5.08098269	-0.0516803859	 0.286833
84.1628	142.0294	147.1558	160.0035	297.714	307.8408	384.4021	401.2401	488.6414	533.2205	598.416	662.9941	721.3612	743.9101	769.7193	842.7924	972.6406	983.3506	1041.5066	1047.7082	1103.6695	1114.0758	1122.5639	1194.9389	1239.5915	1296.776	1334.1914	1393.3315	1435.1365	1487.4592	1496.3727	1503.3178	1597.7781	1634.9643	1722.6738	2951.9111	2998.4103	3097.2058	3306.089	3586.4017	3657.1364	3713.2334
CN=C(N)C1=CNN=N1	CN=C(N)c1c[nH]nn1	
InChI=1S/C4H7N5/c1-6-4(5)3-2-7-9-8-3/h2H,1H3,(H2,5,6)(H,7,8,9)	InChI=1S/C4H7N5/c1-6-4(5)3-2-7-9-8-3/h2H,1H3,(H2,5,6)(H,7,8,9)
