21
gdb 110232	1.94595	1.49985	1.01286	3.4826	84.1	-0.2352	-0.0055	0.2297	1279.7817	0.181115	-387.095187	-387.085816	-387.084872	-387.129421	35.37	
C	 0.0103047662	 1.4166251216	-0.3671756523	-0.373232
C	 0.0214934859	-0.0002219756	 0.2183632509	-0.218194
C	-1.3459165631	-0.6579375604	 0.1562507774	-0.038698
C	-1.9548731004	-1.2690346353	-1.1101454331	-0.241759
C	-0.9366022727	-2.0854490471	-1.838803849	 0.42698
O	-0.647927686	-2.2048602818	-2.9973649803	-0.325921
C	-0.5681829166	-2.9082381827	-0.5772646086	-0.42068
C	-1.6539854972	-2.1153074572	 0.1767449081	 0.308103
C	-2.641683682	-2.7498533084	 1.112938267	-0.494339
H	 0.9981790187	 1.8809021118	-0.2939022626	 0.115026
H	-0.278229921	 1.4010107845	-1.4229667289	 0.130384
H	-0.7008618759	 2.0592913449	 0.1635652775	 0.112984
H	 0.7647003686	-0.6042691369	-0.3109057199	 0.110512
H	 0.3456036559	 0.0367991142	 1.2667493252	 0.099512
H	-2.1062317169	-0.0781114018	 0.6815254541	 0.089995
H	-2.8911192284	-0.9042431502	-1.5168913222	 0.101877
H	-0.8433658486	-3.9559498482	-0.7371120391	 0.126517
H	 0.4580860845	-2.8663323289	-0.2029202557	 0.116739
H	-2.1561225197	-3.0505759716	 2.049068623	 0.127456
H	-3.4491309973	-2.0562032094	 1.3685868589	 0.122376
H	-3.0908181541	-3.6462488114	 0.6712120495	 0.124362
62.1322	107.463	166.0388	197.0885	213.3139	255.124	297.7939	314.3435	445.8024	469.2034	483.6278	590.3007	606.6762	649.9676	741.4814	798.6075	845.6759	880.8952	941.011	953.9664	955.1806	993.7331	1031.9615	1062.5239	1071.7501	1115.8783	1122.896	1132.1177	1155.2624	1206.1791	1233.858	1283.0146	1299.4348	1332.6778	1360.4152	1411.3058	1420.438	1455.7776	1478.438	1486.092	1487.355	1498.2492	1499.4828	1508.7328	1874.0061	3023.4849	3024.6616	3034.028	3053.9579	3075.9404	3083.4261	3097.9175	3100.5499	3104.8078	3108.6698	3111.4009	3184.1944
CCC1C2C(=O)CC12C	CC[C@H]1[C@H]2C(=O)C[C@@]12C	
InChI=1S/C8H12O/c1-3-5-7-6(9)4-8(5,7)2/h5,7H,3-4H2,1-2H3	InChI=1S/C8H12O/c1-3-5-7-6(9)4-8(5,7)2/h5,7H,3-4H2,1-2H3/t5-,7-,8-/m0/s1
