15
gdb 48512	3.47437	1.65317	1.457	3.5806	68.3	-0.2455	-0.0384	0.2071	898.4495	0.112634	-420.542217	-420.535707	-420.534763	-420.573503	25.529	
O	-0.1000240333	-0.0188834089	-0.2783516856	-0.241982
C	-0.0379093808	 1.1612662978	-0.0328641488	 0.002748
C	 1.2234102621	 1.9327922318	 0.0494062893	 0.25613
C	 1.6767739158	 3.0086618076	 1.0904651902	-0.188118
C	 2.4293135085	 3.701149504	-0.0190876734	-0.09172
C	 3.0983092719	 2.5902061144	 0.7908025599	-0.086014
C	 2.6751238815	 1.3829876981	-0.0940565658	 0.017487
O	 2.7723281673	 1.8003118492	-1.476249654	-0.281597
C	 1.8182269757	 2.8133021669	-1.1338927286	 0.022939
H	-0.9601194735	 1.7627238784	 0.1390168195	 0.075689
H	 1.2165927331	 3.3848192412	 1.9920425995	 0.106611
H	 2.8128587259	 4.710081319	-0.0748258594	 0.103244
H	 3.9943994671	 2.7417060252	 1.3753300749	 0.104239
H	 3.007754901	 0.3659425433	 0.09776101	 0.103345
H	 1.2678323876	 3.2331865921	-1.9739035177	 0.096998
77.2604	156.9588	236.725	432.4863	536.3187	566.5391	701.0359	750.396	765.7812	790.0858	824.6891	832.4711	847.6249	857.7051	911.9237	921.4104	958.083	993.5994	1003.6809	1035.3614	1060.7274	1072.4874	1093.8968	1141.752	1157.9205	1206.2186	1212.2568	1260.0612	1286.7429	1336.7027	1343.4555	1427.3954	1805.9637	2864.9828	3142.4073	3161.2859	3214.2903	3218.624	3233.4998
O=CC12C3C4C3C1OC24	O=C[C@@]12[C@@H]3[C@H]4[C@@H]3[C@@H]1O[C@@H]24	
InChI=1S/C7H6O2/c8-1-7-4-2-3(4)6(7)9-5(2)7/h1-6H	InChI=1S/C7H6O2/c8-1-7-4-2-3(4)6(7)9-5(2)7/h1-6H/t2-,3+,4-,5-,6+,7+
