14
gdb 54062	1.93287	1.5857	0.93955	2.8411	64.31	-0.2797	-0.0295	0.2501	1170.3972	0.100776	-470.074245	-470.065456	-470.064512	-470.108435	30.845	
N	 1.102341438	-0.7613058232	 0.2633698707	-0.573704
C	 0.0130536175	 0.0206241402	-0.0168180918	 0.480439
O	 0.0726917663	 1.2071059562	-0.2487019282	-0.365512
N	-1.2204417513	-0.6841064485	-0.0728236417	-0.159722
C	-1.3247235316	-2.137795734	-0.0961911391	-0.312326
C	-0.9877375825	-2.764640291	 1.1879525361	 0.268603
N	-0.6642053407	-3.2437941614	 2.1886161297	-0.302931
C	-2.4016982692	 0.0428710192	-0.2354689903	 0.181849
O	-3.4841744284	-0.4772219797	-0.3552125626	-0.317511
H	 1.9464388656	-0.2261245521	 0.4013848574	 0.277968
H	 1.0109289579	-1.5802769852	 0.8465397027	 0.282758
H	-2.3666401672	-2.3601167257	-0.3480263274	 0.206183
H	-0.6772577212	-2.5585644195	-0.8721696702	 0.1781
H	-2.2134884633	 1.1225685248	-0.2418029954	 0.155806
69.1977	78.0224	124.0717	209.8831	257.051	316.4572	334.3987	381.8456	454.3971	463.4337	480.1034	567.6892	648.515	666.4514	776.5555	834.8817	941.7065	979.4601	1054.4085	1114.2897	1145.1399	1257.6203	1328.0936	1354.039	1395.4423	1417.3043	1457.7732	1636.4038	1802.804	1824.826	2358.7461	3054.6871	3090.3961	3103.0072	3569.6582	3686.673
NC(=O)N(CC#N)C=O	NC(=O)N(CC#N)C=O	
InChI=1S/C4H5N3O2/c5-1-2-7(3-8)4(6)9/h3H,2H2,(H2,6,9)	InChI=1S/C4H5N3O2/c5-1-2-7(3-8)4(6)9/h3H,2H2,(H2,6,9)
