15
gdb 22644	3.9626	0.98818	0.79629	2.0997	88.76	-0.1924	-0.0467	0.1457	1347.5301	0.112104	-416.745305	-416.736933	-416.735989	-416.778248	31.519	
O	-0.021415328	 1.3142734086	-0.0060136565	-0.397624
N	 0.0673483555	-0.0923467177	-0.0221938982	-0.269537
C	-1.1006203002	-0.6197417268	 0.0204415942	 0.403864
C	-1.2817691584	-2.1322990306	 0.0096908105	-0.251924
N	-2.7310328278	-2.2923364208	-0.1906141544	-0.381765
C	-3.330241863	-1.0430154778	-0.0133654465	 0.234156
C	-2.422061929	-0.0328217428	 0.0653437457	-0.340375
C	-4.7413211627	-0.9424931432	 0.0277283047	 0.253943
C	-5.9428055746	-0.8835266198	 0.0797569608	-0.403698
H	 0.9044233632	 1.5733388047	-0.0524419263	 0.304035
H	-0.7131080326	-2.6140435301	-0.7905578244	 0.139113
H	-0.9634366561	-2.5711628149	 0.9644261823	 0.130385
H	-3.1787520267	-3.0733773491	 0.266476654	 0.24712
H	-2.6406612836	 1.0205276331	 0.0953192156	 0.128211
H	-7.0020915161	-0.8155231227	 0.1198077885	 0.204095
113.1432	127.1202	161.7076	237.5067	250.5321	340.9188	391.0035	474.944	520.0569	559.1165	571.4173	600.6599	616.1703	666.5324	692.7459	723.5864	815.1549	897.8569	972.3097	976.7355	998.9653	1060.3666	1173.8698	1192.8041	1225.6936	1291.8296	1337.6763	1401.5064	1446.9982	1496.7193	1609.0524	1713.072	2230.7832	3018.7398	3082.2012	3289.8853	3500.4277	3602.3504	3825.7561
ON=C1CNC(=C1)C#C	ON=C1CNC(=C1)C#C	
InChI=1S/C6H6N2O/c1-2-5-3-6(8-9)4-7-5/h1,3,7,9H,4H2	InChI=1S/C6H6N2O/c1-2-5-3-6(8-9)4-7-5/h1,3,7,9H,4H2
