16
gdb 128727	2.76689	1.24478	0.86788	3.1651	67.58	-0.246	0.0064	0.2525	1279.4552	0.123522	-474.999053	-474.990166	-474.989222	-475.033551	30.957	
C	 0.0042616737	 1.3607233451	 0.0075122403	-0.243909
O	-0.0033261581	-0.0697152389	 0.0027986454	-0.265662
C	-1.2115231696	-0.6426226022	 0.0102280833	 0.416848
N	-2.3370395989	 0.0330834881	 0.0211733876	-0.256667
O	-3.3365156958	-0.9431376359	 0.025683068	-0.189963
C	-2.7598804465	-2.1573040414	 0.0171854481	 0.021645
C	-1.4092910809	-2.0570886005	 0.0071579562	 0.037166
C	-0.3762725363	-3.1327778642	-0.0043048607	-0.198167
O	-1.0468883736	-4.3818984327	 0.0000702773	-0.420743
H	 1.0545044025	 1.6532295617	 0.0002941541	 0.132609
H	-0.5078879839	 1.7523240045	-0.8765924718	 0.144176
H	-0.4940058907	 1.746390356	 0.9020975181	 0.144174
H	-3.4254821129	-3.0049538032	 0.0196636134	 0.165299
H	 0.2660027523	-3.0209894317	-0.8932440169	 0.109525
H	 0.2827559936	-3.0235900725	 0.8725946984	 0.109539
H	-0.3841779549	-5.0780874323	-0.0076338709	 0.29413
46.4731	117.5721	135.8442	177.708	218.8357	249.9386	257.3249	352.2898	366.2963	577.3018	591.0792	658.2818	730.7681	767.8083	853.17	926.6845	962.4116	1045.0991	1051.3772	1080.035	1151.4043	1180.4617	1204.9448	1225.4995	1241.3956	1241.7194	1304.6736	1440.6884	1465.5452	1476.9974	1479.8996	1501.0614	1518.4053	1567.197	1681.9876	2963.6483	2980.0091	3040.3574	3111.3999	3153.3076	3282.2956	3840.7314
COC1=NOC=C1CO	COc1nocc1CO	
InChI=1S/C5H7NO3/c1-8-5-4(2-7)3-9-6-5/h3,7H,2H2,1H3	InChI=1S/C5H7NO3/c1-8-5-4(2-7)3-9-6-5/h3,7H,2H2,1H3
