18
gdb 57693	3.14025	0.81787	0.75566	4.3361	77.32	-0.2851	0.0145	0.2995	1515.3456	0.146872	-398.157847	-398.14783	-398.146886	-398.193095	35.856	
C	 0.1257466094	 1.5655023545	 0.0181668527	-0.406809
C	 0.0173919236	 0.0297405665	 0.0163203294	 0.06409
N	 0.6809525452	-0.4904139736	 1.2188622899	-0.511603
C	-1.4539438111	-0.4593652147	 0.0086874927	-0.186188
C	-2.249643613	 0.0146905854	 1.2412974515	-0.358529
C	-3.5639905961	-0.6174125363	 1.3116794579	 0.257496
N	-4.6005018955	-1.1261797229	 1.3559357619	-0.300112
C	 0.6588627222	-0.4833565048	-1.2214217819	 0.254196
N	 1.184179319	-0.9067062017	-2.1605164755	-0.3319
H	 1.1701388314	 1.8743410426	-0.0806262594	 0.138726
H	-0.4339131563	 1.9973456156	-0.814916038	 0.1423
H	-0.2590489559	 1.9625520558	 0.9598066792	 0.140164
H	 0.7509734982	-1.5034880299	 1.1732100094	 0.247033
H	 1.6313533944	-0.1361322196	 1.2757282986	 0.245599
H	-1.9419806592	-0.1209615419	-0.9095744269	 0.139393
H	-1.4560094471	-1.5538301606	-0.0207924714	 0.135922
H	-1.686846516	-0.2186064777	 2.1503295003	 0.175402
H	-2.3926962231	 1.0998570034	 1.2214788997	 0.154819
60.7838	94.4829	116.0305	189.6975	193.9088	244.6234	249.2261	314.8329	356.9562	394.0553	403.3335	434.5002	503.0255	586.5398	609.9393	746.5492	775.0763	882.0574	894.4024	948.2489	988.6613	1020.3845	1040.3913	1055.1008	1154.998	1173.8687	1242.5395	1296.0773	1312.8209	1354.5815	1387.2827	1411.3404	1474.1136	1487.2625	1491.6973	1501.0395	1663.4158	2343.5443	2364.3328	3051.2725	3055.5136	3063.2526	3093.7926	3112.6412	3125.5341	3141.3695	3492.1902	3571.939
CC(N)(CCC#N)C#N	C[C@@](N)(CCC#N)C#N	
InChI=1S/C6H9N3/c1-6(9,5-8)3-2-4-7/h2-3,9H2,1H3	InChI=1S/C6H9N3/c1-6(9,5-8)3-2-4-7/h2-3,9H2,1H3/t6-/m1/s1
