14
gdb 127527	3.27623	1.47365	1.02293	1.3938	68.72	-0.2303	-0.0841	0.1463	1076.8702	0.101619	-470.037849	-470.030044	-470.0291	-470.070691	28.393	
C	-0.0297605267	 1.4043052991	-0.0459358975	-0.317877
N	-0.0015632897	-0.0526933885	-0.0229868516	-0.048116
N	-0.0248010296	-0.6732693882	-1.2243365677	-0.275455
C	 0.0015366942	-1.9708593756	-1.1911536614	 0.486491
O	-0.0208172077	-2.6112068745	-2.3727596848	-0.397746
N	 0.0499804517	-2.7624230708	-0.0736355069	-0.31106
C	 0.0719698841	-2.1462415457	 1.0644733405	-0.068164
C	 0.0480368724	-0.6889687123	 1.2078599293	 0.396605
O	 0.070813357	-0.077229075	 2.2660185352	-0.401608
H	 0.8699918988	 1.8003714248	 0.4325750945	 0.157344
H	-0.084169455	 1.7152343222	-1.0869498949	 0.155869
H	-0.8948435801	 1.7656845377	 0.5161210613	 0.158028
H	 0.0034064152	-3.555340471	-2.1712428462	 0.311882
H	 0.1104817454	-2.7276871523	 1.9827048301	 0.153808
58.8806	116.3465	190.4541	305.7729	346.9216	367.9261	396.9657	464.0715	488.554	562.7134	601.0988	631.1211	751.6115	791.7903	830.5926	942.0201	974.962	1056.2666	1147.6135	1168.2455	1223.3834	1292.5734	1346.6823	1372.4645	1430.7729	1451.5932	1470.5292	1497.9778	1561.4982	1669.9846	1761.5322	3056.904	3119.1892	3170.3269	3185.7059	3800.5528
CN1N=C(O)N=CC1=O	Cn1nc(O)ncc1=O	
InChI=1S/C4H5N3O2/c1-7-3(8)2-5-4(9)6-7/h2H,1H3,(H,6,9)	InChI=1S/C4H5N3O2/c1-7-3(8)2-5-4(9)6-7/h2H,1H3,(H,6,9)
