14
gdb 132126	3.0457	1.40159	0.95987	2.0343	71.49	-0.184	-0.0343	0.1496	1117.6556	0.101345	-478.002227	-477.994545	-477.993601	-478.034261	29.496	
O	-0.0593945233	 1.4260243952	 0.0109242624	-0.450466
C	 0.0053159091	 0.0576889779	 0.0031744959	 0.142097
C	 1.157731198	-0.6540202009	-0.0070662771	 0.284079
F	 2.3548075799	-0.0661289099	-0.0107424205	-0.068108
N	 1.1840504148	-2.0123125593	-0.0144826685	-0.414411
C	 0.0418996356	-2.8295376579	-0.0123716417	 0.381386
N	 0.2324701283	-4.10151148	-0.0202710817	-0.577563
C	-1.1930897308	-2.0611239587	-0.0013439014	-0.207412
C	-1.2019251185	-0.702641365	 0.0059030582	-0.105877
H	 0.8386025343	 1.7753338502	 0.0064723591	 0.301652
H	 2.0756200324	-2.4876735211	-0.0221015199	 0.27218
H	-0.6612029802	-4.5877981462	-0.0178606031	 0.209664
H	-2.1209247974	-2.6202227174	 0.0008756816	 0.106316
H	-2.1359896422	-0.1502829068	 0.0140571068	 0.126463
113.6263	207.9782	269.4239	277.2729	298.2337	340.6255	440.4987	469.06	517.6124	540.2329	598.9622	624.7671	717.4502	739.8436	757.7969	803.6979	830.5286	943.7226	976.32	1086.9351	1148.7215	1187.138	1254.1775	1286.0546	1345.8192	1371.9236	1470.9066	1505.8658	1592.489	1676.5072	1746.6948	3187.7046	3209.6702	3512.4834	3616.0453	3818.5597
OC1=C(F)NC(=N)C=C1	OC1=C(F)NC(=CC1)[NH]	
InChI=1S/C5H5FN2O/c6-5-3(9)1-2-4(7)8-5/h1-2,9H,(H2,7,8)	InChI=1S/C5H6FN2O/c6-5-3(9)1-2-4(7)8-5/h2,7-9H,1H2
