17
gdb 8694	2.70647	1.63844	1.30781	2.7578	64.17	-0.2478	0.0227	0.2705	992.3687	0.142289	-397.171695	-397.162418	-397.161473	-397.205164	33.559	
N	-0.0705734266	 1.4576422092	-0.1607169191	-0.503014
C	-0.0324553144	 0.0142692281	-0.0078778043	-0.17192
C	 0.7827254699	-0.5239017104	 1.2036965671	 0.039529
N	 0.2158390687	 0.0344085785	 2.4376310984	-0.523056
C	 0.8209893936	-2.0756816131	 1.2034907358	-0.087191
O	 1.495317167	-2.5864139363	 2.3355167322	-0.419496
C	 2.1793110229	-0.0559740338	 1.0913914637	 0.288675
N	 3.2885777574	 0.2503473268	 0.9806924162	-0.344573
H	-0.2874030097	 1.8799199773	 0.7383217424	 0.243157
H	 0.8491399092	 1.8022703652	-0.4212080487	 0.242119
H	-1.0586121067	-0.3577863691	 0.117262647	 0.109057
H	 0.3570997115	-0.4332166156	-0.9278926979	 0.12141
H	-0.7582259527	-0.2558538667	 2.4970075294	 0.233638
H	 0.6852679997	-0.3956608885	 3.2311959553	 0.248314
H	-0.2101502434	-2.4401995121	 1.26707955	 0.114215
H	 1.2558302916	-2.4458867179	 0.2638796721	 0.108384
H	 2.439188242	-2.4278268115	 2.2175046306	 0.300751
109.466	113.8584	155.8747	185.0035	218.7434	271.2453	298.0912	342.0778	381.9682	399.132	419.1729	462.1459	591.3772	663.8338	710.0171	858.6542	893.1908	917.8895	935.5755	1001.1312	1059.0921	1100.7814	1123.1647	1148.4023	1199.5076	1251.9472	1345.6645	1366.9654	1391.0934	1406.1601	1420.6886	1479.3807	1492.9806	1659.1532	1675.8615	2349.6085	3001.3398	3017.3629	3074.9077	3083.8618	3472.7425	3490.9668	3552.6548	3567.1819	3797.8109
NCC(N)(CO)C#N	NC[C@@](N)(CO)C#N	
InChI=1S/C4H9N3O/c5-1-4(7,2-6)3-8/h8H,1,3,5,7H2	InChI=1S/C4H9N3O/c5-1-4(7,2-6)3-8/h8H,1,3,5,7H2/t4-/m0/s1
