20
gdb 63010	2.42654	1.73683	1.4973	2.1191	76.9	-0.2287	0.0709	0.2996	998.8522	0.171183	-403.103487	-403.095469	-403.094525	-403.135239	33.036	
C	 0.0220664349	 1.5610736978	 0.0218851404	-0.429762
C	 0.039652411	 0.030437683	 0.0087887023	 0.342638
O	-1.301086061	-0.4694132525	-0.0304908198	-0.473389
C	 0.7114360194	-0.6036507535	-1.2165491653	-0.033895
C	 2.1723800633	-0.3613918504	-1.4973780579	-0.326907
C	 1.7450979213	-1.5807767122	-0.7160532488	-0.003557
N	 1.7503103541	-1.6101728915	 0.7499442061	-0.101383
C	 2.2222956205	-0.4061111331	 1.4480550746	-0.267489
C	 0.771484937	-0.6081236405	 1.2080499815	-0.061305
H	 1.0308585394	 1.979607277	-0.0170277073	 0.116203
H	-0.5439078246	 1.9359893324	-0.83567505	 0.126184
H	-0.4541636962	 1.9339702251	 0.9370003481	 0.106013
H	-1.7876086218	-0.0659442629	 0.6963329372	 0.275843
H	 0.0418172849	-0.830615315	-2.0375525193	 0.098719
H	 2.5016983441	-0.5356544396	-2.5166069121	 0.114843
H	 2.6972485184	 0.4543503427	-1.0160298655	 0.112364
H	 1.87976672	-2.5589886327	-1.1622488574	 0.097677
H	 2.629551051	-0.594921102	 2.4382299952	 0.114616
H	 2.7540362091	 0.3631229547	 0.8991814415	 0.110682
H	 0.126870335	-0.9015059167	 2.0349847165	 0.081906
161.8018	194.0889	240.4742	265.1111	335.6868	362.418	381.9065	395.2696	495.8265	527.1675	600.8265	664.3234	697.6251	782.3238	813.2559	827.6917	861.3136	927.7015	940.1019	970.3243	1005.1163	1016.2363	1035.4467	1056.3846	1086.9572	1105.2966	1114.6293	1118.1386	1129.0824	1150.8641	1177.6534	1191.7399	1212.6335	1280.9255	1310.1861	1347.1292	1358.7775	1401.1838	1412.4735	1476.488	1489.812	1492.0755	1522.5257	3028.7382	3097.3101	3112.2871	3117.9441	3124.0346	3139.3922	3174.6184	3183.8726	3199.0714	3219.7295	3806.7348
CC1(O)C2CC2N2CC12	C[C@@]1(O)[C@H]2C[C@H]2N2C[C@@H]12	
InChI=1S/C7H11NO/c1-7(9)4-2-5(4)8-3-6(7)8/h4-6,9H,2-3H2,1H3	InChI=1S/C7H11NO/c1-7(9)4-2-5(4)8-3-6(7)8/h4-6,9H,2-3H2,1H3/t4-,5+,6-,7+,8?/m0/s1
