13
gdb 130004	5.52893	1.32368	1.07058	7.5258	67.06	-0.2067	0.0028	0.2094	1019.689	0.093123	-445.102607	-445.095752	-445.094808	-445.133564	26.449	
N	 0.042144311	 1.3525385098	 0.1289857062	-0.594337
C	-0.024922237	-0.0272346255	 0.0248232763	 0.382376
N	-1.1113744121	-0.7513420416	 0.0501081852	-0.379849
C	-0.6289170401	-2.0519224305	 0.0495603211	 0.327513
C	 0.7487189522	-2.0742684871	 0.0146799398	 0.413123
N	 1.0850436719	-3.3706570538	-0.0698716855	-0.354813
N	-0.076778139	-4.1307000322	-0.0429715139	-0.133978
N	-1.0985356225	-3.3239351476	 0.0128488206	-0.282861
N	 1.171976514	-0.7661128765	-0.0455274904	-0.453811
H	 0.6137976334	 1.79539959	-0.5804657718	 0.255165
H	-0.8899291966	 1.7472148024	 0.1327171664	 0.271728
H	 1.9719088885	-3.8440623865	-0.0660095892	 0.277714
H	 2.0744004563	-0.3984832207	 0.2051910252	 0.272028
155.148	270.797	279.2945	321.2377	349.2984	394.5581	434.7653	548.5887	593.8078	676.1393	681.3693	770.6332	779.9192	789.8238	866.5577	918.2143	964.8012	1027.6972	1133.0202	1215.259	1242.6104	1281.3625	1363.1556	1434.1625	1450.1756	1528.1389	1598.172	1632.1224	1665.5696	3532.4575	3632.4472	3662.7053	3682.2428
NC1=NC2=C(NN=N2)N1	Nc1nc2c([nH]nn2)[nH]1	
InChI=1S/C3H4N6/c4-3-5-1-2(6-3)8-9-7-1/h(H4,4,5,6,7,8,9)	InChI=1S/C3H4N6/c4-3-5-1-2(6-3)8-9-7-1/h(H4,4,5,6,7,8,9)
