18
gdb 98766	3.26633	1.2089	0.98641	4.9692	72.64	-0.2383	0.018	0.2563	1222.804	0.147008	-439.061277	-439.052406	-439.051462	-439.095918	31.972	
C	-0.2076773785	 1.4199571512	 0.1465938138	-0.334932
N	-0.2215378454	-0.0053656035	 0.4109002336	-0.315715
C	 0.845721345	-0.6584401588	 0.9472558395	 0.385441
O	 1.8999668363	-0.1245573249	 1.2365214119	-0.373767
C	 0.6584658945	-2.1654879848	 1.1473101332	 0.049943
O	 0.7243859794	-2.5482331227	 2.5542499357	-0.289842
C	-0.4618569035	-3.3291685443	 2.4025904633	 0.121902
C	-1.6381148441	-2.4664218253	 2.0956509009	-0.306259
C	-0.6841651801	-2.8761137227	 0.9783103264	-0.197221
H	 0.7977966251	 1.7803314722	 0.3677086689	 0.173305
H	-0.4450654402	 1.6294860104	-0.9018776674	 0.125694
H	-0.9237346425	 1.9542210206	 0.7815248489	 0.127249
H	-1.0681893807	-0.5276494439	 0.2573339548	 0.25553
H	 1.4648814771	-2.6697136161	 0.6020345275	 0.111899
H	-0.4914938055	-4.3060207947	 2.8698922824	 0.113003
H	-2.5971217223	-2.974176156	 2.0629303288	 0.120787
H	-1.6624402957	-1.4479905928	 2.4717522842	 0.125527
H	-0.998174669	-3.432962454	 0.1062411937	 0.107457
45.4334	74.4022	115.0128	149.4874	213.2252	290.1376	358.9948	419.8103	467.1363	516.5904	622.0066	751.7992	765.3949	790.8531	810.8478	895.27	943.1769	959.6655	994.6667	1014.4049	1044.8354	1051.1872	1070.5175	1090.9914	1110.2268	1152.8418	1171.753	1196.614	1248.212	1265.7848	1295.8996	1347.1361	1354.6037	1437.6011	1470.5712	1491.487	1499.9952	1561.2393	1787.0121	3027.954	3043.2571	3081.1578	3120.5392	3152.079	3187.381	3205.2282	3215.9247	3648.542
CNC(=O)C1OC2CC12	CNC(=O)[C@H]1O[C@H]2C[C@@H]12	
InChI=1S/C6H9NO2/c1-7-6(8)5-3-2-4(3)9-5/h3-5H,2H2,1H3,(H,7,8)	InChI=1S/C6H9NO2/c1-7-6(8)5-3-2-4(3)9-5/h3-5H,2H2,1H3,(H,7,8)/t3-,4+,5+/m1/s1
