16
gdb 124181	4.82475	0.8224	0.70921	5.3481	78.36	-0.2474	0.0077	0.2551	1541.3058	0.124717	-396.908083	-396.89918	-396.898236	-396.945001	30.279	
C	 0.1453457803	 1.3689822005	-0.7411056494	-0.499504
C	 0.0485335973	 0.0051164761	-0.2389164252	 0.104742
C	-0.0046917269	-1.1211775122	 0.1839903099	 0.022171
C	-0.0970118482	-2.488877359	 0.6900252585	-0.479957
C	-1.3971949818	-3.1644237415	 0.3450189996	 0.358499
C	-1.8819654385	-4.4396076237	 0.5341576952	-0.156747
N	-3.1454780282	-4.5128594882	 0.0308874816	-0.189615
N	-3.4759567871	-3.3531988002	-0.4628663838	-0.121178
N	-2.4226240539	-2.5368281281	-0.2732895249	-0.223449
H	 1.1362616255	 1.7899279251	-0.5400692921	 0.157709
H	-0.0180545872	 1.4078258787	-1.8233806155	 0.154562
H	-0.5948819093	 2.0224547958	-0.2672156325	 0.153997
H	 0.7341676184	-3.0876349908	 0.2959309628	 0.158821
H	 0.0315777569	-2.4868871751	 1.7807272721	 0.159187
H	-1.4046742709	-5.2906492714	 0.992933424	 0.120314
H	-2.4479458666	-1.5786647558	-0.5879292702	 0.280449
11.2048	28.9073	76.4268	194.9966	237.3412	246.5407	337.404	374.3687	462.6853	617.1853	674.035	719.9816	736.4664	775.4001	838.9189	948.9984	998.2997	1052.2788	1054.8819	1065.6801	1077.4537	1134.991	1164.0154	1221.8919	1229.554	1289.744	1342.0961	1372.6539	1415.6828	1453.3972	1471.4829	1477.4165	1478.3215	1598.8583	2373.701	3017.2211	3031.842	3041.6642	3094.2932	3095.3697	3267.1759	3643.7677
CC#CCC1=CN=NN1	CC#CCc1cnn[nH]1	
InChI=1S/C6H7N3/c1-2-3-4-6-5-7-9-8-6/h5H,4H2,1H3,(H,7,8,9)	InChI=1S/C6H7N3/c1-2-3-4-6-5-7-9-8-6/h5H,4H2,1H3,(H,7,8,9)
