21
gdb 88158	2.36668	1.5143	1.19218	1.2864	78.38	-0.2428	0.0819	0.3247	1152.5744	0.181716	-424.218482	-424.209293	-424.208349	-424.252612	34.425	
C	 0.2419895985	 1.5912231808	 0.2687008874	-0.410676
C	-0.00661069	 0.1024080008	 0.1767547351	-0.072477
C	 1.0581574788	-0.8162278154	-0.408709829	-0.371229
C	 0.7632685742	-0.8639902082	 1.0493592299	 0.393099
O	 1.7483522652	-0.3585823242	 1.9228511665	-0.272568
C	 1.1911208153	-0.5205486921	 3.2060746116	 0.016569
O	 0.407812528	-1.6971686347	 3.1817944214	-0.281235
C	 0.1662027033	-2.0450920581	 1.8090075675	 0.069348
C	-1.3111198758	-2.3305149626	 1.5953866277	-0.407175
H	 1.2640989243	 1.7928459124	 0.5990651973	 0.131879
H	 0.0917205544	 2.0763786376	-0.7016741035	 0.116636
H	-0.4389962234	 2.0627279943	 0.9857586252	 0.115872
H	-1.0323767759	-0.177200944	-0.0479159645	 0.085738
H	 0.7492140226	-1.6532302937	-1.0272199398	 0.113224
H	 2.0030953954	-0.3661086658	-0.695645594	 0.124082
H	 2.0076176196	-0.6237929975	 3.9289509816	 0.112383
H	 0.5581048509	 0.3438088406	 3.4723341321	 0.085599
H	 0.7513630484	-2.9490427005	 1.582387656	 0.0819
H	-1.9167566001	-1.4514418249	 1.8312164229	 0.124204
H	-1.5048151301	-2.6267569748	 0.5586906757	 0.116107
H	-1.6271214237	-3.1514537802	 2.244262873	 0.12872
50.1401	133.1101	151.4908	185.1542	221.6515	253.4856	274.0259	373.0288	409.9487	475.5065	534.6048	553.1717	719.7211	749.5356	811.0987	854.462	882.233	893.3455	926.6296	1000.224	1009.2308	1056.3911	1076.043	1104.0205	1118.4525	1126.1985	1127.7129	1135.3407	1171.1183	1186.6969	1220.945	1247.5227	1310.9218	1342.1293	1387.4716	1404.0995	1409.0617	1425.852	1432.4159	1484.3915	1486.9073	1496.689	1499.2051	1505.3829	1548.8294	2946.8244	2985.3894	3032.835	3039.9655	3064.2013	3090.0364	3111.1716	3118.0708	3124.088	3126.5972	3147.0389	3212.4188
CC1CC11OCOC1C	C[C@H]1C[C@]21OCO[C@H]2C	
InChI=1S/C7H12O2/c1-5-3-7(5)6(2)8-4-9-7/h5-6H,3-4H2,1-2H3	InChI=1S/C7H12O2/c1-5-3-7(5)6(2)8-4-9-7/h5-6H,3-4H2,1-2H3/t5-,6-,7+/m0/s1
