21
gdb 41325	2.80619	1.85014	1.6843	0.1811	85.85	-0.2291	0.0203	0.2494	938.3361	0.186856	-349.919033	-349.912475	-349.91153	-349.949314	29.277	
C	 0.0040965088	 1.5559278381	 0.2715855166	-0.297162
C	 1.5467268062	 1.4683318597	-0.0723142188	-0.333675
C	 1.1860633686	 0.2408430087	-0.9506628723	 0.325778
C	 0.5361122837	 0.6744953767	-2.3240386386	-0.236885
C	-0.8221931528	-0.0825011648	-2.3442381537	-0.201285
C	-0.7475617636	-0.9313083237	-1.0400062902	-0.134799
C	 0.4551693488	-1.8847358856	-1.2377127178	-0.065523
C	 1.6107004097	-1.1958579878	-1.1694252696	-0.211331
C	-0.0458229977	 0.0313126081	-0.0620654679	 0.066288
H	-0.2620684646	 1.8369164411	 1.2925338138	 0.095627
H	-0.5377468062	 2.2024403862	-0.4212515565	 0.108456
H	 2.0114536126	 2.3290475212	-0.560240057	 0.093774
H	 2.1295916186	 1.2020853467	 0.8137639122	 0.104561
H	 0.3925394122	 1.7567737764	-2.3822622864	 0.092835
H	 1.1869685264	 0.3927354607	-3.154532206	 0.095283
H	-1.6669749359	 0.6128364205	-2.2980574306	 0.093872
H	-0.9567934628	-0.7043092004	-3.232734187	 0.094412
H	-1.6830326944	-1.4158268844	-0.7546507242	 0.053221
H	 0.3453414921	-2.9277499894	-1.51187508	 0.089572
H	 2.6040379464	-1.5762367435	-1.3764698231	 0.091885
H	 0.236035954	-0.5101118444	 0.8453952072	 0.075095
219.4047	307.7247	342.1074	378.2359	417.9001	520.7964	579.7679	654.9407	673.6161	707.5729	750.0641	801.5784	815.9646	843.4026	852.6905	874.7267	895.3788	911.4764	934.7774	954.6754	970.7176	1007.0169	1045.4518	1073.5176	1081.6129	1116.2096	1126.5486	1141.7688	1190.3102	1198.8995	1201.4794	1228.9487	1234.0825	1251.8135	1268.2149	1281.2807	1309.8521	1322.0187	1348.1598	1386.2863	1481.8981	1489.8205	1496.893	1517.0638	1591.0289	3044.5309	3054.6274	3060.4485	3064.1873	3074.1927	3089.4656	3096.1631	3106.8148	3108.1882	3130.3282	3184.5246	3209.0666
C1CC23CCC(C=C2)C13	C1C[C@@]23CC[C@@H](C=C2)[C@H]13	
InChI=1S/C9H12/c1-4-9-5-2-7(1)8(9)3-6-9/h1,4,7-8H,2-3,5-6H2	InChI=1S/C9H12/c1-4-9-5-2-7(1)8(9)3-6-9/h1,4,7-8H,2-3,5-6H2/t7-,8+,9+/m1/s1
