15
gdb 130406	3.05005	0.94772	0.72581	1.4579	70.19	-0.249	-0.1039	0.1451	1497.2862	0.107635	-491.051692	-491.041078	-491.040133	-491.088744	35.75	
N	-0.3907788379	 0.3415392507	-0.8546959308	-0.717581
H	-0.0951641241	-0.2011665737	-0.0461924403	 0.261256
H	 0.2589250646	 0.113788053	-1.6025346538	 0.24035
H	-1.2897738563	-0.0385130293	-1.1386243489	 0.240352
C	 0.1162498297	 2.560043236	 1.560562988	-0.39466
C	 0.4801237127	 1.6653541988	 2.4801153226	 0.367763
C	 0.878045944	 1.8915602085	 3.879373374	 0.15944
O	 0.9823911628	 2.89507862	 4.5548644663	-0.341846
C	 1.1509486647	 0.5105391136	 4.3369761929	 0.378805
O	 1.5499914006	 0.235680554	 5.5762075857	-0.395898
N	 0.9634278626	-0.3744189493	 3.4231976571	-0.172137
O	 0.542122811	 0.3119987579	 2.2443274731	-0.287966
H	 0.0997315062	 3.6050514084	 1.8470488361	 0.150721
H	-0.1559904546	 2.2537061372	 0.5536942392	 0.189986
H	 1.604192654	 1.0893288641	 6.0357144888	 0.321417
34.0253	64.2692	101.1063	121.1591	123.6556	191.2618	255.7286	280.077	303.7324	306.3315	382.9369	512.9864	521.3992	579.5487	599.6651	741.4633	743.7154	763.4441	834.3853	923.5993	947.7808	1000.1385	1080.5875	1114.7982	1247.6669	1295.8915	1425.06	1453.9285	1675.2737	1688.0966	1688.7486	1720.7363	1802.6542	3131.211	3251.5136	3462.9018	3579.9769	3584.3687	3710.5271	34.0247	64.269	101.1029	121.1591	123.6554	191.2596	255.7286	280.0761	303.7317	306.3314	382.9368	512.986	521.3987	579.5486	599.665	741.4632	743.7154	763.4441	834.3851	923.5989	947.7805	1000.1383	1080.5874	1114.798	1247.6667	1295.8913	1425.0596	1453.9282	1675.274	1688.0965	1688.749	1720.7361	1802.654	3131.211	3251.5137	3462.9016	3579.9769	3584.3687	3710.5268
[NH3+]CC1=C([O-])C(O)=NO1	N.C=C1C(=O)C(=NO1)O	
InChI=1S/C4H6N2O3/c5-1-2-3(7)4(8)6-9-2/h7H,1,5H2,(H,6,8)	InChI=1S/C4H3NO3.H3N/c1-2-3(6)4(7)5-8-2;/h1H2,(H,5,7);1H3
