16
gdb 12404	3.05054	2.14972	1.33722	3.8428	60.63	-0.266	-0.0023	0.2637	889.9596	0.13195	-420.919865	-420.912699	-420.911754	-420.951352	27.092	
O	-0.0265016992	 1.4172107721	 0.0964294202	-0.439141
C	-0.0359888553	 0.0203987311	-0.0103611558	 0.031832
C	-1.4538581314	-0.5408797936	 0.0557056652	-0.229662
C	-1.3723752439	-2.052046309	-0.1645135701	-0.233881
C	-0.7474847765	-2.3437683514	-1.5224884377	-0.061665
O	 0.491000772	-1.6401589777	-1.7729098058	-0.226259
C	 0.7025021502	-0.4063260429	-1.2835227157	 0.390301
O	 1.5200880995	 0.3195755194	-1.7914605311	-0.342076
H	 0.7144754261	 1.7132854009	-0.4536570914	 0.296069
H	 0.546301365	-0.4391233545	 0.8124436391	 0.097743
H	-1.9026206489	-0.2928484749	 1.0215382339	 0.117835
H	-2.0666848273	-0.0653397923	-0.7196258592	 0.114739
H	-0.7748917696	-2.5161838147	 0.6294854204	 0.116496
H	-2.3632008147	-2.5169209101	-0.1338579487	 0.115841
H	-0.4987070573	-3.400874296	-1.6387502015	 0.128675
H	-1.4397842188	-2.0678133265	-2.3277481816	 0.123153
95.6984	142.1446	293.5672	311.5116	371.5328	416.5239	443.9346	477.8977	557.0475	612.0746	681.2882	792.3272	888.4859	912.5892	932.7098	968.979	1075.6063	1094.2374	1121.6006	1157.4479	1180.3364	1204.49	1255.8183	1289.8742	1304.3735	1331.3782	1380.8271	1386.6977	1430.9686	1451.881	1485.4253	1500.1378	1515.6865	1821.1616	2912.5951	3030.8132	3037.2096	3042.5132	3086.3126	3095.8317	3108.268	3719.6761
OC1CCCOC1=O	O[C@H]1CCCOC1=O	
InChI=1S/C5H8O3/c6-4-2-1-3-8-5(4)7/h4,6H,1-3H2	InChI=1S/C5H8O3/c6-4-2-1-3-8-5(4)7/h4,6H,1-3H2/t4-/m0/s1
