18
gdb 18596	3.48523	2.06155	1.66906	1.3418	66.26	-0.2504	0.0737	0.3242	838.9195	0.15509	-384.932123	-384.924962	-384.924018	-384.963643	27.269	
C	 0.2930292109	 1.5854372803	 0.1093110578	-0.401378
C	 0.1100655836	 0.0781137916	 0.0215854365	 0.005311
C	 1.0561231305	-0.7395991853	-0.9142641011	-0.288772
C	 1.362809158	-1.7186787988	 0.2579684446	 0.098564
O	 2.6885451985	-1.7472397466	 0.7495739905	-0.250381
C	 2.8512606695	-0.5567889617	 1.4835665991	 0.012925
O	 1.5980568051	-0.23031685	 2.0544630558	-0.256516
C	 0.5850052587	-0.7894184262	 1.2313320962	 0.067132
H	 1.3201401252	 1.8445529312	 0.3820209937	 0.121974
H	 0.0646976036	 2.0615573068	-0.850208991	 0.11348
H	-0.3659457233	 2.0214740481	 0.8673810829	 0.1199
H	-0.9377319191	-0.1567247025	-0.1950567012	 0.072998
H	 0.5922433812	-1.1904927624	-1.7942673861	 0.102847
H	 1.9442276789	-0.189254941	-1.2381933464	 0.106946
H	 1.0248205182	-2.7472381585	 0.1288342961	 0.088998
H	 3.5781363466	-0.7276806144	 2.283407908	 0.120109
H	 3.1998367786	 0.261771659	 0.8297672841	 0.084888
H	-0.1898552747	-1.1987527895	 1.8832419707	 0.080975
74.422	194.3229	203.5861	232.1981	334.9942	419.3346	515.847	610.1305	730.3175	752.5683	787.0794	850.7113	892.829	919.4716	933.9908	962.4276	988.4134	1018.5872	1069.9454	1117.906	1134.4199	1143.3185	1173.461	1183.9447	1217.2166	1221.0374	1246.3342	1275.9326	1291.807	1340.2212	1350.8748	1365.3198	1408.4697	1432.283	1475.4052	1490.2162	1494.0682	1545.0613	2942.268	3034.059	3043.5836	3058.9236	3079.3969	3084.3554	3099.0691	3105.4392	3110.7262	3120.4334
CC1CC2OCOC12	C[C@H]1C[C@H]2OCO[C@@H]12	
InChI=1S/C6H10O2/c1-4-2-5-6(4)8-3-7-5/h4-6H,2-3H2,1H3	InChI=1S/C6H10O2/c1-4-2-5-6(4)8-3-7-5/h4-6H,2-3H2,1H3/t4-,5+,6-/m0/s1
