19
gdb 45701	2.96238	1.51753	1.061	2.7773	81.51	-0.2364	-0.0117	0.2247	1131.7841	0.161212	-385.93607	-385.928428	-385.927484	-385.968562	29.803	
O	-0.1413688224	 0.0105866928	 0.2221864625	-0.305533
C	-0.0740490317	 1.1996017996	 0.0615641174	 0.370629
C	-1.2694711527	 2.1632308929	-0.129373674	-0.361015
C	-0.6734132027	 3.5069344314	 0.2226585747	-0.243306
C	 0.6571438458	 3.4473004624	 0.2993562406	 0.357966
C	 1.7477148599	 4.3364845778	 0.835465542	-0.329954
C	 2.9021110587	 3.3363321177	 1.176022869	-0.206454
C	 2.2806327019	 1.9150623215	 1.1295026177	-0.22529
C	 1.1943742556	 2.0602621566	 0.0483997347	-0.173482
H	-1.6196716882	 2.0925735706	-1.1698102561	 0.131456
H	-2.1151767759	 1.8639796073	 0.500104319	 0.129826
H	-1.2828151689	 4.3747543178	 0.4496878619	 0.094988
H	 2.0788890013	 5.0819001341	 0.1036735944	 0.114387
H	 1.4087609594	 4.8936961664	 1.7149213386	 0.116374
H	 3.6888489607	 3.4137717351	 0.4181725338	 0.105017
H	 3.3685953647	 3.5532580229	 2.1402985988	 0.103743
H	 3.0169928301	 1.1380688054	 0.9136518811	 0.108544
H	 1.8109923465	 1.6683262377	 2.0881742743	 0.109423
H	 1.6513133378	 1.9674068002	-0.9499543006	 0.102681
67.7104	122.4477	226.2589	236.355	308.8296	459.7955	507.2938	565.9656	594.7051	633.4802	705.0607	749.8511	797.8497	843.4037	877.8822	895.4608	916.4808	944.3295	970.8427	990.1163	1009.8899	1050.1579	1109.3287	1150.2397	1160.3878	1175.2184	1193.306	1226.7363	1257.6496	1269.8465	1277.8973	1294.0444	1326.7783	1334.984	1350.537	1452.9073	1477.5705	1492.3337	1505.2045	1721.9211	1853.5109	2979.1846	3006.5741	3036.2537	3048.5492	3050.9277	3065.5291	3070.7809	3099.6484	3112.3276	3189.3883
O=C1CC=C2CCCC12	O=C1CC=C2CCC[C@@H]12	
InChI=1S/C8H10O/c9-8-5-4-6-2-1-3-7(6)8/h4,7H,1-3,5H2	InChI=1S/C8H10O/c9-8-5-4-6-2-1-3-7(6)8/h4,7H,1-3,5H2/t7-/m1/s1
