19
gdb 121056	3.1538	0.94318	0.8267	2.2466	72.28	-0.2451	-0.0245	0.2206	1435.6674	0.157715	-460.169956	-460.160722	-460.159777	-460.205046	32.779	
C	 0.238440422	 1.3236937437	-0.8123390612	-0.228076
O	-0.0640096228	-0.0483563638	-0.9218682927	-0.233131
C	 0.8348244218	-0.8717208532	-0.2173208666	-0.067436
C	 0.3977712933	-2.3240923092	-0.4172044441	 0.069511
C	 0.5201001789	-2.7907933995	-1.8697390284	-0.346403
C	 1.8843195327	-3.4761586894	-1.9050612431	 0.365875
O	 2.5146907006	-3.8098004557	-2.8720176058	-0.297482
C	 2.3110388063	-3.6606410779	-0.44586089	-0.181981
O	 1.2417473272	-3.1957316346	 0.354471378	-0.266222
H	 0.2044835985	 1.6650348851	 0.2337688731	 0.10903
H	 1.2364753113	 1.55378438	-1.2168351714	 0.108402
H	-0.5118979165	 1.8706145424	-1.3879095196	 0.131046
H	 1.8671006305	-0.7278376673	-0.5848052643	 0.083993
H	 0.8348886902	-0.6387827459	 0.8591082624	 0.101072
H	-0.6163502558	-2.4379924015	-0.0255507549	 0.099659
H	-0.2428301833	-3.536092416	-2.1210885983	 0.139499
H	 0.4520105792	-1.981445883	-2.5982699991	 0.150412
H	 2.5049673554	-4.7161627877	-0.2255120701	 0.137796
H	 3.2435790405	-3.1029987266	-0.2677277438	 0.124435
52.8413	100.011	101.5615	121.3019	192.6286	232.9733	322.4743	401.0364	454.0306	464.6528	470.5421	616.0223	723.6422	770.7985	825.9076	886.1921	950.0258	964.1503	1005.1051	1074.505	1089.3165	1108.1615	1163.0882	1169.1721	1176.556	1196.7913	1220.3473	1228.3351	1241.5351	1273.8164	1310.6744	1349.9076	1373.7486	1421.0357	1450.1197	1481.4255	1485.3067	1486.1791	1503.4418	1525.7369	1859.6248	2942.7432	2975.6424	2991.0033	2998.5691	3021.8202	3056.0061	3067.1284	3081.6301	3118.3081	3131.2679
COCC1CC(=O)CO1	COC[C@H]1CC(=O)CO1	
InChI=1S/C6H10O3/c1-8-4-6-2-5(7)3-9-6/h6H,2-4H2,1H3	InChI=1S/C6H10O3/c1-8-4-6-2-5(7)3-9-6/h6H,2-4H2,1H3/t6-/m1/s1
