15
gdb 31382	2.90775	1.34366	0.92859	4.26	69.41	-0.2507	-0.0446	0.2061	1190.3073	0.113927	-453.987791	-453.979732	-453.978788	-454.021178	28.992	
N	-0.145827724	 1.3838256798	-0.2572580177	-0.485192
C	-0.0068948342	-0.0359766188	-0.0103634939	-0.257983
C	 0.8340552128	-0.4254905515	 1.1891462949	 0.392372
N	 1.3970822534	 0.4222166412	 1.9527635717	-0.353153
C	 2.1719299858	-0.0167038856	 3.0609498069	 0.382016
O	 2.7140640075	 0.7757940912	 3.7970874627	-0.339357
C	 2.2511397495	-1.4737063508	 3.2246663505	-0.253444
C	 1.6177062084	-2.2724036329	 2.3600423118	 0.067532
O	 0.891977881	-1.7860309006	 1.3193891974	-0.208135
H	-0.5342862105	 1.8299233136	 0.5692696491	 0.242624
H	 0.7771961062	 1.7964460945	-0.3612852633	 0.242614
H	-0.9975759554	-0.4907111891	 0.1184857728	 0.142179
H	 0.4260567712	-0.5270320607	-0.8914097845	 0.142173
H	 2.8236742271	-1.8827579412	 4.0465520709	 0.134036
H	 1.6050720612	-3.3551655892	 2.3808898309	 0.151719
62.7647	114.1816	154.3579	180.5878	243.3732	404.8053	414.6048	488.1546	535.5294	588.2632	608.2057	740.6726	775.7114	864.4527	910.977	912.7593	926.4505	968.9139	976.2545	1034.2405	1142.932	1165.7199	1187.9092	1225.7528	1297.5664	1383.1767	1391.0966	1411.1727	1457.1628	1635.1761	1680.8882	1720.6763	1801.4935	3029.9702	3062.3023	3213.3295	3235.0416	3497.9214	3563.784
NCC1=NC(=O)C=CO1	NCc1nc(=O)cco1	
InChI=1S/C5H6N2O2/c6-3-5-7-4(8)1-2-9-5/h1-2H,3,6H2	InChI=1S/C5H6N2O2/c6-3-5-7-4(8)1-2-9-5/h1-2H,3,6H2
