21
gdb 89990	2.92156	1.29397	1.1254	0.5066	78.32	-0.2434	0.0571	0.3005	1191.8469	0.181563	-424.205074	-424.195935	-424.194991	-424.239202	34.806	
C	 0.3876381338	 1.5657327976	 0.1379156868	-0.410243
C	-0.0878010691	 0.125454821	 0.1887681862	 0.102994
O	 0.4323033529	-0.6743659765	-0.9016561581	-0.334324
C	 1.1577500428	-1.5487065488	-0.0220117951	 0.416717
C	 1.010893961	-3.075777597	-0.1818738155	-0.292988
C	 2.5241947938	-3.2094729101	 0.146011082	-0.210579
C	 2.6882681076	-1.7008922182	-0.1850129662	-0.289072
C	 0.5802105761	-0.8219290374	 1.2233932204	-0.008826
O	 1.4514172758	-0.2920841171	 2.185647795	-0.418966
H	 1.4807840121	 1.6312211273	 0.1040605063	 0.105363
H	 0.0042131642	 2.0523077725	-0.7637019305	 0.131732
H	 0.0306991446	 2.1217244524	 1.0107412291	 0.126907
H	-1.184943673	 0.0938741346	 0.2000441766	 0.07704
H	 0.2875662972	-3.5850833553	 0.4612649077	 0.095403
H	 0.7967320439	-3.3248592013	-1.2252611033	 0.113119
H	 2.6989458081	-3.4137769093	 1.2050368468	 0.112874
H	 3.104135406	-3.9171803445	-0.4486701953	 0.101752
H	 2.9689733096	-1.5323327272	-1.2284850647	 0.113846
H	 3.3381998581	-1.1031272621	 0.4608386129	 0.084692
H	-0.1357878733	-1.432151862	 1.7790727598	 0.096751
H	 2.090960078	 0.2747403312	 1.7420054691	 0.28581
41.7253	106.5962	198.3704	215.0569	250.497	260.6266	288.416	363.5321	398.1392	477.7276	507.99	597.776	695.5004	781.2648	798.5272	816.1113	852.8756	900.3148	925.601	932.6401	968.48	1011.1874	1027.7811	1075.7241	1086.9684	1128.6008	1146.9324	1170.0139	1194.2308	1199.0824	1241.685	1250.1661	1258.6118	1272.7509	1292.7285	1304.5146	1320.8049	1384.9317	1406.5279	1441.2445	1464.2184	1480.5233	1481.9758	1500.1712	1502.0015	3017.0286	3033.4428	3047.7378	3052.9074	3071.3708	3084.8645	3101.0906	3102.8571	3105.9506	3116.334	3128.6229	3813.6342
CC1OC2(CCC2)C1O	C[C@H]1OC2(CCC2)[C@H]1O	
InChI=1S/C7H12O2/c1-5-6(8)7(9-5)3-2-4-7/h5-6,8H,2-4H2,1H3	InChI=1S/C7H12O2/c1-5-6(8)7(9-5)3-2-4-7/h5-6,8H,2-4H2,1H3/t5-,6+/m1/s1
