19
gdb 61253	3.67276	0.85276	0.7746	4.1161	77.09	-0.2426	0.028	0.2705	1486.775	0.15753	-419.181291	-419.171397	-419.170452	-419.216664	35.314	
C	-0.8630647402	 1.1422244845	 0.3213220072	-0.315876
N	-0.1864393299	-0.1462225081	 0.2290540404	-0.084819
C	 1.0978016782	-0.2044045287	-0.4510161609	-0.258147
C	 1.0051633936	-0.4031770241	 1.0268152051	-0.017579
C	 1.5819611374	 0.6079482187	 1.9973611606	 0.110537
O	 0.7808402153	 0.7447657434	 3.1581692288	-0.422005
C	 3.0361337858	 0.2131057334	 2.3555651493	-0.368311
C	 3.6611409087	 1.1468171314	 3.2878007587	 0.270934
N	 4.1642326837	 1.8911696049	 4.0139058815	-0.301572
H	-0.1924137504	 2.0145511109	 0.2878554163	 0.104891
H	-1.5598446222	 1.2249984249	-0.5180223896	 0.126241
H	-1.4310574979	 1.1846622298	 1.2539798848	 0.139809
H	 1.2583515844	-1.0479010946	-1.1172809693	 0.121457
H	 1.5343210612	 0.734436825	-0.7944058956	 0.11007
H	 1.0487562364	-1.4266784347	 1.4092823507	 0.086017
H	 1.600712987	 1.6042768362	 1.5479407229	 0.111745
H	 0.6044513783	-0.1340971926	 3.5136857126	 0.285463
H	 3.0444939976	-0.7900610004	 2.8004451283	 0.143833
H	 3.6409834629	 0.1602877103	 1.443584468	 0.157312
58.8583	78.3273	99.8662	165.4069	207.5601	235.5327	277.3951	330.6367	362.8234	390.0747	397.8112	448.6513	529.7275	612.61	757.6324	856.4005	868.6777	912.9668	964.7247	1021.3269	1037.3349	1076.1109	1080.2847	1119.2988	1127.7861	1155.3798	1177.1413	1201.0625	1204.6909	1258.0266	1306.07	1338.7986	1364.6711	1411.0654	1434.8815	1451.3696	1459.3496	1484.0503	1505.3128	1514.3339	2366.7574	2983.3992	3034.6744	3060.1734	3075.8232	3079.0537	3080.3338	3094.8563	3122.7069	3171.9401	3793.9814
CN1CC1C(O)CC#N	CN1C[C@H]1[C@@H](O)CC#N	
InChI=1S/C6H10N2O/c1-8-4-5(8)6(9)2-3-7/h5-6,9H,2,4H2,1H3	InChI=1S/C6H10N2O/c1-8-4-5(8)6(9)2-3-7/h5-6,9H,2,4H2,1H3/t5-,6-,8?/m0/s1
