21
gdb 77013	2.93131	0.99097	0.93275	4.431	83.97	-0.2301	0.0337	0.2637	1380.1759	0.179871	-383.261928	-383.251351	-383.250407	-383.297762	37.962	
C	 0.6182493484	 0.7851282708	-1.9776767046	-0.328464
N	 0.4818418015	-0.2560795083	-0.9706985184	-0.116665
C	 1.5707540158	-0.5692307968	-0.0500576715	-0.041804
C	 2.9046432517	 0.1728929796	-0.0392321176	-0.381886
C	 3.7939466143	-0.2725887043	-1.1142399409	 0.270389
N	 4.4878961517	-0.6306184962	-1.9660000255	-0.307318
C	 0.2967920887	 0.0464477226	 0.4545196936	 0.288962
C	 0.2576053879	 1.4764086301	 0.9662708793	-0.459061
C	-0.7078466782	-0.8600784252	 1.1440406397	-0.43422
H	 1.174086461	 1.6838742191	-1.673095941	 0.097025
H	 1.1223549865	 0.3609143308	-2.8510785796	 0.145167
H	-0.3818890078	 1.103552767	-2.2873771214	 0.128282
H	 1.7084735379	-1.6399266735	 0.1023106749	 0.100497
H	 2.7832604623	 1.2550297462	-0.1224889042	 0.150197
H	 3.4066962636	-0.0109778649	 0.918215185	 0.157454
H	 0.9578342325	 2.1481950968	 0.4681320769	 0.117508
H	-0.7467537157	 1.8936020229	 0.8319994576	 0.127586
H	 0.4782620804	 1.5006734036	 2.0388764951	 0.125811
H	-0.5107109776	-0.9196332196	 2.2204878536	 0.112735
H	-1.7263915454	-0.4780013036	 1.0106593721	 0.118477
H	-0.6684034596	-1.8670924072	 0.7230435068	 0.129327
42.7326	95.2409	134.6082	143.5129	190.3263	217.4646	236.077	271.6819	288.3108	360.4842	383.5018	447.6635	470.099	485.3831	593.2089	698.2129	735.65	817.1208	934.6342	949.4539	966.804	986.3046	1018.1806	1091.7219	1102.6579	1137.7203	1150.0039	1174.4564	1190.1276	1238.8449	1275.8247	1312.3983	1367.0466	1406.1903	1418.9778	1430.6288	1451.8054	1463.8063	1476.67	1486.2743	1494.2203	1500.324	1507.2716	1511.8864	2361.6213	2991.1798	3028.5386	3038.2108	3048.3318	3072.4582	3088.363	3093.2183	3093.3021	3109.2628	3112.5949	3126.5182	3135.2081
CN1C(CC#N)C1(C)C	CN1[C@@H](CC#N)C1(C)C	
InChI=1S/C7H12N2/c1-7(2)6(4-5-8)9(7)3/h6H,4H2,1-3H3	InChI=1S/C7H12N2/c1-7(2)6(4-5-8)9(7)3/h6H,4H2,1-3H3/t6-,9?/m0/s1
