21
gdb 74213	2.06251	1.51348	0.91384	3.9339	88.03	-0.2328	-0.0421	0.1906	1309.8915	0.183603	-387.134804	-387.12591	-387.124965	-387.168852	33.733	
C	-0.4933678332	 1.4206637532	 0.0602716533	-0.459502
C	 0.0752322219	 0.0216032247	 0.0395127205	 0.294519
C	 0.0545547662	-0.6645284963	-1.1175963333	-0.224316
C	 0.4415977046	-2.0442194883	-1.4942653293	 0.35131
O	 0.0910914036	-2.4492103112	-2.5901644415	-0.328563
C	 1.2997971912	-2.9523216585	-0.6219578161	-0.296095
C	 1.1202566797	-2.8956505055	 0.8967535971	-0.210707
C	 1.5580016336	-1.5678922711	 1.5210200189	-0.20532
C	 0.5404165005	-0.432106646	 1.4034976198	-0.276849
H	 0.2843169635	 2.1486618117	 0.3246178092	 0.131747
H	-0.9220730612	 1.7066616586	-0.9020189516	 0.131017
H	-1.2727361605	 1.5115498119	 0.827776708	 0.130091
H	-0.3866107275	-0.1674915145	-1.9788843175	 0.093479
H	 1.1345016314	-3.9649838459	-0.9999277998	 0.120369
H	 2.3447461201	-2.7036045119	-0.8613486493	 0.120319
H	 0.0776310052	-3.1107576783	 1.165736167	 0.100547
H	 1.7176267052	-3.7058163298	 1.3299926895	 0.102644
H	 1.7550520817	-1.7166954292	 2.5890744097	 0.09818
H	 2.5115554569	-1.2551406228	 1.0757697175	 0.099787
H	 0.9394158084	 0.4471405541	 1.9260697363	 0.106265
H	-0.3641754611	-0.7022450852	 1.9719728315	 0.121078
42.3297	131.4596	151.6668	211.7355	281.4978	296.1166	328.4039	392.558	454.9266	498.3101	500.3975	574.0228	635.4266	746.418	823.7798	826.7118	886.8515	915.2135	922.4256	963.1681	1031.1286	1047.8598	1049.0008	1092.3987	1113.5056	1132.7791	1167.7164	1230.846	1263.3145	1293.5784	1309.5507	1350.2576	1368.8997	1384.3255	1391.2944	1407.3652	1416.6006	1459.4551	1463.7653	1479.4678	1486.287	1491.3686	1493.6442	1694.4625	1738.9041	2986.2728	3005.7732	3017.0074	3018.9892	3021.8403	3036.9038	3061.8526	3064.0521	3065.475	3092.7991	3127.9333	3152.3611
CC1=CC(=O)CCCC1	CC1=CC(=O)CCCC1	
InChI=1S/C8H12O/c1-7-4-2-3-5-8(9)6-7/h6H,2-5H2,1H3	InChI=1S/C8H12O/c1-7-4-2-3-5-8(9)6-7/h6H,2-5H2,1H3
