20
gdb 120014	2.32627	1.20768	0.87693	2.7965	77.23	-0.2293	0.0274	0.2566	1380.7805	0.169153	-440.304339	-440.294315	-440.293371	-440.340041	35.507	
C	-0.0782733595	 1.4952856293	 0.024277688	-0.387749
C	-0.2012965564	-0.0096716438	 0.1778791077	-0.047643
O	 0.9177241373	-0.4718344413	 0.9332808011	-0.25365
C	 0.9054079516	-1.8484967625	 1.1497451794	-0.031638
C	 2.0565588137	-2.3624482859	 2.0757084324	 0.016482
C	 2.9543380858	-1.3022468047	 2.6935583864	-0.386067
N	 0.9979338731	-2.8922179092	 2.9523533059	-0.335888
C	-0.0654135394	-2.38991419	 2.2473587965	 0.412079
O	-1.2537198763	-2.3818212822	 2.4390226494	-0.370145
H	 0.8544057408	 1.7572368394	-0.4836807311	 0.123704
H	-0.9153611191	 1.8842240613	-0.5629020769	 0.118649
H	-0.0857931124	 1.9832799467	 1.0029573231	 0.128791
H	-1.1332444291	-0.2827426442	 0.6888145391	 0.129794
H	-0.2059832643	-0.5044268519	-0.8075883607	 0.087831
H	 0.8182208073	-2.4077485448	 0.2055405481	 0.086301
H	 2.6549117021	-3.158118628	 1.6171069063	 0.085385
H	 2.3616644573	-0.4880817993	 3.1155825752	 0.134704
H	 3.57489551	-1.7372431791	 3.4839917128	 0.111527
H	 3.6189262522	-0.8819077914	 1.9329929003	 0.1296
H	 1.0412012251	-3.3820604784	 3.834512877	 0.247934
64.7124	77.3743	90.8915	125.4053	200.4236	208.9498	252.7722	283.2625	359.7792	397.8089	430.0983	507.8998	548.4063	713.5423	750.583	821.3183	850.5796	894.9561	907.8282	932.1463	1034.9794	1070.547	1078.2176	1123.4151	1156.8363	1186.9959	1189.0459	1198.97	1213.8021	1294.2122	1298.6375	1356.6883	1381.626	1392.6029	1403.1759	1412.5293	1441.2645	1483.5802	1488.5047	1490.1995	1500.9461	1530.0663	1882.5988	2969.9246	2988.3461	3037.02	3043.8518	3044.9833	3046.9261	3109.893	3120.3059	3122.0117	3137.3198	3600.8119
CCOC1C(C)NC1=O	CCO[C@H]1[C@@H](C)NC1=O	
InChI=1S/C6H11NO2/c1-3-9-5-4(2)7-6(5)8/h4-5H,3H2,1-2H3,(H,7,8)	InChI=1S/C6H11NO2/c1-3-9-5-4(2)7-6(5)8/h4-5H,3H2,1-2H3,(H,7,8)/t4-,5+/m1/s1
