22
gdb 78218	2.2634	1.54949	1.24228	2.3394	82.38	-0.2215	0.0674	0.2889	1151.7656	0.191851	-404.301388	-404.291601	-404.290657	-404.335013	37.838	
C	-0.4343283831	 1.4966085903	 0.4104769393	-0.418992
C	-0.1254360235	 0.0123370365	 0.2470484504	-0.065684
C	 0.4169666127	-0.3949241967	-1.1426361695	-0.054332
C	 1.652249802	-1.0202144032	-0.5290341067	-0.076174
N	 0.6935286298	-1.8004716783	-1.2694956274	-0.090615
C	-0.1407267339	-2.8588641461	-0.7125645792	-0.313236
C	 1.2085238887	-0.5620307892	 0.8756039815	 0.358784
C	 2.1642926292	 0.4798106381	 1.4500049434	-0.446473
O	 1.0651496836	-1.6444048356	 1.7856756512	-0.470548
H	 0.3716056052	 2.1320452812	 0.0303177596	 0.117366
H	-1.3419456992	 1.7547611023	-0.1459868664	 0.118131
H	-0.6056475428	 1.7637776996	 1.4587960637	 0.111538
H	-0.9977688112	-0.5723076784	 0.5570697011	 0.072666
H	 0.3307744033	 0.2099991476	-2.040724543	 0.085884
H	 2.6850177336	-1.0125195802	-0.8669015556	 0.082687
H	-0.534863022	-2.664853066	 0.2894620552	 0.124888
H	-0.9728750374	-3.0339870457	-1.4024296959	 0.110985
H	 0.4571010702	-3.7739092901	-0.6635944853	 0.122172
H	 2.3851743818	 1.277142456	 0.7359952027	 0.124659
H	 1.7500780327	 0.9445341298	 2.3527944724	 0.10667
H	 3.1056161577	-0.0094657329	 1.7187657226	 0.125425
H	 0.8418183826	-1.2804264792	 2.6495082059	 0.274199
112.8745	170.0854	195.6361	214.957	235.1651	239.3995	269.5179	291.035	323.3358	361.1558	396.5576	426.2677	545.3112	613.5087	634.412	734.1806	769.1441	865.0846	877.0784	921.2238	938.9387	964.2727	1013.2214	1033.6451	1057.365	1090.2653	1118.0323	1126.6722	1158.6414	1170.6906	1179.6237	1189.9218	1246.1742	1251.8638	1280.9216	1359.6076	1368.234	1385.7847	1398.4835	1414.192	1455.9971	1481.5884	1487.5494	1488.4986	1500.2999	1504.7645	1507.7954	3026.4167	3031.2778	3031.5018	3045.3212	3091.3023	3095.5935	3101.5296	3102.5363	3105.3005	3121.8932	3141.1451	3153.5188	3796.568
CC1C2C(N2C)C1(C)O	C[C@H]1[C@H]2[C@H](N2C)[C@]1(C)O	
InChI=1S/C7H13NO/c1-4-5-6(8(5)3)7(4,2)9/h4-6,9H,1-3H3	InChI=1S/C7H13NO/c1-4-5-6(8(5)3)7(4,2)9/h4-6,9H,1-3H3/t4-,5-,6-,7+,8?/m0/s1
