18
gdb 36439	4.16427	1.00084	0.93769	5.5421	75.92	-0.2585	0.0338	0.2923	1275.8889	0.148362	-401.928771	-401.920708	-401.919764	-401.962292	30.02	
N	 0.0865115797	-1.1044428972	-0.4268849827	-0.301702
C	 0.0472531043	 0.042177092	-0.2913384881	 0.268915
C	 0.0010626698	 1.4906876515	-0.1038707702	-0.365956
C	 1.3916438519	 2.0929753278	 0.1196655211	 0.149367
O	 2.2192167809	 2.0546411515	-1.0622465568	-0.30631
C	 2.5686886915	 3.4510087797	-0.9196027373	 0.131863
C	 1.7177320199	 4.3693081676	-1.8211097441	-0.229147
C	 0.6757571017	 4.5128671999	-0.6654819727	-0.240845
C	 1.5587226548	 3.6202038724	 0.2532216081	-0.121879
H	-0.468765451	 1.9434186462	-0.9819468328	 0.155822
H	-0.6319791812	 1.7123399941	 0.7639654184	 0.152987
H	 1.8809148259	 1.5565939442	 0.9444428402	 0.097436
H	 3.6488892761	 3.6022768375	-0.8577538888	 0.08423
H	 2.2088086986	 5.3102740218	-2.0823861696	 0.107565
H	 1.3730419022	 3.8821722124	-2.7355364899	 0.117087
H	 0.5903193266	 5.5343728488	-0.2896231052	 0.113365
H	-0.3349824467	 4.152343183	-0.8712394259	 0.104248
H	 1.807251605	 4.0021149667	 1.2422231461	 0.082954
56.2816	80.4605	129.277	234.4097	334.7508	382.8098	393.1444	472.1949	520.8249	668.9572	729.3117	791.884	817.1811	854.6654	886.6008	928.8501	944.659	955.5865	1005.7787	1007.9598	1057.5472	1073.3553	1103.3078	1136.1287	1175.6728	1207.1466	1230.2726	1235.4395	1254.5693	1275.3331	1289.7049	1310.1904	1323.0695	1352.8203	1401.6118	1449.5506	1466.186	1492.7887	2365.287	3006.071	3044.819	3063.4853	3069.9269	3083.0898	3098.5794	3108.8256	3122.1594	3130.733
N#CCC1OC2CCC12	N#CC[C@H]1O[C@H]2CC[C@@H]12	
InChI=1S/C7H9NO/c8-4-3-7-5-1-2-6(5)9-7/h5-7H,1-3H2	InChI=1S/C7H9NO/c8-4-3-7-5-1-2-6(5)9-7/h5-7H,1-3H2/t5-,6+,7-/m1/s1
