13
gdb 5430	3.51043	1.87053	1.2203	4.6838	64.19	-0.2118	-0.0223	0.1895	901.3306	0.096248	-398.648957	-398.641958	-398.641014	-398.680093	26.005	
O	 0.0985123681	 1.3096523975	 0.1554913188	-0.416661
C	 0.0589314908	-0.0259706127	-0.0052310211	 0.33235
C	 0.0332741894	-0.8508698695	-1.128512876	 0.070541
C	 0.0446861704	-0.409267558	-2.4999953419	 0.065324
O	 0.0225443218	-1.1212183758	-3.4832611978	-0.300229
C	-0.005822331	-2.200945902	-0.6273052867	-0.24223
C	-0.0028433048	-2.1437168392	 0.7311344199	-0.073408
N	 0.037374017	-0.7991171292	 1.1039989521	-0.298775
H	 0.1099197556	 1.7294246132	-0.7119717371	 0.317912
H	 0.0773730324	 0.7062188507	-2.6245427966	 0.011348
H	-0.0325207704	-3.0857159016	-1.2422905756	 0.127029
H	-0.0248402033	-2.9146146748	 1.4830276365	 0.132339
H	 0.0491110538	-0.4377597887	 2.0428063257	 0.274459
150.6666	171.8617	230.9031	316.494	331.7815	363.6017	494.7786	568.3013	630.1448	653.7429	663.4871	729.9736	804.4019	856.1808	914.4006	1018.6552	1070.1807	1074.9342	1157.546	1209.4031	1298.335	1361.5207	1407.7439	1448.9311	1552.9639	1574.3449	1613.9379	1781.2849	2754.2272	3266.5076	3286.0053	3673.8269	3817.0229
OC1=C(C=O)C=CN1	Oc1c(C=O)cc[nH]1	
InChI=1S/C5H5NO2/c7-3-4-1-2-6-5(4)8/h1-3,6,8H	InChI=1S/C5H5NO2/c7-3-4-1-2-6-5(4)8/h1-3,6,8H
