17
gdb 27642	2.90511	1.2779	0.89745	4.3001	86.93	-0.2022	0.0117	0.2139	1282.6677	0.13503	-380.900236	-380.890987	-380.890043	-380.934204	33.7	
C	-0.008880427	 1.4796108789	 0.0335578951	-0.508551
C	 0.0074205733	-0.0105055373	-0.0328812398	 0.326903
N	-0.0291238356	-0.7334492867	-1.1243464311	-0.350627
C	 0.0055979472	-2.0566934703	-0.7023438948	 0.070429
C	-0.0178347261	-3.1534869744	-1.5964922631	 0.237099
C	-0.0367238809	-4.1016654318	-2.3395897418	-0.435996
C	 0.0639891553	-2.1238602563	 0.6752546339	 0.221276
C	 0.1171534921	-3.2814459301	 1.6091103213	-0.520126
N	 0.0646201232	-0.809167091	 1.0833323528	-0.328532
H	 0.8914455907	 1.8767974056	 0.5166689107	 0.131659
H	-0.056024068	 1.8708347411	-0.9831868712	 0.16235
H	-0.8760129675	 1.854200096	 0.5898964541	 0.131681
H	-0.0537124488	-4.9282596941	-3.0050987717	 0.181211
H	 1.0255381001	-3.2740391213	 2.2239814646	 0.13112
H	-0.7423662481	-3.3017797376	 2.2904098648	 0.131341
H	 0.1098201157	-4.2075996871	 1.0307493242	 0.157872
H	 0.1007947543	-0.4938426436	 2.0388395119	 0.260892
91.275	130.6339	135.4995	144.0193	195.0275	253.8931	307.3873	373.0808	471.8047	523.1429	531.0307	538.027	579.6072	629.7047	661.8719	676.451	737.0363	790.5481	972.4946	1019.0161	1041.8037	1059.3481	1066.1381	1156.7008	1220.424	1281.1107	1394.5306	1411.5422	1427.3908	1434.0876	1483.365	1483.7873	1491.0003	1493.8983	1578.4069	1618.0117	2230.0015	3019.9928	3029.8826	3066.5104	3079.0266	3131.4111	3151.5641	3505.9733	3653.7636
CC1=NC(C#C)=C(C)N1	Cc1nc(C#C)c(C)[nH]1	
InChI=1S/C7H8N2/c1-4-7-5(2)8-6(3)9-7/h1H,2-3H3,(H,8,9)	InChI=1S/C7H8N2/c1-4-7-5(2)8-6(3)9-7/h1H,2-3H3,(H,8,9)
