21
gdb 37508	3.11132	2.09254	1.84007	0.0993	83.6	-0.274	0.0988	0.3728	865.2715	0.188984	-349.959308	-349.953714	-349.95277	-349.988757	26.277	
C	-0.0480556321	 1.5640276439	-0.0164336762	-0.267524
C	 1.481898653	 1.4119679462	-0.0188413233	-0.011789
C	 1.3285070507	 0.070222941	 0.7964234772	-0.02387
C	-0.0256594395	 0.0267047125	-0.0115394695	-0.011789
C	 0.6761962463	-0.4187635782	-1.3133407532	-0.033512
C	 1.3639863567	-1.7150655636	-0.8383414977	-0.20967
C	 2.3012826211	-0.9918109495	 0.1549372114	-0.048778
C	 3.0958231462	-0.1237160938	-0.8467316195	-0.20967
C	 1.8597072924	 0.668741459	-1.3190734107	-0.033512
H	-0.4220843772	 1.9760405333	 0.9252718821	 0.091471
H	-0.5242045303	 2.0777753879	-0.8581953617	 0.083491
H	 2.1477181121	 2.2194088149	 0.2911678205	 0.054751
H	 1.268514696	 0.141230812	 1.881277846	 0.059933
H	-0.8847665618	-0.5670779448	 0.3058547993	 0.054751
H	 0.0636777056	-0.4680865166	-2.2139636798	 0.054841
H	 0.6529585657	-2.4009624967	-0.36615994	 0.086246
H	 1.9108874402	-2.2610156964	-1.6129006727	 0.085519
H	 2.8737045678	-1.6111285739	 0.8453618824	 0.052503
H	 3.841749204	 0.5291456516	-0.3816123312	 0.086246
H	 3.5895924385	-0.7184836775	-1.6210363061	 0.085519
H	 1.9558113946	 1.2705573884	-2.2231282171	 0.054841
361.9585	382.8389	429.0757	496.345	603.492	631.0716	744.8223	764.704	812.1357	819.1345	855.7846	877.5319	877.6461	901.6433	919.3424	919.5104	946.3829	952.2436	958.5702	971.6436	986.7741	1011.7526	1048.687	1066.2893	1084.4798	1086.2484	1123.7685	1144.9237	1149.0072	1182.017	1211.7806	1214.5791	1239.9339	1245.8805	1262.8767	1266.7585	1271.2796	1301.4	1304.4522	1308.1688	1314.2361	1344.6169	1490.0404	1501.8484	1514.7715	3040.535	3041.7035	3046.199	3084.5704	3090.5629	3092.5935	3094.6473	3098.3241	3104.1526	3111.4445	3115.1956	3132.1797
C1C2C3C1C1CC3CC21	C1[C@H]2[C@H]3[C@@H]1[C@@H]1C[C@H]3C[C@H]21	
InChI=1S/C9H12/c1-4-2-6-5(1)7-3-8(6)9(4)7/h4-9H,1-3H2	InChI=1S/C9H12/c1-4-2-6-5(1)7-3-8(6)9(4)7/h4-9H,1-3H2/t4-,5+,6-,7-,8+,9+
