23
gdb 122672	4.20053	0.70948	0.68095	1.7832	83.03	-0.2415	0.085	0.3265	1782.3789	0.205436	-425.427739	-425.417686	-425.416742	-425.464483	35.637	
C	 0.0823854462	 1.1994982134	-0.3736456164	-0.383036
C	 0.0620351613	-0.2837407904	 0.003124713	-0.181396
C	 0.8352661776	-0.5693014587	 1.2836178168	-0.04256
O	 0.754237082	-1.9528762626	 1.5610198962	-0.265329
C	 1.3956077808	-2.3549400224	 2.7606262371	 0.102287
C	 0.9549284287	-3.7912951562	 3.0604841101	-0.241975
C	 1.9492522908	-4.5953393217	 2.2209894147	-0.063171
O	 3.1843083375	-3.8955146444	 2.3427848664	-0.261471
C	 2.9235670862	-2.5157804639	 2.5919392538	-0.077643
H	 1.1056104503	 1.5580919363	-0.5312667264	 0.116898
H	-0.4765342928	 1.3778304045	-1.2966718856	 0.11817
H	-0.3676217705	 1.8178207849	 0.4110384109	 0.116103
H	-0.9693792073	-0.629778215	 0.135780459	 0.106102
H	 0.4922994603	-0.8876118916	-0.8039875583	 0.107999
H	 1.8840525245	-0.2477232254	 1.1692753721	 0.085623
H	 0.4139611582	 0.0092096324	 2.1247184353	 0.082785
H	 1.1458346743	-1.6522803843	 3.5683807486	 0.064246
H	 1.0910646927	-4.0095985159	 4.1241705983	 0.105095
H	-0.0901655966	-3.9519907898	 2.7908070253	 0.111962
H	 2.1049159984	-5.6181296631	 2.5762058069	 0.103042
H	 1.6244955225	-4.6340043933	 1.1705925885	 0.100458
H	 3.2872435615	-1.9044949812	 1.7560457029	 0.099822
H	 3.4660882134	-2.2144786018	 3.4975608408	 0.095991
37.7092	60.7705	69.2165	118.2937	158.5517	200.6928	228.4589	313.4959	332.154	456.3495	471.4577	649.4562	751.454	765.4396	856.7199	875.5937	900.7934	910.2566	925.6362	932.6426	966.248	999.2528	1048.3117	1066.1864	1113.0227	1116.5618	1145.154	1165.4046	1190.2118	1194.5345	1230.569	1254.9371	1268.2349	1295.4201	1315.3262	1324.7067	1333.043	1360.2684	1376.4392	1407.2379	1413.1891	1442.8059	1473.3324	1492.3738	1500.0148	1504.7167	1508.0744	1522.3691	1527.4526	2946.7216	2975.9699	2994.5868	2997.7778	3014.9446	3032.0328	3039.779	3045.8952	3062.2847	3072.1024	3084.7094	3099.9956	3108.8171	3129.9394
CCCOC1CCOC1	CCCO[C@H]1CCOC1	
InChI=1S/C7H14O2/c1-2-4-9-7-3-5-8-6-7/h7H,2-6H2,1H3	InChI=1S/C7H14O2/c1-2-4-9-7-3-5-8-6-7/h7H,2-6H2,1H3/t7-/m0/s1
