17
gdb 80465	2.32958	1.68768	1.41416	2.6233	68.27	-0.2489	-0.0264	0.2225	993.3505	0.135033	-458.962253	-458.954123	-458.953179	-458.994957	31.023	
C	 0.5830963367	 1.4863785363	-0.0541194743	-0.410569
C	 0.1474624879	 0.0322548607	 0.0190680387	 0.018187
O	 0.6901646161	-0.7415679376	-1.0644871848	-0.292993
C	 1.1499138651	-1.9957872221	-0.5974729265	 0.003526
C	 2.4967880396	-1.8941385195	 0.0268549609	 0.106159
O	 3.2326098657	-0.7311222817	-0.1304257167	-0.42108
C	 1.2336184953	-1.9610188081	 0.9160723091	-0.254268
C	 0.5798998071	-0.6788279879	 1.3121377203	 0.400143
O	 0.3473264574	-0.2817084686	 2.4247947487	-0.326547
H	 1.6696168716	 1.573186104	 0.0343155709	 0.13202
H	 0.2617814612	 1.942010911	-0.9939020745	 0.129303
H	 0.1300133778	 2.0311484817	 0.7783923412	 0.147043
H	-0.9504852009	-0.0321850501	-0.028140417	 0.117808
H	 0.8048530954	-2.8432528832	-1.1801286876	 0.113204
H	 3.1136372914	-2.7866309582	 0.0836955224	 0.118356
H	 2.7922394006	-0.2289250688	-0.831292289	 0.298104
H	 1.109130032	-2.8228046277	 1.5587763183	 0.121604
84.6139	118.8435	220.9211	228.4201	257.1046	365.0316	429.5297	442.3299	500.7004	587.5059	630.377	647.5554	723.2683	757.341	818.2175	838.0841	886.764	951.1755	968.8869	1057.0227	1070.5657	1077.3344	1095.485	1114.7426	1125.0705	1193.5413	1213.4342	1294.9663	1312.9588	1333.6672	1340.6544	1367.7469	1401.8768	1431.2041	1489.4628	1498.1116	1840.0765	2991.6928	3050.2203	3127.7498	3133.2955	3151.0064	3167.4248	3204.5758	3731.873
CC1OC2C(O)C2C1=O	C[C@H]1O[C@H]2[C@@H](O)[C@H]2C1=O	
InChI=1S/C6H8O3/c1-2-4(7)3-5(8)6(3)9-2/h2-3,5-6,8H,1H3	InChI=1S/C6H8O3/c1-2-4(7)3-5(8)6(3)9-2/h2-3,5-6,8H,1H3/t2-,3-,5+,6-/m1/s1
