19
gdb 106926	2.92962	1.25527	1.21856	4.8307	75.36	-0.2522	0.0361	0.2882	1140.4254	0.160485	-419.234428	-419.225904	-419.22496	-419.267775	32.126	
C	-0.4168759705	 1.4332694255	-0.0992986716	-0.386138
C	 0.2568294062	 0.0651277673	 0.0592679892	-0.278499
C	 0.8347236073	-0.4836150968	-1.2287879495	 0.337215
C	 0.6709042091	-1.9074985493	-1.6051129726	-0.301271
N	-0.1194617134	-0.856808392	-2.2978556103	-0.183191
C	 0.4970274594	-0.493707316	-3.5559630245	 0.408596
O	 0.0126384522	-0.6799260978	-4.6414803876	-0.368934
N	 1.7092306948	 0.0943502511	-3.2868666542	-0.320757
C	 2.0124489587	 0.2520039885	-1.881974874	-0.242485
H	 0.2913563212	 2.2098091707	-0.4061521808	 0.115423
H	-1.2089971387	 1.3813258935	-0.8514884392	 0.143972
H	-0.8622882608	 1.7540915814	 0.8467465892	 0.118186
H	 1.0579199755	 0.1183066469	 0.8086982446	 0.101555
H	-0.4751641499	-0.6544514362	 0.440502958	 0.111602
H	 1.4582105745	-2.3966731892	-2.1738349653	 0.128592
H	 0.0819003754	-2.5668931664	-0.9748070995	 0.126723
H	 2.2746546823	 0.4590842467	-4.0349431024	 0.258005
H	 2.0258559519	 1.3069123084	-1.5798452184	 0.11522
H	 2.9814864849	-0.1863401763	-1.6116055411	 0.116188
79.8699	112.6369	127.2733	214.2807	277.7679	307.6792	378.0039	440.5864	480.8968	539.4589	565.344	693.6026	732.7041	782.4815	813.2708	835.5904	872.1582	915.8791	958.6978	1005.3794	1046.0541	1064.901	1077.5198	1113.3453	1128.4225	1140.3603	1197.5827	1214.4019	1265.1789	1316.3753	1344.1957	1354.0856	1409.6697	1410.5122	1444.1387	1477.3151	1498.5761	1508.2826	1509.6858	1535.4799	1864.0273	3012.7441	3024.0182	3039.4872	3043.3659	3071.9193	3107.7563	3108.3146	3122.1494	3198.7042	3662.4311
CCC12CN1C(=O)NC2	CC[C@@]12CN1C(=O)NC2	
InChI=1S/C6H10N2O/c1-2-6-3-7-5(9)8(6)4-6/h2-4H2,1H3,(H,7,9)	InChI=1S/C6H10N2O/c1-2-6-3-7-5(9)8(6)4-6/h2-4H2,1H3,(H,7,9)/t6-,8?/m1/s1
