21
gdb 105631	2.03658	1.43331	1.1452	3.1318	82.93	-0.2478	0.0245	0.2723	1221.1784	0.182421	-383.272713	-383.262952	-383.262007	-383.307123	36.167	
C	-0.0199797302	 1.6390307486	 0.0174805166	-0.403333
C	-0.3680859939	 0.164907821	-0.2107160871	-0.230033
C	 0.5990067506	-0.5340320777	-1.1729950202	 0.158317
N	 1.9995617071	-0.6322077151	-0.6855904179	-0.33249
C	 2.1377018536	-2.0075467758	-1.2224057848	-0.176492
C	 0.5913905772	-2.1102117634	-1.3054321207	-0.035738
C	-0.0608806206	-2.8816088451	-0.1663181918	-0.416287
C	 0.5125246639	 0.0799451359	-2.5117634116	 0.260745
N	 0.4740197904	 0.5672091159	-3.5606635323	-0.355587
H	 0.9914874752	 1.73702133	 0.4241907636	 0.12741
H	-0.0732615698	 2.2124859583	-0.913204025	 0.1389
H	-0.7127861316	 2.0921413144	 0.7319669732	 0.119535
H	-0.3316592742	-0.371408723	 0.7410703951	 0.110109
H	-1.3877872617	 0.0708796027	-0.6033104167	 0.108975
H	 2.6425008771	 0.0583104208	-1.057965754	 0.231441
H	 2.6195000685	-2.066092966	-2.2062501311	 0.110274
H	 2.6389870491	-2.6994059023	-0.5375586455	 0.10623
H	 0.2080982924	-2.458013702	-2.2657018573	 0.097006
H	 0.3532858229	-2.594626154	 0.8045285951	 0.134418
H	-1.1441379039	-2.7282507537	-0.1387537934	 0.124468
H	 0.1187733177	-3.9535775593	-0.3001702942	 0.122132
94.3016	96.6607	149.3306	168.7655	196.2184	244.5533	259.5127	298.3333	352.7836	401.9773	439.9765	529.8619	580.4009	641.5417	715.7011	778.5246	821.823	883.6461	924.918	939.115	979.8719	1014.1806	1024.206	1064.0674	1088.3528	1122.2142	1141.6825	1170.1776	1198.9556	1216.4077	1252.037	1301.7565	1317.7238	1360.4842	1368.9493	1389.1268	1408.6821	1414.1725	1473.541	1496.6587	1499.7537	1501.395	1509.5372	1521.7068	2334.4901	3019.714	3036.4369	3040.0904	3041.4215	3070.8131	3092.9746	3095.6347	3103.2537	3113.7738	3117.3449	3120.4749	3533.365
CCC1(NCC1C)C#N	CC[C@]1(NC[C@H]1C)C#N	
InChI=1S/C7H12N2/c1-3-7(5-8)6(2)4-9-7/h6,9H,3-4H2,1-2H3	InChI=1S/C7H12N2/c1-3-7(5-8)6(2)4-9-7/h6,9H,3-4H2,1-2H3/t6-,7+/m1/s1
