23
gdb 122329	4.70691	0.65	0.61656	1.0068	89.98	-0.2273	0.031	0.2583	1908.3847	0.205796	-388.299563	-388.289578	-388.288634	-388.335776	35.721	
C	-0.0449644348	 1.4023201386	 0.2046912721	-0.227739
O	-0.0360285172	 0.0175276925	-0.0387838172	-0.22745
C	-1.3193413753	-0.5628481414	 0.0431494118	-0.043551
C	-1.188334494	-2.0598589901	-0.2480998839	-0.325439
C	-2.4894331416	-2.7981396686	-0.132452905	 0.33791
C	-3.1831817463	-3.3571732239	-1.1268117415	-0.171324
C	-4.4242120669	-4.0711426701	-0.6501352116	-0.242325
C	-4.5656696224	-3.5785443627	 0.8133460763	-0.202389
C	-3.1614893531	-3.0573154099	 1.2055035461	-0.298209
H	 0.9851468891	 1.7576793401	 0.1206000263	 0.125516
H	-0.6676969373	 1.9437299153	-0.5257362585	 0.10208
H	-0.4206299888	 1.6392825736	 1.2133632048	 0.101168
H	-1.7507079909	-0.3960507617	 1.0449083094	 0.084729
H	-2.0043363837	-0.0953945966	-0.6844720781	 0.087613
H	-0.7697183283	-2.1792752654	-1.2526850744	 0.108414
H	-0.4534666586	-2.4714770175	 0.4565678012	 0.108619
H	-2.8760332073	-3.350415556	-2.1680231786	 0.081714
H	-5.3099423081	-3.8449208893	-1.2550000861	 0.099114
H	-4.2894783359	-5.1614191735	-0.7044415938	 0.102497
H	-5.2813087922	-2.7508472502	 0.8480940789	 0.102633
H	-4.9362308466	-4.3528701948	 1.4898666881	 0.094767
H	-2.58782871	-3.8065085832	 1.7715203391	 0.102476
H	-3.2100218898	-2.1697163352	 1.8466367446	 0.099175
48.0909	72.3243	83.7604	117.4253	149.1983	233.0202	244.8651	297.5886	331.1367	414.2756	518.3349	611.189	697.3044	795.2979	817.2923	845.2097	885.3633	903.929	918.0184	953.8757	993.2799	1036.5051	1047.8384	1063.4045	1080.3443	1149.9798	1160.1539	1169.7761	1181.921	1222.685	1227.6631	1232.2848	1246.3993	1284.3157	1308.1265	1316.474	1324.9561	1329.6965	1367.0685	1419.08	1480.6754	1483.415	1485.3134	1485.7638	1488.6094	1505.146	1506.7486	1532.5635	1718.1563	2950.3176	2968.1292	2979.136	2997.1835	3000.2975	3007.5906	3023.0135	3041.2168	3049.5822	3060.9874	3080.6227	3099.5814	3110.9899	3179.4257
COCCC1=CCCC1	COCCC1=CCCC1	
InChI=1S/C8H14O/c1-9-7-6-8-4-2-3-5-8/h4H,2-3,5-7H2,1H3	InChI=1S/C8H14O/c1-9-7-6-8-4-2-3-5-8/h4H,2-3,5-7H2,1H3
