16
gdb 28285	4.94768	1.31385	1.18807	2.8492	76.17	-0.1851	0.0062	0.1913	1037.591	0.127203	-396.895376	-396.888497	-396.887553	-396.92635	27.853	
N	 0.1048140361	 1.331683404	 0.0885449168	-0.585244
C	-0.0592353629	-0.0401190223	-0.0646960361	 0.309688
C	-1.2142223848	-0.795967524	 0.0731076255	-0.26067
N	-0.7511014196	-2.1090595036	 0.1188941565	 0.001981
C	-0.8941857971	-3.4008057286	-0.5981695148	-0.016453
C	-0.3686328009	-3.3048147775	-2.0045786429	-0.270432
C	 0.6079823184	-3.4044272383	-0.8363926143	-0.176098
C	 0.5883380969	-2.0481063779	-0.1685309511	 0.259826
N	 1.0582414282	-0.8298733731	-0.296960751	-0.360972
H	 0.9367102437	 1.6616849611	-0.382408928	 0.25146
H	-0.7056999105	 1.8785221756	-0.1654227682	 0.243363
H	-2.2176384154	-0.5060401582	 0.3368772962	 0.11229
H	-1.5426767121	-4.1790611592	-0.2190764161	 0.116818
H	-0.4777468828	-4.195147088	-2.6193300051	 0.121495
H	-0.4605127729	-2.3658823743	-2.5415973638	 0.138933
H	 1.3146427357	-4.2127553955	-0.7147992036	 0.114018
128.9383	269.3231	271.903	305.3431	346.481	523.1763	525.4338	613.0949	645.5829	683.5195	724.4739	757.4064	773.43	791.2937	850.9536	885.923	959.8588	990.894	1004.1397	1010.2517	1050.7409	1082.9386	1088.6268	1102.9283	1173.7261	1191.9455	1243.1939	1291.7261	1310.5478	1366.0603	1393.3831	1475.3329	1546.9414	1589.9563	1643.2999	3115.751	3203.4739	3207.9701	3222.5381	3268.3881	3551.6285	3653.0974
NC1=CN2C3CC3C2=N1	NC1=N[C]2N([CH]1)[C@H]1C[C@@H]21	
InChI=1S/C6H7N3/c7-5-2-9-4-1-3(4)6(9)8-5/h2-4H,1,7H2	InChI=1S/C6H7N3/c7-5-2-9-4-1-3(4)6(9)8-5/h2-4H,1,7H2/t3-,4+/m1/s1
