15
gdb 7710	3.5068	1.94608	1.29589	2.2572	64.38	-0.2545	0.0026	0.2571	894.411	0.122639	-396.049056	-396.042158	-396.041214	-396.080285	26.168	
N	-0.0895120155	 1.3303835656	-0.2045280877	-0.518373
C	-0.0319778085	 0.0772030329	 0.011407775	 0.38708
C	-1.2947600775	-0.7473150511	 0.1085173631	-0.250507
C	-1.1322431001	-1.9006163215	 1.097940482	-0.180382
N	 0.0652108785	-2.6521717673	 0.7484103567	-0.339206
C	 1.2517131293	-2.033156125	 0.4534767338	 0.444121
O	 2.330498088	-2.5897575485	 0.4403563227	-0.394806
N	 1.1343012611	-0.6724134221	 0.1459531625	-0.387353
H	 0.8424734052	 1.7451299003	-0.2768509534	 0.206394
H	-2.1161596459	-0.0871588318	 0.3875905637	 0.139948
H	-1.5109088641	-1.1575015015	-0.8854269085	 0.136987
H	-1.0808048062	-1.5128377485	 2.1266742566	 0.118244
H	-1.9931247301	-2.5718000745	 1.0422648828	 0.122885
H	 0.1872181564	-3.581701922	 1.1187095841	 0.25853
H	 2.0249934496	-0.228003585	-0.0252634036	 0.256437
109.9587	138.9445	236.4953	372.6235	438.0059	487.9278	532.4306	541.5932	585.278	612.7187	705.4526	764.1122	804.0965	882.9657	944.4849	951.2503	1006.5806	1084.2361	1126.3045	1149.4209	1211.211	1247.7549	1313.8019	1353.3835	1400.7349	1414.3805	1430.0689	1462.6289	1475.7723	1523.5034	1737.0288	1823.6343	2990.4078	3045.8588	3090.5419	3138.8739	3442.1217	3615.6674	3639.8602
N=C1CCNC(=O)N1	[NH][C]1CCNC(=O)N1	
InChI=1S/C4H7N3O/c5-3-1-2-6-4(8)7-3/h1-2H2,(H3,5,6,7,8)	InChI=1S/C4H7N3O/c5-3-1-2-6-4(8)7-3/h1-2H2,(H3,5,6,7,8)
