18
gdb 31397	3.24879	1.12886	0.89476	4.2213	83.21	-0.2122	-0.0319	0.1804	1310.8951	0.149686	-402.032086	-402.023865	-402.02292	-402.065346	31.165	
C	 0.0657990858	 1.5582518851	-0.1034050476	-0.369887
C	-0.0495594282	 0.0298957736	 0.0342496657	-0.287299
C	 0.6865714603	-0.5022463104	 1.2412298352	 0.349439
C	 0.0166316319	-0.9292617858	 2.3526197688	-0.355074
C	 0.687903978	-1.4204945209	 3.539648015	 0.434813
O	 0.1695861079	-1.8160024149	 4.5716929915	-0.404109
N	 2.0936368102	-1.4123169653	 3.4161010175	-0.362314
C	 2.7792361654	-0.9963610084	 2.3176004427	 0.042729
C	 2.1186252461	-0.5380930956	 1.2231381276	-0.239134
H	 1.1104856065	 1.8732161803	-0.1884348102	 0.121132
H	-0.4650341963	 1.9066287247	-0.9943635131	 0.118878
H	-0.3633567616	 2.0602166638	 0.7689496744	 0.128189
H	-1.1046031613	-0.2538570452	 0.0981388426	 0.111434
H	 0.3530478359	-0.4444681338	-0.8695532583	 0.10996
H	-1.066458707	-0.9203666951	 2.3975535769	 0.1068
H	 2.5840440056	-1.7536400183	 4.2308507795	 0.260303
H	 3.8593786676	-1.0594825298	 2.3770050861	 0.133344
H	 2.672638063	-0.214571194	 0.3516361558	 0.100796
55.7075	134.5146	178.1505	212.4025	295.4064	327.3602	432.6858	474.0796	513.3303	559.7067	643.3081	717.5863	746.3326	759.589	783.9647	794.4968	891.3712	896.5297	929.7192	978.1267	1001.5247	1071.6989	1091.6382	1127.3047	1174.6163	1214.7688	1247.1139	1276.6054	1346.8066	1350.0457	1409.1035	1436.9655	1485.6498	1497.2975	1503.8766	1511.2034	1578.1816	1672.3861	1780.9213	3029.538	3039.4312	3077.9411	3112.0576	3115.6258	3198.6294	3199.357	3219.248	3610.8703
CCC1=CC(=O)NC=C1	CCc1cc(=O)[nH]cc1	
InChI=1S/C7H9NO/c1-2-6-3-4-8-7(9)5-6/h3-5H,2H2,1H3,(H,8,9)	InChI=1S/C7H9NO/c1-2-6-3-4-8-7(9)5-6/h3-5H,2H2,1H3,(H,8,9)
