18
gdb 35726	2.40353	1.34032	0.95905	4.2825	75.8	-0.2776	0.002	0.2796	1234.807	0.147918	-401.921632	-401.913092	-401.912148	-401.955906	30.939	
N	-0.1610997116	-1.0850377071	-0.3415757403	-0.329643
C	-0.0870169548	 0.0509277803	-0.1417121706	 0.292374
C	 0.0198986476	 1.4941996687	 0.1043182495	-0.029599
O	-0.1532184889	 1.8310463397	 1.4902944369	-0.271908
C	 1.2253845118	 2.2586732386	 1.6162306788	-0.09081
C	 1.4683777173	 2.0882372246	 0.0980004625	-0.065887
C	 2.6153572127	 1.2391208994	-0.3622779965	 0.014478
C	 3.092023368	 1.313062433	-1.7929211043	-0.269385
C	 3.9431420625	 1.8822227278	-0.6881744543	-0.28348
H	-0.7063088413	 2.0106797098	-0.5337320075	 0.125859
H	 1.2980336491	 3.2736419174	 2.0188617728	 0.115225
H	 1.804173409	 1.5732380771	 2.2472570558	 0.115816
H	 1.4739888053	 3.0475458853	-0.4259657262	 0.091924
H	 2.6611089228	 0.2580242292	 0.1019738897	 0.107698
H	 3.4083656692	 0.3929040264	-2.2698765836	 0.127363
H	 2.5944249776	 2.0098811262	-2.4595236213	 0.114238
H	 4.0189678285	 2.9618587822	-0.609681394	 0.114123
H	 4.8465737252	 1.3537957514	-0.4061659674	 0.121615
51.3103	79.6194	112.202	196.7774	223.8906	289.9119	356.4098	422.3127	541.9408	591.4424	730.0512	797.6096	816.9209	835.5907	894.1626	919.7869	933.1613	985.2121	995.5952	1030.4876	1047.5214	1062.2181	1083.2429	1091.3353	1137.193	1158.6222	1192.0864	1199.5077	1227.6663	1251.6847	1263.9725	1308.2102	1348.4231	1358.6832	1442.0652	1472.1242	1507.5719	1524.8424	2352.8322	3027.1353	3043.5386	3071.3268	3088.3487	3133.2786	3138.251	3150.5537	3213.4016	3228.3213
N#CC1OCC1C1CC1	N#C[C@H]1OC[C@H]1C1CC1	
InChI=1S/C7H9NO/c8-3-7-6(4-9-7)5-1-2-5/h5-7H,1-2,4H2	InChI=1S/C7H9NO/c8-3-7-6(4-9-7)5-1-2-5/h5-7H,1-2,4H2/t6-,7+/m0/s1
