17
gdb 86495	2.8601	1.30724	1.04583	2.2534	69.46	-0.26	-0.0548	0.2052	1138.3846	0.133517	-458.964839	-458.956003	-458.955059	-458.999074	32.028	
O	 0.0801805006	 1.3355453032	-0.3461703085	-0.434416
C	 0.0064999812	-0.0284611451	-0.0553341032	 0.154603
C	 0.1781194356	-0.3960733896	 1.4481249076	-0.294765
C	-1.3828718611	-0.5709878118	 1.5888232301	 0.095159
C	-1.434463004	-0.6149361746	 0.0131556078	-0.294724
C	-1.8178179397	-1.8432020208	 2.2713815688	 0.102685
O	-2.6122239662	-1.9173808978	 3.1742659124	-0.251139
C	-2.0575740801	 0.6562540642	 2.1596993317	 0.109482
O	-1.8494783114	 1.7799148526	 1.755046692	-0.282175
H	-0.5230168597	 1.7943219157	 0.2619794051	 0.296595
H	 0.6885538863	-0.5305685423	-0.745257848	 0.091771
H	 0.6951107125	-1.3484574145	 1.6012071631	 0.114179
H	 0.6305476011	 0.3694370653	 2.0811399385	 0.130956
H	-2.2190308633	-0.0173199297	-0.4545102513	 0.130968
H	-1.4963426518	-1.6458870481	-0.3488626203	 0.114191
H	-1.3278484006	-2.7570430935	 1.8609932605	 0.083641
H	-2.7678552395	 0.4722382369	 2.9852317737	 0.13299
45.7168	86.9386	141.9875	235.2268	235.8782	264.0171	343.1483	375.6477	412.5778	482.913	607.6464	635.8887	720.0068	775.0094	835.0334	849.7528	854.929	937.7274	968.9949	1024.5501	1030.1433	1089.9016	1119.4365	1143.9385	1181.5506	1227.8936	1259.4409	1261.474	1296.3366	1355.2546	1407.8741	1427.8169	1446.9224	1463.3546	1484.1259	1790.8849	1821.1689	2859.5159	2986.371	3054.025	3057.2911	3087.4698	3128.7803	3128.8196	3663.6577
OC1CC(C1)(C=O)C=O	OC1CC(C1)(C=O)C=O	
InChI=1S/C6H8O3/c7-3-6(4-8)1-5(9)2-6/h3-5,9H,1-2H2	InChI=1S/C6H8O3/c7-3-6(4-8)1-5(9)2-6/h3-5,9H,1-2H2
