23
gdb 64437	2.12068	1.60472	1.20587	2.8057	84.9	-0.2312	-0.0087	0.2225	1173.3588	0.206282	-388.341999	-388.332696	-388.331751	-388.375427	36.479	
C	 0.0083292116	 1.5431082111	-0.0172881132	-0.414851
C	-0.00477415	 0.0093929223	 0.0079255348	 0.165224
C	-1.470401232	-0.4822153116	 0.0810997551	-0.423289
C	 0.697679772	-0.545581541	-1.2612693837	-0.214812
C	 0.9638584386	-2.0556876776	-1.2318621857	-0.210463
C	 1.7814080072	-2.4436292605	 0.0049600321	-0.198691
C	 1.0798720908	-1.9837764779	 1.2965804905	-0.296637
C	 0.7351164427	-0.4984985431	 1.2609997725	 0.379224
O	 1.0286153361	 0.2384406582	 2.1751332765	-0.319885
H	 1.031795429	 1.9285632007	-0.0309367856	 0.117045
H	-0.5103284354	 1.9106325991	-0.9092437348	 0.101277
H	-0.4832494026	 1.9553162807	 0.8667290406	 0.125868
H	-2.0285187491	-0.1033300441	-0.7819610575	 0.118818
H	-1.5541736285	-1.5718351204	 0.0783142244	 0.116325
H	-1.9591894126	-0.1095848118	 0.9868310141	 0.127245
H	 0.0953984834	-0.2795537613	-2.1387294748	 0.094281
H	 1.6572697016	-0.0238803727	-1.3784774624	 0.098642
H	 0.0173720478	-2.6109720978	-1.2368546416	 0.098752
H	 1.4956228894	-2.3504034935	-2.1434035596	 0.097359
H	 1.9501510888	-3.5251875181	 0.0393040885	 0.099447
H	 2.7723635415	-1.9742557791	-0.052113959	 0.105847
H	 0.1472831741	-2.5510462049	 1.4194143243	 0.116616
H	 1.6909020356	-2.1626847369	 2.1845838445	 0.116656
82.6902	149.7807	204.7753	221.2692	248.3545	298.4047	312.0188	349.8031	363.2206	432.958	439.1525	511.8197	552.1866	648.1823	700.6897	803.5713	830.32	859.1747	912.8422	921.0208	947.2995	969.7636	991.5318	1018.2658	1053.1775	1078.6173	1116.554	1137.3359	1166.6041	1211.179	1230.8336	1267.4906	1277.8195	1315.9925	1340.7925	1367.4804	1375.8597	1380.1663	1396.7984	1420.8582	1470.5812	1476.576	1483.5589	1488.9352	1492.677	1500.0205	1504.6247	1513.1466	1803.0719	3011.4204	3020.3515	3025.5954	3027.5455	3033.9431	3039.8832	3053.23	3066.6943	3074.0392	3100.5158	3104.3052	3107.7619	3115.7971	3126.4104
CC1(C)CCCCC1=O	CC1(C)CCCCC1=O	
InChI=1S/C8H14O/c1-8(2)6-4-3-5-7(8)9/h3-6H2,1-2H3	InChI=1S/C8H14O/c1-8(2)6-4-3-5-7(8)9/h3-6H2,1-2H3
