20
gdb 7814	3.00196	1.69822	1.16346	1.9675	77.63	-0.2333	0.0195	0.2528	1069.7648	0.178018	-349.030781	-349.022585	-349.021641	-349.062986	31.726	
C	-0.0240048834	 1.5406532489	 0.0453757145	-0.473599
C	-0.0274909516	 0.0381995027	-0.032605889	 0.318739
C	-0.0872943241	-0.6165267644	-1.1961712623	-0.193249
C	-0.0482938605	-2.1165011406	-1.3479989315	 0.1084
O	 0.7387590535	-2.4981267498	-2.4773501472	-0.437937
C	 0.4275543819	-2.7973301174	-0.0594941846	-0.216583
C	-0.2739407934	-2.1930136162	 1.1606358689	-0.218622
C	 0.0441904846	-0.6966068608	 1.2887662734	-0.277719
H	 0.866989054	 1.9053164609	 0.5735501503	 0.121452
H	-0.0429557253	 1.9992625464	-0.9467376898	 0.121004
H	-0.8896329199	 1.909927228	 0.6105416528	 0.1227
H	-0.1555398347	-0.063118685	-2.1312081038	 0.079944
H	-1.0532304019	-2.4852154081	-1.598200055	 0.091729
H	 1.6145120823	-2.1148820326	-2.3533408366	 0.27148
H	 0.2598899324	-3.8766188747	-0.1277087832	 0.098625
H	 1.5130309539	-2.6474670987	 0.030298773	 0.083196
H	-1.3587103663	-2.3244762141	 1.0546705434	 0.101745
H	 0.0161962263	-2.7210730588	 2.0751266297	 0.094211
H	 1.0496075378	-0.5590853512	 1.7161849949	 0.104879
H	-0.6388274857	-0.2221624444	 2.005967792	 0.099604
112.174	153.6261	202.462	259.4285	286.5947	321.23	403.4238	421.83	443.7029	459.5886	568.1975	605.4881	779.1871	836.3066	862.094	899.181	920.9845	968.0348	1012.4775	1042.3666	1048.0536	1073.0395	1079.6397	1140.5365	1155.821	1188.231	1213.1516	1263.9698	1282.4626	1323.1455	1349.1601	1370.7586	1376.624	1391.5179	1411.3953	1421.82	1473.6991	1478.783	1486.9367	1491.2066	1497.5718	1733.2918	2990.1079	3001.4608	3012.117	3013.08	3020.997	3035.2366	3058.329	3070.9671	3080.4124	3111.5801	3143.0123	3794.4105
CC1=CC(O)CCC1	CC1=C[C@@H](O)CCC1	
InChI=1S/C7H12O/c1-6-3-2-4-7(8)5-6/h5,7-8H,2-4H2,1H3	InChI=1S/C7H12O/c1-6-3-2-4-7(8)5-6/h5,7-8H,2-4H2,1H3/t7-/m0/s1
