18
gdb 129926	2.92019	1.34192	0.98886	2.5908	79.5	-0.1922	0.031	0.2232	1202.2713	0.150022	-398.131167	-398.12267	-398.121726	-398.165397	31.931	
N	 0.0486614421	 1.457718802	 0.1782416602	-0.613482
C	 0.0129415138	 0.0580018083	 0.0223302416	 0.097075
C	-1.0775945137	-0.7859095341	-0.0380793262	-0.107438
N	-0.5721043489	-2.0483946405	-0.120887098	-0.193409
N	 0.7688278326	-2.0805766842	-0.1152050065	-0.308678
C	 1.1434978025	-0.803275746	-0.0248680271	 0.337646
C	 2.5619972014	-0.3894704864	-0.002949646	-0.118965
C	 3.6605739049	-1.4167312319	 0.1090950824	-0.259386
C	 3.4728824115	-0.6808843313	-1.1873955172	-0.258418
H	 0.714493741	 1.8910966571	-0.450712561	 0.245436
H	-0.8564707054	 1.8846105916	 0.027127128	 0.238375
H	-2.1385849534	-0.5927338168	-0.0270772302	 0.118931
H	-1.0816583098	-2.9134129158	-0.1532742443	 0.269761
H	 2.7299639552	 0.5575244591	 0.5016111346	 0.08712
H	 4.5201168561	-1.1712286911	 0.7228259772	 0.105391
H	 3.3477174599	-2.4530604261	 0.1510969428	 0.136595
H	 3.0334569192	-1.2256249492	-2.0154943377	 0.118592
H	 4.2018539712	 0.0711165354	-1.4706702627	 0.104853
20.107	148.1408	170.5521	181.7514	275.5832	305.7739	386.4575	446.1067	500.3197	603.4096	650.6619	716.8385	720.9456	740.3792	793.3429	810.4238	828.6616	911.9626	924.0788	950.8857	1057.3648	1069.1928	1083.6386	1087.6921	1108.2662	1137.1863	1176.4927	1204.7898	1223.5689	1247.5853	1330.6913	1387.112	1423.5997	1462.0226	1485.1709	1500.2759	1544.4762	1623.1236	1658.3686	3129.9607	3140.4609	3149.2236	3217.074	3236.0989	3257.5796	3523.906	3611.9278	3688.6235
NC1=CNN=C1C1CC1	Nc1c[nH]nc1C1CC1	
InChI=1S/C6H9N3/c7-5-3-8-9-6(5)4-1-2-4/h3-4H,1-2,7H2,(H,8,9)	InChI=1S/C6H9N3/c7-5-3-8-9-6(5)4-1-2-4/h3-4H,1-2,7H2,(H,8,9)
