21
gdb 92462	2.58713	1.66629	1.6447	1.496	81.26	-0.2347	0.0148	0.2494	989.5675	0.185753	-387.106267	-387.098764	-387.09782	-387.137756	31.032	
C	-0.1465260691	 1.5538263011	 0.0364004103	-0.414444
C	 0.0064725835	 0.0309426417	-0.0035576019	 0.050788
C	 0.7702976277	-0.4691485374	-1.2670390945	-0.225816
C	 1.9641436258	-1.3593062905	-0.8276612028	-0.081599
C	 2.8730072367	-0.4730873335	 0.0524205239	-0.055985
O	 2.1345708075	 0.0280085485	 1.1646211441	-0.278528
C	 0.7919950951	-0.5027475269	 1.2228482619	 0.056853
C	 0.832628418	-2.009646637	 1.1559567157	-0.075989
C	 1.4478251515	-2.4634296206	 0.0627848471	-0.080667
H	 0.8336169917	 2.0366423367	 0.0930433369	 0.129671
H	-0.6611862632	 1.9215230172	-0.8573800917	 0.108347
H	-0.7266211215	 1.8703700753	 0.9104052594	 0.10748
H	-0.9907951309	-0.4225359152	 0.0229257739	 0.069882
H	 0.1086622043	-1.0290486412	-1.9333149504	 0.097406
H	 1.1555909248	 0.3842100442	-1.8370043947	 0.093212
H	 2.5209543187	-1.7298378915	-1.6914597347	 0.064082
H	 3.7365637663	-1.0446613303	 0.4189831667	 0.091549
H	 3.2477833859	 0.3811179058	-0.5292862313	 0.090935
H	 0.3759588614	-0.124874955	 2.159122777	 0.068312
H	 0.4041210316	-2.6301540243	 1.9347457819	 0.093209
H	 1.603243154	-3.511261967	-0.1698049267	 0.091303
112.4186	231.8406	253.2282	305.4139	360.4588	377.1306	413.1649	482.1178	626.8715	642.1467	659.8035	716.5262	785.8945	823.6974	863.9233	907.1688	941.2196	953.8593	963.2164	979.1706	987.0271	1012.6122	1044.3522	1069.5482	1074.1989	1119.9099	1133.4842	1152.5511	1213.4917	1228.4551	1248.8989	1288.6635	1314.8168	1335.7746	1337.3572	1346.6898	1373.0345	1388.1384	1403.6649	1406.7171	1493.3758	1493.9449	1502.0765	1523.788	1679.8183	2992.0632	3026.7868	3029.262	3033.3609	3036.9203	3082.1197	3087.6759	3089.697	3095.3513	3112.675	3176.8721	3201.5432
CC1CC2COC1C=C2	C[C@H]1C[C@H]2CO[C@@H]1C=C2	
InChI=1S/C8H12O/c1-6-4-7-2-3-8(6)9-5-7/h2-3,6-8H,4-5H2,1H3	InChI=1S/C8H12O/c1-6-4-7-2-3-8(6)9-5-7/h2-3,6-8H,4-5H2,1H3/t6-,7-,8+/m0/s1
