25
gdb 122441	4.50278	0.60076	0.57536	1.6959	91.05	-0.2536	0.0909	0.3445	2094.3525	0.225813	-389.495957	-389.484567	-389.483623	-389.533267	41.086	
C	-0.0474215353	 1.5494591067	-0.4477045571	-0.380303
C	-0.0119076078	 0.1131213108	 0.0810070067	-0.166115
C	-1.3811195683	-0.5728229152	 0.0495204527	-0.148909
C	-1.3501149386	-2.0162143126	 0.5727230978	-0.237981
C	-2.7162792591	-2.65842591	 0.5378749759	 0.01538
O	-3.2475882133	-3.0192473471	-0.7466408358	-0.302737
C	-3.0177415933	-4.0670947008	 0.2139016098	 0.395298
C	-1.9396970658	-5.0635691775	-0.1550664928	-0.455457
C	-4.2832883023	-4.6865517239	 0.7716593268	-0.450999
H	 0.9439345265	 2.0123404293	-0.4161362799	 0.110185
H	-0.3966783514	 1.5798151441	-1.4857214007	 0.115827
H	-0.7251973684	 2.1734230206	 0.1456682078	 0.113034
H	 0.7016440849	-0.477089957	-0.5095083794	 0.094778
H	 0.3725854065	 0.1096731949	 1.1099307316	 0.091797
H	-2.0966179016	 0.0145931361	 0.6419581314	 0.090269
H	-1.7686060476	-0.580241174	-0.9769898717	 0.112437
H	-0.6380813391	-2.6007929583	-0.0178711345	 0.099005
H	-0.987064604	-2.0263829751	 1.6100166145	 0.095425
H	-3.4483217353	-2.1492482262	 1.1724946228	 0.075305
H	-1.0834241282	-4.581453092	-0.6280221534	 0.128442
H	-1.5921585973	-5.605758699	 0.7312555182	 0.118232
H	-2.3398414626	-5.8014717513	-0.8592685092	 0.122957
H	-4.7181609832	-5.3848250467	 0.0478797202	 0.12236
H	-4.0727929006	-5.2455875732	 1.690084216	 0.116979
H	-5.0280208648	-3.9183693826	 0.9936399925	 0.124792
42.0881	73.5191	86.9699	122.0505	158.1558	193.9522	231.78	245.233	254.124	275.5081	371.7699	396.3563	424.3053	510.969	527.1494	702.3447	735.8038	780.348	816.1152	893.9328	906.9737	942.1739	946.1283	984.3199	1020.187	1021.7924	1065.6034	1085.8226	1118.7014	1148.2214	1158.3087	1161.5249	1241.2497	1264.296	1276.2021	1312.5885	1328.409	1351.4974	1364.8883	1395.356	1409.8425	1412.3669	1419.7476	1467.576	1470.1797	1476.1998	1486.1359	1488.0625	1498.4741	1498.7026	1502.6786	1512.4172	1521.7178	3006.6919	3012.2389	3017.5399	3029.1455	3031.4644	3035.4688	3037.7997	3053.8249	3058.8435	3087.141	3091.6502	3095.8558	3096.9438	3100.9608	3122.3479	3141.8728
CCCCC1OC1(C)C	CCCC[C@H]1OC1(C)C	
InChI=1S/C8H16O/c1-4-5-6-7-8(2,3)9-7/h7H,4-6H2,1-3H3	InChI=1S/C8H16O/c1-4-5-6-7-8(2,3)9-7/h7H,4-6H2,1-3H3/t7-/m1/s1
