15
gdb 32283	3.15098	1.45466	1.02596	2.562	69.91	-0.2424	-0.0417	0.2008	1089.3836	0.115084	-453.995285	-453.987909	-453.986965	-454.027297	28.019	
O	 0.2476092938	 1.0890962712	-0.756201113	-0.417047
C	-0.0147775635	 0.0355068496	 0.1826219346	-0.186248
C	-1.431748575	-0.488530208	 0.1014293049	 0.161321
N	-2.0025495602	-0.8903711853	 1.2395823171	-0.294328
C	-3.2303658484	-1.4000607946	 1.1572862287	 0.046646
N	-3.9559210272	-1.5441400051	 0.0470412572	-0.244022
C	-3.392019916	-1.1301713684	-1.0852667913	-0.043355
C	-2.1091099229	-0.5800083979	-1.1247011391	 0.277995
O	-1.5865193698	-0.1864739019	-2.305796662	-0.435914
H	-0.2316397693	 1.8731144505	-0.4649081997	 0.302419
H	 0.6951837219	-0.7581094459	-0.0771544287	 0.144471
H	 0.1935383502	 0.3457065635	 1.2116692651	 0.138611
H	-3.6862306365	-1.7280802376	 2.087175466	 0.116277
H	-3.9593190273	-1.2327860407	-2.0074347531	 0.124818
H	-0.7837590697	 0.3321035803	-2.1116799267	 0.308357
95.7783	149.3708	260.287	279.5069	373.8016	428.6618	430.6775	467.9085	571.0555	609.9436	634.5146	750.7656	761.3749	786.5661	895.6608	938.3597	971.5198	987.6195	1039.3557	1158.2633	1181.1465	1188.0246	1260.0745	1280.2355	1316.2098	1361.9067	1393.5079	1399.104	1459.7415	1486.9228	1502.4467	1599.8987	1631.2469	3042.0985	3090.7086	3161.5189	3175.6377	3588.9486	3805.6647
OCC1=NC=NC=C1O	OCc1ncncc1O	
InChI=1S/C5H6N2O2/c8-2-4-5(9)1-6-3-7-4/h1,3,8-9H,2H2	InChI=1S/C5H6N2O2/c8-2-4-5(9)1-6-3-7-4/h1,3,8-9H,2H2
