16
gdb 59016	3.31405	1.10235	0.99193	1.6155	66.31	-0.2735	-0.0284	0.2451	1223.0181	0.123315	-475.074496	-475.06593	-475.064986	-475.108209	31.041	
C	 0.1432384845	 1.4930554603	 0.1699805288	-0.416871
C	-0.0360755754	-0.0192571746	-0.0034414932	 0.036349
O	-1.39864969	-0.3897889412	-0.1372033069	-0.423938
C	 0.7560362025	-0.5336651376	-1.1740843477	 0.419847
N	 1.8117522876	-1.2358709773	-1.1613263911	-0.298482
C	 2.1635278148	-1.4506574344	-2.5605276656	-0.317371
C	 1.0871798633	-0.731982794	-3.3660847954	 0.405115
O	 0.910389997	-0.6042461501	-4.5344229359	-0.304715
O	 0.2372201122	-0.1748800893	-2.4095248374	-0.250034
H	 1.1901140292	 1.7439298251	 0.3656716051	 0.133713
H	-0.1760485765	 2.0280436168	-0.7305313907	 0.129477
H	-0.4653519552	 1.8313859271	 1.0120037058	 0.137162
H	 0.3352694194	-0.5444230961	 0.879977032	 0.127293
H	-1.7356556198	 0.015991324	-0.9447361894	 0.294498
H	 3.1537310441	-1.0457590939	-2.7957023768	 0.162796
H	 2.1837894922	-2.5167462647	-2.8106492417	 0.165162
59.6015	109.9706	169.1849	200.7803	249.3959	321.1647	324.8757	374.3143	470.6427	532.4704	544.645	639.2962	719.0778	748.0582	856.401	894.3484	915.9045	988.2428	1015.4483	1037.4345	1075.0529	1105.8852	1125.9713	1185.943	1257.6754	1300.2979	1319.2386	1342.2934	1400.1558	1420.2301	1443.5025	1489.5573	1496.6762	1741.9339	1925.0384	3040.5395	3056.4654	3091.2331	3093.2646	3117.5212	3131.0647	3798.3845
CC(O)C1=NCC(=O)O1	C[C@@H](O)C1=NCC(=O)O1	
InChI=1S/C5H7NO3/c1-3(7)5-6-2-4(8)9-5/h3,7H,2H2,1H3	InChI=1S/C5H7NO3/c1-3(7)5-6-2-4(8)9-5/h3,7H,2H2,1H3/t3-/m1/s1
