15
gdb 7919	3.64443	1.71276	1.22087	4.7644	66.57	-0.2225	-0.0188	0.2036	937.582	0.119854	-399.842887	-399.835414	-399.83447	-399.874647	28.524	
N	 0.0219887468	 1.3513996654	-0.0386436686	-0.574013
C	-0.0817374315	 0.0012555485	 0.0058384533	 0.35046
C	-1.1758378601	-0.799213084	 0.0384799647	-0.336232
C	-0.7815978853	-2.2031507431	 0.0621900951	 0.394872
O	-1.4963968889	-3.1808691858	 0.1319067573	-0.359092
C	 0.7592046084	-2.2517282692	-0.048398137	-0.370473
C	 1.2165543572	-0.7926358324	 0.0842748124	 0.050697
O	 2.1809887644	-0.3304303249	-0.8562934013	-0.433603
H	 0.9140978558	 1.7178309651	-0.3352019962	 0.267504
H	-0.7855623091	 1.9055237404	-0.2721282093	 0.2641
H	-2.2104026001	-0.4807382164	 0.0367260103	 0.095302
H	 1.1843159091	-2.918804489	 0.704704113	 0.129552
H	 1.0352323136	-2.6588797828	-1.0282796563	 0.120107
H	 1.6848673336	-0.609792778	 1.0581545238	 0.11692
H	 1.873883596	-0.576887284	-1.7365776913	 0.283897
74.6087	160.8307	265.4233	336.1544	370.3473	381.143	466.8122	522.4939	533.6709	548.1594	595.0183	616.8298	692.8161	821.7057	846.9575	860.9532	953.0057	1026.5332	1078.318	1103.3468	1133.1735	1192.5291	1240.2665	1285.1678	1292.7565	1307.1967	1398.7529	1426.4939	1463.0998	1627.8173	1688.7644	1800.8655	3048.5167	3051.3356	3112.2425	3214.3368	3581.1954	3698.0172	3792.0989
NC1=CC(=O)CC1O	NC1=CC(=O)C[C@H]1O	
InChI=1S/C5H7NO2/c6-4-1-3(7)2-5(4)8/h1,5,8H,2,6H2	InChI=1S/C5H7NO2/c6-4-1-3(7)2-5(4)8/h1,5,8H,2,6H2/t5-/m1/s1
