19
gdb 64350	2.6258	1.39626	1.13072	4.4183	71.44	-0.2564	0.0152	0.2715	1136.9436	0.158798	-460.21312	-460.20431	-460.203365	-460.246395	33.696	
C	-0.0049324103	 1.5726899382	 0.0409362826	-0.433697
C	-0.0258392776	 0.0442201891	-0.0173689354	 0.330115
O	-1.3664092493	-0.4255713374	-0.1990397573	-0.463278
C	 0.7576186815	-0.5018450688	-1.2145703078	-0.230437
C	 0.6701205326	-2.0203563408	-1.2432018898	-0.068219
O	 1.0525463914	-2.6522642195	-0.0076742186	-0.231253
C	 0.8079237296	-2.0851744601	 1.1951657093	 0.413983
O	 0.8687747545	-2.7576890664	 2.1883092323	-0.326892
C	 0.5794584186	-0.5782843203	 1.2480897563	-0.36654
H	 1.0179182317	 1.9592292071	 0.0891854485	 0.11931
H	-0.4944010031	 1.9868069746	-0.8450191064	 0.127763
H	-0.5398870439	 1.9336059337	 0.9273618314	 0.110924
H	-1.8853446138	-0.1603880871	 0.5677307809	 0.283495
H	 0.3428054735	-0.1083041969	-2.1482773225	 0.114797
H	 1.8007060448	-0.1749920908	-1.145209798	 0.107925
H	-0.3542711374	-2.3281454305	-1.4713011257	 0.136779
H	 1.3382369698	-2.4425143	-1.9975349214	 0.118297
H	 1.5604242022	-0.1286662082	 1.4485464894	 0.134731
H	-0.0366406147	-0.3759644258	 2.129502432	 0.122199
78.0219	121.6512	242.4088	246.3488	263.2473	285.8259	329.5665	381.8583	407.8969	477.3354	509.8092	529.7226	584.4696	662.951	764.5171	808.4711	890.5247	909.7647	942.9729	979.9835	994.9462	1035.0639	1094.5363	1116.8135	1140.9513	1173.6106	1204.2085	1240.9447	1287.3	1294.219	1335.8678	1355.1529	1402.6138	1409.4796	1430.9535	1452.0132	1474.6266	1492.4257	1495.8811	1510.5612	1841.9667	3029.007	3037.1848	3048.3062	3063.2818	3089.6054	3093.7406	3098.1345	3114.1126	3119.1442	3810.1532
CC1(O)CCOC(=O)C1	C[C@@]1(O)CCOC(=O)C1	
InChI=1S/C6H10O3/c1-6(8)2-3-9-5(7)4-6/h8H,2-4H2,1H3	InChI=1S/C6H10O3/c1-6(8)2-3-9-5(7)4-6/h8H,2-4H2,1H3/t6-/m1/s1
