21
gdb 117226	4.04993	0.79742	0.754	4.4426	82.69	-0.2371	0.0247	0.2618	1627.0266	0.181924	-420.419152	-420.408867	-420.407923	-420.455957	36.757	
C	 0.3082152837	 1.0561427795	-0.9917216686	-0.371733
C	-0.3065422557	 0.8315536536	 0.3921123153	-0.14342
N	-1.5666938397	 0.1076654503	 0.3452569853	-0.329961
C	-1.6713791424	-1.2141372073	 0.6842199568	 0.45642
O	-0.7290165984	-1.8670806684	 1.0966789965	-0.378845
C	-3.0673282313	-1.7633869458	 0.5317772502	-0.162847
N	-3.1872389304	-3.2034754749	 0.2465895404	-0.311033
C	-3.6797112788	-2.7053878171	 1.5294536657	 0.011363
C	-2.9777524462	-3.1798708851	 2.777582028	-0.403784
H	 1.246682073	 1.6133675992	-0.906848151	 0.119173
H	 0.5179812782	 0.0996426133	-1.4786113506	 0.137365
H	-0.3641429652	 1.6296778847	-1.6395006922	 0.107865
H	 0.3617278932	 0.231264906	 1.0128070166	 0.150913
H	-0.4654662137	 1.791693464	 0.8978387119	 0.102708
H	-2.3674880765	 0.5704882546	-0.0527038135	 0.23934
H	-3.7674140602	-1.096701788	 0.0288248418	 0.068893
H	-3.9512599734	-3.3600247672	-0.405149842	 0.23274
H	-4.7601676427	-2.5933535768	 1.6291613225	 0.082125
H	-1.9023532393	-3.2311125741	 2.6086397589	 0.170809
H	-3.1765967269	-2.4988769202	 3.6123677835	 0.108451
H	-3.3457286173	-4.1728195101	 3.0577289344	 0.113457
24.1389	46.8975	90.3146	170.8011	186.2566	227.2653	253.6045	318.8742	358.5649	378.0925	416.6067	461.7521	481.1486	687.6154	743.39	788.9691	804.385	852.8994	901.5474	904.7487	952.7189	1006.7705	1021.7819	1072.062	1084.3786	1117.2764	1149.5134	1166.4251	1194.5937	1223.4362	1248.5543	1265.7965	1323.2608	1390.2588	1398.03	1410.2445	1435.7877	1463.69	1480.6337	1493.1316	1497.4554	1500.3351	1502.0008	1542.4942	1775.2887	3032.4375	3033.9189	3036.5669	3089.7745	3094.6149	3096.5214	3103.0356	3117.7566	3128.8158	3161.9032	3505.4963	3640.6226
CCNC(=O)C1NC1C	CCNC(=O)[C@H]1N[C@H]1C	
InChI=1S/C6H12N2O/c1-3-7-6(9)5-4(2)8-5/h4-5,8H,3H2,1-2H3,(H,7,9)	InChI=1S/C6H12N2O/c1-3-7-6(9)5-4(2)8-5/h4-5,8H,3H2,1-2H3,(H,7,9)/t4-,5-/m0/s1
