15
gdb 17185	4.06191	1.86584	1.59094	1.4437	60.7	-0.2349	0.054	0.2889	815.8114	0.118424	-399.667496	-399.660655	-399.659711	-399.698666	25.879	
O	-0.1164733665	 1.4259037499	 0.098821461	-0.424963
C	-0.0525607966	 0.0189904942	-0.0984595527	-0.24169
C	-1.4515406834	-0.5013484864	-0.0582174155	 0.341653
N	-2.5009584953	-0.2059270422	-1.0886356758	-0.380214
C	-3.2250908617	-1.0696588083	-0.0996939662	-0.079691
C	-1.9693949955	-1.9605459034	 0.130885202	 0.049475
O	-2.0206689784	-1.8877669283	 1.583643997	-0.331406
C	-2.4463103738	-0.5594325695	 1.1556099355	 0.044093
H	 0.7713135937	 1.7833478603	 0.005161356	 0.293177
H	 0.4008150347	-0.2339570803	-1.0687374138	 0.103419
H	 0.5263594905	-0.4811354876	 0.6936938926	 0.107181
H	-2.8035984506	 0.76698026	-1.0020558785	 0.219994
H	-4.2690397594	-1.3663806635	-0.1979865585	 0.093121
H	-1.6598191482	-2.8882736812	-0.3482620288	 0.103765
H	-2.6978735994	 0.1867054063	 1.9098178059	 0.102085
96.1018	163.1946	213.4364	271.3657	384.5002	492.4755	578.5754	681.0684	755.8814	773.4787	814.6614	831.4936	863.9919	905.031	944.8141	951.4515	1027.13	1070.0702	1088.3715	1107.2498	1113.4758	1158.5432	1171.0199	1186.0356	1226.0196	1254.5454	1271.8581	1287.5797	1318.707	1370.7254	1474.1189	1503.2955	2978.8566	3015.61	3116.9146	3126.2257	3140.3395	3421.2957	3832.5792
OCC12NC3C1OC23	OC[C@@]12N[C@H]3[C@@H]1O[C@@H]23	
InChI=1S/C5H7NO2/c7-1-5-3-2(6-5)4(5)8-3/h2-4,6-7H,1H2	InChI=1S/C5H7NO2/c7-1-5-3-2(6-5)4(5)8-3/h2-4,6-7H,1H2/t2-,3-,4+,5+
