14
gdb 33487	2.27862	1.78095	1.22702	5.2198	70.37	-0.2841	-0.0366	0.2475	1000.0096	0.101211	-395.690728	-395.683092	-395.682147	-395.722922	28.298	
N	 0.0278806485	-1.1964885341	-0.0825506437	-0.32593
C	-0.0004356652	-0.0417001728	-0.0636517214	 0.301281
C	-0.0020383486	 1.4200543874	 0.0252103507	 0.014195
C	-0.2586208039	 2.0288668864	 1.454573211	-0.299063
C	 1.1557208824	 2.5882212514	 1.3713328576	-0.001734
C	 2.1425394988	 1.5307800415	 1.1037882218	-0.246244
N	 1.3777050267	 2.0662695958	-0.0468511861	-0.141763
C	-0.8715806259	 1.9903975885	-1.0048878579	 0.291083
N	-1.574443417	 2.4632349582	-1.7891611188	-0.316828
H	-1.04211045	 2.7845905929	 1.423844192	 0.158335
H	-0.4659908666	 1.3118907541	 2.2509105534	 0.144837
H	 1.4339294495	 3.6010397696	 1.6375793932	 0.123504
H	 3.186357538	 1.820425677	 1.0486881496	 0.149309
H	 1.9696030034	 0.5090410541	 1.4317465088	 0.149018
133.0673	142.972	162.3003	192.3424	313.2504	421.891	488.9215	502.6749	549.495	576.46	591.8376	762.5694	767.3758	844.7208	894.4495	941.418	963.9271	1007.6194	1058.5314	1085.6385	1114.8663	1134.1916	1150.0538	1227.335	1252.392	1282.4981	1369.6877	1483.0858	1504.3048	2358.4871	2370.9103	3088.3355	3123.3818	3157.7516	3189.6934	3218.2138
N#CC1(CC2CN12)C#N	N#CC1(C[C@H]2CN12)C#N	
InChI=1S/C6H5N3/c7-3-6(4-8)1-5-2-9(5)6/h5H,1-2H2	InChI=1S/C6H5N3/c7-3-6(4-8)1-5-2-9(5)6/h5H,1-2H2/t5-,9?/m0/s1
