17
gdb 38799	3.1469	2.168	1.80624	0.714	68.74	-0.2401	0.0648	0.3049	803.0009	0.139661	-421.765901	-421.760401	-421.759457	-421.795451	24.314	
C	-0.0021662117	 1.5128088859	 0.0703331672	-0.21023
C	 1.4507531121	 1.9721636234	-0.0474307536	 0.079873
O	 2.0813091178	 1.6557570428	 1.2336563723	-0.303591
C	 2.5451545169	 0.4357918171	 0.6540466738	 0.112517
C	 2.3706063808	 0.9305124733	-0.7990963992	-0.136916
C	 1.6527289336	-0.4056387325	-1.1828266089	 0.112517
O	 0.2570322267	-0.300066562	-1.4661961906	-0.303591
C	 0.0372318559	-0.0103132348	-0.0496408709	 0.079873
C	 1.4416219957	-0.6254526684	 0.3317548682	-0.136916
H	-0.3887600224	 1.8571478473	 1.0344472778	 0.110825
H	-0.640205484	 1.8988592895	-0.7305482308	 0.110825
H	 1.5773483696	 3.0260641783	-0.3043575961	 0.083464
H	 3.4680743511	 0.0569192639	 1.0973192266	 0.08214
H	 3.1694503387	 1.3457290648	-1.4109177829	 0.076803
H	 2.1936124587	-1.0702075305	-1.8592948149	 0.08214
H	-0.8506596848	-0.5215392513	 0.3285663251	 0.083464
H	 1.4257328251	-1.5987829866	 0.818845557	 0.076803
277.4449	365.5168	459.3979	489.4924	621.5781	665.5588	683.4141	724.1485	796.0223	800.5197	832.8795	864.2127	879.284	896.9445	940.6492	963.0823	996.3883	1008.5955	1035.336	1035.99	1062.7608	1078.2	1094.1251	1131.475	1179.1506	1186.4661	1207.7891	1254.397	1258.8547	1276.6474	1290.3727	1294.74	1327.758	1354.9012	1366.6036	1371.3889	1464.1476	3049.6484	3083.7812	3086.7415	3092.124	3093.3354	3102.87	3127.5608	3131.8235
C1C2OC3C2C2OC1C32	C1[C@H]2O[C@@H]3[C@H]2[C@@H]2O[C@H]1[C@H]32	
InChI=1S/C7H8O2/c1-2-4-6(8-2)5-3(1)9-7(4)5/h2-7H,1H2	InChI=1S/C7H8O2/c1-2-4-6(8-2)5-3(1)9-7(4)5/h2-7H,1H2/t2-,3-,4+,5-,6-,7+/m1/s1
