18
gdb 40940	3.40595	1.3968	1.25229	3.3289	71.7	-0.2376	0.026	0.2636	1047.7856	0.149431	-439.076141	-439.068468	-439.067524	-439.108747	28.892	
C	 0.0059064865	 1.3429380007	-0.3546727422	-0.064102
C	 1.4568800331	 1.5192743484	 0.134633219	-0.353375
C	 1.2668732133	 0.1237048509	 0.7665549731	 0.368046
C	 2.1026536525	-0.9921317681	 0.1590084172	-0.104855
O	 1.7345877569	-2.2726357744	 0.6842659024	-0.224782
C	 1.3806731043	-2.2964448021	 1.9924027461	 0.142691
N	 1.2072505224	-1.3383791479	 2.7970680764	-0.274633
C	 1.3440735765	 0.0224766524	 2.2862519622	-0.194022
O	-0.1062322309	 0.0565385484	 0.2882048674	-0.318922
H	-0.7219328256	 2.0617014241	 0.0389058195	 0.109354
H	-0.1217008803	 1.2707521686	-1.4414674967	 0.10588
H	 2.2202861407	 1.5823069412	-0.6443512784	 0.111019
H	 1.6148774807	 2.3241519567	 0.8553574578	 0.116569
H	 1.9516224174	-1.0534012645	-0.9210325432	 0.120033
H	 3.1682405548	-0.8139510177	 0.3609308365	 0.109543
H	 1.2412291544	-3.3267642409	 2.3138971468	 0.125239
H	 2.2983446356	 0.4425571038	 2.6348580049	 0.109381
H	 0.5506065177	 0.6363908105	 2.7258418511	 0.116936
77.5736	112.2362	151.9175	251.1304	354.2654	396.9582	437.3185	496.6069	535.9315	709.5174	780.0132	833.8059	871.5971	895.7212	937.6314	955.9713	965.0012	974.0098	999.8967	1010.169	1029.1619	1120.4858	1156.2044	1162.2544	1196.9986	1205.3852	1232.4733	1262.9737	1294.3546	1307.8001	1351.5454	1353.6916	1404.0956	1419.6476	1464.2757	1487.7217	1492.9498	1532.9719	1741.1232	3005.3272	3015.6148	3021.5862	3060.8996	3064.8746	3069.2135	3105.9787	3123.6329	3162.2005
C1CC2(COC=NC2)O1	C1C[C@]2(COC=NC2)O1	
InChI=1S/C6H9NO2/c1-2-9-6(1)3-7-5-8-4-6/h5H,1-4H2	InChI=1S/C6H9NO2/c1-2-9-6(1)3-7-5-8-4-6/h5H,1-4H2/t6-/m0/s1
