16
gdb 99410	2.13473	1.09991	0.78612	3.1041	81.26	-0.247	-0.0443	0.2026	1437.3998	0.121745	-396.898851	-396.888618	-396.887674	-396.935119	34.998	
C	-0.0694343038	 1.3712355045	-0.1047751148	-0.318225
N	-0.2582535451	-0.0346346178	 0.2002873123	-0.334535
C	 0.4492281191	-0.6291608049	 1.2067614697	 0.326335
N	 1.1969774659	 0.0398167161	 1.9958739054	-0.295149
C	 1.8822685274	-0.6237676996	 3.0962497089	-0.329915
C	 3.3325170749	-0.4616116498	 2.9939772689	 0.332905
C	 4.5249014522	-0.3403922334	 2.9166057198	-0.459539
C	 0.228184023	-2.0706448305	 1.2917844542	 0.230628
N	 0.0690811726	-3.2134581164	 1.3657484262	-0.330521
H	 0.9607785755	 1.5898317375	-0.4110448165	 0.142884
H	-0.7549019464	 1.6478451039	-0.9075834604	 0.12898
H	-0.2874494869	 1.9753770972	 0.7794606591	 0.155542
H	-0.6470002495	-0.6349358204	-0.5069590885	 0.265658
H	 1.5420796609	-0.161122387	 4.0328957465	 0.142356
H	 1.6457636802	-1.6966726328	 3.1739076126	 0.142808
H	 5.57920196	-0.2338292867	 2.8494267866	 0.199788
33.983	82.4303	119.7253	143.072	148.4111	197.2162	270.3595	301.9762	326.0911	358.6717	378.5163	505.376	554.9855	611.0704	625.7287	661.1857	721.5409	809.9321	950.9152	1006.8366	1047.0954	1086.2312	1153.6904	1206.623	1258.5094	1302.4198	1377.0185	1456.5481	1472.4948	1477.4869	1505.5085	1541.4294	1708.6953	2243.244	2345.2869	2982.0966	3024.6689	3030.8231	3100.0849	3143.078	3506.6198	3662.0354
CNC(=NCC#C)C#N	CNC(=NCC#C)C#N	
InChI=1S/C6H7N3/c1-3-4-9-6(5-7)8-2/h1H,4H2,2H3,(H,8,9)	InChI=1S/C6H7N3/c1-3-4-9-6(5-7)8-2/h1H,4H2,2H3,(H,8,9)
