18
gdb 113339	2.11365	1.21464	0.99708	2.9049	74.07	-0.2627	0.0212	0.2839	1275.4414	0.145682	-439.065866	-439.05601	-439.055066	-439.101212	34.71	
C	-0.3216079851	 1.074114141	-0.1373402307	-0.24599
O	 0.5072362161	-0.0519479919	 0.1132136407	-0.22803
C	 0.9605145697	-0.6639079622	-1.0377380519	 0.091305
C	 1.4909308065	-2.0433489879	-0.9171360636	-0.34451
C	 0.1541361035	-1.8392091499	-1.6349387971	 0.087306
C	-1.1036823886	-2.3332268999	-0.9278042133	-0.14335
O	-1.1912101043	-3.7431658343	-0.8766205662	-0.411588
C	 0.1356796789	-1.9679851868	-3.0659551628	 0.220672
N	 0.0947202517	-2.0798100796	-4.2180526462	-0.345029
H	 0.2068390355	 1.8304556131	-0.7339721599	 0.122507
H	-1.2414910534	 0.7894705321	-0.6653699748	 0.120812
H	-0.5793491767	 1.4994653922	 0.8341053931	 0.140008
H	 1.4213528125	 0.0054375109	-1.7647460035	 0.112431
H	 2.3562004756	-2.3223979979	-1.5057060965	 0.14197
H	 1.4147218017	-2.5207450733	 0.0531226981	 0.150769
H	-1.0720775729	-1.9877749653	 0.1078376811	 0.130521
H	-1.9893720499	-1.8918041521	-1.4068641589	 0.104839
H	-1.2870181307	-4.070967078	-1.7775563175	 0.295356
61.8749	87.9807	110.7118	153.6951	168.0611	210.9211	254.0993	322.7106	349.7912	392.9016	480.7793	504.0938	575.5152	615.854	706.569	812.6521	889.6479	937.6031	949.2905	1032.9274	1045.548	1068.1635	1084.576	1129.769	1164.1701	1181.9335	1193.9801	1254.6523	1283.5163	1302.8154	1385.8685	1409.2865	1416.916	1470.1093	1487.6384	1492.1839	1502.5145	1511.46	2337.4949	2998.5567	3002.2115	3056.2962	3104.0071	3111.5479	3135.172	3149.471	3243.2863	3806.0823
COC1CC1(CO)C#N	CO[C@H]1C[C@]1(CO)C#N	
InChI=1S/C6H9NO2/c1-9-5-2-6(5,3-7)4-8/h5,8H,2,4H2,1H3	InChI=1S/C6H9NO2/c1-9-5-2-6(5,3-7)4-8/h5,8H,2,4H2,1H3/t5-,6+/m0/s1
