16
gdb 31199	2.27409	1.56169	0.9374	1.7195	83.4	-0.1802	0.0194	0.1996	1209.9029	0.12362	-400.742916	-400.734086	-400.733142	-400.776684	32.394	
C	-0.0869114314	 1.4273635238	-0.1146112214	-0.334374
N	 0.2882046431	 0.0329868305	 0.0717917129	-0.40362
C	 0.7184784401	-0.7196443256	-0.9841141704	 0.353761
C	 0.7117727035	-2.0849805376	-1.1929900083	 0.048521
C	 1.3841589082	-2.2711210711	-2.4598755328	-0.287514
C	 1.7233391172	-1.0453410661	-2.9093838649	-0.033608
O	 1.3163698952	-0.0788799657	-2.0062090011	-0.183034
C	 0.1503026368	-3.0392482476	-0.3237927668	 0.190749
C	-0.3452663828	-3.834511002	 0.4371578598	-0.446607
H	 0.7504135381	 1.9759250501	-0.5506305579	 0.152594
H	-0.9618086892	 1.5597144907	-0.7676977366	 0.123158
H	-0.308276274	 1.8613504277	 0.8625556285	 0.131445
H	-0.2946757725	-0.4980362132	 0.7027600903	 0.256818
H	 1.5688929602	-3.2143955682	-2.9483920095	 0.116869
H	 2.2172193001	-0.6710538217	-3.788547898	 0.135721
H	-0.7685194424	-4.544181324	 1.1030283964	 0.179122
72.123	116.8548	138.2316	168.1193	220.0156	293.9597	406.0506	432.3943	500.3384	512.4371	576.5608	609.034	617.3241	662.7828	668.044	734.1903	759.4772	825.0512	902.0353	1045.2684	1051.1774	1088.8246	1150.6288	1167.3648	1193.6002	1277.2592	1309.0466	1442.6368	1450.2537	1487.7914	1498.5922	1516.3265	1585.8561	1652.8726	2216.8106	2998.2097	3098.3097	3139.6718	3264.301	3302.7313	3504.7159	3605.7612
CNC1=C(C=CO1)C#C	CNc1c(cco1)C#C	
InChI=1S/C7H7NO/c1-3-6-4-5-9-7(6)8-2/h1,4-5,8H,2H3	InChI=1S/C7H7NO/c1-3-6-4-5-9-7(6)8-2/h1,4-5,8H,2H3
