25
gdb 122190	3.3491	0.73185	0.69282	1.4429	89.45	-0.2508	0.0749	0.3257	1805.7912	0.227574	-389.492358	-389.481687	-389.480743	-389.52849	39.798	
C	 0.1578983729	 1.4632411047	-0.2044811836	-0.381716
C	 0.0115139865	-0.0593834649	-0.1442496189	-0.162946
C	-1.4417488999	-0.5205186256	 0.0184627181	-0.188989
C	-1.5860849855	-2.0445125741	 0.1079040287	-0.229563
C	-3.0326791947	-2.5458579442	 0.1974148597	 0.417394
O	-3.6972579241	-2.0265943045	 1.3364256717	-0.484718
C	-3.8163952614	-2.479020065	-1.1557166326	-0.276527
C	-3.5178855784	-3.988484241	-1.3637589982	-0.211276
C	-3.1450659678	-4.0895966537	 0.1399385302	-0.256665
H	 1.2048518753	 1.7598331545	-0.3216965437	 0.11252
H	-0.4030617904	 1.8826380808	-1.0472722375	 0.113238
H	-0.2205392928	 1.9339801138	 0.709873194	 0.113624
H	 0.4303800437	-0.5056070309	-1.0558111938	 0.095824
H	 0.6096056644	-0.4538392566	 0.6876068225	 0.097885
H	-1.8528359514	-0.0571128943	 0.9266678871	 0.087258
H	-2.0367184783	-0.1362880255	-0.8219148998	 0.095999
H	-1.10710753	-2.5051227919	-0.7663110088	 0.092229
H	-1.0452986943	-2.4096860732	 0.9908313586	 0.098769
H	-3.7006352113	-1.0657152674	 1.2732843225	 0.274522
H	-4.876554152	-2.2954229721	-0.9634562327	 0.102588
H	-3.4645191699	-1.7799345042	-1.9195336903	 0.08838
H	-4.3426266066	-4.6127317056	-1.7127124663	 0.099326
H	-2.6596547912	-4.1572365039	-2.0195366583	 0.101325
H	-2.2558159508	-4.6639997396	 0.4130362735	 0.091564
H	-3.9870957522	-4.4214492656	 0.7518194877	 0.109953
63.0017	72.5597	104.2806	140.796	160.3999	240.6314	254.313	272.7866	296.2005	339.2923	406.5036	458.3104	485.5286	643.4552	726.2698	742.7931	790.2854	796.4335	862.1046	896.7645	910.8544	933.1028	936.3223	977.1872	1001.7227	1025.0651	1035.3076	1063.1032	1073.4338	1129.4977	1182.8191	1195.3499	1204.24	1247.054	1251.0678	1263.9214	1274.647	1283.9403	1293.2005	1329.2662	1335.5508	1346.1406	1380.0426	1403.9084	1414.3783	1466.8666	1476.0869	1482.8779	1486.4374	1497.6262	1499.3964	1505.1607	1511.9864	2997.1237	3012.8601	3019.5936	3025.1751	3028.8094	3047.7374	3053.7484	3058.5835	3062.9366	3066.6645	3094.8068	3101.6571	3102.5154	3114.5025	3126.9816	3809.4835
CCCCC1(O)CCC1	CCCCC1(O)CCC1	
InChI=1S/C8H16O/c1-2-3-5-8(9)6-4-7-8/h9H,2-7H2,1H3	InChI=1S/C8H16O/c1-2-3-5-8(9)6-4-7-8/h9H,2-7H2,1H3
