18
gdb 74421	2.89667	1.48471	1.12704	4.181	79.37	-0.2461	-0.0453	0.2008	1123.5141	0.146934	-401.975458	-401.966894	-401.96595	-402.008472	32.16	
C	-0.0005404353	 1.5155575433	 0.0093190879	-0.488226
C	-0.046503188	 0.0245184411	 0.0425362287	 0.219016
C	-1.0808465411	-0.8207498858	-0.0708068437	-0.269409
C	-0.6166055461	-2.2390770048	-0.0082991281	 0.292738
C	-1.4016584451	-3.237506208	 0.8104197141	-0.475023
C	 0.287944402	-2.6851011325	-1.1160292483	-0.279422
N	 0.8405289519	-2.1863643113	 0.164433237	-0.163142
C	 1.2066120691	-0.7884364662	 0.1082294335	 0.306333
O	 2.340301463	-0.3840852723	 0.0921499056	-0.322752
H	 0.6789714469	 1.8584482073	-0.7782745435	 0.147412
H	-0.9885691646	 1.9498327124	-0.1605943842	 0.122726
H	 0.3978121047	 1.9100816554	 0.9506302231	 0.145683
H	-2.126641362	-0.5500000937	-0.164308201	 0.114109
H	-2.3996532808	-3.3841730095	 0.3832744851	 0.122973
H	-0.8916886122	-4.2032396178	 0.8337376965	 0.135508
H	-1.5196014851	-2.8883735274	 1.8409422914	 0.132531
H	 0.4371247841	-3.7469659572	-1.2942767147	 0.129014
H	 0.3890806787	-2.047438543	-1.9904063393	 0.129931
103.3068	133.1847	164.4056	193.5453	245.3548	302.6092	336.3901	399.3036	450.6904	539.7018	591.0336	600.5317	734.2339	784.6784	818.8595	858.8788	892.8604	928.536	933.7958	985.255	1030.551	1049.7993	1068.9001	1101.1199	1126.4098	1144.8547	1175.3762	1300.1605	1340.0933	1351.3811	1412.6462	1415.9011	1472.2118	1482.8083	1485.5351	1495.3196	1497.9498	1693.5951	1831.2475	3037.5944	3038.3221	3091.7255	3103.4698	3105.0895	3124.6153	3127.3949	3196.897	3198.6473
CC1=CC2(C)CN2C1=O	CC1=C[C@@]2(C)CN2C1=O	
InChI=1S/C7H9NO/c1-5-3-7(2)4-8(7)6(5)9/h3H,4H2,1-2H3	InChI=1S/C7H9NO/c1-5-3-7(2)4-8(7)6(5)9/h3H,4H2,1-2H3/t7-,8?/m0/s1
