25
gdb 95798	2.15691	1.45493	1.03669	1.584	88.22	-0.2564	0.061	0.3174	1298.2479	0.229704	-389.524236	-389.514363	-389.513419	-389.558019	38.786	
C	-0.0837441007	 1.5770435439	 0.0127957893	-0.403261
C	 0.0227160568	 0.0494105345	 0.0003545512	 0.019267
C	 0.6884630609	-0.4764068231	-1.2840264939	-0.200319
C	 0.7827354257	-2.0085233636	-1.2974886625	-0.213292
C	 1.4848411217	-2.5406298134	-0.0403648752	-0.20032
C	 0.823612358	-2.0265096082	 1.2510667545	 0.019262
C	 1.5139624343	-2.5642009437	 2.5078313693	-0.40326
C	 0.755665366	-0.4831379409	 1.2516709536	 0.132608
O	 2.0460090317	 0.1106414832	 1.4109421307	-0.44244
H	 0.9098791703	 2.0333964082	 0.0367202745	 0.122509
H	-0.6108177359	 1.9427541623	-0.874639264	 0.103609
H	-0.6280155276	 1.92842568	 0.8960324548	 0.108432
H	-0.994210102	-0.3687459524	 0.0379506122	 0.067171
H	 0.1325358198	-0.1202316399	-2.1588066488	 0.093425
H	 1.6958428402	-0.0428676602	-1.3796929141	 0.08214
H	-0.2309357818	-2.4295037418	-1.3471252372	 0.094433
H	 1.3041722437	-2.3503885905	-2.1988146534	 0.090709
H	 1.4891479394	-3.6365941239	-0.040252588	 0.093426
H	 2.5445515066	-2.242732077	-0.0543175671	 0.082138
H	-0.2180545566	-2.3805369926	 1.2500300701	 0.067173
H	 2.537494355	-2.1853707947	 2.578454857	 0.122507
H	 0.9846133695	-2.2514802449	 3.4143648361	 0.108433
H	 1.5501983749	-3.6586043965	 2.5000926899	 0.103609
H	 0.2072739482	-0.1569618513	 2.1442202823	 0.07254
H	 2.587536902	-0.1362539537	 0.6545025588	 0.279499
123.203	153.7626	201.6034	208.6647	228.2365	253.0895	270.7977	291.0766	316.0491	355.0896	417.8587	420.5447	538.2189	575.9016	636.4382	759.0329	825.6024	860.9477	864.4924	915.7091	953.4097	973.9844	985.6887	998.003	1000.7031	1058.6764	1061.1301	1095.7156	1113.597	1157.7278	1160.7668	1200.5192	1235.9753	1244.415	1289.9113	1301.5652	1330.303	1336.1472	1354.266	1373.8144	1375.9961	1384.3931	1393.2401	1409.3993	1409.8975	1432.2294	1487.3707	1490.3554	1492.7907	1494.0663	1501.9513	1502.1122	1507.0133	2985.7172	2990.5752	2996.8037	3001.9337	3015.1357	3030.5823	3032.5307	3035.1418	3055.5877	3058.9767	3062.0794	3095.6823	3096.0952	3113.8906	3114.6212	3819.5279
CC1CCCC(C)C1O	C[C@H]1CCC[C@@H](C)[C@H]1O	
InChI=1S/C8H16O/c1-6-4-3-5-7(2)8(6)9/h6-9H,3-5H2,1-2H3	InChI=1S/C8H16O/c1-6-4-3-5-7(2)8(6)9/h6-9H,3-5H2,1-2H3/t6-,7+,8-
