16
gdb 18735	3.25543	2.20152	1.50841	1.7971	59.93	-0.2511	0.0595	0.3107	829.481	0.131458	-420.848938	-420.841957	-420.841013	-420.879953	26.695	
O	-0.0521901468	 1.4067060356	-0.0422613635	-0.43155
C	 0.0021207818	-0.0089388678	 0.0369284494	 0.08622
C	 0.7253143993	-0.4920235676	 1.3023788093	-0.128985
O	 0.6713118216	-1.9051972946	 1.3877069723	-0.249808
C	-0.6322267047	-2.3974199157	 1.6479624551	-0.099404
C	-1.7228501775	-1.7281222952	 0.8287238215	 0.019583
O	-2.1288640631	-0.4264718384	 1.2672271369	-0.248273
C	-1.4150444657	-0.5297267139	 0.0329263987	 0.052391
H	 0.8443154498	 1.7349794155	-0.1648840581	 0.288194
H	 0.5103939677	-0.4377376627	-0.8422816865	 0.076588
H	 1.7859663088	-0.2236931553	 1.2623907421	 0.097543
H	 0.2706051231	-0.0099823981	 2.1788354613	 0.116929
H	-0.6017050103	-3.4670308268	 1.4176349514	 0.113661
H	-0.8826587323	-2.2849574106	 2.7154629033	 0.108451
H	-2.5476171194	-2.371088631	 0.521251686	 0.098893
H	-2.0039593022	-0.2973105034	-0.853596399	 0.099568
125.0339	223.0523	256.9983	283.9988	343.7841	379.4491	453.0568	492.4732	628.4629	701.7446	791.826	848.2676	905.033	934.2468	967.9845	1022.3739	1058.6118	1072.7812	1101.1743	1116.2464	1155.3497	1169.3639	1242.468	1255.2027	1284.7202	1314.1259	1338.2692	1352.2084	1389.5755	1413.2911	1444.0815	1470.9009	1486.5838	1498.4211	2972.7682	2977.9803	3016.9292	3077.9355	3082.5712	3109.7962	3125.7372	3818.3983
OC1COCC2OC12	O[C@H]1COC[C@H]2O[C@@H]12	
InChI=1S/C5H8O3/c6-3-1-7-2-4-5(3)8-4/h3-6H,1-2H2	InChI=1S/C5H8O3/c6-3-1-7-2-4-5(3)8-4/h3-6H,1-2H2/t3-,4+,5-/m0/s1
