21
gdb 92274	3.90956	1.20194	0.99732	0.4148	93.74	-0.2046	-0.0107	0.1939	1248.4368	0.184971	-349.986937	-349.97913	-349.978186	-350.018996	31.626	
C	-0.1362323182	 1.5765615703	 0.0545111218	-0.397034
C	 0.0329777365	 0.0546014881	 0.0266204102	 0.007242
C	 0.8257947625	-0.471638598	-1.2111084503	-0.254925
C	 1.461181498	-1.7770172461	-0.705081257	-0.04279
C	 2.8510561755	-2.2966902055	-1.1421583806	-0.306676
C	 3.4644652339	-2.7262431902	 0.1817483754	-0.066648
C	 2.7767798161	-2.2663557878	 1.2429522656	-0.196427
C	 1.6386338509	-1.4917866813	 0.7762320535	 0.367737
C	 0.8353441362	-0.5084548304	 1.1927381292	-0.269092
H	 0.8381005942	 2.0773408859	 0.0781047406	 0.113351
H	-0.6754738576	 1.9285353607	-0.8316411531	 0.11035
H	-0.7001888866	 1.898957803	 0.9364772357	 0.110286
H	-0.9745189942	-0.3944031193	 0.0196419956	 0.074419
H	 0.1949559521	-0.5936155557	-2.0970091693	 0.088
H	 1.613517833	 0.2524167257	-1.4574666986	 0.093075
H	 0.7420779342	-2.6028502878	-0.8156001627	 0.08015
H	 2.8055468314	-3.1091571263	-1.8748566459	 0.103065
H	 3.4596487958	-1.4998636772	-1.5963005677	 0.108916
H	 4.3917360902	-3.2863482935	 0.2390307099	 0.096087
H	 3.0637553849	-2.3905155193	 2.2802444203	 0.09734
H	 0.7635738911	-0.1117464752	 2.1995202877	 0.083576
103.9604	165.0808	232.5845	263.269	304.1303	387.5019	447.1932	474.9186	561.1235	621.5674	668.552	757.5777	772.5146	824.9859	834.5828	855.9284	908.7135	925.0441	938.6955	970.4338	981.5125	992.2228	1049.7275	1073.9988	1104.9866	1118.3982	1128.7558	1175.2913	1185.9435	1209.2771	1256.2398	1273.9554	1287.9306	1304.7528	1329.0633	1350.9182	1358.6412	1377.5062	1407.2939	1479.2082	1488.8211	1496.6766	1499.0658	1619.3762	1713.7129	2955.4155	2982.6062	2997.2321	3023.2004	3026.989	3065.1775	3083.4659	3094.6857	3095.6431	3185.6661	3188.8252	3212.3966
CC1CC2CC=CC2=C1	C[C@H]1C[C@H]2CC=CC2=C1	
InChI=1S/C9H12/c1-7-5-8-3-2-4-9(8)6-7/h2-3,5,7,9H,4,6H2,1H3	InChI=1S/C9H12/c1-7-5-8-3-2-4-9(8)6-7/h2-3,5,7,9H,4,6H2,1H3/t7-,9-/m1/s1
