27
gdb 57420	2.40482	1.08573	1.0431	0.0621	96.33	-0.2542	0.0733	0.3276	1424.3446	0.24926	-353.559116	-353.547759	-353.546814	-353.59483	43.961	
C	 0.6265303391	 2.2244082994	-0.7733057788	-0.421433
C	-0.0316964072	 0.8507450227	-0.5526591522	 0.230862
C	 0.1613961175	 0.4317347427	 0.9188413373	-0.397202
C	-1.5421831962	 0.9951534313	-0.8416056806	-0.39106
C	 0.4857726718	-0.2845297445	-1.4495281356	-0.00039
C	 0.9301566074	-0.1538059256	-2.8893768878	-0.359648
C	 1.9005877405	-0.6722894956	-1.8471807576	 0.322604
C	 3.1247593583	 0.1622680795	-1.5114572566	-0.461979
C	 2.1997352046	-2.1632636029	-1.8548687188	-0.444261
H	 1.663729903	 2.2478578707	-0.4328242574	 0.115934
H	 0.601223426	 2.5270094815	-1.8248245659	 0.110271
H	 0.0827416322	 2.9859782898	-0.2035829132	 0.106943
H	-0.2672654272	 1.1755517712	 1.6000097415	 0.103998
H	-0.3267548996	-0.5276237853	 1.1230521562	 0.105664
H	 1.2234235274	 0.3244625877	 1.1620764168	 0.112277
H	-1.7157448914	 1.295001048	-1.880383433	 0.112409
H	-2.0708732818	 0.0505175149	-0.6737441069	 0.105232
H	-1.9941642422	 1.7516131009	-0.1905538024	 0.10309
H	-0.1278456342	-1.1695608114	-1.2818435308	 0.071509
H	 0.5239743676	-0.8408357135	-3.6257131858	 0.100356
H	 1.1148068788	 0.8426955952	-3.2783132494	 0.104858
H	 2.9733799536	 1.2271347314	-1.689770577	 0.11832
H	 3.430143208	 0.0326245664	-0.4660480656	 0.11112
H	 3.9692546273	-0.1536555558	-2.1360342745	 0.109901
H	 2.9896794881	-2.4007616645	-2.5779555108	 0.109883
H	 2.5412121534	-2.5044735402	-0.8699209669	 0.111427
H	 1.3160366749	-2.7507453541	-2.1226360145	 0.109315
36.6512	133.8901	165.6651	208.3748	231.4039	249.3471	263.415	273.8332	286.4405	319.3844	344.8511	368.3789	377.6322	387.7539	427.6243	496.9253	542.5982	693.3813	712.3255	829.9592	891.7588	917.3889	928.8552	934.964	957.6822	968.4497	971.0281	983.2651	1033.6924	1053.0034	1058.8559	1074.1655	1123.4914	1146.6968	1157.2075	1217.9231	1237.2182	1272.7556	1298.4764	1352.5682	1395.5328	1396.9656	1407.6725	1412.5981	1425.5578	1438.9214	1477.8479	1484.0301	1485.4371	1486.7774	1493.2269	1496.1023	1502.5361	1505.0349	1512.0243	1515.7351	1523.663	3015.851	3021.77	3023.3286	3025.7686	3037.8609	3070.6487	3075.3909	3088.0346	3090.2504	3093.3893	3096.3542	3097.5407	3099.7069	3102.8089	3118.5981	3123.4787	3142.4405	3200.374
CC(C)(C)C1CC1(C)C	CC(C)(C)[C@H]1CC1(C)C	
InChI=1S/C9H18/c1-8(2,3)7-6-9(7,4)5/h7H,6H2,1-5H3	InChI=1S/C9H18/c1-8(2,3)7-6-9(7,4)5/h7H,6H2,1-5H3/t7-/m1/s1
