23
gdb 112705	3.01015	1.05867	0.90204	2.897	81.51	-0.2435	0.0734	0.3169	1394.3066	0.205741	-425.441974	-425.432164	-425.431219	-425.476977	37.077	
C	-0.7522158196	 1.2869994228	 0.0203965929	-0.417627
C	 0.013489476	-0.0333428011	-0.0336863448	 0.015122
C	 1.0510680936	-0.1449507453	-1.1638728985	-0.267074
C	 1.9310664399	-1.3075263816	-0.6976233374	 0.117911
C	 3.4111968968	-1.1940178541	-1.0462010679	-0.063468
O	 4.1623554364	-2.2254260392	-0.4407623776	-0.424678
O	 1.8252292736	-1.3396141093	 0.737669236	-0.306103
C	 0.8610869955	-0.3885592417	 1.2103633865	 0.128471
C	 1.5715753205	 0.7831868353	 1.8885660702	-0.397521
H	-0.0758003742	 2.1424553575	 0.1116497044	 0.120285
H	-1.3434735537	 1.4270982057	-0.89013154	 0.117607
H	-1.4440749144	 1.3134032229	 0.8691430852	 0.117335
H	-0.7095377064	-0.8485591315	-0.1656426541	 0.080862
H	 0.5969102572	-0.3292341948	-2.1405159879	 0.10575
H	 1.6376776995	 0.7794801268	-1.2392335612	 0.099343
H	 1.5531283238	-2.2662757947	-1.0818197221	 0.076427
H	 3.5531175273	-1.2829696645	-2.1293672819	 0.101917
H	 3.7729500169	-0.197798307	-0.7389750785	 0.077576
H	 3.8894634608	-2.22982705	 0.4850762348	 0.289286
H	 0.2453078167	-0.9032820158	 1.9589245673	 0.076918
H	 2.1535879841	 1.3750519908	 1.1747758116	 0.115023
H	 0.8556280268	 1.4465342151	 2.384225733	 0.113914
H	 2.260215163	 0.3992269135	 2.6462772099	 0.122723
39.0366	103.1868	125.8612	226.1699	244.2621	256.6903	272.5314	315.997	386.7206	407.415	471.5295	475.4611	503.2829	591.5266	685.5423	771.2243	820.3043	893.3974	913.7812	941.4616	981.6477	1013.5617	1037.6283	1067.13	1086.6246	1089.26	1099.2264	1136.509	1158.6784	1188.9018	1207.5802	1236.1895	1272.7444	1327.5996	1344.0784	1351.0297	1366.916	1384.314	1386.8029	1399.1695	1409.8088	1414.3969	1442.7707	1484.7283	1490.69	1495.6243	1501.0278	1503.9418	1506.2151	2957.6463	2997.0226	3010.9966	3026.4428	3033.1019	3034.4919	3038.5561	3065.0989	3098.0681	3100.6154	3107.2818	3108.9619	3116.5659	3784.813
CC1CC(CO)OC1C	C[C@H]1C[C@@H](CO)O[C@H]1C	
InChI=1S/C7H14O2/c1-5-3-7(4-8)9-6(5)2/h5-8H,3-4H2,1-2H3	InChI=1S/C7H14O2/c1-5-3-7(4-8)9-6(5)2/h5-8H,3-4H2,1-2H3/t5-,6-,7-/m0/s1
