23
gdb 82588	2.10853	1.92324	1.47224	0.1832	88.09	-0.2531	0.0778	0.3309	1056.8843	0.207542	-351.120608	-351.112448	-351.111504	-351.152705	33.401	
C	-0.3899085144	 1.5283958724	-0.1439088246	-0.424279
C	-0.0032125049	 0.0592438671	-0.0246082216	 0.057279
C	 0.9564900044	-0.6121452803	-1.040497787	-0.05892
C	 2.3463284022	 0.0653566476	-1.1565744945	-0.235127
C	 2.7981799388	-0.5952454745	 0.1714198144	-0.05892
C	 2.2362695987	 0.0797924529	 1.4490751775	 0.057279
C	 2.4799802953	 1.5547283232	 1.7446125107	-0.424279
C	 0.8304194802	-0.5247406322	 1.1553057085	-0.098926
C	 1.5163300355	-1.5029641148	 0.1266015956	-0.035112
H	 0.4754965969	 2.1813199563	-0.2781953975	 0.116894
H	-1.0512615495	 1.681405963	-1.0046972033	 0.109416
H	-0.9269677327	 1.8696056584	 0.7484072619	 0.111722
H	-0.925987556	-0.5364238043	-0.0394938474	 0.070408
H	 0.5161511535	-0.9994738063	-1.9611242253	 0.055495
H	 2.9046776567	-0.3535102151	-1.9992280191	 0.096575
H	 2.3882598634	 1.1571740039	-1.2355205716	 0.085921
H	 3.8227788203	-0.9691318391	 0.2147893426	 0.055495
H	 2.6225882725	-0.5038634044	 2.2956325285	 0.070408
H	 2.2525769952	 2.1976305037	 0.8912470124	 0.116894
H	 1.8686277448	 1.8952444116	 2.5880469666	 0.111722
H	 3.5301427323	 1.7234476169	 2.0100355679	 0.109416
H	 0.2585397466	-0.845230897	 2.0288294495	 0.054127
H	 1.4954642302	-2.5892978592	 0.1734608261	 0.056513
156.3214	157.6547	185.5383	260.5188	268.9416	272.2174	421.4468	486.5061	563.8212	585.748	614.3298	705.0057	799.048	808.828	836.6001	839.8463	874.1792	915.9544	931.5461	946.2837	977.4833	1013.8608	1050.5463	1077.4579	1083.8819	1099.8626	1103.0747	1133.1868	1137.8282	1159.4959	1169.2371	1183.6524	1192.7813	1227.5137	1250.3756	1284.7995	1286.8434	1303.4311	1346.706	1348.	1372.9139	1390.7031	1405.5561	1411.7999	1483.0788	1488.0773	1490.3843	1503.8553	1511.5048	3005.329	3006.4946	3028.4688	3030.9962	3037.7571	3074.851	3077.6502	3081.4918	3084.7901	3086.6457	3089.9171	3112.2459	3126.4809	3138.959
CC1C2CC3C(C)C1C23	C[C@H]1[C@H]2C[C@H]3[C@@H](C)[C@@H]1[C@@H]23	
InChI=1S/C9H14/c1-4-6-3-7-5(2)8(4)9(6)7/h4-9H,3H2,1-2H3	InChI=1S/C9H14/c1-4-6-3-7-5(2)8(4)9(6)7/h4-9H,3H2,1-2H3/t4-,5+,6+,7-,8+,9-
