18
gdb 65388	3.16891	1.05307	0.98391	3.6782	75.54	-0.242	-0.0228	0.2192	1268.6402	0.145339	-439.042494	-439.033629	-439.032685	-439.07645	32.937	
O	-0.0777883838	 1.4468868471	 0.406219579	-0.476968
C	 0.0505502268	 0.1073014207	 0.0680586774	 0.299689
C	-0.4383865051	-0.9669827081	 1.0285004231	-0.350701
C	-1.2328268023	-0.6848291008	-0.2087164771	-0.026965
N	-2.4184551259	 0.1121354654	-0.0843058609	-0.093814
C	-3.3417255085	 0.1244431271	-1.2178526294	-0.225179
C	-3.6995054699	-0.5856894634	 0.0404579004	-0.215312
C	 1.2256018398	-0.1941939922	-0.7851929235	 0.105873
O	 1.5458145723	-1.3102656176	-1.1232022474	-0.279605
H	-1.0320688419	 1.6262918694	 0.4038614144	 0.289314
H	 0.1270797185	-1.8915103278	 1.0556799797	 0.140807
H	-0.8263324754	-0.6003186692	 1.9720187787	 0.127488
H	-1.1878854609	-1.4191424476	-1.0136048288	 0.106042
H	-3.7871614093	 1.0864241962	-1.452026978	 0.127774
H	-3.0834393513	-0.4836501537	-2.081962211	 0.127254
H	-3.6803359633	-1.6724784327	 0.0260028687	 0.126924
H	-4.4058810409	-0.1469599345	 0.738632416	 0.127684
H	 1.7888053109	 0.7094380018	-1.1018320412	 0.089696
65.6604	102.9495	140.5525	186.6673	235.063	312.1635	324.5684	383.5393	475.6941	496.156	527.5047	646.3473	723.6491	760.8815	800.2219	831.8929	891.5038	937.3192	946.2766	1015.3615	1047.9323	1059.233	1075.015	1082.3483	1113.9892	1122.5643	1127.9738	1177.8346	1206.9914	1217.2551	1285.2316	1319.0972	1367.7456	1397.6583	1438.6999	1452.6619	1490.4358	1518.2323	1806.2839	2913.0846	3097.9116	3107.1231	3113.0485	3138.8387	3192.0163	3206.8264	3241.6962	3674.6829
OC1(CC1N1CC1)C=O	O[C@]1(C[C@H]1N1CC1)C=O	
InChI=1S/C6H9NO2/c8-4-6(9)3-5(6)7-1-2-7/h4-5,9H,1-3H2	InChI=1S/C6H9NO2/c8-4-6(9)3-5(6)7-1-2-7/h4-5,9H,1-3H2/t5-,6-/m1/s1
