17
gdb 80348	2.2153	1.52469	1.37377	1.2724	73.89	-0.2419	0.0341	0.276	1040.3018	0.133666	-421.750806	-421.741937	-421.740993	-421.783822	33.98	
O	 0.1302695715	 1.3515130686	 0.1882728689	-0.429589
C	-0.0440779969	-0.0299641623	 0.0822283235	 0.03464
C	-0.4561486976	-0.8919100245	 1.254822583	-0.151225
C	-1.4668423688	-0.1207384421	 2.1074447045	-0.24897
C	-2.4358457815	-0.0343081463	 0.8669008458	-0.232519
C	-2.909647747	 1.2612254374	 0.4064974951	 0.282649
C	-3.2679326151	 2.3354783157	-0.0048527888	-0.454395
C	-1.3575792724	-0.7464304683	 0.0198980395	 0.312947
O	-1.6680158311	-1.6942467526	-0.9348596989	-0.454431
H	-0.6854351177	 1.7918099542	-0.0792916084	 0.294015
H	 0.7116714997	-0.5024809134	-0.5438260277	 0.100564
H	 0.1362361566	-1.7370139029	 1.5817711195	 0.09922
H	-1.9000345591	-0.6981288163	 2.9246415321	 0.112472
H	-1.1117669668	 0.8413406394	 2.4806671714	 0.121855
H	-3.2801538101	-0.714260793	 1.010273161	 0.118427
H	-3.6084521826	 3.2802902091	-0.3509261905	 0.202909
H	-1.6776534911	-1.2697922528	-1.8001961499	 0.291433
116.2362	127.0839	182.6611	233.6201	262.5203	298.3873	312.9418	343.3079	446.9724	487.7138	543.7968	595.6526	628.2671	630.2224	661.0368	770.7822	813.4903	821.3	913.9336	949.0509	1004.8644	1026.2795	1058.9733	1079.168	1117.5089	1140.4942	1174.7817	1218.3492	1233.8183	1278.9627	1320.6097	1324.3357	1332.1509	1373.3597	1459.8195	1494.7028	2216.921	3071.4619	3082.1174	3123.9407	3140.0317	3197.124	3498.552	3772.9569	3792.3605
OC1C2CC(C#C)C12O	O[C@H]1[C@H]2C[C@@H](C#C)[C@@]12O	
InChI=1S/C7H8O2/c1-2-4-3-5-6(8)7(4,5)9/h1,4-6,8-9H,3H2	InChI=1S/C7H8O2/c1-2-4-3-5-6(8)7(4,5)9/h1,4-6,8-9H,3H2/t4-,5-,6+,7+/m1/s1
