15
gdb 22016	2.52679	1.61708	0.99202	0.4922	77.17	-0.2004	-0.0367	0.1638	1117.6293	0.11316	-450.070358	-450.062165	-450.06122	-450.10312	30.37	
C	 0.0961229853	 1.4553430487	 0.0167844859	-0.4676
C	 0.0298799939	-0.0380558849	 0.036715956	 0.321048
N	-0.068812344	-0.6652098043	-1.0964185975	-0.268766
N	-0.1271871972	-2.009753005	-1.0540128375	-0.108921
N	-0.0962704429	-2.7967596987	 0.021243275	-0.192319
C	 0.0019313989	-2.2039589981	 1.1716869247	-0.037343
C	 0.0760696482	-0.7589569821	 1.3058400161	 0.237724
N	 0.1751098521	-0.0791843131	 2.4030405551	-0.257333
O	 0.2056057015	-0.9366720596	 3.5186580157	-0.397983
H	 1.0183689505	 1.7995068278	 0.4967831264	 0.145991
H	 0.0509765469	 1.8209018026	-1.0097150936	 0.133567
H	-0.7278266167	 1.8783570043	 0.6012919388	 0.145948
H	-0.2029652394	-2.4729169726	-1.9431225239	 0.28942
H	 0.0271399939	-2.8396414602	 2.0457295689	 0.149031
H	 0.2791671389	-0.314461405	 4.2490274699	 0.307537
86.0655	166.7881	211.6503	214.9842	303.2021	324.5245	345.5598	400.842	493.8412	544.0692	556.4578	579.6292	626.1074	767.2394	791.0844	892.019	923.4737	968.4542	991.7767	1055.5755	1123.9939	1167.0782	1216.028	1334.9	1380.8073	1405.364	1431.6513	1461.7203	1464.6089	1478.1628	1615.8569	1638.5733	1675.8932	3042.2442	3095.3995	3150.8463	3237.0893	3677.6177	3830.5094
CC1=NNN=CC1=NO	Cc1n[nH]ncc1=NO	
InChI=1S/C4H6N4O/c1-3-4(7-9)2-5-8-6-3/h2,9H,1H3,(H,7,8)	InChI=1S/C4H6N4O/c1-3-4(7-9)2-5-8-6-3/h2,9H,1H3,(H,7,8)
