18
gdb 22707	2.41684	1.41487	1.06749	1.0332	76.74	-0.2383	0.0323	0.2706	1171.5435	0.146338	-438.973209	-438.964474	-438.96353	-439.006727	32.616	
C	-0.0702457795	 1.3748916115	-0.0363745959	-0.272522
O	 0.0523788714	-0.0429786669	-0.0491497409	-0.283951
C	 0.6615522687	-0.536626509	-1.16297235	 0.355917
C	 2.1590207326	-0.3715740525	-1.6522523641	-0.296733
C	 1.4880843626	-1.3278395723	-2.6947927265	-0.152558
C	 0.8210997265	-2.0542438517	-1.472289951	-0.281745
C	 0.2976517573	-0.3851597972	-2.6404119719	 0.433645
N	-0.5543963168	 0.2333084872	-3.3305279469	-0.337472
O	-0.3793574804	-0.0280537375	-4.717166136	-0.403677
H	 0.9152086735	 1.8597816766	-0.0174730068	 0.11492
H	-0.6281587637	 1.7300058893	-0.9106676874	 0.144704
H	-0.6120747529	 1.6335028426	 0.8749612046	 0.131805
H	 2.4718222076	 0.6098599091	-2.0117699308	 0.110789
H	 2.9068452998	-0.8395779504	-1.0069961781	 0.104458
H	 1.9454372724	-1.7797457598	-3.5668980951	 0.108604
H	 1.5125966457	-2.5909448833	-0.8178662902	 0.105051
H	-0.0935885053	-2.6167482124	-1.6645755971	 0.115904
H	-1.0939619295	 0.4889860168	-5.1036966461	 0.30286
80.4113	142.8944	147.293	183.0382	226.7492	300.981	332.5007	375.0421	449.2204	493.3043	574.0879	698.0253	724.8176	743.5288	796.2746	853.6377	933.8455	934.4771	958.4606	1011.4321	1027.2488	1030.8459	1068.0651	1101.7743	1128.3977	1153.7687	1184.0645	1192.0989	1195.2327	1225.3666	1236.457	1345.6119	1406.2261	1488.831	1489.1985	1491.0638	1507.91	1534.3742	1824.8677	3007.0687	3061.4776	3064.5293	3074.949	3134.7789	3140.1565	3142.7366	3198.205	3819.4973
COC12CC(C1)C2=NO	CO[C@@]12C[C@@H](C1)C2=NO	
InChI=1S/C6H9NO2/c1-9-6-2-4(3-6)5(6)7-8/h4,8H,2-3H2,1H3	InChI=1S/C6H9NO2/c1-9-6-2-4(3-6)5(6)7-8/h4,8H,2-3H2,1H3/t4-,6-
