25
gdb 120030	2.11774	1.08861	0.80437	1.3993	88.88	-0.2516	0.0639	0.3155	1560.2801	0.228163	-389.489947	-389.479394	-389.47845	-389.525425	39.812	
C	-0.0726842086	 1.5830551811	 0.1518932355	-0.381257
C	-0.021249862	 0.0550597562	 0.0758468396	-0.173234
C	 0.6748346206	-0.4604766635	-1.1926239511	-0.185454
C	 0.7303347738	-1.9881246624	-1.2688685337	-0.057259
C	 1.413389586	-2.5976940495	-2.5437114179	 0.027389
C	 1.4667075193	-1.80978603	-3.8450929115	-0.410878
C	 2.7206450989	-2.7793438607	-1.7245446848	-0.279353
C	 1.8768101985	-2.6573624899	-0.4343802907	 0.154528
O	 2.4231859536	-2.0170570772	 0.6952909976	-0.42738
H	 0.9344550689	 2.0158254077	 0.161522084	 0.107687
H	-0.602933726	 2.007017922	-0.7085855187	 0.111211
H	-0.5856064237	 1.9208873356	 1.057861189	 0.111898
H	 0.4903785906	-0.3496989371	 0.9554200154	 0.115579
H	-1.0424143371	-0.3475842471	 0.1051208124	 0.093212
H	 0.1440672083	-0.0747684653	-2.0729771151	 0.096256
H	 1.6855519018	-0.0290225153	-1.2540041187	 0.072796
H	-0.2702949501	-2.3820143166	-1.0597497797	 0.059402
H	 0.9706739416	-3.5804924707	-2.7405375039	 0.072192
H	 1.914568363	-0.8207750702	-3.7039065939	 0.113075
H	 2.0682661731	-2.339906975	-4.5919505422	 0.112774
H	 0.4668466674	-1.6656255785	-4.2697786678	 0.114138
H	 3.3142638599	-3.6849908813	-1.8718023649	 0.097461
H	 3.3810622801	-1.9108467228	-1.8418398644	 0.086901
H	 1.559023801	-3.6418776846	-0.0792143032	 0.089044
H	 2.824846281	-1.191905565	 0.4049057889	 0.279272
77.901	89.5763	128.3596	141.144	223.3296	235.0139	256.6507	275.2328	314.1382	343.9813	372.784	420.3796	483.404	553.3	627.1712	745.3893	771.4752	841.8443	871.5811	885.9861	907.6339	937.9749	957.2422	1007.7887	1034.2159	1050.746	1085.3881	1097.319	1113.8083	1154.0387	1166.2302	1173.9597	1221.6271	1249.3248	1257.0474	1270.6049	1300.386	1304.4234	1317.3209	1332.8715	1369.3051	1376.7687	1397.4393	1412.6209	1415.3177	1441.8387	1484.5682	1491.7114	1496.4296	1498.6744	1500.0105	1503.6213	1514.9239	2991.2281	3022.0274	3024.1123	3026.2194	3029.062	3031.5936	3035.6904	3045.6768	3070.0126	3071.967	3089.1272	3094.989	3098.3392	3100.4757	3103.4903	3816.3221
CCCC1C(C)CC1O	CCC[C@H]1[C@@H](C)C[C@H]1O	
InChI=1S/C8H16O/c1-3-4-7-6(2)5-8(7)9/h6-9H,3-5H2,1-2H3	InChI=1S/C8H16O/c1-3-4-7-6(2)5-8(7)9/h6-9H,3-5H2,1-2H3/t6-,7-,8+/m0/s1
