16
gdb 30082	2.95697	1.44924	1.14737	4.5628	71.82	-0.2162	0.0032	0.2194	1072.5989	0.125595	-434.091784	-434.083513	-434.082569	-434.125176	29.506	
C	 0.0087539446	 1.2350167198	 0.7928395583	-0.342098
N	 0.0471638391	-0.1386742727	 0.3335134213	-0.054603
C	 0.4296214808	-0.5923841384	-0.8977065356	 0.008707
N	 0.3771037777	-1.9004689643	-0.9928362817	-0.272409
C	-0.0555547609	-2.3396729229	 0.2362949972	-0.174485
C	-0.2537531734	-1.268663724	 1.0605051897	 0.370049
O	-0.7756798752	-1.2102939014	 2.3287863915	-0.24728
C	 0.0552707514	-0.9415540926	 3.3704833698	 0.09682
N	 1.2611720123	-0.6049452386	 3.2335754934	-0.435057
H	 0.1644596032	 1.8926670898	-0.0640587223	 0.142194
H	-0.9653966175	 1.4619585536	 1.2353074698	 0.143066
H	 0.7891806374	 1.4100416694	 1.5374318597	 0.161436
H	 0.7327431259	 0.0908783265	-1.6777856662	 0.126117
H	-0.2029457449	-3.3842432879	 0.4602502885	 0.115085
H	-0.5127608214	-1.0585134866	 4.296468095	 0.122122
H	 1.695892601	-0.4574286496	 4.1418654916	 0.240336
70.8202	122.8945	138.3701	187.4513	204.1096	287.2129	341.7384	469.3212	600.1792	640.3249	678.0196	723.8977	785.5109	802.4828	834.4702	846.3812	923.6501	1035.7897	1046.1731	1078.5369	1138.0884	1155.5331	1196.9017	1261.0717	1280.3753	1309.4992	1380.4998	1397.6504	1426.8625	1456.4588	1478.2119	1520.6429	1540.0795	1599.8931	1726.9327	3049.3307	3109.494	3118.5398	3143.0963	3242.2944	3258.9953	3521.95
CN1C=NC=C1OC=N	Cn1cncc1O[CH][NH]	
InChI=1S/C5H7N3O/c1-8-4-7-2-5(8)9-3-6/h2-4,6H,1H3	InChI=1S/C5H7N3O/c1-8-4-7-2-5(8)9-3-6/h2-4,6H,1H3
