17
gdb 71586	2.84452	1.78072	1.66444	0.6046	71.19	-0.2316	0.0068	0.2385	898.5618	0.138529	-417.958574	-417.951731	-417.950787	-417.989536	27.513	
C	 0.0029067146	 1.4772832148	-0.0486744021	-0.526835
C	-0.0037684451	-0.0206190448	-0.0128144895	 0.26363
N	 0.7122203572	-0.8939888914	-1.0236599411	-0.354002
C	 0.0612831809	-1.8684622807	-0.0724651225	-0.102529
C	 0.605158675	-0.9688134394	 1.0612305285	 0.129404
O	-0.0387527777	-1.0289908658	 2.3263252579	-0.242946
C	-1.3890728417	-1.0749122573	 2.2421978241	 0.122088
N	-2.0601244083	-1.0657181893	 1.1676474789	-0.29088
C	-1.2328363641	-1.0002695142	-0.0214010527	-0.013329
H	 1.0284318181	 1.8596250575	-0.0438727636	 0.134531
H	-0.5012554306	 1.8520947471	-0.9457838002	 0.126373
H	-0.52110765	 1.8805498219	 0.8237369429	 0.136796
H	 0.1773535906	-0.8865016634	-1.8985905105	 0.211741
H	 0.1519153271	-2.9485361266	-0.1779765848	 0.090712
H	 1.6804756032	-0.9362571259	 1.2230523648	 0.107485
H	-1.848808929	-1.1222314364	 3.2254336325	 0.133642
H	-1.8355892201	-0.9920345961	-0.9333630525	 0.074118
175.3964	191.6506	212.8374	352.792	407.4325	451.5674	567.5356	570.3958	594.6036	702.6704	776.0415	830.1812	835.829	887.9312	906.3108	950.8361	966.5529	1009.4477	1032.3176	1035.8072	1092.19	1110.7964	1138.5812	1145.3336	1178.2847	1197.0857	1224.2603	1274.9199	1284.3479	1318.9796	1323.2487	1385.3003	1402.8456	1423.6783	1483.0346	1487.5784	1704.0176	3034.3848	3078.4769	3103.1946	3111.6087	3128.6034	3151.0204	3185.5412	3381.539
CC12NC3C1OC=NC23	C[C@@]12N[C@H]3[C@@H]1O[CH][N][C@@H]23	
InChI=1S/C6H8N2O/c1-6-4-3(8-6)5(6)9-2-7-4/h2-5,8H,1H3	InChI=1S/C6H8N2O/c1-6-4-3(8-6)5(6)9-2-7-4/h2-5,8H,1H3/t3-,4-,5+,6+/m1/s1
