19
gdb 46687	2.73745	1.74978	1.36033	3.1186	77.89	-0.2249	-0.0083	0.2166	991.9427	0.162401	-385.892006	-385.884951	-385.884007	-385.923492	28.685	
O	 0.0503843462	-0.0681851774	 0.0597398033	-0.329062
C	-0.0400732586	 1.1375521494	 0.0053812843	 0.409114
C	-1.3818851344	 1.8578475849	-0.048726479	-0.32221
C	-1.4284432295	 3.0346844425	-1.0555441658	-0.238326
C	-0.092166217	 3.7053839131	-1.3417555482	-0.01412
C	 0.9474301852	 4.1994342394	-0.3613663221	-0.0687
C	 1.0608546947	 3.3378222145	 0.8963629221	-0.259953
C	 1.1656603705	 2.051736727	 0.0007631463	-0.118701
C	 1.2141482235	 2.9772423147	-1.2465185279	-0.09435
H	-2.1581556372	 1.1204697439	-0.2638057133	 0.119647
H	-1.5745977244	 2.2294646831	 0.965733876	 0.126979
H	-1.7984746443	 2.6471018796	-2.0127561972	 0.113477
H	-2.1650764427	 3.7769602608	-0.7261106543	 0.103972
H	-0.1378163419	 4.3600528396	-2.2100314096	 0.090478
H	 1.3531838366	 5.1998743407	-0.4584449814	 0.086365
H	 2.0082030465	 3.5064351858	 1.4131849842	 0.113774
H	 0.2542748765	 3.3912171946	 1.6334572094	 0.098633
H	 2.067973308	 1.46476524	 0.1675800938	 0.090553
H	 1.8969329623	 2.8483930336	-2.0769416804	 0.09243
103.8695	132.8934	301.3953	360.2009	431.99	458.7943	486.2797	590.2983	675.8676	699.2019	738.6172	793.6954	808.8667	867.5114	889.86	919.7068	953.442	974.3594	998.5732	1014.7935	1036.4455	1047.4254	1066.3584	1090.6625	1142.5743	1159.711	1199.5703	1219.8555	1244.0301	1254.5551	1260.8989	1284.643	1309.917	1326.7868	1346.4096	1378.6285	1445.2979	1469.7924	1493.995	1502.0305	1810.4558	3023.5448	3030.9747	3054.9659	3058.9881	3104.7111	3108.9037	3123.1773	3127.753	3172.251	3190.4099
O=C1CCC2C3CC1C23	O=C1CC[C@H]2[C@H]3C[C@@H]1[C@@H]23	
InChI=1S/C8H10O/c9-7-2-1-4-5-3-6(7)8(4)5/h4-6,8H,1-3H2	InChI=1S/C8H10O/c9-7-2-1-4-5-3-6(7)8(4)5/h4-6,8H,1-3H2/t4-,5+,6-,8-/m0/s1
