22
gdb 36968	6.76242	0.57178	0.56655	0.8431	84.54	-0.2332	0.0926	0.3258	2026.744	0.193152	-404.285087	-404.275444	-404.2745	-404.320998	35.03	
C	 0.8965106186	 1.3720026642	 0.7004677338	-0.054175
C	 1.1568076264	-0.122109834	 0.555661167	-0.159003
N	 0.5141558135	-0.84839985	 1.6426850126	-0.066044
C	-0.8496088703	-1.3098007925	 1.3954736154	-0.219797
C	 0.2867791189	-2.2707238857	 1.4212403745	-0.218277
O	 1.5487527941	 2.0291921632	-0.3716257152	-0.251717
C	 1.3735695349	 3.4099418975	-0.3597342305	 0.153587
C	 2.2817497583	 4.2631827302	 0.4900691753	-0.287054
C	 2.4393246425	 4.2216611471	-1.0184231603	-0.288122
H	-0.1871950351	 1.5728544124	 0.673846952	 0.086508
H	 1.2728287596	 1.7282574966	 1.670031771	 0.102532
H	 0.8143910155	-0.4529824006	-0.4409450347	 0.087818
H	 2.2362653315	-0.3033497155	 0.605694278	 0.110992
H	-1.5347316353	-1.239454734	 2.2353400269	 0.116669
H	-1.293175314	-1.0929413843	 0.4244759666	 0.110032
H	 0.5986203164	-2.6953421645	 0.4680899906	 0.110158
H	 0.4480599309	-2.9150634815	 2.280847025	 0.116828
H	 0.3361479508	 3.730037824	-0.4708549607	 0.080496
H	 1.8796268433	 5.1581404258	 0.9520656614	 0.11157
H	 3.0332146146	 3.7451034528	 1.0753529717	 0.119567
H	 3.2877750964	 3.6722933112	-1.4099416874	 0.124674
H	 2.1466474085	 5.0866342775	-1.6027278632	 0.11276
49.8296	54.326	100.6583	115.3686	150.3881	236.8798	299.1866	385.359	399.9193	447.8092	514.6757	753.8681	775.3258	815.9177	820.4813	831.077	856.7151	901.8521	967.6293	977.7515	1022.5673	1039.2225	1049.4025	1071.649	1088.429	1104.9969	1116.3905	1119.0568	1129.245	1142.7715	1176.6947	1193.4738	1199.1636	1207.265	1244.2001	1251.3982	1302.482	1326.1355	1340.9392	1390.6989	1442.6831	1453.5578	1488.5811	1499.2478	1500.1221	1522.6665	1527.8822	2948.5354	2971.618	3021.721	3066.7217	3085.1832	3091.8133	3096.4933	3135.1544	3141.6831	3175.5368	3189.8492	3219.5285	3234.2298
C(CN1CC1)OC1CC1	C(CN1CC1)OC1CC1	
InChI=1S/C7H13NO/c1-2-7(1)9-6-5-8-3-4-8/h7H,1-6H2	InChI=1S/C7H13NO/c1-2-7(1)9-6-5-8-3-4-8/h7H,1-6H2
