14
gdb 20962	7.71034	1.19325	1.04687	0.5886	59.43	-0.2652	-0.0184	0.2468	1081.3626	0.107674	-415.857234	-415.850054	-415.84911	-415.889381	25.099	
C	 0.024107953	 1.5059665806	-0.0659391435	-0.394064
C	 0.003189708	-0.0074806734	 0.0019751083	-0.049556
O	 0.6714549495	-0.5039140264	-1.1765818336	-0.248123
C	 0.7496938541	-1.8179540437	-1.2898112241	 0.467849
N	 0.2683287996	-2.6748022977	-0.4166600728	-0.23273
O	 0.6066219306	-3.9154634164	-0.9937277572	-0.164983
C	 1.2417425315	-3.6346633496	-2.129538113	 0.118475
N	 1.3716102547	-2.3736238717	-2.3849949255	-0.322993
H	 1.0512085393	 1.8797237941	-0.0904797719	 0.136177
H	-0.4956195391	 1.8621903092	-0.9593671243	 0.136167
H	-0.4751485802	 1.9208185732	 0.8145007165	 0.126764
H	 0.5239966731	-0.3871719298	 0.8880221877	 0.129323
H	-1.0177124762	-0.4048009271	 0.0212610007	 0.129336
H	 1.584058232	-4.4709577914	-2.7219042972	 0.16836
65.1624	116.37	163.7405	250.302	347.6921	354.1546	488.4679	614.5599	750.7342	778.0332	814.3423	910.6606	918.5095	932.933	975.4147	1029.4227	1080.4473	1135.7886	1158.4483	1182.7905	1295.19	1311.5401	1372.8924	1406.567	1431.021	1484.6954	1497.4667	1516.2316	1570.0783	1620.2578	3039.7457	3049.9451	3080.0354	3125.4168	3130.7914	3263.4665
CCOC1=NOC=N1	CCOc1nocn1	
InChI=1S/C4H6N2O2/c1-2-7-4-5-3-8-6-4/h3H,2H2,1H3	InChI=1S/C4H6N2O2/c1-2-7-4-5-3-8-6-4/h3H,2H2,1H3
