19
gdb 95003	2.96183	1.67941	1.36255	2.157	73.64	-0.2346	0.0671	0.3017	992.5204	0.160797	-422.961258	-422.954085	-422.95314	-422.992613	29.161	
C	-0.1648888413	 1.5815047163	 0.0032104495	-0.394755
C	-0.0048832329	 0.0554730337	-0.0454709241	-0.04308
C	 0.7803906366	-0.4216724051	-1.2765926035	-0.081577
O	 2.1892028879	-0.3057699977	-1.0919784175	-0.269526
C	 2.6055147341	-0.7566213556	 0.1623437168	 0.124215
C	 1.6918471104	-1.6802211387	 1.0347287616	-0.029685
O	 2.4440169503	-1.2203673276	 2.2126148228	-0.308154
C	 2.1723599844	 0.0091719431	 1.4451733907	 0.015203
C	 0.7166544825	-0.4748169325	 1.1983460818	-0.015781
H	 0.8088574727	 2.0778506703	-0.0634909824	 0.129113
H	-0.7789703091	 1.9380394707	-0.8299337493	 0.11512
H	-0.6432382225	 1.9026461902	 0.9341922975	 0.116979
H	-1.0015376122	-0.401433712	-0.0950679616	 0.078645
H	 0.5321679555	-1.4745410582	-1.4816249516	 0.094659
H	 0.5384136201	 0.1625231034	-2.1688025753	 0.10813
H	 3.6589570332	-1.0359100254	 0.1216518536	 0.097158
H	 1.4828615167	-2.7482288689	 0.9628178174	 0.091787
H	 2.5342283423	 0.9522110339	 1.8551152576	 0.091539
H	 0.1062165611	-0.5114000001	 2.103662036	 0.08001
137.5406	188.8127	229.1151	345.1691	354.2014	435.564	464.8957	526.2492	593.5334	713.5319	761.048	833.5094	867.3265	878.6773	890.3989	897.4764	941.3084	956.3442	1003.8382	1006.6059	1024.467	1077.0701	1110.9039	1137.7106	1152.113	1158.5761	1173.8863	1190.9654	1218.498	1248.4751	1263.3163	1281.3271	1318.5014	1341.4261	1359.5835	1389.4152	1405.1264	1422.6001	1495.776	1500.2593	1511.1598	2982.1458	3024.7766	3032.7095	3087.5786	3089.8362	3102.4714	3104.9454	3109.2236	3115.0525	3126.6022
CC1COC2C3OC2C13	C[C@H]1CO[C@@H]2[C@H]3O[C@@H]2[C@@H]13	
InChI=1S/C7H10O2/c1-3-2-8-7-5-4(3)6(7)9-5/h3-7H,2H2,1H3	InChI=1S/C7H10O2/c1-3-2-8-7-5-4(3)6(7)9-5/h3-7H,2H2,1H3/t3-,4-,5-,6+,7+/m0/s1
