16
gdb 124241	2.63592	1.53737	0.98282	3.3726	73.44	-0.2497	-0.041	0.2087	1154.6137	0.123918	-434.103556	-434.094769	-434.093825	-434.137848	30.764	
C	 0.0035774727	 1.5400201592	-0.0834838777	-0.475153
C	 0.0025785098	 0.0330070497	 0.0563823185	 0.311636
O	 0.0014798615	-0.5184314878	 1.1424391358	-0.325263
C	 0.0031948299	-0.7496156449	-1.1946273508	 0.137114
C	 0.0024864712	-2.128799703	-1.3560470748	 0.269056
C	 0.0017671095	-3.2616870294	-0.3871128592	-0.519612
N	 0.0031003837	-2.2732213389	-2.6974644421	-0.228782
N	 0.0039325056	-1.0785482497	-3.3463124195	-0.110561
N	 0.0042069232	-0.1638317301	-2.4349923772	-0.2552
H	 0.8791789015	 1.8682996073	-0.6521505888	 0.151804
H	-0.8717172639	 1.8693321556	-0.6520485794	 0.151804
H	 0.0038258045	 1.9903468277	 0.9093728579	 0.133463
H	-0.8787752226	-3.899181651	-0.5235272736	 0.142528
H	 0.8904719084	-3.8902138917	-0.5121388774	 0.14299
H	-0.0061605177	-2.8571175121	 0.624342077	 0.191398
H	 0.0027745827	-3.1240437111	-3.2389392686	 0.282778
64.7936	75.2001	119.6319	186.1864	190.3926	274.9428	295.8462	410.0878	489.7766	575.8208	610.0336	643.1657	693.7764	709.3788	757.0061	952.0618	992.8321	1022.7982	1045.7319	1046.1309	1070.9359	1116.4063	1235.4195	1294.6016	1319.5433	1382.5564	1387.6836	1410.8808	1454.4044	1461.7238	1467.1349	1500.4939	1503.284	1606.0733	1767.4041	3036.4654	3049.5157	3089.679	3112.4617	3159.9391	3166.3744	3645.2517
CC(=O)C1=C(C)NN=N1	CC(=O)c1c(C)[nH]nn1	
InChI=1S/C5H7N3O/c1-3-5(4(2)9)7-8-6-3/h1-2H3,(H,6,7,8)	InChI=1S/C5H7N3O/c1-3-5(4(2)9)7-8-6-3/h1-2H3,(H,6,7,8)
