21
gdb 85412	2.39139	1.37544	1.09859	2.4759	77.96	-0.2359	-0.016	0.2199	1191.7754	0.180581	-424.266264	-424.256694	-424.25575	-424.30013	36.828	
C	 0.200306381	 1.5379916077	 0.0306383207	-0.420705
C	 0.0202186083	 0.0084347236	-0.0044948122	 0.261495
C	-1.4717683236	-0.3386949954	 0.0200217213	-0.442172
C	 0.7640347161	-0.585540011	-1.2200184672	-0.353794
C	 2.2134444346	-0.7802495985	-0.7669500627	 0.401162
O	 3.1592453305	-0.9782516498	-1.4840924692	-0.312106
C	 2.2489722655	-0.6889966691	 0.7627648247	-0.375161
C	 0.7711348643	-0.6629164983	 1.1817269937	 0.110305
O	 0.4971846627	 0.0363241333	 2.3823595455	-0.437977
H	 1.2526413634	 1.8338028437	-0.0330922914	 0.112344
H	-0.3196233187	 1.9946349932	-0.8179466296	 0.111148
H	-0.206936533	 1.9562306657	 0.9532823854	 0.136513
H	-1.9995226168	 0.119579434	-0.8230233316	 0.112152
H	-1.6278799777	-1.4218214591	-0.0361692958	 0.105863
H	-1.9335061174	 0.0221840661	 0.944223161	 0.129176
H	 0.3707126024	-1.5801830204	-1.4739863384	 0.122871
H	 0.7080547386	 0.0201707293	-2.1282005696	 0.125617
H	 2.8368259258	-1.5055708773	 1.1908885564	 0.12051
H	 2.7381155213	 0.2505167993	 1.0467463676	 0.140057
H	 0.406204129	-1.700647042	 1.2599815758	 0.065736
H	 0.9056710536	-0.439970195	 3.1112975659	 0.286966
69.3627	133.4372	211.3576	234.6719	256.6298	271.4935	283.9781	326.0498	345.619	396.7434	464.4122	506.7992	532.5588	557.4109	572.813	729.3952	779.1491	819.4982	902.7944	950.0117	951.5243	967.3481	1012.1238	1048.1489	1080.9328	1108.3976	1138.6769	1191.5217	1197.0563	1218.3144	1232.57	1266.8667	1291.7062	1313.5747	1370.6828	1399.2331	1409.9968	1428.3266	1444.7654	1458.4839	1484.1501	1492.6695	1504.5715	1510.618	1847.8992	2956.6875	3019.6789	3028.0042	3038.5556	3048.7448	3092.8539	3097.8836	3100.49	3101.7912	3107.4074	3131.9055	3827.4189
CC1(C)CC(=O)CC1O	CC1(C)CC(=O)C[C@H]1O	
InChI=1S/C7H12O2/c1-7(2)4-5(8)3-6(7)9/h6,9H,3-4H2,1-2H3	InChI=1S/C7H12O2/c1-7(2)4-5(8)3-6(7)9/h6,9H,3-4H2,1-2H3/t6-/m1/s1
