15
gdb 25010	4.84599	1.29082	1.03241	1.485	71.16	-0.2271	-0.0432	0.1839	1071.3672	0.115531	-416.869509	-416.862763	-416.861819	-416.901089	25.804	
O	-0.0315915422	 0.0415377128	 0.0042329238	-0.281832
C	-0.0163685696	 1.2391975905	 0.0106694897	 0.397712
C	-1.2842745901	 2.12877857	 0.0326712231	-0.292176
N	-0.7286099573	 3.462459535	 0.0322605998	-0.02953
C	-1.187331223	 4.7442714906	 0.0444436367	-0.011231
N	-0.1917030285	 5.6050105729	 0.0353379404	-0.268531
C	 0.9627295159	 4.8521932957	 0.0163697843	-0.214207
C	 0.6540316174	 3.5177597984	 0.014100651	 0.311308
C	 1.2336851877	 2.1432079779	-0.000590702	-0.484961
H	-1.902224187	 1.922774386	-0.8478885065	 0.156938
H	-1.877990687	 1.9132378478	 0.927524855	 0.156932
H	-2.2385287044	 4.9895460093	 0.0596401728	 0.132277
H	 1.9356551214	 5.3189198091	 0.0057066529	 0.113108
H	 1.8567153604	 1.9033454735	 0.869080594	 0.157095
H	 1.8343728463	 1.9126193505	-0.888276635	 0.157099
68.2349	190.2487	233.6012	349.613	473.1482	521.3562	528.6725	633.909	673.7927	739.4876	765.4323	798.9247	810.979	827.181	847.5949	952.7974	1020.5444	1084.1019	1132.3698	1149.7826	1200.7921	1204.8483	1227.4715	1249.9253	1255.8966	1310.9997	1392.1124	1410.2828	1453.2923	1477.6807	1511.3619	1600.5115	1870.5353	3039.2496	3045.5929	3068.2919	3086.1587	3251.1979	3254.4113
O=C1CN2C=NC=C2C1	O=C1Cn2cncc2C1	
InChI=1S/C6H6N2O/c9-6-1-5-2-7-4-8(5)3-6/h2,4H,1,3H2	InChI=1S/C6H6N2O/c9-6-1-5-2-7-4-8(5)3-6/h2,4H,1,3H2
