14
gdb 10671	2.88583	2.12786	1.34986	3.2291	64.92	-0.2525	0.0072	0.2598	880.0094	0.106504	-378.696133	-378.688167	-378.687223	-378.728265	29.593	
N	 0.1834510291	 0.9635104441	-0.7683136152	-0.55994
C	-0.0295574232	 0.0202351379	 0.1766418147	 0.386551
O	 0.7243818508	-0.1924939121	 1.1114914065	-0.382578
C	-1.2968417229	-0.8073444423	 0.0106653891	 0.018432
C	-1.1023731869	-2.2773131764	 0.2781908952	-0.247163
N	-1.774374087	-1.4439842579	 1.259961297	-0.334062
C	-2.2904342976	-0.3572238199	-0.9265635119	 0.229232
C	-3.0835897929	 0.0394067247	-1.7398024154	-0.376129
H	 0.9906467394	 1.5579219271	-0.680709448	 0.267019
H	-0.503930428	 1.1494785064	-1.4790971907	 0.271343
H	-1.7379233165	-2.9788473989	-0.253026727	 0.133309
H	-0.0826878205	-2.5955857466	 0.4734342887	 0.140069
H	-1.0907587032	-1.1837726421	 1.9738556816	 0.255098
H	-3.8076289206	 0.3758880961	-2.4403976143	 0.198818
77.1844	156.1599	212.5073	277.0595	285.6721	297.191	420.6591	512.5263	522.2482	549.8653	603.9152	611.7736	668.6961	673.4734	771.4191	865.7918	891.6708	960.2326	1010.653	1093.5257	1119.129	1134.0617	1237.2792	1317.2602	1361.1124	1383.7589	1488.1614	1610.6325	1784.7515	2232.7183	3118.569	3218.1359	3450.4115	3498.8016	3598.4432	3734.225
NC(=O)C1(CN1)C#C	NC(=O)[C@]1(CN1)C#C	
InChI=1S/C5H6N2O/c1-2-5(3-7-5)4(6)8/h1,7H,3H2,(H2,6,8)	InChI=1S/C5H6N2O/c1-2-5(3-7-5)4(6)8/h1,7H,3H2,(H2,6,8)/t5-/m1/s1
