22
gdb 64373	2.04983	1.81624	1.34685	2.7459	80.8	-0.2332	0.0623	0.2955	1084.4995	0.19478	-404.342299	-404.333141	-404.332197	-404.375751	35.885	
C	 0.4799195598	 1.4657843467	-0.3043626349	-0.43326
C	-0.0221863204	 0.0583748133	 0.0400857944	 0.295005
O	-1.415943971	 0.0986294847	 0.334386655	-0.488256
C	 0.3405752568	-0.9733607092	-1.0497242561	-0.254651
C	 1.8157884826	-1.3355844191	-0.7742431855	-0.218323
C	 2.0160577713	-1.1271497935	 0.7573175494	-0.290187
C	 0.7092274592	-0.5196323557	 1.2607683761	 0.364871
C	 0.490929452	 0.0144348438	 2.6211899821	-0.309418
N	-0.056009776	-1.3038291834	 2.24161867	-0.370314
H	 1.5601185611	 1.4785843256	-0.4770430761	 0.124619
H	-0.0014411498	 1.8346114692	-1.2190153377	 0.102264
H	 0.2556152297	 2.1603078661	 0.5095020443	 0.124759
H	-1.8658945647	 0.546691285	-0.3882122636	 0.279783
H	-0.3049270051	-1.8456746737	-0.9026035561	 0.110458
H	 0.1722512247	-0.5993128641	-2.0650869033	 0.082022
H	 2.0454736947	-2.3575729513	-1.0848148767	 0.103964
H	 2.4830276846	-0.6799830497	-1.3421672577	 0.099434
H	 2.201408621	-2.0648823227	 1.2855062993	 0.118533
H	 2.8672678421	-0.4678944829	 0.9558810974	 0.098073
H	 1.294511504	-0.0116597859	 3.3531896502	 0.108503
H	-0.2060498931	 0.8409958618	 2.7379059661	 0.109327
H	-1.0477661034	-1.1941937448	 2.0382080933	 0.242796
62.387	157.743	202.6232	223.3012	240.7128	272.9687	323.8245	351.2699	400.7308	435.7123	525.1157	548.192	591.4394	674.4951	776.4878	826.3248	853.9832	896.5333	922.0934	934.5097	953.6527	962.8826	994.8395	1010.3554	1026.9548	1086.9131	1106.8198	1119.8216	1138.6435	1199.0978	1201.073	1229.7527	1257.0779	1289.0556	1292.5386	1303.9521	1320.7119	1333.4453	1369.5057	1405.5173	1418.0074	1483.1419	1483.2976	1493.7091	1500.5805	1506.6007	1512.7895	3024.5466	3041.2785	3045.4652	3058.0475	3082.9504	3094.2807	3095.5354	3098.0601	3112.6435	3121.896	3182.1072	3493.8272	3826.5658
CC1(O)CCCC11CN1	C[C@@]1(O)CCC[C@]21CN2	
InChI=1S/C7H13NO/c1-6(9)3-2-4-7(6)5-8-7/h8-9H,2-5H2,1H3	InChI=1S/C7H13NO/c1-6(9)3-2-4-7(6)5-8-7/h8-9H,2-5H2,1H3/t6-,7-/m1/s1
