18
gdb 32372	4.47879	0.88577	0.77815	1.5843	92.66	-0.1978	0.0019	0.1997	1481.8882	0.14754	-364.830123	-364.821077	-364.820133	-364.864447	33.797	
C	 0.0360849885	 1.5697944169	-0.1281229399	-0.361881
C	-0.0056807851	 0.0556857432	 0.1394925806	-0.30231
C	-1.3897563019	-0.524696014	 0.0681391372	 0.303664
C	-2.1481838924	-0.9750031439	 1.1323115225	-0.185712
N	-3.3546972795	-1.4047109818	 0.6572148945	-0.318526
C	-3.4011447229	-1.2449947992	-0.7138488742	 0.197205
C	-2.1857494512	-0.6972704302	-1.0954187841	-0.359448
C	-4.5316596551	-1.6140365722	-1.4673985723	 0.267555
C	-5.5075079242	-1.9345039673	-2.0991913536	-0.458426
H	 1.0616737315	 1.9499263503	-0.0777532571	 0.107412
H	-0.3629565174	 1.8048950018	-1.1198958831	 0.119524
H	-0.5666750272	 2.1124058994	 0.6068911751	 0.116608
H	 0.6451915593	-0.4522989533	-0.5834384051	 0.104766
H	 0.4206073322	-0.1495157417	 1.1284042852	 0.09655
H	-1.9150947798	-1.0221063351	 2.1846593902	 0.119208
H	-4.1028341915	-1.7924200227	 1.2050463358	 0.266111
H	-1.9106770263	-0.4556106857	-2.1107353616	 0.099334
H	-6.3607958272	-2.2130351446	-2.6657053799	 0.188366
39.0411	104.9107	137.7754	190.5191	218.3915	327.5838	385.686	443.2249	486.5196	515.3774	530.1949	548.4541	655.2058	674.5577	678.7963	698.0279	751.6053	786.7655	833.0752	948.4661	992.174	1009.5777	1063.8621	1087.5098	1138.1006	1170.5612	1244.959	1292.882	1318.2158	1363.5544	1407.2874	1422.7274	1440.9088	1483.6721	1495.9341	1503.6171	1516.2041	1613.121	2223.7304	3021.9769	3033.6877	3057.3186	3104.2396	3109.3193	3250.6489	3254.9917	3504.2049	3683.2184
CCC1=CNC(=C1)C#C	CCc1c[nH]c(c1)C#C	
InChI=1S/C8H9N/c1-3-7-5-8(4-2)9-6-7/h2,5-6,9H,3H2,1H3	InChI=1S/C8H9N/c1-3-7-5-8(4-2)9-6-7/h2,5-6,9H,3H2,1H3
