20
gdb 7981	3.36485	1.56944	1.14918	2.7732	75.02	-0.2335	-0.0117	0.2218	1086.7571	0.176666	-349.054775	-349.046294	-349.04535	-349.087607	31.956	
C	-0.1564515864	 1.5604281288	 0.0386053014	-0.404553
C	 0.0402292367	 0.0472245455	-0.0118367053	 0.029223
C	 1.0040376202	-0.4328514186	-1.1215110463	-0.227981
C	 1.3623346603	-1.8755326154	-0.7312818346	-0.076634
C	 2.6470147774	-2.4641230975	-1.3084899087	-0.406555
C	 1.3455276969	-1.8482490951	 0.8063796961	 0.398745
O	 1.8206990996	-2.692052261	 1.5230407551	-0.323437
C	 0.6438056485	-0.5667317365	 1.2644802515	-0.3264
H	 0.7959341583	 2.0717688043	 0.2216650347	 0.114126
H	-0.5617726984	 1.9384563795	-0.906120299	 0.114426
H	-0.8481388008	 1.8485649903	 0.8370956819	 0.116131
H	-0.9356503456	-0.426095369	-0.1890881521	 0.077243
H	 0.5673871179	-0.3510093174	-2.1211140122	 0.099352
H	 1.9115333094	 0.1874779594	-1.1126881239	 0.096644
H	 0.5177546867	-2.5278217722	-1.0069356284	 0.101907
H	 3.5011588566	-1.8083923114	-1.1073760913	 0.1163
H	 2.8550682138	-3.4336528492	-0.8483123626	 0.138201
H	 2.5729185343	-2.5984594999	-2.3916865915	 0.11217
H	 1.4172839968	 0.0939971739	 1.6822516374	 0.126373
H	-0.0678738523	-0.7671139485	 2.0695556179	 0.12472
76.1745	125.6635	200.1477	229.28	246.034	276.2852	357.8684	415.6691	472.9767	501.5249	561.5989	609.1659	723.0558	845.4404	871.7358	893.5356	917.424	949.4328	1003.1791	1007.2591	1057.3868	1082.0823	1147.1799	1161.7944	1167.6966	1192.9643	1235.6011	1263.5394	1285.2163	1311.2862	1346.6041	1352.3439	1380.4318	1406.7173	1412.7695	1447.601	1493.3979	1495.5857	1498.1275	1498.8372	1501.3677	1840.5618	2981.6749	3002.1828	3014.9991	3021.6749	3026.8603	3037.5459	3083.9566	3092.5006	3097.8697	3099.9509	3103.6976	3122.149
CC1CC(C)C(=O)C1	C[C@H]1C[C@@H](C)C(=O)C1	
InChI=1S/C7H12O/c1-5-3-6(2)7(8)4-5/h5-6H,3-4H2,1-2H3	InChI=1S/C7H12O/c1-5-3-6(2)7(8)4-5/h5-6H,3-4H2,1-2H3/t5-,6+/m0/s1
