16
gdb 69040	3.01622	1.38506	1.13683	1.1534	72.71	-0.2501	-0.0609	0.1891	1073.0277	0.122265	-437.87531	-437.866839	-437.865895	-437.908422	31.079	
C	-0.0439562912	 1.4573187822	 0.2684102782	-0.51621
C	 0.0848981249	-0.0147174369	 0.0470028485	 0.159961
N	-0.7668838578	-1.0028822772	 0.7238826882	-0.379101
C	 0.6755464516	-1.1470637031	 0.9426591584	 0.180518
C	 1.2230183677	-1.9143635235	-0.2619689403	-0.420515
C	 0.7173895306	-0.732013965	-1.1366724673	 0.415068
O	 0.9504400784	-0.3787891517	-2.2540274006	-0.294953
C	 1.2785989772	-0.8409485421	 2.2425356165	 0.059949
O	 0.6774984914	-0.2708591947	 3.1295795658	-0.285537
H	 0.7809539648	 1.9941849933	-0.2076686204	 0.145834
H	-0.9801986658	 1.8274110803	-0.1627897454	 0.149857
H	-0.0458688251	 1.6824304801	 1.3395237531	 0.154696
H	-1.1439707594	-0.5392618967	 1.5552532021	 0.257033
H	 2.3131877433	-1.987012424	-0.3096486	 0.138823
H	 0.7687420684	-2.8913506897	-0.4356716961	 0.142557
H	 2.3407943311	-1.1401831411	 2.3572532894	 0.092019
84.1668	131.4674	189.2026	210.7966	229.121	266.0102	363.2535	399.0238	484.5941	524.3319	572.3495	664.9356	672.6405	735.9336	766.2119	851.718	956.2042	1001.7036	1027.0729	1059.516	1085.9546	1093.8682	1102.1099	1164.4406	1207.0665	1314.1279	1371.4243	1378.6048	1417.117	1431.1122	1450.5712	1481.7817	1493.351	1767.4391	1890.878	2921.3337	3037.8508	3071.7707	3105.1128	3122.4316	3134.798	3434.8449
CC12NC1(CC2=O)C=O	C[C@]12N[C@]1(CC2=O)C=O	
InChI=1S/C6H7NO2/c1-5-4(9)2-6(5,3-8)7-5/h3,7H,2H2,1H3	InChI=1S/C6H7NO2/c1-5-4(9)2-6(5,3-8)7-5/h3,7H,2H2,1H3/t5-,6-/m1/s1
