18
gdb 41670	2.80678	2.06563	1.6223	0.963	74.57	-0.2273	-0.0071	0.2202	878.8634	0.151211	-401.91804	-401.911595	-401.910651	-401.948518	27.038	
C	-0.0720406312	 1.4222677482	-0.0779057752	-0.051741
C	 1.2776627434	 2.1377597419	-0.032041157	-0.181821
N	 2.1413811381	 1.5971003255	-1.0907039121	-0.104893
C	 3.2573382515	 0.6613770561	-0.7887970727	-0.068823
C	 3.3651730081	 0.0901051088	 0.5877479651	-0.088202
C	 2.2664542379	-0.595336684	 0.9056698125	-0.09937
C	 1.2480444869	-0.5926079603	-0.228133477	 0.072237
O	 0.0218310025	 0.0275771243	 0.1894145091	-0.282998
C	 1.9684943478	 0.1679895221	-1.3502377193	-0.09758
H	-0.7540632472	 1.8344638697	 0.6725016745	 0.107068
H	-0.5205090136	 1.5838316255	-1.0708798622	 0.097438
H	 1.1314223727	 3.2061833886	-0.2242477884	 0.105935
H	 1.7149681855	 2.0318277914	 0.9673440317	 0.108472
H	 4.1439631843	 0.8257930613	-1.391818071	 0.095653
H	 4.2138712054	 0.2722357316	 1.23683453	 0.102884
H	 2.0362329011	-1.0394625779	 1.8672000516	 0.106311
H	 0.9708727457	-1.6075199286	-0.5328277161	 0.087012
H	 1.8289861611	-0.1302152643	-2.3845457134	 0.09242
174.0738	218.6906	339.9828	385.3641	471.8769	510.4579	591.9467	610.8703	723.6873	752.654	779.7035	825.0079	839.627	850.6535	924.7768	935.026	954.8277	974.5788	999.0886	1025.9726	1049.1751	1073.8947	1105.7173	1117.7511	1123.4801	1129.6625	1246.3538	1268.8407	1288.1672	1300.0657	1307.5517	1345.6257	1362.7831	1368.6143	1391.8786	1410.67	1490.842	1507.2495	1668.0754	2980.9736	3031.1923	3046.5021	3070.4239	3076.4631	3150.9938	3168.0228	3189.7102	3214.4883
C1CN2C3C=CC(O1)C23	C1CN2[C@H]3C=C[C@@H](O1)[C@@H]23	
InChI=1S/C7H9NO/c1-2-6-7-5(1)8(7)3-4-9-6/h1-2,5-7H,3-4H2	InChI=1S/C7H9NO/c1-2-6-7-5(1)8(7)3-4-9-6/h1-2,5-7H,3-4H2/t5-,6+,7-,8?/m0/s1
