19
gdb 98224	3.21808	1.08206	0.82213	2.2758	74.11	-0.2633	-0.0064	0.2569	1387.9197	0.158069	-456.427598	-456.417464	-456.41652	-456.463268	36.147	
C	 0.5154739851	 1.4593553495	-0.2996602543	-0.380286
C	 0.0298008345	 0.0677160737	 0.1002521991	-0.302513
C	 0.9566671497	-0.5975150552	 1.1122621782	 0.454428
O	 1.9549834455	-0.0079251247	 1.5049433845	-0.383503
N	 0.5987438548	-1.8679109728	 1.5372304954	-0.201677
C	-0.6139153014	-2.5113969353	 1.0215678899	-0.355178
C	 1.345798743	-2.6594316205	 2.4894282109	 0.486112
N	 2.4640374262	-2.0875612354	 2.976119586	-0.556666
O	 0.9525314463	-3.766563984	 2.8023230351	-0.399129
H	 1.5111042462	 1.4135834616	-0.7465443785	 0.134687
H	-0.172577257	 1.9035222239	-1.0242979023	 0.110199
H	 0.5788656178	 2.1172421083	 0.5699584435	 0.134709
H	-0.9807666464	 0.1175849557	 0.5234187739	 0.130297
H	-0.057251842	-0.5795512533	-0.7807948995	 0.130266
H	-0.5633690221	-2.643164418	-0.0626616235	 0.130718
H	-0.6787696448	-3.4865717405	 1.4976359732	 0.183925
H	-1.507080104	-1.9308346976	 1.2678043158	 0.130705
H	 2.7326887977	-1.160233495	 2.6715513217	 0.290346
H	 2.9886255608	-2.6311038605	 3.6386147909	 0.26256
55.1153	68.5015	92.6895	171.9076	204.2442	210.9679	251.9523	351.6368	362.0561	377.9833	422.5671	452.8934	561.4813	578.1226	664.6933	699.2367	746.7862	783.8542	823.3983	879.5578	1010.2024	1082.6745	1097.2783	1123.6697	1139.6501	1155.5842	1225.7487	1291.8597	1306.9033	1350.1041	1396.1292	1415.3668	1452.6552	1455.6233	1490.5727	1498.1975	1504.6632	1516.3943	1574.2847	1744.9841	1813.2865	3034.0636	3049.0442	3054.8413	3065.7773	3107.4835	3126.4775	3135.6729	3183.6005	3502.8842	3718.8047
CCC(=O)N(C)C(N)=O	CCC(=O)N(C)C(=O)N	
InChI=1S/C5H10N2O2/c1-3-4(8)7(2)5(6)9/h3H2,1-2H3,(H2,6,9)	InChI=1S/C5H10N2O2/c1-3-4(8)7(2)5(6)9/h3H2,1-2H3,(H2,6,9)
