12
gdb 20626	3.5219	1.91991	1.2522	4.1637	60.07	-0.2841	-0.0973	0.1868	885.1792	0.082387	-414.647139	-414.639993	-414.639048	-414.679071	24.45	
C	-0.0039989388	 1.5124252605	 0.1031345302	-0.49622
C	 0.0291203544	 0.0299750215	-0.0291707522	 0.197135
C	-0.0018408011	-0.7978544276	-1.1183187212	 0.239115
O	 0.0531455015	-2.0660973852	-0.6845507201	-0.192235
N	 0.1198304186	-2.0082012098	 0.7162524136	 0.01595
N	 0.1048905191	-0.7975479095	 1.0730771183	-0.165047
C	-0.0794335957	-0.5192119715	-2.5587802739	 0.081342
O	-0.0987462973	-1.3637177185	-3.4188440856	-0.244627
H	 0.8946079326	 1.871383253	 0.6143163233	 0.162703
H	-0.0648678607	 2.0009263478	-0.8711134696	 0.14184
H	-0.866131269	 1.8243078129	 0.700719965	 0.162707
H	-0.1198232336	 0.5640096264	-2.7938558479	 0.097337
90.8493	128.4599	176.1256	227.9996	313.7138	314.653	524.8032	646.9425	676.7101	710.8393	722.4225	826.6186	993.8104	1014.8261	1029.512	1064.7474	1175.252	1237.9442	1383.7494	1415.3692	1427.1977	1449.764	1473.294	1484.3923	1634.0669	1800.9528	2922.7795	3049.0996	3108.4176	3138.4006
CC1=C(ON=N1)C=O	Cc1c(onn1)C=O	
InChI=1S/C4H4N2O2/c1-3-4(2-7)8-6-5-3/h2H,1H3	InChI=1S/C4H4N2O2/c1-3-4(2-7)8-6-5-3/h2H,1H3
