16
gdb 30763	3.0863	0.91597	0.70897	3.071	73.39	-0.2227	-0.0758	0.1469	1541.8581	0.119958	-475.032634	-475.021839	-475.020895	-475.069974	36.56	
N	 0.1405989405	 1.9333925294	-1.1982771366	-0.714945
H	 0.679216535	 1.3914225399	-1.8684074247	 0.238917
H	 0.0500173672	 2.8642444485	-1.5960501058	 0.238918
H	-0.7942734633	 1.5325494895	-1.1904497694	 0.254255
C	-0.6988106046	 0.9957207099	 1.917033732	-0.401896
C	-1.9074049559	 0.5357607064	 1.6134512428	 0.309176
C	-2.9299057188	-0.0688691375	 2.5127600866	 0.199113
O	-2.8904505937	-0.2761138563	 3.7146068027	-0.37211
C	-4.0452896037	-0.3792053529	 1.6212603924	 0.207907
O	-5.1836801676	-0.9476451981	 2.0611893868	-0.433495
C	-3.6883046959	 0.0044399913	 0.3818462061	-0.078824
O	-2.4230101923	 0.5557289289	 0.3249989736	-0.24118
H	-0.3825796207	 0.9379251149	 2.951784115	 0.14919
H	-0.0424186673	 1.4172096707	 1.1612852548	 0.181485
H	-5.0575201089	-1.0715111025	 3.0151742591	 0.309642
H	-4.2082717301	-0.041712352	-0.5623499356	 0.15385
31.1923	62.1864	102.0753	113.4573	121.6289	173.3121	245.7179	275.2561	307.5997	311.5884	366.9	480.497	519.551	558.5355	592.5368	730.376	757.5601	793.1669	819.9812	855.0314	911.6138	996.5927	1037.6624	1101.4031	1138.38	1210.5268	1237.5103	1349.5309	1420.0177	1439.3323	1675.2514	1688.8471	1706.4992	1736.6981	1779.7257	3142.0075	3256.2344	3262.0767	3464.1724	3583.5949	3586.0887	3713.389
[NH3+]CC1=C([O-])C(O)=CO1	N.C=C1C(=O)C(=CO1)O	
InChI=1S/C5H7NO3/c6-1-4-5(8)3(7)2-9-4/h2,7-8H,1,6H2	InChI=1S/C5H4O3.H3N/c1-3-5(7)4(6)2-8-3;/h2,6H,1H2;1H3
