23
gdb 85046	2.33199	1.39916	1.02328	2.845	85.02	-0.2319	-0.0104	0.2215	1273.434	0.204856	-388.340162	-388.330358	-388.329414	-388.374378	37.476	
C	-0.8553113233	 1.2305656289	 0.0342198369	-0.417317
C	 0.0939885498	 0.0348837487	-0.0111251309	 0.030277
C	 1.1665123305	 0.1066031037	-1.1140494421	-0.334631
C	 2.302502863	-0.7943367648	-0.6229081998	 0.4012
O	 3.3029680029	-1.0733880697	-1.2339862836	-0.325252
C	 1.9575266374	-1.2762161898	 0.7931486525	-0.08106
C	 3.1823564939	-1.5733214924	 1.6525207896	-0.418045
C	 0.9083980255	-0.249915924	 1.2889337188	-0.02377
C	 1.5366637523	 1.0033359921	 1.9128936578	-0.400512
H	-0.3139727453	 2.1742564757	 0.1569587327	 0.118764
H	-1.4326264859	 1.3024688219	-0.8934768966	 0.115581
H	-1.5681780701	 1.1422865473	 0.8616130856	 0.113206
H	-0.5097569009	-0.8642384452	-0.1969223926	 0.074955
H	 0.822806786	-0.198950485	-2.1062128096	 0.124629
H	 1.5669207616	 1.1232768776	-1.2221518575	 0.128143
H	 1.4154485039	-2.2220255059	 0.6252027174	 0.099981
H	 3.7680401749	-0.6702969944	 1.8459993992	 0.122863
H	 2.8985579972	-2.0093294129	 2.6152813675	 0.10944
H	 3.8352950381	-2.2772103382	 1.1301134646	 0.136103
H	 0.2528819768	-0.7079854501	 2.0383440541	 0.068521
H	 2.2165505209	 1.5162098143	 1.2225594413	 0.117414
H	 0.7676101625	 1.7201771427	 2.2132057887	 0.118253
H	 2.1119536984	 0.7489335694	 2.8074877258	 0.121255
71.1224	122.9805	188.646	214.247	231.3825	242.3176	255.2575	299.4683	315.928	433.2143	458.9238	487.7295	526.6914	589.4657	668.8317	713.4663	775.0119	845.1937	878.5969	929.9342	972.2123	1008.7409	1021.8039	1026.781	1057.6935	1068.8484	1108.9006	1155.5795	1172.9783	1197.0188	1205.3006	1246.327	1271.9021	1301.2091	1326.9344	1352.198	1380.0558	1382.7567	1408.4793	1412.474	1416.9948	1452.0456	1490.088	1491.7061	1495.6275	1498.695	1502.7435	1515.5021	1839.2269	2971.3669	3001.1419	3028.4285	3031.8773	3036.5468	3039.1002	3044.5064	3093.5784	3094.7233	3099.5387	3101.6783	3111.6093	3114.9794	3123.0506
CC1CC(=O)C(C)C1C	C[C@H]1CC(=O)[C@@H](C)[C@H]1C	
InChI=1S/C8H14O/c1-5-4-8(9)7(3)6(5)2/h5-7H,4H2,1-3H3	InChI=1S/C8H14O/c1-5-4-8(9)7(3)6(5)2/h5-7H,4H2,1-3H3/t5-,6-,7-/m0/s1
