18
gdb 126013	2.96187	1.74432	1.14722	3.3804	78.34	-0.1973	0.0411	0.2384	1054.0108	0.1517	-398.152604	-398.145173	-398.144229	-398.184462	28.956	
C	-0.228410676	 1.5221744006	 0.0589586225	-0.40278
C	 0.0571589729	 0.0272127625	 0.0356548356	 0.042499
C	 0.9009742874	-0.4659953594	-1.1741105827	-0.187762
N	 1.6899652229	-1.6035262742	-0.6396069119	-0.416201
C	 1.809136412	-1.3635327112	 0.7314048227	 0.433562
C	 2.4329661241	-1.8228913428	 1.8746433626	-0.388762
C	 1.7976469666	-1.0769980655	 2.9043327942	 0.01947
N	 0.8635933431	-0.2401139317	 2.4538454125	-0.312672
N	 0.9258158799	-0.4175128511	 1.1131821005	 0.043516
H	 0.7011506036	 2.0960263338	-0.0012401141	 0.125508
H	-0.8698134148	 1.8006672198	-0.7828062489	 0.119517
H	-0.7383067978	 1.7917892388	 0.9869204247	 0.150555
H	-0.8900294895	-0.5289242552	 0.0826930022	 0.101052
H	 0.2759138439	-0.7846171675	-2.0112836697	 0.119998
H	 1.5521607311	 0.3519980712	-1.5151017739	 0.106888
H	 2.5593618038	-1.7719979038	-1.1273500285	 0.24467
H	 3.2066435522	-2.5658397497	 1.9676442024	 0.096065
H	 1.9988224747	-1.1243356745	 3.9654749697	 0.104878
112.0027	152.9431	210.4153	263.1998	305.7079	436.3247	499.8595	563.6672	645.3669	652.3665	698.0839	717.1707	746.6037	798.5379	879.489	908.959	948.0643	957.1244	1016.4059	1050.1936	1070.9289	1107.6162	1142.7695	1151.5674	1222.3989	1236.3409	1301.569	1325.2678	1335.198	1350.7322	1383.9375	1400.7494	1411.36	1458.939	1487.1031	1499.312	1511.4797	1535.5467	1613.1858	2994.401	3004.1737	3044.0467	3098.9225	3117.3062	3130.8208	3234.6846	3277.1596	3578.4416
CC1CNC2=CC=NN12	C[C@H]1CNc2ccnn12	
InChI=1S/C6H9N3/c1-5-4-7-6-2-3-8-9(5)6/h2-3,5,7H,4H2,1H3	InChI=1S/C6H9N3/c1-5-4-7-6-2-3-8-9(5)6/h2-3,5,7H,4H2,1H3/t5-/m0/s1
