19
gdb 81797	2.08271	1.78869	1.28424	1.0233	75.48	-0.2455	0.0713	0.3168	1070.4641	0.157626	-422.972611	-422.963974	-422.963029	-423.005402	33.534	
C	-0.1500021355	 1.528685712	 0.0004208406	-0.414103
C	 0.0257844701	 0.0149197203	-0.0094438499	-0.081337
C	 1.1541498661	-0.5185023173	-0.9154834837	-0.115813
C	 1.2551530006	-2.0171962388	-0.7752155939	-0.36585
C	 1.8703026016	-1.1442972886	 0.2862346113	 0.314898
O	 3.2205677469	-1.1562077433	 0.583013054	-0.459481
C	 0.8066790072	-0.5768522137	 1.1914453671	 0.387924
C	 0.9881614563	-0.0271674267	 2.5315427433	-0.270121
O	 0.2559991324	-1.2464677621	 2.3171738956	-0.290433
H	 0.8042921553	 2.0359014816	 0.1776780751	 0.120576
H	-0.5451616295	 1.8802462249	-0.9586471257	 0.117321
H	-0.8501811663	 1.840297178	 0.7822223627	 0.120169
H	-0.9368792608	-0.4816279832	-0.1774129705	 0.081477
H	 1.5867649916	 0.0165166406	-1.7511686283	 0.097598
H	 0.3715723903	-2.6185380911	-0.5734182222	 0.11727
H	 1.9864061882	-2.4856092769	-1.4272834075	 0.114557
H	 3.4619472513	-2.0472548898	 0.8577821042	 0.292416
H	 1.9510176759	-0.1417173841	 3.0271517626	 0.11905
H	 0.3928742485	 0.8239624082	 2.8588402051	 0.113884
96.0087	203.892	218.8295	235.0914	249.1628	262.8265	273.9147	404.4994	458.1998	477.9066	514.3641	585.8169	674.3078	795.2619	826.9251	840.1125	879.7264	924.1934	940.2875	979.6681	1001.3928	1020.8172	1048.179	1083.0503	1101.8134	1115.3714	1126.1235	1159.8892	1165.9337	1237.115	1244.6177	1269.1704	1302.7516	1366.1378	1391.8665	1409.759	1445.4515	1491.9037	1496.6252	1500.7574	1537.0046	3030.2336	3038.2375	3084.2455	3098.1685	3103.3152	3106.0954	3171.235	3195.4553	3203.7425	3802.4162
CC1C2CC2(O)C11CO1	C[C@H]1[C@@H]2C[C@]2(O)[C@]21CO2	
InChI=1S/C7H10O2/c1-4-5-2-6(5,8)7(4)3-9-7/h4-5,8H,2-3H2,1H3	InChI=1S/C7H10O2/c1-4-5-2-6(5,8)7(4)3-9-7/h4-5,8H,2-3H2,1H3/t4-,5-,6+,7+/m0/s1
