14
gdb 35207	3.85545	1.15307	1.08044	3.749	66.55	-0.2774	-0.0089	0.2685	1100.3263	0.09974	-436.621359	-436.614005	-436.613061	-436.653582	27.441	
N	-0.1128527822	-1.1330449742	-0.0331546503	-0.324493
C	-0.0511116823	 0.0209455572	-0.0163573303	 0.315841
C	 0.0233398855	 1.4645987928	-0.023089722	-0.219076
O	 0.618454615	 2.0768962987	 1.1370447658	-0.262507
C	 1.3295372476	 2.1423752724	-0.0783252715	 0.451864
C	 2.7708587133	 1.6073365105	-0.2316378613	-0.349766
C	 3.102066372	 2.9479876507	-0.9156496068	 0.036742
O	 2.2278837771	 3.0709987256	-2.0412619446	-0.230566
C	 1.7230238602	 3.4488925489	-0.7549278536	-0.093927
H	-0.8601129325	 1.9673346289	-0.410419382	 0.14696
H	 3.2394392148	 1.4858908942	 0.7480998588	 0.138206
H	 2.9181908113	 0.7122040073	-0.8381812321	 0.140545
H	 4.0402028983	 3.4875624511	-0.9436830222	 0.123779
H	 1.3164184618	 4.4442387759	-0.6240008779	 0.126399
89.8516	120.4344	190.544	298.198	366.1936	396.3431	480.1969	525.4002	576.5009	629.4907	790.2125	844.666	859.7951	864.2772	905.9873	955.7542	962.6705	1010.2325	1021.6663	1046.2754	1068.924	1146.6281	1159.555	1211.4994	1227.3408	1263.8415	1325.4056	1372.8318	1454.4029	1485.4929	2361.9585	3077.3848	3140.3359	3142.8925	3196.5067	3211.3012
N#CC1OC11CC2OC12	N#C[C@H]1O[C@]21C[C@H]1O[C@@H]21	
InChI=1S/C6H5NO2/c7-2-4-6(9-4)1-3-5(6)8-3/h3-5H,1H2	InChI=1S/C6H5NO2/c7-2-4-6(9-4)1-3-5(6)8-3/h3-5H,1H2/t3-,4-,5-,6+/m1/s1
