15
gdb 14137	4.37822	1.68271	1.46604	2.9387	61.54	-0.236	0.0238	0.2597	860.6149	0.119202	-399.786126	-399.779075	-399.778131	-399.817521	26.44	
O	 0.0153752518	 1.4155549034	 0.0404523827	-0.417
C	 0.0291738717	 0.0209265259	 0.0083543143	 0.025781
C	-0.4947029237	-0.7784632618	 1.1936096063	-0.393802
C	-1.3052314078	-0.6402925616	-0.0605600949	 0.396671
C	-2.6335316103	 0.1105684356	-0.1934746496	-0.252986
N	-3.4036831004	-0.6922994663	-1.1612752773	-0.2618
C	-2.6620030425	-1.6714908882	-1.4652265005	 0.108006
O	-1.429046449	-1.7897794987	-0.9051597406	-0.250277
H	 0.700955342	 1.7110848553	 0.6486967857	 0.293722
H	 0.8320258808	-0.4346134545	-0.5709253767	 0.102485
H	-0.0273648563	-1.7353351382	 1.3994325725	 0.128094
H	-0.8415248692	-0.2276337299	 2.0628119843	 0.1227
H	-3.1814608965	 0.1773448465	 0.7529166245	 0.117978
H	-2.4899661067	 1.1290979671	-0.5658083862	 0.140431
H	-2.914408694	-2.4683404247	-2.1555162046	 0.139997
79.8636	182.4592	223.6515	281.1845	374.6804	443.56	473.529	530.2849	563.2961	794.4036	830.2319	865.3014	911.9838	925.9237	957.2732	978.048	997.7372	1026.8744	1076.4776	1083.6046	1136.2042	1166.918	1208.5026	1211.5806	1281.2841	1295.3703	1338.7984	1350.893	1417.6947	1491.5035	1502.9496	1709.6041	3042.3003	3085.371	3108.9603	3125.9931	3220.2705	3222.4573	3806.442
OC1CC11CN=CO1	O[C@H]1C[C@]21CN=CO2	
InChI=1S/C5H7NO2/c7-4-1-5(4)2-6-3-8-5/h3-4,7H,1-2H2	InChI=1S/C5H7NO2/c7-4-1-5(4)2-6-3-8-5/h3-4,7H,1-2H2/t4-,5+/m0/s1
