17
gdb 17501	3.06942	2.39654	1.64192	3.4458	67.85	-0.2135	0.0644	0.2779	831.214	0.140298	-363.770328	-363.762758	-363.761814	-363.801565	29.445	
C	-0.0409385137	 1.5692175896	 0.1608908409	-0.513261
C	 0.0868018446	 0.0821248597	 0.0573924406	 0.26454
N	-0.8618325474	-0.8654341413	 0.6871527169	-0.351473
C	 0.5886936377	-0.9362955221	 1.00810884	-0.163673
C	 1.3006095003	-1.690601365	-0.1661437857	-0.061574
O	 0.32681154	-2.042702579	-1.1522775657	-0.259575
C	 0.8125952186	-0.6989804056	-1.1270683685	 0.40227
C	 1.3742928051	-0.1035749878	-2.375851604	-0.509175
H	 0.8954030203	 2.070731	-0.1076061409	 0.125443
H	-0.8250666047	 1.9515322481	-0.5034699381	 0.131683
H	-0.2942386399	 1.8678642204	 1.184060138	 0.120036
H	-1.2983561865	-0.359837914	 1.4602237571	 0.223461
H	 0.9614135674	-0.824962324	 2.0181497953	 0.09398
H	 2.2166739389	-2.268104781	-0.1221735547	 0.103531
H	 0.5729027737	 0.1895324512	-3.063735723	 0.133578
H	 1.9706212389	 0.7877758248	-2.1552931348	 0.123357
H	 2.0109589469	-0.831470054	-2.8857801333	 0.13685
159.3211	193.5266	208.7155	229.1598	295.5448	364.7463	443.0141	461.2171	559.4959	601.957	697.6147	768.4981	800.5529	835.0879	851.6189	885.1396	928.4939	987.6993	993.9462	1010.0566	1047.9179	1099.3728	1109.0966	1115.5489	1170.1873	1230.3864	1277.3541	1319.0703	1402.2526	1404.684	1432.4743	1461.3328	1480.3781	1487.3852	1495.3273	1499.6003	3021.0899	3033.0047	3082.1974	3091.9771	3095.1505	3120.0453	3182.9515	3200.2626	3449.0789
CC12NC1C1OC21C	C[C@]12N[C@H]1[C@H]1O[C@@]21C	
InChI=1S/C6H9NO/c1-5-3(7-5)4-6(5,2)8-4/h3-4,7H,1-2H3	InChI=1S/C6H9NO/c1-5-3(7-5)4-6(5,2)8-4/h3-4,7H,1-2H3/t3-,4+,5-,6+/m0/s1
