13
gdb 23860	3.87022	1.31542	1.205	3.9291	47.59	-0.2634	-0.0283	0.2351	986.1864	0.089305	-530.132772	-530.124436	-530.123491	-530.167412	28.236	
C	-0.0597412369	 1.531879353	 0.011126657	-0.474809
C	 0.1084556906	 0.0250103819	 0.0012496189	 0.38344
O	 1.1886063418	-0.5096584173	-0.0122203244	-0.269939
C	-1.1989743928	-0.77264228	 0.0093640651	-0.458185
C	-1.0201108845	-2.2796397181	-0.000524463	 0.307663
F	-0.3534691947	-2.7118843072	 1.0739205449	-0.073213
F	-2.2259777075	-2.8802807351	 0.0077606039	-0.087526
F	-0.3741953425	-2.7001484631	-1.0921420812	-0.073202
H	 0.920129064	 2.0098750607	 0.0044686449	 0.152332
H	-0.6360372305	 1.8585865059	-0.8618887174	 0.143841
H	-0.6194107404	 1.8489457517	 0.8983918196	 0.143826
H	-1.7861875501	-0.5031182073	 0.8938313269	 0.15288
H	-1.8028522864	-0.493585515	-0.8608150852	 0.152891
20.1342	94.7182	108.7619	153.7498	311.59	326.7375	340.0789	466.3408	523.7029	541.7776	561.8945	688.1659	838.8239	840.51	866.5083	963.0987	1024.455	1141.1092	1156.2162	1204.3809	1283.8119	1312.3275	1377.6396	1389.6029	1443.8343	1463.9145	1475.7548	1830.3154	3036.4827	3059.2043	3094.7408	3102.9258	3157.1846
CC(=O)CC(F)(F)F	CC(=O)CC(F)(F)F	
InChI=1S/C4H5F3O/c1-3(8)2-4(5,6)7/h2H2,1H3	InChI=1S/C4H5F3O/c1-3(8)2-4(5,6)7/h2H2,1H3
