15
gdb 27383	1.93598	1.83253	0.94315	6.0679	72.57	-0.2062	0.0065	0.2127	1156.2788	0.114393	-454.008022	-454.000066	-453.999122	-454.04014	31.031	
N	 0.1368705454	 1.3807724878	 0.1422605364	-0.589967
C	-0.0063914383	-0.0033156208	 0.031707364	 0.433754
C	-1.1772979552	-0.6864044166	 0.016752654	-0.34965
C	-1.2238376935	-2.149204126	-0.0068542621	 0.418973
O	-2.2742596899	-2.7852443368	-0.0178148858	-0.41727
C	 0.0937516542	-2.7914606058	-0.0406273829	-0.440644
C	 1.2263167638	-2.0543024611	-0.0275276255	 0.508059
O	 2.5016637617	-2.5100068233	-0.0302325537	-0.428459
N	 1.1949935038	-0.6830431176	-0.0095492477	-0.417183
H	 0.7809408009	 1.7810478799	-0.5303496316	 0.251635
H	-0.7514188082	 1.8611851283	 0.1002578462	 0.262395
H	-2.119886879	-0.1527530542	 0.0049547906	 0.093349
H	 0.1357079665	-3.8736230136	-0.0804202224	 0.094146
H	 2.4815538418	-3.4727942683	-0.0104158741	 0.314807
H	 2.0511438061	-0.197506682	 0.2089806145	 0.266055
167.921	182.7822	216.172	288.7454	318.5486	358.8622	371.9892	448.0516	506.6306	514.04	568.8415	609.9384	622.6473	664.6996	714.6544	748.2314	820.206	852.1764	941.4811	1014.5913	1041.1946	1140.7688	1202.0401	1206.4107	1259.4516	1270.9091	1356.9968	1465.1877	1557.1247	1636.7677	1660.4453	1714.6349	1727.8428	3198.99	3205.0661	3530.2924	3636.6031	3638.3677	3832.6205
NC1=CC(=O)C=C(O)N1	Nc1cc(=O)cc(O)[nH]1	
InChI=1S/C5H6N2O2/c6-4-1-3(8)2-5(9)7-4/h1-2H,(H4,6,7,8,9)	InChI=1S/C5H6N2O2/c6-4-1-3(8)2-5(9)7-4/h1-2H,(H4,6,7,8,9)
