20
gdb 38228	3.04263	2.04507	1.69403	1.5917	83.37	-0.2149	0.0342	0.249	883.9766	0.173789	-365.874244	-365.867926	-365.866982	-365.904236	28.522	
C	 0.0322033806	 1.7632948309	-0.0716660596	-0.20832
C	 1.5067995113	 1.5086651068	 0.1315169639	-0.057885
C	 1.030789048	 0.3166141735	 1.0975421879	-0.339923
C	-0.0477016278	 0.1834982749	-0.0617809748	 0.278896
C	-1.3472536463	-0.2129232322	-0.7507822501	-0.348951
C	-0.9217511922	 0.3718826978	-2.1837203067	-0.15661
N	 0.5946985703	 0.3116899806	-2.3141437324	-0.185394
C	 1.7718924578	 0.8103741857	-1.2382700991	-0.028743
C	 0.9600449046	-0.37298005	-1.1201685881	-0.011246
H	-0.4845450944	 2.1331491607	 0.8184602634	 0.08779
H	-0.261759806	 2.3425525531	-0.9436568184	 0.104161
H	 2.2085419843	 2.2760440899	 0.460927073	 0.066536
H	 1.7014725406	-0.5338070217	 1.2459253606	 0.101268
H	 0.6747147809	 0.6930805043	 2.0592999925	 0.103121
H	-1.53208485	-1.2897932898	-0.8177070568	 0.10009
H	-2.242974119	 0.2757994832	-0.3588605504	 0.100229
H	-1.2727273359	-0.2922762732	-2.980490502	 0.111574
H	-1.3398807581	 1.3616880313	-2.3771706421	 0.113192
H	 2.7024654899	 0.8730883575	-1.7879062658	 0.100607
H	 1.2453054513	-1.4257474732	-1.0714666049	 0.06961
268.1314	311.0502	368.6198	432.884	465.2443	521.7323	571.7521	648.6938	683.1349	731.059	778.4515	805.5776	814.4647	833.2003	861.8197	866.6108	875.3023	945.4412	949.9704	982.4481	1001.3037	1027.4564	1045.1787	1075.7338	1094.9087	1119.7481	1144.4107	1163.0074	1186.0114	1191.8702	1212.5151	1217.9337	1234.3831	1244.3778	1259.1472	1267.1251	1289.1391	1309.6756	1394.087	1484.6026	1491.0806	1500.3368	1527.9978	3045.1903	3054.5792	3056.187	3063.4224	3074.6864	3095.9528	3106.377	3112.5088	3122.7981	3153.0299	3202.3784
C1C2CC11CCN3C2C13	C1[C@H]2C[C@]31CCN1[C@@H]2[C@@H]31	
InChI=1S/C8H11N/c1-2-9-6-5-3-8(1,4-5)7(6)9/h5-7H,1-4H2	InChI=1S/C8H11N/c1-2-9-6-5-3-8(1,4-5)7(6)9/h5-7H,1-4H2/t5-,6-,7-,8+,9?/m0/s1
