19
gdb 59317	2.74666	1.17226	1.01782	2.2297	73.56	-0.2359	0.023	0.2589	1234.2815	0.157651	-456.326677	-456.316687	-456.315743	-456.361708	36.4	
C	 0.63086416	 0.5940165143	-0.354689595	-0.425645
C	-0.146376462	-0.0017218407	 0.8142153718	 0.13081
O	-0.738639222	 1.0247724322	 1.6165321181	-0.438673
C	-1.2323175027	-1.0168379104	 0.4356817809	-0.004992
N	-2.1109723116	-0.6347385276	-0.6913833897	-0.347035
C	-1.8305383454	-1.7568591222	-1.4555517446	 0.357806
N	-2.1422873566	-2.2246809222	-2.5892105832	-0.562884
C	-0.8751814508	-2.2996382292	-0.3936520255	 0.02175
O	 0.4673122093	-2.4850923468	-0.7654047385	-0.423459
H	 1.350201433	 1.3259928792	 0.0223120539	 0.119188
H	 1.1617628047	-0.1861263349	-0.9020347285	 0.142238
H	-0.0478509712	 1.0972376496	-1.0528393076	 0.10776
H	 0.5476537362	-0.5208027008	 1.4862573006	 0.101385
H	-1.1350267947	 1.6647668356	 1.0156508344	 0.275583
H	-1.7871299498	-1.2555376664	 1.349687652	 0.088861
H	-2.964307415	-0.0960504022	-0.6690973675	 0.241742
H	-2.8041320003	-1.6280907588	-3.0882293113	 0.211204
H	-1.2763940189	-3.2039552292	 0.0836030292	 0.101013
H	 0.4595019778	-2.8022611895	-1.6763947194	 0.303349
60.4103	70.3547	163.7847	188.5504	238.6095	250.5638	272.0028	278.1441	308.4152	345.6058	407.5829	449.3735	548.2323	615.5994	677.7011	786.0953	807.4979	839.9375	904.0872	932.5698	952.6224	997.1547	1054.2963	1073.7791	1110.1714	1131.6796	1158.8228	1196.8889	1236.9566	1289.2852	1311.6113	1343.4154	1357.0801	1363.9236	1388.3649	1394.0554	1402.7411	1425.0162	1487.9192	1507.0576	1797.1963	3012.6551	3037.8996	3044.1981	3052.4276	3110.0111	3149.6016	3462.7148	3604.0767	3796.6352	3805.6326
CC(O)C1NC(=N)C1O	C[C@@H](O)[C@H]1N[C]([NH])[C@H]1O	
InChI=1S/C5H10N2O2/c1-2(8)3-4(9)5(6)7-3/h2-4,8-9H,1H3,(H2,6,7)	InChI=1S/C5H10N2O2/c1-2(8)3-4(9)5(6)7-3/h2-4,8-9H,1H3,(H2,6,7)/t2-,3-,4+/m1/s1
