16
gdb 53462	5.01855	0.48266	0.46571	4.2635	85.92	-0.2551	0.017	0.2721	2301.9751	0.121489	-363.570829	-363.560271	-363.559327	-363.610987	34.391	
C	 0.0470827347	 1.4827022519	 0.3230849915	-0.496076
C	 0.0163477925	 0.0547447008	 0.0419513646	 0.069334
C	-0.0095123788	-1.1252199577	-0.1886580489	 0.080682
C	-0.0335504409	-2.5616886018	-0.4708546154	-0.496274
C	-1.3668355127	-3.1587318616	-0.3585116328	 0.1173
C	-2.4568854591	-3.6545231907	-0.2650832265	 0.074497
C	-3.7874475823	-4.246716389	-0.1536644091	-0.471358
C	-3.8211475568	-5.4313991429	 0.7150075135	 0.279152
N	-3.8612653271	-6.3642555359	 1.3940263455	-0.300697
H	 0.7217023827	 1.7096398326	 1.1557281362	 0.150977
H	 0.3896320854	 2.0527066237	-0.547380909	 0.149945
H	-0.9479708129	 1.8535402934	 0.5920044554	 0.151654
H	 0.361038581	-2.7488868841	-1.4792513202	 0.160743
H	 0.6483129053	-3.0861147601	 0.2130545498	 0.165582
H	-4.5013665974	-3.51279212	 0.2420837346	 0.183372
H	-4.1654824038	-4.5379754986	-1.1421813393	 0.181167
7.206	14.8513	56.738	89.8744	182.5666	197.3404	228.1204	300.2479	363.7787	372.5606	384.9195	394.711	483.5953	577.6763	768.412	799.4044	926.7908	930.1128	937.7338	1052.9676	1054.2721	1140.6393	1177.0295	1230.0233	1235.0798	1335.0328	1342.2487	1415.0677	1448.2724	1453.0069	1477.7	1478.485	2370.9815	2381.936	2390.4117	3006.7078	3025.1465	3028.9072	3030.5501	3055.122	3090.5086	3090.9712
CC#CCC#CCC#N	CC#CCC#CCC#N	
InChI=1S/C8H7N/c1-2-3-4-5-6-7-8-9/h4,7H2,1H3	InChI=1S/C8H7N/c1-2-3-4-5-6-7-8-9/h4,7H2,1H3
