16
gdb 57241	2.78191	1.24488	1.05858	6.1207	76.	-0.2832	-0.0786	0.2046	1163.2256	0.120289	-400.741511	-400.731558	-400.730613	-400.776525	35.289	
C	-0.0238317735	 1.5363395333	-0.018636831	-0.419935
C	-0.0049104974	-0.0125353549	-0.0073482684	-0.058723
C	 0.7523017952	-0.5390032262	 1.2371245864	-0.41999
C	-1.3859409712	-0.5141901289	 0.0171345836	 0.289559
N	-2.4795315956	-0.8771889375	 0.0932637878	-0.33144
C	 0.6873629214	-0.5297134005	-1.2909735452	 0.257075
O	 0.1346239132	-1.2276697174	-2.1055668075	-0.273345
C	 2.0702427036	-0.1156379071	-1.4594083451	 0.258829
C	 3.2166258829	 0.2139156298	-1.6218163058	-0.393568
H	 0.9987522795	 1.9195281138	-0.051430001	 0.139939
H	-0.5720607988	 1.9169368013	-0.8838607749	 0.149285
H	-0.5089894493	 1.9062063644	 0.8878868566	 0.145167
H	 0.2683508143	-0.1729963785	 2.1458552365	 0.145166
H	 0.7551684731	-1.6314068881	 1.2631598322	 0.149253
H	 1.7850553588	-0.1830065391	 1.2210432502	 0.139934
H	 4.2298095641	 0.4963717255	-1.7797785744	 0.222794
35.8727	126.8949	175.3341	178.8556	192.7214	230.7811	253.5206	295.6596	308.9277	329.2978	439.8583	486.4775	572.3335	604.6691	661.527	690.7273	712.9998	757.9707	827.1844	955.1098	960.6045	1035.2681	1062.8475	1139.3885	1214.7689	1275.0417	1395.0451	1418.7633	1480.7338	1485.252	1498.0275	1507.9724	1778.9901	2210.3954	2366.1045	3051.4705	3053.4394	3131.9715	3133.5338	3136.0182	3138.6395	3489.7348
CC(C)(C#N)C(=O)C#C	CC(C)(C#N)C(=O)C#C	
InChI=1S/C7H7NO/c1-4-6(9)7(2,3)5-8/h1H,2-3H3	InChI=1S/C7H7NO/c1-4-6(9)7(2,3)5-8/h1H,2-3H3
