20
gdb 46032	3.53827	1.04998	0.93541	3.1807	80.2	-0.2521	0.0324	0.2846	1314.7485	0.172597	-403.15962	-403.151301	-403.150356	-403.193298	31.669	
N	-0.5233263872	 0.8405904844	 0.8108410106	-0.544948
C	-0.2195370445	-0.2191554898	 0.1958844875	 0.417057
C	-1.0479513939	-0.901781102	-0.8713104127	-0.313176
C	-0.4759729113	-2.3324458218	-0.9059823454	-0.045526
C	 0.9825356859	-2.0628052714	-0.4884535833	-0.095111
O	 0.928757561	-0.9357623943	 0.402522941	-0.240497
C	-1.1837302457	-3.2648833098	 0.0570247491	 0.041979
C	-2.4102302078	-4.0227306611	-0.3794618379	-0.27844
C	-1.113833554	-4.7583625662	-0.1356094449	-0.279911
H	 0.217046421	 1.0957665895	 1.467182106	 0.219493
H	-2.112194817	-0.8513335864	-0.6399422031	 0.1378
H	-0.887897574	-0.3869358069	-1.825496518	 0.125923
H	-0.5138609116	-2.7610155955	-1.9122703354	 0.074398
H	 1.4400835355	-2.8955643063	 0.0507314474	 0.120922
H	 1.6140137257	-1.8064383689	-1.3486430308	 0.105698
H	-1.1821461518	-2.918724795	 1.0881999453	 0.097707
H	-3.2196323269	-4.1519584898	 0.3300778528	 0.117514
H	-2.7378855799	-3.9072979195	-1.4078901746	 0.112495
H	-0.5784425895	-5.1350550697	-1.001678728	 0.110423
H	-1.0356074939	-5.3912389895	 0.7412270743	 0.1162
67.3675	72.5479	138.9881	206.6253	294.2959	322.56	417.4443	481.9396	524.2845	678.655	734.3564	762.094	813.3205	830.8394	861.2841	892.9277	902.745	921.4809	942.5899	982.1925	993.7231	1018.6685	1057.0973	1078.0496	1081.4599	1108.8954	1138.7016	1145.4969	1196.4565	1205.0449	1226.2231	1241.4878	1262.7942	1281.7421	1311.7544	1325.0775	1403.4685	1430.5805	1469.3656	1469.9288	1506.6169	1521.4906	1778.0641	3022.3466	3047.9349	3063.0413	3103.1712	3128.1042	3131.4755	3132.615	3135.2337	3206.9843	3221.9094	3467.83
N=C1CC(CO1)C1CC1	[NH][C]1C[C@@H](CO1)C1CC1	
InChI=1S/C7H11NO/c8-7-3-6(4-9-7)5-1-2-5/h5-6,8H,1-4H2	InChI=1S/C7H11NO/c8-7-3-6(4-9-7)5-1-2-5/h5-6,8H,1-4H2/t6-/m0/s1
