17
gdb 83414	2.82857	1.36464	1.12906	12.7522	69.59	-0.1769	-0.0013	0.1756	1100.6868	0.137948	-455.075486	-455.067298	-455.066354	-455.108607	30.74	
N	 0.064108526	 1.3597683505	 0.2740607018	-0.551094
C	-0.0392062267	-0.0736111437	 0.1106330809	-0.081145
C	-0.6173732584	-0.8558697502	 1.2487222944	-0.096066
N	-1.6327822261	 0.0529988997	 1.9034172362	-0.271656
H	-2.0811627108	-0.305478844	 2.7426659307	 0.30304
H	-1.2285219202	 0.9884046641	 2.0425837231	 0.292823
C	-2.4789727622	-0.0012278481	 0.6147904831	-0.246785
C	-1.3640851927	-0.754092867	-0.0881174175	 0.210175
C	-1.6192642022	-1.9003109038	-1.1073340686	 0.292178
O	-2.830817297	-2.0645718353	-1.3289880959	-0.482614
O	-0.5821361221	-2.4624597851	-1.4869002115	-0.481581
H	 1.0176701066	 1.6237223066	 0.5037501208	 0.248395
H	-0.1687697604	 1.8307779302	-0.5951029403	 0.258752
H	 0.7305437273	-0.6301291211	-0.4228224805	 0.144131
H	-0.192650051	-1.6740284449	 1.8142064222	 0.14179
H	-3.34204218	-0.6483703467	 0.7606264341	 0.179717
H	-2.7696548301	 0.9978163489	 0.284989397	 0.139941
66.6162	131.2285	160.8806	228.4351	267.1379	328.8221	377.4619	479.8471	487.9463	617.2225	718.1902	736.7993	770.9466	796.4967	827.8994	849.212	884.3717	924.6838	941.0088	970.2235	1016.2224	1054.6839	1106.6904	1145.1832	1195.2876	1208.1426	1222.4902	1266.1249	1296.6883	1309.2779	1326.5293	1330.7377	1444.5579	1488.0726	1556.5323	1655.7613	1796.1221	3091.1775	3134.5926	3180.8698	3214.6335	3343.7001	3496.6207	3538.2698	3567.9728
NC1C2[NH2+]CC12C([O-])=O	N[C@H]1[C@H]2[NH2]C[C@@]12C(=O)[O]	
InChI=1S/C5H8N2O2/c6-2-3-5(2,1-7-3)4(8)9/h2-3,7H,1,6H2,(H,8,9)	InChI=1S/C5H8N2O2/c6-2-3-5(2,1-7-3)4(8)9/h2-3H,1,6-7H2/t2-,3+,5+/m0/s1
