19
gdb 75614	1.84509	1.7716	1.16806	1.7803	71.43	-0.2437	-0.0269	0.2169	1125.7654	0.155405	-460.170359	-460.160253	-460.159309	-460.204762	37.175	
C	-0.8393214312	 1.1807947625	-0.0961053409	-0.418929
C	 0.0216086168	-0.0702203754	-0.0532250424	-0.121014
C	 1.3976087733	-0.0570776808	-0.7152883155	 0.323324
O	 1.9399502948	 0.6638330755	-1.5108105147	-0.320305
C	 1.994419284	-0.9844987302	 0.3351158845	 0.003505
O	 3.3164623628	-0.7552365921	 0.7206064769	-0.436905
C	 0.7767183837	-0.5306740781	 1.2448981278	 0.316569
C	 1.1527565869	 0.5846175602	 2.2095953315	-0.444054
O	 0.0704220122	-1.5754120326	 1.8789106857	-0.479116
H	-0.2835982605	 2.0629616485	 0.2330836733	 0.126412
H	-1.1814055091	 1.3702023851	-1.117708863	 0.134338
H	-1.7213713182	 1.069745603	 0.5415341621	 0.129572
H	-0.539591912	-0.9444243898	-0.405330078	 0.118761
H	 1.8336297975	-2.0426696683	 0.0862387278	 0.109017
H	 3.6599892268	-0.0617511619	 0.141941065	 0.2978
H	 1.6502091716	 1.4138522496	 1.6977882585	 0.126483
H	 0.2632011132	 0.9696571459	 2.7152679846	 0.127625
H	 1.8547187346	 0.2089552492	 2.9615409376	 0.124936
H	 0.5715129526	-1.8503300902	 2.6550277492	 0.28198
82.2896	158.3769	169.9094	190.0119	216.5014	225.6838	239.3572	273.0147	295.8509	336.0362	387.3996	424.4368	512.0742	540.7615	638.3403	671.2896	759.2986	819.7431	851.3967	951.1801	963.4731	1003.4464	1044.868	1072.0251	1114.1601	1154.3494	1167.0525	1184.7415	1222.2493	1270.9529	1322.5705	1349.172	1378.4133	1401.5764	1409.4014	1417.5864	1484.8262	1485.0298	1497.6838	1498.2675	1864.3651	3017.64	3038.5861	3044.6495	3046.0417	3105.106	3113.8321	3119.9191	3122.4269	3759.8735	3797.5109
CC1C(=O)C(O)C1(C)O	C[C@H]1C(=O)[C@@H](O)[C@]1(C)O	
InChI=1S/C6H10O3/c1-3-4(7)5(8)6(3,2)9/h3,5,8-9H,1-2H3	InChI=1S/C6H10O3/c1-3-4(7)5(8)6(3,2)9/h3,5,8-9H,1-2H3/t3-,5+,6+/m0/s1
