25
gdb 111785	2.35283	1.324	1.08651	0.0844	92.28	-0.2792	0.0878	0.3671	1303.3309	0.231002	-352.356665	-352.3476	-352.346656	-352.390145	36.127	
C	 0.4566311802	 1.0179580514	 0.721875906	-0.377784
C	 0.2397911377	-0.5003384047	 0.7278629768	-0.226083
C	-1.202051088	-0.8832835313	 0.4117627647	 0.063785
C	-1.8093620619	-0.7464482841	-1.0244723323	-0.038248
C	-0.8655501163	-1.6197482563	-1.8765404161	-0.220162
C	-0.7463134034	-2.8584331487	-0.9223379255	-0.218047
C	-1.6518074589	-2.3673779323	 0.2260284211	-0.05568
C	-2.8704983164	-1.8070768243	-0.5800337718	 0.059677
C	-4.0992267224	-1.3332659172	 0.1873812046	-0.439509
H	 1.4893955905	 1.2755374443	 0.9768249652	 0.109131
H	 0.2404659321	 1.4448341112	-0.2635397184	 0.11701
H	-0.199118337	 1.5146061366	 1.4459180639	 0.111942
H	 0.93672821	-0.9661934754	 0.0233603505	 0.095798
H	 0.4994767308	-0.9009261092	 1.7172757089	 0.091334
H	-1.8513598567	-0.3862033452	 1.1371883543	 0.063167
H	-2.1067958267	 0.2199495257	-1.4362323827	 0.049093
H	-1.3100279229	-1.8762320767	-2.8426088818	 0.091423
H	 0.0978394593	-1.141718398	-2.0745988912	 0.093497
H	-1.1288924454	-3.7764260091	-1.3779430333	 0.090929
H	 0.2812503478	-3.0522416871	-0.6031855425	 0.093564
H	-1.7862435364	-3.0355061977	 1.0794131901	 0.047618
H	-3.2027002313	-2.4658158127	-1.3923826388	 0.053482
H	-3.8645496633	-0.6647223318	 1.0199032877	 0.117956
H	-4.7840463371	-0.7972276859	-0.4794753812	 0.113036
H	-4.6472664543	-2.1885358514	 0.5985999819	 0.113071
75.2605	152.9155	186.6776	202.0339	262.6757	277.3265	293.7415	333.6818	410.0366	480.5726	559.467	678.9381	726.7287	775.6375	821.5426	824.9274	853.9703	866.4385	902.9089	947.0097	956.0736	982.9383	989.2465	994.2999	1046.8759	1069.9376	1071.0003	1081.7245	1091.1922	1146.2115	1162.3187	1175.7203	1184.3121	1225.0602	1231.811	1255.7123	1276.2804	1281.5351	1294.896	1312.8472	1325.0693	1349.0865	1399.7734	1408.8716	1411.8913	1433.6709	1481.3086	1497.2534	1499.4562	1500.5906	1502.5547	1507.0096	1517.3891	3015.3484	3017.9366	3028.9651	3031.0249	3048.93	3055.7137	3061.2023	3074.0331	3083.1036	3085.7445	3089.4821	3096.0199	3097.3083	3101.1688	3102.6402	3112.9147
CCC1C2CCC1C2C	CC[C@H]1[C@H]2CC[C@@H]1[C@H]2C	
InChI=1S/C9H16/c1-3-7-8-4-5-9(7)6(8)2/h6-9H,3-5H2,1-2H3	InChI=1S/C9H16/c1-3-7-8-4-5-9(7)6(8)2/h6-9H,3-5H2,1-2H3/t6-,7-,8-,9+
