20
gdb 19930	3.46765	2.20209	1.80261	0.263	76.52	-0.2568	0.0774	0.3342	828.8158	0.18061	-311.857965	-311.851496	-311.850552	-311.888219	27.185	
C	 0.1985568814	 1.6293789193	 0.3298273966	-0.293578
C	 1.3699673519	 0.7581524193	-0.0412549848	-0.021551
C	 2.2475697374	 0.2138026948	 1.0836131584	-0.248321
C	 1.3222451203	-0.6264647304	 1.9915529654	 0.010154
C	 0.5800847891	 0.0375095146	 3.1918512046	-0.234258
C	-0.7874519525	-0.3542582506	 2.5598567644	-0.226114
C	-0.0515238548	-0.8029617019	 1.2600813392	-0.015259
C	-0.0192753722	 0.1546856224	 0.0769507498	-0.038523
H	 0.1258294014	 2.0181741062	 1.3398810368	 0.110415
H	-0.171280547	 2.3165211553	-0.4241750136	 0.105699
H	 1.8275911735	 0.9120289883	-1.0129368313	 0.076482
H	 3.0315060643	-0.41948226	 0.6527588115	 0.095029
H	 2.7569573321	 1.0082024086	 1.642940589	 0.096013
H	 1.7980409415	-1.5656835738	 2.2835100876	 0.065726
H	 0.7904706551	-0.3994551347	 4.1713995233	 0.09207
H	 0.7451244814	 1.1161430752	 3.2685029721	 0.097766
H	-1.2725254047	-1.1837496765	 3.0809070618	 0.094588
H	-1.5191262984	 0.4485143989	 2.440123211	 0.0976
H	-0.2945881003	-1.8120418924	 0.9171239793	 0.059814
H	-0.5803181396	-0.1161369827	-0.8111235712	 0.076248
142.5455	217.4479	298.299	366.4537	452.1925	614.9723	655.216	699.7037	733.5836	773.8326	815.4614	827.5659	864.4556	875.1305	910.1791	947.9061	958.8677	978.8028	1015.3775	1035.8542	1062.2825	1066.79	1090.1574	1109.3681	1113.3916	1136.3686	1191.4248	1201.9582	1216.8304	1230.9316	1257.9662	1265.3315	1274.0311	1308.07	1324.9496	1336.1364	1362.6144	1390.5382	1475.2617	1485.2214	1491.4975	1504.2947	3025.8507	3050.9936	3056.2214	3057.3089	3064.6758	3076.0362	3094.8198	3113.9474	3129.8682	3155.1633	3164.5763	3209.8245
C1C2CC3CCC3C12	C1[C@H]2C[C@H]3CC[C@H]3[C@@H]12	
InChI=1S/C8H12/c1-2-7-5(1)3-6-4-8(6)7/h5-8H,1-4H2	InChI=1S/C8H12/c1-2-7-5(1)3-6-4-8(6)7/h5-8H,1-4H2/t5-,6-,7-,8+/m1/s1
