16
gdb 19418	4.18061	2.01352	1.6416	1.9343	70.06	-0.2353	0.0013	0.2366	809.015	0.131495	-346.574239	-346.567894	-346.56695	-346.604452	25.643	
C	 0.001794396	 1.5241875849	-0.022538421	-0.303628
C	 1.2987184588	 0.7701628046	-0.006094077	-0.315588
C	-0.0143822347	 0.0097937777	 0.0035462391	 0.346169
C	-0.4694918351	-0.7730088499	 1.1871471563	-0.154568
C	-1.0237294591	-1.9377274954	 0.8291912251	-0.108283
C	-1.0616929927	-2.0443541307	-0.6613709255	-0.010926
O	-1.8566379096	-1.0099995259	-1.2925626804	-0.261808
C	-0.4442786866	-0.8118223493	-1.1854215245	-0.064249
H	-0.3046435076	 2.0416250269	 0.8801353651	 0.119825
H	-0.3068613771	 2.0100639268	-0.9414591262	 0.125622
H	 1.8842293693	 0.7331319487	-0.9195609709	 0.118089
H	 1.8891464013	 0.7691572563	 0.9036433238	 0.117269
H	-0.3739110156	-0.3982984222	 2.2005760039	 0.102292
H	-1.4265864222	-2.6873291699	 1.4978631778	 0.102389
H	-1.0555736456	-2.9977853897	-1.1806539982	 0.095347
H	 0.0967452303	-0.7523386129	-2.1270210174	 0.092048
144.1984	228.8206	284.7776	397.2297	447.9491	522.5931	619.6307	747.1461	759.5373	775.3078	837.0891	846.5365	862.1864	912.4909	927.3193	937.3017	956.6499	972.047	1003.2705	1023.8974	1061.0512	1078.5191	1102.2235	1118.9854	1190.6938	1245.5296	1277.6152	1292.7455	1331.4249	1379.7357	1420.6042	1465.531	1497.4111	1644.5748	3127.2738	3135.3353	3136.8598	3163.482	3187.4495	3208.9641	3222.3019	3225.3136
C1CC11C=CC2OC12	C1CC21C=C[C@H]1O[C@@H]21	
InChI=1S/C7H8O/c1-2-7(3-4-7)6-5(1)8-6/h1-2,5-6H,3-4H2	InChI=1S/C7H8O/c1-2-7(3-4-7)6-5(1)8-6/h1-2,5-6H,3-4H2/t5-,6-/m1/s1
