13
gdb 10575	2.67007	1.9606	1.31178	4.2483	65.81	-0.2866	-0.0265	0.2602	922.3413	0.09246	-361.414248	-361.406175	-361.405231	-361.446579	28.849	
C	-0.0721783953	 1.530465964	-0.0794574722	-0.433616
C	-0.035238896	 0.0347086662	 0.0574475721	 0.049426
O	 1.2110731068	-0.6229791398	-0.1392284443	-0.259745
C	 0.6620558549	-0.6523808834	 1.188940729	 0.0927
C	 1.3568514498	 0.0859000697	 2.2119551694	 0.278931
C	 1.9236321082	 0.6880694981	 3.0825922469	-0.405809
C	 0.15881445	-1.9525042965	 1.6062032513	 0.235148
N	-0.2584708044	-2.97690343	 1.9393699236	-0.326443
H	 0.7708976635	 1.9942960643	 0.4352735848	 0.148253
H	-0.0325672082	 1.8031607577	-1.1387099127	 0.144328
H	-1.0049405024	 1.9229947548	 0.337209227	 0.139341
H	-0.8845527038	-0.5078992303	-0.3598618461	 0.122016
H	 2.4316417169	 1.2177829951	 3.8512628814	 0.215471
129.0801	141.5572	160.7196	176.0254	223.9516	327.6035	398.8691	488.6294	529.2054	584.8082	613.1997	630.3177	645.1766	685.9762	797.0981	906.3096	981.1832	1008.9976	1129.8169	1155.8901	1222.4238	1309.7465	1404.4064	1434.1403	1482.339	1492.3077	2247.5286	2363.5117	3047.482	3108.3162	3113.842	3147.3574	3497.5584
CC1OC1(C#C)C#N	C[C@H]1O[C@]1(C#C)C#N	
InChI=1S/C6H5NO/c1-3-6(4-7)5(2)8-6/h1,5H,2H3	InChI=1S/C6H5NO/c1-3-6(4-7)5(2)8-6/h1,5H,2H3/t5-,6-/m1/s1
