23
gdb 95078	2.24953	1.82573	1.2512	1.3141	84.26	-0.2524	0.0724	0.3248	1104.079	0.207747	-388.300524	-388.292119	-388.291175	-388.33268	34.876	
C	 0.0668341147	 1.5794592532	-0.0086909389	-0.404741
C	 0.0141502143	 0.0490973006	 0.0607181729	 0.012634
C	 0.5808752481	-0.5727261324	-1.2420843274	-0.207846
C	 1.1323088562	-2.0051090585	-1.0683687869	-0.213954
C	 1.6850462265	-2.197076818	 0.3531304635	-0.007424
C	 2.2496403271	-0.8590382221	 0.9187833529	-0.294038
C	 0.7682128418	-0.5210312964	 1.2816574273	 0.421358
O	 0.4808515534	 0.2820961408	 2.3991981663	-0.495143
C	 0.5227654277	-2.0509415794	 1.3711309601	-0.278249
H	 1.1024647557	 1.9350741259	-0.0612581272	 0.108899
H	-0.4525962734	 1.936902364	-0.9044721716	 0.101861
H	-0.3984185263	 2.0329207852	 0.8679312445	 0.130244
H	-1.0368055979	-0.2480831963	 0.1785625101	 0.07148
H	-0.1757391197	-0.5380141515	-2.0325725116	 0.092912
H	 1.3976026673	 0.0719574406	-1.5870595642	 0.100057
H	 0.3504915998	-2.7536489241	-1.2473253478	 0.094645
H	 1.9129834079	-2.1873811831	-1.8158132268	 0.091603
H	 2.3137662487	-3.0858316026	 0.43411328	 0.061108
H	 2.8360998227	-1.0314508763	 1.8272519586	 0.08212
H	 2.8064757199	-0.189499014	 0.2582532999	 0.093974
H	 0.9067703293	-0.1145827716	 3.1658023072	 0.271775
H	-0.464700218	-2.4351459931	 1.0962817042	 0.088504
H	 0.7997755741	-2.4350677107	 2.3593431949	 0.07822
124.6183	211.9792	239.6337	288.0141	295.0028	355.0661	373.106	405.9129	421.8701	466.5009	516.561	557.7996	668.869	755.933	811.1302	838.4917	866.6053	894.0418	910.0018	941.4704	976.2697	989.6048	1008.3798	1025.6661	1046.2033	1076.875	1105.1889	1114.4151	1129.6139	1177.0894	1184.6364	1202.4841	1229.672	1235.7212	1280.3905	1284.5355	1323.8675	1343.3799	1355.314	1367.1371	1375.1856	1398.49	1414.862	1473.9544	1489.6393	1496.5126	1496.8801	1503.7268	1519.4908	3005.8615	3022.5787	3029.8702	3030.9126	3034.3075	3047.8045	3058.0587	3076.6394	3084.5085	3088.6295	3091.3519	3103.3418	3135.2699	3813.4964
CC1CCC2CC1(O)C2	C[C@H]1CC[C@H]2C[C@]1(O)C2	
InChI=1S/C8H14O/c1-6-2-3-7-4-8(6,9)5-7/h6-7,9H,2-5H2,1H3	InChI=1S/C8H14O/c1-6-2-3-7-4-8(6,9)5-7/h6-7,9H,2-5H2,1H3/t6-,7-,8-/m0/s1
