15
gdb 46024	3.24433	1.30298	0.97046	5.3948	74.76	-0.2446	-0.0598	0.1848	1156.2101	0.112493	-416.794496	-416.786238	-416.785294	-416.827641	30.691	
N	-0.0268082943	 1.3640853017	-0.1803421274	-0.513674
C	 0.0510501703	 0.0975031615	-0.083211733	 0.277222
N	 1.0943352238	-0.7784989305	-0.2941937731	-0.342857
C	 0.8545352364	-2.1313675143	 0.1996035276	-0.191063
C	-0.6887717389	-2.239194152	 0.1739317184	-0.299945
C	-1.262015115	-3.1483086216	 1.1440331109	 0.327201
C	-1.7268690624	-3.8964539321	 1.9603695327	-0.427813
C	-1.1464650981	-0.7624441257	 0.3041551937	 0.368208
O	-2.2253599723	-0.3728752488	 0.6375223219	-0.268399
H	 0.8722800513	 1.7811575205	-0.4331779765	 0.209105
H	 2.0375327046	-0.4313826315	-0.3718799996	 0.249304
H	 1.3306767076	-2.8744399201	-0.4450629661	 0.128916
H	 1.2230620985	-2.2762021899	 1.2233726242	 0.129377
H	-0.9945856045	-2.5340968097	-0.8408716444	 0.149694
H	-2.1488493471	-4.5538526274	 2.6798651808	 0.204725
61.7674	128.8264	155.9034	216.8313	330.6636	370.2259	414.726	457.9084	485.1124	545.7245	597.293	637.21	653.9099	675.9064	714.7252	819.1026	865.5326	936.48	1008.3231	1044.0674	1069.3057	1084.0404	1144.4225	1193.364	1249.4839	1271.9424	1340.9699	1379.771	1436.039	1533.1725	1740.9197	1877.3157	2247.4649	3004.9266	3022.141	3089.4206	3442.0867	3504.1867	3627.4568
N=C1NCC(C#C)C1=O	[NH][C]1NC[C@@H](C#C)C1=O	
InChI=1S/C6H6N2O/c1-2-4-3-8-6(7)5(4)9/h1,4H,3H2,(H2,7,8)	InChI=1S/C6H6N2O/c1-2-4-3-8-6(7)5(4)9/h1,4H,3H2,(H2,7,8)/t4-/m1/s1
