18
gdb 71322	3.6628	1.51277	1.34703	4.1994	75.27	-0.2308	-0.0063	0.2246	991.1769	0.14875	-401.923599	-401.91632	-401.915376	-401.954991	29.123	
C	-0.0477771037	 1.5291909615	-0.0377576037	-0.503062
C	 0.030968142	 0.0222901719	 0.029651658	 0.326443
C	-1.2870123933	-0.7733862828	 0.2800516093	-0.279345
C	-0.5445053139	-1.7918186884	 1.2191405958	-0.197727
C	 0.6809388888	-0.8308186967	 1.1751203151	-0.039226
N	 1.3400569183	-1.721488235	 0.1482002581	-0.170863
C	 0.985259028	-0.7293814027	-0.9377948997	-0.23894
C	 0.2703148448	-2.6864105236	 0.2902775722	 0.404677
O	 0.1159684391	-3.7392965289	-0.251767945	-0.318394
H	 0.9506489762	 1.9793126017	-0.0604047637	 0.122233
H	-0.5785667189	 1.8527079852	-0.9412430352	 0.12598
H	-0.5833477872	 1.9406910546	 0.8244143302	 0.120498
H	-1.9739317162	-0.1681798974	 0.8772487084	 0.115789
H	-1.8279607647	-1.1817492966	-0.5786296347	 0.115353
H	-1.0733309335	-2.1821468911	 2.0871296653	 0.09361
H	 1.2683854113	-0.4760658936	 2.0193246489	 0.083512
H	 0.5703863055	-1.1884083703	-1.840508866	 0.123795
H	 1.8653706073	-0.1367385677	-1.2057302834	 0.115667
133.3801	206.2358	222.6464	264.6149	363.2176	385.4161	468.0014	556.3151	605.0845	683.9401	769.1845	790.8665	843.2379	869.5209	884.4818	904.192	937.2174	951.3059	973.3907	1009.2125	1016.5581	1042.272	1097.3628	1137.8649	1159.431	1177.6611	1199.4956	1214.1774	1232.5033	1247.1082	1251.2653	1284.8034	1353.4337	1414.3543	1480.7925	1491.4833	1493.6726	1505.3633	1896.794	3023.31	3042.5972	3053.0013	3087.5089	3095.4535	3099.3485	3109.6162	3124.7282	3140.4813
CC12CC3C1N(C2)C3=O	C[C@]12C[C@@H]3[C@H]1N(C2)C3=O	
InChI=1S/C7H9NO/c1-7-2-4-5(7)8(3-7)6(4)9/h4-5H,2-3H2,1H3	InChI=1S/C7H9NO/c1-7-2-4-5(7)8(3-7)6(4)9/h4-5H,2-3H2,1H3/t4-,5-,7-/m1/s1
