18
gdb 68168	3.6056	1.45772	1.24488	3.6853	73.38	-0.2514	0.0179	0.2692	1037.6115	0.148646	-439.08658	-439.078855	-439.077911	-439.118527	30.275	
C	-0.0038520163	 1.5517382317	 0.0146159855	-0.47746
C	 0.0063033353	 0.0446705179	-0.0640574714	 0.368391
C	 0.728802957	-0.6921485454	-1.2162657731	-0.297993
C	 1.0826350128	-1.6645109349	-0.0740597211	 0.000055
O	 0.9197313172	-0.5848165987	 0.8916617778	-0.323096
C	-0.0539258466	-2.6308438726	 0.1262384023	 0.444125
N	 0.1130226677	-3.8811186308	 0.1993306138	-0.536006
O	-1.2823758798	-2.0364649489	 0.1862257884	-0.272975
C	-1.3556011664	-0.5969230457	 0.187122254	-0.097038
H	 1.0101997807	 1.9390021726	-0.112087102	 0.134432
H	-0.6408373244	 1.976712011	-0.768080585	 0.126424
H	-0.3807017933	 1.8880383903	 0.9860322775	 0.134236
H	 0.1414677755	-1.063236685	-2.0584602369	 0.11622
H	 1.6021630917	-0.138294219	-1.563388519	 0.115841
H	 2.0511864307	-2.158574486	-0.0248397167	 0.108482
H	-0.7858043499	-4.3544863335	 0.3184790064	 0.2204
H	-1.7346918321	-0.2847609251	 1.1667871831	 0.121434
H	-2.0816634098	-0.3116149779	-0.5823903436	 0.11453
117.6792	172.8409	196.8795	264.0226	331.5047	384.1119	416.1572	458.6071	477.708	649.7392	675.8696	718.0664	790.4883	842.5538	893.8065	907.4059	924.4594	931.2544	963.7489	982.5909	1025.4987	1032.4443	1079.4194	1143.993	1148.9238	1226.1696	1246.8861	1249.2872	1267.1439	1303.9687	1307.1496	1344.7765	1409.7387	1428.873	1478.7691	1487.4804	1494.9686	1500.4331	1768.3182	3032.2682	3040.2971	3076.0285	3080.2311	3109.2431	3124.2273	3140.0045	3145.4737	3456.6961
CC12CC(O1)C(=N)OC2	C[C@@]12C[C@@H](O1)[C]([NH])OC2	
InChI=1S/C6H9NO2/c1-6-2-4(9-6)5(7)8-3-6/h4,7H,2-3H2,1H3	InChI=1S/C6H9NO2/c1-6-2-4(9-6)5(7)8-3-6/h4,7H,2-3H2,1H3/t4-,6+/m1/s1
