18
gdb 17171	3.86295	1.81841	1.53721	1.8514	71.26	-0.2289	0.0783	0.3072	893.0927	0.153481	-347.715223	-347.708087	-347.707143	-347.74659	27.802	
C	-0.0958834311	 1.5449203978	 0.0294688224	-0.379662
C	 0.0917162923	 0.0236440116	-0.0232303642	-0.321288
C	 0.8269374251	-0.4448261861	-1.2486894497	 0.330341
C	 2.2578538203	-0.1287601635	-1.7541422351	-0.325945
C	 1.7184540575	-1.0876042909	-2.8363091409	-0.095776
C	 0.900298305	-1.9112845868	-1.798484152	 0.040929
O	-0.359905803	-1.8281951322	-2.5306242922	-0.331218
C	 0.2708302874	-0.5253236652	-2.7158138783	 0.056739
H	 0.8676302302	 2.065190036	 0.0331847199	 0.11857
H	-0.664265993	 1.9026872366	-0.8355458067	 0.117942
H	-0.6390012444	 1.8424347537	 0.9313409782	 0.115597
H	 0.6315654944	-0.3131274923	 0.8715229513	 0.099188
H	-0.8848328267	-0.476495052	-0.0056934329	 0.114889
H	 2.4534242186	 0.9006216879	-2.068240273	 0.098986
H	 3.0838275119	-0.5002010252	-1.1399796062	 0.096961
H	 2.1942748844	-1.4681777296	-3.7394146979	 0.082582
H	 1.1486653154	-2.8404092808	-1.2846518625	 0.090373
H	-0.2424933444	 0.2248573511	-3.3177719802	 0.090793
87.7039	171.4785	195.0045	285.4623	352.9804	426.9345	552.9356	658.2853	727.1397	764.4502	789.7476	826.9773	853.5317	880.804	898.7731	914.4777	965.468	984.9636	1001.9412	1047.1188	1070.774	1084.2838	1129.778	1144.266	1160.1696	1169.1494	1175.3754	1223.2069	1247.121	1296.8258	1318.6387	1337.1713	1387.673	1411.4626	1479.3804	1500.0825	1506.2424	1516.551	3018.7184	3034.8029	3046.238	3054.6707	3100.5817	3103.0603	3107.7702	3113.1329	3114.3	3132.6758
CCC12CC3C1OC23	CC[C@@]12C[C@H]3[C@@H]1O[C@@H]23	
InChI=1S/C7H10O/c1-2-7-3-4-5(7)8-6(4)7/h4-6H,2-3H2,1H3	InChI=1S/C7H10O/c1-2-7-3-4-5(7)8-6(4)7/h4-6H,2-3H2,1H3/t4-,5-,6+,7+
