18
gdb 88147	2.62897	1.4762	1.1125	2.6688	73.49	-0.2154	-0.0168	0.1986	1116.6581	0.147617	-439.082262	-439.073889	-439.072944	-439.115233	32.085	
O	-0.0263245044	 1.3706938082	-0.033659935	-0.425248
C	 0.0037751067	-0.0242959214	-0.0013624634	 0.050139
C	-0.4796419176	-0.7370221651	 1.2361146235	-0.383182
C	-1.3399779863	-0.6848665086	-0.0362182165	 0.237049
N	-2.5706725552	 0.0477746453	-0.1816530509	-0.361787
C	-3.6458088508	-0.9518543011	-0.2696795213	-0.18108
C	-3.0155392846	-2.0383809425	-1.1530184242	-0.315886
C	-1.5367146515	-1.9800106988	-0.766305974	 0.374241
O	-0.6878891345	-2.8116807108	-0.97432623	-0.337401
H	 0.7223461209	 1.693473504	 0.4791260632	 0.292087
H	 0.792708456	-0.5022549893	-0.582426351	 0.108549
H	-0.0295555628	-1.688113353	 1.5007592405	 0.131197
H	-0.8070570463	-0.1108965554	 2.0603658543	 0.11303
H	-2.7149986287	 0.7460303249	 0.5352338595	 0.228626
H	-3.9222135448	-1.3827109125	 0.7081162533	 0.090485
H	-4.5424001391	-0.5062532161	-0.7084138225	 0.109597
H	-3.4272130416	-3.0401965241	-1.0217535987	 0.128065
H	-3.0937534554	-1.7714589536	-2.2137574869	 0.141518
84.839	136.166	183.4141	197.0276	285.0257	316.1642	386.4963	455.9971	516.028	538.7597	601.5795	626.8865	673.7191	766.9624	814.7396	857.5257	885.1296	907.8403	955.3167	996.5056	1027.1803	1040.9997	1066.9521	1091.2581	1128.101	1167.9911	1186.9312	1213.6667	1258.5638	1279.829	1291.2579	1313.6747	1364.3659	1408.2896	1441.3807	1447.5819	1476.5182	1522.1255	1838.9788	2950.3906	3049.6823	3084.9928	3104.9111	3121.8257	3127.9881	3223.1378	3576.7778	3804.83
OC1CC11NCCC1=O	O[C@H]1C[C@]21NCCC2=O	
InChI=1S/C6H9NO2/c8-4-1-2-7-6(4)3-5(6)9/h5,7,9H,1-3H2	InChI=1S/C6H9NO2/c8-4-1-2-7-6(4)3-5(6)9/h5,7,9H,1-3H2/t5-,6-/m0/s1
