18
gdb 15272	2.97685	1.55921	1.2948	3.2975	63.92	-0.2436	0.0617	0.3054	1011.4985	0.152613	-422.032219	-422.023381	-422.022437	-422.065615	32.018	
C	 0.1612587263	 1.0380126983	 0.2121454687	-0.237006
O	-0.1948116476	-0.075653376	-0.5896360374	-0.251482
C	-1.4283292232	-0.6354498527	-0.2628588897	 0.037489
C	-1.5665264997	-2.0642278314	-0.6866189145	 0.066559
O	-0.4484510723	-2.6879083937	-1.2609546933	-0.433623
C	-1.5141735804	-1.7336471927	 0.7947162126	-0.120061
C	-0.2880451408	-2.1965650763	 1.5629561851	-0.08397
O	-0.1418842693	-3.6061294703	 1.5367476934	-0.429139
H	 1.1304858474	 1.392974836	-0.1444339811	 0.134024
H	-0.5759733667	 1.8469514783	 0.1128182159	 0.116915
H	 0.2413370282	 0.7626846402	 1.271840699	 0.121586
H	-2.2726869262	 0.0451037897	-0.3754670937	 0.092742
H	-2.5001047213	-2.4033064007	-1.1254110094	 0.104178
H	 0.1856988318	-1.9874460544	-1.464675549	 0.30393
H	-2.4579986586	-1.8026724684	 1.3282483677	 0.091693
H	 0.608713602	-1.699948076	 1.1684298669	 0.08786
H	-0.3780557491	-1.9152218434	 2.6169734182	 0.105662
H	-0.0419725404	-3.8336863064	 0.603456901	 0.292644
100.5457	108.0998	152.4449	169.2137	191.2378	283.9565	307.9393	370.0285	386.2103	541.3632	605.6672	608.3322	655.1601	769.4627	799.2773	884.8465	963.9003	1025.2985	1060.156	1074.6075	1090.2531	1116.8691	1129.5422	1161.6486	1183.1388	1219.4714	1241.9325	1253.4869	1329.9546	1354.0062	1375.4165	1406.5598	1442.6275	1445.067	1484.2085	1485.4746	1504.0275	1512.7809	2998.5932	3011.3478	3056.3164	3073.7785	3095.0962	3126.6457	3145.3438	3156.3528	3758.1497	3773.6298
COC1C(O)C1CO	CO[C@H]1[C@@H](O)[C@H]1CO	
InChI=1S/C5H10O3/c1-8-5-3(2-6)4(5)7/h3-7H,2H2,1H3	InChI=1S/C5H10O3/c1-8-5-3(2-6)4(5)7/h3-7H,2H2,1H3/t3-,4+,5-/m1/s1
