23
gdb 106302	3.20909	1.21565	1.12128	1.3992	85.41	-0.2373	0.0862	0.3235	1247.1381	0.205647	-388.296652	-388.287564	-388.28662	-388.329984	35.927	
C	-0.0252007637	 1.5014044066	-0.3398199433	-0.384548
C	-0.0486651701	 0.0259384858	 0.0785923554	-0.292751
C	-1.4373874788	-0.5582617538	 0.153719505	 0.445509
C	-1.7173277406	-2.0782966461	 0.2281648814	-0.326689
C	-2.9956560402	-1.5842746006	-0.4900963047	 0.424377
C	-3.7990825644	-2.4153431582	-1.4499718472	-0.49543
C	-3.7212189304	-0.7794374832	 0.6155076923	-0.249894
C	-2.4918273747	 0.0307810247	 1.1264217804	-0.261128
O	-2.1789893122	-0.5368567978	-1.1167317339	-0.368468
H	 1.0034931288	 1.8539045314	-0.4590670249	 0.110043
H	-0.5457631027	 1.6370475064	-1.2919827738	 0.138205
H	-0.5109386998	 2.1412896747	 0.4033425968	 0.116207
H	 0.5342349069	-0.5663920512	-0.6361766838	 0.102067
H	 0.4326282125	-0.1002116119	 1.0572771958	 0.09727
H	-1.066329589	-2.6434987111	-0.4414581025	 0.098789
H	-1.8041337687	-2.5613270211	 1.2057701723	 0.08561
H	-4.3413057396	-3.2006316315	-0.9127652464	 0.119174
H	-4.5328934326	-1.7942161779	-1.9745503467	 0.126077
H	-3.1527913867	-2.8873028932	-2.1951837516	 0.124005
H	-4.5006473694	-0.1427140526	 0.1898084293	 0.100727
H	-4.1734429857	-1.4196301446	 1.3786212979	 0.093109
H	-2.248080603	-0.1574967398	 2.1761341245	 0.09323
H	-2.6116201061	 1.106525065	 0.9856058875	 0.10451
77.9155	161.0035	192.9634	203.7161	248.1037	261.4417	313.9755	367.8799	430.5947	458.8351	560.3239	596.8741	611.0813	731.9674	768.804	806.3146	827.922	842.2928	894.4269	903.356	951.0278	970.807	977.6195	1010.0812	1038.5772	1063.6609	1095.3843	1119.9541	1149.0436	1180.3316	1206.966	1229.7924	1240.6056	1242.9535	1256.5831	1306.0827	1336.5282	1345.2414	1396.0889	1408.0106	1419.1523	1474.2631	1477.9651	1481.6567	1482.7724	1494.1714	1499.0337	1509.152	1509.4323	3024.4526	3035.444	3042.0708	3052.5665	3055.3291	3061.9734	3066.4484	3100.5644	3104.2311	3108.3515	3114.7457	3119.7732	3121.8758	3128.2058
CCC12CC(C)(CC1)O2	CC[C@@]12C[C@@](C)(CC1)O2	
InChI=1S/C8H14O/c1-3-8-5-4-7(2,6-8)9-8/h3-6H2,1-2H3	InChI=1S/C8H14O/c1-3-8-5-4-7(2,6-8)9-8/h3-6H2,1-2H3/t7-,8+/m1/s1
