20
gdb 116526	3.14232	0.92632	0.76524	1.4245	81.84	-0.2271	-0.0173	0.2098	1554.1279	0.169847	-436.473833	-436.463486	-436.462542	-436.509693	37.205	
C	 0.2756240953	 1.5904537409	 0.0006693522	-0.369252
C	-0.085874396	 0.1187730272	-0.249818916	-0.149035
N	 0.6568276368	-0.4393945738	-1.3660996576	-0.271562
C	 1.8320600781	-0.892512393	-1.1582704962	 0.289327
N	 2.5514122199	-0.917612999	 0.0149355956	-0.555337
C	 2.6042233844	-1.4771468454	-2.3160385386	 0.396548
N	 3.6925849632	-2.0954802557	-2.0836018705	-0.559792
O	 1.995694255	-1.2582057507	-3.493583171	-0.202742
C	 2.6134990427	-1.7894429808	-4.654734755	-0.265465
H	 1.3261985319	 1.6948926905	 0.2877458064	 0.12369
H	 0.1146863365	 2.1763910233	-0.9085474904	 0.128874
H	-0.3444937192	 2.0110240547	 0.7989146321	 0.107868
H	 0.0479103104	-0.4570521959	 0.684354819	 0.070577
H	-1.1517157049	 0.0492981751	-0.4939007969	 0.102947
H	 2.0416670239	-0.8531628543	 0.8804388944	 0.251195
H	 3.3487341293	-1.5379401623	 0.0008698622	 0.270017
H	 4.1407128387	-2.462654176	-2.9195083621	 0.222726
H	 3.6121042907	-1.3618575704	-4.809380444	 0.130476
H	 2.6926900733	-2.8824115931	-4.6018549618	 0.130964
H	 1.9693380299	-1.5135928613	-5.4898224119	 0.147975
53.0443	79.5164	103.8537	146.1954	182.1038	221.9776	236.9055	328.3484	348.3245	398.6078	408.7084	452.9554	512.3896	572.6438	594.1934	690.6827	789.014	801.3425	834.8444	849.1868	895.0034	1004.9961	1033.5495	1090.5237	1131.2969	1147.7917	1175.2205	1200.4078	1223.0673	1286.5254	1294.1301	1361.9904	1397.0981	1410.53	1477.7562	1490.5243	1493.191	1500.7528	1503.9376	1527.137	1607.2172	1702.8051	1733.0802	2926.429	3011.2687	3038.9106	3048.7678	3073.6746	3110.548	3119.1463	3148.2946	3523.0176	3565.3016	3695.3255
CCN=C(N)C(=N)OC	CCN=C(N)[C]([NH])OC	
InChI=1S/C5H11N3O/c1-3-8-4(6)5(7)9-2/h7H,3H2,1-2H3,(H2,6,8)	InChI=1S/C5H11N3O/c1-3-8-4(6)5(7)9-2/h7H,3H2,1-2H3,(H2,6,8)
