25
gdb 121394	3.9791	0.76096	0.67348	1.3607	89.64	-0.2428	0.0888	0.3316	1764.5162	0.230556	-389.512893	-389.503243	-389.502299	-389.547703	36.746	
C	 0.0548901967	 1.6402769067	 0.0440447542	-0.379153
C	-0.0213517649	 0.1109195759	 0.010005752	-0.175614
C	 0.6549899196	-0.4894809773	-1.2288039086	-0.176559
C	 0.6820839732	-2.0246762322	-1.2783070715	 0.029406
C	-0.7169455996	-2.6577780869	-1.3841264649	-0.20117
C	-0.6183466274	-4.1778690385	-1.5379358016	-0.078981
O	 0.1784378423	-4.551276491	-2.6480836381	-0.241544
C	 1.5037166737	-4.0625772442	-2.5350402131	-0.08113
C	 1.5430003967	-2.5356103013	-2.4470137755	-0.210046
H	 1.0950468673	 1.9848245122	 0.0442524953	 0.113
H	-0.4370496825	 2.0803296049	-0.8306521778	 0.113849
H	-0.4308067238	 2.045638444	 0.9372462222	 0.110282
H	 0.450440433	-0.2991700194	 0.9132326367	 0.092687
H	-1.0730871582	-0.1968838505	 0.0499442123	 0.099253
H	 0.1588681044	-0.1103716969	-2.1341036192	 0.090246
H	 1.6894296174	-0.1210173887	-1.2775862122	 0.086555
H	 1.1418372484	-2.3858026297	-0.3441589635	 0.063688
H	-1.3252614483	-2.4249572916	-0.5032043595	 0.093237
H	-1.2382736462	-2.245245163	-2.2583002247	 0.098372
H	-0.2044066678	-4.6181614435	-0.6128173888	 0.079975
H	-1.6037270322	-4.6227667356	-1.7062421552	 0.102743
H	 1.9911433491	-4.4997046031	-1.6449465198	 0.079587
H	 2.0389032006	-4.4229595303	-3.4187593875	 0.102832
H	 1.1656610527	-2.1169551704	-3.3893747833	 0.099363
H	 2.5814616059	-2.1997475696	-2.3364944879	 0.089121
72.2065	81.9909	122.1036	191.8411	235.7463	250.6361	288.5408	330.5918	363.921	447.4875	476.4577	488.1117	608.2556	742.8305	804.8504	820.2192	859.507	892.5449	898.8179	925.588	995.3766	1001.3116	1023.5681	1040.5771	1048.3887	1083.9463	1105.0817	1124.0242	1174.9039	1188.3373	1198.2335	1252.4296	1262.6768	1289.2409	1298.3839	1319.6542	1329.8194	1339.792	1356.0046	1378.3012	1388.0632	1394.2742	1400.8128	1411.805	1428.0001	1469.4165	1481.4471	1485.3832	1492.7842	1494.3585	1499.9586	1503.9587	1510.647	2941.8844	2948.4357	2973.4741	2997.7695	3016.9462	3018.5446	3022.8279	3028.5467	3029.7943	3058.2325	3064.1144	3072.9293	3077.9226	3080.7305	3096.2271	3100.8102
CCCC1CCOCC1	CCCC1CCOCC1	
InChI=1S/C8H16O/c1-2-3-8-4-6-9-7-5-8/h8H,2-7H2,1H3	InChI=1S/C8H16O/c1-2-3-8-4-6-9-7-5-8/h8H,2-7H2,1H3
