23
gdb 91332	2.5709	1.567	1.19576	1.1386	85.53	-0.2324	0.0824	0.3149	1158.2712	0.206468	-388.297648	-388.289067	-388.288122	-388.330103	35.013	
C	 0.1709521963	 1.5261801313	 0.1156160865	-0.403543
C	 0.0428208779	 0.0151854697	-0.0071932386	 0.162202
C	 0.6758805925	-0.5554734168	-1.2975550472	-0.23307
C	 1.1355739295	-2.0010674279	-1.0556930015	-0.030676
C	 0.196920443	-2.6777360002	-0.0135301271	-0.281255
C	 1.0358363032	-1.9166493196	 1.0586414224	 0.439623
C	 1.1781037652	-2.4618310019	 2.4611713591	-0.462281
C	 2.2229725846	-1.984710139	 0.0545341885	-0.250055
O	 0.6147980715	-0.5548382954	 1.1758009609	-0.328432
H	 1.2252682159	 1.8197889766	 0.1320977763	 0.118448
H	-0.3162161181	 2.0224376866	-0.7300256784	 0.110224
H	-0.2971402663	 1.8762477918	 1.0398764055	 0.12183
H	-1.0281132654	-0.2401547166	-0.0194542571	 0.069118
H	-0.0661870849	-0.5036902496	-2.1028942387	 0.094174
H	 1.5337187066	 0.053125036	-1.611005149	 0.095271
H	 1.3509220062	-2.529020732	-1.9871933652	 0.059768
H	-0.8800444117	-2.4982850794	-0.0624279662	 0.095021
H	 0.3783841326	-3.7534602403	 0.0536273613	 0.095348
H	 1.5568677928	-3.4878771029	 2.4402099168	 0.107465
H	 1.873914664	-1.8452145967	 3.0390673279	 0.123247
H	 0.212618345	-2.4544756874	 2.9768979156	 0.118908
H	 2.7617322476	-2.9342675529	 0.1210315254	 0.089557
H	 2.9286753519	-1.1497054635	 0.0754547331	 0.089108
118.1084	205.3605	212.7875	236.9374	258.3201	345.5408	373.0294	422.839	442.7531	455.6635	487.4767	562.4981	653.2947	795.2986	815.7093	844.9936	868.8034	885.1463	898.8768	917.8332	971.0888	982.1051	998.7784	1011.8994	1044.5612	1079.4655	1111.8053	1131.1623	1152.5341	1173.3669	1198.348	1216.932	1234.3058	1245.0429	1287.5058	1309.4525	1325.5106	1351.7441	1386.7931	1395.6016	1405.2749	1412.3506	1471.0201	1479.8956	1482.4054	1488.7646	1492.2178	1498.3478	1505.4154	2967.4532	3019.2554	3035.8507	3037.4057	3048.5429	3059.8742	3062.5273	3081.2468	3107.0641	3108.5872	3110.2161	3111.9562	3116.8573	3117.1491
CC1CC2CC(C)(C2)O1	C[C@H]1C[C@@H]2C[C@@](C)(C2)O1	
InChI=1S/C8H14O/c1-6-3-7-4-8(2,5-7)9-6/h6-7H,3-5H2,1-2H3	InChI=1S/C8H14O/c1-6-3-7-4-8(2,5-7)9-6/h6-7H,3-5H2,1-2H3/t6-,7-,8+/m0/s1
