18
gdb 58394	2.15007	1.19545	0.80479	4.2884	75.67	-0.2622	0.0023	0.2645	1404.4669	0.14574	-435.262955	-435.252527	-435.251583	-435.299371	35.901	
C	 0.0508546659	 1.5759776375	-0.0389903275	-0.408469
C	 0.0073607912	 0.0467886024	 0.0389250551	 0.0006
N	 0.6597527331	-0.5319402169	 1.2130070428	-0.508733
C	-1.4505116018	-0.4678643931	 0.0371194159	-0.01517
O	-2.116617716	 0.0874619978	-1.0920898604	-0.191708
C	-3.4680249147	-0.0388310614	-1.1359398278	 0.130977
N	-4.1023842179	 0.4893895506	-2.0853828945	-0.431709
C	-1.4999111066	-1.9418176652	-0.0020375158	 0.303506
N	-1.5897544801	-3.0913303263	-0.0697884774	-0.3205
H	 1.0912273035	 1.9139133641	-0.0563581595	 0.118468
H	-0.4542797545	 1.9498808502	-0.9319255796	 0.153153
H	-0.4331950294	 2.0216996024	 0.83912327	 0.111381
H	 0.4883458223	-0.3743116363	-0.8503575903	 0.116589
H	 1.6624048852	-0.5815621341	 1.075524971	 0.242891
H	 0.5044109544	 0.0519048461	 2.0299230272	 0.229823
H	-1.9384772509	-0.1366736493	 0.9658075626	 0.122252
H	-3.8837815284	-0.6176501737	-0.3019080854	 0.108257
H	-5.0991382652	 0.3089997552	-1.9854193664	 0.238393
54.7606	71.1436	79.5946	141.8414	157.7858	188.1262	233.0584	270.2326	322.8932	354.2969	423.107	440.7055	523.8841	542.6299	701.8131	822.292	829.4936	868.7094	921.543	983.5647	1016.4749	1036.0666	1039.5601	1114.2431	1128.0709	1181.7377	1216.6362	1282.971	1309.7431	1344.8704	1374.1159	1400.7746	1408.3625	1426.2445	1487.9043	1502.1434	1663.4615	1752.2397	2361.8456	3002.0339	3028.6665	3046.4688	3062.8905	3101.4559	3136.0084	3501.818	3522.5756	3591.4
CC(N)C(OC=N)C#N	C[C@@H](N)[C@@H](O[CH][NH])C#N	
InChI=1S/C5H9N3O/c1-4(8)5(2-6)9-3-7/h3-5,7H,8H2,1H3	InChI=1S/C5H9N3O/c1-4(8)5(2-6)9-3-7/h3-5,7H,8H2,1H3/t4-,5+/m1/s1
