16
gdb 28068	5.563	0.91585	0.78859	4.118	75.84	-0.1809	0.0221	0.203	1373.2269	0.126143	-434.121328	-434.112747	-434.111803	-434.15479	31.686	
N	 0.0914085467	 1.4461162813	 0.089006471	-0.608758
C	-0.0074558374	 0.0421299259	 0.0181044207	 0.325624
C	-1.0839161436	-0.8181675897	-0.0111587776	-0.358322
C	-0.5535414531	-2.144561291	-0.0059829666	 0.361038
N	-1.3403571483	-3.3069228241	-0.0360709267	-0.40136
C	-0.8806394628	-4.5879878545	-0.035255214	 0.138141
O	 0.2872846389	-4.9181786206	-0.0097897548	-0.31975
C	 0.8198274775	-2.0610032245	 0.0150674446	-0.168269
N	 1.1311283597	-0.7153653348	 0.0329038203	-0.273919
H	 0.3489888553	 1.8618519939	-0.8017703969	 0.245012
H	-0.7905814057	 1.8530022138	 0.3743631869	 0.246778
H	-2.1247442162	-0.5342656934	-0.0573959765	 0.079012
H	-2.3395810949	-3.1785039845	-0.058216895	 0.249488
H	-1.7156587712	-5.3155046404	-0.0620621484	 0.072001
H	 1.566094923	-2.8322575045	 0.0141764512	 0.152597
H	 2.0524837323	-0.3330598529	 0.1552031518	 0.260687
63.7281	125.6151	168.2015	186.6401	267.0465	288.9576	386.1881	431.9939	484.816	545.8341	564.6582	634.1696	669.8991	702.8342	727.2326	756.2104	821.0821	870.6338	985.0735	1005.0188	1008.3295	1118.2647	1139.6356	1162.2299	1214.098	1279.9682	1316.348	1413.0642	1430.7943	1479.5959	1544.7364	1582.6804	1633.4609	1659.5579	1794.1554	2937.2117	3237.9102	3325.1124	3490.6556	3598.2916	3634.0861	3684.4195
NC1=CC(NC=O)=CN1	Nc1cc(NC=O)c[nH]1	
InChI=1S/C5H7N3O/c6-5-1-4(2-7-5)8-3-9/h1-3,7H,6H2,(H,8,9)	InChI=1S/C5H7N3O/c6-5-1-4(2-7-5)8-3-9/h1-3,7H,6H2,(H,8,9)
