20
gdb 121336	3.37561	0.93598	0.76904	3.0837	76.35	-0.2542	0.026	0.2802	1472.5272	0.172044	-440.304694	-440.295524	-440.29458	-440.339304	33.509	
O	 0.1833592421	 1.4165964143	 0.4499957661	-0.42184
C	 0.1210029546	 0.0083881372	 0.2670370999	-0.080216
C	-1.3062630736	-0.4669062642	-0.0251052855	-0.210695
C	-1.4373332399	-1.9881900845	-0.1564405472	-0.086386
C	-2.8742671648	-2.5364341103	-0.103118842	-0.250358
C	-2.735374253	-3.8664499493	-0.8462595826	-0.092834
O	-1.7006446514	-3.6435912162	-1.821808432	-0.238253
C	-0.9372171069	-2.5673259851	-1.4706484224	 0.418956
N	 0.0298056375	-2.1305308921	-2.157373038	-0.540383
H	 0.0896934852	 1.8245731117	-0.4162441452	 0.281995
H	 0.7958442294	-0.3327330691	-0.5259597568	 0.132623
H	 0.4662583245	-0.4292736239	 1.2117661341	 0.099605
H	-1.9562614559	-0.1172576612	 0.7858135854	 0.102101
H	-1.6647996759	 0.0043315082	-0.9491901029	 0.095861
H	-0.8531092186	-2.4678758505	 0.6436572319	 0.102468
H	-3.2564695626	-2.6562340907	 0.9127103299	 0.113654
H	-3.5507186639	-1.8666291747	-0.645644659	 0.116688
H	-2.423090877	-4.6788855883	-0.1777819807	 0.113015
H	-3.6352130983	-4.1799508731	-1.3802026122	 0.122224
H	 0.1605632085	-2.6982867883	-2.9963307108	 0.221775
74.808	81.6629	117.0592	166.6562	211.9904	275.2656	291.5194	334.0315	402.6194	478.0775	618.5526	656.3141	688.8452	757.3385	817.5434	884.6442	897.8371	952.4736	965.0289	1001.6998	1029.5324	1054.3975	1071.6036	1102.0322	1117.4245	1131.9176	1176.4576	1205.535	1234.7433	1272.2184	1281.2481	1307.7362	1338.7235	1340.0789	1370.9017	1404.9447	1412.5587	1419.1915	1480.9355	1494.3468	1517.7353	1524.6198	1769.4423	2994.3051	3021.4665	3026.7355	3032.358	3051.1545	3060.0025	3087.0804	3103.3636	3116.5701	3470.9851	3822.369
OCCC1CCOC1=N	OCC[C@H]1CCO[C]1[NH]	
InChI=1S/C6H11NO2/c7-6-5(1-3-8)2-4-9-6/h5,7-8H,1-4H2	InChI=1S/C6H11NO2/c7-6-5(1-3-8)2-4-9-6/h5,7-8H,1-4H2/t5-/m0/s1
