17
gdb 7845	4.28485	1.19051	1.00402	3.954	67.2	-0.2305	0.0387	0.2692	1167.5671	0.140561	-401.011924	-401.002945	-401.002001	-401.046777	31.66	
C	-0.1152370305	 1.4601909635	-0.0601169767	-0.484886
C	 0.0220695217	-0.0510602943	 0.0493818528	 0.409616
O	 1.0887506999	-0.5950257035	 0.2737037508	-0.377877
N	-1.1360093989	-0.7502368435	-0.1334378292	-0.324392
C	-1.1615286398	-2.1763794681	-0.1594098125	 0.057292
C	-1.9486392348	-2.9409270602	 0.8908341425	-0.335679
C	-2.4654907927	-2.8199798951	-0.5239810341	 0.055033
O	-3.5095956984	-1.9247992239	-0.7961836335	-0.426531
H	 0.3487976137	 1.9178657204	 0.8166914652	 0.150253
H	 0.4386131874	 1.8032107611	-0.9389469748	 0.150146
H	-1.1503272735	 1.8025494486	-0.1395086232	 0.11133
H	-1.9911314	-0.2817841577	-0.3885845435	 0.254692
H	-0.2349587671	-2.6086913404	-0.5167664359	 0.128576
H	-1.5718321813	-3.8992680301	 1.230888951	 0.121712
H	-2.4503261596	-2.3431438348	 1.6444289496	 0.116922
H	-2.4446280474	-3.7003236904	-1.1643375567	 0.098352
H	-4.3074747888	-2.2501489317	-0.3673278317	 0.295439
40.626	47.5925	116.4817	141.2835	244.8258	301.7752	331.6982	393.7298	480.1462	507.5752	584.1526	608.882	645.3921	767.2234	829.5202	910.3671	947.559	1002.0205	1006.3311	1027.2728	1051.1639	1066.7124	1125.0506	1165.4632	1194.3436	1239.2504	1270.7736	1303.3817	1367.4997	1396.2374	1414.9785	1470.1164	1476.13	1488.0078	1536.4487	1778.0308	3049.1474	3113.1294	3122.3154	3132.6716	3134.1153	3193.6613	3227.1671	3633.6941	3815.2828
CC(=O)NC1CC1O	CC(=O)N[C@H]1C[C@H]1O	
InChI=1S/C5H9NO2/c1-3(7)6-4-2-5(4)8/h4-5,8H,2H2,1H3,(H,6,7)	InChI=1S/C5H9NO2/c1-3(7)6-4-2-5(4)8/h4-5,8H,2H2,1H3,(H,6,7)/t4-,5+/m0/s1
