22
gdb 14799	12.52405	0.49828	0.48795	2.3339	76.77	-0.2505	0.0795	0.33	2241.7114	0.198172	-387.327601	-387.316937	-387.315993	-387.364289	36.077	
C	-0.0395669877	 1.381935766	-0.0300679997	-0.226323
O	-0.0054701226	-0.0231103746	-0.0151873545	-0.22986
C	 0.665184063	-0.5453506075	 1.1112374908	-0.049681
C	 0.6461387435	-2.0655221918	 1.0317932814	-0.194923
C	 1.3536503495	-2.73053672	 2.2166845343	-0.188471
C	 1.3355236307	-4.2599350652	 2.1386731251	-0.164098
C	 2.0381080194	-4.9235401726	 3.315192125	-0.073898
O	 1.9592004738	-6.3301484647	 3.1375633433	-0.421216
H	 0.9727341937	 1.8175276384	-0.0528091181	 0.100548
H	-0.5745375927	 1.6887037823	-0.932381434	 0.125128
H	-0.5645395407	 1.7897815887	 0.8491820495	 0.100549
H	 1.7054889541	-0.1746237585	 1.1437178983	 0.080441
H	 0.176775752	-0.2023485643	 2.0410406413	 0.080442
H	-0.3970824912	-2.3997160929	 0.9802963875	 0.106327
H	 1.1184650212	-2.3721965852	 0.0907785137	 0.106325
H	 2.3938348457	-2.3790037365	 2.2655690753	 0.094296
H	 0.8801323554	-2.4063656792	 3.1540439104	 0.094301
H	 0.3013134535	-4.6234525376	 2.1015227208	 0.105835
H	 1.816666629	-4.5960487518	 1.2120436941	 0.105826
H	 3.0869741419	-4.5857440318	 3.3604709031	 0.081973
H	 1.5576421858	-4.6133290999	 4.2581727694	 0.081971
H	 2.4028285527	-6.7521144814	 3.8788772129	 0.284507
50.41	79.7314	82.1488	108.3102	144.4194	155.8221	209.4917	240.2519	265.3561	277.9586	367.3352	497.7098	499.3109	744.6497	781.2575	861.2785	976.0885	983.0482	998.8071	1040.4258	1061.7362	1076.6966	1098.8782	1165.9721	1174.4166	1193.4227	1213.3214	1219.7679	1241.6918	1270.97	1287.0405	1308.3154	1322.4622	1328.9926	1342.2272	1399.6316	1428.6003	1465.0794	1482.106	1485.4283	1488.9994	1493.5331	1503.4679	1510.6383	1529.7451	1534.0584	2936.4069	2955.344	2960.9376	2964.8433	2979.7729	3004.1413	3004.7842	3029.63	3030.6527	3036.1267	3070.484	3082.3286	3110.8221	3829.9515
COCCCCCO	COCCCCCO	
InChI=1S/C6H14O2/c1-8-6-4-2-3-5-7/h7H,2-6H2,1H3	InChI=1S/C6H14O2/c1-8-6-4-2-3-5-7/h7H,2-6H2,1H3
