27
gdb 112726	2.28706	1.11268	0.94335	0.0637	96.05	-0.2706	0.0779	0.3484	1480.3831	0.25035	-353.567687	-353.556635	-353.555691	-353.602997	42.362	
C	 0.0853235286	 1.6376907215	 0.0366537957	-0.380105
C	-0.1107239104	 0.1183924809	-0.0298355497	-0.205528
C	 0.6704891496	-0.5256193317	-1.1698419817	 0.034453
C	 2.2205406869	-0.5770083893	-1.1082732982	-0.262717
C	 2.167576225	-1.9538067787	-1.8197622245	 0.022568
C	 3.187627583	-3.0238810371	-1.4565784075	-0.419421
C	 0.6599058342	-2.0826617275	-1.3896620237	 0.292775
C	 0.4690044201	-2.8762434687	-0.0932164845	-0.438013
C	-0.2970954875	-2.5949874096	-2.4634213688	-0.454935
H	 1.1396035247	 1.8951044254	 0.1851936087	 0.117971
H	-0.24391499	 2.1200781317	-0.8906283943	 0.111904
H	-0.4836395279	 2.0779774638	 0.8616063237	 0.10854
H	 0.1898493272	-0.326328831	 0.9267486532	 0.091398
H	-1.18005508	-0.1042045012	-0.1477138641	 0.091155
H	 0.3689223115	-0.0489891788	-2.112185424	 0.058856
H	 2.7833970525	 0.2247926009	-1.5932883394	 0.089355
H	 2.5786890585	-0.6714795335	-0.0763199148	 0.090565
H	 2.1947216497	-1.7922840315	-2.9045581942	 0.063237
H	 3.2172363176	-3.2103898524	-0.3783071111	 0.111684
H	 2.969835014	-3.9759639851	-1.9542821088	 0.110954
H	 4.1936943472	-2.7164202648	-1.7639498352	 0.111548
H	 1.1392354966	-2.54656004	 0.7062836744	 0.111524
H	-0.557468693	-2.7777991775	 0.2763159478	 0.110457
H	 0.6567156585	-3.9424832255	-0.2607557832	 0.109061
H	-0.1250999049	-3.6571013273	-2.6768047009	 0.108229
H	-1.3426377704	-2.4904240598	-2.148612995	 0.108555
H	-0.1741868111	-2.041952853	-3.4009336701	 0.10593
83.5314	104.0222	159.6412	190.6443	208.4182	228.7115	244.7835	253.1542	287.3249	305.8342	322.2486	368.5631	434.3882	466.4052	516.0247	577.6398	706.8901	761.3709	792.0574	874.4081	903.9978	926.7201	951.1942	954.8812	964.7363	994.1821	1001.761	1047.1605	1061.8667	1103.3994	1145.4154	1162.1502	1178.5072	1193.2079	1220.9114	1258.7392	1263.7456	1268.1151	1294.9514	1324.8641	1343.8855	1370.0663	1397.7648	1401.725	1408.6801	1413.995	1421.0666	1481.8073	1483.341	1487.9154	1494.7479	1494.8736	1496.9585	1499.578	1506.1755	1509.7812	1510.2886	3008.8162	3012.3278	3014.5887	3020.5145	3024.7484	3028.9859	3031.0477	3037.2515	3050.7493	3076.5776	3084.8517	3088.3618	3091.6855	3092.7494	3095.9436	3097.6848	3100.5155	3104.1944
CCC1CC(C)C1(C)C	CC[C@H]1C[C@@H](C)C1(C)C	
InChI=1S/C9H18/c1-5-8-6-7(2)9(8,3)4/h7-8H,5-6H2,1-4H3	InChI=1S/C9H18/c1-5-8-6-7(2)9(8,3)4/h7-8H,5-6H2,1-4H3/t7-,8+/m1/s1
