14
gdb 129711	3.40871	1.22971	0.90733	5.0617	68.85	-0.2244	-0.0472	0.1772	1184.6373	0.101221	-470.017599	-470.008932	-470.007988	-470.0513	30.464	
N	 0.1789371932	 1.4187090747	-0.1004400201	-0.616441
C	-0.0042718853	 0.0285594734	-0.0440388922	 0.283188
C	-1.1190637639	-0.7887597228	-0.051529021	 0.132228
O	-2.3918488897	-0.3113532198	-0.0723027461	-0.444919
C	-0.6177781502	-2.1199433971	-0.0225080522	 0.146278
C	-1.4015465875	-3.3517503534	-0.0106787466	 0.097589
O	-0.9735712298	-4.4802573722	 0.0311064914	-0.265649
N	 0.7295789245	-2.1170209511	 0.0049689792	-0.266454
N	 1.0572098002	-0.8326235587	-0.0208688674	-0.203901
H	 0.204489946	 1.8439506793	 0.8220717714	 0.255399
H	-0.5781021098	 1.8550494593	-0.6151453932	 0.260532
H	-3.008792107	-1.0422477265	-0.1756462063	 0.306637
H	-2.5065542547	-3.1711028551	-0.0443140462	 0.032038
H	 2.0289492042	-0.56303553	-0.0323093806	 0.283475
76.3469	106.2422	177.3867	188.7794	221.4177	257.5962	329.2756	358.4654	394.4228	529.1742	588.9736	681.9918	689.0139	732.1288	780.7854	812.2946	835.7539	1020.0357	1030.4498	1173.4143	1201.2867	1269.6555	1302.102	1329.9552	1411.73	1433.5284	1489.7995	1536.7193	1650.7204	1673.3905	1806.8623	2788.6044	3495.9036	3579.1406	3642.8062	3834.5979
NC1=C(O)C(C=O)=NN1	Nc1c(O)c(C=O)n[nH]1	
InChI=1S/C4H5N3O2/c5-4-3(9)2(1-8)6-7-4/h1,9H,(H3,5,6,7)	InChI=1S/C4H5N3O2/c5-4-3(9)2(1-8)6-7-4/h1,9H,(H3,5,6,7)
