14
gdb 43788	3.85624	1.32013	1.15895	4.4227	66.6	-0.2884	-0.0131	0.2753	1019.7111	0.102323	-436.708085	-436.701292	-436.700348	-436.739381	26.321	
O	-0.0641681939	 0.0769195403	-0.0378425911	-0.329392
C	 0.0356957459	 1.2613288838	-0.0053823259	 0.467786
O	-1.0449301285	 2.1304842921	 0.01056686	-0.280536
C	-0.3768738282	 3.4264587035	 0.0499422232	 0.331842
C	 0.7345594966	 3.2632068066	-1.0214222672	-0.27013
C	 1.2283104632	 2.2078513118	 0.0281856028	-0.21677
C	 0.7198841442	 3.2055301975	 1.1260810644	-0.270123
C	-1.3321394848	 4.5125684956	 0.072630443	 0.211625
N	-2.0477401982	 5.4185854223	 0.0921159172	-0.324261
H	 0.4154897236	 2.9159266494	-2.0050070958	 0.14256
H	 1.3915194601	 4.1302533324	-1.0935403661	 0.137735
H	 2.21669912	 1.7603884222	 0.0229250822	 0.119368
H	 1.3754840125	 4.0672113517	 1.2535989364	 0.137735
H	 0.3875400376	 2.806072511	 2.0851590171	 0.142561
142.9329	150.0848	216.7809	428.3613	444.3077	506.8536	521.5583	555.3936	556.46	668.5999	756.538	795.5817	847.7057	883.8937	931.3236	945.3539	966.7225	1023.5291	1033.3797	1078.5074	1096.3941	1159.3054	1197.2905	1226.5318	1231.4632	1273.5557	1295.1676	1478.3456	1513.3176	1930.3723	2372.663	3086.862	3091.0163	3159.3989	3163.1661	3185.7285
O=C1OC2(CC1C2)C#N	O=C1O[C@@]2(C[C@H]1C2)C#N	
InChI=1S/C6H5NO2/c7-3-6-1-4(2-6)5(8)9-6/h4H,1-2H2	InChI=1S/C6H5NO2/c7-3-6-1-4(2-6)5(8)9-6/h4H,1-2H2/t4-,6+
