19
gdb 97751	3.8174	0.7852	0.75251	1.1814	85.82	-0.2366	0.0325	0.2692	1583.766	0.158856	-385.820662	-385.811529	-385.810585	-385.856173	33.119	
O	 0.1143017007	 0.9754698867	-0.8582968129	-0.409444
C	-0.0615026996	 0.073630086	 0.2301469023	-0.218997
C	-1.3929105527	-0.5131985808	 0.179055226	 0.10524
C	-2.4937379818	-1.0046014242	 0.1604480647	 0.0865
C	-3.8043731153	-1.5873668615	 0.1280313122	-0.207917
C	-4.4500200088	-2.1220055383	-1.1399245504	-0.056848
C	-3.3959437404	-2.7380932677	-2.0666985948	-0.232251
C	-2.9957539277	-3.7241807314	-0.9178814127	-0.230582
C	-4.0589350189	-3.0785873445	-0.0223715151	-0.060744
H	 1.002191604	 1.3406074993	-0.7852122258	 0.287173
H	 0.6903751484	-0.7322716952	 0.2009378953	 0.113448
H	 0.0656402945	 0.5892201677	 1.1964713461	 0.114714
H	-4.5263857642	-1.110455292	 0.7870932382	 0.107536
H	-5.4311705859	-1.7694607062	-1.4355010004	 0.088384
H	-3.8378043856	-3.2560985007	-2.9202219564	 0.101652
H	-2.6196866193	-2.0560894461	-2.4232283061	 0.116239
H	-3.2293274069	-4.7618809802	-1.1646448266	 0.101809
H	-1.9660923819	-3.6664113979	-0.5548062437	 0.106947
H	-4.6859864087	-3.5943262929	 0.69555889	 0.087142
24.1402	80.5353	93.6722	184.1723	221.2721	257.9907	299.5609	389.464	453.1439	530.0392	599.9001	741.4782	744.0906	783.7127	785.1096	830.9474	934.5217	945.4696	958.8038	992.9188	1019.5267	1025.7489	1038.7953	1071.985	1086.499	1102.6881	1147.84	1208.7088	1225.7092	1242.9465	1247.4464	1256.9381	1258.1681	1304.3259	1338.3717	1412.1198	1459.8954	1474.7226	1497.0159	1501.3729	2357.8927	2959.6339	2976.7591	3060.4942	3067.1455	3107.5992	3125.0624	3132.8756	3171.61	3184.5297	3814.1476
OCC#CC1C2CCC12	OCC#C[C@H]1[C@H]2CC[C@@H]12	
InChI=1S/C8H10O/c9-5-1-2-6-7-3-4-8(6)7/h6-9H,3-5H2	InChI=1S/C8H10O/c9-5-1-2-6-7-3-4-8(6)7/h6-9H,3-5H2/t6-,7+,8-
