20
gdb 83664	2.18787	1.68799	1.29033	4.0357	81.77	-0.2833	0.0282	0.3114	1080.2215	0.172151	-366.007617	-365.999171	-365.998227	-366.041219	32.216	
C	 0.244844893	 1.6459796487	-0.1311475513	-0.420227
C	 0.1343140371	 0.1336314937	-0.0247077716	 0.016875
C	 0.5934135544	-0.7807012597	-1.1940948347	-0.03185
C	 1.8905725419	-0.3772382023	-1.9528407767	-0.234699
C	 2.7319729848	-1.3035737121	-1.0220701881	-0.23622
C	 1.4608095947	-1.6400061547	-0.2079382622	-0.025346
C	 1.0995498072	-0.6491489075	 0.9559004902	-0.194858
C	 2.1986292876	 0.0991728358	 1.5405243813	 0.293857
N	 3.0788110914	 0.7060937643	 1.9834631347	-0.351188
H	 1.2723100989	 1.9742078783	-0.309617518	 0.13896
H	-0.3790109279	 2.0177743623	-0.9511056412	 0.118177
H	-0.0932323473	 2.1271570619	 0.7923710809	 0.126346
H	-0.8921160387	-0.1302164472	 0.2479741409	 0.086432
H	-0.2037805788	-1.206646215	-1.8046508452	 0.068532
H	 1.8931927845	-0.6838290912	-3.0010410399	 0.106337
H	 2.1458468191	 0.684080004	-1.916258154	 0.109445
H	 3.1324273137	-2.1772612311	-1.5414580761	 0.104564
H	 3.5460761316	-0.832824966	-0.4658854192	 0.128515
H	 1.2635756096	-2.6874539701	 0.020042306	 0.075332
H	 0.5539917832	-1.1365877223	 1.7677799543	 0.121018
35.6469	139.0316	165.254	199.1785	258.95	332.7041	361.9494	467.1719	517.2176	595.1874	626.7028	720.8688	752.3282	770.6961	843.0545	858.8063	878.2373	948.3835	965.939	979.8583	1005.1933	1045.3881	1072.3058	1108.6655	1123.72	1146.9312	1160.5796	1206.8728	1213.656	1233.1586	1264.4588	1270.7944	1287.8625	1300.2625	1329.0081	1337.0435	1364.7766	1415.8365	1476.841	1489.5446	1493.2358	1506.4168	2343.0724	3036.6637	3049.5682	3064.4313	3070.6807	3076.9646	3092.3738	3101.217	3106.9965	3109.8148	3117.3067	3126.7249
CC1C2CCC2C1C#N	C[C@H]1[C@H]2CC[C@H]2[C@H]1C#N	
InChI=1S/C8H11N/c1-5-6-2-3-7(6)8(5)4-9/h5-8H,2-3H2,1H3	InChI=1S/C8H11N/c1-5-6-2-3-7(6)8(5)4-9/h5-8H,2-3H2,1H3/t5-,6+,7+,8-/m0/s1
