19
gdb 93422	2.63252	1.43238	1.11537	5.9143	80.22	-0.2057	-0.0019	0.2038	1138.1156	0.161858	-419.25346	-419.244796	-419.243852	-419.286847	32.94	
C	-0.3304717416	 1.5812167539	-0.1116577495	-0.378304
C	-0.0165452586	 0.0859256161	 0.0300069365	 0.025132
C	 0.8002709143	-0.4633288636	-1.1552596361	-0.183286
N	 1.9853281224	 0.3077974454	-1.4620217359	-0.326133
C	 3.1343253206	 0.3687491281	-0.6897059031	 0.355084
O	 4.186390218	 0.7352754968	-1.1968015695	-0.396736
C	 3.044613498	 0.0197534552	 0.7313810444	-0.200015
C	 1.9804186129	-0.1953321934	 1.5413865611	 0.010519
N	 0.6422382161	-0.2329049399	 1.2897212164	-0.298533
H	 0.5894360158	 2.1688498437	-0.1314033321	 0.149219
H	-0.8788968572	 1.7715057174	-1.0404925814	 0.114514
H	-0.9478953571	 1.9253697456	 0.7235884462	 0.108819
H	-0.9622013272	-0.4716425339	 0.0373971818	 0.086585
H	 1.0349731809	-1.5180381855	-0.95426203	 0.118952
H	 0.1587946374	-0.436691637	-2.0400035892	 0.114523
H	 2.1735584052	 0.5081470595	-2.4326576611	 0.239753
H	 4.0176250805	-0.006871629	 1.2053489036	 0.099854
H	 2.1975569659	-0.3975033965	 2.5877637054	 0.112996
H	 0.0442322537	-0.301925303	 2.0952164925	 0.247057
65.8798	101.3821	198.4642	241.5468	288.5627	314.587	370.0654	401.2608	447.3963	489.0144	509.5385	564.7416	726.1926	732.4379	740.9248	809.1913	824.9081	880.8914	930.9129	949.9529	980.5873	1050.1354	1058.3504	1131.5633	1168.0789	1186.1574	1290.7487	1310.8553	1333.7473	1345.4117	1385.5491	1399.9436	1411.9439	1448.9101	1456.0207	1485.0982	1490.5718	1497.3057	1548.9712	1685.9055	1749.0193	3005.4113	3021.1646	3040.384	3093.8816	3105.7701	3138.6082	3155.0568	3212.1621	3619.3907	3652.7939
CC1CNC(=O)C=CN1	C[C@H]1CNC(=O)C=CN1	
InChI=1S/C6H10N2O/c1-5-4-8-6(9)2-3-7-5/h2-3,5,7H,4H2,1H3,(H,8,9)	InChI=1S/C6H10N2O/c1-5-4-8-6(9)2-3-7-5/h2-3,5,7H,4H2,1H3,(H,8,9)/t5-/m0/s1
