21
gdb 41738	3.54434	1.39847	1.20449	1.5999	81.11	-0.2207	0.0872	0.308	1103.5518	0.18627	-387.098043	-387.090745	-387.0898	-387.129411	30.06	
C	 0.3009060327	 1.4598580111	-0.4048902527	-0.223253
C	 1.5193766061	 1.939264646	 0.4228344702	-0.227269
C	 2.1253049187	 0.672550648	 1.0144503261	-0.131922
C	 2.3448131897	-0.4924482087	 0.0828782671	 0.071887
O	 3.1394992908	-1.5593211373	 0.5373792917	-0.271786
C	 2.604959516	-2.0278403758	 1.7780669084	-0.086238
C	 1.11208207	-1.6352749867	 1.8026953539	-0.341091
C	 1.0708096454	-0.4321481208	 0.8843356873	 0.333136
C	-0.1870210754	 0.1686907606	 0.2918256341	-0.303257
H	-0.4802068887	 2.2209330875	-0.4774920732	 0.097322
H	 0.6122656546	 1.2290195332	-1.429055259	 0.106525
H	 2.2267950718	 2.515671802	-0.1836061329	 0.098597
H	 1.191836878	 2.5925132265	 1.2405207869	 0.099924
H	 2.7608057717	 0.7585490097	 1.8902700886	 0.081018
H	 2.4139610636	-0.3708072824	-0.9935740259	 0.092534
H	 2.7765066159	-3.1066717666	 1.8311515645	 0.107695
H	 3.1384294014	-1.5603792681	 2.6175882567	 0.098109
H	 0.4851897435	-2.4346388749	 1.3896547336	 0.10463
H	 0.7653548695	-1.432123225	 2.821287816	 0.101079
H	-0.8938489912	 0.4074035723	 1.0973470459	 0.096901
H	-0.7040986144	-0.5068484807	-0.3994955375	 0.095459
184.6406	201.9872	214.6487	270.1541	338.6556	359.3815	462.7156	610.5909	636.8245	699.0868	705.611	841.017	866.4938	873.8302	889.5334	914.6131	930.2731	958.7734	967.6503	998.3179	1011.8755	1032.8918	1069.2143	1081.4884	1122.6052	1129.6254	1173.2242	1181.5715	1217.7895	1221.3067	1247.012	1261.5265	1274.8857	1285.2801	1317.4475	1329.9102	1339.9846	1364.285	1393.0966	1431.864	1491.2193	1492.4991	1496.9465	1512.6585	1526.6244	3001.2157	3018.1438	3029.945	3031.7936	3044.9147	3061.3746	3069.0236	3073.589	3086.0627	3099.3715	3157.0388	3159.0313
C1CC2C3OCCC23C1	C1C[C@@H]2[C@H]3OCC[C@@]23C1	
InChI=1S/C8H12O/c1-2-6-7-8(6,3-1)4-5-9-7/h6-7H,1-5H2	InChI=1S/C8H12O/c1-2-6-7-8(6,3-1)4-5-9-7/h6-7H,1-5H2/t6-,7-,8+/m1/s1
