20
gdb 77368	2.4336	1.67041	1.37739	1.6295	78.91	-0.2401	0.0656	0.3056	1055.7891	0.169902	-403.107034	-403.098182	-403.097238	-403.139776	34.278	
C	-0.1038457853	 1.4470283864	-0.0185309325	-0.513542
C	 0.0788108011	-0.0358319317	 0.0741293477	 0.334207
C	 0.8435807554	-0.841212866	-0.9256967895	-0.078221
C	 1.1271720926	-2.2168093788	-0.3550102799	-0.281269
C	-0.2812926437	-2.0772767709	 0.2584968278	 0.299333
C	-1.1837777582	-3.2531350454	 0.4925935899	-0.507602
C	-0.1526287465	-0.9168000925	 1.2783941332	 0.026515
O	 0.8636385372	-0.9297638643	 2.2561648587	-0.441114
N	-0.6506693699	-1.0079010939	-0.8299776504	-0.238405
H	 0.7038001837	 1.9691356764	 0.5058861617	 0.130331
H	-0.0998444211	 1.7741493781	-1.0627218417	 0.127992
H	-1.0555460226	 1.7552042091	 0.4272632994	 0.121243
H	 1.2930664259	-0.3712095932	-1.7938667254	 0.090263
H	 1.1425593377	-2.9773237325	-1.1407650164	 0.100843
H	 1.9708578139	-2.3487351038	 0.3275037093	 0.10747
H	-0.7850178369	-3.8895095941	 1.2920853066	 0.116388
H	-2.1877804221	-2.9262437115	 0.7835360687	 0.122776
H	-1.2760318779	-3.8650846653	-0.4101032422	 0.128182
H	-1.1354431689	-0.694177263	 1.7184821387	 0.070004
H	 0.5350670158	-1.3878610831	 3.0358689565	 0.284605
162.7905	172.9615	185.4297	217.6567	247.1785	248.7136	263.6099	337.6024	353.6107	521.1717	579.2797	595.0776	645.2344	735.5751	760.9706	806.2255	856.3384	899.0533	945.9167	973.2038	1003.197	1016.5541	1025.1945	1080.9957	1120.5319	1123.9711	1130.275	1157.5729	1228.6434	1232.3354	1247.8492	1270.2221	1327.0567	1355.7011	1395.5446	1411.576	1417.1209	1465.2241	1479.8719	1483.2671	1488.5425	1493.2624	1494.5805	3003.637	3024.884	3031.9003	3054.522	3091.2862	3096.9826	3103.4178	3108.4167	3111.3	3173.4625	3821.7965
CC12C3CC(C)(C1O)N23	C[C@@]12[C@H]3C[C@@](C)([C@H]1O)N23	
InChI=1S/C7H11NO/c1-6-3-4-7(2,5(6)9)8(4)6/h4-5,9H,3H2,1-2H3	InChI=1S/C7H11NO/c1-6-3-4-7(2,5(6)9)8(4)6/h4-5,9H,3H2,1-2H3/t4-,5-,6+,7-,8?/m1/s1
