19
gdb 94404	2.47944	1.4499	1.21402	3.3722	75.94	-0.2268	-0.0309	0.1959	1121.0709	0.15782	-423.017285	-423.008468	-423.007524	-423.051602	32.449	
C	-0.306125233	 1.4135124484	-0.0686808864	-0.409416
C	 0.0937387099	-0.0535034963	-0.0921531219	-0.107157
C	 1.4240563715	-0.3932255988	-0.8000882423	-0.085786
O	 2.0347420411	-0.7984082048	 0.4447087947	-0.309233
C	 0.8171699711	-0.6302034723	 1.1658533204	 0.348712
C	 0.8259069439	 0.069675219	 2.5517311803	-0.317141
C	-0.1121607303	-1.0300336305	 3.1317161286	-0.350311
C	 0.1647479162	-1.8532252738	 1.8578038071	 0.3421
O	 0.0155530908	-2.997648152	 1.5453325053	-0.299005
H	 0.5274476721	 2.0508010093	 0.2442844047	 0.126975
H	-0.6183338168	 1.7381388888	-1.0672025545	 0.124062
H	-1.1446398023	 1.5927921817	 0.6126076353	 0.121389
H	-0.743748281	-0.6754288865	-0.4180326756	 0.095161
H	 1.3781805772	-1.2200864276	-1.5173312861	 0.114215
H	 1.9526875057	 0.4537125144	-1.2542973116	 0.101721
H	 1.8285735902	 0.0330979004	 2.9842336259	 0.127961
H	 0.4607886065	 1.0969273622	 2.5815970093	 0.109052
H	 0.181565864	-1.505023938	 4.0703323797	 0.135495
H	-1.1621545267	-0.7296510935	 3.208775407	 0.131206
43.6956	70.1639	141.5323	219.667	241.467	262.6852	346.8109	393.3637	470.7802	518.048	599.5403	710.4452	748.6277	764.2175	850.499	885.8737	918.7584	930.526	959.3274	1014.1968	1026.4875	1050.7976	1087.7997	1121.6949	1145.4448	1156.5198	1186.3423	1189.5919	1207.0874	1228.0102	1266.293	1278.4242	1343.3971	1371.2737	1411.3341	1440.4385	1476.9324	1495.3466	1496.5344	1522.9502	1890.2553	3020.7824	3030.3434	3059.7977	3065.0207	3078.099	3079.269	3096.8078	3105.861	3117.2777	3138.423
CC1COC11CCC1=O	C[C@H]1CO[C@]21CCC2=O	
InChI=1S/C7H10O2/c1-5-4-9-7(5)3-2-6(7)8/h5H,2-4H2,1H3	InChI=1S/C7H10O2/c1-5-4-9-7(5)3-2-6(7)8/h5H,2-4H2,1H3/t5-,7-/m0/s1
