20
gdb 86579	2.86924	1.1504	0.91599	1.209	76.32	-0.2314	-0.0198	0.2117	1325.3005	0.168767	-440.284565	-440.274464	-440.273519	-440.320457	36.137	
C	-0.7583851731	 1.0393028067	-0.0627180772	-0.387882
C	 0.2320804818	-0.1022353959	 0.0763366342	 0.016198
N	 1.5549427334	 0.1140830314	-0.5759890971	-0.33548
C	 2.26758988	-0.4517180725	 0.580088794	-0.122805
C	 0.9611999797	-0.3094570355	 1.4409487884	 0.120786
O	 0.9480972184	 0.7520818131	 2.3564565978	-0.427555
C	 2.731541692	-1.8907831391	 0.4204818138	 0.366438
C	 3.569116579	-2.4567489105	 1.5497720831	-0.481643
O	 2.4410626822	-2.5351764246	-0.5639701089	-0.309891
H	-0.3251183854	 1.9895840805	 0.2630558868	 0.104392
H	-1.0554528811	 1.1554640261	-1.1099593292	 0.121709
H	-1.6594943951	 0.8495379503	 0.5294724702	 0.120523
H	-0.2388269676	-1.0447027821	-0.2346609965	 0.081004
H	 1.6928506201	-0.4491269316	-1.4113034236	 0.227098
H	 3.1007935474	 0.1591516007	 0.9549531377	 0.081057
H	 0.6602718448	-1.1932351392	 2.0074445054	 0.096204
H	 1.2089879223	 1.5548180193	 1.8913234588	 0.291168
H	 3.1560234084	-2.1854955714	 2.5267609696	 0.144268
H	 3.6420270099	-3.5408374085	 1.455593479	 0.145399
H	 4.576645463	-2.0265917272	 1.5005524237	 0.149012
40.7088	68.6454	102.3028	150.2843	182.8223	223.8933	251.2409	330.544	337.0134	381.695	420.078	533.369	588.5785	617.9268	704.2005	777.1563	839.1859	881.9727	928.7454	952.7599	978.3334	1028.0052	1037.7298	1088.463	1093.1138	1134.5874	1164.1398	1182.7248	1199.7758	1235.1058	1286.7222	1310.5981	1331.9837	1376.6577	1382.5097	1402.9765	1421.3224	1440.6077	1463.09	1474.2107	1482.6694	1494.4614	1797.8254	3005.314	3009.0686	3036.784	3037.7586	3090.4297	3099.2126	3106.704	3111.2471	3152.7938	3505.2853	3804.6401
CC1NC(C1O)C(C)=O	C[C@H]1N[C@@H]([C@H]1O)C(=O)C	
InChI=1S/C6H11NO2/c1-3-6(9)5(7-3)4(2)8/h3,5-7,9H,1-2H3	InChI=1S/C6H11NO2/c1-3-6(9)5(7-3)4(2)8/h3,5-7,9H,1-2H3/t3-,5-,6+/m1/s1
