15
gdb 16328	3.18813	1.94375	1.38736	3.2101	61.89	-0.2426	-0.022	0.2206	883.686	0.118203	-399.759658	-399.752046	-399.751101	-399.792469	27.637	
O	 0.0927755158	 1.3764234981	 0.5628320314	-0.408009
C	 0.0679136203	 0.1157069933	-0.0851125771	-0.202355
C	-1.3014576137	-0.4915535228	-0.1015948094	 0.199598
N	-1.9736974832	-1.0386271831	 1.1281179171	-0.352215
C	-1.828126689	-1.9060280776	-0.04445987	-0.121749
C	-3.0307970144	-1.5787580867	-0.9443166147	-0.344678
C	-2.4414444127	-0.1409707049	-1.0333902324	 0.402366
O	-2.6598329358	 0.8106907732	-1.727273685	-0.316726
H	-0.4918618854	 1.9639344032	 0.070898427	 0.299442
H	 0.4416919794	 0.1879623022	-1.1179556678	 0.107357
H	 0.7598074478	-0.5292084372	 0.4691948221	 0.110866
H	-1.2158013138	-1.2434865819	 1.7815364913	 0.240622
H	-1.2520152427	-2.8217977559	-0.0213187876	 0.114992
H	-3.0150866233	-2.0594107945	-1.9265334693	 0.132594
H	-4.0131447094	-1.6906578354	-0.4816560156	 0.137896
33.2301	121.0955	177.859	244.1396	369.0577	386.7382	443.7742	503.3948	558.0952	650.4994	724.3146	778.8278	865.8544	900.6771	930.8482	987.3284	1012.3457	1019.2996	1054.9963	1066.9898	1099.829	1165.1537	1182.4407	1215.8874	1292.1648	1344.5612	1377.1678	1405.5475	1430.5652	1446.6512	1490.9319	1882.8753	2988.5135	3059.5996	3070.0336	3133.0983	3207.1035	3457.1212	3806.4622
OCC12NC1CC2=O	OC[C@]12N[C@H]1CC2=O	
InChI=1S/C5H7NO2/c7-2-5-3(6-5)1-4(5)8/h3,6-7H,1-2H2	InChI=1S/C5H7NO2/c7-2-5-3(6-5)1-4(5)8/h3,6-7H,1-2H2/t3-,5-/m0/s1
