18
gdb 52949	3.13215	0.9671	0.86535	1.1065	85.42	-0.2013	0.0354	0.2367	1421.1037	0.145875	-401.872364	-401.862797	-401.861853	-401.90797	34.394	
C	 0.0170273058	 1.4932322175	-0.0087430778	-0.507262
C	-0.0139488695	 0.039070887	 0.0030830709	 0.172128
C	-0.0410587349	-1.1670243119	 0.0213125056	-0.140473
C	-0.0607629375	-2.5836764697	-0.003553562	 0.181217
C	-0.3933791571	-3.47641741	 1.1805254995	-0.37797
C	-1.1960621738	-3.6258613023	-0.0773521854	 0.296667
O	-2.5634782017	-3.4723742767	-0.1409634782	-0.450798
C	-0.3822690244	-4.331399851	-1.1594448133	-0.226882
N	 0.7778340398	-3.3978951283	-0.927812535	-0.363536
H	 0.8196509482	 1.8618983784	-0.6573254859	 0.150706
H	-0.9252150487	 1.912432733	-0.379748746	 0.14935
H	 0.191369365	 1.8993463713	 0.9940416679	 0.148681
H	 0.3298796788	-4.2277249169	 1.4896579991	 0.116588
H	-0.9167606686	-2.9623841163	 1.9808810148	 0.123055
H	-2.9606992387	-3.9220886733	 0.6122583591	 0.290135
H	-0.1401586887	-5.3892749416	-1.0066842385	 0.100502
H	-0.8447535092	-4.2002558606	-2.142483797	 0.113733
H	 0.9622500251	-2.8631283886	-1.7716790279	 0.22416
27.5575	78.4202	98.6433	164.2246	239.6428	242.1642	321.1514	367.868	385.6842	414.8342	507.7428	527.554	598.2544	663.3247	754.039	816.3954	842.9429	920.413	955.5234	995.0642	1009.3042	1049.1371	1050.9161	1053.5797	1074.5107	1113.7223	1173.358	1206.14	1278.8657	1296.8476	1327.2307	1393.7573	1409.9479	1423.5531	1474.5105	1479.0645	1484.4289	1513.9318	2356.3722	3023.7715	3033.2368	3082.6321	3086.3378	3089.5641	3103.994	3207.5767	3511.5602	3802.212
CC#CC12CC1(O)CN2	CC#C[C@@]12C[C@]1(O)CN2	
InChI=1S/C7H9NO/c1-2-3-6-4-7(6,9)5-8-6/h8-9H,4-5H2,1H3	InChI=1S/C7H9NO/c1-2-3-6-4-7(6,9)5-8-6/h8-9H,4-5H2,1H3/t6-,7+/m1/s1
