16
gdb 107780	2.88905	1.67572	1.30507	3.6767	67.37	-0.2529	-0.0063	0.2466	970.9713	0.124677	-437.835077	-437.827596	-437.826652	-437.867204	28.629	
O	 0.0347722584	 1.3906580808	-0.0773972903	-0.418184
C	 0.0939394182	-0.0094711781	 0.1300359916	-0.197296
C	-1.3003308433	-0.5864898678	 0.1274337979	 0.149628
C	-2.3532898016	-0.3818638399	 1.2581280854	-0.280673
C	-3.051061068	-1.6150954218	 0.6723645363	-0.032885
C	-1.8377454722	-2.0757517099	-0.0052014218	-0.118657
N	-3.0157731793	-1.5462116982	-0.8418132286	-0.204907
C	-2.1698753196	-0.39564578	-1.1037259387	 0.434032
O	-2.1015688129	 0.2940830471	-2.0781104564	-0.349945
H	-0.3943742685	 1.5268391382	-0.9324263308	 0.302143
H	 0.7004820105	-0.5119950714	-0.6404584733	 0.101396
H	 0.5915331286	-0.1662953498	 1.0927246649	 0.114265
H	-1.9373242614	-0.6037576772	 2.244291928	 0.121126
H	-2.8884840622	 0.5715831791	 1.2793465614	 0.125151
H	-3.8750829418	-2.188443174	 1.0757511563	 0.121945
H	-1.3827960149	-3.0282230571	-0.2318967019	 0.132859
88.3537	138.4356	181.9853	257.3968	377.7998	411.5198	486.9113	504.4433	635.5335	676.2825	723.6715	760.3281	821.4718	853.4537	886.6134	898.4849	915.3886	961.768	1010.4316	1035.8094	1041.3623	1076.3748	1102.7129	1139.7638	1173.7135	1213.1019	1244.9323	1262.9214	1323.5571	1354.0883	1388.2637	1441.4301	1497.2773	1508.4017	1889.3898	2978.3292	3058.7097	3070.7094	3118.0709	3208.4393	3241.3704	3767.7495
OCC12CC3C1N3C2=O	OC[C@]12C[C@@H]3[C@H]1N3C2=O	
InChI=1S/C6H7NO2/c8-2-6-1-3-4(6)7(3)5(6)9/h3-4,8H,1-2H2	InChI=1S/C6H7NO2/c8-2-6-1-3-4(6)7(3)5(6)9/h3-4,8H,1-2H2/t3-,4-,6-,7?/m1/s1
