15
gdb 130146	5.91188	0.90187	0.79089	3.5787	72.63	-0.2115	0.0146	0.2261	1355.833	0.114773	-413.023588	-413.015263	-413.014319	-413.057674	30.229	
N	-0.3873769784	 1.3109418512	 0.5289577472	-0.58844
C	-0.00970815	 0.0358576688	 0.115335063	 0.38746
N	-0.8397658716	-0.7245113163	-0.5941724916	-0.305705
N	-0.1786784697	-1.9011535291	-0.7295647889	-0.258235
C	 1.0426535866	-1.8905125134	-0.1526334811	 0.420355
C	 1.9590247631	-3.0848980322	-0.1513666367	-0.459641
C	 1.5546627223	-4.1028956071	-1.1209417362	 0.268245
N	 1.1983477911	-4.8933287827	-1.8844573276	-0.306189
C	 1.197670989	-0.6437796274	 0.4189133453	-0.397055
H	 0.36580537	 1.9843127898	 0.5009333323	 0.246583
H	-1.1885293406	 1.6487041283	 0.0110592982	 0.252746
H	-0.5928636958	-2.6428502817	-1.269849417	 0.285902
H	 2.9844290269	-2.7722155792	-0.3777522907	 0.175815
H	 1.9902582216	-3.5525645962	 0.841247748	 0.177873
H	 2.0424651554	-0.2831329326	 0.9833479058	 0.100286
21.207	110.3345	182.2168	258.7822	282.8334	350.2699	376.0291	423.8173	472.9647	489.8842	651.6778	669.3488	693.8948	749.8233	772.0321	793.4034	942.9536	948.3627	1000.7673	1043.8202	1096.2453	1176.4308	1207.0427	1220.4704	1297.531	1333.5672	1446.8987	1461.1076	1520.0192	1538.9213	1611.8735	1650.5637	2365.5319	3031.0649	3071.6227	3260.9481	3546.9712	3643.5498	3664.6036
NC1=NNC(CC#N)=C1	Nc1n[nH]c(CC#N)c1	
InChI=1S/C5H6N4/c6-2-1-4-3-5(7)9-8-4/h3H,1H2,(H3,7,8,9)	InChI=1S/C5H6N4/c6-2-1-4-3-5(7)9-8-4/h3H,1H2,(H3,7,8,9)
