19
gdb 99979	2.21951	1.33727	1.01135	2.7301	71.72	-0.2628	0.0272	0.29	1223.16	0.157493	-456.345744	-456.335301	-456.334357	-456.380621	38.341	
C	-0.0373787286	 1.574984803	-0.0421912704	-0.427304
C	-0.0140756237	 0.0401695962	-0.0234912873	 0.375093
O	 0.6849205973	-0.4371688311	 1.1200377004	-0.47987
C	-1.4446977557	-0.523168588	 0.0076744363	-0.137564
O	-1.9890870297	-0.1452040786	 1.2706466563	-0.433171
C	 0.777684355	-0.5031514788	-1.2410177986	-0.144545
N	 2.1557091132	-0.0178987724	-1.1801053393	-0.506853
C	 0.7006502699	-1.9810532842	-1.3150517646	 0.275964
N	 0.6832780047	-3.1331187386	-1.4148034846	-0.342745
H	 0.9800491232	 1.9638952661	-0.0094571677	 0.142904
H	-0.5274331707	 1.9525159422	-0.9461257995	 0.107202
H	-0.5959891434	 1.9378411277	 0.8238020348	 0.130314
H	 0.0548776383	-0.3863649636	 1.8507938588	 0.291272
H	-2.0391315752	-0.1094759861	-0.8200875047	 0.097102
H	-1.4155447888	-1.6144199286	-0.0907746681	 0.12489
H	-2.7265946296	-0.7270012549	 1.4725155946	 0.301091
H	 0.3131616446	-0.1108055933	-2.1536827701	 0.124893
H	 2.5655631816	-0.3311019484	-0.3043820075	 0.258095
H	 2.7023916077	-0.4210610686	-1.9339970389	 0.243232
75.7169	114.2252	152.161	201.1738	217.7393	249.7943	254.6774	295.3225	316.028	343.9881	378.2125	409.3762	412.7375	443.7756	509.157	604.0551	678.5386	796.4179	852.624	908.0894	939.3153	967.6838	993.2184	1060.7833	1096.8577	1140.7175	1157.5659	1164.401	1226.7906	1276.9955	1289.6818	1338.1942	1378.8962	1394.9527	1408.8006	1451.8961	1489.4226	1496.2287	1515.8451	1651.3759	2342.6987	2996.6696	3042.6907	3048.7978	3062.9134	3118.9608	3160.3489	3501.8507	3585.0768	3768.683	3849.1232
CC(O)(CO)C(N)C#N	C[C@@](O)(CO)[C@@H](N)C#N	
InChI=1S/C5H10N2O2/c1-5(9,3-8)4(7)2-6/h4,8-9H,3,7H2,1H3	InChI=1S/C5H10N2O2/c1-5(9,3-8)4(7)2-6/h4,8-9H,3,7H2,1H3/t4-,5+/m0/s1
