21
gdb 57607	3.30311	0.98027	0.92776	3.0856	82.27	-0.2551	0.0294	0.2844	1348.6464	0.181697	-383.264516	-383.254641	-383.253697	-383.299187	36.804	
C	-0.1234832324	 1.6734332305	 0.0026696722	-0.41665
C	 0.0922404634	 0.1501591419	 0.0594546771	 0.213816
C	 0.8628043427	-0.2163415319	 1.3373307078	-0.44801
C	-1.2883136847	-0.5791697043	 0.051354511	-0.345686
C	-2.1436029978	-0.2366192646	 1.1850400757	 0.267223
N	-2.8057438802	 0.0451269686	 2.0897939803	-0.321001
C	 0.7997670469	-0.2796453031	-1.2280536743	 0.01263
C	 2.2686379408	-0.4245842056	-1.3632588127	-0.25782
N	 1.3931137657	-1.6122662568	-1.421687202	-0.333512
H	 0.8384799652	 2.1939903139	-0.0163241903	 0.12335
H	-0.678774938	 1.9612081152	-0.896590397	 0.117054
H	-0.6859633313	 2.0253192877	 0.8724676864	 0.140265
H	 0.2677437319	 0.031627882	 2.2205882756	 0.149143
H	 1.0936915395	-1.2861389068	 1.3949164962	 0.112442
H	 1.8011567929	 0.3400528704	 1.4055561904	 0.126561
H	-1.8268007067	-0.3360220055	-0.8717947079	 0.149892
H	-1.1351542299	-1.6641713149	 0.0471838997	 0.152119
H	 0.2636882038	 0.0547281065	-2.1167427805	 0.092123
H	 2.7525141719	-0.1655148214	-2.3006941827	 0.122273
H	 2.8909811861	-0.2876466363	-0.4844078047	 0.115428
H	 1.4462976503	-2.1077342254	-0.5344272804	 0.228358
70.0988	82.4623	135.0411	211.9794	236.8592	267.2748	283.6038	316.9665	357.0747	379.4979	400.104	439.6366	491.1922	584.0361	726.8498	811.9794	856.7212	892.7277	911.2223	941.0068	953.8764	961.6387	971.3001	1031.1449	1037.1099	1110.5163	1138.6524	1167.1882	1184.6794	1209.6472	1244.281	1265.491	1295.2212	1311.8598	1341.2538	1404.3024	1407.8497	1436.906	1460.1133	1484.6305	1493.31	1506.0394	1511.4824	1519.2906	2357.1328	3033.8916	3036.7621	3044.3164	3082.9033	3096.8973	3102.4638	3105.1281	3115.4778	3118.2022	3122.9628	3202.2863	3493.4227
CC(C)(CC#N)C1CN1	CC(C)(CC#N)[C@H]1CN1	
InChI=1S/C7H12N2/c1-7(2,3-4-8)6-5-9-6/h6,9H,3,5H2,1-2H3	InChI=1S/C7H12N2/c1-7(2,3-4-8)6-5-9-6/h6,9H,3,5H2,1-2H3/t6-/m1/s1
