16
gdb 61704	2.19625	1.25466	1.00051	1.3867	75.22	-0.2628	-0.0575	0.2054	1231.897	0.119171	-437.843818	-437.833821	-437.832877	-437.879087	34.968	
C	-0.1129380522	 1.5040277492	-0.1387982493	-0.413095
C	 0.089584249	-0.0074698564	-0.0106981867	 0.081598
O	 0.8055382142	-0.361616084	 1.1917778508	-0.225754
C	 0.1689624792	-0.1660626375	 2.3723632257	 0.127508
N	 0.8007029398	-0.3356923325	 3.448840191	-0.44122
C	-1.2531196532	-0.7840518299	-0.0415007995	 0.123189
O	-2.307270048	-0.2939462594	-0.3356972301	-0.230163
C	 0.871032132	-0.545875086	-1.1222053228	 0.295383
C	 1.445186847	-1.0069737686	-2.0710615682	-0.421035
H	 0.8566396902	 2.0047543756	-0.117869308	 0.145593
H	-0.6192017059	 1.7305372701	-1.0784174184	 0.152738
H	-0.7327976117	 1.8791467596	 0.6789890956	 0.13084
H	-0.8860497435	 0.121239886	 2.2756943039	 0.110007
H	 0.186908007	-0.1771413891	 4.2453302705	 0.235013
H	-1.1359851206	-1.8550955019	 0.2273462998	 0.115539
H	 1.974987967	-1.4045845253	-2.9020977144	 0.21386
77.7569	80.5819	121.4118	142.0011	174.1068	210.4688	242.3316	267.3519	366.9438	415.5283	471.2123	480.2277	536.4731	648.608	677.5853	684.7846	766.3069	819.6832	909.0977	947.8486	1005.836	1043.3797	1077.0447	1128.108	1176.9651	1216.2869	1275.2999	1390.6564	1409.58	1427.2966	1479.9478	1483.2909	1746.9622	1838.0697	2239.3027	2920.3355	3035.4726	3062.5442	3141.303	3155.3675	3497.7	3518.967
CC(OC=N)(C=O)C#C	C[C@@](O[CH][NH])(C=O)C#C	
InChI=1S/C6H7NO2/c1-3-6(2,4-8)9-5-7/h1,4-5,7H,2H3	InChI=1S/C6H7NO2/c1-3-6(2,4-8)9-5-7/h1,4-5,7H,2H3/t6-/m0/s1
