15
gdb 15317	3.26225	1.44366	1.10225	4.5791	63.49	-0.2589	-0.0398	0.2191	1040.6809	0.116823	-399.794531	-399.786361	-399.785417	-399.82852	27.739	
O	 0.3588251423	-0.0961054768	-0.5668655196	-0.226069
C	 0.2220096173	 1.0763929293	-0.3387726743	 0.162099
C	 1.3650884184	 2.0505910232	-0.1163410221	-0.30513
C	 1.3120547438	 3.2121771369	-1.0924599319	-0.018635
C	 2.5649768232	 3.9536963207	-1.4671737535	-0.248072
N	 1.8977558689	 3.0957703347	-2.4175185695	-0.058658
C	 2.4750972642	 1.9662471293	-2.9807392597	 0.13015
O	 3.6233655978	 1.8966360468	-3.3423680641	-0.283482
H	-0.79137353	 1.5378163533	-0.2797389879	 0.081739
H	 1.2651748825	 2.4528988696	 0.9019510115	 0.134658
H	 2.3129060014	 1.5096126793	-0.186052562	 0.139957
H	 0.3812525009	 3.7784640099	-1.071091696	 0.110856
H	 2.5209433367	 5.0203958206	-1.6677315678	 0.134465
H	 3.5087015172	 3.5949708234	-1.0635527448	 0.142243
H	 1.7389026854	 1.1546077299	-3.1259715982	 0.103879
41.1842	78.2807	112.0501	193.0346	215.558	305.0077	393.728	466.3745	506.4982	622.6115	754.9612	833.3229	899.6474	943.3853	1004.7596	1032.4529	1041.653	1100.734	1115.0952	1138.6649	1150.7386	1173.637	1221.1281	1287.5709	1374.8457	1420.813	1426.7709	1428.054	1457.2176	1514.1281	1799.2287	1839.6975	2862.4105	2973.8565	3018.4063	3100.789	3112.7372	3116.1236	3202.0159
O=CCC1CN1C=O	O=CC[C@H]1CN1C=O	
InChI=1S/C5H7NO2/c7-2-1-5-3-6(5)4-8/h2,4-5H,1,3H2	InChI=1S/C5H7NO2/c7-2-1-5-3-6(5)4-8/h2,4-5H,1,3H2/t5-,6?/m0/s1
