19
gdb 79473	2.5065	1.85289	1.48047	1.3203	74.11	-0.248	0.0742	0.3222	959.0105	0.160794	-422.991418	-422.984028	-422.983084	-423.022621	30.836	
O	 0.0446329403	 1.4996257279	 0.1371392063	-0.445421
C	 0.0112993013	 0.0995459771	 0.0081241529	 0.113955
C	-1.3502767014	-0.5813283175	-0.0624051155	-0.065374
C	-2.0135089472	-0.318052961	-1.485986356	-0.037163
C	-1.9439836207	-1.8480220336	-1.7456608687	-0.242605
C	-0.6970196898	-1.7661605979	-0.8538090373	-0.10424
C	 0.236302642	-0.5703918373	-1.3687381758	 0.34689
O	 1.5524053966	-0.7352307736	-1.7934681229	-0.498809
C	-0.7724462019	 0.1843271133	-2.254131822	-0.274065
H	 0.9646140738	 1.7794131681	 0.0814737824	 0.286763
H	 0.6328396626	-0.3934707733	 0.7701044358	 0.070024
H	-2.002592436	-0.7197134031	 0.7967847307	 0.070498
H	-2.9421400596	 0.2411413357	-1.5899812576	 0.066263
H	-2.7497524486	-2.3999504329	-1.2526401995	 0.097526
H	-1.8505891863	-2.1870829346	-2.7835666695	 0.08244
H	-0.2067948707	-2.6141696366	-0.3781623287	 0.068531
H	 1.5450686496	-1.0332977798	-2.709122384	 0.278438
H	-0.7670351047	-0.1440949967	-3.2995619296	 0.07701
H	-0.6206390893	 1.2638302359	-2.207579251	 0.10934
198.6154	237.7812	260.3413	280.8563	312.8727	371.9434	458.3968	507.4003	563.6749	608.5516	703.2964	731.712	814.5726	823.0932	841.1599	870.7308	908.4968	941.0596	981.9646	987.5875	1000.6058	1023.2537	1056.5091	1096.6832	1114.4367	1118.0167	1141.2303	1149.8504	1188.3443	1199.582	1235.2534	1248.8628	1257.5623	1279.5037	1286.4914	1305.0798	1357.7644	1381.6025	1443.5464	1487.3592	1505.7948	3002.0969	3031.0237	3042.65	3090.9625	3117.7055	3124.7352	3128.3966	3144.4268	3807.058	3809.7238
OC1C2C3CC2C1(O)C3	O[C@H]1[C@H]2[C@@H]3C[C@H]2[C@@]1(O)C3	
InChI=1S/C7H10O2/c8-6-5-3-1-4(5)7(6,9)2-3/h3-6,8-9H,1-2H2	InChI=1S/C7H10O2/c8-6-5-3-1-4(5)7(6,9)2-3/h3-6,8-9H,1-2H2/t3-,4-,5+,6+,7+/m1/s1
