16
gdb 123485	5.28822	0.91785	0.8456	3.8746	70.57	-0.2531	-0.0359	0.2172	1332.6575	0.124437	-434.005974	-433.998247	-433.997303	-434.039562	28.001	
C	-0.1254798694	 1.6455504725	 0.1424011835	-0.271283
N	-0.2939830598	 0.3025930919	-0.4000471466	-0.071866
C	-0.181129033	-0.7962197003	 0.5589670401	-0.221018
C	-1.505819508	-0.3996819876	 0.007669433	-0.217311
C	 1.3060487974	 2.0647102905	 0.0382836006	 0.257987
C	 2.3281778033	 1.5702966868	-0.7072394258	-0.028756
O	 3.4254765467	 2.2861568037	-0.4684471379	-0.16259
N	 3.0521324754	 3.283257476	 0.4819120223	-0.00823
N	 1.8330660816	 3.122699584	 0.7481178253	-0.182416
H	-0.758174669	 2.3284191118	-0.4391194274	 0.133171
H	-0.4511483386	 1.7329978665	 1.1935674867	 0.110401
H	 0.3212378902	-1.6884657541	 0.1979015966	 0.122358
H	 0.0229776957	-0.5447004405	 1.5981505053	 0.121127
H	-2.1897032879	 0.1149677866	 0.6804546928	 0.116818
H	-1.9861761487	-0.9959401536	-0.7622805909	 0.124082
H	 2.4001055441	 0.7553814658	-1.4066533673	 0.177526
43.5833	74.1484	133.2443	270.1658	331.2123	355.5955	426.7893	634.6511	638.6979	703.7193	744.8267	772.8078	838.0986	859.3249	905.8559	987.3287	1013.5094	1030.6057	1050.8282	1060.1828	1117.5817	1123.263	1140.2419	1173.5648	1182.6388	1238.6911	1267.5	1318.1756	1323.2749	1392.1962	1462.5017	1485.1742	1495.1347	1521.9664	1624.5967	2954.2644	3037.226	3099.4546	3104.234	3184.4052	3198.5583	3301.6332
C(N1CC1)C1=CON=N1	C(N1CC1)c1conn1	
InChI=1S/C5H7N3O/c1-2-8(1)3-5-4-9-7-6-5/h4H,1-3H2	InChI=1S/C5H7N3O/c1-2-8(1)3-5-4-9-7-6-5/h4H,1-3H2
