21
gdb 104009	3.00691	1.3425	1.22117	2.6195	77.31	-0.2425	0.0702	0.3127	1115.9969	0.183045	-424.200009	-424.191508	-424.190564	-424.232699	33.686	
C	-0.0069890543	 1.508052	 0.0318042519	-0.453077
C	-0.0137740297	-0.0247617467	 0.0080401913	 0.348263
C	-1.4459254599	-0.543341523	-0.1130568721	-0.143522
O	-1.9790162299	-0.0860155544	-1.3501438435	-0.421742
C	 0.9593169693	-0.6115047187	-1.0781337047	-0.264942
C	 1.9733883414	-1.2715059205	-0.1222019718	 0.081212
C	 1.0947837715	-2.0619604712	 0.8694362145	-0.242262
C	 0.7499683711	-0.6012993149	 1.2383267009	 0.023933
O	 2.1329070587	-0.2489306926	 0.9164419694	-0.299672
H	 1.0128505251	 1.8774320322	 0.1567336477	 0.128526
H	-0.4206134021	 1.9065551502	-0.8976599649	 0.130018
H	-0.6166695207	 1.8896751044	 0.8601518031	 0.098817
H	-1.4682972681	-1.6419502438	-0.0674027024	 0.080241
H	-2.0423755225	-0.1667001022	 0.734853626	 0.082635
H	-2.8895493766	-0.3878377032	-1.4150554451	 0.287542
H	 0.4733103214	-1.3240906248	-1.7494931671	 0.103395
H	 1.4226951019	 0.1703817675	-1.6834012923	 0.106152
H	 2.9148307735	-1.6482231809	-0.5224218161	 0.076918
H	 0.3234091179	-2.7358862311	 0.4903424327	 0.093657
H	 1.6908770088	-2.5386474343	 1.6481277268	 0.110407
H	 0.433731753	-0.2888964119	 2.2349627556	 0.073498
96.0756	186.0954	195.5431	242.7205	256.2004	294.6597	364.1718	400.8622	447.2049	468.1345	585.0633	631.4669	771.3803	819.6255	836.4334	873.8824	886.8674	935.1209	938.6138	960.473	973.5215	986.0451	1025.9873	1051.8926	1066.0678	1077.1805	1111.5834	1165.7596	1188.3974	1206.8575	1226.8502	1239.8593	1251.6564	1273.5149	1287.7743	1300.8078	1320.5371	1350.6501	1396.1032	1459.1791	1483.1734	1494.7824	1498.4488	1501.1102	1523.3531	2959.656	3001.0603	3030.6251	3067.915	3071.9916	3104.8127	3108.1611	3117.8584	3121.1375	3137.6412	3143.1395	3831.9038
CC1(CO)CC2CC1O2	C[C@@]1(CO)C[C@@H]2C[C@H]1O2	
InChI=1S/C7H12O2/c1-7(4-8)3-5-2-6(7)9-5/h5-6,8H,2-4H2,1H3	InChI=1S/C7H12O2/c1-7(4-8)3-5-2-6(7)9-5/h5-6,8H,2-4H2,1H3/t5-,6+,7-/m0/s1
