18
gdb 12267	3.16194	1.49431	1.18316	1.0935	69.12	-0.2498	-0.0291	0.2207	1081.0901	0.151482	-384.950429	-384.94161	-384.940665	-384.984246	31.249	
C	 0.2945374176	 1.4288219612	 0.1886799501	-0.383802
C	 0.032852414	-0.0700246153	 0.0144930804	-0.190296
C	 0.5184088586	-0.5880242236	-1.3320179454	 0.0256
O	 1.9583206997	-0.5195788699	-1.5067689758	-0.315246
C	 2.1031336176	-1.9350936913	-1.7895860442	 0.037096
C	 3.0709139058	-2.6564790154	-0.8692624544	-0.40297
C	 0.5971277338	-2.106865509	-1.5377719648	 0.317504
O	-0.1643748784	-3.0238122666	-1.4748158957	-0.284408
H	 1.3621910837	 1.6448560059	 0.0924197071	 0.138665
H	-0.2375348669	 2.0134919244	-0.5695275671	 0.11698
H	-0.0371469987	 1.7722479006	 1.1728111321	 0.116812
H	 0.5290448984	-0.6341047467	 0.8127102269	 0.104438
H	-1.0393989863	-0.2889022634	 0.0883090242	 0.115623
H	-0.0026288135	-0.073862441	-2.1543784174	 0.100699
H	 2.3706929801	-2.1002542483	-2.84375427	 0.104786
H	 2.7948844009	-2.5151908515	 0.1792208281	 0.127537
H	 3.0652384017	-3.7278257938	-1.0925174001	 0.135857
H	 4.0864060219	-2.2768619063	-1.014833114	 0.135126
63.9455	94.5391	138.5035	196.5714	199.9777	230.5686	294.8344	383.5767	410.7233	539.5287	593.5262	694.5043	776.3234	844.0518	866.7798	891.5873	959.7726	1019.2029	1036.4474	1066.4042	1087.0421	1115.471	1128.6178	1157.2168	1244.9955	1276.2217	1281.5935	1324.1422	1354.3409	1390.5469	1399.4683	1409.8493	1473.5277	1481.5796	1494.4186	1497.2169	1508.1773	1916.8647	2990.4432	3001.3058	3033.3122	3038.7596	3042.7958	3072.2694	3107.5773	3119.1755	3121.0057	3123.4403
CCC1OC(C)C1=O	CC[C@H]1O[C@@H](C)C1=O	
InChI=1S/C6H10O2/c1-3-5-6(7)4(2)8-5/h4-5H,3H2,1-2H3	InChI=1S/C6H10O2/c1-3-5-6(7)4(2)8-5/h4-5H,3H2,1-2H3/t4-,5+/m0/s1
