18
gdb 39184	2.27907	1.75539	1.56272	1.5849	76.93	-0.2371	-0.0162	0.2209	971.8479	0.150071	-401.943567	-401.936157	-401.935213	-401.97539	29.245	
C	 0.224050757	 1.4646382315	-0.0559178668	-0.182921
C	 1.6556300489	 2.0295029901	-0.1987630829	-0.274008
C	 2.610203607	 1.3471937602	-1.1528203226	-0.055473
C	 2.7145099629	 0.0387101549	-1.3933695947	-0.020758
O	 1.789850937	-1.0761904227	 1.7424601708	-0.306724
C	 1.398615251	-0.7233162865	 0.6708121829	 0.399981
C	 0.1174678883	-0.0546855706	 0.1360742645	-0.126468
N	 0.3616658839	-0.7783500825	-1.1647433859	-0.314896
C	 1.8129362548	-1.0078997285	-0.7968787971	-0.180339
H	-0.2481074076	 1.9641611906	 0.7971672619	 0.105238
H	-0.3623768423	 1.7103006332	-0.9470553049	 0.120627
H	 1.5733590815	 3.0853476223	-0.4777492103	 0.106518
H	 2.126437622	 2.0335287064	 0.7961707982	 0.132859
H	 3.3163198849	 2.0094397877	-1.6488738103	 0.095368
H	 3.4913535156	-0.3146164511	-2.0650996553	 0.093256
H	-0.8148168245	-0.3217105475	 0.6425328702	 0.091894
H	-0.1194392847	-1.674957136	-1.1280803858	 0.225481
H	 2.1812617841	-2.0178458614	-0.994376052	 0.090366
105.4341	140.7603	205.1859	333.8889	369.3259	432.6966	441.5414	502.7817	599.7983	713.0008	734.0319	755.1096	810.6223	827.8169	862.8648	896.1025	904.246	958.3019	986.6179	1005.7327	1037.1011	1067.9922	1085.5194	1110.4791	1150.7183	1199.6609	1232.5807	1241.2002	1272.6747	1299.2404	1352.03	1360.857	1370.9098	1393.6286	1418.447	1469.4906	1478.0163	1710.6116	1890.572	2998.5108	3039.178	3062.9467	3071.4509	3081.5923	3090.8712	3145.5944	3173.7355	3481.9223
C1CC2C3OC22C1NC32	C1CC=C[C@H]2C(=O)[C@@H]1N2	
InChI=1S/C7H9NO/c1-2-4-7-3(1)5(9-7)6(7)8-4/h3-6,8H,1-2H2	InChI=1S/C7H9NO/c9-7-5-3-1-2-4-6(7)8-5/h1,3,5-6,8H,2,4H2/t5-,6+/m0/s1
