16
gdb 132589	3.0467	1.37476	0.95852	2.0737	75.14	-0.2524	-0.0464	0.206	1167.3612	0.123594	-442.101986	-442.093853	-442.092909	-442.134778	30.071	
C	 0.0056557327	 1.5105228498	-0.0446938034	-0.486522
C	 0.0097184702	 0.0059763788	-0.0082400759	 0.280807
N	-0.0074845529	-0.638507666	-1.1800133783	-0.277163
C	-0.0041791654	-1.9690480183	-1.1653360952	-0.153173
C	 0.0166866233	-2.6480563922	 0.0464184432	 0.295711
F	 0.0200165887	-3.9770948989	 0.0526051474	-0.067457
N	 0.0339428811	-2.0474842069	 1.2130891098	-0.342988
C	 0.0307585352	-0.7087598482	 1.2065343717	 0.274225
C	 0.0504351967	-0.0144268847	 2.5402935848	-0.486573
H	 0.8926869389	 1.9276981074	 0.4460796345	 0.133304
H	-0.0117705861	 1.8466789082	-1.0819981434	 0.145207
H	-0.8670563592	 1.923666272	 0.4743430761	 0.133305
H	-0.0179806057	-2.5009862458	-2.1113718545	 0.128498
H	 0.9306966822	 0.6311264867	 2.639682167	 0.137538
H	-0.8282345574	 0.6284631808	 2.6671058231	 0.137514
H	 0.0640616276	-0.7562901825	 3.3392767929	 0.147765
117.1537	123.7902	156.956	228.4555	291.2113	331.0859	361.8825	484.7936	486.3425	522.9506	572.4959	628.2837	725.6762	767.5651	785.4516	917.8387	973.7412	1010.5215	1038.0586	1046.7755	1075.7162	1173.9626	1254.8742	1279.9163	1334.2081	1395.8544	1410.1089	1424.0855	1457.9072	1478.3112	1482.6008	1492.4867	1503.3435	1602.0119	1609.2885	3031.2428	3033.2834	3080.2242	3084.1655	3146.7517	3149.3865	3180.8712
CC1=NC=C(F)N=C1C	Cc1ncc(F)nc1C	
InChI=1S/C6H7FN2/c1-4-5(2)9-6(7)3-8-4/h3H,1-2H3	InChI=1S/C6H7FN2/c1-4-5(2)9-6(7)3-8-4/h3H,1-2H3
