18
gdb 41070	4.00034	1.87312	1.66046	1.6137	78.17	-0.2191	0.0801	0.2992	857.3305	0.150346	-364.687246	-364.681368	-364.680424	-364.717002	26.014	
C	-0.0415941388	 1.4480308218	-0.2551618161	-0.246277
C	 1.4542471465	 1.5867900548	 0.2118952	-0.339611
C	 1.269871292	 0.2146474893	 0.8445819362	 0.403679
C	 1.9172107844	-1.030108481	 1.43693247	-0.230273
C	 0.5874299581	-1.819011236	 1.6884763537	-0.098472
C	 1.1548072936	-0.8847429715	 2.7118674205	-0.024227
N	 0.3447748823	 0.2456520826	 2.1063055382	-0.220505
C	-0.4659087645	-0.7545494092	 1.2645775143	-0.03888
C	 0.0379836653	-0.1083462616	-0.0235381357	-0.056372
H	-0.7408728712	 1.9559456402	 0.408884209	 0.126138
H	-0.2417289335	 1.7430737412	-1.2859814977	 0.100302
H	 2.1428780643	 1.569689601	-0.6388382572	 0.102569
H	 1.7142216746	 2.4106877582	 0.8803231073	 0.10902
H	 2.8489498691	-1.537772683	 1.22485486	 0.090083
H	 0.5476820708	-2.9013615826	 1.6760584517	 0.088348
H	 1.4150617683	-0.9815344769	 3.7587466584	 0.094407
H	-1.5118416975	-0.9354422277	 1.5221745827	 0.070746
H	 0.1114033663	-0.7099118696	-0.9313555054	 0.069324
237.7001	289.1781	362.7877	525.7771	552.1543	676.3349	704.3768	752.3486	770.5839	802.5889	816.619	839.4941	861.7273	880.265	882.1352	909.4282	931.4909	959.1947	986.7605	1010.3627	1024.9484	1046.0014	1051.1706	1081.8596	1095.2457	1111.765	1167.8729	1180.2552	1189.0931	1208.2934	1234.9633	1244.022	1251.9749	1262.5247	1310.9147	1331.3713	1358.7352	1463.7657	1480.0435	3052.388	3083.3229	3085.9357	3094.3692	3112.6547	3148.564	3178.2744	3188.1237	3204.3268
C1CC23C4C5C4N2C5C13	C1C[C@@]23[C@@H]4[C@H]5[C@@H]4N2[C@H]5[C@@H]13	
InChI=1S/C8H9N/c1-2-8-3(1)6-4-5(8)7(4)9(6)8/h3-7H,1-2H2	InChI=1S/C8H9N/c1-2-8-3(1)6-4-5(8)7(4)9(6)8/h3-7H,1-2H2/t3-,4-,5-,6+,7+,8-/m1/s1
