17
gdb 71863	3.04301	1.71325	1.37102	4.1394	73.38	-0.2567	0.0256	0.2823	969.9097	0.137271	-417.985641	-417.978523	-417.977578	-418.016974	28.453	
C	-0.0478565433	 1.5091727042	 0.0196814269	-0.492828
C	-0.0008142248	 0.0166678765	-0.0608756101	 0.313244
C	 0.827197522	-0.8280485594	-1.0443118894	-0.30278
C	-0.1058346629	-2.0250050808	-0.7000219515	 0.053914
O	 0.4687041793	-2.7686756258	 0.3816280125	-0.246465
C	 0.5303241768	-1.8951619575	 1.4444849925	 0.43458
N	 1.1840922031	-2.0642637311	 2.506021009	-0.541949
N	-0.2939338836	-0.7564825814	 1.1933548719	-0.178748
C	-1.0709280341	-1.0269802386	-0.0163991717	-0.10986
H	 0.9061838325	 1.9057979472	 0.3835035334	 0.137842
H	-0.2400657055	 1.9430302528	-0.9673251581	 0.12209
H	-0.8325408948	 1.8317614068	 0.7078965784	 0.142533
H	 0.6764219974	-0.4769710101	-2.0689859555	 0.114928
H	 1.8948228823	-0.9712791455	-0.8522017638	 0.116023
H	-0.428828131	-2.7114014907	-1.47798388	 0.101461
H	 1.6997442357	-2.9432031471	 2.4611908379	 0.228122
H	-2.153273829	-0.9870012193	 0.0010563277	 0.107893
138.8088	191.8288	203.5604	293.804	410.0285	447.9876	468.4662	589.0129	657.6443	691.0654	733.5034	792.4132	856.729	876.9524	888.1501	897.8828	917.5974	938.1029	988.4588	997.1061	1011.1462	1031.1169	1089.6151	1117.1471	1158.6855	1174.9961	1199.0292	1227.4956	1276.7847	1284.7142	1355.377	1394.1934	1432.0978	1480.7195	1485.0882	1492.2079	1787.6431	3036.8392	3052.3992	3099.1628	3110.559	3128.332	3161.9846	3191.4871	3497.2158
CC12CC3OC(=N)N1C23	C[C@@]12C[C@H]3O[C]([NH])N1[C@@H]23	
InChI=1S/C6H8N2O/c1-6-2-3-4(6)8(6)5(7)9-3/h3-4,7H,2H2,1H3	InChI=1S/C6H8N2O/c1-6-2-3-4(6)8(6)5(7)9-3/h3-4,7H,2H2,1H3/t3-,4-,6+,8?/m1/s1
