13
gdb 11188	4.0957	1.58652	1.3889	4.3166	58.3	-0.2687	0.006	0.2747	873.0252	0.098396	-394.837229	-394.830394	-394.82945	-394.868548	24.916	
O	 0.0444184732	-0.0024552717	-0.1086320982	-0.389122
C	 0.0016223244	 1.2001845248	-0.0392932902	 0.445155
N	-1.0963215638	 2.0202226884	-0.2515860369	-0.334904
C	-0.8305980845	 3.384456312	 0.1610196954	-0.17335
C	 0.7191213291	 3.4379534309	 0.0309077073	-0.13207
N	 1.0679887274	 2.0505973124	 0.2871248682	-0.331272
C	 1.1521813404	 3.9093920799	-1.300286953	 0.278186
N	 1.5200278433	 4.2828405247	-2.3299802547	-0.307973
H	-2.0098399528	 1.6088102771	-0.1487724853	 0.264385
H	-1.3192383624	 4.1190704249	-0.4819226324	 0.145048
H	-1.1116868244	 3.578498824	 1.2049529305	 0.124587
H	 1.1499665975	 4.1091211208	 0.7795742321	 0.142951
H	 1.9948016727	 1.7144003918	 0.0731080972	 0.268378
92.5367	152.9117	229.7513	288.3806	446.5712	476.8499	510.0024	546.4196	597.0216	723.3915	766.4267	781.8421	833.7092	959.307	980.8246	1046.0839	1093.3672	1125.7815	1222.3656	1238.4751	1272.0521	1360.183	1374.6704	1404.4941	1440.5408	1524.3143	1869.3416	2355.8905	3012.5359	3069.5059	3107.5199	3633.9405	3653.9502
O=C1NCC(N1)C#N	O=C1NC[C@@H](N1)C#N	
InChI=1S/C4H5N3O/c5-1-3-2-6-4(8)7-3/h3H,2H2,(H2,6,7,8)	InChI=1S/C4H5N3O/c5-1-3-2-6-4(8)7-3/h3H,2H2,(H2,6,7,8)/t3-/m0/s1
