14
gdb 61730	2.71432	0.75536	0.6086	4.749	78.09	-0.2969	-0.0647	0.2322	1700.2582	0.098385	-436.689229	-436.679822	-436.678877	-436.725175	31.467	
C	-0.0589004265	 1.8234466214	 0.1032191205	-0.392375
C	-0.0320033685	 0.3004300702	-0.0298526181	-0.107619
O	 0.6042849332	-0.0140177801	-1.2826152051	-0.174639
C	 0.1846290294	-1.124763556	-1.9363294633	 0.179053
O	 0.6674824087	-1.475339592	-2.9664556339	-0.253525
C	 0.6848703456	-0.3420725744	 1.0715377026	 0.225757
C	 1.2683075044	-0.868608156	 1.9879871352	-0.043944
C	 1.9279733593	-1.4625774438	 3.0262408286	 0.220839
N	 2.4851054661	-1.9666064748	 3.9116818697	-0.324051
H	 0.9581965698	 2.2201152839	 0.0890043642	 0.157372
H	-0.61872831	 2.2483129771	-0.7328950455	 0.144883
H	-0.5394743757	 2.1105304283	 1.0413756003	 0.144292
H	-1.0613000129	-0.0852974383	-0.0436249427	 0.132769
H	-0.6449487629	-1.6433723654	-1.4183307426	 0.091188
31.2799	91.6955	101.9838	144.2037	215.4161	230.4413	249.3807	287.7429	398.5872	455.6248	532.6112	575.5253	593.8149	656.5922	721.3236	931.306	1007.2965	1038.8526	1088.7958	1103.9113	1159.6537	1201.2177	1326.4031	1355.139	1408.9534	1435.0834	1482.2778	1493.5123	1878.4469	2268.3314	2404.7608	2955.5026	3010.592	3059.4806	3142.1643	3148.2708
CC(OC=O)C#CC#N	C[C@@H](OC=O)C#CC#N	
InChI=1S/C6H5NO2/c1-6(9-5-8)3-2-4-7/h5-6H,1H3	InChI=1S/C6H5NO2/c1-6(9-5-8)3-2-4-7/h5-6H,1H3/t6-/m1/s1
