16
gdb 126353	2.94252	1.36268	0.94205	1.7933	76.26	-0.2503	-0.0852	0.1652	1208.1061	0.12489	-430.229589	-430.221368	-430.220424	-430.263058	29.936	
C	 0.107924881	 1.5345073326	 0.0075871716	-0.381198
C	-0.0693876352	 0.0196946513	 0.0039571177	-0.256503
C	-1.4946866108	-0.4510488663	 0.0135018943	 0.38083
N	-2.4733605899	 0.3858058429	 0.0234344425	-0.281845
C	-3.7697652972	-0.1160213793	 0.0317715189	 0.439661
N	-4.7849255764	 0.6489562556	 0.0418912281	-0.521968
N	-3.8174204606	-1.5287101126	 0.0278719232	-0.265431
N	-2.7698282027	-2.3563434595	 0.0174488742	-0.024717
N	-1.6035047278	-1.8608478985	 0.0100872378	-0.238789
H	 1.1713541992	 1.7886193039	 0.0000907809	 0.112723
H	-0.3644635802	 1.9888150936	-0.8668404135	 0.136269
H	-0.3506531162	 1.9829850721	 0.8923202335	 0.136247
H	 0.4135446411	-0.4398825485	-0.869145291	 0.137506
H	 0.4270982955	-0.4456826839	 0.8663066384	 0.137499
H	-5.6587653978	 0.1225345887	 0.0469956307	 0.210008
H	-4.7053453217	-2.0112786522	 0.0331961829	 0.279709
64.2752	100.2244	161.3097	182.37	236.6883	389.2571	396.9085	477.4063	576.5163	593.5057	599.3024	676.1745	742.1615	767.8144	815.1009	826.8596	930.7599	984.4164	1017.4261	1069.0978	1101.7492	1109.2346	1126.3565	1234.2423	1275.2503	1277.8958	1393.4274	1405.9649	1420.5026	1451.5789	1492.1572	1498.7661	1551.3714	1667.2977	1739.5886	3025.8244	3048.2068	3053.3613	3125.4165	3129.7267	3482.4087	3602.5709
CCC1=NC(=N)NN=N1	CCc1nc([NH])[nH]nn1	
InChI=1S/C4H7N5/c1-2-3-6-4(5)8-9-7-3/h2H2,1H3,(H2,5,6,7,8)	InChI=1S/C4H12N5/c1-2-3-6-4(5)8-9-7-3/h3-9H,2H2,1H3
