18
gdb 72186	3.1275	2.02688	1.61556	0.2124	73.17	-0.236	0.0627	0.2986	880.1464	0.149655	-401.900707	-401.894164	-401.89322	-401.931155	27.559	
C	 0.0400798251	 1.4690657528	-0.0539552878	-0.498662
C	-0.0404502293	-0.0290200858	-0.0106547708	 0.461677
O	 0.1469378766	-0.6724356331	-1.2910099856	-0.346556
C	-0.7527465856	-1.739323126	-0.8738057268	 0.082075
C	 0.0658199379	-2.8589586292	-0.2409176316	-0.23951
C	 0.4499438683	-2.2337149437	 1.0866003129	-0.042802
C	 0.6594707246	-0.7641214821	 1.1594566136	-0.104804
N	-0.6471255121	-1.3973067368	 1.6289149249	-0.161312
C	-1.2616666123	-0.8918735079	 0.3361178365	-0.11887
H	 1.0536840551	 1.7861295536	-0.3239455607	 0.13133
H	-0.6541063231	 1.8689253961	-0.7980172096	 0.128406
H	-0.2027064877	 1.8947909741	 0.9244767701	 0.130928
H	-1.4358927488	-2.0314871817	-1.6732959106	 0.08103
H	-0.538950663	-3.7571890176	-0.0695545052	 0.107286
H	 0.9219282786	-3.1225008112	-0.8674422858	 0.119725
H	 0.9541449309	-2.838577473	 1.8346239684	 0.096153
H	 1.3495825151	-0.3101823578	 1.8648933597	 0.088428
H	-2.2920407805	-0.5517281307	 0.4035890684	 0.085476
210.5786	232.1118	263.5631	357.044	440.9967	528.6427	559.1824	691.4615	706.716	756.6034	759.6959	820.0902	852.4031	859.1722	886.0427	917.7979	933.4617	940.2561	990.8168	1000.1092	1020.3115	1046.6673	1083.0552	1129.7683	1154.3196	1161.6596	1171.1199	1206.7343	1229.9538	1253.6291	1282.2103	1313.3575	1333.3175	1376.6699	1400.9022	1417.6627	1471.761	1479.347	1491.101	3035.7863	3042.2419	3096.1164	3104.5671	3104.9808	3121.5803	3146.9163	3147.3177	3161.2254
CC12OC3CC4C1N4C23	C[C@@]12O[C@H]3C[C@H]4[C@@H]1N4[C@@H]23	
InChI=1S/C7H9NO/c1-7-5-3-2-4(9-7)6(7)8(3)5/h3-6H,2H2,1H3	InChI=1S/C7H9NO/c1-7-5-3-2-4(9-7)6(7)8(3)5/h3-6H,2H2,1H3/t3-,4-,5-,6+,7+,8?/m0/s1
