18
gdb 79589	4.75109	1.05592	0.9754	4.0115	77.94	-0.2331	-0.0409	0.1922	1240.5148	0.146082	-401.868615	-401.860342	-401.859398	-401.901321	31.49	
C	 0.0824198831	 1.5050228259	-0.1017569249	-0.425963
C	 0.0173267776	-0.0073989488	-0.0182629221	-0.039081
C	 1.3423698076	-0.7168054755	-0.1386266489	-0.011809
C	 0.6446389355	-0.639339927	 1.1960611357	-0.141714
C	 0.5861973001	-2.1788163069	 1.1848651094	 0.193736
C	 0.0225959493	-2.7805238094	-0.0564757799	-0.27609
N	 1.3713751891	-2.235170914	-0.1394167467	-0.157426
C	 1.0069565127	-3.0310248208	 2.3204510691	 0.092837
O	 1.1260999712	-4.2312943145	 2.2610508164	-0.258948
H	 1.011628133	 1.8891537507	 0.3318817409	 0.122035
H	 0.0353479311	 1.8404449349	-1.1427489872	 0.127475
H	-0.7518332279	 1.9629593111	 0.4395492557	 0.126336
H	-0.8887900775	-0.4240014854	-0.4458073322	 0.08905
H	 2.2392794396	-0.2249240594	-0.4927302435	 0.108877
H	 0.9227243882	-0.0772450581	 2.0791320429	 0.096831
H	 0.0287351448	-3.8662250307	-0.0632734455	 0.152119
H	-0.8090978934	-2.3212983952	-0.5774787902	 0.129079
H	 1.2061636658	-2.4768503771	 3.2654484013	 0.072657
99.0423	161.4573	170.1442	221.1209	260.8502	282.7289	352.8504	424.4775	470.6508	583.5221	667.479	721.2025	777.7043	819.2324	834.3364	879.9336	917.2188	947.6576	977.7765	1029.3493	1034.092	1049.5651	1079.955	1098.6596	1119.0553	1144.8884	1150.9977	1177.9003	1217.0557	1275.2263	1280.6051	1335.9409	1413.092	1419.3064	1431.6699	1491.7652	1494.767	1503.4711	1803.445	2875.3497	3032.7611	3099.625	3101.7396	3131.4793	3154.8374	3184.6412	3196.8734	3224.9221
CC1C2C1C1(CN21)C=O	C[C@H]1[C@H]2[C@@H]1[C@]1(CN21)C=O	
InChI=1S/C7H9NO/c1-4-5-6(4)8-2-7(5,8)3-9/h3-6H,2H2,1H3	InChI=1S/C7H9NO/c1-4-5-6(4)8-2-7(5,8)3-9/h3-6H,2H2,1H3/t4-,5-,6+,7+,8?/m1/s1
