15
gdb 50481	4.37807	0.97037	0.87303	2.6783	76.62	-0.2298	-0.0387	0.1911	1287.7396	0.111945	-416.790045	-416.781674	-416.780729	-416.823761	30.168	
O	-0.8769099853	 0.9617038548	 0.4898706923	-0.23938
C	 0.0948610246	 1.000728511	-0.2189622139	 0.155171
C	 1.3243254999	 1.85748559	 0.0552687475	-0.076046
C	 1.3582050619	 2.4866337166	 1.4727424519	-0.20555
N	 2.7332961358	 2.1754508925	 1.8831667959	-0.356322
C	 3.2168099597	 1.2272311977	 0.9932593987	 0.225934
N	 2.5284380942	 1.0177452661	-0.0734442735	-0.328528
C	 4.4543576489	 0.5761407589	 1.2803447145	 0.272172
C	 5.490849546	 0.0382337667	 1.5643310449	-0.374067
H	 0.1745509237	 0.3939767464	-1.1448284572	 0.102749
H	 1.3472237035	 2.6250048576	-0.7346025466	 0.110661
H	 1.1823065574	 3.5646829902	 1.4650532	 0.120098
H	 0.6076851085	 2.0153174782	 2.1183264238	 0.133197
H	 2.9457675104	 2.0602667675	 2.863052579	 0.25141
H	 6.4090629708	-0.4444035642	 1.7943976826	 0.208498
50.442	124.3497	142.5636	153.5868	249.2202	330.4874	421.2314	488.6957	544.3367	573.488	646.4693	653.4825	669.9698	704.9685	731.3637	836.4004	936.268	992.551	1023.2658	1046.4704	1086.637	1097.047	1199.2071	1239.5472	1267.4053	1297.602	1353.1431	1406.5058	1457.8089	1532.1852	1650.7363	1831.9456	2246.3272	2924.2021	2981.1225	3039.0568	3094.915	3499.2225	3613.8156
O=CC1CNC(=N1)C#C	O=C[C@H]1CN[C]([N]1)C#C	
InChI=1S/C6H6N2O/c1-2-6-7-3-5(4-9)8-6/h1,4-5H,3H2,(H,7,8)	InChI=1S/C6H6N2O/c1-2-6-7-3-5(4-9)8-6/h1,4-5H,3H2,(H,7,8)/t5-/m1/s1
