18
gdb 90836	3.07032	1.91028	1.45202	1.2882	74.04	-0.2259	0.0501	0.276	927.5445	0.148245	-401.809072	-401.802275	-401.801331	-401.839897	28.251	
C	-0.2109834866	 1.508586957	-0.0156172591	-0.406857
C	 0.0556554709	 0.0094324333	 0.0899260768	-0.141738
C	 1.0884525676	-0.562835116	-0.9950895193	-0.171751
N	 2.2492689972	-1.1838910056	-0.236230099	-0.17895
C	 1.5253905661	-1.836202221	 0.9212913218	-0.073287
C	 2.3224477864	-1.2001038294	 2.0747661119	 0.00065
O	 1.1153927447	-0.536594555	 2.6769852007	-0.40333
C	 0.9271882663	-0.4493062468	 1.2332644665	 0.483608
C	 2.4187219952	-0.2047477231	 0.9032757449	-0.070847
H	 0.7212030631	 2.0811329065	 0.0355381973	 0.118316
H	-0.7011796488	 1.751496699	-0.9639327467	 0.119424
H	-0.861528106	 1.8532701607	 0.7942268382	 0.128815
H	-0.8868831149	-0.5456010402	 0.0474223889	 0.08656
H	 0.6307965632	-1.3254061606	-1.6299437303	 0.113321
H	 1.4689765015	 0.2386215979	-1.6346266952	 0.11281
H	 1.01956337	-2.7993804167	 0.861191292	 0.089378
H	 3.0550512617	-1.5919701322	 2.7774592001	 0.103636
H	 2.9623597124	 0.7358311725	 0.8247961106	 0.090242
165.8685	222.7178	225.4515	359.5416	441.0819	473.0335	535.3242	648.3259	673.6192	754.0392	788.6222	805.5709	822.5635	848.2852	881.8595	910.59	914.4573	944.3824	959.2647	1001.3672	1033.8765	1055.4004	1082.6566	1103.6982	1134.256	1141.7842	1163.8335	1165.7051	1219.7398	1236.7999	1259.2075	1262.7528	1319.2295	1353.8765	1391.0062	1414.5953	1488.1128	1495.3824	1501.2465	3033.5635	3053.1934	3062.735	3102.9432	3105.5954	3117.1667	3123.807	3126.7773	3147.327
CC1CN2C3C4OC13C24	C[C@H]1CN2[C@H]3[C@@H]4O[C@]13[C@H]24	
InChI=1S/C7H9NO/c1-3-2-8-5-4-6(8)7(3,5)9-4/h3-6H,2H2,1H3	InChI=1S/C7H9NO/c1-3-2-8-5-4-6(8)7(3,5)9-4/h3-6H,2H2,1H3/t3-,4-,5-,6+,7+/m0/s1
