19
gdb 12973	2.32376	2.20603	1.83938	2.1095	72.12	-0.2252	0.0689	0.2941	883.65	0.164186	-365.014978	-365.006478	-365.005534	-365.047231	32.154	
C	-0.1541638793	 1.5006061826	-0.0567184329	-0.316294
N	 0.1013185026	 0.0722620427	 0.0927719347	-0.117851
C	 1.3762057261	-0.5484405699	-0.1702755764	-0.093846
C	 2.5626838047	 0.3136359602	 0.2928713978	-0.30039
C	 1.9691791185	 0.2582279993	 1.7417165771	 0.064666
O	 1.637190553	 1.4482018817	 2.42628911	-0.432006
C	 0.7625679342	-0.5439267724	 1.2229375226	 0.321685
C	 0.0438103089	-1.5973377082	 2.0152814279	-0.492573
H	 0.6466400355	 2.15946746	 0.2935090234	 0.120329
H	-0.3501468742	 1.7038670311	-1.1148747548	 0.111815
H	-1.0580459989	 1.7485091283	 0.5079391224	 0.122131
H	 1.4249513037	-1.3571617854	-0.8927632661	 0.088318
H	 3.5281869274	-0.1913230182	 0.2127197598	 0.09918
H	 2.6422210173	 1.30583277	-0.1599197563	 0.100885
H	 2.5939707832	-0.3899313019	 2.3728272409	 0.072877
H	 2.4504537063	 1.8488606112	 2.7495322989	 0.284242
H	-0.5731293204	-1.1407092326	 2.7982184203	 0.127054
H	-0.6144934075	-2.1784482738	 1.3647902924	 0.128996
H	 0.7494293789	-2.2786119148	 2.5034231582	 0.11078
129.388	176.7377	190.6368	218.1074	238.9316	272.5129	298.4945	343.4959	422.9854	503.1309	595.0515	656.3006	711.4901	762.6994	836.5207	905.8833	926.3677	952.7479	1005.0949	1044.3417	1083.4403	1110.7463	1138.432	1150.8277	1172.8594	1185.0021	1211.5279	1224.1103	1236.7132	1272.1528	1316.2892	1396.9436	1415.172	1439.0741	1459.8345	1481.3384	1485.0526	1493.5623	1497.2547	1509.0117	2994.7209	3027.031	3028.9821	3058.6271	3086.3135	3095.0265	3102.8381	3111.4373	3121.1366	3159.5707	3813.4588
CN1C2CC(O)C12C	CN1[C@H]2C[C@@H](O)[C@@]12C	
InChI=1S/C6H11NO/c1-6-4(7(6)2)3-5(6)8/h4-5,8H,3H2,1-2H3	InChI=1S/C6H11NO/c1-6-4(7(6)2)3-5(6)8/h4-5,8H,3H2,1-2H3/t4-,5+,6-,7?/m0/s1
