19
gdb 91856	3.58564	1.17271	1.02871	3.2308	76.91	-0.2426	-0.0245	0.2181	1210.0242	0.158357	-423.036081	-423.0276	-423.026656	-423.069239	32.191	
C	 0.0994521777	 1.5470117628	-0.0371131859	-0.406758
C	 0.0729351869	 0.0306171579	-0.0394141016	 0.140972
C	 0.827991419	-0.6557129846	-1.2036186745	-0.263897
C	 1.3502273407	-1.9468076354	-0.5815914696	-0.091782
C	 2.5579264946	-1.8687540094	 0.3009849126	-0.322432
C	 1.1824016309	-1.7446293238	 0.9247952448	 0.317352
O	 0.7155582065	-0.4485563457	 1.1597849093	-0.314866
C	 0.6407425414	-2.8173905072	 1.786143729	 0.083039
O	 1.0126887312	-3.9672534866	 1.7522257641	-0.276572
H	 1.1312716269	 1.9115266184	-0.0311500676	 0.123575
H	-0.4042628279	 1.9374395818	-0.9268103601	 0.119847
H	-0.4105027661	 1.9405573537	 0.8463276622	 0.13096
H	-0.9702468489	-0.3237847049	-0.0353320955	 0.075272
H	 0.1652324553	-0.8506795936	-2.0503804338	 0.113079
H	 1.6475018254	-0.0207936899	-1.5590159463	 0.108997
H	 1.0880805787	-2.906001813	-1.0114565126	 0.11649
H	 3.0851901874	-2.793919526	 0.5068780986	 0.140405
H	 3.1532036157	-0.9620703666	 0.2922831278	 0.123124
H	-0.1578745054	-2.470913928	 2.4780151892	 0.083195
79.8746	120.9765	194.0142	211.9717	235.0396	310.789	365.0972	415.2949	458.1909	520.6648	601.0142	702.8229	753.4548	804.8719	841.3946	871.0123	907.4007	914.8197	962.4325	990.5488	1036.9804	1060.5952	1077.9637	1085.033	1115.3114	1144.1331	1162.1192	1228.1831	1237.764	1267.8487	1296.4032	1359.8294	1374.0042	1387.9108	1408.6255	1418.6512	1460.3345	1482.8979	1492.3134	1498.0471	1804.3906	2898.7231	2972.9411	3040.0763	3043.4552	3102.2957	3115.7664	3121.3581	3133.1269	3188.3246	3233.7616
CC1CC2CC2(O1)C=O	C[C@H]1C[C@H]2C[C@]2(O1)C=O	
InChI=1S/C7H10O2/c1-5-2-6-3-7(6,4-8)9-5/h4-6H,2-3H2,1H3	InChI=1S/C7H10O2/c1-5-2-6-3-7(6,4-8)9-5/h4-6H,2-3H2,1H3/t5-,6-,7-/m0/s1
