17
gdb 26818	3.36044	1.12588	0.85225	4.6198	83.66	-0.2299	-0.0516	0.1783	1328.1577	0.134418	-421.886848	-421.877769	-421.876825	-421.921291	31.92	
C	 0.1492202612	 1.4616314121	 0.0091256275	-0.495339
C	-0.0502920386	-0.0112868789	-0.0048959537	 0.271931
C	-1.1667083619	-0.8121747722	 0.0431188838	 0.183045
C	-2.6012323044	-0.3883795391	 0.1295878273	-0.506843
C	-0.6730249464	-2.1485434771	-0.0069204318	-0.336133
C	 0.6926899929	-2.0724172808	-0.0810429185	 0.258499
O	 1.0750065018	-0.7623977722	-0.0798557172	-0.192748
C	 1.6985850953	-3.1143668094	-0.1546372162	 0.06493
O	 2.8964502793	-2.9436559527	-0.2182110223	-0.286714
H	 0.7624056073	 1.7667636265	 0.864157771	 0.151035
H	 0.6646543715	 1.7967663442	-0.8976302412	 0.151035
H	-0.8092872952	 1.9796249048	 0.0711164839	 0.137966
H	-3.1777875257	-0.752847496	-0.7278169511	 0.136554
H	-3.0806712231	-0.7832564099	 1.0321407231	 0.136551
H	-2.6997894751	 0.6996353421	 0.1538149243	 0.128478
H	-1.2550799689	-3.0584998711	 0.0098327842	 0.125554
H	 1.2493240102	-4.1325240404	-0.1470807131	 0.072199
70.5323	100.2117	107.1909	158.9866	202.2829	266.5175	266.5768	363.5501	382.2491	499.1807	627.0472	648.31	661.2826	702.4582	810.4298	840.1033	970.4505	993.1027	1017.249	1033.3974	1055.588	1067.383	1149.2052	1180.039	1248.3177	1336.7153	1394.3475	1408.5114	1426.2773	1449.1574	1471.1024	1484.1013	1484.2612	1497.564	1565.0874	1649.583	1784.2774	2882.058	3033.7669	3038.0606	3084.7266	3090.0342	3117.0613	3139.4204	3244.7502
CC1=C(C)C=C(O1)C=O	Cc1c(C)cc(o1)C=O	
InChI=1S/C7H8O2/c1-5-3-7(4-8)9-6(5)2/h3-4H,1-2H3	InChI=1S/C7H8O2/c1-5-3-7(4-8)9-6(5)2/h3-4H,1-2H3
