19
gdb 40931	3.67973	1.30579	1.16857	2.9739	74.33	-0.2418	0.0592	0.301	1095.9793	0.160222	-422.961313	-422.953716	-422.952772	-422.993949	29.03	
C	 0.3342184716	 1.5685392289	-0.3109046507	-0.078562
O	 1.5873553121	 1.3326102626	 0.3791496067	-0.288149
C	 1.1944935681	-0.0097898222	 0.7267340687	 0.04068
C	-0.138099588	 0.1261227458	-0.0618610596	-0.074378
C	 0.3852583974	-0.9121036313	-1.0906928032	-0.33925
C	 1.7073999916	-1.0611359546	-0.2873695876	 0.296572
C	 3.1200781933	-0.9145794582	-0.8726099573	-0.129819
O	 3.5611421816	-2.1322840461	-0.2299312805	-0.274862
C	 2.2218411823	-2.4256286676	 0.208862138	-0.135872
H	-0.2544890641	 2.3412518514	 0.1988384468	 0.105222
H	 0.4818123559	 1.8633456583	-1.357710164	 0.10193
H	 1.3054355469	-0.2165764122	 1.7957139356	 0.074661
H	-1.1301489823	-0.0204310401	 0.3616930323	 0.080878
H	-0.2005015295	-1.8356328398	-1.1152428416	 0.107329
H	 0.4881564863	-0.5458677736	-2.1171117091	 0.103916
H	 3.1728797149	-0.9894416926	-1.9677431322	 0.09425
H	 3.6801105579	-0.0339955075	-0.541230733	 0.121218
H	 2.1678265411	-2.6074455072	 1.2905180562	 0.101062
H	 1.7942969228	-3.2900969541	-0.3197343454	 0.093175
78.6023	84.5676	198.6127	254.9137	333.2926	365.0621	456.2897	510.9896	737.6904	785.2665	839.7859	843.6939	872.2709	891.6294	914.0817	950.8882	972.916	985.472	1010.1976	1022.3599	1034.7733	1051.823	1135.7382	1148.8037	1155.0601	1158.2079	1181.6481	1186.1042	1222.3864	1226.4651	1239.1923	1272.8613	1302.6014	1304.1733	1326.987	1358.8776	1377.7569	1477.0584	1508.1083	1524.7606	1533.5495	2987.4042	3005.0303	3010.4777	3035.0032	3044.6603	3054.6101	3061.1399	3074.6729	3095.1703	3125.6179
C1OC2C1CC21COC1	C1O[C@H]2[C@@H]1CC12COC1	
InChI=1S/C7H10O2/c1-5-2-9-6(5)7(1)3-8-4-7/h5-6H,1-4H2	InChI=1S/C7H10O2/c1-5-2-9-6(5)7(1)3-8-4-7/h5-6H,1-4H2/t5-,6+/m1/s1
