17
gdb 19709	5.2989	1.80894	1.62555	1.1662	67.65	-0.232	0.0746	0.3066	819.9476	0.14452	-363.797665	-363.791409	-363.790465	-363.827662	25.567	
O	-0.0061912521	 1.4509102751	-0.1059061736	-0.438062
C	 0.0221414616	 0.0518629232	-0.0084280984	 0.137734
C	-0.0515356333	-0.6204374219	 1.383775632	-0.08342
C	-1.5223081433	-0.1245432372	 1.5576967331	-0.002104
C	-2.2763436024	-1.2116674852	 2.3136389107	-0.265265
C	-1.6012762104	-2.4388638393	 1.6410255302	-0.157566
N	-0.6410019074	-1.8409659602	 0.6799393102	-0.137914
C	-1.3498854171	-0.6228438216	 0.0862765652	-0.055748
H	 0.8979026682	 1.7742277347	-0.0496080893	 0.287746
H	 0.7219434063	-0.4147940413	-0.7099244738	 0.080745
H	 0.7236290374	-0.7284946133	 2.1469064397	 0.06988
H	-1.7338742646	 0.9235590518	 1.7651914012	 0.081305
H	-2.1063616366	-1.1653930508	 3.3939750481	 0.098828
H	-3.3567010564	-1.1675189854	 2.1435781861	 0.100134
H	-1.0545144057	-3.071119604	 2.3466584955	 0.103385
H	-2.3053366957	-3.0740624883	 1.0955495334	 0.104225
H	-2.1126004786	-0.7307312864	-0.6880624104	 0.076099
230.8229	242.6445	268.5723	295.232	445.2202	536.4167	713.9268	734.683	739.559	806.2628	825.4216	831.0843	915.9467	923.3911	939.168	965.0286	994.1556	1031.1864	1043.0102	1084.9453	1108.1695	1117.4589	1154.3362	1179.2434	1192.6646	1219.7984	1234.5402	1246.1557	1257.4405	1282.3689	1296.1341	1326.6323	1341.3108	1436.2916	1492.9416	1510.6265	3045.8043	3052.8048	3057.2494	3079.3416	3081.6446	3092.79	3104.1312	3132.2771	3827.9774
OC1C2C3CCN2C13	O[C@H]1[C@H]2[C@@H]3CCN2[C@H]13	
InChI=1S/C6H9NO/c8-6-4-3-1-2-7(4)5(3)6/h3-6,8H,1-2H2	InChI=1S/C6H9NO/c8-6-4-3-1-2-7(4)5(3)6/h3-6,8H,1-2H2/t3-,4+,5-,6-
