23
gdb 123049	5.92708	0.54828	0.5288	2.1324	83.58	-0.2431	0.0846	0.3277	2160.6637	0.204417	-425.39795	-425.387438	-425.386494	-425.435519	36.224	
C	 0.0083857344	 1.4698219541	 0.1475642678	-0.382613
C	-0.0626427969	-0.058661701	 0.1150049476	-0.182329
C	-1.4893019382	-0.5718308274	-0.0227934132	-0.030018
O	-1.4666744666	-1.9844774776	-0.0409960199	-0.251618
C	-2.7438316231	-2.567801173	-0.1650361786	-0.069079
C	-2.5824771944	-4.0745661721	-0.1347484018	-0.045107
C	-2.2327506632	-4.6774664839	 1.2422844688	-0.069331
O	-3.5293847423	-5.3066771545	 1.3456692277	-0.272838
C	-3.8910047486	-4.8797923743	 0.0175733362	-0.090198
H	 1.0421513026	 1.8128456802	 0.2466885087	 0.11823
H	-0.4000619834	 1.9089757993	-0.7694214135	 0.116416
H	-0.5588917309	 1.8784612164	 0.9911283621	 0.116921
H	 0.5297301409	-0.449910133	-0.7200478146	 0.106653
H	 0.3709680289	-0.4796537843	 1.0293892425	 0.106957
H	-2.1104108165	-0.210540095	 0.8155960118	 0.083927
H	-1.9483902366	-0.1852345646	-0.9497412518	 0.082707
H	-3.401173763	-2.242688307	 0.6611188096	 0.089339
H	-3.2277461379	-2.2519521949	-1.1062689404	 0.084793
H	-1.931767815	-4.3914963986	-0.9522335184	 0.08597
H	-1.4200471799	-5.4143899565	 1.2412276398	 0.099149
H	-2.0563488221	-3.9528699224	 2.0460888322	 0.105409
H	-4.8206805353	-4.2949650237	 0.0101716766	 0.097805
H	-4.0028190031	-5.7267412863	-0.671535219	 0.098856
37.5902	59.5909	66.3295	96.9943	132.7067	156.881	226.1731	233.5773	300.2385	368.6505	448.0769	508.6845	765.0135	798.8345	872.0607	888.7117	899.7495	913.0582	927.51	972.7039	1006.1241	1037.8487	1053.54	1078.1409	1114.5477	1147.725	1154.2354	1159.9347	1161.7883	1187.2127	1208.0101	1245.6696	1267.6629	1281.5647	1309.2659	1314.8183	1330.8094	1348.0641	1388.2576	1404.9501	1412.2403	1454.0241	1491.8	1499.9822	1505.7054	1511.9026	1516.5221	1533.8797	1540.9656	2935.4045	2948.7985	2966.9734	2969.3044	3002.2174	3018.5332	3031.7239	3038.8867	3042.5321	3059.8387	3071.4501	3093.9151	3099.8187	3108.7885
CCCOCC1COC1	CCCOCC1COC1	
InChI=1S/C7H14O2/c1-2-3-8-4-7-5-9-6-7/h7H,2-6H2,1H3	InChI=1S/C7H14O2/c1-2-3-8-4-7-5-9-6-7/h7H,2-6H2,1H3
