17
gdb 46773	2.61927	1.87663	1.29181	4.1985	71.97	-0.2589	0.0079	0.2668	976.7281	0.138996	-421.88847	-421.881569	-421.880625	-421.920044	27.018	
O	-0.105811424	 0.1309382546	 0.6634426431	-0.344751
C	-0.0635932924	 1.2970205409	 0.3951845754	 0.439477
O	-1.1702009927	 2.0846351375	 0.4091711856	-0.215671
C	-0.8620407328	 3.4368787695	 0.043507628	-0.096478
C	 0.6712532239	 3.5772971809	 0.131785864	-0.085966
C	 1.2138256453	 3.9966445786	 1.480687429	-0.076527
C	 2.0858954849	 3.1177032265	 1.9728329742	-0.057747
C	 2.3018837271	 1.940764345	 1.0519020554	-0.269773
C	 1.1701355405	 2.119751988	 0.0138690017	-0.179353
H	-1.2310651231	 3.6136045083	-0.9730024853	 0.114524
H	-1.3970783047	 4.0982378945	 0.7301680291	 0.122841
H	 1.0305279169	 4.2388404756	-0.6642209121	 0.090542
H	 0.923005212	 4.928479924	 1.9537535691	 0.09909
H	 2.6166607171	 3.2248121486	 2.9122214051	 0.102863
H	 3.293008354	 1.9824202536	 0.5826322668	 0.111071
H	 2.2274926276	 0.969636199	 1.552057138	 0.138339
H	 1.4703303003	 1.8266869052	-0.995608437	 0.107518
90.4041	159.2588	236.2508	302.8222	431.5956	498.5992	582.8952	638.9375	693.3154	738.038	781.1183	802.6765	855.4148	872.9787	930.2764	947.4109	975.6548	1002.1339	1018.8889	1040.5107	1076.6548	1097.0336	1131.0746	1155.0385	1186.3045	1220.5999	1232.585	1264.0169	1304.0705	1310.3677	1332.3757	1370.0929	1405.7409	1489.9562	1520.7968	1681.1097	1873.7221	3028.064	3034.5295	3047.924	3078.0976	3083.7658	3097.1613	3182.912	3208.8393
O=C1OCC2C=CCC12	O=C1OC[C@H]2C=CC[C@@H]12	
InChI=1S/C7H8O2/c8-7-6-3-1-2-5(6)4-9-7/h1-2,5-6H,3-4H2	InChI=1S/C7H8O2/c8-7-6-3-1-2-5(6)4-9-7/h1-2,5-6H,3-4H2/t5-,6-/m1/s1
