25
gdb 118578	2.73154	0.71995	0.59773	2.9501	87.07	-0.2453	0.0785	0.3238	1964.2399	0.226968	-426.620594	-426.608974	-426.60803	-426.65833	41.019	
C	-0.0781435134	 1.5992731184	 0.0832536145	-0.380636
C	-0.0906282684	 0.0684343676	 0.0545114095	-0.173952
C	 0.8156658857	-0.5525934569	 1.1253670742	-0.181696
C	 0.8400363064	-2.0933337011	 1.1277954819	-0.04063
C	 1.6862420423	-2.6551948813	-0.0304563808	-0.048339
O	 1.4886177522	-4.0338727372	-0.2597114174	-0.433472
C	 1.3554582413	-2.5901742671	 2.4802194804	-0.069646
O	 1.3716735513	-4.0105692963	 2.5063950962	-0.244304
C	 1.8894963102	-4.5392928181	 3.7066076409	-0.234503
H	 0.9292065521	 1.991031296	-0.0969491847	 0.114282
H	-0.7392353471	 2.0176279577	-0.6819823446	 0.113363
H	-0.4106890029	 1.9806503614	 1.0553251514	 0.112802
H	-1.1164714179	-0.2935460526	 0.201303164	 0.098879
H	 0.2122612354	-0.2772942919	-0.940827816	 0.105354
H	 1.8408536355	-0.1744906119	 1.0009785926	 0.094224
H	 0.48418345	-0.1941298418	 2.1096164986	 0.08933
H	-0.1829564309	-2.4711406982	 0.9983566329	 0.086294
H	 1.4234932774	-2.1486644592	-0.9650967865	 0.09998
H	 2.7495054397	-2.4227719469	 0.1683102381	 0.07162
H	 1.5528488436	-4.4576345688	 0.6063348085	 0.287225
H	 2.374577423	-2.2040994415	 2.6589631365	 0.088246
H	 0.7170542984	-2.2141470756	 3.2965997836	 0.090176
H	 2.9323621548	-4.2280606752	 3.8710050169	 0.110873
H	 1.2927187193	-4.2203658074	 4.5744159077	 0.111463
H	 1.8502441718	-5.628187652	 3.6301997215	 0.133065
59.0874	68.247	94.5237	104.5375	115.5988	170.3782	229.6503	245.6617	248.5094	282.4051	315.361	359.899	378.4042	478.0882	542.7715	579.527	738.4156	837.3801	890.9756	905.9137	916.2944	981.4843	1018.2231	1042.9181	1069.6315	1088.239	1111.0958	1139.6548	1160.2601	1167.8181	1187.7056	1226.1813	1234.1333	1252.036	1288.2547	1294.1448	1323.5635	1344.1558	1362.0149	1389.3713	1403.418	1413.1613	1426.0275	1466.7387	1482.1014	1484.5602	1486.256	1493.454	1500.1225	1501.4498	1509.721	1510.8436	1527.0689	2925.8997	2948.586	2980.5335	2983.3337	3000.2828	3023.0612	3024.1963	3028.9569	3029.0183	3035.8877	3059.304	3067.9931	3096.2105	3102.6323	3121.0142	3753.207
CCCC(CO)COC	CCC[C@@H](CO)COC	
InChI=1S/C7H16O2/c1-3-4-7(5-8)6-9-2/h7-8H,3-6H2,1-2H3	InChI=1S/C7H16O2/c1-3-4-7(5-8)6-9-2/h7-8H,3-6H2,1-2H3/t7-/m0/s1
