21
gdb 114258	4.83772	0.81732	0.8053	1.2584	79.37	-0.2365	0.0763	0.3128	1499.406	0.182055	-424.193888	-424.184749	-424.183805	-424.228562	33.942	
O	 0.0287698587	 1.3661933657	-0.0898683794	-0.422739
C	 0.0556318684	-0.0463153843	 0.0605927165	-0.095578
C	-1.3730924016	-0.544990049	 0.0372570191	 0.053319
C	-2.1593940213	-0.4649442972	-1.3011218004	-0.29752
C	-2.7441738584	-1.8597517595	-0.9914217432	 0.465624
C	-4.2234523175	-2.0217240712	-0.5746187588	-0.344721
C	-4.2962137684	-3.0142136073	-1.7500047601	-0.076329
O	-2.9041033449	-2.8047466719	-2.0640974554	-0.315686
C	-1.6088593285	-2.0812995154	 0.0335464261	-0.32929
H	 0.9357611002	 1.6850787232	-0.1079408504	 0.286343
H	 0.6224879982	-0.5240633669	-0.7561127206	 0.081086
H	 0.537892865	-0.3387246448	 1.008585271	 0.083546
H	-1.9305836195	-0.0609196423	 0.845301596	 0.078696
H	-2.856436255	 0.3628672282	-1.4502558006	 0.099209
H	-1.4849308403	-0.5233019275	-2.1616138119	 0.108653
H	-4.3826366863	-2.4542789436	 0.4152774713	 0.108574
H	-4.8357502089	-1.1237942248	-0.6782226078	 0.11076
H	-4.5033386713	-4.0578327423	-1.4842373574	 0.101051
H	-4.9508398074	-2.7240067067	-2.5805346063	 0.101944
H	-0.7788514083	-2.6139946541	-0.4429971954	 0.108458
H	-1.8573429429	-2.5775920581	 0.9755436877	 0.094599
59.5424	66.2522	104.2022	187.5829	258.1195	280.4752	309.3673	367.7522	418.9108	455.4868	530.5832	711.4318	783.0705	824.117	851.6742	865.8278	909.621	934.6495	945.6335	974.835	1013.5063	1027.3988	1038.4037	1065.3776	1088.2958	1156.6909	1160.1373	1183.7493	1187.3825	1217.9753	1225.7773	1231.3035	1240.8818	1259.5575	1284.04	1289.1655	1312.0038	1358.7855	1370.976	1461.8312	1464.4066	1484.6287	1492.1279	1519.9208	1531.7796	2952.9337	2979.9281	3017.4291	3044.2703	3053.9969	3056.3358	3060.1602	3071.8883	3102.5077	3112.9801	3126.3901	3828.8385
OCC1CC2(CCO2)C1	OC[C@H]1C[C@]2(CCO2)C1	
InChI=1S/C7H12O2/c8-5-6-3-7(4-6)1-2-9-7/h6,8H,1-5H2	InChI=1S/C7H12O2/c8-5-6-3-7(4-6)1-2-9-7/h6,8H,1-5H2/t6-,7+
