19
gdb 55401	2.63264	1.49932	0.99053	3.9914	78.59	-0.2497	-0.0113	0.2385	1193.9516	0.160964	-419.269225	-419.260631	-419.259687	-419.302818	32.088	
C	 0.282403169	 1.4537004502	 0.0485115755	-0.432897
C	-0.036599034	-0.017278636	 0.0352914797	 0.374242
N	-0.2333053469	-0.6158377692	 1.1453363379	-0.503275
N	-0.079263242	-0.6684494391	-1.2177305506	-0.142663
C	-0.2464610176	-2.1223043646	-1.2958963959	-0.180546
C	 0.0676345032	-2.4580358219	-2.7645977018	-0.240147
C	-0.3070163813	-1.1755362958	-3.5103779167	-0.323865
C	-0.1160188604	-0.0651046933	-2.4805439494	 0.411754
O	-0.0372401332	 1.1167272287	-2.7171364038	-0.366047
H	 1.2195073221	 1.6635444239	-0.4727395751	 0.139776
H	-0.4880711913	 2.0315745351	-0.4653927795	 0.153145
H	 0.3523420487	 1.7611260089	 1.0916689361	 0.134591
H	-0.456674507	-1.6030690837	 1.0273583251	 0.210556
H	 0.4355221992	-2.6204071436	-0.6009899249	 0.129211
H	-1.2718445765	-2.4074338027	-1.0233232113	 0.120656
H	 1.1374501587	-2.6588399642	-2.8740169317	 0.123652
H	-0.474217174	-3.341905833	-3.1054696076	 0.117072
H	 0.2874220787	-0.9686246735	-4.4014094751	 0.13782
H	-1.3615740552	-1.1682504461	-3.8119533709	 0.136964
59.1611	117.8381	163.1516	215.8152	245.215	255.5962	389.8697	402.8318	539.5683	571.2647	575.2153	610.3125	657.4544	724.3195	850.9162	877.1851	915.0762	946.6808	968.95	1004.5724	1038.2843	1076.8739	1092.84	1113.2524	1182.2942	1206.1275	1224.8401	1252.9822	1281.066	1311.8624	1348.5233	1358.3263	1400.152	1418.1527	1455.6307	1467.9057	1476.4264	1501.02	1532.4195	1700.6011	1823.8059	3010.9286	3046.8197	3062.8932	3066.173	3080.8271	3117.5022	3127.134	3131.9819	3165.1644	3491.0208
CC(=N)N1CCCC1=O	C[C]([NH])N1CCCC1=O	
InChI=1S/C6H10N2O/c1-5(7)8-4-2-3-6(8)9/h7H,2-4H2,1H3	InChI=1S/C6H10N2O/c1-5(7)8-4-2-3-6(8)9/h7H,2-4H2,1H3
