17
gdb 75086	3.03267	1.40723	1.11311	2.9429	74.62	-0.2392	-0.0321	0.2071	1109.6097	0.135572	-421.841752	-421.83381	-421.832866	-421.874252	30.24	
C	 0.0899617223	 1.5436044437	 0.0884931094	-0.497126
C	-0.0062046829	 0.0474621911	-0.025339602	 0.35739
C	-0.010047688	-0.6122365785	-1.1865922647	-0.184751
C	-0.1187695805	-2.1140070109	-1.2913711803	-0.379508
C	-0.8057391263	-2.7519434018	-0.0906216467	 0.392762
O	-1.6132929211	-3.6469654613	-0.1871007397	-0.313139
C	-0.4520128652	-2.1595009652	 1.2403694319	-0.064796
O	 0.9090966514	-1.7599299817	 1.4204008302	-0.241699
C	-0.066512303	-0.7242999946	 1.2519154406	-0.064704
H	 0.9853809436	 1.843019349	 0.6474727465	 0.135718
H	 0.1283552077	 2.0160838987	-0.8958391631	 0.128694
H	-0.7705950647	 1.9574239296	 0.6293690938	 0.130584
H	 0.0839610902	-0.0639338256	-2.1201861829	 0.099663
H	-0.6601686441	-2.4219600968	-2.1895414868	 0.133819
H	 0.8888466276	-2.5515180048	-1.3632012898	 0.152926
H	-0.9399165	-2.6094380246	 2.1021885283	 0.11034
H	-0.2675181569	-0.1608526764	 2.1621568053	 0.103827
79.4101	178.4594	195.0641	250.2343	289.6407	311.2407	456.3222	458.6165	493.5358	559.1801	609.0961	707.4107	754.668	816.6619	856.6412	880.7943	942.1119	952.5583	989.0549	1038.3728	1069.8891	1086.243	1116.8023	1167.1927	1185.6926	1243.7325	1253.0802	1310.8563	1349.2421	1363.5404	1414.9778	1435.2266	1441.9576	1478.3223	1491.2521	1731.5506	1812.0351	3003.5758	3019.407	3066.8385	3097.5152	3118.9839	3122.5706	3148.2219	3161.5867
CC1=CCC(=O)C2OC12	CC1=CCC(=O)[C@H]2O[C@@H]12	
InChI=1S/C7H8O2/c1-4-2-3-5(8)7-6(4)9-7/h2,6-7H,3H2,1H3	InChI=1S/C7H8O2/c1-4-2-3-5(8)7-6(4)9-7/h2,6-7H,3H2,1H3/t6-,7+/m0/s1
