15
gdb 36560	4.96875	0.52199	0.47652	4.0344	78.99	-0.2874	-0.0013	0.2861	2118.0695	0.111444	-379.671468	-379.661778	-379.660834	-379.709425	32.085	
N	-0.1310276446	-1.0508011111	-0.4586194708	-0.296516
C	 0.1341303812	 0.0705989376	-0.5419712268	 0.256808
C	 0.476681493	 1.4884318168	-0.6180486278	-0.325829
C	 0.9576490036	 2.0378006746	 0.7507330304	-0.352297
C	 1.297928117	 3.4518213646	 0.6693845649	 0.040526
C	 1.5701975496	 4.6182582209	 0.5685417147	 0.137821
C	 1.9051846711	 6.0366729591	 0.461620122	-0.472807
C	 1.7030949985	 6.5681918832	-0.8928878622	 0.278997
N	 1.546787688	 6.9931632391	-1.9547927652	-0.295687
H	 1.2584469578	 1.628813358	-1.3709779775	 0.170321
H	-0.3980983587	 2.051175425	-0.9584112677	 0.170322
H	 0.1716863142	 1.8802209069	 1.4976815241	 0.158341
H	 1.8252465527	 1.458604263	 1.0858549898	 0.15834
H	 1.2978305489	 6.6295549557	 1.1574947959	 0.185831
H	 2.9515178177	 6.2079367066	 0.7453192363	 0.185831
9.5706	47.7865	59.7878	126.9732	205.4891	206.7156	325.6561	361.1134	380.3724	405.5537	443.0685	522.8462	593.4401	767.0839	805.2947	929.2778	936.6908	953.2902	1007.6827	1035.0697	1164.3532	1199.5968	1234.1885	1287.3425	1307.692	1338.62	1371.9517	1448.8008	1468.2362	1480.3136	2365.6827	2372.0909	2385.7522	3027.3164	3041.9781	3057.9019	3062.7534	3074.9508	3106.1873
N#CCCC#CCC#N	N#CCCC#CCC#N	
InChI=1S/C7H6N2/c8-6-4-2-1-3-5-7-9/h2,4-5H2	InChI=1S/C7H6N2/c8-6-4-2-1-3-5-7-9/h2,4-5H2
