19
gdb 94624	3.67584	0.9009	0.79627	3.0031	72.26	-0.248	0.0584	0.3065	1451.109	0.157824	-460.109224	-460.100023	-460.099078	-460.14461	32.698	
O	 0.102593613	 1.4304418315	-0.1149766533	-0.421624
C	 0.0471453693	 0.0278031239	-0.0097045654	 0.037255
C	-0.0393602142	-0.5800816618	 1.4090545639	-0.096847
O	-1.3338644522	-1.1490003444	 1.1302621126	-0.296792
C	-1.3788972118	-0.5436221289	-0.1893898753	 0.124668
C	-2.5209096674	 0.4534121609	-0.3324198261	-0.233044
C	-3.8573886884	-0.2354148413	-0.1995207883	 0.090706
C	-5.0371518788	 0.1927210974	-0.9584268156	-0.179953
O	-4.3068449185	-0.9726335329	-1.3446906076	-0.242462
H	 1.0183228917	 1.7092887137	-0.0210442703	 0.290694
H	 0.7946253149	-0.4506143959	-0.6538140372	 0.080319
H	 0.7011562966	-1.3479644279	 1.6640492437	 0.099181
H	-0.0756863493	 0.174972231	 2.2051138648	 0.100795
H	-1.4641465787	-1.3173440872	-0.9621016442	 0.093478
H	-2.4241496923	 1.231917465	 0.4312541201	 0.113221
H	-2.4540156644	 0.9395209884	-1.3118691691	 0.109748
H	-4.0161963213	-0.7538680382	 0.7459970573	 0.108761
H	-6.0355507536	 0.0106855891	-0.5625978741	 0.112231
H	-4.9572976245	 1.0411063374	-1.6378083062	 0.109667
50.6142	67.9726	83.9202	131.0434	207.5466	226.8548	331.0713	397.6795	424.81	499.0468	538.5799	748.5987	797.8883	834.5511	866.1883	894.6415	909.8217	965.4051	989.6414	1026.0686	1060.5498	1089.4634	1106.6892	1129.9055	1150.461	1158.2688	1170.262	1184.0643	1198.5836	1244.9689	1278.665	1293.1386	1307.2564	1312.334	1354.0134	1395.1343	1439.2617	1443.8296	1457.6322	1514.346	1530.1968	3009.1716	3021.6316	3038.734	3049.0276	3061.6727	3078.1132	3095.6283	3119.9734	3163.7169	3828.046
OC1COC1CC1CO1	O[C@H]1CO[C@H]1C[C@H]1CO1	
InChI=1S/C6H10O3/c7-5-3-9-6(5)1-4-2-8-4/h4-7H,1-3H2	InChI=1S/C6H10O3/c7-5-3-9-6(5)1-4-2-8-4/h4-7H,1-3H2/t4-,5-,6-/m0/s1
