17
gdb 12744	3.18154	1.78937	1.4887	4.2875	72.46	-0.2713	0.0294	0.3007	911.8796	0.14271	-326.721472	-326.713915	-326.712971	-326.753153	28.624	
C	-0.0434025235	 1.533610014	 0.0026754894	-0.501369
C	 0.0412623534	 0.0358101675	 0.0273790816	 0.361828
C	-0.8411369351	-0.8431024851	 0.8693238083	-0.331102
C	 0.650277735	-0.9341809417	 1.0471144144	-0.09105
C	 1.2496079652	-1.7963919588	-0.0656906169	-0.243223
C	 0.6475695848	-0.8002812906	-1.1256650038	-0.209583
C	-0.2711548406	-1.3324828911	-2.123727874	 0.274125
N	-1.0142629782	-1.76424273	-2.8978103189	-0.336239
H	 0.9112665213	 1.9868753177	-0.288256162	 0.119029
H	-0.8056601366	 1.874507235	-0.7079151403	 0.135423
H	-0.3129630302	 1.9246712972	 0.9887486589	 0.12535
H	-1.3722539677	-0.3202370935	 1.6583490126	 0.117498
H	-1.3989689613	-1.6668378455	 0.4294290705	 0.126727
H	 1.1327729682	-0.7079106758	 1.9901297666	 0.094265
H	 2.3402550862	-1.7941680754	-0.0964973538	 0.117444
H	 0.8927690949	-2.8282109686	-0.1232883182	 0.119802
H	 1.4438909042	-0.2521052051	-1.6361239245	 0.121076
113.1164	136.8214	210.4083	253.4992	302.8591	366.9868	421.6546	516.3729	554.0332	637.3764	715.4368	796.6839	826.0211	873.48	949.6756	960.2614	986.9176	1017.0791	1040.3442	1045.6716	1080.6494	1101.7792	1118.3618	1159.5974	1201.2509	1242.2853	1264.7894	1293.2608	1333.535	1398.1902	1426.0259	1484.6479	1486.5193	1497.4929	1507.6046	2349.017	3023.5618	3065.5071	3074.9795	3082.7466	3102.3024	3110.3064	3125.5389	3185.6514	3202.1876
CC12CC1CC2C#N	C[C@]12C[C@H]1C[C@H]2C#N	
InChI=1S/C7H9N/c1-7-3-5(7)2-6(7)4-8/h5-6H,2-3H2,1H3	InChI=1S/C7H9N/c1-7-3-5(7)2-6(7)4-8/h5-6H,2-3H2,1H3/t5-,6+,7+/m1/s1
