14
gdb 70170	2.71618	1.78132	1.20757	3.1969	64.99	-0.2627	-0.0795	0.1832	972.1253	0.100099	-473.822027	-473.814434	-473.81349	-473.854106	28.762	
O	 0.2414738671	 1.3081069841	-0.4508814044	-0.464898
C	 0.0196215905	-0.0005800222	-0.0815608644	 0.331171
C	-0.4900423923	-1.015916172	-1.108162365	-0.364705
C	-1.3269379758	-0.6604561951	 0.0781265028	-0.007602
O	-1.2683949435	-1.6076081775	 1.1450654015	-0.238098
C	-0.021461582	-1.6206821129	 1.7082714171	 0.320973
N	 0.3716406591	-2.3787270088	 2.6339082787	-0.494476
C	 0.8158604661	-0.5333137974	 1.054441936	 0.25138
O	 1.8576833656	-0.0708047261	 1.4445455857	-0.310911
H	 1.07496264	 1.5627235253	-0.0275028747	 0.304788
H	-0.7613932415	-0.5558525281	-2.0523731385	 0.150911
H	-0.0583429201	-2.009397515	-1.1711609165	 0.142889
H	-2.2768213552	-0.1468412441	 0.0104143398	 0.139403
H	-0.3706778881	-3.0184431002	 2.9264243118	 0.239176
92.2751	148.1098	272.9554	289.3653	331.1219	332.6921	444.0037	454.8576	532.4565	581.5689	620.0705	689.8756	804.0293	860.0996	897.1548	910.2047	921.4034	987.1231	1011.3135	1017.2989	1060.9826	1076.6169	1136.4429	1200.8926	1246.1084	1348.9964	1391.4495	1421.0667	1480.9216	1766.0843	1838.1455	3132.2784	3211.3179	3231.6587	3466.5533	3730.9107
OC12CC1OC(=N)C2=O	O[C@]12C[C@H]1O[C]([NH])C2=O	
InChI=1S/C5H5NO3/c6-4-3(7)5(8)1-2(5)9-4/h2,6,8H,1H2	InChI=1S/C5H5NO3/c6-4-3(7)5(8)1-2(5)9-4/h2,6,8H,1H2/t2-,5-/m1/s1
