17
gdb 85228	2.76367	1.52197	1.10489	1.6791	67.9	-0.2476	-0.0334	0.2143	1089.0444	0.134577	-458.976017	-458.967546	-458.966601	-459.009198	31.782	
C	-0.3070588619	 1.4795884861	 0.1111558934	-0.494619
C	 0.1102314221	 0.0510624052	-0.0567004286	 0.288701
O	-0.7280414112	-0.977705789	 0.5322929539	-0.300297
C	 0.6245709635	-0.8562841402	 0.9869712565	-0.067827
C	 1.4919598158	-1.9576177998	 0.3907319532	 0.126331
O	 1.2204735611	-3.2233248429	 0.956106749	-0.435678
C	 1.231601799	-1.8569150968	-1.1356970111	-0.375915
C	 0.6778991234	-0.4500685568	-1.3708953306	 0.370481
O	 0.7339833398	 0.1938407912	-2.3866024201	-0.310296
H	 0.5402012036	 2.1469982186	-0.0712201834	 0.139227
H	-1.0881332032	 1.7323787183	-0.6114668514	 0.147789
H	-0.6888767347	 1.6526194385	 1.119703641	 0.132805
H	 0.7483021075	-0.5423403426	 2.0204080359	 0.10928
H	 2.5457130405	-1.7564618151	 0.610664399	 0.103473
H	 0.2675692886	-3.3612020279	 0.8886429061	 0.290342
H	 2.1194409688	-2.0283057036	-1.746207337	 0.136445
H	 0.4780360173	-2.5926307632	-1.4359228857	 0.139759
75.313	120.7122	162.7938	230.8348	284.1147	304.1034	395.1572	415.6917	491.6715	515.7268	533.0572	613.5071	682.5493	703.4351	806.385	859.477	872.5875	947.7897	995.4127	1035.9705	1069.9359	1091.4597	1099.8563	1109.3207	1153.4303	1231.9253	1285.6949	1293.8643	1309.1136	1327.8488	1409.1005	1431.8328	1444.6517	1454.4815	1478.8566	1490.9579	1844.209	3050.7539	3060.9528	3065.2567	3119.0286	3129.3752	3135.7388	3153.4447	3784.977
CC12OC1C(O)CC2=O	C[C@]12O[C@H]1[C@@H](O)CC2=O	
InChI=1S/C6H8O3/c1-6-4(8)2-3(7)5(6)9-6/h3,5,7H,2H2,1H3	InChI=1S/C6H8O3/c1-6-4(8)2-3(7)5(6)9-6/h3,5,7H,2H2,1H3/t3-,5-,6+/m0/s1
