17
gdb 64602	2.14572	1.61055	1.33543	2.5011	74.3	-0.2459	-0.0464	0.1995	1048.6055	0.133803	-421.867322	-421.858533	-421.857589	-421.901285	31.882	
C	 0.0205231449	 1.6754940076	 0.229276871	-0.434816
C	-0.0040050433	 0.1382891136	 0.0583866477	 0.015652
C	-1.4604555344	-0.3120022883	 0.1921098996	 0.138012
O	-2.0834767753	-0.8743031871	-0.6678704662	-0.243566
C	 0.6705407362	-0.3810490297	-1.183593149	-0.085318
C	 1.6847556441	-1.2037875657	-0.9160280999	-0.090244
C	 1.8937299378	-1.414626877	 0.559113141	-0.375891
C	 0.818389425	-0.5261959769	 1.19396501	 0.367079
O	 0.6246926357	-0.3524063674	 2.3683020419	-0.315188
H	 1.0469373818	 2.0471109133	 0.16796565	 0.133154
H	-0.5687774193	 2.1626023305	-0.5533763586	 0.13194
H	-0.387152446	 1.9529821543	 1.2053874128	 0.145495
H	-1.9106171968	-0.0573393381	 1.1764993496	 0.101017
H	 0.332744498	-0.1042366494	-2.1744589745	 0.114904
H	 2.301604556	-1.6884727173	-1.6635586446	 0.109526
H	 1.7550841668	-2.4554488279	 0.8802233122	 0.146129
H	 2.8864606888	-1.1160102446	 0.9191326869	 0.142116
49.7847	93.1203	179.2514	200.7465	214.9607	257.9284	297.3949	406.778	480.0105	557.0732	578.9651	627.7385	702.5558	740.5579	802.3473	873.2227	915.8542	949.527	971.4022	986.1265	1009.5957	1068.5216	1103.7846	1131.8357	1162.9143	1190.4103	1242.0035	1289.9824	1372.8568	1392.3411	1420.4576	1441.7133	1489.6476	1497.5681	1681.707	1818.5946	1848.7145	2900.1952	3027.9675	3040.6067	3056.3555	3117.204	3124.1732	3197.1664	3221.2711
CC1(C=O)C=CCC1=O	C[C@@]1(C=O)C=CCC1=O	
InChI=1S/C7H8O2/c1-7(5-8)4-2-3-6(7)9/h2,4-5H,3H2,1H3	InChI=1S/C7H8O2/c1-7(5-8)4-2-3-6(7)9/h2,4-5H,3H2,1H3/t7-/m0/s1
