13
gdb 45926	3.06365	1.49058	1.00906	1.1826	62.79	-0.2862	-0.0732	0.2129	1063.4009	0.090725	-489.954858	-489.94728	-489.946336	-489.989291	26.775	
N	-0.0789088641	 1.2788703325	 0.1608579837	-0.47375
C	-0.0005609343	 0.0199101065	 0.0480916814	 0.235933
N	-1.1491202001	-0.7461856166	-0.0910326498	-0.365399
C	-1.201010777	-2.1109240044	-0.2090955588	 0.388128
O	-2.2326274505	-2.7292138456	-0.3268283733	-0.340175
C	 0.1355616558	-2.8340924137	-0.1775670682	-0.184977
O	 1.3306736707	-2.0520724922	-0.072541871	-0.231213
C	 1.3307147828	-0.7168521483	 0.051649947	 0.402784
O	 2.3609310599	-0.1123490844	 0.1581828066	-0.311369
H	 0.8668481199	 1.6566198116	 0.2484041975	 0.258221
H	-2.031851084	-0.2475340195	-0.1026225022	 0.278926
H	 0.1178578218	-3.5274019703	 0.6687954891	 0.17098
H	 0.2130907591	-3.4291615356	-1.091740672	 0.171912
10.919	94.0765	136.8964	346.9527	403.2382	451.0825	453.4197	478.1632	549.4858	623.9116	655.8612	726.7449	792.5067	811.3005	907.4408	941.3724	1010.0111	1066.2809	1154.3246	1207.2233	1259.6422	1361.6033	1398.1251	1428.5153	1444.7709	1483.288	1734.9786	1823.7347	1842.5229	3067.1038	3110.4355	3476.5571	3571.3944
N=C1NC(=O)COC1=O	[NH][C]1NC(=O)COC1=O	
InChI=1S/C4H4N2O3/c5-3-4(8)9-1-2(7)6-3/h1H2,(H2,5,6,7)	InChI=1S/C4H4N2O3/c5-3-4(8)9-1-2(7)6-3/h1H2,(H2,5,6,7)
