17
gdb 128782	4.57944	0.88733	0.84727	1.6613	71.05	-0.2189	0.0196	0.2385	1379.2724	0.136849	-455.153802	-455.145064	-455.14412	-455.187903	31.677	
C	 0.769592699	 0.7022509562	-1.50058678	-0.243076
O	-0.2757554441	 0.3911982238	-0.5978975696	-0.232755
C	 0.106081751	-0.5300687498	 0.4078987992	-0.192571
C	 0.2217152111	-1.9324958144	-0.1139238781	 0.382491
C	 1.0753777107	-2.9767980685	 0.1872391453	-0.429371
C	 0.6156842751	-4.0384627624	-0.6238537625	 0.438481
O	 1.1488369706	-5.277191504	-0.6681929297	-0.430166
N	-0.4217895766	-3.6993719743	-1.3749386723	-0.336991
N	-0.6522964471	-2.4051489018	-1.0331098471	-0.245544
H	 1.618857347	 1.1696349871	-0.9799868644	 0.111093
H	 1.1343451124	-0.1869913128	-2.0325123201	 0.12268
H	 0.3642190227	 1.4115488263	-2.2255650514	 0.131548
H	 1.0532988836	-0.2374298184	 0.8848109155	 0.108257
H	-0.6795852228	-0.4683506741	 1.1701143643	 0.128176
H	 1.8979547714	-2.9810404247	 0.8823861619	 0.108615
H	 0.6347736566	-5.7815403346	-1.3112492785	 0.302421
H	-1.3660336207	-1.8788398538	-1.5067429825	 0.276711
49.5377	94.3199	144.1809	210.0902	232.0911	336.5129	359.6647	414.6814	431.3057	474.9202	502.6265	643.0153	703.7802	719.6605	777.812	790.132	937.8624	1002.6408	1017.7296	1046.2735	1125.366	1149.6592	1177.2571	1183.0542	1216.9975	1234.5492	1296.6706	1330.7493	1377.9709	1452.5712	1477.9241	1486.9744	1491.3213	1509.0731	1528.927	1559.5976	1615.7272	2987.8711	3000.6342	3045.1671	3055.6205	3122.1823	3275.7467	3684.4762	3794.992
COCC1=CC(O)=NN1	COCc1cc(O)n[nH]1	
InChI=1S/C5H8N2O2/c1-9-3-4-2-5(8)7-6-4/h2H,3H2,1H3,(H2,6,7,8)	InChI=1S/C5H8N2O2/c1-9-3-4-2-5(8)7-6-4/h2H,3H2,1H3,(H2,6,7,8)
