15
gdb 15285	2.66872	1.99469	1.4172	0.6967	72.2	-0.2331	0.0255	0.2585	905.2343	0.116129	-325.414872	-325.406617	-325.405673	-325.447555	30.419	
C	-0.7765586875	 0.0682779586	-0.8807366334	-0.461358
C	-0.1223821347	 0.5725923745	-0.0068877281	 0.312237
C	 0.7196928398	 1.1391000116	 1.0477246479	-0.287138
N	 1.7082727045	 2.1644437014	 0.6684598178	-0.097076
C	 1.9617311055	 2.4535160138	-0.7316665912	-0.246142
C	 1.2498741876	 3.4583204777	 0.125012109	-0.169237
C	-0.142179693	 3.7543479356	-0.0673462409	 0.344327
C	-1.3032658732	 4.0519584025	-0.1690234502	-0.463724
H	-1.3762022858	-0.363194388	-1.6437138555	 0.200368
H	 0.0881074365	 1.5663809878	 1.8345093838	 0.147198
H	 1.2884271133	 0.3231511978	 1.5099008381	 0.143442
H	 3.0022279329	 2.6213395623	-0.9968830752	 0.12042
H	 1.3612951194	 1.9398442184	-1.4775022568	 0.138588
H	 1.8289697188	 4.295636452	 0.5096737964	 0.11752
H	-2.3303873641	 4.2963787939	-0.2819562917	 0.200577
66.4102	119.2753	157.0178	210.8175	319.931	322.8663	361.9141	511.8031	548.7284	604.4498	611.2537	614.5954	661.7397	668.9233	744.7422	810.2063	889.546	944.021	988.8506	1039.6448	1060.0422	1125.9411	1130.0258	1163.1242	1279.8907	1312.1794	1361.7596	1378.5002	1465.6044	1499.8872	2228.7698	2233.4419	3032.0875	3069.9824	3107.2807	3121.4964	3200.0568	3503.8604	3504.2842
C#CCN1CC1C#C	C#CCN1C[C@H]1C#C	
InChI=1S/C7H7N/c1-3-5-8-6-7(8)4-2/h1-2,7H,5-6H2	InChI=1S/C7H7N/c1-3-5-8-6-7(8)4-2/h1-2,7H,5-6H2/t7-,8?/m1/s1
