16
gdb 62533	2.44253	1.42696	1.18446	3.1137	71.1	-0.2638	-0.0099	0.2539	1088.9634	0.123613	-434.06896	-434.05999	-434.059046	-434.102597	32.698	
C	-0.0633381966	 1.5120394538	-0.1101913041	-0.436468
C	-0.0391170135	-0.0084848874	 0.0114296472	 0.14025
N	-1.3813210433	-0.525592348	 0.0902230638	-0.542422
C	 0.8903680186	-0.707341537	-1.0523436614	-0.05894
O	 1.8545512342	-1.0261417182	-0.0077776308	-0.260369
C	 1.0326237053	-0.5111577264	 0.9871349472	 0.410428
N	 1.1617861978	-0.5013863051	 2.2294392684	-0.541935
C	 0.3636769542	-1.9083832744	-1.6892944109	 0.312442
N	-0.066993955	-2.8589526973	-2.1849209893	-0.319218
H	 0.9408732532	 1.9162779909	-0.2617953277	 0.134258
H	-0.7027713195	 1.8081198658	-0.9461367559	 0.142178
H	-0.461543322	 1.9481491107	 0.8109842299	 0.143967
H	-1.3920182483	-1.5147477613	 0.3189163188	 0.250759
H	-1.9002092988	-0.0418734258	 0.8158170363	 0.246625
H	 1.3280559201	-0.0426097409	-1.8009760066	 0.139242
H	 2.0218189837	-0.9572759293	 2.5380553651	 0.239204
71.7158	139.473	173.3315	211.9309	223.5667	256.5702	289.0535	338.2748	378.6776	470.3344	527.3554	616.2426	685.0216	691.3069	771.5559	835.5114	863.5525	880.3276	949.2858	989.6625	1000.113	1042.7394	1055.6326	1145.9666	1179.4985	1262.2483	1275.5502	1350.9474	1367.6289	1409.1141	1486.7676	1493.5978	1666.0701	1836.099	2362.3777	3045.3557	3090.2402	3119.8281	3130.0286	3482.2111	3507.1518	3587.8139
CC1(N)C(OC1=N)C#N	C[C@@]1(N)[C@@H](O[C]1[NH])C#N	
InChI=1S/C5H7N3O/c1-5(8)3(2-6)9-4(5)7/h3,7H,8H2,1H3	InChI=1S/C5H7N3O/c1-5(8)3(2-6)9-4(5)7/h3,7H,8H2,1H3/t3-,5+/m0/s1
