17
gdb 18456	3.91032	1.46817	1.36146	3.7846	68.44	-0.2441	0.0091	0.2532	977.4421	0.14262	-363.8593	-363.85174	-363.850796	-363.89145	28.404	
C	 0.2081217101	 1.3665596161	 0.2151598607	-0.374608
C	-0.1823749603	-0.0760252185	-0.1277317171	-0.216683
C	 0.6100593645	-0.6233045551	-1.2969679586	-0.002453
C	 1.9721030775	-1.2479080382	-1.206436791	-0.018358
N	 2.1445286789	-2.0730505786	-0.0073256359	-0.342157
C	 1.0165124176	-2.8620157017	-0.3132194644	 0.41679
O	 0.4871809715	-3.7564267385	 0.2820685306	-0.342788
C	 0.7892758893	-2.1134808807	-1.6205178942	-0.260578
H	 1.2645317674	 1.4340360179	 0.4965034379	 0.115442
H	 0.051675419	 2.0346638863	-0.638844522	 0.117503
H	-0.3876336932	 1.7478709107	 1.0496991915	 0.119271
H	-0.0491706004	-0.715738871	 0.7510019419	 0.110367
H	-1.2497686089	-0.1236067001	-0.3745337221	 0.111344
H	 0.4845135499	-0.04350847	-2.2123655928	 0.097188
H	 2.8314003718	-0.9655762708	-1.8006825601	 0.112242
H	 2.3232684435	-1.701941529	 0.9191682343	 0.241645
H	 0.5419218418	-2.5372392489	-2.5833524288	 0.115833
73.9495	116.5517	197.4497	248.3966	295.3136	430.0704	460.6571	527.496	631.7309	724.3877	737.0671	784.0809	809.0777	836.6097	887.0062	916.6352	956.1521	1015.7156	1024.9529	1060.222	1066.5736	1093.5217	1126.9642	1139.1518	1205.0639	1268.0919	1298.1477	1316.5108	1330.9677	1355.7046	1410.2383	1438.7334	1484.9948	1498.6212	1506.7206	1896.7738	3032.4374	3038.4884	3070.7533	3100.118	3108.6876	3111.4397	3199.9377	3224.6546	3545.9638
CCC1C2NC(=O)C12	CC[C@H]1[C@H]2NC(=O)[C@@H]12	
InChI=1S/C6H9NO/c1-2-3-4-5(3)7-6(4)8/h3-5H,2H2,1H3,(H,7,8)	InChI=1S/C6H9NO/c1-2-3-4-5(3)7-6(4)8/h3-5H,2H2,1H3,(H,7,8)/t3-,4+,5-/m1/s1
