18
gdb 129932	3.06687	1.22371	0.91221	1.6882	74.98	-0.1857	0.0327	0.2183	1249.3781	0.149727	-435.276332	-435.267485	-435.266541	-435.310544	33.214	
N	 0.3913541454	 1.412223542	-0.3911604155	-0.626769
C	 0.2027713608	 0.0462523173	-0.1256342713	 0.098329
C	-1.0002553052	-0.5816978398	 0.1438905903	-0.081993
N	-0.7214114055	-1.9063335663	 0.2723883921	-0.189856
N	 0.5727994906	-2.1921111912	 0.0863365799	-0.291921
C	 1.1582151983	-1.0116744992	-0.1452192296	 0.30149
C	 2.6484379496	-0.9842270139	-0.3421129962	-0.327488
C	 3.172836588	-0.2259114175	-1.5689825252	-0.076195
O	 3.1788525784	 1.1944694582	-1.4008794606	-0.398874
H	 1.3553074093	 1.6289478721	-0.620969904	 0.246574
H	 0.0470694561	 2.0178764969	 0.3418312219	 0.231987
H	-2.0006051655	-0.1916025271	 0.2419169963	 0.119271
H	-1.3644119846	-2.6539885115	 0.4651182935	 0.269184
H	 3.1485213825	-0.5649491293	 0.545507194	 0.092666
H	 2.9750091483	-2.0275414705	-0.4071036397	 0.123206
H	 4.1878538464	-0.5740104946	-1.8067487141	 0.097497
H	 2.5418251586	-0.4174310197	-2.4413182899	 0.1286
H	 3.8203957884	 1.4000279342	-0.7126314416	 0.284293
25.7589	156.1193	180.0696	228.6086	259.6746	305.0026	351.8229	384.3303	432.5516	446.9948	505.014	636.6469	654.524	707.7883	726.0458	746.3373	791.6506	875.2178	942.515	965.8374	1015.3832	1073.3559	1079.5494	1128.8098	1167.4679	1202.1475	1252.9563	1273.6265	1343.9591	1369.0519	1386.3449	1407.8644	1409.7756	1462.7915	1475.938	1503.3249	1523.3147	1623.3156	1670.8998	2981.8661	3005.475	3077.2899	3097.7719	3262.3449	3502.7044	3607.8768	3684.5058	3810.1681
NC1=CNN=C1CCO	Nc1c[nH]nc1CCO	
InChI=1S/C5H9N3O/c6-4-3-7-8-5(4)1-2-9/h3,9H,1-2,6H2,(H,7,8)	InChI=1S/C5H9N3O/c6-4-3-7-8-5(4)1-2-9/h3,9H,1-2,6H2,(H,7,8)
