21
gdb 95496	2.23286	1.51345	0.95862	1.0649	89.3	-0.2132	-0.0204	0.1928	1286.2293	0.182258	-387.102255	-387.093225	-387.092281	-387.135726	34.717	
C	-0.3560100077	 1.424778205	-0.0149181318	-0.40202
C	 0.0246350616	-0.0520362178	-0.009264264	 0.061933
O	 0.7979959169	-0.2899414311	-1.1953033937	-0.250835
C	 0.6583507588	-1.5756975288	-1.7396782947	-0.13761
C	 0.9586006889	-2.7352505292	-0.8350373312	-0.079865
C	 1.2879110709	-2.74531577	 0.4645014039	-0.118403
C	 1.3721606817	-1.6337810186	 1.4201142291	 0.294522
C	 2.1356895594	-1.9351552124	 2.6879959535	-0.480969
C	 0.7951045659	-0.437876981	 1.2279604924	-0.159523
H	 0.545416328	 2.045437718	-0.0052295225	 0.128067
H	-0.93153697	 1.6681362967	-0.9111322066	 0.117234
H	-0.9556355556	 1.6708599746	 0.8668623611	 0.113805
H	-0.8927783515	-0.6614998619	-0.0681834637	 0.079721
H	-0.3507302722	-1.7214355642	-2.1720725163	 0.093095
H	 1.3539172853	-1.6056703719	-2.5901804222	 0.119958
H	 0.9221352288	-3.6939072794	-1.3518584577	 0.090826
H	 1.5214472599	-3.7190317857	 0.8935907237	 0.080531
H	 1.7107877117	-2.8049526507	 3.2048587706	 0.123356
H	 3.1825620186	-2.1805817816	 2.4709918425	 0.128525
H	 2.1215063539	-1.0883123003	 3.3781237189	 0.119975
H	 0.8999965465	 0.3258975302	 1.9953247889	 0.077677
76.8742	155.077	197.3073	218.5034	235.1201	284.8462	323.0547	374.4658	386.4339	400.4457	512.4821	551.7258	616.4416	756.3372	759.1744	807.2732	848.4065	889.1513	905.7405	964.092	1009.598	1027.8819	1029.9661	1065.8743	1068.2515	1106.7222	1149.9075	1168.0358	1200.0541	1267.7883	1276.5018	1317.0407	1364.6088	1377.519	1406.0678	1408.5617	1413.3354	1449.7157	1475.7428	1479.8885	1486.0053	1494.2523	1497.6854	1684.3543	1721.8971	2912.4911	2957.3577	3019.7546	3024.2356	3042.2334	3068.21	3114.3711	3117.0158	3119.7429	3126.2314	3141.896	3148.4817
CC1OCC=CC(C)=C1	C[C@H]1OCC=CC(=C1)C	
InChI=1S/C8H12O/c1-7-4-3-5-9-8(2)6-7/h3-4,6,8H,5H2,1-2H3	InChI=1S/C8H12O/c1-7-4-3-5-9-8(2)6-7/h3-4,6,8H,5H2,1-2H3/t8-/m1/s1
