19
gdb 14382	3.62394	2.14803	1.84138	1.6857	73.64	-0.2387	0.0814	0.3202	819.1964	0.16618	-327.874608	-327.867411	-327.866467	-327.905332	28.985	
C	-0.0205925328	 1.5751043696	 0.028090156	-0.466608
C	 0.0606971122	 0.050504199	 0.0037357866	 0.329012
C	-1.3316246203	-0.5726892612	 0.1570036521	-0.441523
C	 0.8448892306	-0.6368027493	-1.1110640012	-0.072804
C	 2.2895973355	-0.7187317325	-0.7315071025	-0.050684
C	 2.4813831265	-0.1041263257	 0.6430405728	-0.257014
C	 1.0830959443	-0.684905282	 0.918428189	-0.038964
N	 1.3169544763	-1.7446960001	-0.2128835042	-0.165545
H	 0.9491486903	 2.049132552	-0.1415164616	 0.116774
H	-0.7020631011	 1.9330145406	-0.7521303935	 0.115762
H	-0.4103223778	 1.9311579279	 0.9889505203	 0.114314
H	-1.9901234252	-0.2654326309	-0.6632405943	 0.109811
H	-1.2770750605	-1.6646058171	 0.1587542435	 0.135927
H	-1.798290819	-0.2489607778	 1.0942657979	 0.109622
H	 0.5084943908	-0.8479084265	-2.1217579312	 0.08507
H	 3.0533400256	-0.9910364125	-1.4519881764	 0.09368
H	 3.2448896749	-0.6530972588	 1.200746918	 0.11158
H	 2.650486515	 0.9710225241	 0.7529002153	 0.096338
H	 0.7908921248	-1.020221219	 1.9132179934	 0.075251
177.9863	208.3092	250.2892	254.8281	344.7647	354.8469	455.8208	534.6421	615.0379	755.8315	779.4753	798.4075	816.4433	881.785	913.6263	938.67	952.4905	988.5013	999.2574	1009.2925	1031.1744	1053.8249	1062.267	1117.1099	1136.7597	1190.2794	1209.3466	1221.7967	1251.6035	1260.8237	1269.6802	1361.1022	1374.3343	1398.998	1420.4141	1482.8122	1484.7613	1499.3174	1503.1276	1515.1927	3025.0552	3029.878	3051.2777	3084.9043	3089.7435	3101.518	3113.9002	3117.0627	3121.6856	3157.6609	3176.8197
CC1(C)C2C3CC1N23	CC1(C)[C@H]2[C@H]3C[C@@H]1N23	
InChI=1S/C7H11N/c1-7(2)5-3-4-6(7)8(4)5/h4-6H,3H2,1-2H3	InChI=1S/C7H11N/c1-7(2)5-3-4-6(7)8(4)5/h4-6H,3H2,1-2H3/t4-,5+,6-,8?/m1/s1
