20
gdb 88549	3.30934	1.14139	1.09438	1.5568	79.81	-0.2376	0.0702	0.3078	1221.6336	0.17078	-403.086597	-403.078054	-403.07711	-403.120095	32.703	
C	-0.2333049417	 1.4750042	-0.155832519	-0.407527
C	-0.0846914099	-0.0075662825	 0.0850764851	 0.016856
N	 1.2218905603	-0.6197339794	-0.2037840183	-0.345402
C	 0.723814698	-0.6144828944	 1.1836315864	-0.185253
C	 1.5127588068	 0.1468782435	 2.1807547737	 0.496923
C	 2.4915693501	 1.3208619413	 1.9945513085	-0.293752
C	 3.2693480826	 0.8173123762	 3.2602547032	-0.251866
C	 2.246441464	-0.3193631066	 3.3759558804	-0.051088
O	 0.9493021184	 0.2790716888	 3.4975708402	-0.299227
H	 0.691003306	 2.0088253381	 0.0705740348	 0.135743
H	-0.4833345598	 1.6676961602	-1.2048072585	 0.118218
H	-1.0354913497	 1.8891675017	 0.4640274823	 0.123093
H	-0.9630120827	-0.5906868898	-0.1922548586	 0.083862
H	 1.1143097772	-1.541315692	-0.6172980394	 0.233687
H	 0.33632146	-1.5471304817	 1.5916962623	 0.081895
H	 3.0739371927	 1.2368771376	 1.0758882799	 0.12595
H	 2.0397531232	 2.3130857072	 2.0617493215	 0.105067
H	 4.2762352667	 0.467492913	 3.0210030546	 0.10655
H	 3.3096703232	 1.4919267024	 4.11867201	 0.109555
H	 2.3682746346	-1.3148867235	 3.7896176008	 0.096715
55.0038	125.8947	168.1832	197.6451	239.4622	313.2757	393.7923	423.3059	475.4137	537.8362	671.3463	739.7064	776.8327	785.575	846.6405	877.5033	919.6933	929.6275	938.6441	963.7418	990.0819	1011.1382	1020.4981	1061.692	1066.8485	1122.3893	1146.8852	1164.6127	1213.0503	1217.8139	1227.2188	1247.9973	1257.0881	1268.5075	1317.6574	1366.4121	1408.0237	1445.2562	1465.1937	1481.4333	1488.9168	1497.1396	1516.0608	3038.7894	3065.9103	3074.8472	3097.1356	3099.3734	3115.9136	3119.8049	3141.493	3143.5298	3174.1852	3511.6702
CC1NC1C12CCC1O2	C[C@H]1N[C@H]1[C@]12CC[C@H]1O2	
InChI=1S/C7H11NO/c1-4-6(8-4)7-3-2-5(7)9-7/h4-6,8H,2-3H2,1H3	InChI=1S/C7H11NO/c1-4-6(8-4)7-3-2-5(7)9-7/h4-6,8H,2-3H2,1H3/t4-,5-,6-,7+/m1/s1
