25
gdb 92591	2.01687	1.57049	1.42981	0.0585	91.3	-0.2691	0.0791	0.3481	1159.9667	0.230523	-352.37609	-352.367087	-352.366143	-352.409075	36.522	
C	-0.9402755744	 1.1887287064	 0.040382174	-0.416119
C	-0.0564408326	-0.0439890693	-0.095128379	 0.008507
C	 1.1986994637	 0.0480874133	-1.0083680473	-0.259039
C	 2.0756393287	-0.5794714518	 0.1127254061	-0.026202
C	 3.175814394	 0.3172855445	 0.6900677611	-0.21677
C	 2.4078541129	 1.3743227216	 1.5081508201	-0.215372
C	 1.2407439723	 0.5822122387	 2.1307382909	-0.263764
C	 0.8521092108	-0.5075108851	 1.1031414497	 0.353613
C	 0.4018105995	-1.8023044424	 1.7692696747	-0.478533
H	-0.3640043287	 2.0806489743	 0.3087102031	 0.114991
H	-1.4492023928	 1.4028529973	-0.906461954	 0.11079
H	-1.7135306902	 1.0494909618	 0.8047517011	 0.111579
H	-0.6845559125	-0.887373382	-0.4035157033	 0.062
H	 1.1473902368	-0.5138941674	-1.9443993896	 0.091268
H	 1.4827060632	 1.0775008232	-1.2524401128	 0.090532
H	 2.4255146517	-1.5881335958	-0.1209482637	 0.053825
H	 3.822810537	-0.2679149199	 1.3557002474	 0.091211
H	 3.8175206601	 0.755847558	-0.0819370145	 0.090438
H	 3.0312461624	 1.868351923	 2.2593075975	 0.091087
H	 2.028311534	 2.1611052409	 0.8459976785	 0.099412
H	 1.5871035807	 0.0892779199	 3.0476141087	 0.089083
H	 0.3984838463	 1.2190552954	 2.4182192265	 0.092515
H	-0.5080933599	-1.6485025537	 2.3629368777	 0.110167
H	 0.1834971408	-2.5787916691	 1.027627868	 0.107187
H	 1.1726017862	-2.1925326319	 2.4445289389	 0.107593
85.686	198.5466	218.5729	222.2862	244.3623	278.4323	314.4577	364.6628	408.9714	471.8351	539.3367	580.069	608.3145	715.467	797.0952	832.1709	864.7433	884.3935	892.1788	906.3692	923.5201	953.1748	992.2039	1003.5949	1027.261	1051.5519	1078.7403	1109.5016	1121.2586	1153.3794	1169.9844	1192.793	1222.2143	1238.0123	1244.0206	1260.5052	1282.2989	1295.2993	1318.2642	1333.2257	1349.7599	1351.3512	1386.3869	1406.5376	1409.4428	1480.328	1482.2989	1486.6345	1492.1932	1493.7115	1495.5066	1501.6961	1509.4091	3013.0023	3022.6021	3023.4752	3026.5036	3031.5599	3038.5952	3043.1974	3068.5682	3070.4208	3075.9591	3078.3902	3084.6067	3085.5312	3089.9286	3092.417	3099.3283
CC1CC2CCCC12C	C[C@H]1C[C@H]2CCC[C@@]12C	
InChI=1S/C9H16/c1-7-6-8-4-3-5-9(7,8)2/h7-8H,3-6H2,1-2H3	InChI=1S/C9H16/c1-7-6-8-4-3-5-9(7,8)2/h7-8H,3-6H2,1-2H3/t7-,8+,9-/m0/s1
