21
gdb 53697	6.65613	0.49384	0.47555	1.1336	89.26	-0.2425	0.061	0.3035	2340.7776	0.179858	-387.044185	-387.033441	-387.032497	-387.082823	36.866	
C	 0.0696843212	 1.3307277878	-0.4783061116	-0.496354
C	-0.0030791035	-0.0759935548	-0.1091629064	 0.074238
C	-0.0511523688	-1.23834786	 0.201082632	 0.037956
C	-0.143206998	-2.6471670999	 0.5640067421	-0.350901
C	-1.4927478336	-3.2604822034	 0.177923573	-0.049147
O	-1.4738832317	-4.6179456498	 0.5800374384	-0.247137
C	-2.656311797	-5.2946205274	 0.2917258225	 0.149146
C	-2.8563960286	-5.8771237675	-1.0852061105	-0.287539
C	-2.5473308293	-6.7711868264	 0.1008768519	-0.287228
H	 0.9759547783	 1.5454583973	-1.0555283362	 0.146659
H	-0.7890706369	 1.6264772875	-1.0912865617	 0.146014
H	 0.0808864343	 1.9763570647	 0.4069272159	 0.14635
H	 0.6522255611	-3.2235445405	 0.0756914447	 0.132547
H	 0.0007515458	-2.7772904176	 1.6435941501	 0.134256
H	-2.3099991105	-2.7175809337	 0.677441092	 0.096932
H	-1.6549438747	-3.1768479321	-0.9064484819	 0.100655
H	-3.5332670352	-4.9020693649	 0.8089715356	 0.082818
H	-3.8548688758	-5.8914779985	-1.5082017252	 0.112393
H	-2.0585713358	-5.7223914326	-1.8030587712	 0.119172
H	-1.5489093073	-7.18954349	 0.1554164175	 0.125363
H	-3.3306951438	-7.4049054281	 0.5006825791	 0.113808
17.803	41.3718	67.7825	71.5392	137.9096	172.9596	223.5854	283.996	322.1634	393.5059	415.4892	445.1067	532.1871	748.9526	777.9828	796.1265	818.1938	841.8865	965.4195	976.9949	1048.4693	1051.4434	1053.0822	1066.5241	1072.6439	1090.6304	1101.1548	1129.5331	1167.9733	1193.2307	1203.885	1227.6443	1245.6584	1298.5704	1311.7919	1379.1764	1416.071	1432.927	1453.7371	1479.2309	1479.7202	1479.9164	1498.7212	1526.5951	2376.2759	2983.3166	3019.8967	3025.7181	3028.4555	3065.0686	3085.5294	3085.7369	3087.3576	3135.0351	3142.3746	3219.6184	3234.8321
CC#CCCOC1CC1	CC#CCCOC1CC1	
InChI=1S/C8H12O/c1-2-3-4-7-9-8-5-6-8/h8H,4-7H2,1H3	InChI=1S/C8H12O/c1-2-3-4-7-9-8-5-6-8/h8H,4-7H2,1H3
