20
gdb 13731	5.54121	0.76404	0.71928	1.0657	72.02	-0.2525	0.0794	0.332	1571.8231	0.175586	-386.114539	-386.105002	-386.104058	-386.149623	34.037	
O	-0.0872313976	 1.412674096	-0.3566558902	-0.422771
C	-0.0041178408	 0.0615046541	 0.07422822	-0.073796
C	-1.383870063	-0.5664874163	-0.0673543137	-0.159346
C	-1.4142231543	-2.0355039514	 0.3694623348	-0.207914
C	-2.7899358959	-2.6563173336	 0.2422283917	-0.009966
C	-3.2733025332	-3.1832787485	-1.0976374994	-0.324817
C	-2.9573613398	-4.1329098189	 0.0320342291	 0.086465
O	-1.7896370823	-4.903488011	-0.0191859311	-0.418003
H	 0.7826690059	 1.8112240735	-0.2626595173	 0.283587
H	 0.7249579357	-0.50476973	-0.5290339563	 0.08208
H	 0.3274923662	-0.0013526169	 1.1240424149	 0.082128
H	-2.094891355	 0.0217801665	 0.5260338257	 0.10022
H	-1.7036254133	-0.4781117458	-1.1124158675	 0.105237
H	-0.7021209175	-2.6218079654	-0.220682862	 0.107172
H	-1.0798125861	-2.1159310439	 1.4128977623	 0.095671
H	-3.5503621941	-2.190845291	 0.8650460573	 0.084191
H	-4.3066118378	-3.0340924246	-1.3918474066	 0.108465
H	-2.5589752285	-3.155609797	-1.9149444993	 0.111121
H	-3.7952906971	-4.6181828755	 0.5330741156	 0.083036
H	-1.9113863215	-5.5790279104	-0.6940019479	 0.287239
52.1125	79.6891	103.3816	134.0212	214.2741	264.8606	276.5376	298.0602	372.5495	428.8292	466.9983	591.6113	753.2886	771.8107	830.997	861.7306	884.7109	973.1486	993.5835	1020.3198	1044.6133	1056.2618	1076.7906	1098.2775	1135.4762	1177.6244	1184.4855	1226.2761	1234.0613	1239.2833	1289.2663	1304.4587	1309.0749	1316.7721	1369.5636	1407.298	1426.6223	1460.8776	1484.8603	1492.3589	1501.9637	1528.432	2955.3019	2979.6773	3016.0971	3031.0108	3063.8832	3083.7255	3092.5883	3125.4728	3133.9992	3214.0877	3809.568	3830.5692
OCCCC1CC1O	OCCC[C@H]1C[C@H]1O	
InChI=1S/C6H12O2/c7-3-1-2-5-4-6(5)8/h5-8H,1-4H2	InChI=1S/C6H12O2/c7-3-1-2-5-4-6(5)8/h5-8H,1-4H2/t5-,6+/m0/s1
