16
gdb 40987	4.21275	1.62324	1.52853	0.201	74.	-0.2245	-0.0181	0.2065	885.9117	0.124802	-400.569311	-400.563073	-400.562128	-400.599506	26.397	
C	-0.0212737026	 1.5610516175	 0.1136795918	-0.161812
O	 1.4401919622	 1.5337069006	-0.2009899342	-0.360707
C	 1.1761858749	 0.2241627665	-0.7382967313	 0.365183
C	-0.0806834624	 0.0039009643	-0.0159639627	-0.050749
N	-0.2144835833	-0.9928806696	-1.2258186157	-0.155966
C	 0.4487309008	 0.0652832353	-2.1408234119	-0.087859
C	 1.3008683859	-0.7185067037	-3.0874666832	-0.08723
C	 1.8360864234	-1.6804946837	-2.3254509368	-0.076875
C	 1.2873270252	-1.3900240967	-0.9659972932	-0.131117
H	-0.1908698505	 1.9300785908	 1.1272950085	 0.126377
H	-0.5576167419	 2.1720371188	-0.6158119364	 0.125991
H	-0.0857371184	-0.5173680502	 0.9399120717	 0.093604
H	-0.2190759233	 0.8386706035	-2.5161151907	 0.078939
H	 1.4331045209	-0.5174840203	-4.1406986357	 0.116131
H	 2.5235781095	-2.4727629066	-2.582689755	 0.116566
H	 1.4570572194	-2.0438235364	-0.1125168554	 0.089525
189.5067	274.5947	305.2947	464.6726	486.2579	540.4192	620.9945	671.2388	719.3311	760.3732	770.0052	810.2879	841.1403	856.1552	914.34	921.7005	928.5228	943.9897	994.4721	1018.0637	1034.3759	1069.8127	1076.8905	1104.3136	1133.6234	1139.962	1164.1562	1242.6732	1261.4686	1305.3987	1319.2525	1340.4172	1360.3847	1490.4304	1618.6951	3064.1654	3115.6798	3131.7799	3141.8546	3149.5631	3230.2829	3255.1515
C1OC23C1N1C2C=CC31	C1O[C@@]23[C@@H]1N1[C@@H]2C=C[C@@H]31	
InChI=1S/C7H7NO/c1-2-5-7-4(1)8(5)6(7)3-9-7/h1-2,4-6H,3H2	InChI=1S/C7H7NO/c1-2-5-7-4(1)8(5)6(7)3-9-7/h1-2,4-6H,3H2/t4-,5+,6-,7+/m1/s1
