17
gdb 98579	4.32655	0.9715	0.80777	3.747	72.16	-0.2348	-0.0696	0.1652	1376.1156	0.136486	-455.169153	-455.160446	-455.159502	-455.203224	31.197	
O	 0.1009056762	 1.3694003916	 0.0775109864	-0.423733
C	 0.0717323339	-0.0264884678	 0.0077930915	-0.129723
C	-1.351119597	-0.5390558567	-0.0703135523	 0.291569
O	-2.2891993994	 0.2350376905	-0.0950906658	-0.341606
C	-1.5819333763	-2.0123910761	-0.1025725293	 0.298731
N	-0.6420636264	-2.872481009	 0.0476440852	-0.302345
C	-1.2974177003	-4.1919725209	-0.0407828872	-0.168019
C	-2.8266577224	-3.9132042112	 0.039008055	-0.184558
N	-2.8580362597	-2.4886215928	-0.3110984912	-0.339712
H	-0.8237207305	 1.6543641408	 0.0186534951	 0.293392
H	 0.6151153622	-0.4046150466	-0.8727397069	 0.132953
H	 0.55882096	-0.4884520749	 0.8788024985	 0.138589
H	-1.0242651311	-4.6525689903	-0.9990794585	 0.12398
H	-0.9383967916	-4.8540414524	 0.7511687321	 0.121783
H	-3.4082745221	-4.5139160915	-0.6644421771	 0.120139
H	-3.2201371131	-4.0876423524	 1.0501529273	 0.110439
H	-3.6320167523	-1.8977257802	-0.0465939527	 0.258122
69.5754	86.292	146.4832	169.2496	191.983	319.6786	362.6777	370.7212	485.8902	499.0015	556.4855	676.3496	736.3757	794.2984	860.0955	904.7608	960.2535	996.9224	1008.0607	1030.4488	1071.021	1105.8447	1142.2164	1198.4435	1229.4253	1241.2047	1270.7151	1310.0528	1312.843	1363.5766	1446.577	1473.1507	1488.081	1489.6823	1530.6051	1679.197	1772.2759	2993.6035	3004.2807	3022.3285	3025.7636	3086.5719	3096.4079	3623.788	3707.0591
OCC(=O)C1=NCCN1	OCC(=O)[C]1[N]CCN1	
InChI=1S/C5H8N2O2/c8-3-4(9)5-6-1-2-7-5/h8H,1-3H2,(H,6,7)	InChI=1S/C5H8N2O2/c8-3-4(9)5-6-1-2-7-5/h8H,1-3H2,(H,6,7)
