16
gdb 33927	3.40193	1.39969	1.18544	4.9847	75.	-0.2448	-0.0104	0.2344	1044.1779	0.125258	-400.742468	-400.734998	-400.734054	-400.774345	28.895	
N	 0.0124257208	-1.0721741334	 0.0501391499	-0.339249
C	-0.0103851589	 0.0826507205	 0.0055447699	 0.264862
C	 0.0026936973	 1.5244866688	-0.076626007	 0.280684
C	 0.5847540744	 2.148315351	-1.3236416601	-0.344762
C	 1.3567577614	 2.2243412689	-0.0116488949	-0.14152
C	 1.3503618235	 3.4909383585	 0.7562489025	-0.045569
C	 0.2085079264	 4.07957342	 1.1102099612	-0.0995
C	-1.1251360766	 3.4762556102	 0.7707630104	-0.141432
O	-1.0852417464	 2.056622739	 0.6127797612	-0.299489
H	 0.9460104597	 1.4798399075	-2.0961896904	 0.145023
H	 0.1297715346	 3.0640260275	-1.682676742	 0.138087
H	 2.2365551507	 1.5974613258	 0.0755119042	 0.120757
H	 2.3096760925	 3.9197311536	 1.0277820306	 0.107386
H	 0.2024699016	 5.0137383999	 1.6621916811	 0.107624
H	-1.8439757034	 3.6450811405	 1.5782713272	 0.132861
H	-1.5515129477	 3.9403768416	-0.1340850636	 0.114239
119.9169	149.4332	175.5286	283.6326	377.4953	435.7103	455.5124	542.2213	573.8726	598.4453	638.177	729.7388	812.3772	828.9314	865.8643	899.2953	928.7221	986.0607	996.7039	1034.4559	1048.484	1060.2163	1104.5918	1132.6376	1198.0619	1249.8705	1254.7664	1277.021	1382.2961	1401.649	1425.1496	1466.579	1501.9264	1714.115	2361.1733	2962.1386	3078.2791	3145.6163	3169.9731	3181.1811	3194.2597	3239.7624
N#CC12CC1C=CCO2	N#C[C@]12C[C@H]1C=CCO2	
InChI=1S/C7H7NO/c8-5-7-4-6(7)2-1-3-9-7/h1-2,6H,3-4H2	InChI=1S/C7H7NO/c8-5-7-4-6(7)2-1-3-9-7/h1-2,6H,3-4H2/t6-,7-/m1/s1
