18
gdb 73325	2.92745	2.02704	1.42383	1.463	74.78	-0.2279	0.0647	0.2926	921.1175	0.149336	-401.83852	-401.83185	-401.830906	-401.869026	28.413	
O	 0.2094145794	 1.4239955774	 0.1336883791	-0.484477
C	 0.0314214286	 0.0473529546	 0.0652452569	 0.388203
C	 0.8590160667	-0.7268584483	 1.1316776929	-0.248899
C	 0.487740463	-2.2329159532	 0.8465217541	-0.36053
C	-0.4589941282	-1.9450049048	-0.3111204855	 0.293751
C	-1.4405501623	-2.3098231368	-1.4421592025	-0.270739
N	-1.4112596255	-0.7780582749	-1.5669986909	-0.200256
C	-1.3165119847	-0.6877880529	-0.0210919252	-0.102964
C	 0.0978301743	-0.8116097437	-1.2085643313	-0.102957
H	-0.33232493	 1.827701586	-0.5534467361	 0.291314
H	 1.9275762223	-0.5295356379	 1.0086022783	 0.111778
H	 0.5791994823	-0.4114808912	 2.1407081818	 0.111777
H	 1.3584465959	-2.8313850683	 0.5650155126	 0.106483
H	 0.0043823266	-2.7128213651	 1.70185661	 0.106483
H	-1.0464864177	-2.8277521042	-2.322417618	 0.104353
H	-2.4227319378	-2.707263979	-1.1669290192	 0.104353
H	-2.2129601839	-0.6279432259	 0.5995674091	 0.076165
H	 0.8629545113	-0.8972240718	-1.9829497359	 0.076165
222.5638	277.6349	305.7779	355.3805	370.7732	452.8044	501.1851	620.6403	682.577	706.7871	746.9951	819.6139	827.5927	852.0794	858.1105	895.3736	923.6729	947.2989	986.6903	1041.8789	1043.723	1056.5445	1074.5283	1088.8304	1120.7529	1171.1671	1172.7798	1180.4262	1214.0826	1216.7899	1233.1047	1261.9537	1283.7226	1314.1686	1366.9904	1377.4836	1488.0644	1508.3093	1517.6339	3038.1972	3055.0355	3064.7345	3092.3459	3095.2666	3098.6216	3099.9442	3113.6383	3806.5088
OC12CCC34CN(C13)C24	O[C@@]12CC[C@@]34CN([C@H]13)[C@@H]24	
InChI=1S/C7H9NO/c9-7-2-1-6-3-8(4(6)7)5(6)7/h4-5,9H,1-3H2	InChI=1S/C7H9NO/c9-7-2-1-6-3-8(4(6)7)5(6)7/h4-5,9H,1-3H2/t4-,5+,6+,7-
