19
gdb 119540	3.10417	1.0611	0.87276	2.5508	76.69	-0.2409	-0.0249	0.216	1380.2799	0.157096	-423.012218	-423.003069	-423.002125	-423.046936	33.285	
C	-0.1934485161	 1.5734643033	 0.0628278936	-0.385612
C	-0.0634928948	 0.0492727293	 0.0737686247	-0.169731
C	 0.88626429	-0.4548367681	 1.1741146124	-0.33401
C	 1.0149937355	-1.9427254238	 1.1713568542	 0.313974
O	-0.0773546351	-2.7502650513	 1.6879959142	-0.280831
C	 1.2236938082	-2.9818144536	 2.2179549352	-0.05737
C	 1.8976197573	-3.9725521701	 1.2597383886	-0.371767
C	 1.7069581661	-2.872203336	 0.1684909598	 0.384948
O	 2.1031770863	-2.7357735613	-0.9505480331	-0.300254
H	 0.7762722039	 2.0536627549	-0.1095473004	 0.116136
H	-0.8738630204	 1.9060040776	-0.726748956	 0.116983
H	-0.5826327404	 1.946123917	 1.0170188595	 0.114556
H	-1.0477338786	-0.4100865662	 0.2211574933	 0.114741
H	 0.3034913403	-0.3032419628	-0.8969090662	 0.124261
H	 1.882501464	-0.016899312	 1.0309970357	 0.112299
H	 0.5303612176	-0.1323491111	 2.1599350965	 0.111783
H	 1.3782738223	-2.8394012344	 3.280574987	 0.120038
H	 2.9620961709	-4.151789836	 1.4400629644	 0.132235
H	 1.3743690629	-4.9201705455	 1.1197598466	 0.137621
58.2864	80.6023	107.526	151.9135	236.7028	253.7114	315.5546	355.6909	450.4628	504.2124	576.3163	674.0588	732.9592	748.7191	779.2251	864.8004	884.1209	902.0513	932.5146	959.3473	990.4119	1038.972	1048.0156	1085.9305	1118.8755	1137.1067	1189.4129	1226.3165	1247.0075	1283.1204	1306.5489	1335.7094	1384.2029	1412.9215	1432.3083	1451.0071	1472.3802	1493.6851	1499.7779	1508.8686	1892.2675	3022.8677	3029.4547	3040.6036	3058.8203	3066.1849	3078.0385	3100.824	3106.0944	3130.6987	3199.9406
CCCC12OC1CC2=O	CCC[C@]12O[C@H]1CC2=O	
InChI=1S/C7H10O2/c1-2-3-7-5(8)4-6(7)9-7/h6H,2-4H2,1H3	InChI=1S/C7H10O2/c1-2-3-7-5(8)4-6(7)9-7/h6H,2-4H2,1H3/t6-,7+/m0/s1
