16
gdb 49746	4.51656	1.30102	1.16222	3.6627	81.54	-0.1998	-0.0557	0.1442	1044.2181	0.125124	-400.662102	-400.655306	-400.654361	-400.69336	26.965	
O	 0.0754672155	-0.0615513518	-0.281229121	-0.313127
C	 0.0823785637	 1.1470148229	-0.2156878536	 0.138763
N	 1.1732760201	 1.8901143961	 0.161968025	-0.024817
C	 2.4861553863	 1.4397311453	 0.2367752991	-0.000379
C	 3.3190432062	 2.4460424083	 0.6358361352	-0.088524
C	 3.8720894135	 3.2461447485	-0.5891732168	-0.258581
C	 2.5688312453	 4.0731631089	-0.3944125697	-0.081803
C	 1.2918616324	 3.3497887186	 0.2101254108	-0.016265
C	 2.4460560305	 3.6652086778	 1.0547881484	-0.115806
H	-0.7848349736	 1.7845537126	-0.4694539622	 0.084943
H	 2.7421039978	 0.5378587361	-0.3060490787	 0.146132
H	 4.7470382276	 3.8696846264	-0.3768297203	 0.114004
H	 4.0227320613	 2.6962936115	-1.5224944944	 0.107557
H	 2.3956573774	 5.0629366833	-0.8097725946	 0.097799
H	 0.3632119072	 3.9107870882	 0.2043629312	 0.112693
H	 2.5141127788	 4.2372885172	 1.9717573916	 0.097412
95.4884	209.6254	248.2071	341.6883	439.9704	470.3642	525.0239	647.2717	710.3904	743.771	777.445	803.062	812.3413	891.1274	928.9756	946.8382	976.6319	992.75	1011.9715	1014.581	1035.1666	1067.3469	1105.317	1136.0562	1182.0829	1223.5141	1236.3515	1257.388	1269.8485	1334.2773	1427.8208	1433.2247	1502.5337	1530.449	1788.7819	2961.6508	3034.779	3095.5621	3140.8961	3174.236	3186.5417	3211.7183
O=CN1C=C2CC3C1C23	O=CN1[CH][C]2C[C@H]3[C@@H]1[C@@H]23	
InChI=1S/C7H7NO/c9-3-8-2-4-1-5-6(4)7(5)8/h2-3,5-7H,1H2	InChI=1S/C7H7NO/c9-3-8-2-4-1-5-6(4)7(5)8/h2-3,5-7H,1H2/t5-,6+,7-/m1/s1
