17
gdb 123584	3.00363	2.18825	1.45424	3.4445	77.01	-0.2232	-0.0256	0.1976	885.8525	0.139877	-380.808485	-380.802167	-380.801223	-380.839011	25.849	
C	-0.1152787094	 1.5113299818	-0.1114716579	-0.165
C	 1.4397697412	 1.6788300955	 0.0270039695	-0.099313
C	 2.0886555672	 2.2316799612	 1.3480486432	-0.228423
C	 2.5101923263	 0.9669932349	 2.2140111365	-0.298404
C	 1.6200522672	-0.1214016713	 1.6326278944	 0.053018
C	 1.3338931634	 0.2261455163	 0.3545238551	 0.161944
N	 0.0142302646	-0.0339935817	 0.0317111856	-0.071853
N	-0.554325908	-0.7072344124	 1.1208212151	-0.224895
C	 0.4121447436	-0.7999234114	 2.0246879791	-0.064768
H	-0.67975439	 1.8988423371	 0.7367890797	 0.141564
H	-0.5692228627	 1.7903467211	-1.0619302703	 0.13674
H	 1.9365638953	 2.0097351621	-0.8857040198	 0.091272
H	 2.941304243	 2.8834155319	 1.134930614	 0.108076
H	 1.3612589637	 2.8330965007	 1.9037679871	 0.112034
H	 3.5787893796	 0.7553794405	 2.1006210526	 0.117712
H	 2.3303100719	 1.1337861625	 3.2789575191	 0.114904
H	 0.2112181531	-1.3333721888	 2.946654967	 0.11539
127.1565	265.5234	303.8777	359.6561	489.4882	586.6426	637.4952	677.875	718.7894	765.0847	781.0239	835.6472	860.4312	887.5493	918.3831	944.9645	975.1204	998.1686	1032.4924	1059.9825	1112.4547	1119.1999	1161.9575	1190.9672	1207.2149	1218.9278	1253.3197	1291.5009	1306.8867	1310.8649	1318.0216	1361.1374	1423.8234	1468.3596	1479.6969	1495.6763	1609.8023	3044.5043	3046.8582	3084.9897	3087.815	3098.5093	3105.8704	3166.8139	3208.1814
C1C2CCC3=C2N1N=C3	C1[C@H]2CC[C]3[C]2N1N=C3	
InChI=1S/C7H8N2/c1-2-6-4-9-7(6)5(1)3-8-9/h3,6H,1-2,4H2	InChI=1S/C7H8N2/c1-2-6-4-9-7(6)5(1)3-8-9/h3,6H,1-2,4H2/t6-/m1/s1
