17
gdb 5929	4.03492	1.30211	1.2654	2.5276	65.83	-0.2588	-0.0425	0.2163	1014.3774	0.138888	-401.036348	-401.027	-401.026056	-401.070383	32.757	
C	-0.0187124425	 1.6429031296	-0.0492686825	-0.407116
C	-0.0356250221	 0.1099710513	-0.0212324172	 0.18067
C	 0.8202286221	-0.4429466476	 1.1449367798	-0.413778
N	-1.4045765547	-0.4211422766	 0.0535909065	-0.317947
C	-2.2657567679	-0.2246274259	 1.088071694	 0.163617
O	-2.0179684196	 0.3698456105	 2.1162309383	-0.326251
C	 0.5810182467	-0.4692688938	-1.2958033287	 0.131486
O	 1.3918101875	 0.0910425381	-1.9804342946	-0.238739
H	 1.0030438713	 2.0001163191	-0.1926666017	 0.135114
H	-0.6286830519	 2.0195125116	-0.8751168491	 0.116126
H	-0.4162256002	 2.030988294	 0.8896402565	 0.1509
H	 0.380655307	-0.1282187266	 2.0918345186	 0.169249
H	 0.85425639	-1.5368618042	 1.1223747632	 0.117276
H	 1.8405079122	-0.0581473479	 1.0691511292	 0.132584
H	-1.7794020772	-0.8843242266	-0.7611163207	 0.245044
H	-3.2527971997	-0.6873387091	 0.8847179873	 0.083237
H	 0.2445495289	-1.5094468559	-1.5293661589	 0.078529
69.0983	74.296	181.2906	202.0458	220.888	252.7254	265.6881	306.1171	349.1892	385.7085	412.0605	511.2853	580.9782	748.6202	831.4269	886.484	929.0563	960.1624	1024.6337	1030.1037	1049.1652	1182.5188	1196.8485	1221.7597	1273.176	1386.018	1399.8292	1422.5755	1434.7012	1474.8856	1487.6314	1493.9626	1513.0694	1531.8124	1800.7892	1847.9981	2832.1882	2928.2401	3045.7297	3056.8235	3118.6611	3130.6023	3153.5114	3156.906	3603.5204
CC(C)(NC=O)C=O	CC(C)(NC=O)C=O	
InChI=1S/C5H9NO2/c1-5(2,3-7)6-4-8/h3-4H,1-2H3,(H,6,8)	InChI=1S/C5H9NO2/c1-5(2,3-7)6-4-8/h3-4H,1-2H3,(H,6,8)
