19
gdb 114800	3.18383	1.26199	1.14502	2.6257	75.96	-0.2425	0.0123	0.2547	1137.8069	0.160873	-423.015503	-423.007649	-423.006704	-423.048192	30.428	
O	-0.0330653953	 1.3420191568	-0.4127230648	-0.423739
C	 0.0746034268	-0.0133382958	-0.0139065968	-0.077005
C	-1.305992561	-0.6089285408	 0.1858089637	 0.124332
O	-2.0807019942	-0.5089126394	-1.0398034965	-0.329639
C	-2.5047317308	-1.8913815568	-0.9462797039	 0.13211
C	-2.0467626619	-2.7506665186	-2.1344278135	-0.275415
C	-0.7359670892	-3.3306539081	-1.6529083295	-0.061919
C	-0.4620248543	-3.0148940573	-0.3857065472	-0.07862
C	-1.5256462948	-2.1472775897	 0.2315254225	-0.157474
H	-0.62013365	 1.3465841827	-1.1784976765	 0.293745
H	 0.6298208334	-0.6082942493	-0.7533032701	 0.090241
H	 0.6355548346	-0.0276669736	 0.927607544	 0.103612
H	-1.821249046	-0.0793896722	 0.9989104421	 0.078463
H	-3.5781287745	-1.9550571472	-0.7405458331	 0.076873
H	-2.7726968834	-3.5355047688	-2.3847371926	 0.105876
H	-1.9345931626	-2.1242293808	-3.0276196313	 0.121824
H	-0.1060373766	-3.944556254	-2.2877310893	 0.09802
H	 0.4217274373	-3.333243712	 0.1563384483	 0.098297
H	-1.9189001176	-2.530704025	 1.1758893746	 0.080418
80.7497	119.8569	154.8953	256.0987	344.9576	402.7253	439.9776	477.0872	511.0266	674.4627	748.8868	765.1551	828.0134	836.3703	870.2604	917.4973	923.648	953.6871	977.8737	1016.3012	1036.4864	1052.0025	1066.1135	1086.1905	1130.5833	1132.9246	1180.4584	1206.5712	1227.5653	1251.677	1270.5285	1310.6081	1320.8405	1335.5395	1356.8456	1385.291	1410.0917	1438.8174	1465.9463	1500.2267	1674.7476	3000.8865	3013.2976	3019.3784	3051.8416	3061.3177	3070.1441	3082.4367	3181.0706	3205.6332	3789.6915
OCC1OC2CC=CC12	OC[C@H]1O[C@H]2CC=C[C@@H]12	
InChI=1S/C7H10O2/c8-4-7-5-2-1-3-6(5)9-7/h1-2,5-8H,3-4H2	InChI=1S/C7H10O2/c8-4-7-5-2-1-3-6(5)9-7/h1-2,5-8H,3-4H2/t5-,6+,7-/m1/s1
