18
gdb 22340	3.11568	1.15095	0.87851	1.4214	80.53	-0.2251	-0.031	0.1941	1294.9086	0.146588	-439.062315	-439.053185	-439.052241	-439.096748	34.103	
C	 0.0100089558	 1.5638348828	-0.0426445171	-0.488221
C	 0.0061077198	 0.0648485675	-0.0063009456	 0.246003
C	-0.0608664696	-0.7451404265	-1.0774812379	-0.202939
C	-0.0523963608	-2.2138723382	-0.7423407481	 0.092836
O	 0.9016026595	-2.960495571	-1.4886995097	-0.430193
C	 0.1782896675	-2.2256432741	 0.7917267195	-0.32509
C	 0.0649483979	-0.770458857	 1.2129876616	 0.307097
N	 0.0201935986	-0.4820969721	 2.457978477	-0.233979
O	-0.1070199684	 0.8964473743	 2.7039981687	-0.397724
H	 0.8838199594	 1.968717383	 0.4755688077	 0.140354
H	 0.0132857699	 1.9206512816	-1.0763556583	 0.112833
H	-0.8648125448	 1.9722736162	 0.4702529333	 0.145847
H	-0.1194956622	-0.4045059661	-2.1063608366	 0.103179
H	-1.0105409005	-2.6809970122	-0.9997149174	 0.100743
H	 1.7551934874	-2.5250618474	-1.3822016174	 0.27447
H	-0.5240033565	-2.8620875353	 1.3338610352	 0.126695
H	 1.183508944	-2.6107709883	 0.995621933	 0.121445
H	-0.1311429471	 0.9233117427	 3.665933602	 0.306645
26.5705	134.8734	204.7545	237.694	266.4526	294.8978	323.8479	335.6721	376.3494	421.8773	477.1647	499.2943	620.5734	673.675	718.6821	750.3908	868.7615	875.0527	956.8176	979.0509	1015.2217	1063.057	1071.8573	1077.2089	1121.9517	1155.6101	1229.5383	1262.0643	1294.5309	1314.3262	1344.8188	1396.6483	1418.6692	1427.2129	1472.424	1475.0844	1481.7935	1675.5462	1721.974	3037.3161	3045.8016	3051.347	3111.1872	3112.619	3121.4151	3187.0402	3792.1469	3823.6682
CC1=CC(O)CC1=NO	CC1=C[C@@H](O)CC1=NO	
InChI=1S/C6H9NO2/c1-4-2-5(8)3-6(4)7-9/h2,5,8-9H,3H2,1H3	InChI=1S/C6H9NO2/c1-4-2-5(8)3-6(4)7-9/h2,5,8-9H,3H2,1H3/t5-/m1/s1
