18
gdb 60301	5.94135	0.48759	0.46691	5.4253	88.18	-0.2757	-0.0347	0.241	2249.048	0.145648	-401.944754	-401.934567	-401.933623	-401.98096	35.769	
C	 0.0474359282	 1.5571141103	 0.0660650235	-0.414419
C	 0.0041933451	 0.0307708159	 0.0315872024	 0.136957
O	 0.6946954681	-0.5386684975	 1.1417531203	-0.426232
C	-1.431650956	-0.5047891989	-0.0612899391	-0.190539
C	-1.4610093492	-2.0466307123	-0.1185286772	-0.380476
C	-2.8062232083	-2.5908245623	-0.1166852805	 0.053267
C	-3.9361677069	-3.0205318932	-0.1116385685	 0.083457
C	-5.2104794158	-3.5088401994	-0.1068034624	 0.202027
N	-6.2962636453	-3.9228671786	-0.1025607	-0.340698
H	 1.0811211669	 1.9040691031	 0.1432786096	 0.13172
H	-0.3980555245	 1.9878967733	-0.8360262009	 0.124168
H	-0.5104010044	 1.9427678617	 0.928841173	 0.112577
H	 0.5661209161	-0.3223945907	-0.8429167824	 0.094234
H	 0.3400992964	-0.1407771724	 1.945230686	 0.281125
H	-2.0049282902	-0.1634863836	 0.810198786	 0.107607
H	-1.9261419853	-0.0899959671	-0.9463016409	 0.11716
H	-0.9348274445	-2.3948369812	-1.0173029349	 0.146005
H	-0.8989537803	-2.440103537	 0.7362251959	 0.16206
43.5181	60.6558	121.7409	154.9592	178.62	236.2351	245.9399	307.7883	340.1624	366.2805	449.968	470.3556	508.7001	577.9555	582.902	728.1714	769.135	856.5752	934.7859	956.3683	1019.1682	1074.7353	1098.7104	1147.7806	1175.0265	1183.6167	1268.649	1287.2278	1337.0743	1352.377	1388.1485	1406.8145	1420.9321	1464.0609	1483.3858	1493.9368	1496.5084	2264.4292	2400.229	3022.1222	3023.9085	3027.6569	3038.6982	3065.7608	3085.9187	3098.7646	3122.9429	3792.6916
CC(O)CCC#CC#N	C[C@@H](O)CCC#CC#N	
InChI=1S/C7H9NO/c1-7(9)5-3-2-4-6-8/h7,9H,3,5H2,1H3	InChI=1S/C7H9NO/c1-7(9)5-3-2-4-6-8/h7,9H,3,5H2,1H3/t7-/m1/s1
