18
gdb 66330	2.53243	1.40618	1.31282	3.9343	78.02	-0.2695	-0.0082	0.2613	1084.3232	0.147889	-401.971229	-401.962804	-401.96186	-402.004057	32.084	
C	 0.0232035053	 1.5141292103	-0.0418750323	-0.417795
C	-0.0056627489	-0.0200903133	 0.0043429646	 0.172861
O	 0.6194123176	-0.4638695315	-1.1867443243	-0.271725
C	 0.97025651	-1.846568779	-1.1760879427	-0.096398
C	 2.0322190559	-2.1264563878	-0.1144426985	-0.260958
C	 1.6388457422	-1.4746558376	 1.1833006196	-0.074934
C	 0.6906433652	-0.5448423333	 1.2479286124	-0.07486
C	-1.4247741238	-0.4821659013	 0.0213106867	 0.265785
N	-2.5208661955	-0.8493595797	 0.0340089884	-0.34533
H	 1.0640909245	 1.8452259986	-0.0364991073	 0.135568
H	-0.460801238	 1.8657112916	-0.9555334456	 0.145443
H	-0.4957464046	 1.9364457963	 0.8219300381	 0.133639
H	 0.0758958312	-2.459036779	-0.9918916704	 0.118053
H	 1.3315968498	-2.0655370746	-2.1833162241	 0.116764
H	 2.1446623863	-3.2088407549	 0.0228536385	 0.116261
H	 3.0118250024	-1.7532407908	-0.4422665481	 0.123034
H	 2.1516041139	-1.7882105046	 2.0885629549	 0.104719
H	 0.3803948762	-0.1029584993	 2.18948758	 0.109872
87.5356	148.6088	183.4061	238.8446	279.496	293.3375	357.751	429.4869	490.3637	500.3978	562.7682	602.2455	676.1331	729.1493	786.1319	862.3208	899.7356	913.3865	963.9853	1000.5954	1015.109	1075.4317	1100.3912	1132.7864	1164.4042	1182.3767	1230.4787	1241.9513	1301.1018	1366.882	1389.0792	1401.5105	1422.0958	1467.0488	1479.76	1488.7116	1503.5754	1722.3196	2344.5471	3008.2078	3020.5819	3055.049	3059.3432	3106.2456	3139.2068	3143.061	3161.1681	3187.5736
CC1(OCCC=C1)C#N	C[C@]1(OCCC=C1)C#N	
InChI=1S/C7H9NO/c1-7(6-8)4-2-3-5-9-7/h2,4H,3,5H2,1H3	InChI=1S/C7H9NO/c1-7(6-8)4-2-3-5-9-7/h2,4H,3,5H2,1H3/t7-/m1/s1
