20
gdb 36871	4.45552	0.86493	0.82746	2.6588	82.57	-0.2251	0.0188	0.244	1459.3541	0.171237	-403.112683	-403.103989	-403.103044	-403.147323	31.619	
C	 0.3696166968	 0.8308361134	-0.6868742709	-0.281158
N	-0.0735372545	 0.0207235436	 0.4503678351	-0.06262
C	-1.047666843	 0.6450547868	 1.3393435739	-0.213985
C	-1.4548386992	-0.4432748853	 0.4076066518	-0.218817
C	 1.5487231814	 1.6729628999	-0.3134213117	 0.332298
C	 1.7100503943	 2.9855488384	-0.4544838583	-0.221152
C	 3.0714672328	 3.3946585135	 0.0295303122	-0.099021
O	 3.6813610086	 2.1924196944	 0.4901149718	-0.26741
C	 2.7999920799	 1.0895915153	 0.2932969148	-0.142543
H	 0.6501437909	 0.131462593	-1.4870097721	 0.113431
H	-0.4360412809	 1.4726069947	-1.0852477976	 0.086365
H	-0.9181223899	 0.4471295176	 2.3992986105	 0.119335
H	-1.3792738761	 1.654639599	 1.1015239537	 0.111419
H	-2.0621091355	-0.1604260699	-0.4511615756	 0.109201
H	-1.6269174494	-1.4515415496	 0.7733470639	 0.119259
H	 0.9897609192	 3.6838560514	-0.8633754308	 0.096058
H	 3.6830792195	 3.8471074397	-0.7685780012	 0.101266
H	 3.0246819556	 4.1282243349	 0.8506523447	 0.102531
H	 2.5998876241	 0.588136736	 1.2505485457	 0.117728
H	 3.2690255553	 0.3433315732	-0.3694626098	 0.097813
51.9607	68.4838	107.5718	126.8175	246.0997	315.2313	363.8203	397.7375	479.6656	677.5153	760.8039	779.5473	814.3829	850.5112	900.1984	912.8457	925.8209	959.2221	1005.3455	1020.9533	1025.6581	1047.3366	1073.8338	1108.3598	1113.7099	1116.972	1166.5667	1174.4162	1175.237	1212.8983	1219.8296	1258.6184	1306.5943	1321.2305	1371.9552	1373.9171	1397.0832	1481.6034	1493.8443	1516.2598	1521.6404	1528.9576	1733.2651	2944.4677	2961.5949	2968.643	2978.4495	3015.3398	3020.9366	3093.8359	3099.0723	3177.7033	3192.1477	3207.8535
C(N1CC1)C1=CCOC1	C(N1CC1)C1=CCOC1	
InChI=1S/C7H11NO/c1-4-9-6-7(1)5-8-2-3-8/h1H,2-6H2	InChI=1S/C7H11NO/c1-4-9-6-7(1)5-8-2-3-8/h1H,2-6H2
