15
gdb 79699	2.92372	1.77159	1.43583	1.5156	63.57	-0.2498	-0.0231	0.2267	896.9653	0.113672	-457.722084	-457.715576	-457.714632	-457.752795	26.69	
O	 0.255401201	 1.4302938834	-0.2390244699	-0.438072
C	 0.0484922492	 0.0772745253	-0.0333839689	 0.176077
C	 0.1883229351	-0.5953108619	 1.3885934399	-0.257935
C	-0.9709252251	 0.0075257189	 2.189427191	 0.034522
O	-1.5056192358	 1.2538499511	 1.6982059274	-0.273853
C	-2.0664995219	 0.0239229715	 1.1950016695	 0.034521
C	-1.3911858752	-0.5716714057	-0.0450869898	-0.257935
C	-0.64545659	-1.7312674286	 0.7013339677	 0.425446
O	-0.6607849561	-2.9190245477	 0.6986361771	-0.29795
H	-0.3134365486	 1.8887622388	 0.395219075	 0.299396
H	 0.6866523507	-0.4526851749	-0.7451956954	 0.113608
H	 1.1456544167	-0.7669855337	 1.8723903033	 0.094164
H	-1.0997148792	-0.1758476731	 3.2492567449	 0.126923
H	-3.1118361306	-0.1457323024	 1.4229043537	 0.126923
H	-1.9677956103	-0.7203919911	-0.9536124954	 0.094164
146.4335	288.2421	304.2737	329.518	459.7166	555.9939	565.6445	628.7626	678.7425	695.6833	742.5084	755.2804	810.0399	826.674	863.493	931.1784	935.8204	984.7625	1017.1738	1027.2323	1079.3322	1098.085	1123.7863	1155.1533	1168.3247	1240.5132	1253.0591	1255.6215	1309.7708	1322.7843	1398.629	1486.9037	1918.5162	3082.9904	3165.2615	3166.6117	3190.6007	3200.4907	3732.5993
OC1C2C3OC3C1C2=O	O[C@H]1[C@H]2[C@H]3O[C@H]3[C@@H]1C2=O	
InChI=1S/C6H6O3/c7-3-1-4(8)2(3)6-5(1)9-6/h1-3,5-7H	InChI=1S/C6H6O3/c7-3-1-4(8)2(3)6-5(1)9-6/h1-3,5-7H/t1-,2+,3+,5-,6+
