16
gdb 75748	2.92735	1.56599	1.12851	1.5447	72.53	-0.2501	-0.0606	0.1895	1043.6022	0.124894	-437.884241	-437.876538	-437.875593	-437.91647	29.636	
O	 0.2111754334	 1.266485086	-0.4061585378	-0.438789
C	 0.017865342	-0.0768212777	-0.0612832314	-0.049092
C	 0.521973086	-0.398624211	 1.3569874425	 0.336519
O	 1.4611731796	 0.1751063056	 1.8635538722	-0.348223
C	-0.385261478	-1.4149362285	 1.9183286492	-0.210508
C	-1.479525963	-1.4946986762	 1.1403024546	-0.084273
C	-1.4288320457	-0.562746015	-0.0141918041	 0.271002
C	-2.5624310672	 0.3261515998	-0.3946334928	-0.272772
N	-2.2397766671	-0.8563951969	-1.2054363676	-0.375009
H	 0.9158023093	 1.5848918934	 0.1783635844	 0.296299
H	 0.5741313558	-0.7404111273	-0.7496677077	 0.101599
H	-0.1990606889	-1.9425967856	 2.8442934962	 0.12753
H	-2.33714653	-2.1378242342	 1.3037197563	 0.133336
H	-3.5028409664	 0.2699601187	 0.1462311626	 0.122814
H	-2.2861219986	 1.3112674739	-0.7574493106	 0.145915
H	-1.7279010213	-0.5742453652	-2.039104246	 0.243652
73.9524	203.6681	246.1271	263.7938	297.1818	366.3441	382.25	475.2643	531.9268	586.5133	674.4868	703.932	800.1172	807.298	869.2135	907.8794	935.6899	967.0922	989.6752	1002.1577	1046.8086	1093.7778	1124.8699	1149.38	1191.7876	1213.2497	1259.4348	1316.1704	1334.5923	1366.1126	1379.1617	1430.6419	1506.3335	1616.2346	1810.8676	2930.7835	3116.3492	3201.7618	3211.7993	3232.236	3489.8386	3715.2945
OC1C(=O)C=CC11CN1	O[C@H]1C(=O)C=C[C@]21CN2	
InChI=1S/C6H7NO2/c8-4-1-2-6(3-7-6)5(4)9/h1-2,5,7,9H,3H2	InChI=1S/C6H7NO2/c8-4-1-2-6(3-7-6)5(4)9/h1-2,5,7,9H,3H2/t5-,6+/m0/s1
