16
gdb 34507	4.23326	1.32785	1.17042	5.0157	80.67	-0.2427	-0.0432	0.1996	1037.4077	0.127111	-363.604535	-363.597956	-363.597011	-363.635503	26.629	
N	 0.0802741339	-1.1530153049	 0.0570769233	-0.34709
C	 0.0082683184	 0.0038073871	 0.0218054379	 0.19118
C	-0.0348851845	 1.4171079706	-0.0437426823	 0.199353
C	-1.1227884855	 2.2021383643	 0.0755506225	-0.167177
C	-0.7141222052	 3.6237550796	 0.0220280406	-0.077094
C	 0.4843899097	 4.0940698162	 0.8994248831	-0.064155
C	 1.337271619	 2.9294317987	 1.3800220192	-0.230378
C	 1.2046784694	 2.2997529175	-0.0631301962	-0.165924
C	 0.6840830633	 3.6955628781	-0.540525623	-0.077506
H	-2.1387663865	 1.8597043256	 0.2225571423	 0.125451
H	-1.4310860786	 4.3994128531	-0.2172111612	 0.098885
H	 0.444471833	 5.0838146302	 1.3375516525	 0.099038
H	 2.362884409	 3.2634291052	 1.5526668818	 0.116396
H	 0.9976911808	 2.3230787759	 2.2253227222	 0.107345
H	 2.1001593998	 1.8659932498	-0.5012563066	 0.092819
H	 0.9849250538	 4.265492763	-1.4106869962	 0.098855
120.336	161.8772	354.5409	383.5834	498.7667	502.4857	568.5577	631.7176	707.3476	747.3966	777.465	792.2519	830.4478	881.0643	903.418	912.9337	966.9212	976.597	998.3404	1009.9561	1054.1691	1075.8477	1091.4441	1133.0138	1170.6397	1192.851	1228.7953	1261.3497	1270.1866	1311.4831	1332.8457	1372.2475	1489.6415	1642.4198	2329.3359	3052.1382	3113.7653	3146.8194	3184.3508	3188.9322	3201.0478	3225.7439
N#CC1=CC2C3CC1C23	N#CC1=C[C@H]2[C@H]3C[C@@H]1[C@@H]23	
InChI=1S/C8H7N/c9-3-4-1-6-7-2-5(4)8(6)7/h1,5-8H,2H2	InChI=1S/C8H7N/c9-3-4-1-6-7-2-5(4)8(6)7/h1,5-8H,2H2/t5-,6-,7+,8-/m0/s1
