14
gdb 9005	8.31589	0.8333	0.76452	2.4428	74.68	-0.2508	-0.0588	0.192	1428.694	0.102868	-345.357195	-345.347825	-345.346881	-345.393309	30.971	
C	 0.1087099979	 1.4994716683	-0.0041965071	-0.498803
C	 0.0331973489	 0.0475073679	 0.0524308904	 0.110305
C	-0.0357037072	-1.1523758367	 0.0975394163	 0.04747
C	-0.1241225687	-2.6002851013	 0.1505986094	-0.470187
C	-1.5112378406	-3.1647701568	-0.1828404026	 0.251879
O	-2.4680390029	-2.4874310908	-0.4690753256	-0.261232
C	-1.5833310555	-4.6168463585	-0.1251737509	 0.237128
C	-1.6234145209	-5.8186905492	-0.0723139667	-0.401895
H	 0.8444940036	 1.8319807172	-0.7446019491	 0.148198
H	-0.8593136161	 1.9314207105	-0.2802261731	 0.156014
H	 0.3972883271	 1.9219175798	 0.9645153146	 0.148197
H	 0.5896308315	-3.0735306033	-0.5390370289	 0.158475
H	 0.14908407	-2.9849638636	 1.1437652343	 0.158471
H	-1.6807296972	-6.8795117635	-0.0314000211	 0.215978
21.1433	39.0457	75.2631	155.2316	203.6753	239.0041	268.3016	373.8173	393.7105	459.0535	562.547	602.6523	654.432	705.7212	783.5946	833.0966	939.5998	1051.5235	1054.6453	1081.1467	1174.6391	1211.7979	1339.4853	1414.2506	1433.7207	1477.5804	1477.7343	1787.5244	2211.1497	2383.517	3008.6016	3028.3346	3033.3487	3088.9482	3091.6658	3494.2444
CC#CCC(=O)C#C	CC#CCC(=O)C#C	
InChI=1S/C7H6O/c1-3-5-6-7(8)4-2/h2H,6H2,1H3	InChI=1S/C7H6O/c1-3-5-6-7(8)4-2/h2H,6H2,1H3
