17
gdb 65303	2.71131	1.32497	1.1061	2.8011	75.44	-0.2425	0.0243	0.2668	1134.9429	0.133294	-421.741815	-421.732964	-421.732019	-421.775303	33.185	
O	-0.0722239427	 1.3663038474	-0.0487558734	-0.445302
C	 0.021767653	-0.0320332327	-0.0088108627	 0.157064
C	-0.4887600763	-0.7375105217	 1.2463220983	-0.420743
C	-1.3134459427	-0.7252864797	 0.0002389881	 0.247891
C	-2.6566980843	-0.0649140359	-0.2818417387	-0.132976
O	-3.0199249971	-1.1497547647	-1.1668650772	-0.27718
C	-1.7916808738	-1.860521195	-0.8938740483	-0.140609
C	 1.1159391997	-0.612607855	-0.7417046292	 0.307574
C	 2.0389481508	-1.086542583	-1.3508618653	-0.482498
H	 0.7230006182	 1.7288884628	 0.3578617183	 0.291087
H	-0.0071706418	-1.6632056725	 1.5439086672	 0.127728
H	-0.7952214173	-0.0851248112	 2.058064855	 0.124696
H	-3.3355966452	 0.0083806843	 0.5778290653	 0.101708
H	-2.6115965916	 0.9004610208	-0.7970376439	 0.123439
H	-1.1986776101	-2.037635994	-1.7992551596	 0.115425
H	-1.974573329	-2.816051162	-0.3846315175	 0.101456
H	 2.8512926003	-1.502932988	-1.8937319865	 0.201239
86.9901	117.6477	138.042	212.6841	237.6028	294.3985	346.5874	417.7733	439.4771	494.1395	550.4487	587.8619	656.7239	684.0343	689.5753	854.5906	878.0116	891.3875	915.0628	978.0696	996.8025	1027.1119	1048.1434	1109.0931	1135.2045	1149.4514	1168.0815	1185.6198	1269.7164	1303.3429	1308.3797	1363.8411	1423.5776	1485.0414	1509.981	1534.3542	2229.5029	3004.7729	3016.4592	3056.0214	3071.9291	3124.1156	3219.2056	3499.9074	3798.3977
OC1(CC11COC1)C#C	O[C@]1(CC21COC2)C#C	
InChI=1S/C7H8O2/c1-2-7(8)3-6(7)4-9-5-6/h1,8H,3-5H2	InChI=1S/C7H8O2/c1-2-7(8)3-6(7)4-9-5-6/h1,8H,3-5H2/t7-/m0/s1
