21
gdb 62253	4.50026	0.5231	0.48901	0.7687	81.84	-0.2499	-0.0309	0.219	2170.2974	0.178413	-424.250868	-424.23977	-424.238826	-424.289637	37.234	
C	-0.190843269	 1.5950733752	-0.1332700386	-0.410908
C	-0.0432577126	 0.0664754974	-0.0464063117	-0.064534
C	 0.7414567267	-0.4000125212	 1.2013256923	-0.193124
C	 2.2092508502	 0.0447023165	 1.2253990296	-0.203523
C	 2.9650779531	-0.5047152643	 2.4489388591	-0.274181
C	 4.4333601995	-0.1469679519	 2.405972639	 0.158574
O	 5.0217308494	 0.4657540896	 3.2584645737	-0.234192
C	-1.422176189	-0.5652947311	-0.0031574275	 0.158869
O	-1.8283295519	-1.4029259129	-0.7654954696	-0.246986
H	 0.7830575188	 2.0857932672	-0.201162959	 0.131005
H	-0.7681880573	 1.8834195386	-1.0169415324	 0.131966
H	-0.7051710098	 1.9915791019	 0.749708899	 0.12319
H	 0.4500256971	-0.3161766096	-0.9470075332	 0.095486
H	 0.2349026387	-0.0362370656	 2.105847693	 0.105008
H	 0.7061181863	-1.4960385318	 1.2479859212	 0.112393
H	 2.7064847944	-0.293527127	 0.306603247	 0.108252
H	 2.2756212734	 1.1382231586	 1.230378706	 0.118692
H	 2.5416095416	-0.1301682144	 3.3855179564	 0.123376
H	 2.8907554307	-1.6021157722	 2.4544251096	 0.120578
H	 4.960387274	-0.4962265063	 1.485976601	 0.071289
H	-2.0646238644	-0.1887114868	 0.8301296249	 0.068771
38.1741	40.3292	54.2503	88.7661	114.6794	137.4395	199.1252	258.8432	275.6805	344.2891	363.5121	420.8101	512.9047	573.6389	745.2899	795.3789	874.8352	898.9243	909.5478	956.4937	997.5206	1016.1015	1050.6836	1069.8712	1129.2188	1157.2733	1162.0112	1204.4239	1243.4406	1288.2531	1296.7263	1330.0053	1351.7852	1363.9221	1392.7825	1407.6729	1428.7173	1430.2436	1464.4978	1481.3385	1496.2491	1501.11	1505.6768	1836.0431	1838.5031	2835.9037	2848.0819	3010.8323	3011.7344	3024.9829	3035.7431	3043.913	3056.5706	3075.1002	3099.77	3103.8923	3120.7022
CC(CCCC=O)C=O	C[C@@H](CCCC=O)C=O	
InChI=1S/C7H12O2/c1-7(6-9)4-2-3-5-8/h5-7H,2-4H2,1H3	InChI=1S/C7H12O2/c1-7(6-9)4-2-3-5-8/h5-7H,2-4H2,1H3/t7-/m0/s1
