19
gdb 65275	3.20553	1.27079	1.06038	1.0497	70.51	-0.251	0.0691	0.3202	1161.4147	0.159077	-460.138599	-460.130018	-460.129074	-460.17227	32.195	
O	 0.1384065535	 1.3788677917	 0.02006733	-0.465486
C	 0.0799029712	-0.0245820647	-0.0558303807	 0.374215
C	 1.0536283806	-0.6541909739	-1.0010490078	-0.29387
C	 1.2269882081	-0.8212031715	 0.4987598986	-0.330568
C	-1.3458498846	-0.5319111956	 0.0485530981	 0.041979
C	-2.2740977748	-0.0020430016	-1.0643087507	-0.11769
O	-3.139633141	-1.1025481726	-1.3138277447	-0.234347
C	-2.3278791843	-2.230956392	-1.153146493	 0.024794
O	-1.4229714781	-1.951301449	-0.0951158279	-0.272576
H	 0.0173494858	 1.6308385876	 0.9427421652	 0.284028
H	 0.7311962315	-1.5195086919	-1.5673241855	 0.121687
H	 1.7306685326	 0.0178227501	-1.5148344323	 0.122141
H	 2.0273032845	-0.2636852576	 0.9729448019	 0.111626
H	 1.0132782389	-1.7941557539	 0.9254643248	 0.129318
H	-1.7472524004	-0.2660465411	 1.0387883671	 0.072611
H	-2.8801437917	 0.8534097381	-0.7653388301	 0.121967
H	-1.6938662714	 0.2598434378	-1.9609684123	 0.107397
H	-2.9538924638	-3.0876932328	-0.8847075743	 0.118097
H	-1.7627249268	-2.448865887	-2.0773901564	 0.084676
64.1422	80.9893	174.7094	236.4864	270.3156	292.9416	334.6462	382.2402	463.0998	507.9173	642.1864	742.0777	762.2876	777.9662	892.1202	909.6687	934.7505	967.2883	978.5365	997.5165	1032.3123	1049.8025	1059.8437	1082.8757	1115.4379	1126.0534	1182.3498	1192.4281	1208.2082	1261.8687	1265.3974	1279.724	1324.5566	1354.4018	1380.3935	1401.106	1433.5278	1440.4089	1496.6368	1507.6243	1546.5307	2937.3452	2977.7746	3007.6477	3076.789	3129.1533	3137.4863	3147.391	3228.2379	3243.0474	3788.3673
OC1(CC1)C1COCO1	OC1(CC1)[C@H]1COCO1	
InChI=1S/C6H10O3/c7-6(1-2-6)5-3-8-4-9-5/h5,7H,1-4H2	InChI=1S/C6H10O3/c7-6(1-2-6)5-3-8-4-9-5/h5,7H,1-4H2/t5-/m1/s1
