17
gdb 19696	5.20605	1.55466	1.40548	2.3109	67.06	-0.2358	0.0716	0.3074	904.1822	0.143387	-363.780337	-363.773483	-363.772539	-363.811388	26.563	
O	-0.1586013295	 1.4343386212	 0.1794970637	-0.424016
C	-0.0464826412	 0.0412742414	-0.0824529115	-0.104379
C	-1.4283204208	-0.5673664729	 0.0641998128	 0.008357
C	-1.4057573644	-2.095748439	 0.1289849136	-0.05015
C	-1.3331955704	-2.0959361298	 1.6097119952	-0.055725
C	-1.9293961618	-0.6344178301	 1.536130846	-0.072542
C	-3.2837013858	-1.3410580137	 1.38216497	-0.159453
N	-2.5716882932	-2.5901872728	 0.946293765	-0.15613
H	 0.7094776837	 1.8325711206	 0.0676825218	 0.287281
H	 0.3347566314	-0.1412205451	-1.1002074904	 0.086052
H	 0.6489390231	-0.4448361456	 0.6209637619	 0.087568
H	-2.112835056	-0.0952987055	-0.6508661792	 0.073725
H	-0.9954080599	-2.8021308364	-0.581626093	 0.09498
H	-0.7605153659	-2.662643127	 2.3316705957	 0.09526
H	-1.7577227419	 0.2027083394	 2.2084736873	 0.085039
H	-3.7831997469	-1.5494050578	 2.3316729229	 0.107238
H	-4.0043219905	-0.933245657	 0.6629160481	 0.096894
106.9324	169.1084	230.4178	272.3798	403.9377	450.074	525.5579	756.121	758.9528	788.2393	807.945	828.0011	929.5492	936.1399	960.9962	972.5161	997.1323	1028.71	1046.7463	1069.3614	1079.9034	1116.1376	1148.4882	1165.8839	1182.4586	1199.862	1224.9416	1242.3821	1256.0677	1286.4098	1299.7557	1326.5894	1378.8939	1460.192	1510.0129	1519.5933	2963.0275	2990.6342	3029.156	3040.8138	3101.7158	3148.597	3191.6004	3207.7344	3829.9022
OCC1C2C3C1CN23	OC[C@H]1[C@H]2[C@H]3[C@@H]1CN23	
InChI=1S/C6H9NO/c8-2-4-3-1-7-5(3)6(4)7/h3-6,8H,1-2H2	InChI=1S/C6H9NO/c8-2-4-3-1-7-5(3)6(4)7/h3-6,8H,1-2H2/t3-,4-,5-,6+,7?/m1/s1
