20
gdb 95527	2.18587	1.5569	1.12625	4.1023	84.12	-0.2624	0.0017	0.2641	1163.1222	0.172613	-366.053549	-366.044946	-366.044002	-366.086662	32.955	
C	-0.0713994389	 1.5709343716	-0.0218070063	-0.420885
C	 0.0363820428	 0.0450190143	-0.0172717848	 0.015729
C	 0.69440509	-0.5083635796	-1.2885264171	-0.206475
C	 0.6163820596	-2.0407036926	-1.3379319713	-0.267066
C	 0.9285826248	-2.6725906395	-0.0088482668	-0.030042
C	 1.0166403974	-2.0002125612	 1.1361059498	-0.075842
C	 0.7804397256	-0.5017522844	 1.2335158914	-0.189963
C	 2.0598917615	 0.18857467	 1.4621678779	 0.28421
N	 3.0696829828	 0.7244426588	 1.6366380599	-0.340885
H	 0.9140586699	 2.0397923882	-0.1057715589	 0.143235
H	-0.678678196	 1.9068680629	-0.8680325872	 0.116084
H	-0.5405999448	 1.9425923503	 0.8954706206	 0.11535
H	-0.9766646341	-0.3745122361	 0.0496814404	 0.08419
H	 0.2150694261	-0.0777235036	-2.1739848856	 0.097944
H	 1.7441796588	-0.1893207152	-1.3120831017	 0.121086
H	-0.3868436532	-2.3602601011	-1.6577797379	 0.113156
H	 1.301202492	-2.4334417412	-2.099553338	 0.113392
H	 1.08303432	-3.7491470917	-0.000229937	 0.097292
H	 1.2697124023	-2.5079921026	 2.0617901711	 0.105241
H	 0.1613334034	-0.2974247272	 2.1176166914	 0.12425
80.254	147.4087	181.0315	215.6336	241.7229	302.6853	390.2975	398.1068	443.9684	478.675	563.3253	627.9628	703.9173	742.5134	788.2852	869.2566	902.2276	943.825	960.0049	983.2209	1006.6374	1020.0562	1061.0172	1087.5836	1128.5619	1135.0457	1176.8833	1237.0766	1262.7069	1289.4829	1309.7632	1331.0676	1362.2871	1371.9806	1393.6829	1410.4138	1419.7606	1472.1008	1493.8681	1496.3599	1502.3399	1725.6389	2347.3857	2999.5652	3008.8617	3019.8412	3030.6952	3034.7726	3048.0131	3076.4097	3101.2413	3111.9187	3150.9079	3180.0518
CC1CCC=CC1C#N	C[C@H]1CCC=C[C@H]1C#N	
InChI=1S/C8H11N/c1-7-4-2-3-5-8(7)6-9/h3,5,7-8H,2,4H2,1H3	InChI=1S/C8H11N/c1-7-4-2-3-5-8(7)6-9/h3,5,7-8H,2,4H2,1H3/t7-,8-/m0/s1
