17
gdb 108041	3.79761	1.39615	1.21699	1.1494	72.45	-0.2259	-0.0013	0.2246	1031.5814	0.1364	-421.772012	-421.764683	-421.763739	-421.803887	29.188	
O	 0.6209914577	 0.3332196717	-0.6994948583	-0.405226
C	-0.1980462284	 0.2483813657	 0.4519293148	-0.192422
C	-1.4830551948	-0.4950154974	 0.2158596301	 0.444588
O	-2.451284121	-0.4247406789	 1.2335814046	-0.334682
C	-3.1089463135	-1.6431465125	 0.6533683959	 0.038877
C	-4.2032114723	-1.1062954271	-0.2288569944	-0.103375
C	-3.6187926995	-0.4931670111	-1.2705248162	-0.059356
C	-2.1544157546	-0.6953948207	-1.2144680775	-0.186089
C	-1.8716300433	-1.8437171281	-0.2658820943	-0.209108
H	 0.1842303026	 0.9231369238	-1.3221384832	 0.287761
H	 0.3962825827	-0.2712975518	 1.211019371	 0.126325
H	-0.4525294236	 1.2384545639	 0.8616203966	 0.109702
H	-3.3486435703	-2.35419583	 1.4415046059	 0.084823
H	-5.2452170845	-1.0576855896	 0.0572307381	 0.103334
H	-4.1112940923	 0.137824334	-2.000422172	 0.102277
H	-1.505192545	-0.5524340138	-2.0687527714	 0.088173
H	-1.3165714999	-2.7447257182	-0.4938176696	 0.104398
70.4628	187.4519	215.6444	333.2192	386.2168	412.9133	485.7227	581.4269	630.125	689.6854	719.2384	763.182	805.3197	818.2617	859.7653	895.0602	913.8181	938.6648	958.4881	983.5251	1014.655	1031.5734	1049.5854	1083.541	1124.3357	1133.7176	1203.7142	1210.4536	1253.5577	1272.7142	1292.6776	1361.8978	1386.0758	1407.7062	1436.3803	1497.8857	1621.3888	2989.017	3071.2473	3138.6265	3189.9418	3196.4654	3206.3477	3231.3108	3819.69
OCC12OC3C=CC1C23	OC[C@@]12O[C@H]3C=C[C@@H]1[C@@H]23	
InChI=1S/C7H8O2/c8-3-7-4-1-2-5(9-7)6(4)7/h1-2,4-6,8H,3H2	InChI=1S/C7H8O2/c8-3-7-4-1-2-5(9-7)6(4)7/h1-2,4-6,8H,3H2/t4-,5+,6-,7-/m1/s1
