16
gdb 19499	3.28139	2.01126	1.83584	3.1795	67.88	-0.2519	0.0112	0.263	798.641	0.133259	-342.782939	-342.776188	-342.775244	-342.813869	25.699	
N	 0.124152041	-1.2658484095	 0.0683162568	-0.351194
C	 0.0918513601	-0.1089187997	 0.0848949141	 0.303593
C	 0.0197783252	 1.3287375128	 0.0619740083	-0.165792
C	 0.4817681554	 2.173486139	 1.2135820039	-0.024941
C	 1.3208114828	 1.5486437456	 2.3163127532	-0.23305
C	 2.4870239534	 0.8525034254	 1.5729870764	-0.247179
C	 2.5162182931	 1.5285879925	 0.178236024	-0.159775
N	 1.2156977364	 2.1964590043	-0.0548402137	-0.107633
H	-0.8183420708	 1.6904724249	-0.5282003862	 0.138863
H	-0.1133909898	 3.0522138557	 1.4470474473	 0.105994
H	 1.6835635123	 2.3499476486	 2.9678846433	 0.115589
H	 0.7489386292	 0.8558053059	 2.9397262908	 0.126292
H	 3.4362593081	 0.9775338408	 2.0989735752	 0.107665
H	 2.3034339448	-0.2182887841	 1.4833525454	 0.144587
H	 3.2696896607	 2.3207163888	 0.1363833403	 0.118493
H	 2.7274062681	 0.825477889	-0.6318887192	 0.12849
124.2625	147.3576	203.1219	332.4254	364.8839	556.4356	573.5275	670.7937	716.0008	734.3699	790.7809	850.3398	886.1013	894.1169	909.9526	975.8163	1012.5447	1032.86	1095.5496	1112.3753	1141.3879	1198.6071	1219.1535	1257.7635	1279.9203	1316.0475	1326.658	1344.5034	1360.7645	1398.192	1489.1508	1495.9557	1515.671	2343.5508	3055.0179	3057.7386	3083.3015	3096.559	3102.2305	3138.299	3140.0502	3149.7671
N#CC1C2CCCN12	N#C[C@H]1[C@H]2CCCN12	
InChI=1S/C6H8N2/c7-4-6-5-2-1-3-8(5)6/h5-6H,1-3H2	InChI=1S/C6H8N2/c7-4-6-5-2-1-3-8(5)6/h5-6H,1-3H2/t5-,6+,8?/m1/s1
