17
gdb 8321	5.87029	1.34322	1.33358	2.9535	70.04	-0.2568	0.0309	0.2877	975.2872	0.142931	-363.858997	-363.851908	-363.850964	-363.890462	27.378	
N	-0.0127918374	 1.1574103141	 0.7170129137	-0.543852
C	-0.0548720837	 0.0622053271	 0.1085856193	 0.420228
C	-1.1504120331	-0.9062257747	-0.278759452	-0.431087
C	 0.0079947751	-1.7171222906	-0.8984135081	 0.453889
C	 0.2702649232	-3.1809805249	-0.5028187719	-0.287228
C	-0.224038962	-3.5939203381	-1.9190649214	-0.215575
C	 0.0036922709	-2.1261215516	-2.3819437523	-0.287214
O	 0.953275742	-0.6921503649	-0.4571018141	-0.280827
H	 0.9448444054	 1.5080933734	 0.7779113541	 0.22618
H	-1.6651616574	-1.373752789	 0.5628238493	 0.135749
H	-1.8846237563	-0.5074902522	-0.9814171258	 0.135714
H	 1.3432519804	-3.3532146014	-0.3817471383	 0.121681
H	-0.2546587779	-3.5721917777	 0.3718303138	 0.105044
H	 0.3404015194	-4.3713947751	-2.4355710038	 0.109574
H	-1.2818008017	-3.868077014	-1.9229154974	 0.110991
H	-0.7379311625	-1.6598579948	-3.0347791146	 0.105048
H	 0.9980507857	-1.9872899056	-2.8150843105	 0.121686
86.4388	110.8281	276.4046	326.412	406.0684	440.7908	496.672	499.7547	695.622	784.1468	785.6791	849.3621	866.6801	888.0402	910.7522	925.177	948.2803	968.2232	1025.3619	1034.3922	1076.6478	1126.566	1172.1041	1184.8802	1217.8046	1224.9708	1247.1354	1260.9478	1277.1697	1308.9682	1323.3595	1460.3983	1467.7392	1483.733	1504.1376	1826.9523	3060.4734	3064.5015	3072.7997	3081.4916	3111.8396	3117.2727	3133.4205	3135.5809	3473.3694
N=C1CC2(CCC2)O1	[NH][C]1CC2(CCC2)O1	
InChI=1S/C6H9NO/c7-5-4-6(8-5)2-1-3-6/h7H,1-4H2	InChI=1S/C6H9NO/c7-5-4-6(8-5)2-1-3-6/h7H,1-4H2
