18
gdb 36157	4.1929	1.13977	1.11578	1.5652	79.83	-0.2364	0.0452	0.2815	1140.7525	0.147564	-364.708523	-364.700777	-364.699833	-364.740998	30.569	
C	-0.0151501644	-1.2093698679	-0.0039629774	-0.450998
C	-0.0511019929	-0.0081665777	 0.0155678746	 0.308986
C	-0.0519370374	 1.4517837628	 0.0369732144	-0.489268
C	 1.3518254899	 2.024354178	 0.0044713539	 0.309039
C	 2.3509691586	 1.8115516798	 1.1775400216	-0.275823
C	 3.0092563881	 3.1041578102	 0.7019282311	-0.033508
C	 1.784741771	 3.5500654244	-0.0002461315	-0.119603
N	 2.9768855767	 3.1664628691	-0.8047354021	-0.147065
C	 2.2811447357	 1.9026714648	-1.2166707267	-0.176949
H	 0.0018804948	-2.2708904858	-0.0209404889	 0.198233
H	-0.6230723845	 1.8314780916	-0.8210410762	 0.132516
H	-0.5765728648	 1.8060251241	 0.9343903532	 0.132207
H	 1.8714445276	 1.9570200699	 2.1497210889	 0.104713
H	 2.9298513254	 0.8824861605	 1.1829516808	 0.10347
H	 3.7764228649	 3.6960822757	 1.1830456117	 0.099796
H	 1.2646686358	 4.4958032949	-0.0812888278	 0.096103
H	 2.9179599746	 1.0146058364	-1.2978073623	 0.102303
H	 1.7733048807	 2.0856012791	-2.1679744874	 0.105846
62.3489	105.6367	273.5248	280.4134	347.7017	423.3209	446.5013	456.764	624.5272	640.3636	686.8319	723.5822	752.2776	798.2541	847.1831	896.4995	914.6082	934.3524	968.8463	970.8132	983.9887	994.1654	1018.9367	1082.5537	1109.0526	1141.0542	1152.3466	1165.2114	1204.3328	1241.1474	1268.2084	1277.2193	1311.1614	1346.1827	1355.8699	1468.818	1493.8262	1516.1832	2238.2741	3011.1092	3036.0345	3041.4217	3048.0424	3097.7874	3104.1396	3194.1331	3210.9095	3506.5579
C#CCC12CC3C1N3C2	C#CC[C@]12C[C@@H]3[C@H]1N3C2	
InChI=1S/C8H9N/c1-2-3-8-4-6-7(8)9(6)5-8/h1,6-7H,3-5H2	InChI=1S/C8H9N/c1-2-3-8-4-6-7(8)9(6)5-8/h1,6-7H,3-5H2/t6-,7-,8-,9?/m1/s1
