13
gdb 128003	2.71132	1.63989	1.02842	2.2089	65.56	-0.2751	-0.0758	0.1992	1070.9316	0.087428	-489.863431	-489.855322	-489.854378	-489.897959	27.713	
C	 0.1423751105	 1.4303624497	 0.0838496811	-0.329416
N	 0.1975811231	-0.0228514425	 0.08982912	-0.246684
C	 0.4386774412	-0.6317179224	-0.9834320623	 0.280653
O	 0.6584422343	 0.0468408458	-2.1650857484	-0.282524
N	 0.8933527758	-0.6325096453	-3.3692110855	-0.112319
C	 0.9182691141	-1.9000188083	-3.306384976	 0.159897
O	 0.748325099	-2.7017082455	-2.2285679365	-0.198465
C	 0.4964470933	-2.1319522361	-0.9890139822	 0.388921
O	 0.3477292132	-2.8392778101	-0.048252219	-0.261175
H	 1.1196310447	 1.8587419224	-0.1715377868	 0.144006
H	-0.575640956	 1.8052464222	-0.6556898076	 0.142357
H	-0.1471161313	 1.7778135576	 1.0764999715	 0.136658
H	 1.0984938981	-2.4523117376	-4.2202122384	 0.178093
21.3935	86.9017	131.4537	195.899	205.8084	360.6024	493.437	530.3554	540.7063	563.5399	595.0564	719.7513	780.076	913.0689	934.138	956.8026	1001.5002	1055.7608	1098.0839	1155.6726	1175.5746	1265.0378	1362.4088	1430.3023	1481.9547	1496.2698	1712.198	1752.1253	1903.357	3018.6741	3074.3657	3131.3279	3232.9078
CN=C1ON=COC1=O	CN=c1oncoc1=O	
InChI=1S/C4H4N2O3/c1-5-3-4(7)8-2-6-9-3/h2H,1H3	InChI=1S/C4H4N2O3/c1-5-3-4(7)8-2-6-9-3/h2H,1H3
