21
gdb 95357	2.81658	1.51276	1.08249	1.7201	84.24	-0.2261	0.0179	0.244	1164.8032	0.184475	-387.107491	-387.099312	-387.098367	-387.140513	31.769	
C	-0.2250589216	 1.5120565477	 0.1262282055	-0.393171
C	 0.0061531763	 0.0031945224	-0.0098728408	-0.09079
C	 0.9208450605	-0.397036945	-1.2306569684	-0.230298
C	 2.2233682566	-1.0026116653	-0.6404760022	-0.239627
C	 1.7236428689	-1.6421831846	 0.6642835738	 0.076322
O	 2.6571194764	-1.8166674864	 1.7176333078	-0.284863
C	 2.1369686308	-1.1935009048	 2.8983141489	-0.111424
C	 0.9871355852	-0.332784433	 2.4241939393	-0.282761
C	 0.743795578	-0.6077059138	 1.1486236709	 0.33888
H	 0.7263525561	 2.0453440629	 0.2229166064	 0.118981
H	-0.7498605574	 1.9064125771	-0.7499264805	 0.113221
H	-0.8292752886	 1.7427034365	 1.0096959576	 0.115927
H	-0.9716310708	-0.4809095184	-0.130807279	 0.086705
H	 0.4082484678	-1.1407744961	-1.8490636224	 0.102847
H	 1.1253894469	 0.4611733456	-1.8768147205	 0.101877
H	 2.7147328147	-1.6997176464	-1.32411005	 0.097004
H	 2.939511049	-0.2148774902	-0.3829874715	 0.106066
H	 1.2348128499	-2.6069755134	 0.4365717449	 0.070176
H	 1.8261079603	-1.9604703774	 3.6281987761	 0.098955
H	 2.9331490537	-0.6019263088	 3.3718488786	 0.107369
H	 0.5159798474	 0.4160905214	 3.0485149455	 0.098604
56.6469	144.6923	169.8835	238.529	274.0138	335.7596	401.8923	451.2527	565.4398	611.0976	656.7081	761.6042	787.6211	823.4786	838.2983	885.7536	933.299	953.8363	962.2607	993.441	1017.2048	1032.4911	1045.1279	1091.566	1115.3547	1130.8551	1171.2228	1178.733	1196.8752	1222.2919	1266.8682	1278.5284	1297.1756	1328.421	1335.5641	1352.4164	1369.7938	1388.8666	1408.7916	1487.7885	1494.0999	1499.1886	1501.4937	1521.1905	1740.0542	2930.6901	2956.392	3010.6054	3013.0089	3031.3622	3049.584	3052.2175	3090.2689	3101.032	3104.0097	3107.5108	3211.1875
CC1CCC2OCC=C12	C[C@H]1CC[C@H]2OCC=C12	
InChI=1S/C8H12O/c1-6-2-3-8-7(6)4-5-9-8/h4,6,8H,2-3,5H2,1H3	InChI=1S/C8H12O/c1-6-2-3-8-7(6)4-5-9-8/h4,6,8H,2-3,5H2,1H3/t6-,8+/m0/s1
