16
gdb 133036	4.71214	0.97146	0.86632	4.0485	73.17	-0.2632	-0.05	0.2132	1306.8447	0.125287	-442.101657	-442.093839	-442.092895	-442.134966	28.544	
C	 0.0241896655	 1.5646460031	 0.0094833095	-0.369312
C	-0.008418221	 0.0263263251	 0.0027122017	-0.300299
C	-1.4091888561	-0.5313619473	 0.0129566467	 0.231401
C	-2.1037072953	-0.803689711	 1.1919851403	-0.046728
N	-3.3534709749	-1.2711566194	 1.218194242	-0.304077
C	-3.899977048	-1.4630751924	 0.0314137569	 0.352855
F	-5.1381641733	-1.9199848239	 0.0406229132	-0.056568
N	-3.3735391287	-1.264709878	-1.1633269359	-0.30409
C	-2.1234692223	-0.7973358561	-1.1556422373	-0.046816
H	 1.0551868599	 1.9305804771	 0.0017079975	 0.122099
H	-0.4882836221	 1.9725528524	-0.8674585104	 0.125934
H	-0.4720486611	 1.9644819717	 0.8993939217	 0.125924
H	 0.5220497	-0.3448469542	-0.881566204	 0.114007
H	 0.5381898195	-0.3529137376	 0.8736434581	 0.114048
H	-1.6324218829	-0.64588396	 2.1606788664	 0.120811
H	-1.6685582691	-0.6342472293	-2.1312627964	 0.12081
44.1538	98.3427	212.595	212.7541	321.1435	416.4878	429.4265	489.7345	512.733	585.6931	666.2529	750.9059	788.7957	829.0238	899.1922	970.8629	974.4899	1007.5857	1060.3111	1074.5737	1086.3802	1254.7832	1256.6292	1291.6027	1309.7173	1356.7501	1371.3379	1413.2917	1426.4743	1484.8766	1491.2817	1497.5411	1507.6071	1602.6064	1636.9799	3034.8009	3038.1808	3070.379	3111.849	3113.2975	3145.6604	3147.6944
CCC1=CN=C(F)N=C1	CCc1cnc(F)nc1	
InChI=1S/C6H7FN2/c1-2-5-3-8-6(7)9-4-5/h3-4H,2H2,1H3	InChI=1S/C6H7FN2/c1-2-5-3-8-6(7)9-4-5/h3-4H,2H2,1H3
