23
gdb 106295	3.44134	1.13289	1.04937	1.2797	85.84	-0.2606	0.0751	0.3357	1271.0964	0.206524	-388.28896	-388.279958	-388.279014	-388.322144	35.765	
C	-0.0125260012	 1.5090846059	 0.0479278894	-0.497651
C	 0.0279038921	-0.0012695366	 0.0370836632	 0.349718
C	 0.9967497341	-0.803805842	-0.8890247822	-0.315273
C	 0.7129995945	-1.9507911548	 0.123811728	 0.374091
C	 1.6350684892	-3.1344099608	 0.2523999539	-0.200142
O	 1.1897154128	-3.9282615799	 1.3467393699	-0.425267
C	 0.6420090062	-0.8324281913	 1.2059241891	-0.28471
C	-0.785259368	-2.2264342862	-0.1318158518	-0.250757
C	-1.3016329133	-0.7543454696	-0.1968079955	-0.248987
H	 0.9815416887	 1.936591728	 0.2177336041	 0.109012
H	-0.3867414916	 1.9020607248	-0.9049972005	 0.111718
H	-0.6747250673	 1.8801970308	 0.8391812312	 0.113205
H	 0.7087340666	-0.9548650407	-1.9351175575	 0.081632
H	 2.0252862186	-0.4351694124	-0.8314551717	 0.086826
H	 1.6258779579	-3.7130473227	-0.6872965295	 0.080618
H	 2.6686840389	-2.7861108752	 0.4116078478	 0.078796
H	 1.7718792441	-4.6896828636	 1.4218182398	 0.286893
H	 1.6328921527	-0.4730639293	 1.4986284355	 0.084495
H	 0.0284884205	-1.0121286482	 2.0936251439	 0.090153
H	-0.9457714533	-2.7736904514	-1.0666961892	 0.086209
H	-1.232440085	-2.8064448143	 0.6781391429	 0.109922
H	-2.0398391768	-0.5292184836	 0.5798829284	 0.090988
H	-1.7497277105	-0.502375787	-1.1636617491	 0.088511
85.2997	156.8216	219.1113	229.1171	251.5571	267.7624	309.209	362.3482	423.3875	455.5278	511.9818	580.4958	628.6541	705.0913	817.4858	832.5305	842.1438	902.8607	921.1347	949.9518	966.6972	972.4932	1004.292	1034.	1038.9887	1060.3761	1087.3674	1133.6308	1149.1025	1180.4158	1186.8062	1205.047	1219.5068	1250.9549	1252.7923	1263.0748	1278.6539	1303.3827	1348.8067	1351.2241	1414.8593	1464.9564	1484.5014	1490.2292	1494.302	1496.0914	1500.8154	1513.9644	1535.1969	2951.5289	2980.7805	3019.3498	3034.7423	3038.3075	3046.704	3053.2456	3077.4664	3081.9794	3089.4928	3096.4026	3105.8357	3110.7546	3832.0731
CC12CC(CO)(C1)CC2	C[C@@]12C[C@@](CO)(C1)CC2	
InChI=1S/C8H14O/c1-7-2-3-8(4-7,5-7)6-9/h9H,2-6H2,1H3	InChI=1S/C8H14O/c1-7-2-3-8(4-7,5-7)6-9/h9H,2-6H2,1H3/t7-,8-
