25
gdb 100759	2.79958	0.8852	0.80503	2.2263	85.56	-0.2553	0.062	0.3174	1609.6524	0.226158	-426.636503	-426.624828	-426.623884	-426.673397	43.032	
C	 0.161381545	 1.5702721257	 0.0395290227	-0.392218
C	 0.029683805	 0.0489825569	-0.0823260506	-0.174001
C	-1.4212500991	-0.4722922397	-0.0625541256	 0.032419
C	-2.1766962183	-0.0940407743	-1.3456298088	-0.41344
C	-1.4213926004	-2.0006114837	 0.1841202202	 0.130657
O	-0.7151480281	-2.3307257073	 1.3754270018	-0.443763
C	-2.8255352149	-2.6275548033	 0.2605231526	 0.104127
C	-2.7728607431	-4.1514866737	 0.3441525918	-0.414243
O	-3.4161826752	-2.0594371841	 1.4370508339	-0.452243
H	 1.2144198541	 1.8690049164	 0.0595539008	 0.109674
H	-0.3100915675	 2.0996493525	-0.7948441172	 0.11204
H	-0.3023805592	 1.9323502756	 0.9642912682	 0.111558
H	 0.5163540718	-0.289057775	-1.0086948812	 0.08184
H	 0.5702807204	-0.4259966669	 0.7409059655	 0.115349
H	-1.9387962592	-0.0143281246	 0.7916235173	 0.077201
H	-2.0671503009	 0.9715819121	-1.5648388673	 0.115521
H	-1.7875616637	-0.6468660534	-2.2101363796	 0.108104
H	-3.2487278816	-0.2954883143	-1.2712285126	 0.118376
H	-0.8743428241	-2.4861450571	-0.6352710452	 0.075034
H	-1.3289523025	-2.1277089612	 2.0939477152	 0.283743
H	-3.4080087885	-2.3382254842	-0.6246297686	 0.070984
H	-2.1295335111	-4.4653689352	 1.169465897	 0.136494
H	-3.7763142435	-4.5681478847	 0.4932901003	 0.099931
H	-2.3771907127	-4.575220377	-0.5845369081	 0.120046
H	-4.1900473625	-2.5805259695	 1.6699596277	 0.286809
47.5007	70.5526	98.4719	155.808	216.3841	221.4253	235.8946	268.9937	278.7791	300.1897	302.4932	327.8831	395.5916	440.6288	462.3776	487.1846	540.0156	689.3065	779.2452	823.392	846.6946	899.3676	959.834	983.5073	991.9124	1007.8063	1049.0471	1058.8462	1094.5625	1118.5833	1145.4404	1168.4929	1184.578	1214.3602	1260.8723	1294.4487	1322.2552	1347.2984	1368.2625	1376.3682	1384.7439	1402.848	1410.2595	1413.1738	1417.2291	1439.7598	1487.6637	1489.409	1496.8292	1499.9709	1502.3594	1509.6025	1516.6751	3004.6805	3009.8178	3015.2146	3025.0382	3029.2353	3030.58	3035.675	3081.6145	3094.0271	3095.8694	3098.2982	3105.0193	3114.3732	3131.6424	3763.5249	3831.9618
CCC(C)C(O)C(C)O	CC[C@@H](C)[C@@H](O)[C@@H](C)O	
InChI=1S/C7H16O2/c1-4-5(2)7(9)6(3)8/h5-9H,4H2,1-3H3	InChI=1S/C7H16O2/c1-4-5(2)7(9)6(3)8/h5-9H,4H2,1-3H3/t5-,6-,7-/m1/s1
