17
gdb 35329	4.75864	0.96508	0.92301	2.2739	74.45	-0.2515	0.0145	0.2659	1278.5671	0.134246	-421.745386	-421.737012	-421.736068	-421.779331	30.903	
C	-0.5809951003	-1.1210937824	-0.7549119152	-0.450924
C	-0.2534264193	-0.018711247	-0.4055448513	 0.332722
C	 0.1258579642	 1.3154966475	 0.0247453133	-0.048527
C	-0.1920139269	 1.7087009639	 1.4919593534	-0.374441
C	 1.3312503886	 1.849574246	 1.642193422	 0.377624
C	 2.0198522244	 3.1278220922	 2.1540078521	-0.1302
O	 2.6121681631	 2.4103909574	 3.2557638675	-0.273539
C	 2.1457139402	 1.1455447033	 2.741430961	-0.126081
O	 1.5505028269	 1.4598079872	 0.2785420768	-0.307666
H	-0.8652659766	-2.0951627123	-1.069216976	 0.205847
H	-0.2044270835	 2.0540624603	-0.7156079276	 0.110989
H	-0.764265673	 2.6302228306	 1.6079327049	 0.121018
H	-0.6449156136	 0.9150787316	 2.0865447577	 0.128925
H	 2.7698441747	 3.5173511522	 1.4532539013	 0.112713
H	 1.3689220172	 3.9442174917	 2.4905129655	 0.102247
H	 1.5824796728	 0.573628105	 3.488803962	 0.10443
H	 2.9588840212	 0.5285380127	 2.3381161927	 0.114863
37.073	83.7632	151.4876	219.9844	270.1876	357.409	391.5148	434.4832	517.9957	592.3867	624.9458	674.8251	767.8738	827.6196	880.5493	902.3205	912.3239	948.8528	984.3735	991.423	1030.0786	1048.8304	1096.6324	1147.7689	1148.9065	1189.832	1204.7217	1228.2845	1267.0455	1296.8422	1298.0573	1361.8641	1388.0208	1484.8891	1492.6218	1520.6952	2236.4685	3005.7871	3018.4272	3029.8213	3060.9119	3064.7727	3086.2098	3146.9003	3501.182
C#CC1CC2(COC2)O1	C#C[C@H]1CC2(COC2)O1	
InChI=1S/C7H8O2/c1-2-6-3-7(9-6)4-8-5-7/h1,6H,3-5H2	InChI=1S/C7H8O2/c1-2-6-3-7(9-6)4-8-5-7/h1,6H,3-5H2/t6-/m0/s1
