21
gdb 84086	2.34614	1.44814	1.10614	2.7716	80.23	-0.249	0.0052	0.2542	1190.7191	0.181998	-424.245725	-424.236203	-424.235258	-424.279556	36.477	
C	 0.7907440027	 1.5706628993	-0.0537821183	-0.39114
C	 0.1689605617	 0.1696260706	 0.0551898102	-0.124313
C	 0.5282883286	-0.7703984495	-1.1419297662	 0.107221
O	 0.8658632462	-0.1244620143	-2.3433218688	-0.437898
C	 1.6826337161	-1.6689202518	-0.6120283866	 0.050601
O	 2.9616903651	-1.1523321764	-1.0336382615	-0.446005
C	 1.4870906801	-1.6209899591	 0.8739920198	-0.235085
C	 0.6771148269	-0.6215995161	 1.2483459394	 0.33529
C	 0.2855226659	-0.2724409281	 2.6498111436	-0.494503
H	 1.8853795065	 1.5242683341	-0.0608049299	 0.09452
H	 0.4749799081	 2.0476527228	-0.9843545459	 0.137853
H	 0.4900853088	 2.2062671209	 0.7849081581	 0.109809
H	-0.9199771957	 0.294878062	 0.1198801902	 0.073273
H	-0.3394017969	-1.4120731727	-1.3371269786	 0.082584
H	 1.8350525059	-0.1333832662	-2.3681490038	 0.284523
H	 1.640858614	-2.6752302655	-1.0392266086	 0.08782
H	 3.2376517761	-0.5075103139	-0.3725795345	 0.282892
H	 1.9852554058	-2.3059516364	 1.5524088154	 0.091935
H	 0.7486875866	-0.9417928494	 3.3796900865	 0.125766
H	 0.573039462	 0.7563010657	 2.8983866386	 0.132889
H	-0.8031682444	-0.3280620759	 2.775081781	 0.131969
83.4334	135.0117	181.4884	200.4875	236.0272	262.7991	293.4072	315.2429	336.5438	444.4608	493.0307	524.8213	565.1005	591.8796	663.1267	751.6635	790.7621	817.7074	858.4858	904.265	991.9179	1014.3222	1031.869	1046.6509	1075.5524	1088.0481	1131.3643	1139.247	1185.2774	1222.8005	1268.3984	1286.5402	1309.154	1331.1254	1348.2232	1369.6377	1407.1541	1409.9359	1416.5498	1443.7045	1478.1477	1485.2776	1493.2494	1497.1925	1699.4043	3009.9214	3022.3297	3032.9982	3035.591	3068.4606	3071.0986	3098.8016	3112.4886	3128.2931	3183.7399	3700.688	3803.0017
CC1C(O)C(O)C=C1C	C[C@H]1[C@@H](O)[C@@H](O)C=C1C	
InChI=1S/C7H12O2/c1-4-3-6(8)7(9)5(4)2/h3,5-9H,1-2H3	InChI=1S/C7H12O2/c1-4-3-6(8)7(9)5(4)2/h3,5-9H,1-2H3/t5-,6+,7-/m1/s1
