14
gdb 125344	5.98448	1.05411	0.90126	2.569	82.69	-0.238	-0.0729	0.1651	1232.9204	0.099957	-395.709296	-395.701263	-395.700319	-395.74252	28.932	
C	-0.0236833665	 1.5016074472	 0.0359213526	-0.489854
C	-0.0005569573	 0.0024209536	-0.0115430168	 0.351306
C	 0.0702031903	-0.7195452027	-1.2129734078	-0.060492
N	 0.089770902	-2.0384045401	-1.2312817758	-0.262355
C	 0.0368435042	-2.6226794474	-0.0177174287	 0.19432
N	-0.0317605909	-1.9793946878	 1.1574584999	-0.221048
N	-0.0502083716	-0.6537026969	 1.1512352267	-0.236925
C	 0.0545477795	-4.0505456565	 0.0347380614	 0.296037
C	 0.0696026704	-5.2516781166	 0.076257507	-0.349712
H	 0.8794233242	 1.9247193666	-0.4172750934	 0.143922
H	-0.8813614357	 1.9009044359	-0.5162197993	 0.143717
H	-0.0861649514	 1.8323597014	 1.0735728729	 0.156842
H	 0.1112605611	-0.2076852008	-2.1730826382	 0.127458
H	 0.0827824817	-6.3132950459	 0.1153713295	 0.206783
54.4007	84.0608	149.5213	237.7402	334.8817	383.4712	410.1335	468.9468	544.694	580.7145	656.2404	660.9623	671.3445	721.2796	839.9044	862.5277	965.9212	994.0962	1068.4168	1070.4205	1124.901	1240.1481	1312.446	1338.4824	1407.5077	1429.1116	1470.5262	1483.0511	1543.0543	1597.5501	2242.9475	3039.1951	3094.5619	3144.1763	3147.7735	3500.9908
CC1=CN=C(N=N1)C#C	Cc1cnc(nn1)C#C	
InChI=1S/C6H5N3/c1-3-6-7-4-5(2)8-9-6/h1,4H,2H3	InChI=1S/C6H5N3/c1-3-6-7-4-5(2)8-9-6/h1,4H,2H3
