16
gdb 64694	4.86968	0.87731	0.83778	2.5561	76.91	-0.2552	0.0114	0.2666	1353.6914	0.121574	-400.71095	-400.701696	-400.700752	-400.745142	33.974	
O	-0.1227811552	 1.5006693857	-0.1661624092	-0.452292
C	-0.0007214692	 0.1208885068	-0.0582878164	 0.406444
C	 1.0885379127	-0.4716767466	-0.9507132505	-0.389933
C	 2.4061996155	 0.0402674656	-0.570160936	 0.250455
N	 3.4217886902	 0.4798181328	-0.2371464396	-0.302874
C	-0.3319586093	-0.5349671992	 1.2503852993	-0.339345
C	-1.3012862948	-0.6482499465	 0.0692598963	-0.291032
C	-2.5595241758	 0.0356019364	 0.0891518547	 0.344532
C	-3.6302314482	 0.5816194282	 0.097301513	-0.430952
H	 0.6192305345	 1.9072951731	 0.2978857635	 0.301162
H	 1.0963376721	-1.5643314265	-0.8866228509	 0.152329
H	 0.8920779431	-0.1987333049	-1.9932921862	 0.167121
H	 0.2019558285	-1.4286159292	 1.5543642332	 0.126446
H	-0.6366600725	 0.1228954789	 2.0552135571	 0.139879
H	-1.3184843963	-1.613904653	-0.4294650035	 0.119402
H	-4.5692698654	 1.0771987484	 0.1021346051	 0.198659
59.5125	90.4456	144.4002	167.8282	287.5097	318.7228	338.8471	367.7766	392.1887	417.5921	475.5134	528.3856	603.6906	655.6158	671.2924	730.5919	825.9979	878.7282	896.0544	948.74	969.8816	998.7192	1057.2475	1080.6737	1133.8279	1196.3373	1231.8286	1302.5129	1319.875	1364.3669	1412.1658	1453.4049	1481.636	2244.4973	2360.1948	3051.1694	3097.6563	3138.2057	3141.8732	3239.5799	3504.683	3785.0648
OC1(CC#N)CC1C#C	O[C@@]1(CC#N)C[C@H]1C#C	
InChI=1S/C7H7NO/c1-2-6-5-7(6,9)3-4-8/h1,6,9H,3,5H2	InChI=1S/C7H7NO/c1-2-6-5-7(6,9)3-4-8/h1,6,9H,3,5H2/t6-,7+/m1/s1
