17
gdb 26470	3.5619	1.31622	1.19432	2.8703	75.15	-0.2249	0.0273	0.2522	1074.2092	0.137188	-418.008779	-418.00091	-417.999965	-418.041107	30.134	
C	-0.1934168316	 1.6027983318	 0.045635158	-0.417711
C	-0.057286836	 0.0897094139	 0.026079413	 0.234547
O	-1.3262063562	-0.4450994165	 0.3182908218	-0.457275
C	 0.6543991788	-0.5092923479	-1.2740509081	-0.227411
N	 1.7097919457	-0.9960949436	-0.3598824199	-0.005027
C	 2.888346749	-1.5835161416	-0.033250851	-0.028279
N	 3.0720006078	-1.5072554816	 1.2762557856	-0.261313
C	 1.9900620061	-0.8377372734	 1.8085972348	-0.23831
C	 1.1336155728	-0.5152401411	 0.7818626481	 0.220754
H	 0.7480015308	 2.0851040473	-0.2278067114	 0.124806
H	-0.9730047042	 1.9158243324	-0.6556888966	 0.128938
H	-0.4803937283	 1.9356056835	 1.0464605811	 0.135745
H	-1.2119506772	-1.3670365339	 0.5735188778	 0.285851
H	 0.0907855283	-1.3076880434	-1.762289861	 0.12742
H	 1.0092246404	 0.2149797601	-2.0113358358	 0.130381
H	 3.5594949218	-2.0455010362	-0.7399490186	 0.13449
H	 1.9144063821	-0.6506208199	 2.8678178123	 0.112395
93.23	131.847	229.592	281.052	293.3069	352.2682	368.9376	448.8646	534.5506	626.5205	663.1123	705.7287	750.6809	794.9375	837.8469	842.0372	915.5922	945.6686	980.1053	1055.1522	1107.0992	1126.5397	1140.1256	1142.571	1215.477	1219.2823	1247.8692	1287.8932	1357.5224	1373.4981	1411.1087	1430.1288	1455.5113	1480.8503	1493.6226	1510.8183	1549.1934	3046.624	3062.1714	3120.936	3124.4803	3132.9967	3259.7717	3263.8438	3807.763
CC1(O)CN2C=NC=C12	C[C@@]1(O)Cn2cncc12	
InChI=1S/C6H8N2O/c1-6(9)3-8-4-7-2-5(6)8/h2,4,9H,3H2,1H3	InChI=1S/C6H8N2O/c1-6(9)3-8-4-7-2-5(6)8/h2,4,9H,3H2,1H3/t6-/m1/s1
