16
gdb 30889	3.10614	1.24887	0.92255	1.9939	69.38	-0.1661	0.0526	0.2187	1228.4814	0.124417	-471.222543	-471.213207	-471.212263	-471.256884	33.396	
C	-0.1172341804	 0.8393624021	-0.560409456	-0.252927
O	-0.4220739167	 0.4982082824	 0.7922741438	-0.275849
C	 0.4800002669	-0.3250832888	 1.3785232623	 0.269014
C	 1.0639052289	-1.515802133	 1.0588494167	 0.217059
O	 0.9052855726	-2.229557038	-0.0873897793	-0.45148
N	 1.8811312579	-1.9553008096	 2.0745013431	-0.39135
C	 1.7990923475	-1.0368956816	 3.013307057	 0.379196
N	 2.5157934843	-1.022760318	 4.2117454912	-0.59744
N	 0.9686698555	-0.0226746585	 2.6543879834	-0.352528
H	-0.0929280699	-0.0523942674	-1.1953287309	 0.147049
H	-0.9126358478	 1.5079412024	-0.8959073877	 0.126855
H	 0.8506970961	 1.3518564456	-0.6265297863	 0.114296
H	 1.4836798475	-2.9965940126	-0.0043050494	 0.297068
H	 1.9215347986	-0.9433048967	 5.0301850309	 0.247268
H	 3.0615035657	-1.8734299231	 4.2801299691	 0.258252
H	 0.8065796934	 0.8404298749	 3.1441207421	 0.265516
45.0493	148.0438	168.6126	198.5605	232.5896	263.135	300.1255	306.7528	312.1551	406.3107	445.5681	536.8673	632.1236	658.2522	696.9469	706.0114	808.2736	833.7752	1033.2288	1057.6957	1117.9067	1157.4961	1182.376	1214.6199	1235.7169	1284.3363	1361.2318	1436.8117	1481.688	1495.6094	1509.5278	1523.7655	1596.2609	1650.6979	1727.6561	3015.9208	3088.7535	3131.883	3511.7582	3612.325	3674.658	3811.5337
COC1=C(O)N=C(N)N1	COc1c(O)nc(N)[nH]1	
InChI=1S/C4H7N3O2/c1-9-3-2(8)6-4(5)7-3/h8H,1H3,(H3,5,6,7)	InChI=1S/C4H7N3O2/c1-9-3-2(8)6-4(5)7-3/h8H,1H3,(H3,5,6,7)
