15
gdb 127707	3.20626	1.44353	1.0028	8.5908	74.06	-0.2223	-0.0503	0.172	1112.6245	0.112963	-450.119939	-450.111803	-450.110859	-450.152595	30.39	
C	 0.0073808059	 1.4677168036	-0.0130496808	-0.345349
N	-0.0106425878	 0.0173630574	 0.0647460528	-0.083293
N	-0.0901605555	-0.611729599	-1.1584145319	-0.051086
N	-0.0768419729	-1.8605357942	-1.239767291	-0.240945
C	 0.0179566569	-2.7219065677	-0.0719179584	 0.426547
O	 0.0224192179	-3.9227972428	-0.2444881727	-0.364514
C	 0.0863213319	-2.0427257085	 1.1919104556	-0.368672
C	 0.0780914154	-0.6804904697	 1.2413557892	 0.495604
N	 0.2227327227	 0.0603206204	 2.3977194647	-0.580423
H	 0.8972439702	 1.872065969	 0.4781270411	 0.155223
H	 0.0230760701	 1.7218498546	-1.0722576706	 0.175937
H	-0.8892320741	 1.9074553287	 0.4403544334	 0.138264
H	 0.1452213905	-2.6291357542	 2.1003711762	 0.109295
H	 0.1335683359	-0.4846398649	 3.2433248743	 0.26965
H	-0.2826820971	 0.9325348474	 2.4475302779	 0.263762
83.287	175.1067	189.0971	218.7895	319.2287	340.1254	369.4424	466.3839	470.3472	550.7516	569.6464	588.2228	695.729	721.4287	764.0955	781.8777	845.7757	926.4115	935.9433	1110.1119	1150.4172	1191.8124	1249.9435	1266.8616	1285.0329	1433.9941	1484.4211	1488.8741	1508.9334	1557.8556	1638.388	1680.7903	1791.4017	3026.1277	3095.7015	3165.1413	3207.4294	3569.6158	3670.3159
CN1N=NC(=O)C=C1N	Cn1nnc(=O)cc1N	
InChI=1S/C4H6N4O/c1-8-3(5)2-4(9)6-7-8/h2H,5H2,1H3	InChI=1S/C4H6N4O/c1-8-3(5)2-4(9)6-7-8/h2H,5H2,1H3
