12
gdb 133295	4.05954	1.20099	0.93355	1.0599	63.21	-0.2749	-0.1245	0.1504	1137.7862	0.074591	-510.028146	-510.020241	-510.019297	-510.062275	27.058	
C	-0.0103412078	 1.442577121	-0.019918284	-0.330071
N	-0.0816640945	-0.0080308719	-0.0514116126	-0.284189
C	 0.4653986186	-0.6543825232	-0.9733607478	 0.485946
O	 1.1389513451	 0.0068809753	-2.029360549	-0.265522
N	 1.9226608909	-0.6980027059	-2.9519834163	 0.092717
N	 1.9241180465	-1.9354779568	-2.9196491164	-0.160989
C	 1.118849016	-2.573422547	-1.9547920879	 0.391909
F	 1.1486747687	-3.8700401343	-2.10059305	-0.024576
N	 0.4366839432	-2.0420724001	-1.0365297925	-0.316752
H	 0.9577368074	 1.8375887249	-0.3487798941	 0.133307
H	-0.7830475113	 1.8725865612	-0.6694916245	 0.141048
H	-0.2090603329	 1.7787520469	 0.999863655	 0.137172
29.5203	73.1505	136.3716	210.4606	314.9947	398.0451	410.1524	529.391	538.2631	559.006	701.7407	733.4473	754.2595	782.3795	921.8202	988.537	1047.5447	1118.3864	1142.7413	1238.806	1348.2746	1439.6981	1484.3373	1501.9847	1588.1936	1740.4584	1797.4332	3018.5792	3075.968	3117.8779	29.5139	73.149	136.3716	210.4604	314.9946	398.045	410.1523	529.3909	538.2631	559.006	701.7407	733.4474	754.2599	782.3796	921.8202	988.5369	1047.5447	1118.3865	1142.7415	1238.8063	1348.2747	1439.6984	1484.3377	1501.9851	1588.1933	1740.4586	1797.4331	3018.5792	3075.968	3117.8779
CN=C1ON=NC(F)=N1	C[N]C1=NC(=N[N]O1)F	
InChI=1S/C3H3FN4O/c1-5-3-6-2(4)7-8-9-3/h1H3	InChI=1S/C3H3FN4O/c1-5-3-6-2(4)7-8-9-3/h1H3
