19
gdb 81485	3.19315	1.51737	1.43777	0.6174	73.52	-0.2433	0.0761	0.3193	982.7059	0.162046	-422.982611	-422.975718	-422.974774	-423.013496	28.857	
O	-0.0981970054	 1.4678205177	 0.0408138481	-0.454104
C	 0.0002550113	 0.0580010856	 0.0457592952	 0.14514
C	-1.4001657433	-0.5791179347	-0.1672288608	-0.059426
C	-1.1876753216	-0.2703347472	-1.6890396657	-0.23494
C	 0.3034536563	-0.5940788438	-1.3395487394	-0.105079
C	 0.1831443501	-2.0896274684	-1.0194700577	 0.131237
O	 0.9582257341	-2.5806013788	 0.103340378	-0.305991
C	-0.227605516	-2.7203963034	 0.9221083906	-0.110637
C	-1.1194589654	-2.0913957568	-0.1668037147	-0.065456
H	 0.7937365331	 1.8235209891	-0.0226595473	 0.283315
H	 0.6051009468	-0.2857805472	 0.8897536417	 0.079693
H	-2.2630170256	-0.2096077221	 0.3866069684	 0.069803
H	-1.6962903276	-0.9124977002	-2.4142079344	 0.088472
H	-1.3361974932	 0.7805758499	-1.9277214164	 0.121352
H	 1.138076469	-0.2625136795	-1.9588306383	 0.05855
H	 0.2745346796	-2.744788195	-1.8912600249	 0.0757
H	-0.4463783206	-3.7759638619	 1.1259575501	 0.100676
H	-0.1415934102	-2.1840251406	 1.8749968393	 0.10204
H	-1.9728705115	-2.6841826228	-0.4972577918	 0.079656
208.7574	226.3862	289.2049	315.8033	363.0139	400.213	477.1498	567.3351	631.146	796.4521	814.204	855.6107	859.367	869.8919	890.9738	924.9426	958.4992	989.6867	1002.2886	1014.9269	1032.9991	1050.7472	1071.4096	1089.9254	1098.3843	1128.0424	1164.705	1190.8121	1201.9672	1226.7869	1246.1692	1247.6566	1269.7814	1288.9448	1301.3464	1342.0926	1343.3301	1357.7285	1438.9458	1495.2894	1523.7218	3013.2704	3054.6416	3056.8606	3062.4769	3063.3929	3103.856	3107.5841	3121.2443	3162.9287	3816.9936
OC1C2CC1C1OCC21	O[C@H]1[C@H]2C[C@@H]1[C@H]1OC[C@@H]21	
InChI=1S/C7H10O2/c8-6-3-1-4(6)7-5(3)2-9-7/h3-8H,1-2H2	InChI=1S/C7H10O2/c8-6-3-1-4(6)7-5(3)2-9-7/h3-8H,1-2H2/t3-,4-,5-,6-,7+/m0/s1
