15
gdb 43892	2.82141	1.51055	1.15075	3.4439	74.26	-0.2419	0.0031	0.245	1053.6051	0.112134	-416.73009	-416.722354	-416.72141	-416.76236	29.695	
N	 0.0202690575	 1.036238953	-0.6229204627	-0.546637
C	-0.041760036	-0.0998455182	-0.106154798	 0.471694
O	 0.9546733868	-0.8980722877	 0.446766334	-0.296505
C	 0.0260223504	-2.0152920834	 0.661501642	 0.249727
C	-0.6526979859	-1.960467422	 2.0532412546	-0.225159
N	-1.6490033703	-0.9715558298	 1.5510764312	-0.318716
C	-1.1453078737	-1.104429866	 0.1600518177	-0.211048
C	 0.4834247461	-3.2570612336	 0.1103386583	 0.242805
C	 0.8383339408	-4.3142145761	-0.3385442515	-0.399649
H	 0.9697454554	 1.4123203489	-0.6002608042	 0.233055
H	-1.0790072886	-2.9289038929	 2.3340492262	 0.120119
H	-0.0160438993	-1.5889726782	 2.8611361997	 0.128697
H	-2.6056912765	-1.2871931069	 1.6490679264	 0.234965
H	-1.855762128	-1.343016046	-0.6293085074	 0.112293
H	 1.1608549315	-5.2436107311	-0.7398614561	 0.204357
94.2498	147.7344	183.6211	242.904	357.9179	401.3742	462.5894	501.9847	578.243	633.4413	655.1057	664.6755	676.6983	781.0873	830.9844	855.6088	867.7696	960.0265	990.0479	998.4912	1026.4968	1053.5834	1066.9368	1137.0935	1150.9356	1238.5848	1255.8121	1286.6097	1341.8395	1388.0105	1491.2122	1837.7229	2239.7982	3044.1541	3101.74	3139.129	3476.8281	3498.3724	3561.5134
N=C1OC2(CNC12)C#C	[NH][C]1O[C@]2(CN[C@@H]12)C#C	
InChI=1S/C6H6N2O/c1-2-6-3-8-4(6)5(7)9-6/h1,4,7-8H,3H2	InChI=1S/C6H6N2O/c1-2-6-3-8-4(6)5(7)9-6/h1,4,7-8H,3H2/t4-,6-/m0/s1
