20
gdb 119857	3.32287	0.99038	0.81386	3.6817	83.13	-0.2407	-0.0182	0.2225	1461.5538	0.171407	-403.212034	-403.202638	-403.201694	-403.247033	33.977	
C	 0.1016367949	 1.5593160004	 0.0793761098	-0.380019
C	 0.1191973313	 0.0297383326	 0.0465911151	-0.165158
C	 0.5818826111	-0.5250372567	-1.3157084293	-0.297959
C	 0.6415607504	-2.0179429101	-1.3429864602	 0.234192
C	-0.1097368434	-2.9071282786	-1.9998379251	-0.211662
C	 0.3357661366	-4.3159555814	-1.7031640025	-0.204693
N	 1.4340659687	-4.096703014	-0.7922499061	-0.329997
C	 1.671353999	-2.7651446058	-0.5433970228	 0.36123
O	 2.5391753508	-2.3046046817	 0.172776493	-0.392732
H	 1.1004402092	 1.969091195	-0.106861646	 0.118624
H	-0.5715604999	 1.9681796045	-0.6829635841	 0.10877
H	-0.2335461682	 1.9305226007	 1.052807266	 0.11206
H	 0.7901985004	-0.3551551763	 0.8209155564	 0.131616
H	-0.8816444611	-0.3602502023	 0.2702071689	 0.091214
H	-0.0798541433	-0.1630946097	-2.1113735871	 0.094404
H	 1.5856225531	-0.1325452838	-1.5239125785	 0.119573
H	-0.9340837704	-2.695803998	-2.6694288197	 0.108865
H	-0.4704786918	-4.9111809211	-1.2492729595	 0.124084
H	 0.6502214908	-4.8426178529	-2.6164541482	 0.124172
H	 1.9967143718	-4.8231883907	-0.3844837402	 0.253416
61.8651	81.6694	100.0676	124.0025	239.3145	258.6768	288.5561	323.105	419.4031	461.4897	516.6794	654.4609	744.7115	757.783	797.9301	800.6601	839.3522	882.3041	901.9586	956.0188	1014.1672	1041.3558	1065.315	1103.8618	1111.2553	1169.1747	1184.8812	1226.9893	1258.7797	1304.4502	1317.6345	1328.311	1369.8015	1384.5441	1410.144	1424.7893	1474.3204	1493.8906	1498.2953	1500.8432	1508.3496	1704.7794	1808.5011	2993.7192	3013.7805	3019.6933	3027.5936	3033.0755	3061.6925	3080.5225	3102.6765	3103.6717	3212.4806	3675.5349
CCCC1=CCNC1=O	CCCC1=CCNC1=O	
InChI=1S/C7H11NO/c1-2-3-6-4-5-8-7(6)9/h4H,2-3,5H2,1H3,(H,8,9)	InChI=1S/C7H11NO/c1-2-3-6-4-5-8-7(6)9/h4H,2-3,5H2,1H3,(H,8,9)
