19
gdb 109477	2.14549	1.53446	0.94936	2.0579	75.85	-0.2409	-0.0418	0.199	1246.4786	0.157738	-423.086255	-423.07706	-423.076116	-423.121354	33.258	
C	-0.2622028017	 1.6863644231	-0.2326436171	-0.396407
C	-0.1396846316	 0.178815035	 0.0054207577	-0.184358
C	 0.8344647375	-0.5127555667	-0.9495335799	-0.209207
C	 2.3277666001	-0.3092323246	-0.700151612	 0.376512
O	 2.8289343954	 0.6089744792	-0.1040894297	-0.301167
C	 3.0887273635	-1.5006548143	-1.296629993	-0.326328
C	 2.0680356312	-2.6516317485	-1.3719912759	-0.329283
C	 0.6971099751	-2.0346945478	-1.0557525883	 0.378508
O	-0.3203698314	-2.655696295	-0.894517056	-0.305398
H	 0.7039779411	 2.1798025404	-0.1042776177	 0.145036
H	-0.623081479	 1.8973650501	-1.2460802818	 0.108723
H	-0.9717998108	 2.1326153078	 0.4705376891	 0.114803
H	 0.1898868055	-0.007279441	 1.0341249173	 0.109406
H	-1.1118789685	-0.3128415717	-0.104930055	 0.122605
H	 0.663169655	-0.1509336487	-1.9804877707	 0.131395
H	 3.4433137078	-1.2068939981	-2.2917829324	 0.137965
H	 3.9734439474	-1.715775037	-0.6942352554	 0.139431
H	 2.0284376009	-3.1404265272	-2.349983574	 0.141095
H	 2.2614157225	-3.4405215348	-0.6386007452	 0.146669
42.1802	68.2562	93.4319	171.9208	209.7592	275.8464	312.5113	425.03	474.0311	510.85	567.3632	596.1601	650.2312	693.3579	756.5557	851.5777	862.2564	925.8931	932.2971	1002.384	1026.9624	1050.2646	1087.8836	1128.8242	1166.1592	1191.2523	1197.1563	1242.4032	1262.0351	1286.6271	1298.7057	1327.7829	1369.7229	1409.4676	1446.6215	1464.8003	1487.8931	1496.7308	1514.2531	1824.5467	1864.1991	2954.506	3033.7341	3042.217	3047.5071	3063.4068	3080.607	3099.8252	3100.6664	3119.5203	3130.8864
CCC1C(=O)CCC1=O	CCC1C(=O)CCC1=O	
InChI=1S/C7H10O2/c1-2-5-6(8)3-4-7(5)9/h5H,2-4H2,1H3	InChI=1S/C7H10O2/c1-2-5-6(8)3-4-7(5)9/h5H,2-4H2,1H3
