22
gdb 118272	2.54619	0.74818	0.60495	5.1108	84.67	-0.265	0.0418	0.3068	1859.8031	0.191706	-404.371899	-404.360833	-404.359889	-404.409463	38.489	
C	-0.1013874603	 1.4986762353	-0.1317377795	-0.384114
C	-0.0348304518	 0.0094167844	 0.1636019669	-0.039288
O	-1.3122704728	-0.5507987049	-0.083406324	-0.259858
C	-1.3920173365	-1.9664830115	 0.0145630107	 0.136116
C	-1.3863680843	-2.4486945459	 1.4676265797	-0.408241
C	-2.6769283282	-2.3803791155	-0.7054736218	-0.190744
C	-2.6857116294	-1.922316297	-2.1763167605	-0.343688
C	-3.9127732707	-2.2958588116	-2.8738440972	 0.255102
N	-4.8887194158	-2.6004562898	-3.4128534532	-0.309626
H	 0.8694305331	 1.9667527265	 0.0560344795	 0.11788
H	-0.3756308609	 1.6740728109	-1.1759256802	 0.124954
H	-0.8482375759	 1.982140557	 0.5042152304	 0.130165
H	 0.7197371251	-0.4793485515	-0.4752190904	 0.086781
H	 0.2707998515	-0.1549017582	 1.2079171915	 0.093502
H	-0.52916723	-2.4100538539	-0.5142201312	 0.06477
H	-1.4793610549	-3.5384170582	 1.5103801696	 0.120046
H	-0.4590685959	-2.1758867881	 1.9782474368	 0.121526
H	-2.2238529401	-2.0064196596	 2.0162091989	 0.128091
H	-2.7864497272	-3.4679880987	-0.6530626163	 0.117823
H	-3.5346836676	-1.9419389344	-0.184415105	 0.127212
H	-2.5647742615	-0.8360315076	-2.2149474023	 0.167637
H	-1.8350418059	-2.3570448776	-2.7151516523	 0.143954
50.3126	56.0022	74.5401	117.5285	137.0689	191.0095	218.4967	243.7802	259.0795	329.2428	398.2754	423.6352	465.506	492.2789	570.8092	762.0397	820.4745	838.2541	908.3912	937.7616	955.2724	974.6869	1033.1504	1080.712	1114.4008	1125.9061	1144.0917	1166.8177	1187.0533	1227.1502	1277.0749	1299.0726	1317.0367	1354.3106	1370.6182	1397.4506	1403.2656	1406.4573	1437.1826	1469.3787	1482.6526	1483.5672	1490.9863	1498.3407	1500.0973	1530.3252	2361.5653	2941.0102	2965.0989	3001.3551	3040.6979	3042.5312	3045.3767	3054.9358	3090.6166	3108.1686	3114.8344	3118.9421	3120.3531	3122.3862
CCOC(C)CCC#N	CCO[C@@H](C)CCC#N	
InChI=1S/C7H13NO/c1-3-9-7(2)5-4-6-8/h7H,3-5H2,1-2H3	InChI=1S/C7H13NO/c1-3-9-7(2)5-4-6-8/h7H,3-5H2,1-2H3/t7-/m0/s1
