15
gdb 45864	2.65458	1.85295	1.23017	1.4059	66.11	-0.2693	-0.0363	0.2331	969.9823	0.114529	-453.960419	-453.953215	-453.952271	-453.992333	27.142	
O	 0.0717644401	 0.0221189201	 0.3427991828	-0.331543
C	 0.0664564067	 1.1761411823	 0.018941216	 0.407645
O	-1.1171566889	 1.7690699515	-0.3474380133	-0.214759
C	-1.1269930035	 3.1047832579	-0.7201129482	 0.133466
N	-0.1512158067	 3.8410524402	-1.0044084343	-0.233342
C	 1.180824917	 3.2529923013	-0.9420091121	-0.240779
C	 1.2631662628	 2.0708989704	 0.004400843	 0.12979
C	 1.9979923942	 2.1289502062	 1.3119663832	-0.256982
N	 2.5653971721	 1.4254089108	 0.1667662472	-0.342279
H	-2.1543635071	 3.4542362141	-0.7632497775	 0.147492
H	 1.4655736557	 2.9398344341	-1.9559026667	 0.138876
H	 1.8976660134	 4.0241367835	-0.6472131545	 0.132723
H	 2.4894313971	 3.0607929725	 1.5790358798	 0.133747
H	 1.6050498747	 1.5484626745	 2.1415993072	 0.140194
H	 2.4114620324	 0.4228968808	 0.2734656974	 0.25575
88.3971	137.6562	263.3385	290.3619	332.6167	437.7375	481.0973	493.1261	582.0504	669.2576	758.6978	833.662	873.1812	938.7393	946.3032	955.1885	992.6892	999.7671	1047.808	1072.0345	1099.8331	1117.1213	1155.9356	1229.5929	1283.1605	1328.0113	1362.8605	1397.9325	1411.6778	1484.2151	1502.2172	1757.6231	1852.9437	3022.9424	3085.6173	3111.133	3191.567	3205.9085	3478.5362
O=C1OC=NCC11CN1	O=C1OC=NC[C@]21CN2	
InChI=1S/C5H6N2O2/c8-4-5(2-7-5)1-6-3-9-4/h3,7H,1-2H2	InChI=1S/C5H6N2O2/c8-4-5(2-7-5)1-6-3-9-4/h3,7H,1-2H2/t5-/m1/s1
