23
gdb 60414	4.00413	0.69419	0.68019	2.2226	82.97	-0.2425	0.0809	0.3235	1786.623	0.203752	-425.401452	-425.390939	-425.389995	-425.438891	37.036	
C	 0.216924644	 1.4813244743	 0.2119190079	-0.393375
C	-0.0046776032	-0.0163328502	-0.0199433397	 0.161384
C	-1.4681362401	-0.3422159546	-0.2975130454	-0.386711
O	 0.7322170246	-0.4964523953	-1.1415241866	-0.263257
C	 2.1189102492	-0.6542209923	-0.9373962762	-0.077303
C	 2.7049744771	-1.2809011628	-2.1878925906	-0.040501
C	 2.7902667075	-0.3513795508	-3.4172255112	-0.069782
O	 4.2329941985	-0.3147340354	-3.3448374417	-0.273149
C	 4.2465915721	-1.275347298	-2.2705032502	-0.090985
H	 1.2646424012	 1.7116473332	 0.4247801887	 0.117602
H	-0.0866781423	 2.0490093308	-0.6736707242	 0.122371
H	-0.3767381893	 1.8268020901	 1.0642755278	 0.115137
H	 0.3223185189	-0.5685508974	 0.8779174915	 0.062985
H	-1.809073207	 0.1833517474	-1.1952728243	 0.122982
H	-1.59611924	-1.4154453099	-0.4606939019	 0.119717
H	-2.0992890921	-0.0369509929	 0.5422745619	 0.112225
H	 2.6139722861	 0.3121331342	-0.7462868893	 0.092341
H	 2.3110031112	-1.297264763	-0.0604806494	 0.083789
H	 2.2291006457	-2.2455540353	-2.3750038303	 0.084325
H	 2.439720831	-0.7870625516	-4.361117595	 0.098702
H	 2.3416645377	 0.64142706	-3.2941925411	 0.105884
H	 4.775392932	-0.8972708617	-1.3850724777	 0.097191
H	 4.7028710773	-2.2265506889	-2.5735143931	 0.098428
26.8279	49.5641	77.5791	113.8424	160.7003	201.1359	242.8956	275.6279	302.3028	379.6076	420.8966	471.5732	509.5424	788.7633	839.2358	876.1491	887.3633	922.6547	926.443	931.6521	944.9554	980.5294	1036.3273	1063.035	1113.0039	1120.1467	1150.9921	1153.2891	1161.0024	1169.3141	1196.981	1201.9146	1246.5113	1281.97	1308.3291	1342.7326	1366.5934	1372.1462	1390.5463	1397.9135	1414.7206	1438.3764	1480.2183	1485.2056	1495.7259	1507.7246	1512.3291	1521.9195	1539.6696	2946.1433	2955.995	2981.7711	3000.9608	3018.2705	3037.0981	3041.3351	3042.8068	3060.3928	3094.2527	3107.9297	3112.0482	3116.4629	3122.8144
CC(C)OCC1COC1	CC(C)OCC1COC1	
InChI=1S/C7H14O2/c1-6(2)9-5-7-3-8-4-7/h6-7H,3-5H2,1-2H3	InChI=1S/C7H14O2/c1-6(2)9-5-7-3-8-4-7/h6-7H,3-5H2,1-2H3
