17
gdb 128659	2.32592	1.48629	0.91777	1.1115	73.33	-0.1924	0.0315	0.2239	1247.3353	0.135567	-455.148349	-455.139013	-455.138069	-455.182805	32.858	
C	-0.0785302306	 1.3411951595	 0.0980145366	-0.233789
O	-0.0503510521	-0.078422095	-0.0070889774	-0.287213
C	-1.2553922937	-0.6860691746	-0.0330620214	 0.356257
N	-2.4231110449	-0.0618804377	 0.0122026857	-0.368312
N	-3.3390555197	-1.0568798015	-0.0743230717	 0.031608
C	-4.7377529311	-0.7516267737	 0.1006219687	-0.316309
C	-2.7601504193	-2.2902734111	-0.147540108	-0.108667
C	-1.3987766826	-2.0880612745	-0.1330892878	 0.130329
O	-0.413432118	-3.0238896106	-0.2154660884	-0.454608
H	 0.9630333911	 1.6655079776	 0.1084616989	 0.125825
H	-0.6046747966	 1.7854702014	-0.7535605127	 0.133752
H	-0.5814562332	 1.6548205822	 1.0189968311	 0.133217
H	-5.3372716927	-1.5510010213	-0.3410362735	 0.135174
H	-5.0055191423	-0.6497469939	 1.1595906487	 0.134921
H	-4.9608045754	 0.1876421437	-0.4092600055	 0.149531
H	-3.3418196134	-3.1949606071	-0.2128378434	 0.134142
H	 0.4276386245	-2.5538265933	-0.1977511799	 0.30414
82.1666	97.0957	138.0855	172.8402	175.4978	266.7392	279.1011	297.1626	369.9088	377.5886	596.3575	603.2083	626.6046	633.4822	708.0056	766.4434	860.5854	1000.3516	1060.9233	1085.6413	1146.655	1173.0449	1181.6033	1209.8658	1241.1803	1294.9632	1357.9036	1427.6664	1456.694	1461.0944	1477.7407	1485.248	1493.8734	1504.4205	1525.2006	1582.7303	1670.2977	3023.9073	3030.1974	3095.3409	3100.6738	3141.5081	3142.576	3268.696	3815.9612
COC1=NN(C)C=C1O	COc1nn(C)cc1O	
InChI=1S/C5H8N2O2/c1-7-3-4(8)5(6-7)9-2/h3,8H,1-2H3	InChI=1S/C5H8N2O2/c1-7-3-4(8)5(6-7)9-2/h3,8H,1-2H3
