21
gdb 36534	3.64446	0.97834	0.82781	4.1942	83.81	-0.2347	0.0246	0.2593	1410.545	0.185131	-383.292833	-383.28427	-383.283326	-383.326284	32.701	
N	-0.0976847451	-1.1626010578	-0.0182451411	-0.310913
C	-0.0449388413	-0.0087766922	-0.0086572239	 0.275611
C	 0.0026306299	 1.4592089766	-0.0058700766	-0.28162
N	 1.3647804838	 1.9663816215	-0.0248550321	-0.067117
C	 2.0648970386	 1.6352543871	-1.2694418241	-0.145976
C	 3.5278049284	 2.0776154152	-1.2053709876	-0.200873
C	 3.6328688819	 3.5752335695	-0.8949132432	-0.190154
C	 2.8314821972	 3.90825363	 0.36906372	-0.203491
C	 1.3917160867	 3.4034988676	 0.2519846581	-0.132256
H	-0.6102321426	 1.8186176923	-0.8566793724	 0.12538
H	-0.4937124007	 1.8082089344	 0.9068863396	 0.149865
H	 2.0026550356	 0.5533720905	-1.4218514285	 0.125932
H	 1.5699557256	 2.1153210562	-2.1389673616	 0.075079
H	 4.0357370203	 1.5003463479	-0.4237463235	 0.109632
H	 4.0172590075	 1.8399714041	-2.1557456392	 0.097722
H	 4.6798118397	 3.8734913012	-0.7768651933	 0.097316
H	 3.233935456	 4.1515021245	-1.741122609	 0.094245
H	 3.2999179576	 3.4330674024	 1.2391927775	 0.108064
H	 2.8211444551	 4.9879814678	 0.5527386194	 0.096047
H	 0.8634793602	 3.9743542835	-0.5396208486	 0.076934
H	 0.8521182254	 3.5836132477	 1.1887025399	 0.100571
69.2923	106.1612	180.5341	240.864	303.1628	329.3251	386.6454	397.2603	403.4127	461.8234	517.1195	607.7528	791.2477	820.9094	864.133	871.4304	899.8803	950.5912	980.1483	1004.2203	1016.0867	1053.0504	1084.0549	1131.5779	1141.332	1179.315	1182.5835	1226.3488	1279.6334	1295.7725	1305.5668	1331.4667	1358.7013	1374.2584	1382.1727	1390.1242	1405.9076	1431.2059	1471.7633	1476.6285	1485.0579	1494.2922	1495.0122	1513.0192	2365.458	2889.1718	2895.8227	2909.7139	3015.3054	3033.1824	3036.5198	3053.3342	3061.041	3071.1017	3077.1239	3079.5792	3085.0566
N#CCN1CCCCC1	N#CCN1CCCCC1	
InChI=1S/C7H12N2/c8-4-7-9-5-2-1-3-6-9/h1-3,5-7H2	InChI=1S/C7H12N2/c8-4-7-9-5-2-1-3-6-9/h1-3,5-7H2
