18
gdb 76837	2.38894	1.70018	1.38846	2.5201	72.08	-0.2629	0.0101	0.273	1006.5445	0.147783	-439.068665	-439.060374	-439.05943	-439.101609	31.494	
C	 0.433845828	 1.578814548	 0.2498932898	-0.398858
C	 0.1213564845	 0.1062759969	 0.0376758017	-0.043985
C	 1.0216345674	-0.7143777339	-0.9705303688	 0.112203
O	 2.0856854685	-0.0768067742	-1.6162012158	-0.426914
C	 1.3634848808	-1.7240348588	 0.1746252787	-0.214093
C	 0.4874239127	-0.8989085002	 1.1561231154	 0.07788
O	 1.6939960971	-0.5014138594	 1.8933185202	-0.257269
C	 2.4974553641	-1.2022176608	 1.0208950596	 0.416738
N	 3.7506511752	-1.2702283455	 0.9380346143	-0.547597
H	 1.4677897502	 1.7275428248	 0.5680744036	 0.127255
H	 0.2862778121	 2.1336748623	-0.680897469	 0.128893
H	-0.2185998859	 2.0116729901	 1.0151624742	 0.116542
H	-0.9320040679	-0.0224737944	-0.2336214498	 0.081427
H	 0.4098724789	-1.1827437639	-1.7466644204	 0.094081
H	 2.8698964348	-0.1261043685	-1.0536447397	 0.298452
H	 1.3063180064	-2.7936726196	-0.011318904	 0.106568
H	-0.2712045087	-1.2953254388	 1.8287034931	 0.09593
H	 4.2030696219	-0.7231534942	 1.673338787	 0.232745
78.4503	135.7875	153.9703	209.6082	250.0883	351.9992	399.7086	453.2179	504.3241	557.5986	619.4619	744.6551	766.6139	776.1824	860.5354	873.428	892.8541	923.41	936.6443	988.2707	1022.9771	1041.1487	1084.9235	1126.4288	1152.8768	1175.3195	1189.7868	1209.2266	1244.8288	1265.2197	1297.1981	1339.2469	1342.0162	1356.7297	1413.2722	1440.6319	1488.4702	1495.2676	1800.0058	3043.5293	3047.568	3068.6229	3111.0465	3130.244	3132.4442	3151.519	3469.77	3752.2248
CC1C(O)C2C1OC2=N	C[C@H]1[C@@H](O)[C@@H]2[C@H]1O[C]2[NH]	
InChI=1S/C6H9NO2/c1-2-4(8)3-5(2)9-6(3)7/h2-5,7-8H,1H3	InChI=1S/C6H9NO2/c1-2-4(8)3-5(2)9-6(3)7/h2-5,7-8H,1H3/t2-,3+,4+,5-/m0/s1
