19
gdb 94642	3.22935	0.90831	0.79373	2.3524	78.22	-0.2513	0.0244	0.2756	1470.4399	0.157001	-422.961644	-422.952199	-422.951255	-422.99668	34.771	
O	 0.3420927344	 1.0459260345	-0.6640013646	-0.4357
C	 0.084483941	-0.0996829511	 0.0886124105	 0.151202
C	-0.3025697764	 0.0056602206	 1.5942802436	-0.253938
C	-1.3250215682	-1.1418458144	 1.3586312522	-0.25703
C	-1.2590870357	-0.8419091579	-0.1642398238	 0.097814
O	-2.1873107631	 0.1462299788	-0.5790529066	-0.279046
C	-3.4820394896	-0.3600722453	-0.8533569346	-0.20786
C	-4.3468995648	 0.7190562649	-1.310328921	 0.274655
C	-5.0780501601	 1.5925900791	-1.6897194219	-0.412771
H	-0.5173294554	 1.4535759766	-0.8335841575	 0.292985
H	 0.929867909	-0.7817699641	-0.0463487107	 0.08795
H	 0.4857028483	-0.1478531465	 2.3338144515	 0.099269
H	-0.8046073307	 0.9551967308	 1.7950732754	 0.11142
H	-0.9162136368	-2.1290660031	 1.5907793741	 0.106986
H	-2.3041260879	-1.048041789	 1.8333774768	 0.10648
H	-1.2707903148	-1.6884401989	-0.8647205453	 0.062861
H	-3.4236143183	-1.1456761075	-1.6249305451	 0.124731
H	-3.9160935254	-0.8276061413	 0.0443452915	 0.125874
H	-5.7212514256	 2.3677509838	-2.0264853544	 0.20412
46.9795	95.1337	100.4934	147.4734	220.6736	290.318	331.0032	381.8676	423.8835	427.979	509.6709	599.5083	612.4	678.8785	684.1177	740.1089	878.2709	899.7475	919.6186	957.9896	984.781	1015.0691	1033.3356	1087.3587	1099.1826	1131.208	1163.0044	1187.8995	1231.6682	1253.9901	1257.5951	1272.8135	1283.5933	1344.6605	1355.8198	1425.8782	1445.9263	1470.0913	1488.6219	1502.8528	2248.8089	2967.6258	2993.774	3004.0129	3060.7795	3067.4549	3071.1885	3113.4714	3131.6311	3505.6367	3769.459
OC1CCC1OCC#C	O[C@H]1CC[C@H]1OCC#C	
InChI=1S/C7H10O2/c1-2-5-9-7-4-3-6(7)8/h1,6-8H,3-5H2	InChI=1S/C7H10O2/c1-2-5-9-7-4-3-6(7)8/h1,6-8H,3-5H2/t6-,7+/m0/s1
