17
gdb 47816	2.15683	2.05735	1.20875	3.4666	68.55	-0.2462	-0.0321	0.2141	1013.8929	0.136725	-458.949709	-458.94214	-458.941196	-458.98218	28.888	
O	-0.0399836819	-0.0807757674	-0.1500353485	-0.290951
C	-0.0287927122	 1.1167493813	-0.0118801359	 0.361815
C	-1.3266327811	 1.9339897251	 0.0885339627	-0.164882
O	-1.5814271622	 2.3222332174	 1.4323326037	-0.225235
C	-0.7285017275	 3.2902983666	 1.971791295	 0.019324
O	 0.546898083	 2.7930935783	 2.3135270643	-0.236679
C	 1.4785765766	 2.8159321247	 1.2700057661	 0.095212
C	 2.3085717749	 1.5795059831	 1.0851889263	-0.309335
C	 1.2458992637	 1.9279973037	 0.0745964049	-0.162568
H	-1.2658162689	 2.8203353122	-0.5644888198	 0.096464
H	-2.1649096171	 1.3053685083	-0.2174081755	 0.131953
H	-0.6297468913	 4.1471326407	 1.2831228426	 0.08047
H	-1.1946723218	 3.6027469098	 2.9082924851	 0.124079
H	 1.9429542707	 3.7886241746	 1.1112165953	 0.094603
H	 3.3513333913	 1.6873669375	 0.8099313437	 0.121563
H	 2.0904183505	 0.7505264653	 1.7490122957	 0.146255
H	 1.5614478533	 2.3128800088	-0.8931979456	 0.117912
56.0547	171.2281	198.9181	284.977	338.2572	395.2259	446.3395	482.0326	574.031	622.5333	667.9787	774.91	817.9228	849.3116	933.5317	951.967	979.4449	1014.5652	1054.7551	1068.4461	1076.0693	1116.5162	1121.5816	1145.4947	1174.1257	1202.3677	1236.1544	1285.8246	1336.3959	1369.0049	1377.9535	1386.8942	1444.3528	1477.0496	1481.3785	1498.1716	1820.2806	2956.6433	2973.9163	3106.2636	3115.8512	3120.6317	3131.8217	3143.9013	3234.2209
O=C1COCOC2CC12	O=C1COCO[C@H]2C[C@@H]12	
InChI=1S/C6H8O3/c7-5-2-8-3-9-6-1-4(5)6/h4,6H,1-3H2	InChI=1S/C6H8O3/c7-5-2-8-3-9-6-1-4(5)6/h4,6H,1-3H2/t4-,6-/m0/s1
