19
gdb 85151	1.92841	1.67871	1.06157	2.2757	77.36	-0.2445	-0.0394	0.205	1190.9814	0.156244	-423.06075	-423.051129	-423.050185	-423.095982	34.683	
C	-1.1371511309	 1.2023278752	-0.1326188364	-0.422396
C	-0.2475190811	-0.0321596806	-0.0777829483	 0.016193
C	 1.1686756095	 0.02689063	-0.7348515852	-0.349581
C	 1.6921911892	-0.7945324108	 0.4379766757	 0.40771
O	 2.6605358847	-1.460048403	 0.6534193675	-0.293654
C	 0.3966276288	-0.5168497309	 1.2669233495	-0.246108
C	 0.7408100228	 0.4964023307	 2.3502463046	 0.379113
C	 1.1326266376	-0.1155571853	 3.6799801375	-0.480761
O	 0.778271754	 1.6893128396	 2.1460243532	-0.305326
H	-0.6287204916	 2.0802368921	 0.2653968961	 0.153857
H	-1.4324884757	 1.4014325392	-1.1685564989	 0.11251
H	-2.0538405527	 1.0498288754	 0.4471376728	 0.114105
H	-0.7902784613	-0.8874268996	-0.4942748976	 0.088697
H	 1.3173918824	-0.3786266834	-1.7381061476	 0.128059
H	 1.5874177741	 1.0394741777	-0.6898702697	 0.15127
H	-0.0261395933	-1.4182953807	 1.7181184845	 0.101989
H	 1.9120220745	-0.8697889344	 3.5190991566	 0.161001
H	 1.4920726399	 0.6594082669	 4.357725265	 0.142689
H	 0.275412559	-0.6309471079	 4.1278218606	 0.140632
35.818	83.5999	126.348	171.2046	196.845	229.7542	262.3653	357.1947	410.0389	442.2917	469.1288	587.3313	602.994	649.4821	736.4445	758.3057	877.5258	906.8834	924.7835	983.2199	989.9568	1046.0116	1075.8388	1080.1959	1131.8313	1153.3955	1169.6016	1198.4302	1231.0869	1274.4466	1330.5299	1374.8396	1382.6502	1409.2728	1435.2244	1465.0273	1474.661	1490.7741	1508.5449	1793.9008	1889.5963	3033.4486	3036.6103	3044.2347	3050.5453	3082.7816	3093.9791	3096.5582	3117.9525	3153.9457	3155.9617
CC1CC(=O)C1C(C)=O	C[C@H]1CC(=O)[C@H]1C(=O)C	
InChI=1S/C7H10O2/c1-4-3-6(9)7(4)5(2)8/h4,7H,3H2,1-2H3	InChI=1S/C7H10O2/c1-4-3-6(9)7(4)5(2)8/h4,7H,3H2,1-2H3/t4-,7+/m0/s1
