15
gdb 132050	2.30312	1.81839	1.02248	3.5724	72.26	-0.2179	-0.0326	0.1854	1074.593	0.113127	-461.99353	-461.985721	-461.984777	-462.026055	29.205	
C	-0.012188234	 1.5326468599	 0.0006556549	-0.485087
C	 0.0084580332	 0.0338932202	-0.0303908305	-0.041888
C	 0.1659812343	-0.7035253102	-1.1654197441	 0.273366
F	 0.3140364795	-0.0869809155	-2.3425792634	-0.073574
C	 0.1856485095	-2.1242221609	-1.1952993513	-0.293902
C	 0.0370363145	-2.7716119447	-0.0114040965	 0.044199
N	-0.1222800215	-2.066469129	 1.1399557339	-0.370877
C	-0.1507710046	-0.6616234014	 1.2381859821	 0.391028
O	-0.2999909477	-0.1293930308	 2.327329798	-0.390643
H	 0.1147578328	 1.951862036	-0.9978788452	 0.128623
H	-0.9554457303	 1.8929591697	 0.424388817	 0.144596
H	 0.7811165382	 1.9121077417	 0.6531848156	 0.1446
H	 0.314288681	-2.6525241411	-2.1284166178	 0.122119
H	 0.0370634271	-3.8503064443	 0.0792294241	 0.143738
H	-0.2332963521	-2.5432163998	 2.0237743532	 0.263702
90.974	134.2126	206.8368	266.124	275.7217	355.4173	486.6349	488.1109	528.0738	553.6213	636.6025	691.7059	713.346	761.8732	777.7302	851.1161	918.1047	933.2128	1061.2571	1100.6017	1103.9599	1181.3967	1222.101	1245.1776	1332.3749	1409.3618	1448.0095	1478.3583	1478.5558	1502.8345	1614.7362	1683.6644	1768.4976	3042.5414	3091.7302	3147.9407	3215.2163	3246.2449	3613.1445
CC1=C(F)C=CNC1=O	Cc1c(F)cc[nH]c1=O	
InChI=1S/C6H6FNO/c1-4-5(7)2-3-8-6(4)9/h2-3H,1H3,(H,8,9)	InChI=1S/C6H6FNO/c1-4-5(7)2-3-8-6(4)9/h2-3H,1H3,(H,8,9)
