17
gdb 81296	2.32143	1.7633	1.60105	4.4251	67.11	-0.2481	-0.0036	0.2445	944.396	0.137175	-458.978861	-458.971412	-458.970468	-459.010677	28.711	
C	-0.1585955443	 1.6248203924	 0.0107778133	-0.444586
C	 0.0323088405	 0.1171575538	-0.0137034028	 0.003698
C	 0.8282083846	-0.6095403096	-1.1267684749	 0.045504
C	 2.0972524274	 0.130676332	-1.5075720908	-0.077041
O	 2.834100477	 0.5476533586	-0.33767901	-0.244061
C	 2.3749851889	 0.196887926	 0.894256167	 0.454489
O	 2.9552923904	 0.5421272351	 1.8834794013	-0.331015
C	 1.0846472237	-0.6108452031	 0.8624282847	-0.082787
O	 1.220128153	-1.6302828429	-0.1648775323	-0.288845
H	 0.7838579756	 2.1683620285	-0.0987975983	 0.14401
H	-0.827159288	 1.9386462632	-0.7977246471	 0.125473
H	-0.6159727907	 1.9379290363	 0.9545217728	 0.135854
H	-0.9218949271	-0.4003880975	 0.1158749796	 0.102564
H	 0.3085562253	-1.0125063553	-2.0004944229	 0.093107
H	 2.7550098876	-0.5236178471	-2.0884902003	 0.133786
H	 1.8825317853	 1.0297632625	-2.0957827634	 0.121827
H	 0.8376009807	-1.002439833	 1.8489389441	 0.108025
119.4531	187.7121	203.1643	235.6947	313.3472	417.3675	445.954	497.6344	562.041	638.5151	752.8849	757.2123	815.7504	874.7347	891.8126	907.2691	974.2276	1002.0208	1040.1967	1056.9492	1073.944	1123.0787	1166.3286	1181.3795	1211.6975	1244.0263	1255.2136	1313.1426	1323.2335	1351.5077	1378.0519	1420.065	1425.1643	1495.2445	1498.5884	1506.4248	1866.2589	3040.0471	3043.2057	3073.1777	3083.645	3091.6572	3104.4052	3119.8524	3129.7545
CC1C2COC(=O)C1O2	C[C@H]1[C@H]2COC(=O)[C@@H]1O2	
InChI=1S/C6H8O3/c1-3-4-2-8-6(7)5(3)9-4/h3-5H,2H2,1H3	InChI=1S/C6H8O3/c1-3-4-2-8-6(7)5(3)9-4/h3-5H,2H2,1H3/t3-,4+,5+/m0/s1
