18
gdb 108781	2.63361	1.21637	0.85775	5.0112	76.7	-0.2115	-0.0441	0.1673	1309.5642	0.148322	-439.098827	-439.090068	-439.089124	-439.132677	32.155	
O	 0.0575058795	 1.4248118598	-0.0428445507	-0.405939
C	 0.0010636023	 0.017278441	 0.0094373536	-0.148753
C	-1.4215469213	-0.4595130062	 0.0513883397	 0.255053
C	-2.4711123241	 0.3727749373	 0.1355611589	-0.245523
C	-3.8591216695	-0.1223894056	 0.082731185	 0.364293
O	-4.8212952888	 0.6190858748	 0.1315121707	-0.33139
C	-4.0163665508	-1.6362365528	-0.0890698483	-0.282369
N	-2.9158910868	-2.4284165815	 0.4619302818	-0.290688
C	-1.6204504118	-1.9604864043	-0.01995245	-0.261857
H	 0.9800814093	 1.693027642	-0.0164182332	 0.295281
H	 0.4975355811	-0.4448246641	-0.8634338269	 0.106297
H	 0.5238003957	-0.378768846	 0.8991009114	 0.105838
H	-2.3342808186	 1.4459792546	 0.20068664	 0.123402
H	-4.9645216899	-1.9444383035	 0.3585482373	 0.128228
H	-4.0903845899	-1.8426540578	-1.1674258387	 0.126977
H	-2.9319821248	-2.3406935133	 1.4740322925	 0.222509
H	-1.4980005634	-2.284582118	-1.0661519962	 0.12683
H	-0.8303110382	-2.4721884963	 0.5433772032	 0.111812
73.534	116.7026	149.1848	189.2397	218.5694	266.7843	372.8425	428.3806	466.7486	479.717	509.8789	592.5442	659.3814	789.2565	843.0271	875.1278	913.9483	958.6915	965.1616	1028.6736	1072.7697	1093.7845	1149.4512	1158.7604	1198.1687	1222.4918	1255.7061	1261.4669	1315.5291	1328.1318	1339.7537	1387.0645	1452.4972	1457.291	1469.1398	1497.315	1498.3966	1693.4837	1776.3325	2936.6834	2950.2665	2983.3435	3005.6183	3047.2074	3104.0386	3208.204	3503.405	3842.2528
OCC1=CC(=O)CNC1	OCC1=CC(=O)CNC1	
InChI=1S/C6H9NO2/c8-4-5-1-6(9)3-7-2-5/h1,7-8H,2-4H2	InChI=1S/C6H9NO2/c8-4-5-1-6(9)3-7-2-5/h1,7-8H,2-4H2
