19
gdb 70474	3.4774	0.96616	0.8632	3.7637	76.62	-0.2429	-0.0217	0.2212	1377.406	0.156777	-422.994379	-422.985265	-422.984321	-423.029194	33.118	
C	-0.2196214183	 1.5625162335	 0.0116194412	-0.497503
C	-0.019670061	 0.0759544141	 0.0340939517	 0.245979
C	-0.7445834967	-0.8732124238	 0.9735353905	-0.351155
C	 0.750822787	-0.8466185551	 0.9542556566	 0.071221
O	 1.2510588042	-1.6445447249	-0.1236398456	-0.310179
C	 0.637613082	-0.7390338989	-1.0871269288	 0.08258
C	-0.2069010799	-1.4508397427	-2.141984466	-0.302252
C	 0.6092740632	-2.4578654501	-2.9279747477	 0.155363
O	 0.7711706399	-2.4195073697	-4.1210945701	-0.239498
H	 0.6643760803	 2.0780507806	-0.3799866449	 0.124215
H	-1.0752356816	 1.8416234513	-0.6149008045	 0.127089
H	-0.4129181958	 1.9485225381	 1.0173736396	 0.125132
H	-1.2114561141	-0.3772068722	 1.8195524849	 0.116602
H	-1.269418921	-1.7549772426	 0.6166744816	 0.11434
H	 1.4035870359	-0.6710469274	 1.8015921546	 0.107845
H	 1.4274625714	-0.1521070605	-1.5759714971	 0.092083
H	-1.0237422326	-1.9899533539	-1.6460390448	 0.117882
H	-0.6311981449	-0.7221015932	-2.839484385	 0.12188
H	 1.0669054018	-3.2578856726	-2.3074302863	 0.098379
50.8333	60.4573	152.4003	175.6402	198.6159	246.5233	310.7162	399.5928	450.2963	483.1369	535.6521	635.9069	735.1308	813.8476	843.0565	876.1562	895.0561	939.0903	973.5735	997.3816	1029.2042	1046.5194	1069.9188	1084.292	1101.2503	1115.5525	1134.746	1221.783	1245.2809	1249.5884	1289.3025	1303.2383	1376.6602	1408.2954	1421.3749	1426.0877	1452.6936	1487.0262	1487.935	1498.9034	1829.9454	2908.3164	3009.6285	3024.2977	3034.5911	3083.0544	3100.8453	3102.3024	3115.8233	3181.149	3204.6616
CC12CC1OC2CC=O	C[C@]12C[C@H]1O[C@H]2CC=O	
InChI=1S/C7H10O2/c1-7-4-6(7)9-5(7)2-3-8/h3,5-6H,2,4H2,1H3	InChI=1S/C7H10O2/c1-7-4-6(7)9-5(7)2-3-8/h3,5-6H,2,4H2,1H3/t5-,6+,7+/m0/s1
