21
gdb 81363	2.51596	1.61516	1.27391	1.6891	82.53	-0.2313	0.0064	0.2377	1101.7582	0.183423	-387.082964	-387.074752	-387.073808	-387.11514	32.912	
C	-0.029853468	 1.5588470953	-0.051678059	-0.425526
C	-0.0143528772	 0.0370384083	-0.0830460814	 0.015876
C	 1.2250936674	-0.5933270048	-0.7783577969	 0.033957
O	 1.9521272643	-0.4983636973	 0.4878573534	-0.302479
C	 0.6624248716	-0.6090058125	 1.1546402957	 0.073629
C	 0.3297033191	-2.10471816	 1.3223966216	-0.038777
C	-1.0705998228	-2.3385264616	 1.9081578372	-0.405708
C	 0.5220935023	-2.7786364176	-0.0258327264	-0.065381
C	 0.9515729218	-2.055786666	-1.0602711832	-0.075954
H	 0.9474403232	 1.9479598754	 0.2487693968	 0.132843
H	-0.2749687053	 1.9715656069	-1.0363251011	 0.112337
H	-0.7777197203	 1.9286102462	 0.6587028775	 0.112922
H	-0.9821952137	-0.3684717844	-0.3882306223	 0.071303
H	 1.7259560756	-0.0537905494	-1.5857793884	 0.070282
H	 0.6378141945	-0.0629962763	 2.1040926907	 0.067572
H	 1.0638501631	-2.5229720866	 2.0269119872	 0.089209
H	-1.8508398536	-1.9316834662	 1.2568648986	 0.120134
H	-1.2680464234	-3.4079524044	 2.0334813956	 0.117889
H	-1.1679980797	-1.8647735746	 2.891101095	 0.114955
H	 0.3065076187	-3.8410348006	-0.1065169033	 0.090176
H	 1.0988003921	-2.4666486899	-2.0534794273	 0.090741
153.2503	181.2094	219.6556	232.4919	250.7051	302.9858	391.4148	410.666	474.0293	518.2499	616.7126	700.7676	747.6225	802.6505	849.5197	875.2277	893.407	931.9015	949.3725	965.6455	973.596	1013.469	1042.1498	1067.4298	1081.8603	1104.2795	1122.5211	1150.2666	1159.7655	1216.5852	1245.8584	1281.7759	1290.4695	1310.6823	1339.4002	1347.8811	1383.9015	1400.5355	1402.1232	1414.1932	1491.6567	1495.8852	1500.9078	1502.8218	1691.5732	2994.2437	3028.9408	3031.4193	3050.0867	3072.5035	3083.6168	3091.1542	3098.6149	3105.5916	3114.0071	3155.3477	3188.5925
CC1C2OC1C(C)C=C2	C[C@H]1[C@H]2O[C@@H]1[C@@H](C)C=C2	
InChI=1S/C8H12O/c1-5-3-4-7-6(2)8(5)9-7/h3-8H,1-2H3	InChI=1S/C8H12O/c1-5-3-4-7-6(2)8(5)9-7/h3-8H,1-2H3/t5-,6-,7-,8+/m0/s1
