14
gdb 20982	4.79243	1.66889	1.26292	4.0017	60.8	-0.2371	-0.0563	0.1809	914.1446	0.106569	-411.977781	-411.97011	-411.969166	-412.010183	26.273	
C	-0.0358683182	 1.4234618816	 0.0812187572	-0.346807
N	-0.0037160114	-0.0130852929	-0.1514006912	-0.147538
C	 1.2561253626	-0.7014724578	 0.0780658635	-0.336125
C	-1.1455950535	-0.7357967893	-0.04931146	 0.543141
N	-1.2200267046	-2.0387242909	 0.1063527384	-0.228853
O	-2.5717286989	-2.2854950082	 0.0729785038	-0.145764
N	-3.246332737	-1.1037925679	-0.0770890624	 0.049407
N	-2.4102025898	-0.1651644618	-0.1504203017	-0.246539
H	 0.747869461	 1.8984112038	-0.5159759479	 0.133805
H	-1.0026069137	 1.8233171379	-0.2223490819	 0.172275
H	 0.1332766047	 1.6741225488	 1.1386654477	 0.126633
H	 1.4712261832	-0.8315727792	 1.1486262471	 0.130029
H	 1.224942469	-1.6878450572	-0.387840997	 0.164675
H	 2.0633249568	-0.1185064669	-0.3728689855	 0.131662
92.1213	119.3076	149.0311	183.5689	234.2503	350.0741	366.4798	513.7114	624.9169	644.1816	775.008	809.0825	928.8711	971.2954	1064.4935	1084.3547	1090.8324	1131.0726	1176.9961	1227.0626	1292.3871	1363.4895	1451.4987	1467.4325	1483.8005	1492.7187	1500.6039	1505.4268	1532.8515	1666.5761	2999.4469	3005.1524	3085.7106	3090.9488	3141.9861	3161.7248
CN(C)C1=NON=N1	CN(C)c1nonn1	
InChI=1S/C3H6N4O/c1-7(2)3-4-6-8-5-3/h1-2H3	InChI=1S/C3H6N4O/c1-7(2)3-4-6-8-5-3/h1-2H3
