19
gdb 46064	3.344	1.12738	1.0938	1.9419	74.64	-0.2466	-0.0253	0.2213	1194.4535	0.159135	-423.032568	-423.024174	-423.023229	-423.066741	31.32	
O	-0.0467576981	 0.5555921132	-1.0219640873	-0.296473
C	 0.0157918568	 1.5110867648	-0.2964387698	 0.373359
C	-1.1552522479	 2.3973189547	 0.123213079	-0.18142
O	-0.6387612449	 3.4099541138	 0.9599876379	-0.271413
C	 0.8056999631	 3.4417686454	 0.9297519887	 0.07994
C	 1.2570443446	 2.0771153288	 0.3874814076	-0.360997
C	 1.3217727947	 4.617550807	 0.120352881	 0.00957
C	 0.6226864388	 5.1049836856	-1.1247207696	-0.271415
C	 0.6007789163	 5.9372516264	 0.1350194397	-0.269393
H	-1.6430416577	 2.8057497608	-0.7737038602	 0.128374
H	-1.9028415326	 1.8059436621	 0.6675234054	 0.133581
H	 1.1194045606	 3.5742071155	 1.9716273662	 0.090444
H	 1.5405271099	 1.3891447022	 1.1918519116	 0.139254
H	 2.0911788045	 2.1292219756	-0.3151528636	 0.139897
H	 2.4084119821	 4.6640004686	 0.1056919755	 0.086304
H	 1.2343588202	 5.4349507593	-1.9569283901	 0.113074
H	-0.3064893149	 4.6307425754	-1.4173863894	 0.11823
H	-0.3372044784	 5.9766325008	 0.6764219279	 0.128649
H	 1.1894322028	 6.8470423201	 0.1683892195	 0.110436
40.5174	66.9647	128.2603	216.4509	229.8263	380.3012	446.7953	473.8266	539.1353	628.2873	706.0869	743.3718	785.7519	794.0499	823.2044	837.2584	906.7941	932.575	967.9934	1041.0589	1058.1817	1068.0664	1087.6579	1089.1254	1114.964	1138.5614	1168.5707	1187.008	1198.9018	1218.6946	1233.5915	1262.8252	1318.5785	1348.2377	1380.1807	1405.1999	1445.5108	1458.5249	1489.8891	1502.9367	1859.374	3002.7485	3032.2458	3044.4152	3057.0816	3118.8405	3132.0808	3139.912	3144.6932	3221.4149	3235.8317
O=C1COC(C1)C1CC1	O=C1CO[C@@H](C1)C1CC1	
InChI=1S/C7H10O2/c8-6-3-7(9-4-6)5-1-2-5/h5,7H,1-4H2	InChI=1S/C7H10O2/c8-6-3-7(9-4-6)5-1-2-5/h5,7H,1-4H2/t7-/m0/s1
