21
gdb 73356	2.41551	1.95586	1.5795	1.5006	80.31	-0.2365	0.0812	0.3176	973.9879	0.185022	-387.103647	-387.096135	-387.095191	-387.135233	30.981	
C	 0.0395372425	 1.4929465921	 0.1082065138	-0.453328
C	-0.0094425696	-0.0180068061	-0.0539807983	 0.385654
C	 0.5779537172	-0.5424014581	-1.3837420762	-0.216405
C	 0.0178925554	-1.9772457468	-1.5319200881	-0.248835
C	-1.2826921432	-1.9658653196	-0.7237586677	-0.051518
C	-1.2144823432	-1.9142128017	 0.7923166732	-0.071184
C	 0.1433399911	-1.8229920547	 1.4634569839	-0.101247
O	 0.7340561258	-0.5998676565	 1.0384698215	-0.307068
C	-1.4133727639	-0.6498602855	 0.0085796105	-0.120796
H	 1.0750910374	 1.8449434807	 0.0863167564	 0.123424
H	-0.5092336123	 1.9893708164	-0.6979344379	 0.111311
H	-0.397967781	 1.788748207	 1.0658256399	 0.1193
H	 0.2125842137	 0.0811652319	-2.2081238366	 0.091433
H	 1.6701322928	-0.4923778588	-1.3798692237	 0.099539
H	-0.178377715	-2.2287397803	-2.5777502811	 0.096557
H	 0.7251127141	-2.7264877709	-1.1582432672	 0.104578
H	-2.1603093472	-2.4429835215	-1.1463341816	 0.080816
H	-2.0327361071	-2.358351559	 1.3481904203	 0.086976
H	 0.0378764219	-1.8037492092	 2.5560097034	 0.097704
H	 0.7994730042	-2.6692180501	 1.2089446133	 0.092544
H	-2.3098960536	-0.0436873094	 0.0448388921	 0.080546
101.9793	218.9514	239.7126	274.3984	331.2791	399.4117	441.7194	574.2809	602.9022	685.9136	727.9187	759.1865	784.8464	807.0009	843.2079	869.8394	909.5421	944.4817	968.3132	978.1785	1002.3601	1033.448	1049.3451	1062.7897	1078.1073	1100.4613	1137.6688	1157.2118	1174.435	1194.235	1223.6308	1227.2437	1245.2448	1298.0923	1317.0141	1335.8701	1361.8887	1372.1543	1407.4224	1410.5867	1476.1479	1485.2772	1495.8618	1504.6122	1531.0828	2984.5709	3028.2539	3035.8311	3040.6999	3042.225	3083.7306	3100.7423	3114.4367	3116.6381	3162.3662	3171.5965	3188.8673
CC12CCC3C(CO1)C23	C[C@@]12CC[C@H]3[C@@H](CO1)[C@@H]23	
InChI=1S/C8H12O/c1-8-3-2-5-6(4-9-8)7(5)8/h5-7H,2-4H2,1H3	InChI=1S/C8H12O/c1-8-3-2-5-6(4-9-8)7(5)8/h5-7H,2-4H2,1H3/t5-,6+,7-,8-/m0/s1
