19
gdb 80145	2.30474	1.73045	1.5016	1.8773	76.8	-0.2141	0.0066	0.2207	1004.7185	0.158883	-423.007714	-422.999285	-422.998341	-423.040084	32.971	
C	-0.0959717173	 1.4801534193	-0.0175568712	-0.445665
C	 0.0332255837	-0.0210586316	 0.0004689001	 0.399784
O	-1.1525698256	-0.5876207633	-0.4843621133	-0.308445
C	-1.3530292005	-1.9944004026	-0.3857511761	-0.110474
C	-0.8055399149	-2.6012480832	 0.8744409006	-0.124212
C	 0.1367494168	-1.9900671616	 1.5994204379	-0.066515
C	 0.7308379221	-0.7103733751	 1.166052124	-0.223288
C	 1.3752904379	-0.659513451	-0.2378922266	 0.031117
O	 1.5126899529	-1.8170220108	-0.9994557691	-0.424969
H	 0.8266854226	 1.9539351642	 0.3284131536	 0.114667
H	-0.3051858257	 1.8296860895	-1.0335707625	 0.129776
H	-0.9160037467	 1.8021235363	 0.6319085975	 0.125684
H	-2.4404959625	-2.1330624163	-0.4222367244	 0.113356
H	-0.9337405378	-2.4950909201	-1.2712027219	 0.118053
H	-1.2272362363	-3.5521354566	 1.1864311178	 0.099534
H	 0.498087756	-2.4334894713	 2.5228816997	 0.097127
H	 1.1894868224	-0.099398811	 1.9367424435	 0.088679
H	 2.2262395613	 0.0106929798	-0.3481041673	 0.09751
H	 1.3723215515	-2.5766531946	-0.4191246023	 0.288281
143.6317	188.4632	203.5598	216.8369	239.2036	298.9399	315.5848	411.3056	483.1059	510.4609	576.6775	640.7898	666.0727	753.165	785.2603	819.9915	842.4055	921.2174	955.1952	985.1006	1000.0804	1037.7159	1065.8133	1083.9377	1115.7586	1130.5972	1151.9186	1199.52	1228.912	1268.8743	1270.4288	1340.4566	1371.5706	1405.32	1413.1373	1421.8477	1445.1896	1478.3594	1496.3346	1502.7405	1699.4062	2989.8917	3038.0206	3044.7069	3106.8042	3112.5992	3120.1824	3152.1178	3162.5798	3182.211	3747.3877
CC12OCC=CC1C2O	C[C@]12OCC=C[C@H]1[C@H]2O	
InChI=1S/C7H10O2/c1-7-5(6(7)8)3-2-4-9-7/h2-3,5-6,8H,4H2,1H3	InChI=1S/C7H10O2/c1-7-5(6(7)8)3-2-4-9-7/h2-3,5-6,8H,4H2,1H3/t5-,6+,7-/m0/s1
