18
gdb 17333	3.48293	2.15377	1.76305	2.6368	71.04	-0.2197	0.0712	0.2909	821.7036	0.15594	-343.938701	-343.931903	-343.930959	-343.969137	27.715	
C	-0.0107597113	 1.5477574913	 0.0228333774	-0.504692
C	 0.1048241796	 0.0461819061	-0.0226096145	 0.356187
N	-0.5900575839	-0.7910829963	 0.9783000425	-0.34587
C	 0.8878343409	-0.7660170002	 0.9533119849	-0.091137
C	 1.5411823455	-1.9506829979	 0.2404700892	-0.218718
C	 1.1249802457	-1.821870835	-1.2270391356	-0.038794
N	-0.3183625984	-1.9877243015	-1.4802618416	-0.309712
C	 0.2485694491	-0.62779312	-1.3807634895	-0.101592
H	 0.7698526187	 2.0252209327	-0.5805303406	 0.121604
H	-0.9802395658	 1.8834779425	-0.363984293	 0.126577
H	 0.0885777138	 1.9190235709	 1.0481984914	 0.113724
H	-0.912501058	-0.1892922301	 1.7346749719	 0.219183
H	 1.4092937279	-0.3030515122	 1.7870279581	 0.07786
H	 2.6311815703	-1.8715131458	 0.3201587123	 0.095087
H	 1.2366613445	-2.9094936868	 0.6707381988	 0.118459
H	 1.8257333074	-2.1248303101	-1.9996558988	 0.081052
H	-0.4543239314	-2.2124974131	-2.463952829	 0.224977
H	 0.2751837154	 0.0016639756	-2.2646365038	 0.075805
193.1296	218.3614	255.8783	313.6991	361.6408	440.3104	533.3606	590.3511	692.5505	726.1735	803.595	840.8821	852.721	853.8483	894.44	915.8781	950.5398	974.6986	1003.1952	1051.4588	1068.4328	1089.4257	1123.1812	1131.0378	1153.58	1186.8473	1208.9686	1242.4682	1285.9556	1304.6671	1332.7426	1374.5722	1415.5815	1424.5296	1448.0267	1466.4973	1486.1974	1501.2296	3021.6759	3045.0593	3082.4726	3092.9386	3095.6484	3139.6602	3146.0081	3160.4956	3471.8655	3483.2569
CC12NC1CC1NC21	C[C@]12N[C@H]1C[C@H]1N[C@@H]21	
InChI=1S/C6H10N2/c1-6-4(8-6)2-3-5(6)7-3/h3-5,7-8H,2H2,1H3	InChI=1S/C6H10N2/c1-6-4(8-6)2-3-5(6)7-3/h3-5,7-8H,2H2,1H3/t3-,4+,5-,6+/m1/s1
