21
gdb 123206	10.22267	0.42025	0.40882	2.2172	84.07	-0.2534	0.0329	0.2863	2611.0435	0.178413	-424.163152	-424.15189	-424.150946	-424.201224	37.986	
C	-0.0365048749	 1.3432135399	-0.036496254	-0.228436
O	 0.0061785383	-0.062206272	-0.0059995962	-0.228524
C	 0.6770034333	-0.5666491626	 1.1265149558	-0.050655
C	 0.6622067332	-2.0877720235	 1.0547837149	-0.214866
C	 1.3662788905	-2.7307387484	 2.2405865984	-0.042117
O	 1.3016646092	-4.1345479013	 2.0865398958	-0.244014
C	 1.9331956711	-4.8221020963	 3.147091119	-0.206463
C	 1.8372688077	-6.2609570596	 2.938443841	 0.280096
C	 1.77319039	-7.4509491653	 2.7920589435	-0.41336
H	 0.9732609056	 1.7838452745	-0.0623741403	 0.102247
H	-0.5714965969	 1.635336375	-0.9433854625	 0.127887
H	-0.5661808442	 1.75661164	 0.8370026044	 0.102247
H	 1.7150441169	-0.1895554063	 1.1569157031	 0.083388
H	 0.1843067373	-0.2168521104	 2.0514760501	 0.083381
H	-0.3742879247	-2.4379825255	 1.0159596609	 0.120553
H	 1.1465144074	-2.4109239932	 0.1276940358	 0.120554
H	 2.4189154389	-2.4010688376	 2.2945913812	 0.086883
H	 0.8875339968	-2.4287138597	 3.1888588702	 0.086888
H	 2.9950335721	-4.5286914839	 3.2207119822	 0.116992
H	 1.4678045867	-4.5561481168	 4.1123302944	 0.116994
H	 1.7124542856	-8.5023409268	 2.6557754923	 0.200324
38.7221	68.2306	68.3195	98.4888	127.3463	146.6237	155.9516	238.5324	273.8509	295.2065	334.2242	418.4141	509.9196	569.9737	608.1415	675.996	780.7493	892.6104	965.901	982.812	1020.2305	1032.1881	1065.5054	1108.1942	1145.2047	1169.3676	1170.4888	1194.1256	1228.8048	1236.686	1255.8085	1298.5421	1303.9199	1305.937	1388.4611	1430.5805	1453.3399	1483.0601	1486.0081	1495.9359	1499.3822	1506.0416	1527.4205	1536.3997	2248.7297	2934.1278	2941.836	2951.9764	2958.379	2964.5301	2967.4419	2969.4883	3008.7061	3055.3815	3102.0098	3114.0458	3505.9772
COCCCOCC#C	COCCCOCC#C	
InChI=1S/C7H12O2/c1-3-5-9-7-4-6-8-2/h1H,4-7H2,2H3	InChI=1S/C7H12O2/c1-3-5-9-7-4-6-8-2/h1H,4-7H2,2H3
