18
gdb 47033	3.1006	1.50989	1.23302	2.4029	72.59	-0.2562	0.0259	0.282	1035.9469	0.150067	-439.086977	-439.079603	-439.078659	-439.119127	28.677	
N	-0.0456957391	 1.2081948583	-0.4149410826	-0.512206
C	 0.0453663674	 0.0342809996	 0.047914678	 0.390593
C	-1.0727057728	-0.9676646999	-0.0893136507	-0.294494
C	-1.235024986	-1.807626053	 1.183974257	-0.233034
C	 0.0646751466	-2.5313135615	 1.4788064752	 0.101266
O	 0.4112600873	-3.4954149249	 0.4522104256	-0.294271
C	 1.6130969437	-2.7786861598	 0.0982567272	-0.103998
C	 1.3349749286	-1.7024898341	 1.1671631089	 0.063577
O	 1.1678363212	-0.3617240603	 0.7346758027	-0.25991
H	 0.8133749665	 1.7287364537	-0.2238736868	 0.217271
H	-1.9764913606	-0.4148882975	-0.346092693	 0.136338
H	-0.8554001062	-1.6432752138	-0.9253781508	 0.139645
H	-1.4943668496	-1.169585707	 2.037605954	 0.114315
H	-2.0395715797	-2.5401977762	 1.064669418	 0.120244
H	 0.0563228195	-3.0007889114	 2.4692562148	 0.082178
H	 2.5151153195	-3.3809711786	 0.2572990431	 0.111603
H	 1.5969420704	-2.4129545061	-0.9355163807	 0.11561
H	 2.0724762331	-1.6494628374	 1.9680328401	 0.105273
81.1338	119.5434	210.894	332.124	384.9561	424.5178	460.6523	527.0025	599.3155	687.0392	736.4603	804.552	841.9399	876.5356	911.3481	928.298	944.0883	972.8187	1016.904	1063.0116	1074.9257	1077.9686	1094.6377	1155.5619	1176.3786	1184.8386	1224.4251	1258.5001	1292.2654	1306.4273	1334.6745	1359.6394	1373.5274	1381.9792	1417.7126	1472.8073	1480.1425	1516.1336	1754.2028	3020.965	3031.1959	3044.8431	3049.8877	3069.1508	3089.0519	3113.2369	3133.739	3459.8506
N=C1CCC2OCC2O1	[NH][C]1CC[C@H]2OC[C@H]2O1	
InChI=1S/C6H9NO2/c7-6-2-1-4-5(9-6)3-8-4/h4-5,7H,1-3H2	InChI=1S/C6H9NO2/c7-6-2-1-4-5(9-6)3-8-4/h4-5,7H,1-3H2/t4-,5-/m1/s1
