23
gdb 114075	3.21205	1.11659	0.99634	1.2561	85.64	-0.261	0.079	0.34	1307.9122	0.207017	-388.284594	-388.275742	-388.274798	-388.317761	35.183	
C	-0.0132094338	 1.5370149147	-0.0393129173	-0.497093
C	 0.0286702752	 0.0281700344	 0.031999382	 0.355696
C	 0.95451059	-0.8288692467	-0.8904893026	-0.262243
C	 0.7091015345	-1.914289673	 0.1953352593	-0.044093
C	 0.7058777876	-0.7355631251	 1.2125004506	-0.261653
C	-0.7940263138	-2.209395477	-0.0060762505	 0.05341
C	-1.4428336764	-3.0504058263	 1.0815858711	-0.109187
O	-2.8203112921	-3.1910876884	 0.7546352537	-0.42285
C	-1.3097603931	-0.7349650164	-0.0933404141	-0.253395
H	 0.9873931561	 1.971251906	 0.0612571338	 0.108824
H	-0.4299244211	 1.8758256801	-0.9952166787	 0.11344
H	-0.6401922523	 1.9540061918	 0.7578002949	 0.112748
H	 0.6184104938	-1.0357961819	-1.9120574552	 0.083639
H	 1.9852184357	-0.4644218988	-0.898661731	 0.088447
H	 1.3755948252	-2.7707080448	 0.310070216	 0.052984
H	 1.7136983997	-0.3660817089	 1.4200911651	 0.089736
H	 0.1500183275	-0.8401931221	 2.1492691524	 0.083806
H	-0.9540070978	-2.7326474522	-0.9555441266	 0.072682
H	-0.9468177777	-4.0338056529	 1.134234515	 0.080289
H	-1.3201095596	-2.5688301535	 2.0644434435	 0.081613
H	-3.2472611965	-3.6856430883	 1.4599841927	 0.284694
H	-2.003730584	-0.4925963321	 0.7180960791	 0.095751
H	-1.8203993472	-0.5221372885	-1.0372351132	 0.092755
92.3559	153.9848	179.3984	218.5658	270.321	294.61	321.1592	387.8258	437.0338	471.4855	527.5307	588.4945	678.7928	818.0618	830.3764	840.1544	867.0306	917.7399	926.4609	934.8035	986.282	992.0656	1025.5469	1039.5948	1046.516	1062.6215	1082.7783	1120.0827	1142.0265	1164.6291	1190.3452	1218.4529	1230.8663	1242.7427	1255.7917	1258.1623	1277.0145	1288.5576	1316.7661	1350.1043	1381.3264	1412.7296	1459.8265	1488.9128	1490.9212	1493.6449	1496.5912	1517.7537	1530.7465	2960.521	2991.1085	3019.4726	3039.1816	3041.4388	3046.1846	3051.9384	3081.4697	3089.038	3089.5319	3098.6633	3102.799	3108.5354	3830.6563
CC12CC(C1)C(CO)C2	C[C@@]12C[C@@H](C1)[C@@H](CO)C2	
InChI=1S/C8H14O/c1-8-2-6(3-8)7(4-8)5-9/h6-7,9H,2-5H2,1H3	InChI=1S/C8H14O/c1-8-2-6(3-8)7(4-8)5-9/h6-7,9H,2-5H2,1H3/t6-,7-,8+/m1/s1
