17
gdb 85775	2.67932	1.25112	1.03038	5.3697	70.45	-0.2374	-0.0343	0.2031	1195.7608	0.134907	-455.176158	-455.166937	-455.165993	-455.210889	33.289	
C	-0.9301628249	 1.1926737251	-0.5309995161	-0.390519
C	-0.0883953572	-0.0470121796	-0.273273642	-0.064025
N	 1.183446295	-0.1575849254	-1.0536992216	-0.355547
C	 2.0095831346	-0.4402835435	 0.1506043128	-0.194797
C	 3.2493326176	 0.4323767237	 0.3657522178	 0.393838
N	 3.3162524163	 1.4878636162	-0.4837537348	-0.520635
O	 4.0452482985	 0.1863632391	 1.2480997625	-0.359363
C	 0.7644199057	-0.0910064806	 1.0082643608	 0.378549
O	 0.556090176	 0.1007957349	 2.1641344242	-0.269456
H	-0.316700363	 2.0951819287	-0.4625068765	 0.12802
H	-1.3818387502	 1.15669867	-1.527066461	 0.124269
H	-1.7326728964	 1.2598892764	 0.2096817217	 0.138857
H	-0.7101138487	-0.9528182397	-0.3324969603	 0.105323
H	 1.186581853	-0.9031738629	-1.7400534629	 0.231569
H	 2.3096496428	-1.4842482703	 0.2986527773	 0.125778
H	 2.6433093216	 1.5518606521	-1.231266585	 0.265618
H	 4.1133262194	 2.0999214059	-0.4428064768	 0.26252
51.5839	65.8673	132.4631	193.4026	202.909	274.18	318.7321	382.7514	428.7327	477.6997	526.0091	592.5711	647.4269	662.1319	710.129	807.6911	846.1459	890.4255	949.3879	1006.8643	1040.6223	1058.879	1079.0307	1091.7019	1138.588	1150.1488	1242.058	1294.1595	1338.4665	1363.7805	1372.4345	1402.604	1485.0299	1493.6038	1580.4686	1809.2171	1922.6539	2999.2312	3041.3933	3050.6614	3114.969	3123.6329	3545.5971	3581.5767	3729.6945
CC1NC(C(N)=O)C1=O	C[C@H]1N[C@@H](C(=O)N)C1=O	
InChI=1S/C5H8N2O2/c1-2-4(8)3(7-2)5(6)9/h2-3,7H,1H3,(H2,6,9)	InChI=1S/C5H8N2O2/c1-2-4(8)3(7-2)5(6)9/h2-3,7H,1H3,(H2,6,9)/t2-,3-/m1/s1
