12
gdb 11157	6.53039	1.32146	1.10673	2.088	68.1	-0.2715	-0.0872	0.1843	972.0673	0.085465	-377.55738	-377.55084	-377.549896	-377.588313	23.673	
N	-0.0270780978	 1.3026065929	 0.0104862809	-0.538279
C	-0.030452565	 0.0387246545	 0.0032310656	 0.443213
O	 1.0844597697	-0.7685700379	-0.007082706	-0.245639
C	 0.7000217343	-2.1400934129	-0.0124975245	-0.175566
C	-0.813201463	-2.1052714086	-0.0042255981	 0.180646
C	-1.2148830263	-0.8272739709	 0.005353205	-0.270684
C	-1.6075295517	-3.2775563743	-0.0062856904	 0.222655
N	-2.2250182078	-4.2573136082	-0.0085098109	-0.313612
H	 0.9266970072	 1.6668620732	 0.007321226	 0.234942
H	 1.1008708266	-2.6330507307	-0.9064686164	 0.150769
H	 1.1104399752	-2.6428097406	 0.8716487851	 0.150794
H	-2.2236656615	-0.4442022465	 0.0132522135	 0.160761
129.4828	153.7566	199.2341	347.586	427.0605	510.6439	568.9493	574.6368	688.1769	697.0033	873.2115	896.7864	916.0316	937.1723	1028.5632	1029.9393	1091.3424	1166.579	1199.6332	1244.6604	1324.0641	1385.2536	1502.4544	1667.414	1757.1284	2344.0373	3029.9357	3066.9464	3269.4428	3487.7523
N=C1OCC(=C1)C#N	[NH]C1=C[C](CO1)C#N	
InChI=1S/C5H4N2O/c6-2-4-1-5(7)8-3-4/h1,7H,3H2	InChI=1S/C5H4N2O/c6-2-4-1-5(7)8-3-4/h1,7H,3H2
