18
gdb 112319	2.98585	1.22155	0.94904	4.3139	71.93	-0.2311	-0.0154	0.2157	1220.288	0.148332	-439.080298	-439.071993	-439.071049	-439.113498	31.336	
O	-0.0037533663	 1.3839342532	-0.1011899887	-0.421991
C	 0.0343112669	-0.0345150883	-0.0476676155	-0.090508
C	-1.3998393764	-0.5322028166	 0.0670669743	 0.020276
C	-2.3023805426	-0.1499697294	-1.1315870087	-0.341669
C	-3.286001825	-1.3148260698	-1.2932197838	 0.441781
O	-4.3988332685	-1.2617703319	-1.751230233	-0.325321
C	-2.6422951137	-2.5292651869	-0.6816568892	-0.16761
N	-1.232428866	-2.6949669368	-1.1510720096	-0.33234
C	-1.4962334013	-2.0551114719	 0.1436523835	-0.067168
H	 0.8874752553	 1.7045559334	-0.2662395576	 0.288782
H	 0.4897408832	-0.463524891	-0.9525312013	 0.104777
H	 0.619375494	-0.384633174	 0.81931069	 0.080283
H	-1.8331755281	-0.1171415952	 0.9853947255	 0.090845
H	-2.8364860391	 0.7909130246	-0.9994858276	 0.135035
H	-1.714049198	-0.0681729834	-2.0522543833	 0.141022
H	-3.2390760542	-3.4025605593	-0.4477788055	 0.106319
H	-0.9721013802	-3.6674815329	-1.0023810683	 0.241508
H	-1.2151901	-2.5710003238	 1.0566233788	 0.095979
90.4666	111.6574	150.7339	217.0874	265.4637	326.5744	407.287	453.8786	479.843	530.4983	645.3721	666.4068	804.6946	825.2261	855.2174	878.198	912.8942	920.896	979.2084	1030.0548	1070.0057	1079.696	1100.9168	1118.7515	1145.9332	1189.593	1194.8606	1235.2817	1257.3997	1260.8597	1277.5715	1329.3892	1353.051	1365.2838	1407.724	1451.9423	1457.6142	1524.718	1845.5825	2960.0933	3008.2494	3040.1671	3061.1183	3137.2904	3159.1511	3195.4895	3497.3608	3833.4447
OCC1CC(=O)C2NC12	OC[C@H]1CC(=O)[C@H]2N[C@@H]12	
InChI=1S/C6H9NO2/c8-2-3-1-4(9)6-5(3)7-6/h3,5-8H,1-2H2	InChI=1S/C6H9NO2/c8-2-3-1-4(9)6-5(3)7-6/h3,5-8H,1-2H2/t3-,5+,6-/m1/s1
