22
gdb 59817	4.26288	0.65951	0.63337	2.6656	87.98	-0.2431	0.0265	0.2696	1890.8225	0.191688	-404.331742	-404.321427	-404.320483	-404.368211	37.482	
C	 0.9050849532	 1.3703575169	-0.0590679585	-0.365129
C	-0.0932102432	 0.2194617257	 0.1350336411	 0.081758
C	 0.2979837876	-1.0011327295	-0.7100732387	-0.402867
N	-0.2646639252	 0.0114000615	 1.5695457381	-0.231763
C	-0.0417098884	-1.1058287347	 2.0969583924	 0.114367
O	-0.1964888126	-1.2576092287	 3.4377733776	-0.210502
C	 0.0133411618	-2.5592358498	 3.9258849025	 0.122621
C	 1.4216239851	-3.0272328323	 4.1812846761	-0.287194
C	 0.5087615376	-2.6507526939	 5.3303703309	-0.279853
H	 1.9073039636	 1.0666720467	 0.2632462887	 0.110952
H	 0.9584213947	 1.6669826131	-1.1114217832	 0.105325
H	 0.6063467785	 2.2355435773	 0.5375024339	 0.127255
H	-1.0694911211	 0.5740122591	-0.2258644306	 0.088109
H	 1.2873301576	-1.3840922437	-0.4340232685	 0.114357
H	-0.4258217139	-1.8168690992	-0.6116154832	 0.113198
H	 0.3376125249	-0.7200283719	-1.7667073036	 0.113892
H	 0.2790613629	-2.0219452317	 1.5877987961	 0.080946
H	-0.7245574946	-3.2815231812	 3.5837488746	 0.100872
H	 1.6564668501	-4.0728637477	 4.0161136044	 0.118787
H	 2.219853305	-2.3350510266	 3.9387516357	 0.128529
H	 0.7058093101	-1.7099301599	 5.83067446	 0.136208
H	 0.1116123662	-3.4334509097	 5.966027974	 0.120131
36.4525	52.1435	114.1568	120.7815	220.5366	242.3427	259.0832	305.602	315.6581	383.4164	427.2531	477.5381	514.6852	581.9471	758.6169	809.7595	822.1623	861.1434	920.9858	946.9177	957.9423	977.1808	988.1919	1022.8994	1056.4349	1076.1316	1125.3744	1127.1754	1154.1865	1186.7635	1192.1939	1194.3655	1215.1623	1257.6845	1340.2336	1365.1842	1382.7519	1391.8014	1409.4106	1420.4631	1455.3619	1484.2252	1489.6667	1496.3745	1500.0563	1510.9659	1773.2014	2997.4757	3026.8541	3034.8275	3052.3147	3094.557	3101.4059	3107.4092	3125.477	3127.1686	3139.2907	3147.228	3224.8421	3239.8742
CC(C)N=COC1CC1	CC(C)N=COC1CC1	
InChI=1S/C7H13NO/c1-6(2)8-5-9-7-3-4-7/h5-7H,3-4H2,1-2H3	InChI=1S/C7H13NO/c1-6(2)8-5-9-7-3-4-7/h5-7H,3-4H2,1-2H3
