21
gdb 86263	1.76105	1.64429	1.1302	3.1419	83.35	-0.2648	0.0306	0.2954	1214.3779	0.18241	-383.281945	-383.272117	-383.271172	-383.316005	37.162	
C	-0.6235304233	 0.8802237129	-1.5984922021	-0.433942
C	 0.3426156541	-0.1689595319	-1.0757418932	 0.033938
C	 1.8632744415	-0.0231768215	-1.3429991661	-0.261058
C	 2.1377325081	-0.6096556011	 0.0661877364	 0.033909
C	 3.2962746228	-0.0821336342	 0.8950433803	-0.433968
C	 0.666472048	-0.217676492	 0.4633176672	 0.09751
N	 0.6159200152	 1.1157654186	 1.0572708065	-0.53915
C	-0.075424278	-1.2165979013	 1.2438252451	 0.214552
N	-0.6649922751	-1.9895811956	 1.8720935798	-0.349771
H	-0.3271134319	 1.8831243501	-1.2794911717	 0.131685
H	-0.6373685834	 0.8665038563	-2.6934576232	 0.123677
H	-1.647658355	 0.6932757007	-1.2557320469	 0.121406
H	 0.0132453999	-1.1673792179	-1.3793115754	 0.091947
H	 2.2767803464	-0.5590464764	-2.1998304097	 0.100502
H	 2.1584009827	 1.0280282936	-1.4013161666	 0.114875
H	 2.1870194358	-1.7010367773	 0.0034514454	 0.091963
H	 3.2474293505	 1.0056597315	 0.9937743727	 0.131676
H	 3.3096513711	-0.523496542	 1.898189812	 0.121417
H	 4.247719824	-0.3333025284	 0.4144385579	 0.123694
H	-0.3493615041	 1.4208369315	 1.1443030653	 0.242575
H	 0.9962449009	 1.0910157343	 1.9991581361	 0.242562
102.6296	118.1199	171.3086	211.9604	216.0008	256.1243	269.9651	307.451	318.4982	356.6176	461.9577	484.3848	526.1841	577.3251	586.2498	690.411	830.0447	873.413	887.6861	892.5834	912.9875	969.4871	1000.0406	1054.8418	1095.3457	1096.3558	1160.9732	1182.3874	1195.2986	1221.5352	1251.2613	1274.0508	1287.3753	1318.001	1365.3681	1391.3219	1405.5307	1412.9896	1487.1824	1492.6435	1494.7608	1505.7799	1506.3759	1659.2936	2332.4881	3031.6364	3032.041	3059.73	3061.7134	3065.351	3094.2526	3094.2776	3115.4481	3117.5376	3122.8962	3492.5057	3568.7203
CC1CC(C)C1(N)C#N	C[C@H]1C[C@@H](C)[C@]1(N)C#N	
InChI=1S/C7H12N2/c1-5-3-6(2)7(5,9)4-8/h5-6H,3,9H2,1-2H3	InChI=1S/C7H12N2/c1-5-3-6(2)7(5,9)4-8/h5-6H,3,9H2,1-2H3/t5-,6+,7-
