17
gdb 42370	2.77779	1.03071	0.80446	1.6457	75.	-0.2587	0.0082	0.2669	1418.581	0.132875	-421.804782	-421.795337	-421.794393	-421.841856	33.321	
O	-0.558983904	 0.3035947228	 1.9993702906	-0.355229
C	-0.1342429838	 0.8969525709	 1.0432616619	 0.450581
C	 1.3110495486	 1.384719252	 0.9317427124	-0.475871
C	 1.8756018776	 1.4176657483	-0.4085596709	 0.324766
C	 2.3714258481	 1.4400612779	-1.5018721311	-0.451142
O	-0.8601455026	 1.2470732247	-0.0320789947	-0.229658
C	-2.2335789283	 0.8895916094	-0.0097516374	 0.149865
C	-3.2321111102	 1.9992733436	 0.1201952605	-0.28175
C	-3.0119695507	 1.3067312314	-1.2118566092	-0.296613
H	 1.3311698906	 2.391788443	 1.3714882315	 0.163098
H	 1.9031924962	 0.7493774486	 1.5966109488	 0.165149
H	 2.7982494369	 1.4568190767	-2.473919007	 0.200567
H	-2.4163270792	-0.0607768501	 0.4743360694	 0.127879
H	-4.1422908496	 1.8047100892	 0.6758662219	 0.125207
H	-2.8387069689	 3.0039999923	 0.2231979418	 0.126376
H	-2.4738704466	 1.8598138858	-1.972951435	 0.133309
H	-3.7713589142	 0.6316498335	-1.5893634335	 0.123465
12.498	35.9928	92.506	121.4196	201.106	327.0723	328.2676	383.1222	421.5234	484.4215	581.5413	627.8715	648.9991	690.8609	758.1799	816.3918	850.7341	888.9647	951.7938	982.7494	991.4739	1014.4028	1059.0029	1076.0265	1118.14	1173.9938	1192.5517	1210.2646	1237.8623	1282.6884	1318.6697	1393.4084	1447.6277	1455.7695	1498.2849	1825.7468	2248.3705	3023.6562	3091.914	3141.3184	3144.3509	3202.0342	3225.3074	3239.4009	3506.9985
O=C(CC#C)OC1CC1	O=C(CC#C)OC1CC1	
InChI=1S/C7H8O2/c1-2-3-7(8)9-6-4-5-6/h1,6H,3-5H2	InChI=1S/C7H8O2/c1-2-3-7(8)9-6-4-5-6/h1,6H,3-5H2
