18
gdb 77812	2.40555	1.50638	1.34372	2.5496	72.69	-0.2121	-0.0119	0.2002	1053.292	0.147466	-439.083632	-439.075196	-439.074252	-439.116307	32.631	
C	-0.0568622802	 1.4928493898	-0.0452762293	-0.487772
C	 0.0219811348	-0.0092376629	 0.0150325197	 0.298175
N	-1.1804430083	-0.7089215202	-0.4208591148	-0.333596
C	-1.2472784513	-2.0006828971	 0.2777469066	-0.285333
C	-0.213669905	-1.9610973787	 1.4173899821	 0.416352
O	-0.1646637387	-2.7315294826	 2.3455831988	-0.33575
C	 0.6798380647	-0.7921638384	 1.1770304337	-0.30474
C	 1.3020012294	-0.7174008383	-0.2304502798	 0.067185
O	 1.3300425616	-1.8159310543	-1.0845876393	-0.411216
H	 0.8941655784	 1.9510100645	 0.2374020443	 0.12691
H	-0.3042487411	 1.8174195825	-1.0617584858	 0.139998
H	-0.8282758902	 1.8742504499	 0.6338623593	 0.121438
H	-1.9774408994	-0.1434900076	-0.1498426295	 0.222885
H	-2.2453381076	-2.2001417005	 0.6755755447	 0.125723
H	-0.9789750988	-2.824830888	-0.3929435341	 0.143495
H	 1.2122606338	-0.3621929591	 2.0164947467	 0.102394
H	 2.1877883908	-0.0826528445	-0.2711062257	 0.09863
H	 2.0115350371	-2.4224935048	-0.7737991677	 0.295222
95.824	194.7163	200.929	220.4405	244.6743	312.8561	353.7853	419.3647	458.9334	540.5955	602.1463	612.613	646.7911	668.5665	773.8366	809.5621	829.5024	930.9731	947.7654	991.5228	1014.3845	1046.3057	1088.574	1103.777	1128.5636	1166.1402	1208.1925	1227.0674	1275.6393	1306.5346	1323.4458	1346.3042	1414.8454	1429.6348	1460.9128	1482.4649	1494.2361	1525.9069	1826.4734	3029.7943	3047.3714	3092.6162	3095.0893	3104.8635	3119.5839	3191.112	3527.1372	3797.6468
CC12NCC(=O)C1C2O	C[C@]12NCC(=O)[C@H]1[C@H]2O	
InChI=1S/C6H9NO2/c1-6-4(5(6)9)3(8)2-7-6/h4-5,7,9H,2H2,1H3	InChI=1S/C6H9NO2/c1-6-4(5(6)9)3(8)2-7-6/h4-5,7,9H,2H2,1H3/t4-,5+,6-/m0/s1
