20
gdb 86311	2.0625	1.69657	1.14782	2.5336	75.07	-0.2229	0.0663	0.2892	1133.9469	0.170088	-440.227348	-440.218354	-440.21741	-440.261149	33.533	
C	-0.1561753072	 1.4811721903	-0.194770346	-0.3361
N	-0.1122537651	 0.065067116	 0.0914880953	-0.116511
C	-1.3227928754	-0.6383428678	 0.5522043137	-0.219047
C	-0.4021088587	-1.5798541363	 1.3696330499	 0.080314
O	-0.1117985089	-2.8204187194	 0.7739061978	-0.432446
C	 0.6871492405	-0.4829603758	 1.1909712932	 0.243842
C	 2.1748668509	-0.8276590841	 1.0413747232	-0.138071
O	 2.4871179521	-0.2040711796	 2.305724788	-0.27222
C	 1.1554615152	 0.3289571385	 2.4299302903	-0.142639
H	 0.8499138728	 1.8491868449	-0.4209662617	 0.127828
H	-0.7803427377	 1.6558613096	-1.0776140494	 0.124586
H	-0.5659824474	 2.0867379556	 0.6334641169	 0.098953
H	-1.9799051562	-0.0255846869	 1.1913987499	 0.089392
H	-1.9260163001	-1.1006282413	-0.237798258	 0.100052
H	-0.7007724528	-1.7938346224	 2.3969334871	 0.095865
H	 0.1079179339	-2.6559241378	-0.1506317772	 0.28836
H	 2.4177863426	-1.8963638564	 1.0274214174	 0.113328
H	 2.6669342079	-0.3257709988	 0.1966028505	 0.096248
H	 1.1367355211	 1.4200328241	 2.3023445005	 0.096429
H	 0.6935807623	 0.0751348675	 3.3924557384	 0.101837
83.2869	89.115	187.4805	203.4258	220.2423	262.5738	312.8556	365.1059	393.1999	456.8549	538.4679	542.3678	685.6515	833.6554	858.2654	876.2482	940.7798	967.1016	988.6806	1015.6698	1033.0731	1068.1573	1110.7217	1126.0802	1152.0166	1155.3231	1164.7956	1175.5861	1202.6338	1230.6056	1262.9012	1291.1793	1298.656	1305.3505	1327.2345	1378.7687	1437.889	1450.3407	1484.3876	1497.2596	1504.9053	1516.7381	1527.303	2943.3559	2965.6683	2996.7989	3008.7708	3045.4238	3051.7173	3058.2382	3065.2977	3099.7364	3106.6347	3795.4409
CN1CC(O)C11COC1	CN1C[C@@H](O)C21COC2	
InChI=1S/C6H11NO2/c1-7-2-5(8)6(7)3-9-4-6/h5,8H,2-4H2,1H3	InChI=1S/C6H11NO2/c1-7-2-5(8)6(7)3-9-4-6/h5,8H,2-4H2,1H3/t5-/m1/s1
