19
gdb 35531	4.33643	1.047	0.95178	1.1432	89.14	-0.2303	0.0139	0.2442	1277.1102	0.159742	-348.704723	-348.696724	-348.695779	-348.737217	31.784	
C	-0.0846198372	-1.2521934593	-0.1816729844	-0.468416
C	-0.0353335494	-0.0538243656	-0.0930570059	 0.317901
C	 0.0296479241	 1.3968205049	 0.0318893906	-0.183157
C	-0.6560517798	 1.9424548636	 1.343904024	-0.255084
C	 0.1368000914	 3.2265311012	 1.6421997581	-0.04175
C	 0.9780105459	 3.5282646452	 2.9355058044	-0.24153
C	 2.2429065202	 3.7401010529	 2.0190197899	-0.320866
C	 1.4605298006	 2.9870942064	 0.9683121431	 0.309473
C	 1.4660959978	 1.9438823551	 0.1492543556	-0.250951
H	-0.1305158159	-2.3094734648	-0.266065876	 0.191568
H	-0.4713779894	 1.8327463376	-0.8461848847	 0.107848
H	-1.7318033566	 2.087152701	 1.2140250604	 0.10183
H	-0.5079622367	 1.2053272203	 2.1393709969	 0.113858
H	-0.3805537945	 4.1319892495	 1.3017516828	 0.076416
H	 0.6669000087	 4.3764111779	 3.5497437009	 0.100744
H	 1.0855302576	 2.6409506146	 3.5643037341	 0.111324
H	 2.3844599657	 4.7994546335	 1.7798186366	 0.113302
H	 3.1983242623	 3.3210199487	 2.3425982431	 0.113245
H	 2.3083470652	 1.4557651175	-0.3242984696	 0.104247
77.1747	142.5684	190.5978	270.9202	318.0621	372.4207	473.8772	519.6217	558.4756	612.02	631.5157	646.9947	686.5338	786.8933	810.9037	824.9525	858.8949	906.0048	928.1099	939.8573	998.1615	1016.6553	1046.023	1073.9406	1086.3272	1126.4243	1170.6595	1189.9192	1223.6805	1232.2356	1252.2007	1255.5443	1265.4031	1304.0477	1337.4115	1344.8543	1472.0807	1482.4838	1488.3292	1737.5593	2232.8581	2979.1872	3025.3316	3047.8358	3054.3458	3062.009	3104.847	3106.8134	3125.5277	3214.0693	3505.6339
C#CC1CC2CCC2=C1	C#C[C@H]1C[C@H]2CC[C]2[CH]1	
InChI=1S/C9H10/c1-2-7-5-8-3-4-9(8)6-7/h1,5,7,9H,3-4,6H2	InChI=1S/C9H10/c1-2-7-5-8-3-4-9(8)6-7/h1,5,7,9H,3-4,6H2/t7-,9-/m1/s1
