18
gdb 88297	4.01237	0.98512	0.90708	3.0995	76.39	-0.2473	-0.037	0.2103	1315.4973	0.147738	-439.061658	-439.053238	-439.052293	-439.095226	31.758	
O	-0.1821329414	 1.5171589112	-0.0030751356	-0.41424
C	-0.0157387124	 0.1543839263	-0.0796990447	 0.157902
C	-0.1625414013	-0.7397584659	 1.0899328628	-0.324624
C	-1.2446193775	-0.8048271008	 0.0009821162	-0.207456
C	-2.5372305966	-0.1634070801	 0.2727865994	 0.427876
O	-2.6302533305	 0.8408618988	 0.9799944183	-0.412542
C	-3.7579770096	-0.7385985265	-0.3654674052	-0.110486
C	-4.9485061061	-0.9216933223	 0.5308826356	-0.219363
N	-4.9403950088	 0.1285073784	-0.4744975224	-0.301225
H	-0.9670589346	 1.6797259266	 0.5494680557	 0.307055
H	 0.7108909727	-0.1070012008	-0.8420665547	 0.120944
H	 0.4784953869	-1.6093402673	 1.1829737941	 0.125603
H	-0.4744369165	-0.2841422968	 2.0240708823	 0.139077
H	-1.2531931784	-1.6691517929	-0.6524946225	 0.098036
H	-3.6047618874	-1.4308966323	-1.1873180105	 0.10199
H	-5.6199952563	-1.75328853	 0.3379868493	 0.128473
H	-4.8202072355	-0.6472608699	 1.5741219388	 0.133263
H	-4.6970147367	 1.0097242644	-0.0199845869	 0.249719
62.1953	88.1567	180.9991	219.2826	272.2162	317.5718	356.7647	447.4115	478.7589	573.1239	686.18	712.3325	781.1667	800.2215	824.0885	861.04	880.0342	916.9699	976.765	1007.0904	1008.9224	1057.975	1080.8676	1105.3093	1117.0999	1129.8152	1137.6582	1149.6091	1182.822	1236.166	1289.6802	1320.2469	1360.3238	1375.559	1429.5387	1450.8121	1487.2854	1495.8031	1704.5271	3113.5383	3132.9721	3159.6789	3170.7893	3181.5493	3207.8844	3229.1947	3463.5694	3627.8811
OC1CC1C(=O)C1CN1	O[C@H]1C[C@H]1C(=O)[C@H]1CN1	
InChI=1S/C6H9NO2/c8-5-1-3(5)6(9)4-2-7-4/h3-5,7-8H,1-2H2	InChI=1S/C6H9NO2/c8-5-1-3(5)6(9)4-2-7-4/h3-5,7-8H,1-2H2/t3-,4-,5+/m1/s1
