19
gdb 81230	2.52637	1.88285	1.44422	3.1184	74.54	-0.2388	0.0653	0.304	964.4126	0.161359	-422.950996	-422.943926	-422.942981	-422.981946	29.705	
O	-0.0244158805	 1.4151709195	-0.0525109239	-0.447439
C	 0.0810491827	 0.0135732994	 0.0296564329	 0.097172
C	 0.0152914284	-0.6172053432	 1.4536399139	-0.086435
C	-1.5367979108	-0.254539964	 1.4189558902	-0.326097
C	-1.3102931818	-0.6638725699	-0.0536695258	 0.455988
O	-1.9924618826	-0.8181737806	-1.3057432112	-0.359255
C	-1.253554774	-2.0756096856	-1.4951091087	-0.167549
C	-1.0138431162	-2.1439787619	 0.0398655694	-0.028444
C	 0.1626728836	-2.1226239605	 1.0533421563	-0.285432
H	 0.814350944	 1.7935814793	 0.2288339417	 0.283964
H	 0.8740060862	-0.3642488929	-0.6302890715	 0.057787
H	 0.6376369053	-0.2350180284	 2.2631262906	 0.067728
H	-2.2322482819	-0.8609255249	 2.0033309656	 0.094466
H	-1.6782663654	 0.8087592822	 1.6011419993	 0.124603
H	-1.8883176678	-2.8482371562	-1.9355357975	 0.11149
H	-0.3643533993	-1.9190735005	-2.1165139629	 0.107489
H	-1.8735854058	-2.6646698155	 0.4698129123	 0.09077
H	 1.1537800408	-2.3164174953	 0.6314593604	 0.10608
H	 0.0075126151	-2.8212537709	 1.8787358791	 0.103113
202.3822	250.8174	291.4554	303.8124	365.4381	409.0741	454.8588	534.3368	583.5905	603.7562	728.5861	784.2132	803.2567	873.4449	885.1068	912.7552	928.0249	949.4153	995.3045	1011.1452	1041.5602	1074.5291	1090.6527	1109.77	1136.8815	1158.1202	1166.2997	1177.3181	1193.9102	1220.4327	1240.9806	1255.0415	1271.0478	1297.8275	1309.3938	1338.0493	1390.8966	1430.1524	1490.2975	1501.5707	1514.874	3003.8777	3037.2468	3055.252	3061.0978	3079.8766	3102.7345	3107.9219	3116.9088	3166.5422	3816.6702
OC1C2CC11OCC1C2	O[C@H]1[C@H]2C[C@]31OC[C@H]3C2	
InChI=1S/C7H10O2/c8-6-4-1-5-3-9-7(5,6)2-4/h4-6,8H,1-3H2	InChI=1S/C7H10O2/c8-6-4-1-5-3-9-7(5,6)2-4/h4-6,8H,1-3H2/t4-,5-,6+,7+/m1/s1
