17
gdb 70046	4.20264	1.07286	0.94981	1.479	84.97	-0.2182	-0.0197	0.1985	1233.2914	0.134925	-384.655541	-384.647361	-384.646417	-384.687873	32.43	
O	-0.0365703593	 1.380941135	 0.0189112995	-0.467198
C	-0.0018404928	-0.0128469194	 0.0450198626	 0.389808
C	-0.3691490629	-0.781544394	-1.1931997352	-0.340303
C	-1.3042341059	-0.7843921311	 0.0197024441	-0.119592
C	-1.1211434629	-1.9104727046	 0.9671740683	-0.176118
C	 0.1031123905	-1.9024452322	 1.5293424786	 0.170078
C	 0.9096944501	-0.6917958424	 1.0694110637	-0.398866
C	 0.6257521799	-2.8519905158	 2.4368590558	 0.212985
C	 1.1145580805	-3.6337438118	 3.2138603161	-0.421091
H	 0.697941559	 1.6884802046	-0.5234118048	 0.283726
H	-0.6952023425	-0.1834018114	-2.0378807872	 0.114964
H	 0.1569046494	-1.6980444376	-1.4411754346	 0.115165
H	-2.259059619	-0.2810712657	-0.0756663068	 0.102004
H	-1.8790454219	-2.659948431	 1.1599175993	 0.104131
H	 1.8814765344	-0.9829351752	 0.6545459548	 0.114614
H	 1.1050824556	-0.008812391	 1.9052044714	 0.125612
H	 1.5291158979	-4.3297204363	 3.8999939944	 0.190083
105.773	145.7802	233.07	278.0261	317.0745	371.2132	413.3912	457.676	517.5525	532.2285	552.4651	580.6749	634.2215	638.3426	736.237	838.9638	867.7873	888.3253	902.2545	931.5205	982.3199	993.7326	1045.0666	1059.0958	1083.7393	1149.5743	1179.9595	1241.1363	1248.2495	1298.6643	1308.7595	1340.9555	1398.4012	1463.7427	1483.8938	1649.3919	2218.4487	3032.5942	3069.535	3122.0018	3184.7149	3210.2103	3218.4051	3504.0996	3796.1307
OC12CC1C=C(C2)C#C	O[C@]12C[C@H]1C=C(C2)C#C	
InChI=1S/C8H8O/c1-2-6-3-7-5-8(7,9)4-6/h1,3,7,9H,4-5H2	InChI=1S/C8H8O/c1-2-6-3-7-5-8(7,9)4-6/h1,3,7,9H,4-5H2/t7-,8-/m1/s1
