13
gdb 125565	3.56145	1.76985	1.19109	4.4598	64.57	-0.2546	-0.0379	0.2167	946.2122	0.09141	-448.918921	-448.912278	-448.911334	-448.950161	24.522	
C	-0.0153699463	 1.4962240801	 0.0519857589	-0.491521
C	-0.0120146595	 0.0123667039	 0.0172870324	 0.345483
N	-0.0473748858	-0.7562396708	-1.0524094099	-0.261602
N	-0.0304602432	-2.1105888382	-0.6905296874	-0.34744
C	 0.0151357855	-2.071251008	 0.602596839	 0.486511
O	 0.0549786328	-2.9367800763	 1.6531194529	-0.199356
C	 0.0906079353	-2.105638676	 2.7395638972	 0.091448
N	 0.07799948	-0.8376872886	 2.4952457279	-0.228419
N	 0.0292747384	-0.8168786287	 1.1153213924	-0.04427
H	 0.885120218	 1.8872898983	 0.5369330152	 0.147826
H	-0.052683886	 1.8639908008	-0.9741818502	 0.166272
H	-0.8818651057	 1.8818384876	 0.5992311496	 0.147828
H	 0.1263966065	-2.5675859241	 3.7126141318	 0.187238
124.8876	185.3388	228.6332	246.926	393.1813	540.2529	624.15	635.7254	661.9401	713.8825	739.6817	819.7382	855.7842	945.4846	1005.6946	1025.5128	1067.7409	1096.7171	1126.0416	1227.6218	1295.1853	1396.2259	1409.885	1419.5918	1477.2703	1489.5302	1561.5289	1586.8097	1632.276	3042.8562	3097.806	3152.9802	3297.3499
CC1=NN=C2OC=NN12	Cc1nnc2ocnn12	
InChI=1S/C4H4N4O/c1-3-6-7-4-8(3)5-2-9-4/h2H,1H3	InChI=1S/C4H4N4O/c1-3-6-7-4-8(3)5-2-9-4/h2H,1H3
