15
gdb 35657	4.02802	0.98723	0.87425	1.3999	83.85	-0.2427	-0.0334	0.2093	1300.033	0.11036	-383.419927	-383.411391	-383.410447	-383.453539	31.494	
C	 0.0570547134	-1.149594336	 0.2679553608	-0.470299
C	 0.0054466218	 0.0372266386	 0.0875119077	 0.337914
C	-0.0457597473	 1.4857819688	-0.1502100716	-0.087254
O	-0.7258887685	 2.1783729818	 0.9015496214	-0.26134
C	 0.1815310607	 3.0081823342	 1.6157702089	-0.171285
C	 1.4694772627	 2.9722236918	 0.8168214144	 0.175373
C	 1.3307206074	 2.10851633	-0.192506753	-0.219526
C	 2.5980090754	 3.7463471539	 1.1649571719	 0.217533
C	 3.5296842649	 4.4302263128	 1.5046477273	-0.414139
H	 0.097186213	-2.198266623	 0.4321238124	 0.203155
H	-0.5997592467	 1.6638641028	-1.0847061962	 0.119408
H	-0.2350086315	 4.0212149055	 1.6872289986	 0.12275
H	 0.3365111941	 2.6351273536	 2.6393056776	 0.120715
H	 2.0755757838	 1.8407007359	-0.9281792792	 0.127466
H	 4.3613927868	 5.0253218393	 1.7909841392	 0.199528
59.0433	103.61	150.4194	189.25	235.5614	350.0979	472.6889	495.9538	531.7371	536.8959	580.9481	614.1696	624.6607	643.909	673.1587	785.2381	851.3295	900.4428	914.4799	978.4556	1012.0935	1045.221	1090.4364	1195.671	1198.3256	1266.1369	1296.1913	1347.3251	1372.8153	1519.5578	1685.7156	2227.8841	2233.6849	2982.7756	2993.4785	3036.6957	3242.7694	3501.1142	3502.3604
C#CC1OCC(=C1)C#C	C#C[C@H]1OCC(=C1)C#C	
InChI=1S/C8H6O/c1-3-7-5-8(4-2)9-6-7/h1-2,5,8H,6H2	InChI=1S/C8H6O/c1-3-7-5-8(4-2)9-6-7/h1-2,5,8H,6H2/t8-/m1/s1
