20
gdb 11110	6.62484	0.96734	0.91013	0.9084	82.14	-0.2528	0.0514	0.3042	1318.8194	0.176002	-311.832788	-311.823946	-311.823002	-311.866221	33.064	
C	 0.4880679289	 1.2786211497	-0.5328129283	-0.382378
C	 0.0818841072	-0.1591608643	-0.1970870801	-0.178546
C	-1.3245281508	-0.2682706651	 0.394833701	 0.027433
C	-2.4845260947	-0.0891788489	-0.6303022042	-0.237781
C	-2.6550975787	-1.6432445004	-0.6783492934	-0.141978
C	-1.8091266159	-1.7270083678	 0.6347729954	-0.249498
C	-3.9937941845	-2.1942089375	-0.6795711914	 0.299545
C	-5.1123157208	-2.637246822	-0.6596156817	-0.451907
H	 1.4945427106	 1.3183939348	-0.9606735493	 0.112918
H	-0.1981104528	 1.7298882841	-1.2574181085	 0.117755
H	 0.4813372581	 1.9085028042	 0.3637233013	 0.114863
H	 0.1515285307	-0.781900591	-1.0997320124	 0.093687
H	 0.798155642	-0.5842804373	 0.5184032351	 0.095219
H	-1.3936670925	 0.3821954125	 1.2726026225	 0.066246
H	-3.3616147866	 0.3916142271	-0.1921690797	 0.110605
H	-2.2511025083	 0.4025792024	-1.578304214	 0.101646
H	-2.0877530363	-2.0582933293	-1.5176383435	 0.101302
H	-1.0449325659	-2.5079819005	 0.6724988578	 0.100111
H	-2.4511950892	-1.8177609478	 1.5134506105	 0.109709
H	-6.0976770304	-3.0320245229	-0.6482590571	 0.191049
63.6581	105.9942	145.1309	204.2632	225.3258	248.6251	349.1597	412.4472	512.3219	518.2264	609.1154	622.0557	632.9288	762.5145	812.6217	825.3627	880.909	933.817	954.838	974.434	992.2953	1048.8995	1054.0635	1097.0358	1133.4927	1141.0111	1225.9343	1231.7113	1249.972	1265.0919	1274.0768	1302.6346	1342.5788	1354.3702	1393.5051	1411.9701	1472.2096	1486.7583	1494.7202	1499.4726	1507.065	2231.0625	3010.0673	3031.2649	3035.3426	3048.9923	3052.7438	3059.7871	3066.1879	3097.6328	3103.3763	3118.7508	3122.1561	3505.7865
CCC1CC(C1)C#C	CC[C@H]1C[C@@H](C1)C#C	
InChI=1S/C8H12/c1-3-7-5-8(4-2)6-7/h1,7-8H,4-6H2,2H3	InChI=1S/C8H12/c1-3-7-5-8(4-2)6-7/h1,7-8H,4-6H2,2H3/t7-,8-
