18
gdb 44575	3.02345	1.59426	1.39856	2.1315	74.4	-0.2253	-0.0259	0.1993	977.7835	0.149347	-401.930668	-401.923566	-401.922622	-401.962481	28.415	
O	 0.0360821681	 0.0205663284	-0.727483708	-0.288826
C	-0.0256031345	 1.1345507139	-0.3005354822	 0.377615
C	-1.1538735991	 2.06620864	 0.1811790105	-0.305283
N	-0.1162314832	 3.0164643554	 0.6865124247	-0.102979
C	 0.0907355926	 3.069977394	 2.1204376039	-0.012848
C	 0.1404687547	 1.7829470341	 2.927737167	-0.31238
C	 1.416791492	 2.4460070521	 2.4732827137	-0.026184
C	 2.059570814	 1.9247587626	 1.1890122222	-0.269224
C	 1.0075860332	 2.2066295631	 0.0971428317	-0.096289
H	-1.7599812573	 2.4870157758	-0.6285362792	 0.132129
H	-1.8210650906	 1.6471387996	 0.941749489	 0.1329
H	-0.2529953028	 3.9743846759	 2.6115158109	 0.0929
H	-0.1125921577	 1.8430210244	 3.9810163251	 0.116382
H	-0.1511562196	 0.8474590578	 2.4603374867	 0.121807
H	 2.063181492	 2.8954516746	 3.2183817302	 0.091418
H	 2.9858746718	 2.4669002072	 0.9798229154	 0.113378
H	 2.3085898725	 0.8594307306	 1.2365120492	 0.125977
H	 1.447085884	 2.6831813905	-0.7874462608	 0.109504
59.161	179.0243	251.9825	341.6197	395.8481	486.4491	538.8777	614.2654	632.1076	701.6483	753.6746	783.6027	827.3169	851.2667	882.5074	918.3985	978.0198	998.2792	1009.7892	1031.4802	1058.1781	1061.8859	1084.0115	1106.6176	1121.6878	1135.5605	1177.892	1194.7667	1221.8891	1248.5608	1259.8326	1288.6973	1316.2986	1348.5136	1378.4011	1461.7108	1485.5145	1499.6621	1899.8394	3028.8409	3040.0121	3052.1654	3087.8763	3092.6163	3127.7219	3155.5936	3174.8264	3211.4317
O=C1CN2C3CC3CC12	O=C1CN2[C@H]3C[C@H]3C[C@@H]12	
InChI=1S/C7H9NO/c9-7-3-8-5-1-4(5)2-6(7)8/h4-6H,1-3H2	InChI=1S/C7H9NO/c9-7-3-8-5-1-4(5)2-6(7)8/h4-6H,1-3H2/t4-,5-,6-/m0/s1
