20
gdb 85836	2.04064	1.44584	1.32206	4.1088	78.79	-0.2713	0.0134	0.2846	1147.6056	0.168669	-403.160537	-403.150672	-403.149728	-403.195095	36.273	
C	-0.4437866348	 1.3978351745	-0.1301779455	-0.404762
C	 0.014998404	-0.0414129555	 0.0114547034	 0.136886
O	 1.1838645592	-0.3227341368	-0.8124380176	-0.321963
C	 2.0195826127	-0.5683449476	 0.3376008028	 0.25927
C	 2.7424750217	-1.9068399321	 0.2516285189	-0.442511
C	 2.9942218126	 0.5274476285	 0.5108393464	 0.273171
N	 3.7518010768	 1.3878108288	 0.6606062433	-0.351219
C	 0.7846764558	-0.4702827868	 1.2921278244	-0.095119
C	 0.8270084415	 0.4293074883	 2.5162593672	-0.427411
H	 0.355565759	 2.1034314045	 0.1104315158	 0.138369
H	-0.7569753049	 1.5808593255	-1.1624456173	 0.13286
H	-1.2987267467	 1.5973126189	 0.5249747064	 0.118641
H	-0.801197239	-0.7213861643	-0.2599612243	 0.084009
H	 3.4313659767	-1.9138231782	-0.5973054616	 0.147292
H	 3.3153024716	-2.0956320396	 1.1647815447	 0.136088
H	 2.0091037835	-2.7054348632	 0.115169349	 0.12896
H	 0.4964868001	-1.4821696422	 1.5896665498	 0.091327
H	 1.1504997245	 1.4443723773	 2.2749469275	 0.144762
H	-0.1620597513	 0.4860217442	 2.9821639308	 0.122474
H	 1.5210060169	 0.0306983356	 3.2632779259	 0.128876
48.7112	141.1382	185.0083	197.2895	218.715	223.4795	254.81	267.5717	301.6522	373.2116	436.9841	502.0696	551.3229	595.245	649.3865	747.09	790.5602	882.2916	904.1998	923.6083	1005.4783	1035.5733	1042.8067	1073.989	1123.0784	1138.8032	1172.057	1204.7275	1213.825	1286.8184	1309.4654	1374.1485	1387.6493	1405.4645	1412.9645	1420.7681	1476.6046	1480.2599	1488.9302	1490.9581	1498.8919	1505.3386	2346.8776	3029.1282	3038.9292	3042.8795	3044.5868	3069.8728	3103.5257	3110.0169	3123.047	3123.4573	3130.4523	3131.4303
CC1OC(C)(C#N)C1C	C[C@H]1O[C@@](C)(C#N)[C@H]1C	
InChI=1S/C7H11NO/c1-5-6(2)9-7(5,3)4-8/h5-6H,1-3H3	InChI=1S/C7H11NO/c1-5-6(2)9-7(5,3)4-8/h5-6H,1-3H3/t5-,6+,7-/m0/s1
