19
gdb 62217	5.77499	0.57614	0.54019	2.1217	79.19	-0.2575	-0.0308	0.2267	1974.4093	0.154298	-422.993459	-422.982713	-422.981769	-423.030776	36.864	
C	 0.1494632586	 1.3916774968	 0.1775853466	-0.405917
C	 0.0267984094	-0.1255281188	 0.0393436652	 0.043254
O	-1.2999541957	-0.6134967563	 0.0858164891	-0.261233
C	-1.8977140888	-0.6192153425	 1.3658618526	-0.057368
C	-3.2328998995	-1.3617663792	 1.2409315632	-0.349166
C	-3.9477089321	-1.420100158	 2.5083656994	 0.284488
C	-4.5134351202	-1.4528327809	 3.5680052266	-0.444461
C	 0.6019098178	-0.6263537157	-1.2833937925	 0.148307
O	 1.5657258282	-0.1529072046	-1.8237533405	-0.243198
H	 1.1750754539	 1.6881824138	-0.0544710909	 0.146576
H	-0.5234282087	 1.8878117166	-0.5278312316	 0.131633
H	-0.0929331333	 1.7252489877	 1.1893340827	 0.121327
H	 0.627779228	-0.6139134738	 0.8306371718	 0.096948
H	-1.2480456486	-1.1287840781	 2.0945363197	 0.102906
H	-2.0737936189	 0.4010619603	 1.7337595971	 0.110309
H	-3.8427375495	-0.8575595739	 0.481937931	 0.143138
H	-3.0388875325	-2.3727638433	 0.863865657	 0.140134
H	-5.0258012893	-1.4898105372	 4.4972429193	 0.198922
H	 0.0481538813	-1.4959044431	-1.699893146	 0.0934
40.8446	60.8849	73.7334	98.9996	137.6411	192.6708	211.8119	269.051	327.6342	355.0663	389.8689	450.8798	542.3586	612.2907	626.9557	653.5328	798.242	830.8582	910.3279	929.3832	979.5139	1056.4361	1085.5978	1091.5625	1125.9948	1139.1308	1173.0046	1228.0217	1300.0451	1304.7967	1331.7966	1338.8579	1383.1521	1402.2938	1430.2361	1477.585	1487.3885	1496.3809	1526.4492	1841.9789	2243.0009	2903.798	2925.5725	2983.432	3026.6078	3036.3375	3051.1536	3074.6539	3126.6138	3137.1915	3507.2036
CC(OCCC#C)C=O	C[C@@H](OCCC#C)C=O	
InChI=1S/C7H10O2/c1-3-4-5-9-7(2)6-8/h1,6-7H,4-5H2,2H3	InChI=1S/C7H10O2/c1-3-4-5-9-7(2)6-8/h1,6-7H,4-5H2,2H3/t7-/m1/s1
