19
gdb 53286	3.10505	0.92138	0.77699	1.672	82.02	-0.2413	0.0227	0.2641	1531.0078	0.155861	-422.980677	-422.970289	-422.969345	-423.017588	36.416	
C	 0.2663950259	 1.5882383869	 0.0168428211	-0.503491
C	 0.1206771867	 0.1416509628	-0.0022185008	 0.129639
C	-0.0335466739	-1.0527390944	-0.0082340721	 0.077882
C	-0.129288956	-2.4833841705	-0.0652050629	-0.174527
O	-0.6019154747	-3.2023422996	 1.1053473794	-0.261776
C	-1.3954944811	-3.2470712815	-0.0831525646	 0.049337
C	-2.7824336939	-2.6257165881	 0.0366232381	 0.096582
C	-3.8213218046	-3.7025325624	 0.3763233295	-0.395626
O	-2.7964545019	-1.5868453579	 0.9926588677	-0.432503
H	 1.007095344	 1.9041719457	 0.7596137634	 0.152391
H	 0.5951021261	 1.9627973815	-0.9587988273	 0.152078
H	-0.6836290888	 2.0761276441	 0.2598631717	 0.159113
H	 0.7286097846	-2.973344326	-0.5266642491	 0.114968
H	-1.3725253838	-4.2092492459	-0.5985147268	 0.095669
H	-3.0395950739	-2.1731650894	-0.930934544	 0.093516
H	-4.8023603349	-3.2377515933	 0.5005172213	 0.126641
H	-3.890481602	-4.456312204	-0.4158846416	 0.107819
H	-3.5588811997	-4.2075939399	 1.3120985257	 0.122444
H	-2.133559308	-1.8227636982	 1.6562797212	 0.289845
30.4306	49.2192	72.5793	132.8921	197.8149	236.136	275.6388	287.7738	334.6192	372.8603	430.6776	434.7578	507.8311	581.0167	663.4126	713.4956	825.639	856.4975	912.342	944.4202	1025.8712	1051.3	1051.8185	1078.2369	1109.607	1123.1359	1168.0112	1188.6375	1271.7629	1305.4628	1344.5395	1390.752	1401.0596	1412.288	1436.7901	1447.9965	1474.0861	1477.2006	1493.0542	1496.0044	2370.9125	3017.5437	3029.1891	3032.1158	3090.5319	3090.6202	3094.0269	3102.5102	3106.7262	3124.8913	3748.2577
CC#CC1OC1C(C)O	CC#C[C@H]1O[C@H]1[C@@H](C)O	
InChI=1S/C7H10O2/c1-3-4-6-7(9-6)5(2)8/h5-8H,1-2H3	InChI=1S/C7H10O2/c1-3-4-6-7(9-6)5(2)8/h5-8H,1-2H3/t5-,6-,7+/m1/s1
