23
gdb 114686	3.5372	1.0242	0.95417	1.1588	85.27	-0.2514	0.0791	0.3305	1355.3923	0.20646	-388.292592	-388.283277	-388.282333	-388.326346	36.146	
C	-0.4188801903	 1.4067158485	 0.1622849138	-0.481073
C	 0.1102352218	 0.0076158726	-0.0482594539	 0.375766
C	-0.6373400543	-1.1652834224	 0.5428285986	-0.337022
C	 0.7377165309	-0.8097748668	 1.0611507697	-0.06196
C	 1.9307247478	-1.5777174084	 0.5149668406	-0.235456
C	 1.8676568544	-1.4495857922	-1.035961435	 0.022857
C	 1.4649526461	-2.7464267166	-1.7375813713	-0.090521
O	 2.4746305288	-3.7126018642	-1.4795259206	-0.420332
C	 0.8950537632	-0.2711170191	-1.3291570634	-0.310652
H	 0.3853853232	 2.1502083484	 0.1032627656	 0.110851
H	-1.1674262486	 1.6705553325	-0.5949166679	 0.113237
H	-0.8953538389	 1.507469634	 1.1428730003	 0.111613
H	-1.4813284674	-0.9342690356	 1.1854709331	 0.102441
H	-0.770868848	-2.0708697736	-0.0398190522	 0.103086
H	 0.8047131675	-0.4094526974	 2.0681162458	 0.073268
H	 2.8548742252	-1.1264152657	 0.8923626195	 0.094181
H	 1.9509054137	-2.6289170762	 0.8201899116	 0.108547
H	 2.8647385726	-1.2130640935	-1.4206491273	 0.082338
H	 0.4853021172	-3.0995333996	-1.3798393361	 0.085841
H	 1.367095677	-2.5568199405	-2.8189854235	 0.083262
H	 2.1984382145	-4.548140572	-1.866769861	 0.285384
H	 0.2377787654	-0.4865164426	-2.1816633849	 0.090085
H	 1.4630736781	 0.6272272404	-1.5980131614	 0.094258
85.3734	125.5512	156.4718	218.749	252.3512	265.6933	296.367	354.9066	367.8099	398.1677	457.4089	580.556	680.3959	722.0237	796.2363	824.0296	872.5515	895.9258	908.7508	935.6649	959.6373	1003.8625	1020.0501	1047.2487	1067.8501	1076.3315	1085.4011	1102.138	1117.5147	1134.9783	1201.7773	1204.6867	1232.6066	1250.5742	1284.8276	1293.6462	1310.5829	1326.2861	1346.1005	1371.3696	1408.3434	1421.8527	1455.4128	1487.2875	1490.8364	1495.3739	1500.8228	1510.0581	1521.15	2963.6625	2995.4098	3014.8304	3019.2678	3038.1675	3048.5616	3061.9846	3072.6608	3080.0454	3093.6559	3124.2079	3152.2932	3205.0371	3832.0589
CC12CC1CC(CO)C2	C[C@]12C[C@H]1C[C@@H](CO)C2	
InChI=1S/C8H14O/c1-8-3-6(5-9)2-7(8)4-8/h6-7,9H,2-5H2,1H3	InChI=1S/C8H14O/c1-8-3-6(5-9)2-7(8)4-8/h6-7,9H,2-5H2,1H3/t6-,7-,8+/m1/s1
