24
gdb 100956	2.1474	1.17611	0.99079	0.9956	85.87	-0.2191	0.0747	0.2938	1371.6274	0.214809	-405.515779	-405.504717	-405.503772	-405.551487	40.947	
C	 0.4954356688	 1.7298688643	-0.1507260331	-0.40681
C	 0.1188257364	 0.2484988247	 0.0101806652	-0.022557
C	 0.4708240307	-0.5483371793	-1.2514579424	-0.092494
O	-0.3375897495	-0.054956249	-2.3118981188	-0.423593
C	 0.729409296	-0.3730770099	 1.2688530359	 0.336805
C	 2.2418260666	-0.5282393	 1.2828814346	-0.455832
C	 0.0362476873	-0.1195229096	 2.5698130244	-0.297519
N	 0.0485509284	-1.4593304512	 1.994772049	-0.124275
C	-1.2160322545	-2.020095414	 1.546708305	-0.319794
H	 1.5772002013	 1.8607293165	-0.2619433612	 0.111198
H	 0.016857798	 2.1402472247	-1.0427196953	 0.131849
H	 0.1746930013	 2.3126025741	 0.7179706611	 0.110816
H	-0.9716894736	 0.200733853	 0.0977569753	 0.082838
H	 1.5401204979	-0.4317259741	-1.4863824585	 0.08753
H	 0.2859611465	-1.6204871392	-1.0810566568	 0.089188
H	-0.062352538	-0.4854171826	-3.1261398461	 0.286417
H	 2.7483377759	 0.4317886288	 1.1390856081	 0.11526
H	 2.560622801	-0.946666874	 2.2401072544	 0.123982
H	 2.5828629068	-1.2107457603	 0.4971119513	 0.115921
H	 0.6036558738	 0.0179483974	 3.4881259502	 0.104966
H	-0.8994859048	 0.4394952703	 2.5322982939	 0.098956
H	-1.9403312347	-1.2897682023	 1.1541819817	 0.105273
H	-1.0315585598	-2.7709733892	 0.7712788929	 0.120126
H	-1.6864527117	-2.5263117092	 2.3963974892	 0.121749
61.2322	97.6268	161.1002	185.3373	211.0349	231.2649	232.259	251.5319	259.033	283.4369	321.3803	364.7974	448.3186	463.2511	480.7795	538.9504	727.4264	756.2706	863.6401	912.9632	926.5672	932.7635	979.6344	1031.8426	1052.3805	1069.5523	1093.2445	1120.4025	1132.8531	1151.6779	1165.5518	1176.5795	1202.2508	1246.2376	1272.6016	1295.2598	1313.8232	1356.847	1395.6847	1401.9074	1420.3118	1451.4925	1459.9536	1485.2971	1490.8435	1494.0781	1498.4215	1504.5803	1511.4845	1516.3387	1523.9163	2971.7676	2977.7184	3001.6057	3036.4037	3040.9137	3054.6772	3062.9691	3074.5309	3094.7485	3098.4701	3105.7384	3124.4238	3128.176	3157.3494	3834.7094
CC(CO)C1(C)CN1C	C[C@@H](CO)[C@@]1(C)CN1C	
InChI=1S/C7H15NO/c1-6(4-9)7(2)5-8(7)3/h6,9H,4-5H2,1-3H3	InChI=1S/C7H15NO/c1-6(4-9)7(2)5-8(7)3/h6,9H,4-5H2,1-3H3/t6-,7+,8?/m0/s1
