18
gdb 84857	2.45674	1.92669	1.26795	2.2651	72.11	-0.245	0.02	0.265	1009.5649	0.149098	-439.077343	-439.069615	-439.068671	-439.110004	29.182	
C	 0.043472338	 1.5829808666	 0.025946659	-0.386839
C	 0.1255951277	 0.0567096923	-0.0390701573	 0.019014
N	 0.8334888857	-0.3494465023	-1.2533812414	-0.269546
C	 1.496514447	-1.4211191784	-1.2477835818	 0.123651
O	 1.7142868322	-2.304993057	-0.2346855174	-0.242982
C	 1.4479838664	-1.8781671878	 1.0960475412	 0.0612
C	 2.627724478	-1.1403974642	 1.7559121084	-0.092745
O	 1.9322951973	 0.1189156711	 1.681067879	-0.287703
C	 0.7115205954	-0.5280132962	 1.2417113448	 0.082719
H	 1.0413562692	 2.0039427163	 0.1675846906	 0.14026
H	-0.371719274	 1.9684614637	-0.9079103826	 0.125083
H	-0.5901129805	 1.9071455365	 0.8579810973	 0.10708
H	-0.8957225892	-0.3451443319	-0.1256531142	 0.091265
H	 1.9828681724	-1.7838586335	-2.1515081334	 0.126114
H	 1.0379005424	-2.7396715229	 1.623249444	 0.102056
H	 2.8324304446	-1.4389749453	 2.7919498774	 0.105858
H	 3.5574012454	-1.1456083522	 1.1772600264	 0.117872
H	-0.0359667982	-0.5247501247	 2.0465427698	 0.077642
75.7709	89.7201	227.5859	234.4487	309.6092	401.9416	409.7048	516.922	528.0504	674.7383	751.6583	788.6383	855.905	864.5611	916.9151	944.9389	962.7895	989.5612	1015.0872	1056.05	1062.6561	1099.9029	1124.9752	1158.0608	1170.8476	1199.3719	1249.221	1276.7998	1322.4678	1331.7309	1357.2245	1366.8562	1381.5122	1403.45	1419.7663	1485.4773	1501.054	1511.9265	1737.3799	2985.9989	3010.2269	3020.1541	3046.5135	3078.7609	3111.0183	3120.3822	3139.9102	3158.2631
CC1N=COC2COC12	C[C@H]1N=CO[C@H]2CO[C@@H]12	
InChI=1S/C6H9NO2/c1-4-6-5(2-8-6)9-3-7-4/h3-6H,2H2,1H3	InChI=1S/C6H9NO2/c1-4-6-5(2-8-6)9-3-7-4/h3-6H,2H2,1H3/t4-,5+,6+/m1/s1
