17
gdb 66993	2.54767	2.08644	1.41989	3.5917	71.98	-0.2417	0.007	0.2488	930.9457	0.137838	-418.002133	-417.994929	-417.993985	-418.033445	28.749	
C	-0.0106345126	 1.4981710168	 0.012783717	-0.481355
C	-0.0718928493	 0.0012117757	 0.1011584425	 0.21112
C	 0.2838554103	-0.7935057877	 1.2947851346	-0.081352
C	-0.1434737291	-2.2048885072	 0.8172045213	-0.063869
C	 1.1345710446	-2.1492484263	-0.0640347201	-0.16189
N	 1.2879041283	-0.6790706635	 0.1873543698	-0.181247
N	-1.3254235743	-1.9489291594	 0.0042128039	-0.31032
C	-1.1862897413	-0.7218179104	-0.6273080799	 0.359925
O	-1.8441951358	-0.3054293973	-1.5536199418	-0.372173
H	 0.8744578633	 1.8753029557	 0.5294307409	 0.129308
H	 0.0344822807	 1.8051615925	-1.035701443	 0.145795
H	-0.9044890176	 1.9490611059	 0.4545449874	 0.12909
H	 0.443716676	-0.4241161413	 2.3011169158	 0.104401
H	-0.2820707354	-3.0176129576	 1.5276385233	 0.094974
H	 1.9930443745	-2.6505412694	 0.3901119216	 0.119731
H	 1.0333192225	-2.4485032477	-1.1128428625	 0.109964
H	-1.7482976147	-2.6970287386	-0.5292738409	 0.247898
150.6884	170.8271	252.926	277.9449	356.2731	453.526	477.8836	555.3505	613.4455	655.1744	696.7005	734.3415	796.5237	824.7583	874.3416	894.6102	914.1247	972.1795	1008.334	1021.1215	1058.2719	1081.8641	1093.1452	1158.6732	1166.0823	1205.232	1222.5322	1291.3517	1307.715	1337.4385	1388.6961	1406.9679	1425.0162	1481.7087	1492.1213	1495.2865	1829.8411	3042.9751	3048.6784	3109.4727	3116.6109	3133.6123	3136.1368	3182.3811	3590.9568
CC12C3C(CN13)NC2=O	C[C@]12[C@H]3[C@H](CN13)NC2=O	
InChI=1S/C6H8N2O/c1-6-4-3(2-8(4)6)7-5(6)9/h3-4H,2H2,1H3,(H,7,9)	InChI=1S/C6H8N2O/c1-6-4-3(2-8(4)6)7-5(6)9/h3-4H,2H2,1H3,(H,7,9)/t3-,4+,6+,8?/m0/s1
