16
gdb 94759	4.20506	1.17154	1.03326	3.4032	70.5	-0.2793	-0.0063	0.273	1146.0191	0.123877	-437.881381	-437.873398	-437.872454	-437.913926	29.669	
C	 0.2205959375	 1.5764707826	-0.0466755515	-0.406332
C	 0.0664445449	 0.0649888428	 0.0099657078	 0.11573
O	 0.7578840348	-0.505784187	-1.1054469309	-0.268965
C	 1.243165387	-1.7953888484	-0.7815910807	-0.157665
C	 1.4273765171	-1.7762493337	 0.7299916322	 0.286454
O	 2.1158775973	-0.6094429609	 1.195660403	-0.267374
C	 0.6874855896	-0.6039119978	 1.2243456352	-0.066703
C	 1.6118494945	-2.9990972766	 1.4674087744	 0.217039
N	 1.7570910517	-4.0023201568	 2.0225231066	-0.324317
H	 1.2741084727	 1.847629938	 0.0550508047	 0.14414
H	-0.1485259944	 1.9529842901	-1.0037221364	 0.137447
H	-0.3517965267	 2.0514654316	 0.7557658619	 0.121495
H	-1.0005995477	-0.2143779856	-0.0158465148	 0.084647
H	 0.5312331933	-2.5924107178	-1.0469035131	 0.117229
H	 2.1778635323	-1.9575917335	-1.3259249654	 0.138509
H	 0.2208439862	-0.563664067	 2.2042242469	 0.128665
108.8296	142.0295	166.9033	229.8281	259.9042	337.364	398.8231	456.4552	543.5844	556.9317	595.7192	678.183	776.3427	839.5782	895.3559	903.8821	954.5589	1020.8983	1046.1283	1071.1876	1094.527	1128.692	1152.9999	1202.0625	1235.008	1274.4656	1333.6438	1360.7335	1379.1682	1407.5299	1443.6712	1485.2886	1498.3345	1504.7339	2362.5833	2964.3077	2992.2251	3050.041	3091.3052	3124.7004	3137.6297	3169.4977
CC1OCC2(OC12)C#N	C[C@H]1OC[C@]2(O[C@@H]12)C#N	
InChI=1S/C6H7NO2/c1-4-5-6(2-7,9-5)3-8-4/h4-5H,3H2,1H3	InChI=1S/C6H7NO2/c1-4-5-6(2-7,9-5)3-8-4/h4-5H,3H2,1H3/t4-,5+,6-/m1/s1
