15
gdb 7755	3.8677	1.79503	1.2835	2.2978	62.47	-0.2785	-0.0282	0.2503	914.3423	0.119509	-399.852229	-399.845134	-399.84419	-399.883694	26.302	
C	-0.0617594454	 1.5660598511	-0.0036201684	-0.390235
C	 0.0826200713	 0.0467419957	 0.0571074383	 0.036657
C	 0.6956945471	-0.5297032277	-1.2288447465	-0.353555
C	 0.9976370689	-2.0015605326	-1.083548615	 0.425357
O	 0.8778432328	-2.8449427119	-1.9188209715	-0.297322
O	 1.5001952834	-2.3561758364	 0.1571323966	-0.214699
C	 1.4965768634	-1.4254956775	 1.1771886524	 0.131799
N	 0.879892282	-0.3311104281	 1.2265316347	-0.244264
H	 0.9169451787	 2.0397833007	-0.1310812215	 0.123534
H	-0.7027804917	 1.8629765875	-0.8393571726	 0.116849
H	-0.4994534865	 1.9387190708	 0.9254771852	 0.133274
H	-0.9174694923	-0.3897966293	 0.1999643826	 0.105998
H	 0.0556181071	-0.3954266592	-2.1024050319	 0.14117
H	 1.6476754195	-0.0187032021	-1.429490209	 0.141415
H	 2.1027421118	-1.7892549909	 2.0022673165	 0.144022
115.1019	121.5036	235.796	291.9909	368.3762	433.7244	455.5611	546.3007	575.3557	646.7272	776.1983	829.1124	879.8579	932.5048	946.1132	957.9616	1056.3147	1098.7783	1127.2234	1152.6912	1154.8597	1241.2003	1296.6378	1346.0704	1367.5734	1403.7178	1413.8698	1459.1309	1487.9085	1498.0882	1741.2893	1887.5182	2993.2713	3029.1083	3041.3546	3112.0314	3124.6523	3128.5792	3184.2199
CC1CC(=O)OC=N1	C[C@H]1CC(=O)OC=N1	
InChI=1S/C5H7NO2/c1-4-2-5(7)8-3-6-4/h3-4H,2H2,1H3	InChI=1S/C5H7NO2/c1-4-2-5(7)8-3-6-4/h3-4H,2H2,1H3/t4-/m0/s1
