23
gdb 63849	2.79249	1.40214	1.39529	1.2696	84.41	-0.2537	0.0688	0.3226	1102.7721	0.20783	-388.296572	-388.288351	-388.287407	-388.328505	34.568	
C	 0.1619850348	 1.5482003533	 0.0044419162	-0.435712
C	-0.0203361702	 0.0267587842	-0.0026225837	 0.37269
O	-1.4287711276	-0.2688007753	 0.0667735636	-0.458945
C	 0.5800579943	-0.6064791393	-1.2922167169	-0.23513
C	 1.0695617166	-2.0459403874	-1.0756545078	-0.01264
C	 0.1941713748	-2.7844418706	-0.0190506276	-0.227798
C	 1.0648846779	-2.055017755	 1.046701199	-0.014981
C	 2.2007699834	-2.0418519964	-0.0118567023	-0.21191
C	 0.5687330045	-0.6201201133	 1.2787159604	-0.216011
H	 1.2212415471	 1.8239022681	 0.0098710155	 0.112272
H	-0.2950612665	 1.997397546	-0.886176569	 0.099029
H	-0.3170420135	 1.9822120787	 0.887265653	 0.12006
H	-1.8370618929	 0.0730822297	-0.7362335005	 0.270025
H	-0.1890053453	-0.5705413119	-2.075047507	 0.076859
H	 1.4166333471	 0.0034297522	-1.6563015076	 0.091464
H	 1.2646675092	-2.5445098684	-2.0287622488	 0.053626
H	-0.8805938026	-2.6048810005	-0.0172585803	 0.112096
H	 0.3980449271	-3.8587995336	-0.0246869863	 0.085508
H	 1.2557645481	-2.5625806359	 1.9956774964	 0.054665
H	 2.7658848353	-2.9779668939	-0.0157844315	 0.090266
H	 2.9004981986	-1.1984209337	-0.0070102965	 0.077886
H	 1.3991910293	-0.0118171909	 1.656550588	 0.088314
H	-0.2205737798	-0.593752756	 2.0365006936	 0.108364
124.3302	229.3941	262.2618	306.9679	330.5021	342.4818	382.7092	420.259	454.1507	456.1267	510.6152	581.8578	723.3688	823.8159	826.0767	851.5264	872.2578	874.2577	915.9162	921.6477	938.2041	957.8385	999.8042	1001.6566	1071.7259	1079.6567	1096.9199	1102.0539	1135.5614	1138.2259	1146.5528	1197.1438	1235.7448	1257.733	1263.9853	1275.0409	1315.8176	1331.2212	1339.4132	1353.0729	1371.9225	1398.1127	1408.8297	1476.4099	1478.4067	1482.1085	1493.0829	1494.0178	1511.4359	3009.5626	3021.8701	3031.7909	3034.2232	3047.6548	3058.1955	3066.4177	3073.9906	3082.4757	3090.0032	3095.8512	3112.8078	3140.8459	3798.8493
CC1(O)CC2CC(C2)C1	C[C@@]1(O)C[C@@H]2C[C@@H](C2)C1	
InChI=1S/C8H14O/c1-8(9)4-6-2-7(3-6)5-8/h6-7,9H,2-5H2,1H3	InChI=1S/C8H14O/c1-8(9)4-6-2-7(3-6)5-8/h6-7,9H,2-5H2,1H3/t6-,7+,8-
