17
gdb 104546	2.48868	1.30476	1.04297	3.2738	74.96	-0.2862	-0.0059	0.2804	1195.9596	0.134888	-418.025587	-418.016716	-418.015772	-418.059413	32.461	
C	 0.0419993649	 1.647103462	-0.0338857696	-0.399616
C	 0.0775097238	 0.1389317686	-0.2914213328	-0.234772
C	-1.256436881	-0.5534325368	-0.0229166462	 0.25404
C	-1.2332174246	-2.1026286345	 0.1163694616	-0.415952
C	-1.6059464614	-1.823991237	 1.5552284606	 0.444308
N	-1.813340701	-2.5286908527	 2.5655015498	-0.530038
O	-1.6441920331	-0.4457835515	 1.3927058454	-0.270773
C	-2.3298223538	-0.0384831893	-0.8798146615	 0.275881
N	-3.1589663097	 0.3583506196	-1.5797238871	-0.330984
H	 1.0296295276	 2.0845739879	-0.2011483268	 0.126054
H	-0.6669054229	 2.1476236223	-0.7000733959	 0.145643
H	-0.2539418126	 1.8547213299	 0.9979750428	 0.142458
H	 0.3639473767	-0.0723761809	-1.3285937701	 0.125684
H	 0.8217990358	-0.3415663677	 0.3533605079	 0.11813
H	-1.9883620951	-2.6420954552	-0.4553306695	 0.161901
H	-0.2541508473	-2.5595226187	-0.0341989769	 0.149653
H	-2.0544125064	-1.9652367662	 3.3820916981	 0.238385
76.5231	102.3939	158.2819	183.5468	215.9724	257.7848	371.7402	392.3656	452.1986	495.5876	522.191	592.5435	636.0768	768.431	801.4785	862.6864	880.6476	919.0522	952.0706	998.0198	1015.5271	1036.9904	1087.957	1123.6465	1158.3513	1233.016	1241.9291	1268.6247	1321.3712	1367.5395	1415.7426	1463.814	1472.487	1498.3445	1507.6938	1842.3113	2358.7338	3037.22	3049.2105	3078.7615	3097.0566	3122.2199	3127.4577	3156.7801	3486.4219
CCC1(CC(=N)O1)C#N	CC[C@]1(C[C]([NH])O1)C#N	
InChI=1S/C6H8N2O/c1-2-6(4-7)3-5(8)9-6/h8H,2-3H2,1H3	InChI=1S/C6H8N2O/c1-2-6(4-7)3-5(8)9-6/h8H,2-3H2,1H3/t6-/m0/s1
