22
gdb 116207	2.1936	1.44454	0.97342	2.626	81.43	-0.2386	0.0675	0.3061	1283.9824	0.195411	-404.326594	-404.317609	-404.316665	-404.360715	34.165	
C	 0.0509529374	 1.6464690288	 0.0343481585	-0.391249
C	 0.146059698	 0.1191887809	-0.0602499254	-0.198954
C	 0.6815404154	-0.5345825148	 1.2145305031	-0.067485
C	-0.2045471046	-0.3584742687	 2.460808321	-0.096529
O	 0.1914617098	-1.3873356201	 3.3520065512	-0.248661
C	 0.3835667756	-2.5533317003	 2.5626768709	-0.136706
C	 0.8494834427	-2.063965677	 1.187081732	 0.297625
C	 0.7116496505	-2.9010071981	-0.027928944	-0.294467
N	 2.0343372367	-2.7040529718	 0.601414956	-0.354723
H	 1.0255895018	 2.0896843427	 0.2668981013	 0.118065
H	-0.2948059889	 2.0780403053	-0.9097160804	 0.11602
H	-0.6492956893	 1.9585359327	 0.8159285707	 0.123826
H	-0.8398616855	-0.3007673306	-0.2964197226	 0.101276
H	 0.7997250156	-0.1427144361	-0.9028424892	 0.093787
H	 1.6649297992	-0.1012339493	 1.4478049332	 0.082194
H	-0.0686480202	 0.5974949363	 2.9717295536	 0.110992
H	-1.2708870395	-0.459079317	 2.1876746056	 0.082965
H	 1.1294531265	-3.1878711738	 3.0474135816	 0.122739
H	-0.5600695045	-3.1164115613	 2.4749468274	 0.087502
H	 0.3150312068	-3.9103490292	 0.0571631025	 0.11483
H	 0.5064609029	-2.4200661597	-0.9800075243	 0.111202
H	 2.5673877437	-2.020510889	 0.0660547373	 0.225751
46.7691	110.0906	176.1316	205.8454	252.6388	286.4338	296.4645	358.9368	433.6018	494.144	499.1582	633.448	754.707	790.8113	830.141	893.0519	914.894	948.732	964.8779	975.5891	979.7101	1015.7875	1057.3609	1062.1456	1080.5691	1118.8102	1133.0837	1150.0304	1166.8114	1217.4176	1263.7978	1268.3307	1286.9883	1293.5801	1316.7004	1336.2276	1347.8495	1376.1724	1398.676	1413.5407	1416.9263	1486.0609	1501.9423	1504.9452	1506.9131	1515.1783	1518.961	2939.8841	2968.4369	2999.1038	3013.0829	3034.1351	3050.3925	3096.8758	3099.3605	3101.7779	3103.3974	3107.7886	3187.7218	3472.6231
CCC1COCC11CN1	CC[C@H]1COC[C@]21CN2	
InChI=1S/C7H13NO/c1-2-6-3-9-5-7(6)4-8-7/h6,8H,2-5H2,1H3	InChI=1S/C7H13NO/c1-2-6-3-9-5-7(6)4-8-7/h6,8H,2-5H2,1H3/t6-,7-/m0/s1
