21
gdb 74995	2.96628	1.39034	1.13063	1.4767	84.6	-0.2307	0.0251	0.2558	1165.9094	0.184453	-387.099238	-387.091087	-387.090142	-387.131909	31.891	
C	-0.1362080604	 1.5566326232	 0.0525750283	-0.479878
C	-0.031327329	 0.0592155909	-0.0359449899	 0.322327
C	-0.129769094	-0.5972996653	-1.1970527385	-0.159985
C	 0.0324109677	-2.0791042133	-1.339840453	-0.118574
C	 1.5000976786	-2.5852999549	-1.4463152232	-0.07078
O	 1.4717835577	-3.081455241	-0.0943924502	-0.295779
C	 0.0418158795	-2.8652128775	-0.0022733924	 0.138069
C	-0.3698989678	-2.101473053	 1.2396500142	-0.23376
C	 0.2122178586	-0.6813270893	 1.2609078018	-0.296916
H	 0.767691741	 1.9890988398	 0.5016641928	 0.12416
H	-0.2788140259	 2.0142893594	-0.9301847659	 0.117851
H	-0.9732350923	 1.8570486049	 0.6963878796	 0.121561
H	-0.2935328873	-0.0349957154	-2.114647286	 0.074847
H	-0.6326050602	-2.4770864161	-2.1104437752	 0.073963
H	 1.6504042451	-3.3936757708	-2.1753800838	 0.092418
H	 2.2686998026	-1.8179860251	-1.5885230415	 0.101996
H	-0.4937474613	-3.8231006109	-0.0625212111	 0.064948
H	-1.4663310434	-2.0529426503	 1.2564766057	 0.099582
H	-0.0574932126	-2.6606158303	 2.128931436	 0.105264
H	 1.2925953138	-0.7402542264	 1.4491022522	 0.125055
H	-0.2108343306	-0.1165893786	 2.0998679601	 0.093634
86.6316	148.2203	182.1373	209.2448	316.0667	340.0203	392.9341	452.3398	489.3932	569.3265	662.0993	759.9252	788.8502	830.4482	857.9895	865.4177	926.9478	931.6612	979.6846	1009.1586	1029.3318	1040.509	1058.829	1086.6629	1099.9368	1132.4607	1164.9268	1177.8514	1201.6087	1224.9524	1245.5334	1296.9977	1324.6042	1344.6727	1363.7361	1376.4562	1395.213	1398.8524	1411.895	1466.9422	1476.7378	1481.8911	1490.0793	1520.9584	1729.5028	2994.2066	3002.1582	3011.4151	3020.2664	3028.6956	3055.7025	3057.8812	3063.1432	3073.3218	3073.8518	3107.9524	3137.2635
CC1=CC2COC2CC1	CC1=C[C@H]2CO[C@H]2CC1	
InChI=1S/C8H12O/c1-6-2-3-8-7(4-6)5-9-8/h4,7-8H,2-3,5H2,1H3	InChI=1S/C8H12O/c1-6-2-3-8-7(4-6)5-9-8/h4,7-8H,2-3,5H2,1H3/t7-,8-/m0/s1
