19
gdb 105550	1.8908	1.54699	1.26385	2.4455	82.17	-0.236	-0.0282	0.2078	1150.0117	0.156287	-385.870341	-385.860624	-385.859679	-385.905362	35.638	
C	-0.00885995	 1.6901718477	 0.023165727	-0.393496
C	 0.084724515	 0.164746771	 0.105613307	-0.235036
C	 0.6705718063	-0.495909485	-1.1595623626	 0.007906
C	 0.5735868419	-2.0698265849	-1.2226062893	-0.282624
C	-0.2036873022	-2.0029058083	-2.5685701615	-0.331061
C	-0.2986649177	-0.4847407268	-2.395819759	 0.372347
O	-0.9371762173	 0.3787968525	-2.9174683541	-0.286807
C	 1.9895077678	 0.0033021016	-1.5055898995	 0.31821
C	 3.0829932541	 0.3990851962	-1.8147347727	-0.475762
H	 0.9819412712	 2.1355433802	-0.1031843063	 0.130417
H	-0.6275765667	 1.996694071	-0.8240917702	 0.145796
H	-0.4505944936	 2.0953195849	 0.9385004847	 0.1105
H	 0.7037071957	-0.1349449559	 0.960025188	 0.108695
H	-0.9116655192	-0.262355122	 0.2745251675	 0.098108
H	 1.5326998956	-2.5846513793	-1.253347817	 0.12105
H	-0.0250634922	-2.4683540471	-0.4007725415	 0.11421
H	 0.4030029532	-2.267312051	-3.4404552045	 0.145118
H	-1.1583650334	-2.5296841681	-2.6407272337	 0.133596
H	 4.0460876318	 0.7564951131	-2.0839170624	 0.198831
37.6516	108.8861	115.1628	164.4753	181.0708	249.2802	271.6271	365.0942	387.8601	492.7804	518.642	549.1546	612.751	634.3964	647.0443	722.5264	744.4489	793.7988	887.1371	907.6431	937.1	1005.6026	1029.5768	1056.5277	1071.1785	1117.9763	1162.4165	1200.8962	1217.0609	1244.1601	1265.0047	1314.2103	1357.7984	1413.446	1437.4243	1485.0457	1488.013	1495.378	1512.0512	1890.0685	2223.9754	3022.7175	3046.2522	3060.0278	3061.7199	3082.5178	3115.0194	3115.2961	3129.7453	3151.1672	3501.1078
CCC1(CCC1=O)C#C	CC[C@]1(CCC1=O)C#C	
InChI=1S/C8H10O/c1-3-8(4-2)6-5-7(8)9/h1H,4-6H2,2H3	InChI=1S/C8H10O/c1-3-8(4-2)6-5-7(8)9/h1H,4-6H2,2H3/t8-/m0/s1
