23
gdb 90763	3.06717	1.27298	1.11176	1.6879	83.84	-0.2505	0.0643	0.3148	1207.0165	0.207544	-388.297819	-388.289121	-388.288177	-388.330784	34.818	
C	 0.3199465355	 1.6058407713	-0.081525737	-0.41196
C	 0.1164162402	 0.1009701803	 0.027017056	 0.05298
C	 0.8329048611	-0.8188605622	-1.0037708281	-0.26952
C	 1.315822491	-1.7454489965	 0.1488026293	-0.02605
C	 0.7806729409	-0.7012072006	 1.1963787963	-0.038659
C	 2.0383612627	-0.1099591062	 1.8689855167	-0.236822
C	 3.2190338482	-0.4740785721	 0.9420386982	-0.239454
C	 2.8321094662	-1.8467383369	 0.3540077975	 0.137637
O	 3.1814536851	-2.9211902274	 1.2242999833	-0.445514
H	 1.3812216763	 1.8756521393	-0.1106122896	 0.11538
H	-0.138967129	 1.990750313	-0.9992691523	 0.113519
H	-0.1354004713	 2.1358773404	 0.7628599435	 0.113193
H	-0.9588827233	-0.1073176258	 0.0242304693	 0.070081
H	 0.1922325265	-1.2872526298	-1.7548092196	 0.096706
H	 1.6558959803	-0.3227818932	-1.5295355036	 0.09351
H	 0.8523429411	-2.7335910679	 0.1552067291	 0.066971
H	 0.0644178853	-1.0594531457	 1.9396189793	 0.059619
H	 1.963095944	 0.9651936729	 2.0554067395	 0.100056
H	 2.1774187438	-0.5790547631	 2.851128826	 0.088969
H	 3.3147803458	 0.2620944523	 0.1360903758	 0.100169
H	 4.1814813836	-0.521646825	 1.4577891392	 0.102016
H	 3.3620290493	-2.0610393688	-0.5796121165	 0.079793
H	 2.7008537669	-2.8024982082	 2.0502513378	 0.277379
82.5604	150.2604	228.2219	239.0357	266.2451	279.0366	344.2764	382.6355	430.459	479.0686	586.2133	687.248	718.6897	761.8851	824.3647	828.9367	859.8929	901.8598	915.5113	936.1649	970.4483	990.0312	999.5874	1031.5515	1066.325	1094.3825	1118.4474	1122.3848	1132.8053	1191.5663	1193.5069	1208.8174	1249.1496	1265.8576	1269.2535	1282.2078	1310.2274	1315.6119	1325.1774	1339.1636	1355.1974	1372.783	1414.6931	1425.4584	1477.5598	1488.566	1495.6527	1500.6181	1508.0189	3024.1003	3025.4404	3035.4781	3041.3525	3046.265	3065.5388	3070.5276	3083.36	3088.4138	3088.7677	3096.0399	3101.3128	3106.4871	3810.5707
CC1CC2C1CCC2O	C[C@H]1C[C@@H]2[C@H]1CC[C@H]2O	
InChI=1S/C8H14O/c1-5-4-7-6(5)2-3-8(7)9/h5-9H,2-4H2,1H3	InChI=1S/C8H14O/c1-5-4-7-6(5)2-3-8(7)9/h5-9H,2-4H2,1H3/t5-,6-,7+,8+/m0/s1
