19
gdb 62086	3.57327	0.81721	0.77759	5.5515	73.13	-0.245	0.0249	0.2699	1503.9343	0.157932	-456.407806	-456.397178	-456.396234	-456.445534	36.718	
C	 0.1117412112	 1.4102935224	 0.6138897531	-0.386155
C	-0.0096035521	-0.0552599539	 0.1568274014	-0.101535
C	 0.6951338658	-1.023627283	 1.1252197197	-0.164998
N	 2.1421317397	-0.8663675191	 1.1425154354	-0.279332
C	 2.8148723325	-0.2189706067	 2.1315114937	 0.152804
O	 2.3027634722	 0.3546223911	 3.0692688887	-0.323967
C	-1.4839596964	-0.4550097836	 0.0354293383	 0.410754
N	-2.1184710244	 0.0113060734	-1.0827696159	-0.525623
O	-2.0514621304	-1.1420964737	 0.8631287298	-0.359193
H	 1.1611861551	 1.6954927673	 0.7162983198	 0.136783
H	-0.3579222115	 2.0939518912	-0.1000955238	 0.101817
H	-0.3674741675	 1.5490400065	 1.5871417835	 0.147425
H	 0.453438137	-0.1518321282	-0.8354080928	 0.073379
H	 0.3349614565	-0.8559296668	 2.1410274679	 0.162152
H	 0.451275484	-2.0553288337	 0.8579525253	 0.119764
H	 2.687156721	-1.3187642981	 0.4259736459	 0.245533
H	 3.912319551	-0.2718408383	 1.9811998301	 0.072123
H	-1.6883520108	 0.6808396183	-1.6967101793	 0.257553
H	-3.1163260731	-0.1145159149	-1.1406507406	 0.260716
20.4679	40.6836	60.8206	157.4199	202.0439	222.9111	246.5598	263.929	274.4335	342.3012	387.2574	486.0602	534.9527	563.3991	610.9117	741.2241	753.3771	808.8283	891.0031	939.702	989.5453	1030.52	1045.8398	1098.8464	1119.0336	1159.197	1210.6017	1259.1476	1288.25	1352.4811	1362.1719	1404.3219	1417.0201	1431.2633	1469.1865	1493.1678	1496.5407	1533.0402	1618.7659	1792.0275	1806.8504	2927.2927	3006.4946	3044.0541	3072.5297	3113.1844	3130.8983	3141.806	3597.1265	3632.9028	3731.6638
CC(CNC=O)C(N)=O	C[C@@H](CNC=O)C(=O)N	
InChI=1S/C5H10N2O2/c1-4(5(6)9)2-7-3-8/h3-4H,2H2,1H3,(H2,6,9)(H,7,8)	InChI=1S/C5H10N2O2/c1-4(5(6)9)2-7-3-8/h3-4H,2H2,1H3,(H2,6,9)(H,7,8)/t4-/m0/s1
