22
gdb 61235	2.76937	0.93547	0.77183	4.2187	86.88	-0.281	0.0368	0.3178	1531.8944	0.193108	-367.227726	-367.217511	-367.216567	-367.263309	37.438	
C	 0.2007126121	 1.0882879376	-1.3025071645	-0.400833
C	 1.0446715965	-0.1212493823	-0.8787327982	-0.000698
C	 2.54776351	 0.0988490456	-1.1936600824	-0.342616
C	 2.8171520913	 0.2891944222	-2.6170662602	 0.260821
N	 3.0102520667	 0.4306820076	-3.7479511085	-0.315412
C	 0.8773318116	-0.4184182101	 0.6003575798	 0.01237
C	-0.3085271148	-1.203915985	 1.1069679947	-0.31536
C	 1.0791222765	-1.7895521548	 1.214269948	-0.005611
C	 1.4685108766	-3.0162748984	 0.4166398614	-0.41372
H	 0.4964266497	 1.9855770811	-0.7460416763	 0.114404
H	 0.3153846608	 1.3005403384	-2.3694242971	 0.139107
H	-0.8583034291	 0.9054578057	-1.100588731	 0.123694
H	 0.7128793742	-0.9883682463	-1.4606469034	 0.092075
H	 2.9153751994	 0.977563582	-0.6492472816	 0.145998
H	 3.1328273246	-0.7572993355	-0.8421531176	 0.152939
H	 1.1857763599	 0.4135702088	 1.2322078003	 0.080204
H	-0.8168415503	-0.8696254105	 2.0046508649	 0.112812
H	-0.9691656795	-1.6380533464	 0.3615491121	 0.111654
H	 1.5104692178	-1.7707929389	 2.2121717549	 0.086053
H	 1.0080476466	-3.0272892709	-0.5752728695	 0.1215
H	 2.5540194126	-3.0858591276	 0.2821761754	 0.117317
H	 1.1445689868	-3.9264608423	 0.9329706789	 0.123301
54.0714	75.9333	120.5291	162.3431	211.8291	230.2835	245.904	316.8445	344.8551	364.9938	397.4953	429.1216	529.1623	569.3948	773.3613	799.7623	852.2892	868.6356	887.3468	919.7745	938.6822	974.2594	1022.7319	1036.6137	1071.4737	1103.8672	1116.8738	1122.7578	1151.6942	1188.8725	1198.9947	1239.6875	1253.9308	1285.8049	1337.3631	1355.4193	1395.3851	1411.8801	1424.1025	1434.2708	1462.7256	1492.7267	1494.5534	1499.436	1499.6363	1510.1358	2358.2407	3030.1464	3032.5409	3036.4916	3048.0297	3085.617	3087.1555	3101.6798	3107.9694	3111.4216	3119.3097	3122.9891	3137.4539	3207.8775
CC(CC#N)C1CC1C	C[C@@H](CC#N)[C@H]1C[C@H]1C	
InChI=1S/C8H13N/c1-6(3-4-9)8-5-7(8)2/h6-8H,3,5H2,1-2H3	InChI=1S/C8H13N/c1-6(3-4-9)8-5-7(8)2/h6-8H,3,5H2,1-2H3/t6-,7+,8+/m0/s1
