19
gdb 56237	3.61509	0.87776	0.74846	9.1685	73.88	-0.2311	0.0069	0.238	1486.8377	0.15942	-456.402603	-456.393064	-456.39212	-456.437443	35.03	
N	-0.6175778721	 0.6416539203	-1.0909457296	-0.523658
C	-0.1664315187	-0.1723200819	-0.207023269	 0.400424
N	 0.7316036828	 0.1537048606	 0.7736750302	-0.536016
H	 0.8871799208	-0.4862482803	 1.5343783708	 0.263259
H	 0.9215355052	 1.1234898485	 0.9681290089	 0.258209
C	-0.574068324	-1.6341443313	-0.2158062494	-0.268832
C	-1.5096313417	-2.0397638114	-1.3582231166	-0.213516
C	-2.9440584893	-1.4538489832	-1.2564615891	-0.316567
C	-3.4086202523	-0.7332197038	-2.5246169788	 0.382506
O	-2.6192077192	 0.2673448148	-2.9287983054	-0.382656
O	-4.4116573212	-1.0349504536	-3.1208061254	-0.339364
H	-0.2594273757	 1.5893100133	-0.97696812	 0.214839
H	-1.8668814707	 0.4070637374	-2.2900151382	 0.334224
H	 0.3469431952	-2.2300650299	-0.2561158988	 0.126589
H	-1.037007879	-1.8634983394	 0.7544152483	 0.121672
H	-1.0477872031	-1.7473501707	-2.3051559089	 0.132192
H	-1.5692714427	-3.1318626619	-1.3714692584	 0.109403
H	-3.6756767303	-2.2357354729	-1.0490467547	 0.121605
H	-2.9945430342	-0.7310576447	-0.433568926	 0.115689
55.1647	103.7992	119.7319	164.3268	222.5542	284.9472	300.8938	304.8633	431.331	445.3517	477.8897	543.2506	580.1454	615.5685	704.2538	765.5803	843.1063	857.499	886.1677	933.6143	938.9277	1007.8018	1053.8644	1077.8778	1101.5518	1166.6836	1188.8755	1218.074	1279.5008	1308.3463	1324.1974	1351.5293	1386.0322	1450.8545	1466.2029	1477.1427	1491.6757	1497.8355	1644.6083	1712.689	1851.3478	3014.8464	3044.115	3047.5278	3063.9242	3098.7767	3124.0739	3159.5022	3477.8735	3596.8128	3714.2999
NC(=[NH2+])CCCC([O-])=O	N=C(N)CCCC(=O)O	
InChI=1S/C5H10N2O2/c6-4(7)2-1-3-5(8)9/h1-3H2,(H3,6,7)(H,8,9)	InChI=1S/C5H10N2O2/c6-4(7)2-1-3-5(8)9/h1-3H2,(H3,6,7)(H,8,9)
