18
gdb 68458	2.40878	2.04369	1.34356	3.6504	71.45	-0.231	0.0191	0.25	975.9798	0.14916	-439.114941	-439.107174	-439.10623	-439.146892	30.486	
C	-0.0674915726	 1.5282621678	 0.0103331612	-0.474616
C	 0.0498924262	 0.0297830306	-0.031651363	 0.268837
C	 0.7712692497	-0.7049184055	-1.1886595866	-0.291727
C	-0.3759224005	-1.7108816653	-0.9781299383	 0.090053
C	-0.0558312971	-2.7115856623	 0.1300806547	-0.162797
N	 0.4830910687	-1.9631160107	 1.25979122	-0.327896
C	 0.5130720121	-0.5949463921	 1.3002686124	 0.415398
O	 0.8802834155	 0.0434156526	 2.2658203816	-0.383369
O	-1.1942042322	-0.6599004692	-0.4012276202	-0.321941
H	 0.9023596494	 1.9726615991	 0.248195579	 0.138073
H	-0.4148216247	 1.9058922639	-0.9546055314	 0.115858
H	-0.7709927338	 1.833107778	 0.7894534781	 0.142296
H	 0.6691977094	-0.1610890173	-2.1294724019	 0.114217
H	 1.8011123432	-1.0359156914	-1.0410833342	 0.112928
H	-0.8449644144	-2.1906418786	-1.8403584069	 0.085355
H	-0.9733515682	-3.242071619	 0.416724896	 0.119948
H	 0.6700660007	-3.4548328128	-0.2265051146	 0.110356
H	 0.7009367985	-2.4373789778	 2.1233460543	 0.249029
110.1601	169.0817	227.8926	268.8391	319.138	383.107	424.2836	469.4104	503.7166	540.8591	648.5712	698.2734	754.834	809.6796	849.3501	869.7335	895.8181	940.6339	990.623	1008.4392	1031.4015	1080.8356	1102.9526	1129.7369	1210.9707	1220.5445	1235.4964	1267.071	1313.8214	1325.9393	1346.304	1394.113	1412.678	1469.3005	1473.1053	1481.7285	1492.482	1515.7688	1805.958	3007.7748	3043.3928	3052.2374	3071.8834	3088.6974	3129.6168	3132.5472	3136.9464	3617.8564
CC12CC(CNC1=O)O2	C[C@@]12C[C@@H](CNC1=O)O2	
InChI=1S/C6H9NO2/c1-6-2-4(9-6)3-7-5(6)8/h4H,2-3H2,1H3,(H,7,8)	InChI=1S/C6H9NO2/c1-6-2-4(9-6)3-7-5(6)8/h4H,2-3H2,1H3,(H,7,8)/t4-,6+/m0/s1
