15
gdb 47888	2.36842	1.75492	1.29758	5.7659	62.03	-0.2711	-0.0451	0.226	984.0098	0.113629	-494.950368	-494.942837	-494.941893	-494.982607	27.905	
O	-0.1509762439	 0.7021279135	-1.2314666585	-0.303754
C	-0.0976551694	 1.3657610519	-0.2394212567	 0.311684
O	-1.2049793654	 1.6500299434	 0.4807050491	-0.218996
C	-1.0638378143	 2.486380491	 1.643655305	-0.095184
C	-0.825784759	 3.947304476	 1.2562767384	-0.224598
C	 0.2299765272	 4.0627203601	 0.1548796009	-0.095184
O	 1.3780657926	 3.2421949856	 0.43857944	-0.218997
C	 1.2568266006	 1.9039099727	 0.2976832606	 0.311682
O	 2.162463181	 1.1651150326	 0.5454948305	-0.303754
H	-1.9958553109	 2.3661883226	 2.1967832707	 0.140913
H	-0.2509931334	 2.1092537514	 2.2737863956	 0.148456
H	-1.7524013406	 4.4059701374	 0.8954934349	 0.129182
H	-0.5104841513	 4.4945378735	 2.1508594713	 0.129182
H	-0.1877141691	 3.7896325374	-0.8202941917	 0.148456
H	 0.6173649059	 5.0790697609	 0.0773068798	 0.140913
97.9698	127.2771	239.9142	273.2135	344.8702	353.9225	390.8015	424.8621	604.2693	614.2029	708.2005	737.864	805.8547	812.5268	878.5368	971.8389	1018.2395	1073.6184	1089.0497	1104.0452	1128.0261	1238.8636	1275.3828	1286.0889	1329.7804	1374.7716	1392.2397	1423.7013	1474.7017	1519.3392	1520.188	1852.7961	1868.1649	3050.6517	3052.8027	3055.1879	3098.2835	3132.7143	3132.7374
O=C1OCCCOC1=O	O=C1OCCCOC1=O	
InChI=1S/C5H6O4/c6-4-5(7)9-3-1-2-8-4/h1-3H2	InChI=1S/C5H6O4/c6-4-5(7)9-3-1-2-8-4/h1-3H2
