19
gdb 87778	4.05229	1.04551	1.03245	0.7497	76.58	-0.2467	0.0782	0.3249	1264.7401	0.156529	-422.976918	-422.968118	-422.967174	-423.010142	33.489	
C	-0.0881993386	 1.5055098768	-0.1124540975	-0.415745
C	-0.0550050185	 0.0123238018	 0.0782926763	-0.024151
O	 1.2339459616	-0.6308391976	-0.0540384901	-0.300332
C	 0.6050634299	-0.6265622439	 1.2147402657	 0.443835
C	 1.3098235537	-0.066632684	 2.4743005382	-0.388741
C	 0.9432274181	-1.394135772	 3.1801871063	 0.419663
C	 1.6542540052	-2.073080135	 4.3035404014	-0.500028
O	-0.4885796253	-1.4942371507	 3.1121869938	-0.283587
C	 0.2769615184	-1.9080527597	 1.9654208083	-0.163824
H	 0.7321461249	 1.9867086177	 0.426034501	 0.127599
H	-0.0003159609	 1.7615767597	-1.1734184979	 0.129852
H	-1.0357791854	 1.9132896884	 0.2555769787	 0.12699
H	-0.8624656624	-0.5399840607	-0.4058631911	 0.092351
H	 2.3823861241	 0.0505432814	 2.2971837988	 0.120842
H	 0.9009162167	 0.8368658315	 2.9331589773	 0.110462
H	 1.5578867989	-1.4951109888	 5.2296151176	 0.132208
H	 1.2309478704	-3.0659781351	 4.4765745959	 0.136406
H	 2.7209161321	-2.1772453278	 4.0812350928	 0.128663
H	 0.1323220672	-2.913934402	 1.5873683142	 0.107538
88.3866	144.7062	189.4523	194.8653	226.9482	291.2662	336.1159	414.6444	437.7549	446.4953	523.6063	560.155	670.8165	775.1919	797.9865	858.4772	868.9661	935.9113	970.6983	980.05	992.3961	1029.3926	1045.6163	1092.5327	1117.0912	1133.113	1158.7932	1181.8572	1212.2699	1234.2189	1250.2219	1354.7471	1402.3203	1409.5176	1447.6625	1465.0332	1478.0551	1483.569	1491.6864	1494.7082	1535.3807	3035.1478	3037.5093	3062.0198	3092.3382	3098.0684	3102.1193	3121.928	3123.3243	3126.8003	3186.1441
CC1OC11CC2(C)OC12	C[C@H]1O[C@]21C[C@@]1(C)O[C@@H]21	
InChI=1S/C7H10O2/c1-4-7(8-4)3-6(2)5(7)9-6/h4-5H,3H2,1-2H3	InChI=1S/C7H10O2/c1-4-7(8-4)3-6(2)5(7)9-6/h4-5H,3H2,1-2H3/t4-,5-,6-,7+/m1/s1
