19
gdb 69085	2.51136	1.57313	1.18831	1.2521	82.33	-0.2412	0.043	0.2843	1096.8873	0.158613	-385.85706	-385.848464	-385.84752	-385.889746	33.52	
C	-0.0527708625	 1.5389848729	 0.023144562	-0.482713
C	 0.057762266	 0.0369054349	-0.0048858257	 0.255107
C	-0.7729596279	-0.8314529403	 0.8972899157	-0.365219
C	 0.7344780749	-0.7768468318	 1.1051404704	 0.138282
C	 1.509569644	-1.8750766833	 0.377482674	-0.155145
O	 0.9298514328	-1.9542182007	-0.9172951638	-0.258469
C	 0.5075760495	-0.647537146	-1.288221477	-0.133654
C	 1.2982030296	-0.1854374562	 2.2762635019	 0.17341
C	 1.791725091	 0.3045871146	 3.2588048557	-0.401999
H	 0.8571790821	 2.0090115167	-0.3662357025	 0.122046
H	-0.8960300478	 1.8835952514	-0.5860487501	 0.121699
H	-0.2033394275	 1.9004123035	 1.0438769752	 0.133001
H	-1.3788956725	-0.3331495541	 1.6452345396	 0.121764
H	-1.1852525236	-1.7553145513	 0.5033636848	 0.126291
H	 2.5755992675	-1.6033620502	 0.3319605879	 0.100943
H	 1.4179957934	-2.8622404011	 0.8405348539	 0.115869
H	-0.2877503322	-0.761836065	-2.0327700271	 0.110735
H	 1.331287146	-0.0732104726	-1.7446368925	 0.091573
H	 2.2212815973	 0.7334013287	 4.1297968278	 0.186477
127.2457	139.2425	186.0359	223.2147	262.3319	310.9976	372.7015	402.5653	491.0987	523.6615	553.044	581.9108	620.6579	651.9221	705.7594	738.2074	881.5331	926.2891	939.964	959.0722	980.0693	1034.4762	1058.4628	1074.6197	1104.3653	1131.4445	1156.4618	1217.8797	1245.2832	1256.2046	1290.9508	1343.7141	1375.4489	1411.1409	1422.3161	1480.5334	1488.4613	1499.6423	1508.7752	1521.7086	2232.8589	2964.8376	2987.377	3029.7562	3065.4593	3080.4419	3088.9655	3114.8562	3130.3447	3225.2199	3503.3925
CC12CC1(COC2)C#C	C[C@]12C[C@]1(COC2)C#C	
InChI=1S/C8H10O/c1-3-8-4-7(8,2)5-9-6-8/h1H,4-6H2,2H3	InChI=1S/C8H10O/c1-3-8-4-7(8,2)5-9-6-8/h1H,4-6H2,2H3/t7-,8+/m1/s1
