23
gdb 75387	2.7853	1.18996	0.91863	0.4021	94.14	-0.2242	0.028	0.2522	1381.3737	0.206008	-351.179857	-351.170353	-351.169409	-351.21411	36.494	
C	-0.1368559273	 1.5802773809	 0.0656194974	-0.47874
C	-0.0469818423	 0.0794195453	 0.0098536782	 0.334968
C	-0.0840886876	-0.5974219233	-1.1381139558	-0.146691
C	 0.0014436418	-2.1019302894	-1.2549824253	-0.318263
C	 1.1526918601	-2.7940687935	-0.5527489242	-0.132267
C	 1.7986320674	-2.4747923493	 0.5731340838	 0.314916
C	 2.9596699576	-3.3175999908	 1.0446944168	-0.463826
C	 1.4923956883	-1.3083179599	 1.4891508301	-0.269289
C	 0.1136927302	-0.6477513841	 1.3275899686	-0.312648
H	 0.7479337841	 2.0138727261	 0.5509289204	 0.119861
H	-0.2258773402	 2.0202042567	-0.9314119995	 0.117145
H	-1.0018268301	 1.9028473129	 0.6603481517	 0.120227
H	-0.1956094252	-0.0480887542	-2.0705823484	 0.074762
H	-0.9478535635	-2.5532229085	-0.9175762086	 0.117428
H	 0.0629487709	-2.3639480351	-2.3168569753	 0.102785
H	 1.4895650842	-3.6946533782	-1.0649436531	 0.071873
H	 3.1815664048	-4.1319838011	 0.3501668071	 0.115817
H	 3.8681674326	-2.7102848893	 1.1547943284	 0.118008
H	 2.7599766566	-3.7541490106	 2.0322900542	 0.116775
H	 1.5900776744	-1.6644512337	 2.5247802568	 0.093787
H	 2.2786361312	-0.5464516963	 1.3762943593	 0.104932
H	-0.0397970702	 0.0494723835	 2.1584615083	 0.090698
H	-0.6586734279	-1.4218138883	 1.4272746292	 0.107743
42.7832	164.6449	181.4331	197.1519	232.9225	253.4576	311.1986	328.9543	357.3173	398.5341	458.3469	517.945	611.7569	668.7617	744.8256	764.8571	831.014	860.2207	877.8442	953.443	973.1903	986.5734	1008.6961	1043.8079	1056.9167	1064.085	1087.9818	1127.1017	1161.3035	1171.3584	1212.1328	1233.2491	1285.5848	1334.8064	1347.7309	1369.3274	1393.0414	1409.7089	1412.2095	1417.7107	1469.2996	1472.4289	1478.9081	1480.4179	1486.4127	1493.3817	1495.1585	1741.0154	1748.8932	2954.0458	2990.9431	3007.5463	3009.5203	3010.5719	3025.2914	3052.3525	3052.5518	3053.3077	3065.3823	3107.927	3109.2864	3125.0352	3143.3701
CC1=CCC=C(C)CC1	CC1=CCC=C(C)CC1	
InChI=1S/C9H14/c1-8-4-3-5-9(2)7-6-8/h4-5H,3,6-7H2,1-2H3	InChI=1S/C9H14/c1-8-4-3-5-9(2)7-6-8/h4-5H,3,6-7H2,1-2H3
