23
gdb 107196	3.59227	1.18708	1.06426	0.3101	88.19	-0.2361	0.0824	0.3185	1254.3395	0.207441	-351.144289	-351.135882	-351.134938	-351.176974	34.154	
C	-0.3712829767	 1.5079309084	-0.1135522223	-0.374135
C	 0.113441483	 0.059200969	 0.0292334014	-0.273997
C	 0.8380957667	-0.4594336493	-1.1966880221	 0.388932
C	 0.0249565651	-1.0306605142	-2.3347423871	-0.344236
C	 0.9256182779	-1.9394485655	-1.5278191133	-0.10161
C	 2.3255805045	-2.2557009746	-2.0167659249	-0.031752
C	 2.8193030846	-1.6761876279	-3.3206175162	-0.298609
C	 3.1201977875	-0.9635241993	-2.0259976531	-0.029287
C	 2.2042710763	 0.1651298524	-1.5404107771	-0.311127
H	 0.46679117	 2.1936494458	-0.2775414463	 0.116651
H	-1.0539020627	 1.6106580815	-0.9637166676	 0.116259
H	-0.8995295764	 1.839510435	 0.7860116068	 0.10795
H	 0.7747822572	-0.0194126199	 0.9034166934	 0.090748
H	-0.7458617171	-0.5909213161	 0.2369335585	 0.090108
H	-1.0441098017	-1.1301811597	-2.1692257711	 0.101477
H	 0.2769022859	-0.7898103002	-3.3613345557	 0.106472
H	 0.4514092634	-2.6760713716	-0.8876972897	 0.076391
H	 2.7655484589	-3.1853692314	-1.6740325222	 0.07867
H	 3.6485860173	-2.1849652239	-3.8018611362	 0.104719
H	 2.1137182705	-1.2464432202	-4.0225981908	 0.109195
H	 4.154533019	-0.9402185613	-1.6995478258	 0.079563
H	 2.1216884937	 0.9803194773	-2.2690728131	 0.10021
H	 2.6306594928	 0.6030340057	-0.6303099553	 0.09741
92.4647	133.6425	199.4223	248.1893	266.6412	350.7582	372.1821	419.9583	506.5548	608.397	666.6926	705.8778	771.1334	788.6118	800.429	843.1288	859.9877	892.9074	919.0544	935.3694	972.1395	990.6588	998.9287	1037.9696	1050.1678	1053.7521	1071.8996	1082.265	1092.9524	1104.7234	1110.9022	1142.1786	1188.6634	1222.7696	1253.4727	1254.7536	1313.6853	1321.4947	1351.0629	1362.1684	1383.2216	1402.1647	1410.3099	1478.0268	1484.5479	1489.6231	1499.0019	1507.2716	1511.8392	3007.1927	3027.7513	3032.2294	3043.9153	3061.46	3100.3483	3102.3869	3122.2496	3131.2385	3155.6862	3158.6288	3174.2425	3202.48	3212.2827
CCC12CC1C1CC1C2	CC[C@]12C[C@H]1[C@H]1C[C@H]1C2	
InChI=1S/C9H14/c1-2-9-4-6-3-7(6)8(9)5-9/h6-8H,2-5H2,1H3	InChI=1S/C9H14/c1-2-9-4-6-3-7(6)8(9)5-9/h6-8H,2-5H2,1H3/t6-,7-,8-,9-/m0/s1
