19
gdb 73450	2.27122	1.8771	1.54053	0.9135	74.09	-0.2177	0.0675	0.2852	975.9271	0.159496	-422.992957	-422.985027	-422.984083	-423.024766	31.76	
C	-0.0759732522	 1.4537034923	 0.0417472238	-0.490355
C	-0.0172207474	-0.0506596494	-0.0508447387	 0.257947
C	 1.0471710997	-0.7387772683	-0.9147966961	-0.280047
C	 0.4179903717	-2.1098099833	-1.2919241503	-0.214522
C	-0.6931644663	-2.2653043616	-0.2619914611	 0.019576
O	-0.0891288956	-2.2142101205	 1.0752531417	-0.310297
C	-0.465940369	-0.8424470725	 1.1903663916	-0.039096
C	-1.2973068004	-0.8482034085	-0.0578446425	 0.266899
O	-2.5240949499	-0.3551073338	-0.4388398802	-0.455633
H	 0.855387131	 1.8603203419	 0.4511309664	 0.117937
H	-0.2347493433	 1.9032363215	-0.9446683264	 0.123754
H	-0.8993063957	 1.7811218107	 0.6841953262	 0.120549
H	 1.2749546168	-0.1375909763	-1.800558694	 0.098022
H	 1.9816264365	-0.8692679195	-0.3606201684	 0.109028
H	-0.0171766102	-2.086271437	-2.2982333015	 0.102243
H	 1.1337125064	-2.9353638382	-1.2506221018	 0.106892
H	-1.3586989971	-3.1251431712	-0.3686442213	 0.074855
H	-0.5740365172	-0.4157304847	 2.1814724319	 0.101784
H	-3.2061803278	-0.7859477116	 0.0887071008	 0.290465
182.3611	191.3174	213.6825	219.7863	302.1611	356.305	372.9981	415.7413	509.9093	559.6816	656.2554	677.8576	734.7711	784.8914	834.4121	870.8299	913.3507	937.1268	953.666	995.2069	1006.3201	1017.3647	1058.5205	1081.1864	1109.1181	1165.3827	1178.7512	1221.4601	1234.437	1267.516	1273.6327	1302.905	1311.1433	1333.1461	1358.3946	1418.3579	1471.7125	1475.1809	1487.5898	1496.1306	1513.163	3027.736	3036.9805	3050.619	3083.2069	3088.2733	3090.6155	3102.1068	3102.8199	3175.4827	3789.1742
CC12CCC3OC1C23O	C[C@@]12CC[C@H]3O[C@@H]1[C@@]23O	
InChI=1S/C7H10O2/c1-6-3-2-4-7(6,8)5(6)9-4/h4-5,8H,2-3H2,1H3	InChI=1S/C7H10O2/c1-6-3-2-4-7(6,8)5(6)9-4/h4-5,8H,2-3H2,1H3/t4-,5+,6-,7-/m1/s1
