21
gdb 90896	2.33822	1.97779	1.43309	1.519	80.72	-0.2236	0.0831	0.3067	1011.0568	0.18317	-387.071622	-387.063652	-387.062707	-387.103403	32.609	
C	-0.1345313315	 1.5428054305	-0.0434680361	-0.413526
C	 0.042236239	 0.0355800504	 0.0244637025	 0.116459
O	 0.8387200856	-0.4001211178	-1.0923408273	-0.284842
C	 1.5381189766	-1.5483956123	-0.6664812819	 0.109139
C	 2.5864296986	-1.4008807501	 0.4191029985	-0.101169
C	 2.2905489787	-0.1337097458	 1.2156501802	-0.279527
C	 0.7736904932	-0.5468499659	 1.2496292787	 0.291926
C	 0.0405351159	-0.4368523934	 2.5697910984	-0.500771
C	 1.1885217326	-1.9556368929	 0.7199503412	-0.174945
H	 0.8212660302	 2.064752169	 0.0531979213	 0.122851
H	-0.5780356708	 1.8236011587	-1.0027926296	 0.12803
H	-0.8036495441	 1.8858331518	 0.7519645558	 0.114368
H	-0.9504504719	-0.4449530543	-0.0405360843	 0.059226
H	 1.7017627502	-2.2764712294	-1.4520466795	 0.097756
H	 3.5317710185	-1.9304594531	 0.3770602256	 0.080156
H	 2.7260548016	-0.1726242373	 2.2177720253	 0.097872
H	 2.5461809697	 0.8245339352	 0.7524978663	 0.098231
H	-0.0680815248	 0.6089869796	 2.8780545979	 0.120276
H	-0.9638960468	-0.8715875982	 2.5030726148	 0.116473
H	 0.579301255	-0.9621717671	 3.3646285448	 0.119316
H	 0.8479805145	-2.9248299778	 1.0614709771	 0.082702
156.1328	208.7457	227.5344	237.3996	287.1447	313.3139	389.7341	479.4994	521.2239	582.3306	622.2993	723.3359	758.239	787.8127	823.9824	858.9005	876.4398	910.2962	952.9726	970.3696	1003.6354	1015.5622	1030.5702	1060.5986	1063.1679	1095.5663	1123.9692	1133.5412	1146.9055	1176.472	1198.1771	1238.4829	1262.4583	1292.9628	1312.9097	1362.0832	1383.8445	1399.6476	1410.9872	1413.365	1483.5321	1489.8644	1495.3867	1496.1455	1502.1416	2937.68	3024.255	3043.476	3048.4018	3087.3738	3096.0871	3100.1042	3114.4564	3122.881	3168.0649	3183.5692	3196.1428
CC1OC2C3CC1(C)C23	C[C@H]1O[C@H]2[C@H]3C[C@]1(C)[C@@H]23	
InChI=1S/C8H12O/c1-4-8(2)3-5-6(8)7(5)9-4/h4-7H,3H2,1-2H3	InChI=1S/C8H12O/c1-4-8(2)3-5-6(8)7(5)9-4/h4-7H,3H2,1-2H3/t4-,5+,6-,7+,8+/m1/s1
