23
gdb 116030	2.32251	1.29994	0.94523	1.3183	87.13	-0.2354	0.0327	0.2681	1325.1183	0.206922	-388.30677	-388.297376	-388.296432	-388.340556	36.301	
C	-0.1543066219	 1.5895747006	-0.095640324	-0.393307
C	 0.024444166	 0.0602055827	 0.0111691959	-0.041618
C	 0.6952783002	-0.4783667087	-1.2313009357	-0.060483
C	 1.9266527475	-0.9868648569	-1.2641880398	-0.050604
C	 2.8225805962	-1.081738332	-0.0572682191	-0.264576
C	 2.2983425037	-0.2379700522	 1.1119483975	-0.204161
C	 0.7810956895	-0.413833248	 1.275562604	 0.041728
C	 0.262698534	 0.2286741801	 2.5596887016	-0.112904
O	 0.8164660229	-0.4869630623	 3.6576737	-0.425293
H	 0.8089760897	 2.1084855125	-0.0706812402	 0.119601
H	-0.6394053802	 1.8496517182	-1.0422599318	 0.111467
H	-0.778424175	 1.9835571903	 0.7125768382	 0.111321
H	-0.9874661662	-0.3696971504	 0.0537729204	 0.072923
H	 0.1124122951	-0.4232060565	-2.149142092	 0.077677
H	 2.324390284	-1.3644945227	-2.2038975399	 0.079779
H	 2.9114767819	-2.1353769186	 0.2481827215	 0.108236
H	 3.8407890008	-0.772205321	-0.3257755525	 0.098172
H	 2.7999726816	-0.511956308	 2.043728113	 0.109058
H	 2.5253514417	 0.820252124	 0.9264540677	 0.090874
H	 0.585579216	-1.4903712642	 1.3791270564	 0.082118
H	 0.5516117269	 1.2903589834	 2.6001912349	 0.084939
H	-0.8392477507	 0.1863766772	 2.5797229542	 0.079995
H	 0.5794540862	-0.0259611974	 4.4671777798	 0.28506
100.9207	134.5324	157.4853	218.829	239.5474	260.8015	282.8384	302.6354	370.0664	448.966	488.8587	498.9649	582.6355	717.2154	753.6047	785.5956	844.1028	885.8505	929.2286	952.276	999.1637	1010.2878	1024.4663	1037.2944	1062.5695	1092.9213	1105.3407	1113.6793	1143.8489	1181.1279	1221.3662	1243.0123	1263.8554	1277.1616	1317.7248	1336.6821	1347.5193	1355.6848	1370.3092	1401.8975	1407.2195	1422.5734	1457.1094	1475.3133	1493.5084	1498.6199	1505.3948	1522.0885	1723.6327	2956.7771	2984.7965	2991.7165	2995.1659	3012.1853	3024.3394	3034.2304	3040.6333	3094.1295	3098.59	3108.897	3130.1871	3155.7934	3834.3712
CC1C=CCCC1CO	C[C@H]1C=CCC[C@H]1CO	
InChI=1S/C8H14O/c1-7-4-2-3-5-8(7)6-9/h2,4,7-9H,3,5-6H2,1H3	InChI=1S/C8H14O/c1-7-4-2-3-5-8(7)6-9/h2,4,7-9H,3,5-6H2,1H3/t7-,8-/m0/s1
