16
gdb 19270	3.20825	1.96571	1.39997	2.2852	65.64	-0.2239	-0.0166	0.2073	901.4625	0.129638	-383.714213	-383.706576	-383.705632	-383.746467	27.687	
C	-0.2249722498	 1.285676919	-0.0388721947	-0.246043
O	 0.3536455441	 0.0057021533	 0.1543568941	-0.246952
C	 0.7789775701	-0.588326361	-1.0388014529	 0.00984
C	 1.371877206	-1.9874603875	-0.8906473634	-0.082983
C	 0.3328437875	-2.9176324193	-0.3800443724	-0.2753
C	 0.312006668	-2.5763433122	-1.8678140558	-0.177895
C	-0.2700993246	-1.2082387497	-2.0297409126	 0.391773
O	-1.0998505069	-0.7249213795	-2.7490263209	-0.324631
H	 0.4997275136	 1.9883112975	-0.4785390398	 0.107208
H	-1.1046606594	 1.2397761293	-0.6923931552	 0.13798
H	-0.5222330388	 1.6522735316	 0.9459892873	 0.128038
H	 1.4361030958	 0.0880191135	-1.6119602746	 0.087805
H	 2.4291749389	-2.2141468663	-0.877706519	 0.107891
H	 0.6571264321	-3.931332396	-0.169988194	 0.128067
H	-0.448337316	-2.5490105108	 0.2753300012	 0.141054
H	 0.4116130592	-3.3417640318	-2.6265542475	 0.114148
88.307	116.1096	163.2084	212.5618	253.3288	363.6798	472.8726	513.2217	616.9987	702.4172	764.6769	840.0587	865.5422	913.7669	967.2895	990.3875	1012.9663	1037.661	1065.8244	1094.2486	1117.8451	1152.5618	1170.9516	1184.1405	1227.784	1234.892	1295.1048	1337.0115	1369.6266	1480.0772	1486.281	1493.2477	1512.3232	1875.5799	2964.1255	2987.2009	3058.9066	3124.9111	3136.9978	3202.6472	3212.1842	3224.8186
COC1C2CC2C1=O	CO[C@H]1[C@H]2C[C@H]2C1=O	
InChI=1S/C6H8O2/c1-8-6-4-2-3(4)5(6)7/h3-4,6H,2H2,1H3	InChI=1S/C6H8O2/c1-8-6-4-2-3(4)5(6)7/h3-4,6H,2H2,1H3/t3-,4+,6+/m1/s1
