17
gdb 67201	2.9451	1.52575	1.25556	4.8331	76.48	-0.2494	0.0176	0.267	1031.8554	0.136678	-380.810512	-380.802879	-380.801934	-380.842565	29.424	
C	-0.006172012	 1.5681086893	-0.1179145832	-0.528083
C	-0.0147162152	 0.0821293514	-0.0718799522	 0.379031
C	-0.006456696	-1.0390572083	-1.0711746989	-0.15105
C	 1.2436562245	-1.5917410467	-0.4160097582	-0.183189
N	 0.904769942	-0.7998034778	 0.8339842742	-0.198489
C	-0.3585808252	-1.5194138636	 1.2881813178	-0.139454
C	-0.8638306609	-0.9644063288	 2.5413077332	 0.297168
N	-1.2925222407	-0.5357739979	 3.5250724506	-0.32779
C	-1.0674681038	-0.9819296172	 0.0518192967	-0.119282
H	 0.9737190288	 1.9486831233	-0.4247267478	 0.134429
H	-0.7506940632	 1.9265877044	-0.8362125145	 0.131126
H	-0.2454192309	 1.9917464289	 0.8626284157	 0.14976
H	-0.3027791894	-1.0134605772	-2.1127825959	 0.101334
H	 1.3522238837	-2.6705044495	-0.2576341133	 0.106054
H	 2.1635749563	-1.191414312	-0.8484818757	 0.120162
H	-0.2347177078	-2.6023870153	 1.4023891339	 0.117233
H	-2.1277664803	-0.9177175531	-0.1548728724	 0.111041
101.2214	163.6097	206.0737	238.472	280.5223	408.1288	462.2225	501.6091	537.2056	611.3966	761.7201	794.8963	838.5318	854.7322	865.0798	900.7606	929.1588	982.462	990.1065	1023.1294	1029.5227	1048.145	1085.687	1135.6154	1147.3139	1167.418	1215.2591	1231.7384	1269.8328	1298.7303	1356.5833	1407.1948	1470.3247	1475.3574	1496.2512	1513.9018	2360.7344	3033.4262	3039.1237	3049.3972	3101.3148	3106.9645	3108.2845	3189.6628	3205.6788
CC12C3CN1C(C#N)C23	C[C@@]12[C@H]3CN1[C@@H](C#N)[C@@H]23	
InChI=1S/C7H8N2/c1-7-4-3-9(7)5(2-8)6(4)7/h4-6H,3H2,1H3	InChI=1S/C7H8N2/c1-7-4-3-9(7)5(2-8)6(4)7/h4-6H,3H2,1H3/t4-,5-,6-,7-/m0/s1
