15
gdb 25327	3.92985	1.25643	0.96372	7.6093	77.14	-0.236	-0.0316	0.2044	1152.9021	0.114576	-416.819948	-416.812713	-416.811768	-416.852095	26.472	
O	-0.1251339263	-0.0003572003	-0.1080921654	-0.27224
C	 0.0064426736	 1.196402386	-0.0003874135	 0.08211
C	 1.2655804517	 1.9326667693	-0.0096968147	 0.002711
C	 1.4468822889	 3.301305648	 0.1116643319	 0.300257
C	 1.1224590372	 4.7813563619	 0.2764356314	-0.38286
C	 2.6802630833	 4.9963871601	 0.1972935531	-0.172198
N	 2.7808355144	 3.5219978569	 0.0474285204	-0.013099
C	 3.4138787799	 2.3142205523	-0.1105804987	-0.027247
N	 2.5216770036	 1.3540734849	-0.1466101884	-0.287168
H	-0.8793311253	 1.8642865135	 0.1215932588	 0.049616
H	 0.5575420895	 5.2363709189	-0.5394802611	 0.143349
H	 0.6711524281	 5.064342912	 1.2293936802	 0.143351
H	 3.0410380858	 5.5458812516	-0.674280062	 0.144225
H	 3.1553234681	 5.372787604	 1.1052490453	 0.144227
H	 4.4831005374	 2.1957604208	-0.1907680974	 0.144968
93.7392	168.9051	172.8255	209.9358	317.5252	386.1747	521.0989	652.6749	687.956	688.2399	803.1939	806.7604	812.5626	853.3637	911.9232	1027.4507	1058.3815	1058.7314	1090.1641	1137.8984	1183.0699	1218.652	1236.5396	1279.779	1325.3887	1373.8145	1405.2648	1425.3222	1479.9036	1481.8967	1517.3397	1569.4968	1804.008	2843.3575	3076.7729	3081.43	3126.2547	3141.4605	3263.9862
O=CC1=C2CCN2C=N1	O=Cc1c2CCn2cn1	
InChI=1S/C6H6N2O/c9-3-5-6-1-2-8(6)4-7-5/h3-4H,1-2H2	InChI=1S/C6H6N2O/c9-3-5-6-1-2-8(6)4-7-5/h3-4H,1-2H2
