21
gdb 58781	2.5907	1.25437	1.17523	2.982	79.08	-0.2224	0.0682	0.2906	1204.8937	0.180127	-424.189673	-424.179937	-424.178993	-424.224144	36.57	
C	 0.0923426042	 1.5080508465	 0.1749153561	-0.410247
C	-0.0346791456	-0.0104948567	 0.0152258412	 0.005014
O	-1.4040114478	-0.4101243859	-0.0640865504	-0.439008
C	 0.6355025687	-0.5101000651	-1.229179884	 0.268397
C	 2.084140215	-0.9640012277	-1.3019518497	-0.407111
C	 0.9854273202	-1.9096617653	-1.6943383438	 0.417308
C	 0.737752608	-3.2817123691	-1.1602879926	-0.483465
O	 0.5730644998	-1.6372518598	-3.0416064577	-0.326824
C	 0.1286889199	-0.3077759	-2.6543364044	-0.138537
H	 1.1436761025	 1.8067952241	 0.2277921175	 0.124735
H	-0.374619106	 2.0224106857	-0.6709908708	 0.127133
H	-0.3989375465	 1.8469836699	 1.0946933134	 0.104018
H	 0.4467460416	-0.4958256156	 0.881237897	 0.061602
H	-1.8792985962	 0.0143969281	 0.6573259855	 0.281068
H	 2.7515400566	-0.5624048308	-2.0603144816	 0.108176
H	 2.5472128511	-1.1570012198	-0.3381875924	 0.109085
H	 1.0291798147	-3.3439426748	-0.1079133058	 0.119375
H	-0.3199425347	-3.5465177888	-1.2471176735	 0.135727
H	 1.3254606516	-4.0204230198	-1.7172867261	 0.129311
H	-0.9615157748	-0.2329212301	-2.7108130894	 0.119555
H	 0.5961705377	 0.4779396349	-3.2604939384	 0.094688
53.2224	109.0291	171.4911	199.3742	239.2859	264.5249	269.4246	283.3413	358.7287	383.9885	455.5675	501.4052	530.6507	620.7478	722.5562	772.9922	849.3975	888.9787	917.1916	943.1631	975.2328	985.8513	1017.4993	1048.1063	1067.9152	1084.886	1112.0091	1119.816	1156.2815	1172.8429	1213.838	1251.0905	1308.0559	1354.2337	1355.7862	1384.2757	1400.9568	1417.0888	1445.6412	1473.6334	1488.0082	1491.24	1497.5207	1514.4502	1524.1031	2951.6802	3022.3016	3026.9004	3034.1056	3086.7556	3094.5853	3099.5686	3106.7571	3115.2321	3118.8774	3197.6605	3816.5887
CC(O)C12CC1(C)OC2	C[C@@H](O)[C@@]12C[C@]1(C)OC2	
InChI=1S/C7H12O2/c1-5(8)7-3-6(7,2)9-4-7/h5,8H,3-4H2,1-2H3	InChI=1S/C7H12O2/c1-5(8)7-3-6(7,2)9-4-7/h5,8H,3-4H2,1-2H3/t5-,6+,7+/m1/s1
