25
gdb 58103	2.14022	1.1716	1.11998	2.6423	84.16	-0.2506	0.0651	0.3157	1332.8319	0.225221	-426.631337	-426.619688	-426.618744	-426.666842	44.506	
C	 0.187946069	 1.5158119817	-0.0697724145	-0.437845
C	-0.0194713343	 0.0075502978	 0.0812363579	 0.127948
O	 0.6235352532	-0.4594273119	 1.2703611226	-0.44311
C	-1.5006105183	-0.4873217874	 0.0136338714	 0.265147
C	-2.2687664844	-0.0632979679	 1.2788187725	-0.457761
C	-2.1939933318	 0.0932800646	-1.2324344965	-0.457769
C	-1.4334335216	-2.0464898797	-0.074204204	 0.127945
C	-2.7644237827	-2.7823850321	 0.0919271838	-0.437845
O	-0.7887395076	-2.4649417026	-1.2803594785	-0.443118
H	 1.2521021374	 1.7395916592	 0.0459624977	 0.125324
H	-0.1293660228	 1.8793983725	-1.0502981651	 0.120558
H	-0.358681305	 2.0856097682	 0.6918079773	 0.106381
H	 0.5112757035	-0.5008647661	-0.7293284449	 0.106293
H	 0.3192239769	 0.0863805036	 2.003019129	 0.276578
H	-2.1903065191	 1.0158491585	 1.4491642151	 0.109824
H	-3.3342594636	-0.2933429039	 1.1929899647	 0.118115
H	-1.8912551905	-0.5760569054	 2.1695831866	 0.115128
H	-1.595968722	-0.0645229546	-2.135962969	 0.11514
H	-3.1763282335	-0.3645628926	-1.3909576774	 0.109823
H	-2.3592593387	 1.1693187992	-1.1305079351	 0.118111
H	-0.7541362094	-2.3696538551	 0.7203507785	 0.106302
H	-3.5058312177	-2.46699627	-0.6525985449	 0.106376
H	-2.5943674617	-3.8545736255	-0.0399540346	 0.125321
H	-3.1997454103	-2.6283729218	 1.0824270803	 0.120557
H	-1.4204589147	-2.3674974487	-2.0005920229	 0.276577
87.7297	93.0431	183.8549	218.5488	222.9762	244.3351	258.6351	276.2037	290.7115	308.6381	324.1483	334.863	343.2204	359.0685	428.1062	454.3148	487.1963	506.6236	606.6015	698.0216	800.9126	899.4688	917.7562	926.1602	942.3402	1006.3248	1017.2539	1053.5995	1055.2479	1091.5289	1103.139	1126.9071	1159.6479	1239.7798	1258.221	1291.0101	1308.2287	1351.4598	1366.8975	1390.3898	1398.7995	1401.2987	1418.0676	1431.0903	1436.1991	1483.26	1492.4703	1494.921	1496.2159	1500.4312	1509.2615	1514.0452	1517.8576	3027.1385	3027.4998	3032.1717	3037.0576	3068.5926	3070.3576	3092.7165	3097.094	3101.9439	3103.7758	3106.8941	3107.008	3122.9626	3123.1275	3807.4889	3807.6598
CC(O)C(C)(C)C(C)O	C[C@@H](O)C(C)(C)[C@@H](C)O	
InChI=1S/C7H16O2/c1-5(8)7(3,4)6(2)9/h5-6,8-9H,1-4H3	InChI=1S/C7H16O2/c1-5(8)7(3,4)6(2)9/h5-6,8-9H,1-4H3/t5-,6-/m1/s1
