17
gdb 43698	5.85107	0.64544	0.62281	3.1497	74.62	-0.2615	0.0197	0.2812	1711.6904	0.136005	-418.048325	-418.039438	-418.038493	-418.083076	31.658	
O	 0.1807628352	-0.02673448	-0.1469805555	-0.345243
C	 0.0370302443	 1.1575664365	-0.0299354145	 0.434048
C	-1.1564672035	 2.1363611167	 0.0886594112	-0.413718
C	-0.0880783051	 3.2695142706	 0.0505886439	 0.049825
C	-0.0319087158	 4.199534973	 1.256809734	-0.193227
C	 1.2229784635	 5.0955035925	 1.2440321601	-0.345377
C	 1.2695503432	 6.0114651514	 2.3811222127	 0.260436
N	 1.2886393659	 6.7301736821	 3.285558491	-0.297495
N	 0.9326507174	 2.2073024639	 0.0213780281	-0.331638
H	-1.8403801615	 2.1036778119	-0.7606406597	 0.139659
H	-1.7210399195	 2.0580658101	 1.0197767068	 0.136869
H	-0.1177752509	 3.8523267787	-0.8791217177	 0.089789
H	-0.9274984167	 4.8302913482	 1.2627820641	 0.129761
H	-0.0437023091	 3.6054651498	 2.1764620116	 0.129028
H	 2.1269804741	 4.4756089828	 1.2633280137	 0.152977
H	 1.2609925501	 5.6864000247	 0.3209015011	 0.153215
H	 1.9126874585	 2.2287008071	-0.2224216009	 0.251092
51.2076	90.7163	96.1238	135.9058	228.1564	330.6941	386.2642	401.7648	437.1267	513.9699	547.9259	565.9135	724.4216	783.923	830.3033	920.6518	933.1598	956.6502	1010.4906	1039.3966	1059.2643	1085.8337	1137.3451	1173.9391	1195.1962	1220.7319	1256.8246	1301.5419	1323.6396	1367.3254	1384.5082	1408.3621	1459.9801	1467.7357	1484.9306	1904.5008	2364.9173	3021.2929	3035.7288	3050.4278	3072.4613	3088.0569	3101.4234	3147.6519	3600.9064
O=C1CC(CCC#N)N1	O=C1C[C@@H](CCC#N)N1	
InChI=1S/C6H8N2O/c7-3-1-2-5-4-6(9)8-5/h5H,1-2,4H2,(H,8,9)	InChI=1S/C6H8N2O/c7-3-1-2-5-4-6(9)8-5/h5H,1-2,4H2,(H,8,9)/t5-/m1/s1
