17
gdb 36297	3.40545	1.2223	1.13951	4.487	76.77	-0.2328	-0.0071	0.2257	1108.943	0.137513	-380.860363	-380.852776	-380.851831	-380.89289	29.022	
N	-0.3508022182	-0.4676048363	 1.8490373463	-0.311935
C	-0.216694992	 0.352101451	 1.0454381542	 0.272304
C	-0.0446066639	 1.3941152904	 0.0312857034	-0.382479
C	 1.3386389124	 2.0261288273	 0.0744037418	 0.007762
C	 1.5798197855	 3.4771102148	-0.2154481788	-0.101245
C	 0.4249689486	 4.411423874	-0.1165563231	-0.078235
C	-0.0508294172	 4.4258863243	 1.1302935325	-0.089872
C	 0.7626465409	 3.5088843262	 2.0162942896	-0.21844
N	 1.8049503811	 2.9163567406	 1.1428950565	-0.107321
H	-0.1953291444	 0.9408099127	-0.9554765424	 0.155925
H	-0.8303113985	 2.1436302578	 0.160613448	 0.158054
H	 2.1196423631	 1.331599682	-0.2298062578	 0.112862
H	 2.4537025261	 3.7628011541	-0.7963879014	 0.102142
H	 0.0528342983	 4.9867147484	-0.9550659589	 0.108696
H	-0.9045704244	 4.9919308826	 1.4845763298	 0.110206
H	 1.256669909	 4.0568027624	 2.8285884686	 0.125547
H	 0.1623501736	 2.7231041274	 2.4928918518	 0.136029
59.8997	124.176	229.5774	244.7963	363.3263	392.7796	445.9848	553.1419	574.3726	716.4679	732.2395	760.6753	772.6875	846.1826	887.9336	935.9172	950.2531	955.0322	966.9591	1022.2162	1042.7974	1064.7373	1105.5609	1125.863	1130.543	1206.2567	1232.3199	1282.5186	1310.512	1316.5806	1348.8189	1373.5753	1415.7847	1461.2725	1496.7718	1662.7529	2359.955	3021.8891	3046.7224	3049.6658	3094.2674	3121.8704	3135.0834	3197.3319	3223.125
N#CCC1C2C=CCN12	N#CC[C@H]1[C@H]2C=CCN12	
InChI=1S/C7H8N2/c8-4-3-7-6-2-1-5-9(6)7/h1-2,6-7H,3,5H2	InChI=1S/C7H8N2/c8-4-3-7-6-2-1-5-9(6)7/h1-2,6-7H,3,5H2/t6-,7+,9?/m1/s1
