18
gdb 79007	3.81374	1.73083	1.46167	1.0995	80.1	-0.2113	-0.0011	0.2102	929.393	0.148301	-364.669768	-364.663146	-364.662201	-364.70023	28.211	
C	 0.0342567413	 1.5356391837	-0.1476119848	-0.333902
N	-0.0178338441	 0.0776392838	-0.0816280946	-0.203795
C	-1.1726718594	-0.5128509648	 0.7354056596	-0.079671
C	-0.3408169696	-1.7770475442	 1.0438673722	-0.033919
C	-0.2705174793	-1.6784432595	 2.5977062049	-0.172621
C	 1.2536292719	-1.7005842964	 2.8881258045	-0.076556
C	 1.837179166	-0.97460343	 1.9196567657	-0.250067
C	 0.6185925746	-0.5561442709	 1.1164511282	 0.345161
C	-0.532929873	-0.2139974475	 2.1272841602	-0.05473
H	 1.0220475715	 1.8447945645	-0.5047789247	 0.12068
H	-0.7055565934	 1.8840848742	-0.8755379527	 0.118953
H	-0.1587641951	 2.0449399741	 0.8111034229	 0.096184
H	-2.20351915	-0.4162812206	 0.3951479608	 0.07918
H	-0.1858524813	-2.6403156226	 0.3959791845	 0.082841
H	-0.9341315041	-2.225049398	 3.2676560447	 0.06312
H	 1.7291002756	-2.2073741646	 3.7165051122	 0.104498
H	 2.8784327099	-0.7423412076	 1.7563409112	 0.11471
H	-0.6140918915	 0.6793216664	 2.7476401553	 0.079936
208.5455	225.5328	245.8289	400.1423	482.047	503.4403	570.613	657.5459	691.1713	728.8621	763.7095	796.5565	808.8271	854.3648	882.5914	885.9888	892.3967	917.4251	931.5289	962.4507	1040.1136	1045.6126	1103.362	1110.7415	1115.1074	1142.5046	1161.3261	1173.026	1175.2324	1194.8528	1201.3807	1253.9277	1266.6094	1309.464	1313.0038	1444.3401	1490.4925	1497.0494	1579.988	2968.1604	3064.1537	3099.5775	3103.4783	3111.8066	3112.8753	3127.018	3224.7839	3257.151
CN1C2C3C4C=CC13C24	CN1[C@H]2[C@@H]3[C@H]4C=C[C@@]13[C@@H]24	
InChI=1S/C8H9N/c1-9-7-5-4-2-3-8(5,9)6(4)7/h2-7H,1H3	InChI=1S/C8H9N/c1-9-7-5-4-2-3-8(5,9)6(4)7/h2-7H,1H3/t4-,5+,6-,7+,8-
