20
gdb 39662	3.79272	1.09726	1.06455	1.8213	78.29	-0.2453	0.0254	0.2707	1222.5824	0.1733	-403.154529	-403.146494	-403.14555	-403.188005	30.18	
C	-0.0583810545	 1.4795307301	-0.1330494102	-0.210628
C	 1.4923194441	 1.4881662981	-0.0582643556	-0.238596
C	 1.4264962263	 0.07353253	 0.5839639811	 0.029279
C	-0.0255722981	-0.063491121	 0.0398285165	-0.229183
C	 2.4716040639	-0.9614147415	 0.2132034085	 0.06231
C	 2.180523472	-2.408238091	 0.7038314439	-0.199214
N	 2.1564002459	-3.2383218656	-0.5139014008	-0.263573
C	 2.3531609038	-2.43709809	-1.4741800488	 0.120523
O	 2.5398378039	-1.1174301447	-1.2367853381	-0.231758
H	-0.5090551891	 1.974619189	 0.7319345925	 0.101562
H	-0.522246319	 1.8746434748	-1.0393660552	 0.09959
H	 1.9436256842	 1.4416213182	-1.0527071468	 0.117677
H	 1.9754714879	 2.2838367466	 0.5140366825	 0.094315
H	 1.4165118187	 0.1528476018	 1.6778410643	 0.076501
H	-0.7740786394	-0.5225679434	 0.6895645821	 0.096945
H	-0.0360003046	-0.5733221422	-0.9270132063	 0.113687
H	 3.4622958243	-0.6158714566	 0.5309976855	 0.089464
H	 2.9456023475	-2.7787026193	 1.3927752058	 0.116662
H	 1.2147729468	-2.4813756228	 1.2176150701	 0.115822
H	 2.3881255654	-2.7108918004	-2.5232655508	 0.138616
64.3104	86.3966	116.0287	198.4972	256.2214	371.9842	486.5004	555.7489	653.172	713.2405	764.4156	783.7017	863.0667	882.2999	905.3272	935.867	944.5229	961.4142	974.041	978.7858	988.9563	1010.6033	1089.7807	1123.1753	1131.2649	1144.2104	1199.2344	1216.5503	1248.4272	1257.9309	1262.1164	1275.8424	1284.9372	1308.1518	1325.5032	1338.5739	1375.7252	1386.2369	1475.0587	1484.5627	1501.5605	1509.1169	1711.2092	3029.252	3035.7713	3040.8358	3057.2835	3061.1777	3066.3382	3078.3635	3102.5745	3115.7664	3126.3821	3211.8233
C1CC(C1)C1CN=CO1	C1CC(C1)[C@H]1CN=CO1	
InChI=1S/C7H11NO/c1-2-6(3-1)7-4-8-5-9-7/h5-7H,1-4H2	InChI=1S/C7H11NO/c1-2-6(3-1)7-4-8-5-9-7/h5-7H,1-4H2/t7-/m1/s1
