15
gdb 9717	3.14395	1.91205	1.65542	1.9337	61.61	-0.2493	-0.0342	0.2151	833.4332	0.118354	-399.823657	-399.816097	-399.815153	-399.855934	26.946	
C	 0.1365055649	 1.5686911824	 0.2625784136	-0.4392
C	 0.0068558668	 0.0506170363	 0.0845786499	 0.17767
C	 0.66273372	-0.4983536547	-1.2052233002	-0.156177
O	 1.6009624801	-1.4962868141	-0.7267260024	-0.214872
C	 1.5089672934	-1.4605261513	 0.6164530367	 0.125611
N	 0.6983938009	-0.6642130991	 1.1838700935	-0.308255
C	-1.4742043047	-0.3279543617	 0.1901998692	 0.149127
O	-2.1339435151	-0.780753923	-0.7077786659	-0.250119
H	 1.1935002721	 1.8474941719	 0.2952920845	 0.133035
H	-0.3435466808	 2.1010048886	-0.5650284484	 0.129605
H	-0.3262330177	 1.8882670895	 1.2006889264	 0.136389
H	-0.0631747714	-0.9810412276	-1.862375508	 0.149289
H	 1.2251382935	 0.2575510702	-1.7592310231	 0.11877
H	 2.1705963957	-2.1487945717	 1.1311633144	 0.148359
H	-1.9004256876	-0.1458307557	 1.1994888297	 0.100768
72.2545	94.5157	214.5535	256.2902	308.2994	322.4216	368.8767	528.2448	589.1811	653.3372	819.0734	867.3921	904.2119	944.8391	960.5092	968.7978	988.0694	1006.9698	1132.2	1155.2379	1184.0538	1225.5317	1269.1339	1323.863	1370.6234	1396.6205	1413.3901	1485.8503	1492.0344	1517.5879	1688.5115	1832.5561	2914.2388	3037.6401	3066.5938	3114.9332	3119.9704	3127.1355	3215.9184
CC1(COC=N1)C=O	C[C@]1(COC=N1)C=O	
InChI=1S/C5H7NO2/c1-5(2-7)3-8-4-6-5/h2,4H,3H2,1H3	InChI=1S/C5H7NO2/c1-5(2-7)3-8-4-6-5/h2,4H,3H2,1H3/t5-/m1/s1
