18
gdb 12662	3.1699	1.83676	1.32869	3.3367	67.34	-0.2366	-0.0168	0.2198	942.9225	0.153543	-384.974928	-384.96676	-384.965815	-385.007445	30.618	
C	 0.055356309	 1.5886524312	 0.0442763034	-0.389295
C	-0.0094381869	 0.0525341446	-0.0421558287	-0.111526
C	 0.7337227712	-0.5408646459	-1.2541192721	 0.12154
O	 0.618666495	 0.3116543272	-2.3773408349	-0.432988
C	 2.1814397195	-0.7549230519	-0.7583300461	-0.259806
C	 2.006659627	-1.2376375118	 0.6878493517	-0.322201
C	 0.7141567697	-0.5623984201	 1.1661870097	 0.403836
O	 0.3348842023	-0.5041425426	 2.3071960908	-0.32223
H	 1.0866792516	 1.9550257286	 0.0462892367	 0.117602
H	-0.4549762236	 2.0372155201	-0.8097065079	 0.13677
H	-0.4238543412	 1.9185824724	 0.9694268412	 0.131753
H	-1.0604773994	-0.2502895052	-0.0189669484	 0.098876
H	 0.2945851933	-1.5268682649	-1.4804351837	 0.068878
H	 1.0966620125	-0.0909374246	-3.109240392	 0.284214
H	 2.7400602161	-1.4535462436	-1.3883489608	 0.095155
H	 2.7046184995	 0.2071890931	-0.7851253127	 0.116301
H	 1.8457574229	-2.322876905	 0.7344852205	 0.131389
H	 2.8388398716	-1.0125406116	 1.3587234933	 0.131731
63.2908	168.7623	219.3345	241.6876	260.7582	268.5288	348.2297	471.7177	509.7982	530.3155	593.0038	644.1345	757.1445	816.2729	828.4359	945.0746	981.6984	995.6608	1017.8941	1053.1102	1099.2766	1126.263	1162.3908	1179.9545	1213.8998	1257.7791	1265.6179	1293.8219	1309.0781	1339.4485	1376.0528	1398.6571	1436.0318	1451.1308	1492.7922	1499.181	1505.8078	1844.6936	2955.601	3033.6031	3045.3228	3049.9358	3066.3761	3091.3258	3109.8072	3118.4952	3141.5738	3818.6719
CC1C(O)CCC1=O	C[C@H]1[C@@H](O)CCC1=O	
InChI=1S/C6H10O2/c1-4-5(7)2-3-6(4)8/h4-5,7H,2-3H2,1H3	InChI=1S/C6H10O2/c1-4-5(7)2-3-6(4)8/h4-5,7H,2-3H2,1H3/t4-,5-/m0/s1
