17
gdb 33996	3.48121	1.33988	1.10866	1.7848	79.93	-0.2473	0.0183	0.2656	1107.2752	0.135678	-384.653996	-384.646152	-384.645208	-384.686166	30.738	
C	-0.0213322252	-1.1579964672	 0.543688031	-0.380694
C	 0.0125436356	 0.0021556151	 0.2307642954	 0.246538
C	 0.023698996	 1.3875349966	-0.1767590084	 0.186001
C	-1.030258913	 1.7778785669	-1.2009711055	-0.340622
C	-0.7599543939	 3.0871514088	-1.8874493949	-0.043513
C	 0.3750597399	 3.7736822781	-1.7932180072	-0.060813
C	 1.5596477146	 3.3414930613	-0.9749600175	-0.292283
C	 1.2756258515	 2.1724888252	-0.0614480769	 0.002425
O	 0.2232982844	 2.339321761	 0.8869548389	-0.285047
H	-0.0440373706	-2.1802702715	 0.8307066035	 0.194879
H	-1.1031659075	 0.9731833564	-1.9450988188	 0.126559
H	-2.0072675582	 1.8030637259	-0.7000616539	 0.128653
H	-1.5669216328	 3.4682921088	-2.5078993188	 0.089314
H	 0.482655866	 4.7088871753	-2.336146268	 0.090296
H	 2.3962838354	 3.0705005185	-1.6354842907	 0.118141
H	 1.9274824768	 4.1800881087	-0.3669865608	 0.123508
H	 2.151207881	 1.6603096821	 0.3378818927	 0.096656
107.3809	141.8221	168.7061	309.4259	363.6098	394.2372	419.4962	516.7603	557.5949	584.4062	622.6315	661.3122	663.2294	677.6333	782.0365	885.0112	891.6152	931.521	951.5386	970.0597	1009.8167	1022.8274	1062.9337	1101.1545	1186.4567	1204.1008	1235.2774	1253.4509	1314.7578	1374.0785	1378.4925	1415.0067	1453.724	1463.7943	1471.8871	1740.4646	2238.6467	3004.2279	3017.0088	3028.7163	3042.4267	3110.9202	3150.5457	3173.1948	3501.7123
C#CC12CC=CCC1O2	C#C[C@]12CC=CC[C@H]1O2	
InChI=1S/C8H8O/c1-2-8-6-4-3-5-7(8)9-8/h1,3-4,7H,5-6H2	InChI=1S/C8H8O/c1-2-8-6-4-3-5-7(8)9-8/h1,3-4,7H,5-6H2/t7-,8+/m1/s1
