22
gdb 95240	2.72711	1.42441	1.07918	2.1971	82.5	-0.2411	0.0692	0.3102	1199.4806	0.196317	-404.333039	-404.324618	-404.323674	-404.365779	33.444	
C	-0.3649955344	 1.4527609382	 0.0767915714	-0.394089
C	 0.0127508222	-0.0241942879	-0.0048448451	 0.133632
C	 0.709785143	-0.3600315035	-1.3315830831	-0.182785
C	 0.7994176615	-1.8509482973	-1.6714269909	-0.236427
C	 1.6259255352	-2.7144163492	-0.7390368065	-0.007804
N	 2.7986140747	-2.12119892	-0.0717206327	-0.328588
C	 1.6722939551	-2.5960979422	 0.7423535294	-0.024214
C	 0.9056433691	-1.5938134063	 1.5903699288	-0.096267
O	 0.8541029707	-0.2748656056	 1.1160934012	-0.239333
H	 0.5287235649	 2.0770231689	-0.0228561903	 0.125169
H	-1.065976428	 1.722015944	-0.7186874532	 0.108213
H	-0.8276314416	 1.6725929261	 1.0423634441	 0.11669
H	-0.9022741672	-0.6361121893	 0.0908963382	 0.055076
H	 0.164975294	 0.1368864248	-2.1436526631	 0.085711
H	 1.7139957503	 0.0743629292	-1.2982519483	 0.124466
H	-0.2120194381	-2.2792393954	-1.7235553967	 0.094853
H	 1.2175696647	-1.9513327125	-2.6818793176	 0.097314
H	 1.7449779846	-3.7325834764	-1.1119877799	 0.075211
H	 3.5730237741	-2.7776080277	-0.0431005217	 0.228852
H	 1.8038456993	-3.5391993317	 1.2767403396	 0.076177
H	-0.1117039669	-1.9917188689	 1.759314186	 0.08204
H	 1.3939968129	-1.5310434475	 2.5705412606	 0.106104
83.2252	183.399	220.1503	245.1198	272.9471	327.6929	349.1535	392.308	440.9037	483.6406	593.8048	678.2344	724.0269	775.3286	814.3099	846.5433	895.7979	906.1607	963.225	976.1583	1000.8675	1037.0633	1073.0889	1087.7281	1092.3556	1141.4738	1153.7604	1164.4582	1187.7924	1220.3546	1237.3435	1268.559	1288.7817	1320.39	1338.3338	1381.8135	1394.4484	1399.2191	1410.3645	1414.1017	1422.2427	1461.0722	1482.603	1483.4488	1485.9902	1492.9629	1501.5823	2937.5321	2943.7635	3003.9748	3029.5681	3038.8717	3043.1913	3046.9109	3080.4844	3090.6668	3094.8306	3114.7647	3122.4559	3511.7128
CC1CCC2NC2CO1	C[C@H]1CC[C@H]2N[C@H]2CO1	
InChI=1S/C7H13NO/c1-5-2-3-6-7(8-6)4-9-5/h5-8H,2-4H2,1H3	InChI=1S/C7H13NO/c1-5-2-3-6-7(8-6)4-9-5/h5-8H,2-4H2,1H3/t5-,6+,7-/m0/s1
