17
gdb 12912	3.41353	1.89458	1.59747	2.2228	70.19	-0.2404	-0.0353	0.2051	867.7952	0.141408	-363.827828	-363.820115	-363.81917	-363.859635	28.704	
C	-0.0894223354	 1.4615489091	-0.0269910629	-0.486528
C	-0.0058119021	-0.0371889407	-0.034248019	 0.327397
C	-1.2048105349	-0.9881103585	-0.1128925751	-0.302942
C	-0.4886362367	-1.8184447244	 0.9784840642	-0.145299
N	 0.6616827082	-0.8389506512	 1.0446945358	-0.184263
C	 1.2904945576	-0.750224387	-0.3076460275	-0.130823
C	 1.4621263044	-1.8419794096	-1.3008776661	 0.141956
O	 0.7513843474	-2.808635039	-1.4594787925	-0.275587
H	 0.8532738632	 1.9063559854	 0.3034056389	 0.132174
H	-0.3179846441	 1.8428814309	-1.0287221681	 0.128352
H	-0.8814885334	 1.7998363204	 0.649833538	 0.128348
H	-2.1277778837	-0.516430276	 0.2313160499	 0.10834
H	-1.3829931676	-1.4784019082	-1.0709794675	 0.126908
H	-0.9950538035	-1.8035159282	 1.945499286	 0.111174
H	-0.2021800522	-2.8364399367	 0.7218544356	 0.13835
H	 2.1608132028	-0.0996246275	-0.2631452299	 0.100225
H	 2.3522592802	-1.6873500489	-1.95272265	 0.082219
104.6561	174.4145	196.8679	214.8382	268.3869	330.6933	370.5099	433.2298	612.2284	688.06	732.3841	789.9028	832.0945	851.1934	912.1018	952.912	974.8642	1012.534	1033.5969	1072.9024	1100.5543	1140.6453	1179.5542	1219.313	1240.0019	1273.2183	1313.3428	1324.1713	1407.6589	1427.2662	1439.0248	1476.4976	1483.0173	1491.7623	1499.8604	1798.5086	2867.6001	3030.7892	3074.7061	3084.5204	3093.6221	3115.7788	3129.7506	3141.0391	3160.1723
CC12CCN1C2C=O	C[C@]12CCN1[C@H]2C=O	
InChI=1S/C6H9NO/c1-6-2-3-7(6)5(6)4-8/h4-5H,2-3H2,1H3	InChI=1S/C6H9NO/c1-6-2-3-7(6)5(6)4-8/h4-5H,2-3H2,1H3/t5-,6+,7?/m0/s1
