18
gdb 68978	3.5088	1.0435	0.94479	3.4765	76.71	-0.2449	0.0275	0.2724	1274.4325	0.146507	-401.926925	-401.918125	-401.917181	-401.960902	32.439	
C	 0.0414901988	 1.4995137438	-0.0323724961	-0.48658
C	 0.0443121487	 0.0096481756	 0.0698094499	 0.406632
C	 1.1766897961	-0.9218593643	-0.2536709924	-0.370107
C	 0.507692154	-0.998855905	 1.1070909329	 0.220102
C	 1.2347155982	-0.8389353491	 2.4187299299	-0.459227
C	 1.8884771474	-2.0778228026	 2.8547478751	 0.26674
N	 2.3913470317	-3.0641437977	 3.1853377463	-0.303786
C	-0.8695734851	-1.625549095	 0.9207264591	-0.127995
O	-1.2045024435	-0.6701898288	-0.1206574814	-0.318952
H	 1.0279402913	 1.9068761388	 0.2072468955	 0.124236
H	-0.2079978398	 1.8062675418	-1.0542328735	 0.142388
H	-0.6979021131	 1.9398196419	 0.643456239	 0.131259
H	 1.0363016241	-1.7153173043	-0.9826825793	 0.122251
H	 2.1677700147	-0.4770303963	-0.2443388603	 0.117775
H	 1.9997219023	-0.0581955536	 2.3362865199	 0.154206
H	 0.5446090577	-0.5186826534	 3.2091750815	 0.154267
H	-0.9155107462	-2.6628567644	 0.57082961	 0.117658
H	-1.5302075273	-1.4972811974	 1.786952774	 0.109132
49.2253	96.6036	181.8645	197.7203	234.0338	316.0297	360.4767	387.3641	432.6962	447.6541	490.2095	626.4223	759.4774	787.333	849.9892	898.8551	926.5535	938.2638	950.8163	980.8846	991.191	1051.9207	1073.1356	1109.4721	1140.8733	1157.9746	1210.6034	1267.0589	1296.7924	1332.3189	1351.5213	1400.8365	1430.455	1456.2874	1473.6426	1490.1437	1505.753	1522.5476	2361.6448	3021.4921	3033.1308	3035.8452	3072.1894	3074.3026	3100.5634	3113.2499	3117.6806	3204.2387
CC12CC1(CC#N)CO2	C[C@@]12C[C@]1(CC#N)CO2	
InChI=1S/C7H9NO/c1-6-4-7(6,2-3-8)5-9-6/h2,4-5H2,1H3	InChI=1S/C7H9NO/c1-6-4-7(6,2-3-8)5-9-6/h2,4-5H2,1H3/t6-,7-/m1/s1
