18
gdb 68298	2.84083	1.48828	1.37173	3.3336	71.72	-0.2468	0.0633	0.3101	1013.7615	0.147617	-438.978801	-438.971031	-438.970087	-439.010966	30.258	
O	 0.0523336713	 1.3874603859	 0.0390786365	-0.464338
C	 0.0903480736	 0.0069999578	 0.0234237202	 0.274125
C	 0.5712573576	-0.9877796794	-1.0670421847	-0.243978
N	-0.0149903111	-1.9123819856	 0.0117532188	-0.173971
C	 0.704666789	-1.0078319195	 1.0247963047	-0.243964
C	-1.1494870706	-0.8842696495	 0.0939605622	 0.325521
C	-2.2034788045	-0.938840217	 1.2048783189	-0.178348
O	-3.2652781922	-0.9318377571	 0.2284437612	-0.278061
C	-2.3361221662	-0.9189002986	-0.8749117333	-0.178349
H	 0.9518893771	 1.7288347643	-0.0156300023	 0.286516
H	 0.0340048413	-1.0213192832	-2.0174335733	 0.112799
H	 1.6470134097	-1.1216915865	-1.2084893508	 0.100468
H	 1.7895102547	-1.1431177842	 1.0258749297	 0.100466
H	 0.2924407083	-1.0601551035	 2.0349146243	 0.112799
H	-2.1963022355	-1.8584827591	 1.8037847835	 0.111778
H	-2.2474448303	-0.0666091822	 1.8688799997	 0.112383
H	-2.4630096806	-0.0341981257	-1.5111670863	 0.112378
H	-2.4062050815	-1.8269256368	-1.4873340591	 0.111777
95.9394	191.3542	225.5125	228.583	252.1308	380.519	408.1333	475.4614	582.5891	629.0428	637.8034	753.7739	809.14	861.0685	895.5451	938.9923	959.1221	975.9234	989.1795	1035.6692	1051.299	1086.5241	1092.3156	1128.3482	1159.9416	1161.485	1177.8699	1178.2171	1188.8924	1223.7854	1250.2931	1290.6716	1305.6899	1361.2661	1420.6507	1495.0786	1508.2923	1521.8184	1549.181	3005.6563	3016.8326	3055.9644	3057.8761	3058.2195	3061.8742	3126.9998	3130.3224	3805.69
OC12CN(C1)C21COC1	O[C@@]12CN(C1)C12COC1	
InChI=1S/C6H9NO2/c8-6-1-7(2-6)5(6)3-9-4-5/h8H,1-4H2	InChI=1S/C6H9NO2/c8-6-1-7(2-6)5(6)3-9-4-5/h8H,1-4H2
