17
gdb 65181	2.56959	1.31076	1.17688	1.4286	74.2	-0.2537	0.0188	0.2725	1124.8671	0.132717	-421.74373	-421.73476	-421.733816	-421.777505	33.831	
O	 0.927529016	 0.3693043571	-1.713232056	-0.456955
C	 0.2533759463	-0.113643095	-0.5808425246	 0.364851
C	 1.0617488538	-0.7859315672	 0.5040821253	-0.333457
C	 0.513432794	 0.6125000686	 0.6984545691	-0.289141
C	-1.1133938423	-0.6425714306	-0.9022856439	-0.007338
O	-2.0346275911	-0.8091577612	 0.1665334592	-0.243304
C	-2.3526583993	 0.166916164	-0.848939108	-0.153735
C	-2.3867697561	 1.5533415385	-0.4736993193	 0.35291
C	-2.4766172155	 2.720359136	-0.2004541417	-0.427897
H	 1.2522189448	-0.3879193213	-2.2133088521	 0.283511
H	 0.6027422951	-1.5960341058	 1.0604964868	 0.125284
H	 2.1261061558	-0.8894872949	 0.3234065734	 0.113303
H	 1.2090152812	 1.4408103537	 0.6391563926	 0.123227
H	-0.3157384222	 0.7406405091	 1.3820343719	 0.13771
H	-1.1147813502	-1.4645322204	-1.6249216955	 0.088639
H	-3.1713186077	-0.1437998617	-1.4981018173	 0.118966
H	-2.5358261626	 3.7517857411	 0.04597938	 0.203426
55.6242	107.7295	174.86	232.7411	242.0598	285.1598	328.8702	381.0104	461.3321	483.4569	557.2657	599.6641	625.887	672.7818	722.903	775.637	835.7207	846.6398	920.5016	933.0129	971.5137	1002.898	1013.2525	1052.559	1085.1931	1099.2697	1144.4144	1192.5788	1260.8883	1266.2806	1287.6946	1382.6156	1394.5726	1442.1539	1455.8975	1495.1376	2240.9056	3058.9243	3110.0141	3131.9512	3154.9054	3222.2465	3251.5704	3502.8085	3793.133
OC1(CC1)C1OC1C#C	OC1(CC1)[C@H]1O[C@H]1C#C	
InChI=1S/C7H8O2/c1-2-5-6(9-5)7(8)3-4-7/h1,5-6,8H,3-4H2	InChI=1S/C7H8O2/c1-2-5-6(9-5)7(8)3-4-7/h1,5-6,8H,3-4H2/t5-,6-/m0/s1
