19
gdb 127090	4.07555	1.05247	0.85339	3.7108	81.86	-0.199	0.0231	0.222	1379.3975	0.158227	-419.207444	-419.19782	-419.196876	-419.242172	34.149	
C	 0.1110643704	 1.4206740694	 0.0728849958	-0.333715
N	-0.1932084766	 0.0040683487	 0.0044753902	-0.168565
C	 0.0857869391	-0.7884714471	 1.1936856432	-0.345918
C	-0.1174714907	-0.5885525935	-1.2234421565	 0.565091
C	 0.0051443315	-0.0877171726	-2.4957567874	-0.481324
C	-0.0488558691	-1.2475023693	-3.3150605267	 0.407789
C	 0.0297867339	-1.3276854058	-4.8065876537	-0.494089
N	-0.1779838515	-2.3506684278	-2.6163868986	-0.224932
O	-0.2187136359	-1.9267313154	-1.2647835723	-0.244411
H	 1.1849589152	 1.634521881	-0.0448858546	 0.120522
H	-0.4365496235	 1.9571317339	-0.7063205299	 0.141381
H	-0.2139736215	 1.8067507432	 1.0422670237	 0.130676
H	-0.3763239921	-0.3037684521	 2.0581456422	 0.12624
H	-0.3412329371	-1.7843034755	 1.0805435534	 0.164847
H	 1.1645243498	-0.8915308156	 1.3876812442	 0.120851
H	 0.1246820856	 0.9356186224	-2.8046506476	 0.102573
H	 0.9691271009	-0.8999759463	-5.1723358372	 0.132846
H	-0.0298202142	-2.3688577445	-5.1292812273	 0.146555
H	-0.7884551242	-0.768460493	-5.2721721308	 0.133583
69.7578	110.0494	133.5327	157.1992	165.6258	206.2753	233.2104	334.0389	368.9926	378.6474	521.4116	568.351	647.6522	708.588	715.7498	733.5764	907.7191	935.8409	992.3923	1034.6396	1041.9524	1065.1352	1087.3538	1129.1632	1161.8588	1175.1775	1234.5093	1294.341	1378.8418	1406.4292	1447.4791	1463.1619	1472.3786	1481.844	1483.3652	1487.0693	1493.4992	1503.1063	1511.8809	1576.5421	1653.0287	2983.1226	2990.3482	3040.9033	3081.6164	3086.2048	3096.5382	3123.1391	3137.8647	3157.8432	3284.6132
CN(C)C1=CC(C)=NO1	CN(C)c1cc(C)no1	
InChI=1S/C6H10N2O/c1-5-4-6(8(2)3)9-7-5/h4H,1-3H3	InChI=1S/C6H10N2O/c1-5-4-6(8(2)3)9-7-5/h4H,1-3H3
