18
gdb 20088	3.14532	1.74985	1.57577	2.707	67.43	-0.2306	0.0751	0.3057	909.6109	0.153222	-384.897035	-384.888911	-384.887966	-384.929665	30.221	
C	 0.1705673351	 1.5893104988	-0.0873934837	-0.412242
C	 0.0669478188	 0.080782499	-0.019189262	-0.072018
C	 1.2980868025	-0.7921770646	-0.1211941529	 0.107684
O	 2.5756106106	-0.2645890149	-0.293215056	-0.435211
C	 0.553986794	-0.7120108849	 1.1955173352	-0.128948
C	 1.1279868034	-0.0439520178	 2.404244411	 0.056822
C	 2.4081436135	-0.4625957892	 2.9972436511	-0.177845
O	 2.3176395898	 0.7603381507	 2.2493440403	-0.247737
H	 1.1041740015	 1.9598655491	 0.3408360762	 0.133438
H	 0.1312263863	 1.9247681242	-1.1290234523	 0.122344
H	-0.6551396631	 2.0697175949	 0.4485809498	 0.11301
H	-0.8269582299	-0.3220423729	-0.4898752368	 0.082978
H	 1.1996212457	-1.718321983	-0.6806720188	 0.097854
H	 2.7611439791	 0.3083484776	 0.4657964821	 0.302137
H	-0.0441951467	-1.5794080082	 1.4677893258	 0.092733
H	 0.4027659982	 0.4168638146	 3.0766648217	 0.105122
H	 2.5867645196	-0.3302185672	 4.0622144603	 0.125048
H	 2.9796053817	-1.251316046	 2.5131222091	 0.134832
71.2974	137.4465	154.031	195.759	260.0479	319.3504	367.6932	500.0018	592.326	608.6243	695.2562	719.0973	759.3951	813.2569	853.0626	901.6585	961.1662	988.8956	1012.8882	1088.8559	1107.8832	1112.63	1123.6162	1149.5546	1161.8349	1169.2242	1180.4812	1248.6781	1286.8608	1345.4257	1369.8527	1407.4436	1424.1869	1430.7102	1478.6016	1494.2841	1509.2387	1519.3449	3037.1387	3092.2016	3095.2908	3100.414	3117.9014	3123.9465	3134.933	3148.4808	3193.9301	3692.4421
CC1C(O)C1C1CO1	C[C@H]1[C@@H](O)[C@H]1[C@H]1CO1	
InChI=1S/C6H10O2/c1-3-5(6(3)7)4-2-8-4/h3-7H,2H2,1H3	InChI=1S/C6H10O2/c1-3-5(6(3)7)4-2-8-4/h3-7H,2H2,1H3/t3-,4-,5-,6-/m1/s1
