20
gdb 93522	2.84148	1.31855	1.06766	3.9181	75.24	-0.2351	-0.0192	0.2159	1180.0628	0.171647	-440.309373	-440.300628	-440.299684	-440.342619	33.851	
C	-0.084461406	 1.5428085492	 0.0204213355	-0.416359
C	 0.0294105865	 0.0214299586	 0.0365716089	 0.030508
N	 0.820754902	-0.4454445819	-1.1076533583	-0.321841
C	 0.7482257072	-1.8956900508	-1.2957341068	-0.263054
C	 1.2513132066	-2.6273064245	-0.0494211255	 0.400232
O	 1.9252165376	-3.6252836651	-0.1297352289	-0.298865
C	 0.7875175147	-2.0420182491	 1.2777616585	-0.327843
C	 0.7712196097	-0.5007571248	 1.2846253048	 0.141989
O	 2.0852802468	 0.0245148108	 1.3303465296	-0.440199
H	 0.9036916665	 2.002184629	 0.0979734287	 0.137125
H	-0.5646860333	 1.8914363099	-0.9003922335	 0.108509
H	-0.6896478015	 1.8881877233	 0.863521811	 0.123205
H	-0.9876542246	-0.4150383469	 0.0309682494	 0.055849
H	 0.5446935976	 0.0342403239	-1.9566966764	 0.227611
H	-0.2855821229	-2.2511556962	-1.481158451	 0.101719
H	 1.3644596458	-2.2015270086	-2.1438632461	 0.128213
H	-0.2360925288	-2.4108171464	 1.4425925282	 0.117602
H	 1.4174246817	-2.4335336303	 2.0791263375	 0.131015
H	 0.2655483385	-0.1514854331	 2.191257297	 0.081935
H	 2.4013493758	-0.0008015268	 0.4144881775	 0.282648
76.3876	124.5138	211.1995	227.8126	285.6582	309.5811	356.708	379.732	450.1065	490.3557	511.0412	550.6245	655.4161	705.8383	733.2172	781.9878	820.905	901.5948	937.7281	966.9075	1013.7278	1041.5182	1068.4771	1099.6191	1132.067	1147.0085	1196.4062	1222.6766	1245.6416	1264.5912	1280.0847	1328.661	1357.9902	1375.7807	1393.4764	1412.1074	1432.1813	1446.5061	1469.5549	1479.0714	1497.2412	1503.4129	1826.8233	2904.28	2915.1403	3010.8923	3039.3902	3055.0758	3106.0686	3107.6319	3116.0174	3132.1974	3534.838	3710.8234
CC1NCC(=O)CC1O	C[C@H]1NCC(=O)C[C@H]1O	
InChI=1S/C6H11NO2/c1-4-6(9)2-5(8)3-7-4/h4,6-7,9H,2-3H2,1H3	InChI=1S/C6H11NO2/c1-4-6(9)2-5(8)3-7-4/h4,6-7,9H,2-3H2,1H3/t4-,6-/m1/s1
