16
gdb 123563	3.97448	1.57614	1.23827	4.738	73.95	-0.2293	0.0035	0.2328	972.9933	0.12867	-396.917488	-396.911203	-396.910259	-396.948012	25.682	
C	-0.0218712014	 1.4762983465	 0.0754045818	-0.278645
C	 1.2982567895	 0.755657729	 0.0329683883	-0.022188
C	 2.0266372026	 0.4302880162	 1.3567329163	-0.35968
C	 1.0339532644	-0.4761553503	 2.033133766	 0.279361
C	-0.0455968971	-0.7492182424	 1.2327220587	 0.37046
N	-0.8164886523	-1.5556908764	 1.9858633589	-0.34002
N	-0.229619309	-1.7786704812	 3.1993337217	-0.131972
N	 0.8912915941	-1.1060470227	 3.2236831014	-0.287095
C	-0.0205916531	-0.0371300883	-0.0575891106	-0.196455
H	-0.3643843141	 1.8996890241	 1.0140928745	 0.125567
H	-0.2992042979	 2.0471910377	-0.8048166435	 0.11843
H	 1.9007822	 0.8801679597	-0.8588297903	 0.096086
H	 2.9831345885	-0.0698430308	 1.1657256507	 0.122102
H	 2.2481904773	 1.3352529309	 1.9326758818	 0.126489
H	-1.6991712071	-1.9978601875	 1.7881728824	 0.27674
H	-0.3552119545	-0.5007017644	-0.9777332881	 0.10082
152.7155	240.8943	337.8812	417.8745	433.9354	558.9342	587.858	702.086	710.6676	731.7949	777.1867	785.9671	814.5468	873.3486	964.8712	980.4808	1003.8791	1030.7491	1041.8559	1074.3093	1088.2817	1097.8247	1175.3542	1183.9974	1199.4149	1220.6778	1275.5368	1302.5841	1354.4951	1368.219	1414.4734	1475.7531	1490.8964	1524.933	1602.7211	3038.3394	3072.7628	3126.52	3178.9571	3185.0752	3215.819	3665.0965
C1C2CC3=C(NN=N3)C12	C1[C@H]2Cc3c([nH]nn3)[C@@H]12	
InChI=1S/C6H7N3/c1-3-2-5-6(4(1)3)8-9-7-5/h3-4H,1-2H2,(H,7,8,9)	InChI=1S/C6H7N3/c1-3-2-5-6(4(1)3)8-9-7-5/h3-4H,1-2H2,(H,7,8,9)/t3-,4-/m0/s1
