21
gdb 40444	3.81017	1.17176	1.05123	1.7376	81.99	-0.2527	0.0905	0.3432	1215.0615	0.184367	-387.073759	-387.065786	-387.064842	-387.106326	31.629	
C	 0.6200565785	 1.4303888474	 0.1570695817	-0.177521
O	 1.2013150111	 0.199934255	-0.284067162	-0.238287
C	-0.1909972464	 0.2095442261	 0.0379152272	-0.033676
C	-0.630201398	-0.5915979821	 1.2198021932	 0.364886
C	 0.3775258222	-0.994388145	 2.2667854318	-0.350977
C	-0.2485426324	-2.0523157924	 1.3872399616	-0.063138
C	-1.4553005845	-2.8064991703	 1.9253730162	-0.216546
C	-2.375682299	-1.7093042202	 2.5091354739	-0.226785
C	-2.0816653337	-0.4451825755	 1.6691759888	-0.281163
H	 0.9339775732	 1.7621462297	 1.1454764092	 0.112788
H	 0.549828879	 2.2095372708	-0.6005406189	 0.113168
H	-0.8425284232	 0.1282340574	-0.8358501345	 0.085777
H	 1.4100475496	-0.7472295415	 2.0470201057	 0.126013
H	 0.1104565834	-0.9377305405	 3.317414197	 0.102471
H	 0.392610941	-2.5353394871	 0.6579081246	 0.090907
H	-1.9538474827	-3.3261662699	 1.097978888	 0.098193
H	-1.1943517664	-3.5664239191	 2.670209899	 0.097445
H	-3.4318219818	-1.989812953	 2.4835928738	 0.097717
H	-2.1264923673	-1.5274754413	 3.5591391819	 0.106184
H	-2.2701169391	 0.4790272362	 2.2267779885	 0.096604
H	-2.7257998235	-0.4185655649	 0.7800007733	 0.09594
77.0207	148.2129	195.5037	244.8613	291.2166	345.1234	420.3922	480.5114	608.2048	625.753	678.6278	816.27	821.607	861.7438	885.795	892.2739	894.3104	925.3199	946.5037	973.2171	1000.3715	1028.0754	1070.5174	1079.8151	1084.4968	1102.8741	1117.1793	1151.7189	1171.8666	1175.7429	1198.322	1241.7435	1258.4054	1272.6136	1306.4982	1322.9378	1337.1097	1346.0612	1402.1246	1442.6353	1479.8947	1491.3349	1493.9528	1515.7851	1522.8873	3017.2717	3029.2553	3050.1043	3063.908	3070.0041	3074.8763	3084.7545	3099.7237	3128.42	3171.0223	3173.3047	3217.833
C1OC1C12CC1CCC2	C1O[C@H]1[C@]12C[C@H]1CCC2	
InChI=1S/C8H12O/c1-2-6-4-8(6,3-1)7-5-9-7/h6-7H,1-5H2	InChI=1S/C8H12O/c1-2-6-4-8(6,3-1)7-5-9-7/h6-7H,1-5H2/t6-,7-,8-/m1/s1
