16
gdb 26889	3.0836	1.43652	0.98569	4.4205	81.5	-0.1823	-0.0243	0.158	1143.4764	0.126037	-434.100255	-434.092099	-434.091155	-434.132611	31.807	
N	 0.1069819061	 1.3435385424	-0.2341553916	-0.558765
C	-0.0217030548	-0.0078170536	-0.0891062173	 0.439265
C	-1.2164989738	-0.6656664552	 0.0111141587	 0.041182
N	-2.4121172832	 0.1269281082	 0.0428472935	-0.61876
C	-1.1621762925	-2.0899593706	 0.0842841036	-0.100212
C	 0.014178313	-2.765760662	 0.0716991815	-0.192695
C	 1.2657919529	-2.0593336946	-0.0227150999	 0.374733
N	 2.4194258198	-2.5924815051	-0.0340774829	-0.546186
O	 1.1590210375	-0.6510648936	-0.1081448229	-0.274866
H	 0.9756113897	 1.7418272057	 0.0884513878	 0.261126
H	-0.7373405229	 1.8449277081	 0.0054799105	 0.270111
H	-3.0230778686	-0.1565382796	 0.8024765562	 0.238927
H	-2.9487324832	 0.0369081342	-0.8156330265	 0.241093
H	-2.0996219029	-2.635104543	 0.1589002376	 0.097441
H	 0.074989747	-3.843435117	 0.1328090839	 0.113723
H	 3.1471196259	-1.8827284241	-0.1113748722	 0.213882
104.1902	169.4344	225.5132	291.3146	302.019	339.6125	416.9084	428.9825	474.3385	499.5419	570.8622	610.3173	677.1561	734.8308	744.4721	781.9631	800.2663	831.3679	850.5202	898.9469	981.1434	1028.8377	1101.4915	1151.7774	1205.4677	1244.6071	1269.6375	1287.2244	1422.2936	1451.4318	1557.8111	1619.0813	1643.9216	1686.3999	1749.8911	3164.4256	3231.8086	3481.2766	3498.3224	3549.4365	3560.209	3684.6232
NC1=C(N)C=CC(=N)O1	NC1=C(N)CC=C([NH])O1	
InChI=1S/C5H7N3O/c6-3-1-2-4(7)9-5(3)8/h1-2,7H,6,8H2	InChI=1S/C5H8N3O/c6-3-1-2-4(7)9-5(3)8/h2,7H,1,6,8H2
