17
gdb 46671	2.89262	1.78599	1.35642	2.0707	72.91	-0.2369	-0.0275	0.2094	953.7786	0.137555	-421.76466	-421.757962	-421.757018	-421.795703	27.179	
O	-0.0365083423	 0.0072798808	 0.1391281006	-0.303376
C	 0.016458256	 1.2022309492	 0.0412596642	 0.245591
C	-1.2258814804	 2.1624839907	 0.060399631	-0.182822
O	-0.7846615056	 3.5118189899	-0.1520095988	-0.286305
C	 0.4761309134	 3.3922222063	-0.78968258	 0.125974
C	 1.8313932786	 3.9335631205	-0.2347329665	-0.107816
C	 1.5412439163	 3.1302777011	 1.0558737692	-0.248181
C	 1.1396527964	 2.1770668338	-0.1394474841	 0.191612
C	 2.4645016434	 2.6150196704	-0.8296879216	-0.318409
H	-1.9092919606	 1.8398951322	-0.7384439156	 0.132725
H	-1.7597448874	 2.1000184143	 1.013528301	 0.140153
H	 0.3712669057	 3.3942258774	-1.8824669076	 0.074711
H	 2.242371897	 4.9404909915	-0.3165495708	 0.084392
H	 2.403636075	 2.7990590262	 1.6377707651	 0.102699
H	 0.7310984901	 3.493181825	 1.6855797885	 0.124232
H	 2.4976528946	 2.5240972563	-1.9181194309	 0.10977
H	 3.3953799198	 2.2856150743	-0.3667075838	 0.11505
123.9384	184.825	305.2118	350.3837	478.3725	512.1194	560.4363	593.6143	611.497	687.5414	790.5924	823.7416	896.1652	902.398	929.6054	954.1784	981.6197	1007.3919	1017.8548	1036.041	1063.006	1081.8655	1107.0501	1141.2373	1148.2135	1172.7218	1201.048	1213.126	1238.5092	1240.1012	1289.9795	1319.9144	1382.5484	1476.2423	1490.0718	1525.1165	1859.0482	3008.232	3022.6481	3069.1215	3080.4213	3087.5351	3107.4381	3142.4652	3164.3009
O=C1COC2C3CC12C3	O=C1CO[C@H]2[C@H]3C[C@@]12C3	
InChI=1S/C7H8O2/c8-5-3-9-6-4-1-7(5,6)2-4/h4,6H,1-3H2	InChI=1S/C7H8O2/c8-5-3-9-6-4-1-7(5,6)2-4/h4,6H,1-3H2/t4-,6-,7+/m0/s1
