20
gdb 18348	3.38314	2.06054	1.52458	0.1858	79.42	-0.2324	0.0256	0.258	905.7422	0.179183	-311.874307	-311.867073	-311.866129	-311.905448	28.949	
C	-0.8902703049	 1.2850368579	 0.0631829457	-0.399202
C	-0.0758680081	-0.0134046	-0.0051296505	-0.027536
C	 0.8017431541	-0.1479278877	-1.2370860701	-0.065148
C	 2.0150821232	-0.6294717647	-0.9654537485	-0.090261
C	 2.2151266969	-0.8989195673	 0.5036375494	-0.057035
C	 3.1147677135	 0.118696409	 1.2632978717	-0.223699
C	 1.8469047362	 0.95876528	 1.5829586065	-0.223093
C	 0.9452872912	-0.235688974	 1.1353713044	-0.01194
H	-0.2498185252	 2.1714017628	 0.0277937224	 0.118038
H	-1.587070463	 1.3488099275	-0.779499997	 0.110723
H	-1.480565236	 1.3319629289	 0.9844679237	 0.111721
H	-0.7992248793	-0.8443364558	 0.001748584	 0.074886
H	 0.4411871945	 0.1086281214	-2.228896463	 0.084645
H	 2.7889205563	-0.821274291	-1.7025018279	 0.086805
H	 2.4171526066	-1.9563623533	 0.7079472825	 0.066009
H	 3.5634433534	-0.3210950634	 2.1584795174	 0.095523
H	 3.903408446	 0.6102122575	 0.6866254975	 0.092627
H	 1.7305606448	 1.2929650649	 2.6164788804	 0.094499
H	 1.7525970711	 1.8296668393	 0.9311377162	 0.10325
H	 0.5175518488	-0.770006722	 1.986400675	 0.059188
115.8022	194.4454	231.1223	241.3314	323.0915	429.6558	512.0577	638.3182	680.3821	740.6957	761.5643	776.8685	847.4477	867.2101	890.7519	927.6922	954.2276	974.959	976.6062	1023.957	1028.5012	1067.3616	1095.5229	1119.7157	1137.1107	1162.0935	1185.6356	1224.8763	1248.0783	1266.5711	1272.8802	1296.2284	1308.8722	1337.3075	1344.9401	1380.7644	1410.4673	1477.2653	1491.5854	1498.6674	1501.9894	1674.6061	2967.6404	3032.3771	3034.5174	3051.31	3068.2614	3081.4275	3095.0731	3096.608	3106.5805	3123.8755	3164.6638	3190.675
CC1C=CC2CCC12	C[C@H]1C=C[C@H]2CC[C@@H]12	
InChI=1S/C8H12/c1-6-2-3-7-4-5-8(6)7/h2-3,6-8H,4-5H2,1H3	InChI=1S/C8H12/c1-6-2-3-7-4-5-8(6)7/h2-3,6-8H,4-5H2,1H3/t6-,7-,8-/m0/s1
