22
gdb 88184	3.32182	1.16933	1.01379	1.2006	90.52	-0.2199	0.0188	0.2387	1282.2915	0.196175	-367.216916	-367.208308	-367.207364	-367.249943	34.018	
C	-0.0795585376	 1.5303081431	-0.1307451369	-0.402338
C	-0.00544777	 0.0328318704	 0.0534876536	-0.051029
N	 1.300337493	-0.6134321956	-0.1413787358	-0.378943
C	 0.6653295816	-0.6409383009	 1.207856522	 0.329089
C	 1.3797083082	 0.1477428253	 2.2942143806	-0.272777
C	 2.1992390942	-0.7893046478	 3.1928261201	-0.215252
C	 1.3031292275	-1.8472729925	 3.8514171811	-0.248784
C	 0.3633459615	-2.4748370436	 2.8556173986	-0.080259
C	 0.0971296735	-1.9335739263	 1.6646859624	-0.108548
H	 0.8161953914	 2.0259357963	 0.2482730571	 0.126827
H	-0.1721077517	 1.7779248348	-1.1938596774	 0.11912
H	-0.9519977874	 1.9430591083	 0.3875549158	 0.115464
H	-0.8731137046	-0.4984909302	-0.3400468618	 0.07556
H	 1.1878652529	-1.5173230565	-0.5956404879	 0.22383
H	 2.0283752805	 0.8975914011	 1.8363251899	 0.106264
H	 0.6356948634	 0.6793667111	 2.9031957869	 0.093913
H	 2.9574591015	-1.2908910705	 2.5790270925	 0.10785
H	 2.7341707156	-0.2147539664	 3.956038015	 0.089736
H	 1.9158952805	-2.6253378818	 4.3234261053	 0.101945
H	 0.7228783594	-1.3960053406	 4.6710569483	 0.1067
H	-0.1092069597	-3.4133212978	 3.1352214243	 0.085015
H	-0.5703864038	-2.4419388296	 0.9703557163	 0.076617
77.924	160.673	186.9465	205.6176	253.5482	330.4048	390.1349	432.8025	452.0985	497.2536	546.1032	654.4584	713.7991	744.7445	790.8032	860.287	873.713	891.9899	932.8843	975.162	983.9659	995.8889	1037.2109	1040.6261	1069.1154	1090.8211	1097.4449	1124.0325	1172.8506	1183.1526	1236.7742	1248.0663	1272.4147	1298.9687	1328.032	1368.8302	1370.4552	1394.0691	1408.3555	1423.2715	1459.5835	1470.4135	1478.4458	1490.1814	1494.6485	1499.6369	1710.5868	2991.4247	3015.9358	3029.809	3035.6689	3044.939	3077.3516	3090.5611	3094.1741	3101.5698	3128.6736	3135.1432	3160.7966	3485.6893
CC1NC11CCCC=C1	C[C@H]1N[C@]21CCCC=C2	
InChI=1S/C8H13N/c1-7-8(9-7)5-3-2-4-6-8/h3,5,7,9H,2,4,6H2,1H3	InChI=1S/C8H13N/c1-7-8(9-7)5-3-2-4-6-8/h3,5,7,9H,2,4,6H2,1H3/t7-,8+/m1/s1
