18
gdb 22394	6.15919	0.70468	0.65286	0.6576	82.62	-0.2436	0.0042	0.2478	1652.6977	0.144974	-401.863209	-401.853803	-401.852859	-401.898428	34.585	
O	-0.122749252	 1.2415643648	-0.4073643623	-0.395257
N	 0.0201748774	-0.1343754131	-0.1390187104	-0.230262
C	-1.100418063	-0.6599006597	 0.1254272327	 0.423222
C	-2.5239118427	-0.1647668872	 0.2802981226	-0.350266
C	-2.8770967801	-1.5640478567	 0.8838064688	 0.034387
C	-4.0664887245	-2.2990576185	 0.2560355731	-0.373022
C	-4.216858026	-3.6608331344	 0.7561399541	 0.29952
C	-4.3117819221	-4.779300859	 1.1862214303	-0.442697
C	-1.4450912769	-2.0811785488	 0.5167514974	-0.325627
H	 0.787335807	 1.5100025599	-0.5724149357	 0.306257
H	-2.6554074585	 0.7077970924	 0.9251176029	 0.128775
H	-3.0151414312	 0.0426234354	-0.677518298	 0.122381
H	-3.0125343439	-1.5118139183	 1.9664990747	 0.093016
H	-4.9869144344	-1.7315353324	 0.4469789457	 0.13291
H	-3.9436084758	-2.3212164183	-0.8356161846	 0.128134
H	-4.4070298042	-5.7691248046	 1.5583754764	 0.196789
H	-1.4429335446	-2.7796922359	-0.3274559273	 0.124734
H	-0.8558041644	-2.5206950556	 1.3246420495	 0.127006
28.2626	67.8553	133.088	186.2462	250.4361	320.3993	335.3929	355.5641	384.5813	467.4016	484.3837	539.4797	623.0782	640.4758	704.074	779.7994	797.4627	871.7616	918.111	946.4516	975.2506	989.4064	1045.5002	1060.5589	1110.3055	1159.2748	1183.4906	1216.3377	1248.4071	1254.7199	1276.2733	1325.8357	1372.9912	1403.8215	1450.394	1464.698	1476.0685	1785.266	2238.1865	3010.7456	3041.7795	3043.3732	3048.6359	3080.9228	3103.8842	3109.6994	3507.1229	3819.1696
ON=C1CC(CC#C)C1	ON=C1C[C@@H](CC#C)C1	
InChI=1S/C7H9NO/c1-2-3-6-4-7(5-6)8-9/h1,6,9H,3-5H2	InChI=1S/C7H9NO/c1-2-3-6-4-7(5-6)8-9/h1,6,9H,3-5H2/t6-
