18
gdb 87747	4.58307	0.87631	0.8265	5.2287	78.07	-0.2675	0.0307	0.2981	1388.1759	0.147269	-401.932884	-401.924233	-401.923289	-401.966547	32.516	
O	-0.1635107308	 1.4117975	-0.0283269867	-0.418243
C	-0.0879695609	 0.0186048131	 0.0293927261	 0.046286
C	-0.6133855584	-0.7138321472	 1.244125559	-0.403376
C	-1.3889847833	-0.715815104	-0.0442526239	 0.342117
C	-2.7256057616	-0.034843934	-0.3488957532	-0.299888
C	-2.8609236249	-0.9886690082	-1.5861030622	-0.132603
C	-1.7098628207	-1.8730485216	-0.9942205077	-0.315565
C	-4.1467372969	-1.6214564357	-1.8187354093	 0.265428
N	-5.1707074283	-2.1335589819	-1.9830363044	-0.32951
H	 0.4810723947	 1.7753500861	 0.587595943	 0.292379
H	 0.7647591397	-0.4195034391	-0.4920742331	 0.087846
H	-0.1139028625	-1.6256741916	 1.5570284412	 0.116837
H	-1.0063375249	-0.1055229969	 2.0532699588	 0.119286
H	-3.4927575423	-0.2325506677	 0.4038079803	 0.123059
H	-2.6911811001	 1.0331783454	-0.5659044725	 0.135421
H	-2.5375247909	-0.4867329942	-2.5011687327	 0.128691
H	-0.9342555636	-2.1860418998	-1.6970913036	 0.115762
H	-2.1015687042	-2.7529106127	-0.4770817491	 0.126072
50.7229	126.396	189.6713	206.6352	255.9454	283.6656	343.6928	436.8496	469.2258	506.9384	558.9629	572.2786	701.0398	810.1991	835.4917	865.563	906.7003	910.8287	965.7898	1012.664	1034.3635	1043.1103	1077.5604	1101.0405	1110.4952	1174.2732	1202.6954	1221.5509	1239.7495	1245.6554	1249.5673	1299.366	1340.1155	1359.3003	1425.2593	1476.5582	1492.564	1495.7468	2352.6489	3060.8074	3072.2421	3082.3934	3084.5574	3117.3914	3119.8026	3138.3868	3209.1676	3808.1758
OC1CC11CC(C1)C#N	O[C@H]1C[C@]21C[C@@H](C2)C#N	
InChI=1S/C7H9NO/c8-4-5-1-7(2-5)3-6(7)9/h5-6,9H,1-3H2	InChI=1S/C7H9NO/c8-4-5-1-7(2-5)3-6(7)9/h5-6,9H,1-3H2/t5-,6-,7-/m0/s1
