19
gdb 73279	2.50774	1.73567	1.37157	2.3676	70.48	-0.2494	0.0748	0.3242	1010.5479	0.15993	-460.143229	-460.135278	-460.134333	-460.175707	30.613	
C	-0.1089609862	 1.5229705001	 0.0558274356	-0.444671
C	 0.0098186231	 0.0051658104	 0.0136565956	 0.363233
C	-1.3151231864	-0.6616141705	-0.3408447314	-0.137543
O	-1.3676066964	-2.0188239235	 0.0665572006	-0.227972
C	-1.0516429314	-2.1317076993	 1.4226172467	 0.012741
O	 0.3076191472	-1.8838917843	 1.6771588524	-0.257784
C	 0.7717304141	-0.6244440252	 1.2234888027	 0.024474
C	 1.922514428	-0.7861220579	 0.2186939379	-0.091689
O	 1.0773097279	-0.4010339098	-0.8844422807	-0.317636
H	 0.8593915808	 1.9790085735	 0.2802180997	 0.125202
H	-0.4411749452	 1.9022932868	-0.916267851	 0.130482
H	-0.8279348184	 1.8436844875	 0.8168539018	 0.118314
H	-2.1465523206	-0.1041686088	 0.1214860509	 0.08836
H	-1.4433814081	-0.6450558246	-1.4268472383	 0.127738
H	-1.6896625729	-1.4485968013	 2.0162140577	 0.072578
H	-1.2334311755	-3.1660619901	 1.7201601024	 0.122054
H	 0.9396439423	 0.0410100235	 2.0782189966	 0.077647
H	 2.7649533876	-0.0959754451	 0.3543175463	 0.096716
H	 2.2884788003	-1.8126963014	 0.1270025947	 0.117756
83.4707	136.0456	215.9812	258.0911	331.4572	356.399	392.4382	425.1575	477.1249	533.2001	629.6022	720.7906	826.4471	869.166	885.5374	932.7596	973.4737	990.5906	1010.0747	1034.6034	1073.2862	1088.2427	1117.1154	1155.8137	1167.5958	1200.4196	1217.3174	1263.585	1269.8564	1289.7633	1331.0778	1344.8461	1368.9359	1402.4912	1413.8246	1444.4857	1473.6337	1484.8466	1490.0667	1510.1117	1512.1967	2915.1513	2972.2111	3017.2003	3033.1984	3038.9268	3092.0481	3093.8913	3106.6099	3114.39	3115.7269
CC12COCOC1CO2	C[C@]12COCO[C@H]1CO2	
InChI=1S/C6H10O3/c1-6-3-7-4-8-5(6)2-9-6/h5H,2-4H2,1H3	InChI=1S/C6H10O3/c1-6-3-7-4-8-5(6)2-9-6/h5H,2-4H2,1H3/t5-,6-/m0/s1
