18
gdb 67747	3.08175	2.05975	1.45954	1.6659	79.8	-0.2238	-0.0032	0.2206	917.1661	0.147983	-364.678396	-364.671614	-364.670669	-364.708945	28.773	
C	 0.0026191297	 1.6030817369	-0.0242934397	-0.521569
C	 0.0661327856	 0.0930475249	 0.0020924611	 0.25718
C	 0.5559414171	-0.6818006051	-1.2589776051	-0.123737
C	 0.5173355778	-1.9935159047	-0.974652621	-0.266013
C	 0.0011310445	-1.9547110258	 0.4591323872	 0.252426
C	-0.4693854392	-2.4533014349	 1.8379639175	-0.271029
N	-0.6092460842	-0.9289680461	 2.0225254629	-0.204849
C	 0.6664091002	-0.7465373057	 1.1624875117	-0.037605
C	-1.0594095234	-0.8299270919	 0.5434053989	-0.037602
H	 0.9902214906	 2.0379199442	-0.2144243351	 0.118578
H	-0.6730084469	 1.9575347585	-0.8107305175	 0.11858
H	-0.35909458	 1.9925903745	 0.9320910367	 0.133629
H	 0.864398466	-0.2093986831	-2.1824960035	 0.105549
H	 0.7812421049	-2.8361231919	-1.5968352046	 0.112248
H	-1.4233570117	-2.9865540032	 1.8964134234	 0.106877
H	 0.2720656426	-2.9046319737	 2.5045877611	 0.106877
H	 1.6588195859	-0.7041953668	 1.6198859856	 0.07523
H	-2.1156650396	-0.886567906	 0.2659150602	 0.07523
207.6252	241.7965	258.1074	366.0645	420.0771	451.9182	556.0565	605.9394	666.9692	697.8821	750.0845	773.9688	828.2406	837.8155	852.124	871.9159	887.8464	890.7117	914.5303	1002.1495	1053.3817	1058.2708	1068.6311	1084.6607	1106.5428	1142.6291	1147.3447	1174.7884	1186.7358	1207.7503	1238.5924	1265.6603	1311.2959	1345.6606	1413.3978	1492.9073	1494.4422	1508.9372	1584.0533	3028.9534	3041.1227	3075.0904	3082.1157	3090.898	3105.455	3106.8845	3213.7947	3245.0947
CC12C=CC34CN(C13)C24	C[C@@]12C=C[C@@]34CN([C@H]13)[C@@H]24	
InChI=1S/C8H9N/c1-7-2-3-8-4-9(5(7)8)6(7)8/h2-3,5-6H,4H2,1H3	InChI=1S/C8H9N/c1-7-2-3-8-4-9(5(7)8)6(7)8/h2-3,5-6H,4H2,1H3/t5-,6+,7-,8-
