18
gdb 86096	2.65738	1.35636	1.02743	1.5673	78.9	-0.2498	0.0192	0.269	1205.1883	0.145975	-401.94373	-401.934488	-401.933544	-401.978194	33.819	
C	-0.4293676537	 1.5387713389	-0.0251082231	-0.404961
C	 0.0737742112	 0.1109290624	-0.1023790378	 0.096905
O	 1.15814994	 0.0264831438	-1.060096794	-0.260235
C	 2.1370656804	-0.7133627527	-0.4765952667	 0.409007
C	 3.3084752325	-1.0082941267	-1.3494604099	-0.473823
N	 1.9929726094	-1.086151769	 0.7312432761	-0.30121
C	 0.7067126844	-0.5165424444	 1.1938374802	-0.204165
C	 0.9161301619	 0.4189734801	 2.2977794313	 0.37844
C	 1.078775865	 1.1835461841	 3.2105496849	-0.486537
H	 0.3574910361	 2.2089464071	 0.3281364075	 0.138672
H	-0.7663838787	 1.871942532	-1.0104662473	 0.124795
H	-1.2712314283	 1.6050727028	 0.6699649931	 0.128235
H	-0.7198450712	-0.5504498356	-0.4685822259	 0.094081
H	 3.7622203872	-0.0742817291	-1.6954400394	 0.147588
H	 4.0432842592	-1.5893556294	-0.7937597134	 0.154265
H	 2.9904947622	-1.5640959772	-2.2369521057	 0.144809
H	 0.0705052327	-1.3317946802	 1.5567578119	 0.11431
H	 1.2305792897	 1.8533905032	 4.0205584183	 0.199824
38.8816	128.135	142.0348	158.6931	232.7958	263.625	291.4582	361.0316	433.4168	486.7115	541.129	615.6267	625.3765	653.3515	675.1624	743.662	827.2563	886.3392	961.5884	967.0886	992.6766	1061.342	1066.8489	1079.8621	1126.1739	1161.3705	1243.3484	1287.4618	1324.2805	1368.3899	1387.6946	1414.2814	1419.0134	1475.1321	1475.7233	1482.3571	1492.7911	1732.6539	2235.7421	3026.9097	3044.7789	3050.7057	3051.9959	3109.889	3122.5098	3136.6503	3168.2074	3503.2465
CC1OC(C)=NC1C#C	C[C@H]1OC(=N[C@H]1C#C)C	
InChI=1S/C7H9NO/c1-4-7-5(2)9-6(3)8-7/h1,5,7H,2-3H3	InChI=1S/C7H9NO/c1-4-7-5(2)9-6(3)8-7/h1,5,7H,2-3H3/t5-,7+/m1/s1
