25
gdb 100684	2.77242	0.94045	0.86131	0.3042	84.83	-0.2569	0.0694	0.3263	1515.3323	0.225328	-426.629456	-426.617501	-426.616557	-426.666045	44.015	
C	 0.0058143143	 1.6291920206	 0.0736806456	-0.376925
C	-0.0033370955	 0.0987851842	 0.0003734661	-0.212875
C	 0.6764711896	-0.5530588552	 1.2127586232	 0.113745
O	 0.0368613177	-0.1431739441	 2.425325053	-0.441786
C	 0.8280320545	-2.1018226342	 1.1390433865	 0.250928
C	-0.5388732496	-2.8105530711	 1.1143364233	-0.433281
C	 1.6505472502	-2.5043159525	-0.0998809951	-0.426912
C	 1.5981163911	-2.5361949565	 2.4025884301	-0.093544
O	 1.7709119265	-3.9490347335	 2.3804223104	-0.430506
H	 1.0308430415	 2.0161260829	 0.0603751104	 0.113636
H	-0.5276821367	 2.0681253299	-0.7748118018	 0.107409
H	-0.4651642687	 1.9776810894	 0.9962663603	 0.125053
H	-1.0394593752	-0.2607049068	-0.068413751	 0.089212
H	 0.4946804804	-0.227943937	-0.9180071658	 0.103759
H	 1.6894839248	-0.1349320196	 1.2975269737	 0.07877
H	-0.8967543371	-0.3693733514	 2.353082106	 0.278316
H	-1.096010724	-2.587775753	 0.1995334519	 0.108785
H	-0.3966010494	-3.8916493906	 1.1716685852	 0.138256
H	-1.1570116006	-2.5216560208	 1.97232504	 0.095041
H	 2.5676142267	-1.9079961982	-0.1771306886	 0.103853
H	 1.9411583653	-3.5545688596	-0.024867265	 0.135997
H	 1.0854338285	-2.3752845653	-1.0270371111	 0.1092
H	 2.5751640669	-2.0253621066	 2.4202858173	 0.077244
H	 1.0409790794	-2.2171260275	 3.291658098	 0.099535
H	 2.1727754092	-4.2125375235	 3.2124509473	 0.287089
60.2607	92.4619	124.3653	160.6849	210.5806	218.5034	226.4819	250.4988	267.292	285.1986	301.1597	319.1303	343.5466	360.0419	382.7524	465.872	506.5887	620.5267	750.0383	787.415	851.5604	931.0696	945.113	961.2253	969.5396	988.3153	1031.4186	1062.6434	1069.9281	1101.5519	1123.962	1175.7712	1206.3897	1232.677	1255.5451	1285.5512	1291.8463	1333.5974	1338.5605	1386.6737	1393.8268	1404.7348	1409.86	1418.8238	1453.5854	1482.1926	1482.9801	1495.569	1498.2479	1503.1204	1509.3579	1518.1011	1525.355	2962.8541	3004.4928	3019.518	3030.4855	3034.4199	3037.2779	3045.4417	3076.3024	3096.1358	3100.3671	3101.3843	3123.4931	3126.7243	3130.2721	3805.9091	3840.4844
CCC(O)C(C)(C)CO	CC[C@@H](O)C(C)(C)CO	
InChI=1S/C7H16O2/c1-4-6(9)7(2,3)5-8/h6,8-9H,4-5H2,1-3H3	InChI=1S/C7H16O2/c1-4-6(9)7(2,3)5-8/h6,8-9H,4-5H2,1-3H3/t6-/m1/s1
