16
gdb 6319	4.41771	1.05181	1.01072	3.8142	63.14	-0.2484	-0.027	0.2214	1180.7354	0.128897	-417.110603	-417.101492	-417.100548	-417.145209	31.82	
C	 0.1500319729	 1.5397882252	-0.1662684858	-0.398596
C	-0.0514089004	 0.0379311792	 0.0289612025	-0.048008
N	-1.4464563302	-0.3765922413	 0.0359188915	-0.359871
C	-2.0725507464	-0.68331194	 1.2332205859	 0.465093
N	-3.4467791819	-0.8256281397	 1.1251039384	-0.567855
O	-1.4765739164	-0.7991421641	 2.2869347553	-0.383105
C	 0.7060021318	-0.7997258735	-0.9951405078	 0.153209
O	 1.5631960614	-0.3802585671	-1.7277463775	-0.242744
H	 1.2159994673	 1.7730732131	-0.2094957079	 0.143605
H	-0.2957388612	 1.8765603294	-1.108390873	 0.116595
H	-0.3063804677	 2.0942399732	 0.6570473816	 0.130075
H	 0.3288929595	-0.2651995815	 1.0148939589	 0.152522
H	-2.0253732448	-0.0101022289	-0.7052033857	 0.241507
H	-3.8229202996	-1.1511324491	 0.2473856691	 0.25059
H	-3.8589404605	-1.2582594222	 1.9376398001	 0.265268
H	 0.3893018561	-1.8673158827	-1.0096898854	 0.081715
43.8591	74.5279	99.8047	193.3909	222.6992	264.4975	361.5029	379.1233	412.5114	470.1458	491.9204	549.4205	612.1542	696.8562	773.9414	837.8082	916.2778	931.5726	1042.6641	1091.936	1121.7062	1147.2474	1189.3362	1288.2064	1330.369	1353.7042	1399.1002	1417.445	1488.2754	1491.2656	1526.4781	1628.5812	1804.2946	1835.0343	2882.5835	3029.7728	3045.8557	3116.2884	3141.1616	3577.1572	3606.8413	3691.8387
CC(NC(N)=O)C=O	C[C@@H](NC(=O)N)C=O	
InChI=1S/C4H8N2O2/c1-3(2-7)6-4(5)8/h2-3H,1H3,(H3,5,6,8)	InChI=1S/C4H8N2O2/c1-3(2-7)6-4(5)8/h2-3H,1H3,(H3,5,6,8)/t3-/m1/s1
