18
gdb 106737	2.05624	1.61589	1.07126	3.2576	73.55	-0.236	-0.0173	0.2186	1159.5637	0.145832	-439.056679	-439.047474	-439.04653	-439.091452	33.682	
C	-0.1176083534	 1.4836710781	 0.0888269732	-0.503265
C	 0.1192585316	 0.008685822	 0.0007540951	 0.264302
C	 0.6151939394	-0.7720775289	-1.2329069696	-0.398336
C	 1.4262414241	-1.6487234043	-0.2379155601	 0.410263
O	 2.318000733	-2.4387563862	-0.3654475041	-0.318842
C	 0.8652923046	-0.9137940834	 0.9549062793	 0.132091
C	 1.4816545143	-0.7200954506	 2.3069495305	-0.210785
O	 1.0785539609	-1.7010380503	 3.2509934807	-0.406938
N	-0.6325201839	-0.977162122	 0.7782605025	-0.384437
H	 0.7144894994	 2.0442299712	-0.3489446321	 0.13348
H	-1.0292708759	 1.7621701022	-0.4520240603	 0.140044
H	-0.2370697503	 1.8044832354	 1.1291709691	 0.125709
H	-0.1575956551	-1.2691369308	-1.8226937566	 0.132264
H	 1.2900464817	-0.2107203902	-1.8858596415	 0.127729
H	 2.5759398284	-0.6904435637	 2.1988308973	 0.111575
H	 1.1664742993	 0.2418927553	 2.7280886957	 0.110926
H	 1.3534958412	-2.5606367504	 2.9140027552	 0.296714
H	-1.0130689794	-0.5164348131	 1.6079211758	 0.237507
28.2747	105.0756	142.114	215.0831	226.926	248.0551	333.7679	359.9033	408.6667	499.2125	518.9956	553.0533	610.5141	657.2188	746.2562	818.9198	842.096	945.1945	952.8035	997.1769	1045.0647	1051.5115	1064.5017	1079.469	1132.0866	1150.1501	1197.6898	1215.5856	1319.2526	1360.7218	1385.7504	1406.5107	1419.1341	1433.5045	1460.0646	1482.6153	1487.5507	1499.097	1881.9666	2998.5557	3028.6964	3059.4485	3065.759	3091.659	3104.175	3129.1543	3442.054	3811.6853
CC12CC(=O)C1(CO)N2	C[C@@]12CC(=O)[C@]1(CO)N2	
InChI=1S/C6H9NO2/c1-5-2-4(9)6(5,3-8)7-5/h7-8H,2-3H2,1H3	InChI=1S/C6H9NO2/c1-5-2-4(9)6(5,3-8)7-5/h7-8H,2-3H2,1H3/t5-,6+/m1/s1
