21
gdb 94976	2.7335	1.71407	1.33086	1.4681	82.59	-0.2403	0.088	0.3283	1041.612	0.184667	-387.024824	-387.017293	-387.016348	-387.0566	30.859	
C	-0.0342534642	 1.5648897438	 0.0477010922	-0.403055
C	 0.0642645424	 0.0483151872	 0.0294361617	 0.011604
O	 0.8989106324	-0.3440163365	-1.0923391372	-0.300994
C	 1.7690932171	-1.4651978605	-0.7870206078	-0.122419
C	 1.3550552393	-1.9231652445	 0.607091753	-0.017068
C	 2.035991474	-1.7260677672	 2.0061194451	-0.087285
C	 2.2094876531	-0.2262823846	 1.6684491353	-0.254695
C	 0.772957002	-0.6150736634	 1.1820474555	 0.334942
C	 0.59975507	-1.3608154073	 2.537822452	-0.313646
H	 0.9487067627	 2.0117527573	 0.2227307291	 0.120801
H	-0.4133416575	 1.9340260779	-0.9090165469	 0.125444
H	-0.7163046813	 1.8934511953	 0.8388105969	 0.11193
H	-0.9384372961	-0.3902090128	-0.0991344266	 0.06725
H	 1.6027506526	-2.2434067782	-1.5396793709	 0.097798
H	 2.8104916056	-1.1338437512	-0.8707546696	 0.101167
H	 0.6499036859	-2.7595080896	 0.5701701705	 0.07027
H	 2.7565475029	-2.3824489562	 2.4967079311	 0.073865
H	 2.2587864475	 0.4600607437	 2.517658199	 0.088967
H	 2.9473336177	 0.0377993276	 0.9107143485	 0.104598
H	-0.1346289251	-2.1703134171	 2.5632221702	 0.096348
H	 0.5605904889	-0.7493917336	 3.4431073888	 0.094178
96.9375	190.6042	228.9547	268.7627	340.3203	436.4889	489.6192	523.4686	578.2415	661.4284	689.7469	777.0301	814.9954	831.1344	871.2243	898.2731	940.2979	961.9909	980.092	993.0926	1011.9569	1059.3942	1070.5621	1078.9413	1099.4142	1113.1452	1124.1683	1139.648	1157.2153	1170.5564	1204.1869	1211.9247	1219.4431	1235.4331	1293.0808	1333.4141	1360.2371	1388.0455	1401.0929	1409.1743	1485.3764	1496.7832	1497.3311	1522.3063	1547.3683	2969.7028	3027.8258	3040.214	3045.8923	3051.2723	3065.4917	3069.4665	3097.7978	3112.3919	3119.3385	3121.5823	3135.3994
CC1OCC2C3CC12C3	C[C@H]1OC[C@H]2[C@H]3C[C@@]12C3	
InChI=1S/C8H12O/c1-5-8-2-6(3-8)7(8)4-9-5/h5-7H,2-4H2,1H3	InChI=1S/C8H12O/c1-5-8-2-6(3-8)7(8)4-9-5/h5-7H,2-4H2,1H3/t5-,6-,7+,8+/m1/s1
