21
gdb 108109	3.32442	1.33127	1.29213	1.25	81.3	-0.2519	0.0776	0.3295	1093.021	0.185761	-387.101595	-387.094001	-387.093057	-387.133573	31.017	
O	-0.0201071232	 1.3323202734	 0.4189204316	-0.423241
C	-0.0389690169	-0.002237832	-0.0811366823	-0.211455
C	-1.4521289431	-0.4914409628	-0.0763159067	 0.394289
C	-2.5480545212	 0.1612948248	-0.9174206121	-0.270079
C	-3.7062061397	-0.7658965148	-0.4817889564	-0.050056
C	-3.1048992604	-2.1660371695	-0.7550251483	-0.223494
C	-1.809975051	-1.965917883	 0.0275350608	-0.121465
C	-2.1314234389	-1.0238100542	 1.1744932308	-0.085422
C	-3.6124118675	-0.6774992854	 1.0614648652	-0.222607
H	 0.871505496	 1.6768913305	 0.3119489517	 0.284306
H	 0.3665895275	-0.0381202498	-1.1060433622	 0.081858
H	 0.5857431247	-0.6661015012	 0.5388331167	 0.079533
H	-2.7111997649	 1.2087231341	-0.6475139791	 0.104958
H	-2.3429776028	 0.1059141569	-1.9929313449	 0.083522
H	-4.6832296233	-0.5642352421	-0.9202005705	 0.058571
H	-3.7222044176	-2.977578518	-0.354608721	 0.091652
H	-2.9376088423	-2.3522567355	-1.8214494851	 0.090294
H	-1.0492025712	-2.7317097699	 0.1124742374	 0.074153
H	-1.6068731213	-1.0729163245	 2.1198643677	 0.078453
H	-3.8454536205	 0.3227831525	 1.4409569266	 0.096803
H	-4.2622383222	-1.4010882893	 1.56596347	 0.089427
87.1893	150.2973	247.135	300.1089	358.9363	423.7142	429.4396	490.0557	602.8905	660.1311	714.3265	792.3068	868.102	884.286	906.3884	909.8724	918.2657	931.7516	948.5314	960.8061	990.5466	1012.3968	1035.4954	1058.3337	1080.0083	1081.6441	1125.904	1146.2609	1152.7566	1183.3727	1212.2233	1232.7265	1258.6165	1275.4879	1282.2502	1287.0037	1304.9192	1330.3262	1348.5405	1420.1906	1472.8943	1491.4485	1492.6127	1515.7552	1520.2079	2954.4653	2980.9636	3036.1121	3037.8897	3042.5614	3080.19	3084.3294	3092.3465	3120.0943	3188.3621	3200.6663	3825.3756
OCC12CC3CC1C2C3	OC[C@@]12C[C@H]3C[C@@H]1[C@@H]2C3	
InChI=1S/C8H12O/c9-4-8-3-5-1-6(8)7(8)2-5/h5-7,9H,1-4H2	InChI=1S/C8H12O/c9-4-8-3-5-1-6(8)7(8)2-5/h5-7,9H,1-4H2/t5-,6+,7-,8-
