18
gdb 114437	3.38798	1.5597	1.41537	2.9963	70.05	-0.2157	0.0662	0.2819	970.0177	0.149112	-439.011655	-439.004276	-439.003331	-439.043608	28.904	
C	 0.3741907764	 0.6326475457	-0.4277473975	-0.225967
O	-0.5930586331	 0.351185143	 0.5836867048	-0.260188
C	-1.5497663786	-0.6093294647	 0.3351185428	 0.28629
O	-2.2750005795	-0.3313679371	-0.8818163422	-0.282694
C	-2.6894221921	-1.56924361	-1.39898344	 0.11726
C	-1.6376447679	-2.5863220916	-1.7975301068	-0.063909
N	-0.3643529969	-2.1930876622	-1.1569573488	-0.328566
C	-1.1260936627	-2.0768714722	 0.1498870001	-0.126874
C	-2.3930209719	-2.7176912384	-0.4798733045	-0.159478
H	 0.8223044539	 1.5879682303	-0.1427795146	 0.111873
H	 1.148971475	-0.1375534319	-0.478557039	 0.115446
H	-0.0961756769	 0.7204553984	-1.4091773383	 0.134487
H	-2.2397004622	-0.5371659734	 1.190304287	 0.080812
H	-3.6139913759	-1.5229681405	-1.9614258912	 0.107093
H	-1.6728334789	-3.1675703502	-2.7122432841	 0.095169
H	 0.2163811259	-3.0260104834	-1.0905465392	 0.221873
H	-0.6481516458	-2.5286723639	 1.0174995502	 0.083276
H	-3.087743989	-3.4390837979	-0.0679706887	 0.094096
89.1287	139.1364	189.7813	305.1314	321.1046	430.1025	507.9321	575.3426	709.8125	723.5478	752.6695	790.6374	819.8539	840.5289	909.4242	942.1252	959.594	965.9145	1004.5521	1023.0037	1031.1086	1059.7812	1070.7585	1107.4173	1120.3296	1177.1173	1179.5533	1208.4015	1224.2938	1237.8969	1251.6899	1303.9305	1360.0557	1366.9599	1412.0942	1431.8073	1474.5701	1490.5127	1499.1448	2987.9894	3041.9723	3113.9849	3133.1366	3135.3813	3171.7822	3181.8125	3197.8911	3481.7399
COC1OC2C3NC1C23	CO[C@H]1O[C@H]2[C@H]3N[C@@H]1[C@@H]23	
InChI=1S/C6H9NO2/c1-8-6-4-2-3(7-4)5(2)9-6/h2-7H,1H3	InChI=1S/C6H9NO2/c1-8-6-4-2-3(7-4)5(2)9-6/h2-7H,1H3/t2-,3-,4+,5+,6-/m0/s1
