13
gdb 125728	3.11846	1.46935	1.00505	6.3533	64.13	-0.2736	-0.0726	0.201	1088.7899	0.088541	-489.91108	-489.903302	-489.902358	-489.943747	28.135	
C	-0.2472338596	 1.5361975445	 0.0738439292	-0.48035
C	 0.0247987256	 0.0678350331	-0.04441829	 0.446234
N	 0.0983835828	-0.4408206777	-1.2199520493	-0.148709
O	 0.3564932682	-1.8288977653	-1.2972927973	-0.261551
C	 0.5289180494	-2.6464215191	-0.2140663132	 0.356912
O	 0.7438508171	-3.8082733857	-0.3754639257	-0.276676
C	 0.4339028437	-2.0051382745	 1.1690936119	 0.306683
O	 0.5686593822	-2.6200129261	 2.1934867088	-0.306969
N	 0.1797549495	-0.6474805073	 1.1248034943	-0.393692
H	 0.5704971529	 2.0387360668	 0.6015221184	 0.1529
H	-0.3455651645	 1.9646644179	-0.9227370702	 0.177819
H	-1.171906434	 1.713347181	 0.6335491907	 0.152884
H	 0.1086129667	-0.1781755877	 2.0189274624	 0.274515
84.2467	122.3314	169.6065	297.5064	308.4531	348.2816	435.5588	462.8779	513.7811	596.3402	611.863	652.7526	673.8114	789.4116	810.59	945.4378	1018.5896	1067.1945	1080.8158	1118.8937	1254.1291	1325.6082	1412.8395	1471.1006	1479.6888	1502.1093	1705.885	1840.1592	1870.9042	3042.4983	3101.3959	3168.0868	3582.4661
CC1=NOC(=O)C(=O)N1	Cc1noc(=O)c(=O)[nH]1	
InChI=1S/C4H4N2O3/c1-2-5-3(7)4(8)9-6-2/h1H3,(H,5,6,7)	InChI=1S/C4H4N2O3/c1-2-5-3(7)4(8)9-6-2/h1H3,(H,5,6,7)
