20
gdb 121430	3.08025	0.71086	0.60206	4.3942	81.29	-0.2568	-0.0169	0.2399	1864.334	0.16744	-440.322218	-440.311334	-440.31039	-440.360186	36.731	
C	 1.2189840819	 1.8033748106	-0.6366635008	-0.38104
C	 0.8906757788	 0.3163839328	-0.4882857574	-0.155983
C	 1.1651315885	-0.4764156963	-1.773201439	-0.149913
N	 0.9351564719	-1.8904432131	-1.5565827895	-0.272662
C	 0.1156531604	-2.5680791939	-2.2282357724	 0.399516
C	-0.7648818906	-2.2192854685	-3.3960402662	-0.475529
O	-0.0603581451	-3.9169793347	-1.9385328502	-0.221269
C	 0.2848719343	-4.3945012542	-0.703007994	 0.175433
O	 0.2564656857	-5.5633371513	-0.4697739146	-0.262501
H	 2.2759710091	 1.9540743229	-0.8825777051	 0.118513
H	 0.6250909427	 2.2680662172	-1.4316903096	 0.115177
H	 1.0132732715	 2.3462126896	 0.2904169089	 0.119044
H	 1.4781121217	-0.1251227351	 0.3242992513	 0.111623
H	-0.1635614586	 0.1892221219	-0.2128766195	 0.097763
H	 0.5746900136	-0.0498282997	-2.597263106	 0.090081
H	 2.2223870263	-0.3550978697	-2.0436726428	 0.114333
H	-0.6157010852	-1.196371068	-3.7374084251	 0.141615
H	-0.5568912011	-2.9064645955	-4.2212957155	 0.159983
H	-1.8149778691	-2.3576889491	-3.1203651613	 0.154207
H	 0.5556438134	-3.5948528557	-0.002500141	 0.121607
32.1701	65.1476	80.7796	108.1847	111.6442	128.0632	226.0047	238.912	291.4456	343.4074	404.3145	429.424	558.1197	565.5214	663.6721	757.751	867.1734	898.731	907.7578	993.2069	1043.5295	1048.2659	1059.2608	1091.1145	1125.8337	1144.9497	1167.0338	1230.6927	1273.9438	1319.2383	1331.159	1389.3006	1395.8204	1411.5916	1415.5884	1471.8104	1475.1894	1490.2354	1499.552	1500.7784	1514.3898	1776.8883	1865.6438	2991.4469	3028.9577	3031.8334	3039.2211	3056.2359	3071.5253	3075.8264	3099.856	3108.2574	3114.4006	3166.8883
CCCN=C(C)OC=O	CCCN=C(C)OC=O	
InChI=1S/C6H11NO2/c1-3-4-7-6(2)9-5-8/h5H,3-4H2,1-2H3	InChI=1S/C6H11NO2/c1-3-4-7-6(2)9-5-8/h5H,3-4H2,1-2H3
