16
gdb 28939	2.95519	1.29032	1.02221	3.473	74.98	-0.2297	-0.0011	0.2286	1154.2535	0.125641	-396.976573	-396.968245	-396.967301	-397.010287	29.752	
C	-0.1332792969	 1.4916544143	 0.0900932428	-0.51634
C	-0.0337850706	 0.0086639681	-0.0236001025	 0.272426
C	 0.0037104178	-0.8325728054	-1.1045125122	-0.15447
N	 0.0989537083	-2.1505816475	-0.7151819561	-0.268285
C	 0.1157879527	-2.1204944364	 0.5910372541	 0.002895
N	 0.0442010772	-0.8384728409	 1.0758600007	-0.040074
C	 0.0343873146	-0.459462282	 2.470926185	-0.312607
C	-1.2840671249	-0.0071813135	 2.9437283561	 0.283515
N	-2.3127363494	 0.3613807472	 3.3170314788	-0.294638
H	 0.7344520042	 1.9321660425	 0.5977134511	 0.129565
H	-0.1807992835	 1.927734053	-0.9100943538	 0.147979
H	-1.0301261719	 1.8090373583	 0.6348738733	 0.153868
H	-0.0305701411	-0.5556045096	-2.1476962723	 0.113157
H	 0.1826313332	-2.972419973	 1.2527131571	 0.132342
H	 0.3460278191	-1.3218710459	 3.0672842468	 0.176636
H	 0.7612158712	 0.3389422708	 2.6566023013	 0.174029
48.3777	94.5078	163.9034	229.1551	248.7604	277.6189	370.6939	397.4463	490.0622	631.7784	673.887	676.7851	772.5899	795.5247	846.7988	918.946	927.07	975.7527	1008.9374	1067.0525	1145.0856	1182.0125	1233.4597	1270.4826	1292.1487	1372.6849	1396.8665	1419.7323	1425.575	1461.3369	1482.8374	1489.2037	1528.0596	1609.1555	2367.3655	3020.032	3052.9216	3070.0844	3101.3797	3127.0095	3239.7258	3247.3479
CC1=CN=CN1CC#N	Cc1cncn1CC#N	
InChI=1S/C6H7N3/c1-6-4-8-5-9(6)3-2-7/h4-5H,3H2,1H3	InChI=1S/C6H7N3/c1-6-4-8-5-9(6)3-2-7/h4-5H,3H2,1H3
