13
gdb 11229	4.74215	1.476	1.27341	4.4908	59.49	-0.2494	0.0184	0.2678	918.5814	0.097463	-394.81331	-394.806116	-394.805172	-394.845486	25.702	
N	 0.0179633257	 1.3632065139	-0.1298628618	-0.573898
C	-0.0463796778	 0.0070446439	-0.0769907661	 0.495074
N	-1.1013530489	-0.6971477034	 0.0942117021	-0.339731
C	-0.6611377244	-2.0932388239	 0.0403536261	-0.135548
C	 0.85790366	-2.0178484204	-0.3313018831	-0.122159
O	 1.1478009159	-0.6113448781	-0.2775366256	-0.243955
C	-0.88549428	-2.7788315528	 1.3249270607	 0.282097
N	-1.038818983	-3.3327116966	 2.3272582117	-0.322784
H	 0.9225171889	 1.7754088028	 0.0308173712	 0.2726
H	-0.7696257674	 1.8469523793	 0.2700555955	 0.278798
H	-1.2221663203	-2.6451298363	-0.7225120747	 0.132458
H	 1.5086189059	-2.5391688703	 0.3721580837	 0.146083
H	 1.0481538054	-2.3772275581	-1.3460164398	 0.130964
41.6219	149.6901	203.9427	290.2508	373.5714	424.7048	487.0219	504.8633	567.3078	710.1475	730.777	783.9885	822.3528	936.2815	1001.6278	1005.2886	1056.0233	1078.6952	1171.0587	1228.2887	1259.4995	1341.708	1356.5193	1442.5293	1521.1839	1618.8171	1748.6587	2358.7208	3038.6402	3068.1896	3130.9909	3605.5433	3722.7786
NC1=NC(CO1)C#N	NC1=N[C@@H](CO1)C#N	
InChI=1S/C4H5N3O/c5-1-3-2-8-4(6)7-3/h3H,2H2,(H2,6,7)	InChI=1S/C4H5N3O/c5-1-3-2-8-4(6)7-3/h3H,2H2,(H2,6,7)/t3-/m1/s1
