17
gdb 33884	3.43509	1.53508	1.33239	3.5907	76.74	-0.2423	0.0269	0.2692	974.3869	0.139275	-380.816212	-380.809565	-380.808621	-380.847136	27.334	
N	 0.0825963923	-1.0796243314	 0.0556005624	-0.352285
C	 0.0198737681	 0.0768684964	 0.0263763694	 0.219332
C	-0.065273893	 1.5011009423	-0.0025460138	 0.168094
C	 0.3640801078	 2.2788857142	-1.2410851451	-0.360458
C	 1.1667911421	 2.4404763422	 0.008936258	-0.029111
N	 0.8301071206	 3.443180115	 1.0427093197	-0.135547
C	-0.6397251276	 3.7177338284	 0.7841211796	-0.195236
C	-0.8673225799	 2.2292668844	 1.107076077	-0.111044
C	 0.3005418885	 2.4864528114	 2.1180616132	-0.17013
H	 0.8413262261	 1.6721176768	-2.0039886814	 0.143493
H	-0.2629165142	 3.0617948435	-1.6470937425	 0.134367
H	 2.1770824517	 2.0550579339	 0.0589659867	 0.125745
H	-1.0162686161	 4.3791503462	 1.565717681	 0.122017
H	-0.8966631489	 4.1368195221	-0.1873649311	 0.11275
H	-1.8351017352	 1.8079860257	 1.3798520235	 0.088058
H	 0.9688067548	 1.6582247469	 2.3626392674	 0.124412
H	 0.016001593	 3.0386392519	 3.016415326	 0.115543
134.9802	160.4776	341.4671	424.7811	488.6015	538.2838	545.7021	591.6744	617.7148	698.0471	754.7643	796.9196	846.2749	857.5032	890.4319	913.5842	940.8852	1007.999	1017.0899	1026.6211	1035.416	1084.5144	1092.7265	1112.791	1135.786	1192.2087	1200.5432	1215.7395	1235.1748	1245.9358	1288.8279	1301.9053	1364.2589	1479.0618	1511.5997	1556.1067	2338.1274	3070.0185	3093.2958	3118.8695	3138.4932	3143.4312	3152.4433	3202.0598	3231.6282
N#CC12CC1N1CC2C1	N#C[C@]12C[C@H]1N1C[C@@H]2C1	
InChI=1S/C7H8N2/c8-4-7-1-6(7)9-2-5(7)3-9/h5-6H,1-3H2	InChI=1S/C7H8N2/c8-4-7-1-6(7)9-2-5(7)3-9/h5-6H,1-3H2/t6-,7+/m1/s1
