20
gdb 88886	4.3262	0.8333	0.77412	2.108	86.25	-0.2256	0.029	0.2546	1552.9536	0.170658	-403.133458	-403.12444	-403.123496	-403.168039	33.138	
C	 0.1445703949	 1.6299636312	-0.3452218868	-0.39965
C	 0.0081667489	 0.1469456842	-0.0863401412	-0.007343
C	 1.2243056997	-0.7307288601	 0.0441512284	-0.306426
C	 0.3636268405	-0.4558406844	 1.2614451441	 0.02411
N	 0.9087614094	 0.4077084897	 2.2570882871	-0.3251
C	 0.6784436427	 0.1930090234	 3.466890349	 0.464601
C	 1.0635542702	 0.8582889404	 4.7703086444	-0.37791
C	 0.227209067	-0.2748378164	 5.4003218341	-0.075484
O	-0.0662226928	-0.8114939316	 4.0762970534	-0.265718
H	 0.9927254212	 2.0452417881	 0.2033395849	 0.133182
H	 0.2927438099	 1.8274053593	-1.4128037276	 0.108258
H	-0.7535195245	 2.1712225912	-0.0267131259	 0.1098
H	-0.8529743635	-0.3161710284	-0.5618944483	 0.08129
H	 1.2107305048	-1.730040549	-0.377033049	 0.107225
H	 2.1925750322	-0.242282062	 0.0293966955	 0.115903
H	-0.2658583701	-1.2711618843	 1.6100824585	 0.095173
H	 2.1316624096	 0.8465235893	 4.9945271328	 0.137228
H	 0.6764142177	 1.8701533349	 4.9025856624	 0.137068
H	 0.7748799546	-1.0022567501	 6.0046755131	 0.121975
H	-0.6896964222	 0.0272351146	 5.9125547512	 0.121819
45.5595	112.6662	131.6872	155.4637	195.2458	225.1882	329.5004	402.7862	464.9346	511.1352	611.4137	763.1086	781.1784	790.8019	830.5567	868.9685	905.5149	925.4766	964.0181	979.2763	1014.8391	1044.6482	1055.1313	1059.4166	1109.0842	1128.1761	1144.5968	1159.9751	1184.4844	1198.531	1200.1504	1232.9325	1248.1483	1350.709	1381.7191	1412.4624	1419.9528	1469.0354	1482.0461	1494.828	1502.4349	1522.1682	1841.7816	3030.5576	3061.591	3085.1223	3085.4878	3113.8173	3119.64	3126.3882	3132.7518	3140.0699	3141.0809	3221.8468
CC1CC1N=C1CCO1	C[C@H]1C[C@H]1N=C1CCO1	
InChI=1S/C7H11NO/c1-5-4-6(5)8-7-2-3-9-7/h5-6H,2-4H2,1H3	InChI=1S/C7H11NO/c1-5-4-6(5)8-7-2-3-9-7/h5-6H,2-4H2,1H3/t5-,6+/m0/s1
