14
gdb 5711	4.95607	2.02513	1.46413	1.4358	63.27	-0.217	0.0138	0.2308	800.1599	0.109712	-382.550085	-382.544008	-382.543064	-382.580479	22.819	
C	-0.0693700081	 1.4759044012	 0.104421935	-0.177283
O	 1.2338442618	 1.9252463537	-0.2947197526	-0.28322
C	 2.1267918578	 0.8325847853	-0.6147571409	-0.179727
C	 1.299789285	-0.3917190422	-0.3928869355	 0.212864
C	 0.0740508047	-0.0018474405	 0.0095214469	 0.279939
O	-0.7507875437	-1.0429968193	 0.2369028414	-0.192822
C	 0.001803026	-2.1588452554	-0.0395494103	-0.011066
C	 1.2650819474	-1.823176815	-0.4294921065	-0.364331
H	-0.2925981102	 1.835744165	 1.1199021513	 0.116568
H	-0.8303499573	 1.8922561268	-0.5723859639	 0.116573
H	 2.4719521119	 0.9499930246	-1.6516398335	 0.112888
H	 3.0087115545	 0.8936315138	 0.0383444165	 0.112882
H	-0.5059114371	-3.1001057599	 0.0902416398	 0.138303
H	 2.0466028875	-2.5155009779	-0.7007968976	 0.118432
111.6129	185.5693	251.0302	417.8788	597.3297	608.2686	646.0787	712.6194	729.4074	819.5133	848.1299	883.2871	930.1465	1021.1941	1043.3005	1053.4745	1069.8275	1106.8194	1153.3626	1160.1199	1211.7552	1268.9475	1321.2359	1334.4055	1421.1729	1476.9422	1518.3471	1522.3838	1531.2399	1657.8409	2983.4973	2996.6691	3004.17	3018.4477	3255.3318	3286.6087
C1OCC2=C1OC=C2	C1OCc2c1occ2	
InChI=1S/C6H6O2/c1-2-8-6-4-7-3-5(1)6/h1-2H,3-4H2	InChI=1S/C6H6O2/c1-2-8-6-4-7-3-5(1)6/h1-2H,3-4H2
