16
gdb 49059	2.60989	1.66656	1.39929	2.0626	68.24	-0.2455	-0.0358	0.2097	964.5036	0.124646	-437.895902	-437.888275	-437.88733	-437.929255	27.864	
O	-0.867609396	 1.2217132095	-0.2740678272	-0.260428
C	 0.2040954258	 0.9593625925	 0.211915348	 0.089058
C	 1.4241943856	 1.8307273603	 0.0386251989	 0.219067
C	 1.4230337661	 3.1660954655	 0.8605461934	-0.266587
C	 1.7284311842	 3.9604306704	-0.4476590002	-0.243236
C	 1.5960686275	 2.6606391177	-1.2699899541	 0.048404
O	 2.83749621	 2.1738724942	-1.8276608358	-0.226327
C	 3.3276956712	 1.3134653345	-0.902131637	 0.110092
N	 2.6645223013	 1.0542075894	 0.1507568248	-0.317154
H	 0.3659610617	 0.0549904947	 0.8366253165	 0.096779
H	 0.449783529	 3.3979821295	 1.2980496017	 0.124481
H	 2.1879164083	 3.1947103745	 1.6379421916	 0.122722
H	 1.0016391676	 4.734717152	-0.7000508755	 0.120579
H	 2.7312361041	 4.3889114191	-0.4988251709	 0.120046
H	 0.8210828576	 2.6167878634	-2.0339667754	 0.114235
H	 4.292966326	 0.8880958428	-1.1536556188	 0.148268
32.9368	83.2227	188.8608	252.5385	285.0821	404.7359	513.1633	574.8125	655.6283	673.3294	742.852	810.7292	861.6609	875.3727	923.1976	948.7017	962.5554	972.0737	1025.0583	1092.8003	1125.9895	1128.8458	1157.1111	1188.4517	1229.2428	1239.86	1272.7552	1294.2566	1321.2259	1357.8088	1402.9074	1465.0527	1480.3401	1675.1431	1819.3314	2908.7889	3073.6046	3078.1395	3122.4757	3131.6319	3143.773	3217.1687
O=CC12CCC1OC=N2	O=C[C@]12CC[C@H]1OC=N2	
InChI=1S/C6H7NO2/c8-3-6-2-1-5(6)9-4-7-6/h3-5H,1-2H2	InChI=1S/C6H7NO2/c8-3-6-2-1-5(6)9-4-7-6/h3-5H,1-2H2/t5-,6-/m1/s1
