14
gdb 18551	4.30038	2.02909	1.62515	4.1015	61.93	-0.2535	-0.0065	0.247	776.8545	0.10922	-382.579434	-382.573453	-382.572509	-382.609605	23.084	
O	 0.0231673382	 0.0838283347	-0.6341561126	-0.320686
C	 0.0537837343	 1.1669795029	-0.1497221074	 0.454688
O	-0.9550414104	 1.8202452006	 0.5177115139	-0.256523
C	-0.1479754699	 3.03831456	 0.6790999671	 0.114997
C	 0.214225909	 3.3224603342	 2.1397943308	-0.280656
C	 1.5462282048	 2.6277726736	 2.3098297143	-0.057244
C	 2.0125843591	 2.1106311453	 1.1717446283	-0.077621
C	 1.0592551601	 2.3216033212	 0.0247312744	-0.265481
H	-0.6198298236	 3.8611729837	 0.1424914266	 0.101392
H	 0.2861973474	 4.3994775288	 2.336359351	 0.117753
H	-0.5616052682	 2.9297586478	 2.8078985723	 0.135384
H	 2.0491761667	 2.5668613868	 3.2682713689	 0.107408
H	 2.9402777348	 1.5637112375	 1.0579133996	 0.114889
H	 1.4976266577	 2.703199493	-0.8989757272	 0.111701
133.0315	190.1819	335.8154	417.1526	492.8139	654.2072	689.7994	743.1672	780.3542	826.9325	852.8893	875.4774	944.2259	965.4043	975.4897	1005.8448	1015.9479	1034.5165	1117.1465	1130.9527	1180.5705	1195.7715	1254.5646	1273.7974	1326.8248	1337.2933	1379.3858	1465.0356	1672.241	1937.6983	3030.3373	3066.7037	3102.8642	3120.0885	3195.4738	3221.9648
O=C1OC2CC=CC12	O=C1O[C@H]2CC=C[C@@H]12	
InChI=1S/C6H6O2/c7-6-4-2-1-3-5(4)8-6/h1-2,4-5H,3H2	InChI=1S/C6H6O2/c7-6-4-2-1-3-5(4)8-6/h1-2,4-5H,3H2/t4-,5+/m1/s1
