20
gdb 58689	2.19693	1.31363	1.11331	4.6367	75.65	-0.2458	0.0266	0.2723	1211.1337	0.169082	-440.294826	-440.284892	-440.283948	-440.329805	36.702	
C	 0.6210735086	-0.0910219366	 1.3155855966	-0.419771
C	 0.0626263714	-0.1378816209	-0.1065433442	 0.069477
O	 0.9332991715	-0.8521892643	-0.9760663913	-0.426952
C	-1.3672114412	-0.6986577199	-0.1617662673	 0.349529
C	-1.8622405992	-1.3170805319	-1.4391323535	-0.274518
C	-1.6024073929	-2.1871954357	-0.2331258916	-0.333393
N	-2.3257663475	 0.0518022479	 0.6101662452	-0.342242
C	-2.8286406377	 1.2583284022	 0.2211151065	 0.145529
O	-2.5663998237	 1.8258374562	-0.8161667321	-0.318552
H	 1.6271214732	 0.336999723	 1.3101768221	 0.129324
H	-0.0069376086	 0.5179407758	 1.9713150287	 0.119824
H	 0.6760393519	-1.1002756619	 1.7448284022	 0.105081
H	 0.0161437699	 0.877265844	-0.5158787562	 0.120152
H	 1.2607080326	-1.6234113707	-0.5016048739	 0.281274
H	-2.8894874918	-1.1213562839	-1.7190956442	 0.124056
H	-1.1525226104	-1.3707648084	-2.2544217697	 0.138514
H	-0.7369077235	-2.8400572396	-0.2561337221	 0.103496
H	-2.4537888097	-2.5899069849	 0.3050205182	 0.110652
H	-2.5673023074	-0.278454366	 1.5319443407	 0.245938
H	-3.5296196955	 1.6679252854	 0.9776600357	 0.072581
55.1247	73.7026	154.5353	192.2326	238.2212	259.119	262.9301	309.079	336.4187	384.6043	439.9202	466.2205	524.5503	560.6207	668.7764	774.5145	810.9591	876.8937	911.4885	923.1254	974.5267	1006.3583	1031.6885	1055.9377	1066.807	1082.0692	1089.506	1133.3545	1173.5931	1191.6606	1282.8704	1307.8201	1329.3101	1358.7739	1396.7995	1423.3064	1431.6405	1449.727	1493.8977	1494.4048	1496.3107	1502.7301	1809.0322	2919.3817	3021.4041	3059.0026	3100.1613	3124.3959	3132.5532	3159.2956	3215.8803	3254.4208	3614.9072	3811.908
CC(O)C1(CC1)NC=O	C[C@@H](O)C1(CC1)NC=O	
InChI=1S/C6H11NO2/c1-5(9)6(2-3-6)7-4-8/h4-5,9H,2-3H2,1H3,(H,7,8)	InChI=1S/C6H11NO2/c1-5(9)6(2-3-6)7-4-8/h4-5,9H,2-3H2,1H3,(H,7,8)/t5-/m1/s1
