21
gdb 112928	3.12713	1.04596	0.82612	2.2544	81.61	-0.2437	0.0179	0.2616	1421.1774	0.182472	-424.227088	-424.217799	-424.216855	-424.261263	34.905	
C	 0.0041311559	 1.3649383827	-0.0695815539	-0.239592
O	-0.0778475429	-0.0335698846	 0.0662888177	-0.245793
C	 0.6630407925	-0.5645328297	 1.1624013898	 0.083735
C	 0.0290129374	-1.907655945	 1.5255703988	-0.222497
C	 0.9223302296	-2.6945896294	 2.4782781879	 0.115637
O	 0.2143434389	-3.8681698591	 2.853926498	-0.439614
C	 2.26437429	-3.0156688946	 1.8066605098	-0.279312
C	 2.8366354781	-1.813168034	 1.1016401496	-0.066094
C	 2.1276027172	-0.7206898353	 0.8214799678	-0.062587
H	 1.0233050873	 1.7144592954	-0.2936872116	 0.1043
H	-0.6453267331	 1.6459716478	-0.9026261054	 0.127523
H	-0.3413888647	 1.8825784503	 0.8396549344	 0.102884
H	 0.5642376622	 0.1299831745	 2.0165206294	 0.068095
H	-0.9555744851	-1.7538142027	 1.9751811202	 0.106189
H	-0.1152692867	-2.4832477818	 0.604348674	 0.11609
H	 1.120108416	-2.0721118446	 3.3682148397	 0.064746
H	 0.7739964151	-4.3746705873	 3.4514553587	 0.27845
H	 2.9812570309	-3.395270583	 2.5482869086	 0.091357
H	 2.1058703755	-3.8354589206	 1.0912305226	 0.119819
H	 3.8847895938	-1.8629477078	 0.8155665838	 0.088789
H	 2.600573052	 0.1163602187	 0.3147486199	 0.087875
74.4931	101.5179	151.8308	182.591	269.51	289.1038	307.3335	332.986	393.9735	433.2938	468.7663	510.5195	577.0994	686.4469	753.1376	868.07	912.7861	932.3126	961.5602	989.7789	1007.2522	1067.1365	1080.5747	1104.0873	1108.9021	1144.8575	1151.3789	1181.4585	1215.9252	1219.1818	1246.0653	1276.2554	1314.5934	1331.4551	1351.9492	1380.9804	1386.6405	1418.2473	1444.625	1476.806	1478.6174	1492.3576	1499.912	1509.0971	1718.6016	2928.4185	2947.7636	2971.4616	3002.1852	3017.2833	3031.8326	3051.7677	3103.2986	3109.8398	3144.4535	3171.0666	3812.4784
COC1CC(O)CC=C1	CO[C@H]1C[C@@H](O)CC=C1	
InChI=1S/C7H12O2/c1-9-7-4-2-3-6(8)5-7/h2,4,6-8H,3,5H2,1H3	InChI=1S/C7H12O2/c1-9-7-4-2-3-6(8)5-7/h2,4,6-8H,3,5H2,1H3/t6-,7+/m0/s1
