18
gdb 30274	2.90687	1.61864	1.09748	1.7548	77.4	-0.2239	0.007	0.2309	1096.4116	0.150513	-401.990392	-401.982911	-401.981967	-402.022499	28.776	
C	-0.0115591746	 1.6036610541	-0.0264366785	-0.392482
C	 0.0050233161	 0.0750061774	 0.066888365	-0.115349
C	 0.7168140228	-0.6195674601	-1.1575379343	-0.21085
C	 1.5831631639	-1.8274977166	-0.6384827028	-0.360686
C	 1.628802101	-1.479953488	 0.804989794	 0.298149
C	 0.8058391081	-0.4934621222	 1.2004247856	 0.24799
N	 0.9057030551	-0.3220411912	 2.5744890765	-0.344808
C	 1.7827060092	-1.2137128262	 2.9164439416	 0.032058
O	 2.2780618855	-1.976794045	 1.8934515111	-0.197853
H	 1.0071030503	 2.0003375172	-0.0948228609	 0.115224
H	-0.5672448587	 1.9363138925	-0.9095222186	 0.11053
H	-0.4839843319	 2.041954958	 0.8575794104	 0.130344
H	-1.0347874783	-0.2744708386	 0.1345442379	 0.086308
H	-0.000413395	-0.9366025589	-1.918225999	 0.105423
H	 1.3824837972	 0.1109044838	-1.6278520406	 0.112117
H	 1.0919466591	-2.7925876297	-0.817305423	 0.119405
H	 2.5614087927	-1.871342842	-1.1281307809	 0.119294
H	 2.1754868476	-1.4252518245	 3.8986314364	 0.145186
89.9708	163.8305	220.5214	232.2284	285.8533	426.6763	470.3819	562.0122	640.525	651.1799	726.3057	737.4501	812.1055	821.3236	889.8409	930.9455	953.0927	981.0245	1020.9891	1079.2384	1091.9294	1103.054	1120.5314	1182.5283	1222.0134	1257.7861	1273.8448	1299.0531	1317.5967	1342.9818	1377.4332	1405.2252	1419.2213	1484.2473	1495.2121	1500.3157	1506.6369	1525.6216	1674.3761	2999.8747	3022.8156	3031.5789	3054.2941	3068.4123	3100.4828	3107.4767	3112.0421	3275.3008
CC1CCC2=C1N=CO2	C[C@H]1CCc2c1nco2	
InChI=1S/C7H9NO/c1-5-2-3-6-7(5)8-4-9-6/h4-5H,2-3H2,1H3	InChI=1S/C7H9NO/c1-5-2-3-6-7(5)8-4-9-6/h4-5H,2-3H2,1H3/t5-/m0/s1
