16
gdb 65880	3.23492	1.15212	1.10554	1.426	66.96	-0.2722	-0.053	0.2192	1134.4094	0.123549	-475.048312	-475.040083	-475.039139	-475.081477	30.565	
O	 0.296373569	 1.50857084	-0.2803249646	-0.479457
C	-0.0146858981	 0.1925061407	 0.0645676109	 0.288872
C	 0.4716492628	-0.1555615603	 1.4990512999	-0.149724
O	-0.4358800624	-1.1344558139	 2.00547304	-0.234671
C	-1.6219899397	-1.1037209091	 1.3128040622	 0.418214
N	-2.6168111586	-1.8324409234	 1.5683534453	-0.535261
C	-1.5301818328	-0.0832096622	 0.2033960411	-0.370112
C	 0.60935988	-0.760723701	-0.9405563555	 0.122417
O	 1.2535590829	-0.3572449521	-1.8777601076	-0.27184
H	 0.8225814364	 1.4528793073	-1.0947843434	 0.29741
H	 1.4823776405	-0.5704004141	 1.5422932471	 0.127367
H	 0.4353697873	 0.759700091	 2.1005144675	 0.136763
H	-2.4317498089	-2.4257466772	 2.3792237905	 0.227399
H	-2.0088561142	 0.8535817203	 0.5058236604	 0.157315
H	-2.0249915267	-0.4348127867	-0.7032473081	 0.145017
H	 0.4428537925	-1.8419771391	-0.7645559756	 0.120292
72.8422	114.1216	149.9481	273.3026	289.8071	352.4182	372.9365	457.8565	485.5175	519.5007	527.0322	670.1615	728.1142	830.74	856.3631	898.1385	907.0622	936.8273	997.7636	1017.6005	1078.2145	1111.7766	1136.7085	1158.2202	1201.8709	1257.3718	1266.318	1315.3362	1386.2845	1392.4652	1445.0001	1466.2627	1516.6763	1787.3703	1814.1167	2946.4492	3043.3242	3068.4516	3100.8321	3128.2762	3473.503	3678.838
OC1(COC(=N)C1)C=O	O[C@]1(CO[C]([NH])C1)C=O	
InChI=1S/C5H7NO3/c6-4-1-5(8,2-7)3-9-4/h2,6,8H,1,3H2	InChI=1S/C5H7NO3/c6-4-1-5(8,2-7)3-9-4/h2,6,8H,1,3H2/t5-/m0/s1
