17
gdb 13520	3.26795	1.64852	1.43828	4.4321	64.35	-0.244	0.0172	0.2612	933.4401	0.141588	-401.017118	-401.008449	-401.007505	-401.051102	30.508	
C	-0.8340773953	 1.2601265097	 0.2183113121	-0.410174
C	-0.1822960655	-0.101851832	 0.0854747462	 0.157889
O	 0.8465909862	-0.1260273259	-0.9255677672	-0.287505
C	 1.8514361649	-0.5322885929	 0.0251647609	-0.077494
C	 0.8360322183	-0.574498205	 1.1810897122	-0.185987
C	 1.0997222974	 0.3917504386	 2.3223171159	 0.410744
N	 0.4752366337	 0.079347904	 3.4947616208	-0.529761
O	 1.7860260241	 1.3895085135	 2.197329363	-0.360182
H	-0.0942444421	 2.0233547378	 0.469537418	 0.151455
H	-1.3094890473	 1.5282966109	-0.7301754592	 0.125361
H	-1.6062829004	 1.2449715154	 0.9957087161	 0.108883
H	-0.9432483795	-0.8670729293	-0.12221636	 0.074934
H	 2.3046180605	-1.4943726644	-0.2401996761	 0.095767
H	 2.6264382893	 0.2293530502	 0.1545301279	 0.129504
H	 0.6163434806	-1.5769444447	 1.5552234061	 0.07467
H	-0.0666223432	-0.7579066012	 3.6131600194	 0.25909
H	 0.5916390384	 0.6992793853	 4.279672524	 0.262807
45.6793	77.6454	119.8263	164.5999	253.2408	267.3495	349.7815	399.6975	446.4014	580.4472	616.4546	710.3141	757.0734	801.5966	890.1978	908.492	967.8533	1020.2888	1061.267	1076.4119	1105.3466	1119.5967	1149.1292	1181.018	1226.1497	1275.7909	1288.9431	1362.8692	1375.1329	1406.1483	1419.1795	1485.1619	1499.044	1517.2622	1616.1631	1788.1194	2997.7543	3028.0765	3037.9061	3076.3034	3092.848	3105.5626	3136.7272	3603.4157	3741.8935
CC1OCC1C(N)=O	C[C@H]1OC[C@H]1C(=O)N	
InChI=1S/C5H9NO2/c1-3-4(2-8-3)5(6)7/h3-4H,2H2,1H3,(H2,6,7)	InChI=1S/C5H9NO2/c1-3-4(2-8-3)5(6)7/h3-4H,2H2,1H3,(H2,6,7)/t3-,4-/m1/s1
