21
gdb 87826	2.8079	1.38403	1.17203	1.655	83.17	-0.221	0.082	0.303	1171.7079	0.180667	-387.039161	-387.030113	-387.029168	-387.07243	35.025	
C	-0.0912666235	 1.5108202399	 0.1004580878	-0.404407
C	 0.0181825684	 0.003119169	 0.0348450075	-0.080717
C	 1.3836930316	-0.6590227174	-0.1456979144	-0.380521
C	 0.6547124921	-0.754335326	 1.1543341627	 0.429174
O	 1.1631455987	-0.0947277631	 2.3300772654	-0.323554
C	 0.8371958955	-1.2542087432	 3.1079943655	 0.059834
C	-0.6389498747	-1.5130165425	 3.0864122668	-0.349026
C	 0.232670359	-1.9848300052	 1.9306169432	 0.174702
C	 0.3246966106	-3.403578265	 1.4539273983	-0.497427
H	 0.7276283751	 1.9341501443	 0.688199839	 0.1336
H	-0.061526407	 1.9544650783	-0.9006491592	 0.112929
H	-1.0288818243	 1.8174582325	 0.5765012826	 0.116823
H	-0.8121919631	-0.4990980488	-0.4574124982	 0.083897
H	 1.4596594694	-1.5422507251	-0.7721328888	 0.11044
H	 2.2529301507	-0.0090813212	-0.167807279	 0.120719
H	 1.5313318884	-1.5497776738	 3.8860258676	 0.103226
H	-0.9838978625	-2.3083872379	 3.7412804552	 0.108431
H	-1.3255095416	-0.6793919479	 2.9679635797	 0.113826
H	-0.4741676597	-3.6400498094	 0.7404235365	 0.121662
H	 1.2836483302	-3.5968894733	 0.9614322948	 0.124944
H	 0.2296879468	-4.1029918443	 2.290428267	 0.121444
121.9297	133.4679	166.1028	188.28	214.1508	243.8991	315.12	408.6587	415.7472	470.9841	518.6636	590.873	649.9938	785.291	809.9708	856.6868	882.199	891.6583	899.7326	953.9622	973.4472	993.0839	1004.1869	1032.5443	1038.6041	1076.217	1088.6624	1107.0662	1123.7923	1129.3739	1159.0907	1187.5537	1260.2551	1268.9838	1327.4405	1386.0614	1412.6884	1421.7746	1429.7473	1476.045	1486.5684	1491.1702	1495.4052	1499.5396	1513.1815	3023.2624	3032.3027	3082.1674	3091.2213	3101.6673	3111.589	3112.3699	3122.4663	3130.3156	3181.0082	3204.1341	3211.3521
CC1CC11OC2CC12C	C[C@H]1C[C@]21O[C@H]1C[C@@]21C	
InChI=1S/C8H12O/c1-5-3-8(5)7(2)4-6(7)9-8/h5-6H,3-4H2,1-2H3	InChI=1S/C8H12O/c1-5-3-8(5)7(2)4-6(7)9-8/h5-6H,3-4H2,1-2H3/t5-,6-,7+,8+/m0/s1
