16
gdb 123475	4.96866	0.96909	0.92181	1.7885	71.29	-0.2581	-0.0036	0.2546	1273.2288	0.126264	-434.040665	-434.03305	-434.032106	-434.074568	27.103	
C	-0.0502326481	 1.5762685866	 0.1165490756	-0.172217
C	-0.1167463634	 0.0793523934	 0.3165352231	 0.085337
C	-1.2739376277	-0.6900892855	-0.1533981485	-0.175772
O	-0.0312542979	-0.7264557777	-0.8553419944	-0.218109
N	 1.3182257635	 2.0574500601	 0.0157322007	 0.148243
N	 2.1304527346	 2.0754101579	 1.0672268724	-0.235397
C	 3.2816623203	 2.5257102694	 0.5635289024	-0.05607
C	 3.1063267092	 2.7643428519	-0.8056477324	-0.059286
N	 1.8493716353	 2.4573273799	-1.133792775	-0.21669
H	-0.5492397758	 1.8590807817	-0.8108799434	 0.148988
H	-0.5249714495	 2.0857307285	 0.9607335571	 0.138187
H	 0.4541263379	-0.2918726901	 1.1671098318	 0.119492
H	-1.5541198569	-1.607571527	 0.3611322429	 0.122883
H	-2.0871662942	-0.1807214713	-0.669606502	 0.117981
H	 4.1487943137	 2.6572286145	 1.1906722273	 0.125759
H	 3.7981635291	 3.1341624677	-1.5450769277	 0.126672
34.8824	61.4424	117.0479	257.2037	337.1039	382.7951	455.8642	681.2512	691.3163	775.9343	798.5976	847.481	870.9786	897.1326	947.2163	968.4574	983.3862	997.724	1097.173	1100.7148	1102.3699	1162.0167	1165.9349	1191.6501	1241.9725	1291.5425	1296.0915	1363.1627	1371.3037	1403.1293	1445.1048	1447.2906	1456.805	1505.7888	1533.0935	3066.8808	3084.7547	3122.937	3148.8914	3172.4031	3264.6503	3282.1123
C(C1CO1)N1N=CC=N1	C([C@H]1CO1)n1nccn1	
InChI=1S/C5H7N3O/c1-2-7-8(6-1)3-5-4-9-5/h1-2,5H,3-4H2	InChI=1S/C5H7N3O/c1-2-7-8(6-1)3-5-4-9-5/h1-2,5H,3-4H2/t5-/m0/s1
