21
gdb 63962	3.43076	1.24253	1.20203	1.2735	85.91	-0.2257	0.011	0.2366	1170.8338	0.181771	-387.074992	-387.066382	-387.065438	-387.107732	34.181	
C	 0.0974324391	 1.4693073432	-0.0737470127	-0.40856
C	-0.0650582511	-0.0489788071	 0.0285265244	 0.350203
C	-1.546865691	-0.4481205392	 0.0581521292	-0.402831
O	 0.5569651597	-0.6334986623	-1.1589459353	-0.317625
C	 1.3406447923	-1.7299524938	-0.7504466549	 0.083115
C	 2.917838287	-1.7470809486	-0.7677628574	-0.253711
C	 2.8741192896	-2.2095385333	 0.7401229982	-0.313663
C	 1.4737122207	-1.6362988123	 0.7340706763	 0.226123
C	 0.7480441305	-0.6259471189	 1.1928805189	-0.276664
H	 1.1560570548	 1.7416333503	-0.0845213491	 0.115928
H	-0.3609916648	 1.8299424774	-0.9995910146	 0.123493
H	-0.3863170199	 1.9736496878	 0.7691278037	 0.109499
H	-2.0662351406	-0.0652827437	-0.8257389921	 0.117932
H	-1.64820971	-1.5365599255	 0.0785991228	 0.116936
H	-2.0389070084	-0.0435190809	 0.9491556198	 0.109349
H	 0.9431250172	-2.671361978	-1.1558266818	 0.075313
H	 3.4043902703	-2.4165448455	-1.4810398573	 0.10095
H	 3.314243858	-0.7346187984	-0.8620956477	 0.117322
H	 2.9055755274	-3.3002030694	 0.8234279705	 0.115379
H	 3.5947714795	-1.7772139019	 1.4361208626	 0.115066
H	 0.7886689399	-0.1447792001	 2.1624695668	 0.096445
84.9743	174.615	209.8378	244.4749	289.2842	302.9438	334.975	345.2197	442.6203	500.1778	587.0354	674.8525	691.8494	784.4705	797.6485	814.8137	842.5744	871.9538	915.627	924.2653	951.5223	953.789	1006.8246	1016.8735	1074.1196	1092.8729	1124.156	1162.048	1182.603	1202.7448	1214.5065	1219.3653	1246.8807	1281.6848	1302.6526	1368.3628	1391.3996	1410.5092	1468.6882	1475.7496	1479.2879	1486.8144	1494.1275	1501.7253	1731.0849	2996.7995	3032.8778	3038.9949	3058.0491	3067.6399	3103.3895	3111.8917	3117.2893	3118.3141	3120.4742	3141.1561	3206.5927
CC1(C)OC2CCC2=C1	CC1(C)O[C@H]2CC[C]2[CH]1	
InChI=1S/C8H12O/c1-8(2)5-6-3-4-7(6)9-8/h5,7H,3-4H2,1-2H3	InChI=1S/C8H12O/c1-8(2)5-6-3-4-7(6)9-8/h5,7H,3-4H2,1-2H3/t7-/m0/s1
