20
gdb 112773	2.26861	1.24777	0.90236	5.0398	81.01	-0.2364	0.018	0.2544	1346.0678	0.170965	-399.31131	-399.301639	-399.300695	-399.346104	35.184	
C	 0.0423443175	 1.5158328489	-0.1120231068	-0.387276
C	 0.0621473923	-8.3246*^-6	 0.0646106373	-0.129826
N	-1.2809718772	-0.5450128498	 0.150029672	-0.066554
C	-2.1045861832	-0.2927268003	 1.3494499085	-0.198244
C	-2.6862798669	-1.7353926737	 1.2152455853	 0.008864
N	-3.941170021	-1.9291250059	 0.5273924424	-0.503038
C	-1.4328043364	-2.000909372	 0.3153783013	-0.142932
C	-1.5907920451	-2.760479407	-0.9238816308	 0.313511
N	-1.7010936786	-3.3520427746	-1.910355368	-0.33193
H	 1.0614903159	 1.9050483428	-0.1907979501	 0.120252
H	-0.5078780684	 1.7906585326	-1.0162042921	 0.131176
H	-0.4366147104	 2.0081292334	 0.74093867	 0.120333
H	 0.5549891564	-0.4687700213	-0.7953887671	 0.11844
H	 0.6577393025	-0.2659623899	 0.9608135402	 0.076916
H	-1.5091389422	-0.1632065164	 2.2690549439	 0.087958
H	-2.8119574475	 0.5380766099	 1.2588088451	 0.103978
H	-2.698906597	-2.3154967237	 2.1391953672	 0.097216
H	-4.7168833743	-1.6466094445	 1.1174000509	 0.234089
H	-3.9799638809	-1.3655697144	-0.3170166806	 0.243989
H	-0.6217546154	-2.4601163796	 0.9052818414	 0.103077
78.1964	84.2815	128.6287	169.4953	194.7761	237.9771	281.6201	332.2068	363.5608	400.3172	408.5915	549.5379	582.8461	709.3472	813.906	821.7433	824.5763	871.2743	910.5775	975.2622	1013.2513	1030.8342	1057.7382	1109.6272	1131.358	1151.0906	1185.3686	1204.9034	1240.9147	1255.6271	1271.6631	1303.2195	1327.6189	1363.7744	1397.1314	1416.7299	1426.4946	1489.9018	1492.4337	1506.1435	1516.9078	1658.8026	2358.6408	2904.8901	2957.0016	2964.6196	3040.58	3052.0225	3064.7893	3101.6222	3109.0759	3122.485	3497.6024	3581.3355
CCN1CC(N)C1C#N	CCN1C[C@@H](N)[C@H]1C#N	
InChI=1S/C6H11N3/c1-2-9-4-5(8)6(9)3-7/h5-6H,2,4,8H2,1H3	InChI=1S/C6H11N3/c1-2-9-4-5(8)6(9)3-7/h5-6H,2,4,8H2,1H3/t5-,6-/m1/s1
