25
gdb 119913	2.62587	0.90862	0.83915	0.9565	91.03	-0.2467	0.0797	0.3265	1589.7515	0.226017	-389.476099	-389.464634	-389.46369	-389.512854	41.404	
C	-1.3822606793	 0.9341187978	 0.8601429726	-0.223158
O	-1.0019293477	-0.3706486724	 0.5012752536	-0.231251
C	 0.1500383836	-0.3969067836	-0.323407229	-0.084914
C	 0.5060524981	-1.8349462438	-0.5903192598	-0.07321
C	-0.2012000103	-2.665237658	-1.645383669	-0.03761
C	-1.3245921301	-2.1198550985	-2.5015704061	-0.414056
C	 1.2624521127	-2.3034527703	-1.8231613688	 0.29818
C	 1.6975877477	-1.3210315172	-2.8973540761	-0.454085
C	 2.2757512575	-3.4152264248	-1.6082362401	-0.445065
H	-0.5900279091	 1.4536052694	 1.4238196776	 0.099898
H	-1.6283834304	 1.5485637021	-0.0215102256	 0.099047
H	-2.2702727796	 0.856323638	 1.4926104029	 0.124321
H	-0.0422510938	 0.1638725354	-1.2506930508	 0.079379
H	 0.9867972527	 0.1138641633	 0.1853440312	 0.082677
H	 0.7493047989	-2.3639239846	 0.3283491009	 0.080968
H	-0.3690379071	-3.6995093753	-1.3515863588	 0.075712
H	-1.152085631	-1.0917249581	-2.8279748388	 0.111205
H	-1.4590241294	-2.7286399348	-3.4027019089	 0.111438
H	-2.2680061561	-2.1291182013	-1.9457582742	 0.126456
H	 0.9692302604	-0.5306249152	-3.0863949446	 0.114461
H	 2.6434480011	-0.8390964529	-2.6221474909	 0.113132
H	 1.8648173952	-1.8446499432	-3.8462749736	 0.113453
H	 2.4341983595	-3.9866555977	-2.5310355053	 0.110737
H	 3.2479566444	-3.0120453073	-1.2990342266	 0.110212
H	 1.944718082	-4.1154834472	-0.8351862918	 0.112071
47.1097	92.7975	106.6894	150.6706	177.0135	204.7019	221.4817	234.844	257.084	288.6014	298.265	343.96	395.7903	469.8678	483.1822	576.2179	687.727	777.1243	846.8054	940.0983	968.5351	972.3348	987.2255	1015.819	1035.2404	1051.3167	1081.4479	1134.4514	1143.6815	1160.0733	1175.093	1186.5222	1191.3162	1224.5909	1250.9235	1280.6045	1329.9257	1363.95	1406.8165	1415.2387	1422.2031	1432.6809	1462.552	1480.3286	1481.5153	1484.7084	1488.6332	1494.0911	1497.9989	1504.738	1508.3805	1520.3831	1529.0363	2945.4301	2963.0411	2996.5381	3002.6815	3016.3888	3025.4972	3035.0048	3073.3747	3076.8492	3091.5147	3098.294	3108.6631	3109.644	3122.0141	3127.9594	3134.6638
COCC1C(C)C1(C)C	COC[C@H]1[C@@H](C)C1(C)C	
InChI=1S/C8H16O/c1-6-7(5-9-4)8(6,2)3/h6-7H,5H2,1-4H3	InChI=1S/C8H16O/c1-6-7(5-9-4)8(6,2)3/h6-7H,5H2,1-4H3/t6-,7+/m1/s1
