18
gdb 98160	2.29763	1.13709	1.07894	3.1917	72.85	-0.2604	-0.0445	0.2159	1269.9566	0.14332	-439.115507	-439.104865	-439.103921	-439.152034	37.188	
C	-0.0045924329	 1.5908346824	 0.2261318595	-0.383021
C	-0.1628364351	 0.0864279489	 0.431957473	-0.304237
C	-1.2746551974	-0.5132123725	-0.4064049045	 0.360109
O	-1.9265439471	 0.1172730914	-1.1982697192	-0.289069
C	-1.5637554139	-2.0471324177	-0.1997486893	 0.127668
C	-2.0298298211	-2.6756050524	-1.5146958649	-0.399884
O	-0.4030551093	-2.7510616403	 0.220711876	-0.436482
C	-2.6141229898	-2.1382560574	 0.8347609672	 0.243119
N	-3.394443232	-2.1871703957	 1.6867507123	-0.325406
H	 0.8092975684	 1.977572934	 0.8448107062	 0.11747
H	 0.2161834464	 1.818318743	-0.8195243105	 0.137639
H	-0.9233257185	 2.1209042422	 0.4891547623	 0.13832
H	 0.7600530108	-0.4556510109	 0.1921646659	 0.145932
H	-0.3708415473	-0.1507910463	 1.485877944	 0.126493
H	-1.1944884272	-2.6635489401	-2.2191605283	 0.139278
H	-2.3381279477	-3.7085443221	-1.3457105341	 0.140889
H	-2.8547254449	-2.0989272343	-1.9319566018	 0.160906
H	-0.2605580213	-2.603872892	 1.1619858263	 0.300278
22.1471	83.7253	134.9228	178.2262	194.6932	199.004	214.5406	268.3711	298.766	306.6835	367.3611	423.18	466.613	552.3903	600.07	635.7831	719.8799	811.0923	839.8246	950.6028	988.1673	1024.2733	1067.791	1100.3308	1120.3436	1177.8705	1181.5608	1274.8882	1351.6904	1368.9394	1402.9136	1416.5582	1452.1648	1479.954	1487.6734	1493.7126	1498.0281	1823.2632	2343.8553	3013.5544	3055.2257	3060.8047	3065.4259	3128.3885	3131.6942	3144.2041	3171.0566	3817.8999
CCC(=O)C(C)(O)C#N	CCC(=O)[C@@](C)(O)C#N	
InChI=1S/C6H9NO2/c1-3-5(8)6(2,9)4-7/h9H,3H2,1-2H3	InChI=1S/C6H9NO2/c1-3-5(8)6(2,9)4-7/h9H,3H2,1-2H3/t6-/m0/s1
