22
gdb 103339	3.47797	1.17702	1.05169	2.1264	83.48	-0.227	0.0933	0.3203	1261.0943	0.19341	-404.274724	-404.265688	-404.264743	-404.308119	35.685	
C	 0.7458345115	-0.4250353323	-1.4214248575	-0.376957
C	 0.0179880542	 0.0273585709	-0.1492205286	-0.260213
C	 0.6023023763	-0.5999718203	 1.1063072882	 0.507167
O	 1.8998922336	-0.1089603068	 1.2475837989	-0.496798
C	-0.2333563491	-0.7208849864	 2.4397633726	-0.09715
C	-1.0701400211	-1.8532384461	 1.7922619897	-0.264757
C	 0.4123520966	-2.1325524601	 1.4421155966	-0.088314
N	 0.8310915091	-1.7339562692	 2.855652895	-0.144443
C	 0.5741360223	-2.6384082708	 3.9683403666	-0.334182
H	 0.6167232386	-1.4996839513	-1.5913189932	 0.109012
H	 0.3578671467	 0.0991763953	-2.2999706552	 0.106896
H	 1.816204541	-0.2224726185	-1.3423733004	 0.139694
H	 0.1217808931	 1.1128342677	-0.036561439	 0.109742
H	-1.050932842	-0.176892528	-0.2382595103	 0.096361
H	 2.216994715	-0.5511802558	 2.0543957774	 0.277477
H	-0.5531709491	 0.0733763018	 3.1182004964	 0.077809
H	-1.5386456233	-2.5538061691	 2.4814099122	 0.105632
H	-1.7614073205	-1.6031199428	 0.9875043502	 0.103098
H	 0.8524951127	-3.001753162	 0.9483350485	 0.078746
H	 1.3221603381	-3.4377550746	 3.944352078	 0.124544
H	 0.7108034085	-2.0844292238	 4.9029519661	 0.12472
H	-0.4198708221	-3.1081218977	 3.9983533178	 0.101917
72.308	139.9152	188.7522	207.4255	261.9393	289.5717	320.0112	403.5574	432.9477	463.3079	544.5375	586.9873	675.6612	686.196	763.4989	779.1611	794.4537	811.6525	885.9214	899.0318	959.207	993.1442	1010.08	1051.0818	1073.3278	1095.3349	1107.375	1127.4085	1133.033	1151.5159	1187.1157	1205.2434	1210.9529	1223.6133	1257.1253	1273.3163	1325.0869	1354.2213	1405.5417	1438.5984	1448.968	1476.6561	1486.9118	1497.502	1501.1628	1512.2725	1534.1237	2991.2475	3037.7689	3046.3204	3065.0287	3086.2211	3088.6896	3096.433	3098.1661	3102.1587	3110.4381	3133.5338	3153.1194	3641.3902
CCC1(O)C2CC1N2C	CC[C@@]1(O)[C@H]2C[C@@H]1N2C	
InChI=1S/C7H13NO/c1-3-7(9)5-4-6(7)8(5)2/h5-6,9H,3-4H2,1-2H3	InChI=1S/C7H13NO/c1-3-7(9)5-4-6(7)8(5)2/h5-6,9H,3-4H2,1-2H3/t5-,6+,7-
