22
gdb 65031	2.39358	1.46796	1.32515	1.5519	81.14	-0.2327	0.0775	0.3101	1127.7603	0.193364	-404.31286	-404.303405	-404.302461	-404.347037	36.072	
C	 0.3103037767	 0.5433529173	-1.5274677537	-0.476615
C	-0.0582098477	-0.0434426812	-0.1779904224	 0.290763
C	 1.0287986615	-0.469632079	 0.7388420159	-0.285932
N	 0.2538063937	 0.7539173484	 1.0222608977	-0.355165
C	-1.4066908446	-0.7613733348	-0.144974991	 0.392949
C	-1.4073746554	-2.0232957665	-0.9998129722	-0.44301
C	-2.0713853989	-0.8994188598	 1.250191975	-0.339408
C	-3.0828729413	 0.1310170393	 0.7201357156	-0.064152
O	-2.4574144037	 0.1552248124	-0.5799587246	-0.331016
H	 1.2472626473	 1.105996229	-1.4605983566	 0.104624
H	 0.4460771903	-0.2317153947	-2.2879426922	 0.123341
H	-0.4809630063	 1.216726229	-1.8691780086	 0.146042
H	 0.8688629845	-1.2800605333	 1.4460726227	 0.113258
H	 2.0546146509	-0.373085044	 0.3922036752	 0.110119
H	 0.7914642336	 1.5761507791	 0.7597936543	 0.226864
H	-0.6470557134	-2.7298328554	-0.6494838611	 0.115665
H	-2.3846749621	-2.5107260189	-0.9483839502	 0.117326
H	-1.2053249872	-1.7913440137	-2.0492678216	 0.123902
H	-2.4824773166	-1.8910922859	 1.4472078507	 0.0962
H	-1.4659528114	-0.5632857499	 2.0894537446	 0.132798
H	-4.1273489968	-0.1979635556	 0.6621072048	 0.095573
H	-3.042432863	 1.1118865382	 1.2079095878	 0.105873
63.5051	75.1131	195.3701	212.5532	228.9941	269.2876	305.9884	334.5615	376.2808	413.222	471.7745	514.0872	588.3271	763.3067	802.8759	852.7311	869.0915	885.6962	909.9259	936.7341	969.1429	977.5462	1000.4605	1003.0698	1025.6632	1056.9716	1110.2421	1134.4813	1147.1389	1164.4632	1205.4669	1207.8036	1245.5703	1269.0135	1277.6719	1339.6151	1358.1152	1381.8181	1403.9923	1410.4298	1474.9077	1481.6311	1483.6759	1500.0353	1505.4034	1516.0695	1526.0033	3018.9487	3035.3919	3039.288	3059.9296	3086.2487	3100.329	3100.4371	3111.0481	3116.9327	3120.1058	3161.0404	3182.6955	3498.6036
CC1(CN1)C1(C)CCO1	C[C@]1(CN1)[C@@]1(C)CCO1	
InChI=1S/C7H13NO/c1-6(5-8-6)7(2)3-4-9-7/h8H,3-5H2,1-2H3	InChI=1S/C7H13NO/c1-6(5-8-6)7(2)3-4-9-7/h8H,3-5H2,1-2H3/t6-,7+/m0/s1
