18
gdb 61970	2.8574	0.88129	0.73507	2.152	75.38	-0.2649	0.0254	0.2904	1553.4495	0.144076	-439.051779	-439.041265	-439.040321	-439.088523	36.692	
C	-1.2502704736	 0.7869447726	-0.0434630674	-0.46147
C	-0.1146000815	-0.1976223402	 0.0623795524	 0.402978
N	 0.6704775323	-0.4108022563	 1.036437701	-0.518943
O	-0.0015044861	-0.8978569516	-1.0872517442	-0.237698
C	 1.0267347762	-1.8844346053	-1.1381754088	-0.065847
C	 0.9045412272	-2.6072001997	-2.4869707758	-0.057384
O	 2.0291052862	-3.4586646254	-2.6751346171	-0.414455
C	-0.3611988302	-3.3334279231	-2.6101644732	 0.313928
C	-1.3740235715	-3.976636283	-2.6820662901	-0.473281
H	-1.0781260697	 1.47203391	-0.8791445203	 0.147458
H	-2.1869652066	 0.2591589569	-0.2465786806	 0.149776
H	-1.3548282604	 1.3636992148	 0.8766366911	 0.126921
H	 0.4446975392	 0.1985857814	 1.8189744876	 0.220903
H	 2.0126822981	-1.4158643954	-1.0673320618	 0.127391
H	 0.9212756585	-2.5854671731	-0.3038147936	 0.119034
H	 0.9685198573	-1.8557221658	-3.2824126102	 0.128031
H	 1.883381703	-4.2539577321	-2.150803479	 0.289561
H	-2.2752185385	-4.5333292047	-2.7604858499	 0.203099
40.578	56.4796	106.0854	121.0361	156.9763	211.4788	220.3309	286.198	312.5953	328.8756	475.4096	550.7592	573.1982	589.7713	623.9222	638.4125	673.2696	818.176	857.6534	925.43	987.8097	1024.503	1068.5041	1077.6485	1093.008	1101.9087	1128.284	1232.9243	1262.1527	1335.3618	1356.6291	1393.5876	1415.9546	1426.931	1471.0279	1482.1327	1506.1754	1729.7916	2234.8105	3047.4149	3049.6714	3055.1237	3105.6844	3113.2703	3145.2975	3502.7829	3518.6249	3808.5293
CC(=N)OCC(O)C#C	C[C]([NH])OC[C@@H](O)C#C	
InChI=1S/C6H9NO2/c1-3-6(8)4-9-5(2)7/h1,6-8H,4H2,2H3	InChI=1S/C6H9NO2/c1-3-6(8)4-9-5(2)7/h1,6-8H,4H2,2H3/t6-/m0/s1
