17
gdb 9516	3.03414	1.63058	1.49341	1.7072	64.83	-0.2379	-0.0258	0.2121	931.4943	0.140722	-400.987327	-400.978775	-400.97783	-401.020284	31.067	
C	-0.2800571461	 1.6546645998	 0.1181065177	-0.442278
C	-0.0030118671	 0.1569691373	 0.0547777737	 0.169751
C	-1.2720943374	-0.6679772128	-0.2469522821	-0.109664
O	-1.6508540276	-0.5725179874	-1.6109701635	-0.415433
N	 1.1477184848	-0.225751867	-0.8198538412	-0.351583
C	 1.7841233484	-1.0541914362	 0.2390452226	-0.287514
C	 0.7791669465	-0.4572062167	 1.2346967233	 0.359885
O	 0.6577351667	-0.4369687269	 2.4229620379	-0.295389
H	 0.6486621365	 2.2098485261	 0.2668293111	 0.134296
H	-0.7270101375	 2.0135562102	-0.816676765	 0.107335
H	-0.9639242564	 1.8841425015	 0.9415619999	 0.130518
H	-1.0791964923	-1.7324067685	-0.0757468729	 0.112245
H	-2.0847765671	-0.3655548137	 0.4287168375	 0.108451
H	-1.9505468233	 0.3265450958	-1.7802265066	 0.291198
H	 0.8443056343	-0.743083936	-1.6387735549	 0.228754
H	 1.6747000522	-2.1426382881	 0.134920247	 0.125487
H	 2.8394961955	-0.8282777773	 0.4258786955	 0.133943
90.895	116.8	163.2435	188.2354	234.4116	307.0611	326.6482	366.7539	427.1936	524.8319	581.9595	645.9143	755.9329	768.9646	894.2547	935.0514	962.5979	965.5392	1008.9559	1046.9535	1074.3707	1122.6866	1147.7757	1178.4701	1185.0381	1268.2486	1303.9295	1354.3861	1371.7167	1404.1281	1423.7079	1475.3041	1479.9064	1494.4542	1501.7431	1906.1947	3005.3134	3012.3361	3029.6052	3069.701	3074.2175	3096.7406	3128.4967	3529.1813	3820.1874
CC1(CO)NCC1=O	C[C@@]1(CO)NCC1=O	
InChI=1S/C5H9NO2/c1-5(3-7)4(8)2-6-5/h6-7H,2-3H2,1H3	InChI=1S/C5H9NO2/c1-5(3-7)4(8)2-6-5/h6-7H,2-3H2,1H3/t5-/m0/s1
