21
gdb 58255	2.791	1.07798	0.85176	3.0652	74.8	-0.2521	0.0649	0.317	1393.4228	0.179891	-461.338295	-461.327896	-461.326952	-461.373694	38.719	
C	-0.0819007069	 1.5545641325	 0.0319556513	-0.40915
C	-0.0360648631	 0.0295796457	 0.0069638595	 0.125064
O	-1.3368926862	-0.5437822941	 0.0860470564	-0.431992
C	 0.7268706296	-0.5083963455	-1.2148323446	 0.101407
O	 2.0514227707	-0.003072488	-1.123993759	-0.451077
C	 0.714583298	-2.0295683473	-1.2628410574	-0.016613
C	-0.0894356036	-2.7555808588	-2.3221457843	-0.331047
C	 1.4141006764	-2.714117328	-2.3989773903	 0.066114
O	 2.0464281142	-1.8629982074	-3.3230651188	-0.426986
H	 0.9281432524	 1.9686837388	 0.0073577635	 0.141264
H	-0.624212484	 1.9377378905	-0.8427906993	 0.096829
H	-0.5960782907	 1.9036356172	 0.9315687032	 0.116275
H	 0.4863266567	-0.3312805663	 0.9014034891	 0.094234
H	-1.8553489844	-0.1903509236	-0.645244839	 0.275126
H	 0.2364885564	-0.1208930959	-2.1251613601	 0.048361
H	 2.5136778052	-0.3262690097	-1.9068815299	 0.297282
H	 0.7985892425	-2.5097620376	-0.2926837445	 0.095147
H	-0.575623607	-3.6918438194	-2.0714891564	 0.115241
H	-0.632711573	-2.1372998642	-3.0303066799	 0.108688
H	 1.9648919464	-3.6290269564	-2.1856067235	 0.091738
H	 1.9525348804	-2.2351483923	-4.205482376	 0.294097
57.4833	75.4623	134.3699	203.4605	227.6805	243.2083	274.1343	275.5172	326.711	381.6118	394.6842	445.7533	473.9676	494.814	520.2324	643.3476	784.8196	842.9424	861.1881	877.0714	946.2458	1004.3694	1012.8126	1045.4412	1061.412	1088.7488	1104.3473	1127.2708	1129.2277	1162.5793	1186.5088	1225.8987	1234.9237	1286.4029	1319.3275	1324.3745	1361.072	1395.6813	1399.228	1408.9302	1415.5234	1450.9032	1486.3967	1490.3422	1497.2254	2941.5747	3022.0168	3044.3711	3099.8612	3109.601	3127.7915	3139.3217	3156.7265	3216.3758	3787.5513	3798.6704	3815.4391
CC(O)C(O)C1CC1O	C[C@@H](O)[C@@H](O)[C@H]1C[C@H]1O	
InChI=1S/C6H12O3/c1-3(7)6(9)4-2-5(4)8/h3-9H,2H2,1H3	InChI=1S/C6H12O3/c1-3(7)6(9)4-2-5(4)8/h3-9H,2H2,1H3/t3-,4+,5-,6-/m1/s1
