16
gdb 131650	2.94614	1.26566	0.89024	3.5201	77.81	-0.2065	-0.045	0.1616	1239.4081	0.125913	-434.069581	-434.06139	-434.060446	-434.10277	30.31	
O	 0.0503784519	 1.4250626842	 0.0072099497	-0.408942
C	 0.0079820918	 0.0158911624	 0.002294667	-0.164256
C	-1.4220990746	-0.4522330963	 0.0126280297	 0.257628
C	-2.4767925984	 0.3926018971	 0.0229496294	-0.201537
C	-3.8385058923	-0.1131674423	 0.0324990829	 0.390262
N	-4.8612497035	 0.6633380584	 0.0424006237	-0.558398
N	-3.8916682229	-1.51702977	 0.0295659686	-0.302652
N	-2.865814237	-2.3832631231	 0.0194603831	-0.189378
C	-1.6746977043	-1.8715806084	 0.0112890077	-0.053917
H	 0.9706411504	 1.7019281746	-0.0012542724	 0.29678
H	 0.5091546987	-0.4036612047	-0.8872259063	 0.109893
H	 0.5241712541	-0.410296722	 0.8799957072	 0.109844
H	-2.3496281678	 1.4663841238	 0.0245348073	 0.144307
H	-5.7361338551	 0.1351874099	 0.0480313274	 0.193909
H	-4.7978562335	-1.9617530527	 0.0356956478	 0.261462
H	-0.8577686675	-2.5863071109	 0.0032147474	 0.114993
68.6473	148.3767	177.0321	188.2858	229.0378	390.9066	398.6429	454.3962	561.9506	566.9966	577.6576	644.3753	728.5987	737.5091	794.3764	881.5173	936.2344	941.3059	1026.1298	1046.6248	1083.6694	1121.4893	1153.5603	1182.0317	1228.3496	1255.6173	1310.4474	1365.4266	1414.1373	1450.542	1470.4458	1507.5684	1598.4624	1668.9619	1716.0302	2950.0469	2967.8906	3179.2263	3242.7608	3447.9063	3611.1607	3845.1254
OCC1=CC(=N)NN=C1	OC[C@H]1C=C([NH])NN=C1	
InChI=1S/C5H7N3O/c6-5-1-4(3-9)2-7-8-5/h1-2,9H,3H2,(H2,6,8)	InChI=1S/C5H8N3O/c6-5-1-4(3-9)2-7-8-5/h1-2,4,6,8-9H,3H2/t4-/m0/s1
