17
gdb 90423	2.23861	1.72799	1.3544	3.141	67.92	-0.2361	-0.0398	0.1962	1009.8024	0.134695	-458.941083	-458.932839	-458.931894	-458.974172	30.933	
C	 0.4745930601	 1.4899129032	-0.2279802771	-0.410511
C	 0.254236871	 0.0147058496	 0.0200906043	 0.146965
O	 1.135746237	-0.8528956954	-0.7563425327	-0.325931
C	 1.4275756865	-1.6695202519	 0.3998454417	 0.059979
C	 2.8221268936	-1.2837689262	 0.9573530289	 0.03627
O	 3.8248769778	-0.9771850841	 0.0445161175	-0.42125
C	 2.1046876752	-0.159703067	 1.778559799	 0.358651
O	 2.4775015602	 0.7482803149	 2.4602658187	-0.296803
C	 0.7096507946	-0.6600571068	 1.3440670734	-0.24883
H	 1.4962801082	 1.7944173741	 0.0112586575	 0.13836
H	 0.2749604642	 1.7225396957	-1.2787222013	 0.132992
H	-0.2119810737	 2.0798176973	 0.3879600507	 0.132713
H	-0.7873195046	-0.2542994462	-0.2002277036	 0.093859
H	 1.16262168	-2.7187192942	 0.2649004495	 0.089909
H	 3.201030547	-2.0419518448	 1.6565641596	 0.115919
H	 3.3795629379	-0.532096626	-0.6906145641	 0.293058
H	-0.0372685951	-0.8842047223	 2.1028708979	 0.104651
59.8531	135.9468	193.3941	219.1649	232.5058	322.4673	424.1891	470.8245	504.1105	540.7214	613.1278	649.435	763.1943	823.3365	836.3215	878.9143	900.8466	966.1443	998.1767	1034.2192	1057.6431	1090.8266	1125.2253	1149.4615	1156.5799	1187.6471	1213.8323	1242.5709	1289.5909	1299.8661	1328.0185	1387.9946	1413.8199	1426.5741	1482.0981	1493.5826	1890.9497	3013.1222	3028.7285	3042.7862	3109.491	3112.2596	3129.348	3140.9646	3744.4365
CC1OC2C(O)C(=O)C12	C[C@H]1O[C@H]2[C@@H](O)C(=O)[C@@H]12	
InChI=1S/C6H8O3/c1-2-3-4(7)5(8)6(3)9-2/h2-3,5-6,8H,1H3	InChI=1S/C6H8O3/c1-2-3-4(7)5(8)6(3)9-2/h2-3,5-6,8H,1H3/t2-,3-,5+,6-/m1/s1
