12
gdb 15481	3.0933	2.11132	1.49041	2.7539	55.59	-0.2752	-0.0124	0.2628	813.7372	0.083264	-418.465975	-418.459045	-418.458101	-418.497536	24.652	
O	-0.0660300811	 0.0062119138	-0.2397576358	-0.319934
C	-0.015589297	 1.1784556847	-0.039669626	 0.435988
O	-1.0908832435	 1.964106565	 0.2192595779	-0.215012
C	-0.6420212336	 3.2992123093	 0.4555164044	 0.025861
O	 0.6386800584	 3.4073141249	-0.1151536666	-0.228882
C	 1.2192502771	 2.1106098339	-0.0273392841	-0.233671
C	 2.0179529613	 1.9109329007	 1.1795910264	 0.351202
C	 2.6572138247	 1.754919252	 2.18418902	-0.452107
H	-1.3152977441	 3.9970780205	-0.0460548122	 0.142873
H	-0.6261785717	 3.475562056	 1.5401614501	 0.125101
H	 1.8180523405	 1.9409043881	-0.9261744751	 0.153321
H	 3.2319339591	 1.6111524011	 3.0663652109	 0.21526
87.6439	136.8922	192.1812	253.8863	391.0986	461.1894	547.2289	643.8375	687.831	694.0414	704.272	750.3441	901.9914	948.0481	1010.7958	1028.1093	1091.1017	1142.734	1215.9229	1224.0324	1257.6101	1336.3838	1436.9235	1539.694	1912.1153	2238.9734	3012.1893	3084.0555	3117.8108	3499.5548
O=C1OCOC1C#C	O=C1OCO[C@H]1C#C	
InChI=1S/C5H4O3/c1-2-4-5(6)8-3-7-4/h1,4H,3H2	InChI=1S/C5H4O3/c1-2-4-5(6)8-3-7-4/h1,4H,3H2/t4-/m0/s1
