20
gdb 66244	2.45444	1.53571	1.29447	2.036	73.66	-0.2399	0.0837	0.3237	1080.4827	0.171626	-440.257656	-440.249033	-440.248089	-440.291187	32.43	
C	-0.0841049167	 1.5111706239	 0.1523795718	-0.435291
C	 0.0067761946	-0.0053461858	-0.0118189567	 0.327694
C	 0.8907571704	-0.4342723844	-1.2145381856	-0.145313
O	 1.6589620061	-1.5157302222	-0.7079991597	-0.232225
C	 1.8984373276	-1.1638295028	 0.6266433902	 0.011974
O	 0.7080344875	-0.5737712117	 1.1124757897	-0.3016
C	-1.3846292012	-0.6269739125	-0.0817854253	-0.005264
C	-1.5971792676	-2.0674415549	 0.1826964371	-0.250342
N	-2.0677905146	-1.0510059969	 1.1452939514	-0.333274
H	 0.9121874121	 1.9472675909	 0.2682978722	 0.117716
H	-0.560179549	 1.9658564009	-0.723179637	 0.119728
H	-0.6804532324	 1.7649141241	 1.0328051777	 0.137247
H	 0.3129494803	-0.7916099862	-2.0688997763	 0.12472
H	 1.5436855011	 0.3915329615	-1.5373264858	 0.092763
H	 2.1253989361	-2.0649337061	 1.203360957	 0.12195
H	 2.7334364462	-0.443263949	 0.7010253504	 0.088196
H	-2.0375525069	-0.1297016439	-0.7980058	 0.085324
H	-2.3835258798	-2.603875351	-0.3405146062	 0.113921
H	-0.7300105356	-2.6635961776	 0.4475667551	 0.121157
H	-1.3911875482	-1.0093270662	 1.9061222601	 0.240921
75.3991	79.9318	197.3953	228.984	240.3736	273.5513	334.9455	367.7938	443.8168	538.1651	621.2091	734.7978	762.5862	839.757	875.005	908.483	934.2997	968.5568	976.8284	997.0209	1001.4677	1048.3083	1100.942	1113.2125	1133.4099	1154.5162	1166.1615	1189.6023	1199.6495	1227.5798	1253.5572	1278.4676	1290.0355	1312.1134	1363.7376	1405.8922	1410.9517	1435.3796	1485.0344	1492.2049	1504.2906	1510.5743	1541.9191	2935.5726	2985.4784	3037.8757	3088.2744	3106.9264	3112.062	3115.1623	3119.7765	3124.0922	3207.3753	3484.788
CC1(COCO1)C1CN1	C[C@]1(COCO1)[C@H]1CN1	
InChI=1S/C6H11NO2/c1-6(5-2-7-5)3-8-4-9-6/h5,7H,2-4H2,1H3	InChI=1S/C6H11NO2/c1-6(5-2-7-5)3-8-4-9-6/h5,7H,2-4H2,1H3/t5-,6+/m1/s1
