15
gdb 27446	2.39882	1.74911	1.07265	5.9096	79.52	-0.236	-0.0704	0.1656	1073.5223	0.114794	-416.859533	-416.851996	-416.851052	-416.891565	29.049	
N	-0.0016884421	 1.3486554436	 0.1879044351	-0.525826
C	-0.0321434243	-0.0052524435	-0.0478330229	 0.346256
N	-1.1889206555	-0.58102243	-0.0172151216	-0.341962
C	-1.4728339212	-1.9035018984	-0.3022032109	 0.323744
O	-2.476852198	-2.2241409646	-0.9087587808	-0.337751
C	-0.5961580471	-2.9713381669	 0.2491308855	-0.15807
C	 0.7506569852	-2.9745430715	 0.2221517237	-0.073942
C	 1.6019676372	-1.8911733444	-0.2072317852	-0.074995
C	 1.270932387	-0.5913145172	-0.3574478933	-0.132295
H	 0.847661594	 1.7669655955	 0.5289857211	 0.258375
H	-0.8656140453	 1.7452170974	 0.5253010648	 0.265812
H	-1.1298228723	-3.8645916062	 0.5611059849	 0.126375
H	 1.2653620641	-3.8870419325	 0.5127476638	 0.107746
H	 2.6403435358	-2.1562506425	-0.3913162636	 0.11248
H	 2.0483164125	 0.1091253912	-0.6507463508	 0.104054
88.3873	162.9792	253.1968	319.79	390.4031	401.6322	429.8153	457.3538	534.043	565.2677	614.6274	667.2578	725.0285	802.0002	828.062	846.4058	878.4072	956.0011	1000.6084	1005.1486	1022.4936	1123.8591	1214.166	1242.2282	1311.5669	1339.6571	1420.598	1481.4252	1595.2764	1625.3838	1669.6713	1699.3489	1756.6662	3147.2488	3157.2104	3172.1797	3183.1008	3586.841	3713.4164
NC1=NC(=O)C=CC=C1	Nc1nc(=O)cccc1	
InChI=1S/C6H6N2O/c7-5-3-1-2-4-6(9)8-5/h1-4H,(H2,7,8,9)	InChI=1S/C6H6N2O/c7-5-3-1-2-4-6(9)8-5/h1-4H,(H2,7,8,9)
