18
gdb 109120	3.19219	1.28226	0.93164	4.1951	75.57	-0.221	0.0106	0.2317	1240.1094	0.14831	-435.323899	-435.314643	-435.313699	-435.357997	32.921	
C	-0.0070244549	 1.4472339843	 0.0181131832	-0.317254
N	-0.0772731554	-0.0040382349	-0.071313313	-0.386445
C	 0.5900617346	-0.6311161371	-1.0849601683	 0.487275
N	 1.1434330642	-0.0473412508	-2.0876049678	-0.353087
C	 1.6494004579	-1.1170045929	-2.9415641508	-0.295413
C	 1.3061343258	-2.4358392857	-2.2454972688	 0.38792
O	 1.5166546699	-3.58017049	-2.5723699466	-0.377904
N	 0.6491553422	-2.0332064116	-1.0860593142	-0.158676
C	 0.0772142143	-2.9531971183	-0.1305452682	-0.367504
H	 1.0027116971	 1.8099412877	 0.2492894871	 0.12944
H	-0.3030250986	 1.8750944269	-0.9410172085	 0.162276
H	-0.6997220033	 1.7854151873	 0.7916670536	 0.12237
H	-0.1127268183	-0.5011427959	 0.8045801953	 0.246665
H	 1.1957746072	-1.0961400252	-3.9403028849	 0.13865
H	 2.7337018261	-1.0404762858	-3.0871699574	 0.138541
H	 0.2395442548	-3.9581212881	-0.5266615984	 0.173797
H	 0.5664988112	-2.882292953	 0.8486611337	 0.12942
H	-0.997184155	-2.7813025171	-0.0068037761	 0.139928
96.4778	119.6538	147.1775	159.5271	197.3418	211.0461	280.9786	285.3817	378.9018	461.9726	538.1304	563.323	647.1683	723.7257	727.755	788.2532	939.744	986.4168	1051.501	1083.69	1106.305	1152.5458	1154.5105	1180.7312	1191.0119	1233.0641	1276.4355	1342.1591	1375.7064	1445.7687	1453.5911	1457.5817	1480.9302	1496.2599	1510.0201	1512.9142	1561.3343	1712.048	1835.3065	3019.6311	3023.1383	3033.8032	3062.6454	3079.7612	3104.2868	3134.161	3147.4283	3629.263
CNC1=NCC(=O)N1C	CNC1=NCC(=O)N1C	
InChI=1S/C5H9N3O/c1-6-5-7-3-4(9)8(5)2/h3H2,1-2H3,(H,6,7)	InChI=1S/C5H9N3O/c1-6-5-7-3-4(9)8(5)2/h3H2,1-2H3,(H,6,7)
