18
gdb 98635	4.37374	0.8577	0.80798	4.592	73.36	-0.2511	-0.0285	0.2226	1455.2041	0.145846	-439.129712	-439.120266	-439.119322	-439.165435	33.308	
C	-0.3294488922	 1.5355698597	-0.0871807473	-0.378033
C	-0.0071328871	 0.0431039658	-0.0865285515	-0.287153
C	 0.6719434823	-0.4317230488	-1.3609771019	 0.364064
O	 1.0374632787	 0.3219875146	-2.2332192119	-0.297845
C	 0.8876013931	-1.9365838251	-1.4849097874	-0.064278
C	-0.3496260311	-2.746433369	-2.0031041794	-0.397845
C	 0.5152046916	-2.9983494403	-3.2646402203	 0.431646
O	 0.347059363	-3.5177908016	-4.3308562344	-0.339495
N	 1.5979079261	-2.3612554551	-2.688766483	-0.310464
H	 0.5763384552	 2.1274226579	-0.2377315882	 0.137357
H	-1.0195821258	 1.7861571494	-0.89707639	 0.132881
H	-0.7869663863	 1.8318991506	 0.860412572	 0.114929
H	 0.6578666751	-0.2160042824	 0.7500975562	 0.129041
H	-0.908162623	-0.5647420831	 0.0730431583	 0.126384
H	 1.3168731176	-2.3290468617	-0.5551865501	 0.09929
H	-0.6116878571	-3.6343963036	-1.4265812751	 0.139276
H	-1.2455181757	-2.1553479577	-2.2033712549	 0.1404
H	 2.3620950056	-1.8864031497	-3.1490252811	 0.259846
41.6466	52.5527	75.7358	163.997	201.3087	244.7693	315.5033	358.41	402.1472	483.2307	556.6996	569.0399	642.8705	750.0073	772.0132	805.1211	904.1025	966.8502	984.3263	997.4396	1016.9157	1065.6633	1087.5451	1123.1707	1145.1542	1175.9514	1192.4923	1260.3097	1280.6877	1350.7852	1365.5473	1390.9055	1414.8247	1450.5338	1457.686	1494.054	1498.1783	1809.0041	1906.802	3014.5167	3035.2305	3044.5278	3054.0078	3086.8873	3124.8007	3131.9527	3148.1563	3605.1105
CCC(=O)C1CC(=O)N1	CCC(=O)[C@H]1CC(=O)N1	
InChI=1S/C6H9NO2/c1-2-5(8)4-3-6(9)7-4/h4H,2-3H2,1H3,(H,7,9)	InChI=1S/C6H9NO2/c1-2-5(8)4-3-6(9)7-4/h4H,2-3H2,1H3,(H,7,9)/t4-/m1/s1
