19
gdb 38222	3.09387	1.72837	1.36855	1.9767	79.65	-0.2308	0.0208	0.2516	977.8025	0.16154	-385.829183	-385.82241	-385.821466	-385.860021	28.682	
C	-0.033976484	 1.6299654288	 0.1919901035	-0.271691
C	 1.4302522091	 1.1729519309	 0.0530789452	-0.002196
O	 1.1107818176	 0.0108166649	 0.9368655982	-0.366801
C	 0.006317106	 0.0949711884	-0.0516399668	 0.453178
C	-1.1114813755	-0.8760362395	-0.2525583333	-0.415436
C	-1.5331371345	-0.7517496333	-1.7092621371	-0.050299
C	-0.8762153955	-0.0825655298	-2.6639552753	-0.03857
C	 0.4296506111	 0.6769453521	-2.4972011427	-0.32917
C	 1.051127469	 0.2777459359	-1.1625135006	 0.004569
H	-0.3284268926	 1.9225620885	 1.2005818772	 0.10318
H	-0.4645323557	 2.2750675444	-0.5761607509	 0.099959
H	 2.3526989889	 1.7109707136	 0.2736975262	 0.090063
H	-0.7674392043	-1.8975430257	-0.0408883939	 0.128645
H	-1.9631606063	-0.6869137468	 0.411944233	 0.11381
H	-2.4612440408	-1.252930999	-1.9727467679	 0.090035
H	-1.303733656	-0.0701791777	-3.6643356144	 0.087043
H	 1.099548053	 0.4415337447	-3.332684667	 0.107928
H	 0.2389861392	 1.7556241081	-2.5736538533	 0.113536
H	 1.7071373713	-0.5919425587	-1.2473877502	 0.082218
123.5589	287.2989	322.7889	387.3101	407.3096	447.9403	561.2939	578.8741	647.664	675.8215	708.9304	785.3823	829.5697	878.0016	901.2721	904.2108	933.3519	963.4441	979.434	998.1498	1006.3589	1019.341	1069.7631	1101.3052	1117.4985	1129.052	1193.9632	1198.5039	1208.5766	1213.827	1227.4727	1275.2341	1294.9382	1338.625	1359.4794	1398.0391	1412.5454	1472.223	1476.5669	1505.6815	1698.9552	3018.9271	3019.4311	3047.3257	3054.5308	3073.1976	3087.5706	3114.237	3140.4853	3147.5574	3165.2129
C1C2OC11CC=CCC21	C1[C@H]2O[C@]31CC=CC[C@@H]23	
InChI=1S/C8H10O/c1-2-4-8-5-7(9-8)6(8)3-1/h1-2,6-7H,3-5H2	InChI=1S/C8H10O/c1-2-4-8-5-7(9-8)6(8)3-1/h1-2,6-7H,3-5H2/t6-,7+,8-/m0/s1
