13
gdb 13738	3.36447	1.63374	1.34314	5.7175	59.64	-0.2704	-0.053	0.2174	921.2406	0.092825	-398.595638	-398.587614	-398.58667	-398.628955	27.288	
C	 0.4116770745	 1.5529268012	 0.1437973891	-0.49405
C	-0.2909389528	 0.223362837	-0.0155126708	 0.379293
O	-0.8897116222	-0.3339488743	 0.8686885992	-0.277029
C	-0.2109696506	-0.3927074405	-1.4020041981	-0.041917
O	-0.4831277348	-1.78268654	-1.4995688849	-0.198601
C	-1.4391452789	-0.907155685	-2.0684089185	-0.10063
C	-2.7444732731	-0.8306658162	-1.4461393134	 0.324635
N	-3.820440784	-0.7554728941	-1.0325694941	-0.317192
H	 1.4915802926	 1.4271443553	 0.0006406687	 0.151026
H	 0.0697071624	 2.2626936515	-0.618649426	 0.147885
H	 0.2187368206	 1.9550034211	 1.1382954793	 0.159211
H	 0.5815928214	-0.0304424159	-2.0572981641	 0.11843
H	-1.470767435	-0.8924781903	-3.1570721464	 0.14894
44.2684	111.1096	129.1655	194.2	263.5341	276.5954	370.2821	510.1298	561.1638	613.9841	638.2438	764.9741	868.1737	912.1636	954.9077	976.7088	1045.1238	1085.0157	1127.1728	1185.1697	1272.0091	1372.3135	1383.4087	1429.8504	1460.69	1471.5984	1829.1439	2366.4629	3032.8834	3091.8488	3112.8785	3129.3158	3160.8025
CC(=O)C1OC1C#N	CC(=O)[C@H]1O[C@H]1C#N	
InChI=1S/C5H5NO2/c1-3(7)5-4(2-6)8-5/h4-5H,1H3	InChI=1S/C5H5NO2/c1-3(7)5-4(2-6)8-5/h4-5H,1H3/t4-,5+/m0/s1
