18
gdb 107568	2.87946	1.43247	1.2647	1.5826	71.68	-0.2353	0.0235	0.2588	1061.5641	0.14797	-439.062901	-439.054726	-439.053782	-439.095841	30.719	
C	-1.2244379677	-0.1861028845	-0.3722583514	-0.260279
O	 0.1437664213	-0.0204903533	-0.0406708257	-0.282802
C	 0.5223987742	-0.5451338253	 1.1970062545	 0.366219
C	 1.8860336211	-1.1822486341	 1.2119445226	-0.361542
C	 0.6455247758	-2.0363647449	 1.3322155282	 0.030007
O	 0.3469205574	-2.6611780836	 2.5610849999	-0.220153
C	 0.0820963553	-1.8423552844	 3.6116414767	 0.127139
N	-0.0392175255	-0.5868047428	 3.6552234204	-0.267511
C	 0.055434798	 0.2064251813	 2.4356416091	-0.237996
H	-1.8886082453	 0.3862920904	 0.2891355746	 0.116501
H	-1.345368549	 0.1855291761	-1.3920181697	 0.132989
H	-1.524928203	-1.2422864113	-0.3366269211	 0.111625
H	 2.4221842414	-1.2229788394	 0.271092017	 0.131042
H	 2.4975467228	-1.0480277861	 2.0981267024	 0.130704
H	 0.3722602812	-2.6792609862	 0.5044862218	 0.117896
H	-0.0228651468	-2.4404965741	 4.5144005359	 0.125785
H	 0.7067963921	 1.0673300889	 2.6329405552	 0.118528
H	-0.9400639432	 0.6232647533	 2.2409210597	 0.121847
91.3632	96.9012	172.2515	213.5398	289.7453	360.8022	398.0874	492.0826	500.7073	517.448	535.7421	704.7702	798.0687	869.6968	911.1964	924.0186	959.9304	983.4454	1004.3622	1025.6482	1064.3144	1069.1378	1094.672	1123.2243	1179.2496	1185.8524	1209.6132	1244.3375	1285.1343	1316.0724	1353.6072	1394.2395	1421.4743	1465.1311	1479.7523	1487.9042	1499.0203	1508.1804	1742.1026	2999.0853	3022.8442	3048.8593	3054.4844	3123.862	3137.9948	3165.0676	3191.4055	3234.8185
COC12CC1OC=NC2	CO[C@]12C[C@H]1OC=NC2	
InChI=1S/C6H9NO2/c1-8-6-2-5(6)9-4-7-3-6/h4-5H,2-3H2,1H3	InChI=1S/C6H9NO2/c1-8-6-2-5(6)9-4-7-3-6/h4-5H,2-3H2,1H3/t5-,6+/m1/s1
