18
gdb 72622	2.52643	1.44046	1.22546	4.0058	77.81	-0.2646	0.0254	0.29	1095.3223	0.146332	-401.940442	-401.931393	-401.930449	-401.973853	33.675	
C	 0.0897786776	 1.5857328025	 0.0437954229	-0.499662
C	 0.1230750747	 0.0868888447	 0.0328808763	 0.269929
C	 0.5705143859	-0.7995741824	-1.1426926273	-0.286525
C	 1.2167712455	-1.8073581117	-0.1311436694	-0.30159
C	 0.712426587	-0.9155769764	 1.0053981785	 0.375765
O	 1.3814376109	-0.6508637404	 2.1756247498	-0.451452
C	-0.809423617	-0.7804164563	 0.8954562809	-0.316898
C	-1.4735130927	-0.1668736293	 2.0078460697	 0.278819
N	-2.0132754778	 0.3019251519	 2.9184538855	-0.343211
H	 1.0451980312	 1.9914168276	-0.3049722898	 0.125888
H	-0.6988098721	 1.9671390303	-0.6145595449	 0.128972
H	-0.0963551853	 1.9712572616	 1.0495047372	 0.153088
H	-0.2298309509	-1.1894562386	-1.7784214868	 0.105889
H	 1.3137035811	-0.3073831111	-1.7736492051	 0.116173
H	 0.8611041453	-2.8422511466	-0.1464405616	 0.1019
H	 2.3071314545	-1.8030477596	-0.187981172	 0.122831
H	 1.027542337	-1.1997147771	 2.8848705713	 0.299977
H	-1.3877071052	-1.5717891987	 0.4220949348	 0.120107
112.2238	130.2348	171.5542	184.7631	213.1597	228.576	320.7425	358.6786	388.6115	490.6699	522.3335	552.1227	675.8997	685.6827	725.3546	788.9497	859.7715	928.6422	941.6494	980.9907	1016.4744	1039.7014	1094.7088	1135.0789	1149.4778	1200.9265	1211.1107	1231.7377	1235.7144	1288.675	1328.9306	1353.8902	1418.943	1442.5247	1478.6527	1487.1516	1493.5697	1511.6414	2346.2068	3033.3562	3051.8159	3059.7373	3094.0198	3107.2488	3120.1001	3121.2131	3125.0006	3794.1524
CC12CCC1(O)C2C#N	C[C@@]12CC[C@]1(O)[C@H]2C#N	
InChI=1S/C7H9NO/c1-6-2-3-7(6,9)5(6)4-8/h5,9H,2-3H2,1H3	InChI=1S/C7H9NO/c1-6-2-3-7(6,9)5(6)4-8/h5,9H,2-3H2,1H3/t5-,6-,7-/m0/s1
