16
gdb 17990	4.19074	1.68516	1.45456	4.6807	68.34	-0.2446	0.0154	0.2601	880.8613	0.132508	-342.75497	-342.748109	-342.747165	-342.786235	26.163	
N	-0.0047792976	-1.1504032175	 0.0211336707	-0.331891
C	-0.0068338785	 0.0053425786	-0.0002645461	 0.30301
C	 0.0125873983	 1.4703347048	-0.0436579296	-0.129831
N	-0.2766657201	 2.1459240331	 1.2441903032	-0.314021
C	 0.8565922913	 3.0948542059	 1.0546730601	 0.00575
C	 2.0742756811	 2.723139776	 1.9273177473	-0.202552
C	 2.48459989	 1.6560179543	 0.8620997937	-0.237299
C	 1.3880723091	 2.1914382289	-0.1038590247	-0.048988
H	-0.6304041915	 1.7928363482	-0.8736122521	 0.112097
H	-1.1974737269	 2.5632768097	 1.3000835827	 0.229933
H	 0.5792446904	 4.1450830184	 0.9360352893	 0.071889
H	 2.7997543822	 3.5382685539	 2.0027196345	 0.10043
H	 1.8341676772	 2.3587247393	 2.9278379274	 0.11288
H	 3.501528793	 1.7599791872	 0.4794019625	 0.109424
H	 2.3379669331	 0.6172260388	 1.1659151634	 0.132844
H	 1.7058842088	 2.5523765504	-1.0798794221	 0.086327
83.635	146.1548	220.77	347.553	379.3503	529.0594	547.1056	613.5689	708.9391	749.528	778.0631	815.5434	877.0544	924.2661	952.5538	963.1056	1015.2561	1047.8494	1067.7358	1085.7858	1102.0732	1158.9382	1195.7811	1217.6207	1243.8588	1273.9001	1284.6123	1291.0015	1319.2819	1366.5625	1393.8725	1466.6483	1488.8581	2353.5856	3009.1222	3058.29	3073.8643	3077.8573	3115.8425	3128.1973	3136.4305	3555.1332
N#CC1NC2CCC12	N#C[C@H]1N[C@H]2CC[C@@H]12	
InChI=1S/C6H8N2/c7-3-6-4-1-2-5(4)8-6/h4-6,8H,1-2H2	InChI=1S/C6H8N2/c7-3-6-4-1-2-5(4)8-6/h4-6,8H,1-2H2/t4-,5+,6-/m1/s1
