21
gdb 121473	4.50536	0.61734	0.55033	3.0488	87.65	-0.245	-0.0089	0.2362	2018.59	0.18104	-420.441788	-420.431136	-420.430192	-420.478342	36.922	
C	-0.1188325858	 1.4886032503	 0.3070992243	-0.392789
C	-0.4958225293	 0.0485388982	 0.6684413983	-0.180658
C	-1.0658502565	-0.704042601	-0.5401624281	-0.109807
N	-1.4801317977	-2.0891707031	-0.3862577178	-0.271288
C	-1.3752439535	-2.6753875234	 0.7289247874	 0.11231
N	-1.7679240504	-4.0004055034	 0.8897040112	-0.087191
C	-2.3125127745	-4.7343496799	-0.2466454684	-0.336256
C	-1.6420018148	-4.6141234687	 2.117227673	 0.164834
O	-1.9523687171	-5.7561874308	 2.3611260624	-0.323762
H	 0.2873044503	 2.0224160847	 1.1711823111	 0.116469
H	 0.6373598083	 1.5126676748	-0.4851419993	 0.119689
H	-0.9902508977	 2.0477644587	-0.0507016361	 0.119689
H	 0.3897870718	-0.4754781233	 1.0505996999	 0.101337
H	-1.2312598582	 0.0574688148	 1.4833004691	 0.101337
H	-1.9345520887	-0.1533690539	-0.9281000215	 0.11249
H	-0.3299413818	-0.6808861415	-1.3564227644	 0.11249
H	-0.9846078647	-2.2365547328	 1.6520317557	 0.102788
H	-1.5790798292	-4.7674976522	-1.0557571166	 0.144889
H	-2.5513246601	-5.7391500931	 0.0977103704	 0.162073
H	-3.2071927317	-4.2316679211	-0.6215175816	 0.144903
H	-1.2151149387	-3.9308271134	 2.875172501	 0.086455
57.6615	85.2955	102.8023	116.6593	133.5331	237.9794	238.6285	242.2246	284.6397	325.971	337.3863	393.7619	485.89	551.1853	747.0859	782.6725	882.4884	890.0472	897.9849	988.8721	1021.891	1029.5001	1062.6569	1096.6656	1124.3715	1158.0039	1164.7602	1283.0301	1307.1732	1319.672	1327.9812	1365.0639	1398.221	1415.001	1428.0151	1445.7079	1457.4823	1479.9894	1486.0891	1493.2375	1502.2064	1510.0732	1511.7374	1744.4624	1819.6782	2956.3901	3003.5559	3017.0059	3022.3332	3033.2327	3054.5623	3060.8606	3075.2032	3099.8128	3107.3729	3123.7168	3178.0519
CCCN=CN(C)C=O	CCCN=CN(C)C=O	
InChI=1S/C6H12N2O/c1-3-4-7-5-8(2)6-9/h5-6H,3-4H2,1-2H3	InChI=1S/C6H12N2O/c1-3-4-7-5-8(2)6-9/h5-6H,3-4H2,1-2H3
