22
gdb 26217	3.61647	0.98936	0.83721	1.8254	91.35	-0.1853	0.0485	0.2338	1476.5253	0.194113	-367.269441	-367.259504	-367.25856	-367.304491	37.066	
C	 0.0499358719	 1.6134818196	 0.2239370321	-0.384665
C	-0.0805135935	 0.1099006762	-0.0491533322	-0.091633
C	 0.7888274267	-0.6992774654	 0.9361391095	-0.374484
C	-1.5163165259	-0.3353136846	-0.0180888717	 0.318605
C	-2.6670336331	 0.2768548558	 0.4272911135	-0.232875
C	-3.7494754498	-0.6293638314	 0.2316041948	-0.226405
C	-3.2433160614	-1.7780276529	-0.3310005115	 0.300532
C	-3.9097313223	-3.0448567508	-0.7550888382	-0.504465
N	-1.8868062106	-1.5841663965	-0.474184272	-0.353539
H	 1.0954167709	 1.9275497013	 0.1477977063	 0.106836
H	-0.5384041813	 2.1993337333	-0.4876569861	 0.120179
H	-0.2985108351	 1.8582039062	 1.2330781888	 0.120822
H	 0.3117580622	-0.0777880824	-1.0608979698	 0.07305
H	 0.7241505089	-1.7752436834	 0.7448393498	 0.101039
H	 1.8418366875	-0.4075024472	 0.8580919457	 0.107954
H	 0.459781883	-0.5270565486	 1.9662225513	 0.122305
H	-2.7299835961	 1.2687365602	 0.8470952437	 0.085666
H	-4.7881278526	-0.4577828345	 0.4723648865	 0.083384
H	-3.7906078263	-3.2401514117	-1.828815358	 0.122116
H	-3.5194651361	-3.9209082681	-0.2209013644	 0.122146
H	-4.9811096281	-2.9860623786	-0.5496261685	 0.13602
H	-1.2536277788	-2.2565451965	-0.8725170397	 0.247411
41.2109	108.3053	128.0111	174.8333	230.9215	244.19	269.6131	300.682	342.6148	417.2273	466.9114	473.0908	606.4053	639.9033	673.7409	699.1467	783.434	822.1398	878.9373	929.1226	964.1756	976.9625	1001.6357	1010.9711	1061.8424	1062.8706	1098.687	1124.3066	1167.5919	1214.4511	1256.7792	1280.7902	1340.5334	1354.9629	1394.7473	1416.1847	1416.97	1431.5655	1447.6424	1480.5972	1485.6791	1491.545	1499.8836	1502.0268	1510.1305	1544.9252	1637.3686	2975.1065	3010.9006	3027.8019	3036.3517	3052.2898	3096.4191	3100.9864	3106.1338	3114.5991	3120.4312	3237.418	3254.9162	3665.9501
CC(C)C1=CC=C(C)N1	CC(C)c1ccc(C)[nH]1	
InChI=1S/C8H13N/c1-6(2)8-5-4-7(3)9-8/h4-6,9H,1-3H3	InChI=1S/C8H13N/c1-6(2)8-5-4-7(3)9-8/h4-6,9H,1-3H3
