13
gdb 49119	3.60989	1.11586	0.85685	3.0321	69.75	-0.2484	-0.1302	0.1183	1219.7193	0.087865	-456.610246	-456.602475	-456.601531	-456.643262	27.533	
O	-0.0218226955	-0.0122312592	-0.0007583276	-0.243035
C	 0.0081626545	 1.1954817224	 0.0088580271	 0.101861
C	 1.2677612418	 1.9683154717	 0.0017099998	 0.202637
C	 1.3283107959	 3.3154092775	 0.0121180733	-0.276254
C	 2.7334272882	 3.7769976501	 0.0008012895	 0.310704
O	 3.1624136293	 4.9023077007	 0.0054351454	-0.283961
C	 3.5932436671	 2.4725929258	-0.0191855193	 0.308441
O	 4.7907437531	 2.4402003763	-0.0324157649	-0.262863
C	 2.6190168835	 1.2956968988	-0.0183050388	-0.432725
H	-0.9188872273	 1.8061392277	 0.0238138408	 0.09519
H	 0.4803877922	 3.9900184906	 0.0267550285	 0.144783
H	 2.7764273458	 0.6476349626	 0.8507369138	 0.167611
H	 2.7575940115	 0.6618504548	-0.9009277577	 0.167611
85.532	92.681	171.3998	213.4117	310.9534	392.3085	425.4779	430.9037	527.4929	628.9557	708.8669	719.2353	727.1537	870.5533	876.7602	965.6519	1040.401	1054.8863	1136.1034	1143.5198	1192.1318	1246.9147	1360.2066	1413.6839	1433.8425	1644.9504	1790.0183	1820.5896	1867.2015	2918.3061	3056.8074	3089.7836	3211.5076
O=CC1=CC(=O)C(=O)C1	O=CC1=CC(=O)C(=O)C1	
InChI=1S/C6H4O3/c7-3-4-1-5(8)6(9)2-4/h1,3H,2H2	InChI=1S/C6H4O3/c7-3-4-1-5(8)6(9)2-4/h1,3H,2H2
