17
gdb 82615	2.48589	1.93619	1.51938	2.8951	66.47	-0.2293	0.06	0.2893	914.2337	0.137159	-458.900855	-458.893721	-458.892777	-458.932219	28.954	
O	 0.100179842	 1.3987720051	-0.2706159059	-0.436939
C	 0.0028415294	 0.0513974062	 0.004604677	 0.103385
C	-0.3982962827	-0.6231269045	 1.3028943837	 0.017573
O	-1.1921366979	 0.0632857291	 2.2622332625	-0.278503
C	-2.5617806407	-0.0088761603	 1.922843301	 0.01659
C	-2.9715064857	 1.0806921845	 0.9834966162	 0.080086
O	-2.1684620683	 2.2227092326	 0.8803467013	-0.431599
C	-2.6237344965	-0.3062723369	 0.4356062082	-0.138058
C	-1.2463987327	-0.8105042776	 0.0472474181	-0.164441
H	-0.7642940996	 1.8201095027	-0.132735464	 0.3054
H	 0.8380364268	-0.4735267222	-0.4574061515	 0.106762
H	 0.229207997	-1.3896233988	 1.749725953	 0.098801
H	-3.1988583039	-0.4180459766	 2.7012004129	 0.101504
H	-4.0287225797	 1.3250039472	 0.9214749288	 0.114497
H	-1.5476256645	 2.1819094233	 1.6240993823	 0.305956
H	-3.4632146423	-0.8475171985	 0.0147499509	 0.102438
H	-1.2502087606	-1.7386270952	-0.5141154043	 0.096548
115.612	217.6475	241.1426	281.92	355.9562	475.8488	592.1822	627.603	678.5761	682.144	704.1144	726.2498	772.9423	778.0393	788.2862	829.126	898.162	964.1578	1032.0857	1037.0713	1050.8584	1083.621	1092.5898	1097.7161	1104.0642	1116.7749	1141.3914	1230.3813	1256.3352	1289.7796	1321.9215	1336.9162	1357.4074	1370.073	1406.1501	1434.6844	1480.8307	3117.3199	3139.1101	3141.5079	3152.9548	3160.2454	3182.107	3624.4442	3717.7158
OC1C2OC3C(O)C3C12	O[C@H]1[C@H]2O[C@H]3[C@@H](O)[C@H]3[C@@H]12	
InChI=1S/C6H8O3/c7-3-1-2-4(8)6(2)9-5(1)3/h1-8H	InChI=1S/C6H8O3/c7-3-1-2-4(8)6(2)9-5(1)3/h1-8H/t1-,2+,3+,4-,5-,6+
