23
gdb 108229	2.12365	1.41633	1.11124	1.8359	86.22	-0.219	0.0719	0.2908	1263.696	0.203809	-388.264095	-388.253977	-388.253033	-388.298815	37.894	
C	 0.546560329	-0.4494446507	 1.0258232513	-0.37214
C	 0.5762258665	-1.73284134	 0.1812356918	-0.297984
C	 0.9515012656	-1.4771321671	-1.2529404635	 0.212877
C	 2.3557850477	-1.1050228857	-1.7229951341	-0.133689
O	 2.1963704396	-1.8588841297	-2.9528543154	-0.328381
C	 0.8969510494	-2.3055020439	-2.5275247626	 0.394441
C	 0.5274530923	-3.7106785189	-2.8770310482	-0.492702
C	-0.0088946736	-1.1090448971	-2.3868120176	-0.112176
C	-1.4984275453	-1.2983171217	-2.1930116764	-0.432885
H	 1.522229171	 0.0484998556	 1.0243149739	 0.118257
H	-0.1879555824	 0.262320833	 0.6355425571	 0.120383
H	 0.2868698926	-0.6679227817	 2.0662928414	 0.111364
H	 1.2927646339	-2.4393339978	 0.6214363892	 0.098108
H	-0.4014321296	-2.2240469055	 0.2334853078	 0.099743
H	 2.5717615695	-0.0452504147	-1.9087745809	 0.097118
H	 3.1532192207	-1.5385233201	-1.1051652973	 0.097855
H	 1.2519551955	-4.4210078245	-2.4665317376	 0.126157
H	-0.4647725944	-3.9681155194	-2.4979854179	 0.122812
H	 0.5152457006	-3.8351005702	-3.9663000387	 0.131993
H	 0.2548383111	-0.2459907995	-2.9985410272	 0.078724
H	-1.7346173179	-2.1966530193	-1.6154897701	 0.118049
H	-1.941190604	-0.4459231984	-1.6658912945	 0.120295
H	-2.0052341578	-1.3892938025	-3.1597966606	 0.121783
64.6823	113.0941	173.3327	180.6212	215.2678	235.6345	259.2722	270.5506	281.8552	354.487	404.1311	483.3569	519.7543	624.5367	715.5844	736.5113	784.2074	801.3069	916.8547	963.2471	983.1428	984.5555	1005.6016	1031.9063	1061.6224	1093.851	1106.5278	1120.0331	1131.359	1155.6523	1191.87	1215.6528	1268.8044	1312.2324	1328.9023	1349.5189	1379.1189	1407.8234	1409.9748	1418.4757	1462.662	1475.3657	1480.6301	1494.0678	1498.3875	1500.59	1507.0728	1515.4265	1521.8856	3004.2126	3016.5447	3031.0869	3032.7801	3033.6942	3050.9101	3062.4758	3088.456	3092.883	3093.9483	3101.8869	3106.7698	3112.3524	3122.9706
CCC12COC1(C)C2C	CC[C@@]12CO[C@]1(C)[C@H]2C	
InChI=1S/C8H14O/c1-4-8-5-9-7(8,3)6(8)2/h6H,4-5H2,1-3H3	InChI=1S/C8H14O/c1-4-8-5-9-7(8,3)6(8)2/h6H,4-5H2,1-3H3/t6-,7-,8+/m1/s1
