13
gdb 132706	5.26004	0.99972	0.84006	4.2053	70.89	-0.257	-0.0746	0.1824	1224.9971	0.089516	-460.772581	-460.76557	-460.764625	-460.804477	25.856	
F	 0.013423889	 0.0203717363	 0.0032743567	-0.063083
C	 0.0014750569	 1.3498102487	 0.010259601	 0.263855
C	-1.2239804724	 2.0213450028	 0.0301938946	-0.10843
N	-1.3070172563	 3.3428867945	 0.0381123589	-0.276436
C	-0.1635112134	 4.0467261975	 0.0263616454	 0.212207
C	-0.2540822635	 5.5365247986	 0.0352528325	 0.109757
O	-1.2755854826	 6.1716596879	 0.0522699441	-0.244187
C	 1.0966563103	 3.4456800942	 0.0063241076	-0.140264
C	 1.19008158	 2.0583808167	-0.0020726204	-0.214998
H	-2.1482902826	 1.4490611767	 0.0396772213	 0.134327
H	 0.7418526081	 6.0371594062	 0.0244066774	 0.069983
H	 1.9915275632	 4.0595223153	-0.0025537662	 0.12379
H	 2.1394943333	 1.5362944747	-0.0175218928	 0.133481
87.6351	179.3718	201.7253	357.1706	391.2821	416.1703	431.017	529.7702	617.9675	637.7207	765.1277	810.5764	864.1698	877.9788	953.2223	979.6816	1029.1084	1034.4822	1135.3809	1213.1742	1282.9388	1306.0093	1327.3985	1411.5216	1446.8385	1511.8498	1616.1243	1627.048	1825.3299	2863.9552	3166.609	3184.3988	3210.3271
FC1=CN=C(C=O)C=C1	Fc1cnc(C=O)cc1	
InChI=1S/C6H4FNO/c7-5-1-2-6(4-9)8-3-5/h1-4H	InChI=1S/C6H4FNO/c7-5-1-2-6(4-9)8-3-5/h1-4H
