16
gdb 74168	2.9059	1.27332	0.93815	5.3824	80.56	-0.2229	-0.0175	0.2054	1201.8158	0.12425	-400.762376	-400.753966	-400.753021	-400.795505	32.179	
N	 0.0800546545	 1.3117992486	-0.0827644878	-0.57697
C	-0.0592172257	-0.0367513259	-0.0318951169	 0.398957
C	-1.1762867993	-0.7835055478	 0.1369234655	-0.341905
C	-0.856874746	-2.2046077608	 0.1492918371	 0.39477
O	-1.6068823231	-3.142727385	 0.317929449	-0.358996
C	 0.6550126788	-2.3423915279	-0.1303906703	-0.345855
C	 1.206747016	-0.8977650421	-0.0744442382	-0.25127
C	 2.1087575904	-0.5190997531	-1.1573932153	 0.312705
C	 2.8441635683	-0.1781242862	-2.0459376063	-0.469148
H	 0.9209175043	 1.670086812	-0.5106739493	 0.266143
H	-0.7440700348	 1.8763416008	-0.2134823529	 0.265749
H	-2.184794146	-0.4066583828	 0.2461420887	 0.096676
H	 1.1270806531	-3.0076516404	 0.595344892	 0.130292
H	 0.793927645	-2.7827501764	-1.1214283964	 0.140629
H	 1.73771899	-0.7410699902	 0.8749757493	 0.13314
H	 3.5002752945	 0.0971988871	-2.8346507881	 0.205082
63.9722	137.6485	161.9351	226.0157	329.95	430.8882	436.9692	464.5141	493.5921	523.7246	553.8136	596.221	621.1401	633.9001	653.9587	682.9378	813.086	846.14	855.696	955.2677	1016.4002	1060.1496	1097.165	1161.4265	1196.8349	1236.7108	1270.4697	1289.862	1322.0163	1392.5391	1465.1889	1635.3542	1688.3904	1801.7116	2231.4996	3008.8979	3075.048	3123.9	3218.1846	3500.6052	3576.1649	3689.3583
NC1=CC(=O)CC1C#C	NC1=CC(=O)C[C@H]1C#C	
InChI=1S/C7H7NO/c1-2-5-3-6(9)4-7(5)8/h1,4-5H,3,8H2	InChI=1S/C7H7NO/c1-2-5-3-6(9)4-7(5)8/h1,4-5H,3,8H2/t5-/m1/s1
