18
gdb 87475	3.61595	1.2897	1.14863	2.6312	77.35	-0.2335	0.0047	0.2382	1106.822	0.147133	-401.872056	-401.864166	-401.863222	-401.904284	30.742	
C	-0.1544531189	 1.4486264219	-0.0309601225	-0.321501
N	 0.0208340479	 0.0031915328	 0.0587071746	-0.164077
C	 1.3919578624	-0.5041219853	-0.1917519709	-0.364198
C	 0.7896810101	-0.5240252885	 1.1501204053	 0.460526
C	 1.181854301	 0.1122046763	 2.5132159186	-0.280611
C	-0.1947490161	-0.4570925189	 3.0225174571	-0.236065
C	 0.363663493	-1.6356201451	 2.1440423722	-0.269579
C	 1.704136176	-1.3067413747	 2.8280287683	 0.456474
O	 2.6274879266	-1.8448703987	 3.3522918312	-0.320151
H	 0.7068366362	 2.0214705015	 0.3491480833	 0.102995
H	-0.314577106	 1.722963813	-1.0780467599	 0.12865
H	-1.0422408442	 1.7454259656	 0.5360772855	 0.125596
H	 1.456863436	-1.4043398812	-0.7970874031	 0.125212
H	 2.1710362769	 0.2331056294	-0.3833400035	 0.114958
H	 1.6314333506	 1.0797867941	 2.7197319794	 0.100063
H	-0.2917124852	-0.636558732	 4.0944011828	 0.115777
H	-1.0734834099	 0.0329383091	 2.6032414336	 0.123525
H	-0.1014154764	-2.5930148191	 1.9256471779	 0.102407
118.2542	144.4865	204.9499	212.9033	290.1127	387.9539	418.4164	486.4168	535.204	575.7243	705.6813	717.2126	763.7846	780.9579	856.8271	885.8161	940.337	965.4094	1017.4574	1030.2254	1032.5803	1055.7827	1100.6832	1116.1695	1122.4533	1127.2783	1164.6945	1174.3297	1183.8202	1199.991	1214.4648	1237.9981	1435.3887	1451.6461	1493.3358	1495.0503	1506.9348	1528.1397	1922.9373	2973.0355	3071.6903	3079.506	3091.0076	3106.6736	3156.4554	3159.3834	3164.9563	3179.4648
CN1CC11C2CC1C2=O	CN1C[C@]21[C@H]1C[C@@H]2C1=O	
InChI=1S/C7H9NO/c1-8-3-7(8)4-2-5(7)6(4)9/h4-5H,2-3H2,1H3	InChI=1S/C7H9NO/c1-8-3-7(8)4-2-5(7)6(4)9/h4-5H,2-3H2,1H3/t4-,5+,7-,8?
