16
gdb 54579	3.76502	1.36012	1.16111	3.2745	68.92	-0.2401	0.0203	0.2604	1041.3671	0.124564	-437.848748	-437.841137	-437.840192	-437.881102	29.289	
N	 0.0768976119	 1.2200078954	 0.4165988026	-0.5425
C	-0.0153759504	-0.0534696258	-0.0742211647	 0.280536
O	 0.9340763287	-0.6444734113	-0.5621091157	-0.378301
C	-1.3496762164	-0.6844437546	 0.0365954384	 0.206118
C	-2.6378894725	-0.3166591193	 0.7754068631	-0.332232
C	-3.1004843386	-1.7490726233	 0.4009810688	 0.056337
O	-3.2427560334	-1.6909390679	-1.0487327146	-0.294244
C	-1.8245587889	-1.6467059826	-1.1010513945	 0.082424
C	-1.5946952524	-2.1854616902	 0.2521112968	-0.169512
H	 0.9319310747	 1.7227982257	 0.2401131987	 0.260959
H	-0.7438436997	 1.7477424211	 0.6589719126	 0.261299
H	-2.4692919204	-0.216489925	 1.8510195396	 0.11327
H	-3.2625619135	 0.5009739934	 0.4003117633	 0.103936
H	-3.9132273271	-2.267693822	 0.9032616252	 0.096703
H	-1.2987109311	-1.7498191847	-2.0391924738	 0.135125
H	-0.9548553709	-2.9489690389	 0.6695187941	 0.120081
66.4169	162.1146	172.8578	253.8198	362.4696	427.358	480.7242	518.388	574.506	645.4521	710.3471	771.8056	779.8847	802.3862	853.0917	898.9434	919.1479	967.5046	979.5081	1019.3077	1039.5199	1046.7285	1082.9212	1130.6542	1147.7304	1165.871	1178.5141	1206.2209	1267.737	1293.1515	1355.8757	1423.3666	1489.8068	1615.1734	1771.6082	3042.4365	3108.5838	3156.1507	3224.2786	3239.6249	3595.3137	3730.0991
NC(=O)C12CC3OC1C23	NC(=O)[C@@]12C[C@H]3O[C@@H]1[C@@H]23	
InChI=1S/C6H7NO2/c7-5(8)6-1-2-3(6)4(6)9-2/h2-4H,1H2,(H2,7,8)	InChI=1S/C6H7NO2/c7-5(8)6-1-2-3(6)4(6)9-2/h2-4H,1H2,(H2,7,8)/t2-,3+,4-,6-/m1/s1
