18
gdb 93437	2.968	1.37675	0.97209	2.0456	75.77	-0.2338	-0.0044	0.2293	1190.604	0.150318	-435.33381	-435.325422	-435.324477	-435.366851	31.916	
C	-0.2253704236	 1.5176138024	 0.0005460922	-0.398031
C	 0.0636129069	 0.0166520248	 0.0042712714	-0.106123
C	 0.8059084699	-0.4595625479	-1.2483889903	-0.18431
N	 1.1016525522	-1.877356721	-1.1225443686	-0.31483
C	 1.770771967	-2.3445398158	-0.0133514932	 0.434969
N	 2.4390358264	-3.4312275581	-0.0579539282	-0.565902
N	 1.6119643812	-1.5305963615	 1.120481167	-0.384805
C	 0.8345865987	-0.3924520543	 1.2569909377	 0.422432
O	 0.7828606863	 0.2017006033	 2.3120887553	-0.360371
H	 0.6981723153	 2.095769116	-0.1064516453	 0.125183
H	-0.8911859215	 1.7794667409	-0.8269261288	 0.113417
H	-0.6933414688	 1.8128805453	 0.9406104887	 0.148294
H	-0.8846892784	-0.5374248164	 0.0528327898	 0.12114
H	 0.1768484131	-0.3166393144	-2.1311287228	 0.119725
H	 1.7148056244	 0.1484930186	-1.3915236487	 0.108437
H	 1.3694313658	-2.3769079577	-1.957435969	 0.256418
H	 2.8058788902	-3.6886552911	 0.8552465553	 0.208629
H	 2.0940624449	-1.8152126531	 1.9615432876	 0.255728
80.0884	126.0616	195.9645	219.0996	277.1347	348.7986	372.8754	420.8553	497.1907	559.1287	564.6702	633.2106	705.7035	727.028	756.3901	766.3951	777.52	908.5618	935.5982	991.6536	1087.107	1103.0508	1122.9916	1154.3623	1172.5359	1248.2601	1260.9549	1304.1738	1354.5661	1389.6167	1409.998	1415.2687	1439.6797	1472.088	1492.3818	1500.874	1519.5194	1748.731	1803.2729	2964.1015	3016.8554	3046.4432	3086.2335	3111.1459	3145.4338	3515.3783	3610.7286	3622.2523
CC1CNC(=N)NC1=O	C[C@H]1CN[C]([NH])NC1=O	
InChI=1S/C5H9N3O/c1-3-2-7-5(6)8-4(3)9/h3H,2H2,1H3,(H3,6,7,8,9)	InChI=1S/C5H9N3O/c1-3-2-7-5(6)8-4(3)9/h3H,2H2,1H3,(H3,6,7,8,9)/t3-/m0/s1
