19
gdb 23342	2.20396	1.43091	1.04822	0.1607	80.96	-0.228	0.0238	0.2518	1214.6063	0.158064	-419.079398	-419.070589	-419.069645	-419.113157	33.309	
C	-0.0438463246	 1.5780872469	 0.0154944359	-0.37815
C	 0.0314229092	 0.0589457327	-0.1183744026	-0.13694
N	-1.3064587546	-0.5312320782	 0.0221389109	-0.1051
C	-1.8605865241	-0.7204515239	 1.4416074038	-0.116078
C	-2.7981093804	-1.78760605	 0.8061915516	-0.217491
C	-1.3840894963	-2.047606912	 0.2120371922	-0.106938
C	-0.8430672996	-1.8457074201	 1.617140872	 0.487322
N	 0.0732809662	-2.3127706376	 2.3451819381	-0.318995
O	 0.1676635879	-1.5954287988	 3.565866443	-0.406757
H	 0.9352361346	 2.0285375966	-0.1729408769	 0.115712
H	-0.7625257755	 1.9940486957	-0.6962761954	 0.125156
H	-0.3552872676	 1.8716226193	 1.0235107141	 0.119453
H	 0.3818478768	-0.2080895172	-1.1228278959	 0.102259
H	 0.7626183027	-0.3496331017	 0.5969342563	 0.10635
H	-2.1086491781	 0.1133301715	 2.0935373772	 0.10368
H	-3.2089333502	-2.5492470207	 1.4693541634	 0.11245
H	-3.5157347017	-1.3822344627	 0.0916700068	 0.112256
H	-1.0773901367	-2.7476451538	-0.5631453231	 0.096787
H	 0.880496632	-2.064356546	 4.0123090187	 0.305022
59.39	111.9504	183.3912	213.1613	223.7505	308.6589	338.7906	376.5018	433.6173	496.4453	558.2699	690.3654	727.8015	752.6989	797.9048	833.4662	847.6782	897.3242	937.7069	964.6281	1012.9098	1030.2409	1069.4115	1095.435	1109.8782	1137.478	1162.3805	1173.8268	1182.6176	1218.7193	1234.365	1242.0757	1308.6908	1386.2396	1405.0065	1410.0561	1478.412	1490.861	1495.6228	1512.3898	1810.1223	2981.4871	3038.9076	3047.7009	3081.4656	3106.9538	3119.1107	3141.7633	3158.3214	3164.8911	3821.4322
CCN1C2CC1C2=NO	CCN1[C@H]2C[C@@H]1C2=NO	
InChI=1S/C6H10N2O/c1-2-8-4-3-5(8)6(4)7-9/h4-5,9H,2-3H2,1H3	InChI=1S/C6H10N2O/c1-2-8-4-3-5(8)6(4)7-9/h4-5,9H,2-3H2,1H3/t4-,5+
