14
gdb 29325	3.32188	1.29031	0.93253	2.5599	74.41	-0.2143	-0.0192	0.195	1150.7775	0.102467	-432.910205	-432.901715	-432.900771	-432.943327	30.981	
N	 0.2201381844	 1.3657808518	-0.2077776746	-0.635319
C	 0.0872288184	-0.0311951439	-0.0848436703	 0.016112
C	-1.0584977502	-0.818158367	 0.0222778183	 0.191626
N	-0.6531813593	-2.1381437251	 0.0478153029	-0.340174
C	 0.7104500514	-2.2086387571	-0.0378789794	-0.16746
C	 1.1905207673	-0.9174410572	-0.126737899	 0.321605
O	 2.4922843917	-0.5460460718	-0.2404149949	-0.451275
C	-2.404488247	-0.4211505752	 0.0938018388	 0.193567
N	-3.5089689252	-0.0670966283	 0.154060822	-0.362048
H	 0.5815548611	 1.7928943852	 0.6400149954	 0.254382
H	-0.6602504599	 1.8146565255	-0.4334307377	 0.259608
H	-1.2765994459	-2.9235214816	 0.1034115902	 0.279081
H	 1.2330251524	-3.1500270109	-0.0455581397	 0.139737
H	 2.4924930609	 0.3605447156	-0.575644742	 0.300558
106.1774	117.9122	133.3343	242.6975	270.2163	293.458	401.7402	433.941	453.1696	514.7277	518.4141	610.8834	633.2231	702.1117	726.2131	750.7119	771.7601	831.3985	1010.8652	1109.2276	1179.6769	1228.3134	1257.0589	1315.3734	1368.6917	1477.7992	1496.5661	1573.8747	1630.2935	1670.2255	2319.472	3280.5987	3497.9943	3588.4878	3696.7303	3764.4281
NC1=C(NC=C1O)C#N	Nc1c([nH]cc1O)C#N	
InChI=1S/C5H5N3O/c6-1-3-5(7)4(9)2-8-3/h2,8-9H,7H2	InChI=1S/C5H5N3O/c6-1-3-5(7)4(9)2-8-3/h2,8-9H,7H2
