20
gdb 73934	2.67634	1.30746	0.93885	2.3164	82.34	-0.2289	0.012	0.241	1270.0557	0.171287	-403.124652	-403.115639	-403.114694	-403.158973	32.75	
C	-0.1710086351	 1.360325843	-0.4862880253	-0.501838
C	-0.1005480022	-0.1041004107	-0.1958503306	 0.178177
C	-1.0696426268	-0.9711581714	 0.113701335	 0.16355
C	-0.4551539596	-2.3246039651	 0.3892622653	-0.146729
O	 0.9379285388	-2.1754559465	 0.147925116	-0.263529
C	 1.224879841	-0.8227862338	-0.176773241	-0.136416
C	-2.5307791734	-0.7671340715	 0.2587683609	-0.106016
C	-3.3321178699	 0.0110942296	-0.7204642665	-0.238783
N	-3.4682845573	-1.4542616284	-0.6646349022	-0.319698
H	 0.4756586553	 1.9202472436	 0.2011303365	 0.131216
H	 0.1877604808	 1.5833945435	-1.4993273843	 0.12916
H	-1.1855994274	 1.748874957	-0.3869301743	 0.13562
H	-0.6320196346	-2.6493364693	 1.4287263122	 0.102586
H	-0.8610251517	-3.1150745908	-0.2616236016	 0.103434
H	 1.7405511445	-0.7727363765	-1.150082049	 0.101162
H	 1.9117522595	-0.3868838766	 0.5690239626	 0.099563
H	-2.8929581342	-0.797307416	 1.2866107784	 0.102644
H	-4.2053872512	 0.564031377	-0.3857606043	 0.12019
H	-2.8177179671	 0.4480283901	-1.5708301574	 0.114542
H	-2.9353602393	-1.8616118272	-1.4307794704	 0.231164
63.9242	103.5334	137.7397	160.591	183.0617	234.5031	299.0815	361.1622	438.536	530.7441	621.7938	648.2938	811.136	834.6304	869.177	932.3914	949.7104	962.692	969.4453	1005.071	1049.0644	1072.7321	1094.1678	1116.4067	1122.2021	1138.5125	1167.3014	1172.761	1215.0231	1224.0204	1253.4687	1278.9036	1301.2313	1362.5348	1392.1625	1414.4767	1428.7679	1485.7827	1488.0763	1506.6558	1516.6799	1529.9289	1748.4167	2952.8996	2961.5471	2972.8463	2983.408	3020.7618	3063.3843	3098.6149	3114.9024	3136.1467	3200.5217	3484.6068
CC1=C(COC1)C1CN1	CC1=C(COC1)[C@H]1CN1	
InChI=1S/C7H11NO/c1-5-3-9-4-6(5)7-2-8-7/h7-8H,2-4H2,1H3	InChI=1S/C7H11NO/c1-5-3-9-4-6(5)7-2-8-7/h7-8H,2-4H2,1H3/t7-/m1/s1
