20
gdb 55792	4.12567	1.03839	0.95039	1.2416	81.13	-0.2565	0.0327	0.2892	1315.9655	0.171499	-403.110179	-403.101755	-403.10081	-403.143951	31.962	
C	 0.1677237068	 1.4236337042	-0.0860505844	-0.463661
C	-0.0015963993	-0.0700259327	 0.0287005861	 0.384615
N	-0.3992989549	-0.7498360635	 1.0248034619	-0.519705
O	 0.3463635923	-0.6642565821	-1.1343181859	-0.267929
C	 0.3055215656	-2.0858336853	-1.169271479	 0.221088
C	-1.0335893061	-2.7995590863	-1.4962984114	-0.071411
C	-0.912372799	-2.2198857215	-2.9402150482	-0.223889
C	 0.5233998682	-2.7032455086	-2.5677312311	-0.095488
C	-0.1458966024	-3.9821428981	-1.9823504369	-0.225567
H	-0.1238327599	 1.9235814732	 0.8388965707	 0.125426
H	 1.2099255965	 1.6676986644	-0.3136389024	 0.146167
H	-0.4408432247	 1.809722226	-0.9095067864	 0.145734
H	-0.6059955422	-0.1384831131	 1.8113848808	 0.218256
H	 0.8805359086	-2.48951763	-0.3337927406	 0.090937
H	-1.917373316	-2.8495026294	-0.8628924605	 0.08286
H	-1.4193280368	-2.782347066	-3.7285514276	 0.087679
H	-1.0539994728	-1.145444605	-3.0553719759	 0.102707
H	 1.426145982	-2.6468352264	-3.1769033069	 0.071968
H	 0.4119726921	-4.5338825624	-1.220390609	 0.094026
H	-0.6037040981	-4.6542020872	-2.7108800933	 0.096188
62.9948	86.9449	120.5091	151.0471	315.3338	355.2042	369.596	528.3774	568.9479	581.3062	665.402	775.6584	804.3098	855.7745	890.6914	899.897	903.7972	912.1931	941.1317	998.5131	1016.4936	1025.4095	1036.8268	1067.857	1090.0176	1097.2812	1105.9893	1111.2057	1142.4457	1159.1702	1195.7253	1213.1609	1246.3314	1255.68	1277.9977	1364.6504	1400.234	1429.7482	1471.4339	1482.1842	1496.6916	1534.1535	1725.4615	3048.1666	3055.236	3065.7415	3095.3124	3110.3241	3111.3765	3124.3611	3135.0959	3143.096	3143.3723	3513.6657
CC(=N)OC1C2CC1C2	C[C]([NH])O[C@H]1[C@H]2C[C@@H]1C2	
InChI=1S/C7H11NO/c1-4(8)9-7-5-2-6(7)3-5/h5-8H,2-3H2,1H3	InChI=1S/C7H11NO/c1-4(8)9-7-5-2-6(7)3-5/h5-8H,2-3H2,1H3/t5-,6+,7-
