16
gdb 48133	3.07072	1.31938	0.93347	2.6788	77.62	-0.2195	-0.0776	0.1419	1193.4799	0.124488	-437.92875	-437.920474	-437.91953	-437.96247	29.383	
O	-0.8807393519	 1.1928555719	 0.0922205121	-0.248537
C	 0.2740120264	 0.9330718985	-0.1268665483	 0.099404
C	 1.4510258083	 1.9054249738	-0.2139522936	 0.301959
O	 2.5545327987	 1.428195265	-0.4477722105	-0.370985
N	 1.2475928657	 3.2347888013	-0.0348106726	-0.115725
C	 2.3934140626	 4.1666788723	-0.1209249524	-0.160773
C	 1.774237296	 5.5654524677	 0.1318380373	-0.287611
C	 0.3089647058	 5.2644437508	 0.3413656564	-0.144971
C	 0.0706477047	 3.9570097861	 0.2383235736	-0.002021
H	 0.6380662407	-0.0996453624	-0.3004962052	 0.121447
H	 3.143264949	 3.8834326734	 0.6219989681	 0.138377
H	 2.8618650844	 4.070259342	-1.103569354	 0.138472
H	 2.2219312439	 6.0538092891	 1.0048395444	 0.122783
H	 1.9369599887	 6.2388187995	-0.7174423002	 0.12279
H	-0.4420688042	 6.0133103059	 0.5470404248	 0.112725
H	-0.8551249687	 3.4144373552	 0.3318494803	 0.172667
73.5986	84.9028	143.9779	173.4977	202.7987	275.2677	456.784	469.2575	562.294	590.8763	689.6834	745.2411	771.9843	830.5582	858.4355	937.0811	961.9748	985.2954	1029.857	1064.4768	1070.284	1141.4892	1203.9123	1238.1688	1247.9809	1312.4004	1318.2641	1374.9559	1389.0296	1450.8709	1492.0848	1515.3094	1681.1442	1728.656	1820.7824	2947.3659	3033.6775	3057.2514	3069.719	3107.5386	3240.7098	3294.5516
O=CC(=O)N1CCC=C1	O=CC(=O)N1CCC=C1	
InChI=1S/C6H7NO2/c8-5-6(9)7-3-1-2-4-7/h1,3,5H,2,4H2	InChI=1S/C6H7NO2/c8-5-6(9)7-3-1-2-4-7/h1,3,5H,2,4H2
