18
gdb 99919	2.15326	1.35129	1.12919	3.8205	71.58	-0.2573	0.022	0.2794	1169.6688	0.147646	-435.232238	-435.222636	-435.221692	-435.266767	34.981	
N	-0.3377745243	 1.1092773206	 0.0552782377	-0.520031
C	-0.1622969383	-0.2717850078	 0.4983971223	-0.209784
C	 1.1020273999	-0.3669144622	 1.4015418083	 0.071399
N	 2.2918231255	 0.2294469672	 0.7854365143	-0.530842
C	 0.8117919901	 0.36264424	 2.6573221968	 0.303537
N	 0.5315641097	 0.9297427978	 3.6244402666	-0.344265
C	 1.4710531666	-1.8045078599	 1.7739888629	 0.069897
C	 0.5491509511	-2.9426630931	 1.7516707495	-0.18408
O	 1.4942029289	-2.7353067338	 0.6932357719	-0.24496
H	-0.9556279296	 1.1493248297	-0.7468398917	 0.24077
H	-0.7669205241	 1.6648444704	 0.7891952877	 0.24818
H	-1.0317739495	-0.6787182148	 1.0352997694	 0.101023
H	 0.0249885907	-0.9058495792	-0.3728401597	 0.127132
H	 2.6043535828	-0.3996116973	 0.0491706688	 0.242906
H	 1.9930180706	 1.0882748899	 0.3259773677	 0.249247
H	 2.3419969765	-1.8531878387	 2.4264516221	 0.125388
H	 0.7529440971	-3.7964141631	 2.3950463562	 0.129693
H	-0.4933967438	-2.8087938857	 1.4760379893	 0.124788
59.0519	109.1938	149.976	183.7585	219.0647	259.4103	271.3877	314.2021	350.1192	412.6555	452.4517	506.9407	585.1666	601.3197	704.9877	842.0183	856.0638	883.4102	915.4249	956.5049	972.7897	1005.0543	1087.1927	1100.494	1128.3782	1143.7945	1168.2326	1178.2403	1236.9081	1305.9851	1339.4503	1344.7998	1402.9572	1429.9349	1503.7259	1532.801	1659.8223	1663.1175	2354.3302	2987.9626	3093.9291	3103.3892	3125.9481	3192.9428	3466.3425	3508.0309	3547.7377	3591.754
NCC(N)(C#N)C1CO1	NC[C@@](N)(C#N)[C@H]1CO1	
InChI=1S/C5H9N3O/c6-2-5(8,3-7)4-1-9-4/h4H,1-2,6,8H2	InChI=1S/C5H9N3O/c6-2-5(8,3-7)4-1-9-4/h4H,1-2,6,8H2/t4-,5-/m1/s1
