19
gdb 92811	2.89224	1.63426	1.23114	1.3315	84.87	-0.2117	-0.0175	0.1943	1044.7028	0.161882	-385.912103	-385.904781	-385.903837	-385.943567	30.034	
O	 0.1071709296	 1.4602453639	 0.103804229	-0.432726
C	 0.0518366443	 0.0439887338	 0.0191742799	 0.093016
C	 0.5844491842	-0.6259868345	 1.323328404	-0.271782
C	-0.6598961922	-0.6975680877	 2.1970528176	-0.273505
C	-1.753456656	-0.600127378	 1.4305945467	 0.360322
C	-3.1819181368	-0.3600694111	 1.5593220517	-0.204127
C	-3.6526531884	 0.139581131	 0.4018436904	-0.065437
C	-2.5742764669	 0.2873070118	-0.660049755	-0.312586
C	-1.3955606151	-0.4953677189	-0.0430421955	-0.066812
H	-0.3396332722	 1.7111267981	 0.9215070158	 0.280274
H	 0.6482339626	-0.2144794111	-0.8597703325	 0.078762
H	 0.9949359715	-1.6248221766	 1.1108980554	 0.104337
H	 1.3972646493	-0.0349545479	 1.7587882901	 0.106426
H	-0.6297681793	-0.7806302164	 3.2769990864	 0.090397
H	-3.756523488	-0.4933512318	 2.4679678114	 0.099908
H	-4.6753068555	 0.4631238837	 0.2389657591	 0.099645
H	-2.8887311783	-0.0961228941	-1.636117945	 0.10508
H	-2.315572168	 1.3449089773	-0.8037399258	 0.125005
H	-1.3685999451	-1.5066655014	-0.4739320737	 0.083804
123.6462	184.9173	261.2972	332.9775	385.5148	391.9246	467.4402	497.2266	635.5384	657.0762	749.3013	752.9587	807.0739	822.7673	823.7618	865.2995	930.9824	939.5224	947.1546	967.6822	985.091	998.166	1056.3991	1096.1539	1122.2194	1162.8562	1171.6344	1180.1023	1228.0875	1235.3148	1282.7074	1296.1664	1300.8069	1337.8572	1350.953	1372.8605	1432.7283	1474.9032	1484.192	1619.6712	1705.3793	2994.43	2998.0224	3026.5946	3068.5113	3070.4492	3082.6944	3186.0353	3198.9082	3213.5231	3780.5978
OC1CC=C2C=CCC12	O[C@H]1CC=C2C=CC[C@@H]12	
InChI=1S/C8H10O/c9-8-5-4-6-2-1-3-7(6)8/h1-2,4,7-9H,3,5H2	InChI=1S/C8H10O/c9-8-5-4-6-2-1-3-7(6)8/h1-2,4,7-9H,3,5H2/t7-,8+/m1/s1
