16
gdb 19116	3.35378	3.35354	3.3535	0.	68.99	-0.2559	0.0755	0.3314	591.7634	0.133414	-309.348006	-309.343466	-309.342522	-309.376203	20.899	
C	-0.0392310374	 1.5456583713	 0.0313513989	-0.057407
C	-0.0542311409	 1.554631203	-1.5394571135	-0.057609
C	-0.0330098275	-0.0161080863	-1.5485362858	-0.057619
C	-0.0179354924	-0.0249717707	 0.022253334	-0.057455
C	 1.552716148	-0.0037857352	 0.0074769688	-0.057609
C	 1.5315153792	 1.5669550651	 0.0165466929	-0.057618
C	 1.5164204667	 1.5758296711	-1.5542413942	-0.057455
C	 1.5377365274	 0.0051990457	-1.5633306654	-0.057407
H	-0.6704684475	 2.1621530257	 0.6695678902	 0.057521
H	-0.6971980271	 2.1783698861	-2.1586398488	 0.05753
H	-0.6591608322	-0.6498168714	-2.1748100678	 0.057523
H	-0.6322258576	-0.6655734193	 0.6532443198	 0.057515
H	 2.1956693449	-0.6275308645	 0.626667447	 0.05753
H	 2.157684309	 2.2006498496	 0.6428166922	 0.057523
H	 2.1306908446	 2.2164406391	-2.1852424503	 0.057515
H	 2.1689910228	-0.6112837992	-2.2015416779	 0.057521
626.381	627.3058	683.5582	684.0619	684.8282	842.722	842.8194	843.2287	844.023	844.0971	845.1716	867.8863	868.1861	869.9157	917.6647	917.9409	1021.2091	1052.2168	1071.1084	1071.4854	1072.1136	1112.139	1112.7534	1150.9182	1151.2043	1151.6099	1174.9328	1175.4789	1229.7919	1229.952	1231.9859	1274.2849	1274.5087	1275.9059	3100.2595	3110.0884	3110.1779	3110.2497	3117.3031	3117.4157	3117.488	3135.7566
C12C3C4C1C1C2C3C41	[C@H]12[C@@H]3[C@@H]4[C@H]1[C@@H]1[C@H]2[C@H]3[C@H]41	
InChI=1S/C8H8/c1-2-5-3(1)7-4(1)6(2)8(5)7/h1-8H	InChI=1S/C8H8/c1-2-5-3(1)7-4(1)6(2)8(5)7/h1-8H/t1-,2+,3-,4+,5+,6-,7+,8-
