19
gdb 30739	2.94957	1.24989	0.93815	0.7866	80.13	-0.178	0.0555	0.2334	1284.5837	0.158694	-419.230686	-419.2205	-419.219555	-419.26641	36.139	
C	-0.7400516408	 0.8482081661	 0.0374438197	-0.322703
N	 0.6717821833	 0.4401856152	 0.0020635882	-0.391176
C	 1.0469982217	-0.4973229127	 0.9823081172	 0.194352
C	 0.7848416404	-1.841151201	 1.1499621545	 0.182398
O	 0.0177585444	-2.5719218985	 0.2789886645	-0.460372
C	 1.4319951164	-2.2946744159	 2.3357861988	 0.166071
C	 1.4038855694	-3.6882617326	 2.8852100939	-0.531269
C	 2.0752868396	-1.1920795376	 2.8650733429	-0.172209
N	 1.8396990193	-0.1213277313	 2.0511246993	-0.276117
H	-0.9476726936	 1.3403904915	 0.9922282308	 0.121593
H	-0.9224646314	 1.5724407226	-0.7630511833	 0.110432
H	-1.443633768	 0.0111316264	-0.0761725921	 0.120375
H	 0.8996213287	 0.0927261245	-0.9228820212	 0.232022
H	-0.0103948652	-3.4809443546	 0.5907977048	 0.293547
H	 1.8386281719	-4.4199763986	 2.1905770079	 0.118703
H	 1.9761402229	-3.7522830365	 3.8149770597	 0.127165
H	 0.383822022	-4.0268097315	 3.1125937876	 0.118845
H	 2.6756693631	-1.1026807352	 3.75645728	 0.111731
H	 2.2082532959	 0.8074516497	 2.1554426466	 0.256613
35.873	96.4825	113.3336	149.6125	178.9344	223.1324	234.5206	280.7621	308.4969	399.8147	460.7422	510.0352	567.6637	639.0106	689.8667	695.2781	716.334	755.8784	797.7518	981.6058	999.6473	1061.7014	1066.6272	1104.1933	1145.0651	1172.699	1222.7703	1253.3545	1296.8119	1358.92	1417.1138	1433.8129	1447.4798	1468.5685	1483.4714	1488.1552	1495.2503	1516.9571	1518.9106	1564.0801	1673.6062	2998.8854	3002.6252	3041.5249	3072.918	3102.6517	3107.1099	3257.0585	3523.4668	3687.9837	3840.0022
CNC1=C(O)C(C)=CN1	CNc1c(O)c(C)c[nH]1	
InChI=1S/C6H10N2O/c1-4-3-8-6(7-2)5(4)9/h3,7-9H,1-2H3	InChI=1S/C6H10N2O/c1-4-3-8-6(7-2)5(4)9/h3,7-9H,1-2H3
