17
gdb 85114	1.9148	1.66665	1.32789	3.6549	74.12	-0.2519	-0.05	0.2019	1071.9112	0.133357	-418.010979	-418.001573	-418.000629	-418.045058	33.539	
C	-0.1061218556	 1.5079274464	-0.0511265523	-0.34275
N	-0.0265041531	 0.0650202928	 0.0822945531	-0.101703
C	-1.2617524878	-0.6982760196	 0.3581294538	-0.288344
C	-0.4315994044	-1.6007450426	 1.2689721776	 0.381546
O	-0.550151582	-2.6675312213	 1.7774400527	-0.269181
C	 0.7385325542	-0.5534245535	 1.2001981247	 0.026294
C	 2.1261529411	-1.0809229264	 0.8453235741	-0.432058
C	 0.7591702934	 0.2571732492	 2.4267929473	 0.258251
N	 0.7454696729	 0.9292346033	 3.3684780328	-0.335081
H	 0.8957079886	 1.9208154042	-0.1998275688	 0.136641
H	-0.7017757721	 1.7483229736	-0.9365681756	 0.133793
H	-0.5594103813	 2.0043630045	 0.822622036	 0.126406
H	-2.024546868	-0.1502876596	 0.9373441169	 0.134702
H	-1.7365475181	-1.1579354322	-0.5144226341	 0.141997
H	 2.0602827351	-1.6880373879	-0.0598702961	 0.13696
H	 2.8202877075	-0.2548073795	 0.6671017604	 0.140746
H	 2.5165115298	-1.6923330114	 1.6632925476	 0.151781
91.0996	118.6701	146.4444	180.5499	206.6424	208.4889	257.647	289.1913	371.6399	437.882	514.3482	576.5471	590.4495	630.9361	667.6552	784.6019	910.0466	953.9646	959.1335	1047.4323	1106.5306	1119.6387	1160.5967	1166.1019	1171.9885	1217.7407	1253.8965	1304.9425	1402.4455	1453.426	1475.6193	1479.1274	1486.8005	1494.7016	1499.1923	1934.7898	2335.3118	2969.5877	2974.7693	3049.5856	3076.2134	3077.6293	3115.9424	3126.4872	3140.6099
CN1CC(=O)C1(C)C#N	CN1CC(=O)[C@]1(C)C#N	
InChI=1S/C6H8N2O/c1-6(4-7)5(9)3-8(6)2/h3H2,1-2H3	InChI=1S/C6H8N2O/c1-6(4-7)5(9)3-8(6)2/h3H2,1-2H3/t6-/m0/s1
