18
gdb 30713	2.40118	1.06831	0.74565	1.7933	81.09	-0.2352	-0.0699	0.1653	1523.1987	0.14366	-439.113581	-439.102627	-439.101683	-439.150316	37.701	
C	-0.3401557087	 1.5050506048	 0.2104650223	-0.494285
C	 0.0669527325	 0.0908017826	-0.0355241639	 0.116764
C	 0.8459541464	-0.4227434309	-1.0075080292	-0.040442
O	 1.0317252995	-1.7712502949	-0.9596609181	-0.222783
C	 0.3197786438	-2.231709288	 0.1420374521	 0.305497
C	 0.2892887194	-3.5163833512	 0.4781432438	-0.418064
N	-1.6373995101	-3.7636984565	 3.2205294263	-0.730071
H	-1.3170151907	-3.7935552943	 4.1845789652	 0.230204
H	-1.5862241279	-2.7874652294	 2.9276075801	 0.272234
H	-2.6238902728	-4.0068586186	 3.2456928639	 0.230185
C	-0.3381995455	-1.0500299109	 0.792083305	 0.213441
O	-1.0484495082	-1.0471295965	 1.7853487971	-0.34889
H	-0.0140650185	 1.8370326156	 1.2019676813	 0.143514
H	 0.0828449224	 2.1827119613	-0.5358854804	 0.12244
H	-1.4306064077	 1.6057284215	 0.1887756337	 0.143501
H	 1.3539332055	 0.0647190425	-1.8292888493	 0.147768
H	 0.8277361488	-4.253417075	-0.1068076336	 0.131686
H	-0.2811715882	-3.8352108221	 1.3481453036	 0.1973
48.3913	107.1137	107.4526	119.2554	123.2871	164.334	223.0622	244.3334	298.0796	314.619	328.8884	385.2117	521.281	541.6565	569.536	714.7533	779.9049	782.8453	819.0264	911.5839	916.8865	975.139	1009.1393	1038.6517	1068.5864	1130.5733	1154.4801	1205.9637	1324.6647	1348.2163	1421.3764	1443.4379	1475.8732	1492.9694	1672.8377	1676.263	1705.4252	1717.6119	1769.6022	3036.2015	3090.5433	3117.0546	3119.6302	3231.5857	3237.2268	3438.5362	3553.895	3582.666
CC1=COC(C[NH3+])=C1[O-]	CC1=COC(=C)C1=O.N	
InChI=1S/C6H9NO2/c1-4-3-9-5(2-7)6(4)8/h3,8H,2,7H2,1H3	InChI=1S/C6H6O2.H3N/c1-4-3-8-5(2)6(4)7;/h3H,2H2,1H3;1H3
