19
gdb 42883	2.30049	1.73487	1.53223	1.7835	74.74	-0.2372	-0.0194	0.2178	982.0865	0.16163	-423.036478	-423.029101	-423.028157	-423.068063	29.557	
O	-0.0031999551	 0.0211831157	 0.1220451027	-0.318283
C	-0.0260008785	 1.2167046021	 0.0549535374	 0.404166
C	-1.1390497825	 2.2795848228	 0.0771860448	-0.126928
C	-0.037099853	 3.2849030455	 0.5510010936	-0.24499
C	 1.0626167878	 2.3059396373	 0.0368413786	-0.142461
C	 1.5505109656	 2.651917168	-1.3858627158	-0.106381
O	 0.565083145	 3.2493130259	-2.2034596965	-0.239557
C	-0.5802806476	 2.4448500181	-2.4484054916	-0.086108
C	-1.6522816819	 2.5558665409	-1.3503749246	-0.218721
H	-1.9733409221	 2.0967547168	 0.7586616546	 0.08977
H	-0.054944625	 4.2669622907	 0.0780016744	 0.116614
H	-0.0203736313	 3.3931103164	 1.6371615844	 0.107634
H	 1.9269896467	 2.1056207995	 0.6764031385	 0.094286
H	 2.3563629349	 3.3892714032	-1.3217559179	 0.117788
H	 1.9544535491	 1.7432694797	-1.8612735691	 0.107112
H	-0.9994554314	 2.7913451815	-3.3982879826	 0.109939
H	-0.2808822264	 1.3940475426	-2.5858832895	 0.110217
H	-2.4472139402	 1.8399740168	-1.590609842	 0.113381
H	-2.0962613341	 3.5574186764	-1.3797363793	 0.112523
124.4342	203.6879	222.9284	312.3264	342.3268	381.1894	448.884	478.623	580.6869	659.969	734.2979	780.5312	816.8311	834.0025	874.7499	897.9858	926.8903	1000.6315	1013.7174	1035.6357	1075.2689	1085.9621	1090.8773	1137.4595	1151.1564	1167.8532	1209.7226	1250.8075	1263.4754	1274.8372	1290.0993	1303.3162	1339.0831	1376.3735	1393.5359	1418.9875	1471.4106	1482.8087	1490.5722	1501.9065	1882.6876	2978.2243	2987.9214	3032.3351	3071.4309	3072.9536	3078.5678	3081.1646	3084.0624	3088.7564	3143.4536
O=C1C2CC1COCC2	O=C1[C@H]2C[C@@H]1COCC2	
InChI=1S/C7H10O2/c8-7-5-1-2-9-4-6(7)3-5/h5-6H,1-4H2	InChI=1S/C7H10O2/c8-7-5-1-2-9-4-6(7)3-5/h5-6H,1-4H2/t5-,6-/m1/s1
