17
gdb 133533	2.51229	1.39356	1.28315	2.9586	60.49	-0.2376	0.0687	0.3063	1049.2507	0.132287	-549.50267	-549.494013	-549.493069	-549.536271	32.23	
C	-0.129293579	 1.589984304	-0.0685261871	-0.476402
C	-0.0020057793	 0.0677081282	-0.0394981978	 0.179785
C	 0.8069484209	-0.5471728298	-1.2177857199	-0.289709
C	 1.9630002084	-0.7216500609	-0.2016773133	-0.157241
N	 1.0059447181	-0.4695357219	 0.9026493907	-0.336931
C	-1.3704172126	-0.5689501683	 0.1992697844	 0.27689
F	-2.2479746968	-0.1893440053	-0.7505793852	-0.091393
F	-1.3204325402	-1.9040276847	 0.1817829992	-0.074711
F	-1.8756794904	-0.1968809654	 1.3869752342	-0.088749
H	 0.8475449778	 2.0427666424	-0.2606983033	 0.11953
H	-0.8201334816	 1.9140098245	-0.8516426768	 0.13757
H	-0.503799089	 1.9619015111	 0.8902570108	 0.133245
H	 0.3960063893	-1.4924699829	-1.5716032513	 0.128873
H	 0.985891993	 0.1146067199	-2.0654987159	 0.111228
H	 2.4391313025	-1.705858779	-0.1577022302	 0.111832
H	 2.7465778092	 0.0391105108	-0.3110000915	 0.097172
H	 1.3111269997	 0.1809550574	 1.6180814331	 0.219009
60.6959	110.2457	199.7335	237.4135	242.5422	312.4985	340.4415	369.3503	437.6333	482.614	577.7409	578.0946	690.9259	743.1414	773.1985	872.8247	924.6268	940.3782	957.1176	994.977	1033.9563	1133.2327	1155.6951	1170.0182	1185.5925	1199.8355	1220.6301	1232.2487	1268.5359	1326.0312	1349.6869	1401.367	1406.9566	1480.6606	1488.2065	1501.16	1524.9281	3014.0642	3041.556	3071.643	3093.6092	3115.1322	3121.669	3152.7865	3531.767
CC1(CCN1)C(F)(F)F	C[C@]1(CCN1)C(F)(F)F	
InChI=1S/C5H8F3N/c1-4(2-3-9-4)5(6,7)8/h9H,2-3H2,1H3	InChI=1S/C5H8F3N/c1-4(2-3-9-4)5(6,7)8/h9H,2-3H2,1H3/t4-/m0/s1
