22
gdb 59727	3.15266	1.11311	1.00196	2.2797	82.83	-0.2442	0.0284	0.2726	1308.8118	0.195043	-404.376356	-404.367083	-404.366139	-404.41043	34.94	
C	-0.0707628068	 1.5302519908	 0.046199393	-0.39674
C	 0.0595936219	 0.00324567	-0.0565780064	 0.010598
C	 0.7683986598	-0.4027719561	-1.3568700545	-0.391994
C	 0.7356262342	-0.5664463652	 1.199035868	 0.154886
C	 0.7832643491	-2.0885050432	 1.3085952069	-0.25372
C	 1.54782521	-2.468333096	 2.5817222611	-0.162129
N	 2.804998483	-1.7388682903	 2.7317537836	-0.266868
C	 2.9509209101	-0.6710867351	 2.0719509547	 0.130329
O	 2.0797097474	-0.0354843374	 1.250763503	-0.244215
H	 0.9156636286	 2.0012897073	 0.0857847771	 0.132538
H	-0.605803668	 1.933386448	-0.8190712019	 0.110777
H	-0.6195114734	 1.824003723	 0.9475844856	 0.108513
H	-0.952349686	-0.4257816552	-0.0638409645	 0.074417
H	 1.8072640073	-0.0603982609	-1.3532731504	 0.130559
H	 0.7687465415	-1.4860854205	-1.5072891895	 0.113592
H	 0.2666113848	 0.0481830308	-2.2183891387	 0.112149
H	 0.2079019905	-0.1722151176	 2.080490813	 0.080633
H	-0.2342471753	-2.4936644259	 1.3186366667	 0.101341
H	 1.2972065308	-2.5058554771	 0.4365763	 0.11487
H	 0.9305163934	-2.2860618002	 3.4719962815	 0.109991
H	 1.7773612663	-3.5395072902	 2.587098276	 0.110521
H	 3.8868426809	-0.1157370688	 2.1125869956	 0.119951
69.779	99.6225	188.3832	206.2335	206.9305	238.3058	284.8005	335.6127	425.6374	463.1582	506.1254	547.9461	592.3037	770.4124	816.8991	863.7418	890.1168	926.1392	929.6115	964.3964	967.1165	997.7937	1030.3161	1036.382	1105.7651	1132.9202	1158.6123	1162.3579	1205.524	1235.2225	1255.3551	1318.7647	1349.0854	1351.3525	1365.4455	1386.4612	1400.3604	1400.9577	1414.1436	1422.4387	1477.778	1489.5222	1492.5185	1493.7363	1504.7832	1515.0114	1734.3787	2988.7684	3009.9704	3015.8223	3034.7275	3041.3666	3044.6892	3059.4822	3091.8647	3100.4315	3108.9481	3115.3333	3120.0227	3152.0911
CC(C)C1CCN=CO1	CC(C)[C@H]1CCN=CO1	
InChI=1S/C7H13NO/c1-6(2)7-3-4-8-5-9-7/h5-7H,3-4H2,1-2H3	InChI=1S/C7H13NO/c1-6(2)7-3-4-8-5-9-7/h5-7H,3-4H2,1-2H3/t7-/m1/s1
