23
gdb 60563	3.31531	0.9902	0.87707	1.5438	87.08	-0.2181	0.0808	0.2989	1435.7336	0.204497	-384.397885	-384.387913	-384.386969	-384.433522	37.101	
C	 0.1099307474	 1.3867821657	 0.3960005863	-0.423526
C	 0.2485634459	-0.1005344562	 0.0278456683	 0.023967
C	-1.1225431465	-0.7594366841	-0.0288673216	 0.040685
C	-1.2857299549	-2.2176203532	 0.209592746	-0.252653
N	-1.8547632481	-1.2502508955	 1.1423024023	-0.090862
C	-1.2722779567	-1.1748317219	 2.4729108278	-0.312525
N	 0.9300894485	-0.426695222	-1.2364743254	-0.069835
C	 0.8234080943	 0.4469182511	-2.3970498973	-0.221384
C	 2.1132749701	 0.3029473522	-1.6624760026	-0.229555
H	 1.072964559	 1.9053954832	 0.4079310174	 0.116061
H	-0.5593283351	 1.9145396518	-0.2909852077	 0.122081
H	-0.3201927102	 1.4749611678	 1.3976578943	 0.127285
H	 0.8499645472	-0.5889762856	 0.8025963081	 0.080588
H	-1.7800713138	-0.2897561627	-0.7617623696	 0.084006
H	-1.9942670343	-2.8063747523	-0.3673581605	 0.110031
H	-0.3927105654	-2.7602458272	 0.5197832296	 0.105905
H	-0.1911610004	-1.3813569901	 2.5206151806	 0.10063
H	-1.4531006989	-0.1823602023	 2.8992112727	 0.120213
H	-1.7758307539	-1.9082826463	 3.1112528034	 0.12254
H	 0.6656648733	-0.0545351021	-3.3482978719	 0.114926
H	 0.3115948064	 1.4018022812	-2.3012511379	 0.108992
H	 2.4492612942	 1.1627817282	-1.0866080581	 0.107967
H	 2.9168069418	-0.3089002097	-2.0646108241	 0.114462
34.0662	57.3849	142.0515	201.9299	220.0327	232.7098	281.4557	287.2785	355.0823	386.2839	443.5853	508.0551	528.3716	735.3751	755.3391	822.102	825.6892	896.2607	920.6406	952.3616	966.3155	1028.4433	1032.4255	1050.057	1099.5192	1105.8909	1113.6209	1118.6533	1132.3834	1141.8882	1163.899	1168.2034	1179.7216	1200.714	1208.8786	1301.0052	1325.438	1337.5505	1362.1474	1401.7424	1432.0539	1450.1577	1482.453	1488.9137	1494.8015	1502.091	1508.6145	1515.5764	1523.8059	2971.2711	3040.0787	3042.8668	3061.3449	3084.8584	3091.0701	3094.2664	3096.1988	3102.9509	3111.4351	3113.9601	3170.911	3172.2047	3187.4218
CC(C1CN1C)N1CC1	C[C@@H]([C@H]1CN1C)N1CC1	
InChI=1S/C7H14N2/c1-6(9-3-4-9)7-5-8(7)2/h6-7H,3-5H2,1-2H3	InChI=1S/C7H14N2/c1-6(9-3-4-9)7-5-8(7)2/h6-7H,3-5H2,1-2H3/t6-,7+,8?/m0/s1
