14
gdb 43785	4.23253	1.23783	1.11928	2.5676	66.38	-0.2588	-0.0419	0.2169	1042.1941	0.101195	-436.682342	-436.675288	-436.674344	-436.71394	27.047	
O	 0.0491181912	 0.0488524685	-0.0071846637	-0.304976
C	 0.0182749392	 1.2439249668	 0.0032946844	 0.445665
C	-1.1989695225	 2.2031986964	-0.0041715677	-0.383388
C	-0.3623497849	 3.5030774814	-0.0049686637	 0.297138
C	 0.7349993342	 3.2588640826	-1.0772235653	-0.280015
C	 1.1683095798	 2.2677993453	 0.0284942026	-0.046255
O	 0.6382604265	 3.2062263775	 1.0272856112	-0.312797
C	-1.0455990598	 4.7721704529	 0.1372784071	 0.20054
N	-1.6046865882	 5.7796726206	 0.2175899892	-0.322636
H	-1.8344722578	 2.0629991652	-0.8815283762	 0.147586
H	-1.8000412541	 2.1079427015	 0.9019906693	 0.160481
H	 0.4334802631	 2.882180531	-2.056766121	 0.130196
H	 1.4202280449	 4.1022476949	-1.153907864	 0.1485
H	 2.1864443083	 1.9303033754	 0.199877578	 0.119961
117.123	144.74	203.3804	379.1064	417.532	489.0619	509.0735	538.8563	559.9911	627.2036	662.7091	765.4573	817.7546	840.2181	898.7673	956.7447	989.717	1002.1558	1038.2748	1077.4954	1158.1967	1174.792	1184.2018	1219.3326	1238.7316	1255.5387	1308.4056	1449.3998	1485.8543	1894.9549	2367.2482	3081.2017	3084.3553	3140.4329	3163.441	3178.0677
O=C1CC2(CC1O2)C#N	O=C1C[C@@]2(C[C@H]1O2)C#N	
InChI=1S/C6H5NO2/c7-3-6-1-4(8)5(2-6)9-6/h5H,1-2H2	InChI=1S/C6H5NO2/c7-3-6-1-4(8)5(2-6)9-6/h5H,1-2H2/t5-,6-/m1/s1
