22
gdb 59423	3.55798	0.98996	0.88209	1.9979	82.57	-0.2417	0.0581	0.2998	1408.4171	0.193301	-404.301573	-404.291943	-404.290998	-404.336482	35.722	
C	 1.0538360953	-0.557123172	-0.8222213013	-0.401703
C	 0.0294082648	 0.1648184007	 0.0619970927	 0.021108
C	-0.1578665717	 1.6186109629	-0.403541501	-0.381579
C	-1.330734976	-0.5209247994	 0.1166986966	-0.083252
N	-1.8464420593	-1.1508164093	-1.1190338046	-0.370299
C	-1.6032636065	-1.972982708	 0.0566908375	 0.270232
C	-0.7404440433	-3.2337964858	 0.0917447572	-0.137121
O	-1.7773866689	-3.9409928721	 0.8107727444	-0.278174
C	-2.6377974228	-2.7853586765	 0.8347298158	-0.14514
H	 1.9787663613	 0.0253242279	-0.8786532168	 0.107215
H	 1.3139447154	-1.544932368	-0.4328161414	 0.113981
H	 0.6639997802	-0.6848723204	-1.8354456151	 0.138568
H	 0.4117933969	 0.1871497316	 1.0928705925	 0.075499
H	-0.8611308248	 2.1594889266	 0.2391084685	 0.105882
H	 0.7928034803	 2.1608241362	-0.3901391054	 0.111031
H	-0.5478584038	 1.6458695594	-1.4269592138	 0.124655
H	-2.0574766522	 0.0404349073	 0.7080716287	 0.078518
H	-2.8408617209	-0.9748827923	-1.2408846732	 0.229379
H	-0.529612497	-3.677818132	-0.8883981525	 0.113071
H	 0.184825803	-3.1777056858	 0.6775240131	 0.104829
H	-2.8513555564	-2.4484746658	 1.8581806998	 0.103348
H	-3.5876661837	-2.9633302752	 0.3101206185	 0.099952
41.1102	112.1119	135.9755	174.2262	213.4472	245.8314	285.8906	290.5719	377.4649	390.7475	453.675	586.1642	619.4394	765.8814	840.9827	866.7749	901.4803	927.7695	948.8241	956.6599	968.5617	989.9927	1025.4848	1031.4215	1061.7064	1105.3493	1130.5519	1138.1299	1151.4521	1165.058	1193.2966	1218.8881	1267.3585	1302.915	1328.825	1340.6515	1361.3211	1389.6242	1399.3887	1420.1776	1488.3505	1490.4286	1499.4572	1502.6455	1504.1036	1517.8527	1528.6301	2989.9514	3000.3411	3019.7905	3028.0561	3033.3842	3046.5246	3066.4244	3078.1513	3096.4027	3102.5158	3110.9774	3128.004	3492.3174
CC(C)C1NC11COC1	CC(C)[C@H]1NC21COC2	
InChI=1S/C7H13NO/c1-5(2)6-7(8-6)3-9-4-7/h5-6,8H,3-4H2,1-2H3	InChI=1S/C7H13NO/c1-5(2)6-7(8-6)3-9-4-7/h5-6,8H,3-4H2,1-2H3/t6-/m1/s1
