20
gdb 101284	2.16339	1.47396	1.00762	4.0449	80.	-0.2578	0.0359	0.2937	1235.8498	0.169431	-403.145066	-403.135143	-403.134199	-403.18025	35.64	
C	 0.1007621115	 1.470171804	 0.0906621692	-0.24064
O	 0.1120584502	 0.0581596282	 0.025951619	-0.245857
C	 0.6243131932	-0.5883889919	 1.179720942	 0.101543
C	-0.5000490185	-0.8991614405	 2.1725977306	-0.395863
C	 1.3314887581	-1.8596333348	 0.7331903781	-0.01527
C	 1.0325546617	-2.4771257363	-0.5985538351	-0.28259
C	 2.3902141924	-1.8317577441	-0.3626598818	-0.188774
C	 2.7549049905	-0.603360025	-1.0124344798	 0.307102
N	 3.1065996311	 0.3744555029	-1.5222486021	-0.362268
H	 1.1193833681	 1.8743204945	 0.1600335762	 0.131254
H	-0.3546528678	 1.8257375508	-0.8361556085	 0.132757
H	-0.493704828	 1.8396369193	 0.938743214	 0.103014
H	 1.3643304741	 0.0667537595	 1.6663389433	 0.080542
H	-1.2289758032	-1.5769365937	 1.7186102192	 0.128304
H	-0.1048079748	-1.3663392211	 3.0805502521	 0.114591
H	-1.0187825684	 0.0180337442	 2.4655014998	 0.12181
H	 1.5620832837	-2.5378587373	 1.5492653706	 0.099219
H	 1.0156315746	-3.5566530823	-0.6910420071	 0.122349
H	 0.349679487	-1.9364072881	-1.2400224569	 0.158593
H	 3.2312352046	-2.5042899185	-0.2283935328	 0.130185
57.7439	80.4633	126.1771	172.4077	190.042	229.8368	247.3739	259.311	351.0441	380.581	452.4612	538.6389	579.4542	650.5726	769.0081	780.1858	851.0035	872.0812	948.2203	969.919	1015.192	1069.7547	1096.2866	1107.8318	1126.4628	1130.2284	1148.0498	1172.0815	1185.5642	1222.8266	1231.9086	1346.342	1377.1423	1384.7556	1405.1898	1407.1802	1475.523	1484.6188	1486.2046	1493.4381	1495.9954	1504.0046	2349.1393	2976.202	2993.4264	3039.4196	3053.0203	3110.8138	3120.3623	3123.5927	3152.9631	3155.9992	3166.5759	3257.0975
COC(C)C1CC1C#N	CO[C@@H](C)[C@H]1C[C@H]1C#N	
InChI=1S/C7H11NO/c1-5(9-2)7-3-6(7)4-8/h5-7H,3H2,1-2H3	InChI=1S/C7H11NO/c1-5(9-2)7-3-6(7)4-8/h5-7H,3H2,1-2H3/t5-,6-,7+/m0/s1
