17
gdb 6129	3.17502	1.6958	1.44775	2.5298	66.47	-0.2394	0.0291	0.2686	947.1208	0.140387	-401.022664	-401.013691	-401.012747	-401.056027	31.604	
C	-0.0090160514	 1.4033654496	-0.1151239177	-0.343677
N	-0.0011509543	-0.0326833726	-0.0140815673	-0.083164
C	-1.0839818078	-1.023609654	-0.0160254806	-0.204438
C	 0.015364425	-2.128943208	 0.0164985785	 0.260848
C	 0.0923720816	-2.9921640204	 1.2659408764	-0.446177
O	-0.0023896795	-2.8997765498	-1.1692263754	-0.472468
C	 1.0201723055	-0.9413799339	-0.0486192223	 0.359497
O	 2.2185641893	-0.8334266527	-0.1359641631	-0.39115
H	 1.0300094678	 1.740499436	-0.1387473998	 0.161836
H	-0.510757782	 1.7390443216	-1.0312745814	 0.131066
H	-0.5119376617	 1.8633164996	 0.7439238987	 0.129424
H	-1.7411144811	-0.9717962493	 0.8589011959	 0.106633
H	-1.6760877639	-1.0361808266	-0.9363511324	 0.12039
H	-0.7241124434	-3.720488292	 1.2721879855	 0.127815
H	 1.0421504826	-3.5366958115	 1.2871510496	 0.128844
H	 0.0339256741	-2.384554558	 2.1744672804	 0.121812
H	 0.9012203693	-3.196212398	-1.3298713551	 0.292911
90.8082	123.89	150.3579	194.6465	220.059	242.4378	252.7417	312.8801	353.9314	410.745	567.4991	616.8824	741.0201	783.9071	835.6563	934.6786	957.5301	977.5652	1047.7527	1104.577	1126.1031	1168.8978	1204.7438	1227.0517	1269.528	1297.5689	1373.7461	1402.8317	1422.6019	1448.8881	1481.542	1486.7343	1490.6181	1508.1453	1529.0846	1871.6073	3015.2607	3033.9777	3037.3697	3067.1862	3090.4889	3107.4283	3115.325	3129.7415	3796.8337
CN1CC(C)(O)C1=O	CN1C[C@@](C)(O)C1=O	
InChI=1S/C5H9NO2/c1-5(8)3-6(2)4(5)7/h8H,3H2,1-2H3	InChI=1S/C5H9NO2/c1-5(8)3-6(2)4(5)7/h8H,3H2,1-2H3/t5-/m1/s1
