15
gdb 103272	3.15773	1.23014	1.09577	3.1292	61.53	-0.2632	-0.0053	0.2579	1100.1992	0.111172	-494.879461	-494.87141	-494.870466	-494.9122	30.367	
O	 0.0194398572	 1.3670265457	-0.0486330814	-0.419602
C	 0.0495932318	-0.0462520577	 0.150883999	-0.165323
C	-1.3617187795	-0.5852338326	 0.0389956625	 0.376053
O	-2.2759266147	 0.1364404616	 0.7978516353	-0.465321
C	-1.928571108	-1.1935444492	-1.2062540946	-0.015975
O	-0.8953603443	-1.9088837852	-1.9287371427	-0.260434
C	-0.7522398974	-2.8043941855	-0.8627131087	 0.46378
O	-0.0703632481	-3.7737618341	-0.8295718355	-0.320087
C	-1.7322398839	-2.0776505271	 0.013144414	-0.339133
H	-0.0584856568	 1.5310302161	-0.9949199551	 0.298075
H	 0.7280242357	-0.5461832762	-0.5462947504	 0.133861
H	 0.4165784554	-0.196862312	 1.1703424587	 0.13541
H	-1.9560800942	 1.0504577737	 0.7670980549	 0.298419
H	-2.8263732289	-0.9090962599	-1.7358152927	 0.138703
H	-2.4265269644	-2.4896084877	 0.7301030867	 0.141573
97.4784	111.7304	200.1241	275.1012	291.908	347.519	411.5445	434.2249	501.2748	530.0322	553.4826	696.8959	759.6206	789.3897	847.306	887.6284	919.0085	956.0462	970.4803	1001.615	1042.6471	1059.3619	1090.3466	1124.6772	1199.0369	1244.735	1273.1459	1310.7993	1380.8	1404.8788	1469.1665	1487.7386	1947.0825	3059.2305	3111.9465	3228.5634	3241.9864	3730.8775	3809.6032
OCC1(O)C2OC(=O)C12	OC[C@@]1(O)[C@H]2OC(=O)[C@@H]12	
InChI=1S/C5H6O4/c6-1-5(8)2-3(5)9-4(2)7/h2-3,6,8H,1H2	InChI=1S/C5H6O4/c6-1-5(8)2-3(5)9-4(2)7/h2-3,6,8H,1H2/t2-,3-,5-/m0/s1
