14
gdb 5433	3.58231	1.89371	1.24846	0.3606	72.99	-0.2141	-0.0024	0.2117	920.4071	0.10638	-345.412127	-345.404675	-345.403731	-345.443784	27.605	
C	 0.0961722115	 1.4803436285	 0.0696353631	-0.505072
C	-0.035891662	 0.0028445255	 0.0511090916	 0.268992
C	-1.1231282215	-0.8318530829	-0.0292221174	 0.059285
C	-0.5964049434	-2.1766239263	-0.0015867674	-0.298794
C	 0.7466729969	-2.0505755208	 0.0918289958	-0.011119
O	 1.102029893	-0.7333561279	 0.1247882614	-0.174026
C	-2.4783896002	-0.4410277255	-0.1200908951	 0.236175
C	-3.6363261768	-0.1173531654	-0.197730004	-0.45656
H	 0.7000517325	 1.838829646	-0.7716604541	 0.142134
H	-0.8953600767	 1.9321993429	 0.0034655787	 0.151158
H	 0.5773601531	 1.8276851208	 0.9909245613	 0.142133
H	-1.1665999036	-3.0901839406	-0.0467556529	 0.120322
H	 1.560071399	-2.7546882447	 0.1434166868	 0.138838
H	-4.6561195018	 0.1693387303	-0.2660631677	 0.186535
117.3608	139.6009	168.8766	239.5933	324.0409	466.3168	517.159	541.7555	582.6911	615.8566	655.457	690.9972	703.0536	747.9681	827.3952	911.6033	966.9051	1061.8451	1065.3857	1129.646	1170.3249	1256.5288	1277.6091	1403.0105	1431.4431	1474.3761	1482.0479	1554.9775	1628.9044	2231.1469	3031.5058	3082.5437	3137.8766	3264.8405	3290.4617	3504.4755
CC1=C(C=CO1)C#C	Cc1c(cco1)C#C	
InChI=1S/C7H6O/c1-3-7-4-5-8-6(7)2/h1,4-5H,2H3	InChI=1S/C7H6O/c1-3-7-4-5-8-6(7)2/h1,4-5H,2H3
