16
gdb 99010	5.4334	0.74053	0.65708	4.8831	64.71	-0.274	-0.0223	0.2517	1636.4375	0.122141	-512.219235	-512.209348	-512.208404	-512.255395	33.119	
C	-0.1271065944	 1.272869748	-0.1237107723	-0.239207
O	 0.0545018893	-0.134321871	 0.0843648405	-0.269782
C	 0.7111289156	-0.4532418687	 1.2226453609	 0.545233
O	 1.1311348313	 0.3246130729	 2.0298076822	-0.353173
N	 0.8028318939	-1.8466303855	 1.2726552759	-0.433301
C	 1.3976614792	-2.6073952048	 2.2639847811	 0.400397
O	 1.9366524445	-2.1687120687	 3.2525075191	-0.32557
C	 1.3291047468	-4.1184377065	 2.0215089071	-0.149333
O	 1.9503459718	-4.7983968607	 3.0662502953	-0.415569
H	 0.8387358622	 1.7802304813	-0.1812682421	 0.149193
H	-0.6635775974	 1.3625358452	-1.0679329561	 0.138981
H	-0.7089787236	 1.7095162834	 0.6913652811	 0.149173
H	 0.3844215173	-2.3321764966	 0.4925406214	 0.270214
H	 0.2704245982	-4.4121301773	 1.9256433342	 0.116609
H	 1.8109569374	-4.3421903535	 1.0550304935	 0.116581
H	 2.2602964079	-4.1027049375	 3.6700514181	 0.299555
57.7035	65.9277	100.5424	107.185	126.0762	181.3972	277.9891	313.1337	365.8106	416.1061	419.2673	550.0174	625.8674	702.4658	746.613	781.8428	905.3036	991.2707	1032.6036	1069.9991	1147.4853	1183.2664	1185.071	1215.7304	1249.9408	1251.9923	1318.2944	1453.781	1472.9209	1481.8752	1498.4518	1505.3159	1532.9929	1804.6273	1882.5039	2966.951	2985.2804	3056.4824	3133.7876	3164.5686	3617.4111	3667.7046
COC(=O)NC(=O)CO	COC(=O)NC(=O)CO	
InChI=1S/C4H7NO4/c1-9-4(8)5-3(7)2-6/h6H,2H2,1H3,(H,5,7,8)	InChI=1S/C4H7NO4/c1-9-4(8)5-3(7)2-6/h6H,2H2,1H3,(H,5,7,8)
