23
gdb 80615	2.06522	1.82985	1.44907	1.5854	83.93	-0.2402	0.0828	0.323	1077.6086	0.205949	-388.279996	-388.27118	-388.270236	-388.312482	35.757	
C	-0.1438249061	 1.5174534365	-0.0918479051	-0.417431
C	 0.0391919133	 0.0030494175	-0.0278827843	-0.015762
C	 1.030044907	-0.533888518	-1.0894473482	 0.076868
C	 1.2195255081	-2.0178395412	-0.7252798825	-0.255235
C	 1.9080522566	-1.3123492211	 0.4618144301	 0.056104
O	 2.3298226764	-0.2626989454	-0.4700655833	-0.304294
C	 0.7695844823	-0.6006258749	 1.2485455109	 0.312829
C	 1.3701821241	 0.4452698806	 2.1966860556	-0.442599
C	-0.1204636498	-1.5593683096	 2.0485477594	-0.454436
H	 0.8195082515	 2.033996843	-0.0860017689	 0.131147
H	-0.6683735623	 1.7962755793	-1.0126025736	 0.107056
H	-0.7374232912	 1.8935236404	 0.7472028176	 0.112249
H	-0.9388853575	-0.476453186	-0.153072485	 0.06519
H	 0.941954443	-0.1700961572	-2.1144800235	 0.072024
H	 0.3445441271	-2.6492006472	-0.5587308726	 0.093957
H	 1.9448805182	-2.5069034814	-1.3762449873	 0.109024
H	 2.7271432129	-1.7540015641	 1.03244948	 0.070889
H	 2.0939265548	 1.0799786772	 1.6821026739	 0.132752
H	 0.5963687054	 1.0850777378	 2.6326668719	 0.109065
H	 1.8856570848	-0.0521158602	 3.0266661506	 0.103225
H	 0.4547101115	-2.0707252687	 2.829587883	 0.11072
H	-0.9267222944	-1.0095407434	 2.5469136077	 0.11588
H	-0.5860973456	-2.324894484	 1.4215199034	 0.110778
138.8752	203.9466	237.8953	245.4851	261.7196	276.959	294.0726	345.818	399.8621	475.3899	499.2761	566.6379	625.8924	729.163	789.8397	817.8647	870.0064	879.0371	910.3539	948.9375	952.4831	966.0019	1009.6533	1014.0868	1036.0799	1057.56	1080.4644	1083.4979	1138.2226	1183.3417	1205.0404	1213.9516	1226.5168	1236.7953	1267.122	1295.8009	1314.9713	1330.2492	1376.2341	1396.7693	1408.1354	1422.6378	1481.0694	1487.0843	1489.8563	1500.4677	1502.3551	1507.8075	1519.6573	3024.237	3030.7284	3030.8491	3037.1664	3075.2344	3084.1181	3089.167	3095.2302	3103.9278	3104.6386	3109.603	3118.3424	3132.4329	3144.6569
CC1C2CC(O2)C1(C)C	C[C@H]1[C@@H]2C[C@@H](O2)C1(C)C	
InChI=1S/C8H14O/c1-5-6-4-7(9-6)8(5,2)3/h5-7H,4H2,1-3H3	InChI=1S/C8H14O/c1-5-6-4-7(9-6)8(5,2)3/h5-7H,4H2,1-3H3/t5-,6-,7+/m0/s1
