22
gdb 10361	2.51261	1.50386	1.14843	2.2746	74.59	-0.2472	0.0735	0.3206	1171.9895	0.197496	-387.337922	-387.327445	-387.326501	-387.373402	37.302	
C	 0.0943407312	 1.0582276608	 0.7376225394	-0.394391
C	-0.0813854459	-0.3310792161	 0.122232271	-0.169875
C	 0.5753003169	-0.4858120503	-1.2519084185	 0.099192
O	 1.9799632197	-0.2126039805	-1.1385121633	-0.267915
C	 2.4626150438	 0.8544608292	-1.9265843916	-0.23794
C	 0.4379650801	-1.9219138795	-1.7989033076	 0.146493
C	 0.8409182251	-2.0414183549	-3.2704041465	-0.410031
O	 1.1951006131	-2.8114327161	-0.9897807894	-0.439901
H	 1.1545905843	 1.2951849825	 0.8622628549	 0.12675
H	-0.3558625129	 1.8366750095	 0.1103556687	 0.105911
H	-0.3798117262	 1.1133942788	 1.7222048922	 0.11285
H	 0.3399761155	-1.096989529	 0.781783016	 0.116334
H	-1.1486888689	-0.5629562738	 0.0155533144	 0.092155
H	 0.1197933624	 0.2199522454	-1.9617174284	 0.063707
H	 2.3018024149	 0.6847540742	-3.000774337	 0.109345
H	 1.9921673402	 1.8089299156	-1.6515921962	 0.111824
H	 3.5379117643	 0.9295224447	-1.7421290429	 0.126713
H	-0.6077365278	-2.2343612605	-1.6870690948	 0.078798
H	 0.7622251038	-3.0831480893	-3.5921255154	 0.123027
H	 0.1983605822	-1.4295415353	-3.9133637189	 0.104649
H	 1.8782138726	-1.7211462011	-3.4134796596	 0.11734
H	 2.0632945415	-2.3962036145	-0.9007291065	 0.284964
59.6998	81.045	101.8143	161.8446	178.812	216.7953	245.9875	278.873	290.4215	336.3259	363.4791	450.5583	482.5261	515.7501	653.5532	764.2524	849.4703	891.8521	928.2512	962.2964	1019.0404	1048.2214	1076.472	1105.623	1129.544	1142.7804	1178.2	1181.0358	1219.3448	1275.837	1300.9564	1309.1744	1368.1766	1380.7104	1395.1494	1398.2697	1407.0958	1430.3265	1480.5144	1483.0574	1487.2966	1492.4944	1497.603	1498.0846	1507.2732	1515.0663	2986.3884	3003.4314	3028.505	3031.1401	3032.5506	3039.3247	3041.0344	3079.0901	3099.648	3102.3151	3107.021	3116.5736	3118.7552	3764.2035
CCC(OC)C(C)O	CC[C@@H](OC)[C@@H](C)O	
InChI=1S/C6H14O2/c1-4-6(8-3)5(2)7/h5-7H,4H2,1-3H3	InChI=1S/C6H14O2/c1-4-6(8-3)5(2)7/h5-7H,4H2,1-3H3/t5-,6-/m1/s1
