20
gdb 75618	2.05019	1.67467	1.08397	2.2588	79.34	-0.2343	-0.0207	0.2136	1175.7992	0.169199	-403.135056	-403.125593	-403.124649	-403.169376	34.944	
C	-0.5494901476	 0.9852093041	-1.507268126	-0.409062
C	 0.204239227	-0.2048843117	-0.9290976927	-0.193963
C	 1.7073770844	-0.3349381442	-1.2540289023	 0.387617
O	 2.3538715505	-0.1054322182	-2.2360842733	-0.306827
C	 2.0691799216	-0.6926625624	 0.1990686294	-0.16323
C	 3.2789835484	-0.0147131269	 0.8261187321	-0.413034
C	 0.6336240633	-0.2497212968	 0.5561697361	 0.320499
C	 0.2091321592	 0.6789393412	 1.6253242734	-0.298706
N	-0.116111155	-0.7642122285	 1.6927266381	-0.36968
H	-0.0571008457	 1.9273057334	-1.248689785	 0.12522
H	-0.585033455	 0.9141054383	-2.5982579933	 0.138741
H	-1.579821985	 1.0257031232	-1.1382591774	 0.115925
H	-0.2971022853	-1.1454933693	-1.2005447032	 0.105098
H	 2.1472530834	-1.7844750365	 0.2942567854	 0.110422
H	 3.2044833384	 1.0745529603	 0.7513898607	 0.120397
H	 3.3736406519	-0.2803790852	 1.8836021543	 0.127418
H	 4.1949554884	-0.3230592939	 0.3139220032	 0.135298
H	 0.9224596484	 1.0191969339	 2.3710635663	 0.122638
H	-0.5890937323	 1.3844576689	 1.4087636476	 0.114883
H	-1.090484189	-0.9115244095	 1.4373879066	 0.230347
51.9707	170.1569	176.978	186.5695	201.7557	205.774	211.8156	277.824	427.0892	445.4817	502.6988	570.179	595.735	730.1391	790.4003	823.4616	882.1821	932.2506	937.0551	963.5357	973.741	998.4269	1040.8783	1088.3624	1098.5343	1121.2275	1149.8242	1160.9363	1180.6282	1234.613	1261.7814	1271.0239	1328.6545	1353.3901	1398.3388	1404.188	1415.4029	1491.3828	1493.6685	1494.4305	1497.8652	1515.5856	1887.2927	3006.2454	3022.3012	3035.7042	3038.8739	3103.509	3106.0072	3108.9475	3114.9281	3116.1062	3190.2241	3483.8714
CC1C(=O)C(C)C11CN1	C[C@H]1C(=O)[C@@H](C)[C@]21CN2	
InChI=1S/C7H11NO/c1-4-6(9)5(2)7(4)3-8-7/h4-5,8H,3H2,1-2H3	InChI=1S/C7H11NO/c1-4-6(9)5(2)7(4)3-8-7/h4-5,8H,3H2,1-2H3/t4-,5+,7+
