16
gdb 46596	2.75304	1.8493	1.45772	4.9686	67.86	-0.2417	0.014	0.2557	917.214	0.126244	-437.858275	-437.851299	-437.850355	-437.889546	27.517	
O	-0.0172754562	-0.0233200344	-0.1899536867	-0.366545
C	 0.0019079591	 1.1752219532	-0.0418339154	 0.350072
N	-1.09741897	 1.9869221385	 0.1796532844	-0.321695
C	-0.886586943	 3.4355354056	 0.0828791034	-0.244209
C	 0.6262928553	 3.5406299044	-0.0080377073	 0.128042
C	 1.47453576	 3.0074865873	 1.1225112453	-0.370017
C	 1.1721932682	 2.1300117095	-0.0495974179	 0.28049
O	 2.0302855348	 2.3725341442	-1.1656691991	-0.315196
C	 1.477664654	 3.7204587019	-1.2720936646	-0.136307
H	-2.0083116001	 1.5693591339	 0.2964042143	 0.252828
H	-1.3650803072	 3.8521696778	-0.8134574349	 0.11733
H	-1.3044109978	 3.952588385	 0.9545658305	 0.120221
H	 2.4942042264	 3.361401084	 1.2339459887	 0.134201
H	 0.9528006099	 2.7871123284	 2.0473147105	 0.136811
H	 0.8772017377	 3.8225420042	-2.183306382	 0.118008
H	 2.2617113489	 4.4850907266	-1.2533104992	 0.115966
124.1845	172.6712	280.7367	324.8522	365.0044	453.5388	510.6604	582.7198	618.6373	682.0222	726.9194	762.2997	811.2564	877.8939	924.5686	937.2597	965.7642	986.9099	998.3092	1029.7053	1064.9155	1141.0729	1148.3914	1161.2366	1212.9821	1268.8342	1293.1711	1336.6863	1343.9911	1371.1757	1442.0781	1465.3123	1511.9967	1526.3343	1832.382	3011.7405	3027.6645	3049.6638	3081.9572	3132.475	3227.848	3626.9845
O=C1NCC23CC12OC3	O=C1NC[C@@]23C[C@@]12OC3	
InChI=1S/C6H7NO2/c8-4-6-1-5(6,2-7-4)3-9-6/h1-3H2,(H,7,8)	InChI=1S/C6H7NO2/c8-4-6-1-5(6,2-7-4)3-9-6/h1-3H2,(H,7,8)/t5-,6-/m1/s1
