19
gdb 35753	3.33222	1.3413	1.16864	1.1234	80.39	-0.2419	0.0471	0.289	1099.9461	0.160763	-385.839907	-385.832282	-385.831338	-385.871799	30.896	
C	-0.3675284959	-1.1075468277	-0.7159668404	-0.442491
C	-0.1867177049	 0.0165251905	-0.3288728185	 0.303293
C	 0.042945942	 1.3688283287	 0.1641270795	-0.200744
C	-0.4923730063	 1.5067109513	 1.6231723699	-0.081586
O	 0.1318124045	 2.5556592622	 2.3485822296	-0.277666
C	 1.508237583	 2.7326626706	 2.0304680194	 0.135411
C	 1.6405247375	 3.2610467917	 0.5787356826	-0.242835
C	 1.543622788	 1.7684409107	 0.155418208	-0.021331
C	 2.17913687	 1.4207361192	 1.5337898958	-0.257554
H	-0.5331798879	-2.0956547758	-1.0677162902	 0.194478
H	-0.4922096307	 2.0724827648	-0.4868954099	 0.107567
H	-1.56522604	 1.7147597035	 1.6262129157	 0.116558
H	-0.3400308991	 0.5489632481	 2.1373660445	 0.107714
H	 1.9477731362	 3.2932581193	 2.8572786889	 0.07633
H	 0.8647299824	 3.9508240518	 0.2357753885	 0.096314
H	 2.6306277973	 3.6787701606	 0.3784022591	 0.097184
H	 2.0377808301	 1.439083446	-0.75957631	 0.075978
H	 3.2655242813	 1.5317135538	 1.5102972902	 0.104469
H	 1.9251453028	 0.4760908905	 2.0189273073	 0.108911
103.8424	146.8724	250.0532	302.5035	408.8428	431.4005	437.58	511.7833	536.6164	582.7169	630.4127	637.4977	782.8121	808.1381	836.7771	884.3428	898.0053	933.1606	964.3318	990.2437	1011.9681	1038.0172	1050.1288	1082.845	1114.0443	1139.6766	1146.8247	1193.5177	1240.8888	1248.3769	1271.7838	1273.3778	1309.0848	1330.7555	1333.6407	1371.3134	1414.6465	1468.9674	1495.6388	1523.1436	2233.2612	3012.1363	3022.1825	3054.3832	3071.3119	3094.7608	3096.3178	3099.4268	3115.8741	3126.194	3504.3556
C#CC1COC2CC1C2	C#C[C@H]1CO[C@@H]2C[C@H]1C2	
InChI=1S/C8H10O/c1-2-6-5-9-8-3-7(6)4-8/h1,6-8H,3-5H2	InChI=1S/C8H10O/c1-2-6-5-9-8-3-7(6)4-8/h1,6-8H,3-5H2/t6-,7-,8+/m0/s1
