20
gdb 12418	2.80686	2.10261	1.47819	0.2107	70.86	-0.2311	0.0867	0.3178	933.1729	0.17778	-386.146049	-386.138024	-386.13708	-386.177848	31.112	
C	-0.0688362746	 1.5136337373	-0.0951224062	-0.416503
C	 0.0594551421	 0.0013804434	-0.0042067649	 0.129412
O	 0.7041116802	-0.4502386416	-1.1940355809	-0.264997
C	 0.7467337158	-1.8672651282	-1.2470620314	-0.079566
C	 1.4825893397	-2.4218565428	-0.0335152656	-0.082543
O	 0.9044264266	-1.9378900994	 1.1690752188	-0.272052
C	 0.8257151165	-0.5083062729	 1.2309788861	 0.117527
C	 2.2036022452	 0.1322246172	 1.4244479292	-0.412852
H	 0.9110531553	 1.9838993201	-0.2105607899	 0.129162
H	-0.6783631571	 1.7845249864	-0.9611369325	 0.125771
H	-0.5463965095	 1.915551231	 0.804018368	 0.115446
H	-0.9466631587	-0.4502740359	 0.0404925756	 0.067317
H	-0.2776304727	-2.2743361358	-1.2776524142	 0.091273
H	 1.2587863575	-2.1382507072	-2.1758424227	 0.10392
H	 1.4042743482	-3.5132006672	 0.0043959032	 0.105675
H	 2.5492232952	-2.1584556585	-0.0943406683	 0.094394
H	 0.2132857393	-0.3146648462	 2.119309512	 0.080489
H	 2.786636601	 0.1258928634	 0.4999867135	 0.128601
H	 2.1039685066	 1.1713128348	 1.7509006183	 0.117496
H	 2.7551087836	-0.4146236478	 2.1939633018	 0.122029
133.343	201.508	213.3187	244.7404	280.6425	316.872	344.9256	421.1205	453.0011	496.9908	590.2193	684.7505	765.573	851.7941	867.4647	921.8647	937.8298	984.7334	1016.849	1070.4861	1107.4303	1128.5665	1138.1934	1156.1203	1163.5938	1186.0961	1279.1308	1300.901	1343.3881	1348.4542	1374.2692	1383.0879	1404.504	1407.5336	1415.9493	1421.0648	1481.1098	1484.9215	1490.789	1494.482	1505.4119	1513.1234	2952.727	2971.1109	2996.6159	3041.8296	3046.3531	3049.6164	3078.6535	3081.1835	3117.6777	3118.4077	3127.3335	3128.7078
CC1OCCOC1C	C[C@H]1OCCO[C@H]1C	
InChI=1S/C6H12O2/c1-5-6(2)8-4-3-7-5/h5-6H,3-4H2,1-2H3	InChI=1S/C6H12O2/c1-5-6(2)8-4-3-7-5/h5-6H,3-4H2,1-2H3/t5-,6+
