20
gdb 22130	3.41731	0.89454	0.84782	1.7654	79.59	-0.2412	0.0079	0.2492	1447.8294	0.167853	-440.236984	-440.227072	-440.226128	-440.271905	37.161	
C	 0.2646615306	 1.2164726141	 0.4516366684	-0.41098
C	 0.1760213132	-0.2126994664	-0.0933671868	-0.216443
C	 0.6071144118	-0.3517837374	-1.5558329134	 0.411019
O	-0.1793204309	 0.4370240895	-2.4252885212	-0.484018
C	 2.1677618598	-0.2543875727	-1.7783277722	-0.379051
C	 2.1554125254	-1.7509437535	-1.9891147864	 0.428119
C	 0.6463608178	-1.8283883909	-2.0512525328	-0.363113
N	 3.1116393426	-2.5804921543	-1.9857443837	-0.23801
O	 2.6339781893	-3.8957045343	-2.157228286	-0.394754
H	 1.2789092368	 1.6219408816	 0.3658236694	 0.121835
H	-0.4173955788	 1.8925461883	-0.076637069	 0.113198
H	-0.0141483957	 1.2487398853	 1.5086221483	 0.124715
H	 0.7979232301	-0.8789668835	 0.5168446341	 0.104532
H	-0.8551615666	-0.576472871	-0.0081809754	 0.106558
H	-0.1006206245	 1.3580420082	-2.1549802036	 0.279129
H	 2.3992357736	 0.2999790089	-2.6934452032	 0.121355
H	 2.7822086429	 0.1270836408	-0.9585995329	 0.113775
H	 0.1675713637	-2.5845481142	-1.4239740327	 0.122423
H	 0.2641583264	-1.916150587	-3.0727375019	 0.134496
H	 3.4466157425	-4.4112355215	-2.1200088091	 0.305216
40.5275	108.3533	183.8555	196.6072	244.9566	255.2829	279.5633	335.6221	347.6339	366.7907	415.118	471.6756	484.1463	544.0805	662.2911	747.8057	782.5237	822.3801	855.028	920.1132	953.9417	968.2311	1001.0545	1028.9206	1039.5989	1094.6948	1121.4372	1160.0922	1195.154	1210.5137	1251.4227	1275.3643	1314.2587	1337.4085	1388.3705	1402.3519	1411.7737	1440.4762	1461.326	1478.1797	1500.0095	1511.1918	1788.3519	3026.7415	3030.2067	3049.5544	3060.2635	3063.5765	3094.0815	3106.5499	3108.3974	3113.5331	3808.6634	3818.9942
CCC1(O)CC(C1)=NO	CC[C@@]1(O)CC(=NO)C1	
InChI=1S/C6H11NO2/c1-2-6(8)3-5(4-6)7-9/h8-9H,2-4H2,1H3	InChI=1S/C6H11NO2/c1-2-6(8)3-5(4-6)7-9/h8-9H,2-4H2,1H3/t6-
