17
gdb 7454	3.04048	1.67505	1.14066	4.1256	61.24	-0.2575	0.0245	0.2821	1024.0649	0.140667	-438.175106	-438.16611	-438.165166	-438.208541	33.263	
C	 0.0604507022	 1.5461339134	-0.0775198387	-0.402581
C	 0.0318499756	 0.0328593066	 0.0992365002	 0.092713
O	 0.520279859	-0.345344004	 1.395272145	-0.43976
C	-1.4024779555	-0.525667478	 0.0051933323	 0.052746
O	-2.0392889075	-0.0291337926	-1.1377599719	-0.440715
C	-1.4522455408	-2.0684573138	-0.0587522807	 0.36593
N	-0.8324468711	-2.7405277891	 0.9336740948	-0.514924
O	-2.0684583294	-2.6022014749	-0.9710469586	-0.387565
H	 1.0891736365	 1.9209133945	-0.0213389702	 0.100325
H	-0.355856341	 1.8176826384	-1.0490952997	 0.151156
H	-0.5282001692	 2.0318939192	 0.7071327057	 0.125288
H	 0.6414233128	-0.4413318986	-0.6855834962	 0.079575
H	 1.4170144932	-0.0099519498	 1.4879974068	 0.290843
H	-1.9298243935	-0.2089350644	 0.9213322307	 0.095916
H	-2.3701712749	-0.8284279882	-1.5887004772	 0.295442
H	-0.1990697354	-2.2383966163	 1.5399093516	 0.275255
H	-0.7962435809	-3.7454480524	 0.8758201761	 0.260355
72.3364	84.5535	215.794	243.5887	264.6005	306.6864	333.667	362.7972	400.1483	435.7698	477.9531	514.7348	567.2194	603.7884	669.521	721.5549	865.1793	885.3333	960.9889	1073.9307	1102.9891	1116.6516	1133.6343	1167.7358	1235.4216	1277.0418	1337.7554	1362.4726	1367.4122	1402.2608	1417.0928	1472.6098	1488.0685	1500.7206	1618.0542	1779.7565	2961.0637	2987.8185	3032.4141	3100.7344	3145.2981	3549.9705	3599.1083	3700.1087	3829.3273
CC(O)C(O)C(N)=O	C[C@@H](O)[C@@H](O)C(=O)N	
InChI=1S/C4H9NO3/c1-2(6)3(7)4(5)8/h2-3,6-7H,1H3,(H2,5,8)	InChI=1S/C4H9NO3/c1-2(6)3(7)4(5)8/h2-3,6-7H,1H3,(H2,5,8)/t2-,3-/m1/s1
