19
gdb 101289	2.72562	0.98641	0.84855	2.6169	78.26	-0.2465	0.0421	0.2887	1405.6527	0.15695	-422.969176	-422.959364	-422.95842	-423.004214	36.43	
O	 0.0800153663	 1.4003532257	 0.0701072226	-0.424715
C	-0.0064608176	 0.0081744794	 0.2720498868	-0.056807
C	-1.3852694721	-0.5167491505	-0.1449538456	 0.080906
O	-1.6718232625	-0.0510269276	-1.4698218177	-0.442791
C	-1.4912081302	-2.0170108446	-0.0302238671	-0.034697
C	-1.8246840091	-2.6673507137	 1.2830751679	-0.298967
C	-2.8381902387	-2.7082724008	 0.1503258995	-0.203771
C	-4.0537880196	-1.953645529	 0.2440085801	 0.33921
C	-5.0823620988	-1.3356194737	 0.3271122649	-0.46373
H	-0.3762657425	 1.5613002963	-0.7668808602	 0.284836
H	 0.7714113139	-0.5333213537	-0.2995769981	 0.06615
H	 0.173347596	-0.1896870559	 1.3341303051	 0.109376
H	-2.1478757694	-0.0420218876	 0.4807143866	 0.108126
H	-1.1454182902	-0.572877129	-2.0869383221	 0.280171
H	-0.788147165	-2.5595137834	-0.6607421014	 0.085986
H	-1.3264273692	-3.5918722512	 1.5509677914	 0.122581
H	-2.060466693	-2.0200471347	 2.1204465106	 0.134102
H	-2.9384555787	-3.6627956824	-0.3582456367	 0.115657
H	-5.9872058796	-0.7840854936	 0.3921516833	 0.198379
54.7239	85.8727	126.1506	171.8376	215.2858	267.8584	293.6385	307.09	400.6273	446.2794	507.0354	527.8208	547.0855	587.7106	629.2113	657.719	776.6968	828.9237	857.3632	889.2853	962.9903	1001.9713	1058.0218	1078.4952	1081.0895	1105.2489	1119.6196	1126.6345	1154.8464	1209.8389	1221.6215	1270.8665	1296.4312	1377.4993	1379.3885	1404.6448	1435.3682	1447.9643	1486.9528	1506.7408	2238.2145	2922.7794	3066.165	3076.9566	3116.299	3139.9804	3147.4643	3229.6187	3504.8603	3756.0058	3790.3453
OCC(O)C1CC1C#C	OC[C@@H](O)[C@H]1C[C@H]1C#C	
InChI=1S/C7H10O2/c1-2-5-3-6(5)7(9)4-8/h1,5-9H,3-4H2	InChI=1S/C7H10O2/c1-2-5-3-6(5)7(9)4-8/h1,5-9H,3-4H2/t5-,6+,7-/m1/s1
