19
gdb 87820	2.64192	1.51705	1.19332	2.5664	75.77	-0.2444	0.0624	0.3068	1090.2639	0.157269	-422.968232	-422.959565	-422.958621	-423.001139	33.592	
C	-0.265430336	 1.5287831308	 0.0293791671	-0.496024
C	 0.0561691725	 0.0717782423	-0.0341289329	 0.342665
O	-0.8127958666	-0.8392620135	 0.6720726106	-0.288905
C	 0.5903873626	-0.8842396815	 0.9566992791	-0.039203
C	 1.2491456627	-1.7461545621	-0.1339722762	-0.349336
C	 0.6741939024	-0.7441380626	-1.1660593395	 0.280127
C	 0.0940667195	-1.0022033927	-2.5322796306	-0.364599
C	 1.3724879524	-0.2313482042	-2.3965430111	 0.028786
O	 1.3072831916	 1.1250208755	-2.7395841058	-0.419465
H	 0.6048928907	 2.1379483487	-0.2294121664	 0.111045
H	-1.0645201927	 1.7834061797	-0.6745606237	 0.136741
H	-0.5977538493	 1.7902777469	 1.0374626905	 0.129807
H	 0.8944279484	-0.7407307377	 1.9877663632	 0.099635
H	 2.3428724781	-1.7388095952	-0.0954676767	 0.101885
H	 0.887064456	-2.7763627502	-0.1867573047	 0.111417
H	 0.1318493371	-2.0081433493	-2.9366883296	 0.115985
H	-0.7835531287	-0.4290947545	-2.8135810487	 0.126943
H	 2.2980272834	-0.7326744047	-2.6847109519	 0.085665
H	 1.9983966162	 1.5889743242	-2.2552748128	 0.286832
106.223	148.7373	175.7207	204.5814	275.8525	298.1167	350.0866	405.2365	441.8673	455.3969	579.4077	601.295	654.1566	759.2718	812.2261	856.3144	868.1229	889.8641	920.9967	965.9856	995.63	1039.678	1044.2882	1067.8234	1096.2548	1111.5202	1142.1552	1161.1017	1176.2769	1211.9708	1247.4008	1262.0013	1291.2308	1352.8246	1402.8079	1426.8607	1452.5367	1473.0546	1483.9739	1487.6626	1492.4237	3042.1433	3050.3186	3083.3697	3105.9963	3106.4756	3125.017	3129.621	3178.2815	3217.8691	3805.0538
CC12OC1CC21CC1O	C[C@]12O[C@H]1C[C@]12C[C@H]1O	
InChI=1S/C7H10O2/c1-6-5(9-6)3-7(6)2-4(7)8/h4-5,8H,2-3H2,1H3	InChI=1S/C7H10O2/c1-6-5(9-6)3-7(6)2-4(7)8/h4-5,8H,2-3H2,1H3/t4-,5+,6+,7-/m1/s1
