16
gdb 6073	4.69758	1.1932	1.014	8.2044	62.74	-0.2362	0.0061	0.2423	1114.8911	0.130726	-417.115868	-417.107538	-417.106593	-417.149247	30.169	
N	-0.4405679491	 0.9811237004	-0.5731239922	-0.536826
C	 0.0419923353	-0.1236250476	-0.1332309035	 0.40285
N	 1.2314711308	-0.2622183018	 0.5268056472	-0.526981
H	 1.4511499379	-1.1353799229	 0.975761111	 0.265556
H	 1.6863705285	 0.5540003921	 0.9027371517	 0.259223
C	-0.7094181303	-1.4229265888	-0.3579010353	-0.278679
C	-1.7447236443	-1.4099472538	-1.4990989474	-0.32885
C	-3.0966727548	-0.7608740598	-1.1687705022	 0.385367
O	-3.0638279678	 0.5322794115	-0.8508885179	-0.375406
O	-4.1271276437	-1.3864137343	-1.2097551692	-0.336936
H	 0.1342593069	 1.7940228729	-0.358784431	 0.214577
H	-2.1181205172	 0.8550739354	-0.8355623137	 0.330166
H	 0.0302113601	-2.2051388128	-0.5649307757	 0.121944
H	-1.1893988461	-1.7055748328	 0.5886686006	 0.145125
H	-1.3105218965	-0.9045275618	-2.3687051827	 0.131578
H	-1.9695839398	-2.4391413959	-1.7823634599	 0.127293
48.0076	91.6224	174.6845	248.2947	265.5363	304.4325	388.6073	448.619	482.3079	543.4624	587.9607	604.3125	745.4433	802.4613	836.9034	844.625	942.0919	957.3668	1006.3969	1059.1582	1095.2353	1162.0272	1184.3162	1237.3919	1315.9568	1337.6591	1362.7904	1450.1574	1467.1453	1469.8385	1523.5344	1645.7588	1714.8985	1848.2662	3026.928	3053.1917	3067.6641	3106.7774	3126.7203	3490.2006	3597.7922	3715.4038
NC(=[NH2+])CCC([O-])=O	N=C(N)CCC(=O)O	
InChI=1S/C4H8N2O2/c5-3(6)1-2-4(7)8/h1-2H2,(H3,5,6)(H,7,8)	InChI=1S/C4H8N2O2/c5-3(6)1-2-4(7)8/h1-2H2,(H3,5,6)(H,7,8)
