14
gdb 21720	3.86289	1.87674	1.30046	6.0829	59.65	-0.2189	0.0138	0.2327	882.1996	0.109388	-415.851116	-415.844324	-415.843379	-415.882178	25.43	
N	-0.1330603158	 1.4559725634	-0.0776276027	-0.527211
H	 0.0400908201	 0.5686637844	-0.5419236058	 0.250695
H	 0.7359365214	 1.9788538281	-0.1035075299	 0.247352
H	-1.8030589875	 1.9865200002	-0.8231467769	 0.311016
C	-0.5561094511	 1.2167822541	 1.3240665675	-0.29906
C	-1.9966474426	 0.8061737588	 1.3300114402	 0.013793
C	-2.9135846045	 1.1528468233	 0.3682879892	 0.460244
O	-2.7800129879	 1.844098401	-0.7520836682	-0.401226
O	-4.1209204656	 0.67251474	 0.648750059	-0.205737
N	-4.0443354335	-0.0394477624	 1.8710243336	-0.160844
C	-2.7877501924	 0.0578772514	 2.2352106914	-0.054203
H	 0.0659879812	 0.4691272826	 1.8367685025	 0.112492
H	-0.4111692362	 2.1624979646	 1.8627793226	 0.127926
H	-2.4838221654	-0.4203222394	 3.1576026576	 0.124763
106.3229	222.0938	240.9243	303.9999	343.9152	437.8259	467.4584	629.13	686.796	733.762	748.4631	831.0182	893.9441	911.246	927.4837	950.7656	1004.4027	1027.2318	1168.8829	1187.6934	1208.1868	1285.2374	1329.291	1377.5529	1433.2901	1486.7819	1508.3178	1569.8085	1646.2943	1678.2271	2995.4391	3029.172	3224.7908	3342.0061	3497.4034	3580.7513
[NH3+]CC1=C([O-])ON=C1	NCc1c(O)onc1	
InChI=1S/C4H6N2O2/c5-1-3-2-6-8-4(3)7/h2,7H,1,5H2	InChI=1S/C4H6N2O2/c5-1-3-2-6-8-4(3)7/h2,7H,1,5H2
