14
gdb 19894	4.15142	2.01811	1.67691	5.7997	65.27	-0.2284	0.0269	0.2553	771.3925	0.108338	-341.499395	-341.493186	-341.492242	-341.529583	24.471	
N	-0.2211462613	-1.2202067282	-0.1659680229	-0.36647
C	 0.0038348871	-0.0975762168	 0.0008980163	 0.322802
C	 0.106402011	 1.3386885112	 0.0904157892	-0.169393
C	 0.4960930644	 2.1960846314	 1.2792550858	-0.085035
C	 1.7276974761	 1.670088771	 2.0691660409	-0.055827
N	 2.1653992014	 0.400723208	 1.4549997426	-0.312385
C	 2.5492270395	 1.6878177504	 0.8416893244	-0.05584
C	 1.3423793405	 2.2144521876	 0.0148544222	-0.085028
H	-0.7140284416	 1.8055461205	-0.4519518909	 0.137871
H	-0.1768206838	 2.9545220215	 1.657385201	 0.107497
H	 1.9715690397	 1.9290907039	 3.090177334	 0.106739
H	 2.9606174575	 0.0438908187	 1.9820970075	 0.240832
H	 3.5825250199	 1.963852804	 0.6831968529	 0.10674
H	 1.4251303896	 2.989294617	-0.736007883	 0.107499
146.0819	179.3671	340.867	379.5746	470.4379	616.8891	666.658	716.2551	722.958	750.1004	820.8226	860.9114	882.9097	912.8765	939.736	944.0195	988.0815	1000.3728	1035.418	1070.3575	1099.0067	1123.0744	1177.882	1240.6147	1245.5761	1311.9694	1332.5768	1360.7392	1420.1279	2349.0627	3132.1949	3193.7571	3203.8053	3207.7114	3219.9041	3492.0351
N#CC1C2C3NC3C12	N#C[C@H]1[C@H]2[C@H]3N[C@H]3[C@@H]12	
InChI=1S/C6H6N2/c7-1-2-3-4(2)6-5(3)8-6/h2-6,8H	InChI=1S/C6H6N2/c7-1-2-3-4(2)6-5(3)8-6/h2-6,8H/t2-,3+,4-,5+,6-
