16
gdb 74504	3.55396	1.26009	1.05521	6.2337	75.6	-0.2449	0.0026	0.2475	1138.569	0.124925	-396.948103	-396.940044	-396.939099	-396.980587	30.493	
C	 0.0287784506	 1.4689869872	 0.0285557391	-0.483893
C	 0.0136841365	-0.0230123998	-0.0276318195	 0.342484
N	-0.0409526407	-0.7061303382	-1.1189540494	-0.326413
C	-0.0179035811	-2.0985682334	-0.7608278041	 0.192293
C	 1.2217512323	-2.6275374402	-0.0473284446	-0.316654
C	 0.0801270954	-2.1545644303	 0.794251071	-0.061692
N	 0.107135376	-0.7643536153	 1.146096865	-0.324748
C	-0.8110413304	-3.0041142698	-1.5464098931	 0.232122
N	-1.448930187	-3.7578345215	-2.1487771005	-0.351065
H	 1.0039795913	 1.8368686084	 0.3637780258	 0.148478
H	-0.1815984719	 1.8697126564	-0.9626755668	 0.163374
H	-0.7223807257	 1.8420524367	 0.7340436843	 0.131177
H	 1.3769428213	-3.6988300584	-0.0970241061	 0.141825
H	 2.1168332753	-2.0176810621	-0.1092167327	 0.132894
H	-0.4812508995	-2.8314411226	 1.4254357935	 0.127072
H	-0.3639840524	-0.448117877	 1.9800753079	 0.252746
117.1683	139.935	160.6093	214.3113	335.1941	353.2864	425.1441	455.19	491.1469	540.3645	586.9585	651.3829	682.1521	739.2217	825.5233	884.1502	945.1696	960.4993	995.3714	1025.3408	1060.8404	1067.8997	1099.9017	1121.5629	1209.2436	1269.3123	1301.7188	1372.0309	1410.951	1448.4801	1467.103	1482.0197	1486.5355	1667.148	2354.576	3041.1081	3096.631	3136.4852	3161.7371	3198.8191	3235.4978	3617.8574
CC1=NC2(CC2N1)C#N	CC1=N[C@]2(C[C@H]2N1)C#N	
InChI=1S/C6H7N3/c1-4-8-5-2-6(5,3-7)9-4/h5H,2H2,1H3,(H,8,9)	InChI=1S/C6H7N3/c1-4-8-5-2-6(5,3-7)9-4/h5H,2H2,1H3,(H,8,9)/t5-,6-/m1/s1
