19
gdb 87224	4.14705	0.79296	0.74726	1.9612	78.91	-0.2468	0.0359	0.2827	1548.459	0.154839	-422.956246	-422.946069	-422.945124	-422.991596	37.305	
C	 0.0655786818	 1.6856125189	 0.1753444656	-0.461697
C	-0.057518296	 0.1829261055	 0.0702984117	 0.432556
C	 1.1483021516	-0.6584182283	-0.3219433081	-0.388095
C	 0.5911740802	-0.6973380481	 1.0892611111	 0.043124
O	 1.2824529965	-0.0769283378	 2.1319412264	-0.424465
O	-1.3112861916	-0.302064708	-0.3380678096	-0.291552
C	-1.6072510577	-0.0548421543	-1.7062665668	-0.230055
C	-2.8072430541	-0.7885656538	-2.0860184071	 0.287874
C	-3.7946393009	-1.3813306828	-2.4260418537	-0.42114
H	 0.9842286372	 1.9498285925	 0.701506823	 0.137707
H	 0.0813156874	 2.1640571059	-0.809487157	 0.114183
H	-0.7802827886	 2.0880381445	 0.7417302676	 0.129865
H	 0.9861588684	-1.5272605915	-0.9504402344	 0.118632
H	 2.0906882047	-0.141643477	-0.471614827	 0.11447
H	 0.0220082226	-1.5843760634	 1.363670301	 0.103374
H	 2.0639608828	-0.6053661679	 2.3240269477	 0.290462
H	-1.7630417995	 1.0196111088	-1.8865757174	 0.124942
H	-0.7630513066	-0.3664944906	-2.3415670819	 0.120166
H	-4.6682992683	-1.9081978327	-2.7205332211	 0.199649
45.5153	98.0507	119.0966	190.7936	204.6332	255.0055	283.5471	302.7746	330.9093	361.1701	401.9776	462.1343	513.4453	582.8719	607.6235	672.953	723.8231	831.4598	907.8205	921.3458	958.7088	985.9287	1009.6344	1026.4343	1036.7133	1079.1414	1105.7325	1130.4762	1179.7345	1247.7228	1254.2639	1292.7316	1326.4944	1402.951	1414.4593	1418.9417	1480.1872	1489.3745	1501.1744	1510.0648	2247.7344	2977.5213	3002.4292	3040.5655	3101.8791	3117.4211	3129.4039	3141.9617	3223.7532	3506.8862	3809.0331
CC1(CC1O)OCC#C	C[C@]1(C[C@H]1O)OCC#C	
InChI=1S/C7H10O2/c1-3-4-9-7(2)5-6(7)8/h1,6,8H,4-5H2,2H3	InChI=1S/C7H10O2/c1-3-4-9-7(2)5-6(7)8/h1,6,8H,4-5H2,2H3/t6-,7-/m1/s1
