17
gdb 17466	4.3041	1.97986	1.67717	2.504	66.32	-0.2357	0.0665	0.3022	812.6329	0.143715	-363.832216	-363.825601	-363.824657	-363.862535	26.645	
C	 0.0860184277	 1.4982040151	-0.1420092537	-0.458801
C	-0.0435912726	 0.0089640496	 0.0613919869	 0.324386
C	-1.3913030511	-0.6573561024	-0.2621024	-0.323665
C	-1.4992567557	-1.8688267561	 0.6531755125	 0.041733
O	-0.4761513191	-2.8614651071	 0.4732686172	-0.25987
C	-0.3252578197	-1.9081765619	 1.5392771555	 0.029492
C	 0.5911564212	-0.750240058	 1.1877158517	-0.101787
N	 1.1798675705	-0.7760088932	-0.159136072	-0.368102
H	 1.0853637723	 1.8321103814	 0.1471592528	 0.130753
H	-0.0619763712	 1.7633490712	-1.1954253918	 0.120048
H	-0.6551168544	 2.0468545952	 0.4499203109	 0.110954
H	-2.2113227579	 0.0343017929	-0.0349639552	 0.108986
H	-1.4820194377	-0.9285528896	-1.3203355077	 0.118861
H	-2.4742717819	-2.2673697762	 0.9236601343	 0.100311
H	-0.3322248613	-2.323940268	 2.542036352	 0.100298
H	 1.1860179706	-0.2931083137	 1.9720211849	 0.085807
H	 0.9585435902	-1.6780927992	-0.5790967082	 0.240597
192.1704	209.3146	272.5649	356.3568	368.5785	425.2674	555.6487	641.8943	707.489	728.6856	792.3784	846.219	866.7026	884.3174	921.4802	942.1678	990.4608	1022.5072	1026.0031	1069.7968	1094.1466	1120.6579	1140.2615	1195.957	1212.2298	1251.3694	1284.6149	1291.0079	1314.5052	1352.4765	1398.4369	1422.1424	1437.4238	1472.1729	1486.7748	1496.342	3027.7693	3037.5994	3075.4144	3087.5017	3123.1772	3139.3503	3156.3295	3171.642	3474.4139
CC12CC3OC3C1N2	C[C@]12C[C@H]3O[C@H]3[C@H]1N2	
InChI=1S/C6H9NO/c1-6-2-3-4(8-3)5(6)7-6/h3-5,7H,2H2,1H3	InChI=1S/C6H9NO/c1-6-2-3-4(8-3)5(6)7-6/h3-5,7H,2H2,1H3/t3-,4-,5-,6+/m1/s1
