22
gdb 7593	2.57754	1.63738	1.38727	1.3567	78.08	-0.2545	0.072	0.3264	1063.478	0.197897	-350.200165	-350.190187	-350.189243	-350.234365	37.158	
C	 0.0947817608	 1.4690553503	-0.2739444251	-0.412796
C	 0.0046579054	-0.0013966253	 0.1445661969	 0.070788
O	 0.6037884625	-0.2071416546	 1.425618928	-0.44109
C	-1.412862973	-0.5664648237	 0.0884836799	 0.369311
C	-2.4276598214	 0.1292679294	 0.9798562714	-0.485058
C	-1.9011576054	-1.1034624416	-1.2408435912	-0.341415
C	-1.5968090837	-2.0577907636	-0.108088417	-0.032677
C	-0.4582860459	-3.0532116974	-0.1848652803	-0.411335
H	 1.1389864603	 1.7934145961	-0.2724058538	 0.120971
H	-0.3177807984	 1.6202602822	-1.2764419198	 0.119274
H	-0.4586859281	 2.1165575432	 0.4157103367	 0.108375
H	 0.6332082056	-0.5818040942	-0.5375516437	 0.080667
H	 0.1768634782	 0.3899032225	 2.0488369811	 0.276431
H	-2.5715597067	 1.1792431601	 0.7026330747	 0.116197
H	-3.4031242213	-0.36148193	 0.9130351845	 0.117131
H	-2.123685478	 0.0946876501	 2.033363047	 0.107511
H	-2.9339689244	-0.9274173126	-1.5244704329	 0.102993
H	-1.2074605262	-1.0881089517	-2.0771214949	 0.103526
H	-2.4731832593	-2.4564739668	 0.3988010059	 0.076802
H	 0.366701584	-2.6959832825	-0.8070061004	 0.115817
H	-0.0521543863	-3.2691745126	 0.8086473815	 0.127988
H	-0.8061148986	-3.995574457	-0.6223413486	 0.110588
53.6207	133.9155	185.3053	206.9006	223.9159	238.9335	247.1597	279.1925	297.6611	371.6209	402.0271	437.3039	514.2447	552.8224	696.0808	781.8049	863.409	877.5569	918.3973	927.6763	963.465	1022.4846	1029.6202	1054.9054	1086.6553	1100.9884	1123.9093	1131.8325	1136.9852	1190.5583	1254.0067	1302.5721	1320.3511	1373.277	1399.1979	1409.8405	1415.9184	1419.1725	1436.4272	1486.8894	1490.4176	1492.7216	1495.8359	1501.2591	1505.0012	1508.7553	3021.4288	3033.0636	3034.4075	3062.4009	3081.2462	3093.9742	3098.7723	3102.8908	3107.5618	3116.8784	3117.5975	3127.0985	3198.6232	3808.1391
CC(O)C1(C)CC1C	C[C@@H](O)[C@@]1(C)C[C@H]1C	
InChI=1S/C7H14O/c1-5-4-7(5,3)6(2)8/h5-6,8H,4H2,1-3H3	InChI=1S/C7H14O/c1-5-4-7(5,3)6(2)8/h5-6,8H,4H2,1-3H3/t5-,6-,7+/m1/s1
