17
gdb 30674	4.2583	0.96912	0.81931	2.9515	70.37	-0.232	0.0131	0.2451	1342.0844	0.137685	-455.171216	-455.16274	-455.161796	-455.205264	31.22	
O	 0.095172243	 1.433129401	-0.4813527253	-0.422313
C	 0.0674207858	 0.0293128786	-0.5986053776	-0.060256
C	-1.0290645322	-0.558653461	 0.2938061938	-0.053107
O	-2.2845230616	 0.0850848699	-0.0019531693	-0.444184
C	-1.1476563918	-2.0432010216	 0.1944058666	 0.285953
C	-0.3905957373	-3.0302813483	-0.3891916393	-0.172787
N	-0.9453961661	-4.2705558114	-0.1743064833	-0.25759
C	-2.0315633063	-4.0442026581	 0.5285179425	 0.01611
N	-2.1999480721	-2.7176743281	 0.7844238363	-0.297396
H	-0.8294527596	 1.7130569445	-0.4936217727	 0.285476
H	-0.1071304511	-0.2926627255	-1.6402083632	 0.084209
H	 1.048758847	-0.3488144003	-0.294607182	 0.119323
H	-0.8234722059	-0.2494063487	 1.3266182917	 0.11111
H	-2.5753866373	-0.2465818031	-0.8612086228	 0.284853
H	 0.5278751765	-2.9192548058	-0.9454958268	 0.114241
H	-2.7306847262	-4.7915950203	 0.8732612084	 0.134068
H	-2.9670105548	-2.2778671717	 1.266367613	 0.27229
37.681	110.6377	135.4486	192.1583	293.8538	359.3615	388.1574	444.8318	492.5177	517.6391	569.1105	671.9593	685.4465	796.891	821.3362	862.299	876.0357	938.1475	1016.166	1056.6011	1072.0933	1102.8236	1113.9054	1151.686	1198.882	1226.5986	1277.804	1287.514	1306.6814	1369.8934	1392.3787	1418.5844	1429.488	1443.3015	1499.3643	1509.147	1605.3443	2953.7777	3033.081	3079.6779	3247.8941	3252.4231	3658.4972	3766.0468	3773.6106
OCC(O)C1=CN=CN1	OC[C@@H](O)c1cnc[nH]1	
InChI=1S/C5H8N2O2/c8-2-5(9)4-1-6-3-7-4/h1,3,5,8-9H,2H2,(H,6,7)	InChI=1S/C5H8N2O2/c8-2-5(9)4-1-6-3-7-4/h1,3,5,8-9H,2H2,(H,6,7)/t5-/m1/s1
