16
gdb 50332	3.20705	1.58707	1.57141	2.7661	67.16	-0.2393	-0.0315	0.2078	905.9288	0.125142	-437.832309	-437.82549	-437.824546	-437.86373	26.498	
O	-0.3384626309	 0.1037728854	 0.1891990616	-0.236155
C	-0.0783446608	 1.2755186557	 0.2203726846	 0.158511
C	 1.2998652977	 1.8928878827	 0.0076053213	-0.009678
O	 2.3603538953	 0.9526821151	-0.0047410735	-0.251621
C	 2.8524306616	 0.8975812882	-1.3401023093	 0.057851
C	 1.7391649344	 0.4844397005	-2.3259959933	-0.187864
N	 1.4109919093	 1.9322778042	-2.6143055684	-0.157428
C	 2.7019004787	 2.3192844927	-1.9314625944	-0.057671
C	 1.4140211822	 2.6645020645	-1.3133590921	-0.073452
H	-0.8612131213	 2.0440450974	 0.4238443559	 0.080832
H	 1.4491502969	 2.5983162642	 0.8419598772	 0.106758
H	 3.8066278348	 0.3743157984	-1.3389234561	 0.094331
H	 2.1266580575	 0.0457235997	-3.2486315472	 0.115347
H	 0.9277254591	-0.1255506086	-1.9252643357	 0.14128
H	 3.4351230817	 2.9954159126	-2.352684411	 0.105051
H	 0.995923314	 3.6616753673	-1.3831551096	 0.113909
96.3658	160.1362	220.5196	311.764	445.358	461.6032	653.4557	670.8093	718.0782	773.0671	790.5971	836.2913	851.0487	878.5276	909.0305	960.3611	969.8274	1003.9074	1015.0341	1043.8577	1063.3605	1120.7561	1129.888	1189.0535	1191.469	1232.9431	1263.8126	1276.8491	1300.1183	1334.0083	1346.7672	1375.7842	1422.9034	1502.6704	1845.2793	2854.6609	2975.1215	3071.2181	3137.6619	3142.3654	3186.1869	3198.6533
O=CC1OC2CN3C2C13	O=C[C@H]1O[C@H]2CN3[C@H]2[C@H]13	
InChI=1S/C6H7NO2/c8-2-4-6-5-3(9-4)1-7(5)6/h2-6H,1H2	InChI=1S/C6H7NO2/c8-2-4-6-5-3(9-4)1-7(5)6/h2-6H,1H2/t3-,4+,5+,6-,7?/m0/s1
