13
gdb 48218	1.71033	1.43623	1.43588	4.0878	66.06	-0.2704	-0.0597	0.2107	1059.6709	0.082908	-456.534296	-456.524574	-456.52363	-456.569987	32.158	
O	-0.8049234677	 0.9418235535	-0.627929557	-0.229317
C	 0.0580668285	 0.98390422	 0.2025730191	 0.157364
C	 1.2960233272	 1.903136445	 0.0758931469	-0.203191
C	 1.2464309385	 2.6441382802	-1.2814503942	 0.157405
O	 1.1525560676	 3.8359148651	-1.3656207985	-0.22932
C	 1.2838549136	 2.9389634019	 1.2250425706	 0.157391
O	 0.3938411298	 3.008679565	 2.0245900919	-0.229328
C	 2.5083809298	 1.10353483	 0.1516105014	 0.280021
C	 3.5111305158	 0.4425276722	 0.2140997013	-0.457966
H	 0.0492674026	 0.3619344862	 1.1173446657	 0.124736
H	 1.319628106	 1.9785001543	-2.1619428214	 0.124778
H	 2.1733853801	 3.5961146278	 1.2499748362	 0.12479
H	 4.3974175382	-0.1416699511	 0.2696127681	 0.222639
65.5382	66.0366	77.5634	144.9193	145.1932	217.1392	217.4021	262.6333	468.1746	468.2002	474.8644	578.8625	578.9288	653.2669	653.3205	762.0137	923.5678	976.8527	976.9712	1112.8438	1113.2474	1140.3527	1401.5199	1402.3903	1411.9049	1825.7768	1825.9839	1845.2706	2224.1793	2960.7146	2960.8452	2961.3927	3494.6473
O=CC(C=O)(C=O)C#C	O=CC(C=O)(C=O)C#C	
InChI=1S/C6H4O3/c1-2-6(3-7,4-8)5-9/h1,3-5H	InChI=1S/C6H4O3/c1-2-6(3-7,4-8)5-9/h1,3-5H
