18
gdb 47031	3.62733	1.34621	1.06978	3.2702	72.71	-0.2527	0.0241	0.2767	1108.8319	0.150461	-439.081779	-439.074433	-439.073489	-439.113927	28.514	
N	-0.0475859865	 0.7220750238	 1.2291293375	-0.512582
C	 0.0793691364	 0.0438730108	 0.1681307442	 0.390445
C	-1.0779058406	-0.2121180298	-0.7677945816	-0.316442
C	-1.1473137684	-1.6975905975	-1.134214759	 0.133823
O	-1.5635538961	-1.9493150565	-2.4969879136	-0.29183
C	-0.3732927857	-2.7221248542	-2.7626613014	-0.096269
C	 0.2343636739	-2.3379481802	-1.3987083033	-0.0814
C	 1.3170129399	-1.2665075162	-1.4101347036	-0.104033
O	 1.2784066555	-0.5125259094	-0.1906410105	-0.247819
H	 0.8507980284	 0.7846538929	 1.7138439158	 0.218261
H	-1.9883130351	 0.1572115005	-0.2970735436	 0.137924
H	-0.9264516614	 0.3508110037	-1.6964221845	 0.132305
H	-1.7733952113	-2.249385437	-0.4232569431	 0.092426
H	-0.5950860456	-3.7902488266	-2.877956477	 0.107739
H	 0.1554000308	-2.3707238215	-3.6574635976	 0.106149
H	 0.5101166057	-3.1635031313	-0.7409020582	 0.092046
H	 2.3235862122	-1.6871301969	-1.4594864666	 0.124176
H	 1.1899289379	-0.5945000747	-2.2693546741	 0.115082
84.4725	114.8268	243.1408	327.1094	374.0895	420.4165	435.4701	520.8958	576.8451	693.5191	795.3218	802.2084	847.8308	873.7404	915.3769	947.7507	983.1058	1017.4514	1020.0032	1049.5079	1060.3126	1094.9371	1120.7348	1148.9356	1178.4875	1199.456	1237.8199	1260.8727	1283.85	1304.8953	1318.7347	1362.597	1375.3714	1376.9712	1418.3993	1478.0223	1517.9226	1528.0074	1754.8552	3013.36	3019.3411	3033.8154	3050.2254	3056.2445	3095.715	3111.6789	3142.702	3457.4744
N=C1CC2OCC2CO1	[NH][C]1C[C@H]2OC[C@H]2CO1	
InChI=1S/C6H9NO2/c7-6-1-5-4(2-8-5)3-9-6/h4-5,7H,1-3H2	InChI=1S/C6H9NO2/c7-6-1-5-4(2-8-5)3-9-6/h4-5,7H,1-3H2/t4-,5+/m0/s1
