17
gdb 44957	2.60757	1.80114	1.5731	2.3546	66.86	-0.235	-0.0226	0.2125	914.7265	0.138129	-458.985304	-458.978458	-458.977513	-459.016496	27.422	
O	-0.0090249824	 0.0083580585	 0.1079539468	-0.316304
C	-0.0431641702	 1.2054340765	 0.0347594595	 0.430411
C	-1.2753134192	 2.1147440567	-0.037888618	-0.341809
C	-0.6377847988	 3.5113744657	 0.06018378	 0.05949
C	-0.341860274	 3.9267533212	 1.5032733174	-0.081453
O	 0.3914870209	 2.9077024853	 2.1740595599	-0.264068
C	 1.5519802114	 2.5044987062	 1.4520098448	-0.090549
C	 1.1639149994	 2.164977271	 0.0089727965	-0.048198
O	 0.6312351543	 3.3394022359	-0.6056965517	-0.274342
H	-1.7726897151	 1.9788470238	-1.0031879759	 0.138437
H	-1.9823073015	 1.8648882644	 0.7559526899	 0.139234
H	-1.1871494434	 4.2920750597	-0.4699067576	 0.091951
H	 0.2255588186	 4.8700438909	 1.4906130637	 0.101964
H	-1.2611189297	 4.0741613313	 2.0783896601	 0.114073
H	 2.305624238	 3.3069267395	 1.4410514233	 0.10455
H	 1.9557258875	 1.6324669874	 1.973585189	 0.129965
H	 2.0028313645	 1.7891390659	-0.5793103977	 0.106647
106.131	228.7813	278.7899	357.3759	431.4795	457.6541	477.0573	528.1621	629.1678	677.0211	796.5519	817.2699	839.7349	869.1883	899.9226	931.5159	966.3724	1008.7855	1025.4642	1074.2018	1101.2194	1132.6288	1150.1989	1163.8866	1217.4963	1246.7095	1274.959	1293.7674	1307.2417	1349.7459	1363.778	1370.4005	1408.5842	1442.8556	1478.7112	1491.8277	1869.0171	2989.4561	2994.5768	3065.5209	3086.0096	3097.8685	3099.9529	3110.4119	3124.3351
O=C1CC2COCC1O2	O=C1C[C@H]2COC[C@@H]1O2	
InChI=1S/C6H8O3/c7-5-1-4-2-8-3-6(5)9-4/h4,6H,1-3H2	InChI=1S/C6H8O3/c7-5-1-4-2-8-3-6(5)9-4/h4,6H,1-3H2/t4-,6-/m0/s1
