19
gdb 53269	1.74149	1.07689	0.70443	0.4058	94.54	-0.2209	0.042	0.2629	1654.0227	0.156313	-348.699308	-348.688464	-348.68752	-348.739217	36.54	
C	 0.2350830974	 1.5217055292	 0.0054660261	-0.49834
C	 0.1478874755	 0.0689248591	 0.0140137726	 0.071127
C	 0.0711973032	-1.1333322601	 0.0250231395	 0.090228
C	-0.0007595238	-2.5636607832	 0.0192208833	-0.192665
C	-0.461406291	-3.326290181	 1.2425973007	-0.292681
C	-1.3578024594	-3.2951494675	 0.0235719275	-0.192787
C	-2.5919759405	-2.5687103169	 0.0343347826	 0.09027
C	-3.6380604322	-1.9711591982	 0.0284368989	 0.071129
C	-4.8974909103	-1.2417707695	 0.0258155047	-0.498428
H	 1.2640051803	 1.8569848759	-0.1673680107	 0.146099
H	-0.3907094234	 1.9568421269	-0.781972959	 0.146248
H	-0.0927707674	 1.9460087258	 0.9611800716	 0.145951
H	 0.7594309089	-3.057550841	-0.5799452562	 0.111364
H	 0.0412673494	-4.257107045	 1.4802305944	 0.11817
H	-0.7758463966	-2.7382933001	 2.0957626655	 0.134537
H	-1.3662150137	-4.2031677882	-0.5732857518	 0.111348
H	-5.401243652	-1.3197582376	-0.94425479	 0.146129
H	-5.58644317	-1.6235952614	 0.7878934065	 0.144615
H	-4.7373839246	-0.1768773372	 0.2286098638	 0.147686
7.271	27.1471	48.8708	107.3563	134.6133	150.2326	244.5194	288.4187	319.9308	339.3393	436.5841	475.1997	532.0538	591.3444	678.1054	725.6059	818.5235	896.2319	903.5822	1026.228	1051.2901	1052.0298	1052.7734	1054.4342	1059.6503	1075.2994	1117.3952	1165.829	1196.513	1247.8066	1386.2641	1395.0761	1413.5211	1416.5795	1477.2254	1477.5934	1478.0283	1479.3224	1480.0047	2370.0496	2372.6168	3023.5571	3023.9593	3081.9292	3082.7615	3084.096	3085.0712	3134.3857	3140.527	3145.8884	3241.0344
CC#CC1CC1C#CC	CC#C[C@H]1C[C@H]1C#CC	
InChI=1S/C9H10/c1-3-5-8-7-9(8)6-4-2/h8-9H,7H2,1-2H3	InChI=1S/C9H10/c1-3-5-8-7-9(8)6-4-2/h8-9H,7H2,1-2H3/t8-,9+
