21
gdb 121514	7.79552	0.38411	0.37025	0.2698	109.06	-0.2245	0.0027	0.2272	2974.4899	0.179814	-349.929175	-349.91773	-349.916786	-349.969332	38.664	
C	-0.0660338214	 1.565584261	 0.0932240692	-0.387376
C	-0.0069734775	 0.0376948693	 0.0179373472	-0.159485
C	 0.707533244	-0.4700658468	-1.2379182448	-0.152353
C	 0.7621825649	-2.0112512212	-1.3051253646	-0.396075
C	 1.4376708008	-2.5132710499	-2.4919795031	 0.200007
C	 2.0036541143	-2.9091889021	-3.4869045092	-0.102538
C	 2.6388635635	-3.3568122346	-4.6034578753	-0.215316
C	 3.204144558	-3.7547815508	-5.5971010674	 0.249698
C	 3.8821563521	-4.2326089435	-6.7888916285	-0.518046
H	 0.9394614296	 2.0004997626	 0.1012237488	 0.116651
H	-0.5993485342	 1.9838251708	-0.7675233994	 0.116651
H	-0.5809967208	 1.9003765085	 0.9989507332	 0.113352
H	 0.5018429625	-0.354787805	 0.9085290851	 0.096599
H	-1.0257898301	-0.371341977	 0.0460907435	 0.096599
H	 0.2020483324	-0.0926833181	-2.13474767	 0.109
H	 1.7302149975	-0.0761173862	-1.2720098929	 0.109
H	 1.2664749376	-2.396125223	-0.4077991118	 0.130972
H	-0.2601853208	-2.4126751679	-1.2696849484	 0.130972
H	 3.9101921345	-5.3279347571	-6.8176766058	 0.154055
H	 3.3762195367	-3.8897440642	-7.6987335888	 0.153817
H	 4.9168260664	-3.8731695548	-6.828925047	 0.153817
6.3286	45.4658	58.5961	108.9785	121.8266	132.1854	236.1206	241.3112	262.8656	309.1595	363.162	386.1367	473.6567	555.9579	557.7713	629.4889	734.0411	790.0578	904.5937	931.1582	954.6466	1012.9732	1048.7199	1048.9137	1060.115	1120.4203	1127.31	1239.7913	1266.7226	1294.6969	1309.5505	1327.7683	1359.2973	1393.0153	1412.9096	1414.5329	1468.3757	1472.9338	1473.0588	1485.7545	1497.4333	1499.8378	1511.7351	2277.854	2386.5427	3003.7403	3011.7808	3021.4932	3029.6186	3030.7132	3035.4016	3039.0205	3077.6534	3082.578	3082.5868	3098.198	3102.9685	6.2098	45.4598	58.5961	108.9773	121.8279	132.1843	236.1223	241.3119	262.8693	309.1642	363.1661	386.1389	473.6586	555.968	557.7732	629.4889	734.0409	790.0574	904.5937	931.1576	954.6468	1012.9732	1048.7228	1048.9166	1060.1148	1120.42	1127.3084	1239.79	1266.7213	1294.6965	1309.5485	1327.7668	1359.2964	1393.0145	1412.9104	1414.533	1468.3732	1472.9361	1473.0613	1485.7532	1497.4322	1499.8375	1511.7341	2277.8545	2386.5427	3003.7404	3011.7808	3021.4929	3029.6187	3030.7133	3035.4017	3039.0206	3077.6535	3082.5778	3082.5866	3098.198	3102.9685
CCCCC#CC#CC	CCCCC#CC#CC	
InChI=1S/C9H12/c1-3-5-7-9-8-6-4-2/h3,5,7H2,1-2H3	InChI=1S/C9H12/c1-3-5-7-9-8-6-4-2/h3,5,7H2,1-2H3
