19
gdb 31573	3.22504	1.14907	0.86086	1.9956	80.63	-0.1866	0.0562	0.2428	1366.1296	0.158697	-419.259256	-419.249414	-419.24847	-419.294059	34.837	
C	-0.0013547687	 1.3504941927	-0.0636087447	-0.232661
O	-0.0395724977	-0.0766808078	-0.0422904152	-0.273144
C	-1.2721705228	-0.6007764659	-0.0100552449	 0.473782
N	-2.4152461209	 0.0255773069	 0.0032873559	-0.421768
C	-3.3759393136	-0.9854860835	 0.0374177667	 0.194544
C	-4.8289639101	-0.6405061907	 0.0609920956	-0.489607
C	-2.7803416539	-2.2177702902	 0.0438942072	 0.232234
C	-3.3079666734	-3.6108185775	 0.0749987316	-0.508187
N	-1.4079564091	-1.9521248328	 0.0125375851	-0.396749
H	 1.0554192231	 1.6189698247	-0.0888033662	 0.126639
H	-0.5162856301	 1.7389533385	-0.9471801568	 0.138624
H	-0.480419953	 1.7644933315	 0.8285062784	 0.138578
H	-5.1097775575	-0.056634335	-0.8229705692	 0.128155
H	-5.4557074731	-1.5359273052	 0.0868709046	 0.11223
H	-5.0747541317	-0.0301062813	 0.9373959463	 0.128162
H	-3.0038916002	-4.1907351939	-0.8062516366	 0.124693
H	-2.9701352661	-4.1642082878	 0.9609870587	 0.12469
H	-4.3997030568	-3.5977929924	 0.0955740199	 0.139354
H	-0.6562061744	-2.6198829103	 0.0082871337	 0.26043
85.9179	106.8292	141.1036	143.477	192.5583	207.4659	228.8477	264.1583	345.1194	366.9786	450.6938	523.0481	631.3604	652.1521	662.4315	728.2953	794.87	981.9577	994.6853	1032.1331	1060.3458	1066.2405	1098.1852	1177.1064	1183.3447	1213.8635	1228.7531	1292.4363	1395.4559	1422.2408	1426.0983	1462.5732	1473.5064	1476.1794	1479.1134	1489.2082	1496.918	1500.8882	1515.6956	1625.4628	1661.3106	3010.2359	3029.1322	3041.1177	3050.5804	3078.4506	3111.4112	3112.9271	3125.6693	3149.3528	3672.154
COC1=NC(C)=C(C)N1	COc1nc(C)c(C)[nH]1	
InChI=1S/C6H10N2O/c1-4-5(2)8-6(7-4)9-3/h1-3H3,(H,7,8)	InChI=1S/C6H10N2O/c1-4-5(2)8-6(7-4)9-3/h1-3H3,(H,7,8)
