19
gdb 37265	3.57654	1.91253	1.83017	0.1679	79.55	-0.2392	0.0956	0.3348	843.7334	0.163366	-348.691482	-348.685773	-348.684829	-348.721043	26.15	
C	-0.0218894372	 1.5326025585	 0.1288827199	-0.298166
C	 1.3000392002	 0.8112860052	 0.0247521982	-0.047342
C	-0.0063223334	 0.0261691817	 0.0337222015	-0.047342
C	-0.0745885486	-0.6359616624	-1.3438074724	-0.029343
C	-0.1957078521	 0.2962121881	-2.5636341418	-0.079833
C	 1.1242144681	 1.0895138142	-2.572682112	-0.079837
C	 1.0329677706	-0.2610237551	-3.2381544725	-0.120783
C	 1.3993777201	-0.8546935827	-1.8359823785	-0.068233
C	 1.9028365361	 0.5524779693	-1.3573892601	-0.029339
H	-0.2727857369	 1.9611093799	 1.0943599082	 0.101946
H	-0.3739805779	 2.1087665475	-0.7188701354	 0.115278
H	 1.9588095549	 0.8151399483	 0.886760373	 0.075417
H	-0.3101516644	-0.5484898055	 0.9023456015	 0.075418
H	-0.7211497263	-1.5130785528	-1.4008331077	 0.059789
H	-1.0921342233	 0.6958170584	-3.0208436402	 0.08109
H	 1.1873539331	 2.0658441859	-3.0364681013	 0.08109
H	 1.2126411648	-0.5715743158	-4.2560285622	 0.087443
H	 1.9506327338	-1.7695263815	-1.626486281	 0.062957
H	 2.9801576882	 0.7114247087	-1.4262604773	 0.05979
278.2347	288.7386	511.0639	518.5048	642.0093	651.8816	759.1926	760.6859	788.6428	793.7226	814.4809	820.96	838.9673	879.6031	903.5063	905.9554	944.5446	948.0086	982.0881	994.4857	1024.7247	1033.7226	1041.6463	1046.2102	1064.8168	1081.163	1103.0137	1106.5065	1122.4608	1169.9823	1172.5401	1196.9379	1213.2004	1249.2545	1264.7259	1300.94	1320.8164	1339.7379	1361.1461	1381.9846	1480.6472	3098.0761	3099.0334	3128.7986	3132.4305	3154.8389	3164.1592	3186.7548	3194.7582	3215.8264	3233.0524
C1C2C1C1C3C4C3C1C24	C1[C@H]2[C@@H]1[C@H]1[C@H]3[C@@H]4[C@H]3[C@H]1[C@H]24	
InChI=1S/C9H10/c1-2-3(1)5-6-4(2)7-8(5)9(6)7/h2-9H,1H2	InChI=1S/C9H10/c1-2-3(1)5-6-4(2)7-8(5)9(6)7/h2-9H,1H2/t2-,3+,4-,5+,6-,7+,8-,9+
