16
gdb 84824	3.07955	1.18633	0.93952	3.0866	66.64	-0.2749	-0.0099	0.265	1215.4086	0.123743	-475.061693	-475.053285	-475.052341	-475.095834	29.529	
C	 0.0607173137	 1.5463483597	-0.003599954	-0.389937
C	 0.1072792619	 0.022285958	 0.0293410264	-0.014039
N	 0.7066425386	-0.5467801722	-1.1953138961	-0.254815
C	 1.5223144431	-1.4283855542	-0.8069672456	 0.10929
O	 1.6814156139	-1.6468129409	 0.5355052783	-0.219721
C	 0.9470281857	-0.6028710894	 1.1763287718	 0.17664
O	 1.8594143925	 0.3387762167	 1.707673207	-0.181403
C	 2.3759548914	 0.0821350766	 2.9358461219	 0.180165
O	 3.2008838753	 0.7780556899	 3.4385019685	-0.260847
H	 1.0636915727	 1.9658361547	-0.0970634737	 0.145657
H	-0.5354578727	 1.8658812616	-0.8612297894	 0.134067
H	-0.3961917434	 1.9439664993	 0.9070893861	 0.120795
H	-0.9159443124	-0.3673130185	 0.1015204764	 0.104821
H	 2.1301894474	-2.0667661031	-1.4368133482	 0.152432
H	 0.3617827855	-1.0504192094	 1.98406161	 0.106695
H	 1.9386606169	-0.8197004387	 3.4042616407	 0.0902
50.8172	86.1373	138.8717	180.2126	227.8802	298.2477	333.9063	439.7696	474.87	589.5714	659.0158	771.8735	842.565	882.5632	946.4214	955.0162	989.1674	1017.8913	1042.3345	1054.2261	1105.1378	1135.381	1154.4953	1172.4793	1298.1672	1315.2368	1347.3178	1357.2382	1386.8075	1411.5493	1442.2272	1486.9627	1495.8074	1714.6305	1880.286	2963.1586	3027.6985	3055.974	3079.5676	3128.2869	3147.9379	3229.2348
CC1N=COC1OC=O	C[C@H]1[N][CH]O[C@H]1OC=O	
InChI=1S/C5H7NO3/c1-4-5(9-3-7)8-2-6-4/h2-5H,1H3	InChI=1S/C5H7NO3/c1-4-5(9-3-7)8-2-6-4/h2-5H,1H3/t4-,5+/m1/s1
