18
gdb 67526	2.42269	1.7809	1.49607	4.0208	75.35	-0.219	-0.0127	0.2063	972.3402	0.147182	-401.9005	-401.892658	-401.891714	-401.93258	30.83	
C	-0.0259072695	 1.5598074706	-0.0229572882	-0.496641
C	-0.0019880962	 0.0494146624	 0.0363499118	 0.219413
C	-1.3329922435	-0.6557315606	 0.4119866217	-0.097788
N	-1.1314139713	-2.1182800042	 0.2793186795	-0.340769
C	-0.6703897969	-1.4188726956	 1.5028705055	-0.048289
C	 0.7029196237	-0.7865467236	 1.1746487517	-0.097481
C	 1.5945568681	-1.5175139721	 0.1307064977	-0.362989
C	 0.8784707974	-0.7220032234	-0.9838711144	 0.388883
O	 1.0162034118	-0.6441486711	-2.1688882429	-0.308931
H	 0.9868623196	 1.9745928399	-0.0477230298	 0.124028
H	-0.545822572	 1.8979964265	-0.9260453063	 0.136848
H	-0.5438987215	 1.9816555637	 0.8455690052	 0.118597
H	-2.3240351815	-0.222390776	 0.3435794483	 0.094751
H	-2.0186943322	-2.5684146613	 0.4993150049	 0.234335
H	-1.0406242236	-1.7127824316	 2.4774634989	 0.09562
H	 1.1964543921	-0.2761083725	 2.0001076945	 0.077802
H	 2.6556218597	-1.256133074	 0.1986913628	 0.122362
H	 1.4909343061	-2.6011518872	 0.056872719	 0.140249
97.9375	189.4678	202.177	252.244	266.655	336.9762	449.7358	491.3987	557.454	621.5228	678.9501	761.0784	783.4428	815.9965	830.4452	869.9951	888.3033	931.6016	969.2285	993.2459	1015.1748	1026.9551	1066.6218	1096.0009	1100.831	1136.8429	1164.0065	1178.798	1218.6677	1241.0541	1272.5821	1312.1273	1325.373	1371.693	1407.2599	1423.4039	1489.3858	1490.1636	1889.6257	3026.9356	3059.9971	3094.1141	3100.5428	3126.8264	3133.4694	3176.0807	3190.4823	3482.5513
CC12C3NC3C1CC2=O	C[C@]12[C@H]3N[C@H]3[C@H]1CC2=O	
InChI=1S/C7H9NO/c1-7-3(2-4(7)9)5-6(7)8-5/h3,5-6,8H,2H2,1H3	InChI=1S/C7H9NO/c1-7-3(2-4(7)9)5-6(7)8-5/h3,5-6,8H,2H2,1H3/t3-,5+,6+,7+/m1/s1
