17
gdb 91845	3.80555	1.20685	1.10349	3.8181	73.65	-0.2277	-0.0002	0.2275	1125.6678	0.136413	-417.99178	-417.983677	-417.982733	-418.024459	30.267	
C	 0.8224297216	 1.3648439718	 0.0828950076	-0.334972
N	 0.0012173451	 0.16747002	-0.0840615672	-0.070695
C	 0.3580445909	-0.6570260074	-1.2461292655	-0.208063
C	 1.1277701892	-1.8459136725	-0.6951343483	-0.022576
O	 2.1476985329	-1.4762258455	 0.2373126248	-0.272911
C	 0.8751175653	-1.8841302849	 0.7574162931	 0.292375
C	-0.0419158208	-0.7063703142	 1.0910113589	-0.259044
C	 0.8409054624	-3.0936359631	 1.5396788386	 0.219458
N	 0.7782242576	-4.0426524692	 2.1967817778	-0.328899
H	 1.888809213	 1.1538382856	 0.2549359627	 0.121649
H	 0.7295379993	 1.9902400336	-0.8100946539	 0.123386
H	 0.4408818784	 1.9475565847	 0.9266303246	 0.124585
H	-0.5370090244	-1.0295255481	-1.7652402382	 0.11622
H	 0.94373617	-0.0777924506	-1.965446479	 0.123775
H	 1.3169781526	-2.740674896	-1.2820433324	 0.122209
H	 0.28006345	-0.1727917787	 1.9889154183	 0.129846
H	-1.0534959131	-1.0956027456	 1.272245508	 0.123658
103.8517	134.5551	164.7348	187.6034	311.0688	364.532	398.3838	416.8577	504.866	546.7683	582.0479	684.1597	715.5627	853.0979	888.4126	897.6993	961.0029	991.2703	1021.592	1049.6946	1073.1474	1148.5336	1159.4426	1187.0995	1201.7898	1256.216	1284.2002	1318.6191	1336.1365	1355.8091	1430.2797	1462.9689	1486.7458	1491.0599	1499.0269	1514.0068	2358.583	2988.1526	3003.7984	3012.6151	3074.843	3089.6833	3097.7612	3108.919	3161.2566
CN1CC2OC2(C1)C#N	CN1C[C@H]2O[C@]2(C1)C#N	
InChI=1S/C6H8N2O/c1-8-2-5-6(3-7,4-8)9-5/h5H,2,4H2,1H3	InChI=1S/C6H8N2O/c1-8-2-5-6(3-7,4-8)9-5/h5H,2,4H2,1H3/t5-,6+/m1/s1
