23
gdb 91322	2.49968	1.45975	1.19351	1.6417	85.14	-0.2337	0.075	0.3087	1184.3702	0.204597	-388.270126	-388.260772	-388.259828	-388.30372	36.67	
C	-1.1141856111	 0.9514788968	 0.1640485866	-0.420037
C	-0.1307272934	-0.2096889119	 0.0872534808	 0.030115
C	 1.1094353333	-0.1498314448	-0.8618802594	-0.272958
C	 1.969276288	-0.7961088489	 0.2574905446	 0.128709
O	 2.7872037168	 0.1455007708	 0.9665293943	-0.339297
C	 1.7640509724	 0.331088941	 1.9995413614	 0.408794
C	 2.2609917748	-0.2698262122	 3.3125559703	-0.415538
C	 1.4263915253	 1.8060171288	 2.1706528526	-0.433307
C	 0.7947749613	-0.6481683454	 1.2626057317	-0.15054
H	-0.622428947	 1.9145024272	 0.3145368376	 0.118638
H	-1.6884108663	 1.0200752112	-0.7668875351	 0.113995
H	-1.830646787	 0.8102435951	 0.9814157161	 0.112893
H	-0.7028873347	-1.1085020047	-0.173044823	 0.078546
H	 1.0139504941	-0.7136869695	-1.7935274732	 0.095179
H	 1.4610410361	 0.8590645012	-1.0933694826	 0.106635
H	 2.4935925143	-1.7287932156	 0.0328823758	 0.070412
H	 3.1613142846	 0.2546230336	 3.6479239448	 0.119925
H	 1.497207386	-0.1834534421	 4.0937550177	 0.110146
H	 2.5089926088	-1.3277616685	 3.1875402634	 0.116398
H	 0.549140478	 1.938527453	 2.812121078	 0.114567
H	 2.2702223757	 2.3231386945	 2.6401910702	 0.118351
H	 1.2377707395	 2.2879499946	 1.2107838184	 0.124259
H	 0.4194966106	-1.4557752742	 1.8929392188	 0.064116
66.5805	162.1965	198.0242	213.155	246.846	271.518	314.0868	346.3465	361.4119	390.3522	454.2262	546.5789	601.5713	655.99	769.4267	829.136	847.7807	869.2403	915.9176	924.4975	933.2107	951.4314	984.5118	1008.6671	1022.0645	1068.6305	1114.9951	1129.299	1155.197	1176.3861	1186.286	1213.7121	1224.4837	1253.4889	1277.406	1300.531	1321.6251	1350.2808	1380.7278	1397.18	1409.5571	1413.2412	1470.2932	1476.5362	1481.2697	1489.6846	1494.2209	1500.9455	1512.9302	3020.4882	3029.4277	3032.5926	3039.7249	3055.6241	3067.4786	3087.0925	3092.8736	3098.9019	3104.9688	3113.0242	3114.3199	3125.2259	3142.2841
CC1CC2OC(C)(C)C12	C[C@H]1C[C@H]2OC(C)(C)[C@@H]12	
InChI=1S/C8H14O/c1-5-4-6-7(5)8(2,3)9-6/h5-7H,4H2,1-3H3	InChI=1S/C8H14O/c1-5-4-6-7(5)8(2,3)9-6/h5-7H,4H2,1-3H3/t5-,6+,7-/m0/s1
