15
gdb 60887	2.51307	1.37859	1.14234	3.0916	63.33	-0.2695	-0.0555	0.214	1086.0973	0.108615	-494.8829	-494.873979	-494.873035	-494.91727	31.298	
O	 0.1190613904	 1.5401259047	 0.0185432116	-0.432161
C	 0.1128810187	 0.1422173018	 0.0315164411	-0.028902
C	 0.686101798	-0.3984235876	-1.2742592928	 0.137865
O	 0.8783973211	 0.3337227004	-2.212124667	-0.266862
C	 0.833406908	-0.3744816133	 1.2686142246	 0.281406
C	 0.1668272289	-0.2786618214	 2.5810810303	-0.216807
O	 0.2768511405	-1.5312962041	 1.9221304468	-0.263993
C	 2.3304026345	-0.4110956546	 1.2461947195	 0.128169
O	 2.986011176	-0.1176901401	 0.2798506694	-0.242697
H	 0.427112192	 1.7852722588	-0.8703856786	 0.302708
H	-0.9161879888	-0.259461794	 0.0918898175	 0.109178
H	 0.8495871101	-1.491818358	-1.3300306933	 0.11325
H	 0.7636982879	-0.1690515649	 3.4851263717	 0.132775
H	-0.8285497816	 0.1594124134	 2.6123931811	 0.144914
H	 2.7904214943	-0.7713682313	 2.190624928	 0.101156
43.8896	117.6619	132.1744	177.2464	201.0049	291.3258	332.2295	361.4249	408.1022	475.4867	512.2537	536.1168	722.7142	819.786	858.5116	889.238	907.5776	966.1835	1022.5973	1041.6539	1131.1881	1156.0056	1163.7343	1242.349	1310.4015	1320.2469	1352.3262	1388.851	1419.8265	1456.1468	1520.0974	1814.0157	1827.2609	2916.5931	2937.8648	2956.7428	3093.0005	3187.4775	3665.0192
OC(C=O)C1(CO1)C=O	O[C@@H](C=O)[C@]1(CO1)C=O	
InChI=1S/C5H6O4/c6-1-4(8)5(2-7)3-9-5/h1-2,4,8H,3H2	InChI=1S/C5H6O4/c6-1-4(8)5(2-7)3-9-5/h1-2,4,8H,3H2/t4-,5+/m0/s1
