21
gdb 110880	2.61119	1.32276	1.14468	0.7884	78.39	-0.2439	0.0873	0.3312	1205.8219	0.181885	-424.215286	-424.206298	-424.205354	-424.249375	33.902	
C	 0.1434852454	 1.3004627701	-0.3133002499	-0.374146
C	 0.0263526802	-0.0643346762	 0.3743090948	-0.204074
C	-1.3594371524	-0.6595574552	 0.2591860443	-0.065439
C	-1.8947040173	-1.2589564125	-1.0287394785	 0.032336
O	-0.9395723856	-1.5970874617	-2.0097670806	-0.268471
C	-0.4773083608	-2.8980842721	-1.659590472	 0.233444
C	 0.9248419208	-3.1265880375	-2.1690908656	-0.411496
O	-0.5180809244	-2.9523900469	-0.2361985996	-0.268751
C	-1.6152649721	-2.1519853349	 0.1422459303	 0.016847
H	 1.1450268796	 1.7224384951	-0.1823828463	 0.108608
H	-0.0487402062	 1.207265866	-1.3864033828	 0.129754
H	-0.5761064439	 2.0184279979	 0.0959030892	 0.108311
H	 0.7534911162	-0.7601646005	-0.050298311	 0.116343
H	 0.277562493	 0.0289002292	 1.4381785841	 0.096119
H	-2.1278002277	-0.1394914019	 0.8304803193	 0.085478
H	-2.8838049744	-1.0269361463	-1.4097567255	 0.098333
H	-1.1796593818	-3.648526608	-2.0652563409	 0.069274
H	 1.6017263432	-2.3695397684	-1.7666006127	 0.135474
H	 1.2725952608	-4.116930684	-1.8647511235	 0.131136
H	 0.9348215868	-3.0704035282	-3.2605071665	 0.130771
H	-2.3713531793	-2.6582342241	 0.7332713433	 0.10015
50.3386	115.008	141.3743	206.7365	220.3996	277.1477	297.8967	326.5549	506.0529	547.0024	593.7222	696.5714	750.5438	758.9782	784.3029	800.9176	853.1481	882.9531	903.5256	981.1986	1036.7448	1044.0267	1068.3175	1088.7994	1109.2906	1117.5831	1125.6983	1131.3934	1160.0846	1165.1235	1216.4072	1285.5751	1304.5313	1330.9171	1373.6137	1373.8992	1396.0173	1408.4379	1428.4703	1434.1657	1480.6879	1485.3691	1488.765	1499.5501	1507.871	2940.2306	3032.0741	3033.6281	3056.3298	3088.7861	3105.3731	3112.0466	3120.0306	3134.9321	3140.3495	3154.0755	3164.7085
CCC1C2OC(C)OC12	CC[C@H]1[C@H]2O[C@@H](C)O[C@@H]12	
InChI=1S/C7H12O2/c1-3-5-6-7(5)9-4(2)8-6/h4-7H,3H2,1-2H3	InChI=1S/C7H12O2/c1-3-5-6-7(5)9-4(2)8-6/h4-7H,3H2,1-2H3/t4-,5+,6-,7+
