15
gdb 128006	3.9166	1.20672	0.94007	1.7656	76.25	-0.2551	-0.1072	0.1478	1217.9757	0.109521	-450.078222	-450.069378	-450.068434	-450.112569	30.791	
C	 0.0821578563	 1.4505245417	 0.0017036685	-0.327553
N	 0.2348719595	 0.009085744	 0.0893432336	-0.287894
C	 0.6946254306	-0.6324924384	-0.8915787916	 0.458825
O	 1.1394908804	 0.0030285535	-2.0445263451	-0.275762
N	 1.2197386552	-0.7506159876	-3.2790007246	 0.060866
N	 1.16370481	-1.9715843125	-3.2130936205	-0.13287
C	 1.0630331225	-2.6313000489	-1.9390339015	 0.361756
C	 1.2439965984	-4.1086201157	-2.0199955709	-0.459475
N	 0.8223533393	-2.0189312452	-0.8484041373	-0.270991
H	 1.0163046029	 1.9457667874	 0.2969263685	 0.136107
H	-0.1771145303	 1.8056730035	-1.002678103	 0.128266
H	-0.691103574	 1.7631587972	 0.707749431	 0.1301
H	 2.2176593713	-4.3436048983	-2.463612611	 0.157961
H	 1.1702756215	-4.5488130695	-1.0263900839	 0.16042
H	 0.4847245365	-4.5421723309	-2.679862042	 0.160245
48.7184	93.5815	125.2372	154.9961	209.6056	308.234	327.4563	363.9783	465.479	507.0245	534.2413	640.8698	689.7964	758.9935	779.8735	852.0853	950.6318	1018.281	1056.6369	1071.2609	1118.3753	1140.3758	1227.7648	1258.05	1408.5648	1438.2223	1464.6274	1468.2802	1484.8104	1499.0643	1621.3955	1719.01	1765.0907	3013.3524	3044.0991	3069.0746	3099.8607	3108.5398	3168.6906
CN=C1ON=NC(C)=N1	C[N]C1=NC(=N[N]O1)C	
InChI=1S/C4H6N4O/c1-3-6-4(5-2)9-8-7-3/h1-2H3	InChI=1S/C4H6N4O/c1-3-6-4(5-2)9-8-7-3/h1-2H3
