21
gdb 90150	3.18861	1.45897	1.29575	1.2379	81.21	-0.2108	0.0798	0.2907	1086.5167	0.1838	-387.053889	-387.045943	-387.044999	-387.085845	32.179	
C	-0.1831289608	 1.5420139892	 0.0481821514	-0.407913
C	 0.0635364273	 0.0412082256	-0.0085212638	-0.032115
C	 1.1801233679	-0.5327692836	-0.9609910979	-0.315688
C	 1.8075726596	-1.2788056831	 0.2369621408	 0.215296
C	 2.2344060103	-0.2968647924	 1.3122572554	-0.401798
C	 0.7853804513	-0.6541331589	 1.1568130076	 0.375013
O	 0.1988243075	-1.5957129774	 2.0004268559	-0.296909
C	 0.9981669249	-2.7898030545	 1.9187449622	-0.097629
C	 1.7662960161	-2.7568679243	 0.5561908935	-0.32106
H	 0.7420040133	 2.093100343	 0.24834342	 0.113454
H	-0.5871365062	 1.9086574199	-0.9019474853	 0.111819
H	-0.8992659364	 1.7939699905	 0.8376283132	 0.12113
H	-0.876054761	-0.4879215519	-0.1921637965	 0.083517
H	 0.786237955	-1.1971622608	-1.733320881	 0.102697
H	 1.8289785862	 0.2085615489	-1.4395552734	 0.096295
H	 2.7291865444	-0.714093126	 2.1821527225	 0.118445
H	 2.6061461183	 0.6818906982	 1.0216735357	 0.110183
H	 1.7079421743	-2.816736977	 2.7566939554	 0.102159
H	 0.3293037536	-3.6495035218	 2.0199845727	 0.111022
H	 1.1971276406	-3.2814734879	-0.2186676027	 0.106971
H	 2.7379308238	-3.2531708756	 0.6456267742	 0.10511
134.3477	184.2006	215.5549	226.7985	300.8149	332.8865	428.5559	446.4917	557.3087	620.1428	638.0337	724.6952	776.6277	818.3988	848.856	852.8095	890.8475	906.9034	924.3509	944.6223	994.7609	1015.0176	1033.3879	1060.5542	1077.3935	1100.9422	1162.0632	1175.9582	1207.4382	1216.8279	1231.9083	1244.2864	1264.9802	1287.4186	1328.195	1365.7845	1372.7968	1394.926	1412.9292	1472.5425	1486.5193	1494.4917	1496.0881	1499.7671	1524.9591	3008.9287	3027.9532	3041.2113	3044.0672	3063.1869	3076.5238	3090.3803	3094.8799	3098.7148	3107.7795	3118.6237	3211.648
CC1CC23CC12OCC3	C[C@H]1C[C@@]23C[C@@]12OCC3	
InChI=1S/C8H12O/c1-6-4-7-2-3-9-8(6,7)5-7/h6H,2-5H2,1H3	InChI=1S/C8H12O/c1-6-4-7-2-3-9-8(6,7)5-7/h6H,2-5H2,1H3/t6-,7-,8+/m0/s1
