22
gdb 68930	2.28573	1.72215	1.19942	2.1254	82.	-0.2323	0.0742	0.3065	1129.6936	0.19515	-404.339727	-404.330875	-404.329931	-404.372518	34.99	
C	-0.0574377723	 1.5468673003	-0.0776867734	-0.478477
C	 0.0593127624	 0.0390917046	 0.003047142	 0.282056
C	 0.1196154486	-0.6426711518	-1.3574674168	-0.241654
C	 0.4309622686	-2.1325018869	-1.2308969594	-0.093778
O	 1.6085329026	-2.3193615629	-0.4635973121	-0.249932
C	 1.4239329678	-1.9901107124	 0.8983226457	-0.118318
C	 0.7269333668	-0.6470968065	 1.1535910988	 0.255789
C	 1.3128380745	 0.1068761792	 2.329856547	-0.485421
N	-0.7486587574	-0.700536415	 0.9979582493	-0.407785
H	 0.8031342865	 1.9796748656	-0.5998006168	 0.12459
H	-0.9556657281	 1.8229225001	-0.6428832147	 0.122817
H	-0.1261381453	 2.0192428148	 0.9050778097	 0.112454
H	-0.8334700812	-0.4976721043	-1.8827742492	 0.094029
H	 0.903127165	-0.1653154599	-1.958736547	 0.099425
H	-0.4180830905	-2.6611915774	-0.7740527427	 0.107227
H	 0.6283476471	-2.5734711146	-2.2121310303	 0.099871
H	 0.8451993911	-2.7768335495	 1.4103082264	 0.093783
H	 2.4291003979	-1.9723539081	 1.3316352884	 0.099631
H	 2.3495252557	 0.4027234649	 2.134554091	 0.127284
H	 0.7451937645	 1.0074685348	 2.5756194943	 0.113841
H	 1.3162828102	-0.5315599624	 3.2219182855	 0.125641
H	-1.1838739946	-0.0427743527	 1.6423452144	 0.216929
134.3872	171.5255	180.5055	198.0434	294.6475	320.8989	342.9804	359.1304	407.9083	437.2964	484.0332	546.0712	612.5845	655.1359	709.881	861.9812	879.0742	897.2496	950.1105	982.9661	991.6923	1013.3519	1019.5356	1050.6799	1074.9592	1122.6215	1138.0641	1144.2707	1182.9275	1251.8899	1263.5215	1286.3387	1299.8563	1331.1721	1378.3357	1395.6179	1410.2501	1419.6167	1423.8056	1440.8791	1472.1419	1482.4162	1487.9687	1488.6476	1499.1681	1503.1842	1514.9341	2966.2575	3005.7415	3018.9132	3025.3612	3030.8036	3061.727	3071.0391	3083.3507	3085.9936	3088.6025	3109.4008	3123.4817	3475.9275
CC12CCOCC1(C)N2	C[C@@]12CCOC[C@]1(C)N2	
InChI=1S/C7H13NO/c1-6-3-4-9-5-7(6,2)8-6/h8H,3-5H2,1-2H3	InChI=1S/C7H13NO/c1-6-3-4-9-5-7(6,2)8-6/h8H,3-5H2,1-2H3/t6-,7+/m1/s1
