18
gdb 65968	2.34504	1.45999	1.30175	2.7628	72.76	-0.2379	-0.0341	0.2038	1076.2843	0.145293	-439.044883	-439.035943	-439.034999	-439.078721	32.883	
C	-0.281710113	 1.6070265187	 0.085743848	-0.443224
C	 0.0552797179	 0.1285990775	 0.0407398005	 0.1163
N	 1.3011700357	-0.2173776362	-0.7205798971	-0.356306
C	 1.8073831239	-1.1028786512	 0.3642659627	-0.259315
C	 0.7263122895	-0.525949473	 1.2723605964	 0.399171
C	 0.7702183717	-0.0733494201	 2.6592301116	-0.257602
O	 0.0372098092	-1.2485506713	 2.2680814378	-0.262534
C	-1.1190427995	-0.7238366136	-0.4212144804	 0.14143
O	-2.2135726004	-0.3009737536	-0.6865640602	-0.248582
H	 0.5881700005	 2.1813603861	 0.4120079185	 0.118267
H	-0.5834054914	 1.9605412147	-0.9040403557	 0.131795
H	-1.1178404428	 1.7903121467	 0.766790914	 0.131767
H	 1.1401481965	-0.6809085631	-1.6100520612	 0.225825
H	 1.6687397685	-2.1788370385	 0.1987728312	 0.116755
H	 2.8521484481	-0.9168179831	 0.6342844894	 0.117308
H	 1.6621792958	-0.2603460131	 3.2553877351	 0.1243
H	 0.1604047023	 0.7698666228	 2.9778436998	 0.128071
H	-0.8725874224	-1.8046456497	-0.5386576605	 0.076575
61.5389	104.0949	173.4417	194.5223	240.5877	276.2915	303.7117	358.0504	428.8701	474.9219	520.6366	570.6932	697.2078	758.4742	854.8959	875.0689	918.8416	931.2002	953.9224	1000.5602	1008.5532	1061.2019	1120.6193	1131.2237	1144.191	1159.5881	1167.7183	1199.3906	1268.6309	1301.0645	1371.4869	1404.4156	1429.7948	1440.5016	1482.3935	1485.7359	1507.214	1535.4276	1826.7414	2864.8672	3019.8026	3049.0417	3069.6764	3087.6088	3120.4487	3133.2356	3177.6895	3510.5143
CC1(NCC11CO1)C=O	C[C@]1(NC[C@]21CO2)C=O	
InChI=1S/C6H9NO2/c1-5(3-8)6(2-7-5)4-9-6/h3,7H,2,4H2,1H3	InChI=1S/C6H9NO2/c1-5(3-8)6(2-7-5)4-9-6/h3,7H,2,4H2,1H3/t5-,6+/m0/s1
