14
gdb 7417	2.31654	1.59513	1.17057	1.4697	55.88	-0.1872	0.0372	0.2245	1025.7612	0.104369	-453.04302	-453.033109	-453.032164	-453.079452	32.819	
N	 0.0024406176	 1.3818792243	-0.22953904	-0.561194
C	-0.0649087805	-0.0199524797	-0.248723561	 0.286166
N	 1.0250296494	-0.6364684989	 0.3797088045	-0.550736
H	 1.8990234844	-0.174469867	 0.1558535548	 0.245245
H	 1.0625135034	-1.6176362992	 0.1280762876	 0.252666
C	-1.0635694259	-0.7255866943	-0.8062299305	-0.104593
O	-0.9420072749	-2.1017930436	-0.9663236261	-0.425521
C	-1.5128432234	-1.0103466872	 2.3354735511	 0.59946
O	-1.4220994816	 0.088230107	 2.7024157598	-0.297328
O	-1.6263627885	-2.1250551356	 2.0148965112	-0.312461
H	 0.1481630835	 1.7335606544	 0.7119476645	 0.248647
H	-0.8257877111	 1.8091258907	-0.6247913181	 0.244453
H	-1.9534980182	-0.2518912936	-1.2115797806	 0.073673
H	-1.4157808442	-2.5312846873	-0.2433058973	 0.301523
38.059	55.2893	63.8276	101.3241	126.3007	253.5801	273.9539	338.4579	372.4124	431.8518	444.6753	579.169	619.4342	659.652	681.3434	710.6598	817.0913	837.4584	930.1574	1093.8278	1153.2504	1203.7923	1278.6531	1343.0448	1371.8957	1427.7764	1629.4804	1635.7275	1753.1327	2426.018	3155.3856	3505.0223	3516.0384	3610.748	3614.0371	3760.1413
NC(=[NH2+])C(O)C([O-])=O	[NH2]=C(N)[CH]O.C(=O)=O	
InChI=1S/C3H6N2O3/c4-2(5)1(6)3(7)8/h1,6H,(H3,4,5)(H,7,8)	InChI=1S/C2H6N2O.CO2/c3-2(4)1-5;2-1-3/h1,5H,3-4H2;
