17
gdb 111272	3.07001	1.26157	0.98885	2.8157	69.34	-0.2488	-0.0268	0.222	1176.6826	0.13462	-458.938599	-458.929828	-458.928884	-458.972299	32.531	
O	 0.0830691885	 1.3866600542	 0.1940179907	-0.422227
C	 0.1323259918	 0.004161594	-0.1115697338	-0.082208
C	-1.2704625455	-0.5985212532	-0.0815951969	-0.122098
C	-1.5318129189	-2.1065528369	-0.190695359	-0.1755
C	-0.8972642073	-2.8422058267	 0.946762406	-0.322683
C	-2.1830599844	-2.1228766833	 1.2598287532	 0.31726
O	-3.2170194695	-2.8236652157	 1.8184501552	-0.443232
C	-1.9911776649	-0.6430218728	 1.2933570521	 0.303697
O	-2.4532617828	 0.2274067325	 1.987007883	-0.346833
H	-0.4506768604	 1.4932507241	 0.9906178483	 0.297343
H	 0.5662249874	-0.0776615013	-1.1141141267	 0.112102
H	 0.802624096	-0.5349254593	 0.5760287768	 0.087401
H	-1.9060904702	-0.0247668612	-0.7667929572	 0.110649
H	-1.9093691367	-2.6082985937	-1.0714488334	 0.115667
H	-1.0453398329	-3.918303174	 0.9341691136	 0.139897
H	 0.0497263422	-2.5330909009	 1.3780070296	 0.128642
H	-4.0047808923	-2.2667811058	 1.7978960485	 0.302122
74.5927	95.6363	146.3411	194.7795	283.4783	340.2986	360.7375	386.1321	406.3768	478.3497	503.4599	620.6406	654.8258	757.7151	774.659	880.7144	913.3651	933.8994	951.6806	1001.1268	1035.8318	1069.477	1089.7236	1116.4923	1130.8902	1155.9429	1202.6602	1250.0358	1288.7098	1324.2422	1361.5304	1386.9953	1414.201	1437.8613	1501.07	1517.3254	1842.5993	2979.6275	3047.1728	3065.7678	3121.8058	3203.0006	3213.989	3787.5029	3788.2626
OCC1C2CC2(O)C1=O	OC[C@H]1[C@H]2C[C@@]2(O)C1=O	
InChI=1S/C6H8O3/c7-2-3-4-1-6(4,9)5(3)8/h3-4,7,9H,1-2H2	InChI=1S/C6H8O3/c7-2-3-4-1-6(4,9)5(3)8/h3-4,7,9H,1-2H2/t3-,4+,6-/m0/s1
