15
gdb 15021	2.50612	1.83205	1.11495	3.9205	70.89	-0.2839	0.0148	0.2987	1032.3295	0.117557	-325.485106	-325.476979	-325.476035	-325.518008	29.393	
C	-0.1902842263	-1.1102192644	 0.1039661614	-0.42396
C	-0.0514617004	 0.0803201714	 0.0463874944	 0.33576
C	 0.0911799117	 1.5360012396	-0.0438696074	-0.357172
C	 1.5149165231	 1.923325592	-0.062371187	 0.296545
N	 2.6230069958	 2.2476500066	-0.0866957355	-0.320821
C	-0.6394990625	 2.1155355253	-1.258237884	 0.04068
C	-2.1062176963	 2.4297100443	-1.1487892761	-0.27271
C	-1.096740773	 3.5487266115	-1.2327497133	-0.270601
H	-0.3053047801	-2.1647757525	 0.1599715774	 0.209439
H	-0.3446160763	 1.9867618359	 0.8593490529	 0.150804
H	-0.2812566841	 1.7202023677	-2.202403029	 0.11427
H	-2.7333380466	 2.2285505862	-2.0094916965	 0.125411
H	-2.5937183962	 2.2540325941	-0.1954932265	 0.121965
H	-0.9038127707	 4.1285419345	-0.3361018992	 0.123679
H	-1.0263753082	 4.1195026879	-2.1511997216	 0.126709
70.4697	127.3262	136.7927	170.6048	324.2122	333.8261	366.656	497.7145	527.3487	579.7322	648.0321	663.1943	760.4201	832.9098	848.0028	903.8645	943.0884	992.814	1051.2716	1063.8039	1085.0336	1135.6159	1152.0639	1194.4859	1224.9956	1268.3034	1303.2819	1396.821	1471.9835	1505.7786	2248.7822	2365.0702	3010.302	3135.8968	3139.9159	3172.835	3215.6074	3229.8832	3502.7763
C#CC(C#N)C1CC1	C#C[C@@H](C#N)C1CC1	
InChI=1S/C7H7N/c1-2-6(5-8)7-3-4-7/h1,6-7H,3-4H2	InChI=1S/C7H7N/c1-2-6(5-8)7-3-4-7/h1,6-7H,3-4H2/t6-/m0/s1
