18
gdb 83445	2.81683	1.2183	1.05896	5.0251	76.12	-0.25	0.0267	0.2767	1195.8452	0.146971	-401.922487	-401.913774	-401.91283	-401.956382	31.999	
C	 0.0074486753	 1.5880941236	 0.1846922845	-0.423424
C	 0.0436427009	 0.076743325	 0.1925178849	-0.060573
C	 1.2278369899	-0.7748914821	-0.2547985607	-0.223928
C	 2.5277734283	-0.1586632704	 0.2482882335	-0.096153
O	 2.0039836056	-0.061436239	 1.6026850311	-0.314967
C	 0.8046249019	-0.7315814345	 1.1999953143	 0.46137
C	 0.2475977463	-1.762073355	 2.1458525837	-0.442385
C	-0.4029865999	-1.1623886329	 3.3145235576	 0.269458
N	-0.9230978774	-0.6869515606	 4.2297489948	-0.304557
H	 0.9070682914	 2.0035086454	 0.6441075766	 0.140492
H	-0.0781942719	 1.9784491816	-0.8346084682	 0.118168
H	-0.8505918361	 1.9514879588	 0.7586939703	 0.132061
H	-0.8939544598	-0.4021772404	-0.0865897041	 0.093305
H	 1.1440488409	-1.5618379915	-0.9927936689	 0.102864
H	 3.3793728345	-0.8466223865	 0.2192536866	 0.115855
H	 2.8254531242	 0.8158101231	-0.1535760686	 0.113515
H	-0.4871292483	-2.3796362705	 1.6177891962	 0.157514
H	 1.0496309341	-2.4248995042	 2.4893493966	 0.161385
53.407	93.6903	165.9772	231.67	251.4486	258.9854	315.3435	387.3223	451.5218	481.2543	574.554	723.3296	745.1496	795.0729	882.3022	922.5709	932.2952	963.5254	980.5315	986.3964	997.0613	1047.5384	1094.0267	1123.4072	1140.5466	1155.7428	1175.8355	1245.737	1263.7815	1325.1598	1337.3796	1346.7073	1412.8608	1444.9222	1470.4084	1491.9319	1505.7124	1521.9354	2365.6768	3034.5077	3041.8223	3046.2225	3083.213	3090.2652	3102.7147	3119.2833	3134.4926	3197.5966
CC1C2COC12CC#N	C[C@H]1[C@H]2CO[C@@]12CC#N	
InChI=1S/C7H9NO/c1-5-6-4-9-7(5,6)2-3-8/h5-6H,2,4H2,1H3	InChI=1S/C7H9NO/c1-5-6-4-9-7(5,6)2-3-8/h5-6H,2,4H2,1H3/t5-,6+,7-/m0/s1
