14
gdb 124038	3.81265	1.67512	1.18501	5.4973	71.46	-0.2102	-0.0422	0.1679	955.5143	0.104452	-432.862492	-432.856098	-432.855154	-432.893323	24.89	
C	 0.0434586197	 1.4785502641	 0.1238000388	-0.139431
O	 1.3610684935	 2.0617877791	 0.0406451214	-0.266613
C	 2.1629141464	 1.417791287	-0.8271465509	 0.369991
C	 2.0081486575	 0.0920384952	-1.1828222581	 0.25091
N	 3.0772234136	-0.1219746733	-1.9896908645	-0.305072
N	 3.8283816228	 0.989086129	-2.117461	-0.119802
N	 3.2691071	 1.934518408	-1.3923866875	-0.28044
C	 0.9582853253	-0.7141709247	-0.6151484844	-0.162577
C	 0.0261261545	-0.0356285484	 0.0715772927	-0.107005
H	-0.3713581764	 1.8443040959	 1.0657035439	 0.133879
H	-0.5739877928	 1.8903614549	-0.6935625801	 0.119901
H	 3.3450557862	-0.9507560624	-2.4958953589	 0.28145
H	 0.9556275684	-1.7952515255	-0.6934553891	 0.110736
H	-0.7906296087	-0.5403360191	 0.5753478867	 0.114072
134.0803	177.4281	342.5864	414.2254	449.4905	523.7689	540.56	611.8329	684.5965	707.1272	736.5733	776.4906	846.0281	914.342	966.3374	1007.3641	1030.832	1045.9158	1079.3738	1178.8397	1206.8339	1249.2233	1276.9968	1336.9533	1365.9465	1390.7876	1424.5347	1490.5653	1558.3093	1612.6696	1667.8772	2949.0964	3100.3953	3187.4109	3206.4324	3657.3433
C1OC2=C(NN=N2)C=C1	C1Oc2c([nH]nn2)C=C1	
InChI=1S/C5H5N3O/c1-2-4-5(9-3-1)7-8-6-4/h1-2H,3H2,(H,6,7,8)	InChI=1S/C5H5N3O/c1-2-4-5(9-3-1)7-8-6-4/h1-2H,3H2,(H,6,7,8)
