15
gdb 127560	3.27386	1.4627	1.01764	3.5987	76.66	-0.2111	-0.044	0.1671	1105.8828	0.113729	-450.138024	-450.129766	-450.128822	-450.171032	30.163	
C	 0.0206203161	 1.4755970951	 0.0118003739	-0.299504
N	 0.0213464907	 0.0193903595	-0.0051988324	 0.139223
N	-0.0403215121	-0.5781368594	-1.1672598426	-0.197269
C	-0.0445050627	-1.8978928117	-1.1869104011	-0.094239
C	 0.0173010584	-2.7079072066	-0.0080203738	 0.273047
O	 0.0055475139	-3.938302886	 0.0605589632	-0.414477
C	 0.0945971891	-1.8804411778	 1.2145423341	 0.344335
N	 0.1878798875	-2.5664606653	 2.36993273	-0.548105
N	 0.0864784161	-0.5669258845	 1.205369298	-0.342632
H	 0.9368451318	 1.8403522504	 0.4833447827	 0.150687
H	-0.0375999607	 1.8166315622	-1.0195802765	 0.161958
H	-0.8383496235	 1.8378682325	 0.5826323641	 0.149997
H	-0.1012324929	-2.3607228381	-2.165407375	 0.130708
H	 0.0704907717	-3.5649416499	 2.2865409679	 0.280485
H	 0.0993249767	-2.1040574005	 3.2571186175	 0.265786
74.804	122.8818	183.841	214.0699	300.1366	342.1941	349.5471	466.5989	477.7203	545.4574	574.1594	595.4272	606.1118	736.1814	806.1027	815.3536	904.2153	965.1981	1042.1912	1140.2113	1149.2223	1251.5291	1286.9792	1342.5781	1387.5312	1442.5827	1472.7005	1476.0568	1506.7501	1528.7348	1563.7341	1643.4561	1719.6074	3055.0841	3120.0351	3185.1095	3201.4702	3588.3153	3737.3644
CN1N=CC(=O)C(N)=N1	Cn1ncc(=O)c(N)n1	
InChI=1S/C4H6N4O/c1-8-6-2-3(9)4(5)7-8/h2H,1H3,(H2,5,7)	InChI=1S/C4H6N4O/c1-8-6-2-3(9)4(5)7-8/h2H,1H3,(H2,5,7)
