20
gdb 101277	2.68865	0.98711	0.85702	5.4667	80.21	-0.2741	0.0308	0.3049	1435.5189	0.169575	-403.15375	-403.143769	-403.142825	-403.189142	36.164	
C	-0.0893471638	 1.5634850874	-0.0357892437	-0.383693
C	-0.1285706476	 0.0400902028	-0.1755411422	-0.190802
C	 0.9081731156	-0.4952524307	-1.1733455529	 0.117554
O	 2.2331469479	-0.1165885867	-0.8178240588	-0.427443
C	 0.7984668706	-1.9995974314	-1.3367390456	-0.020911
C	-0.1745619766	-2.612231753	-2.2977995018	-0.294199
C	 1.3180471916	-2.6957746936	-2.5863178407	-0.182861
C	 1.8664346103	-1.9343528389	-3.6743101853	 0.296192
N	 2.2983941883	-1.3332154244	-4.563506005	-0.343762
H	 0.9114987572	 1.8987652801	 0.2474170205	 0.130414
H	-0.3452895739	 2.0504468838	-0.9829460778	 0.120752
H	-0.7989920334	 1.9090464485	 0.7214797819	 0.111417
H	 0.0513914122	-0.4323279439	 0.801987558	 0.084512
H	-1.1255609623	-0.2893829644	-0.4923369493	 0.102757
H	 0.7430364562	-0.0219706137	-2.1490763376	 0.106059
H	 2.4167668073	-0.4692222551	 0.0604438693	 0.276668
H	 0.9769705573	-2.557196804	-0.4190756828	 0.092798
H	-0.6797640824	-3.5326842652	-2.0295848783	 0.129983
H	-0.7530285004	-1.9445533885	-2.9268558075	 0.141274
H	 1.7941264556	-3.6601712989	-2.4457167803	 0.133292
54.6787	83.9335	110.1095	168.7747	216.2257	224.2078	265.5726	285.3768	315.1135	399.5148	456.2294	498.1404	565.1638	637.103	775.0232	781.4035	831.8655	855.4021	897.646	971.664	988.6429	1000.4706	1053.806	1076.9406	1099.5884	1112.2945	1125.6601	1136.6387	1169.0827	1218.0344	1259.6111	1292.6075	1331.2317	1374.0485	1379.3152	1407.8778	1416.8818	1432.7613	1482.6091	1487.4316	1496.9063	1509.201	2354.2212	2998.5764	3041.0408	3042.6994	3058.1645	3106.1749	3125.9507	3126.4548	3141.8372	3170.4009	3231.1766	3793.1994
CCC(O)C1CC1C#N	CC[C@@H](O)[C@H]1C[C@H]1C#N	
InChI=1S/C7H11NO/c1-2-7(9)6-3-5(6)4-8/h5-7,9H,2-3H2,1H3	InChI=1S/C7H11NO/c1-2-7(9)6-3-5(6)4-8/h5-7,9H,2-3H2,1H3/t5-,6-,7+/m0/s1
