10
gdb 130667	3.21586	1.6572	1.09363	4.5888	72.34	-0.2739	-0.1613	0.1126	953.7054	0.053342	-430.395031	-430.38787	-430.386926	-430.426937	25.397	
C	-0.0084654819	 0.	 0.0867465062	 0.045515
C	 0.0655575505	 0.	 1.4559777606	-0.17842
H	 0.9977776671	 0.	 2.0027096629	 0.175584
C	-1.2150307631	 0.	 2.1336142299	-0.091081
N	-2.097770891	 0.	 1.3214044189	 0.307718
N	-2.513777975	 0.	 0.1720636807	-0.314905
C	-1.2770030878	 0.	-0.7087221461	 0.359907
O	-1.3998085809	 0.	-1.892052322	-0.260291
C	 1.1838591664	 0.	-0.6892760687	 0.263692
N	 2.1649557134	 0.	-1.3034625361	-0.307718
96.1002	151.9592	162.4869	335.8098	386.3556	423.8748	501.9652	514.511	536.3629	568.0489	677.1556	747.6374	751.1244	763.56	912.4194	1080.4193	1159.8099	1306.4572	1390.5679	1504.3412	1844.8522	2008.022	2347.8203	3242.8549	96.1004	151.9592	162.487	335.8098	386.3556	423.8746	501.9654	514.5118	536.3628	568.0496	677.1563	747.6373	751.1247	763.5597	912.4202	1080.4194	1159.8102	1306.4577	1390.569	1504.3412	1844.8507	2008.0224	2347.8208	3242.8549
O=C1N=NOC=C1C#N	c1(ccnnc1=O)C#N	
InChI=1S/C4HN3O2/c5-1-3-2-9-7-6-4(3)8/h2H	InChI=1S/C5H3N3O/c6-3-4-1-2-7-8-5(4)9/h1-2H,(H,8,9)
