16
gdb 133073	3.83771	1.08457	0.85064	5.2394	76.34	-0.2211	-0.0062	0.2149	1283.0635	0.125421	-442.098357	-442.090289	-442.089345	-442.131276	29.875	
C	-0.011061742	 1.459512233	 0.0860990765	-0.325696
N	-0.0571967664	 0.0225485747	-0.070533624	-0.375015
C	 0.5735148849	-0.6548146643	-1.0766168502	 0.428434
C	 1.1885187444	 0.0025792135	-2.1619579481	-0.228794
C	 1.7841072435	-0.7622354223	-3.150669237	 0.007374
N	 1.8282617073	-2.1011555375	-3.1595669405	-0.341051
C	 1.2489019988	-2.687057674	-2.1326860868	 0.359626
F	 1.2866895257	-4.0203187041	-2.1266078666	-0.080706
C	 0.6156227984	-2.0589890352	-1.0750978662	-0.392412
H	 1.0140183232	 1.842076771	 0.191961315	 0.129936
H	-0.4771938463	 1.9666765173	-0.7667318615	 0.139412
H	-0.5721405171	 1.7325138438	 0.9818017387	 0.132704
H	-0.3378025041	-0.5175722779	 0.7297606893	 0.247132
H	 1.2018030244	 1.0819943806	-2.2329221728	 0.093055
H	 2.2616173719	-0.2689039356	-3.9938277447	 0.110304
H	 0.1687914235	-2.6445847029	-0.2801272112	 0.095695
73.3537	158.3368	209.966	223.748	243.955	328.0866	383.8097	472.8947	476.6639	568.418	606.9811	673.1671	751.7257	781.5041	825.0314	845.9493	964.3178	980.4292	999.2701	1090.9564	1132.0325	1157.1793	1180.5982	1228.7507	1325.0211	1329.7359	1379.4414	1434.4094	1470.567	1483.5839	1512.0822	1524.8087	1550.9949	1615.2796	1654.8751	3001.396	3058.6259	3128.4032	3157.7625	3194.5993	3219.3725	3655.425
CNC1=CC=NC(F)=C1	CNc1ccnc(F)c1	
InChI=1S/C6H7FN2/c1-8-5-2-3-9-6(7)4-5/h2-4H,1H3,(H,8,9)	InChI=1S/C6H7FN2/c1-8-5-2-3-9-6(7)4-5/h2-4H,1H3,(H,8,9)
