16
gdb 46706	3.07374	1.80946	1.39617	4.6196	67.16	-0.2549	-0.0022	0.2527	916.3353	0.127128	-437.872682	-437.866036	-437.865092	-437.903834	26.07	
O	 0.0623195602	-0.0564953449	 0.2772246394	-0.330973
C	 0.0023092329	 1.0932758258	-0.0626816156	 0.434947
O	-1.1511478155	 1.5921612343	-0.5644439245	-0.222517
C	-1.2847149069	 3.0050008001	-0.7834969515	-0.108324
C	-0.001962824	 3.7045645367	-1.204901221	-0.047448
C	 1.0363498821	 4.1449551102	-0.2469435465	-0.028673
C	 1.0603509402	 3.2593269503	 0.9911605584	-0.284431
C	 1.1656937112	 2.0546907017	 0.0061393266	-0.119722
N	 1.2841786954	 2.9788509247	-1.1898095538	-0.14435
H	-2.0346552109	 3.095205969	-1.5717940207	 0.136104
H	-1.7012035983	 3.45635601	 0.1252395635	 0.125732
H	-0.0965329938	 4.3089341739	-2.1021705601	 0.113542
H	 1.5616802569	 5.0869601505	-0.3629830557	 0.104661
H	 1.9710617602	 3.3672228147	 1.5806292764	 0.131119
H	 0.1992884143	 3.3106502971	 1.6647205073	 0.118341
H	 2.0737562861	 1.4675051259	 0.1234374377	 0.121994
120.5967	149.4591	271.1119	395.0275	427.7442	467.9421	553.8779	699.5916	728.6258	743.6534	783.3943	791.6032	871.0005	895.9456	952.4626	979.3829	1000.7592	1011.599	1060.1979	1067.7029	1092.0342	1140.2625	1147.3051	1223.7566	1243.2079	1251.1176	1273.399	1282.6533	1319.0644	1354.1293	1423.0925	1429.9572	1490.9056	1515.9751	1850.0386	3031.5254	3055.577	3105.5163	3127.6976	3145.1204	3155.4886	3173.1417
O=C1OCC2C3CC1N23	O=C1OC[C@H]2[C@H]3C[C@@H]1N23	
InChI=1S/C6H7NO2/c8-6-4-1-3-5(2-9-6)7(3)4/h3-5H,1-2H2	InChI=1S/C6H7NO2/c8-6-4-1-3-5(2-9-6)7(3)4/h3-5H,1-2H2/t3-,4+,5+,7?/m1/s1
