17
gdb 22278	4.71753	0.84849	0.73213	3.235	75.38	-0.2434	-0.0133	0.2301	1485.1538	0.133652	-455.113518	-455.104028	-455.103084	-455.148854	33.086	
C	-0.2930479205	 1.4631460323	-0.0566530068	-0.490692
C	-0.1683846317	-0.0503990212	-0.000447135	 0.375242
O	-0.2306408248	-0.6958501562	 1.0301543755	-0.361459
N	 0.0103716687	-0.6622562994	-1.2062821091	-0.085495
C	 0.4406445116	-0.1775354432	-2.5319711012	-0.271656
C	 0.8041738354	-1.6213028883	-2.8319501497	 0.39421
C	 0.3980134386	-2.0625193893	-1.4360874371	-0.26074
N	 1.2567367051	-2.1550401243	-3.8817920242	-0.214768
O	 1.4407745899	-3.5333911186	-3.7051874242	-0.386757
H	 0.6721438939	 1.9187257943	-0.3053063539	 0.138842
H	-1.0137373351	 1.7813335079	-0.8161550405	 0.135005
H	-0.6087041921	 1.8214791125	 0.9226775197	 0.15102
H	-0.360258413	 0.2503911494	-3.1462948651	 0.136869
H	 1.2878393109	 0.5197566462	-2.5127417572	 0.134555
H	 1.2134218781	-2.4122608985	-0.7925040989	 0.147589
H	-0.4259671014	-2.7819820098	-1.3837430081	 0.145396
H	 1.7801226965	-3.8089912538	-4.5638584841	 0.312842
46.1002	82.7644	114.1431	131.9016	171.4825	227.1651	292.0159	372.0577	376.7872	484.907	487.5206	591.566	596.3365	646.0012	762.868	911.1505	929.0675	965.2402	992.9857	1049.9942	1063.3037	1102.405	1108.5797	1139.6648	1152.9292	1193.6557	1282.6932	1305.4715	1379.1696	1411.1179	1439.0605	1471.5738	1482.2416	1485.2289	1506.5599	1771.7487	1818.9085	3017.0068	3040.178	3041.4569	3059.6851	3080.9679	3103.6407	3162.0029	3815.1716
CC(=O)N1CC(C1)=NO	CC(=O)N1CC(=NO)C1	
InChI=1S/C5H8N2O2/c1-4(8)7-2-5(3-7)6-9/h9H,2-3H2,1H3	InChI=1S/C5H8N2O2/c1-4(8)7-2-5(3-7)6-9/h9H,2-3H2,1H3
