22
gdb 88839	2.81841	1.15026	0.92282	0.8742	82.69	-0.225	0.0705	0.2955	1341.563	0.193744	-404.297235	-404.287757	-404.286812	-404.331875	35.744	
C	 2.8424066078	-0.9510289272	 0.3317551782	-0.313695
N	 1.4201391633	-1.2104797115	 0.4965299032	-0.092933
C	 1.0166446979	-2.1493382224	 1.534358091	-0.262763
C	 0.7010203808	-0.6936637646	 1.6653041552	 0.004569
C	 1.3353906845	 0.1496469749	 2.7475676311	-0.068444
C	 1.002179358	 1.6698008005	 2.6258287591	-0.240002
C	-0.1679611954	 1.4745202709	 3.6293708853	-0.260378
C	 0.5119051578	 0.1559546273	 4.0826362654	 0.158334
O	-0.251499005	-0.9592617634	 4.4568516125	-0.428421
H	 3.4406954015	-1.0467270058	 1.2510197822	 0.103797
H	 3.2391955775	-1.6648712075	-0.3973099556	 0.124477
H	 2.9858368046	 0.0575254972	-0.0694175287	 0.123219
H	 0.2520971987	-2.8728732228	 1.2608903617	 0.110874
H	 1.7896351576	-2.5387059394	 2.1970576357	 0.110201
H	-0.3105119574	-0.3796797187	 1.4003470752	 0.083681
H	 2.3896661797	-0.107658345	 2.8650914028	 0.066396
H	 1.7976290256	 2.2968566589	 3.0358546491	 0.103413
H	 0.7480319355	 2.0369235424	 1.6289936617	 0.105604
H	-0.344494103	 2.2443573701	 4.3838823599	 0.100172
H	-1.1128891086	 1.2724962894	 3.1137598472	 0.098703
H	 1.1812459959	 0.3457095601	 4.9272857712	 0.090016
H	-0.7992319671	-1.2158167634	 3.7078140267	 0.283182
44.7193	119.2205	132.7012	183.8355	232.7674	248.4534	280.2784	353.4786	400.1424	412.9155	477.9858	582.2285	647.1069	735.9159	758.1105	822.8465	895.7259	914.7179	928.2427	962.1771	974.0758	1010.3647	1040.4233	1062.4227	1104.936	1128.2718	1130.4169	1147.5366	1153.902	1168.0258	1204.0791	1212.1654	1225.9742	1254.6137	1261.8521	1267.9174	1308.6978	1323.7779	1343.621	1434.3161	1437.2258	1450.8831	1481.2854	1489.6154	1498.6281	1503.1684	1512.4623	2979.3234	3048.357	3062.6405	3063.4342	3066.2117	3075.3653	3082.7016	3092.6843	3100.7344	3105.4064	3121.4618	3166.6376	3814.5561
CN1CC1C1CCC1O	CN1C[C@H]1[C@H]1CC[C@H]1O	
InChI=1S/C7H13NO/c1-8-4-6(8)5-2-3-7(5)9/h5-7,9H,2-4H2,1H3	InChI=1S/C7H13NO/c1-8-4-6(8)5-2-3-7(5)9/h5-7,9H,2-4H2,1H3/t5-,6+,7-,8?/m1/s1
