20
gdb 8451	4.09853	1.68105	1.48291	0.1885	80.89	-0.2108	0.0257	0.2365	957.7274	0.17741	-311.852095	-311.844439	-311.843495	-311.883372	30.674	
C	-0.0553560376	 1.4673422622	 0.0618574111	-0.517231
C	-0.00734393	-0.0196437939	 0.0005705314	 0.35546
C	-0.032183545	-0.8748916197	-1.0266700706	-0.247805
C	 0.0509566671	-2.265741463	-0.3657238286	 0.316331
C	 0.0473797644	-3.4998017313	-1.238432611	-0.505459
C	-0.9613726982	-2.0511576974	 0.8184682105	-0.23944
C	 0.0897694021	-0.9623686483	 1.2172373137	-0.118507
C	 1.1654377455	-1.9776080102	 0.705750022	-0.239453
H	 0.8378830656	 1.878161898	 0.5506755528	 0.124612
H	-0.125632273	 1.906549722	-0.9376132705	 0.123006
H	-0.9155688225	 1.8175483163	 0.6474629941	 0.124571
H	-0.0953300818	-0.6793506694	-2.0892255287	 0.087431
H	 0.8967765798	-3.4971351214	-1.9312427589	 0.115451
H	 0.1107254181	-4.4127107549	-0.6370217765	 0.111008
H	-0.8684767987	-3.5580810215	-1.8378302558	 0.11545
H	-1.9689258275	-1.7120175045	 0.5637754873	 0.086003
H	-0.9980242584	-2.8970113157	 1.5143527758	 0.084395
H	 0.1273185612	-0.5209674265	 2.213806314	 0.053781
H	 1.3335482046	-2.8163812441	 1.3907790425	 0.084396
H	 2.1147021143	-1.5707923368	 0.3473519855	 0.086
165.389	185.7433	209.5145	231.1055	291.7954	348.9586	503.6941	506.9922	567.9592	574.4728	642.8666	777.6867	790.5616	830.1332	844.2678	868.058	923.4783	941.7968	988.5237	1002.9681	1051.2681	1051.5231	1067.2833	1099.859	1113.4019	1131.2444	1188.2577	1212.188	1217.9442	1229.161	1239.4755	1300.7785	1339.5671	1411.4842	1413.9114	1476.6756	1477.5829	1486.8445	1492.4582	1493.6666	1515.0535	1695.4185	3010.5257	3023.1662	3029.3019	3041.1276	3053.4542	3086.4326	3093.6922	3102.693	3102.8602	3108.1608	3108.5029	3213.0825
CC1=CC2(C)CC1C2	CC1=C[C@]2(C)C[C@H]1C2	
InChI=1S/C8H12/c1-6-3-8(2)4-7(6)5-8/h3,7H,4-5H2,1-2H3	InChI=1S/C8H12/c1-6-3-8(2)4-7(6)5-8/h3,7H,4-5H2,1-2H3/t7-,8+
