17
gdb 45237	3.35888	1.69352	1.49758	3.1261	71.2	-0.2379	-0.0193	0.2186	910.3816	0.138643	-421.833102	-421.826873	-421.825929	-421.863585	26.166	
O	-0.0166367903	-0.0264770491	-0.1277743836	-0.324379
C	-0.0319539194	 1.1702777415	-0.0027194595	 0.421821
C	-1.2723158922	 2.0760524317	 0.103725646	-0.335961
C	-0.6339904616	 3.4038498831	 0.5096593657	 0.08334
O	-0.0271192807	 3.1697845288	 1.8101537494	-0.288013
C	 1.3215830985	 2.8898278838	 1.4185766641	 0.094748
C	 1.698716163	 4.1388461155	 0.5918321285	-0.242173
C	 0.6469630101	 3.5316332489	-0.364868824	-0.08238
C	 1.1576390913	 2.1080577451	 0.0535232548	-0.15821
H	-1.7661611022	 2.1375621072	-0.8749430524	 0.123102
H	-1.9910385307	 1.6933759896	 0.8312893881	 0.137024
H	-1.2947704489	 4.2704524989	 0.5534469947	 0.084759
H	 1.8897084331	 2.5025636656	 2.2621847352	 0.095323
H	 1.500222608	 5.1087572268	 1.0540267104	 0.105549
H	 2.7066388559	 4.0988371877	 0.1741998775	 0.108321
H	 0.5210506181	 3.8322789581	-1.4041942303	 0.082938
H	 2.0848502279	 1.7397828568	-0.3794633744	 0.09419
126.0319	306.1256	353.7862	430.8581	506.5427	553.1107	589.2458	628.0755	716.1835	796.3761	837.3839	853.5373	871.9206	890.7755	904.3748	929.5826	962.787	979.6998	998.2501	1015.8669	1054.8807	1087.8174	1112.9019	1126.3107	1166.2245	1185.565	1219.828	1236.9132	1248.4199	1257.3341	1266.8405	1296.9716	1328.4021	1349.2965	1436.2838	1489.92	1851.1391	3036.8313	3067.5742	3107.3578	3119.9613	3128.518	3133.0855	3144.1626	3154.3398
O=C1CC2OC3CC2C13	O=C1C[C@H]2O[C@@H]3C[C@H]2[C@H]13	
InChI=1S/C7H8O2/c8-4-2-5-3-1-6(9-5)7(3)4/h3,5-7H,1-2H2	InChI=1S/C7H8O2/c8-4-2-5-3-1-6(9-5)7(3)4/h3,5-7H,1-2H2/t3-,5-,6-,7-/m1/s1
