18
gdb 80938	2.47592	1.35452	1.25253	3.306	77.11	-0.2758	0.0248	0.3006	1102.7566	0.147432	-401.918873	-401.91036	-401.909416	-401.951665	32.527	
C	 0.0147523794	 1.4613643743	 0.0478488744	-0.522563
C	 0.0396068685	-0.0404027595	 0.0057911238	 0.306289
C	 0.5915286636	-0.9759358143	-1.1227893375	-0.282025
C	 0.0525685106	-1.9444105292	-0.0328221345	-0.108521
C	 0.7158249644	-1.0017169616	 1.023494087	 0.107667
O	 2.1124313924	-0.8984135225	 1.0764200712	-0.442927
C	-1.1991572941	-1.0130009855	 0.0499919538	-0.187797
C	-2.0434320011	-1.0363075269	 1.2345394599	 0.267427
N	-2.7299889583	-1.0458168335	 2.1656447316	-0.34337
H	 1.0362500338	 1.8540922049	 0.0685263314	 0.139491
H	-0.4920322797	 1.8756133878	-0.8297555996	 0.124066
H	-0.5051869476	 1.8193868632	 0.9426185068	 0.136088
H	 0.0521359946	-0.9599834729	-2.0736704191	 0.093287
H	 1.6704351688	-0.9655176317	-1.2623780647	 0.124134
H	 0.0324386064	-3.0337817498	-0.0500764299	 0.087785
H	 0.2736814582	-1.0238355756	 2.0262967712	 0.092133
H	 2.4425934513	-1.5431573458	 1.7090110042	 0.291688
H	-1.8168935613	-0.9989607713	-0.85076151	 0.117149
126.0266	142.0596	191.2708	212.2617	247.9434	292.7541	341.7757	394.5846	450.3178	514.9599	542.1099	645.636	660.0892	776.4947	826.9137	849.6171	904.3419	924.1547	943.6839	1019.7219	1023.0758	1073.2932	1082.0508	1090.1353	1147.2609	1182.2214	1188.8263	1204.9122	1218.6083	1229.9794	1291.641	1325.9761	1371.5839	1411.5889	1454.6361	1487.7999	1489.7151	1520.8875	2346.3557	3034.0475	3044.0767	3068.082	3089.7365	3103.685	3108.7334	3121.9174	3165.1874	3832.2292
CC12CC(C1O)C2C#N	C[C@@]12C[C@@H]([C@H]1O)[C@H]2C#N	
InChI=1S/C7H9NO/c1-7-2-4(6(7)9)5(7)3-8/h4-6,9H,2H2,1H3	InChI=1S/C7H9NO/c1-7-2-4(6(7)9)5(7)3-8/h4-6,9H,2H2,1H3/t4-,5-,6-,7+/m1/s1
