14
gdb 27226	3.50222	1.62018	1.11143	3.5828	70.83	-0.1753	0.016	0.1914	995.7664	0.103899	-432.896974	-432.889779	-432.888835	-432.928218	27.95	
O	-0.0392075968	 1.3943090034	 0.1176597752	-0.430526
C	 0.0301354061	 0.0394381424	-0.039726437	 0.160829
C	 0.0169382849	-0.7944505882	-1.1308473468	 0.233262
N	 0.0268206114	-0.8884897986	-2.5121888974	-0.45097
C	 0.0119145205	-2.2453843384	-2.7943163228	 0.003556
N	 0.0240991947	-3.0259760493	-1.7496948587	-0.353689
C	 0.0263790088	-2.1468190382	-0.6716075491	 0.270679
C	 0.0327954141	-2.1311092875	 0.7096403683	-0.228182
N	 0.0388979482	-0.7966209126	 1.063713762	-0.277872
H	 0.8459966415	 1.771537042	 0.0488900888	 0.30147
H	-0.0790885005	-0.1468213218	-3.1808172758	 0.261734
H	-0.0005134045	-2.5879669483	-3.8204040615	 0.124401
H	 0.0321261866	-2.9100474725	 1.4522018389	 0.123126
H	-0.013308285	-0.4456559025	 2.0047003859	 0.262182
192.7338	219.4066	257.167	282.7602	298.1707	372.2259	454.9733	563.4873	596.5148	609.5734	635.1829	656.3283	721.1308	761.7978	824.3569	853.3044	946.6122	1064.0811	1082.0672	1109.7839	1192.2219	1216.5612	1289.8878	1313.7013	1329.7147	1378.7866	1427.3149	1488.4409	1536.6807	1578.3261	1717.4736	3232.6381	3281.2033	3678.2666	3688.1668	3755.1733
OC1=C2NC=NC2=CN1	Oc1c2[nH]cnc2c[nH]1	
InChI=1S/C5H5N3O/c9-5-4-3(1-6-5)7-2-8-4/h1-2,6,9H,(H,7,8)	InChI=1S/C5H5N3O/c9-5-4-3(1-6-5)7-2-8-4/h1-2,6,9H,(H,7,8)
