18
gdb 98734	3.77071	0.94144	0.82241	5.2369	75.45	-0.2504	-0.0386	0.2117	1420.0979	0.145164	-439.09943	-439.089877	-439.088933	-439.134948	33.285	
C	 0.1590770134	 1.5496874016	 0.1013850211	-0.381192
C	-0.044555298	 0.0454778165	 0.2578065576	-0.287831
C	 1.0309356983	-0.6313118132	 1.0877488095	 0.386557
O	 1.914982838	-0.0226465257	 1.6481312211	-0.310915
C	 0.9458299705	-2.1353312435	 1.1662762631	-0.135635
C	 2.2056305286	-2.9071304996	 0.8041074837	-0.225952
N	 1.725478038	-2.8527211075	 2.1502078728	-0.064243
C	 2.4375372195	-2.2952936595	 3.2155315865	 0.165307
O	 3.603361249	-2.5062482499	 3.421711023	-0.286114
H	 1.1062324654	 1.7655625798	-0.399540627	 0.135111
H	-0.6513483224	 1.9885514195	-0.4864334182	 0.115983
H	 0.1878127644	 2.0411010368	 1.0767618159	 0.138653
H	-1.0101247847	-0.1787787439	 0.7344866582	 0.131786
H	-0.0887880446	-0.4617467215	-0.7163666835	 0.129164
H	-0.0167079958	-2.5753023123	 0.9153350696	 0.10888
H	 2.108000912	-3.8568917954	 0.2860931391	 0.134505
H	 3.0898561078	-2.318845862	 0.5721436747	 0.154177
H	 1.7785646807	-1.73443978	 3.9003334326	 0.091762
43.2273	70.1676	95.9708	184.9209	197.3061	230.4523	235.5478	307.0452	333.9586	421.2703	563.2097	601.8889	682.4669	800.0824	802.4979	834.8726	965.6574	974.2046	1012.1885	1029.6254	1036.9522	1068.6449	1091.0802	1103.5342	1123.8254	1137.7805	1165.4644	1274.7326	1345.1575	1372.9449	1415.7727	1416.8324	1421.3109	1447.5812	1493.3291	1497.907	1499.5074	1795.5956	1817.3073	2988.0166	3011.8106	3038.6955	3054.7123	3111.7377	3126.5319	3131.6841	3136.263	3208.2694
CCC(=O)C1CN1C=O	CCC(=O)[C@H]1CN1C=O	
InChI=1S/C6H9NO2/c1-2-6(9)5-3-7(5)4-8/h4-5H,2-3H2,1H3	InChI=1S/C6H9NO2/c1-2-6(9)5-3-7(5)4-8/h4-5H,2-3H2,1H3/t5-,7?/m1/s1
