18
gdb 65956	2.25684	1.49947	1.39333	1.9596	78.15	-0.2429	0.0235	0.2664	1059.3566	0.145785	-401.870114	-401.861154	-401.86021	-401.903568	34.289	
O	-0.0561001953	 1.3640754619	-0.5086306891	-0.46254
C	-0.0151786343	 0.017969366	-0.0711412213	 0.157242
C	 0.0806012515	-0.231473542	 1.4766945663	-0.280938
C	-1.1273349148	-1.2081136255	 1.3844650965	-0.300721
C	-1.4101232621	-0.6465275641	-0.0086534277	 0.338653
C	-2.6305970757	-0.0120514727	-0.5466464553	-0.298419
N	-2.1345323542	-1.2965169256	-1.0839101335	-0.377176
C	 0.9506348512	-0.7556125381	-0.8463117219	 0.29377
C	 1.7532828566	-1.3687952255	-1.4998009633	-0.494375
H	 0.8332016952	 1.6202539283	-0.7759449779	 0.285652
H	 1.0251213135	-0.6269734346	 1.8518560417	 0.107394
H	-0.1691626973	 0.6955077378	 1.9968140718	 0.117121
H	-0.8222705596	-2.2570828869	 1.3482330567	 0.118965
H	-1.9141213233	-1.0917800737	 2.1319302449	 0.108715
H	-3.562965915	-0.0807408341	 0.0081150708	 0.116139
H	-2.5033640572	 0.890828122	-1.1360130718	 0.130447
H	-1.6486073396	-1.1514723889	-1.9671001042	 0.235479
H	 2.4598981205	-1.9183286744	-2.0718396827	 0.20459
64.7033	123.4007	179.0629	229.4228	255.607	277.4319	319.4101	391.1821	477.3527	482.2967	536.9839	622.5159	634.1809	664.7136	669.0519	750.7961	844.1071	881.4843	918.5728	925.5282	960.5181	977.1312	988.8058	1047.8779	1090.2243	1123.021	1138.7545	1191.5444	1197.661	1242.6004	1250.218	1261.7147	1279.5761	1357.5619	1418.6879	1472.4903	1491.8605	1512.1851	2225.7345	3068.6886	3078.2555	3109.6439	3119.8539	3143.9913	3202.6113	3484.1493	3498.4301	3810.4629
OC1(CCC11CN1)C#C	O[C@]1(CC[C@]21CN2)C#C	
InChI=1S/C7H9NO/c1-2-7(9)4-3-6(7)5-8-6/h1,8-9H,3-5H2	InChI=1S/C7H9NO/c1-2-7(9)4-3-6(7)5-8-6/h1,8-9H,3-5H2/t6-,7+/m1/s1
