20
gdb 113178	2.60792	1.11104	1.0405	3.2678	76.77	-0.237	0.0314	0.2684	1282.0306	0.168946	-440.301089	-440.29094	-440.289996	-440.336058	37.211	
C	-0.0607504567	 1.0314671485	 0.5568051958	-0.240536
O	-0.1846477479	 0.0106725056	-0.4172061208	-0.235727
C	-1.3784411478	-0.6884055841	-0.3195593345	 0.117838
C	-1.4667543646	-1.984922825	-1.0271977372	-0.35143
C	-1.4244862032	-1.9902167434	 0.5037400751	 0.173662
C	-0.1521488643	-2.4629623974	 1.1764607243	-0.511111
C	-2.7567031517	-2.2335607076	 1.1506367135	 0.357201
N	-2.7385052422	-2.8731834385	 2.3610841167	-0.546864
O	-3.8010573521	-1.8509528222	 0.6458649768	-0.383691
H	 0.8898538014	 1.5366330242	 0.372203251	 0.128704
H	-0.8773434029	 1.7631401711	 0.4743697546	 0.116634
H	-0.0612010964	 0.6245666583	 1.5775191127	 0.111184
H	-2.2787748409	-0.0781084484	-0.2674653085	 0.113575
H	-2.4118374101	-2.2410134742	-1.4901866108	 0.138866
H	-0.5712039827	-2.3337710794	-1.5297341476	 0.12051
H	 0.7178288181	-2.0668723024	 0.6483616795	 0.141055
H	-0.0878186492	-2.1154204716	 2.2140627547	 0.118117
H	-0.0727955773	-3.5569015967	 1.1757463532	 0.117137
H	-1.9249843591	-3.3611252969	 2.6911625554	 0.256992
H	-3.6327621106	-3.12951652	 2.7474353961	 0.257884
66.8214	109.8842	121.981	165.4193	225.5175	243.0305	277.5039	287.1958	320.1265	347.887	416.303	470.9689	504.1745	572.9188	594.1554	702.8192	749.6383	820.5248	852.8017	919.8314	958.5621	1038.4165	1075.8938	1080.9484	1090.6474	1106.198	1146.5724	1176.5294	1183.6075	1221.9863	1254.7611	1308.1186	1369.4948	1397.0556	1414.497	1457.825	1486.039	1490.3582	1501.4823	1506.534	1513.0566	1615.8853	1766.1803	2991.8928	3021.5423	3044.9265	3076.9167	3122.7369	3123.8115	3124.4198	3141.1039	3240.4773	3603.3065	3737.3922
COC1CC1(C)C(N)=O	CO[C@H]1C[C@]1(C)C(=O)N	
InChI=1S/C6H11NO2/c1-6(5(7)8)3-4(6)9-2/h4H,3H2,1-2H3,(H2,7,8)	InChI=1S/C6H11NO2/c1-6(5(7)8)3-4(6)9-2/h4H,3H2,1-2H3,(H2,7,8)/t4-,6-/m0/s1
