21
gdb 42882	2.15598	1.71065	1.49171	2.7744	81.23	-0.2302	-0.0133	0.2169	1039.7664	0.185593	-387.117869	-387.110184	-387.10924	-387.149686	31.22	
O	 0.0444061781	 0.0215252493	 0.0356582363	-0.32086
C	-0.0044083069	 1.2184774979	 0.0323090021	 0.410605
C	-1.1450707806	 2.2498006932	 0.1015328976	-0.120076
C	-0.0678100519	 3.2633630723	 0.60788112	-0.255348
C	 1.0639064762	 2.3279641672	 0.0771342316	-0.113461
C	 1.6176662959	 2.6880290074	-1.3169789755	-0.216027
C	 0.5921876806	 3.2592556827	-2.3149379355	-0.193828
C	-0.7029920013	 2.4414990951	-2.46690227	-0.202506
C	-1.707958942	 2.5577336745	-1.3023459748	-0.207081
H	-1.9582998079	 2.0164521804	 0.7938601171	 0.086842
H	-0.1144863361	 4.268893812	 0.1865051091	 0.101621
H	-0.0590332265	 3.3377724166	 1.6974725718	 0.106181
H	 1.8923428633	 2.1184082039	 0.7600582155	 0.08926
H	 2.4297391897	 3.4142182373	-1.1949463016	 0.102034
H	 2.0726294474	 1.7831303237	-1.7395563441	 0.114236
H	 0.3377407122	 4.2905517121	-2.0392256086	 0.097812
H	 1.0841320173	 3.3279838105	-3.2919448537	 0.098188
H	-1.216418362	 2.7591830519	-3.3815784118	 0.094894
H	-0.4453744288	 1.3849691181	-2.6180638904	 0.115737
H	-2.5374858781	 1.8697097669	-1.499076295	 0.110688
H	-2.1365044984	 3.5681526969	-1.28710329	 0.10109
120.3702	192.4751	219.9784	300.1012	323.273	347.2711	432.3647	475.4687	523.137	642.0356	724.1445	757.7299	783.125	809.5594	840.414	875.2808	903.4107	914.9886	963.8741	1008.2054	1022.7113	1054.4275	1062.018	1085.6078	1130.4692	1146.6419	1167.3704	1169.4929	1209.5878	1234.2088	1258.6376	1271.3492	1294.4403	1315.5787	1325.4304	1369.5587	1382.4872	1387.4571	1390.5839	1480.0097	1481.5221	1484.9523	1493.2385	1509.2039	1882.2845	3020.9772	3021.5885	3022.279	3026.4409	3056.5717	3062.0045	3066.4239	3068.1507	3070.1633	3075.8691	3081.8118	3127.2292
O=C1C2CC1CCCC2	O=C1[C@H]2C[C@@H]1CCCC2	
InChI=1S/C8H12O/c9-8-6-3-1-2-4-7(8)5-6/h6-7H,1-5H2	InChI=1S/C8H12O/c9-8-6-3-1-2-4-7(8)5-6/h6-7H,1-5H2/t6-,7+
