23
gdb 59043	2.45043	1.22749	0.96832	1.7096	88.17	-0.224	0.0249	0.2489	1351.4275	0.204631	-388.309457	-388.299432	-388.298488	-388.344568	37.307	
C	 0.3836193012	-0.9442401568	 1.3248743689	-0.393838
C	 0.0544799461	-0.1411933531	 0.0608405856	-0.077285
C	 0.3186748697	 1.3624937304	 0.2872331962	-0.388124
C	 0.7821953842	-0.6442869507	-1.1585867369	 0.324059
C	 1.732713024	-1.5729127596	-1.2440239418	-0.231499
C	 2.1881539716	-1.733093546	-2.6636858163	-0.117263
O	 1.3671804956	-0.8488746345	-3.4183502491	-0.280793
C	 0.5055600628	-0.1049225186	-2.5515308668	 0.049956
C	-0.942179834	-0.2545243496	-3.0223184021	-0.393315
H	 0.1703458186	-2.0085753057	 1.1887095162	 0.117012
H	 1.4411844405	-0.8421354478	 1.5922258777	 0.117618
H	-0.2087440776	-0.5848939329	 2.172003187	 0.110304
H	-1.0230118691	-0.2516272648	-0.1322080479	 0.085132
H	 1.3822699091	 1.542556327	 0.4773020958	 0.119888
H	 0.0266241166	 1.965046516	-0.5776883735	 0.119538
H	-0.2466002677	 1.7241157352	 1.152156087	 0.112624
H	 2.1505671069	-2.1485705317	-0.4282644288	 0.096955
H	 3.251284228	-1.4689224418	-2.7930193544	 0.098531
H	 2.0677032066	-2.7617115661	-3.0387868251	 0.101439
H	 0.7824195274	 0.9613994889	-2.6167200759	 0.076332
H	-1.2736396984	-1.2927664973	-2.9240167688	 0.116838
H	-1.6134615384	 0.3862453353	-2.4409723271	 0.110776
H	-1.0201039835	 0.0361794141	-4.0735547199	 0.125117
48.6775	85.2287	156.6799	185.5852	228.603	236.1834	262.7577	283.3675	306.5859	380.5971	428.6796	453.4739	552.4586	665.1034	762.3154	799.5697	833.3406	867.34	886.6616	927.3723	960.5814	968.7996	1030.8734	1046.216	1059.3081	1084.9824	1113.8758	1121.5025	1133.4649	1165.3374	1197.9953	1220.9939	1280.1858	1326.3309	1333.8677	1370.5516	1379.1925	1386.7364	1398.5363	1401.2113	1418.1842	1485.9895	1487.9474	1491.3612	1495.437	1502.7092	1512.7182	1525.1053	1719.7974	2946.0556	2960.3619	2982.6279	2992.5419	3031.4079	3035.2623	3036.5582	3098.5341	3104.5319	3107.8374	3109.6661	3110.1662	3119.5291	3217.0515
CC(C)C1=CCOC1C	CC(C)C1=CCO[C@H]1C	
InChI=1S/C8H14O/c1-6(2)8-4-5-9-7(8)3/h4,6-7H,5H2,1-3H3	InChI=1S/C8H14O/c1-6(2)8-4-5-9-7(8)3/h4,6-7H,5H2,1-3H3/t7-/m0/s1
