14
gdb 131172	3.28412	1.45404	1.00903	5.1454	67.31	-0.2	-0.0198	0.1802	1080.0854	0.102609	-470.010311	-470.00273	-470.001786	-470.043994	28.	
O	-0.4026137528	 1.0792883493	-0.8730827748	-0.451853
C	-0.1354635094	-0.1582676681	-0.4215489594	 0.140186
C	 0.1541676713	-1.3461044628	-1.081408445	 0.319604
N	 0.3496770024	-2.2964059331	-0.1239618761	-0.254056
N	 0.2090125095	-1.8149020727	 1.1185878006	-0.224795
C	-0.0849548359	-0.528859556	 0.9441185476	-0.062719
O	 0.3048193356	-1.7943888882	-2.377759644	-0.223285
C	 0.0511235548	-1.0472647245	-3.4531885776	 0.136422
N	-0.3358583306	 0.1589901933	-3.4263873489	-0.469838
H	-0.4458010018	 1.0107168644	-1.8533999696	 0.310644
H	 0.5747595296	-3.2642708283	-0.2770383107	 0.276426
H	-0.2543632261	 0.1180412968	 1.7914573491	 0.119537
H	 0.2336946186	-1.6472746201	-4.3458644305	 0.133243
H	-0.4665792251	 0.5292744901	-4.3629691306	 0.250485
12.4787	204.3427	264.541	294.1297	304.1441	373.0056	380.4532	452.6421	607.6312	647.2501	697.6494	724.3837	749.9307	791.6069	802.0132	861.3137	934.8492	1023.2535	1086.051	1130.6336	1175.3355	1246.5568	1294.4159	1324.4446	1365.5222	1410.1784	1449.9342	1490.0905	1564.35	1652.2536	1713.3799	3130.8536	3254.4697	3400.2058	3546.4564	3679.2944
OC1=C(NN=C1)OC=N	Oc1c([nH]nc1)O[CH][NH]	
InChI=1S/C4H5N3O2/c5-2-9-4-3(8)1-6-7-4/h1-2,5,8H,(H,6,7)	InChI=1S/C4H5N3O2/c5-2-9-4-3(8)1-6-7-4/h1-2,5,8H,(H,6,7)
