18
gdb 8876	4.2806	1.02482	0.97168	2.5302	64.72	-0.2633	-0.0267	0.2366	1239.8919	0.150857	-422.087121	-422.077384	-422.07644	-422.122502	33.694	
C	 0.0041860092	 1.6065705253	-0.0090610238	-0.395217
C	 0.0127078498	 0.0639325271	-0.0440670939	-0.079541
C	-1.4094057949	-0.5051455845	-0.0324487209	-0.074601
O	-2.0213114291	-0.0994243012	 1.1813371588	-0.424162
C	 0.7584283309	-0.4075500971	-1.2778322527	 0.354331
O	 0.2381844631	-0.4787708611	-2.3737874389	-0.340682
C	 2.2233363552	-0.7895486297	-1.1325068623	-0.136632
O	 2.7986308841	-1.0975801336	-2.3645445747	-0.419689
H	 1.0179511377	 2.0130397905	 0.0531829309	 0.119208
H	-0.4696967949	 2.0042228855	-0.9118942531	 0.133142
H	-0.5615084438	 1.9442463526	 0.860989591	 0.14692
H	 0.5370140143	-0.3017582642	 0.8477778969	 0.09353
H	-1.9514125401	-0.1319979516	-0.9119339403	 0.111645
H	-1.3692718927	-1.6027540946	-0.1109386205	 0.092044
H	-2.9414622056	-0.3772300501	 1.162269807	 0.29156
H	 2.756125536	 0.038031235	-0.6357550968	 0.118308
H	 2.2715003638	-1.6434803417	-0.4328617725	 0.116055
H	 2.066367157	-1.0436847568	-3.0004769442	 0.293779
27.8842	99.9076	111.604	180.7759	214.5403	236.7093	244.0656	271.305	349.4098	356.6938	438.7312	483.661	567.1251	710.7437	842.3891	875.5976	935.6577	978.9599	1032.1878	1054.5982	1095.7556	1116.1504	1148.9286	1168.5016	1242.2624	1251.5735	1268.3461	1306.1404	1345.6263	1362.7818	1400.1103	1450.0705	1456.4975	1486.6149	1494.2553	1503.6584	1523.2896	1786.6937	2954.5756	2980.3713	2986.623	3025.2789	3042.0153	3045.4277	3113.5187	3141.3783	3673.5761	3836.0219
CC(CO)C(=O)CO	C[C@@H](CO)C(=O)CO	
InChI=1S/C5H10O3/c1-4(2-6)5(8)3-7/h4,6-7H,2-3H2,1H3	InChI=1S/C5H10O3/c1-4(2-6)5(8)3-7/h4,6-7H,2-3H2,1H3/t4-/m0/s1
