18
gdb 121065	4.60842	0.89253	0.82551	4.0479	69.98	-0.2519	0.0554	0.3073	1410.1583	0.147674	-476.226893	-476.217964	-476.21702	-476.261784	31.337	
C	 0.6717958913	 0.9968848538	-0.1506775376	-0.241528
O	 0.920663793	 0.2891479849	 1.047765922	-0.232426
C	-0.1290943012	-0.5640405406	 1.4515700016	-0.099125
C	-0.0149289811	-1.943923245	 0.7908313953	 0.063544
C	 1.2264006267	-2.7239945638	 1.2384824273	-0.118022
O	 0.7209487317	-3.5464457046	 2.2961862659	-0.251507
C	-0.6362172621	-3.6320541671	 2.1868663595	 0.488981
N	-1.4071402967	-4.3724411193	 2.8470226078	-0.575057
O	-1.0912391769	-2.7768204309	 1.2356787325	-0.231986
H	-0.2308240634	 1.6197185297	-0.0674436943	 0.117272
H	 1.5344909662	 1.6443587271	-0.3230947006	 0.136538
H	 0.5547110806	 0.3337233482	-1.0201118513	 0.109903
H	-0.0461518904	-0.6822196636	 2.5380519184	 0.123825
H	-1.1151739738	-0.1316211221	 1.2320877862	 0.110458
H	-0.0839148158	-1.8613034141	-0.2963876845	 0.102615
H	 1.6339114747	-3.3607870839	 0.4458035197	 0.120301
H	 2.012319667	-2.075019379	 1.6286607783	 0.144194
H	-0.8686474999	-4.9613166098	 3.4777434238	 0.232021
59.6539	68.2566	103.0522	142.3452	170.4043	252.9925	343.5744	414.6851	453.7188	503.0789	717.6333	726.3386	775.8582	805.0847	865.4906	901.7642	944.4992	966.6748	1003.4076	1050.8656	1098.2132	1111.6927	1128.273	1162.8301	1181.6295	1217.1561	1233.8257	1253.9691	1298.7402	1341.0851	1372.9564	1408.5719	1416.4793	1477.3464	1491.0997	1497.2728	1508.4568	1525.9328	1800.8801	2985.4734	3012.2806	3036.0059	3045.423	3069.4707	3092.9348	3121.1736	3124.6832	3538.1219
COCC1COC(=N)O1	COC[C@H]1CO[C]([NH])O1	
InChI=1S/C5H9NO3/c1-7-2-4-3-8-5(6)9-4/h4,6H,2-3H2,1H3	InChI=1S/C5H9NO3/c1-7-2-4-3-8-5(6)9-4/h4,6H,2-3H2,1H3/t4-/m0/s1
