16
gdb 27737	3.72511	1.18743	0.90549	5.2464	79.9	-0.2088	-0.0389	0.1698	1235.1315	0.124532	-437.955449	-437.946995	-437.946051	-437.988909	30.913	
C	-0.0422339087	 1.5143725153	 0.0660520485	-0.504939
C	-0.0068885562	 0.0259735599	-0.0437433415	 0.338254
C	-0.0441455715	-0.7763872949	-1.1794354184	-0.346045
C	 0.0156639148	-2.1131592815	-0.7403889906	 0.366922
O	 0.0070295842	-3.218203389	-1.4880522584	-0.4238
C	 0.0889205987	-2.1103197125	 0.6618528681	 0.074694
N	 0.0725172238	-0.7730484056	 1.0535871524	-0.394618
C	 0.1631517628	-3.275267123	 1.4643004128	 0.066185
O	 0.1688564235	-4.4105210989	 0.9736878709	-0.364148
H	 0.8577439262	 1.9061666566	 0.5546501484	 0.139642
H	-0.1058980581	 1.9626698636	-0.9270119025	 0.148541
H	-0.9072453886	 1.8575654248	 0.6458498609	 0.139671
H	-0.1070785596	-0.4290271415	-2.1982609308	 0.11173
H	 0.0610574437	-3.9640371329	-0.8492426227	 0.313975
H	 0.1134064191	-0.4472499664	 2.0039339483	 0.263561
H	 0.217082266	-3.1423717639	 2.5648548546	 0.070376
51.4683	128.8675	195.3734	224.1081	272.3951	287.1596	337.4337	419.4406	461.4252	492.9529	594.2469	643.3239	711.6524	774.6062	776.595	801.2521	833.5371	1004.9462	1010.946	1011.201	1057.8976	1162.3922	1190.7487	1261.2172	1319.5805	1384.0782	1414.472	1423.7175	1480.854	1481.6931	1511.6374	1533.7033	1557.323	1618.6624	1700.3547	2908.0172	3027.5949	3076.6931	3135.4018	3262.4118	3448.316	3673.6576
CC1=CC(O)=C(N1)C=O	Cc1cc(O)c([nH]1)C=O	
InChI=1S/C6H7NO2/c1-4-2-6(9)5(3-8)7-4/h2-3,7,9H,1H3	InChI=1S/C6H7NO2/c1-4-2-6(9)5(3-8)7-4/h2-3,7,9H,1H3
