27
gdb 118470	2.04955	0.97834	0.70631	0.9153	93.26	-0.2418	0.0852	0.3271	1752.3976	0.248983	-390.696575	-390.684337	-390.683392	-390.734578	43.791	
C	-0.256684926	 1.8335211048	-1.2362668828	-0.382386
C	-0.2155245082	 0.3676946954	-0.7952670302	-0.171282
C	 0.7977749044	-0.4631522737	-1.5901188537	-0.171945
C	 0.8599728051	-1.9383391495	-1.1727802774	 0.11208
O	-0.4469303853	-2.5059311921	-1.3203063225	-0.252933
C	-1.0411649213	-2.9726125685	-0.1308132112	-0.23779
C	 1.8552078758	-2.7722015003	-2.0090434447	 0.041013
C	 3.2920288742	-2.2364239689	-1.9186168052	-0.39854
C	 1.8124797638	-4.2526294575	-1.6063205094	-0.398794
H	 0.7189913952	 2.31599597	-1.1084450891	 0.110454
H	-0.5304102332	 1.920243531	-2.2937552797	 0.11431
H	-0.9883531816	 2.4047721456	-0.6561249647	 0.109307
H	 0.0294742431	 0.316419992	 0.2745500623	 0.086496
H	-1.2082372437	-0.0798716329	-0.9098412988	 0.11042
H	 0.547286477	-0.417577726	-2.6587798807	 0.096489
H	 1.7921913887	-0.0155790237	-1.4810842218	 0.093164
H	 1.1619684829	-1.9968584631	-0.1138358487	 0.05938
H	-0.4543070684	-3.7752361078	 0.3401415153	 0.103763
H	-1.1810642798	-2.1690947254	 0.6073974604	 0.104018
H	-2.0236538897	-3.372619236	-0.3980318594	 0.121721
H	 1.5216161383	-2.6983718428	-3.0536361365	 0.077335
H	 3.3950120297	-1.2350586693	-2.344165349	 0.11667
H	 3.6327696219	-2.1959972315	-0.876494364	 0.109661
H	 3.9782221601	-2.8950055002	-2.4608130062	 0.111127
H	 0.8002898858	-4.6537398725	-1.6894563229	 0.126577
H	 2.4682382853	-4.8474207945	-2.2505259822	 0.106298
H	 2.1551332961	-4.3908421126	-0.5730829871	 0.103385
45.7629	80.0486	99.833	104.4858	131.8094	170.2223	205.4398	242.0862	247.5287	271.1972	297.9235	312.8355	346.6004	393.8912	445.1007	474.1869	552.9271	748.7967	829.5514	855.733	904.1056	918.7031	929.1781	962.7965	970.8919	1027.3796	1064.6371	1076.6707	1133.9101	1137.7193	1149.7771	1182.9414	1186.6379	1191.3777	1228.5588	1264.7957	1289.947	1326.4093	1332.7487	1345.7288	1372.9447	1390.2772	1395.8612	1398.6843	1413.2865	1417.0503	1474.2303	1481.6902	1486.9433	1490.9665	1494.598	1495.4484	1500.3177	1504.1357	1507.7431	1512.5351	1519.2873	2962.1541	2982.3418	3008.8602	3012.4297	3021.9561	3024.0597	3027.6773	3028.9401	3030.1465	3060.8981	3076.6874	3085.975	3092.7478	3098.136	3099.8416	3101.0074	3113.5341	3126.526
CCCC(OC)C(C)C	CCC[C@@H](OC)C(C)C	
InChI=1S/C8H18O/c1-5-6-8(9-4)7(2)3/h7-8H,5-6H2,1-4H3	InChI=1S/C8H18O/c1-5-6-8(9-4)7(2)3/h7-8H,5-6H2,1-4H3/t8-/m1/s1
