15
gdb 26645	3.3061	1.27815	0.92628	0.6995	77.71	-0.1857	0.0149	0.2006	1182.0295	0.112914	-416.806262	-416.797595	-416.796651	-416.839108	32.992	
N	-0.1947567881	 1.3672950683	-0.1178909383	-0.639335
C	-0.0251062584	-0.0452395168	-0.0757339875	-0.084321
C	-1.0961026568	-0.8980728727	-0.1324045339	 0.426045
O	-2.412932926	-0.6288985512	-0.2300402984	-0.439405
N	-0.6496868924	-2.1864689365	-0.0742948774	-0.317555
C	 0.7265731452	-2.1880168711	 0.0214947638	-0.217868
C	 1.1551746617	-0.8753592449	 0.023698364	 0.119864
C	 2.4864656944	-0.4127313892	 0.1067021628	 0.219526
C	 3.6078538602	 0.025250284	 0.1756497107	-0.440011
H	 0.2985365721	 1.7755093738	-0.9072000918	 0.243206
H	 0.1866293084	 1.8105800951	 0.7133926742	 0.243208
H	-2.4652727246	 0.3386184389	-0.2542083663	 0.306712
H	-1.2431542812	-2.996993038	-0.0983287068	 0.271439
H	 1.2837527027	-3.1070484622	 0.0799975138	 0.12885
H	 4.6009728728	 0.3942327426	 0.2372419911	 0.179643
117.6211	127.9203	205.2744	243.0742	262.7611	297.0543	407.8494	421.371	496.136	508.0086	517.7447	525.8797	590.468	638.6181	648.2625	686.3148	713.7362	729.1766	772.2264	878.7494	1051.0567	1092.7218	1188.61	1219.2922	1246.8751	1282.8064	1377.0116	1407.4904	1544.9586	1568.9211	1639.708	1697.0142	2224.606	3283.4712	3481.5701	3504.9776	3539.4086	3687.765	3736.8966
NC1=C(O)NC=C1C#C	Nc1c(O)[nH]cc1C#C	
InChI=1S/C6H6N2O/c1-2-4-3-8-6(9)5(4)7/h1,3,8-9H,7H2	InChI=1S/C6H6N2O/c1-2-4-3-8-6(9)5(4)7/h1,3,8-9H,7H2
