21
gdb 120585	3.10892	0.87381	0.8557	0.8612	87.2	-0.2266	0.054	0.2806	1508.4745	0.178883	-387.042167	-387.03169	-387.030745	-387.077786	38.452	
C	 0.0186818906	 1.3967725784	 0.1360415475	-0.387604
C	-0.1516774048	-0.0800719291	 0.4438823148	-0.040981
O	 1.1059169742	-0.5961506568	 0.8687481267	-0.244748
C	 1.0813951933	-1.955264414	 1.13594021	 0.098375
C	 2.1985928014	-2.5026653868	 1.9520829502	-0.355627
C	 0.7945412797	-2.4483832279	 2.5652166841	 0.098853
C	 0.540867457	-1.4206140822	 3.6571791077	-0.467644
C	 0.079721075	-3.688322195	 2.6880863376	 0.27988
C	-0.5297845541	-4.7217743503	 2.7870527332	-0.464619
H	 0.769609445	 1.5419179502	-0.645646596	 0.129035
H	-0.9280780174	 1.8244219351	-0.2069021144	 0.11764
H	 0.3422243172	 1.9419129574	 1.0273861204	 0.127371
H	-0.9070885668	-0.234405438	 1.2281811807	 0.099474
H	-0.4921026942	-0.6275345945	-0.4493620585	 0.09461
H	 0.681221926	-2.5717938059	 0.3306548329	 0.096015
H	 2.61052787	-3.4699295641	 1.691149885	 0.125384
H	 2.9111988987	-1.7823998827	 2.3392872603	 0.126718
H	 1.0181731389	-0.4725671277	 3.3993441783	 0.129973
H	-0.5314415374	-1.2452580158	 3.7866038076	 0.123524
H	 0.941879108	-1.765760188	 4.6151152782	 0.125118
H	-1.0642146203	-5.6344313724	 2.8779756036	 0.189252
61.7363	88.3526	99.6889	158.4754	208.9575	225.349	230.4151	265.6908	327.6734	360.5151	452.0634	517.3355	534.2064	546.3809	575.9028	641.5996	693.5992	795.0324	820.8731	854.8972	915.9853	935.5294	978.7032	1043.5327	1066.0854	1082.2861	1108.5182	1125.2525	1157.4134	1186.5805	1211.4126	1273.8307	1291.6268	1296.9686	1379.3815	1404.9377	1409.6109	1440.0037	1480.6355	1483.6404	1493.8386	1499.3095	1502.8381	1526.8075	2228.5101	2978.5894	3014.9956	3041.1065	3045.6238	3101.9161	3104.291	3120.1582	3122.5112	3129.8265	3140.6302	3234.8108	3504.3255
CCOC1CC1(C)C#C	CCO[C@H]1C[C@]1(C)C#C	
InChI=1S/C8H12O/c1-4-8(3)6-7(8)9-5-2/h1,7H,5-6H2,2-3H3	InChI=1S/C8H12O/c1-4-8(3)6-7(8)9-5-2/h1,7H,5-6H2,2-3H3/t7-,8-/m0/s1
