23
gdb 106406	2.51841	1.29202	1.23496	1.711	85.93	-0.2303	0.0872	0.3176	1221.1212	0.203506	-388.238821	-388.229016	-388.228072	-388.273052	37.694	
C	 0.1591448119	 1.66675438	-0.1257946116	-0.380021
C	 0.0062199594	 0.1427245965	-0.1864596024	-0.320918
C	 0.6182662207	-0.4635902913	-1.4161210322	 0.396334
C	 0.4056764304	-0.1170625312	-2.9177384604	-0.287651
C	 1.6119079663	-1.0702732018	-2.7870924589	 0.007366
O	 2.0788715251	-0.2475556474	-1.6490491641	-0.34966
C	 0.8324531397	-1.9830989463	-1.7843926208	 0.301956
C	 1.6935099702	-2.7849439768	-0.810364801	-0.461319
C	-0.346059596	-2.8291341669	-2.2639491781	-0.480249
H	 1.2139572027	 1.9486734878	-0.1811954429	 0.139721
H	-0.3608009357	 2.1503079153	-0.958917796	 0.117779
H	-0.2559732754	 2.0638272398	 0.805044591	 0.110939
H	 0.4735887441	-0.3179697451	 0.692629165	 0.111799
H	-1.0546312382	-0.1376527825	-0.1598885151	 0.104876
H	-0.4992570861	-0.4467129014	-3.4283258952	 0.093619
H	 0.6812212671	 0.9041975935	-3.1815233317	 0.105289
H	 2.356880627	-1.3462199637	-3.5355704763	 0.084027
H	 2.5440157276	-2.1994865949	-0.4622700515	 0.137664
H	 1.1033071033	-3.0999610858	 0.0582351541	 0.107643
H	 2.0671263132	-3.696589036	-1.2908811995	 0.107703
H	 0.0188240926	-3.7349132767	-2.7616205553	 0.119073
H	-0.9470621314	-3.1564821961	-1.4078079714	 0.118763
H	-1.0135232186	-2.317833129	-2.9588570758	 0.115266
68.8933	140.1866	154.0186	170.6827	218.8179	222.9283	276.7172	339.6703	357.5455	390.7835	487.5603	539.7084	607.9588	618.3357	703.3648	718.9623	765.0031	812.4032	888.8722	919.2672	949.1441	951.6038	967.5208	998.5046	1013.0176	1034.2252	1053.8529	1122.0863	1129.9964	1157.8175	1193.1626	1203.7926	1214.4246	1241.6323	1282.5466	1303.5819	1319.6159	1387.9616	1394.9411	1408.2064	1419.6013	1470.4861	1480.1351	1487.8487	1496.6597	1500.2106	1507.2879	1513.7604	1514.8493	3025.1924	3027.7778	3034.3401	3042.0197	3060.6407	3079.2476	3082.3734	3086.5315	3102.8494	3109.2095	3123.3024	3127.6907	3150.841	3156.6097
CCC12CC(O1)C2(C)C	CC[C@@]12C[C@@H](O1)C2(C)C	
InChI=1S/C8H14O/c1-4-8-5-6(9-8)7(8,2)3/h6H,4-5H2,1-3H3	InChI=1S/C8H14O/c1-4-8-5-6(9-8)7(8,2)3/h6H,4-5H2,1-3H3/t6-,8+/m1/s1
