19
gdb 75150	3.26662	1.07043	1.03296	0.9322	84.	-0.2327	0.0296	0.2623	1269.7938	0.156924	-385.872925	-385.863582	-385.862637	-385.906711	35.717	
C	 0.5795036354	 1.4780274983	 0.0879771129	-0.498346
C	 0.1130861464	 0.0631696391	-0.0414847833	 0.337528
C	 0.1785598827	-0.719708942	-1.1193206594	-0.16748
C	-0.4258092288	-2.0788260788	-0.891274508	-0.292465
C	-0.5990709531	-2.1400356476	 0.6623555753	 0.192105
O	 0.5446554671	-2.752277831	 1.2666703101	-0.454241
C	-0.553956865	-0.6533917466	 1.1113904091	-0.320985
C	-1.8195777583	-2.8432951827	 1.0667466492	 0.289856
C	-2.8032755773	-3.4551631651	 1.3897305061	-0.478182
H	 1.3306870085	 1.5755707973	 0.8819763245	 0.128709
H	 1.018820823	 1.8445729379	-0.8437548958	 0.123021
H	-0.2480024916	 2.1461063724	 0.360048446	 0.124464
H	 0.5942757403	-0.4211101244	-2.0758936496	 0.085435
H	-1.3897457696	-2.1889314364	-1.4042339057	 0.11478
H	 0.2103879651	-2.9068856971	-1.2259554238	 0.101569
H	 0.5102073201	-3.6934514564	 1.0629441419	 0.279966
H	 0.000431016	-0.5809575713	 2.0528627039	 0.123579
H	-1.5612791694	-0.2606643747	 1.2956753434	 0.114933
H	-3.6756713917	-3.9855552509	 1.6822759332	 0.195754
65.6379	140.3225	177.441	187.5259	233.3999	296.3784	311.2517	391.0364	403.003	439.2184	471.7733	551.7384	590.9173	626.7705	647.5275	661.8341	787.2066	812.8652	881.4239	912.8047	936.3188	964.2806	1029.2948	1038.8558	1053.3055	1081.9779	1104.5909	1172.5459	1195.3651	1251.3565	1283.7718	1303.3109	1345.2274	1377.0951	1415.3712	1465.1352	1473.1183	1479.1479	1489.0982	1728.5346	2229.4294	3016.2959	3021.9253	3034.3869	3056.6657	3062.3296	3079.3787	3110.196	3186.4352	3500.2501	3806.5589
CC1=CCC(O)(C1)C#C	CC1=CC[C@@](O)(C1)C#C	
InChI=1S/C8H10O/c1-3-8(9)5-4-7(2)6-8/h1,4,9H,5-6H2,2H3	InChI=1S/C8H10O/c1-3-8(9)5-4-7(2)6-8/h1,4,9H,5-6H2,2H3/t8-/m1/s1
