17
gdb 77178	3.33433	1.09378	0.9128	2.9154	69.26	-0.2515	-0.027	0.2245	1256.0956	0.133938	-458.936863	-458.928145	-458.9272	-458.970808	31.578	
O	 0.7140225973	 0.6818695798	 0.6829869987	-0.433608
C	 0.2046778945	-0.3670733634	-0.0780786076	 0.052761
C	-1.3484133115	-0.6456978696	-0.1763640587	-0.074053
C	-1.16991444	-0.9678280559	-1.6946020678	-0.368146
C	 0.1498127821	-0.2013476214	-1.5951584769	 0.332337
O	 0.7469737149	 0.5451671337	-2.3206703242	-0.308402
C	-1.8852621197	-1.7221037425	 0.7270661774	 0.060175
C	-2.868895359	-2.7187902842	 0.2880772166	-0.181623
O	-1.4851081926	-3.0608754962	 0.4210336995	-0.231273
H	 0.9128398618	 1.4048712874	 0.0744754727	 0.297185
H	 0.6989712594	-1.3086085771	 0.1989498581	 0.125711
H	-1.8954562886	 0.2901013348	-0.0275814799	 0.096465
H	-1.0105565001	-2.0402314557	-1.8450606194	 0.151632
H	-1.9010898355	-0.5892286128	-2.4095331307	 0.131775
H	-1.8454894826	-1.4828867612	 1.7910647613	 0.107738
H	-3.5342079044	-3.181032909	 1.0152166175	 0.123014
H	-3.2438688559	-2.6888508766	-0.7337400167	 0.118314
78.6427	91.896	147.4388	175.8334	220.5801	248.262	314.691	405.2974	455.1746	591.1488	625.4781	663.0596	768.5971	787.9241	840.0187	891.0413	906.7907	989.9917	1002.5456	1034.8862	1082.0598	1098.3145	1128.2432	1161.4088	1172.7075	1176.3178	1184.2352	1213.182	1234.3193	1285.7678	1325.1581	1371.3158	1406.3284	1425.5368	1446.4724	1526.3674	1874.5049	3021.7027	3066.4584	3073.9748	3088.1901	3101.4919	3140.6317	3176.5048	3771.6008
OC1C(CC1=O)C1CO1	O[C@H]1[C@@H](CC1=O)[C@H]1CO1	
InChI=1S/C6H8O3/c7-4-1-3(6(4)8)5-2-9-5/h3,5-6,8H,1-2H2	InChI=1S/C6H8O3/c7-4-1-3(6(4)8)5-2-9-5/h3,5-6,8H,1-2H2/t3-,5+,6-/m0/s1
