17
gdb 81309	2.3646	1.69745	1.60666	3.576	67.56	-0.2351	0.0132	0.2483	938.9174	0.139607	-455.15119	-455.143977	-455.143033	-455.182647	28.885	
O	 0.1581773293	 1.4334419809	 0.1674048808	-0.432156
C	 0.0142165459	 0.0564266224	-0.0057170391	 0.154509
C	-1.3798898581	-0.631139887	-0.0934257697	-0.071388
C	-2.3356573558	 0.193262674	-0.9502911904	-0.15613
N	-1.610137057	 0.6731516231	-2.1303192913	-0.330481
C	-0.3749970095	 0.1801468027	-2.4924722369	 0.432496
O	 0.1592051993	 0.42994913	-3.5507585278	-0.370737
C	 0.2478324257	-0.6517098048	-1.3748575348	-0.191798
N	-0.7839328542	-1.6826674601	-0.9870209117	-0.322018
H	-0.2912669361	 1.8769259943	-0.562934666	 0.2945
H	 0.6219219095	-0.4229185002	 0.7669742513	 0.098663
H	-1.8722638758	-0.9852976047	 0.8146122142	 0.080138
H	-3.1882414118	-0.4303710633	-1.2450840752	 0.125645
H	-2.7144179533	 1.0456597447	-0.3727589668	 0.116184
H	-2.1253883423	 1.1278166756	-2.8709657048	 0.251105
H	 1.2325066192	-1.0100179567	-1.6715265044	 0.093436
H	-0.3223131149	-2.3761184509	-0.4003088576	 0.228033
122.7395	191.7969	236.9502	339.7922	413.5914	444.252	469.369	525.7352	548.3282	609.0894	646.4362	762.1553	774.3479	830.481	861.5491	888.0714	916.8625	998.6694	1013.0342	1023.6225	1074.2718	1110.0402	1145.169	1150.7075	1173.6118	1237.2265	1247.9723	1286.8916	1294.4702	1310.1203	1363.6899	1376.1909	1410.3655	1441.1242	1468.2283	1518.0385	1820.7162	3020.9117	3059.1681	3077.0231	3095.4898	3134.3436	3472.2582	3602.7075	3772.6432
OC1C2CNC(=O)C1N2	O[C@H]1[C@H]2CNC(=O)[C@@H]1N2	
InChI=1S/C5H8N2O2/c8-4-2-1-6-5(9)3(4)7-2/h2-4,7-8H,1H2,(H,6,9)	InChI=1S/C5H8N2O2/c8-4-2-1-6-5(9)3(4)7-2/h2-4,7-8H,1H2,(H,6,9)/t2-,3-,4+/m1/s1
