18
gdb 116624	4.56521	0.95123	0.84824	2.8348	76.67	-0.2493	0.0054	0.2547	1393.7216	0.147446	-439.07723	-439.068819	-439.067875	-439.111547	30.691	
C	-0.393264029	 1.5157113269	-0.0088361144	-0.366376
C	 0.2810390145	 0.1494397784	 0.0985123696	-0.13418
N	 0.9854440392	-0.1662208247	-1.1395923815	-0.345957
C	 2.017928673	-0.8838728401	-1.1000051995	 0.484201
O	 2.5577854441	-1.4545502992	 0.0299976532	-0.264027
C	 3.8823030349	-1.9534351952	-0.2231313912	-0.112416
C	 4.0516993421	-1.9225670125	-1.7269573772	 0.023244
O	 3.0400029723	-2.6698437688	-2.3937865056	-0.242306
C	 2.8697001316	-1.242689561	-2.2681275226	-0.096405
H	 0.3505987657	 2.3065245648	-0.1477687751	 0.114764
H	-1.0740959772	 1.5421288155	-0.8643998825	 0.12364
H	-0.9633902228	 1.7381968217	 0.8987491846	 0.106406
H	 0.9498169589	 0.1138368276	 0.9690566782	 0.104693
H	-0.4827015235	-0.6234804238	 0.2620243188	 0.112289
H	 4.6165168414	-1.3067583915	 0.272578857	 0.119087
H	 3.9517741655	-2.9633455291	 0.1916362443	 0.133443
H	 5.0352938757	-1.8977136277	-2.1859585943	 0.115758
H	 2.8252463335	-0.6688108712	-3.1853430119	 0.124143
25.4619	114.3802	145.5392	197.8629	252.0677	301.2013	381.4681	432.7175	445.6908	684.2315	722.2931	765.5245	796.9713	831.1571	856.2363	877.8935	920.8189	940.6574	979.5537	1049.5668	1071.4831	1080.8605	1109.0672	1117.8755	1144.7831	1205.2781	1225.6501	1246.7985	1296.1359	1318.7757	1381.6104	1382.4433	1409.0076	1422.104	1482.9052	1489.0102	1502.1627	1506.2413	1799.6448	3004.2879	3034.6229	3036.0902	3039.0242	3092.8248	3108.7305	3117.6368	3167.7232	3207.3185
CCN=C1OCC2OC12	CCN=C1OC[C@H]2O[C@@H]12	
InChI=1S/C6H9NO2/c1-2-7-6-5-4(9-5)3-8-6/h4-5H,2-3H2,1H3	InChI=1S/C6H9NO2/c1-2-7-6-5-4(9-5)3-8-6/h4-5H,2-3H2,1H3/t4-,5-/m1/s1
