21
gdb 90932	2.94261	1.41633	1.40041	1.7956	81.23	-0.2205	0.0822	0.3027	1085.2692	0.183336	-387.069866	-387.06171	-387.060766	-387.102081	32.529	
C	-0.0562347396	 1.5734813848	 0.0197952158	-0.413277
C	 0.0430536807	 0.0494047856	-0.0238194821	 0.042235
C	 0.8758691774	-0.5102773708	-1.2188701828	-0.247261
C	 1.6364623138	-1.6964135658	-0.628726353	-0.140692
C	 2.5138938156	-1.398695544	 0.576939545	 0.0491
O	 2.1687693197	-0.1309269902	 1.1393940049	-0.313867
C	 0.7649202368	-0.562531408	 1.1774675099	 0.035809
C	 1.1622537754	-2.0066403921	 0.7835949244	 0.27
C	 0.6710033475	-3.3046371673	 1.3451893416	-0.519289
H	 0.9410475764	 2.0105819185	 0.1262743933	 0.135608
H	-0.5079881005	 1.9675783313	-0.8962430942	 0.110841
H	-0.6681730313	 1.9102175773	 0.8637365937	 0.107422
H	-0.9667989642	-0.3839083993	-0.0551669142	 0.06711
H	 0.2340391843	-0.8199961623	-2.0488547676	 0.095863
H	 1.5599678469	 0.2538268294	-1.6029362224	 0.106545
H	 1.9482284856	-2.5233667687	-1.258906044	 0.081227
H	 3.5234010868	-1.7651960525	 0.7282194627	 0.096974
H	 0.3211291093	-0.3812695258	 2.1598631983	 0.070607
H	-0.3849441586	-3.4741488567	 1.1016420349	 0.119839
H	 1.2389343601	-4.1455446098	 0.9337572265	 0.12234
H	 0.771747128	-3.3379248937	 2.4360082295	 0.122866
128.9405	183.4757	198.6328	236.0727	245.1549	300.2399	364.6146	478.5617	510.3772	603.3852	621.7658	727.3257	759.9969	839.589	851.034	880.5654	898.7792	910.6407	944.9754	962.5832	990.8199	1022.0584	1039.7995	1053.584	1071.3693	1106.2419	1138.6163	1145.5824	1195.4326	1203.1376	1233.967	1257.9045	1279.172	1298.2735	1314.1152	1348.2299	1364.3628	1405.5866	1414.8761	1471.5137	1486.4493	1492.7272	1496.8805	1499.6685	1504.979	3004.4017	3019.8823	3032.3435	3045.8151	3077.543	3081.767	3086.535	3094.9546	3096.1928	3114.7302	3163.4821	3175.5018
CC1CC2C3OC1C23C	C[C@H]1C[C@H]2[C@H]3O[C@@H]1[C@@]23C	
InChI=1S/C8H12O/c1-4-3-5-7-8(5,2)6(4)9-7/h4-7H,3H2,1-2H3	InChI=1S/C8H12O/c1-4-3-5-7-8(5,2)6(4)9-7/h4-7H,3H2,1-2H3/t4-,5-,6-,7+,8+/m0/s1
