20
gdb 70471	3.20799	1.02145	0.91086	3.475	82.64	-0.2537	0.0265	0.2801	1364.7699	0.170188	-403.122654	-403.113539	-403.112595	-403.157394	33.605	
C	-0.0334132997	 1.5212147448	 0.0298915846	-0.506734
C	 0.0407291342	 0.0213103682	 0.0108390096	 0.341983
C	-0.8491559799	-0.8611141348	 0.8476610667	-0.319292
C	 0.6377754198	-0.9841556589	 1.0145866588	-0.098046
C	 1.1942595644	-1.8446513951	-0.124116377	-0.266623
C	 0.6327808696	-0.7919101813	-1.1330330215	 0.065226
O	-0.3212587716	-1.2368717029	-2.0931833274	-0.19288
C	 0.1243642844	-1.5251439525	-3.3290388889	 0.124616
N	-0.6512442334	-2.0402183846	-4.1820560722	-0.444474
H	 0.9208774891	 1.9764933356	-0.2599595332	 0.113534
H	-0.8011768586	 1.8858030214	-0.6627612421	 0.13209
H	-0.2893698295	 1.8902291542	 1.028221085	 0.120953
H	-1.3693937788	-0.3368700655	 1.6431817116	 0.1114
H	-1.4206371726	-1.6662548945	 0.3939325005	 0.125178
H	 1.1397196328	-0.7761583366	 1.9512266497	 0.089709
H	 2.2839619766	-1.912910695	-0.1553285156	 0.103943
H	 0.768279926	-2.8486013857	-0.2127562817	 0.111811
H	 1.4388601171	-0.2506235571	-1.643002972	 0.081005
H	 1.1790017013	-1.2561114978	-3.4878690676	 0.080124
H	-0.1587410513	-2.1663159518	-5.0639123973	 0.226477
38.1741	104.0768	111.8617	185.9901	203.3078	266.819	327.5423	380.743	420.017	481.6546	599.3854	658.1982	738.1409	818.0461	819.0182	860.5526	876.3733	947.0438	966.313	1003.8129	1017.9955	1030.934	1045.2451	1045.8845	1081.8898	1106.2015	1124.8208	1136.9446	1174.0063	1224.4654	1248.6107	1265.9537	1294.906	1317.3906	1373.3036	1402.6301	1422.1124	1432.7792	1480.3472	1485.8699	1498.9998	1507.5397	1743.721	3006.8412	3021.146	3031.594	3054.8178	3080.3661	3097.4286	3112.1149	3118.0294	3190.3788	3205.2609	3516.1899
CC12CC1CC2OC=N	C[C@]12C[C@H]1C[C@H]2O[CH][NH]	
InChI=1S/C7H11NO/c1-7-3-5(7)2-6(7)9-4-8/h4-6,8H,2-3H2,1H3	InChI=1S/C7H11NO/c1-7-3-5(7)2-6(7)9-4-8/h4-6,8H,2-3H2,1H3/t5-,6-,7+/m1/s1
