21
gdb 82571	3.24391	1.35148	1.18301	1.4505	82.2	-0.2287	0.0776	0.3063	1143.7391	0.182536	-387.042548	-387.034296	-387.033352	-387.075126	32.773	
C	-0.0826596885	 1.5237612328	-0.0337438037	-0.420415
C	-0.0242035293	 0.0335825341	 0.2206057179	-0.031589
C	 1.176441425	-0.8120538367	-0.0705612405	 0.062725
O	 2.3914796866	-0.0923868881	 0.1697045222	-0.32701
C	 2.0908519507	-0.0276127386	 1.5869372693	 0.458307
C	 3.0553663702	-0.7509666331	 2.5545410612	-0.283316
C	 2.8633118647	 0.4268819229	 3.5497923265	-0.222721
C	 2.3190116998	 1.2827099276	 2.3721361253	-0.285431
C	 0.716555025	-0.6532965196	 1.3614301059	-0.226463
H	 0.9170403028	 1.9618012672	-0.0050086337	 0.13925
H	-0.5043472915	 1.7226890564	-1.0249478638	 0.113746
H	-0.7090465568	 2.0357609205	 0.7042691095	 0.112862
H	-0.9498330787	-0.498586251	 0.003278321	 0.08635
H	 1.2208029259	-1.6633536752	-0.7403912581	 0.09816
H	 2.7871374785	-1.7600931153	 2.8777689208	 0.097266
H	 4.0626834426	-0.7679097675	 2.1293128169	 0.112774
H	 2.0918527584	 0.2159363741	 4.2947785819	 0.104562
H	 3.7525921406	 0.7938691936	 4.0650124508	 0.102662
H	 3.1122693282	 1.8695702862	 1.8992901686	 0.113246
H	 1.4560464448	 1.9268207324	 2.5509918052	 0.101813
H	 0.242604521	-1.3610654827	 2.0295376368	 0.09322
115.8603	131.5577	172.4153	208.2277	285.0769	345.4952	349.7396	481.8773	528.2346	629.6577	686.8926	729.4706	782.3231	804.2795	822.7451	875.4179	892.5013	918.702	926.6014	958.3343	997.6989	1015.4157	1025.9651	1035.3085	1055.5955	1074.6239	1112.9245	1131.0455	1157.0017	1178.8766	1197.8006	1208.717	1238.0713	1244.7941	1271.6042	1284.5325	1320.7794	1346.268	1408.0256	1436.2178	1466.5761	1483.215	1495.2028	1502.2623	1505.2401	3035.7382	3056.7904	3061.918	3068.6395	3091.5756	3107.7198	3115.6914	3117.1682	3129.1298	3135.9087	3172.5607	3192.2467
CC1C2OC3(CCC3)C12	C[C@H]1[C@H]2OC3(CCC3)[C@@H]12	
InChI=1S/C8H12O/c1-5-6-7(5)9-8(6)3-2-4-8/h5-7H,2-4H2,1H3	InChI=1S/C8H12O/c1-5-6-7(5)9-8(6)3-2-4-8/h5-7H,2-4H2,1H3/t5-,6+,7-/m1/s1
