19
gdb 61856	3.969	0.82362	0.72489	3.2773	72.84	-0.248	-0.0196	0.2284	1538.2365	0.156816	-460.145894	-460.136159	-460.135215	-460.181972	33.793	
O	-0.0475335609	 1.5586168876	 0.0650875967	-0.43001
C	 0.0710216647	 0.1425453187	 0.0818555377	 0.095154
C	 0.7050021203	-0.4052316426	-1.2021832875	-0.308371
C	-0.0918154341	-0.0183769882	-2.427290764	 0.164445
O	 0.362450742	 0.5296015656	-3.3973216957	-0.239659
C	 0.8348010507	-0.3171542005	 1.3212732675	 0.137366
C	 0.1303216985	-0.1568770139	 2.6836481354	-0.297138
C	 0.2241461617	-1.6949135078	 2.7507427752	-0.062373
O	 0.8443885814	-1.7571412531	 1.444072451	-0.294747
H	 0.8151687835	 1.9318884312	-0.1493125968	 0.2879
H	-0.959086583	-0.2288433338	 0.1584885548	 0.094259
H	 1.7344237145	-0.0472980711	-1.3217566975	 0.109927
H	 0.7307787512	-1.5004454607	-1.1247569463	 0.14741
H	-1.1725454293	-0.2874756485	-2.3722550493	 0.074254
H	 1.8596069376	 0.0849071981	 1.2857797979	 0.067536
H	 0.6907801308	 0.3852812992	 3.4454988947	 0.115292
H	-0.878927832	 0.2532351288	 2.6221751973	 0.122146
H	 0.885047922	-2.0938729537	 3.529127688	 0.107883
H	-0.7251903996	-2.2419256253	 2.7768684107	 0.108725
53.4656	64.8761	90.7877	99.8606	140.8123	224.1219	293.0348	300.9149	399.0418	435.5577	482.3915	563.7933	769.4365	787.5618	826.5478	890.9134	943.0905	950.6232	997.2764	1029.1071	1034.6839	1052.6514	1088.1605	1118.2966	1154.5332	1167.5424	1188.1101	1209.4286	1255.5007	1267.8653	1272.8863	1294.4198	1356.0924	1361.2443	1405.9722	1408.7272	1431.752	1458.6938	1493.1884	1531.4121	1838.4319	2861.4433	2977.555	3024.5972	3026.9533	3034.8156	3065.6708	3083.3801	3087.5481	3142.3818	3797.3273
OC(CC=O)C1CCO1	O[C@@H](CC=O)[C@H]1CCO1	
InChI=1S/C6H10O3/c7-3-1-5(8)6-2-4-9-6/h3,5-6,8H,1-2,4H2	InChI=1S/C6H10O3/c7-3-1-5(8)6-2-4-9-6/h3,5-6,8H,1-2,4H2/t5-,6+/m0/s1
