15
gdb 24260	4.00127	1.61104	1.25363	2.7798	70.34	-0.2248	0.0006	0.2254	949.2954	0.116622	-416.803704	-416.797618	-416.796674	-416.834124	24.609	
C	-0.0637209549	 1.5244731427	-0.0009506231	-0.353222
C	 1.4423783765	 1.8737882714	-0.0229300303	-0.019918
N	 2.2093076339	 1.4244957184	 1.1552630359	-0.322861
C	 2.2823950991	 0.6270534377	-0.1025677645	-0.234819
C	 1.2629609546	-0.4325369362	-0.1155839898	 0.366305
C	-0.0038012788	 0.0214986078	-0.0264940283	 0.230805
N	-0.8739581784	-1.048361887	 0.0941971335	-0.338345
C	-0.0816506915	-2.075937769	 0.0562961704	 0.036899
O	 1.2519063906	-1.7902554978	-0.0583934827	-0.198711
H	-0.544410146	 1.9158694527	 0.9014380019	 0.13469
H	-0.5826634946	 1.9512782103	-0.8670878583	 0.116642
H	 1.7587854369	 2.7803419891	-0.5274177802	 0.096327
H	 3.0505086523	 1.9948617302	 1.2311856052	 0.232193
H	 3.2102770421	 0.5757308309	-0.6597787572	 0.106007
H	-0.3409216218	-3.1224390712	 0.0850134375	 0.148007
152.7449	244.7266	352.1461	426.2669	461.2143	593.8044	657.4537	705.7246	726.0858	784.6823	810.6603	815.7345	839.1266	881.761	927.1342	949.5156	992.7174	1057.8375	1084.4421	1098.7382	1135.4448	1169.7404	1181.0757	1214.4893	1257.0421	1285.165	1314.9439	1354.6661	1400.2194	1445.7505	1473.891	1517.582	1647.8517	3039.7241	3083.4989	3168.9722	3184.317	3278.7791	3475.3639
C1C2NC2C2=C1N=CO2	C1[C@H]2N[C@H]2c2c1nco2	
InChI=1S/C6H6N2O/c1-3-5(8-3)6-4(1)7-2-9-6/h2-3,5,8H,1H2	InChI=1S/C6H6N2O/c1-3-5(8-3)6-4(1)7-2-9-6/h2-3,5,8H,1H2/t3-,5-/m1/s1
