19
gdb 67326	3.26207	1.29812	1.0975	3.1281	81.05	-0.2398	-0.0217	0.2181	1145.2406	0.158373	-385.828981	-385.820943	-385.819998	-385.861651	31.034	
C	-0.108468725	 1.4417871498	 0.0370508644	-0.521705
C	-0.0571432988	-0.0616235731	 0.0167912055	 0.342047
C	 0.8382991951	-0.9748183176	-0.899812323	-0.076293
C	 2.0089028274	-0.9637326536	 0.1015896348	-0.279012
C	 0.7480003976	-1.0129147889	 0.9858246075	-0.090078
C	-0.0036475159	-1.9528219784	-0.0181977122	-0.060595
C	-1.2617071905	-1.049912859	-0.0965308719	-0.15376
C	-2.2358855147	-1.0953461585	 1.0386945517	 0.14647
O	-3.4365993759	-1.0758958446	 0.9154859933	-0.262204
H	 0.8987340761	 1.8683175593	 0.09738585	 0.125564
H	-0.5843473881	 1.829365659	-0.8701368578	 0.128274
H	-0.6802218203	 1.8086032668	 0.8962383181	 0.127951
H	 0.8539310891	-0.9560507803	-1.9909573878	 0.074775
H	 2.6506285561	-1.8502713113	 0.114414596	 0.097123
H	 2.6153443511	-0.0539284771	 0.1496026662	 0.097134
H	 0.6828912309	-1.03749355	 2.0740252309	 0.079104
H	 0.0417991886	-3.0420835151	-0.0397150724	 0.081375
H	-1.7960217371	-1.0419972278	-1.0521664634	 0.078591
H	-1.7723589756	-1.1469256795	 2.0516833999	 0.065239
72.6544	160.7689	210.2714	215.8603	267.0165	314.1126	434.726	454.2325	480.7292	620.1663	727.1205	791.0255	822.3792	861.7149	873.4697	893.4962	912.4188	967.1064	984.7285	1017.7739	1031.1312	1056.9447	1084.8094	1100.4811	1133.2141	1141.6271	1154.6699	1165.5093	1182.4556	1202.2595	1236.436	1245.0351	1275.8498	1300.67	1363.7847	1410.6193	1442.2389	1485.272	1491.3856	1509.9747	1818.4158	2856.5857	3028.4113	3042.1545	3066.2699	3095.8232	3096.9032	3098.236	3099.2849	3103.7315	3115.8494
CC12C3CC1C3C2C=O	C[C@@]12[C@H]3C[C@@H]1[C@H]3[C@H]2C=O	
InChI=1S/C8H10O/c1-8-4-2-5(8)7(4)6(8)3-9/h3-7H,2H2,1H3	InChI=1S/C8H10O/c1-8-4-2-5(8)7(4)6(8)3-9/h3-7H,2H2,1H3/t4-,5+,6-,7-,8+/m1/s1
