24
gdb 100348	2.27595	1.16302	0.98786	3.6032	85.84	-0.2451	0.0317	0.2768	1368.9712	0.21549	-405.589329	-405.578204	-405.577259	-405.625039	41.096	
C	-0.1481333635	 1.5276550494	 0.1478010082	-0.40041
C	-0.0354765999	 0.0029385994	 0.0649507827	-0.190087
C	 0.6664998636	-0.5521639917	-1.2005624399	 0.28097
C	 0.6817921386	-2.0909386352	-1.1424209939	-0.420281
C	 0.0117009953	-0.0570597354	-2.512280857	-0.22087
C	-1.467848388	-0.4034905359	-2.6972428257	-0.399312
N	 2.0617339841	-0.0584148741	-1.2575233263	-0.294486
C	 3.0354423579	-0.2767134494	-0.3388938971	 0.157227
O	 2.9251755401	-0.9072850763	 0.6944213953	-0.335506
H	 0.8317976339	 2.0053191764	 0.0494901944	 0.115741
H	-0.8020094216	 1.9415656681	-0.6270169829	 0.11133
H	-0.5629551892	 1.8250493609	 1.1155307206	 0.117014
H	 0.5218673108	-0.3680312066	 0.928965089	 0.136324
H	-1.0340881491	-0.444702144	 0.1218402529	 0.09298
H	-0.3349765346	-2.4864791299	-1.0705261585	 0.112245
H	 1.1510533816	-2.5069073754	-2.0399392192	 0.104174
H	 1.2452828114	-2.4252870345	-0.2701834905	 0.155256
H	 0.1318470907	 1.0319683035	-2.5724104638	 0.099017
H	 0.5846169219	-0.4774811579	-3.3495877184	 0.096426
H	-2.0915818955	 0.0400949236	-1.9157929236	 0.126636
H	-1.8248409374	-0.0215433371	-3.6583905576	 0.117454
H	-1.6382399759	-1.4835851165	-2.6904219426	 0.125379
H	 2.3225197619	 0.4907311822	-2.0617790421	 0.240146
H	 3.9890240432	 0.2039331165	-0.6427824538	 0.072634
76.3828	95.515	131.659	163.3274	197.0865	224.1114	239.0484	252.7727	282.0352	303.9155	348.5366	362.7885	397.8834	476.2989	487.7101	559.4783	677.5447	773.1111	797.5286	828.9796	886.0725	924.6967	987.444	1014.7115	1020.4351	1030.3001	1052.8674	1089.0265	1094.7895	1188.056	1205.0832	1213.6879	1265.2798	1315.3012	1320.1651	1365.6269	1382.8237	1406.5224	1410.5831	1414.9072	1436.0462	1481.9454	1486.1788	1490.2562	1501.5425	1505.108	1505.776	1514.0865	1519.3008	1523.3238	1795.4928	2911.3025	3014.0351	3037.4618	3042.0893	3043.4957	3048.6327	3050.7447	3091.0518	3107.4389	3108.4823	3110.6639	3114.3766	3119.2568	3146.1719	3620.6551
CCC(C)(CC)NC=O	CCC(C)(CC)NC=O	
InChI=1S/C7H15NO/c1-4-7(3,5-2)8-6-9/h6H,4-5H2,1-3H3,(H,8,9)	InChI=1S/C7H15NO/c1-4-7(3,5-2)8-6-9/h6H,4-5H2,1-3H3,(H,8,9)
