19
gdb 108596	2.53903	1.37611	1.15897	0.9634	70.37	-0.2412	0.0736	0.3148	1127.5938	0.159575	-460.135191	-460.126624	-460.12568	-460.168357	32.7	
O	 0.1609447552	 1.3112371538	-0.0108752827	-0.412307
C	-0.0399578434	-0.0646351912	 0.2769026977	-0.158945
C	-1.464635433	-0.4988213903	 0.0519584511	 0.227024
C	-2.5901392612	 0.1397553966	 0.8701618143	-0.30598
C	-3.3631538214	-1.0806669599	 1.4019382697	-0.077813
O	-3.1434453921	-2.1367018662	 0.4463086209	-0.277871
C	-1.8646322883	-1.9487699458	-0.1145714988	-0.038246
C	-1.8877925602	-1.0439107259	-1.3161895197	 0.047338
O	-3.1142581359	-0.7101716675	-1.8761399212	-0.428799
H	-0.1474095287	 1.4655452121	-0.9105242542	 0.285801
H	 0.6411212345	-0.7024266716	-0.3109524338	 0.084097
H	 0.2372117557	-0.1848387609	 1.3310005482	 0.109408
H	-2.1882409304	 0.7601633872	 1.6743385556	 0.116854
H	-3.2266941371	 0.7664164396	 0.2390938267	 0.121901
H	-2.9790770022	-1.3944851204	 2.3829123051	 0.104145
H	-4.4430039346	-0.930977625	 1.4817559653	 0.113457
H	-1.1877277465	-2.7918896029	-0.0124423083	 0.098742
H	-1.1013567951	-1.1621246069	-2.0591703009	 0.096292
H	-3.7688742755	-1.2602327349	-1.421215205	 0.294906
91.2253	147.1783	149.7462	215.3282	267.6803	306.1213	339.1857	391.2564	451.2968	511.1941	622.8471	643.9337	690.1174	755.641	835.5031	867.9807	890.7393	956.9037	975.67	994.0391	1012.9615	1044.897	1066.1474	1097.294	1128.3507	1147.5854	1198.0408	1210.7505	1238.2878	1266.5202	1278.1465	1317.3684	1321.3434	1355.2656	1383.9771	1396.3477	1423.2508	1440.4891	1488.4838	1506.5634	1518.723	2964.5251	3006.1624	3053.3018	3063.3643	3096.2149	3116.5386	3125.2342	3149.9071	3721.3786	3804.3039
OCC12CCOC1C2O	OC[C@]12CCO[C@H]1[C@H]2O	
InChI=1S/C6H10O3/c7-3-6-1-2-9-5(6)4(6)8/h4-5,7-8H,1-3H2	InChI=1S/C6H10O3/c7-3-6-1-2-9-5(6)4(6)8/h4-5,7-8H,1-3H2/t4-,5+,6+/m1/s1
