21
gdb 75284	2.85048	1.66288	1.27836	0.2885	87.05	-0.2208	0.0327	0.2536	1069.7927	0.185134	-349.946117	-349.938565	-349.937621	-349.977723	31.116	
C	-0.1523567709	 1.5431010168	 0.0719425655	-0.494085
C	-0.0355934562	 0.0496130124	-0.0476995569	 0.346278
C	-0.0425498154	-0.5959146452	-1.2161745831	-0.158035
C	 0.0894070565	-2.0937952789	-1.3350071091	-0.294054
C	-0.1418913489	-2.840685849	-0.0226624578	-0.021055
C	 0.77568296	-2.8372395307	 1.1824806772	-0.069539
C	 1.5162816707	-1.5101658626	 1.3488270955	-0.239483
C	 0.1407803325	-0.7491436222	 1.221753662	-0.123227
C	-0.5720985512	-2.1212170458	 1.2196081987	-0.080377
H	 0.7245897865	 1.9708042789	 0.5761202715	 0.120969
H	-0.2472994095	 2.0231598102	-0.9062036691	 0.116913
H	-1.0237950364	 1.8263756196	 0.6769984626	 0.119808
H	-0.1457898349	-0.0400436803	-2.1457442207	 0.07317
H	-0.6365458033	-2.4526179921	-2.0772622123	 0.102232
H	 1.0736091	-2.3533727645	-1.7530605943	 0.108658
H	-0.6236150328	-3.8068438974	-0.1499865292	 0.082101
H	 1.0600143296	-3.769871404	 1.6563412543	 0.077219
H	 1.9435468712	-1.4035170736	 2.3495446256	 0.098422
H	 2.28301835	-1.2600992558	 0.6085034429	 0.092744
H	-0.0774427221	-0.1475406091	 2.1060923032	 0.06393
H	-1.4771713452	-2.3554278366	 1.7666633237	 0.077412
120.4802	192.3685	241.8527	287.318	309.2113	387.7466	485.6265	518.3678	569.5507	690.2464	713.3411	753.9213	792.0061	822.779	849.0428	891.5417	924.9053	958.7101	967.3121	979.4176	1011.7068	1027.1436	1039.1006	1058.1486	1072.882	1074.6858	1099.3706	1144.4569	1168.4213	1179.5749	1216.3878	1230.239	1257.0202	1290.7041	1295.8633	1338.222	1361.4669	1378.2554	1412.975	1433.3233	1475.5997	1478.8234	1490.8281	1494.1718	1736.842	2993.1207	3009.1298	3021.3699	3043.1155	3053.4278	3081.4925	3099.1004	3104.9538	3139.0004	3144.8822	3168.9104	3184.0505
CC1=CCC2C3CC1C23	CC1=CC[C@H]2[C@H]3C[C@@H]1[C@@H]23	
InChI=1S/C9H12/c1-5-2-3-6-8-4-7(5)9(6)8/h2,6-9H,3-4H2,1H3	InChI=1S/C9H12/c1-5-2-3-6-8-4-7(5)9(6)8/h2,6-9H,3-4H2,1H3/t6-,7-,8+,9+/m0/s1
