21
gdb 52689	2.96104	0.88036	0.71018	1.8237	87.74	-0.2369	0.0551	0.292	1640.7986	0.180628	-387.054804	-387.0443	-387.043356	-387.092648	36.303	
C	-0.098836177	 1.5271745431	 0.0884370623	-0.497479
C	-0.0222193936	 0.0734936544	 0.045613633	 0.046433
C	 0.0397683968	-1.1295083109	 0.0240236765	 0.078945
C	 0.1140381617	-2.5880719706	-0.0439526849	-0.173057
C	-1.2592476627	-3.256246335	 0.1578565047	-0.397233
C	 0.7306675187	-3.0172175498	-1.3826168619	 0.172662
C	 2.2302392951	-2.7346724947	-1.6114088161	-0.292863
C	 2.3536109652	-4.2663578111	-1.733485876	-0.066721
O	 0.951553847	-4.4469074879	-1.4380156846	-0.293276
H	 0.5266816233	 1.9364782771	 0.8895817183	 0.146782
H	 0.2391162556	 1.9721115673	-0.8541375568	 0.146267
H	-1.1254765898	 1.8673460397	 0.2640872869	 0.147804
H	 0.7898782079	-2.94811043	 0.744962178	 0.096741
H	-1.9711074312	-2.909737326	-0.5978703173	 0.119935
H	-1.1554171437	-4.3406289624	 0.0702063106	 0.136306
H	-1.6668871753	-3.0156250064	 1.1429370852	 0.118932
H	 0.0770794034	-2.689502912	-2.2027820187	 0.078545
H	 2.4769875586	-2.1610526891	-2.505220235	 0.11129
H	 2.7377912148	-2.2934988712	-0.7515759373	 0.114674
H	 2.6073547626	-4.6376626764	-2.7342180886	 0.101789
H	 2.9947141427	-4.7669669481	-0.9983893682	 0.103524
16.0717	64.3281	71.7167	93.6709	149.609	203.7145	240.2972	283.0833	313.3329	381.291	400.054	475.8931	544.0703	748.2399	759.4348	813.0988	869.0322	951.6654	962.4215	1003.0435	1017.8838	1032.1289	1052.265	1053.7899	1073.2184	1114.5814	1152.591	1165.0637	1196.834	1219.085	1257.3732	1275.8352	1295.0848	1331.9306	1361.8722	1384.4223	1403.6273	1415.2125	1478.8546	1479.3452	1492.03	1496.4377	1498.6455	1531.3015	2367.3469	2996.987	3012.5249	3018.3569	3025.7386	3044.2845	3056.346	3083.2367	3085.6787	3086.0962	3116.83	3131.2141	3138.3483
CC#CC(C)C1CCO1	CC#C[C@@H](C)[C@H]1CCO1	
InChI=1S/C8H12O/c1-3-4-7(2)8-5-6-9-8/h7-8H,5-6H2,1-2H3	InChI=1S/C8H12O/c1-3-4-7(2)8-5-6-9-8/h7-8H,5-6H2,1-2H3/t7-,8-/m1/s1
