19
gdb 73104	2.86278	1.49852	1.21867	4.0368	75.17	-0.2347	0.0673	0.302	1075.7237	0.161055	-419.257824	-419.249645	-419.2487	-419.290274	32.199	
C	-0.2434966041	 1.4927394681	 0.211830127	-0.452199
C	 0.0743849959	 0.0244239079	-0.0164463921	 0.335022
C	-1.1377834302	-0.9505315681	 0.2017833775	-0.269041
C	-0.4975355907	-1.4216637407	 1.5395131202	-0.225307
C	 0.8307797096	-0.7281930106	 1.1342587383	-0.028018
N	 1.7520727333	-1.5560655672	 0.3869096525	-0.346476
C	 1.8465929518	-1.2144342463	-0.9535489827	 0.427403
O	 2.5910318481	-1.7031760408	-1.7734317276	-0.410381
N	 0.9229580978	-0.1962472425	-1.1688127094	-0.392091
H	 0.6747239116	 2.0859416003	 0.2480366027	 0.127289
H	-0.8719450337	 1.8831999957	-0.5967836445	 0.11877
H	-0.7897005	 1.6328766812	 1.1503725986	 0.118869
H	-2.1242181688	-0.4852375071	 0.2681069497	 0.099523
H	-1.1690318927	-1.7357282525	-0.5563678882	 0.112234
H	-0.9531150264	-0.9523722702	 2.4158638862	 0.103476
H	-0.4359945908	-2.498654602	 1.7054167565	 0.107034
H	 1.3304934056	-0.1211218251	 1.8977805166	 0.076111
H	 2.5150247111	-2.0570102008	 0.8095312147	 0.251779
H	 0.5929861927	-0.0634152194	-2.1116365158	 0.246003
106.9885	117.9753	246.0918	259.4618	316.7556	369.852	379.3241	435.914	460.9993	516.0088	582.8652	638.4279	724.5404	757.6845	764.4917	851.6337	889.1005	917.3552	947.5286	968.8726	985.0169	1002.8119	1074.5154	1124.0133	1149.3467	1175.3311	1201.7717	1229.2058	1268.6614	1274.2631	1290.8447	1315.0816	1378.01	1389.977	1412.6387	1421.4896	1471.0128	1488.3907	1490.5891	1495.0331	1847.6761	3029.5571	3032.5807	3062.2319	3068.4959	3096.3328	3113.8073	3115.3796	3130.7826	3642.3862	3665.7775
CC12CCC1NC(=O)N2	C[C@]12CC[C@H]1NC(=O)N2	
InChI=1S/C6H10N2O/c1-6-3-2-4(6)7-5(9)8-6/h4H,2-3H2,1H3,(H2,7,8,9)	InChI=1S/C6H10N2O/c1-6-3-2-4(6)7-5(9)8-6/h4H,2-3H2,1H3,(H2,7,8,9)/t4-,6+/m1/s1
