25
gdb 65473	2.92558	1.04612	0.98289	0.0617	92.51	-0.2587	0.0794	0.3381	1394.5704	0.227825	-352.34037	-352.330323	-352.329379	-352.374828	39.42	
C	 0.6550201752	-0.4960554199	-1.0235028274	-0.458318
C	-0.0814459346	-0.0982134616	 0.2425261986	 0.39088
C	-1.5920017725	-0.310595626	 0.2330333347	-0.343585
C	-2.3674587252	 0.3983292027	-0.8728893847	 0.390881
C	-2.2171299883	 1.9075297993	-0.9295152111	-0.458314
C	-2.5755403695	-0.3340932364	-2.1801074215	-0.291529
C	-3.7251544827	-0.1710302077	-1.2150741347	-0.317779
C	 0.6252644998	-0.3447164728	 1.5556881882	-0.317774
C	 0.4701749584	 1.0647955364	 1.0373102476	-0.291533
H	 1.7350734208	-0.3610704118	-0.9064522637	 0.106876
H	 0.4775355931	-1.5501372914	-1.2691912947	 0.109402
H	 0.3358613951	 0.1013906512	-1.8836208465	 0.122178
H	-1.7947784597	-1.388460776	 0.1627257976	 0.087141
H	-1.9934632896	 0.0099733532	 1.2045881213	 0.087141
H	-1.1837897889	 2.2051800337	-1.1349953446	 0.122174
H	-2.8492014487	 2.3342974018	-1.7148758683	 0.106876
H	-2.5115024681	 2.3698618294	 0.0205074827	 0.109403
H	-2.5907710004	 0.2459940968	-3.0971390814	 0.10514
H	-2.1431061744	-1.3227247588	-2.2914350229	 0.107448
H	-4.0652937371	-1.0487207291	-0.6746947036	 0.105424
H	-4.5183642478	 0.5217832987	-1.4762525568	 0.104929
H	 0.0286347764	-0.6410960639	 2.4125642977	 0.105424
H	 1.6122691884	-0.794640725	 1.5278144218	 0.104928
H	 1.352712261	 1.571726532	 0.6607087793	 0.10514
H	-0.2294255605	 1.7185952851	 1.5471051124	 0.107447
67.1741	105.2301	154.7394	227.002	236.3575	272.1926	296.3398	304.3084	359.1337	368.9091	387.8505	416.7568	487.8816	723.1377	728.1213	786.7577	788.3922	850.7729	867.8259	890.6567	908.759	951.4516	954.4176	961.049	962.1815	983.2845	1038.9412	1045.5337	1062.3614	1077.5688	1078.1428	1082.6984	1117.4135	1119.9547	1188.6848	1189.301	1215.2896	1308.3036	1315.8969	1322.9714	1377.3041	1380.4639	1422.4419	1422.9894	1465.7671	1468.2273	1477.2631	1488.4179	1494.2985	1499.65	1500.2959	1506.5053	1513.1761	2996.3539	3024.0032	3024.0197	3033.1243	3085.0864	3085.4667	3099.4559	3100.0844	3123.269	3123.3659	3128.5603	3128.7877	3200.5047	3200.5421	3215.2421	3215.2659
CC1(CC2(C)CC2)CC1	CC1(CC2(C)CC2)CC1	
InChI=1S/C9H16/c1-8(3-4-8)7-9(2)5-6-9/h3-7H2,1-2H3	InChI=1S/C9H16/c1-8(3-4-8)7-9(2)5-6-9/h3-7H2,1-2H3
