21
gdb 92024	2.73356	1.67991	1.2514	1.3057	81.55	-0.2356	0.0815	0.3172	1074.6336	0.184175	-387.071234	-387.063466	-387.062522	-387.102976	32.072	
C	 0.0400790933	 1.5040884044	-0.0376590659	-0.391985
C	 0.0396450849	-0.017372788	 0.0208119334	 0.115557
O	 0.7362115796	-0.4711225672	-1.1470550043	-0.270468
C	 0.7057355885	-1.8583337599	-1.3185763633	 0.090502
C	 2.0305894067	-2.567344131	-1.3270250208	-0.321708
C	 1.1146573782	-2.6849428253	-0.1265978426	-0.048821
C	 1.3183650192	-1.9421520501	 1.1691125911	-0.051712
C	 2.1945504245	-0.7168628055	 1.2985971029	-0.308697
C	 0.6949658567	-0.5661959851	 1.2795395532	-0.021652
H	 1.0647179062	 1.8853352998	-0.0023547725	 0.124594
H	-0.4267981207	 1.8495259511	-0.9641338694	 0.119598
H	-0.5136660483	 1.9195962408	 0.8097418187	 0.11103
H	-1.0011958032	-0.3814324794	-0.0214215228	 0.063046
H	-0.0920201567	-2.2078351561	-1.9731701282	 0.082224
H	 2.1426491542	-3.4361266425	-1.96643093	 0.108717
H	 2.9165859887	-1.949170804	-1.2394736151	 0.121923
H	 0.610932696	-3.6392211382	-0.0074080788	 0.084998
H	 1.2666724888	-2.5716644821	 2.0514247236	 0.082794
H	 2.7167835636	-0.5746888413	 2.2381835657	 0.105916
H	 2.7366278564	-0.3740841176	 0.4251990007	 0.125316
H	 0.1895519732	-0.3040074427	 2.2043049842	 0.078829
134.4642	208.5943	236.5687	238.5372	316.1726	394.3712	431.4953	486.3159	513.7503	601.0876	700.1611	742.2328	771.5263	805.7008	822.3892	837.2619	906.3704	934.8849	956.5514	1002.6889	1011.0216	1025.9053	1055.9734	1066.9819	1079.0168	1109.7204	1115.4891	1120.944	1128.691	1139.828	1174.5539	1181.433	1211.2472	1248.0297	1336.5686	1348.4214	1371.1699	1393.8382	1402.8289	1405.3379	1412.7056	1477.0466	1482.8176	1486.0042	1497.4795	2953.3909	3042.4127	3101.3148	3116.9652	3121.4266	3136.2034	3139.2456	3143.5117	3149.7219	3161.5966	3225.4149	3228.2452
CC1OC2CC2C2CC12	C[C@H]1O[C@H]2C[C@H]2[C@H]2C[C@@H]12	
InChI=1S/C8H12O/c1-4-5-2-6(5)7-3-8(7)9-4/h4-8H,2-3H2,1H3	InChI=1S/C8H12O/c1-4-5-2-6(5)7-3-8(7)9-4/h4-8H,2-3H2,1H3/t4-,5+,6+,7+,8+/m1/s1
