18
gdb 11221	4.6466	1.28549	1.07979	1.1395	80.82	-0.2342	0.0244	0.2587	1122.0501	0.15322	-310.657323	-310.649124	-310.64818	-310.689791	30.926	
C	 0.0313437054	 1.587363036	 0.0871352811	-0.489882
C	 0.0266876961	 0.0917191917	 0.055167968	 0.324527
C	-0.3519196877	-0.6926330161	-0.9542495193	-0.166597
C	-0.1581641838	-2.1705157023	-0.651115712	-0.184622
C	 0.0639107702	-2.1636871463	 0.8942619015	-0.220435
C	 0.5332831038	-0.7296227744	 1.2245422971	-0.302861
C	-1.2555075714	-3.0284283556	-1.0859728522	 0.31593
C	-2.163775504	-3.7323810096	-1.4403093541	-0.471362
H	 1.0451040071	 1.9760556708	 0.2491750733	 0.125204
H	-0.3510752364	 2.0142746665	-0.8437530998	 0.124643
H	-0.581244807	 1.9659219156	 0.9152357911	 0.126054
H	-0.7220243755	-0.3520596923	-1.9145182671	 0.095347
H	 0.757323257	-2.5212041937	-1.1537096531	 0.105337
H	-0.8944674676	-2.3614993312	 1.3814848074	 0.117949
H	 0.7638545598	-2.9385913797	 1.2148335001	 0.103273
H	 1.6290990231	-0.6605242	 1.2899601512	 0.104095
H	 0.1484124689	-0.3743831155	 2.1879023224	 0.102011
H	-2.9648736178	-4.3537134036	-1.7552600657	 0.191388
86.6434	137.9899	171.9178	193.9548	279.65	315.6819	435.8081	492.9324	517.0519	575.732	609.6378	628.8598	638.4135	831.7925	844.0143	869.2907	895.1424	972.9417	1000.546	1017.9946	1038.8256	1050.4024	1091.1636	1158.6784	1187.0604	1237.8497	1272.8725	1284.2989	1296.8296	1339.6441	1362.3159	1413.8336	1479.1206	1483.5004	1488.215	1499.3208	1723.4329	2233.766	2970.5993	3001.6195	3017.0567	3046.5753	3062.4495	3069.0115	3112.2925	3114.9861	3198.5434	3505.4722
CC1=CC(CC1)C#C	CC1=C[C@@H](CC1)C#C	
InChI=1S/C8H10/c1-3-8-5-4-7(2)6-8/h1,6,8H,4-5H2,2H3	InChI=1S/C8H10/c1-3-8-5-4-7(2)6-8/h1,6,8H,4-5H2,2H3/t8-/m1/s1
