14
gdb 9568	4.74236	1.30916	1.21362	1.733	72.04	-0.2577	0.0017	0.2594	1002.3908	0.102893	-345.313146	-345.304745	-345.3038	-345.345616	30.855	
C	-0.0664495622	 1.545091002	-0.0777420157	-0.470392
C	-0.0397222728	 0.037524226	 0.0433012962	 0.191214
O	 1.2379037636	-0.5858202171	-0.1622113399	-0.260632
C	 0.6892803643	-0.6377957366	 1.160621484	-0.213037
C	 1.3561963694	 0.0979460308	 2.1995645206	 0.332953
C	 1.9021101615	 0.6875408421	 3.0937745551	-0.405382
C	-1.1651206626	-0.6593731278	-0.5374466455	 0.288412
C	-2.1151556064	-1.2117754564	-1.0239466453	-0.417236
H	 0.7961221766	 1.9804031764	 0.4289262445	 0.144054
H	-0.0448528015	 1.8317736558	-1.1329028236	 0.139755
H	-0.9827930815	 1.9445300358	 0.3662636307	 0.13611
H	 0.3319497808	-1.6249922552	 1.4507616333	 0.125687
H	 2.3886955018	 1.2096262612	 3.8806644086	 0.205755
H	-2.9495912811	-1.707887837	-1.455235023	 0.202739
108.7697	125.9365	176.3055	185.1726	245.7157	328.0989	371.1596	454.8996	527.4356	556.0137	594.2698	631.09	632.4707	666.756	672.3727	694.7552	827.4958	895.1331	971.5424	1040.4417	1096.2976	1101.0703	1241.509	1310.5921	1406.29	1414.0793	1479.7412	1490.0506	2235.8391	2241.5007	3051.4182	3120.7322	3120.8823	3148.2279	3500.1578	3500.6076
CC1(OC1C#C)C#C	C[C@]1(O[C@H]1C#C)C#C	
InChI=1S/C7H6O/c1-4-6-7(3,5-2)8-6/h1-2,6H,3H3	InChI=1S/C7H6O/c1-4-6-7(3,5-2)8-6/h1-2,6H,3H3/t6-,7-/m0/s1
