19
gdb 93252	2.86489	1.32084	0.93814	3.619	73.	-0.2283	0.0545	0.2828	1228.9701	0.160774	-456.388648	-456.379461	-456.378517	-456.422671	33.545	
C	-0.0673839573	 1.4236106262	-0.0917498234	-0.338592
N	 0.0140593789	-0.0099819142	 0.1108466174	-0.132735
C	-1.2451019189	-0.7355061631	 0.1227911413	-0.143336
C	-1.0897722521	-2.1418364562	 0.6911188728	 0.079406
O	-2.3141883608	-2.8101711245	 0.4497977128	-0.422301
C	 0.0903505893	-2.8269986035	 0.0017278613	-0.187965
N	 1.2602863886	-1.9916852866	 0.1770148967	-0.364228
C	 1.2544481886	-0.6139260156	 0.0465846661	 0.47033
O	 2.2979909536	 0.0104341066	-0.0681620601	-0.427131
H	 0.945142259	 1.8234766473	-0.0942200314	 0.169834
H	-0.5535990258	 1.6662159895	-1.0472548687	 0.113857
H	-0.6466121989	 1.8919971678	 0.713505881	 0.115498
H	-1.9690014198	-0.1784161106	 0.728567817	 0.115349
H	-1.6742823794	-0.8181507786	-0.8888156667	 0.112613
H	-0.873992627	-2.0714825148	 1.7673791979	 0.088384
H	-2.300940937	-3.646907744	 0.9244665097	 0.289933
H	 0.2800035748	-3.8073110562	 0.4545845823	 0.1006
H	-0.1711374468	-2.9960899993	-1.0549626063	 0.109784
H	 2.1702561512	-2.3812964302	-0.0097334198	 0.250701
87.1464	106.7105	135.4873	187.7071	233.5475	257.546	294.4752	376.3779	408.184	428.8562	477.3162	515.3373	593.8934	693.9931	758.0231	789.7773	918.5204	924.6365	1019.2452	1096.6576	1107.3367	1118.8275	1121.9255	1161.9273	1213.2829	1237.6959	1239.2583	1283.2403	1302.398	1314.5592	1351.2277	1394.9875	1432.624	1443.7942	1461.4596	1472.6519	1498.7589	1507.6974	1526.6825	1547.9143	1776.2863	2974.9454	2978.3674	3000.6508	3003.6329	3049.418	3051.9911	3054.7069	3169.173	3643.728	3827.1466
CN1CC(O)CNC1=O	CN1C[C@@H](O)CNC1=O	
InChI=1S/C5H10N2O2/c1-7-3-4(8)2-6-5(7)9/h4,8H,2-3H2,1H3,(H,6,9)	InChI=1S/C5H10N2O2/c1-7-3-4(8)2-6-5(7)9/h4,8H,2-3H2,1H3,(H,6,9)/t4-/m0/s1
