23
gdb 38712	2.4314	1.9544	1.51161	0.2761	87.84	-0.2351	0.0777	0.3128	1005.5926	0.210738	-351.156778	-351.149706	-351.148762	-351.187556	31.114	
C	-0.0199231779	 1.5016782048	 0.0745696487	-0.400685
C	 1.3492836006	 0.8472082951	-0.0032300877	-0.030005
C	 2.2098593096	 0.2696323558	 1.1289168189	-0.246297
C	 1.5637630723	-1.1270646787	 1.3563061554	 0.016679
C	 0.0764440681	-0.7549108734	 1.2758929034	-0.260668
C	 0.0819990739	 0.0098709025	-0.0562321224	 0.359336
C	-0.0219005101	-0.9381930471	-1.2300600047	-0.301367
C	 1.2924497198	-1.7746773726	-1.1977757499	-0.179996
C	 1.8059293559	-2.1632841787	 0.2227338878	-0.200286
H	-0.3944808243	 1.892981064	 1.0168507436	 0.105216
H	-0.2948391135	 2.1037115294	-0.7876912503	 0.105657
H	 1.8616461035	 1.0285876369	-0.943051007	 0.080123
H	 3.2609617363	 0.2119536988	 0.8285202393	 0.090853
H	 2.1732075745	 0.8563427758	 2.0554683586	 0.092364
H	 1.865985987	-1.5725550298	 2.3117983304	 0.04928
H	-0.5895964849	-1.6230306852	 1.2555915256	 0.086671
H	-0.2278591877	-0.1194699232	 2.1142216999	 0.084748
H	-0.9078732095	-1.5803830405	-1.1479966518	 0.090263
H	-0.0970371401	-0.4131014753	-2.1890310087	 0.090138
H	 1.1868652293	-2.6858622214	-1.7977605507	 0.085631
H	 2.0673611682	-1.1785350598	-1.6914709834	 0.099514
H	 2.8721946527	-2.409793556	 0.1500382425	 0.088933
H	 1.3044997861	-3.0866097213	 0.5409519523	 0.093896
200.9969	248.443	321.0231	350.7402	379.9338	432.552	452.4574	541.9048	608.9959	714.2806	748.2173	761.3076	813.2098	835.1327	862.5944	874.1348	892.6179	912.9709	928.5949	960.9614	982.8696	1004.2972	1030.3154	1041.8062	1065.4816	1085.4117	1088.9933	1108.1223	1127.5011	1173.1617	1190.22	1223.6407	1237.0197	1276.6205	1290.0236	1304.4117	1309.2597	1336.3488	1345.8327	1353.7605	1370.3092	1379.6854	1419.4779	1480.2163	1483.5435	1487.3965	1491.0196	1501.1128	1513.8473	3013.3745	3019.9581	3021.9627	3032.1923	3033.7389	3046.1513	3051.1191	3060.7485	3075.2393	3077.7111	3086.6885	3105.9132	3146.8758	3188.8968
C1C2CC3CC12CCC3	C1[C@H]2C[C@H]3C[C@@]12CCC3	
InChI=1S/C9H14/c1-2-7-4-8-6-9(8,3-1)5-7/h7-8H,1-6H2	InChI=1S/C9H14/c1-2-7-4-8-6-9(8,3-1)5-7/h7-8H,1-6H2/t7-,8+,9-/m0/s1
