18
gdb 69140	2.61176	1.74556	1.33349	4.2441	75.41	-0.2464	-0.0112	0.2352	1007.3505	0.148406	-401.942445	-401.93488	-401.933936	-401.97414	30.241	
C	-0.0161071866	 1.496323748	-0.0180535486	-0.476585
C	-0.0606457559	-0.0126835614	 0.0176389242	 0.32105
C	-0.5760422068	-0.7235283742	 1.21962884	-0.305495
N	 0.879345674	-0.6854783628	 0.9292268226	-0.155701
C	 1.4401523407	-1.8256650968	 0.2515189869	 0.37725
O	 2.1660799905	-2.6216435248	 0.7809034151	-0.318597
C	 1.0271437529	-1.8074978992	-1.2044673329	-0.138608
C	-0.4301269249	-2.1471858538	-1.4638199763	-0.310541
C	-0.0091152713	-0.7141110841	-1.3378800281	-0.099405
H	 0.8241265637	 1.8449433544	-0.6280709064	 0.127778
H	-0.9393456679	 1.9000606091	-0.4480593262	 0.122977
H	 0.1043589754	 1.9033912246	 0.9888108127	 0.13268
H	-0.8703832166	-0.1512421705	 2.0957411168	 0.126874
H	-1.0934019315	-1.6713268697	 1.117446824	 0.129164
H	 1.7687593972	-2.062958264	-1.9509885251	 0.114204
H	-0.6544631778	-2.5039501102	-2.4632891163	 0.127686
H	-1.0220356912	-2.624886559	-0.6922692743	 0.128114
H	-0.0524281538	-0.0770182758	-2.2129214779	 0.097153
134.874	175.3331	210.9297	298.2792	315.7099	383.3107	453.3085	491.448	579.0068	617.8433	702.6919	750.6157	761.0962	828.2711	833.6408	865.4326	933.2153	962.7705	977.3076	984.5934	1036.2716	1056.343	1063.5927	1103.6647	1109.8427	1115.1823	1126.6473	1160.2796	1199.1483	1259.7283	1323.2438	1352.7601	1396.1147	1418.0377	1484.2258	1490.9496	1496.6458	1523.4573	1850.5938	3033.9844	3097.9324	3114.0612	3124.0682	3142.1967	3183.1942	3193.7425	3202.5301	3224.4977
CC12CN1C(=O)C1CC21	C[C@]12CN1C(=O)[C@H]1C[C@@H]21	
InChI=1S/C7H9NO/c1-7-3-8(7)6(9)4-2-5(4)7/h4-5H,2-3H2,1H3	InChI=1S/C7H9NO/c1-7-3-8(7)6(9)4-2-5(4)7/h4-5H,2-3H2,1H3/t4-,5+,7+,8?/m0/s1
