20
gdb 12105	4.46301	1.23151	1.11176	1.6024	75.26	-0.2582	0.0877	0.346	1138.3032	0.176148	-348.973025	-348.964553	-348.963609	-349.006138	31.874	
C	-0.2026750652	 1.503041171	-0.4967902342	-0.456293
C	-0.0397824372	 0.0533716227	-0.0761496677	 0.386422
C	 1.324907865	-0.5730322901	-0.2293497653	-0.317629
C	 0.7979941786	-0.2414407392	 1.1478643543	-0.296252
C	-1.2496908296	-0.8370024991	-0.3276762336	-0.298944
C	-2.4681423138	-0.44010485	 0.474205266	 0.102834
O	-3.2628944018	 0.6380544891	-0.0351786457	-0.232529
C	-3.8345762084	-0.6706427953	-0.0093645526	-0.183795
H	 0.7083925161	 2.0736964243	-0.2907209436	 0.105132
H	-0.4089676742	 1.5784952247	-1.5708873233	 0.113903
H	-1.0328558702	 1.984265826	 0.0283013595	 0.137801
H	 1.3852534659	-1.618529678	-0.5140805626	 0.105639
H	 2.1237766912	 0.0413395091	-0.6311717237	 0.108875
H	 1.2418779434	 0.5940981805	 1.678693118	 0.109997
H	 0.5044464688	-1.065237	 1.7909649327	 0.104493
H	-1.5135309822	-0.8206986343	-1.3930527746	 0.100317
H	-0.9959303475	-1.8753134684	-0.0763376525	 0.095535
H	-2.3170324412	-0.3950919419	 1.5545011504	 0.091368
H	-3.9860467915	-1.1328478104	-0.9844758973	 0.111116
H	-4.6477987662	-0.8135501105	 0.7010373357	 0.112012
65.9113	98.0487	160.249	233.4265	289.7848	318.9462	337.3009	395.9164	421.9859	498.9699	722.1522	780.2559	795.9257	854.1245	872.1333	918.4544	932.3177	944.3569	956.794	984.8734	1043.4297	1064.5577	1078.7527	1096.8013	1107.0315	1141.8412	1157.4489	1170.0674	1187.4432	1230.2357	1293.5447	1306.8565	1333.1206	1373.5923	1426.8213	1445.075	1462.2965	1470.0969	1495.2404	1500.3054	1511.1525	1530.4139	3014.1424	3030.0465	3055.4886	3079.5336	3092.0178	3095.4345	3111.1083	3123.7779	3128.4865	3165.1232	3201.2266	3215.4901
CC1(CC1)CC1OC1	CC1(CC1)C[C@H]1OC1	
InChI=1S/C7H12O/c1-7(2-3-7)4-6-5-8-6/h6H,2-5H2,1H3	InChI=1S/C7H12O/c1-7(2-3-7)4-6-5-8-6/h6H,2-5H2,1H3/t6-/m1/s1
