25
gdb 112703	2.71918	0.99388	0.8228	1.189	88.58	-0.2612	0.0772	0.3384	1521.0132	0.229399	-389.509945	-389.49972	-389.498776	-389.545492	38.864	
C	 0.4730953332	 1.6023157622	-0.2493145559	-0.395233
C	 0.0821916853	 0.1393354318	-0.0000392468	 0.022573
C	 0.5023902335	-0.7749446183	-1.1935134845	-0.252688
C	 1.5386528456	-1.790629435	-0.645516408	 0.052032
C	 2.6312960053	-2.1306543692	-1.6462379152	-0.102614
O	 3.4869080303	-3.1026866436	-1.060598769	-0.424981
C	 2.0362516019	-1.1539819864	 0.6615208055	-0.205312
C	 0.7702800988	-0.505704933	 1.2420942416	 0.039891
C	 1.0061960291	 0.4087591391	 2.443666203	-0.418782
H	 1.5569738194	 1.7175608248	-0.3663608945	 0.111559
H	 0.0057157627	 1.9685860571	-1.1697028532	 0.108876
H	 0.1535715231	 2.2574475809	 0.5668548176	 0.111554
H	-1.0050000977	 0.1084787257	 0.1336032481	 0.062132
H	-0.3544562096	-1.2833121488	-1.6449999201	 0.0954
H	 0.9523978294	-0.1665142359	-1.9880807081	 0.089156
H	 1.0275086922	-2.7284676372	-0.392887116	 0.075882
H	 2.1798540201	-2.5095963256	-2.5780953505	 0.081027
H	 3.1887604314	-1.2134009421	-1.9029801121	 0.078357
H	 4.1815168767	-3.3120763513	-1.6915589988	 0.284813
H	 2.5016271871	-1.8772005103	 1.3357139293	 0.102629
H	 2.7905970707	-0.3838979076	 0.4438712754	 0.085144
H	 0.1167090018	-1.3255569506	 1.5734647297	 0.066619
H	 1.6974362448	 1.2236397934	 2.2055099582	 0.113804
H	 0.0716000191	 0.8571028641	 2.7991556244	 0.108338
H	 1.4385467058	-0.154925604	 3.2772119998	 0.109826
29.6675	110.6351	138.6567	193.6557	245.8675	261.0016	266.905	296.0543	332.0871	348.0177	414.823	432.7621	498.7051	559.8315	626.8015	755.6983	837.8166	875.1944	889.6332	913.7472	944.4147	972.2806	1017.9792	1035.8595	1048.6519	1061.029	1083.3233	1099.0239	1110.9179	1149.6611	1183.7908	1208.0054	1230.4829	1249.6192	1269.0579	1288.6188	1302.1318	1312.0583	1342.5049	1344.1786	1375.9263	1384.5928	1389.1449	1409.5798	1415.3063	1460.4807	1488.0219	1492.5701	1495.8002	1500.2631	1506.2131	1511.4926	1519.4046	2949.6993	2978.1742	2990.2166	3008.796	3023.0253	3026.6338	3028.6168	3030.7599	3032.9788	3080.2004	3090.4242	3091.3571	3096.6694	3102.1572	3104.6369	3830.3031
CC1CC(CO)CC1C	C[C@H]1C[C@@H](CO)C[C@H]1C	
InChI=1S/C8H16O/c1-6-3-8(5-9)4-7(6)2/h6-9H,3-5H2,1-2H3	InChI=1S/C8H16O/c1-6-3-8(5-9)4-7(6)2/h6-9H,3-5H2,1-2H3/t6-,7+,8+
