19
gdb 7355	4.30678	1.0541	0.86509	2.1081	70.16	-0.2356	0.0335	0.2691	1327.2339	0.163462	-402.22168	-402.21154	-402.210596	-402.257463	34.267	
C	 0.0257140107	 1.4198043211	 0.0784704806	-0.343144
N	-0.0007362549	-0.0330583015	 0.0692987632	-0.088602
C	 1.294471904	-0.6785203734	 0.132010496	-0.338442
C	-1.2106345956	-0.678275395	 0.0037723326	 0.425297
O	-2.2672483185	-0.0648952175	-0.0470597027	-0.386689
C	-1.1992955627	-2.2042960352	-0.0038765594	-0.319166
C	-2.6127469826	-2.7674755443	-0.0793793073	-0.075069
O	-2.4900251426	-4.1842192344	-0.0810042061	-0.430378
H	 0.5933408268	 1.801351027	-0.7799687864	 0.118555
H	-0.9994359959	 1.7817641763	 0.0279721549	 0.169627
H	 0.5025867203	 1.7917911394	 0.9943879695	 0.118557
H	 1.8277201148	-0.3907147461	 1.0482546126	 0.125814
H	 1.2001550242	-1.7618360139	 0.1213833855	 0.144985
H	 1.9181752349	-0.3812263948	-0.7219840155	 0.125811
H	-0.6206927713	-2.5830336485	-0.8545323691	 0.12911
H	-0.7104411581	-2.5924035276	 0.8973647267	 0.12911
H	-3.1995251554	-2.4089630369	 0.7767045207	 0.104181
H	-3.1092065586	-2.3990724731	-0.9868551139	 0.104194
H	-3.3748844294	-4.5568375416	-0.128837502	 0.286249
53.2005	78.4661	101.1928	135.7461	154.1437	160.169	236.3279	271.4291	320.563	357.2649	416.7507	480.6105	579.6174	623.7151	815.1537	828.3098	975.2932	1038.4204	1069.2017	1078.1764	1082.4742	1132.1298	1152.7516	1180.3556	1210.3668	1250.08	1284.4283	1311.4033	1334.1092	1427.0706	1437.0845	1455.6308	1468.3922	1484.493	1484.8944	1503.4366	1504.4297	1522.1445	1545.4527	1743.0417	3003.7374	3009.0284	3013.5942	3037.5	3039.2299	3043.5135	3057.4298	3079.4842	3172.0115	3173.8287	3834.133
CN(C)C(=O)CCO	CN(C)C(=O)CCO	
InChI=1S/C5H11NO2/c1-6(2)5(8)3-4-7/h7H,3-4H2,1-2H3	InChI=1S/C5H11NO2/c1-6(2)5(8)3-4-7/h7H,3-4H2,1-2H3
