18
gdb 80515	2.28713	1.49733	1.28531	2.0607	80.71	-0.207	0.0244	0.2315	1089.6406	0.14542	-401.856857	-401.847828	-401.846884	-401.889999	34.386	
C	-0.355132906	 1.4233007904	 0.0401153861	-0.339658
N	 0.093692449	 0.0399603639	-0.0049634735	-0.131262
C	 1.2083343302	-0.3676681027	-0.8901063617	-0.177206
C	 1.8843012624	-1.0989819839	 0.2715766828	-0.228203
C	 2.1632289201	-0.1338164713	 1.384363889	 0.036991
O	 2.5472422563	 1.1890820062	 1.1574378231	-0.413908
C	 0.7277716293	-0.5552514474	 1.1684522638	 0.155912
C	-0.0490142214	-1.1694012405	 2.195798638	 0.249117
C	-0.7061400057	-1.671253863	 3.070173274	-0.403584
H	 0.4541660043	 2.1482504071	 0.2008516725	 0.122187
H	-0.8697479962	 1.6618944378	-0.8971333708	 0.113367
H	-1.0822568232	 1.5258752605	 0.8519087405	 0.128056
H	 0.8742315944	-1.0202964528	-1.7027816188	 0.110589
H	 1.7932552649	 0.4614104426	-1.3095008026	 0.092907
H	 2.2888279534	-2.1020920007	 0.2419244652	 0.106613
H	 2.6086585496	-0.5962043277	 2.2663431027	 0.101134
H	 3.4265333291	 1.1812390243	 0.7619080902	 0.28797
H	-1.2898042805	-2.1184272728	 3.8360714296	 0.188978
124.1621	142.5259	180.6442	202.4141	236.3244	262.7427	300.5812	349.3871	422.7095	486.9693	549.8601	551.8021	577.0481	668.8758	681.413	715.6323	793.9702	882.7025	896.4585	954.1291	1000.6974	1014.4417	1084.9854	1096.5517	1128.9686	1163.5583	1190.6838	1229.0329	1238.9569	1261.7845	1304.2181	1317.8271	1332.1781	1440.6148	1452.9531	1482.3972	1509.0699	1511.7441	2231.6656	3006.3233	3015.6533	3067.8213	3073.8154	3100.3614	3101.25	3204.6855	3502.4694	3786.8124
CN1CC2C(O)C12C#C	CN1C[C@H]2[C@@H](O)[C@@]12C#C	
InChI=1S/C7H9NO/c1-3-7-5(6(7)9)4-8(7)2/h1,5-6,9H,4H2,2H3	InChI=1S/C7H9NO/c1-3-7-5(6(7)9)4-8(7)2/h1,5-6,9H,4H2,2H3/t5-,6+,7-/m0/s1
