16
gdb 52982	4.51278	0.9498	0.87679	2.0802	79.84	-0.2335	0.0095	0.243	1351.3173	0.123864	-400.719634	-400.711324	-400.71038	-400.754344	29.976	
C	 0.0402861804	 1.4606836569	 0.0051768495	-0.507722
C	 0.015816145	 0.0065323092	 0.0028743663	 0.223735
C	 0.0012556048	-1.1982111742	 0.0077279458	-0.108031
C	-0.0358326851	-2.6212965368	-0.0021724325	 0.208973
C	-0.471884705	-3.4476366484	-1.1884413914	-0.335211
C	-1.2694988559	-3.5438445269	 0.0884307064	-0.064566
N	-0.9018667521	-4.5993472275	 0.9964153438	-0.254058
C	 0.3064948813	-4.371956187	 1.3230989682	 0.091046
O	 0.9264003106	-3.2641449626	 0.8445317159	-0.238706
H	 0.8786000418	 1.831392101	 0.6051066264	 0.157566
H	 0.1553957958	 1.861245748	-1.0079528767	 0.151696
H	-0.8800442573	 1.8771034816	 0.4293895062	 0.15207
H	-0.9180189903	-2.8889382658	-2.0025235526	 0.133117
H	 0.1436491237	-4.2934095457	-1.477024836	 0.128322
H	-2.2897795152	-3.1838596339	 0.1293875078	 0.115898
H	 0.9172164375	-4.9855769379	 1.973929473	 0.145871
17.159	92.8189	100.4041	252.516	308.2155	367.6769	377.8211	445.3155	519.3531	543.9161	625.5591	728.6522	784.3419	835.5283	915.7526	918.724	949.1313	1002.9295	1016.3091	1049.45	1054.5425	1056.8966	1083.5273	1113.366	1140.2823	1198.0326	1293.418	1332.3432	1386.6003	1414.9308	1460.5083	1473.539	1478.288	1665.664	2368.3502	3027.4885	3088.1471	3091.9196	3133.4318	3193.5684	3229.9313	3233.587
CC#CC12CC1N=CO2	CC#C[C@]12C[C@H]1N=CO2	
InChI=1S/C7H7NO/c1-2-3-7-4-6(7)8-5-9-7/h5-6H,4H2,1H3	InChI=1S/C7H7NO/c1-2-3-7-4-6(7)8-5-9-7/h5-6H,4H2,1H3/t6-,7+/m1/s1
