20
gdb 5933	3.65689	1.02646	0.98119	1.4674	80.07	-0.242	0.0582	0.3002	1319.8572	0.17333	-348.985338	-348.974576	-348.973632	-349.022382	37.287	
C	 0.0039454872	 1.4571919032	 0.0365289451	-0.498699
C	 0.0105065082	 0.0007486567	 0.0172521067	 0.033994
C	 0.0123674574	-1.2037934067	-0.0038999783	 0.078004
C	 0.018866271	-2.6709432704	-0.0234813439	 0.068321
C	-1.426229284	-3.2061444737	 0.0957325429	-0.400231
C	 0.6626530552	-3.1778087546	-1.3340459884	-0.40023
C	 0.8532039878	-3.1505553986	 1.1859667263	-0.07664
O	 0.8733423261	-4.5703193728	 1.1872510604	-0.427218
H	 0.5785877981	 1.8474227743	 0.8840365488	 0.145025
H	 0.4436701945	 1.8706699928	-0.8780180645	 0.146191
H	-1.015225964	 1.8508841236	 0.1202796207	 0.146191
H	-2.0247893364	-2.8858828315	-0.7613530166	 0.114227
H	-1.4166097593	-4.2978284841	 0.1353240371	 0.130097
H	-1.9058247899	-2.8292853611	 1.004043528	 0.112627
H	 1.6758166781	-2.7807007255	-1.4474843241	 0.112626
H	 0.7162413895	-4.2688963525	-1.3245503359	 0.130097
H	 0.074396144	-2.8574068598	-2.1981835631	 0.114226
H	 1.8692288657	-2.736280673	 1.1047869598	 0.091059
H	 0.4023243611	-2.7561794504	 2.1088401804	 0.091058
H	 1.3930395698	-4.863099076	 1.9407174086	 0.289277
11.5677	93.2964	98.6043	141.1197	200.0837	224.6629	241.947	265.0988	289.9902	306.3582	351.9025	367.1827	432.5869	533.2986	548.2286	684.5184	827.746	929.3877	962.2594	966.7045	1046.0115	1053.1953	1056.4894	1067.5598	1084.6412	1184.079	1199.8937	1240.7721	1291.1871	1299.0768	1389.5364	1405.1114	1414.761	1451.4088	1478.9999	1479.7	1482.7461	1487.0125	1495.6216	1508.4788	1519.8417	2366.4817	2979.3426	3015.5828	3024.4426	3041.3492	3045.3721	3084.1402	3084.3224	3112.2109	3115.1767	3129.2759	3133.1815	3839.7097	11.5205	93.2962	98.6045	141.1209	200.0866	224.6642	241.9478	265.0993	289.9898	306.3581	351.9026	367.1827	432.5869	533.2981	548.2282	684.5185	827.7461	929.3875	962.2594	966.7041	1046.0113	1053.196	1056.4898	1067.5599	1084.6414	1184.0789	1199.8934	1240.7717	1291.1866	1299.0766	1389.5357	1405.1107	1414.7618	1451.4084	1479.0013	1479.7015	1482.7452	1487.0115	1495.6206	1508.4779	1519.8411	2366.4819	2979.3427	3015.5829	3024.4426	3041.3492	3045.3721	3084.1401	3084.3223	3112.2109	3115.1767	3129.2759	3133.1815	3839.7103
CC#CC(C)(C)CO	CC#CC(C)(C)CO	
InChI=1S/C7H12O/c1-4-5-7(2,3)6-8/h8H,6H2,1-3H3	InChI=1S/C7H12O/c1-4-5-7(2,3)6-8/h8H,6H2,1-3H3
