18
gdb 46841	2.71708	1.79418	1.47493	2.4699	75.17	-0.2105	-0.0236	0.1869	942.1452	0.151265	-401.966944	-401.95999	-401.959046	-401.998182	28.406	
O	 0.0290778472	-0.0423871189	 0.2220994257	-0.321044
C	 0.0080183532	 1.1491933244	 0.0361966617	 0.397869
C	-1.3208827917	 1.9221112639	-0.1147930192	-0.272405
N	-1.2933101521	 3.1901059001	-0.8692815241	-0.297879
C	 0.0227208049	 3.8550040911	-0.878539346	-0.037308
C	 1.1395997252	 2.8769582686	-1.3116013651	-0.238173
C	 1.2619913134	 2.0299089584	-0.0205204408	-0.144585
C	 1.123939622	 3.1147422657	 1.0425817184	-0.091368
C	 0.4353427628	 4.1490250436	 0.558412317	-0.051269
H	-2.0555264067	 1.2451543194	-0.5568586743	 0.127409
H	-1.6627942233	 2.1135013731	 0.9121759808	 0.13691
H	-1.5647992071	 3.0070795284	-1.8292221319	 0.220446
H	-0.056023681	 4.7430510202	-1.511286072	 0.073668
H	 0.8682152201	 2.2967734947	-2.2001833994	 0.094979
H	 2.0829617623	 3.3973301312	-1.505188527	 0.106744
H	 2.1538717382	 1.4063802716	 0.0568811867	 0.082434
H	 1.47687139	 2.9881681355	 2.0590194633	 0.108414
H	 0.1118504129	 5.0252638389	 1.1059026663	 0.105159
94.2702	216.1441	314.6439	363.2187	407.7043	442.6348	521.0366	557.9592	612.6407	714.4254	751.2708	764.5711	819.4324	836.8889	872.9946	913.9734	938.8552	946.5592	970.2938	1006.101	1032.0528	1036.653	1100.358	1127.5731	1146.3546	1199.5205	1230.6468	1240.097	1273.0223	1297.1471	1310.3486	1331.1281	1357.3928	1368.1439	1461.7941	1477.9424	1488.8126	1657.4671	1822.0446	3011.734	3040.124	3074.6316	3091.0941	3104.8262	3106.4242	3198.0554	3223.6884	3523.0926
O=C1CNC2CC1C=C2	O=C1CN[C@@H]2C[C@H]1C=C2	
InChI=1S/C7H9NO/c9-7-4-8-6-2-1-5(7)3-6/h1-2,5-6,8H,3-4H2	InChI=1S/C7H9NO/c9-7-4-8-6-2-1-5(7)3-6/h1-2,5-6,8H,3-4H2/t5-,6+/m1/s1
