17
gdb 10832	4.80337	1.49795	1.19897	5.384	64.82	-0.2497	0.0564	0.306	992.9949	0.144031	-401.055753	-401.048042	-401.047098	-401.087968	28.317	
C	-0.0601057517	 1.5499048843	 0.0253494726	-0.407958
C	 0.0190331071	 0.0231900298	-0.0079147969	-0.011769
C	 0.7443437286	-0.4878449194	-1.2530190238	-0.148733
N	 1.0573542133	-1.8984931598	-1.0944788683	-0.369194
C	 1.0260705342	-2.6416510968	 0.0560909702	 0.458943
O	 1.2100288251	-3.8332170664	 0.0801744267	-0.395014
O	 0.7556574158	-1.9689230417	 1.2073734051	-0.243051
C	 0.7536963591	-0.5386965425	 1.2038017608	-0.065708
H	 0.9389389523	 1.9984724164	 0.0632969348	 0.123558
H	-0.5656275852	 1.9371140973	-0.8648303952	 0.124828
H	-0.6169619901	 1.8958083005	 0.901439357	 0.125851
H	-0.9951472266	-0.3956778953	 0.0006154021	 0.099626
H	 0.1207587353	-0.3508303264	-2.1442643043	 0.114426
H	 1.6624577278	 0.1000347367	-1.40834099	 0.105874
H	 1.2721470696	-2.4492667825	-1.9094112093	 0.257761
H	 1.7899020374	-0.1700608676	 1.2272079917	 0.108746
H	 0.271104798	-0.2473769765	 2.1402661968	 0.121816
83.7735	116.1248	208.5194	222.1192	279.1829	418.2082	428.4008	454.233	514.903	582.5972	731.6097	761.6885	815.5418	891.4863	910.6388	947.1949	987.3642	1077.9847	1104.2133	1131.4676	1166.6033	1188.9569	1245.857	1274.0785	1301.8626	1325.5928	1380.7961	1402.6968	1412.8235	1435.6025	1478.7455	1498.2703	1499.0577	1513.1838	1529.6835	1845.0843	2979.5898	3001.192	3030.7785	3035.5017	3050.055	3094.7796	3102.1639	3109.4203	3652.5108
CC1CNC(=O)OC1	C[C@H]1CNC(=O)OC1	
InChI=1S/C5H9NO2/c1-4-2-6-5(7)8-3-4/h4H,2-3H2,1H3,(H,6,7)	InChI=1S/C5H9NO2/c1-4-2-6-5(7)8-3-4/h4H,2-3H2,1H3,(H,6,7)/t4-/m0/s1
