16
gdb 81901	2.33059	1.90884	1.17845	5.0388	68.96	-0.2412	-0.0884	0.1527	1023.8101	0.123942	-437.898638	-437.890688	-437.889744	-437.931473	29.551	
C	-0.1526285225	 1.6112918212	 0.0288571803	-0.397935
C	 0.0617420998	 0.0956247899	-0.024399467	-0.135917
C	 0.8372598153	-0.4569268603	-1.2126630762	-0.044743
C	 2.2712141312	-0.1351547297	-1.3771413085	-0.254877
N	 1.8698289394	-1.4398414648	-0.7796280265	-0.135413
C	 1.9249866084	-1.4227804293	 0.6424285998	 0.289827
O	 2.7018435869	-2.0311791606	 1.318681331	-0.27617
C	 0.8264545447	-0.4522807862	 1.1779416007	 0.304503
O	 0.6701138188	-0.1752957002	 2.3338833605	-0.277261
H	 0.7973591559	 2.1495519935	-0.0374665373	 0.12627
H	-0.7904338884	 1.9455785959	-0.7939246551	 0.126499
H	-0.6290762333	 1.8822285577	 0.9746735307	 0.148092
H	-0.9199676368	-0.398922049	-0.0006121898	 0.127417
H	 0.275730793	-0.767988091	-2.0881521298	 0.113868
H	 2.7463598601	-0.2226388372	-2.348458586	 0.146633
H	 2.7238210874	 0.6006604001	-0.7159402666	 0.139208
53.0193	186.6562	198.2255	223.7581	244.6936	325.8517	411.7924	481.4933	554.3713	594.6544	622.7724	693.2132	792.7832	824.336	835.7037	919.412	963.7055	990.8013	1028.9566	1072.9651	1092.2495	1111.847	1135.8406	1165.3179	1183.3209	1275.0719	1286.8966	1326.0382	1392.1899	1413.877	1494.5161	1497.5291	1510.1212	1854.6833	1863.1933	3013.9206	3045.9796	3112.5169	3118.2701	3127.1117	3157.1783	3207.2999
CC1C2CN2C(=O)C1=O	C[C@H]1[C@H]2CN2C(=O)C1=O	
InChI=1S/C6H7NO2/c1-3-4-2-7(4)6(9)5(3)8/h3-4H,2H2,1H3	InChI=1S/C6H7NO2/c1-3-4-2-7(4)6(9)5(3)8/h3-4H,2H2,1H3/t3-,4+,7?/m0/s1
