18
gdb 129686	2.86407	1.39991	0.99338	3.0948	78.79	-0.1899	0.0297	0.2196	1183.2511	0.15031	-398.130224	-398.12183	-398.120886	-398.163791	31.639	
N	-0.132479774	 1.3511366874	 0.392200138	-0.614814
C	-0.0509394668	-0.0258527227	 0.1214355962	 0.096909
C	-1.0956435128	-0.8829312555	-0.193053888	 0.309558
N	-0.5025775345	-2.087995468	-0.4591423971	-0.258607
N	 0.8282310397	-2.0766420881	-0.3263827668	-0.228157
C	 1.113332958	-0.8217382381	 0.0229439458	-0.060672
C	-2.5495758426	-0.6503653443	-0.2982720271	-0.147884
C	-3.5278771974	-1.5950250021	 0.3671695186	-0.267259
C	-3.3394097043	-0.2090026717	 0.9205725944	-0.25545
H	 0.5537115326	 1.6529667068	 1.0723996753	 0.2419
H	-1.0545005489	 1.6218327844	 0.7114263693	 0.242461
H	-0.9662444047	-2.9395689557	-0.7259063548	 0.266337
H	 2.1390720043	-0.5284903455	 0.1951138851	 0.098807
H	-2.8900875379	-0.2228768612	-1.2395802345	 0.104986
H	-4.450273736	-1.820343665	-0.1556887849	 0.116975
H	-3.1223894717	-2.4210738358	 0.9407117715	 0.118443
H	-2.8036557304	-0.1153606504	 1.8585078936	 0.119859
H	-4.1332244826	 0.5152337354	 0.7765852454	 0.116606
42.804	139.4385	150.5528	199.4821	290.1102	311.7918	389.2417	460.5329	486.1668	605.0856	691.7718	705.3083	708.5889	779.9581	804.8618	832.129	855.1749	909.2359	921.6261	958.4127	1057.1238	1069.2596	1083.7088	1096.1744	1131.8764	1154.5327	1201.6089	1204.6029	1242.8927	1267.6977	1285.8445	1383.7287	1410.9589	1453.7823	1466.3269	1499.2059	1541.5212	1633.6758	1657.1174	3113.3396	3135.1999	3140.451	3216.9848	3231.5456	3237.8376	3527.4462	3617.4383	3674.1122
NC1=C(NN=C1)C1CC1	Nc1c([nH]nc1)C1CC1	
InChI=1S/C6H9N3/c7-5-3-8-9-6(5)4-1-2-4/h3-4H,1-2,7H2,(H,8,9)	InChI=1S/C6H9N3/c7-5-3-8-9-6(5)4-1-2-4/h3-4H,1-2,7H2,(H,8,9)
