20
gdb 84811	2.73914	1.47441	1.0604	2.0227	80.07	-0.2385	0.0215	0.26	1160.1139	0.172083	-403.120728	-403.112454	-403.11151	-403.153908	32.156	
O	-0.0915498465	 1.424639493	-0.0915845199	-0.433653
C	-0.0249303867	 0.0116236538	-0.0453164191	 0.0928
C	 0.7588185437	-0.5309511194	 1.1279389958	-0.100425
C	 0.1257873676	-1.5224687035	 1.7477132956	-0.05807
C	-1.2021104888	-1.8447103306	 1.1083996859	-0.269868
C	-1.4271290864	-0.6851435225	 0.103422567	-0.005117
N	-2.3677140441	 0.2861799082	 0.6627070778	-0.084759
C	-3.1862451933	 1.0263718241	-0.2935899525	-0.214514
C	-3.786599547	-0.0408621313	 0.5507608774	-0.22627
H	-0.6693051633	 1.6777229851	 0.6403541417	 0.285592
H	 0.4445744587	-0.2808885172	-0.9929899067	 0.087142
H	 1.7314709884	-0.1281238843	 1.3865175808	 0.096731
H	 0.5046921276	-2.0745405197	 2.6012193176	 0.093576
H	-1.1677728527	-2.8128308129	 0.5917625782	 0.105611
H	-2.0203450669	-1.9081173795	 1.8349399462	 0.11058
H	-1.7867969595	-1.0611583894	-0.867239323	 0.053673
H	-3.3564608245	 2.0740097575	-0.0636819909	 0.117813
H	-3.0464647826	 0.8121022736	-1.3510448973	 0.118499
H	-4.0549173339	-0.9744538181	 0.0591998422	 0.11246
H	-4.4005671495	 0.212362573	 1.410168863	 0.118201
63.069	97.0921	191.1608	246.5796	308.8468	319.8614	397.0797	480.1432	488.019	560.2319	679.5969	757.7323	765.3862	809.4205	845.3127	869.124	907.5748	936.7391	967.3677	982.9722	1007.7437	1029.0227	1055.5791	1082.3161	1093.8877	1114.1703	1124.0815	1137.7878	1168.1532	1172.5958	1214.2589	1244.3357	1281.8912	1301.2808	1320.5767	1330.331	1372.9462	1375.7685	1441.4673	1479.6765	1492.8702	1520.0503	1692.2303	2963.7127	3021.7325	3028.4281	3059.209	3098.2639	3105.6405	3180.3805	3181.831	3195.2451	3209.7984	3765.0707
OC1C=CCC1N1CC1	O[C@H]1C=CC[C@H]1N1CC1	
InChI=1S/C7H11NO/c9-7-3-1-2-6(7)8-4-5-8/h1,3,6-7,9H,2,4-5H2	InChI=1S/C7H11NO/c9-7-3-1-2-6(7)8-4-5-8/h1,3,6-7,9H,2,4-5H2/t6-,7+/m1/s1
