16
gdb 69150	2.75384	1.68767	1.2986	4.2272	68.71	-0.2336	-0.0425	0.1911	990.0779	0.12399	-437.851718	-437.844243	-437.843298	-437.883486	29.071	
C	-0.1324341413	 1.5039574625	 0.029745502	-0.499203
C	 0.0687848847	 0.0166108762	-0.0191774185	 0.443656
O	-0.4566149649	-0.7572860521	 1.0536264042	-0.26089
C	 0.9691060786	-0.7525567826	 0.8694656334	-0.177211
C	 1.5177691139	-1.929542958	 0.0778041882	 0.452352
O	 2.465323802	-2.6028863098	 0.3943299154	-0.312124
C	 0.8369399933	-1.943986184	-1.2781324876	-0.173359
N	-0.6474923481	-2.0412640654	-1.2642579285	-0.309253
C	-0.0108472364	-0.7225026077	-1.3651993738	-0.133741
H	 0.5675598731	 2.0137771343	-0.6405640791	 0.128944
H	-1.1499492022	 1.7630377619	-0.2829347612	 0.137722
H	 0.0192596992	 1.8774123247	 1.0450361655	 0.14004
H	 1.5621682622	-0.338873191	 1.6808310597	 0.111471
H	 1.3932142768	-2.3612922759	-2.1099210266	 0.111702
H	-0.9387106768	-2.3382147491	-2.1946702791	 0.241774
H	-0.0939374241	-0.1420347139	-2.2775510838	 0.098117
119.6197	193.6568	200.0532	280.4465	319.8821	376.4839	445.1479	544.943	563.7831	583.201	722.8924	741.1754	822.1946	837.5883	859.3695	874.3525	912.8119	924.9874	1019.5302	1039.5492	1051.463	1099.9489	1127.594	1149.6429	1186.7318	1225.9911	1246.494	1276.4727	1353.1624	1395.2047	1411.4822	1445.4757	1483.0634	1494.2023	1839.5212	3036.7362	3099.7255	3129.5626	3156.1545	3172.2313	3183.7743	3478.8991
CC12OC1C(=O)C1NC21	C[C@]12O[C@H]1C(=O)[C@H]1N[C@@H]21	
InChI=1S/C6H7NO2/c1-6-4-2(7-4)3(8)5(6)9-6/h2,4-5,7H,1H3	InChI=1S/C6H7NO2/c1-6-4-2(7-4)3(8)5(6)9-6/h2,4-5,7H,1H3/t2-,4-,5+,6-/m1/s1
