21
gdb 101129	2.93469	1.11665	1.00722	2.7945	78.97	-0.2277	0.074	0.3017	1300.4045	0.180484	-424.168718	-424.159167	-424.158223	-424.203582	35.047	
C	 0.1226770011	 1.3685785127	 0.2112423577	-0.231243
O	-0.0431999479	-0.013825562	 0.0017948003	-0.249037
C	 0.5736389512	-0.522741283	-1.1761103077	-0.000046
C	 2.1021942879	-0.5802314634	-1.049517169	-0.405713
C	-0.0115420381	-1.8831036639	-1.4203294207	 0.314066
C	-0.1825319036	-2.5049499432	-2.7935504593	-0.364973
C	-1.3710961982	-2.3349129044	-1.8963999888	 0.045073
O	-1.4473663078	-3.3955809949	-0.9445871874	-0.288148
C	-0.1770822264	-2.9801190109	-0.3670850287	-0.133657
H	 1.161494144	 1.6446845059	 0.4434419526	 0.107084
H	-0.2007228769	 1.9533003086	-0.6648201012	 0.101796
H	-0.5044146724	 1.6406302249	 1.0640798946	 0.12889
H	 0.3117385867	 0.1276875252	-2.0290297542	 0.060585
H	 2.3885319255	-1.1996719799	-0.1937041207	 0.125162
H	 2.5384438498	-1.0147575862	-1.9538266847	 0.122969
H	 2.5353798129	 0.4143905449	-0.9129982895	 0.115421
H	-0.1162581979	-1.8021060192	-3.6195078214	 0.111811
H	 0.192048277	-3.5030050989	-3.0057790548	 0.112794
H	-2.2811954357	-1.7996925098	-2.141859	 0.105463
H	 0.557836301	-3.793830721	-0.3498172943	 0.098519
H	-0.326597632	-2.5787891516	 0.6394746673	 0.123184
57.0523	76.7752	125.7515	178.3138	204.942	250.5825	306.3857	315.8498	351.5601	449.1223	483.902	490.8623	690.2916	769.6226	843.9305	860.1248	895.434	931.5826	979.2178	994.8313	1007.8412	1015.806	1061.239	1072.6957	1086.5907	1100.61	1119.354	1147.6993	1162.0706	1182.5464	1215.0686	1240.272	1287.2423	1308.137	1357.391	1368.0083	1399.4206	1425.7951	1476.7252	1480.7708	1487.2792	1495.2309	1504.4488	1511.1379	1514.7186	2947.751	2974.7364	3024.2266	3026.5246	3042.1166	3092.92	3108.4856	3109.9894	3115.7666	3116.244	3179.8629	3200.2768
COC(C)C12CC1OC2	CO[C@@H](C)[C@]12C[C@H]1OC2	
InChI=1S/C7H12O2/c1-5(8-2)7-3-6(7)9-4-7/h5-6H,3-4H2,1-2H3	InChI=1S/C7H12O2/c1-5(8-2)7-3-6(7)9-4-7/h5-6H,3-4H2,1-2H3/t5-,6+,7+/m0/s1
