18
gdb 46259	3.01375	1.49221	1.22698	2.2128	75.65	-0.2254	-0.0316	0.1938	1054.183	0.147699	-401.904397	-401.896609	-401.895665	-401.937452	29.802	
O	 0.030296834	 0.0583714754	-0.3729250626	-0.300084
C	-0.0366786309	 1.2241513689	-0.1035912836	 0.343
C	-1.162578424	 2.1589695697	 0.3660816848	-0.342943
C	-0.085613245	 3.2736557566	 0.5525147555	-0.326953
C	 1.0132598974	 2.3436401824	-0.040192909	 0.238875
C	 2.405799608	 2.1756615618	 0.6234952229	-0.238916
N	 3.1382947122	 2.6526497828	-0.6025698621	-0.126039
C	 2.765876711	 1.7060678746	-1.6714145385	-0.242527
C	 1.7940083998	 2.7510862527	-1.2942231483	-0.10158
H	-1.9032757655	 2.3570385802	-0.4148872328	 0.136052
H	-1.6929785153	 1.8254140793	 1.2621902514	 0.13425
H	-0.263730032	 4.1887050315	-0.0159238516	 0.114571
H	 0.0920805249	 3.5413277367	 1.596591686	 0.114215
H	 2.5609421349	 2.8739469575	 1.4492099149	 0.117979
H	 2.6794807883	 1.1633526014	 0.9385731234	 0.119041
H	 3.3338603173	 1.8588646912	-2.5836459996	 0.123986
H	 2.5590277152	 0.6685064671	-1.4214507715	 0.138513
H	 1.5335648396	 3.5886701302	-1.9348507093	 0.098558
38.5525	124.5963	155.4756	278.8353	325.1021	432.9413	452.2771	510.9087	593.0295	707.9146	730.7704	750.2238	784.6951	830.0255	861.312	892.6381	933.4458	962.0863	988.8008	1044.6106	1052.6004	1067.6179	1106.9232	1114.1573	1150.4618	1161.3398	1187.3719	1202.0644	1219.6771	1224.063	1235.9572	1284.5438	1286.9435	1351.5992	1436.6179	1482.8877	1487.7697	1504.8871	1878.1622	3046.7681	3059.2934	3071.4905	3107.2269	3110.8695	3115.3751	3126.7244	3152.2233	3208.5945
O=C1CCC11CN2CC12	O=C1CC[C@]21CN1C[C@@H]21	
InChI=1S/C7H9NO/c9-6-1-2-7(6)4-8-3-5(7)8/h5H,1-4H2	InChI=1S/C7H9NO/c9-6-1-2-7(6)4-8-3-5(7)8/h5H,1-4H2/t5-,7-,8?/m0/s1
