16
gdb 46098	4.74665	0.88429	0.80773	4.1524	77.78	-0.2422	-0.0279	0.2143	1380.361	0.123844	-400.764162	-400.755545	-400.754601	-400.798268	31.409	
O	-0.1798962974	-0.0930589958	 0.2711178778	-0.387595
C	-0.0338122683	 1.1000649049	 0.1125245821	 0.437001
N	-1.0238236188	 2.0170500433	-0.1792992535	-0.346271
C	-0.5208031135	 3.3555076219	-0.372386466	-0.244656
C	 0.9565529627	 3.1885275329	-0.0930260181	 0.340936
C	 1.9081185101	 4.3557568056	-0.1107437555	-0.454928
C	 1.8253841331	 5.1520465709	-1.3341386746	 0.305694
C	 1.7416075358	 5.8005398222	-2.3420279859	-0.451098
C	 1.2207153661	 1.9085396941	 0.1802745713	-0.338879
H	-1.965278015	 1.7286627194	-0.3828762627	 0.254178
H	-0.6858195462	 3.7310952818	-1.3916629974	 0.138985
H	-0.978223301	 4.0804220452	 0.3176309105	 0.123681
H	 1.6959944314	 5.007434518	 0.749943133	 0.14927
H	 2.9316740826	 3.9905675022	 0.0293464976	 0.149319
H	 1.6796480464	 6.3763861583	-3.2322388886	 0.204589
H	 2.1775992121	 1.4636310151	 0.4150408798	 0.119775
41.484	100.6128	114.1948	213.1668	276.11	335.0688	399.8696	413.6288	461.3896	516.7578	628.0241	649.3358	666.6787	710.5544	740.0678	870.345	881.532	928.9327	943.412	969.9205	1015.6114	1081.6878	1146.1471	1183.9463	1196.075	1229.9987	1322.2324	1330.5252	1343.0982	1425.0455	1458.1719	1498.7226	1694.2567	1824.8413	2241.1205	2996.7088	3002.7194	3029.6042	3063.4035	3238.1485	3504.1344	3673.9232
O=C1NCC(CC#C)=C1	O=C1NCC(=C1)CC#C	
InChI=1S/C7H7NO/c1-2-3-6-4-7(9)8-5-6/h1,4H,3,5H2,(H,8,9)	InChI=1S/C7H7NO/c1-2-3-6-4-7(9)8-5-6/h1,4H,3,5H2,(H,8,9)
