22
gdb 102678	2.17594	0.79827	0.61821	5.1751	83.69	-0.2763	0.0419	0.3182	1811.2289	0.192562	-404.367823	-404.356768	-404.355824	-404.405103	38.728	
C	-0.7364517416	 1.7625487207	 0.5527489021	-0.3887
C	-0.4113011132	 0.3041815117	 0.2091443781	-0.192977
C	-1.6404157882	-0.6004770191	-0.0045885748	 0.040988
C	-2.3454710994	-0.2798257632	-1.3256124048	-0.095101
O	-3.5651409469	-1.0072476301	-1.3643311706	-0.421961
C	-1.2792386933	-2.097760315	 0.037785034	-0.195587
C	-1.0246465108	-2.619128778	 1.4666990167	-0.351384
C	-0.6415984008	-4.0292263431	 1.4861152667	 0.258407
N	-0.3360987523	-5.1438289558	 1.4840347433	-0.308548
H	 0.1802196411	 2.3344687344	 0.7259821934	 0.117613
H	-1.2872630556	 2.2648166082	-0.2482363434	 0.121207
H	-1.3444682394	 1.8259231783	 1.4618502506	 0.118891
H	 0.219058332	 0.2653849167	-0.6900260635	 0.09975
H	 0.203550101	-0.111324769	 1.0162105057	 0.097452
H	-2.37004551	-0.3999688041	 0.7936274238	 0.080417
H	-2.5345122755	 0.800590883	-1.400483651	 0.090178
H	-1.6873138246	-0.558444929	-2.1656602857	 0.08774
H	-3.9717453483	-0.8742237457	-2.2251962517	 0.290327
H	-2.0986621297	-2.6713780153	-0.4018341159	 0.137964
H	-0.390029751	-2.2816857254	-0.5775124635	 0.110234
H	-0.2329671949	-2.0467120659	 1.9630040569	 0.149307
H	-1.9282812184	-2.4975054843	 2.0755024037	 0.153784
53.844	63.2272	94.4996	118.026	129.1165	201.9818	237.3828	259.0199	265.2472	277.9509	394.7636	420.3948	446.3454	486.3285	565.789	754.1507	768.114	859.6169	919.2855	939.5247	971.3519	1000.6073	1035.9647	1040.5509	1074.6625	1130.2079	1136.1953	1138.9016	1212.7183	1238.9884	1263.8146	1293.1939	1301.3759	1318.5189	1349.1285	1353.857	1383.8752	1400.755	1416.0414	1455.7801	1469.0833	1486.1013	1498.7448	1502.0097	1508.2218	1521.1379	2361.4304	2963.7447	2999.961	3014.0191	3019.3467	3036.3469	3037.2575	3045.4696	3054.4307	3076.2531	3102.7236	3109.603	3111.2746	3836.6991
CCC(CO)CCC#N	CC[C@@H](CO)CCC#N	
InChI=1S/C7H13NO/c1-2-7(6-9)4-3-5-8/h7,9H,2-4,6H2,1H3	InChI=1S/C7H13NO/c1-2-7(6-9)4-3-5-8/h7,9H,2-4,6H2,1H3/t7-/m1/s1
