20
gdb 98854	3.00543	1.13336	0.94558	1.6858	75.98	-0.2261	0.0169	0.243	1318.3404	0.170153	-440.292454	-440.282697	-440.281753	-440.328216	34.478	
C	 0.8829222961	 1.44123883	 0.2413097837	-0.238125
O	 1.0190113909	 0.0385369151	 0.5016451338	-0.223705
C	-0.1363627032	-0.6348347199	 0.6329379822	 0.449641
O	-1.2280707169	-0.12797646	 0.5358795561	-0.376748
C	 0.0908945142	-2.1145899928	 0.8623685993	-0.108481
N	 1.3329979224	-2.5261778849	 1.537130895	-0.303604
C	 0.6065936533	-3.5932324259	 2.2628764122	-0.171041
C	-0.7262411263	-2.8463284516	 1.9741755611	 0.007668
C	-1.2284496157	-1.9731670143	 3.1169573776	-0.400847
H	 0.353864128	 1.9349379025	 1.0603144779	 0.140977
H	 1.8987053651	 1.8272041573	 0.1560009012	 0.132512
H	 0.328067118	 1.6105623893	-0.6851748485	 0.138467
H	-0.0799599544	-2.6018415443	-0.1124056685	 0.091394
H	 2.0925318668	-2.8210501917	 0.9345178458	 0.21915
H	 0.6437744105	-4.5810784941	 1.7815757338	 0.087491
H	 0.8988863384	-3.7008079909	 3.3134738165	 0.100673
H	-1.5320728127	-3.4739657989	 1.5899339012	 0.078973
H	-0.4183202594	-1.358998067	 3.5242958636	 0.126178
H	-2.025124455	-1.3058253575	 2.779142454	 0.140961
H	-1.6182481801	-2.5972061203	 3.9281517221	 0.108467
27.6776	103.4071	116.0439	140.3893	164.2882	223.2582	251.6007	318.941	353.192	384.2702	481.2285	563.3398	683.2048	792.3712	817.5193	849.7671	896.9206	917.0395	950.5275	1022.3088	1045.8118	1056.7236	1079.3413	1113.642	1146.6366	1178.3608	1181.9027	1210.5302	1223.6382	1258.331	1275.3443	1323.0391	1364.1014	1372.1759	1389.2071	1408.0196	1472.7925	1481.298	1492.1791	1497.0092	1502.9558	1522.9795	1806.9174	2957.0621	2993.4712	3034.9221	3051.2535	3055.5578	3086.2175	3105.1172	3124.5461	3125.1211	3158.6786	3536.4224
COC(=O)C1NCC1C	COC(=O)[C@H]1NC[C@H]1C	
InChI=1S/C6H11NO2/c1-4-3-7-5(4)6(8)9-2/h4-5,7H,3H2,1-2H3	InChI=1S/C6H11NO2/c1-4-3-7-5(4)6(8)9-2/h4-5,7H,3H2,1-2H3/t4-,5+/m1/s1
