23
gdb 111323	2.3599	1.40704	1.05728	0.2509	89.76	-0.2404	0.0904	0.3308	1264.7292	0.205893	-351.115909	-351.106972	-351.106028	-351.149364	35.28	
C	-0.0248883081	 1.6057273414	-0.0921268296	-0.381299
C	 0.0167860196	 0.0897287368	 0.125614434	-0.19211
C	-1.360053764	-0.5604057088	 0.0229557941	-0.062744
C	-2.0682413121	-0.6107854192	-1.3471849349	-0.053139
C	-1.3670449779	-1.5337702341	-2.3081492118	-0.286782
C	-2.2330335195	-2.1294490923	-1.2326004795	-0.137876
C	-1.4956834437	-2.1049043293	 0.0913201137	 0.374908
C	-0.5090962692	-3.1141212329	 0.6074830181	-0.326023
C	-1.835683687	-2.9068220321	 1.3085379109	-0.342583
H	 0.9727922592	 2.0484870597	-0.0123969712	 0.109706
H	-0.4192519437	 1.8494955574	-1.0844017689	 0.120208
H	-0.667039273	 2.0956632028	 0.6487039378	 0.111028
H	 0.6973308268	-0.368093447	-0.6023225686	 0.095008
H	 0.4418286765	-0.1271893463	 1.1150233665	 0.0901
H	-2.0293229181	-0.1047513515	 0.7635168063	 0.069042
H	-2.7938420677	 0.1149185264	-1.6939094777	 0.082242
H	-1.7862100272	-1.5524524936	-3.3095200051	 0.10662
H	-0.2887381315	-1.6671101994	-2.2772231098	 0.107849
H	-3.1033523715	-2.7362069317	-1.4545958174	 0.082926
H	-0.3656618374	-4.0277588532	 0.0391871995	 0.108738
H	 0.3865399088	-2.7519685901	 1.102390142	 0.108832
H	-1.832416323	-2.4054387629	 2.2719111861	 0.10692
H	-2.5886477861	-3.6836125703	 1.2160295253	 0.108427
84.7613	130.0276	154.756	209.4639	245.7511	273.3111	278.5152	419.7983	472.8508	530.0583	565.1007	729.6746	759.8341	782.5915	792.5673	825.0588	890.9889	912.2237	917.6172	937.7227	945.0958	972.1831	995.7293	1015.6409	1032.573	1050.7246	1063.3461	1074.364	1084.8436	1091.1263	1114.3414	1156.9924	1181.8064	1188.4263	1231.6665	1235.5419	1281.7545	1287.8738	1339.1395	1342.6212	1384.901	1403.3894	1410.7921	1464.0179	1482.2127	1490.9828	1499.5958	1505.318	1507.6637	3015.8112	3021.3714	3029.7093	3053.8498	3096.3616	3102.3541	3112.3962	3116.3617	3123.4178	3171.5009	3181.3667	3194.2991	3199.7133	3210.7338
CCC1C2CC2C11CC1	CC[C@H]1[C@H]2C[C@H]2C21CC2	
InChI=1S/C9H14/c1-2-7-6-5-8(6)9(7)3-4-9/h6-8H,2-5H2,1H3	InChI=1S/C9H14/c1-2-7-6-5-8(6)9(7)3-4-9/h6-8H,2-5H2,1H3/t6-,7+,8-/m1/s1
