20
gdb 95418	2.87807	1.12614	0.84088	4.7447	87.87	-0.2585	-0.0336	0.2249	1374.9632	0.172529	-366.063341	-366.05466	-366.053716	-366.0966	33.099	
C	-0.0052686093	 1.5595728908	 0.0408049076	-0.406378
C	 0.0252939382	 0.0298151688	 4.8767*^-6	 0.024101
C	 0.6919301394	-0.5036405314	-1.2764122725	-0.199518
C	 0.6079625776	-2.0337741863	-1.3571375351	-0.271012
C	 0.9307755662	-2.6967456133	-0.0501974897	-0.105147
C	 0.9994541844	-2.0334296862	 1.1139320425	 0.147068
C	 0.7335367255	-0.5446150096	 1.2382726794	-0.292492
C	 1.3375596666	-2.7300985052	 2.3161705776	 0.212769
N	 1.6094631004	-3.259179338	 3.3105317994	-0.338523
H	 1.0090660489	 1.9736984666	 0.0012711025	 0.116971
H	-0.5644803828	 1.9656739226	-0.8082402324	 0.114886
H	-0.4774483861	 1.9244051565	 0.9589910769	 0.117042
H	-1.0112941972	-0.3370682979	 0.0126827829	 0.080005
H	 0.2287177982	-0.0567803255	-2.162704601	 0.09823
H	 1.7459678673	-0.1952366566	-1.283325302	 0.103018
H	-0.4003242366	-2.3459065563	-1.6692797474	 0.123077
H	 1.2803501717	-2.4186876164	-2.1340033294	 0.117301
H	 1.1133654705	-3.7676270807	-0.0602967324	 0.113101
H	 1.6874525235	-0.022512811	 1.4018182789	 0.121701
H	 0.1364908236	-0.357869981	 2.1382151574	 0.123799
95.4837	144.9628	166.5055	221.3489	233.8196	307.5023	369.866	398.4558	439.8127	444.3816	569.8727	576.3367	610.8104	783.2576	836.5177	876.3587	887.4497	919.7588	949.8464	968.7783	991.6978	1060.7775	1087.0076	1117.6885	1156.1321	1160.5604	1177.2054	1250.156	1279.5238	1317.0742	1330.1005	1368.2762	1370.6271	1381.5404	1399.6385	1415.0204	1467.659	1475.8429	1493.3318	1497.3801	1500.2259	1697.4505	2333.1799	2996.8172	2998.5582	3010.1344	3021.6256	3028.3582	3045.9359	3060.4479	3071.6378	3094.4626	3101.4054	3173.0892
CC1CCC=C(C1)C#N	C[C@H]1CCC=C(C1)C#N	
InChI=1S/C8H11N/c1-7-3-2-4-8(5-7)6-9/h4,7H,2-3,5H2,1H3	InChI=1S/C8H11N/c1-7-3-2-4-8(5-7)6-9/h4,7H,2-3,5H2,1H3/t7-/m0/s1
