25
gdb 104027	3.07101	1.11828	1.07014	0.1612	91.25	-0.2579	0.0791	0.337	1319.7972	0.230046	-352.364854	-352.355577	-352.354633	-352.398395	37.24	
C	 0.1325367928	 1.5296892674	-0.0869029178	-0.394548
C	-0.0267570422	 0.0066350097	-0.013734474	-0.219729
C	-1.4746667187	-0.5170920469	 0.0363919088	 0.344193
C	-2.214657226	-0.0024190379	 1.2849164048	-0.428156
C	-2.300665757	-0.147197893	-1.2350350264	-0.266737
C	-3.3072770904	-1.2821237653	-1.4263718733	-0.026954
C	-2.8279649478	-2.5224834083	-2.1358526638	-0.28286
C	-2.8174632198	-2.4766851391	-0.6291561742	-0.026638
C	-1.5078826984	-2.076661286	 0.0498773914	-0.27445
H	 1.1891554537	 1.8025123071	-0.1730005976	 0.110217
H	-0.386628683	 1.9470001648	-0.9562274748	 0.116815
H	-0.2605911077	 2.0270699263	 0.8049559866	 0.116782
H	 0.4671776176	-0.4419710838	-0.8861069419	 0.086904
H	 0.5153863569	-0.3689529023	 0.8648791376	 0.088555
H	-2.3209635812	 1.0867006623	 1.2756482313	 0.110022
H	-3.221095696	-0.4307858564	 1.3392724498	 0.115039
H	-1.6823241356	-0.2817137899	 2.2013985453	 0.105522
H	-2.8021735666	 0.8181989158	-1.1188128377	 0.093921
H	-1.6419247886	-0.0544765516	-2.1078419042	 0.089762
H	-4.3630449875	-1.0408290437	-1.4782706319	 0.078509
H	-3.5712590593	-3.1488086116	-2.6185078654	 0.103464
H	-1.8755100487	-2.4810538298	-2.6584878659	 0.101258
H	-3.5124275929	-3.1138520698	-0.0938300294	 0.078489
H	-0.6443855276	-2.4833683389	-0.4914108201	 0.088632
H	-1.4458915659	-2.4626210091	 1.072330663	 0.091989
83.4861	105.9575	205.9482	240.8347	264.2988	291.1568	309.7009	357.8673	390.0653	424.0908	455.6924	581.676	666.662	755.6039	780.44	789.3288	814.2865	881.5742	891.6648	907.3582	915.1124	949.8612	951.8951	1008.399	1022.3107	1024.6921	1042.1111	1069.3394	1087.6532	1096.4417	1110.4042	1172.3707	1181.6857	1204.2308	1215.6571	1241.7761	1278.1291	1292.1777	1330.927	1339.739	1345.655	1372.3194	1383.8176	1408.053	1414.3221	1478.0294	1482.2138	1490.1301	1494.1167	1501.2091	1506.2486	1511.0118	1512.4511	3005.8502	3019.514	3023.7591	3028.8524	3036.2056	3038.7448	3072.7572	3077.796	3093.3389	3099.0729	3101.346	3107.937	3110.2012	3162.0791	3169.5547	3199.1754
CCC1(C)CC2CC2C1	CC[C@@]1(C)C[C@H]2C[C@H]2C1	
InChI=1S/C9H16/c1-3-9(2)5-7-4-8(7)6-9/h7-8H,3-6H2,1-2H3	InChI=1S/C9H16/c1-3-9(2)5-7-4-8(7)6-9/h7-8H,3-6H2,1-2H3/t7-,8+,9+
