17
gdb 133067	3.29756	1.10898	0.88315	0.5023	78.17	-0.2575	-0.0171	0.2404	1292.8659	0.136707	-426.044951	-426.036986	-426.036042	-426.078278	29.807	
C	-0.0039914587	 1.5148631744	-0.270700736	-0.369194
C	-0.0228535189	 0.0232751196	 0.1005165889	-0.264576
C	-1.4166593185	-0.5565228356	 0.0602586196	 0.348308
N	-2.2690933133	-0.121222016	 1.0009565997	-0.317719
C	-3.5137046229	-0.5980175637	 0.9876445465	 0.006359
C	-3.9912396422	-1.5211213205	 0.0612199423	-0.271626
C	-3.0935846709	-1.9561861157	-0.9001225194	 0.340918
F	-3.4817187859	-2.8400407167	-1.8180534198	-0.072547
C	-1.7915861031	-1.4812637538	-0.9169699505	-0.329301
H	 1.0072336039	 1.9234398364	-0.1848586933	 0.113138
H	-0.3471396087	 1.6700182511	-1.2988111429	 0.115343
H	-0.6635544931	 2.076558393	 0.3957272305	 0.139843
H	 0.6325577283	-0.5417649198	-0.5704035627	 0.098709
H	 0.3675676154	-0.0977160486	 1.1170640456	 0.120751
H	-4.1772219672	-0.2264876546	 1.7651513939	 0.115017
H	-5.0095236889	-1.8879057014	 0.0832785928	 0.11546
H	-1.0950697654	-1.827379328	-1.6711205952	 0.111119
39.5788	137.571	218.3544	240.2784	297.7865	318.4969	452.8905	475.3145	519.3629	554.209	657.0016	759.8959	777.9625	795.5767	853.0446	896.3105	927.9672	986.3989	995.1704	1016.7698	1066.1125	1085.8928	1112.075	1176.0631	1267.3346	1305.0566	1315.0725	1327.4832	1352.2793	1401.8913	1444.1264	1480.2155	1496.2296	1509.5838	1514.2287	1621.7897	1636.9345	3039.2289	3041.2051	3081.2488	3108.9675	3126.8697	3155.2658	3205.247	3217.2625
CCC1=NC=CC(F)=C1	CCc1nccc(F)c1	
InChI=1S/C7H8FN/c1-2-7-5-6(8)3-4-9-7/h3-5H,2H2,1H3	InChI=1S/C7H8FN/c1-2-7-5-6(8)3-4-9-7/h3-5H,2H2,1H3
