19
gdb 117400	7.16791	0.53691	0.50416	0.7885	80.64	-0.2477	-0.0127	0.235	2148.2672	0.15722	-456.376247	-456.365597	-456.364653	-456.413366	36.227	
C	-0.9871859313	 1.7445157132	 0.1650400466	-0.311148
N	-1.0652863066	 0.3494073798	 0.5477673461	-0.237291
C	-0.2478906551	-0.4496271897	 0.0057764429	 0.116448
N	-0.2638652475	-1.800791902	 0.3238535242	-0.35007
C	 0.5964196978	-2.7334253013	-0.2256239399	 0.429472
O	 1.444238179	-2.4333484722	-1.0423918242	-0.355623
C	 0.382904872	-4.1495628241	 0.2817272821	-0.32185
C	 1.3483180811	-5.1403148152	-0.3536495782	-0.071226
O	 1.0512587643	-6.4145316455	 0.1969633886	-0.424623
H	-0.2021647986	 1.9599680029	-0.5765960902	 0.103644
H	-1.9507597341	 2.0665557325	-0.246721616	 0.128422
H	-0.8023760023	 2.3590571253	 1.0538133959	 0.128423
H	 0.5200817451	-0.1941347444	-0.7297441258	 0.130961
H	-0.9565221307	-2.0886217714	 1.0002243768	 0.260481
H	 0.4992259572	-4.1699210995	 1.3725512273	 0.135767
H	-0.6498201421	-4.4602646848	 0.0799006948	 0.135583
H	 1.2242736963	-5.1262319621	-1.4452782686	 0.106662
H	 2.3819642353	-4.8332198772	-0.1428850677	 0.106805
H	 1.6531173204	-7.0549520541	-0.1928073046	 0.289162
36.9772	63.1085	93.2823	114.3101	137.5908	204.4834	213.9023	269.6356	310.3171	330.963	367.5199	400.3477	569.651	570.4201	650.6789	732.961	813.0613	952.9009	1010.9954	1030.1303	1064.0593	1069.8713	1082.0632	1132.6388	1143.2671	1168.319	1208.5354	1255.2626	1256.931	1305.8701	1337.9864	1368.0885	1446.2894	1456.7979	1473.3967	1479.8199	1492.5959	1516.616	1524.0092	1757.7486	1793.6333	2979.2959	3002.7389	3032.055	3034.2005	3060.8898	3073.5368	3075.4833	3098.003	3614.1903	3834.0527
CN=CNC(=O)CCO	CN=CNC(=O)CCO	
InChI=1S/C5H10N2O2/c1-6-4-7-5(9)2-3-8/h4,8H,2-3H2,1H3,(H,6,7,9)	InChI=1S/C5H10N2O2/c1-6-4-7-5(9)2-3-8/h4,8H,2-3H2,1H3,(H,6,7,9)
