23
gdb 118778	3.02309	0.91244	0.80633	2.3566	82.85	-0.2293	0.0608	0.29	1551.9364	0.202252	-425.419348	-425.40844	-425.407496	-425.454969	40.942	
C	-0.1738788043	 1.5755193788	 0.0562021776	-0.385239
C	-0.2104734943	 0.0562809834	-0.1249679791	-0.155081
C	 0.8638625092	-0.4520833563	-1.096885884	-0.234269
C	 0.845381992	-1.9568930386	-1.2468015377	 0.418694
O	 1.0669193389	-2.5905040778	-0.0194864631	-0.48489
C	-0.1163314674	-2.6306962407	-2.2198107397	-0.415169
C	 1.3819704779	-2.6764639311	-2.464513059	 0.288397
C	 2.0141534547	-1.9884864169	-3.6503014176	-0.444009
O	 2.039936901	-3.8772851132	-2.1056404882	-0.471761
H	 0.7940663925	 1.9046281042	 0.4509107287	 0.113344
H	-0.3345843301	 2.0956386225	-0.8953817513	 0.107619
H	-0.947804754	 1.9123242441	 0.7530937477	 0.110025
H	-0.0727948454	-0.440434786	 0.8408489608	 0.120436
H	-1.1987515533	-0.2503404796	-0.490883941	 0.092456
H	 0.722789806	 0.0210359596	-2.0751796601	 0.087812
H	 1.8552943227	-0.1489027759	-0.7355520008	 0.099156
H	 1.549328576	-3.4036475045	-0.2259797123	 0.288093
H	-0.5928044566	-3.5421376816	-1.8726751557	 0.106825
H	-0.722986594	-2.0148359607	-2.8767590261	 0.107862
H	 1.5246859053	-1.0383945964	-3.8763753402	 0.122655
H	 3.0754172448	-1.7963341078	-3.4638031071	 0.128529
H	 1.9369733548	-2.6204665297	-4.5435082038	 0.109174
H	 1.6838839835	-4.5927053257	-2.6429026481	 0.28934
77.5415	85.9828	112.0661	189.2389	202.0161	244.7014	247.4921	267.1452	312.1297	324.0749	384.042	395.5976	443.4567	478.9812	491.4754	588.7529	716.7141	753.1688	777.7825	864.136	883.0416	903.599	921.2347	935.4151	975.6657	1024.0452	1048.1488	1072.4229	1086.3234	1121.2562	1170.4691	1212.2666	1259.8463	1271.7374	1304.0871	1310.0359	1327.6637	1373.0645	1384.9999	1411.5354	1417.4288	1432.33	1473.1574	1476.9872	1486.4871	1493.5431	1499.5735	1505.4302	1511.3622	3018.4732	3025.4877	3028.3441	3031.7285	3061.513	3076.7957	3091.4536	3098.6995	3099.9387	3119.0393	3125.9293	3212.4315	3732.171	3806.8266
CCCC1(O)CC1(C)O	CCC[C@@]1(O)C[C@]1(C)O	
InChI=1S/C7H14O2/c1-3-4-7(9)5-6(7,2)8/h8-9H,3-5H2,1-2H3	InChI=1S/C7H14O2/c1-3-4-7(9)5-6(7,2)8/h8-9H,3-5H2,1-2H3/t6-,7+/m0/s1
