16
gdb 39571	3.52434	1.64471	1.17566	1.8779	69.34	-0.2482	-0.001	0.2472	991.0151	0.127049	-437.878177	-437.871589	-437.870645	-437.909118	26.144	
C	 0.0234620981	 1.5166263703	-0.1075114028	-0.133363
O	 1.2607021052	 2.1390596506	 0.2933689321	-0.265128
C	 2.2781946747	 1.2201847441	 0.1058201463	 0.23891
O	 3.5946290339	 1.6991657661	 0.4123714815	-0.251607
C	 4.2200209891	 0.5358875847	 0.7887185457	 0.103181
N	 3.5261336611	-0.4930739279	 1.0755862959	-0.300427
C	 2.1437256689	 0.0327192056	 1.0394174725	 0.015517
C	 0.9342325217	-0.7310594331	 0.5956316508	-0.149615
C	-0.0529911159	 0.0126397167	 0.0883857462	-0.061605
H	-0.7602451656	 2.0175585473	 0.4713532177	 0.134829
H	-0.1656978002	 1.745108049	-1.1695509291	 0.118853
H	 2.3039766592	 0.882927962	-0.9465298586	 0.075451
H	 5.3018027422	 0.599224425	 0.8151739335	 0.142768
H	 1.9451147099	 0.4236852331	 2.0508821418	 0.115626
H	 0.8568887821	-1.8050946788	 0.7239656401	 0.111381
H	-0.9897455444	-0.4345070248	-0.2336272837	 0.105229
141.0058	210.7276	281.9648	375.3182	432.9071	471.5988	546.0065	580.3206	604.3913	696.3034	794.3376	860.4224	884.0798	944.8577	972.2596	981.794	1009.8762	1031.4277	1066.4396	1093.9665	1099.8368	1150.4101	1165.9264	1197.2493	1253.1627	1272.2038	1327.2639	1343.0355	1372.3827	1394.9035	1403.7362	1445.2419	1492.0045	1653.3669	1691.1276	2937.4747	2969.7786	2973.803	3062.8083	3165.2622	3196.9136	3220.3772
C1OC2OC=NC2C=C1	C1O[C@H]2O[CH][N][C@@H]2C=C1	
InChI=1S/C6H7NO2/c1-2-5-6(8-3-1)9-4-7-5/h1-2,4-6H,3H2	InChI=1S/C6H7NO2/c1-2-5-6(8-3-1)9-4-7-5/h1-2,4-6H,3H2/t5-,6+/m1/s1
