18
gdb 71862	3.13088	1.58215	1.29202	3.429	77.33	-0.2471	0.0273	0.2744	1021.6187	0.149438	-401.94572	-401.93849	-401.937546	-401.9771	29.252	
C	-0.0614812237	 1.513606279	 0.0074903963	-0.50163
C	 0.0346235569	 0.0168792374	-0.0347040428	 0.324155
C	 0.8495742616	-0.7968010044	-1.0446418022	-0.298724
C	-0.0718753652	-2.0083548282	-0.7234295104	 0.06601
O	 0.5324326015	-2.8158818329	 0.3002064116	-0.25228
C	 0.5631551959	-2.0685673622	 1.4543465746	 0.421145
N	 1.1316716274	-2.4086604172	 2.5299089707	-0.562437
C	-0.2314752661	-0.8321946563	 1.2218788098	-0.175328
C	-1.0566738806	-1.0385858277	-0.0207930191	-0.139167
H	 0.8847884717	 1.9594786396	 0.3341549689	 0.132469
H	-0.2966114516	 1.9181124313	-0.9834871054	 0.121898
H	-0.8416535979	 1.8450985962	 0.7000741931	 0.124542
H	 0.6846014215	-0.426714102	-2.0611230606	 0.105693
H	 1.9205970868	-0.9454174736	-0.8729390819	 0.107743
H	-0.4003777063	-2.6603664926	-1.5288783104	 0.095381
H	 1.5775055309	-3.3215199801	 2.4232920101	 0.220214
H	-0.6302061573	-0.3108281669	 2.0811831102	 0.111879
H	-2.1347471856	-0.9797372993	-0.0896612123	 0.098437
145.1344	199.0439	208.9965	285.0136	394.0068	437.0391	446.3721	574.5766	628.7893	679.7845	718.5769	792.9338	850.5437	874.7443	885.9747	897.4017	900.1829	911.7375	954.2178	998.3438	1007.6425	1026.1656	1048.6712	1087.4784	1124.9814	1160.2374	1197.1324	1201.2052	1227.8298	1252.0009	1300.3325	1312.336	1370.6734	1406.9243	1427.8058	1485.7357	1490.5043	1498.3281	1778.4734	3026.4727	3043.4802	3088.3902	3099.6947	3100.9007	3152.6494	3202.7922	3221.4567	3471.9965
CC12CC3OC(=N)C1C23	C[C@@]12C[C@H]3O[C]([NH])[C@@H]1[C@@H]23	
InChI=1S/C7H9NO/c1-7-2-3-4(7)5(7)6(8)9-3/h3-5,8H,2H2,1H3	InChI=1S/C7H9NO/c1-7-2-3-4(7)5(7)6(8)9-3/h3-5,8H,2H2,1H3/t3-,4+,5+,7+/m1/s1
