25
gdb 118899	3.2311	0.90017	0.87771	0.1161	93.5	-0.2342	0.0313	0.2655	1525.5062	0.228884	-352.380904	-352.370984	-352.37004	-352.415589	38.293	
C	 0.1442294879	 1.6489419211	-0.2215715063	-0.377339
C	 0.099093143	 0.1246768787	-0.0753486804	-0.179756
C	-1.3338563299	-0.4237250209	-0.0727206567	-0.222279
C	-1.4839538849	-1.9408624389	 0.1508670859	 0.327086
C	-0.7655866204	-2.745119088	-0.9477663354	-0.431006
C	-0.9638217488	-2.4055888741	 1.5515143095	-0.286403
C	-1.987333039	-3.4146377971	 2.0086031844	-0.065106
C	-3.0851449415	-3.3878758738	 1.2558849509	-0.060505
C	-2.9923407817	-2.355511541	 0.1617119439	-0.298862
H	 1.1740808793	 2.0197920382	-0.2274726571	 0.109055
H	-0.330673022	 1.9709484509	-1.1552027331	 0.112662
H	-0.3830237235	 2.142694593	 0.6024063487	 0.112329
H	 0.6731259503	-0.3302345402	-0.8911502368	 0.098058
H	 0.6068083333	-0.1660203625	 0.8531253092	 0.097234
H	-1.9062849616	 0.0965343839	 0.7082887495	 0.086676
H	-1.8165666626	-0.1582252984	-1.0244146732	 0.086691
H	 0.316924471	-2.5857792044	-0.9290099624	 0.111069
H	-0.9440343843	-3.8172793441	-0.81369839	 0.115936
H	-1.1306455832	-2.4654595588	-1.9426749347	 0.105795
H	 0.0492129013	-2.8226137026	 1.4965066256	 0.096052
H	-0.9081128027	-1.5669542929	 2.2610378893	 0.097871
H	-1.8335993039	-4.052938938	 2.8722037476	 0.086695
H	-3.9665500894	-4.0013322679	 1.4094123942	 0.086887
H	-3.6430974582	-1.4971595407	 0.3836262187	 0.096402
H	-3.3154950484	-2.7358550614	-0.8155308012	 0.094757
75.8876	99.7276	110.0618	171.9832	246.8668	281.8413	311.6139	320.8396	341.7345	386.5054	421.1934	433.3159	646.2882	696.915	745.6583	770.3021	779.7385	865.7469	898.1172	919.7151	936.3101	954.1193	968.896	977.2411	985.9234	990.0363	1047.033	1051.0537	1102.0934	1128.223	1134.3119	1157.3676	1192.9797	1216.1969	1263.0498	1293.9926	1301.1313	1319.1254	1337.3466	1346.3968	1368.4757	1396.1332	1407.0938	1413.8541	1475.8847	1480.9387	1489.2999	1493.4953	1499.5521	1499.8635	1505.822	1511.6272	1690.6469	2992.7227	2996.8104	3002.3041	3024.6393	3025.5405	3027.8553	3028.9759	3038.9581	3041.9628	3061.3031	3093.1274	3095.5496	3099.9119	3102.4438	3175.3305	3201.3048
CCCC1(C)CC=CC1	CCC[C@@]1(C)CC=CC1	
InChI=1S/C9H16/c1-3-6-9(2)7-4-5-8-9/h4-5H,3,6-8H2,1-2H3	InChI=1S/C9H16/c1-3-6-9(2)7-4-5-8-9/h4-5H,3,6-8H2,1-2H3
