19
gdb 72513	2.71814	1.71096	1.70572	1.2076	78.23	-0.232	0.005	0.2371	930.5968	0.161523	-385.901355	-385.894219	-385.893275	-385.93209	30.724	
O	-0.0371800252	 1.4165377798	 0.0133697184	-0.519191
C	 0.0531564287	 0.0051900413	-0.0009891236	 0.338509
C	-1.4000716262	-0.5783819915	 0.0111760169	-0.198539
C	-1.3175210229	-2.124485425	-0.0043741044	-0.201852
C	 0.2001970896	-2.5542185664	-0.0268038322	-0.124749
C	 0.7857479578	-1.8956766094	-1.2650501315	-0.078735
C	 0.7070456355	-0.5673713342	-1.2508133179	-0.126201
C	 0.8157520643	-1.9189123905	 1.2090271499	-0.078738
C	 0.7370447577	-0.5905916151	 1.2216396758	-0.126192
H	 0.8590473781	 1.7684015455	 0.0056704166	 0.274505
H	-1.9106647472	-0.2078555669	 0.9036768278	 0.104432
H	-1.9321213011	-0.191251716	-0.8615240935	 0.10443
H	-1.7984883932	-2.5519164294	 0.8796362945	 0.099274
H	-1.8198421099	-2.5353205778	-0.884368486	 0.099274
H	 0.2986357446	-3.640428377	-0.0382021624	 0.061281
H	 1.1721344664	-2.4859277121	-2.0878261984	 0.094235
H	 1.0047522643	 0.1003294034	-2.0519580503	 0.092011
H	 1.2218409926	-2.524418077	 2.0109658744	 0.094234
H	 1.0542502461	 0.0620299483	 2.027711436	 0.092013
218.8676	269.9324	310.4908	328.7832	403.8492	417.0932	474.5484	501.2188	549.6971	636.5353	687.7746	697.281	723.6189	729.711	820.1263	835.4362	904.7791	943.8041	954.3319	960.8811	969.8815	989.419	998.6932	1008.9571	1095.2983	1116.6305	1131.781	1168.5838	1213.8316	1222.3088	1253.3422	1299.1348	1313.2051	1327.7685	1341.8211	1354.408	1383.6924	1489.1207	1507.4829	1645.4923	1696.8781	3051.7687	3065.0974	3091.806	3100.3436	3112.8787	3179.5707	3180.9132	3203.6554	3206.6096	3811.4112
OC12CCC(C=C1)C=C2	O[C@@]12CC[C@@H](C=C1)C=C2	
InChI=1S/C8H10O/c9-8-4-1-7(2-5-8)3-6-8/h1-2,4-5,7,9H,3,6H2	InChI=1S/C8H10O/c9-8-4-1-7(2-5-8)3-6-8/h1-2,4-5,7,9H,3,6H2/t7-,8-
