22
gdb 117966	3.93877	0.74352	0.67349	1.8604	81.23	-0.2465	0.0309	0.2773	1750.5438	0.191595	-441.481207	-441.470086	-441.469142	-441.518295	38.602	
C	 0.1016476018	 1.353120406	 0.0682338187	-0.2251
O	 0.0158251641	-0.0472072265	-0.0218425977	-0.239388
C	-1.3164888746	-0.5178621861	 0.0396902082	-0.058682
C	-1.2729960066	-2.0437668279	-0.0286482469	-0.074604
C	-0.519667775	-2.6477430363	 1.1716029428	-0.396104
C	-2.6633327757	-2.6270007539	-0.1353328321	 0.411431
N	-3.7060963445	-1.9465878991	 0.1071381522	-0.537715
O	-2.5849257698	-3.937869819	-0.4993762699	-0.23199
C	-3.7970134396	-4.6671851594	-0.6055548659	-0.265746
H	 1.1593289268	 1.6226187226	 0.0095840234	 0.122681
H	-0.4376647061	 1.8502509199	-0.7540184622	 0.102459
H	-0.3089780487	 1.7288101782	 1.019158126	 0.103132
H	-1.8048998579	-0.1908809353	 0.9703771196	 0.1008
H	-1.9105295512	-0.1130023031	-0.7932780332	 0.095526
H	-0.7335249951	-2.3238809143	-0.9419137748	 0.101961
H	-0.4410010937	-3.7331097307	 1.0768845878	 0.121171
H	 0.4834094022	-2.2206267953	 1.2263686477	 0.135805
H	-1.0427987372	-2.419440002	 2.1067656061	 0.117171
H	-4.5673398668	-2.480806458	 0.0065169434	 0.214931
H	-4.3357076927	-4.6924863288	 0.3496996982	 0.130499
H	-4.4532111541	-4.2454694204	-1.3769692203	 0.130178
H	-3.5166295554	-5.6824907004	-0.8884243309	 0.141584
40.8214	84.7099	97.96	118.3092	143.8277	219.7317	221.8804	236.496	251.0366	298.7046	331.3542	357.4002	372.4102	534.7098	639.3668	707.5798	835.6559	863.5672	907.6103	935.7153	986.9001	1009.0889	1081.9679	1125.6482	1132.8009	1158.1474	1172.6757	1175.0464	1195.0942	1217.2279	1224.7122	1256.2343	1276.7071	1345.0193	1362.2735	1400.2502	1423.6904	1472.5479	1481.6206	1484.4067	1491.5307	1496.9849	1502.7121	1507.0571	1507.2425	1522.7495	1729.4054	2965.6233	2986.1879	3009.6461	3012.938	3015.8206	3039.2938	3046.1653	3075.0666	3109.3364	3116.5331	3141.3924	3142.1789	3501.5884
COCC(C)C(=N)OC	COC[C@@H](C)[C]([NH])OC	
InChI=1S/C6H13NO2/c1-5(4-8-2)6(7)9-3/h5,7H,4H2,1-3H3	InChI=1S/C6H13NO2/c1-5(4-8-2)6(7)9-3/h5,7H,4H2,1-3H3/t5-/m1/s1
