20
gdb 96283	2.13614	1.61452	1.10979	4.3517	75.58	-0.2331	0.0217	0.2548	1153.5869	0.1727	-440.31802	-440.309396	-440.308452	-440.351322	32.992	
C	-0.2480697671	 1.4610144835	 0.0919012338	-0.388092
C	 0.0120562899	-0.0493724472	-0.0442988794	 0.014562
C	 0.6135647563	-0.4529554443	-1.400801666	-0.19616
C	 2.0078274535	 0.0904250106	-1.7098005624	-0.080067
O	 3.0067177062	-0.4436252608	-0.8645668458	-0.231126
C	 3.0703892891	 0.1138249321	 0.4265885605	-0.186573
C	 2.066716945	-0.4147480679	 1.4628909349	 0.360654
O	 2.4446706714	-0.6714446863	 2.592318971	-0.361801
N	 0.7580897112	-0.5921349732	 1.0963288359	-0.299755
H	 0.6789685817	 2.0407608735	 0.075889246	 0.125177
H	-0.8844728852	 1.8184237459	-0.7244710121	 0.118797
H	-0.7549189043	 1.674683362	 1.0373299951	 0.122911
H	-0.9614198523	-0.5494110737	 0.008995989	 0.093714
H	 0.6561794529	-1.546199375	-1.451322193	 0.116377
H	-0.0716973774	-0.1147611454	-2.1880412352	 0.099508
H	 2.2901429018	-0.2023111574	-2.726118346	 0.111706
H	 2.0243000932	 1.1917182154	-1.6693300986	 0.090849
H	 4.0533774593	-0.1287314146	 0.8339390329	 0.140667
H	 2.9853638398	 1.2136645634	 0.385506227	 0.104811
H	 0.2001190749	-0.8882839204	 1.8857819522	 0.243842
74.9052	117.4975	185.4172	230.3563	268.0918	351.884	384.4043	393.2852	438.8737	489.7798	527.8686	581.1325	654.0668	680.7509	781.9892	831.1077	863.2207	954.1852	973.2222	1007.4134	1019.598	1046.272	1058.9513	1145.3702	1167.6018	1184.2165	1249.0848	1283.3634	1309.3003	1349.0987	1354.6149	1376.4875	1390.6181	1410.7999	1421.0602	1426.9452	1459.963	1468.9633	1475.6741	1491.5458	1500.0399	1506.6254	1775.1417	2958.5231	2976.3575	3028.6314	3039.4925	3044.5335	3074.7971	3084.0203	3110.2293	3118.2362	3120.8947	3590.0377
CC1CCOCC(=O)N1	C[C@H]1CCOCC(=O)N1	
InChI=1S/C6H11NO2/c1-5-2-3-9-4-6(8)7-5/h5H,2-4H2,1H3,(H,7,8)	InChI=1S/C6H11NO2/c1-5-2-3-9-4-6(8)7-5/h5H,2-4H2,1H3,(H,7,8)/t5-/m0/s1
