23
gdb 92539	2.21124	1.67953	1.34037	1.4511	83.81	-0.2359	0.0728	0.3088	1110.533	0.207174	-388.294187	-388.285526	-388.284581	-388.326998	34.57	
C	 1.0911042968	 1.0391304866	-0.7080667262	-0.401977
C	 0.2752896822	-0.0813309564	-0.0559855569	 0.105155
O	 0.2684888775	-1.260141722	-0.8705478841	-0.27536
C	 1.1851505615	-2.2225393331	-0.3772267734	 0.11348
C	 2.6533312994	-2.0997296735	-0.8802234917	-0.237855
C	 3.0847748865	-1.565909069	 0.5172759007	-0.242894
C	 1.629641008	-1.7741593392	 1.0442162378	-0.042383
C	 0.7370664779	-0.5581302423	 1.3481140861	 0.000858
C	 1.3349826854	 0.5083421482	 2.2654455845	-0.414353
H	 2.1577680709	 0.8072470547	-0.7627646881	 0.118407
H	 0.7286679188	 1.1974211574	-1.7276659808	 0.122505
H	 0.9747344647	 1.9784707926	-0.1576884118	 0.111171
H	-0.76785947	 0.2556452238	-0.0076652948	 0.0768
H	 0.7255716621	-3.2073653437	-0.4996244409	 0.070235
H	 3.1047354345	-3.0595932341	-1.1448422161	 0.096857
H	 2.7760086488	-1.4160517708	-1.7227448416	 0.105194
H	 3.8325590981	-2.1783251574	 1.0261945725	 0.098828
H	 3.4414310779	-0.5334893685	 0.5300237874	 0.09891
H	 1.5569600441	-2.5287263929	 1.830086612	 0.066343
H	-0.1589733709	-0.9571362193	 1.8403592795	 0.078849
H	 2.2566584019	 0.9346130582	 1.8595905961	 0.121093
H	 0.6311780302	 1.3322362185	 2.4252095545	 0.115595
H	 1.5708848536	 0.0836164923	 3.2466019853	 0.114541
105.0352	132.0623	226.7024	244.9956	258.6481	262.5606	355.4946	385.7248	427.3768	499.5826	604.532	694.1278	722.3512	733.0844	775.4087	837.4836	866.6162	904.6445	916.377	952.373	971.5284	996.176	1035.3379	1042.1332	1075.6287	1089.7071	1109.0196	1147.2962	1162.7166	1197.168	1205.2533	1227.2393	1253.5914	1269.1359	1281.0907	1296.7171	1335.2249	1354.9389	1363.8966	1374.9123	1391.8691	1409.7144	1415.4518	1466.6296	1486.6929	1491.7319	1496.4198	1506.1023	1509.3343	3009.3783	3027.0181	3036.5114	3044.0227	3056.6265	3064.2287	3068.5432	3084.0338	3096.3115	3106.2502	3110.9184	3114.9903	3123.0276	3129.0199
CC1OC2CCC2C1C	C[C@H]1O[C@H]2CC[C@H]2[C@H]1C	
InChI=1S/C8H14O/c1-5-6(2)9-8-4-3-7(5)8/h5-8H,3-4H2,1-2H3	InChI=1S/C8H14O/c1-5-6(2)9-8-4-3-7(5)8/h5-8H,3-4H2,1-2H3/t5-,6+,7-,8-/m0/s1
