16
gdb 22690	5.75227	0.59077	0.55738	1.5063	85.33	-0.2316	-0.0362	0.1954	1916.1112	0.121091	-437.790131	-437.780359	-437.779415	-437.827141	33.36	
C	-1.2368962087	 0.5910447393	 0.1617502942	-0.478228
C	 0.1092345614	-0.0897491376	 0.1044056578	 0.192405
N	 0.9820501572	-0.0459398031	 1.0521009777	-0.156019
O	 0.5090330793	 0.7070142141	 2.1256466063	-0.390548
C	 0.4622940075	-0.8340647665	-1.0549819755	 0.010718
C	 0.6888365966	-1.4499305304	-2.06856538	 0.201348
C	 1.0167371397	-2.1819005815	-3.2591091892	-0.133366
C	 0.0696193338	-3.1373194128	-3.8718744876	-0.159218
O	 0.2883272685	-1.8619902826	-4.457232406	-0.212113
H	-1.1061121392	 1.6645207885	 0.3288478432	 0.152692
H	-1.7939811032	 0.4321382092	-0.7611760704	 0.135685
H	-1.8156385204	 0.2070564533	 1.0077477717	 0.150866
H	 1.2438758955	 0.6608362875	 2.7470087305	 0.313075
H	 2.0802056183	-2.3519708486	-3.4228803488	 0.123793
H	 0.4645589824	-3.9884725239	-4.425218221	 0.122835
H	-0.9040497087	-3.282822755	-3.4082202828	 0.126073
18.7509	67.7718	72.1054	94.8677	189.0871	220.705	290.165	382.0759	398.2816	458.0412	528.2855	539.4041	578.2812	590.4067	740.902	828.8269	855.5218	944.0409	995.2873	1045.4099	1046.2366	1069.2518	1101.1471	1154.5977	1164.5411	1266.8559	1303.2519	1390.007	1397.6477	1421.1492	1475.9128	1483.4433	1518.1805	1664.7819	2343.6152	3049.0686	3086.0389	3107.7683	3118.5091	3156.5081	3180.4993	3815.7754
CC(=NO)C#CC1CO1	CC(=NO)C#C[C@H]1CO1	
InChI=1S/C6H7NO2/c1-5(7-8)2-3-6-4-9-6/h6,8H,4H2,1H3	InChI=1S/C6H7NO2/c1-5(7-8)2-3-6-4-9-6/h6,8H,4H2,1H3/t6-/m0/s1
