19
gdb 93979	4.25104	0.93804	0.79358	3.6614	80.58	-0.2493	-0.0517	0.1976	1400.4366	0.159642	-423.062105	-423.05352	-423.052575	-423.095375	32.536	
O	-0.089448696	 1.4586662245	-0.0469696889	-0.435491
C	 0.0086628995	 0.0429871435	-0.0046463487	 0.125646
C	-1.4087880552	-0.5198337128	 0.0566858256	-0.212597
C	-1.3888951044	-2.0482800341	 0.1883054224	-0.316094
C	-0.4112845619	-2.6835636636	-0.768732286	 0.224591
C	-0.5114478288	-4.1327928309	-1.0159168032	 0.091894
O	-1.3339931171	-4.85958569	-0.5051964216	-0.275685
C	 0.5429681128	-1.9874366803	-1.4053925862	-0.129932
C	 0.7509361395	-0.5119158847	-1.231416242	-0.290145
H	 0.8011741493	 1.8239434992	-0.0453395231	 0.281195
H	 0.5481725171	-0.2753005108	 0.903558755	 0.070005
H	-1.9430577368	-0.0637697938	 0.8950241494	 0.109379
H	-1.9367680924	-0.2252401847	-0.858678121	 0.107848
H	-1.1263906737	-2.343538673	 1.2133201261	 0.121132
H	-2.3835053775	-2.4718682268	 0.0169203653	 0.129229
H	 0.2457885676	-4.5318531323	-1.72905181	 0.064456
H	 1.2059075901	-2.5104670261	-2.0934358811	 0.099936
H	 0.3901748669	 0.0206156217	-2.1238753532	 0.130766
H	 1.825442021	-0.291135095	-1.1672834788	 0.103867
75.3021	149.7388	189.5135	211.4457	285.0901	319.8651	342.7367	369.9116	431.7197	465.9069	527.1819	590.6534	714.5758	778.4277	814.5537	832.9577	934.6712	956.0189	986.1472	1035.3286	1043.4389	1081.9277	1095.8204	1102.6509	1150.7822	1186.01	1209.2233	1250.8069	1289.9037	1326.0423	1333.5679	1347.048	1387.2244	1401.9165	1432.1004	1440.7629	1467.0453	1476.4396	1499.6968	1703.725	1789.8245	2869.1767	2954.8638	3003.2263	3022.0495	3033.1128	3039.3795	3079.3275	3093.4862	3137.3919	3814.9177
OC1CCC(C=O)=CC1	O[C@H]1CCC(=CC1)C=O	
InChI=1S/C7H10O2/c8-5-6-1-3-7(9)4-2-6/h1,5,7,9H,2-4H2	InChI=1S/C7H10O2/c8-5-6-1-3-7(9)4-2-6/h1,5,7,9H,2-4H2/t7-/m1/s1
