22
gdb 109786	2.83708	0.99864	0.85483	1.6551	83.64	-0.2192	0.075	0.2942	1458.6697	0.192449	-404.289378	-404.27934	-404.278396	-404.324951	36.41	
C	-0.2346926377	 1.5631737848	 1.5456950814	-0.381093
C	-0.0672279706	 0.4571320688	 0.4953431504	-0.205894
C	-1.3246994563	-0.3749964111	 0.3292124158	-0.002373
C	-1.3321264669	-1.7655348586	-0.2293448633	-0.059891
C	-0.0821338377	-2.4718916274	-0.6516180387	 0.074318
C	-0.143477466	-3.8297683676	-1.2134834904	-0.186361
O	 0.0374130567	-2.6967690048	-2.0619841888	-0.23467
N	-1.6766851833	-1.5208470172	 1.1734156013	-0.110779
C	-0.7980270644	-1.9771132476	 2.2412872124	-0.3146
H	 0.665511986	 2.1815119454	 1.6133982905	 0.113936
H	-1.0739190294	 2.2201393118	 1.2932962807	 0.120038
H	-0.4309687775	 1.1444698795	 2.5379146315	 0.122072
H	 0.1687609741	 0.9082340636	-0.4768357829	 0.111397
H	 0.794704594	-0.1644382455	 0.7539425651	 0.097987
H	-2.1954812116	 0.2392252268	 0.0926882376	 0.087461
H	-2.1815957941	-2.0647951264	-0.8442589536	 0.091745
H	 0.8505142695	-2.1714167593	-0.1793595788	 0.094924
H	 0.7163027506	-4.492683507	-1.124768808	 0.11432
H	-1.1086123383	-4.3277646367	-1.2995125229	 0.116339
H	 0.2788679657	-1.8239171178	 2.0832700338	 0.100944
H	-1.0761500835	-1.460534537	 3.1657075477	 0.125158
H	-0.9631902694	-3.0481973766	 2.3960999593	 0.125023
52.1212	77.6704	124.7791	146.4502	195.2252	209.5632	261.7564	287.4731	320.4341	345.2161	497.037	521.7797	584.394	726.2288	749.0444	834.8827	843.0575	861.3492	920.2773	961.3153	1001.4811	1043.8817	1077.6731	1094.5297	1108.0157	1135.8872	1145.6738	1154.8989	1166.4384	1168.6458	1194.493	1210.9598	1281.2931	1298.5473	1320.0287	1340.9799	1346.2702	1410.2048	1425.4114	1451.0545	1476.8765	1480.0369	1497.2523	1499.8281	1505.8877	1507.872	1528.2504	2995.1774	3032.5249	3035.2009	3065.4099	3072.6717	3080.3846	3085.8131	3097.7829	3098.6909	3107.1842	3108.7378	3134.4125	3168.7557
CCC1C(C2CO2)N1C	CC[C@H]1[C@@H]([C@H]2CO2)N1C	
InChI=1S/C7H13NO/c1-3-5-7(8(5)2)6-4-9-6/h5-7H,3-4H2,1-2H3	InChI=1S/C7H13NO/c1-3-5-7(8(5)2)6-4-9-6/h5-7H,3-4H2,1-2H3/t5-,6+,7-,8?/m0/s1
