19
gdb 18401	3.33566	2.0934	1.44856	1.0065	71.49	-0.2227	0.091	0.3137	892.1025	0.168109	-365.032091	-365.025183	-365.024239	-365.062825	27.736	
C	 0.0042785382	 1.503877957	 0.0715963426	-0.262464
C	 1.2820705624	 0.7377567344	 0.0307093824	 0.015594
C	 2.2332309466	 0.6723813514	 1.2116856805	-0.23998
C	 2.6753121022	-0.7641815611	 1.5343224521	-0.063688
O	 1.7059358372	-1.507569762	 2.2491118085	-0.243544
C	 0.5311573839	-1.8550559963	 1.5371286133	-0.066679
C	-0.4001427364	-0.6727163534	 1.2568954298	-0.162373
N	-0.0084657911	 0.0446597991	 0.0436784463	-0.082767
H	-0.243774552	 1.9950430486	 1.0125179011	 0.106813
H	-0.3808836074	 2.004340496	-0.8134803498	 0.113105
H	 1.7845458323	 0.6497641521	-0.9329865047	 0.087598
H	 3.1204697655	 1.2737773855	 0.9770268199	 0.100564
H	 1.7894536205	 1.1040408869	 2.1147905335	 0.107764
H	 2.9575901084	-1.2880407018	 0.6050253143	 0.08757
H	 3.5552809047	-0.7441365215	 2.1853998343	 0.104091
H	 0.7801854477	-2.3534969511	 0.5866196059	 0.097237
H	 0.0154271555	-2.578770593	 2.1762625602	 0.105697
H	-1.4193791705	-1.0473630295	 1.0988748392	 0.102566
H	-0.4261356178	-0.0367057316	 2.1561914709	 0.092896
168.102	197.5164	309.5646	320.193	370.7773	399.6574	433.7786	554.6889	566.2299	726.2356	754.483	831.7601	892.1888	913.5909	972.2461	982.7276	1016.3949	1033.2297	1047.1934	1095.393	1119.4312	1136.1226	1146.531	1159.8151	1180.0426	1236.8582	1248.0045	1297.3521	1325.6367	1346.8264	1351.9278	1380.6235	1396.1797	1419.5441	1426.6752	1471.3856	1481.785	1491.795	1496.8086	1515.5525	2963.0385	2973.7828	2986.4155	3030.9028	3040.7768	3072.7263	3076.5391	3079.7448	3083.7811	3099.4007	3169.5021
C1C2CCOCCN12	C1[C@H]2CCOCCN12	
InChI=1S/C6H11NO/c1-3-8-4-2-7-5-6(1)7/h6H,1-5H2	InChI=1S/C6H11NO/c1-3-8-4-2-7-5-6(1)7/h6H,1-5H2/t6-,7?/m1/s1
