19
gdb 106009	3.24111	1.68932	1.46004	0.8936	77.74	-0.217	0.0877	0.3047	964.2617	0.160029	-385.803444	-385.796257	-385.795313	-385.834898	29.342	
C	 0.1020322154	 1.3465336306	 0.0210983902	-0.264747
O	 0.0228894434	-0.0664415275	-0.014070922	-0.297409
C	-1.2460406711	-0.5774300065	 0.001051685	 0.467292
C	-1.5171965841	-2.1025881298	-0.0325139794	-0.188238
C	-2.7995330867	-1.7702011738	-0.761517913	-0.061826
C	-2.7652041798	-1.809955869	 0.7694612331	-0.061827
C	-2.3965983476	-0.3384118187	 1.0815356372	-0.139586
C	-3.1821602389	 0.5348162285	 0.0732183513	-0.249581
C	-2.4434640667	-0.2840587552	-1.0130991421	-0.139574
H	 1.1627370056	 1.6049218222	 0.0041722707	 0.129514
H	-0.3909110792	 1.8008300799	-0.8495023149	 0.117005
H	-0.351065789	 1.7541662288	 0.9353522109	 0.117008
H	-0.8680016002	-2.9661683286	-0.0695010209	 0.090174
H	-3.4265147775	-2.4221678733	-1.3549863269	 0.084586
H	-3.3657171724	-2.4925617226	 1.3558090437	 0.084587
H	-2.221698275	-0.05289446	 2.1181989695	 0.064274
H	-4.2748255484	 0.4818422847	 0.0962922971	 0.091939
H	-2.8639150174	 1.5815782801	 0.0932446448	 0.092132
H	-2.3147413403	 0.0550079702	-2.0403503045	 0.064276
95.2998	196.7482	203.6501	341.3953	368.0615	443.2853	542.5569	593.267	696.5151	749.6687	784.5842	792.8747	814.4223	857.1435	888.5024	924.4502	940.9085	947.2268	970.3111	985.3729	1011.0878	1035.2848	1054.1619	1079.9554	1081.8225	1097.1501	1120.6361	1146.1734	1179.9105	1197.9629	1219.7696	1221.7729	1241.5456	1266.4079	1289.3555	1349.1239	1366.1426	1487.5384	1488.861	1491.4359	1505.7634	2994.6586	3047.8517	3049.1424	3102.4736	3122.0147	3124.1088	3125.3748	3194.8476	3199.387	3216.6607
COC12C3C4C3C1CC24	CO[C@@]12[C@@H]3[C@H]4[C@@H]3[C@@H]1C[C@@H]24	
InChI=1S/C8H10O/c1-9-8-3-2-4(8)6-5(3)7(6)8/h3-7H,2H2,1H3	InChI=1S/C8H10O/c1-9-8-3-2-4(8)6-5(3)7(6)8/h3-7H,2H2,1H3/t3-,4+,5-,6+,7-,8-
