15
gdb 34506	4.40555	1.32861	1.17831	3.3157	77.41	-0.2499	-0.0578	0.1921	1013.3664	0.115288	-379.639399	-379.632916	-379.631972	-379.67032	25.833	
N	 0.0888839706	-1.1342402627	-0.1600863361	-0.340203
C	 0.0127615598	 0.0182295537	-0.0597602613	 0.198962
C	-0.0357173314	 1.4255361106	 0.0882869856	 0.188585
C	-1.1298100933	 2.2130934604	 0.0360242457	-0.16627
C	-0.7208889367	 3.6277575461	 0.1307314632	-0.056145
C	 0.6818712473	 3.6861951105	 0.6062688433	-0.045803
C	 1.1963077872	 2.3094487974	 0.0968381927	-0.183805
C	 1.2030209836	 3.0269570377	-1.3000092286	-0.145322
N	 0.4022749025	 4.1689705234	-0.7780333968	-0.150767
H	-2.1497538853	 1.8798619662	-0.0999576235	 0.131706
H	-1.4302113754	 4.4118137816	 0.3602390938	 0.113515
H	 1.0736419891	 4.3157239647	 1.3982064124	 0.107728
H	 2.1186535396	 1.8699191681	 0.4672151658	 0.100169
H	 2.1921849114	 3.4174991212	-1.5468444348	 0.12977
H	 0.782013591	 2.4882054313	-2.1538855314	 0.117877
120.6371	162.7942	367.5574	385.763	498.6692	511.1877	568.1003	637.1445	657.6424	763.8784	796.1	808.495	848.9192	876.2345	907.0688	922.9927	984.0928	994.0869	1010.351	1065.8058	1083.3971	1153.1358	1169.4522	1193.8403	1203.6133	1252.9653	1278.6635	1285.9189	1332.3773	1356.3291	1492.8389	1635.3483	2331.2195	3058.0576	3125.1092	3153.3693	3169.544	3209.7101	3233.3697
N#CC1=CC2C3C1CN23	N#CC1=C[C@H]2[C@H]3[C@@H]1CN23	
InChI=1S/C7H6N2/c8-2-4-1-6-7-5(4)3-9(6)7/h1,5-7H,3H2	InChI=1S/C7H6N2/c8-2-4-1-6-7-5(4)3-9(6)7/h1,5-7H,3H2/t5-,6+,7-,9?/m1/s1
