21
gdb 122910	4.8216	0.55193	0.51166	0.5198	83.	-0.2511	0.0308	0.2819	2157.5275	0.178522	-424.180454	-424.169221	-424.168276	-424.217974	39.174	
C	 0.0288390141	 1.5303881843	-0.0478676594	-0.384726
C	-0.0260657472	 0.0120540468	-0.0438027286	-0.028925
O	 0.6970366383	-0.4685173029	-1.1583577727	-0.247144
C	 0.7066542982	-1.8757318812	-1.2503541192	-0.05747
C	 1.4782389266	-2.2644340981	-2.5053043222	-0.209452
C	 1.5559952297	-3.7898900663	-2.6915103834	-0.064227
O	 0.2623402551	-4.3914503925	-2.7448408079	-0.417121
C	 2.3597753686	-4.138865141	-3.8666292357	 0.294655
C	 2.984981678	-4.4037297171	-4.8586661978	-0.43394
H	 1.0643533369	 1.8770110838	 0.0141244044	 0.125961
H	-0.410014573	 1.9275006314	-0.9676431054	 0.125675
H	-0.5249583509	 1.9348822098	 0.804632025	 0.113847
H	 0.4041476986	-0.3880943033	 0.8904496356	 0.084161
H	-1.0713908874	-0.3384872858	-0.0891372569	 0.084905
H	 1.1836716412	-2.31819998	-0.3572570859	 0.081435
H	-0.3180592441	-2.274375992	-1.2969207887	 0.100506
H	 0.999562789	-1.8152776022	-3.3833624441	 0.107473
H	 2.493157106	-1.8563599529	-2.4526148995	 0.118961
H	 2.0231573216	-4.2298656677	-1.8008781307	 0.119507
H	-0.117365076	-4.1809397189	-3.6055037045	 0.285852
H	 3.5480058066	-4.6523700741	-5.7243330525	 0.200066
48.6457	60.7816	80.4029	130.3186	133.0611	170.0362	211.7167	245.5104	256.2777	300.8979	368.8354	401.6825	502.8508	566.1641	572.7863	632.101	673.1919	801.1672	821.1958	872.4611	910.948	980.5265	1042.3745	1066.8954	1087.8459	1106.4976	1151.1794	1169.0381	1185.1052	1222.6285	1268.5205	1286.96	1294.735	1316.6609	1358.2311	1390.6679	1408.0964	1419.2353	1453.2794	1483.2285	1484.4759	1499.8018	1519.373	1540.6678	2233.4701	2941.8474	2954.8377	2975.2246	3005.4321	3028.3477	3044.5126	3044.9011	3091.6269	3118.9547	3120.7004	3502.965	3802.0581
CCOCCC(O)C#C	CCOCC[C@@H](O)C#C	
InChI=1S/C7H12O2/c1-3-7(8)5-6-9-4-2/h1,7-8H,4-6H2,2H3	InChI=1S/C7H12O2/c1-3-7(8)5-6-9-4-2/h1,7-8H,4-6H2,2H3/t7-/m0/s1
