14
gdb 25265	3.4284	1.77716	1.17918	1.1483	70.01	-0.2415	-0.0185	0.223	956.4876	0.104865	-432.917893	-432.911499	-432.910555	-432.948811	24.655	
N	-0.0640525032	 1.3247987978	 0.0096653665	-0.565915
C	-0.023664903	 0.0688591692	 0.0029546381	 0.498885
O	 1.081453563	-0.7383127809	-0.0063968979	-0.267346
C	 0.7197448751	-2.1409132694	-0.0119931899	-0.205576
C	-0.7744660584	-2.0938712876	-0.0047582646	 0.358766
N	-1.795597275	-2.9020512952	-0.0041891772	-0.363547
C	-2.8928912338	-2.0460591665	 0.0054532141	-0.091396
C	-2.5124904696	-0.7282019673	 0.0104559511	-0.132748
N	-1.1339124015	-0.7782695859	 0.0037480872	-0.064572
H	 0.8749383042	 1.7185159061	 0.0073244215	 0.241166
H	 1.1407043653	-2.6095300018	-0.9071700797	 0.154771
H	 1.1490403316	-2.6187927226	 0.8742837264	 0.154772
H	-3.8984730212	-2.438066435	 0.008159465	 0.122481
H	-3.0543041234	 0.2008975492	 0.0178045995	 0.16026
145.1547	181.8491	242.3059	315.5794	557.8368	618.3126	657.3424	666.2405	667.9575	727.1225	751.7765	794.9665	831.6797	870.2649	948.6363	967.0727	1030.0098	1056.7456	1075.2115	1132.2251	1172.5208	1182.5931	1221.2374	1304.2432	1358.027	1430.4469	1466.5993	1503.5667	1507.1126	1609.9318	1806.4814	3050.7814	3091.3884	3256.1305	3304.2728	3526.8875
N=C1OCC2=NC=CN12	[NH][C]1OCc2nccn12	
InChI=1S/C5H5N3O/c6-5-8-2-1-7-4(8)3-9-5/h1-2,6H,3H2	InChI=1S/C5H5N3O/c6-5-8-2-1-7-4(8)3-9-5/h1-2,6H,3H2
