17
gdb 63841	2.8106	1.4988	1.2348	4.1326	67.59	-0.2704	0.0051	0.2755	1036.0368	0.134634	-458.974077	-458.965884	-458.96494	-459.006769	31.334	
C	-0.4512048738	 1.5531258929	 0.0909929024	-0.457384
C	-0.0371204631	 0.092403691	 0.0176646134	 0.400453
O	-1.1388979499	-0.7439108283	-0.2940043865	-0.47349
C	 1.238327674	-0.2667512654	-0.8304521249	-0.305604
C	 1.8822668528	-0.8944377384	 0.4189622453	 0.115981
O	 2.6759275276	 0.0794285505	 1.176455695	-0.259519
C	 1.6105870001	 0.380928531	 1.9984888001	 0.454847
O	 1.5968014201	 1.1387524628	 2.9138864433	-0.33085
C	 0.6440446035	-0.5505359181	 1.2766957848	-0.268571
H	 0.3804074914	 2.1970351288	 0.3890783558	 0.141705
H	-0.7996268234	 1.8944645191	-0.8918828501	 0.110037
H	-1.2656147431	 1.6823403857	 0.8094764634	 0.138176
H	-1.5317665272	-0.4235461208	-1.1140435474	 0.279777
H	 1.0002190589	-0.9980357637	-1.6056234687	 0.115121
H	 1.8040982188	 0.5627439246	-1.2596328156	 0.11771
H	 2.3814513315	-1.8598214301	 0.3764600706	 0.10479
H	 0.0361720017	-1.2392914715	 1.857400719	 0.116822
79.3919	138.9616	232.9425	255.9257	277.6606	351.2076	362.1174	398.8915	459.3264	498.3837	624.9756	676.1604	766.3265	822.9587	856.3299	873.7717	892.2509	944.7387	962.019	988.7967	996.6196	1087.1826	1095.9254	1109.5819	1147.0494	1185.7863	1205.6756	1240.8465	1263.6726	1279.	1323.8922	1364.2698	1414.4692	1449.6649	1487.8638	1489.5501	1932.302	3027.8838	3071.7491	3099.2038	3126.3985	3134.4279	3144.3141	3162.3259	3794.8472
CC1(O)CC2OC(=O)C12	C[C@@]1(O)C[C@H]2OC(=O)[C@@H]12	
InChI=1S/C6H8O3/c1-6(8)2-3-4(6)5(7)9-3/h3-4,8H,2H2,1H3	InChI=1S/C6H8O3/c1-6(8)2-3-4(6)5(7)9-3/h3-4,8H,2H2,1H3/t3-,4+,6-/m1/s1
