13
gdb 132881	3.17896	1.44284	0.99241	1.4572	67.71	-0.2062	-0.049	0.1572	1066.246	0.089499	-494.061446	-494.05391	-494.052966	-494.09353	28.501	
N	 0.0164925555	 1.2884056197	-0.1292756247	-0.541254
C	-0.0278513731	-0.0520039346	-0.0542526454	 0.363316
N	-1.1518990926	-0.7053922826	-0.0133856043	-0.387122
C	-1.0597787802	-2.0592666225	 0.0623520334	 0.246297
F	-2.2259960267	-2.6979602161	 0.1026406005	-0.071769
C	 0.0876069138	-2.7498475225	 0.0968857372	-0.147511
O	 1.2863681112	-2.0671908785	 0.0539453533	-0.216729
C	 1.3034294359	-0.7150233575	-0.0222298934	 0.372217
N	 2.369293005	-0.0217133291	-0.0655064768	-0.554692
H	 0.921104356	 1.7300105622	-0.1590136179	 0.288307
H	-0.8371259672	 1.8177261464	-0.1572623065	 0.272787
H	 0.2049140206	-3.8193443019	 0.1566182755	 0.144109
H	 3.2018738417	-0.609362653	-0.0358034307	 0.232044
94.0862	179.2958	228.8763	326.2735	349.668	375.7583	444.6322	478.2572	533.6623	586.5827	600.7605	650.2975	687.1998	740.179	797.9715	809.5007	851.8913	982.0725	1038.4035	1126.2886	1210.4811	1245.0276	1332.371	1393.6927	1446.7207	1573.7811	1674.8931	1681.1724	1727.82	3269.961	3500.3156	3600.709	3746.76
NC1=NC(F)=COC1=N	NC1=C(OC=C([N]1)F)[NH]	
InChI=1S/C4H4FN3O/c5-2-1-9-4(7)3(6)8-2/h1,7H,(H2,6,8)	InChI=1S/C4H4FN3O/c5-2-1-9-4(7)3(6)8-2/h1,7H,(H2,6,8)
