19
gdb 102849	3.03335	0.83024	0.70642	2.6648	79.08	-0.2424	-0.0229	0.2195	1585.5138	0.154345	-422.988137	-422.977299	-422.976355	-423.025926	36.959	
C	-0.1104853845	 1.4983000325	-0.1004715903	-0.247059
O	-0.0749954467	 0.0811829167	-0.1078855908	-0.252457
C	 0.6253864506	-0.5313523555	 0.9589040671	 0.093422
C	-0.0324854625	-1.9044556225	 1.1684212812	-0.286916
C	-1.4800137454	-1.79697494	 1.6002793024	 0.149616
O	-1.9666992973	-2.438018156	 2.4968771621	-0.242693
C	 2.1344422359	-0.7044422427	 0.6486120612	-0.351929
C	 2.9227872139	 0.5203039771	 0.7086403859	 0.282715
C	 3.5903371664	 1.5174181249	 0.785505656	-0.426784
H	 0.8751273962	 1.9379808507	-0.2845743663	 0.134309
H	-0.7936529977	 1.7960605786	-0.899740631	 0.128063
H	-0.4944224173	 1.883499007	 0.8557254766	 0.109256
H	 0.521208743	 0.072872907	 1.8735491961	 0.089199
H	-0.0089077958	-2.4337199192	 0.2051288242	 0.132862
H	 0.5064074884	-2.5048797857	 1.9056524487	 0.120486
H	-2.0808559267	-1.0697222869	 1.0146051762	 0.092843
H	 2.5542953823	-1.4266262504	 1.3600931863	 0.134952
H	 2.2161814778	-1.1583294301	-0.3466625587	 0.140825
H	 4.1783397895	 2.3995560444	 0.8469031833	 0.199292
28.4228	51.1451	81.9355	100.6371	121.5019	184.0382	219.2979	280.1884	337.019	346.7571	392.2569	434.9632	505.6096	581.8128	619.6137	639.1812	799.9423	835.5001	914.1412	947.5575	1008.0516	1050.2516	1095.1139	1103.7407	1146.3926	1183.2438	1205.1822	1214.2824	1267.1842	1273.9605	1329.2489	1372.102	1387.027	1417.2319	1443.0099	1458.4306	1480.4648	1491.1984	1513.6769	1830.0237	2235.148	2916.0826	2985.3181	2996.8211	3021.1747	3026.6959	3064.6585	3077.5495	3109.647	3120.6645	3504.3283
COC(CC=O)CC#C	CO[C@@H](CC=O)CC#C	
InChI=1S/C7H10O2/c1-3-4-7(9-2)5-6-8/h1,6-7H,4-5H2,2H3	InChI=1S/C7H10O2/c1-3-4-7(9-2)5-6-8/h1,6-7H,4-5H2,2H3/t7-/m1/s1
