17
gdb 37580	2.96826	2.48302	1.8964	0.7947	72.4	-0.2128	0.0502	0.263	780.572	0.140423	-380.773851	-380.768352	-380.767408	-380.803273	24.407	
C	-0.0031766029	 1.5021715057	-0.0270936087	-0.255704
C	 1.3771575489	 2.0903964573	 0.1039325197	-0.02225
C	 2.3881684272	 1.469647073	 0.9722362309	-0.052422
C	 2.2950297055	-0.0626507854	 0.9519079122	-0.005044
C	 2.4737684665	-0.0071608987	-0.5519921438	-0.005045
C	 1.1282313766	-0.73318837	-0.6914186581	-0.052422
C	 0.0412967929	-0.003318653	-0.0226237454	-0.02225
N	 0.9532020643	-0.7895650991	 0.840158245	-0.188688
N	 2.5729115681	 1.5197716154	-0.5584167814	-0.188688
H	-0.624523853	 1.869211752	 0.7994917702	 0.113852
H	-0.4763643808	 1.83977344	-0.9577666832	 0.113852
H	 1.412139043	 3.1761258069	 0.053425252	 0.098604
H	 3.0334179063	 2.0362472154	 1.6359707789	 0.094098
H	 2.9692955236	-0.6086522787	 1.6083705463	 0.089703
H	 3.3284098291	-0.4454429062	-1.0630618018	 0.089703
H	 0.9657389433	-1.6105795147	-1.3092431714	 0.094098
H	-0.9333334486	-0.4841192598	-0.0614764313	 0.098604
281.6319	384.2112	508.4803	525.4739	540.1195	663.5883	680.5448	692.463	722.5877	790.4215	831.5095	846.224	866.4755	921.6222	950.8015	961.2088	962.037	990.3565	1036.7778	1038.3314	1055.8136	1062.1232	1083.1928	1128.1947	1212.3876	1213.352	1242.8929	1247.1342	1255.3089	1274.2276	1294.0286	1341.9815	1348.2869	1381.345	1426.1596	1462.0629	1482.959	3021.1606	3054.8307	3127.0548	3134.8888	3135.193	3135.5055	3160.5665	3163.1109
C1C2C3C4C(C5C1N45)N23	C1[C@H]2[C@H]3[C@@H]4[C@@H]([C@@H]5[C@H]1N45)N23	
InChI=1S/C7H8N2/c1-2-4-6-7(8(2)4)5-3(1)9(5)6/h2-7H,1H2	InChI=1S/C7H8N2/c1-2-4-6-7(8(2)4)5-3(1)9(5)6/h2-7H,1H2/t2-,3-,4-,5-,6+,7+,8?,9?/m0/s1
