17
gdb 50619	2.48768	1.49683	0.97988	4.	75.84	-0.2419	-0.0608	0.1811	1163.2483	0.135956	-421.874468	-421.866339	-421.865394	-421.907837	29.989	
O	-0.6119243915	 0.8118336049	-0.7494077064	-0.248759
C	 0.0578497192	 1.0756110358	 0.216569948	 0.147155
C	 1.3189560175	 1.9255667275	 0.1502850315	-0.218849
C	 1.4919116888	 2.6227602799	-1.203191279	-0.212762
C	 2.7224164464	 3.5347841863	-1.2193277974	-0.286295
C	 2.7807430801	 4.4182586959	-0.0064208439	-0.037481
C	 2.1461361284	 4.1383998402	 1.1400869377	-0.141537
C	 1.3881990441	 2.890724208	 1.3469232342	 0.374205
O	 0.888088669	 2.6102647889	 2.4188599251	-0.336654
H	-0.2014251825	 0.7143374267	 1.2297720961	 0.116407
H	 2.1538975166	 1.2224635889	 0.3194910912	 0.128867
H	 1.5416000462	 1.8776135618	-2.0007403136	 0.121691
H	 0.5965750737	 3.2228478316	-1.4005234206	 0.122518
H	 3.6473600321	 2.938742758	-1.2659271389	 0.125499
H	 2.7288473385	 4.1506842648	-2.1257292348	 0.120029
H	 3.3818886617	 5.3223926908	-0.0760855242	 0.113976
H	 2.2016457818	 4.7930608598	 2.0041729349	 0.111991
58.1901	95.5637	183.3038	215.0067	304.2334	330.2063	384.5942	467.0701	517.3325	599.686	656.3877	708.0946	751.7832	814.6075	850.8106	895.2738	937.066	1006.7494	1026.8784	1050.0652	1067.0113	1112.5417	1138.2779	1191.3028	1217.7115	1240.007	1278.3641	1307.1587	1365.08	1379.8689	1409.0016	1409.4988	1468.3632	1490.2887	1681.1063	1763.1329	1823.8474	2958.2523	2970.0148	2994.7259	3049.7099	3062.8331	3104.3677	3152.6517	3189.6198
O=CC1CCC=CC1=O	O=C[C@H]1CCC=CC1=O	
InChI=1S/C7H8O2/c8-5-6-3-1-2-4-7(6)9/h2,4-6H,1,3H2	InChI=1S/C7H8O2/c8-5-6-3-1-2-4-7(6)9/h2,4-6H,1,3H2/t6-/m1/s1
