19
gdb 112097	2.59099	1.41926	1.04104	4.0556	77.98	-0.2546	0.0048	0.2594	1194.9449	0.159473	-423.071927	-423.063075	-423.06213	-423.106428	32.259	
C	 0.0091664654	 1.5464426592	 0.139881338	-0.387093
C	-0.032139631	 0.0258577467	-0.0236836227	-0.177052
C	 0.6599742204	-0.5090173424	-1.3132972717	-0.184185
C	 0.8488514655	-1.9962443946	-1.2329291183	-0.074751
C	 0.1112836874	-2.8380119227	-1.9443908199	-0.088578
C	-0.9203447793	-2.3624251551	-2.9129183869	-0.10782
O	-0.8700793486	-0.965364513	-3.2201250511	-0.232103
C	-0.1097234505	-0.0653896091	-2.5519152073	 0.41423
O	-0.0894423001	 1.0692371185	-2.9507738706	-0.329097
H	 1.042435532	 1.9060714805	 0.1943331332	 0.114999
H	-0.4710174095	 2.051569336	-0.7002767003	 0.152332
H	-0.4976192028	 1.8429031378	 1.0635737382	 0.109317
H	 0.4652746202	-0.451572447	 0.8295324359	 0.100361
H	-1.0681687326	-0.3346347142	-0.008130885	 0.105566
H	 1.6338804159	-0.0098088652	-1.387252487	 0.114282
H	 1.5933873517	-2.3613964972	-0.5303950706	 0.102382
H	 0.220103215	-3.9147683967	-1.8546948274	 0.105519
H	-0.8170501163	-2.8823211249	-3.8735780158	 0.132774
H	-1.9326460129	-2.5845211468	-2.5450246507	 0.128916
36.1245	103.1453	109.0346	201.4941	218.3903	261.0805	359.0207	440.0884	452.7637	536.3433	566.1803	693.9944	717.6661	736.9532	820.4216	890.8005	914.1015	945.8141	999.2116	1004.9538	1031.8093	1043.9682	1093.1579	1102.1222	1141.098	1167.1459	1244.8438	1258.1339	1268.1746	1305.9109	1348.5669	1374.5558	1412.9231	1416.9637	1429.6154	1487.0664	1493.9233	1504.4081	1507.6322	1747.9344	1828.0963	3002.7196	3023.0056	3035.4449	3038.9574	3042.6804	3060.7088	3101.8608	3139.0767	3157.1558	3183.1706
CCC1C=CCOC1=O	CC[C@H]1C=CCOC1=O	
InChI=1S/C7H10O2/c1-2-6-4-3-5-9-7(6)8/h3-4,6H,2,5H2,1H3	InChI=1S/C7H10O2/c1-2-6-4-3-5-9-7(6)8/h3-4,6H,2,5H2,1H3/t6-/m0/s1
