16
gdb 17939	3.34762	2.36289	2.12142	0.8625	68.3	-0.22	0.0186	0.2386	730.1648	0.132161	-346.569425	-346.563318	-346.562373	-346.599087	25.689	
O	-0.1080171976	 1.4064885375	-0.0006236354	-0.461714
C	 0.02717589	 0.0391048836	-0.0055556618	 0.387002
C	-1.0394710884	-1.0023703702	 0.0748125652	-0.114869
C	-0.5190535152	-1.6976064129	-1.1705703303	-0.215646
C	 0.8239212326	-0.8658889697	-1.0344858347	-0.173451
C	 1.7716270081	-1.6712011151	-0.1867884466	-0.098524
C	 1.295093998	-1.735935316	 1.0653374243	-0.080019
C	 0.081212928	-0.889244659	 1.1804260261	-0.164741
H	 0.6999577578	 1.7896435909	 0.3610059497	 0.287999
H	-2.0724338549	-0.9063270054	 0.3858513523	 0.092658
H	-0.4172850158	-2.7872466139	-1.168378706	 0.093011
H	-1.0839704465	-1.3754691183	-2.0488013742	 0.10773
H	 1.2093335577	-0.4202846576	-1.9504387845	 0.070649
H	 2.6193462478	-2.2176007367	-0.5818024707	 0.09238
H	 1.7006550214	-2.3227272963	 1.8804019014	 0.09308
H	-0.2932505828	-0.5381216011	 2.1352107454	 0.084455
234.2352	308.3012	354.0022	369.1243	439.7099	549.8302	591.9141	676.3843	716.5885	759.3376	787.0421	831.1667	877.0379	888.8096	921.589	931.2263	962.4332	989.6099	1033.9877	1038.789	1067.2925	1106.9539	1130.8007	1136.7503	1156.0834	1203.0145	1256.5132	1274.7315	1303.1181	1313.811	1364.7053	1463.689	1494.5516	1629.5473	3047.7076	3107.4158	3124.5589	3181.2449	3192.3418	3196.0574	3219.1836	3780.7386
OC12C3CC1C=CC23	O[C@@]12[C@H]3C[C@@H]1C=C[C@@H]23	
InChI=1S/C7H8O/c8-7-4-1-2-5(7)6(7)3-4/h1-2,4-6,8H,3H2	InChI=1S/C7H8O/c8-7-4-1-2-5(7)6(7)3-4/h1-2,4-6,8H,3H2/t4-,5+,6-,7-/m0/s1
