23
gdb 73871	2.24355	1.46731	0.96659	1.2518	89.05	-0.2156	0.0287	0.2443	1299.333	0.206115	-388.303981	-388.294484	-388.29354	-388.337881	36.35	
C	 0.0922747561	 1.5622486337	 0.1501550803	-0.488602
C	-0.0315042446	 0.065441111	 0.0061020036	 0.219163
C	-1.1897588297	-0.6102575764	-0.0553169233	 0.219151
C	-2.5619234331	 0.0138114261	 0.0095798272	-0.488607
C	-1.2179099815	-2.126887654	-0.1892439621	-0.300615
C	-0.5018077299	-2.7015661561	-1.4206524627	-0.061788
O	 0.9054960839	-2.7548490616	-1.3033448531	-0.238601
C	 1.5568007234	-1.5007334058	-1.3112695327	-0.061791
C	 1.3103035082	-0.6519711819	-0.0549754322	-0.30062
H	 0.6509240186	 1.9867042874	-0.6948794448	 0.121122
H	-0.8627238042	 2.0843753643	 0.2105445389	 0.118677
H	 0.66732307	 1.8132719616	 1.0516094959	 0.123004
H	-3.1369255706	-0.2223316108	-0.8959240013	 0.121128
H	-3.1325612296	-0.4042166079	 0.8497817854	 0.123004
H	-2.5532417759	 1.0980326843	 0.1221830335	 0.118679
H	-0.7806740966	-2.6033192763	 0.699473888	 0.112838
H	-2.2611463493	-2.4604788578	-0.2311073792	 0.093447
H	-0.8127551632	-3.7415540596	-1.5670760355	 0.099958
H	-0.7918075283	-2.1313164275	-2.319240605	 0.082108
H	 2.6238472664	-1.7369065547	-1.3843254694	 0.099959
H	 1.2745140865	-0.9260929574	-2.2095201136	 0.082106
H	 2.1135706856	 0.0916571335	 0.001242028	 0.093447
H	 1.4400050077	-1.3077402239	 0.8174498241	 0.112834
108.5271	109.8591	167.0612	174.753	223.3242	261.1434	336.4229	354.8148	382.1616	412.663	416.69	496.2341	549.1724	638.6168	662.2057	822.3533	839.1571	861.8506	982.1261	986.1992	1005.8731	1010.0518	1033.1628	1047.3174	1080.3116	1097.0763	1107.7516	1153.821	1169.8102	1227.0958	1236.8858	1253.2814	1319.4979	1338.1224	1366.1079	1367.6597	1397.6878	1404.4439	1420.596	1429.2369	1465.192	1475.5961	1480.7052	1483.926	1485.0272	1487.7001	1496.5406	1502.1255	1736.6347	2961.9549	2968.5842	3009.3381	3009.5483	3013.6238	3015.0666	3050.635	3051.092	3059.4954	3060.5057	3066.4042	3069.4404	3128.3798	3145.4899
CC1=C(C)CCOCC1	CC1=C(C)CCOCC1	
InChI=1S/C8H14O/c1-7-3-5-9-6-4-8(7)2/h3-6H2,1-2H3	InChI=1S/C8H14O/c1-7-3-5-9-6-4-8(7)2/h3-6H2,1-2H3
