16
gdb 49255	2.95561	1.24252	0.89575	4.8064	75.7	-0.2614	-0.0692	0.1923	1230.2311	0.124263	-437.915713	-437.907478	-437.906534	-437.949884	29.393	
N	-0.1580435373	 1.2931425419	-0.3221425148	-0.502536
C	-0.0263949185	 0.091117061	 0.0475092023	 0.383853
C	-1.1927948668	-0.867215588	-0.0317576676	-0.394246
C	-1.0813610779	-2.0258225285	 0.9159428043	 0.206202
C	-2.3000990861	-2.7570321411	 1.3095234206	 0.093475
O	-3.411954014	-2.4795043549	 0.9248659559	-0.262287
C	 0.1108967421	-2.4117386018	 1.3775179915	-0.159593
C	 1.362926632	-1.6971326424	 0.9970899365	-0.121674
O	 1.1748372679	-0.3688000576	 0.5121053107	-0.252966
H	 0.7268320924	 1.794124938	-0.2202756499	 0.220405
H	-2.1150547154	-0.3083114888	 0.134016999	 0.168661
H	-1.2616060378	-1.245602613	-1.061337053	 0.152434
H	-2.1202853656	-3.6073832481	 2.0047091698	 0.07473
H	 0.2101618324	-3.2715719776	 2.035582861	 0.117935
H	 2.0333297381	-1.6105136396	 1.8602682327	 0.139028
H	 1.9072203544	-2.2777598996	 0.2350684311	 0.136579
48.5963	63.7989	118.7687	189.6897	292.5034	385.77	431.9808	464.799	503.4971	568.0327	619.5701	734.3131	813.8315	833.9534	903.3413	913.593	955.4104	994.3939	1025.5497	1041.4478	1061.5643	1162.4938	1183.5235	1217.2393	1253.536	1290.3483	1309.2169	1389.0132	1423.5612	1429.2945	1460.176	1494.2237	1724.4376	1751.2191	1795.2545	2882.5688	2982.8062	3021.7623	3053.0037	3124.4889	3164.7364	3467.8794
N=C1CC(C=O)=CCO1	[NH][C]1CC(=CCO1)C=O	
InChI=1S/C6H7NO2/c7-6-3-5(4-8)1-2-9-6/h1,4,7H,2-3H2	InChI=1S/C6H7NO2/c7-6-3-5(4-8)1-2-9-6/h1,4,7H,2-3H2
