22
gdb 76639	2.82348	1.12088	0.93025	2.9832	82.68	-0.2217	0.0712	0.2928	1349.5741	0.19276	-404.29304	-404.283109	-404.282164	-404.32906	35.574	
C	-1.086959226	 0.9574323318	-1.3576539302	-0.417853
C	-0.3839080702	-0.1676146617	-0.6270922199	-0.002813
C	 1.0948583838	-0.3900118216	-0.677499208	-0.002806
C	 2.0471246676	 0.4861859079	-1.464396683	-0.417845
N	 0.4438741709	 0.031252016	 0.5733880876	-0.116172
C	 0.6614990624	 1.3569052669	 1.1068935657	 0.013752
C	-0.2850060361	 1.7543150557	 2.261668911	-0.081779
O	 0.8263012153	 1.981018688	 3.1526329552	-0.273331
C	 1.7590212782	 1.4473014187	 2.190663398	-0.081763
H	-0.4583642351	 1.8342114886	-1.5221621267	 0.121312
H	-1.423565158	 0.6050872882	-2.3385639461	 0.124204
H	-1.9755300908	 1.2823314401	-0.804810528	 0.126601
H	-1.0060368981	-1.0591231993	-0.544829915	 0.088473
H	 1.4316417048	-1.425735213	-0.6279997381	 0.088472
H	 1.6940302578	 1.510373518	-1.5959027209	 0.1213
H	 3.02648884	 0.5306554442	-0.974878921	 0.126607
H	 2.1998075882	 0.0600858813	-2.4617713637	 0.124197
H	 0.7548617427	 2.1518833259	 0.3579049895	 0.062171
H	-0.8908963898	 2.6573495921	 2.1224301202	 0.095579
H	-0.9233485786	 0.92697121	 2.5961885054	 0.103058
H	 2.147655616	 0.4656970926	 2.4895053603	 0.103052
H	 2.5923196251	 2.1341506596	 2.0014244577	 0.095583
34.1804	72.5773	111.0781	132.5424	164.0435	182.6243	262.3352	291.9913	364.2517	469.6103	486.2458	566.592	678.3512	767.2107	783.2881	851.4833	890.3033	924.187	957.5805	1001.6972	1010.7088	1035.1315	1049.5431	1063.5294	1096.3624	1119.6548	1125.564	1162.437	1162.9464	1171.8694	1196.9179	1206.8295	1266.5683	1306.9907	1335.6581	1361.2773	1381.0156	1397.2234	1414.2512	1422.6199	1439.2578	1485.5189	1487.0078	1499.4442	1500.8764	1509.3115	1528.6265	3009.1715	3016.0636	3022.4226	3034.8591	3039.1945	3062.896	3067.9046	3087.8604	3091.3531	3092.4716	3098.8292	3123.5527	3135.9484
CC1C(C)N1C1COC1	C[C@H]1[C@@H](C)N1C1COC1	
InChI=1S/C7H13NO/c1-5-6(2)8(5)7-3-9-4-7/h5-7H,3-4H2,1-2H3	InChI=1S/C7H13NO/c1-5-6(2)8(5)7-3-9-4-7/h5-7H,3-4H2,1-2H3/t5-,6+,8?
