19
gdb 67223	2.52103	1.98128	1.44585	3.0694	78.78	-0.229	-0.0008	0.2282	963.173	0.160989	-385.883575	-385.876225	-385.875281	-385.915039	29.714	
C	-0.0488548392	 1.5692978471	 0.0515683917	-0.514837
C	-0.0267103735	 0.0664594432	 0.0524081388	 0.214192
C	 0.9150172577	-0.7436050489	-0.945285316	-0.075258
C	 1.971853933	-0.8441348263	 0.1849285212	-0.245804
C	 0.7402639442	-0.8777186802	 1.0988941443	-0.070409
C	-0.2750915667	-1.9813518317	 0.5671565873	-0.169115
C	 0.260427445	-2.1435835003	-0.8773280559	-0.224647
C	-1.235063227	-0.8034904466	 0.3528335641	 0.389957
O	-2.390124829	-0.5827025498	 0.585579438	-0.338105
H	 0.959323114	 1.9923071889	 0.116698624	 0.120111
H	-0.5068605716	 1.9484661346	-0.8686084911	 0.13062
H	-0.6362221154	 1.9497778831	 0.8928871442	 0.134208
H	 1.1612468286	-0.3380930769	-1.9267592778	 0.069511
H	 2.6582628126	-1.6968475778	 0.173579532	 0.09438
H	 2.5395841476	 0.0800752964	 0.3180452178	 0.105811
H	 0.7482186267	-0.6781525731	 2.168735223	 0.085097
H	-0.5510533645	-2.8612806507	 1.1429006996	 0.083368
H	-0.5427096685	-2.3010427657	-1.6035328692	 0.108891
H	 0.9935396159	-2.9475537053	-0.9889730159	 0.102029
134.419	180.9631	223.5769	254.2206	345.2433	432.9665	512.3988	547.313	625.8325	658.6587	764.318	794.0213	812.481	833.0057	858.1116	912.4752	921.1687	952.3714	961.5077	988.6967	1017.1788	1048.5332	1078.0866	1088.2253	1110.9148	1140.0005	1171.2475	1196.0259	1199.4544	1228.1179	1232.042	1259.9345	1297.0987	1318.6396	1349.5224	1414.818	1484.7504	1490.3471	1499.458	1516.2634	1876.9982	3030.7917	3045.7635	3051.3449	3092.6573	3095.8882	3105.0132	3106.8527	3115.3659	3136.3428	3154.6099
CC12C3CC1C(C3)C2=O	C[C@@]12[C@H]3C[C@@H]1[C@H](C3)C2=O	
InChI=1S/C8H10O/c1-8-4-2-5(7(8)9)6(8)3-4/h4-6H,2-3H2,1H3	InChI=1S/C8H10O/c1-8-4-2-5(7(8)9)6(8)3-4/h4-6H,2-3H2,1H3/t4-,5+,6-,8-/m1/s1
