13
gdb 19817	4.41189	2.12184	1.90935	5.5755	56.47	-0.2474	0.0094	0.2568	706.1096	0.096867	-398.553233	-398.547567	-398.546623	-398.582957	22.337	
O	-0.0815884108	 0.0573911061	 0.0966099553	-0.32193
C	 0.0117034833	 1.2387302018	 0.0761960384	 0.470043
O	-1.0167461732	 2.1668476142	 0.0737603126	-0.249406
C	-0.0827807354	 3.2799414983	-0.000072988	 0.120421
C	 0.4187240662	 3.8444955488	 1.3559142188	-0.077309
N	 0.5076297098	 2.7029680361	 2.2913445029	-0.319017
C	 1.5925610648	 2.921790339	 1.3190718544	-0.04514
C	 1.1134469276	 2.3138015301	-0.0270790023	-0.255541
H	-0.3291621847	 3.9842209466	-0.7914206188	 0.105063
H	 0.3257938605	 4.8608503736	 1.7156191414	 0.105651
H	 0.8109595471	 3.0710298152	 3.1916113062	 0.242376
H	 2.6180939358	 3.0719289695	 1.6279909628	 0.110077
H	 1.8236441988	 2.2517448109	-0.8476272238	 0.114712
145.8335	266.6487	365.451	478.836	570.8341	693.4685	717.5039	765.9387	802.8476	822.0071	881.9984	896.1742	924.5594	940.6187	955.4159	973.0825	1022.3203	1074.5257	1097.3362	1113.038	1180.1041	1188.51	1212.7842	1270.87	1306.6945	1326.7607	1368.2137	1946.9558	3146.4908	3159.7525	3199.0027	3213.9218	3491.1236
O=C1OC2C3NC3C12	O=C1O[C@H]2[C@H]3N[C@H]3[C@@H]12	
InChI=1S/C5H5NO2/c7-5-1-2-3(6-2)4(1)8-5/h1-4,6H	InChI=1S/C5H5NO2/c7-5-1-2-3(6-2)4(1)8-5/h1-4,6H/t1-,2+,3+,4-/m1/s1
