20
gdb 112680	2.4311	1.35537	1.14078	2.7298	76.49	-0.2609	0.0286	0.2895	1190.8524	0.171221	-440.31302	-440.303887	-440.302943	-440.347119	33.689	
C	-0.6627866319	 0.9017106	-0.2383120457	-0.246038
O	-0.2625781624	-0.4470479852	-0.4252728402	-0.231727
C	 0.9333746174	-0.5925207985	-1.1251783144	 0.203047
C	 1.26902687	-2.0802584199	-1.2424865983	-0.266664
C	 0.587921652	-2.4908906686	-2.5624080105	-0.078997
C	-0.8190190526	-3.0842902794	-2.3830994439	-0.398188
C	 0.5331392908	-1.1781944978	-3.3240703303	 0.410227
N	 0.2807970104	-1.052791259	-4.5531616185	-0.543603
O	 0.8049114615	-0.1295906902	-2.4781007456	-0.246833
H	 0.1101142543	 1.4719200137	 0.297915352	 0.110602
H	-0.8667037607	 1.3962193574	-1.194397915	 0.13184
H	-1.5733644304	 0.8813247878	 0.3631630835	 0.132673
H	 1.7197970349	 0.0264800253	-0.6725884517	 0.078835
H	 2.3537107429	-2.200724318	-1.3071159601	 0.113525
H	 0.9083261802	-2.6281764966	-0.3709586337	 0.121778
H	 1.2001438386	-3.1943483888	-3.131135931	 0.103847
H	-1.4490930344	-2.4105543592	-1.7965069615	 0.135439
H	-1.2863827951	-3.2431466764	-3.3579622038	 0.138384
H	-0.7634862875	-4.0443621545	-1.860449483	 0.112
H	 0.279853732	-0.0678205822	-4.823678898	 0.219852
81.2076	92.9615	132.0052	194.4872	232.1816	255.4159	274.5186	353.1834	408.0223	455.1652	529.8947	661.2337	690.8218	773.2002	806.5391	836.4943	895.8013	920.087	952.1655	976.5527	1024.9716	1036.3354	1081.0617	1112.9188	1129.3096	1151.3744	1181.0357	1211.5103	1234.5531	1264.2454	1297.2878	1339.3441	1345.7703	1388.0336	1405.798	1409.2489	1478.9737	1482.9249	1485.4915	1498.6091	1506.7001	1512.3133	1779.5977	2997.4493	3019.2231	3043.3572	3070.2837	3073.6188	3085.8686	3116.9012	3131.1847	3133.2902	3135.2462	3471.4647
COC1CC(C)C(=N)O1	CO[C@H]1C[C@@H](C)[C]([NH])O1	
InChI=1S/C6H11NO2/c1-4-3-5(8-2)9-6(4)7/h4-5,7H,3H2,1-2H3	InChI=1S/C6H11NO2/c1-4-3-5(8-2)9-6(4)7/h4-5,7H,3H2,1-2H3/t4-,5-/m1/s1
