23
gdb 112898	1.79981	1.55442	0.9628	2.9256	81.52	-0.242	0.0762	0.3183	1325.3788	0.205841	-425.442374	-425.432628	-425.431684	-425.476918	37.02	
C	-0.1569846472	 1.2734307055	 0.6664229196	-0.402565
C	 0.0258782792	-0.1077363483	 0.0576586942	 0.155437
C	 1.1942733962	-0.2575552027	-0.9205841453	-0.24385
C	 1.5456237416	-1.7487743074	-0.7916418111	-0.00703
C	 2.9206512203	-2.1489115266	-1.3271749092	-0.419346
C	 1.3017433922	-1.9974623081	 0.7124831164	 0.096212
C	 2.5042219999	-1.7754376709	 1.6358948721	-0.059933
O	 2.0947625913	-1.7900075109	 2.9873713595	-0.427707
O	 0.2846239286	-1.0589945162	 1.1051289303	-0.30814
H	 0.7618910941	 1.6013190439	 1.1630634716	 0.11814
H	-0.4130573516	 2.0024274187	-0.1093450547	 0.115199
H	-0.9634001432	 1.2645891335	 1.4052809408	 0.125733
H	-0.9086892059	-0.4045984587	-0.4449943608	 0.070871
H	 0.9270142684	 0.0320965748	-1.9403984587	 0.101275
H	 2.0385835476	 0.367442127	-0.604043743	 0.100354
H	 0.7844354078	-2.3188111023	-1.3396643517	 0.080764
H	 3.7247175931	-1.5820775329	-0.8475349455	 0.123925
H	 3.1177210819	-3.2141884856	-1.1674050751	 0.120596
H	 2.9818616523	-1.961430944	-2.4038376286	 0.11708
H	 0.9097054225	-3.0051546543	 0.9002124376	 0.079753
H	 3.2381961042	-2.5786182023	 1.510081213	 0.1017
H	 3.0018852679	-0.824500634	 1.3806517816	 0.075214
H	 1.298557179	-1.2432565182	 3.012894107	 0.286319
61.9966	119.2402	153.0228	197.0003	224.123	237.6996	275.1353	317.1081	373.3409	450.5218	467.0725	505.1652	506.5841	560.5763	663.7038	798.6539	852.0567	883.7212	928.6478	940.7504	977.359	989.1145	1026.8538	1056.0491	1072.5834	1096.9333	1129.8331	1152.6723	1167.7846	1188.8159	1210.5496	1230.2086	1282.8041	1309.974	1338.9241	1357.4175	1364.5323	1384.0669	1391.5421	1404.0539	1411.7075	1416.7292	1447.9247	1485.0952	1490.4647	1497.4846	1499.2338	1502.7038	1508.8618	2956.8733	2967.975	3012.2614	3029.0155	3034.8002	3035.8195	3038.9668	3071.5833	3096.7096	3100.2791	3108.4341	3109.8311	3115.0028	3767.8906
CC1CC(C)C(CO)O1	C[C@H]1C[C@@H](C)[C@@H](CO)O1	
InChI=1S/C7H14O2/c1-5-3-6(2)9-7(5)4-8/h5-8H,3-4H2,1-2H3	InChI=1S/C7H14O2/c1-5-3-6(2)9-7(5)4-8/h5-8H,3-4H2,1-2H3/t5-,6+,7-/m1/s1
