21
gdb 70984	3.08218	1.56291	1.445	0.2108	88.44	-0.2142	0.0134	0.2276	1032.106	0.183182	-349.856096	-349.848591	-349.847647	-349.887215	32.204	
C	-0.0753962783	 1.6172139151	 0.0098889279	-0.505492
C	-0.0245774955	 0.1065775068	 0.0061825414	 0.239509
C	 1.0510514688	-0.7123700996	-0.8891106413	-0.336907
C	 0.6194374201	-1.8519978789	 0.1223504503	 0.248096
C	 1.0507867345	-2.8634261334	 1.2251566209	-0.322814
C	 0.294528225	-1.89088176	 2.2358354308	-0.286499
C	 0.5933198035	-0.7678731703	 1.1866442633	 0.009745
C	-0.8726284633	-1.9623956733	-0.2534140569	-0.13176
C	-1.285157788	-0.6975664808	-0.3271392371	-0.110216
H	 0.8935715183	 2.0463859195	 0.2844023588	 0.113593
H	-0.3450163277	 2.0080330974	-0.9780757595	 0.117108
H	-0.8195143998	 1.9823609974	 0.726781352	 0.119365
H	 0.8025066103	-0.8354136904	-1.9473844362	 0.091646
H	 2.0788886955	-0.35664299	-0.7638254495	 0.093297
H	 0.6900805094	-3.893760999	 1.1467666645	 0.094165
H	 2.1273753774	-2.8703577984	 1.4145690691	 0.105354
H	-0.7614568484	-2.1572551737	 2.3113572768	 0.115569
H	 0.7174545257	-1.7679730192	 3.2357951736	 0.09244
H	 1.6083383864	-0.4021376808	 1.3859678606	 0.0687
H	-1.4066911359	-2.8870580933	-0.4285342018	 0.090263
H	-2.2507889782	-0.2839643551	-0.5848880676	 0.094838
202.811	224.9268	252.4788	292.1017	334.4366	420.0405	472.2707	538.8734	574.4505	605.4159	655.5626	698.7374	730.9345	757.139	814.055	837.9488	858.9214	893.3125	898.4335	905.5719	983.4449	1002.2932	1009.0931	1023.3948	1067.5047	1084.3345	1102.365	1133.6924	1135.4541	1174.2269	1192.5868	1207.8526	1211.5613	1227.5499	1240.6127	1280.712	1326.755	1391.4245	1410.5445	1471.7131	1483.7955	1489.3365	1491.9421	1493.3114	1632.2678	3019.4237	3024.6077	3039.7511	3047.9793	3067.4936	3087.9287	3097.2116	3106.889	3109.9797	3132.665	3204.1752	3233.3248
CC12CC3(CCC13)C=C2	C[C@@]12C[C@]3(CC[C@H]13)C=C2	
InChI=1S/C9H12/c1-8-4-5-9(6-8)3-2-7(8)9/h4-5,7H,2-3,6H2,1H3	InChI=1S/C9H12/c1-8-4-5-9(6-8)3-2-7(8)9/h4-5,7H,2-3,6H2,1H3/t7-,8-,9+/m1/s1
