19
gdb 90837	3.20975	1.83244	1.44642	1.5143	78.82	-0.2368	0.0869	0.3237	948.3039	0.160865	-385.800632	-385.793886	-385.792941	-385.831364	28.404	
C	-0.1918851955	 1.4914437858	-0.1115661263	-0.401674
C	 0.0757732154	 0.0054479357	 0.0622679128	 0.024844
O	 1.0028483758	-0.4712828119	-0.9619652386	-0.314891
C	 2.1106579309	-1.0568406421	-0.2365689523	 0.081324
C	 1.5117429489	-1.8237363553	 0.9479008316	-0.073704
C	 2.3930413966	-1.2158361756	 2.0791649683	-0.109167
C	 1.1565169628	-0.5684436559	 2.7847770859	-0.349815
C	 0.8863759584	-0.4192992801	 1.2719204437	 0.282077
C	 2.4027978195	-0.137559536	 0.9543765904	-0.073367
H	 0.7278590264	 2.0706964512	 0.0103178709	 0.116983
H	-0.5912018785	 1.6903105645	-1.1100368602	 0.126774
H	-0.9241640355	 1.8376836683	 0.6258723728	 0.113064
H	-0.8589244087	-0.5627313811	-0.031508385	 0.078321
H	 2.8344396162	-1.4352501041	-0.9579399238	 0.075225
H	 0.9588303548	-2.7635817859	 0.9647565526	 0.074051
H	 3.2609244539	-1.6741522711	 2.5528196955	 0.075761
H	 0.4961752888	-1.2413051383	 3.3406703433	 0.099719
H	 1.3348411885	 0.3520105582	 3.3490872054	 0.100088
H	 2.8732378112	 0.8456035937	 0.9815604831	 0.074385
175.6433	227.2423	232.1819	386.4879	440.6519	477.9563	489.7308	675.3136	705.4452	758.9354	800.9244	820.7965	860.2199	874.7679	884.9544	908.0989	927.7216	959.719	982.8275	993.6031	1041.9075	1050.217	1069.6302	1106.9694	1128.7471	1133.9404	1142.0245	1144.7035	1182.5505	1201.7242	1214.1015	1226.444	1259.0059	1298.3939	1311.1633	1344.5788	1385.8447	1408.1502	1487.038	1495.4978	1508.0852	3017.2608	3037.677	3041.8135	3102.019	3104.3223	3108.1394	3109.9281	3115.3598	3120.6843	3130.3869
CC1OC2C3C4CC13C24	C[C@H]1O[C@@H]2[C@H]3[C@@H]4C[C@]13[C@H]24	
InChI=1S/C8H10O/c1-3-8-2-4-5(8)7(9-3)6(4)8/h3-7H,2H2,1H3	InChI=1S/C8H10O/c1-3-8-2-4-5(8)7(9-3)6(4)8/h3-7H,2H2,1H3/t3-,4-,5+,6-,7+,8-/m1/s1
