15
gdb 133644	4.80112	0.60562	0.59843	2.0154	57.54	-0.2726	0.0122	0.2848	1755.2959	0.107688	-585.45198	-585.442583	-585.441639	-585.489212	31.235	
F	 0.0195587318	 0.0426314106	-0.0232213221	-0.084477
C	-0.0130453982	 1.384681006	 0.0537868557	 0.279578
F	 1.2587326188	 1.8154162171	-0.0191601604	-0.084575
F	-0.6550022306	 1.8358707962	-1.0304021952	-0.071621
C	-0.6870986816	 1.852983933	 1.3254703744	-0.338713
C	 0.0308320218	 1.3499447879	 2.5713839876	-0.085192
O	-0.6906737778	 1.8517107688	 3.6926635451	-0.185167
C	-0.1986197203	 1.5274772593	 4.9067722465	 0.127311
N	-0.784821137	 1.9281793858	 5.9483758032	-0.433047
H	-0.7080628442	 2.945744778	 1.3181270388	 0.149582
H	-1.7200584661	 1.4958840737	 1.3156173941	 0.14975
H	 0.0480512757	 0.2531971772	 2.5840842898	 0.127251
H	 1.0662588974	 1.7118804249	 2.5859967237	 0.127005
H	 0.7125901854	 0.9146819013	 4.8621207209	 0.089467
H	-0.289482025	 1.60113882	 6.7751429179	 0.232849
17.705	51.3148	96.3044	104.6039	127.1518	230.7173	309.0848	361.4235	437.7717	538.9548	558.2556	613.3705	682.5714	803.4523	825.0748	855.056	1004.8813	1019.6661	1044.2533	1084.6129	1140.3363	1190.2927	1198.7917	1266.245	1266.5108	1289.3578	1329.574	1366.4666	1416.3784	1441.1238	1480.9603	1524.5794	1753.3153	3013.8783	3028.1638	3065.6451	3079.0482	3131.4781	3521.1684
FC(F)(F)CCOC=N	FC(F)(F)CCO[CH][NH]	
InChI=1S/C4H6F3NO/c5-4(6,7)1-2-9-3-8/h3,8H,1-2H2	InChI=1S/C4H6F3NO/c5-4(6,7)1-2-9-3-8/h3,8H,1-2H2
