19
gdb 57949	3.27088	0.97324	0.78456	6.3699	76.32	-0.2396	0.0013	0.2409	1480.4053	0.156543	-456.406083	-456.39509	-456.394146	-456.443842	36.738	
C	 0.0772922661	 1.4470512595	-0.0811669532	-0.34213
N	-0.0729502315	 0.0099832501	 0.0757598041	-0.129434
C	 1.1188768562	-0.736322664	 0.4302968918	-0.350241
C	-1.3275211118	-0.5363881645	-0.0972015623	 0.507458
O	-2.3342402545	 0.1216914823	-0.2249013521	-0.367584
N	-1.3215664902	-1.9515304412	-0.1469069475	-0.431755
C	-2.4308788852	-2.7846145086	 0.0312437766	 0.417207
C	-2.1463484278	-4.2270053712	-0.3683781604	-0.502033
O	-3.4903622868	-2.4148707301	 0.4665911587	-0.301809
H	 0.8209910099	 1.6774757432	-0.8544935588	 0.118609
H	-0.8876212399	 1.8621250817	-0.3664635326	 0.175637
H	 0.4028796666	 1.9107123594	 0.8585278797	 0.123796
H	 1.7526304578	-0.1144547726	 1.0705397222	 0.138854
H	 0.8644735164	-1.6324680669	 0.9997229983	 0.139578
H	 1.7198482533	-1.026221684	-0.4453924032	 0.121573
H	-0.476245341	-2.4004359898	-0.4597045288	 0.250082
H	-1.2528476559	-4.6140104543	 0.1334543934	 0.131133
H	-3.0059608515	-4.8381693929	-0.0965598881	 0.156475
H	-1.9806304502	-4.2992833559	-1.4488151778	 0.144585
32.482	71.1135	79.3467	100.289	116.3545	140.6702	187.4912	205.063	305.2886	350.1147	402.6665	464.2359	527.6692	565.3406	601.0992	651.4596	752.5506	850.4162	938.4661	990.6184	1047.4996	1053.7881	1087.7819	1133.4779	1163.0101	1177.8733	1225.4285	1294.819	1383.1648	1398.6698	1434.3144	1465.5422	1472.9763	1483.646	1493.3638	1497.3919	1503.5215	1513.8675	1535.5221	1789.774	1855.5173	2985.9745	3013.3031	3039.3282	3059.3887	3072.2964	3101.3817	3123.0801	3165.7257	3171.9057	3638.5465
CN(C)C(=O)NC(C)=O	CN(C)C(=O)NC(=O)C	
InChI=1S/C5H10N2O2/c1-4(8)6-5(9)7(2)3/h1-3H3,(H,6,8,9)	InChI=1S/C5H10N2O2/c1-4(8)6-5(9)7(2)3/h1-3H3,(H,6,8,9)
