18
gdb 13637	4.01322	1.2393	1.04926	3.9446	64.05	-0.2516	0.0623	0.3138	1126.7942	0.152808	-422.048222	-422.039459	-422.038515	-422.081534	32.582	
O	 0.1028614138	 1.4263945374	 0.0031771529	-0.429922
C	 0.0949021783	 0.0174317649	 0.0864273485	-0.053851
C	-1.328401982	-0.5281627214	 0.0131252576	 0.094414
O	-1.8569175548	-0.0375144987	-1.2197345276	-0.460544
C	-1.3808497927	-2.0429459879	 0.0718289845	-0.041056
C	-1.8710296794	-2.7304686199	 1.3341185318	-0.338164
C	-2.7288409357	-2.6988827775	 0.0968767177	 0.084979
O	-3.8240419333	-1.8225299644	 0.0210360387	-0.425368
H	-0.4899169001	 1.6383073291	-0.7289559527	 0.289947
H	 0.6898287651	-0.4383504969	-0.7232683223	 0.084227
H	 0.5543836458	-0.261252331	 1.0403363847	 0.1046
H	-1.9016648681	-0.1082884234	 0.8512080896	 0.073584
H	-2.7939934109	-0.2656120385	-1.2216287552	 0.29885
H	-0.6142767607	-2.5485313887	-0.5088977846	 0.092625
H	-1.4242820485	-3.6725530359	 1.6321940134	 0.116466
H	-2.1660106026	-2.0863290305	 2.1564855563	 0.11992
H	-2.856951425	-3.6259045458	-0.4599394906	 0.094017
H	-4.5306628792	-2.1567065009	 0.5824850471	 0.295277
72.1717	128.3623	136.6284	241.2754	249.8751	278.221	361.5102	419.9311	429.3522	471.9526	478.0023	547.2758	629.3075	786.8567	847.1123	870.6182	903.9861	986.2296	1013.6281	1046.3766	1067.4692	1080.5884	1108.7588	1134.591	1157.8191	1173.7335	1207.0489	1232.7746	1277.8798	1298.3998	1319.1284	1373.0752	1402.6931	1417.2809	1432.1832	1453.1171	1487.0503	1500.6849	2962.3011	3010.2752	3078.2388	3111.189	3130.6038	3147.9853	3219.3264	3780.2597	3797.7074	3814.0064
OCC(O)C1CC1O	OC[C@@H](O)[C@H]1C[C@H]1O	
InChI=1S/C5H10O3/c6-2-5(8)3-1-4(3)7/h3-8H,1-2H2	InChI=1S/C5H10O3/c6-2-5(8)3-1-4(3)7/h3-8H,1-2H2/t3-,4+,5+/m0/s1
