20
gdb 101918	2.34404	1.31572	0.96239	5.765	75.1	-0.2525	0.0231	0.2756	1278.8648	0.170953	-440.303633	-440.294396	-440.293452	-440.338053	34.125	
C	-0.1610379307	 1.4252942539	-0.2342239322	-0.392498
C	 0.1796123421	-0.0647408764	-0.1385398401	-0.165276
C	 0.8161324384	-0.475416107	 1.2029260464	-0.147699
C	 0.6202197138	-1.9667843481	 1.4636468845	-0.021787
C	 1.6214833424	-3.018886255	 1.156771036	-0.233033
N	 1.4003977901	-2.5856754182	 2.5512509096	-0.356273
H	 2.4790924679	-1.2236882905	 2.7678823886	 0.320248
H	 0.8576019728	-3.2571303538	 3.083348455	 0.247918
C	 2.2811984349	 0.0017406157	 1.312175573	 0.402554
O	 2.9732782858	-0.4688688139	 2.3571777765	-0.382206
O	 2.7726409911	 0.7808132588	 0.5361031765	-0.329863
H	 0.7408397256	 2.0315223364	-0.1378300212	 0.154265
H	-0.6287465009	 1.6530153406	-1.1970692824	 0.109339
H	-0.8648409191	 1.7201758786	 0.5531447841	 0.103658
H	-0.735649005	-0.6538844144	-0.2800705993	 0.083447
H	 0.8612860966	-0.3412669584	-0.9494414285	 0.11589
H	 0.2836407464	 0.0459093026	 2.0141330039	 0.108
H	-0.4214635844	-2.2729115704	 1.3937155462	 0.103805
H	 1.2655372796	-4.0024787657	 0.8670114302	 0.12816
H	 2.5915546625	-2.7452674447	 0.7538392033	 0.151351
66.633	95.9324	122.9769	194.8453	211.6314	274.5994	290.2684	333.5016	403.2515	466.7912	548.1877	564.8262	734.8339	764.177	803.2669	871.7506	875.6528	898.9298	925.657	940.2139	977.939	1015.5662	1058.8071	1108.8912	1130.9087	1133.1349	1152.4921	1170.9342	1229.8545	1262.6084	1274.5961	1285.7524	1309.7423	1355.9545	1380.5972	1405.2025	1430.321	1477.0084	1480.4493	1495.6724	1513.8319	1515.771	1843.2026	2989.3981	3022.0883	3033.5542	3076.205	3098.2688	3125.9812	3130.7338	3145.3216	3216.7768	3268.4846	3535.8337
CCC(C1C[NH2+]1)C([O-])=O	CC[C@@H]([C@H]1CN1)C(=O)O	
InChI=1S/C6H11NO2/c1-2-4(6(8)9)5-3-7-5/h4-5,7H,2-3H2,1H3,(H,8,9)	InChI=1S/C6H11NO2/c1-2-4(6(8)9)5-3-7-5/h4-5,7H,2-3H2,1H3,(H,8,9)/t4-,5+/m0/s1
