20
gdb 6718	6.30961	0.67152	0.63447	3.4669	73.18	-0.2467	-0.0182	0.2285	1738.8044	0.173915	-386.15587	-386.145835	-386.144891	-386.191879	34.781	
C	-0.0072081609	 1.5902535498	 0.0071702533	-0.404812
C	-0.0009373144	 0.0629065943	-0.0504236673	 0.133947
O	 0.8606725131	-0.4884321497	 0.9449300184	-0.427287
C	-1.4136197786	-0.5307314288	 0.0419810357	-0.1885
C	-1.4321819037	-2.0566167046	-0.0884031946	-0.188632
C	-2.8367027553	-2.6576680696	 0.0881316226	-0.276416
C	-2.8116186929	-4.1679765798	 0.0465329198	 0.16016
O	-3.467592061	-4.853337781	-0.6946975877	-0.238265
H	 1.0144818055	 1.9762482429	-0.0413357915	 0.126292
H	-0.5809794328	 2.0173113867	-0.821577286	 0.118496
H	-0.4626293533	 1.9419290719	 0.9419531797	 0.106281
H	 0.4504462892	-0.255295924	-0.9991076584	 0.090671
H	 0.5689295842	-0.151751798	 1.7998103072	 0.275746
H	-1.8570646807	-0.2357024955	 1.0053785946	 0.083447
H	-2.0439415268	-0.079411725	-0.7351150949	 0.099373
H	-1.0375548606	-2.3418184031	-1.0721779722	 0.109131
H	-0.7456365023	-2.4806831794	 0.6528624952	 0.117485
H	-3.2314087164	-2.3635795549	 1.0725001708	 0.114509
H	-3.5341837422	-2.2988631573	-0.6749185109	 0.118864
H	-2.1066776303	-4.6306312749	 0.7782230662	 0.06951
51.8205	56.5495	89.483	126.9088	155.1996	242.591	277.1006	280.9278	297.8696	411.1272	467.1033	486.0826	533.0921	745.2401	808.1208	841.9778	897.6191	933.6981	993.0008	1008.2758	1053.4441	1062.6255	1095.3046	1132.4098	1160.6452	1183.2998	1248.4565	1272.8615	1311.3301	1321.5582	1343.9062	1371.9485	1395.6256	1406.1772	1421.4926	1430.815	1463.9408	1475.9558	1493.2433	1495.8393	1505.4382	1836.6137	2847.6043	2994.1157	3004.0911	3021.9137	3027.7449	3032.6902	3046.9055	3074.1609	3093.6506	3096.671	3119.8301	3793.9478
CC(O)CCCC=O	C[C@@H](O)CCCC=O	
InChI=1S/C6H12O2/c1-6(8)4-2-3-5-7/h5-6,8H,2-4H2,1H3	InChI=1S/C6H12O2/c1-6(8)4-2-3-5-7/h5-6,8H,2-4H2,1H3/t6-/m1/s1
