16
gdb 14951	4.58063	1.47011	1.17526	1.9601	61.04	-0.2598	-0.0337	0.226	978.0548	0.130759	-420.883085	-420.875811	-420.874867	-420.915166	26.489	
O	-0.8843657858	 1.1137478877	 0.125629663	-0.244951
C	 0.255724904	 0.7393315478	 0.0477331444	 0.136252
C	 1.4523388891	 1.6761350562	 0.0517053786	 0.029743
C	 1.3090683862	 2.8540279623	 1.0212566782	-0.206114
C	 2.6394892537	 3.608914644	 1.0572567389	-0.100004
O	 3.7108897491	 2.7113164117	 1.3302423101	-0.229942
C	 3.7626720342	 1.6808945315	 0.3869131997	 0.019396
O	 2.5935604805	 0.8945434173	 0.3693491547	-0.257092
H	 0.5306882571	-0.3339088514	-0.0457129418	 0.099108
H	 1.5515307418	 2.0691005128	-0.9800971441	 0.094496
H	 0.4865082189	 3.5016778431	 0.7060790217	 0.122137
H	 1.0778966238	 2.4694398036	 2.0195481843	 0.12187
H	 2.8149879518	 4.1165649252	 0.0933604321	 0.092909
H	 2.6570612065	 4.3631204579	 1.8473122131	 0.120031
H	 3.9343036614	 2.099954168	-0.6240490953	 0.077799
H	 4.5847346881	 1.0213720522	 0.6700162426	 0.124365
61.7877	149.1021	194.6834	257.5035	361.261	394.6117	471.2294	489.1241	602.8686	673.7306	804.2981	864.6857	924.9821	954.4304	995.3101	1039.99	1066.9959	1091.5659	1129.5828	1159.3761	1203.7299	1231.401	1266.5369	1300.5227	1330.3384	1350.1216	1375.2975	1390.8037	1407.9623	1446.4185	1469.858	1497.015	1508.7241	1839.6579	2903.7714	2909.4661	2915.1114	2966.2667	3059.552	3102.1317	3114.6634	3120.1993
O=CC1CCOCO1	O=C[C@H]1CCOCO1	
InChI=1S/C5H8O3/c6-3-5-1-2-7-4-8-5/h3,5H,1-2,4H2	InChI=1S/C5H8O3/c6-3-5-1-2-7-4-8-5/h3,5H,1-2,4H2/t5-/m1/s1
