17
gdb 38010	3.48253	2.11911	1.79053	2.5712	76.55	-0.206	-0.0343	0.1717	803.8655	0.138323	-384.564706	-384.559111	-384.558167	-384.594174	25.111	
C	-0.1475356726	 1.4726483884	 0.1826759445	-0.270502
C	 1.4063138492	 1.2701614766	-0.061814079	-0.030587
C	 2.2571213044	 0.1079831185	 0.6224451966	-0.137956
C	 1.44696903	-1.2584374598	 0.9787267	 0.058643
O	 2.0161528804	-1.9229851282	-0.1729649862	-0.292511
C	 2.3296564797	-0.6450737216	-0.7243116072	 0.12441
C	 1.097834784	 0.1965620679	-1.1501579343	-0.100636
C	-0.1254063831	 0.0001049038	-0.226995624	 0.058305
C	 0.0088296029	-0.8559892659	 0.8052378447	-0.115073
H	-0.5274858834	 1.7040320603	 1.1793666625	 0.107567
H	-0.5201768471	 2.1978072019	-0.5502517598	 0.105296
H	 2.0043843647	 2.1560069361	-0.2978573728	 0.085329
H	 3.1243585054	 0.3420360949	 1.2369710995	 0.082576
H	 1.6872143207	-1.7772206352	 1.9094300718	 0.083738
H	 3.187894144	-0.6484123829	-1.3991923438	 0.079676
H	 0.8914237586	 0.4605407784	-2.187519531	 0.0747
H	-0.5797414378	-0.7054022732	 1.7086643285	 0.087026
309.3738	370.082	460.9922	480.9194	595.8936	622.7972	682.1172	706.9407	763.9376	789.3809	799.7348	830.016	865.4405	880.5521	899.5953	929.5913	965.7193	969.3447	1007.2071	1028.5941	1043.7426	1051.3808	1077.5202	1097.7518	1100.8204	1167.8891	1174.6278	1192.745	1216.3409	1232.5249	1272.3336	1279.9695	1299.8311	1325.5924	1354.7148	1494.7093	1611.7994	3031.9238	3061.9475	3083.3201	3090.6664	3109.2267	3116.4907	3133.6614	3136.8847
C1C2C3C4OC3C2C1=C4	C1[C@H]2[C@H]3[C@@H]4O[C@H]3[C@H]2[C]1[CH]4	
InChI=1S/C8H8O/c1-3-2-5-7-4(1)6(3)8(7)9-5/h2,4-8H,1H2	InChI=1S/C8H8O/c1-3-2-5-7-4(1)6(3)8(7)9-5/h2,4-8H,1H2/t4-,5-,6+,7+,8+/m1/s1
