23
gdb 101025	2.05557	1.22344	0.93736	1.6282	81.54	-0.2594	0.0633	0.3227	1387.042	0.20383	-425.410078	-425.399388	-425.398444	-425.446222	39.7	
C	-2.6282181089	 0.7362286993	-2.2785683279	-0.380918
C	-2.4615298772	-0.6711610861	-1.6979872892	-0.202578
C	-1.8338891373	-0.6726959189	-0.2972682142	 0.060064
O	-2.6071364508	 0.1159588117	 0.6067936069	-0.434928
C	-1.5755560458	-2.085048046	 0.2479906464	 0.315582
C	-0.5531403871	-2.8986229524	-0.5240438269	-0.134696
O	 0.7092940218	-2.2515506222	-0.6114230623	-0.417895
C	-1.5817070325	-2.2791597631	 1.7486204798	-0.316005
C	-2.7002395952	-2.8428890932	 0.906529703	-0.321911
H	-3.1136693911	 0.7035088098	-3.2585549648	 0.108736
H	-3.2289373838	 1.3664939795	-1.6175562814	 0.120714
H	-1.6553694063	 1.2240225897	-2.4029354096	 0.119984
H	-3.4362520661	-1.1791868541	-1.6463463063	 0.084942
H	-1.84164508	-1.2720478386	-2.3716540871	 0.109369
H	-0.8650421223	-0.1627272736	-0.3495439728	 0.093399
H	-3.5289443284	-0.1488447365	 0.5148626184	 0.279253
H	-0.4609727726	-3.8935167745	-0.059643418	 0.082369
H	-0.8679325987	-3.0593087482	-1.5602274327	 0.111844
H	 0.9951496956	-2.063278988	 0.2892886634	 0.283509
H	-0.8701909813	-2.9768305719	 2.1802020971	 0.101695
H	-1.8078792062	-1.4128805829	 2.3571531814	 0.130603
H	-3.6721732189	-2.365682686	 0.9819407868	 0.095642
H	-2.7531145866	-3.9169263137	 0.7610916699	 0.111227
33.7966	84.1084	109.1056	191.529	194.6967	223.4037	274.175	302.6147	313.5646	333.7833	367.1479	431.3588	456.2058	475.4804	596.5873	734.9614	785.6302	795.1251	853.55	913.0112	934.7293	945.401	981.4081	999.401	1020.1297	1054.6991	1068.6931	1072.9105	1084.7867	1093.4035	1133.8844	1189.7094	1204.9976	1247.4669	1281.5399	1322.2899	1331.3801	1340.4513	1383.0076	1393.3569	1406.1436	1415.9939	1421.3566	1457.6698	1481.5681	1495.4879	1500.2711	1507.6561	1511.87	2973.8287	3000.8761	3038.975	3048.6548	3066.7027	3078.0955	3104.1082	3120.0776	3123.6968	3129.9003	3201.2654	3231.804	3799.8449	3801.5946
CCC(O)C1(CO)CC1	CC[C@@H](O)C1(CO)CC1	
InChI=1S/C7H14O2/c1-2-6(9)7(5-8)3-4-7/h6,8-9H,2-5H2,1H3	InChI=1S/C7H14O2/c1-2-6(9)7(5-8)3-4-7/h6,8-9H,2-5H2,1H3/t6-/m1/s1
