16
gdb 29304	5.4945	0.9852	0.89425	1.461	72.94	-0.2079	0.0075	0.2154	1279.4856	0.125405	-437.908997	-437.901288	-437.900343	-437.94166	29.246	
O	-0.1455021161	 1.315729356	-0.0693982637	-0.430338
C	 0.0140317985	-0.0205898116	-0.07155602	 0.31722
C	 0.225948225	-0.8431326663	-1.1267810822	-0.158764
O	 0.3229941115	-2.1238110452	-0.6119442618	-0.187619
C	 0.1625823118	-1.9828035834	 0.7196292382	 0.421222
N	-0.0253007886	-0.7505827407	 1.099598464	-0.408802
C	 0.213777858	-3.1770555395	 1.5648584545	-0.101817
C	-0.3325020602	-4.5010822559	 1.0599589693	-0.262508
C	 1.146604841	-4.3246788722	 1.2196038726	-0.262506
H	-0.2755344164	 1.5738142996	 0.8512089078	 0.305989
H	 0.3266633594	-0.7265466513	-2.1890286047	 0.142778
H	 0.0728385962	-2.9434334398	 2.6125617258	 0.11365
H	-0.8655216725	-5.1195822395	 1.7728826281	 0.122443
H	-0.7347957147	-4.5123999275	 0.0538918888	 0.133305
H	 1.7429365579	-4.2168955488	 0.3213218931	 0.133303
H	 1.6465319394	-4.8199831638	 2.0440181801	 0.122444
57.0087	152.0809	167.6288	310.1526	331.7391	365.3152	416.4134	495.0531	626.7494	644.1034	700.3633	728.5475	760.0455	793.7184	826.3661	906.9271	909.2737	987.0598	1028.838	1055.7604	1069.9539	1088.1825	1125.3427	1130.5271	1178.7407	1205.3156	1216.8836	1273.2339	1349.7839	1370.1981	1414.7467	1464.6905	1496.5592	1616.8868	1700.7106	3142.5461	3145.68	3197.7335	3227.0972	3242.4075	3319.5411	3806.3532
OC1=COC(=N1)C1CC1	Oc1coc(n1)C1CC1	
InChI=1S/C6H7NO2/c8-5-3-9-6(7-5)4-1-2-4/h3-4,8H,1-2H2	InChI=1S/C6H7NO2/c8-5-3-9-6(7-5)4-1-2-4/h3-4,8H,1-2H2
