18
gdb 126915	3.26336	1.02712	0.81886	2.3281	74.74	-0.2099	0.0405	0.2503	1401.7931	0.14922	-435.274219	-435.26529	-435.264346	-435.308677	32.65	
C	 0.1949737411	 1.5690769395	-0.0828660231	-0.390655
C	 0.4638900282	 0.0681614211	-0.0560158726	-0.113362
N	 0.2590541024	-0.5224466659	-1.3878031196	-0.42947
C	 0.5354036782	-1.9112727356	-1.4969604127	 0.041137
C	 1.5549651761	-2.3846173889	-2.3018610782	 0.426129
O	 2.4086981298	-1.7088733757	-3.0869288425	-0.430755
N	 1.5738818623	-3.7253118652	-2.1878035196	-0.265486
N	 0.6071838759	-4.1853099206	-1.3394016997	-0.243694
C	-0.0136993345	-3.088124234	-0.924885632	-0.060848
H	 0.8416706028	 2.0667178581	-0.8117458739	 0.121171
H	-0.8454747496	 1.7797438535	-0.3571718674	 0.113513
H	 0.3727969196	 2.0120680157	 0.901329483	 0.120192
H	 1.503062933	-0.1265943663	 0.2311038804	 0.110766
H	-0.1662952063	-0.4103557549	 0.7118112317	 0.091217
H	-0.6788673427	-0.3052488014	-1.7114698803	 0.225294
H	 2.1455947905	-0.7795190275	-2.990492948	 0.303329
H	 2.1877233283	-4.374987928	-2.6476028318	 0.276734
H	-0.8382933852	-3.1764443839	-0.2312086037	 0.104789
60.3095	66.0265	119.3989	227.3255	255.863	286.3203	326.7868	379.1324	463.3578	509.3951	531.2334	670.738	686.5632	711.1542	751.5826	803.7922	838.9279	885.1865	920.3699	951.9814	1065.2039	1086.1164	1137.4641	1169.0458	1187.7954	1215.559	1259.8938	1290.5088	1357.9119	1373.7928	1406.5775	1414.2539	1457.1969	1467.1626	1493.2984	1497.1819	1521.27	1601.0112	1657.3774	2966.2034	3031.9079	3058.9159	3099.7511	3117.8906	3232.1351	3496.5019	3683.7329	3709.0621
CCNC1=C(O)NN=C1	CCNc1c(O)[nH]nc1	
InChI=1S/C5H9N3O/c1-2-6-4-3-7-8-5(4)9/h3,6H,2H2,1H3,(H2,7,8,9)	InChI=1S/C5H9N3O/c1-2-6-4-3-7-8-5(4)9/h3,6H,2H2,1H3,(H2,7,8,9)
