20
gdb 37983	3.00158	1.75859	1.33008	0.5537	79.36	-0.2053	0.0887	0.2941	1003.4255	0.173878	-403.068292	-403.061357	-403.060413	-403.099334	29.057	
C	 0.0180137728	 1.7148805655	 0.0346375981	-0.208657
C	 1.4748028898	 1.1749521135	 0.062197399	-0.094562
C	 0.9703444518	 0.1712046695	 1.1564932753	 0.167223
O	 1.6727654011	-0.9367336852	 1.6217163885	-0.272043
C	 2.6494252606	-1.5363199522	 0.7898970146	-0.06821
C	 2.0713228112	-2.0308076236	-0.5265468727	-0.219174
C	 1.8097198453	-0.8822835497	-1.509281655	-0.160111
N	 1.0283799256	 0.2744054843	-1.0774462215	-0.10218
C	-0.0658729082	 0.1659452198	-0.0324167645	-0.088633
H	-0.3599955112	 2.2092357963	 0.9304473425	 0.095524
H	-0.2519557882	 2.2181430823	-0.8910995705	 0.111368
H	 2.4020394981	 1.7496226967	 0.0129807551	 0.078692
H	 0.5829550634	 0.6457359281	 2.0637322972	 0.083347
H	 3.4758022487	-0.8310200797	 0.6012548726	 0.087613
H	 3.0514433493	-2.364251326	 1.3815692639	 0.105539
H	 2.7637662965	-2.7430530038	-0.9939721221	 0.094232
H	 1.1460270739	-2.5804214	-0.3138040601	 0.106347
H	 2.771935571	-0.4846293875	-1.859653224	 0.10178
H	 1.3083468461	-1.2847509035	-2.3988750271	 0.102646
H	-0.9530018077	-0.4536847847	-0.1760114694	 0.07926
128.8193	231.539	337.5841	341.4625	382.3995	414.8765	492.2576	581.7198	660.3259	721.9249	740.5376	794.9527	842.1363	877.1903	886.0326	907.9625	936.1073	953.3086	983.2455	1029.1302	1041.1192	1070.5565	1086.8961	1109.548	1136.5192	1153.0877	1179.1154	1185.3891	1205.8665	1213.6549	1234.2513	1248.9571	1291.2917	1299.9931	1325.6576	1382.0873	1387.1822	1421.2238	1446.0443	1469.7426	1480.1013	1496.867	1505.0205	2970.4963	3010.5357	3021.3583	3043.7307	3053.0518	3067.9908	3079.7619	3085.7826	3094.097	3105.4559	3177.601
C1C2C3OCCCN2C13	C1[C@H]2[C@@H]3OCCCN2[C@H]13	
InChI=1S/C7H11NO/c1-2-8-5-4-6(8)7(5)9-3-1/h5-7H,1-4H2	InChI=1S/C7H11NO/c1-2-8-5-4-6(8)7(5)9-3-1/h5-7H,1-4H2/t5-,6+,7-
