15
gdb 52021	2.33523	1.12458	0.86888	2.8376	72.35	-0.2709	0.0007	0.2717	1310.4311	0.111031	-416.805629	-416.796166	-416.795222	-416.841026	32.709	
O	 0.5226863945	 1.0491184615	 1.2543110396	-0.318067
C	 0.233967672	 1.4301591672	 0.1391885546	 0.150073
N	 1.0737753656	 1.3537791383	-0.9311632622	-0.267821
C	 2.4204798876	 0.850513463	-0.7856382114	-0.172561
C	 3.3698312002	 1.8682564883	-0.071306375	-0.323701
C	 4.7095737059	 1.3113288618	 0.0929491451	 0.313671
C	 5.7929444117	 0.8100510783	 0.2160713623	-0.404479
C	 3.3932280599	 3.1362813996	-0.8154570934	 0.282409
N	 3.3680590484	 4.1165921132	-1.425910771	-0.320601
H	-0.7471360032	 1.8682890134	-0.1230667797	 0.094312
H	 0.8108621344	 1.8111854707	-1.7896763224	 0.267482
H	 2.3995122228	-0.0526194654	-0.1728846753	 0.160304
H	 2.8228336457	 0.6040127708	-1.7693386006	 0.139512
H	 2.9270131438	 2.0628647849	 0.9136998509	 0.186704
H	 6.7577749607	 0.3813333146	 0.3349876585	 0.212763
46.5136	67.7424	120.716	134.2899	190.5571	240.6843	298.39	364.3867	393.1635	480.8386	510.8263	569.4497	581.0614	652.0185	676.7221	764.5874	827.7715	979.775	1000.576	1028.8595	1041.9194	1078.1839	1207.1419	1238.2662	1307.8806	1339.7589	1387.1789	1424.6578	1467.3577	1521.973	1796.9294	2249.6129	2363.2475	2965.5093	3044.4005	3086.3995	3145.6197	3502.07	3639.8059
O=CNCC(C#C)C#N	O=CNC[C@@H](C#C)C#N	
InChI=1S/C6H6N2O/c1-2-6(3-7)4-8-5-9/h1,5-6H,4H2,(H,8,9)	InChI=1S/C6H6N2O/c1-2-6(3-7)4-8-5-9/h1,5-6H,4H2,(H,8,9)/t6-/m0/s1
