18
gdb 124477	3.20786	1.21686	1.08332	1.6978	73.21	-0.2638	-0.0114	0.2524	1169.6566	0.146094	-439.086456	-439.077554	-439.07661	-439.12027	33.459	
C	-0.1980246972	 1.5408921135	-0.0362487958	-0.420774
C	 0.0000366779	 0.0218903834	 0.0014728276	 0.237341
C	 0.8098484869	-0.4007248835	 1.2340245697	-0.392219
O	-1.257517977	-0.6493719726	 0.1323101241	-0.451916
C	 0.6902656251	-0.4801494915	-1.2544254323	 0.353304
N	 1.4905099533	 0.283651943	-1.9594110736	-0.213444
O	 1.950418065	-0.5095039355	-3.0083939608	-0.169721
C	 1.4013963681	-1.7281781418	-2.8982828544	 0.077477
C	 0.5912287762	-1.7897897139	-1.8140018668	-0.335601
H	 0.7587663568	 2.0600943012	-0.1250783989	 0.143606
H	-0.8081755546	 1.8311863555	-0.8980236938	 0.112089
H	-0.7030656434	 1.8642902064	 0.8778054948	 0.117908
H	 0.2892717064	-0.0803365341	 2.1407701306	 0.123864
H	 0.9191814774	-1.4879266477	 1.2642289355	 0.124765
H	 1.8043354315	 0.0514237027	 1.2119403955	 0.129486
H	-1.8316928232	-0.3389215704	-0.5766303847	 0.279601
H	 1.678308155	-2.4373589553	-3.6631585629	 0.152167
H	 0.0023533658	-2.6157191294	-1.4548470137	 0.132067
39.5592	150.6776	191.6563	218.6355	264.5138	324.0123	328.8383	352.833	361.8047	458.8026	498.9429	605.9738	615.7909	746.4759	813.9529	857.3869	875.7495	911.0256	935.2	943.9398	967.8111	991.4337	1018.8768	1063.4451	1121.4223	1155.2663	1191.2063	1212.8471	1309.6073	1361.0573	1396.8252	1414.5509	1436.4379	1470.4571	1478.0524	1479.9527	1495.3364	1507.7743	1601.2004	3041.3512	3048.3812	3112.2141	3123.9033	3132.1574	3138.388	3263.003	3297.55	3801.5232
CC(C)(O)C1=NOC=C1	CC(C)(O)c1nocc1	
InChI=1S/C6H9NO2/c1-6(2,8)5-3-4-9-7-5/h3-4,8H,1-2H3	InChI=1S/C6H9NO2/c1-6(2,8)5-3-4-9-7-5/h3-4,8H,1-2H3
