20
gdb 85265	2.50317	1.54687	1.19033	2.3726	79.36	-0.2099	-0.0166	0.1934	1116.7253	0.17122	-403.151515	-403.142941	-403.141997	-403.184786	32.829	
C	-0.3632381326	 1.1986934506	 0.9192805335	-0.330561
N	 0.0272625387	 0.170703073	-0.0434663738	-0.070724
C	-1.0988190141	-0.6869746728	-0.4285362774	-0.292904
C	-1.0833699842	-1.8869846772	 0.5338605269	 0.342175
O	-1.9756229501	-2.6751637299	 0.733456783	-0.335684
C	 0.2720968186	-1.8840138109	 1.1741824474	 0.242459
C	 0.3458267051	-2.2181666234	 2.6567864206	-0.290329
C	 0.8565846038	-3.1937004006	 1.6472602299	-0.307079
C	 1.0453203995	-0.7571042188	 0.496888188	-0.284356
H	 0.5109624634	 1.8053526993	 1.1737415233	 0.12191
H	-1.1049860591	 1.8595479323	 0.4609174714	 0.124457
H	-0.7925371288	 0.8064389739	 1.8589915684	 0.102045
H	-2.054142585	-0.158722273	-0.4067046812	 0.129564
H	-0.9568750394	-1.0727129283	-1.4490968399	 0.127732
H	 1.0607296829	-1.6604960862	 3.2527307112	 0.118067
H	-0.5960457225	-2.4426744443	 3.1462355632	 0.135056
H	 0.2604953031	-4.0799749062	 1.455628519	 0.136117
H	 1.9294019376	-3.3207512639	 1.5438898972	 0.11846
H	 1.6417490198	-1.1516885467	-0.3370043515	 0.106831
H	 1.7246422832	-0.2250884669	 1.1674551206	 0.106765
74.7613	94.3918	219.6506	230.3449	240.9451	299.7783	373.602	386.6934	472.2326	543.5906	563.8403	655.3569	715.1497	791.3111	827.8218	845.4776	886.2917	926.2599	983.9289	995.386	1030.6555	1035.1191	1056.7256	1088.3623	1093.9314	1111.6283	1159.0212	1177.3859	1200.7487	1261.4199	1273.8477	1287.6262	1323.6179	1337.1774	1378.7151	1450.4769	1453.7103	1465.0324	1486.0926	1492.2533	1500.2267	1505.8498	1831.194	2942.7274	3001.2492	3009.5922	3066.3994	3093.5182	3107.7639	3114.0659	3126.6992	3128.3954	3212.0688	3226.7911
CN1CC(=O)C2(CC2)C1	CN1CC(=O)C2(CC2)C1	
InChI=1S/C7H11NO/c1-8-4-6(9)7(5-8)2-3-7/h2-5H2,1H3	InChI=1S/C7H11NO/c1-8-4-6(9)7(5-8)2-3-7/h2-5H2,1H3
