21
gdb 70307	2.92125	1.57151	1.26886	1.3573	81.37	-0.2453	0.0826	0.3279	1079.2042	0.183591	-387.069645	-387.061749	-387.060805	-387.101502	32.522	
C	 0.0061857365	 1.4600058847	-0.0632888139	-0.461041
C	-0.0053420253	-0.044787994	 0.0505182721	 0.443013
C	-0.8715033607	-0.7535287925	 1.0503108073	-0.346974
C	 0.6387094106	-0.7745642447	 1.202341745	-0.077332
C	 1.4486470041	-2.0159332001	 0.8204097186	-0.263973
C	 2.2189913704	-1.7813562323	-0.480649702	-0.042344
C	 1.781486133	-2.4464547212	-1.7695061107	-0.312825
C	 1.4541020217	-1.0052130055	-1.5209007763	 0.095198
O	 0.1215328	-0.7199521583	-1.1861994004	-0.294322
H	 0.9533716577	 1.8178718033	-0.4826211443	 0.116058
H	-0.8039546198	 1.8031143839	-0.7153988721	 0.124293
H	-0.1236749675	 1.925401037	 0.9183576859	 0.113375
H	-1.4545700626	-0.1555683249	 1.742994705	 0.10587
H	-1.3531958639	-1.6675072807	 0.718524961	 0.114497
H	 1.0563144161	-0.1617128906	 1.9956094265	 0.082885
H	 2.1454840773	-2.2671565851	 1.6246238173	 0.103635
H	 0.7844096765	-2.8792717634	 0.7133125263	 0.107105
H	 3.2763218729	-1.5605905058	-0.3755124458	 0.084835
H	 2.5331929209	-2.6807864952	-2.5155148615	 0.108381
H	 0.9546457921	-3.1473294138	-1.7173350168	 0.117824
H	 1.9512733502	-0.235302181	-2.1084060114	 0.081843
124.1065	187.4212	230.2168	264.0614	350.1831	376.9847	437.7391	446.7102	495.2128	514.4294	650.8606	743.6807	797.202	813.8057	826.6012	847.0151	889.6879	899.2709	939.1762	963.0467	983.5979	1029.9041	1046.7663	1055.1474	1064.1877	1087.5111	1111.5902	1120.9559	1142.9097	1152.508	1170.5516	1223.5697	1230.8338	1270.2421	1287.0343	1333.0619	1366.3156	1394.7959	1400.7482	1419.7755	1471.5793	1476.5274	1483.7319	1492.7181	1503.5788	3028.8273	3047.9583	3087.6771	3092.5097	3108.754	3110.251	3126.4271	3129.3226	3147.1603	3156.2373	3215.7541	3218.5911
CC12CC1CC1CC1O2	C[C@]12C[C@H]1C[C@H]1C[C@H]1O2	
InChI=1S/C8H12O/c1-8-4-6(8)2-5-3-7(5)9-8/h5-7H,2-4H2,1H3	InChI=1S/C8H12O/c1-8-4-6(8)2-5-3-7(5)9-8/h5-7H,2-4H2,1H3/t5-,6+,7+,8-/m0/s1
