16
gdb 81205	3.43066	1.38743	1.25701	3.5875	70.47	-0.2489	-0.0306	0.2183	1027.5242	0.123148	-437.742091	-437.734666	-437.733722	-437.773824	29.012	
C	-0.0648155114	 1.5588455308	 0.0140888158	-0.454048
C	 0.15848634	 0.0649633511	-0.0670794483	 0.055466
N	 1.4366438737	-0.4613797645	-0.7607866547	-0.172558
C	 2.1967049891	-0.1341609235	 0.5636072526	-0.255064
C	 0.846747697	-0.7852638284	 1.015375328	 0.318999
O	-0.0171014811	-1.6587314195	 1.8540753505	-0.314196
C	-0.1575252952	-2.4962709524	 0.7229904681	 0.376023
O	-0.9012819808	-3.4061507884	 0.599767175	-0.290651
C	 1.0900680064	-1.83449149	 0.0149241265	-0.161311
H	-0.1638575894	 1.9733107148	-0.9942715395	 0.14137
H	-0.9999240295	 1.7530830273	 0.5487716735	 0.139894
H	 0.7292503444	 2.1037694726	 0.5281251644	 0.126671
H	-0.7195941588	-0.4201763054	-0.5072591153	 0.103315
H	 3.1062531418	-0.71756216	 0.7025408944	 0.133283
H	 2.3643276371	 0.9313679708	 0.7089260914	 0.129587
H	 1.9684556967	-2.4759117453	 0.0858916276	 0.12322
130.3901	156.6634	221.7538	262.7028	361.1183	419.0858	446.7941	556.7586	591.157	606.1094	676.4577	728.2412	758.4229	813.2177	836.9398	891.1186	926.5529	969.0775	1003.7293	1037.7653	1074.7859	1090.8365	1120.2882	1155.5706	1168.9598	1193.9632	1241.6529	1269.1735	1304.7646	1411.0569	1434.2675	1491.2216	1494.4186	1532.2495	1938.1712	3046.2957	3052.6515	3102.5954	3110.1777	3116.6397	3130.8883	3181.0779
CC1N2CC11OC(=O)C21	C[C@H]1N2C[C@]31OC(=O)[C@@H]23	
InChI=1S/C6H7NO2/c1-3-6-2-7(3)4(6)5(8)9-6/h3-4H,2H2,1H3	InChI=1S/C6H7NO2/c1-3-6-2-7(3)4(6)5(8)9-6/h3-4H,2H2,1H3/t3-,4-,6-/m1/s1
