18
gdb 71119	2.95712	1.8953	1.61965	1.2636	74.63	-0.228	0.0065	0.2346	887.2905	0.150468	-401.944796	-401.938137	-401.937193	-401.975153	28.753	
O	-0.0532245291	 1.3915530502	-0.0394699563	-0.503007
C	 0.0261309906	-0.0161483854	-0.0313507389	 0.336103
C	-1.3869818517	-0.6437554685	 0.059575812	-0.246526
C	-1.0624768887	-2.0401694326	 0.5463289575	-0.04558
C	 0.1689470575	-2.6596790879	-0.063657995	-0.071946
C	 0.8044949378	-1.960700989	-1.1975528968	-0.052783
C	 0.7360728827	-0.6238665891	-1.2075126725	-0.175079
N	 0.2023627297	-2.0268036137	 1.3021089131	-0.122742
C	 0.672974909	-0.6404941731	 1.2515268126	-0.202747
H	 0.8400844634	 1.7402699092	-0.1269478637	 0.277465
H	-1.978374141	-0.0967632638	 0.8008984715	 0.115558
H	-1.9148379364	-0.6261486225	-0.8974899328	 0.110066
H	-1.8544244449	-2.6849757412	 0.914098829	 0.09354
H	 0.2685593247	-3.738887125	-0.0174370416	 0.090073
H	 1.3031473552	-2.5401036248	-1.9666590024	 0.097015
H	 1.1601013516	 0.0066712547	-1.9820994194	 0.090737
H	 1.7660040795	-0.5971001752	 1.239600548	 0.097822
H	 0.30002097	-0.1155788322	 2.1368969059	 0.112029
262.4575	303.1702	317.7641	360.9208	419.5179	439.1918	507.5751	563.0957	592.8955	691.2791	722.0936	739.5099	754.3525	793.6954	877.938	908.2046	930.6865	951.3568	980.1169	991.8503	1018.2293	1055.1556	1083.6639	1088.2585	1121.973	1151.095	1177.0335	1195.5881	1244.9685	1254.4294	1279.3874	1296.3423	1327.4667	1372.8975	1396.3413	1409.5051	1478.7325	1496.6557	1667.8029	3047.7262	3056.7525	3100.9284	3108.2613	3157.3581	3166.4648	3176.3888	3199.2032	3811.3404
OC12CC3C(C=C1)N3C2	O[C@@]12C[C@H]3[C@@H](C=C1)N3C2	
InChI=1S/C7H9NO/c9-7-2-1-5-6(3-7)8(5)4-7/h1-2,5-6,9H,3-4H2	InChI=1S/C7H9NO/c9-7-2-1-5-6(3-7)8(5)4-7/h1-2,5-6,9H,3-4H2/t5-,6+,7-,8?/m1/s1
