19
gdb 56596	3.01692	0.93818	0.91607	1.8547	76.27	-0.2464	0.0187	0.2651	1364.8808	0.160469	-415.352336	-415.342548	-415.341603	-415.387545	35.482	
N	-0.3348111866	 1.32640202	-0.1748947438	-0.500085
C	 0.0803985316	-0.0427330834	 0.1341773736	-0.139375
C	 0.6369647605	-0.7538918263	-1.0362362517	 0.250793
N	 1.1069334887	-1.2656842856	-1.9612151585	-0.323184
C	 1.1263588781	-0.0548109116	 1.2973748413	-0.004492
N	 2.3347196589	 0.7203554181	 1.03821696	-0.518063
C	 0.4674145204	 0.4202555538	 2.5776524745	 0.029306
C	-0.026601958	-0.5731784179	 3.5659974433	-0.248854
N	 1.1620032009	 0.2450141397	 3.8558376687	-0.31751
H	 0.4225129726	 1.8160254775	-0.6421782921	 0.235762
H	-1.1157490731	 1.3198653788	-0.8230782563	 0.248856
H	-0.8026214989	-0.5953130118	 0.4741649364	 0.134297
H	 1.4353989499	-1.0996291907	 1.4299968802	 0.092749
H	 2.7746605121	 0.4457553317	 0.1648816558	 0.24258
H	 2.1319809099	 1.7140941745	 0.9988505422	 0.236459
H	-0.056494946	 1.3679808453	 2.4825880612	 0.110575
H	-0.8971778942	-0.3501920858	 4.1762675827	 0.121261
H	 0.1054814924	-1.6285968355	 3.3381739574	 0.110146
H	 2.0127947907	-0.2932532007	 3.7071930452	 0.23878
58.8392	63.5604	123.8607	190.6939	224.4465	240.5886	260.8109	322.1568	329.5563	385.7192	450.002	514.1535	589.4811	700.1962	806.5774	812.4616	845.5571	873.1883	900.1986	933.8629	960.5916	979.9013	1021.0894	1067.6544	1108.127	1137.1564	1165.1253	1175.9566	1196.3345	1242.2205	1264.7648	1284.6533	1306.6173	1337.0936	1383.1861	1399.0542	1442.6291	1512.7851	1649.2521	1658.6623	2338.7372	3026.4497	3056.7598	3103.4349	3146.1239	3188.7036	3492.4397	3497.1812	3503.4206	3580.6687	3585.2664
NC(C#N)C(N)C1CN1	N[C@@H](C#N)[C@@H](N)[C@H]1CN1	
InChI=1S/C5H10N4/c6-1-3(7)5(8)4-2-9-4/h3-5,9H,2,7-8H2	InChI=1S/C5H10N4/c6-1-3(7)5(8)4-2-9-4/h3-5,9H,2,7-8H2/t3-,4+,5+/m0/s1
