18
gdb 16576	2.94349	2.59539	2.13504	0.8002	65.9	-0.2411	0.0825	0.3236	746.5108	0.157775	-384.949998	-384.943905	-384.942961	-384.979846	25.252	
C	-0.0209924259	 1.5550240936	-0.0910782467	-0.103552
O	 1.3425626158	 1.9949276269	-0.02306791	-0.282842
C	 2.1872408644	 0.8334858362	 0.0764100524	 0.107423
C	 1.3786036601	-0.2697022995	-0.6141586582	-0.234345
C	 0.0284214304	 0.0270711878	 0.0555473134	 0.098321
O	 0.0618271952	-0.4047389893	 1.4128683386	-0.276454
C	 1.010165816	 0.2896274854	 2.2215644053	-0.068071
C	 2.3853222971	 0.4474392071	 1.5512730945	-0.228283
H	-0.6098272131	 2.0271585149	 0.7032012084	 0.109847
H	-0.4529204985	 1.8402135293	-1.0596785773	 0.098356
H	 3.1341151345	 1.0784276375	-0.4107745988	 0.075586
H	 1.3328753189	-0.1130643734	-1.6962980545	 0.101224
H	 1.7303035274	-1.2809401494	-0.4040350144	 0.10601
H	-0.8294191022	-0.4728573149	-0.3982917767	 0.082338
H	 0.6252710326	 1.2868205829	 2.4780671158	 0.10394
H	 1.0824145301	-0.282877223	 3.1501778768	 0.107186
H	 2.9578414651	-0.4860411746	 1.6034284427	 0.099531
H	 2.9549825121	 1.2186582124	 2.0801328788	 0.103785
198.8038	274.9233	354.3899	394.7408	449.1921	473.8609	586.2796	766.2877	772.5811	820.8592	831.6021	878.6923	901.6081	920.257	930.1894	959.5251	1015.8699	1025.0307	1072.6045	1084.1074	1105.6977	1119.1617	1175.8951	1213.486	1227.3403	1251.5321	1284.7945	1308.4163	1325.7845	1340.1702	1357.0231	1380.8576	1383.581	1416.5669	1471.8089	1486.3899	1507.789	1523.7475	3005.2067	3012.9472	3036.4767	3058.6745	3063.7532	3080.7077	3084.5568	3092.3015	3100.8277	3128.4606
C1OC2CC1OCC2	C1O[C@@H]2C[C@H]1OCC2	
InChI=1S/C6H10O2/c1-2-7-6-3-5(1)8-4-6/h5-6H,1-4H2	InChI=1S/C6H10O2/c1-2-7-6-3-5(1)8-4-6/h5-6H,1-4H2/t5-,6+/m0/s1
