15
gdb 47068	3.23039	1.58094	1.317	4.3797	60.65	-0.2751	0.025	0.3001	950.2964	0.114051	-494.917808	-494.910853	-494.909909	-494.949759	25.928	
O	 0.1506453096	 0.1382847454	 0.4958345114	-0.34874
C	 0.0609452644	 1.2156233681	-0.0043125984	 0.459466
O	-1.0681618333	 1.9532841773	 0.06759686	-0.245308
C	-1.3104558907	 2.9481240603	-0.9415622402	-0.106932
C	-0.1549015313	 3.9152388284	-1.0397923203	 0.09161
O	 0.0324992623	 4.6999625962	 0.1535613597	-0.286804
C	 1.2692959024	 4.0227423513	 0.4733392762	-0.103065
C	 1.1824372	 3.1853844619	-0.8194972664	 0.058031
O	 1.1002070082	 1.7714158477	-0.685562515	-0.256396
H	-1.4784242329	 2.4577370667	-1.9088998367	 0.126619
H	-2.2266386309	 3.4558393249	-0.6343787942	 0.146337
H	-0.2416185166	 4.5403257091	-1.9362367497	 0.094736
H	 2.1149989177	 4.7158651461	 0.5343260022	 0.118411
H	 1.2012846835	 3.4409208871	 1.3995264775	 0.132841
H	 1.9678181077	 3.3588803894	-1.5529227959	 0.119195
81.7551	120.6532	203.0912	329.7923	401.2781	448.727	545.3593	574.8007	735.7288	779.8613	793.6788	844.0263	880.0241	889.7169	972.2811	989.9992	1015.9166	1058.4595	1090.5309	1123.0199	1145.6684	1153.4308	1192.6942	1256.8129	1258.0514	1297.8899	1351.4678	1358.8064	1405.9472	1411.4886	1486.1063	1515.4133	1895.0598	3030.1835	3033.0348	3049.0698	3084.1336	3124.1597	3134.5615
O=C1OCC2OCC2O1	O=C1OC[C@H]2OC[C@H]2O1	
InChI=1S/C5H6O4/c6-5-8-1-3-4(9-5)2-7-3/h3-4H,1-2H2	InChI=1S/C5H6O4/c6-5-8-1-3-4(9-5)2-7-3/h3-4H,1-2H2/t3-,4-/m1/s1
