17
gdb 36172	3.72469	1.25216	1.14099	5.1086	76.72	-0.2449	0.0316	0.2764	1094.2359	0.13679	-380.785895	-380.778512	-380.777568	-380.818204	28.474	
N	-0.0025974029	-1.1537919996	 0.077439999	-0.307017
C	 0.0258822768	 0.0005889315	 0.1050626194	 0.275262
C	 0.0656361409	 1.462557765	 0.1170709573	-0.48054
C	 1.4702662785	 2.005174821	-0.0438043992	 0.376823
C	 2.5189366978	 1.6786023778	-1.1115213627	-0.303069
C	 3.2077957735	 2.5985628295	-0.1014945354	-0.003578
C	 1.9483568275	 3.4832389886	 0.1411469029	-0.116496
C	 2.0928953561	 3.2393462721	 1.638253985	-0.195756
N	 2.525236935	 1.8791925828	 1.0961144187	-0.171584
H	-0.566293738	 1.8351282963	-0.6981875229	 0.159051
H	-0.3761756222	 1.8236269926	 1.05297337	 0.157668
H	 2.8667905395	 0.643220947	-1.1391095648	 0.130016
H	 2.3464576696	 2.0816354705	-2.1125598401	 0.104045
H	 4.2517809031	 2.903715481	-0.0282752208	 0.093497
H	 1.6256085106	 4.3678241255	-0.4186745101	 0.070943
H	 2.8936118403	 3.7644353363	 2.1679163115	 0.108967
H	 1.1913434738	 3.2050229121	 2.2585837622	 0.101769
61.0349	114.3944	259.3794	296.4309	386.9158	420.3426	437.0895	493.4316	669.924	717.6303	762.5778	828.7486	855.9205	880.6305	907.8515	927.5282	944.2586	963.8401	1009.7846	1026.6078	1061.9474	1083.4802	1102.5155	1142.252	1155.3029	1170.3832	1216.5365	1226.8884	1249.995	1268.9981	1286.5289	1315.4555	1346.5732	1450.9457	1495.44	1521.4312	2367.1533	3037.0316	3039.3312	3049.8404	3063.55	3078.1531	3099.2323	3118.8587	3131.6507
N#CCC12CC3C1CN23	N#CC[C@@]12C[C@H]3[C@@H]1CN23	
InChI=1S/C7H8N2/c8-2-1-7-3-6-5(7)4-9(6)7/h5-6H,1,3-4H2	InChI=1S/C7H8N2/c8-2-1-7-3-6-5(7)4-9(6)7/h5-6H,1,3-4H2/t5-,6-,7+/m0/s1
