18
gdb 88516	2.37312	1.32358	1.13955	1.5577	73.3	-0.2539	-0.0376	0.2162	1165.8272	0.145799	-439.044016	-439.035063	-439.034119	-439.078125	32.734	
C	-0.9257721279	 0.8030512588	 0.2925336346	-0.411385
C	 0.0108242556	-0.376972293	 0.2030240469	 0.016544
N	 1.3447224829	-0.1519233251	-0.3829567992	-0.349837
C	 1.2459883058	-0.5619774259	 1.0210725245	-0.133604
C	 1.7587999796	 0.3876772928	 2.063892407	 0.306627
C	 2.8479362045	 1.3483604282	 1.7540859216	-0.212365
O	 1.5145190915	 1.7941776795	 1.9300570091	-0.259067
C	 1.6845942268	-0.0741079234	 3.4883030977	 0.12485
O	 1.4671073765	-1.2092053241	 3.8276504056	-0.258354
H	-0.378330524	 1.7173971652	 0.5176989296	 0.155294
H	-1.4542437924	 0.9338899083	-0.6579892501	 0.116628
H	-1.6768269085	 0.6391005602	 1.0729539738	 0.116949
H	-0.4774729639	-1.3126374894	-0.0698712385	 0.08868
H	 1.6295541329	-0.9348441543	-0.9643227926	 0.234904
H	 1.4920766491	-1.589042071	 1.2816085982	 0.104372
H	 3.5512144432	 1.6546360135	 2.5274268064	 0.120873
H	 3.2075622067	 1.3530286587	 0.727925079	 0.147588
H	 1.8538821316	 0.747483761	 4.2191151364	 0.091303
47.3042	135.3646	161.2178	178.408	223.3285	264.0409	312.6497	356.4567	402.7893	470.3586	548.2914	625.5602	711.2596	790.2967	854.5986	866.5643	893.8363	952.8184	967.2215	1018.5368	1029.8212	1047.2976	1084.1532	1135.9416	1146.0902	1166.9528	1197.8854	1246.0985	1257.9004	1269.7494	1344.9288	1399.8515	1419.0182	1436.8442	1474.301	1498.3046	1503.2374	1504.8788	1824.4332	2896.1002	3038.991	3089.1326	3095.1482	3101.9901	3138.489	3166.7993	3193.6539	3509.6718
CC1NC1C1(CO1)C=O	C[C@H]1N[C@H]1[C@]1(CO1)C=O	
InChI=1S/C6H9NO2/c1-4-5(7-4)6(2-8)3-9-6/h2,4-5,7H,3H2,1H3	InChI=1S/C6H9NO2/c1-4-5(7-4)6(2-8)3-9-6/h2,4-5,7H,3H2,1H3/t4-,5-,6-/m1/s1
