17
gdb 97132	2.5685	1.14261	0.83247	2.6321	74.19	-0.258	0.0024	0.2604	1366.0206	0.134714	-455.123699	-455.114321	-455.113377	-455.159289	31.734	
C	-0.1214244927	 1.1598297709	 0.1208860177	-0.342635
N	-0.1962794751	-0.2638968206	-0.181420756	-0.330207
C	 0.587264518	-0.7604159539	-1.0166310874	 0.456846
O	 1.5860419155	-0.1971734173	-1.7938476418	-0.264322
C	 1.981897423	-1.5069733388	-2.309572293	-0.106829
C	 0.827651839	-2.1707103181	-1.5405106837	-0.050184
O	 1.2654510527	-3.1448883825	-0.6184006989	-0.195396
C	 0.3553420925	-3.5383767187	 0.3113027477	 0.120057
N	 0.6592322027	-4.4679442337	 1.1057473108	-0.434411
H	 0.700858745	 1.6792670053	-0.3835979554	 0.132393
H	-1.0663445885	 1.6348031496	-0.1643009383	 0.134187
H	-0.0122141995	 1.2859847152	 1.202822095	 0.135197
H	 1.9317733749	-1.5336597426	-3.3993660773	 0.129337
H	 2.9707907296	-1.7960364168	-1.9490345053	 0.144148
H	 0.0168394308	-2.5563215132	-2.1681658512	 0.116908
H	-0.5784786587	-2.9675092541	 0.2802052348	 0.121696
H	-0.1133798393	-4.6410733806	 1.7457281021	 0.233214
65.1736	84.4815	86.394	105.4856	166.3266	187.2293	227.1273	339.8257	395.292	535.6915	573.5186	731.0869	734.6897	826.8929	856.3751	946.9782	966.6675	1025.2798	1043.9066	1060.6251	1095.3953	1117.0742	1131.9542	1154.9145	1174.5745	1201.4963	1249.4017	1289.6085	1330.6343	1382.6353	1430.2533	1439.8492	1492.248	1497.1733	1508.1506	1747.2082	1851.078	3023.1843	3049.9298	3077.1368	3078.6208	3090.854	3097.3741	3144.9686	3517.9979
CN=C1OCC1OC=N	CN=C1OC[C@H]1O[CH][NH]	
InChI=1S/C5H8N2O2/c1-7-5-4(2-8-5)9-3-6/h3-4,6H,2H2,1H3	InChI=1S/C5H8N2O2/c1-7-5-4(2-8-5)9-3-6/h3-4,6H,2H2,1H3/t4-/m1/s1
