17
gdb 63720	3.75133	1.13879	1.03183	1.9744	76.64	-0.2456	0.0191	0.2647	1188.7592	0.132195	-421.752845	-421.743961	-421.743016	-421.785861	34.3	
C	-0.026566776	 1.5764221675	 0.0896978059	-0.459145
C	 0.0077266777	 0.0607070765	-0.0060639391	 0.383134
O	-1.2801658336	-0.5040746675	-0.1602548263	-0.478554
C	 1.0697199311	-0.584241836	-0.9846180982	-0.368707
C	 1.6767458816	-1.315284629	 0.2257282997	 0.298358
O	 2.061338959	-0.2840379158	 1.1654287911	-0.283232
C	 0.6994041614	-0.6932829673	 1.1480816346	-0.076569
C	 2.3487101384	-2.5678043476	 0.2590995726	 0.165643
C	 2.9108758047	-3.6305664075	 0.237957286	-0.373366
H	 0.9661393332	 1.9645451913	 0.3298506482	 0.141467
H	-0.3423657447	 2.0180697632	-0.8635958288	 0.109045
H	-0.7318865599	 1.892955328	 0.8642396664	 0.125699
H	-1.6965264904	-0.0952747003	-0.9266296832	 0.281102
H	 0.5784695349	-1.2616713051	-1.6851365119	 0.1202
H	 1.7584011595	 0.0838264016	-1.5068468134	 0.107313
H	 0.2548473098	-1.0639939308	 2.0649815909	 0.116304
H	 3.4073527533	-4.5693520812	 0.2316737757	 0.191307
94.7078	139.1817	220.5581	241.2033	266.8815	269.4808	346.3999	403.7437	423.9011	490.6954	527.3358	552.2324	572.5732	612.9321	673.5195	680.9412	783.5375	856.1093	902.5137	936.562	951.3349	963.9559	1023.5442	1094.9113	1106.4309	1138.6245	1180.7217	1221.1453	1248.669	1255.7681	1386.4006	1392.5208	1416.7835	1461.0982	1488.7096	1496.1118	2242.4423	3027.3937	3070.4721	3095.5717	3129.7887	3140.2754	3189.7212	3502.0898	3807.4322
CC1(O)CC2(OC12)C#C	C[C@@]1(O)C[C@]2(O[C@@H]12)C#C	
InChI=1S/C7H8O2/c1-3-7-4-6(2,8)5(7)9-7/h1,5,8H,4H2,2H3	InChI=1S/C7H8O2/c1-3-7-4-6(2,8)5(7)9-7/h1,5,8H,4H2,2H3/t5-,6+,7+/m0/s1
