13
gdb 5447	3.76974	1.90923	1.26736	1.7098	69.51	-0.1882	0.0287	0.2169	885.64	0.095714	-361.469525	-361.462279	-361.461335	-361.500638	27.782	
O	 0.0939525414	 1.3017339967	 0.0868201726	-0.429925
C	 0.0562097229	-0.0398552847	-0.02059092	 0.297122
C	 0.024757363	-0.8667804141	-1.1332200559	 0.06079
C	-0.008315701	-2.2131510521	-0.6227989473	-0.265194
C	 0.0042820992	-2.1450431514	 0.7404311599	-0.083577
N	 0.0439894692	-0.8026512855	 1.1001317952	-0.297424
C	 0.0276065196	-0.3864699138	-2.4580741495	 0.185914
C	 0.0318356225	 0.0800401525	-3.5717694753	-0.46255
H	 0.0967010758	 1.6580522205	-0.8114454293	 0.312337
H	-0.0376707768	-3.1101543274	-1.2201492252	 0.104098
H	-0.0109344462	-2.9142225384	 1.4937007225	 0.124536
H	 0.0613025758	-0.4336213589	 2.0349149665	 0.271922
H	 0.0350220245	 0.4685333765	-4.5593992742	 0.181951
124.7338	161.6897	280.3221	377.3196	382.1284	427.1	456.7971	495.5817	515.7316	612.8669	621.5621	650.9015	672.067	722.154	734.7098	822.0768	912.5379	1072.0387	1082.2631	1168.1269	1215.5287	1279.3109	1370.7752	1390.9627	1540.1357	1574.3454	1621.1694	2214.9358	3260.9655	3285.7204	3502.9998	3684.5965	3779.394
OC1=C(C=CN1)C#C	Oc1c(cc[nH]1)C#C	
InChI=1S/C6H5NO/c1-2-5-3-4-7-6(5)8/h1,3-4,7-8H	InChI=1S/C6H5NO/c1-2-5-3-4-7-6(5)8/h1,3-4,7-8H
