23
gdb 96352	2.11499	1.58806	1.16748	1.8948	80.97	-0.2462	0.07	0.3162	1176.4133	0.205841	-425.441855	-425.432447	-425.431503	-425.474993	37.4	
C	-0.0243587941	 1.557323462	-0.0580075107	-0.426958
C	 0.0687005315	 0.0301738397	 0.0176126154	 0.024722
C	 0.6736811179	-0.5569364183	-1.2661459662	-0.096366
O	 0.6956843281	-1.9720728844	-1.2670562758	-0.242729
C	 1.4598149664	-2.4900894292	-0.1946370812	-0.084555
C	 0.904229279	-2.0333083923	 1.1573995172	-0.248533
C	 0.8112192236	-0.4965894583	 1.2690111122	 0.349291
C	 2.1952488225	 0.1362984686	 1.4773525404	-0.436159
O	-0.0320493023	-0.1470376253	 2.3736140318	-0.476362
H	 0.9459973111	 2.0178464679	-0.2731169092	 0.111203
H	-0.7130777277	 1.8608205372	-0.8532779341	 0.110504
H	-0.3941650521	 1.9642071479	 0.8858608457	 0.136237
H	-0.9497080483	-0.3696154857	 0.1022091283	 0.088365
H	 0.0714516796	-0.2609959953	-2.130734192	 0.106718
H	 1.6922248509	-0.1596537867	-1.4245653611	 0.082176
H	 1.4160397602	-3.5796347707	-0.2833656242	 0.107209
H	 2.5168837285	-2.1914045679	-0.3019190877	 0.08505
H	-0.1057825826	-2.4381335508	 1.2811520523	 0.11093
H	 1.5241229002	-2.4361744102	 1.9694318953	 0.078915
H	 2.866700929	-0.0299018372	 0.6301129345	 0.118618
H	 2.1061439357	 1.2126906607	 1.6393668492	 0.127656
H	 2.6757633188	-0.2993364428	 2.3619018264	 0.102852
H	 0.412647914	-0.421977279	 3.1827959634	 0.271216
129.7699	190.5947	217.4757	236.5715	267.2232	274.8691	289.688	334.8948	372.3524	378.7096	448.1908	474.9616	481.6839	519.6459	623.714	698.3512	831.4515	884.5841	906.2732	925.0739	969.5083	981.1655	994.2405	1010.9818	1076.6199	1101.3388	1111.0704	1143.7107	1169.1343	1197.5975	1203.3172	1236.6636	1257.2292	1318.3087	1334.2097	1352.3623	1371.8535	1379.2307	1396.9118	1404.7839	1412.3541	1429.5467	1477.1722	1488.0684	1493.8809	1500.7413	1505.2142	1511.0155	1516.0056	2947.0137	2960.7153	3020.8995	3029.9338	3033.8169	3037.4032	3075.8022	3077.5366	3084.606	3095.5202	3099.1549	3126.5686	3131.7277	3802.6927
CC1COCCC1(C)O	C[C@H]1COCC[C@]1(C)O	
InChI=1S/C7H14O2/c1-6-5-9-4-3-7(6,2)8/h6,8H,3-5H2,1-2H3	InChI=1S/C7H14O2/c1-6-5-9-4-3-7(6,2)8/h6,8H,3-5H2,1-2H3/t6-,7-/m0/s1
