18
gdb 22491	3.63808	0.67824	0.60198	3.0832	73.14	-0.2552	-0.0302	0.2251	1772.421	0.144502	-476.180052	-476.169864	-476.16892	-476.216645	35.38	
O	 0.4613669278	 1.0334981268	 0.6189036676	-0.416221
C	 0.0071668601	 0.1501765994	-0.3868907759	-0.138457
C	-1.378489367	-0.4047216819	-0.0941432435	 0.343698
C	-1.591262045	-1.8906292522	 0.0159282196	-0.298134
C	-1.4000668889	-2.6158839422	-1.3361956385	-0.277524
C	-1.7001882799	-4.0943937957	-1.2155347153	 0.158437
O	-0.9423264138	-4.9776283146	-1.5196713266	-0.229793
N	-2.4123172158	 0.3261315007	 0.0805833569	-0.167987
O	-2.1083340961	 1.6992332848	-0.0708958306	-0.411187
H	-0.192073183	 1.7426016139	 0.6608015154	 0.298017
H	-0.0100017206	 0.6320261314	-1.3777301242	 0.11374
H	 0.7314268215	-0.6678429319	-0.4329013248	 0.114953
H	-0.882141486	-2.2990800412	 0.7472581403	 0.131261
H	-2.6020087755	-2.0709894564	 0.3939363302	 0.127077
H	-2.1041694774	-2.1904170941	-2.0646858526	 0.132235
H	-0.3860131147	-2.4996546409	-1.7284748234	 0.129394
H	-2.7123654817	-4.3218329398	-0.8053186673	 0.076769
H	-2.9513783939	 2.1203605137	 0.1258559827	 0.313722
48.6827	61.3783	93.0712	98.692	152.281	248.9815	282.1855	327.6891	345.2922	355.9868	433.0988	498.7474	519.2834	580.3737	709.2698	770.2743	831.5486	859.5495	946.33	965.7832	1004.1883	1069.007	1083.8409	1094.0218	1188.6613	1215.2677	1263.4719	1272.9608	1307.2409	1356.8664	1373.3507	1395.7499	1428.8506	1456.784	1465.0111	1483.3301	1492.861	1725.5909	1838.8186	2857.7206	2977.2908	3020.9859	3033.3542	3087.6344	3088.693	3109.5511	3781.7456	3827.8755
OCC(CCC=O)=NO	OCC(=NO)CCC=O	
InChI=1S/C5H9NO3/c7-3-1-2-5(4-8)6-9/h3,8-9H,1-2,4H2	InChI=1S/C5H9NO3/c7-3-1-2-5(4-8)6-9/h3,8-9H,1-2,4H2
