15
gdb 25875	4.02269	1.09208	0.86344	4.0594	70.1	-0.2212	-0.0282	0.1929	1257.3022	0.112955	-454.016094	-454.007791	-454.006847	-454.049364	30.351	
C	-0.1029878395	 1.4943739178	 0.0470751073	-0.479371
C	 0.009789244	-0.0156513522	-0.0068727038	 0.29718
O	 1.0820091987	-0.5888345786	-0.0669200785	-0.32499
C	-1.2509194985	-0.7783992492	 0.0166861205	 0.182561
C	-1.3642465322	-2.1448316148	-0.0236351531	-0.155229
N	-2.7176618073	-2.4018270604	 0.0200619113	-0.299023
C	-3.3427559321	-1.1908905668	 0.0837649722	 0.449032
O	-4.682149154	-1.1461051444	 0.1368374632	-0.423839
N	-2.5130546365	-0.1891770918	 0.0844432805	-0.420949
H	 0.8952918993	 1.9323150636	 0.0230160383	 0.129707
H	-0.6990783333	 1.8607379751	-0.7949005585	 0.142409
H	-0.6316801211	 1.8032653667	 0.9545697632	 0.142405
H	-0.6222620167	-2.9220372657	-0.0776467687	 0.161106
H	-3.1713083159	-3.3001245551	 0.0083411247	 0.280262
H	-4.9247998549	-0.2123368642	 0.1767319114	 0.318738
77.5676	121.1169	157.7765	161.8521	332.4074	366.0774	394.6718	410.7248	523.4006	526.138	567.5776	626.1639	688.5636	736.9466	744.8981	785.5948	938.7645	993.0398	1027.001	1044.7053	1097.1285	1133.791	1202.9113	1279.0026	1341.1645	1384.5096	1388.1897	1458.1273	1468.5088	1529.4218	1583.2848	1639.9457	1769.9018	3046.2536	3108.097	3156.5331	3297.2971	3666.5416	3806.1274
CC(=O)C1=CNC(O)=N1	CC(=O)c1c[nH]c(O)n1	
InChI=1S/C5H6N2O2/c1-3(8)4-2-6-5(9)7-4/h2H,1H3,(H2,6,7,9)	InChI=1S/C5H6N2O2/c1-3(8)4-2-6-5(9)7-4/h2H,1H3,(H2,6,7,9)
