18
gdb 22494	3.3227	0.76997	0.63252	1.1883	81.37	-0.2402	-0.0312	0.209	1741.9292	0.143121	-438.995162	-438.984597	-438.983653	-439.031996	36.621	
C	-0.0086740994	 1.4707760758	 0.0098294163	-0.385294
C	-0.0404598767	-0.0473264177	 0.0021132837	-0.027352
O	-1.3920948791	-0.4663860474	 0.0127659091	-0.227695
C	-1.5284580988	-1.8556853648	 0.0067376027	-0.136425
C	-2.9854866937	-2.26464125	 0.0183802783	 0.147567
N	-3.8876514256	-1.3521349156	 0.0320175036	-0.148193
O	-5.1707358896	-1.8812560953	 0.0414470789	-0.381985
C	-3.2383230127	-3.6672750064	 0.0131968727	 0.332388
C	-3.385556238	-4.8620181922	 0.0081199124	-0.458764
H	 1.0249750337	 1.829306061	 0.0018468671	 0.114342
H	-0.5229156197	 1.8688893316	-0.8692213354	 0.130386
H	-0.5059890829	 1.8595377497	 0.9026957226	 0.130386
H	 0.4720093069	-0.442811045	-0.8914644612	 0.087612
H	 0.4888901339	-0.452177724	 0.8815434785	 0.087612
H	-1.0505226136	-2.3050981084	-0.8828540404	 0.108567
H	-1.0338036728	-2.3143899136	 0.8823422634	 0.108572
H	-5.7174537012	-1.0875585681	 0.051025578	 0.311877
H	-3.5381706408	-5.9132382895	 0.0038690897	 0.206398
35.4274	69.0669	95.5218	129.4345	144.935	242.3611	259.032	261.7175	281.4279	349.853	414.1256	448.6058	516.3505	615.0346	647.5465	650.5932	687.7423	821.214	824.6316	913.3728	1032.9883	1041.8523	1051.0224	1148.8338	1170.7202	1188.5068	1222.0467	1259.9195	1296.2121	1385.9688	1406.294	1409.1879	1448.6615	1483.1482	1497.4956	1503.2242	1533.8683	1688.5085	2221.3043	2936.7557	2954.1588	2955.5628	2978.2227	3046.5673	3120.8824	3124.762	3499.271	3808.8864
CCOCC(=NO)C#C	CCOCC(=NO)C#C	
InChI=1S/C6H9NO2/c1-3-6(7-8)5-9-4-2/h1,8H,4-5H2,2H3	InChI=1S/C6H9NO2/c1-3-6(7-8)5-9-4-2/h1,8H,4-5H2,2H3
