21
gdb 64447	2.2021	1.6934	1.23793	3.604	79.19	-0.2259	0.0345	0.2604	1112.0329	0.184178	-420.450148	-420.441084	-420.440139	-420.483463	35.215	
C	 0.0540957854	 1.5160752235	-0.037588763	-0.402404
C	-0.0254645503	-0.017166966	-0.0091079171	 0.145798
C	-1.5041461464	-0.4597676647	 0.0968527585	-0.415862
N	 0.6503092846	-0.5301069207	-1.2146250948	-0.325203
C	 0.9813091523	-1.9458606476	-1.1653835716	-0.169803
C	 2.048002042	-2.1291945518	-0.0946129408	-0.132125
N	 1.5810814277	-1.5285422819	 1.1448836051	-0.33443
C	 0.6872453236	-0.5063706955	 1.2694789343	 0.434388
O	 0.4213133688	-0.0200978971	 2.3557202235	-0.399274
H	 1.0921449447	 1.8415251843	-0.1425836754	 0.11961
H	-0.5132382619	 1.9048869374	-0.8905951243	 0.09835
H	-0.3585707219	 1.9318775056	 0.8827807873	 0.140379
H	-2.0768350422	-0.0456284126	-0.7405330689	 0.103454
H	-1.6054851	-1.5491987601	 0.0761166101	 0.115494
H	-1.9411193795	-0.0994374907	 1.0310108715	 0.143479
H	 0.0824872947	-0.319761344	-2.0286728146	 0.215888
H	 0.1242032939	-2.6049600768	-0.9396584271	 0.090414
H	 1.3831163879	-2.2511842932	-2.1361173848	 0.106216
H	 2.2413645294	-3.1940349333	 0.0758146681	 0.106734
H	 2.984320928	-1.6616841111	-0.4291480888	 0.113913
H	 2.0401505492	-1.7723501336	 2.0109315029	 0.244985
68.9078	160.2525	210.4518	240.3975	261.6689	303.8127	308.4908	342.4945	412.8156	465.3335	470.8102	532.9022	587.4762	650.8265	673.4831	758.2321	770.1096	879.0777	896.4853	936.7303	955.4075	1010.4357	1020.0322	1078.7335	1113.7842	1140.2332	1174.9352	1205.7538	1235.2041	1260.857	1273.6357	1348.1392	1384.7914	1392.8114	1397.3986	1405.4252	1473.1972	1476.4189	1482.5695	1490.8481	1496.7735	1503.0903	1515.0199	1526.0472	1774.3878	2945.5531	3007.5948	3031.9947	3039.6526	3063.5939	3080.1538	3100.8808	3110.1938	3127.8213	3147.582	3518.8929	3604.0143
CC1(C)NCCNC1=O	CC1(C)NCCNC1=O	
InChI=1S/C6H12N2O/c1-6(2)5(9)7-3-4-8-6/h8H,3-4H2,1-2H3,(H,7,9)	InChI=1S/C6H12N2O/c1-6(2)5(9)7-3-4-8-6/h8H,3-4H2,1-2H3,(H,7,9)
