25
gdb 96328	1.90233	1.42291	0.88779	1.4753	88.41	-0.2583	0.0757	0.334	1403.8729	0.23076	-389.511676	-389.502051	-389.501107	-389.545607	37.828	
C	 0.0754262116	 1.6104443035	 0.0340915118	-0.397442
C	-0.011965368	 0.0762776148	 0.0106539528	 0.021572
C	 0.642742702	-0.4724801872	-1.2759921141	-0.181337
C	 0.1340217475	-1.8342744609	-1.7871267412	-0.199163
C	-0.1582745727	-2.9122486169	-0.7252885506	-0.199566
C	 0.803483679	-2.9537282075	 0.4731852549	-0.209203
C	 0.4245914695	-1.9712797268	 1.5917666405	 0.110685
O	 1.189447688	-2.2174402798	 2.7708094282	-0.440976
C	 0.648973639	-0.4905149974	 1.2805912344	-0.159338
H	 1.1206951919	 1.9419914795	 0.0134230459	 0.113357
H	-0.4281495787	 2.0487286861	-0.8337859675	 0.107107
H	-0.3850739527	 2.0242844528	 0.9370298089	 0.109069
H	-1.0782362696	-0.1939069897	 0.0114054427	 0.066101
H	 0.5090997685	 0.2539751291	-2.086492522	 0.087181
H	 1.7265183522	-0.5225637574	-1.1070033202	 0.093098
H	-0.782052079	-1.6797129486	-2.3707491509	 0.094018
H	 0.8744144094	-2.2218786512	-2.4978446069	 0.094123
H	-1.177140089	-2.7796561717	-0.3380868821	 0.094967
H	-0.1626191599	-3.8877789526	-1.2239199853	 0.092198
H	 0.7789382095	-3.962640811	 0.908100379	 0.075864
H	 1.8416470461	-2.7813736069	 0.1630693766	 0.099194
H	-0.6489284804	-2.1198789607	 1.8082053047	 0.057346
H	 1.0664397625	-3.1402238187	 3.0150306462	 0.275795
H	 1.7331213682	-0.3224300273	 1.2217921235	 0.098653
H	 0.3027723452	 0.0708619564	 2.1560409206	 0.096699
99.1485	130.0235	168.1432	229.0517	250.8364	286.6507	297.3056	327.3953	341.5503	385.853	450.7061	466.2679	501.4873	571.4282	740.2792	807.358	829.5468	862.1366	879.2603	946.3645	957.0018	970.8485	1020.1859	1047.0424	1052.9514	1064.6272	1077.5766	1113.2696	1134.0292	1155.0321	1207.7572	1214.5509	1234.7319	1265.5975	1299.6898	1307.7441	1321.1095	1336.7283	1348.2784	1370.9254	1383.4829	1390.1479	1401.9545	1402.856	1416.2641	1439.2802	1480.0955	1485.8479	1489.3623	1498.765	1502.2458	1503.6163	1509.3736	2930.4599	2993.4921	3004.255	3012.4717	3015.9893	3018.9981	3023.5142	3027.3897	3041.924	3054.1783	3056.5161	3064.1229	3069.3549	3090.4442	3100.2212	3814.9985
CC1CCCCC(O)C1	C[C@H]1CCCC[C@@H](O)C1	
InChI=1S/C8H16O/c1-7-4-2-3-5-8(9)6-7/h7-9H,2-6H2,1H3	InChI=1S/C8H16O/c1-7-4-2-3-5-8(9)6-7/h7-9H,2-6H2,1H3/t7-,8+/m0/s1
