17
gdb 32015	3.72502	1.1431	0.88418	3.0129	78.39	-0.2387	-0.0424	0.1963	1284.2861	0.137907	-418.092697	-418.084549	-418.083604	-418.12614	30.091	
C	 0.1194695415	 1.5529723167	 0.0079774767	-0.368511
C	-0.0378403291	 0.0337291586	 0.0026830604	-0.297339
C	-1.4720492805	-0.4384362858	 0.0133821861	 0.427415
N	-2.4616407232	 0.4062366141	 0.0232563223	-0.328327
C	-3.7243769317	-0.1332302277	 0.0319813832	 0.007137
C	-4.0054447442	-1.4622323811	 0.0310415361	-0.231757
C	-2.9281587553	-2.4286073893	 0.0204965525	 0.410888
O	-2.9975186374	-3.6424333712	 0.0177007558	-0.388107
N	-1.666416708	-1.7859635676	 0.0118496691	-0.375144
H	 1.1800701461	 1.8188565398	-0.0006002204	 0.112245
H	-0.3606886321	 1.9989218945	-0.8655760092	 0.137628
H	-0.3444310538	 1.9911642088	 0.8941749144	 0.137498
H	 0.4557234019	-0.3990149331	-0.8784219767	 0.128398
H	 0.4715468128	-0.4068532359	 0.8707764908	 0.128255
H	-4.5294668369	 0.5970108275	 0.040012496	 0.119146
H	-5.0198863419	-1.8391426402	 0.0380387283	 0.119759
H	-0.8731817582	-2.4151700181	 0.0040464145	 0.260815
42.6688	144.2151	184.7286	196.0478	231.075	357.7778	414.645	496.138	537.9612	598.1371	606.7824	731.5809	754.597	775.0185	814.0119	861.773	907.495	995.1553	1009.2263	1014.601	1080.3868	1107.5272	1108.8484	1205.1287	1223.3193	1292.3342	1294.3765	1374.4324	1417.2421	1431.964	1466.22	1477.2789	1489.303	1499.6933	1593.307	1642.994	1804.0607	3015.538	3042.4647	3056.4414	3128.6948	3138.7378	3164.9713	3224.9003	3580.4337
CCC1=NC=CC(=O)N1	CCc1nccc(=O)[nH]1	
InChI=1S/C6H8N2O/c1-2-5-7-4-3-6(9)8-5/h3-4H,2H2,1H3,(H,7,8,9)	InChI=1S/C6H8N2O/c1-2-5-7-4-3-6(9)8-5/h3-4H,2H2,1H3,(H,7,8,9)
