20
gdb 63911	3.00275	1.37957	1.23333	1.1645	80.21	-0.2383	0.0015	0.2398	1106.7248	0.171543	-403.13309	-403.124593	-403.123649	-403.165704	33.786	
C	 0.1052390532	 1.5568908171	-0.0022681443	-0.426798
C	-0.0294423536	 0.0303203682	 0.0059937989	 0.328586
O	-1.4266237731	-0.3266903748	-0.0181857994	-0.469512
C	 0.5609322256	-0.576227864	-1.2790255977	-0.214068
C	 0.6917319632	-2.0923227669	-1.2051018391	-0.045118
N	 2.0475123529	-2.6112911327	-0.9150818515	-0.3431
C	 0.9761140808	-2.7105558273	 0.1101677646	-0.067748
C	 1.0880826313	-1.8118045902	 1.2867095827	-0.054935
C	 0.6352051956	-0.5595328858	 1.2404634737	-0.108926
H	 1.1562577365	 1.864126586	 0.0012589159	 0.118405
H	-0.3803288821	 1.9741226549	-0.8891068555	 0.119917
H	-0.3754516756	 1.9888044007	 0.8831899824	 0.101447
H	-1.7774922639	-0.197503129	 0.8692687563	 0.271616
H	-0.0853929795	-0.2870233061	-2.1137140924	 0.102432
H	 1.5508330234	-0.1462603718	-1.4543103342	 0.111419
H	 0.0807782593	-2.6632823491	-1.8983256528	 0.085626
H	 2.1674655901	-3.5203952647	-1.3570580455	 0.226626
H	 0.5763313264	-3.7025912919	 0.3103691472	 0.086635
H	 1.5468087939	-2.2054638126	 2.1906010145	 0.093264
H	 0.7166699656	 0.0875797999	 2.111752076	 0.084233
85.7307	175.5828	234.0265	254.2786	285.1274	308.4009	359.9899	399.3896	436.0185	507.6423	539.6725	591.7007	700.1055	755.1801	814.3103	820.9884	865.1263	897.4429	927.1448	931.8265	948.5981	992.2052	1001.5166	1010.4987	1092.0037	1129.9992	1136.7577	1148.4814	1176.2545	1211.9732	1219.671	1273.5245	1274.2054	1333.9417	1379.8926	1393.9573	1400.4278	1423.6212	1456.1014	1465.7921	1489.943	1490.7301	1708.8726	3026.813	3051.0793	3094.1683	3101.7583	3114.9466	3121.6521	3137.103	3145.6862	3163.2739	3484.6068	3809.0958
CC1(O)CC2NC2C=C1	C[C@@]1(O)C[C@H]2N[C@H]2C=C1	
InChI=1S/C7H11NO/c1-7(9)3-2-5-6(4-7)8-5/h2-3,5-6,8-9H,4H2,1H3	InChI=1S/C7H11NO/c1-7(9)3-2-5-6(4-7)8-5/h2-3,5-6,8-9H,4H2,1H3/t5-,6+,7-/m0/s1
