23
gdb 101748	3.18411	0.80205	0.73405	2.3327	82.35	-0.2397	0.0754	0.3151	1657.6355	0.203934	-425.396699	-425.386167	-425.385223	-425.433793	36.97	
C	-0.1070286018	 1.4588821301	-0.1335324176	-0.235665
O	-0.0522862896	 0.0703517459	 0.0935396708	-0.244423
C	-1.3054865479	-0.6020332183	 0.0280902171	 0.13944
C	-1.776035666	-0.7910151884	-1.4165244233	-0.402884
C	-1.118110195	-1.9401043377	 0.7482083772	-0.221793
C	-0.7624943676	-1.7921816267	 2.2223397678	-0.024694
C	-1.9030145278	-1.4117144025	 3.1969162551	-0.07805
O	-1.7575277174	-2.6453436963	 3.92819797	-0.272667
C	-0.6943501178	-3.0888328814	 3.0603805569	-0.092254
H	 0.8959681938	 1.8537832445	 0.0477080329	 0.127245
H	-0.3966454317	 1.7113767339	-1.1639660681	 0.107124
H	-0.8114875207	 1.9558685758	 0.5522282762	 0.102864
H	-2.0579149142	-0.0042844563	 0.5733308766	 0.063824
H	-2.7385807014	-1.311535658	-1.441206088	 0.116389
H	-1.9053027972	 0.1666908762	-1.9283018452	 0.116163
H	-1.0464504987	-1.3836006692	-1.9777832841	 0.123656
H	-2.0379087808	-2.5297206159	 0.645357843	 0.096472
H	-0.3238689094	-2.4955448986	 0.2325303047	 0.105049
H	 0.1204363755	-1.1593481152	 2.320873917	 0.09469
H	-1.7262830292	-0.5353695042	 3.8330104137	 0.098116
H	-2.8995930114	-1.3205240485	 2.7414164846	 0.09021
H	-0.9610963027	-4.0089691833	 2.5220350562	 0.093347
H	 0.239383219	-3.2604080758	 3.6104407663	 0.097842
46.8486	53.7373	76.7667	100.3226	141.8253	203.3299	231.9279	276.2904	331.9301	334.6384	408.7895	477.1119	527.354	765.8141	808.0889	864.7133	886.7222	893.186	929.0745	985.5098	996.9236	1026.8032	1042.9915	1102.2525	1118.5852	1132.5839	1150.9932	1164.397	1166.9295	1173.2494	1183.9436	1224.1681	1262.7076	1281.4849	1309.5955	1317.7017	1359.4195	1381.8387	1390.4134	1403.5895	1406.2302	1470.2138	1478.6128	1483.726	1492.8684	1504.3873	1512.8528	1513.4336	1538.839	2940.8364	2975.7144	2990.8461	3002.9474	3020.1584	3024.3846	3039.7501	3040.0373	3042.7698	3060.6983	3107.4645	3109.1708	3111.8242	3114.3049
COC(C)CC1COC1	CO[C@@H](C)CC1COC1	
InChI=1S/C7H14O2/c1-6(8-2)3-7-4-9-5-7/h6-7H,3-5H2,1-2H3	InChI=1S/C7H14O2/c1-6(8-2)3-7-4-9-5-7/h6-7H,3-5H2,1-2H3/t6-/m0/s1
