17
gdb 98827	3.10209	1.18139	0.86956	5.3379	73.25	-0.2566	-0.0264	0.2302	1282.0257	0.135785	-455.169617	-455.160767	-455.159823	-455.203821	31.735	
O	 0.1370040873	 1.368998605	 0.2813510085	-0.424182
C	 0.0968915936	-0.023556564	 0.1548318683	-0.137161
C	-1.3473369841	-0.4905284049	 0.0411890985	 0.358123
O	-2.2723240495	 0.3031506161	 0.0647086118	-0.370894
N	-1.5763563389	-1.8361750936	-0.0896679773	-0.104966
C	-2.8550753	-2.5535073418	-0.2188972493	-0.166706
C	-2.0314880219	-3.8730786557	-0.2961543786	-0.358732
C	-0.7830724562	-2.9924310851	-0.1538120691	 0.384365
N	 0.4733664912	-3.0844234086	-0.0987707252	-0.528911
H	-0.7901698519	 1.6538437601	 0.2591227407	 0.294141
H	 0.651314072	-0.3710173565	-0.7295354062	 0.13113
H	 0.5653215706	-0.5264232767	 1.0136483734	 0.131273
H	-3.4991235864	-2.4438296571	 0.6560514969	 0.13807
H	-3.4095436418	-2.28375389	-1.1200789277	 0.138098
H	-2.1866646591	-4.5706757977	 0.5286643933	 0.141422
H	-2.0968259717	-4.410223095	-1.2439507439	 0.141435
H	 0.7755835367	-4.0544020746	-0.1707834641	 0.233495
70.4746	97.7713	131.9341	147.945	189.8682	309.6071	369.0597	398.3607	405.4653	518.6751	575.5968	593.8503	762.5241	793.5194	798.221	837.7966	924.2141	983.1707	1019.4165	1024.4383	1059.7495	1134.0951	1156.5783	1170.0166	1195.7592	1219.2089	1245.1539	1256.5574	1308.8482	1349.8874	1405.2946	1463.3947	1471.47	1494.8814	1518.6213	1758.0791	1784.0014	3004.2412	3022.3833	3074.618	3087.8262	3124.5238	3144.6432	3507.8902	3692.8977
OCC(=O)N1CCC1=N	OCC(=O)N1CC[C]1[NH]	
InChI=1S/C5H8N2O2/c6-4-1-2-7(4)5(9)3-8/h6,8H,1-3H2	InChI=1S/C5H8N2O2/c6-4-1-2-7(4)5(9)3-8/h6,8H,1-3H2
