16
gdb 123773	4.20688	1.41742	1.16813	3.8353	75.31	-0.2476	0.0201	0.2677	1034.6243	0.126802	-396.896436	-396.889493	-396.888548	-396.928202	26.628	
C	 0.1019674595	 1.6180199925	 0.2167386908	-0.320583
C	 1.2817617141	 0.7333672234	-0.1564278028	-0.320548
C	-0.0665952594	 0.1419637999	 0.0829110836	 0.376069
C	-0.5524678671	-0.9404587917	 1.1122935199	-0.465206
C	-1.3391255766	-1.4894067399	-0.0746029116	 0.368347
N	-2.1585094073	-2.3248710072	-0.6886373099	-0.37821
C	-2.1504614963	-1.781389985	-1.9524525669	 0.021913
N	-1.3954702797	-0.690638631	-2.1486867607	-0.296473
N	-0.8969223939	-0.5499197638	-0.9023602495	 0.051541
H	 0.0692560747	 2.0432462256	 1.2140542428	 0.131019
H	-0.326911033	 2.2428893315	-0.5585576333	 0.144878
H	 1.6376125274	 0.7698759693	-1.1799076798	 0.14489
H	 2.0515077134	 0.5567781769	 0.5871007241	 0.131019
H	 0.2360757365	-1.589612574	 1.4986254779	 0.142557
H	-1.1515427152	-0.5495150099	 1.9373643943	 0.142539
H	-2.7242923173	-2.2055798565	-2.7632471088	 0.126247
63.8812	183.2607	210.1013	289.2787	437.8037	498.344	517.1373	665.8173	703.2125	704.1991	765.7296	856.7698	857.7926	881.5186	926.9138	955.2708	991.8464	1041.2564	1058.1535	1081.1971	1087.4184	1132.5545	1159.7785	1177.0128	1187.3449	1215.9617	1243.4043	1287.8591	1376.5874	1408.7076	1453.2926	1470.3223	1492.3957	1505.3033	1571.3446	3077.4718	3132.1269	3137.5224	3139.4381	3221.0664	3234.0231	3259.0801
C1CC11CC2=NC=NN12	C1CC21Cc1ncnn21	
InChI=1S/C6H7N3/c1-2-6(1)3-5-7-4-8-9(5)6/h4H,1-3H2	InChI=1S/C6H7N3/c1-2-6(1)3-5-7-4-8-9(5)6/h4H,1-3H2
