19
gdb 63188	2.9527	1.37486	1.28686	0.6548	71.	-0.2353	0.077	0.3123	1067.8296	0.159472	-460.140851	-460.13256	-460.131616	-460.173187	32.441	
C	-0.2120366289	 1.5798999667	 0.0910842503	-0.462889
C	-0.0266443139	 0.08492099	-0.0037553166	 0.351608
O	-1.1218011076	-0.6779185825	 0.4421136232	-0.466163
C	 0.6712220799	-0.5798559741	-1.1633371028	-0.136527
C	 1.3609144682	 0.1815078312	-2.2796477372	-0.118592
O	 2.3573590757	 1.0829023637	-1.7963103259	-0.231139
C	 3.1578302581	 0.48194695	-0.8169421567	 0.012802
O	 2.4528204765	 0.2656208595	 0.3826339526	-0.241697
C	 1.3307039376	-0.5568847376	 0.2073339456	 0.010471
H	 0.6630767178	 2.1139079506	-0.2789966838	 0.149596
H	-1.0888197528	 1.887491212	-0.4877341782	 0.121456
H	-0.3755823427	 1.8760288325	 1.1347010438	 0.106842
H	-1.2387329034	-0.4980870449	 1.3823414825	 0.279814
H	 0.2348735896	-1.5276572397	-1.4611315462	 0.106433
H	 1.8312135789	-0.5427627433	-2.963676462	 0.100948
H	 0.6602538666	 0.7886297214	-2.8604210014	 0.119791
H	 3.5681022992	-0.4712962804	-1.1960427526	 0.081742
H	 3.9639067906	 1.1792305601	-0.5825159032	 0.118822
H	 1.3652453006	-1.4742784154	 0.7905500687	 0.09668
151.1398	162.6014	214.9365	247.7418	266.2402	329.9371	370.508	400.2902	425.5676	494.279	526.3471	574.4272	704.2992	778.8918	817.2385	871.8949	945.3632	960.5789	985.1058	1000.3032	1024.5177	1067.0978	1090.1421	1109.3843	1135.1709	1169.4718	1206.2686	1223.0472	1275.2973	1288.1605	1323.3401	1330.6973	1339.4607	1388.0089	1414.7893	1441.6766	1453.3233	1495.0263	1496.1194	1510.5676	1512.5247	2942.8687	2979.8362	3028.6645	3079.1037	3090.3737	3119.4662	3129.3832	3155.9557	3166.9596	3785.6149
CC1(O)C2COCOC12	C[C@@]1(O)[C@H]2COCO[C@@H]12	
InChI=1S/C6H10O3/c1-6(7)4-2-8-3-9-5(4)6/h4-5,7H,2-3H2,1H3	InChI=1S/C6H10O3/c1-6(7)4-2-8-3-9-5(4)6/h4-5,7H,2-3H2,1H3/t4-,5+,6+/m0/s1
