16
gdb 27657	3.16614	1.21348	0.88244	2.074	83.83	-0.1716	0.0308	0.2024	1259.9808	0.124774	-396.930292	-396.921094	-396.92015	-396.963819	34.477	
N	 0.1644672182	 1.4159068969	-0.1004207093	-0.616499
C	-0.0079103819	 0.0175175795	-0.0274495064	 0.283902
C	-1.0978612733	-0.8075408793	-0.0822381473	-0.350093
C	-0.621334601	-2.1668676799	-0.0366644046	 0.142617
C	-1.3657811152	-3.3635794166	-0.0793256099	 0.182941
C	-1.9815679897	-4.401456387	-0.1164877482	-0.436255
C	 0.7621522202	-2.1041463881	 0.0688514049	 0.199339
N	 1.7086702806	-3.1193050797	 0.2371330216	-0.620896
N	 1.1198703919	-0.7859583987	 0.0682583844	-0.299976
H	-0.5979733434	 1.8444119197	-0.6112146631	 0.247094
H	 0.1962759887	 1.8500721876	 0.8182902424	 0.243499
H	-2.1298581567	-0.5012964461	-0.1501072635	 0.090922
H	-2.5350804405	-5.3062502048	-0.1444860049	 0.173796
H	 1.2383975651	-4.016022522	 0.2934170552	 0.256429
H	 2.3856348074	-3.1611838623	-0.5189137598	 0.244397
H	 2.0598489595	-0.4332545592	 0.1296263087	 0.258782
113.1126	128.5107	136.4845	214.3375	220.2246	279.3823	327.9166	402.563	438.9736	464.8273	499.487	523.6526	590.4282	638.3586	657.2367	661.9343	693.1325	779.8577	792.4361	819.8348	843.7598	1025.004	1108.7604	1157.6084	1185.4515	1196.2003	1264.2462	1351.533	1421.2455	1515.5297	1571.6317	1627.0409	1656.2378	1661.6907	2214.6726	3256.6375	3482.8473	3492.5585	3505.3486	3586.8797	3587.2586	3674.4349
NC1=CC(C#C)=C(N)N1	Nc1cc(C#C)c(N)[nH]1	
InChI=1S/C6H7N3/c1-2-4-3-5(7)9-6(4)8/h1,3,9H,7-8H2	InChI=1S/C6H7N3/c1-2-4-3-5(7)9-6(4)8/h1,3,9H,7-8H2
