14
gdb 45722	3.5103	1.20138	0.91945	4.4355	68.39	-0.2805	-0.0461	0.2343	1165.7697	0.10302	-432.925019	-432.917519	-432.916575	-432.95749	27.541	
O	 0.0155049877	-0.0767773052	 0.0495746678	-0.329545
C	-0.0422671109	 1.127948711	 0.0681679655	 0.406051
C	-1.3241639493	 1.942312873	 0.0809071642	-0.339485
C	-1.1164591624	 3.2991235705	 0.7893772778	-0.135068
N	 0.0633697504	 4.0332593029	 0.3230805858	-0.235738
C	 1.0601170457	 3.3120137206	 0.0076939351	 0.102359
N	 1.0983044406	 1.922454486	 0.0130492757	-0.333532
C	-2.3173478847	 4.1354245217	 0.6506722289	 0.296628
N	-3.2864707829	 4.7537566053	 0.5431123113	-0.314327
H	-1.611912024	 2.1158481783	-0.9632329075	 0.161153
H	-2.1147969454	 1.3536687554	 0.5479700353	 0.160536
H	-0.9819422113	 3.1149566764	 1.8668052904	 0.147128
H	 1.9930334025	 3.7870540008	-0.2907818116	 0.144503
H	 1.9720903441	 1.4384434034	-0.1397754587	 0.269338
90.5314	130.0197	151.618	266.0335	395.848	437.4474	464.0979	506.221	571.9775	591.5376	600.4999	680.393	777.8429	847.2855	916.0344	951.7658	1001.8249	1050.3144	1067.0187	1106.6519	1187.5832	1270.4912	1276.7121	1318.4344	1361.1106	1412.6346	1449.8494	1459.7514	1732.2059	1836.099	2370.2626	2991.2241	3051.4735	3134.2967	3154.0056	3609.2372
O=C1CC(N=CN1)C#N	O=C1C[C@@H](N=CN1)C#N	
InChI=1S/C5H5N3O/c6-2-4-1-5(9)8-3-7-4/h3-4H,1H2,(H,7,8,9)	InChI=1S/C5H5N3O/c6-2-4-1-5(9)8-3-7-4/h3-4H,1H2,(H,7,8,9)/t4-/m1/s1
