18
gdb 20908	3.04836	1.98096	1.32803	2.5768	74.44	-0.2271	0.0274	0.2545	964.9559	0.154982	-344.019775	-344.011585	-344.010641	-344.053018	29.533	
C	-0.0905053565	 1.5827921047	-0.0791263956	-0.375567
C	 0.0553474051	 0.0602896306	-0.0342214801	-0.141526
N	 0.7620345576	-0.4700268332	-1.1879050071	-0.007466
N	 0.0822323762	-0.6383252115	-2.3447866358	-0.274126
C	 0.9940100056	-1.0646172922	-3.2126244333	-0.001427
C	 2.2677013674	-1.1685450089	-2.6218291143	-0.308638
C	 2.0858219392	-0.7724239602	-1.3090367011	 0.367643
C	 3.0614018001	-0.6703276033	-0.1813852072	-0.50735
H	 0.8867903447	 2.0751481792	-0.0691681806	 0.122177
H	-0.6165069012	 1.8811356138	-0.9893734929	 0.147154
H	-0.6609560099	 1.9344752302	 0.7861147574	 0.117846
H	 0.5913935842	-0.2536807292	 0.8657381442	 0.115833
H	-0.9287044366	-0.4149194637	-0.0191087756	 0.133963
H	 0.7014427129	-1.2879236724	-4.2284375722	 0.105975
H	 3.1921399769	-1.4918357303	-3.0733935448	 0.096058
H	 3.1413128061	 0.3509264495	 0.2085958273	 0.134612
H	 2.7919526843	-1.3213846556	 0.6586696215	 0.13585
H	 4.0528358739	-0.9709491875	-0.52657407	 0.138987
41.066	118.1864	135.4513	218.7601	246.3876	290.5506	388.7169	436.2328	633.9212	658.6499	676.6929	714.5072	785.9868	792.9522	884.8038	939.0655	972.9465	997.4997	1054.6617	1062.8403	1078.3821	1100.9142	1192.5384	1234.4917	1270.6989	1338.3318	1367.7677	1391.0901	1406.6114	1417.1848	1440.4317	1477.4294	1482.8494	1485.0753	1489.5039	1506.8286	1519.0105	1585.3674	3026.7147	3042.1793	3065.8179	3075.2238	3104.1068	3117.6855	3126.2035	3134.1847	3239.1661	3263.6296
CCN1N=CC=C1C	CCn1nccc1C	
InChI=1S/C6H10N2/c1-3-8-6(2)4-5-7-8/h4-5H,3H2,1-2H3	InChI=1S/C6H10N2/c1-3-8-6(2)4-5-7-8/h4-5H,3H2,1-2H3
