23
gdb 120208	4.30446	0.86692	0.84654	0.279	90.48	-0.2207	0.02	0.2407	1509.8117	0.207095	-351.12564	-351.117014	-351.11607	-351.159255	34.08	
C	-0.2695952665	 1.5476827197	 0.0445710235	-0.380473
C	-0.0371802393	 0.0344519206	 0.0366838355	-0.159513
C	 0.6009755563	-0.4841026547	 1.3335760653	-0.223926
C	 0.781846833	-1.9994398443	 1.3378198157	 0.066148
C	 1.9528974984	-2.6459167279	 0.4898360164	-0.078111
C	 2.8948686644	-2.2863152146	 1.6889734551	-0.215231
C	 1.6126403123	-2.6684957987	 2.5045747723	-0.093454
C	 1.4751386152	-4.1438125355	 2.1069560965	-0.088368
C	 1.6972422793	-4.1286974215	 0.788562606	-0.086851
H	 0.6726695452	 2.0932448314	 0.1681371832	 0.112908
H	-0.7297875751	 1.886790296	-0.8889033082	 0.110255
H	-0.9302739382	 1.842158725	 0.8677610342	 0.11295
H	-0.9918736431	-0.4824994117	-0.1274292571	 0.09502
H	 0.601423227	-0.2337182256	-0.8145902332	 0.097525
H	 1.5504680551	 0.0373883676	 1.4998213976	 0.09366
H	-0.0443782922	-0.2120716301	 2.1811883521	 0.091831
H	-0.1893412112	-2.4766262738	 1.1672990589	 0.061558
H	 2.1699114805	-2.3484457691	-0.5363322257	 0.055639
H	 3.7768514224	-2.9150623326	 1.8303816361	 0.090729
H	 3.1679745019	-1.229921291	 1.7474496761	 0.093367
H	 1.4762566842	-2.3893001633	 3.5499605783	 0.053778
H	 1.2409151658	-4.9676082959	 2.7661893851	 0.095462
H	 1.6944876246	-4.93679758	 0.0708537262	 0.095096
78.9696	84.2542	122.7159	240.6041	292.5208	308.6243	343.321	494.0136	539.7579	570.5507	688.0743	719.608	744.1921	809.2933	830.3258	842.4704	886.3418	902.9397	909.369	920.1445	933.3629	940.0941	984.7591	1029.181	1047.2517	1079.2315	1088.3224	1106.2248	1118.4031	1121.2409	1155.8192	1208.2868	1228.4998	1240.0109	1246.256	1248.279	1270.4289	1301.5259	1323.966	1334.0181	1380.5259	1401.3751	1412.4502	1480.0079	1492.1001	1499.2429	1504.6668	1512.5848	1620.648	3006.5286	3018.5506	3028.0944	3037.8422	3044.6784	3060.514	3070.3661	3094.9772	3099.8775	3108.2516	3112.4506	3123.6571	3217.0937	3244.4122
CCCC1C2CC1C=C2	CCC[C@H]1[C@H]2C[C@@H]1C=C2	
InChI=1S/C9H14/c1-2-3-9-7-4-5-8(9)6-7/h4-5,7-9H,2-3,6H2,1H3	InChI=1S/C9H14/c1-2-3-9-7-4-5-8(9)6-7/h4-5,7-9H,2-3,6H2,1H3/t7-,8+,9+
