18
gdb 61187	3.39734	0.84225	0.77157	3.5426	76.59	-0.2781	0.002	0.28	1468.4258	0.146862	-398.151592	-398.141523	-398.140579	-398.187004	35.644	
C	-0.0039231082	 1.616626075	 0.0857154666	-0.423648
C	-0.0182618689	 0.0888789005	-0.0171492642	 0.020561
C	-1.4556762971	-0.4817234002	 0.0343639219	-0.369837
C	-2.1373736529	-0.1760263236	 1.2891811376	 0.267609
N	-2.6634381189	 0.0710703982	 2.2878508513	-0.3016
C	 0.6930812002	-0.4408512287	-1.3041141113	-0.146722
N	 0.1568676376	-0.0289160641	-2.5990847026	-0.50406
C	 2.1209659907	-0.0820286869	-1.2472722511	 0.305795
N	 3.2338017558	 0.2180962588	-1.171320763	-0.317124
H	 1.0203637012	 1.9982105671	 0.0704406273	 0.152812
H	-0.5559015151	 2.0793328169	-0.7403649457	 0.114723
H	-0.4737283336	 1.9424897712	 1.0170243144	 0.154616
H	 0.5327867511	-0.3255981572	 0.8351379219	 0.12038
H	-2.0545788413	-0.0738855602	-0.7888208233	 0.146771
H	-1.4396529361	-1.5713815928	-0.0896081121	 0.15282
H	 0.6486238019	-1.5377876575	-1.2783140917	 0.135159
H	-0.7793588192	-0.3916293332	-2.7366334214	 0.243213
H	 0.1241353529	 0.9813624068	-2.6825675745	 0.248533
63.5354	74.945	112.2374	181.9113	205.4608	235.1224	264.6779	268.7766	335.8936	360.7064	397.8215	469.9535	511.2804	596.1143	656.0563	776.0701	825.7382	861.4652	892.9458	968.7312	970.0322	1021.0776	1101.5812	1130.953	1139.3612	1196.7015	1249.9249	1287.2509	1305.7409	1360.1099	1375.9144	1412.055	1419.9253	1469.7308	1500.3252	1503.2632	1652.0207	2363.5669	2363.7401	3026.8752	3032.4612	3037.8698	3047.1961	3074.9548	3109.4717	3130.1201	3515.508	3607.9381
CC(CC#N)C(N)C#N	C[C@@H](CC#N)[C@@H](N)C#N	
InChI=1S/C6H9N3/c1-5(2-3-7)6(9)4-8/h5-6H,2,9H2,1H3	InChI=1S/C6H9N3/c1-5(2-3-7)6(9)4-8/h5-6H,2,9H2,1H3/t5-,6-/m0/s1
