22
gdb 6084	3.88087	0.82815	0.79671	0.0117	88.31	-0.2397	0.0619	0.3016	1610.3883	0.197718	-313.063395	-313.05277	-313.051826	-313.100006	37.747	
C	 0.0711626722	 1.5203218319	 0.1324106174	-0.371678
C	-0.0531992752	-0.0089279065	-0.0178798744	-0.120168
C	-1.5301498148	-0.4511201418	-0.0250108334	-0.371777
C	 0.6448418688	-0.4808316562	-1.2153896205	 0.060317
C	 1.2112320537	-0.8564045453	-2.2112431057	 0.060338
C	 1.8839065679	-1.3285625308	-3.42308394	-0.12017
C	 2.1000649126	-2.854392804	-3.3810047459	-0.371678
C	 1.1090363417	-0.9089680503	-4.6881913678	-0.371777
H	 1.1196351145	 1.8276740903	 0.1673902351	 0.121285
H	-0.402483797	 2.0295283379	-0.7127585765	 0.121321
H	-0.4190589151	 1.8538702198	 1.0528998498	 0.108955
H	 0.4276975443	-0.4693765635	 0.8569637532	 0.100448
H	-2.0602508855	-0.0072609201	-0.8735440573	 0.121367
H	-1.6147085634	-1.5381012293	-0.105025161	 0.120974
H	-2.0284187654	-0.1316452048	 0.8961948982	 0.108946
H	 2.8743063406	-0.8533421748	-3.4666713948	 0.100448
H	 2.6405973956	-3.1874241382	-4.2730735093	 0.108955
H	 2.6756596246	-3.1454534757	-2.498418385	 0.121285
H	 1.1395641291	-3.3779995289	-3.346111222	 0.121321
H	 0.9803450621	 0.1758730176	-4.7286587906	 0.120974
H	 1.6458158125	-1.2280599916	-5.5876372123	 0.108946
H	 0.1155294161	-1.3681181857	-4.7004640972	 0.121367
18.4984	85.0232	89.685	187.8755	214.2102	229.2982	229.4411	264.1661	282.2889	311.9192	359.6972	459.8923	490.5422	553.5654	561.5662	664.696	832.421	897.7245	930.2851	930.3275	963.4119	964.1919	1020.4821	1110.7843	1121.8497	1121.9003	1148.3908	1185.1057	1219.1988	1326.8309	1327.3524	1347.641	1353.4814	1393.6985	1393.7844	1415.2235	1415.2833	1485.2901	1485.2917	1488.8352	1489.3294	1497.6009	1497.9275	1508.9938	1510.5547	2357.5012	3000.1725	3000.7238	3034.0383	3034.0918	3037.295	3038.1262	3104.441	3104.5163	3109.5758	3109.9345	3116.9368	3117.062	3119.0324	3119.0811
CC(C)C#CC(C)C	CC(C)C#CC(C)C	
InChI=1S/C8H14/c1-7(2)5-6-8(3)4/h7-8H,1-4H3	InChI=1S/C8H14/c1-7(2)5-6-8(3)4/h7-8H,1-4H3
