17
gdb 100395	2.8767	1.04288	0.91414	1.8672	65.73	-0.2569	-0.0523	0.2046	1286.656	0.132055	-496.106157	-496.096301	-496.095357	-496.141937	34.52	
O	 0.0829354485	 1.3817568848	-0.1784544885	-0.434581
C	 0.095550516	-0.0298466305	-0.0378636881	-0.118255
C	-1.3446431016	-0.5625258239	-0.0267662837	 0.230814
O	-2.0642999982	-0.0120103829	-1.1281089074	-0.461799
C	-1.4024975022	-2.0924202965	-0.1339675268	-0.321857
C	-2.8131830656	-2.6383673203	-0.2762275868	 0.14697
O	-3.3044174513	-3.4343947372	 0.4827482579	-0.240968
C	-2.0954787987	-0.0566530579	 1.2148966313	 0.143277
O	-1.6549362023	 0.7633036984	 1.9847451948	-0.269334
H	-0.2274213996	 1.7262214593	 0.670350591	 0.304039
H	 0.6191967051	-0.4293031154	-0.9117488584	 0.120145
H	 0.6293437008	-0.3488902666	 0.8662102255	 0.114317
H	-1.7027793725	 0.8824528965	-1.2353032138	 0.298872
H	-0.84935857	-2.3736670881	-1.0402379623	 0.133672
H	-0.9285083793	-2.5639465038	 0.7320803384	 0.129836
H	-3.3689202794	-2.2544136853	-1.155864077	 0.108926
H	-3.1295499297	-0.4464979405	 1.3208042938	 0.115925
40.4216	68.1998	103.7176	162.575	180.4293	238.0966	297.6675	324.4719	363.3793	367.6172	474.344	512.4506	537.9264	622.8734	662.1009	806.8662	847.5087	894.9493	964.8361	1010.0067	1026.2023	1063.756	1095.5311	1131.6064	1188.5018	1199.705	1285.6038	1307.4903	1374.6386	1389.7344	1422.8349	1424.5579	1439.0846	1449.5833	1488.8817	1810.0255	1826.7831	2922.8104	2930.8401	3025.2791	3029.4253	3092.1158	3102.9089	3698.0861	3758.875
OCC(O)(CC=O)C=O	OC[C@@](O)(CC=O)C=O	
InChI=1S/C5H8O4/c6-2-1-5(9,3-7)4-8/h2-3,8-9H,1,4H2	InChI=1S/C5H8O4/c6-2-1-5(9,3-7)4-8/h2-3,8-9H,1,4H2/t5-/m1/s1
