19
gdb 109046	2.75393	1.31016	0.98911	2.0633	76.5	-0.2311	0.0101	0.2412	1212.7476	0.159661	-423.011517	-423.002932	-423.001988	-423.044695	33.017	
O	 0.1725547123	 1.393644054	-0.069496207	-0.409214
C	 0.0192196076	-0.013512354	-0.1255434853	-0.154977
C	-1.4000116858	-0.47840224	-0.0086506162	 0.213803
C	-2.5071747252	 0.2689069413	 0.0193219573	-0.192625
C	-3.7449621602	-0.5699252551	 0.0529120602	-0.068082
C	-3.9532459027	-1.4199790045	-1.1852698147	-0.295145
C	-3.2558657385	-1.9998738107	 0.0271670996	-0.065908
C	-1.7273953571	-1.9686536826	 0.0636872948	 0.027472
O	-1.0761428688	-2.7416134637	-0.9401496355	-0.431219
H	-0.1609771129	 1.6842950461	 0.7857856606	 0.282731
H	 0.4362089927	-0.3286394764	-1.0895092967	 0.129075
H	 0.6324511413	-0.5197242565	 0.6409044199	 0.095398
H	-2.5270872449	 1.3509249614	-0.0430556991	 0.099877
H	-4.6055016822	-0.2622938504	 0.6359483867	 0.089569
H	-4.9515035065	-1.7928591279	-1.3899679959	 0.114831
H	-3.3811354609	-1.1578481418	-2.0705927257	 0.10635
H	-3.7705185679	-2.782540044	 0.570602542	 0.090143
H	-1.3585730965	-2.3978107064	 1.0049641676	 0.089592
H	-1.4982156039	-2.5294200985	-1.7805054924	 0.27833
88.1737	132.8741	173.3412	220.9478	260.9795	316.0237	335.7842	395.1862	445.814	536.1236	556.6314	687.4281	717.5718	792.6963	821.5894	836.4672	884.9928	934.9383	942.6497	988.1307	1011.692	1037.9565	1066.6946	1074.9812	1081.0636	1092.6285	1106.2593	1174.1248	1201.6448	1203.9355	1259.3592	1267.2903	1315.0102	1336.9619	1372.3925	1387.9491	1414.8958	1423.1958	1477.4119	1489.4794	1707.979	2951.2941	3018.9005	3053.3525	3117.8879	3172.3419	3185.4621	3198.1701	3208.1253	3795.6016	3810.6113
OCC1=CC2CC2C1O	OCC1=C[C@H]2C[C@H]2[C@H]1O	
InChI=1S/C7H10O2/c8-3-5-1-4-2-6(4)7(5)9/h1,4,6-9H,2-3H2	InChI=1S/C7H10O2/c8-3-5-1-4-2-6(4)7(5)9/h1,4,6-9H,2-3H2/t4-,6+,7-/m0/s1
