16
gdb 17457	3.44789	2.22592	1.72866	2.5677	63.69	-0.2384	0.0585	0.2969	783.1567	0.13015	-383.679043	-383.671838	-383.670894	-383.710035	28.255	
O	-0.0321930567	 1.3974877658	 0.0490194628	-0.441305
C	-0.0920442817	 0.0035475337	 0.0695927707	 0.123879
C	-0.4614274468	-0.8094070223	 1.2858901521	-0.099755
C	-1.5261837453	-0.1119656418	 2.0869189798	-0.139659
C	-2.8585543816	-0.8497219575	 2.0314734005	-0.356289
C	-2.4203866482	-0.0672107733	 0.8345369208	 0.395939
O	-3.1069247276	 1.0007011105	 0.2587873229	-0.474577
C	-1.3749766211	-0.7702512347	 0.0188020277	-0.181797
H	-0.9355252814	 1.7333421874	 0.0149775117	 0.297703
H	 0.7173623236	-0.427730733	-0.5160921784	 0.099074
H	 0.1325563047	-1.654714213	 1.6168540887	 0.088452
H	-1.3547473769	 0.6809007842	 2.8054093318	 0.096467
H	-2.9037797399	-1.9363186547	 2.0178892586	 0.111693
H	-3.6466442102	-0.3849527394	 2.6218432748	 0.102238
H	-3.837048029	 1.2571008213	 0.8307220852	 0.289823
H	-1.569430442	-1.5555137631	-0.7036261898	 0.088114
134.4169	190.8074	204.9651	313.9685	363.115	410.2869	422.9129	539.8463	623.7868	684.4445	750.338	768.744	835.4276	852.3499	900.9411	964.2629	976.767	984.0075	1003.2285	1041.8601	1070.5203	1087.4357	1096.9229	1100.8954	1145.8922	1189.6324	1240.5012	1275.3015	1327.201	1350.3619	1379.2521	1406.5651	1450.956	1492.8487	3094.2171	3135.6525	3163.6111	3172.649	3174.4822	3185.2815	3794.3374	3828.288
OC1C2C3CC3(O)C12	O[C@H]1[C@H]2[C@@H]3C[C@]3(O)[C@@H]12	
InChI=1S/C6H8O2/c7-5-3-2-1-6(2,8)4(3)5/h2-5,7-8H,1H2	InChI=1S/C6H8O2/c7-5-3-2-1-6(2,8)4(3)5/h2-5,7-8H,1H2/t2-,3-,4+,5-,6+/m0/s1
