18
gdb 13003	2.70953	2.41709	1.55141	1.3088	73.21	-0.2199	0.028	0.2479	876.6325	0.153605	-347.805852	-347.798146	-347.797202	-347.837205	30.206	
C	-0.0397715553	 1.503936059	 0.0235401579	-0.512424
C	-0.0161191047	 0.0104073128	-0.0347338583	 0.279674
C	 0.024026473	-0.7809704103	-1.1112653941	-0.182973
C	-0.0019119975	-2.2542737706	-0.7581861201	-0.272612
C	 0.0203708664	-2.2541974571	 0.7676914546	-0.082635
C	 1.217399088	-1.6387744167	 1.4689448166	-0.344053
C	-0.0260962884	-0.814345862	 1.2233147912	 0.312681
O	-0.8337235546	-0.412999192	 2.2903513092	-0.465675
H	 0.8494490151	 1.8993284154	 0.5330141581	 0.118431
H	-0.0830330751	 1.9473955648	-0.9744057565	 0.123664
H	-0.909177468	 1.8508281091	 0.5941680031	 0.135056
H	 0.0938892751	-0.4301643147	-2.1356244707	 0.08504
H	-0.9021258077	-2.7465630441	-1.1503034147	 0.107422
H	 0.8539018188	-2.7951661729	-1.1835226713	 0.10653
H	-0.5332626234	-3.0070568616	 1.3151147797	 0.093442
H	 1.3830351302	-1.9749765302	 2.4881838755	 0.106957
H	 2.1167603242	-1.4145986783	 0.9031466041	 0.108373
H	-0.3101245661	 0.1561040394	 2.8637899458	 0.283102
160.4462	180.8585	244.9501	255.7814	282.6546	300.813	408.8007	435.3425	550.525	614.0919	652.7438	727.3772	810.8705	830.9243	845.3056	907.5607	940.4678	963.2399	1010.0611	1022.682	1048.5899	1066.3481	1077.3128	1084.0244	1147.5073	1187.3744	1232.9825	1247.7469	1313.467	1333.319	1354.8013	1392.1952	1408.6488	1468.5949	1477.5238	1482.9492	1493.7026	1711.388	3012.3693	3015.1111	3038.2675	3067.6573	3114.4747	3115.4104	3185.21	3187.8077	3207.4487	3807.0001
CC1=CCC2CC12O	CC1=CC[C@H]2C[C@@]12O	
InChI=1S/C7H10O/c1-5-2-3-6-4-7(5,6)8/h2,6,8H,3-4H2,1H3	InChI=1S/C7H10O/c1-5-2-3-6-4-7(5,6)8/h2,6,8H,3-4H2,1H3/t6-,7+/m0/s1
