22
gdb 105267	2.05444	1.46276	1.09443	1.3857	82.4	-0.2399	0.0843	0.3242	1244.5502	0.1929	-404.294458	-404.284484	-404.28354	-404.329784	36.703	
C	-0.122109373	 1.2752830158	-0.5390852694	-0.255271
O	-0.0953543535	 0.0462137467	 0.1671639066	-0.277151
C	-1.3311044795	-0.6211567393	 0.2089001953	 0.384671
C	-1.7229415205	-1.415886298	-1.0151680079	-0.35333
C	-1.2171474443	-2.1248928909	 0.2273046108	-0.058159
C	 0.1288312649	-2.8151988801	 0.2231035739	-0.401985
C	-2.3994995606	 0.1060664776	 0.9902373382	-0.085642
C	-2.8946713566	-0.4074445128	 2.2953606891	-0.231534
N	-2.0185294255	 0.7697584563	 2.2503621088	-0.313812
H	 0.9047205728	 1.6476322195	-0.5628668992	 0.125218
H	-0.4785410011	 1.1388448244	-1.5697888634	 0.107186
H	-0.7578711448	 2.0175320663	-0.0393394821	 0.129609
H	-2.774596939	-1.4913064039	-1.2724948878	 0.110899
H	-1.0478680458	-1.3701763269	-1.863823469	 0.113898
H	-1.9838822229	-2.6297594241	 0.8082727574	 0.085971
H	 0.8673730917	-2.2247574033	-0.3224992174	 0.130012
H	 0.5051549138	-2.9570117004	 1.242095954	 0.114792
H	 0.055501714	-3.8019363287	-0.2466814279	 0.113621
H	-3.0866570421	 0.7007456806	 0.3904776894	 0.093418
H	-3.9179158455	-0.2060424372	 2.6011879758	 0.115692
H	-2.4881043315	-1.3460686631	 2.6607349765	 0.113256
H	-1.0628656009	 0.4971917715	 2.4719328283	 0.238639
35.6857	112.4432	142.4562	173.8677	193.0002	194.6981	229.8238	301.1206	335.4747	418.2658	452.9713	507.4434	585.1083	675.1292	797.5434	845.1995	868.7188	894.0648	912.7485	940.7199	966.181	1001.7833	1039.1749	1044.4071	1080.2302	1103.9536	1120.9134	1140.5893	1153.8023	1181.1862	1186.8892	1194.4616	1216.6129	1249.597	1277.8358	1284.7241	1314.2937	1389.8735	1405.5785	1426.4404	1473.3097	1481.4107	1488.9465	1494.8959	1502.5801	1508.9588	1510.76	2997.6755	3035.0242	3057.1232	3091.0254	3106.9228	3112.1462	3118.5264	3123.1143	3128.8381	3148.8591	3193.589	3212.46	3491.9667
COC1(CC1C)C1CN1	CO[C@]1(C[C@H]1C)[C@H]1CN1	
InChI=1S/C7H13NO/c1-5-3-7(5,9-2)6-4-8-6/h5-6,8H,3-4H2,1-2H3	InChI=1S/C7H13NO/c1-5-3-7(5,9-2)6-4-8-6/h5-6,8H,3-4H2,1-2H3/t5-,6-,7+/m1/s1
