17
gdb 31257	1.99378	1.67623	0.95185	1.3252	72.88	-0.1912	0.0046	0.1958	1209.9882	0.136863	-455.161378	-455.152466	-455.151521	-455.195643	31.672	
C	-0.2568762911	 1.3561468616	-0.1516772318	-0.323017
N	 0.1228295326	-0.0347222133	 0.0477296344	-0.390192
C	 0.6796672404	-0.7375280246	-1.0005396157	 0.258576
C	 0.7307595006	-2.0925376661	-1.1844514143	 0.182968
C	 0.1844342365	-3.2404595109	-0.4142577526	-0.191271
O	-1.131531304	-2.9617630287	 0.0737656078	-0.410785
O	 1.4408098677	-2.3131558186	-2.3523079174	-0.177362
C	 1.764970776	-1.0858770665	-2.7858479356	 0.063618
N	 1.3454652783	-0.1094717642	-2.0439135101	-0.314618
H	 0.6042142518	 1.9176505123	-0.5178629761	 0.154807
H	-1.0776925824	 1.4912652233	-0.8729598221	 0.107849
H	-0.5636857886	 1.7763902226	 0.8092627992	 0.120404
H	-0.5526841557	-0.5917647789	 0.5532078415	 0.243978
H	 0.2127751839	-4.1463933728	-1.0365556869	 0.115435
H	 0.7691245198	-3.4496816783	 0.4900527604	 0.128266
H	-1.6805701807	-2.76708078	-0.6943606206	 0.284004
H	 2.3349615648	-1.0234828468	-3.69967883	 0.147339
65.9465	106.7044	141.3119	145.3925	195.5728	254.5129	328.0719	377.7363	437.8255	488.1583	625.6303	635.2532	700.8098	745.5551	798.221	824.7191	947.981	962.5537	1030.9396	1059.0923	1103.921	1150.4922	1156.8695	1181.9639	1209.1737	1247.0315	1323.6513	1365.1818	1406.4918	1440.9221	1465.7947	1481.1661	1492.4996	1500.8005	1521.1556	1550.335	1684.4298	2984.3484	3004.579	3045.9143	3091.2166	3140.6901	3272.8301	3585.2563	3797.3945
CNC1=C(CO)OC=N1	CNc1c(CO)ocn1	
InChI=1S/C5H8N2O2/c1-6-5-4(2-8)9-3-7-5/h3,6,8H,2H2,1H3	InChI=1S/C5H8N2O2/c1-6-5-4(2-8)9-3-7-5/h3,6,8H,2H2,1H3
