19
gdb 118304	5.87282	0.61709	0.57914	6.1416	70.89	-0.2684	0.0166	0.285	1874.1047	0.156216	-497.302998	-497.29253	-497.291586	-497.339711	35.575	
C	 0.1089549396	 1.0716609868	-0.3583666892	-0.232512
O	 0.0115336212	-0.2811774899	 0.0298895477	-0.248392
C	 0.6263226327	-0.5588233635	 1.2710898622	-0.083011
C	 0.552149568	-2.0729851895	 1.4522789599	 0.10916
O	 1.1612021215	-2.7267655919	 0.3545446566	-0.440499
C	 1.2760296748	-2.5355167498	 2.7081448396	-0.096716
O	 1.0180234988	-3.9152616564	 2.9688355947	-0.184814
C	 1.8406167674	-4.8217437453	 2.3939974367	 0.178885
O	 1.6637259687	-5.9969988545	 2.5020693078	-0.278316
H	 1.1577043553	 1.3896985209	-0.4589094969	 0.113058
H	-0.3873233993	 1.1685349661	-1.3264814097	 0.135696
H	-0.3871883851	 1.7358841142	 0.3648754152	 0.113354
H	 1.6786329767	-0.228832875	 1.2609468933	 0.094386
H	 0.1094381265	-0.0366630935	 2.0926638007	 0.094685
H	-0.5076186342	-2.3611828908	 1.5363790465	 0.094345
H	 0.7900338347	-2.3220199437	-0.4389120455	 0.296734
H	 2.3537481908	-2.3606473115	 2.597642162	 0.118999
H	 0.9181318846	-1.9904598529	 3.5852934595	 0.124053
H	 2.6768125473	-4.3555010398	 1.844249479	 0.090905
49.2159	66.1683	100.5582	108.9525	154.43	171.3132	231.4119	284.1546	315.6364	371.0289	381.994	416.4787	475.5921	576.0407	678.1659	890.5973	931.8234	972.7005	1031.1384	1051.5728	1060.4455	1111.1439	1139.7688	1165.9738	1171.329	1189.3821	1224.9688	1258.1465	1270.723	1320.7774	1342.83	1401.8351	1414.3965	1430.5351	1454.9831	1479.6474	1486.704	1490.6597	1499.392	1521.4794	1868.0178	2959.4289	2983.0395	2984.4097	2990.0052	3004.8894	3032.0364	3033.6083	3107.1836	3122.561	3791.4761
COCC(O)COC=O	COC[C@@H](O)COC=O	
InChI=1S/C5H10O4/c1-8-2-5(7)3-9-4-6/h4-5,7H,2-3H2,1H3	InChI=1S/C5H10O4/c1-8-2-5(7)3-9-4-6/h4-5,7H,2-3H2,1H3/t5-/m1/s1
