19
gdb 55817	3.84007	0.92365	0.85722	2.3396	75.64	-0.238	-0.0087	0.2293	1403.669	0.157351	-422.998842	-422.989863	-422.988918	-423.034011	32.493	
C	-0.0939835303	 1.4632582422	-0.1897963295	-0.473966
C	 0.0493433339	-0.041673468	-0.0506592581	 0.386001
O	 1.1309136125	-0.5831611643	-0.0522977125	-0.293221
C	-1.2539288312	-0.8231267538	 0.103145435	-0.350361
C	-1.0614122869	-2.3166499449	-0.0031638716	-0.011772
C	-2.1697601186	-3.3460518942	 0.1266301364	-0.178495
C	-3.4269741243	-2.8572452226	-0.5850055576	-0.090421
O	-2.6755574021	-2.5471512505	-1.7908409509	-0.284912
C	-1.4909390606	-3.1011467855	-1.2049036556	 0.083683
H	 0.8872224514	 1.9372149932	-0.1453195278	 0.141803
H	-0.5674291053	 1.6991227012	-1.1501142215	 0.145737
H	-0.7441917717	 1.8698125307	 0.5923180405	 0.133697
H	-1.6818307432	-0.5378294151	 1.0760091533	 0.121802
H	-1.968917195	-0.4743588787	-0.6511810494	 0.136043
H	-0.1194860403	-2.6684953885	 0.4080806722	 0.11311
H	-2.115364962	-4.1887234358	 0.8026165912	 0.099273
H	-4.1494926394	-3.6559579965	-0.7852580656	 0.112055
H	-3.9486193089	-1.9822105903	-0.1787713689	 0.102511
H	-0.851799978	-3.7054071887	-1.8380679094	 0.107435
39.1516	56.411	114.5599	136.292	218.802	264.9839	359.3561	428.2759	477.9354	576.0136	605.1233	748.2789	777.129	804.4421	841.5861	852.0615	918.3771	955.2179	967.9886	977.2437	1007.8989	1041.4896	1057.4429	1066.6872	1082.9044	1121.6179	1164.8203	1174.1456	1185.3812	1237.4291	1259.4024	1305.4229	1327.1083	1368.0295	1384.4935	1442.811	1450.4588	1464.7188	1477.3536	1517.4241	1813.0111	3005.0859	3023.587	3036.5156	3063.8875	3072.3853	3097.573	3151.9399	3163.3162	3181.7733	3203.7489
CC(=O)CC1C2COC12	CC(=O)C[C@H]1[C@H]2CO[C@@H]12	
InChI=1S/C7H10O2/c1-4(8)2-5-6-3-9-7(5)6/h5-7H,2-3H2,1H3	InChI=1S/C7H10O2/c1-4(8)2-5-6-3-9-7(5)6/h5-7H,2-3H2,1H3/t5-,6+,7-/m0/s1
