17
gdb 62854	2.78876	1.57012	1.36963	2.8642	67.88	-0.2323	-0.0221	0.2102	986.2575	0.134593	-458.947477	-458.939523	-458.938579	-458.979494	31.293	
C	-0.156712624	 1.6007819272	 0.0743892093	-0.491335
C	 0.0027586953	 0.0894445434	 0.0213639461	 0.428064
O	-1.2470747512	-0.554958826	 0.0549958805	-0.469415
C	 0.8728574383	-0.6226049278	-1.0547661102	 0.036084
C	 2.2345006916	 0.0896174855	-1.0300703373	-0.353854
C	 2.3688717635	 0.11517046	 0.5144590439	 0.436563
O	 3.2235582801	 0.597256982	 1.2033295256	-0.326853
C	 1.08721852	-0.6356454682	 0.9033994127	-0.108812
O	 1.1190743438	-1.7008289907	-0.0942854599	-0.295217
H	 0.7953373737	 2.135960878	 0.061375324	 0.139201
H	-0.7655659256	 1.9417761978	-0.7681719064	 0.137012
H	-0.6733166747	 1.8870646372	 0.9985799777	 0.121129
H	-1.7311863841	-0.2369623768	 0.8246594688	 0.282961
H	 0.4449627617	-0.9542341917	-1.9999644099	 0.09832
H	 3.0079552889	-0.5301820755	-1.4899393465	 0.143535
H	 2.2759502771	 1.0911025265	-1.4650924827	 0.126804
H	 0.9368231854	-0.952530051	 1.9338291644	 0.095814
122.5223	202.9583	215.3437	266.8649	279.405	375.3316	399.8319	434.0751	468.8536	554.0535	610.1186	635.5571	668.9077	767.9724	844.4056	855.5838	929.7841	944.8664	961.8133	973.3887	985.5388	1076.8166	1107.9443	1126.8353	1143.7471	1183.0224	1205.9654	1222.4614	1251.5716	1285.4941	1297.6038	1386.5326	1417.3986	1453.0076	1493.8007	1496.0142	1876.9731	3034.3268	3074.9903	3099.2754	3125.0616	3132.681	3134.6498	3148.9529	3807.2516
CC1(O)C2CC(=O)C1O2	C[C@@]1(O)[C@H]2CC(=O)[C@@H]1O2	
InChI=1S/C6H8O3/c1-6(8)4-2-3(7)5(6)9-4/h4-5,8H,2H2,1H3	InChI=1S/C6H8O3/c1-6(8)4-2-3(7)5(6)9-4/h4-5,8H,2H2,1H3/t4-,5+,6-/m1/s1
