19
gdb 64393	2.26283	1.56118	1.16782	1.0414	76.69	-0.2461	0.0276	0.2737	1120.3146	0.157196	-422.994245	-422.984844	-422.9839	-423.028557	35.329	
C	 0.3037753313	 1.5169730101	-0.3443645446	-0.441654
C	-0.0319300877	 0.06580366	-0.003532758	 0.368024
O	-1.4129223382	-0.0980593517	 0.2676584162	-0.4758
C	 0.37467422	-0.908980135	-1.1268201898	-0.284523
C	 1.7914656772	-1.3849870445	-0.7295284976	-0.077034
O	 2.0972235374	-0.7898020764	 0.5376986786	-0.26117
C	 0.8561874912	-0.4886141567	 1.1571472762	-0.084196
C	 1.0388803965	 0.4046565413	 2.2903883683	 0.285812
C	 1.1244809343	 1.1443623312	 3.2338925679	-0.427737
H	 1.3726364365	 1.6303249112	-0.5465065089	 0.133678
H	-0.2602310221	 1.8294431058	-1.2275951042	 0.119949
H	 0.0528685201	 2.1825448898	 0.4878666043	 0.119201
H	-1.6600052437	 0.553151767	 0.9340000355	 0.281883
H	-0.3385057065	-1.7363304708	-1.1378623726	 0.121618
H	 0.351862062	-0.4313011209	-2.1085185486	 0.110197
H	 1.8349080677	-2.4797896503	-0.6485585311	 0.101681
H	 2.5674294469	-1.0664090628	-1.4309174049	 0.112596
H	 0.3611965705	-1.4097241264	 1.5117206956	 0.098056
H	 1.2221986965	 1.791204499	 4.0707468176	 0.199418
44.2394	108.0431	138.8911	219.5272	256.9811	291.4848	324.6654	340.5315	383.79	431.1455	505.8837	555.2678	605.8209	618.6486	675.5354	686.7009	777.017	813.7658	931.8707	960.6442	972.3636	998.8801	1014.8349	1041.0089	1106.3638	1115.9601	1175.9297	1189.0416	1238.3547	1257.4331	1293.7689	1325.4335	1354.4099	1377.4473	1403.4683	1409.8149	1484.9603	1496.507	1499.4525	1527.1603	2238.2	2949.6264	3007.4701	3039.4998	3073.7727	3081.4872	3110.5625	3123.0312	3123.5659	3501.9016	3798.9123
CC1(O)CCOC1C#C	C[C@@]1(O)CCO[C@H]1C#C	
InChI=1S/C7H10O2/c1-3-6-7(2,8)4-5-9-6/h1,6,8H,4-5H2,2H3	InChI=1S/C7H10O2/c1-3-6-7(2,8)4-5-9-6/h1,6,8H,4-5H2,2H3/t6-,7+/m0/s1
