19
gdb 126302	3.83168	0.87186	0.78203	3.4886	79.31	-0.2356	0.0209	0.2565	1514.6861	0.160305	-419.233106	-419.223694	-419.22275	-419.269011	33.591	
C	-0.1818836575	 1.5212149862	-0.0257316937	-0.367411
C	-0.0428862988	-0.0114616363	 0.0199680132	-0.302623
C	 0.8334496116	-0.4987862411	 1.1319723284	 0.394439
C	 2.1344905124	-0.9592172348	 1.1508384515	-0.379952
C	 2.4151086838	-1.2411350169	 2.5101843703	 0.303428
C	 3.6895331314	-1.7631666435	 3.1016530874	-0.15944
O	 4.8305525516	-1.0126196984	 2.6980667759	-0.416804
N	 1.3686115796	-0.9664746114	 3.2867350987	-0.290378
N	 0.4249530326	-0.5248769658	 2.4302511789	-0.254915
H	 0.7951335822	 1.9959050977	-0.1542938481	 0.1299
H	-0.8247850511	 1.827294841	-0.856498331	 0.118622
H	-0.6197674138	 1.9093007591	 0.8995003975	 0.115795
H	-1.0383877482	-0.4658167987	 0.1066408681	 0.110094
H	 0.3747096994	-0.3699168118	-0.9256471042	 0.123022
H	 2.7918880765	-1.079315165	 0.3047209574	 0.107036
H	 3.5802804836	-1.7982561776	 4.194626141	 0.105062
H	 3.8863013618	-2.7841097289	 2.7558608318	 0.11512
H	 4.6642559447	-0.0946075485	 2.9365019135	 0.281134
H	-0.4751504518	-0.2604035152	 2.7941798236	 0.267872
30.6417	40.8065	108.7117	171.6724	211.7419	264.9278	320.7705	349.8254	417.2078	458.9453	527.3445	598.0125	700.8177	719.605	768.7208	786.7115	821.0228	961.3787	973.785	1001.0071	1044.5194	1057.1887	1066.6837	1084.748	1163.1504	1181.2209	1205.0798	1262.0168	1320.5981	1349.5807	1361.8602	1410.9588	1419.3423	1441.0953	1477.0607	1484.6853	1494.9241	1497.4479	1500.4139	1507.4628	1610.1579	3010.8013	3026.2416	3038.7149	3065.4296	3081.2197	3110.4059	3117.8645	3264.1915	3665.8017	3811.1152
CCC1=CC(CO)=NN1	CCc1cc(CO)n[nH]1	
InChI=1S/C6H10N2O/c1-2-5-3-6(4-9)8-7-5/h3,9H,2,4H2,1H3,(H,7,8)	InChI=1S/C6H10N2O/c1-2-5-3-6(4-9)8-7-5/h3,9H,2,4H2,1H3,(H,7,8)
