16
gdb 17698	5.17264	1.98795	1.96504	1.9923	66.58	-0.2413	0.0835	0.3248	746.537	0.131462	-346.52247	-346.516537	-346.515592	-346.552133	24.443	
C	 0.0623939861	 1.5507706673	 0.0314597829	-0.52419
C	-0.0252929922	 0.0608025195	-0.0067031805	 0.342294
C	 0.8965794581	-0.9966916692	-0.5756152801	-0.151566
C	 0.5193369352	-1.0125268233	 0.9115332748	-0.151563
C	-0.747353084	-1.9040500488	 0.8011536484	 0.081425
O	-0.4710208452	-2.9550821653	-0.1518460868	-0.29386
C	-0.2650328491	-1.8838426635	-1.1001362224	 0.08142
C	-1.2100825347	-0.9158347438	-0.3176587036	-0.165315
H	 1.0759233137	 1.875535606	 0.2908532641	 0.123419
H	-0.1882428694	 1.9923873871	-0.940143258	 0.121436
H	-0.6216583824	 1.9739795497	 0.7763246784	 0.121437
H	 1.9185538459	-0.9125323108	-0.9201659603	 0.089107
H	 1.2531164192	-0.9404793321	 1.7031169322	 0.08911
H	-1.3000841699	-2.2271775105	 1.6815905178	 0.079835
H	-0.3296545198	-2.1865191423	-2.1438331436	 0.079835
H	-2.2408432915	-0.6862510501	-0.5767047435	 0.077177
208.208	228.5002	260.0765	548.481	576.7044	577.0323	754.7559	764.2983	800.31	813.7303	836.1779	861.1878	863.1737	883.8647	914.3583	925.5239	953.6421	1022.9386	1025.3435	1051.7465	1081.7114	1124.8102	1153.3881	1164.3867	1172.1047	1207.4472	1213.7291	1266.8509	1268.0453	1310.0044	1411.7088	1457.2406	1485.3724	1496.4079	3020.4592	3079.2162	3091.3137	3134.4055	3135.0825	3151.6879	3200.194	3209.7326
CC12C3C1C1OC3C21	C[C@@]12[C@H]3[C@@H]1[C@@H]1O[C@H]3[C@H]21	
InChI=1S/C7H8O/c1-7-2-3(7)6-4(7)5(2)8-6/h2-6H,1H3	InChI=1S/C7H8O/c1-7-2-3(7)6-4(7)5(2)8-6/h2-6H,1H3/t2-,3+,4-,5+,6-,7+
