16
gdb 10491	3.38945	1.46693	1.20201	1.7079	65.77	-0.2589	0.0426	0.3015	1016.1947	0.128165	-383.678718	-383.670313	-383.669369	-383.711748	30.891	
O	 0.7670453395	-1.5942877179	-0.2947307832	-0.417639
C	-0.1467044401	-0.7002710446	-0.8893472757	-0.135648
C	-1.4640506736	-0.6473698841	-0.125808599	 0.373729
C	-2.4798808484	 0.3932876248	-0.5846717527	-0.429721
C	-1.9692332081	 1.7609220071	-0.574044441	 0.310476
C	-1.5474901277	 2.8859417978	-0.5653731896	-0.444807
C	-1.9298157725	-1.8421770265	 0.5856542317	-0.228544
O	-1.2954183763	-0.7602987894	 1.2936920256	-0.278001
H	 0.7653735837	-1.378848203	 0.6472828623	 0.292816
H	 0.2619414738	 0.3194779253	-0.9514640556	 0.112808
H	-0.3259472513	-1.0481758617	-1.9132372477	 0.114077
H	-2.8147013935	 0.1338350952	-1.598364765	 0.137924
H	-3.3607852377	 0.3246531082	 0.0632147776	 0.142463
H	-1.178607095	 3.8817677959	-0.5542316602	 0.201396
H	-2.9905727713	-1.9676583176	 0.7961687295	 0.11554
H	-1.3427907816	-2.7544955594	 0.5234578928	 0.133129
62.4345	108.4414	160.2606	249.8439	328.6714	332.2314	352.6081	372.7106	459.7481	488.1879	617.2342	624.6498	651.2674	724.4871	832.0934	880.9305	914.5661	963.5347	986.2593	1059.7918	1101.7758	1128.8212	1169.2026	1188.6542	1237.7966	1268.0897	1319.9873	1374.4711	1424.0603	1438.8134	1453.2292	1506.3941	1519.498	2240.7634	2998.7552	3019.7768	3065.1931	3067.9365	3097.0777	3194.5214	3504.4976	3768.4456
OCC1(CC#C)CO1	OC[C@@]1(CC#C)CO1	
InChI=1S/C6H8O2/c1-2-3-6(4-7)5-8-6/h1,7H,3-5H2	InChI=1S/C6H8O2/c1-2-3-6(4-7)5-8-6/h1,7H,3-5H2/t6-/m0/s1
