17
gdb 48271	2.24811	1.12025	0.82294	3.6202	74.22	-0.2523	-0.0528	0.1996	1382.0921	0.134179	-417.988091	-417.978851	-417.977907	-418.023545	31.961	
O	-0.611407585	 0.850060696	-0.7171343699	-0.226583
C	 0.1638019866	 1.0696026899	 0.1715842419	 0.158109
C	 1.3369667265	 2.0577805833	 0.0432260058	-0.251751
C	 1.2068775791	 2.974589124	-1.1863613255	-0.15194
N	 2.429375082	 3.7370880756	-1.3707314597	-0.063222
C	 3.4413055957	 3.1396086006	-2.241747908	-0.227981
C	 2.6345086016	 4.3050642943	-2.6975302035	-0.218752
C	 1.4925547079	 2.7924395602	 1.2988039101	 0.281008
N	 1.565724322	 3.3387471666	 2.3142486949	-0.309581
H	 0.1014024985	 0.5553693498	 1.152655776	 0.119375
H	 2.236018834	 1.4324132734	-0.0786002635	 0.156506
H	 0.9480729547	 2.341744397	-2.0494500339	 0.114318
H	 0.3768769607	 3.670840193	-1.030959127	 0.132553
H	 4.471726931	 3.2696566507	-1.9257184678	 0.128129
H	 3.2185873245	 2.1759745772	-2.6987164566	 0.113126
H	 1.8768064153	 4.116255252	-3.4563730801	 0.117828
H	 3.0653699751	 5.3013709265	-2.7197452832	 0.128859
52.4854	73.7248	85.0514	139.0829	167.2866	253.3977	279.372	363.0878	420.0893	516.2382	572.7051	622.5458	766.2565	803.9203	837.5493	891.3288	910.1123	1023.3613	1037.0043	1048.4281	1076.2291	1111.8688	1119.2617	1124.3102	1174.5137	1187.7267	1244.2698	1257.4145	1323.8639	1330.1536	1384.7672	1420.4249	1487.2219	1496.9299	1521.6247	1839.0804	2360.9862	2927.6566	2988.3176	2997.8736	3083.6099	3093.6318	3101.0909	3184.1283	3197.8344
O=CC(CN1CC1)C#N	O=C[C@@H](CN1CC1)C#N	
InChI=1S/C6H8N2O/c7-3-6(5-9)4-8-1-2-8/h5-6H,1-2,4H2	InChI=1S/C6H8N2O/c7-3-6(5-9)4-8-1-2-8/h5-6H,1-2,4H2/t6-/m1/s1
