20
gdb 117408	6.12404	0.54165	0.50531	3.994	81.2	-0.2632	-0.0279	0.2352	2141.4841	0.16825	-403.197319	-403.186598	-403.185654	-403.235278	36.416	
C	-0.079888097	 1.6072888819	 0.0116282431	-0.387903
C	 0.0162713307	 0.0799330271	 0.0025412314	-0.161578
C	-1.356036418	-0.5944423821	 0.0117569692	-0.281822
C	-1.2999617796	-2.1134956617	 0.0030500798	 0.364103
O	-0.2578340848	-2.728706336	-0.0101438735	-0.294427
C	-2.643783352	-2.838221725	 0.0119056427	-0.299619
C	-2.4694809283	-4.3648132063	 0.0019852851	-0.337231
C	-3.7515092509	-5.0636337274	 0.0104113608	 0.25356
N	-4.7744263228	-5.6012671406	 0.0172409152	-0.304709
H	 0.9142529153	 2.0638249269	 0.0047904077	 0.11958
H	-0.6221605461	 1.9790742549	-0.8650610705	 0.115069
H	-0.6056537496	 1.969600198	 0.9022284943	 0.115068
H	 0.5734699397	-0.2593621812	-0.8770788896	 0.11471
H	 0.5897862991	-0.2687128849	 0.8679038981	 0.114704
H	-1.9411005087	-0.2834980012	 0.8896721237	 0.123233
H	-1.9573774727	-0.2741457335	-0.8516810522	 0.12324
H	-3.214952598	-2.5188111322	 0.8919547046	 0.144592
H	-3.2315495582	-2.5093627131	-0.8536149385	 0.144589
H	-1.8965290989	-4.6702435777	-0.8787206315	 0.16742
H	-1.8798848192	-4.6796928958	 0.8682626002	 0.167422
31.321	53.8506	66.6362	85.7767	105.1992	179.7004	243.3008	252.6303	325.0783	381.2087	390.5204	472.3537	540.2092	681.7637	700.0598	764.5237	858.3952	862.121	905.2808	955.4447	985.4269	1019.9979	1051.2264	1083.9327	1107.8708	1141.3026	1187.1897	1253.3846	1285.8577	1304.1468	1325.3387	1328.5445	1381.1299	1397.1175	1416.6973	1445.2651	1456.0681	1464.0877	1487.5484	1500.8611	1508.1119	1804.1645	2363.2919	3007.8064	3029.8483	3033.0069	3041.8827	3050.9093	3068.9383	3073.4738	3077.1705	3101.7567	3106.6779	3107.6606
CCCC(=O)CCC#N	CCCC(=O)CCC#N	
InChI=1S/C7H11NO/c1-2-4-7(9)5-3-6-8/h2-5H2,1H3	InChI=1S/C7H11NO/c1-2-4-7(9)5-3-6-8/h2-5H2,1H3
