19
gdb 77630	2.10719	1.40685	1.28345	1.3908	84.76	-0.2115	0.041	0.2524	1144.5796	0.156683	-385.831416	-385.821964	-385.821019	-385.865042	35.999	
C	-0.0325375704	 1.5326943867	 0.0155462329	-0.422613
C	 0.1468251992	 0.0283776853	 0.0380411728	-0.144133
C	 1.4064792562	-0.7232462207	-0.2192424714	 0.361068
O	 1.5749146161	-1.6845324574	-1.1900474654	-0.450076
C	 2.6381353794	-0.0450196066	 0.3622229065	-0.277779
C	 1.9745441903	-0.0449210432	 1.7750245702	-0.294379
C	 0.7428890065	-0.7715191957	 1.2081667942	 0.101978
C	 0.0158464152	-1.7991165741	 1.8617901175	 0.165736
C	-0.5862530339	-2.6875672996	 2.4106885741	-0.407543
H	 0.8383323472	 2.0598149535	 0.4131763934	 0.124886
H	-0.1914436226	 1.8864031652	-1.009101129	 0.120695
H	-0.9022426846	 1.8291078031	 0.6112507546	 0.125819
H	-0.7157430519	-0.5092182295	-0.358771593	 0.0877
H	 0.7228708381	-1.8829730244	-1.5912947031	 0.290038
H	 3.5032781971	-0.7094439482	 0.3210531954	 0.120064
H	 2.91477988	 0.9203593275	-0.0735947064	 0.099928
H	 2.5184208708	-0.661021361	 2.4922328072	 0.118242
H	 1.7853749335	 0.933320783	 2.2269079772	 0.099947
H	-1.1182167562	-3.4656599541	 2.8984709923	 0.180421
105.096	137.6574	172.6584	194.8159	227.1551	234.0171	260.2	352.0742	405.9829	485.6216	514.6139	527.2273	558.3515	634.6281	642.3147	689.6146	711.5877	754.6516	808.6457	946.6945	962.2097	977.2487	1037.6358	1090.7209	1094.7811	1117.8557	1126.2223	1183.215	1209.5308	1236.781	1248.1268	1296.5738	1324.6134	1400.507	1417.3921	1460.4453	1474.8527	1497.0695	1502.6803	1512.4249	2219.9932	3034.8813	3049.4663	3057.9796	3094.7136	3097.9714	3110.4986	3119.7623	3128.015	3504.3938	3823.7821
CC1C2(O)CCC12C#C	C[C@H]1[C@@]2(O)CC[C@@]12C#C	
InChI=1S/C8H10O/c1-3-7-4-5-8(7,9)6(7)2/h1,6,9H,4-5H2,2H3	InChI=1S/C8H10O/c1-3-7-4-5-8(7,9)6(7)2/h1,6,9H,4-5H2,2H3/t6-,7+,8+/m1/s1
