20
gdb 43674	5.66338	0.72562	0.7003	3.6436	81.02	-0.238	-0.0162	0.2218	1625.2147	0.169686	-403.122449	-403.11353	-403.112586	-403.157618	32.924	
O	 0.1330278606	 0.0769805447	 0.1767147907	-0.288697
C	 0.0246992247	 1.248415862	-0.0406517716	 0.403915
C	-1.1623407078	 2.2290724491	-0.0060606044	-0.374049
C	-0.2344931728	 3.2973993349	-0.6674229733	 0.022465
C	-0.1315334523	 4.6333990613	 0.0529918447	-0.161996
N	 0.9287967246	 5.4535361481	-0.5198320074	-0.059065
C	 0.5432632357	 6.3391270726	-1.6148153418	-0.220403
C	 0.8514931248	 6.8867102224	-0.2648758476	-0.219967
C	 0.9898244076	 2.3384372963	-0.5294343999	-0.343221
H	-2.0502152653	 1.9115491561	-0.5590954081	 0.128575
H	-1.465757252	 2.476000493	 1.0181323224	 0.127155
H	-0.4960551815	 3.4631331346	-1.716238757	 0.08103
H	-1.1127132475	 5.1447392367	 0.0299640851	 0.081138
H	 0.1134184999	 4.4617377553	 1.1099567278	 0.099362
H	 1.2588339678	 6.4316143688	-2.4265815528	 0.119296
H	-0.5012902639	 6.3441113894	-1.9240990975	 0.109218
H	 0.0125658292	 7.256089637	 0.3233694977	 0.109745
H	 1.7970861374	 7.3852064644	-0.0721236483	 0.11944
H	 1.7047739229	 2.6492224724	 0.2400286578	 0.136283
H	 1.5517792879	 2.0962813108	-1.4349347165	 0.129775
28.9999	69.5557	95.8708	148.13	280.5617	327.8287	401.1185	425.3468	434.8074	490.1905	647.4746	673.6702	769.6189	780.3238	836.5358	891.9322	910.2351	916.8225	950.8868	1010.1741	1026.2393	1038.6283	1070.1901	1106.1355	1113.3904	1117.9353	1130.2354	1164.6955	1181.4309	1192.3002	1215.8548	1237.6304	1258.289	1294.1468	1323.7787	1349.2875	1402.9223	1426.1611	1445.5876	1486.8767	1496.1867	1522.0769	1893.2182	2922.3985	3027.1902	3045.329	3058.399	3068.6591	3091.6646	3096.6357	3108.1564	3113.9815	3176.8012	3190.9929
O=C1CC(CN2CC2)C1	O=C1CC(CN2CC2)C1	
InChI=1S/C7H11NO/c9-7-3-6(4-7)5-8-1-2-8/h6H,1-5H2	InChI=1S/C7H11NO/c9-7-3-6(4-7)5-8-1-2-8/h6H,1-5H2
