13
gdb 19349	4.44475	1.8329	1.53741	3.1593	59.98	-0.2437	-0.0382	0.2054	795.4051	0.094153	-398.498517	-398.492156	-398.491212	-398.529086	24.163	
O	-0.1565541611	 0.0332375256	 0.0949566514	-0.272535
C	-0.0074639257	 1.2301809575	 0.0020656058	 0.054139
C	 1.2884171238	 1.8990878784	 0.0093608083	 0.21542
N	 1.480622502	 3.3311939331	 0.3579668277	-0.332527
C	 1.7514000249	 2.9234906764	-1.0076384016	-0.150852
C	 3.1423977849	 2.1931200562	-1.056734303	 0.031951
O	 3.6967831782	 2.1692989691	 0.2533109706	-0.208749
C	 2.6921198534	 1.2126569414	-0.0701231907	-0.026468
H	-0.874504661	 1.9227208427	-0.1174052135	 0.063958
H	 0.5588019153	 3.770717853	 0.3837933456	 0.244816
H	 1.201325093	 3.3032190974	-1.8592403353	 0.122177
H	 3.8041578312	 2.1171271807	-1.909786849	 0.123465
H	 2.8942684511	 0.1584392484	 0.0596456837	 0.135203
125.9386	170.8053	263.2415	405.6547	437.246	496.7463	636.3437	690.2464	761.563	766.8933	827.0862	862.4439	869.493	920.5646	957.1126	992.9605	1017.3596	1039.0435	1068.6196	1108.4075	1193.6019	1204.9354	1262.7285	1334.3765	1361.448	1392.5458	1432.7829	1789.5298	2847.0085	3199.5546	3207.5031	3225.1878	3459.4057
O=CC12NC1C1OC21	O=C[C@]12N[C@H]1[C@H]1O[C@@H]21	
InChI=1S/C5H5NO2/c7-1-5-3(6-5)2-4(5)8-2/h1-4,6H	InChI=1S/C5H5NO2/c7-1-5-3(6-5)2-4(5)8-2/h1-4,6H/t2-,3+,4-,5+/m1/s1
