21
gdb 112772	2.254	1.23783	0.90019	4.2698	84.33	-0.2359	0.0164	0.2523	1372.8688	0.181855	-383.269007	-383.259218	-383.258274	-383.303871	35.583	
C	-0.1364755116	 1.5203547775	 0.0375646122	-0.387012
C	 0.0314267245	 0.0080404744	-0.0825195184	-0.129247
N	 0.7859054112	-0.534094921	 1.0329845094	-0.060544
C	 2.2339759364	-0.263020516	 1.144952177	-0.181183
C	 2.4376258143	-1.7004088582	 1.6945273831	-0.0241
C	 2.520340775	-1.8056179631	 3.2104682308	-0.399906
C	 1.0294159736	-1.9844758345	 1.0697056979	-0.129477
C	 0.0558761157	-2.7737581492	 1.8247921393	 0.299871
N	-0.7016861523	-3.4090810322	 2.4236952449	-0.334857
H	 0.8334870581	 2.0286975795	 0.0298643434	 0.120587
H	-0.7212413722	 1.908413624	-0.8014271687	 0.119396
H	-0.6474103903	 1.777583291	 0.9694844478	 0.131885
H	-0.9519316498	-0.4772768704	-0.0828975944	 0.116848
H	 0.512677066	-0.2404741911	-1.0496966692	 0.075787
H	 2.7240063797	-0.111674856	 0.1691371163	 0.089123
H	 2.4953802296	 0.5675390928	 1.8082556899	 0.110705
H	 3.240437313	-2.2664795173	 1.2195099503	 0.088244
H	 1.719501798	-1.2332603635	 3.6876698409	 0.141253
H	 2.4362706148	-2.8449939715	 3.5419104303	 0.134041
H	 3.4791837531	-1.4134368651	 3.5646739382	 0.118164
H	 1.1309074831	-2.4334322099	 0.067043309	 0.100419
82.8708	87.4876	125.557	170.0339	189.1707	240.6866	242.2673	322.7542	344.2979	391.6536	400.5065	539.0075	582.0612	687.5011	812.7631	815.7023	840.5068	900.3316	927.7297	976.4134	1017.2167	1046.7368	1073.3567	1091.7062	1117.8439	1140.5774	1178.9547	1203.3498	1227.4691	1250.3641	1263.4402	1304.5566	1332.5243	1358.8356	1371.8843	1397.7513	1415.583	1417.5408	1489.7117	1492.4367	1493.5781	1497.3152	1508.9221	1521.6738	2353.882	2903.2004	2954.9558	2969.5579	3038.8737	3040.5683	3050.6201	3067.4933	3092.4696	3108.045	3108.783	3121.156	3122.7563
CCN1CC(C)C1C#N	CCN1C[C@@H](C)[C@H]1C#N	
InChI=1S/C7H12N2/c1-3-9-5-6(2)7(9)4-8/h6-7H,3,5H2,1-2H3	InChI=1S/C7H12N2/c1-3-9-5-6(2)7(9)4-8/h6-7H,3,5H2,1-2H3/t6-,7-/m1/s1
