17
gdb 70108	2.5154	1.64228	1.2772	1.9976	77.8	-0.2494	-0.0057	0.2437	1034.9791	0.135465	-380.818629	-380.810477	-380.809533	-380.851117	31.354	
C	-0.0386240009	 1.4939405352	 0.0118181751	-0.48588
C	 0.0287165825	-0.0099265902	 0.0255258529	 0.326625
C	 0.3514435003	-0.7701460529	 1.2544629519	-0.287111
N	 1.353688096	-0.6653854987	 0.149751321	-0.161121
C	 1.2329353205	-1.7832208492	-0.7271703561	 0.034174
N	 0.1840506091	-1.9225510132	-1.4323751788	-0.198367
C	-0.7154252234	-0.7906323841	-1.084609673	-0.233081
C	-2.0521346198	-1.2419287299	-0.7141778386	 0.35534
C	-3.1547641099	-1.5869866523	-0.3845575902	-0.4602
H	 0.6264648312	 1.9223684551	 0.7657735744	 0.131981
H	 0.2546866298	 1.8888085894	-0.9667482805	 0.128127
H	-1.0597376435	 1.8297098515	 0.2219986068	 0.134539
H	 0.6266201277	-0.234823419	 2.1579834707	 0.125549
H	-0.1190556325	-1.7372523848	 1.4076131706	 0.138786
H	 2.0689695595	-2.4753287055	-0.7798797734	 0.131859
H	-0.7991908851	-0.1482823503	-1.9727694033	 0.118171
H	-4.1301495715	-1.900161641	-0.1045026394	 0.200609
97.1216	135.889	190.3719	239.4389	302.1115	354.5288	368.1797	487.4865	526.4414	555.6141	621.3726	628.5721	655.2387	761.614	785.6722	827.3876	906.0711	941.6099	964.3083	974.8366	1000.6255	1051.991	1064.0739	1100.6634	1127.3323	1154.8834	1233.8205	1283.171	1318.5602	1322.1135	1392.2923	1419.1789	1485.9922	1492.5707	1501.8719	1674.587	2240.6516	3004.5716	3035.5019	3100.7074	3115.3361	3121.572	3183.833	3209.7804	3502.8401
CC12CN1C=NC2C#C	C[C@]12CN1C=N[C@H]2C#C	
InChI=1S/C7H8N2/c1-3-6-7(2)4-9(7)5-8-6/h1,5-6H,4H2,2H3	InChI=1S/C7H8N2/c1-3-6-7(2)4-9(7)5-8-6/h1,5-6H,4H2,2H3/t6-,7+,9?/m0/s1
