16
gdb 49052	2.0321	1.81047	1.30557	3.2984	70.44	-0.2296	-0.0502	0.1794	1018.9155	0.122838	-437.860668	-437.852436	-437.851492	-437.89427	29.79	
O	-0.7463147102	 0.8676064279	-0.4643761889	-0.243165
C	 0.0753652827	 1.2070800959	 0.3501962918	 0.0431
C	 1.3633132493	 1.8816979863	 0.007453687	 0.144064
N	 1.8025256194	 3.039239149	 0.8388816811	-0.361636
C	 1.7768661409	 3.9389588548	-0.3471607449	-0.169566
C	 1.6504852882	 2.7160657963	-1.2828373883	-0.100666
C	 2.9632122731	 1.9186297126	-1.5300494034	-0.358765
C	 2.6457247316	 1.0302511681	-0.3104091472	 0.398172
O	 3.1514353339	 0.0748468816	 0.1888413314	-0.280812
H	-0.0751536057	 1.0221214369	 1.4393352168	 0.085913
H	 1.1717052602	 3.2835202361	 1.5945678074	 0.229479
H	 0.8973488202	 4.5922304949	-0.3934276112	 0.110315
H	 2.678423993	 4.5522076741	-0.4527427646	 0.111627
H	 0.9431677289	 2.7599669846	-2.1066112345	 0.107109
H	 2.9689005532	 1.3363097816	-2.4568301383	 0.145545
H	 3.9012196412	 2.4772836994	-1.4667568144	 0.139284
53.9102	85.7102	169.542	180.2864	238.4983	330.0338	407.9349	494.1944	565.0175	582.1259	653.5602	701.9199	784.7683	813.1555	869.8385	942.6099	994.0601	1018.2833	1027.4895	1042.6338	1062.4313	1079.8148	1125.9772	1162.1808	1186.4789	1210.7479	1239.202	1311.098	1328.1531	1373.8354	1417.3191	1430.3535	1515.2216	1808.9132	1900.7672	2863.2442	3022.616	3058.7837	3070.3248	3112.03	3155.139	3529.5693
O=CC12NCC1CC2=O	O=C[C@]12NC[C@H]1CC2=O	
InChI=1S/C6H7NO2/c8-3-6-4(2-7-6)1-5(6)9/h3-4,7H,1-2H2	InChI=1S/C6H7NO2/c8-3-6-4(2-7-6)1-5(6)9/h3-4,7H,1-2H2/t4-,6+/m1/s1
