17
gdb 68762	2.50245	1.72742	1.24304	4.8073	68.25	-0.2599	0.0103	0.2702	1018.7113	0.135207	-458.995832	-458.987381	-458.986437	-459.028575	31.781	
C	-0.0820355196	 1.5689123216	 0.0213116333	-0.476395
C	-0.0426519393	 0.0652911356	 0.0787743292	 0.103779
C	 1.2363773637	-0.7082955745	-0.2568936774	-0.390708
C	 0.6636749284	-0.76142495	 1.1243589998	 0.326187
O	 1.2969496243	-0.1582658214	 2.2030608402	-0.461693
C	-0.2587385375	-1.9386868808	 1.4113588407	-0.144918
O	-1.2943890457	-1.8927159766	 0.4191663335	-0.233239
C	-1.289214265	-0.6993835	-0.2548025138	 0.424659
O	-2.1840502331	-0.3763747843	-0.9806363168	-0.34509
H	 0.853899431	 1.9902700926	 0.3965257392	 0.126004
H	-0.2380081042	 1.9088750374	-1.0062300652	 0.140621
H	-0.9002611299	 1.9625730579	 0.6313332886	 0.135204
H	 1.1869313472	-1.5825812513	-0.8989305694	 0.130848
H	 2.112292792	-0.0825302055	-0.3935391295	 0.12617
H	 2.1572912351	-0.5732439227	 2.3254571633	 0.293778
H	 0.2319099381	-2.9151068872	 1.3438840849	 0.116376
H	-0.7038478755	-1.8273778806	 2.4064258895	 0.128418
124.5324	144.0216	194.5507	201.3347	257.5508	269.941	333.1322	414.4953	435.2822	517.7051	582.0501	662.7904	690.2421	723.0541	793.6599	849.7018	923.3708	952.7109	977.1845	1042.285	1056.0533	1060.4245	1100.2301	1110.3686	1179.8393	1204.9802	1240.1503	1317.0694	1349.7756	1370.6319	1417.3098	1420.6865	1483.9419	1490.2891	1499.7503	1519.0886	1878.6553	3039.0994	3047.1583	3086.6656	3114.7801	3122.2133	3127.4297	3215.6845	3807.3183
CC12CC1(O)COC2=O	C[C@@]12C[C@]1(O)COC2=O	
InChI=1S/C6H8O3/c1-5-2-6(5,8)3-9-4(5)7/h8H,2-3H2,1H3	InChI=1S/C6H8O3/c1-5-2-6(5,8)3-9-4(5)7/h8H,2-3H2,1H3/t5-,6-/m0/s1
