16
gdb 14476	2.86609	2.35946	1.98121	1.6692	63.96	-0.2284	0.0663	0.2947	765.3187	0.129994	-383.677101	-383.669975	-383.669031	-383.707925	28.174	
O	-0.1207791918	 1.4311480351	 0.0618506852	-0.447699
C	 0.0259575969	 0.0722625268	 0.0345537186	 0.336326
C	 0.0434141011	-0.9762441118	-1.0504902198	-0.149692
C	 1.2980870674	-1.6425168256	-0.4903380077	-0.287744
C	 0.9298780759	-0.9601187885	 0.8609177051	 0.304648
O	 1.8959470682	-0.5492128708	 1.7647057082	-0.480615
C	-0.3827222611	-1.6713689622	 1.3026490317	-0.292342
C	-1.0212651567	-0.9911304735	 0.0918524126	-0.109451
H	 0.6760021792	 1.832405836	-0.3040604944	 0.293067
H	-0.2703815809	-0.8841424946	-2.0818856314	 0.089139
H	 1.3619747064	-2.7372134648	-0.4989879682	 0.083881
H	 2.2098971826	-1.2100907596	-0.9121335904	 0.096753
H	 2.2583454563	-1.3270925316	 2.2039217836	 0.281088
H	-0.373683794	-2.7669198839	 1.3547776048	 0.08248
H	-0.7594935286	-1.250087976	 2.2385025987	 0.107726
H	-2.071587871	-0.8908864552	-0.1469106867	 0.092436
151.7577	190.6203	231.4153	326.5196	381.3853	389.1255	488.9037	489.8113	595.6649	664.9394	710.2797	753.579	834.3603	885.1589	895.9118	923.5323	967.4594	992.1679	1008.4272	1064.4608	1090.3258	1099.8266	1108.4367	1158.0178	1200.4531	1230.4844	1251.1601	1271.3213	1281.7751	1314.2284	1377.2267	1483.4607	1489.2	1517.6882	3022.5716	3031.0715	3096.1975	3103.0502	3200.5417	3210.0308	3785.2997	3793.1365
OC12C3CC1(O)CC23	O[C@@]12[C@H]3C[C@]1(O)C[C@@H]23	
InChI=1S/C6H8O2/c7-5-1-3-4(2-5)6(3,5)8/h3-4,7-8H,1-2H2	InChI=1S/C6H8O2/c7-5-1-3-4(2-5)6(3,5)8/h3-4,7-8H,1-2H2/t3-,4+,5-,6+
