22
gdb 115855	2.62887	1.34053	1.16001	1.8304	81.75	-0.2189	0.0764	0.2953	1196.2956	0.194634	-404.317906	-404.308639	-404.307695	-404.352106	34.507	
C	 0.027818532	 1.6245937273	 0.6363415286	-0.23518
O	 0.3682128294	 0.3473877529	 0.1485466273	-0.24297
C	 0.4968168101	-0.6337803593	 1.1641124587	 0.13288
C	-0.8558279937	-1.1251094291	 1.7553699505	-0.271627
C	-0.7635212501	-2.6707006748	 1.7618057841	-0.158772
N	 0.4330375845	-3.0962981654	 1.0068166313	-0.123222
C	 0.4695047162	-2.7085106458	-0.4165525553	 0.025505
C	-0.7309018306	-2.2937215208	-1.2390747799	-0.422724
C	 1.1662836005	-1.8789636901	 0.6053764663	-0.085665
H	 0.7648229008	 1.9875592681	 1.3705890534	 0.103551
H	 0.0164728356	 2.3058108763	-0.2181020826	 0.127129
H	-0.9647508608	 1.6414523975	 1.1116311826	 0.10515
H	 1.1311747934	-0.2239316882	 1.9664296365	 0.067628
H	-1.0261496051	-0.7327173346	 2.7613633993	 0.101979
H	-1.6741429208	-0.7621153136	 1.12788194	 0.115997
H	-0.6437068521	-3.0476032402	 2.7824501491	 0.107701
H	-1.6599211873	-3.1452378171	 1.3492636011	 0.10736
H	 1.1230785379	-3.3835603634	-0.9690650902	 0.088714
H	-1.3041992474	-1.4763449881	-0.805162712	 0.130545
H	-0.3887429652	-1.9568923149	-2.2229463737	 0.125596
H	-1.3986824907	-3.148370317	-1.3990187442	 0.116271
H	 2.2503525635	-1.9200091799	 0.6735260291	 0.084155
75.6479	109.5578	128.5372	166.8314	191.1228	228.0716	281.2825	363.4382	440.0118	475.6993	533.5225	693.9835	722.4227	730.9233	755.351	838.3014	866.4958	932.7682	963.4931	991.9306	1022.5397	1034.3024	1043.1017	1110.7206	1126.8679	1144.1065	1160.5622	1172.6697	1183.2435	1208.701	1228.0863	1252.5618	1277.4219	1313.021	1336.4885	1349.2029	1377.3667	1399.8672	1418.2989	1439.2017	1478.3596	1483.8122	1484.8774	1490.0854	1505.8739	1510.0721	1512.0183	2965.2435	2973.3323	3018.4174	3036.4393	3043.1248	3061.5604	3074.9487	3092.1492	3097.5555	3105.5256	3112.5143	3135.9463	3164.9725
COC1CCN2C(C)C12	CO[C@H]1CCN2[C@@H](C)[C@@H]12	
InChI=1S/C7H13NO/c1-5-7-6(9-2)3-4-8(5)7/h5-7H,3-4H2,1-2H3	InChI=1S/C7H13NO/c1-5-7-6(9-2)3-4-8(5)7/h5-7H,3-4H2,1-2H3/t5-,6-,7-,8?/m0/s1
