19
gdb 41217	2.28185	1.86001	1.09825	2.5735	81.9	-0.2268	-0.0121	0.2147	1107.676	0.160329	-385.909996	-385.902122	-385.901177	-385.943223	30.485	
C	 0.0060654594	 1.3064529994	-0.3952095334	-0.269442
C	 1.4482870125	 0.8698630239	-0.0453755819	-0.297496
C	 1.6498023443	 0.205306433	 1.3252636275	 0.37338
O	 2.740828217	-0.1437326832	 1.7093062677	-0.317102
C	-0.821493539	-0.2860179789	 1.2329404223	 0.36465
C	-1.2927211982	-1.4455457426	 2.0878127753	-0.332442
C	 0.1009938054	-1.4034855612	 2.8090609071	-0.232436
C	 0.3767066006	-0.0309671387	 2.1194273424	-0.179587
C	-1.0070082175	 0.2654009404	 0.0422650954	-0.254299
H	-0.2157335905	 2.2716149269	 0.0813485447	 0.114413
H	-0.0601838869	 1.4857197778	-1.4726122966	 0.108248
H	 1.7901777834	 0.1266527006	-0.776395875	 0.137608
H	 2.1519872035	 1.7058670734	-0.1180829729	 0.127302
H	-2.1138649541	-1.1770770764	 2.7617919753	 0.115248
H	-1.564263778	-2.3699690221	 1.5705380198	 0.11493
H	 0.0869151019	-1.4094560939	 3.8997025071	 0.107584
H	 0.7877400979	-2.177075838	 2.4600098259	 0.122312
H	 0.2414353456	 0.8194247201	 2.8030296082	 0.10666
H	-1.8168693875	-0.0177624907	-0.623465309	 0.090468
30.0776	128.6417	217.7602	248.1266	330.9489	418.2246	456.2054	496.1175	574.821	613.3737	673.5224	706.2974	747.3282	847.416	872.7275	903.0693	906.0868	957.437	972.4287	981.9604	1049.7156	1064.6699	1085.8369	1109.1986	1162.3734	1174.5161	1199.1242	1205.1652	1228.4517	1245.195	1265.1747	1292.2334	1317.5834	1334.7423	1357.2212	1440.6973	1470.5372	1488.6723	1492.3106	1767.6184	1808.6364	3005.4878	3008.8819	3038.3178	3041.1768	3075.6775	3080.6167	3084.0728	3091.3191	3137.4913	3170.9983
C1CC23OC4(CCC24)C13	C1CC(=O)[C@H]2C(=C1)CC2	
InChI=1S/C8H10O/c1-3-7-5(1)8(9-7)4-2-6(7)8/h5-6H,1-4H2	InChI=1S/C8H10O/c9-8-3-1-2-6-4-5-7(6)8/h2,7H,1,3-5H2/t7-/m1/s1
