15
gdb 39866	3.24223	1.90739	1.5441	1.6391	63.25	-0.2402	0.042	0.2822	851.6509	0.113314	-457.66516	-457.659084	-457.65814	-457.695501	24.978	
C	 0.0117777998	 1.4510598454	-0.0111859908	-0.28241
O	 1.1650511258	 0.5867075327	 0.0320345327	-0.286131
C	-0.115779706	 0.0009428609	 0.0060915709	 0.570961
C	-0.5804467292	-0.9363414817	 1.1157520165	-0.101771
O	 0.2506349422	-2.1063163558	 0.8404306366	-0.286267
C	-0.5602281154	-2.2796151385	-0.3220428466	 0.065101
C	-1.7850054994	-1.608929929	 0.3045396122	 0.062507
O	-2.0687597416	-0.816918111	-0.8536519901	-0.291745
C	-0.6322733309	-0.8925868827	-1.1195093087	-0.102427
H	-0.169606384	 2.0234002236	 0.8970430051	 0.122171
H	-0.1319501966	 1.9954933263	-0.9427444723	 0.125063
H	-0.592066495	-0.6248651945	 2.1570954706	 0.095468
H	-0.4808650035	-3.2358675797	-0.8339557412	 0.105497
H	-2.6375600728	-2.0601692691	 0.8075968968	 0.105375
H	-0.3433653833	-0.7237674069	-2.1537149218	 0.098608
156.1832	268.8271	316.6958	448.191	495.9894	591.7735	607.8903	740.2326	772.3095	800.6378	840.9297	862.7899	871.8719	902.9965	924.9674	957.2221	976.7035	997.2032	1027.6334	1052.5169	1106.9433	1117.3651	1148.608	1165.3602	1166.6732	1191.0227	1198.8033	1242.744	1251.1079	1299.8172	1332.5509	1460.0262	1547.6182	3089.5552	3144.4976	3154.6065	3163.263	3167.2102	3177.6242
C1OC11C2OC3C2OC13	C1O[C@]21[C@@H]1O[C@H]3[C@@H]1O[C@@H]23	
InChI=1S/C6H6O3/c1-6(7-1)4-2-3(9-4)5(6)8-2/h2-5H,1H2	InChI=1S/C6H6O3/c1-6(7-1)4-2-3(9-4)5(6)8-2/h2-5H,1H2/t2-,3-,4+,5+/m0/s1
