17
gdb 42990	2.88155	1.72182	1.29708	3.4343	72.39	-0.2539	-0.0217	0.2322	983.7519	0.138031	-417.989092	-417.981822	-417.980878	-418.020925	28.426	
O	 0.0805865005	 0.0349576696	-0.2312037767	-0.336615
C	 0.0220368747	 1.229202398	-0.1003372969	 0.33664
N	-1.193918035	 1.9833332911	-0.0722970508	-0.146824
C	-1.3569254187	 2.7001180274	 1.2277362778	-0.251143
C	-0.8036713804	 3.4140277872	 0.0604049185	-0.023185
C	 0.7091320718	 3.5788818216	-0.0695525586	-0.341429
C	 1.2144553133	 2.1501277603	 0.0111682887	 0.244304
C	 2.3682534582	 1.6555517816	 0.8230384609	-0.273032
N	 2.4664413151	 1.7347863373	-0.6310939175	-0.350993
H	-2.3914948064	 2.8410113943	 1.5225487122	 0.138648
H	-0.6836076097	 2.4287233112	 2.0372642327	 0.133009
H	-1.4432097637	 4.1031059901	-0.4814194372	 0.110096
H	 0.9590480493	 4.0107135384	-1.0432481073	 0.132405
H	 1.1274607614	 4.232378068	 0.7012133802	 0.118557
H	 2.9653890457	 2.3828649705	 1.3669301229	 0.125059
H	 2.2707063565	 0.6779153506	 1.286961625	 0.135676
H	 2.3166233673	 0.8031420426	-1.021279804	 0.248828
71.9934	208.143	262.9382	272.8477	348.9054	360.355	469.8114	566.4388	650.8989	697.4007	771.6967	792.1935	833.4461	852.955	888.5468	939.5719	957.7977	978.8376	998.5726	1042.2826	1084.2135	1086.1672	1111.2543	1116.4805	1155.08	1176.9314	1195.7471	1256.0518	1291.4638	1298.9471	1322.5886	1374.9476	1409.2384	1488.9641	1496.4877	1508.2273	1842.3645	3056.3204	3096.9706	3106.9302	3115.2433	3165.0963	3201.7747	3207.7585	3457.5252
O=C1N2CC2CC11CN1	O=C1N2C[C@H]2C[C@]21CN2	
InChI=1S/C6H8N2O/c9-5-6(3-7-6)1-4-2-8(4)5/h4,7H,1-3H2	InChI=1S/C6H8N2O/c9-5-6(3-7-6)1-4-2-8(4)5/h4,7H,1-3H2/t4-,6-,8?/m1/s1
