16
gdb 44314	3.33345	1.91483	1.42998	2.4288	72.62	-0.212	-0.0141	0.1979	888.2362	0.126103	-400.650759	-400.644655	-400.643711	-400.681061	25.417	
O	-0.0430326054	 0.0591218559	-0.2088967909	-0.320383
C	 0.0149111319	 1.2440203825	-0.0281562071	 0.299519
C	-1.1810990516	 2.2668970237	 0.0596408021	-0.281719
N	-0.5431084846	 3.5967388105	 0.2938206587	-0.162394
C	 0.6934160742	 3.5212086134	-0.5696777735	-0.011476
C	 1.7217595087	 4.0154192545	 0.4804921216	-0.098446
C	 2.5890386492	 2.7214035113	 0.3340604275	-0.360488
C	 1.1352672723	 2.2133660962	 0.1783986874	 0.171218
C	 0.595242021	 3.252400732	 1.2243715251	-0.011478
H	-1.7584020131	 2.2650604566	-0.8700706487	 0.132593
H	-1.8542483958	 2.0026808135	 0.8810451315	 0.132591
H	 0.6794792173	 3.6783898522	-1.6500900855	 0.093129
H	 2.0542170069	 5.039380031	 0.6521068293	 0.091019
H	 3.2265783615	 2.6548658542	-0.5508950012	 0.116594
H	 3.1294785399	 2.3889784157	 1.2236947013	 0.116593
H	 0.4635619076	 3.0871989967	 2.2956136524	 0.093128
147.819	311.3223	315.6035	411.9266	543.4081	596.7078	615.7218	678.7672	737.9036	782.704	851.1528	862.2573	873.2638	881.2537	903.9546	957.4148	998.7458	1002.9312	1020.8962	1025.597	1072.9618	1094.9444	1127.8763	1143.9573	1157.7203	1186.5459	1211.6077	1215.7537	1228.5634	1275.8148	1293.2045	1322.7674	1466.2013	1508.5829	1864.4728	3057.2714	3061.8316	3096.9105	3097.7481	3106.7891	3118.327	3123.5521
O=C1CN2C3C4CC13C24	O=C1CN2[C@H]3[C@@H]4C[C@]13[C@H]24	
InChI=1S/C7H7NO/c9-4-2-8-5-3-1-7(4,5)6(3)8/h3,5-6H,1-2H2	InChI=1S/C7H7NO/c9-4-2-8-5-3-1-7(4,5)6(3)8/h3,5-6H,1-2H2/t3-,5-,6+,7-
