20
gdb 83131	1.98411	1.76333	1.44619	3.6256	79.09	-0.2359	0.0343	0.2702	1060.3658	0.171715	-403.19453	-403.185596	-403.184652	-403.227714	33.868	
C	-0.098126704	 1.5600654118	 0.0334348924	-0.42429
C	 0.0651886423	 0.0552022046	 0.0521411596	-0.040748
C	 1.3592555948	-0.6707266857	-0.2172232859	-0.1204
C	 2.6647683984	 0.1119753834	-0.0895422611	-0.190208
N	 2.6561100485	 0.5536940627	 1.2943891414	-0.308028
C	 1.644004258	 0.0481234576	 2.070989051	 0.358162
O	 1.5251721847	 0.1981163719	 3.2691311647	-0.388731
C	 0.7293990079	-0.7456983024	 1.1634095903	 0.195925
C	 0.0636866851	-1.95265241	 1.7745332437	-0.480005
H	 0.7660866928	 2.0793081088	 0.4534177469	 0.130273
H	-0.2404839947	 1.9176250883	-0.9926001226	 0.115477
H	-0.9773321332	 1.8588701937	 0.6135220226	 0.127127
H	-0.7987860694	-0.4684284239	-0.3535655697	 0.088235
H	 1.3535223856	-1.5239549723	-0.885541047	 0.091157
H	 3.5266662027	-0.5352532169	-0.2995353925	 0.111419
H	 2.7124619662	 0.9629117486	-0.7820167572	 0.111527
H	 3.3825497901	 1.1170796711	 1.7059718477	 0.249158
H	-0.5201625604	-1.653553175	 2.6501423974	 0.142514
H	-0.60585582	-2.439431641	 1.0592248015	 0.109292
H	 0.8008421946	-2.6908794253	 2.1083032868	 0.122144
108.0522	161.0378	178.1743	201.8492	209.9157	231.2226	262.0855	394.4	469.36	482.1764	525.0228	592.2163	683.0137	704.5376	787.6312	794.1616	847.3622	882.3837	946.196	988.8482	1028.039	1052.8829	1065.483	1110.3499	1118.0227	1130.4131	1160.2299	1199.7539	1223.8298	1259.6054	1328.6636	1334.2016	1365.2737	1412.0174	1419.3632	1439.7289	1464.26	1482.2405	1498.525	1498.9793	1502.9967	1530.2983	1817.9815	3005.3312	3031.6668	3034.4049	3035.7482	3092.7883	3098.8347	3112.641	3115.1506	3131.7446	3176.0566	3646.873
CC1C2CNC(=O)C12C	C[C@H]1[C@H]2CNC(=O)[C@@]12C	
InChI=1S/C7H11NO/c1-4-5-3-8-6(9)7(4,5)2/h4-5H,3H2,1-2H3,(H,8,9)	InChI=1S/C7H11NO/c1-4-5-3-8-6(9)7(4,5)2/h4-5H,3H2,1-2H3,(H,8,9)/t4-,5+,7-/m0/s1
