20
gdb 79333	2.5814	1.75477	1.47625	2.1653	77.27	-0.2319	0.0684	0.3003	993.7058	0.173333	-403.148511	-403.140934	-403.13999	-403.179966	31.14	
C	 0.005535244	 1.4872268607	 0.097513454	-0.497152
C	 0.016631191	-0.0050889339	-0.0682075014	 0.358762
C	 1.0963929873	-0.7366003149	-0.8662049351	-0.272846
C	 0.6260661026	-2.1664773896	-0.538385372	-0.117261
C	 0.4838772181	-2.0728276722	 0.9890741519	-0.162588
N	-0.3537205358	-0.8488433296	 1.1034276466	-0.169846
C	-1.2046381818	-0.8613432869	-0.1148473042	-0.08774
C	-0.8729979385	-2.099207111	-0.935524683	 0.128682
O	-1.140880752	-1.8498060229	-2.303626606	-0.444475
H	 0.9334729661	 1.8376774966	 0.5636563319	 0.116674
H	-0.0933872391	 1.9862156099	-0.8727131338	 0.119495
H	-0.8273081744	 1.7998270643	 0.7326539221	 0.127902
H	 1.0404469539	-0.5094652654	-1.9332161537	 0.111045
H	 2.1079223851	-0.5257094282	-0.5033266059	 0.09167
H	 1.20380412	-2.996326343	-0.9454305657	 0.059477
H	-0.037630102	-2.9242873668	 1.4382905841	 0.100814
H	 1.4341737533	-1.9287541275	 1.5121861404	 0.10239
H	-2.2148628516	-0.479162577	-0.0297312109	 0.087067
H	-1.4214668621	-2.987186918	-0.5873045039	 0.064274
H	-0.9437134742	-2.6520748544	-2.7970782154	 0.283656
165.8174	202.4797	257.6605	291.3462	309.3737	349.9269	424.7734	475.9676	542.721	597.4877	682.5327	734.3183	805.7906	825.4377	888.654	904.1823	927.4803	934.0616	950.6716	976.3834	1002.1508	1049.2171	1050.5121	1076.0541	1091.5042	1122.1479	1165.705	1176.1395	1201.0222	1226.6992	1247.748	1256.0584	1284.3634	1309.2446	1317.7917	1349.8086	1410.5515	1425.4666	1437.728	1483.1278	1490.0148	1495.7006	1511.0484	2990.167	3030.6754	3046.1943	3052.7575	3090.6331	3092.9693	3112.9305	3117.4618	3119.0732	3186.4422	3818.2252
CC12CC3CN1C2C3O	C[C@@]12C[C@H]3CN1[C@@H]2[C@H]3O	
InChI=1S/C7H11NO/c1-7-2-4-3-8(7)6(7)5(4)9/h4-6,9H,2-3H2,1H3	InChI=1S/C7H11NO/c1-7-2-4-3-8(7)6(7)5(4)9/h4-6,9H,2-3H2,1H3/t4-,5-,6+,7-,8?/m0/s1
