20
gdb 102130	2.27702	1.15135	0.81443	2.9801	82.28	-0.2324	0.0123	0.2446	1449.4782	0.170031	-436.51415	-436.503703	-436.502759	-436.5499	37.347	
C	 0.0986763116	 1.6426912675	-0.0412814117	-0.384129
C	-0.0454315959	 0.1203405187	 0.0240787106	-0.169287
N	 0.654016313	-0.4819241783	 1.1623884791	-0.157061
C	-0.0709815777	-0.7569356442	 2.3206004098	 0.124617
N	-1.3113304247	-0.5130911596	 2.4107388447	-0.26117
C	-1.9646095537	-0.8582760702	 3.6568942821	-0.313531
C	 2.0333926165	-0.7287922385	 1.1958181269	 0.474765
N	 2.7246634021	-0.3814221036	 0.0570694154	-0.573598
O	 2.5966505726	-1.1829341344	 2.1741603291	-0.393092
H	 1.1455517133	 1.9453850719	-0.1322357155	 0.127462
H	-0.4508388509	 2.035782848	-0.9025575182	 0.117851
H	-0.3153191284	 2.095502897	 0.8633472044	 0.143209
H	-1.0957596506	-0.1462404354	 0.1493383922	 0.153588
H	 0.2960743606	-0.3539625501	-0.903142603	 0.097667
H	 0.5524483442	-1.1908894377	 3.1047621719	 0.139199
H	-1.28831512	-1.2980645399	 4.4067414348	 0.102232
H	-2.4270827254	 0.0357255172	 4.0918001321	 0.123473
H	-2.7752292442	-1.5711744553	 3.4643451524	 0.123496
H	 2.264184922	-0.2947091069	-0.8320400863	 0.257804
H	 3.6674932355	-0.7351453663	 0.0405423793	 0.266504
55.5538	92.4805	126.881	149.8065	175.5917	213.2764	229.4218	307.4355	346.3433	368.9777	397.2205	446.4988	449.6241	512.1405	581.7812	634.7309	766.9665	782.2401	833.4728	972.9045	1014.1532	1030.7481	1090.4312	1095.5631	1109.5029	1143.3835	1153.2695	1208.5957	1301.0685	1346.006	1362.2914	1393.6504	1407.7513	1436.2301	1454.695	1481.5089	1491.8372	1495.933	1503.8499	1507.798	1617.3326	1746.8895	1793.4422	2977.5971	3036.5097	3044.1831	3056.4861	3070.3432	3110.4731	3116.8964	3121.7508	3134.6526	3607.5041	3729.3466
CCN(C=NC)C(N)=O	CCN(C=NC)C(=O)N	
InChI=1S/C5H11N3O/c1-3-8(4-7-2)5(6)9/h4H,3H2,1-2H3,(H2,6,9)	InChI=1S/C5H11N3O/c1-3-8(4-7-2)5(6)9/h4H,3H2,1-2H3,(H2,6,9)
