20
gdb 86141	2.32534	1.53416	0.99393	3.842	76.4	-0.2464	0.026	0.2724	1215.4004	0.171182	-440.338432	-440.329136	-440.328191	-440.372294	34.625	
C	-0.0145830201	 1.5705904861	-0.054904544	-0.404014
C	 0.0714887946	 0.0466310806	-0.0118517577	 0.03253
C	 0.818038345	-0.5625434954	-1.2218245925	-0.250308
C	 1.4322233451	-1.8456586994	-0.6649958601	 0.041908
O	 2.6323648643	-2.2300315024	-1.2842860716	-0.442665
C	 1.652964919	-1.5060878382	 0.8093374268	 0.383733
O	 2.4331911309	-2.0937277612	 1.5378187247	-0.419451
N	 0.8483072519	-0.4567650004	 1.1276804671	-0.076938
C	 0.6598935586	-0.0119669783	 2.4909336474	-0.353906
H	 0.985558857	 2.0157383586	-0.0642781714	 0.127854
H	-0.5368319376	 1.8820971452	-0.9647250263	 0.127575
H	-0.5670346518	 1.9748075838	 0.798523513	 0.122516
H	-0.9522137026	-0.3584429128	 0.0405862112	 0.080701
H	 0.1585414445	-0.7179364471	-2.0776782166	 0.11104
H	 1.6332794879	 0.1016640796	-1.5276739938	 0.119647
H	 0.6928634864	-2.6663300488	-0.6989727959	 0.085944
H	 3.1713305074	-2.6128182299	-0.5760294218	 0.292599
H	 1.312678036	-0.6161545175	 3.1236255519	 0.166406
H	 0.9246391266	 1.0434098113	 2.6121892621	 0.130937
H	-0.3810036631	-0.1477019237	 2.8117821876	 0.123894
99.7576	108.0097	159.2075	183.9376	249.3717	275.7944	289.2574	319.8232	422.7284	435.3319	458.0185	530.195	550.178	590.9151	700.8194	783.0223	886.823	944.6084	956.4043	1013.2743	1042.5861	1097.0089	1117.053	1128.7225	1159.9298	1171.4189	1196.8783	1269.154	1272.117	1307.6208	1317.947	1372.8623	1386.9513	1410.0944	1424.8183	1436.7645	1456.5715	1489.5323	1492.514	1494.2402	1505.1405	1523.6817	1799.8166	2938.6924	2965.264	3018.5167	3037.77	3058.3595	3079.1238	3111.5498	3112.8797	3120.0638	3141.607	3725.4593
CC1CC(O)C(=O)N1C	C[C@H]1C[C@@H](O)C(=O)N1C	
InChI=1S/C6H11NO2/c1-4-3-5(8)6(9)7(4)2/h4-5,8H,3H2,1-2H3	InChI=1S/C6H11NO2/c1-4-3-5(8)6(9)7(4)2/h4-5,8H,3H2,1-2H3/t4-,5+/m0/s1
