17
gdb 45859	2.60433	1.80402	1.19347	3.2294	74.79	-0.2222	-0.0124	0.2098	1021.5455	0.138895	-418.034204	-418.026713	-418.025769	-418.066176	29.336	
O	 0.0651406232	-0.0157535795	 0.181354487	-0.387465
C	 0.0337114823	 1.1970614663	 0.062784347	 0.378314
N	-1.1444665483	 1.8966074033	-0.0074316834	-0.358759
C	-1.2271889218	 3.2927468138	-0.1102512107	 0.020799
C	-0.1623156969	 4.0470887865	-0.3782524374	-0.121112
C	 1.181157576	 3.4149638955	-0.6295797287	-0.347127
C	 1.282146648	 2.0441610024	 0.0221834908	 0.204958
C	 2.2107237332	 1.776556787	 1.1682042407	-0.2579
N	 2.5300305163	 1.3044698042	-0.1775858857	-0.350062
H	-1.9833764647	 1.3442288087	 0.0840079461	 0.257838
H	-2.2206089806	 3.6962786143	 0.0438192947	 0.117222
H	-0.2735540148	 5.121349809	-0.4557889137	 0.100703
H	 1.350651145	 3.3093644994	-1.712187437	 0.126744
H	 1.9932983338	 4.0517695977	-0.2649229885	 0.118353
H	 2.8255950959	 2.5947278554	 1.5347370039	 0.119264
H	 1.9010847703	 1.0498232435	 1.9136213017	 0.13
H	 2.2842176332	 0.3153897226	-0.2395687568	 0.248231
87.9018	145.0999	269.3185	306.1317	335.9756	429.2524	458.387	515.7136	553.3223	573.8659	662.266	731.3836	763.8843	833.7587	856.2738	926.5501	946.2215	954.4486	983.1828	994.7622	1023.8549	1068.7411	1111.939	1138.1423	1186.5841	1196.1776	1268.1107	1293.5548	1323.3936	1383.3153	1395.023	1427.0215	1463.5167	1478.0798	1498.5244	1731.2043	1778.0516	2992.3476	3067.9849	3106.8115	3197.7792	3200.8966	3218.0888	3460.0892	3630.8361
O=C1NC=CCC11CN1	O=C1NC=CC[C@]21CN2	
InChI=1S/C6H8N2O/c9-5-6(4-8-6)2-1-3-7-5/h1,3,8H,2,4H2,(H,7,9)	InChI=1S/C6H8N2O/c9-5-6(4-8-6)2-1-3-7-5/h1,3,8H,2,4H2,(H,7,9)/t6-/m1/s1
