21
gdb 93859	1.96522	1.75472	1.21862	2.0367	77.41	-0.2473	0.0594	0.3068	1128.2948	0.182332	-424.218271	-424.209266	-424.208322	-424.252254	34.716	
C	 0.192129162	 1.6394510243	-0.082290597	-0.395952
C	 0.0439201112	 0.1161774242	 0.0486753663	-0.065069
C	 0.6852932583	-0.6343351538	-1.1449250293	-0.229359
C	 2.1475060107	-0.8414919007	-0.7153470684	-0.256265
C	 2.0357047021	-1.2131134382	 0.7736167875	 0.056756
O	 3.1661508846	-0.8707419134	 1.5602998599	-0.43674
C	 0.7911141826	-0.4594699641	 1.2619143137	 0.424981
C	 0.7028793987	 0.0776918875	 2.6234496103	-0.242509
O	 0.0201410902	-1.1289471608	 2.2692717478	-0.288974
H	 1.242923505	 1.939295356	-0.155863647	 0.120575
H	-0.3220435742	 1.9981670372	-0.980143019	 0.112841
H	-0.2387013176	 2.1599883827	 0.7778911903	 0.117205
H	-1.0179959728	-0.1271145004	 0.1479528274	 0.083602
H	 0.1972733397	-1.6065544157	-1.2804723273	 0.102616
H	 0.5893815442	-0.0894817882	-2.0883957068	 0.096505
H	 2.6712494443	-1.5988141208	-1.3062812923	 0.090425
H	 2.7144734811	 0.092835391	-0.7952317117	 0.109929
H	 1.813835254	-2.2866126283	 0.8742835699	 0.081077
H	 3.8753044526	-1.4838245259	 1.3442675942	 0.28472
H	 1.5524479398	-0.0426643801	 3.2910719805	 0.128203
H	 0.0598133536	 0.9330492876	 2.8277100109	 0.105434
30.0108	187.855	200.3812	237.9663	246.991	277.3548	307.2837	336.4931	438.5094	458.1084	509.6744	549.7643	591.605	725.0886	815.9867	854.1828	861.0743	901.3443	955.6159	971.0242	978.9978	1004.234	1036.2054	1098.4422	1109.8793	1124.3223	1139.0668	1162.6835	1187.6254	1197.256	1232.2842	1240.4514	1290.6883	1313.2909	1332.8834	1342.8769	1358.647	1400.1197	1418.9384	1439.026	1486.8238	1495.5708	1503.2904	1505.1775	1527.0787	2984.047	3033.853	3037.25	3044.9984	3063.9395	3085.4251	3088.0073	3095.2246	3101.9032	3110.5946	3183.356	3823.9117
CC1CCC(O)C11CO1	C[C@H]1CC[C@@H](O)[C@]21CO2	
InChI=1S/C7H12O2/c1-5-2-3-6(8)7(5)4-9-7/h5-6,8H,2-4H2,1H3	InChI=1S/C7H12O2/c1-5-2-3-6(8)7(5)4-9-7/h5-6,8H,2-4H2,1H3/t5-,6+,7+/m0/s1
