21
gdb 56645	2.90769	1.11467	0.94759	1.1625	84.84	-0.2608	0.0302	0.291	1330.4526	0.17902	-387.043356	-387.0328	-387.031856	-387.07841	39.377	
C	-0.025944135	 1.4144559511	-0.3120019185	-0.418225
C	 0.1865306578	-0.0584436322	-0.0379961672	-0.032066
C	 1.569859137	-0.6702876412	 0.0136788137	-0.334186
C	 0.7323605829	-0.5951901764	 1.2672959358	 0.321938
C	 1.1428244283	 0.3439200851	 2.3847206943	-0.472443
C	 0.1003747474	-1.8994232491	 1.7904987298	-0.093593
O	-0.418415385	-2.7328169985	 0.7561767622	-0.422533
C	 1.0360110817	-2.6529479719	 2.6336429009	 0.2985
C	 1.8220670494	-3.2949958946	 3.2787307933	-0.461035
H	 0.7806393899	 2.0345327311	 0.0891751711	 0.113375
H	-0.0687555106	 1.5979059896	-1.3913768048	 0.118408
H	-0.9675341775	 1.7721684238	 0.1200709099	 0.116459
H	-0.5587407638	-0.7049936704	-0.4909749486	 0.101475
H	 1.7195176425	-1.6326785031	-0.4652218272	 0.093737
H	 2.427450644	-0.007674936	-0.0522837086	 0.10465
H	 1.6022813665	 1.2557336937	 1.9975672647	 0.117482
H	 0.2781375238	 0.6400546742	 2.9914782625	 0.113756
H	 1.8673481324	-0.1364516271	 3.0498051279	 0.130179
H	-0.7733639908	-1.6227036037	 2.3966367808	 0.113835
H	 0.2960637782	-3.3049738708	 0.4576503416	 0.289514
H	 2.5053853911	-3.8598976934	 3.8637093864	 0.200773
58.4814	127.6293	170.9019	173.5829	191.3924	227.2157	242.4862	262.2286	297.4881	349.9494	394.6745	430.8509	456.1409	557.8073	608.3541	626.0248	670.9059	723.6823	802.1112	866.9141	895.2716	936.6217	953.7043	990.1345	1028.5908	1054.694	1066.7749	1108.2113	1127.5534	1148.1707	1193.7768	1253.2469	1271.6605	1304.3048	1341.9984	1404.0539	1416.1759	1419.1803	1427.0153	1485.5431	1489.7745	1495.0366	1500.8235	1517.6089	2228.6239	3013.4211	3027.166	3031.2518	3085.9262	3091.2799	3103.1638	3120.5613	3124.8381	3161.1328	3203.1364	3501.5723	3820.0885
CC1CC1(C)C(O)C#C	C[C@H]1C[C@]1(C)[C@@H](O)C#C	
InChI=1S/C8H12O/c1-4-7(9)8(3)5-6(8)2/h1,6-7,9H,5H2,2-3H3	InChI=1S/C8H12O/c1-4-7(9)8(3)5-6(8)2/h1,6-7,9H,5H2,2-3H3/t6-,7-,8-/m0/s1
