19
gdb 90632	3.71304	1.07703	1.01132	1.1127	83.35	-0.2391	0.0342	0.2733	1259.6792	0.157173	-385.824471	-385.815461	-385.814517	-385.857588	35.073	
C	-0.1150237867	 1.4540906892	-0.0530324012	-0.413109
C	-0.0002055984	-0.0609353454	 0.0587935171	 0.018905
C	 1.0642037927	-0.6997132487	-0.8954086619	-0.263843
C	 1.8790405698	-1.145912335	 0.3223594934	-0.124659
C	 0.8314385677	-0.5326654141	 1.2650733751	-0.102655
C	 1.0252694287	-2.0221046456	 1.2237133521	 0.207703
O	-0.0203942769	-2.804084832	 0.7063216648	-0.462335
C	 1.7154482352	-2.6108386788	 2.3462985441	 0.261638
C	 2.2901553544	-3.1366712764	 3.2630118516	-0.419854
H	 0.8677998306	 1.9332751553	 0.0237196827	 0.113862
H	-0.555115284	 1.7407348013	-1.0143022965	 0.114844
H	-0.748559331	 1.863212252	 0.7417337237	 0.115454
H	-0.9893329572	-0.5222357766	 0.0001048499	 0.088702
H	 0.7160761217	-1.4978375363	-1.5560638223	 0.097295
H	 1.5837819516	 0.0562174788	-1.489441443	 0.101099
H	 2.9591694395	-1.1616756401	 0.4057602691	 0.094101
H	 0.9658652017	 0.0164503065	 2.1900594061	 0.094614
H	 0.358972947	-3.6376650642	 0.406016272	 0.286017
H	 2.7882886236	-3.5940726898	 4.081656383	 0.192221
114.2492	138.4559	163.3832	239.0068	257.0953	293.1412	308.5701	357.3554	446.7796	463.0381	538.3734	571.8977	594.3814	674.028	679.663	721.5007	837.2809	864.4176	882.1362	901.8258	949.6786	988.2339	1016.2465	1024.8029	1053.1306	1107.3687	1123.637	1142.9631	1197.3539	1239.3748	1248.0895	1262.5367	1287.0559	1300.4257	1357.9443	1407.2433	1414.1128	1481.3464	1494.2523	1500.8573	2231.6677	3023.8587	3058.279	3069.4875	3093.4227	3096.4519	3112.1041	3174.2659	3185.9183	3502.3892	3799.9568
CC1CC2C1C2(O)C#C	C[C@H]1C[C@H]2[C@@H]1[C@]2(O)C#C	
InChI=1S/C8H10O/c1-3-8(9)6-4-5(2)7(6)8/h1,5-7,9H,4H2,2H3	InChI=1S/C8H10O/c1-3-8(9)6-4-5(2)7(6)8/h1,5-7,9H,4H2,2H3/t5-,6-,7+,8-/m0/s1
