17
gdb 55538	3.30863	1.06905	0.85243	2.3401	72.37	-0.2589	-0.0195	0.2394	1336.4876	0.13501	-455.16316	-455.153865	-455.152921	-455.198619	32.434	
C	 0.1437831713	 1.2596744852	-0.3443005097	-0.495426
C	-0.593315914	-0.0636791906	-0.4582779318	 0.40823
O	-1.2148616202	-0.39506572	-1.4471413611	-0.34666
N	-0.4903411949	-0.8498148819	 0.6732008445	-0.354568
C	-1.0004718562	-2.1324139265	 0.903963312	 0.342862
N	-0.6392751565	-2.719163346	 1.97293491	-0.512006
C	-1.9455356087	-2.712428713	-0.1105656582	 0.003576
C	-1.5336751162	-3.8806689089	-0.9037402936	-0.160161
O	-2.4056026491	-4.0210279356	 0.2199040516	-0.232609
H	 1.2135352221	 1.096120605	-0.1766326972	 0.14661
H	 0.0044275184	 1.8168862497	-1.2696004431	 0.157174
H	-0.2386614838	 1.8478466715	 0.4962813438	 0.147386
H	 0.0876308539	-0.5238400711	 1.4359559341	 0.260555
H	-1.1119197143	-3.6230124791	 2.0240669271	 0.241682
H	-2.6883934632	-2.0421406786	-0.5277729528	 0.135137
H	-1.9881012934	-4.049551995	-1.8776528869	 0.132158
H	-0.5335945951	-4.2876521952	-0.7664991287	 0.126058
50.5394	67.9321	74.4574	134.7786	188.3496	267.4734	283.9277	355.8009	412.1548	572.1884	584.3493	658.5207	689.3608	713.7258	772.078	877.0807	914.7748	933.0542	983.0388	995.4811	1042.0068	1054.3735	1086.5343	1141.1446	1158.8014	1167.8725	1248.6803	1277.2854	1355.693	1387.7132	1456.9032	1465.4971	1482.7107	1506.2382	1520.676	1715.42	1797.2702	3044.8077	3094.8324	3107.6375	3167.9878	3181.6065	3193.2875	3478.895	3599.4425
CC(=O)NC(=N)C1CO1	CC(=O)NC(=N)[C@H]1CO1	
InChI=1S/C5H8N2O2/c1-3(8)7-5(6)4-2-9-4/h4H,2H2,1H3,(H2,6,7,8)	InChI=1S/C5H8N2O2/c1-3(8)7-5(6)4-2-9-4/h4H,2H2,1H3,(H2,6,7,8)/t4-/m1/s1
