17
gdb 115034	2.22887	1.55123	1.00682	3.031	74.46	-0.2255	0.0225	0.248	1157.7191	0.136249	-417.97091	-417.962229	-417.961284	-418.004405	32.319	
O	-0.256272633	 1.4959284387	-0.2025114926	-0.430343
C	 0.0011017504	 0.0988280965	-0.1005598891	-0.101522
C	-1.3520420067	-0.5723119476	 0.1277464605	 0.005302
N	-2.2966174414	-0.2291616309	-0.9452708989	-0.296147
C	-2.314486052	-1.3139654086	-1.8026977043	 0.059153
N	-1.8247671781	-2.4184292542	-1.3865843531	-0.248649
C	-1.3410810419	-2.135514502	-0.007058858	-0.176334
C	-0.0593070398	-2.7701046356	 0.2814823756	 0.350654
C	 0.9917496381	-3.292088345	 0.5402343445	-0.462594
H	 0.5668482208	 1.9406236084	-0.4234350852	 0.293511
H	 0.458156893	-0.2932070697	-1.0208371946	 0.106786
H	 0.6737215977	-0.1320332079	 0.7358195683	 0.108059
H	-1.745600542	-0.2561803857	 1.0974256601	 0.097787
H	-2.1976005424	 0.701222145	-1.3304433045	 0.251113
H	-2.782899253	-1.2085852907	-2.7776479622	 0.125791
H	-2.0867498797	-2.5469849794	 0.6879345982	 0.120565
H	 1.9173855701	-3.7642353312	 0.7592203354	 0.196867
81.6942	125.8215	134.6383	207.1076	251.9705	274.8203	351.9826	423.7277	482.1731	549.4022	582.2812	626.2189	646.4718	651.7379	788.5889	817.988	875.9113	901.7869	966.2964	1016.9385	1054.7461	1065.4457	1086.7392	1105.6173	1143.9541	1210.1884	1246.7872	1268.8059	1282.8049	1329.2352	1339.9634	1380.6589	1424.9627	1453.2411	1512.8045	1682.603	2238.8417	2997.5554	2999.391	3041.8594	3076.3268	3180.7502	3503.9535	3584.2366	3837.5386
OCC1NC=NC1C#C	OC[C@H]1N[CH][N][C@H]1C#C	
InChI=1S/C6H8N2O/c1-2-5-6(3-9)8-4-7-5/h1,4-6,9H,3H2,(H,7,8)	InChI=1S/C6H8N2O/c1-2-5-6(3-9)8-4-7-5/h1,4-6,9H,3H2,(H,7,8)/t5-,6+/m0/s1
