15
gdb 44076	3.25621	1.70846	1.52383	4.9215	65.64	-0.258	0.0022	0.2601	884.6502	0.113368	-457.678539	-457.672255	-457.67131	-457.709027	25.765	
O	-0.1262086298	 0.0811864586	 0.04429102	-0.351195
C	 0.0250245028	 1.2643711232	 0.0421833594	 0.477502
O	-0.9767019608	 2.1864463917	 0.1499855464	-0.261479
C	-0.2681894265	 3.4814071133	 0.0974020566	 0.325469
C	-1.0579649637	 4.2688605689	-0.9755567656	-0.171124
O	-0.2979026874	 3.5144923049	-2.0016169366	-0.304041
C	 0.7309117062	 3.3030241178	-0.9903817141	 0.133777
C	 1.2547221173	 2.1394429363	-0.0567989244	-0.277142
C	 0.8807918759	 3.2131116718	 1.1136228038	-0.330644
H	-2.1282098826	 4.0689832601	-1.034884898	 0.146541
H	-0.8332180003	 5.3383945229	-1.0305582779	 0.121988
H	 1.4889080315	 4.0878573987	-1.0713567751	 0.104138
H	 2.2235014715	 1.6546403458	-0.1405517727	 0.1115
H	 1.6176057647	 4.0115874634	 1.1995014641	 0.133079
H	 0.617580011	 2.7990899726	 2.0879209041	 0.141631
153.6619	297.2732	341.511	365.8496	473.5218	492.7563	583.3175	620.9109	732.3227	783.1375	786.5874	826.0093	865.9661	886.5339	894.3025	928.0173	964.3265	992.7385	1007.5759	1037.711	1090.6228	1119.9503	1135.6343	1189.8106	1203.8092	1222.1046	1247.2228	1267.4443	1303.3121	1378.4493	1481.6048	1488.3938	1914.7924	3055.5376	3063.0428	3089.4743	3145.6352	3164.788	3167.2331
O=C1OC23COC2C1C3	O=C1O[C@]23CO[C@@H]2[C@H]1C3	
InChI=1S/C6H6O3/c7-5-3-1-6(9-5)2-8-4(3)6/h3-4H,1-2H2	InChI=1S/C6H6O3/c7-5-3-1-6(9-5)2-8-4(3)6/h3-4H,1-2H2/t3-,4-,6-/m1/s1
