19
gdb 117919	2.30658	0.97624	0.75555	0.8872	74.32	-0.2657	-0.1088	0.1569	1535.3145	0.15553	-460.183936	-460.173498	-460.172554	-460.220336	36.192	
C	 0.0931546489	 1.6296778152	 0.2703888683	-0.386403
C	 0.0456669926	 0.1036242012	 0.1630026212	-0.16422
C	 0.7638326912	-0.5904033206	 1.325324179	-0.202617
C	 0.7557187549	-2.1294661733	 1.1666475171	 0.032549
O	 1.3541012205	-2.5288263614	-0.0407611632	-0.433526
C	 1.4726639799	-2.783104071	 2.3314072729	 0.264737
O	 2.5287008766	-3.3620389405	 2.1878592753	-0.301592
C	 0.85658448	-2.7361791749	 3.7322551215	 0.098022
O	-0.2166897459	-2.2513185621	 3.9746812659	-0.21514
H	 1.1259990784	 1.9954921139	 0.2673822864	 0.115432
H	-0.4278065498	 2.1004113759	-0.5689825807	 0.115945
H	-0.3790857053	 1.9803570144	 1.1948487122	 0.115147
H	-0.9989569266	-0.2332244441	 0.1366817931	 0.097881
H	 0.5017069425	-0.2240012638	-0.7763230133	 0.122964
H	 1.8077699123	-0.2533000697	 1.3721078258	 0.100541
H	 0.2860324895	-0.3266079411	 2.2749656522	 0.119205
H	-0.2916093215	-2.4678375562	 1.1840376047	 0.109158
H	 2.1899030533	-2.9560234352	 0.1992170341	 0.293683
H	 1.4989678385	-3.2209836467	 4.4966158776	 0.118233
53.7742	90.5181	98.003	115.1092	138.5177	191.6816	251.4957	278.0187	326.4342	344.183	391.2521	446.3936	524.3046	602.7306	669.4854	753.8531	827.516	874.1428	897.1796	972.2156	1009.1228	1049.1879	1099.252	1116.6077	1148.0917	1190.2016	1256.9874	1273.423	1306.4496	1331.8319	1354.876	1369.1422	1384.9538	1412.9441	1436.2784	1476.128	1494.7596	1499.9453	1510.4131	1784.5695	1822.4655	2931.7237	2997.9872	3019.9918	3028.4116	3032.5661	3072.8905	3086.3784	3102.7286	3105.8807	3716.6191
CCCC(O)C(=O)C=O	CCC[C@@H](O)C(=O)C=O	
InChI=1S/C6H10O3/c1-2-3-5(8)6(9)4-7/h4-5,8H,2-3H2,1H3	InChI=1S/C6H10O3/c1-2-3-5(8)6(9)4-7/h4-5,8H,2-3H2,1H3/t5-/m1/s1
