19
gdb 66492	3.57033	1.78657	1.66629	1.3489	83.93	-0.188	-0.0703	0.1177	901.8191	0.159997	-348.612144	-348.605353	-348.604408	-348.642645	29.151	
C	-0.0249453362	 1.5570705715	-0.0941691163	-0.521497
C	-0.0022333391	 0.065224538	 0.0438846293	 0.365512
C	 0.4596750367	-1.0200013697	-0.8972271369	-0.119689
C	 1.1818529585	-0.7988861563	 0.4229870488	-0.126853
C	 0.6866089542	-1.8778084391	 1.4015099386	-0.030495
C	-0.5531998407	-1.4847398737	 1.8635252599	-0.085183
C	-1.1107100207	-0.8318088873	 0.6295820235	-0.148819
C	-0.604516411	-2.0324008044	-0.4324708038	-0.048983
C	 0.2187479494	-3.053658103	 0.4952404228	-0.245353
H	 0.9041629661	 1.9176684955	-0.5485968332	 0.119897
H	-0.8549839682	 1.895817853	-0.7250278243	 0.116104
H	-0.1259741497	 2.044952481	 0.8823068923	 0.123353
H	 0.9367749829	-0.9603804775	-1.8682999456	 0.080971
H	 2.1894613494	-0.4034371967	 0.4453023545	 0.078174
H	-1.1820900868	-2.1773965888	 2.4229047305	 0.101992
H	-2.1509617042	-0.5100635988	 0.5850195268	 0.069844
H	-1.2877524533	-2.4303554968	-1.188091665	 0.064372
H	 1.0036253767	-3.5562112509	-0.0806187396	 0.101035
H	-0.4047859038	-3.7953146663	 0.9981340979	 0.105618
198.1192	215.2181	257.847	396.1146	424.7369	537.6422	550.1354	637.4458	659.1634	672.0509	740.0916	770.7942	801.2865	852.0355	858.9585	877.0969	903.1124	944.3478	946.899	975.1648	991.3528	1024.7207	1032.2205	1050.5964	1075.0544	1108.0955	1114.8543	1157.4251	1177.9065	1205.0382	1218.3942	1223.6484	1254.8016	1272.8407	1300.1079	1407.3175	1433.2852	1459.5177	1485.7763	1486.7165	1498.9179	3020.8556	3042.0766	3078.0788	3080.3146	3092.533	3108.7123	3117.1046	3124.4627	3176.7508	3192.6669
CC12C3C1C1=CC2C3C1	C[C@@]12[C@H]3[C@@H]1[C]1[CH][C@@H]2[C@@H]3C1	
InChI=1S/C9H10/c1-9-6-3-4-2-5(6)8(9)7(4)9/h3,5-8H,2H2,1H3	InChI=1S/C9H10/c1-9-6-3-4-2-5(6)8(9)7(4)9/h3,5-8H,2H2,1H3/t5-,6+,7-,8+,9-/m0/s1
