21
gdb 78347	2.59539	1.40701	1.10919	1.2857	84.09	-0.2153	0.0808	0.2961	1198.8152	0.182108	-383.191008	-383.182201	-383.181256	-383.223978	34.364	
C	 0.0162301265	 1.5970495676	-0.0868014251	-0.407024
C	 0.0365647201	 0.0793870712	 0.0206316351	-0.106503
C	 0.9884734494	-0.7062068261	-0.906380569	-0.039687
C	 1.6606348099	-1.360028433	 0.2585979169	-0.128066
N	 2.3673177377	-0.3368590174	-0.5426755035	-0.106083
C	 3.3675680414	-0.9063178861	-1.4418316942	-0.315751
C	 0.7716423297	-0.5955929517	 1.2163946447	 0.366947
C	 1.0540680011	-0.0742010625	 2.5658518439	-0.299801
N	 0.1327745521	-1.2195948287	 2.3683706096	-0.383377
H	 1.0366385334	 1.9877768549	-0.0764841922	 0.138693
H	-0.4694394751	 1.9188886517	-1.0147275943	 0.110691
H	-0.5361339384	 2.0476727551	 0.7455533507	 0.107322
H	-0.9755071459	-0.3372680857	-0.0555158716	 0.076103
H	 0.7702183528	-1.1062719969	-1.8895973747	 0.089642
H	 2.0588767019	-2.3611794236	 0.3703728554	 0.097845
H	 3.1000447418	-1.9009963818	-1.8376115626	 0.09737
H	 3.5134165697	-0.2295967005	-2.289860727	 0.122596
H	 4.3192359592	-0.9967507615	-0.9088024018	 0.124032
H	 1.9875394533	-0.3184235476	 3.0654147028	 0.117778
H	 0.6331479615	 0.8903032554	 2.8393578726	 0.110252
H	-0.8325839021	-0.9055835629	 2.4457030043	 0.227021
116.3294	168.3809	202.6208	219.5598	233.6116	244.4764	303.4	358.1498	420.2936	466.7704	569.8951	593.4595	734.4613	825.2519	840.1605	850.8704	881.8385	899.3178	903.0342	935.2682	977.3526	1015.3945	1031.0204	1059.038	1084.0711	1114.7353	1123.5028	1131.3819	1143.9971	1157.0777	1213.3321	1244.5406	1248.108	1263.5308	1307.4946	1353.7052	1357.3762	1402.5021	1432.5411	1453.8081	1490.3803	1493.436	1499.5116	1501.492	1516.422	2957.972	3027.9674	3034.4416	3065.7872	3087.4733	3102.5037	3104.8629	3125.0022	3179.8344	3189.0961	3196.2454	3482.01
CC1C2C(N2C)C11CN1	C[C@H]1[C@@H]2[C@@H](N2C)[C@]21CN2	
InChI=1S/C7H12N2/c1-4-5-6(9(5)2)7(4)3-8-7/h4-6,8H,3H2,1-2H3	InChI=1S/C7H12N2/c1-4-5-6(9(5)2)7(4)3-8-7/h4-6,8H,3H2,1-2H3/t4-,5+,6+,7+,9?/m0/s1
