18
gdb 94387	2.98889	1.47656	1.23871	3.7928	71.29	-0.2272	0.0563	0.2835	1048.583	0.147461	-439.005969	-438.998017	-438.997073	-439.038595	30.535	
O	 0.1292149944	 1.1538516504	-0.5156005639	-0.427117
C	 0.1090019083	-0.1365698383	 0.0417976568	-0.019732
C	-0.0170310598	-0.2912642077	 1.5734795948	-0.115387
O	-1.2030279731	-1.1005902283	 1.4111950509	-0.323268
C	-1.2797244792	-0.7979603077	 0.0053439879	 0.44934
C	-2.5712204019	-0.0794377267	-0.453953368	-0.236507
N	-2.9852707648	-1.2513171525	-1.312306624	-0.127346
C	-1.8954107644	-1.4113902967	-2.2875400293	-0.244437
C	-1.6877514402	-1.9327424667	-0.9177532909	-0.12661
H	 1.0357140882	 1.4761193212	-0.5209708892	 0.291674
H	 0.8860566768	-0.7799383736	-0.3912451959	 0.080866
H	 0.7772402761	-0.829560913	 2.1020172269	 0.102759
H	-0.2283615493	 0.6580938245	 2.0819086028	 0.104585
H	-3.2629093064	 0.0354125435	 0.3827666022	 0.124555
H	-2.4672795828	 0.8635137734	-0.9974592499	 0.118411
H	-2.1201700245	-2.1316851031	-3.0682578627	 0.122584
H	-1.3477428649	-0.5313146538	-2.6197914871	 0.123119
H	-1.6334676427	-2.9881186846	-0.6718611912	 0.10251
81.4738	120.5728	188.0306	251.8654	298.2335	370.6178	439.5419	442.787	510.3502	551.8026	739.8072	765.7846	793.4503	849.3872	883.9794	915.8182	946.8407	973.456	1013.3287	1046.1745	1057.2574	1091.1404	1113.7922	1117.3679	1143.9397	1150.8684	1169.7128	1191.9441	1202.5182	1232.8969	1251.403	1276.783	1314.9417	1329.5332	1366.7532	1441.8524	1477.2251	1503.6033	1515.97	3015.6764	3017.7825	3062.4144	3075.0188	3101.3744	3130.8137	3169.907	3196.828	3825.1422
OC1COC11CN2CC12	O[C@H]1CO[C@]21CN1C[C@@H]21	
InChI=1S/C6H9NO2/c8-5-2-9-6(5)3-7-1-4(6)7/h4-5,8H,1-3H2	InChI=1S/C6H9NO2/c8-5-2-9-6(5)3-7-1-4(6)7/h4-5,8H,1-3H2/t4-,5-,6+,7?/m0/s1
