14
gdb 25107	3.53518	1.32605	0.96433	2.3282	76.86	-0.26	-0.0867	0.1733	1124.5913	0.102373	-436.714806	-436.707489	-436.706545	-436.747313	27.168	
N	 0.0504256077	 1.0013840649	-1.0817301777	-0.477947
C	 0.0448852807	 0.1242376898	-0.1640390018	 0.353213
O	 1.265439712	-0.291112006	 0.3431692133	-0.241004
C	 1.5356961259	-1.1958542524	 1.306479311	 0.068438
C	 0.7567223763	-1.9708236399	 2.0714485685	-0.230114
C	-0.7011863416	-2.1013036787	 2.1216136002	 0.348481
O	-1.2238972797	-2.8791937156	 2.9054736477	-0.338776
C	-1.5689242106	-1.2986911144	 1.2292259771	-0.1917
C	-1.2435913922	-0.3924010682	 0.2999345636	-0.072789
H	 1.007610081	 1.2746372654	-1.3107665969	 0.235176
H	 2.6140148541	-1.2448938168	 1.4220126645	 0.143144
H	 1.2768639859	-2.6124772837	 2.7742275105	 0.125604
H	-2.6219306616	-1.5113258136	 1.3889300959	 0.132308
H	-2.044689788	 0.0886084293	-0.2514081359	 0.145967
56.1904	105.6995	276.9893	345.3734	371.9056	381.396	409.2819	542.6669	594.8561	689.9879	752.8798	775.1355	804.3343	830.245	885.6851	897.772	915.1865	988.9103	1010.3359	1048.5023	1128.887	1214.9331	1279.6351	1346.0604	1367.5061	1406.0925	1447.2661	1674.1283	1686.5233	1718.5454	1735.0645	3179.0818	3183.7	3199.7676	3204.1609	3482.0539
N=C1OC=CC(=O)C=C1	[NH]C1=C[CH]C(=O)C=CO1	
InChI=1S/C6H5NO2/c7-6-2-1-5(8)3-4-9-6/h1-4,7H	InChI=1S/C6H5NO2/c7-6-2-1-5(8)3-4-9-6/h1-4,7H
