16
gdb 17363	4.03244	1.56766	1.48776	2.9428	64.5	-0.2375	-0.0138	0.2236	897.4509	0.129076	-383.715734	-383.708194	-383.70725	-383.748052	27.742	
C	 0.5586875337	 0.5246125481	-0.7466872123	-0.493543
C	-0.1829762529	 0.1485509176	 0.5193288358	 0.380413
O	 0.0512793689	 0.6775156057	 1.5836764757	-0.309876
C	-1.2327240115	-0.9523394685	 0.438944327	-0.105465
C	-2.1229882063	-1.1985232193	-0.8387933751	-0.292267
C	-1.5823397487	-2.6337038161	-0.8891399811	 0.037388
O	-0.1594362941	-2.5470689043	-1.0347090902	-0.232392
C	-0.7133968446	-2.405066989	 0.2753350738	 0.007526
H	 0.865303235	-0.3710994973	-1.2936301578	 0.161412
H	-0.1081842232	 1.0892979313	-1.4097843069	 0.137476
H	 1.4157359232	 1.1504120735	-0.4944707808	 0.136221
H	-1.8476852248	-0.8786390124	 1.3383211377	 0.104355
H	-3.1875460887	-1.1347866571	-0.6049023253	 0.119002
H	-1.9091975457	-0.5992787076	-1.7259957518	 0.118248
H	-2.0589160208	-3.5366808954	-1.2510266222	 0.113609
H	-0.3442453194	-3.0704067492	 1.0466259435	 0.117893
50.3657	158.5237	178.1736	200.4839	312.3957	425.0959	451.9071	519.328	616.7833	724.7087	769.6553	835.4084	854.9615	880.0798	925.0821	946.5295	988.4675	1014.7585	1029.875	1065.4196	1074.4016	1143.6836	1202.8347	1233.749	1239.7176	1252.0166	1266.3989	1316.3403	1381.979	1389.932	1464.9865	1471.2129	1478.1325	1798.1502	3036.5024	3076.4756	3096.232	3106.0273	3133.9961	3156.4378	3187.6514	3202.8258
CC(=O)C1CC2OC12	CC(=O)[C@H]1C[C@H]2O[C@@H]12	
InChI=1S/C6H8O2/c1-3(7)4-2-5-6(4)8-5/h4-6H,2H2,1H3	InChI=1S/C6H8O2/c1-3(7)4-2-5-6(4)8-5/h4-6H,2H2,1H3/t4-,5-,6+/m1/s1
