13
gdb 27520	2.02893	2.01178	1.01016	2.6862	63.8	-0.2571	-0.0209	0.2363	1062.0972	0.092434	-486.155824	-486.148637	-486.147693	-486.187736	27.277	
O	-0.1004477052	 1.2812793789	 0.1385054339	-0.393175
C	 0.0423199253	-0.0353664365	-0.0162274283	 0.520648
N	 1.1906257876	-0.5990239172	 0.1448485155	-0.432559
C	 1.2679452482	-1.9736863563	-0.031678105	 0.43612
O	 2.277425697	-2.6224665954	 0.0883669398	-0.363711
N	 0.0584544863	-2.6238770104	-0.3757212705	-0.413166
C	-1.1779874769	-2.0354789086	-0.5517604476	 0.465367
N	-2.2954795018	-2.5576434775	-0.8586153581	-0.56465
N	-1.1163667142	-0.6549987397	-0.3453583613	-0.359736
H	 0.7771575452	 1.6201064353	 0.3694995253	 0.324494
H	 0.1368260406	-3.6220627511	-0.4992910533	 0.267235
H	-2.223976313	-3.5642032934	-0.984769811	 0.2226
H	-1.975278099	-0.1368339479	-0.4522861893	 0.290534
119.9845	135.7428	204.3513	357.708	388.4769	525.0597	534.6529	542.6666	576.8474	596.6817	622.7834	670.6763	713.4214	750.21	788.8312	791.7541	958.5499	1015.921	1075.4815	1131.1391	1206.3732	1253.2249	1342.4938	1393.388	1441.6128	1576.2649	1690.822	1765.4406	1835.3028	3527.6779	3633.8565	3641.1217	3765.4261
OC1=NC(=O)NC(=N)N1	OC1=NC(=O)N[C]([NH])N1	
InChI=1S/C3H4N4O2/c4-1-5-2(8)7-3(9)6-1/h(H4,4,5,6,7,8,9)	InChI=1S/C3H4N4O2/c4-1-5-2(8)7-3(9)6-1/h(H4,4,5,6,7,8,9)
