17
gdb 106225	3.50509	1.41723	1.24611	1.9117	71.9	-0.2277	-0.005	0.2227	1024.4555	0.136116	-421.76676	-421.759311	-421.758367	-421.798886	29.334	
O	 0.1060275184	 1.2528207399	-0.5420222775	-0.414163
C	-0.0228313627	 0.029339981	 0.171551132	-0.178096
C	-1.428850704	-0.5131380614	 0.1974223712	 0.243919
C	-2.4958422809	 0.0488464195	 1.0642532322	-0.141078
C	-3.5172912017	-0.8145533945	 1.1650686171	-0.101375
C	-3.2287070769	-1.9641967296	 0.2370395785	 0.025151
O	-3.3397415136	-1.3857914297	-1.1388180956	-0.299593
C	-1.9493647693	-1.1891462461	-1.1360376953	 0.075411
C	-1.6812171824	-2.0046407268	 0.0748739432	-0.208539
H	-0.4863682106	 1.8957343544	-0.1397615607	 0.283608
H	 0.6371306127	-0.6769564976	-0.34445895	 0.106936
H	 0.3564650428	 0.1305592905	 1.2010314621	 0.09379
H	-2.4703835581	 1.0529212287	 1.4739041572	 0.094821
H	-4.4715269955	-0.6446538449	 1.6454587611	 0.106372
H	-3.8110700871	-2.880347224	 0.3130460994	 0.087602
H	-1.4486081857	-1.0292825821	-2.0829811581	 0.123394
H	-0.9823768954	-2.7975956171	 0.3117672533	 0.101839
63.7762	154.2477	229.1837	309.5442	376.352	407.2869	429.9663	605.7391	630.1084	693.1636	722.3079	770.7163	814.7923	826.1847	847.3865	885.1656	899.0846	925.5565	965.9355	988.9687	998.9288	1056.5049	1061.6568	1093.8001	1100.7736	1166.6324	1198.8577	1211.4893	1257.1938	1269.8611	1312.8913	1363.1115	1373.2906	1389.094	1426.342	1501.3812	1626.8082	2975.5983	3063.4003	3138.703	3180.2726	3184.646	3201.6724	3228.4155	3821.3882
OCC12C=CC3OC1C23	OC[C@@]12C=C[C@H]3O[C@@H]1[C@@H]23	
InChI=1S/C7H8O2/c8-3-7-2-1-4-5(7)6(7)9-4/h1-2,4-6,8H,3H2	InChI=1S/C7H8O2/c8-3-7-2-1-4-5(7)6(7)9-4/h1-2,4-6,8H,3H2/t4-,5+,6-,7-/m1/s1
