21
gdb 94724	2.63705	1.52058	1.24822	0.9452	77.27	-0.2416	0.0638	0.3054	1099.6266	0.182799	-424.224647	-424.215991	-424.215047	-424.257629	33.959	
C	-0.2294628991	 1.5679111062	 0.2036066586	-0.462316
C	 0.1084187325	 0.1016049859	 0.0439654356	 0.437616
C	-1.0763332942	-0.9121793729	 0.1474127323	-0.278779
C	-0.3667280026	-1.6254584991	 1.3328912615	-0.22704
C	 0.8432233958	-0.6577428664	 1.1997419918	-0.100351
C	 2.093205109	-1.2349142494	 0.5257233925	 0.098334
O	 2.3888772796	-2.5306176754	 1.0165381297	-0.428194
C	 1.7139917828	-1.1987300707	-0.9711881578	-0.136369
O	 0.9081433835	-0.0468616004	-1.1321646187	-0.292748
H	 0.6828923027	 2.1669049313	 0.2846281432	 0.117517
H	-0.7959935701	 1.9229843444	-0.6636569231	 0.124863
H	-0.8366006169	 1.7311745827	 1.0990958803	 0.113022
H	-2.0396735396	-0.4550340406	 0.386691609	 0.095718
H	-1.198460677	-1.5163254066	-0.754986046	 0.104858
H	-0.8902137776	-1.5325557329	 2.2864661152	 0.099152
H	-0.1193799669	-2.6766424409	 1.1788350393	 0.118138
H	 1.0850329819	-0.0800112848	 2.0931781157	 0.066538
H	 2.9390638624	-0.5538270695	 0.6999899365	 0.071907
H	 3.2089774049	-2.8268445904	 0.6098666809	 0.286177
H	 2.5717851588	-1.1073559332	-1.6448810392	 0.098541
H	 1.1731168903	-2.1258409771	-1.2230395673	 0.093416
71.1855	185.9163	220.0291	232.6755	255.4598	262.7058	326.8485	390.894	431.5258	530.4582	580.8947	614.844	649.7806	740.6539	804.6411	863.0096	885.9587	912.6187	948.5003	954.0904	970.6546	1006.6414	1066.2267	1089.5025	1097.0571	1149.924	1164.717	1173.3606	1193.1007	1222.7954	1236.2604	1243.5378	1246.0666	1272.0713	1325.2742	1327.7021	1341.0232	1368.8059	1407.8613	1427.9498	1472.311	1482.1982	1491.2597	1493.699	1518.9794	2971.0963	2990.6741	3034.547	3060.1194	3076.3136	3076.7066	3093.8376	3106.1292	3108.3714	3113.4401	3134.3596	3822.1763
CC12CCC1C(O)CO2	C[C@]12CC[C@H]1[C@@H](O)CO2	
InChI=1S/C7H12O2/c1-7-3-2-5(7)6(8)4-9-7/h5-6,8H,2-4H2,1H3	InChI=1S/C7H12O2/c1-7-3-2-5(7)6(8)4-9-7/h5-6,8H,2-4H2,1H3/t5-,6-,7-/m0/s1
