17
gdb 39809	2.99851	1.5851	1.564	2.8714	71.7	-0.24	-0.0031	0.2369	938.9371	0.136905	-421.777624	-421.770768	-421.769824	-421.808604	27.904	
C	 0.0405297764	 1.5479092206	-0.0323552174	-0.286519
O	 1.1911727344	 0.6734015541	 0.0030480299	-0.288685
C	-0.0930003824	 0.1001234526	-0.0001121176	 0.511124
C	-0.5336763793	-0.9361082448	 1.0358316711	-0.022467
C	-2.047561517	-0.8631221853	 1.2955799773	-0.267549
C	-2.76536907	-0.808153167	-0.0399771277	-0.070188
C	-2.0526888946	-0.8426696726	-1.1671489334	-0.050394
C	-0.5505245011	-0.9661526627	-1.0016494033	-0.077927
O	-0.2882959616	-1.9682071716	 0.033456824	-0.296862
H	-0.1214886629	 2.1350928542	 0.8704573473	 0.118136
H	-0.1051052756	 2.0858932071	-0.9679707537	 0.119838
H	 0.0752761582	-1.0649822297	 1.9340572848	 0.092639
H	-2.3744126514	-1.7356116304	 1.8763178395	 0.119995
H	-2.2858506991	 0.0209730367	 1.9023671253	 0.11084
H	-3.849810402	-0.7516242903	-0.0446081583	 0.098771
H	-2.498385292	-0.7887635113	-2.1542412194	 0.097093
H	 0.02142831	-1.1382427893	-1.9145222083	 0.092154
146.8806	213.0329	287.3039	339.9258	384.1792	472.0774	499.4208	567.0647	595.7276	711.0422	783.6693	849.3967	866.238	876.0248	911.0317	924.9883	950.1709	962.4464	972.0614	996.5882	1020.9881	1108.3159	1111.8646	1144.3762	1153.2929	1169.9573	1177.0721	1224.7573	1270.1073	1285.6118	1321.9088	1355.2952	1388.0269	1458.4104	1471.0946	1551.2961	1691.4402	3016.0212	3046.07	3084.2492	3089.0378	3111.169	3168.3225	3169.9411	3196.2356
C1OC11C2CC=CC1O2	C1O[C@]21[C@H]1CC=C[C@@H]2O1	
InChI=1S/C7H8O2/c1-2-5-7(4-8-7)6(3-1)9-5/h1-2,5-6H,3-4H2	InChI=1S/C7H8O2/c1-2-5-7(4-8-7)6(3-1)9-5/h1-2,5-6H,3-4H2/t5-,6+,7-/m0/s1
