15
gdb 131387	3.38849	1.1447	0.86011	1.611	72.01	-0.2202	0.0269	0.2471	1256.1918	0.112776	-416.79529	-416.786862	-416.785918	-416.829125	31.161	
O	 1.2455942243	 1.0758961396	-0.0930985001	-0.431426
C	 0.5543639416	-0.0838962824	-0.0430603291	 0.350785
N	 0.5804718852	-0.9659173034	-1.0288529226	-0.33609
N	-0.2289830558	-1.9613789403	-0.5843205357	-0.210771
C	-0.7460252089	-1.7118493112	 0.6399722766	-0.090754
C	-0.26024739	-0.4850972807	 1.0423786549	 0.123612
C	-0.5094727061	 0.2777427357	 2.3153492755	-0.479935
C	-1.403107819	-0.4091426742	 3.2424430241	 0.303175
C	-2.1398700299	-0.9836790328	 3.998292467	-0.447906
H	 1.7127687355	 1.0936560127	-0.9377045227	 0.30411
H	-0.3760304033	-2.7651359835	-1.167898786	 0.274829
H	-1.4089768698	-2.3996919887	 1.1397403146	 0.147708
H	 0.4454072706	 0.4818175071	 2.8192524165	 0.148635
H	-0.9250822659	 1.2673238743	 2.0801126251	 0.148649
H	-2.7891323985	-1.4779204822	 4.6776131422	 0.195379
30.5166	113.285	228.9071	229.643	318.1072	329.6365	391.4184	405.9577	419.4207	531.0819	612.2311	642.2772	648.2974	665.9885	723.966	800.5834	808.3474	945.9104	956.1732	962.7979	1075.6147	1124.5018	1216.3265	1223.9475	1248.6524	1323.2762	1354.4597	1450.544	1471.8099	1492.6197	1566.0682	1642.2466	2241.5667	3009.2762	3027.6121	3270.0445	3506.4705	3696.2754	3796.9184
OC1=NNC=C1CC#C	Oc1n[nH]cc1CC#C	
InChI=1S/C6H6N2O/c1-2-3-5-4-7-8-6(5)9/h1,4H,3H2,(H2,7,8,9)	InChI=1S/C6H6N2O/c1-2-3-5-4-7-8-6(5)9/h1,4H,3H2,(H2,7,8,9)
