22
gdb 12549	3.09431	1.72745	1.20386	0.2999	83.55	-0.2331	0.0235	0.2565	1077.8771	0.202435	-313.09145	-313.083348	-313.082404	-313.123627	31.992	
C	 0.147140391	 1.64070242	 0.0005068268	-0.408665
C	-0.0003645554	 0.1121878102	-0.0190004588	-0.005106
C	 0.6481323637	-0.4830192848	-1.2881777473	-0.169162
C	 0.2256282284	-1.9182274655	-1.6333286196	-0.195844
C	 0.6687842723	-3.0132604714	-0.6535928118	-0.174827
C	 0.045555942	-2.918792482	 0.7521496221	-0.244361
C	 0.557327264	-1.7758950961	 1.5970705547	-0.080859
C	 0.5421374213	-0.485582878	 1.2640474047	-0.024845
H	 1.204491214	 1.9310999858	 0.0151754688	 0.114871
H	-0.311951439	 2.0955940208	-0.8827106145	 0.108089
H	-0.3272363287	 2.0725592156	 0.8879444741	 0.111402
H	-1.0771722604	-0.116043021	-0.0730561642	 0.079062
H	 0.3823750069	 0.1590884503	-2.1379460121	 0.085291
H	 1.7405026309	-0.4287476337	-1.1898247796	 0.090768
H	-0.8695972993	-1.950656651	-1.7292621339	 0.088172
H	 0.6203470886	-2.1636573119	-2.6270944018	 0.089043
H	 0.4000843565	-3.985927685	-1.0840897219	 0.088131
H	 1.7624081347	-3.0055519025	-0.5613788017	 0.093869
H	-1.047586207	-2.8432719668	 0.6458322639	 0.103637
H	 0.227816523	-3.8598954114	 1.2814363361	 0.094385
H	 0.9730592461	-2.0451823392	 2.5657489466	 0.081106
H	 0.9488431764	 0.2289605675	 1.9782299593	 0.075844
76.0238	182.345	241.6103	263.1144	297.3035	332.4282	354.351	399.0421	479.9446	537.2253	656.7299	705.9153	782.2882	816.3894	862.2869	875.1392	905.1142	955.7468	982.564	997.0547	1007.6779	1049.1152	1080.0799	1099.459	1115.5234	1161.2173	1179.6956	1231.1786	1263.4762	1277.4722	1297.5636	1325.7772	1339.3006	1364.1455	1372.5799	1385.6938	1397.5782	1408.3534	1430.3988	1478.9606	1481.4132	1485.5079	1493.0053	1497.9945	1502.6285	1722.4607	2968.8644	2992.1546	3000.746	3010.4275	3016.3611	3026.4108	3046.1063	3050.6745	3059.6251	3064.2305	3091.8515	3102.8169	3124.8102	3152.9428
CC1CCCCC=C1	C[C@H]1CCCCC=C1	
InChI=1S/C8H14/c1-8-6-4-2-3-5-7-8/h4,6,8H,2-3,5,7H2,1H3	InChI=1S/C8H14/c1-8-6-4-2-3-5-7-8/h4,6,8H,2-3,5,7H2,1H3/t8-/m1/s1
