20
gdb 78545	2.47223	1.58039	1.27289	1.7225	79.82	-0.2085	0.0581	0.2666	1109.9406	0.167664	-403.057352	-403.04811	-403.047166	-403.090647	35.224	
C	-0.1864276458	 1.5510630256	-0.0333722987	-0.298724
N	 0.1453124781	 0.1290958842	 0.0848874857	-0.105391
C	 1.3531975056	-0.5498755023	-0.290382881	-0.203157
C	 2.6886632348	 0.1417701166	 0.2082026635	 0.412208
C	 4.0474116775	-0.0379973156	-0.3803674728	-0.504346
O	 2.3408305997	 1.3867746558	 0.8302762839	-0.28095
C	 2.1808901147	 0.170533741	 1.5762337514	-0.131043
C	 0.8422972274	-0.5552603422	 1.1308200517	 0.293319
C	 0.19061415	-1.6180475715	 1.9641077149	-0.491125
H	 0.4482004922	 2.0497096104	-0.7689996886	 0.124235
H	-1.2309250514	 1.6363464908	-0.3574723373	 0.103615
H	-0.0719701904	 2.0769848523	 0.9172191765	 0.124188
H	 1.3303615213	-1.3292694654	-1.0471526198	 0.089501
H	 4.1170074111	 0.4527523744	-1.3582131213	 0.130944
H	 4.8103951224	 0.3910032094	 0.2747246113	 0.134872
H	 4.2673018706	-1.1011020404	-0.524667339	 0.127746
H	 2.6879351911	 0.0890956591	 2.5314520415	 0.101875
H	-0.3283398247	-1.17898619	 2.8251713225	 0.122059
H	-0.5433394837	-2.1677190159	 1.3694971948	 0.133292
H	 0.9307805492	-2.3276080364	 2.3510638607	 0.11688
121.2239	158.6654	188.3694	192.6322	207.2643	252.7254	273.6101	309.1902	356.2764	434.7644	544.392	574.2085	597.7952	702.0662	746.6381	776.2807	853.0719	857.379	876.812	938.3454	972.7452	980.4884	1028.0821	1086.6623	1109.9381	1121.7011	1144.4859	1168.3571	1181.165	1184.7233	1239.5032	1268.2822	1398.5073	1405.2078	1435.0052	1455.9019	1468.4497	1482.6725	1484.6015	1487.1926	1492.7272	1505.0024	1506.9998	3019.8176	3023.4809	3030.4311	3080.4337	3090.5208	3091.6866	3118.7578	3120.0004	3127.9234	3145.0212	3177.6859
CN1C2C3(C)OC3C12C	CN1[C@H]2[C@@]3(C)O[C@H]3[C@@]12C	
InChI=1S/C7H11NO/c1-6-4(8(6)3)7(2)5(6)9-7/h4-5H,1-3H3	InChI=1S/C7H11NO/c1-6-4(8(6)3)7(2)5(6)9-7/h4-5H,1-3H3/t4-,5+,6+,7-,8?/m1/s1
