16
gdb 70773	3.85741	1.34834	1.13812	3.5575	75.07	-0.2491	-0.0034	0.2457	1062.6736	0.124873	-396.8307	-396.823135	-396.822191	-396.862594	29.18	
C	 0.0172822243	 1.4345705284	-0.0862323269	-0.532021
C	 0.0099681949	-0.058901725	-0.0438589905	 0.352457
N	 0.6067706716	-0.9415359635	-1.1079897885	-0.399506
C	 0.0673489477	-1.9138351674	-0.1085553364	 0.263509
C	 0.1422594929	-3.3438806734	-0.2349766421	 0.138578
N	 0.170555369	-4.498021437	-0.3097649986	-0.341722
C	 0.5040760202	-1.0043749279	 1.098872843	-0.092995
N	-0.8252487715	-0.9787104116	 1.7750694008	-0.339206
C	-1.1700834969	-1.0305647663	 0.3249921733	-0.125901
H	 1.0391579758	 1.8098278005	-0.1947521574	 0.141754
H	-0.5760714393	 1.8085009166	-0.9272331329	 0.128677
H	-0.4091754368	 1.8311794061	 0.8396831122	 0.151243
H	 0.0188954881	-0.9384675577	-1.9466115196	 0.218724
H	 1.4633143375	-1.0084879247	 1.6151220487	 0.109945
H	-1.0204528518	-1.8729004092	 2.2311671081	 0.226723
H	-2.1900327058	-1.0664817377	-0.0625624233	 0.099743
130.8111	137.8532	212.0447	248.1046	303.6513	429.6472	473.0845	520.8381	538.2721	589.1132	674.2492	732.9254	782.6588	840.0555	863.8192	890.364	924.3404	992.1875	1036.8352	1051.8694	1087.4793	1090.3479	1137.4536	1147.1172	1171.3042	1212.3918	1247.7536	1280.6318	1289.4977	1304.1674	1391.1976	1428.8978	1482.7611	1488.3056	2345.2479	3039.4551	3106.416	3107.5611	3123.2743	3135.4106	3401.6281	3421.8023
CC12NC3(C#N)C1NC23	C[C@@]12N[C@@]3(C#N)[C@@H]1N[C@@H]23	
InChI=1S/C6H7N3/c1-5-3-6(2-7,9-5)4(5)8-3/h3-4,8-9H,1H3	InChI=1S/C6H7N3/c1-5-3-6(2-7,9-5)4(5)8-3/h3-4,8-9H,1H3/t3-,4+,5-,6+
