16
gdb 123921	3.54896	1.5845	1.13242	4.3913	70.99	-0.2071	0.0089	0.2161	1020.1421	0.128612	-434.053068	-434.046269	-434.045324	-434.084165	27.243	
C	-0.0340184201	 1.4560708606	 0.0317007779	-0.163798
C	 1.4049900129	 2.0052652998	 0.0382019973	-0.173263
N	 2.0948150816	 1.5105742781	 1.2287709576	-0.391183
C	 1.9519491912	 0.1571907687	 1.4467995641	 0.421712
N	 2.7304416705	-0.5828238441	 2.2009692689	-0.271396
O	 2.1682932361	-1.8690097897	 2.1385777809	-0.183618
C	 1.0665538107	-1.8364317766	 1.3639692199	-0.014145
C	 0.8699836764	-0.5862079241	 0.8744486145	 0.112736
N	-0.108959745	-0.0104431102	 0.0429308953	-0.416052
H	-0.5505190838	 1.8372306183	 0.9204159704	 0.129069
H	-0.5690948569	 1.8245026932	-0.8467258553	 0.110693
H	 1.9135138457	 1.7120626284	-0.8952848794	 0.097195
H	 1.3806085886	 3.0985695494	 0.0773593457	 0.114007
H	 3.0198139423	 1.877117483	 1.4008986407	 0.250379
H	 0.5443383432	-2.7718938835	 1.2398068879	 0.140706
H	-0.1000470335	-0.3968456411	-0.8924331961	 0.236958
118.2831	232.0086	318.693	370.6761	421.1059	452.5293	532.4573	546.5396	570.7254	645.1859	718.4778	750.6637	769.0074	812.2867	878.2712	918.8375	924.5659	985.8308	1034.7885	1098.775	1125.132	1144.7524	1238.3178	1249.8261	1279.6293	1307.8003	1367.8594	1390.6167	1432.0421	1446.8123	1483.9447	1486.0042	1506.1714	1594.3144	1692.1742	2963.861	3041.4493	3078.3574	3107.817	3266.1664	3547.8617	3603.441
C1CNC2=NOC=C2N1	C1CNc2nocc2N1	
InChI=1S/C5H7N3O/c1-2-7-5-4(6-1)3-9-8-5/h3,6H,1-2H2,(H,7,8)	InChI=1S/C5H7N3O/c1-2-7-5-4(6-1)3-9-8-5/h3,6H,1-2H2,(H,7,8)
