12
gdb 45932	3.01052	1.54143	1.06595	2.6101	58.13	-0.3011	-0.082	0.2192	1018.905	0.077291	-509.813168	-509.805822	-509.804878	-509.845856	26.096	
N	 0.0374079116	 1.0795991463	 0.6893324405	-0.43252
C	-0.0346755936	 0.0109361892	 0.0362240531	 0.238743
O	 1.0319998438	-0.4656904356	-0.7151542045	-0.218764
C	 1.1538592566	-1.8016041558	-1.0009058712	 0.404695
O	 2.0933529958	-2.2022756724	-1.6139207811	-0.27983
C	 0.0580785649	-2.6759803369	-0.4272316665	-0.228131
O	-1.2283451966	-2.0601339094	-0.423238538	-0.221372
C	-1.3387761253	-0.7654959464	-0.0445185313	 0.414215
O	-2.4033363476	-0.2714865299	 0.162827333	-0.274516
H	 0.9722853228	 1.4884839491	 0.6211363767	 0.253924
H	-0.0234657306	-3.5761244425	-1.0349179511	 0.179852
H	 0.3421187381	-2.9698461255	 0.5924278005	 0.163704
60.8953	110.2644	161.1854	337.5981	388.6996	409.6591	456.8964	479.9404	571.9481	624.5777	671.8671	788.0675	816.8526	888.8727	947.1516	1016.2948	1050.1855	1101.5612	1144.0619	1230.4377	1290.3577	1314.3603	1394.5596	1484.4072	1758.7551	1876.3242	1893.9903	3029.0895	3153.2012	3474.6269
N=C1OC(=O)COC1=O	[NH][C]1OC(=O)COC1=O	
InChI=1S/C4H3NO4/c5-3-4(7)8-1-2(6)9-3/h5H,1H2	InChI=1S/C4H3NO4/c5-3-4(7)8-1-2(6)9-3/h5H,1H2
