18
gdb 79778	2.92066	2.00695	1.78389	1.4613	72.93	-0.2144	0.05	0.2645	849.7266	0.150826	-401.856737	-401.850405	-401.849461	-401.887054	26.879	
O	 0.037533555	 1.4876291721	-0.1238365023	-0.431885
C	-0.0112205679	 0.094992952	 0.0614507851	 0.135366
C	 0.1888293506	-0.5964151758	 1.4298238233	-0.06563
C	-0.7864000443	-0.1339157693	 2.5628511065	-0.065817
C	-1.7983684963	 0.9378512902	 2.0843564942	-0.242218
C	-2.387417583	-0.1380556858	 1.1382877387	-0.06344
C	-1.375469153	-0.6015049462	 0.0364632678	-0.035592
N	-0.7895515296	-1.6890551427	 0.9585137106	-0.181391
C	-1.7529743591	-1.2422583351	 2.0407348047	 0.024134
H	 0.9577201221	 1.7494300417	-0.225084223	 0.286858
H	 0.6336949088	-0.4246322019	-0.6619844933	 0.086508
H	 1.190475095	-0.9055411205	 1.7370638328	 0.064447
H	-0.3769863837	-0.0851733501	 3.5714478058	 0.065508
H	-2.5128099942	 1.1489081088	 2.8871603829	 0.093597
H	-1.4263507776	 1.8682727846	 1.6601507646	 0.123413
H	-3.4362263953	-0.0925661142	 0.8474183832	 0.067391
H	-1.8000220906	-0.9108594035	-0.9202636687	 0.071363
H	-2.2852177369	-1.9799389544	 2.642364537	 0.067387
223.0273	232.3901	242.9053	398.4651	525.3034	562.6414	676.5645	676.8711	707.3325	782.1322	790.0759	814.2077	842.7934	900.5899	925.9023	937.8752	955.4095	980.4466	997.4978	1038.0881	1044.1643	1067.4195	1090.5702	1121.2336	1162.6253	1164.3849	1185.5982	1200.2922	1205.4006	1231.9737	1245.744	1250.8958	1280.2987	1288.3045	1311.7101	1342.9106	1355.4912	1438.9061	1492.5454	2996.7054	3051.2902	3076.6377	3088.2887	3095.0754	3111.2784	3117.9865	3153.4651	3823.1546
OC1C2C3CC4C1N2C34	O[C@H]1[C@H]2[C@H]3C[C@H]4[C@@H]1N2[C@@H]34	
InChI=1S/C7H9NO/c9-7-5-2-1-3-4(2)8(5)6(3)7/h2-7,9H,1H2	InChI=1S/C7H9NO/c9-7-5-2-1-3-4(2)8(5)6(3)7/h2-7,9H,1H2/t2-,3+,4-,5+,6-,7-
