15
gdb 123384	7.45624	0.79367	0.72058	2.9454	74.45	-0.2175	0.0104	0.2279	1475.5648	0.112483	-416.76847	-416.760092	-416.759147	-416.802721	29.997	
C	-0.0240957517	-1.1719142556	-0.0062219904	-0.379944
C	 0.013513891	 0.0273766188	 0.0009333932	 0.284628
C	 0.0158608559	 1.4803764775	 0.0099396186	-0.267022
O	 1.3638357746	 1.9492869206	 0.0037249384	-0.261055
C	 1.5405601792	 3.2857122696	 0.0055988048	 0.515852
C	 2.7324082777	 3.9795607843	-0.0078130232	-0.36746
C	 2.3356942864	 5.3335857162	 0.0028018941	 0.020035
N	 1.0174148901	 5.486324513	 0.0210556669	-0.259794
N	 0.5428949645	 4.2099391284	 0.0226884864	-0.277612
H	-0.0494212086	-2.2339446593	-0.0126233487	 0.210893
H	-0.5176665892	 1.8622486254	-0.8738028831	 0.140133
H	-0.5056003891	 1.8508250682	 0.9057120362	 0.139906
H	 3.7220776642	 3.5565983809	-0.022880429	 0.111603
H	 2.9699249605	 6.2083616715	-0.0024258046	 0.113107
H	-0.4507180255	 4.0657690406	 0.0354314204	 0.27673
34.1754	72.1235	112.4424	230.5582	300.8701	336.4097	402.8248	423.9678	497.7163	623.2074	672.858	684.0833	694.1183	748.8393	775.0928	900.0313	926.1786	986.0757	1021.9776	1039.9458	1049.6429	1073.2305	1114.4558	1251.5221	1253.7092	1308.4037	1375.0853	1393.3031	1446.742	1504.6133	1524.8964	1626.1117	2255.174	2979.8411	3010.5075	3241.9199	3283.7441	3503.9995	3694.0571
C#CCOC1=CC=NN1	C#CCOc1ccn[nH]1	
InChI=1S/C6H6N2O/c1-2-5-9-6-3-4-7-8-6/h1,3-4H,5H2,(H,7,8)	InChI=1S/C6H6N2O/c1-2-5-9-6-3-4-7-8-6/h1,3-4H,5H2,(H,7,8)
