18
gdb 75430	3.4111	1.23053	0.95441	4.5681	75.09	-0.2488	0.0063	0.2551	1224.5473	0.148803	-439.128125	-439.119591	-439.118646	-439.162009	31.484	
C	-0.2214477301	 1.5592277521	 0.049329329	-0.473208
C	 0.0611858508	 0.0851933314	-0.0698484095	 0.317816
C	 0.0510755358	-0.5460652601	-1.2415679077	-0.14604
C	 0.2434667017	-2.0170880499	-1.4728480944	-0.139539
O	-0.1982979884	-2.8811415692	-0.4154815161	-0.229957
C	 0.6055316474	-3.0283138124	 0.6737621678	 0.407255
O	 0.8607086257	-4.1151614176	 1.1250364259	-0.364239
N	 1.0880699127	-1.8461540407	 1.1945588453	-0.346236
C	 0.3118539399	-0.6067523253	 1.2500376916	-0.256084
H	 0.638002629	 2.0956372277	 0.471700092	 0.127359
H	-0.4600911309	 2.0022652395	-0.920192396	 0.127969
H	-1.0678673394	 1.7467246439	 0.7230240049	 0.129831
H	-0.1224854153	 0.0320944993	-2.1468693	 0.088195
H	-0.3546690542	-2.3252139068	-2.3354574473	 0.129705
H	 1.2910858537	-2.2490410296	-1.7111472056	 0.12791
H	 1.6327665532	-2.0295229573	 2.0251041615	 0.254335
H	 0.8821321745	 0.0772832486	 1.887927998	 0.117009
H	-0.6520746561	-0.7608515136	 1.7633010306	 0.127917
32.2717	152.7166	175.9507	207.0831	258.3927	310.4096	329.8655	366.0949	458.9302	541.3768	615.4949	686.1209	751.4449	791.0768	795.2575	836.6813	892.7218	928.0009	990.0383	1034.9876	1051.8157	1075.3079	1123.1363	1146.8244	1181.6275	1279.61	1293.2993	1296.2952	1370.2426	1397.973	1415.0925	1428.2382	1472.7028	1480.689	1485.2476	1491.081	1501.0277	1762.9814	1843.3968	2965.5956	3007.8571	3015.7668	3059.1566	3061.9227	3080.8605	3119.8898	3147.5385	3606.7618
CC1=CCOC(=O)NC1	CC1=CCOC(=O)NC1	
InChI=1S/C6H9NO2/c1-5-2-3-9-6(8)7-4-5/h2H,3-4H2,1H3,(H,7,8)	InChI=1S/C6H9NO2/c1-5-2-3-9-6(8)7-4-5/h2H,3-4H2,1H3,(H,7,8)
