22
gdb 23130	1.798	1.543	0.87885	0.7698	85.56	-0.2383	0.0128	0.2512	1372.2256	0.194241	-404.336605	-404.32707	-404.326126	-404.371129	36.07	
C	-0.026826989	 1.6398805499	-0.3391318038	-0.38852
C	 0.0282287384	 0.1435730756	-0.0148942536	-0.182307
C	-1.3435641631	-0.5270879844	 0.1439574335	-0.041201
C	-1.3057046989	-2.0718498242	 0.1216465352	-0.224984
C	-2.6427542331	-2.4971486604	 0.7521798352	-0.229102
C	-2.8558554274	-1.4787205227	 1.8896818088	-0.293059
C	-2.0955986459	-0.2484353228	 1.4381515876	 0.403387
N	-2.0315074923	 0.8725247114	 2.0371013358	-0.228826
O	-2.8003494752	 0.8608057118	 3.2193215893	-0.395423
H	 0.9812350053	 2.0475766979	-0.4663727003	 0.103315
H	-0.5760888326	 1.8185946172	-1.2709701001	 0.10489
H	-0.5265293464	 2.1917757301	 0.4592221409	 0.143331
H	 0.567317693	-0.3798834296	-0.8152849563	 0.089396
H	 0.606505712	-0.0169147078	 0.9034186073	 0.096884
H	-1.988114056	-0.1989210133	-0.6876009268	 0.087195
H	-1.1541625942	-2.4696923887	-0.8856261994	 0.097129
H	-0.4697391943	-2.4220392263	 0.7416420943	 0.100321
H	-3.4463018236	-2.4054052549	 0.0120415996	 0.102599
H	-2.6430797563	-3.5324166163	 1.1025545297	 0.099068
H	-3.9042822215	-1.2493173785	 2.0998766212	 0.125501
H	-2.4276537199	-1.8304895372	 2.8368065997	 0.126993
H	-2.662954349	 1.7518414032	 3.557408442	 0.303415
55.312	115.4098	170.2914	174.8796	230.8947	246.6619	271.8053	345.3059	379.074	439.9118	505.2463	540.6995	588.0681	616.5347	757.1503	792.9204	853.1227	888.529	918.7723	928.9995	963.2589	987.8206	1020.6216	1040.2276	1051.2055	1093.7094	1138.6109	1171.7879	1203.6704	1211.0781	1234.7234	1278.9178	1298.9522	1304.9599	1341.035	1342.0482	1355.2133	1379.355	1402.6123	1408.7275	1464.0796	1481.6158	1492.7475	1497.1406	1505.7785	1515.4644	1748.1512	2972.7052	3016.3465	3025.3101	3032.2763	3036.1734	3040.909	3055.2993	3087.2966	3090.025	3093.4621	3099.698	3137.7125	3821.6353
CCC1CCCC1=NO	CC[C@H]1CCCC1=NO	
InChI=1S/C7H13NO/c1-2-6-4-3-5-7(6)8-9/h6,9H,2-5H2,1H3	InChI=1S/C7H13NO/c1-2-6-4-3-5-7(6)8-9/h6,9H,2-5H2,1H3/t6-/m0/s1
