15
gdb 12305	3.01112	2.2254	1.33962	6.0137	62.52	-0.2392	-0.0591	0.18	877.4563	0.120666	-399.854777	-399.847674	-399.84673	-399.886573	26.237	
O	 0.0670869337	-0.0716626277	-0.1768793871	-0.267931
C	-0.0026881247	 1.1281126081	-0.1532080789	 0.313086
C	-1.3136642399	 1.8928287092	-0.2365711384	-0.310512
C	-1.1418303003	 3.2185180534	-0.9857267355	-0.221454
C	-0.0750190714	 4.0697019228	-0.3026455661	-0.152167
N	 1.1628956115	 3.316214765	-0.1489011509	-0.313758
C	 1.302954352	 1.9622848234	-0.0100163157	 0.298927
O	 2.3699036418	 1.4260671317	 0.1954876803	-0.338767
H	-2.0668320124	 1.2410534094	-0.6861806236	 0.133092
H	-1.6358650386	 2.0956494067	 0.7960714533	 0.132005
H	-0.8455183676	 3.0253670001	-2.0233837472	 0.123075
H	-2.0860490097	 3.7702092153	-1.0138402132	 0.116454
H	 0.1385593201	 4.9657316347	-0.8940798011	 0.121018
H	-0.4466981971	 4.4113087725	 0.6761355922	 0.114109
H	 2.0205356627	 3.8297434654	 0.0020333018	 0.252825
61.6197	123.345	277.991	338.9101	373.9931	422.9169	461.005	558.6058	613.5163	634.7002	672.1376	748.1626	884.2663	888.8038	949.8305	1001.4742	1071.6897	1109.1926	1138.4575	1195.5128	1220.0048	1287.7584	1337.4343	1342.918	1376.3634	1394.7205	1457.0471	1477.0234	1493.4725	1523.6275	1799.7375	1836.3715	2981.5784	3008.0826	3042.8397	3070.2456	3093.9637	3104.0782	3592.951
O=C1CCCNC1=O	O=C1CCCNC1=O	
InChI=1S/C5H7NO2/c7-4-2-1-3-6-5(4)8/h1-3H2,(H,6,8)	InChI=1S/C5H7NO2/c7-4-2-1-3-6-5(4)8/h1-3H2,(H,6,8)
