20
gdb 58808	3.49836	1.03917	0.97689	3.1055	75.01	-0.2469	0.0652	0.3121	1290.4673	0.169733	-440.238432	-440.228953	-440.228009	-440.272689	35.601	
C	 0.0720534186	 1.4423299468	-0.2400294473	-0.418506
C	 0.0115692363	-0.0424116026	 0.1208210831	 0.024259
O	 0.7242586128	-0.3228806035	 1.324540188	-0.428171
C	-1.4082835389	-0.5442208454	 0.2030003178	 0.359123
C	-2.402052907	-0.2948141722	 1.3509529038	-0.363776
C	-2.9759560743	-1.7357197285	 1.0941902392	 0.107616
O	-4.3123828669	-1.8465514494	 0.6513340596	-0.43252
C	-1.9680354437	-1.9193841207	-0.0387448083	-0.105128
N	-2.1130922256	-0.8590853851	-1.0320870326	-0.368046
H	 1.1113615376	 1.776869157	-0.2998160517	 0.123138
H	-0.4143412393	 1.6236393047	-1.2026426411	 0.135456
H	-0.4418958729	 2.0496930365	 0.5165322288	 0.104841
H	 0.5183367533	-0.6214922317	-0.6588607601	 0.098814
H	 0.4738431547	 0.3424689974	 1.9740334549	 0.277564
H	-1.9312968572	-0.2120233303	 2.3340311997	 0.099412
H	-3.1022501672	 0.5352191385	 1.2082240569	 0.092269
H	-2.7742154761	-2.4042659533	 1.9408865629	 0.079001
H	-4.8943289294	-1.6182408222	 1.3832877825	 0.286038
H	-1.4812335668	-2.842724562	-0.3304270427	 0.094156
H	-3.065801778	-0.4996565238	-1.0591004334	 0.234459
66.8129	97.5185	166.4973	200.2133	237.2734	259.0321	297.7459	306.8681	363.0758	434.7159	482.2104	514.3496	590.6099	660.1758	747.7333	822.0797	870.041	887.8058	938.6413	976.6407	978.9677	1012.3211	1036.4385	1068.6069	1081.6674	1102.1162	1134.7927	1166.707	1180.9825	1189.381	1233.3071	1273.4091	1280.4223	1292.9959	1320.7012	1354.189	1396.5885	1402.8645	1411.3264	1450.6579	1479.3946	1493.3357	1498.3644	3019.9888	3022.2629	3041.195	3056.365	3097.7313	3104.5389	3124.5479	3182.6269	3469.7882	3809.1032	3816.5133
CC(O)C12CC(O)C1N2	C[C@@H](O)[C@]12C[C@@H](O)[C@H]1N2	
InChI=1S/C6H11NO2/c1-3(8)6-2-4(9)5(6)7-6/h3-5,7-9H,2H2,1H3	InChI=1S/C6H11NO2/c1-3(8)6-2-4(9)5(6)7-6/h3-5,7-9H,2H2,1H3/t3-,4-,5-,6-/m1/s1
