21
gdb 108422	2.58021	1.59019	1.2252	1.021	83.07	-0.2338	0.0255	0.2593	1109.686	0.18307	-387.082499	-387.074063	-387.073118	-387.115571	32.793	
C	-0.2943998646	 1.3434686224	-0.1506214943	-0.255675
O	-0.0858412321	-0.0514352772	-0.1115416774	-0.29759
C	 0.7920620774	-0.5463288038	-1.0981015577	 0.439587
C	 0.2047015198	-0.5552841876	-2.549553306	-0.279482
C	 0.0446943901	-2.1008845877	-2.4806081224	-0.22536
C	 0.8084697575	-2.1084098666	-1.1204669672	-0.104776
C	 2.270930493	-2.4395571659	-1.1933314365	-0.082408
C	 3.0468403201	-1.3571182426	-1.1177173443	-0.065688
C	 2.2612069548	-0.0774766046	-0.9470909418	-0.334039
H	 0.630048516	 1.9083705904	 0.0384896541	 0.106201
H	-0.7075716834	 1.6748326764	-1.1147079939	 0.104601
H	-1.0141719962	 1.5805731507	 0.6366637605	 0.125276
H	-0.7283825352	 0.0013736143	-2.6604805653	 0.103467
H	 0.9084237141	-0.2103040328	-3.311264994	 0.097212
H	-0.9951672969	-2.4235621956	-2.3906208613	 0.102142
H	 0.5162911347	-2.6659505107	-3.2879807326	 0.095572
H	 0.287123858	-2.599383987	-0.2936576085	 0.080358
H	 2.6326657789	-3.456425209	-1.3076586115	 0.09093
H	 4.1314694236	-1.3667422977	-1.1501023681	 0.090537
H	 2.5390686619	 0.6878916201	-1.6828458572	 0.098898
H	 2.4289404886	 0.3608117943	 0.0462754553	 0.110237
65.5587	136.3917	193.692	196.9648	248.9234	340.3597	380.026	417.6571	475.2276	596.6435	650.9996	730.637	742.1243	774.7086	835.6794	856.8465	915.8109	952.1607	962.3067	967.6395	978.0984	1030.0723	1057.49	1084.8698	1105.5016	1125.8832	1154.8421	1178.2763	1183.3805	1194.1133	1212.0954	1232.3245	1262.0859	1264.2917	1278.3416	1296.1348	1337.4992	1374.1759	1462.042	1475.957	1480.3073	1488.8672	1490.851	1509.9549	1679.3784	2986.7244	3011.1891	3034.0054	3044.0512	3059.2997	3062.9419	3069.7094	3106.1655	3112.6616	3125.0284	3172.1438	3197.4046
COC12CCC1C=CC2	CO[C@]12CC[C@H]1C=CC2	
InChI=1S/C8H12O/c1-9-8-5-2-3-7(8)4-6-8/h2-3,7H,4-6H2,1H3	InChI=1S/C8H12O/c1-9-8-5-2-3-7(8)4-6-8/h2-3,7H,4-6H2,1H3/t7-,8-/m1/s1
