21
gdb 118655	2.72775	0.80524	0.6496	2.8026	81.3	-0.2339	0.0155	0.2493	1786.5506	0.180622	-420.400772	-420.389742	-420.388798	-420.438053	37.687	
C	 0.035796676	 1.6567849684	-0.8440447165	-0.386738
C	 0.0615440727	 0.205129501	-0.4021227867	-0.051741
O	-1.2351895449	-0.1320235133	 0.0837366121	-0.243346
C	-1.3573810082	-1.4474841352	 0.5588010227	-0.006103
C	-2.7135223277	-1.5669111688	 1.2704829765	-0.157512
N	-2.8830421241	-2.893106419	 1.8354207254	-0.299102
C	-4.0836881567	-3.0187762807	 2.6529219877	-0.310477
C	-1.2613256888	-2.4351490854	-0.5453013208	 0.262673
N	-1.2045260232	-3.2058820052	-1.4050299857	-0.335828
H	 1.0194898443	 1.9528343975	-1.2196973716	 0.122548
H	-0.6982442858	 1.8017857702	-1.6412820512	 0.134492
H	-0.2288034789	 2.3104340812	-0.0082233954	 0.128944
H	 0.3313486967	-0.4536425754	-1.2404036234	 0.116226
H	 0.8054336503	 0.0490503417	 0.3953252672	 0.095399
H	-0.5620249544	-1.691716951	 1.2799858309	 0.121651
H	-2.7065560097	-0.8326119353	 2.0831551722	 0.119941
H	-3.5056908761	-1.2619675151	 0.5645962005	 0.105427
H	-2.9123715499	-3.5788479602	 1.0870069985	 0.234064
H	-4.1795005017	-4.0511097871	 3.000223532	 0.124948
H	-3.9939951583	-2.3762987498	 3.5360987049	 0.124133
H	-5.0171583516	-2.7419937585	 2.1320691709	 0.1004
62.2347	73.4654	91.7682	98.3959	109.0871	176.6542	238.4552	249.2837	262.8015	273.4059	329.819	412.5053	445.8438	586.4116	646.0754	788.5887	816.7222	827.9131	894.4568	991.3038	1028.974	1045.3891	1082.6674	1131.6201	1146.3354	1159.6023	1168.0722	1187.7269	1197.7782	1269.7633	1300.3172	1308.2488	1363.3878	1381.6621	1403.771	1437.0089	1462.1548	1483.3586	1489.8455	1497.514	1499.5091	1514.3319	1522.2345	1526.7465	2347.556	2951.9602	2956.4698	2978.0102	2995.1256	3020.4016	3048.0046	3059.2354	3071.0787	3109.904	3123.2697	3126.1441	3513.3911
CCOC(CNC)C#N	CCO[C@@H](CNC)C#N	
InChI=1S/C6H12N2O/c1-3-9-6(4-7)5-8-2/h6,8H,3,5H2,1-2H3	InChI=1S/C6H12N2O/c1-3-9-6(4-7)5-8-2/h6,8H,3,5H2,1-2H3/t6-/m1/s1
