19
gdb 82334	2.84642	1.39794	1.04155	3.6734	79.36	-0.2484	0.0316	0.2799	1156.8799	0.161149	-382.075997	-382.067861	-382.066917	-382.108566	31.461	
C	-0.0336150178	 1.594463501	 0.0247018657	-0.40595
C	 0.0711803935	 0.076443385	-0.0106238973	 0.053246
C	 0.8464120448	-0.4870122351	-1.2535937486	-0.190055
C	 1.3925123271	-1.8479715706	-0.7480407782	-0.246041
C	 1.5489359129	-1.6258140968	 0.748504422	-0.018064
C	 2.1938637697	-0.3658341112	 1.2012688103	-0.254582
N	 0.7270182656	-0.4834959887	 1.1836051155	-0.096806
C	 0.0176910751	-0.5852511821	-2.445723401	 0.268229
N	-0.6589301496	-0.6572053514	-3.3807293798	-0.326537
H	 0.9577767666	 2.0592811443	 0.047614134	 0.116997
H	-0.5640392609	 1.9631279514	-0.8582362679	 0.136808
H	-0.5800010516	 1.915620798	 0.9150605963	 0.136061
H	-0.9369786731	-0.3534963206	-0.0263009259	 0.10529
H	 1.679526047	 0.1828130594	-1.4920506638	 0.125703
H	 0.6597969931	-2.6397391081	-0.9310916754	 0.132054
H	 2.3211950237	-2.1331172977	-1.2493502959	 0.124472
H	 1.5515764242	-2.5000996792	 1.3928152124	 0.101118
H	 2.6243324408	-0.3067480257	 2.1960896113	 0.123837
H	 2.6924951189	 0.260744948	 0.4658256364	 0.114218
105.2023	138.8904	206.8536	236.6302	275.2242	320.49	369.0019	476.1537	527.714	557.5802	579.3265	648.8678	746.7672	817.2406	847.2583	885.7512	928.4602	970.354	985.1431	1035.8089	1047.2835	1088.209	1101.7605	1110.6537	1138.9899	1139.5386	1167.539	1200.0004	1271.4866	1276.8932	1299.3455	1336.9336	1363.8755	1375.7932	1393.8657	1411.8193	1489.7664	1494.2864	1498.5638	1514.5745	2354.172	3037.7913	3041.7114	3055.9672	3062.257	3106.8492	3110.5809	3113.6387	3125.6614	3152.19	3195.4871
CC1C(CC2CN12)C#N	C[C@H]1[C@@H](C[C@H]2CN12)C#N	
InChI=1S/C7H10N2/c1-5-6(3-8)2-7-4-9(5)7/h5-7H,2,4H2,1H3	InChI=1S/C7H10N2/c1-5-6(3-8)2-7-4-9(5)7/h5-7H,2,4H2,1H3/t5-,6-,7-,9?/m0/s1
