16
gdb 123341	6.97172	0.72531	0.68401	4.2108	77.11	-0.2525	-0.004	0.2485	1571.6957	0.124796	-396.898652	-396.890245	-396.8893	-396.933011	30.281	
C	-0.0230344038	-1.2270047336	-0.0817790614	-0.443234
C	-0.0374025816	-0.0284214511	 0.008985928	 0.295327
C	-0.0156426167	 1.4241953975	 0.1174195796	-0.343886
C	 1.4084437364	 2.0113224788	-0.047342566	-0.302684
C	 1.4153949162	 3.5037362882	 0.042666884	 0.323429
C	 2.0129512354	 4.3376322543	 0.9593961467	-0.184543
N	 1.6715633802	 5.5810658984	 0.5454519574	-0.148307
N	 0.906198873	 5.539919566	-0.559301526	-0.110112
N	 0.7509419403	 4.2848739568	-0.8632501152	-0.24808
H	-0.0281375284	-2.2854267678	-0.1643195144	 0.193852
H	-0.6666843814	 1.8701705789	-0.6428052208	 0.157821
H	-0.4232186263	 1.7303261383	 1.0888868939	 0.129173
H	 2.0682837598	 1.5892046108	 0.7161491176	 0.114374
H	 1.8030853745	 1.6976616224	-1.0193142132	 0.134982
H	 2.6258716759	 4.1578522651	 1.8264291106	 0.147867
H	 1.9149517262	 6.4737197071	 0.9440388893	 0.284021
43.5476	64.7594	98.2788	187.9509	311.5931	362.3811	377.5236	478.7552	573.9918	616.9571	642.1431	682.5415	725.0161	759.7508	768.9504	798.2	966.3153	988.1644	1013.9017	1019.4482	1040.8689	1057.0113	1130.1415	1174.4138	1269.0343	1278.2237	1301.5542	1324.2882	1354.0767	1379.8376	1474.8291	1488.2232	1488.7418	1593.4594	2238.8811	3030.9153	3054.014	3068.7448	3101.2606	3283.5274	3507.5121	3659.2778
C#CCCC1=CNN=N1	C#CCCc1c[nH]nn1	
InChI=1S/C6H7N3/c1-2-3-4-6-5-7-9-8-6/h1,5H,3-4H2,(H,7,8,9)	InChI=1S/C6H7N3/c1-2-3-4-6-5-7-9-8-6/h1,5H,3-4H2,(H,7,8,9)
