15
gdb 14253	3.92127	1.77321	1.66723	4.4194	61.33	-0.2399	0.0095	0.2494	826.4147	0.119166	-399.792897	-399.785935	-399.784991	-399.824083	26.175	
C	-0.0475436008	 1.5532435661	-0.024393226	-0.414244
C	 0.0838956618	 0.0492177179	 0.0515916775	 0.14569
O	 1.098962255	-0.4864002511	-0.8448496752	-0.307769
C	 1.7228086246	-1.2344712389	 0.2180239698	-0.038681
C	 0.7664418589	-0.6221408823	 1.2742080891	-0.062733
N	 1.9234405502	 0.0686741728	 1.8350400653	-0.324569
C	 2.8433530428	-0.396509645	 0.9036763259	 0.419107
O	 4.0043327386	-0.1643103889	 0.7229543961	-0.346087
H	 0.8886797158	 2.0443310662	 0.2539866294	 0.126991
H	-0.298482319	 1.8542640186	-1.0457872444	 0.139885
H	-0.845987746	 1.9025968383	 0.6393738795	 0.119447
H	-0.8763579344	-0.4397518539	-0.1628606052	 0.085498
H	 1.8723793937	-2.2913360706	-0.0029089184	 0.106809
H	 0.157113781	-1.1799847005	 1.9836385387	 0.098998
H	 1.9729943578	 0.8832847813	 2.431734598	 0.251659
96.0639	198.6338	223.969	249.03	385.8002	438.2308	500.8419	560.5166	657.6607	740.6348	793.0184	822.0978	875.7036	909.7899	945.6116	976.2389	1025.5579	1083.0948	1098.5333	1131.1247	1146.4703	1180.0944	1208.8066	1268.8328	1307.1278	1342.6537	1360.8982	1379.3887	1407.1772	1482.14	1493.8735	1900.2785	3010.5789	3039.0988	3110.5309	3117.0739	3123.1141	3128.06	3589.5742
CC1OC2C1NC2=O	C[C@H]1O[C@@H]2[C@H]1NC2=O	
InChI=1S/C5H7NO2/c1-2-3-4(8-2)5(7)6-3/h2-4H,1H3,(H,6,7)	InChI=1S/C5H7NO2/c1-2-3-4(8-2)5(7)6-3/h2-4H,1H3,(H,6,7)/t2-,3+,4-/m1/s1
