19
gdb 67111	2.60693	2.00422	1.7443	1.2022	78.92	-0.2562	0.0796	0.3358	897.421	0.161283	-385.81397	-385.807085	-385.806141	-385.844674	29.116	
O	 0.0173164928	 1.3796349405	 0.0069653544	-0.483134
C	 0.1157861729	-0.0009142919	-0.0259734905	 0.416302
C	 0.3785805652	-0.9777083817	 1.1646612004	-0.161186
C	-1.1274842617	-0.9402196066	 1.5851654051	-0.363116
C	-1.1514693607	-0.9012243475	 0.0375903547	 0.299716
C	-1.8906177427	-0.8211049276	-1.2836067972	-0.35574
C	-0.6151168988	-0.8420051476	-2.2175589086	-0.219305
C	 0.5538375074	-0.9120689544	-1.1934136158	-0.15433
C	 0.0713366835	-1.8663299658	-0.0791540672	-0.052463
H	 0.9046671	 1.7486551179	 0.0688407102	 0.283746
H	 1.2544853718	-1.0307563566	 1.8130854994	 0.064517
H	-1.5264112355	-1.839095436	 2.0653889895	 0.091225
H	-1.4670643225	-0.0399970515	 2.1046401008	 0.104657
H	-2.5575563963	-1.6676969348	-1.469763972	 0.09714
H	-2.4667944082	 0.1013707481	-1.3973903193	 0.109222
H	-0.6181562425	-1.7061886353	-2.8891031115	 0.096107
H	-0.553655893	 0.0577418316	-2.8368464347	 0.103766
H	 1.5707247778	-0.932939443	-1.5933842935	 0.050025
H	-0.0043938496	-2.9521173678	-0.096427634	 0.07285
207.8927	220.6752	262.6721	309.4182	407.8353	456.2349	480.6202	652.9996	676.9597	729.3657	755.5982	812.4056	837.7758	860.226	877.2354	892.8618	922.8825	940.9217	950.0584	997.5594	1011.6132	1040.332	1057.766	1093.506	1095.3704	1128.9986	1154.1152	1181.4083	1195.1846	1207.5946	1230.388	1238.7746	1250.0278	1273.5372	1276.7853	1315.9496	1324.9318	1397.5901	1484.1897	1504.3314	1506.846	3046.1012	3047.9089	3058.1107	3081.6258	3086.919	3098.9201	3105.7787	3107.7261	3133.1091	3807.6286
OC12C3CC11CCC2C31	O[C@@]12[C@H]3C[C@]41CC[C@@H]2[C@@H]34	
InChI=1S/C8H10O/c9-8-4-1-2-7(8)3-5(8)6(4)7/h4-6,9H,1-3H2	InChI=1S/C8H10O/c9-8-4-1-2-7(8)3-5(8)6(4)7/h4-6,9H,1-3H2/t4-,5+,6+,7-,8+/m1/s1
