17
gdb 11734	5.13276	1.35735	1.23198	4.2073	68.8	-0.2453	-0.0079	0.2374	1014.3291	0.141561	-363.852759	-363.84501	-363.844066	-363.884985	28.88	
C	 0.0754503842	 1.5268682494	-0.2077785622	-0.381495
C	-0.0859062906	 0.0263006511	 0.0724154911	-0.281743
C	 0.6965183746	-0.4192131824	 1.2740720022	 0.35055
C	 2.0670143291	-0.9447779351	 1.2266502574	-0.284855
N	 0.9655908678	-1.9142129877	 1.54790047	-0.213565
C	 0.6375372352	-1.6572255252	 2.9402265265	 0.410598
O	 0.5781826744	-2.4258713012	 3.8469501089	-0.294233
C	 0.286390742	-0.1742850252	 2.7315295735	-0.437999
H	 1.1224278153	 1.7836752803	-0.3984182737	 0.121821
H	-0.5095589439	 1.8230681709	-1.0829588808	 0.122836
H	-0.2660273564	 2.128966165	 0.64090218	 0.122838
H	-1.1457680117	-0.2115979675	 0.2264183099	 0.109592
H	 0.2409082638	-0.5569098851	-0.7956466984	 0.116008
H	 2.5088933574	-1.1479982164	 0.2562689139	 0.136974
H	 2.7852174179	-0.7025740866	 2.00667008	 0.130015
H	 0.8471066403	 0.565894206	 3.3078934192	 0.131725
H	-0.7846940894	-0.0013647002	 2.8693859525	 0.140933
79.3551	109.3074	195.65	224.1828	343.9449	375.0247	400.659	495.3166	567.7828	642.1822	670.5632	761.9187	791.834	836.5194	911.105	955.6994	985.2232	1006.6293	1027.4328	1063.5971	1082.6378	1120.3512	1128.61	1166.0547	1212.4189	1250.4539	1323.365	1357.4393	1400.8699	1416.0658	1455.574	1484.0452	1499.4241	1509.2474	1512.3708	1919.0104	3030.991	3037.4149	3064.8526	3070.2224	3106.2028	3111.0225	3114.1009	3118.8293	3202.7004
CCC12CN1C(=O)C2	CC[C@]12CN1C(=O)C2	
InChI=1S/C6H9NO/c1-2-6-3-5(8)7(6)4-6/h2-4H2,1H3	InChI=1S/C6H9NO/c1-2-6-3-5(8)7(6)4-6/h2-4H2,1H3/t6-,7?/m0/s1
