16
gdb 20802	3.25493	1.7649	1.24621	3.8481	67.43	-0.2101	0.0143	0.2244	975.6925	0.131061	-379.924404	-379.916424	-379.91548	-379.957309	28.981	
C	-0.1547377333	 1.5761968514	 0.0429469047	-0.362922
C	 0.0008440796	 0.044831569	 0.0127043945	-0.323675
C	 0.7131819691	-0.4708147253	-1.2021343715	 0.084847
C	 2.0490795346	-0.7358037987	-1.3669326708	 0.388482
N	 3.1211105525	-0.6962703602	-0.50319498	-0.594609
O	 2.3039061406	-1.178711514	-2.6041714293	-0.213648
N	 1.0926856562	-1.2277026078	-3.3308040883	-0.168098
C	 0.1912230902	-0.8038940544	-2.4808452786	-0.025446
H	 0.8204380393	 2.0742539994	 0.0222468086	 0.109663
H	-0.7191442411	 1.9285755659	-0.8258839703	 0.124053
H	-0.6819706866	 1.9007349677	 0.9459318368	 0.113436
H	 0.5325497884	-0.2851258917	 0.9143491543	 0.101838
H	-0.9916791962	-0.416933165	 0.0723175204	 0.11336
H	 3.0597724989	 0.0146606723	 0.2102771153	 0.264279
H	 4.0180116739	-0.6962247826	-0.968601355	 0.266879
H	-0.8398059461	-0.7526199758	-2.8072497809	 0.12156
40.0004	143.781	192.83	244.2493	270.2961	281.2702	401.604	450.9083	590.8926	627.1776	653.0005	725.2304	753.3453	785.7775	894.4132	919.4475	943.6493	971.2203	1056.8834	1067.6045	1084.9078	1207.3112	1235.6958	1298.2947	1347.4968	1360.6501	1408.2543	1431.8891	1484.5101	1495.745	1506.4454	1541.6678	1638.4649	1684.8798	3022.7402	3032.7595	3056.8192	3102.3737	3109.5834	3224.4319	3569.2744	3671.3982
CCC1=C(N)ON=C1	CCc1c(N)onc1	
InChI=1S/C5H8N2O/c1-2-4-3-7-8-5(4)6/h3H,2,6H2,1H3	InChI=1S/C5H8N2O/c1-2-4-3-7-8-5(4)6/h3H,2,6H2,1H3
