19
gdb 103618	2.70983	1.24861	1.0739	2.1937	72.41	-0.2331	-0.034	0.1991	1203.8972	0.155735	-460.151608	-460.141564	-460.140619	-460.186364	36.115	
C	-0.1897588305	 1.6734745868	-0.2672474016	-0.262621
O	-0.0318217518	 0.263381288	-0.3538404901	-0.284758
C	-1.1599449878	-0.5065211001	-0.0250937361	 0.314838
C	-2.3601107416	-0.2725998018	-0.9431897566	-0.463767
C	-0.7867472476	-2.0130733253	 0.154118112	-0.326344
C	-1.6084978389	-2.0806919217	 1.4901258167	 0.071882
O	-1.1128951812	-2.7500563088	 2.6087403221	-0.436199
C	-1.4964418396	-0.5545935947	 1.4927899591	 0.289782
O	-1.308682646	 0.2026348164	 2.4071179668	-0.323922
H	 0.8036092999	 2.1002886358	-0.4226203028	 0.130928
H	-0.8601342637	 2.0641342566	-1.044512397	 0.10847
H	-0.5604393224	 1.9758099369	 0.7179177667	 0.141037
H	-2.06098079	-0.4416592085	-1.9826189497	 0.134191
H	-3.1767746311	-0.9603102519	-0.7048972889	 0.126584
H	-2.7474428463	 0.7456908097	-0.852403856	 0.132488
H	-1.0976025327	-2.6902697058	-0.6418170406	 0.112566
H	 0.2830544007	-2.1097402579	 0.3463279801	 0.131512
H	-2.6304417569	-2.4228966708	 1.2847765738	 0.107335
H	-0.7192461725	-2.0837445429	 3.1866789421	 0.295997
82.907	114.1565	143.661	160.2232	195.2445	227.5024	256.4924	283.3064	311.365	323.1264	392.0379	417.6052	574.1749	589.1345	730.892	752.5776	828.4915	902.0848	914.0147	958.5795	978.5471	1042.3909	1089.4025	1127.2222	1149.3025	1179.6731	1180.0863	1200.9256	1239.399	1251.2487	1281.9485	1340.7398	1402.0465	1412.7138	1469.1713	1475.7425	1482.5802	1492.5868	1506.9975	1511.8408	1854.9492	3009.5726	3031.5296	3041.4436	3082.5532	3085.1006	3113.8389	3120.4916	3125.8815	3153.9835	3768.3481
COC1(C)CC(O)C1=O	CO[C@@]1(C)C[C@@H](O)C1=O	
InChI=1S/C6H10O3/c1-6(9-2)3-4(7)5(6)8/h4,7H,3H2,1-2H3	InChI=1S/C6H10O3/c1-6(9-2)3-4(7)5(6)8/h4,7H,3H2,1-2H3/t4-,6+/m1/s1
