19
gdb 76607	2.62607	1.23539	0.99379	3.6484	79.4	-0.2394	-0.0703	0.1691	1248.1114	0.157216	-419.195026	-419.185292	-419.184348	-419.229812	34.88	
C	 0.3364671518	 1.4420132167	 0.3380639996	-0.421005
C	 0.0024540967	 0.0043741026	 0.009782733	-0.024809
C	 0.6182636579	-0.7357431939	-1.1516984642	-0.005569
C	 1.6060456637	-0.1109895199	-2.1102378573	-0.40233
N	 0.9603231674	-1.0835351215	 0.2165973045	-0.098629
C	 2.2052748511	-0.9930764547	 0.8073554358	 0.233832
N	 3.2981617688	-1.2906890204	 0.2193358945	-0.493856
C	 2.1461775549	-0.6481578861	 2.2844219087	 0.121454
O	 3.1354783742	-0.5579909453	 2.9640821184	-0.242131
H	 1.3768334383	 1.6892605573	 0.1157739597	 0.137486
H	-0.3048694957	 2.1155273321	-0.2400793958	 0.134115
H	 0.1591012194	 1.65245771	 1.3980059833	 0.130096
H	-1.016405501	-0.2775128295	 0.2741613472	 0.101033
H	-0.018567279	-1.4875813961	-1.6177786403	 0.100819
H	 2.2141934686	 0.6667450512	-1.6478684572	 0.13044
H	 2.2909816407	-0.8698048096	-2.4951954405	 0.152372
H	 1.0613090265	 0.3274824803	-2.9533895615	 0.116824
H	 4.0494833586	-1.2458274552	 0.9137114408	 0.236853
H	 1.1298086372	-0.493151568	 2.7027777213	 0.093004
68.8041	100.8522	149.9359	167.2337	184.6147	191.7046	267.5415	271.586	346.7645	446.5739	475.7375	517.3111	591.4991	620.0333	772.0057	813.7619	854.3924	898.1286	947.4115	976.1667	1032.4517	1038.0865	1068.9494	1080.4013	1134.7538	1167.4073	1181.1536	1202.5654	1307.5414	1380.7818	1387.295	1417.508	1420.9344	1429.0643	1462.2488	1479.2908	1485.3712	1496.1427	1511.1065	1682.0995	1825.6652	2918.581	3040.0416	3048.8809	3097.2613	3099.157	3108.9006	3121.0939	3131.8557	3151.4103	3439.8713
CC1C(C)N1C(=N)C=O	C[C@H]1[C@@H](C)N1[C]([NH])C=O	
InChI=1S/C6H10N2O/c1-4-5(2)8(4)6(7)3-9/h3-5,7H,1-2H3	InChI=1S/C6H10N2O/c1-4-5(2)8(4)6(7)3-9/h3-5,7H,1-2H3/t4-,5+,8?
