22
gdb 60222	3.77696	0.91174	0.78264	1.7996	82.62	-0.2459	0.0255	0.2714	1515.9013	0.194309	-404.375547	-404.365945	-404.365001	-404.411046	35.087	
C	-0.1707157827	 1.5571445671	-0.2293136935	-0.381683
C	 0.0311781331	 0.0450374598	-0.0528928447	 0.032372
C	 0.8347957172	-0.5302093158	-1.2283503874	-0.389787
C	 0.7093957773	-0.3243555552	 1.2804542524	-0.190962
C	-0.115278686	-0.1223311321	 2.5475626183	 0.088161
C	 0.5581520413	-0.6594789696	 3.8433381205	-0.200614
N	 0.6769901661	 0.5032822024	 4.739264633	-0.263675
C	 0.1971789116	 1.4797367349	 4.0922715732	 0.119483
O	-0.293412283	 1.296825738	 2.8442549515	-0.226037
H	 0.794588509	 2.0777364914	-0.2261209171	 0.108489
H	-0.6580429504	 1.7698876216	-1.186755015	 0.104692
H	-0.777912646	 1.984815945	 0.5700158122	 0.133504
H	-0.9594065214	-0.4338746885	-0.0593340727	 0.070895
H	 1.8422160841	-0.0980839884	-1.2616072153	 0.113542
H	 0.9415799289	-1.6175419311	-1.1507641723	 0.107658
H	 0.349093076	-0.3072302481	-2.1837669286	 0.111808
H	 0.9730688151	-1.3906999049	 1.2530806407	 0.099266
H	 1.6561491024	 0.2228519923	 1.3887243103	 0.103362
H	-1.1212521407	-0.5351421204	 2.4110526343	 0.089548
H	-0.030088499	-1.4453829479	 4.3272862327	 0.117138
H	 1.5534018097	-1.0739233984	 3.6430825018	 0.113586
H	 0.1348450675	 2.5016863779	 4.4504769056	 0.139253
40.0063	57.5382	114.3242	172.0304	224.7159	253.3462	291.434	306.8635	408.4815	427.9689	455.1013	536.6481	735.2954	800.3499	839.5613	873.4376	894.0772	930.5453	959.9494	963.9513	967.9496	976.5531	990.5717	1037.8248	1090.902	1127.9519	1138.7459	1158.6313	1196.3705	1222.6744	1267.7249	1294.9884	1316.74	1326.2391	1352.3411	1371.9374	1378.1882	1400.4821	1403.6179	1425.3974	1464.6728	1487.7235	1494.168	1501.7945	1505.7736	1510.2825	1712.2759	2991.0366	3007.7616	3023.515	3031.3314	3034.2121	3035.2086	3053.4662	3076.2338	3086.8054	3092.3377	3099.976	3138.8499	3213.0224
CC(C)CC1CN=CO1	CC(C)C[C@H]1CN=CO1	
InChI=1S/C7H13NO/c1-6(2)3-7-4-8-5-9-7/h5-7H,3-4H2,1-2H3	InChI=1S/C7H13NO/c1-6(2)3-7-4-8-5-9-7/h5-7H,3-4H2,1-2H3/t7-/m0/s1
