18
gdb 51845	3.04589	1.06864	0.84583	3.8595	74.12	-0.2452	-0.0328	0.2124	1342.1141	0.147716	-439.142258	-439.133493	-439.132549	-439.176873	31.035	
O	 0.3051893278	-0.212683804	 0.238010096	-0.231028
C	 0.1267296624	 0.9003820311	-0.1784779236	 0.153424
C	 1.1425214999	 2.0284351763	-0.0731495281	-0.257636
N	 1.0992509466	 2.9166216882	-1.2073257384	-0.084523
C	 1.6476504409	 2.5666943547	-2.5105410616	-0.170608
C	 1.2226486528	 3.7554713638	-3.3992189531	-0.224144
C	 1.0843619274	 4.9245246709	-2.4117410129	-0.333137
C	 0.8152341902	 4.2574678871	-1.0644012023	 0.413473
O	 0.4465122501	 4.7838619818	-0.0362782329	-0.386124
H	-0.8254839815	 1.2022904576	-0.6731452096	 0.084295
H	 0.8797619507	 2.6371417375	 0.8034512934	 0.16987
H	 2.1396915396	 1.5995826088	 0.0850374213	 0.127307
H	 2.7421506423	 2.4627448674	-2.4577599692	 0.110659
H	 1.2457646698	 1.6122083291	-2.8664330176	 0.120479
H	 1.9392467887	 3.9424803002	-4.2007090987	 0.115659
H	 0.2554069663	 3.5378661443	-3.8611891925	 0.121126
H	 2.0135854072	 5.4984068968	-2.3163906888	 0.134935
H	 0.290607439	 5.6321876682	-2.6560383113	 0.135974
57.956	76.8133	115.6093	151.8495	190.1139	279.377	333.5262	418.5815	532.5658	561.4529	639.4485	656.9649	746.5067	789.946	860.695	904.4748	934.465	1011.0962	1037.4949	1052.6028	1085.5957	1106.4425	1185.7594	1207.3637	1217.689	1242.6222	1293.9754	1308.7193	1321.3569	1338.3524	1356.7804	1410.0573	1436.7851	1448.8334	1469.9107	1498.8597	1535.4328	1810.1991	1841.8167	2870.8724	2989.3341	3017.1949	3051.9269	3057.0863	3070.5443	3071.4713	3116.8616	3126.3952
O=CCN1CCCC1=O	O=CCN1CCCC1=O	
InChI=1S/C6H9NO2/c8-5-4-7-3-1-2-6(7)9/h5H,1-4H2	InChI=1S/C6H9NO2/c8-5-4-7-3-1-2-6(7)9/h5H,1-4H2
