18
gdb 13558	2.5939	1.94831	1.24914	3.0385	68.1	-0.2457	-0.0408	0.2049	994.046	0.151914	-384.935365	-384.926772	-384.925828	-384.968536	31.459	
C	-0.0203864052	 1.4298597152	-0.1028146662	-0.42058
C	-0.0172849102	-0.0964778041	 0.0353595482	-0.086815
C	 0.7884685076	-0.5475814121	 1.2492491593	 0.155017
O	 0.8979880187	-1.6972760284	 1.6070128413	-0.257724
C	-1.4197520119	-0.6893349947	 0.0670298766	-0.033401
C	-2.0839732691	-1.138482407	-1.2225688358	-0.321376
C	-1.6203132637	-2.1567375841	-0.2218539573	 0.114539
O	-0.5165891225	-2.9329886685	-0.5669049469	-0.4335
H	 0.9972370249	 1.8317522045	-0.1488287319	 0.118936
H	-0.5444345973	 1.7303883588	-1.0134121318	 0.132413
H	-0.529215974	 1.9024091345	 0.7450896173	 0.12208
H	 0.5088115459	-0.5401679568	-0.8209715892	 0.124095
H	 1.3109322079	 0.2576729283	 1.8129891965	 0.089522
H	-2.0685704749	-0.2517169676	 0.8224585054	 0.084072
H	-3.1476244907	-0.9706439261	-1.3491325154	 0.112565
H	-1.4984488089	-1.0631359997	-2.1326647904	 0.121007
H	-2.3858147959	-2.6731205621	 0.3579956628	 0.083505
H	 0.0765912294	-2.9069973001	 0.2004810277	 0.295647
75.9112	104.3894	178.3174	208.5074	226.1499	265.5197	325.6234	379.5964	463.5551	539.7889	623.2491	628.3969	756.8853	811.1536	858.5041	906.5863	933.5238	968.4698	995.3907	1036.3282	1064.1474	1106.6098	1134.6439	1141.5042	1176.5521	1198.5739	1244.1735	1270.4082	1315.6334	1365.5927	1390.9262	1408.0042	1429.3566	1435.6966	1484.4026	1496.0052	1499.4339	1804.6322	2883.0964	3025.5735	3033.5544	3092.1408	3096.8157	3120.7849	3129.7911	3135.5296	3224.1657	3688.7352
CC(C=O)C1CC1O	C[C@@H](C=O)[C@H]1C[C@H]1O	
InChI=1S/C6H10O2/c1-4(3-7)5-2-6(5)8/h3-6,8H,2H2,1H3	InChI=1S/C6H10O2/c1-4(3-7)5-2-6(5)8/h3-6,8H,2H2,1H3/t4-,5+,6+/m0/s1
