19
gdb 41439	2.7832	2.13111	1.65922	1.5776	78.75	-0.2267	0.0695	0.2963	883.8358	0.161631	-385.781045	-385.774677	-385.773733	-385.811234	27.785	
C	-0.0091519895	 1.5107188727	-0.1565444566	-0.329285
C	 1.5587100928	 1.4961998909	 0.079276969	-0.322894
C	 1.3862220237	 0.1507766284	 0.8623124311	 0.214098
C	 1.0462693228	 0.2198330891	 2.345182501	-0.135507
O	 0.0097375936	-0.7768545436	 2.4492277266	-0.269205
C	-0.1177201198	-1.2133119356	 1.1236682605	 0.066904
C	 1.3210415327	-1.3693547765	 0.4538710066	-0.147105
C	 0.708905674	-0.9821780776	-0.8962453129	-0.280847
C	 0.0367445827	-0.0164111268	 0.1133383585	 0.217404
H	-0.5345353916	 2.0752620211	 0.6175777949	 0.117644
H	-0.3718649274	 1.833341037	-1.1358742107	 0.105027
H	 2.119305345	 1.4112743713	-0.8523334802	 0.118692
H	 1.9802283511	 2.3224633979	 0.6561740979	 0.105131
H	 1.8814920077	-0.0497824301	 3.0030907084	 0.102678
H	 0.6555222058	 1.1959020479	 2.660178659	 0.098103
H	-0.8786358621	-1.9914427601	 1.0422830807	 0.085378
H	 2.0296201108	-2.1744269084	 0.6714516925	 0.066554
H	 1.3856610993	-0.5372462131	-1.6276988321	 0.097124
H	 0.0567740183	-1.7168849944	-1.377630084	 0.090106
234.806	269.8076	343.3858	414.4934	441.0996	483.5346	610.6216	669.431	682.0716	701.5842	793.8862	815.673	833.0913	863.6796	909.203	914.993	942.5018	964.3463	978.4978	1003.4552	1026.1559	1080.2274	1090.6956	1106.4572	1134.7653	1150.8992	1173.3853	1187.4395	1201.0801	1216.4334	1223.2605	1231.4351	1241.8249	1256.9342	1268.142	1309.2991	1377.3267	1469.9734	1481.8751	1518.7173	1531.0753	3015.0401	3051.2964	3051.9696	3061.2527	3063.9458	3076.3363	3113.4287	3113.8453	3117.1312	3136.2093
C1CC23COC4C2CC134	C1C[C@]23CO[C@@H]4[C@H]2C[C@]134	
InChI=1S/C8H10O/c1-2-8-4-9-6-5(8)3-7(1,6)8/h5-6H,1-4H2	InChI=1S/C8H10O/c1-2-8-4-9-6-5(8)3-7(1,6)8/h5-6H,1-4H2/t5-,6-,7+,8+/m1/s1
