22
gdb 101878	3.4568	0.61692	0.54291	4.8165	84.3	-0.2604	0.0403	0.3007	2028.6357	0.191897	-404.365991	-404.354913	-404.353969	-404.403512	38.373	
C	-0.002200697	 1.417055633	-0.1317408095	-0.236456
O	-0.0346667863	 0.0295950666	 0.1108642672	-0.245243
C	-1.322261032	-0.5689570549	 0.0190766634	 0.134808
C	-1.7671078221	-0.7480530064	-1.434990316	-0.404009
C	-1.2304960691	-1.9074766219	 0.7557488353	-0.196619
C	-0.887377394	-1.7522941639	 2.2393625676	-0.182448
C	-0.7285585162	-3.1163335258	 2.9387250452	-0.343605
C	-0.4165707715	-2.9882332073	 4.3607525853	 0.256873
N	-0.173011602	-2.8693768028	 5.4841766232	-0.306697
H	 1.0180811029	 1.7535112728	 0.068812235	 0.129926
H	-0.2528634477	 1.6730110751	-1.1712397765	 0.108023
H	-0.691051822	 1.9617420697	 0.5327712497	 0.1056
H	-2.0527849753	 0.0749611592	 0.5406327362	 0.064024
H	-2.7575948265	-1.2118457831	-1.4792414717	 0.116255
H	-1.8283227968	 0.2102532144	-1.9578505235	 0.119107
H	-1.0593209504	-1.3868759576	-1.972746513	 0.124401
H	-2.1841781943	-2.4378589095	 0.6417936497	 0.096513
H	-0.4653257294	-2.5180316618	 0.2585283853	 0.107072
H	 0.038750011	-1.1805360732	 2.3375495338	 0.138751
H	-1.6709299869	-1.1791748899	 2.7485031367	 0.113764
H	-1.6469208766	-3.7077837106	 2.8397548672	 0.147923
H	 0.0692202822	-3.6966839722	 2.4601706493	 0.152036
50.5679	65.5428	78.2979	103.8494	135.6326	183.9628	210.4801	249.9858	274.5175	317.0685	375.5162	399.9024	469.3517	527.114	567.5949	740.4631	804.2285	856.2073	914.1663	955.5073	985.4844	1011.9632	1051.5474	1105.5251	1118.0439	1130.9057	1164.1099	1181.8324	1190.675	1240.4901	1262.7758	1304.9998	1326.6424	1335.4546	1376.5229	1385.9448	1402.9408	1406.8752	1468.5897	1473.5694	1478.6147	1483.8528	1494.3509	1504.426	1505.9139	1513.3489	2361.9782	2944.3574	2978.8013	3021.1315	3027.9977	3034.8422	3041.5163	3047.0765	3062.898	3071.5109	3111.368	3111.9369	3114.0057	3118.1947
COC(C)CCCC#N	CO[C@@H](C)CCCC#N	
InChI=1S/C7H13NO/c1-7(9-2)5-3-4-6-8/h7H,3-5H2,1-2H3	InChI=1S/C7H13NO/c1-7(9-2)5-3-4-6-8/h7H,3-5H2,1-2H3/t7-/m0/s1
