20
gdb 79529	3.05458	1.73221	1.64257	1.6397	76.1	-0.2078	0.0773	0.2851	933.3729	0.174917	-403.130691	-403.12401	-403.123066	-403.161333	28.486	
C	-0.1382324053	 1.5569975074	 0.050190303	-0.428398
C	 0.0427192912	 0.0433158323	 0.0199920216	 0.046564
C	 0.9091906571	-0.5295326277	-1.1087786778	-0.082495
C	 2.3865861323	-0.3645201477	-0.6365081316	 0.094359
C	 2.199596275	-0.0580044205	 0.8670987829	-0.196902
N	 0.8149166136	-0.5287715153	 1.1676880181	-0.121256
C	 0.7920136147	-1.9753294745	 0.800875992	-0.192094
C	 1.2014656615	-1.9991691863	-0.6931897751	 0.087247
O	 2.6326076458	-1.7866121475	-0.7905139208	-0.303107
H	 0.7964710744	 2.1022967732	-0.1069696422	 0.118977
H	-0.8294960249	 1.8622498639	-0.7415960925	 0.118115
H	-0.558980488	 1.8694401414	 1.0102986937	 0.130557
H	-0.9493853788	-0.4230619793	 0.0265758464	 0.075796
H	 0.6735371056	-0.3228261094	-2.1502183627	 0.073935
H	 3.1112227986	 0.2477130729	-1.1772897918	 0.074846
H	 2.9305361788	-0.5965114864	 1.4738825115	 0.113841
H	 2.2789318109	 1.0085740445	 1.0919010754	 0.102994
H	 1.4867452311	-2.5509512676	 1.416498589	 0.112149
H	-0.222014509	-2.3605478876	 0.9531288053	 0.100209
H	 0.8615392956	-2.8553765958	-1.2798744444	 0.074663
178.9458	226.9788	296.9738	378.2128	412.7329	504.042	526.1258	639.0889	668.15	756.76	817.3445	836.517	852.6087	873.7579	879.0552	886.827	922.2952	948.8324	987.104	993.2364	1007.3978	1040.5555	1053.9254	1097.329	1107.2213	1117.0582	1170.6443	1200.7645	1237.7807	1248.6516	1268.7	1281.1379	1287.8015	1303.5529	1310.365	1348.4505	1354.1276	1395.1045	1411.3331	1474.4066	1487.2392	1496.5692	1509.2994	3035.6658	3043.5803	3046.9604	3067.1029	3087.6338	3090.5251	3109.7694	3114.0556	3118.452	3124.1241	3146.9717
CC1C2C3CN1CC2O3	C[C@H]1[C@H]2[C@H]3CN1C[C@@H]2O3	
InChI=1S/C7H11NO/c1-4-7-5-2-8(4)3-6(7)9-5/h4-7H,2-3H2,1H3	InChI=1S/C7H11NO/c1-4-7-5-2-8(4)3-6(7)9-5/h4-7H,2-3H2,1H3/t4-,5-,6+,7+/m0/s1
