18
gdb 98512	2.27548	1.3842	0.94656	1.7243	74.1	-0.26	-0.0393	0.2207	1257.1332	0.145212	-439.093039	-439.083514	-439.08257	-439.128069	33.748	
C	-0.185765805	 1.6634060789	-0.3432606296	-0.38579
C	-0.3811771153	 0.2057011834	-0.7524135382	-0.283839
C	 0.9186355397	-0.5371590718	-0.9518729183	 0.30414
O	 2.0026881318	-0.0275130591	-0.7478995912	-0.329708
C	 0.8868351154	-1.969367392	-1.4534366213	 0.118106
C	 1.7040484495	-2.1921979852	-2.7139160536	-0.242191
N	 2.1864396005	-2.6799951676	-1.4474825369	-0.331946
C	-0.2738525364	-2.8888176044	-1.2572411748	 0.111786
O	-1.376916065	-2.5773427316	-0.8839740109	-0.266515
H	 0.3725666437	 1.7361020233	 0.5933263085	 0.133436
H	 0.3769385407	 2.2156366991	-1.1005832541	 0.127388
H	-1.1543514143	 2.151816233	-0.2076072931	 0.11502
H	-0.9722529694	-0.3553388981	-0.0192224684	 0.157296
H	-0.9654896546	 0.1151239551	-1.6777307892	 0.129859
H	 1.3756777246	-2.9485683242	-3.4225622594	 0.135994
H	 2.1464344967	-1.2989291753	-3.1468512905	 0.144885
H	 2.8593891416	-2.0108104238	-1.0681004861	 0.260046
H	-0.011952404	-3.9416676397	-1.498991263	 0.102034
53.4852	79.2235	121.6383	176.9084	199.1324	240.9901	274.7284	330.5034	351.8058	379.1517	494.5885	572.5441	631.3351	749.4729	794.7517	820.8582	917.1565	930.2366	992.0417	1005.8449	1046.564	1054.0151	1085.0351	1109.3641	1123.5187	1148.6913	1269.2296	1276.9552	1330.8271	1360.4664	1387.872	1415.2396	1424.8623	1431.1352	1493.4926	1498.1602	1498.8142	1772.1325	1820.4296	2906.0841	3037.3597	3052.5354	3071.8574	3106.3181	3123.9381	3127.8521	3200.1211	3451.5445
CCC(=O)C1(CN1)C=O	CCC(=O)[C@]1(CN1)C=O	
InChI=1S/C6H9NO2/c1-2-5(9)6(4-8)3-7-6/h4,7H,2-3H2,1H3	InChI=1S/C6H9NO2/c1-2-5(9)6(4-8)3-7-6/h4,7H,2-3H2,1H3/t6-/m0/s1
