21
gdb 58716	1.98312	1.49522	1.2254	1.9781	78.16	-0.2398	-0.0302	0.2096	1177.9604	0.179774	-424.223635	-424.213614	-424.21267	-424.258947	36.229	
C	 0.6294725937	-0.3071781779	-1.5184849524	-0.402043
C	 0.0440094996	 0.0629539854	-0.1495696425	-0.025259
C	-0.0253724114	 1.5834494952	 0.0571607787	-0.413331
C	-1.3234067363	-0.6024252391	 0.0891299722	 0.351649
C	-1.3313619454	-2.1352440114	 0.2970337428	-0.338546
C	-1.907907759	-1.8023380002	 1.6858833312	-0.076945
O	-1.803972059	-0.3786195406	 1.4436987483	-0.330845
C	-2.3879226781	-0.1010707106	-0.8766183604	 0.112403
O	-2.6299707306	-0.6016376259	-1.9452754818	-0.257896
H	 1.6314132686	 0.1196706772	-1.6257585497	 0.115397
H	 0.7114089945	-1.391040378	-1.6455975157	 0.11972
H	 0.0111524477	 0.0751807627	-2.3360609314	 0.135094
H	 0.6949323974	-0.3511866953	 0.6325805911	 0.078301
H	-0.5930173577	 2.0745385038	-0.741563077	 0.118031
H	-0.4964177014	 1.8249014832	 1.013708512	 0.138227
H	 0.9806334594	 2.0139839642	 0.0525036599	 0.116178
H	-1.9768801321	-2.6888861199	-0.3846392344	 0.131503
H	-0.3386512038	-2.5882354788	 0.3079100446	 0.113023
H	-2.9473372587	-2.108923238	 1.8524416961	 0.11003
H	-1.3037786862	-2.1094714329	 2.5462435153	 0.110261
H	-2.9546349014	 0.7759246269	-0.4921666468	 0.095046
51.1704	80.5702	101.8668	197.4553	228.5521	236.2594	253.7005	259.6505	309.6141	383.0684	419.3633	454.0989	546.8846	699.4887	790.5865	836.4867	881.3582	920.9698	935.1405	946.6805	969.2606	994.4183	1014.8552	1048.2763	1077.9378	1134.466	1163.0875	1169.7231	1205.4271	1212.1524	1252.6082	1260.07	1337.7914	1344.7349	1370.3488	1399.1076	1404.2128	1425.5948	1489.1116	1493.0816	1494.3325	1505.1485	1513.2879	1530.5064	1823.5989	2890.3498	3009.6122	3026.2776	3033.4206	3041.0911	3070.4372	3086.1394	3097.8081	3107.8658	3115.6529	3120.982	3145.8953
CC(C)C1(CCO1)C=O	CC(C)[C@]1(CCO1)C=O	
InChI=1S/C7H12O2/c1-6(2)7(5-8)3-4-9-7/h5-6H,3-4H2,1-2H3	InChI=1S/C7H12O2/c1-6(2)7(5-8)3-4-9-7/h5-6H,3-4H2,1-2H3/t7-/m0/s1
