20
gdb 41657	3.29514	1.86919	1.83217	1.7584	79.17	-0.2348	0.089	0.3238	871.9667	0.177128	-366.023912	-366.018027	-366.017083	-366.053762	26.176	
C	-0.0397940067	 1.5546473186	-0.0112552948	-0.222309
C	 1.4562549452	 2.0012507994	-0.0114580581	-0.222308
C	 2.2275875826	 0.6646935163	 0.0287342434	-0.026969
C	 2.0196550338	-0.0053192098	 1.3920054997	-0.036532
C	 0.5893253241	-0.4323082664	 1.3921893764	-0.036531
C	 0.0478008656	 0.0139775483	 0.0290150782	-0.026969
C	 1.3363467256	-0.3264615574	-0.7652267694	-0.063232
C	 1.7446653499	-1.6940226752	-0.2196467794	-0.171643
N	 1.6675841564	-1.435180956	 1.2364062655	-0.138318
H	-0.5992183256	 1.9536481039	 0.8401871017	 0.097961
H	-0.5535038119	 1.892076624	-0.9169358806	 0.095432
H	 1.700698586	 2.5649890785	-0.917251056	 0.095432
H	 1.7056113296	 2.6417061378	 0.8398639092	 0.097961
H	 3.2701264029	 0.729508659	-0.2908608357	 0.060839
H	 2.5705669182	 0.2842317115	 2.2788558947	 0.085701
H	-0.0299527574	-0.4920839332	 2.2791894354	 0.0857
H	-0.8597370176	-0.5033463372	-0.290328083	 0.060839
H	 1.2957322168	-0.1908743637	-1.8458112803	 0.064142
H	 1.0567252813	-2.5008337107	-0.4927415405	 0.100401
H	 2.7622478213	-1.9916970977	-0.4929628963	 0.100401
210.2221	326.7004	367.148	462.0996	583.8323	628.262	739.1877	767.6694	787.8784	795.6974	850.698	860.4386	891.1141	899.5148	930.2576	932.0119	952.1726	967.6413	972.1219	1014.3032	1025.4634	1028.3041	1041.3096	1070.1594	1098.9729	1146.1846	1177.8604	1191.2465	1198.3265	1213.7179	1244.9222	1258.5793	1269.2313	1283.9351	1294.2186	1306.5458	1308.4784	1343.077	1352.5002	1385.6067	1492.7416	1503.1898	1512.4914	3042.1061	3045.5655	3052.6001	3074.3439	3085.1412	3087.3283	3091.898	3095.6957	3122.5502	3178.2423	3188.7655
C1CC2C3C4C1C2CN34	C1C[C@H]2[C@H]3[C@H]4[C@@H]1[C@@H]2CN34	
InChI=1S/C8H11N/c1-2-5-6-3-9-7(4(1)6)8(5)9/h4-8H,1-3H2	InChI=1S/C8H11N/c1-2-5-6-3-9-7(4(1)6)8(5)9/h4-8H,1-3H2/t4-,5+,6-,7+,8-,9?
