17
gdb 52633	2.24232	1.01772	0.88723	4.1115	79.57	-0.2473	-0.0424	0.2049	1415.6889	0.130336	-421.819794	-421.808824	-421.80788	-421.860568	36.003	
C	 0.2144406095	 1.5394662716	 0.1632738223	-0.498664
C	 0.0891711169	 0.0908753428	 0.1045475353	 0.024433
C	-0.0296866877	-1.1072863081	 0.0477959133	 0.069929
C	-0.1184882899	-2.5645395408	-0.0101130056	-0.10182
C	-1.5638873876	-3.0609389622	-0.2205748914	-0.422853
C	 0.8173594573	-3.0590288186	-1.1320646933	 0.165399
O	 0.4517905028	-3.7306054272	-2.0560853638	-0.242238
C	 0.3999283254	-3.1157248136	 1.3319913641	 0.15356
O	 1.2646561231	-3.9431100189	 1.4310134206	-0.24022
H	 1.1048562053	 1.8379270319	 0.7267511305	 0.156751
H	 0.2953343532	 1.9682596699	-0.8413026744	 0.15864
H	-0.6566420482	 1.9914601329	 0.6494990923	 0.156431
H	-1.9691567529	-2.6370908805	-1.1410313392	 0.147788
H	-1.5773844663	-4.1496100056	-0.3077664452	 0.144808
H	-2.1987222804	-2.7538853912	 0.6146705904	 0.125668
H	 1.8661048292	-2.718358001	-1.0233518715	 0.103821
H	-0.1103691798	-2.6788499112	 2.2175099257	 0.098568
1.2623	53.2791	70.1459	107.4965	121.5804	188.5051	234.4819	268.7424	288.4243	293.3999	321.056	452.4199	487.3234	512.4548	610.0911	736.5216	824.0662	913.7093	991.1018	1017.9275	1049.7023	1052.1212	1063.7212	1147.0471	1186.0443	1237.5947	1396.2502	1405.7792	1413.3992	1420.6096	1475.1451	1475.9201	1482.3989	1489.416	1822.6307	1843.939	2357.1966	2901.2008	2938.7273	3031.9726	3055.1432	3095.6481	3095.8349	3134.2407	3145.1336
CC#CC(C)(C=O)C=O	CC#CC(C)(C=O)C=O	
InChI=1S/C7H8O2/c1-3-4-7(2,5-8)6-9/h5-6H,1-2H3	InChI=1S/C7H8O2/c1-3-4-7(2,5-8)6-9/h5-6H,1-2H3
