22
gdb 122317	4.78435	0.67649	0.65266	1.6479	83.17	-0.2467	0.0807	0.3273	1779.9074	0.194249	-404.304876	-404.29527	-404.294326	-404.340322	35.335	
O	-0.0199804203	 1.4253235625	-0.3594515188	-0.422636
C	 0.0612544974	 0.0359741169	-0.0763713788	-0.076372
C	-1.3528555422	-0.5275295877	-0.0727143755	-0.162816
C	-1.395571639	-2.0282847975	 0.2476223794	-0.310421
C	-2.794179365	-2.5749186045	 0.2382871191	 0.374027
C	-3.8845372629	-2.3086301779	 1.2966644398	-0.291485
C	-4.4373463855	-3.7523124393	 1.049839196	-0.235005
C	-3.3392691842	-3.9576943473	-0.0021190174	-0.10068
N	-3.4050450021	-2.9316970282	-1.0408962072	-0.356055
H	 0.8737207364	 1.7788005274	-0.3878839085	 0.284132
H	 0.6680994297	-0.4901409218	-0.8316316591	 0.085122
H	 0.5362816645	-0.14314623	 0.9029143595	 0.080353
H	-1.9463637084	 0.0342386728	 0.6590866934	 0.103983
H	-1.8071069311	-0.3486286582	-1.0536733187	 0.116812
H	-0.8022647274	-2.5822195185	-0.4892201696	 0.107018
H	-0.9413591178	-2.2118746699	 1.2309903943	 0.091435
H	-3.484816397	-2.1877667293	 2.3070277208	 0.105011
H	-4.5563785186	-1.4692891147	 1.0868656937	 0.095928
H	-4.3256583135	-4.3937592801	 1.9273862176	 0.106225
H	-5.4659480891	-3.8403346769	 0.6830734125	 0.096297
H	-2.8292518346	-4.8856207947	-0.2379730573	 0.089718
H	-4.3445328695	-2.554307063	-1.1574641051	 0.219409
49.743	77.9351	95.2694	134.1936	224.6995	263.0652	271.8586	327.1424	356.2235	471.9978	485.8045	701.8118	752.3748	760.9166	782.328	833.2287	864.4914	922.9043	942.9643	953.9543	1008.388	1019.8909	1031.2902	1050.8017	1065.7794	1084.7136	1113.2899	1150.2124	1185.4199	1200.2663	1222.4101	1226.1888	1237.7593	1247.888	1279.5143	1286.1392	1306.9323	1313.3913	1333.9908	1375.8121	1443.7206	1461.5657	1475.3342	1479.5818	1499.6234	1500.7378	1527.9289	2954.8184	2980.8817	3013.5749	3033.9857	3038.3003	3046.7161	3059.6082	3085.79	3091.252	3109.2118	3169.1445	3450.5391	3830.1707
OCCCC12CCC1N2	OCCC[C@]12CC[C@H]1N2	
InChI=1S/C7H13NO/c9-5-1-3-7-4-2-6(7)8-7/h6,8-9H,1-5H2	InChI=1S/C7H13NO/c9-5-1-3-7-4-2-6(7)8-7/h6,8-9H,1-5H2/t6-,7+/m1/s1
