20
gdb 69164	2.13555	1.66832	1.35683	3.8783	79.65	-0.2285	-0.0135	0.215	1080.5211	0.168694	-403.133806	-403.124355	-403.123411	-403.167291	35.84	
C	-0.0796623354	 1.5426185441	 0.1308014765	-0.51367
C	 0.0863964534	 0.0569841322	 0.0365054292	 0.320382
N	-0.8074731896	-0.8769953971	 0.7287387375	-0.370219
C	 0.6702900803	-0.9093057508	 1.0379177211	-0.273667
C	 1.2704237103	-1.710493573	-0.0888065462	 0.453881
O	 2.0568555077	-2.6107884604	-0.1563807821	-0.328981
C	 0.6684040829	-0.7475601535	-1.1669329201	 0.128974
C	-0.3251925314	-1.3404278851	-2.1608169875	-0.454518
C	 1.8263409664	-0.0278963611	-1.8669545762	-0.444829
H	 0.8206616089	 2.0678743166	-0.2009063167	 0.13521
H	-0.914606836	 1.883565326	-0.4922248061	 0.135516
H	-0.2873663005	 1.8480903533	 1.162112558	 0.12186
H	-1.237299545	-0.3768235531	 1.5086307457	 0.232144
H	 1.0211437517	-0.7623489351	 2.0523550939	 0.109659
H	-1.1777744536	-1.7815935671	-1.6412122904	 0.142427
H	-0.6934942018	-0.5734235789	-2.852286014	 0.108022
H	 0.1595822831	-2.1200733765	-2.7574417595	 0.127622
H	 2.3803169552	-0.7345427956	-2.4912260375	 0.137583
H	 1.452017681	 0.7767877668	-2.509105039	 0.115847
H	 2.5326635323	 0.4061762586	-1.1511026067	 0.116758
100.8893	174.5073	192.811	204.0971	221.335	236.0591	271.5694	282.2188	344.9986	388.6978	487.2802	522.5455	592.3061	664.667	690.2993	751.23	804.8077	829.1873	942.1018	961.6407	969.4954	990.8799	1015.0784	1021.9993	1052.6753	1104.0048	1121.6288	1178.1069	1205.9256	1247.3347	1300.7917	1331.7038	1390.0674	1397.4225	1413.0298	1430.6248	1479.1526	1482.8633	1489.1699	1494.8684	1503.3677	1511.17	1887.9978	3027.7352	3028.5245	3031.9537	3089.6283	3092.5729	3095.6385	3107.4216	3114.3387	3134.429	3191.5234	3451.5472
CC12NC1C(=O)C2(C)C	C[C@]12N[C@H]1C(=O)C2(C)C	
InChI=1S/C7H11NO/c1-6(2)5(9)4-7(6,3)8-4/h4,8H,1-3H3	InChI=1S/C7H11NO/c1-6(2)5(9)4-7(6,3)8-4/h4,8H,1-3H3/t4-,7-/m0/s1
