13
gdb 8868	2.47321	1.96674	1.20255	2.7279	56.34	-0.2825	-0.1017	0.1808	941.8838	0.09305	-435.73865	-435.730101	-435.729156	-435.772282	29.181	
O	 0.4343805038	 0.2887616928	 0.9808799917	-0.396818
C	-0.1298516727	 0.2735280385	-0.3090843008	-0.098287
C	-1.5039296293	-0.4471509731	-0.3778441176	-0.00381
O	-2.0101688911	-0.3569807339	-1.6766688035	-0.422061
C	-1.376759935	-1.9062900446	 0.0290060309	 0.281479
O	-1.535667193	-2.7982308264	-0.7731463959	-0.293439
C	-1.08326674	-2.2019033945	 1.4345168703	 0.268019
N	-0.9167062536	-2.4553326567	 2.5502621194	-0.299153
H	-0.0648235721	 0.8962127494	 1.536411981	 0.297021
H	-0.2787503853	 1.2773022473	-0.7276681519	 0.123785
H	 0.5741058161	-0.2547188004	-0.9594909141	 0.133389
H	-2.1880915069	 0.0402158891	 0.3368848518	 0.106037
H	-2.029057301	-1.2597181375	-2.0305293515	 0.303837
48.5996	110.2085	154.4235	189.6526	251.2619	324.6021	331.9033	367.4015	393.1714	422.5362	540.4603	601.9073	732.3091	791.9884	1002.2486	1019.6626	1074.8039	1104.9345	1160.2762	1163.5787	1285.2737	1325.9335	1377.2716	1395.9591	1435.3112	1503.8757	1771.9598	2341.4765	2974.2384	3025.0198	3095.3527	3706.5369	3820.0565
OCC(O)C(=O)C#N	OC[C@@H](O)C(=O)C#N	
InChI=1S/C4H5NO3/c5-1-3(7)4(8)2-6/h4,6,8H,2H2	InChI=1S/C4H5NO3/c5-1-3(7)4(8)2-6/h4,6,8H,2H2/t4-/m1/s1
