23
gdb 86191	2.09777	1.46452	0.93886	1.6996	89.25	-0.2258	0.0268	0.2526	1334.956	0.204372	-388.322463	-388.312106	-388.311161	-388.357457	38.753	
C	 0.0025111725	 1.5708498903	-0.0530912219	-0.40034
C	 0.0594345941	 0.0404078054	 0.0355672766	-0.056386
C	 0.7785384781	-0.6236703884	-1.1597015389	-0.256821
C	 1.5219228481	-1.8452656312	-0.5804436796	 0.066191
O	 2.7808318773	-2.1084222945	-1.1954098877	-0.433227
C	 1.6031166224	-1.541506781	 0.9053095569	 0.151879
C	 2.4517568692	-2.4091585203	 1.7824743817	-0.491957
C	 0.8125540104	-0.5120099663	 1.2398098143	 0.221618
C	 0.5623497818	 0.0438104755	 2.6089962312	-0.500619
H	 1.0109288729	 2.0006104285	-0.0644283618	 0.110106
H	-0.5052287723	 1.8858804376	-0.9707693426	 0.114238
H	-0.5406219752	 2.00782506	 0.7907767438	 0.113246
H	-0.9790678726	-0.3243463387	 0.0853918132	 0.075439
H	 0.1075644112	-0.8791853922	-1.9838999638	 0.098709
H	 1.5297025928	 0.068840449	-1.561820123	 0.087452
H	 0.9585420253	-2.774281785	-0.7463389746	 0.086199
H	 3.3242351895	-1.3209225964	-1.0765213744	 0.270716
H	 3.4595096854	-2.5066658301	 1.3649558262	 0.128292
H	 2.534545692	-2.0286523505	 2.803112737	 0.116636
H	 2.0441483604	-3.4279184337	 1.8345074797	 0.125218
H	 1.1118312168	-0.4952655124	 3.3839326503	 0.122275
H	 0.8454004126	 1.1016343122	 2.6715666245	 0.12745
H	-0.5054023428	-0.0054852978	 2.8613345129	 0.123684
73.7662	107.7005	120.954	166.9656	214.414	252.7886	262.0131	296.9374	312.6736	351.2441	393.0782	471.6606	486.018	538.492	576.5558	650.2642	687.7244	829.636	914.1271	920.7976	959.1343	994.9319	1012.9633	1054.6961	1062.8149	1065.4675	1087.0696	1119.5332	1135.7234	1192.8098	1207.9974	1254.3968	1268.0226	1311.4652	1319.4665	1336.5279	1356.9822	1406.0722	1407.6169	1417.4518	1427.0733	1474.5804	1481.5968	1485.4214	1487.7183	1492.5255	1499.0356	1503.7598	1736.6646	2969.7105	3007.6617	3017.0575	3020.0841	3023.3609	3027.7788	3062.4995	3075.0217	3092.2059	3096.1526	3100.6682	3116.3751	3123.3234	3789.7613
CC1CC(O)C(C)=C1C	C[C@H]1C[C@@H](O)C(=C1C)C	
InChI=1S/C8H14O/c1-5-4-8(9)7(3)6(5)2/h5,8-9H,4H2,1-3H3	InChI=1S/C8H14O/c1-5-4-8(9)7(3)6(5)2/h5,8-9H,4H2,1-3H3/t5-,8+/m0/s1
