15
gdb 77366	2.49764	1.36739	1.11019	1.5038	61.56	-0.258	-0.0513	0.2067	1097.2993	0.109977	-494.90891	-494.900245	-494.8993	-494.944193	30.113	
O	 0.214462975	 1.0596545329	 0.4423393035	-0.432878
C	 0.046535388	-0.2643052925	-0.018329764	-0.000885
C	-1.4278670912	-0.617305486	-0.1970875115	-0.007945
O	-1.7009404511	-0.7484604803	-1.6048062482	-0.267758
C	-0.4954118032	-1.0275085872	-2.2980825056	-0.194544
C	 0.6067124112	-0.4158089946	-1.4433798162	 0.352155
O	 1.691029709	-0.0303148975	-1.7894799631	-0.302143
C	-1.847494653	-1.9157256549	 0.4930189361	 0.130094
O	-1.275448853	-2.4096080005	 1.4280069121	-0.224814
H	 1.1158004177	 1.3194976823	 0.2097321654	 0.298083
H	 0.5306302264	-0.9911217198	 0.6506832637	 0.125692
H	-2.0612648737	 0.1910645114	 0.1882926601	 0.139326
H	-0.3204964351	-2.1104782396	-2.4141613491	 0.129887
H	-0.5345673647	-0.5750766407	-3.291960757	 0.152909
H	-2.7495944924	-2.376610493	 0.0354772836	 0.10282
18.8933	67.4883	115.9986	186.3814	239.9839	296.1136	367.6062	419.0262	474.6998	544.3026	630.6429	652.1972	683.0295	796.9006	840.248	950.2198	987.7685	1044.2136	1068.3171	1088.3917	1113.3895	1177.5802	1203.9151	1223.514	1283.8522	1315.5181	1336.2005	1350.4137	1394.4835	1422.9852	1480.0184	1835.8669	1861.2525	2908.876	2970.4429	3003.7571	3047.3786	3104.5009	3768.0847
OC1C(OCC1=O)C=O	O[C@H]1[C@@H](OCC1=O)C=O	
InChI=1S/C5H6O4/c6-1-4-5(8)3(7)2-9-4/h1,4-5,8H,2H2	InChI=1S/C5H6O4/c6-1-4-5(8)3(7)2-9-4/h1,4-5,8H,2H2/t4-,5+/m0/s1
