17
gdb 108402	2.41726	1.36711	1.10498	4.8952	73.3	-0.2367	0.0283	0.265	1140.5437	0.136318	-417.962145	-417.953591	-417.952647	-417.995728	31.534	
O	 0.0772643104	 1.4060997145	-0.0424423308	-0.403126
C	 0.0552190901	-0.0071045962	 0.0352950462	-0.18094
C	-1.3391291318	-0.5563588085	 0.0620333255	 0.329462
N	-2.3302869238	-0.1662320187	 1.0762733412	-0.349118
C	-2.8075325377	-1.5887794849	 1.1441708603	-0.187907
C	-1.9038231964	-1.9592057961	-0.0355753282	-0.167926
C	-2.0986803747	-0.9777111632	-1.1893357125	-0.245471
C	-3.3810733886	-0.4366567541	-1.5508706474	 0.316014
N	-4.4093958489	-0.0089930507	-1.8630471943	-0.34522
H	-0.4591993206	 1.6733638827	-0.7969829902	 0.294903
H	 0.616615871	-0.4818104789	-0.7856326929	 0.096579
H	 0.571783628	-0.257687539	 0.9695486254	 0.1166
H	-1.8865159213	 0.1360889873	 1.9365227523	 0.233508
H	-2.4954714463	-2.1023767214	 2.0580748171	 0.11596
H	-3.8875653852	-1.7010918214	 1.0103558883	 0.131992
H	-1.4302651178	-2.9165289714	-0.2113810636	 0.111931
H	-1.4594616165	-1.2018235101	-2.0388563063	 0.132758
72.1064	103.9	143.7383	189.4006	274.0274	319.5022	371.654	383.4478	425.0539	565.9767	572.9586	726.0967	733.5602	785.8809	818.1845	902.9328	957.4669	961.0931	965.6199	1004.3991	1018.5127	1057.2336	1084.0069	1118.8748	1147.7225	1182.8866	1232.8934	1251.7731	1285.515	1324.7242	1348.5611	1372.1905	1421.9555	1472.249	1499.4095	1507.7652	2354.231	2976.7098	3049.1668	3056.4383	3100.5459	3154.9805	3193.5794	3540.9835	3806.8368
OCC12NCC1C2C#N	OC[C@]12NC[C@H]1[C@H]2C#N	
InChI=1S/C6H8N2O/c7-1-4-5-2-8-6(4,5)3-9/h4-5,8-9H,2-3H2	InChI=1S/C6H8N2O/c7-1-4-5-2-8-6(4,5)3-9/h4-5,8-9H,2-3H2/t4-,5+,6-/m1/s1
