16
gdb 66060	2.42515	1.28893	1.23167	4.3877	69.51	-0.2797	-0.0507	0.229	1101.2654	0.122067	-437.881369	-437.872391	-437.871447	-437.915668	31.427	
C	-0.0354917413	 1.707657101	-0.1222786589	-0.475045
C	-0.0341441852	 0.1855655547	-0.0334717018	 0.124247
C	 1.1924004975	-0.5515881023	-0.6507192354	-0.108258
O	 1.4642592637	-1.2256830883	 0.5933296719	-0.268142
C	 0.4232590384	-0.5070952463	 1.2839231948	-0.056331
C	 0.9445002647	 0.368819929	 2.334687399	 0.297091
N	 1.3459638149	 1.073782549	 3.1577202863	-0.328369
C	-1.3410708998	-0.3830241283	-0.5529840644	 0.12801
O	-2.0376331666	-1.1680339508	 0.0343099727	-0.239305
H	 0.9272470138	 2.1173808297	 0.1924040042	 0.154661
H	-0.2233732474	 2.0280597085	-1.1527512209	 0.130393
H	-0.8116004149	 2.1427259326	 0.5149329007	 0.148668
H	 0.9866245329	-1.2582597508	-1.4626522941	 0.123105
H	 2.0095711638	 0.1172793987	-0.9462000426	 0.122471
H	-0.3321200668	-1.1806871492	 1.7014680446	 0.152722
H	-1.6150832676	-0.0132282173	-1.567181756	 0.094081
61.2953	87.4147	139.6047	178.4625	207.496	271.2276	302.8662	328.0949	362.7421	537.4963	538.9637	590.277	687.3883	842.7688	894.1267	918.6075	962.8055	969.2138	1022.944	1033.5467	1049.875	1153.9908	1176.1458	1196.2282	1227.7078	1286.4056	1340.406	1366.7186	1410.1376	1424.4074	1490.5755	1494.6226	1522.6782	1829.9012	2356.3017	2878.962	3022.0708	3039.4074	3069.007	3073.3743	3107.9443	3127.0106
CC1(COC1C#N)C=O	C[C@]1(CO[C@H]1C#N)C=O	
InChI=1S/C6H7NO2/c1-6(3-8)4-9-5(6)2-7/h3,5H,4H2,1H3	InChI=1S/C6H7NO2/c1-6(3-8)4-9-5(6)2-7/h3,5H,4H2,1H3/t5-,6+/m0/s1
