23
gdb 62033	3.76436	0.66347	0.58974	0.7234	92.65	-0.2553	0.0586	0.3139	1928.4973	0.203808	-351.115181	-351.104678	-351.103733	-351.151444	38.879	
C	 0.0772551646	 1.6258031046	 0.199067277	-0.385614
C	 0.0181775327	 0.0980011919	-0.0072885447	-0.162243
C	 0.6808849285	-0.3620890201	-1.3294163686	-0.166572
C	-0.0126205132	 0.1495673404	-2.5990538973	-0.220334
C	 0.6110306055	-0.4046505389	-3.8635500412	 0.033772
C	 0.1896997075	-1.7512089748	-4.3974802139	-0.254293
C	-0.1845757554	-0.4906312569	-5.1401057087	-0.278151
C	 0.6272521575	-0.5931466287	 1.1290022992	 0.318282
C	 1.1504147128	-1.1537042132	 2.0553680798	-0.463489
H	 1.1155257944	 1.972255106	 0.2032079595	 0.12387
H	-0.4592475177	 2.1498222954	-0.5961707998	 0.117712
H	-0.3746330197	 1.9030113456	 1.1548534592	 0.12528
H	-1.0410820388	-0.1957146974	-0.047840911	 0.101802
H	 1.7313924811	-0.0440728515	-1.3242514537	 0.101907
H	 0.6927410949	-1.4573478768	-1.347272607	 0.110123
H	-1.0757279011	-0.1282898389	-2.571737952	 0.089317
H	 0.0169148205	 1.2457311945	-2.6332704321	 0.100145
H	 1.6648235278	-0.162065621	-3.9815511531	 0.080678
H	 0.9430339438	-2.400699271	-4.8293986088	 0.110357
H	-0.5994898439	-2.2788519981	-3.870909725	 0.108482
H	-1.2230313803	-0.1762349061	-5.1114036477	 0.108385
H	 0.3155663659	-0.2771095811	-6.0783869477	 0.109791
H	 1.6013788726	-1.6533937438	 2.8764120175	 0.190792
47.3351	71.7028	99.3806	133.2629	183.0952	208.8176	254.2041	277.3785	357.3568	394.9188	405.6418	532.6999	554.3441	623.9167	630.3264	757.1971	773.8126	819.9299	824.4355	842.3179	911.3299	927.1138	956.162	987.9599	1043.3323	1047.3893	1062.0688	1077.3059	1102.6681	1125.7562	1141.3351	1185.539	1198.3829	1229.4599	1245.7392	1274.9455	1315.3647	1337.8616	1343.2102	1385.1794	1406.7735	1418.1369	1469.2313	1480.3189	1495.076	1496.3683	1502.7939	1508.2775	2232.9624	2995.6627	3008.3417	3030.0032	3042.2932	3047.7099	3078.4367	3116.8448	3123.4528	3126.6273	3129.1451	3133.1398	3204.4687	3219.7532	3505.5423
CC(CCC1CC1)C#C	C[C@@H](CCC1CC1)C#C	
InChI=1S/C9H14/c1-3-8(2)4-5-9-6-7-9/h1,8-9H,4-7H2,2H3	InChI=1S/C9H14/c1-3-8(2)4-5-9-6-7-9/h1,8-9H,4-7H2,2H3/t8-/m1/s1
