21
gdb 104165	2.94821	1.12855	1.08636	2.5853	74.51	-0.2449	0.0793	0.3242	1257.8162	0.180965	-461.375775	-461.36611	-461.365166	-461.410343	36.147	
C	 0.2797152778	 1.5287496915	 0.1335658616	-0.410062
C	 0.1205818026	 0.0287976991	-0.0337428996	 0.124344
C	 0.98660686	-0.6179817593	-1.1160850391	-0.115355
O	 1.1446942656	-1.9491858059	-0.6468335815	-0.305102
C	 1.1041523012	-1.9061785086	 0.7873103671	 0.413363
C	 0.2275538196	-3.0478422212	 1.2797868835	-0.416332
C	 2.5470458217	-1.9869733613	 1.3095594568	-0.08687
O	 3.1938348041	-3.1523048123	 0.8414934512	-0.417701
O	 0.5700235198	-0.6394279375	 1.146490885	-0.311313
H	 1.3274646737	 1.7861398574	 0.3152279391	 0.125085
H	-0.0619566177	 2.0523949215	-0.7651551595	 0.119387
H	-0.3133055618	 1.8839927888	 0.9803140683	 0.133745
H	-0.9370040958	-0.2192489274	-0.2147697608	 0.077802
H	 0.5115705007	-0.6525544652	-2.099853279	 0.115149
H	 1.9544045986	-0.101314433	-1.2043679615	 0.095109
H	 0.6962644987	-4.0052160145	 1.0421138218	 0.135156
H	 0.1061329575	-2.9766733408	 2.3638543179	 0.124089
H	-0.7555056846	-2.9985732079	 0.806061986	 0.116337
H	 3.0721379295	-1.0689592647	 1.0037196877	 0.082221
H	 2.5509223894	-2.0265315335	 2.4029541925	 0.113094
H	 3.0632219496	-3.156833305	-0.1149865876	 0.287857
49.5661	114.5741	153.2253	212.6804	218.8651	244.9076	277.8409	333.529	361.1293	433.771	460.5223	476.686	531.9121	617.1427	677.091	791.928	858.1888	889.8993	924.3521	937.4678	957.8075	993.3464	1075.2126	1081.3271	1122.1779	1128.5211	1159.145	1163.853	1182.2124	1240.04	1245.0674	1276.6697	1347.1409	1361.4457	1372.2947	1403.1043	1406.7571	1415.6349	1431.3628	1478.1861	1485.0743	1489.9572	1499.1698	1502.6435	1517.1907	2975.7597	2986.5439	2995.3863	3041.9969	3054.4634	3088.8836	3096.8845	3114.785	3123.6825	3132.636	3141.8042	3781.1682
CC1COC(C)(CO)O1	C[C@H]1CO[C@@](C)(CO)O1	
InChI=1S/C6H12O3/c1-5-3-8-6(2,4-7)9-5/h5,7H,3-4H2,1-2H3	InChI=1S/C6H12O3/c1-5-3-8-6(2,4-7)9-5/h5,7H,3-4H2,1-2H3/t5-,6+/m0/s1
