14
gdb 6639	6.63864	0.81518	0.7501	1.9866	79.96	-0.2419	-0.0285	0.2134	1425.8212	0.103176	-345.371989	-345.363026	-345.362082	-345.406738	30.961	
C	 0.956777352	 0.1111897863	 0.3933847276	-0.475522
C	-0.5107800357	 0.192976091	 0.0427470654	 0.3945
O	-1.2472045765	 1.0459443879	 0.4690179589	-0.280091
C	-1.0643440885	-0.8560932593	-0.9549351811	-0.481636
C	-0.4651777897	-2.1751891856	-0.8880739767	 0.404515
C	 0.0344057887	-3.275735351	-0.8201575387	-0.287881
C	 0.5971486509	-4.5118945064	-0.7417258881	 0.297458
C	 1.0975008234	-5.6086842095	-0.6719835219	-0.545678
H	 1.1505138591	-0.8074463749	 0.9571143445	 0.161895
H	 1.5678993286	 0.0525802792	-0.5139139475	 0.144343
H	 1.2418347482	 0.979645601	 0.987461191	 0.145044
H	-2.1476567984	-0.8995149548	-0.8031352656	 0.165287
H	-0.9085730302	-0.4295695143	-1.9577540657	 0.163188
H	 1.5354122082	-6.5739964096	-0.6109765522	 0.194578
28.6943	72.8495	134.6962	147.5954	205.4103	337.1017	350.3985	425.6064	468.188	523.2077	537.0129	555.2748	593.58	602.0073	741.8818	779.7198	836.6703	1000.3149	1047.1261	1177.9341	1190.7512	1222.8003	1294.199	1384.2939	1434.4866	1457.4037	1470.5414	1826.848	2182.6953	2362.1082	3004.6532	3043.5855	3079.9623	3104.9126	3159.3919	3504.997
CC(=O)CC#CC#C	CC(=O)CC#CC#C	
InChI=1S/C7H6O/c1-3-4-5-6-7(2)8/h1H,6H2,2H3	InChI=1S/C7H6O/c1-3-4-5-6-7(2)8/h1H,6H2,2H3
