16
gdb 10326	2.43972	1.76677	1.17562	2.5334	63.39	-0.2494	-0.0558	0.1936	1040.2135	0.125694	-420.88457	-420.875219	-420.874274	-420.91912	31.513	
C	-0.2509641304	 1.3481997032	 0.2367959164	-0.243041
O	-0.3069072543	-0.0515478333	 0.0373497891	-0.220304
C	 0.5195700814	-0.5024017802	-0.9943230879	-0.063164
C	 1.9750259906	-0.6139963986	-0.5213090142	 0.116432
O	 2.9264266976	-0.7585006271	-1.2428677289	-0.231561
C	 0.0449013336	-1.909874042	-1.4501640421	 0.351174
C	 0.5978672518	-2.3672172566	-2.7807324738	-0.49326
O	-0.7064936114	-2.5538949451	-0.7687379456	-0.265297
H	 0.7570985385	 1.6926592891	 0.5124962978	 0.112848
H	-0.5675646795	 1.8951431738	-0.6639834689	 0.115514
H	-0.9372030212	 1.5791280386	 1.0538184149	 0.142907
H	 0.4991595776	 0.1604010511	-1.8750323155	 0.103896
H	 2.0601274217	-0.580020953	 0.5873369903	 0.111262
H	 1.6596090988	-2.119302197	-2.8676874715	 0.16827
H	 0.4346659205	-3.4388226535	-2.9009769998	 0.147135
H	 0.0747898746	-1.8346307994	-3.5845375805	 0.147188
71.5259	83.2628	131.4468	152.173	182.3428	201.5915	231.4079	339.0674	363.123	379.591	526.9966	586.0844	607.7312	782.4691	933.1148	958.5599	1016.7228	1049.3749	1083.8538	1157.5878	1173.4207	1183.2117	1222.7646	1237.779	1335.8878	1385.3235	1390.6876	1468.0777	1475.3215	1482.2954	1490.3655	1506.7467	1815.7777	1846.6606	2898.6458	2976.7471	2983.2512	3030.4511	3038.1737	3107.1706	3128.995	3157.5989
COC(C=O)C(C)=O	CO[C@@H](C=O)C(=O)C	
InChI=1S/C5H8O3/c1-4(7)5(3-6)8-2/h3,5H,1-2H3	InChI=1S/C5H8O3/c1-4(7)5(3-6)8-2/h3,5H,1-2H3/t5-/m0/s1
