20
gdb 109609	2.47568	1.08538	0.96727	4.9492	81.38	-0.2288	0.028	0.2567	1341.2496	0.170686	-399.318291	-399.307962	-399.307017	-399.353623	37.529	
C	 0.0314041795	 1.5220415453	-0.1636527984	-0.381125
C	 0.0024846597	 0.0378086418	 0.2227253062	-0.201039
C	-1.3857204468	-0.5574556355	 0.0992791511	-0.041877
C	-1.8899542845	-1.2296838717	-1.1596979445	-0.097466
N	-0.9635481065	-1.4348388708	-2.2384324633	-0.512755
C	-1.5933774421	-2.064662575	 0.1075889551	 0.145449
N	-0.4308255817	-2.9301507942	 0.1507680498	-0.57031
C	-2.7313553445	-2.567149775	 0.8318504931	 0.253792
N	-3.6568904849	-2.9722472284	 1.3965790681	-0.348696
H	 1.0376039631	 1.9364439983	-0.0500967042	 0.118691
H	-0.2762826583	 1.673891444	-1.2043722016	 0.108477
H	-0.6449889106	 2.1100643915	 0.4660766667	 0.120682
H	 0.7093119401	-0.5201978397	-0.3959470225	 0.113088
H	 0.3419766632	-0.0817276566	 1.2579695901	 0.117045
H	-2.1507088627	-0.0003553353	 0.6341303298	 0.105259
H	-2.9417793779	-1.0779477246	-1.4005075885	 0.096443
H	-1.3492362051	-2.0690464045	-2.9296793924	 0.242705
H	-0.7469531369	-0.5632261451	-2.7102421103	 0.244813
H	-0.7387614392	-3.8983389773	 0.1425819167	 0.238633
H	 0.0824180962	-2.7813632572	-0.717490631	 0.248192
55.2932	121.073	128.5344	168.4653	182.2745	202.2162	245.9734	293.5864	300.0538	310.1201	437.0146	469.5506	564.226	582.9466	626.0251	693.0368	775.2263	786.1221	842.2271	885.9679	951.3355	971.4427	1001.6259	1039.6896	1058.4716	1080.2554	1134.6909	1172.3725	1206.5937	1250.9517	1285.828	1301.9116	1325.8038	1349.6145	1395.0913	1413.6702	1460.1348	1481.6571	1498.663	1505.2543	1647.4642	1654.252	2346.5965	3030.1075	3047.3931	3085.1377	3096.355	3104.0586	3110.613	3144.0884	3458.3364	3507.3215	3552.0403	3583.7567
CCC1C(N)C1(N)C#N	CC[C@H]1[C@@H](N)[C@]1(N)C#N	
InChI=1S/C6H11N3/c1-2-4-5(8)6(4,9)3-7/h4-5H,2,8-9H2,1H3	InChI=1S/C6H11N3/c1-2-4-5(8)6(4,9)3-7/h4-5H,2,8-9H2,1H3/t4-,5+,6-/m0/s1
