15
gdb 32304	2.77955	1.54756	1.00042	5.0459	73.15	-0.217	-0.0431	0.1739	1122.5288	0.112982	-457.80838	-457.800692	-457.799748	-457.84076	28.651	
C	 0.0767554411	 1.3931991277	 0.0070224079	-0.247004
O	-0.0184691356	-0.0197898803	 0.0030986741	-0.230287
C	-1.2518746398	-0.5598546119	 0.0106761114	 0.183893
C	-2.4383891047	 0.1048342733	 0.0220345346	-0.224223
C	-3.6658572831	-0.634140133	 0.0288900241	-0.171837
C	-3.6152444971	-1.976586649	 0.0239036085	 0.066638
O	-2.4473571606	-2.6562477191	 0.0126409491	-0.216564
C	-1.2058582721	-2.0313969591	 0.005289835	 0.400621
O	-0.2179929228	-2.7112022578	-0.0045537805	-0.332896
H	 1.142179411	 1.6244586011	-0.0004667593	 0.147794
H	-0.3983355307	 1.8282497785	-0.8818554268	 0.128235
H	-0.384480888	 1.8223556196	 0.9060068321	 0.128235
H	-2.4710856182	 1.1870773233	 0.0260029552	 0.113568
H	-4.6214010203	-0.1272546389	 0.0379391609	 0.114597
H	-4.4680685191	-2.6426265343	 0.0281424439	 0.139228
100.4103	134.5801	229.8356	235.4934	295.5777	360.6774	452.998	505.2354	547.5431	566.0628	579.0397	756.2146	778.1134	786.6327	890.7865	893.4598	919.2056	997.423	1056.805	1112.331	1125.2347	1177.4445	1214.1662	1265.4974	1304.7028	1382.1808	1439.2182	1478.9614	1490.6727	1504.8226	1611.6073	1681.4156	1842.2606	3005.367	3065.5882	3146.6575	3205.2006	3217.571	3236.3452
COC1=CC=COC1=O	COc1cccoc1=O	
InChI=1S/C6H6O3/c1-8-5-3-2-4-9-6(5)7/h2-4H,1H3	InChI=1S/C6H6O3/c1-8-5-3-2-4-9-6(5)7/h2-4H,1H3
