14
gdb 49371	2.32424	1.55547	1.04422	1.4914	69.99	-0.2636	-0.0423	0.2213	1101.1884	0.098133	-436.644089	-436.635556	-436.634612	-436.678095	30.147	
N	 0.0021815714	 1.2711745245	-0.4952812238	-0.538307
C	 0.0169547508	 0.0871107427	-0.0907057428	 0.434241
O	 1.026529675	-0.6862541323	 0.4370288063	-0.252281
C	 0.1173461174	-1.833024913	 0.6548196613	-0.089005
C	 0.0447521933	-2.2218011483	 2.0443921066	 0.38484
C	 0.0213700523	-2.5596420667	 3.1962406977	-0.446119
C	-1.0363078172	-0.9934688394	 0.0233052422	-0.25466
C	-2.2957901038	-0.6669181314	 0.8039281457	 0.135304
O	-2.8619963994	-1.4447493169	 1.5225231112	-0.22812
H	 0.9152013577	 1.7191381612	-0.4046439729	 0.238062
H	 0.4409786483	-2.6693675078	 0.0297594521	 0.131333
H	-0.0191407013	-2.8542704912	 4.2162890098	 0.21521
H	-1.3470661727	-1.3714485563	-0.9570543122	 0.150641
H	-2.6711369017	 0.363105085	 0.6272429288	 0.118861
60.9956	89.0298	122.5376	166.2936	221.7449	275.0241	405.3358	454.0525	521.1199	611.2501	645.6213	657.5483	690.3217	742.9805	830.3316	862.006	875.2669	931.2978	1004.3366	1019.4129	1072.0392	1116.6017	1172.6901	1207.9837	1284.2139	1306.7741	1361.3763	1412.1338	1822.3446	1841.4423	2246.4408	2916.7775	3062.4361	3079.433	3485.113	3501.2533
N=C1OC(C#C)C1C=O	[NH][C]1O[C@@H](C#C)[C@H]1C=O	
InChI=1S/C6H5NO2/c1-2-5-4(3-8)6(7)9-5/h1,3-5,7H	InChI=1S/C6H5NO2/c1-2-5-4(3-8)6(7)9-5/h1,3-5,7H/t4-,5+/m1/s1
