18
gdb 23566	3.0241	1.49634	1.31834	1.2046	78.87	-0.2402	0.0208	0.261	1022.7547	0.149286	-401.861083	-401.853924	-401.85298	-401.892463	29.491	
O	-0.1060685217	 1.3696641109	-0.1157285349	-0.402395
N	 0.0531422128	-0.0371553185	-0.0651670925	-0.324012
C	-1.0597216785	-0.6152412987	 0.0787370031	 0.483452
C	-2.5432647167	-0.2884609905	 0.068157133	-0.133246
C	-2.6089084692	-1.5342353498	-0.9031381515	-0.230892
C	-1.4591559507	-2.0741309706	 0.0384540083	-0.12151
C	-2.2385228365	-2.2392626104	 1.3622645002	-0.038958
C	-2.0110457543	-1.2331727744	 2.4646244047	-0.304253
C	-3.0246589887	-0.9360493616	 1.3852989844	-0.03518
H	 0.8030656992	 1.6654245432	-0.231615884	 0.303676
H	-2.9166228903	 0.6952473619	-0.2031725433	 0.09024
H	-3.5440074433	-2.1007879914	-0.9024377103	 0.099251
H	-2.2746848175	-1.3150570518	-1.9197304493	 0.111482
H	-0.7651321143	-2.8551003545	-0.264236576	 0.08147
H	-2.6942536323	-3.1975467851	 1.5806487126	 0.091203
H	-2.4146048834	-1.4929636654	 3.4382780599	 0.107606
H	-1.0815805979	-0.6744558978	 2.5034972043	 0.130735
H	-4.0804967867	-0.8982458155	 1.6252495414	 0.091334
110.4736	199.4048	290.3115	346.5785	369.2305	419.8459	493.8864	549.9376	653.2991	686.3023	767.462	774.3324	812.2747	816.5054	827.6552	888.9557	908.9253	947.7759	986.5953	1000.5967	1011.4016	1062.3804	1072.6695	1073.7822	1088.5179	1095.5876	1109.6549	1150.7141	1188.3682	1213.8331	1224.9443	1249.2969	1256.1552	1316.4179	1360.9278	1407.7303	1484.9197	1491.5486	1805.9824	3057.2075	3126.6855	3128.6302	3146.6532	3160.0581	3177.5376	3185.1887	3211.7103	3820.0376
ON=C1C2CC1C1CC21	ON=C1[C@H]2C[C@@H]1[C@H]1C[C@@H]21	
InChI=1S/C7H9NO/c9-8-7-5-2-6(7)4-1-3(4)5/h3-6,9H,1-2H2	InChI=1S/C7H9NO/c9-8-7-5-2-6(7)4-1-3(4)5/h3-6,9H,1-2H2/t3-,4+,5+,6-
