14
gdb 132755	2.36648	1.79076	1.02582	3.4494	67.25	-0.2538	-0.0307	0.2231	1061.4946	0.100165	-486.002294	-485.994697	-485.993752	-486.0349	27.821	
C	-0.0223940891	 1.5252240619	-0.0062300391	-0.496526
C	-0.0055223534	 0.0217304936	 0.0168211862	 0.171699
C	 0.0241659667	-0.6963591388	-1.1698351931	 0.053592
F	 0.0379471338	-0.059035408	-2.3425320278	-0.055658
C	 0.0396004575	-2.0905485078	-1.1345398455	 0.244879
F	 0.0678168027	-2.7473722957	-2.2879353847	-0.054015
N	 0.0277114923	-2.7938131741	-0.031183001	-0.326127
C	-0.0009630102	-2.1174899353	 1.1250075936	-0.003317
C	-0.0181461375	-0.7324324156	 1.1962321053	-0.19526
H	 0.8613142214	 1.9194579231	-0.5183770168	 0.150297
H	-0.8957338111	 1.89925262	-0.5503187942	 0.150297
H	-0.0454735825	 1.9309970823	 1.006916229	 0.132781
H	-0.0103633676	-2.7192488114	 2.0288418011	 0.121065
H	-0.0412544731	-0.2343456641	 2.159190477	 0.106293
67.1054	139.1559	237.106	266.8514	297.3816	320.0992	498.0982	533.0571	565.2036	570.3329	591.7897	709.0746	769.2515	846.1637	850.1839	971.8167	975.4313	1061.3503	1062.7345	1120.7228	1250.4362	1293.2018	1318.6626	1346.3354	1415.1907	1475.9494	1480.0414	1504.2863	1513.2834	1621.7038	1648.372	3043.9078	3100.0753	3134.1018	3172.3432	3196.4897
CC1=C(F)C(F)=NC=C1	Cc1c(F)c(F)ncc1	
InChI=1S/C6H5F2N/c1-4-2-3-9-6(8)5(4)7/h2-3H,1H3	InChI=1S/C6H5F2N/c1-4-2-3-9-6(8)5(4)7/h2-3H,1H3
