20
gdb 46036	3.61757	1.07041	0.91354	3.3392	80.71	-0.2509	0.0344	0.2852	1322.6183	0.17263	-403.163614	-403.155301	-403.154357	-403.197206	31.746	
N	-0.0405095021	 1.147769617	 0.3742692112	-0.543877
C	 0.0129117473	-0.0594438526	 0.007410506	 0.412298
C	-0.9699232028	-1.1458789661	 0.3883502164	-0.301531
C	-0.7098131664	-2.2330825485	-0.662229872	-0.247314
C	 0.7703380291	-1.9988499558	-1.0301316578	 0.087001
O	 0.9798690502	-0.5833377133	-0.8031045095	-0.243811
C	 1.7489107809	-2.8116173996	-0.2201601594	 0.024952
C	 2.2297932468	-4.1383724368	-0.7572156973	-0.273284
C	 3.1704878778	-2.9625817685	-0.6918438265	-0.267134
H	 0.7498793165	 1.6701890107	-0.0082991777	 0.218609
H	-0.7380406384	-1.4958962273	 1.4003875535	 0.131781
H	-1.9901898065	-0.7623438345	 0.4028224058	 0.136239
H	-0.8840744361	-3.2483486084	-0.3012747789	 0.114278
H	-1.3417583892	-2.0719619886	-1.5404244126	 0.113856
H	 0.9592880623	-2.1678986162	-2.0955270625	 0.082719
H	 1.6001921186	-2.7511670052	 0.8551481028	 0.086594
H	 2.3675352787	-4.9543543894	-0.0570727446	 0.11669
H	 1.8742622987	-4.4500557056	-1.7342591923	 0.113893
H	 3.4461981379	-2.4787020705	-1.6229197713	 0.120087
H	 3.9577963264	-2.9709230307	 0.0530876068	 0.117953
72.3379	79.5363	126.7122	202.1574	293.1739	356.8965	409.2238	487.2337	523.2426	655.206	724.7151	764.5278	809.6579	831.2059	847.8068	888.64	896.7594	925.0015	942.4651	968.9094	990.2446	1037.6365	1055.8607	1061.9876	1081.4634	1098.4466	1125.2377	1133.5522	1196.2216	1205.4116	1226.8068	1238.1731	1273.7253	1307.6625	1318.4763	1337.1031	1380.3803	1438.5998	1471.5173	1474.4457	1498.3278	1507.5651	1775.6199	3047.5323	3054.874	3066.2786	3118.835	3132.0741	3133.5647	3136.8511	3140.3589	3211.3214	3226.4221	3467.849
N=C1CCC(O1)C1CC1	[NH][C]1CC[C@@H](O1)C1CC1	
InChI=1S/C7H11NO/c8-7-4-3-6(9-7)5-1-2-5/h5-6,8H,1-4H2	InChI=1S/C7H11NO/c8-7-4-3-6(9-7)5-1-2-5/h5-6,8H,1-4H2/t6-/m1/s1
