18
gdb 10033	2.32592	1.59447	1.01562	2.187	75.13	-0.245	-0.018	0.227	1181.8192	0.15264	-381.154661	-381.145475	-381.144531	-381.188692	31.979	
C	 0.0467490916	 1.6109156707	-0.6345966872	-0.375707
C	 0.0313016833	 0.1044291355	-0.3720440316	-0.156932
N	 0.948767541	-0.6416173725	-1.2368054099	-0.089778
C	 2.1771190424	-1.0634678917	-0.7650153308	 0.15687
O	 3.0075758841	-1.662535481	-1.4076465292	-0.317764
C	 0.5856496878	-0.9335535372	-2.5506708349	 0.110928
N	-0.5307027597	-0.5727622164	-3.0273520793	-0.240318
C	-0.8175664865	-0.9441479528	-4.3983866504	-0.31514
H	 1.0454334921	 2.0290163282	-0.4744270423	 0.119219
H	-0.2624558351	 1.8201699192	-1.6603786022	 0.149147
H	-0.6477483267	 2.1143447154	 0.0450413941	 0.120425
H	 0.315992967	-0.1090929844	 0.662860855	 0.112607
H	-0.9717383474	-0.2956588651	-0.5366210114	 0.139967
H	 2.3182144209	-0.7876427038	 0.2968915202	 0.086689
H	 1.3589338375	-1.4948373107	-3.0819701086	 0.136302
H	-1.7333388014	-1.5456262079	-4.4306087125	 0.129487
H	-1.0110360492	-0.0419062386	-4.9900643877	 0.128796
H	-0.0095172918	-1.5131913069	-4.8837138112	 0.105202
78.298	124.1095	148.6205	170.564	206.5504	224.6294	250.3892	325.8994	334.4581	401.6769	483.593	550.6751	696.0785	791.3386	879.9334	1000.2827	1007.6617	1030.4168	1052.8004	1107.3157	1118.4969	1142.3565	1153.1944	1270.8759	1303.0181	1361.7309	1394.371	1408.508	1429.8161	1443.4059	1449.2302	1480.2422	1482.616	1490.5314	1502.9889	1508.124	1745.0015	1805.2676	2956.4563	2981.4787	3044.5894	3058.7432	3062.5466	3076.9686	3099.2557	3104.5868	3118.8956	3142.6683
CCN(C=O)C=NC	CCN(C=O)C=NC	
InChI=1S/C5H10N2O/c1-3-7(5-8)4-6-2/h4-5H,3H2,1-2H3	InChI=1S/C5H10N2O/c1-3-7(5-8)4-6-2/h4-5H,3H2,1-2H3
