18
gdb 66786	2.93414	2.27228	1.84926	1.7535	76.08	-0.2163	0.0717	0.288	828.1737	0.149962	-364.747323	-364.741166	-364.740222	-364.777328	26.824	
C	-0.055639141	 1.4859908431	 0.0253365239	-0.510241
C	 0.0072285086	-0.0122178979	-0.0284668451	 0.36859
C	 0.6594766228	-0.7508842702	-1.2191320027	-0.126422
C	 0.218516169	-2.1672587119	-0.942465519	-0.074279
C	 1.4521516498	-1.6232389061	-0.2532017951	-0.091639
C	 0.8248453742	-0.8974857042	 0.9643663941	-0.135479
C	-0.5150606623	-1.5718317203	 1.3238852287	-0.060877
C	-0.9534837301	-2.1226139003	 0.021996506	-0.0618
N	-1.3013122107	-0.7153152858	 0.3585585638	-0.191692
H	 0.9330971863	 1.9251470469	-0.1433901914	 0.116982
H	-0.7378819108	 1.8672415395	-0.7429313323	 0.12662
H	-0.4238641528	 1.824586212	 0.9985183445	 0.125882
H	 0.9148180389	-0.3581518209	-2.1962341588	 0.085236
H	 0.3024408486	-2.9289006383	-1.7061396202	 0.089691
H	 2.4460783354	-2.0426843042	-0.3504115633	 0.087227
H	 1.4598017992	-0.4658294811	 1.7340145624	 0.071186
H	-0.8988329625	-1.842881221	 2.301738054	 0.089527
H	-1.7914511825	-2.8032627194	-0.0685524895	 0.091488
222.7772	255.5145	268.7286	551.5971	567.0318	579.0522	686.7832	732.6227	760.4431	771.8537	799.4912	808.1711	828.6067	855.8943	881.5996	892.9889	903.5243	932.0664	949.5094	993.4861	1015.1278	1027.6685	1052.8944	1054.4438	1057.8935	1112.2913	1135.2626	1173.6835	1184.8961	1228.94	1237.5963	1242.1845	1314.5406	1325.416	1347.2847	1379.5035	1414.3621	1483.1814	1489.7848	3030.4596	3097.6223	3108.3136	3146.7	3163.4293	3175.402	3185.4498	3187.9286	3211.8378
CC12C3C4C3C1C1C4N21	C[C@@]12[C@@H]3[C@H]4[C@@H]3[C@@H]1[C@@H]1[C@H]4N21	
InChI=1S/C8H9N/c1-8-4-2-3(4)6-7(5(2)8)9(6)8/h2-7H,1H3	InChI=1S/C8H9N/c1-8-4-2-3(4)6-7(5(2)8)9(6)8/h2-7H,1H3/t2-,3+,4-,5+,6-,7+,8+,9?/m0/s1
