16
gdb 18877	3.23855	2.60185	2.13569	2.2431	62.25	-0.2495	0.0851	0.3346	708.008	0.13305	-383.707911	-383.701923	-383.700979	-383.737717	24.568	
O	 0.1755346654	 1.3908808264	 0.1818677629	-0.453115
C	-0.0150308897	 0.0108974062	 0.0325034481	 0.156403
C	-1.4261088848	-0.594598752	-0.0079045584	-0.122167
C	-2.0631283225	-0.4265413471	-1.3730298488	-0.071222
C	-1.5265139759	 0.6402706835	-2.3102144978	-0.116027
O	-0.1039949862	 0.4221476784	-2.3617867785	-0.283122
C	 0.2207104156	-0.5805507002	-1.3920548353	 0.022598
C	-1.0123821143	-1.4783666988	-1.1926356942	-0.087394
H	 0.242169779	 1.7422362432	-0.7167358248	 0.290528
H	 0.585699035	-0.5121533595	 0.7847574465	 0.082529
H	-2.0260064411	-0.8651884973	 0.8531027884	 0.087716
H	-3.1014490237	-0.7243514897	-1.461127375	 0.096735
H	-1.9359462455	 0.5309127344	-3.3219836277	 0.108976
H	-1.7327627681	 1.6588004278	-1.9593254545	 0.107458
H	 1.1942924395	-0.9984760408	-1.6415081203	 0.085233
H	-1.1174454027	-2.5395323446	-1.3657934005	 0.094869
169.9352	268.0213	303.684	465.2668	520.5485	585.6803	662.8393	706.2385	780.0093	806.2926	816.7917	836.4551	909.2464	920.0048	969.7656	984.7943	1012.0237	1034.6978	1043.7187	1066.5268	1084.9441	1115.8321	1146.5823	1181.0783	1223.2087	1227.1083	1267.1047	1301.0393	1322.9275	1341.1043	1370.3425	1415.0029	1422.7312	1525.8323	3018.3083	3050.1199	3054.689	3136.684	3179.4073	3189.4247	3221.0868	3744.897
OC1C2C3COC1C23	O[C@H]1[C@H]2[C@H]3CO[C@@H]1[C@@H]23	
InChI=1S/C6H8O2/c7-5-3-2-1-8-6(5)4(2)3/h2-7H,1H2	InChI=1S/C6H8O2/c7-5-3-2-1-8-6(5)4(2)3/h2-7H,1H2/t2-,3+,4-,5+,6-/m1/s1
