16
gdb 127513	2.41877	1.62154	0.98024	1.1135	69.32	-0.19	0.0394	0.2293	1147.3484	0.124052	-471.212451	-471.202853	-471.201909	-471.246633	34.051	
C	 0.0405189985	 1.3990356763	-0.1021672119	-0.327583
N	 0.0891818754	-0.0374318521	 0.0037061845	-0.008321
N	 0.0179497049	-0.8136004504	-1.1128160105	-0.38636
C	 0.0432187225	-2.0547207638	-0.6532811907	 0.332106
O	 0.0181816749	-3.1447919979	-1.4595120265	-0.450742
C	 0.1037272405	-2.1084663864	 0.7496442963	 0.092017
O	 0.1319437567	-3.189731772	 1.5889117417	-0.471225
C	 0.1241717026	-0.7834075365	 1.1453089563	 0.295674
N	 0.2409010209	-0.2008824222	 2.4173255776	-0.616774
H	 0.4939958382	 1.8277325226	 0.7939204772	 0.15106
H	 0.6060447502	 1.7050832673	-0.984343042	 0.147361
H	-0.9873756254	 1.7714511573	-0.1983856899	 0.127027
H	-0.0071192612	-2.8246652815	-2.3694990317	 0.303174
H	 0.2860935949	-3.9735186633	 1.0516481783	 0.304567
H	 0.5704731529	-0.8930496063	 3.0810562265	 0.258711
H	-0.6421559463	 0.162510099	 2.7643720548	 0.249307
100.6365	127.8019	149.2153	177.852	197.0158	237.5609	280.1671	299.6486	308.8785	357.4845	392.9517	579.1202	618.0942	624.8639	638.5764	711.0429	760.2484	830.1971	938.9883	1051.8559	1118.2522	1151.346	1188.1118	1242.5357	1289.314	1314.3361	1377.2337	1435.8796	1464.0054	1490.3357	1511.0555	1569.3776	1595.4087	1647.8458	1698.0432	3019.8027	3101.9507	3147.3027	3492.9173	3583.4746	3801.8039	3830.048
CN1N=C(O)C(O)=C1N	Cn1nc(O)c(O)c1N	
InChI=1S/C4H7N3O2/c1-7-3(5)2(8)4(9)6-7/h8H,5H2,1H3,(H,6,9)	InChI=1S/C4H7N3O2/c1-7-3(5)2(8)4(9)6-7/h8H,5H2,1H3,(H,6,9)
