17
gdb 54213	2.54249	1.45136	1.37954	5.3475	68.94	-0.2352	0.0036	0.2388	1026.4729	0.137039	-455.200248	-455.191899	-455.190954	-455.233373	31.108	
C	-0.0264398391	 1.5737140133	 0.0541466339	-0.42659
C	 0.1374357105	 0.0497963244	 0.0009793231	 0.146365
C	 0.9047282477	-0.4384206159	-1.2643544543	-0.229326
N	 1.8405073626	-1.3994302747	-0.6718684753	-0.286815
H	 2.6728531715	-1.6952412666	-1.1554928583	 0.255797
C	 1.8229504933	-1.2211513086	 0.681404742	 0.06605
N	 0.9190576433	-0.4446807302	 1.161203217	-0.320369
C	-1.2765175234	-0.5760473453	 0.0626576651	 0.42248
O	-2.0166928584	-0.6202949841	-0.8836765459	-0.350134
O	-1.6178389146	-1.0238044391	 1.2771705963	-0.373923
H	 0.9546540881	 2.0560316607	 0.0244729641	 0.118725
H	-0.6233106341	 1.9186388588	-0.7948031011	 0.140629
H	-0.527433945	 1.8734662001	 0.9786291807	 0.134272
H	 0.2334172189	-0.9030792831	-1.9893081214	 0.148921
H	 1.4376842755	 0.3868744733	-1.7527083656	 0.107944
H	 2.5333638689	-1.7610955666	 1.3009221464	 0.1378
H	-0.8118193157	-0.9390991364	 1.8286637934	 0.308176
77.5542	92.7458	227.1507	240.9434	257.8961	312.2713	338.7209	413.5232	479.3036	513.8736	604.6231	687.4362	761.3497	789.2048	798.2209	870.3613	880.8771	956.032	973.252	1000.2824	1021.6786	1140.6574	1149.8576	1161.9117	1187.6023	1203.5224	1267.2556	1309.8351	1344.6257	1398.6336	1412.7213	1462.362	1487.5693	1495.6088	1529.6123	1664.7606	1862.8601	3023.7989	3043.1484	3108.5046	3120.8574	3127.0457	3186.5617	3522.4966	3644.1002
CC1(C[NH+]=CN1)C([O-])=O	C[C@]1(CN[CH][N]1)C(=O)O	
InChI=1S/C5H8N2O2/c1-5(4(8)9)2-6-3-7-5/h3H,2H2,1H3,(H,6,7)(H,8,9)	InChI=1S/C5H8N2O2/c1-5(4(8)9)2-6-3-7-5/h3H,2H2,1H3,(H,6,7)(H,8,9)/t5-/m0/s1
