16
gdb 48661	2.27057	1.55965	1.1559	2.4601	73.96	-0.2378	-0.0674	0.1704	1075.1934	0.122842	-437.857119	-437.84877	-437.847826	-437.890408	30.272	
O	-0.2318500234	 0.1981072508	-0.1485958776	-0.269647
C	-0.0442344388	 1.3936620983	-0.1141753816	 0.062426
C	 1.2872424287	 1.9948125046	 0.0188331225	 0.172261
C	 1.5268564726	 3.432092107	 0.3952768051	-0.350648
C	 1.9766453232	 3.0459220346	-0.9686338771	 0.219447
N	 3.2423031735	 2.3153898497	-0.8968560793	-0.371775
C	 2.6046183463	 1.2258610955	-0.0804711078	-0.233798
C	 1.3849086897	 3.5951445804	-2.2033185671	 0.070835
O	 0.3367377779	 4.1947567582	-2.2462662351	-0.261594
H	-0.8798660901	 2.1208371078	-0.1927677866	 0.094343
H	 0.634637459	 4.0502568089	 0.4119947076	 0.156059
H	 2.2876488305	 3.663318572	 1.1350508601	 0.13746
H	 3.5247061519	 1.968108238	-1.8083803331	 0.231725
H	 3.1254194922	 1.0232616189	 0.8600765718	 0.122095
H	 2.4683305372	 0.2927185938	-0.6313799707	 0.138859
H	 1.9855543297	 3.4037210415	-3.1214151609	 0.081952
82.5907	117.3975	170.4689	183.2368	233.3217	277.6495	386.2423	408.5169	482.8291	544.538	660.7237	718.8281	764.6052	807.7307	830.4066	950.6651	973.1635	1002.1395	1017.2859	1023.1652	1040.6248	1096.736	1143.8555	1176.9693	1221.7807	1278.1174	1301.8672	1371.4901	1401.7563	1426.6057	1437.4582	1476.0563	1510.7761	1782.1236	1797.3253	2876.0023	2910.9032	3057.2494	3117.0983	3121.5878	3221.4328	3518.1243
O=CC12CC1(NC2)C=O	O=C[C@]12C[C@]1(NC2)C=O	
InChI=1S/C6H7NO2/c8-3-5-1-6(5,4-9)7-2-5/h3-4,7H,1-2H2	InChI=1S/C6H7NO2/c8-3-5-1-6(5,4-9)7-2-5/h3-4,7H,1-2H2/t5-,6+/m1/s1
