16
gdb 19297	3.55892	1.88917	1.51038	2.2741	60.35	-0.2381	0.0755	0.3136	863.059	0.129352	-420.814877	-420.807282	-420.806338	-420.846725	28.083	
C	-0.0377327249	 1.3476185892	 0.2127873936	-0.244643
O	-0.0612758494	 0.0253689067	-0.2982972169	-0.242127
C	-1.2929115292	-0.6047858622	-0.133757914	 0.081197
C	-1.349352335	-2.0314897735	-0.6658651756	-0.020049
O	-0.4492800974	-2.8246564253	 0.1213273586	-0.250286
C	-1.7573155958	-2.56712824	 0.6492205584	-0.011199
C	-1.6397470612	-1.1847181738	 1.3141190051	 0.075542
O	-0.647704164	-1.0520864576	 2.2878745762	-0.430047
H	 0.9580666254	 1.7488304512	 0.0113524347	 0.12921
H	-0.7840936883	 1.9828438031	-0.2890157313	 0.103066
H	-0.2224135834	 1.3632952535	 1.2934146087	 0.131908
H	-2.1234300099	 0.0067336189	-0.5202934765	 0.068421
H	-1.5687345056	-2.384034438	-1.6663920405	 0.11103
H	-2.37372267	-3.4230817126	 0.8974272295	 0.109396
H	-2.5732936096	-0.7946509451	 1.7245643044	 0.09188
H	 0.1518650484	-1.4267432544	 1.8939285855	 0.296701
128.2785	131.5064	178.6877	231.3194	254.9665	338.2563	448.7035	494.113	599.2613	670.9414	756.6712	800.7077	859.7548	891.4628	912.1786	950.9833	1020.8919	1032.9465	1057.5427	1124.0779	1147.4489	1176.6078	1189.0282	1223.4792	1235.9612	1249.3152	1277.5457	1307.2332	1374.147	1378.7008	1445.5771	1481.9504	1488.5366	1512.2402	2980.8901	2987.5605	3062.9953	3099.6282	3123.1318	3186.2147	3201.4572	3766.0438
COC1C2OC2C1O	CO[C@H]1[C@H]2O[C@H]2[C@H]1O	
InChI=1S/C5H8O3/c1-7-3-2(6)4-5(3)8-4/h2-6H,1H3	InChI=1S/C5H8O3/c1-7-3-2(6)4-5(3)8-4/h2-6H,1H3/t2-,3+,4-,5+/m0/s1
