19
gdb 71561	2.9587	1.64601	1.47583	3.279	78.94	-0.2289	-0.0011	0.2278	977.2866	0.160662	-385.882397	-385.87514	-385.874196	-385.913649	29.805	
C	-0.0550690006	 1.5413757614	 0.0648513335	-0.507016
C	-0.0342791054	 0.0350348197	 0.0603991039	 0.352745
C	-1.2979738546	-0.8320617138	 0.2471894839	-0.29352
C	-0.2738747365	-1.9730304352	 0.5434412134	-0.164764
C	 0.7300018644	-0.870518241	 1.0866325518	-0.069755
C	 1.980639121	-0.8525798255	 0.1898429708	-0.255297
C	 0.938064941	-0.7162265559	-0.9661941923	-0.201474
C	 0.309253931	-2.1034912917	-0.8633960863	 0.462019
O	 0.2720362977	-3.0109185204	-1.6476133781	-0.348722
H	 0.9557429423	 1.9630859512	 0.0826694045	 0.121117
H	-0.5579536957	 1.9281455221	-0.8291000407	 0.124478
H	-0.5929974183	 1.9217793558	 0.9403717831	 0.118785
H	-1.8484687343	-0.5285254291	 1.1431810174	 0.102714
H	-1.995592552	-0.9731241701	-0.5855866049	 0.1063
H	-0.5365953	-2.8801513025	 1.082307719	 0.082642
H	 0.7423752891	-0.686294815	 2.1606778605	 0.073739
H	 2.5676027153	 0.0583441998	 0.3327779023	 0.108376
H	 2.6481390481	-1.71991467	 0.1703839152	 0.10842
H	 1.1905104275	-0.3317227099	-1.9523325071	 0.079214
141.5044	219.4442	245.4519	269.9348	393.4996	404.3979	469.9402	527.9213	632.8376	689.3717	751.1833	768.9434	780.8637	842.7328	862.3676	898.1937	916.1481	929.9491	967.2184	994.3641	1004.3277	1048.1351	1072.6852	1108.7025	1124.1137	1145.1125	1153.7142	1184.1516	1199.4777	1212.9722	1226.8842	1248.437	1274.4299	1301.951	1337.7189	1413.9447	1488.8525	1490.83	1498.071	1500.6361	1879.1326	3023.8589	3036.6054	3048.6574	3088.0022	3093.0452	3094.4248	3106.0593	3116.9182	3142.6542	3151.5403
CC12CC3C1CC2C3=O	C[C@]12C[C@@H]3[C@H]1C[C@H]2C3=O	
InChI=1S/C8H10O/c1-8-3-4-5(8)2-6(8)7(4)9/h4-6H,2-3H2,1H3	InChI=1S/C8H10O/c1-8-3-4-5(8)2-6(8)7(4)9/h4-6H,2-3H2,1H3/t4-,5-,6+,8+/m1/s1
