18
gdb 125357	3.04933	1.07313	0.85094	3.4896	74.3	-0.2475	0.0018	0.2493	1344.8318	0.148062	-435.265364	-435.256226	-435.255282	-435.300216	32.195	
C	-0.0880355107	 1.5461725635	-0.017388777	-0.507778
C	-0.0224035252	 0.0563353704	-0.0280081657	 0.311166
C	-0.0176036567	-0.8621187211	-1.0544242368	-0.149492
N	 0.0435487111	-2.1176337132	-0.5358022259	-0.192193
N	 0.0776640371	-2.0345760879	 0.7615526368	-0.159349
N	 0.0336170572	-0.720485863	 1.0879859098	 0.003127
C	 0.1193365861	-0.3343289545	 2.4834505428	-0.184861
C	 1.5746911133	-0.2108941658	 2.9634545285	-0.072993
O	 1.6335949734	 0.188634489	 4.3179511839	-0.405181
H	 0.7945799169	 1.9963556168	 0.450365072	 0.143292
H	-0.1471032326	 1.9186156438	-1.0421617859	 0.147683
H	-0.9692108021	 1.9129807494	 0.5212945529	 0.143537
H	-0.0609933031	-0.6868331077	-2.1176938249	 0.120126
H	-0.4012099383	 0.6154081639	 2.6294015553	 0.131281
H	-0.4008007122	-1.1030135933	 3.0614647478	 0.135211
H	 2.0955754003	-1.1601770305	 2.7790532831	 0.123617
H	 2.0904751131	 0.5653811203	 2.3886114612	 0.120771
H	 1.3924973623	-0.5656161301	 4.8651050721	 0.292037
55.0673	93.5582	103.3483	133.6419	246.3765	256.5393	301.6578	331.2028	373.0205	428.174	660.4005	676.9999	718.2493	783.1365	793.3203	840.4133	982.8286	1004.3953	1028.7048	1047.4336	1066.4976	1080.0842	1120.3947	1148.6588	1219.7201	1262.6081	1300.61	1340.3612	1341.717	1350.8936	1401.4394	1418.7053	1422.1717	1458.1263	1476.7456	1483.3441	1510.2851	1511.9311	1593.745	3019.9463	3032.489	3068.6761	3080.7606	3083.6338	3125.2309	3129.4911	3264.73	3820.0409
CC1=CN=NN1CCO	Cc1cnnn1CCO	
InChI=1S/C5H9N3O/c1-5-4-6-7-8(5)2-3-9/h4,9H,2-3H2,1H3	InChI=1S/C5H9N3O/c1-5-4-6-7-8(5)2-3-9/h4,9H,2-3H2,1H3
