14
gdb 66720	2.97186	1.68938	1.29113	1.3612	73.31	-0.2116	0.022	0.2335	954.5861	0.098855	-399.379757	-399.372458	-399.371513	-399.411247	28.866	
O	-0.1662337557	 1.3562571796	-0.075206458	-0.434799
C	 0.0105571928	 0.0099182468	-0.0382816636	 0.3035
C	 0.9206420637	-0.9874661567	-0.8259002415	-0.145855
C	-0.1557803406	-2.0100385708	-0.7996723205	-0.121104
N	 0.8540285297	-1.9713113736	 0.3126734511	-0.170716
C	-0.0508816914	-1.0066443148	 1.0673050205	-0.167491
C	-1.1158628287	-1.051202905	-0.0406781511	 0.279937
C	-2.5127305995	-0.8829749452	 0.0045679339	 0.017227
C	-3.7098886337	-0.7516387351	 0.0329211758	-0.375778
H	 0.5120832309	 1.7776395121	 0.466514629	 0.300325
H	 1.7988062759	-0.8778830328	-1.4510920057	 0.108228
H	-0.3361185565	-2.8905710004	-1.4047233974	 0.106993
H	-0.1607253905	-0.9541930118	 2.1431274799	 0.119304
H	-4.7639513264	-0.6286779523	 0.0578725176	 0.18023
117.183	156.2621	272.5534	326.075	351.1393	477.3395	487.7535	548.3287	558.3846	643.0903	670.0086	714.3971	736.7987	772.3262	781.0015	862.7996	885.2311	936.7123	962.2146	969.7037	990.4184	1015.9634	1092.5812	1171.743	1190.0154	1204.0025	1285.1056	1304.8452	1359.0745	1474.0669	2227.7679	3178.0622	3191.6707	3198.5448	3503.5497	3775.5371
OC12C3C4N3C1C24C#C	O[C@@]12[C@@H]3[C@H]4N3[C@@H]1[C@@]24C#C	
InChI=1S/C7H5NO/c1-2-6-3-4-7(6,9)5(6)8(3)4/h1,3-5,9H	InChI=1S/C7H5NO/c1-2-6-3-4-7(6,9)5(6)8(3)4/h1,3-5,9H/t3-,4+,5-,6+,7+,8?/m1/s1
