21
gdb 101131	3.02676	1.18004	0.95946	1.4698	79.17	-0.2463	0.0799	0.3261	1305.4613	0.180358	-424.181161	-424.171595	-424.170651	-424.216021	35.2	
C	-0.9550800781	 1.6340128083	 0.0811652949	-0.231237
O	-0.8479280596	 0.3503197632	 0.6516841702	-0.250373
C	-1.2037172534	-0.7173352267	-0.2194931275	-0.006177
C	-0.1176371298	-1.0267610232	-1.2509657899	-0.410225
C	-1.5032297496	-1.8892288007	 0.6752955884	 0.4477
C	-2.3632277895	-1.9045840844	 1.950557133	-0.296881
C	-1.4990084528	-3.1122534872	 2.46023397	-0.238039
C	-0.6949137492	-3.0258270743	 1.1570946882	-0.043081
O	-1.6284985858	-3.1846763625	 0.075340029	-0.299763
H	-0.7534960978	 2.3558546744	 0.8766079708	 0.127551
H	-0.2307586529	 1.7993668837	-0.7293574911	 0.108725
H	-1.9654343273	 1.8184371749	-0.3167645127	 0.104863
H	-2.1371006606	-0.4504332645	-0.7479587977	 0.070615
H	 0.8348989252	-1.2151298431	-0.7464836499	 0.121831
H	-0.3927186679	-1.9132740948	-1.8263571665	 0.140392
H	 0.0177102717	-0.192174426	-1.9436004322	 0.113681
H	-2.229651162	-1.0067370172	 2.5548226398	 0.121312
H	-3.4271744394	-2.0925859019	 1.7871460734	 0.10133
H	-0.9111716421	-2.862545016	 3.346443364	 0.10753
H	-2.017556876	-4.0606346588	 2.618867675	 0.109519
H	 0.3332827468	-3.3066957732	 0.9597561008	 0.100729
51.0599	78.3041	146.1302	179.6559	200.4677	242.8702	272.2122	348.5716	363.9097	425.6781	491.4046	516.2841	686.4785	746.9531	775.6465	858.0567	882.2258	917.0218	925.7629	946.3214	997.0195	1024.1022	1061.8639	1094.6321	1100.9614	1142.7949	1162.9769	1173.6977	1182.4468	1212.1796	1214.7441	1224.1896	1269.97	1272.0828	1366.7888	1379.1196	1396.9448	1453.073	1464.0358	1476.6876	1483.0521	1489.3355	1498.8633	1502.7418	1513.5477	2938.2114	2977.7158	3028.524	3049.5918	3066.3827	3074.6292	3111.571	3120.5826	3120.9161	3137.8999	3143.7849	3185.4724
COC(C)C12CCC1O2	CO[C@@H](C)[C@]12CC[C@H]1O2	
InChI=1S/C7H12O2/c1-5(8-2)7-4-3-6(7)9-7/h5-6H,3-4H2,1-2H3	InChI=1S/C7H12O2/c1-5(8-2)7-4-3-6(7)9-7/h5-6H,3-4H2,1-2H3/t5-,6+,7+/m0/s1
