14
gdb 131393	3.59588	1.17871	0.90898	3.7127	66.83	-0.2251	0.0108	0.2359	1195.3248	0.101713	-470.007576	-469.999432	-469.998487	-470.041105	29.271	
O	 0.4751804687	 1.0234557347	 0.762459772	-0.433418
C	 0.1827200477	-0.2238536284	 0.3378788614	 0.337839
N	 0.3251195158	-0.6021057109	-0.9218843705	-0.31656
N	-0.0692743663	-1.8984674916	-0.9270901551	-0.199091
C	-0.4401468861	-2.3474378894	 0.2938951158	-0.110476
C	-0.290417488	-1.2804948007	 1.1543510223	 0.177389
O	-0.6331668367	-1.2732005877	 2.4793292952	-0.221473
C	 0.2510847347	-0.7227628983	 3.3564245668	 0.114647
N	-0.0623271837	-0.6543637857	 4.5734520973	-0.436392
H	 0.7538861528	 1.5315356777	-0.0099230649	 0.308568
H	-0.0604584811	-2.4045602163	-1.7942840832	 0.282123
H	-0.7886602051	-3.351524366	 0.4707913941	 0.151507
H	 1.1783949233	-0.3880498887	 2.881445081	 0.111547
H	 0.6958562641	-0.2281713186	 5.1021945378	 0.233791
53.4349	89.9423	150.3059	280.8762	302.5557	358.8353	370.9557	440.799	452.7323	534.4851	648.2805	713.7975	725.5174	793.28	817.1806	828.6908	932.6124	1038.5092	1048.3008	1074.5973	1141.6494	1249.0136	1269.3782	1275.2143	1343.1015	1415.2893	1451.1902	1497.4559	1586.5976	1644.6891	1749.1464	3080.2871	3274.805	3521.5699	3696.9869	3794.8492
OC1=NNC=C1OC=N	Oc1n[nH]cc1O[CH][NH]	
InChI=1S/C4H5N3O2/c5-2-9-3-1-6-7-4(3)8/h1-2,5H,(H2,6,7,8)	InChI=1S/C4H5N3O2/c5-2-9-3-1-6-7-4(3)8/h1-2,5H,(H2,6,7,8)
