18
gdb 104756	2.28898	1.31674	1.0085	4.5417	73.4	-0.2595	0.0274	0.2869	1217.3111	0.145686	-439.065971	-439.056234	-439.055289	-439.100632	34.879	
C	 0.5384150524	-0.8482344506	 1.804894441	-0.261546
O	 0.2869602941	-0.3430749148	 0.4959284459	-0.275292
C	-1.0055323575	-0.5134368375	 0.0217317771	 0.393852
C	-2.0776953733	 0.2742010247	 0.7720426501	-0.158258
O	-3.3654337449	 0.1534352622	 0.1949471988	-0.40388
C	-1.0927679572	-0.6898788028	-1.4544589589	-0.346689
C	-1.4003702045	-1.8820311325	-0.5474083415	-0.245412
C	-0.4848956352	-2.9820513831	-0.4901867082	 0.305876
N	 0.2453682392	-3.8783394424	-0.4334226765	-0.349398
H	 1.6182206767	-0.7885039645	 1.9514353817	 0.141195
H	 0.0441711413	-0.24734674	 2.5787377712	 0.115829
H	 0.2240898632	-1.8936832956	 1.8989715823	 0.137049
H	-2.1676472577	-0.10614174	 1.7943853611	 0.123471
H	-1.7487609254	 1.3212938109	 0.836760663	 0.113715
H	-3.4270457904	 0.771182385	-0.5394166369	 0.295404
H	-1.9313959817	-0.2728533413	-1.998627004	 0.115892
H	-0.149897189	-0.7132884475	-1.986687287	 0.150863
H	-2.4479583901	-2.1445439304	-0.448347639	 0.147329
89.1074	114.6016	122.1554	144.1542	194.2153	222.0426	274.714	314.7469	333.405	385.7955	457.9667	497.9786	563.507	635.7791	718.1458	779.4629	848.0539	908.7619	972.4652	1026.6095	1062.4742	1078.2012	1090.823	1100.2033	1121.2707	1180.6567	1202.3484	1223.4514	1260.9384	1283.3753	1387.9729	1390.337	1416.7549	1470.8212	1485.736	1494.744	1503.5412	1504.9437	2349.942	3006.989	3014.5044	3079.0548	3086.0325	3136.0684	3151.546	3179.6871	3248.1677	3834.7071
COC1(CO)CC1C#N	CO[C@@]1(CO)C[C@H]1C#N	
InChI=1S/C6H9NO2/c1-9-6(4-8)2-5(6)3-7/h5,8H,2,4H2,1H3	InChI=1S/C6H9NO2/c1-9-6(4-8)2-5(6)3-7/h5,8H,2,4H2,1H3/t5-,6+/m0/s1
