21
gdb 9345	5.56659	0.79667	0.77341	3.3604	77.04	-0.2401	0.0376	0.2777	1592.9774	0.187334	-366.312176	-366.301848	-366.300904	-366.349604	35.457	
C	-0.0549579392	 1.4076615143	-0.3656356277	-0.377358
C	-0.2986932393	-0.1033220289	-0.3808171295	-0.167297
C	-1.2708916821	-0.5462715093	 0.7194142987	-0.146476
N	-1.5060011787	-1.9801552872	 0.7343915314	-0.321276
C	-2.6683501904	-2.548222634	 0.2954472403	 0.41974
O	-3.6068059535	-1.8929816664	-0.1246831201	-0.378293
C	-2.7214990076	-4.0720868767	 0.4097299307	-0.296167
C	-3.6104398465	-4.6972030605	-0.6661551705	-0.366179
H	 0.6399912689	 1.7051969605	-1.1562606486	 0.116149
H	-0.9888483937	 1.9595452817	-0.5172546039	 0.123875
H	 0.3700487499	 1.7332515613	 0.5905812421	 0.113848
H	-0.7058941447	-0.4118041894	-1.3505239183	 0.1137
H	 0.6548423018	-0.6347255292	-0.2595907972	 0.086898
H	-0.8939347837	-0.2307047864	 1.7012472292	 0.098942
H	-2.247700886	-0.0795567098	 0.5710821074	 0.146797
H	-0.7549419454	-2.5857227735	 1.0223622844	 0.238766
H	-1.7101100039	-4.4949833921	 0.3811217737	 0.093846
H	-3.1234421768	-4.3031666933	 1.4052299697	 0.128234
H	-4.5897572804	-4.2147608442	-0.6646355188	 0.145908
H	-3.1773306732	-4.5638640634	-1.6622025198	 0.119718
H	-3.7396825755	-5.7689417235	-0.4913360831	 0.106625
21.0811	34.791	75.6068	90.3751	205.701	220.4303	236.1758	282.7537	324.9451	351.2961	441.7252	516.7743	606.5452	683.3456	748.8914	808.5638	844.3716	891.3895	932.7138	1000.7204	1035.7237	1060.4445	1095.9822	1113.7356	1127.5565	1180.9699	1226.6396	1279.3606	1287.4315	1331.9083	1338.7967	1375.6985	1406.4446	1407.6874	1414.9508	1465.5379	1477.8018	1491.2863	1493.3278	1499.8484	1505.5468	1509.2157	1541.5549	1774.7735	3016.4928	3018.9108	3022.176	3031.6875	3046.9471	3058.0613	3062.7182	3097.2933	3107.345	3112.7068	3115.4036	3139.0332	3640.9161
CCCNC(=O)CC	CCCNC(=O)CC	
InChI=1S/C6H13NO/c1-3-5-7-6(8)4-2/h3-5H2,1-2H3,(H,7,8)	InChI=1S/C6H13NO/c1-3-5-7-6(8)4-2/h3-5H2,1-2H3,(H,7,8)
