22
gdb 23001	2.72743	1.06456	0.97299	0.5854	85.36	-0.236	0.0164	0.2524	1356.8878	0.192364	-404.30849	-404.298292	-404.297347	-404.34404	37.533	
C	-0.4371917891	 1.4414174866	 0.0029711668	-0.39724
C	-0.1242207907	-0.0509543851	 0.0451164838	 0.010035
C	 0.9356216182	-0.5006777718	-1.0038402158	-0.225621
C	 2.0216762594	-0.4812419976	 0.1038261616	-0.236948
C	 0.8965143413	-0.4948226525	 1.1672705723	-0.05715
C	 1.010996853	 0.3245533103	 2.416625893	 0.34903
C	-0.0871587502	 0.24008944	 3.4450660139	-0.474083
N	 2.0452169811	 1.0656223903	 2.5468636803	-0.176234
O	 2.0222663326	 1.7779316176	 3.7601445809	-0.402115
H	 0.4751226855	 2.0455039226	 0.0409826101	 0.126849
H	-0.9674281631	 1.6917782746	-0.9224669732	 0.110885
H	-1.0703477092	 1.7469986715	 0.8429677938	 0.11336
H	-1.0573971715	-0.6222552292	 0.0355214745	 0.063773
H	 0.7424154781	-1.5090482685	-1.3804487749	 0.095777
H	 1.0824966637	 0.1649424981	-1.8588506926	 0.093981
H	 2.73311315	-1.3094124935	 0.1312091434	 0.094843
H	 2.5805754586	 0.4551115909	 0.1307421734	 0.121483
H	 0.6588172384	-1.5258639565	 1.4579346831	 0.077408
H	 0.2988729348	-0.1763547983	 4.3819219205	 0.144556
H	-0.4681310521	 1.2376083818	 3.6834377994	 0.146868
H	-0.9103647694	-0.3860095003	 3.0946600826	 0.116868
H	 2.8461514406	 2.273999979	 3.7161402232	 0.303674
54.0903	83.742	97.9977	132.6619	206.2557	243.2009	286.4422	299.2194	353.0919	387.7152	410.9467	461.5518	538.7539	645.5333	690.3622	761.0416	788.3526	886.2057	896.587	919.1722	956.8715	972.7233	1003.8685	1014.2761	1026.919	1063.1602	1087.3397	1133.3151	1160.8055	1216.8211	1232.1106	1239.8408	1260.1683	1275.2656	1283.1081	1361.409	1371.4375	1398.5629	1403.8172	1414.4437	1476.2741	1482.0547	1484.2961	1494.0287	1499.0368	1502.0607	1721.9844	3021.974	3028.6635	3041.586	3047.0443	3056.8655	3076.6507	3092.2295	3099.6337	3100.4714	3104.1315	3131.3657	3135.0947	3823.3018
CC1CCC1C(C)=NO	C[C@H]1CC[C@H]1C(=NO)C	
InChI=1S/C7H13NO/c1-5-3-4-7(5)6(2)8-9/h5,7,9H,3-4H2,1-2H3	InChI=1S/C7H13NO/c1-5-3-4-7(5)6(2)8-9/h5,7,9H,3-4H2,1-2H3/t5-,7+/m0/s1
