16
gdb 45244	3.53937	1.71866	1.54859	4.5699	67.19	-0.2517	-0.0107	0.241	875.9941	0.128437	-437.881973	-437.876133	-437.875189	-437.912089	24.487	
O	-0.037182596	-0.0289762661	-0.2897434127	-0.342768
C	-0.0054844118	 1.1395429238	-0.0409740209	 0.443509
O	-1.12433173	 1.9089381732	 0.1385526966	-0.234254
C	-0.6566754134	 3.2097105169	 0.5692937883	 0.080567
C	 0.0586420113	 2.9817777675	 1.9294300991	-0.193246
N	 1.4527967988	 2.7291749847	 1.4591959859	-0.137496
C	 1.6599360321	 4.0174570333	 0.6785142286	-0.193554
C	 0.6041072367	 3.4828358759	-0.2974666487	-0.060855
C	 1.172066443	 2.0900441116	 0.0662429724	-0.14708
H	-1.4917936771	 3.90424585	 0.5207675816	 0.101009
H	 0.0478782846	 3.8466578539	 2.5960675655	 0.11592
H	-0.3546438818	 2.1173580453	 2.4523466266	 0.132837
H	 1.4737319735	 4.9340673431	 1.2448268477	 0.10933
H	 2.6644328236	 4.0380894164	 0.2502445383	 0.123414
H	 0.4516428908	 3.8266685744	-1.3207074216	 0.090362
H	 2.0924143058	 1.7389176163	-0.3920490867	 0.112305
162.5533	315.8577	408.7952	463.1157	550.9607	586.0732	647.2335	685.4164	795.6841	830.4219	847.9304	868.5096	883.5512	904.1794	923.9778	945.88	970.4295	998.879	1023.2371	1057.104	1090.363	1131.7862	1162.5558	1169.0809	1215.4293	1235.3966	1237.9887	1260.7593	1281.4718	1301.251	1322.0212	1352.7405	1500.7081	1526.5467	1890.2808	3059.3129	3076.8035	3117.4217	3122.0499	3132.5872	3154.841	3166.0536
O=C1OC2CN3CC2C13	O=C1O[C@H]2CN3C[C@H]2[C@H]13	
InChI=1S/C6H7NO2/c8-6-5-3-1-7(5)2-4(3)9-6/h3-5H,1-2H2	InChI=1S/C6H7NO2/c8-6-5-3-1-7(5)2-4(3)9-6/h3-5H,1-2H2/t3-,4+,5-/m1/s1
