15
gdb 95616	2.3712	1.72245	1.04043	4.1694	62.39	-0.2697	-0.0876	0.1821	1073.3202	0.112394	-494.941241	-494.933304	-494.93236	-494.974151	29.206	
O	-0.0114716322	 1.4239954609	 0.1068904249	-0.439784
C	-0.0584318542	 0.033328167	 0.0126778629	 0.060409
C	-1.4844723381	-0.5113646448	-0.1183358131	-0.264723
C	-1.4260803067	-2.0304990839	-0.1362567768	-0.080094
O	-0.5855824347	-2.5707449383	-1.1782583693	-0.227101
C	 0.5192750761	-1.9392667148	-1.6271284037	 0.353991
O	 1.2751273217	-2.476787898	-2.3815419002	-0.286505
C	 0.7257165566	-0.4682386056	-1.1834945362	 0.231047
O	 1.4564852647	 0.2571851522	-1.8090413585	-0.287498
H	 0.6643272489	 1.7142484028	-0.5252792756	 0.300398
H	 0.4004190178	-0.4368353372	 0.9057538605	 0.104324
H	-2.091676278	-0.1773424743	 0.7281422868	 0.135269
H	-1.9478203049	-0.1252117375	-1.0331045248	 0.130914
H	-1.0531579651	-2.4130821652	 0.8221229968	 0.128634
H	-2.4093280821	-2.4691961232	-0.3145908639	 0.140719
65.9221	111.8938	248.4618	265.2671	320.1772	349.1435	409.7426	424.7844	435.1553	521.2128	611.1951	651.5433	714.1141	814.2449	907.7023	925.6997	991.8517	1063.082	1092.4066	1109.7638	1175.783	1182.0959	1207.5821	1270.6844	1296.6407	1335.3138	1383.2592	1422.57	1431.1344	1486.2901	1514.4995	1821.1005	1850.4189	2908.6843	3033.9707	3052.2027	3104.0815	3118.2738	3707.2761
OC1CCOC(=O)C1=O	O[C@H]1CCOC(=O)C1=O	
InChI=1S/C5H6O4/c6-3-1-2-9-5(8)4(3)7/h3,6H,1-2H2	InChI=1S/C5H6O4/c6-3-1-2-9-5(8)4(3)7/h3,6H,1-2H2/t3-/m0/s1
