21
gdb 80481	2.37309	1.5612	1.36559	1.8653	78.11	-0.2337	0.0611	0.2948	1084.9806	0.182244	-424.213538	-424.204566	-424.203622	-424.246736	34.808	
C	-0.0261548785	 1.6163522859	-0.1928329809	-0.397314
C	 0.0577272432	 0.1187927019	-0.0018378247	-0.029743
C	 1.3333902085	-0.6558244549	-0.1834337012	 0.061228
O	 2.5180200685	 0.1002922069	-0.1430841327	-0.271217
C	 2.9721249503	 0.1431911993	 1.2166727486	 0.136556
C	 3.8763096154	 1.3469682208	 1.4060976477	-0.431653
C	 1.6874355017	 0.0988683608	 2.09534685	 0.048582
O	 1.1929443337	 1.3706204021	 2.4946609104	-0.41838
C	 0.6933379423	-0.6066583612	 1.1830380578	-0.099576
H	 0.9401767775	 2.0909587288	-0.0278130521	 0.132459
H	-0.3464652269	 1.8379524859	-1.2171346164	 0.103435
H	-0.7458853872	 2.0653823003	 0.4966221407	 0.120467
H	-0.8219590322	-0.4152910615	-0.3572378938	 0.082821
H	 1.3889153632	-1.5530912477	-0.7939348212	 0.086849
H	 3.5386931133	-0.780607644	 1.4234831062	 0.06535
H	 3.3232488653	 2.2769842828	 1.2535420665	 0.135275
H	 4.3052276044	 1.3502053913	 2.4147464035	 0.106977
H	 4.7026863839	 1.3134254437	 0.6916676338	 0.132301
H	 1.8772265249	-0.5186881242	 2.985543128	 0.066396
H	 1.821107369	 1.7535860249	 3.1154215704	 0.283005
H	 0.1580141596	-1.4566039419	 1.5884512994	 0.086183
83.553	162.6468	194.045	224.135	249.9345	269.2722	308.441	331.9296	361.721	505.9765	523.8902	613.4074	690.2009	748.6795	762.665	781.2368	817.3898	889.5523	907.0673	980.4319	1004.1032	1008.2071	1051.9227	1059.6369	1092.955	1124.7434	1137.9366	1148.5059	1151.4187	1177.4526	1227.883	1230.0688	1311.7442	1330.4424	1352.8154	1364.3726	1383.0907	1402.6933	1415.9218	1425.2052	1438.3056	1487.3147	1489.5899	1496.1664	1500.517	2951.6943	2991.9071	3039.7314	3040.2956	3104.0237	3109.7021	3116.9778	3131.6225	3138.1248	3158.0948	3178.874	3815.6341
CC1C2OC(C)C(O)C12	C[C@H]1[C@H]2O[C@@H](C)[C@@H](O)[C@@H]12	
InChI=1S/C7H12O2/c1-3-5-6(8)4(2)9-7(3)5/h3-8H,1-2H3	InChI=1S/C7H12O2/c1-3-5-6(8)4(2)9-7(3)5/h3-8H,1-2H3/t3-,4+,5-,6-,7-/m1/s1
