16
gdb 33225	5.60678	0.81807	0.73541	2.0001	67.64	-0.2308	0.0049	0.2357	1474.8799	0.124508	-475.031278	-475.022888	-475.021943	-475.066298	29.537	
O	 0.1439663873	 1.2858435905	-0.4583097044	-0.416379
C	-0.0177384148	-0.0315201112	 0.0221309944	-0.064368
C	-1.4791878042	-0.427041655	 0.1233279436	-0.09777
O	-2.0026171475	-0.3783161167	-1.2242121348	-0.291461
C	-3.3142830915	-0.5624434943	-1.3624954502	 0.396635
C	-4.2741815345	 0.0893952177	-2.0616491922	-0.213739
N	-5.4729323723	-0.6070660234	-1.9266373107	-0.249698
C	-5.1838584559	-1.6065042729	-1.1660749481	 0.079787
O	-3.8801479797	-1.663447176	-0.7757658084	-0.185353
H	-0.3127278768	 1.3287969129	-1.3057704511	 0.293456
H	 0.5086802391	-0.7646345526	-0.6088964333	 0.103565
H	 0.4297876958	-0.0668178692	 1.0206525112	 0.119344
H	-1.5938895176	-1.4376437949	 0.5297648487	 0.123939
H	-2.0340938976	 0.2847247937	 0.7458077076	 0.122246
H	-4.1884978248	 0.9904290378	-2.6449774076	 0.12806
H	-5.8310740349	-2.3852860466	-0.7956760146	 0.151735
28.6186	48.1556	121.133	161.4454	282.963	355.3557	398.4246	455.2405	487.308	665.6466	674.9235	744.3701	807.1081	827.5233	877.7122	908.7912	932.1788	984.329	1038.5921	1091.4703	1110.9653	1120.8773	1131.1533	1228.1743	1250.6931	1260.3568	1284.8337	1355.0834	1390.4687	1399.5521	1434.8067	1494.1623	1498.285	1562.0564	1671.2153	2990.0214	3032.6889	3084.8386	3091.8983	3277.7457	3281.4435	3810.1036
OCCOC1=CN=CO1	OCCOc1cnco1	
InChI=1S/C5H7NO3/c7-1-2-8-5-3-6-4-9-5/h3-4,7H,1-2H2	InChI=1S/C5H7NO3/c7-1-2-8-5-3-6-4-9-5/h3-4,7H,1-2H2
