15
gdb 47196	2.34061	1.73941	1.03677	4.8829	69.41	-0.2567	-0.058	0.1987	1080.6764	0.115584	-454.020589	-454.012987	-454.012043	-454.053203	28.237	
O	-0.0544694143	-0.0648004129	-0.0991008767	-0.378873
C	-0.0763373742	 1.1454232554	-0.0041264391	 0.425409
N	-1.2142851745	 1.8851709598	-0.1817441066	-0.325129
C	-1.4694345849	 3.1909737035	 0.4119560698	-0.237916
C	-0.6285801047	 4.2889153261	-0.1834808426	-0.066608
C	 0.6827101474	 4.2115151805	-0.4056511094	-0.107241
C	 1.5987956117	 3.1081411699	-0.0397984128	 0.379362
O	 2.7988102755	 3.2984553925	 0.0070469052	-0.345542
N	 1.1051911115	 1.8450118069	 0.2989548451	-0.392299
H	-2.0149005074	 1.2873243254	-0.3192811824	 0.261047
H	-2.5252567541	 3.4124653757	 0.2424905427	 0.131457
H	-1.3261734888	 3.1705427287	 1.5042835346	 0.139403
H	-1.1425898504	 5.2155009631	-0.4242606695	 0.120288
H	 1.2221148303	 5.0575513194	-0.8170953355	 0.127973
H	 1.8628092369	 1.1968125459	 0.4778932173	 0.26867
72.1158	123.1753	178.1691	296.896	349.8227	376.0047	446.7847	533.795	557.1822	640.296	670.1274	717.6159	770.9247	798.5923	839.1288	873.7551	915.806	971.4606	1021.1886	1050.9157	1151.1439	1219.1431	1283.9601	1304.6158	1378.5509	1410.1526	1425.8981	1428.9521	1472.3572	1496.9648	1713.9299	1771.1961	1810.2058	2978.8434	3101.7854	3166.2584	3202.9462	3584.7165	3630.2095
O=C1NCC=CC(=O)N1	O=C1NCC=CC(=O)N1	
InChI=1S/C5H6N2O2/c8-4-2-1-3-6-5(9)7-4/h1-2H,3H2,(H2,6,7,8,9)	InChI=1S/C5H6N2O2/c8-4-2-1-3-6-5(9)7-4/h1-2H,3H2,(H2,6,7,8,9)
