17
gdb 126702	2.06546	1.86256	1.05934	3.7892	70.09	-0.2028	0.045	0.2478	1118.0688	0.137513	-451.376592	-451.367595	-451.366651	-451.410543	32.593	
C	 0.1353849987	 1.5883891161	 0.0792741329	-0.383567
C	-0.0513298425	 0.0765161053	-0.0635115957	-0.166043
N	 0.6764259602	-0.4871333135	-1.1877270149	-0.148882
C	 0.0513705848	-0.8343991439	-2.4035474777	 0.461619
O	-1.1355675678	-0.7866625777	-2.6587246179	-0.43919
N	 1.1166591931	-1.2190839128	-3.1697452998	-0.320406
N	 2.3412972577	-1.1503782814	-2.5152183685	-0.300897
C	 2.0266476066	-0.6940446346	-1.339774354	 0.426847
N	 2.9408878484	-0.3667733191	-0.3510912445	-0.589988
H	 1.1881722189	 1.8424649676	 0.228312382	 0.137327
H	-0.2222633263	 2.1024009888	-0.8170764756	 0.140984
H	-0.4355872493	 1.956301954	 0.9371998388	 0.120876
H	 0.2463864121	-0.4416899443	 0.8558764105	 0.105167
H	-1.1001744358	-0.1677766894	-0.2525214455	 0.15474
H	 1.0701869958	-1.5439736054	-4.1180664456	 0.276781
H	 3.8704196778	-0.6712158957	-0.6136760907	 0.267023
H	 2.6962473375	-0.7201632741	 0.5661083864	 0.257609
65.6917	104.4125	143.7392	211.2067	252.366	267.2681	295.3519	343.0357	407.9649	443.3673	582.7525	619.0335	671.5818	732.6627	745.8487	776.84	791.032	823.1952	970.7805	1012.2406	1058.4018	1106.2796	1181.7367	1212.4213	1223.5339	1307.238	1358.5523	1387.5627	1393.0847	1412.1322	1479.0419	1491.5206	1507.0223	1535.8601	1621.1577	1684.9711	1838.3945	3033.4024	3046.0433	3101.1712	3120.3701	3131.7353	3531.1579	3627.4584	3710.493
CCN1C(=O)NN=C1N	CCn1c(=O)[nH]nc1N	
InChI=1S/C4H8N4O/c1-2-8-3(5)6-7-4(8)9/h2H2,1H3,(H2,5,6)(H,7,9)	InChI=1S/C4H8N4O/c1-2-8-3(5)6-7-4(8)9/h2H2,1H3,(H2,5,6)(H,7,9)
