14
gdb 45681	3.3963	1.67132	1.16152	5.751	68.97	-0.1964	-0.0125	0.1839	968.5573	0.103891	-432.893541	-432.886826	-432.885882	-432.924596	26.3	
O	-0.1737150202	-0.0377740382	 0.1743514486	-0.345708
C	-0.0622141156	 1.158334115	 0.1068254336	 0.377046
N	-1.0907830785	 2.0736174094	-0.1278914289	-0.329982
C	-0.6863306215	 3.4188949159	 0.121487078	-0.16481
C	 0.6439653757	 3.4364924674	 0.2291020828	 0.258941
N	 1.6717522646	 4.1907311328	 0.8036193698	-0.394759
C	 2.5358549497	 3.2194417328	 1.3435040912	 0.05493
N	 2.3342758079	 1.9982762727	 1.0118519508	-0.250017
C	 1.2065668246	 2.0534299299	 0.0725409488	-0.123809
H	-2.0529150377	 1.7754643036	-0.0929656896	 0.258385
H	-1.4288525639	 4.1878071107	 0.2691771796	 0.126361
H	 1.4913191613	 5.0443663677	 1.3097464918	 0.25798
H	 3.3482234281	 3.5445270325	 1.9851990687	 0.136658
H	 1.6018519254	 1.8766563077	-0.9431471052	 0.138783
128.5571	209.8062	293.8338	320.4835	465.886	507.2588	519.3158	574.2324	599.8899	653.5811	685.0964	762.9907	782.6082	871.6426	911.6383	940.8969	967.8543	1047.652	1053.9485	1071.9672	1132.555	1195.299	1267.1599	1277.5115	1305.4721	1336.4209	1388.65	1409.1858	1643.5545	1749.021	1852.9358	2960.0854	3201.3017	3247.1912	3623.045	3644.1633
O=C1NC=C2NC=NC12	O=C1N[CH][C]2N[CH][N][C@@H]12	
InChI=1S/C5H5N3O/c9-5-4-3(1-6-5)7-2-8-4/h1-2,4H,(H,6,9)(H,7,8)	InChI=1S/C5H5N3O/c9-5-4-3(1-6-5)7-2-8-4/h1-2,4H,(H,6,9)(H,7,8)/t4-/m1/s1
