27
gdb 58467	2.25843	1.18672	1.08144	0.0818	96.03	-0.2497	0.075	0.3248	1382.1016	0.248978	-353.561444	-353.549747	-353.548803	-353.597462	44.26	
C	-0.5624908984	 0.2128106239	-2.8178372814	-0.397165
C	-0.3007407242	-0.5430389674	-1.5036182971	-0.017996
C	 0.7977053966	 0.150855774	-0.6819743206	-0.399312
C	-1.5860342078	-0.7649774482	-0.6915808667	 0.343515
C	-2.2425664836	 0.5209925021	-0.2016162331	-0.47454
C	-2.5018797775	-1.8901563846	-1.1347278787	-0.386407
C	-1.7328537532	-2.0276884716	 0.163472706	 0.289143
C	-0.6204590867	-3.0640336502	 0.2343793392	-0.455688
C	-2.5033537636	-1.9678527733	 1.4746914663	-0.449234
H	 0.3423186583	 0.2308186178	-3.4346849853	 0.106204
H	-1.357308762	-0.2651850865	-3.3992312166	 0.113154
H	-0.8539931581	 1.2533877879	-2.6421037833	 0.113504
H	 0.0821369737	-1.5277322475	-1.7899439082	 0.066702
H	 1.0089754654	-0.3934605721	 0.2438074319	 0.112936
H	 1.7289745478	 0.2150165728	-1.2547996701	 0.107302
H	 0.5109845075	 1.1727038693	-0.4109934894	 0.114313
H	-2.320210181	 1.2525678801	-1.012031896	 0.114841
H	-3.2570099837	 0.3524545551	 0.1637812206	 0.113487
H	-1.674433436	 0.9885288966	 0.6100907569	 0.115161
H	-3.5752113254	-1.7303031573	-1.0863720254	 0.098113
H	-2.1888830578	-2.5023471499	-1.9762403138	 0.098518
H	-0.0996306214	-3.2064399021	-0.7140185145	 0.116589
H	 0.1271546072	-2.8000980151	 0.9923151434	 0.112141
H	-1.0393125209	-4.036699412	 0.5194743188	 0.110763
H	-2.8662011761	-2.9675114634	 1.7420709574	 0.111079
H	-1.8626092806	-1.6244168035	 2.2962309437	 0.110911
H	-3.3721308586	-1.3091807249	 1.4334067157	 0.111965
56.5367	115.2965	150.7453	158.1571	177.925	211.0483	233.101	248.1654	269.5039	301.7991	336.2498	359.9266	388.2036	418.4394	449.7698	486.6305	528.0017	660.481	706.9922	837.4722	893.1527	913.6194	924.9178	935.9794	946.8868	964.3464	966.8088	1007.4308	1036.0076	1058.7179	1085.9815	1093.4022	1142.0787	1151.4719	1173.9002	1211.449	1240.2211	1310.0423	1336.4548	1349.6045	1394.9467	1397.9508	1409.907	1412.9693	1419.0683	1429.3833	1478.9835	1485.157	1487.5195	1488.5805	1491.8538	1496.6637	1500.6681	1506.4502	1510.6909	1513.3334	1521.277	3019.6441	3024.7318	3028.6297	3032.0664	3039.3395	3046.7378	3070.9809	3075.429	3089.617	3096.7739	3099.4438	3102.351	3105.6248	3109.8567	3116.4305	3123.9224	3133.491	3191.448
CC(C)C1(C)CC1(C)C	CC(C)[C@@]1(C)CC1(C)C	
InChI=1S/C9H18/c1-7(2)9(5)6-8(9,3)4/h7H,6H2,1-5H3	InChI=1S/C9H18/c1-7(2)9(5)6-8(9,3)4/h7H,6H2,1-5H3/t9-/m1/s1
