17
gdb 49596	2.82207	1.74934	1.38953	4.3901	71.18	-0.2297	-0.0181	0.2115	950.3543	0.137268	-417.954727	-417.947545	-417.946601	-417.986478	28.089	
O	-0.2349357848	 0.0225612437	 0.0888055553	-0.2396
C	-0.0635450167	 1.2097501008	 0.0302256022	 0.183602
C	 1.2798813378	 1.9179800008	 0.0200544142	-0.093114
C	 1.4233753931	 2.9164346434	 1.1802561737	-0.07131
N	 1.3898118019	 2.2778763766	 2.5091130819	-0.329296
C	 2.6920398757	 2.5829477324	 1.8770184281	-0.040982
C	 3.3275021952	 1.4204153624	 1.1501160358	-0.032128
C	 2.6126227317	 0.1195207454	 1.1589909972	-0.235684
N	 2.455631052	 1.0328048211	 0.0142882152	-0.105591
H	-0.924361816	 1.9161602042	-0.0344191021	 0.073211
H	 1.299567469	 2.5015982238	-0.9140542512	 0.105589
H	 1.0628320992	 3.9339102751	 1.0627929587	 0.09525
H	 1.1801425393	 2.9746961499	 3.2198464984	 0.237258
H	 3.3250888321	 3.347843999	 2.3126988813	 0.095
H	 4.3926341897	 1.4853247801	 0.9480090096	 0.090954
H	 3.1476651597	-0.7937110366	 0.9149897803	 0.113308
H	 1.7958119613	 0.0099828682	 1.8606802215	 0.153533
93.2175	154.8445	195.1309	305.5287	363.006	444.8596	535.446	658.9424	700.9572	709.5581	727.0303	808.155	838.7297	856.3666	876.5329	895.9148	934.0928	990.3128	1031.7867	1042.8135	1075.1908	1082.0004	1105.5666	1121.0898	1140.761	1165.0473	1170.3596	1234.6079	1272.7039	1287.7413	1327.5236	1351.9432	1382.28	1414.6239	1430.767	1500.9228	1842.1343	2854.0633	2987.9312	3126.5203	3149.7553	3153.0782	3179.0291	3234.3809	3500.4558
O=CC1C2NC2C2CN12	O=C[C@H]1[C@H]2N[C@H]2[C@H]2CN12	
InChI=1S/C6H8N2O/c9-2-4-6-5(7-6)3-1-8(3)4/h2-7H,1H2	InChI=1S/C6H8N2O/c9-2-4-6-5(7-6)3-1-8(3)4/h2-7H,1H2/t3-,4+,5+,6-,8?/m1/s1
