19
gdb 107637	2.49892	1.56624	1.16496	1.7917	70.32	-0.2318	0.0601	0.2918	1098.8842	0.158375	-460.125552	-460.116776	-460.115832	-460.158769	33.215	
C	-0.175974019	 1.3878943304	 0.4836375287	-0.261326
O	-0.0578472183	 0.0968133756	-0.1000650341	-0.293001
C	-1.258783139	-0.5869333121	-0.1891000424	 0.379089
C	-1.8378282175	-1.2816600349	 1.0421521621	-0.407175
C	-1.2918710319	-2.0750819233	-0.1285475308	 0.043692
O	-2.1909689103	-2.6004704398	-1.0701812761	-0.258346
C	-3.0174198011	-1.5326923007	-1.5269911975	-0.120126
C	-2.2558377901	-0.2054546664	-1.2758945396	 0.029018
O	-3.1132197498	 0.8894056303	-0.9995715125	-0.430831
H	 0.8275091351	 1.8184679555	 0.497849719	 0.126659
H	-0.8447570742	 2.0344420481	-0.0962351252	 0.132446
H	-0.554353597	 1.3252432129	 1.5141304349	 0.10486
H	-1.2146073497	-1.2594939302	 1.929403396	 0.126376
H	-2.9062168058	-1.2750423455	 1.2366101607	 0.109504
H	-0.4019931727	-2.6802164414	-0.0068144251	 0.118382
H	-3.2462213441	-1.7058703988	-2.5812990503	 0.120917
H	-3.9701095063	-1.5061040289	-0.9756239704	 0.091489
H	-1.6835601584	 0.0961423181	-2.1587802908	 0.108034
H	-3.5180317599	 0.733576471	-0.1385055166	 0.28034
104.1939	128.5668	182.6433	193.7321	232.4705	319.8024	328.7474	366.2516	403.0644	465.9054	518.4646	612.363	678.2802	710.4513	832.7527	883.6499	960.3512	984.0455	1002.006	1022.2526	1031.034	1036.2759	1057.2174	1089.0808	1105.6502	1163.5832	1186.8193	1213.3076	1220.4191	1237.6327	1274.505	1302.4237	1312.8976	1362.0659	1396.4211	1436.8438	1466.6259	1486.7954	1491.8648	1513.9476	1520.9566	2985.2026	2999.0153	3067.9672	3069.9985	3098.2504	3125.8563	3126.7323	3195.1203	3219.2293	3794.8288
COC12CC1OCC2O	CO[C@]12C[C@H]1OC[C@H]2O	
InChI=1S/C6H10O3/c1-8-6-2-5(6)9-3-4(6)7/h4-5,7H,2-3H2,1H3	InChI=1S/C6H10O3/c1-8-6-2-5(6)9-3-4(6)7/h4-5,7H,2-3H2,1H3/t4-,5-,6+/m1/s1
