25
gdb 58418	1.91432	1.30917	1.16903	1.3424	88.72	-0.2403	0.0699	0.3103	1313.7728	0.225742	-389.489381	-389.477953	-389.477009	-389.524981	42.79	
C	 0.0938097463	 1.4508167322	-0.2901962921	-0.413519
C	 0.0721708782	 0.005235344	 0.2353913125	-0.009694
C	 0.5553451937	-0.0561267391	 1.6927822109	-0.391706
C	-1.3192206057	-0.6045247935	 0.099495618	 0.395441
O	-2.2988058611	 0.0623579281	 0.8716533845	-0.478232
C	-1.8210922175	-1.2229855278	-1.191987739	-0.100388
C	-1.0108744447	-1.3276753012	-2.467511515	-0.416429
C	-1.55715017	-2.0905696873	 0.0365562122	-0.066233
C	-0.4619848202	-3.1345775337	 0.092357286	-0.418324
H	 1.1042492056	 1.8683546148	-0.2403737448	 0.113236
H	-0.2427414608	 1.5077126955	-1.3305715398	 0.113263
H	-0.5514794018	 2.0989381446	 0.3141159885	 0.109838
H	 0.7632029506	-0.5798898963	-0.3809933052	 0.067981
H	-0.1505934125	 0.4629464323	 2.3472965432	 0.12738
H	 0.6363034765	-1.0895091155	 2.042551342	 0.113933
H	 1.5374381948	 0.4159359794	 1.8001865431	 0.101253
H	-2.5028630758	 0.894528641	 0.4313049769	 0.278189
H	-2.8777344142	-1.0314127	-1.36537199	 0.080378
H	 0.0487704249	-1.520249288	-2.2831584173	 0.116966
H	-1.3834496186	-2.1446997562	-3.0959527878	 0.117004
H	-1.0779709725	-0.4062712515	-3.0570181392	 0.115171
H	-2.4617023555	-2.3846201396	 0.5621201692	 0.092108
H	 0.4593759113	-2.815280273	-0.4008763326	 0.114968
H	-0.2094701155	-3.3812736497	 1.1293047915	 0.121503
H	-0.7872255954	-4.0608562894	-0.3945985357	 0.115913
79.3062	130.0205	162.528	164.405	182.7364	212.1855	232.9309	250.5797	257.6866	278.5945	289.5694	358.4923	368.7719	458.2161	510.8353	525.1754	568.3809	683.7044	776.7121	832.7472	873.5022	924.3269	927.9378	964.3251	1011.0884	1014.2323	1041.052	1048.7579	1108.2677	1127.2777	1139.5178	1147.4392	1176.3874	1191.6408	1234.6719	1289.133	1313.4689	1336.2454	1362.5624	1368.822	1392.9085	1414.3288	1415.1768	1423.15	1459.9916	1485.0551	1488.1788	1493.7398	1497.1466	1500.1796	1505.8505	1512.0133	1518.4966	3027.3468	3028.4865	3033.265	3038.5164	3044.9803	3080.9918	3086.5183	3093.4732	3102.5422	3104.9141	3106.4671	3115.5581	3119.3215	3130.0325	3147.7267	3798.5713
CC(C)C1(O)C(C)C1C	CC(C)[C@@]1(O)[C@@H](C)[C@H]1C	
InChI=1S/C8H16O/c1-5(2)8(9)6(3)7(8)4/h5-7,9H,1-4H3	InChI=1S/C8H16O/c1-5(2)8(9)6(3)7(8)4/h5-7,9H,1-4H3/t6-,7+,8+
