19
gdb 40771	2.75852	1.32632	1.00345	2.398	75.74	-0.2414	0.0585	0.2998	1207.8076	0.160255	-419.121839	-419.113526	-419.112582	-419.155507	31.084	
C	 0.1767502899	 1.5484357705	 0.1574890827	-0.2396
N	 1.1582222855	 0.5253347297	-0.2420002484	-0.326726
C	-0.2294339585	 0.1249829477	 0.0654619871	-0.029415
C	-0.3706403226	-0.7320631006	 1.2905434258	 0.0856
O	-1.7447928277	-0.8691226272	 1.7275388112	-0.30428
C	-1.6790775679	-2.316353784	 1.7051406332	-0.131871
C	-0.2678549504	-2.2524519125	 1.1370016756	 0.26607
C	 0.4064418711	-3.0374605811	 0.0843382302	-0.303559
N	 0.8324525789	-3.1262191586	 1.4984583275	-0.360627
H	 0.3546888539	 1.9949253678	 1.1319779374	 0.12476
H	-0.1976818001	 2.2359159416	-0.5957212027	 0.117055
H	 1.2955365676	 0.5522474233	-1.2484544782	 0.2359
H	-0.8781723555	-0.1572252313	-0.761088466	 0.088444
H	 0.2707349694	-0.3328917529	 2.0906063951	 0.079189
H	-1.7446687664	-2.7515404888	 2.7099505138	 0.111207
H	-2.4555834436	-2.7515003354	 1.0648047727	 0.105663
H	-0.0588928002	-3.9380148818	-0.3082407275	 0.119906
H	 1.0421989622	-2.505514203	-0.6183908005	 0.122114
H	 1.6791447644	-2.579227703	 1.6415711611	 0.240171
61.925	79.3021	147.3639	223.2922	280.8831	319.2606	364.5944	430.1355	493.3854	595.3496	813.6633	845.2996	867.9717	882.1299	892.9794	926.4941	945.7383	953.5803	978.1668	1002.9705	1011.6536	1051.8438	1060.8528	1080.8416	1117.2617	1127.9701	1146.3099	1150.7517	1228.3903	1246.2838	1255.7859	1268.735	1284.9839	1291.0309	1325.9083	1332.056	1436.8347	1457.9273	1512.3129	1516.2463	1520.2511	2992.4312	3017.9377	3064.2846	3105.6956	3111.5215	3133.3216	3192.1958	3197.7806	3489.2955	3510.5472
C1NC1C1OCC11CN1	C1N[C@H]1[C@H]1OC[C@]21CN2	
InChI=1S/C6H10N2O/c1-4(7-1)5-6(2-8-6)3-9-5/h4-5,7-8H,1-3H2	InChI=1S/C6H10N2O/c1-4(7-1)5-6(2-8-6)3-9-5/h4-5,7-8H,1-3H2/t4-,5-,6+/m1/s1
