23
gdb 113226	3.07486	0.99894	0.94886	1.1339	86.23	-0.228	0.0865	0.3145	1402.1222	0.204171	-388.253314	-388.24334	-388.242395	-388.28809	37.567	
C	-0.1284820457	 1.1324316772	-0.336858536	-0.235626
O	 0.5837877	-0.0256160176	 0.0508526018	-0.233311
C	 0.9386420171	-0.8287070224	-1.0309951328	 0.094696
C	 1.3015937854	-2.2471222154	-0.7265657273	-0.383352
C	 0.030008363	-1.9500901282	-1.5078802516	 0.290286
C	-1.2829975156	-2.167384993	-0.7771559412	-0.459446
C	-0.0406989604	-2.2365152708	-2.9824348382	-0.048179
C	 1.1588525963	-2.5564107034	-3.8384524688	-0.285656
C	 0.1513718939	-3.6337931507	-3.525326159	-0.260808
H	 0.4638150842	 1.7587795658	-1.0214195262	 0.106224
H	-1.0783908414	 0.8838931116	-0.8306944222	 0.108787
H	-0.3363467045	 1.702571238	 0.5717522806	 0.125593
H	 1.5184251351	-0.3105748344	-1.797444294	 0.080397
H	 2.1639939545	-2.6815569936	-1.2199339266	 0.110725
H	 1.1699230361	-2.5635140311	 0.3027222381	 0.118903
H	-1.2233860732	-1.8099934665	 0.2534648103	 0.126751
H	-2.1017600839	-1.6322686372	-1.2730151442	 0.107354
H	-1.5483427186	-3.2302317962	-0.7619031973	 0.115241
H	-0.8120260648	-1.6543836009	-3.4840391339	 0.078442
H	 1.1825858958	-2.1489817882	-4.8433040059	 0.109353
H	 2.1370428944	-2.6270394598	-3.3751794585	 0.112322
H	 0.4492242372	-4.4026788288	-2.8200906528	 0.113046
H	-0.5031186348	-3.9819944643	-4.3166451341	 0.108257
73.6107	113.0546	117.8332	171.8025	216.0743	231.8895	250.2062	274.1048	351.7592	414.9442	448.8492	472.2153	571.38	679.7557	777.8096	808.666	829.3576	850.9934	901.9299	921.6607	939.9724	985.7185	1025.4839	1053.1768	1061.6074	1076.4471	1082.7771	1103.3295	1125.3058	1139.4529	1141.702	1183.4516	1186.482	1199.447	1218.5461	1248.62	1271.7604	1318.3882	1399.6664	1412.5648	1416.3862	1465.2516	1476.6023	1486.9882	1494.3925	1497.3156	1505.1488	1509.3131	1510.2857	2983.0167	3025.7321	3035.463	3081.0072	3081.8819	3113.9625	3116.7741	3122.264	3130.8541	3132.9649	3135.7469	3207.1405	3217.8192	3222.4007
COC1CC1(C)C1CC1	CO[C@H]1C[C@]1(C)C1CC1	
InChI=1S/C8H14O/c1-8(6-3-4-6)5-7(8)9-2/h6-7H,3-5H2,1-2H3	InChI=1S/C8H14O/c1-8(6-3-4-6)5-7(8)9-2/h6-7H,3-5H2,1-2H3/t7-,8+/m0/s1
