21
gdb 68900	2.60135	1.43641	1.10872	2.9613	82.49	-0.2369	-0.0141	0.2228	1175.3479	0.18148	-387.126606	-387.117649	-387.116705	-387.159744	35.054	
C	-0.088774603	 1.513660148	-0.0015010332	-0.482173
C	 0.0262502574	 0.0072119225	 0.0006712167	 0.303368
C	 1.3683918291	-0.653662855	-0.2335001527	-0.378077
C	 0.7028552504	-0.7918678521	 1.1196064094	 0.303369
C	 1.3277521628	-0.1592586559	 2.3410531735	-0.482173
C	-0.0710046069	-2.0851378	 1.3186316961	-0.382901
C	-1.0517035484	-2.1739948754	 0.144168467	 0.38086
O	-1.6335091756	-3.1653300306	-0.2119747106	-0.307082
C	-1.169719042	-0.7875438249	-0.4983689558	-0.382901
H	 0.8011030912	 1.9932336145	 0.4152979996	 0.117258
H	-0.2141667234	 1.8925025971	-1.0226157922	 0.121607
H	-0.9548752092	 1.8485754528	 0.5817977146	 0.11493
H	 1.4295538597	-1.5195393365	-0.8888434632	 0.111752
H	 2.2345235716	-0.001811203	-0.2917205869	 0.108946
H	 1.8226910127	 0.786697954	 2.1048412113	 0.117258
H	 0.5774702748	 0.0388287902	 3.1158913768	 0.114929
H	 2.0841411161	-0.8217065187	 2.7780415731	 0.121607
H	 0.5479043643	-2.9869633623	 1.3671974153	 0.126383
H	-0.6582964953	-2.0517555404	 2.2474964433	 0.123328
H	-2.11157353	-0.3354206719	-0.1558624934	 0.123328
H	-1.2386837966	-0.8769800425	-1.5873782887	 0.126383
83.6569	179.0968	198.5513	204.596	247.9766	289.4299	329.3984	405.496	437.1033	472.6719	495.2503	520.4585	579.7715	695.0329	698.6341	803.2036	824.5864	890.3623	929.6354	931.1953	961.7794	998.9311	1016.2447	1060.9847	1077.0914	1110.5428	1111.6437	1164.1325	1209.7294	1212.2605	1237.5802	1257.941	1291.9945	1351.2666	1389.458	1415.2733	1425.3287	1451.04	1456.7281	1484.456	1493.9752	1494.8968	1499.0254	1512.1962	1847.0735	3014.6695	3018.1357	3021.8877	3025.9715	3077.6341	3078.15	3078.9441	3079.9415	3102.1392	3108.3096	3111.9694	3194.8654
CC12CC1(C)CC(=O)C2	C[C@@]12C[C@]1(C)CC(=O)C2	
InChI=1S/C8H12O/c1-7-3-6(9)4-8(7,2)5-7/h3-5H2,1-2H3	InChI=1S/C8H12O/c1-7-3-6(9)4-8(7,2)5-7/h3-5H2,1-2H3/t7-,8+
