15
gdb 8052	3.54982	1.85159	1.53128	4.9379	65.92	-0.2821	0.026	0.3081	845.0877	0.119468	-362.627443	-362.620474	-362.619529	-362.65847	26.728	
O	-0.0888593343	 1.3331957738	 0.0377396449	-0.46182
C	 0.0435859733	-0.0342697977	 0.0191400434	 0.404232
C	 0.6268716175	-0.9540371403	-1.1027184205	-0.294841
C	 0.069569825	-1.9032388579	-0.0063963288	-0.050692
C	 0.7244529954	-0.979256356	 1.0605032233	-0.306333
C	-1.1974553167	-0.9800603821	 0.0370834895	-0.168754
C	-2.0499845956	-1.0084356697	 1.2142588851	 0.267023
N	-2.7392759418	-1.0392427125	 2.1421497572	-0.335811
H	 0.7817587415	 1.7307687129	 0.147789923	 0.291947
H	 0.1104112865	-0.9472058492	-2.06552966	 0.104412
H	 1.7127001741	-0.9459124337	-1.2206189614	 0.099353
H	 0.0579095527	-2.9891198546	-0.0177574275	 0.104048
H	 1.8170215532	-0.971833907	 1.0786250977	 0.097144
H	 0.2987384272	-0.9991098873	 2.0650130959	 0.132337
H	-1.8028794381	-0.9691696388	-0.8725929116	 0.117755
135.6511	171.5491	193.2324	347.2666	362.3811	461.0777	510.1579	538.1063	615.3994	662.9008	764.7122	817.8632	882.3001	922.5514	950.1097	959.7268	1015.7249	1040.4566	1065.6647	1092.6728	1115.9109	1129.3304	1143.8308	1206.8372	1213.8518	1222.5178	1296.1251	1351.1576	1389.1797	1497.7976	1542.6314	2353.5382	3061.1264	3068.0667	3086.8577	3131.5665	3140.4301	3166.4775	3813.6738
OC12CC(C1)C2C#N	O[C@@]12C[C@@H](C1)[C@H]2C#N	
InChI=1S/C6H7NO/c7-3-5-4-1-6(5,8)2-4/h4-5,8H,1-2H2	InChI=1S/C6H7NO/c7-3-5-4-1-6(5,8)2-4/h4-5,8H,1-2H2/t4-,5-,6-/m1/s1
