19
gdb 39482	2.60031	1.79075	1.19503	2.7874	77.24	-0.2162	0.0103	0.2265	1049.3068	0.161695	-419.173585	-419.165987	-419.165042	-419.205334	30.408	
C	-0.0097462101	 1.6562833501	 0.0465472461	-0.338083
C	 1.1427142408	 0.7638570665	-0.3618714427	-0.000921
N	 2.2920150547	 0.7211228108	 0.502879667	-0.292956
C	 3.1861214996	-0.4145117897	 0.2895037942	-0.155734
C	 2.7655675687	-1.622969339	 1.1288193923	-0.060712
O	 1.4000788751	-1.9523003236	 0.8589361683	-0.224803
C	 0.4822103085	-1.3789537233	 1.6971282272	 0.111069
N	-0.3205595015	-0.4580254867	 1.392118768	-0.226958
C	-0.1710643114	 0.1625946571	 0.1008843294	 0.051727
H	 0.0937568497	 2.1507036489	 1.0066841002	 0.123663
H	-0.531574933	 2.2262818411	-0.713999568	 0.108234
H	 1.3417510173	 0.6794091364	-1.4350462275	 0.067781
H	 2.8033773331	 1.5920760395	 0.4339001486	 0.22456
H	 3.2246567545	-0.7181233252	-0.7705688417	 0.093894
H	 4.2034778883	-0.1311697515	 0.584102589	 0.096591
H	 3.366326087	-2.5006418095	 0.8683138606	 0.107653
H	 2.8961753242	-1.4086093194	 2.1974913804	 0.103316
H	 0.4495055231	-1.8239475293	 2.6951517045	 0.109657
H	-0.7829694486	-0.2968179232	-0.6706763059	 0.102022
134.911	201.3073	217.2464	277.2589	331.8646	339.8895	440.6656	500.3568	522.9198	596.0936	702.8446	755.7606	794.9535	808.162	840.0423	873.9535	926.0442	967.8821	1008.4004	1029.9121	1037.9637	1075.7556	1086.1421	1120.6229	1130.3619	1144.9168	1152.1991	1183.7191	1243.2311	1293.48	1307.2521	1358.0632	1376.0568	1393.2493	1415.3244	1418.7498	1465.4366	1475.2697	1490.8415	1493.8116	1737.3913	2958.7776	3018.8462	3035.8938	3060.8402	3083.9393	3101.4368	3133.0842	3142.9652	3225.2181	3544.5673
C1C2NCCOC=NC12	C1[C@H]2NCCOC=N[C@@H]12	
InChI=1S/C6H10N2O/c1-2-9-4-8-6-3-5(6)7-1/h4-7H,1-3H2/b8-4-	InChI=1S/C6H10N2O/c1-2-9-4-8-6-3-5(6)7-1/h4-7H,1-3H2/b8-4-/t5-,6+/m1/s1
