14
gdb 132865	3.04703	1.40375	0.96668	2.4054	69.77	-0.2242	-0.0643	0.1598	1111.4516	0.100888	-478.03562	-478.028021	-478.027077	-478.06788	28.404	
C	-0.031610338	 1.490480374	-0.0181101683	-0.459675
C	-0.0036071454	-0.0044911156	-0.0358144674	 0.20278
N	-0.0246523015	-0.6536278471	-1.1659238403	-0.328354
C	 0.0013597269	-2.0008885371	-1.15781084	 0.280616
F	-0.0226865102	-2.5914853833	-2.3500018193	-0.073178
C	 0.0489980442	-2.7433495949	-0.02611837	-0.149757
N	 0.0712812873	-2.0649240638	 1.164710098	-0.33519
C	 0.048346669	-0.679009661	 1.2795858478	 0.38082
O	 0.069366581	-0.1151197297	 2.3612339826	-0.383294
H	 0.851894737	 1.8800471004	 0.4994626341	 0.150578
H	-0.0707945629	 1.8784216772	-1.0358718209	 0.138768
H	-0.8951097535	 1.8466905209	 0.5542889659	 0.150614
H	 0.0701976937	-3.823820642	-0.0059660428	 0.152337
H	 0.1067616826	-2.5710104479	 2.0390263005	 0.272936
113.5133	128.8089	219.924	277.8675	355.9938	369.0958	439.2448	486.6455	518.8609	591.7714	598.2989	692.3395	703.66	791.7601	806.9749	833.8997	973.324	1022.4413	1046.2326	1117.2515	1207.084	1286.1724	1334.9641	1386.4537	1403.4445	1456.8767	1464.2444	1477.0009	1593.7861	1680.0704	1773.4993	3041.6189	3092.4554	3158.4552	3233.1227	3607.4726
CC1=NC(F)=CNC1=O	Cc1nc(F)c[nH]c1=O	
InChI=1S/C5H5FN2O/c1-3-5(9)7-2-4(6)8-3/h2H,1H3,(H,7,9)	InChI=1S/C5H5FN2O/c1-3-5(9)7-2-4(6)8-3/h2H,1H3,(H,7,9)
