16
gdb 10124	2.64806	1.31135	0.93688	3.2722	63.59	-0.2481	-0.0453	0.2027	1196.5758	0.125886	-420.875891	-420.866435	-420.865491	-420.911729	30.868	
C	-0.2514409716	 1.4829041672	 0.1874321787	-0.247728
O	 0.0064720628	 0.0920840717	 0.264815195	-0.243163
C	 0.5183764032	-0.4563336593	-0.9308236624	 0.016348
C	 1.0937934674	-1.8423700361	-0.5945183155	-0.303142
C	 2.2752343397	-1.758742235	 0.3556445634	 0.152785
O	 3.2886600635	-2.3933504693	 0.2208178806	-0.23339
C	-0.5918195024	-0.6232879446	-1.9706348027	 0.136811
O	-0.4150694567	-0.6420509643	-3.1586277557	-0.233515
H	 0.6673232401	 2.0493100231	-0.0225620807	 0.120932
H	-0.9914696068	 1.7235772438	-0.5896228047	 0.119743
H	-0.6474443303	 1.7887736521	 1.157695577	 0.1405
H	 1.3033351881	 0.1824316389	-1.3650286103	 0.101248
H	 0.3044208793	-2.4255681043	-0.0996651901	 0.13791
H	 1.4002632967	-2.3684265824	-1.5014597454	 0.144977
H	 2.1335569457	-1.0604941965	 1.2067837974	 0.098153
H	-1.5981319087	-0.7623589249	-1.5103773447	 0.091532
50.6675	56.5459	80.8979	109.0127	175.1439	213.9171	250.7662	290.1551	398.935	430.9609	526.487	551.5818	788.3974	888.5434	952.2627	990.9281	1064.8533	1097.4696	1112.708	1148.9639	1182.3441	1205.0788	1251.6591	1268.3085	1330.2683	1347.054	1394.8761	1417.3158	1444.9299	1482.021	1489.3766	1506.7022	1832.8727	1841.0261	2865.9781	2920.4087	2986.126	2994.2357	3026.0526	3040.6242	3121.0782	3129.8975
COC(CC=O)C=O	CO[C@@H](CC=O)C=O	
InChI=1S/C5H8O3/c1-8-5(4-7)2-3-6/h3-5H,2H2,1H3	InChI=1S/C5H8O3/c1-8-5(4-7)2-3-6/h3-5H,2H2,1H3/t5-/m0/s1
