18
gdb 60951	2.57347	1.25337	1.02898	3.8287	73.48	-0.2581	-0.0381	0.22	1215.5151	0.145653	-439.096303	-439.087122	-439.086178	-439.131119	32.807	
C	 0.039446506	 1.6573414381	-0.113891343	-0.421704
C	 0.0478307466	 0.1381381248	 0.0962167497	-0.085468
C	-1.3266726496	-0.3618072761	 0.5314254313	 0.157036
O	-1.5047137488	-1.3641080865	 1.1750013994	-0.248219
C	 0.5085424988	-0.5913971183	-1.1681971396	 0.122531
C	 0.4445407826	-2.1319362061	-1.2434702208	-0.394727
C	-0.5175215178	-1.8819988298	-2.3845029571	 0.446323
N	-1.1429647775	-2.6016219115	-3.195167163	-0.537016
O	-0.4795256075	-0.500677058	-2.254263683	-0.275533
H	 1.0406511724	 2.0212609608	-0.3618428847	 0.127431
H	-0.6309283137	 1.928307568	-0.9355308243	 0.144957
H	-0.2946823996	 2.1810857467	 0.7868030373	 0.127713
H	 0.7503429493	-0.1411571596	 0.8913854706	 0.1121
H	-2.1825099305	 0.269600474	 0.2052926042	 0.092399
H	 1.4581072925	-0.166138734	-1.5097068186	 0.098276
H	 1.3698887169	-2.6392410605	-1.5185765214	 0.13712
H	-0.0056858465	-2.6172556812	-0.3764852059	 0.16731
H	-1.7015465535	-2.0406192507	-3.8404511411	 0.22947
55.9057	80.9246	89.2385	190.3708	211.6531	232.5142	304.3068	364.5037	462.1813	497.0716	521.4759	569.0408	710.2323	792.5339	866.7102	886.4985	916.2822	950.492	961.0736	1004.6638	1010.7262	1041.4166	1084.0328	1101.2734	1148.048	1169.7795	1219.4999	1243.6192	1284.8634	1297.5075	1345.2209	1375.7807	1407.2786	1431.6579	1467.4988	1496.7881	1500.5942	1825.6725	1832.0389	2889.922	3040.727	3041.734	3054.2437	3094.8137	3113.2476	3116.7346	3153.1209	3478.8822
CC(C=O)C1CC(=N)O1	C[C@@H](C=O)[C@H]1C[C]([NH])O1	
InChI=1S/C6H9NO2/c1-4(3-8)5-2-6(7)9-5/h3-5,7H,2H2,1H3	InChI=1S/C6H9NO2/c1-4(3-8)5-2-6(7)9-5/h3-5,7H,2H2,1H3/t4-,5+/m0/s1
