17
gdb 69158	2.13078	1.75672	1.42877	1.6209	69.84	-0.2421	-0.0122	0.2298	996.723	0.133577	-458.950957	-458.942195	-458.941251	-458.983876	33.563	
C	-0.0202309394	 1.6977485756	 0.0634901285	-0.458209
C	 0.0421123932	 0.181742971	 0.0820518737	 0.209192
O	-1.2613973889	-0.3748861986	-0.0779527633	-0.494008
C	 1.0149774319	-0.6072991801	-0.8477981705	 0.362017
O	 0.8544800998	-0.8711684991	-2.0165349509	-0.358169
C	 1.8002699146	-1.2246065569	 0.2265596055	-0.273767
C	 2.1432320713	-0.2574983496	 1.3648728192	-0.345438
C	 0.7171399941	-0.5548116352	 1.2506520639	 0.416634
O	-0.008995887	-1.1482390605	 2.2286786327	-0.439563
H	 0.9541728486	 2.1510909671	 0.2660053988	 0.119822
H	-0.3539048655	 2.0381709025	-0.9216038757	 0.13447
H	-0.7351669069	 2.0559755533	 0.8103498546	 0.132856
H	-1.3321943141	-0.6694176498	-0.9957057929	 0.302609
H	 2.2515528031	-2.2086267489	 0.187087895	 0.118672
H	 2.6375897957	-0.763006156	 2.1898314461	 0.141218
H	 2.5462675107	 0.7296703044	 1.153722174	 0.1261
H	-0.8671722112	-1.3510702293	 1.8233082114	 0.305562
86.1407	185.0658	193.6751	230.6333	262.7108	295.0543	327.1508	372.3129	420.3455	511.9505	517.6859	578.0765	596.2248	639.4875	697.1424	757.8167	784.2718	896.7901	919.7985	957.9555	977.3498	1045.0483	1090.6812	1118.9909	1147.9739	1160.8917	1171.8425	1260.6669	1267.1317	1329.7159	1392.6139	1406.2518	1458.017	1484.3413	1489.258	1522.1454	1830.8921	3040.7085	3109.5065	3113.738	3118.2758	3191.9208	3199.6955	3711.1289	3764.5472
CC1(O)C(=O)C2CC12O	C[C@@]1(O)C(=O)[C@H]2C[C@@]12O	
InChI=1S/C6H8O3/c1-5(8)4(7)3-2-6(3,5)9/h3,8-9H,2H2,1H3	InChI=1S/C6H8O3/c1-5(8)4(7)3-2-6(3,5)9/h3,8-9H,2H2,1H3/t3-,5-,6+/m1/s1
