18
gdb 51603	2.75642	0.94621	0.8008	3.524	73.75	-0.2463	-0.0204	0.2259	1429.7581	0.145921	-439.101126	-439.091622	-439.090678	-439.137288	33.006	
O	-0.1297490998	 0.7843915863	 0.8563177107	-0.238898
C	 0.2682176079	 1.1090639146	-0.2323219509	 0.162959
C	 1.59393064	 1.7874221102	-0.5031707278	-0.297642
C	 1.4072792091	 3.0706331235	-1.2902300603	 0.000979
C	 1.1228807646	 4.3740934967	-0.5812894155	-0.331185
C	 2.4481935816	 4.1641397667	-1.266805439	 0.024394
N	 3.6227184573	 4.0254541011	-0.4566472194	-0.280831
C	 4.6713882374	 3.2336837561	-0.8230568391	 0.152002
O	 4.6740882016	 2.4839613457	-1.7743549183	-0.31873
H	-0.3463919972	 0.9208880729	-1.1445333989	 0.070994
H	 2.0923840878	 1.9686752361	 0.4516732627	 0.116996
H	 2.2211681011	 1.1011654882	-1.0885158606	 0.145615
H	 0.9268655762	 2.9367937478	-2.2556580991	 0.100048
H	 0.4255239053	 5.0798586712	-1.017440736	 0.124924
H	 1.1193341598	 4.3510249182	 0.5041396671	 0.125499
H	 2.6118657801	 4.6815416808	-2.2090501775	 0.112163
H	 3.7711686182	 4.6868768157	 0.29015526	 0.251763
H	 5.5308597491	 3.3441362782	-0.1314981481	 0.07895
37.6019	60.2525	69.0077	134.9662	176.4301	249.2911	286.2738	339.3874	422.2685	491.933	511.7483	585.0624	752.2054	771.964	837.6722	857.2271	877.1959	937.6925	1028.3351	1037.2322	1043.88	1075.8667	1082.1876	1134.2909	1140.4918	1166.7452	1203.6448	1229.2049	1274.3704	1285.7394	1390.802	1421.0382	1430.0894	1431.8993	1466.1946	1487.7496	1503.1491	1809.0902	1836.5968	2851.724	2933.4123	3028.5971	3113.2929	3128.0931	3133.4539	3148.8498	3221.5899	3616.2538
O=CCC1CC1NC=O	O=CC[C@H]1C[C@H]1NC=O	
InChI=1S/C6H9NO2/c8-2-1-5-3-6(5)7-4-9/h2,4-6H,1,3H2,(H,7,9)	InChI=1S/C6H9NO2/c8-2-1-5-3-6(5)7-4-9/h2,4-6H,1,3H2,(H,7,9)/t5-,6+/m0/s1
