19
gdb 74643	2.96139	1.78297	1.29541	1.3313	80.49	-0.2129	0.0127	0.2257	1011.7851	0.159212	-385.840374	-385.832567	-385.831622	-385.87212	31.585	
C	-0.051275625	 1.507158181	 0.0260197091	-0.510478
C	-0.0199058114	 0.0202657244	-0.0457195627	 0.23571
C	-0.037302533	-0.8365414306	-1.0693585706	-0.22455
C	 0.0383703637	-2.2046915422	-0.4095053323	-0.059178
C	-0.8571521461	-2.1603243298	 0.8802194145	-0.106575
C	 0.1539680681	-3.0654514046	 1.6229353033	-0.263352
C	 1.0301061847	-2.0843095158	 0.8069388594	-0.065893
C	 0.0650592105	-0.9077002552	 1.1742578159	 0.340178
O	 0.178890988	-0.3565919208	 2.4501638008	-0.488564
H	 0.8167808357	 1.8946420772	 0.5730196893	 0.136922
H	-0.0603172792	 1.955482471	-0.9710496437	 0.126839
H	-0.9390345672	 1.8704851316	 0.5620335111	 0.11464
H	-0.0856154037	-0.6352745447	-2.130798784	 0.098318
H	 0.0511091701	-3.1118242398	-1.0122459876	 0.065745
H	-1.9506279207	-2.1877885338	 0.9105583363	 0.060897
H	 0.1949434219	-2.9603024832	 2.7083098749	 0.103198
H	 0.1838843867	-4.115496126	 1.3196357975	 0.085338
H	 2.1202421438	-2.025288168	 0.7525463255	 0.06848
H	-0.6357008969	 0.1145334594	 2.6541954832	 0.282323
142.2338	163.0556	232.5974	248.182	333.5138	359.8278	423.7905	494.1285	533.1799	561.9717	665.9391	724.591	755.1292	816.5752	834.9684	887.1217	897.7689	906.7576	942.6029	960.4967	1014.2532	1032.9366	1057.4996	1062.6599	1085.6947	1099.637	1130.1757	1159.2491	1185.0774	1216.6803	1225.434	1241.8346	1268.2632	1288.384	1318.3296	1349.9106	1411.7766	1475.9818	1485.0239	1509.1139	1703.7349	3009.861	3056.4549	3058.3561	3069.2464	3084.9866	3111.4851	3127.3034	3128.4702	3223.2415	3810.4229
CC1=CC2C3CC2C13O	CC1=C[C@@H]2[C@H]3C[C@@H]2[C@@]13O	
InChI=1S/C8H10O/c1-4-2-5-6-3-7(5)8(4,6)9/h2,5-7,9H,3H2,1H3	InChI=1S/C8H10O/c1-4-2-5-6-3-7(5)8(4,6)9/h2,5-7,9H,3H2,1H3/t5-,6-,7+,8-
