13
gdb 21576	4.09468	1.87515	1.28707	4.3668	64.4	-0.2286	-0.0285	0.2001	869.8039	0.09775	-394.813393	-394.806869	-394.805925	-394.843748	25.544	
N	 0.0200789937	 1.4000360425	 0.2039031802	-0.593157
C	-0.0319426323	 0.0338654322	 0.0658839963	 0.356402
C	-1.2217979453	-0.6768926915	 0.0156158742	-0.301365
C	-1.1135059619	-2.0639742025	-0.0717076961	 0.476597
O	-2.2373349751	-2.803165849	-0.1225833803	-0.414719
N	 0.0352403796	-2.7357089095	-0.1138892393	-0.318101
N	 1.1771133787	-2.0510192356	-0.0691798128	-0.19988
C	 1.1568089855	-0.7348720092	 0.0174947389	-0.036761
H	 0.8821358449	 1.8550000953	-0.0511256723	 0.26129
H	-0.8069015537	 1.9227158008	-0.0378597203	 0.259654
H	-2.194452602	-0.1997384888	 0.0436709931	 0.106668
H	-1.9390011545	-3.7234801467	-0.1813410217	 0.301259
H	 2.1279648422	-0.247421858	 0.05238353	 0.102113
204.1442	230.8006	320.2466	387.4885	442.6535	456.7543	478.46	541.4678	560.906	580.6451	680.2911	771.4979	782.0473	878.2584	893.8144	1003.9249	1026.0293	1084.5657	1166.6986	1207.6567	1239.5464	1321.0318	1392.3582	1453.291	1518.1352	1602.0057	1642.7632	1663.4928	3157.5737	3196.2105	3588.4934	3695.9079	3738.308
NC1=CC(O)=NN=C1	Nc1cc(O)nnc1	
InChI=1S/C4H5N3O/c5-3-1-4(8)7-6-2-3/h1-2H,(H3,5,7,8)	InChI=1S/C4H5N3O/c5-3-1-4(8)7-6-2-3/h1-2H,(H3,5,7,8)
