19
gdb 128811	4.6967	0.81751	0.71792	1.8971	80.47	-0.2304	0.0262	0.2566	1606.3465	0.159286	-419.224313	-419.214734	-419.21379	-419.260132	33.358	
C	-0.156305948	 1.4612501699	-0.1852622339	-0.218369
O	-0.0796522455	 0.0673574893	-0.3547172612	-0.233516
C	-1.1939359796	-0.6075821069	 0.1986542927	-0.170789
C	-0.9990914305	-2.0807097856	 0.0374356789	 0.339689
N	-2.0026340038	-2.8535458598	-0.3674768653	-0.296915
N	-1.4828332413	-4.099110812	-0.3651557243	-0.252708
C	-0.1778371454	-4.1445479931	 0.0155477938	 0.387962
C	 0.6018288812	-5.4173843452	 0.0737239375	-0.504456
C	 0.1689286244	-2.8376942048	 0.2902635478	-0.362469
H	 0.7424681706	 1.8951606436	-0.6304682438	 0.124725
H	-1.0411183849	 1.8877876653	-0.6845080713	 0.10366
H	-0.198220113	 1.7437475512	 0.8795361408	 0.100272
H	-1.291344494	-0.3437863961	 1.2672851674	 0.091329
H	-2.131303132	-0.3094290649	-0.2954791157	 0.105139
H	-2.065752508	-4.8681229065	-0.6495051338	 0.266859
H	 0.6639605529	-5.9033155139	-0.9069646939	 0.136111
H	 1.6208793027	-5.2153398901	 0.4093059711	 0.144488
H	 0.1572757656	-6.1372180303	 0.7707888843	 0.134761
H	 1.1309692987	-2.4747567301	 0.6126746489	 0.104228
42.1922	66.7705	86.1082	109.3465	210.747	235.5377	288.7832	345.0597	369.1435	429.2604	496.7576	636.142	670.3755	704.4076	794.5794	817.9231	986.4535	988.9601	1008.7151	1028.4926	1045.7699	1063.1542	1150.8071	1163.7603	1182.3503	1187.4909	1226.1746	1248.4184	1306.2341	1398.0771	1413.5221	1438.4245	1465.1816	1477.4791	1483.6604	1485.2199	1500.1151	1509.9542	1512.1867	1523.2229	1617.2338	2938.0668	2965.17	3002.9979	3007.4355	3028.9729	3078.2016	3111.9721	3130.6122	3271.4913	3669.3572
COCC1=NNC(C)=C1	COCc1n[nH]c(C)c1	
InChI=1S/C6H10N2O/c1-5-3-6(4-9-2)8-7-5/h3H,4H2,1-2H3,(H,7,8)	InChI=1S/C6H10N2O/c1-5-3-6(4-9-2)8-7-5/h3H,4H2,1-2H3,(H,7,8)
