20
gdb 40574	4.07871	1.19681	1.12336	1.6071	82.25	-0.2318	0.0875	0.3193	1163.32	0.172895	-365.927005	-365.919682	-365.918737	-365.959146	29.604	
C	-0.1221071757	 1.4814290768	-0.1135786274	-0.271995
C	 1.2696953037	 0.9487679404	 0.0988820031	-0.264502
C	 0.1111784193	-0.0104092076	-0.0301474733	 0.004502
C	-0.360419243	-0.7586892586	 1.1819822076	 0.071182
C	-1.7341897458	-1.4657401127	 1.2437489069	-0.106876
C	-1.6877118057	-2.4640418934	 0.0560857516	-0.249375
C	-0.528921924	-3.1211516455	 0.8042422416	-0.036317
C	-0.9718905695	-2.5525770333	 2.0974913369	-0.05304
N	 0.3061691852	-2.0745891034	 1.5033254649	-0.159813
H	-0.6152042887	 1.9634951359	 0.7246482448	 0.110021
H	-0.374238257	 1.9072067803	-1.0782744032	 0.111449
H	 1.9768195079	 1.0083790551	-0.7207032519	 0.112184
H	 1.7168292667	 1.0662939973	 1.0802839023	 0.117416
H	 0.0565095378	-0.5541643859	-0.9674311097	 0.084171
H	-0.2247489308	-0.1302125681	 2.0703815911	 0.070315
H	-2.6514187014	-0.9349022139	 1.4928488904	 0.069322
H	-2.5607290992	-3.1220480186	 0.0620682377	 0.104838
H	-1.5346446374	-2.0707767167	-0.9536750754	 0.09586
H	-0.0300681994	-4.0593009071	 0.6005319274	 0.095535
H	-1.0719513129	-2.9505614509	 3.0984001146	 0.095122
63.4472	156.7355	176.2028	301.8504	386.8684	502.5513	514.1971	712.5586	741.3051	780.7898	791.9936	817.2506	835.6309	852.8394	893.7571	913.9018	924.6577	935.1182	964.7611	987.8589	1006.0353	1019.1123	1044.96	1060.6688	1060.7606	1079.7889	1118.2131	1131.9624	1135.7621	1168.5483	1196.0597	1197.5228	1217.5836	1229.068	1235.3187	1261.0431	1287.6392	1335.3233	1338.9905	1447.2893	1471.1365	1502.8101	1505.7939	3034.1327	3049.7724	3103.0108	3129.0021	3130.2198	3135.5273	3161.3597	3198.4119	3208.2313	3212.6416	3224.1849
C1CC1C1C2CC3C2N13	C1CC1[C@H]1[C@H]2C[C@@H]3[C@H]2N13	
InChI=1S/C8H11N/c1-2-4(1)7-5-3-6-8(5)9(6)7/h4-8H,1-3H2	InChI=1S/C8H11N/c1-2-4(1)7-5-3-6-8(5)9(6)7/h4-8H,1-3H2/t5-,6-,7+,8+,9?/m1/s1
