16
gdb 67305	3.21797	1.59715	1.32376	1.6456	68.56	-0.2327	0.0714	0.3041	965.7017	0.123653	-437.746478	-437.739343	-437.738399	-437.777733	28.747	
O	-0.1154288499	 1.3460164519	-0.0211297517	-0.46173
C	-0.0564646123	-0.0161381678	-0.0229963641	 0.287855
C	 0.8990329795	-0.990589707	-0.8229146501	 0.016106
O	 1.9337152941	-0.9987768519	 0.2057905292	-0.340656
C	 0.6860985086	-1.0116400231	 0.9596931782	 0.010744
C	-0.0618776604	-1.9448691862	-0.0487602651	-0.229989
C	-1.2286643551	-0.9666832232	-0.1796339525	 0.354564
N	-2.5029727273	-0.911036392	 0.5086147708	-0.382338
C	-2.4590831228	-0.9594485567	-0.9821790148	-0.33056
H	 0.7794795678	 1.6854885658	 0.1059287142	 0.298079
H	 1.1922677968	-1.0011382582	-1.8718082684	 0.101931
H	 0.7234591554	-1.0461091517	 2.0475862594	 0.10563
H	-0.0434006453	-3.0314690688	-0.0623361352	 0.094939
H	-2.7521904093	-1.8266741637	 0.8764928136	 0.230804
H	-2.7930594071	-0.0478180825	-1.4696064318	 0.130993
H	-2.7589330326	-1.8784588448	-1.4800568915	 0.113628
156.4413	195.9222	249.2198	303.9991	335.1246	401.2556	505.3577	589.0331	605.0378	696.378	747.1951	809.5105	842.1636	866.9132	880.5551	901.4508	914.1113	937.3191	962.2387	972.8298	1013.3836	1040.6329	1073.4894	1117.5375	1121.8477	1155.5216	1163.7504	1186.1165	1245.2469	1258.4253	1280.3715	1342.5869	1379.2989	1483.7773	1549.544	3105.7915	3128.9845	3133.3974	3162.9191	3191.7519	3488.6348	3782.213
OC12C3OC1C3C21NC1	O[C@@]12[C@H]3O[C@@H]1[C@H]3[C@]12NC1	
InChI=1S/C6H7NO2/c8-6-3-2(4(6)9-3)5(6)1-7-5/h2-4,7-8H,1H2	InChI=1S/C6H7NO2/c8-6-3-2(4(6)9-3)5(6)1-7-5/h2-4,7-8H,1H2/t2-,3-,4+,5-,6-/m1/s1
