17
gdb 96931	2.52955	1.37699	1.12069	1.1394	72.12	-0.2417	0.0152	0.2569	1149.2933	0.134756	-455.093613	-455.084574	-455.08363	-455.127327	33.311	
C	-0.1447039506	 1.4028743072	-0.0387823379	-0.342288
N	-0.0824810052	-0.0417467365	 0.1301002498	-0.344794
C	-1.1085688502	-0.7313375636	-0.0327024013	 0.418917
O	-2.4343922375	-0.3368451413	-0.3382256854	-0.311388
C	-2.9090882984	-1.6804905756	-0.0577351993	-0.021425
C	-2.3357621387	-2.5819561359	-1.0818786828	 0.095839
O	-2.1202989684	-2.1997827205	-2.39485045	-0.42544
C	-1.4566491209	-2.1778075569	 0.1199194631	 0.090815
N	-0.8936513643	-3.1504169036	 0.9755593867	-0.59918
H	 0.4819851939	 1.6911030092	-0.8900792889	 0.132525
H	-1.1574693473	 1.7897669684	-0.1998955688	 0.128733
H	 0.2817282499	 1.8834082917	 0.847898651	 0.129823
H	-3.8004503227	-1.7762259665	 0.5479373785	 0.125906
H	-2.6349138138	-3.6236728553	-1.0068109374	 0.130347
H	-2.2168263193	-1.2389814568	-2.4280884379	 0.300043
H	-0.097036228	-3.602807848	 0.5385510016	 0.247924
H	-0.5707355084	-2.7327448959	 1.842683459	 0.243644
92.1691	101.1059	182.7613	208.7147	229.3338	244.6615	296.8464	324.4758	396.1318	478.3124	520.3344	639.9387	656.0859	735.2553	747.7934	788.1659	847.2175	907.6599	918.6746	962.095	1013.3829	1037.8002	1067.3503	1120.0321	1132.7876	1170.9816	1226.2125	1252.9843	1291.3531	1309.5543	1402.3173	1438.717	1481.1743	1492.163	1499.1589	1664.7743	1854.0415	3019.506	3085.8392	3091.8115	3167.7008	3209.0542	3500.4065	3574.87	3769.5289
CN=C1OC2C(O)C12N	CN=C1O[C@H]2[C@@H](O)[C@@]12N	
InChI=1S/C5H8N2O2/c1-7-4-5(6)2(8)3(5)9-4/h2-3,8H,6H2,1H3	InChI=1S/C5H8N2O2/c1-7-4-5(6)2(8)3(5)9-4/h2-3,8H,6H2,1H3/t2-,3+,5+/m1/s1
