19
gdb 108182	3.22339	1.53731	1.37015	1.3851	74.59	-0.2426	0.003	0.2455	1022.3608	0.159889	-423.025824	-423.018105	-423.017161	-423.057867	30.767	
C	-0.0757797244	 1.5715016571	-0.0147586497	-0.383351
C	-0.0469543144	 0.0410826002	 0.0033172379	-0.292157
C	-1.4189548054	-0.584164553	-0.0253083906	 0.475466
O	-2.2004089728	-0.1721091777	 1.1399701279	-0.313511
C	-3.5580522544	-0.3188473186	 0.7256599955	-0.0865
C	-3.3883845938	-0.9039066872	-0.7151159108	-0.036856
O	-2.2270502678	-0.1548390266	-1.1060963603	-0.269512
C	-2.8206131787	-2.3037705743	-0.5275953394	-0.102508
C	-1.5763308622	-2.1060165014	-0.0916217928	-0.109947
H	 0.9396423635	 1.9755994505	 0.025954423	 0.106497
H	-0.5563859284	 1.9389029656	-0.9249974261	 0.131813
H	-0.6364180978	 1.9535249461	 0.8414317138	 0.133414
H	 0.5129343083	-0.3477103139	-0.8545697819	 0.112733
H	 0.4592687125	-0.3231181298	 0.9044938827	 0.112741
H	-4.102638573	-0.9855113108	 1.4023670248	 0.101909
H	-4.046049648	 0.6613459568	 0.6946159942	 0.108375
H	-4.216087561	-0.7542084779	-1.4050896877	 0.090489
H	-3.3816067743	-3.225158275	-0.6005636071	 0.109815
H	-0.8546936078	-2.8228946202	 0.2748956367	 0.111091
89.2839	168.7246	195.7424	300.6668	311.9817	369.5066	442.959	513.2495	620.4651	655.1005	719.7275	728.2933	756.0485	818.4724	852.7945	859.3617	887.7502	909.8083	931.384	969.5274	996.4507	1009.3098	1025.3694	1052.6345	1097.0863	1133.6915	1150.3134	1191.5472	1247.3408	1280.9758	1295.9627	1307.8139	1337.1267	1349.773	1406.6856	1411.9555	1473.1322	1492.83	1510.2972	1512.8079	1638.4454	3033.9876	3043.2948	3051.379	3080.4317	3083.3724	3121.2445	3134.4428	3148.9256	3219.0202	3244.5099
CCC12OCC(O1)C=C2	CC[C@@]12OC[C@@H](O1)C=C2	
InChI=1S/C7H10O2/c1-2-7-4-3-6(9-7)5-8-7/h3-4,6H,2,5H2,1H3	InChI=1S/C7H10O2/c1-2-7-4-3-6(9-7)5-8-7/h3-4,6H,2,5H2,1H3/t6-,7+/m0/s1
