18
gdb 36493	4.02572	1.06763	0.9248	5.4779	76.35	-0.2243	0.0421	0.2663	1250.2527	0.150166	-398.116986	-398.109002	-398.108057	-398.149972	30.277	
N	 0.0401772041	-1.1303979435	-0.1206098893	-0.318368
C	 0.01065654	 0.0238067834	-0.0628836101	 0.256848
C	 0.0189346615	 1.4811428751	 0.0249779899	-0.328241
C	 1.4559653906	 2.0450589231	 0.0737792923	 0.030983
N	 2.1732680302	 1.7056700933	-1.1566891441	-0.306153
C	 3.1248929604	 2.7662375004	-1.5002758125	-0.158375
C	 2.5087166136	 4.0059534942	-0.8837774716	-0.0344
N	 1.0696132628	 4.1652843607	-1.1841070318	-0.323264
C	 1.4947476721	 3.5638640138	 0.0984340729	-0.064489
H	-0.4779999915	 1.9040606644	-0.8527964647	 0.172453
H	-0.5412543309	 1.7806181165	 0.9184883989	 0.136472
H	 1.9479436405	 1.678335915	 0.9909142136	 0.075531
H	 2.5807959763	 0.7810070289	-1.1379263923	 0.23752
H	 4.129208852	 2.6281225418	-1.0646986926	 0.088275
H	 3.2365022329	 2.8397430324	-2.588607526	 0.113472
H	 3.1203635229	 4.8876720044	-0.7284824856	 0.094593
H	 0.8065280127	 5.1343781647	-1.0201373914	 0.234035
H	 1.3063628197	 4.0861803614	 1.0299477445	 0.093105
73.3178	103.6234	157.9013	241.8983	331.6371	393.2979	402.9298	460.2401	538.8333	584.0773	663.4655	795.1577	808.1282	858.1275	874.0179	902.8658	945.664	953.7066	997.9431	1012.0944	1040.2679	1077.3951	1095.8283	1112.9462	1154.1387	1166.0393	1217.4995	1224.1564	1256.706	1281.2747	1313.1939	1345.2965	1373.5686	1396.2286	1434.2668	1456.5895	1460.1072	1513.1514	2357.9906	2950.1092	2957.7546	3045.8445	3046.2684	3106.8845	3169.7174	3180.6201	3496.9703	3585.6266
N#CCC1NCC2NC12	N#CC[C@H]1NC[C@H]2N[C@@H]12	
InChI=1S/C6H9N3/c7-2-1-4-6-5(9-6)3-8-4/h4-6,8-9H,1,3H2	InChI=1S/C6H9N3/c7-2-1-4-6-5(9-6)3-8-4/h4-6,8-9H,1,3H2/t4-,5-,6+/m1/s1
