20
gdb 92929	3.26763	1.11628	0.86565	3.9665	84.98	-0.215	-0.001	0.214	1345.3156	0.172503	-403.200884	-403.192307	-403.191363	-403.234065	32.651	
C	-0.0004965758	 1.5632909271	 0.0299113906	-0.401063
C	 0.0224700822	 0.0346847453	-0.0254025329	 0.004598
C	 0.7405189762	-0.4920510041	-1.2812568108	-0.25838
C	 1.0220758402	-1.967571433	-1.1800422917	-0.151736
C	 0.9478737626	-2.6397795229	-0.0289505449	 0.034357
N	 0.6701943772	-2.0124935008	 1.1924757862	-0.075571
C	 0.6881485481	-0.5535850837	 1.2267039393	-0.170277
C	 0.468173954	-2.7547659264	 2.3292191113	 0.144297
O	 0.4881217085	-3.9644544139	 2.3874462454	-0.328669
H	 1.0153584555	 1.9700844053	 0.0980128427	 0.118319
H	-0.4633548717	 1.979295477	-0.8704161696	 0.120531
H	-0.5657711366	 1.9267310484	 0.8945901073	 0.115414
H	-1.0102882546	-0.3368508128	-0.0475681022	 0.090416
H	 0.1253684136	-0.2873943478	-2.1665991407	 0.109229
H	 1.674564614	 0.0691748862	-1.4382368429	 0.106767
H	 1.2732221826	-2.512976816	-2.0829454522	 0.097333
H	 1.0952734135	-3.7078314887	 0.0624310404	 0.142481
H	 1.7272892712	-0.1969836317	 1.2848837353	 0.112808
H	 0.1743000095	-0.2230669874	 2.1345613379	 0.114663
H	 0.2796578899	-2.1082393999	 3.2079862814	 0.074482
83.8368	143.9162	209.2623	227.1056	257.7832	295.7739	321.5646	403.9805	433.976	448.0345	503.8263	657.4233	756.7553	784.1336	864.6253	880.3654	896.9629	929.685	971.8947	979.2306	1008.7867	1021.346	1097.0464	1118.0598	1143.9786	1194.5446	1196.7651	1271.5217	1309.3064	1315.9098	1335.8689	1361.4203	1377.805	1402.1541	1413.1526	1437.3734	1448.7549	1478.1896	1495.8304	1499.6067	1503.0499	1721.1033	1795.3927	2944.4064	2988.1003	2994.8983	3023.2905	3029.1774	3043.2045	3079.1806	3095.0737	3103.7812	3188.9365	3233.129
CC1CC=CN(C1)C=O	C[C@H]1CC=CN(C1)C=O	
InChI=1S/C7H11NO/c1-7-3-2-4-8(5-7)6-9/h2,4,6-7H,3,5H2,1H3	InChI=1S/C7H11NO/c1-7-3-2-4-8(5-7)6-9/h2,4,6-7H,3,5H2,1H3/t7-/m0/s1
