16
gdb 127382	3.91409	1.12509	1.06084	2.3133	72.03	-0.2349	-0.0449	0.19	1154.4304	0.124186	-434.007136	-433.999335	-433.998391	-434.04006	28.727	
C	 0.2539231984	 1.5173163491	-0.4714605965	-0.327633
N	 0.0675744992	 0.1170802899	-0.1045184008	-0.088388
C	 1.2551439139	-0.7115612099	 0.0192408989	-0.254091
C	 0.4741355632	-0.3399447615	 1.2372372612	-0.115158
C	 1.0410836223	 0.554273703	 2.2626614622	 0.277026
C	 0.6030238323	 0.8170345475	 3.524982104	-0.057909
O	 1.4295645414	 1.6781200962	 4.1108511996	-0.160032
N	 2.4425562364	 1.9732992545	 3.1475215148	-0.002443
N	 2.1896079728	 1.3117043809	 2.1102653738	-0.180461
H	 1.1890754997	 1.9634398513	-0.1070131671	 0.13355
H	 0.2418242945	 1.5847816801	-1.5634972521	 0.128352
H	-0.5867466811	 2.1032987794	-0.0869351129	 0.123335
H	 1.1826187091	-1.7198305206	-0.3804592047	 0.119545
H	 2.22769561	-0.2361545689	-0.0949949779	 0.134584
H	-0.2139507109	-1.0713262262	 1.6552509296	 0.096731
H	-0.2383670713	 0.4690573552	 4.1015241778	 0.172994
58.6098	128.4377	178.2916	211.9499	297.5624	360.3806	440.6246	491.2013	629.7002	637.9681	680.8106	729.5882	771.8484	851.381	876.5612	972.5261	983.039	1030.8261	1043.5533	1097.2453	1127.4575	1133.9003	1152.0301	1170.3675	1210.228	1262.5212	1307.6511	1337.6713	1403.8807	1451.293	1465.5569	1491.6098	1504.1428	1511.4975	1614.5549	3009.7843	3082.9112	3097.1775	3106.938	3129.065	3185.2604	3283.7038
CN1CC1C1=CON=N1	CN1C[C@H]1c1conn1	
InChI=1S/C5H7N3O/c1-8-2-5(8)4-3-9-7-6-4/h3,5H,2H2,1H3	InChI=1S/C5H7N3O/c1-8-2-5(8)4-3-9-7-6-4/h3,5H,2H2,1H3/t5-,8?/m0/s1
