19
gdb 100746	2.88982	1.03266	0.80815	5.3916	68.3	-0.2567	0.0181	0.2748	1395.6715	0.159891	-493.509277	-493.499714	-493.49877	-493.543741	35.47	
N	 0.031814073	 1.5523102573	-0.0040373263	-0.525523
C	 0.048355003	 0.0828603222	-0.0583038726	-0.171429
C	 0.7349597851	-0.4582675767	 1.2007799697	 0.00865
N	 0.086042941	-0.0109291249	 2.4513072674	-0.530665
H	 0.9370386444	-1.1437513048	 3.4447928828	 0.321381
H	 0.1052005818	 1.0056676741	 2.4707945167	 0.256948
H	-0.9007498015	-0.2644238955	 2.4221397882	 0.239329
C	 0.8037372942	-1.9962880051	 1.2294419649	-0.004482
O	 1.2966697805	-2.5032279618	 0.0216318655	-0.4388
C	 1.6834605143	-2.5191651109	 2.386333002	 0.401834
O	 1.5254261606	-1.9467073089	 3.5690490948	-0.369636
O	 2.461197624	-3.4228389851	 2.1797948899	-0.360891
H	 0.9416254412	 1.914396603	-0.2765083586	 0.233112
H	-0.6265443609	 1.9180261404	-0.6840314888	 0.236428
H	-0.9917342414	-0.2691102774	-0.0717957788	 0.097639
H	 0.5429894658	-0.33695842	-0.9430933338	 0.124473
H	 1.7632285772	-0.07179847	 1.2233382449	 0.09844
H	-0.2216768068	-2.3718127649	 1.4181245938	 0.08499
H	 1.9467945046	-3.175624931	 0.2910672982	 0.298203
78.4324	110.223	133.2921	175.1044	246.894	292.8649	322.7704	340.4241	360.4334	409.1375	426.6277	511.8396	525.2975	561.6801	646.157	745.9049	843.3567	884.2838	928.2102	950.7031	992.2467	1021.1224	1053.0147	1080.4821	1128.9334	1162.7211	1180.8122	1199.0284	1270.4914	1298.2622	1321.4122	1347.5471	1377.7903	1405.1006	1416.856	1452.7144	1504.9151	1529.1963	1658.6717	1660.6459	1833.6471	2908.0763	3013.3518	3022.4413	3057.9743	3067.2653	3468.4895	3493.5512	3548.3284	3572.1328	3643.3511
NCC([NH3+])C(O)C([O-])=O	NC[C@@H](N)[C@@H](O)C(=O)O	
InChI=1S/C4H10N2O3/c5-1-2(6)3(7)4(8)9/h2-3,7H,1,5-6H2,(H,8,9)	InChI=1S/C4H10N2O3/c5-1-2(6)3(7)4(8)9/h2-3,7H,1,5-6H2,(H,8,9)/t2-,3-/m1/s1
