22
gdb 114240	4.23713	0.81281	0.77443	1.3303	83.76	-0.2271	0.0723	0.2994	1558.7759	0.193231	-404.300816	-404.291192	-404.290247	-404.335563	36.168	
C	-0.2565872626	 1.4203485569	 0.1037080873	-0.31542
N	-0.0680002269	-0.0225981392	 0.1500831548	-0.130874
C	 1.2529675315	-0.5275904951	-0.2332560056	-0.316616
C	 0.7988913419	-0.5551480483	 1.1806421955	 0.389601
C	 1.4699180206	 0.1651193399	 2.3621801413	-0.337878
C	 1.484813384	-1.20301935	 3.1106580716	 0.023905
C	 1.0440658232	-1.2107088152	 4.5649473405	-0.081019
O	 0.9860095287	-2.5176635771	 5.1144543637	-0.42065
C	 0.4894002831	-1.7753236051	 2.0512608018	-0.338627
H	 0.6396995101	 1.9964933816	 0.3857402376	 0.101315
H	-0.5434974642	 1.7115373338	-0.9115737592	 0.123489
H	-1.0710104268	 1.703094443	 0.7789620658	 0.120574
H	 1.2574035518	-1.4327115689	-0.8362975946	 0.112246
H	 2.0220078271	 0.1994560162	-0.4964016126	 0.10323
H	 2.432587933	 0.6512247055	 2.1885312382	 0.105025
H	 0.7977511395	 0.8850729006	 2.8444943909	 0.102082
H	 2.461333494	-1.6888538834	 3.0288477436	 0.08198
H	 1.7629549322	-0.6601376091	 5.1825872114	 0.108946
H	 0.073442377	-0.6935237142	 4.6579429536	 0.080066
H	 0.3408455498	-3.0184811005	 4.6044307716	 0.285399
H	-0.5494161679	-1.7636979015	 2.4033757214	 0.098493
H	 0.7081831112	-2.7590405699	 1.6287532612	 0.104732
47.2825	99.4782	171.8717	197.3574	202.883	235.3971	299.1978	336.8116	388.6228	432.3756	440.3613	452.6958	581.0551	723.1678	771.3028	836.9668	880.5159	902.1482	905.8072	941.3268	1005.9409	1027.1502	1055.9203	1062.6741	1085.2471	1112.8668	1136.9108	1143.4504	1156.4854	1188.9349	1209.8816	1224.9346	1229.5957	1247.4518	1256.001	1284.442	1346.9772	1387.2233	1414.887	1424.3755	1452.5273	1470.2725	1489.8517	1493.7023	1497.0798	1505.5655	1515.6844	2956.1628	2971.5839	3030.5764	3036.35	3057.6597	3065.673	3070.732	3078.3802	3098.5608	3100.4198	3102.9161	3165.7452	3811.0683
CN1CC11CC(CO)C1	CN1C[C@]21C[C@@H](CO)C2	
InChI=1S/C7H13NO/c1-8-5-7(8)2-6(3-7)4-9/h6,9H,2-5H2,1H3	InChI=1S/C7H13NO/c1-8-5-7(8)2-6(3-7)4-9/h6,9H,2-5H2,1H3/t6-,7+,8?
