18
gdb 90251	3.76995	1.40249	1.33366	2.3615	72.12	-0.2403	0.0335	0.2738	996.6503	0.149197	-438.942591	-438.935653	-438.934709	-438.973571	29.113	
O	 0.007616779	 1.4544609275	-0.0062658207	-0.450361
C	 0.0577696328	 0.0463873001	-0.0037246114	 0.191181
C	 0.4765515895	-0.5970966726	 1.3508543971	-0.259044
C	-0.8296555754	-1.3332660062	 1.7132065391	 0.236658
C	-0.556284099	-2.7647537941	 2.2621113339	-0.199834
O	-0.3392239615	-3.1764820644	 0.848688801	-0.32417
C	-1.2418309667	-2.0444356518	 0.4991300125	 0.12621
C	-1.3354360586	-0.5799787837	-0.09009041	-0.125355
N	-1.8444995882	-0.2047988673	 1.3402847907	-0.431071
H	-0.6445429327	 1.687523666	 0.6691901796	 0.283265
H	 0.7039189669	-0.2438307303	-0.8346224957	 0.093702
H	 1.3145400855	-1.2875905454	 1.2482231777	 0.119338
H	 0.7241318596	 0.1691983546	 2.0895310893	 0.10612
H	 0.3391747518	-2.922435811	 2.8679188217	 0.124553
H	-1.4218887896	-3.2850622541	 2.6865191201	 0.114059
H	-2.262427901	-2.4472516033	 0.5362220937	 0.082577
H	-1.9820862879	-0.3076182334	-0.9250141833	 0.085946
H	-2.7942477344	-0.5687128106	 1.4330416148	 0.226226
141.6908	266.72	295.6566	316.6279	444.1847	475.8277	512.1985	524.712	600.5406	661.3413	727.8142	760.8085	808.9977	834.5393	853.7018	876.4104	896.2195	930.1939	971.0767	1019.2992	1037.9183	1067.707	1080.4844	1105.1365	1124.7356	1136.8834	1171.9138	1173.5128	1249.1461	1257.4935	1271.7646	1286.6418	1308.7758	1331.3998	1345.7953	1407.9686	1447.8883	1471.4002	1500.4514	3010.464	3039.9902	3073.7635	3094.9958	3116.5937	3121.667	3135.3001	3453.8655	3747.6669
OC1CC23COC2C1N3	O[C@H]1C[C@]23CO[C@@H]2[C@H]1N3	
InChI=1S/C6H9NO2/c8-3-1-6-2-9-5(6)4(3)7-6/h3-5,7-8H,1-2H2	InChI=1S/C6H9NO2/c8-3-1-6-2-9-5(6)4(3)7-6/h3-5,7-8H,1-2H2/t3-,4-,5+,6-/m0/s1
