12
gdb 128975	4.14406	1.78607	1.24813	5.4468	70.78	-0.2671	-0.0779	0.1892	881.709	0.082358	-427.851108	-427.845541	-427.844597	-427.881038	21.886	
N	 0.0551417758	 1.2776614621	 0.0089945421	-0.193421
C	 1.1576990956	 2.0583044612	 0.0023633999	-0.057704
C	 2.3491039837	 1.3833467823	-0.0130594477	 0.250392
N	 3.6487626918	 1.7479573351	-0.0238442506	-0.353397
C	 4.2604028497	 0.5483513889	-0.0365405535	 0.029285
N	 3.493880026	-0.5757585428	-0.0350257363	-0.316235
C	 2.2613172646	-0.067361606	-0.0200850557	 0.37061
N	 1.093639163	-0.7462493503	-0.0122590824	-0.253402
N	-0.0087583863	-0.0791211027	 0.0022441356	-0.074227
H	-0.8677058179	 1.6885082941	 0.0203460404	 0.298933
H	 1.0155185581	 3.1328603796	 0.0096301156	 0.171286
H	 5.3415144157	 0.4770645585	-0.0475285875	 0.127879
224.2535	261.7355	393.3445	466.5542	583.9677	631.4899	640.7408	644.9425	722.6327	800.7612	834.3767	909.3386	920.4179	953.539	960.2022	974.2835	1139.7615	1215.2022	1236.105	1264.9873	1351.2991	1360.4391	1408.3516	1445.6489	1531.9987	1559.9173	1666.9944	3204.1905	3223.2711	3620.4201
N1C=C2N=CN=C2N=N1	[nH]1cc2ncnc2nn1	
InChI=1S/C4H3N5/c1-3-4(6-2-5-3)8-9-7-1/h1-2H,(H,5,6,7,8)	InChI=1S/C4H3N5/c1-3-4(6-2-5-3)8-9-7-1/h1-2H,(H,5,6,7,8)
