23
gdb 116894	4.08881	0.52026	0.47574	0.9339	93.94	-0.24	0.0486	0.2886	2418.0205	0.202285	-388.261281	-388.249479	-388.248535	-388.300652	40.472	
C	-0.0350288584	 1.6088151224	 0.0274231738	-0.381584
C	 0.0055921322	 0.0795885655	 0.0373190345	-0.152864
C	-1.4011676378	-0.5445028628	-0.0650845717	-0.339326
C	-1.3903202115	-2.0029099528	-0.0580559776	 0.06463
C	-1.3456203303	-3.206291526	-0.0565358495	 0.100676
C	-1.3368076464	-4.6687106966	-0.0308646274	-0.042084
C	-2.7660334855	-5.2312665214	 0.0478465692	-0.389153
O	-0.648622996	-5.1273671853	-1.1932085209	-0.241035
C	-0.1525435325	-6.4415595512	-1.0870732178	-0.229083
H	 0.9715714421	 2.0314562989	 0.0994140342	 0.1145
H	-0.4903299496	 1.9885624367	-0.8941402694	 0.115858
H	-0.6199584506	 1.99675542	 0.8690227523	 0.114629
H	 0.6159753142	-0.2880809744	-0.7948137954	 0.112411
H	 0.4860892929	-0.2799701537	 0.954071871	 0.107586
H	-2.0206888097	-0.1806055173	 0.7661622946	 0.124133
H	-1.8907818272	-0.1863372206	-0.9809609124	 0.126519
H	-0.7791023125	-5.0004740933	 0.8624576907	 0.086425
H	-3.2732923033	-4.8497112944	 0.9381511174	 0.12438
H	-3.3319575612	-4.9271825028	-0.8361246862	 0.132839
H	-2.7538647553	-6.3234654322	 0.1029435442	 0.113884
H	 0.4277963415	-6.6353864154	-1.9925457426	 0.128595
H	 0.5076172676	-6.5586375774	-0.2127378556	 0.103208
H	-0.9494110026	-7.1969542561	-1.0186622054	 0.104857
17.9933	54.1049	65.1704	84.3577	133.6467	167.9034	205.4245	240.1465	244.0486	288.5047	315.973	368.4331	405.9563	461.4532	537.1258	563.8994	742.2989	774.4986	855.3279	871.6415	893.213	999.6685	1041.2404	1065.5496	1098.812	1109.227	1122.35	1132.3056	1180.9363	1187.1532	1217.751	1259.6946	1306.0411	1322.7657	1346.3316	1373.9007	1381.4593	1397.3912	1411.6611	1471.9178	1475.2345	1481.8221	1490.6701	1491.9808	1498.8246	1499.8931	1508.774	1511.2582	2369.0094	2945.262	2973.3387	3008.4795	3020.7092	3029.2097	3034.9808	3042.6573	3048.0977	3073.8477	3100.1945	3105.5316	3112.1885	3120.9233	3132.894
CCCC#CC(C)OC	CCCC#C[C@@H](C)OC	
InChI=1S/C8H14O/c1-4-5-6-7-8(2)9-3/h8H,4-5H2,1-3H3	InChI=1S/C8H14O/c1-4-5-6-7-8(2)9-3/h8H,4-5H2,1-3H3/t8-/m1/s1
