16
gdb 55315	2.54851	1.51044	1.10695	4.5882	64.66	-0.2557	0.0106	0.2663	1079.2655	0.124526	-475.008666	-475.000777	-474.999833	-475.041808	29.194	
O	-0.2907781576	-0.0863127822	 0.0043908087	-0.367235
C	-0.0521463619	 1.2293164662	-0.0487359459	 0.429362
O	 1.0481755204	 1.7078129232	-0.1267685609	-0.345328
C	-1.3178233719	 2.0781785087	 0.0554900369	-0.22095
N	-2.5613418362	 1.2634591124	 0.173942979	-0.352484
H	-3.2074586615	 1.3643489244	-0.6003239391	 0.241348
H	-1.2661283803	-0.1647619699	 0.1010867328	 0.304688
C	-2.9784898996	 1.9736420943	 1.4234411321	-0.256331
C	-1.6109643023	 2.6613111153	 1.4523353436	 0.42435
C	-0.69343199	 2.9862385463	 2.5404052608	-0.256468
O	-1.4058336789	 4.0016116557	 1.8029851816	-0.255435
H	-1.3116955608	 2.8454569471	-0.7242232942	 0.12243
H	-3.7933031824	 2.6917249475	 1.2819992467	 0.127923
H	-3.2265077113	 1.3007373164	 2.249241746	 0.127005
H	-1.0119977509	 2.855253196	 3.5729383706	 0.123288
H	 0.3777889451	 2.9490762087	 2.3561779912	 0.153837
58.3778	118.6389	138.5158	270.7903	312.744	351.3025	412.8039	462.4025	570.9831	632.3022	718.8347	764.3825	848.4852	861.0347	902.1949	910.5251	915.9069	952.9602	1007.2119	1023.0567	1096.283	1121.148	1137.5861	1163.7368	1183.1725	1218.0254	1234.5939	1279.0715	1328.1051	1365.3689	1429.5822	1442.943	1504.8107	1535.3043	1866.	3042.9686	3077.4269	3095.4403	3096.3042	3193.8972	3469.1846	3546.0702
[O-]C(=O)C1[NH2+]CC11CO1	OC(=O)[C@H]1NC[C@]21CO2	
InChI=1S/C5H7NO3/c7-4(8)3-5(1-6-3)2-9-5/h3,6H,1-2H2,(H,7,8)	InChI=1S/C5H7NO3/c7-4(8)3-5(1-6-3)2-9-5/h3,6H,1-2H2,(H,7,8)/t3-,5-/m1/s1
