15
gdb 131551	3.1159	1.58116	1.09688	2.7165	67.07	-0.2287	-0.0084	0.2203	1030.4949	0.115182	-453.923926	-453.916852	-453.915908	-453.955548	27.402	
O	 0.1932189529	 1.3474489414	 0.3626075754	-0.416673
C	 0.0640161449	-0.0281646147	 0.0672156124	-0.021129
C	-1.4321538102	-0.474331549	-0.1577410199	-0.195
N	-1.3949938503	-1.513947965	-1.207320887	-0.400891
C	-0.2211854599	-1.3379928851	-1.9090641346	 0.436309
N	 0.2267499245	-1.794164698	-3.0493285308	-0.280749
O	 1.5383826682	-1.2430376241	-3.1164988536	-0.184378
C	 1.7774998464	-0.5025313072	-2.0165876931	-0.075866
C	 0.6946832008	-0.5096270171	-1.207311804	 0.102098
H	 0.0008872034	 1.8383342968	-0.4447025565	 0.279563
H	 0.4788000066	-0.5398333831	 0.9420790812	 0.118598
H	-1.8901578672	-0.8595173416	 0.7563979427	 0.123415
H	-1.9991224955	 0.412929816	-0.4761729093	 0.104731
H	-2.2425371492	-1.6965139762	-1.7242608662	 0.254205
H	 2.7500895244	-0.0363162932	-1.9754257967	 0.155769
98.2903	179.9785	273.6033	330.6572	358.3065	470.3608	501.6714	526.1786	569.5171	633.0529	691.4788	768.873	786.5079	852.4641	862.0901	951.8374	971.6645	1000.9947	1053.384	1083.4663	1126.5759	1175.7476	1201.605	1256.7623	1293.4239	1307.3112	1323.6227	1398.6322	1429.7932	1472.9294	1513.374	1588.6828	1691.9367	2997.8398	3054.9095	3096.7319	3260.6552	3610.0589	3794.0116
OC1CNC2=NOC=C12	O[C@H]1CNc2nocc12	
InChI=1S/C5H6N2O2/c8-4-1-6-5-3(4)2-9-7-5/h2,4,8H,1H2,(H,6,7)	InChI=1S/C5H6N2O2/c8-4-1-6-5-3(4)2-9-7-5/h2,4,8H,1H2,(H,6,7)/t4-/m0/s1
