16
gdb 127954	4.05577	1.15302	0.90335	1.4429	81.55	-0.2048	-0.0564	0.1484	1247.272	0.125372	-430.229433	-430.2211	-430.220156	-430.26217	31.349	
C	-0.0139843245	 1.459177547	-0.0106131329	-0.344062
N	-0.0443301989	 0.01118739	-0.0657647223	-0.334349
C	 0.5104188035	-0.6496560994	 0.8800945569	 0.474015
N	 1.1616368605	-0.0623500634	 1.9913521114	-0.313323
N	 1.7714892893	-0.6864763588	 3.0060175752	-0.043152
N	 1.7888863431	-1.9510430889	 3.0410633452	-0.265635
C	 1.1724787177	-2.6783643396	 2.0117102735	 0.45365
N	 1.2406169672	-4.0288266378	 2.2341782944	-0.561116
C	 0.5570194795	-2.0822783294	 0.9545778598	-0.317192
H	 1.0095321414	 1.8732243591	-0.0221514341	 0.10323
H	-0.5284193201	 1.8627858327	-0.8864379185	 0.12783
H	-0.5241155257	 1.8707719765	 0.8777936348	 0.104173
H	 1.2143752731	 0.9410593521	 2.0709460487	 0.276572
H	 1.9407968813	-4.3142961346	 2.9011645911	 0.266107
H	 1.108819684	-4.6438817635	 1.448283344	 0.261826
H	 0.0879225285	-2.6435944522	 0.1563802527	 0.111427
108.9559	143.5508	186.1535	214.4757	277.6175	356.3426	408.6527	412.0535	462.5343	477.561	553.6778	603.2624	636.0852	693.5645	765.4547	773.4138	860.3648	926.8524	1014.117	1035.7467	1093.0746	1106.4579	1140.4547	1163.836	1258.8428	1325.1593	1395.3458	1411.354	1446.6772	1497.8409	1509.0814	1568.443	1623.8882	1681.207	1731.9702	2937.6025	2976.9255	3094.6327	3211.0726	3591.5442	3645.6981	3710.2762
CN=C1NN=NC(N)=C1	C[N]c1[nH]nnc(N)c1	
InChI=1S/C4H7N5/c1-6-4-2-3(5)7-9-8-4/h2H,1H3,(H3,5,6,7,8)	InChI=1S/C4H12N5/c1-6-4-2-3(5)7-9-8-4/h3-4,7-9H,2,5H2,1H3
