16
gdb 36441	4.11278	1.06074	0.99577	4.9251	68.76	-0.2682	0.0311	0.2993	1189.1461	0.12458	-437.85028	-437.842575	-437.84163	-437.883354	28.201	
N	-0.0104036922	-0.9693547024	-0.6102624459	-0.303086
C	 0.0088837668	 0.156885578	-0.3539259229	 0.265272
C	 0.0336772092	 1.5772973922	-0.0161610736	-0.356198
C	 1.4531503176	 2.1095257499	 0.1682051512	 0.117883
O	 2.2670637347	 2.0215749997	-1.0295747318	-0.304765
C	 2.5816321497	 3.4267073683	-0.9858926258	 0.074014
C	 1.5847305427	 4.2869822579	-1.7722133302	-0.097097
O	 0.6910578985	 4.3471464494	-0.6223215905	-0.291332
C	 1.6298166904	 3.6417187402	 0.2065425689	 0.030864
H	-0.4680773282	 2.1555058675	-0.7970135892	 0.167676
H	-0.528422201	 1.7297159978	 0.9132764078	 0.155424
H	 1.9523257857	 1.598681534	 1.0018448543	 0.101533
H	 3.6510914198	 3.6314475989	-1.0371398983	 0.101978
H	 1.9438436	 5.2884131636	-2.037908101	 0.115253
H	 1.1287904709	 3.8023569981	-2.6408232767	 0.125265
H	 1.8286270753	 4.1401712669	 1.1561552536	 0.097317
56.2478	115.1566	136.7636	236.0572	352.3686	387.963	406.6497	505.5532	554.2891	720.4903	800.6168	826.3232	853.4834	920.6567	941.0498	955.6285	996.7289	1008.1213	1034.4638	1064.8961	1081.3417	1103.7268	1164.1907	1195.3961	1217.9346	1233.1274	1267.1648	1293.7298	1309.2783	1352.3469	1355.962	1387.7528	1454.6309	1502.6297	2366.6372	3024.8624	3029.6105	3047.771	3095.4186	3103.5469	3105.3006	3118.27
N#CCC1OC2COC12	N#CC[C@H]1O[C@H]2CO[C@@H]12	
InChI=1S/C6H7NO2/c7-2-1-4-6-5(9-4)3-8-6/h4-6H,1,3H2	InChI=1S/C6H7NO2/c7-2-1-4-6-5(9-4)3-8-6/h4-6H,1,3H2/t4-,5+,6+/m1/s1
