21
gdb 85402	1.76332	1.66582	0.90914	2.8268	86.28	-0.2339	-0.0094	0.2245	1329.6911	0.18193	-387.140993	-387.131748	-387.130804	-387.175004	35.015	
C	-0.1072603931	 1.5651800258	-0.0337499211	-0.397493
C	-0.0242192559	 0.0330958069	 0.0343481126	-0.032479
C	 0.61935303	-0.5465848486	-1.2434515794	-0.303401
C	 0.9172871054	-2.0248697542	-1.0927983653	 0.372397
O	 0.5274600314	-2.8620777567	-1.8725466884	-0.310457
C	 1.7600235735	-2.3835260518	 0.124679091	-0.390998
C	 1.5299120628	-1.4885611833	 1.323088279	 0.282229
C	 2.2506938184	-1.8899057445	 2.5809632479	-0.469852
C	 0.7200605251	-0.4283030098	 1.2644911058	-0.134287
H	 0.8934743762	 2.0085502206	-0.0833444456	 0.117787
H	-0.6664051451	 1.8890399957	-0.9173093145	 0.116522
H	-0.6104265878	 1.9701710973	 0.8503892223	 0.115465
H	-1.0564356665	-0.3467354007	 0.092286573	 0.095917
H	-0.0121120236	-0.3967059115	-2.1224448188	 0.115373
H	 1.5743810853	-0.0279771226	-1.4120141431	 0.113603
H	 1.572239842	-3.4353847855	 0.3705317662	 0.1296
H	 2.8192664065	-2.3383457216	-0.1765042526	 0.130063
H	 3.3371771875	-1.9108996622	 2.4237098081	 0.123291
H	 2.038680358	-1.203744183	 3.4049592306	 0.122414
H	 1.9645144488	-2.9018269825	 2.895378414	 0.126607
H	 0.568059581	 0.1655134923	 2.1644669482	 0.0777
75.986	105.6576	154.0267	206.1261	247.108	270.5884	318.9868	396.1146	410.6915	424.7586	494.1395	519.8053	561.4675	620.9997	802.7917	831.2509	873.1754	884.9098	911.82	962.4073	969.6251	1008.2359	1049.0071	1077.5512	1097.2795	1140.4672	1156.241	1187.2955	1221.1245	1247.8768	1289.1154	1311.9879	1343.4631	1350.8833	1376.7226	1409.5604	1414.8509	1444.5264	1466.6793	1478.2039	1490.9133	1496.2646	1498.226	1738.9406	1820.5677	2976.2108	2988.0347	3013.3541	3014.6324	3029.1116	3057.6427	3060.6849	3098.8804	3103.2921	3106.98	3113.3754	3137.2378
CC1CC(=O)CC(C)=C1	C[C@H]1CC(=O)CC(=C1)C	
InChI=1S/C8H12O/c1-6-3-7(2)5-8(9)4-6/h3,6H,4-5H2,1-2H3	InChI=1S/C8H12O/c1-6-3-7(2)5-8(9)4-6/h3,6H,4-5H2,1-2H3/t6-/m1/s1
