16
gdb 66046	2.28983	1.42145	1.13228	3.6261	75.78	-0.2773	0.0038	0.2811	1121.0464	0.122528	-400.715289	-400.706425	-400.705481	-400.748818	33.012	
O	 0.0464351014	 1.3673338733	 0.1036808457	-0.448472
C	 0.0659205488	-0.0402964469	 0.0211822913	 0.205419
C	 0.1837684893	-0.5872610292	 1.4719116512	-0.252705
C	-1.3603607697	-0.6997463679	 1.5452532154	-0.250348
C	-1.4027718209	-0.648647575	-0.0125458469	-0.19503
C	-2.405780607	 0.1590270788	-0.6762526485	 0.27233
N	-3.1710149627	 0.8405695302	-1.2129088243	-0.328048
C	 0.9825793085	-0.5311364334	-0.9967239859	 0.277359
C	 1.7207908115	-0.9373131792	-1.8543509489	-0.4343
H	-0.2259074629	 1.7210188224	-0.7524883282	 0.298301
H	 0.6800877732	-1.55873759	 1.4946522761	 0.123341
H	 0.6766319061	 0.0984642539	 2.1611286836	 0.132404
H	-1.7834679699	-1.5942243885	 2.0024912209	 0.119522
H	-1.8182084023	 0.185745009	 1.9859447927	 0.141184
H	-1.3840588619	-1.6517685797	-0.444762075	 0.13347
H	 2.3814644085	-1.2909577079	-2.6075584691	 0.205571
81.5847	122.7551	142.5887	183.4425	233.9983	346.551	366.7483	382.2516	463.8127	498.0866	555.3731	590.7964	622.2852	648.2562	672.6618	734.7862	782.6028	907.7206	948.6006	959.4702	987.0295	1054.751	1086.3586	1121.2433	1149.4315	1222.803	1249.7229	1267.2189	1282.1072	1345.2323	1367.5283	1470.2216	1489.7029	2232.711	2349.9277	3087.3137	3092.0225	3094.9873	3145.9129	3160.5371	3498.0672	3784.5852
OC1(CCC1C#N)C#C	O[C@]1(CC[C@H]1C#N)C#C	
InChI=1S/C7H7NO/c1-2-7(9)4-3-6(7)5-8/h1,6,9H,3-4H2	InChI=1S/C7H7NO/c1-2-7(9)4-3-6(7)5-8/h1,6,9H,3-4H2/t6-,7-/m0/s1
