23
gdb 115339	3.09362	1.06867	0.88943	0.6823	81.04	-0.2555	0.0604	0.3159	1395.0526	0.206297	-425.44268	-425.43275	-425.431806	-425.477834	37.208	
C	-0.1018208124	 1.6163009847	-0.0579596869	-0.388389
C	-0.0811012403	 0.0847374921	-0.017115313	-0.186536
C	 0.7646605594	-0.548127782	-1.126030779	 0.041861
C	 2.2774742124	-0.2505030005	-1.0889906099	-0.214841
C	 2.8677764209	-1.255393279	-2.0966126764	-0.262298
C	 1.9324754481	-2.4968279909	-2.064383593	 0.123477
O	 2.5567746469	-3.6856177751	-1.5910966034	-0.443929
C	 0.7231126419	-2.0830396887	-1.1615180962	 0.062861
O	 0.9199994057	-2.5734472858	 0.1591045143	-0.442752
H	 0.897574216	 2.0386301781	 0.0890555243	 0.116344
H	-0.4780811013	 1.9846386196	-1.0195327833	 0.108996
H	-0.7482236465	 2.0209678261	 0.7271172758	 0.110986
H	 0.2910365821	-0.2609423578	 0.9527150281	 0.113939
H	-1.108544914	-0.2927840334	-0.0989389937	 0.090656
H	 0.3783435307	-0.2043320516	-2.098213562	 0.065508
H	 2.5188798449	 0.7855053673	-1.3390926956	 0.094581
H	 2.6569230316	-0.4430571346	-0.0789498133	 0.104447
H	 2.8734065513	-0.8224098108	-3.1025069914	 0.103477
H	 3.9002963641	-1.5437460171	-1.8770365329	 0.097953
H	 1.5834058337	-2.7508007975	-3.0688291712	 0.087463
H	 3.0095725992	-3.4527237923	-0.7724457876	 0.279548
H	-0.229271548	-2.4591481104	-1.5625504677	 0.054826
H	 1.0562120134	-3.5241868703	 0.067183034	 0.281822
51.5391	95.5421	132.313	145.9922	182.5837	229.4738	300.6232	320.4693	350.3869	431.5066	467.2511	541.8877	612.4295	626.5956	757.5585	769.7162	814.1706	834.7987	865.0953	929.2278	951.2188	985.4521	1002.5377	1028.6436	1045.673	1065.38	1108.207	1124.9109	1164.5257	1176.7612	1220.1492	1238.657	1278.3029	1295.3953	1304.7825	1311.7087	1322.0379	1338.884	1358.1847	1372.2226	1395.6032	1412.6718	1422.9003	1442.6179	1488.177	1489.4862	1499.4899	1502.101	1508.9929	2981.6787	2996.0576	3026.9533	3028.9288	3044.0187	3044.7193	3073.2971	3073.797	3086.7289	3098.4893	3100.5111	3104.7377	3782.9777	3796.002
CCC1CCC(O)C1O	CC[C@H]1CC[C@@H](O)[C@H]1O	
InChI=1S/C7H14O2/c1-2-5-3-4-6(8)7(5)9/h5-9H,2-4H2,1H3	InChI=1S/C7H14O2/c1-2-5-3-4-6(8)7(5)9/h5-9H,2-4H2,1H3/t5-,6+,7-/m0/s1
