20
gdb 71658	2.97921	1.88772	1.87739	1.5267	80.24	-0.2338	0.0928	0.3266	885.1779	0.174158	-365.989648	-365.983155	-365.98221	-366.019912	28.504	
C	-0.0507516462	 1.4734268959	 0.021364616	-0.476859
C	 0.0895440822	-0.0337572496	 0.0146532197	 0.323724
C	 0.8848883318	-0.6955852407	-1.1352094935	-0.243132
C	 0.4395635523	-2.1212444534	-0.7895523322	-0.072385
C	-1.0914880881	-1.9879838077	-0.8157032891	-0.049478
C	-1.1793819217	-2.0027483391	 0.6598087218	-0.049479
C	 0.3441059589	-2.1372824115	 0.8129302317	-0.072384
C	 0.7435557974	-0.719329972	 1.2373692238	-0.243134
N	-1.278378224	-0.7159016776	-0.0736579422	-0.149109
H	 0.9294937498	 1.957979519	 0.084329716	 0.10815
H	-0.5465260765	 1.8209206665	-0.890018028	 0.120157
H	-0.6511744745	 1.8033495461	 0.8744811574	 0.120147
H	 0.5428824175	-0.3841005707	-2.1276473651	 0.096703
H	 1.9614771222	-0.5152586923	-1.0555556548	 0.09269
H	 0.914142535	-2.9674148582	-1.2822293735	 0.067273
H	-1.7960373047	-2.2666111751	-1.5919050569	 0.085225
H	-1.9707571011	-2.2959620384	 1.3411774173	 0.085225
H	 0.7578511085	-2.9936743886	 1.3414832514	 0.067273
H	 1.8217730829	-0.5387332867	 1.2896951215	 0.09269
H	 0.2857837785	-0.427291996	 2.1882012488	 0.096703
206.5309	270.2003	286.7412	406.9899	479.6279	543.1326	599.7674	658.211	665.9636	767.8479	799.4704	816.6466	824.28	856.3377	886.1943	895.0492	921.9393	942.1943	961.9556	970.5385	982.5018	1003.4077	1021.7074	1047.3782	1090.2383	1093.2073	1107.7102	1185.8049	1201.3026	1202.1155	1222.3264	1230.5773	1242.4192	1279.0154	1281.8967	1286.9548	1337.6151	1356.573	1414.3926	1478.1046	1487.237	1493.8776	1501.1394	3034.5805	3042.2698	3049.177	3092.3002	3099.0141	3104.3069	3109.9339	3133.1885	3141.2993	3159.2433	3174.2351
CC12CC3C4C(C3C1)N24	C[C@@]12C[C@@H]3[C@H]4[C@@H]([C@@H]3C1)N24	
InChI=1S/C8H11N/c1-8-2-4-5(3-8)7-6(4)9(7)8/h4-7H,2-3H2,1H3	InChI=1S/C8H11N/c1-8-2-4-5(3-8)7-6(4)9(7)8/h4-7H,2-3H2,1H3/t4-,5+,6-,7+,8+,9?
