18
gdb 125485	3.05733	1.4004	1.04687	3.2351	78.62	-0.2429	0.0115	0.2544	1159.4911	0.149491	-398.148527	-398.14036	-398.139416	-398.182116	30.052	
C	-0.2438940812	 1.494097928	 0.0133855473	-0.508202
C	-0.033782265	 0.0175249441	-0.0170773026	 0.357058
N	-0.03442674	-0.7402605517	-1.1066434916	-0.321932
C	 0.1947936063	-1.9834119347	-0.6136659665	 0.024761
N	 0.337334141	-2.0525066039	 0.6992458582	-0.26337
N	 0.1878947821	-0.7556516087	 1.073340735	-0.008679
C	 0.2718533259	-0.3709493875	 2.4536706837	 0.060254
C	-0.2543483771	-1.2937911582	 3.5181083464	-0.275959
C	 1.2334172658	-1.0789815371	 3.3677961321	-0.275951
H	 0.6204997769	 2.0216714659	 0.4310471991	 0.140662
H	-0.3967029737	 1.8384389745	-1.0098086643	 0.160827
H	-1.1224575414	 1.7699909106	 0.6066518908	 0.140671
H	 0.2593059524	-2.8644989435	-1.2348357159	 0.122552
H	 0.130092895	 0.6953015231	 2.5737818188	 0.112675
H	-0.7693661375	-0.8508901802	 4.3630768227	 0.119414
H	-0.6485514525	-2.2424005228	 3.1747955509	 0.147908
H	 1.8024346305	-1.8885171633	 2.9273667114	 0.147902
H	 1.7588120825	-0.4856617145	 4.1076082943	 0.119409
42.3747	118.0835	151.9959	183.546	262.0128	294.759	430.9307	480.4057	618.4638	688.1403	703.1499	719.7522	784.8326	814.4113	903.0261	914.4554	952.1874	982.3923	1008.6846	1065.8418	1068.9697	1076.4228	1087.7843	1116.5402	1135.3615	1200.9743	1218.8155	1228.3646	1305.9878	1329.3534	1382.1253	1406.8148	1443.3726	1449.947	1479.3855	1485.2521	1490.7643	1520.5361	1564.9594	3037.7301	3090.6008	3143.8474	3145.5063	3151.9519	3199.3422	3234.7762	3247.0875	3256.8816
CC1=NC=NN1C1CC1	Cc1ncnn1C1CC1	
InChI=1S/C6H9N3/c1-5-7-4-8-9(5)6-2-3-6/h4,6H,2-3H2,1H3	InChI=1S/C6H9N3/c1-5-7-4-8-9(5)6-2-3-6/h4,6H,2-3H2,1H3
