17
gdb 87468	3.64615	1.22187	1.09516	3.2696	74.17	-0.2562	-0.0103	0.2459	1137.845	0.134081	-421.743626	-421.735583	-421.734639	-421.776245	30.649	
C	-0.0595664423	 1.5266803112	-0.0168451592	-0.40477
C	 0.0226423899	 0.0164017595	 0.008648649	-0.102712
C	 1.3486495958	-0.6905148439	-0.2574110825	-0.379472
C	 0.7362072763	-0.697723151	 1.1047002643	 0.456919
C	 1.1914532893	-0.2323855207	 2.4945991061	-0.199359
O	-0.1062097846	-0.7281798195	 3.033141596	-0.296991
C	 0.2706728982	-1.7979268776	 2.0663668235	-0.199622
C	 1.6724355419	-1.6960636189	 2.7416511052	 0.489972
O	 2.5258306849	-2.3373815082	 3.2551028913	-0.309329
H	 0.8590783556	 1.9785513226	 0.3714448441	 0.114765
H	-0.2043569925	 1.8938861118	-1.0383670971	 0.123233
H	-0.89327447	 1.8867104758	 0.5944670653	 0.131727
H	-0.856810066	-0.4921286184	-0.3795888009	 0.097352
H	 1.3409703005	-1.6101105791	-0.8332873374	 0.124333
H	 2.2244195757	-0.0690478026	-0.41806113	 0.123561
H	 1.5534514042	 0.7320054465	 2.8430485961	 0.11565
H	-0.423253507	-2.6226957175	 1.9199673962	 0.114742
101.5596	130.1498	173.6078	213.8255	270.0754	369.4291	399.024	472.6875	530.7583	584.2154	688.7599	756.4634	790.2571	804.9834	822.4907	873.2014	897.0895	951.2885	971.2399	1016.6819	1052.8498	1062.395	1090.2527	1124.7509	1133.504	1150.0547	1165.5332	1176.8068	1197.7228	1221.3653	1347.4466	1413.7827	1439.951	1492.0209	1495.0869	1514.7015	1936.5056	3032.2823	3097.9383	3102.0877	3126.0475	3137.6132	3154.9724	3159.6591	3211.7457
CC1CC11C2OC1C2=O	C[C@H]1C[C@]21[C@H]1O[C@@H]2C1=O	
InChI=1S/C7H8O2/c1-3-2-7(3)5-4(8)6(7)9-5/h3,5-6H,2H2,1H3	InChI=1S/C7H8O2/c1-3-2-7(3)5-4(8)6(7)9-5/h3,5-6H,2H2,1H3/t3-,5-,6+,7-/m0/s1
