13
gdb 14812	2.61302	2.15667	1.32554	7.0623	62.59	-0.2749	-0.0131	0.2618	883.6993	0.096903	-357.634261	-357.627024	-357.62608	-357.666269	25.419	
N	-0.0993964606	-1.2278069448	-0.0086871945	-0.310788
C	-0.0616425287	-0.073414348	 0.0227176892	 0.310418
C	-0.0518819347	 1.3779539542	 0.0663345657	-0.192004
C	-0.0932286086	 1.9906873657	 1.5023065872	-0.168997
N	 1.3676411171	 2.1977639625	 1.4293538991	-0.287155
C	 1.3612058294	 2.0633841997	-0.0377564432	-0.133087
C	 2.4804074732	 1.3221381631	-0.6158188627	 0.320081
N	 3.3705100973	 0.7611654112	-1.0923415032	-0.308802
H	-0.7874900817	 1.768029176	-0.6376624209	 0.144268
H	-0.6950887432	 2.9083761738	 1.5219073109	 0.114784
H	-0.414708598	 1.3258401702	 2.3065456292	 0.145418
H	 1.7271231938	 3.0746233404	 1.7883998644	 0.240028
H	 1.2604184749	 3.0105873359	-0.5868194111	 0.125836
87.1977	107.1992	201.6888	217.782	289.5086	456.206	498.3141	556.7813	597.0467	687.4429	783.5479	821.4467	931.6886	996.5143	1003.455	1048.2091	1101.1043	1106.0087	1138.3949	1189.1793	1243.6315	1318.9436	1350.1693	1364.5641	1396.6165	1522.3837	2364.5666	2364.6727	3000.5739	3020.9364	3106.9915	3115.6062	3547.3386
N#CC1CNC1C#N	N#C[C@H]1CN[C@H]1C#N	
InChI=1S/C5H5N3/c6-1-4-3-8-5(4)2-7/h4-5,8H,3H2	InChI=1S/C5H5N3/c6-1-4-3-8-5(4)2-7/h4-5,8H,3H2/t4-,5-/m0/s1
