15
gdb 20063	4.51349	1.67747	1.53322	1.7658	60.75	-0.2515	0.0171	0.2686	845.738	0.120404	-399.782477	-399.775666	-399.774722	-399.814322	24.456	
C	 0.3039437411	 1.4585001673	 0.2138863815	-0.168713
O	 1.1898310612	 0.3774145743	-0.1066145764	-0.238736
C	-0.1924096315	 0.0853066899	 0.0863292872	 0.06998
C	-0.5295273552	-0.7838384404	 1.284512366	-0.0289
C	 0.1275800845	-2.1939421169	 1.1920792525	-0.119512
O	 0.9813928501	-2.260048427	 2.3600177	-0.213823
C	 0.7964876453	-1.0895439151	 3.0049125863	 0.130392
N	-0.0053439539	-0.2235898196	 2.5438736664	-0.268885
H	 0.4296036804	 1.8754274878	 1.2087495986	 0.140248
H	 0.1294049813	 2.1686722562	-0.592871627	 0.112063
H	-0.7215998262	-0.191677492	-0.8281674616	 0.09142
H	-1.6217908407	-0.8545828118	 1.351179924	 0.093342
H	-0.5895625442	-3.0162369199	 1.2493427895	 0.12045
H	 0.7564352761	-2.3143666491	 0.3068740764	 0.135355
H	 1.3720005217	-0.9873646636	 3.9183856367	 0.145321
64.1918	89.158	231.6666	238.3738	435.6853	471.3207	632.7194	734.7067	782.2655	864.3787	885.2879	911.937	963.0097	966.2464	970.7129	1008.6411	1049.2319	1104.3736	1112.0866	1144.7322	1167.8584	1173.1143	1225.3259	1284.9765	1296.9926	1320.951	1352.8175	1383.018	1428.2703	1511.1648	1520.5509	1706.5467	3032.2222	3065.1077	3085.4133	3099.128	3118.1678	3202.0922	3216.9244
C1OC1C1COC=N1	C1O[C@H]1[C@H]1COC=N1	
InChI=1S/C5H7NO2/c1-4(5-2-8-5)6-3-7-1/h3-5H,1-2H2	InChI=1S/C5H7NO2/c1-4(5-2-8-5)6-3-7-1/h3-5H,1-2H2/t4-,5-/m1/s1
