20
gdb 73392	2.63142	2.09825	1.52887	1.5177	82.	-0.2168	0.0063	0.2231	941.2844	0.173376	-365.974475	-365.967457	-365.966512	-366.0052	30.019	
C	 0.022520355	 1.5561694502	-0.0560116021	-0.501056
C	 0.0296436391	 0.0463225101	-0.0000586862	 0.364062
C	 0.4227349587	-0.7082373004	-1.2680152288	-0.292587
C	 0.2791615869	-2.1554035237	-0.714249749	-0.170478
N	-0.1452517082	-1.9491790934	 0.686918033	-0.11727
C	 0.7311904256	-0.777410318	 1.1587784775	-0.095321
C	 0.0053766434	-0.3471863492	 2.4204578706	-0.084502
C	-1.2729447919	-0.3675669292	 2.0362637736	-0.084477
C	-1.1702006993	-0.8075274391	 0.5872594422	-0.095329
H	 1.0154917764	 1.9419120491	-0.3139229024	 0.114877
H	-0.6748935871	 1.9151043896	-0.8215777186	 0.114879
H	-0.2727479538	 1.9880340327	 0.9043246062	 0.119645
H	-0.2520653797	-0.4946030916	-2.1037034597	 0.096248
H	 1.4398816562	-0.4678345174	-1.5951077473	 0.096252
H	-0.4765166578	-2.7454983328	-1.2410342524	 0.102358
H	 1.2167740118	-2.7187217405	-0.7320649394	 0.102356
H	 1.8105510563	-0.9431338272	 1.1800750371	 0.059349
H	 0.4519539505	-0.1128204354	 3.3753010102	 0.105824
H	-2.1784674631	-0.1547375194	 2.5847313422	 0.105825
H	-2.077152439	-1.0047088544	 0.0115031833	 0.059347
225.1833	235.8983	276.9172	308.3439	364.729	416.0664	533.4163	593.851	630.5065	678.5264	730.3334	743.8774	774.3247	826.2937	892.7067	905.2417	923.8059	926.0523	939.8853	943.0195	955.3898	1003.7577	1028.255	1037.8551	1116.5703	1135.4623	1146.9378	1166.7651	1201.2179	1212.0356	1244.8798	1250.6789	1259.9085	1294.4401	1322.0399	1330.1958	1334.9485	1408.0946	1487.4341	1492.9842	1497.0538	1509.1073	1627.603	3026.9086	3039.8742	3054.7308	3075.1518	3086.2249	3093.2725	3098.4353	3100.8119	3108.9047	3229.7484	3256.4428
CC12CCN3C1C=CC23	C[C@@]12CCN3[C@@H]1C=C[C@@H]23	
InChI=1S/C8H11N/c1-8-4-5-9-6(8)2-3-7(8)9/h2-3,6-7H,4-5H2,1H3	InChI=1S/C8H11N/c1-8-4-5-9-6(8)2-3-7(8)9/h2-3,6-7H,4-5H2,1H3/t6-,7+,8-
