13
gdb 25288	8.03459	0.6787	0.62584	6.5668	90.31	-0.2387	-0.079	0.1597	1644.9974	0.090275	-415.623342	-415.615562	-415.614618	-415.656817	27.033	
O	-0.1457474731	 0.0202498756	 0.00069728	-0.230406
C	-0.0097350748	 1.2239310472	 0.0080214146	-0.002767
C	 1.2539069804	 1.9033647667	-0.0007619702	 0.201765
C	 2.3053789207	 2.5063240935	-0.0077596108	-0.014895
C	 3.5175374974	 3.2144448633	-0.0157553668	 0.153925
N	 4.7449095498	 2.7063259513	-0.0332769087	-0.281794
C	 5.5862125494	 3.7756189431	-0.0343265102	-0.092932
C	 4.8757958217	 4.9583439168	-0.0173135851	-0.094403
N	 3.5631709337	 4.5902863918	-0.005621579	-0.281474
H	-0.8843551593	 1.9064231054	 0.0226849386	 0.095852
H	 6.6580403498	 3.6490299007	-0.0471814034	 0.122405
H	 5.1822033137	 5.9913334883	-0.0126839064	 0.144932
H	 2.7643618307	 5.2033778363	 0.0080370471	 0.279792
71.129	76.2776	119.212	204.961	253.8633	423.4615	502.5235	523.8728	576.9006	646.9145	709.776	741.6246	766.0827	876.4783	923.1707	959.4492	1013.0036	1041.7758	1116.3713	1143.2439	1195.8213	1288.1863	1409.5734	1419.7732	1430.9335	1467.7912	1563.8669	1753.4176	2299.9496	2912.7276	3253.0649	3280.808	3660.1925
O=CC#CC1=NC=CN1	O=CC#Cc1ncc[nH]1	
InChI=1S/C6H4N2O/c9-5-1-2-6-7-3-4-8-6/h3-5H,(H,7,8)	InChI=1S/C6H4N2O/c9-5-1-2-6-7-3-4-8-6/h3-5H,(H,7,8)
