16
gdb 47469	3.43942	1.11041	0.89156	4.7618	68.86	-0.2603	-0.0432	0.2172	1245.3166	0.124183	-437.91478	-437.906443	-437.905499	-437.948662	29.707	
O	-0.2223380636	 0.1412106966	 0.610527179	-0.285174
C	-0.1394784373	 1.262262919	 0.1898792373	 0.361969
C	-1.2881871958	 2.1519423951	-0.2915920371	-0.179536
O	-0.6997731418	 3.3840255649	-0.6653963904	-0.246198
C	 0.5143967656	 3.5317497916	 0.0668238246	-0.115782
C	 1.1274713861	 2.1253892772	 0.1046502536	-0.116839
C	 2.1315093629	 1.8588463719	 1.2357414678	-0.361567
C	 2.8682008937	 0.6071449896	 1.0690456142	 0.278094
N	 3.4854055304	-0.3584249307	 0.9253847664	-0.301381
H	-1.8098457003	 1.7171836081	-1.1494114451	 0.148647
H	-2.0141878876	 2.2684992114	 0.5293221557	 0.129565
H	 1.1274245833	 4.269813494	-0.4539688478	 0.130196
H	 0.3182901417	 3.8979072653	 1.0891382492	 0.100611
H	 1.594411828	 1.9201260565	-0.866852535	 0.138383
H	 2.8631454711	 2.6740069004	 1.281353908	 0.158385
H	 1.6152495236	 1.8385716091	 2.2019471196	 0.160626
55.6124	83.5505	141.1796	208.0758	238.0737	328.9765	379.2238	430.7352	490.3177	578.0586	635.0395	660.1231	732.4795	894.8826	934.2169	946.5563	960.9411	1024.1792	1081.5342	1090.057	1100.7563	1156.5727	1204.2286	1217.8378	1243.9873	1282.0654	1318.9757	1325.9518	1363.9209	1397.42	1461.9611	1475.9882	1517.2099	1864.5796	2368.903	2963.5854	2985.1138	3039.5926	3045.0237	3083.8157	3087.7656	3110.8604
O=C1COCC1CC#N	O=C1COC[C@H]1CC#N	
InChI=1S/C6H7NO2/c7-2-1-5-3-9-4-6(5)8/h5H,1,3-4H2	InChI=1S/C6H7NO2/c7-2-1-5-3-9-4-6(5)8/h5H,1,3-4H2/t5-/m1/s1
