17
gdb 84467	4.05889	1.18067	1.04417	1.3899	80.84	-0.2284	0.0012	0.2296	1151.6337	0.135173	-384.644287	-384.636062	-384.635118	-384.676737	32.233	
O	-0.0723605173	 1.4712147372	-0.0441835849	-0.431379
C	 0.0155433259	 0.0475043855	 0.0154936569	 0.057637
C	 0.6490486204	-0.4649250682	 1.3008508162	-0.119197
C	-0.1585508416	-1.2812327255	 1.9739383288	-0.157338
C	-1.4851294357	-1.4429990732	 1.2871251134	 0.153499
C	-2.2834955687	-0.1410844844	 1.1828936791	-0.297818
C	-1.3890464042	-0.5474700386	 0.0500080083	-0.087269
C	-2.1561231041	-2.7069817903	 1.2907340392	 0.182459
C	-2.7143133707	-3.7727166612	 1.3135326616	-0.408131
H	 0.8239049551	 1.8213933996	-0.0704410211	 0.282876
H	 0.5620403843	-0.3235091902	-0.8662718745	 0.074917
H	 1.6338447637	-0.1440053335	 1.6236916516	 0.095706
H	 0.0568297318	-1.7675857822	 2.9181128113	 0.109747
H	-3.3513905198	-0.2393773118	 1.0242432565	 0.124419
H	-1.9765357563	 0.6807566124	 1.8185142329	 0.131463
H	-1.8469737044	-0.8635198012	-0.8780047736	 0.102727
H	-3.2063782685	-4.7133060945	 1.3274808384	 0.185682
106.6632	136.2147	186.2493	246.8055	279.9938	388.0001	419.8373	489.9148	520.7979	556.6863	577.5216	608.7179	651.6877	720.6806	753.8783	790.7448	850.5142	907.579	950.538	956.0943	960.1437	994.2939	1034.9226	1065.8763	1079.1334	1097.0416	1135.1576	1217.8296	1247.4857	1261.115	1333.8927	1341.0284	1394.8471	1418.9126	1475.9086	1678.6918	2235.8582	2967.5131	3142.1315	3182.4558	3200.0022	3211.6139	3238.984	3503.1475	3816.9559
OC1C=CC2(CC12)C#C	O[C@H]1C=C[C@]2(C[C@@H]12)C#C	
InChI=1S/C8H8O/c1-2-8-4-3-7(9)6(8)5-8/h1,3-4,6-7,9H,5H2	InChI=1S/C8H8O/c1-2-8-4-3-7(9)6(8)5-8/h1,3-4,6-7,9H,5H2/t6-,7-,8-/m0/s1
