20
gdb 73426	2.92571	1.92216	1.41998	1.7412	80.92	-0.2112	0.0686	0.2797	971.168	0.173411	-365.95098	-365.943804	-365.94286	-365.9821	29.9	
C	-0.0128973457	 1.462010857	 0.0616321203	-0.469106
C	-0.0214146985	-0.0533053001	-0.0035727089	 0.323922
C	-1.2796629235	-0.6532939346	-0.6039759254	-0.286805
C	-1.0901337439	-2.1344740819	-0.9660617671	-0.239816
C	 0.0733261275	-2.7590341952	-0.2346489653	-0.011877
C	 0.6866143844	-2.2531403817	 1.0157088617	-0.071476
C	 0.6702057955	-0.7223856164	 1.1625418998	-0.132983
C	 1.3488389874	-0.6666490432	-0.1863522048	-0.064635
N	 1.4368445	-2.1790263022	-0.292842596	-0.173698
H	 0.9010466679	 1.840399251	 0.5309955828	 0.116949
H	-0.0809505897	 1.89714059	-0.9418316926	 0.118109
H	-0.8646407263	 1.8312847709	 0.6449027671	 0.117636
H	-2.0958667579	-0.5337830979	 0.1197143288	 0.099374
H	-1.5721340748	-0.0825898128	-1.4925664859	 0.097697
H	-1.9995296507	-2.7068707325	-0.7548571863	 0.104308
H	-0.8996681679	-2.2455754175	-2.0406149887	 0.110435
H	 0.1398026453	-3.8392422093	-0.3547084974	 0.092679
H	 1.0300923608	-2.910627212	 1.8089759588	 0.091091
H	 0.915782557	-0.2053547144	 2.0812314975	 0.085921
H	 2.209115343	-0.1024801174	-0.5261545484	 0.092274
131.5123	222.2762	257.5715	312.0237	372.2399	480.6653	495.2718	504.4882	644.5324	691.8065	709.5842	771.5932	801.6688	839.8513	877.0088	898.6301	902.718	931.3805	979.7662	996.6626	1029.973	1040.4948	1057.7708	1070.5162	1079.2798	1102.4734	1132.8254	1164.4069	1222.965	1239.7206	1254.8354	1267.5169	1294.5717	1333.2596	1350.6846	1387.7945	1409.5069	1420.2195	1442.2744	1483.7304	1493.2989	1499.6129	1507.0624	3017.8737	3022.9335	3027.4439	3053.2143	3072.5809	3084.0433	3097.7429	3119.0628	3148.0009	3175.8595	3193.7122
CC12CCC3C4C1C2N34	C[C@]12CC[C@@H]3[C@@H]4[C@H]1[C@H]2N34	
InChI=1S/C8H11N/c1-8-3-2-4-6-5(8)7(8)9(4)6/h4-7H,2-3H2,1H3	InChI=1S/C8H11N/c1-8-3-2-4-6-5(8)7(8)9(4)6/h4-7H,2-3H2,1H3/t4-,5+,6-,7-,8+,9?/m1/s1
