17
gdb 48944	3.81863	1.41675	1.23075	2.0162	72.45	-0.2467	-0.0331	0.2136	1008.0911	0.136257	-421.784496	-421.777448	-421.776504	-421.816115	27.728	
O	-0.0314261461	-0.055744521	-0.0770299171	-0.251363
C	 0.0452704688	 1.1231604117	 0.1680845044	 0.055212
C	 1.2930193781	 1.934970279	 0.0720442138	 0.23394
C	 1.4870667935	 3.1307093884	 1.0498332333	-0.303274
C	 2.1037138207	 3.9650849538	-0.0945016111	 0.112266
O	 3.4582317344	 3.56175471	-0.3879026695	-0.303733
C	 3.0006330244	 2.4416836327	-1.1837073124	 0.108251
C	 2.620321962	 1.2323032509	-0.3041193264	-0.294675
C	 1.5373311565	 2.9617993595	-1.1339401873	-0.145679
H	-0.8589191298	 1.7045966992	 0.4678416519	 0.068321
H	 0.5155041159	 3.545665236	 1.3444266283	 0.106387
H	 2.1000064392	 2.9643831163	 1.9391356454	 0.114959
H	 1.9887831043	 5.0502474807	-0.0956833559	 0.085838
H	 3.6115259728	 2.2978766008	-2.0761475247	 0.087049
H	 3.3089640577	 0.9727343559	 0.503370811	 0.109875
H	 2.407416786	 0.3457275953	-0.9083848721	 0.127202
H	 0.8644008114	 3.1565457807	-1.9643987616	 0.089424
82.2735	190.17	237.5022	325.9498	353.7676	437.14	479.5061	651.8275	706.3141	757.7584	808.1765	824.1746	839.5998	860.5241	911.5102	955.2527	964.9956	967.243	988.6795	1016.6298	1066.3252	1094.4475	1133.0653	1157.6658	1160.6499	1176.0529	1217.7697	1245.4876	1259.7675	1271.6023	1293.9431	1321.0602	1351.1041	1424.5468	1462.0463	1473.2186	1812.835	2849.3077	3035.5322	3061.4029	3095.6906	3100.108	3107.6254	3122.6168	3156.8368
O=CC12CC3OC(C1)C23	O=C[C@@]12C[C@H]3O[C@@H](C1)[C@@H]23	
InChI=1S/C7H8O2/c8-3-7-1-4-6(7)5(2-7)9-4/h3-6H,1-2H2	InChI=1S/C7H8O2/c8-3-7-1-4-6(7)5(2-7)9-4/h3-6H,1-2H2/t4-,5+,6+,7-
