15
gdb 19000	5.05286	1.98099	1.71729	3.2788	65.24	-0.2428	-0.025	0.2178	761.6247	0.121028	-362.611793	-362.606109	-362.605164	-362.641469	23.037	
O	 0.0138330956	 0.0200730417	-0.0532587671	-0.318462
C	-0.0120697297	 1.219699652	-0.0038682596	 0.4367
C	-1.2185577192	 2.1711670738	 0.0306972717	-0.367375
C	-0.4432307531	 3.4761256423	 0.0095092779	 0.021087
C	 0.7977559737	 3.3909959222	-0.9242409175	-0.075676
C	 1.5096313287	 4.2749993	 0.1038404876	-0.169781
N	 0.7310726324	 3.3176330239	 1.0142098527	-0.160723
C	 1.1443736951	 2.1949000762	 0.0150073241	-0.106692
H	-1.8773597337	 2.0245311316	-0.8303828179	 0.131439
H	-1.8033372904	 2.0332744363	 0.945461486	 0.141289
H	-0.9847080278	 4.4187675997	 0.0997186436	 0.08532
H	 0.8374350549	 3.4149868423	-2.0190210785	 0.076676
H	 2.5942581892	 4.1855374661	 0.2040708813	 0.109255
H	 1.1898408736	 5.3174987097	 0.1980068688	 0.104285
H	 2.1582846707	 1.8095601021	 0.109416847	 0.092657
139.9523	323.3385	371.6001	510.7319	582.6361	607.6059	680.3099	717.8567	772.4717	848.1189	854.9053	892.5954	927.6875	945.6456	964.0366	1009.66	1055.1232	1091.7667	1106.5891	1120.5765	1126.6533	1168.6082	1202.7195	1218.9129	1246.195	1262.2839	1270.8572	1275.747	1355.51	1446.2729	1530.5163	1870.5413	3037.9121	3051.9164	3060.0368	3107.8307	3111.7518	3114.327	3143.2009
O=C1CC2C3CN2C13	O=C1C[C@@H]2[C@H]3CN2[C@@H]13	
InChI=1S/C6H7NO/c8-5-1-4-3-2-7(4)6(3)5/h3-4,6H,1-2H2	InChI=1S/C6H7NO/c8-5-1-4-3-2-7(4)6(3)5/h3-4,6H,1-2H2/t3-,4-,6-/m1/s1
