18
gdb 41796	2.38461	2.09448	1.5451	2.6211	71.24	-0.2412	0.0261	0.2673	917.2157	0.151351	-439.103828	-439.096872	-439.095928	-439.13527	27.463	
C	-0.0868324639	 1.5149011994	-0.2531488418	-0.07912
O	 1.2484384973	 2.0314490767	-0.1514610853	-0.252836
C	 2.1577386027	 0.9918703035	 0.0722627846	 0.220862
C	 1.4602923212	-0.2870161051	-0.3847731508	-0.273335
C	 0.0083910348	 0.0038447315	 0.0227017239	-0.060852
C	-0.2590079325	-0.3566893997	 1.4916852283	-0.164995
N	 0.5634284317	 0.2062082565	 2.5409266827	-0.25866
C	 1.715063655	 0.7102844943	 2.4619028814	 0.12863
O	 2.5803004307	 0.9610501786	 1.4390791895	-0.234374
H	-0.7262122476	 2.0365123729	 0.4671684696	 0.115988
H	-0.4609614873	 1.7212924791	-1.2634937467	 0.102276
H	 3.0829709299	 1.2197524349	-0.4607309863	 0.098676
H	 1.5580861568	-0.3744212654	-1.4713318443	 0.112482
H	 1.8827278829	-1.1817972058	 0.0765698821	 0.118695
H	-0.7090864664	-0.5481047436	-0.5917492877	 0.079336
H	-1.2995033378	-0.0993410842	 1.7295259878	 0.112072
H	-0.1992549007	-1.449731678	 1.5966077347	 0.11545
H	 2.2069176032	 1.0239940744	 3.3834153882	 0.119704
112.3394	132.1848	286.2337	331.8261	416.1892	429.2432	511.1134	539.4473	731.0596	746.0989	797.1877	837.5997	853.0092	917.8125	929.248	945.5481	971.3328	978.5805	1010.1709	1031.8775	1074.1519	1101.1384	1112.2847	1153.7274	1190.8632	1227.2778	1233.611	1298.0069	1324.2285	1346.2937	1350.6435	1382.6621	1411.3378	1413.9983	1445.8852	1474.9632	1484.7816	1525.4344	1767.5237	3004.0646	3021.8918	3033.8862	3056.9748	3067.4423	3072.9733	3100.1228	3120.7133	3130.6111
C1OC2CC1CN=CO2	C1O[C@@H]2C[C@H]1CN=CO2	
InChI=1S/C6H9NO2/c1-5-2-7-4-9-6(1)8-3-5/h4-6H,1-3H2	InChI=1S/C6H9NO2/c1-5-2-7-4-9-6(1)8-3-5/h4-6H,1-3H2/t5-,6-/m0/s1
