15
gdb 124772	3.7042	1.22627	0.99819	3.7913	69.25	-0.2704	-0.0991	0.1713	1145.6012	0.111041	-450.068639	-450.060414	-450.05947	-450.102441	29.473	
C	 0.095604379	 1.4100371876	-0.3796474268	-0.399304
C	 0.0411853406	 0.0005606654	 0.2375508218	 0.061796
O	 0.480922834	 0.0242123082	 1.5700213325	-0.433449
C	-1.354037027	-0.5768058314	 0.1245101399	 0.353678
C	-1.975542358	-0.929595999	-1.0769923814	-0.008935
N	-3.2020447338	-1.416517128	-1.0832304114	-0.161276
N	-3.8396453479	-1.5523349913	 0.086484698	-0.051705
N	-3.2675418368	-1.2303737937	 1.2164341986	-0.05271
N	-2.0246678434	-0.7488030671	 1.2531904854	-0.263743
H	 1.1100040498	 1.7997530966	-0.2698619166	 0.145424
H	-0.1606736418	 1.3995255022	-1.4440338252	 0.117406
H	-0.5925151681	 2.0795628258	 0.1443993105	 0.135261
H	 0.7124471702	-0.6551070985	-0.3398802401	 0.105335
H	-0.2900919599	-0.1490430587	 2.1308711852	 0.302516
H	-1.4842855371	-0.8311209282	-2.0415849905	 0.149706
29.8508	110.8071	207.588	236.1799	271.8625	313.2489	356.5757	372.9456	473.3713	551.4707	652.3537	686.4518	813.8684	842.3213	890.2547	925.7068	964.4323	1035.792	1079.7995	1092.7455	1092.9792	1153.3983	1210.8496	1258.7096	1309.1633	1350.6738	1368.6714	1400.9265	1438.0454	1488.2608	1494.6594	1531.4826	1584.102	2980.4224	3041.9869	3117.6952	3135.791	3168.3744	3707.684
CC(O)C1=CN=NN=N1	C[C@@H](O)c1cnnnn1	
InChI=1S/C4H6N4O/c1-3(9)4-2-5-7-8-6-4/h2-3,9H,1H3	InChI=1S/C4H6N4O/c1-3(9)4-2-5-7-8-6-4/h2-3,9H,1H3/t3-/m1/s1
