19
gdb 118027	3.38815	0.82899	0.78896	6.0637	72.46	-0.2594	0.0293	0.2887	1489.2721	0.158921	-456.342604	-456.332578	-456.331634	-456.377979	36.314	
N	 0.572873491	 1.377292422	-0.2687899433	-0.541087
C	 0.0956466334	 0.0017430804	-0.0933498666	 0.005798
C	 0.5809463925	-0.8948768666	-1.2411329171	-0.190078
C	-0.0749626241	-0.6124799781	-2.589346768	-0.097666
O	 0.371873995	 0.6545801269	-3.0694100935	-0.408996
C	 0.6947968852	-0.4894375507	 1.2563956463	-0.010528
O	 2.0772876334	-0.2535822489	 1.2913230098	-0.414441
C	 0.0004413985	 0.1936892364	 2.3774551571	 0.260864
N	-0.5541770131	 0.7507329826	 3.2250049388	-0.329338
H	 0.5288183854	 1.6387661946	-1.248212801	 0.256815
H	 0.0096241417	 2.0266940177	 0.2706556517	 0.244897
H	-1.0015422613	-0.0751005713	-0.0281780481	 0.079697
H	 1.6673439002	-0.8028463247	-1.3394548812	 0.130482
H	 0.3681391181	-1.9385871219	-0.9826981042	 0.106141
H	 0.1989570135	-1.4082818663	-3.2973503551	 0.101152
H	-1.1712530842	-0.6264359876	-2.4833801934	 0.094196
H	-0.1009810226	 0.8608545663	-3.8809224096	 0.294949
H	 0.5303237589	-1.5663994312	 1.3724005874	 0.123189
H	 2.1710827984	 0.6066728804	 0.8406480602	 0.293954
53.2934	81.443	125.0649	176.6522	210.9879	263.5795	285.1015	302.4288	325.9536	366.7599	402.1362	473.7916	509.939	589.9639	650.2502	748.8379	836.5083	856.9625	891.4916	932.6395	965.2366	982.2393	1062.4166	1083.2252	1090.2046	1145.9537	1177.0558	1238.1152	1252.9012	1291.2766	1303.1399	1328.9238	1358.1304	1376.6198	1417.0029	1454.3836	1457.0001	1466.952	1522.0554	1659.3007	2348.1232	2969.8962	2977.8009	3011.8406	3047.4815	3058.6148	3098.6314	3501.1085	3587.7742	3607.1346	3833.8347
NC(CCO)C(O)C#N	N[C@@H](CCO)[C@@H](O)C#N	
InChI=1S/C5H10N2O2/c6-3-5(9)4(7)1-2-8/h4-5,8-9H,1-2,7H2	InChI=1S/C5H10N2O2/c6-3-5(9)4(7)1-2-8/h4-5,8-9H,1-2,7H2/t4-,5-/m0/s1
