17
gdb 69574	2.8708	1.48992	1.18169	2.9533	74.42	-0.2325	-0.0116	0.221	1068.394	0.134603	-421.794785	-421.786514	-421.78557	-421.827448	31.576	
O	-0.0347827006	 1.4292437054	-0.0075487472	-0.447385
C	 0.0055427719	 0.0570688834	 0.0690116276	 0.285589
C	-0.2905503359	-0.8351202392	-1.1342831766	-0.349666
C	-1.1863211832	-0.9310148161	 0.0619481312	-0.229214
C	-0.4948597796	-1.7785178314	 1.1192248637	 0.26741
C	-1.0760579912	-2.4345282573	 2.3417998357	-0.33094
C	-0.4059858875	-3.2714898569	 1.2842472851	-0.32106
C	 0.63216114	-0.7602406623	 1.1810418031	 0.287906
O	 1.5498442384	-0.5858218379	 1.9338436433	-0.335356
H	 0.7373226544	 1.733487004	-0.4975208224	 0.298169
H	-0.6823936273	-0.2657717215	-1.9722081639	 0.125144
H	 0.3587372335	-1.6634566696	-1.403367422	 0.122706
H	-2.2358303843	-0.6693563784	 0.0476216323	 0.116167
H	-0.5520501184	-2.2699801647	 3.2774402838	 0.13789
H	-2.1570036152	-2.478304664	 2.421951013	 0.122467
H	-1.0324766353	-3.8858691792	 0.6459967931	 0.120571
H	 0.5700784103	-3.6899738743	 1.5071103101	 0.129602
97.383	180.1106	186.2566	206.2424	226.3696	294.3438	371.1907	441.1787	513.4441	533.378	657.5303	742.4051	759.191	794.0183	850.4285	861.8749	919.1937	932.8457	956.921	960.7119	999.0916	1013.1157	1057.586	1063.2991	1082.1589	1086.505	1192.2392	1194.7668	1232.922	1251.6105	1284.4847	1391.3037	1408.4401	1457.4061	1484.1485	1498.4038	1875.3417	3113.7154	3128.1076	3131.9627	3203.4831	3211.2806	3213.0652	3226.2096	3798.1491
OC12CC1C1(CC1)C2=O	O[C@]12C[C@H]1C1(CC1)C2=O	
InChI=1S/C7H8O2/c8-5-6(1-2-6)4-3-7(4,5)9/h4,9H,1-3H2	InChI=1S/C7H8O2/c8-5-6(1-2-6)4-3-7(4,5)9/h4,9H,1-3H2/t4-,7+/m0/s1
