18
gdb 126729	5.30562	0.88777	0.81428	3.0402	76.39	-0.2181	0.0038	0.2219	1452.1841	0.14779	-435.261336	-435.252274	-435.251329	-435.296197	31.894	
C	-0.3894895313	 1.4411630474	 0.2170676918	-0.378429
C	 0.2397111898	 0.0736016384	-0.0515407144	-0.142385
N	 0.8026098557	-0.5325466035	 1.1461143494	 0.089124
C	 0.1558767384	-1.1099171893	 2.1925167957	-0.230314
C	 1.1813967814	-1.4525090168	 3.0501886093	 0.403627
O	 1.0560519944	-2.0642770617	 4.2374592194	-0.270798
C	 2.2772956427	-2.3163101853	 4.9313639362	-0.237733
N	 2.3625026906	-1.0788059657	 2.5060242799	-0.287032
N	 2.1258586859	-0.5151483492	 1.3428412801	-0.163513
H	 0.3533263109	 2.1302699108	 0.627355221	 0.14543
H	-0.7758166967	 1.8616667658	-0.7160078212	 0.127288
H	-1.2192170567	 1.3658544034	 0.9257800551	 0.128946
H	-0.4947194819	-0.6196986385	-0.473725644	 0.125839
H	 1.070570378	 0.1574477535	-0.7548576841	 0.147665
H	-0.9115624599	-1.2310834779	 2.2400485537	 0.142014
H	 2.8079497287	-1.3834519231	 5.1465150069	 0.136527
H	 1.9921164035	-2.8105510084	 5.8610015775	 0.126975
H	 2.9368723867	-2.9642382198	 4.3454826775	 0.136769
42.4835	72.5695	124.4501	174.611	192.7346	240.8904	304.9457	356.6541	441.4744	503.5126	639.8428	684.0045	703.9499	746.0111	752.7665	795.9996	972.3702	1019.7065	1053.9644	1073.4167	1097.7696	1104.2999	1181.0421	1182.9604	1214.0207	1257.8793	1272.3714	1354.1982	1388.8299	1399.8567	1410.9827	1472.6607	1479.4724	1480.7787	1490.217	1497.1987	1503.9823	1506.1178	1624.1689	3035.4877	3046.5484	3059.4237	3103.3012	3112.389	3124.6506	3136.4432	3145.0676	3293.7442
CCN1C=C(OC)N=N1	CCn1cc(OC)nn1	
InChI=1S/C5H9N3O/c1-3-8-4-5(9-2)6-7-8/h4H,3H2,1-2H3	InChI=1S/C5H9N3O/c1-3-8-4-5(9-2)6-7-8/h4H,3H2,1-2H3
