19
gdb 42010	3.15027	1.58304	1.14924	2.1046	77.25	-0.2153	0.0335	0.2487	1074.4347	0.163305	-419.225022	-419.217549	-419.216605	-419.257058	29.366	
C	 0.0628358124	 1.3743822507	-0.2337329647	-0.164118
C	 1.5309548351	 1.828844261	-0.0295077381	-0.245167
C	 2.0812937639	 0.7029594185	 0.8543949233	 0.060215
O	 3.4747273327	 0.4290969977	 0.7210694178	-0.27712
C	 3.7700336617	-0.8483820671	 0.1838287033	-0.074727
C	 2.9826488506	-1.953408398	 0.8908496953	-0.173078
N	 1.5469278494	-1.7085277538	 0.7462424676	-0.364767
C	 1.1549876738	-0.4340953491	 0.4462450919	 0.357147
N	 0.0634139571	-0.0940769083	-0.1276523651	-0.321497
H	-0.5942055154	 1.8062380985	 0.5350438646	 0.099804
H	-0.3451373459	 1.6808655103	-1.2022234576	 0.102919
H	 2.0728332913	 1.8212625445	-0.9812993179	 0.109582
H	 1.6313470966	 2.8213104028	 0.414966822	 0.100337
H	 1.9086937895	 0.9267999718	 1.9181242924	 0.099048
H	 3.5504241995	-0.8852443976	-0.8957619928	 0.099469
H	 4.8457129384	-0.994114956	 0.319160985	 0.113056
H	 3.2307509288	-2.9254732051	 0.4531757793	 0.114129
H	 3.2693848085	-1.9847933081	 1.9506696196	 0.117794
H	 0.9772037218	-2.4391494528	 0.3470550841	 0.246974
91.0668	125.7546	259.8274	291.0286	385.605	407.2151	471.5549	504.7147	538.6464	634.6091	674.5453	708.8961	812.2787	855.3109	884.4946	940.8193	952.6526	978.4704	1024.8339	1054.4343	1080.6598	1099.598	1137.3779	1147.2948	1177.6206	1220.1582	1267.9071	1284.8407	1292.14	1302.0895	1332.7124	1359.8651	1370.9965	1406.821	1423.2178	1452.8778	1487.8639	1499.9236	1504.3397	1512.0045	1728.7602	2972.958	2987.805	3001.7191	3014.6828	3052.9001	3068.2005	3079.6398	3088.3055	3115.0213	3615.4583
C1CC2OCCNC2=N1	C1C[C@@H]2OCCN[C]2[N]1	
InChI=1S/C6H10N2O/c1-2-7-6-5(1)9-4-3-8-6/h5H,1-4H2,(H,7,8)	InChI=1S/C6H10N2O/c1-2-7-6-5(1)9-4-3-8-6/h5H,1-4H2,(H,7,8)/t5-/m0/s1
