16
gdb 28555	2.43465	1.75306	1.02764	1.0853	75.37	-0.1946	-0.0426	0.152	1104.8859	0.125224	-434.128044	-434.11968	-434.118736	-434.160744	31.178	
C	-0.0325417925	 1.4821693696	 0.0458069272	-0.504897
C	-0.0205063886	-0.0068456387	-0.0306709242	 0.34799
N	 0.0015564651	-0.7136100421	-1.114493977	-0.290356
C	 0.0072483563	-2.0537782484	-0.7339689496	-0.17784
C	-0.0125156889	-2.1702218147	 0.6246950406	 0.325352
N	-0.1036984755	-3.2482116833	 1.4805576185	-0.607652
N	-0.0277105848	-0.8478411308	 1.1086558516	-0.147383
C	 0.0474725623	-0.4437830684	 2.4268260562	 0.182063
O	 0.140155283	-1.1889358409	 3.3754380892	-0.314146
H	 0.8481647826	 1.88680763	 0.5589313068	 0.134526
H	-0.0335502833	 1.8605215938	-0.9773344217	 0.161534
H	-0.9218405327	 1.8703259201	 0.5563230173	 0.135996
H	 0.0156068651	-2.8457654411	-1.465719295	 0.106297
H	 0.2588067497	-4.1084951284	 1.0982644451	 0.256425
H	 0.1988224026	-3.0538613605	 2.4256050154	 0.276606
H	 0.0188361894	 0.652759554	 2.5291382295	 0.115484
111.1015	174.7106	185.3876	241.5872	249.1992	300.9739	330.5815	374.7775	438.2359	522.8334	613.8494	628.6804	668.9632	692.1946	755.1574	783.5538	831.6674	993.0594	1037.476	1053.8807	1060.8692	1123.141	1151.9644	1276.2607	1320.2161	1350.7492	1411.6735	1437.5639	1455.3004	1481.7178	1486.9833	1606.3517	1619.1106	1661.9386	1800.3546	3014.3894	3025.6633	3071.8837	3146.1139	3259.0183	3550.2106	3667.4215
CC1=NC=C(N)N1C=O	Cc1ncc(N)n1C=O	
InChI=1S/C5H7N3O/c1-4-7-2-5(6)8(4)3-9/h2-3H,6H2,1H3	InChI=1S/C5H7N3O/c1-4-7-2-5(6)8(4)3-9/h2-3H,6H2,1H3
