16
gdb 28362	3.21067	1.39515	0.97836	2.5887	77.23	-0.2078	-0.0186	0.1893	1152.8068	0.12658	-434.132955	-434.125068	-434.124124	-434.165189	30.327	
C	-0.0311673077	 1.5086998786	 0.0204288258	-0.475024
C	-0.0078820916	 0.0104966033	-0.0109857384	 0.244164
C	-0.0334656923	-0.7149491138	-1.1572796213	-0.097322
N	-0.0134774437	-2.0947074286	-1.2392423922	-0.399064
C	 0.0335233721	-2.7066955177	-0.1056838842	 0.508372
O	 0.0579481172	-4.0462916551	-0.0307164451	-0.408036
N	 0.0629973005	-2.0992353277	 1.1059752136	-0.407633
C	 0.045276415	-0.6950751243	 1.2636772808	 0.308691
N	 0.0724551937	-0.0924886055	 2.3942924249	-0.548731
H	 0.8565435135	 1.9022534198	 0.5269071474	 0.139791
H	-0.0744668002	 1.9209464907	-0.9911360268	 0.111148
H	-0.8921778214	 1.8735049906	 0.5904143802	 0.13996
H	-0.0732191516	-0.2079325968	-2.1172363358	 0.108422
H	 0.0332832517	-4.361078025	-0.9453161844	 0.315881
H	 0.0994554599	-2.681628728	 1.9306455829	 0.262593
H	 0.1086613349	-0.7453713305	 3.1781591927	 0.196788
129.0469	157.4297	170.3455	288.0749	336.335	355.7422	425.1587	468.4349	523.967	548.3224	583.9902	603.1888	726.9096	754.8305	770.9522	784.2918	807.6652	955.3999	994.0055	1043.5999	1073.2753	1091.1029	1191.2956	1204.1014	1279.7031	1312.5454	1357.7267	1413.0768	1422.2235	1465.8905	1488.4684	1551.4414	1629.854	1669.9965	1723.2462	3035.678	3090.1908	3118.5742	3169.0812	3462.6691	3607.6975	3776.7684
CC1=CN=C(O)NC1=N	CC1=C(NC(=NC1)O)[NH]	
InChI=1S/C5H7N3O/c1-3-2-7-5(9)8-4(3)6/h2H,1H3,(H3,6,7,8,9)	InChI=1S/C5H8N3O/c1-3-2-7-5(9)8-4(3)6/h6H,2H2,1H3,(H2,7,8,9)
