18
gdb 30877	3.02526	1.23525	0.91706	1.8419	77.22	-0.1779	0.0438	0.2217	1286.5492	0.147687	-435.295413	-435.285632	-435.284687	-435.330635	34.444	
C	 0.0655576209	 0.8029922269	-0.6646534724	-0.257086
O	-0.2970858863	 0.6090506232	 0.7067513584	-0.278972
C	 0.4783939364	-0.2802437749	 1.368959451	 0.322226
C	 0.870197689	-1.5754741493	 1.1414494484	 0.123877
N	 0.5925041908	-2.3748816664	 0.009142361	-0.606753
N	 1.6511774643	-2.0150927931	 2.1884129108	-0.336766
C	 1.7246159966	-1.020298705	 3.0484348395	 0.333226
C	 2.4595421425	-1.037173723	 4.3459984276	-0.497844
N	 1.0184835707	 0.0599450887	 2.5963153856	-0.34781
H	 0.0727917511	-0.1484557406	-1.2053304761	 0.150553
H	-0.6852464327	 1.4730521809	-1.0876485931	 0.125601
H	 1.0573807374	 1.2651214279	-0.7410583859	 0.116424
H	-0.3714948391	-2.69462656	 0.0040569788	 0.2403
H	 1.1836454691	-3.1988795183	 0.0439882117	 0.242742
H	 3.2408648709	-0.2686565765	 4.3896683208	 0.12689
H	 1.7908740026	-0.875138047	 5.2000404956	 0.127735
H	 2.9323892089	-2.0134078673	 4.462076163	 0.153826
H	 0.893156987	 0.9499437238	 3.0488943852	 0.261829
43.2388	90.1629	143.9612	172.715	175.7828	213.3783	274.8585	287.2097	307.7644	434.1196	482.1412	516.0277	612.0569	660.4818	692.7503	714.4907	809.7448	875.8485	993.911	1022.0273	1052.2357	1059.8113	1127.9589	1183.8445	1204.3013	1212.5117	1265.5155	1325.8339	1407.5313	1422.0793	1449.3948	1481.6998	1483.7352	1494.1274	1506.593	1513.732	1569.9187	1641.2903	1681.1306	3019.8895	3023.1076	3069.1104	3093.9232	3136.8602	3144.477	3492.5216	3577.9637	3663.2423
COC1=C(N)N=C(C)N1	COc1c(N)nc(C)[nH]1	
InChI=1S/C5H9N3O/c1-3-7-4(6)5(8-3)9-2/h6H2,1-2H3,(H,7,8)	InChI=1S/C5H9N3O/c1-3-7-4(6)5(8-3)9-2/h6H2,1-2H3,(H,7,8)
