18
gdb 10217	3.23318	1.08997	0.86948	2.3036	64.82	-0.2443	-0.0217	0.2226	1298.625	0.150778	-422.070526	-422.06058	-422.059636	-422.106143	33.545	
O	 0.0020949253	 1.3690702075	 0.1129297293	-0.422494
C	 0.0792346505	-0.0495847169	 0.0788714888	-0.086396
C	-1.3390976893	-0.5734649732	-0.123717526	-0.186503
C	-1.4576179842	-2.0983487663	-0.0371468299	-0.089648
C	-2.916483596	-2.5552228067	 0.1355340326	-0.100745
O	-2.9106915788	-3.9471162868	 0.4134373758	-0.421424
C	-0.8444876957	-2.821102512	-1.2269761219	 0.152969
O	-0.2428756639	-2.2830806082	-2.124054402	-0.249912
H	 0.8973024959	 1.7176903445	 0.0803678905	 0.28607
H	 0.7221329948	-0.3987344554	-0.7381103673	 0.115653
H	 0.4876262225	-0.4445998872	 1.0251804068	 0.076579
H	-1.9768983345	-0.1142828938	 0.6406834086	 0.103181
H	-1.7013556022	-0.2267957834	-1.0973302442	 0.117935
H	-0.9263690198	-2.4746033424	 0.851787765	 0.106858
H	-3.3710612176	-1.9842818334	 0.9588690935	 0.100792
H	-3.489246088	-2.3285402131	-0.7776956638	 0.100728
H	-3.8185530394	-4.2638223725	 0.4078188713	 0.293042
H	-1.0055005697	-3.9186023307	-1.2220991468	 0.103316
68.4417	79.909	96.095	114.5927	162.8531	223.9549	241.7672	255.3848	301.5536	343.088	412.2614	502.5778	648.3372	805.3739	837.252	914.2391	982.1555	1012.3612	1041.475	1074.1549	1088.4785	1136.6946	1151.0837	1205.6374	1227.0249	1248.8709	1273.8665	1300.023	1315.5196	1353.4208	1370.6013	1420.3262	1449.2548	1459.5	1484.4352	1526.03	1531.8617	1819.6614	2929.6228	2952.6563	2973.057	2991.3854	3010.8474	3037.0785	3050.1126	3089.4421	3833.9055	3835.49
OCCC(CO)C=O	OCC[C@@H](CO)C=O	
InChI=1S/C5H10O3/c6-2-1-5(3-7)4-8/h3,5-6,8H,1-2,4H2	InChI=1S/C5H10O3/c6-2-1-5(3-7)4-8/h3,5-6,8H,1-2,4H2/t5-/m1/s1
