22
gdb 54140	2.29772	1.33593	1.16109	2.5251	83.03	-0.2296	-0.0109	0.2187	1228.6538	0.190282	-404.357797	-404.346904	-404.34596	-404.39333	39.856	
C	 0.7614993994	 1.1069985333	 0.1769403122	-0.470956
C	-0.2959850258	 0.048033924	-0.0531374155	 0.338353
O	-1.2138692429	-0.131345581	 0.7168033613	-0.316821
C	-0.2258935268	-0.7689176685	-1.338150769	 0.16318
C	-1.5048323668	-0.6218870175	-2.1436283028	-0.473822
N	 1.0939739243	-0.804856416	-1.9985701793	-0.413613
C	 0.5903497052	-2.0318743145	-1.3427774019	 0.300946
C	 1.3484759176	-2.455638083	-0.0967343266	-0.439121
C	 0.185276843	-3.2146154174	-2.202708105	-0.465199
H	 1.7679692064	 0.6901461054	 0.1022222152	 0.155329
H	 0.6924138384	 1.8583433097	-0.6193852303	 0.13883
H	 0.6010246945	 1.5803539126	 1.146318734	 0.131453
H	-1.6353677811	 0.419075523	-2.4620317104	 0.122879
H	-1.5079196959	-1.2442077064	-3.0401218714	 0.113503
H	-2.3641743541	-0.8894224468	-1.523905951	 0.151655
H	 0.9736190393	-0.8726033373	-3.0074571219	 0.222782
H	 1.7005246654	-1.6007715266	 0.4818793467	 0.126106
H	 0.7115865324	-3.066610381	 0.5516564771	 0.127323
H	 2.2234115066	-3.0542773902	-0.3732510137	 0.1161
H	 1.0748814388	-3.7961574975	-2.4713044549	 0.124672
H	-0.4899655194	-3.8823330458	-1.6566648702	 0.130819
H	-0.3091850285	-2.9213965886	-3.1308820025	 0.1156
59.7755	114.8244	151.1967	160.4741	171.7165	189.49	202.8537	264.8169	303.6389	326.7991	382.1348	399.2175	477.8947	508.8258	537.449	594.2076	652.058	715.211	825.4735	884.0295	953.8232	963.6717	987.4121	994.6337	1030.2744	1041.0992	1077.4387	1105.9819	1143.5776	1170.9005	1186.3379	1296.2687	1337.4203	1380.1435	1400.1764	1405.7072	1413.8349	1425.8179	1455.6436	1463.709	1474.1293	1483.6615	1488.9041	1498.3024	1503.0994	1521.2962	1796.1256	3031.8387	3037.7081	3039.8457	3041.4725	3089.7073	3098.5293	3104.9662	3112.509	3123.3915	3140.4904	3141.796	3161.1118	3479.4645
CC(=O)C1(C)NC1(C)C	CC(=O)[C@@]1(C)NC1(C)C	
InChI=1S/C7H13NO/c1-5(9)7(4)6(2,3)8-7/h8H,1-4H3	InChI=1S/C7H13NO/c1-5(9)7(4)6(2,3)8-7/h8H,1-4H3/t7-/m1/s1
