22
gdb 39496	2.32585	1.67965	1.16584	1.0019	82.	-0.2169	0.0866	0.3035	1127.8139	0.196911	-404.306495	-404.298366	-404.297421	-404.338909	32.592	
C	 0.0235112078	 1.4883626464	-0.0126794507	-0.25953
C	 1.2745754628	 0.6707377909	-0.0267920987	 0.021584
C	 2.251975616	 0.754380254	 1.1331517267	-0.229724
C	 2.9380691444	-0.572877511	 1.4909233347	-0.204362
C	 1.9668809594	-1.7254407969	 1.7535375445	-0.061518
O	 1.0269484513	-1.4828215405	 2.7873963924	-0.265648
C	-0.1040992174	-0.661538211	 2.5238185811	-0.065752
C	-0.6682731642	-0.7018504042	 1.0977257556	-0.18225
N	-0.0455876254	 0.0406618901	 0.0009497782	-0.077794
H	-0.1778587905	 2.0327581234	 0.9113923218	 0.100719
H	-0.3523230958	 1.9785257331	-0.9091011165	 0.10878
H	 1.7708255928	 0.5221844475	-0.9874772158	 0.08642
H	 3.019123777	 1.4880373509	 0.8547468667	 0.098842
H	 1.76240133	 1.1620057535	 2.0209002982	 0.107976
H	 3.6064442244	-0.881764019	 0.675129687	 0.093299
H	 3.5678166786	-0.4206964267	 2.3750140749	 0.101389
H	 1.4631195127	-2.0092071958	 0.820042202	 0.104677
H	 2.5304436901	-2.60331681	 2.0875476159	 0.103478
H	-0.8883379503	-1.0431399281	 3.1894452816	 0.104204
H	 0.0856138563	 0.3768211726	 2.8321326983	 0.088356
H	-0.7294181859	-1.7539189471	 0.7912742693	 0.118524
H	-1.7037830541	-0.345794192	 1.1557763429	 0.108331
90.1296	189.8688	239.3295	245.4505	286.8324	348.191	382.6617	418.6647	496.6099	522.2297	600.8465	683.5546	767.4348	792.4447	825.0811	864.9099	903.6661	951.5782	970.4732	998.0652	1039.8541	1073.1602	1076.0997	1097.5437	1116.6175	1134.4168	1141.9513	1163.6767	1164.4099	1225.8953	1259.0799	1271.5562	1324.1502	1331.3805	1350.749	1359.0408	1381.8163	1388.9724	1406.9191	1424.8278	1428.6699	1474.4817	1477.2269	1484.8907	1507.9165	1514.0952	1522.2996	2991.9325	3011.5767	3017.4207	3022.4025	3032.8089	3043.8874	3059.2468	3061.967	3068.8917	3073.4071	3079.7121	3101.0355	3150.1104
C1C2CCCOCCN12	C1[C@H]2CCCOCCN12	
InChI=1S/C7H13NO/c1-2-7-6-8(7)3-5-9-4-1/h7H,1-6H2	InChI=1S/C7H13NO/c1-2-7-6-8(7)3-5-9-4-1/h7H,1-6H2/t7-,8?/m1/s1
