14
gdb 10004	2.69503	1.29615	0.91894	0.9119	76.83	-0.2546	0.0323	0.2869	1241.0684	0.102752	-308.160558	-308.151172	-308.150228	-308.196078	32.217	
C	-0.0031024262	 1.504024537	 0.0433093412	-0.498764
C	-0.0168687822	 0.0493617316	 0.0060541286	 0.07557
C	-0.0315882035	-1.1518989004	-0.0315677419	 0.113651
C	-0.041755784	-2.6235430315	-0.0614227631	-0.535544
C	-1.4139087053	-3.1577524236	-0.1071692402	 0.351865
C	-2.5284444315	-3.6014459374	-0.1251146131	-0.442654
C	 0.7743914884	-3.1513397138	-1.1684959253	 0.351863
C	 1.452448397	-3.589758934	-2.0558535348	-0.442653
H	 0.5787627653	 1.9141315634	-0.7891204164	 0.153735
H	-1.0180185648	 1.9097272118	-0.0277012386	 0.153743
H	 0.4398123741	 1.8738610858	 0.9743007149	 0.150839
H	 0.4140330792	-2.9804963123	 0.8761872902	 0.163745
H	-3.5164987971	-3.9899213087	-0.1493771095	 0.202301
H	 2.0469711305	-3.9735870478	-2.8476691019	 0.202301
19.8106	80.0905	106.9066	131.133	238.2285	250.0397	328.989	370.4245	372.5941	498.896	549.6683	557.3923	638.2035	638.744	653.4773	655.2788	792.287	913.8268	1023.6362	1053.2972	1053.7958	1167.1352	1278.3932	1282.0829	1413.9009	1477.0247	1477.3747	2245.5612	2250.7393	2383.5647	2974.9073	3030.1893	3092.7162	3093.384	3504.2507	3505.0483
CC#CC(C#C)C#C	CC#CC(C#C)C#C	
InChI=1S/C8H6/c1-4-7-8(5-2)6-3/h2-3,8H,1H3	InChI=1S/C8H6/c1-4-7-8(5-2)6-3/h2-3,8H,1H3
