13
gdb 42293	2.83501	1.31662	1.00195	4.0458	65.16	-0.291	-0.1012	0.1898	1117.7799	0.08853	-452.750191	-452.742099	-452.741154	-452.784135	27.928	
N	-0.3630011807	 1.1150655029	-0.515845281	-0.517514
C	-0.1374413114	-0.0363482442	-0.0896429799	 0.43828
O	 0.9869534936	-0.6371498491	 0.4174383188	-0.241372
C	 0.279670773	-1.9019572255	 0.6397478621	-0.10925
C	-1.0113422031	-1.2867312181	 0.0765308305	-0.253884
C	-2.1549954029	-1.1038404465	 1.0483606397	 0.291913
O	-2.115034523	-1.4078056838	 2.2130370344	-0.258401
C	-3.3652560177	-0.4948653995	 0.4690348519	 0.255013
N	-4.3261104725	-0.0503860268	 0.0046522942	-0.292214
H	 0.4630526753	 1.7134936032	-0.4765485093	 0.244854
H	 0.7215840849	-2.7055705752	 0.0491413685	 0.135923
H	 0.2456735901	-2.1535428543	 1.6998755802	 0.156606
H	-1.3723096057	-1.6833703231	-0.8747553901	 0.150045
40.9621	103.7051	122.0759	175.1736	278.8571	294.4825	426.9343	472.8495	553.6185	611.5414	706.8425	735.7043	814.0798	861.2972	942.3866	954.1896	991.7859	1012.9946	1069.9991	1124.5491	1164.6776	1169.3432	1215.0426	1338.1758	1360.6032	1511.9782	1792.1253	1830.5023	2342.2097	3088.3577	3102.5547	3158.7875	3491.6637
N=C1OCC1C(=O)C#N	[NH][C]1OC[C@H]1C(=O)C#N	
InChI=1S/C5H4N2O2/c6-1-4(8)3-2-9-5(3)7/h3,7H,2H2	InChI=1S/C5H4N2O2/c6-1-4(8)3-2-9-5(3)7/h3,7H,2H2/t3-/m0/s1
