20
gdb 17891	2.75161	2.13226	2.07084	1.7161	72.76	-0.234	0.0786	0.3126	837.5491	0.180032	-349.001723	-348.994611	-348.993667	-349.032712	28.517	
C	-0.1546401602	 1.6301027353	-0.0024843481	-0.436
C	 0.0423867026	 0.1231456396	 0.0118355038	 0.036864
C	 1.0722383962	-0.6022118766	-0.8884109543	 0.078512
C	 2.3916427156	 0.1668145362	-1.012290534	-0.225823
C	 3.0807500995	 0.2397917761	 0.3767261402	-0.181302
C	 2.0830324064	 0.1509349668	 1.5625711788	-0.225822
C	 0.8313828478	-0.6145951664	 1.1210695836	 0.078511
O	 1.2196604775	-1.625358163	 0.1421681923	-0.302956
H	 0.7807864403	 2.184080034	 0.1129867453	 0.121107
H	-0.6138086301	 1.9512273805	-0.9441443046	 0.117943
H	-0.8236915707	 1.9404317608	 0.8079149298	 0.117944
H	-0.9222582757	-0.3795683568	-0.106885361	 0.080649
H	 0.7269417498	-1.0220343841	-1.8377694119	 0.068868
H	 3.0547060226	-0.3382123816	-1.7220849488	 0.100116
H	 2.1956486722	 1.1627859889	-1.4266484603	 0.097723
H	 3.7581045545	-0.6134858412	 0.4526478482	 0.116202
H	 3.7016578314	 1.1369719446	 0.4566779367	 0.090756
H	 2.5603223638	-0.3636592983	 2.4027499754	 0.100117
H	 1.7932346004	 1.1420787821	 1.9309657911	 0.097723
H	 0.2721327563	-1.045416267	 1.9567698379	 0.068868
118.7321	186.9487	258.4474	273.5967	363.0608	430.3788	522.5456	569.245	606.1248	732.1039	785.0045	811.4596	855.9543	859.5375	898.0906	932.1171	961.5607	975.8126	1036.3533	1039.2453	1068.7967	1107.1995	1121.7215	1133.967	1173.7176	1203.3622	1235.5397	1261.2137	1275.7164	1318.1239	1337.772	1346.5633	1351.4797	1379.6936	1383.8666	1399.6945	1415.4335	1483.9096	1485.6753	1496.4096	1510.3168	1511.6066	3031.6827	3035.9249	3036.4268	3053.0993	3060.5811	3061.463	3066.9104	3075.2836	3075.4847	3090.2288	3106.4686	3113.213
CC1C2CCCC1O2	C[C@H]1[C@H]2CCC[C@@H]1O2	
InChI=1S/C7H12O/c1-5-6-3-2-4-7(5)8-6/h5-7H,2-4H2,1H3	InChI=1S/C7H12O/c1-5-6-3-2-4-7(5)8-6/h5-7H,2-4H2,1H3/t5-,6+,7-
