21
gdb 112779	2.3574	1.34831	0.9768	1.1588	85.19	-0.2399	0.0489	0.2888	1290.8814	0.180042	-387.040578	-387.030555	-387.029611	-387.07546	36.994	
C	 0.2422245007	 1.0255973129	-0.4420246594	-0.244419
O	-0.4215475431	 0.2352630535	 0.5226227746	-0.230899
C	 0.4397922863	-0.4946651424	 1.3363782297	 0.171892
C	-0.2588702079	-1.3663551494	 2.3887158039	-0.276663
C	 0.8095877179	-2.466996641	 2.1520934819	 0.035406
C	 0.3894691576	-3.9256923479	 2.1908158936	-0.410224
C	 1.1582193485	-1.7887861926	 0.7694912093	-0.28859
C	 0.509694864	-2.3709329231	-0.3870129932	 0.380294
C	-0.0250883293	-2.8538870337	-1.3508017538	-0.490518
H	 0.8056178609	 0.4087749892	-1.1552618601	 0.118532
H	-0.5246763023	 1.5815431239	-0.9861384561	 0.12756
H	 0.933671179	 1.7413008445	 0.0301961812	 0.101001
H	 1.2026866806	 0.1612119491	 1.7855486945	 0.064607
H	-0.3753051718	-0.9601463246	 3.3956160889	 0.098053
H	-1.2359693984	-1.6795247307	 2.0090584339	 0.120493
H	 1.6607346895	-2.3066236077	 2.8221830211	 0.076708
H	-0.4269666809	-4.1175553054	 1.488886337	 0.129836
H	 1.220681591	-4.5882187453	 1.9263843052	 0.115888
H	 0.0493245562	-4.1996925989	 3.1955953825	 0.112521
H	 2.2288565229	-1.6753009006	 0.5739325844	 0.09423
H	-0.4967707911	-3.2755799497	-2.203378759	 0.194292
66.888	105.3015	136.4208	159.6922	189.2329	210.6011	255.0376	302.9725	370.8906	393.6495	433.6566	529.3019	611.5414	616.6921	625.8442	672.7879	760.8168	803.3168	883.9554	937.4603	963.1257	992.2733	1035.028	1089.2549	1115.485	1133.1507	1148.6778	1178.9402	1183.5461	1217.7102	1251.9435	1257.9607	1272.0448	1279.1326	1349.2256	1362.9752	1399.449	1414.4538	1479.6564	1486.1628	1490.8951	1491.871	1497.8955	1505.9326	2226.7318	2968.8321	2980.0221	3031.4545	3040.7109	3043.9714	3058.4422	3062.851	3094.6568	3114.0116	3119.0122	3121.45	3504.4057
COC1CC(C)C1C#C	CO[C@H]1C[C@@H](C)[C@H]1C#C	
InChI=1S/C8H12O/c1-4-7-6(2)5-8(7)9-3/h1,6-8H,5H2,2-3H3	InChI=1S/C8H12O/c1-4-7-6(2)5-8(7)9-3/h1,6-8H,5H2,2-3H3/t6-,7-,8+/m1/s1
