17
gdb 62175	6.10982	0.60797	0.57627	1.7023	67.67	-0.2571	-0.0317	0.2253	1808.4469	0.132144	-496.121937	-496.1118	-496.110856	-496.159264	33.784	
O	 0.1908096738	 1.1312658097	-0.3767165768	-0.431366
C	-0.0138974071	-0.2522397101	-0.1296700283	 0.083751
C	 0.5448089982	-1.0851359629	-1.2862285892	-0.094979
O	-0.0962125079	-0.6868349726	-2.4998582667	-0.190134
C	 0.6082835991	 0.0705558393	-3.3701289965	 0.163069
O	 0.1167610016	 0.5443186095	-4.3481352975	-0.268156
C	 0.6935236906	-0.5888105083	 1.1857085078	-0.28344
C	 0.0384721794	 0.0778187583	 2.380346529	 0.153949
O	-0.1948219156	-0.4827921277	 3.4196852722	-0.2361
H	-0.4476353011	 1.415544421	-1.0393215248	 0.304401
H	-1.0887789408	-0.4710763906	-0.0401462133	 0.098394
H	 1.6295920435	-0.9367048329	-1.36192837	 0.118276
H	 0.3396242143	-2.149866031	-1.143844406	 0.129992
H	 1.668836691	 0.1849655767	-3.0773518604	 0.089699
H	 0.7286359757	-1.6673211571	 1.3628392219	 0.125811
H	 1.7244654075	-0.2138784703	 1.1159836999	 0.136924
H	-0.2142111323	 1.147998169	 2.2258061887	 0.099908
34.2784	44.6886	76.0407	89.2182	136.3833	190.8314	271.2739	327.2843	363.763	392.2663	432.7711	480.6493	547.9096	675.4925	812.3557	881.8385	943.334	1017.7609	1033.7349	1044.4271	1057.9177	1102.9172	1136.7265	1175.9405	1207.5016	1277.41	1284.8179	1322.9136	1362.5144	1401.0467	1420.512	1425.8487	1432.5066	1445.5332	1493.6742	1833.9788	1868.3018	2917.5788	2965.5024	2993.2373	3023.3074	3030.9947	3098.9466	3107.9544	3820.4441
OC(COC=O)CC=O	O[C@@H](COC=O)CC=O	
InChI=1S/C5H8O4/c6-2-1-5(8)3-9-4-7/h2,4-5,8H,1,3H2	InChI=1S/C5H8O4/c6-2-1-5(8)3-9-4-7/h2,4-5,8H,1,3H2/t5-/m1/s1
