17
gdb 77046	3.20802	1.01431	0.82756	3.356	73.8	-0.2597	0.0175	0.2773	1347.6911	0.135612	-418.049659	-418.040578	-418.039634	-418.084257	32.33	
C	-0.1053173715	 1.6223214353	 0.195854489	-0.411876
C	-0.0060707739	 0.1118891132	 0.0309976047	-0.185974
C	 0.6706177776	-0.5157834857	-1.2399587804	 0.042097
C	 1.2432636512	 0.4421961547	-2.2976331628	-0.351566
C	 2.0555972933	-0.2756886713	-3.2777373481	 0.256333
N	 2.6958862166	-0.8747956981	-4.030383557	-0.298152
N	 1.664236663	-1.0990568948	-0.3402625353	-0.332326
C	 1.1170532375	-0.6073809564	 0.8245834495	 0.437983
O	 1.4176882778	-0.7183030116	 1.9807235859	-0.354961
H	 0.8560827699	 2.1204841061	 0.0399674909	 0.127429
H	-0.8355622105	 2.0566984228	-0.4944870885	 0.123465
H	-0.4278254632	 1.8536346324	 1.2148521744	 0.147284
H	-0.9752140445	-0.3558280353	 0.2279593789	 0.113576
H	 0.0448304455	-1.2644513997	-1.738042744	 0.106621
H	 0.4261241935	 0.9530712117	-2.8193579098	 0.158348
H	 1.8631832616	 1.2082899055	-1.8226138014	 0.158228
H	 2.390334046	-1.7817874689	-0.505419456	 0.263492
58.5657	82.0446	117.7007	189.8911	208.2092	241.675	347.9127	392.7548	401.3946	485.2094	516.5331	552.3279	692.3207	740.4857	815.06	841.4434	905.6527	945.2882	1000.5632	1044.1639	1068.9197	1115.3671	1148.4989	1180.7917	1198.5486	1226.2072	1275.5745	1325.4511	1350.1661	1383.715	1401.7517	1414.2	1455.5917	1495.2259	1500.7296	1900.6498	2362.0608	3040.0149	3043.8644	3052.8082	3073.9835	3101.511	3110.5698	3118.3501	3603.1125
CC1C(CC#N)NC1=O	C[C@H]1[C@@H](CC#N)NC1=O	
InChI=1S/C6H8N2O/c1-4-5(2-3-7)8-6(4)9/h4-5H,2H2,1H3,(H,8,9)	InChI=1S/C6H8N2O/c1-4-5(2-3-7)8-6(4)9/h4-5H,2H2,1H3,(H,8,9)/t4-,5+/m0/s1
