16
gdb 125848	3.13493	1.5365	1.12335	2.7995	70.63	-0.262	0.0032	0.2652	1054.2966	0.125997	-434.049538	-434.041766	-434.040822	-434.082065	28.642	
C	-0.3957483947	 1.6117146793	-0.2087635667	-0.397362
C	 0.0298986228	 0.1765918695	 0.0135542726	 0.002874
C	 0.8000655527	-0.5700193969	-1.1925448556	-0.018204
O	 0.960510567	 0.1105921893	-2.3982474347	-0.40459
C	 1.961654249	-0.6659540541	-0.2020965879	 0.300586
N	 3.1196238813	-1.1313928935	 0.2383303339	-0.371913
C	 3.0636917881	-0.7159794383	 1.5454948967	 0.021673
N	 1.9592194589	-0.0597371445	 1.9325624352	-0.287292
N	 1.2976046335	-0.0292623387	 0.7591599546	 0.081663
H	 0.4230311367	 2.2140730672	-0.6119636352	 0.117885
H	-1.2264743456	 1.6415762981	-0.919721371	 0.142191
H	-0.72533857	 2.0678899714	 0.7287639302	 0.144148
H	-0.7813851637	-0.4265085812	 0.4319632832	 0.115102
H	 0.3399498293	-1.5309674675	-1.4346982388	 0.12818
H	 1.5857164509	 0.8319125501	-2.2688836326	 0.29598
H	 3.8688197638	-0.8982168902	 2.242496386	 0.129077
91.577	127.9286	188.0455	232.9027	261.6159	343.4306	406.9902	484.7764	573.7744	671.5361	693.6069	725.407	774.3438	837.746	893.2	982.9362	1009.9769	1035.3729	1092.6776	1126.489	1162.1076	1166.2134	1199.4436	1231.8254	1250.7075	1282.0595	1307.068	1362.6202	1392.2141	1412.7766	1436.095	1478.0258	1486.416	1495.5202	1556.0345	3047.3352	3071.1662	3095.7864	3123.2914	3125.3977	3256.2095	3813.6952
CC1C(O)C2=NC=NN12	C[C@H]1[C@@H](O)c2ncnn12	
InChI=1S/C5H7N3O/c1-3-4(9)5-6-2-7-8(3)5/h2-4,9H,1H3	InChI=1S/C5H7N3O/c1-3-4(9)5-6-2-7-8(3)5/h2-4,9H,1H3/t3-,4+/m0/s1
