18
gdb 32950	4.11432	0.87041	0.73967	0.5356	77.76	-0.1795	0.0492	0.2287	1521.9009	0.14731	-439.105211	-439.095967	-439.095023	-439.139845	33.482	
C	-0.6395929689	 1.3136353201	 0.6599682565	-0.220927
O	-0.643711652	-0.0934395241	 0.6985241046	-0.241622
C	-0.6659977548	-0.6770521267	-0.5985987129	-0.192849
C	-0.7522423279	-2.1531719722	-0.467255475	 0.300436
C	-0.073461381	-3.173396979	-1.0829623701	-0.224091
C	-0.6162443579	-4.4145323859	-0.6228101387	-0.295102
C	-1.6073233641	-4.0904142992	 0.2731933668	 0.369387
O	-2.4433332279	-4.8295115909	 1.0464528019	-0.435768
N	-1.7085527571	-2.7336368783	 0.3526509689	-0.331309
H	-0.6465655147	 1.6700250238	 1.6929452451	 0.12651
H	 0.2573482751	 1.7065855894	 0.1554937452	 0.105129
H	-1.5250002589	 1.712725307	 0.1388223498	 0.101739
H	-1.5267817046	-0.2630219543	-1.1567811511	 0.089071
H	 0.2399451768	-0.4161327777	-1.1678340688	 0.100597
H	 0.7200852102	-3.0513350047	-1.8048416292	 0.089762
H	-0.3165586687	-5.409465668	-0.913387447	 0.084431
H	-2.2118379267	-5.7565502654	 0.937120161	 0.306743
H	-2.2557505768	-2.2360742038	 1.034329443	 0.267861
54.0041	95.975	107.9757	223.0341	241.7835	244.7406	312.8732	342.9102	385.7888	453.2467	479.4319	631.5778	662.5554	675.6247	731.3398	761.5454	808.3591	968.6538	1001.393	1009.9395	1029.6048	1060.1392	1139.052	1171.9429	1182.0992	1214.8197	1220.2521	1246.164	1288.9425	1307.9235	1407.8932	1433.3918	1477.4468	1485.293	1501.0408	1519.7356	1531.7539	1578.4129	1646.2194	2919.697	2967.2323	2995.0845	3010.7448	3113.3262	3238.883	3253.3019	3678.7521	3849.5313
COCC1=CC=C(O)N1	COCc1ccc(O)[nH]1	
InChI=1S/C6H9NO2/c1-9-4-5-2-3-6(8)7-5/h2-3,7-8H,4H2,1H3	InChI=1S/C6H9NO2/c1-9-4-5-2-3-6(8)7-5/h2-3,7-8H,4H2,1H3
