21
gdb 84710	2.58857	1.74639	1.2745	1.3203	82.72	-0.2378	0.0217	0.2595	1064.679	0.185202	-387.115356	-387.107475	-387.10653	-387.147828	31.246	
C	 0.0963336546	 1.6171710027	 0.1412985701	-0.38607
C	 0.0859928063	 0.0910343823	-0.0037231021	-0.045887
C	 0.8931021287	-0.4383332006	-1.1671572059	-0.069669
C	 1.6636243658	-1.4713814979	-0.8338002292	-0.088577
C	 1.559563495	-1.8286211951	 0.6296211682	-0.088163
C	 2.882818179	-1.7069560003	 1.4144247898	-0.228739
C	 2.9017056857	-0.2182113931	 1.7649357435	-0.074999
O	 1.5438651081	 0.1210020217	 2.0243979395	-0.260021
C	 0.6787945202	-0.6811594749	 1.2176957676	 0.091577
H	 1.1126757982	 1.9956918993	 0.272213988	 0.124914
H	-0.3349787838	 2.0871533115	-0.7489231924	 0.103556
H	-0.4890902238	 1.9342959718	 1.0092930428	 0.117876
H	-0.9610069962	-0.2246526725	-0.1290046521	 0.076961
H	 0.811283664	-0.0161006232	-2.1641304903	 0.089677
H	 2.3070917602	-2.0205498024	-1.5138088548	 0.089455
H	 1.1088543711	-2.8175491589	 0.7680521372	 0.077804
H	 2.8434144338	-2.3102537005	 2.326851866	 0.103337
H	 3.7540587709	-2.0210433288	 0.8330280611	 0.099034
H	 3.4814514214	 0.0164992518	 2.6623022246	 0.104076
H	 3.3021725451	 0.3761535993	 0.9295472292	 0.091936
H	-0.1176772944	-1.0390523822	 1.8777394491	 0.071922
62.9662	173.7931	213.9101	244.283	273.4086	344.3522	455.3232	498.0223	604.9479	648.9339	722.7036	765.237	809.8042	845.5395	861.3912	878.226	916.2112	932.0015	963.7518	977.4195	991.039	1029.3554	1049.2097	1086.5187	1108.828	1116.2783	1135.7689	1159.4168	1196.6261	1224.4995	1250.9261	1283.847	1302.225	1319.1363	1327.0709	1339.4859	1366.0673	1387.5087	1396.7505	1413.5809	1487.4944	1494.288	1494.4377	1520.9129	1685.8595	2981.9921	2986.5607	3036.3976	3039.7756	3050.7709	3058.303	3083.5613	3103.9011	3105.2369	3125.9588	3168.3373	3194.2471
CC1C=CC2CCOC12	C[C@H]1C=C[C@H]2CCO[C@@H]12	
InChI=1S/C8H12O/c1-6-2-3-7-4-5-9-8(6)7/h2-3,6-8H,4-5H2,1H3	InChI=1S/C8H12O/c1-6-2-3-7-4-5-9-8(6)7/h2-3,6-8H,4-5H2,1H3/t6-,7-,8-/m0/s1
