15
gdb 15734	6.91006	1.0365	0.97498	6.037	67.23	-0.2702	-0.0337	0.2365	1168.5555	0.117906	-362.683324	-362.675278	-362.674334	-362.716802	28.146	
O	-0.0710528679	-0.1132985219	-0.0762915503	-0.300078
C	-0.065220772	 1.093056784	-0.0267792562	 0.39358
C	 1.245023235	 1.9026770599	 0.025589775	-0.471576
C	 2.4482295246	 1.0815253743	 0.0097541785	 0.288836
N	 3.4157483389	 0.4519706639	-0.0016975889	-0.295157
C	-1.3035604881	 1.9152976926	-0.0113090977	-0.11704
C	-2.4986612213	 1.3832998022	-0.7951070658	-0.245906
C	-2.5207731568	 1.3221162097	 0.690154878	-0.24592
H	 1.261009713	 2.5993235837	-0.8221444593	 0.175405
H	 1.2352908519	 2.5279224549	 0.9273592891	 0.175397
H	-1.1737039425	 2.9907815598	 0.03489303	 0.094261
H	-3.1145451105	 2.1163321591	-1.3026595471	 0.126524
H	-2.327538724	 0.4577940207	-1.3323178773	 0.147573
H	-2.3645335883	 0.3553542928	 1.1542713853	 0.147579
H	-3.1524040022	 2.0116232043	 1.2377695466	 0.126521
41.8798	78.6405	125.0558	248.5035	252.8736	332.0701	374.8883	429.9002	579.4042	674.0249	789.3156	827.7292	836.3178	861.0822	891.0451	964.8629	972.0092	1052.5696	1088.4689	1100.2971	1115.621	1125.3652	1209.5006	1217.8484	1223.8963	1315.9391	1407.0519	1436.4095	1454.8814	1486.6606	1810.0326	2376.1263	3036.7153	3071.3745	3145.3177	3146.682	3172.7008	3233.6456	3247.9229
O=C(CC#N)C1CC1	O=C(CC#N)C1CC1	
InChI=1S/C6H7NO/c7-4-3-6(8)5-1-2-5/h5H,1-3H2	InChI=1S/C6H7NO/c7-4-3-6(8)5-1-2-5/h5H,1-3H2
