16
gdb 44473	4.33977	1.44334	1.32332	4.5808	68.9	-0.2663	0.0379	0.3042	959.1095	0.127316	-437.854981	-437.848781	-437.847837	-437.885383	26.015	
O	 0.068003198	 0.0019865935	-0.268832984	-0.361953
C	-0.0282873987	 1.159995427	 0.0046283561	 0.432851
N	-1.2112921488	 1.9067432835	 0.158465487	-0.396387
C	-0.8714254145	 3.3070900211	 0.0790584712	 0.011739
C	-0.7736961976	 4.4088872971	 1.2040970997	-0.119621
C	-0.0727676981	 3.3798882809	 2.1138879857	-0.27551
C	 0.5150373185	 3.1911082298	 0.6834228046	 0.416755
C	 0.6589435843	 4.7265703232	 0.5759534622	-0.300024
O	 1.0791277901	 1.9815205107	 0.2448198051	-0.297515
H	-2.0294108308	 1.5020659395	-0.2706795215	 0.258961
H	-0.9490877392	 3.7121390522	-0.9361477992	 0.086321
H	-1.5139092902	 5.1541754575	 1.486548904	 0.095282
H	 0.6086731748	 3.7816515233	 2.8654117413	 0.101807
H	-0.6844511257	 2.5667269786	 2.5015741426	 0.120101
H	 0.6742140399	 5.1543458514	-0.4285410299	 0.112609
H	 1.3643595779	 5.218645981	 1.2471870652	 0.114584
144.4079	329.921	360.3738	449.9594	500.2809	527.6248	569.2119	590.2816	745.312	760.1231	772.4272	791.4858	845.0535	867.6754	901.9257	926.8369	955.5942	992.4534	1008.9053	1051.2735	1085.3646	1096.3588	1112.5141	1152.7548	1171.5661	1184.7982	1220.9529	1226.8222	1251.7214	1284.036	1372.0873	1421.1681	1494.0158	1535.9187	1903.4847	3038.3416	3072.9599	3085.9242	3143.5028	3147.2222	3161.9943	3630.5902
O=C1NC2C3CC2(C3)O1	O=C1N[C@H]2[C@H]3C[C@@]2(C3)O1	
InChI=1S/C6H7NO2/c8-5-7-4-3-1-6(4,2-3)9-5/h3-4H,1-2H2,(H,7,8)	InChI=1S/C6H7NO2/c8-5-7-4-3-1-6(4,2-3)9-5/h3-4H,1-2H2,(H,7,8)/t3-,4-,6-/m0/s1
