18
gdb 85379	1.95767	1.70929	0.97305	3.8266	74.37	-0.2525	-0.0279	0.2245	1201.184	0.147192	-439.131486	-439.122971	-439.122027	-439.164994	32.009	
C	-0.2014352088	 1.4573472588	 0.0634876559	-0.398353
C	-0.0717751841	-0.0517700416	-0.0566019545	 0.107964
C	 0.8369952672	-0.4983715637	-1.2016901528	-0.322149
C	 1.0461454444	-2.0079701575	-1.2015033937	 0.387873
O	 1.4840135166	-2.6132139179	-2.1465609172	-0.29939
C	 0.6335131168	-2.6918930531	 0.0984076356	-0.392998
C	 0.8309614544	-1.8247162903	 1.3179248735	 0.379163
N	 1.3202392768	-2.2930152873	 2.3859000589	-0.506782
O	 0.4603973739	-0.516156744	 1.2021062651	-0.256994
H	 0.7818556491	 1.9152441565	 0.2062661845	 0.132413
H	-0.6521313	 1.8724863652	-0.8425723994	 0.125436
H	-0.8314167021	 1.718553437	 0.9174071397	 0.134636
H	-1.0715197715	-0.4908138938	-0.1900539981	 0.092685
H	 0.4425859883	-0.1913620143	-2.1745741079	 0.137505
H	 1.8217725616	-0.0252170375	-1.0878475371	 0.144765
H	-0.4395566811	-2.9178887525	-0.0021391316	 0.151761
H	 1.1569975616	-3.6380948915	 0.2242879293	 0.161648
H	 1.366999887	-1.5638759826	 3.1010122698	 0.220818
69.0123	105.2963	150.1187	233.116	271.9642	374.4884	399.7544	437.6559	471.485	518.3438	534.2433	538.5951	619.0381	777.4782	836.2951	898.3881	900.7285	910.6094	950.0365	970.4421	1056.54	1103.6366	1111.4908	1157.1034	1177.5749	1203.1309	1236.9344	1276.1209	1293.3076	1333.7438	1384.3209	1393.1439	1414.5213	1436.1874	1438.0705	1484.1183	1498.8377	1755.8999	1835.6501	2993.9684	3007.581	3032.3791	3046.8394	3100.8276	3122.7062	3128.3542	3156.7261	3463.2286
CC1CC(=O)CC(=N)O1	C[C@H]1CC(=O)C[C]([NH])O1	
InChI=1S/C6H9NO2/c1-4-2-5(8)3-6(7)9-4/h4,7H,2-3H2,1H3	InChI=1S/C6H9NO2/c1-4-2-5(8)3-6(7)9-4/h4,7H,2-3H2,1H3/t4-/m0/s1
