19
gdb 100461	3.62865	0.58787	0.57505	1.5828	78.08	-0.258	0.0199	0.2779	1986.5557	0.156188	-460.12103	-460.110138	-460.109193	-460.1586	38.308	
C	 0.1552898898	 1.4176908076	-0.2577688243	-0.387085
C	 0.0066796415	-0.0595052476	 0.1338091082	-0.026852
O	 0.6048548055	-0.3342739123	 1.3978143133	-0.410767
C	-1.3968040961	-0.4869199418	 0.0905614116	 0.107157
C	-2.5577386864	-0.8125988985	 0.0704915988	 0.000846
C	-3.9482760786	-1.2519338549	 0.1046990717	-0.06919
O	-4.0964347122	-2.63817825	-0.2337273321	-0.429781
C	-4.5977987665	-1.0041497442	 1.480326499	-0.05293
O	-5.9150261541	-1.4974012807	 1.4896595805	-0.417496
H	 1.2103405131	 1.6991582095	-0.2117610424	 0.1293
H	-0.2196394921	 1.5929132574	-1.2701374283	 0.129625
H	-0.4105077498	 2.0551709236	 0.4294469216	 0.11857
H	 0.5794273334	-0.6699068581	-0.5748474769	 0.123705
H	 0.0743536087	 0.1071323799	 2.0707492424	 0.282808
H	-4.5376537484	-0.716962759	-0.6491137076	 0.125271
H	-3.3794719558	-3.1172158393	 0.198238067	 0.29048
H	-3.9704650302	-1.477404898	 2.2550324543	 0.083212
H	-4.6377559496	 0.0692853113	 1.6899807635	 0.115288
H	-5.8656633822	-2.3686979148	 1.0740942297	 0.287839
21.6768	68.2708	74.5087	144.7998	194.75	212.6424	255.5583	291.762	309.8941	326.6197	353.3461	435.7096	507.8225	517.3367	522.9618	570.4437	607.187	762.8745	858.7435	906.9208	1008.7618	1042.9799	1065.1911	1076.2448	1094.8819	1104.0442	1171.7478	1203.0712	1268.5684	1284.9086	1296.4236	1334.8967	1375.1662	1399.5121	1414.44	1419.5746	1435.3618	1488.2641	1491.7474	1504.0662	2349.7668	2960.7394	3038.6222	3042.8535	3049.7794	3084.1281	3115.6032	3129.9822	3762.7048	3798.4914	3802.0561
CC(O)C#CC(O)CO	C[C@@H](O)C#C[C@@H](O)CO	
InChI=1S/C6H10O3/c1-5(8)2-3-6(9)4-7/h5-9H,4H2,1H3	InChI=1S/C6H10O3/c1-5(8)2-3-6(9)4-7/h5-9H,4H2,1H3/t5-,6-/m1/s1
