21
gdb 119776	3.91825	0.88572	0.7543	1.4423	81.65	-0.2125	0.0628	0.2753	1579.9122	0.18322	-420.436719	-420.427146	-420.426201	-420.471731	34.879	
C	-0.1470664946	 1.5309629956	-0.0138024917	-0.392284
C	-0.0188336925	 0.022357072	 0.0686867952	-0.03596
O	-1.3332331778	-0.5349795902	-0.1105813397	-0.273721
C	-1.4040595673	-1.8663512961	-0.0705703538	 0.474079
N	-0.4350033814	-2.6783701483	 0.114107655	-0.3793
C	-1.0286982683	-4.0269483619	 0.0614380488	 0.068146
C	-0.4860317876	-4.9360266456	 1.1585939431	-0.384062
C	-2.5696218463	-3.7959295325	 0.13788822	-0.192405
N	-2.6702043298	-2.3964425769	-0.2908970832	-0.367078
H	 0.8353212699	 1.993914915	 0.1182516498	 0.121797
H	-0.5446537867	 1.8363646073	-0.9858421816	 0.129216
H	-0.8143305928	 1.9103349672	 0.7655158449	 0.126071
H	 0.6428528459	-0.3783853279	-0.7057603316	 0.123374
H	 0.3757618084	-0.3059093462	 1.0358967161	 0.120329
H	-0.7817758214	-4.4715857194	-0.9142670254	 0.078316
H	-0.6987122676	-4.51468995	 2.1467411615	 0.111648
H	-0.9376124413	-5.9328625714	 1.102619624	 0.10536
H	 0.5978541538	-5.043338004	 1.0632417891	 0.124395
H	-3.1364773193	-4.4605343136	-0.5193910609	 0.108334
H	-2.9341916423	-3.9334221099	 1.167174195	 0.093714
H	-3.4484061708	-1.8438204829	 0.0404602453	 0.24003
50.7882	105.6889	114.3691	149.5623	220.0607	243.2184	266.0844	317.7984	357.6925	472.7496	484.1563	556.7291	665.3703	736.1084	757.7082	807.7513	847.1782	908.5977	934.0078	947.6186	1026.4199	1050.8225	1098.6932	1108.2408	1132.7718	1143.3314	1149.2827	1185.094	1220.5387	1289.1316	1297.7789	1307.7969	1334.787	1377.8448	1394.6731	1405.5642	1417.704	1483.368	1484.6674	1486.9573	1497.7808	1499.1981	1521.8472	1532.6473	1710.7935	2980.612	2989.6822	3031.7128	3045.2944	3049.4064	3082.6524	3086.6422	3100.3539	3117.1283	3120.2893	3124.2966	3595.1328
CCOC1=NC(C)CN1	CCO[C]1[N][C@@H](C)CN1	
InChI=1S/C6H12N2O/c1-3-9-6-7-4-5(2)8-6/h5H,3-4H2,1-2H3,(H,7,8)	InChI=1S/C6H12N2O/c1-3-9-6-7-4-5(2)8-6/h5H,3-4H2,1-2H3,(H,7,8)/t5-/m0/s1
