13
gdb 43276	3.20504	1.53945	1.11687	4.8269	67.31	-0.2409	-0.1028	0.1381	1009.5511	0.088526	-456.568944	-456.561697	-456.560753	-456.600944	26.777	
O	 0.0204722964	-0.029425606	-0.0133095745	-0.290203
C	-0.0345560221	 1.1737802515	 0.0093357131	 0.291995
C	-1.2220388438	 2.0544835149	 0.044410892	-0.207435
C	-0.8627843915	 3.3514815779	 0.0245130036	-0.140916
C	 0.6054313843	 3.5334939705	-0.0595698692	 0.299236
C	 1.3027241919	 4.6554449436	-0.7175228973	-0.228162
O	 1.2325108428	 4.5736921934	 0.6978614453	-0.256343
C	 1.1908624963	 2.1363134755	-0.0100040409	 0.245895
O	 2.3489703915	 1.8289833522	 0.0053889176	-0.274598
H	-2.2326663421	 1.6699492545	 0.0946295879	 0.140788
H	-1.5382751699	 4.1983835448	 0.0746468864	 0.142802
H	 2.2831694481	 4.4622819337	-1.1495063654	 0.147852
H	 0.7152472682	 5.4485338634	-1.1782010587	 0.12909
73.0848	216.6565	236.4844	245.8089	313.8552	371.2298	467.4963	568.3252	574.603	670.6432	713.8301	768.3507	821.8781	868.4598	909.7614	953.5251	998.1925	1006.634	1079.0523	1131.2768	1157.764	1181.4468	1248.7618	1341.3082	1419.9794	1509.726	1619.3034	1826.0296	1871.0649	3085.6941	3184.3592	3196.7611	3227.2307
O=C1C=CC2(CO2)C1=O	O=C1C=C[C@]2(CO2)C1=O	
InChI=1S/C6H4O3/c7-4-1-2-6(3-9-6)5(4)8/h1-2H,3H2	InChI=1S/C6H4O3/c7-4-1-2-6(3-9-6)5(4)8/h1-2H,3H2/t6-/m0/s1
