14
gdb 20462	4.92431	2.07197	1.49955	0.9067	62.15	-0.2356	-0.0084	0.2272	785.565	0.112324	-374.889521	-374.883524	-374.88258	-374.919738	22.689	
C	-0.0179967764	 1.5090662139	 0.2021645991	-0.295632
N	 1.2835176647	 1.9512421117	-0.388541594	-0.308112
C	 2.2080357101	 0.7822639955	-0.5195121688	-0.29563
C	 1.2906721529	-0.3940579735	-0.3736624317	 0.298694
N	 1.3168495882	-1.7166993442	-0.4752911832	-0.31185
N	 0.0664867385	-2.0414795324	-0.1214392267	-0.097329
N	-0.7612056477	-1.0382078921	 0.1986740956	-0.311848
C	 0.0229256508	 0.019862355	 0.0373687998	 0.298689
H	-0.0712656533	 1.7942930502	 1.2610747606	 0.128781
H	-0.85333126	 1.99887885	-0.3064483577	 0.124028
H	 1.0957381499	 2.3009884158	-1.3199722751	 0.227034
H	 2.7432435228	 0.8245988294	-1.4724787375	 0.124027
H	 2.963062059	 0.8035712232	 0.277335603	 0.128781
H	-0.2503315593	-2.9974850025	-0.1358681033	 0.290367
111.4272	255.0872	257.3746	450.7827	467.3977	607.4972	696.6333	700.4237	733.3793	750.1712	827.8742	887.8428	998.5552	1006.1284	1048.4758	1048.6756	1149.6055	1156.6234	1184.0147	1195.6601	1243.8828	1308.413	1336.8095	1441.3082	1443.2214	1467.9168	1499.5892	1506.2105	1514.6034	1593.3237	3017.6084	3018.9754	3080.5395	3081.1621	3549.1829	3668.0755
C1NCC2=NNN=C12	C1NCc2n[nH]nc12	
InChI=1S/C4H6N4/c1-3-4(2-5-1)7-8-6-3/h5H,1-2H2,(H,6,7,8)	InChI=1S/C4H6N4/c1-3-4(2-5-1)7-8-6-3/h5H,1-2H2,(H,6,7,8)
