15
gdb 23336	2.46776	1.30925	0.98417	0.9996	70.71	-0.2417	-0.0422	0.1995	1172.9291	0.111297	-453.81072	-453.802699	-453.801755	-453.843855	29.503	
O	-0.1407882603	 1.3938330731	-0.0112840489	-0.39692
N	 0.0241046897	-0.0061594326	 0.0154433958	-0.315559
C	-1.0832598286	-0.5979463444	 0.0010224258	 0.565547
C	-2.5962178094	-0.4387997603	-0.028534573	-0.147035
N	-2.5603160317	-1.5609808205	-1.0716700702	-0.320699
C	-1.6027248241	-2.0174358729	 0.0330774325	-0.138204
C	-2.6446615742	-1.5272652822	 1.1135717656	-0.093716
C	-2.202283147	-1.195797275	 2.5143036497	 0.131792
O	-2.8134130787	-1.540440376	 3.4949028245	-0.250652
H	 0.7719496096	 1.7022126335	-0.0181277102	 0.31172
H	-3.2079990255	 0.452772331	-0.140330166	 0.118953
H	-3.4277810284	-2.101804843	-0.9776646941	 0.220486
H	-1.0627723679	-2.9610712047	-0.0059324819	 0.114083
H	-3.5713438367	-2.1081796108	 1.1296231652	 0.099606
H	-1.2640334969	-0.6061265052	 2.5936040452	 0.100598
80.4713	95.7886	202.274	234.6928	265.7737	337.54	404.0206	447.8589	494.5947	586.4361	714.4224	725.759	748.9129	805.1893	858.222	943.2994	964.0865	1002.3944	1043.9551	1093.1585	1107.0413	1109.7748	1137.2619	1157.9163	1159.96	1221.3749	1265.0101	1298.4666	1332.5855	1418.6727	1436.5344	1820.7376	1846.835	2909.0654	3083.0408	3152.1546	3161.7412	3369.0265	3817.5103
ON=C1C2NC1C2C=O	ON=C1[C@H]2N[C@@H]1[C@H]2C=O	
InChI=1S/C5H6N2O2/c8-1-2-3-5(7-9)4(2)6-3/h1-4,6,9H	InChI=1S/C5H6N2O2/c8-1-2-3-5(7-9)4(2)6-3/h1-4,6,9H/t2-,3-,4+
