18
gdb 27684	2.77848	1.26474	0.8786	1.7879	93.67	-0.1892	0.0063	0.1955	1319.7846	0.146298	-364.839556	-364.829947	-364.829003	-364.874034	35.091	
C	 0.0029903806	 1.4904014973	 0.1119455613	-0.512333
C	 0.0123468134	 0.0046693607	-0.0322655643	 0.313923
C	 0.0059429467	-0.7939893989	-1.1592808555	-0.301896
C	 0.0201621239	-2.1541362429	-0.7520204074	 0.193179
C	 0.0196157854	-3.3667561323	-1.6295692897	-0.520417
C	 0.0352053153	-2.1534346634	 0.6377381192	 0.087691
N	 0.0301762551	-0.8295092803	 1.0506550181	-0.371865
C	 0.0528418706	-3.2186115879	 1.5562364077	 0.264858
C	 0.0679377358	-4.1262929129	 2.3515070504	-0.473015
H	 0.8890527251	 1.8584271593	 0.6440299595	 0.130419
H	-0.0097602049	 1.9598486851	-0.874029055	 0.139824
H	-0.8780260913	 1.8457265296	 0.6607999175	 0.130439
H	-0.0075785604	-0.4318827421	-2.1770468148	 0.091528
H	 0.8943629738	-3.3867230532	-2.2901067686	 0.124964
H	 0.0316873751	-4.2804127892	-1.0296942907	 0.132697
H	-0.8676715356	-3.3984984371	-2.2726769898	 0.124946
H	 0.0376799151	-0.5419596798	 2.0141688513	 0.260213
H	 0.0812274164	-4.9303994122	 3.0441658307	 0.184846
87.4495	89.6056	132.6402	133.7026	197.9863	250.2147	300.9871	362.5345	441.8429	467.4487	491.9526	533.615	563.8894	614.0068	648.601	680.1255	694.1024	779.4026	800.7948	993.1793	1006.6258	1024.4692	1059.9601	1062.0671	1159.3375	1179.227	1240.2796	1316.9634	1412.0492	1415.7841	1439.2639	1465.8098	1480.2773	1485.6887	1488.4932	1508.3479	1530.4075	1625.2687	2215.6725	3018.7486	3025.3371	3063.8579	3072.8176	3115.7143	3125.7387	3236.2065	3503.7932	3675.2281
CC1=CC(C)=C(N1)C#C	Cc1cc(C)c([nH]1)C#C	
InChI=1S/C8H9N/c1-4-8-6(2)5-7(3)9-8/h1,5,9H,2-3H3	InChI=1S/C8H9N/c1-4-8-6(2)5-7(3)9-8/h1,5,9H,2-3H3
