18
gdb 70715	2.28685	1.87138	1.23722	2.1513	72.39	-0.2269	-0.0247	0.2022	1026.4482	0.149225	-439.086844	-439.079008	-439.078064	-439.118927	31.114	
O	-0.021618312	 1.3913134156	-0.0714375318	-0.478497
C	-0.0157833387	 0.0069786391	-0.026826328	 0.361109
C	-0.4239307129	-0.7555709343	-1.281446948	-0.348006
C	-1.3325450816	-0.7485955581	-0.0813750958	-0.112527
C	-1.4866524069	-2.0232647496	 0.765628033	-0.195923
N	-0.4373188676	-2.2665887872	 1.7583704145	-0.282521
C	 0.910224799	-2.0212811248	 1.2319353678	-0.281186
C	 1.0617188442	-0.5621238996	 0.8263861704	 0.320015
O	 1.9377820386	 0.1699553751	 1.2520350396	-0.357256
H	 0.8104472763	 1.6472972122	 0.3595828392	 0.293052
H	-0.6846580768	-0.1216924383	-2.1212029587	 0.135268
H	 0.0945378038	-1.6738979279	-1.5394862676	 0.117464
H	-2.20449481	-0.1062966542	-0.1584300886	 0.111522
H	-2.4419682879	-1.9957042759	 1.2968720643	 0.116572
H	-1.522522278	-2.8931740377	 0.0959824309	 0.11503
H	-0.5858146157	-1.6644524855	 2.5628094242	 0.227716
H	 1.6630757966	-2.2477683988	 1.9906937228	 0.132625
H	 1.0787755394	-2.6899629003	 0.3779746718	 0.125542
97.7938	180.6262	217.2179	324.4838	347.3191	375.071	432.2885	461.6212	476.6294	507.8075	591.2754	661.6331	755.2514	770.7346	827.5929	862.4653	893.7046	918.1337	945.3091	992.0179	1037.8914	1051.4936	1073.1047	1093.3571	1152.2103	1166.8035	1203.7375	1245.6267	1314.53	1323.4711	1339.5596	1371.3344	1393.2719	1440.8312	1465.0072	1483.0334	1491.9555	1496.3002	1769.0747	3016.1481	3030.3176	3089.2246	3109.3512	3129.0789	3160.5013	3225.7527	3508.9971	3681.1404
OC12CC1CNCC2=O	O[C@]12C[C@H]1CNCC2=O	
InChI=1S/C6H9NO2/c8-5-3-7-2-4-1-6(4,5)9/h4,7,9H,1-3H2	InChI=1S/C6H9NO2/c8-5-3-7-2-4-1-6(4,5)9/h4,7,9H,1-3H2/t4-,6+/m0/s1
