16
gdb 21309	7.24043	1.1017	0.96817	1.9987	67.03	-0.2319	0.0284	0.2603	1170.4481	0.131907	-379.925764	-379.917911	-379.916967	-379.959907	27.221	
C	-0.1519923455	 1.4127659155	-0.3607928675	-0.223067
O	-0.2152574859	 0.0147679613	-0.504207032	-0.233067
C	-1.0281675823	-0.5992474432	 0.4729641688	-0.182372
C	-1.0505511539	-2.0741172043	 0.2277341082	 0.188866
C	-0.4838043333	-2.7485059518	-0.833487316	-0.105606
N	-0.7608300596	-4.0621262589	-0.6427645248	-0.183659
N	-1.4729536284	-4.2993573167	 0.4734925867	-0.226497
C	-1.6501458384	-3.0926329586	 1.0045722974	-0.091319
H	 0.4960924434	 1.7939785478	-1.1535146532	 0.127473
H	-1.1451932267	 1.8796476002	-0.457755649	 0.105346
H	 0.269237854	 1.7050517542	 0.6143355545	 0.105516
H	-0.6433226356	-0.3784324703	 1.4845493074	 0.097705
H	-2.049956738	-0.1803397337	 0.4333040072	 0.098119
H	 0.0809541083	-2.38994808	-1.6774496327	 0.144939
H	-0.4938347375	-4.8378938954	-1.2240365852	 0.272853
H	-2.2023307605	-2.993315956	 1.9283039701	 0.104769
15.4731	80.6807	141.974	224.8349	266.5642	354.8289	404.3442	513.2584	639.7707	695.1802	751.2674	800.2915	879.5181	954.9343	992.3839	1015.2806	1050.7976	1063.4696	1161.3161	1165.7391	1185.1219	1220.2174	1240.006	1254.0814	1317.489	1355.5456	1415.0886	1439.8026	1480.5976	1484.466	1497.9456	1503.3442	1527.7895	1621.3002	2935.882	2950.9157	2969.8974	3012.4974	3115.5523	3238.1009	3283.7582	3678.9858
COCC1=CNN=C1	COCc1c[nH]nc1	
InChI=1S/C5H8N2O/c1-8-4-5-2-6-7-3-5/h2-3H,4H2,1H3,(H,6,7)	InChI=1S/C5H8N2O/c1-8-4-5-2-6-7-3-5/h2-3H,4H2,1H3,(H,6,7)
