13
gdb 5016	3.34736	2.46151	1.41844	2.1775	65.85	-0.1977	-0.0346	0.1631	802.2411	0.098882	-394.825035	-394.818739	-394.817795	-394.855345	24.636	
O	-0.0871159996	 1.2781530235	 0.2288121036	-0.405683
C	 0.0045782606	-0.0542450228	 0.0584247648	 0.361296
N	 1.155598623	-0.6192531462	-0.0459679969	-0.346334
C	 1.2009778503	-1.9905812948	-0.2199477539	-0.077763
C	 0.070104783	-2.7272416014	-0.2800561394	-0.006776
N	-1.1469686691	-2.1047315411	-0.1665466587	-0.329355
C	-1.3045554887	-0.73658787	 0.0103605822	 0.310567
N	-2.4742869043	-0.2264348626	 0.1084643169	-0.558114
H	 0.8207667106	 1.6124635548	 0.2446750785	 0.303621
H	 2.1802447026	-2.4408980686	-0.3049287802	 0.115652
H	 0.0549595764	-3.8002390618	-0.4147481953	 0.131763
H	-2.0069199239	-2.6317215245	-0.207985662	 0.267623
H	-2.4009305009	 0.7805944957	 0.2331491105	 0.233502
126.1969	272.9008	331.4222	420.5153	504.131	545.3369	554.6244	576.1579	586.0207	657.1791	752.1673	774.6157	777.4707	823.2683	892.632	925.7015	1062.0422	1078.2367	1166.884	1227.8741	1285.8747	1357.2641	1408.3054	1447.8835	1488.4721	1615.7397	1665.7966	1707.5436	3217.9469	3236.4892	3526.9508	3622.0004	3768.3695
OC1=NC=CNC1=N	OC1=C(NCC=N1)[NH]	
InChI=1S/C4H5N3O/c5-3-4(8)7-2-1-6-3/h1-2H,(H2,5,6)(H,7,8)	InChI=1S/C4H6N3O/c5-3-4(8)7-2-1-6-3/h2,5-6H,1H2,(H,7,8)
