18
gdb 46057	3.71087	1.04003	0.88671	4.4014	72.53	-0.2414	0.0322	0.2736	1299.2219	0.14896	-439.109937	-439.101739	-439.100795	-439.143675	30.344	
O	-0.5884482917	-0.1321460639	 0.1695061949	-0.374155
C	-0.3422562572	 1.0520013351	 0.1350351287	 0.404159
C	-1.3159503961	 2.2116973388	 0.3733048478	-0.330639
C	-0.4294283641	 3.4658912411	 0.4495939406	-0.240687
C	 0.8996941559	 3.0629098895	-0.2498727102	-0.019928
N	 0.877160389	 1.6141190162	-0.1464553073	-0.293461
C	 0.9823200568	 3.5245732252	-1.6903647539	 0.091
C	 1.75745238	 4.7083240563	-2.0784807771	-0.183669
O	 2.2637160051	 3.3918962651	-2.3097675363	-0.238229
H	-2.0152534694	 2.2395984868	-0.4693321503	 0.132388
H	-1.9066590925	 2.0304419467	 1.2729073654	 0.134116
H	-0.877235462	 4.3447609952	-0.0200896795	 0.11258
H	-0.220863221	 3.7219028614	 1.4912354875	 0.120202
H	 1.7695121918	 3.4689207282	 0.2794288377	 0.088981
H	 1.6386819416	 1.0402146455	-0.4748393933	 0.25933
H	 0.1475520451	 3.2193088181	-2.3248766002	 0.099327
H	 1.4801149578	 5.2674993138	-2.9703590368	 0.121914
H	 2.2824312108	 5.2821427609	-1.3154858475	 0.116771
63.2752	79.5663	115.5365	204.9123	312.785	351.8155	443.3029	504.0991	515.5411	592.1487	653.8192	746.2378	795.7742	838.9536	863.9379	892.9641	926.8924	961.1555	1007.3822	1024.573	1085.8514	1109.2489	1113.235	1158.6116	1166.5713	1196.7288	1228.9963	1250.1633	1282.2669	1294.0253	1298.9979	1336.3554	1366.3555	1431.3311	1456.1963	1472.2178	1499.3949	1528.8937	1833.694	3034.7297	3058.9547	3069.7708	3084.6925	3093.8999	3108.3489	3123.6943	3172.3534	3635.7403
O=C1CCC(N1)C1CO1	O=C1CC[C@@H](N1)[C@H]1CO1	
InChI=1S/C6H9NO2/c8-6-2-1-4(7-6)5-3-9-5/h4-5H,1-3H2,(H,7,8)	InChI=1S/C6H9NO2/c8-6-2-1-4(7-6)5-3-9-5/h4-5H,1-3H2,(H,7,8)/t4-,5-/m1/s1
