22
gdb 58497	2.29031	1.15273	0.983	3.2561	83.67	-0.2447	-0.0265	0.2182	1344.5643	0.191481	-404.344861	-404.334408	-404.333464	-404.380289	38.455	
C	 0.4122111562	 0.261855904	-2.6325990959	-0.407128
C	 0.2654055304	-0.453180714	-1.2807932853	 0.00002
C	 0.8464732605	 0.3802177159	-0.1295974493	-0.404643
C	-1.1869585341	-0.8646928123	-1.0210076388	 0.330863
C	-2.2167644925	 0.2504981921	-0.9651182354	-0.477187
N	-1.5801646368	-2.1228321423	-1.6514405879	-0.37316
C	-1.4926099262	-2.0791543803	-0.1737696869	-0.171752
C	-0.4448932668	-2.9318906007	 0.4523634396	 0.164995
O	-0.4560658429	-3.2484240205	 1.6169084777	-0.265558
H	 1.4695316845	 0.4232309739	-2.8646418093	 0.115535
H	-0.0229713711	-0.3361607432	-3.4391589865	 0.125197
H	-0.073730315	 1.2433924471	-2.6308566007	 0.113951
H	 0.8399688589	-1.3824329368	-1.3507335048	 0.083048
H	 0.3507588304	 1.3532206421	-0.0443202462	 0.115542
H	 0.7443282958	-0.1341893477	 0.8314428917	 0.126674
H	 1.9110651719	 0.5716726244	-0.2963404627	 0.117517
H	-2.2855653481	 0.7680590713	-1.9274439017	 0.130957
H	-3.208173725	-0.1469814837	-0.7265761794	 0.117602
H	-1.9662836167	 0.9949551069	-0.203564772	 0.13508
H	-2.5562587955	-2.1040912617	-1.937598887	 0.234849
H	-2.407523221	-2.0290192477	 0.4125093434	 0.099205
H	 0.354389753	-3.272476237	-0.2400512727	 0.088392
55.5685	81.8162	141.9943	202.0777	214.3706	234.292	251.7682	271.186	289.3578	337.9878	402.61	423.98	482.3456	498.2245	566.677	666.2179	822.0379	866.574	929.2583	932.1935	964.9787	967.6045	982.2812	1018.2334	1048.8815	1061.6014	1113.185	1128.8648	1148.2745	1196.143	1222.1892	1263.2451	1332.4915	1348.878	1364.506	1388.8903	1399.2146	1414.8722	1424.4491	1452.7403	1480.7977	1489.3327	1499.1192	1501.5509	1509.7548	1514.0611	1814.0689	2903.7694	3032.0133	3033.8834	3039.2192	3051.9358	3096.5735	3102.317	3105.6356	3106.691	3110.2378	3111.487	3139.5903	3496.507
CC(C)C1(C)NC1C=O	CC(C)[C@@]1(C)N[C@H]1C=O	
InChI=1S/C7H13NO/c1-5(2)7(3)6(4-9)8-7/h4-6,8H,1-3H3	InChI=1S/C7H13NO/c1-5(2)7(3)6(4-9)8-7/h4-6,8H,1-3H3/t6-,7+/m0/s1
