20
gdb 14206	2.68969	2.35946	1.80632	0.4674	79.21	-0.2279	0.0937	0.3215	870.2627	0.177482	-311.833241	-311.825591	-311.824647	-311.864496	30.318	
C	-0.122661856	 1.4437896937	 0.0062126239	-0.507353
C	 0.0172084605	-0.0493309345	-0.0231954545	 0.306981
C	 0.9525105172	-0.8771781571	-0.904066147	-0.278045
C	 0.1096729621	-2.1075544809	-0.4759826496	-0.108408
C	 0.4109777551	-2.2591607332	 1.0393129761	-0.231152
C	-0.3134325541	-0.9268488447	 1.2049451713	-0.154752
C	-1.067608115	-1.1050452111	-0.098158094	 0.317824
C	-2.5188187787	-1.0565757188	-0.4453888072	-0.53184
H	 0.7671336539	 1.9208292395	 0.434735445	 0.118299
H	-0.2641965173	 1.8521242935	-1.0014338939	 0.114005
H	-0.9821582875	 1.7525669865	 0.6115966355	 0.114587
H	 0.8121387588	-0.6328880016	-1.9621646678	 0.089309
H	 2.0257313124	-0.8958939483	-0.6741503274	 0.079715
H	 0.0277660495	-2.9807056022	-1.1212255583	 0.063463
H	-0.1566290813	-3.0797226135	 1.4884302539	 0.093395
H	 1.4637158978	-2.3370327879	 1.3378151658	 0.082491
H	-0.6781674024	-0.4700356707	 2.1177838788	 0.074096
H	-2.9972716642	-0.1805655391	 0.0070256886	 0.120346
H	-2.6759208585	-0.9941423695	-1.52909008	 0.117712
H	-3.0531679723	-1.9441462101	-0.0855841293	 0.119327
171.3083	194.8314	205.8091	219.5791	294.1058	307.1404	423.9764	499.804	587.0011	637.8841	706.9809	743.3433	819.7873	874.7441	897.6978	925.2122	938.065	973.0958	982.9017	996.3856	1041.2944	1085.3051	1103.0437	1122.9118	1132.7037	1153.9636	1175.847	1206.2364	1221.0514	1236.427	1267.5575	1292.3945	1346.2887	1411.8215	1416.681	1462.2421	1482.3265	1488.3592	1493.0347	1496.4362	1501.8815	1516.0242	3013.3504	3014.2042	3017.8552	3024.5231	3070.1496	3074.5999	3076.9005	3083.2951	3084.8951	3087.1323	3126.14	3178.9084
CC12CC3CC1C23C	C[C@@]12C[C@H]3C[C@@H]1[C@@]23C	
InChI=1S/C8H12/c1-7-4-5-3-6(7)8(5,7)2/h5-6H,3-4H2,1-2H3	InChI=1S/C8H12/c1-7-4-5-3-6(7)8(5,7)2/h5-6H,3-4H2,1-2H3/t5-,6+,7-,8+/m1/s1
