20
gdb 119927	2.52494	0.96203	0.8609	3.8371	80.56	-0.2717	0.0263	0.2981	1462.6092	0.169725	-403.153831	-403.143798	-403.142853	-403.189384	35.998	
C	-0.120140192	 1.5394988984	 0.0407625617	-0.383264
C	-0.1828691356	 0.0253500466	-0.1745741445	-0.165819
C	 0.9471860279	-0.4893240505	-1.0773852866	-0.195705
C	 0.9031166009	-1.9929762153	-1.2474885289	-0.057388
C	 0.0338873918	-2.6302667735	-2.282693582	 0.094963
O	-0.7046077679	-1.7738701676	-3.0855037375	-0.40185
C	 1.5586468287	-2.6854866237	-2.4497501978	-0.267713
C	 2.1549442004	-1.9159509201	-3.5005634038	 0.293945
N	 2.6249959089	-1.3144153293	-4.3708182719	-0.346467
H	 0.8232616594	 1.8346170269	 0.5135206502	 0.114336
H	-0.1947462344	 2.0763592916	-0.9110803779	 0.121475
H	-0.9366464843	 1.8838154594	 0.6828026843	 0.11246
H	-0.1379373118	-0.4863509219	 0.7961704268	 0.09045
H	-1.1449696004	-0.2470622764	-0.6240025501	 0.115068
H	 0.8803275151	-0.0065294741	-2.0562231125	 0.130779
H	 1.9197237194	-0.2086373878	-0.6534301578	 0.102299
H	 1.008451521	-2.5575254974	-0.3245300442	 0.1031
H	-0.4456171949	-3.5797781858	-2.0459828992	 0.10315
H	-0.6574030017	-2.0768582297	-3.9991691112	 0.303644
H	 2.0419898695	-3.6402735598	-2.2709376771	 0.132538
73.6419	80.9855	92.1323	125.5538	200.4901	238.2926	258.0083	275.7039	356.2946	368.8192	402.8274	572.377	617.4108	661.7729	749.4136	770.6261	795.4335	866.8931	893.4782	919.6128	990.5053	1018.6134	1046.9743	1064.3193	1114.6292	1128.1407	1151.4493	1192.6502	1238.6653	1268.7696	1302.4614	1312.8389	1334.1036	1358.8698	1381.4748	1407.7191	1414.9874	1454.7831	1483.6234	1493.5207	1500.3092	1510.0294	2348.112	3018.3766	3029.9871	3032.7773	3060.5231	3095.0488	3103.1437	3104.4223	3104.969	3144.7401	3167.4149	3802.0976
CCCC1C(O)C1C#N	CCC[C@H]1[C@@H](O)[C@H]1C#N	
InChI=1S/C7H11NO/c1-2-3-5-6(4-8)7(5)9/h5-7,9H,2-3H2,1H3	InChI=1S/C7H11NO/c1-2-3-5-6(4-8)7(5)9/h5-7,9H,2-3H2,1H3/t5-,6+,7-/m1/s1
