19
gdb 64461	2.26008	1.67597	1.2295	1.7359	71.27	-0.2297	-0.0279	0.2018	1076.5722	0.158471	-460.183534	-460.174682	-460.173737	-460.216823	33.817	
C	 0.0940961934	 1.5705907613	-0.0862036761	-0.444038
C	 0.125369829	 0.0495973558	-0.0102126016	 0.257468
O	-1.2046888766	-0.4918159787	 0.1104343538	-0.465934
C	 0.7198735924	-0.5959044352	-1.2676787268	-0.223194
C	 0.9373516563	-2.0950729255	-1.0772006448	-0.087676
O	 1.817268251	-2.3346469148	 0.0126057176	-0.248769
C	 1.2685111709	-1.9221893277	 1.2476861986	-0.173406
C	 0.849912491	-0.4520090442	 1.2613085874	 0.344833
O	 0.9790840985	 0.2381132212	 2.2454269832	-0.314446
H	 1.100011917	 1.977447943	-0.2252699574	 0.126143
H	-0.5326787331	 1.884057149	-0.9256975758	 0.120549
H	-0.3031200014	 1.9932965199	 0.840607669	 0.128626
H	-1.6285778528	-0.0561963893	 0.8591797534	 0.289782
H	 0.0441343856	-0.4065652952	-2.1096089478	 0.109167
H	 1.6825966518	-0.1237206144	-1.4917203479	 0.110732
H	-0.0248046003	-2.603118828	-0.9147457171	 0.109685
H	 1.4167130862	-2.5351188575	-1.9556491574	 0.110136
H	 0.3795085841	-2.5240582516	 1.5067870579	 0.117098
H	 2.026086907	-2.0774708081	 2.0185925819	 0.133243
64.3853	155.1571	201.6535	236.9333	288.3781	311.231	347.9298	377.2931	388.9418	460.2463	467.4835	515.015	582.917	658.6371	696.8523	829.9121	875.7046	933.4681	972.4389	987.6867	1012.7142	1030.5679	1110.141	1126.9723	1160.5253	1181.0506	1207.6884	1238.2607	1300.5425	1323.0824	1339.5369	1361.6169	1399.0334	1404.5956	1408.0661	1461.4911	1463.9459	1482.6518	1494.2123	1502.1856	1814.5155	2957.3165	3002.7876	3038.0265	3045.5698	3087.2344	3096.6958	3114.9904	3119.145	3125.9625	3797.2588
CC1(O)CCOCC1=O	C[C@@]1(O)CCOCC1=O	
InChI=1S/C6H10O3/c1-6(8)2-3-9-4-5(6)7/h8H,2-4H2,1H3	InChI=1S/C6H10O3/c1-6(8)2-3-9-4-5(6)7/h8H,2-4H2,1H3/t6-/m1/s1
