16
gdb 29823	3.21285	1.36769	0.96504	3.5086	76.83	-0.1945	-0.0379	0.1566	1157.2268	0.124817	-437.950031	-437.941648	-437.940704	-437.983197	30.872	
C	-0.0309017572	 1.4446222815	-0.0067340192	-0.33
N	-0.0257926349	-0.0146370375	 0.0030005848	-0.136625
C	-1.1949216885	-0.7169085643	-0.1037296836	-0.025784
C	-1.2073042076	-2.0800808595	-0.0961933198	 0.264245
O	-2.4096820222	-2.7286025349	-0.2064019939	-0.450177
C	 0.032605551	-2.7599650022	 0.0260967731	-0.173552
C	 1.1995345005	-2.0654543958	 0.1326627808	-0.239605
C	 1.2429299872	-0.6190959439	 0.1275943333	 0.42487
O	 2.2473140461	 0.078262832	 0.2187302446	-0.425668
H	 0.5786048387	 1.8135077777	-0.8351625848	 0.15613
H	-1.0564982761	 1.8006092192	-0.1076177455	 0.125376
H	 0.4100070441	 1.824736592	 0.9179431569	 0.156064
H	-2.1080261099	-0.1434662734	-0.1942550775	 0.134197
H	-2.2549094393	-3.6773499179	-0.1858271324	 0.299117
H	 0.042993153	-3.8482284726	 0.0340332656	 0.101272
H	 2.154810145	-2.5662114203	 0.2267235878	 0.12014
76.3405	131.6434	157.7751	192.9567	312.16	339.0447	363.3709	415.4452	458.5646	525.6722	547.3888	609.153	723.4143	743.0392	818.2727	844.522	864.32	955.5399	969.9274	1067.5707	1136.2379	1152.8974	1164.9984	1210.4667	1222.4326	1312.1405	1337.9287	1429.312	1458.4433	1465.0917	1488.6664	1513.294	1578.4707	1686.1672	1758.5277	3056.773	3122.2772	3145.1899	3153.9396	3216.9058	3218.9175	3843.0414
CN1C=C(O)C=CC1=O	Cn1cc(O)ccc1=O	
InChI=1S/C6H7NO2/c1-7-4-5(8)2-3-6(7)9/h2-4,8H,1H3	InChI=1S/C6H7NO2/c1-7-4-5(8)2-3-6(7)9/h2-4,8H,1H3
