14
gdb 17941	3.48771	2.4185	2.14589	2.217	61.23	-0.2295	-0.0028	0.2267	692.4907	0.107683	-382.483028	-382.477086	-382.476142	-382.5126	24.513	
O	-0.0894522615	 1.4277689394	-0.0161885099	-0.456403
C	 0.0294504406	 0.0624507862	-0.0012984997	 0.311029
C	-0.9822180033	-1.0074542399	-0.0061935633	 0.049697
O	-0.447504537	-1.7289406611	-1.0753396317	-0.28352
C	 0.7940535491	-0.8927028152	-1.005020915	-0.034632
C	 1.7584025803	-1.6768683947	-0.1716460856	-0.107213
C	 1.2893983631	-1.7027087305	 1.0894184144	-0.057997
C	 0.0865266187	-0.8552896717	 1.1961890161	-0.22357
H	 0.6428846973	 1.8032325762	 0.4874413743	 0.29162
H	-2.0439670621	-1.0726462739	 0.1942917289	 0.122847
H	 1.074674277	-0.545990872	-1.997737389	 0.089345
H	 2.5830395949	-2.2520331241	-0.5704729226	 0.102956
H	 1.6702087574	-2.3117906333	 1.9004037641	 0.104242
H	-0.3431408446	-0.5320461354	 2.1369283291	 0.091599
239.7921	312.9334	355.3293	397.4672	458.3392	569.6297	604.9906	650.23	738.7536	753.0186	797.293	812.2227	876.5076	888.7552	927.4956	948.7592	979.9484	1024.2648	1058.5335	1090.0771	1120.0093	1134.6476	1196.1662	1207.329	1266.2949	1309.2231	1317.9978	1367.7617	1498.9809	1613.2227	3141.9095	3190.6263	3202.6775	3208.0507	3230.3554	3777.6354
OC12C3OC1C=CC23	O[C@@]12[C@H]3O[C@@H]1C=C[C@@H]23	
InChI=1S/C6H6O2/c7-6-3-1-2-4(6)8-5(3)6/h1-5,7H	InChI=1S/C6H6O2/c7-6-3-1-2-4(6)8-5(3)6/h1-5,7H/t3-,4-,5+,6-/m1/s1
