19
gdb 38166	2.58404	1.9225	1.27571	1.5994	80.12	-0.233	0.0157	0.2486	1008.3258	0.161525	-385.867826	-385.860609	-385.859665	-385.899452	29.157	
C	-0.0122387225	 1.4803519467	 0.0729353013	-0.360723
C	 1.3385206714	 0.7736417919	-0.0077328443	-0.139397
C	 2.1528087844	 0.6030265874	 1.2245157737	-0.064196
C	 1.9768255273	-0.4234832064	 2.0600682833	-0.067577
C	 0.9712090422	-1.5322112194	 1.8287588196	-0.284595
C	-0.2462236752	-1.0445117812	 1.032462149	 0.077683
O	-0.6998650605	-1.9724524305	 0.011414081	-0.302748
C	-0.4913922852	-1.0033413274	-1.0443510772	-0.1604
C	 0.0651077436	-0.0071716583	-0.0391491914	 0.293348
H	-0.3100195876	 1.9084809781	 1.0253682622	 0.115936
H	-0.3349255807	 2.0411467784	-0.7992549534	 0.112708
H	 1.8856520163	 0.9103089245	-0.9378716542	 0.093007
H	 2.9041688078	 1.3588765991	 1.4407084666	 0.088785
H	 2.5921081423	-0.4979793586	 2.9528289373	 0.089302
H	 1.4392538715	-2.343721082	 1.2558589624	 0.126018
H	 0.663754396	-1.9704833107	 2.7837822629	 0.104957
H	-1.0724837789	-0.7755705348	 1.7044207773	 0.075531
H	 0.2018496597	-1.3717843763	-1.8115876741	 0.101626
H	-1.4360192518	-0.7133801806	-1.523961372	 0.100735
85.8755	171.407	285.2269	312.9823	392.4474	457.583	480.1235	517.3829	570.5154	721.4019	776.9549	796.7282	825.7618	866.29	909.8665	933.003	966.8925	986.3689	995.9521	1012.1495	1033.8981	1043.8901	1067.2514	1088.8675	1107.8249	1111.5511	1151.262	1196.1045	1205.5387	1233.6317	1257.0819	1301.1021	1332.1183	1359.9741	1378.0614	1405.5223	1442.4155	1480.4427	1499.3042	1524.2921	1703.666	2998.7117	3007.2032	3023.6126	3041.7985	3071.4834	3117.6733	3129.5248	3145.9977	3170.0436	3206.6082
C1C2C=CCC3OCC123	C1[C@H]2C=CC[C@@H]3OC[C@]123	
InChI=1S/C8H10O/c1-2-6-4-8(6)5-9-7(8)3-1/h1-2,6-7H,3-5H2	InChI=1S/C8H10O/c1-2-6-4-8(6)5-9-7(8)3-1/h1-2,6-7H,3-5H2/t6-,7+,8-/m1/s1
