18
gdb 97397	6.13401	0.73042	0.71367	1.223	78.	-0.2488	0.02	0.2688	1618.2649	0.145976	-439.000349	-438.991795	-438.990851	-439.03487	31.01	
C	-0.1578971341	 1.4211204461	 0.0682611729	-0.316438
N	 0.0769732806	 0.0015552258	-0.0945114305	-0.207291
C	 0.5631828202	-0.619752888	 0.8820695419	 0.127514
O	 0.8359465094	-1.9422704387	 0.788610953	-0.221614
C	 1.2507410776	-2.5918853841	 1.9652479428	 0.162812
C	 0.2951550528	-3.5836911968	 2.6929581446	 0.00634
C	 0.3916292476	-4.549144758	 1.4875194106	-0.227316
C	 1.8098250185	-4.0236545934	 1.8193103975	 0.00093
O	 1.5145832603	-4.199686801	 3.2604154199	-0.307734
H	 0.4100083563	 1.9757310366	-0.6872151501	 0.130827
H	-1.2173005564	 1.6395236098	-0.1069852711	 0.13002
H	 0.1165006347	 1.8113707837	 1.0620952893	 0.097391
H	 0.8167158064	-0.1741014237	 1.8566167589	 0.079141
H	 1.8240996254	-1.9416512097	 2.6313187286	 0.101845
H	-0.5341034971	-3.3860231552	 3.37182507	 0.100312
H	 0.2259947168	-5.5991095439	 1.7297343109	 0.11233
H	-0.0591469287	-4.2378864224	 0.5448343643	 0.128008
H	 2.7839354596	-4.350558447	 1.4572716064	 0.102923
32.7298	83.9659	123.6979	205.8314	263.2765	298.2593	353.5513	393.3243	478.0851	567.5523	698.4853	742.3539	827.2719	876.6474	899.9692	926.3805	950.433	978.9584	1014.8248	1045.0394	1063.9252	1102.6947	1115.0645	1141.6681	1146.6824	1170.2152	1175.3144	1199.2113	1223.4659	1234.2976	1260.1954	1296.7788	1364.5382	1416.2137	1450.9632	1480.9706	1481.503	1505.1627	1782.0389	2968.1581	2996.0641	3060.8433	3080.7345	3084.9219	3087.2982	3125.0927	3133.3198	3167.9244
CN=COC1C2CC1O2	CN=CO[C@H]1[C@H]2C[C@@H]1O2	
InChI=1S/C6H9NO2/c1-7-3-8-6-4-2-5(6)9-4/h3-6H,2H2,1H3	InChI=1S/C6H9NO2/c1-7-3-8-6-4-2-5(6)9-4/h3-6H,2H2,1H3/t4-,5+,6+
