15
gdb 61713	2.61301	1.16396	1.01058	3.4335	64.16	-0.2737	-0.0801	0.1936	1191.2154	0.10721	-494.928692	-494.919045	-494.918101	-494.963654	32.761	
C	 0.0018282795	 1.6048676633	-0.2269574902	-0.440196
C	 0.1373603155	 0.0810366744	-0.0487461256	 0.154642
O	 0.6509643299	-0.3143706485	 1.2152516914	-0.234206
C	-0.0611688291	-0.0757291074	 2.3499976011	 0.178266
O	 0.3341769519	-0.4410502987	 3.4127921867	-0.266153
C	-1.2107514126	-0.5949069162	-0.3604022638	 0.14366
O	-1.8486149573	-1.2110854644	 0.4464196795	-0.232044
C	 1.1469929234	-0.4641446604	-1.0709960084	 0.125347
O	 1.0626064824	-0.236472011	-2.2472308786	-0.244971
H	 0.9362949512	 2.0877483884	 0.0701524622	 0.155055
H	-0.1872514864	 1.8268689848	-1.2795620624	 0.16205
H	-0.8136039897	 2.012855034	 0.3750139526	 0.141775
H	-0.9894194766	 0.489765469	 2.1842947612	 0.098637
H	-1.5379344237	-0.4511363762	-1.4099630505	 0.127197
H	 1.9363615518	-1.0982592612	-0.6208653851	 0.130941
84.8605	97.9505	105.3056	150.9019	198.4757	229.5424	246.3546	289.368	327.3412	348.4005	416.0509	483.4917	616.5034	692.5732	845.3882	904.3474	940.8652	957.6219	1025.0251	1034.1028	1128.7815	1152.2297	1193.7179	1215.2135	1375.8579	1389.6762	1402.4512	1431.8349	1489.9771	1493.3594	1817.3532	1848.958	1871.4102	2940.5266	2948.999	3034.3061	3054.1103	3133.3194	3143.1664
CC(OC=O)(C=O)C=O	CC(OC=O)(C=O)C=O	
InChI=1S/C5H6O4/c1-5(2-6,3-7)9-4-8/h2-4H,1H3	InChI=1S/C5H6O4/c1-5(2-6,3-7)9-4-8/h2-4H,1H3
