14
gdb 45310	3.59173	1.52222	1.28023	3.3763	60.55	-0.2707	-0.0057	0.2649	944.7816	0.103549	-473.887225	-473.880769	-473.879824	-473.918667	24.44	
O	 0.0876611547	 0.0325102059	 0.2127610571	-0.312399
C	-0.0211381834	 1.2043907385	 0.0274680955	 0.421711
C	-1.2740889264	 2.0680902382	 0.0828598034	-0.36782
C	-0.7667459749	 3.5058574697	-0.0075913324	-0.057404
N	-0.6820027012	 4.1694305942	 1.3049086919	-0.256986
C	 0.5422343605	 4.441281527	 1.4788924393	 0.114891
O	 1.449935428	 4.1048604731	 0.5201253225	-0.208545
C	 0.7192255621	 3.349321281	-0.4453219588	 0.186286
O	 1.0562847236	 1.983019991	-0.3312272608	-0.217605
H	-1.9130090625	 1.7929416802	-0.761646009	 0.149396
H	-1.829559272	 1.8744332672	 1.0008569019	 0.165327
H	-1.3548720002	 4.1243577107	-0.6888704857	 0.108594
H	 0.9656759376	 4.9435498167	 2.3406520518	 0.157398
H	 1.0064282741	 3.7009002664	-1.4361992667	 0.117155
84.7191	122.4165	319.1536	397.2438	509.1364	539.8346	563.3823	630.6581	701.6238	816.9048	850.2445	867.8846	889.3388	919.6221	964.8765	993.561	1037.2107	1047.5283	1069.4382	1127.4917	1153.915	1191.0988	1257.2809	1300.2587	1311.1	1328.275	1352.7674	1392.5932	1453.7834	1703.1054	1903.3593	3073.1902	3088.3941	3122.3008	3140.8693	3228.3517
O=C1CC2N=COC2O1	O=C1C[C@H]2N=CO[C@H]2O1	
InChI=1S/C5H5NO3/c7-4-1-3-5(9-4)8-2-6-3/h2-3,5H,1H2	InChI=1S/C5H5NO3/c7-4-1-3-5(9-4)8-2-6-3/h2-3,5H,1H2/t3-,5+/m1/s1
