20
gdb 31952	4.39146	0.88213	0.77578	1.0333	84.82	-0.1734	0.0593	0.2327	1532.8548	0.17094	-403.182736	-403.173146	-403.172202	-403.217685	34.956	
C	-0.1610006795	 1.7903400001	-0.1862192819	-0.364277
C	-0.2641830825	 0.2577230404	-0.0759947203	-0.299135
C	 0.6079691666	-0.4851374783	-1.0359133974	 0.309849
C	 0.3065743491	-1.2646031562	-2.1239126042	-0.23123
C	 1.5280998661	-1.7267092046	-2.712919809	-0.296614
C	 2.5413770077	-1.2014549703	-1.9472455187	 0.405179
N	 1.9932686283	-0.4545602942	-0.9409094033	-0.384834
O	 3.8908033226	-1.278517923	-1.9921826129	-0.261626
C	 4.4037862469	-2.0681394804	-3.0502777629	-0.243359
H	 0.858574	 2.1385782263	 0.0113736611	 0.106796
H	-0.4338879153	 2.1250992777	-1.191376041	 0.124059
H	-0.8242587435	 2.2810903965	 0.5335121609	 0.109713
H	-0.0390773526	-0.0421295514	 0.9578878417	 0.098046
H	-1.2983834526	-0.0505901817	-0.2604901085	 0.112623
H	-0.6912693539	-1.4879671803	-2.4712050201	 0.085154
H	 1.6356031956	-2.3604935038	-3.5773807272	 0.089532
H	 2.5346522666	 0.0229600068	-0.241335293	 0.256619
H	 4.0574324948	-3.1066594516	-2.9716259635	 0.125536
H	 4.1006055868	-1.6662248898	-4.0255941772	 0.125581
H	 5.4908432488	-2.0371358523	-2.9634385126	 0.132388
55.5607	69.7993	136.8499	178.5414	203.9999	235.2208	279.8519	331.2525	407.8322	416.1304	483.0138	623.1463	652.4435	677.6454	697.9785	739.9098	781.0556	802.0817	943.9249	990.2416	1015.1324	1049.5447	1071.2073	1084.03	1096.4888	1184.1975	1204.5963	1232.944	1251.8007	1287.9418	1300.7389	1357.3128	1406.628	1429.6061	1465.9116	1478.2347	1482.6024	1484.2205	1496.6345	1503.6416	1511.1661	1577.2683	1644.1659	2998.8875	3006.938	3032.5967	3064.7401	3071.0288	3100.3813	3112.5141	3137.8161	3239.0705	3267.5816	3679.7615
CCC1=CC=C(N1)OC	CCc1ccc([nH]1)OC	
InChI=1S/C7H11NO/c1-3-6-4-5-7(8-6)9-2/h4-5,8H,3H2,1-2H3	InChI=1S/C7H11NO/c1-3-6-4-5-7(8-6)9-2/h4-5,8H,3H2,1-2H3
