18
gdb 77809	2.43852	1.49977	1.33512	3.8119	72.03	-0.2404	0.0156	0.256	1053.4985	0.148636	-439.116243	-439.108005	-439.107061	-439.148657	32.013	
C	-0.0296115504	 1.5229554752	-0.0030785122	-0.489351
C	 0.0048149855	 0.0159004928	 0.0412583112	 0.262485
C	-1.2922489968	-0.7400124001	-0.263880155	-0.241784
N	-1.1505887913	-1.9976293311	 0.4644567006	-0.353449
C	-0.1886179542	-1.9493863867	 1.4690962057	 0.417574
O	-0.1087237118	-2.722913707	 2.3944838392	-0.371673
C	 0.7053018913	-0.7904386816	 1.1469438665	-0.27643
C	 1.2483003508	-0.7557485992	-0.2778514634	 0.094316
O	 1.2918409557	-1.8552554785	-1.1277903553	-0.427028
H	 0.9516212073	 1.9455558323	 0.2329202053	 0.126071
H	-0.3113231594	 1.8805095935	-1.0004696409	 0.127658
H	-0.7501065096	 1.9297264866	 0.7157941336	 0.123012
H	-2.1607399446	-0.1655277886	 0.0858170631	 0.114651
H	-1.4121576586	-0.9149188188	-1.3401035239	 0.122364
H	-1.9384312099	-2.613717305	 0.6002277296	 0.253164
H	 1.2709571252	-0.3531545848	 1.9594413367	 0.10777
H	 2.1541205038	-0.1694674149	-0.3978313163	 0.114219
H	 0.5588568271	-2.443952604	-0.9029042546	 0.296431
123.0761	196.4519	197.6784	220.4378	242.3815	297.5095	436.5733	465.1441	478.8712	536.1181	547.4249	595.6214	681.5026	729.2419	784.7938	821.0605	886.9664	940.5061	966.4788	996.7103	1012.0397	1066.4468	1083.2785	1130.2916	1149.9342	1180.3197	1217.1261	1239.8742	1303.2254	1314.5	1335.0793	1389.7338	1417.9228	1434.5427	1473.5563	1489.7144	1498.2523	1524.9869	1834.5199	3007.347	3024.4683	3047.2284	3084.4849	3103.7907	3164.5782	3203.0698	3620.6477	3748.101
CC12CNC(=O)C1C2O	C[C@]12CNC(=O)[C@H]1[C@H]2O	
InChI=1S/C6H9NO2/c1-6-2-7-5(9)3(6)4(6)8/h3-4,8H,2H2,1H3,(H,7,9)	InChI=1S/C6H9NO2/c1-6-2-7-5(9)3(6)4(6)8/h3-4,8H,2H2,1H3,(H,7,9)/t3-,4-,6+/m1/s1
