15
gdb 48162	3.80395	0.93677	0.81385	1.1388	62.95	-0.264	-0.0936	0.1704	1353.394	0.110386	-494.897208	-494.888493	-494.887549	-494.932576	29.109	
O	-0.7834037324	 1.4085319951	 0.4827929816	-0.207873
C	 0.1534804649	 1.089517324	-0.1919353024	 0.093114
C	 1.4067232948	 1.9473337766	-0.3998001275	 0.336558
O	 2.3147280396	 1.5739215271	-1.1004063909	-0.340606
O	 1.354277564	 3.1021249604	 0.2655832837	-0.221955
C	 2.5116836661	 3.936154192	 0.1385104932	 0.082589
C	 2.6383656484	 4.7564128703	-1.1569483723	-0.084824
O	 2.6183460049	 5.9897925747	-0.4073723769	-0.269979
C	 2.3348625472	 5.294777426	 0.8251734474	-0.102474
H	 0.2231493675	 0.133830925	-0.7483012569	 0.120083
H	 3.3981848658	 3.3622674919	 0.409884897	 0.119079
H	 3.563571778	 4.6270311829	-1.7265519425	 0.123482
H	 1.7747684282	 4.6592210649	-1.826436262	 0.11298
H	 1.3124800238	 5.4684545196	 1.181839479	 0.123738
H	 3.0503550092	 5.5427823295	 1.6159834895	 0.116089
42.8922	64.2542	90.467	136.6998	149.508	239.1203	364.6598	429.3008	514.384	609.7032	654.4533	796.1978	876.66	887.6855	915.9874	985.9482	1029.3225	1031.977	1061.8979	1117.6426	1136.1717	1154.7193	1183.5639	1260.2223	1300.1285	1308.2643	1356.8073	1378.2995	1411.0886	1501.0078	1526.6223	1804.294	1843.4041	2951.3944	3023.231	3033.8057	3080.5898	3086.5685	3114.9498
O=CC(=O)OC1COC1	O=CC(=O)OC1COC1	
InChI=1S/C5H6O4/c6-1-5(7)9-4-2-8-3-4/h1,4H,2-3H2	InChI=1S/C5H6O4/c6-1-5(7)9-4-2-8-3-4/h1,4H,2-3H2
