20
gdb 91207	1.99173	1.63222	1.55723	3.4795	78.95	-0.2382	0.0308	0.269	1055.5791	0.170654	-403.169186	-403.160238	-403.159294	-403.202498	33.966	
C	-0.1768115784	 1.545926839	 0.0302760367	-0.411
C	 0.0560659549	 0.0413906132	-0.0046068678	-0.015071
C	 1.1685384316	-0.5313389865	-0.9394117615	-0.256474
C	 1.8184600614	-1.2559629607	 0.2701324926	-0.029409
N	 2.8067420581	-0.4620539761	 1.0027017026	-0.327875
C	 1.8872766826	 0.1766655834	 1.8145426839	 0.386646
O	 1.993788046	 1.0607874053	 2.623261352	-0.373253
C	 0.7253970295	-0.6620723568	 1.2318280044	 0.172858
C	-0.1362216803	-1.4417400327	 2.1965838042	-0.500137
H	 0.7465012541	 2.0944550915	 0.2396735195	 0.131559
H	-0.5680044694	 1.8960572987	-0.931349653	 0.111871
H	-0.9013593559	 1.8172061341	 0.8052038521	 0.123795
H	-0.892962487	-0.4659114375	-0.2093939683	 0.077069
H	 0.7912843579	-1.2049504243	-1.7124766636	 0.104906
H	 1.8167549265	 0.2117805105	-1.4121995309	 0.098581
H	 2.047575606	-2.3198329884	 0.1938240491	 0.083587
H	 3.7188170505	-0.1364833659	 0.7090901452	 0.241955
H	-0.7308618196	-0.7561311237	 2.8103331911	 0.138229
H	-0.8272524818	-2.1068232693	 1.6676309883	 0.115078
H	 0.4709486135	-2.0490860839	 2.8758369436	 0.127086
90.658	138.3511	180.8219	199.2683	214.4506	242.3642	326.9679	378.3178	407.5748	500.5825	527.6589	637.3713	682.4553	726.0013	761.6961	830.6624	866.8242	871.7842	905.4843	947.5602	1001.96	1036.7624	1095.6011	1110.3661	1117.8385	1143.0418	1173.977	1199.5085	1210.9679	1235.4479	1266.2758	1325.4179	1331.9683	1360.159	1374.9526	1408.4122	1416.1283	1477.3441	1488.6962	1490.0534	1491.4923	1494.6728	1877.9238	3027.7474	3031.5892	3038.8238	3058.0326	3095.7554	3097.0373	3098.0167	3099.4064	3108.5651	3115.1432	3572.3339
CC1CC2NC(=O)C12C	C[C@H]1C[C@H]2NC(=O)[C@@]12C	
InChI=1S/C7H11NO/c1-4-3-5-7(4,2)6(9)8-5/h4-5H,3H2,1-2H3,(H,8,9)	InChI=1S/C7H11NO/c1-4-3-5-7(4,2)6(9)8-5/h4-5H,3H2,1-2H3,(H,8,9)/t4-,5+,7-/m0/s1
