16
gdb 131783	4.76431	0.88525	0.79632	1.504	73.35	-0.2391	-0.075	0.1641	1391.3498	0.125382	-434.068684	-434.060509	-434.059565	-434.102779	29.007	
O	 0.0915121599	 1.4268533362	 0.2246157521	-0.409919
C	 0.034880987	 0.0157649685	 0.2725786862	-0.059262
C	-1.3386658779	-0.5299641206	-0.1687169828	-0.302446
C	-1.3944492456	-2.0282622396	-0.0820259418	 0.324518
C	-1.9676834367	-2.7107111675	 1.0000332395	-0.04589
N	-1.9699863542	-4.0332689134	 1.0596287985	-0.227234
C	-1.3842275591	-4.6359184456	 0.0185463909	 0.106267
N	-0.8258277559	-4.0432148229	-1.0345507806	-0.181234
N	-0.8341606068	-2.714736855	-1.0828189138	-0.2329
H	 0.0752959835	 1.6950385799	-0.6997707619	 0.287363
H	 0.8199369397	-0.4523914676	-0.3384436209	 0.115982
H	 0.2243514934	-0.2581165183	 1.3162140752	 0.116813
H	-2.1159085902	-0.0780263472	 0.4553455846	 0.118114
H	-1.5202066051	-0.2331576789	-1.2073892543	 0.121512
H	-2.4345057178	-2.1688600426	 1.820597568	 0.129336
H	-1.3577029743	-5.7215327655	 0.0187301112	 0.13898
37.464	100.8799	101.2373	238.4654	305.0818	345.4667	355.7228	391.6661	512.4785	643.4152	675.8849	784.3765	806.5297	862.7881	941.018	1004.2657	1020.8162	1034.3596	1067.0197	1079.4709	1100.5754	1140.3651	1166.8259	1229.3384	1268.7022	1311.9865	1319.6255	1394.4527	1410.5176	1418.4048	1444.9375	1480.0243	1510.3012	1551.5266	1605.9422	3005.1517	3045.6998	3070.1018	3102.243	3147.8338	3187.3029	3816.2132
OCCC1=CN=CN=N1	OCCc1cncnn1	
InChI=1S/C5H7N3O/c9-2-1-5-3-6-4-7-8-5/h3-4,9H,1-2H2	InChI=1S/C5H7N3O/c9-2-1-5-3-6-4-7-8-5/h3-4,9H,1-2H2
