21
gdb 116419	2.78357	1.25442	0.93325	3.7633	78.41	-0.2441	-0.0247	0.2194	1286.0154	0.184367	-424.268697	-424.260059	-424.259114	-424.302029	33.387	
O	 0.1011252741	 1.4173326363	-0.036898297	-0.43106
C	 0.0485418525	 0.0084417986	-0.0697044564	-0.074319
C	-1.3798714511	-0.5424827422	 0.0444199117	-0.107415
C	-1.4303762848	-2.0784320888	-0.1163831018	-0.210545
C	-2.843412282	-2.6433508334	 0.0698811384	-0.203172
C	-3.4163480952	-2.2532851705	 1.4374076297	-0.201047
C	-3.4123994992	-0.7240457447	 1.6285131963	-0.288407
C	-2.0474870503	-0.117393432	 1.3513611913	 0.398982
O	-1.5278537479	 0.667207638	 2.1209387888	-0.334303
H	-0.2266011502	 1.6586940399	 0.8396821732	 0.2929
H	 0.4779517465	-0.3038828486	-1.0283385036	 0.101235
H	 0.6668636079	-0.4392346054	 0.7255125579	 0.088377
H	-1.98490806	-0.0943824736	-0.759344926	 0.103066
H	-1.0346121147	-2.3468154326	-1.1022498745	 0.105246
H	-0.7573457121	-2.5359687403	 0.6220208951	 0.105468
H	-3.4989012181	-2.2625216803	-0.7251135462	 0.098832
H	-2.8269135782	-3.7336008316	-0.0342736323	 0.101005
H	-4.435406766	-2.6353822285	 1.5562999225	 0.104623
H	-2.8143102734	-2.7162810094	 2.2299967219	 0.108865
H	-4.1170005377	-0.2736199132	 0.9141880382	 0.121302
H	-3.7252523001	-0.4285657179	 2.6327927227	 0.120365
82.299	121.3979	172.1187	218.1872	286.4645	307.6473	355.5154	425.3549	463.8912	493.9947	577.8274	582.1593	656.2028	726.2549	821.9925	856.5864	894.4921	922.2246	936.2163	977.0283	1043.3226	1070.4593	1083.9405	1095.6907	1103.0728	1127.263	1147.5069	1214.1605	1240.299	1253.9441	1279.5213	1291.8003	1342.5847	1354.1101	1371.7172	1381.5121	1386.2285	1396.9201	1447.2322	1466.5555	1488.5768	1490.2677	1499.9681	1506.092	1784.3812	2971.0946	2994.751	3013.182	3014.9181	3019.7255	3028.48	3059.5808	3066.9975	3070.7874	3077.3515	3106.0126	3759.6953
OCC1CCCCC1=O	OC[C@H]1CCCCC1=O	
InChI=1S/C7H12O2/c8-5-6-3-1-2-4-7(6)9/h6,8H,1-5H2	InChI=1S/C7H12O2/c8-5-6-3-1-2-4-7(6)9/h6,8H,1-5H2/t6-/m1/s1
