18
gdb 9873	4.78	1.0961	1.00325	1.3548	74.69	-0.2511	0.0363	0.2874	1207.7612	0.150515	-347.743483	-347.734536	-347.733592	-347.777326	32.923	
C	 0.0664924529	 1.6239612946	 0.2102606876	-0.460774
C	-0.0376630928	 0.1232572145	 0.0449934751	 0.470682
C	 1.1608736215	-0.6810218839	-0.4020448675	-0.319803
C	 0.6419797537	-0.7865292436	 1.020325854	-0.314398
O	-1.2979682642	-0.3487604357	-0.3627751393	-0.289854
C	-1.6262419234	-0.0426887638	-1.7110372026	-0.229683
C	-2.8276586453	-0.7710135139	-2.0974620003	 0.287967
C	-3.8171279046	-1.3581227532	-2.4413071226	-0.422416
H	 1.0407102321	 1.8972171943	 0.6251572954	 0.119274
H	-0.0419556515	 2.1514832664	-0.7437422608	 0.1187
H	-0.7106574661	 1.9865798732	 0.8911213606	 0.12855
H	 0.9765983028	-1.5273574723	-1.0542458338	 0.119886
H	 2.0993575247	-0.1664840211	-0.5789255671	 0.111784
H	 1.2214705773	-0.3418432428	 1.8219554043	 0.111209
H	 0.1108441799	-1.6928629713	 1.2859181139	 0.127437
H	-1.7984148837	 1.036899469	-1.8407239534	 0.122088
H	-0.794168209	-0.3159248234	-2.3788601768	 0.120055
H	-4.6921573843	-1.8803910771	-2.7399491567	 0.199298
40.7962	111.9385	139.6192	220.8357	244.7928	321.3165	330.4137	339.191	404.9944	496.1977	518.4968	607.3969	672.8935	730.0314	779.8708	860.975	923.9535	929.1822	949.704	993.512	1030.8832	1039.0219	1057.7552	1077.8826	1085.6458	1134.996	1189.4845	1251.2994	1285.4903	1338.3589	1405.9217	1417.0504	1453.1376	1485.62	1491.475	1501.3902	1508.742	2247.5636	2977.0491	3000.1497	3033.5714	3095.4846	3114.1519	3132.8838	3139.5069	3217.7526	3233.6984	3506.2855
CC1(CC1)OCC#C	CC1(CC1)OCC#C	
InChI=1S/C7H10O/c1-3-6-8-7(2)4-5-7/h1H,4-6H2,2H3	InChI=1S/C7H10O/c1-3-6-8-7(2)4-5-7/h1H,4-6H2,2H3
