19
gdb 82255	3.05323	1.36824	1.05127	0.8467	90.97	-0.2163	-0.0177	0.1986	1168.926	0.159152	-348.729677	-348.721311	-348.720367	-348.76224	33.12	
C	-0.1789827197	 1.552624579	 0.0427505752	-0.393975
C	 0.0225582202	 0.0330668961	-0.0098143132	-0.112423
C	 0.81894237	-0.4747688925	-1.215552882	-0.048419
C	 2.2645537966	-0.0785345794	-1.355423326	-0.281451
C	 1.9071525462	-1.406121652	-0.7057815173	-0.074986
C	 1.7911070674	-1.3624396067	 0.7733744921	-0.192018
C	 0.8018883546	-0.5449651175	 1.1792406903	 0.165173
C	 0.4688790201	-0.2256268241	 2.515876936	 0.235356
C	 0.1405657509	 0.0729701287	 3.6373648366	-0.434927
H	 0.7791711308	 2.0805554673	 0.0176928569	 0.116607
H	-0.7750792172	 1.8918213083	-0.8101471117	 0.112556
H	-0.6994268123	 1.8423123152	 0.9602531842	 0.126751
H	-0.9731460159	-0.4331069904	-0.0197739905	 0.088484
H	 0.2741854707	-0.709747163	-2.1224581471	 0.08574
H	 2.6843189925	-0.1119861969	-2.3555328405	 0.111434
H	 2.673615741	 0.6981579833	-0.7180330673	 0.116588
H	 2.1785944826	-2.328462514	-1.2066993653	 0.089112
H	 2.4525341354	-1.9026519426	 1.4403361562	 0.101164
H	-0.1339959141	 0.3240038413	 4.6316310833	 0.189235
105.1867	140.5543	197.6308	227.7378	264.1946	351.0429	427.5833	472.889	520.1195	560.7501	576.4742	630.2013	639.2911	682.9272	773.1522	801.4454	808.5226	880.1439	898.426	936.9385	983.6624	1030.9828	1046.0252	1058.8736	1072.8271	1099.5871	1110.4239	1126.1109	1179.9039	1208.3177	1275.8747	1307.3799	1337.3009	1351.8451	1373.8371	1409.3852	1474.5502	1495.8206	1499.1809	1651.1166	2214.9605	2998.5555	3038.5478	3108.6945	3114.0716	3126.3426	3168.9743	3176.9684	3205.0051	3215.5001	3503.8308
CC1C2CC2C=C1C#C	C[C@H]1[C@H]2C[C@H]2C=C1C#C	
InChI=1S/C9H10/c1-3-7-4-8-5-9(8)6(7)2/h1,4,6,8-9H,5H2,2H3	InChI=1S/C9H10/c1-3-7-4-8-5-9(8)6(7)2/h1,4,6,8-9H,5H2,2H3/t6-,8-,9-/m1/s1
