15
gdb 74564	2.66598	1.61344	1.31475	4.5155	70.29	-0.2281	0.025	0.2531	982.8722	0.115173	-413.003374	-412.995797	-412.994853	-413.035371	29.197	
N	 0.0421521409	 1.3453989289	-0.0926681354	-0.585059
C	-0.0195784231	-0.0275243638	-0.0342169309	 0.413406
N	-1.1047539867	-0.7271622248	-0.0463783536	-0.301658
C	-0.7073215944	-2.0995689291	-0.0409029251	-0.02568
C	 0.8096391067	-2.1344464102	-0.0142460366	-0.040725
N	 1.1736490728	-0.7450577682	 0.025253201	-0.330183
C	 0.0344452848	-2.6436457523	 1.2004427336	-0.242308
C	 0.0523567341	-1.9212953469	 2.4361068001	 0.322308
N	 0.0805912604	-1.3287045534	 3.4296450524	-0.353564
H	 0.7573437449	 1.7582534374	 0.489490427	 0.263817
H	-0.8628586333	 1.7714622299	 0.0513001394	 0.270965
H	-1.3347233273	-2.8057506301	-0.5726263393	 0.107712
H	 1.459375425	-2.8111562589	-0.554369482	 0.115348
H	 1.9690353526	-0.4281715134	-0.5081713978	 0.254783
H	 0.0138028628	-3.7234894751	 1.3051984972	 0.130839
95.2843	143.9039	225.5577	342.304	358.9454	384.1342	413.1026	435.3638	613.6916	651.8365	676.406	681.7482	723.9052	776.3153	790.482	801.5293	935.9144	950.4284	997.3106	1014.5042	1062.1893	1083.1892	1099.9474	1164.379	1199.6173	1298.6092	1336.206	1353.4103	1395.5616	1496.2167	1620.5603	1699.2036	2350.4506	3165.4561	3174.8162	3195.0252	3564.9285	3617.4655	3665.3929
NC1=NC2C(N1)C2C#N	NC1=N[C@H]2[C@@H](N1)[C@H]2C#N	
InChI=1S/C5H6N4/c6-1-2-3-4(2)9-5(7)8-3/h2-4H,(H3,7,8,9)	InChI=1S/C5H6N4/c6-1-2-3-4(2)9-5(7)8-3/h2-4H,(H3,7,8,9)/t2-,3+,4-
