16
gdb 126789	4.59202	0.96657	0.85355	1.0539	82.41	-0.2397	-0.0198	0.2199	1351.9332	0.124709	-396.910586	-396.902125	-396.901181	-396.944783	30.524	
C	-0.0448218471	 1.5423346678	 0.0533594467	-0.380918
C	 0.0321565821	 0.01617577	 0.0165810104	-0.131139
N	 0.7259262817	-0.5285045018	 1.1767747178	 0.128135
N	 2.0358148733	-0.7619359231	 1.1692209877	-0.209226
C	 2.2885524102	-1.1700869117	 2.4100289417	-0.168527
C	 1.0855971124	-1.1622749602	 3.1448829501	 0.196505
N	 0.1045675145	-0.7420755141	 2.3246399919	-0.300879
C	 0.8642202402	-1.5219814914	 4.494194767	 0.280513
C	 0.710986591	-1.8336505774	 5.6460377376	-0.44035
H	 0.9571994643	 1.9794673295	 0.0617846594	 0.140511
H	-0.5751101082	 1.9076776693	-0.8308659748	 0.126622
H	-0.5820669957	 1.8782200642	 0.9439560778	 0.144854
H	-0.9651982024	-0.4282776893	 0.0100525398	 0.142332
H	 0.5816515318	-0.3324908015	-0.8595553421	 0.142447
H	 3.2808029528	-1.4518365809	 2.7219901864	 0.132598
H	 0.5669028391	-2.1074146493	 6.6617848028	 0.196522
29.6937	103.5057	145.0157	189.5383	224.3627	363.8844	389.7929	485.1448	546.0811	567.9146	588.7169	669.509	696.2774	719.7653	733.7417	798.4852	881.5082	973.421	1023.1399	1046.1888	1103.4191	1114.5645	1194.8621	1262.4581	1339.401	1379.9565	1387.1788	1396.6441	1409.7236	1421.7909	1476.1841	1489.0549	1505.6873	1525.7162	2244.0692	3048.769	3084.4083	3123.587	3125.7776	3148.5138	3279.0806	3504.2468
CCN1N=CC(=N1)C#C	CCn1ncc(n1)C#C	
InChI=1S/C6H7N3/c1-3-6-5-7-9(4-2)8-6/h1,5H,4H2,2H3	InChI=1S/C6H7N3/c1-3-6-5-7-9(4-2)8-6/h1,5H,4H2,2H3
