15
gdb 46650	2.40239	1.57977	1.40888	5.3328	69.14	-0.2354	-0.0376	0.1977	976.1011	0.114099	-416.816959	-416.809488	-416.808543	-416.849224	28.133	
O	 0.0282546455	 0.0121989059	 0.186356869	-0.308923
C	-0.024034248	 1.1997230514	 0.0046929051	 0.41413
C	-1.2965797149	 2.0125994175	-0.2998867956	-0.306658
N	-0.8660148091	 3.3458152151	-0.7558083639	-0.299745
C	 0.5630020406	 3.4539756087	-0.551460353	-0.014677
C	 1.0516054789	 3.3920035851	 0.8741311569	-0.208457
C	 0.1544945481	 3.4645880816	 1.9935652181	 0.318835
N	-0.5672406826	 3.5354549512	 2.894634378	-0.34052
C	 1.1385747698	 2.1498669296	-0.0398009907	-0.202724
H	-1.8938586339	 1.49365047	-1.0539157482	 0.140875
H	-1.8996136717	 2.0745790353	 0.6135444187	 0.170619
H	-1.0684000295	 3.46629832	-1.7395394511	 0.239308
H	 1.0944775334	 4.1010907338	-1.2381454926	 0.120951
H	 2.0158051225	 3.8539676988	 1.0591578617	 0.149808
H	 2.122700551	 1.7572796359	-0.2586381724	 0.127178
87.3612	134.3011	155.2018	260.4477	375.3129	442.2452	481.9654	596.6749	617.6212	634.1102	675.4213	743.4301	767.8343	784.499	858.7717	922.9413	963.4716	978.8253	1020.5012	1023.4474	1092.9593	1117.6348	1172.082	1190.3939	1215.1938	1291.5085	1297.8636	1361.047	1389.7548	1464.3628	1473.8031	1847.1108	2354.6834	3048.4487	3102.4227	3168.6439	3193.9439	3209.3858	3568.1793
O=C1CNC2C(C#N)C12	O=C1CN[C@H]2[C@@H](C#N)[C@@H]12	
InChI=1S/C6H6N2O/c7-1-3-5-4(9)2-8-6(3)5/h3,5-6,8H,2H2	InChI=1S/C6H6N2O/c7-1-3-5-4(9)2-8-6(3)5/h3,5-6,8H,2H2/t3-,5-,6-/m0/s1
