21
gdb 122687	5.2661	0.64093	0.5938	1.121	76.04	-0.2543	0.0807	0.335	1870.9	0.182061	-461.358682	-461.348705	-461.347761	-461.395955	34.37	
O	-0.1356261254	 1.4849848312	 0.0907906371	-0.421734
C	 0.0071271813	 0.0779329102	-0.0314212335	-0.074268
C	-1.3849819761	-0.5382941448	-0.0074516829	-0.16964
C	-1.3511030839	-2.0646953227	-0.1148317386	-0.224133
C	-2.7357242875	-2.6812456312	-0.0826123701	 0.221702
O	-3.4984154246	-2.2649283424	-1.2045245952	-0.265396
C	-4.3517206053	-3.3433483907	-1.5736013719	-0.088265
C	-3.9207007613	-4.5001237418	-0.6437600532	-0.113099
O	-2.6517454023	-4.0851221198	-0.1671754058	-0.249727
H	 0.7406758134	 1.8795374493	 0.0624614266	 0.284626
H	 0.5164340185	-0.1917531691	-0.9713824238	 0.084971
H	 0.611489732	-0.3345463702	 0.7939497538	 0.081623
H	-1.8814107541	-0.2335355198	 0.9222174321	 0.103807
H	-1.9730119011	-0.121247642	-0.8310538973	 0.126743
H	-0.8717134338	-2.381127493	-1.0480684335	 0.10823
H	-0.7762416991	-2.497364236	 0.7126905541	 0.106229
H	-3.273217274	-2.3976274425	 0.8443748155	 0.056779
H	-5.4052811199	-3.0725742634	-1.4318015947	 0.103333
H	-4.1893453682	-3.5735704484	-2.6324352875	 0.110871
H	-4.6299128341	-4.6245231692	 0.18832634	 0.098982
H	-3.8050514345	-5.4580044935	-1.1553444513	 0.118365
23.274	59.4847	78.6903	98.208	139.4517	199.9728	259.6331	280.6763	310.5907	464.2518	546.4961	703.1796	722.807	762.9311	838.2964	867.7499	930.5116	953.965	977.2413	1036.1269	1054.154	1058.8286	1078.8268	1091.4195	1144.831	1161.2988	1176.1077	1218.8644	1225.8638	1228.6701	1250.3716	1297.3338	1299.4988	1316.058	1341.9095	1374.1876	1376.3845	1402.1745	1440.4474	1464.8385	1477.4625	1501.4314	1516.0549	1528.6197	1532.9517	2901.4598	2955.2828	2980.9607	2991.5395	3023.6039	3033.5343	3040.3602	3062.468	3076.401	3099.2633	3107.319	3831.1775
OCCCC1OCCO1	OCCCC1OCCO1	
InChI=1S/C6H12O3/c7-3-1-2-6-8-4-5-9-6/h6-7H,1-5H2	InChI=1S/C6H12O3/c7-3-1-2-6-8-4-5-9-6/h6-7H,1-5H2
