16
gdb 5758	5.89544	1.4212	1.22708	3.7549	70.65	-0.2139	0.0312	0.2451	976.121	0.133571	-342.810008	-342.803178	-342.802234	-342.841728	25.761	
C	 0.4041100399	 1.5817560035	 0.1587177327	-0.252685
C	 1.219427288	 0.4159366164	-0.3301870551	-0.258739
C	-0.2270976597	 0.2134705223	 0.0917649865	-0.144433
C	-0.5559182227	-0.5071044602	 1.3359078923	 0.307468
C	-0.9212726037	-0.0965805314	 2.5946245064	-0.164862
N	-1.1412033058	-1.1701669657	 3.4279705777	-0.254066
C	-0.9176899848	-2.2295585691	 2.6868749491	 0.0094
N	-0.5622938061	-1.8891169781	 1.415122807	-0.303782
H	 0.6353714593	 1.9788413171	 1.1400556067	 0.125085
H	 0.0779395142	 2.324024743	-0.5604555453	 0.11544
H	 1.4522165742	 0.3535468676	-1.3874709031	 0.112568
H	 1.9903676521	 0.0301989182	 0.3272433762	 0.1201
H	-0.9266693173	 0.0633887878	-0.7284038189	 0.095743
H	-1.0432446954	 0.9182509257	 2.9419413017	 0.104695
H	-0.9961951542	-3.2578736579	 3.0077804914	 0.125979
H	-0.3199245479	-2.5191544592	 0.6686469849	 0.262091
46.4495	150.0281	184.2695	368.3256	443.317	530.8793	606.6572	683.9632	694.7966	794.0661	808.1632	830.4998	854.9158	899.04	922.1634	944.143	1011.606	1060.1679	1085.7331	1094.4517	1119.1722	1130.2141	1148.7713	1199.0792	1206.8028	1241.1842	1279.3097	1352.4334	1412.379	1425.8258	1466.9592	1501.4503	1505.0652	1619.2098	3114.9534	3136.11	3146.1001	3219.7829	3235.2457	3246.2755	3249.7325	3661.1614
C1CC1C1=CN=CN1	C1CC1c1cnc[nH]1	
InChI=1S/C6H8N2/c1-2-5(1)6-3-7-4-8-6/h3-5H,1-2H2,(H,7,8)	InChI=1S/C6H8N2/c1-2-5(1)6-3-7-4-8-6/h3-5H,1-2H2,(H,7,8)
