23
gdb 105455	2.56471	0.89088	0.74638	0.8556	91.98	-0.2538	0.058	0.3118	1619.7431	0.203645	-351.117696	-351.107227	-351.106283	-351.153634	39.142	
C	 0.9045507388	-0.1311788986	-1.204213054	-0.382386
C	-0.0491615651	-0.2043919171	-0.0052790199	-0.258418
C	 0.5949508473	-0.7167605477	 1.2780045194	 0.409514
C	 1.7314137814	 0.1118166402	 1.8596499963	-0.271304
C	 1.2921586433	 1.5199096154	 2.3225100261	-0.36009
C	 2.3747563349	 2.2708904714	 2.9453365171	 0.296594
C	 3.2874076068	 2.8648151662	 3.4549857642	-0.439616
C	-0.3032008999	-1.4284872876	 2.2647739834	-0.315005
C	 0.6887340655	-2.216277787	 1.4418424567	-0.322977
H	 1.3645633321	-1.1053446588	-1.4009141488	 0.118593
H	 0.3705376854	 0.1773808196	-2.1082642432	 0.112002
H	 1.7121533008	 0.5892409367	-1.0401261865	 0.119395
H	-0.494440653	 0.7841137375	 0.1686224371	 0.096839
H	-0.8879618919	-0.8651773417	-0.2557476965	 0.092835
H	 2.1583513214	-0.415164235	 2.7196874579	 0.105148
H	 2.544604563	 0.2152478208	 1.1323426558	 0.110428
H	 0.9027238745	 2.090299891	 1.4702528366	 0.130965
H	 0.4571100569	 1.4219999129	 3.0280681263	 0.131256
H	 4.084182525	 3.4012393036	 3.9070045801	 0.191381
H	-0.0999108121	-1.3067244754	 3.3240726219	 0.108858
H	-1.3572196318	-1.5240708766	 2.0253183335	 0.108036
H	 0.3038142003	-2.8411652214	 0.6423297004	 0.10837
H	 1.5569996462	-2.6285869183	 1.9452302261	 0.109582
52.5931	67.6058	120.1645	127.2354	205.0295	220.8844	268.3676	332.8567	341.9931	362.6224	407.2921	497.5853	514.7095	615.5095	634.7358	714.6731	761.193	785.2213	797.5543	894.5455	909.501	925.85	953.9182	977.9057	1016.0678	1031.4892	1046.1448	1050.8424	1080.3199	1094.1672	1118.9744	1185.787	1189.9066	1269.9671	1283.994	1299.2646	1336.6753	1348.7669	1377.1494	1402.0983	1409.8883	1467.8556	1473.4164	1486.3689	1490.4806	1501.836	1505.3566	1512.9026	2237.7496	3016.5147	3023.2672	3034.9944	3041.1968	3048.4979	3052.2279	3081.7039	3104.0828	3105.1747	3123.3982	3128.1796	3200.5989	3214.888	3507.9055
CCC1(CCC#C)CC1	CCC1(CCC#C)CC1	
InChI=1S/C9H14/c1-3-5-6-9(4-2)7-8-9/h1H,4-8H2,2H3	InChI=1S/C9H14/c1-3-5-6-9(4-2)7-8-9/h1H,4-8H2,2H3
