21
gdb 85892	1.81938	1.70303	1.14929	1.9877	78.85	-0.2467	-0.0286	0.2181	1186.4111	0.178679	-424.232641	-424.222496	-424.221552	-424.267935	37.085	
C	-0.3276123207	 1.1785837085	-1.372810239	-0.413005
C	 0.200646136	-0.1526698889	-0.864490777	 0.145422
O	 1.5691904734	-0.3806934205	-1.2518599217	-0.337619
C	 2.040244601	-0.4721828231	 0.1299475285	 0.416237
C	 2.6301617557	-1.8502364622	 0.4020355234	-0.430761
C	 3.0459366512	 0.6361880458	 0.4144902611	-0.4159
C	 0.5791767582	-0.2883550218	 0.6382301539	-0.226354
C	 0.189714726	 0.8065799188	 1.5936949886	 0.13861
O	 0.9202237507	 1.3412716918	 2.3894322235	-0.250192
H	 0.251621657	 2.0186686895	-0.977120202	 0.128479
H	-0.25389176	 1.2022675792	-2.4643624366	 0.134292
H	-1.3795308558	 1.3174285812	-1.1006577698	 0.116987
H	-0.4440429948	-0.9653503087	-1.2247872155	 0.078338
H	 3.5364139989	-1.9974936331	-0.1937799607	 0.125418
H	 2.8942471787	-1.9546537002	 1.4598929902	 0.122078
H	 1.918746815	-2.6387597285	 0.1397339758	 0.114165
H	 2.6299946022	 1.621886677	 0.1972711166	 0.118672
H	 3.360507849	 0.6263236704	 1.4602681678	 0.132336
H	 3.9227407867	 0.4869560879	-0.2243765518	 0.115374
H	 0.1727437261	-1.212327714	 1.0696649669	 0.106658
H	-0.8899707747	 1.0820702809	 1.542211848	 0.080763
47.6974	64.474	181.6005	207.6605	218.3387	233.3816	234.9154	260.2463	335.8867	364.9475	393.4705	442.4906	483.7965	640.8235	673.6772	729.2002	833.9677	869.262	925.3142	946.8846	962.3878	989.079	997.5951	1017.6209	1089.6024	1121.0235	1144.0933	1178.9498	1183.6003	1242.1049	1266.0053	1315.4748	1346.4041	1389.0031	1400.972	1406.9832	1415.8604	1430.7495	1469.0719	1478.8732	1482.8133	1491.5385	1493.43	1503.5197	1822.0026	2853.2634	3005.2183	3031.1762	3033.6452	3034.5325	3046.8006	3106.6305	3107.0493	3111.845	3113.7007	3120.9135	3139.4137
CC1OC(C)(C)C1C=O	C[C@H]1OC(C)(C)[C@H]1C=O	
InChI=1S/C7H12O2/c1-5-6(4-8)7(2,3)9-5/h4-6H,1-3H3	InChI=1S/C7H12O2/c1-5-6(4-8)7(2,3)9-5/h4-6H,1-3H3/t5-,6+/m1/s1
