15
gdb 20968	4.77286	1.62386	1.23386	5.4138	66.33	-0.2172	-0.012	0.2052	942.4512	0.117832	-395.953047	-395.94496	-395.944016	-395.985752	28.041	
C	-0.079790628	 1.4245401744	 0.0352241459	-0.338491
N	 0.1932596365	-0.0009486667	-0.0072546084	-0.156866
C	 0.0807681281	-0.7485191557	 1.237001583	-0.348587
C	 0.0689707514	-0.640513144	-1.195538156	 0.522438
C	-0.1137162268	-0.1555840384	-2.4821249139	-0.250837
N	-0.1125365088	-1.2396030964	-3.3041395005	-0.084181
N	 0.0338002931	-2.3183163856	-2.7038078184	-0.047575
O	 0.1576979422	-1.9570964749	-1.2348096957	-0.264374
H	 0.3431731958	 1.838591002	 0.9536607931	 0.137401
H	 0.399514991	 1.9222860091	-0.8114436878	 0.147575
H	-1.1558032421	 1.650977954	 0.0138069825	 0.130475
H	-0.9622013461	-0.8414483822	 1.5728821512	 0.129472
H	 0.4917631144	-1.7480936145	 1.100545436	 0.168381
H	 0.6509191014	-0.2334835822	 2.0152156821	 0.131861
H	-0.2452487321	 0.8459230912	-2.8479741731	 0.123308
93.7453	119.0435	144.7376	164.3377	220.8143	309.9317	368.2939	407.9542	561.2769	612.6842	662.4683	710.792	745.7984	938.2363	960.149	1051.3116	1087.6702	1130.0129	1155.2922	1172.6342	1236.1699	1260.1014	1362.5149	1419.6927	1450.8972	1464.732	1486.2266	1490.6326	1499.7998	1504.1853	1519.4942	1639.5007	2998.9563	3004.4931	3087.861	3088.4542	3127.7603	3160.0852	3303.5903
CN(C)C1=CN=NO1	CN(C)c1cnno1	
InChI=1S/C4H7N3O/c1-7(2)4-3-5-6-8-4/h3H,1-2H3	InChI=1S/C4H7N3O/c1-7(2)4-3-5-6-8-4/h3H,1-2H3
