19
gdb 70589	2.43268	1.83858	1.31142	1.3535	73.38	-0.2149	0.0737	0.2887	1010.0142	0.160418	-422.985656	-422.978106	-422.977162	-423.017062	31.33	
O	-0.0888295587	 1.3578499398	 0.078115109	-0.46878
C	-0.0280443852	-0.0451197598	 0.0651650425	 0.353087
C	-0.1919517342	-0.6764676004	 1.426131906	-0.383189
C	 1.1502653898	-0.7253995981	 0.7209434483	 0.062055
O	 1.6905427403	-1.8962446604	 0.1836513033	-0.253667
C	 0.7468464555	-2.7799325776	-0.4233996866	-0.113991
C	-0.0964380363	-2.109910271	-1.4960779508	-0.051118
C	-1.5571989267	-1.8072343188	-1.2441262578	-0.307002
C	-0.5470342682	-0.6943251174	-1.1925804795	-0.076555
H	 0.5503251039	 1.6870920593	-0.5640004281	 0.279397
H	-0.2713215114	 0.0180056819	 2.2543851275	 0.126049
H	-0.7921940377	-1.571410833	 1.5330633827	 0.116573
H	 1.9446932889	-0.1022476247	 1.117284256	 0.103432
H	 1.3530926956	-3.5791087779	-0.8555304997	 0.114954
H	 0.1140520725	-3.2360943771	 0.3514546989	 0.097354
H	 0.199588287	-2.3187058088	-2.5183088996	 0.090114
H	-2.2366813979	-1.831726865	-2.0886584017	 0.113755
H	-1.9948088641	-2.1556845335	-0.3141347144	 0.115279
H	-0.5546272232	-0.0020917576	-2.0292345361	 0.082252
171.3411	213.0423	274.5995	325.5093	351.0843	375.367	408.3921	444.7053	522.6199	535.2912	651.3022	699.2286	798.2879	818.7537	833.1944	893.6048	920.5234	935.4439	960.2454	976.6466	991.1247	1022.9982	1036.4754	1064.6961	1071.9284	1113.954	1120.9821	1168.3544	1191.7111	1217.9303	1229.2226	1274.3987	1292.0141	1339.1847	1371.0479	1389.3811	1413.6321	1421.1268	1478.7036	1487.7416	1508.5556	2997.3834	3098.4166	3130.842	3146.5003	3149.2425	3163.1689	3173.3968	3215.8252	3236.6515	3789.7389
OC12CC1OCC1CC21	O[C@]12C[C@H]1OC[C@H]1C[C@@H]21	
InChI=1S/C7H10O2/c8-7-2-6(7)9-3-4-1-5(4)7/h4-6,8H,1-3H2	InChI=1S/C7H10O2/c8-7-2-6(7)9-3-4-1-5(4)7/h4-6,8H,1-3H2/t4-,5-,6-,7+/m1/s1
