17
gdb 61755	4.05204	0.80408	0.71699	2.6876	74.06	-0.2454	-0.081	0.1644	1517.1203	0.132775	-455.145818	-455.135832	-455.134888	-455.182233	33.628	
C	-0.0194306212	 1.1629255871	 0.1541994751	-0.353256
N	-0.2660508493	-0.24422779	-0.1432302627	-0.112306
C	-0.218657328	-1.1134560835	 1.0223383954	-0.253253
C	-1.4721648232	-0.9704969719	 1.8701586869	 0.156345
O	-1.4986261535	-1.0898858429	 3.0657256561	-0.233128
C	 0.0800723406	-0.7857684754	-1.3697744947	 0.277725
N	 0.4602991435	-1.9980712354	-1.5024071905	-0.504489
C	-0.1669453718	 0.0775479073	-2.5981018506	 0.090987
O	 0.2602675224	-0.2295008802	-3.6803053248	-0.231163
H	 0.9862484365	 1.3151367748	 0.5729471803	 0.136929
H	-0.1103478754	 1.7834410176	-0.7369939299	 0.139417
H	-0.7482872836	 1.5215055663	 0.8878052151	 0.144832
H	-0.1624100754	-2.1472780936	 0.6639073551	 0.182572
H	 0.6660018051	-0.9328937072	 1.646979457	 0.128385
H	-2.3923644802	-0.765198835	 1.2752302159	 0.082955
H	 0.5835197915	-2.1966234417	-2.496518808	 0.242816
H	-0.815959688	 0.9659814836	-2.4693710156	 0.104634
46.465	67.917	76.1802	115.6412	142.7556	185.0507	286.9423	322.4899	348.1685	380.7676	431.4078	542.6347	578.395	668.0877	752.207	854.604	883.8619	976.0658	1025.6899	1050.2928	1073.3772	1091.7518	1150.7214	1191.4202	1233.6647	1302.5647	1344.7188	1389.0982	1407.2266	1452.9628	1459.3693	1479.8264	1484.7326	1523.6512	1678.2619	1821.3501	1841.4638	2868.1436	2934.105	3001.1502	3025.005	3078.9991	3086.4314	3148.9129	3476.8166
CN(CC=O)C(=N)C=O	CN(CC=O)C(=N)C=O	
InChI=1S/C5H8N2O2/c1-7(2-3-8)5(6)4-9/h3-4,6H,2H2,1H3	InChI=1S/C5H8N2O2/c1-7(2-3-8)5(6)4-9/h3-4,6H,2H2,1H3
