20
gdb 113111	5.93285	0.64591	0.6294	4.4692	79.24	-0.2549	0.0269	0.2818	1778.7014	0.169827	-440.263039	-440.253297	-440.252353	-440.29926	34.574	
O	 0.4286868281	 0.8077417906	-0.9361283742	-0.419536
C	 0.0655741898	-0.388976664	-0.2662611069	-0.078804
C	-1.3304631363	-0.1974728702	 0.3021883836	 0.012053
C	-2.4513157538	-0.1291229297	-0.7764352187	-0.258367
C	-2.7746719788	-1.6089571473	-0.4876325365	 0.153457
C	-1.9767661183	-1.5094524835	 0.8375532793	-0.282641
O	-4.159582582	-1.8993396063	-0.3832534577	-0.185574
C	-4.5708637082	-3.1410923147	-0.6994860684	 0.117353
N	-5.7711450565	-3.4816785901	-0.5078480542	-0.442932
H	 1.3094170448	 0.6947625766	-1.3051832928	 0.288077
H	 0.0793011086	-1.2500285877	-0.9565667828	 0.079357
H	 0.7657653264	-0.6204975257	 0.5531107131	 0.088005
H	-1.3099713017	 0.6401683767	 1.0026648424	 0.08514
H	-3.2838982392	 0.5045848478	-0.4631325823	 0.122127
H	-2.1540682426	 0.1422221207	-1.7909758957	 0.113273
H	-2.308014553	-2.2927804364	-1.2065439061	 0.080495
H	-1.3135177052	-2.3406665236	 1.0947235332	 0.09687
H	-2.6535461868	-1.3204273006	 1.6737823909	 0.12343
H	-3.7759713128	-3.7678594204	-1.1295036537	 0.080968
H	-5.9128335325	-4.4387109423	-0.8240545424	 0.227248
28.6409	62.9303	101.657	115.889	211.1877	239.9061	265.9713	306.0549	382.6766	445.8968	475.059	545.1087	748.345	809.5717	818.5627	835.0137	898.1991	936.125	949.6006	985.9973	1028.2456	1042.7382	1068.6347	1082.035	1100.6931	1145.3689	1166.428	1198.9477	1214.7012	1241.2377	1266.6716	1278.4485	1285.9573	1290.4271	1301.3232	1366.2837	1392.704	1430.4773	1461.3997	1468.8365	1494.2456	1520.1958	1744.1748	2951.0343	2980.9235	3006.909	3031.6207	3057.6602	3075.3095	3085.5062	3120.8137	3134.6206	3517.4708	3830.8328
OCC1CC(C1)OC=N	OC[C@H]1C[C@@H](C1)O[CH][NH]	
InChI=1S/C6H11NO2/c7-4-9-6-1-5(2-6)3-8/h4-8H,1-3H2	InChI=1S/C6H11NO2/c7-4-9-6-1-5(2-6)3-8/h4-8H,1-3H2/t5-,6-
