23
gdb 111518	3.16194	1.12696	1.02837	0.2069	90.09	-0.2377	0.0933	0.331	1314.4268	0.20604	-351.114513	-351.105598	-351.104653	-351.14812	35.148	
C	-0.3296718113	 1.3966519698	 0.1570976063	-0.370834
C	 0.2443373838	 0.0015323407	-0.1174972045	-0.208932
C	 0.8411635631	-0.632631961	 1.1240214116	 0.010852
C	 0.0591018209	-1.3035690426	 2.2247059548	-0.067298
C	-1.1209348834	-2.1297153891	 1.6835821582	-0.323944
C	-0.1192907187	-2.9271277283	 0.8220711111	 0.399424
C	-0.1182614843	-4.4157041425	 0.6501125737	-0.346131
C	-0.3025914721	-3.5115918437	-0.5501470521	-0.318672
C	 1.042110438	-2.108927744	 1.3561122483	-0.175704
H	 0.4412565909	 2.0748537336	 0.5401393962	 0.11041
H	-0.7440141872	 1.843990033	-0.7520117173	 0.107673
H	-1.1279578594	 1.3514588021	 0.905477876	 0.117561
H	-0.5353308699	-0.6423601627	-0.5353637851	 0.10667
H	 1.0220829929	 0.0691598607	-0.8894509356	 0.091658
H	 1.6696638036	-0.053325043	 1.5328234318	 0.077614
H	 0.1698919628	-1.0085604221	 3.2612554096	 0.080421
H	-1.5862715439	-2.7487547094	 2.4554284226	 0.102302
H	-1.9077455415	-1.5762896771	 1.1589092928	 0.093417
H	 0.8267828706	-4.9406980008	 0.7519311157	 0.109513
H	-0.9774371475	-4.9751667374	 1.0074349799	 0.107719
H	-1.2897065372	-3.4607178261	-0.9992478023	 0.107966
H	 0.5140946446	-3.4295170429	-1.2602907481	 0.109939
H	 2.0084572552	-2.5204047073	 1.6276249766	 0.078375
69.62	98.3526	180.5889	226.9692	239.8357	285.4264	310.2209	383.1265	479.0281	542.1748	599.5932	714.5851	769.8312	784.3847	798.2697	828.8541	860.3147	878.0341	916.6862	926.8272	957.4471	986.8722	994.4861	1008.1305	1029.5784	1052.911	1065.4247	1074.7665	1085.7146	1099.2911	1128.3156	1168.0536	1187.7992	1215.1791	1230.21	1252.2859	1286.3829	1292.9773	1320.393	1352.2635	1397.6363	1408.589	1448.9127	1463.1204	1480.8419	1497.3605	1499.7534	1503.9874	1509.4008	3024.2501	3029.3956	3035.4215	3074.2055	3090.3838	3097.2499	3102.2437	3108.4359	3117.4502	3123.1233	3161.5069	3180.4673	3195.2465	3211.0836
CCC1C2CC3(CC3)C12	CC[C@H]1[C@H]2CC3(CC3)[C@@H]12	
InChI=1S/C9H14/c1-2-6-7-5-9(3-4-9)8(6)7/h6-8H,2-5H2,1H3	InChI=1S/C9H14/c1-2-6-7-5-9(3-4-9)8(6)7/h6-8H,2-5H2,1H3/t6-,7+,8-/m0/s1
