16
gdb 34447	3.02432	1.80427	1.31633	5.0259	72.96	-0.2621	0.0159	0.278	945.981	0.126381	-400.713741	-400.707125	-400.706181	-400.744645	26.603	
N	-0.0254444442	-1.1294912769	 0.0526669024	-0.340279
C	-0.0254817033	 0.025814047	 0.0549762823	 0.224243
C	 0.0125192291	 1.4744864757	 0.0155920709	 0.396507
O	-0.8476090617	 2.0536981269	 0.9742848953	-0.327659
C	-0.6450377266	 3.4644558389	 0.7515402797	-0.116406
C	 0.370620493	 3.430147708	-0.3791699746	-0.08775
C	 1.3663107878	 2.2599942913	-0.0686792181	-0.114638
C	 1.4454220513	 1.9432115636	-1.5786443812	-0.265985
C	-0.0468078307	 2.2625322165	-1.3380605635	-0.114635
H	-1.5951826575	 3.9348019442	 0.474350069	 0.116609
H	-0.2670592843	 3.9324664113	 1.6674675437	 0.116611
H	 0.7471218212	 4.3632738631	-0.7964376918	 0.091261
H	 2.1598068664	 2.2473158819	 0.6783671513	 0.094897
H	 1.994850229	 2.6625457784	-2.1888518487	 0.108148
H	 1.6945976188	 0.9170327728	-1.8580825224	 0.12418
H	-0.8744069983	 2.2527595274	-2.0471868043	 0.094897
154.0652	162.2671	310.1979	399.0869	405.6208	526.4129	536.5295	565.1209	701.8367	734.4297	747.156	845.5276	910.789	916.3063	922.3505	968.0056	994.6308	1010.8459	1033.3058	1043.2935	1063.8198	1101.5646	1124.3409	1150.3982	1172.5565	1209.2469	1211.2764	1243.2785	1255.936	1277.6749	1314.3999	1365.5955	1521.3588	1521.8666	2365.4002	3033.6952	3068.8019	3076.0386	3120.7508	3121.4635	3131.3755	3136.264
N#CC12OCC3C1CC23	N#C[C@@]12OC[C@H]3[C@@H]1C[C@@H]23	
InChI=1S/C7H7NO/c8-3-7-5-1-6(7)4(5)2-9-7/h4-6H,1-2H2	InChI=1S/C7H7NO/c8-3-7-5-1-6(7)4(5)2-9-7/h4-6H,1-2H2/t4-,5-,6+,7+
