19
gdb 58427	2.08264	1.38877	1.25678	2.2507	67.02	-0.233	0.0554	0.2884	1134.2759	0.156792	-497.26799	-497.258306	-497.257362	-497.301885	37.206	
C	 0.0919631168	 1.5107825888	 0.1405694226	-0.427547
C	-0.0119800539	-0.0055122958	 0.0116571456	 0.064716
O	 0.7363993938	-0.6677064363	 1.0543263835	-0.440653
C	-1.4495931604	-0.5032161644	-0.0138393026	 0.244299
O	-2.3613884767	 0.1533484745	 0.8304575998	-0.465603
C	-2.000898406	-1.1664727215	-1.2736787197	 0.015872
O	-1.1872900314	-1.3231392525	-2.3896096004	-0.426986
C	-1.6635801013	-1.9987871674	-0.0562926461	 0.002439
O	-0.5505407903	-2.8297723535	-0.2084248908	-0.437422
H	 1.1421438789	 1.8097378881	 0.175217198	 0.13017
H	-0.3785551186	 2.0049642427	-0.7164650787	 0.123572
H	-0.4018375412	 1.8606433285	 1.0527955985	 0.119289
H	 0.47340902	-0.3228106838	-0.9134974888	 0.108708
H	 0.3007052494	-0.4622322475	 1.8902939158	 0.2914
H	-2.6481728991	 0.962727832	 0.3924140492	 0.287573
H	-3.047680654	-0.9861205901	-1.5067742679	 0.103209
H	-0.6430807576	-2.1041197801	-2.2043296352	 0.298903
H	-2.4735781075	-2.3973188932	 0.5503713823	 0.104423
H	 0.1468242292	-2.4589002586	 0.3570717947	 0.303638
73.8917	150.2789	203.1329	239.8106	249.6032	262.8307	292.6213	319.3842	366.7917	386.8956	449.5069	463.3162	494.4088	569.2364	590.6529	650.2529	690.6922	735.276	858.6927	891.6086	918.4073	964.9777	1013.1465	1080.4605	1085.9874	1097.3428	1133.3174	1156.5806	1216.2378	1271.5884	1290.7672	1309.4959	1336.5181	1369.2677	1385.5831	1396.4553	1401.8822	1425.2662	1447.7523	1491.0739	1500.2745	3036.6697	3094.1782	3110.362	3128.037	3130.4573	3140.9654	3664.106	3705.9663	3790.5026	3791.3035
CC(O)C1(O)C(O)C1O	C[C@@H](O)[C@@]1(O)[C@@H](O)[C@H]1O	
InChI=1S/C5H10O4/c1-2(6)5(9)3(7)4(5)8/h2-4,6-9H,1H3	InChI=1S/C5H10O4/c1-2(6)5(9)3(7)4(5)8/h2-4,6-9H,1H3/t2-,3-,4+,5+/m1/s1
