19
gdb 71499	2.82307	1.56173	1.41359	3.1437	79.8	-0.2309	-0.0092	0.2216	1013.375	0.160296	-385.88431	-385.876895	-385.875951	-385.915921	30.019	
C	 0.010695389	 1.5137755209	-0.0443634663	-0.517259
C	 0.0234208937	 0.0080702012	-0.0343819465	 0.32571
C	 0.6119775046	-0.9493251896	-1.1025497213	-0.279679
C	 0.0168771454	-1.8757571398	-0.0210358549	-0.065861
C	 0.5948000222	-0.9378072744	 1.0859171822	-0.047419
C	-0.3486799261	-0.9287961087	 2.2819249376	-0.370302
C	-1.6853991043	-0.9236522485	 1.51442263	 0.409471
O	-2.8028883143	-0.9020962651	 1.9610568318	-0.331305
C	-1.2403893664	-0.9402989771	 0.0736435788	-0.15952
H	 1.0312210708	 1.9095027031	-0.0914310956	 0.123554
H	-0.5378568515	 1.8967557793	-0.9114219885	 0.126894
H	-0.4658155405	 1.9162902302	 0.8562687686	 0.126914
H	 0.1238648256	-0.954554059	-2.0812347137	 0.094407
H	 1.7021933002	-0.9517084008	-1.2060261186	 0.089875
H	-0.0056506892	-2.9664472094	-0.0055905268	 0.079899
H	 1.6727692033	-0.9402328248	 1.2566877071	 0.069188
H	-0.2670808755	-1.8131609746	 2.9227341124	 0.124225
H	-0.2594982719	-0.0443058725	 2.921631979	 0.123241
H	-1.997854565	-0.9428017005	-0.7091650253	 0.077966
111.315	197.5948	215.7067	298.3093	358.7707	381.7853	498.3242	574.8407	592.9473	650.2679	677.2621	718.778	811.6981	840.5501	887.796	892.5848	926.6077	966.5181	968.6858	1001.1114	1014.7211	1051.6426	1067.389	1091.9374	1140.801	1151.5141	1171.4971	1186.3591	1204.5678	1216.0105	1235.6165	1259.6801	1270.5578	1304.2456	1362.6201	1411.022	1459.1558	1486.777	1490.49	1519.7682	1855.5452	3027.4798	3039.3617	3048.8886	3090.3228	3095.6929	3097.0614	3097.7659	3102.1886	3105.4426	3134.0882
CC12CC3C1CC(=O)C23	C[C@@]12C[C@H]3[C@@H]1CC(=O)[C@@H]23	
InChI=1S/C8H10O/c1-8-3-4-5(8)2-6(9)7(4)8/h4-5,7H,2-3H2,1H3	InChI=1S/C8H10O/c1-8-3-4-5(8)2-6(9)7(4)8/h4-5,7H,2-3H2,1H3/t4-,5-,7-,8+/m0/s1
