25
gdb 100059	2.87297	1.03115	0.94287	1.9609	87.73	-0.2411	0.0683	0.3094	1415.8462	0.227386	-389.475841	-389.465171	-389.464227	-389.511837	39.624	
C	 0.5446553673	 1.1483064246	 0.504153509	-0.405243
C	 0.0175068355	-0.2889238707	 0.4229717131	-0.178139
C	-1.450167794	-0.4735379093	-0.046532496	 0.23738
C	-2.424919931	 0.187606796	 0.94771308	-0.413742
C	-1.6529061953	 0.1459743126	-1.4425513262	-0.42251
C	-1.732097686	-1.9932574332	-0.0392089256	-0.019066
C	-3.0625001471	-2.5298462567	-0.6199714739	-0.102733
O	-2.372016518	-3.2962540997	-1.6260929434	-0.275891
C	-1.0842183043	-2.8980715671	-1.1159257205	-0.098038
H	 1.577714002	 1.1507480569	 0.8659643122	 0.114017
H	 0.540738958	 1.6432444785	-0.4715249544	 0.11919
H	-0.0425463312	 1.7628714384	 1.193348569	 0.117854
H	 0.6688256427	-0.8614698424	-0.250776868	 0.093789
H	 0.1200038381	-0.757589733	 1.4109015617	 0.089615
H	-2.2831617374	 1.2714798282	 0.9900038331	 0.114554
H	-3.4655698806	 0.0086579427	 0.6561416888	 0.112998
H	-2.2885840273	-0.2094154172	 1.9600191332	 0.10786
H	-0.9275006204	-0.2330624184	-2.1691058551	 0.114768
H	-2.6537973959	-0.0572479299	-1.8342957996	 0.118393
H	-1.5396013589	 1.2330974104	-1.4036854397	 0.1146
H	-1.5488171014	-2.3620938738	 0.9747331642	 0.072502
H	-3.6422272841	-3.1711773213	 0.056452102	 0.095701
H	-3.7410681041	-1.790458588	-1.0627054889	 0.098115
H	-0.4793667596	-2.395742675	-1.88046059	 0.098163
H	-0.5154178172	-3.7532971325	-0.7287654449	 0.095864
44.5809	82.011	86.1134	178.2857	201.1564	247.2234	269.0987	275.9357	316.3284	334.4002	370.3107	387.3357	451.4501	522.2267	680.0249	785.2151	794.9301	855.1697	889.9772	918.3997	943.2668	968.9108	994.085	1009.1977	1027.4326	1036.903	1047.0767	1078.6741	1094.22	1112.0505	1162.1051	1165.6085	1206.9757	1228.9361	1263.7685	1272.7094	1310.245	1323.7811	1363.2927	1372.5167	1392.1189	1399.9059	1410.7995	1427.5324	1480.8967	1483.6773	1487.1169	1502.6507	1506.8947	1509.5978	1510.8822	1525.575	1538.5702	3004.1359	3009.6747	3014.8024	3027.7691	3037.1484	3040.9248	3042.2507	3045.0757	3049.1996	3062.3081	3092.6846	3100.7326	3103.5832	3107.3494	3110.7818	3114.3333
CCC(C)(C)C1COC1	CCC(C)(C)C1COC1	
InChI=1S/C8H16O/c1-4-8(2,3)7-5-9-6-7/h7H,4-6H2,1-3H3	InChI=1S/C8H16O/c1-4-8(2,3)7-5-9-6-7/h7H,4-6H2,1-3H3
