19
gdb 63296	2.27371	1.45644	1.10749	5.0138	79.	-0.2532	-0.0234	0.2298	1174.076	0.15792	-419.243111	-419.233796	-419.232851	-419.277074	34.436	
C	-0.3359909923	 1.5195693089	 0.2361885809	-0.433586
C	-0.0264763243	 0.0470490788	-0.0201528657	 0.298188
C	-1.2744680752	-0.8294267448	 0.0441218875	-0.433587
C	 0.9033168958	-0.2234729013	-1.2548371116	-0.385361
C	 1.9525865659	-0.7230878649	-0.2711557828	 0.40939
N	 3.1186125717	-1.1792991923	-0.3889617366	-0.542763
N	 1.0937458177	-0.4695663002	 0.8244649895	-0.108607
C	 1.2666390127	-0.6483389391	 2.1654707092	 0.131266
O	 2.2772117346	-1.0931491979	 2.6675193146	-0.308593
H	 0.5751741474	 2.1234351891	 0.2035863657	 0.131495
H	-1.0273302643	 1.8970379992	-0.5240363673	 0.12985
H	-0.8069693559	 1.6612159622	 1.2146252033	 0.124913
H	-1.9925982144	-0.5190093085	-0.7215834094	 0.12985
H	-1.0245935217	-1.8807576241	-0.1238219933	 0.131495
H	-1.7683834966	-0.7451984043	 1.0178649476	 0.124913
H	 0.5379223385	-0.9828065818	-1.9489152899	 0.13358
H	 1.197024464	 0.6669635768	-1.8140358063	 0.133579
H	 3.504090734	-1.4083749073	 0.5291466525	 0.249429
H	 0.3796547623	-0.3421303685	 2.7541832424	 0.084548
85.8814	92.4593	167.5574	227.7691	245.5445	252.6802	302.3758	323.533	335.0141	435.206	477.715	531.8592	552.2594	614.4361	786.9567	855.4444	896.5275	928.7206	956.1287	959.0331	996.1848	1022.9155	1032.3944	1093.5671	1098.7895	1175.3399	1218.5519	1273.819	1276.3957	1293.4428	1387.858	1405.4497	1420.5716	1431.8545	1467.4138	1479.4725	1486.7823	1500.5695	1506.1619	1753.2595	1817.9471	2938.9176	3033.8486	3038.7731	3081.5832	3102.3443	3108.0603	3115.9998	3118.7079	3136.0657	3478.7477
CC1(C)CC(=N)N1C=O	CC1(C)C[C]([NH])N1C=O	
InChI=1S/C6H10N2O/c1-6(2)3-5(7)8(6)4-9/h4,7H,3H2,1-2H3	InChI=1S/C6H10N2O/c1-6(2)3-5(7)8(6)4-9/h4,7H,3H2,1-2H3
