17
gdb 34426	3.02127	1.71766	1.25833	2.2296	78.26	-0.2338	0.0381	0.2719	995.1191	0.136187	-384.598683	-384.591518	-384.590574	-384.630019	29.157	
C	-0.0063515314	-1.1810552975	 0.0289947767	-0.37966
C	 0.0020949876	 0.0214848737	 0.024684937	 0.161392
C	-0.0227580987	 1.4593342123	 0.0581703676	 0.224087
C	-0.9322824331	 2.1638250875	 1.0713143834	-0.318994
C	-0.632305722	 3.656864943	 0.7443133941	-0.260131
C	 0.3797185019	 3.491604184	-0.3804943588	-0.050612
C	 1.3123027257	 2.2809755181	-0.0912058493	 0.012199
O	 1.3982886565	 1.961451181	-1.5181922018	-0.311066
C	-0.0105450009	 2.2858903077	-1.282144172	 0.012192
H	-0.0018486021	-2.2427795514	 0.0195419792	 0.184367
H	-1.9812845259	 1.8958055073	 0.9183039781	 0.114783
H	-0.6714863266	 1.8909096636	 2.0975456616	 0.114783
H	-1.5237904081	 4.201265855	 0.4191437467	 0.108884
H	-0.2133563003	 4.1963541704	 1.5988822069	 0.108884
H	 0.8199388795	 4.3610265778	-0.8658794335	 0.085281
H	 2.221052012	 2.213709253	 0.5079466873	 0.096806
H	-0.7017777344	 2.2245682945	-2.123435813	 0.096806
142.105	146.4817	239.152	349.8102	415.5754	493.906	505.9947	625.6277	629.2327	634.4509	677.6483	710.0188	728.8232	799.8083	823.6022	901.1309	904.3441	913.3644	942.0999	1010.9743	1037.7127	1049.71	1074.2552	1137.6179	1166.1834	1168.3387	1185.631	1218.5126	1220.8436	1250.618	1270.582	1289.2232	1334.6793	1355.8721	1489.8471	1511.1093	2236.6644	3052.2217	3063.2456	3087.2113	3108.2446	3112.4219	3116.6302	3143.8253	3503.6344
C#CC12CCC3C1OC23	C#C[C@@]12CC[C@H]3[C@@H]1O[C@@H]23	
InChI=1S/C8H8O/c1-2-8-4-3-5-6(8)9-7(5)8/h1,5-7H,3-4H2	InChI=1S/C8H8O/c1-2-8-4-3-5-6(8)9-7(5)8/h1,5-7H,3-4H2/t5-,6-,7+,8+
