18
gdb 103553	2.58727	1.28806	1.05453	0.1521	69.45	-0.272	0.0084	0.2804	1181.2587	0.145262	-476.216533	-476.206795	-476.20585	-476.251279	35.19	
C	-0.2854714707	 1.6114423238	 0.2143921735	-0.427787
C	-0.0909621828	 0.1132184035	 0.1607202724	 0.343994
C	-1.3233792992	-0.6646337555	-0.2821704841	-0.101004
O	-1.7247032453	-0.3096798126	-1.5895086104	-0.415906
O	 1.0264448673	-0.2393937535	-0.7757001469	-0.305065
C	 1.7940609228	-0.7076927814	 0.2596411542	 0.397231
N	 2.9907160085	-1.0789739086	 0.3177638611	-0.556071
C	 0.7276744799	-0.5256124032	 1.319537823	-0.057834
O	 1.0543914046	 0.3101157916	 2.3971753882	-0.426028
H	 0.6552954508	 2.118257379	 0.4343955279	 0.130495
H	-0.6838736717	 1.9664845756	-0.7385807755	 0.138151
H	-0.9976509743	 1.8628511917	 1.006140772	 0.133844
H	-1.1179302966	-1.7436435937	-0.2028266111	 0.0927
H	-2.1624949118	-0.4338879014	 0.3831297564	 0.121777
H	-0.9759380482	-0.4948354076	-2.1687525025	 0.295142
H	 3.4574864181	-1.0164630677	-0.5884593898	 0.23241
H	 0.2963182376	-1.4752557093	 1.6663390384	 0.098878
H	 1.9937445311	 0.1869593093	 2.5773910433	 0.305073
60.3594	100.5935	148.0771	177.8103	198.6646	238.9698	259.1895	322.0967	365.2347	391.2644	428.915	453.1534	589.5155	670.2204	696.9387	798.7368	855.7045	871.486	916.1353	947.1241	965.6524	1024.3185	1072.7556	1102.0946	1142.3641	1191.9978	1201.1305	1238.72	1284.1809	1305.7516	1368.5669	1383.5351	1393.6101	1415.527	1425.4878	1477.447	1488.1632	1494.9875	1823.1905	2981.9979	3007.9845	3055.0879	3076.7449	3127.55	3148.7173	3478.4118	3795.5499	3800.7351
CC1(CO)OC(=N)C1O	C[C@@]1(CO)O[C]([NH])[C@H]1O	
InChI=1S/C5H9NO3/c1-5(2-7)3(8)4(6)9-5/h3,6-8H,2H2,1H3	InChI=1S/C5H9NO3/c1-5(2-7)3(8)4(6)9-5/h3,6-8H,2H2,1H3/t3-,5+/m1/s1
