18
gdb 90646	3.72791	1.10135	1.05363	4.5942	78.61	-0.2243	0.0207	0.245	1204.1929	0.147718	-398.076954	-398.068208	-398.067264	-398.110042	32.904	
C	-0.2232137308	 1.353585879	-0.0461531871	-0.331359
N	 0.1173756004	-0.049892345	 0.0802267765	-0.112942
C	 1.1573637714	-0.5714768061	-0.8616206907	-0.205078
C	 1.9557813556	-1.1373490078	 0.314739597	-0.119166
C	 0.9635395925	-0.4265056938	 1.2210205895	-0.048459
C	 1.0326368544	-1.952430718	 1.2167503568	 0.179906
N	-0.0221601983	-2.7836265554	 0.6774780271	-0.584237
C	 1.7050548218	-2.515535906	 2.3615070224	 0.239018
N	 2.2314977087	-2.9603916636	 3.2906834291	-0.338152
H	 0.6549870116	 2.0239306482	-0.0378610131	 0.10101
H	-0.7626082049	 1.5100613703	-0.9854088384	 0.130492
H	-0.8856328472	 1.6464906013	 0.7746182322	 0.129685
H	 0.7832709827	-1.2718549759	-1.6147016712	 0.123904
H	 1.7052282034	 0.2423888177	-1.3505977942	 0.114401
H	 3.0317799517	-1.2337466713	 0.3668983996	 0.1192
H	 1.0817085223	 0.1976929637	 2.0995341192	 0.113355
H	-0.5054464821	-3.2467525128	 1.4416304052	 0.240615
H	-0.6970138731	-2.1511597245	 0.24605038	 0.247806
121.2268	143.1571	152.4138	209.7467	232.585	274.948	316.9484	363.0022	449.3293	477.9397	562.3868	589.9761	678.8209	717.7297	828.6962	840.4213	901.2551	959.1725	977.2642	989.745	996.4437	1035.2132	1059.4234	1090.2118	1131.6755	1176.6385	1188.6844	1228.9929	1249.0966	1272.6786	1303.3119	1347.3728	1404.2172	1455.0046	1486.4327	1502.1771	1505.0936	1649.5773	2351.6913	2944.5982	3030.9673	3065.9129	3088.2027	3107.7877	3178.4217	3205.5098	3447.4109	3551.2929
CN1CC2C1C2(N)C#N	CN1C[C@H]2[C@@H]1[C@]2(N)C#N	
InChI=1S/C6H9N3/c1-9-2-4-5(9)6(4,8)3-7/h4-5H,2,8H2,1H3	InChI=1S/C6H9N3/c1-9-2-4-5(9)6(4,8)3-7/h4-5H,2,8H2,1H3/t4-,5+,6-/m0/s1
