25
gdb 113931	3.49238	0.71935	0.65757	1.5508	90.53	-0.256	0.0842	0.3402	1873.0119	0.226592	-389.488297	-389.477146	-389.476202	-389.525707	40.425	
C	-0.6683068359	 1.3059645796	 0.6597379161	-0.374345
C	 0.1037653689	 0.2302477296	-0.1152159541	-0.213321
C	 1.1791362053	-0.4031993784	 0.7348202914	 0.075974
O	 0.758336738	-1.3290699858	 1.7458699922	-0.270282
C	 1.6019361854	-1.8145186351	 0.6895623931	 0.051318
C	 1.0283503765	-2.8735934332	-0.2220571475	-0.227944
C	 0.7744287209	-4.2230184665	 0.4832355889	 0.058667
C	 0.020876158	-5.1781177483	-0.4509573108	-0.392153
C	 2.0681798919	-4.8723079217	 0.9942700176	-0.388715
H	-0.0007885296	 2.1048986784	 1.000625844	 0.11467
H	-1.443900096	 1.7607650789	 0.036636131	 0.112296
H	-1.1485066262	 0.871951852	 1.5417506266	 0.134252
H	-0.5917111823	-0.5346133174	-0.4714904856	 0.106176
H	 0.576098216	 0.6735196644	-1.001796034	 0.099107
H	 1.9265630884	 0.3106839628	 1.0940893926	 0.080049
H	 2.6238435214	-2.0117677268	 1.0210043844	 0.085521
H	 0.0864291911	-2.5221865074	-0.6536238975	 0.096617
H	 1.7241112315	-3.0244766181	-1.0601339188	 0.092979
H	 0.1326332589	-4.0126092476	 1.3488076514	 0.091925
H	 0.6183773531	-5.4111186687	-1.3409797719	 0.109259
H	-0.2064388608	-6.1244803565	 0.0508198459	 0.110222
H	-0.925099652	-4.7429472507	-0.790504504	 0.109575
H	 2.759633351	-5.0741367581	 0.1665600638	 0.107541
H	 2.588525034	-4.239892187	 1.7194445953	 0.119041
H	 1.8558664424	-5.8271856284	 1.48628802	 0.111574
28.622	61.4719	87.8623	128.3712	180.2887	220.3142	226.6984	244.0969	268.9269	325.3777	388.52	415.2974	449.8766	502.7524	556.7493	745.0475	804.4536	816.1878	834.0143	890.6185	929.4176	945.379	961.5644	967.8011	985.8813	1038.3855	1074.6669	1098.342	1142.0228	1153.6997	1182.6092	1188.1364	1194.1606	1265.7108	1293.4413	1305.1571	1313.1249	1343.6044	1370.4431	1371.4914	1401.3395	1407.2724	1420.0237	1423.025	1466.8129	1476.1139	1487.3624	1493.8357	1496.7013	1498.1907	1505.2999	1509.4807	1510.8463	3009.607	3020.9639	3022.3413	3027.6024	3030.4867	3036.2319	3056.5622	3074.6909	3083.795	3085.595	3091.2078	3094.4363	3097.9727	3107.2425	3109.7402	3116.8651
CCC1OC1CC(C)C	CC[C@H]1O[C@H]1CC(C)C	
InChI=1S/C8H16O/c1-4-7-8(9-7)5-6(2)3/h6-8H,4-5H2,1-3H3	InChI=1S/C8H16O/c1-4-7-8(9-7)5-6(2)3/h6-8H,4-5H2,1-3H3/t7-,8+/m1/s1
