23
gdb 108311	3.05748	1.20621	1.03809	1.6468	85.34	-0.2351	0.0747	0.3098	1292.1005	0.205115	-388.271124	-388.261675	-388.260731	-388.305502	35.928	
C	-0.0434225111	 1.4576781911	-0.2728635129	-0.38194
C	 0.178848679	-0.0572750832	-0.1843858414	-0.272141
C	 0.6306409972	-0.4884284009	 1.1902715225	 0.484066
C	 2.0551850504	-0.1321922152	 1.6966004254	-0.301214
C	 2.2669572076	-1.6229276422	 2.1251218648	 0.038977
C	 2.7214111652	-1.9114158009	 3.5492567329	-0.413042
C	 0.8061680817	-1.9554475768	 1.6936433123	-0.173102
C	-0.3111628185	-1.5931341732	 2.6833886839	-0.09031
O	-0.3675179129	-0.2267337333	 2.214694354	-0.33253
H	 0.8839846683	 2.0083017799	-0.082340671	 0.116151
H	-0.4052845096	 1.745074142	-1.2643875823	 0.109604
H	-0.7816057106	 1.7765314567	 0.4681365691	 0.1383
H	-0.7516721684	-0.5838896945	-0.4293721157	 0.097882
H	 0.9291095107	-0.3762659927	-0.9194001879	 0.0925
H	 2.7499407138	 0.2221702393	 0.9298603266	 0.094545
H	 2.0350840107	 0.5879231746	 2.5182875782	 0.105203
H	 2.953714922	-2.1128162357	 1.4271224883	 0.073514
H	 2.0914368757	-1.403959006	 4.2869610184	 0.121837
H	 2.6968822948	-2.9850935406	 3.7678343829	 0.112723
H	 3.7485219518	-1.5635330363	 3.7047289581	 0.116216
H	 0.6536015114	-2.8395946419	 1.0738459202	 0.067992
H	-1.2590239665	-2.1159393203	 2.4996316245	 0.097461
H	-0.0809170927	-1.65781639	 3.7537480991	 0.097309
55.0158	91.1462	153.2807	208.4171	216.9877	263.4424	295.6723	328.2812	386.055	400.8743	511.0343	616.4829	655.2557	753.5176	782.5101	835.7522	865.3614	917.8836	939.5385	959.4245	964.4416	990.1102	1008.819	1012.9698	1042.3357	1089.0809	1114.5917	1136.2506	1148.0114	1166.2346	1187.0642	1199.5312	1232.9467	1269.3622	1289.6883	1319.7257	1325.2094	1347.5111	1363.0859	1382.9888	1403.6459	1409.7199	1467.3982	1477.1287	1492.2309	1496.8451	1497.4509	1509.0737	1527.8265	3006.8235	3020.9595	3026.9912	3038.944	3041.4631	3048.4037	3054.4444	3058.1419	3091.2961	3098.7091	3102.702	3105.1898	3113.4598	3120.5208
CCC12CC(C)C1CO2	CC[C@]12C[C@@H](C)[C@H]1CO2	
InChI=1S/C8H14O/c1-3-8-4-6(2)7(8)5-9-8/h6-7H,3-5H2,1-2H3	InChI=1S/C8H14O/c1-3-8-4-6(2)7(8)5-9-8/h6-7H,3-5H2,1-2H3/t6-,7-,8+/m1/s1
