21
gdb 68489	2.68102	1.62256	1.25977	0.336	77.55	-0.2457	0.0785	0.3242	1060.3854	0.184787	-424.219915	-424.212151	-424.211207	-424.251448	32.332	
O	-0.0034948607	 1.4371836295	-0.0322216622	-0.482499
C	-0.0083121882	 0.0244833591	 0.0222758259	 0.428069
C	 0.2498451553	-0.6279765758	 1.4162496711	-0.279352
C	-0.9293044205	-1.5955803292	 1.1150796141	-0.024301
C	-1.4369595328	-0.5633841429	 0.066295358	-0.277269
C	-0.4582966768	-2.9387941514	 0.5456542225	-0.091663
O	 0.7410358493	-2.8809681359	-0.2105936689	-0.240537
C	 0.6717710598	-2.0669384691	-1.367489674	-0.082855
C	 0.8684082346	-0.568396835	-1.0909418227	-0.278913
H	 0.9130700341	 1.7340419145	-0.0571885155	 0.272192
H	 1.2309114693	-1.0726235464	 1.5980302356	 0.099878
H	 0.0020384739	 0.0825341112	 2.2080298336	 0.098264
H	-1.6193172515	-1.7957753722	 1.9391430653	 0.071101
H	-2.1155421267	 0.1618105258	 0.5211692917	 0.10925
H	-1.8805878351	-0.9304298757	-0.8639697034	 0.091002
H	-0.2347310976	-3.6259372296	 1.3683978754	 0.106977
H	-1.2638784772	-3.3900619661	-0.0592123067	 0.08695
H	 1.4680514647	-2.4158115287	-2.0332275214	 0.105159
H	-0.2838823726	-2.2340068483	-1.8883302848	 0.09223
H	 0.656466625	-0.0216629354	-2.0182370111	 0.103434
H	 1.9226134837	-0.3859671284	-0.8386235925	 0.092883
203.0107	224.509	262.8698	297.7968	319.1997	360.2179	402.6928	427.5186	438.5646	515.2059	591.9004	656.2806	781.1399	830.016	847.8084	858.3163	897.0714	910.213	956.2485	975.7417	1003.4488	1020.8929	1054.6304	1095.0059	1108.4192	1137.1207	1151.7331	1177.4306	1197.4748	1236.3713	1242.8203	1257.4338	1287.151	1297.5765	1329.3741	1351.4735	1363.2	1391.0525	1404.5625	1426.703	1464.7933	1478.8044	1488.5562	1495.797	1513.9115	2957.7475	2987.0825	3006.4105	3055.0597	3059.6168	3060.6272	3066.6919	3070.7413	3077.3252	3115.2222	3126.8781	3796.8257
OC12CC(C1)COCC2	O[C@@]12C[C@@H](C1)COCC2	
InChI=1S/C7H12O2/c8-7-1-2-9-5-6(3-7)4-7/h6,8H,1-5H2	InChI=1S/C7H12O2/c8-7-1-2-9-5-6(3-7)4-7/h6,8H,1-5H2/t6-,7-
