21
gdb 17132	5.48175	1.12728	1.05478	0.9486	79.83	-0.2288	0.0822	0.311	1206.959	0.188947	-329.087525	-329.079249	-329.078305	-329.120444	31.473	
C	-0.2920332854	 1.4715830995	-0.075197531	-0.389837
C	-0.0054296495	-0.0271854814	-0.0472192081	 0.028537
C	 1.2616764815	-0.4605663669	-0.8455738053	-0.251758
C	 2.0476041139	-0.5364960663	 0.488853481	 0.08983
C	 0.6972196076	-0.529371191	 1.2507948633	-0.251758
N	 2.8796778041	-1.7102087375	 0.674370812	-0.063212
C	 4.2814403327	-1.5717625071	 0.2854168257	-0.224134
C	 3.8947403143	-1.6188998382	 1.7216060341	-0.224134
H	 0.597873123	 2.0571184578	 0.183631765	 0.111265
H	-0.6199372281	 1.7924908838	-1.0703233995	 0.11188
H	-1.0800927567	 1.7363999383	 0.6386740341	 0.11188
H	-0.9150326785	-0.5745313135	-0.3100984006	 0.067712
H	 1.1564572722	-1.457899955	-1.2800602301	 0.106197
H	 1.6316230142	 0.226424338	-1.6120302258	 0.08861
H	 2.6128870365	 0.393564051	 0.671583986	 0.048185
H	 0.6214342565	 0.1032867579	 2.1397676456	 0.08861
H	 0.4046904809	-1.5495370344	 1.51196948	 0.106197
H	 4.7267919953	-2.4374002524	-0.196325833	 0.114804
H	 4.6082201522	-0.6111022963	-0.1101793729	 0.108161
H	 3.9631379462	-0.6897355279	 2.2856316488	 0.108161
H	 4.0525512756	-2.5195878085	 2.3077798162	 0.114804
71.5307	87.1409	176.1775	243.0287	283.0194	313.0451	333.2274	444.2881	475.5584	621.5305	781.4635	808.7754	817.798	871.9384	891.9149	902.6895	913.3153	951.8612	963.2292	1021.7376	1041.7342	1081.5332	1094.5849	1112.3826	1115.6401	1139.5951	1142.5174	1174.4417	1207.9257	1221.0649	1246.4815	1271.284	1277.4736	1293.7357	1321.4624	1364.2447	1390.0638	1411.2813	1468.3485	1491.1111	1491.709	1497.8788	1498.5094	1519.1301	2940.935	3022.1073	3050.3195	3052.3164	3060.6138	3089.9471	3090.7214	3093.373	3097.8286	3111.3677	3114.1186	3176.4518	3190.8237
CC1CC(C1)N1CC1	C[C@H]1C[C@@H](C1)N1CC1	
InChI=1S/C7H13N/c1-6-4-7(5-6)8-2-3-8/h6-7H,2-5H2,1H3	InChI=1S/C7H13N/c1-6-4-7(5-6)8-2-3-8/h6-7H,2-5H2,1H3/t6-,7-
