17
gdb 19928	3.76155	2.32206	1.94852	1.6186	66.1	-0.2279	0.0766	0.3044	745.4048	0.145352	-363.818855	-363.812885	-363.811941	-363.84869	24.361	
C	-0.1019156952	 1.4275385646	 0.1736902191	-0.251443
C	 1.2194486228	 0.7566174717	 0.0322919331	-0.038018
C	 1.990678489	 0.386583996	 1.2919933619	-0.07351
C	 1.880929254	 1.3523784008	 2.4895775311	-0.095136
O	 0.7411199533	 0.6289861281	 3.0089707566	-0.294168
C	 0.9880981241	-0.4758174967	 2.0987350771	 0.10975
C	-0.1627752368	-0.8324667423	 1.1547261803	-0.188374
N	-0.0434329811	-0.0188659532	-0.0720109	-0.102423
H	-0.4056088885	 1.7647177434	 1.1606043574	 0.134603
H	-0.4975790222	 2.0120009567	-0.6529710133	 0.111939
H	 1.7805750381	 0.8736741616	-0.8901253326	 0.090664
H	 2.9771590346	-0.0209926535	 1.0697614552	 0.078559
H	 2.7314797592	 1.3057356378	 3.1817200314	 0.101999
H	 1.6460577723	 2.3989532889	 2.2696266334	 0.10805
H	 1.3835501982	-1.3429115609	 2.6413928371	 0.078404
H	-0.0831548822	-1.8862469158	 0.8641898511	 0.107769
H	-1.1369377696	-0.6848794372	 1.6315825011	 0.121336
168.5866	257.7325	338.2553	382.9106	480.4808	641.3606	708.7018	730.1768	787.202	838.822	851.597	870.6379	905.8222	965.4119	978.2092	1010.0209	1026.3022	1058.6689	1074.4555	1089.7672	1120.2694	1135.9848	1165.8267	1169.8692	1214.7439	1231.7156	1254.9385	1280.984	1321.7425	1333.1568	1342.7357	1358.9193	1392.0346	1478.1559	1500.2875	1521.7781	3015.692	3027.671	3045.2319	3074.0783	3091.0909	3106.6618	3107.3421	3149.6935	3196.5849
C1C2C3COC3CN12	C1[C@H]2[C@H]3CO[C@H]3CN12	
InChI=1S/C6H9NO/c1-5-4-3-8-6(4)2-7(1)5/h4-6H,1-3H2	InChI=1S/C6H9NO/c1-5-4-3-8-6(4)2-7(1)5/h4-6H,1-3H2/t4-,5+,6+,7?/m1/s1
