17
gdb 94251	2.00967	1.50033	1.25456	2.6391	75.3	-0.2562	-0.0427	0.2135	1108.6753	0.132378	-421.779743	-421.770369	-421.769425	-421.814322	33.631	
C	-0.3754008099	 1.4341288571	 0.0580756081	-0.422235
C	 0.1995056057	 0.0401389746	-0.0732128428	 0.133825
O	 1.4640449082	 0.0211334642	-0.7522066306	-0.282896
C	 2.0795218772	-0.7843179421	 0.2684016283	-0.108781
C	 0.83509519	-0.6894181844	 1.1879897883	-0.04263
C	 1.0154879658	 0.2414975241	 2.3851159934	 0.103762
O	 1.9845411534	 0.9299221733	 2.5634187888	-0.241649
C	 0.188085638	-1.9135617969	 1.6073117757	 0.236103
C	-0.3585826883	-2.9153776986	 1.9868033835	-0.421341
H	 0.3197722127	 2.1057792526	 0.5679390384	 0.143886
H	-0.5646544095	 1.8352977714	-0.9424435982	 0.138268
H	-1.3259532027	 1.4146385792	 0.6016357198	 0.124083
H	-0.520564726	-0.6326143357	-0.5576091094	 0.089319
H	 2.2997828463	-1.8002247034	-0.0753790323	 0.112459
H	 2.9737315599	-0.3108332993	 0.6825480653	 0.135304
H	 0.1564857908	 0.2456139217	 3.0886160094	 0.098737
H	-0.8349158815	-3.8086612978	 2.3085238743	 0.203787
61.1096	79.8409	136.6225	156.7401	215.1651	250.8469	286.5372	330.0497	451.2665	497.9762	513.3228	533.867	629.0788	646.7012	655.7855	791.9953	866.3385	893.6255	926.6756	1030.5779	1036.2046	1060.9491	1105.8552	1127.6733	1167.8482	1193.3581	1219.1029	1288.9124	1346.571	1379.2893	1406.0074	1420.0677	1481.1041	1496.7384	1512.1119	1826.1897	2232.3549	2912.465	3013.9772	3039.6658	3042.2351	3106.057	3110.4235	3128.8258	3498.9462
CC1OCC1(C=O)C#C	C[C@H]1OC[C@]1(C=O)C#C	
InChI=1S/C7H8O2/c1-3-7(4-8)5-9-6(7)2/h1,4,6H,5H2,2H3	InChI=1S/C7H8O2/c1-3-7(4-8)5-9-6(7)2/h1,4,6H,5H2,2H3/t6-,7-/m1/s1
