14
gdb 49171	3.17711	1.41773	1.04934	4.0227	70.49	-0.2553	-0.0936	0.1617	1073.9344	0.101159	-436.700427	-436.693147	-436.692203	-436.732508	26.802	
O	-0.9309022465	 1.1470117706	 0.2761924371	-0.263602
C	 0.2072694914	 0.826746328	 0.0190406226	 0.082254
C	 1.3402321705	 1.7737678533	 0.0094416942	 0.102696
C	 1.315522265	 3.0815504734	 0.3299262297	-0.164604
C	 2.6786788151	 3.6470065681	 0.2355370108	-0.077835
C	 3.7310125675	 3.0771535552	 1.141313863	-0.236759
N	 3.5669766256	 2.5731319028	-0.2316749514	-0.12458
C	 2.7465916511	 1.3755313739	-0.2924916819	 0.307833
O	 3.1732743714	 0.2781554601	-0.5305140041	-0.310587
H	 0.4803439177	-0.2153247255	-0.2383265277	 0.10837
H	 0.4319965492	 3.6487849372	 0.5953580173	 0.156721
H	 2.8266561497	 4.6346232848	-0.1902901649	 0.129069
H	 4.6397116743	 3.6446922514	 1.3183703378	 0.146772
H	 3.404066408	 2.4421559466	 1.9607649076	 0.144251
105.9614	157.1905	172.5093	235.5563	367.093	374.6523	445.8612	553.4335	642.8815	730.6139	805.2832	824.7303	853.7036	858.0008	917.2312	944.4014	991.184	1048.0343	1052.2569	1064.1218	1115.5996	1152.4179	1211.6083	1261.2129	1295.0613	1352.946	1428.3882	1496.9896	1646.4008	1792.2592	1842.5756	2949.7998	3113.5703	3165.0528	3210.5834	3224.2882
O=CC1=CC2CN2C1=O	O=CC1=C[C@H]2CN2C1=O	
InChI=1S/C6H5NO2/c8-3-4-1-5-2-7(5)6(4)9/h1,3,5H,2H2	InChI=1S/C6H5NO2/c8-3-4-1-5-2-7(5)6(4)9/h1,3,5H,2H2/t5-,7?/m0/s1
