16
gdb 12987	2.74421	2.64456	1.60352	3.9987	64.82	-0.23	0.0282	0.2581	817.4847	0.132337	-379.943782	-379.936565	-379.935621	-379.974953	27.435	
C	-0.0384204038	 1.5460787666	 0.0145652065	-0.49156
C	 0.1125489774	 0.0530544327	 0.0189420447	 0.203402
N	-0.7578267944	-0.8248354989	 0.8522670356	-0.360014
C	 0.6974546927	-0.791441076	 1.0890507005	-0.10038
C	 1.4090407936	-1.9727543619	 0.4423066879	-0.162556
N	 1.1184700867	-1.7834153045	-0.9708320606	-0.323245
C	 0.4230392458	-0.6489491909	-1.293223413	 0.416342
O	 0.1323593257	-0.2690729536	-2.40685804	-0.388556
H	 0.8719233922	 2.0319481894	-0.3501534383	 0.135206
H	-0.8552925284	 1.8375501372	-0.6523353178	 0.150396
H	-0.250482876	 1.9251359969	 1.019477816	 0.109831
H	-1.2160665976	-0.2388667476	 1.5492891774	 0.230285
H	 1.0846167217	-0.3750494312	 2.0120887747	 0.097904
H	 2.4887339526	-1.9381162242	 0.6394227634	 0.108989
H	 1.0173833458	-2.927162887	 0.8137785168	 0.121372
H	 1.3369243961	-2.4662389371	-1.6778895737	 0.252583
131.8515	176.8542	221.0641	265.3271	299.1892	437.6317	483.7849	495.018	585.1918	686.7064	723.164	791.4433	825.9927	860.4485	909.1093	948.4924	1029.4901	1045.2515	1069.4472	1094.9402	1120.8588	1147.2964	1223.9754	1231.7438	1313.1414	1341.1287	1365.9892	1412.851	1443.814	1457.3661	1479.1339	1498.3316	1516.8718	1829.7664	3012.0693	3037.3669	3053.6386	3106.9079	3113.5184	3178.479	3472.1853	3652.4625
CC12NC1CNC2=O	C[C@]12N[C@H]1CNC2=O	
InChI=1S/C5H8N2O/c1-5-3(7-5)2-6-4(5)8/h3,7H,2H2,1H3,(H,6,8)	InChI=1S/C5H8N2O/c1-5-3(7-5)2-6-4(5)8/h3,7H,2H2,1H3,(H,6,8)/t3-,5-/m0/s1
