16
gdb 130074	5.6872	1.02417	0.93162	2.3738	73.	-0.2261	-0.0136	0.2126	1247.192	0.126402	-430.219867	-430.212051	-430.211107	-430.253556	29.027	
N	-0.0540312308	 1.2883505597	 0.1016828903	-0.576826
C	-0.0129780557	-0.0832356409	 0.0076142244	 0.452481
N	-1.0907381369	-0.8662517612	 0.03546543	-0.335473
N	-0.5228375295	-2.0773611992	-0.0302056469	 0.129705
N	 0.7915619208	-2.052165378	-0.0897635281	-0.138471
N	 1.1447468205	-0.7842298034	-0.0681308335	-0.278165
C	-1.3033947495	-3.2815267735	 0.027129784	 0.087133
C	-0.6608238191	-4.5939406444	-0.3081188099	-0.280798
C	-1.0425709457	-4.2883315805	 1.1196512585	-0.270538
H	 0.7683926964	 1.7377662423	-0.2730794064	 0.265681
H	-0.9156363374	 1.7010020082	-0.2229124019	 0.263384
H	-2.3208735999	-3.0800042025	-0.2782070485	 0.128445
H	-1.2548313496	-5.3045640575	-0.8710241534	 0.125745
H	 0.3926283973	-4.5701054925	-0.5568500548	 0.157941
H	-0.2380170097	-4.0571707621	 1.8078542444	 0.142509
H	-1.8992812509	-4.7861657147	 1.5592930119	 0.127248
18.2679	128.2144	189.0001	292.8233	310.4201	351.5169	433.1679	489.3201	601.636	636.0917	694.7807	766.9969	782.3691	796.3308	820.1609	914.7324	955.8849	1030.7419	1067.2201	1086.3793	1088.8667	1106.1475	1110.9061	1123.5856	1199.5975	1220.0818	1259.9194	1260.9788	1392.6708	1437.0209	1457.2398	1474.2778	1502.4032	1580.8805	1652.8028	3143.1679	3150.1116	3214.0841	3233.0149	3248.6366	3578.1636	3683.4888
NC1=NN(N=N1)C1CC1	Nc1nn(nn1)C1CC1	
InChI=1S/C4H7N5/c5-4-6-8-9(7-4)3-1-2-3/h3H,1-2H2,(H2,5,7)	InChI=1S/C4H7N5/c5-4-6-8-9(7-4)3-1-2-3/h3H,1-2H2,(H2,5,7)
