21
gdb 81456	2.25173	1.8793	1.605	1.6264	79.98	-0.2365	0.0779	0.3144	987.7365	0.185535	-387.060759	-387.053324	-387.052379	-387.092135	30.974	
C	-0.1047664333	 1.6444740386	-0.0031831039	-0.449966
C	 0.038594714	 0.1259421046	 0.0227556069	 0.039499
C	 0.8876599425	-0.6830109928	-0.9808287444	 0.069005
C	 2.3127108018	-0.1282156211	-1.1754093042	-0.249608
C	 3.0656272487	-0.0336439054	 0.1571136894	-0.008966
C	 2.8125444431	 1.0199163234	 1.2107717942	-0.315472
C	 2.2493851678	-0.3690544658	 1.3864670547	-0.015136
C	 0.8240915734	-0.7577764955	 1.0414611891	 0.027499
O	 0.9270605386	-1.7718465473	-0.0172627533	-0.296201
H	 0.7808968263	 2.1614317609	-0.3766372945	 0.127723
H	-0.9360286822	 1.922203252	-0.6599506723	 0.115027
H	-0.3325594657	 2.0421134396	 0.9916829634	 0.123821
H	-0.9637144755	-0.3124505112	 0.003486748	 0.090857
H	 0.4356205625	-0.9866766073	-1.9299578005	 0.06877
H	 2.8518391846	-0.8250265633	-1.8255123713	 0.108118
H	 2.2773302978	 0.829631384	-1.7099199163	 0.097854
H	 4.0806532753	-0.4148755476	 0.1251255095	 0.0864
H	 3.6565262288	 1.2807467869	 1.8414913825	 0.108322
H	 2.1538276911	 1.8517092134	 1.0130007849	 0.115118
H	 2.703769239	-0.9983735449	 2.1454895301	 0.085857
H	 0.2692762114	-1.1305703114	 1.906546508	 0.071479
161.2175	179.5219	249.7206	288.623	352.4573	405.5851	450.8239	548.4452	598.7797	612.644	709.6825	757.065	818.1272	834.1539	868.1134	879.2491	886.4159	910.7063	954.2809	986.04	1012.5572	1033.1286	1072.2727	1097.4104	1105.8219	1115.0139	1119.9985	1128.2622	1182.8454	1189.0996	1219.0768	1241.6617	1254.1139	1315.7154	1322.7133	1345.2527	1366.671	1382.2609	1397.8424	1417.4833	1422.7888	1475.4153	1491.9928	1498.2467	1521.7204	3026.6849	3037.0598	3051.699	3062.7472	3072.3245	3074.9574	3093.5759	3124.1022	3145.2914	3148.8714	3162.0697	3260.191
CC1C2CC3CC3C1O2	C[C@H]1[C@H]2C[C@H]3C[C@H]3[C@@H]1O2	
InChI=1S/C8H12O/c1-4-7-3-5-2-6(5)8(4)9-7/h4-8H,2-3H2,1H3	InChI=1S/C8H12O/c1-4-7-3-5-2-6(5)8(4)9-7/h4-8H,2-3H2,1H3/t4-,5+,6+,7+,8+/m0/s1
