21
gdb 77924	2.17968	1.40985	1.33096	1.7749	79.02	-0.2478	0.0723	0.3202	1143.0043	0.180913	-424.169417	-424.159635	-424.158691	-424.203729	37.036	
C	 0.4327527927	 1.4315501758	-1.3278956823	-0.455589
C	 0.3401731763	-0.0496414552	-0.9438267419	-0.017144
C	 1.5482707514	-1.0415862873	-0.9738370262	-0.165018
C	 2.0725309361	-0.4809278529	 0.3933277124	 0.022141
C	 2.8536461449	 0.8142682617	 0.5655551441	-0.448788
C	 0.5304841069	-0.5850042365	 0.5289096597	 0.343902
O	-0.1622014554	-0.2192926608	 1.6674107614	-0.47973
C	 0.6776239318	-2.0026355398	-0.0923043523	 0.074575
O	-0.5061455826	-2.5742133822	-0.5915688667	-0.447674
H	 1.4050548693	 1.7113412944	-1.7404547734	 0.122493
H	-0.3140611126	 1.6661398187	-2.0926058795	 0.108566
H	 0.2296539417	 2.0850928477	-0.472960083	 0.127642
H	-0.5438400897	-0.4901334116	-1.4061626271	 0.08377
H	 2.1484140742	-1.3201627235	-1.8391505628	 0.068521
H	 2.5857293354	-1.2554616399	 0.9797313479	 0.06224
H	 2.9515787741	 1.0352553573	 1.6340843352	 0.12406
H	 3.8672463103	 0.6967862209	 0.1654957394	 0.111833
H	 2.406496852	 1.6848599495	 0.0923899082	 0.123916
H	-1.0789379919	-0.49814408	 1.5604728636	 0.288361
H	 1.2446731199	-2.7230688717	 0.5102926105	 0.065602
H	-0.2709293348	-3.3282775547	-1.1405014871	 0.286319
48.9073	167.1497	184.8164	202.6413	221.6407	253.0958	259.8217	300.3357	306.9067	385.6121	425.7747	508.1271	530.3753	645.1071	687.2296	751.9274	783.1396	816.5044	865.1038	936.3611	948.5192	1022.7901	1050.3346	1059.6411	1078.2909	1113.2855	1127.002	1140.6673	1151.4527	1186.4674	1190.7094	1238.0682	1246.7026	1285.9823	1306.816	1372.1747	1403.4787	1417.4909	1421.5905	1434.5129	1479.9391	1494.9347	1505.4461	1510.5123	1520.631	3001.17	3027.4408	3037.1662	3040.0358	3085.5323	3088.5293	3103.2503	3114.4466	3124.2487	3180.0053	3798.6171	3823.1318
CC1C2C(C)C1(O)C2O	C[C@H]1[C@H]2[C@@H](C)[C@]1(O)[C@H]2O	
InChI=1S/C7H12O2/c1-3-5-4(2)7(3,9)6(5)8/h3-6,8-9H,1-2H3	InChI=1S/C7H12O2/c1-3-5-4(2)7(3,9)6(5)8/h3-6,8-9H,1-2H3/t3-,4+,5-,6-,7-/m0/s1
