18
gdb 10420	2.62024	1.88094	1.37445	1.3421	73.77	-0.2563	0.0415	0.2977	967.087	0.152804	-347.756668	-347.74826	-347.747316	-347.789233	31.839	
O	 0.0921816105	 1.2148409112	-0.3799809055	-0.422439
C	-0.0979041461	-0.1460408025	-0.0575041402	-0.100058
C	-1.5851076944	-0.5124353836	 0.1165870964	 0.120252
C	-2.3586435886	-0.4733088769	-1.2458012998	-0.247813
C	-2.1838656767	-2.0109416131	-1.3648275111	-0.218296
C	-1.7997763516	-2.0644283631	 0.1384885464	-0.260694
C	-2.1460305206	 0.2609078451	 1.2111730619	 0.238851
C	-2.5795418448	 0.9326463703	 2.1118696891	-0.448522
H	-0.3222271326	 1.7310585823	 0.3222233751	 0.286617
H	 0.3219075696	-0.7194873897	-0.8905902112	 0.105797
H	 0.4475421586	-0.4311032821	 0.855933099	 0.093115
H	-3.4017863881	-0.1817851043	-1.1091116933	 0.110002
H	-1.909658165	 0.1615183583	-2.0121242908	 0.119239
H	-3.0644146651	-2.5823480098	-1.6640012	 0.103853
H	-1.3564142281	-2.2928733196	-2.0205370602	 0.108323
H	-0.9280827097	-2.6611757859	 0.42218174	 0.103277
H	-2.6385503649	-2.3451111851	 0.7783018329	 0.113673
H	-2.9844068925	 1.5059155884	 2.9090141213	 0.19482
111.8138	122.4836	172.2897	177.9744	245.9049	334.449	398.0884	442.5496	519.8601	534.0182	620.0375	637.0537	642.3991	712.6756	797.319	856.9376	900.36	922.6802	943.8145	976.2967	1043.9266	1062.2452	1099.3989	1136.5861	1187.1141	1210.1982	1247.4954	1253.5256	1264.4425	1273.1945	1317.88	1375.5526	1427.9673	1477.2085	1486.9248	1501.5499	1510.6289	2219.9391	2981.0549	3058.4052	3068.7708	3074.2576	3077.4089	3108.2636	3123.941	3135.8536	3499.665	3780.8411
OCC1(CCC1)C#C	OCC1(CCC1)C#C	
InChI=1S/C7H10O/c1-2-7(6-8)4-3-5-7/h1,8H,3-6H2	InChI=1S/C7H10O/c1-2-7(6-8)4-3-5-7/h1,8H,3-6H2
