15
gdb 42619	2.84935	1.97344	1.4404	3.9634	70.2	-0.2451	-0.0706	0.1746	889.8541	0.114732	-416.781635	-416.775147	-416.774203	-416.812501	25.859	
N	-0.0685683856	 1.2824314159	 0.0660664702	-0.476127
C	-0.0174039357	 0.0222062388	 0.0089692584	 0.261359
N	-1.1592696807	-0.8234134124	-0.0478885897	-0.122791
C	-1.2581818685	-1.7711366672	-1.1903112046	-0.042531
C	 0.0943383009	-2.0240394685	-1.8665066728	-0.259028
C	 0.7295278503	-2.2102630128	-0.4311341507	-0.191875
C	-0.7257330801	-2.22054344	 0.1221523477	-0.064772
C	 1.2432776604	-0.8487990709	-0.0185773596	 0.373524
O	 2.3639821467	-0.4598387955	 0.1770854349	-0.318285
H	 0.8922838447	 1.6348472635	 0.1440837865	 0.243176
H	-2.2405056886	-1.8846509648	-1.6312876305	 0.117191
H	 0.090474259	-2.9760910765	-2.4009552495	 0.131278
H	 0.509626277	-1.2458539194	-2.5137204439	 0.125548
H	 1.4047056549	-3.0474838978	-0.2806743418	 0.10688
H	-1.1447005847	-2.8191696922	 0.9207021856	 0.116453
115.8992	201.8702	308.7869	366.0939	485.4527	491.3699	624.8418	652.569	691.8592	752.6521	803.6375	843.4943	866.574	891.0479	917.9811	926.6941	969.3009	974.9218	1008.221	1034.0569	1043.7124	1119.4297	1155.2005	1177.8593	1219.8329	1228.1107	1255.7846	1277.1076	1343.2214	1360.5383	1488.6273	1752.0393	1851.2872	3059.4235	3122.6971	3166.5217	3193.0529	3205.7965	3414.1274
N=C1N2C3CC(C23)C1=O	[NH][C]1N2[C@H]3C[C@H]([C@@H]23)C1=O	
InChI=1S/C6H6N2O/c7-6-5(9)2-1-3-4(2)8(3)6/h2-4,7H,1H2	InChI=1S/C6H6N2O/c7-6-5(9)2-1-3-4(2)8(3)6/h2-4,7H,1H2/t2-,3+,4-,8?/m1/s1
