19
gdb 72590	2.20439	1.57421	1.44551	3.2076	75.48	-0.2341	-0.017	0.2172	1044.5564	0.156936	-423.02542	-423.016312	-423.015368	-423.059154	34.319	
C	-0.16700837	 1.5996381644	 0.1739075104	-0.491536
C	-0.0019371696	 0.0997485508	 0.0989611211	 0.1681
C	 0.9723856147	-0.4921000754	-0.984430666	-0.276545
C	 1.7901922633	-1.2268628831	 0.1178088471	-0.289599
C	 0.7363377503	-0.8038014078	 1.1673776244	 0.368543
O	 1.1628677276	-0.2109887334	 2.3587421957	-0.478412
C	-0.5135047705	-1.7351852467	 1.2533793065	-0.431234
C	-1.224116565	-0.8069771373	 0.2458628288	 0.382802
O	-2.3306416884	-0.782884602	-0.212835158	-0.310089
H	 0.8050725172	 2.102992919	 0.1658790312	 0.121114
H	-0.7464675589	 1.9602873016	-0.6827015607	 0.133207
H	-0.6928520806	 1.89760778	 1.0858106853	 0.130118
H	 0.4954789767	-1.1351003109	-1.7279065489	 0.115446
H	 1.528025499	 0.2854421241	-1.5126650741	 0.116081
H	 1.9572488086	-2.2996337353	-0.013672042	 0.096253
H	 2.7491959693	-0.7396822667	 0.3101881806	 0.110269
H	 1.5520805563	-0.8907550649	 2.9201679231	 0.280993
H	-0.4051044843	-2.7837722304	 0.9611293557	 0.119871
H	-0.9898305657	-1.6828961861	 2.2379778798	 0.134617
55.6659	157.6381	163.428	186.9307	219.2241	265.2873	311.6771	386.1218	390.0746	504.2966	537.5128	580.643	609.4752	689.3743	755.4968	772.1074	845.8524	883.6608	921.3298	953.7875	988.4191	1012.1356	1040.2598	1078.8063	1134.5146	1170.3721	1185.993	1207.0556	1213.8101	1236.3048	1256.0337	1271.6635	1320.8873	1365.6202	1406.3212	1424.8223	1476.5127	1485.4414	1491.5747	1496.5243	1881.5034	3033.8779	3049.5801	3055.4155	3067.4496	3102.388	3105.1129	3108.4354	3109.4525	3124.6113	3796.4587
CC12CCC1(O)CC2=O	C[C@@]12CC[C@]1(O)CC2=O	
InChI=1S/C7H10O2/c1-6-2-3-7(6,9)4-5(6)8/h9H,2-4H2,1H3	InChI=1S/C7H10O2/c1-6-2-3-7(6,9)4-5(6)8/h9H,2-4H2,1H3/t6-,7-/m0/s1
