23
gdb 114042	2.6632	1.18716	1.00213	1.4117	86.48	-0.2265	0.0805	0.307	1344.8148	0.204145	-388.265396	-388.255461	-388.254517	-388.299834	37.55	
C	-0.4263761851	 1.2947706744	-0.3533512353	-0.383331
C	 0.8668939723	 0.6373588674	 0.1414403233	-0.214506
C	 1.5160550277	-0.2061300224	-0.9435234842	 0.153791
O	 2.7986717437	-0.7986229232	-0.581376132	-0.345327
C	 2.4062317523	-2.0509680769	-1.1759368027	 0.441546
C	 3.4150391958	-2.7336322662	-2.0415917419	-0.488222
C	 1.3023534416	-2.6752795201	-0.3796610999	-0.054162
C	 1.2002255085	-2.61862973	 1.1301126448	-0.424543
C	 0.9781596901	-1.5672918335	-1.3809758104	-0.232788
H	-0.2412153133	 1.9357455218	-1.222638572	 0.115308
H	-1.1660999398	 0.5421688148	-0.6470237084	 0.120894
H	-0.875668337	 1.915409162	 0.4270784603	 0.116477
H	 1.5869573098	 1.4080852891	 0.4445734885	 0.10447
H	 0.6625280724	 0.0301910361	 1.0263241689	 0.104615
H	 1.671310467	 0.4233173116	-1.8333997364	 0.075353
H	 4.2840538164	-3.0414775674	-1.4484212448	 0.130314
H	 2.9852360479	-3.6294277478	-2.4992455214	 0.120636
H	 3.7687119582	-2.0686131668	-2.8360229355	 0.125213
H	 1.005005075	-3.6333975017	-0.8052065767	 0.083458
H	 1.7934068661	-1.792851533	 1.52684488	 0.138854
H	 0.164870795	-2.5011311948	 1.4677016824	 0.112348
H	 1.5871737787	-3.5455084525	 1.5676494388	 0.110257
H	 0.3062775071	-1.7290238909	-2.2144456155	 0.089345
76.0736	135.4575	164.0553	194.6014	208.7173	226.1317	245.0048	267.792	309.0419	351.5377	429.1151	559.2559	580.7259	666.6307	701.1124	757.3149	806.017	880.9292	895.8052	922.3564	949.7745	971.498	992.3674	1018.8979	1049.3358	1075.024	1094.9613	1115.5515	1128.5706	1164.3141	1167.7302	1210.8504	1268.5093	1278.1743	1312.3535	1336.0121	1345.641	1402.8887	1407.4909	1410.2767	1419.2665	1474.3427	1479.9673	1487.5205	1495.8075	1501.6081	1504.1681	1508.5717	1510.2301	2979.3576	3029.9955	3032.1064	3032.7284	3035.5824	3087.038	3089.0412	3092.2026	3108.1377	3111.1862	3114.2035	3116.1747	3134.8714	3187.3115
CCC1OC2(C)C(C)C12	CC[C@H]1O[C@@]2(C)[C@@H](C)[C@@H]12	
InChI=1S/C8H14O/c1-4-6-7-5(2)8(7,3)9-6/h5-7H,4H2,1-3H3	InChI=1S/C8H14O/c1-4-6-7-5(2)8(7,3)9-6/h5-7H,4H2,1-3H3/t5-,6+,7-,8-/m0/s1
