20
gdb 52726	4.62709	0.5809	0.53323	3.5604	88.05	-0.2522	0.0219	0.2741	2071.1778	0.167802	-403.126722	-403.115382	-403.114437	-403.167111	37.512	
C	-0.0457096988	 1.4649935437	-0.0225824331	-0.497656
C	 0.0094621702	 0.0098082719	-0.018484459	 0.061382
C	 0.0557182633	-1.193480371	-0.0004075598	 0.056261
C	 0.1012713176	-2.6550584625	-0.0097313993	-0.162026
C	-1.3049159106	-3.2780533961	 0.0798490028	-0.388592
C	 0.8542440706	-3.1306446381	-1.261107997	-0.069476
O	 1.0124719497	-4.5467274609	-1.1693765228	-0.184007
C	 1.3190824055	-5.2001784101	-2.3055160417	 0.128876
N	 1.5669485004	-6.4373571633	-2.2764328636	-0.439317
H	 0.501949879	 1.8865853474	 0.8274715185	 0.149821
H	 0.3947738053	 1.8774157776	-0.9370300292	 0.147768
H	-1.0789403569	 1.8242497392	 0.0376755424	 0.149425
H	 0.6841411441	-2.997837421	 0.8559160221	 0.119621
H	-1.2336868317	-4.3678138974	 0.0641394185	 0.140123
H	-1.801455018	-2.9688244631	 1.0026290034	 0.125297
H	-1.9237665682	-2.9528911862	-0.762602029	 0.118716
H	 0.2877012581	-2.8651051573	-2.1635846495	 0.11163
H	 1.8377427364	-2.6489077501	-1.3147070567	 0.118593
H	 1.3142172006	-4.5562691933	-3.1964853534	 0.084693
H	 1.7596466534	-6.7736006394	-3.2176119634	 0.22887
10.0641	23.2418	63.1335	69.4149	117.3234	167.2759	194.4255	242.8243	288.063	305.5114	339.506	398.7278	505.8717	523.7764	640.2048	752.163	822.137	885.9973	932.9534	999.855	1037.6137	1045.8291	1053.4971	1053.8853	1123.2485	1128.452	1150.141	1192.3958	1262.3649	1299.2594	1318.8377	1349.9593	1393.3575	1407.9808	1415.3239	1429.93	1478.277	1478.9307	1494.4201	1499.3211	1509.829	1747.5655	2371.607	3005.4355	3016.8926	3022.2707	3027.0173	3045.6854	3064.6961	3087.7194	3088.1685	3118.3233	3136.8581	3519.1038
CC#CC(C)COC=N	CC#C[C@@H](C)CO[CH][NH]	
InChI=1S/C7H11NO/c1-3-4-7(2)5-9-6-8/h6-8H,5H2,1-2H3	InChI=1S/C7H11NO/c1-3-4-7(2)5-9-6-8/h6-8H,5H2,1-2H3/t7-/m1/s1
