21
gdb 77488	1.93197	1.81565	1.178	3.0449	83.78	-0.2269	0.0172	0.2441	1160.0058	0.180465	-387.077752	-387.067997	-387.067053	-387.111745	36.377	
C	-0.1536169883	 1.5599955907	-0.0081359366	-0.446919
C	 0.0238042315	 0.0471718104	 0.0144157925	-0.031521
C	 1.2025443223	-0.6379258921	-0.7889592426	 0.178804
C	 1.4485109142	-0.632500233	-2.2698045879	-0.518374
C	 2.1553851152	-0.1609891909	 0.3678771041	-0.323476
C	 0.880184641	-0.6468511212	 1.149827936	 0.178796
C	 0.6337414266	-0.6550867263	 2.6305819456	-0.518373
C	 0.9319649524	-1.8167768177	 0.1568361441	 0.393739
O	 0.8239998714	-3.0065564285	 0.1334096274	-0.340234
H	 0.7707332815	 2.120256745	 0.1485997845	 0.121812
H	-0.5711460982	 1.875358025	-0.9704847827	 0.124306
H	-0.861254331	 1.8672481831	 0.7695136098	 0.124306
H	-0.9494678355	-0.4296250262	-0.1496162228	 0.078803
H	 1.5766167324	 0.3854246144	-2.6533553619	 0.12168
H	 2.351030425	-1.2008255952	-2.5172631931	 0.131322
H	 0.6101947323	-1.0917095087	-2.8041991049	 0.130428
H	 3.0756494241	-0.7308046662	 0.5182704875	 0.106945
H	 2.3528276942	 0.9099773461	 0.4056255255	 0.104524
H	 0.629046137	 0.3591766699	 3.0440316195	 0.12168
H	-0.3315766142	-1.1180844465	 2.8608397274	 0.130431
H	 1.4086416363	-1.2267189422	 3.1516745285	 0.13132
139.1341	152.0719	162.6218	166.6522	175.4871	197.0046	227.3951	231.7417	379.6498	382.3715	518.3197	567.8148	590.3083	638.9012	726.5904	738.8762	768.8534	837.3632	850.2694	906.4651	1007.2928	1011.3931	1019.3067	1070.6898	1097.0467	1105.9481	1121.2405	1153.7964	1184.8515	1189.3366	1193.6133	1325.3114	1369.8054	1409.4705	1411.8306	1414.8562	1430.9393	1486.0039	1487.2394	1489.3334	1489.8349	1494.972	1499.1686	1531.2889	1901.3473	3031.0002	3031.2488	3033.2015	3039.67	3071.9529	3092.1144	3097.0304	3097.1102	3101.7991	3101.8737	3120.0047	3144.1821
CC1C2(C)CC1(C)C2=O	C[C@H]1[C@@]2(C)C[C@]1(C)C2=O	
InChI=1S/C8H12O/c1-5-7(2)4-8(5,3)6(7)9/h5H,4H2,1-3H3	InChI=1S/C8H12O/c1-5-7(2)4-8(5,3)6(7)9/h5H,4H2,1-3H3/t5-,7+,8-
