15
gdb 11014	4.4153	1.78916	1.5038	3.6248	62.93	-0.2624	0.0052	0.2676	851.7546	0.119136	-399.800711	-399.793717	-399.792772	-399.831749	26.366	
C	 0.0424023004	 1.5004235949	-0.0626785544	-0.493339
C	-0.0539241191	 0.0112696097	 0.1014919841	 0.396797
C	-1.3051316174	-0.7479245028	-0.3101865691	-0.140674
O	-1.2739178796	-1.9934537258	 0.4071655791	-0.2529
C	-0.3029885141	-1.985037632	 1.3736838997	 0.454099
N	-0.1766352836	-2.837796644	 2.2945108725	-0.547403
C	 0.5680446266	-0.7948650345	 1.162321233	-0.143635
O	 1.1131697432	-0.768362439	-0.1731947501	-0.283104
H	 1.0058840909	 1.8590229055	 0.3060962063	 0.144219
H	-0.0419931236	 1.7787045315	-1.1187469474	 0.137313
H	-0.7571880977	 2.00716364	 0.4866704169	 0.132594
H	-2.2146452405	-0.1997646818	-0.0364962395	 0.116918
H	-1.3251535072	-0.9675935334	-1.3819621055	 0.130617
H	-0.9199385173	-3.5372629195	 2.2427320038	 0.226672
H	 1.197814049	-0.4194903289	 1.9599394605	 0.121826
137.7348	183.5195	198.0332	279.4846	371.0854	412.5404	449.0145	565.5519	668.0059	702.131	778.5717	852.6181	884.5614	908.6989	920.4577	984.9284	1001.3216	1026.8704	1079.0831	1105.3503	1127.6143	1231.8758	1244.0199	1257.5469	1319.5041	1389.2946	1414.3914	1458.9002	1486.6708	1494.3989	1503.859	1785.0753	3033.7829	3041.3116	3090.0749	3104.4174	3132.2622	3200.3909	3469.6124
CC12COC(=N)C1O2	C[C@]12CO[C]([NH])[C@H]1O2	
InChI=1S/C5H7NO2/c1-5-2-7-4(6)3(5)8-5/h3,6H,2H2,1H3	InChI=1S/C5H7NO2/c1-5-2-7-4(6)3(5)8-5/h3,6H,2H2,1H3/t3-,5+/m1/s1
