15
gdb 56044	4.02551	0.79829	0.66909	7.2658	73.66	-0.2515	-0.0434	0.2081	1555.27	0.110371	-453.950171	-453.940755	-453.939811	-453.98525	33.535	
N	-0.1559868171	 1.4097234256	 0.1188451302	-0.554263
C	 0.0042594535	 0.0491212053	 0.0266187156	 0.228876
N	 1.1220080375	-0.5787557463	-0.0149272652	-0.316638
H	 2.2254337194	-2.0848864248	-0.0624435778	 0.311506
C	 2.3613389729	 0.1685351513	 0.0046186606	-0.329372
C	 3.5590686204	-0.7947888665	-0.0365156024	 0.4176
O	 3.2082952315	-2.0832092857	-0.0707394531	-0.358796
O	 4.6974785255	-0.4114719576	-0.0373245351	-0.342277
C	-1.2235292491	-0.6996715797	 0.0177669422	 0.272525
C	-2.2669194113	-1.2955007171	 0.0054717399	-0.368557
H	 0.6261766934	 2.0094692754	-0.085646652	 0.274088
H	-1.0708549292	 1.7948680757	-0.0447132552	 0.273222
H	 2.4670201961	 0.8467842306	-0.8567483054	 0.134087
H	 2.4692352662	 0.787091106	 0.9082202806	 0.142563
H	-3.1776650798	-1.8432958921	-0.0036596228	 0.215437
57.4939	70.7337	100.5278	178.8272	209.5916	289.1597	318.1633	354.8081	417.4804	461.0664	547.6253	579.4609	600.676	648.6654	656.5462	677.8248	727.4334	808.992	858.0954	904.7032	991.2484	1036.3796	1148.3849	1217.9011	1231.7271	1335.9965	1362.6269	1435.7327	1450.1625	1635.7544	1708.3388	1876.5349	2243.7884	2980.5759	3018.8582	3477.2548	3497.4599	3605.3164	3725.4174
NC(=[NH+]CC([O-])=O)C#C	NC(=NCC(=O)O)C#C	
InChI=1S/C5H6N2O2/c1-2-4(6)7-3-5(8)9/h1H,3H2,(H2,6,7)(H,8,9)	InChI=1S/C5H6N2O2/c1-2-4(6)7-3-5(8)9/h1H,3H2,(H2,6,7)(H,8,9)
