25
gdb 103632	2.11797	1.20021	1.14482	1.3986	88.11	-0.2451	0.0644	0.3095	1328.9511	0.227172	-389.491185	-389.480404	-389.47946	-389.526277	41.041	
C	 0.0807585987	 1.2955928232	-0.5155458023	-0.395974
C	-0.1772500522	-0.1948180457	-0.262812186	-0.239732
C	-1.6220955413	-0.5459783139	 0.1328243767	 0.324635
C	-2.0534988231	 0.1823429928	 1.4053247394	-0.463934
C	-2.6352369343	-0.4662750353	-1.0593394856	-0.292525
C	-2.6718088181	-2.019921108	-1.1681064388	-0.010994
C	-1.9844915742	-2.6204123747	-2.3918850516	-0.420284
C	-1.8792652208	-2.0981792812	 0.1758647761	 0.083024
O	-0.7971472812	-2.990969263	 0.2984078863	-0.425012
H	 1.1011108642	 1.4540423854	-0.8782606785	 0.111998
H	-0.6042591309	 1.7000124577	-1.2686952485	 0.117694
H	-0.0388281964	 1.8890467417	 0.3951960659	 0.121592
H	 0.0979477037	-0.7447543373	-1.1728329299	 0.080622
H	 0.4975457668	-0.5556244598	 0.5235342703	 0.105144
H	-2.0825797507	 1.2683574326	 1.2690247708	 0.114175
H	-3.0570103023	-0.1332658046	 1.7106405523	 0.107915
H	-1.3696324719	-0.0344611815	 2.2347265813	 0.1156
H	-3.5953024031	-0.0246930299	-0.7792397081	 0.093833
H	-2.2728872171	 0.053343311	-1.9519792596	 0.092075
H	-3.6765506949	-2.4468395953	-1.0916517437	 0.068453
H	-0.9932164863	-2.1876747265	-2.5714754551	 0.108849
H	-1.8634099947	-3.7033465013	-2.2850327824	 0.124967
H	-2.5774065361	-2.4346867488	-3.2935391442	 0.118142
H	-2.5422032461	-2.3506273569	 1.0088897579	 0.078325
H	-0.1958461776	-2.8447754105	-0.4382196828	 0.281412
70.9729	112.6643	175.4991	202.0069	210.7492	229.9841	237.4833	260.911	304.2968	315.5529	339.9303	358.069	417.9263	539.5918	541.0699	656.3144	753.7625	788.2252	801.8451	835.4754	900.7849	907.1374	942.9316	996.3185	1017.368	1025.4953	1039.7348	1073.8127	1090.928	1126.1695	1166.682	1193.49	1207.1005	1224.1335	1256.2293	1274.7456	1288.9804	1304.5372	1339.0516	1363.8834	1368.0435	1404.8937	1408.4	1414.0201	1441.6134	1479.5478	1487.3976	1494.3719	1495.486	1498.3097	1502.1188	1506.512	1514.0303	3008.904	3022.5769	3024.9794	3037.7538	3043.2765	3046.6341	3048.9825	3063.9493	3087.3291	3088.1535	3094.3429	3098.5118	3101.3055	3102.3042	3113.3299	3828.0472
CCC1(C)CC(C)C1O	CC[C@@]1(C)C[C@@H](C)[C@H]1O	
InChI=1S/C8H16O/c1-4-8(3)5-6(2)7(8)9/h6-7,9H,4-5H2,1-3H3	InChI=1S/C8H16O/c1-4-8(3)5-6(2)7(8)9/h6-7,9H,4-5H2,1-3H3/t6-,7-,8+/m1/s1
