19
gdb 66357	2.28244	1.48735	1.37847	2.6588	75.29	-0.2286	0.0217	0.2503	1073.5364	0.160625	-419.219444	-419.210875	-419.209931	-419.252237	32.876	
C	 0.0087778014	 1.526229431	 0.0585749529	-0.421998
C	-0.0088206867	-0.0009420839	 0.0000163032	 0.19887
C	 0.6936747113	-0.5470085573	-1.2729538787	-0.189071
N	 0.8993150708	-1.9869080521	-1.2546377722	-0.293559
C	 1.5448010759	-2.4134450966	-0.0100301901	-0.167538
C	 0.8281788648	-1.880779664	 1.2302752248	-0.091476
O	 0.6730361608	-0.4605963222	 1.1611574453	-0.27221
C	-1.4135733587	-0.4914505054	 0.0133783552	 0.251633
N	-2.4952481099	-0.8995621477	 0.0008665894	-0.346204
H	 1.0465873592	 1.868532935	 0.0493728675	 0.13389
H	-0.518682807	 1.9525602861	-0.7985552663	 0.134785
H	-0.4670503443	 1.8748331437	 0.9774521642	 0.14585
H	 0.1258236023	-0.2669959673	-2.1652823053	 0.119368
H	 1.6730741203	-0.054853617	-1.3241597596	 0.115329
H	 0.007655078	-2.4625071566	-1.3633979245	 0.231808
H	 1.5890838217	-3.5069900421	 0.0166036124	 0.109782
H	 2.5766904805	-2.0393727499	-0.0192341553	 0.114031
H	-0.1577726517	-2.3583738432	 1.3367857026	 0.111822
H	 1.4015364611	-2.0666267605	 2.1429216544	 0.114888
111.9677	149.5959	195.8892	215.6599	278.2889	297.0153	336.6978	417.3627	429.2338	462.8649	559.2719	604.9837	635.2538	694.854	797.3974	833.7449	877.2537	901.2115	922.7158	1000.1823	1013.5154	1097.5567	1104.1393	1147.8665	1161.7877	1187.4198	1202.6862	1256.2434	1295.3578	1350.4891	1355.6884	1391.0282	1405.1583	1408.542	1463.2358	1476.5273	1480.2712	1487.6218	1496.0352	1500.9515	2343.5287	2996.6321	3027.136	3031.1607	3053.9663	3084.9202	3092.5429	3092.7167	3134.3263	3140.3108	3505.5733
CC1(CNCCO1)C#N	C[C@]1(CNCCO1)C#N	
InChI=1S/C6H10N2O/c1-6(4-7)5-8-2-3-9-6/h8H,2-3,5H2,1H3	InChI=1S/C6H10N2O/c1-6(4-7)5-8-2-3-9-6/h8H,2-3,5H2,1H3/t6-/m1/s1
