21
gdb 81780	2.14916	1.68537	1.29311	1.666	78.21	-0.2446	0.0691	0.3137	1110.1371	0.17902	-424.20326	-424.193364	-424.192419	-424.236966	37.806	
C	-0.4063828723	 1.5550313791	 0.3252452209	-0.417431
C	-0.1348429599	 0.0605901262	 0.2273912606	-0.056101
C	 0.3195079868	-0.4874376197	-1.1319854853	-0.071154
O	 1.6147224021	 0.0817806757	-1.401702243	-0.303335
C	 1.5397715862	-1.0879253713	-0.5728560809	 0.424779
C	 2.3421665691	-2.2957412907	-0.925181213	-0.51422
C	 1.1897004556	-0.5765123963	 0.8451721387	 0.312416
C	 2.1970905221	 0.3432537767	 1.5143871484	-0.4645
O	 0.9040748822	-1.7155130039	 1.6432659384	-0.481444
H	 0.3979839476	 2.1279274544	-0.1435282594	 0.133156
H	-1.3431344562	 1.8126989737	-0.1813856156	 0.114258
H	-0.4971763608	 1.8813772308	 1.3670785443	 0.109146
H	-0.97591899	-0.5259256692	 0.6109897774	 0.076079
H	-0.2758307693	-0.7759002534	-1.9921052623	 0.096012
H	 2.2406051593	-2.5266503602	-1.9889855796	 0.128302
H	 3.4048009766	-2.135403274	-0.7107689423	 0.126998
H	 2.003175267	-3.15188232	-0.3362133674	 0.144122
H	 2.508103096	 1.1379190137	 0.8330541601	 0.139839
H	 1.7689004471	 0.8113449329	 2.4095757569	 0.104785
H	 3.0801827521	-0.2267396569	 1.8198489415	 0.121082
H	 0.6062103089	-1.4087213877	 2.5062813116	 0.277209
116.9423	189.3135	200.1928	213.0031	219.2429	225.8578	247.743	256.4118	287.0637	372.991	396.3598	475.3654	527.3032	563.9177	648.9456	664.5206	757.0817	832.0623	863.666	892.3614	954.5265	982.2894	1013.7735	1030.233	1060.8483	1078.5751	1104.845	1129.0403	1183.0424	1187.4566	1216.3583	1252.5514	1267.4541	1350.9028	1373.7709	1397.0845	1401.854	1406.4632	1473.0876	1480.8031	1483.7179	1494.2173	1496.3055	1500.611	1510.215	3026.1103	3031.5439	3038.2669	3059.8823	3088.8307	3092.8728	3103.7443	3118.2565	3130.1596	3133.7482	3170.9623	3805.8315
CC1C2OC2(C)C1(C)O	C[C@H]1[C@H]2O[C@@]2(C)[C@]1(C)O	
InChI=1S/C7H12O2/c1-4-5-7(3,9-5)6(4,2)8/h4-5,8H,1-3H3	InChI=1S/C7H12O2/c1-4-5-7(3,9-5)6(4,2)8/h4-5,8H,1-3H3/t4-,5+,6+,7+/m0/s1
