16
gdb 18650	3.2753	2.26912	1.53586	3.8825	71.01	-0.2338	-0.0432	0.1906	829.322	0.132767	-346.631699	-346.625225	-346.624281	-346.662205	25.596	
O	 0.0255444485	 0.0498878028	 0.4770517693	-0.352584
C	-0.0210692972	 1.2078891683	 0.1042091955	 0.400456
C	-1.3111706829	 1.8787959204	-0.1781574516	-0.167211
C	-1.3992602114	 3.0134807709	-0.8821936153	-0.044001
C	-0.2200987608	 3.7475347645	-1.4546293453	-0.286862
C	 1.1157074646	 3.3320616466	-0.8670191748	-0.035123
C	 1.3271308775	 3.356480511	 0.6133073792	-0.292096
C	 1.2137148658	 2.0171360374	-0.1060243833	-0.135982
H	-2.1957034043	 1.3540717138	 0.1687782847	 0.108148
H	-2.3788177944	 3.4337755728	-1.1013266717	 0.107016
H	-0.2163229018	 3.5884926163	-2.5431969871	 0.127299
H	-0.3663511608	 4.8288819852	-1.3247458646	 0.119664
H	 1.9768148791	 3.5840514945	-1.4779508856	 0.095926
H	 2.3065715195	 3.6243951888	 0.9920895905	 0.124245
H	 0.4986713209	 3.6510402133	 1.248462857	 0.126416
H	 2.1163440178	 1.4229903133	-0.1885915569	 0.104689
114.2519	235.4707	304.7965	360.6062	438.5691	498.3322	516.8039	656.8341	723.6478	759.445	786.6823	835.1656	884.3774	913.8892	923.9964	996.2242	1010.6018	1031.2286	1044.1841	1075.8505	1115.3892	1129.1933	1178.3114	1211.6946	1239.7173	1265.8277	1362.5446	1374.5435	1397.619	1416.8316	1467.2738	1486.4978	1687.059	1765.9785	3001.4695	3026.1098	3137.8177	3147.7354	3154.7725	3183.9663	3189.6061	3226.9454
O=C1C=CCC2CC12	O=C1C=CC[C@H]2C[C@@H]12	
InChI=1S/C7H8O/c8-7-3-1-2-5-4-6(5)7/h1,3,5-6H,2,4H2	InChI=1S/C7H8O/c8-7-3-1-2-5-4-6(5)7/h1,3,5-6H,2,4H2/t5-,6+/m0/s1
