16
gdb 11533	5.95273	0.98478	0.92785	2.381	62.5	-0.2708	-0.0409	0.2299	1219.7666	0.128158	-420.857426	-420.849089	-420.848145	-420.891119	29.237	
O	-0.1733388545	 1.4119074814	 0.001470799	-0.438486
C	 0.0462610683	 0.0302804774	-0.0901351795	 0.058691
C	 0.9098845072	-0.3138902882	-1.3209468752	-0.251449
C	 0.2129272316	 0.0925926238	-2.5968902261	 0.099859
C	 0.3296636775	-0.6927714527	-3.830088994	-0.180218
O	-0.8485514426	-0.7674942648	-3.0242169675	-0.239111
C	 0.6935302018	-0.4872876929	 1.1758303007	 0.132181
O	 0.9710283874	 0.2463915205	 2.0939285065	-0.258939
H	 0.1582003046	 1.6718307766	 0.8756752471	 0.295492
H	-0.9129652265	-0.5072188517	-0.2007342306	 0.113722
H	 1.8677990721	 0.2135372484	-1.2372907815	 0.115972
H	 1.1092118757	-1.3915828158	-1.3463656538	 0.10424
H	-0.0157359689	 1.1544975785	-2.6763519785	 0.116962
H	 0.2057874749	-0.2076244926	-4.797090626	 0.11892
H	 0.9475643288	-1.5903327039	-3.8386265215	 0.111968
H	 0.9023267626	-1.5760778041	 1.214098661	 0.100195
68.4411	72.1196	110.1258	174.6134	299.0793	330.9257	345.907	420.5279	459.9123	510.8287	749.3112	786.164	841.512	858.9486	900.0401	959.3877	983.2325	1047.995	1095.5092	1118.0729	1159.6098	1169.3289	1179.4193	1242.0842	1259.9443	1293.7199	1314.784	1356.6143	1398.9793	1436.9595	1444.1764	1458.2746	1530.1945	1812.7149	2927.0022	2956.8574	3030.8514	3080.7556	3081.8105	3130.0744	3168.193	3689.9662
OC(CC1CO1)C=O	O[C@@H](C[C@H]1CO1)C=O	
InChI=1S/C5H8O3/c6-2-4(7)1-5-3-8-5/h2,4-5,7H,1,3H2	InChI=1S/C5H8O3/c6-2-4(7)1-5-3-8-5/h2,4-5,7H,1,3H2/t4-,5-/m0/s1
