19
gdb 110750	2.51074	1.34137	1.14259	4.0507	77.35	-0.236	-0.0034	0.2326	1179.629	0.157083	-423.010353	-423.001075	-423.000131	-423.044538	33.749	
C	 0.1514809196	 1.1173265026	 0.2736708131	-0.240019
O	-0.4439472712	-0.0135572188	-0.3351157516	-0.238407
C	 0.3576064674	-0.5736554207	-1.326787959	 0.094127
C	 1.4257421558	-1.567624836	-1.0241347307	-0.169167
C	 1.0209171479	-2.4010006328	 0.2009099132	-0.3552
C	-0.2269562326	-2.8388165376	-0.5992029639	 0.386508
O	-1.0284105392	-3.7165416047	-0.4454335217	-0.318445
C	 0.1003978565	-1.9799726163	-1.7917611855	 0.139498
C	-0.1990013417	-2.3481727805	-3.2171220674	-0.499095
H	 1.1063465096	 0.8640664186	 0.7559234745	 0.112951
H	 0.3345881684	 1.9182663041	-0.4585184993	 0.109696
H	-0.5487272585	 1.480209002	 1.0287859284	 0.134814
H	 0.5841501616	 0.1146531945	-2.1455921168	 0.09043
H	 2.4238885178	-1.5127526075	-1.4403567754	 0.102618
H	 1.6700807446	-3.2608520501	 0.3876701265	 0.127655
H	 0.8519173647	-1.8597359093	 1.1341526274	 0.126021
H	-1.2716117815	-2.2564651131	-3.4183254025	 0.14349
H	 0.3307048074	-1.6957149987	-3.9178542302	 0.119951
H	 0.0896448933	-3.3829279358	-3.426136959	 0.132573
84.098	100.8746	139.1539	176.8937	201.3852	234.4764	266.9543	293.1244	420.5009	472.4711	563.6185	611.4327	645.4148	702.8401	772.2712	879.1559	894.5801	939.0277	974.6168	990.0212	1026.9845	1055.116	1079.5048	1104.105	1146.5724	1156.4986	1183.503	1219.5235	1227.0459	1255.1137	1297.3472	1338.8495	1413.0108	1434.4933	1459.3371	1482.9955	1486.2236	1489.4709	1495.1235	1509.6314	1878.6561	2984.6301	3035.3562	3036.878	3068.0762	3069.6613	3101.2718	3108.8371	3123.0094	3126.3247	3195.2977
COC1C2CC(=O)C12C	CO[C@H]1[C@H]2CC(=O)[C@@]12C	
InChI=1S/C7H10O2/c1-7-4(3-5(7)8)6(7)9-2/h4,6H,3H2,1-2H3	InChI=1S/C7H10O2/c1-7-4(3-5(7)8)6(7)9-2/h4,6H,3H2,1-2H3/t4-,6+,7+/m1/s1
