19
gdb 64861	3.95612	0.8962	0.83034	2.113	83.46	-0.2504	-0.0279	0.2224	1411.7058	0.156477	-385.861232	-385.851765	-385.850821	-385.895691	35.159	
C	-0.1138388521	 1.6362514526	 0.0191299367	-0.455417
C	-0.0075819389	 0.1156806204	 0.027563499	 0.220909
C	 1.139642042	-0.4525434407	-0.876080096	-0.278194
C	 2.0545041197	-0.5761912588	 0.382176145	-0.156513
C	 0.7677525849	-0.466838768	 1.2583360192	-0.278211
C	 2.8899329728	-1.750215163	 0.5198817569	 0.30219
C	 3.5624970394	-2.741320576	 0.6304275015	-0.439965
C	-1.3440650386	-0.5443198865	-0.2098899836	 0.116574
O	-2.3860460018	 0.032547428	-0.3877436042	-0.251813
H	 0.861603866	 2.10088739	 0.1933122224	 0.112826
H	-0.4980324958	 1.9919357296	-0.9410167438	 0.13143
H	-0.8026437074	 1.980257297	 0.7957887791	 0.131467
H	 0.8959624946	-1.4381745016	-1.2819733633	 0.117013
H	 1.4841496374	 0.1930369692	-1.6864915656	 0.117183
H	 2.6638092077	 0.3261003391	 0.4943654368	 0.10949
H	 0.8163974356	 0.167251836	 2.1459158902	 0.117178
H	 0.4034393502	-1.4571477303	 1.5450059479	 0.117007
H	 4.162904504	-3.6115235752	 0.7292147117	 0.197128
H	-1.3001862297	-1.6601608517	-0.2097112497	 0.069718
64.9722	77.4679	150.2723	205.7961	221.2829	265.0795	296.864	370.5477	379.1984	417.1724	521.1139	530.0807	622.1599	634.3969	662.7114	758.5661	833.0973	874.4098	884.2512	938.5875	964.512	974.3273	1031.9304	1065.1576	1076.9057	1156.7806	1173.4936	1184.4266	1243.8578	1252.4913	1276.5319	1326.4446	1358.8058	1411.2353	1431.0543	1470.3968	1485.9755	1488.9116	1495.0483	1825.4797	2233.8293	2844.3424	3041.7351	3054.8037	3060.2508	3065.573	3112.4879	3118.3008	3122.7837	3124.9504	3504.4218
CC1(CC(C1)C#C)C=O	C[C@]1(C[C@@H](C1)C#C)C=O	
InChI=1S/C8H10O/c1-3-7-4-8(2,5-7)6-9/h1,6-7H,4-5H2,2H3	InChI=1S/C8H10O/c1-3-7-4-8(2,5-7)6-9/h1,6-7H,4-5H2,2H3/t7-,8+
