23
gdb 91384	2.42391	1.44137	1.26692	1.4435	84.26	-0.2345	0.0703	0.3048	1161.4636	0.20697	-388.296162	-388.287379	-388.286435	-388.329709	34.558	
C	-0.9365334545	 1.1361162734	-0.2101071329	-0.413825
C	 0.0271735345	-0.0416211366	-0.2253724961	 0.039747
C	 1.3884136011	 0.1209219476	-0.9657615316	-0.278639
C	 2.1166118463	-0.5087533306	 0.2601476759	 0.127395
O	 3.0981292793	 0.2660756283	 0.9100335132	-0.272969
C	 2.5089779325	 1.1319450915	 1.8883161844	 0.138323
C	 2.5579748717	 2.5919725796	 1.4363127479	-0.398127
C	 1.0783726676	 0.5946670507	 2.1683152657	-0.273765
C	 0.7960498936	-0.4553673152	 1.077177065	-0.060048
H	-0.4514466555	 2.0587875041	 0.124977378	 0.117318
H	-1.3296697089	 1.3232207284	-1.2156149997	 0.11492
H	-1.7904329794	 0.9494188206	 0.4512308019	 0.112992
H	-0.5022993709	-0.9206851166	-0.6074071898	 0.071362
H	 1.4899911924	-0.4126285286	-1.9143264438	 0.095155
H	 1.6826563575	 1.1616208015	-1.1245809834	 0.10317
H	 2.5424187196	-1.4972924691	 0.0667050266	 0.072441
H	 3.1306415263	 1.0369712232	 2.7875694727	 0.076747
H	 1.903315177	 2.7745550111	 0.5786580574	 0.119565
H	 2.2413796264	 3.2522124413	 2.2514531545	 0.109178
H	 3.5778003178	 2.8644651037	 1.150351949	 0.123007
H	 1.0396050049	 0.1246190612	 3.154153379	 0.104639
H	 0.3469448793	 1.4073045175	 2.1766652979	 0.104561
H	 0.4527573912	-1.394116627	 1.5156899083	 0.066851
53.4001	99.2948	210.1768	245.1958	269.5072	335.2246	340.7052	378.3768	426.2701	476.0408	588.3458	694.301	713.108	758.0929	791.7423	843.9045	886.0093	910.3047	915.7447	931.625	944.1778	987.5716	1039.7761	1069.7844	1086.3783	1100.9357	1125.5018	1138.6483	1153.159	1175.3165	1221.8869	1231.0669	1248.3314	1258.3415	1284.069	1313.9893	1329.8347	1349.2104	1358.5316	1383.3845	1396.9227	1404.5223	1411.019	1476.3913	1488.615	1490.932	1492.7176	1499.1274	1510.9646	3015.8661	3025.9602	3034.1599	3040.1352	3058.3993	3060.9061	3063.3899	3084.1714	3089.6358	3096.9743	3103.3877	3103.8141	3114.3383	3119.6327
CC1CC2OC(C)CC12	C[C@H]1C[C@H]2O[C@@H](C)C[C@@H]12	
InChI=1S/C8H14O/c1-5-3-8-7(5)4-6(2)9-8/h5-8H,3-4H2,1-2H3	InChI=1S/C8H14O/c1-5-3-8-7(5)4-6(2)9-8/h5-8H,3-4H2,1-2H3/t5-,6-,7-,8+/m0/s1
