17
gdb 66950	2.60978	1.92863	1.41069	0.9487	71.44	-0.234	0.0739	0.3079	942.1695	0.135731	-421.739962	-421.732749	-421.731805	-421.771205	29.335	
O	 0.045844587	 1.3495343259	-0.1024964203	-0.464197
C	 0.0682780131	-0.0197636301	-0.0251773658	 0.329306
C	-0.2380345132	-0.8815337496	-1.2466908147	-0.115099
C	 0.441151748	-2.2363030253	-1.0342634768	-0.235257
C	 0.0434869064	-2.0733727364	 0.4622440407	-0.180847
C	-1.0712726788	-1.0363636222	 0.0125933048	-0.167357
C	 0.88497504	-0.869105901	 0.9125366895	 0.424729
C	 2.2003059121	-0.7160338489	 1.5237470796	-0.29337
O	 0.9840155892	-0.4831100792	 2.2749156962	-0.31144
H	-0.1072258631	 1.6812871151	 0.7909903128	 0.296461
H	-0.5305875684	-0.4041338259	-2.1735532487	 0.097953
H	-0.1188377668	-3.0405779432	-1.5191027605	 0.104143
H	 1.5088564748	-2.3367144182	-1.2617226946	 0.093107
H	-0.0956206108	-2.9205237356	 1.1290517281	 0.085654
H	-2.1280629577	-0.9396303165	 0.208598056	 0.101157
H	 2.7676478498	-1.5935533048	 1.8310780939	 0.116334
H	 2.7941600084	 0.1741263859	 1.3217228898	 0.118724
157.9084	192.5391	248.6455	297.9975	378.8518	406.4437	472.8045	520.0022	624.7668	653.8629	730.4251	796.2992	827.297	836.7552	866.338	905.4568	922.0212	937.7192	962.4444	988.236	1001.6324	1045.7065	1088.0228	1107.8656	1115.9949	1139.3942	1157.9603	1169.6015	1198.4506	1225.226	1277.9145	1287.1194	1330.2527	1442.7626	1474.9874	1496.1381	1543.6952	3032.7172	3083.1996	3097.0547	3153.387	3169.9342	3196.8495	3237.1916	3779.3336
OC12C3CC(C13)C21CO1	O[C@]12[C@H]3C[C@H]([C@@H]13)[C@]12CO1	
InChI=1S/C7H8O2/c8-7-4-1-3(5(4)7)6(7)2-9-6/h3-5,8H,1-2H2	InChI=1S/C7H8O2/c8-7-4-1-3(5(4)7)6(7)2-9-6/h3-5,8H,1-2H2/t3-,4+,5-,6+,7-/m1/s1
