18
gdb 66589	3.05572	1.89692	1.59733	1.105	73.27	-0.2457	0.0775	0.3233	902.0857	0.14991	-401.897441	-401.890697	-401.889752	-401.928283	27.498	
C	-0.0909909226	 1.4780691496	-0.0617199558	-0.520394
C	 0.0588461487	-0.0042681785	 0.0605491403	 0.332446
C	 0.9243554852	-0.853550776	-0.8167022212	-0.098016
C	 1.1276382988	-2.1645847325	-0.0531513447	-0.077345
C	 1.8309807841	-1.9916717974	 1.2960570294	-0.094268
O	 0.9264505813	-1.2000503173	 2.0904501679	-0.27773
C	-0.1937197129	-0.9044830853	 1.2774076814	 0.050407
C	-0.3873418523	-2.0147155881	 0.2301712708	-0.038702
N	-0.5710072287	-0.9814910011	-0.9044246916	-0.217455
H	 0.6688387436	 1.9937357457	 0.5360591541	 0.129497
H	 0.0201872586	 1.7951709506	-1.1032284143	 0.130444
H	-1.0768931852	 1.804369058	 0.2858123683	 0.126624
H	 1.5097998822	-0.4437433794	-1.6322472422	 0.093931
H	 1.4434717811	-3.0157680636	-0.6551650671	 0.084482
H	 2.0080097925	-2.9471528814	 1.8067234489	 0.102247
H	 2.7912695879	-1.46994304	 1.1978209245	 0.104034
H	-1.0379060533	-0.6255308496	 1.9082808455	 0.086233
H	-1.0757669891	-2.8488577537	 0.3385673159	 0.083565
179.561	184.5704	236.482	298.9488	397.1648	515.6402	607.2927	663.7892	720.0592	773.3775	795.8947	835.292	847.9092	892.0583	916.5203	934.4188	952.1942	958.0071	995.9405	1012.1971	1027.6523	1076.3661	1083.8036	1100.3662	1143.5286	1193.4479	1208.3555	1220.247	1255.6686	1264.2065	1276.6959	1310.8781	1327.7203	1389.1892	1405.2861	1436.3612	1483.0897	1492.9847	1519.1946	3012.1077	3030.7798	3048.8239	3095.9379	3107.33	3121.0802	3125.1751	3152.5577	3176.6911
CC12C3C4COC1C4N23	C[C@@]12[C@H]3[C@H]4CO[C@@H]1[C@H]4N23	
InChI=1S/C7H9NO/c1-7-5-3-2-9-6(7)4(3)8(5)7/h3-6H,2H2,1H3	InChI=1S/C7H9NO/c1-7-5-3-2-9-6(7)4(3)8(5)7/h3-6H,2H2,1H3/t3-,4-,5+,6+,7+,8?/m0/s1
