21
gdb 63705	3.32046	1.15815	1.02259	0.9018	91.	-0.2288	0.0424	0.2712	1263.0797	0.180469	-349.905923	-349.896645	-349.895701	-349.939146	36.817	
C	-0.1103694915	 1.5700907126	 0.0747813281	-0.445902
C	 0.0348943921	 0.0496526341	 0.0294182169	 0.336044
C	-1.3188963807	-0.6168934293	-0.2243202189	-0.44137
C	 1.1416640152	-0.5274426542	-0.9280782462	-0.349964
C	 1.791302168	-1.2574416775	 0.2636787944	 0.237674
C	 2.2000474736	-0.2375481734	 1.3042477433	-0.343193
C	 0.7560051931	-0.6180635891	 1.2194158712	-0.127992
C	 2.3025265267	-2.584441955	 0.2358302699	 0.146544
C	 2.7269055648	-3.710573986	 0.1880306515	-0.407895
H	 0.8432396228	 2.0689809382	 0.2712286604	 0.111471
H	-0.4928803666	 1.9508944142	-0.8792007491	 0.113784
H	-0.8137525393	 1.8730261191	 0.8588928644	 0.113543
H	-1.7452879941	-0.2869252183	-1.178203201	 0.112167
H	-1.2233572332	-1.707152137	-0.2543192706	 0.120606
H	-2.033727196	-0.3641709057	 0.5674781971	 0.111077
H	 0.7345364266	-1.2069725928	-1.6789430425	 0.111742
H	 1.7881136997	 0.2031509122	-1.4251906446	 0.094073
H	 2.7372209096	-0.6443825062	 2.1540647227	 0.125423
H	 2.5463468891	 0.7414448076	 0.9822745238	 0.109295
H	 0.2492337869	-1.0975423585	 2.0497834836	 0.092183
H	 3.1045287933	-4.7018198952	 0.1510378756	 0.180689
93.5955	139.6053	217.7522	234.8555	251.9248	274.7344	335.0619	370.6037	412.6321	458.3126	503.0889	520.9132	552.3545	573.1699	642.2579	661.929	788.2646	826.0337	848.6553	905.3233	951.6655	955.9525	969.0381	986.5384	1012.992	1032.9762	1045.4754	1085.6405	1115.926	1194.0292	1202.8762	1229.6702	1248.2301	1273.9623	1316.95	1375.8712	1403.0653	1422.892	1478.9737	1484.0703	1487.1933	1497.3857	1504.6308	1509.109	2229.1285	3021.1477	3027.0144	3046.4387	3085.466	3091.1798	3098.9851	3101.9437	3114.2142	3116.5889	3173.0809	3210.4153	3504.752
CC1(C)CC2(CC12)C#C	CC1(C)C[C@]2(C[C@@H]12)C#C	
InChI=1S/C9H12/c1-4-9-5-7(9)8(2,3)6-9/h1,7H,5-6H2,2-3H3	InChI=1S/C9H12/c1-4-9-5-7(9)8(2,3)6-9/h1,7H,5-6H2,2-3H3/t7-,9+/m0/s1
