18
gdb 107983	2.75874	1.38904	1.34207	3.2752	71.84	-0.231	0.0658	0.2968	1048.0975	0.147598	-438.982883	-438.974786	-438.973842	-439.015401	31.601	
O	-0.0144761374	 1.4041828598	 0.031150175	-0.420069
C	 0.0174631764	-0.0124028507	 0.0431627131	-0.195495
C	-1.3764550365	-0.5669730785	 0.0161560276	 0.298513
N	-2.3853503277	-0.1282057208	 1.0476501157	-0.402683
C	-3.144505436	-1.0480024102	 0.1367896733	-0.093232
C	-2.438770327	-0.4971982444	-1.1317662753	-0.076039
C	-2.0770115789	-1.9005718471	-1.6683004371	-0.341668
C	-1.9275001207	-2.0209737601	-0.1363566004	 0.320718
O	-1.4827683049	-3.0717868134	 0.6382508765	-0.470226
H	-0.7606140948	 1.6596808144	 0.5888770389	 0.293171
H	 0.579778203	-0.3389426086	-0.8391725318	 0.112076
H	 0.5483356451	-0.3961863837	 0.9306467	 0.094466
H	-2.1940318013	-0.603683496	 1.9346007076	 0.212951
H	-4.2015925435	-1.2844068221	 0.2670585047	 0.08065
H	-2.721354312	 0.399744082	-1.6747662041	 0.098391
H	-2.8913181679	-2.4660889685	-2.1320939285	 0.093215
H	-1.1625426171	-1.9806993166	-2.2625427161	 0.105854
H	-2.0568114288	-3.8317695855	 0.4916337408	 0.289408
91.1396	133.5402	238.32	262.0918	277.6056	333.4314	389.8325	428.8186	503.8853	551.7205	657.2529	693.1181	742.3901	796.6561	859.3408	878.957	920.4996	932.5636	948.6025	1010.3431	1030.4567	1064.1136	1074.6113	1087.9764	1095.5401	1141.3302	1168.3439	1196.4967	1217.1954	1229.6834	1272.6217	1285.9333	1301.3265	1325.6704	1358.9863	1399.9139	1450.5328	1503.0287	1514.6828	2964.7104	3046.5078	3060.1317	3104.9877	3106.4421	3170.825	3395.452	3767.4374	3803.18
OCC12NC3C1CC23O	OC[C@@]12N[C@H]3[C@@H]1C[C@@]23O	
InChI=1S/C6H9NO2/c8-2-5-3-1-6(5,9)4(3)7-5/h3-4,7-9H,1-2H2	InChI=1S/C6H9NO2/c8-2-5-3-1-6(5,9)4(3)7-5/h3-4,7-9H,1-2H2/t3-,4-,5+,6-/m0/s1
