17
gdb 105022	1.98048	1.76667	1.08305	3.9669	68.07	-0.2804	0.0083	0.2887	1106.9902	0.135657	-455.117202	-455.108229	-455.107285	-455.151004	33.135	
O	 0.3857794898	 1.0323733702	 0.6257562838	-0.413234
C	 0.0474815631	-0.0308214955	-0.2430998156	-0.183629
C	-1.3989967526	-0.4890952677	-0.0880376014	 0.275387
C	-1.6858085308	-1.8845879317	 0.3332842736	-0.278755
N	-1.8919064882	-0.7624169303	 1.2635570018	-0.353939
C	-2.4613425745	 0.2375176596	-0.9356220524	-0.06103
O	-3.759494525	-0.0514836397	-0.4999699224	-0.408731
C	-2.1940611869	 1.7007083812	-0.902882473	 0.264484
N	-1.9373190403	 2.8274208667	-0.85625517	-0.337664
H	-0.0647086801	 1.8311036522	 0.3243246789	 0.306366
H	 0.2448398071	 0.2203773708	-1.2966260916	 0.108481
H	 0.7169987612	-0.8551135872	 0.0220231286	 0.115543
H	-2.599697523	-2.3724411667	 0.0095568987	 0.13912
H	-0.8372457316	-2.5444218209	 0.4906460255	 0.126532
H	-1.1412236376	-0.6586165828	 1.9408776364	 0.255006
H	-2.3782094212	-0.0829283456	-1.9812886012	 0.140791
H	-3.6852205594	-0.1261325326	 0.4687613104	 0.305272
69.628	115.0858	140.1501	222.5519	261.234	277.8736	332.5569	340.6705	434.7602	455.5015	532.0479	574.0654	603.872	639.9075	775.6218	858.4148	915.7643	921.2785	952.5901	975.5286	1008.5225	1073.8869	1080.5506	1105.6031	1154.4675	1197.9867	1240.875	1260.3344	1318.7474	1332.496	1382.1425	1395.1058	1431.1265	1449.9769	1491.6831	1506.8313	2341.4786	2991.1235	3045.9263	3077.3968	3118.0286	3209.3949	3520.4246	3631.8074	3781.5818
OCC1(CN1)C(O)C#N	OC[C@]1(CN1)[C@@H](O)C#N	
InChI=1S/C5H8N2O2/c6-1-4(9)5(3-8)2-7-5/h4,7-9H,2-3H2	InChI=1S/C5H8N2O2/c6-1-4(9)5(3-8)2-7-5/h4,7-9H,2-3H2/t4-,5+/m0/s1
