19
gdb 114052	2.83841	1.15975	0.9774	0.2845	71.73	-0.2308	0.0711	0.3019	1245.4013	0.157744	-460.113051	-460.103726	-460.102782	-460.146829	35.247	
O	-0.1165036421	 1.4613144306	-0.1056039681	-0.428615
C	 0.0402145729	 0.0608905807	 0.1090993926	-0.106581
C	-1.3264290638	-0.5718966518	-0.0851890024	 0.052222
C	-1.9217366278	-0.6597557819	-1.5277143599	-0.316218
C	-2.1495461703	-2.1599950675	-1.3270875966	 0.324592
O	-3.2275687598	-2.8748325132	-1.812923009	-0.456551
C	-0.8821016791	-2.8724147712	-1.0342055109	 0.072392
O	 0.3660881755	-2.5294636774	-1.5780959218	-0.419593
C	-1.488329786	-2.087083803	 0.0935194579	-0.229147
H	 0.7566001545	 1.8633536313	-0.0946428454	 0.284545
H	 0.7616734683	-0.3779080924	-0.5892215709	 0.112348
H	 0.3932608633	-0.1459640197	 1.1334389216	 0.07794
H	-2.0315935731	-0.0446337136	 0.5654254737	 0.080831
H	-2.8535889262	-0.0976425246	-1.6295689679	 0.096708
H	-1.2551620261	-0.3853281686	-2.35033175	 0.100568
H	-4.0357429477	-2.4174595712	-1.5546440242	 0.285086
H	-1.0367183861	-3.9459065437	-0.9127826498	 0.095448
H	 0.3578887027	-2.7717224658	-2.5105849238	 0.286901
H	-1.7479216491	-2.5751514273	 1.0264036748	 0.087124
91.2285	137.9024	160.2087	233.1628	247.6478	256.4127	293.2596	335.1519	364.4522	387.999	443.599	520.6349	568.5713	647.6465	762.3503	817.5438	859.1482	902.6629	913.9747	954.8654	1011.2467	1048.6679	1070.5867	1079.8127	1091.3784	1108.4688	1155.5769	1214.1046	1218.3418	1245.9104	1256.4481	1265.5362	1290.5655	1311.5417	1322.0707	1369.0865	1384.7426	1456.4212	1470.3543	1508.3592	1527.6032	2962.2623	3046.506	3056.5078	3068.9374	3097.4186	3106.9857	3173.0646	3791.3309	3800.9164	3832.5581
OCC1CC2(O)C(O)C12	OC[C@H]1C[C@@]2(O)[C@@H](O)[C@@H]12	
InChI=1S/C6H10O3/c7-2-3-1-6(9)4(3)5(6)8/h3-5,7-9H,1-2H2	InChI=1S/C6H10O3/c7-2-3-1-6(9)4(3)5(6)8/h3-5,7-9H,1-2H2/t3-,4-,5+,6+/m1/s1
