18
gdb 84770	2.31001	1.53084	1.27189	3.7166	76.56	-0.2435	0.0089	0.2525	1076.0845	0.148211	-398.159197	-398.150478	-398.149534	-398.192246	32.998	
C	-0.3187192574	 1.5036544058	-0.0188847862	-0.4056
C	 0.1103247629	 0.0435337657	-0.0697863656	 0.031488
N	 1.107611422	-0.2178711563	-1.1213107122	-0.253312
C	 1.9170920027	-1.0773598088	-0.6430759028	 0.054283
N	 1.6895123778	-1.518418409	 0.6537178304	-0.310442
C	 0.7588789237	-0.5461475212	 1.2564470104	 0.08898
C	 1.5090887383	 0.4873295982	 2.116069005	-0.43777
C	-0.2517382099	-1.2276137548	 2.076608425	 0.277382
N	-1.0571629473	-1.730362322	 2.7356002227	-0.342284
H	 0.5295231859	 2.1700214263	 0.1578012656	 0.123285
H	-0.7601373034	 1.7759675224	-0.9805672883	 0.138707
H	-1.068077492	 1.6694799446	 0.7613388669	 0.125621
H	-0.7711988889	-0.5705605714	-0.2968929525	 0.111913
H	 2.7433977065	-1.5062745664	-1.2029212232	 0.133214
H	 2.4771560671	-1.8193862297	 1.2115415849	 0.247634
H	 2.2410562021	 1.0173391458	 1.5011369857	 0.139276
H	 0.8210114057	 1.2153863841	 2.5513067987	 0.146752
H	 2.0326099944	-0.0123599433	 2.9367209755	 0.130875
85.1696	148.6919	191.6302	241.5095	273.7029	280.7515	304.3105	374.2571	449.0711	500.9417	550.0254	561.3397	594.8261	643.347	745.277	815.5898	872.8852	939.574	952.9781	966.0583	1018.4345	1097.5336	1112.4537	1114.9701	1152.3355	1176.85	1215.5589	1321.3635	1342.714	1361.8329	1405.4983	1409.3625	1425.1847	1482.8419	1485.1597	1498.516	1506.0392	1692.877	2356.0247	3016.3294	3045.4869	3048.4324	3119.1746	3121.0946	3129.4042	3136.7833	3185.1091	3588.0175
CC1N=CNC1(C)C#N	C[C@H]1[N][CH]N[C@]1(C)C#N	
InChI=1S/C6H9N3/c1-5-6(2,3-7)9-4-8-5/h4-5H,1-2H3,(H,8,9)	InChI=1S/C6H9N3/c1-5-6(2,3-7)9-4-8-5/h4-5H,1-2H3,(H,8,9)/t5-,6-/m1/s1
