17
gdb 94959	3.62182	1.35718	1.17122	4.4457	67.31	-0.2661	0.005	0.271	1063.9579	0.13701	-458.998509	-458.990956	-458.990012	-459.030662	28.703	
C	 0.102442541	 1.330665455	-0.2630091286	-0.411617
C	-0.0959351562	-0.1111075244	 0.2074982704	 0.090617
O	 0.2079501713	-1.0623412506	-0.8198713389	-0.260976
C	 1.5992013591	-1.3526382416	-0.7705773137	-0.105203
C	 1.9673956913	-1.3095853773	 0.71736483	-0.257326
C	 0.8328765277	-0.4821362231	 1.3618602478	 0.107012
O	 0.3712246086	-1.671783199	 2.0868291548	-0.254487
C	 1.3672339654	-2.4490436065	 1.5492036779	 0.459495
O	 1.5784766836	-3.6010607231	 1.743207016	-0.321669
H	 1.1533337173	 1.5488620149	-0.4806551271	 0.120328
H	-0.4766835457	 1.5039886161	-1.1730787231	 0.138104
H	-0.2357816915	 2.0351213731	 0.5036060833	 0.124216
H	-1.1414683024	-0.27919558	 0.4826118878	 0.109572
H	 1.7537925605	-2.3340688853	-1.2255542504	 0.138451
H	 2.1895915999	-0.6114830245	-1.3296501425	 0.103199
H	 3.0070876848	-1.0681788333	 0.9334523606	 0.116876
H	 1.0688007652	 0.3231527796	 2.0568740357	 0.103408
102.4653	145.2269	219.1563	262.087	265.5036	335.4174	475.5641	489.6735	625.006	691.8806	759.0264	793.7733	846.3643	868.3659	886.8067	911.3369	975.3234	996.856	1029.1127	1060.405	1069.5882	1112.0657	1127.0113	1140.0045	1198.2914	1235.8633	1273.2954	1273.6686	1304.6748	1341.2074	1373.8829	1394.9176	1405.0766	1490.1345	1496.6795	1517.0719	1942.838	2991.6026	3040.2253	3072.4619	3101.701	3108.612	3124.1264	3128.6644	3137.3713
CC1OCC2C1OC2=O	C[C@H]1OC[C@H]2[C@@H]1OC2=O	
InChI=1S/C6H8O3/c1-3-5-4(2-8-3)6(7)9-5/h3-5H,2H2,1H3	InChI=1S/C6H8O3/c1-3-5-4(2-8-3)6(7)9-5/h3-5H,2H2,1H3/t3-,4+,5-/m1/s1
