13
gdb 129435	4.65987	1.05591	0.86085	2.0037	62.94	-0.267	-0.0516	0.2154	1223.6128	0.089503	-489.913116	-489.905193	-489.904248	-489.945972	28.891	
N	-0.1590946652	 1.3201812076	-0.0466699911	-0.538976
C	 0.0497991976	-0.0222905728	-0.0463699369	 0.32618
O	 1.1430450034	-0.5529915395	-0.0877085693	-0.352747
C	-1.1924654026	-0.8407961954	 0.0081147188	 0.38997
C	-1.3587621791	-2.1879667478	 0.021751725	-0.420082
C	-2.7715315871	-2.329744146	 0.0800557168	 0.476716
O	-3.4312931415	-3.4937809223	 0.11267916	-0.413588
N	-3.3996797031	-1.1747875222	 0.099775469	-0.249742
O	-2.3865708815	-0.2159166131	 0.0543553131	-0.241091
H	 0.6410894589	 1.9291695355	-0.0782228233	 0.271118
H	-1.0849811638	 1.710634266	-0.0063918113	 0.280558
H	-0.600808142	-2.9504573618	-0.0053433307	 0.156093
H	-4.377732214	-3.2995362882	 0.1501945899	 0.315591
70.4314	146.2123	167.3754	220.7404	355.7364	361.8378	411.8661	455.8953	520.34	539.7185	640.357	642.0307	713.1484	742.3763	786.6046	857.5733	964.0661	991.698	1041.3819	1091.0589	1113.6927	1222.8187	1291.079	1359.9163	1521.3614	1556.0387	1610.4056	1664.7527	1793.9512	3303.3594	3606.4004	3744.2591	3778.6211
NC(=O)C1=CC(O)=NO1	NC(=O)c1cc(O)no1	
InChI=1S/C4H4N2O3/c5-4(8)2-1-3(7)6-9-2/h1H,(H2,5,8)(H,6,7)	InChI=1S/C4H4N2O3/c5-4(8)2-1-3(7)6-9-2/h1H,(H2,5,8)(H,6,7)
