18
gdb 94385	2.91787	1.50781	1.26991	2.247	71.27	-0.2353	0.0622	0.2975	1035.0094	0.147962	-439.009563	-439.001748	-439.000803	-439.042031	30.466	
O	 0.2387283418	 1.1185683719	-0.4384523995	-0.42859
C	 0.0832228145	-0.183007495	 0.0603861323	 0.021238
C	-0.0160135281	-0.2754441004	 1.5893080942	-0.107558
O	-1.2295668358	-1.0627211493	 1.4877673379	-0.336881
C	-1.3271657819	-0.8047421146	 0.079976	 0.463786
C	-2.5930503089	-0.0181941622	-0.3972074114	-0.300506
C	-2.8817974542	-1.1651776548	-1.370878452	-0.037739
N	-1.6596037279	-1.308491342	-2.203220004	-0.352614
C	-1.7278761245	-1.9479165244	-0.8574638136	-0.159483
H	 0.1393112887	 1.0649310591	-1.3958643367	 0.293047
H	 0.8223697079	-0.8744093746	-0.3657752497	 0.076168
H	 0.7761856653	-0.8102155195	 2.1221069328	 0.105807
H	-0.194002912	 0.6980012862	 2.0615062031	 0.112031
H	-3.3107473551	 0.0241004326	 0.4254059023	 0.119392
H	-2.4413299124	 0.9754194608	-0.8246684215	 0.105062
H	-3.8419020977	-1.5034215436	-1.7400484254	 0.096887
H	-1.8395277023	-2.0401228557	-2.8904982643	 0.232278
H	-1.5832676771	-3.0126289143	-0.7233338544	 0.097676
78.1549	121.0792	196.5783	291.7938	362.0769	378.1916	425.0253	448.3617	528.5923	568.3641	732.1478	784.3669	822.6622	841.3173	878.4776	918.7154	933.6871	971.1376	977.2755	999.6288	1016.3384	1076.3383	1081.1214	1093.7208	1132.5417	1151.6632	1172.1744	1186.284	1199.0414	1236.0498	1251.3812	1293.2139	1316.1432	1336.7594	1347.4833	1374.1866	1441.0836	1468.3496	1517.923	3011.6817	3030.8539	3068.5748	3088.3555	3131.7406	3187.9519	3202.1723	3472.748	3804.105
OC1COC11CC2NC12	O[C@H]1CO[C@]21C[C@H]1N[C@@H]21	
InChI=1S/C6H9NO2/c8-4-2-9-6(4)1-3-5(6)7-3/h3-5,7-8H,1-2H2	InChI=1S/C6H9NO2/c8-4-2-9-6(4)1-3-5(6)7-3/h3-5,7-8H,1-2H2/t3-,4+,5-,6+/m1/s1
