17
gdb 127394	4.79497	1.23819	1.01004	4.4817	75.11	-0.2174	-0.0013	0.2162	1144.106	0.13889	-414.167185	-414.159772	-414.158827	-414.199056	28.151	
C	-0.0373770669	 1.4403132144	 0.0763991258	-0.316422
N	-0.0829015956	-0.0026305531	 0.1521150339	-0.07697
C	-1.4456780031	-0.5808523418	 0.1359626636	-0.289411
C	-1.2028587202	-1.8620887606	 0.8570839566	 0.343088
C	 0.0151005611	-1.8850177165	 1.4700171945	 0.297005
C	 0.7485090649	-0.6058801583	 1.2236059154	-0.285649
N	 0.1718610818	-3.051652017	 2.1409352563	-0.289144
N	-0.9091266466	-3.7652657849	 1.9676455323	-0.124919
N	-1.7614605083	-3.0408734346	 1.1840325508	-0.332024
H	 1.0010674637	 1.7728254039	-0.0200070967	 0.126521
H	-0.5789029191	 1.7850599798	-0.8110155705	 0.121086
H	-0.4751966787	 1.9447506737	 0.959681446	 0.094512
H	-2.185407036	 0.0458814598	 0.6703143304	 0.102857
H	-1.8029829764	-0.6933385088	-0.896080668	 0.121833
H	 1.7800410243	-0.7348745457	 0.8753762898	 0.126324
H	 0.7837712215	 0.021580025	 2.1326846207	 0.101985
H	-2.6505398062	-3.4442111354	 0.9376344991	 0.279329
95.8274	217.1566	230.4605	267.2049	292.0803	304.8499	464.4594	510.2331	551.7701	687.752	717.7072	733.7391	787.707	849.9732	996.8205	1015.6286	1022.5318	1036.639	1059.648	1138.3357	1164.8573	1190.2643	1191.3489	1196.2601	1212.1883	1254.1318	1330.5596	1344.4621	1377.9755	1426.4751	1462.389	1489.4038	1502.4793	1513.2156	1524.6967	1539.39	1614.8635	2910.0252	2919.7963	2936.0296	3020.1077	3042.2539	3056.3972	3100.3441	3665.3359
CN1CC2=C(C1)N=NN2	CN1Cc2c(C1)nn[nH]2	
InChI=1S/C5H8N4/c1-9-2-4-5(3-9)7-8-6-4/h2-3H2,1H3,(H,6,7,8)	InChI=1S/C5H8N4/c1-9-2-4-5(3-9)7-8-6-4/h2-3H2,1H3,(H,6,7,8)
