18
gdb 95424	2.96363	1.12491	0.8435	3.6639	80.7	-0.2633	-0.0386	0.2248	1319.6742	0.149058	-401.987068	-401.978667	-401.977723	-402.020107	31.853	
O	-0.0549737983	 1.4393930311	-0.0241439378	-0.435105
C	 0.0161099168	 0.0232392554	-0.0092936215	 0.121874
C	-1.4125944149	-0.5070283844	 0.058204924	-0.206845
C	-1.4246069493	-2.0385534942	 0.159550528	-0.274389
C	-0.4387442705	-2.6894188096	-0.7662052333	-0.105182
C	 0.5263997137	-2.0156227375	-1.4104239287	 0.149662
C	 0.7282212197	-0.519480007	-1.2566541234	-0.329998
C	 1.4228921096	-2.703919739	-2.2859509122	 0.214963
N	 2.1683502584	-3.2259173293	-3.003074066	-0.335969
H	 0.842082493	 1.7887483684	-0.0378806699	 0.284541
H	 0.561547483	-0.325086897	 0.8842537638	 0.073059
H	-1.9288112044	-0.0570678645	 0.9107250364	 0.112326
H	-1.9425466508	-0.1848715275	-0.8459450681	 0.114243
H	-1.2009067525	-2.3591163249	 1.1881275259	 0.126653
H	-2.428785322	-2.4277328076	-0.0483095047	 0.12343
H	-0.5175648185	-3.7634914905	-0.9081755675	 0.116338
H	 0.3399882833	 0.0057776954	-2.1389113705	 0.134709
H	 1.8014524638	-0.2979718472	-1.2127251445	 0.11569
93.5233	147.2066	173.2129	222.2754	294.6643	346.7128	375.5946	401.5599	436.3743	482.1875	575.6658	581.965	614.8179	795.9329	853.0394	880.858	906.8473	957.7649	960.4534	1043.9793	1078.925	1092.7648	1101.4809	1154.0361	1164.5481	1210.0238	1252.2784	1289.5869	1318.2178	1345.1588	1367.3756	1371.3543	1388.7529	1442.0178	1469.8371	1479.3493	1501.63	1695.8678	2334.0156	2956.0458	3003.1721	3025.1512	3040.1396	3053.4395	3062.0474	3097.5372	3175.1156	3814.511
OC1CCC=C(C1)C#N	O[C@H]1CCC=C(C1)C#N	
InChI=1S/C7H9NO/c8-5-6-2-1-3-7(9)4-6/h2,7,9H,1,3-4H2	InChI=1S/C7H9NO/c8-5-6-2-1-3-7(9)4-6/h2,7,9H,1,3-4H2/t7-/m0/s1
