18
gdb 51684	5.19597	0.80191	0.72315	1.5668	74.38	-0.262	-0.0358	0.2262	1502.9773	0.147491	-439.116279	-439.107559	-439.106614	-439.151157	31.117	
N	 0.0886307476	 1.2412710877	 0.3782797006	-0.538288
C	 0.0380431204	 0.0380585571	 0.0047201974	 0.411959
C	-1.2043230868	-0.8243041536	-0.0537242555	-0.321638
C	-0.6369850745	-2.2519391101	-0.0810474482	-0.020277
C	-1.5318524718	-3.2986981205	-0.7572247998	-0.304045
C	-0.942875439	-4.6906631972	-0.6687236833	 0.160394
O	-0.6700787212	-5.3848081913	-1.6128783898	-0.233412
C	 0.7084266499	-2.0168277226	-0.7920864598	-0.090279
O	 1.1173228863	-0.6963193819	-0.4111364582	-0.235875
H	 1.0431584866	 1.5987628831	 0.3088448371	 0.223867
H	-1.8727706007	-0.6136532924	 0.7813757363	 0.140552
H	-1.7484360492	-0.6044759141	-0.9809227301	 0.132535
H	-0.4309352528	-2.5664862417	 0.950058689	 0.096768
H	-2.5035891474	-3.3179800023	-0.2442514433	 0.128255
H	-1.7043321223	-3.0546164484	-1.8101612769	 0.125745
H	-0.7621974496	-5.0441699671	 0.3742948874	 0.076832
H	 1.4969249725	-2.7131424361	-0.4967174643	 0.127706
H	 0.5943500722	-2.0622714587	-1.8836406084	 0.119202
39.9189	62.8781	115.2277	166.316	193.9391	306.6614	396.0288	461.5094	496.2429	529.485	609.7662	678.9402	801.6416	852.5727	891.5599	897.6137	915.7713	963.3354	1006.4655	1024.3221	1069.0468	1108.0431	1118.9032	1124.4019	1176.7103	1211.1471	1254.0464	1268.2074	1282.2444	1310.4917	1353.6351	1373.6729	1414.0047	1429.0667	1463.6631	1474.3415	1520.1065	1783.7851	1837.2863	2851.9714	3016.307	3020.1962	3027.0989	3042.1008	3094.4252	3102.5782	3131.6553	3471.6479
N=C1CC(CC=O)CO1	[NH][C]1C[C@@H](CC=O)CO1	
InChI=1S/C6H9NO2/c7-6-3-5(1-2-8)4-9-6/h2,5,7H,1,3-4H2	InChI=1S/C6H9NO2/c7-6-3-5(1-2-8)4-9-6/h2,5,7H,1,3-4H2/t5-/m1/s1
