21
gdb 32663	1.83017	1.71684	0.99728	4.0698	85.13	-0.2094	0.0342	0.2436	1264.0569	0.183816	-383.319596	-383.310208	-383.309264	-383.354222	34.34	
C	-0.0507125948	 1.6018973642	 0.2946965672	-0.377056
C	-0.0715194587	 0.1313598116	-0.1316028761	-0.163358
N	-1.3996729207	-0.4644340856	-0.0751315455	-0.047488
C	-2.0443560641	-0.8394408639	 1.0711098175	-0.006029
N	-3.233674213	-1.3424332702	 0.8392257392	-0.275517
C	-3.3720169789	-1.2940509922	-0.5269164877	-0.169205
C	-2.2585190134	-0.7579342744	-1.1267688287	 0.271297
C	-1.9554460056	-0.5167874869	-2.5715591937	-0.304254
C	-2.0937730804	 0.9469815864	-3.0294909482	-0.375375
H	 0.9666066818	 1.9996633501	 0.2271500182	 0.122112
H	-0.7019822935	 2.2062397535	-0.3423846196	 0.137375
H	-0.3929332269	 1.7129499031	 1.32748126	 0.132159
H	 0.3042516143	 0.0233888928	-1.1518250775	 0.125426
H	 0.593449898	-0.4541703748	 0.5124358467	 0.1254
H	-1.5821089411	-0.7272662513	 2.0416860728	 0.118188
H	-4.263752456	-1.657754147	-1.0167454995	 0.100526
H	-0.9510636411	-0.8841042631	-2.8219659998	 0.105441
H	-2.648588546	-1.1356469401	-3.1509586036	 0.119615
H	-1.3730708753	 1.5994439584	-2.5271385282	 0.11822
H	-1.92364193	 1.0327097171	-4.1075050795	 0.114408
H	-3.0956560744	 1.3262703824	-2.8085513841	 0.128115
70.2904	83.8382	125.6682	161.8844	193.695	221.0133	297.8826	338.2643	399.9238	449.3367	617.5381	675.7904	685.2614	702.1314	782.5055	793.2939	806.2725	840.5927	928.8137	961.0171	979.4058	1063.3935	1082.8477	1100.3908	1104.8908	1150.5968	1203.6741	1251.196	1275.0201	1285.0454	1316.1826	1357.8945	1383.6977	1402.0504	1405.5066	1414.3543	1423.882	1478.0821	1487.1399	1487.7734	1498.4863	1504.4044	1506.527	1528.4759	1593.3052	3015.7752	3038.4234	3045.1053	3050.5088	3070.1967	3099.9059	3107.5734	3116.907	3119.4768	3129.7689	3234.7684	3238.4629
CCN1C=NC=C1CC	CCn1cncc1CC	
InChI=1S/C7H12N2/c1-3-7-5-8-6-9(7)4-2/h5-6H,3-4H2,1-2H3	InChI=1S/C7H12N2/c1-3-7-5-8-6-9(7)4-2/h5-6H,3-4H2,1-2H3
