18
gdb 64700	4.4125	0.80434	0.7788	0.7952	78.46	-0.2596	-0.0337	0.2259	1461.8112	0.145633	-401.966682	-401.957232	-401.956287	-402.001428	33.929	
C	-0.0615874969	 1.7066941877	 0.114927327	-0.476582
C	-0.0674162187	 0.1895773774	 0.0670956295	 0.32853
C	-1.3925845356	-0.4121516488	-0.408036327	-0.403804
C	-1.7178895136	-0.0279819373	-1.7835382092	 0.274095
N	-1.957936239	 0.286420416	-2.8691831316	-0.307583
C	 1.1822457399	-0.5504136682	-0.2778951295	-0.324673
C	 0.6395710486	-0.6375002719	 1.1463262584	-0.157985
C	 1.3897513518	-0.002622373	 2.2558499177	 0.157436
O	 1.3981285624	-0.4215815953	 3.3868947615	-0.261924
H	 0.9191340051	 2.1048078197	 0.382388291	 0.129274
H	-0.3250764984	 2.1120404097	-0.8673712862	 0.151786
H	-0.7893095017	 2.0849348197	 0.8413800808	 0.130783
H	-1.3587263448	-1.505398209	-0.3550503613	 0.15449
H	-2.2113131885	-0.0881444168	 0.2457274783	 0.159187
H	 1.1243456273	-1.4484318008	-0.8828206869	 0.13526
H	 2.0866916302	 0.030916375	-0.4266086286	 0.131659
H	 0.1565377064	-1.5634249267	 1.4419431144	 0.107679
H	 1.9783151655	 0.8999577025	 1.9761191316	 0.07237
54.9718	100.6311	106.655	187.1832	208.1102	270.9642	328.6157	357.6904	382.2311	395.6682	412.6363	483.4118	578.7683	726.1339	843.6113	864.6099	904.8486	936.5033	953.5518	976.3374	1023.6076	1054.5292	1081.3445	1081.9552	1116.1867	1188.6273	1208.6011	1247.204	1327.4145	1341.0875	1386.3172	1424.4873	1449.7515	1460.247	1487.6764	1494.9257	1508.0399	1816.4273	2361.9174	2876.8555	3038.2631	3041.6132	3083.7056	3100.8993	3128.3429	3134.0069	3167.6302	3220.8234
CC1(CC#N)CC1C=O	C[C@@]1(CC#N)C[C@H]1C=O	
InChI=1S/C7H9NO/c1-7(2-3-8)4-6(7)5-9/h5-6H,2,4H2,1H3	InChI=1S/C7H9NO/c1-7(2-3-8)4-6(7)5-9/h5-6H,2,4H2,1H3/t6-,7+/m0/s1
