12
gdb 21887	5.86334	1.6105	1.26346	1.4255	59.64	-0.2354	-0.0515	0.1839	865.9959	0.085659	-414.695732	-414.689624	-414.688679	-414.725833	23.767	
O	 0.047978674	 1.3184357967	 0.0669368026	-0.417847
C	 0.0622511913	-0.0305922552	 0.0591824896	 0.449089
N	 0.1635783081	-0.632838558	-1.1106674288	-0.29998
N	 0.1816243368	-1.9686113271	-1.1670813479	-0.29998
C	 0.09790749	-2.669845681	-0.0522815407	 0.449089
O	 0.1201227871	-4.0146170529	-0.1582871377	-0.417847
C	-0.0119545484	-2.0887197343	 1.2250390184	-0.165051
C	-0.0304581485	-0.7200791963	 1.2828399724	-0.165051
H	 0.1206213437	 1.5919973738	-0.8591587186	 0.303325
H	 0.1990927984	-4.2070753072	-1.1040616099	 0.303325
H	-0.0774322259	-2.71442115	 2.1066258552	 0.130463
H	-0.1118044364	-0.1729180086	 2.2139588655	 0.130463
147.2768	348.0206	351.7539	450.7219	461.9732	492.1428	509.8891	533.0416	606.1497	656.8532	787.8248	803.2368	871.2889	873.4204	991.5247	1040.0712	1122.2242	1186.731	1238.029	1246.0658	1334.5115	1360.2743	1483.1724	1493.2612	1631.0076	1649.0362	3204.9264	3219.5987	3751.9945	3754.0593
OC1=NN=C(O)C=C1	Oc1nnc(O)cc1	
InChI=1S/C4H4N2O2/c7-3-1-2-4(8)6-5-3/h1-2H,(H,5,7)(H,6,8)	InChI=1S/C4H4N2O2/c7-3-1-2-4(8)6-5-3/h1-2H,(H,5,7)(H,6,8)
