17
gdb 87537	2.72214	1.51617	1.16395	3.4825	73.87	-0.2491	-0.0214	0.2277	1082.0693	0.135796	-417.960608	-417.95251	-417.951565	-417.993325	30.398	
C	-0.0482241014	 1.573543515	-0.0370567903	-0.394447
C	-0.0504007697	 0.0699966748	 0.0821148474	-0.073054
N	 1.2280522518	-0.6167226427	-0.1461447367	-0.387025
C	 0.6488059428	-0.632899729	 1.1906459148	 0.23243
C	 1.3202765209	-0.1763667403	 2.4706161855	-0.118054
C	 0.3382884378	-0.1534128728	 3.5620712151	-0.247911
N	 0.9122636692	-1.4813782256	 3.1816534447	-0.188922
C	 0.2454225998	-1.8800248412	 1.9438862896	 0.342732
O	-0.27824516	-2.9135481712	 1.6628120118	-0.315116
H	 0.8812462077	 1.9912385532	 0.3583142834	 0.130517
H	-0.1357468412	 1.875594135	-1.0856555071	 0.131543
H	-0.8894481708	 2.0082540624	 0.5125419712	 0.123083
H	-0.9468475951	-0.4321145607	-0.280232345	 0.106975
H	 1.0878436781	-1.5235719462	-0.5883596725	 0.251544
H	 2.3384591331	 0.1808293207	 2.5510782999	 0.12945
H	 0.658055023	 0.158758611	 4.5508796396	 0.14334
H	-0.7076276559	 0.0424255876	 3.3381048088	 0.132917
111.5231	132.6522	167.4109	186.785	262.9638	289.115	424.9598	456.9621	561.1483	606.2862	667.6072	732.9427	788.8007	822.0254	841.3361	885.4649	936.335	982.6898	1017.5521	1035.5944	1053.2709	1074.1131	1094.6846	1120.7382	1126.1375	1148.8887	1227.178	1238.3921	1245.2488	1302.1974	1372.2944	1414.7558	1471.6281	1486.8773	1501.2344	1504.6301	1908.0066	3039.5014	3104.9617	3112.3521	3114.1985	3130.0149	3204.8382	3214.7641	3486.3628
CC1NC11C2CN2C1=O	C[C@H]1N[C@]21[C@H]1CN1C2=O	
InChI=1S/C6H8N2O/c1-3-6(7-3)4-2-8(4)5(6)9/h3-4,7H,2H2,1H3	InChI=1S/C6H8N2O/c1-3-6(7-3)4-2-8(4)5(6)9/h3-4,7H,2H2,1H3/t3-,4-,6-,8?/m1/s1
