18
gdb 104268	2.72555	1.19474	1.01264	5.7495	72.6	-0.2395	0.0134	0.2528	1209.3793	0.147688	-435.234452	-435.224988	-435.224044	-435.26876	34.453	
N	-0.0022212611	 1.478109119	-0.0831276569	-0.544125
C	 0.0508110693	 0.0278726877	-0.0460238266	 0.292656
C	 1.0177045429	-0.5876284263	-1.05410784	-0.147422
O	 2.2989742822	-0.051450264	-0.7632529649	-0.424294
C	 0.1609494112	-0.4949299936	 1.4162530879	-0.177642
N	-1.3060906323	-0.7121368555	 1.4351602667	-0.301988
C	-1.3792552087	-0.6147153476	-0.034101029	-0.173242
C	-2.4830838882	 0.1820205602	-0.5721878248	 0.312727
N	-3.3367954602	 0.8014144996	-1.0450034242	-0.335561
H	 0.9512856585	 1.8306399594	-0.0660111036	 0.242499
H	-0.418232648	 1.7944982386	-0.9559508037	 0.236127
H	 1.0161740929	-1.6860786736	-0.9709771107	 0.08467
H	 0.6905533698	-0.326911852	-2.0743229474	 0.092616
H	 2.9208313174	-0.35406936	-1.4309248867	 0.296277
H	 0.764055531	-1.408078709	 1.4955856424	 0.095546
H	 0.5056400215	 0.2377010385	 2.1496345805	 0.121181
H	-1.6247929696	-1.5941655559	 1.818472676	 0.227826
H	-1.3786336986	-1.5806744856	-0.560611205	 0.102149
76.9173	105.2288	148.3159	174.7048	226.9164	248.4582	270.3674	334.5062	382.1391	413.0976	419.4808	544.1742	575.1125	660.8682	733.8692	866.0824	886.8938	935.7782	948.4888	985.8551	1007.3487	1032.1235	1067.7071	1083.3377	1144.2845	1175.9243	1205.1464	1218.4087	1250.2772	1318.1961	1321.0311	1337.3634	1362.5265	1392.7993	1450.8723	1503.7656	1515.8514	1657.7254	2354.9266	2959.4638	2988.8624	2996.3713	3022.3009	3098.6083	3479.6241	3544.5564	3561.6336	3839.1531
NC1(CO)CNC1C#N	N[C@@]1(CO)CN[C@H]1C#N	
InChI=1S/C5H9N3O/c6-1-4-5(7,3-9)2-8-4/h4,8-9H,2-3,7H2	InChI=1S/C5H9N3O/c6-1-4-5(7,3-9)2-8-4/h4,8-9H,2-3,7H2/t4-,5+/m0/s1
