19
gdb 38155	2.26367	1.94022	1.31604	0.4877	89.09	-0.1998	-0.0332	0.1666	1027.4627	0.161989	-348.742637	-348.735187	-348.734243	-348.774126	30.394	
C	 0.0557526075	 1.3874901894	-0.3013368347	-0.31832
C	 1.3775159161	 0.700619161	-0.0478968719	-0.063253
C	 2.2253408997	 0.9196438361	 1.1528523434	-0.042837
C	 1.9272809877	 1.3642656209	 2.3799354952	-0.105451
C	 0.633922379	 1.7566823766	 2.9554868132	-0.109214
C	-0.5077832642	 1.0558024685	 2.9620819456	-0.109212
C	-0.7480045539	-0.2780545694	 2.3953860903	-0.105451
C	-0.4967172344	-0.7513886499	 1.1685724583	-0.042837
C	 0.072199567	-0.1006980989	-0.0403572649	-0.063253
H	-0.3358430419	 2.0326588583	 0.4717972594	 0.136031
H	-0.151540558	 1.7156334293	-1.3139466195	 0.111969
H	 1.9723155585	 0.5253170178	-0.9391513918	 0.086436
H	 3.2766046739	 0.7047616298	 0.9707824805	 0.087071
H	 2.769202428	 1.5036507087	 3.0582096871	 0.090612
H	 0.6441666478	 2.6994801325	 3.502720743	 0.091797
H	-1.3485215581	 1.4761914483	 3.5142324214	 0.091796
H	-1.2476208525	-0.962215599	 3.0814057971	 0.090612
H	-0.7823893362	-1.7869911581	 0.9942221315	 0.087071
H	-0.048136386	-0.7150099521	-0.9274831531	 0.086436
136.2478	196.5496	256.3723	259.7183	338.0033	354.5246	497.117	575.7092	650.1241	651.7128	709.272	735.6855	787.781	806.1327	811.8717	853.1721	882.4707	926.1268	954.7524	957.0952	990.9847	1000.6862	1005.4085	1035.8187	1076.1098	1094.5924	1140.2088	1152.3595	1220.8267	1250.4741	1290.6765	1296.2406	1388.2252	1418.3769	1424.7481	1441.63	1462.7903	1485.7515	1698.2817	1710.0819	1720.9337	3106.9573	3112.224	3116.5318	3133.1345	3134.5008	3140.431	3147.7701	3151.7705	3160.5675	3255.4241
C1C2C=CC=CC=CC12	C1[C@H]2C=CC=CC=C[C@@H]12	
InChI=1S/C9H10/c1-2-4-6-9-7-8(9)5-3-1/h1-6,8-9H,7H2/b2-1-,5-3-,6-4-	InChI=1S/C9H10/c1-2-4-6-9-7-8(9)5-3-1/h1-6,8-9H,7H2/b2-1-,5-3-,6-4-/t8-,9+
