20
gdb 85414	2.38949	1.46415	1.14574	2.8166	76.45	-0.2535	0.0309	0.2843	1151.415	0.169717	-440.317753	-440.308369	-440.307425	-440.351419	35.814	
C	 0.0637249092	 1.582871718	 0.1495026601	-0.411412
C	 0.0309908687	 0.0571389311	 0.0428337956	 0.347799
C	-1.3916246651	-0.4640990901	-0.1151332043	-0.434279
O	 0.7802257806	-0.3453782251	-1.1376707759	-0.272624
C	 2.0522494226	-0.7319645483	-0.8225967923	 0.407698
N	 2.9180394495	-1.1065718164	-1.6617016286	-0.54544
C	 2.2437440172	-0.6566535538	 0.6743821636	-0.352886
C	 0.8016247331	-0.6379585675	 1.1955711486	 0.086441
O	 0.5896174286	 0.0628380985	 2.4041188751	-0.435568
H	 1.0861121612	 1.9567014744	 0.2481842921	 0.120827
H	-0.3750748941	 2.0198176943	-0.7516005098	 0.1217
H	-0.5030323206	 1.9170976451	 1.0208502315	 0.136581
H	-1.8945225614	 0.0221759766	-0.9556576396	 0.125109
H	-1.3880994077	-1.5431179516	-0.2929912155	 0.121428
H	-1.9629682535	-0.2604172849	 0.7954256429	 0.131238
H	 2.5380013432	-1.056308982	-2.6091225766	 0.218984
H	 2.8541249424	-1.4850120744	 1.0364633363	 0.128553
H	 2.7464487579	 0.2791240507	 0.9427042849	 0.136405
H	 0.4304939077	-1.6706068143	 1.2788434193	 0.077824
H	 0.9929953206	-0.4376782504	 3.1194916925	 0.291622
91.9167	118.4698	192.3991	225.2559	252.5115	269.7044	285.6326	317.3324	365.9442	429.748	508.4897	515.8418	540.6556	589.2009	635.582	743.3355	850.9706	898.4354	918.7125	936.8294	961.137	987.1088	1009.8317	1059.6152	1093.5039	1127.1026	1143.4076	1171.5619	1198.1894	1259.7739	1264.1238	1300.8368	1335.2476	1370.4423	1399.4894	1411.477	1436.8162	1474.5226	1476.993	1483.7626	1498.2412	1504.8773	1777.119	2985.8316	3042.7537	3052.2787	3057.8421	3118.8873	3120.3819	3123.8035	3127.1015	3139.4107	3465.5558	3831.1829
CC1(C)OC(=N)CC1O	CC1(C)O[C]([NH])C[C@H]1O	
InChI=1S/C6H11NO2/c1-6(2)4(8)3-5(7)9-6/h4,7-8H,3H2,1-2H3	InChI=1S/C6H11NO2/c1-6(2)4(8)3-5(7)9-6/h4,7-8H,3H2,1-2H3/t4-/m1/s1
