14
gdb 12614	2.90031	2.22065	1.35314	3.74	58.15	-0.2476	-0.0546	0.1929	860.6874	0.105863	-419.715874	-419.708483	-419.707539	-419.747992	26.874	
O	 0.4085227896	 1.0945027145	-0.6839598899	-0.420268
C	 0.0114307721	-0.0684105638	-0.0487846129	-0.032859
C	 0.5561518112	-0.2443903878	 1.3610872864	 0.35189
O	 1.4693832333	 0.4106342956	 1.7967063379	-0.316204
C	-0.3072070293	-1.2637729052	 2.0975303715	-0.332213
C	-1.6350547051	-1.3200890726	 1.2972323238	-0.332959
C	-1.4955022168	-0.280521161	 0.1703813888	 0.355212
O	-2.3891813717	 0.2725866145	-0.4038172151	-0.28103
H	 1.1106440691	 1.4705285912	-0.1308078059	 0.299117
H	 0.3299189193	-0.9784477824	-0.6036330189	 0.120156
H	 0.2111404757	-2.2282952617	 2.1170806174	 0.146453
H	-0.4325396083	-0.9495307553	 3.1363622355	 0.150075
H	-1.8090297387	-2.3055293179	 0.8525199575	 0.143617
H	-2.5161939904	-1.0815400482	 1.8961915938	 0.149012
73.2179	92.8797	243.5029	262.0621	364.0342	403.5041	456.1868	561.2961	572.2036	629.8506	641.5559	690.7436	857.6065	866.8778	933.7113	987.2761	1049.0443	1100.1149	1152.888	1167.5298	1228.5823	1246.6605	1259.2761	1296.0575	1363.6265	1395.9493	1447.318	1465.4926	1831.5175	1882.7354	2878.5204	3057.0056	3066.0085	3107.7629	3124.788	3711.1268
OC1C(=O)CCC1=O	OC1C(=O)CCC1=O	
InChI=1S/C5H6O3/c6-3-1-2-4(7)5(3)8/h5,8H,1-2H2	InChI=1S/C5H6O3/c6-3-1-2-4(7)5(3)8/h5,8H,1-2H2
