16
gdb 29303	4.84344	1.03158	0.88701	2.739	73.47	-0.1849	0.033	0.2179	1267.0695	0.124416	-437.869307	-437.861254	-437.86031	-437.902454	30.035	
O	-0.2063273318	 1.3210953533	-0.0823956742	-0.442773
C	 0.0519395298	-0.0146261659	-0.0806217818	 0.323114
C	 0.6456487078	-0.6973057092	-1.093481519	-0.128976
O	 0.7381806027	-2.0305881426	-0.7481104249	-0.18358
C	 0.1987045963	-2.1654153375	 0.4807635433	 0.428735
C	-0.2492669223	-0.9654911284	 0.9540884473	-0.444225
N	 0.2822211744	-3.4308633356	 1.0467928872	-0.151427
C	-0.8737351547	-3.9463125955	 1.7721078318	-0.224735
C	-0.4925642648	-4.5252458741	 0.4539677505	-0.220537
H	-0.5873482915	 1.5611166146	 0.7666400551	 0.299739
H	 1.029231987	-0.4218644272	-2.0586183128	 0.131462
H	-0.7121708246	-0.7787528385	 1.9103384948	 0.099274
H	-0.644164807	-4.4735690994	 2.6926586327	 0.127057
H	-1.7649617604	-3.3239822715	 1.8011861725	 0.125503
H	-1.122036425	-4.2880601173	-0.3991392566	 0.132318
H	 0.0271531241	-5.4761407252	 0.3998907337	 0.12905
52.1417	133.4937	184.3248	190.5409	291.7372	374.6952	403.1787	522.1225	542.5223	611.2768	668.7989	700.7123	702.3257	742.4936	817.9187	883.5355	925.044	976.5851	1009.8511	1042.1174	1112.263	1134.9728	1137.19	1154.456	1165.5896	1178.5123	1193.9773	1283.0453	1296.3581	1371.5969	1450.455	1491.6422	1517.5566	1607.4055	1687.5668	3112.0785	3120.6324	3199.0388	3215.2879	3251.6459	3306.0184	3849.6126
OC1=COC(=C1)N1CC1	Oc1coc(c1)N1CC1	
InChI=1S/C6H7NO2/c8-5-3-6(9-4-5)7-1-2-7/h3-4,8H,1-2H2	InChI=1S/C6H7NO2/c8-5-3-6(9-4-5)7-1-2-7/h3-4,8H,1-2H2
