14
gdb 133009	3.95043	1.16908	0.90716	1.0503	70.04	-0.2347	-0.0546	0.1802	1191.1679	0.102019	-474.194593	-474.186908	-474.185964	-474.227367	27.54	
C	 0.0811802463	 1.415228515	 0.0850534245	-0.33024
N	-0.0132179999	-0.0308285525	 0.1512287563	-0.340846
C	-1.1479851052	-0.583038336	 0.0497467711	 0.459034
N	-1.1738578291	-2.0086480475	 0.1227820354	-0.395918
C	-2.3270927014	-2.6743112976	 0.0251015852	 0.434509
F	-2.2070744511	-3.980098634	 0.1084924727	-0.041353
N	-3.4869856595	-2.1432176747	-0.1370684751	-0.363229
C	-3.4324428357	-0.7640647089	-0.2041989645	 0.070442
N	-2.3969785595	 0.0055585149	-0.1257123184	-0.293718
H	 0.7480703315	 1.6932648678	-0.7396370727	 0.122842
H	-0.8823166618	 1.9168143879	-0.0519877134	 0.134764
H	 0.5483010719	 1.7860911027	 1.0050567938	 0.122834
H	-0.2927469624	-2.4876855425	 0.2499739837	 0.284336
H	-4.4008181441	-0.2874113044	-0.3413011685	 0.136546
87.1355	107.3266	195.5722	223.6002	264.8032	384.27	422.3429	495.9465	573.2639	641.1554	651.6196	738.6476	787.4102	803.5164	932.3847	989.9782	1014.5887	1074.8814	1136.2217	1138.7419	1185.3319	1276.0957	1294.8444	1421.627	1436.8716	1492.8113	1496.4822	1517.7211	1585.6961	1693.058	1765.5059	3016.7688	3069.7277	3096.1024	3161.3457	3607.5884
CN=C1NC(F)=NC=N1	C[N]C1=NCN=C(N1)F	
InChI=1S/C4H5FN4/c1-6-4-8-2-7-3(5)9-4/h2H,1H3,(H,6,7,8,9)	InChI=1S/C4H6FN4/c1-6-4-8-2-7-3(5)9-4/h2H2,1H3,(H,7,8,9)
