19
gdb 117043	4.49303	0.69788	0.6131	1.3879	73.59	-0.2391	-0.0817	0.1574	1812.3933	0.154788	-460.187356	-460.17648	-460.175536	-460.224915	36.852	
C	-0.0115527659	 1.5661966994	 0.0232752856	-0.386711
C	-0.0012818747	 0.0360382105	-0.0059725642	-0.169941
C	 0.7177873876	-0.5667565039	 1.1999391258	-0.276905
C	 0.7445937096	-2.0766283331	 1.2003130256	 0.264852
O	 0.2495947993	-2.770834694	 0.3401619578	-0.28995
C	 1.4617130466	-2.7494115434	 2.3955790667	 0.29176
O	 1.965431393	-2.0868962906	 3.2670230317	-0.263976
C	 1.4682360286	-4.266742751	 2.3647059374	-0.170358
O	 2.1440588436	-4.7468608759	 3.496028901	-0.399275
H	 1.0063162717	 1.9717330131	 0.0241691511	 0.116472
H	-0.5311742953	 1.9733535205	-0.8492338116	 0.116622
H	-0.5171740855	 1.9444068763	 0.9187227676	 0.116462
H	-1.0268631995	-0.34788846	-0.0404389466	 0.111523
H	 0.4780642537	-0.3208405429	-0.9242876949	 0.111459
H	 1.7568553771	-0.2167201348	 1.2722839745	 0.138915
H	 0.2656875612	-0.2432563462	 2.1478272521	 0.138853
H	 0.4190210733	-4.6006146574	 2.3064537307	 0.127084
H	 1.9314254907	-4.576018332	 1.4132014774	 0.127163
H	 2.1429502049	-5.7074562347	 3.455740932	 0.295951
40.114	49.5998	92.6973	102.3697	107.3064	225.59	237.8388	242.9383	287.8022	317.2184	356.3086	365.4327	517.186	585.4859	716.9552	737.6377	807.9398	857.2808	877.1931	952.7826	978.4325	1050.6667	1102.778	1119.3193	1140.2491	1192.4957	1229.6123	1242.5494	1244.9899	1316.8467	1328.9998	1398.6089	1416.1504	1434.0345	1444.4254	1476.5452	1487.6654	1500.1887	1508.2151	1794.8637	1822.5824	2974.862	2995.1628	3025.145	3030.803	3045.475	3045.5332	3074.4897	3100.6742	3105.8055	3838.228
CCCC(=O)C(=O)CO	CCCC(=O)C(=O)CO	
InChI=1S/C6H10O3/c1-2-3-5(8)6(9)4-7/h7H,2-4H2,1H3	InChI=1S/C6H10O3/c1-2-3-5(8)6(9)4-7/h7H,2-4H2,1H3
