14
gdb 46455	3.86884	1.25214	1.1174	4.816	67.11	-0.2786	-0.0102	0.2684	1053.3596	0.102652	-432.890518	-432.883113	-432.882169	-432.922604	27.504	
O	-0.0011893492	-0.0428017945	 0.0035825179	-0.349491
C	-0.0066397356	 1.1566089174	 0.0024728462	 0.422211
N	-1.0935593101	 1.9870036702	 0.1088635086	-0.327591
C	-0.8090862886	 3.3995369811	-0.0016814583	-0.237016
C	 0.7262346741	 3.3857729648	-0.0058263735	 0.161526
C	 1.4283931679	 2.737783176	 1.1376371637	-0.270203
N	 1.1916026747	 1.979580331	-0.1042082491	-0.167406
C	 1.3955045781	 4.3786667865	-0.8075887906	 0.236114
N	 1.9050644216	 5.2079294968	-1.4305576248	-0.323343
H	-2.0238704949	 1.6035692931	 0.1362759986	 0.270567
H	-1.1818854243	 3.8314039243	-0.9378319752	 0.143795
H	-1.2195942484	 3.9789711041	 0.8329589733	 0.137368
H	 2.4678307911	 2.9828747205	 1.3265016705	 0.156833
H	 0.8329368236	 2.4867872087	 2.0117322927	 0.146638
105.5263	138.1951	164.4885	286.0255	352.8614	444.6848	464.0588	508.013	565.8203	606.5488	688.2049	730.5429	806.6804	834.895	868.8378	930.2319	978.5768	1053.9066	1076.7651	1132.9905	1135.7015	1189.4604	1213.7375	1272.4651	1319.9732	1372.545	1445.134	1499.5043	1533.7018	1880.3984	2364.5472	3028.9056	3065.4597	3118.887	3220.0774	3660.5126
O=C1NCC2(CN12)C#N	O=C1NC[C@]2(CN12)C#N	
InChI=1S/C5H5N3O/c6-1-5-2-7-4(9)8(5)3-5/h2-3H2,(H,7,9)	InChI=1S/C5H5N3O/c6-1-5-2-7-4(9)8(5)3-5/h2-3H2,(H,7,9)/t5-,8?/m0/s1
