19
gdb 113061	2.10279	1.21283	0.87352	1.968	72.94	-0.2538	-0.0372	0.2166	1372.3775	0.156911	-460.159563	-460.149818	-460.148874	-460.195201	34.465	
C	-0.4532670685	 1.3397927039	 0.4099946596	-0.383534
C	-0.0930532487	-0.127247388	 0.1581751926	-0.193733
C	 0.9336619895	-0.6494443489	 1.1527700288	 0.024143
O	 0.4601472611	-0.6967475626	 2.5291261683	-0.327657
C	 0.6822180674	-2.1260657071	 2.6681338735	-0.012187
C	-0.6125901724	-2.8523333375	 3.014890952	-0.067854
O	-1.1424934162	-2.3576048959	 4.2265514076	-0.414721
C	 1.1716459881	-2.1648343489	 1.214802986	 0.320071
O	 1.5382007436	-3.0068222005	 0.4530467638	-0.28306
H	 0.4244968648	 1.9863055232	 0.304228446	 0.119976
H	-1.2118747143	 1.6829682099	-0.2991260441	 0.120379
H	-0.8472526767	 1.4712259982	 1.4217157483	 0.134492
H	-0.9928183803	-0.7512775788	 0.2109878874	 0.106307
H	 0.3251601053	-0.257562239	-0.8473549204	 0.119801
H	 1.8672215959	-0.0714946847	 1.0853969147	 0.107781
H	 1.4536547593	-2.3384984857	 3.4197527096	 0.11521
H	-1.3298125119	-2.747651525	 2.1858374598	 0.092814
H	-0.4124098176	-3.9192203469	 3.1545073548	 0.126607
H	-1.2193422184	-1.4018488358	 4.1180763013	 0.295164
50.0917	89.2088	100.9563	133.2273	154.3288	223.3917	288.9056	308.9164	388.8611	438.2947	450.1441	584.8229	611.1742	694.9458	777.1877	854.8125	877.1261	923.9651	966.2703	1019.4435	1034.3404	1067.7238	1079.7174	1099.3768	1115.0706	1147.5195	1210.4196	1230.0774	1259.4545	1281.1553	1306.9917	1340.6777	1379.427	1397.7044	1410.5538	1422.7446	1473.0807	1495.1468	1496.8989	1506.5049	1916.7402	2982.2638	3002.7495	3032.0655	3033.5646	3039.5943	3072.2202	3087.8528	3109.0771	3120.1678	3789.0402
CCC1OC(CO)C1=O	CC[C@H]1O[C@@H](CO)C1=O	
InChI=1S/C6H10O3/c1-2-4-6(8)5(3-7)9-4/h4-5,7H,2-3H2,1H3	InChI=1S/C6H10O3/c1-2-4-6(8)5(3-7)9-4/h4-5,7H,2-3H2,1H3/t4-,5+/m1/s1
