19
gdb 108772	3.14035	1.09506	0.87873	5.4142	79.96	-0.2569	-0.0396	0.2173	1344.6115	0.160012	-423.083769	-423.075105	-423.074161	-423.117575	32.095	
C	-0.2603472475	 1.5523832196	-0.033369785	-0.378087
C	 0.0947807046	 0.055185573	 0.0365772563	-0.280657
C	 0.7884385532	-0.4492658024	-1.1998821268	 0.314179
C	 2.0882714925	-0.7739570133	-1.2272310444	-0.304186
C	 2.7441288858	-1.3816997149	-2.4040344041	 0.42225
O	 3.828991804	-1.9030217176	-2.3643131924	-0.341843
O	 2.0405028443	-1.3922237592	-3.5717526118	-0.237236
C	 0.9012654939	-0.5308244361	-3.6771655597	-0.079739
C	-0.0147850351	-0.6272799046	-2.4647080221	-0.316523
H	 0.6420429646	 2.1613208423	-0.1416070715	 0.129893
H	-0.9204873689	 1.7760696988	-0.8771989604	 0.121914
H	-0.7744926672	 1.864578761	 0.880119941	 0.12516
H	 0.7303092246	-0.1268663027	 0.9090421337	 0.115133
H	-0.8271092151	-0.5230630595	 0.1877391358	 0.112569
H	 2.7208444706	-0.7017372004	-0.3493293924	 0.111753
H	 1.2486701717	 0.504019435	-3.7984237538	 0.112974
H	 0.3929921684	-0.8311119482	-4.5960492935	 0.123286
H	-0.5240379907	-1.6010769664	-2.439428437	 0.13194
H	-0.8010895238	 0.1312084657	-2.5459452618	 0.11722
64.3393	106.9943	151.8967	208.4982	241.0835	284.9152	319.7464	440.8591	469.7717	511.5966	582.7441	660.3074	743.3028	782.8854	805.4791	852.3638	911.1487	923.8873	966.3661	1009.2113	1054.9118	1074.1559	1100.1259	1113.0675	1163.6768	1224.6779	1233.9005	1267.259	1293.0031	1340.5031	1348.6229	1388.7891	1409.6091	1428.889	1463.8559	1480.8984	1500.2932	1506.619	1507.3544	1700.0295	1824.0546	3012.6937	3017.6871	3022.9513	3041.1511	3073.9472	3074.9423	3106.66	3112.5853	3117.5769	3195.0476
CCC1=CC(=O)OCC1	CCC1=CC(=O)OCC1	
InChI=1S/C7H10O2/c1-2-6-3-4-9-7(8)5-6/h5H,2-4H2,1H3	InChI=1S/C7H10O2/c1-2-6-3-4-9-7(8)5-6/h5H,2-4H2,1H3
