17
gdb 75565	2.76547	1.4687	1.04006	1.1361	71.97	-0.2311	-0.0466	0.1844	1125.3577	0.136575	-455.160668	-455.152458	-455.151514	-455.193613	30.943	
N	 0.0060386267	 1.2694940781	-0.1873081329	-0.546669
C	-0.0542188645	-0.1038757262	-0.165894445	 0.320493
N	-1.1669121534	-0.7242458826	-0.1646739345	-0.30205
C	-1.1565214448	-2.1704907654	 0.0020639213	-0.148974
C	 0.1207614173	-2.6837929021	 0.6505367157	-0.094819
O	 1.252446434	-2.181468147	-0.0556510458	-0.269922
C	 1.3204344632	-0.7784400765	-0.0443130269	-0.035442
C	 2.2666131703	-0.3906558807	-1.1781058939	 0.134797
O	 2.52418407	 0.7427478042	-1.497281255	-0.248886
H	 0.8288399155	 1.6701169465	-0.6191246076	 0.269034
H	-0.8714262153	 1.7124929921	-0.4198592782	 0.252577
H	-2.0222774966	-2.4583521095	 0.6118632533	 0.105591
H	-1.2926348495	-2.6521221939	-0.9766371472	 0.109326
H	 0.1691205823	-2.3747933934	 1.706723595	 0.098795
H	 0.1948333924	-3.7734576001	 0.6056132831	 0.113708
H	 1.7830502707	-0.4044796535	 0.8888457471	 0.124366
H	 2.7141227016	-1.2685359099	-1.6871968584	 0.118077
76.8504	115.5678	216.4352	234.4375	294.4795	368.7197	395.5157	426.4178	495.1823	525.2862	571.6415	614.4524	677.7992	686.1235	761.9721	896.2909	917.0826	996.1263	1019.3493	1053.4649	1072.6327	1120.8452	1164.1953	1216.6684	1254.2583	1264.9085	1286.7744	1321.2972	1353.3293	1372.4077	1392.3921	1413.7364	1487.3871	1496.4877	1629.6377	1743.6034	1822.0388	2929.9275	2937.0311	2984.143	3007.0336	3042.3	3097.0181	3536.6645	3659.7659
NC1=NCCOC1C=O	NC1=NCCO[C@H]1C=O	
InChI=1S/C5H8N2O2/c6-5-4(3-8)9-2-1-7-5/h3-4H,1-2H2,(H2,6,7)	InChI=1S/C5H8N2O2/c6-5-4(3-8)9-2-1-7-5/h3-4H,1-2H2,(H2,6,7)/t4-/m0/s1
