14
gdb 13755	4.25498	1.50132	1.26078	6.4559	60.67	-0.2486	-0.006	0.2426	937.414	0.10644	-415.881542	-415.873487	-415.872543	-415.914515	28.092	
N	 0.1944896319	 1.0705900939	 0.2471270573	-0.534709
C	-0.0760991256	-0.114307616	-0.3640785706	 0.427071
O	 0.7411465394	-0.7282819596	-1.0231336536	-0.361079
C	-1.4870127932	-0.6154123732	-0.1623179891	-0.138942
C	-2.1908558624	-1.1686941747	-1.3844220209	-0.227797
N	-1.7497688083	-2.0269552256	-0.3255055667	-0.064249
C	-0.7910882104	-3.0326506189	-0.4783713638	 0.168846
O	-0.8049016912	-3.8360481824	-1.3724792358	-0.286289
H	 1.0993564158	 1.4871100263	 0.0994507524	 0.271131
H	-0.5043822832	 1.5952485392	 0.74293755	 0.266107
H	-2.0802583486	-0.1179587756	 0.6027832579	 0.099746
H	-3.2631640367	-1.0275028695	-1.4853543554	 0.130523
H	-1.6144756355	-1.1914053754	-2.305327425	 0.158126
H	-0.091725572	-3.0662660484	 0.3748152032	 0.091515
55.1299	109.916	194.6972	203.5985	229.6623	287.5379	355.5029	435.0353	570.8691	585.1347	673.3308	769.4471	791.017	849.2798	972.3541	1017.8287	1025.3907	1075.6473	1082.2663	1114.0739	1130.9535	1161.6357	1292.7172	1379.3569	1416.7372	1436.5487	1497.9675	1620.2334	1791.8922	1818.784	2985.9946	3113.5087	3122.5948	3211.3874	3604.4328	3739.4685
NC(=O)C1CN1C=O	NC(=O)[C@H]1CN1C=O	
InChI=1S/C4H6N2O2/c5-4(8)3-1-6(3)2-7/h2-3H,1H2,(H2,5,8)	InChI=1S/C4H6N2O2/c5-4(8)3-1-6(3)2-7/h2-3H,1H2,(H2,5,8)/t3-,6?/m1/s1
