18
gdb 38382	4.34161	1.28992	1.24212	0.9528	75.46	-0.2258	0.0652	0.291	1051.8376	0.148545	-401.842936	-401.835876	-401.834932	-401.874313	28.383	
C	 0.0496680061	 1.3981611328	 0.1292660955	-0.235474
C	 1.2974120358	 0.6213656611	 0.0102110215	-0.023169
C	 1.7216223221	 0.0279092289	 1.3556700941	-0.343159
C	 0.3151887065	-0.5759572432	 1.3843800395	 0.375443
C	-0.156546698	-1.9539759194	 1.7625574324	-0.232851
C	 0.4068195444	-2.3101646377	 3.1315236904	-0.091769
O	-0.0659497936	-1.055873981	 3.7019291841	-0.287636
C	-0.6999445021	-0.7173501436	 2.4648874819	 0.019653
N	-0.058315387	-0.0768334	 0.0336605278	-0.18744
H	-0.2016415266	 1.8816159908	 1.070599647	 0.118235
H	-0.3180467458	 1.9019142657	-0.7592226464	 0.121388
H	 1.9028270511	 0.6283045653	-0.8898091229	 0.09894
H	 2.5050240178	-0.7284595314	 1.2657126822	 0.113782
H	 1.9922807731	 0.7350656436	 2.1441301502	 0.116056
H	-0.6149844607	-2.6190662164	 1.0436382516	 0.111701
H	-0.0957381942	-3.1587075528	 3.6086876257	 0.113333
H	 1.4938004258	-2.4244720172	 3.2229807507	 0.105736
H	-1.6759932146	-0.2454009256	 2.4920455947	 0.107232
140.1667	170.0733	180.9112	331.2631	390.5298	449.7528	523.9329	579.9706	755.4552	762.4145	775.5271	807.863	857.0621	906.1256	929.0402	938.0379	950.4521	995.8493	999.6183	1015.2996	1049.8221	1061.6501	1065.5301	1104.7849	1114.9779	1122.3112	1149.3525	1156.3953	1186.7893	1207.105	1232.4638	1258.3589	1266.9061	1333.307	1359.2644	1440.8809	1485.2445	1502.5813	1516.2809	3022.7631	3060.1288	3071.9324	3108.1913	3110.8536	3168.8908	3173.4755	3203.0062	3211.1471
C1C2CC3(C4COC34)N12	C1[C@H]2C[C@]3([C@H]4CO[C@@H]34)N12	
InChI=1S/C7H9NO/c1-4-2-8(4)7(1)5-3-9-6(5)7/h4-6H,1-3H2	InChI=1S/C7H9NO/c1-4-2-8(4)7(1)5-3-9-6(5)7/h4-6H,1-3H2/t4-,5+,6-,7-,8?/m1/s1
