16
gdb 29083	3.12231	1.4117	0.97808	5.3683	78.15	-0.1967	-0.025	0.1717	1157.1636	0.12657	-434.135268	-434.12719	-434.126246	-434.167801	30.756	
C	 0.0775007801	 1.5322715818	 0.0473971063	-0.492622
C	-0.0442909502	 0.0445383489	-0.0554649143	 0.36165
C	 0.0982496587	-0.6530996618	-1.1936304859	-0.136928
N	-0.0354746475	-2.0459370672	-1.1811885655	-0.370283
C	-0.309686372	-2.7987761354	-0.0711286937	 0.375009
O	-0.4194181193	-4.0103290488	-0.0956244203	-0.37374
C	-0.4717691862	-2.0178043951	 1.2170526075	 0.269538
N	-0.728570638	-2.5711037173	 2.3351526565	-0.525221
N	-0.3238223655	-0.6458856424	 1.1154034851	-0.41538
H	 0.8815741823	 1.8201392767	 0.7357796804	 0.138968
H	 0.2961214754	 1.967971901	-0.9291154193	 0.140589
H	-0.8498502487	 1.983570364	 0.4210452659	 0.138927
H	 0.3157641311	-0.1943220886	-2.1452930684	 0.129183
H	 0.0721958733	-2.5683298266	-2.0385434478	 0.2614
H	-0.7945763985	-3.5780451326	 2.1768384645	 0.24055
H	-0.4346421049	-0.1395676968	 1.9820706788	 0.25836
109.3231	130.0433	176.8964	288.0306	312.3724	355.1249	403.1489	468.6611	518.4593	547.4441	592.763	610.5064	649.0335	686.5959	736.6768	795.0524	801.6054	892.5126	999.6775	1019.1875	1068.3141	1124.7175	1165.348	1239.9267	1274.8346	1382.6124	1421.3685	1435.9289	1457.953	1474.2111	1482.8617	1505.7891	1717.4632	1736.5658	1789.482	3022.7736	3070.6146	3133.7053	3254.5294	3478.1194	3611.0028	3616.3621
CC1=CNC(=O)C(=N)N1	CC1=CNC(=O)[C]([NH])N1	
InChI=1S/C5H7N3O/c1-3-2-7-5(9)4(6)8-3/h2H,1H3,(H2,6,8)(H,7,9)	InChI=1S/C5H7N3O/c1-3-2-7-5(9)4(6)8-3/h2H,1H3,(H2,6,8)(H,7,9)
