15
gdb 29147	3.03004	1.4418	0.98279	2.15	74.39	-0.2048	-0.0567	0.1481	1127.844	0.113395	-454.01649	-454.008568	-454.007624	-454.048853	30.03	
C	-0.0307589775	 1.4876671419	-0.0198227459	-0.458588
C	-0.0026454104	-0.00736661	-0.0339102921	 0.20008
N	-0.0213792753	-0.6580785726	-1.1638553683	-0.37148
C	 0.0045795188	-2.0178686183	-1.1744632529	 0.378868
O	-0.0172592034	-2.6222373079	-2.3887258974	-0.43311
C	 0.0505220589	-2.7476510999	-0.0286514385	-0.100007
N	 0.0700294474	-2.0612957157	 1.1606638008	-0.336932
C	 0.046058805	-0.6794731283	 1.2783058451	 0.373087
O	 0.0663233307	-0.1123264957	 2.3617347728	-0.393945
H	 0.8515024385	 1.8787199643	 0.4987662443	 0.149658
H	-0.0678165899	 1.8758321648	-1.0380004002	 0.130276
H	-0.8953927404	 1.8453811775	 0.5499301515	 0.14967
H	-0.0490932589	-1.9077881624	-3.0378634872	 0.299417
H	 0.0724859772	-3.8273514079	 0.0036661469	 0.144299
H	 0.1042599394	-2.5653504697	 2.0359708311	 0.268705
113.8523	131.1454	221.6831	277.4949	342.5965	357.8426	411.6447	434.7803	494.7133	515.2034	594.3939	610.893	695.0184	711.9882	790.9246	813.2309	819.4258	970.1252	1020.2833	1046.7739	1116.9513	1196.461	1219.3229	1290.1676	1370.8381	1403.8207	1413.882	1459.2174	1464.671	1486.3013	1590.1371	1699.4088	1766.1409	3040.8713	3091.9231	3153.4778	3236.9793	3609.4044	3790.7742
CC1=NC(O)=CNC1=O	Cc1nc(O)c[nH]c1=O	
InChI=1S/C5H6N2O2/c1-3-5(9)6-2-4(8)7-3/h2H,1H3,(H,6,9)(H,7,8)	InChI=1S/C5H6N2O2/c1-3-5(9)6-2-4(8)7-3/h2H,1H3,(H,6,9)(H,7,8)
