23
gdb 78479	3.29065	1.22091	1.16201	0.1491	88.51	-0.2366	0.0853	0.3219	1217.5677	0.208663	-351.142954	-351.135013	-351.134069	-351.175028	32.727	
C	-0.0230923045	 1.4886266481	 0.0149156388	-0.419861
C	 0.060308438	-0.0238941324	 0.034703299	-0.003427
C	 1.4100265259	-0.6412042956	-0.2093817072	-0.078375
C	 0.7819948151	-0.6575094648	 1.1923335818	-0.078381
C	 0.7060476665	-2.1979021862	 1.1577543337	-0.00798
C	-0.6365356267	-2.9463218403	 1.0358500205	-0.23849
C	-0.4715496995	-3.7956811824	-0.2474152525	-0.186614
C	 0.3686821527	-2.9201541292	-1.2080731053	-0.238494
C	 1.3469811466	-2.1812497666	-0.2729389126	-0.007984
H	 0.8864540754	 1.9384766204	 0.4276543811	 0.114291
H	-0.1461133289	 1.8667205112	-1.0059324565	 0.115259
H	-0.8700058015	 1.8479376204	 0.6097707903	 0.115258
H	-0.8244220316	-0.5143626563	-0.3674098299	 0.072299
H	 2.2358085972	-0.0398089723	-0.5733166486	 0.075188
H	 1.0549037318	-0.0704597229	 2.0623530981	 0.075189
H	 1.3592670241	-2.6499634411	 1.9076390367	 0.065597
H	-0.8667993072	-3.5599256509	 1.9117334682	 0.089184
H	-1.4651813425	-2.2398782547	 0.9155802425	 0.098425
H	 0.0848910373	-4.7109736058	-0.0088176363	 0.095418
H	-1.4275841771	-4.1086304594	-0.6793420297	 0.090293
H	 0.8742160185	-3.5146070848	-1.9747308985	 0.089184
H	-0.2788680965	-2.2089774016	-1.7325628509	 0.098427
H	 2.3452844367	-2.6243677728	-0.2933830228	 0.065595
130.891	171.0209	218.1605	236.6694	261.4749	356.6777	438.6208	511.3708	575.3404	633.8423	669.4867	761.496	813.0086	847.5349	853.7951	870.344	878.8296	904.5105	932.1815	980.7997	995.2377	1010.4813	1027.9906	1051.0173	1051.9076	1062.905	1092.3314	1108.1582	1151.838	1166.8274	1172.965	1185.3973	1207.0318	1253.763	1257.4648	1282.254	1302.5816	1302.8358	1324.5147	1334.4329	1351.2161	1351.8952	1416.2512	1430.1542	1489.1056	1493.2795	1495.4787	1502.9311	1507.1799	3025.1506	3025.8933	3042.3004	3042.4777	3063.7503	3070.8729	3080.8	3087.7387	3089.0728	3090.9702	3096.6345	3117.2439	3161.4182	3172.8587
CC1C2C1C1CCCC21	C[C@H]1[C@H]2[C@@H]1[C@H]1CCC[C@@H]21	
InChI=1S/C9H14/c1-5-8-6-3-2-4-7(6)9(5)8/h5-9H,2-4H2,1H3	InChI=1S/C9H14/c1-5-8-6-3-2-4-7(6)9(5)8/h5-9H,2-4H2,1H3/t5-,6+,7-,8+,9-
