15
gdb 16917	3.87162	2.26632	2.07529	2.989	65.68	-0.2515	-0.0143	0.2371	715.0432	0.122299	-362.673146	-362.667516	-362.666572	-362.702635	23.367	
N	-0.0691043895	 1.2609758473	-0.0033317116	-0.566298
C	-0.0298352911	-0.0001321765	-0.0058175653	 0.446758
O	 1.0980895389	-0.7785599125	-0.0175036273	-0.265385
C	 0.6195933128	-2.1759360246	 0.0146322801	 0.056952
C	-0.6143569423	-2.0726710252	-0.8953911646	-0.231062
C	-1.2204336544	-0.9575298588	 0.0055044721	-0.147757
C	-1.1375072955	-1.6436979652	 1.3716204653	-0.079845
C	-0.0293265193	-2.3899100263	 1.3758998933	-0.079082
H	 0.8769786222	 1.6478085505	-0.0039571968	 0.221163
H	 1.4518812618	-2.8120413917	-0.2758846681	 0.089152
H	-0.3673326857	-1.7434688591	-1.9084108324	 0.116298
H	-1.2211156547	-2.9784463008	-0.9170078195	 0.114053
H	-2.1630452844	-0.4949326974	-0.2718464142	 0.095751
H	-1.8200922771	-1.4512276004	 2.1881102855	 0.118145
H	 0.4027893683	-2.9504972692	 2.1930706633	 0.111158
163.0064	388.6652	433.9269	461.864	517.2467	648.9161	687.1703	738.6184	775.9378	829.2618	868.8387	881.1265	894.7093	919.355	926.3801	947.5214	967.2786	973.971	1012.618	1060.018	1125.2731	1130.0973	1187.8393	1252.9409	1255.6736	1274.7228	1285.2864	1344.7294	1356.4284	1491.0608	1635.5048	1783.9839	3071.1288	3141.6178	3157.7325	3168.9698	3218.1153	3242.7838	3462.6238
N=C1OC2CC1C=C2	[NH][C]1O[C@@H]2C[C@H]1C=C2	
InChI=1S/C6H7NO/c7-6-4-1-2-5(3-4)8-6/h1-2,4-5,7H,3H2	InChI=1S/C6H7NO/c7-6-4-1-2-5(3-4)8-6/h1-2,4-5,7H,3H2/t4-,5+/m1/s1
