21
gdb 82215	2.47638	1.81817	1.35506	2.3101	81.28	-0.2177	0.0705	0.2882	1041.3158	0.183873	-383.230934	-383.222724	-383.22178	-383.263004	33.148	
C	-0.0424943818	 1.5626225835	 0.0526623394	-0.396485
C	 0.0312996242	 0.0391042937	 0.0063642086	-0.006167
N	 0.7078993974	-0.4743062856	-1.2147812701	-0.116539
C	 2.1221493197	-0.1226095345	-1.4225908568	-0.255846
C	 1.7626160659	-1.4218612689	-0.7983631923	-0.022418
C	 1.775859586	-1.4979714846	 0.7099134938	-0.108438
N	 2.1139884452	-0.217018893	 1.3796251792	-0.376364
C	 0.6981755547	-0.6156491787	 1.2298496454	 0.331501
C	-0.1320236207	-0.910068182	 2.4526841332	-0.496086
H	 0.9478167599	 1.9969779653	 0.2092749116	 0.1329
H	-0.4556154225	 1.9521491203	-0.8818957122	 0.123159
H	-0.6899864092	 1.8910654943	 0.8725233412	 0.108913
H	-0.9913318912	-0.3578186853	-0.046883509	 0.076688
H	 2.4141678462	-0.0866844556	-2.4691003341	 0.104493
H	 2.5934602079	 0.6100900668	-0.7777405808	 0.141347
H	 1.8357684581	-2.3574028955	-1.3465672968	 0.083342
H	 2.0425308981	-2.4316304229	 1.1942193987	 0.082821
H	 2.4182037031	-0.4064068526	 2.3328395716	 0.224147
H	-0.4674934643	 0.0146863524	 2.9369631498	 0.127734
H	-1.0236325616	-1.4919938063	 2.1956941278	 0.128059
H	 0.4426101649	-1.4815967607	 3.1895279619	 0.113237
146.0989	203.0284	220.0573	230.5591	248.9259	289.9141	397.0696	412.7273	531.6063	554.8675	603.9016	683.3549	724.8806	741.2078	817.6387	851.492	869.6935	888.2431	947.7653	967.1838	1005.7457	1026.4268	1056.7719	1073.8348	1100.6204	1109.0683	1115.0484	1127.5251	1138.2639	1147.7922	1172.2061	1263.2976	1295.8727	1310.849	1345.6721	1370.9057	1382.6651	1402.9088	1415.4624	1439.7008	1484.3419	1486.6032	1495.5521	1499.9253	1503.051	3010.1412	3023.8706	3042.1837	3085.7106	3097.8023	3107.9128	3112.0658	3129.9674	3139.2338	3168.2786	3214.4324	3479.1602
CC1N2CC2C2NC12C	C[C@H]1N2C[C@H]2[C@H]2N[C@@]12C	
InChI=1S/C7H12N2/c1-4-7(2)6(8-7)5-3-9(4)5/h4-6,8H,3H2,1-2H3	InChI=1S/C7H12N2/c1-4-7(2)6(8-7)5-3-9(4)5/h4-6,8H,3H2,1-2H3/t4-,5+,6-,7+,9?/m1/s1
