19
gdb 26512	3.57088	1.18936	1.166	4.0113	80.18	-0.2197	0.0321	0.2518	1153.4701	0.160842	-382.095883	-382.087757	-382.086812	-382.128848	31.275	
C	-0.2201586038	 1.4253348914	 0.4127483656	-0.436236
C	 0.013375541	-0.0226859748	 0.0269743457	 0.317369
C	 1.3597384256	-0.4419638385	-0.5080573555	-0.297268
C	 0.9221012376	-0.8817432289	 0.8694645875	-0.300319
N	-1.1399024384	-0.6744546411	-0.544682793	-0.02115
C	-1.5536681105	-0.6122964063	-1.8610942897	-0.130925
C	-2.7467386627	-1.2823311677	-1.9069350308	-0.09638
N	-3.088027957	-1.750436372	-0.6586004213	-0.278317
C	-2.1111983998	-1.3624900575	 0.128704177	 0.000274
H	 0.6888118117	 1.8633044727	 0.834650855	 0.120156
H	-0.5118637925	 2.0190853655	-0.4595818242	 0.129956
H	-1.0176415363	 1.5061873049	 1.1584094596	 0.131208
H	 1.3792386326	-1.1926533268	-1.2890480846	 0.130696
H	 2.1245244641	 0.321920755	-0.5910511968	 0.120789
H	 1.3854342627	-0.4202511073	 1.7342785568	 0.121905
H	 0.6564954216	-1.923899402	 0.9996091767	 0.13142
H	-0.96216197	-0.1160705942	-2.6125789881	 0.124857
H	-3.3747986611	-1.4621414695	-2.7664389292	 0.105938
H	-2.037481205	-1.5497407029	 1.1896630195	 0.126027
59.143	118.9185	191.4443	229.0276	302.1716	321.7582	396.7122	504.2109	538.5425	653.549	681.8241	736.8273	784.4103	823.797	825.7974	856.0226	879.218	916.5948	942.5541	953.7815	1030.4835	1045.6891	1070.5317	1088.0114	1091.1693	1127.1925	1142.0454	1191.2115	1202.712	1273.468	1317.7408	1335.8502	1349.6447	1409.2032	1417.8088	1462.2143	1484.2477	1494.6652	1507.9519	1521.2357	1542.7667	3036.143	3103.9954	3115.5873	3141.3279	3145.3852	3225.5982	3238.716	3245.2674	3249.5389	3277.7008
CC1(CC1)N1C=CN=C1	CC1(CC1)n1ccnc1	
InChI=1S/C7H10N2/c1-7(2-3-7)9-5-4-8-6-9/h4-6H,2-3H2,1H3	InChI=1S/C7H10N2/c1-7(2-3-7)9-5-4-8-6-9/h4-6H,2-3H2,1H3
