16
gdb 128059	4.50797	1.04588	0.85359	2.8408	73.66	-0.2202	-0.0269	0.1933	1298.8665	0.126801	-430.25888	-430.250196	-430.249252	-430.293572	30.193	
C	 0.0584443258	 1.3813957145	-0.0283971585	-0.309153
N	-0.0763802305	-0.0564181309	-0.1002960865	-0.306115
C	-1.2933750018	-0.6621070554	-0.0202775277	 0.270435
N	-2.3718782135	 0.0354530318	 0.0407859392	-0.560967
C	-1.2325911769	-2.1428122981	-0.0204130825	 0.30972
N	-0.0713919668	-2.8083186084	-0.0464970624	-0.303474
N	-0.4412924453	-4.0777643412	-0.0312671409	-0.06711
N	-1.7457268296	-4.315768026	 0.0018612491	-0.191506
C	-2.2727723684	-3.0933697019	 0.0098939539	-0.136911
H	 1.1088372603	 1.6452304231	-0.1681544753	 0.115753
H	-0.5392291782	 1.8603894613	-0.8098985063	 0.144887
H	-0.2873111047	 1.7767507738	 0.9350037233	 0.131232
H	 0.7384261051	-0.6411852849	-0.0368700998	 0.260029
H	-3.1920201927	-0.5647926065	 0.0731484799	 0.209656
H	 0.2325811403	-4.8269750243	-0.0448634358	 0.298472
H	-3.3413302332	-2.955164187	 0.0353304004	 0.135051
40.428	67.0061	108.5317	163.9251	229.1278	299.2357	346.8864	399.0725	488.3056	536.2138	642.7304	721.3598	765.3258	788.135	811.8889	887.2877	984.3225	1001.8594	1036.6979	1159.8566	1162.7399	1183.1371	1188.7732	1215.3176	1242.8919	1312.0289	1365.6078	1403.8686	1453.8982	1470.8622	1476.4756	1516.6022	1544.7153	1588.8696	1690.8585	3023.2689	3082.6518	3129.6849	3275.7607	3518.3667	3661.8082	3672.9336
CNC(=N)C1=NNN=C1	CNC(=N)c1n[nH]nc1	
InChI=1S/C4H7N5/c1-6-4(5)3-2-7-9-8-3/h2H,1H3,(H2,5,6)(H,7,8,9)	InChI=1S/C4H7N5/c1-6-4(5)3-2-7-9-8-3/h2H,1H3,(H2,5,6)(H,7,8,9)
