18
gdb 59823	4.39933	0.62007	0.55847	6.9031	79.36	-0.2559	-0.0308	0.2251	1936.7114	0.145877	-439.086345	-439.076005	-439.075061	-439.123666	36.014	
C	-0.066758068	 1.6389951616	 0.1114369236	-0.394261
C	-0.0212767752	 0.1067530056	 0.0300363424	 0.046846
N	 0.7752705331	-0.5373422371	 1.0797451713	-0.504054
H	 0.4409256004	-0.2392009262	 1.9940429904	 0.223447
H	 0.3083368949	-4.3263400818	 0.4379394079	 0.313891
H	 1.7382517884	-0.2187148875	 1.0190988407	 0.230603
C	-1.4557866721	-0.4730549558	 0.054888227	-0.361274
C	-1.4920683718	-1.9166263569	-0.1107990163	 0.08913
C	-1.4902822116	-3.1140995161	-0.2487788521	-0.034108
C	-1.4022113468	-4.5536994752	-0.3649878311	 0.328513
O	-2.2476736437	-5.2710638053	-0.8232435968	-0.302308
O	-0.2323952907	-5.0566319798	 0.1072817949	-0.361
H	 0.9453518892	 2.0545979422	 0.0806742439	 0.114252
H	-0.6337070177	 2.0750147873	-0.7185753891	 0.119594
H	-0.5352060906	 1.9649074563	 1.0481018403	 0.113732
H	 0.4316214611	-0.1815812933	-0.9265014078	 0.10008
H	-1.9320657709	-0.2103710185	 1.0106024561	 0.134819
H	-2.0576847779	 0.0071142505	-0.7257449555	 0.142098
32.8887	34.6295	65.1997	148.334	183.8432	247.6202	258.3124	300.8007	354.9614	387.261	434.1623	465.312	547.5149	575.235	603.9072	767.9226	769.7049	827.9701	882.9933	899.6685	944.468	1032.1401	1068.319	1094.3239	1163.5037	1179.0557	1199.7175	1305.5816	1312.3809	1324.7265	1367.1804	1406.6025	1411.9109	1458.8283	1493.4582	1496.4919	1660.0037	1849.6459	2350.3619	3010.2497	3022.7633	3037.1181	3061.0426	3093.3562	3103.0007	3471.3399	3553.909	3772.9086
CC([NH3+])CC#CC([O-])=O	C[C@@H](N)CC#CC(=O)O	
InChI=1S/C6H9NO2/c1-5(7)3-2-4-6(8)9/h5H,3,7H2,1H3,(H,8,9)	InChI=1S/C6H9NO2/c1-5(7)3-2-4-6(8)9/h5H,3,7H2,1H3,(H,8,9)/t5-/m1/s1
