19
gdb 38985	3.00939	1.65248	1.22346	1.7244	74.53	-0.2471	0.0824	0.3295	1028.6997	0.161483	-422.994153	-422.987081	-422.986137	-423.025432	28.951	
C	-0.0165952272	 1.5640277573	-0.0619984815	-0.276203
C	 1.5126997996	 1.5471979273	 0.0919355396	-0.071046
O	 2.0399704236	 0.8118390491	-1.0279413685	-0.309947
C	 1.5502774175	 0.0719465622	 0.0875274615	 0.482533
C	 2.3519980471	-0.9985160144	 0.7502585571	-0.344634
C	 1.5499442555	-1.5318612056	 1.9537557154	-0.077746
O	 0.2012016886	-1.8078692604	 1.6144002627	-0.242741
C	-0.5183017873	-0.629433891	 1.2811566123	-0.100081
C	 0.0171379756	-0.005412307	-0.0125747539	-0.083953
H	-0.5429861645	 2.0064109274	 0.7882886754	 0.104638
H	-0.3751048123	 2.0167900041	-0.988841884	 0.113986
H	 2.1699988303	 2.2791089593	 0.547885833	 0.101153
H	 2.5107915819	-1.8150865254	 0.0348384059	 0.119132
H	 3.3361985355	-0.6363760286	 1.0658255874	 0.109197
H	 1.9758115112	-2.4708396801	 2.3168573266	 0.111579
H	 1.585316392	-0.7998889248	 2.7781509986	 0.089217
H	-1.5679948831	-0.9214099981	 1.1889857981	 0.112038
H	-0.4396008045	 0.095851884	 2.1093332301	 0.082606
H	-0.3588683195	-0.5321477155	-0.8934750358	 0.080274
151.3506	160.1101	314.4073	356.2992	388.2606	444.8317	455.8552	488.7454	591.7821	657.1034	747.445	817.2984	850.0888	876.9823	885.1396	914.5857	953.229	971.5381	987.0222	1027.5669	1036.5196	1094.2713	1107.8487	1120.7815	1167.5068	1183.5782	1210.2911	1240.44	1253.4079	1262.7591	1273.661	1319.6513	1336.5419	1355.9368	1384.9621	1413.8835	1462.2724	1474.3982	1484.929	1491.5762	1504.7393	2956.0969	2966.7596	3031.229	3063.5392	3074.3349	3081.9819	3090.9995	3094.2686	3121.8114	3182.3632
C1C2OC22CCOCC12	C1[C@@H]2O[C@]32CCOC[C@@H]13	
InChI=1S/C7H10O2/c1-2-8-4-5-3-6-7(1,5)9-6/h5-6H,1-4H2	InChI=1S/C7H10O2/c1-2-8-4-5-3-6-7(1,5)9-6/h5-6H,1-4H2/t5-,6+,7-/m1/s1
