20
gdb 87522	3.00995	1.43609	1.26565	2.5026	78.27	-0.238	0.0756	0.3136	1088.021	0.172218	-403.098081	-403.090205	-403.089261	-403.130276	31.311	
C	-0.0606825199	 1.5632750105	-0.1573157241	-0.394123
C	-0.0340611286	 0.0613992046	-0.0029405345	-0.11449
N	 1.3007189621	-0.5917512424	-0.1148661733	-0.413465
C	 0.5858071361	-0.6229905871	 1.1437045606	 0.442253
C	 1.1913962861	-0.2153643987	 2.491652421	-0.011396
C	-0.0521238686	 0.0124025576	 3.3772140122	-0.219505
C	-0.8283886569	-1.2887114935	 2.9750924365	-0.218513
C	 0.2192621385	-1.8469709551	 1.9881705544	-0.031966
O	 1.4677306806	-1.6380191662	 2.7223439105	-0.302331
H	 0.8077261106	 2.0144222956	 0.3299534359	 0.126793
H	-0.0371980615	 1.8464711506	-1.214922701	 0.12285
H	-0.9684731009	 1.9875604669	 0.2856692589	 0.115593
H	-0.8689337576	-0.4616936181	-0.4706248772	 0.08204
H	 1.2297105665	-1.4843459919	-0.5980927723	 0.230212
H	 2.061506493	 0.4320601954	 2.5872814599	 0.088517
H	 0.2110661311	 0.035067294	 4.436355433	 0.109723
H	-0.5885974177	 0.9315450453	 3.127336272	 0.102123
H	-0.9801242801	-1.9663212262	 3.8177003009	 0.109066
H	-1.7949315612	-1.0908873878	 2.5038729043	 0.098978
H	 0.0969122585	-2.8512267136	 1.5798793823	 0.077643
125.1264	145.3273	179.7076	240.834	280.9524	401.0828	431.4762	450.5716	574.5317	612.7139	731.9344	815.5908	834.0546	844.0474	864.963	890.7023	898.1312	914.8648	954.7154	962.3661	998.1229	1022.3911	1045.1384	1055.1753	1079.9544	1114.2594	1136.9637	1190.2039	1210.5662	1223.7909	1229.3955	1247.2506	1260.4259	1281.0763	1306.0325	1317.8437	1372.3003	1412.0873	1477.3038	1480.717	1491.338	1498.0301	1525.707	3033.3364	3062.9734	3071.9738	3095.7138	3095.9689	3110.0029	3114.0673	3122.1141	3127.1438	3141.4096	3490.4701
CC1NC11C2CCC1O2	C[C@H]1N[C@]21[C@H]1CC[C@@H]2O1	
InChI=1S/C7H11NO/c1-4-7(8-4)5-2-3-6(7)9-5/h4-6,8H,2-3H2,1H3	InChI=1S/C7H11NO/c1-4-7(8-4)5-2-3-6(7)9-5/h4-6,8H,2-3H2,1H3/t4-,5-,6+,7-/m1/s1
