21
gdb 101376	2.81853	1.28653	1.02464	1.9086	78.69	-0.2292	0.08	0.3092	1247.7221	0.180725	-424.168028	-424.158662	-424.157718	-424.202565	34.675	
C	-0.0615962473	 1.6276020801	 0.2921238809	-0.234674
O	 0.1482813094	 0.2733315417	-0.0277834615	-0.238919
C	 0.5993334784	-0.5292690734	 1.0500760604	 0.105697
C	-0.5379764962	-0.8860810496	 2.0149400481	-0.406847
C	 1.2525656798	-1.7973900421	 0.5103469523	 0.139018
O	 0.3410410233	-2.7219448254	-0.14991275	-0.306532
C	 1.2727616738	-2.8815054898	-1.2266425874	 0.10411
C	 1.4388355193	-1.6101523423	-1.9870012648	-0.287776
C	 2.2009354909	-1.8152873051	-0.6891293645	-0.164953
H	 0.8405550693	 2.0861000788	 0.7277258428	 0.102174
H	-0.301884249	 2.1444020668	-0.6404724324	 0.127141
H	-0.8951196473	 1.7757724905	 0.9940332407	 0.108096
H	 1.3889282195	 0.0168726514	 1.5979407357	 0.062486
H	-0.1620047379	-1.4876600287	 2.848674862	 0.114355
H	-1.0010035448	 0.0105248235	 2.4351113053	 0.112967
H	-1.2989524877	-1.4629624046	 1.4839279696	 0.147287
H	 1.7133788082	-2.3126851016	 1.3658462156	 0.077841
H	 1.4451332626	-3.884657318	-1.5982657506	 0.099319
H	 2.0647782102	-1.6850519594	-2.8716862685	 0.106155
H	 0.6224785142	-0.9016644274	-2.0397627809	 0.138735
H	 3.2802983013	-1.7938041455	-0.626768043	 0.09432
65.9129	71.8248	156.0842	182.5627	206.7671	235.6532	276.416	339.2982	379.305	446.2959	511.0465	691.1146	715.814	769.6574	807.6109	834.1149	912.424	941.363	955.2253	978.6202	1013.9142	1031.8116	1048.752	1055.1035	1088.1103	1096.4838	1107.8436	1129.9307	1179.1772	1183.0102	1208.9411	1227.9579	1261.0714	1295.9201	1337.2053	1363.3042	1392.4844	1394.7328	1401.1971	1469.3811	1479.333	1482.7835	1495.895	1500.822	1513.3865	2939.1233	2974.0792	2996.7475	3023.1636	3046.2882	3110.0215	3112.4225	3133.103	3134.7462	3181.4215	3204.4451	3238.0514
COC(C)C1OC2CC12	CO[C@@H](C)[C@H]1O[C@H]2C[C@@H]12	
InChI=1S/C7H12O2/c1-4(8-2)7-5-3-6(5)9-7/h4-7H,3H2,1-2H3	InChI=1S/C7H12O2/c1-4(8-2)7-5-3-6(5)9-7/h4-7H,3H2,1-2H3/t4-,5+,6-,7+/m0/s1
