19
gdb 62043	4.01899	0.69584	0.64544	5.0508	77.38	-0.2472	0.0265	0.2738	1729.2705	0.158172	-419.182189	-419.172406	-419.171461	-419.218137	34.426	
C	 0.0880258839	 1.5160424156	-0.1534812665	-0.395601
C	-0.0233564481	-0.0116482207	 0.044319761	-0.097563
N	 0.8119216686	-0.5890847536	 1.0942343429	-0.295593
C	 2.2461181639	-0.5793433299	 0.8281599439	-0.166387
C	 2.96256389	-1.278226792	 1.9553365404	 0.083331
C	 4.2905292694	-0.853568291	 2.4093925225	-0.179404
O	 3.1212935752	-0.5070959167	 3.1530298445	-0.237185
C	-1.4279331302	-0.3766919833	 0.3053594284	 0.27995
N	-2.5356403133	-0.6315869113	 0.5112573898	-0.317753
H	 1.1152735453	 1.7898527689	-0.4062907498	 0.129366
H	-0.5666096208	 1.8520882127	-0.9623690622	 0.140268
H	-0.1998391772	 2.0415538355	 0.7617109957	 0.136482
H	 0.2601687817	-0.5059944926	-0.8946004063	 0.130794
H	 0.6242113169	-0.1350104824	 1.9832253118	 0.238897
H	 2.4251189389	-1.1244078719	-0.1085281595	 0.111853
H	 2.6794982595	 0.4281142029	 0.7106918323	 0.093248
H	 2.652246556	-2.3083923374	 2.1295946411	 0.10807
H	 4.9519684089	-1.5755043456	 2.8853711934	 0.121795
H	 4.7911321412	-0.0236197573	 1.9121354568	 0.115433
47.3543	61.555	94.2333	147.1582	195.9641	218.6188	253.862	319.5643	373.3208	418.9762	467.1934	565.6982	593.1857	750.2633	789.5315	841.744	872.2573	915.1562	957.7205	974.1562	1065.1919	1080.1674	1098.6432	1122.9814	1150.9092	1159.2678	1167.5337	1189.6784	1265.0385	1293.6184	1323.9237	1326.6099	1378.9869	1404.3105	1455.5387	1486.6116	1488.8562	1496.7585	1505.476	1531.1191	2362.6801	2959.9833	3026.8715	3035.739	3046.5526	3085.3847	3120.3972	3123.7254	3128.3446	3172.4058	3518.5453
CC(NCC1CO1)C#N	C[C@@H](NC[C@H]1CO1)C#N	
InChI=1S/C6H10N2O/c1-5(2-7)8-3-6-4-9-6/h5-6,8H,3-4H2,1H3	InChI=1S/C6H10N2O/c1-5(2-7)8-3-6-4-9-6/h5-6,8H,3-4H2,1H3/t5-,6+/m1/s1
