13
gdb 45950	2.32236	2.01999	1.17234	2.5434	59.31	-0.2652	-0.076	0.1891	967.5046	0.088266	-493.721218	-493.713834	-493.71289	-493.753561	26.63	
O	 0.0081267977	 0.0087235577	-0.1120292699	-0.291249
C	 0.0135631543	 1.2071600784	-0.0434107725	 0.319545
C	-1.2065302943	 2.1261293953	 0.0068985754	-0.205057
O	-0.709506904	 3.4739745599	 0.011607518	-0.229399
C	 0.6538348075	 3.5340866129	-0.0187648117	 0.405402
O	 1.2593624174	 4.5614993691	-0.0493353087	-0.327869
C	 1.193174634	 2.1293782426	 0.0169401754	 0.142509
C	 2.456615731	 1.7956303721	 0.7163117232	-0.209771
O	 2.385744387	 1.8241427728	-0.6928083148	-0.235073
H	-1.8499070512	 1.9761076486	-0.8656568122	 0.164364
H	-1.795871462	 1.9508463063	 0.9128127834	 0.160488
H	 3.0053693659	 2.6137425902	 1.1785437317	 0.155862
H	 2.5402524568	 0.8079352042	 1.1658467126	 0.150248
70.8607	169.647	218.5788	237.3628	259.874	343.001	525.7931	576.3375	598.962	633.8454	697.5955	744.2472	864.6793	897.5485	928.7072	1017.1453	1046.8768	1071.2027	1133.3263	1139.0455	1188.2173	1205.8813	1213.4015	1352.8836	1412.2591	1478.6098	1500.4437	1862.7363	1904.7921	3053.9485	3093.652	3101.8567	3201.1101
O=C1COC(=O)C11CO1	O=C1COC(=O)[C@]21CO2	
InChI=1S/C5H4O4/c6-3-1-8-4(7)5(3)2-9-5/h1-2H2	InChI=1S/C5H4O4/c6-3-1-8-4(7)5(3)2-9-5/h1-2H2/t5-/m1/s1
