19
gdb 88281	3.49077	1.0607	0.9642	3.7486	78.45	-0.2519	-0.0013	0.2505	1293.67	0.159297	-419.184396	-419.175384	-419.174439	-419.21871	32.739	
C	 0.0444381232	 1.3685557363	 0.3353679546	-0.402457
C	-0.0394200488	-0.1067001057	 0.0235267656	 0.016375
C	 1.2063375645	-0.924103334	-0.206087762	-0.261116
N	 0.3976841212	-1.093786676	 0.9844465417	-0.094209
C	 0.7610697247	-0.8713671958	 2.2978832968	 0.398617
O	 0.1061581076	-0.1829414909	 3.0602339974	-0.384945
C	 1.9748193985	-1.6225515193	 2.7553590756	-0.107742
C	 2.9474419718	-0.8502981841	 3.591941164	-0.22424
N	 2.0914744414	-1.861697051	 4.1999294951	-0.303146
H	 1.0005733485	 1.6238998819	 0.80063	 0.123234
H	-0.0576091559	 1.9501380133	-0.5862854115	 0.12168
H	-0.7494224618	 1.6637050805	 1.0259200185	 0.15283
H	-0.9276860742	-0.4088809099	-0.5294088319	 0.105893
H	 1.2010925195	-1.7508525747	-0.9117176018	 0.128047
H	 2.161141567	-0.4130377623	-0.1014070796	 0.129548
H	 2.3318068596	-2.4209350643	 2.1130791934	 0.101623
H	 4.0029758161	-1.1009857923	 3.536954298	 0.122077
H	 2.7180344706	 0.1968434676	 3.768270608	 0.129018
H	 1.2965415666	-1.3887657692	 4.6325731181	 0.248915
61.6637	88.3083	134.0734	174.7991	205.648	273.4444	305.3868	372.023	383.8519	461.968	608.5143	753.0008	769.7125	832.633	849.3816	869.0818	909.3146	925.1019	985.1751	1014.9533	1043.3769	1064.6249	1109.5459	1121.4938	1126.1465	1140.0317	1160.4748	1177.7342	1188.2079	1192.4921	1290.4082	1322.466	1367.258	1400.0464	1415.8897	1449.7675	1482.3047	1491.4627	1495.6991	1513.9371	1755.2605	3044.3953	3100.3874	3108.035	3111.6356	3121.8717	3130.3504	3164.7947	3189.6065	3204.7607	3460.8637
CC1CN1C(=O)C1CN1	C[C@H]1CN1C(=O)[C@H]1CN1	
InChI=1S/C6H10N2O/c1-4-3-8(4)6(9)5-2-7-5/h4-5,7H,2-3H2,1H3	InChI=1S/C6H10N2O/c1-4-3-8(4)6(9)5-2-7-5/h4-5,7H,2-3H2,1H3/t4-,5+,8?/m0/s1
