19
gdb 106847	2.65829	1.24012	1.01181	2.2252	84.06	-0.2255	0.016	0.2416	1253.973	0.15697	-385.818264	-385.809129	-385.808185	-385.852232	34.469	
C	-0.2579079608	 1.5210103433	-0.0270990137	-0.373609
C	 0.1261363354	 0.0372074239	 0.0701032166	-0.289493
C	 0.7980695772	-0.4758640892	-1.1710204214	 0.203894
C	 0.0608378572	-0.9532022918	-2.4021750296	-0.380926
C	 1.0012461032	-1.899560153	-1.6975584278	 0.259077
O	 2.3505707766	-1.6256926463	-2.1071954541	-0.322879
C	 2.2676434393	-0.2894792819	-1.5432284875	-0.132933
C	 0.6640206505	-3.175415202	-1.1747487953	 0.243117
C	 0.3724288513	-4.2537065821	-0.7267963397	-0.431963
H	 0.6238245476	 2.1505103806	-0.1878041197	 0.118748
H	-0.946013158	 1.694468048	-0.8606395176	 0.122087
H	-0.7457395649	 1.8600445361	 0.8916350716	 0.116156
H	 0.7885710507	-0.117646082	 0.9312661355	 0.105565
H	-0.770344051	-0.5643683348	 0.2624640545	 0.109474
H	-0.9956967327	-1.1507326598	-2.2513276756	 0.126001
H	 0.3358687556	-0.607347388	-3.3952057655	 0.118211
H	 2.5160304029	 0.4860818577	-2.2770045974	 0.105493
H	 2.9260005079	-0.2007234785	-0.6706046796	 0.110092
H	 0.1191668218	-5.2077691504	-0.3354235238	 0.193888
70.2213	92.1423	157.6681	200.955	212.7674	304.6211	333.2145	369.3425	435.043	526.6484	542.381	564.8082	616.6207	689.2572	710.383	775.9008	788.7156	850.2547	915.2108	969.9082	978.9038	986.8619	1022.9342	1049.1698	1070.1275	1095.0854	1128.9267	1153.8884	1220.0237	1268.0497	1310.4143	1348.9169	1355.736	1405.744	1414.7427	1478.6011	1483.9335	1498.7405	1507.4809	1518.2252	2231.3161	3018.8095	3024.2972	3035.2906	3058.4172	3069.6872	3103.8286	3110.1153	3113.595	3212.0507	3501.8298
CCC12CC1(OC2)C#C	CC[C@]12C[C@]1(OC2)C#C	
InChI=1S/C8H10O/c1-3-7-5-8(7,4-2)9-6-7/h2H,3,5-6H2,1H3	InChI=1S/C8H10O/c1-3-7-5-8(7,4-2)9-6-7/h2H,3,5-6H2,1H3/t7-,8-/m1/s1
