18
gdb 82503	2.71025	1.77893	1.45084	2.4019	70.5	-0.2279	0.0578	0.2857	946.7799	0.149192	-439.024333	-439.017088	-439.016144	-439.055492	29.987	
O	 0.0508040511	 1.4900115168	-0.102285636	-0.439129
C	 0.0344021284	 0.0897312951	 0.0086130785	 0.133806
C	 0.1152890303	-0.6017460709	 1.4022943152	-0.062387
C	-0.920244273	 0.1865037819	 2.2185166385	-0.291013
C	-2.1081685063	-0.2958534258	 1.3546097733	 0.385737
O	-3.342071864	 0.3313800788	 1.4446536624	-0.486867
C	-2.0051987196	-1.8090215748	 1.5725073725	-0.193628
N	-0.7255440723	-1.7500793955	 0.7818602901	-0.16645
C	-1.3265609021	-0.5814081753	-0.0064884249	-0.101622
H	 0.9659914765	 1.7837686736	-0.1464102304	 0.288578
H	 0.7064453642	-0.3946036401	-0.7094533052	 0.08706
H	 1.0603029885	-0.8885394071	 1.8625941937	 0.070684
H	-1.0126543118	-0.1207694209	 3.2629742539	 0.097227
H	-0.7467610673	 1.2640468346	 2.1647694092	 0.103316
H	-3.2067308292	 1.2829514472	 1.380319404	 0.285013
H	-1.9334301458	-2.1928305723	 2.5950995206	 0.098071
H	-2.7359774937	-2.3880345741	 1.0015782858	 0.113157
H	-1.9096257739	-0.7990358712	-0.9018499012	 0.078447
159.5519	269.7314	277.1515	292.6415	348.2925	381.8771	483.9644	491.6905	556.9955	621.8245	711.645	721.6648	770.723	816.4203	877.5514	908.2344	918.644	973.7193	992.3002	996.3952	1013.8579	1031.2604	1102.2789	1120.0158	1130.647	1147.6502	1170.7753	1196.0947	1218.2433	1241.7268	1257.7469	1271.1784	1279.2209	1308.738	1353.1782	1390.2051	1438.6706	1485.7792	1516.1022	3041.149	3047.2536	3064.4416	3109.6105	3114.6121	3116.4294	3120.3989	3806.8784	3822.7227
OC1C2CC3(O)CN2C13	O[C@H]1[C@H]2C[C@]3(O)CN2[C@H]13	
InChI=1S/C6H9NO2/c8-4-3-1-6(9)2-7(3)5(4)6/h3-5,8-9H,1-2H2	InChI=1S/C6H9NO2/c8-4-3-1-6(9)2-7(3)5(4)6/h3-5,8-9H,1-2H2/t3-,4+,5-,6+/m1/s1
