18
gdb 50624	3.34091	1.23719	0.94741	3.3462	86.43	-0.2071	-0.0359	0.1712	1217.4588	0.150312	-401.992534	-401.984712	-401.983768	-402.025143	29.9	
O	-0.1277445731	-0.0910170869	 0.3091734959	-0.318584
C	-0.066660295	 1.1108333681	 0.1976001986	 0.151301
N	 1.0799871453	 1.8279168277	-0.0943532559	-0.07931
C	 1.0327506947	 3.2840579262	-0.1105994003	-0.190465
C	 1.496763209	 3.9270203397	-1.4331256961	-0.257458
C	 2.9834178161	 3.8910929249	-1.6401032759	-0.103525
C	 3.7977181715	 2.8833050787	-1.2891432997	-0.058315
C	 3.4551104019	 1.6023101625	-0.6940408602	-0.146352
C	 2.280907195	 1.1350890787	-0.2281467384	 0.012857
H	-0.9412889327	 1.7761614052	 0.3213813773	 0.083283
H	-0.003804805	 3.5691593856	 0.0906973821	 0.116247
H	 1.646513727	 3.6703987422	 0.7103498309	 0.13114
H	 0.9701702012	 3.4390734227	-2.2639606398	 0.126808
H	 1.157684829	 4.9697422556	-1.4330699321	 0.110095
H	 3.4280970844	 4.7719507764	-2.0947535048	 0.090959
H	 4.8571643321	 3.0063400145	-1.5013453693	 0.0893
H	 4.2700333793	 0.8863795557	-0.644489111	 0.096813
H	 2.1889498193	 0.1078806323	 0.1026662187	 0.145206
71.0267	142.1434	217.3351	278.2109	311.9764	353.0457	413.0803	425.3816	562.8714	601.4911	671.713	734.7776	801.9544	821.9658	862.0205	918.5069	932.8316	978.2452	984.0167	1001.171	1017.3604	1043.9475	1068.5635	1190.1858	1223.539	1235.3319	1276.3717	1346.8311	1361.4985	1375.8956	1387.0114	1433.4838	1446.8283	1467.4782	1469.6836	1501.8932	1670.1726	1704.6358	1799.5268	2957.0707	3020.078	3040.6575	3060.4983	3092.0372	3144.8108	3166.6126	3176.1283	3217.4876
O=CN1CCC=CC=C1	O=CN1CCC=CC=C1	
InChI=1S/C7H9NO/c9-7-8-5-3-1-2-4-6-8/h1-3,5,7H,4,6H2	InChI=1S/C7H9NO/c9-7-8-5-3-1-2-4-6-8/h1-3,5,7H,4,6H2
