19
gdb 83963	2.29385	1.94289	1.8288	1.7021	73.83	-0.2535	-0.0092	0.2443	913.4033	0.161841	-423.024441	-423.017186	-423.016241	-423.055686	29.553	
C	-0.1445392562	 1.5449676146	 0.0023527749	-0.411745
C	 0.0622072203	 0.0356764016	 0.0121961111	 0.007351
C	 1.0202009125	-0.5334834651	-1.061579779	 0.062853
O	 2.2561524412	 0.2061071287	-0.9805956907	-0.277839
C	 2.9020715596	 0.0533900431	 0.2685555641	 0.029663
O	 2.0428184524	 0.1923011854	 1.383593038	-0.277839
C	 0.8131070154	-0.5468824371	 1.2334539225	 0.062852
C	 1.0870997545	-1.9728059661	 0.7630619947	-0.096879
C	 1.2070566179	-1.9650443943	-0.5662867211	-0.09688
H	 0.8021390395	 2.0785169119	 0.0910227524	 0.137746
H	-0.6295675636	 1.8615481557	-0.9273407458	 0.109094
H	-0.7886966099	 1.8512315604	 0.8336583223	 0.109092
H	-0.9016650734	-0.4771659091	-0.0777754242	 0.074383
H	 0.6853125639	-0.4324387245	-2.0952620594	 0.075155
H	 3.4075005012	-0.9220394117	 0.3084686911	 0.090621
H	 3.6397585976	 0.8558740107	 0.3398084404	 0.116172
H	 0.2984867048	-0.4574687654	 2.191592964	 0.075155
H	 1.2451457831	-2.812642805	 1.4284976784	 0.105522
H	 1.4825484993	-2.7972820837	-1.2023635037	 0.105522
142.3114	218.2766	245.5269	290.1351	347.1944	421.8088	451.3146	568.8191	596.5411	597.5446	747.2676	782.8024	785.3875	877.1234	885.0779	923.8424	924.6106	958.0033	975.1996	987.6081	1006.1512	1046.8901	1105.5767	1109.7166	1126.6066	1140.046	1179.1311	1231.703	1281.5052	1289.2396	1295.0776	1343.8342	1358.8842	1365.795	1378.4685	1409.9498	1441.3395	1492.0932	1498.1085	1514.7558	1651.7236	2996.3204	3037.1216	3049.4777	3094.0389	3099.776	3101.0613	3104.8688	3147.3625	3196.0346	3220.9654
CC1C2OCOC1C=C2	C[C@H]1[C@H]2OCO[C@@H]1C=C2	
InChI=1S/C7H10O2/c1-5-6-2-3-7(5)9-4-8-6/h2-3,5-7H,4H2,1H3	InChI=1S/C7H10O2/c1-5-6-2-3-7(5)9-4-8-6/h2-3,5-7H,4H2,1H3/t5-,6-,7+
