15
gdb 124668	3.54606	1.06257	0.9949	1.6627	67.76	-0.2682	-0.053	0.2152	1204.1636	0.111723	-453.955212	-453.946846	-453.945902	-453.989799	28.681	
C	-0.009174601	 1.491153796	-0.0377557587	-0.413381
C	-0.0056741477	-0.0537045076	 0.0483743638	-0.183115
C	 0.6940405063	-0.6005048652	-1.2028821244	 0.157739
O	 0.1020013823	-1.0118753991	-2.1617463267	-0.231067
C	 0.6669920883	-0.5430656814	 1.286249302	 0.423324
N	 0.2043744498	-1.3505157876	 2.195121951	-0.315255
C	 1.2688670413	-1.4406968911	 3.0584035338	 0.03757
N	 2.3231752037	-0.750487583	 2.7234374074	-0.108317
O	 1.9246311518	-0.139565414	 1.5253569649	-0.205037
H	 1.0094105099	 1.8864809668	-0.0789652064	 0.147642
H	-0.5458652801	 1.8078562043	-0.9351233998	 0.146073
H	-0.5062980205	 1.9179099169	 0.8369482028	 0.145147
H	-1.027121131	-0.4381346319	 0.0509655106	 0.139627
H	 1.8042756715	-0.5467418215	-1.1724320878	 0.105189
H	 1.2546748156	-2.0372417116	 3.9589437175	 0.15386
37.6881	58.4458	135.8295	185.7624	221.2501	289.2181	367.1725	432.8793	459.7434	657.1216	748.4536	774.8491	893.9275	911.3781	933.7109	936.4277	978.4714	1017.4258	1042.5953	1083.0138	1139.0009	1182.2579	1255.8284	1273.6023	1308.7375	1332.558	1403.5842	1422.05	1495.2666	1496.1737	1514.9306	1619.149	1843.0394	2899.5002	3050.7204	3110.0905	3130.5608	3135.8043	3262.6562
CC(C=O)C1=NC=NO1	C[C@@H](C=O)c1ncno1	
InChI=1S/C5H6N2O2/c1-4(2-8)5-6-3-7-9-5/h2-4H,1H3	InChI=1S/C5H6N2O2/c1-4(2-8)5-6-3-7-9-5/h2-4H,1H3/t4-/m0/s1
