16
gdb 14561	3.597	1.74762	1.45785	0.722	60.04	-0.2242	0.0599	0.2841	881.2299	0.129907	-420.811939	-420.80446	-420.803515	-420.843507	28.646	
O	 0.0002460312	 1.3877724826	 0.0702576633	-0.426454
C	 0.0567050646	-0.0262397893	-0.1435917735	-0.157799
C	-1.336605703	-0.595707411	-0.0375443731	 0.378003
O	-2.2610566476	 0.0721003058	-0.8491248112	-0.477938
C	-1.7003065147	-2.0532037062	 0.1038164594	-0.188096
C	-0.7432722667	-2.7624320406	 1.0514399223	-0.103529
O	-0.9198541271	-1.7356522325	 2.0698212494	-0.28742
C	-1.915660723	-1.0941346806	 1.2654998769	-0.000846
H	-0.1416468664	 1.5285521611	 1.012889146	 0.292517
H	 0.442143164	-0.1558837314	-1.1597181729	 0.119494
H	 0.7396651455	-0.5108110908	 0.5613669492	 0.114842
H	-2.0350123824	 1.0086367537	-0.7607707241	 0.289022
H	-2.4139546555	-2.5140731073	-0.5652291385	 0.112411
H	-1.1289569302	-3.7230221008	 1.4110367062	 0.116316
H	 0.3040531289	-2.8779101924	 0.7498359094	 0.108391
H	-2.8099370375	-0.7064442703	 1.7397704512	 0.111086
101.7642	184.3467	221.9447	288.9532	344.807	355.8278	410.6166	514.4962	517.9174	528.6512	741.9232	781.3877	838.565	909.6935	940.8542	947.9986	985.017	997.9858	1025.2574	1042.1627	1064.6371	1099.7376	1147.7313	1159.585	1220.8273	1232.985	1281.0863	1321.8494	1341.303	1381.2742	1407.6983	1478.3849	1486.1369	1521.622	3026.4835	3048.3532	3073.495	3099.5135	3182.0133	3212.1888	3748.8653	3806.5875
OCC1(O)C2COC12	OC[C@@]1(O)[C@H]2CO[C@@H]12	
InChI=1S/C5H8O3/c6-2-5(7)3-1-8-4(3)5/h3-4,6-7H,1-2H2	InChI=1S/C5H8O3/c6-2-5(7)3-1-8-4(3)5/h3-4,6-7H,1-2H2/t3-,4+,5+/m0/s1
