17
gdb 31632	3.66632	1.13006	0.8918	5.0949	73.81	-0.1835	0.0445	0.228	1296.8153	0.135894	-455.189739	-455.180541	-455.179596	-455.224206	32.415	
C	-0.1494376344	 1.4235471493	 0.251737555	-0.336079
N	-0.0876667993	 0.0929995355	-0.3588765549	-0.385215
C	-1.158393136	-0.7548893991	-0.1681417703	 0.401071
C	-1.2788652923	-2.0605486858	 0.1281772955	-0.267392
N	-2.653997541	-2.3620841339	 0.0310833854	-0.114242
C	-3.2821363707	-3.6416411349	 0.2580490351	-0.342918
C	-3.3521031003	-1.2291750866	-0.2811667014	 0.480004
O	-4.5351756742	-1.0575580592	-0.4240882617	-0.418392
O	-2.4012757742	-0.2203038896	-0.4157574251	-0.236701
H	 0.7145878125	 2.0012637482	-0.0836399576	 0.128698
H	-1.0539216025	 1.9290980637	-0.0897218694	 0.163652
H	-0.1585147314	 1.3995982901	 1.3515869242	 0.115553
H	 0.7888027097	-0.3801312841	-0.1869475372	 0.242485
H	-0.5423020983	-2.8017665443	 0.3815241132	 0.132131
H	-3.0906788894	-4.0015529254	 1.2753816131	 0.132039
H	-4.3559978797	-3.504683322	 0.1229328908	 0.17211
H	-2.9223278685	-4.391664492	-0.4551961648	 0.133195
66.9968	105.311	128.7919	156.284	175.7203	234.3777	281.3268	339.2863	396.9639	557.2958	580.0189	613.244	663.0682	678.7047	718.5339	754.1279	864.0181	963.7114	1043.6933	1054.2092	1089.5131	1146.289	1155.9534	1158.9816	1204.7968	1334.3521	1367.101	1409.5488	1448.0138	1463.0037	1485.6325	1490.9835	1494.7123	1514.7447	1521.5775	1732.0372	1880.5862	2994.0446	3024.9641	3077.9002	3101.6472	3147.5971	3149.0581	3292.1009	3589.9601
CNC1=CN(C)C(=O)O1	CNc1cn(C)c(=O)o1	
InChI=1S/C5H8N2O2/c1-6-4-3-7(2)5(8)9-4/h3,6H,1-2H3	InChI=1S/C5H8N2O2/c1-6-4-3-7(2)5(8)9-4/h3,6H,1-2H3
