20
gdb 59801	3.76121	1.03438	1.01759	2.1454	82.43	-0.2448	0.0196	0.2644	1299.1119	0.169834	-403.118606	-403.109641	-403.108697	-403.152512	33.903	
C	-0.601084474	 0.4726301853	 1.0954838373	-0.390735
C	-0.0999891972	 0.4792712954	-0.3561109723	 0.055659
C	 1.2001441724	-0.3208706221	-0.52464649	-0.388756
N	-1.1361782983	 0.0393013177	-1.3011533067	-0.356651
C	-1.633628646	-1.1026224543	-1.2594719468	 0.490709
O	-1.3664930823	-2.2037697568	-0.4121047506	-0.289687
C	-2.2527211814	-3.0270069334	-1.2089869088	 0.097292
C	-3.6399171544	-2.506218975	-1.1124734175	-0.29238
C	-2.6393997264	-1.8502461704	-2.0731617638	-0.223584
H	 0.1443169146	 0.9289533689	 1.7551648536	 0.107566
H	-1.5295084531	 1.044984387	 1.1838605974	 0.114683
H	-0.7907893619	-0.5475249936	 1.4399677647	 0.132773
H	 0.1136674493	 1.5197738083	-0.628181897	 0.079652
H	 1.9928043025	 0.1108588328	 0.0951639531	 0.107551
H	 1.0575361578	-1.3637617066	-0.229490177	 0.132087
H	 1.5322634362	-0.2989560229	-1.5668612266	 0.115327
H	-1.9242378321	-4.0287819712	-1.4475468396	 0.124259
H	-4.4069390545	-3.0923822937	-1.6096551337	 0.127409
H	-3.9570205782	-1.9884499505	-0.2128263725	 0.134079
H	-2.8101606527	-1.7579445552	-3.1352012431	 0.122747
58.8126	100.6731	149.9872	216.3597	244.8639	266.4237	312.9264	403.9461	435.5561	486.9342	539.5602	694.1992	720.7041	780.4112	818.2568	826.6164	882.3761	929.1975	933.0705	954.4363	966.1612	980.3921	1014.2507	1035.7963	1044.6985	1081.1134	1105.6794	1140.5692	1172.377	1192.2166	1203.7416	1286.0487	1330.8052	1372.0063	1386.0886	1391.5491	1412.165	1473.9526	1485.5598	1495.2986	1497.5505	1515.3546	1850.5939	3025.5005	3035.593	3040.0399	3104.4743	3107.9848	3121.0727	3124.9701	3127.0829	3215.7055	3220.4266	3236.5774
CC(C)N=C1OC2CC12	CC(C)N=C1O[C@H]2C[C@@H]12	
InChI=1S/C7H11NO/c1-4(2)8-7-5-3-6(5)9-7/h4-6H,3H2,1-2H3	InChI=1S/C7H11NO/c1-4(2)8-7-5-3-6(5)9-7/h4-6H,3H2,1-2H3/t5-,6+/m1/s1
