16
gdb 37101	2.207	2.06613	1.32119	2.544	68.97	-0.2438	0.0489	0.2927	970.59	0.123412	-437.772249	-437.764898	-437.763954	-437.804057	28.587	
C	-0.0135050003	 1.5167058945	 0.095998869	-0.260016
O	 1.1485392888	 0.6889487185	-0.1032438656	-0.26881
C	-0.1085370394	 0.0639778296	 0.0046940716	 0.417254
C	-0.4177456151	-0.9975120204	 1.0530948443	-0.183492
N	-1.8769524278	-1.2524959219	 0.9233723054	-0.351016
C	-0.9266087263	-1.9240467964	-0.0023352461	-0.18348
C	-0.6333651187	-0.8910431999	-1.0832473702	 0.417248
C	-1.2186297854	-0.6761572679	-2.401995311	-0.260016
O	 0.1193998465	-1.1836479898	-2.2365840219	-0.268822
H	-0.0819284148	 2.0021302554	 1.0681841392	 0.120597
H	-0.2915337062	 2.1338980286	-0.7567339737	 0.119011
H	 0.1316067942	-1.2043260864	 1.9619627792	 0.112162
H	-2.1252921403	-1.9338672575	 1.6411698624	 0.237599
H	-0.8548564724	-3.0005056564	-0.0841171289	 0.112165
H	-1.944522669	-1.3873316049	-2.7928579565	 0.120602
H	-1.2824121437	 0.331075075	-2.8104001571	 0.119014
102.6732	181.0371	214.5115	263.2584	330.6341	378.5738	517.5208	566.8642	605.0449	607.7802	822.2314	830.0317	843.7095	862.4289	902.8042	906.5308	915.4963	983.2357	989.7126	1021.4675	1077.7246	1092.8918	1118.6466	1118.8436	1123.3865	1148.8105	1160.5519	1170.2232	1286.4263	1297.336	1339.154	1433.3916	1469.1954	1531.4185	1548.9475	3085.8497	3086.9272	3173.9356	3175.9083	3203.7675	3215.3898	3467.2362
C1OC11C2NC2C11CO1	C1O[C@]21[C@H]1N[C@H]1[C@]12CO1	
InChI=1S/C6H7NO2/c1-5(8-1)3-4(7-3)6(5)2-9-6/h3-4,7H,1-2H2	InChI=1S/C6H7NO2/c1-5(8-1)3-4(7-3)6(5)2-9-6/h3-4,7H,1-2H2/t3-,4+,5+,6-
