19
gdb 61898	3.24253	0.72453	0.67687	5.8427	76.9	-0.2552	0.0176	0.2728	1674.0323	0.157856	-419.265921	-419.25525	-419.254305	-419.303605	36.667	
C	 0.1676397647	 1.8071668398	-0.009904394	-0.392744
C	 0.0470622712	 0.2770340098	 0.0631655163	-0.100318
C	 0.6393739716	-0.4394965181	-1.1678213024	-0.169963
C	-0.0690166148	-0.0755402303	-2.4883721086	-0.359441
C	 0.4315143123	-0.8590271705	-3.6159107924	 0.260548
N	 0.8334396951	-1.4883874956	-4.497741574	-0.302229
C	 0.8131826421	-0.2175813589	 1.2972622304	 0.412336
N	 0.0856084331	-0.9424858403	 2.1933807997	-0.527076
O	 1.9961470159	 0.0180602984	 1.4516916671	-0.372127
H	 1.2206212981	 2.0938478862	-0.0718129921	 0.149462
H	-0.3645801147	 2.2159543488	-0.8731965541	 0.114054
H	-0.2543178126	 2.2725697354	 0.8860236864	 0.123675
H	-1.0129060795	 0.0026536076	 0.1516370499	 0.065125
H	 1.7040191267	-0.1983984946	-1.2368994109	 0.146487
H	 0.5718169794	-1.5231806283	-1.023162448	 0.12218
H	-1.1491373899	-0.2476001432	-2.4037027678	 0.1474
H	 0.0631418277	 0.9851259245	-2.7244301753	 0.158197
H	-0.894510647	-1.1259089928	 2.0752967918	 0.260113
H	 0.5499591607	-1.2898587478	 3.0170827079	 0.264321
19.5944	62.8156	89.6793	99.3986	161.2208	217.0532	228.6308	256.4829	298.4323	335.5071	399.9049	476.7535	543.7151	601.3525	623.3492	763.7277	777.0628	798.8057	909.7018	947.0137	952.5528	1032.7104	1043.4262	1093.305	1122.1786	1138.4051	1218.3114	1260.1635	1299.0431	1314.4929	1353.5272	1378.078	1402.4655	1409.6034	1468.774	1493.3218	1495.1498	1507.026	1616.9696	1794.9838	2363.1075	3011.1311	3038.4989	3045.9438	3051.7946	3082.9859	3107.5404	3111.711	3130.2114	3601.6686	3741.3973
CC(CCC#N)C(N)=O	C[C@@H](CCC#N)C(=O)N	
InChI=1S/C6H10N2O/c1-5(6(8)9)3-2-4-7/h5H,2-3H2,1H3,(H2,8,9)	InChI=1S/C6H10N2O/c1-5(6(8)9)3-2-4-7/h5H,2-3H2,1H3,(H2,8,9)/t5-/m0/s1
