17
gdb 90747	2.76159	1.56671	1.3225	5.147	67.24	-0.2512	-0.0067	0.2445	1009.8855	0.136954	-458.985687	-458.978053	-458.977109	-459.018232	28.705	
C	 0.422417094	 1.4348542941	-0.3225708557	-0.413858
C	 0.0636525225	 0.0188740952	 0.076411983	 0.14731
O	 0.6197244706	-0.9737219732	-0.8332061245	-0.30142
C	 1.2936244887	-1.6491004256	 0.2467990113	-0.012713
C	 0.7651562236	-0.6560979208	 1.2898807411	-0.139429
C	 2.0229376638	-0.0017424506	 1.8698509378	-0.101935
O	 3.1200581696	-0.360486766	 1.0113141324	-0.223263
C	 2.8027465638	-1.3900165733	 0.1736895484	 0.429362
O	 3.6130473884	-1.9346941716	-0.5139709416	-0.327557
H	 1.5057394422	 1.5774089551	-0.3689713072	 0.139609
H	 0.011603135	 1.6494737289	-1.3136777059	 0.138807
H	-0.0024296381	 2.1567166381	 0.3836584165	 0.11977
H	-1.0267583204	-0.0963972578	 0.1200639502	 0.088002
H	 1.0599235946	-2.7150518507	 0.2973606014	 0.108908
H	 0.0924162465	-1.026000969	 2.0619475905	 0.096704
H	 1.972052553	 1.0889789473	 1.9105967631	 0.128582
H	 2.240467952	-0.3762101801	 2.8758848092	 0.123121
64.2053	135.613	218.149	250.6021	278.3393	373.8239	435.9874	514.4411	603.3877	693.5778	737.0052	775.7141	814.4199	879.3401	883.8298	923.4444	983.7569	1009.1844	1026.5732	1047.4114	1090.0413	1120.5212	1161.8999	1177.4701	1210.8895	1248.0136	1258.68	1300.0059	1319.6168	1336.5624	1381.1639	1409.7989	1410.9639	1482.9195	1495.2323	1522.164	1888.8274	3021.0939	3037.5009	3047.174	3088.1035	3101.3777	3109.2185	3121.3163	3126.3183
CC1OC2C1COC2=O	C[C@H]1O[C@@H]2[C@H]1COC2=O	
InChI=1S/C6H8O3/c1-3-4-2-8-6(7)5(4)9-3/h3-5H,2H2,1H3	InChI=1S/C6H8O3/c1-3-4-2-8-6(7)5(4)9-3/h3-5H,2H2,1H3/t3-,4+,5-/m1/s1
