17
gdb 10120	2.49733	1.66572	1.10382	2.1417	66.41	-0.2576	-0.0404	0.2173	1073.9138	0.14037	-401.040005	-401.030985	-401.030041	-401.074343	31.039	
C	 0.0876632882	 1.5508331139	-0.3832207059	-0.379719
C	 0.1002018165	 0.0387664453	-0.150772593	-0.183077
C	 0.8096393376	-0.7543960314	-1.2756844046	-0.063019
N	 2.2232929378	-0.4664073932	-1.404054683	-0.274933
C	 2.7041354146	 0.3834494275	-2.3527366436	 0.15513
O	 2.0231528927	 1.1154283879	-3.0402465567	-0.325796
C	 0.6310073344	-2.2380141736	-1.0150290572	 0.159656
O	 1.5430997227	-3.0029597318	-0.8246774971	-0.25546
H	 1.1022597182	 1.9541079343	-0.4224434654	 0.137204
H	-0.4009873293	 1.8028158545	-1.328374536	 0.134451
H	-0.4471695025	 2.0536235242	 0.4281993457	 0.112835
H	 0.592499966	-0.1939210716	 0.8016308737	 0.108631
H	-0.9297351132	-0.3327726939	-0.0709235044	 0.103756
H	 0.3189467368	-0.5067507062	-2.2274377755	 0.130031
H	 2.8393642564	-1.180253895	-1.0374854299	 0.258069
H	 3.8088565474	 0.3464314817	-2.4178623047	 0.084429
H	-0.4259731643	-2.5760522225	-0.9746239225	 0.097813
62.9392	80.8168	113.7511	186.7409	204.8287	240.2512	267.6249	314.4436	386.5104	482.7885	588.4792	689.4737	757.5632	794.6466	855.9789	936.354	992.8017	1004.4161	1034.1286	1082.9291	1140.3415	1155.8734	1224.6725	1273.8075	1299.3013	1357.155	1374.1709	1412.6397	1417.1335	1428.9439	1475.3316	1490.4955	1500.0663	1516.9447	1796.859	1825.1566	2914.8471	2948.1624	3019.8402	3026.0521	3047.3462	3061.3237	3116.8406	3130.4022	3584.0176
CCC(NC=O)C=O	CC[C@@H](NC=O)C=O	
InChI=1S/C5H9NO2/c1-2-5(3-7)6-4-8/h3-5H,2H2,1H3,(H,6,8)	InChI=1S/C5H9NO2/c1-2-5(3-7)6-4-8/h3-5H,2H2,1H3,(H,6,8)/t5-/m1/s1
