20
gdb 87220	4.16152	0.86255	0.83472	1.6526	74.99	-0.2373	0.0531	0.2904	1439.2167	0.169672	-440.228614	-440.219165	-440.218221	-440.263427	35.592	
O	-0.4358673004	-0.76612013	 3.0043084531	-0.435255
C	-0.4066098192	-1.8730977066	 2.1648968372	 0.108686
C	-1.673130723	-2.6714792577	 1.9076417105	-0.384434
C	-1.0847330128	-1.7809359212	 0.8267900756	 0.351382
O	-1.6999475801	-0.5248375809	 0.6400943052	-0.477801
C	-0.464428652	-2.3581225117	-0.4320119876	-0.298785
C	-1.4607029979	-2.512138074	-1.5625171491	 0.026098
C	-1.3773698231	-3.6427353884	-2.5164834499	-0.247724
N	-2.4803603148	-3.577935301	-1.5384579664	-0.319434
H	-0.9349360491	-0.0879850086	 2.5271868877	 0.29265
H	 0.5322190854	-2.4160434076	 2.2330698142	 0.099609
H	-1.6027136348	-3.7488458957	 1.7974458744	 0.10629
H	-2.5706667258	-2.3173653298	 2.4043967145	 0.116325
H	-2.6138457261	-0.6692899193	 0.373135891	 0.299086
H	 0.3476315904	-1.6966879797	-0.7614135874	 0.114919
H	-0.0110685427	-3.3291492466	-0.1967798869	 0.093218
H	-1.8507529768	-1.5679568006	-1.938023246	 0.095405
H	-1.6756645943	-3.510012094	-3.5524955856	 0.12027
H	-0.5897047867	-4.3769386146	-2.3647536369	 0.110532
H	-2.2888822663	-4.2150575619	-0.7685995677	 0.228966
41.7211	78.0319	130.7178	213.4584	262.5007	295.4169	329.4109	350.8332	387.9213	423.4372	452.0885	487.8892	650.1891	723.5618	784.7089	824.6061	841.7381	885.9261	917.4179	933.5364	952.882	978.9973	1014.1427	1029.8254	1049.7118	1093.9154	1118.2696	1134.2072	1165.4826	1175.5016	1236.1263	1242.7729	1262.8272	1295.134	1314.6862	1327.3509	1339.59	1377.9239	1429.1461	1429.8321	1465.7082	1482.9173	1513.1516	3018.0107	3061.1985	3106.5176	3123.2857	3124.7454	3145.6928	3191.4348	3216.4769	3494.3117	3738.9165	3811.5039
OC1CC1(O)CC1CN1	O[C@H]1C[C@]1(O)C[C@H]1CN1	
InChI=1S/C6H11NO2/c8-5-2-6(5,9)1-4-3-7-4/h4-5,7-9H,1-3H2	InChI=1S/C6H11NO2/c8-5-2-6(5,9)1-4-3-7-4/h4-5,7-9H,1-3H2/t4-,5-,6+/m0/s1
