16
gdb 46821	2.63336	1.60556	1.16375	2.7666	76.5	-0.2166	-0.0204	0.1962	1052.0166	0.124335	-400.714357	-400.706445	-400.705501	-400.74668	30.684	
O	-0.0032414254	 0.0252148865	 0.1860700624	-0.303555
C	-0.0036255014	 1.2165722491	 0.0260129412	 0.333257
C	-1.2614594812	 2.093834718	-0.1694249855	-0.302454
N	-0.8294605541	 3.3736097881	-0.7522676003	-0.295124
C	 0.5979515442	 3.4819292294	-0.5303785992	-0.046102
C	 1.0723323737	 3.3591752866	 0.8636564926	-0.311489
C	 1.1937494781	 2.1261089105	-0.0664110231	 0.022073
C	 2.4741872362	 1.6209691301	-0.4304846903	 0.188632
C	 3.5559647938	 1.2010045155	-0.7475502583	-0.391079
H	-1.9783747244	 1.5773865183	-0.8103618999	 0.142155
H	-1.7485516649	 2.2386295813	 0.8033740329	 0.141766
H	-0.9961650089	 3.3529537129	-1.7521262785	 0.234019
H	 1.1423213431	 4.1025979249	-1.2308753087	 0.120428
H	 2.0212691395	 3.8164516164	 1.1148191095	 0.145689
H	 0.3543137959	 3.3202739002	 1.6758993054	 0.132646
H	 4.5072586859	 0.8187926722	-1.02325342	 0.189138
105.8633	132.6226	171.9746	243.8966	385.4007	412.0015	453.5952	503.9279	554.7824	576.6025	602.195	640.9732	650.8403	676.8267	802.1355	825.9766	843.6603	901.3421	975.8731	982.0896	1031.4183	1055.438	1065.9086	1087.4848	1164.2344	1206.4409	1239.9743	1291.7593	1316.4876	1398.6668	1457.0816	1479.4462	1496.8213	1841.5059	2237.2852	3031.764	3116.3355	3142.1904	3200.018	3237.7074	3503.7703	3532.4461
O=C1CNC2CC12C#C	O=C1CN[C@H]2C[C@@]12C#C	
InChI=1S/C7H7NO/c1-2-7-3-5(7)8-4-6(7)9/h1,5,8H,3-4H2	InChI=1S/C7H7NO/c1-2-7-3-5(7)8-4-6(7)9/h1,5,8H,3-4H2/t5-,7+/m0/s1
