19
gdb 26472	3.51249	1.30452	1.03531	0.4815	83.04	-0.2037	0.0225	0.2262	1181.2581	0.159904	-385.913967	-385.905828	-385.904884	-385.946756	31.769	
C	 0.1292673311	 1.4968394145	-0.1774451256	-0.475809
C	 0.0100988931	-0.0079374265	-0.0368896875	 0.236562
C	 1.2854977571	-0.8348513959	-0.0651072271	-0.296205
C	 0.5448216782	-0.6551753643	 1.2304663684	-0.296204
C	-1.2015019877	-0.582372918	-0.6499117656	 0.357041
C	-2.2520396623	-0.0371714746	-1.3263504649	-0.306269
C	-3.1240108256	-1.1223379487	-1.6745930311	-0.173064
C	-2.5416591705	-2.2442727227	-1.1859206717	-0.025523
O	-1.370590659	-1.9350839879	-0.5590608172	-0.194009
H	 1.0472139816	 1.8534234596	 0.2979452732	 0.114161
H	 0.1582641723	 1.7966438709	-1.2306883497	 0.122993
H	-0.7152143252	 2.0085026877	 0.2970020116	 0.12299
H	 1.2389397854	-1.8067178485	-0.5418657128	 0.125362
H	 2.2190621289	-0.3009827516	-0.2078341077	 0.110928
H	 0.9666445596	 0.0028197599	 1.9828321503	 0.110923
H	 0.0014653722	-1.5065107738	 1.622875658	 0.125356
H	-2.393519003	 1.0073962833	-1.5520477768	 0.104014
H	-4.0557146557	-1.0659062348	-2.2153944113	 0.107963
H	-2.8050592304	-3.2887756985	-1.1916102023	 0.128789
62.1295	160.4766	182.8954	232.0786	306.7304	321.0452	436.1453	438.1002	533.941	610.4737	704.7266	734.5742	788.2504	795.9982	829.265	838.2772	845.2093	901.5365	945.2878	946.685	959.7142	1031.9614	1044.8458	1070.5632	1080.7726	1108.3808	1118.1722	1144.1505	1197.1398	1198.4083	1241.2782	1316.4513	1341.8738	1410.2505	1422.9054	1460.5997	1487.273	1494.1585	1503.7238	1550.0434	1631.6265	3029.9425	3092.0218	3109.9431	3133.3931	3136.8816	3219.8349	3233.8943	3252.3784	3266.6389	3286.5261
CC1(CC1)C1=CC=CO1	CC1(CC1)c1ccco1	
InChI=1S/C8H10O/c1-8(4-5-8)7-3-2-6-9-7/h2-3,6H,4-5H2,1H3	InChI=1S/C8H10O/c1-8(4-5-8)7-3-2-6-9-7/h2-3,6H,4-5H2,1H3
