13
gdb 133161	2.35453	1.87611	1.05084	1.6725	66.49	-0.2616	-0.1004	0.1612	1026.4886	0.086868	-493.991521	-493.983731	-493.982787	-494.024117	28.268	
C	 0.1297991749	 1.5237610923	 0.0480267204	-0.488819
C	 0.0214290926	 0.0349350261	 0.0099650672	 0.019962
C	-0.1497152768	-0.6932400613	-1.1041713337	 0.320462
F	-0.2409088066	-0.1554695784	-2.3065337759	-0.045784
N	-0.2502814741	-2.0724064667	-1.1396887678	-0.164582
N	-0.1873428274	-2.7604234609	-0.116825113	 0.05953
O	-0.0046434864	-2.1002136188	 1.1369437406	-0.281451
C	 0.1023237147	-0.7219035529	 1.2543500114	 0.39103
N	 0.2619377002	-0.1682385494	 2.38225717	-0.519247
H	 1.0819974558	 1.8163900683	 0.5012328783	 0.164858
H	 0.0514916605	 1.9512246868	-0.9516359808	 0.141813
H	-0.6541594944	 1.9377289202	 0.6895989089	 0.164915
H	 0.294637637	-0.8589037452	 3.1325773043	 0.237314
105.2838	134.5281	145.2519	271.5025	276.8294	343.3662	487.9183	492.2531	512.9926	524.7928	652.3139	672.8595	748.7012	769.6933	862.9058	901.0898	924.5515	1025.2161	1055.5938	1137.855	1196.7345	1292.683	1377.4324	1414.8936	1470.6391	1473.3542	1598.596	1709.4017	1739.8982	3051.9335	3107.0164	3157.2315	3495.1827
CC1=C(F)N=NOC1=N	CC1=C(O[N]N=C1F)[NH]	
InChI=1S/C4H4FN3O/c1-2-3(5)7-8-9-4(2)6/h6H,1H3	InChI=1S/C4H4FN3O/c1-2-3(5)7-8-9-4(2)6/h6H,1H3
