17
gdb 99046	3.46263	0.78368	0.72732	3.3358	71.12	-0.2729	-0.005	0.2679	1565.265	0.134165	-455.185714	-455.175634	-455.17469	-455.222368	34.686	
C	 0.158190471	 1.7206352353	 0.1735844985	-0.389459
C	 0.0358290109	 0.2113340687	-0.0933920871	-0.106365
N	 0.6923508288	-0.194077303	-1.328933556	-0.322822
C	-0.0098849813	-0.6428226033	-2.4045844873	 0.401653
O	-1.2282237571	-0.7104918911	-2.4308035712	-0.381605
C	 0.8123698089	-1.0716856313	-3.6214860837	-0.146286
O	-0.0338480881	-1.437487801	-4.6681527929	-0.415398
C	 0.5658285417	-0.567883944	 1.0387372443	 0.268408
N	 1.0064730904	-1.1585205428	 1.9284966978	-0.310086
H	 1.2063628013	 2.0173100478	 0.2696822451	 0.135221
H	-0.2918069412	 2.2692021633	-0.6568720137	 0.145132
H	-0.3595860049	 1.9868329225	 1.0984958808	 0.148828
H	-1.0179273479	-0.0518648222	-0.2294849378	 0.176121
H	 1.7001174119	-0.1770389542	-1.3653943697	 0.264623
H	 1.4710315909	-0.2408323017	-3.919941398	 0.114507
H	 1.4665010471	-1.9069656785	-3.320556959	 0.119416
H	-0.9305897823	-1.3736620346	-4.3002548002	 0.298111
29.2263	62.3381	73.7737	144.4	182.9505	228.9962	275.1296	340.1159	360.1141	400.6681	431.2611	453.148	560.6611	586.5091	607.2387	717.0538	828.0894	924.6503	963.3241	1035.9013	1077.82	1107.9785	1136.703	1161.5532	1238.7025	1250.9986	1315.4368	1340.2062	1347.703	1411.021	1460.1431	1488.8612	1492.2443	1506.9827	1544.0715	1771.5138	2360.77	2971.4715	2995.8056	3051.0065	3081.0851	3129.9538	3140.197	3626.8877	3676.7687
CC(NC(=O)CO)C#N	C[C@@H](NC(=O)CO)C#N	
InChI=1S/C5H8N2O2/c1-4(2-6)7-5(9)3-8/h4,8H,3H2,1H3,(H,7,9)	InChI=1S/C5H8N2O2/c1-4(2-6)7-5(9)3-8/h4,8H,3H2,1H3,(H,7,9)/t4-/m1/s1
