14
gdb 48768	3.01147	1.45687	1.10492	4.554	63.73	-0.2652	-0.0494	0.2158	1040.8982	0.100814	-473.861032	-473.853687	-473.852742	-473.893044	27.613	
O	-0.0199179845	-0.0065092103	 0.1956280076	-0.269313
C	 0.0169863297	 1.1759233841	-0.0452545302	 0.089562
C	 1.2644554696	 1.9606546184	-0.030262885	 0.24898
C	 1.2872984345	 3.4626838961	 0.2620852785	-0.362077
C	 1.6792303035	 2.9819432801	-1.0932225664	 0.044655
O	 3.030842464	 2.7386932938	-1.3641203407	-0.237455
C	 3.4971214884	 1.6603744143	-0.6198258043	 0.481272
O	 4.6032365246	 1.2256256339	-0.7258794933	-0.366505
N	 2.4843657312	 1.272548937	 0.2354289265	-0.427531
H	-0.8975919372	 1.7621160165	-0.2783015144	 0.088191
H	 0.3249293558	 3.959008831	 0.3344426234	 0.139369
H	 2.0545775512	 3.8082801493	 0.9453157178	 0.153386
H	 1.0930892588	 3.20792987	-1.9757251476	 0.136063
H	 2.4567105103	 0.3271037957	 0.5853183481	 0.281402
108.8517	146.4174	211.5642	263.9899	367.1236	422.0416	452.4969	503.2654	545.9761	680.0058	711.147	756.6045	790.0762	842.7636	882.5303	922.8904	962.6066	1015.4195	1041.6747	1066.3582	1101.1911	1161.2938	1206.7586	1252.1993	1307.5868	1376.5021	1422.3497	1435.4797	1462.44	1804.6312	1914.0006	2905.7457	3135.6785	3191.6944	3236.2763	3644.7035
O=CC12CC1OC(=O)N2	O=C[C@]12C[C@H]1OC(=O)N2	
InChI=1S/C5H5NO3/c7-2-5-1-3(5)9-4(8)6-5/h2-3H,1H2,(H,6,8)	InChI=1S/C5H5NO3/c7-2-5-1-3(5)9-4(8)6-5/h2-3H,1H2,(H,6,8)/t3-,5-/m1/s1
