15
gdb 67208	2.94799	1.51558	1.2216	1.2509	70.42	-0.2326	0.0449	0.2775	1011.9266	0.111102	-420.506401	-420.498937	-420.497993	-420.538187	29.53	
O	-0.0500622705	 1.4839853393	-0.195939018	-0.442809
C	 0.0440305873	 0.1311138549	-0.0697409059	 0.324427
C	 0.1001305503	-1.0430444805	-0.9913973403	-0.040386
O	 1.1914628608	-1.6864345416	-0.3400301529	-0.274665
C	 0.8927544743	-0.890587888	 0.8282681735	-0.022669
C	-0.4609141498	-1.4961482346	 1.3391737371	-0.192924
C	-0.9572658065	-0.8901909632	 2.5580803859	 0.320319
C	-1.3502201746	-0.3881478836	 3.5775114403	-0.4526
C	-1.0512662933	-0.8993841081	 0.0528376409	-0.146365
H	 0.736443461	 1.8078856972	-0.6512162347	 0.297416
H	-0.0537903266	-1.1865159394	-2.0524234795	 0.119146
H	 1.7384940111	-0.7225222146	 1.4907384648	 0.101313
H	-0.4431351083	-2.5889652391	 1.4125794347	 0.105673
H	-1.7033882081	 0.0534176813	 4.4762661283	 0.195549
H	-2.090096297	-0.8177201302	-0.2381535642	 0.108574
103.7341	150.3719	266.5386	324.6837	369.2365	417.2007	483.2138	499.0321	563.7722	617.2767	620.3274	649.6943	768.0214	799.277	840.5529	876.1474	895.1328	934.99	980.2186	1002.2933	1030.0838	1047.4607	1061.7071	1097.631	1134.3346	1194.5052	1213.5811	1235.2451	1282.3305	1317.4103	1336.9772	1496.0752	2236.7684	3051.4818	3156.4838	3210.2331	3218.6735	3503.7819	3781.5133
OC12C3OC1C(C#C)C23	O[C@@]12[C@H]3O[C@@H]1[C@@H](C#C)[C@@H]23	
InChI=1S/C7H6O2/c1-2-3-4-6-7(4,8)5(3)9-6/h1,3-6,8H	InChI=1S/C7H6O2/c1-2-3-4-6-7(4,8)5(3)9-6/h1,3-6,8H/t3-,4+,5+,6-,7+/m0/s1
