23
gdb 111100	2.30695	1.3923	1.11283	1.7821	84.51	-0.2389	0.0791	0.318	1244.7176	0.206683	-388.276345	-388.267412	-388.266468	-388.309921	34.82	
C	-0.2531931435	 1.7786530066	 0.3426944874	-0.381536
C	 0.0007596598	 0.2665315983	 0.2775877827	-0.233004
C	-1.2927726484	-0.5162112714	 0.0882220874	 0.067389
C	-2.0019470123	-0.7077087851	-1.2779788844	 0.054895
C	-0.9632579401	-1.4225900564	-2.1707781781	-0.252611
C	-0.5730546708	-2.5611748034	-1.1677884014	 0.062897
C	 0.9126392341	-2.8101811705	-0.9134589429	-0.431624
C	-1.4427696303	-2.0625456428	 0.0125043559	 0.004258
O	-2.7149763667	-1.836568208	-0.679592816	-0.300639
H	 0.6793911644	 2.3323135403	 0.487419203	 0.113058
H	-0.7165340473	 2.142906544	-0.5807311458	 0.118063
H	-0.9250327677	 2.0312891757	 1.1701276643	 0.118051
H	 0.7117612492	 0.0594769365	-0.5273463718	 0.102879
H	 0.4860840642	-0.0613610279	 1.2061446366	 0.098998
H	-2.0453279672	-0.1631649307	 0.8004019465	 0.082465
H	-2.6534632801	 0.0433502967	-1.7261680629	 0.073408
H	-1.4185490928	-1.8033453729	-3.0874079075	 0.103857
H	-0.1212220895	-0.7803418923	-2.447748719	 0.095777
H	-1.0223715675	-3.5006276816	-1.5046743305	 0.083038
H	 1.4434567962	-1.9211151406	-0.5651316617	 0.119577
H	 1.0508547332	-3.5934893645	-0.1595047243	 0.113746
H	 1.407034482	-3.1504741689	-1.8295724902	 0.117735
H	-1.5239390787	-2.6925326914	 0.9001333628	 0.069323
68.0099	152.9339	175.8229	198.7955	224.0562	256.203	317.109	375.1321	432.6817	534.7191	570.2508	686.3743	726.8709	795.0036	820.1018	851.0669	867.9894	878.5411	920.6307	933.0383	964.4877	980.0611	1026.7972	1037.8185	1066.2428	1094.3561	1104.8027	1123.7741	1166.5429	1184.6757	1195.7599	1207.3451	1236.4139	1281.9159	1290.72	1296.2457	1313.9351	1336.414	1352.545	1372.4697	1405.7989	1413.5074	1417.6866	1479.4569	1494.1842	1499.6297	1500.5973	1501.8039	1507.3854	3025.1727	3031.7985	3034.6935	3051.2675	3055.4027	3058.6571	3075.6726	3090.8066	3100.6538	3105.5034	3106.2412	3108.7835	3116.0035	3123.7905
CCC1C2CC(C)C1O2	CC[C@H]1[C@H]2C[C@@H](C)[C@@H]1O2	
InChI=1S/C8H14O/c1-3-6-7-4-5(2)8(6)9-7/h5-8H,3-4H2,1-2H3	InChI=1S/C8H14O/c1-3-6-7-4-5(2)8(6)9-7/h5-8H,3-4H2,1-2H3/t5-,6+,7-,8+/m1/s1
