17
gdb 99192	5.21382	0.78474	0.73115	1.6682	65.36	-0.2631	-0.0065	0.2566	1515.4141	0.13418	-496.098427	-496.089201	-496.088256	-496.134314	31.438	
O	 0.1578440847	 1.2736947443	-0.3224719484	-0.417483
C	 0.0102082194	-0.0425804523	 0.1256309337	-0.143372
C	-1.4168171937	-0.5199983547	-0.0638646471	 0.408878
O	-2.2856741275	 0.1790517617	-0.5309600007	-0.371903
O	-1.5945272871	-1.7840833319	 0.3410263767	-0.24231
C	-2.9302130192	-2.2877245777	 0.2274586225	 0.083952
C	-3.3963946185	-2.7174629089	-1.1735974853	-0.084308
O	-3.6014099752	-4.0728054056	-0.7180130846	-0.270709
C	-3.0265858467	-3.7783934911	 0.5717651578	-0.101184
H	-0.7183776416	 1.5478887943	-0.6309058262	 0.298321
H	 0.6773249815	-0.7292304048	-0.4166538482	 0.128988
H	 0.2632047923	-0.1368402295	 1.1926685789	 0.127843
H	-3.6121852001	-1.6209605844	 0.7554393846	 0.117327
H	-4.3171445983	-2.2562314322	-1.543229487	 0.122812
H	-2.6148788372	-2.6473905061	-1.9401665467	 0.111707
H	-2.0481008478	-4.2531747298	 0.7151391475	 0.116514
H	-3.6935018451	-4.0510936812	 1.3963986625	 0.114928
42.6536	58.7229	79.3377	107.924	152.4845	291.0813	334.8825	347.2857	391.0628	486.4645	590.2775	712.3785	752.5608	881.7212	891.1311	926.0906	976.5752	1030.1025	1040.5048	1064.3505	1109.776	1130.598	1139.3672	1154.2968	1183.5646	1243.505	1253.1161	1264.8879	1307.2978	1318.0859	1357.719	1410.724	1467.236	1496.978	1501.0867	1526.9933	1803.0246	2995.9822	3017.2339	3021.6494	3032.4074	3076.986	3086.7612	3116.7876	3724.6145
OCC(=O)OC1COC1	OCC(=O)OC1COC1	
InChI=1S/C5H8O4/c6-1-5(7)9-4-2-8-3-4/h4,6H,1-3H2	InChI=1S/C5H8O4/c6-1-5(7)9-4-2-8-3-4/h4,6H,1-3H2
