18
gdb 71756	3.52057	1.87486	1.59379	0.703	73.55	-0.2274	0.0658	0.2932	886.7344	0.149807	-401.876449	-401.870059	-401.869115	-401.906806	27.029	
C	-0.0096496747	 1.5106612854	-0.1225337332	-0.521044
C	-0.0531141773	 0.01863441	-0.0143018413	 0.458203
O	 0.216724159	-0.7202072875	-1.2208424018	-0.331301
C	-0.3612106667	-1.8577587635	-0.5332782178	 0.07767
C	 0.6321511724	-2.2336207926	 0.5833503933	-0.078657
C	-0.277434917	-2.5781212661	 1.7824218841	-0.184876
N	-0.7086253699	-1.1349650836	 1.7824617816	-0.155818
C	 0.6390551107	-0.7733006713	 1.1508966118	-0.072811
C	-1.2254723862	-0.9104860751	 0.3903892233	-0.117589
H	 0.9995699098	 1.8453121525	-0.3858651692	 0.131453
H	-0.7007638779	 1.8649469219	-0.8926244902	 0.131154
H	-0.2850770765	 1.9665736005	 0.8329779924	 0.13691
H	-0.7546271229	-2.62460886	-1.1979547953	 0.083637
H	 1.5236397757	-2.7944142094	 0.3040370505	 0.074235
H	-1.0813589551	-3.309449623	 1.6413603486	 0.101942
H	 0.265666656	-2.8031610341	 2.704275179	 0.112192
H	 1.4385126546	-0.4012770166	 1.789899612	 0.076564
H	-2.2895410241	-0.7510250976	 0.2260773321	 0.078136
204.333	238.7123	255.4413	388.2121	499.3906	541.5264	586.8039	705.1198	764.8381	816.2704	826.7205	835.1881	862.889	868.445	895.5787	921.0763	927.1547	936.8552	978.7037	985.0339	1015.2366	1066.2003	1118.1235	1139.0114	1146.3946	1151.5289	1164.5877	1190.8103	1211.8507	1217.1923	1228.4876	1269.5665	1282.7243	1316.6095	1370.8893	1419.0492	1478.9529	1491.8152	1507.9289	3038.0952	3039.0514	3101.3208	3107.4178	3118.3678	3120.382	3131.4965	3132.1435	3144.3071
CC12OC3C4CN(C14)C23	C[C@@]12O[C@H]3[C@@H]4CN([C@H]14)[C@@H]23	
InChI=1S/C7H9NO/c1-7-5-3-2-8(5)6(7)4(3)9-7/h3-6H,2H2,1H3	InChI=1S/C7H9NO/c1-7-5-3-2-8(5)6(7)4(3)9-7/h3-6H,2H2,1H3/t3-,4-,5-,6+,7+/m0/s1
