16
gdb 36703	3.79986	1.06038	0.9212	3.7875	68.56	-0.2628	0.0064	0.2692	1234.9722	0.123253	-437.833779	-437.82564	-437.824696	-437.867665	29.358	
N	 0.307059577	-0.1508608877	 1.369775954	-0.308417
C	 0.1567933806	 0.5635994	 0.4743908919	 0.26592
C	-0.0427448129	 1.4820965181	-0.6660852406	-0.201995
O	 1.0762593764	 2.2752520402	-0.9599232862	-0.233771
C	 1.3656274551	 3.2759697287	-0.0095617169	 0.121524
C	 2.2554835375	 2.9401820488	 1.2506837562	-0.287544
C	 3.2208004528	 4.0247825273	 0.759723885	 0.024604
O	 3.6844479333	 3.5996770944	-0.5223563193	-0.230702
C	 2.4284828634	 4.2760301375	-0.4607570001	-0.01072
H	-0.2508998857	 0.8843483562	-1.5585108197	 0.164514
H	-0.9340690982	 2.0942114584	-0.4553526139	 0.139664
H	 0.4440266962	 3.7931130006	 0.2948000158	 0.082006
H	 1.7519992853	 3.1552561883	 2.1948316569	 0.114917
H	 2.6838119417	 1.9376865264	 1.2712735472	 0.138167
H	 3.8501510071	 4.6994919088	 1.3264998454	 0.113977
H	 2.3060059903	 5.1608087941	-1.0742049757	 0.107855
44.4756	79.4933	134.3928	209.9981	296.5267	365.4955	374.4472	431.9864	552.9799	628.5024	739.761	800.818	850.9731	868.9381	899.8417	920.3817	947.1587	998.0319	1020.3501	1035.6028	1052.6944	1079.1486	1137.7475	1172.5505	1212.2336	1241.2594	1243.8475	1288.4667	1296.6505	1380.2095	1387.395	1408.8613	1464.3384	1468.4492	2357.4303	2988.2101	3002.0558	3086.1145	3090.7449	3150.31	3187.856	3205.1117
N#CCOC1CC2OC12	N#CCO[C@H]1C[C@H]2O[C@@H]12	
InChI=1S/C6H7NO2/c7-1-2-8-4-3-5-6(4)9-5/h4-6H,2-3H2	InChI=1S/C6H7NO2/c7-1-2-8-4-3-5-6(4)9-5/h4-6H,2-3H2/t4-,5+,6-/m0/s1
