18
gdb 8110	2.98068	1.91995	1.46222	1.428	67.87	-0.2408	0.0701	0.3109	912.1478	0.152605	-384.902748	-384.894447	-384.893502	-384.934803	31.773	
C	-0.0972947514	 1.5611071996	 0.049461757	-0.414876
C	 0.0935711811	 0.0576776883	 0.0579645852	-0.065685
C	 1.3763736338	-0.697857056	-0.2531876094	-0.144315
C	 2.6141611981	-0.051073392	 0.3534267275	 0.126935
O	 2.9844824811	 1.1845189274	-0.2254567313	-0.427561
C	 1.9377691834	-0.0643451366	 1.7713639968	-0.35309
C	 0.7319248159	-0.7681156596	 1.1353452939	 0.369696
O	 0.1191941278	-1.8770576777	 1.698175814	-0.459473
H	 0.7765973562	 2.0888948352	 0.4313401431	 0.134753
H	-0.2661615721	 1.9174988898	-0.9723974397	 0.118295
H	-0.9706336157	 1.8459410425	 0.6483947969	 0.100721
H	-0.7499870592	-0.4879165226	-0.3645171157	 0.086395
H	 1.3993207641	-1.44679801	-1.0356488717	 0.087167
H	 3.4590455869	-0.7521967906	 0.3335858416	 0.076427
H	 3.7864160908	 1.4899684071	 0.2106171803	 0.282616
H	 2.4646175318	-0.7090780393	 2.4783584936	 0.105051
H	 1.7571771272	 0.9115919428	 2.2324924378	 0.092171
H	-0.6308065498	-1.5739974184	 2.2213005301	 0.284772
134.0176	181.4492	209.9952	222.7902	274.2727	293.4424	315.1186	388.8992	441.0545	487.3288	571.3002	666.4368	690.5639	757.0833	848.9802	921.3877	953.9493	973.7845	979.0669	1007.7074	1056.5493	1102.1364	1123.2941	1134.7096	1163.5863	1211.0127	1223.4776	1245.9495	1261.5427	1326.8352	1328.0093	1343.7294	1415.9724	1423.9763	1461.7849	1488.1488	1502.7441	1507.9072	3006.1427	3029.8434	3050.6801	3085.1779	3113.4462	3113.6771	3152.478	3184.2387	3796.3928	3813.6131
CC1C2C(O)CC12O	C[C@H]1[C@H]2[C@@H](O)C[C@@]12O	
InChI=1S/C6H10O2/c1-3-5-4(7)2-6(3,5)8/h3-5,7-8H,2H2,1H3	InChI=1S/C6H10O2/c1-3-5-4(7)2-6(3,5)8/h3-5,7-8H,2H2,1H3/t3-,4-,5-,6+/m0/s1
