18
gdb 59161	2.85599	1.18818	1.0939	2.9587	72.59	-0.246	-0.0262	0.2198	1184.3591	0.146127	-439.048343	-439.039581	-439.038637	-439.082077	32.804	
C	 0.473584091	 0.4143890171	-1.402275084	-0.409472
C	 0.013041886	 0.0890893331	 0.0189537686	 0.09508
O	 0.1106189875	 1.2162429491	 0.8839938479	-0.424755
C	-1.4084384609	-0.462886974	 0.0077564967	-0.018401
C	-1.7736632791	-1.9102648488	 0.1149013009	-0.186947
N	-2.154568798	-0.8813042637	 1.1917634662	-0.140545
C	-1.1606904864	-1.5052832395	 2.1411437514	-0.294916
C	-0.8695631203	-2.6021157535	 1.0989763107	 0.401865
O	-0.3422825396	-3.6757479697	 1.1302979317	-0.304703
H	 1.484787758	 0.8275725917	-1.3811065274	 0.132897
H	 0.4729925999	-0.4818984961	-2.0308266553	 0.129186
H	-0.1898284193	 1.1537576116	-1.8674546019	 0.111378
H	 0.7043389139	-0.6412237787	 0.4479422805	 0.107871
H	-0.5341623268	 1.8737290299	 0.5988710999	 0.284396
H	-2.0646732297	 0.0854615695	-0.6707263746	 0.102424
H	-2.4900647755	-2.3841022106	-0.5473356033	 0.12081
H	-0.36469312	-0.8368298037	 2.4727403098	 0.153147
H	-1.6810384606	-1.9230017036	 3.0072217222	 0.140685
60.1704	96.7226	177.9761	238.3184	260.1477	271.0532	347.6307	406.3822	446.1832	477.2917	558.3497	584.5161	664.6519	750.3343	801.8618	866.328	906.009	925.3873	971.2599	1001.845	1028.0337	1054.191	1075.2248	1090.6081	1118.4449	1138.0742	1180.1861	1239.3218	1248.9572	1279.1092	1309.5553	1341.7463	1405.0285	1419.6943	1435.5466	1472.9906	1490.7953	1495.0046	1891.2502	3029.1129	3071.3794	3075.1642	3092.1473	3103.6267	3127.4373	3138.2406	3181.1513	3797.92
CC(O)C1C2N1CC2=O	C[C@@H](O)[C@H]1[C@@H]2N1CC2=O	
InChI=1S/C6H9NO2/c1-3(8)5-6-4(9)2-7(5)6/h3,5-6,8H,2H2,1H3	InChI=1S/C6H9NO2/c1-3(8)5-6-4(9)2-7(5)6/h3,5-6,8H,2H2,1H3/t3-,5+,6-,7?/m1/s1
