17
gdb 49566	2.17766	1.76123	1.16905	2.9506	73.31	-0.2331	-0.025	0.2082	1060.6303	0.135885	-417.929582	-417.921636	-417.920692	-417.962752	29.86	
O	 0.0260909667	-0.0394704814	 0.1139557912	-0.269666
C	 0.0602604271	 1.1303123946	-0.1857094733	 0.147086
C	 1.2995534317	 1.9793912127	-0.069621841	-0.181189
C	 1.3764561577	 3.2777921341	-0.8964786763	-0.075595
N	 0.2241741091	 4.1100054997	-0.4728886561	-0.337203
C	 1.4737462961	 4.1189653834	 0.3284617406	-0.143059
C	 1.3918737397	 2.8857204819	 1.2056469687	 0.383596
C	 0.7986907674	 2.677885134	 2.5408819297	-0.30071
N	 2.2656375552	 2.6431265094	 2.3357805354	-0.375817
H	-0.8427338805	 1.6712755242	-0.5344936664	 0.101186
H	 2.1918792334	 1.3540936949	-0.1595714837	 0.100309
H	 1.8366558871	 3.4035566913	-1.867648086	 0.106503
H	 0.2275241727	 4.9488630359	-1.052383472	 0.236795
H	 2.0239960399	 5.0307192742	 0.5207748716	 0.110912
H	 0.4356311232	 3.5241544055	 3.116716626	 0.125198
H	 0.2789280094	 1.7404971136	 2.7214675884	 0.131402
H	 2.6016504941	 1.682733152	 2.333762603	 0.240254
47.248	116.0741	199.0703	208.8545	284.5176	365.3476	451.6415	492.4793	528.3195	610.2037	770.1711	826.2301	837.0088	858.3052	878.8588	920.4065	939.0386	979.9513	980.3432	1021.3568	1035.2898	1057.0755	1099.7365	1100.6188	1117.1489	1132.6308	1177.139	1234.4718	1247.1481	1261.4218	1301.1973	1322.458	1356.5485	1418.9976	1433.9978	1514.1885	1809.2064	2933.1214	3084.1374	3110.9056	3198.3261	3199.3517	3211.7482	3478.4945	3495.7133
O=CC1C2NC2C11CN1	O=C[C@H]1[C@H]2N[C@H]2[C@]21CN2	
InChI=1S/C6H8N2O/c9-1-3-4-5(8-4)6(3)2-7-6/h1,3-5,7-8H,2H2	InChI=1S/C6H8N2O/c9-1-3-4-5(8-4)6(3)2-7-6/h1,3-5,7-8H,2H2/t3-,4+,5+,6+/m0/s1
