16
gdb 30593	4.51461	1.01729	0.83872	2.7886	73.8	-0.2595	-0.0615	0.198	1329.0126	0.124168	-437.941785	-437.933402	-437.932458	-437.975882	29.433	
C	-0.0784276117	 1.4889685079	 0.1330969364	-0.382849
C	 0.0259947874	-0.0245294042	-0.0337568671	-0.290157
C	 0.7539007782	-0.4309246133	-1.3044322597	 0.275137
O	 1.2034637093	 0.3714277209	-2.0987259799	-0.317086
C	 0.9098870128	-1.8702695925	-1.5642658469	 0.255451
C	 1.492316738	-2.5721834241	-2.5777046577	-0.150048
N	 1.3634791754	-3.926355847	-2.3390203654	-0.25366
C	 0.7207789333	-3.9858391419	-1.2136501276	 0.077853
O	 0.4065332138	-2.7937003799	-0.6749492861	-0.172476
H	 0.9127857017	 1.9479135245	 0.1665236541	 0.133724
H	-0.6156562698	 1.9386183781	-0.7056318597	 0.133688
H	-0.6073377537	 1.7365448964	 1.0573364792	 0.111588
H	 0.5451154381	-0.4881308738	 0.8158282623	 0.130746
H	-0.9651800133	-0.4973792616	-0.0461909231	 0.130722
H	 1.9893249069	-2.1833497443	-3.4513893336	 0.156213
H	 0.4132961937	-4.864040895	-0.6671090349	 0.161155
54.7614	77.1678	138.4691	169.3546	206.7025	277.0436	367.0822	488.5879	537.7144	661.6613	670.7093	712.7621	810.8521	860.1943	912.3305	919.0428	944.0645	994.2753	1037.9	1089.2328	1099.8482	1129.8261	1155.5565	1242.8249	1271.4035	1275.7	1344.3441	1377.0818	1413.5425	1448.2266	1490.7694	1497.0161	1510.5973	1606.1778	1770.3626	3026.1215	3052.1805	3052.98	3124.9519	3128.6411	3274.2995	3281.1988
CCC(=O)C1=CN=CO1	CCC(=O)c1cnco1	
InChI=1S/C6H7NO2/c1-2-5(8)6-3-7-4-9-6/h3-4H,2H2,1H3	InChI=1S/C6H7NO2/c1-2-5(8)6-3-7-4-9-6/h3-4H,2H2,1H3
