19
gdb 102745	2.88589	1.01399	0.8454	3.3809	76.49	-0.2296	0.0246	0.2542	1389.6853	0.158824	-419.181832	-419.172205	-419.171261	-419.217357	34.783	
O	-0.2100046795	 0.9073659164	 0.863975308	-0.420379
C	-0.416329816	-0.3974271978	 0.3603654724	-0.076854
C	-1.8283420551	-0.5393096403	-0.2670894467	-0.134037
N	-2.9353714798	-0.1657848001	 0.6098294643	-0.28549
C	-3.2325207227	-1.1160731695	 1.6523847386	 0.064014
C	-2.5039735116	-1.1636862655	 2.9846154832	-0.280725
C	-3.9235621798	-0.6443832999	 2.8933441617	-0.296137
C	-1.8756564051	 0.2994563964	-1.4797435988	 0.266884
N	-1.8426040239	 0.9924396757	-2.4040453186	-0.321328
H	-0.1116133024	 1.5061321712	 0.114300714	 0.301141
H	 0.3488813195	-0.6852290386	-0.3741368892	 0.110765
H	-0.3465835979	-1.0753013865	 1.2135315921	 0.132451
H	-1.9706269844	-1.5829605527	-0.5750183521	 0.127442
H	-2.7397533668	 0.7500997345	 1.0028527223	 0.231072
H	-3.5640393508	-2.068801334	 1.2464010212	 0.098916
H	-2.33153597	-2.1260281701	 3.455487832	 0.112924
H	-1.7227276599	-0.4305246411	 3.1549378683	 0.128271
H	-4.0741189162	 0.4246227491	 3.0075084076	 0.120013
H	-4.7305007377	-1.2462955672	 3.2951760296	 0.121057
36.209	80.2578	113.6227	135.7625	196.765	251.8646	293.0337	372.7422	397.9984	415.7841	474.1015	565.6626	687.8646	727.9902	768.3161	805.954	827.5732	892.9575	906.0885	944.3555	994.1948	1030.4833	1055.5352	1078.9591	1094.3623	1125.0221	1128.4148	1197.126	1199.0618	1216.6034	1242.2335	1285.2134	1327.3586	1383.3393	1398.5456	1416.5852	1463.6426	1495.1174	1497.0255	1518.5612	2355.6551	3011.1723	3042.9005	3115.7893	3127.2717	3133.0075	3136.8762	3209.4726	3224.4008	3521.2202	3795.4181
OCC(NC1CC1)C#N	OC[C@@H](NC1CC1)C#N	
InChI=1S/C6H10N2O/c7-3-6(4-9)8-5-1-2-5/h5-6,8-9H,1-2,4H2	InChI=1S/C6H10N2O/c7-3-6(4-9)8-5-1-2-5/h5-6,8-9H,1-2,4H2/t6-/m0/s1
