18
gdb 73767	2.10998	1.95373	1.1062	5.5359	81.67	-0.2068	-0.0167	0.1901	1098.185	0.148245	-401.987928	-401.979356	-401.978412	-402.020911	32.74	
C	 0.0145861401	 1.5434410038	-0.0366313437	-0.533914
C	-0.0152929387	 0.0484228438	 0.0340310171	 0.086981
C	-1.1042259064	-0.7692924244	 0.0593829652	 0.288927
N	-2.4171284346	-0.4030955343	 0.1067845072	-0.591164
C	-0.72816586	-2.2174498686	 0.0408914821	-0.145024
C	 0.0025408234	-2.6712751605	-1.2086062192	-0.282503
C	 0.7744042872	-2.2301582474	 0.0168304293	-0.150686
C	 1.2031387425	-0.7683630503	 0.0466455232	 0.347943
O	 2.3532316456	-0.3746400964	 0.0694334539	-0.371842
H	 1.047207652	 1.8687757906	-0.1903065267	 0.153358
H	-0.59334453	 1.9388017363	-0.8617992643	 0.106877
H	-0.3458979807	 2.0133733578	 0.8873806291	 0.122388
H	-2.6510337857	 0.5564560156	-0.0950013727	 0.261637
H	-3.1097591349	-1.0782861974	-0.1737908605	 0.259187
H	-1.3104911831	-2.9290712166	 0.615386954	 0.098486
H	-0.0005994077	-3.7337932432	-1.4325575084	 0.118431
H	-0.0142977956	-2.0193227258	-2.0755872648	 0.12443
H	 1.3635456867	-2.9587138229	 0.5584540294	 0.106487
88.9275	128.1651	210.4336	217.5846	231.2657	318.5856	373.6387	399.4834	474.4274	498.0815	563.7525	641.1138	681.5565	695.5842	772.4202	811.5469	833.3376	927.3834	950.1685	964.7711	985.3435	1057.4704	1068.3391	1072.2854	1096.4003	1114.0663	1186.7853	1220.5878	1262.9653	1324.7882	1327.9346	1396.5125	1437.7799	1477.9272	1488.378	1497.5932	1639.1227	1684.2829	1785.637	3005.1561	3050.4513	3112.7294	3123.1415	3173.975	3202.5858	3216.1903	3584.356	3697.2061
CC1=C(N)C2CC2C1=O	CC1=C(N)[C@H]2C[C@H]2C1=O	
InChI=1S/C7H9NO/c1-3-6(8)4-2-5(4)7(3)9/h4-5H,2,8H2,1H3	InChI=1S/C7H9NO/c1-3-6(8)4-2-5(4)7(3)9/h4-5H,2,8H2,1H3/t4-,5+/m0/s1
