16
gdb 97281	2.69386	1.11762	0.81546	1.6839	70.95	-0.2346	-0.0364	0.1983	1342.1544	0.122681	-471.246843	-471.237315	-471.23637	-471.281666	34.14	
N	-0.157344559	 1.471292638	-0.3724317295	-0.505711
C	-0.2920683101	 0.1109633693	-0.4116477076	 0.133961
N	-1.0569438415	-0.5117582077	 0.3962700567	-0.256718
C	-1.113387788	-1.9447032198	 0.3109567187	-0.177213
C	-1.9744894824	-2.4465609043	 1.4681547133	 0.153993
O	-2.3206764411	-3.5914309008	 1.6418789996	-0.272501
C	-1.5775935796	-2.4808163482	-1.0887833917	 0.382914
N	-1.8793792769	-3.8018659652	-1.1006689542	-0.515774
O	-1.5746439814	-1.7680983625	-2.0707179412	-0.354706
H	 0.1689608415	 1.9298113984	-1.2070152087	 0.260538
H	-0.8672075354	 1.9676385955	 0.146538049	 0.257828
H	 0.3462011694	-0.3692225008	-1.1585893114	 0.110579
H	-0.1300347954	-2.4277398206	 0.4633722562	 0.130385
H	-2.2539096117	-1.6356722369	 2.1695107774	 0.114836
H	-2.0535138718	-4.2745696189	-0.2228847017	 0.278338
H	-2.2483554868	-4.1834615455	-1.957235535	 0.259251
62.1083	96.3964	124.9243	147.3516	204.2603	259.2863	347.6458	395.6465	417.3329	434.3578	449.3594	485.2035	558.9901	600.2612	642.7372	714.4547	728.8643	744.5025	984.9867	1013.3391	1035.5917	1068.4872	1143.9195	1186.0402	1210.0235	1270.3124	1314.226	1324.4736	1384.1626	1422.0336	1619.1019	1628.2577	1748.498	1804.779	1812.0324	2933.5594	2950.5741	3088.6157	3525.8566	3578.7866	3685.3004	3704.0013
NC=NC(C=O)C(N)=O	NC=N[C@@H](C=O)C(=O)N	
InChI=1S/C4H7N3O2/c5-2-7-3(1-8)4(6)9/h1-3H,(H2,5,7)(H2,6,9)	InChI=1S/C4H7N3O2/c5-2-7-3(1-8)4(6)9/h1-3H,(H2,5,7)(H2,6,9)/t3-/m0/s1
