19
gdb 122739	11.17396	0.38727	0.37782	4.3	85.98	-0.2635	-0.0583	0.2053	2749.4695	0.155613	-422.99438	-422.983344	-422.9824	-423.033418	35.755	
C	 0.0090007948	 1.4003152228	 0.0095198766	-0.231279
O	 0.0173519023	-0.0075536149	 0.0016863146	-0.231625
C	-1.2753759543	-0.5649030866	 0.0111400063	-0.050669
C	-1.1420543891	-2.0821841848	 0.0016606163	-0.19141
C	-2.5163567741	-2.7778730582	 0.0109462625	-0.368307
C	-2.4318678778	-4.229983749	 0.0023747255	 0.065194
C	-2.3600111922	-5.4360190054	-0.0044639669	 0.071161
C	-2.2381426584	-6.870049708	-0.0123975838	 0.01652
O	-3.1714743122	-7.6402229786	-0.0096763847	-0.230009
H	 1.0494742385	 1.7331815074	 0.0013707761	 0.130505
H	-0.5031513498	 1.8111076128	-0.8751209439	 0.105211
H	-0.4860423964	 1.8012854525	 0.9082929846	 0.105209
H	-1.8337948951	-0.2332147343	 0.9051189486	 0.085969
H	-1.8509118035	-0.2236443951	-0.8682661642	 0.085972
H	-0.5779116838	-2.3873796021	-0.885083255	 0.124421
H	-0.5611894503	-2.3969250226	 0.8741512854	 0.12441
H	-3.0908880191	-2.4653543123	 0.893753309	 0.145713
H	-3.1075051024	-2.4559128701	-0.8573576826	 0.145695
H	-1.1904517971	-7.2347383635	-0.0215383143	 0.097319
21.1343	47.7848	54.3387	90.961	118.8069	147.6927	189.1138	198.2285	230.2056	349.0831	406.7588	407.6364	533.3804	603.0807	748.9485	831.2995	861.3665	979.6408	1022.5148	1040.5157	1069.705	1109.8414	1158.7555	1168.4253	1179.7699	1222.2686	1223.6464	1278.4141	1295.8346	1309.0911	1368.1108	1423.3007	1429.7113	1459.8746	1481.4765	1485.3399	1496.0758	1505.5962	1531.67	1767.2715	2331.4608	2914.7664	2935.286	2959.9459	2970.6888	3012.7685	3013.746	3041.2007	3057.9382	3104.6285	3117.1997
COCCCC#CC=O	COCCCC#CC=O	
InChI=1S/C7H10O2/c1-9-7-5-3-2-4-6-8/h6H,3,5,7H2,1H3	InChI=1S/C7H10O2/c1-9-7-5-3-2-4-6-8/h6H,3,5,7H2,1H3
