21
gdb 120213	3.78808	1.00607	0.97452	0.8651	83.73	-0.2229	0.0135	0.2363	1335.752	0.183444	-387.040293	-387.031947	-387.031003	-387.073768	32.159	
C	 0.6131063187	 1.4212096723	-0.002700804	-0.220685
O	 0.738563544	 0.0276539158	-0.1359945285	-0.236351
C	-0.1870681357	-0.5216292434	-1.0560265265	-0.104024
C	 0.0334251515	-2.0179737655	-1.0973360217	 0.039088
C	-0.6567273349	-2.9235332597	-2.1814384052	-0.097871
C	-0.0798573396	-2.3355484008	-3.4803807697	-0.084913
C	 1.2126153236	-2.1602155725	-3.1917344303	-0.080428
C	 1.3235633713	-2.6519711374	-1.7419459163	-0.070047
C	 0.4677881263	-3.9637165148	-1.8395603218	-0.214299
H	 0.7861386677	 1.9431435612	-0.9578332648	 0.10099
H	-0.3850220874	 1.7102027161	 0.3651911486	 0.099718
H	 1.3633443432	 1.7522891738	 0.7201250606	 0.123366
H	-1.2209987896	-0.3054769394	-0.7317163933	 0.077146
H	-0.0549039373	-0.0713222711	-2.0509902743	 0.087961
H	-0.1251048699	-2.4224218568	-0.0916657547	 0.077917
H	-1.7174395773	-3.1722648983	-2.1435384925	 0.057746
H	-0.6265949265	-2.131954136	-4.3900684742	 0.096942
H	 2.0154808771	-1.7677777027	-3.7992348674	 0.09771
H	 2.2915522956	-2.6174113501	-1.2449983262	 0.065899
H	 0.3231213556	-4.4683532196	-0.8790224236	 0.092508
H	 0.7367746137	-4.6758716411	-2.6225213441	 0.091629
68.7867	90.9788	131.2092	224.9914	285.4288	343.5171	367.3052	494.2627	554.2448	615.5932	718.064	746.48	799.1033	835.1328	843.1033	855.2881	914.6014	922.2511	942.1486	981.6299	998.5449	1033.7734	1051.1202	1096.5651	1104.5427	1117.9701	1150.2108	1165.1018	1175.3836	1188.3014	1222.9681	1225.9887	1233.4213	1251.6212	1260.2315	1280.9724	1333.4932	1376.0973	1433.3787	1480.3025	1484.743	1499.5634	1503.3233	1528.4178	1624.057	2942.9062	2964.7871	3004.2856	3007.7437	3046.6031	3059.1098	3108.1156	3113.9536	3121.5683	3133.0398	3219.4448	3246.7469
COCC1C2C=CC1C2	COC[C@H]1[C@H]2C=C[C@@H]1C2	
InChI=1S/C8H12O/c1-9-5-8-6-2-3-7(8)4-6/h2-3,6-8H,4-5H2,1H3	InChI=1S/C8H12O/c1-9-5-8-6-2-3-7(8)4-6/h2-3,6-8H,4-5H2,1H3/t6-,7+,8-
