20
gdb 15652	2.82018	1.77978	1.21883	1.4045	75.75	-0.2333	0.0295	0.2628	1038.1062	0.177626	-349.012323	-349.003907	-349.002963	-349.045049	31.793	
C	-0.6725730879	 1.3305295638	-0.0501402979	-0.412806
C	 0.0885541803	 0.0041324832	-0.050126953	 0.017266
C	 1.2831625919	-0.0512028079	-1.0398860023	-0.259881
C	 2.2214322783	-1.03603345	-0.3853472552	-0.071712
C	 1.8872112745	-1.2776250657	 0.8811130772	-0.058695
C	 0.677016343	-0.4768498727	 1.3152659877	-0.040105
C	 1.0754530015	 0.6399933992	 2.2871893948	-0.080697
O	 1.6074679457	 0.0157025778	 3.4488895035	-0.42532
H	-0.0277500963	 2.173477747	 0.2214393705	 0.114731
H	-1.0767550213	 1.5395142772	-1.046504203	 0.111236
H	-1.5157588743	 1.3139285407	 0.6488111094	 0.113405
H	-0.6102922058	-0.7810892575	-0.3630230924	 0.079992
H	 0.9689160671	-0.3523272764	-2.0462405712	 0.098109
H	 1.7638923615	 0.9325920884	-1.1532356365	 0.097744
H	 3.0793215065	-1.4580190679	-0.8980746505	 0.086839
H	 2.4280845293	-1.9162239784	 1.568642626	 0.100707
H	-0.0495948751	-1.1008044549	 1.8509897613	 0.076668
H	 1.8206100602	 1.3004599344	 1.8158024574	 0.084926
H	 0.1966189144	 1.2529120546	 2.5396199955	 0.082623
H	 1.8849344167	 0.704442265	 4.0595535788	 0.28497
86.0029	125.2678	194.9577	243.2893	259.3788	275.5633	305.5439	385.0876	488.5325	509.9183	629.0473	740.8608	771.6253	814.6334	867.2831	928.1077	952.6565	977.8326	986.0458	1002.1145	1055.7306	1076.0714	1093.5887	1117.8808	1133.694	1170.5197	1181.6113	1239.2199	1247.4362	1291.6282	1311.6749	1334.6697	1360.7943	1369.0132	1375.6683	1412.7851	1451.3718	1489.9652	1498.5528	1502.436	1520.8157	1685.2255	2966.8125	2991.5702	2998.2444	3017.6047	3028.1075	3032.5247	3050.5579	3092.4173	3096.1493	3182.8315	3217.2021	3830.7294
CC1CC=CC1CO	C[C@H]1CC=C[C@H]1CO	
InChI=1S/C7H12O/c1-6-3-2-4-7(6)5-8/h2,4,6-8H,3,5H2,1H3	InChI=1S/C7H12O/c1-6-3-2-4-7(6)5-8/h2,4,6-8H,3,5H2,1H3/t6-,7-/m0/s1
