22
gdb 96272	2.05011	1.52737	0.95419	3.8244	82.7	-0.234	0.0362	0.2702	1285.5536	0.196461	-404.406505	-404.39752	-404.396576	-404.440156	34.748	
C	-0.0049757357	 1.5793051738	 0.0035679926	-0.39831
C	-0.0054788697	 0.0442660537	-0.0074888031	 0.031828
C	 0.6557397004	-0.4707554665	-1.2983027358	-0.179228
C	 0.6414951434	-1.989429819	-1.514457749	-0.199828
C	 1.3780846193	-2.7949514239	-0.4342627935	-0.16543
N	 0.6572209978	-2.913150698	 0.8236160349	-0.284301
C	 0.269862356	-1.9073479634	 1.6651722324	 0.361083
O	-0.3767549879	-2.1402148191	 2.6717456441	-0.36964
C	 0.6774381576	-0.4919040502	 1.2740888584	-0.302369
H	 1.0190730073	 1.9712930719	 0.0236606581	 0.113469
H	-0.4969650658	 1.9810903269	-0.8883922323	 0.111299
H	-0.5276880697	 1.9691720221	 0.8823272707	 0.118951
H	-1.0514730871	-0.2926318833	 0.0045355523	 0.084568
H	 0.1651185065	 0.0064410319	-2.15543859	 0.095374
H	 1.69877617	-0.1207116954	-1.3145782975	 0.091649
H	-0.3906043986	-2.3558216502	-1.5796866623	 0.102752
H	 1.1147022234	-2.2052850536	-2.4803777431	 0.097016
H	 1.5440681763	-3.8146264755	-0.7922157342	 0.111396
H	 2.3749535777	-2.3615318164	-0.2674672501	 0.110475
H	 0.3383495098	-3.8259728836	 1.1109429441	 0.244046
H	 1.7682616385	-0.4289074141	 1.1587107938	 0.103601
H	 0.4026156706	 0.1280711817	 2.1295765294	 0.121596
68.7367	125.1473	176.2572	225.0808	286.3154	295.5727	337.5617	381.922	408.421	479.841	498.4872	520.023	599.2689	685.3684	791.396	830.9893	856.3886	876.98	934.8392	947.3921	965.0018	1006.5206	1039.4205	1084.2564	1108.1466	1141.7026	1158.8486	1187.8606	1256.7266	1261.7787	1304.5473	1314.6524	1342.37	1356.793	1372.3626	1389.9315	1396.8921	1412.6751	1414.0148	1462.1618	1471.4391	1478.8843	1489.1518	1497.4773	1499.5666	1502.0616	1782.7132	2995.8418	3000.39	3007.9355	3021.1375	3022.6904	3027.6446	3050.8336	3067.5467	3087.6742	3092.1377	3103.7381	3112.8387	3621.8958
CC1CCCNC(=O)C1	C[C@H]1CCCNC(=O)C1	
InChI=1S/C7H13NO/c1-6-3-2-4-8-7(9)5-6/h6H,2-5H2,1H3,(H,8,9)	InChI=1S/C7H13NO/c1-6-3-2-4-8-7(9)5-6/h6H,2-5H2,1H3,(H,8,9)/t6-/m0/s1
