21
gdb 86069	2.23353	1.26887	0.83834	3.7954	89.15	-0.2405	-0.0482	0.1923	1405.8376	0.181568	-387.137113	-387.127604	-387.12666	-387.17141	35.227	
C	-0.7345933197	 1.2975340332	-0.0174086798	-0.404609
C	 0.1886196465	 0.0812192782	 0.0081827641	 0.033453
C	 1.1930749989	 0.0070232931	-1.1690448525	-0.305154
C	 2.3928920012	-0.7090621788	-0.5906733783	 0.229547
C	 3.461398023	-1.2423767542	-1.4901225462	-0.501264
C	 2.3259186222	-0.7255054591	 0.7581689658	 0.143145
C	 1.0825670539	-0.029286616	 1.2681605303	-0.316197
C	 3.3147970724	-1.2900526595	 1.6726200257	 0.058987
O	 3.2192085778	-1.2415091058	 2.8825761549	-0.278201
H	-0.1575890949	 2.2288860524	 0.0207838896	 0.11391
H	-1.3438300972	 1.3193223445	-0.927438319	 0.112301
H	-1.4167378011	 1.2942095029	 0.8390602682	 0.118391
H	-0.4275944932	-0.8257908508	-0.0359514525	 0.079625
H	 0.7864522791	-0.4961844746	-2.0546328122	 0.10581
H	 1.494479869	 1.012756635	-1.5034006879	 0.111063
H	 3.872741989	-0.4365657068	-2.1115872817	 0.137449
H	 4.287150621	-1.7115433259	-0.9531331037	 0.136693
H	 3.0408122679	-1.9802963527	-2.1848418133	 0.136958
H	 1.339724937	 0.9628180862	 1.6658662015	 0.109125
H	 0.6068216307	-0.5722149483	 2.0897191494	 0.119242
H	 4.1882241967	-1.787872973	 1.1989505175	 0.059724
85.199	119.8726	161.6756	178.733	194.8299	247.4881	267.4778	326.7936	355.6172	412.8538	502.1785	510.5165	563.6296	624.0188	794.2839	843.7674	892.8089	917.0024	931.0934	956.5204	996.9944	1039.1284	1067.2356	1075.2012	1114.2839	1150.7118	1179.504	1205.2476	1233.3627	1244.1021	1305.4751	1341.4515	1367.1568	1374.8777	1410.7479	1412.1867	1432.1495	1472.7818	1478.6162	1481.1726	1492.0095	1498.075	1500.9012	1689.0251	1768.2451	2890.8343	2984.525	3008.8215	3020.2954	3022.839	3027.2582	3049.9059	3066.6502	3085.3191	3093.9426	3098.5724	3133.3675
CC1CC(C)=C(C1)C=O	C[C@H]1CC(=C(C1)C=O)C	
InChI=1S/C8H12O/c1-6-3-7(2)8(4-6)5-9/h5-6H,3-4H2,1-2H3	InChI=1S/C8H12O/c1-6-3-7(2)8(4-6)5-9/h5-6H,3-4H2,1-2H3/t6-/m0/s1
