12
gdb 23667	3.75976	1.76268	1.20006	1.2548	59.14	-0.2475	-0.0136	0.2339	874.174	0.084066	-430.657847	-430.651945	-430.651	-430.687955	23.027	
F	 0.009796775	 0.0239258973	 0.0034992956	-0.080621
C	-0.0149122856	 1.35929702	 0.0105657302	 0.342368
C	-1.2393494811	 2.0137795128	 0.03052821	-0.257646
C	-1.2462240514	 3.406384645	 0.0376490186	-0.071148
C	-0.0570162781	 4.1310061941	 0.0251308307	-0.257647
C	 1.1424436576	 3.4317968123	 0.0052923379	 0.342369
F	 2.2922805822	 4.1112104973	-0.0069248039	-0.080621
C	 1.1922610081	 2.0445467368	-0.0023909984	-0.406761
H	-2.1547960382	 1.4356177258	 0.0400637824	 0.114549
H	-2.1928140078	 3.9350324253	 0.0531922907	 0.114434
H	-0.044981346	 5.2137024799	 0.030430715	 0.114549
H	 2.1369991352	 1.5169349335	-0.0179034589	 0.126176
234.8392	249.4475	330.7007	468.882	478.538	514.5424	527.0342	622.9065	692.4009	749.3739	791.0561	871.7821	886.5569	960.7662	976.4326	1015.6181	1089.4907	1150.5869	1185.348	1280.7903	1325.8611	1348.5688	1486.4489	1522.9941	1645.55	1648.283	3190.7037	3213.4291	3218.4578	3223.4207
FC1=CC=CC(F)=C1	Fc1cccc(F)c1	
InChI=1S/C6H4F2/c7-5-2-1-3-6(8)4-5/h1-4H	InChI=1S/C6H4F2/c7-5-2-1-3-6(8)4-5/h1-4H
