19
gdb 43666	6.01934	0.75091	0.73501	3.4455	78.52	-0.2472	0.031	0.2782	1567.9889	0.15951	-419.172118	-419.163588	-419.162644	-419.20636	31.519	
N	-0.7553107163	 0.7627285616	 1.126771642	-0.538019
C	-0.2168292685	 0.0350696323	 0.2603565812	 0.431244
C	-0.1509652643	-1.4543416756	-0.0036139694	-0.359758
C	 0.7215105586	-1.0397296922	-1.2049817996	 0.127219
C	 0.1756323656	-1.2980802663	-2.5976850173	-0.166865
N	 0.2545841434	-2.7212737889	-2.8951480324	-0.069134
C	 0.1800241325	-3.0929739799	-4.3035271233	-0.217869
C	 1.4702091987	-3.1793265189	-3.5668279359	-0.221854
O	 0.5693757773	 0.3705171218	-0.8282800169	-0.266816
H	-0.5536052593	 1.7498873209	 0.9585749896	 0.226738
H	 0.3431713673	-2.0347512886	 0.7764784332	 0.137454
H	-1.1016426366	-1.9248004201	-0.2593016531	 0.143171
H	 1.7734511822	-1.3318691487	-1.131587257	 0.094722
H	-0.8762419846	-0.9903642531	-2.6329505791	 0.112611
H	 0.7258335536	-0.6738820235	-3.3247372345	 0.093842
H	-0.3913932909	-3.9896415973	-4.5244707512	 0.122447
H	 0.0791701092	-2.2941466487	-5.0364503225	 0.114644
H	 2.230297014	-2.4378338134	-3.8089836663	 0.113901
H	 1.857486998	-4.1399533411	-3.2407181175	 0.122323
60.3955	66.8181	104.0991	164.4157	294.4195	344.6914	417.4705	449.7902	481.9877	498.8506	739.3724	776.4037	830.3537	841.8566	867.3833	894.5078	914.7301	963.164	969.7304	1018.8703	1030.0434	1037.4334	1066.9892	1105.5616	1117.6266	1121.8127	1150.8325	1178.5956	1201.2056	1222.9504	1236.4634	1270.7801	1319.5982	1324.0543	1363.5789	1411.948	1466.6025	1488.7349	1497.2655	1522.8901	1826.5669	2944.8177	3050.8904	3071.79	3092.8791	3095.7722	3100.8074	3146.6447	3181.2552	3195.3644	3475.7405
N=C1CC(CN2CC2)O1	[NH][C]1C[C@@H](CN2CC2)O1	
InChI=1S/C6H10N2O/c7-6-3-5(9-6)4-8-1-2-8/h5,7H,1-4H2	InChI=1S/C6H10N2O/c7-6-3-5(9-6)4-8-1-2-8/h5,7H,1-4H2/t5-/m0/s1
