21
gdb 72260	2.69935	1.81081	1.59465	1.5779	80.44	-0.2302	0.0829	0.3131	971.3328	0.185178	-387.075998	-387.068755	-387.06781	-387.107016	30.597	
C	 0.0356236822	 1.5490254712	-0.0027712063	-0.512776
C	-0.0065470796	 0.0408057799	-0.0684527137	 0.327558
C	 0.362911635	-0.7370286721	-1.3483916382	-0.300044
C	-0.5629540046	-1.8830787654	-0.8420435827	-0.07122
C	 0.2425552484	-2.8606435588	 0.0260068366	-0.198124
C	 1.1152298243	-2.0330657687	 1.0042154728	-0.227108
C	 0.3686807216	-0.7284827138	 1.2593449043	 0.055523
O	-1.0361188456	-1.0616681126	 1.4980733951	-0.306093
C	-1.2716414207	-0.8270385416	 0.1033774692	 0.084482
H	 1.069344139	 1.9157972426	 0.0144354148	 0.115805
H	-0.4599730354	 1.9976904242	-0.870650521	 0.113678
H	-0.4637868709	 1.9172927159	 0.9000243666	 0.126652
H	-0.0459613235	-0.2291628093	-2.2278620979	 0.094995
H	 1.4122554815	-0.9809418629	-1.5445054982	 0.090515
H	-1.1867132166	-2.3906008374	-1.5801132469	 0.062461
H	-0.443909163	-3.495444575	 0.5927652125	 0.111512
H	 0.8575807981	-3.5161035266	-0.5990312426	 0.091583
H	 1.2728111119	-2.5718286016	 1.9437255324	 0.102928
H	 2.1056033859	-1.8195825881	 0.5858808402	 0.098917
H	 0.7816729395	-0.1230886272	 2.0717646673	 0.069151
H	-2.2975475474	-0.5301269927	-0.1265366144	 0.069605
210.1815	217.5258	264.1965	274.4758	375.0725	397.6735	447.7544	510.528	614.3583	674.1866	728.6921	788.1041	806.5565	847.2441	862.0523	888.0383	891.0932	935.6051	948.2741	980.5252	1018.7731	1024.8343	1039.9051	1079.7467	1086.0556	1128.8528	1164.8433	1180.9278	1197.542	1220.67	1234.5199	1255.601	1265.4155	1297.9489	1310.6003	1325.1453	1357.4502	1363.4647	1380.3458	1409.8353	1475.1781	1486.4029	1491.774	1493.7722	1504.2269	3019.9555	3035.3666	3040.0615	3050.9546	3063.6894	3078.699	3080.2726	3082.4514	3085.9583	3094.5326	3095.9519	3099.7936
CC12CC3CCC1OC23	C[C@@]12C[C@H]3CC[C@@H]1O[C@@H]23	
InChI=1S/C8H12O/c1-8-4-5-2-3-6(8)9-7(5)8/h5-7H,2-4H2,1H3	InChI=1S/C8H12O/c1-8-4-5-2-3-6(8)9-7(5)8/h5-7H,2-4H2,1H3/t5-,6+,7-,8-/m1/s1
