20
gdb 62450	3.37903	1.1616	1.1375	4.64	83.28	-0.2726	0.0412	0.3138	1180.3848	0.172683	-366.036527	-366.027907	-366.026963	-366.069694	32.65	
C	 0.0221507299	 1.5819872897	 0.0281822705	-0.473444
C	 0.0703101237	 0.0604553163	 0.0325245668	 0.136613
C	-1.1715260653	-0.5275834684	-0.4152439739	 0.243654
N	-2.1708521643	-0.9870960147	-0.7756995593	-0.351586
C	 1.3050013286	-0.7704491141	-0.3326771486	-0.069982
C	 2.6702332182	-0.0961603295	-0.3673950881	-0.238353
C	 2.9100435365	 0.4987091316	 1.0490576685	-0.22437
C	 1.8311670511	-0.1159582241	 1.984966366	-0.238363
C	 0.799688935	-0.7824111794	 1.0840707015	-0.069971
H	 0.9576842352	 2.0252062384	 0.365874197	 0.12917
H	-0.1828865006	 1.9538615297	-0.9802109685	 0.138851
H	-0.7770338558	 1.9397896507	 0.6842829614	 0.138853
H	 1.135568362	-1.612101271	-0.9942239047	 0.107389
H	 3.4185234398	-0.8617054676	-0.5975039871	 0.11233
H	 2.7515859121	 0.6640583128	-1.1511276698	 0.109699
H	 3.9178944711	 0.2724420137	 1.4066460109	 0.106219
H	 2.8356899283	 1.5886896877	 1.0317089457	 0.11388
H	 2.2690129109	-0.8888414836	 2.6251865358	 0.112325
H	 1.3941397162	 0.6320119566	 2.6545480578	 0.109697
H	 0.2543825973	-1.6329590145	 1.4764196382	 0.107389
121.2549	129.6601	151.8576	159.2635	195.3198	265.7649	389.5891	392.8812	556.189	562.0192	655.9487	661.4764	693.3442	785.3359	822.5391	868.2968	888.9015	902.3398	960.1193	965.678	994.853	1053.781	1058.5626	1098.0103	1114.8494	1115.2968	1183.7216	1201.959	1231.066	1253.1277	1295.0548	1298.2267	1320.539	1328.4457	1355.8268	1405.2536	1427.92	1484.8059	1489.1343	1498.7292	1502.6115	1520.958	2344.2375	3045.0076	3045.0197	3051.2907	3067.2421	3073.3594	3079.1802	3106.3555	3108.5919	3161.5907	3173.8044	3183.0179
CC1(C#N)C2CCCC12	C[C@@]1(C#N)[C@H]2CCC[C@@H]12	
InChI=1S/C8H11N/c1-8(5-9)6-3-2-4-7(6)8/h6-7H,2-4H2,1H3	InChI=1S/C8H11N/c1-8(5-9)6-3-2-4-7(6)8/h6-7H,2-4H2,1H3/t6-,7+,8+
