17
gdb 66987	2.46653	2.02883	1.54269	2.9546	70.61	-0.2231	-0.0176	0.2056	917.351	0.137226	-421.840218	-421.833018	-421.832073	-421.871724	28.352	
C	-0.0026304411	 1.5174422746	 0.0333701709	-0.504648
C	-0.0140667314	 0.0172583121	 0.0329944533	 0.147025
C	 0.5498915596	-0.8902127535	-1.0950595247	-0.158087
C	-0.2904481743	-2.1701339214	-1.1415084703	-0.246066
C	-0.5522999448	-2.2196029383	 0.3816349466	-0.073476
O	 0.7582165633	-2.0701653465	 0.952061615	-0.261965
C	 1.1771011918	-0.8994308575	 0.2632429794	 0.06225
C	-1.1427026617	-0.799987948	 0.5910552028	 0.417722
O	-2.2015180374	-0.4549687092	 1.0398620408	-0.334937
H	 0.9173571905	 1.9100706875	-0.4104207682	 0.118692
H	-0.8486793062	 1.9146380409	-0.5367227207	 0.135618
H	-0.0792950884	 1.907214108	 1.0532771182	 0.137989
H	 1.0320452084	-0.4566494488	-1.9609057309	 0.103421
H	-1.2146070201	-2.070713204	-1.7176137889	 0.119802
H	 0.2762526262	-3.0347180959	-1.4979093031	 0.11644
H	-1.0788833849	-3.0623471348	 0.8181611599	 0.103202
H	 2.1701415205	-0.5546491752	 0.5149700398	 0.117021
123.2884	162.4266	221.3381	242.9582	393.7537	457.8448	516.3486	575.5544	642.1142	667.4147	777.5282	802.2236	832.7175	863.1473	881.2059	912.2282	920.6307	962.9116	996.4255	1024.2856	1042.9848	1072.7978	1088.2189	1107.3016	1150.8336	1177.7236	1230.8395	1248.6303	1284.3142	1299.6479	1328.7116	1417.6833	1430.8487	1485.5172	1487.7613	1497.0166	1873.447	3036.2413	3059.6631	3102.1292	3106.6528	3113.0125	3184.906	3207.7542	3224.266
CC12C3CC(OC13)C2=O	C[C@@]12[C@@H]3C[C@@H](O[C@H]13)C2=O	
InChI=1S/C7H8O2/c1-7-3-2-4(5(7)8)9-6(3)7/h3-4,6H,2H2,1H3	InChI=1S/C7H8O2/c1-7-3-2-4(5(7)8)9-6(3)7/h3-4,6H,2H2,1H3/t3-,4-,6+,7+/m1/s1
