19
gdb 61858	4.21313	0.70318	0.66457	2.698	73.59	-0.2459	-0.0326	0.2134	1684.8793	0.154619	-460.189701	-460.179035	-460.178091	-460.227036	36.593	
C	 0.169366115	 0.9407789763	 0.8777653808	-0.481658
C	 0.0681174752	 0.0312466227	-0.326179796	 0.395605
O	 0.9565094818	-0.0844703952	-1.1381705143	-0.305026
C	-1.2083551036	-0.8032926545	-0.4617915156	-0.305875
C	-0.9564565754	-2.2398512305	 0.0343666773	 0.127766
O	-0.6124195614	-2.2668237077	 1.4172586785	-0.43062
C	-2.1407674898	-3.1734489246	-0.2499411278	-0.3155
C	-1.8760082477	-4.567095398	 0.2843232361	 0.167502
O	-2.6136485443	-5.1640503157	 1.0234643045	-0.237763
H	 1.1243597377	 1.4671687844	 0.877036377	 0.141877
H	-0.6557967484	 1.6621790931	 0.8862765838	 0.134118
H	 0.0758563298	 0.3299292282	 1.7828498771	 0.151342
H	-2.042832229	-0.3643330875	 0.0978552977	 0.094965
H	-1.4763311528	-0.8319682201	-1.5224663853	 0.12668
H	-0.0656101885	-2.6189088927	-0.4801342571	 0.121133
H	-1.4153788394	-2.1225241212	 1.9316330512	 0.287712
H	-3.0660810297	-2.7957943244	 0.2007613771	 0.115229
H	-2.2961912796	-3.2422470657	-1.3351778106	 0.130181
H	-0.92066089	-5.0190168667	-0.0675049445	 0.082336
41.7901	51.3216	76.3898	101.6632	138.9355	177.4706	218.7322	281.7004	332.4072	392.2419	440.5304	443.2959	515.8758	534.4014	625.1118	780.9569	805.9674	871.3065	912.2653	969.8819	1000.1698	1025.0217	1067.8951	1078.742	1122.8762	1157.592	1185.9299	1238.4255	1257.8815	1315.0953	1343.2814	1365.0136	1377.4788	1419.7071	1430.4221	1455.8076	1463.7864	1474.9012	1476.721	1814.6221	1839.0559	2875.7966	3023.3518	3032.4501	3037.1657	3051.8313	3080.3979	3098.2264	3100.2574	3154.6555	3793.2999
CC(=O)CC(O)CC=O	CC(=O)C[C@@H](O)CC=O	
InChI=1S/C6H10O3/c1-5(8)4-6(9)2-3-7/h3,6,9H,2,4H2,1H3	InChI=1S/C6H10O3/c1-5(8)4-6(9)2-3-7/h3,6,9H,2,4H2,1H3/t6-/m0/s1
