17
gdb 47235	2.41632	1.80492	1.24393	4.5145	74.08	-0.2485	-0.0164	0.2321	1017.0858	0.138015	-421.841088	-421.833688	-421.832744	-421.873017	28.838	
O	 0.0085729083	 0.002162249	 0.3530701276	-0.326233
C	 0.0204818721	 1.1761460993	 0.0864643997	 0.405482
O	-1.1730324823	 1.8113657519	 0.0088101033	-0.228081
C	-1.3689490214	 3.2178687847	-0.22888714	-0.141033
C	-0.8225941635	 3.7306374995	-1.5332914979	-0.105638
C	 0.4460732266	 3.6187333234	-1.929420548	-0.031282
C	 1.5583124697	 2.9909856611	-1.1812994431	-0.070742
C	 1.7603559461	 3.2279100228	 0.2965133288	-0.312918
C	 1.329332776	 1.8593055	-0.175273566	-0.146586
H	-2.4557473273	 3.3213780232	-0.2185239151	 0.132172
H	-0.9929828226	 3.7851893533	 0.6302424335	 0.123752
H	-1.536328941	 4.2176211751	-2.1903526069	 0.10409
H	 0.7158020904	 4.0127245928	-2.9059437386	 0.101002
H	 2.4676945163	 2.8727846545	-1.7603138572	 0.104879
H	 2.777261934	 3.3108687662	 0.6625221261	 0.131218
H	 1.0557494634	 3.8643423036	 0.8131989634	 0.133404
H	 2.1058209851	 1.1044538596	-0.1598536497	 0.126513
88.9583	171.098	234.991	292.4349	321.5625	385.8185	463.963	556.2862	639.1009	684.0964	692.4072	765.1887	786.0613	816.6281	852.2148	925.7659	945.6597	984.59	997.8183	1016.5652	1042.6583	1068.4689	1104.2283	1140.0347	1150.0347	1204.2172	1260.7462	1274.8677	1288.8182	1374.7959	1404.1042	1422.5532	1438.3084	1484.2091	1519.317	1724.3546	1814.2999	3036.5378	3105.508	3152.177	3156.6092	3168.5058	3182.7425	3191.5944	3250.7372
O=C1OCC=CC2CC12	O=C1OCC=C[C@H]2C[C@@H]12	
InChI=1S/C7H8O2/c8-7-6-4-5(6)2-1-3-9-7/h1-2,5-6H,3-4H2	InChI=1S/C7H8O2/c8-7-6-4-5(6)2-1-3-9-7/h1-2,5-6H,3-4H2/t5-,6+/m0/s1
