16
gdb 84212	3.90231	1.68141	1.5491	2.3964	73.61	-0.2105	-0.0477	0.1629	869.9153	0.125152	-400.599992	-400.593589	-400.592645	-400.630501	26.629	
O	 0.0877580616	 1.4552609459	 0.035577423	-0.424674
C	 0.094291002	 0.0444762588	-0.0204904092	 0.087092
C	 0.6707026207	-0.5301540661	 1.3013712631	-0.163926
C	-0.1832179426	-1.488222815	 1.7033500436	 0.052622
C	-1.4573528653	-1.2471124356	 2.4799496858	-0.089631
C	-2.1883963435	-0.4429701612	 1.3934516378	-0.043045
C	-1.3564853674	-0.527999016	 0.0710381958	-0.050855
C	-1.1268305301	-1.9584387355	 0.5832105934	-0.043309
N	-2.346115721	-1.9398295362	 1.5165627124	-0.169238
H	 0.953227457	 1.7787628011	-0.2343334741	 0.29129
H	 0.5542500853	-0.3067954275	-0.9580153454	 0.076551
H	 1.1897384132	 0.1505709042	 1.9693567452	 0.101959
H	-1.6953556445	-1.1480669189	 3.533370616	 0.103891
H	-3.0106368398	 0.2287730681	 1.6138391984	 0.102631
H	-1.9766430047	-0.3733319325	-0.8156519805	 0.079123
H	-0.9374806607	-2.8309955735	-0.0382771453	 0.089519
125.2003	287.2254	297.134	387.896	522.4672	527.4981	582.9827	680.4705	735.4734	769.9173	773.8719	808.7213	835.5628	843.1506	893.3942	927.9325	958.4799	983.9074	990.412	1009.9027	1032.3293	1034.2242	1112.9211	1122.0458	1138.6464	1180.7725	1190.7182	1221.8978	1241.3673	1268.2773	1281.2194	1308.3943	1318.66	1413.4138	1593.1038	2962.2552	3087.6083	3140.0221	3171.9914	3172.913	3182.4177	3818.4396
OC1C=C2C3C4C1C2N34	O[C@H]1[CH][C]2[C@H]3[C@H]4[C@@H]1[C@@H]2N34	
InChI=1S/C7H7NO/c9-3-1-2-5-4(3)7-6(2)8(5)7/h1,3-7,9H	InChI=1S/C7H7NO/c9-3-1-2-5-4(3)7-6(2)8(5)7/h1,3-7,9H/t3-,4-,5+,6-,7+,8?/m0/s1
