15
gdb 130375	3.52485	1.09575	0.83848	2.8471	76.98	-0.1865	-0.0071	0.1794	1295.2013	0.115102	-446.317407	-446.308801	-446.307856	-446.350889	31.336	
N	-0.0266185591	 1.3664593645	 0.1295937476	-0.501783
C	 0.0476922111	 0.0151950774	-0.0381563368	 0.11039
N	 1.1497637718	-0.6232248232	 0.0915284414	-0.363832
C	 1.1440160111	-2.0048967019	 0.0190531567	 0.326884
N	 0.0823510733	-2.81949641	 0.0699658174	-0.292771
N	 0.6185234523	-4.0269790489	-0.0278340616	-0.098375
N	 1.9543501952	-4.0879397457	-0.1195279419	-0.286522
C	 2.3089311399	-2.8062043805	-0.0989374373	 0.265427
N	 3.6126977332	-2.3595909605	-0.239658235	-0.597637
H	 0.8487360585	 1.8667607726	 0.1695655282	 0.26037
H	-0.8042405103	 1.8587268663	-0.2763699584	 0.261389
H	-0.9103602337	-0.4701515273	-0.2467856554	 0.126459
H	 0.061552327	-4.8607698464	 0.0384061305	 0.284147
H	 4.3023640418	-3.0043934158	 0.1205577319	 0.251353
H	 3.730423788	-1.4265356005	 0.1318477324	 0.254501
69.177	129.7384	155.8858	260.8403	288.7579	304.2215	320.761	377.9039	429.4258	451.4103	545.231	581.8398	660.9192	692.4791	720.2871	798.8791	841.4445	978.7497	1012.8577	1084.9164	1110.6968	1185.0052	1229.3964	1288.1188	1308.6507	1379.7404	1405.5468	1471.4882	1563.8655	1586.839	1627.8848	1643.4812	1731.1858	3089.8215	3550.9059	3585.7786	3654.321	3691.127	3714.5758
NC=NC1=NNN=C1N	NC=Nc1n[nH]nc1N	
InChI=1S/C3H6N6/c4-1-6-3-2(5)7-9-8-3/h1H,(H5,4,5,6,7,8,9)	InChI=1S/C3H6N6/c4-1-6-3-2(5)7-9-8-3/h1H,(H5,4,5,6,7,8,9)
