21
gdb 104329	2.15937	1.50382	1.17774	2.6246	80.42	-0.2298	0.0182	0.248	1171.6204	0.180999	-424.239437	-424.229715	-424.228771	-424.27373	36.328	
C	 0.2191726442	 1.4894122175	-0.0823613765	-0.504608
C	 0.0548148008	 0.0037271026	-0.0143406424	 0.290202
C	-0.2046819427	-0.8385554721	-1.0111192626	-0.211009
C	-0.2981226791	-2.2473365032	-0.5057518592	-0.133194
O	-0.0266965779	-2.1527204185	 0.8918071551	-0.323426
C	 0.1512414472	-0.7718535375	 1.2855542775	 0.256154
C	 1.503255005	-0.6441277395	 1.9939541682	-0.419548
C	-1.0126559333	-0.4477511845	 2.2489883079	-0.069596
O	-1.074809547	-1.3873949353	 3.3013170224	-0.425153
H	 1.2095934372	 1.799338405	 0.271268373	 0.135012
H	 0.0962153203	 1.8537649473	-1.1053447438	 0.128092
H	-0.5144133721	 2.0047774228	 0.5496593968	 0.134617
H	-0.3405119187	-0.5742314334	-2.0531213248	 0.099866
H	-1.2936278146	-2.6896260423	-0.6715209162	 0.103742
H	 0.4343539527	-2.921171372	-0.9762921247	 0.107141
H	 2.3107894517	-0.9814380806	 1.339237075	 0.115178
H	 1.6953594575	 0.3939342123	 2.2839564755	 0.110779
H	 1.4992199903	-1.2531372957	 2.9007089341	 0.135921
H	-0.8749524521	 0.5380485205	 2.7064094681	 0.100677
H	-1.950353594	-0.4271478992	 1.6707941116	 0.080492
H	-1.0339947456	-2.2506379541	 2.8691321249	 0.28866
74.6142	123.5831	160.7227	170.0115	219.8571	247.0922	258.3223	295.3445	337.0322	404.3755	498.4245	515.933	577.7138	584.4428	709.5408	776.5626	813.5053	871.5326	922.44	947.4013	951.9709	1024.3197	1046.1559	1063.5175	1080.4262	1081.3947	1122.754	1159.314	1183.7755	1206.0299	1235.2245	1254.1475	1332.7352	1374.8114	1377.7481	1399.6329	1416.8051	1435.4034	1477.5341	1484.1191	1488.6155	1497.0932	1503.3514	1525.7532	1730.257	2971.0292	2974.6939	2991.5734	3025.3134	3043.2491	3067.5973	3074.6449	3114.3822	3117.0256	3134.6304	3204.997	3768.9132
CC1=CCOC1(C)CO	CC1=CCO[C@]1(C)CO	
InChI=1S/C7H12O2/c1-6-3-4-9-7(6,2)5-8/h3,8H,4-5H2,1-2H3	InChI=1S/C7H12O2/c1-6-3-4-9-7(6,2)5-8/h3,8H,4-5H2,1-2H3/t7-/m1/s1
