18
gdb 103400	2.27696	1.57375	1.39001	2.9491	72.53	-0.2236	-0.0246	0.199	1048.4693	0.145215	-439.035632	-439.026498	-439.025554	-439.069595	33.308	
C	 0.1341942012	 1.3070434872	 0.1348670187	-0.256003
O	-0.012680418	-0.0562502938	-0.2272671152	-0.283825
C	-1.299095957	-0.5889763279	-0.0756316808	 0.311906
C	-2.3037745456	-0.0397573479	-1.0935159651	-0.457956
C	-1.3043061778	-2.1246450021	-0.0032593118	-0.104157
N	-0.5228003336	-2.5028994542	 1.1720651847	-0.322628
C	-1.9720765477	-2.1324373711	 1.3486451306	-0.192138
C	-1.9698272605	-0.6243367514	 1.3597439287	 0.40171
O	-2.4473169367	 0.2182797935	 2.0633522205	-0.325973
H	 1.2014210822	 1.5288066308	 0.0657732559	 0.12918
H	-0.4071885607	 1.9807916215	-0.5440122172	 0.106984
H	-0.2071722136	 1.4948792708	 1.1596404068	 0.13568
H	-1.8909074674	-0.1378790637	-2.1023020313	 0.127988
H	-3.2513892189	-0.5849924737	-1.0471795901	 0.123292
H	-2.5186427378	 1.0139939819	-0.9001919837	 0.139997
H	-1.4809985958	-2.804530286	-0.8272038489	 0.107945
H	-0.4927588437	-3.5224140258	 1.2100353892	 0.24127
H	-2.6775941185	-2.8287209181	 1.7832618588	 0.116729
65.0424	113.5301	159.8501	194.2911	217.8595	225.8442	282.0723	316.2524	391.8378	500.0577	536.9582	636.2392	672.6926	782.2364	818.5089	831.999	869.3758	912.507	933.9819	973.4942	1047.3578	1064.1491	1092.376	1097.346	1140.593	1165.9096	1183.1046	1222.4392	1238.8063	1274.1406	1324.2705	1366.5372	1396.5759	1477.8451	1483.469	1488.6725	1503.167	1511.9188	1885.6735	3001.637	3041.5474	3067.4279	3113.6722	3123.1467	3126.5065	3196.0541	3207.831	3464.9992
COC1(C)C2NC2C1=O	CO[C@@]1(C)[C@H]2N[C@H]2C1=O	
InChI=1S/C6H9NO2/c1-6(9-2)4-3(7-4)5(6)8/h3-4,7H,1-2H3	InChI=1S/C6H9NO2/c1-6(9-2)4-3(7-4)5(6)8/h3-4,7H,1-2H3/t3-,4+,6+/m1/s1
