19
gdb 98733	2.91664	0.92533	0.82258	4.1374	78.41	-0.2413	-0.0365	0.2048	1474.2395	0.156587	-423.051174	-423.041384	-423.040439	-423.087074	34.525	
C	 0.1290869407	 1.5452195529	 0.0171813091	-0.380631
C	-0.0490092672	 0.0323287329	-0.0641586984	-0.28905
C	-1.4752547842	-0.4303584595	 0.1852189182	 0.386997
O	-2.3702188951	 0.3444512457	 0.4524990968	-0.325868
C	-1.7038293936	-1.9104066088	 0.0915429131	-0.121205
C	-2.8865246072	-2.509824419	 0.7940124313	-0.297596
C	-2.8971209822	-2.4764569938	-0.7123124858	-0.099406
C	-3.8568321139	-1.5944975759	-1.4306985294	 0.143051
O	-4.3272467782	-1.8853664226	-2.5046241966	-0.268259
H	 1.1719844807	 1.8208869071	-0.1610165184	 0.112913
H	-0.4947649018	 2.0512915875	-0.7238123065	 0.13489
H	-0.1665028433	 1.9198111431	 1.0002740049	 0.134089
H	 0.2583797702	-0.3577409829	-1.0450006843	 0.129553
H	 0.5972925386	-0.4863120548	 0.6588079064	 0.126431
H	-0.8059575132	-2.5139080713	 0.0114283558	 0.10229
H	-2.7698020714	-3.4710663085	 1.279791364	 0.132788
H	-3.5308086289	-1.7981954646	 1.3001449129	 0.15038
H	-2.6904699768	-3.4002197119	-1.2422794705	 0.115386
H	-4.1272665829	-0.6585368654	-0.9062611126	 0.113249
36.0747	75.5852	95.3819	167.8664	181.9282	208.9358	268.5604	330.4019	333.5087	383.5514	485.4148	578.9359	646.3599	767.131	809.2907	829.3054	863.4781	888.0725	954.2064	997.6841	1032.9298	1057.0605	1081.634	1097.6634	1107.4614	1130.6948	1137.818	1186.7007	1211.4516	1277.0354	1340.8055	1356.5166	1407.535	1414.0873	1444.6952	1449.0729	1471.3429	1491.7078	1497.5754	1788.1329	1809.0927	2963.761	3011.7121	3038.086	3053.2376	3125.1314	3129.2785	3140.2808	3165.6155	3177.6054	3236.3584
CCC(=O)C1CC1C=O	CCC(=O)[C@H]1C[C@H]1C=O	
InChI=1S/C7H10O2/c1-2-7(9)6-3-5(6)4-8/h4-6H,2-3H2,1H3	InChI=1S/C7H10O2/c1-2-7(9)6-3-5(6)4-8/h4-6H,2-3H2,1H3/t5-,6-/m0/s1
