19
gdb 56680	2.73028	1.33498	1.12806	1.7106	76.64	-0.2527	0.037	0.2897	1154.3541	0.156634	-422.97333	-422.963828	-422.962884	-423.007495	35.668	
C	-0.1412777336	 1.6343027668	-0.0931316793	-0.454615
C	-3.4493*^-6	 0.1233087159	-0.0592224389	 0.417967
C	 0.7884657546	-0.5118918884	-1.2337254694	-0.327748
C	 1.8522593682	-0.8328216977	-0.1702341012	-0.07228
O	 1.0207523364	-0.3072282562	 0.8917100194	-0.3364
C	-1.3212884831	-0.6138945971	 0.2712890827	-0.109921
O	-1.0739538832	-2.0012366415	 0.4302407271	-0.424086
C	-1.9953935826	-0.056203163	 1.4506460164	 0.320263
C	-2.5394014357	 0.3784930051	 2.4304459025	-0.449554
H	 0.8124344666	 2.098649543	-0.3589342289	 0.118134
H	-0.8882497871	 1.9336273546	-0.83726313	 0.118114
H	-0.4558160619	 2.0129586091	 0.8818876775	 0.144109
H	 0.3086415373	-1.389185302	-1.6667547049	 0.127466
H	 1.086838556	 0.1815640143	-2.0211996701	 0.106438
H	 2.0806260641	-1.8936335395	-0.0212364501	 0.107671
H	 2.7913390678	-0.27367743	-0.2557809507	 0.10676
H	-1.9836164404	-0.5222905109	-0.5989103511	 0.117875
H	-0.393493361	-2.0526949626	 1.1159941886	 0.290836
H	-3.026245813	 0.7590060501	 3.2944019304	 0.198972
66.2967	99.4977	148.8731	210.3872	226.2058	262.4881	301.2211	351.0957	371.9891	439.5238	494.6083	530.0589	605.3262	629.4608	663.3015	734.3883	782.7218	846.724	888.0477	906.9771	968.9055	983.1067	996.6629	1020.6457	1073.1378	1127.7512	1166.6543	1209.4319	1220.8896	1246.4338	1278.4326	1282.9144	1313.4596	1355.9691	1407.0942	1427.619	1477.5538	1483.7068	1491.4439	1528.4454	2231.179	3025.8062	3034.4543	3039.3088	3069.7962	3087.443	3106.591	3132.9815	3149.812	3502.0419	3755.5219
CC1(CCO1)C(O)C#C	C[C@]1(CCO1)[C@@H](O)C#C	
InChI=1S/C7H10O2/c1-3-6(8)7(2)4-5-9-7/h1,6,8H,4-5H2,2H3	InChI=1S/C7H10O2/c1-3-6(8)7(2)4-5-9-7/h1,6,8H,4-5H2,2H3/t6-,7-/m0/s1
