15
gdb 24494	4.03033	1.64612	1.16876	3.696	81.08	-0.2163	-0.0198	0.1964	976.0367	0.117974	-379.761349	-379.755218	-379.754274	-379.791587	25.197	
N	-0.021290145	 1.3591371588	 0.0099414213	-0.38303
C	 1.2632385058	 1.8540077769	 0.0001679005	-0.043789
C	 2.1610499336	 0.8196953538	-0.0141597599	-0.300022
C	 1.3976255484	-0.3921533294	-0.0134033996	 0.311861
C	 0.0292978846	-0.0176862334	 0.0019344292	 0.255023
C	-0.9751917711	-0.9845383908	 0.0064066494	-0.084601
N	-0.6861253258	-2.2794695662	-0.0034918974	-0.287839
C	 0.613993807	-2.6450273734	-0.018125015	 0.000849
C	 1.682758434	-1.7647773034	-0.0236862257	-0.261193
H	-0.8578991518	 1.9154851369	 0.0211465741	 0.266179
H	 1.4339561254	 2.9198899618	 0.0043243623	 0.132113
H	 3.235623888	 0.9130069427	-0.0240695744	 0.106156
H	-2.0287525235	-0.7091375161	 0.0181418815	 0.09542
H	 0.7952132465	-3.7165567736	-0.0257421803	 0.099468
H	 2.7027629839	-2.1334764947	-0.0356030859	 0.093404
217.8679	243.895	401.556	407.5509	433.376	562.9953	617.6999	622.3078	623.5901	749.119	791.9125	809.7255	842.4206	856.8655	889.5964	913.5604	935.83	971.4095	1056.9629	1095.0766	1120.2599	1197.1053	1228.7815	1280.1716	1303.796	1335.8593	1385.8202	1429.2192	1482.673	1508.6871	1539.3213	1602.7317	1646.8108	3132.3608	3159.1564	3190.3937	3247.4082	3266.4274	3684.3318
N1C=CC2=C1C=NC=C2	[nH]1ccc2c1cncc2	
InChI=1S/C7H6N2/c1-3-8-5-7-6(1)2-4-9-7/h1-5,9H	InChI=1S/C7H6N2/c1-3-8-5-7-6(1)2-4-9-7/h1-5,9H
