16
gdb 74351	3.00289	1.24473	0.99743	4.4295	73.31	-0.2513	-0.0481	0.2033	1186.6059	0.123397	-437.947226	-437.938622	-437.937678	-437.981034	30.805	
C	 0.0295685937	 1.5384426934	-0.0312688169	-0.488222
C	-0.037305919	 0.0502261068	-0.0147045567	 0.226027
C	-1.0842734962	-0.773746267	 0.0844129001	-0.224626
C	-0.624265089	-2.2166650148	 0.0503329828	-0.116171
N	 0.7939716309	-2.0971616904	-0.1561709702	-0.326188
C	 1.2144281679	-0.7767130145	-0.0863626747	 0.35398
O	 2.3588423123	-0.3822835535	-0.0800310444	-0.36646
C	-0.9946917222	-2.9750785522	 1.3230493516	 0.159316
O	-0.1940543589	-3.5025456813	 2.0468505	-0.23549
H	 0.7045606044	 1.8936049711	 0.7543344634	 0.153792
H	 0.449783815	 1.8929376651	-0.9789668702	 0.148337
H	-0.9536682143	 1.9930538483	 0.1094448402	 0.12311
H	-2.1301312656	-0.5037776643	 0.1590430046	 0.119274
H	-1.1257424054	-2.7524684913	-0.7761475214	 0.12069
H	 1.4144532687	-2.8301588219	 0.1528160931	 0.263408
H	-2.0888664324	-3.0251092835	 1.5178208987	 0.089223
71.4481	104.0324	116.3897	197.9599	244.852	272.1367	342.3645	404.8533	481.0555	522.5496	620.6795	697.7093	726.7735	760.6197	793.6225	855.6019	892.4568	984.3403	1021.1383	1029.8645	1065.7096	1136.7496	1160.7698	1229.9655	1252.5709	1318.8657	1355.197	1401.4627	1414.5066	1417.9685	1470.9922	1481.617	1706.2692	1824.6628	1837.5568	2889.2034	2947.3691	3039.8704	3095.1803	3128.0799	3214.2975	3635.6155
CC1=CC(NC1=O)C=O	CC1=C[C@@H](NC1=O)C=O	
InChI=1S/C6H7NO2/c1-4-2-5(3-8)7-6(4)9/h2-3,5H,1H3,(H,7,9)	InChI=1S/C6H7NO2/c1-4-2-5(3-8)7-6(4)9/h2-3,5H,1H3,(H,7,9)/t5-/m1/s1
