23
gdb 59786	3.04176	1.17471	0.90199	1.6384	82.5	-0.2563	0.0932	0.3495	1371.6986	0.206172	-425.445591	-425.436252	-425.435308	-425.479526	35.839	
C	-0.0383160799	 1.5263757873	 0.035157451	-0.394672
C	 0.0217381665	-0.0058995595	 0.016008161	-0.003006
C	 0.708908801	-0.528385843	-1.2514938562	-0.394662
C	 0.716523391	-0.5371363905	 1.26801577	 0.232311
O	 0.0325771572	-0.0599455343	 2.4042587671	-0.25313
C	 0.6332975865	-0.5035536797	 3.6126419379	-0.078556
C	 0.6997810796	-2.0319078486	 3.6458793289	-0.206683
C	 1.3642899823	-2.5133640268	 2.3543656453	-0.07855
O	 0.7185418454	-1.9458218223	 1.2235374814	-0.253118
H	 0.9694457278	 1.9589118552	 0.0106461956	 0.106499
H	-0.5765590529	 1.897203277	-0.8426873016	 0.108377
H	-0.5416600602	 1.8918974463	 0.9320954397	 0.131207
H	-1.0013111305	-0.4011551888	 0.0531552497	 0.0883
H	 1.7411611146	-0.1631276495	-1.3172252255	 0.106504
H	 0.7345525735	-1.6195105309	-1.2671529217	 0.13119
H	 0.1792400928	-0.178929195	-2.1432156567	 0.108376
H	 1.7684861261	-0.182827848	 1.3133638449	 0.045227
H	 1.648902869	-0.0803887718	 3.7027015009	 0.086968
H	 0.0267729686	-0.1014658234	 4.4284717825	 0.109597
H	 1.2613716314	-2.3759967802	 4.5216848281	 0.096805
H	-0.315027977	-2.4386660334	 3.7060455628	 0.114443
H	 2.4324668971	-2.2347409249	 2.3539401356	 0.086972
H	 1.2986748703	-3.5985013851	 2.2390707095	 0.109601
70.6305	126.139	181.3263	217.4499	237.1024	263.2569	307.591	324.6715	420.861	424.7023	465.9168	481.9247	545.3856	649.6308	858.253	864.3476	900.5717	924.021	931.0284	944.5283	947.5195	969.8858	1031.2087	1043.74	1071.0327	1139.2769	1144.1896	1173.7507	1192.5598	1215.9651	1239.8618	1264.6327	1298.8551	1332.5541	1343.9264	1370.4108	1376.4056	1395.1993	1408.071	1415.3153	1416.4841	1432.9934	1468.984	1489.5775	1492.4211	1495.9754	1501.5107	1504.443	1518.0085	2876.67	2955.6717	2962.9616	3029.103	3029.6077	3038.2695	3042.4386	3087.4435	3089.3473	3090.9919	3097.0158	3098.0004	3133.3538	3133.9739
CC(C)C1OCCCO1	CC(C)C1OCCCO1	
InChI=1S/C7H14O2/c1-6(2)7-8-4-3-5-9-7/h6-7H,3-5H2,1-2H3	InChI=1S/C7H14O2/c1-6(2)7-8-4-3-5-9-7/h6-7H,3-5H2,1-2H3
