21
gdb 94822	3.86984	1.1483	1.0061	0.9938	86.96	-0.2212	0.0209	0.2421	1266.7725	0.183088	-387.088773	-387.080372	-387.079428	-387.121482	33.535	
C	-0.0773448907	 1.543605209	-0.0170614266	-0.400392
C	-0.0016225779	 0.0108737597	 0.0061213891	-0.041542
C	 0.7165855668	-0.5287860777	-1.2378494713	-0.100682
O	 0.951782524	-1.926605812	-1.1376984788	-0.300711
C	 1.8210988963	-2.2521446624	-0.0868845653	 0.42346
C	 2.2443715333	-3.6937902188	-0.0755118123	-0.324805
C	 3.2439061497	-2.6338816643	-0.4734061816	-0.323583
C	 1.5707565397	-1.5205299795	 1.1733050282	-0.12112
C	 0.7139087589	-0.5011235808	 1.2332346886	-0.091396
H	 0.9244748015	 1.9871418536	-0.0133066215	 0.119242
H	-0.6031673785	 1.9009278023	-0.9089653499	 0.113683
H	-0.6125775089	 1.921891808	 0.8597232408	 0.116326
H	-1.0294702208	-0.3816628965	 0.0023283865	 0.089031
H	 0.1119664871	-0.3877673392	-2.138474109	 0.102131
H	 1.6679293314	 0.0103825085	-1.3753840486	 0.088963
H	 2.3565801608	-4.1880152447	 0.8831964063	 0.114795
H	 1.8287127363	-4.3108805939	-0.8637837029	 0.127403
H	 3.4860347397	-2.5490529606	-1.5265915999	 0.122193
H	 4.0527105288	-2.3937737291	 0.2080598831	 0.112081
H	 2.1168807051	-1.854877426	 2.0511242444	 0.091067
H	 0.5276192776	 0.0066241943	 2.1765535306	 0.083857
72.7533	197.7964	214.5928	243.752	276.4303	329.0227	367.8633	397.1426	450.6822	542.9839	593.6687	658.1479	742.1964	771.763	776.6563	858.0517	894.5803	904.1916	933.8968	948.687	969.3294	981.7294	996.1433	1045.8661	1075.2552	1082.0499	1109.3776	1118.2613	1146.2791	1193.1115	1199.3309	1276.6657	1299.0599	1305.9843	1318.3804	1357.116	1402.5519	1408.7855	1437.3509	1450.4993	1486.4232	1495.2968	1500.2702	1501.0706	1709.2594	2974.2444	2993.7779	3029.214	3083.6165	3098.6389	3101.2421	3133.7029	3137.4622	3146.9768	3172.047	3220.3808	3234.9019
CC1COC2(CC2)C=C1	C[C@H]1COC2(CC2)C=C1	
InChI=1S/C8H12O/c1-7-2-3-8(4-5-8)9-6-7/h2-3,7H,4-6H2,1H3	InChI=1S/C8H12O/c1-7-2-3-8(4-5-8)9-6-7/h2-3,7H,4-6H2,1H3/t7-/m1/s1
