16
gdb 27303	3.21178	1.33323	0.94758	5.3492	75.52	-0.2118	-0.0033	0.2085	1179.4343	0.125214	-437.957721	-437.949481	-437.948536	-437.990292	31.339	
C	-0.0281542911	 1.5096837927	 0.0060294654	-0.472038
C	-0.0056475237	 0.0109305379	-0.0181483338	 0.131866
C	-0.0342947846	-0.7032673643	-1.1640122911	-0.069435
N	-0.0125461192	-2.0824637224	-1.1652225575	-0.375891
C	 0.0391009923	-2.778949645	 0.0030589939	 0.504112
O	 0.0530032741	-4.1159720514	-0.2057469665	-0.423724
C	 0.0706714755	-2.1404281242	 1.2015146628	-0.421659
C	 0.0506467038	-0.6877034484	 1.2856351611	 0.33303
O	 0.0779113778	-0.0684329873	 2.3476285679	-0.40162
H	 0.8614111459	 1.896974745	 0.513698297	 0.141784
H	-0.0760280635	 1.9341824716	-1.0007656375	 0.102902
H	-0.8848068613	 1.8689837584	 0.5855998352	 0.142076
H	-0.0757608989	-0.2483777238	-2.1466695318	 0.126685
H	-0.0345231642	-2.6022021157	-2.0271391935	 0.270594
H	 0.0894084072	-4.5608023405	 0.6478601792	 0.315786
H	 0.1117638499	-2.7052213325	 2.1259095593	 0.095531
121.1504	136.6336	184.9218	277.7099	317.9531	360.046	370.3146	411.6068	444.429	490.8706	522.1998	589.4041	679.9959	735.9199	751.6292	780.6899	835.6555	873.6737	965.6035	1028.8797	1064.499	1153.7235	1178.824	1225.9115	1236.718	1283.9162	1385.4969	1412.599	1419.3068	1464.167	1486.8309	1578.862	1644.8794	1701.1741	1717.9055	3035.95	3093.5852	3114.8406	3194.847	3198.9595	3658.7237	3831.576
CC1=CNC(O)=CC1=O	Cc1c[nH]c(O)cc1=O	
InChI=1S/C6H7NO2/c1-4-3-7-6(9)2-5(4)8/h2-3H,1H3,(H2,7,8,9)	InChI=1S/C6H7NO2/c1-4-3-7-6(9)2-5(4)8/h2-3H,1H3,(H2,7,8,9)
