14
gdb 16047	3.61407	1.77801	1.49279	3.6511	63.27	-0.25	-0.0043	0.2457	847.8124	0.108398	-378.677276	-378.670395	-378.669451	-378.708283	26.094	
O	-0.0070319412	 1.3929655755	-0.0051220525	-0.426399
C	-0.0511530139	 0.0139056509	 0.0314547994	 0.113544
C	-1.3298102033	-0.7895778705	 0.0814565924	-0.184587
C	-2.4137953184	-0.1042423119	-0.7518986346	-0.182954
N	-1.4518608872	 0.0913660256	-1.8925993315	-0.393446
C	-0.4565725442	-0.764224028	-1.1972039702	 0.186594
C	 0.3022001021	-1.7705007071	-1.8551440747	 0.177008
N	 0.9134177587	-2.5919168136	-2.3967853377	-0.344508
H	-0.4117402626	 1.6501022034	-0.8499183083	 0.303361
H	 0.7670312996	-0.4151018847	 0.6015775057	 0.13095
H	-1.4844756384	-1.5962540485	 0.7860531923	 0.121569
H	-3.2315921254	-0.7836310935	-1.004871371	 0.125683
H	-2.8200697987	 0.8316872031	-0.356846181	 0.126143
H	-1.782726217	-0.3257804506	-2.7549463481	 0.247043
136.2135	170.8412	215.6055	283.4283	436.0157	495.3737	521.7145	538.883	569.8039	693.9204	745.2724	807.7676	829.2309	900.4324	961.2278	980.9757	1011.2783	1030.6108	1103.6247	1128.3162	1168.7228	1200.9792	1225.9546	1282.9751	1309.8664	1354.6538	1397.651	1465.4076	1509.1628	2338.5347	3053.7963	3106.7875	3174.0714	3203.0047	3552.6401	3676.4594
OC1C2CNC12C#N	O[C@H]1[C@H]2CN[C@@]12C#N	
InChI=1S/C5H6N2O/c6-2-5-3(1-7-5)4(5)8/h3-4,7-8H,1H2	InChI=1S/C5H6N2O/c6-2-5-3(1-7-5)4(5)8/h3-4,7-8H,1H2/t3-,4+,5-/m1/s1
