20
gdb 70470	2.97703	1.09082	0.96451	3.6354	81.34	-0.247	0.0321	0.279	1302.6432	0.170867	-403.153414	-403.144355	-403.143411	-403.188041	33.719	
C	-0.0183279516	 1.4862486597	-0.1458957071	-0.499744
C	 0.0589385691	-0.0077257556	-0.0076593277	 0.35161
C	-0.8460473851	-0.7939057622	 0.9092143355	-0.338488
C	 0.6401076952	-0.8900160484	 1.1075472838	-0.089092
C	 1.2178611118	-1.8689145285	 0.0811231952	-0.257565
C	 0.6828848878	-0.9346292702	-1.0601300401	-0.016076
N	-0.179072426	-1.4733993468	-2.0887659597	-0.286352
C	 0.1391266207	-1.4798128743	-3.412269345	 0.151824
O	 1.1725003146	-1.0610728655	-3.8895207491	-0.323783
H	 0.9458189496	 1.9085594171	-0.450431654	 0.123877
H	-0.7586704496	 1.7760457545	-0.9012956107	 0.124558
H	-0.3091277504	 1.9582828834	 0.7983130912	 0.117886
H	-1.3835235166	-0.1890472852	 1.6328546594	 0.114208
H	-1.4086907432	-1.6626975507	 0.5692306265	 0.092212
H	 1.1213900941	-0.5807159714	 2.0269496946	 0.090878
H	 2.3072162098	-1.9411240611	 0.0798466944	 0.113695
H	 0.7989452563	-2.8806557341	 0.1065951912	 0.09365
H	 1.5083306833	-0.452356088	-1.5846025173	 0.122014
H	-1.0785301004	-1.8405621689	-1.8197015686	 0.244077
H	-0.6720646695	-1.9218427538	-4.0254098025	 0.07061
28.8298	117.5512	155.8888	194.1097	217.7063	265.7222	303.1164	397.9141	434.7869	499.6982	537.4891	627.4616	684.8317	770.9565	814.0481	869.3209	873.3905	951.7955	962.3436	990.1405	1012.1885	1032.5611	1040.5982	1057.971	1083.4576	1102.1614	1130.0265	1168.4068	1205.8934	1234.8472	1247.6129	1265.5577	1306.4405	1363.274	1392.3912	1420.9792	1432.5369	1482.7453	1484.8899	1498.0719	1506.6565	1528.6839	1804.7465	2928.1328	3022.6125	3044.4867	3081.9753	3090.0977	3097.0865	3107.8424	3123.193	3184.3317	3194.5643	3627.9007
CC12CC1CC2NC=O	C[C@]12C[C@H]1C[C@H]2NC=O	
InChI=1S/C7H11NO/c1-7-3-5(7)2-6(7)8-4-9/h4-6H,2-3H2,1H3,(H,8,9)	InChI=1S/C7H11NO/c1-7-3-5(7)2-6(7)8-4-9/h4-6H,2-3H2,1H3,(H,8,9)/t5-,6-,7+/m1/s1
