19
gdb 89646	4.31641	1.02972	0.95757	1.7234	75.95	-0.2315	0.0697	0.3012	1260.6738	0.160708	-419.127723	-419.1196	-419.118656	-419.160782	31.575	
O	 0.0055564998	 1.3357065272	-0.1850002222	-0.435684
C	 0.1235289245	-0.0058410725	 0.1860137267	 0.166006
C	-0.0064792139	-0.3757426379	 1.7188922726	-0.344724
C	-1.2290567335	-1.2319224947	 1.3588766839	 0.378618
N	-2.1760153656	-0.2759850208	 0.7101878735	-0.401104
C	-1.093213856	-0.901461018	-0.0900515839	-0.153739
C	-1.7297107111	-2.466119862	 2.0054458637	-0.126669
C	-0.8960329309	-3.2384442877	 2.9612738848	-0.246687
N	-2.0619798525	-2.4806721403	 3.4454137697	-0.319954
H	-0.8900323416	 1.594172696	 0.074093671	 0.290713
H	 1.0504397275	-0.385993343	-0.2481201133	 0.092364
H	 0.8501264239	-0.9514389039	 2.0759684276	 0.107405
H	-0.1960909304	 0.4683135886	 2.386381785	 0.105113
H	-3.0396213186	-0.7800985226	 0.5120142245	 0.23421
H	-1.3221344802	-1.4873395042	-0.9727373223	 0.094358
H	-2.4487195493	-3.0183985376	 1.4005066841	 0.084435
H	-0.9989982295	-4.3186438996	 3.0116031396	 0.122336
H	 0.0991956302	-2.868694471	 3.1898403169	 0.116228
H	-1.7496929826	-1.6098200261	 3.8705714981	 0.236776
65.0984	109.5597	163.3004	232.6768	329.0563	394.8159	433.908	468.7791	519.4535	606.2946	652.21	687.6114	820.0104	826.141	856.587	878.3595	921.0751	949.8026	963.7006	983.999	990.6523	1007.3669	1045.6038	1096.3224	1114.0349	1130.5775	1148.0341	1154.4518	1180.5608	1199.6105	1232.533	1259.3632	1288.8825	1298.6378	1302.5576	1350.3628	1377.6952	1443.6337	1457.9613	1483.2399	1513.6857	3064.3098	3094.8596	3104.1393	3115.0942	3127.2901	3182.8378	3199.7104	3479.7437	3489.4326	3747.0601
OC1CC2(NC12)C1CN1	O[C@H]1C[C@]2(N[C@@H]12)[C@H]1CN1	
InChI=1S/C6H10N2O/c9-3-1-6(4-2-7-4)5(3)8-6/h3-5,7-9H,1-2H2	InChI=1S/C6H10N2O/c9-3-1-6(4-2-7-4)5(3)8-6/h3-5,7-9H,1-2H2/t3-,4+,5-,6-/m0/s1
