17
gdb 74647	3.02263	1.77835	1.28676	2.9133	72.74	-0.2241	-0.0017	0.2224	979.9381	0.134264	-421.747353	-421.739543	-421.738599	-421.779268	30.686	
C	-0.0487626985	 1.5233462452	 0.0110960197	-0.507547
C	-0.0187367137	 0.0355766491	-0.0487482649	 0.218269
C	-0.0384045731	-0.8203122723	-1.076028242	-0.218518
C	 0.0351919632	-2.1920828626	-0.4369322011	-0.097635
C	-0.8098706327	-2.1633312652	 0.8801876442	 0.002478
O	 0.147961963	-3.0273318169	 1.5741023964	-0.323717
C	 0.9803489069	-2.0923967198	 0.8104301699	 0.044139
C	 0.0659909199	-0.8762008115	 1.177986158	 0.307625
O	 0.1904491761	-0.3356333857	 2.4462272867	-0.474524
H	 0.8190205582	 1.9135179738	 0.5561696849	 0.140807
H	-0.0555329875	 1.961534279	-0.9903634776	 0.129952
H	-0.9372150179	 1.8908507866	 0.5424397757	 0.11895
H	-0.0881132074	-0.6076433184	-2.1353926092	 0.106404
H	 0.04811205	-3.1065560311	-1.0245732093	 0.083773
H	-1.8768464443	-2.3460920192	 1.0350847626	 0.08842
H	 2.0662505955	-2.1890765198	 0.8819053456	 0.09468
H	-0.6177972675	 0.1399920687	 2.6646610104	 0.286445
141.2881	159.0318	183.6593	235.1111	338.0953	354.1857	415.8947	520.7757	524.7846	582.0669	692.9887	721.5585	731.7398	801.4289	842.748	880.3771	890.6662	898.5323	962.458	981.2932	1020.076	1045.818	1062.8256	1113.3548	1141.6447	1157.7111	1166.4418	1222.2426	1244.1849	1274.7344	1300.9263	1322.36	1370.1991	1412.47	1475.2681	1484.5131	1698.834	3013.5018	3062.7669	3082.0186	3097.515	3114.0159	3160.1944	3220.4562	3812.2752
CC1=CC2C3OC2C13O	CC1=C[C@@H]2[C@H]3O[C@@H]2[C@@]13O	
InChI=1S/C7H8O2/c1-3-2-4-5-7(3,8)6(4)9-5/h2,4-6,8H,1H3	InChI=1S/C7H8O2/c1-3-2-4-5-7(3,8)6(4)9-5/h2,4-6,8H,1H3/t4-,5-,6+,7-
