18
gdb 31973	3.19462	1.02906	0.82586	3.0461	76.62	-0.1944	0.0284	0.2228	1397.4675	0.1491	-435.288233	-435.278992	-435.278048	-435.323534	32.947	
C	 0.4479780702	 0.5351467424	 0.6610407317	-0.329365
N	-0.3293370839	 0.3178491639	-0.5651489149	-0.394497
C	-1.4864464174	-0.4604724255	-0.4382852088	 0.302465
C	-2.8306741639	-0.1842635813	-0.51345425	-0.176547
N	-3.572825395	-1.3372452625	-0.3655632312	-0.298409
C	-2.6991407804	-2.3025647731	-0.1978446692	 0.290812
C	-2.9893847439	-3.755852182	 0.0028123694	-0.175813
O	-2.1440539636	-4.3442766275	 0.9888534454	-0.420373
N	-1.4156973299	-1.8240793072	-0.239832478	-0.300257
H	 1.3161675775	 1.1561780961	 0.4252502009	 0.126436
H	-0.1268018352	 1.0155436566	 1.4673897287	 0.114918
H	 0.8198830957	-0.4225814634	 1.0368405949	 0.125014
H	-0.5623790216	 1.2019355411	-0.9988933136	 0.239201
H	-3.299044092	 0.7769716326	-0.6641657732	 0.095544
H	-4.0566308903	-3.8619584087	 0.2339726377	 0.123269
H	-2.792110977	-4.3283481523	-0.9116370639	 0.123233
H	-2.3348313765	-3.9080773004	 1.8263853692	 0.285982
H	-0.5791954128	-2.3762791287	-0.1471397752	 0.268387
40.4487	57.9481	114.56	166.898	202.8763	243.1788	358.4257	388.7908	422.023	485.377	549.5302	613.7297	688.2829	699.179	745.4812	780.7739	812.9859	968.4694	998.983	1020.6752	1051.6016	1073.6482	1140.6532	1152.2284	1167.5204	1191.0475	1226.1562	1291.1346	1355.8449	1386.3799	1414.2765	1447.1152	1456.5886	1488.4675	1495.1904	1498.6643	1513.2554	1558.3706	1629.2639	2988.0903	3024.7983	3063.3555	3080.0986	3117.9784	3241.3696	3567.8341	3663.2315	3804.7685
CNC1=CN=C(CO)N1	CNc1cnc(CO)[nH]1	
InChI=1S/C5H9N3O/c1-6-4-2-7-5(3-9)8-4/h2,6,9H,3H2,1H3,(H,7,8)	InChI=1S/C5H9N3O/c1-6-4-2-7-5(3-9)8-4/h2,6,9H,3H2,1H3,(H,7,8)
