15
gdb 45695	3.76736	1.41728	1.08376	4.26	66.55	-0.2452	0.0016	0.2468	1043.8427	0.115161	-453.961764	-453.954776	-453.953832	-453.993362	26.779	
O	-0.0802170011	-0.0761691216	-0.246302238	-0.356356
C	-0.0293473879	 1.1107673622	-0.0087521761	 0.382849
C	-1.3113319421	 1.9634410424	 0.1151835357	-0.283808
N	-1.210225214	 3.2085874193	 0.8911804629	-0.303044
C	-0.0675632297	 3.7067465652	 0.7910480877	 0.460849
O	 0.5392995268	 4.6964311501	 1.5185431593	-0.26291
C	 1.8525835949	 4.1075087856	 1.2126404964	-0.115096
C	 1.187697703	 3.2125024101	 0.1290603243	-0.134352
N	 1.1738235333	 1.7765075196	 0.1586090379	-0.327346
H	-1.6650446874	 2.1667199089	-0.9054100146	 0.141324
H	-2.0631112623	 1.3185496435	 0.5745359495	 0.153028
H	 2.5561203265	 4.8655792025	 0.8661653905	 0.131708
H	 2.2370711285	 3.5632490565	 2.0782796991	 0.137914
H	 1.3560913656	 3.6306704142	-0.8718602456	 0.121827
H	 1.9900922958	 1.2417244116	-0.104581899	 0.253413
101.1406	156.2339	264.7351	351.3712	403.2865	438.7285	507.4914	519.058	590.1791	637.9467	723.6276	755.2084	834.4993	882.6012	926.9436	976.2396	991.6807	1062.5016	1079.5402	1145.7789	1166.3039	1187.801	1231.5025	1242.4165	1292.4589	1319.0781	1351.857	1393.1211	1436.8409	1468.2469	1504.8992	1807.3592	1834.873	3017.4763	3019.748	3072.5765	3112.0357	3146.2219	3596.1755
O=C1CN=C2OCC2N1	O=C1C[N][C]2OC[C@H]2N1	
InChI=1S/C5H6N2O2/c8-4-1-6-5-3(7-4)2-9-5/h3H,1-2H2,(H,7,8)	InChI=1S/C5H6N2O2/c8-4-1-6-5-3(7-4)2-9-5/h3H,1-2H2,(H,7,8)/t3-/m1/s1
