18
gdb 84826	3.06174	1.17636	0.92624	3.6126	74.34	-0.2457	-0.0047	0.241	1245.6562	0.148585	-439.119415	-439.110835	-439.109891	-439.153644	31.749	
O	 0.0077321515	 1.4601174422	 0.6245587759	-0.437645
C	-0.0432174698	 0.1458519817	 0.0476419455	 0.055732
C	 0.8582494086	-0.8225295501	 0.7686687341	-0.120166
C	 0.1634228423	-1.6691176634	 1.5316680635	-0.056265
C	-1.3267721383	-1.4709374805	 1.4130324607	-0.27603
C	-1.4442610613	-0.5229245565	 0.1880781557	 0.026796
N	-2.4838021623	 0.4789764711	 0.2535692209	-0.283269
C	-3.7833411723	 0.2046610793	-0.0112815743	 0.149449
O	-4.2195601803	-0.8997584713	-0.2692006855	-0.335044
H	 0.1446477317	 1.3500891411	 1.57268286	 0.282482
H	 0.2168116121	 0.3008759303	-1.0033349948	 0.098574
H	 1.9382890298	-0.7615500974	 0.7029272736	 0.105063
H	 0.6015607975	-2.4237244385	 2.1766489653	 0.106578
H	-1.8765458032	-2.4031138089	 1.25453217	 0.133628
H	-1.745805714	-1.0146430116	 2.3192818777	 0.110782
H	-1.6222624726	-1.1451233277	-0.6943082508	 0.11384
H	-2.1779503368	 1.4251716889	 0.4313294407	 0.252755
H	-4.4186859826	 1.1117130812	 0.0355934118	 0.072739
33.2181	94.7081	156.3548	227.0421	258.7584	288.6718	374.3703	438.1812	494.7942	511.5217	622.1869	679.8329	744.1666	781.2262	804.2623	869.2179	917.3955	966.7589	980.9403	998.0059	1033.3425	1045.6779	1085.1477	1106.0494	1138.2094	1166.6135	1214.1085	1243.3986	1272.849	1308.0377	1323.4765	1363.012	1390.9826	1421.8278	1426.4404	1484.2155	1509.8645	1673.6855	1795.4162	2933.4312	3028.4046	3060.685	3075.2918	3089.8023	3183.061	3211.216	3600.9184	3794.4013
OC1C=CCC1NC=O	O[C@H]1C=CC[C@H]1NC=O	
InChI=1S/C6H9NO2/c8-4-7-5-2-1-3-6(5)9/h1,3-6,9H,2H2,(H,7,8)	InChI=1S/C6H9NO2/c8-4-7-5-2-1-3-6(5)9/h1,3-6,9H,2H2,(H,7,8)/t5-,6+/m1/s1
