20
gdb 31660	2.19599	1.34274	0.84679	0.4862	84.37	-0.192	0.0535	0.2455	1380.7455	0.17001	-403.18138	-403.1712	-403.170256	-403.217481	35.813	
C	-0.014982477	 1.4547373268	 0.0158162402	-0.332577
N	-0.0652112258	 0.0098765423	 0.0119176714	 0.010658
C	-0.0414958138	-0.7866582629	-1.1069017871	-0.186145
C	 0.0184507201	-2.105471251	-0.7147859129	 0.163676
C	 0.0387263079	-3.3065511182	-1.6112469417	-0.505125
C	 0.0383878834	-2.1034548299	 0.7155028816	 0.179025
C	 0.0805963212	-3.3038827696	 1.6061001205	-0.191237
O	 0.1698552939	-2.8729394849	 2.9575325742	-0.419103
C	-0.0101506702	-0.7916239362	 1.1254930304	-0.180805
H	 1.0145120338	 1.831835341	-0.0226617881	 0.133541
H	-0.5605006218	 1.8462791195	-0.8468364656	 0.135529
H	-0.4900622346	 1.8356217657	 0.9232284778	 0.138711
H	-0.0698022243	-0.3512224498	-2.0942985395	 0.107689
H	 0.9292408472	-3.9264803381	-1.4462739048	 0.119141
H	-0.8314423432	-3.9561730139	-1.4511563989	 0.118637
H	 0.0362501483	-3.0119037396	-2.664849015	 0.116634
H	-0.8201483719	-3.9244761856	 1.4527738693	 0.089904
H	 0.9415054667	-3.9419301912	 1.3390336181	 0.089409
H	 0.1547361146	-3.6531511886	 3.5183693614	 0.28593
H	-0.0072484047	-0.372445666	 2.1177696288	 0.126507
32.1669	85.3373	130.7285	145.2409	155.8442	217.8621	238.5437	245.9011	291.8397	360.3363	512.8064	602.4003	612.5954	624.8009	641.473	701.8879	767.4429	818.1937	1006.7907	1034.683	1040.4918	1067.075	1068.026	1090.7785	1147.5328	1166.929	1175.6168	1217.2807	1243.1048	1258.5727	1388.8123	1402.2303	1414.8825	1427.8955	1457.6653	1477.8444	1482.9495	1490.2952	1499.5965	1515.211	1519.015	1578.1928	1621.7206	2936.2871	2946.3213	3012.0251	3022.3319	3053.8602	3091.385	3099.8195	3125.886	3244.4438	3275.3682	3839.3109
CN1C=C(C)C(CO)=C1	Cn1cc(C)c(CO)c1	
InChI=1S/C7H11NO/c1-6-3-8(2)4-7(6)5-9/h3-4,9H,5H2,1-2H3	InChI=1S/C7H11NO/c1-6-3-8(2)4-7(6)5-9/h3-4,9H,5H2,1-2H3
