21
gdb 88183	3.28045	1.24808	1.0885	0.8802	87.03	-0.2185	0.0236	0.2421	1215.8131	0.183201	-387.09003	-387.08154	-387.080596	-387.122864	33.442	
C	-0.0352218355	 1.5357801013	 0.0441477369	-0.404352
C	 0.0316935153	 0.0249998614	 0.0304598503	-0.066292
C	 1.3359002496	-0.6914059093	-0.2346035435	-0.356664
C	 0.7039703475	-0.7278117264	 1.1542827403	 0.413404
O	 1.2901954978	 0.0858550027	 2.1342842741	-0.302268
C	 2.0817055314	-0.6528241773	 3.0569889633	-0.092265
C	 1.2174127418	-1.631957778	 3.8553336921	-0.260256
C	 0.3328135987	-2.4066505759	 2.9139459293	-0.099989
C	 0.1272611616	-1.9908066222	 1.6639369332	-0.092412
H	 0.852419958	 1.9614644306	 0.5161869856	 0.132458
H	-0.1078615244	 1.9284435918	-0.9759402119	 0.112005
H	-0.9091586617	 1.8863250408	 0.6033101885	 0.117873
H	-0.8565806758	-0.4622410127	-0.3650375486	 0.084742
H	 1.3382665361	-1.5931570405	-0.8374753139	 0.107648
H	 2.2253416693	-0.0761048727	-0.323481085	 0.117296
H	 2.871223821	-1.202436439	 2.5214951757	 0.094207
H	 2.5587630239	 0.0868979187	 3.7053747641	 0.102519
H	 1.8635131047	-2.3117049386	 4.4257272673	 0.101861
H	 0.6135059056	-1.0877894184	 4.5945203779	 0.114442
H	-0.1254521594	-3.3239728866	 3.2719895784	 0.087305
H	-0.4743836156	-2.5679584798	 0.9670923761	 0.088738
90.0099	159.1839	189.8779	194.507	266.7827	343.6669	366.4078	439.1728	491.6981	497.6689	569.0958	657.9279	712.545	793.4065	810.9735	874.5301	892.4923	903.3351	923.8649	955.2753	988.1107	1003.0666	1019.1334	1039.8338	1076.3613	1092.4786	1106.4723	1137.0402	1172.4012	1193.5479	1228.8698	1253.688	1294.1791	1304.6929	1363.315	1389.7603	1403.9109	1419.0195	1437.2277	1470.1393	1476.9681	1493.7857	1499.6297	1501.9611	1712.128	2987.1314	3011.9631	3035.3661	3047.1865	3091.2733	3092.9253	3122.147	3126.8749	3139.187	3155.5855	3177.7106	3218.5859
CC1CC11OCCC=C1	C[C@H]1C[C@]21OCCC=C2	
InChI=1S/C8H12O/c1-7-6-8(7)4-2-3-5-9-8/h2,4,7H,3,5-6H2,1H3	InChI=1S/C8H12O/c1-7-6-8(7)4-2-3-5-9-8/h2,4,7H,3,5-6H2,1H3/t7-,8+/m0/s1
