13
gdb 129166	5.83407	0.97093	0.83745	5.7075	64.75	-0.2295	-0.0306	0.1989	1263.1408	0.089263	-486.06828	-486.060213	-486.059269	-486.102249	28.441	
N	-0.2731902565	 1.3495709753	-0.0291426788	-0.602647
C	-0.0898743324	 0.1083805747	-0.1654358945	 0.503262
N	-1.009966684	-0.8894198508	 0.1364495004	-0.417312
C	-0.3998444493	-2.0950191408	-0.1020080372	 0.573244
N	-1.0754715359	-3.2765825459	 0.1453117718	-0.434086
C	-0.533789232	-4.5567949676	 0.1528636	 0.15775
O	 0.6180586697	-4.8292238982	-0.0333799283	-0.242075
N	 0.7959417558	-1.9790349353	-0.5785922936	-0.185358
O	 1.0097258376	-0.5597971791	-0.6256634605	-0.239854
H	 0.5510577618	 1.8731565109	-0.3125975137	 0.238283
H	-1.8508524143	-0.7115203109	 0.6576601816	 0.284353
H	-2.0704382902	-3.2046772458	 0.2948745419	 0.2663
H	-1.3256011904	-5.3006580765	 0.3650853309	 0.09814
22.3431	138.1007	155.7681	207.3148	295.3602	331.4081	374.3041	483.9974	496.3086	601.4122	673.0323	726.9279	743.6482	769.3104	850.0174	925.1936	977.4147	1013.5957	1017.4562	1072.4586	1144.0554	1258.6771	1315.989	1436.231	1442.7222	1576.3239	1677.2297	1798.9134	1851.273	2953.5657	3542.581	3625.2123	3683.6292
N=C1NC(NC=O)=NO1	[NH][C@H]1NC(=NO1)NC=O	
InChI=1S/C3H4N4O2/c4-2-6-3(5-1-8)7-9-2/h1H,(H3,4,5,6,7,8)	InChI=1S/C3H5N4O2/c4-2-6-3(5-1-8)7-9-2/h1-2,4H,(H2,5,6,7,8)/t2-/m0/s1
