16
gdb 125179	3.32966	1.52105	1.0662	5.0065	71.56	-0.2409	-0.0008	0.2402	1087.5816	0.125638	-437.884034	-437.876366	-437.875422	-437.91693	27.933	
C	 0.1029611798	 1.5208550942	 0.05544058	-0.491073
C	-0.078928175	 0.0451683407	 0.0800435589	 0.277207
C	-1.1386820569	-0.7902426912	-0.0347582471	 0.042676
C	-2.618063474	-0.9578226218	-0.1918403751	-0.401123
C	-2.7120023351	-2.5178430321	-0.3318447384	-0.087575
O	-1.4215836654	-3.0950078238	 0.0237175899	-0.265972
C	-0.556031931	-2.07103777	 0.0917280185	 0.47701
N	 0.7348911157	-2.0821909376	 0.2640238914	-0.277913
O	 1.0462330302	-0.6959786642	 0.2569025441	-0.233033
H	 0.7905158066	 1.8164015617	-0.7437148273	 0.153471
H	-0.8554413831	 2.017568142	-0.1076533963	 0.135904
H	 0.52494563	 1.8784601249	 1.000444443	 0.15349
H	-3.1763467707	-0.6051518795	 0.682150063	 0.130531
H	-3.0392126222	-0.4624860035	-1.0712347863	 0.128584
H	-3.4589965081	-2.962320026	 0.3284756289	 0.129869
H	-2.9311680908	-2.8123661638	-1.3627848673	 0.127946
76.1487	78.204	178.164	249.3143	251.7997	375.7208	528.077	590.9049	601.0177	651.0085	725.6551	772.4941	778.5473	841.3875	908.6464	938.5391	991.6402	1006.8205	1057.7921	1077.0007	1102.6534	1182.434	1209.6592	1241.1185	1272.6918	1297.9166	1374.252	1415.6851	1473.4933	1476.9695	1486.098	1500.2246	1518.0197	1609.9607	1727.6196	3042.5553	3042.9049	3056.5055	3083.6937	3099.7581	3119.6947	3136.0021
CC1=C2CCOC2=NO1	Cc1c2CCOc2no1	
InChI=1S/C6H7NO2/c1-4-5-2-3-8-6(5)7-9-4/h2-3H2,1H3	InChI=1S/C6H7NO2/c1-4-5-2-3-8-6(5)7-9-4/h2-3H2,1H3
