23
gdb 119979	3.03864	0.79222	0.77411	2.4561	82.63	-0.2471	0.0579	0.305	1648.3418	0.205005	-425.407707	-425.397265	-425.396321	-425.443776	38.477	
C	 0.15230009	 1.5091086645	 0.2578398889	-0.383302
C	-0.0061383173	-0.0131585298	 0.2503676559	-0.161937
C	-1.3936426647	-0.4672375	-0.2257642469	-0.188826
C	-1.5221941704	-1.9762813178	-0.236958063	-0.05191
C	-2.0820914467	-2.7137290727	 0.9519718816	 0.097771
O	-2.5817484393	-1.9610273261	 2.0168170517	-0.429653
C	-2.8580025129	-2.7074331678	-0.349039586	-0.141916
C	-4.1908245513	-1.9893645067	-0.37104476	-0.107525
O	-5.0608706657	-2.4278258468	 0.6878501777	-0.418854
H	 1.1487733524	 1.8054094012	 0.6003082387	 0.109688
H	 0.0065975026	 1.9286235111	-0.7442265913	 0.109944
H	-0.5812839589	 1.9791941368	 0.9220991722	 0.116586
H	 0.7638623423	-0.4594434221	-0.3931952371	 0.088748
H	 0.1674775584	-0.4097173137	 1.2579215408	 0.111352
H	-2.1471719522	-0.0388366615	 0.4418363264	 0.112252
H	-1.5845669993	-0.0653797894	-1.2304242855	 0.085967
H	-0.7036147723	-2.4814218539	-0.7454501611	 0.080744
H	-1.599063494	-3.6437037255	 1.2515740371	 0.080452
H	-3.5381330152	-2.1123474991	 2.0360209444	 0.294677
H	-2.8394218185	-3.6327383422	-0.9205127674	 0.08075
H	-4.0782466571	-0.9163270831	-0.2096327079	 0.126746
H	-4.6832598177	-2.1215114534	-1.3439794971	 0.10137
H	-5.1837316921	-3.377847122	 0.5873086479	 0.286877
52.5782	77.2118	92.1405	143.3468	196.6699	233.765	255.6949	272.3072	311.6167	372.0297	397.5385	523.8779	555.6465	614.526	653.918	746.512	782.4418	802.9675	875.6436	895.6999	913.5692	955.303	1000.3832	1032.7158	1048.8786	1055.1313	1076.1781	1123.3043	1129.218	1148.0752	1184.2404	1228.8606	1256.8176	1269.3023	1300.0563	1332.021	1353.8562	1372.9864	1376.2965	1399.758	1402.2735	1411.9747	1426.2576	1445.908	1478.6646	1491.6409	1500.6421	1508.1234	1509.0451	3010.4922	3013.97	3017.0888	3028.088	3054.7776	3083.6252	3094.1526	3096.7497	3100.8953	3115.6888	3124.0514	3135.827	3712.6184	3811.0445
CCCC1C(O)C1CO	CCC[C@H]1[C@@H](O)[C@H]1CO	
InChI=1S/C7H14O2/c1-2-3-5-6(4-8)7(5)9/h5-9H,2-4H2,1H3	InChI=1S/C7H14O2/c1-2-3-5-6(4-8)7(5)9/h5-9H,2-4H2,1H3/t5-,6+,7-/m1/s1
