18
gdb 63863	2.28712	1.63383	1.27632	5.1342	76.93	-0.2444	0.	0.2444	1060.1555	0.147619	-398.090563	-398.081881	-398.080937	-398.12338	33.38	
C	-0.0306541502	 1.5950225741	-0.060910606	-0.437238
C	 0.0235631798	 0.0740278797	 0.0060236825	 0.227011
N	-1.3280861637	-0.4461376666	-0.1230422025	-0.544902
C	 1.1264732393	-0.6611556699	-0.8329082167	-0.214604
N	 1.6827181873	-1.3730735581	 0.3760961701	-0.151225
C	 2.1764547068	-0.314829211	 1.2582842526	-0.275084
C	 0.7119109448	-0.5590838222	 1.2404003329	 0.163388
C	 0.0133157289	-1.1147058527	 2.3611108676	 0.230131
N	-0.554483075	-1.5479751223	 3.271199232	-0.343828
H	 0.9513270829	 2.0479949015	 0.0930549784	 0.117696
H	-0.3901144571	 1.9162579467	-1.0457288734	 0.118721
H	-0.7216616656	 1.9798616425	 0.6937077781	 0.144787
H	-1.7358613993	-0.1486698283	-1.0043190765	 0.231054
H	-1.3361453908	-1.4621150213	-0.1132539464	 0.240824
H	 0.7100148477	-1.3845989736	-1.5363792213	 0.112908
H	 1.8734566305	-0.0437324592	-1.3431615828	 0.107942
H	 2.7234000683	-0.6908461196	 2.1169162519	 0.14817
H	 2.5713127055	 0.6026834702	 0.8279162494	 0.124251
113.2153	142.4852	195.3495	211.9213	284.8235	288.641	361.3359	385.0316	446.4448	471.7245	521.9818	581.5201	620.4308	648.6021	775.3357	833.664	845.7631	885.1076	905.3152	955.3239	992.2141	1003.7935	1061.3233	1107.4337	1137.7189	1159.8812	1193.2417	1212.8418	1261.2108	1275.5608	1331.5982	1372.8755	1416.471	1484.0284	1488.9463	1493.3568	1508.8776	1657.4905	2348.8456	3036.2269	3044.8037	3104.1171	3110.9069	3116.0424	3132.2395	3207.6784	3489.3497	3573.9873
CC1(N)CN2CC12C#N	C[C@@]1(N)CN2C[C@@]12C#N	
InChI=1S/C6H9N3/c1-5(8)3-9-4-6(5,9)2-7/h3-4,8H2,1H3	InChI=1S/C6H9N3/c1-5(8)3-9-4-6(5,9)2-7/h3-4,8H2,1H3/t5-,6+,9?/m1/s1
