22
gdb 122721	9.20369	0.42801	0.4261	2.4047	86.4	-0.2365	0.0212	0.2577	2627.2494	0.190917	-441.468053	-441.456561	-441.455617	-441.507514	38.152	
C	 0.648868551	 1.2340781703	-0.1022380712	-0.384487
C	 0.0732716347	-0.1288693446	-0.4376000659	-0.05412
O	-1.1421087651	-0.2859159016	 0.3022825343	-0.203384
C	-1.7884152771	-1.4531135655	 0.1320616326	 0.129911
N	-2.8692868331	-1.6862333916	 0.7341090272	-0.21436
C	-3.4926106227	-2.9746934314	 0.5118559673	-0.172333
C	-3.5824967197	-3.7410471108	 1.8413536404	-0.055505
O	-4.2290680599	-4.9908389186	 1.7115522225	-0.229171
C	-5.6364386653	-4.9210108956	 1.7387982812	-0.234984
H	 1.5816573457	 1.3926825478	-0.6510910471	 0.121165
H	-0.0547605131	 2.0255291625	-0.3736211773	 0.136656
H	 0.8564082674	 1.3106860238	 0.9683623946	 0.136571
H	-0.1348844066	-0.2116552866	-1.5130478417	 0.108953
H	 0.777129204	-0.9278586785	-0.1674775635	 0.10898
H	-1.2969516563	-2.1526783068	-0.5633764617	 0.07397
H	-4.5048535968	-2.8067092763	 0.1234809022	 0.105937
H	-2.9583668871	-3.6003820951	-0.2231941182	 0.086836
H	-2.5696158368	-3.9516071843	 2.2017492177	 0.102277
H	-4.0791320059	-3.1092400337	 2.5929871593	 0.099689
H	-6.0104566552	-5.9470142774	 1.6907806388	 0.125583
H	-6.0002172764	-4.4540922416	 2.6674505601	 0.105924
H	-6.0527194058	-4.3604776344	 0.8887103583	 0.105892
26.3773	38.9643	42.558	97.239	106.9886	148.4223	176.5404	230.1099	252.0278	294.2175	362.3224	378.0768	436.8026	506.0004	621.8858	804.8752	817.5451	920.518	956.7997	987.8278	1043.3789	1059.7125	1073.812	1117.5306	1150.4656	1171.0123	1181.8887	1182.6748	1216.3234	1254.3466	1277.0854	1301.4584	1320.5061	1339.0913	1388.1116	1406.9987	1414.7171	1435.7779	1475.9241	1483.7527	1486.8886	1495.0956	1498.9654	1504.1479	1511.1177	1522.6852	1771.6333	2958.8249	2975.7311	2982.0153	2998.7082	3004.9016	3022.7342	3039.3618	3041.0113	3049.8494	3074.0865	3109.2926	3125.0749	3129.9722
CCOC=NCCOC	CCOC=NCCOC	
InChI=1S/C6H13NO2/c1-3-9-6-7-4-5-8-2/h6H,3-5H2,1-2H3	InChI=1S/C6H13NO2/c1-3-9-6-7-4-5-8-2/h6H,3-5H2,1-2H3
