16
gdb 121610	3.4053	0.88041	0.72594	2.5669	63.11	-0.2562	-0.0504	0.2059	1499.9048	0.122656	-512.213503	-512.20374	-512.202795	-512.249808	33.666	
N	-0.002281999	 1.1869044034	-0.0525353054	-0.512609
C	 0.0523444545	-0.1624221531	 0.0202746235	 0.294807
O	 1.0516491034	-0.8376305516	 0.1267507394	-0.338311
C	-1.370103316	-0.7653533619	-0.0478075199	 0.382373
O	-2.3733900784	-0.096042377	-0.115757075	-0.369107
O	-1.3278126299	-2.0918513608	-0.0193436186	-0.229673
C	-2.596804414	-2.7843923521	-0.0295257859	-0.080722
C	-2.2588805407	-4.2647562224	-0.0121970938	-0.069161
O	-1.5314756847	-4.6278581143	 1.1410899021	-0.417509
H	 0.848247948	 1.7214831512	-0.0048466261	 0.272896
H	-0.8977942145	 1.6416993564	-0.1211884883	 0.28313
H	-3.1621722386	-2.4917805682	 0.8600478838	 0.134699
H	-3.1632006492	-2.4965883905	-0.920717061	 0.126146
H	-3.1905836502	-4.8398236711	 0.0011075469	 0.118835
H	-1.7179685962	-4.5235687994	-0.9355731468	 0.103938
H	-0.7224349145	-4.1032698885	 1.1386800651	 0.300268
31.9674	68.5552	72.7449	131.1932	191.6563	292.1231	300.2832	317.2379	383.4806	423.7887	485.1517	494.9317	547.1992	635.5473	654.0701	835.3172	844.8725	888.1715	933.274	1027.326	1091.5002	1096.8232	1126.803	1234.9152	1262.9506	1265.021	1365.679	1394.9602	1407.1895	1432.9233	1493.211	1496.6036	1592.6553	1803.5022	1827.3039	2991.8182	3055.4649	3083.2866	3112.1329	3601.5003	3742.9982	3801.4176
NC(=O)C(=O)OCCO	NC(=O)C(=O)OCCO	
InChI=1S/C4H7NO4/c5-3(7)4(8)9-2-1-6/h6H,1-2H2,(H2,5,7)	InChI=1S/C4H7NO4/c5-3(7)4(8)9-2-1-6/h6H,1-2H2,(H2,5,7)
