18
gdb 53276	2.46239	0.99556	0.83392	2.9184	82.9	-0.236	-0.0166	0.2195	1453.8861	0.144724	-401.917583	-401.907362	-401.906418	-401.954792	35.07	
C	 0.2426019273	 1.392348663	-0.8885412538	-0.502181
C	 0.1175696414	 0.007412141	-0.4594048221	 0.115051
C	 0.008038321	-1.1366905476	-0.0978690205	 0.122338
C	-0.0505786205	-2.5170023089	 0.2969188915	-0.250479
N	-0.7461691986	-2.8764223699	 1.541950995	-0.323265
C	-1.3035265663	-3.3681043752	 0.2781726592	-0.122575
C	-2.6492694081	-2.8664532362	-0.1791416491	 0.392302
C	-3.2437802054	-1.6670610427	 0.5202903571	-0.487798
O	-3.2110658793	-3.4536082258	-1.0778646834	-0.309562
H	 1.2660535973	 1.6142679484	-1.2098369389	 0.153321
H	-0.4249936669	 1.6109906447	-1.7290864086	 0.154697
H	-0.0072170761	 2.0822529892	-0.0752001025	 0.154556
H	 0.851174916	-3.0794077883	 0.0586111375	 0.117909
H	-0.2458646979	-3.6178694503	 2.0248733745	 0.244301
H	-1.1404470331	-4.4044739809	-0.009576171	 0.105899
H	-2.5891321995	-0.7981698676	 0.4007212167	 0.154664
H	-4.2290974535	-1.4592333444	 0.1019599702	 0.131265
H	-3.3108763978	-1.8561532585	 1.5958890081	 0.149558
26.0265	45.1049	82.3339	122.2333	139.3081	203.1263	244.522	320.3334	339.7566	451.4581	479.1613	495.2717	560.2492	625.8385	703.3825	778.2313	850.7882	903.4937	943.5346	977.6917	1050.4353	1052.3473	1052.9286	1080.9847	1127.299	1164.1788	1195.8331	1246.4933	1281.3081	1384.3877	1396.819	1413.9936	1438.6195	1459.9698	1469.7359	1475.8711	1477.2847	1798.6324	2368.8647	3029.3241	3050.2643	3091.5152	3092.6003	3112.5072	3115.7496	3140.1626	3158.0546	3508.5858
CC#CC1NC1C(C)=O	CC#C[C@H]1N[C@H]1C(=O)C	
InChI=1S/C7H9NO/c1-3-4-6-7(8-6)5(2)9/h6-8H,1-2H3	InChI=1S/C7H9NO/c1-3-4-6-7(8-6)5(2)9/h6-8H,1-2H3/t6-,7+/m1/s1
