17
gdb 45591	2.67103	1.68296	1.31303	2.7173	68.39	-0.2322	-0.0269	0.2053	992.5046	0.136768	-458.957013	-458.949704	-458.94876	-458.988876	28.452	
O	-0.0867583087	-0.0675524844	 0.0739151752	-0.2911
C	-0.0740234815	 1.1255285046	 0.061078292	 0.348309
C	-1.1550565111	 2.2271705567	 0.1743970825	-0.356203
C	-0.0441128218	 3.152115254	 0.7221072402	 0.056538
O	-0.0357102051	 3.0337703199	 2.1352404143	-0.268988
C	 1.2775962318	 3.1098364202	 2.6802510063	-0.082688
C	 2.1325039982	 1.9670249761	 2.1533869886	-0.092267
O	 2.2635937969	 2.0525074615	 0.7347848826	-0.257307
C	 1.0377313766	 2.2170501092	 0.0953970433	 0.022545
H	-1.538634122	 2.5378223779	-0.8019059902	 0.130619
H	-1.9833988511	 2.0259561378	 0.854466187	 0.144882
H	-0.0391216018	 4.202956399	 0.4107290296	 0.076723
H	 1.7464824036	 4.0751395721	 2.4325449687	 0.099696
H	 1.1659023688	 3.0429495023	 3.7660669503	 0.117433
H	 3.1477062127	 2.0151329652	 2.5563161137	 0.115462
H	 1.6805975333	 1.0059317413	 2.4375090541	 0.119854
H	 1.244971421	 2.5159982064	-0.9396792281	 0.116491
94.8102	149.6006	238.2651	343.3868	373.6223	411.8472	435.3228	497.6103	574.1181	663.1632	705.5872	756.7007	824.0564	880.1339	897.1733	922.3083	969.949	1023.2372	1038.3161	1066.8977	1097.6533	1119.6322	1142.7675	1185.8411	1199.1169	1230.2832	1255.1931	1281.6198	1307.1373	1349.9053	1363.0812	1403.8599	1414.4491	1432.5613	1488.3906	1493.0286	1902.2912	2988.4003	3013.6133	3037.1384	3046.8943	3073.6116	3095.7343	3100.5214	3145.2534
O=C1CC2OCCOC12	O=C1C[C@H]2OCCO[C@@H]12	
InChI=1S/C6H8O3/c7-4-3-5-6(4)9-2-1-8-5/h5-6H,1-3H2	InChI=1S/C6H8O3/c7-4-3-5-6(4)9-2-1-8-5/h5-6H,1-3H2/t5-,6+/m1/s1
