20
gdb 55382	2.4401	1.38905	1.0469	3.4252	81.86	-0.2274	0.0207	0.2481	1213.8532	0.17109	-403.208477	-403.198897	-403.197952	-403.243556	34.919	
C	 0.0720193824	 1.5166506378	-0.1663314797	-0.498963
C	 0.0703273351	 0.0215238676	-0.1009754244	 0.357402
C	 0.0297886495	-0.832277301	-1.1248678337	-0.174079
C	-0.017027638	-2.2741440507	-0.6939557777	-0.258646
C	 0.3262479709	-2.1954352102	 0.8131073434	-0.229445
C	 0.0569266375	-0.7297276445	 1.230733437	-0.183198
C	 1.116991898	-0.2021827836	 2.2061835986	 0.398771
N	 0.6491247379	 0.6693486164	 3.1477519032	-0.522
O	 2.293086617	-0.5015239474	 2.131045071	-0.3656
H	 0.9644284186	 1.937965737	 0.3114895512	 0.140218
H	 0.0424681828	 1.8675903567	-1.2012091543	 0.123747
H	-0.7936028153	 1.9421263733	 0.3591627582	 0.112683
H	-0.0075682338	-0.529585566	-2.1666834939	 0.084861
H	-1.0160410967	-2.6994439815	-0.868310402	 0.100348
H	 0.6847160913	-2.9097261419	-1.2461526298	 0.105655
H	-0.2321795675	-2.9129152757	 1.4195249044	 0.09193
H	 1.3924865195	-2.3824187019	 0.9618374506	 0.13808
H	-0.9350375469	-0.6149977676	 1.69496738	 0.06309
H	-0.3297930975	 0.8617254081	 3.2622313341	 0.256232
H	 1.3006083752	 1.0443435951	 3.817869564	 0.258914
38.4917	86.604	141.1849	154.9354	186.9659	246.1622	265.8791	342.1112	378.7055	461.4999	573.7667	586.4849	634.7336	663.4773	738.1907	810.6461	848.5469	876.8964	929.8245	948.6179	966.7735	1016.1771	1041.0951	1066.1471	1070.4803	1094.3188	1168.8662	1191.4028	1241.9824	1254.3961	1273.5491	1307.1958	1317.7388	1353.5797	1391.4086	1415.8273	1480.0392	1484.1702	1488.1899	1500.4792	1614.325	1723.8747	1795.3249	2973.8579	3001.7817	3014.617	3050.6998	3065.026	3068.3157	3112.2354	3118.3971	3180.2346	3602.3162	3741.4396
CC1=CCCC1C(N)=O	CC1=CCC[C@H]1C(=O)N	
InChI=1S/C7H11NO/c1-5-3-2-4-6(5)7(8)9/h3,6H,2,4H2,1H3,(H2,8,9)	InChI=1S/C7H11NO/c1-5-3-2-4-6(5)7(8)9/h3,6H,2,4H2,1H3,(H2,8,9)/t6-/m1/s1
