15
gdb 81722	3.16136	1.34091	1.05298	5.1323	72.67	-0.2685	-0.0498	0.2187	1115.0385	0.111737	-416.789946	-416.781774	-416.780829	-416.822794	29.837	
C	-0.2679248883	 1.5433422263	-0.0327236406	-0.42153
C	 0.1091339202	 0.0744524677	-0.0056440616	-0.060612
N	 0.7861047987	-0.5247490335	-1.2255815192	-0.148087
C	 2.1114341375	 0.0639402788	-1.301096727	-0.26478
C	 1.9113633347	-1.067584519	-0.3335435308	 0.077372
C	 2.521084158	-2.3499157486	-0.4723029402	 0.207472
N	 3.0226913491	-3.3892761194	-0.5487681536	-0.328781
C	 1.224843545	-0.4953558654	 0.8982363257	 0.34557
O	 1.3898543816	-0.6094600202	 2.0718194156	-0.277212
H	 0.5873255776	 2.1988719169	-0.2139505533	 0.129904
H	-1.0160211738	 1.7278923401	-0.8092481516	 0.145234
H	-0.701473485	 1.8213097866	 0.9322732779	 0.152116
H	-0.7814832603	-0.5361527019	 0.185955078	 0.139528
H	 2.6512747283	-0.1815524638	-2.2100262212	 0.163434
H	 2.3014578467	 1.0588857954	-0.9081696381	 0.140372
102.7521	132.2259	180.1139	184.4738	232.8961	305.859	396.4918	454.9696	540.9359	556.647	616.4719	665.0026	728.6516	764.2781	821.6853	869.9399	917.9603	986.751	1074.0086	1091.2644	1118.395	1137.0201	1168.0346	1213.7369	1261.0354	1321.4744	1360.2241	1409.007	1487.2798	1492.4849	1507.2335	1910.1347	2353.891	3048.5635	3050.1793	3119.7162	3121.4969	3127.9085	3215.638
CC1N2CC2(C#N)C1=O	C[C@H]1N2C[C@@]2(C#N)C1=O	
InChI=1S/C6H6N2O/c1-4-5(9)6(2-7)3-8(4)6/h4H,3H2,1H3	InChI=1S/C6H6N2O/c1-4-5(9)6(2-7)3-8(4)6/h4H,3H2,1H3/t4-,6+,8?/m1/s1
