18
gdb 103913	3.4672	0.86531	0.77537	1.8586	71.52	-0.2501	0.0181	0.2683	1476.9422	0.144955	-476.185997	-476.176115	-476.17517	-476.221553	35.202	
O	-0.0785768264	 1.3005771191	-0.4968403034	-0.435863
C	 0.0101470482	 0.0420341331	 0.172702572	-0.148488
C	-1.3781164227	-0.5455704118	 0.119543627	 0.399742
O	-2.3477443945	 0.2884408561	 0.6787798755	-0.481475
C	-1.7774285749	-1.4280349608	-1.0534598388	-0.377932
C	-1.5974791004	-1.9991842648	 0.3386748654	 0.043883
O	-0.4616929454	-2.7765274	 0.6350562215	-0.194835
C	-0.5135837123	-4.0700032322	 0.2429728287	 0.132904
N	 0.4579839717	-4.8359684834	 0.48697734	-0.439586
H	 0.680537904	 1.8326364389	-0.2432766036	 0.295447
H	 0.73763212	-0.6244309711	-0.305107839	 0.110553
H	 0.3024727867	 0.1760564755	 1.2234467903	 0.107792
H	-2.1870792628	 1.1583432284	 0.2893574102	 0.291188
H	-2.7911648809	-1.3399289166	-1.4263543611	 0.124817
H	-1.0175265052	-1.6586938825	-1.7920719504	 0.127612
H	-2.4883794577	-2.2730276785	 0.8986001344	 0.120207
H	-1.4460758745	-4.3296733448	-0.274380773	 0.09344
H	 0.2609336872	-5.7692529747	 0.1315254842	 0.230593
54.8577	88.2132	101.4581	120.2084	203.7373	244.6999	277.9089	308.0466	360.235	406.4497	446.8627	469.3783	611.8753	632.396	731.5211	825.2198	880.3112	916.6089	928.8261	1007.6941	1022.7644	1044.2433	1049.3303	1051.607	1058.841	1107.9383	1168.9993	1223.1772	1235.7124	1277.1138	1287.2116	1302.6511	1368.0007	1416.5641	1421.4955	1454.4002	1508.0489	1512.4815	1747.6446	3007.8247	3039.7849	3060.2872	3138.6159	3141.455	3236.7271	3518.0254	3767.3597	3843.1251
OCC1(O)CC1OC=N	OC[C@@]1(O)C[C@H]1O[CH][NH]	
InChI=1S/C5H9NO3/c6-3-9-4-1-5(4,8)2-7/h3-4,6-8H,1-2H2	InChI=1S/C5H9NO3/c6-3-9-4-1-5(4,8)2-7/h3-4,6-8H,1-2H2/t4-,5+/m1/s1
