15
gdb 14805	2.58995	2.09649	1.31965	4.0462	70.95	-0.2705	0.0186	0.289	923.9894	0.118577	-325.495818	-325.488105	-325.48716	-325.528102	28.251	
C	-0.4669400754	-1.1252120211	-0.5727726958	-0.428288
C	-0.2606224142	 0.0137861501	-0.2490658892	 0.316089
C	 0.0025061286	 1.3748609626	 0.1566843036	-0.169182
C	 0.1552869046	 1.7118624834	 1.673477623	-0.222338
C	 1.2905231231	 2.7020358577	 1.3151386384	-0.231568
C	 1.4360693678	 2.0046949472	-0.0790076311	-0.179805
C	 2.5206709326	 1.0383154726	-0.1357817544	 0.289254
N	 3.3952176739	 0.2827968313	-0.1693907941	-0.32541
H	-0.6415143257	-2.1324757204	-0.8606228842	 0.203999
H	-0.7264661916	 2.0520726579	-0.3001972726	 0.117218
H	-0.7281818824	 2.1058171526	 2.1776961435	 0.116036
H	 0.5287981511	 0.8473329893	 2.225741836	 0.135382
H	 0.9323594299	 3.7266632959	 1.1933425236	 0.118449
H	 2.1768158326	 2.7056706329	 1.9490610317	 0.13213
H	 1.5077066549	 2.665298738	-0.9458702585	 0.128035
81.5934	106.7879	184.2007	213.7862	270.4411	438.7771	488.0485	513.1634	606.1561	632.5844	653.1062	686.3068	750.1617	796.0565	901.2057	935.3146	957.2464	1009.6612	1068.5614	1090.806	1100.1347	1195.3324	1230.7936	1238.9075	1269.6768	1273.2292	1333.2445	1358.1255	1482.7757	1496.9284	2239.745	2355.2775	3052.8409	3078.6395	3081.3855	3090.4903	3134.6332	3149.2643	3504.0702
C#CC1CCC1C#N	C#C[C@H]1CC[C@H]1C#N	
InChI=1S/C7H7N/c1-2-6-3-4-7(6)5-8/h1,6-7H,3-4H2	InChI=1S/C7H7N/c1-2-6-3-4-7(6)5-8/h1,6-7H,3-4H2/t6-,7-/m0/s1
