24
gdb 118093	3.05641	0.86492	0.75474	1.8495	85.7	-0.2361	0.0569	0.293	1636.8131	0.215663	-405.529884	-405.518901	-405.517957	-405.566215	40.324	
C	 0.1640651327	 1.5599676338	-0.1513548603	-0.382961
C	 0.0246946963	 0.0421152741	-0.0098723746	-0.166544
C	 0.8033418807	-0.517604605	 1.1878669874	-0.212784
C	 0.6855161631	-2.038695887	 1.34539184	 0.042139
O	 1.1625537929	-2.7135004264	 0.1788159817	-0.437616
C	 1.3752957634	-2.580696432	 2.6068709786	 0.336333
C	 0.9339398946	-1.9610653554	 3.9175569521	-0.456872
C	 1.8035392198	-4.0008655755	 2.5959622339	-0.27955
N	 2.8091815403	-2.9156650548	 2.537504087	-0.357455
H	 1.2103944849	 1.8514106271	-0.2968540674	 0.113846
H	-0.4070901124	 1.9339838258	-1.0065151765	 0.115132
H	-0.1990493911	 2.0768219176	 0.7439484083	 0.116065
H	-1.0347332107	-0.2232452442	 0.10123266	 0.100985
H	 0.3572656899	-0.4476504143	-0.9325889464	 0.09668
H	 1.8688340944	-0.2508478944	 1.1048409979	 0.092899
H	 0.4456669674	-0.0331545264	 2.1025494238	 0.10921
H	-0.380880833	-2.2979201347	 1.4183684073	 0.086341
H	 1.8162057183	-2.1509965626	-0.2475499507	 0.284735
H	-0.1559982453	-2.0082792217	 4.0280605924	 0.11084
H	 1.38480022	-2.4970082487	 4.756018096	 0.126612
H	 1.2393292693	-0.9130981416	 3.9961355767	 0.121027
H	 1.7979116742	-4.5686363988	 3.5226264127	 0.105941
H	 1.6318136652	-4.5766104005	 1.6929844008	 0.123709
H	 3.113885245	-2.8432160845	 1.5683167294	 0.211287
51.1998	86.5536	106.3602	135.1179	180.9194	205.0901	250.3733	283.0652	299.6339	320.522	359.8179	371.1861	433.0526	508.137	566.9108	742.2884	750.1788	844.9473	852.347	900.8241	905.2338	934.68	980.1771	989.0824	1023.8387	1048.0645	1072.0918	1085.8781	1100.1568	1113.3601	1132.049	1159.9667	1240.9441	1265.4768	1289.4393	1303.504	1319.6003	1342.6911	1365.1667	1371.7334	1394.9826	1407.6951	1415.3486	1421.5034	1479.3196	1486.9072	1493.0266	1500.4797	1500.8184	1504.0018	1511.5768	2988.9212	3004.1401	3025.5746	3029.8552	3031.7548	3053.5488	3077.2289	3096.2221	3097.6427	3104.0166	3114.3295	3121.3951	3210.435	3479.4409	3823.2033
CCCC(O)C1(C)CN1	CCC[C@@H](O)[C@@]1(C)CN1	
InChI=1S/C7H15NO/c1-3-4-6(9)7(2)5-8-7/h6,8-9H,3-5H2,1-2H3	InChI=1S/C7H15NO/c1-3-4-6(9)7(2)5-8-7/h6,8-9H,3-5H2,1-2H3/t6-,7-/m1/s1
