20
gdb 85167	2.35417	1.50977	1.11087	3.0178	78.51	-0.2418	-0.028	0.2138	1162.0475	0.170503	-403.129469	-403.120509	-403.119565	-403.163657	33.431	
C	-0.1127929751	 1.5692668346	-0.0504212357	-0.392083
C	 0.0187557396	 0.0494102733	-0.0445593501	-0.022493
C	 1.2294683863	-0.4870864866	-0.8765468765	-0.345322
C	 1.9515718476	-0.7406369144	 0.4503177519	 0.388343
O	 3.1040156751	-0.8666744285	 0.7616342515	-0.309956
C	 0.6560145082	-0.5700905963	 1.260194466	-0.134954
C	 0.6764728152	 0.1828467128	 2.5687376636	-0.012269
C	 1.6994726731	-0.1107044256	 3.6042361718	-0.24671
N	 1.7117334806	 1.1803830067	 2.8915196787	-0.323718
H	 0.832679625	 2.0607244222	 0.2021948065	 0.127162
H	-0.4195806637	 1.9233744303	-1.0400138153	 0.117349
H	-0.8592550823	 1.9074616642	 0.6746029723	 0.126497
H	-0.935581542	-0.4091378857	-0.3124747266	 0.078445
H	 1.0204391672	-1.4200083338	-1.4097913729	 0.130604
H	 1.7228157233	 0.205659186	-1.5638669966	 0.128841
H	 0.2245713223	-1.5675913857	 1.4234935739	 0.110203
H	-0.313175889	 0.4814847171	 2.9124485631	 0.094626
H	 1.4362119285	-0.0549731796	 4.6568305089	 0.114523
H	 2.4715660789	-0.8319812108	 3.3541107243	 0.133134
H	 2.4514663712	 1.1479134697	 2.1935505814	 0.237778
59.6821	74.2971	151.7171	161.889	244.8074	301.7026	355.0585	362.9921	425.0037	496.8121	606.7601	696.4012	704.0662	795.6949	833.5894	855.5883	877.2329	893.8957	957.9594	994.5157	1002.5243	1029.3177	1083.1473	1086.3254	1107.6199	1133.5079	1142.0414	1156.7279	1192.0331	1207.361	1239.4777	1268.6989	1273.6534	1309.9931	1328.5093	1366.509	1405.2849	1417.8053	1440.73	1491.3471	1500.4014	1506.2563	1866.778	3015.0087	3034.7557	3055.4862	3076.9322	3103.8539	3105.5447	3109.4272	3113.1405	3114.8788	3205.7252	3501.6591
CC1CC(=O)C1C1CN1	C[C@H]1CC(=O)[C@H]1[C@H]1CN1	
InChI=1S/C7H11NO/c1-4-2-6(9)7(4)5-3-8-5/h4-5,7-8H,2-3H2,1H3	InChI=1S/C7H11NO/c1-4-2-6(9)7(4)5-3-8-5/h4-5,7-8H,2-3H2,1H3/t4-,5+,7+/m0/s1
