23
gdb 108570	2.33249	1.32689	1.14584	1.2674	85.41	-0.2525	0.0762	0.3287	1233.5694	0.206624	-388.290682	-388.28112	-388.280176	-388.32496	36.127	
C	-0.3098106401	 1.5088615098	 0.0378723448	-0.427949
C	-0.0008043122	 0.0272802634	 0.0939237729	-0.033771
C	 1.2957306096	-0.639595231	-0.3163876108	-0.118871
C	 2.5853664472	 0.1633929584	-0.4244336154	-0.21967
C	 2.7627520463	 0.8924422499	 0.9337705442	-0.226523
C	 1.8379047505	 0.1688804464	 1.9487696595	-0.267379
C	 0.85110845	-0.668205117	 1.135960427	 0.357054
C	 0.325984427	-1.9223019983	 1.77673116	-0.177039
O	-0.4893512117	-1.5533379623	 2.8856883751	-0.424206
H	 0.5133322321	 2.1399163519	 0.3757614612	 0.119302
H	-0.5592025943	 1.8130502153	-0.9851988226	 0.113981
H	-1.175222932	 1.737847805	 0.6694075341	 0.122602
H	-0.8685329386	-0.569759865	-0.1831402171	 0.078326
H	 1.2156342139	-1.53061934	-0.9328415826	 0.071425
H	 3.4151327793	-0.5305871666	-0.6009589629	 0.09739
H	 2.5822420233	 0.8650410957	-1.2662666926	 0.096615
H	 3.8060228777	 0.8787116583	 1.2624078987	 0.094731
H	 2.4909323471	 1.9470105709	 0.8431307374	 0.106686
H	 2.4196188573	-0.5085766575	 2.5851320701	 0.093049
H	 1.3382516196	 0.8711171922	 2.6231651684	 0.106516
H	-0.2493985511	-2.5054953976	 1.0393973328	 0.07681
H	 1.1693652195	-2.5520136028	 2.1076959456	 0.077111
H	-0.7378545504	-2.356212779	 3.3535088622	 0.28381
83.3694	121.1309	142.5168	161.6778	174.3503	250.0528	260.5814	322.5025	369.8964	452.8563	498.8585	619.3171	670.9988	710.4925	752.1089	822.0642	857.3367	895.5341	910.9984	941.7652	995.8669	1011.0756	1027.2132	1044.7782	1059.7856	1090.4618	1115.8773	1126.8993	1134.8939	1178.8749	1212.648	1233.4886	1247.3839	1253.6507	1274.1564	1305.7055	1328.6061	1328.9589	1356.2429	1372.829	1414.7068	1446.8719	1473.1645	1486.7421	1491.059	1499.2866	1507.572	1515.9458	1520.9605	2949.9606	2980.9443	3031.6447	3032.5004	3034.4085	3058.1539	3062.9494	3074.5202	3085.9789	3098.6235	3107.4957	3138.3634	3144.1335	3823.6227
CC1C2CCCC12CO	C[C@H]1[C@H]2CCC[C@@]12CO	
InChI=1S/C8H14O/c1-6-7-3-2-4-8(6,7)5-9/h6-7,9H,2-5H2,1H3	InChI=1S/C8H14O/c1-6-7-3-2-4-8(6,7)5-9/h6-7,9H,2-5H2,1H3/t6-,7+,8+/m0/s1
