23
gdb 93133	2.08577	1.7896	1.27563	0.2656	89.63	-0.2326	0.0302	0.2628	1123.4488	0.208331	-351.152906	-351.14451	-351.143566	-351.185258	34.214	
C	-0.2164064259	 1.5528995305	-0.2985292299	-0.408177
C	-0.0400915626	 0.0536886306	-0.01551685	-0.006689
C	 0.5738477903	-0.6934497699	-1.2190456325	-0.250603
C	 1.986634307	-0.3457462919	-1.6286270021	-0.028692
C	 2.9741382237	 0.2504642289	-0.9557525098	-0.05464
C	 2.9687897231	 0.7949504152	 0.4551826735	-0.287492
C	 2.1732352827	-0.0148345758	 1.4685151892	 0.009297
C	 1.1316702476	 0.6390144679	 2.3475556156	-0.328705
C	 0.7111298567	-0.32023336	 1.260522449	 0.003206
H	 0.7268807379	 2.0589901557	-0.5166612924	 0.126562
H	-0.8630128915	 1.688823912	-1.1721742769	 0.10836
H	-0.6912658602	 2.0615454159	 0.5455768146	 0.114437
H	-1.0562592825	-0.3476768399	 0.1035156988	 0.070203
H	 0.5290270649	-1.7757039239	-1.0202648647	 0.103037
H	-0.0743287658	-0.5426637842	-2.0938699472	 0.0933
H	 2.2204138236	-0.6557135757	-2.6470932059	 0.079062
H	 3.9096704134	 0.3962692965	-1.4938258166	 0.07843
H	 4.0056955389	 0.8694342458	 0.8044180246	 0.099094
H	 2.608388917	 1.8330565213	 0.4394166604	 0.110047
H	 2.7470252471	-0.8174184691	 1.9241101315	 0.079177
H	 1.0366048493	 0.3251781353	 3.3816488208	 0.104389
H	 0.9546874152	 1.6981836038	 2.1915559948	 0.109042
H	 0.41862978	-1.3045196689	 1.6203479551	 0.077356
130.8929	151.8671	215.3117	246.7058	306.5418	326.7703	374.3387	409.8396	433.7528	481.4313	652.9383	684.2183	699.808	775.8656	807.5485	832.5805	865.2326	883.9812	927.2856	935.0845	969.1097	1004.2081	1011.4311	1049.3443	1055.298	1068.1404	1075.8624	1118.9166	1141.1595	1146.3438	1172.0809	1238.6169	1249.4178	1260.1091	1286.8314	1324.2091	1352.1952	1379.5879	1390.2369	1393.446	1411.8646	1426.2812	1432.968	1470.935	1477.3105	1496.4196	1501.4413	1506.8689	1728.195	2984.1167	3000.1114	3006.8215	3017.9359	3040.8224	3042.1263	3100.3099	3113.102	3116.4998	3125.2744	3128.7171	3137.5901	3141.1985	3211.4705
CC1CC=CCC2CC12	C[C@H]1CC=CC[C@H]2C[C@@H]12	
InChI=1S/C9H14/c1-7-4-2-3-5-8-6-9(7)8/h2-3,7-9H,4-6H2,1H3	InChI=1S/C9H14/c1-7-4-2-3-5-8-6-9(7)8/h2-3,7-9H,4-6H2,1H3/t7-,8-,9-/m0/s1
