14
gdb 127208	3.44258	1.30012	0.94941	2.0543	68.01	-0.2404	-0.0804	0.16	1137.2771	0.101397	-470.050312	-470.042134	-470.04119	-470.083404	28.636	
C	-0.0105751245	 1.4667062751	 0.0170600029	-0.359818
N	 0.0063958722	 0.0170115756	 0.0404677487	-0.173243
C	-0.0029715719	-0.743627952	-1.1328059213	 0.468735
O	-0.025234649	-0.363795661	-2.281698833	-0.419694
N	 0.0197329929	-2.0340554019	-0.6229549793	-0.28728
N	 0.0401940341	-2.1012211517	 0.7281804551	-0.217363
C	 0.0316446352	-0.8520137784	 1.1162953153	 0.275138
C	 0.0481481693	-0.4286832685	 2.5285695255	 0.093657
O	 0.0699804389	-1.1883301857	 3.4641096637	-0.237177
H	 0.8867354775	 1.8832565512	 0.483493991	 0.148761
H	-0.0353433062	 1.7577717649	-1.0348912002	 0.180998
H	-0.8973770664	 1.8625432264	 0.5200692276	 0.148728
H	 0.0193658455	-2.8774496831	-1.1721404023	 0.292713
H	 0.0386110225	 0.6727895192	 2.6707774362	 0.085845
105.2677	137.8612	145.969	189.3481	227.1618	288.8795	320.7361	418.7003	508.1136	547.3442	688.2187	690.4457	754.6332	805.0436	827.9149	975.8084	1020.4293	1102.1466	1157.8527	1182.0288	1228.262	1340.933	1388.4054	1397.5507	1452.2159	1490.2774	1498.1665	1508.7858	1568.0384	1810.0478	1850.7364	2906.469	3044.133	3110.507	3144.6677	3675.0993
CN1C(=O)NN=C1C=O	Cn1c(=O)[nH]nc1C=O	
InChI=1S/C4H5N3O2/c1-7-3(2-8)5-6-4(7)9/h2H,1H3,(H,6,9)	InChI=1S/C4H5N3O2/c1-7-3(2-8)5-6-4(7)9/h2H,1H3,(H,6,9)
