18
gdb 95433	2.61851	1.37621	0.96841	5.3165	78.86	-0.2057	-0.0204	0.1853	1209.9549	0.146855	-439.11351	-439.104159	-439.103215	-439.148087	33.751	
C	-0.0048165516	 1.522671913	 0.0060836568	-0.497012
C	 0.0454786354	 0.0026645248	 0.0049232565	 0.285067
O	 1.1119594846	-0.5945799723	-0.0089054304	-0.347971
C	-1.2334015772	-0.7065093845	 0.0187078452	 0.179301
C	-1.3391473312	-2.0583724587	 0.0301342898	-0.05636
N	-2.6194775199	-2.5119529045	-0.0560832373	-0.289176
C	-3.5469886192	-1.3742455587	-0.0178218199	-0.181537
C	-2.6240955467	-0.1138981693	 0.0728171575	-0.060172
O	-2.7949919668	 0.5943289965	 1.305393933	-0.422003
H	 1.0070400721	 1.9178539244	 0.1015343357	 0.128648
H	-0.4435575057	 1.8859149124	-0.9321025144	 0.121922
H	-0.6408007394	 1.8824503635	 0.8194459223	 0.144649
H	-0.5118204484	-2.7555871476	 0.0636613778	 0.150475
H	-2.8815254531	-3.4092559266	 0.3185873702	 0.253623
H	-4.1747380458	-1.3680664614	-0.9151580386	 0.114662
H	-4.194237896	-1.4116817058	 0.864509604	 0.119312
H	-2.8284636054	 0.5685878828	-0.7632688422	 0.076761
H	-3.5571108356	 1.1761591319	 1.2130924839	 0.279809
62.8106	81.9935	131.7237	171.8611	189.3543	282.7227	334.8063	356.495	384.8257	409.1225	504.0491	544.5245	610.982	656.8419	774.0743	850.5801	892.4935	957.6893	962.7628	985.7645	1019.6566	1045.3033	1069.2103	1111.0704	1163.1771	1219.8308	1233.043	1265.8845	1295.7813	1346.703	1356.2065	1387.0992	1415.6767	1469.1378	1470.8919	1476.0879	1508.148	1634.3503	1745.3986	2999.9467	3030.4517	3038.1723	3083.5315	3103.7847	3155.5205	3232.2687	3637.7182	3802.2171
CC(=O)C1=CNCC1O	CC(=O)C1=CNC[C@H]1O	
InChI=1S/C6H9NO2/c1-4(8)5-2-7-3-6(5)9/h2,6-7,9H,3H2,1H3	InChI=1S/C6H9NO2/c1-4(8)5-2-7-3-6(5)9/h2,6-7,9H,3H2,1H3/t6-/m1/s1
