22
gdb 12313	2.69173	1.95478	1.2062	0.0335	85.52	-0.2165	0.0378	0.2542	1077.1884	0.201249	-313.106425	-313.097732	-313.096788	-313.139207	33.19	
C	-0.0136165184	 1.5641717304	 0.1864047932	-0.481051
C	-0.0216303644	 0.0683519082	-0.0075580548	 0.219543
C	-0.0600676447	-0.5550065255	-1.1957585316	 0.219515
C	-0.1567224004	 0.1349788814	-2.5335623326	-0.481034
C	-0.0181303466	-2.0675807577	-1.313878879	-0.264746
C	 0.4125003128	-2.7843707936	-0.0313309344	-0.202505
C	-0.3128223361	-2.1834364778	 1.1730836953	-0.202505
C	 0.0286272	-0.6965461639	 1.3024015888	-0.264759
H	 0.8181505389	 1.8561858947	 0.8412928913	 0.118195
H	 0.0852862865	 2.1307956229	-0.7398565422	 0.117672
H	-0.9301094528	 1.8993513057	 0.6905690065	 0.119058
H	-0.3210238733	 1.2107724864	-2.4666881458	 0.117663
H	 0.7523559103	-0.031097487	-3.1272576405	 0.119043
H	-0.9839119029	-0.2885588916	-3.1186888428	 0.118206
H	-1.0116183666	-2.4268023664	-1.6261094812	 0.099225
H	 0.6535822506	-2.3396597177	-2.1396761293	 0.093434
H	 0.2169205231	-3.859137938	-0.1146987869	 0.087154
H	 1.4960033894	-2.6705678208	 0.1058362474	 0.094036
H	-1.3962099736	-2.3001060475	 1.0374200136	 0.094036
H	-0.0523077336	-2.7131007027	 2.0960756783	 0.087154
H	 1.031997583	-0.5813299649	 1.7423096553	 0.099229
H	-0.651508691	-0.2160877246	 2.0191599014	 0.093438
121.4912	135.5026	142.541	154.3915	302.3071	326.9122	356.1734	359.3847	445.7355	459.9428	532.101	599.5207	676.1839	832.7345	846.0938	877.1607	895.8269	930.3126	994.6888	1021.3539	1032.447	1046.4177	1082.453	1113.7674	1147.49	1151.8676	1169.5391	1198.9688	1240.4428	1273.1663	1301.4004	1371.6539	1371.9774	1380.6904	1387.7909	1405.5835	1421.9928	1473.0121	1476.3152	1480.5436	1487.292	1489.3253	1492.0792	1502.1532	1504.3574	1742.4074	2981.9659	2982.3252	3010.8646	3011.5441	3015.0457	3015.047	3027.8564	3029.5317	3051.6011	3051.9019	3064.1809	3068.4315	3128.2938	3144.066
CC1=C(C)CCCC1	CC1=C(C)CCCC1	
InChI=1S/C8H14/c1-7-5-3-4-6-8(7)2/h3-6H2,1-2H3	InChI=1S/C8H14/c1-7-5-3-4-6-8(7)2/h3-6H2,1-2H3
