16
gdb 95602	2.3109	1.7797	1.09891	3.6888	67.32	-0.2584	-0.0743	0.184	1075.2866	0.124005	-475.040234	-475.032019	-475.031075	-475.073783	30.011	
C	 0.4791670382	 1.5688237615	-0.0143388484	-0.405441
C	 0.1350884098	 0.087036104	-0.0464287998	 0.022338
O	 0.7874386379	-0.5133434671	-1.1642231239	-0.228885
C	 0.6627446522	-1.8913035763	-1.1388128093	-0.006753
O	 1.4347618937	-2.4763244855	-0.087866457	-0.24152
C	 1.3420564824	-1.8995555621	 1.1440657284	 0.307857
N	 1.9298015697	-2.3593663252	 2.1635749116	-0.46943
C	 0.5194947228	-0.6150829154	 1.2621715189	 0.285171
O	 0.181916714	-0.1790313753	 2.3309863642	-0.274711
H	 1.5617663977	 1.7053389795	 0.0541817268	 0.138451
H	 0.1217247425	 2.0551752797	-0.9246921813	 0.132393
H	 0.0088355857	 2.0308476629	 0.855208503	 0.152197
H	-0.956477	-0.0405574385	-0.1538527457	 0.11142
H	-0.3901637382	-2.198217654	-1.0222068096	 0.103826
H	 1.0740617217	-2.2918653217	-2.0657255362	 0.139027
H	 2.4553465398	-3.2020205162	 1.9171826383	 0.23406
40.4292	100.1328	214.4251	240.6676	286.8385	347.0169	380.632	456.8752	476.33	500.9351	530.6762	661.2493	732.7775	798.1378	880.5199	917.147	960.3162	1010.5325	1067.6162	1104.2041	1117.1515	1147.3327	1174.7543	1216.0546	1295.7431	1314.2572	1326.3775	1358.3732	1400.7816	1452.0338	1486.0617	1497.3821	1520.5109	1726.8303	1830.0977	2955.6797	2968.5474	3057.6518	3133.1809	3133.3556	3152.6748	3459.536
CC1OCOC(=N)C1=O	C[C@H]1OCO[C]([NH])C1=O	
InChI=1S/C5H7NO3/c1-3-4(7)5(6)9-2-8-3/h3,6H,2H2,1H3	InChI=1S/C5H7NO3/c1-3-4(7)5(6)9-2-8-3/h3,6H,2H2,1H3/t3-/m1/s1
