19
gdb 40203	3.01986	1.5617	1.26103	1.5123	74.23	-0.246	0.0596	0.3056	1038.312	0.160751	-422.999335	-422.99188	-422.990936	-423.031363	29.322	
C	 0.0703578642	 1.4242927528	-0.0006332455	-0.257761
O	 1.1772755705	 0.5229489831	 0.1208080535	-0.283472
C	-0.1480801402	-0.0206439884	 0.0094534166	 0.443024
C	-0.6720880959	-0.8323489916	 1.1826110641	-0.304311
C	-0.3724510229	-2.2909329072	 0.7634002146	-0.2333
C	-0.5474740802	-2.3128630345	-0.766655975	-0.074956
C	-1.9915777061	-2.1924072158	-1.2955836167	-0.080245
O	-1.808184421	-0.7980452274	-1.6293905912	-0.297409
C	-0.4150588914	-0.8369743568	-1.2384450864	 0.048426
H	-0.1569391771	 2.0060034568	 0.8919754272	 0.113479
H	 0.0140737441	 1.9757180817	-0.9383172138	 0.118402
H	-0.1971103258	-0.541790887	 2.121948739	 0.112352
H	-1.7514054156	-0.6717029143	 1.2824083562	 0.117466
H	 0.665301472	-2.5370328178	 1.0123708661	 0.114493
H	-1.0121046211	-3.0209568909	 1.268773607	 0.100003
H	 0.069416869	-3.061978902	-1.2627162614	 0.081558
H	-2.2158407553	-2.7932796919	-2.1855022918	 0.102099
H	-2.7910187177	-2.3388586213	-0.5576548061	 0.099266
H	 0.2597329702	-0.5831543774	-2.0616207963	 0.080888
89.1993	147.0901	215.0624	292.8484	352.8074	358.4387	447.8359	556.1562	600.9993	744.8609	793.5511	842.8223	858.9695	869.5408	898.7671	931.2424	946.0805	963.2575	986.0419	1008.7624	1027.4804	1075.079	1104.7755	1125.3851	1150.4131	1162.8065	1174.7049	1192.3791	1237.4367	1248.2287	1273.2902	1286.7015	1318.612	1324.734	1341.111	1367.0313	1441.4324	1471.5115	1491.6125	1524.7677	1533.3543	3008.8193	3046.232	3048.1147	3051.3736	3065.729	3080.9356	3089.9079	3111.3486	3116.0005	3166.0737
C1OC11CCC2COC12	C1O[C@]21CC[C@H]1CO[C@@H]21	
InChI=1S/C7H10O2/c1-2-7(4-9-7)6-5(1)3-8-6/h5-6H,1-4H2	InChI=1S/C7H10O2/c1-2-7(4-9-7)6-5(1)3-8-6/h5-6H,1-4H2/t5-,6+,7-/m0/s1
