15
gdb 25195	2.61498	1.81904	1.08516	4.0367	83.34	-0.2284	-0.0688	0.1596	1042.9207	0.116598	-413.011097	-413.003792	-413.002848	-413.044465	27.51	
N	-0.0779241862	 1.2691398221	-0.4898750908	-0.488103
C	 0.0175905614	 0.097715195	-0.0068099652	 0.336103
N	-1.1878208079	-0.4741261413	 0.417114484	-0.341458
C	-1.4945766977	-1.6816611216	 0.9458318592	 0.032249
C	-0.6527476605	-2.660248442	 1.3636521037	-0.144796
C	 0.7761385099	-2.6033038419	 1.3750937957	 0.012348
N	 1.61989041	-1.76867974	 0.862149803	-0.328437
C	 1.3406159935	-0.6569146119	 0.0806398732	 0.287347
N	 2.2659672669	-0.1132119227	-0.6169171804	-0.46999
H	 0.8497164702	 1.557880568	-0.8059965349	 0.254046
H	-1.9570571842	 0.1499690774	 0.2132890206	 0.269204
H	-2.5646254129	-1.8301483842	 1.0507684403	 0.134483
H	-1.1080636092	-3.5443686564	 1.7930299002	 0.101945
H	 1.2477860394	-3.4236193572	 1.9231969335	 0.113563
H	 3.1271839474	-0.6453131233	-0.475996752	 0.231495
16.1224	107.0132	351.5588	359.5971	380.2361	423.4129	452.6938	521.5075	589.5439	671.8606	699.8588	765.3948	771.0522	798.9339	926.7509	937.5811	952.6849	957.0837	973.5983	998.8771	1020.947	1109.2329	1204.564	1310.6113	1327.3453	1413.0237	1448.0371	1471.8823	1536.6807	1609.0215	1652.7676	1699.4218	1706.9905	3087.2125	3183.4162	3207.0518	3467.2014	3476.6154	3593.0367
N=C1NC=CC=NC1=N	[NH][C]1NC=CC=N[C]1[NH]	
InChI=1S/C5H6N4/c6-4-5(7)9-3-1-2-8-4/h1-3H,(H3,6,7,8,9)	InChI=1S/C5H6N4/c6-4-5(7)9-3-1-2-8-4/h1-3H,(H3,6,7,8,9)
