16
gdb 52637	2.67514	0.68491	0.5625	5.4308	92.53	-0.2665	-0.0393	0.2272	1910.4778	0.121816	-363.579505	-363.569156	-363.568212	-363.617316	34.644	
C	-0.0332258407	 1.50491368	 0.0322988247	-0.497883
C	 0.0051173006	 0.0503633266	 0.0002022865	 0.059543
C	 0.0445456065	-1.1516081516	-0.0292625976	 0.104775
C	 0.0680203164	-2.6173426482	-0.0583503536	-0.3567
C	-1.3510394794	-3.2227705694	 0.1028547846	-0.379858
C	 0.7068859917	-3.1059667961	-1.2829829744	 0.180152
C	 1.2237342819	-3.5260433541	-2.2904581173	-0.013966
C	 1.8077321203	-3.9976396833	-3.4308263932	 0.209715
N	 2.3041113729	-4.4009771244	-4.4006886991	-0.337559
H	 0.5496774238	 1.8984324788	 0.8718439075	 0.154126
H	 0.380621945	 1.9287092981	-0.8889043729	 0.158055
H	-1.0596773489	 1.8723809939	 0.1365579513	 0.153702
H	 0.6788042046	-2.9730416633	 0.7849412117	 0.150028
H	-1.785667112	-2.8778790039	 1.043631067	 0.136675
H	-1.9948145144	-2.9038678829	-0.7192830249	 0.144893
H	-1.2982839784	-4.3141569402	 0.1097627495	 0.134302
15.1037	49.7544	97.5567	127.0327	152.9785	231.3306	238.6228	273.9314	305.2387	381.9157	456.1691	470.7799	541.9603	575.9868	592.5409	708.3583	750.5828	954.1574	1049.9134	1051.8118	1054.3784	1069.4921	1148.7497	1198.5253	1293.0252	1326.1594	1404.347	1414.3067	1476.4168	1476.8255	1488.5859	1496.4178	2265.9248	2377.8976	2402.9223	2995.4152	3031.4601	3054.5447	3094.457	3095.3266	3136.9214	3143.4168
CC#CC(C)C#CC#N	CC#C[C@@H](C)C#CC#N	
InChI=1S/C8H7N/c1-3-5-8(2)6-4-7-9/h8H,1-2H3	InChI=1S/C8H7N/c1-3-5-8(2)6-4-7-9/h8H,1-2H3/t8-/m1/s1
