20
gdb 88760	3.87557	1.03442	0.91364	2.2893	79.43	-0.2295	0.0779	0.3074	1326.832	0.171025	-403.080613	-403.072119	-403.071175	-403.11432	32.284	
C	-0.0308234427	 1.4837422242	-0.289562421	-0.421142
C	-0.0143503543	 0.0076615947	 0.0203529975	 0.07772
O	 1.2497983378	-0.6624636173	-0.0100923057	-0.272889
C	 0.5448844521	-0.5964595299	 1.2423430845	 0.048701
C	 1.1998712701	 0.1760976426	 2.3524724635	-0.014598
C	 0.3218708539	 0.5945621614	 3.5958382153	-0.251326
C	 1.2780129276	-0.2018515797	 4.4893327279	-0.037985
N	 1.2140061787	-1.6004791403	 4.0004718172	-0.331216
C	 2.0960276956	-0.6201629188	 3.3204994599	-0.065699
H	 0.7636861525	 2.0210025784	 0.231958505	 0.124485
H	 0.1031293554	 1.6446015406	-1.3645509111	 0.128011
H	-0.9941066864	 1.9210541504	-0.0046100852	 0.120413
H	-0.8118533781	-0.5554285676	-0.4708972303	 0.083253
H	 0.1272217306	-1.5504971506	 1.5646412088	 0.104404
H	 1.7381295593	 1.0367478596	 1.952222674	 0.080509
H	 0.3452573798	 1.6720445878	 3.7701237783	 0.104254
H	-0.7132940396	 0.2435359587	 3.6021529233	 0.106795
H	 1.5737764484	 0.0142706972	 5.5083231215	 0.092799
H	 1.8090002518	-2.1627280472	 4.6081353087	 0.229005
H	 3.1600534275	-0.8015368843	 3.232031078	 0.094506
49.9841	125.2373	147.9158	185.9714	217.4931	376.5355	386.3234	411.2673	505.1455	567.556	701.7958	775.2447	799.6244	822.3893	842.5749	884.9565	920.8849	946.8534	961.5351	974.9449	995.0017	1018.8147	1039.0531	1094.0577	1101.3885	1113.7061	1135.4433	1158.0455	1182.7842	1191.058	1221.3055	1249.0614	1271.7455	1301.1071	1315.0441	1322.8	1380.9469	1403.67	1420.0274	1469.9297	1475.9954	1489.3905	1512.1988	3037.9845	3064.5992	3073.4618	3095.0145	3097.3927	3116.5217	3125.1369	3134.9959	3184.5409	3198.5283	3476.3452
CC1OC1C1CC2NC12	C[C@H]1O[C@H]1[C@H]1C[C@H]2N[C@@H]12	
InChI=1S/C7H11NO/c1-3-7(9-3)4-2-5-6(4)8-5/h3-8H,2H2,1H3	InChI=1S/C7H11NO/c1-3-7(9-3)4-2-5-6(4)8-5/h3-8H,2H2,1H3/t3-,4+,5-,6+,7-/m1/s1
