15
gdb 56424	3.20585	0.65987	0.5644	1.5643	76.95	-0.2565	-0.0354	0.2211	1848.7316	0.107835	-420.553903	-420.543693	-420.542749	-420.591687	34.451	
O	 0.4053898179	 1.6090263756	-0.0813033137	-0.38762
C	 0.0849195126	 0.2259080295	 0.0273410114	-0.23586
C	 0.4460638099	-0.5219888409	-1.1866714064	 0.324973
C	 0.7570527794	-1.1070405045	-2.188524317	-0.449184
C	 0.6822407673	-0.3968125705	 1.2184020269	 0.125834
C	 1.1766271627	-0.8743249305	 2.2066690104	 0.025417
C	 1.7891185853	-1.5028116014	 3.366501314	-0.419383
C	 2.5925962145	-2.7555614574	 3.0012526631	 0.172801
O	 2.657998711	-3.7262030317	 3.7035323114	-0.227229
H	 1.3600015584	 1.6735425784	-0.202083753	 0.290119
H	-1.0073504414	 0.2097408058	 0.1347693254	 0.152679
H	 1.0236095594	-1.6288469193	-3.0746469993	 0.207071
H	 2.4951418161	-0.8044789797	 3.8418827639	 0.161211
H	 1.0537240089	-1.7763701447	 4.1299979569	 0.160538
H	 3.1307270982	-2.6880415787	 2.0314023661	 0.098633
17.724	44.0182	72.8425	127.1914	159.0818	203.2545	277.9416	296.2574	370.8915	424.964	452.7885	515.4816	583.3035	602.9947	644.8342	677.5203	727.5759	816.6401	941.007	1028.9187	1039.833	1045.3261	1155.0088	1211.079	1258.9415	1288.3548	1309.1197	1412.6454	1414.699	1437.9802	1842.6148	2238.6902	2366.403	2906.9224	3004.7008	3031.9671	3082.3054	3501.8519	3800.3094
OC(C#C)C#CCC=O	O[C@@H](C#C)C#CCC=O	
InChI=1S/C7H6O2/c1-2-7(9)5-3-4-6-8/h1,6-7,9H,4H2	InChI=1S/C7H6O2/c1-2-7(9)5-3-4-6-8/h1,6-7,9H,4H2/t7-/m0/s1
