19
gdb 87567	2.54908	1.44828	1.26649	1.8034	75.24	-0.2485	0.0776	0.3261	1095.4938	0.15807	-422.96882	-422.960319	-422.959374	-423.001809	32.774	
C	-0.0796470377	 1.5277971235	 0.0393393126	-0.405897
C	 0.0057093429	 0.0178245176	 0.06164969	-0.051563
C	 1.3160925725	-0.6896547608	-0.2118241192	-0.376288
C	 0.7147213127	-0.7079472633	 1.1637126547	 0.319598
C	 1.2974194879	-0.1633202289	 2.4483678344	-0.082976
O	 0.2045941791	-0.0859818832	 3.3912066414	-0.263279
C	 0.860598864	-1.3496238069	 3.2035517299	-0.010619
C	 0.2208058474	-1.9681751598	 1.9406537724	 0.027355
O	-1.1548378994	-2.2207068488	 1.9887365343	-0.432297
H	 0.8421435542	 1.9829896847	 0.4166292111	 0.111292
H	-0.238789267	 1.8996165469	-0.9786619414	 0.11893
H	-0.9047199859	 1.8886415421	 0.6626707984	 0.124898
H	-0.8817532282	-0.497113667	-0.3000009466	 0.096692
H	 1.3075749071	-1.6107702602	-0.7864088126	 0.11487
H	 2.1962510986	-0.0730843094	-0.3728184032	 0.109875
H	 2.1413183257	 0.4946373913	 2.6162411339	 0.109437
H	 1.2749838477	-1.8309097361	 4.0818786309	 0.105893
H	 0.7122974236	-2.8874210733	 1.6102317461	 0.094978
H	-1.5509508452	-1.4353687584	 2.388852553	 0.289102
99.1415	133.2426	169.1053	193.7904	237.4011	304.464	395.8445	445.969	483.869	518.4054	592.9431	685.5469	765.4537	802.8087	849.8741	859.5286	886.5059	889.8102	901.0888	982.0734	994.1859	1015.8792	1049.1651	1056.8356	1096.5084	1117.6826	1128.2701	1176.8249	1193.8605	1210.637	1215.8399	1258.009	1285.1371	1349.077	1368.5997	1412.6549	1432.0436	1437.1592	1490.3625	1491.8282	1506.2141	3029.1852	3081.7254	3093.6066	3095.8323	3115.3801	3135.035	3182.3173	3199.0719	3199.712	3769.3043
CC1CC11C2OC2C1O	C[C@H]1C[C@]21[C@H]1O[C@H]1[C@H]2O	
InChI=1S/C7H10O2/c1-3-2-7(3)5(8)4-6(7)9-4/h3-6,8H,2H2,1H3	InChI=1S/C7H10O2/c1-3-2-7(3)5(8)4-6(7)9-4/h3-6,8H,2H2,1H3/t3-,4-,5+,6-,7+/m0/s1
