22
gdb 8238	4.5056	1.11215	0.95346	1.6639	78.86	-0.242	0.0834	0.3255	1297.309	0.199356	-350.197133	-350.187806	-350.186862	-350.231785	33.821	
C	-0.0965527218	 1.5870751013	 0.0472330138	-0.381596
C	-0.0527776314	 0.0530421367	-0.0170477991	 0.038835
C	-1.4721871046	-0.5310362014	-0.0330644271	-0.389819
C	 0.7557825556	-0.4644464066	-1.2218049503	-0.19191
C	 2.2499320328	-0.1909815382	-1.1740734442	 0.158553
C	 3.1067474056	-0.6347688132	-2.3822400691	-0.296057
C	 3.5613615435	 0.836503327	-2.4198625545	-0.060183
O	 2.6123723305	 1.1988598526	-1.3973988935	-0.286504
H	 0.9048743933	 2.0207007601	 0.0694251598	 0.142003
H	-0.6109903944	 1.9946713367	-0.8315019798	 0.106094
H	-0.6437436192	 1.9207566949	 0.9356236841	 0.099832
H	 0.4479784198	-0.3109345567	 0.892695747	 0.068492
H	-2.0132981865	-0.2182071175	-0.9343106513	 0.110871
H	-1.4582293656	-1.626314047	-0.0172407494	 0.104943
H	-2.0490584108	-0.189199762	 0.8326484949	 0.108897
H	 0.6365429258	-1.5556431423	-1.2891761882	 0.090295
H	 0.3500433146	-0.0461345881	-2.1533393527	 0.092257
H	 2.6593258338	-0.5342247719	-0.2112903771	 0.06738
H	 3.8765029148	-1.3831591314	-2.1882742903	 0.107353
H	 2.5135286141	-0.942625443	-3.2464829199	 0.108367
H	 4.5964578806	 1.0065217715	-2.0947091002	 0.09814
H	 3.3900466095	 1.3859161884	-3.3526509631	 0.103758
46.2927	75.0247	115.1424	168.2561	222.2415	253.7217	293.0864	312.0763	411.5866	434.3478	473.6592	731.1722	812.6801	823.0819	863.0092	886.0776	931.0917	955.3666	962.2599	970.7424	994.6152	1027.1329	1058.2622	1115.9123	1134.2919	1162.8466	1189.4043	1197.1992	1217.7949	1251.1662	1257.7524	1287.4866	1313.0043	1359.709	1371.4352	1376.5324	1401.4696	1405.8785	1426.4464	1463.6496	1486.8258	1488.6019	1493.6963	1504.4997	1509.7963	1532.0145	2977.8302	2989.8296	3001.7801	3009.5565	3021.4327	3029.2718	3045.7017	3054.6662	3072.9291	3084.41	3090.0845	3096.3603	3129.683	3135.4405
CC(C)CC1CCO1	CC(C)C[C@H]1CCO1	
InChI=1S/C7H14O/c1-6(2)5-7-3-4-8-7/h6-7H,3-5H2,1-2H3	InChI=1S/C7H14O/c1-6(2)5-7-3-4-8-7/h6-7H,3-5H2,1-2H3/t7-/m1/s1
