21
gdb 115920	3.37408	1.1744	0.96476	0.4859	78.56	-0.226	0.081	0.307	1286.7821	0.182724	-424.2044	-424.195719	-424.194775	-424.237823	33.347	
C	-0.0740890083	 1.5463206985	-0.0351217374	-0.384084
C	 0.0327434757	 0.0191913302	-0.0050717646	-0.190444
C	 0.7347596132	-0.5539029501	-1.2307814745	 0.119573
C	 0.8773934382	-2.0708944492	-1.1748354034	-0.094341
O	 1.5670528068	-2.5820246208	-2.3087047006	-0.263133
C	 1.2462137352	-1.983578731	-3.5297250003	 0.100871
C	-0.1470317405	-1.9774524116	-4.1164094286	-0.348085
C	 0.4702566633	-0.6984423778	-3.5785411466	 0.057129
O	-0.0481923471	-0.2039477645	-2.375860681	-0.272388
H	 0.918150064	 2.0107628485	-0.048916823	 0.111857
H	-0.6118627776	 1.8758998949	-0.9271566588	 0.137431
H	-0.6053735603	 1.9194008377	 0.8453720749	 0.110828
H	 0.5816667908	-0.3036528394	 0.8880280112	 0.097309
H	-0.968497057	-0.4241422761	 0.0584421792	 0.105356
H	 1.7411486049	-0.1131800396	-1.3277282468	 0.072228
H	 1.4673068766	-2.3764347977	-0.3055165354	 0.10999
H	-0.1234555832	-2.5228259158	-1.0887827462	 0.096108
H	 2.0747121997	-2.1065625344	-4.2195621914	 0.105055
H	-0.2506936404	-2.1089416902	-5.1880469391	 0.112165
H	-0.9576863821	-2.3849775389	-3.523055699	 0.124152
H	 0.7681419282	 0.0861588574	-4.2713872784	 0.092423
90.3471	99.9253	171.4686	188.0266	247.1067	325.6259	361.076	431.2607	460.449	509.2832	512.8449	701.4433	749.4398	771.2368	802.5753	852.1498	910.6373	939.6842	974.3893	997.1814	1012.214	1038.9172	1056.4734	1075.7197	1116.134	1122.5503	1147.8562	1166.6163	1173.4147	1190.1218	1257.3964	1271.4241	1305.1508	1308.5803	1347.1658	1386.1117	1392.5832	1403.7723	1410.7558	1427.4118	1472.8715	1475.1011	1497.2323	1500.2224	1510.0074	2965.4582	2986.4102	3028.851	3038.734	3066.0215	3084.9618	3103.8628	3115.4967	3129.306	3135.2928	3162.1089	3227.9286
CCC1COC2CC2O1	CC[C@H]1CO[C@H]2C[C@H]2O1	
InChI=1S/C7H12O2/c1-2-5-4-8-6-3-7(6)9-5/h5-7H,2-4H2,1H3	InChI=1S/C7H12O2/c1-2-5-4-8-6-3-7(6)9-5/h5-7H,2-4H2,1H3/t5-,6-,7+/m0/s1
