18
gdb 83098	2.5553	1.74044	1.23736	3.3636	77.25	-0.2163	0.0002	0.2165	1039.2593	0.14908	-401.974415	-401.966597	-401.965652	-402.006969	29.822	
C	-0.4056414092	 1.5299210988	 0.1675800502	-0.402881
C	-0.0806952663	 0.0497707006	 0.0064515955	-0.167028
C	 0.7934057243	-0.438797123	-1.1960782225	 0.020638
C	 1.6227252763	 0.5058138432	-2.1029897193	-0.301289
C	 3.0516952828	 0.1760743735	-1.694987318	-0.093258
C	 3.0839562189	-0.6216981801	-0.6257195948	-0.062489
N	 1.7754960472	-0.991977694	-0.2160378169	-0.113125
C	 1.0793929073	-0.4577845364	 0.8952891818	 0.398495
O	 1.3670784045	-0.3924638633	 2.0550209729	-0.334084
H	 0.4873124799	 2.1559600549	 0.0805290717	 0.128694
H	-1.1293274578	 1.8587884231	-0.5846312606	 0.121451
H	-0.8354901028	 1.7079564282	 1.1573907007	 0.140847
H	-0.9896628451	-0.5487616873	 0.1237094459	 0.103796
H	 0.3207499528	-1.2301599059	-1.7834062219	 0.09049
H	 1.4286117538	 0.3027222624	-3.1606110426	 0.116597
H	 1.4053062312	 1.5710676939	-1.9479997698	 0.114922
H	 3.9229797374	 0.573117628	-2.1984080828	 0.105608
H	 3.9397472649	-0.9832754967	-0.0732343694	 0.132618
72.1223	142.8078	195.1629	220.2265	265.0288	370.8556	452.2266	535.9456	627.4378	640.2951	697.53	763.9761	781.1339	812.5108	841.8739	914.3628	942.2829	948.0372	967.2431	1009.5921	1067.5962	1076.4499	1114.5339	1140.1969	1159.9064	1174.4704	1230.3502	1239.9901	1267.3221	1305.7378	1335.3529	1339.1244	1383.8449	1411.9982	1486.1727	1495.1636	1505.2317	1662.5746	1885.4833	3022.2947	3041.1656	3054.5583	3063.6988	3078.9649	3111.5146	3117.1462	3220.1146	3247.1196
CC1C2CC=CN2C1=O	C[C@H]1[C@H]2CC=CN2C1=O	
InChI=1S/C7H9NO/c1-5-6-3-2-4-8(6)7(5)9/h2,4-6H,3H2,1H3	InChI=1S/C7H9NO/c1-5-6-3-2-4-8(6)7(5)9/h2,4-6H,3H2,1H3/t5-,6+/m0/s1
