19
gdb 76053	2.5432	1.34557	1.1293	3.3018	81.22	-0.2469	0.0125	0.2594	1167.4846	0.158906	-382.045198	-382.03629	-382.035346	-382.078918	32.965	
C	-0.1710063475	 1.4790300733	-0.2605424807	-0.332014
N	 0.028707438	 0.0443433718	-0.0732369941	-0.147727
C	 1.3955541301	-0.5013933269	-0.176239519	-0.254563
C	 2.525647569	 0.3678248838	-0.3862816749	 0.304835
N	 3.431932317	 1.0680425273	-0.5545064942	-0.350665
C	 0.6587141233	-0.4187335412	 1.1337224539	 0.374246
C	 1.1224762215	 0.3630743505	 2.3737966614	-0.308133
C	 0.9827149195	-0.9615685834	 3.1833553904	-0.212142
C	 0.1994221961	-1.5977807801	 1.9961257145	-0.302475
H	 0.6290212445	 2.1042018089	 0.158132722	 0.132804
H	-0.2490742754	 1.6888529499	-1.3306657474	 0.138089
H	-1.117563098	 1.755618604	 0.2126461217	 0.130539
H	 1.4653939945	-1.4529440889	-0.6973993701	 0.132222
H	 2.109448895	 0.8281818757	 2.3324227096	 0.130868
H	 0.3914040262	 1.1193225367	 2.6759569219	 0.113222
H	 1.947514772	-1.4443865167	 3.3520319089	 0.115759
H	 0.4537393283	-0.8951376533	 4.1351066096	 0.108445
H	-0.8844711403	-1.5835629745	 2.1432164658	 0.116618
H	 0.4964217963	-2.5980358567	 1.6729469304	 0.110074
81.7227	127.3528	139.1437	181.9575	193.071	231.9553	365.2893	377.7664	431.4118	535.4259	591.237	625.6122	700.6428	752.0116	786.5276	864.9342	881.3188	933.4179	952.1718	1011.7909	1020.5117	1062.8346	1093.3849	1127.7548	1151.4281	1169.1232	1188.331	1220.5325	1240.147	1249.2511	1272.3118	1280.684	1327.4551	1416.2624	1460.7973	1470.8753	1481.118	1491.7647	1498.8214	1505.9862	2342.8921	3011.9439	3056.9049	3061.0722	3077.4608	3089.8209	3108.9605	3114.8722	3118.6185	3135.4214	3139.6987
CN1C(C#N)C11CCC1	CN1[C@@H](C#N)C21CCC2	
InChI=1S/C7H10N2/c1-9-6(5-8)7(9)3-2-4-7/h6H,2-4H2,1H3	InChI=1S/C7H10N2/c1-9-6(5-8)7(9)3-2-4-7/h6H,2-4H2,1H3/t6-,9?/m0/s1
