20
gdb 106265	2.86758	1.27155	1.10053	3.3086	80.52	-0.2386	0.0051	0.2437	1217.6068	0.169331	-403.109767	-403.100415	-403.099471	-403.143829	34.75	
C	-0.0275476916	 1.5391818354	-0.0007341658	-0.383773
C	-0.031771853	 0.0066972168	 0.071480346	-0.32548
C	-1.4159514541	-0.5645158691	-0.0264005926	 0.200857
C	-1.9004602984	-2.0522825858	 0.0240095171	-0.330476
C	-3.2194340008	-1.2059137657	-0.0031239031	 0.179293
C	-4.6453693852	-1.6401760784	 0.1336978065	-0.517173
N	-2.5533301058	-0.1960071729	 0.9442473306	-0.383808
C	-2.5064960229	-0.396427303	-1.1058883278	 0.467001
O	-2.6811895556	 0.0518502348	-2.1939680075	-0.332448
H	 0.989437335	 1.9304541823	 0.0923316391	 0.111341
H	-0.4407328357	 1.8830506767	-0.9534715509	 0.140094
H	-0.6370194012	 1.9660802931	 0.800480758	 0.135557
H	 0.5681780325	-0.4133622396	-0.7455404687	 0.114122
H	 0.4383597052	-0.3326446805	 1.0037365713	 0.101857
H	-1.6724235206	-2.7209782489	-0.8131997742	 0.108999
H	-1.7174700317	-2.5334314526	 0.9906630446	 0.102516
H	-4.8064511393	-2.2073065975	 1.0564393334	 0.123738
H	-5.3062723627	-0.7686599779	 0.1453851554	 0.14473
H	-4.9314096753	-2.2760446318	-0.7099407796	 0.136275
H	-2.3643395787	-0.6931637054	 1.8228763681	 0.206778
72.3901	134.8452	159.1055	176.1116	201.4873	207.7719	260.0843	307.9134	417.2676	512.8068	548.7249	598.3764	668.5059	708.8781	754.3879	799.9062	812.8006	843.0262	893.9867	926.4805	983.6643	1017.0963	1048.9666	1080.8654	1095.1298	1120.5548	1131.4722	1151.7942	1222.6529	1260.5506	1298.1523	1335.4707	1347.3597	1396.8822	1411.5392	1425.7876	1479.0982	1482.0061	1488.8353	1496.067	1500.4812	1510.4921	1927.3152	3020.247	3028.2379	3037.9402	3045.8042	3055.0688	3100.1758	3105.154	3117.445	3118.0269	3123.057	3359.4559
CCC12CC(C)(N1)C2=O	CC[C@@]12C[C@@](C)(N1)C2=O	
InChI=1S/C7H11NO/c1-3-7-4-6(2,8-7)5(7)9/h8H,3-4H2,1-2H3	InChI=1S/C7H11NO/c1-3-7-4-6(2,8-7)5(7)9/h8H,3-4H2,1-2H3/t6-,7+/m1/s1
