17
gdb 62278	3.28029	1.57822	1.35383	4.8627	75.52	-0.2498	0.0263	0.2761	975.3754	0.136543	-380.803264	-380.795795	-380.794851	-380.834886	29.484	
C	-0.0530290169	 1.5713571785	 0.0372133011	-0.471709
C	 0.0610919849	 0.0498255098	-0.0247437545	 0.157445
C	-1.265091692	-0.5484035634	 0.1886556482	 0.279924
N	-2.3225165521	-0.9929187566	 0.3275431698	-0.344949
C	 0.7890522017	-0.6528714431	-1.1713393586	-0.101828
C	 2.2798041318	-0.6794653064	-0.7737617522	-0.1106
C	 2.3663013402	-0.0255797894	 0.5926312254	-0.188774
N	 1.0306608381	-0.6533640503	 0.9448896475	-0.188592
C	 1.3058551839	-1.6636759112	-0.1982485974	-0.015708
H	 0.8598111539	 2.0550096896	-0.312564308	 0.131606
H	-0.8771189055	 1.9079059395	-0.5977744077	 0.143581
H	-0.2605598389	 1.8925708899	 1.0625479004	 0.148483
H	 0.4636896245	-0.8007404198	-2.1929820885	 0.109603
H	 3.0456005429	-0.8510511185	-1.5200473057	 0.103677
H	 3.128581723	-0.4908198942	 1.2222118278	 0.122323
H	 2.4245967407	 1.0607253396	 0.6990721792	 0.107446
H	 1.2499694797	-2.738407084	-0.1153993269	 0.11807
146.474	159.4027	187.6627	249.0101	331.8173	463.6343	493.1527	511.3145	546.2434	644.172	772.093	794.8427	798.9356	815.2124	859.6349	865.0083	905.8487	953.7064	982.0625	1007.0106	1029.6206	1036.6069	1061.6966	1101.4622	1116.5617	1158.4535	1169.7896	1206.1836	1225.2611	1281.0199	1304.9387	1359.1691	1404.7656	1483.4704	1490.7918	1529.8207	2358.6113	3051.0425	3063.952	3113.092	3121.4304	3145.7904	3192.5399	3202.6998	3239.2267
CC1(C#N)C2C3CN1C23	C[C@@]1(C#N)[C@H]2[C@H]3CN1[C@@H]23	
InChI=1S/C7H8N2/c1-7(3-8)5-4-2-9(7)6(4)5/h4-6H,2H2,1H3	InChI=1S/C7H8N2/c1-7(3-8)5-4-2-9(7)6(4)5/h4-6H,2H2,1H3/t4-,5+,6-,7-/m1/s1
