20
gdb 79288	2.30995	1.9583	1.53152	1.2331	76.25	-0.2371	0.0636	0.3007	968.8863	0.173622	-403.1381	-403.130433	-403.129488	-403.16986	30.898	
C	-0.3447032229	 1.5453339547	 0.0557792852	-0.429667
C	-0.0110369252	 0.0528705604	 0.0418788223	 0.037082
C	 0.8175854568	-0.4657246911	-1.1332883486	-0.050725
C	 2.2522908022	-0.560118166	-0.7192040358	-0.10907
C	 2.3506665073	-0.079306925	 0.7225745039	 0.167108
O	 2.7005797864	 1.2833871554	 0.8826568179	-0.451956
C	 0.9193418362	-0.5224507092	 1.1425763336	-0.121743
C	 0.9943413491	-1.9829604563	 0.6636446324	-0.167539
N	 1.4080558058	-1.7758712512	-0.758373085	-0.130715
H	 0.5388079832	 2.183600539	 0.0866120562	 0.108909
H	-0.9296014162	 1.8146272874	-0.8306129903	 0.114431
H	-0.9489816665	 1.7920836528	 0.9347194123	 0.121042
H	-0.9632117742	-0.49358444	 0.0675414389	 0.077575
H	 0.507529092	-0.3498057204	-2.1655886717	 0.089553
H	 3.0895386932	-0.5096187128	-1.4063061579	 0.091341
H	 3.0958474438	-0.6486015955	 1.2908827654	 0.086204
H	 2.5206838453	 1.7415437049	 0.057104723	 0.286897
H	 0.6411717687	-0.3385778979	 2.1789619425	 0.071415
H	 1.7483460176	-2.5841769679	 1.1801363657	 0.105031
H	 0.0380139273	-2.5120989214	 0.7004000297	 0.104827
142.8805	158.4233	201.698	293.4324	298.9782	344.6519	438.7595	507.0168	568.1616	694.5328	713.0012	761.4167	788.537	853.3026	870.2693	896.5242	923.2949	936.8504	961.2733	995.9195	1019.8421	1058.1152	1071.3497	1074.9083	1110.456	1115.9117	1131.2632	1190.2403	1201.4208	1212.4531	1218.9031	1258.39	1279.7561	1304.2131	1318.4991	1342.8163	1376.7604	1400.1792	1416.8595	1432.6156	1491.25	1502.3748	1511.2679	3014.6915	3038.0678	3041.2638	3056.3124	3096.4481	3102.3611	3136.9224	3143.8665	3172.0448	3182.5357	3838.1403
CC1C2C3C(O)C1CN23	C[C@H]1[C@H]2[C@H]3[C@@H](O)[C@@H]1CN23	
InChI=1S/C7H11NO/c1-3-4-2-8-5(3)6(8)7(4)9/h3-7,9H,2H2,1H3	InChI=1S/C7H11NO/c1-3-4-2-8-5(3)6(8)7(4)9/h3-7,9H,2H2,1H3/t3-,4-,5+,6+,7+,8?/m1/s1
