20
gdb 58874	2.33914	1.42305	1.20621	2.3998	74.57	-0.2344	0.054	0.2883	1142.2135	0.169629	-440.232433	-440.223023	-440.222078	-440.266665	35.423	
C	 0.0070939027	 1.5274037978	 0.0691781148	-0.418123
C	 0.0166014472	 0.0007801082	-0.0063417614	-0.014147
O	-1.3086747561	-0.5402969826	-0.0586581045	-0.448017
C	 0.6769937651	-0.532657245	-1.2514213441	 0.370028
C	 1.6730872599	-1.6207408314	-1.2722296433	-0.297576
N	 2.1205010521	-0.2632221245	-1.6471909186	-0.190201
C	 1.6502948655	-0.0948153834	-3.0731916226	-0.178624
C	 0.1688122025	-0.2662525158	-2.6685489949	 0.055396
O	-0.5187792097	-1.3036793614	-3.328227779	-0.434153
H	 1.0310507835	 1.9106038181	 0.0437372979	 0.142286
H	-0.5519547644	 1.9593190032	-0.7662532072	 0.123668
H	-0.4596595587	 1.8652817217	 1.0017698048	 0.105583
H	 0.5519482078	-0.3890196764	 0.8738509658	 0.070914
H	-1.8227610768	-0.1405573723	 0.6501363807	 0.285533
H	 2.0649981393	-1.9465454496	-0.313374999	 0.11708
H	 1.6207539914	-2.3904161442	-2.0381752957	 0.124501
H	 1.9026014393	 0.8999557743	-3.4440814964	 0.11028
H	 2.0391948761	-0.8547820185	-3.7570856007	 0.114993
H	-0.3855603922	 0.6784659773	-2.7333056136	 0.072271
H	-1.3133278346	-1.4852214155	-2.812656213	 0.288307
51.1632	105.4967	187.7742	194.1019	247.0087	264.1683	310.9741	346.8021	360.6629	410.7619	485.4423	501.6582	577.6396	690.1345	734.3128	820.8655	851.1484	886.5106	907.7978	965.4804	998.5289	1019.8588	1050.0989	1089.2118	1104.2477	1110.6236	1125.6557	1147.3043	1196.6086	1213.2027	1224.4566	1281.8494	1298.6129	1339.5313	1359.4838	1371.6869	1400.5128	1419.8025	1450.0295	1485.6532	1492.0586	1503.1076	1513.1148	2974.0867	3020.7971	3031.7726	3060.6266	3099.6094	3109.7772	3124.3457	3125.2333	3201.4393	3797.4694	3818.0987
CC(O)C12CN1CC2O	C[C@@H](O)[C@]12CN1C[C@H]2O	
InChI=1S/C6H11NO2/c1-4(8)6-3-7(6)2-5(6)9/h4-5,8-9H,2-3H2,1H3	InChI=1S/C6H11NO2/c1-4(8)6-3-7(6)2-5(6)9/h4-5,8-9H,2-3H2,1H3/t4-,5-,6+,7?/m1/s1
