12
gdb 45922	2.9458	1.56589	1.08524	3.353	58.34	-0.2964	-0.0903	0.2061	1013.3065	0.077487	-509.812023	-509.804705	-509.803761	-509.844572	26.094	
N	-0.2313962985	 1.3626640359	 0.0695324733	-0.469402
C	-0.0587066171	 0.1211640211	 0.1338129451	 0.388671
C	-1.1248821472	-0.8697373515	-0.2295540829	-0.168373
O	-1.2136970693	-1.9371814179	 0.7261928392	-0.216737
C	-0.0714836307	-2.4900523221	 1.1737387065	 0.336687
O	-0.0650809346	-3.4619469888	 1.8638845418	-0.273381
C	 1.2503265001	-1.778203376	 0.7978066849	 0.288369
O	 2.3092098192	-2.3114688213	 0.8596078259	-0.251138
O	 1.1594535007	-0.4453218962	 0.4694384734	-0.219663
H	 0.6239158588	 1.8716657863	 0.3009110277	 0.250047
H	-2.0938156065	-0.3757655135	-0.2406651384	 0.179522
H	-0.9238187649	-1.2885334561	-1.2240289366	 0.155399
68.9583	105.4921	182.615	342.3843	385.9626	400.4184	453.9628	472.1176	563.0239	627.6723	663.6277	794.8989	819.4207	917.7008	945.4129	1028.4594	1038.3273	1101.4792	1113.7153	1236.1156	1281.0967	1333.3937	1401.8551	1493.6768	1786.3958	1872.1864	1895.0343	3035.9725	3170.957	3480.5974
N=C1COC(=O)C(=O)O1	[NH][C]1COC(=O)C(=O)O1	
InChI=1S/C4H3NO4/c5-2-1-8-3(6)4(7)9-2/h5H,1H2	InChI=1S/C4H3NO4/c5-2-1-8-3(6)4(7)9-2/h5H,1H2
