16
gdb 129597	3.0689	1.36945	0.99998	3.5449	71.35	-0.2203	0.0058	0.2261	1138.095	0.126246	-434.029762	-434.021878	-434.020934	-434.062694	29.533	
N	-0.1014611207	 1.2481402298	-0.549278004	-0.592999
C	-0.1167302379	-0.0734872271	-0.1768907917	 0.398261
C	-1.1358338744	-0.9667511961	 0.054001231	 0.058494
C	-0.4191978644	-2.1620787999	 0.3457433516	-0.029096
N	 0.8797788157	-2.0268993671	 0.2879695834	-0.160414
O	 1.0748156882	-0.6658148712	-0.0522944589	-0.212932
C	-2.598507756	-0.7495661598	 0.0301942488	-0.152264
C	-3.2217803877	 0.1327268237	-0.9970814647	-0.253911
N	-3.4262510018	-1.3207659826	-1.0598230452	-0.307764
H	 0.7687896862	 1.7228510804	-0.3545987818	 0.269932
H	-0.9129338956	 1.7726966425	-0.2592175877	 0.268876
H	-0.8281067172	-3.1327716647	 0.5943412443	 0.133805
H	-3.1026798866	-0.8204344768	 0.9925575498	 0.103762
H	-4.1078706584	 0.7092313055	-0.7462856052	 0.12016
H	-2.5714754966	 0.594850207	-1.7347730058	 0.122863
H	-2.8058725728	-1.7102706636	-1.7665757439	 0.233226
55.9014	147.1611	162.0555	275.4073	289.9789	356.0658	403.6037	490.1707	589.8094	620.771	653.9779	739.2924	749.6553	833.2666	872.5735	888.4285	924.1838	947.7582	964.0545	1011.6126	1063.9849	1109.2479	1148.3216	1176.7976	1196.6258	1252.7868	1264.3966	1305.5074	1320.1497	1383.157	1461.84	1509.0171	1543.8049	1631.1437	1681.0982	3109.3586	3113.6017	3195.9644	3231.2502	3492.861	3571.7253	3677.4258
NC1=C(C=NO1)C1CN1	Nc1c(cno1)[C@H]1CN1	
InChI=1S/C5H7N3O/c6-5-3(1-8-9-5)4-2-7-4/h1,4,7H,2,6H2	InChI=1S/C5H7N3O/c6-5-3(1-8-9-5)4-2-7-4/h1,4,7H,2,6H2/t4-/m1/s1
