17
gdb 37030	3.06143	1.81536	1.49632	1.9257	71.99	-0.2223	0.016	0.2382	910.3826	0.13899	-417.961201	-417.95434	-417.953396	-417.992435	27.481	
C	-0.0133522326	 1.4577134339	-0.1244035944	-0.363582
C	 1.3345221352	 0.7992638298	 0.0325967891	 0.209759
C	 2.1474600686	 0.8822120943	 1.2880595681	-0.140138
O	 1.3837840761	 0.4401939639	 2.4493331288	-0.240296
C	 0.3080662421	-0.3689004157	 2.3141529981	 0.114369
N	-0.3778297765	-0.6607477368	 1.2817747444	-0.338979
C	 0.0723483313	-0.0350246179	 0.0926462954	 0.302613
C	 0.5269883147	-0.7370941126	-1.1879834434	-0.229435
N	 1.7859091721	 0.0866769716	-1.1679452688	-0.361781
H	-0.3787566452	 2.0180428662	 0.7302961044	 0.128296
H	-0.3084678426	 1.8567677983	-1.0921795826	 0.106755
H	 3.0146355209	 0.2222775279	 1.1857015311	 0.131995
H	 2.4933387557	 1.8849030745	 1.5575735586	 0.116595
H	 0.0367841811	-0.773568962	 3.287137279	 0.127179
H	 0.7487226501	-1.7991406199	-1.0494884526	 0.120591
H	-0.1162845225	-0.6146878616	-2.0677252645	 0.099704
H	 1.9006474615	 0.6874416462	-1.9804322807	 0.216355
86.3507	213.771	302.2286	344.7948	396.5784	511.2888	518.6176	577.9537	587.0963	719.7182	767.0939	833.853	842.0604	872.6568	917.5646	927.6946	950.0795	966.251	974.1112	1032.6397	1046.4968	1078.3395	1133.8456	1145.6718	1167.3302	1233.6191	1267.9191	1291.9264	1346.3101	1358.6023	1386.111	1406.3027	1424.854	1478.677	1506.8403	1510.4081	1674.6025	3025.9603	3043.6901	3087.6862	3091.4458	3107.3633	3164.047	3206.2438	3482.9505
C1C23COC=NC12CN3	C1[C@@]23COC=N[C@@]12CN3	
InChI=1S/C6H8N2O/c1-5-2-7-6(1,5)3-9-4-8-5/h4,7H,1-3H2	InChI=1S/C6H8N2O/c1-5-2-7-6(1,5)3-9-4-8-5/h4,7H,1-3H2/t5-,6-/m1/s1
