21
gdb 69845	2.2699	2.03535	1.49089	1.5085	80.9	-0.2369	0.0898	0.3267	998.6333	0.182879	-387.052607	-387.044601	-387.043657	-387.084312	33.141	
C	 0.0194213483	 1.4615996235	 0.0157929374	-0.486488
C	-0.0369085927	-0.0448886177	-0.009315695	 0.335323
C	-0.8935777567	-0.8215244876	 0.9613289193	-0.367179
C	 0.6131659897	-0.9266515436	 1.0422513654	-0.083361
C	 1.3622067668	-1.8852499943	 0.0997051504	 0.065702
C	 0.3435604389	-2.2974881631	-0.9778250857	-0.287328
C	 0.5033497503	-0.7849897496	-1.2733261913	 0.346756
C	 0.2823426225	-0.180449461	-2.632629088	-0.507533
O	 1.9273066566	-0.9492853795	-0.8892556806	-0.336846
H	 1.0009312065	 1.8182537863	-0.3145553939	 0.130245
H	-0.7420013085	 1.9116805159	-0.6323290796	 0.113997
H	-0.148337625	 1.840435764	 1.0289775946	 0.112717
H	-1.3582902659	-0.2277614471	 1.7443503476	 0.107359
H	-1.5038403436	-1.6608429851	 0.6509229166	 0.110688
H	 1.1412094304	-0.5086420808	 1.8915687818	 0.089971
H	 2.0966639087	-2.5689408254	 0.5240425821	 0.075248
H	 0.8272991954	-2.883497409	-1.7593535043	 0.107219
H	-0.6227416611	-2.7289910525	-0.7159148221	 0.092953
H	-0.7880949746	-0.1464097378	-2.8615470887	 0.12293
H	 0.6711632518	 0.841212142	-2.6766025026	 0.13109
H	 0.7845291324	-0.7715939374	-3.4027055435	 0.126536
163.4761	194.1779	237.8201	257.8496	287.681	351.9318	406.4955	461.8103	508.0989	593.3405	603.2496	627.1785	719.8716	774.556	819.8159	835.4403	864.8863	902.7263	908.2813	960.9524	969.2374	975.0149	1018.3025	1030.0989	1055.6033	1076.8917	1102.4999	1111.4457	1133.6528	1175.1704	1214.2407	1235.5899	1272.3704	1286.9028	1295.2198	1321.1653	1381.6774	1414.6525	1416.0424	1476.2673	1483.324	1490.5407	1493.1914	1504.8874	1517.992	3023.1855	3041.2459	3083.7764	3084.3826	3099.4115	3110.3206	3121.201	3123.5627	3127.3946	3145.0591	3177.5708	3205.6554
CC12CC1C1CC2(C)O1	C[C@]12C[C@H]1[C@H]1C[C@]2(C)O1	
InChI=1S/C8H12O/c1-7-3-5(7)6-4-8(7,2)9-6/h5-6H,3-4H2,1-2H3	InChI=1S/C8H12O/c1-7-3-5(7)6-4-8(7,2)9-6/h5-6H,3-4H2,1-2H3/t5-,6+,7-,8-/m0/s1
