15
gdb 42835	2.61461	1.89907	1.6959	2.9595	63.54	-0.2562	-0.0205	0.2357	857.3795	0.113605	-457.737099	-457.730606	-457.729661	-457.767873	25.893	
O	 0.0959727077	-0.0149582522	-0.0339553818	-0.297282
C	 0.025561176	 1.1657514114	 0.0731135469	 0.443493
C	-1.0853504768	 2.237820406	 0.0426857458	-0.037275
C	-1.3726211714	 2.8143451173	 1.4376844326	-0.255561
C	-0.0637410278	 3.1366944987	 2.1420741707	 0.03975
O	 0.7810331252	 2.0256639194	 2.4546559456	-0.245617
C	 1.1914145921	 2.9158596609	 1.4011241561	 0.04965
C	 0.9877026143	 2.3767753802	-0.0082407602	-0.084344
O	-0.1164653969	 3.0947383819	-0.6347344133	-0.295996
H	-1.9834617655	 2.0598658823	-0.5530813203	 0.107314
H	-1.9538845903	 3.7355910583	 1.3211393892	 0.124641
H	-1.9689189664	 2.1138378738	 2.033352082	 0.132193
H	-0.0970207804	 3.9036041011	 2.9138424281	 0.108332
H	 2.080741304	 3.5024069752	 1.6175222609	 0.107271
H	 1.8805797261	 2.3439189457	-0.6337972423	 0.10343
147.0899	197.8079	317.0016	388.4925	433.5997	479.5622	538.5121	584.3292	723.7293	768.6589	801.0456	832.1919	874.8035	897.3977	916.2506	944.7101	988.4247	1009.2524	1058.5773	1068.3437	1085.2323	1129.6342	1156.9078	1216.3445	1247.0514	1271.0242	1280.1976	1321.2485	1352.1694	1371.1945	1444.0847	1463.5211	1934.1406	3043.2224	3088.6694	3098.1582	3115.7589	3128.8183	3149.4727
O=C1C2CC3OC3C1O2	O=C1[C@H]2C[C@H]3O[C@H]3[C@@H]1O2	
InChI=1S/C6H6O3/c7-4-2-1-3-5(9-3)6(4)8-2/h2-3,5-6H,1H2	InChI=1S/C6H6O3/c7-4-2-1-3-5(9-3)6(4)8-2/h2-3,5-6H,1H2/t2-,3-,5-,6-/m1/s1
