20
gdb 93354	2.8347	1.49242	1.14801	3.1005	79.08	-0.2286	-0.0165	0.212	1112.1849	0.172194	-403.151531	-403.143382	-403.142438	-403.184077	32.125	
C	-0.4630960142	 1.5500411269	 0.0249104128	-0.394014
C	-0.0126701058	 0.0872053683	-0.0180448199	 0.051261
C	 0.5762551443	-0.3202176052	-1.3839410799	-0.221048
C	 2.0659740002	 0.0421421957	-1.5172043773	-0.324738
C	 2.8461041343	-0.7218873717	-0.4588716757	 0.399421
O	 3.8480408892	-1.3574995126	-0.6995576847	-0.327635
C	 2.2469698198	-0.700784641	 0.9128271985	-0.110736
C	 1.9511884672	 0.6462938446	 1.5102655591	-0.246909
N	 0.8698602562	-0.2359314269	 1.1334541697	-0.096862
H	 0.3340747388	 2.2436587712	-0.2613408684	 0.114972
H	-1.2976226923	 1.7026400714	-0.6658737512	 0.119998
H	-0.7993210123	 1.817820792	 1.0306786916	 0.12987
H	-0.9071249567	-0.5267416023	 0.1415646026	 0.092226
H	 0.4739529908	-1.4047533948	-1.5088261436	 0.113789
H	-0.008290421	 0.1402999863	-2.1879027565	 0.105089
H	 2.4694920728	-0.2274241911	-2.4957530283	 0.124992
H	 2.2128964666	 1.1216020064	-1.3881285426	 0.117948
H	 2.5894613129	-1.5050656036	 1.5584955734	 0.109495
H	 2.0959459701	 0.7893175432	 2.5782526686	 0.125968
H	 2.1780823692	 1.5213304333	 0.9061452321	 0.116912
76.2088	161.12	234.5106	252.0283	316.8266	352.4438	389.5346	410.5577	472.9857	557.6361	582.3921	683.8971	724.1928	757.6556	811.9366	881.7079	909.7927	930.4151	969.3525	987.0353	1016.5538	1054.4526	1082.433	1108.8572	1110.7044	1143.2398	1153.686	1187.8547	1224.5331	1259.5115	1299.1406	1334.9698	1346.9773	1366.5283	1382.5682	1387.5097	1409.0294	1468.3259	1489.1479	1497.3729	1499.5467	1517.5382	1805.4895	3018.0821	3034.8287	3039.007	3039.8896	3074.2644	3101.7845	3107.6443	3110.6918	3117.328	3148.6109	3184.3065
CC1CCC(=O)C2CN12	C[C@H]1CCC(=O)[C@H]2CN12	
InChI=1S/C7H11NO/c1-5-2-3-7(9)6-4-8(5)6/h5-6H,2-4H2,1H3	InChI=1S/C7H11NO/c1-5-2-3-7(9)6-4-8(5)6/h5-6H,2-4H2,1H3/t5-,6+,8?/m0/s1
