15
gdb 50444	2.99169	1.53534	1.06594	5.941	69.26	-0.2338	-0.0247	0.2092	1064.7397	0.114119	-454.009415	-454.001595	-454.000651	-454.042338	28.517	
O	-0.1462414172	 0.1085419094	-0.6100194468	-0.270332
C	 0.0063656559	 1.2682371604	-0.3474341569	 0.166097
N	 1.1859564192	 1.8997862396	 0.0545444358	-0.175253
C	 1.1445083486	 3.3487667183	 0.3285105074	-0.227723
C	 2.3859262442	 4.0277421764	-0.1760368434	-0.135599
C	 3.5156554718	 3.3243918764	-0.1912488956	 0.031434
N	 3.5177247109	 1.9865642711	 0.1975846622	-0.378987
C	 2.3895184448	 1.1769651356	 0.2349476259	 0.488329
O	 2.4647689837	-0.0153825288	 0.3883452607	-0.348105
H	-0.8113119087	 2.0147815604	-0.4171160618	 0.079798
H	 0.2494177144	 3.7500616541	-0.1546992066	 0.131691
H	 1.0215237803	 3.5173526198	 1.4103036888	 0.131518
H	 2.3531032554	 5.0630167859	-0.484598136	 0.111953
H	 4.474922694	 3.7209791409	-0.5005670242	 0.127422
H	 4.3797635327	 1.4672194408	 0.2428018902	 0.267756
56.806	122.8935	195.453	228.2757	267.5748	424.556	450.7907	484.2641	539.6415	553.6965	655.4585	712.3342	755.5051	782.1166	906.1722	937.8877	978.0011	1022.2863	1028.2648	1086.6723	1165.8277	1195.7274	1219.2468	1273.9746	1316.9101	1410.603	1413.6249	1465.6927	1469.2828	1506.0677	1733.9313	1794.8596	1874.9196	2916.7537	2971.2415	3079.7973	3207.1945	3236.4343	3651.9118
O=CN1CC=CNC1=O	O=CN1CC=CNC1=O	
InChI=1S/C5H6N2O2/c8-4-7-3-1-2-6-5(7)9/h1-2,4H,3H2,(H,6,9)	InChI=1S/C5H6N2O2/c8-4-7-3-1-2-6-5(7)9/h1-2,4H,3H2,(H,6,9)
