22
gdb 104317	2.82967	1.32859	1.24376	1.937	81.08	-0.229	0.0814	0.3103	1154.7407	0.19441	-404.321644	-404.312685	-404.311741	-404.354853	34.903	
C	 0.1079281499	 1.3542760809	-0.039133868	-0.247803
O	-0.0269940235	-0.0497775715	-0.0310898168	-0.288507
C	-1.3549683396	-0.5647803954	 0.0343794392	 0.416697
C	-2.0778387132	-0.1218204906	 1.3141308231	-0.4523
C	-2.1906037841	-0.2592062376	-1.2426664524	-0.304697
C	-3.0024023047	-1.5506007009	-1.4800942644	-0.161641
N	-2.2678831009	-2.6785872954	-0.8713236918	-0.100514
C	-0.8520416013	-2.7314489994	-1.2637268734	-0.259663
C	-1.2458295698	-2.0878292265	 0.0117102851	-0.043257
H	 1.1675017804	 1.5643390899	-0.2067543878	 0.12654
H	-0.4713607301	 1.8259320479	-0.8463366753	 0.103594
H	-0.1875300663	 1.8156254881	 0.9135082984	 0.107501
H	-2.2631331816	 0.9559433778	 1.325342801	 0.114751
H	-3.046350468	-0.625318419	 1.3928410636	 0.127913
H	-1.4849169001	-0.382051082	 2.1964288778	 0.123207
H	-2.8362876598	 0.6150379817	-1.1294166028	 0.099368
H	-1.5065280003	-0.0567507096	-2.0714471906	 0.112643
H	-3.9765098885	-1.4934225675	-0.981799451	 0.107517
H	-3.1897299988	-1.7496000669	-2.540138874	 0.10629
H	-0.4196076718	-3.7273323939	-1.2495633084	 0.114518
H	-0.4983748384	-2.0979437245	-2.0724170199	 0.113831
H	-1.0651967391	-2.5896596659	 0.9583302987	 0.084013
103.4253	122.042	187.8137	199.8163	259.3457	301.0442	333.0352	369.296	401.1632	447.0324	491.2528	609.7634	656.2964	715.5988	798.7501	831.6191	875.7235	911.2146	934.0782	961.5681	989.5843	1008.1874	1014.5278	1092.7205	1100.9602	1116.0031	1141.0548	1172.261	1181.6132	1185.6477	1214.2766	1222.2015	1240.511	1272.0044	1274.3939	1313.1181	1350.9239	1394.5275	1408.3764	1476.1217	1482.0007	1489.7042	1494.3358	1501.9423	1507.0991	1512.9	1521.5432	2988.3576	3036.0062	3038.2751	3042.307	3060.729	3080.2767	3107.3208	3107.9777	3112.0471	3115.3463	3115.8119	3144.5869	3198.5914
COC1(C)CCN2CC12	CO[C@@]1(C)CCN2C[C@@H]12	
InChI=1S/C7H13NO/c1-7(9-2)3-4-8-5-6(7)8/h6H,3-5H2,1-2H3	InChI=1S/C7H13NO/c1-7(9-2)3-4-8-5-6(7)8/h6H,3-5H2,1-2H3/t6-,7-,8?/m0/s1
