15
gdb 33977	2.41392	1.74263	1.20654	0.6445	72.87	-0.2507	0.0104	0.2611	1021.6354	0.109995	-420.520684	-420.512897	-420.511953	-420.55293	29.912	
C	-0.042095322	-1.2004559762	-0.090701279	-0.408601
C	 0.0226200846	-0.0029564517	-0.0068650696	 0.202044
C	 0.0520062227	 1.4089764718	 0.1319447566	 0.245106
O	 0.2697018847	 2.2553847509	-1.0203924482	-0.285563
C	 1.1453762961	 2.4159047353	 0.0934177326	-0.06977
C	 0.433567394	 3.3278324885	 1.1064797258	-0.345082
C	-0.7146698618	 2.2918309477	 1.1243801194	 0.36039
C	-2.1499903051	 2.3897266587	 1.3644530198	-0.262618
O	-1.2533298029	 1.7910355425	 2.32274711	-0.263565
H	-0.0912212029	-2.2586426913	-0.1678248721	 0.196488
H	 2.2056988366	 2.2700723876	-0.0739004294	 0.124913
H	 0.9292495903	 3.3664052689	 2.0798609516	 0.131034
H	 0.2087660061	 4.3357872752	 0.7523223868	 0.12224
H	-2.5825203109	 3.3410591848	 1.6688951802	 0.123913
H	-2.8292280596	 1.6975906473	 0.8703714451	 0.129072
105.4448	134.7617	174.3404	296.6786	317.4109	395.3442	473.0495	495.6176	563.5896	588.3088	612.0468	631.2861	670.4408	793.6483	848.8153	877.4177	882.6736	928.0901	947.8275	995.7199	1063.6271	1092.6038	1119.5985	1148.6535	1167.2839	1188.7494	1239.0341	1260.8144	1404.8046	1438.1858	1470.582	1536.545	2243.8982	3070.9287	3091.0153	3132.5186	3181.7814	3198.4168	3500.8502
C#CC12OC1CC21CO1	C#C[C@]12O[C@H]1C[C@]12CO1	
InChI=1S/C7H6O2/c1-2-7-5(9-7)3-6(7)4-8-6/h1,5H,3-4H2	InChI=1S/C7H6O2/c1-2-7-5(9-7)3-6(7)4-8-6/h1,5H,3-4H2/t5-,6+,7-/m0/s1
