15
gdb 69232	2.69825	1.67966	1.19789	2.517	67.53	-0.2674	-0.0262	0.2412	1004.4344	0.114007	-453.981746	-453.974179	-453.973235	-454.013688	29.051	
N	-0.0650392744	 1.4448832561	-0.1511291816	-0.58244
C	-0.0435952637	 0.0259816706	-0.0232135342	 0.241999
C	-0.4597390425	-0.8107269274	-1.2029144595	-0.307966
C	-1.3092608831	-0.8171719582	 0.0528988836	-0.227327
C	-1.0051999616	-1.9306103758	 0.9906952025	 0.441204
O	-1.7131960984	-2.7705719545	 1.4495450183	-0.316112
O	 0.3529723875	-1.868188466	 1.3241224744	-0.231643
C	 0.9118500895	-0.6733534579	 0.8946610195	 0.354862
N	 2.0316695857	-0.233993609	 1.2610476318	-0.534825
H	-0.0479790339	 1.8790778366	 0.7675258211	 0.243853
H	 0.7782133864	 1.755463747	-0.625587432	 0.251126
H	-0.8752501518	-0.249523588	-2.0313495229	 0.146241
H	 0.1057105481	-1.6963856637	-1.4687975296	 0.143665
H	-2.307373911	-0.4039271068	 0.0345046218	 0.137749
H	 2.4865729732	-0.8748096931	 1.9128214567	 0.239613
131.5225	145.7061	225.983	269.1597	311.1538	357.1137	416.6043	538.451	551.9132	629.4608	708.602	746.6248	766.2131	807.3658	873.1162	885.9761	908.327	910.6134	956.7374	1000.7261	1031.5215	1085.7318	1087.4598	1140.0855	1234.9567	1264.4351	1284.0221	1342.7529	1410.258	1484.9435	1670.8383	1784.982	1916.605	3145.0297	3230.0035	3242.5471	3485.8172	3495.371	3564.4406
NC12CC1C(=O)OC2=N	N[C@]12C[C@H]1C(=O)O[C]2[NH]	
InChI=1S/C5H6N2O2/c6-4-5(7)1-2(5)3(8)9-4/h2,6H,1,7H2	InChI=1S/C5H6N2O2/c6-4-5(7)1-2(5)3(8)9-4/h2,6H,1,7H2/t2-,5+/m0/s1
