20
gdb 6537	3.26875	1.51498	1.26467	2.38	71.31	-0.2286	0.0578	0.2864	1056.7282	0.173923	-386.130818	-386.121307	-386.120363	-386.16425	36.018	
C	-0.0460605679	 1.5621732926	-0.267239074	-0.38907
C	-0.011879337	 0.0998600372	 0.1939357649	-0.227826
C	-1.3636332239	-0.5764063154	 0.0977903137	 0.312445
O	-2.341578025	 0.008338037	 0.939658123	-0.476992
C	-1.8665915922	-1.16720512	-1.2093711323	-0.416228
C	-1.5567807351	-2.0716141161	-0.0227840827	 0.406051
C	-0.4112056366	-3.0511767748	-0.0762981732	-0.441657
O	-2.6395313945	-2.607159031	 0.6804209796	-0.478563
H	 0.9423483256	 2.0236000027	-0.1865520526	 0.116285
H	-0.3695432291	 1.640885	-1.3110476316	 0.115992
H	-0.7354013666	 2.1498806008	 0.3475771246	 0.114934
H	 0.7162085752	-0.4560556589	-0.4051185273	 0.099541
H	 0.3308097559	 0.0496474624	 1.2347635209	 0.107031
H	-2.7859585049	 0.7090882494	 0.4520763469	 0.291373
H	-2.9167255522	-1.0330350695	-1.4498360911	 0.106637
H	-1.1957422366	-1.1659293016	-2.063175994	 0.108113
H	 0.4155781344	-2.6816908161	-0.6870968533	 0.11216
H	-0.0374716611	-3.2648180524	 0.930173686	 0.123011
H	-0.7593086085	-3.9931323815	-0.5123876217	 0.129009
H	-3.0555305897	-1.8584455547	 1.1314010743	 0.287753
80.6442	142.5336	179.8159	212.9537	236.1816	276.0199	287.6194	324.1308	388.3196	398.1447	431.7177	472.3698	499.438	593.1191	694.9339	744.7427	790.3891	872.6699	906.5834	930.31	975.7087	987.7474	1021.5616	1043.1006	1089.4287	1104.7743	1170.2951	1197.277	1250.9423	1302.0539	1314.9614	1348.1923	1381.2822	1401.2423	1404.1578	1436.7587	1469.845	1478.0388	1484.4223	1498.6007	1507.8222	1511.426	3032.3416	3034.7186	3040.2953	3078.228	3103.1151	3104.1966	3109.4418	3117.1236	3125.9164	3210.0374	3729.1535	3816.5714
CCC1(O)CC1(C)O	CC[C@@]1(O)C[C@]1(C)O	
InChI=1S/C6H12O2/c1-3-6(8)4-5(6,2)7/h7-8H,3-4H2,1-2H3	InChI=1S/C6H12O2/c1-3-6(8)4-5(6,2)7/h7-8H,3-4H2,1-2H3/t5-,6+/m0/s1
