14
gdb 31473	5.92243	0.88814	0.80239	6.0215	71.19	-0.2609	-0.0405	0.2204	1356.1727	0.102567	-432.901566	-432.893495	-432.892551	-432.93506	28.44	
N	 0.3410322282	 1.3820898577	-0.2793910353	-0.509085
C	-0.1025996437	 0.0427838855	 0.1180175118	-0.279327
C	 0.6580117555	-0.4297813271	 1.3115125221	 0.433595
N	 0.2112697361	-0.8869499909	 2.4336239943	-0.339914
C	 1.3589992948	-1.1987840002	 3.1638054474	 0.141961
C	 2.4549227304	-0.8985348479	 2.4166273124	-0.095363
O	 2.0226278358	-0.4112593614	 1.2289352957	-0.167368
C	 1.3237726456	-1.7381965767	 4.4758452007	 0.217653
N	 1.3170981405	-2.179935353	 5.5452213075	-0.329664
H	 1.2880979817	 1.3365239271	-0.6428670138	 0.24039
H	-0.2433272917	 1.7165646281	-1.0388002546	 0.240285
H	-1.1530590338	 0.082350174	 0.4150204292	 0.15451
H	-0.0155665408	-0.7218416243	-0.674119515	 0.115417
H	 3.5173421412	-0.964270441	 2.5737697177	 0.176909
48.1657	122.1903	152.8176	199.5053	220.5826	330.4837	406.356	511.7944	560.8385	580.3871	676.5676	705.7361	755.4659	806.2573	848.244	943.9533	1002.6798	1014.3433	1068.3828	1151.3251	1160.3561	1227.0587	1274.6197	1311.1652	1341.0777	1420.3766	1493.5235	1591.6104	1635.3577	1659.4589	2359.3588	2946.036	3111.0732	3301.6358	3501.4508	3581.5036
NCC1=NC(=CO1)C#N	NCc1nc(co1)C#N	
InChI=1S/C5H5N3O/c6-1-4-3-9-5(2-7)8-4/h3H,2,7H2	InChI=1S/C5H5N3O/c6-1-4-3-9-5(2-7)8-4/h3H,2,7H2
