16
gdb 83413	2.74893	1.41511	1.17847	5.1509	65.25	-0.2448	-0.0077	0.2371	1067.7125	0.124546	-475.002975	-474.994846	-474.993902	-475.035824	30.52	
N	-0.9218894862	 1.1897889175	-0.0928046664	-0.529239
H	-0.0205724901	 0.7347866691	-0.1955210534	 0.245847
H	 1.8290370458	 1.2803832242	 3.3814830188	 0.314838
H	-1.614224082	 0.6378455032	-0.5879852503	 0.236216
C	-1.253658384	 1.3274220556	 1.294074123	-0.037718
C	-1.3506498063	 0.2104646184	 2.327478803	-0.192295
C	-0.2681300646	-0.8299378383	 2.0701829591	-0.112597
O	 0.7683744345	 0.19907264	 1.9891981534	-0.348045
C	-0.1927253994	 1.21188839	 2.3380344942	 0.26747
C	 0.2087687595	 2.2437960149	 3.3327288328	 0.367486
O	-0.5130813382	 3.1308072995	 3.6980779428	-0.340221
O	 1.4602025737	 2.0749329532	 3.8014378502	-0.377363
H	-1.9451418767	 2.136264664	 1.5188663446	 0.137954
H	-2.1648761136	 0.1236130661	 3.033853669	 0.123253
H	-0.0758330084	-1.4962852481	 2.9154974815	 0.130517
H	-0.3334932339	-1.4068329993	 1.1415851376	 0.1139
82.2783	147.5042	185.0049	208.8962	281.978	287.8353	385.1308	483.4754	515.3049	622.9057	660.0128	695.2037	738.326	770.2993	835.501	854.8439	910.4585	960.3331	964.8402	991.2026	1001.6477	1092.2788	1118.3392	1146.1868	1167.3547	1216.0761	1224.145	1278.7374	1323.8692	1340.407	1385.0522	1469.8203	1509.3387	1651.2903	1868.6078	3043.318	3100.6114	3151.7669	3212.6576	3503.7898	3586.6429	3696.2851
[NH3+]C1C2COC12C([O-])=O	N[C@H]1[C@H]2CO[C@@]12C(=O)O	
InChI=1S/C5H7NO3/c6-3-2-1-9-5(2,3)4(7)8/h2-3H,1,6H2,(H,7,8)	InChI=1S/C5H7NO3/c6-3-2-1-9-5(2,3)4(7)8/h2-3H,1,6H2,(H,7,8)/t2-,3+,5-/m1/s1
