19
gdb 33208	5.70433	0.67865	0.65107	3.6871	78.97	-0.218	0.0314	0.2494	1734.1235	0.160389	-419.234815	-419.225695	-419.224751	-419.270175	32.113	
C	 0.029253183	 1.3849656149	-0.1178372777	-0.229942
O	 0.0132920238	-0.0172611262	 0.0042454218	-0.2272
C	-1.2880290039	-0.5552314595	 0.0013401065	-0.040432
C	-1.1771189743	-2.0743566284	 0.1663803297	-0.339073
C	-2.4999608982	-2.7654905282	 0.153176282	 0.288329
C	-3.2670469309	-3.3229477884	 1.1454894882	-0.162891
N	-4.4442560644	-3.8310234735	 0.6443835873	-0.251953
C	-4.4008070261	-3.5869538198	-0.6434751072	 0.009963
N	-3.2504063828	-2.9427966002	-0.9958896294	-0.295589
H	 1.0743217009	 1.7033885376	-0.1014180027	 0.129032
H	-0.4291153555	 1.7186214362	-1.062687228	 0.102601
H	-0.5050414074	 1.8738141033	 0.7120255618	 0.106958
H	-1.8928475438	-0.1319820398	 0.8203165529	 0.097586
H	-1.8077635032	-0.3058532366	-0.9411580045	 0.075295
H	-0.5198763862	-2.4591800621	-0.6236658092	 0.113315
H	-0.6770620822	-2.2840747073	 1.1163654789	 0.129603
H	-3.0288311153	-3.3884236205	 2.1969536606	 0.104937
H	-5.1583846595	-3.8491298395	-1.3671691381	 0.126933
H	-2.981734164	-2.666547522	-1.9256829327	 0.262531
43.3684	77.1636	90.7239	111.1088	231.9827	250.9491	321.6512	335.7678	448.9856	524.5005	670.6131	684.7682	747.3242	795.5186	806.1972	851.0472	932.7498	994.7161	1010.8538	1053.7358	1056.8744	1113.3832	1146.8465	1162.785	1179.7408	1222.7913	1225.7618	1255.523	1277.6971	1305.8039	1323.5596	1386.0197	1418.3763	1427.7352	1481.1027	1485.4504	1486.284	1504.3906	1508.5019	1530.0063	1616.2499	2941.6882	2970.2677	2983.4555	3013.9227	3031.954	3095.1024	3115.2793	3242.6242	3249.568	3660.1268
COCCC1=CN=CN1	COCCc1cnc[nH]1	
InChI=1S/C6H10N2O/c1-9-3-2-6-4-7-5-8-6/h4-5H,2-3H2,1H3,(H,7,8)	InChI=1S/C6H10N2O/c1-9-3-2-6-4-7-5-8-6/h4-5H,2-3H2,1H3,(H,7,8)
