16
gdb 48113	3.10949	1.32216	1.03349	2.6509	69.14	-0.2339	-0.0901	0.1437	1126.8931	0.123136	-437.84674	-437.838589	-437.837645	-437.880435	29.471	
O	-0.6242795616	 1.5457211236	 0.88777545	-0.22213
C	 0.1888346533	 1.0988832452	 0.1213072713	 0.085989
C	 1.2533171266	 1.952015155	-0.5833823982	 0.299683
O	 1.9413237922	 1.4169549543	-1.4204439522	-0.277602
C	 1.3178960145	 3.4138639031	-0.2195491854	-0.108731
C	 1.52924729	 3.8427435525	 1.2872291511	-0.236915
C	 2.7843108338	 4.5965435349	 0.8333787647	-0.041855
N	 3.6723516079	 3.5666838382	 0.2485010545	-0.326917
C	 2.5998286846	 4.1665196021	-0.5801927024	-0.063609
H	 0.2323130199	 0.0284430601	-0.1729069178	 0.107763
H	 0.4166021236	 3.8990991417	-0.6089996475	 0.115716
H	 0.721196841	 4.4811883497	 1.6447696947	 0.117143
H	 1.7082784472	 3.0388483563	 2.0034831428	 0.117473
H	 3.1836321979	 5.5195325084	 1.2339612871	 0.100422
H	 4.5439097985	 4.0236029484	-0.017631307	 0.232797
H	 2.8288460706	 4.6730252765	-1.5084848755	 0.100772
45.872	121.4519	135.3671	151.4781	253.1104	340.1856	438.4625	514.047	550.8186	632.1843	702.9982	768.5249	817.3629	836.7056	902.7613	944.7312	964.3571	996.1436	1002.1419	1013.0406	1055.6748	1093.6413	1118.7182	1149.5301	1175.1471	1200.3279	1237.3777	1273.0481	1321.9487	1360.1014	1364.5325	1379.6478	1478.0977	1801.5475	1820.2836	2919.6389	3060.4902	3083.3736	3144.5663	3193.2311	3207.5802	3480.1943
O=CC(=O)C1CC2NC12	O=CC(=O)[C@H]1C[C@H]2N[C@@H]12	
InChI=1S/C6H7NO2/c8-2-5(9)3-1-4-6(3)7-4/h2-4,6-7H,1H2	InChI=1S/C6H7NO2/c8-2-5(9)3-1-4-6(3)7-4/h2-4,6-7H,1H2/t3-,4-,6+/m1/s1
