13
gdb 42541	4.61385	1.2265	1.1361	3.5529	67.78	-0.252	-0.0342	0.2178	1022.2577	0.089902	-415.553332	-415.54656	-415.545616	-415.584664	25.964	
O	 0.0663830035	 0.074899698	 0.019329665	-0.317024
C	 0.0149336783	 1.2648409793	-0.0418359581	 0.516745
C	-1.0914722557	 2.2835386002	 0.022619169	-0.257821
C	-0.1259837668	 3.2127023108	 0.7967391172	-0.147778
C	 1.0465729225	 2.4098753048	 0.0944237491	-0.199732
N	 0.8268097971	 3.1411068956	-1.2066301498	-0.361786
C	-0.4805986909	 3.5424587271	-0.62179741	 0.273225
C	-1.2993386206	 4.587909055	-1.1453614935	 0.184921
N	-1.9461874829	 5.4512896713	-1.5620245131	-0.330158
H	-2.1586883485	 2.1667760355	 0.1462588881	 0.141854
H	-0.2718708684	 3.7000020955	 1.750030062	 0.142634
H	 2.0639915392	 2.2531716428	 0.4378613616	 0.116391
H	 1.4165451032	 3.973793004	-1.1981765875	 0.238529
117.3817	149.4133	215.875	399.9454	480.3536	489.4265	535.3235	561.4864	648.495	728.2477	751.0089	795.0843	820.9319	871.4846	896.6487	940.052	959.4591	996.4742	1052.5323	1067.4665	1108.696	1138.3505	1178.4197	1196.3027	1257.5012	1334.5557	1399.1312	1909.5368	2357.039	3186.2388	3225.6307	3236.1543	3457.9703
O=C1C2C3C1NC23C#N	O=C1[C@H]2[C@H]3[C@@H]1N[C@@]23C#N	
InChI=1S/C6H4N2O/c7-1-6-2-3(6)5(9)4(2)8-6/h2-4,8H	InChI=1S/C6H4N2O/c7-1-6-2-3(6)5(9)4(2)8-6/h2-4,8H/t2-,3+,4-,6+/m0/s1
