18
gdb 85695	2.12945	1.54737	1.17106	4.3836	76.1	-0.2732	0.0003	0.2735	1128.0879	0.146547	-401.92992	-401.921179	-401.920234	-401.963727	32.335	
C	-0.615206329	 1.3860353047	 0.008538192	-0.402939
C	-0.0123976555	-0.0013647942	-0.0463359943	 0.086605
O	 1.2198721914	-0.0373444636	-0.8316770295	-0.30432
C	 1.9775814835	-0.5898816324	 0.2580712916	-0.071134
C	 3.1226007823	 0.2428997118	 0.6439359184	 0.286138
N	 4.0197183854	 0.8867699762	 0.9850576295	-0.327801
C	 0.7480741773	-0.5294696103	 1.1731873082	 0.269775
C	 0.68171941	-0.0876214128	 2.6002072114	-0.32324
C	 0.330518418	-1.5087470352	 2.2224829023	-0.328051
H	 0.0921753367	 2.1030102765	 0.4337879031	 0.13522
H	-0.8846542077	 1.7164129005	-0.9992228415	 0.135136
H	-1.525761802	 1.3833926174	 0.617809901	 0.119325
H	-0.73224838	-0.7218365487	-0.4574771823	 0.086642
H	 2.3388562499	-1.6017334577	 0.0313228731	 0.123915
H	 1.6195852191	 0.094076987	 3.1149849685	 0.140398
H	-0.1222433449	 0.5821237958	 2.8871059905	 0.125598
H	-0.71356373	-1.8047875724	 2.2489928319	 0.123277
H	 1.0250034854	-2.2985988526	 2.490470506	 0.125456
47.7186	123.5703	186.0253	204.1155	216.5426	272.9036	334.6843	371.2365	492.9762	514.9827	534.1131	607.4867	767.4605	796.0195	839.7675	883.1295	921.3277	968.3684	978.7791	984.4768	1035.9526	1058.6541	1079.2342	1085.421	1099.4706	1141.2647	1187.4484	1223.1582	1254.4223	1290.6006	1344.6348	1378.5768	1404.2499	1412.2039	1463.536	1483.6347	1489.983	1508.1947	2354.3537	3011.8865	3019.616	3037.325	3107.7156	3125.4067	3125.8311	3131.9667	3205.4758	3220.7875
CC1OC(C#N)C11CC1	C[C@H]1O[C@@H](C#N)C21CC2	
InChI=1S/C7H9NO/c1-5-7(2-3-7)6(4-8)9-5/h5-6H,2-3H2,1H3	InChI=1S/C7H9NO/c1-5-7(2-3-7)6(4-8)9-5/h5-6H,2-3H2,1H3/t5-,6+/m1/s1
