18
gdb 6877	2.73909	1.65981	1.41314	0.8499	75.03	-0.2292	0.0499	0.2791	984.9122	0.150386	-347.763714	-347.754484	-347.75354	-347.796722	34.634	
C	-0.1412458932	 1.5398739441	-0.0397786368	-0.420402
C	 0.0273708982	 0.0433042345	 0.0756045164	-0.048732
C	 1.3863772098	-0.641205445	-0.1643904456	-0.314542
C	 2.56773583	 0.119867318	-0.4295826043	 0.350827
C	 3.5662628289	 0.7562294266	-0.6503171317	-0.473028
C	 0.7116776561	-0.633122747	 1.2179868502	 0.38332
C	 1.3253319426	 0.1225247821	 2.3718091645	-0.456267
O	 0.0910986579	-1.8368380891	 1.585194456	-0.458486
H	 0.7616135266	 2.0784497059	 0.2564372638	 0.131025
H	-0.3604666208	 1.818979959	-1.0755078664	 0.124538
H	-0.9707188996	 1.8891995349	 0.5843041699	 0.120401
H	-0.8026301176	-0.538766529	-0.3147368385	 0.103502
H	 1.3265911891	-1.5985062639	-0.6738035942	 0.111242
H	 4.4492602956	 1.3112009441	-0.8484439575	 0.192176
H	 1.8217167422	 1.0371122036	 2.0442283711	 0.136619
H	 0.556874063	 0.3773157332	 3.1083499467	 0.126161
H	 2.0817355293	-0.4963121519	 2.8701397696	 0.111725
H	 0.7593901619	-2.4027672701	 1.9888539367	 0.27992
124.3881	141.7292	164.4289	187.5304	230.5265	257.3948	329.0043	356.6544	395.7624	415.7597	468.8125	541.6679	567.1994	598.2981	650.9672	702.2174	780.507	845.1552	928.184	982.6124	1017.0918	1030.2201	1081.2927	1117.4891	1134.0554	1144.3521	1227.3542	1276.3729	1328.8402	1359.3995	1416.2726	1422.4177	1448.6334	1482.6031	1489.2116	1502.8581	1515.317	2225.6035	3030.3956	3039.0613	3092.553	3097.8224	3123.593	3142.1374	3147.8522	3158.3716	3504.6046	3787.0809
CC1C(C#C)C1(C)O	C[C@H]1[C@@H](C#C)[C@]1(C)O	
InChI=1S/C7H10O/c1-4-6-5(2)7(6,3)8/h1,5-6,8H,2-3H3	InChI=1S/C7H10O/c1-4-6-5(2)7(6,3)8/h1,5-6,8H,2-3H3/t5-,6+,7+/m0/s1
