16
gdb 105133	2.41295	1.27767	1.00223	3.023	75.47	-0.2553	-0.0195	0.2357	1198.8563	0.123578	-396.926148	-396.916974	-396.91603	-396.960383	32.697	
C	 0.2411297699	 1.3554197333	 0.2964953355	-0.335464
N	-0.2314417263	 0.1015311876	-0.2800872317	-0.34939
C	 0.6030708324	-0.4624951486	-1.2901839762	 0.176083
C	 1.9914515377	-1.0190179002	-0.9966703555	-0.30902
C	 0.8554243919	-1.9756453998	-1.300454163	-0.231616
C	 0.2845953543	-2.7556992139	-0.239264715	 0.301813
N	-0.1856213062	-3.3525923118	 0.6333835902	-0.329223
C	 0.429171699	 0.1381657591	-2.601439001	 0.291323
N	 0.3139965648	 0.6281240381	-3.6420631412	-0.334616
H	 1.2367505414	 1.2866677807	 0.76390008	 0.107603
H	 0.2849702452	 2.1224602838	-0.4831946744	 0.148422
H	-0.4757907054	 1.6868042904	 1.050907374	 0.138121
H	-0.4818665978	-0.5824138654	 0.4228591418	 0.25278
H	 2.7680176004	-0.9246567249	-1.7460705589	 0.154494
H	 2.3201412686	-0.9542660642	 0.0337172807	 0.153397
H	 0.8516904101	-2.4580977341	-2.2710610954	 0.165292
75.4446	108.6079	126.1426	170.4605	203.6015	249.2384	265.1788	375.9022	416.9111	501.648	556.0887	577.3593	606.9842	662.0014	695.8141	803.6171	885.0605	923.739	981.4027	1028.5581	1070.2199	1093.0081	1130.5576	1152.4701	1176.6973	1235.3351	1314.9218	1381.7253	1463.4912	1467.8168	1485.6946	1497.932	1522.584	2352.7929	2357.2639	2975.3514	3077.3335	3127.2525	3149.6517	3186.6101	3248.6075	3563.2296
CNC1(CC1C#N)C#N	CN[C@]1(C[C@H]1C#N)C#N	
InChI=1S/C6H7N3/c1-9-6(4-8)2-5(6)3-7/h5,9H,2H2,1H3	InChI=1S/C6H7N3/c1-9-6(4-8)2-5(6)3-7/h5,9H,2H2,1H3/t5-,6+/m0/s1
