19
gdb 47654	2.05851	1.78353	1.20543	3.4379	76.71	-0.2312	-0.0258	0.2054	1086.6173	0.16037	-423.030323	-423.022178	-423.021234	-423.063103	31.363	
O	 0.0482171214	-0.0126703995	 0.2116300924	-0.294396
C	-0.0135895786	 1.182861842	 0.0562572982	 0.382227
C	-1.3527306944	 1.9141341261	 0.0084301227	-0.294209
C	-1.4726063048	 2.9150000881	-1.1643099652	-0.270435
C	-1.1372043603	 2.2609973986	-2.47942707	-0.036718
C	 0.0912741884	 2.1579379917	-2.9897931325	-0.058525
C	 1.3462240053	 2.7211427487	-2.3607560011	-0.126785
O	 1.9037281183	 1.901355874	-1.3332949902	-0.235856
C	 1.2906373835	 2.008924363	-0.0627473342	-0.155193
H	-2.1320618789	 1.1485784762	-0.0412744579	 0.125199
H	-1.4797724008	 2.4525048088	 0.9587502404	 0.118762
H	-2.4930932546	 3.3104230201	-1.1824935125	 0.111785
H	-0.8124229611	 3.7695761532	-0.9828308111	 0.109651
H	-1.9610487372	 1.7760245491	-2.999242469	 0.097732
H	 0.229928031	 1.5991200364	-3.9115203989	 0.098454
H	 2.1349976693	 2.7967279625	-3.1140790955	 0.114789
H	 1.1692979202	 3.7339337921	-1.9671541743	 0.097591
H	 1.1216729197	 3.0648948553	 0.2012081255	 0.085677
H	 1.9989094636	 1.5753168236	 0.6487867932	 0.130248
68.9962	154.3521	225.5526	238.769	270.666	326.5136	399.5093	471.787	502.7991	521.939	613.8088	631.7112	753.4067	780.3622	854.6555	901.5076	921.1597	959.9656	985.9279	1009.6572	1017.5579	1029.1287	1093.8293	1126.949	1157.7443	1211.4203	1227.9823	1272.1149	1282.7705	1325.2547	1335.938	1355.0006	1385.4423	1393.3445	1425.6971	1461.3027	1475.0646	1486.1836	1503.979	1716.1712	1816.795	2979.2286	2985.1544	3014.0168	3046.3812	3080.1221	3088.1564	3093.8412	3101.0954	3143.4117	3169.9963
O=C1CCC=CCOC1	O=C1CCC=CCOC1	
InChI=1S/C7H10O2/c8-7-4-2-1-3-5-9-6-7/h1,3H,2,4-6H2/b3-1-	InChI=1S/C7H10O2/c8-7-4-2-1-3-5-9-6-7/h1,3H,2,4-6H2/b3-1-
