18
gdb 61467	4.27262	0.8405	0.75642	3.6657	68.8	-0.2377	0.0358	0.2736	1471.3597	0.147037	-476.232252	-476.223085	-476.222141	-476.266962	33.747	
N	 0.4157116393	 0.2978603777	 0.8889709532	-0.509523
C	-0.0983443782	 0.1516572003	-0.3632146529	 0.358417
O	 0.238634449	 0.8370505949	-1.3099621468	-0.360875
C	-1.1837252848	-0.9233074804	-0.4941577144	-0.301574
C	-0.858718017	-2.2832252047	 0.1516941522	 0.058358
O	-0.7472331674	-2.195375894	 1.5693388231	-0.432435
C	-1.9231177521	-3.3126459068	-0.2042440297	 0.070909
C	-2.1589815009	-4.4935748334	 0.629600171	-0.18884
O	-3.0258271582	-3.3472715528	 0.7130079346	-0.250133
H	 1.1790116098	 0.9435233789	 1.0087314896	 0.254227
H	 0.2059780449	-0.3845894832	 1.6025239657	 0.269183
H	-2.1163655293	-0.5430528273	-0.0573126438	 0.127893
H	-1.3531894336	-1.0494222785	-1.5664026056	 0.127035
H	 0.1140885467	-2.6363329343	-0.2115232164	 0.111267
H	-1.6589241238	-2.2277221431	 1.8982841405	 0.296081
H	-2.2096074505	-3.3497766782	-1.2547807789	 0.108961
H	-2.6137771312	-5.3790366549	 0.1910954534	 0.128062
H	-1.5338964227	-4.6593007804	 1.5031310552	 0.132986
50.3272	81.2367	114.9606	172.3224	254.751	309.4371	353.6004	379.4823	407.727	488.9517	553.2872	570.5215	627.1604	662.9168	737.685	793.5819	858.7585	876.6926	916.7551	942.3855	1013.8454	1044.233	1099.3251	1109.97	1142.4536	1165.2056	1171.1022	1193.9725	1265.3167	1283.0688	1324.9927	1357.9824	1369.5206	1418.3159	1440.0875	1464.2548	1518.0409	1613.3988	1799.9636	3032.3682	3048.401	3104.0853	3108.4186	3124.5361	3199.5186	3557.1608	3706.4443	3713.4328
NC(=O)CC(O)C1CO1	NC(=O)C[C@@H](O)[C@H]1CO1	
InChI=1S/C5H9NO3/c6-5(8)1-3(7)4-2-9-4/h3-4,7H,1-2H2,(H2,6,8)	InChI=1S/C5H9NO3/c6-5(8)1-3(7)4-2-9-4/h3-4,7H,1-2H2,(H2,6,8)/t3-,4-/m1/s1
