19
gdb 115370	2.47534	1.43482	1.37367	1.6361	72.8	-0.2511	-0.0047	0.2464	1073.5695	0.159547	-460.150774	-460.142073	-460.141129	-460.184158	32.64	
C	 0.6955096877	 0.9636955714	 0.3934644236	-0.247654
O	 0.634852405	-0.409392503	 0.0295649873	-0.251525
C	 0.5472514715	-0.6203161036	-1.380572156	 0.160881
O	 1.7020152997	-0.1666974063	-2.0344244725	-0.274933
C	 2.8112216895	-1.0672647094	-2.1538455692	-0.081636
C	 2.6892094549	-2.3567960334	-1.3352125746	 0.057283
O	 2.9711759198	-2.1621038875	 0.0451442533	-0.447291
C	 1.3063260569	-2.9335455792	-1.5473910854	-0.086718
C	 0.2777763801	-2.0908305023	-1.5715220168	-0.08174
H	 1.5672079917	 1.4566714017	-0.0496472907	 0.132094
H	-0.2135869068	 1.4931889663	 0.0742673582	 0.112366
H	 0.7654752619	 1.000946802	 1.4823119866	 0.131014
H	-0.2653987716	 0.0063451949	-1.7726674128	 0.080674
H	 2.9182220742	-1.3276039531	-3.2156190448	 0.099706
H	 3.7071141602	-0.5241602155	-1.8350004192	 0.113759
H	 3.4598215367	-3.0464039587	-1.6948448579	 0.083108
H	 2.2449860935	-1.6244590298	 0.396439253	 0.288849
H	 1.1777087684	-4.0076016494	-1.6332609024	 0.103747
H	-0.7538589733	-2.4103842649	-1.66853461	 0.108018
90.1048	118.0552	145.5466	195.9548	219.4464	314.2155	357.4677	370.9844	487.0484	548.3218	573.1966	610.558	659.8523	749.5385	804.0141	855.4362	925.6834	948.0708	979.0474	988.4808	1019.0659	1062.5249	1088.7706	1105.7098	1122.0338	1179.0725	1195.6953	1213.556	1259.8017	1318.4126	1341.7001	1360.5073	1386.1494	1411.5892	1421.2542	1465.0473	1477.9095	1484.994	1499.31	1512.2776	1712.8887	3002.5085	3010.5976	3017.3075	3062.1363	3073.5658	3078.7169	3132.0142	3175.1854	3199.1608	3702.5258
COC1OCC(O)C=C1	CO[C@H]1OC[C@@H](O)C=C1	
InChI=1S/C6H10O3/c1-8-6-3-2-5(7)4-9-6/h2-3,5-7H,4H2,1H3	InChI=1S/C6H10O3/c1-8-6-3-2-5(7)4-9-6/h2-3,5-7H,4H2,1H3/t5-,6-/m0/s1
