22
gdb 58089	2.17847	1.30585	1.18849	2.397	77.86	-0.2327	0.0322	0.2649	1222.7331	0.191374	-441.533295	-441.522272	-441.521328	-441.568787	41.296	
C	-0.0830384854	 1.5992831998	-0.0723175628	-0.432749
C	-0.0456252752	 0.0615144648	-0.0441300494	 0.033701
C	-1.4645218218	-0.507552643	 0.0863382984	-0.415248
C	 0.7199739992	-0.5109279434	-1.267270689	 0.254808
C	 0.7550494178	-2.0440284037	-1.2874318805	-0.411171
O	 0.1139100569	-0.1226759734	-2.5078048063	-0.480792
C	 2.1967119253	-0.0405153871	-1.1985316669	 0.361914
N	 2.6939957215	 0.4175624995	-2.3780868728	-0.528746
O	 2.8439222445	-0.1036990836	-0.1689801832	-0.386359
H	 0.91673691	 2.0309088787	-0.1729983313	 0.13687
H	-0.7134246712	 1.9842458634	-0.8860766316	 0.100737
H	-0.517279836	 1.9828217585	 0.8555578237	 0.122859
H	 0.5468963765	-0.2320412879	 0.827894344	 0.108337
H	-2.033891779	-0.3541314186	-0.836740676	 0.117348
H	-1.46222779	-1.577924287	 0.3063667036	 0.11847
H	-1.9997730279	-0.0067831622	 0.8991280215	 0.110432
H	-0.2530201171	-2.4493432167	-1.3908638837	 0.126242
H	 1.3481384856	-2.3924561318	-2.1380850051	 0.119255
H	 1.2111313759	-2.4212636766	-0.3695838091	 0.138459
H	-0.1051336438	 0.8138126674	-2.448889831	 0.281919
H	 2.1398552838	 0.3180838112	-3.2120611982	 0.264851
H	 3.6801415405	 0.6098587216	-2.4401342243	 0.258861
64.0203	68.5788	174.0983	206.1926	225.9809	243.2857	261.6965	278.8668	291.9583	335.3305	357.8236	370.1857	405.7319	442.5499	500.697	518.0087	601.2516	669.6551	685.2085	779.3695	848.6189	915.2757	927.997	954.301	969.4793	1042.1529	1067.8687	1090.4588	1122.4937	1174.3016	1194.0465	1224.8478	1313.3572	1351.0557	1357.8699	1371.8729	1401.1323	1403.6882	1422.3764	1481.2818	1486.9591	1494.3986	1504.0281	1512.0341	1520.1005	1584.837	1788.9861	3010.9917	3038.7081	3052.841	3066.2382	3087.2137	3104.8296	3116.0099	3117.2928	3124.852	3147.0062	3593.6606	3733.688	3803.6643
CC(C)C(C)(O)C(N)=O	CC(C)[C@@](C)(O)C(=O)N	
InChI=1S/C6H13NO2/c1-4(2)6(3,9)5(7)8/h4,9H,1-3H3,(H2,7,8)	InChI=1S/C6H13NO2/c1-4(2)6(3,9)5(7)8/h4,9H,1-3H3,(H2,7,8)/t6-/m1/s1
