21
gdb 59429	3.16091	1.04652	0.90261	2.9064	79.07	-0.2376	0.068	0.3056	1363.4809	0.180954	-424.185096	-424.175504	-424.17456	-424.21983	35.466	
C	 0.0893386827	 1.4928470317	-0.2395742125	-0.396701
C	 0.0499780971	-0.0003114425	 0.0898586987	 0.119134
O	 0.7582151779	-0.282598137	 1.2978408668	-0.428603
C	-1.3654902132	-0.5429834346	 0.1288869059	-0.087165
C	-1.9821239129	-1.1600203837	-1.111531519	-0.365094
C	-1.605035725	-2.0183421545	 0.0553374208	 0.289015
C	-0.587200544	-3.1537384771	 0.1441325917	-0.141757
O	-1.4865659218	-3.9150425408	 0.9843709773	-0.278201
C	-2.4975141266	-2.8866830898	 0.9353617299	-0.13879
H	 1.1219903	 1.8510745674	-0.2556710829	 0.124288
H	-0.370303612	 1.6938386943	-1.2123616099	 0.120628
H	-0.4609987913	 2.0689869805	 0.5146953392	 0.105963
H	 0.6102438512	-0.5481284764	-0.678192859	 0.084943
H	 0.2867365051	 0.1429960003	 2.0224769731	 0.276266
H	-2.0434018151	 0.0216527385	 0.7700066479	 0.075149
H	-3.0359448484	-0.9878560362	-1.3074186397	 0.113717
H	-1.3675239478	-1.2174514145	-2.0060453701	 0.113989
H	-0.3666927131	-3.6776083756	-0.7954523806	 0.095598
H	 0.347682112	-2.908088783	 0.6602406747	 0.123589
H	-2.726922946	-2.4859688284	 1.9324491003	 0.095855
H	-3.4270110888	-3.2448099288	 0.4714607674	 0.098176
62.5068	93.0468	131.3006	150.725	243.3607	256.9121	285.2326	320.2983	360.4922	396.8702	473.0638	494.4349	624.8426	791.9673	859.6209	872.5755	888.1477	895.8985	966.7799	972.3026	995.8565	1031.6059	1045.2523	1053.0832	1072.5286	1093.3821	1114.0977	1133.5089	1153.4085	1167.1444	1186.9987	1216.2409	1278.262	1310.8764	1321.2313	1340.5525	1388.7049	1401.0304	1417.0782	1446.1913	1490.9098	1492.7038	1503.7689	1508.5902	1534.133	2991.157	3009.1365	3025.9731	3031.611	3034.1121	3065.8805	3095.1403	3101.6499	3115.4367	3121.5602	3199.7531	3800.8283
CC(O)C1CC11COC1	C[C@@H](O)[C@H]1CC21COC2	
InChI=1S/C7H12O2/c1-5(8)6-2-7(6)3-9-4-7/h5-6,8H,2-4H2,1H3	InChI=1S/C7H12O2/c1-5(8)6-2-7(6)3-9-4-7/h5-6,8H,2-4H2,1H3/t5-,6-/m1/s1
