15
gdb 44708	3.28611	1.36413	1.16541	3.81	65.07	-0.2622	-0.0457	0.2166	1037.4057	0.11279	-457.816614	-457.809419	-457.808475	-457.849032	27.114	
O	-0.0212332312	-0.0408742573	-0.1045105728	-0.277609
C	-0.0323111038	 1.1447903957	 0.0343344916	 0.39003
C	-1.1249867783	 2.1872455356	 0.3394207208	-0.362536
C	 0.0010340505	 3.2393987411	 0.5126644609	 0.084436
O	 0.2939715544	 3.5098203187	 1.8818795795	-0.222617
C	 1.4623621802	 2.9318326094	 2.3009907802	 0.421451
O	 1.8650759757	 3.0569425619	 3.4170402284	-0.317484
C	 2.1085910942	 2.1576595316	 1.1488673633	-0.381687
C	 1.0818598219	 2.2214141383	 0.0251911999	-0.167271
H	-1.7735350023	 2.3707662777	-0.5232863339	 0.143187
H	-1.7457479603	 2.0015668854	 1.2190044351	 0.153952
H	-0.1144503049	 4.1856176467	-0.0157502427	 0.104365
H	 3.0543442176	 2.6429904283	 0.8914492541	 0.150653
H	 2.3419930877	 1.1427274577	 1.4788241139	 0.164355
H	 1.5012484087	 2.3926272593	-0.9677004382	 0.116777
57.2291	109.4349	197.7194	361.2603	424.6109	484.5583	510.9861	557.7014	609.5317	657.9346	737.4256	755.397	826.13	866.2242	910.8832	939.0993	988.2427	1039.5329	1059.9816	1067.7636	1112.9294	1144.3947	1180.7155	1189.7808	1236.0098	1257.6945	1271.9492	1305.8104	1371.2509	1419.8844	1463.3454	1890.6488	1902.5497	3063.2304	3071.9962	3101.9771	3115.926	3120.023	3127.1793
O=C1CC2OC(=O)CC12	O=C1C[C@H]2OC(=O)C[C@@H]12	
InChI=1S/C6H6O3/c7-4-2-5-3(4)1-6(8)9-5/h3,5H,1-2H2	InChI=1S/C6H6O3/c7-4-2-5-3(4)1-6(8)9-5/h3,5H,1-2H2/t3-,5+/m0/s1
