17
gdb 31151	2.03075	1.77851	0.98858	0.9571	71.7	-0.1766	0.0477	0.2243	1168.649	0.135922	-455.14745	-455.138125	-455.137181	-455.181547	34.278	
C	 0.0879598254	 0.9368272371	-0.6620556315	-0.326055
N	-0.4275652434	 0.4942106888	 0.6346096332	-0.405329
C	 0.4845095022	-0.2032359966	 1.4636253167	 0.01336
C	 1.7905117357	 0.0370828301	 1.7741334775	 0.390901
O	 2.6066643871	 1.0465132453	 1.4190936123	-0.431748
O	 2.3092935066	-0.9258964062	 2.5506563708	-0.20203
C	 1.2881021994	-1.8503494089	 2.7846378788	-0.143861
C	 0.163780496	-1.4443028304	 2.1390640744	 0.218091
N	-1.1172059923	-1.9910574481	 2.107963126	-0.612039
H	 0.4035198879	 0.0616662839	-1.2384222286	 0.123984
H	-0.715785121	 1.4348375614	-1.213334949	 0.112664
H	 0.9439781375	 1.6238635148	-0.5960678933	 0.120499
H	-0.8621432661	 1.268856367	 1.1243294894	 0.230557
H	 3.4946364396	 0.8331356794	 1.7302001692	 0.305668
H	 1.550749175	-2.6822644693	 3.4120317654	 0.118231
H	-1.1406554152	-3.0009864286	 2.1298844448	 0.241424
H	-1.6309157444	-1.6299770199	 1.311768164	 0.245686
52.757	148.7982	180.0368	199.7388	222.7773	266.4788	300.6743	317.5932	366.8158	405.7818	541.5027	558.9315	589.5022	627.9204	684.19	700.8336	743.725	780.3082	811.4777	1033.4343	1049.4248	1080.5968	1134.555	1158.0756	1179.1658	1184.8522	1271.5427	1329.6901	1381.9943	1449.6174	1461.5314	1476.0033	1495.7835	1521.9674	1626.6282	1657.5056	1720.0005	2998.6865	3070.1829	3106.5041	3300.4903	3511.2535	3523.5377	3630.9372	3808.8889
CNC1=C(O)OC=C1N	CNc1c(O)occ1N	
InChI=1S/C5H8N2O2/c1-7-4-3(6)2-9-5(4)8/h2,7-8H,6H2,1H3	InChI=1S/C5H8N2O2/c1-7-4-3(6)2-9-5(4)8/h2,7-8H,6H2,1H3
