21
gdb 104702	2.416	1.16196	0.93894	3.1027	79.08	-0.2384	-0.016	0.2224	1327.802	0.179989	-424.234914	-424.22498	-424.224036	-424.270083	36.879	
C	-1.7954119656	-0.2912066186	-0.3232407148	-0.394746
C	-0.3246246249	 0.0206204589	-0.0279639792	-0.244816
C	 0.6779612091	-0.6070515556	-1.0023715703	 0.339055
C	 0.4949554472	-0.1256236124	-2.4391049326	-0.130147
O	 0.6613827922	 1.2836601224	-2.459436717	-0.424105
C	 2.1779269643	-0.4849464094	-0.5634091938	-0.393093
C	 2.3143210248	-1.9987241857	-0.7662947386	 0.40878
O	 3.2427303458	-2.7522469001	-0.8170362683	-0.293114
C	 0.7985027879	-2.1694730855	-0.9574580093	-0.40902
H	-2.1205355091	 0.1481082862	-1.2711194117	 0.122742
H	-1.9776834615	-1.3707399558	-0.3729613197	 0.114481
H	-2.4400469106	 0.1158477757	 0.4617121832	 0.116359
H	-0.1730599073	 1.1052446065	-0.029087806	 0.120685
H	-0.0793626992	-0.3283348723	 0.9835641619	 0.087804
H	 1.2389683519	-0.6216708548	-3.0842669143	 0.08661
H	-0.4996238827	-0.4179939757	-2.8099582598	 0.091743
H	 0.5714919605	 1.5883917916	-3.3669095848	 0.291027
H	 2.823253156	 0.1535997449	-1.1715829866	 0.135043
H	 2.3041034502	-0.2028980074	 0.4877488415	 0.124657
H	 0.3267811765	-2.6141734105	-0.0742771697	 0.127719
H	 0.4845640446	-2.7382613324	-1.8380801502	 0.122337
51.3726	72.1872	133.6377	199.6606	215.6164	259.4526	294.0924	338.9848	355.4956	372.9087	419.2112	447.5194	543.8867	638.6742	689.8683	729.2565	786.0047	865.2369	894.4608	930.4682	963.9421	1012.4374	1036.8153	1042.0081	1083.165	1084.4669	1137.2299	1147.7641	1170.7662	1198.242	1230.4303	1244.5862	1275.3012	1318.1331	1339.7539	1372.3207	1414.3601	1427.1923	1444.8948	1459.1302	1486.491	1500.7018	1505.8423	1529.0261	1891.4413	2962.9761	3000.0518	3021.4202	3034.9635	3046.0802	3052.9356	3072.5905	3100.1818	3101.3159	3110.8908	3114.2485	3833.9137
CCC1(CO)CC(=O)C1	CCC1(CO)CC(=O)C1	
InChI=1S/C7H12O2/c1-2-7(5-8)3-6(9)4-7/h8H,2-5H2,1H3	InChI=1S/C7H12O2/c1-2-7(5-8)3-6(9)4-7/h8H,2-5H2,1H3
