14
gdb 131557	3.1717	1.64697	1.1683	6.2628	63.74	-0.2263	-0.0161	0.2102	980.5813	0.103206	-469.971984	-469.964904	-469.963959	-470.003916	26.382	
O	-0.0308755534	 1.4527318527	-0.1521576359	-0.420796
C	 0.0303876739	 0.0400098056	-0.010566001	-0.088134
C	 0.4834841268	-0.4435297847	 1.4291275477	-0.105909
O	-0.6630456476	-0.9562553264	 2.1628127789	-0.270761
C	-1.6416787434	-1.0372864164	 1.2356075674	 0.409094
C	-1.3368206371	-0.5412954185	 0.0032133818	 0.300267
N	-2.4804001418	-0.7317832993	-0.6934884693	-0.327124
N	-3.4162663479	-1.3181803607	 0.0854570487	-0.116862
N	-2.8986614821	-1.510803936	 1.2840636264	-0.300118
H	 0.8654538696	 1.7809810178	-0.2817010888	 0.288673
H	 0.6969699884	-0.3855534942	-0.7731234535	 0.092815
H	 1.2174357508	-1.2520529449	 1.3556150694	 0.124138
H	 0.9047169555	 0.3911398492	 1.9944768883	 0.128815
H	-2.7214406618	-0.4951250142	-1.6421399701	 0.285902
75.583	146.3826	269.4688	290.8652	341.7491	432.6766	508.5034	544.3339	645.7414	703.0231	730.261	762.8006	785.4371	880.13	976.2826	1001.8728	1030.088	1056.0874	1093.383	1171.7759	1193.3881	1230.7688	1242.9514	1287.5032	1350.1928	1371.9273	1411.3037	1429.0562	1489.6801	1565.9167	1633.4208	3002.9613	3054.7202	3118.6663	3665.542	3807.8221
OC1COC2=C1NN=N2	O[C@H]1COc2c1[nH]nn2	
InChI=1S/C4H5N3O2/c8-2-1-9-4-3(2)5-7-6-4/h2,8H,1H2,(H,5,6,7)	InChI=1S/C4H5N3O2/c8-2-1-9-4-3(2)5-7-6-4/h2,8H,1H2,(H,5,6,7)/t2-/m0/s1
