16
gdb 23249	2.89867	1.49373	1.08042	2.768	74.57	-0.234	-0.0641	0.1699	1088.4101	0.124388	-437.855065	-437.847378	-437.846434	-437.887416	29.66	
O	-0.0517285073	 1.3028868024	 0.1980670699	-0.349868
N	 0.0141111244	-0.0754370585	 0.1230639313	-0.230915
C	-1.1298329748	-0.6460833509	 0.0347156766	 0.315549
C	-1.2411040149	-2.1157009062	-0.1083045063	-0.113351
C	-2.1150601067	-2.8315652303	 0.9108966956	-0.292249
C	-2.7001230651	-2.4409528977	-0.4136060112	-0.05301
C	-3.4870610412	-1.1438169445	-0.4638716343	-0.334828
C	-2.5176670924	-0.0361195209	-0.0171336112	 0.313026
O	-2.8234873362	 1.1005989014	 0.233539785	-0.293532
H	 0.8800737248	 1.5484003521	 0.2332544611	 0.313984
H	-0.4188489791	-2.6567311198	-0.5579260455	 0.10737
H	-1.8959425552	-3.8803000634	 1.077374185	 0.124362
H	-2.4216729507	-2.2929731118	 1.8028134905	 0.124195
H	-2.9376170293	-3.221927212	-1.125738296	 0.09777
H	-3.804989512	-0.9094695907	-1.487430423	 0.137347
H	-4.3856303044	-1.1322747393	 0.1604673224	 0.13415
71.3146	160.0829	219.2287	293.0232	330.3366	424.2171	447.7674	476.5006	500.636	606.0705	661.352	681.3866	704.7442	806.1889	835.6381	886.7035	956.4239	980.4261	1009.4591	1029.6932	1063.8828	1064.8648	1098.9542	1121.7672	1180.848	1204.5499	1245.2733	1282.3111	1330.8687	1375.2415	1434.8235	1452.1718	1488.3263	1691.3382	1829.977	3040.6715	3088.7764	3126.1339	3180.7351	3199.5937	3217.144	3800.4202
ON=C1C2CC2CC1=O	ON=C1[C@H]2C[C@H]2CC1=O	
InChI=1S/C6H7NO2/c8-5-2-3-1-4(3)6(5)7-9/h3-4,9H,1-2H2	InChI=1S/C6H7NO2/c8-5-2-3-1-4(3)6(5)7-9/h3-4,9H,1-2H2/t3-,4-/m0/s1
