22
gdb 111281	2.59337	1.2684	1.0087	2.7433	81.68	-0.2352	0.0694	0.3045	1277.4793	0.193416	-404.305877	-404.296175	-404.295231	-404.340046	36.741	
C	-0.2116449625	 1.7144317808	 0.0946066355	-0.416337
C	 0.0157909807	 0.2072274209	 0.021981383	-0.088912
C	 1.1376120785	-0.4174755034	-0.8659341316	 0.025723
C	 2.1130350069	 0.411025139	-1.6839018143	-0.07152
O	 3.1370601084	-0.4162345887	-2.21017181	-0.424685
N	 1.7581398896	-1.1408123327	 0.3127800729	-0.203754
C	 2.1033510657	-0.1043073674	 1.3167552858	-0.299466
C	 0.6902105976	-0.5089878373	 1.2028797033	 0.356192
C	-0.0419317729	-1.2814180376	 2.2602715819	-0.493024
H	 0.698537454	 2.2648384805	 0.3488269807	 0.11742
H	-0.578509778	 2.1023178843	-0.8617509117	 0.120014
H	-0.963878326	 1.952550076	 0.8547558066	 0.1186
H	-0.9368639119	-0.2787052323	-0.2109697901	 0.079894
H	 0.7323232025	-1.1898000745	-1.5257668184	 0.091061
H	 1.595852298	 0.8609581675	-2.5391709156	 0.106816
H	 2.5374550864	 1.2388493836	-1.0952420235	 0.081909
H	 3.421384887	-0.9927735346	-1.4906352575	 0.29526
H	 2.6716910075	-0.514802432	 2.1461573336	 0.118886
H	 2.4387604914	 0.8779920043	 0.9964179073	 0.111722
H	-0.5413574846	-0.6024813756	 2.9618449349	 0.122209
H	-0.8063074707	-1.9303376822	 1.8191002143	 0.122388
H	 0.6480938526	-1.9091782686	 2.831295863	 0.129605
88.4921	128.3229	166.0496	180.5383	204.391	219.2057	274.5488	318.6806	377.3813	387.926	457.228	533.7785	548.8101	652.7891	696.8679	747.4119	778.5681	882.155	912.924	957.7762	992.5099	1012.3339	1056.2036	1058.6249	1083.6149	1097.1102	1115.1026	1121.3746	1141.7373	1179.214	1220.3397	1235.8098	1270.0071	1318.4509	1332.7834	1361.317	1386.4934	1403.2562	1411.5585	1426.305	1439.3132	1482.5035	1493.0153	1495.379	1498.8858	1504.8512	1521.3098	2982.6176	3026.9168	3033.1537	3047.9692	3057.5738	3072.5725	3087.8198	3094.442	3109.8057	3111.5705	3117.9538	3198.2916	3785.9743
CC1C(CO)N2CC12C	C[C@H]1[C@@H](CO)N2C[C@@]12C	
InChI=1S/C7H13NO/c1-5-6(3-9)8-4-7(5,8)2/h5-6,9H,3-4H2,1-2H3	InChI=1S/C7H13NO/c1-5-6(3-9)8-4-7(5,8)2/h5-6,9H,3-4H2,1-2H3/t5-,6+,7-,8?/m0/s1
