15
gdb 69631	3.74203	1.19136	1.15771	1.2647	72.9	-0.2318	0.0099	0.2417	1089.5171	0.109612	-420.501028	-420.493188	-420.492244	-420.532978	31.127	
O	-0.1429001343	 1.4321612505	-0.0717389857	-0.45131
C	-0.0724322349	 0.0569121165	-0.0229702987	 0.356172
C	-0.2907035596	-0.8649496258	-1.1908719748	-0.351895
C	-1.2271917686	-0.9165735781	 0.0014723685	-0.200405
C	-0.5627072912	-1.6452107765	 1.2208636288	 0.282786
O	 0.7725144099	-2.0713363365	 0.8489908615	-0.280567
C	 0.566778829	-0.7036695737	 1.1939963173	-0.152745
C	-1.2424720492	-2.3029422412	 2.2782267066	 0.17827
C	-1.8667281065	-2.8445665845	 3.1520199734	-0.358275
H	 0.6235724533	 1.7586920449	-0.5572196882	 0.291555
H	-0.7297359554	-0.3686908253	-2.0511324139	 0.119528
H	 0.3833754513	-1.6839037484	-1.4079726804	 0.139164
H	-2.2885733694	-0.7232078175	-0.0617699037	 0.111822
H	 1.1513077714	-0.2726469171	 1.9990416781	 0.123362
H	-2.4050022356	-3.3248889073	 3.9313578611	 0.192539
116.0605	148.9781	266.1584	311.9555	340.1201	400.7809	435.0364	472.8823	516.7081	540.4921	591.4588	606.2389	655.9943	675.3324	780.1082	809.8001	854.1643	908.4591	918.6311	961.2111	992.2415	1001.806	1057.8421	1091.2999	1116.2656	1169.1128	1204.3463	1266.3157	1294.2087	1401.1576	1417.8882	1482.905	2240.159	3137.722	3187.4345	3223.6243	3234.5253	3501.8581	3782.8784
OC12CC1C1(OC21)C#C	O[C@]12C[C@H]1[C@]1(O[C@@H]21)C#C	
InChI=1S/C7H6O2/c1-2-7-4-3-6(4,8)5(7)9-7/h1,4-5,8H,3H2	InChI=1S/C7H6O2/c1-2-7-4-3-6(4,8)5(7)9-7/h1,4-5,8H,3H2/t4-,5+,6-,7-/m1/s1
