22
gdb 119458	4.82164	0.77213	0.74199	0.6786	83.07	-0.2214	0.0766	0.298	1613.4486	0.193623	-404.303952	-404.294227	-404.293283	-404.338834	36.274	
C	-0.0788981224	 1.599221426	 0.1789520616	-0.403797
C	 0.0044548063	 0.0831716306	 0.0763519409	 0.042867
C	 0.9674246152	-0.5513941018	-0.9967733208	-0.294374
C	 1.6871326304	-1.3017803341	 0.138256394	 0.367675
C	 2.3159274609	-2.6604538067	 0.0738934021	-0.321591
C	 3.6310980243	-2.6704148623	-0.7036867782	-0.065741
O	 4.1119570688	-4.0057327317	-0.7144621288	-0.419985
N	 2.2139492918	-0.2307279137	 1.0288429361	-0.374283
C	 0.7992655382	-0.6724470917	 1.1538522311	-0.1377
H	 0.9167583662	 2.0228556398	 0.3346781011	 0.136504
H	-0.5007114044	 2.0332834947	-0.7342486812	 0.107852
H	-0.7161187146	 1.9044901978	 1.0167756282	 0.106854
H	-0.9947055261	-0.3523747237	-0.0244697854	 0.070385
H	 0.4454062749	-1.2132341952	-1.6924019687	 0.097624
H	 1.5914117371	 0.1503083674	-1.5567134013	 0.09942
H	 2.5047705553	-3.0367642235	 1.087368488	 0.101079
H	 1.6289105325	-3.3705149318	-0.4026929867	 0.110124
H	 3.4591707017	-2.2978117135	-1.7261185278	 0.092008
H	 4.3493896742	-1.9866247434	-0.2250991104	 0.093896
H	 4.9379561587	-4.0243081432	-1.2062268763	 0.286263
H	 2.7292506098	-0.6949419608	 1.777727868	 0.220971
H	 0.4333290213	-1.0653723692	 2.0962977044	 0.083949
67.0157	90.2074	99.8222	186.0705	230.5007	253.8381	265.9542	320.9627	361.8112	386.8771	434.9889	573.0279	659.3884	713.5506	792.9752	801.0356	860.1416	899.3263	911.0517	935.7594	976.0542	1011.4335	1023.6842	1044.3737	1070.3483	1085.8552	1109.5971	1125.5461	1140.3	1195.1336	1207.307	1230.8376	1238.7516	1257.7907	1295.0419	1303.6891	1333.7079	1345.3485	1379.5763	1401.3448	1440.8787	1460.8824	1481.6325	1482.3812	1491.4434	1504.545	1528.2008	2970.415	2997.9204	3023.825	3029.1101	3051.6066	3058.5786	3067.2311	3088.9934	3113.5038	3121.2225	3170.8679	3456.1296	3831.3563
CC1CC2(CCO)NC12	C[C@H]1C[C@@]2(CCO)N[C@@H]12	
InChI=1S/C7H13NO/c1-5-4-7(2-3-9)6(5)8-7/h5-6,8-9H,2-4H2,1H3	InChI=1S/C7H13NO/c1-5-4-7(2-3-9)6(5)8-7/h5-6,8-9H,2-4H2,1H3/t5-,6-,7+/m0/s1
