15
gdb 129368	2.68937	1.61844	1.01222	2.3296	73.43	-0.208	-0.0333	0.1747	1096.3359	0.114428	-450.129727	-450.121691	-450.120747	-450.162139	30.87	
N	-0.1539666334	 1.3394075612	 0.1075475399	-0.557391
C	 0.0383941824	-0.0222848643	 0.0471501499	 0.255992
N	 1.1626244578	-0.6527596475	 0.0090647864	-0.559801
C	-1.1745501566	-0.8271020636	 0.0644282697	 0.404074
C	-1.3393142189	-2.1894539288	 0.0561111105	 0.088726
N	-0.3653891531	-3.1581709487	 0.1405060515	-0.607945
C	-2.7577268594	-2.3351280567	 0.0225794049	-0.017843
N	-3.3783897605	-1.1791101905	 0.0123733195	-0.13863
O	-2.3919659156	-0.2174741694	 0.0481854828	-0.250348
H	 0.6136931336	 1.9310316831	-0.1659901688	 0.252215
H	-1.074735791	 1.691915524	-0.1017746192	 0.27193
H	 1.9556754526	-0.011990401	-0.0074415978	 0.205312
H	 0.5606217485	-2.7746819588	-0.0248351169	 0.275302
H	-0.5576835175	-4.0182647474	-0.3502399646	 0.247854
H	-3.3396419389	-3.2460722715	 0.0057059822	 0.130555
89.5034	177.2695	196.1962	316.685	332.2307	374.0719	395.9	435.0841	439.626	517.5859	597.2299	643.6318	663.7542	689.9288	733.7143	768.046	807.3565	889.8797	949.2838	979.1489	1072.9221	1097.2847	1132.4534	1230.4281	1239.5733	1247.8085	1419.1115	1468.2489	1538.0041	1610.2698	1636.6383	1679.5179	1701.478	3241.4319	3477.9233	3496.7013	3588.4719	3647.1793	3706.5088
NC(=N)C1=C(N)C=NO1	NC(=N)c1c(N)cno1	
InChI=1S/C4H6N4O/c5-2-1-8-9-3(2)4(6)7/h1H,5H2,(H3,6,7)	InChI=1S/C4H6N4O/c5-2-1-8-9-3(2)4(6)7/h1H,5H2,(H3,6,7)
