14
gdb 42797	2.62363	1.70511	1.42118	4.2313	62.6	-0.2646	-0.0435	0.2211	923.6772	0.102529	-473.835881	-473.829002	-473.828058	-473.86745	25.981	
O	-0.0158292268	 0.0059010924	-0.1035683221	-0.298566
C	-0.0285797564	 1.1878518503	 0.0454212078	 0.43181
C	-1.0861163982	 2.3066545617	-0.0020021403	-0.165552
C	-1.2650598274	 2.9286697743	 1.3758996781	-0.053829
O	-0.0028418962	 3.1772434959	 2.0256945748	-0.239241
C	 1.1713388413	 2.9035315786	 1.4000009364	 0.487361
O	 2.2167135151	 3.0868731843	 1.949659613	-0.322577
C	 1.0157036125	 2.3298923692	-0.0027974242	-0.289876
N	-0.0470021228	 3.1481815689	-0.7002826743	-0.312555
H	-2.0379717462	 2.1464889883	-0.5112964815	 0.113891
H	-1.77436326	 3.8928298694	 1.2855159705	 0.138812
H	-1.8443933684	 2.2708639233	 2.0311735903	 0.137065
H	 1.9805350273	 2.2080039973	-0.4903321481	 0.126565
H	-0.0328854538	 2.897806956	-1.6877665405	 0.246693
122.4566	131.3467	204.4513	375.0585	418.2218	477.7068	502.5051	525.0335	652.7945	728.4336	782.3481	826.5932	860.7749	889.0994	919.5575	992.6723	1028.1598	1049.1481	1069.0728	1114.8186	1136.4051	1165.1759	1210.2982	1240.5739	1285.0231	1327.1264	1369.8361	1419.1119	1501.9567	1866.9939	1905.9723	3052.0655	3102.8759	3114.1372	3156.572	3480.7183
O=C1C2COC(=O)C1N2	O=C1[C@H]2COC(=O)[C@@H]1N2	
InChI=1S/C5H5NO3/c7-4-2-1-9-5(8)3(4)6-2/h2-3,6H,1H2	InChI=1S/C5H5NO3/c7-4-2-1-9-5(8)3(4)6-2/h2-3,6H,1H2/t2-,3-/m1/s1
