18
gdb 55398	3.35834	1.20697	0.92021	4.6832	72.85	-0.2533	0.0062	0.2596	1227.7204	0.150302	-439.127706	-439.11985	-439.118906	-439.160403	30.154	
O	 0.0498431608	 0.3742511231	 1.1282559801	-0.372176
C	-0.0366568779	 1.2473069325	 0.1111536117	 0.418324
O	 0.8778197226	 1.4771879254	-0.6327705281	-0.336415
C	-1.4012644294	 1.9413444278	 0.0222901875	-0.126645
C	-1.7712914026	 2.390099425	-1.3942123358	-0.252432
C	-3.2065000231	 2.8545927541	-1.4258444461	-0.06719
C	-4.0663769205	 2.6273187328	-0.4329701069	-0.056824
C	-3.6986641459	 1.8287305644	 0.795819885	-0.224093
N	-2.4323784649	 1.094697914	 0.6476624482	-0.327794
H	-2.6051693918	 0.3060346696	 0.0265473911	 0.231919
H	-0.8441801213	 0.3496590277	 1.5289097886	 0.300507
H	-1.3202833422	 2.8365676957	 0.6562824789	 0.124967
H	-1.0973924516	 3.1901284636	-1.7171638223	 0.133336
H	-1.6091317219	 1.5704311477	-2.1085552966	 0.119317
H	-3.5267210732	 3.4074875134	-2.3050561938	 0.096913
H	-5.0814660279	 3.013158438	-0.480997089	 0.094492
H	-3.6216977288	 2.4864554	 1.673767024	 0.125128
H	-4.4867387504	 1.1043635753	 1.0320669336	 0.118665
85.7893	121.9081	194.0486	231.5073	331.5182	398.2247	430.4343	488.2742	529.3479	605.021	666.1041	727.8747	753.9988	819.959	871.3957	909.8558	923.4674	943.836	974.9687	1005.5032	1029.6639	1083.2341	1109.5375	1120.0138	1188.6211	1205.2135	1220.7804	1257.8581	1302.6564	1357.6753	1364.4149	1371.0185	1406.2375	1418.959	1472.2307	1480.8936	1491.9063	1718.1712	1872.168	3005.8685	3006.8851	3019.463	3057.0076	3076.1165	3151.2215	3173.6415	3472.1769	3528.132
[O-]C(=O)C1CC=CC[NH2+]1	OC(=O)[C@H]1CC=CCN1	
InChI=1S/C6H9NO2/c8-6(9)5-3-1-2-4-7-5/h1-2,5,7H,3-4H2,(H,8,9)	InChI=1S/C6H9NO2/c8-6(9)5-3-1-2-4-7-5/h1-2,5,7H,3-4H2,(H,8,9)/t5-/m1/s1
