18
gdb 65613	3.273	1.26868	1.19092	2.5755	75.46	-0.2613	0.0286	0.2898	1095.9862	0.147881	-401.928258	-401.920092	-401.919148	-401.961177	30.969	
C	-0.3768187724	 1.6217265889	-0.0107613795	-0.457596
C	-0.066676275	 0.1212527087	 0.0265111957	 0.14046
C	 1.1589797033	-0.3499370283	-0.8532218518	-0.285108
C	 1.8935194805	-0.8006257732	 0.4199617872	 0.129253
O	 2.6645839169	 0.2615788681	 1.0258298492	-0.294443
C	 1.6320747538	 0.5092796534	 2.0106672908	-0.098437
C	 0.6686087599	-0.4516803671	 1.3071059011	-0.116105
C	-1.274307482	-0.6469969858	-0.2594510454	 0.246101
N	-2.2273547225	-1.2643224473	-0.47975652	-0.346021
H	 0.5384232004	 2.2017649523	 0.127832325	 0.139862
H	-0.8043321992	 1.8933525258	-0.9801261248	 0.140583
H	-1.0941458692	 1.9003697031	 0.7667671095	 0.136115
H	 0.9082589616	-1.167094525	-1.5323911418	 0.12884
H	 1.6582945656	 0.4477821558	-1.4066363291	 0.123527
H	 2.4234710363	-1.7557889295	 0.4179081957	 0.089152
H	 1.937575065	 0.1558818649	 3.0039370162	 0.110002
H	 1.359045726	 1.567251388	 2.0797347423	 0.110525
H	 0.1034618408	-1.1617654128	 1.9065569298	 0.10329
60.1706	152.5848	176.0626	233.1684	306.3179	319.1843	381.2345	407.2631	523.1766	567.8283	618.1048	710.9908	806.2987	833.4881	859.9732	912.5754	927.5987	973.5414	983.4483	1014.1714	1018.8879	1055.7411	1107.0718	1133.2798	1160.3175	1177.7425	1199.1556	1232.4029	1243.7325	1271.6528	1305.169	1326.2298	1362.017	1410.4974	1461.0116	1490.5604	1494.5182	1528.2613	2347.448	3017.8888	3045.1761	3072.4598	3074.0647	3086.045	3117.6703	3128.7399	3137.471	3139.9016
CC1(CC2OCC12)C#N	C[C@]1(C[C@H]2OC[C@@H]12)C#N	
InChI=1S/C7H9NO/c1-7(4-8)2-6-5(7)3-9-6/h5-6H,2-3H2,1H3	InChI=1S/C7H9NO/c1-7(4-8)2-6-5(7)3-9-6/h5-6H,2-3H2,1H3/t5-,6-,7+/m1/s1
