19
gdb 63819	3.21941	1.55877	1.38569	2.6478	74.08	-0.2445	0.0565	0.3009	1005.1891	0.157699	-422.959277	-422.951334	-422.95039	-422.991121	31.822	
C	-0.1368825141	 1.6000697296	-0.0211793236	-0.446878
C	 0.0166759786	 0.0902247287	 0.0624366494	 0.417361
C	-1.2916813906	-0.6268577489	-0.2610013196	-0.423202
O	 1.0712452407	-0.4177257009	-0.8362080327	-0.335526
C	 1.6967250805	-1.1457859722	 0.223921036	 0.093027
C	 2.8918056366	-0.4433003868	 0.9424021993	-0.0141
O	 2.6225940994	 0.9539959328	 0.9764825046	-0.218328
C	 1.9615273549	 0.1337747205	 1.9397329647	 0.003623
C	 0.7393923698	-0.5612404567	 1.2820447757	-0.180949
H	 0.8174128825	 2.1004583014	 0.1304260409	 0.152575
H	-0.5299807193	 1.8783905066	-1.0049177838	 0.118108
H	-0.851070144	 1.9471774155	 0.733826995	 0.108771
H	-1.6059897257	-0.3860290005	-1.281247025	 0.124815
H	-1.1763424315	-1.7123611524	-0.1880634309	 0.113932
H	-2.08506186	-0.315910638	 0.4277128216	 0.111936
H	 1.8186404391	-2.2148438463	 0.030301343	 0.079845
H	 3.9295184082	-0.7497556492	 1.0151722538	 0.105817
H	 2.1063545375	 0.386806214	 2.9839038336	 0.108734
H	 0.1511286973	-1.1906248971	 1.9486077981	 0.080441
162.2881	181.6043	211.89	243.9273	308.0162	332.707	357.7013	397.9198	535.9575	609.6235	659.7271	766.3482	779.9369	817.8619	838.6174	876.8991	889.937	926.8156	938.4517	958.4579	978.9244	995.719	1014.4928	1033.8951	1051.3543	1158.5862	1165.2793	1181.2012	1209.5084	1230.2312	1254.3911	1283.3805	1291.2829	1312.7763	1381.2574	1396.3503	1411.1406	1472.9973	1484.6027	1492.3262	1512.8919	3030.9116	3039.7906	3073.4528	3095.9596	3105.0709	3111.7926	3123.3852	3172.8134	3172.975	3188.2819
CC1(C)OC2C3OC3C12	CC1(C)O[C@H]2[C@H]3O[C@H]3[C@@H]12	
InChI=1S/C7H10O2/c1-7(2)3-4-6(8-4)5(3)9-7/h3-6H,1-2H3	InChI=1S/C7H10O2/c1-7(2)3-4-6(8-4)5(3)9-7/h3-6H,1-2H3/t3-,4+,5-,6+/m1/s1
