18
gdb 85793	2.33613	1.24844	1.23258	2.5425	79.52	-0.2404	-0.0301	0.2102	1178.4551	0.1442	-401.912215	-401.902486	-401.901542	-401.946692	35.734	
C	-0.8996161803	 1.1244509591	-0.132971535	-0.391078
C	 0.013984378	-0.0871304518	-0.0128373678	-0.072133
N	 1.2800467412	-0.0229057576	-0.7971680121	-0.350855
C	 2.1453368743	-0.394868259	 0.3697279227	-0.032288
C	 2.6298254535	-1.8547620935	 0.3844949438	-0.441448
C	 3.2361375664	 0.5330689153	 0.6231197828	 0.341107
C	 4.135815493	 1.2930921707	 0.863394527	-0.437601
C	 0.8699053769	-0.2082474813	 1.2563974257	 0.361879
O	 0.665407826	-0.1662777471	 2.4285336955	-0.287134
H	-0.334397737	 2.0458964541	 0.0281535196	 0.134533
H	-1.3503494049	 1.1685716782	-1.1290541276	 0.123152
H	-1.7029741171	 1.0670797303	 0.6080350709	 0.130822
H	-0.5628120374	-1.0125354424	-0.1658219891	 0.097474
H	 1.3369237944	-0.688134662	-1.5605956613	 0.221174
H	 3.3543380109	-2.0146267631	-0.420006887	 0.135251
H	 3.1168479565	-2.0854477176	 1.3352837476	 0.149866
H	 1.7904702878	-2.5438693666	 0.2458284203	 0.118985
H	 4.9254511578	 1.9731457141	 1.0684971341	 0.198296
57.3083	116.7943	180.0374	193.2473	198.1479	215.6416	237.0285	314.1469	360.1002	421.482	519.2463	562.8852	584.8931	619.9706	655.2791	665.9948	734.0009	767.2773	852.8247	944.7114	948.6575	983.9965	1018.3006	1073.142	1107.0147	1112.2965	1158.7041	1230.8303	1267.4346	1349.8165	1361.7403	1399.2346	1403.7309	1483.4825	1484.1036	1491.4251	1495.5194	1918.4975	2233.688	2984.1615	3035.8771	3041.6028	3109.6285	3113.686	3126.3668	3127.3802	3500.3833	3534.5525
CC1NC(C)(C#C)C1=O	C[C@H]1N[C@@](C)(C#C)C1=O	
InChI=1S/C7H9NO/c1-4-7(3)6(9)5(2)8-7/h1,5,8H,2-3H3	InChI=1S/C7H9NO/c1-4-7(3)6(9)5(2)8-7/h1,5,8H,2-3H3/t5-,7+/m1/s1
