19
gdb 47910	2.33136	1.60608	1.11351	2.0224	73.13	-0.2263	0.0187	0.245	1116.3725	0.162164	-456.328034	-456.319846	-456.318901	-456.361106	31.263	
N	-0.0911220144	 1.2352534687	-0.798744365	-0.497619
C	-0.0184371554	 0.1239533762	-0.1935676138	 0.371201
C	-1.2901749656	-0.6918511282	 0.0141290356	-0.252761
N	-1.8509348642	-0.6657302824	 1.3608548542	-0.273803
C	-1.2122462476	-1.4286216198	 2.4265750204	-0.19692
C	 0.1665518421	-0.9619885665	 2.936776701	-0.068385
O	 1.3104739963	-1.5373194064	 2.3084593599	-0.2351
C	 1.3263370082	-1.5810098055	 0.9225259177	 0.02339
O	 1.1793079678	-0.302668829	 0.3199844415	-0.249307
H	 0.8300111988	 1.6796094681	-0.8269029448	 0.218936
H	-2.0174454978	-0.2457258007	-0.6670641749	 0.141781
H	-1.1652215737	-1.7355422581	-0.2912653753	 0.122048
H	-1.9921154095	 0.296248331	 1.6501487852	 0.226845
H	-1.8943269329	-1.3946228706	 3.2847788385	 0.114617
H	-1.1565620165	-2.4829869433	 2.1277370275	 0.118233
H	 0.2188048683	 0.1351450747	 2.8759115345	 0.103447
H	 0.2782867466	-1.2402726028	 3.9890808325	 0.114341
H	 2.3238361606	-1.9324366079	 0.6489979075	 0.126219
H	 0.5763713189	-2.2722237975	 0.5211922078	 0.092836
60.0929	135.086	194.7933	244.0234	281.1232	364.379	417.6842	447.2585	488.3173	508.9099	590.6747	688.9301	707.2667	789.3228	827.6613	899.3063	927.8365	963.2266	999.3108	1016.1755	1032.5132	1092.7823	1113.4005	1155.1737	1171.7237	1199.9191	1236.7787	1298.3948	1322.1783	1332.9469	1356.8737	1374.2099	1383.5047	1415.4962	1449.3617	1467.274	1472.8214	1499.8657	1516.7383	1525.8056	1734.0831	3002.1048	3024.6371	3033.4663	3062.059	3067.7282	3083.2303	3106.8679	3116.5371	3451.3707	3530.3891
N=C1CNCCOCO1	[NH][C]1CNCCOCO1	
InChI=1S/C5H10N2O2/c6-5-3-7-1-2-8-4-9-5/h6-7H,1-4H2	InChI=1S/C5H10N2O2/c6-5-3-7-1-2-8-4-9-5/h6-7H,1-4H2
