20
gdb 74433	3.00939	1.57041	1.28149	1.7149	83.87	-0.2072	0.0134	0.2206	1075.9955	0.171378	-365.988539	-365.980548	-365.979604	-366.020437	32.169	
C	 0.0797629332	 1.4868192085	 0.077704109	-0.503264
C	-0.0111862743	-0.0006909847	-0.0228769915	 0.344804
C	-0.1111083033	-0.7768561476	-1.1053709725	-0.25078
C	-0.0376511106	-2.2269619161	-0.6857123908	 0.298056
C	-0.7246926815	-3.2518235505	-1.5558293187	-0.482184
C	 1.4292957363	-2.5110119424	-0.2013206128	-0.277168
C	 0.9486985775	-2.0927913509	 1.1748236089	-0.047415
C	 0.0227352441	-0.9026614746	 1.1675471271	-0.131792
N	-0.500252142	-2.2322010483	 0.7924303543	-0.165481
H	 1.0322945857	 1.7977357619	 0.5250585885	 0.130823
H	-0.0037398825	 1.9596802935	-0.9041591694	 0.126892
H	-0.7129962806	 1.8905270428	 0.720154749	 0.129317
H	-0.0937302325	-0.4522368455	-2.1393953494	 0.093087
H	-0.272739008	-3.2788670769	-2.5536980871	 0.113381
H	-0.6455976185	-4.2504108385	-1.1161126964	 0.120872
H	-1.7871220075	-3.0121757013	-1.6665189518	 0.125478
H	 1.6418834905	-3.5834104993	-0.2137070283	 0.108317
H	 2.2496465308	-1.9666753695	-0.678785731	 0.093902
H	 1.3288814667	-2.4862620229	 2.1135889783	 0.089487
H	-0.2996435734	-0.5353046976	 2.1388088146	 0.08367
156.1578	178.928	202.5524	249.6479	288.3324	318.5179	403.6	443.6143	558.273	581.2922	624.8119	711.6196	764.4134	796.0305	805.3996	833.9146	858.2139	907.5437	939.7865	974.9325	1013.5234	1022.1131	1048.0293	1058.9836	1078.0873	1104.4045	1140.8669	1149.0795	1175.356	1216.8934	1250.562	1264.6211	1336.9631	1342.7895	1384.956	1412.188	1415.9168	1478.8965	1480.1429	1484.5783	1490.3624	1494.9621	1706.4629	3018.9704	3031.9096	3046.281	3064.7888	3101.228	3103.1768	3111.252	3114.8573	3137.6247	3150.1224	3197.825
CC1=CC2(C)CC3C1N23	CC1=C[C@@]2(C)C[C@H]3[C@@H]1N23	
InChI=1S/C8H11N/c1-5-3-8(2)4-6-7(5)9(6)8/h3,6-7H,4H2,1-2H3	InChI=1S/C8H11N/c1-5-3-8(2)4-6-7(5)9(6)8/h3,6-7H,4H2,1-2H3/t6-,7+,8-,9?/m0/s1
