21
gdb 109724	2.47264	0.92745	0.83962	1.5746	89.	-0.2345	0.0449	0.2794	1543.624	0.179756	-387.057544	-387.046611	-387.045666	-387.094848	38.313	
C	-0.0879139952	 1.5570334301	-0.309245822	-0.376612
C	-0.0887463645	 0.1471673792	 0.2933050087	-0.190721
C	-1.4294815615	-0.5345909721	 0.1345029721	-0.04816
C	-1.781894975	-1.2576062766	-1.1360351403	 0.111254
O	-0.840091401	-1.354168393	-2.1570060186	-0.424432
C	-1.5704154651	-2.064616477	 0.1435131376	-0.287906
C	-0.42182244	-2.919549242	 0.1949058034	 0.050036
C	 0.5417423139	-3.6467249978	 0.1662393711	 0.086793
C	 1.7021992497	-4.5268838977	 0.1853536628	-0.501
H	 0.8804488687	 2.0463837903	-0.164853366	 0.107713
H	-0.2910487982	 1.5136778291	-1.383327517	 0.133105
H	-0.8530443295	 2.1904147102	 0.1536899559	 0.107998
H	 0.6845119365	-0.4565416092	-0.1890431878	 0.105924
H	 0.1703174818	 0.1914284205	 1.3583624531	 0.094845
H	-2.2581097406	-0.0221373755	 0.61874323	 0.085894
H	-2.8007498235	-1.1865259701	-1.510077793	 0.096576
H	-0.3143394913	-2.1499862431	-1.9987553423	 0.287791
H	-2.462755571	-2.4607951993	 0.6193182137	 0.109218
H	 1.8774801683	-4.9252898693	 1.190865397	 0.152213
H	 1.5736467909	-5.3792524726	-0.4910310116	 0.148701
H	 2.6094840265	-3.994382044	-0.1204670771	 0.150771
40.0026	59.4932	72.7901	92.3455	172.2559	215.0282	239.4125	253.4734	278.3887	303.6879	380.9258	415.0634	561.2462	568.4785	630.0406	743.7117	747.3363	795.2991	831.317	924.2632	976.5857	1007.8699	1035.9455	1050.8652	1054.3097	1074.0544	1105.0917	1135.8885	1178.8839	1186.7349	1244.8751	1293.4187	1333.167	1363.3104	1370.373	1399.0963	1408.6014	1415.1529	1434.995	1476.7421	1479.4602	1482.7215	1498.781	1508.107	2352.217	3026.4372	3032.5735	3033.6281	3085.8585	3086.2576	3088.8186	3103.1222	3115.4088	3124.0481	3132.2381	3148.4539	3734.9855
CCC1C(O)C1C#CC	CC[C@H]1[C@@H](O)[C@H]1C#CC	
InChI=1S/C8H12O/c1-3-5-7-6(4-2)8(7)9/h6-9H,4H2,1-2H3	InChI=1S/C8H12O/c1-3-5-7-6(4-2)8(7)9/h6-9H,4H2,1-2H3/t6-,7+,8-/m1/s1
