16
gdb 84761	3.15837	1.27807	0.96142	2.2465	76.25	-0.2288	-0.05	0.1788	1173.1295	0.126578	-437.918749	-437.910881	-437.909937	-437.951679	29.864	
O	 0.5821932364	 0.6451215408	-0.9930193155	-0.421193
C	 0.0590160954	-0.2818771229	-0.0232481753	-0.008362
C	 0.820162351	-0.1701641395	 1.2601011431	-0.115853
C	 0.4100098994	 0.1048118658	 2.5017458867	 0.002977
N	-0.8576950754	 0.3278629297	 3.0155278586	-0.364385
C	-2.1157260922	 0.3703577869	 2.437928153	 0.380368
O	-3.0806310207	 0.5907203171	 3.1514945435	-0.363169
C	-2.2962696481	 0.1580738975	 0.9863341953	-0.137024
C	-1.4358886301	-0.1272011142	 0.0051911227	-0.080688
H	 0.4891673599	 1.5254588848	-0.6097014828	 0.278461
H	 0.2781686698	-1.2578836622	-0.479485369	 0.107761
H	 1.8899264235	-0.3059386009	 1.1364926477	 0.103927
H	 1.1623137522	 0.1600073624	 3.2825458472	 0.118275
H	-0.916793895	 0.4940758079	 4.0099877545	 0.256642
H	-3.348585445	 0.2474872488	 0.7342645065	 0.122414
H	-1.8588512511	-0.234469052	-0.9921354763	 0.119851
49.1142	124.315	233.5547	306.2789	365.0366	377.1099	389.8381	432.6199	516.489	584.6774	642.7374	694.4221	734.1687	766.4247	831.9735	866.3607	871.0829	892.2356	976.7753	1013.5965	1033.221	1046.2511	1162.8582	1239.6634	1251.0898	1283.6484	1357.2751	1406.0331	1406.9664	1434.5901	1461.6685	1498.5438	1707.5532	1747.9606	1764.1101	3002.2264	3146.5048	3168.9629	3184.983	3188.9066	3610.0791	3789.5964
OC1C=CNC(=O)C=C1	O[C@H]1C=CNC(=O)C=C1	
InChI=1S/C6H7NO2/c8-5-1-2-6(9)7-4-3-5/h1-5,8H,(H,7,9)	InChI=1S/C6H7NO2/c8-5-1-2-6(9)7-4-3-5/h1-5,8H,(H,7,9)/t5-/m1/s1
