19
gdb 28879	2.25634	1.79165	1.00791	2.1902	88.41	-0.1863	0.0216	0.2079	1168.2921	0.161606	-382.144366	-382.135685	-382.134741	-382.176932	34.591	
C	 0.0934621429	 1.5412069254	 0.0150512473	-0.544319
C	 0.0409033509	 0.0328763509	 0.0044141113	 0.199932
C	 0.0855945689	-0.6765792812	-1.2093390167	 0.236371
N	 0.164873318	 0.0213525924	-2.4253916798	-0.592517
C	 0.1174719256	-2.0768986528	-1.2108891404	-0.210954
C	 0.0936190285	-2.7699818739	-0.0085236128	-0.096685
C	 0.0124763569	-2.0900235849	 1.1988171129	-0.210943
C	-0.0198431292	-0.6897573481	 1.2096849017	 0.236481
N	-0.0469768626	-0.0051527545	 2.43543161	-0.592472
H	 0.6645562743	 1.9178225115	-0.8387582589	 0.134
H	-0.9013313022	 2.009862445	-0.0250869867	 0.113074
H	 0.5889606669	 1.9084500524	 0.9187554224	 0.133984
H	-0.3838413688	 0.8684021548	-2.4616253226	 0.243765
H	-0.0297727631	-0.5581112798	-3.229797782	 0.240694
H	 0.1586582826	-2.6106727694	-2.1554228972	 0.069705
H	 0.1174113921	-3.8551211343	-0.0133925776	 0.085716
H	-0.0283671932	-2.634033959	 2.1375078423	 0.069713
H	-0.3119696228	-0.592694499	 3.2134176715	 0.240701
H	-0.5959403858	 0.8424670844	 2.4327808254	 0.243754
130.0421	148.7953	230.0729	268.2869	288.5034	324.1331	344.3936	386.6234	493.4132	495.9078	508.7542	548.1627	595.3927	655.8558	690.8176	693.1668	730.5648	792.1281	826.451	832.4052	927.4866	935.8841	1056.4346	1061.9952	1069.8743	1146.0385	1167.8762	1206.7674	1219.1483	1312.4902	1341.4991	1364.5031	1410.3666	1487.2082	1508.0632	1512.513	1528.8542	1635.0292	1635.1368	1657.4296	1665.2329	2994.8824	3071.1527	3106.4118	3159.0892	3166.7973	3186.2108	3557.6921	3558.128	3651.1883	3651.4922
CC1=C(N)C=CC=C1N	Cc1c(N)cccc1N	
InChI=1S/C7H10N2/c1-5-6(8)3-2-4-7(5)9/h2-4H,8-9H2,1H3	InChI=1S/C7H10N2/c1-5-6(8)3-2-4-7(5)9/h2-4H,8-9H2,1H3
