13
gdb 127774	3.61952	1.73695	1.18252	5.1734	65.69	-0.2466	-0.0277	0.219	949.9675	0.091615	-448.907889	-448.901182	-448.900238	-448.939318	24.556	
C	-0.0111281919	 1.4522461639	-0.0186606488	-0.348133
N	-0.0057322693	 0.0099389483	 0.0848698706	-0.136394
N	-0.0446260501	-0.7769229827	-1.067075011	-0.150779
N	-0.0316134273	-2.038049838	-0.7403228927	-0.271019
C	 0.0160148804	-2.1000866167	 0.6142192431	 0.285491
C	 0.031842163	-0.8316786645	 1.1212336504	 0.449587
O	 0.0787399196	-0.8554883302	 2.4655209606	-0.222833
C	 0.0895184841	-2.2429423403	 2.7050847375	 0.052938
N	 0.0540969897	-3.0063991068	 1.6680881163	-0.310897
H	 0.8979217951	 1.8750503127	 0.4180530482	 0.15448
H	-0.0519888362	 1.6921319056	-1.0813068135	 0.177997
H	-0.8850945306	 1.8730485351	 0.4862324022	 0.154476
H	 0.1263915835	-2.5157220762	 3.747544457	 0.165087
103.0821	158.5571	250.99	257.6279	373.0159	542.5543	613.5713	622.276	666.54	714.6237	783.3129	816.0603	830.0308	893.7279	929.5997	1003.9938	1153.8679	1154.5369	1200.2975	1255.307	1299.7632	1351.9214	1434.7629	1450.6256	1483.571	1502.5376	1548.52	1562.3336	1641.4704	3049.7262	3116.424	3162.7535	3286.524
CN1N=NC2=C1OC=N2	Cn1nnc2c1ocn2	
InChI=1S/C4H4N4O/c1-8-4-3(6-7-8)5-2-9-4/h2H,1H3	InChI=1S/C4H4N4O/c1-8-4-3(6-7-8)5-2-9-4/h2H,1H3
