15
gdb 37700	3.66374	2.08393	1.58271	0.5721	67.73	-0.2319	-0.0157	0.2162	808.5123	0.114291	-416.674624	-416.668889	-416.667944	-416.704368	24.379	
C	-0.0166007456	 1.4257236162	-0.0019893631	-0.290303
N	 1.413038215	 1.8219296955	 0.0165641855	-0.187831
C	 2.303889403	 0.9144747814	 0.0437344445	 0.037968
N	 2.1227241219	-0.5407631576	 0.0603660607	-0.207643
C	 0.9716299229	-0.8374805682	-0.8860945484	-0.075835
C	 0.2594092015	-1.8399105958	 0.0467580522	 0.017196
O	-1.0320940936	-1.1053185235	 0.0152338122	-0.383721
C	-0.0236982324	-0.0616945487	 0.0179939509	 0.458061
C	 0.940496845	-0.8123245406	 0.9754799933	-0.075835
H	-0.5080617029	 1.8769155222	 0.8669306124	 0.135797
H	-0.4785364455	 1.8530529405	-0.8987250352	 0.135797
H	 3.3490877062	 1.2227613591	 0.0570286968	 0.122779
H	 1.0770703749	-0.8330444333	-1.9701452711	 0.101196
H	 0.2281644534	-2.9273072954	 0.0609288973	 0.111178
H	 1.0096361662	-0.7785588418	 2.0619344118	 0.101196
250.7541	306.8783	408.6546	481.9876	523.4536	548.8158	660.9059	756.992	784.4659	793.8927	816.1338	840.9343	863.2515	878.5162	916.3267	932.1418	973.4871	1020.6085	1022.6904	1073.4019	1082.5083	1087.0947	1151.8665	1154.2648	1166.7308	1226.0524	1235.26	1266.8086	1332.427	1375.607	1404.1569	1480.2928	1674.833	3043.6147	3080.5455	3129.9624	3131.5787	3137.4589	3152.4884
C1N=CN2C3C4OC13C24	C1N=CN2[C@H]3[C@@H]4O[C@]13[C@H]24	
InChI=1S/C6H6N2O/c1-6-4-3(9-6)5(6)8(4)2-7-1/h2-5H,1H2	InChI=1S/C6H6N2O/c1-6-4-3(9-6)5(6)8(4)2-7-1/h2-5H,1H2/t3-,4-,5+,6+
