21
gdb 82114	3.13441	1.14688	0.97084	0.8349	87.37	-0.2487	0.0588	0.3075	1282.8022	0.181621	-349.894101	-349.884976	-349.884032	-349.927822	35.345	
C	-0.3239686256	 1.553282787	 0.1135916166	-0.414914
C	-0.0434813459	 0.0558205852	 0.0470533996	 0.011223
C	 0.4617827193	-0.5417474456	-1.2768055978	-0.051059
C	 1.8396854355	-0.0451285985	-1.6101342994	-0.284754
C	 1.6900439538	-1.1285677307	-0.577182207	-0.076126
C	 1.2199388327	-0.5657603739	 0.768890876	-0.001832
C	 2.1976166982	 0.3261007878	 1.5538781003	-0.369526
C	 1.6509944786	 0.7979595576	 2.8215788736	 0.30244
C	 1.179415953	 1.1625721204	 3.8660581089	-0.451936
H	 0.5117359174	 2.1507364039	-0.2639683246	 0.110144
H	-1.2013464511	 1.8019628422	-0.493799908	 0.111256
H	-0.5216947778	 1.8708608563	 1.1416854115	 0.130348
H	-0.9333434089	-0.4831385548	 0.385363729	 0.075318
H	-0.1678704697	-1.0042001223	-2.0278448412	 0.081682
H	 2.2295690528	-0.37979505	-2.5662382	 0.110738
H	 2.1594584162	 0.9576887814	-1.3396207121	 0.104474
H	 2.1447277978	-2.1031467696	-0.7119503956	 0.082192
H	 0.8951225381	-1.3729195363	 1.4306095039	 0.083711
H	 3.1130797795	-0.2492724982	 1.7472034275	 0.128247
H	 2.5068395868	 1.1844229488	 0.9463842293	 0.125852
H	 0.7744299992	 1.4936874194	 4.7898605496	 0.192523
73.5083	104.7715	174.5148	209.3325	217.0105	274.8489	346.4314	364.066	448.3686	509.3187	564.295	615.139	631.2692	661.0592	744.1337	787.2613	801.9865	882.7172	930.1521	950.6215	965.923	985.8159	997.6547	1026.1112	1056.8587	1068.0872	1083.5012	1097.5241	1127.9951	1142.6473	1181.2793	1215.1983	1247.8791	1274.2257	1295.7728	1321.3264	1365.9561	1372.0566	1384.5789	1411.7395	1466.1972	1488.9603	1499.7433	1503.3021	2234.1588	3018.9608	3034.1556	3048.8656	3056.8838	3075.7725	3097.6668	3111.5955	3116.7123	3170.0697	3179.1641	3200.0613	3507.0515
CC1C2CC2C1CC#C	C[C@H]1[C@H]2C[C@H]2[C@H]1CC#C	
InChI=1S/C9H12/c1-3-4-7-6(2)8-5-9(7)8/h1,6-9H,4-5H2,2H3	InChI=1S/C9H12/c1-3-4-7-6(2)8-5-9(7)8/h1,6-9H,4-5H2,2H3/t6-,7+,8-,9+/m1/s1
