19
gdb 126624	3.15414	1.0762	0.85785	2.6524	78.35	-0.2133	0.0411	0.2545	1381.1794	0.159947	-419.232911	-419.223682	-419.222737	-419.268361	33.299	
C	 0.0596430587	 1.5530558095	 0.0736538108	-0.381027
C	 0.0293377186	 0.0236179939	 0.0400489702	-0.172342
C	 0.6267145535	-0.5356007607	-1.2560870262	-0.145049
N	 0.6542994803	-1.9861788049	-1.2848436386	-0.01729
N	 1.6391845634	-2.6713098799	-0.6395453404	-0.283315
C	 1.3336718353	-3.9487727172	-0.8248343686	 0.01852
C	 0.1531977392	-4.1202058161	-1.5802222317	-0.382652
C	-0.2458991355	-2.824715962	-1.8464482972	 0.442774
O	-1.2964738619	-2.2943030124	-2.5159560453	-0.434799
H	 1.0847664019	 1.9319420468	-0.0040474886	 0.119376
H	-0.5162530667	 1.9832299002	-0.7535030747	 0.115882
H	-0.3649970033	 1.9343857675	 1.0067249901	 0.11836
H	 0.5931935732	-0.3887928242	 0.8835416323	 0.123843
H	-1.0014130806	-0.3363948487	 0.1400772811	 0.106263
H	 0.0520221378	-0.1989091615	-2.1236256006	 0.127956
H	 1.6587454424	-0.1938973274	-1.3775171173	 0.127307
H	 1.9747437109	-4.7151938863	-0.4132458362	 0.108133
H	-0.3298305214	-5.0337433862	-1.8865592358	 0.095551
H	-1.8069459959	-3.0124385705	-2.9018677932	 0.312509
22.2747	86.0784	93.1076	235.2528	245.2901	269.6725	277.8849	313.9727	380.9068	485.2111	662.1926	679.0544	688.617	730.5732	752.7344	789.9608	877.7176	879.6888	902.3965	939.4853	1044.33	1057.6467	1068.1502	1123.7754	1144.7428	1230.8493	1249.2484	1289.7375	1303.1266	1330.2369	1349.6255	1379.8828	1408.4126	1415.8061	1462.7259	1477.97	1493.0236	1500.7198	1509.4628	1585.0327	1598.1804	3030.681	3037.7849	3061.7245	3073.3416	3096.9816	3108.454	3116.9783	3237.4747	3263.5607	3847.0753
CCCN1N=CC=C1O	CCCn1nccc1O	
InChI=1S/C6H10N2O/c1-2-5-8-6(9)3-4-7-8/h3-4,9H,2,5H2,1H3	InChI=1S/C6H10N2O/c1-2-5-8-6(9)3-4-7-8/h3-4,9H,2,5H2,1H3
