19
gdb 15440	5.26986	0.8694	0.8167	1.6345	69.27	-0.2505	0.0727	0.3232	1429.7673	0.164626	-402.148986	-402.139702	-402.138758	-402.184034	32.278	
C	 0.2406676449	 1.3011917727	-0.2879024355	-0.226063
O	 0.2515248196	-0.0961325221	-0.1247671001	-0.234891
C	 0.499357021	-0.489620379	 1.2085494118	-0.058512
C	 0.4929430369	-1.9958873748	 1.2499253017	-0.031087
N	 1.785393861	-2.6893462255	 1.1232777998	-0.345074
C	 1.0146478973	-2.8125964914	 2.3774182821	-0.043366
C	 1.7121664717	-2.2580715652	 3.5995085468	-0.064515
O	 2.8260452515	-3.0617050986	 3.9483503122	-0.421278
H	 1.2088554395	 1.7526246497	-0.0190181328	 0.1059
H	 0.0366085868	 1.5063311075	-1.3415772292	 0.127582
H	-0.5406535618	 1.7793354361	 0.3250409307	 0.102025
H	 1.4692853784	-0.1020816001	 1.5532844057	 0.096719
H	-0.2821568189	-0.0869174518	 1.8774993622	 0.084606
H	-0.3515564445	-2.4187929973	 0.7080574571	 0.094968
H	 1.6875978498	-3.5254193715	 0.5546258589	 0.236169
H	 0.5123501532	-3.7626038984	 2.553930201	 0.090503
H	 2.0132833059	-1.214853117	 3.4284616435	 0.08868
H	 1.0372710116	-2.2724248432	 4.4619829436	 0.108298
H	 3.3761999262	-3.1027055901	 3.1567509104	 0.289337
52.2855	80.374	87.7673	120.2622	217.4136	231.0474	287.3215	344.5765	441.4413	460.6763	484.2179	576.7555	803.452	862.2765	893.3334	963.3529	977.1156	999.5107	1036.5545	1059.9399	1071.9177	1148.7545	1158.5527	1178.7585	1186.6498	1218.8297	1240.0175	1268.5075	1276.1913	1284.0526	1360.4101	1378.7494	1415.6535	1444.6349	1476.0836	1484.8676	1493.0966	1497.7495	1500.6491	1523.6647	2946.5872	2968.0618	3000.6277	3010.5063	3016.4371	3073.4219	3114.0408	3116.7278	3128.3226	3512.7415	3787.5345
COCC1NC1CO	COC[C@H]1N[C@H]1CO	
InChI=1S/C5H11NO2/c1-8-3-5-4(2-7)6-5/h4-7H,2-3H2,1H3	InChI=1S/C5H11NO2/c1-8-3-5-4(2-7)6-5/h4-7H,2-3H2,1H3/t4-,5+/m0/s1
