16
gdb 34002	3.46868	1.35091	1.11521	4.2419	74.4	-0.2632	-0.0001	0.2631	1079.3534	0.125387	-400.759214	-400.751724	-400.75078	-400.791213	28.664	
N	-0.0341645372	-1.0412481122	 0.7096388792	-0.33151
C	-0.0102249756	 0.0606364117	 0.3617587324	 0.245966
C	 0.0036509897	 1.4353489298	-0.1102182384	 0.239012
C	-1.0435173055	 1.770966638	-1.1566948479	-0.337327
C	-0.7509803004	 3.0412334887	-1.9054657795	-0.047793
C	 0.3899131414	 3.7204182598	-1.8336291552	-0.059632
C	 1.5657362943	 3.3209415538	-0.9862742171	-0.294066
C	 1.2706266606	 2.1989501751	-0.0204526855	 0.007081
O	 0.2123238153	 2.4114303298	 0.9151534432	-0.271034
H	-1.1189866335	 0.928684903	-1.8577571245	 0.138307
H	-2.022131699	 1.8328683413	-0.6627193381	 0.139333
H	-1.5490580914	 3.3978991312	-2.5505553689	 0.099393
H	 0.5109253934	 4.6263250039	-2.4209148497	 0.09866
H	 2.4050182554	 3.0122058613	-1.6258169167	 0.127143
H	 1.9349563933	 4.1839346893	-0.4151860674	 0.132135
H	 2.1361991193	 1.6916614554	 0.4044118241	 0.114332
107.473	147.931	175.102	322.4419	366.6088	394.6126	419.5848	548.0028	567.6131	597.5793	657.9752	679.1459	790.6967	885.2461	894.8975	931.9435	953.2132	969.712	1011.0469	1020.3814	1063.5022	1096.2156	1185.5397	1206.762	1237.8868	1257.1669	1319.0072	1376.9972	1380.1949	1413.7409	1453.5316	1463.312	1472.6186	1740.9569	2358.0965	3010.5377	3019.5013	3036.1723	3046.5376	3121.7449	3157.7663	3179.4537
N#CC12CC=CCC1O2	N#C[C@]12CC=CC[C@H]1O2	
InChI=1S/C7H7NO/c8-5-7-4-2-1-3-6(7)9-7/h1-2,6H,3-4H2	InChI=1S/C7H7NO/c8-5-7-4-2-1-3-6(7)9-7/h1-2,6H,3-4H2/t6-,7-/m1/s1
