14
gdb 24945	4.99754	1.30771	1.04386	4.7735	68.77	-0.1976	0.0046	0.2022	1047.7743	0.103901	-432.927925	-432.920979	-432.920035	-432.959306	26.659	
O	 0.0125275441	 0.0180398513	-0.0253033052	-0.347391
C	-0.026858541	 1.2196646454	 0.0329619415	 0.4014
C	-1.2859453165	 2.1384733842	 0.0339167388	-0.47786
C	-0.670909285	 3.5024489358	-0.020420263	 0.245295
C	 0.6827901107	 3.3714379942	-0.0001192252	 0.40286
N	 1.2113616514	 4.626533813	 0.046764342	-0.392009
C	 0.1114541367	 5.4784992651	 0.0318632392	-0.021459
N	-1.029338743	 4.8269005214	 0.0038859431	-0.329853
N	 1.110377663	 2.0500083945	 0.0967124769	-0.448008
H	-1.9166841372	 1.8642515081	-0.8180616433	 0.150762
H	-1.8679312447	 1.9384030753	 0.9408219549	 0.151874
H	 2.1791164354	 4.8994822187	 0.0575411141	 0.270505
H	 0.2357779082	 6.5499207393	 0.0256356676	 0.132
H	 2.0208924678	 1.6833011739	-0.1299781013	 0.261885
110.8384	157.2981	286.3775	351.6034	391.3796	447.1383	548.4844	552.6354	566.6852	653.5928	699.6423	732.1758	745.0461	821.5883	848.2332	961.5408	965.2141	1062.5086	1096.4701	1145.4597	1204.8555	1227.3496	1262.3441	1308.4204	1371.9579	1393.1426	1448.3973	1484.7006	1572.1903	1623.43	1850.1795	3048.9379	3084.2565	3264.5379	3645.6791	3673.0666
O=C1CC2=C(NC=N2)N1	O=C1Cc2c([nH]cn2)N1	
InChI=1S/C5H5N3O/c9-4-1-3-5(8-4)7-2-6-3/h2H,1H2,(H,6,7)(H,8,9)	InChI=1S/C5H5N3O/c9-4-1-3-5(8-4)7-2-6-3/h2H,1H2,(H,6,7)(H,8,9)
