17
gdb 26502	3.67186	1.23718	1.04699	0.8431	73.6	-0.2316	0.0057	0.2372	1151.0542	0.137319	-418.014091	-418.006243	-418.005299	-418.046873	29.557	
C	-0.3293028254	 1.303993439	-0.7765923089	-0.472685
C	-0.0327245553	 0.0010570234	-0.0619801016	 0.186022
C	 1.0942896736	-0.848010776	-0.5528086099	-0.26058
N	 1.2037520048	-0.1335169138	 0.7306390444	-0.346656
C	-1.2031747894	-0.6567201532	 0.5684739901	 0.24081
C	-1.290828344	-1.269072083	 1.7747961339	-0.114278
O	-2.5688862209	-1.738003323	 1.9215120945	-0.140256
C	-3.190396691	-1.3721400953	 0.7802708134	 0.071252
N	-2.4464714621	-0.7323487615	-0.0602173474	-0.319501
H	 0.5679024579	 1.6882987057	-1.2721683132	 0.106925
H	-1.1086895715	 1.1576670348	-1.5290332569	 0.150828
H	-0.6873215955	 2.0619520004	-0.0712367171	 0.124952
H	 1.0313624436	-1.9287604432	-0.4684399337	 0.120279
H	 1.6651181312	-0.486297326	-1.4044748677	 0.112244
H	 1.7739517642	 0.7010547393	 0.6169270992	 0.230683
H	-0.6040925623	-1.4451929626	 2.5821884765	 0.160961
H	-4.230117668	-1.6432207551	 0.6839735644	 0.149
59.9432	149.8538	183.514	220.56	310.0048	347.8629	414.71	494.9168	550.9264	645.6148	721.1426	793.8375	825.4953	843.6574	852.5253	931.8933	937.8019	963.5916	986.3387	1007.5962	1051.7118	1090.834	1113.3345	1128.057	1148.1439	1204.3791	1239.1466	1267.2766	1320.4995	1345.5106	1387.3325	1411.8704	1480.5278	1501.1653	1508.1189	1556.0853	1633.3794	3033.7635	3099.5795	3106.7068	3121.6066	3197.4144	3274.7119	3315.722	3497.2208
CC1(CN1)C1=COC=N1	C[C@]1(CN1)c1cocn1	
InChI=1S/C6H8N2O/c1-6(3-8-6)5-2-9-4-7-5/h2,4,8H,3H2,1H3	InChI=1S/C6H8N2O/c1-6(3-8-6)5-2-9-4-7-5/h2,4,8H,3H2,1H3/t6-/m0/s1
