21
gdb 104308	2.76564	1.33238	1.27415	2.0696	77.68	-0.2504	0.0846	0.3349	1140.6374	0.181527	-424.220459	-424.211499	-424.210555	-424.25376	34.418	
C	 0.1439936224	 1.4807647319	 0.2202681115	-0.393521
C	 0.0306326315	-0.0252262015	-0.0347708211	-0.198512
C	 0.6492589874	-0.4983040813	-1.3583301562	 0.361492
C	-0.0462676283	 0.0784628406	-2.5984890486	-0.435577
O	 2.040747225	-0.1107107061	-1.3443832634	-0.30422
C	 2.8601176809	-1.1208962811	-1.9169972933	-0.118236
C	 2.0641223446	-2.4011921092	-1.8084799605	 0.024788
O	 1.55265414	-2.6273564529	-0.4892680966	-0.258346
C	 0.696748657	-2.0184393107	-1.4607029124	-0.011828
H	 1.1880053088	 1.7999757808	 0.1701863419	 0.13688
H	-0.4257199072	 2.0659874205	-0.5086370824	 0.110289
H	-0.2424136433	 1.7297594361	 1.2132325658	 0.109785
H	 0.5369404592	-0.5740848656	 0.7651697851	 0.118792
H	-1.0232397709	-0.3315656089	-0.0174778302	 0.087095
H	 0.0581657248	 1.1653277134	-2.6217820824	 0.132862
H	 0.3966438888	-0.3227247234	-3.5157005669	 0.113734
H	-1.1138465287	-0.1665948082	-2.6022008785	 0.114292
H	 3.0876683745	-0.9168634869	-2.9762249882	 0.0937
H	 3.8036562736	-1.1467329313	-1.3608951186	 0.117608
H	 2.3248899771	-3.2837423848	-2.3861700202	 0.101836
H	-0.1865711272	-2.5825736815	-1.7487297548	 0.097087
99.509	128.7922	172.8232	210.917	234.1681	278.396	331.0177	366.5941	386.1485	429.0521	516.8627	623.7709	740.8402	784.7396	798.1656	840.0336	881.1257	890.3244	921.7992	957.3435	987.3858	1005.8209	1011.1865	1052.142	1075.5856	1097.9691	1120.2124	1186.2202	1201.2291	1228.4288	1229.1002	1262.497	1308.0033	1327.7745	1368.4396	1383.8187	1403.9507	1409.6468	1442.7901	1477.3852	1489.8887	1494.6897	1507.2545	1509.1702	1510.3287	2972.6939	3027.7743	3037.8918	3042.63	3064.2102	3082.0722	3102.2034	3105.6635	3126.1473	3129.6487	3146.3894	3160.6614
CCC1(C)OCC2OC12	CC[C@@]1(C)OC[C@H]2O[C@@H]12	
InChI=1S/C7H12O2/c1-3-7(2)6-5(9-6)4-8-7/h5-6H,3-4H2,1-2H3	InChI=1S/C7H12O2/c1-3-7(2)6-5(9-6)4-8-7/h5-6H,3-4H2,1-2H3/t5-,6-,7-/m1/s1
