20
gdb 126367	3.13158	1.02159	0.82941	2.6025	81.84	-0.2445	0.0201	0.2646	1463.3784	0.172153	-399.380358	-399.370853	-399.369908	-399.416429	33.761	
C	-0.0578978922	 1.5622589106	-0.2039212649	-0.368057
C	-0.0487960816	 0.0494503845	 0.0616489775	-0.305242
C	-1.4264245743	-0.5308802682	 0.1129601109	 0.368908
N	-2.427539619	-0.1261029977	 0.8751146559	-0.346427
C	-3.4482610925	-0.9781166622	 0.5513844015	 0.335767
C	-4.8065837231	-0.8923973018	 1.170698134	-0.280433
C	-5.5108012202	 0.4398938805	 0.8706031435	-0.373003
N	-3.1356877959	-1.8820242614	-0.3660708811	-0.274383
N	-1.8391180721	-1.57793778	-0.6330937473	-0.246229
H	 0.9589977051	 1.9638843216	-0.1766985323	 0.114673
H	-0.4895450431	 1.7871585625	-1.1838302051	 0.122376
H	-0.6572961917	 2.0734158116	 0.5527482102	 0.14957
H	 0.5353741582	-0.4711612779	-0.7060654441	 0.101509
H	 0.4482666412	-0.1486170562	 1.0188715633	 0.133714
H	-5.4018443642	-1.7342782623	 0.8061300767	 0.116804
H	-4.7058200944	-1.0101436686	 2.2563155282	 0.114506
H	-6.4819856724	 0.4864283461	 1.3724211163	 0.109482
H	-4.9031851549	 1.2808454199	 1.2153595648	 0.135182
H	-5.6771202457	 0.5612523866	-0.2043974933	 0.118568
H	-1.3267498373	-2.1180237877	-1.3107455548	 0.272714
24.7346	48.9901	105.5088	182.3788	197.6692	220.4456	282.9925	365.9545	401.4122	458.9711	544.4115	604.6715	703.4577	749.2889	764.9887	796.2943	806.349	971.2413	982.9676	1022.9738	1062.516	1070.3597	1091.7727	1093.557	1100.5581	1160.0403	1244.4374	1277.0679	1304.4678	1345.4569	1361.8765	1392.1322	1405.6785	1409.298	1461.7975	1475.6455	1481.1447	1495.3086	1495.7034	1504.8904	1508.3171	1539.5908	1584.5797	3032.3885	3037.5974	3040.7417	3046.4178	3067.5928	3092.2488	3110.0829	3115.805	3124.6147	3134.9179	3662.0055
CCC1=NC(CC)=NN1	CCc1nc(CC)n[nH]1	
InChI=1S/C6H11N3/c1-3-5-7-6(4-2)9-8-5/h3-4H2,1-2H3,(H,7,8,9)	InChI=1S/C6H11N3/c1-3-5-7-6(4-2)9-8-5/h3-4H2,1-2H3,(H,7,8,9)
