20
gdb 61622	3.55125	0.88465	0.8725	3.7289	81.74	-0.2426	0.0498	0.2923	1430.1721	0.169785	-403.0859	-403.076318	-403.075374	-403.120632	36.093	
C	 0.5932320011	 1.3340765482	-0.169660623	-0.409162
C	 0.1021647378	-0.0649178872	 0.1115018167	 0.012267
N	 1.1329007428	-1.0831232906	 0.3794972601	-0.347875
C	 0.184715121	-0.700755832	 1.4585211591	-0.043123
C	 0.740575539	-0.0021527292	 2.6971197003	-0.231654
C	 2.2095242837	-0.3776340368	 3.0140599462	-0.059745
O	 3.0870841391	 0.0593572686	 1.9902652898	-0.434517
C	 2.6260530844	 0.21414058	 4.2861123188	 0.340767
C	 2.9297860549	 0.6973612312	 5.3431900019	-0.444348
H	 1.4727217561	 1.5640887309	 0.4362230058	 0.149073
H	 0.87168188	 1.4365846282	-1.2235824169	 0.122331
H	-0.1874346741	 2.0715564503	 0.0462953855	 0.11922
H	-0.735696391	-0.3872194467	-0.5048303603	 0.087551
H	 0.8872264107	-1.9839592305	-0.0180742437	 0.23837
H	-0.5876259864	-1.436584372	 1.6706719556	 0.09055
H	 0.694950709	 1.0857361525	 2.5907775644	 0.12225
H	 0.1159634109	-0.2625415439	 3.557329977	 0.109694
H	 2.2645963884	-1.4752249451	 3.1196629379	 0.088038
H	 2.7568930478	-0.3839864386	 1.1868782757	 0.296679
H	 3.2157511046	 1.1206933526	 6.2740553391	 0.193634
55.8438	70.7788	143.4701	208.8386	242.6308	263.6723	274.8273	353.2741	400.8596	475.2267	534.3366	549.4725	575.9928	621.6983	663.8473	717.6825	773.5553	805.775	866.6383	902.415	946.1298	977.7698	1007.3763	1033.936	1051.8156	1079.8584	1106.0348	1161.8134	1178.5766	1244.6874	1260.923	1280.2409	1293.3373	1328.0932	1364.0018	1395.5048	1425.911	1451.943	1475.3872	1490.0508	1500.4985	1508.8787	2242.2568	2945.5901	3037.1092	3054.5583	3095.5941	3099.8754	3112.6234	3129.1795	3136.7481	3505.7376	3522.4861	3581.7771
CC1NC1CC(O)C#C	C[C@H]1N[C@H]1C[C@@H](O)C#C	
InChI=1S/C7H11NO/c1-3-6(9)4-7-5(2)8-7/h1,5-9H,4H2,2H3	InChI=1S/C7H11NO/c1-3-6(9)4-7-5(2)8-7/h1,5-9H,4H2,2H3/t5-,6+,7+/m1/s1
