16
gdb 47183	2.31734	1.74306	1.02757	3.1698	75.53	-0.2493	-0.0436	0.2057	1104.9331	0.127968	-434.118387	-434.110677	-434.109733	-434.151067	29.073	
N	-0.013032	 0.9426740722	 1.1089385826	-0.503613
C	-0.0006709638	 0.0826466186	 0.1580622088	 0.337212
N	 1.1679011136	-0.2506013402	-0.5464671629	-0.411476
C	 1.587184704	-1.4251214418	-1.1897611578	 0.410438
O	 2.7713214217	-1.7016515878	-1.2186750665	-0.386659
N	 0.6282469286	-2.2191668329	-1.7607839579	-0.325911
C	-0.641294719	-1.7534387567	-2.3061798636	-0.23517
C	-1.604655635	-1.2495293841	-1.268443223	-0.089977
C	-1.3003124615	-0.4930161889	-0.2150266718	-0.01327
H	 0.9197592774	 1.3148332732	 1.2989825971	 0.209799
H	 1.9906960368	 0.2309572217	-0.2076780868	 0.252136
H	 1.0621658629	-2.9848501495	-2.2546587146	 0.257739
H	-0.4880261542	-0.9772931653	-3.0742735072	 0.134058
H	-1.088465181	-2.6077855474	-2.8204177502	 0.128288
H	-2.6459126043	-1.5185640144	-1.4215107814	 0.112689
H	-2.0816817662	-0.1765190466	 0.4662413252	 0.123718
73.5359	114.349	171.985	308.3914	340.7536	384.1709	447.3411	533.2501	570.8665	627.1299	660.4229	682.9965	773.665	783.208	831.6651	866.6334	881.5506	925.5957	964.5276	1022.7817	1047.1776	1149.202	1164.1576	1242.9229	1281.5177	1328.5498	1393.2256	1425.505	1440.8838	1449.0318	1477.193	1502.5026	1668.0711	1738.1386	1804.4671	2968.6585	3090.5227	3168.4775	3207.3353	3449.894	3588.1387	3621.1643
N=C1NC(=O)NCC=C1	[NH]C1=C[CH]CNC(=O)N1	
InChI=1S/C5H7N3O/c6-4-2-1-3-7-5(9)8-4/h1-2H,3H2,(H3,6,7,8,9)	InChI=1S/C5H7N3O/c6-4-2-1-3-7-5(9)8-4/h1-2H,3H2,(H3,6,7,8,9)
