19
gdb 47420	2.75824	1.33812	1.00673	2.3575	76.2	-0.2452	0.021	0.2662	1198.1183	0.161729	-419.197882	-419.189683	-419.188739	-419.231451	30.629	
N	 0.107515873	 1.3482943138	-0.2712571676	-0.539384
C	 0.0356922617	 0.0895322791	-0.2128887573	 0.407277
O	 1.108931417	-0.7550940961	-0.230692992	-0.237888
C	 0.6799476748	-2.123322641	-0.1189938387	-0.084101
C	-0.7978490684	-2.1222119702	-0.5312534136	-0.25569
C	-1.254862035	-0.7117162786	-0.1073757954	-0.117595
C	-1.8150968758	-0.6598279671	 1.3034305849	 0.032575
C	-2.7202431062	 0.4369550729	 1.7079231809	-0.237244
N	-3.2401594143	-0.9369955968	 1.5460674499	-0.333901
H	 1.0819967945	 1.6518094404	-0.3172786213	 0.221897
H	 1.3194338323	-2.7281998062	-0.7655984086	 0.122418
H	 0.819633597	-2.4548480384	 0.9172409408	 0.117458
H	-0.8839532484	-2.2397099371	-1.6153393089	 0.11642
H	-1.3684017735	-2.9213474283	-0.0533089073	 0.122555
H	-1.9936615345	-0.2865791417	-0.7920359679	 0.096376
H	-1.1639536917	-1.090072484	 2.0634875876	 0.092741
H	-2.7097726956	 0.8045031543	 2.7294985272	 0.121847
H	-2.9656760389	 1.1852733692	 0.9597639887	 0.127204
H	-3.732505988	-1.0111049641	 0.6580075287	 0.227036
66.0887	82.3026	155.92	180.0163	275.4023	318.7912	398.2054	493.2906	641.1758	666.5651	674.2817	798.2809	844.8764	880.6596	891.0561	893.5689	924.9294	953.8887	963.389	995.406	1003.7415	1050.1221	1093.7145	1111.3075	1137.3133	1160.8279	1188.1889	1214.4806	1240.0072	1252.9679	1271.3139	1284.3608	1289.648	1322.6079	1343.4362	1408.4281	1429.6033	1492.0477	1517.1779	1526.5844	1773.3959	3031.8913	3060.2587	3075.8082	3103.5526	3112.2919	3118.8668	3120.3941	3204.1038	3469.7992	3484.4684
N=C1OCCC1C1CN1	[NH][C]1OCC[C@H]1[C@H]1CN1	
InChI=1S/C6H10N2O/c7-6-4(1-2-9-6)5-3-8-5/h4-5,7-8H,1-3H2	InChI=1S/C6H10N2O/c7-6-4(1-2-9-6)5-3-8-5/h4-5,7-8H,1-3H2/t4-,5+/m0/s1
