22
gdb 6976	2.36674	2.20613	1.55898	0.1198	82.6	-0.2349	0.0295	0.2644	967.9154	0.199976	-313.094514	-313.08582	-313.084876	-313.126768	34.282	
C	-0.7354714969	 1.1582934144	-0.0086557943	-0.416062
C	 0.1518165568	-0.0819699721	-0.1054772707	 0.016599
C	 1.3346973058	 0.0484817348	-1.098766934	-0.273938
C	 2.3544139011	-0.9104901274	-0.5341391143	-0.088708
C	 2.0557837261	-1.2668036836	 0.7129083151	-0.078689
C	 0.7932133342	-0.598764973	 1.2317710507	 0.258035
C	 1.1836632707	 0.5396071476	 2.1987049512	-0.418618
C	-0.1354661791	-1.5839712788	 1.9589759215	-0.432935
H	-0.1695055064	 2.0424085367	 0.3022543889	 0.115448
H	-1.1876469599	 1.3839907426	-0.9804682136	 0.110212
H	-1.5530422898	 1.0157395647	 0.7065486136	 0.111461
H	-0.4695315212	-0.9094161057	-0.4723889548	 0.070678
H	 1.038107831	-0.1872725361	-2.127602448	 0.098097
H	 1.7342589902	 1.0739775913	-1.125361608	 0.098967
H	 3.2339080174	-1.2279853915	-1.0841697399	 0.087798
H	 2.6542361029	-1.9188888176	 1.3422243093	 0.082918
H	 1.8144366338	 1.2868296739	 1.7073817991	 0.113363
H	 0.2993001003	 1.0473668728	 2.5983989411	 0.109669
H	 1.7479025449	 0.1405963334	 3.0487766415	 0.107128
H	 0.3295358632	-1.9639676254	 2.8757536363	 0.1068
H	-1.076841665	-1.1005992141	 2.2454279873	 0.109923
H	-0.37620751	-2.442683497	 1.3239307518	 0.111853
98.9932	224.0974	240.4479	250.4508	256.1325	280.0235	288.5593	337.3543	397.4222	470.5859	520.4454	568.5069	678.2236	745.2688	764.0787	857.6714	913.7997	938.6645	941.2371	955.8891	972.4354	976.1665	1012.9345	1050.5645	1092.8057	1121.0906	1127.84	1164.8984	1219.8878	1237.0289	1241.8167	1305.0795	1341.4859	1369.1581	1372.8866	1393.3826	1411.0963	1420.6905	1481.9212	1484.9305	1488.7531	1497.1711	1499.8323	1507.0358	1511.0155	1686.2425	2990.4933	3011.5723	3020.7992	3026.7781	3030.7564	3049.7869	3084.3771	3090.4077	3093.5639	3096.9751	3100.1853	3103.8094	3167.3983	3196.2442
CC1CC=CC1(C)C	C[C@H]1CC=CC1(C)C	
InChI=1S/C8H14/c1-7-5-4-6-8(7,2)3/h4,6-7H,5H2,1-3H3	InChI=1S/C8H14/c1-7-5-4-6-8(7,2)3/h4,6-7H,5H2,1-3H3/t7-/m0/s1
