15
gdb 69803	2.66706	1.95207	1.32469	2.1818	64.48	-0.2453	-0.0513	0.194	923.6904	0.112179	-457.739686	-457.732489	-457.731545	-457.771123	28.347	
O	 0.2252104406	 1.295299077	-0.3702238439	-0.468003
C	 0.0448706236	-0.0553292628	-0.1299868573	 0.330555
C	-0.5640053709	-0.9088368991	-1.2129223986	-0.340839
C	-1.3048051186	-0.7333567079	 0.0935635315	-0.152471
C	-1.0774452961	-1.8420412774	 1.1164116305	 0.032444
O	-0.1613037003	-2.8480515952	 0.6813094425	-0.238631
C	 0.3284230293	-1.8334510067	 1.5721788268	-0.086507
C	 0.9754950946	-0.6400057499	 0.9013547651	 0.328028
O	 1.9595189127	-0.0557039936	 1.2929657536	-0.335928
H	 0.999857277	 1.5495894721	 0.1534560802	 0.297432
H	-0.9323843443	-0.3228227613	-2.0481262401	 0.134289
H	-0.1507795924	-1.8783228028	-1.4557776185	 0.147747
H	-2.2235829375	-0.1618717088	 0.1274027002	 0.11131
H	-1.890348265	-2.1880988643	 1.7474962481	 0.116193
H	 0.6923686973	-2.1631138193	 2.5398538399	 0.124379
109.0211	228.348	265.2922	307.5946	338.6613	394.206	467.3077	534.5579	593.1152	622.0183	690.6829	791.9949	810.2456	841.992	868.6011	884.4985	930.6768	973.4719	1006.8129	1016.3562	1064.15	1078.7722	1098.6472	1139.6989	1207.0814	1241.4232	1278.5528	1311.29	1370.516	1391.211	1425.8817	1476.5581	1815.6245	3148.638	3162.161	3179.1431	3202.1437	3250.3919	3723.6577
OC12CC1C1OC1C2=O	O[C@]12C[C@H]1[C@H]1O[C@H]1C2=O	
InChI=1S/C6H6O3/c7-5-4-3(9-4)2-1-6(2,5)8/h2-4,8H,1H2	InChI=1S/C6H6O3/c7-5-4-3(9-4)2-1-6(2,5)8/h2-4,8H,1H2/t2-,3+,4+,6+/m0/s1
