21
gdb 109658	2.0326	1.2889	1.00683	2.6831	81.6	-0.2397	-0.0134	0.2264	1303.4263	0.179124	-424.220502	-424.209937	-424.208993	-424.255955	37.611	
C	-0.0825830633	 1.0807069742	 0.5804751126	-0.241708
O	-0.200813667	 0.0653564992	-0.4026194322	-0.229945
C	-1.3715499392	-0.6636120951	-0.2933240023	 0.071449
C	-1.4362789358	-1.9832884157	-0.9649937969	-0.115898
C	-0.2861008667	-2.5237826719	-1.7863749163	-0.411709
C	-1.3649795299	-1.9504899517	 0.5757602814	 0.17237
C	-0.1037780872	-2.3632737958	 1.3029320687	-0.476051
C	-2.6388584476	-2.2266961634	 1.2758758556	 0.112737
O	-2.7377768029	-2.7162272659	 2.3760921348	-0.273922
H	 0.8555955858	 1.6042308362	 0.3859993764	 0.133632
H	-0.9140304954	 1.7970889254	 0.5129340163	 0.114966
H	-0.0621189435	 0.6616462272	 1.5949858358	 0.122939
H	-2.2752421731	-0.0524736959	-0.2582129765	 0.091194
H	-2.4189456289	-2.2399109211	-1.3557786834	 0.093943
H	 0.6747525923	-2.1444998369	-1.4370130961	 0.13946
H	-0.2617463097	-3.6175410735	-1.7542677774	 0.123778
H	-0.3999361755	-2.2216884065	-2.8325602749	 0.12597
H	 0.7675304928	-1.8273160778	 0.9235457975	 0.128605
H	-0.2120533777	-2.1563660775	 2.3706535904	 0.136473
H	 0.0795038083	-3.4374192693	 1.1986818091	 0.125144
H	-3.5500297258	-1.9315403643	 0.7005893674	 0.056574
85.1478	110.172	150.9351	152.7205	168.8868	183.5399	211.5935	236.4581	272.857	299.3047	378.3189	407.3285	496.8218	571.3791	627.6413	721.6081	772.1729	864.0837	952.7073	978.6928	1010.4377	1033.6722	1062.1796	1096.8398	1108.4353	1126.4958	1168.7014	1181.0144	1184.9192	1236.8182	1267.1537	1333.706	1371.5872	1403.9782	1418.7982	1439.1593	1444.6155	1486.646	1487.8029	1488.8813	1491.7718	1504.6495	1509.8083	1511.4731	1805.6576	2832.2064	2995.4097	3043.8523	3049.77	3053.6763	3080.9538	3100.8936	3110.9748	3121.0034	3128.7085	3141.3488	3149.9974
COC1C(C)C1(C)C=O	CO[C@H]1[C@@H](C)[C@]1(C)C=O	
InChI=1S/C7H12O2/c1-5-6(9-3)7(5,2)4-8/h4-6H,1-3H3	InChI=1S/C7H12O2/c1-5-6(9-3)7(5,2)4-8/h4-6H,1-3H3/t5-,6+,7+/m1/s1
