19
gdb 87835	2.90364	1.35112	1.14871	0.2801	75.84	-0.2455	0.0823	0.3278	1151.2216	0.156549	-422.977697	-422.968824	-422.96788	-423.010997	33.497	
C	-0.0881971682	 1.4937503452	-0.0857045565	-0.416008
C	 0.0128985712	-0.0009476193	 0.0650924408	-0.02623
O	 1.3391808094	-0.5740261903	-0.0127667389	-0.299409
C	 0.6423337871	-0.6388425379	 1.219388307	 0.393619
C	 1.2503111428	-0.082207384	 2.530095697	-0.350891
C	 0.9077239728	-1.4403363699	 3.1670512622	-0.048176
O	-0.5070975999	-1.626962007	 3.0165751079	-0.287642
C	 0.3466581942	-1.9719298311	 1.9079709645	 0.323997
C	 0.2655709423	-3.3311836291	 1.3013684115	-0.514922
H	 0.6795772991	 1.9992064986	 0.5055267052	 0.128024
H	 0.0361985182	 1.7863052449	-1.1334926233	 0.129679
H	-1.071885787	 1.8420138593	 0.2471246122	 0.127358
H	-0.7365537545	-0.5768776974	-0.4808940996	 0.090319
H	 2.3239856361	 0.0896916637	 2.4171408039	 0.12172
H	 0.773126418	 0.7871402027	 2.9883096399	 0.113912
H	 1.3941550101	-1.9508674441	 3.9902333048	 0.106442
H	-0.6633857303	-3.4485411625	 0.7321192718	 0.132133
H	 1.1029131616	-3.486422331	 0.6148816523	 0.141837
H	 0.2884143269	-4.1014105207	 2.0765323274	 0.134238
103.143	143.7553	177.7128	180.5332	204.0243	242.9399	324.2888	425.5236	443.8962	489.2324	511.8109	586.1785	674.0572	768.0779	797.2528	855.5891	880.184	923.0006	950.5154	965.8485	1022.1259	1040.5135	1051.7182	1084.3055	1098.0689	1134.0291	1158.9985	1186.6147	1214.5693	1255.8842	1262.9925	1352.6487	1398.8016	1410.8843	1453.2835	1462.0357	1477.7423	1483.2297	1490.9072	1494.3541	1534.3484	3037.4874	3038.0871	3064.6286	3091.398	3102.0017	3102.6431	3124.696	3126.409	3127.4272	3186.7843
CC1OC11CC2OC12C	C[C@H]1O[C@]21C[C@H]1O[C@@]21C	
InChI=1S/C7H10O2/c1-4-7(8-4)3-5-6(7,2)9-5/h4-5H,3H2,1-2H3	InChI=1S/C7H10O2/c1-4-7(8-4)3-5-6(7,2)9-5/h4-5H,3H2,1-2H3/t4-,5-,6-,7+/m1/s1
