13
gdb 5009	3.40159	2.49652	1.43995	0.2631	66.49	-0.203	-0.0382	0.1647	796.0027	0.097427	-394.815217	-394.808373	-394.807429	-394.846247	25.695	
N	 0.0351214812	 1.3092253724	-0.0848710916	-0.54366
C	-0.0292769771	-0.036106319	-0.0068690328	 0.360526
N	-1.1606929982	-0.6661330511	 0.0880929396	-0.350515
C	-1.091526848	-2.0438619264	 0.1852952807	-0.079387
C	 0.0628765406	-2.7220956289	 0.181275553	 0.00283
O	 1.2674796688	-2.0692506998	 0.073381304	-0.2213
C	 1.2936602012	-0.7137832883	-0.0307537193	 0.359304
N	 2.3687130852	-0.0448008202	-0.1468612804	-0.551527
H	 0.9353948177	 1.7324150525	-0.2374750256	 0.28333
H	-0.8160795765	 1.8383005399	-0.1566807724	 0.265701
H	-2.0333647502	-2.5728872134	 0.2683972919	 0.114319
H	 0.1884536379	-3.7919855346	 0.2556196761	 0.131923
H	 3.1876414574	-0.6527018031	-0.1515966433	 0.228457
90.7371	175.1676	252.7227	343.7089	442.5161	495.7005	534.9384	562.5831	563.4426	593.7269	745.7295	765.551	803.2519	857.786	904.3439	929.8415	1007.3986	1018.2837	1099.0179	1242.6721	1279.185	1294.5897	1409.9482	1441.0776	1570.7756	1651.1946	1666.9182	1722.4553	3200.1634	3251.3097	3494.9214	3605.0525	3748.5804
NC1=NC=COC1=N	NC1=C(OC=C[N]1)[NH]	
InChI=1S/C4H5N3O/c5-3-4(6)8-2-1-7-3/h1-2,6H,(H2,5,7)	InChI=1S/C4H5N3O/c5-3-4(6)8-2-1-7-3/h1-2,6H,(H2,5,7)
