20
gdb 88784	3.13874	1.06194	0.8743	2.6565	80.76	-0.2591	0.0296	0.2887	1366.1512	0.171048	-403.135396	-403.126445	-403.1255	-403.169811	33.173	
C	 0.244690072	 1.5542010925	-0.4377878253	-0.409213
C	 0.0946376764	 0.0790195191	-0.1338191475	-0.006882
C	 1.2975902153	-0.8238316678	-0.026125295	-0.293769
C	 0.4666745385	-0.5368189931	 1.2019760083	-0.000233
C	 1.0324705266	 0.2690196365	 2.3408025173	-0.144318
C	 0.0689079134	 0.7659150162	 3.446540628	-0.102184
O	 0.8043360604	-0.0044294839	 4.4469071533	-0.255381
C	 1.664577888	-0.5060482853	 3.4898221872	 0.425183
N	 2.609432956	-1.3225735435	 3.5908089778	-0.540972
H	 1.160079479	 1.9727388646	-0.0092077827	 0.116988
H	 0.2927402218	 1.7196217317	-1.519568113	 0.122139
H	-0.6013426215	 2.1345319798	-0.0519392899	 0.11581
H	-0.7814511647	-0.3696821512	-0.5954810085	 0.086518
H	 1.2588221004	-1.8185578405	-0.455120553	 0.116015
H	 2.2773261665	-0.3591547873	-0.0787849974	 0.117609
H	-0.1767456451	-1.3486767716	 1.5327456446	 0.086068
H	 1.699658835	 1.0548203126	 1.9789851644	 0.103095
H	 0.0896537259	 1.833237282	 3.679193304	 0.11822
H	-0.9629757371	 0.4135871885	 3.3647780855	 0.118746
H	 2.7249802332	-1.6401512593	 4.5549892918	 0.22656
49.5416	107.1219	116.4655	185.9211	199.5968	261.1958	344.2846	398.2434	434.0653	532.5131	618.4112	735.3129	767.9655	820.4202	856.1827	866.2214	897.3314	921.3424	949.7249	969.1746	1006.6041	1024.9789	1034.1343	1070.2227	1085.7833	1112.826	1148.091	1156.1032	1190.8967	1197.1978	1220.2428	1236.1788	1256.8613	1288.1914	1362.2004	1394.9133	1421.6719	1437.786	1493.4982	1494.1245	1507.174	1516.1748	1822.7845	3029.2276	3057.8195	3084.1059	3087.6341	3103.0664	3117.6706	3129.3253	3132.4188	3140.7495	3216.8995	3472.7214
CC1CC1C1COC1=N	C[C@H]1C[C@H]1[C@H]1CO[C]1[NH]	
InChI=1S/C7H11NO/c1-4-2-5(4)6-3-9-7(6)8/h4-6,8H,2-3H2,1H3	InChI=1S/C7H11NO/c1-4-2-5(4)6-3-9-7(6)8/h4-6,8H,2-3H2,1H3/t4-,5+,6+/m0/s1
