14
gdb 28133	5.15653	1.3107	1.05235	3.8718	71.28	-0.1907	-0.012	0.1787	1052.5433	0.103816	-432.9005	-432.893671	-432.892727	-432.931511	26.662	
N	-0.0099521095	 1.2717073199	-0.1020341285	-0.559913
C	-0.0239937242	-0.0838592595	-0.0365201427	 0.383613
N	-1.1299563771	-0.7808717233	-0.027416815	-0.386204
C	-0.6562438882	-2.0833722818	-0.0267249421	 0.372696
C	 0.6805766043	-2.2736499804	-0.0290473728	 0.212401
C	 1.2910909928	-0.9049126264	-0.0375184695	-0.471316
N	 0.9584303199	-3.6253173606	-0.0073469435	-0.340779
C	-0.2242308658	-4.1654644319	 0.0026388271	 0.013801
O	-1.2833509271	-3.2765938762	-0.00725996	-0.198063
H	 0.8209599327	 1.7666817285	 0.1736189339	 0.265545
H	-0.8877548827	 1.7430392275	 0.0533534745	 0.271532
H	 1.8883462637	-0.6690965758	-0.9253605707	 0.150724
H	 1.9012529444	-0.6680877764	 0.8422632006	 0.142189
H	-0.4872717331	-5.2099415437	 0.0156265888	 0.143775
144.6221	228.0232	303.6646	326.5915	348.5056	444.4043	523.2944	553.2651	580.9777	650.234	725.0039	737.5574	760.8514	824.9111	841.3993	940.2301	944.2876	1053.1957	1097.2933	1135.772	1143.5297	1203.0787	1287.9335	1368.6941	1409.8983	1441.3591	1444.9848	1508.9523	1585.4671	1623.6629	1662.2153	3042.314	3080.9011	3290.8482	3593.9858	3718.2412
NC1=NC2=C(C1)N=CO2	NC1=Nc2c(C1)nco2	
InChI=1S/C5H5N3O/c6-4-1-3-5(8-4)9-2-7-3/h2H,1H2,(H2,6,8)	InChI=1S/C5H5N3O/c6-4-1-3-5(8-4)9-2-7-3/h2H,1H2,(H2,6,8)
