16
gdb 49096	3.53752	1.56228	1.29015	3.3409	69.06	-0.2263	-0.0297	0.1966	965.6974	0.125011	-437.834308	-437.827326	-437.826382	-437.865756	27.267	
O	-0.2383117129	 0.4466043267	-0.7075355575	-0.273492
C	 0.2169742056	 1.0807267242	 0.2160017705	 0.067804
C	 1.4019290097	 1.9554942053	 0.103438685	 0.36594
O	 1.819167072	 2.5777890818	 1.2893623486	-0.313524
C	 2.4573881945	 3.8117423406	 0.9226328295	-0.061251
C	 2.8078395865	 3.6124434001	-0.5459664042	-0.081639
N	 3.6801202978	 2.3688193544	-0.609298034	-0.333158
C	 2.4624984446	 1.6092434043	-0.9556125468	-0.076141
C	 1.5966197609	 2.8260347693	-1.1199545974	-0.161554
H	-0.2254743603	 1.0527287801	 1.2340936028	 0.093656
H	 1.7708623502	 4.6586159949	 1.0710412685	 0.097003
H	 3.3442611622	 3.9386184537	 1.5478943747	 0.125182
H	 3.1874065005	 4.4863546512	-1.0732942354	 0.090444
H	 4.2512164937	 2.4298192693	-1.4499099316	 0.227757
H	 2.4654440416	 0.6533209725	-1.4651604558	 0.119085
H	 0.8165190433	 3.1130720317	-1.8131013769	 0.113889
113.6563	182.5571	202.6884	281.7532	404.5673	460.9875	526.837	653.1553	686.4273	738.0916	775.674	822.9528	856.0692	873.242	906.913	939.9739	968.9741	1002.0596	1032.8921	1036.7112	1065.0654	1066.1961	1095.6489	1153.2927	1170.7867	1209.6846	1222.9486	1252.888	1293.1862	1352.6522	1384.4725	1390.3455	1420.3949	1501.0478	1804.024	2916.9729	2997.3395	3106.477	3132.0829	3189.9466	3201.1295	3480.8129
O=CC12OCC3NC1C23	O=C[C@@]12OC[C@H]3N[C@@H]1[C@@H]23	
InChI=1S/C6H7NO2/c8-2-6-4-3(1-9-6)7-5(4)6/h2-5,7H,1H2	InChI=1S/C6H7NO2/c8-2-6-4-3(1-9-6)7-5(4)6/h2-5,7H,1H2/t3-,4+,5-,6+/m1/s1
