18
gdb 56995	2.99678	1.18642	0.95229	1.6499	76.83	-0.2347	0.0254	0.2601	1238.3467	0.146622	-401.851956	-401.843221	-401.842277	-401.88565	32.972	
O	 0.8526752643	-0.046245838	-1.1221130321	-0.416985
C	-0.0751574707	-0.0151904923	-0.0396408765	-0.073355
C	-1.3101091303	-0.741246191	-0.3497802434	 0.29596
C	-2.2922006175	-1.3893135877	-0.597752248	-0.446926
C	 0.5664682763	-0.5498454451	 1.2476098344	-0.0008
C	 1.7875745469	 0.1923594249	 1.8511455761	-0.195134
N	 1.1365988659	 0.2806470538	 3.2105341355	-0.127464
C	-0.066782236	 1.1022636228	 3.008076221	-0.236105
C	-0.1227142998	-0.3132014875	 2.5896036842	-0.046185
H	 0.959404521	-0.9669959713	-1.3865936329	 0.285577
H	-0.309269949	 1.0476031165	 0.0896489691	 0.115524
H	-3.1715516536	-1.9404788716	-0.824087285	 0.202425
H	 0.7872442883	-1.6123467177	 1.1066225683	 0.083652
H	 2.6955620609	-0.4097864216	 1.9020853059	 0.113507
H	 2.029925223	 1.1673324623	 1.4154146963	 0.111232
H	-0.5658507779	 1.3595799504	 3.9373624651	 0.123467
H	-0.042229494	 1.905761385	 2.2745196768	 0.112238
H	-0.7253700078	-1.0447440319	 3.1172661552	 0.09937
60.8955	117.1596	147.3244	201.5907	250.3094	292.0361	389.1807	415.6518	469.092	526.8222	589.7876	633.4006	675.4409	741.0262	755.8195	791.1849	857.7075	940.6816	962.9521	984.064	1003.702	1053.4833	1060.9558	1078.8506	1107.6939	1121.6407	1146.7867	1196.8098	1212.498	1252.3738	1266.0337	1289.4997	1301.0642	1372.967	1387.3079	1417.6117	1492.9655	1510.4474	2229.9513	3045.5314	3051.6651	3064.9342	3102.7115	3122.3971	3166.5143	3195.2465	3502.5822	3803.2262
OC(C#C)C1CN2CC12	O[C@@H](C#C)[C@H]1CN2C[C@@H]12	
InChI=1S/C7H9NO/c1-2-7(9)5-3-8-4-6(5)8/h1,5-7,9H,3-4H2	InChI=1S/C7H9NO/c1-2-7(9)5-3-8-4-6(5)8/h1,5-7,9H,3-4H2/t5-,6-,7-,8?/m0/s1
