19
gdb 81175	2.93404	1.15544	0.99587	4.1755	77.47	-0.2749	0.0086	0.2836	1249.2718	0.158581	-423.002711	-422.994172	-422.993228	-423.03676	31.846	
C	-0.3004182125	 1.5994816285	-0.3662097292	-0.45228
C	-0.0713443148	 0.1122339887	-0.1543368176	 0.012784
C	 1.2200667608	-0.6242163668	-0.6509655598	-0.079539
C	 2.0176183132	 0.0413529932	 0.511055209	-0.29696
C	 0.6599100567	-0.4396489177	 1.1037495682	 0.412168
C	 0.8633729185	-1.7708889429	 0.342224327	-0.270569
O	 0.168340877	-0.3303129477	 2.414516767	-0.242066
C	 0.9320367084	 0.2532720925	 3.3620623631	 0.140497
O	 0.5675628192	 0.3767943588	 4.4924157717	-0.274445
H	 0.5877573087	 2.2112572204	-0.1899744251	 0.11978
H	-0.6325835559	 1.789456714	-1.3921953637	 0.124316
H	-1.0885096725	 1.9582401996	 0.304406775	 0.133219
H	-0.9878571302	-0.4433890008	-0.3808232459	 0.076422
H	 1.5529721784	-0.7376252406	-1.6794036898	 0.09047
H	 2.9103137486	-0.493714936	 0.8442359095	 0.105057
H	 2.2016631099	 1.1137459845	 0.4488911947	 0.107448
H	-0.0365377508	-2.3499150423	 0.1239002595	 0.104187
H	 1.6901113425	-2.4023026392	 0.6751965765	 0.099226
H	 1.9084191946	 0.5943205538	 2.9757538497	 0.090286
34.7372	129.8968	159.798	192.1751	210.9047	326.6027	395.294	438.1913	469.1544	551.6372	591.2617	755.6557	768.4605	807.3882	836.1259	928.5532	956.0339	962.4812	1000.3048	1004.2848	1042.8731	1046.3753	1100.1785	1113.0145	1141.5856	1145.9641	1153.0938	1167.5594	1201.9885	1214.2306	1232.7079	1251.4251	1267.8865	1408.2831	1422.0495	1427.5835	1490.442	1494.7119	1511.5533	1544.7688	1861.3715	2989.4023	3038.5325	3046.6048	3062.8082	3071.9663	3098.0588	3116.2597	3133.6185	3141.5842	3151.6853
CC1C2CC1(C2)OC=O	C[C@H]1[C@H]2C[C@@]1(C2)OC=O	
InChI=1S/C7H10O2/c1-5-6-2-7(5,3-6)9-4-8/h4-6H,2-3H2,1H3	InChI=1S/C7H10O2/c1-5-6-2-7(5,3-6)9-4-8/h4-6H,2-3H2,1H3/t5-,6-,7-/m0/s1
