18
gdb 55937	4.1905	0.94617	0.86452	3.5217	73.61	-0.2318	0.0621	0.2939	1350.4409	0.149383	-435.259332	-435.250863	-435.249918	-435.293438	32.06	
N	-0.1350982077	 1.3705065281	 0.0849143426	-0.567435
C	 0.044102282	-0.0067435272	-0.0097580511	 0.452
O	 1.147178027	-0.5232558245	-0.0310754169	-0.398684
N	-1.1311782202	-0.7188946011	-0.0535183492	-0.339295
C	-1.1424499374	-2.1524261551	 0.0361156057	 0.062085
C	-1.5118148861	-2.8438989713	 1.4132308277	-0.245847
C	-2.7201956438	-3.4680168634	 0.716544054	-0.039952
N	-3.5283176226	-2.3285957741	 0.2095283166	-0.351176
C	-2.3714385369	-2.8274696184	-0.5802027259	-0.078976
H	 0.7105549407	 1.8788493318	-0.1254093487	 0.257593
H	-0.9627257316	 1.7633970737	-0.3385716308	 0.245165
H	-1.9981966182	-0.268615734	 0.1992235795	 0.247053
H	-0.1931566229	-2.5194978017	-0.3503286771	 0.118916
H	-0.7550917555	-3.5685124379	 1.7202471375	 0.112472
H	-1.7424953726	-2.171637579	 2.2430058477	 0.104587
H	-3.1819827737	-4.4286267762	 0.9048754274	 0.097532
H	-4.3688593105	-2.716263589	-0.2172699182	 0.230775
H	-2.5048470402	-3.1672905105	-1.6001646106	 0.093186
37.108	93.9012	109.778	231.5255	349.8093	373.3537	396.7936	465.9672	526.3241	554.6652	603.5033	630.7932	707.8153	778.2824	809.9666	833.8035	873.5771	902.6255	950.1357	982.2	995.5819	1004.2401	1057.6101	1093.2913	1097.3873	1119.2064	1149.004	1181.3914	1220.6905	1246.1	1286.4199	1306.9232	1329.1675	1373.4003	1392.4818	1473.6263	1532.7504	1626.8693	1797.0545	3068.657	3126.9773	3143.446	3184.1827	3202.4789	3478.2577	3571.2839	3615.201	3686.1213
NC(=O)NC1CC2NC12	NC(=O)N[C@H]1C[C@H]2N[C@@H]12	
InChI=1S/C5H9N3O/c6-5(9)8-3-1-2-4(3)7-2/h2-4,7H,1H2,(H3,6,8,9)	InChI=1S/C5H9N3O/c6-5(9)8-3-1-2-4(3)7-2/h2-4,7H,1H2,(H3,6,8,9)/t2-,3+,4-/m1/s1
