19
gdb 86454	1.89779	1.60818	0.91379	3.4064	72.44	-0.2578	0.0112	0.269	1263.2073	0.158903	-460.213097	-460.204175	-460.203231	-460.246842	33.455	
C	 0.031220674	 1.4897641152	 0.0876324537	-0.395598
C	-0.0382421058	-0.0174524046	-0.103082575	 0.129955
C	 0.7784010199	-0.5195122241	-1.2880159223	-0.213582
C	 0.7792858696	-2.0393679821	-1.3106438246	 0.100496
O	 1.5273156018	-2.4619504651	-2.439292679	-0.436021
C	 1.3861055212	-2.541805269	 0.000021771	-0.364434
C	 0.8780288138	-1.856565139	 1.2640011644	 0.398121
O	 0.969488631	-2.3589023408	 2.350594434	-0.320859
O	 0.3829365783	-0.6008586303	 1.1548185386	-0.241269
H	 1.0662563615	 1.8096652528	 0.2405870084	 0.129467
H	-0.3657185515	 2.0009359242	-0.7944351275	 0.121022
H	-0.5548448808	 1.7904879797	 0.9593246347	 0.135915
H	-1.0869173965	-0.3158447312	-0.2437135514	 0.093201
H	 0.3493543853	-0.1265737189	-2.2147874859	 0.117124
H	 1.8117163715	-0.1575709653	-1.2216491148	 0.113484
H	-0.2628406844	-2.3920478855	-1.3913367075	 0.074843
H	 1.53594296	-3.4247207721	-2.4535732988	 0.285268
H	 1.2525168186	-3.6176552616	 0.1422104882	 0.126748
H	 2.4675720326	-2.3563994225	-0.038878716	 0.146121
92.1121	96.7585	161.5778	229.2715	265.1414	284.0554	322.0369	407.5902	427.8584	458.4737	484.2646	530.0748	590.3901	635.3756	811.3817	880.0848	903.9561	925.1558	984.5857	993.0814	1061.8832	1085.9236	1108.8442	1133.1701	1160.9593	1177.7008	1241.544	1248.2119	1270.5516	1306.192	1318.8815	1385.0493	1388.8933	1399.0148	1413.1642	1442.6132	1463.864	1483.2674	1490.7777	1499.2874	1841.9879	2956.7204	3003.4288	3036.9651	3041.8717	3046.9005	3095.4719	3100.5941	3120.2191	3129.8966	3813.4236
CC1CC(O)CC(=O)O1	C[C@H]1C[C@@H](O)CC(=O)O1	
InChI=1S/C6H10O3/c1-4-2-5(7)3-6(8)9-4/h4-5,7H,2-3H2,1H3	InChI=1S/C6H10O3/c1-4-2-5(7)3-6(8)9-4/h4-5,7H,2-3H2,1H3/t4-,5+/m0/s1
