18
gdb 116979	3.64666	0.55087	0.49738	3.773	81.01	-0.2609	0.0135	0.2744	2186.3802	0.14462	-439.026917	-439.016285	-439.015341	-439.065413	34.845	
C	-0.2052986716	 0.7263173229	 0.9449718949	-0.220973
O	-0.227419422	-0.6354694872	 0.5805453295	-0.229405
C	-1.1721267014	-0.8956636386	-0.4377519939	-0.201492
C	-1.1665844231	-2.3110832524	-0.7792323104	-0.017961
C	-1.1812300965	-3.4760369563	-1.0808499371	 0.16992
C	-1.1969115473	-4.8939572942	-1.4200267959	-0.241664
O	-2.2398642298	-5.6297541962	-0.7714184214	-0.172356
C	-2.0953612299	-5.8068819459	 0.5608232515	 0.135275
N	-2.9771115144	-6.4372896942	 1.2048518747	-0.436782
H	 0.5453675703	 0.8370606271	 1.7301933603	 0.13394
H	 0.0678587493	 1.3728843425	 0.0959258289	 0.107292
H	-1.1801418206	 1.0621472943	 1.3326185598	 0.108354
H	-2.1852886906	-0.6007067474	-0.1126857749	 0.123285
H	-0.9467824491	-0.2973647526	-1.3381526016	 0.11981
H	-1.3819738938	-5.0318850865	-2.4888247892	 0.155073
H	-0.2202130204	-5.3451903978	-1.1962367954	 0.139871
H	-1.1773306815	-5.3630790822	 0.9675991013	 0.097465
H	-2.7156257575	-6.4921203056	 2.1871131888	 0.230348
25.1764	49.8379	73.7982	86.623	103.8433	157.622	230.1674	276.6778	305.293	340.4252	374.7012	465.6332	539.3492	670.2695	810.0628	822.3861	950.9246	979.2106	1022.7458	1028.3817	1040.6948	1112.068	1140.8145	1175.7283	1182.4608	1220.576	1242.2948	1255.6305	1315.8939	1392.2816	1410.0383	1428.099	1477.281	1481.0166	1484.8103	1492.99	1515.2087	1749.4277	2370.0021	2946.403	2964.8235	2971.2003	3012.3524	3015.2801	3036.4064	3092.0289	3123.4471	3518.3389
COCC#CCOC=N	COCC#CCO[CH][NH]	
InChI=1S/C6H9NO2/c1-8-4-2-3-5-9-6-7/h6-7H,4-5H2,1H3	InChI=1S/C6H9NO2/c1-8-4-2-3-5-9-6-7/h6-7H,4-5H2,1H3
