23
gdb 40689	3.14428	0.94701	0.79416	0.0497	91.3	-0.2363	0.0816	0.3179	1532.5805	0.206101	-351.11217	-351.10301	-351.102066	-351.147044	35.255	
C	-0.4836580133	 1.3833212557	-0.3291074875	-0.277496
C	 0.9437470561	 1.5254323108	 0.1401450997	-0.266884
C	 0.3074224788	 0.1588041923	 0.0641834401	 0.032007
C	-0.037775711	-0.5845189048	 1.3160580964	-0.013272
C	-0.652469978	-1.9651063097	 1.2615661017	-0.326273
C	 0.7498377952	-1.7868685675	 1.7987834848	-0.013276
C	 1.9351751034	-2.3260801062	 1.0618232667	 0.032005
C	 3.3288601988	-2.1153633733	 1.6018159836	-0.26688
C	 2.7100340174	-3.4916733844	 1.628317167	-0.277501
H	-1.272503879	 1.7096006359	 0.3410924023	 0.108865
H	-0.7015679851	 1.5443014766	-1.3792819533	 0.107522
H	 1.7048774205	 1.7845152039	-0.5876525641	 0.107978
H	 1.1129028567	 1.9473082836	 1.1256190257	 0.108639
H	 0.635214071	-0.4662356158	-0.7613128034	 0.076557
H	-0.4118660887	 0.0636976953	 2.1061434709	 0.073119
H	-1.4544725084	-2.2148955609	 1.9479450467	 0.105296
H	-0.7516971993	-2.423493201	 0.2817405562	 0.106912
H	 0.8503242757	-1.8631198785	 2.8797326892	 0.073119
H	 1.8440976161	-2.3120063972	-0.020338397	 0.076559
H	 4.1333296381	-1.922582034	 0.9005335475	 0.107978
H	 3.4283506565	-1.5869515556	 2.5444899018	 0.10864
H	 2.3941324029	-3.887085996	 2.5883999236	 0.108866
H	 3.0897098655	-4.2429876391	 0.9444759813	 0.107523
46.7291	60.3414	121.9607	176.8038	259.8102	279.0705	304.4322	369.1355	465.4011	572.4988	733.3107	738.5421	794.0125	804.6232	820.9216	822.5036	839.0692	901.7447	906.0666	940.5193	948.8679	984.0313	995.3464	1021.8648	1055.8958	1056.5938	1067.3108	1069.5037	1074.1202	1077.2968	1117.713	1136.7545	1140.3543	1196.1148	1198.2966	1203.2181	1221.1465	1227.4959	1233.6613	1262.6064	1316.9258	1327.7322	1443.6036	1456.1566	1469.1643	1469.386	1493.4136	1505.9508	1512.919	3113.5306	3120.7251	3124.8337	3126.8092	3127.1065	3131.5575	3132.6574	3141.2186	3152.5554	3204.4305	3204.54	3206.1928	3220.1055	3220.5667
C1CC1C1CC1C1CC1	C1CC1[C@H]1C[C@H]1C1CC1	
InChI=1S/C9H14/c1-2-6(1)8-5-9(8)7-3-4-7/h6-9H,1-5H2	InChI=1S/C9H14/c1-2-6(1)8-5-9(8)7-3-4-7/h6-9H,1-5H2/t8-,9+
