13
gdb 5151	5.86879	1.25331	1.12638	3.5286	63.12	-0.2412	0.0009	0.2421	999.3313	0.096921	-361.502015	-361.49523	-361.494286	-361.534033	24.317	
N	-0.1507611008	-1.1024593759	-0.5481385137	-0.306093
C	-0.079920027	 0.0016981449	-0.2160477568	 0.266875
C	 0.0103497518	 1.4079022809	 0.1907814334	-0.460463
C	 1.4021131434	 1.9683628446	 0.0747404589	 0.251
C	 2.1306016179	 2.5377187407	 1.0714502888	-0.093279
O	 3.3330716291	 2.9585494861	 0.6055130383	-0.137021
C	 3.3751658017	 2.646796428	-0.7170762742	 0.013959
C	 2.2242493673	 2.0408011601	-1.1018565513	-0.276378
H	-0.6928109814	 1.9796464923	-0.4281482229	 0.164783
H	-0.3457925393	 1.4924550126	 1.2228864597	 0.159978
H	 1.9404130966	 2.7113066223	 2.1180662861	 0.143495
H	 4.2815714698	 2.9173076026	-1.2325530515	 0.145127
H	 1.9831094208	 1.6769752708	-2.0884303848	 0.128016
40.7823	108.9066	282.9376	313.5128	382.1641	476.6339	623.3382	626.2485	732.7001	746.9314	795.1869	839.4807	892.8469	925.2773	936.81	994.4205	1057.3936	1107.5486	1198.3798	1218.9303	1271.2744	1283.6629	1338.8476	1415.5189	1457.7383	1539.1318	1636.6646	2364.922	3032.6378	3081.034	3257.8748	3274.1354	3289.3539
N#CCC1=COC=C1	N#CCc1cocc1	
InChI=1S/C6H5NO/c7-3-1-6-2-4-8-5-6/h2,4-5H,1H2	InChI=1S/C6H5NO/c7-3-1-6-2-4-8-5-6/h2,4-5H,1H2
