22
gdb 121752	4.80168	0.61513	0.59627	1.7762	80.76	-0.2228	0.0173	0.2401	1998.914	0.192239	-441.518229	-441.507145	-441.506201	-441.556166	38.175	
C	-0.1364348009	 1.1951266727	 0.5562883889	-0.386886
C	-0.5355876632	-0.2757194954	 0.4951597975	-0.1078
N	-1.0234786492	-0.6222291428	-0.8424625471	-0.267893
C	-1.4699731489	-1.9929289814	-0.9644033012	-0.290429
C	-2.8019570563	-2.2917730081	-0.2736438347	 0.43195
O	-3.5773386137	-1.4495675974	 0.1082201854	-0.364704
O	-3.0181306704	-3.6154128693	-0.1805026246	-0.239734
C	-4.2768419192	-4.0133421337	 0.4031314869	-0.041779
C	-4.3115225015	-5.5288548403	 0.4327026126	-0.390882
H	 0.2741063406	 1.4453472626	 1.5390398003	 0.113404
H	 0.6136691105	 1.4242332346	-0.2062029063	 0.124217
H	-1.0031711414	 1.8436228304	 0.3847681458	 0.117082
H	 0.34086447	-0.9049852631	 0.6995270048	 0.097431
H	-1.2747237375	-0.4902804688	 1.2854114428	 0.093079
H	-1.8060078817	-0.0131156943	-1.0662623477	 0.222774
H	-1.5999440043	-2.2536900698	-2.0237191482	 0.130141
H	-0.7070426688	-2.6759977195	-0.5766144882	 0.130158
H	-4.3526881921	-3.5805609209	 1.4055182386	 0.123421
H	-5.0917985693	-3.5948533412	-0.1960609363	 0.121797
H	-4.2317214413	-5.9420934572	-0.5767318732	 0.130327
H	-3.4882513278	-5.9264955618	 1.0327990937	 0.130402
H	-5.2539733537	-5.8700982852	 0.8713076404	 0.123923
31.2036	63.131	66.1474	98.8939	148.6976	156.0798	247.9327	256.496	270.0501	294.0704	335.5066	395.8788	527.6973	577.9413	697.4176	779.4062	806.7348	822.4656	879.8606	900.8256	931.3182	997.9558	1043.9442	1057.6327	1134.8405	1139.3835	1155.6595	1182.3693	1188.7538	1224.3978	1278.7186	1290.7181	1320.7951	1362.0394	1393.7489	1400.4858	1415.9362	1423.6053	1455.2766	1485.6586	1486.4048	1496.0971	1499.0379	1517.9446	1519.5296	1521.4657	1810.9314	2963.2194	3022.1426	3028.9575	3035.5751	3046.2978	3051.7131	3082.6771	3089.5805	3101.3705	3117.9455	3120.4175	3126.241	3505.841
CCNCC(=O)OCC	CCNCC(=O)OCC	
InChI=1S/C6H13NO2/c1-3-7-5-6(8)9-4-2/h7H,3-5H2,1-2H3	InChI=1S/C6H13NO2/c1-3-7-5-6(8)9-4-2/h7H,3-5H2,1-2H3
