20
gdb 78594	2.67003	1.60747	1.24316	1.523	79.69	-0.1979	0.0735	0.2714	1086.4244	0.17021	-403.077955	-403.069277	-403.068333	-403.110605	33.764	
C	-0.1226911891	 1.5479228244	 0.0402492928	-0.332927
N	 0.0903618259	 0.102158003	 0.0241440745	-0.071008
C	 0.6558251613	-0.5481076236	-1.1465686845	-0.073255
C	 2.2097589571	-0.5887006988	-1.0332407145	-0.187941
C	 2.5603216716	 0.0185267125	 0.3041856716	 0.151369
O	 2.8698974306	 1.3953028794	 0.3310856319	-0.438669
C	 1.1771400113	-0.5308932217	 0.809964514	-0.159984
C	 1.3160661801	-1.6139615979	-0.3398655629	 0.33549
C	 1.2724355283	-3.1053028433	-0.3490865362	-0.530524
H	 0.734234621	 2.1394097596	-0.2996331552	 0.128883
H	-0.9900621591	 1.7730051206	-0.5907547713	 0.108687
H	-0.3733893387	 1.8540183241	 1.0620008697	 0.106636
H	 0.1454243214	-0.6147852678	-2.1004949049	 0.090763
H	 2.8570268168	-0.7432917395	-1.8874368175	 0.083111
H	 3.3612552816	-0.570261249	 0.7747657275	 0.070364
H	 3.1276483671	 1.6319607717	 1.2277638159	 0.279209
H	 0.989533834	-0.6990845362	 1.8711363501	 0.064612
H	 0.3265677517	-3.4782976591	 0.0590607049	 0.130033
H	 1.3685960228	-3.4866388283	-1.3714012799	 0.124649
H	 2.0873940143	-3.5390232399	 0.2418144642	 0.120501
151.4338	172.1762	203.129	222.0731	242.1388	256.1146	268.5055	330.817	408.3251	544.987	600.2448	660.1851	693.2077	733.8821	794.9773	864.9754	896.2947	924.559	930.5387	963.0866	994.7161	1015.6957	1034.9231	1088.4303	1112.9131	1116.4145	1159.793	1165.865	1173.9983	1184.4186	1217.8847	1249.2108	1266.6295	1285.6632	1348.9399	1411.0573	1431.5602	1446.2089	1470.9867	1483.8701	1485.556	1497.5535	1512.9163	2996.0779	3018.3782	3023.6125	3083.8639	3085.6562	3091.527	3094.0489	3107.3901	3181.2879	3198.4858	3816.54
CN1C2C3C(O)C1C23C	CN1[C@H]2[C@H]3[C@@H](O)[C@@H]1[C@@]23C	
InChI=1S/C7H11NO/c1-7-3-4(9)6(7)8(2)5(3)7/h3-6,9H,1-2H3	InChI=1S/C7H11NO/c1-7-3-4(9)6(7)8(2)5(3)7/h3-6,9H,1-2H3/t3-,4-,5+,6-,7-/m1/s1
