16
gdb 67543	2.51166	1.79932	1.50515	4.883	68.	-0.2327	0.018	0.2507	927.4258	0.124492	-437.851977	-437.844576	-437.843632	-437.883465	29.479	
O	-0.0313124533	 1.4202277824	 0.0394997047	-0.468314
C	 0.0323558216	 0.0417958513	-0.0186883762	 0.289585
C	 1.1997257869	-0.6610480775	 0.7361091756	-0.136252
C	 1.0916449692	-2.1585824398	 0.7287492107	-0.303442
C	 1.5619400874	-1.4658863536	-0.5168235278	-0.064435
C	 0.3844225931	-0.8020837408	-1.2899895033	-0.074955
N	-0.9511557987	-1.3879994616	-1.1886969329	-0.31866
C	-1.3391838184	-0.7039294371	-0.0436228155	 0.355948
O	-2.3342427199	-0.7417511805	 0.6237834765	-0.349428
H	 0.8636018724	 1.7696604654	 0.1156668881	 0.288397
H	 1.8373082265	-0.1346520385	 1.4379900782	 0.09458
H	 1.8687169478	-2.6705443466	 1.2873826069	 0.120399
H	 0.1243375123	-2.6500071949	 0.7679893397	 0.130421
H	 2.5379700567	-1.6523522719	-0.94725117	 0.093249
H	 0.6261216776	-0.331451947	-2.2426193437	 0.093919
H	-1.3324156911	-2.2419868293	-1.5710004611	 0.248989
127.5559	222.5672	263.692	266.2933	326.3035	361.1747	455.1247	514.3076	559.2969	680.0305	692.3282	734.0794	756.1302	800.0104	849.6251	925.9897	936.4859	951.5031	975.0379	1004.2767	1034.8159	1052.5253	1084.3448	1090.6202	1099.2514	1176.7631	1189.7685	1247.3047	1285.6991	1301.5282	1339.6034	1346.7959	1406.3596	1488.1269	1894.4336	3118.333	3125.5066	3169.5747	3187.2795	3208.6802	3597.9039	3798.7003
OC12C3CC3C1NC2=O	O[C@]12[C@H]3C[C@H]3[C@H]1NC2=O	
InChI=1S/C6H7NO2/c8-5-6(9)3-1-2(3)4(6)7-5/h2-4,9H,1H2,(H,7,8)	InChI=1S/C6H7NO2/c8-5-6(9)3-1-2(3)4(6)7-5/h2-4,9H,1H2,(H,7,8)/t2-,3+,4-,6-/m1/s1
