18
gdb 49940	5.84008	0.73039	0.6832	3.7715	80.66	-0.2425	0.0227	0.2652	1598.6596	0.14636	-401.923633	-401.914259	-401.913315	-401.959609	32.816	
O	 0.032277032	 0.2482981336	-0.8687212067	-0.331869
C	 0.0887411061	 1.3832233109	-0.4394026702	 0.130358
N	 1.2022678864	 1.9530119981	 0.0670952974	-0.033749
C	 2.5350639507	 1.3920935533	 0.2737255973	-0.196935
C	 2.9503560119	 2.7453894172	 0.9286890685	 0.002486
C	 4.0564273743	 3.5204091405	 0.2040690354	-0.371284
C	 4.229519308	 4.8686905937	 0.732129684	 0.294848
C	 4.3412612395	 5.9747661283	 1.1889593512	-0.437282
C	 1.4951133079	 3.2506461401	 0.6810940788	-0.191711
H	-0.7769161993	 2.0778885427	-0.4210774376	 0.067702
H	 2.5474118568	 0.5174401367	 0.9316656668	 0.125128
H	 3.0568651075	 1.1381365827	-0.6561915158	 0.121432
H	 3.1935440354	 2.6575089445	 1.9883795495	 0.10063
H	 5.0000024548	 2.9652776224	 0.2841407802	 0.13832
H	 3.8218211567	 3.571299533	-0.8677311532	 0.137044
H	 4.4547412402	 6.954479965	 1.5826566636	 0.201105
H	 1.4172633674	 4.1046533204	-0.0015274017	 0.122863
H	 0.9129156438	 3.464109167	 1.5836648625	 0.120913
24.7608	64.0992	81.6936	137.5761	182.4647	302.5487	331.5418	354.9816	368.3024	495.21	551.246	629.4205	649.7371	777.5082	821.6817	880.0947	893.9955	938.3155	959.9301	1029.8706	1035.5301	1066.7316	1130.8184	1140.1103	1169.4234	1192.4063	1244.0576	1266.8529	1290.1903	1316.5148	1335.5018	1377.5261	1404.0314	1452.967	1470.9627	1508.0777	1526.4934	1790.5489	2239.5499	2917.4064	3015.8329	3027.9765	3036.1356	3048.596	3073.0395	3078.9358	3107.4734	3506.017
O=CN1CC(CC#C)C1	O=CN1CC(CC#C)C1	
InChI=1S/C7H9NO/c1-2-3-7-4-8(5-7)6-9/h1,6-7H,3-5H2	InChI=1S/C7H9NO/c1-2-3-7-4-8(5-7)6-9/h1,6-7H,3-5H2
