23
gdb 87125	2.47071	1.23426	1.14327	1.897	81.42	-0.253	0.0783	0.3313	1263.4026	0.201615	-425.428011	-425.417159	-425.416215	-425.462959	41.192	
C	 0.0993410036	 1.422824063	-0.3442574183	-0.431392
C	 0.1404365655	-0.0405435546	 0.0094764444	 0.028791
O	 1.4432314613	-0.6604699156	 0.1100460201	-0.32964
C	 0.6071964529	-0.6119760194	 1.2873697922	 0.350459
C	 1.1288597001	 0.2567721456	 2.4103789443	-0.483329
C	 0.074461758	-2.01441708	 1.6773373468	 0.297006
C	 1.0869469421	-2.7577848877	 2.5666459541	-0.427613
C	-1.2911722693	-1.9123664402	 2.3616461943	-0.40182
O	-0.1342379417	-2.7733974277	 0.4904217874	-0.467279
H	 0.845325106	 2.0070631036	 0.1971709378	 0.127469
H	 0.2869269102	 1.5509646389	-1.4155701275	 0.131465
H	-0.8927759409	 1.8352758144	-0.1301688176	 0.124684
H	-0.5690288073	-0.6551117163	-0.5434215066	 0.101697
H	 1.4119047166	 1.2475631502	 2.0535877278	 0.125815
H	 0.3728850382	 0.379131595	 3.1923022067	 0.125163
H	 2.0137751303	-0.1956641261	 2.8663647614	 0.134371
H	 1.1942139676	-2.2982476499	 3.553404226	 0.110658
H	 0.7489137696	-3.7884886256	 2.7013111026	 0.122432
H	 2.0726984568	-2.7816113213	 2.0898707579	 0.119116
H	-2.0042289869	-1.3883200401	 1.7194116302	 0.118669
H	-1.6792754606	-2.9171247788	 2.5514746987	 0.125769
H	-1.2258345139	-1.3859506312	 3.3177280467	 0.112069
H	 0.6392113618	-2.5989001762	-0.0651285297	 0.28544
76.526	135.8446	153.6689	171.2576	213.8301	226.5747	259.268	285.807	313.4285	327.1866	363.3953	408.4279	439.5114	479.5323	511.1593	537.3825	577.1122	645.0235	768.6248	834.3743	883.7336	923.6439	927.3918	975.3438	1001.0417	1011.1957	1050.4287	1090.1321	1131.7464	1140.4418	1173.4659	1207.359	1221.8269	1270.8013	1339.9919	1386.1756	1399.2682	1404.5557	1416.9761	1420.67	1455.1036	1474.1367	1477.6198	1483.5152	1490.1456	1498.0756	1501.1356	1506.9752	1518.3526	3036.7999	3039.7153	3045.8126	3051.8273	3098.7268	3107.4876	3112.0252	3115.594	3118.5095	3122.4224	3124.8614	3135.6066	3145.8549	3734.4255
CC1OC1(C)C(C)(C)O	C[C@H]1O[C@]1(C)C(C)(C)O	
InChI=1S/C7H14O2/c1-5-7(4,9-5)6(2,3)8/h5,8H,1-4H3	InChI=1S/C7H14O2/c1-5-7(4,9-5)6(2,3)8/h5,8H,1-4H3/t5-,7+/m1/s1
