20
gdb 120976	3.94082	1.00255	0.9703	2.5417	74.75	-0.2238	0.0866	0.3104	1283.4775	0.172232	-440.251979	-440.243673	-440.242729	-440.285513	31.702	
O	-0.0177347913	 1.0820205045	 0.3409904097	-0.423208
C	-0.046622214	-0.3039957148	 0.0768846841	-0.049642
C	-1.4679581331	-0.7648391326	-0.2559120615	-0.170772
N	-2.0134638783	 0.0584288684	-1.3447831482	-0.089124
C	-1.5943469004	-0.3755361641	-2.6929579221	-0.21143
C	-2.8114614154	-1.0446637622	-3.3051025965	 0.046059
O	-3.4139917158	-2.0109546287	-2.4341823988	-0.250194
C	-3.972041452	-0.6914842347	-2.4854691152	 0.045359
C	-3.4813745926	 0.2010897268	-1.3608790816	-0.210433
H	-0.6323318877	 1.4581790831	-0.3062153458	 0.275832
H	 0.6400768785	-0.5689123279	-0.7461369062	 0.077347
H	 0.3101291736	-0.8265840016	 0.9716558119	 0.102265
H	-1.4896967319	-1.8410740062	-0.4846587418	 0.102584
H	-2.0914255828	-0.5980020723	 0.6277025012	 0.107474
H	-1.302449388	 0.4805414818	-3.3174569567	 0.106667
H	-0.7309798272	-1.0439689185	-2.6266383742	 0.119826
H	-2.8657170397	-1.256160165	-4.3697552599	 0.099277
H	-4.9830102225	-0.6095404981	-2.8757846284	 0.099234
H	-3.901760031	-0.0656591267	-0.3877830319	 0.118089
H	-3.7752146185	 1.2385706188	-1.5787971579	 0.104792
67.6182	76.0696	149.4619	234.548	308.5804	367.5829	410.4263	425.1752	516.0137	545.9626	676.4304	698.3636	821.4939	837.0798	870.9851	884.9408	906.2906	950.7599	955.473	989.7849	1018.1001	1042.7914	1066.9539	1098.9837	1115.6975	1143.1494	1168.0108	1215.2609	1230.4272	1255.1718	1286.9599	1312.5008	1314.4715	1334.3429	1356.3267	1372.3885	1391.2453	1444.7554	1450.4702	1483.901	1490.9329	1504.9248	1514.3458	2949.4971	2993.4817	2997.9363	3009.2083	3061.2133	3080.7948	3085.6639	3095.3266	3147.2546	3160.1553	3715.2912
OCCN1CC2OC2C1	OCCN1C[C@H]2O[C@H]2C1	
InChI=1S/C6H11NO2/c8-2-1-7-3-5-6(4-7)9-5/h5-6,8H,1-4H2	InChI=1S/C6H11NO2/c8-2-1-7-3-5-6(4-7)9-5/h5-6,8H,1-4H2/t5-,6+
