13
gdb 128897	4.69251	1.09172	0.89049	3.3674	69.34	-0.2533	-0.0901	0.1632	1185.954	0.090695	-411.807987	-411.800674	-411.79973	-411.841227	25.748	
N	-0.8984297081	-0.0771169184	-1.4060413611	-0.297947
C	-0.390654153	 0.4273149427	-0.4997315408	 0.273587
C	 0.2595944862	 1.0685676711	 0.6391569681	-0.43614
C	 1.5559125263	 1.7846378585	 0.3070909048	 0.320321
C	 2.1149108546	 1.8488253556	-0.9723269386	-0.016981
N	 3.2567146693	 2.4930780902	-1.2030637235	-0.166767
N	 3.8723539369	 3.0863608646	-0.1857659624	-0.177204
C	 3.3055895364	 3.0011716638	 1.0177960584	 0.103195
N	 2.1671818589	 2.3757778051	 1.3266439197	-0.286888
H	-0.4311704168	 1.7882469799	 1.0934540848	 0.18956
H	 0.4626008359	 0.3175558321	 1.4113060939	 0.189556
H	 1.6463099508	 1.3789601961	-1.830557397	 0.159261
H	 3.8356522027	 3.4973245187	 1.8254936136	 0.146448
25.6734	126.2057	168.9078	328.3598	363.9099	373.1316	457.0664	480.6761	634.5645	694.764	797.2861	847.6169	903.2381	970.0762	979.4748	1003.0008	1036.5365	1080.9528	1147.8324	1219.4669	1240.6096	1297.3519	1316.2299	1354.5084	1440.1655	1483.5351	1558.3273	1591.7263	2371.2224	3049.3279	3083.5048	3187.5281	3197.5215
N#CCC1=CN=NC=N1	N#CCc1cnncn1	
InChI=1S/C5H4N4/c6-2-1-5-3-8-9-4-7-5/h3-4H,1H2	InChI=1S/C5H4N4/c6-2-1-5-3-8-9-4-7-5/h3-4H,1H2
