16
gdb 14918	4.74763	1.52899	1.22772	1.9792	67.03	-0.2651	0.0357	0.3009	969.5627	0.130732	-383.699595	-383.692384	-383.69144	-383.730904	27.631	
C	-0.0040443116	-1.1747141234	-0.0418763001	-0.390186
C	 0.02233058	 0.0217793125	 0.0367723789	 0.295502
C	 0.0277822849	 1.4815669541	 0.0873707278	 0.028749
O	-0.6538104736	 1.8987304012	 1.2479137176	-0.247142
C	-0.7165207286	 3.3199254679	 1.3222114975	-0.073525
C	 0.6904255699	 3.9196274423	 1.281019698	-0.207312
C	 1.4226396419	 3.3556259166	 0.0617570823	-0.073525
O	 1.3624982222	 1.9323803239	 0.059851613	-0.247142
H	-0.0206852358	-2.2351897893	-0.1001531496	 0.199023
H	-0.5010275998	 1.8898573573	-0.7985308263	 0.078977
H	-1.3199569604	 3.709929518	 0.4845022606	 0.091286
H	-1.2377846062	 3.5540288566	 2.2533323553	 0.116604
H	 0.6422752439	 5.0130472525	 1.2302736654	 0.100578
H	 1.2312311074	 3.6404980835	 2.1909318065	 0.120223
H	 0.9725639881	 3.7481867874	-0.8663178852	 0.091286
H	 2.4836011477	 3.6161366688	 0.0605833581	 0.116604
118.8605	154.2405	259.0434	274.036	376.9281	440.464	450.7202	529.1406	574.0381	642.2376	652.6592	674.6697	864.4844	899.5089	924.8528	944.3879	965.0734	1020.5323	1065.9828	1069.4298	1150.3037	1172.5304	1238.0395	1260.4189	1304.1948	1367.9751	1370.8101	1405.7188	1406.8971	1416.7629	1468.9085	1494.297	1503.8469	2259.7845	2888.7421	2959.9945	2967.0275	3045.4442	3093.6905	3099.6545	3104.2055	3504.2265
C#CC1OCCCO1	C#CC1OCCCO1	
InChI=1S/C6H8O2/c1-2-6-7-4-3-5-8-6/h1,6H,3-5H2	InChI=1S/C6H8O2/c1-2-6-7-4-3-5-8-6/h1,6H,3-5H2
