20
gdb 27523	5.2651	0.89365	0.81739	1.7624	88.46	-0.1853	0.0458	0.2312	1466.8237	0.171916	-366.043605	-366.034663	-366.033719	-366.078744	33.501	
C	 0.1650726266	 1.5241272474	 0.058966888	-0.50104
C	 0.0408729511	 0.0389906179	-0.0343531685	 0.336644
C	 0.0434319054	-0.8049057409	-1.1232783215	-0.356313
C	-0.1080483275	-2.1476816887	-0.6614660015	 0.317752
C	-0.1990158768	-2.077056745	 0.7131535923	-0.20942
N	-0.1075108711	-0.7530015252	 1.0775209798	-0.301513
C	-0.1537748238	-3.352842023	-1.5214148737	-0.094634
C	 0.4554959303	-4.6675119061	-1.0761916627	-0.262596
C	-1.0388417104	-4.5356147305	-1.1815962347	-0.262608
H	 1.0387371534	 1.8329079582	 0.6472248713	 0.12357
H	 0.275788975	 1.9496507734	-0.9409746668	 0.136796
H	-0.7170630786	 1.9879340116	 0.5187846829	 0.123648
H	 0.1436709742	-0.4958485716	-2.1537594019	 0.083383
H	-0.3197371799	-2.8472707682	 1.4582220134	 0.108823
H	-0.1443052161	-0.414071376	 2.0228902466	 0.252521
H	-0.0595311272	-3.1311990757	-2.5800663543	 0.073576
H	 0.9736915488	-5.2709774846	-1.8139377006	 0.106674
H	 0.9009531905	-4.6917564236	-0.0873238045	 0.10903
H	-1.6150429053	-4.4696944711	-0.2647936477	 0.10903
H	-1.5463952486	-5.0485455986	-1.9916931861	 0.106676
14.8077	92.7825	147.6242	157.3411	243.9978	292.8225	406.3082	408.9772	461.2855	595.0845	641.8656	668.4029	693.9831	709.6054	791.005	802.4217	815.3626	900.085	915.3959	975.8049	986.267	1013.3769	1056.0639	1061.4764	1070.1788	1081.9362	1132.9634	1138.2154	1159.4465	1202.149	1225.7909	1264.5302	1303.4357	1382.1112	1418.1004	1442.5794	1452.0343	1468.379	1480.4583	1501.4901	1504.9383	1554.4823	1633.5441	3013.3474	3055.7116	3121.9027	3125.9668	3130.3137	3149.8506	3205.3332	3222.4037	3234.1441	3255.2121	3679.456
CC1=CC(=CN1)C1CC1	Cc1cc(c[nH]1)C1CC1	
InChI=1S/C8H11N/c1-6-4-8(5-9-6)7-2-3-7/h4-5,7,9H,2-3H2,1H3	InChI=1S/C8H11N/c1-6-4-8(5-9-6)7-2-3-7/h4-5,7,9H,2-3H2,1H3
