15
gdb 25074	3.3949	1.68751	1.25511	4.0431	71.96	-0.1919	0.0196	0.2115	957.3972	0.115013	-416.793862	-416.787153	-416.786209	-416.824919	26.702	
O	-0.1484944194	-0.1058522506	 0.1292645298	-0.421347
C	-0.0490541487	 1.1011222857	 0.1511200106	 0.428377
N	-1.0853475336	 2.0529251198	 0.1608841071	-0.351223
C	-0.6186831017	 3.3733440385	 0.2838062824	-0.203616
C	 0.7245040928	 3.2770428658	 0.2510104495	 0.245095
C	 2.1097590688	 3.636361168	 0.7194322441	-0.213136
C	 2.4196510289	 2.783374867	 1.9457288382	-0.276462
C	 2.432774021	 2.1377430002	 0.5893248361	-0.008989
N	 1.0713293606	 1.9296205088	 0.087195493	-0.107382
H	-2.0384550341	 1.776994966	-0.0002827268	 0.26601
H	-1.2889770489	 4.2068854632	 0.4042851266	 0.138688
H	 2.7087593994	 4.4862139057	 0.4265021408	 0.116028
H	 3.3995640796	 2.9507499667	 2.3845727358	 0.126665
H	 1.6340700802	 2.5460757037	 2.6558509271	 0.134119
H	 3.2793584153	 1.6362502714	 0.1417700459	 0.127172
121.1556	179.7386	309.6522	338.0274	453.0532	485.3684	581.3005	657.9983	684.4036	700.5371	707.0526	751.8194	787.7411	819.9098	869.7574	928.7437	978.5765	999.0042	1042.1007	1060.9778	1083.4288	1088.0472	1100.7858	1176.4479	1223.2402	1273.5139	1281.9411	1325.1075	1363.4463	1379.4251	1472.8792	1680.6573	1837.7615	3121.8302	3211.1353	3215.9347	3227.2649	3281.4065	3683.6612
O=C1NC=C2C3CC3N12	O=C1N[CH][C]2[C@H]3C[C@H]3N12	
InChI=1S/C6H6N2O/c9-6-7-2-5-3-1-4(3)8(5)6/h2-4H,1H2,(H,7,9)	InChI=1S/C6H6N2O/c9-6-7-2-5-3-1-4(3)8(5)6/h2-4H,1H2,(H,7,9)/t3-,4+/m0/s1
