15
gdb 82690	2.90181	1.60418	1.23946	3.774	70.33	-0.2763	-0.0052	0.2711	989.1647	0.113706	-416.75723	-416.749925	-416.748981	-416.788934	27.96	
O	 0.1310793926	 1.4710654622	 0.2331607101	-0.424066
C	-0.0239492485	 0.0899605002	 0.0938321027	 0.066489
C	 0.1590363389	-0.7314437872	 1.374712705	-0.046403
C	-0.8366814215	-0.1589493096	 2.4014294044	-0.240978
C	-1.8831117208	-0.7402421323	 1.4678938903	-0.071936
N	-0.9375095855	-1.7333409594	 0.8715719996	-0.183041
C	-1.4182050542	-0.5438933025	 0.0531525359	 0.187842
C	-2.2738003003	-0.6726674418	-1.0822075473	 0.167292
N	-2.9480226467	-0.7263542297	-2.0211466305	-0.338973
H	 0.1077673775	 1.8819755942	-0.6369459319	 0.299187
H	 0.5810576586	-0.3249497233	-0.7211295803	 0.104958
H	 1.136447592	-1.1098579173	 1.6611165805	 0.101577
H	-0.8066540328	-0.7220005506	 3.3367364843	 0.124434
H	-0.8199001554	 0.9152347974	 2.5936332606	 0.132564
H	-2.9146967939	-1.0023093202	 1.6724457866	 0.121055
133.7743	157.8529	220.3653	251.8784	306.3851	428.9302	505.4402	539.5278	574.56	634.4024	738.0162	763.8858	810.6054	861.0473	892.5139	951.8422	973.5914	994.9247	1028.9318	1051.1291	1134.2293	1144.083	1169.8044	1197.5156	1221.5937	1243.7747	1272.9355	1284.0351	1323.5572	1389.8067	1439.4365	1486.8893	2348.9231	3044.2314	3076.2017	3136.0376	3161.7977	3192.0506	3824.5579
OC1C2CC3N2C13C#N	O[C@H]1[C@H]2C[C@@H]3N2[C@]13C#N	
InChI=1S/C6H6N2O/c7-2-6-4-1-3(5(6)9)8(4)6/h3-5,9H,1H2	InChI=1S/C6H6N2O/c7-2-6-4-1-3(5(6)9)8(4)6/h3-5,9H,1H2/t3-,4+,5+,6+,8?/m1/s1
