18
gdb 43629	3.65145	1.08066	1.04805	4.8582	72.38	-0.2463	0.0382	0.2845	1206.1934	0.148157	-439.085851	-439.077546	-439.076602	-439.119832	30.339	
O	 0.3169135949	 0.0257650727	-0.0712027713	-0.357193
C	 0.129569202	 1.2109504044	-0.0554781066	 0.439073
C	-1.0970425266	 2.1529321456	-0.0978410974	-0.401566
C	-0.0669153736	 3.3151033995	 0.0559698534	 0.014781
N	 0.9823141192	 2.2880869954	 0.0419395947	-0.322309
C	-0.0322220927	 4.3181996923	-1.0849657627	 0.139246
C	 1.3155381941	 5.0014571672	-1.4186082892	-0.301707
C	 1.1800123641	 4.2791260599	-2.7736540131	-0.054348
O	-0.0743700055	 3.6824959997	-2.3797952796	-0.285865
H	-1.629785618	 2.1435281479	-1.0490683801	 0.151421
H	-1.7907679707	 2.0211843251	 0.7334518036	 0.128748
H	-0.1375086706	 3.8521062238	 1.0107541475	 0.082935
H	 1.97454305	 2.3284872744	 0.2221604261	 0.247288
H	-0.8743754768	 5.0139575072	-0.9597328305	 0.081247
H	 1.2889336998	 6.0908179861	-1.4585334905	 0.117772
H	 2.1612672593	 4.6877418697	-0.8034751533	 0.102905
H	 1.0632662355	 4.9298758561	-3.6481018726	 0.106632
H	 1.9396904556	 3.519795093	-2.9907944584	 0.11094
53.7302	88.0356	91.6213	200.7529	250.3417	363.7609	381.914	501.9238	563.6856	620.102	687.1427	769.6257	802.041	838.7949	914.9747	937.765	948.7611	981.7151	988.9721	1029.4193	1041.1298	1093.5292	1116.7944	1132.1531	1167.1511	1178.4694	1202.4892	1215.2248	1251.6494	1262.5642	1284.4727	1353.7963	1370.4597	1383.5817	1392.6777	1451.7694	1490.1513	1532.2441	1900.1423	2998.9079	3024.5139	3027.395	3067.1951	3079.9705	3095.3764	3135.946	3159.7443	3608.9993
O=C1CC(N1)C1CCO1	O=C1C[C@@H](N1)[C@H]1CCO1	
InChI=1S/C6H9NO2/c8-6-3-4(7-6)5-1-2-9-5/h4-5H,1-3H2,(H,7,8)	InChI=1S/C6H9NO2/c8-6-3-4(7-6)5-1-2-9-5/h4-5H,1-3H2,(H,7,8)/t4-,5-/m1/s1
