20
gdb 90954	2.68387	1.72593	1.45207	1.392	78.67	-0.2228	0.0712	0.294	994.4849	0.172018	-403.094605	-403.086794	-403.08585	-403.126345	31.719	
C	-0.03055796	 1.4997621334	-0.0410273787	-0.517991
C	 0.047368071	 0.0000762689	-0.0222099356	 0.348609
C	 0.6191112224	-0.952085933	-1.0955875083	-0.276182
C	-0.0065496539	-1.8353881915	-0.0059616081	-0.041008
C	 0.6099008476	-0.9397128834	 1.1047655281	-0.052645
C	-0.3707471846	-0.8931455762	 2.2618446034	 0.081205
O	-0.1526032009	 0.2968553305	 3.0134256261	-0.438908
C	-1.6807169447	-0.8977979746	 1.4215265657	-0.212618
N	-1.2088769244	-0.8929741981	 0.018315092	-0.152145
H	 0.9723141655	 1.9294336237	-0.1350143137	 0.121103
H	-0.6310334188	 1.8406168445	-0.89053584	 0.123626
H	-0.4696757459	 1.8782099848	 0.8853090818	 0.136201
H	 0.106362609	-0.9483523466	-2.0591552914	 0.101943
H	 1.70564808	-0.9837188021	-1.1970179234	 0.091482
H	-0.1434445735	-2.9190044088	 0.0037475918	 0.073744
H	 1.6774078229	-0.9691580431	 1.3326316998	 0.068474
H	-0.2860240703	-1.7738322335	 2.9151523136	 0.062541
H	-0.7869703065	 0.313977442	 3.7364972294	 0.283418
H	-2.2987772249	-1.7856445389	 1.5908004676	 0.098441
H	-2.2859435401	-0.008522308	 1.6241091799	 0.100708
142.5716	197.856	215.7762	280.4071	284.314	356.3095	408.2595	470.3615	484.3736	638.0328	693.3008	707.5382	771.5229	816.2965	840.4946	870.3339	912.5631	937.9734	979.4807	987.7218	1008.3624	1033.9394	1045.0563	1079.4968	1104.7545	1117.1365	1138.5759	1161.3042	1200.3778	1212.108	1221.86	1232.1222	1248.4271	1294.2199	1310.2227	1331.6663	1354.2192	1406.6308	1426.7725	1482.6195	1484.8346	1496.3633	1501.8385	2990.4582	3038.313	3045.4566	3068.8329	3087.513	3093.8574	3100.8965	3104.4545	3126.8259	3140.5295	3821.761
CC12CC3C1C(O)CN23	C[C@@]12C[C@H]3[C@@H]1[C@@H](O)CN23	
InChI=1S/C7H11NO/c1-7-2-4-6(7)5(9)3-8(4)7/h4-6,9H,2-3H2,1H3	InChI=1S/C7H11NO/c1-7-2-4-6(7)5(9)3-8(4)7/h4-6,9H,2-3H2,1H3/t4-,5-,6+,7+/m0/s1
