19
gdb 117455	5.17639	0.61916	0.57984	4.1363	75.63	-0.246	0.0149	0.2608	1910.9911	0.158161	-456.409621	-456.399115	-456.398171	-456.448312	35.408	
C	 0.4507175484	 1.3059165089	 0.1893141686	-0.373634
C	-0.3858296845	 0.103120161	-0.2499861905	-0.149157
N	 0.1530665958	-0.5598161567	-1.4301511717	-0.3184
C	 0.7248810839	-1.7891499354	-1.3976755028	 0.412725
O	 0.8120491086	-2.4742446388	-0.3902996462	-0.382698
C	 1.2603855698	-2.2775004238	-2.7468279727	-0.251823
N	 1.8303416535	-3.5864867131	-2.5620781368	-0.274727
C	 2.4078962146	-4.2721471767	-3.5741612888	 0.152178
O	 2.4983250081	-3.8665991788	-4.7163287107	-0.334482
H	 1.468768593	 0.998285656	 0.4443874849	 0.135019
H	 0.5102228899	 2.0618417573	-0.6013900039	 0.114715
H	 0.0026345425	 1.7782835782	 1.0689372753	 0.125525
H	-0.4150304062	-0.6552218936	 0.5345652942	 0.1542
H	-1.4179339502	 0.4117165785	-0.4548237606	 0.112454
H	 0.1537067875	-0.0552093754	-2.303018694	 0.251245
H	 0.4484557224	-2.2992555278	-3.4859922096	 0.142186
H	 2.0089521954	-1.5721983047	-3.1318504748	 0.141368
H	 1.7768865769	-3.9485928792	-1.6191771172	 0.265801
H	 2.7942422505	-5.2565132261	-3.2444906029	 0.077503
18.361	25.635	62.4251	91.0197	126.7701	212.9566	261.6623	307.5383	323.8847	366.1003	446.9701	479.7847	596.9201	612.9122	665.5933	776.8587	838.3358	900.3416	948.1147	1012.0389	1036.2803	1046.0535	1088.0096	1123.9662	1174.2955	1224.0998	1236.4211	1249.8969	1319.2041	1360.5518	1396.1117	1412.8987	1422.3095	1485.6361	1493.0434	1497.3031	1502.8023	1515.105	1562.1761	1771.5111	1798.9511	2942.9788	3016.3977	3035.7523	3035.9928	3040.1249	3099.4342	3118.9035	3131.1912	3587.5662	3625.5795
CCNC(=O)CNC=O	CCNC(=O)CNC=O	
InChI=1S/C5H10N2O2/c1-2-7-5(9)3-6-4-8/h4H,2-3H2,1H3,(H,6,8)(H,7,9)	InChI=1S/C5H10N2O2/c1-2-7-5(9)3-6-4-8/h4H,2-3H2,1H3,(H,6,8)(H,7,9)
