18
gdb 61296	4.32912	0.7395	0.66701	2.1949	73.76	-0.2435	0.0132	0.2567	1609.8869	0.147884	-435.316493	-435.306693	-435.305749	-435.352166	35.217	
N	 0.7058631075	 1.3758248399	 0.2062264847	-0.512334
C	 0.0602055361	 0.0674634947	 0.0696456015	 0.005441
C	 0.3353981094	-0.6276492038	-1.2960736148	-0.348213
C	-0.002369253	 0.2423399077	-2.4187257617	 0.252843
N	-0.2744189031	 0.9759053082	-3.2697003553	-0.303603
C	 0.4848046057	-0.8661845161	 1.2143334421	-0.291791
C	-0.0455651144	-0.525487372	 2.6164691968	 0.366399
N	-0.0902228304	 0.7979716184	 2.9128966314	-0.508572
O	-0.3712725265	-1.405673253	 3.3905806443	-0.36193
H	 1.7128308134	 1.2894481277	 0.0906707285	 0.235941
H	 0.3777407687	 2.0138959782	-0.513330801	 0.256485
H	-1.0199891008	 0.2417149857	 0.1358475307	 0.119695
H	 1.39544769	-0.9012991991	-1.3674480845	 0.148822
H	-0.2413327836	-1.5557636329	-1.3742576028	 0.160667
H	 0.1510639322	-1.8871969973	 1.0167665044	 0.132862
H	 1.5826184116	-0.8973156942	 1.263724432	 0.120374
H	 0.181545337	 1.4841706178	 2.2192398755	 0.271336
H	-0.4292926498	 1.0697898501	 3.8208539782	 0.255579
41.0633	67.3139	112.4245	123.1175	238.7337	292.9672	305.4465	367.3821	397.8828	413.5423	429.2542	473.9109	545.4162	577.4398	656.5479	762.6981	848.0598	864.5599	878.4667	920.8378	958.651	1001.0983	1031.4531	1111.4212	1149.1031	1164.7027	1205.4225	1275.3988	1313.7143	1331.5089	1366.8513	1371.2146	1419.9856	1457.3478	1467.3015	1608.8842	1656.5481	1799.6757	2358.0705	3019.1389	3035.9986	3052.4141	3085.1172	3112.4752	3481.0119	3502.7557	3564.4514	3694.8853
NC(CC#N)CC(N)=O	N[C@@H](CC#N)CC(=O)N	
InChI=1S/C5H9N3O/c6-2-1-4(7)3-5(8)9/h4H,1,3,7H2,(H2,8,9)	InChI=1S/C5H9N3O/c6-2-1-4(7)3-5(8)9/h4H,1,3,7H2,(H2,8,9)/t4-/m0/s1
