16
gdb 50726	2.21204	1.73387	1.12841	2.6418	66.66	-0.2631	-0.0374	0.2258	1063.0485	0.124819	-475.035866	-475.027882	-475.026938	-475.069291	28.814	
N	 0.122174502	 1.2419133735	 0.3858688697	-0.506581
C	 0.1051952257	 0.0401051241	-0.0106612519	 0.357256
O	 1.2412673451	-0.6494529396	-0.3019799169	-0.246838
C	 1.1261015549	-1.8444710275	-1.0903336978	 0.014052
O	 0.0807166626	-2.6551206844	-0.6948850165	-0.217967
C	-1.1646454769	-1.9929399658	-0.8873073715	-0.120024
C	-1.2077182567	-0.7239428688	-0.0368669754	-0.178994
C	-1.6345648063	-1.0192973833	 1.4132068212	 0.155346
O	-2.1389706694	-2.0510752405	 1.7623298878	-0.229622
H	 1.080166037	 1.5972065777	 0.4088925807	 0.226077
H	 1.0222315476	-1.5439920715	-2.146292836	 0.099668
H	 2.059002263	-2.3877949542	-0.9364019583	 0.136319
H	-1.300907343	-1.7554420938	-1.952611725	 0.102481
H	-1.9427802281	-2.6857234909	-0.565003558	 0.146938
H	-1.9636627404	-0.0231804548	-0.4121307357	 0.141776
H	-1.4610964571	-0.1725284901	 2.1073282037	 0.120112
57.2641	99.7261	130.518	232.008	267.2832	393.2506	417.6762	462.0366	525.9448	634.7028	689.0005	748.8946	796.2032	875.803	911.5669	929.1571	962.115	1020.8966	1052.2203	1085.7776	1110.452	1156.384	1202.2444	1241.3744	1276.3166	1294.0969	1329.3276	1338.6624	1395.8541	1413.6479	1458.8823	1491.2887	1521.5821	1738.4417	1836.8392	2941.0687	2967.7691	3000.7278	3050.2258	3130.2419	3133.0002	3468.8508
N=C1OCOCC1C=O	[NH][C]1OCOC[C@H]1C=O	
InChI=1S/C5H7NO3/c6-5-4(1-7)2-8-3-9-5/h1,4,6H,2-3H2	InChI=1S/C5H7NO3/c6-5-4(1-7)2-8-3-9-5/h1,4,6H,2-3H2/t4-/m1/s1
