15
gdb 48114	3.19509	1.31662	1.03387	2.329	65.31	-0.2496	-0.0971	0.1525	1107.9111	0.110306	-457.729773	-457.721703	-457.720759	-457.763487	28.712	
O	-0.6994718408	 1.5683699636	 0.7764732481	-0.220399
C	 0.1538642465	 1.111053295	 0.0619154204	 0.085932
C	 1.2720643572	 1.9543213592	-0.5677125281	 0.295352
O	 2.0306838541	 1.4117981587	-1.3356320542	-0.271541
C	 1.3107718779	 3.4170772497	-0.2049756121	-0.141996
C	 1.5259752182	 3.8294708318	 1.306875198	-0.266405
C	 2.7813201018	 4.5856207486	 0.8511205876	 0.035613
O	 3.6440608446	 3.6219015619	 0.2408199705	-0.237478
C	 2.5958313637	 4.1812052584	-0.5526054376	 0.015369
H	 0.2049482615	 0.0403055841	-0.2283953015	 0.111269
H	 0.404385083	 3.8977093535	-0.5875114412	 0.119925
H	 0.7199306708	 4.4647513273	 1.6757818803	 0.123471
H	 1.7107426638	 3.0208201748	 2.0165338628	 0.122524
H	 3.2406425481	 5.4685483503	 1.2786757438	 0.114385
H	 2.8720998097	 4.661867113	-1.4826465667	 0.113979
45.0019	121.7408	130.9197	149.6723	250.3551	339.1334	443.654	523.2457	555.8716	636.713	745.8273	779.6731	844.1824	861.2456	913.2288	937.6116	974.9463	994.901	1010.9317	1035.8253	1070.7811	1132.6951	1166.7156	1198.3544	1228.3538	1241.2419	1272.3637	1343.7245	1362.8887	1390.9311	1476.1821	1803.3468	1820.5461	2924.9242	3065.9054	3082.9952	3143.6591	3191.55	3207.0517
O=CC(=O)C1CC2OC12	O=CC(=O)[C@H]1C[C@H]2O[C@@H]12	
InChI=1S/C6H6O3/c7-2-4(8)3-1-5-6(3)9-5/h2-3,5-6H,1H2	InChI=1S/C6H6O3/c7-2-4(8)3-1-5-6(3)9-5/h2-3,5-6H,1H2/t3-,5-,6+/m1/s1
