18
gdb 69463	3.83426	1.10795	0.99599	4.4939	74.16	-0.2269	0.0304	0.2573	1203.8568	0.148118	-439.099516	-439.091233	-439.090289	-439.132647	31.496	
O	-0.2321881651	 1.3725875251	-0.1102423763	-0.46736
C	-0.025328832	 0.0017803867	 0.0230137065	 0.385648
C	-0.1306398143	-0.8882173109	-1.1973202496	-0.373913
C	-1.1926236532	-0.9268878646	-0.1055211844	-0.041259
N	-1.0533530385	-1.9439517626	 0.897760836	-0.027245
C	 0.2809058672	-1.9113024107	 1.5066676428	-0.182682
C	 0.8013692397	-0.4874914589	 1.2099082382	-0.302002
C	-1.9924037041	-2.8596897065	 1.2388476717	 0.13743
O	-1.8416533447	-3.7211227334	 2.0826698977	-0.346309
H	 0.5378500686	 1.7510917091	-0.5488447968	 0.286317
H	-0.4189234111	-0.3914709659	-2.1174351006	 0.123577
H	 0.5359416861	-1.7361103768	-1.3170820564	 0.119998
H	-2.1960160784	-0.5739350053	-0.3082301152	 0.122134
H	 0.201884571	-2.1395921209	 2.570801611	 0.144578
H	 0.9226699516	-2.6789490054	 1.0575366353	 0.12025
H	 1.880273007	-0.4781650727	 1.0279170308	 0.105742
H	 0.5941580313	 0.1865239493	 2.0468392765	 0.125304
H	-2.9322496612	-2.7243139458	 0.6674035627	 0.069791
49.6391	167.5545	207.2348	249.5496	293.7162	331.5519	356.9506	388.6754	436.349	528.4023	578.9421	692.8175	729.4453	832.1173	845.828	919.7505	921.7174	969.0498	991.3037	997.7858	1029.1253	1040.979	1061.007	1089.2255	1191.2308	1206.3335	1239.5205	1257.3812	1266.2999	1308.6038	1319.2828	1370.8914	1393.7232	1423.131	1455.908	1484.7545	1502.1902	1523.9421	1787.205	2934.5433	3031.1732	3053.0811	3095.9662	3117.9594	3129.2868	3196.2871	3224.0478	3794.9156
OC12CC1N(CC2)C=O	O[C@]12C[C@H]1N(CC2)C=O	
InChI=1S/C6H9NO2/c8-4-7-2-1-6(9)3-5(6)7/h4-5,9H,1-3H2	InChI=1S/C6H9NO2/c8-4-7-2-1-6(9)3-5(6)7/h4-5,9H,1-3H2/t5-,6-/m1/s1
