18
gdb 88338	4.27494	0.82234	0.79373	0.5967	80.5	-0.2358	-0.0287	0.2072	1492.0875	0.147684	-435.269728	-435.260529	-435.259584	-435.304301	33.107	
C	-1.1839516464	 0.2780227331	 0.8609562463	-0.328155
N	-0.0479229738	-0.4212933488	 0.2625606307	-0.080999
C	 0.7754189563	 0.2812881971	-0.6927331426	-0.233168
C	 1.3299662294	-0.0792225596	 0.6524152399	-0.13688
C	 1.6217124481	 1.0408757862	 1.6051444063	 0.452103
O	 1.1059864008	 2.142464023	 1.546702714	-0.370904
N	 2.5393177422	 0.7089739356	 2.5866953171	-0.327776
C	 2.972230395	 1.588855909	 3.5666289721	 0.102238
N	 3.8160401817	 1.2067491483	 4.4353576464	-0.463061
H	-1.0154935045	 1.3470074844	 1.0296205502	 0.147742
H	-2.0393652286	 0.1475277093	 0.1913836087	 0.125555
H	-1.4265159401	-0.1982686191	 1.8159713289	 0.123227
H	 1.0942070022	-0.2844348994	-1.5644372868	 0.120464
H	 0.591405911	 1.3421837114	-0.8512743577	 0.137976
H	 1.9789314741	-0.9484150943	 0.7422798671	 0.090549
H	 2.9333894114	-0.2205100995	 2.6209001835	 0.265127
H	 2.5059909982	 2.5709939563	 3.4713278641	 0.141482
H	 4.028643473	 1.966487477	 5.079174252	 0.23448
44.8785	133.2352	149.4063	167.8456	197.2227	249.7076	275.3625	354.6299	398.2069	422.6398	505.093	641.25	707.2796	723.8144	805.5525	833.5821	876.5817	936.7329	1023.9961	1035.1289	1072.7229	1090.1456	1106.8848	1122.6261	1130.9383	1164.278	1179.33	1213.8669	1299.6535	1338.3576	1388.3224	1403.8248	1445.1864	1486.3928	1491.9291	1499.1693	1511.5519	1726.1857	1776.8476	3028.796	3097.0069	3102.8269	3108.0944	3118.02	3128.1798	3190.1672	3508.0083	3614.219
CN1CC1C(=O)NC=N	CN1C[C@H]1C(=O)NC=N	
InChI=1S/C5H9N3O/c1-8-2-4(8)5(9)7-3-6/h3-4H,2H2,1H3,(H2,6,7,9)	InChI=1S/C5H9N3O/c1-8-2-4(8)5(9)7-3-6/h3-4H,2H2,1H3,(H2,6,7,9)/t4-,8?/m0/s1
