20
gdb 112513	3.60645	0.94277	0.8501	3.6422	80.3	-0.277	0.0211	0.2981	1415.5236	0.170398	-403.158602	-403.149027	-403.148083	-403.193308	35.103	
C	 0.1566771319	 1.4812609483	 0.1701537383	-0.385634
C	-0.0521433735	-0.0277049155	 0.0039724519	-0.197045
C	 0.6590878668	-0.5842041989	-1.22167999	 0.028657
C	 2.2147319191	-0.5864759813	-1.2696705993	-0.249817
C	 2.14442564	-1.9626815728	-2.0003615463	-0.182027
C	 3.0763086377	-3.0131601242	-1.6411074479	 0.263152
N	 3.7714231881	-3.8812725731	-1.3217316081	-0.332465
C	 0.6786075585	-2.1217849597	-1.4470639416	 0.086534
O	 0.6313199028	-2.782964136	-0.2086202212	-0.418727
H	 1.2186109934	 1.7277596345	 0.2781929142	 0.1191
H	-0.2249899248	 2.0356283647	-0.6947566486	 0.112527
H	-0.3604999412	 1.8544099167	 1.0590703934	 0.117562
H	 0.3029791561	-0.5590429644	 0.8922942923	 0.119504
H	-1.124793917	-0.2454679325	-0.0749548477	 0.099459
H	 0.2699599675	-0.1078392531	-2.1298029665	 0.076397
H	 2.7215173214	 0.2193725163	-1.8021031989	 0.113985
H	 2.6480096063	-0.6921511977	-0.2731453578	 0.131577
H	 2.134301899	-1.8346730753	-3.0863776086	 0.122715
H	-0.0487126157	-2.5371061072	-2.1567666109	 0.07462
H	 0.9526023035	-3.684906769	-0.3245120468	 0.299928
65.5668	89.0082	124.6991	174.0192	217.8565	236.7184	294.292	334.1068	372.7227	405.7274	468.1671	547.5678	622.0135	701.8657	748.5884	788.8642	865.6041	918.4799	940.7507	959.241	976.9918	1043.5013	1050.9605	1082.9131	1136.3285	1145.9414	1157.4871	1223.9023	1226.8069	1250.7629	1279.1939	1290.7531	1328.3732	1334.6437	1347.5315	1398.3061	1412.7302	1417.355	1483.1711	1491.1463	1500.9367	1507.8037	2347.0487	3011.4912	3028.9174	3031.5264	3035.9622	3076.9233	3078.7125	3080.3312	3101.5393	3106.2143	3140.1352	3794.0824
CCC1CC(C#N)C1O	CC[C@H]1C[C@@H](C#N)[C@H]1O	
InChI=1S/C7H11NO/c1-2-5-3-6(4-8)7(5)9/h5-7,9H,2-3H2,1H3	InChI=1S/C7H11NO/c1-2-5-3-6(4-8)7(5)9/h5-7,9H,2-3H2,1H3/t5-,6-,7-/m0/s1
