16
gdb 127174	4.31327	1.06089	0.88698	1.4288	74.02	-0.2283	-0.0061	0.2222	1251.7644	0.125947	-434.105026	-434.096697	-434.095753	-434.139004	29.673	
C	-0.3900974553	 1.4068884036	-0.0361188609	-0.370507
N	-0.042314911	-0.0102689672	 0.0106155616	-0.18266
C	 0.2557291451	-0.5918124694	 1.2255663706	 0.14804
O	 0.2090026296	-0.0182491473	 2.289089483	-0.325531
C	-0.0312024318	-0.7677499221	-1.161753004	 0.462079
C	-0.3636435877	-2.0873254613	-1.409762609	-0.309973
C	-0.11783174	-2.2542347918	-2.7897481046	 0.006145
N	 0.3132116665	-1.1390066783	-3.3662120545	-0.222756
N	 0.3684544919	-0.2457574191	-2.3524520083	-0.269103
H	 0.4204812318	 2.0085645179	-0.46490548	 0.129866
H	-1.2980633258	 1.5528409919	-0.6271878119	 0.144058
H	-0.5541345097	 1.7334909517	 0.9904857423	 0.180115
H	 0.5482705102	-1.6492024586	 1.110089683	 0.100212
H	-0.7564765728	-2.8030636584	-0.7075783622	 0.114637
H	-0.2554243676	-3.1443277182	-3.3859732989	 0.118387
H	 0.6893704368	 0.6884199866	-2.5401003762	 0.276991
34.9452	114.0443	145.0015	170.4301	310.9153	323.2488	370.9241	444.8699	469.7474	477.6402	677.804	705.0741	788.9065	809.2781	896.8932	931.7393	960.0281	1034.5693	1049.8435	1069.7889	1125.4675	1153.9919	1170.9534	1273.9272	1276.6667	1361.5313	1385.2339	1422.7882	1433.3079	1452.9767	1497.1988	1509.598	1527.8971	1618.107	1800.6986	2995.8577	3026.5381	3097.9568	3163.1024	3247.1756	3277.2317	3680.2576
CN(C=O)C1=CC=NN1	CN(C=O)c1ccn[nH]1	
InChI=1S/C5H7N3O/c1-8(4-9)5-2-3-6-7-5/h2-4H,1H3,(H,6,7)	InChI=1S/C5H7N3O/c1-8(4-9)5-2-3-6-7-5/h2-4H,1H3,(H,6,7)
