21
gdb 123218	5.47366	0.4765	0.45137	2.0294	82.81	-0.2627	0.0524	0.3151	2373.2173	0.179574	-424.180131	-424.169183	-424.168238	-424.217906	38.064	
O	-0.067820734	 1.447743963	-0.1457768392	-0.420943
C	 0.0021195787	 0.0416399486	-0.022556671	-0.058567
C	-1.3853067671	-0.5785534685	 0.0318279734	-0.072069
O	-2.0381735533	-0.220520373	-1.1728853392	-0.261784
C	-3.3950306625	-0.6056721715	-1.2270657111	-0.051423
C	-3.9740016372	-0.155669842	-2.5615379933	-0.192616
C	-5.4579955454	-0.5456567458	-2.7050460287	-0.355724
C	-6.032752995	-0.1232326825	-3.9760753701	 0.290372
C	-6.484660665	 0.2354309192	-5.0303170242	-0.430239
H	-0.6839630171	 1.6139510555	-0.8690745658	 0.288466
H	 0.5626551833	-0.4094879218	-0.8570566656	 0.093435
H	 0.5427287905	-0.1786782101	 0.9037760563	 0.108021
H	-1.3223245636	-1.6744682983	 0.1350511374	 0.087451
H	-1.9402821347	-0.1827856238	 0.8975877454	 0.095296
H	-3.48409292	-1.7004747059	-1.1186931885	 0.088785
H	-3.9545623605	-0.1536990877	-0.3897896846	 0.090331
H	-3.8680645325	 0.9300056003	-2.6538258332	 0.119083
H	-3.3942259695	-0.6028962464	-3.3750360899	 0.122475
H	-5.5640952471	-1.6338341662	-2.6017449204	 0.131944
H	-6.0358101155	-0.1060571501	-1.8810098685	 0.132254
H	-6.8948129625	 0.5475413072	-5.9584720094	 0.195451
44.6791	48.6596	75.1362	106.9178	128.1674	167.5657	194.5939	267.1744	346.3711	365.5586	384.9476	446.4192	538.2687	559.0328	618.8326	638.8806	756.274	863.3094	869.4983	908.3993	956.4747	1029.9118	1055.6141	1078.2679	1094.7592	1117.3771	1140.2915	1159.9168	1220.49	1236.7715	1263.8052	1276.808	1301.187	1310.7113	1367.0438	1385.6912	1389.8424	1437.2061	1449.9904	1475.4059	1497.1771	1500.0511	1505.7406	1532.4927	2241.3843	2947.805	2967.2839	2975.5526	2977.7078	3007.8976	3013.5674	3041.6998	3055.5386	3079.533	3102.0451	3507.7501	3794.3265
OCCOCCCC#C	OCCOCCCC#C	
InChI=1S/C7H12O2/c1-2-3-4-6-9-7-5-8/h1,8H,3-7H2	InChI=1S/C7H12O2/c1-2-3-4-6-9-7-5-8/h1,8H,3-7H2
