19
gdb 38270	3.10844	1.65695	1.35942	1.7325	74.94	-0.2369	0.0755	0.3125	983.6576	0.161557	-422.947999	-422.941198	-422.940254	-422.978836	28.611	
C	-0.0265700895	 1.6518162158	 0.2040560754	-0.269329
C	 1.4306061419	 1.1812510554	 0.0494711237	-0.010599
O	 1.1024791764	 0.0104062632	 0.9290878472	-0.36536
C	-0.0028566319	 0.1197211059	-0.049555946	 0.437349
C	-1.1446829905	-0.8149743578	-0.317319052	-0.228825
O	-1.6746661698	-0.408400869	-1.5822853842	-0.256049
C	-0.7414698077	-0.4136602854	-2.6617258343	-0.054673
C	 0.3910994491	 0.6294951719	-2.5024489045	-0.280055
C	 1.0402240396	 0.2898527927	-1.167715251	 0.007841
H	-0.3076192486	 1.9387474854	 1.2178979645	 0.105889
H	-0.4553936778	 2.30765604	-0.5541106943	 0.104453
H	 2.3609397581	 1.7050234271	 0.2710938925	 0.093227
H	-0.7898883471	-1.8575465786	-0.3477259621	 0.103239
H	-1.9680301394	-0.7395422024	 0.3978684022	 0.117159
H	-0.2985292799	-1.4181336569	-2.7680190931	 0.091891
H	-1.3375665007	-0.212001728	-3.5558246881	 0.112303
H	 1.0877708439	 0.548153304	-3.3439885328	 0.09918
H	-0.035731334	 1.6360132395	-2.5258989215	 0.110661
H	 1.6928513881	-0.5852150727	-1.2412077117	 0.081695
161.1484	251.9628	338.9978	361.9271	386.2731	429.7802	511.9841	563.9933	609.3787	696.5946	713.3931	812.5718	839.1082	860.7918	910.9529	929.3198	947.3869	969.8806	983.0514	1021.2621	1033.2119	1081.2536	1102.5536	1117.879	1139.7809	1176.2651	1196.183	1207.9748	1222.168	1228.6441	1277.4568	1294.1331	1322.4834	1345.1042	1380.8491	1396.1157	1409.035	1478.4417	1489.809	1497.2876	1510.1297	2969.2996	2984.4951	3047.33	3067.9183	3082.2231	3090.5048	3093.6042	3101.9226	3115.0193	3156.4457
C1C2OC11COCCC21	C1[C@H]2O[C@]31COCC[C@@H]23	
InChI=1S/C7H10O2/c1-2-8-4-7-3-6(9-7)5(1)7/h5-6H,1-4H2	InChI=1S/C7H10O2/c1-2-8-4-7-3-6(9-7)5(1)7/h5-6H,1-4H2/t5-,6+,7+/m0/s1
