20
gdb 11622	4.68577	1.11117	0.95827	1.4031	72.42	-0.2461	0.087	0.3331	1256.8213	0.174647	-386.112445	-386.103161	-386.102217	-386.147212	33.262	
C	 0.3937788942	 1.2783540945	 0.040355344	-0.383049
C	-0.1086217318	-0.1613746059	-0.000134532	 0.145554
C	-0.2312995948	-0.7704436545	 1.3978434434	-0.403795
O	-1.3595368808	-0.1210940851	-0.6925747277	-0.259356
C	-1.8135101235	-1.32481428	-1.2719152073	-0.096626
C	-2.8291810612	-2.0619158111	-0.4282713451	 0.080883
C	-3.105360841	-3.4868093791	-0.6485494802	-0.181743
O	-2.353776649	-3.0545254675	 0.4862425053	-0.223343
H	 1.3730686865	 1.3310767974	 0.5252315771	 0.111244
H	 0.4797237993	 1.6848007088	-0.9707605097	 0.116748
H	-0.3036306236	 1.9064136387	 0.6039198918	 0.121927
H	 0.5951468909	-0.7692618329	-0.5930651048	 0.065057
H	 0.7408213386	-0.7536606976	 1.9023299258	 0.106085
H	-0.9398793229	-0.1918038818	 2.0001133838	 0.114435
H	-0.5784866918	-1.8046706333	 1.3551332644	 0.150585
H	-2.2973064068	-1.0510348663	-2.2200839797	 0.105699
H	-0.9784647447	-2.0029966942	-1.5030520688	 0.095714
H	-3.6258207274	-1.4341087324	-0.0276530204	 0.101856
H	-4.0943862093	-3.8878694874	-0.4329814178	 0.117899
H	-2.5391943707	-4.0350412403	-1.4012931923	 0.114225
33.8078	81.4099	109.4504	208.2109	221.6005	267.4415	307.4669	330.2075	388.2395	419.8431	465.1758	553.1392	779.6158	808.3281	862.5468	915.4636	931.5861	945.1578	955.2925	994.613	1092.3563	1112.4369	1132.6938	1154.0544	1160.1045	1162.8602	1185.2346	1205.0293	1287.6735	1302.8713	1365.0483	1373.3104	1388.883	1400.1179	1416.2094	1447.0027	1475.4781	1481.0921	1489.2267	1498.6005	1515.1262	1531.4223	2961.0118	2989.7228	3035.435	3036.6425	3042.1727	3082.3286	3101.5722	3113.3215	3114.7108	3121.4761	3138.9523	3168.199
CC(C)OCC1CO1	CC(C)OC[C@H]1CO1	
InChI=1S/C6H12O2/c1-5(2)7-3-6-4-8-6/h5-6H,3-4H2,1-2H3	InChI=1S/C6H12O2/c1-5(2)7-3-6-4-8-6/h5-6H,3-4H2,1-2H3/t6-/m0/s1
