23
gdb 100012	2.48874	1.20673	1.115	2.3096	80.71	-0.252	0.0627	0.3147	1256.8358	0.203475	-425.412861	-425.402401	-425.401457	-425.447654	40.516	
C	 0.2273623449	 1.4275062898	 0.3808289833	-0.451738
C	-0.0576377121	-0.0253178594	-0.0217730747	 0.247573
O	 0.2245560573	-0.8780879182	 1.1071731781	-0.476142
C	-1.5768800285	-0.2111655515	-0.2274194587	-0.054678
O	-2.3023957655	 0.0715237238	 0.9528575538	-0.429976
C	 0.7257666849	-0.5211021657	-1.2511199977	 0.331103
C	 0.6687027491	-2.0254870234	-1.485578944	-0.457195
C	 0.7918364753	 0.3399226226	-2.4920324953	-0.303726
C	 2.0262578309	 0.1516558631	-1.6457590889	-0.325838
H	 1.2465208129	 1.5414429977	 0.7647887098	 0.103373
H	 0.1026346012	 2.1227082856	-0.4539543346	 0.120505
H	-0.4744774348	 1.7137555467	 1.1660597064	 0.138868
H	 1.1187012332	-0.6866992986	 1.407911363	 0.280926
H	-1.9298274374	 0.4787738078	-0.9995986021	 0.106671
H	-1.7769818122	-1.2349662504	-0.5708079045	 0.090387
H	-1.8538697195	-0.4252149371	 1.6489338986	 0.287827
H	-0.3405270002	-2.3662046177	-1.7373251084	 0.119022
H	 1.3222876139	-2.3030357709	-2.3179083786	 0.10682
H	 0.9910476445	-2.5733197226	-0.5967771808	 0.123616
H	 0.7405419386	-0.1637688655	-3.4515432596	 0.110776
H	 0.3193300862	 1.3158213651	-2.4857233251	 0.11276
H	 2.3814210544	 1.0051952288	-1.0811884651	 0.109948
H	 2.8192756228	-0.4825081	-2.0278695351	 0.109114
46.2749	137.6589	183.2634	205.5692	252.7812	265.8909	293.2972	322.0459	329.1235	346.85	364.815	399.2907	458.6508	485.0291	498.8971	523.9934	714.2734	790.5461	818.767	872.9924	899.5866	925.4716	938.8827	954.4604	972.108	1034.663	1065.396	1075.0737	1083.4171	1105.7853	1126.1067	1144.7152	1163.9692	1190.269	1251.1945	1304.5959	1334.4039	1354.3105	1385.6134	1406.2943	1417.8697	1438.5121	1466.4007	1488.1893	1490.7524	1502.2688	1503.6356	1508.1937	1512.9885	3014.3055	3041.3291	3042.3461	3088.7804	3102.316	3109.3437	3121.7169	3131.5586	3137.9431	3139.388	3208.886	3224.8238	3780.2387	3817.1652
CC(O)(CO)C1(C)CC1	C[C@@](O)(CO)C1(C)CC1	
InChI=1S/C7H14O2/c1-6(3-4-6)7(2,9)5-8/h8-9H,3-5H2,1-2H3	InChI=1S/C7H14O2/c1-6(3-4-6)7(2,9)5-8/h8-9H,3-5H2,1-2H3/t7-/m1/s1
