16
gdb 16000	3.9232	1.49963	1.22216	2.34	60.68	-0.2564	0.0532	0.3095	979.1549	0.129531	-420.820642	-420.812944	-420.812	-420.853119	27.962	
O	 0.0178566657	 1.4172803757	-0.2050408014	-0.417285
C	 0.0174738393	 0.1005693232	 0.3070261849	-0.069654
C	-1.3347562851	-0.5550444142	 0.0822823434	 0.02972
O	-1.6476637074	-0.5717677423	-1.340895667	-0.311501
C	-1.80313749	-2.0109310176	-1.3617178986	-0.149341
C	-1.4333747102	-2.0790578812	 0.1156491309	 0.356387
C	-0.7267882594	-3.0857725527	 0.9045339691	-0.258657
O	-2.1295370933	-2.8241629514	 1.0848872851	-0.256947
H	-0.2866477818	 1.3474751295	-1.1183046977	 0.295683
H	 0.8027688704	-0.5169092816	-0.158708659	 0.083116
H	 0.2332379281	 0.1697518339	 1.3791247964	 0.111854
H	-2.1198255606	-0.0405788619	 0.650429822	 0.100772
H	-2.8337047349	-2.313966422	-1.5819914241	 0.122156
H	-1.1175936122	-2.4928054495	-2.0684268923	 0.114091
H	-0.4858431504	-4.0500230698	 0.4591725275	 0.123592
H	-0.0871665381	-2.7820425782	 1.7318486808	 0.126014
79.5736	110.2837	146.8536	282.5917	296.3284	337.385	452.558	481.1797	501.9614	592.6304	821.1422	846.5657	874.7965	922.8186	952.9946	1008.7227	1035.333	1062.0145	1100.2148	1120.2971	1125.0128	1150.9038	1165.7431	1190.125	1214.9805	1271.885	1315.744	1339.7106	1394.6821	1432.482	1455.6086	1497.7658	1511.8072	1545.3211	2972.7168	3022.4265	3038.5075	3070.8822	3072.1544	3085.0423	3172.4732	3785.5176
OCC1OCC11CO1	OC[C@H]1OC[C@]21CO2	
InChI=1S/C5H8O3/c6-1-4-5(2-7-4)3-8-5/h4,6H,1-3H2	InChI=1S/C5H8O3/c6-1-4-5(2-7-4)3-8-5/h4,6H,1-3H2/t4-,5-/m1/s1
