20
gdb 89448	2.51784	1.71093	1.28061	1.7214	78.16	-0.2406	0.0211	0.2617	1066.5988	0.171555	-403.167491	-403.159198	-403.158254	-403.200094	32.317	
C	-0.751545429	 1.2478822107	-0.1402448443	-0.402208
C	 0.0773020228	-0.0218368341	-0.0261428242	 0.035167
C	 1.4310096115	-0.0991331242	-0.8049282551	-0.304033
C	 2.1349489284	-0.6302416918	 0.4721478512	 0.411394
C	 2.7152456517	-2.0240141357	 0.4481916706	-0.469842
O	 3.127303175	 0.3007567284	 0.9921807025	-0.259523
C	 2.4439588552	 1.096257995	 1.849941952	 0.098756
N	 1.215311541	 0.8829932801	 2.0893393253	-0.266265
C	 0.8511078261	-0.3013826507	 1.2998639278	-0.070717
H	-0.1656985203	 2.1254230239	 0.1474486648	 0.125556
H	-1.1020956819	 1.3885333473	-1.1686308007	 0.10947
H	-1.6290556125	 1.209235323	 0.5132525166	 0.119585
H	-0.5434480298	-0.892188508	-0.2657506295	 0.071782
H	 1.4554902287	-0.7605642334	-1.6745981226	 0.101287
H	 1.8179687124	 0.8796497395	-1.0995886625	 0.109236
H	 3.5776616112	-2.0769997934	-0.2241698049	 0.130064
H	 3.037336246	-2.3275327645	 1.4488226904	 0.127887
H	 1.9653474609	-2.7388163909	 0.0949728432	 0.122166
H	 3.0379630736	 1.8884445331	 2.2937581483	 0.136434
H	 0.4238700289	-1.0680190243	 1.9537005311	 0.073805
78.101	213.295	221.2713	228.0307	240.437	295.5407	348.1484	394.7577	485.2832	565.5418	616.1096	647.0709	783.4097	833.7845	846.7306	889.2239	903.2311	933.1039	938.2391	966.8227	973.3021	999.008	1082.8737	1112.4157	1132.5568	1171.5948	1188.0856	1199.0018	1206.9517	1247.9602	1279.3486	1314.4747	1327.5526	1339.2051	1361.9945	1411.8346	1414.5263	1477.8977	1484.7216	1490.0505	1493.3157	1497.8494	1682.5325	3033.1599	3036.232	3038.1398	3056.8298	3062.2105	3098.2149	3107.7511	3112.7773	3114.3721	3119.0388	3207.8701
CC1CC2(C)OC=NC12	C[C@H]1C[C@@]2(C)OC=N[C@@H]12	
InChI=1S/C7H11NO/c1-5-3-7(2)6(5)8-4-9-7/h4-6H,3H2,1-2H3	InChI=1S/C7H11NO/c1-5-3-7(2)6(5)8-4-9-7/h4-6H,3H2,1-2H3/t5-,6-,7+/m0/s1
