14
gdb 43466	3.0368	1.46658	1.06533	2.0054	63.6	-0.2688	-0.0348	0.234	1055.7014	0.10138	-473.879165	-473.871802	-473.870858	-473.911572	27.411	
O	-0.0018352538	-0.0256140255	-0.0088076238	-0.334318
C	-0.0480148896	 1.1756173543	-0.0008587916	 0.430002
C	-1.2882452496	 2.0700992916	-0.0158392745	-0.464936
C	-0.735467578	 3.4829294537	-0.0533200261	 0.303461
C	-1.3574594713	 4.6619287046	-0.67315593	-0.227935
O	-1.321637136	 4.5052512806	 0.7428251392	-0.249507
C	 0.7794604168	 3.3801115105	 0.0071996969	 0.390084
O	 1.580706358	 4.2764632484	 0.0290419488	-0.340218
N	 1.0626115748	 2.0189981845	 0.0218388853	-0.377744
H	-1.9156375531	 1.8102174911	-0.8719394088	 0.153625
H	-1.8732074513	 1.8952881502	 0.891713819	 0.167741
H	-0.7152340666	 5.446066495	-1.0685884861	 0.145455
H	-2.3374040786	 4.5533530751	-1.1355198783	 0.126581
H	 2.0073012583	 1.6601629161	 0.04588224	 0.27771
59.1249	142.2314	257.365	273.2573	357.0552	368.565	494.8394	557.5783	593.0566	642.6459	677.6193	732.8793	758.4627	851.5742	869.3312	910.6023	952.2164	1020.1044	1114.6959	1131.0245	1170.5859	1179.1504	1241.1603	1258.5953	1327.3971	1357.2498	1418.731	1452.8427	1515.0535	1844.8132	1884.5502	3073.3594	3089.9528	3118.4718	3189.419	3615.3046
O=C1CC2(CO2)C(=O)N1	O=C1C[C@]2(CO2)C(=O)N1	
InChI=1S/C5H5NO3/c7-3-1-5(2-9-5)4(8)6-3/h1-2H2,(H,6,7,8)	InChI=1S/C5H5NO3/c7-3-1-5(2-9-5)4(8)6-3/h1-2H2,(H,6,7,8)/t5-/m0/s1
