23
gdb 75160	3.49682	0.98234	0.85777	0.265	92.	-0.2241	0.0368	0.2609	1460.6052	0.206499	-351.165618	-351.156521	-351.155577	-351.199739	35.094	
C	-0.5779461558	 1.3044158539	 0.0725033803	-0.493555
C	-0.0473588495	-0.093632895	 0.0255112915	 0.346588
C	-0.0816429525	-0.9410292515	-1.005301818	-0.161564
C	 0.5947655404	-2.2544187951	-0.7044491227	-0.26789
C	 0.7808297735	-2.2194083868	 0.8426315632	-0.006534
C	 0.6679464114	-0.7118857402	 1.2092566104	-0.313575
C	-0.2857354851	-3.0393468136	 1.543111549	 0.050207
C	-0.0976863837	-4.5175540559	 1.7655446894	-0.277049
C	-0.0616515411	-3.5640708164	 2.9377336853	-0.277269
H	 0.2223958597	 2.0254744153	 0.2850483288	 0.12203
H	-1.0493998265	 1.5915562108	-0.8715807584	 0.120112
H	-1.3188543247	 1.4223566599	 0.8738459703	 0.121891
H	-0.5140742295	-0.7135301126	-1.9747025954	 0.078137
H	 0.0092387486	-3.1261521966	-1.0204502092	 0.099919
H	 1.5589202457	-2.3278105213	-1.2277824871	 0.096073
H	 1.7596806158	-2.6195250046	 1.128094544	 0.057865
H	 1.6557480587	-0.247086298	 1.3426235046	 0.094964
H	 0.1317886239	-0.5620916825	 2.1548806162	 0.097689
H	-1.3004451209	-2.7198753375	 1.3136923397	 0.081566
H	-0.9541215748	-5.1747867261	 1.6615622116	 0.107574
H	 0.8408844549	-4.961859925	 1.4491844411	 0.107881
H	 0.9009188582	-3.3733562378	 3.4020711148	 0.107648
H	-0.8935524966	-3.5707011635	 3.6335367906	 0.107292
61.5954	86.1694	158.7727	200.7261	247.2092	287.2449	312.7154	330.4752	437.0006	470.183	611.3166	729.4012	756.9976	802.8804	829.1526	836.861	873.9979	902.7912	917.4427	928.6557	970.4671	972.7468	1008.871	1033.8043	1045.7529	1056.4089	1073.1508	1078.8962	1130.4271	1145.044	1169.6964	1186.6028	1198.7054	1223.5389	1253.6889	1260.1361	1288.3279	1309.4261	1323.845	1356.8094	1413.8594	1422.8594	1469.8647	1479.6377	1483.5098	1489.8998	1493.3695	1506.532	1724.781	2997.8011	3000.5409	3013.5894	3040.0679	3044.5849	3048.4764	3057.4237	3106.7113	3125.3279	3125.7865	3131.2973	3178.7808	3202.4437	3217.7002
CC1=CCC(C1)C1CC1	CC1=CC[C@@H](C1)C1CC1	
InChI=1S/C9H14/c1-7-2-3-9(6-7)8-4-5-8/h2,8-9H,3-6H2,1H3	InChI=1S/C9H14/c1-7-2-3-9(6-7)8-4-5-8/h2,8-9H,3-6H2,1H3/t9-/m0/s1
