21
gdb 114837	3.12553	1.3153	1.23497	1.5953	77.09	-0.2471	0.0801	0.3272	1131.8535	0.185062	-424.232266	-424.224276	-424.223332	-424.264975	31.217	
C	 0.0915384817	 1.4165112319	 0.0356878047	-0.236421
O	-0.1656802617	 0.0399451987	-0.115938811	-0.245225
C	 0.5741996218	-0.5687364331	-1.1507623243	 0.147558
C	 2.0729494684	-0.8679409765	-0.8164972312	-0.258159
C	 2.1080182419	-2.4008369864	-0.9913726361	 0.082317
C	 1.4063785139	-3.0890925343	 0.2004089806	-0.217764
C	-0.0891681236	-2.7816666112	-0.112259668	-0.215955
C	 0.0451774568	-1.9966259252	-1.4336427396	 0.027091
O	 1.1748903637	-2.6048643595	-2.0685417554	-0.266318
H	 1.1362972705	 1.6158522971	 0.3177420873	 0.10728
H	-0.125991993	 1.9733192387	-0.8893189378	 0.106098
H	-0.5619765984	 1.7837345995	 0.8308704291	 0.126831
H	 0.4978140412	 0.0397871244	-2.0631543028	 0.068337
H	 2.751187003	-0.3789470075	-1.5194762044	 0.100704
H	 2.3279299196	-0.5439389943	 0.1961723569	 0.102673
H	 3.0766561894	-2.817688547	-1.2676458897	 0.073548
H	 1.6041842376	-4.1635431216	 0.1932599504	 0.102106
H	 1.7335146382	-2.6909240674	 1.1641643376	 0.09866
H	-0.6608759785	-3.6978782237	-0.2742368218	 0.099046
H	-0.5814749419	-2.1948120285	 0.6631798503	 0.122107
H	-0.8185202806	-2.0353951942	-2.0968270347	 0.075486
85.6313	112.2427	190.9243	215.8837	317.0937	356.4012	437.0991	475.4662	547.2442	594.0661	768.2626	793.3131	827.7016	829.3566	855.8217	898.484	946.5903	954.2086	987.846	1005.5908	1028.1179	1038.1624	1059.2651	1096.6596	1122.3976	1155.5474	1183.4142	1187.5339	1208.0818	1236.1842	1239.974	1272.7997	1291.7174	1306.937	1311.4112	1336.3857	1353.1876	1354.7902	1389.9039	1474.9983	1481.5857	1485.631	1487.8748	1504.932	1510.5105	2974.6699	2995.7443	3022.6865	3061.0996	3064.2985	3079.718	3106.4096	3110.8546	3112.83	3119.5751	3126.336	3141.3374
COC1CC2CCC1O2	CO[C@H]1C[C@H]2CC[C@@H]1O2	
InChI=1S/C7H12O2/c1-8-7-4-5-2-3-6(7)9-5/h5-7H,2-4H2,1H3	InChI=1S/C7H12O2/c1-8-7-4-5-2-3-6(7)9-5/h5-7H,2-4H2,1H3/t5-,6+,7+/m1/s1
