17
gdb 109140	4.30278	0.96569	0.81163	5.203	71.41	-0.2487	0.0087	0.2574	1353.9617	0.13539	-458.996488	-458.987642	-458.986698	-459.031175	31.351	
O	 0.1092399649	 1.4321055493	-0.0023903264	-0.41002
C	 0.0385989773	 0.022104241	-0.0324478084	-0.157488
C	-1.3952099924	-0.4211725049	 0.041568439	 0.239826
C	-2.4361229078	 0.401808474	-0.0021368312	-0.145603
C	-3.8365575491	-0.1239777988	 0.1044563985	-0.408499
C	-3.9935556849	-1.5913395474	-0.2655286853	 0.412214
O	-5.0461465513	-2.0779093011	-0.5748324894	-0.324657
O	-2.8866263849	-2.3729722579	-0.2550817131	-0.223711
C	-1.6126110077	-1.8996317901	 0.1941200062	-0.149563
H	 1.0246613416	 1.6909292072	-0.139166847	 0.294607
H	 0.4897420018	-0.3849448411	-0.9548794991	 0.104477
H	 0.6005495737	-0.4274683578	 0.8068097215	 0.097874
H	-2.2855404696	 1.4706451327	-0.098624355	 0.121097
H	-4.2207759551	-0.0074876257	 1.1291727421	 0.148331
H	-4.535154472	 0.4308373093	-0.5283777294	 0.148467
H	-0.8773851332	-2.466773389	-0.3888379575	 0.126351
H	-1.4835546513	-2.2035000595	 1.2441194447	 0.126297
35.8837	90.2635	127.6935	199.2208	200.2495	234.4098	362.6386	422.1872	447.4985	512.2581	586.4482	594.3424	753.1212	768.3369	827.9837	911.1307	984.3228	1000.0823	1017.9566	1062.8735	1083.7386	1117.6979	1173.1769	1186.3758	1217.108	1237.6599	1253.0015	1272.9461	1336.8704	1360.9846	1431.3715	1453.595	1466.0429	1503.6257	1510.76	1766.651	1848.1635	2934.2547	2951.7034	2991.5082	3005.6435	3052.4226	3087.7608	3204.8591	3842.449
OCC1=CCC(=O)OC1	OCC1=CCC(=O)OC1	
InChI=1S/C6H8O3/c7-3-5-1-2-6(8)9-4-5/h1,7H,2-4H2	InChI=1S/C6H8O3/c7-3-5-1-2-6(8)9-4-5/h1,7H,2-4H2
