14
gdb 123998	2.9789	1.50908	1.00786	4.4888	80.16	-0.2073	-0.0579	0.1494	1087.2574	0.1022	-432.889469	-432.881719	-432.880775	-432.922278	28.082	
C	-0.0372892589	 1.4599896054	 0.2675248059	-0.201772
N	 1.1425107007	 2.1993250646	-0.1612933385	-0.362361
C	 2.2563066186	 1.7346577902	-0.8074260322	 0.380782
C	 2.2168369959	 0.2813438464	-1.079168693	 0.150644
C	 1.0944924362	-0.5438203056	-0.6869314534	-0.126036
C	 0.045519259	-0.0012733538	-0.0608650672	-0.097982
N	 3.2549770479	-0.2184399121	-1.693571909	 0.155153
N	 4.1661624179	-0.6302589578	-2.228045875	-0.222443
O	 3.1867853117	 2.4557717308	-1.1233025733	-0.394504
H	-0.1789293366	 1.5863736589	 1.3531886285	 0.123567
H	-0.9367518671	 1.8923876108	-0.2005632155	 0.123484
H	 1.1740499015	 3.1912612755	 0.0210799052	 0.253498
H	 1.1302211285	-1.6039969022	-0.9137138188	 0.111443
H	-0.7989891451	-0.6118566612	 0.2363127163	 0.106526
74.5234	119.6057	149.6646	198.5378	387.8308	437.3951	453.7038	518.0242	548.7923	557.7329	604.5113	687.7439	704.1065	761.5967	868.5004	916.6843	968.6505	1023.9034	1075.3613	1167.4814	1243.2826	1255.4093	1316.6146	1331.268	1401.0902	1449.1142	1484.0384	1524.9361	1703.8406	1771.9409	2209.3112	2963.6284	2970.4402	3183.4411	3205.881	3622.2336
C1NC2=C(C=C1)N=NO2	C1NC(=O)C(=C[CH]1)[N][N]	
InChI=1S/C5H5N3O/c1-2-4-5(6-3-1)9-8-7-4/h1-2,6H,3H2	InChI=1S/C5H5N3O/c6-8-4-2-1-3-7-5(4)9/h1-2H,3H2,(H,7,9)
