18
gdb 7467	3.98172	1.39179	1.31097	2.0205	73.22	-0.2419	0.0478	0.2897	1016.5348	0.151436	-347.758524	-347.749859	-347.748915	-347.791976	31.874	
C	-0.1474307159	 1.7020732408	-0.2294766555	-0.43458
C	 0.0124868742	 0.1958354947	-0.0995364981	 0.431592
C	-1.3190158802	-0.519262594	 0.2110998708	-0.396206
C	-1.9760438163	-0.0504501146	 1.4242691803	 0.314776
C	-2.5167159443	 0.3410205302	 2.4237099616	-0.444235
C	 0.8417162843	-0.5018838774	-1.2099955959	-0.336505
C	 1.8325060242	-0.8238164063	-0.0758781814	-0.063833
O	 1.0171276353	-0.1409194689	 0.8965163083	-0.314027
H	 0.8198075442	 2.1685898543	-0.4347714726	 0.116262
H	-0.8338691378	 1.9492128989	-1.0471439586	 0.11232
H	-0.5481091081	 2.1225874768	 0.6965195821	 0.142334
H	-1.990022475	-0.3905563519	-0.649222638	 0.126648
H	-1.1194338865	-1.5941463194	 0.2959377501	 0.128377
H	-2.9910053557	 0.6801009758	 3.3109706825	 0.194833
H	 0.3626948162	-1.3631061916	-1.6802862715	 0.106923
H	 1.2175366277	 0.166482161	-1.9865095704	 0.109462
H	 1.9528471544	-1.8877038258	 0.1631070581	 0.102244
H	 2.8269906892	-0.3707936026	-0.1668115516	 0.103615
53.0784	82.7294	142.1715	224.9201	297.4917	323.5004	350.675	378.6645	402.5206	506.4479	615.3201	637.5997	709.6853	784.3987	856.2409	865.8224	905.8791	935.2029	968.1993	996.445	1000.4562	1029.5688	1124.2021	1161.5263	1189.3374	1208.1009	1239.0311	1265.1532	1294.6305	1337.5967	1359.377	1407.6102	1454.8177	1482.5794	1489.1423	1496.3706	1531.8968	2238.5527	3015.4211	3016.344	3037.2865	3053.3504	3057.0534	3074.3059	3109.1326	3126.351	3129.6786	3506.9694
CC1(CC#C)CCO1	C[C@@]1(CC#C)CCO1	
InChI=1S/C7H10O/c1-3-4-7(2)5-6-8-7/h1H,4-6H2,2H3	InChI=1S/C7H10O/c1-3-4-7(2)5-6-8-7/h1H,4-6H2,2H3/t7-/m1/s1
