22
gdb 58277	2.94562	0.8963	0.72348	6.5845	78.99	-0.244	0.0328	0.2768	1587.5261	0.193366	-441.532512	-441.522147	-441.521203	-441.568321	38.171	
C	 0.0901033752	 1.5531901557	 0.0570323242	-0.405125
C	 0.0480079455	 0.0168538832	 0.0417320432	 0.037495
C	 0.8415388842	-0.5320583332	 1.2382456422	-0.39657
C	-1.4083232901	-0.5116217673	 0.0111387122	 0.012123
N	-2.2322126678	 0.0624962421	-1.0792787961	-0.533027
H	-3.5171122896	-1.1163433457	-0.879482101	 0.313942
H	-2.4055369824	 1.0501896435	-0.9296719654	 0.249051
H	-1.7483094072	-0.025241779	-1.9700090166	 0.23988
C	-1.4916490618	-2.0455502885	-0.1059347701	-0.344154
C	-2.8947587359	-2.6543365154	 0.0414610117	 0.395276
O	-3.8958243597	-1.9564566963	-0.5074316981	-0.372892
O	-3.0760867223	-3.7069201682	 0.5965576021	-0.334668
H	 1.1244971372	 1.9079795602	 0.0883022985	 0.123391
H	-0.3762671789	 1.9941788102	-0.8287446581	 0.102182
H	-0.420680968	 1.9512763699	 0.9425838768	 0.11848
H	 0.5370887781	-0.3281162448	-0.8826549624	 0.070702
H	 1.8454468668	-0.0971432628	 1.2614951957	 0.117435
H	 0.3499510926	-0.274855852	 2.18407697	 0.120656
H	 0.9572568549	-1.6176489661	 1.2054254752	 0.127969
H	-1.8964266663	-0.2083162055	 0.9477524791	 0.099954
H	-1.1000659367	-2.3477153413	-1.0885131711	 0.119001
H	-0.8729245678	-2.5370045183	 0.643326438	 0.138902
52.8736	85.6409	93.008	160.8035	206.5977	228.0834	288.6294	340.0211	341.9128	377.6533	410.3486	420.9525	483.202	506.7069	615.487	690.027	816.219	875.1384	897.5518	921.203	926.5907	938.925	965.799	981.3596	1010.682	1076.2936	1112.1446	1151.1074	1161.6755	1188.9596	1257.008	1277.2019	1304.1895	1342.4612	1345.4577	1379.8048	1398.8488	1405.8432	1425.8564	1462.6709	1486.8637	1495.507	1502.2731	1505.0835	1515.5356	1646.9697	1855.9545	2983.7593	3009.6946	3025.954	3028.5868	3035.5914	3094.4235	3099.6531	3107.9561	3118.3438	3148.7608	3219.2878	3488.5325	3584.3024
CC(C)C([NH3+])CC([O-])=O	CC(C)[C@@H](N)CC(=O)O	
InChI=1S/C6H13NO2/c1-4(2)5(7)3-6(8)9/h4-5H,3,7H2,1-2H3,(H,8,9)	InChI=1S/C6H13NO2/c1-4(2)5(7)3-6(8)9/h4-5H,3,7H2,1-2H3,(H,8,9)/t5-/m0/s1
