19
gdb 114138	4.61875	0.89854	0.82923	1.974	71.52	-0.2444	0.0591	0.3034	1397.8172	0.158224	-460.105284	-460.096186	-460.095242	-460.139521	33.848	
O	-0.1386081459	 1.3528177023	 0.1763338656	-0.420535
C	 0.0482945379	-0.0475327844	 0.2703125111	-0.082588
C	-1.2822397132	-0.7682835146	 0.1585805806	 0.117441
O	-1.9697161078	-0.4200018787	-1.0898416817	-0.359861
C	-2.1786563367	-1.813737238	-1.3693092172	 0.452265
C	-3.5254124818	-2.1847494339	-1.9280453819	-0.185463
O	-3.6224061426	-3.5587389512	-2.2544897094	-0.404948
C	-0.8741271099	-2.5107455577	-1.5888864915	-0.355318
C	-1.3692473012	-2.2552065336	-0.1717481888	-0.20627
H	-0.6366928498	 1.501801213	-0.6364709169	 0.294295
H	 0.7454263015	-0.414181434	-0.4976100583	 0.087588
H	 0.4965221788	-0.2469537022	 1.2501672654	 0.110412
H	-1.9283911329	-0.4913546522	 1.0002428985	 0.092814
H	-4.3048011833	-1.9863696048	-1.1849668447	 0.124369
H	-3.7326754243	-1.5345654143	-2.7931997704	 0.105113
H	-3.0776002009	-3.7133313341	-3.0326697397	 0.28951
H	-0.9490893686	-3.5540782347	-1.878285456	 0.117664
H	-0.0294830679	-1.9725052662	-2.0079300483	 0.114961
H	-1.5488242013	-3.053739441	 0.5345325837	 0.108548
59.4767	102.5355	123.4325	186.5374	232.5644	304.6932	325.7983	397.273	435.2815	456.8714	501.9781	539.1041	668.4396	730.7254	811.3027	858.75	922.256	954.7603	973.7191	1008.6173	1029.605	1036.2718	1057.6346	1073.629	1087.1589	1100.5593	1121.9176	1160.9011	1214.7913	1220.1065	1272.4674	1296.2864	1343.1735	1384.0241	1391.0261	1402.8298	1417.6637	1438.1786	1484.8449	1500.6646	1503.7964	2980.8464	2996.5843	3038.4261	3072.1953	3073.4913	3123.0483	3208.4165	3215.9421	3790.3684	3821.2547
OCC1OC2(CO)CC12	OC[C@H]1O[C@@]2(CO)C[C@@H]12	
InChI=1S/C6H10O3/c7-2-5-4-1-6(4,3-8)9-5/h4-5,7-8H,1-3H2	InChI=1S/C6H10O3/c7-2-5-4-1-6(4,3-8)9-5/h4-5,7-8H,1-3H2/t4-,5+,6+/m0/s1
