18
gdb 112338	1.91477	1.19948	0.74376	3.2918	82.09	-0.245	-0.068	0.1771	1521.7379	0.14338	-439.135943	-439.124796	-439.123852	-439.173378	37.939	
C	 0.9703678349	 1.7594673076	-0.1893906004	-0.507296
C	 0.3154157964	 0.4184013182	-0.1627783335	 0.27719
C	-0.1419989298	-0.3214880303	-1.1895070076	-0.393403
C	-0.7071126581	-1.5731278051	-0.6643295821	 0.42077
O	-1.2165435059	-2.5098504092	-1.2082920587	-0.337851
O	-0.5566363069	-1.5272097753	 0.7223593423	-0.250875
C	 0.0576607008	-0.3385782045	 1.065716096	 0.341823
C	 0.3260689626	-0.0298924761	 2.3340868138	-0.432171
N	-0.9615347709	-2.8953047026	 3.6105685227	-0.722062
H	-0.4536802115	-3.7492433584	 3.8258133876	 0.235811
H	-1.9054404399	-3.0375011328	 3.9602520727	 0.235808
H	-1.0378267645	-2.8593777103	 2.5961996227	 0.262122
H	 1.0591734769	 2.1344265605	-1.21086543	 0.140156
H	 0.3967827062	 2.4856757369	 0.3967971977	 0.149561
H	 1.9726881969	 1.7131358132	 0.2501742671	 0.149578
H	-0.126858048	-0.0920504921	-2.2444476027	 0.134482
H	 0.0664493059	-0.7109146066	 3.1384765638	 0.177554
H	 0.8086136449	 0.9110553669	 2.5651271988	 0.118802
39.4992	69.0571	113.2839	124.9974	130.7462	159.3326	181.6794	194.9274	270.2194	306.495	357.3261	380.7942	556.2999	591.6715	657.143	679.1367	738.5824	771.8464	798.9837	867.4891	905.2685	953.3853	993.7956	1012.125	1061.7652	1088.7075	1118.3168	1186.6979	1275.8275	1360.8356	1413.4324	1441.1465	1478.1223	1487.8484	1663.7171	1676.79	1694.358	1714.2653	1875.6408	3039.1963	3093.6426	3132.6986	3149.6088	3251.7952	3258.1512	3460.752	3577.5886	3581.5693
CC1=CC(=O)O[C-]1C[NH3+]	CC1=C(OC(=O)[CH]1)[CH2].N	
InChI=1S/C6H8NO2/c1-4-2-6(8)9-5(4)3-7/h2H,3,7H2,1H3/q-1/p+1	InChI=1S/C6H6O2.H3N/c1-4-3-6(7)8-5(4)2;/h3H,2H2,1H3;1H3
