18
gdb 44733	2.91199	1.71268	1.50708	3.1743	76.52	-0.2477	-0.0054	0.2423	944.3011	0.151274	-401.973086	-401.966308	-401.965364	-402.004249	27.986	
N	-0.060770994	 1.3092353917	-0.3854905672	-0.514266
C	-0.0067068871	 0.0986102445	-0.020570505	 0.389732
C	-1.2965670402	-0.7038328671	 0.1397824134	-0.277463
C	-1.109059511	-1.9879705249	 0.9779056647	-0.074834
C	 0.1280688282	-2.7092187517	 0.4026105689	-0.234523
C	 1.211394944	-1.7678474741	 0.9335196351	 0.072838
O	 1.1964237124	-0.531315372	 0.1632986779	-0.271592
C	 0.722615084	-1.4902422765	 2.3461645595	-0.084747
C	-0.6055507696	-1.6119744568	 2.3648786529	-0.066072
H	 0.8845713122	 1.6895069294	-0.4699344357	 0.215937
H	-2.0460508821	-0.0328717382	 0.5652807132	 0.132747
H	-1.648664171	-0.9718657415	-0.863963427	 0.128155
H	-2.0237734237	-2.5851686409	 0.9787430128	 0.072995
H	 0.2445135205	-3.7064096529	 0.8349640293	 0.107553
H	 0.1356527966	-2.7839673989	-0.6882271258	 0.105298
H	 2.2364170504	-2.1274286358	 0.8447781835	 0.085329
H	 1.3629313049	-1.1458102885	 3.1479464744	 0.106464
H	-1.2612095647	-1.3913590256	 3.199143915	 0.106449
78.8244	247.4895	358.4743	395.1746	426.565	444.7004	534.6117	597.8571	616.9678	736.5238	772.2827	805.4749	855.8477	861.848	887.077	911.0174	927.4122	948.1121	970.0729	996.94	1010.0218	1035.3807	1062.2064	1089.4955	1129.7736	1170.4601	1191.1167	1234.9045	1290.2282	1298.3987	1304.108	1328.4424	1351.2673	1372.0523	1396.0966	1467.7417	1487.9477	1659.5913	1744.7164	3038.1585	3061.0636	3083.5238	3108.0906	3114.7058	3118.4698	3196.0944	3224.9452	3459.3594
N=C1CC2CC(O1)C=C2	[NH][C]1C[C@H]2C[C@@H](O1)C=C2	
InChI=1S/C7H9NO/c8-7-4-5-1-2-6(3-5)9-7/h1-2,5-6,8H,3-4H2	InChI=1S/C7H9NO/c8-7-4-5-1-2-6(3-5)9-7/h1-2,5-6,8H,3-4H2/t5-,6+/m1/s1
