18
gdb 112782	2.3495	1.32565	0.96897	5.0973	73.14	-0.2642	0.0296	0.2938	1243.4756	0.146079	-439.070331	-439.060858	-439.059914	-439.105238	33.654	
C	 0.0040661083	 1.2981374782	-0.2557694281	-0.243113
O	-0.0204951678	-0.0145000036	 0.2662765121	-0.228324
C	-1.2738026133	-0.6155116804	 0.1962021877	 0.161136
C	-1.8029127927	-1.1077717179	-1.1801428814	-0.280905
C	-2.2305939513	-2.4281903263	-0.51357389	 0.139358
O	-1.9415193939	-3.5540195824	-1.2855546118	-0.407262
C	-1.3023016406	-2.0838544191	 0.7246377182	-0.311879
C	-0.0225381238	-2.768956987	 0.6973514977	 0.315736
N	 0.9715491499	-3.3585361317	 0.6936622285	-0.329594
H	 1.0212603054	 1.673358479	-0.1285470994	 0.139873
H	-0.2517945839	 1.3184466857	-1.3249028455	 0.115969
H	-0.6926921146	 1.9593467892	 0.2823895172	 0.107933
H	-2.0278480209	-0.0123720701	 0.7251753165	 0.075876
H	-2.568585877	-0.5223215431	-1.690674321	 0.108481
H	-0.9655404725	-1.3030399481	-1.8556292696	 0.140869
H	-3.2793839024	-2.4099542315	-0.1880117189	 0.082376
H	-2.1400972915	-4.3485109674	-0.778218292	 0.293434
H	-1.7542057175	-2.2159460835	 1.7108318599	 0.120038
59.8537	89.308	113.6093	146.5681	193.9606	262.6382	282.292	355.8267	392.5399	432.5018	451.3956	496.5432	676.2142	702.1175	779.3748	807.8684	905.5234	959.193	1026.4206	1046.5352	1082.4923	1095.9407	1131.6005	1180.8457	1188.4108	1204.2941	1237.5331	1256.206	1258.0147	1280.3342	1299.9771	1351.856	1387.8415	1431.7539	1475.8833	1484.6055	1490.0198	1507.6685	2359.2421	2977.1623	2984.1387	3008.2243	3033.3876	3073.1608	3082.4987	3128.6995	3138.4575	3810.5678
COC1CC(O)C1C#N	CO[C@H]1C[C@@H](O)[C@H]1C#N	
InChI=1S/C6H9NO2/c1-9-6-2-5(8)4(6)3-7/h4-6,8H,2H2,1H3	InChI=1S/C6H9NO2/c1-9-6-2-5(8)4(6)3-7/h4-6,8H,2H2,1H3/t4-,5-,6+/m1/s1
