17
gdb 43145	2.37213	2.07311	1.693	4.0423	69.65	-0.2384	-0.0117	0.2267	881.2255	0.138582	-421.831579	-421.825013	-421.824068	-421.862324	26.875	
O	 0.0034047835	 0.0512231678	 0.0993120899	-0.323934
C	-0.0149397833	 1.241573627	-0.0084619266	 0.439734
C	-1.1921417471	 2.2338242931	-0.0054987708	-0.17758
C	-0.8111490481	 3.0465643071	 1.2664374817	-0.228357
C	 0.7654598103	 3.0688216955	 1.2442931287	-0.228357
C	 1.1333770337	 2.2666985311	-0.0381833574	-0.177579
C	 0.6777765049	 3.1284497298	-1.2118570838	 0.050428
O	-0.062801063	 2.4267651513	-2.22213171	-0.259566
C	-0.7942265173	 3.1076401083	-1.1911723027	 0.050428
H	-2.1880771527	 1.7956884315	-0.0183255934	 0.090501
H	-1.235431654	 4.0538663333	 1.2411974315	 0.109809
H	-1.1873461735	 2.5533303341	 2.1659320916	 0.119678
H	 1.1602713429	 4.0876858457	 1.2076192808	 0.109809
H	 1.1805316135	 2.5866941439	 2.1326449699	 0.119679
H	 2.1405391189	 1.8568665472	-0.0791530325	 0.090501
H	 1.2624355741	 3.9786223211	-1.5505329014	 0.107405
H	-1.4119689927	 3.940816772	-1.5129394058	 0.107404
156.6667	210.1927	277.964	347.8761	465.3236	503.7621	587.1469	623.314	729.559	767.4388	813.9558	840.7346	851.1831	873.0363	892.1454	898.5919	953.5146	986.9246	999.8591	1017.0543	1034.9228	1111.015	1121.6579	1135.3069	1175.5779	1192.0796	1236.5295	1246.2379	1276.7081	1281.0853	1290.3782	1330.1661	1345.5542	1415.2617	1491.9664	1508.2595	1898.3044	3057.4071	3066.8327	3097.1264	3115.9918	3140.5783	3142.2856	3155.7024	3167.1332
O=C1C2CCC1C1OC21	O=C1[C@H]2CC[C@@H]1[C@H]1O[C@@H]21	
InChI=1S/C7H8O2/c8-5-3-1-2-4(5)7-6(3)9-7/h3-4,6-7H,1-2H2	InChI=1S/C7H8O2/c8-5-3-1-2-4(5)7-6(3)9-7/h3-4,6-7H,1-2H2/t3-,4+,6+,7-
