16
gdb 127798	3.13429	1.25958	0.99391	3.4194	71.97	-0.2545	-0.0478	0.2066	1160.3701	0.124181	-434.075274	-434.066706	-434.065762	-434.109646	29.564	
C	 0.1137426805	 1.425544216	 0.1935900007	-0.350801
N	 0.0669757385	-0.0253369519	 0.1573052799	 0.007617
N	 0.0478286619	-0.6685328392	-1.0282566978	-0.143786
N	-0.0407083458	-1.9456343396	-0.7862299546	-0.186378
C	-0.0854875192	-2.1347762156	 0.5579324201	-0.153022
C	-0.0239333102	-0.9106174726	 1.1875040771	 0.292059
C	 0.0124963799	-0.5112318427	 2.6295839784	-0.389269
C	 1.4447267586	-0.1628773957	 3.0277107732	 0.156913
O	 1.8352402439	 0.9586859784	 3.2204507539	-0.228117
H	 0.8642588396	 1.7647544241	 0.9100535294	 0.17087
H	 0.3715097175	 1.7637988315	-0.8094993691	 0.171963
H	-0.8612454818	 1.8368522067	 0.4737605156	 0.14817
H	-0.1630409456	-3.1184487962	 0.993572428	 0.124995
H	-0.6252355058	 0.3538205756	 2.8334426154	 0.137604
H	-0.3312179595	-1.3549903631	 3.2368327499	 0.140842
H	 2.1297925375	-1.0363122759	 3.0883864399	 0.100341
55.2023	78.4032	109.0264	158.7058	222.3027	245.4214	353.1179	412.2459	484.9502	652.7845	701.4804	715.2028	722.4668	846.5351	866.8522	982.1355	1002.823	1038.8726	1051.8452	1141.8566	1155.1537	1167.5834	1232.6069	1270.6551	1290.6584	1310.8785	1347.0919	1418.8531	1443.4586	1462.2394	1485.6243	1493.3019	1507.2821	1579.3231	1827.8496	2902.007	3050.2333	3051.7324	3109.0122	3126.2629	3171.484	3263.7146
CN1N=NC=C1CC=O	Cn1nncc1CC=O	
InChI=1S/C5H7N3O/c1-8-5(2-3-9)4-6-7-8/h3-4H,2H2,1H3	InChI=1S/C5H7N3O/c1-8-5(2-3-9)4-6-7-8/h3-4H,2H2,1H3
