16
gdb 110438	2.74917	1.69579	1.28044	4.4021	67.38	-0.251	-0.0086	0.2423	980.1312	0.124567	-437.823943	-437.816466	-437.815522	-437.856261	28.533	
O	 0.0668849517	 1.3539638731	 0.2850235815	-0.418025
C	 0.1058442927	-0.0392161841	 0.0460180481	-0.089986
C	-1.2978388494	-0.6139273222	-0.0604813416	 0.010637
C	-1.5929238481	-2.1166101134	-0.0266181014	-0.112519
C	-2.7687920264	-1.8470967443	 0.8293860547	-0.023425
C	-1.5696711548	-2.5244983186	 1.4786129124	-0.223664
C	-1.3461688524	-1.2377012446	 2.1878858875	 0.434908
O	-0.846090345	-0.8541886722	 3.1975035804	-0.323034
N	-2.1694016067	-0.4793526299	 1.198417985	-0.244804
H	-0.410938147	 1.4894184707	 1.1118259419	 0.301723
H	 0.623794719	-0.180537161	-0.9091391482	 0.111902
H	 0.6887656415	-0.5691222189	 0.8143613407	 0.107753
H	-1.8357706004	-0.1272932883	-0.8787789318	 0.104293
H	-1.4699709966	-2.8750906907	-0.7909473741	 0.111088
H	-3.8173949915	-2.0994024117	 0.8421158496	 0.129402
H	-1.4384955866	-3.5496791339	 1.7958935653	 0.123752
70.6403	145.4021	166.3022	264.0739	365.2861	433.0407	455.5548	549.0209	636.2856	734.4797	788.4723	806.9865	829.8658	831.6461	848.451	905.1967	932.4398	981.7898	1009.0816	1024.374	1030.4902	1064.4517	1091.7883	1094.3074	1128.1171	1176.6654	1219.6005	1253.5268	1281.5267	1346.0578	1348.2285	1406.9135	1437.2735	1508.0559	1917.8618	2995.5586	3065.0093	3081.347	3184.6406	3220.1393	3250.7491	3797.7485
OCC1C2C3C2C(=O)N13	OC[C@H]1[C@@H]2[C@H]3[C@@H]2C(=O)N13	
InChI=1S/C6H7NO2/c8-1-2-3-4-5(3)7(2)6(4)9/h2-5,8H,1H2	InChI=1S/C6H7NO2/c8-1-2-3-4-5(3)7(2)6(4)9/h2-5,8H,1H2/t2-,3-,4+,5-/m0/s1
