21
gdb 105898	2.0865	1.74928	1.16921	1.992	81.79	-0.2267	0.0751	0.3018	1150.8993	0.181238	-387.006334	-386.997631	-386.996686	-387.03957	33.601	
C	-0.1170399656	 1.5273620286	 0.0327705224	-0.38013
C	 0.0609232646	 0.0046881856	-0.024688015	-0.32699
C	 0.803339076	-0.4618934112	-1.2471298397	 0.328923
C	 2.2482597563	-0.1581925462	-1.7332455825	-0.071705
C	 3.4226311539	-0.6256046621	-0.8844619019	-0.417379
C	 1.7008065318	-1.0964763218	-2.8341684616	-0.106382
C	 0.8513118957	-1.9232255182	-1.82060668	 0.025159
O	-0.3964750353	-1.7967766572	-2.5672424761	-0.335227
C	 0.2658809313	-0.5053214885	-2.7198197339	 0.042496
H	 0.8495143425	 2.0420704706	 0.0454548056	 0.117687
H	-0.6758900038	 1.8917786688	-0.8355363277	 0.118475
H	-0.6652245302	 1.8253197009	 0.9314500569	 0.115316
H	 0.5895758276	-0.3397334074	 0.8738464188	 0.09963
H	-0.9193153597	-0.4883742533	-0.0173629332	 0.115141
H	 2.3974692969	 0.8757466876	-2.067760261	 0.067049
H	 3.2902590513	-1.6588398308	-0.5451524168	 0.11356
H	 4.3605260566	-0.5802084877	-1.4486965009	 0.118071
H	 3.5447633687	 0.0026304839	 0.0048711455	 0.117508
H	 2.1796119481	-1.4705448315	-3.7394740748	 0.07809
H	 1.0608707807	-2.8712407876	-1.3257502952	 0.090978
H	-0.2211410275	 0.2676798276	-3.3147762587	 0.08973
83.3622	157.1071	174.1955	208.8039	214.337	238.4846	296.4132	402.514	525.7333	568.8844	658.8659	731.2729	740.803	783.7249	825.3299	832.7543	891.0596	897.4428	907.1622	913.7302	983.7899	1013.0662	1049.7224	1059.6352	1092.3022	1103.3947	1122.0277	1149.0421	1153.6994	1169.7914	1174.3035	1228.1151	1250.706	1293.1414	1312.003	1337.8326	1375.8673	1408.7718	1411.9663	1420.1281	1478.285	1493.8624	1499.0124	1501.7233	1505.4273	3018.6666	3027.1882	3029.222	3035.0654	3054.3208	3090.9853	3095.8001	3102.6347	3107.2534	3109.9542	3115.4162	3128.0566
CCC12C(C)C3C1OC23	CC[C@@]12[C@@H](C)[C@H]3[C@@H]1O[C@@H]23	
InChI=1S/C8H12O/c1-3-8-4(2)5-6(8)9-7(5)8/h4-7H,3H2,1-2H3	InChI=1S/C8H12O/c1-3-8-4(2)5-6(8)9-7(5)8/h4-7H,3H2,1-2H3/t4-,5-,6-,7+,8+/m0/s1
