19
gdb 115429	4.61788	0.91347	0.84947	2.2495	78.83	-0.2466	0.0387	0.2853	1398.4491	0.157631	-422.980138	-422.970808	-422.969863	-423.015194	33.743	
C	 0.416708378	 0.7997871967	-0.6155580596	-0.238077
O	-0.082860914	-0.4251810323	-0.1302108019	-0.245651
C	-1.3936861049	-0.3532150151	 0.4031531808	 0.088321
C	-2.4818921685	-0.3469678565	-0.6804394582	-0.083769
O	-2.7060569272	-1.7049305045	-1.0450861025	-0.268432
C	-2.0934070066	-2.5826585906	-0.0862174276	-0.038149
C	-1.6759742742	-1.6843717914	 1.0980668338	-0.26257
C	-3.0092034162	-3.6565742036	 0.2834664047	 0.326393
C	-3.7465254953	-4.5493147825	 0.6044870121	-0.452578
H	 1.4418747598	 0.6197513032	-0.9474125245	 0.132221
H	-0.1619482346	 1.1861495417	-1.4673442767	 0.109102
H	 0.4270137931	 1.5708223659	 0.1709289993	 0.105648
H	-1.4813892769	 0.5099519225	 1.0793023452	 0.070454
H	-3.4079968737	 0.1014806041	-0.2903280994	 0.095822
H	-2.1832618874	 0.2115617825	-1.5737918662	 0.108724
H	-1.1958657876	-3.0195755205	-0.5459407607	 0.112487
H	-0.8017433817	-2.0634882315	 1.6280772011	 0.124996
H	-2.5064674392	-1.5789900521	 1.8005445901	 0.118089
H	-4.4016364429	-5.3389816661	 0.8782136802	 0.196968
34.5382	81.224	131.9475	156.0642	209.9229	234.0928	300.542	370.7185	430.5298	516.1291	539.0038	617.1848	643.6175	668.5147	779.1521	838.7968	863.9693	901.3484	951.5015	962.8145	1039.5432	1065.3647	1087.3792	1112.9716	1145.9649	1182.1394	1191.0629	1206.8857	1260.214	1274.2655	1307.3369	1338.2679	1367.5013	1377.2329	1392.5549	1473.8701	1480.2007	1489.6261	1507.9626	1515.0188	2240.0179	2975.6143	2986.4308	3002.0768	3005.2954	3025.8089	3067.871	3078.6967	3116.9687	3141.7805	3504.3389	34.5376	81.2238	131.9472	156.0642	209.9228	234.0929	300.5419	370.7184	430.5298	516.1292	539.0038	617.1851	643.6176	668.5151	779.1522	838.7967	863.9693	901.3484	951.5015	962.8145	1039.5433	1065.3647	1087.3792	1112.9716	1145.9649	1182.1394	1191.063	1206.8857	1260.214	1274.2656	1307.337	1338.2682	1367.5015	1377.233	1392.5548	1473.8702	1480.2007	1489.6262	1507.9626	1515.0187	2240.018	2975.6143	2986.4308	3002.0768	3005.2954	3025.8089	3067.871	3078.6967	3116.9687	3141.7805	3504.3389
COC1COC(C1)C#C	CO[C@H]1CO[C@@H](C1)C#C	
InChI=1S/C7H10O2/c1-3-6-4-7(8-2)5-9-6/h1,6-7H,4-5H2,2H3	InChI=1S/C7H10O2/c1-3-6-4-7(8-2)5-9-6/h1,6-7H,4-5H2,2H3/t6-,7-/m1/s1
