21
gdb 120203	3.7348	0.89011	0.8103	1.4434	80.46	-0.235	0.0852	0.3202	1515.6551	0.180996	-424.140835	-424.131543	-424.130598	-424.175453	34.207	
C	-0.3452775896	 1.4565560463	 1.1617033255	-0.222352
O	-0.2342208252	 0.0816514139	 0.8872934263	-0.239938
C	 0.3151956086	-0.6493330614	 1.968304904	-0.10122
C	 0.3830944413	-2.1012405231	 1.550478563	 0.00564
C	 1.5486759165	-2.5533158523	 0.6278338752	 0.028846
O	 2.4890339689	-2.3495454331	 1.7575300551	-0.313918
C	 1.3212200949	-3.0627202705	 2.3282277426	 0.003864
C	 1.378108467	-4.0256527982	 1.1048107101	 0.047889
C	 0.2346376085	-4.9309291223	 0.6778301101	-0.443984
H	 0.634319419	 1.9121470773	 1.3772798567	 0.104741
H	-0.7700829405	 1.9355356728	 0.2758410927	 0.124132
H	-1.0071038195	 1.6506980159	 2.0214519804	 0.100437
H	 1.3182293357	-0.2814068214	 2.2232167897	 0.108807
H	-0.3233759734	-0.5418056084	 2.8631670805	 0.077979
H	-0.6095418904	-2.4787475543	 1.2968899135	 0.077722
H	 1.8445511638	-2.1645698256	-0.3469020721	 0.095272
H	 1.3490163789	-3.2928889415	 3.3950274765	 0.088371
H	 2.3374112723	-4.5492294349	 1.0797465413	 0.084612
H	-0.7405032904	-4.4384951115	 0.6890883043	 0.12442
H	 0.406701891	-5.3019978224	-0.3381889309	 0.125311
H	 0.1751248725	-5.8035360054	 1.3372362053	 0.123367
66.8587	92.1282	113.2477	179.2768	223.0846	249.8013	288.9125	319.6242	373.6746	444.6614	589.9542	651.9211	745.1818	779.0133	805.4186	850.6334	878.7043	902.2235	987.7212	1031.3865	1034.719	1051.1109	1102.7156	1116.8322	1128.5243	1150.6617	1155.1395	1172.1842	1183.5099	1189.7863	1223.9516	1233.5631	1255.2483	1266.6203	1274.0381	1374.2013	1393.7015	1416.4335	1437.7994	1479.8761	1484.7315	1495.7632	1501.7191	1504.0553	1531.684	2945.9818	2967.3767	3009.1973	3032.2257	3038.0756	3078.9241	3092.9147	3095.8777	3101.1506	3110.2382	3119.7	3124.1917
COCC1C2OC1C2C	COC[C@H]1[C@H]2O[C@@H]1[C@H]2C	
InChI=1S/C7H12O2/c1-4-6-5(3-8-2)7(4)9-6/h4-7H,3H2,1-2H3	InChI=1S/C7H12O2/c1-4-6-5(3-8-2)7(4)9-6/h4-7H,3H2,1-2H3/t4-,5-,6-,7+
