20
gdb 112003	3.28389	1.17972	1.09651	1.9364	81.06	-0.2229	-0.0023	0.2207	1215.554	0.170539	-403.106241	-403.097501	-403.096557	-403.139727	32.908	
C	-0.2138489364	 1.364432201	-0.0332571913	-0.237688
O	 0.1573832701	 0.0072330173	-0.1014524768	-0.245304
C	 0.697995086	-0.5074874401	 1.1058674134	 0.090489
C	-0.3338725992	-0.7966106022	 2.1829792647	-0.128655
C	-0.4267697553	-2.106482344	 2.4322402172	-0.07276
C	 0.5449036648	-2.8966133853	 1.6224381096	-0.074718
C	 1.2796160809	-1.8873638663	 0.7854100987	-0.071186
N	 1.9877453962	-2.6429245133	 1.7983960359	-0.09837
C	 2.5340882669	-2.0118554078	 2.9886244068	-0.31503
H	 0.6322318187	 2.0017558312	 0.270207853	 0.102849
H	-0.5364352524	 1.6607600087	-1.0344097882	 0.128789
H	-1.0444119754	 1.5388013477	 0.6664184072	 0.106798
H	 1.4713270956	 0.188529716	 1.4771738307	 0.070654
H	-0.8818507578	-0.0161583371	 2.6990760874	 0.09985
H	-1.0873038568	-2.5603282529	 3.1628507732	 0.102526
H	 0.2944780078	-3.8992629647	 1.288997637	 0.092333
H	 1.5696775338	-2.0568416624	-0.2475736613	 0.099751
H	 1.8853112755	-1.2624127511	 3.463915952	 0.106052
H	 2.7525515343	-2.7902299966	 3.7265011335	 0.120986
H	 3.4789556528	-1.5290587381	 2.7188950073	 0.122636
70.3662	126.0316	183.028	197.3961	233.928	259.3089	303.7315	391.4937	458.469	492.4438	618.4622	699.6027	756.4625	774.7618	796.727	874.4586	937.3079	957.5231	967.0761	992.9364	1004.8329	1041.0799	1093.2385	1114.0448	1130.1744	1152.0189	1159.9088	1178.1545	1182.1943	1220.2373	1277.9334	1294.0725	1309.5616	1350.3027	1364.5464	1398.4349	1449.9658	1477.943	1487.2319	1490.5134	1507.3973	1510.0555	1656.9109	2942.3352	2973.4242	2997.7369	3023.4145	3070.7074	3101.0246	3113.0086	3148.445	3156.5616	3182.1962	3206.7034
COC1C=CC2C1N2C	CO[C@H]1C=C[C@H]2[C@@H]1N2C	
InChI=1S/C7H11NO/c1-8-5-3-4-6(9-2)7(5)8/h3-7H,1-2H3	InChI=1S/C7H11NO/c1-8-5-3-4-6(9-2)7(5)8/h3-7H,1-2H3/t5-,6-,7-,8?/m0/s1
