18
gdb 87376	2.14255	1.56402	1.12207	2.9966	74.38	-0.2533	0.0264	0.2796	1139.843	0.146352	-439.069169	-439.060275	-439.059331	-439.102679	33.27	
C	-0.2960995594	 1.4898749039	 0.0161739291	-0.40762
C	 0.1147886787	 0.0367619424	-0.0263206996	 0.084238
O	 1.3884756028	-0.1592110762	-0.7551578308	-0.290942
C	 1.9928094383	-0.7159252794	 0.3550011866	 0.387492
N	 3.1532870444	-1.1602160406	 0.5326162869	-0.568325
C	 0.7773145215	-0.5872937899	 1.2001876928	 0.175966
C	 0.6666147901	-0.2493741501	 2.6658535884	-0.389833
C	 0.2076238719	-1.5885075433	 2.1547239991	 0.034514
O	-1.1593325081	-1.8288495257	 1.9993253851	-0.421423
H	 0.4858572857	 2.105174894	 0.4700423208	 0.128918
H	-0.4922041907	 1.8607456823	-0.9942142596	 0.132831
H	-1.2143578207	 1.6000259871	 0.6024931562	 0.127482
H	-0.6578845124	-0.5926978391	-0.4759858454	 0.109731
H	 3.7171244005	-1.0831748341	-0.3148573936	 0.226656
H	 1.5903179633	-0.1944956943	 3.231820326	 0.139779
H	-0.1042407412	 0.4615267882	 2.9456775345	 0.122156
H	 0.8228096702	-2.4601425312	 2.3746661495	 0.113932
H	-1.5326375751	-2.0098175238	 2.8685350741	 0.294448
101.9766	121.4238	157.7844	184.6642	231.6655	268.9402	298.0013	392.8901	417.868	507.2826	552.9186	600.1829	677.9986	734.83	842.5587	850.6659	853.7901	872.5797	936.8148	991.5919	1018.829	1043.4649	1063.2632	1080.1974	1100.609	1135.6743	1168.0193	1192.7968	1249.2839	1281.854	1306.9213	1369.1837	1386.3989	1409.5867	1425.0137	1485.1888	1488.3286	1499.7492	1823.4917	3040.1818	3077.4793	3112.1336	3116.5107	3124.1751	3130.1313	3225.8915	3484.1468	3806.1561
CC1OC(=N)C11CC1O	C[C@H]1O[C]([NH])[C@]21C[C@H]2O	
InChI=1S/C6H9NO2/c1-3-6(2-4(6)8)5(7)9-3/h3-4,7-8H,2H2,1H3	InChI=1S/C6H9NO2/c1-3-6(2-4(6)8)5(7)9-3/h3-4,7-8H,2H2,1H3/t3-,4-,6+/m1/s1
