17
gdb 80079	2.50001	1.94977	1.59174	2.8849	72.27	-0.2271	-0.0071	0.22	904.0229	0.138155	-421.800311	-421.793529	-421.792585	-421.831173	28.186	
O	 0.232625297	 1.3685848854	-0.0690977917	-0.419851
C	 0.0346837787	 0.0060809813	-0.0057331034	 0.11681
C	-0.4472484069	-0.71987721	 1.2560820249	-0.163945
C	-0.8950442592	 0.0338311989	 2.4356518051	-0.038366
C	-1.9989700056	 0.7931648231	 2.4746156266	-0.106875
C	-2.9200721044	 0.8894986459	 1.3237909971	 0.005844
O	-2.4723269927	 1.606382442	 0.1358975345	-0.277874
C	-2.582958227	 0.1690269862	 0.0792411065	 0.026505
C	-1.3258985903	-0.6410168743	-0.009118301	-0.147589
H	-0.6320065634	 1.794835174	 0.0457996043	 0.304314
H	 0.8123178156	-0.5250903607	-0.5478303452	 0.10907
H	 0.0495432953	-1.6631087371	 1.4631403629	 0.09193
H	-0.2710704018	-0.0393708844	 3.322510486	 0.103804
H	-2.2671354302	 1.3295801611	 3.3788018238	 0.096227
H	-3.9656623696	 1.0913838447	 1.5455105505	 0.101494
H	-3.4001819357	-0.1707401075	-0.5535411331	 0.105401
H	-1.4351425098	-1.5527839585	-0.5864566375	 0.093102
134.4988	232.2995	315.076	366.9225	441.1497	525.7805	530.3559	577.7004	623.9976	691.8494	720.1097	758.0334	780.0231	803.1095	824.6186	893.2775	925.722	958.0855	978.1308	989.5378	1044.6311	1046.7115	1087.0619	1113.5628	1122.9048	1154.8189	1209.0115	1243.5467	1285.2769	1343.5563	1366.8011	1375.1457	1388.2371	1435.4196	1452.0081	1487.6838	1686.717	3128.2028	3139.4107	3140.4958	3148.3575	3160.9326	3168.5298	3187.7629	3655.861
OC1C2C=CC3OC3C12	O[C@H]1[C@H]2C=C[C@H]3O[C@H]3[C@@H]12	
InChI=1S/C7H8O2/c8-6-3-1-2-4-7(9-4)5(3)6/h1-8H	InChI=1S/C7H8O2/c8-6-3-1-2-4-7(9-4)5(3)6/h1-8H/t3-,4+,5+,6-,7+/m0/s1
