17
gdb 61041	2.75317	1.18267	0.98031	4.2949	71.6	-0.2514	0.001	0.2524	1228.8067	0.135506	-455.154412	-455.145425	-455.144481	-455.189452	31.402	
C	 0.2349473719	 1.4207928986	-0.0326280056	-0.354832
N	-0.1559347723	 0.0216285611	 0.0627506986	-0.064917
C	-0.4343835064	-0.5190909282	 1.2942304877	 0.153873
O	-0.3815183738	 0.0919819028	 2.3395027919	-0.338162
C	-0.1355797249	-0.752907112	-1.1454467977	-0.089364
C	 1.1392760724	-1.5445227774	-1.5607027051	-0.098466
O	 0.3375580678	-2.7597510966	-1.6774285671	-0.244049
C	-0.7923964705	-2.1320267733	-1.2032149354	 0.401909
N	-1.9382549677	-2.5698979177	-0.9575487992	-0.529968
H	 1.2740578179	 1.5246147971	-0.368348849	 0.125562
H	-0.4144202827	 1.9517860924	-0.7379511156	 0.130688
H	 0.1362497108	 1.8588992248	 0.9599498823	 0.176071
H	-0.7311627214	-1.5777855716	 1.2291316067	 0.107189
H	-0.5013297182	-0.1293604061	-1.9681685398	 0.126208
H	 1.6024754111	-1.2868275535	-2.5152817639	 0.127518
H	 1.889786123	-1.6424012089	-0.7724472551	 0.132253
H	-2.0111636571	-3.5709691716	-1.1460094037	 0.238488
30.5046	92.658	132.5222	149.0022	188.6448	304.0257	321.278	331.6975	410.2756	485.7357	552.9021	701.6255	759.5898	839.9823	868.2036	939.7578	954.4973	982.6663	1012.5568	1026.9906	1069.7873	1117.9901	1157.0905	1161.0223	1211.2474	1226.8332	1268.0576	1331.1714	1365.1564	1424.2146	1447.2202	1453.5619	1499.8133	1510.7807	1517.8994	1792.4222	1827.6272	3016.809	3021.4142	3055.3388	3065.625	3074.3378	3132.9177	3163.3619	3483.3068
CN(C=O)C1COC1=N	CN(C=O)[C@H]1CO[C]1[NH]	
InChI=1S/C5H8N2O2/c1-7(3-8)4-2-9-5(4)6/h3-4,6H,2H2,1H3	InChI=1S/C5H8N2O2/c1-7(3-8)4-2-9-5(4)6/h3-4,6H,2H2,1H3/t4-/m0/s1
