17
gdb 106738	2.30855	1.55653	1.07825	3.7387	69.55	-0.246	-0.0324	0.2137	1134.8176	0.13311	-458.94027	-458.931226	-458.930282	-458.974361	32.946	
C	-0.0999920986	 1.5171659347	 0.0295657489	-0.499518
C	 0.1578606701	 0.0461863504	 0.0005094857	 0.317897
C	 0.59970596	-0.8262910083	-1.1962813733	-0.417978
C	 1.3070782804	-1.7238517111	-0.1415284504	 0.396383
O	 2.0926461211	-2.6273334961	-0.1927996971	-0.317543
C	 0.8033485538	-0.8566744035	 1.0025238404	 0.215065
C	 1.4142458073	-0.7236503085	 2.3628280614	-0.195773
O	 1.4732563202	-1.9757168088	 3.0229733622	-0.41156
O	-0.6333341637	-0.820934839	 0.8154038077	-0.303953
H	 0.7473475092	 2.0675565174	-0.390789026	 0.133543
H	-0.9874403498	 1.7604857363	-0.5647414971	 0.142367
H	-0.2726239146	 1.8581222771	 1.0532915788	 0.141588
H	-0.2125544669	-1.2704600412	-1.7751783166	 0.138009
H	 1.3327093832	-0.3671939675	-1.867167607	 0.132785
H	 2.4138611519	-0.270874801	 2.2633938003	 0.101182
H	 0.8049717574	-0.0619627458	 2.9851824645	 0.126889
H	 1.9770596588	-2.574326075	 2.4584202478	 0.300617
61.6822	107.6112	128.8042	196.524	229.1252	259.3598	335.6306	403.9698	412.6323	498.957	511.3796	566.4046	616.9574	672.514	743.8172	819.7786	886.7159	943.3584	948.4327	1008.1739	1052.5671	1065.8759	1095.421	1146.6382	1178.68	1189.0015	1250.3936	1306.2851	1372.1314	1410.0178	1422.7005	1439.769	1471.4657	1485.5772	1488.819	1500.4536	1880.0238	2977.8173	3039.4204	3063.3782	3089.9136	3103.1367	3126.8859	3127.872	3792.3786
CC12CC(=O)C1(CO)O2	C[C@@]12CC(=O)[C@]1(CO)O2	
InChI=1S/C6H8O3/c1-5-2-4(8)6(5,3-7)9-5/h7H,2-3H2,1H3	InChI=1S/C6H8O3/c1-5-2-4(8)6(5,3-7)9-5/h7H,2-3H2,1H3/t5-,6+/m1/s1
