18
gdb 111632	2.602	1.49891	1.21108	1.5505	70.91	-0.2453	0.008	0.2533	1082.3244	0.147765	-439.075691	-439.067228	-439.066284	-439.109243	31.667	
C	-0.1039373363	 1.5195764591	-0.0493576541	-0.472345
C	-0.0308087109	 0.0180938964	 0.0269885423	 0.290072
N	-0.7109611369	-0.7090221516	-1.031649048	-0.28576
C	-1.1714787218	-1.7670963118	-0.5011884438	 0.078689
O	-0.97348773	-1.975337046	 0.8300080519	-0.216664
C	-0.2186348788	-0.8454110418	 1.2674520651	-0.00616
C	 1.1566260406	-0.6976449841	 0.6735011641	-0.121255
C	 1.8995500104	-1.873835704	 0.0733978195	-0.099086
O	 2.1925980501	-2.8752008837	 1.0379877787	-0.421866
H	 0.4177544192	 1.8817920838	-0.9407408535	 0.13581
H	-1.1440693984	 1.8550882064	-0.1075071584	 0.128196
H	 0.3596429273	 1.9793139205	 0.8281923553	 0.117028
H	-1.7222773271	-2.5513842203	-1.0060669757	 0.147251
H	-0.4811292536	-0.5303231173	 2.2694595195	 0.114434
H	 1.7803545243	-0.0271326516	 1.2596048077	 0.101035
H	 1.3472881361	-2.2878933279	-0.7795997325	 0.107435
H	 2.8671855567	-1.5345656745	-0.3084812138	 0.115127
H	 1.3484328793	-3.2134110017	 1.3556949357	 0.288062
39.8121	147.427	183.4772	229.732	246.3491	308.0851	348.0389	381.623	437.8676	598.2179	641.9326	684.2936	732.512	774.1197	881.505	898.1002	926.5382	942.1992	956.5963	994.2513	1031.1222	1058.9104	1089.4943	1105.1868	1125.8696	1145.8467	1207.1399	1242.612	1279.1949	1311.3271	1344.0667	1387.977	1415.9852	1421.5012	1443.2219	1480.2577	1498.5204	1508.3361	1668.6254	3023.8009	3038.5093	3082.2482	3107.207	3115.0984	3144.0759	3193.2632	3229.1611	3810.0692
CC12N=COC1C2CO	C[C@]12N=CO[C@H]1[C@H]2CO	
InChI=1S/C6H9NO2/c1-6-4(2-8)5(6)9-3-7-6/h3-5,8H,2H2,1H3	InChI=1S/C6H9NO2/c1-6-4(2-8)5(6)9-3-7-6/h3-5,8H,2H2,1H3/t4-,5+,6-/m1/s1
