19
gdb 36668	3.09481	0.79337	0.66978	1.0369	88.23	-0.2438	0.046	0.2898	1659.6988	0.156451	-348.677097	-348.667291	-348.666347	-348.712466	36.279	
C	-0.1155303644	-1.2044591246	-0.001662182	-0.435027
C	-0.0611341063	-0.0095933863	 0.1177886602	 0.291795
C	 0.0378844246	 1.4385522088	 0.2492357004	-0.350323
C	 1.3686392007	 2.0010357899	-0.2973150708	-0.20929
C	 1.4448255492	 3.5042830227	-0.1594467446	 0.000538
C	 1.8815029359	 4.1429663292	 1.1284384853	-0.289781
C	 2.7868056182	 4.2267687261	-0.0935600684	-0.213629
C	 4.0236869767	 3.5029508427	-0.1307252944	 0.335724
C	 5.0671273013	 2.9049209998	-0.1715324186	-0.469872
H	-0.1747276388	-2.2595963765	-0.1026555215	 0.192943
H	-0.8027811352	 1.9109321722	-0.2761766756	 0.127112
H	-0.0685196891	 1.7212547636	 1.3043412846	 0.132411
H	 2.2043708821	 1.5334738377	 0.231764071	 0.124044
H	 1.4723093589	 1.7151924564	-1.350161854	 0.115645
H	 0.6837015708	 4.0456480562	-0.7168728877	 0.091564
H	 1.4005652138	 5.0567501009	 1.4586609786	 0.118874
H	 2.2113604316	 3.4891588263	 1.9284914219	 0.127819
H	 2.8185017842	 5.1923100063	-0.5901712902	 0.113654
H	 5.9877814356	 2.3774253686	-0.2052728442	 0.195799
63.2567	73.6361	86.5498	154.6192	196.538	248.2184	330.3312	349.2408	395.5949	501.9198	526.6095	580.0665	614.7301	616.3818	636.4301	650.4668	759.4604	775.7307	816.8933	872.0389	931.0922	952.8868	973.602	1034.0136	1055.7986	1068.4217	1121.6057	1124.603	1154.7594	1221.3595	1238.489	1282.8774	1311.5681	1362.8822	1382.0272	1420.2706	1472.6885	1484.8121	1496.9285	2234.7858	2239.0893	3016.826	3043.5029	3050.958	3094.5138	3131.7057	3136.49	3147.573	3226.1547	3505.1351	3507.7885
C#CCCC1CC1C#C	C#CCC[C@H]1C[C@H]1C#C	
InChI=1S/C9H10/c1-3-5-6-9-7-8(9)4-2/h1-2,8-9H,5-7H2	InChI=1S/C9H10/c1-3-5-6-9-7-8(9)4-2/h1-2,8-9H,5-7H2/t8-,9+/m1/s1
