14
gdb 127296	5.35701	1.28262	1.0417	6.0961	73.09	-0.2188	-0.0444	0.1745	1071.1993	0.10197	-432.84462	-432.837373	-432.836429	-432.876988	26.862	
C	-0.0229770108	 1.4397066712	-0.0019170462	-0.335559
N	 0.021386266	-0.0114376405	 0.0071135812	 0.024172
C	 0.1084689308	-0.7809618372	-1.1512356457	-0.267893
C	 0.0812254027	-2.0871198681	-0.7249103459	 0.344343
O	 0.1259754928	-3.3387040284	-1.1698745506	-0.285131
N	 0.0384793981	-4.1704297302	 0.1101652375	-0.030343
N	-0.0391345108	-3.4053580427	 1.0818281594	-0.199194
C	-0.022986646	-2.0898538799	 0.6848248159	 0.215124
C	-0.0604999087	-0.7797561701	 1.1328925947	-0.20369
H	 0.8104598822	 1.8393002148	-0.5861998419	 0.151707
H	-0.9624398936	 1.799958915	-0.4331311624	 0.151886
H	 0.0596390518	 1.8070135681	 1.0217579878	 0.149753
H	 0.1788689306	-0.3192274712	-2.1199737039	 0.137622
H	-0.1364843851	-0.3391153508	 2.11184505	 0.147202
38.2181	153.2562	279.6079	299.3248	354.5243	394.3143	556.2908	562.9159	602.0919	617.3286	647.5433	721.0336	764.0375	766.1041	855.0539	971.8252	1012.3808	1085.5248	1148.2229	1168.0445	1222.3985	1246.2031	1360.4336	1414.8474	1446.8071	1481.0673	1486.4483	1508.4614	1519.651	1566.1124	1642.2128	3043.0818	3107.1467	3147.2832	3282.5273	3287.1365
CN1C=C2ON=NC2=C1	Cn1cc2onnc2c1	
InChI=1S/C5H5N3O/c1-8-2-4-5(3-8)9-7-6-4/h2-3H,1H3	InChI=1S/C5H5N3O/c1-8-2-4-5(3-8)9-7-6-4/h2-3H,1H3
