16
gdb 19769	3.16818	2.87246	2.42699	2.1765	61.87	-0.2325	0.0838	0.3163	671.4561	0.134232	-383.736481	-383.730933	-383.729989	-383.765945	22.929	
C	 0.0401963348	 1.5467438043	 0.1311625555	-0.251151
C	 1.5262318605	 1.8297959756	-0.0123967294	-0.121014
C	 2.3986655473	 0.7904441529	 0.679523767	-0.11404
C	 1.7329267509	-0.1750582345	 1.645746124	-0.084857
O	 0.4414323572	-0.5980626847	 1.1921441241	-0.265454
C	 0.0476355729	 0.0113695572	-0.0140473953	 0.172299
O	 0.9944822334	-0.2535289351	-1.0398360866	-0.250728
C	 2.0558251766	 0.6419564848	-0.7772722398	 0.100245
H	-0.3929133912	 1.8409330743	 1.0901159032	 0.11253
H	-0.52841868	 2.0177471894	-0.6770735977	 0.109155
H	 1.8907159817	 2.8361777627	-0.1754463924	 0.090301
H	 3.4120684603	 1.0794273152	 0.9394827254	 0.092122
H	 2.3538829554	-1.0721267265	 1.767349085	 0.111575
H	 1.6231415433	 0.2865773776	 2.6374765097	 0.102053
H	-0.9003250511	-0.4470655126	-0.2950370949	 0.093829
H	 2.786804998	 0.6814258493	-1.5742029578	 0.103136
145.0462	383.5363	416.0895	501.6421	562.2881	667.0393	697.2565	773.0752	788.7633	838.4797	863.9485	905.222	939.4887	961.5162	972.1077	1012.5295	1037.591	1059.1646	1093.8691	1097.9319	1107.6273	1139.0764	1154.706	1195.0004	1252.183	1266.7464	1302.86	1329.5574	1356.4174	1370.2858	1408.1072	1440.6732	1488.2539	1523.5086	2995.3301	3031.0251	3054.7183	3109.5594	3126.9592	3160.3694	3187.6507	3203.7531
C1C2C3COC1OC23	C1[C@H]2[C@H]3CO[C@@H]1O[C@@H]23	
InChI=1S/C6H8O2/c1-3-4-2-7-5(1)8-6(3)4/h3-6H,1-2H2	InChI=1S/C6H8O2/c1-3-4-2-7-5(1)8-6(3)4/h3-6H,1-2H2/t3-,4+,5+,6-/m0/s1
