19
gdb 61686	4.54487	0.77435	0.70842	2.9788	72.73	-0.2424	-0.0442	0.1982	1560.4834	0.157478	-460.143795	-460.134441	-460.133497	-460.179306	32.967	
O	-0.0140843265	 1.4716123696	-0.0809040102	-0.426799
C	 0.0048583861	 0.0724009234	 0.0079443376	 0.04703
C	 0.621968339	-0.5684357868	-1.2499268437	-0.242128
C	-0.1128289229	-0.165796318	-2.521891497	-0.009252
C	 0.1217481906	 1.2486810938	-3.0999633913	-0.069349
O	 0.4790723843	 0.7053840258	-4.3907061309	-0.273319
C	 0.4632705025	-0.6381937467	-3.8758616459	-0.09599
C	 0.7536782734	-0.3642195866	 1.250000405	 0.136281
O	 1.2495866629	 0.4351573155	 2.0066976017	-0.257874
H	 0.4680433319	 1.7914858457	 0.6984546933	 0.296244
H	-1.0264021215	-0.3150850705	 0.114352142	 0.094773
H	 1.6764461583	-0.2723292346	-1.3201209225	 0.112626
H	 0.5973433544	-1.6611597549	-1.1379777782	 0.101023
H	-1.1778323252	-0.3991383989	-2.4269181251	 0.081104
H	-0.747474118	 1.9117729041	-3.1554205446	 0.107782
H	 0.9531507039	 1.7913712609	-2.6356288891	 0.104442
H	 1.4744645646	-1.067553091	-3.8125838032	 0.091763
H	-0.1657364386	-1.3063254374	-4.4761995551	 0.101528
H	 0.825749951	-1.4572518633	 1.4244467771	 0.100114
51.3287	73.0277	88.5439	108.9293	199.3485	279.8596	301.0086	336.4704	419.6542	426.0418	504.3625	736.0688	749.525	839.712	866.9707	885.5811	901.8093	970.1388	988.7289	1006.1986	1035.5202	1050.2964	1123.7923	1149.7808	1154.1207	1162.9226	1175.4636	1245.3867	1254.5673	1282.0373	1306.1268	1323.0112	1350.9598	1370.9955	1401.9019	1405.2766	1437.1943	1474.1057	1511.5391	1536.5426	1813.4271	2922.6571	2938.6487	2986.7721	3013.7454	3032.2186	3041.5827	3053.431	3066.7532	3084.0531	3686.7627
OC(CC1COC1)C=O	O[C@@H](CC1COC1)C=O	
InChI=1S/C6H10O3/c7-2-6(8)1-5-3-9-4-5/h2,5-6,8H,1,3-4H2	InChI=1S/C6H10O3/c7-2-6(8)1-5-3-9-4-5/h2,5-6,8H,1,3-4H2/t6-/m0/s1
