16
gdb 26453	4.28384	1.09848	0.87915	6.4929	74.43	-0.2071	0.0177	0.2247	1245.7079	0.126174	-434.128314	-434.120127	-434.119182	-434.161621	29.762	
C	 0.0386565912	 1.4511401092	-0.0050835793	-0.355511
N	-0.0018224144	-0.0008735485	-0.0017076442	-0.18751
C	-0.0489098903	-0.6776969497	 1.1985479882	 0.142233
O	-0.0592551939	-0.1342863899	 2.2832122674	-0.346906
C	 0.0084272168	-0.6688124961	-1.2278505254	 0.405311
C	 0.0535271624	-0.1053036273	-2.4821424801	-0.211739
N	 0.0438621994	-1.1860172356	-3.3475560451	-0.243768
C	-0.0051020043	-2.3115940292	-2.5944619722	 0.025637
N	-0.0276988396	-2.0386937636	-1.3087568572	-0.326824
H	 0.9513418333	 1.8117655408	-0.4934249473	 0.127263
H	-0.8286850931	 1.8613004978	-0.5351889643	 0.127262
H	 0.0234360228	 1.7797290024	 1.0331128478	 0.171639
H	-0.0757307559	-1.7661494571	 1.0528940346	 0.126549
H	 0.0899572178	 0.9099835425	-2.8332102343	 0.134467
H	 0.0688142283	-1.137275281	-4.3516527268	 0.271928
H	-0.0224467605	-3.3009287149	-3.0257092618	 0.139969
53.3575	129.9245	183.9091	192.9608	301.603	324.925	371.0495	459.9431	485.4719	494.7907	650.6253	664.4656	738.0072	811.8856	817.7444	940.4193	951.0463	1033.6089	1046.261	1095.5206	1146.1529	1160.4236	1180.1424	1237.177	1325.281	1347.6181	1391.5184	1426.7935	1434.466	1481.6912	1496.3298	1513.8057	1537.3521	1621.6119	1785.8726	3023.0458	3055.3966	3075.5757	3166.5945	3257.852	3296.6092	3675.1566
CN(C=O)C1=CNC=N1	CN(C=O)c1c[nH]cn1	
InChI=1S/C5H7N3O/c1-8(4-9)5-2-6-3-7-5/h2-4H,1H3,(H,6,7)	InChI=1S/C5H7N3O/c1-8(4-9)5-2-6-3-7-5/h2-4H,1H3,(H,6,7)
