18
gdb 87065	2.5108	1.33382	1.07374	0.7582	78.55	-0.2344	0.0367	0.2711	1175.8788	0.145866	-401.862887	-401.853692	-401.852748	-401.896773	34.534	
O	 0.1520542556	 1.3160061414	 0.2644055941	-0.410293
C	 0.032638632	-0.0591758701	 0.1180803638	 0.075141
C	-0.469340751	-0.8100077081	 1.3033303194	-0.333759
C	-1.3604601476	-0.7054114333	 0.0617851745	 0.09352
C	-2.4855148114	 0.1850212973	 0.0949900858	 0.221988
C	-3.4324718587	 0.9282442062	 0.0584562617	-0.443008
C	-1.5131770172	-1.9427855351	-0.7883655519	-0.033813
C	-2.8065899977	-2.6598969894	-0.8922053252	-0.256379
N	-2.2674059804	-1.9146155614	-2.0473948161	-0.328867
H	-0.2302799292	 1.7399341485	-0.5121586182	 0.293541
H	 0.7893701552	-0.5330255297	-0.5081343423	 0.09951
H	-0.05022827	-1.7843230436	 1.5292353826	 0.124157
H	-0.7581853348	-0.213631831	 2.1599682504	 0.13972
H	-4.2687927496	 1.5828799232	 0.0619232889	 0.198552
H	-0.5970752766	-2.5284767501	-0.8459562293	 0.087568
H	-2.8229773934	-3.7398779118	-1.0076071568	 0.116848
H	-3.6556129585	-2.2388806473	-0.3613349306	 0.122593
H	-2.7585117266	-1.0247347758	-2.1193717508	 0.232979
74.3883	121.573	147.5632	174.6885	226.622	250.3172	354.0098	379.2449	389.5519	481.5223	560.1715	588.288	635.4312	661.519	666.3626	817.0054	838.379	860.2163	896.2526	930.3439	972.961	1008.9316	1022.1711	1053.4307	1090.0107	1112.5463	1151.3695	1174.6352	1191.2131	1235.5384	1272.3248	1308.5106	1314.9373	1333.3884	1409.6108	1426.7791	1475.0393	1506.1699	2224.6526	3097.0982	3112.1098	3116.8359	3143.1766	3201.3482	3241.101	3480.3386	3499.738	3798.3472
OC1CC1(C#C)C1CN1	O[C@H]1C[C@]1(C#C)[C@H]1CN1	
InChI=1S/C7H9NO/c1-2-7(3-6(7)9)5-4-8-5/h1,5-6,8-9H,3-4H2	InChI=1S/C7H9NO/c1-2-7(3-6(7)9)5-4-8-5/h1,5-6,8-9H,3-4H2/t5-,6+,7-/m1/s1
