21
gdb 54209	2.70577	1.28556	1.17595	2.489	82.8	-0.2377	-0.0089	0.2288	1180.627	0.181128	-387.128244	-387.118771	-387.117827	-387.162885	35.416	
C	-0.029078921	 1.6137868705	-0.0520868139	-0.478125
C	-0.2535865297	 0.1130864712	 0.0731313623	 0.341181
O	-0.7072009941	-0.3586498338	 1.0914695272	-0.308406
C	 0.1014217578	-0.7653029988	-1.131588899	 0.206306
C	-1.0067455346	-0.5818937616	-2.1940539556	-0.44093
C	 1.4920365621	-0.4212580425	-1.7655960933	-0.310652
C	 2.0633700982	-1.7735522226	-2.1128399226	-0.065172
C	 1.3703420037	-2.7675980574	-1.5617287955	-0.062469
C	 0.2044688257	-2.2711885891	-0.7480511917	-0.292765
H	 1.0261799355	 1.8354173997	 0.1461257118	 0.146744
H	-0.2527683363	 1.991876348	-1.0528116583	 0.13061
H	-0.6333309215	 2.1328024314	 0.6931799955	 0.141747
H	-1.0700371484	 0.4509543379	-2.550371037	 0.114789
H	-0.7897754036	-1.2207333893	-3.056170322	 0.129625
H	-1.9843686272	-0.8679655035	-1.7937465106	 0.128523
H	 1.3927376427	 0.2394757373	-2.6353860947	 0.10122
H	 2.1523276667	 0.1015169451	-1.0596055452	 0.105157
H	 2.9591459379	-1.8856488105	-2.7137263702	 0.092198
H	 1.6132321541	-3.8211538106	-1.6474373533	 0.092461
H	 0.3762639382	-2.389918312	 0.3279680983	 0.126032
H	-0.7264924761	-2.8084286995	-0.9631437322	 0.101927
50.6133	79.032	106.0328	205.747	239.8319	274.8302	328.9046	346.2934	389.2723	416.3899	490.9925	597.7335	614.8143	695.7791	764.9674	779.2119	865.4877	925.0577	932.4279	949.4217	976.2983	985.1964	987.8966	1001.8527	1022.0356	1096.2593	1117.0383	1132.9927	1151.3639	1200.5413	1230.7935	1277.92	1297.424	1338.7664	1366.5427	1381.5437	1402.299	1462.4013	1475.4854	1485.0444	1489.5712	1498.4363	1502.2496	1692.3112	1798.8638	3005.9611	3031.4611	3036.0672	3042.6173	3043.7622	3063.5887	3103.3432	3107.891	3110.5531	3151.8905	3179.6862	3205.0819
CC(=O)C1(C)CC=CC1	CC(=O)[C@@]1(C)CC=CC1	
InChI=1S/C8H12O/c1-7(9)8(2)5-3-4-6-8/h3-4H,5-6H2,1-2H3	InChI=1S/C8H12O/c1-7(9)8(2)5-3-4-6-8/h3-4H,5-6H2,1-2H3
