17
gdb 105555	1.97459	1.53038	1.28627	4.0673	73.64	-0.2873	-0.0052	0.2821	1100.359	0.135561	-418.020322	-418.011406	-418.010462	-418.054115	32.145	
C	-0.0699105129	 1.6244970151	-0.0112432571	-0.401255
C	 0.0585526198	 0.1002256203	 0.0164376614	-0.24351
C	 0.739954602	-0.482381882	-1.2401865002	-0.003039
C	 0.635509968	-2.0270166745	-1.4127913885	-0.121977
O	-0.2287385495	-1.8473626597	-2.5727915115	-0.248042
C	-0.1374541627	-0.4775556185	-2.500321078	 0.433651
N	-0.6322937669	 0.4288538646	-3.2033298042	-0.529989
C	 2.0835875209	 0.0508950642	-1.4317247622	 0.270803
N	 3.1578505143	 0.456618591	-1.5616683841	-0.3376
H	 0.9140854165	 2.101615799	-0.0394967343	 0.144366
H	-0.6313032749	 1.9517548916	-0.8899090079	 0.157988
H	-0.5897860435	 1.9742557592	 0.884928732	 0.120631
H	 0.6323392612	-0.2219395957	 0.8930777553	 0.120724
H	-0.9316596869	-0.3632014137	 0.0928032516	 0.116594
H	 1.558809164	-2.541553628	-1.6827337362	 0.146663
H	 0.1142499694	-2.5473753083	-0.6065179785	 0.133187
H	-1.2000280488	 0.0576771054	-3.9665326575	 0.240802
104.0119	108.4616	131.3409	170.0545	186.1042	265.8782	289.7643	373.7607	419.708	544.9733	559.697	636.0706	697.7234	767.6788	795.943	860.7705	907.8692	945.8611	977.3305	1008.9122	1014.7015	1055.044	1127.4366	1154.4182	1180.0654	1222.7885	1231.5394	1313.7924	1358.3758	1369.0155	1419.6154	1483.9092	1497.1116	1510.1343	1512.7418	1828.7402	2358.5539	3034.3675	3049.1	3074.2031	3075.5169	3119.7318	3132.8127	3142.8369	3485.8437
CCC1(COC1=N)C#N	CC[C@]1(CO[C]1[NH])C#N	
InChI=1S/C6H8N2O/c1-2-6(3-7)4-9-5(6)8/h8H,2,4H2,1H3	InChI=1S/C6H8N2O/c1-2-6(3-7)4-9-5(6)8/h8H,2,4H2,1H3/t6-/m1/s1
