20
gdb 111611	2.74518	1.57741	1.33799	1.7784	77.83	-0.2143	0.0661	0.2804	1053.0486	0.17177	-403.099822	-403.091877	-403.090933	-403.132334	31.252	
C	 0.5505167634	 0.1030120259	 1.6365634097	-0.372636
C	 0.0952358393	 0.1812944512	 0.1828540054	-0.117619
N	-1.1452832302	-0.5700116349	-0.007673189	-0.083207
C	-1.5593429962	-1.2340715432	-1.2205518395	-0.048272
C	-0.552257869	-1.738656592	-2.2675284019	-0.280862
C	 0.2502435822	-2.8482852178	-1.594204804	 0.039231
O	 1.0716312469	-2.4354239498	-0.4955879983	-0.248682
C	-0.2145686185	-2.9994427344	-0.2046429122	 0.025443
C	-1.3340342951	-2.0075641939	 0.0594065857	-0.067692
H	 1.405331887	 0.7649578212	 1.8045562307	 0.110567
H	-0.2566762322	 0.4003102381	 2.3129980004	 0.118343
H	 0.8587260375	-0.9151734114	 1.8916208692	 0.125118
H	-0.1482705328	 1.2215159066	-0.0693122403	 0.092095
H	 0.9089104225	-0.1398248231	-0.4732576624	 0.109033
H	-2.5498133829	-0.9654268071	-1.5847563622	 0.088301
H	-1.1045222283	-2.1593355699	-3.1151271882	 0.109934
H	 0.0946438558	-0.9489541773	-2.6652663788	 0.120847
H	 0.6637696968	-3.6618411338	-2.1865256904	 0.09776
H	-0.1984282419	-3.942133896	 0.335877806	 0.096467
H	-2.1416679142	-2.3496309885	 0.7027244902	 0.085829
72.2481	138.3893	215.8429	252.3232	287.2607	346.5203	398.3221	505.9243	583.1788	679.703	711.2645	759.377	782.2199	814.1696	859.2819	860.7889	882.7493	916.6445	961.6731	982.1053	1021.3449	1036.5415	1047.9193	1071.9469	1100.8717	1120.1334	1141.0422	1168.9302	1204.8753	1258.5694	1287.8286	1305.1093	1315.0823	1328.3499	1345.8032	1384.0964	1400.836	1415.5003	1431.1098	1471.2509	1489.9825	1499.8083	1513.6378	3020.4527	3040.8177	3045.2255	3079.6751	3084.1841	3109.9224	3113.9207	3117.7086	3127.5587	3133.1301	3154.9853
CCN1C2CC3OC3C12	CCN1[C@H]2C[C@H]3O[C@H]3[C@@H]12	
InChI=1S/C7H11NO/c1-2-8-4-3-5-7(9-5)6(4)8/h4-7H,2-3H2,1H3	InChI=1S/C7H11NO/c1-2-8-4-3-5-7(9-5)6(4)8/h4-7H,2-3H2,1H3/t4-,5+,6-,7+,8?/m0/s1
