19
gdb 43980	2.90338	1.59869	1.37782	3.4576	79.23	-0.2327	-0.0014	0.2313	1007.9119	0.161432	-385.891158	-385.883875	-385.88293	-385.922718	29.7	
O	-0.0599596038	 0.0730274427	-0.2703574272	-0.322283
C	-0.0213966512	 1.2319231251	 0.0414187347	 0.346682
C	-1.1488689307	 2.2908453738	 0.2450924284	-0.420935
C	-0.0629019232	 3.3513822404	-0.0218487311	 0.276207
C	 0.9535827514	 3.2943648017	 1.0573259289	-0.371528
C	 1.0631247331	 2.2594692124	-0.0512444341	 0.145492
C	 2.0002743002	 2.525002997	-1.2092215878	-0.298521
C	 1.6378420881	 3.9813068218	-1.645140433	-0.220091
C	 0.1501070162	 4.2212716782	-1.2424196144	-0.293079
H	-1.8952723559	 2.1889572801	-0.5478126333	 0.128998
H	-1.6585148766	 2.3409524809	 1.2111012956	 0.116783
H	 1.7442151435	 4.037237758	 1.0567498694	 0.126534
H	 0.653256772	 2.9784393943	 2.0513660503	 0.122957
H	 3.063519499	 2.430912549	-0.9683418591	 0.10808
H	 1.7848259684	 1.8098804808	-2.0101156139	 0.120783
H	 2.2813206985	 4.6959683422	-1.1219197805	 0.109966
H	 1.803367883	 4.1440318976	-2.7136133735	 0.107915
H	-0.5204945532	 3.8814223505	-2.0405117703	 0.108881
H	-0.0569216887	 5.2847173035	-1.0814699091	 0.107161
90.5196	210.0963	236.7125	324.3974	396.2655	433.7914	527.6057	572.8335	584.4265	629.9304	674.3914	745.0337	775.014	846.964	857.1498	876.8808	914.4468	956.4553	960.9991	975.0526	998.178	1047.7973	1061.643	1089.2499	1095.6321	1180.4805	1205.1779	1217.9675	1227.8058	1261.4634	1284.0112	1330.2519	1336.9075	1354.1915	1370.5584	1456.1784	1487.0085	1492.6168	1497.0023	1515.1117	1856.0621	3035.2756	3048.0249	3052.3227	3057.4083	3073.6662	3084.7655	3102.7061	3113.0462	3128.0386	3210.8745
O=C1CC23CC12CCC3	O=C1C[C@@]23C[C@@]12CCC3	
InChI=1S/C8H10O/c9-6-4-7-2-1-3-8(6,7)5-7/h1-5H2	InChI=1S/C8H10O/c9-6-4-7-2-1-3-8(6,7)5-7/h1-5H2/t7-,8-/m0/s1
