20
gdb 63062	3.17706	1.67542	1.42335	2.2307	77.63	-0.235	0.0845	0.3195	983.0374	0.173028	-403.095475	-403.088211	-403.087267	-403.126581	30.738	
C	-0.2044746558	 1.6635307703	-0.0151419033	-0.467422
C	 0.0177711254	 0.1657393346	-0.0290019644	 0.475361
O	-1.2524605256	-0.431668833	-0.2157506892	-0.502908
C	 1.1117188427	-0.5145852932	-0.9079941487	-0.069623
C	 2.4150144058	 0.1912968839	-0.5001095403	-0.237219
C	 2.3608531269	-0.3237150381	 0.9577400693	-0.069476
C	 2.4226297224	-1.8391960142	 0.6877915024	-0.164946
N	 1.0505841118	-1.7115512024	 0.0904064587	-0.193973
C	 0.8038816996	-0.5594074989	 1.08044689	-0.057912
H	 0.6867602854	 2.2195290181	 0.2806448166	 0.116236
H	-0.5256846478	 2.011038955	-1.0022091514	 0.126069
H	-1.00349367	 1.895665173	 0.6949870484	 0.130897
H	-1.0978606194	-1.3861417936	-0.2360479064	 0.289553
H	 0.9258276341	-0.7502686998	-1.9556482212	 0.074435
H	 3.3014068868	-0.1682877399	-1.0304501598	 0.098699
H	 2.3684094496	 1.2752334485	-0.6135841027	 0.103027
H	 2.9626876304	 0.1781277917	 1.7162699901	 0.064757
H	 3.2077810187	-2.2274011416	 0.0301710832	 0.098592
H	 2.3484618163	-2.4602649654	 1.584963208	 0.108423
H	 0.3756915828	-0.8076266051	 2.0533328306	 0.077427
166.4935	199.0295	265.4973	344.5815	386.0748	458.4027	498.4515	523.4744	525.855	601.5671	696.7991	729.8023	826.8971	837.209	866.3568	884.3756	928.2274	942.875	952.4894	962.6222	984.5307	991.2254	1020.1518	1048.4868	1103.5787	1125.7587	1151.7646	1158.7851	1169.8145	1185.5441	1212.2836	1233.8525	1248.7517	1256.5171	1285.6581	1294.1916	1323.7595	1400.3369	1440.0538	1482.9073	1494.3802	1504.5685	1526.4528	3040.9598	3047.7421	3063.9768	3099.6795	3101.4939	3109.6483	3112.6176	3119.3071	3122.4945	3139.0589	3753.0868
CC1(O)C2CC3CN2C13	C[C@@]1(O)[C@H]2C[C@@H]3CN2[C@H]13	
InChI=1S/C7H11NO/c1-7(9)5-2-4-3-8(5)6(4)7/h4-6,9H,2-3H2,1H3	InChI=1S/C7H11NO/c1-7(9)5-2-4-3-8(5)6(4)7/h4-6,9H,2-3H2,1H3/t4-,5-,6+,7-/m1/s1
