18
gdb 52150	3.50883	1.10765	0.99611	3.8776	72.37	-0.2329	0.0234	0.2563	1213.3489	0.14787	-439.030832	-439.022574	-439.02163	-439.064808	30.499	
O	 0.6959106218	 1.0245945718	 1.3513195148	-0.327015
C	 0.3496740467	 1.6073138041	 0.3432632284	 0.157219
N	 1.1155041005	 1.7466157171	-0.7680653731	-0.260528
C	 2.4740884233	 1.2178611772	-0.8381901115	-0.233555
C	 3.4898771571	 2.1332342514	-0.162869417	 0.050593
C	 3.6786885655	 2.1979563415	 1.3804057899	 0.058491
C	 4.3864528307	 0.8249681996	 1.3784256386	-0.223188
C	 4.9316694821	 1.6811015983	 0.209605418	 0.020769
O	 5.000176913	 2.8345272028	 1.1345564405	-0.314521
H	-0.6461210068	 2.0792095121	 0.227708234	 0.080263
H	 0.7589588333	 2.2966568335	-1.5323749747	 0.251745
H	 2.4625312278	 0.2244326745	-0.3854517123	 0.137475
H	 2.7303204462	 1.0981964037	-1.8959200073	 0.111591
H	 3.4838322419	 3.1318657091	-0.6094498659	 0.076696
H	 3.0313086654	 2.6414748979	 2.1339862324	 0.105983
H	 5.092613359	 0.680588657	 2.1963182391	 0.109704
H	 3.7998266197	-0.0698812399	 1.1676393679	 0.108229
H	 5.7909726726	 1.5089890883	-0.4403903617	 0.090048
51.67	57.953	147.7587	227.4238	265.577	324.4408	412.5017	490.8518	548.7233	622.6934	713.7353	741.5544	805.7007	853.3323	875.556	915.8928	935.4335	970.6336	1009.0266	1013.601	1032.2314	1070.7637	1096.0151	1112.8617	1159.8662	1165.3577	1201.8655	1206.2939	1217.4732	1258.1429	1275.2828	1302.0602	1359.2282	1423.0445	1427.0153	1467.262	1496.9373	1527.1443	1796.1931	2940.0476	3055.5118	3072.4376	3084.2838	3107.3096	3118.0561	3147.3614	3159.2387	3644.2496
O=CNCC1C2CC1O2	O=CNC[C@H]1[C@H]2C[C@@H]1O2	
InChI=1S/C6H9NO2/c8-3-7-2-4-5-1-6(4)9-5/h3-6H,1-2H2,(H,7,8)	InChI=1S/C6H9NO2/c8-3-7-2-4-5-1-6(4)9-5/h3-6H,1-2H2,(H,7,8)/t4-,5+,6-
