19
gdb 111801	3.05042	1.35553	1.30434	1.3895	74.26	-0.2427	0.0046	0.2473	1061.6606	0.161374	-423.011344	-423.00372	-423.002776	-423.043495	30.336	
O	 0.0418567009	 1.4565235907	-0.2594633619	-0.423179
C	 0.0574457622	 0.0588273407	 0.0067789147	-0.106214
C	-1.3535910288	-0.5184587611	 0.074911197	 0.008281
C	-1.5081247869	-2.0540485909	 0.3097396139	-0.125687
C	-0.9366452286	-2.1477649899	 1.759028401	-0.080245
O	-1.3538399651	-0.9216999974	 2.3724605229	-0.279871
C	-2.1488954132	-0.225374955	 1.364898622	 0.043517
C	-3.4081272122	-1.042017139	 1.1300599005	-0.078835
C	-3.0140634923	-2.1479473161	 0.4881656508	-0.0816
H	-0.2630721235	 1.9019634469	 0.5367685796	 0.285272
H	 0.5987405267	-0.3956963834	-0.8307447174	 0.106535
H	 0.6176555513	-0.1588554899	 0.9247222011	 0.104803
H	-1.905587878	-0.2067191996	-0.8144760388	 0.086681
H	-1.0452620008	-2.7290785627	-0.4098976556	 0.070382
H	-1.342554909	-3.0054232003	 2.30727612	 0.100102
H	 0.1581769156	-2.2086393292	 1.7711845451	 0.100623
H	-2.2667998579	 0.8064861615	 1.694733537	 0.065342
H	-4.3898555753	-0.8084165287	 1.5205179659	 0.102621
H	-3.6089023451	-3.0177852964	 0.2386040924	 0.101473
75.1862	178.4638	235.2363	293.7911	312.3467	365.8662	431.9276	509.597	569.1694	694.107	735.5443	767.1971	835.9852	849.4843	871.6577	904.1283	930.7275	944.123	954.6728	989.8819	1003.7229	1036.1374	1053.3899	1076.8501	1096.109	1131.491	1165.7545	1195.1756	1210.9637	1249.5104	1268.2318	1283.8372	1292.1806	1339.5017	1359.9434	1365.2574	1407.5968	1420.2481	1499.4547	1522.5616	1635.4679	3019.4288	3026.684	3061.1325	3070.1624	3096.1784	3119.8934	3124.8456	3200.3972	3227.4988	3826.1403
OCC1C2COC1C=C2	OC[C@H]1[C@H]2CO[C@@H]1C=C2	
InChI=1S/C7H10O2/c8-3-6-5-1-2-7(6)9-4-5/h1-2,5-8H,3-4H2	InChI=1S/C7H10O2/c8-3-6-5-1-2-7(6)9-4-5/h1-2,5-8H,3-4H2/t5-,6+,7-/m1/s1
