20
gdb 110440	3.04532	1.29009	1.08443	2.0996	78.12	-0.2335	0.073	0.3065	1180.1261	0.171168	-403.073414	-403.065024	-403.06408	-403.106302	32.426	
C	 0.0526889308	 1.5996069498	-0.1063868257	-0.420159
C	 0.094200771	 0.0822750767	-0.1303252623	 0.079915
C	 0.74652434	-0.7274755921	-1.2728078991	-0.090649
C	 1.1869820086	-1.715129124	-0.1220001875	-0.057478
C	 2.317350063	-0.7847057917	 0.109940976	-0.059706
C	 2.2126044097	-0.2119998315	-1.3050200712	-0.000251
C	 3.0811042578	-0.9531868394	-2.3065325903	-0.104081
O	 2.6749307941	-0.5498890023	-3.6083913866	-0.424268
N	 1.0137456683	-0.6032744768	 0.8494101187	-0.168476
H	 1.0380181415	 2.0487039886	-0.2503696481	 0.123256
H	-0.6129640937	 1.9765642421	-0.8907069322	 0.117731
H	-0.3323177829	 1.9440174451	 0.8588689344	 0.125815
H	-0.905617041	-0.3151289422	 0.0775883256	 0.078558
H	 0.2341521081	-0.9599391505	-2.203821452	 0.080116
H	 1.0143554794	-2.7579524208	 0.1081794034	 0.094407
H	 3.1957369128	-0.9094991708	 0.7304778449	 0.093128
H	 2.3546426071	 0.8643329621	-1.4445116419	 0.073
H	 4.1416782146	-0.7105067088	-2.1306743165	 0.084581
H	 2.9650412006	-2.0402225799	-2.1686402102	 0.087627
H	 3.2312178902	-1.0006185735	-4.2502788493	 0.286934
105.0583	138.5445	179.6492	216.4579	250.9238	273.9136	315.3851	419.9212	544.4424	565.5859	695.3118	757.9019	789.3402	807.141	834.3312	882.9664	903.0583	932.9795	959.9782	1005.3511	1032.6527	1041.8343	1060.8997	1074.9762	1103.7553	1115.7312	1134.2952	1155.1267	1170.9281	1199.7271	1228.0071	1239.6434	1257.7265	1276.5378	1290.8622	1327.5667	1378.981	1395.5416	1409.4365	1460.3432	1485.6504	1499.4564	1522.1612	2963.1994	2992.0329	3037.0939	3042.8411	3059.6912	3102.9274	3124.5257	3142.8692	3191.5409	3206.9429	3830.4139
CC1C2C3C(C2CO)N13	C[C@H]1[C@@H]2[C@H]3[C@@H]([C@H]2CO)N13	
InChI=1S/C7H11NO/c1-3-5-4(2-9)6-7(5)8(3)6/h3-7,9H,2H2,1H3	InChI=1S/C7H11NO/c1-3-5-4(2-9)6-7(5)8(3)6/h3-7,9H,2H2,1H3/t3-,4-,5-,6+,7-,8?/m0/s1
