21
gdb 83261	1.8682	1.77946	1.50337	1.1112	77.08	-0.2311	0.0753	0.3064	1066.6846	0.181966	-424.213838	-424.204568	-424.203624	-424.247323	35.28	
C	-0.6507016171	 1.2964125659	 0.114424285	-0.415206
C	 0.0683066865	-0.046932149	-0.0453015348	-0.04576
C	 1.1057289501	-0.0536844993	-1.1926812349	-0.101481
O	 2.2593510407	-0.790813675	-0.752361387	-0.279013
C	 2.1669802258	-1.031739765	 0.6293911139	-0.01275
C	 2.1731303306	 0.2076638905	 1.4892285691	 0.029658
O	 2.5061372503	 1.4328211134	 0.9037079319	-0.428919
C	 0.8634290571	-0.5119842496	 1.1760800689	 0.253291
C	 0.1168795192	-1.1906609316	 2.3001515144	-0.486094
H	 0.0693394583	 2.0883523481	 0.3337033615	 0.145576
H	-1.195750739	 1.5615041116	-0.7982385624	 0.10958
H	-1.3799541868	 1.2568882603	 0.9299094119	 0.113162
H	-0.6809420243	-0.8253883208	-0.241273853	 0.072941
H	 0.7285088754	-0.5338577855	-2.1019711319	 0.104719
H	 1.40413374	 0.9705194674	-1.4434463096	 0.098785
H	 2.6449277749	-1.9593830131	 0.9272314309	 0.096766
H	 2.5229399323	 0.1103001608	 2.5165481301	 0.088945
H	 3.1184335324	 1.2379745817	 0.1835293585	 0.297103
H	-0.5934832757	-0.5054330994	 2.7771324264	 0.123795
H	-0.446648961	-2.0571271569	 1.9343972041	 0.117827
H	 0.8011399904	-1.5441264546	 3.0778722769	 0.117076
100.3961	134.6799	191.2729	207.4504	221.7066	243.879	281.8335	325.0806	349.5705	397.2074	552.2032	570.428	622.3972	698.5671	712.5751	808.6351	874.2597	909.3503	938.1155	957.6276	992.0417	1008.6551	1047.3337	1074.3906	1098.8189	1130.9801	1146.5622	1164.8516	1170.604	1231.2008	1252.2298	1283.6906	1321.8411	1331.0196	1357.5847	1359.0596	1398.1075	1408.0965	1416.9688	1452.3814	1489.2556	1497.4194	1499.9264	1507.7008	1523.0665	3008.4026	3021.713	3029.0348	3035.6783	3070.5239	3081.5931	3095.0655	3096.3824	3107.6621	3130.2339	3162.0594	3774.4099
CC1COC2C(O)C12C	C[C@H]1CO[C@H]2[C@@H](O)[C@@]12C	
InChI=1S/C7H12O2/c1-4-3-9-6-5(8)7(4,6)2/h4-6,8H,3H2,1-2H3	InChI=1S/C7H12O2/c1-4-3-9-6-5(8)7(4,6)2/h4-6,8H,3H2,1-2H3/t4-,5+,6-,7+/m0/s1
