16
gdb 126001	2.84949	1.52582	1.05624	3.964	72.48	-0.2213	0.0074	0.2287	1107.7896	0.125713	-434.02981	-434.022112	-434.021168	-434.062161	28.897	
C	-0.2591100156	 1.5559075441	 0.0434444971	-0.397456
C	-0.0368381639	 0.0499054915	-0.0141588931	-0.16811
C	 0.7650478992	-0.5019419575	-1.2686589021	-0.181233
N	 1.7573012716	-0.980033536	-0.2835864088	 0.092599
N	 2.8935629941	-1.6239136315	-0.0408541529	-0.193986
N	 2.9997740294	-1.5881743936	 1.2816942253	-0.277377
C	 1.9417261799	-0.9386469114	 1.8387522014	 0.193191
O	 1.8209394387	-0.7740988866	 3.1697508538	-0.4263
C	 1.1146752639	-0.5332164101	 0.8108275144	 0.26711
H	 0.6767510681	 2.0992715525	-0.1191541995	 0.13002
H	-0.9803387027	 1.8716321843	-0.7173747523	 0.123607
H	-0.6520108495	 1.847705515	 1.0218457174	 0.137796
H	-0.980596355	-0.4843835347	 0.1283816324	 0.108117
H	 0.2883910756	-1.3064786298	-1.8317213452	 0.143423
H	 1.1584681103	 0.2603267779	-1.9446498187	 0.141521
H	 2.5949108356	-1.193069524	 3.5680386707	 0.307077
101.2258	126.8758	213.0464	260.6932	340.7792	369.0691	384.006	450.2463	524.8909	661.1451	670.7334	693.5917	723.5098	786.1802	871.3634	914.8436	1030.7422	1085.5253	1087.1757	1125.1382	1129.359	1168.4679	1199.858	1226.2573	1258.4469	1297.1572	1317.251	1374.3444	1382.2797	1413.2807	1485.7728	1493.8906	1498.8884	1520.3683	1663.8695	3037.7517	3066.3378	3075.2695	3109.9147	3116.13	3138.4767	3787.6525
CC1CN2N=NC(O)=C12	C[C@H]1Cn2nnc(O)c12	
InChI=1S/C5H7N3O/c1-3-2-8-4(3)5(9)6-7-8/h3,9H,2H2,1H3	InChI=1S/C5H7N3O/c1-3-2-8-4(3)5(9)6-7-8/h3,9H,2H2,1H3/t3-/m0/s1
