19
gdb 10827	4.47763	1.43476	1.14359	3.939	71.94	-0.2337	0.0336	0.2673	1056.7934	0.167706	-365.12242	-365.114531	-365.113586	-365.154608	29.943	
C	 0.0024288255	 1.5827534601	 0.0286263605	-0.405381
C	 0.0147554008	 0.0531072745	-0.0130363008	 0.03272
C	 0.6979932625	-0.4988229387	-1.2701689972	-0.208702
C	 0.6022388518	-2.0274250296	-1.3104985285	-0.315092
C	 0.9720102656	-2.7231332332	-0.0042340723	 0.392171
O	 1.2817621799	-3.8999221811	 0.0379890013	-0.378729
N	 0.8772756585	-1.9652014311	 1.1322778096	-0.312122
C	 0.7176522749	-0.5199282352	 1.2215491828	-0.146583
H	 1.0213752586	 1.9858041918	 0.001855977	 0.118251
H	-0.5397025463	 1.99175112	-0.8294206166	 0.118748
H	-0.4806097628	 1.9559407365	 0.9380003561	 0.11505
H	-1.0234713849	-0.307848144	-0.0049571067	 0.081947
H	 0.24736003	-0.0692377485	-2.1717735993	 0.098481
H	 1.751711216	-0.1869892835	-1.2702160598	 0.100885
H	-0.4271333603	-2.332390312	-1.5402758467	 0.128203
H	 1.2310232818	-2.4617182971	-2.091487695	 0.127588
H	 1.1582421905	-2.462098088	 1.9658208144	 0.242429
H	 1.6978404045	-0.0281464898	 1.3344558017	 0.101767
H	 0.1414672535	-0.2872499111	 2.1247896296	 0.108371
80.3342	154.2935	207.5812	224.8903	289.2975	398.5949	411.748	438.0991	505.1657	550.6265	661.6797	705.5665	767.4462	807.9131	899.131	924.7576	959.6246	974.3002	1030.5418	1088.486	1109.6582	1124.0913	1170.4422	1204.783	1240.7003	1291.4396	1304.889	1328.9736	1342.8871	1382.2729	1390.2629	1402.4014	1412.7764	1464.0164	1484.3723	1494.5531	1497.3845	1503.2433	1527.6744	1788.0508	2966.3565	3004.7913	3017.5397	3029.4898	3033.6942	3046.5555	3065.1783	3094.9874	3104.8533	3105.1997	3600.8233
CC1CCC(=O)NC1	C[C@H]1CCC(=O)NC1	
InChI=1S/C6H11NO/c1-5-2-3-6(8)7-4-5/h5H,2-4H2,1H3,(H,7,8)	InChI=1S/C6H11NO/c1-5-2-3-6(8)7-4-5/h5H,2-4H2,1H3,(H,7,8)/t5-/m0/s1
