17
gdb 25871	3.91084	1.08225	0.85664	5.0257	78.47	-0.2296	-0.0248	0.2049	1324.3053	0.135825	-418.086265	-418.077291	-418.076347	-418.12061	31.904	
C	-0.0754678361	 1.4913913295	-0.0330808384	-0.478597
C	 0.0254587214	-0.0198525245	-0.0002544806	 0.293041
O	 1.0938936901	-0.6032067454	 0.0112676178	-0.325671
C	-1.2434890187	-0.7707541686	 0.0176209067	 0.178487
C	-1.3734750519	-2.1399299369	 0.0476976803	-0.155197
N	-2.7209132558	-2.3731020999	 0.0544612445	-0.276294
C	-3.3632492286	-1.1559768095	 0.0285880235	 0.336418
C	-4.8487060793	-1.0205171924	 0.0273473596	-0.501649
N	-2.4928415315	-0.1759476414	 0.0060051933	-0.345576
H	 0.9268702813	 1.9206808207	-0.0441340332	 0.127662
H	-0.6381308877	 1.8148050296	-0.914571696	 0.1434
H	-0.6350645573	 1.8529324312	 0.8354666244	 0.143393
H	-0.6393850268	-2.9270827977	 0.064102561	 0.157857
H	-3.1627205755	-3.2778788058	 0.0747222403	 0.268879
H	-5.2998519407	-1.4651628243	 0.9218101516	 0.135721
H	-5.1004576861	 0.0402079168	 0.0054965179	 0.162359
H	-5.3017286868	-1.5019881214	-0.8468818126	 0.135766
74.312	86.2626	118.5242	154.6122	157.2021	291.6746	336.211	370.2165	501.4659	555.0153	581.7485	625.6864	680.173	710.7271	723.2291	808.141	938.1614	961.8517	997.813	1041.8444	1045.2974	1063.3576	1105.6828	1148.974	1252.051	1334.3161	1373.414	1387.7783	1415.8074	1419.7338	1457.3112	1467.9675	1482.9174	1491.4007	1568.4892	1597.4885	1770.2374	3032.3145	3047.2903	3082.3847	3109.4117	3151.9975	3156.067	3290.4845	3653.2029
CC(=O)C1=CNC(C)=N1	CC(=O)c1c[nH]c(C)n1	
InChI=1S/C6H8N2O/c1-4(9)6-3-7-5(2)8-6/h3H,1-2H3,(H,7,8)	InChI=1S/C6H8N2O/c1-4(9)6-3-7-5(2)8-6/h3H,1-2H3,(H,7,8)
