18
gdb 111669	2.22584	1.67861	1.25635	4.3547	71.1	-0.2463	0.0215	0.2677	1050.7781	0.149898	-439.109732	-439.101617	-439.100673	-439.142878	30.805	
O	 0.1054911212	 1.1956204062	 0.5850247182	-0.425841
C	 0.0475333164	 0.0192076572	-0.2033889341	-0.085737
C	-1.3293955973	-0.6166530832	-0.1662511683	-0.036698
C	-1.6163123621	-2.0973027727	-0.1305175455	-0.086748
C	-0.4921267989	-3.0723670609	 0.2218511102	-0.194201
N	-0.0924720015	-2.6605360162	 1.5584238447	-0.294905
C	-0.8224627557	-1.6397031202	 2.1109476165	 0.391876
O	-0.6255280925	-1.1287768503	 3.1955391981	-0.394419
C	-1.873554189	-1.2568490591	 1.1005964421	-0.178569
H	-0.0801925085	 0.9408331762	 1.4972482142	 0.296177
H	 0.2793724141	 0.3307815092	-1.2272660885	 0.108442
H	 0.8229286395	-0.6991625731	 0.0971385723	 0.09217
H	-2.0794851687	-0.0369450587	-0.6976999363	 0.104541
H	-2.4301749839	-2.4783503674	-0.7348374422	 0.101304
H	-0.8668116753	-4.1039326932	 0.2175208617	 0.117268
H	 0.3487644421	-3.0225082393	-0.4813651092	 0.117573
H	 0.7380391161	-2.9979394428	 2.0187344161	 0.253929
H	-2.8519168562	-0.9827718018	 1.4721936798	 0.113837
54.6025	112.5962	188.7908	219.8861	283.2439	417.4516	448.3772	463.9447	501.3555	529.9552	646.9967	708.1758	778.9479	804.8165	807.4577	876.9134	922.875	977.4487	1006.9479	1012.8013	1048.8746	1072.6309	1081.2569	1113.0975	1119.5861	1194.0731	1223.8396	1248.2849	1257.4433	1316.4152	1341.173	1357.3001	1389.0769	1425.2317	1442.443	1454.466	1506.6107	1531.221	1810.7415	3007.8659	3014.0584	3041.9824	3070.9763	3146.9881	3186.4917	3206.719	3642.8862	3782.1668
OCC1C2CNC(=O)C12	OC[C@H]1[C@H]2CNC(=O)[C@@H]12	
InChI=1S/C6H9NO2/c8-2-4-3-1-7-6(9)5(3)4/h3-5,8H,1-2H2,(H,7,9)	InChI=1S/C6H9NO2/c8-2-4-3-1-7-6(9)5(3)4/h3-5,8H,1-2H2,(H,7,9)/t3-,4+,5-/m1/s1
