21
gdb 72230	2.46591	1.8847	1.32418	1.3265	81.57	-0.2291	0.0757	0.3048	1036.392	0.183649	-387.078747	-387.070675	-387.069731	-387.110543	33.17	
C	-0.0301096928	 1.4437328874	 0.0869049308	-0.484616
C	 0.0040279631	-0.0648522966	 0.0073886902	 0.311131
C	 1.0106776256	-0.7260422044	-0.9446378927	-0.288243
C	 0.3342835517	-2.0573817792	-1.3660386241	-0.20358
C	-0.7394216134	-2.2702718133	-0.2892937064	-0.041731
C	-0.0891677461	-2.3164019127	 1.1367936041	-0.306783
C	-0.3824983614	-0.8259394322	 1.260297635	 0.36317
O	-0.4845224928	-0.1357448311	 2.4560801603	-0.46457
C	-1.2933643873	-0.8565413787	 0.0331354128	-0.216203
H	 0.9241725377	 1.8392232564	 0.453157305	 0.118649
H	-0.2134266873	 1.878782957	-0.9021614911	 0.107566
H	-0.8085793761	 1.7918467463	 0.769171884	 0.12483
H	 1.2030204422	-0.0789311297	-1.8068002167	 0.093564
H	 1.9768099884	-0.8940534051	-0.4557680523	 0.098649
H	-0.1375806887	-1.9530745111	-2.3495783117	 0.094395
H	 1.0387702312	-2.8933980239	-1.426614404	 0.092443
H	-1.455000269	-3.0639587887	-0.5041792508	 0.064548
H	-0.7062231474	-2.8935348854	 1.8342646096	 0.086465
H	 0.9497521282	-2.6584298133	 1.2169074637	 0.089124
H	-1.1592854276	-0.5659687242	 2.9931727836	 0.281261
H	-2.2789373382	-0.4494768077	-0.1534543895	 0.07993
186.816	197.7894	202.8158	273.4075	298.5645	343.9939	356.7069	432.3482	447.2853	573.8215	607.7944	689.6836	711.128	748.437	834.0695	859.1705	872.7989	909.3284	925.6141	953.8589	968.3141	981.259	1032.975	1057.6549	1069.3831	1104.034	1131.8184	1156.6791	1172.9815	1210.886	1227.8641	1232.8477	1260.0504	1275.2468	1297.0062	1320.9426	1337.4004	1354.1463	1416.3554	1442.0049	1486.8889	1489.3421	1493.8033	1501.7674	1515.2482	3022.0748	3028.1919	3033.0622	3041.0718	3067.1589	3071.5642	3083.1365	3086.6942	3108.4362	3124.5042	3194.4069	3789.7976
CC12CCC3CC1(O)C23	C[C@@]12CC[C@H]3C[C@]1(O)[C@@H]23	
InChI=1S/C8H12O/c1-7-3-2-5-4-8(7,9)6(5)7/h5-6,9H,2-4H2,1H3	InChI=1S/C8H12O/c1-7-3-2-5-4-8(7,9)6(5)7/h5-6,9H,2-4H2,1H3/t5-,6+,7-,8-/m0/s1
