20
gdb 92226	2.86581	1.74075	1.38501	0.6045	77.5	-0.2269	0.088	0.3149	1001.4656	0.173035	-403.111915	-403.104449	-403.103505	-403.143474	30.261	
C	-0.2281051947	 1.5380111917	-0.1693298983	-0.424747
C	 0.0096183437	 0.0627641017	 0.0750806012	 0.155202
O	 0.8174019276	-0.6165093299	-0.930649532	-0.318411
C	 1.3760775055	-1.4869310976	 0.0937294769	 0.11776
C	 2.901301192	-1.5679824908	 0.1561429727	-0.268659
C	 3.3074511206	-0.3884202656	 1.0345895467	-0.021716
C	 2.8976098419	 0.9506002002	 0.5616433799	-0.24759
N	 2.1053445952	 0.2698330614	 1.6094214995	-0.114853
C	 0.9214841068	-0.4966448665	 1.1898979178	-0.056052
H	 0.6807836747	 2.1361972901	-0.1106368234	 0.134664
H	-0.672579216	 1.6762468107	-1.1605143711	 0.128895
H	-0.9373461691	 1.9192027356	 0.5728274492	 0.122977
H	-0.9675027564	-0.442593177	 0.1382749115	 0.073199
H	 0.8880499711	-2.4684276623	 0.0674224113	 0.074937
H	 3.1981758306	-2.5149524567	 0.6193027389	 0.106928
H	 3.3468786511	-1.5318679046	-0.8426671819	 0.12248
H	 4.1572966936	-0.506410826	 1.7008347185	 0.088693
H	 3.4092726157	 1.84187594	 0.9152958595	 0.111486
H	 2.5141113935	 1.0067884883	-0.4508627392	 0.136535
H	 0.4242323327	-0.8809763126	 2.0829742924	 0.078273
155.1619	169.3052	203.3475	280.2687	354.0747	377.0329	417.973	544.0929	619.1594	702.1481	720.127	794.5078	815.812	837.3471	857.4749	892.8835	914.7856	948.7824	979.8372	994.4474	1024.5608	1069.6719	1093.9702	1117.3812	1131.3657	1138.7552	1154.1734	1176.1934	1195.5835	1233.7447	1255.0586	1276.167	1300.8505	1328.6172	1339.2947	1356.2844	1387.8987	1402.558	1423.1575	1471.8869	1487.4448	1496.839	1502.9447	2968.3379	3030.7478	3045.9151	3053.2451	3084.5372	3095.5824	3106.0113	3113.3374	3147.0953	3154.2281	3211.4616
CC1OC2CC3CN3C12	C[C@H]1O[C@H]2C[C@H]3CN3[C@@H]12	
InChI=1S/C7H11NO/c1-4-7-6(9-4)2-5-3-8(5)7/h4-7H,2-3H2,1H3	InChI=1S/C7H11NO/c1-4-7-6(9-4)2-5-3-8(5)7/h4-7H,2-3H2,1H3/t4-,5+,6+,7+,8?/m1/s1
