21
gdb 60033	2.05156	0.9675	0.78229	2.185	80.59	-0.2573	-0.0544	0.2029	1560.6157	0.178019	-424.251977	-424.241105	-424.24016	-424.289379	37.722	
C	-0.1677846192	 1.5970422817	 0.1550896744	-0.390006
C	 0.0461325274	 0.0775782678	 0.1808574023	 0.025335
C	 0.8051214	-0.337769601	 1.4493411643	-0.385508
C	-1.3061770616	-0.648883296	 0.0447290538	-0.200233
C	-1.2059568552	-2.1540273117	-0.1994319397	-0.18251
C	-2.5341304739	-2.8924035962	 0.0103394287	 0.138069
O	-3.5421785879	-2.3709138489	 0.4031739243	-0.228876
C	-0.7054174182	-2.5215434868	-1.5936840268	 0.143046
O	-0.3374757486	-3.6249268501	-1.9022087676	-0.247544
H	 0.7842294465	 2.1319035385	 0.2311836644	 0.113607
H	-0.6607837916	 1.9161837432	-0.7690143284	 0.112581
H	-0.7967136413	 1.9160832809	 0.9946521993	 0.118245
H	 0.6693809636	-0.1865220552	-0.6868716382	 0.073678
H	 1.027768879	-1.409249256	 1.4736650792	 0.113876
H	 1.7598907701	 0.1925549504	 1.5212293794	 0.118082
H	 0.222352343	-0.0979961277	 2.3466070349	 0.118454
H	-1.9130835931	-0.4772331946	 0.94017122	 0.119821
H	-1.8752958409	-0.2047991277	-0.7825566148	 0.103169
H	-0.5138800953	-2.6473867999	 0.4980777094	 0.13108
H	-2.4824532323	-3.9745675171	-0.2317804754	 0.111895
H	-0.7459703504	-1.6928016535	-2.3359759436	 0.093738
32.1676	63.6373	87.0584	114.015	148.3437	212.7884	228.7618	243.1383	293.2222	341.2732	378.2665	405.4506	421.8294	571.6549	664.0054	816.9205	826.061	860.6257	891.5744	928.0663	963.1564	967.0817	1011.7935	1048.0504	1122.7089	1151.3131	1163.192	1193.2761	1218.4268	1242.08	1299.5243	1334.9646	1368.9306	1384.3761	1402.6871	1408.0944	1416.5546	1425.1545	1479.8933	1487.2873	1495.3274	1505.3701	1510.3445	1805.2812	1844.0939	2878.9004	2919.9737	2987.4666	3020.106	3025.6519	3029.7645	3031.7367	3076.4407	3092.1078	3096.8291	3100.6095	3104.1063
CC(C)CC(C=O)C=O	CC(C)CC(C=O)C=O	
InChI=1S/C7H12O2/c1-6(2)3-7(4-8)5-9/h4-7H,3H2,1-2H3	InChI=1S/C7H12O2/c1-6(2)3-7(4-8)5-9/h4-7H,3H2,1-2H3
