20
gdb 26123	2.40579	1.47376	0.94755	0.9454	82.48	-0.1931	0.0407	0.2337	1251.867	0.171275	-403.191341	-403.182003	-403.181059	-403.225589	35.359	
C	 0.3926863013	 1.1772797063	-0.4915585235	-0.401457
C	 0.0211133263	-0.1005615852	 0.2592353576	 0.00771
O	 0.2685180912	 0.0449468636	 1.6663133717	-0.432268
C	-1.3973283271	-0.5646943187	 0.0346787787	 0.189116
C	-2.2767241744	-0.5380203806	-1.0384636631	 0.176501
C	-2.0801679719	 0.057811978	-2.4054147319	-0.508589
C	-3.4527229676	-1.2274943615	-0.618882852	-0.222155
C	-3.2632532018	-1.6533662615	 0.6751031379	-0.099669
N	-2.0143443034	-1.2509178772	 1.0545919396	-0.271301
H	 1.4090925318	 1.4740789866	-0.2190718851	 0.121534
H	 0.3514284567	 1.0338885093	-1.5736696563	 0.128795
H	-0.2939650158	 1.992050017	-0.2345342049	 0.112549
H	 0.7230309678	-0.8931681609	-0.0359857521	 0.102867
H	-0.2394289758	 0.8100269358	 1.9623923849	 0.277697
H	-1.171648204	-0.3090935714	-2.8970696025	 0.120056
H	-2.92235237	-0.2050086729	-3.0519877572	 0.118401
H	-2.0176066998	 1.1518281561	-2.3870059408	 0.121603
H	-4.3386869697	-1.3841921852	-1.2167656655	 0.08644
H	-3.9085873755	-2.1911562811	 1.3508448602	 0.112893
H	-1.5699622684	-1.3913714066	 1.9461231243	 0.259277
40.6057	144.6455	164.4676	199.9869	256.0024	269.2878	302.2552	344.7929	371.6436	473.8702	499.1811	570.1269	618.6682	672.5887	673.0459	708.8089	739.4389	821.5414	892.912	919.8051	986.6321	1021.9857	1056.8439	1061.3214	1082.3398	1095.3844	1138.216	1198.3307	1247.7007	1281.7859	1291.2668	1350.9425	1402.2334	1415.8116	1418.6083	1431.6928	1480.6326	1485.8749	1490.1798	1499.1208	1501.2785	1511.63	1606.2713	3004.2895	3024.1362	3036.9358	3072.1211	3101.8496	3110.5046	3133.1719	3235.3171	3267.2586	3672.558	3783.2878
CC(O)C1=C(C)C=CN1	C[C@@H](O)c1c(C)cc[nH]1	
InChI=1S/C7H11NO/c1-5-3-4-8-7(5)6(2)9/h3-4,6,8-9H,1-2H3	InChI=1S/C7H11NO/c1-5-3-4-8-7(5)6(2)9/h3-4,6,8-9H,1-2H3/t6-/m1/s1
