14
gdb 44337	3.31011	2.05046	1.61827	4.3677	63.84	-0.2313	-0.0157	0.2155	809.3479	0.103388	-436.68644	-436.6806	-436.679655	-436.716548	23.963	
O	 0.1365000231	 0.275106973	 0.6454349894	-0.331273
C	 0.1215057425	 1.3050066055	 0.0556249539	 0.459737
O	-0.9729282553	 2.1388153802	 0.0069460824	-0.217098
C	-0.7009482456	 3.1948179147	-0.8819386269	 0.068776
C	 0.4546553147	 4.1899012228	-0.6304723426	-0.143908
C	 1.3783096998	 3.9644015915	 0.5188024231	-0.078626
C	 1.8291497415	 2.7110528774	 0.480967253	-0.099616
N	 1.2435307353	 1.9492940366	-0.6299222125	-0.205587
C	 0.6233017761	 2.9646911279	-1.5070757424	-0.071334
H	-1.5779555589	 3.5248071473	-1.4223315144	 0.130676
H	 0.323259481	 5.1755996757	-1.0602348205	 0.109361
H	 1.6435631319	 4.7172348105	 1.247433733	 0.122554
H	 2.4559752218	 2.1753212712	 1.1788148523	 0.143889
H	 0.8495861624	 2.9334246255	-2.5657677378	 0.112449
150.9737	276.4503	365.8382	501.9222	595.6672	641.9395	730.5336	738.5813	749.1296	772.9843	817.5402	824.2666	844.5284	857.2767	914.532	943.1329	981.1484	1012.6529	1040.3377	1052.6133	1070.1543	1086.7351	1107.048	1156.205	1171.3202	1269.8129	1324.5652	1353.9044	1388.1258	1652.0523	1913.755	3180.1851	3192.2757	3211.609	3232.4137	3259.7091
O=C1OC2C3C=CN1C23	O=C1O[C@H]2[C@H]3C=CN1[C@@H]23	
InChI=1S/C6H5NO2/c8-6-7-2-1-3-4(7)5(3)9-6/h1-5H	InChI=1S/C6H5NO2/c8-6-7-2-1-3-4(7)5(3)9-6/h1-5H/t3-,4+,5-/m0/s1
