19
gdb 60314	2.39901	1.10779	0.84479	2.4165	78.34	-0.2501	-0.0637	0.1864	1403.4426	0.154454	-422.998126	-422.987527	-422.986583	-423.034993	37.281	
C	-0.2718200186	 0.2933161177	-0.6275106339	-0.387232
C	 0.5989494504	-0.0679010883	 0.5770592978	 0.139824
C	 2.0225356636	 0.4570631316	 0.4413530526	-0.389456
O	 0.0703693246	 0.506423288	 1.7818788731	-0.245236
C	-0.9954260155	-0.1924875036	 2.3595090061	-0.18669
C	-0.5960807185	-1.4358718822	 3.1652698909	 0.202481
O	-1.4037102243	-2.2981960754	 3.4313833047	-0.27361
C	 0.7778904638	-1.5015364909	 3.6344730126	 0.308389
C	 1.9038727324	-1.5910721191	 4.0514087859	-0.453755
H	-0.3049658607	 1.3797989136	-0.7553060889	 0.125166
H	 0.1364973135	-0.1522369931	-1.5400566247	 0.118161
H	-1.2974733968	-0.0696563346	-0.513268496	 0.118595
H	 0.6304122579	-1.1633490984	 0.6872171474	 0.075241
H	 2.0164169815	 1.5498855862	 0.3783589702	 0.125027
H	 2.6200573701	 0.1658634376	 1.3082912307	 0.126074
H	 2.4945755267	 0.0612650157	-0.4626770931	 0.113839
H	-1.4807578645	 0.4924236142	 3.0672730746	 0.141632
H	-1.7630465927	-0.5074239772	 1.6397633594	 0.122921
H	 2.8961178871	-1.6718418219	 4.4243971206	 0.218629
33.5642	50.9341	78.2431	144.6424	202.8772	233.7999	243.4889	256.9266	315.77	341.5949	426.2557	444.287	547.9542	568.1603	647.2447	680.0989	713.4171	719.3998	810.4241	919.1102	928.025	945.0278	1013.9161	1129.5937	1136.5628	1155.5673	1189.8263	1203.9346	1284.0062	1357.221	1364.4798	1390.946	1401.245	1416.5459	1457.9332	1480.0023	1484.3302	1495.1123	1508.6729	1768.6289	2208.3784	2978.3732	3014.75	3038.5461	3044.6392	3058.9825	3109.434	3112.6496	3118.8467	3129.2809	3493.7406
CC(C)OCC(=O)C#C	CC(C)OCC(=O)C#C	
InChI=1S/C7H10O2/c1-4-7(8)5-9-6(2)3/h1,6H,5H2,2-3H3	InChI=1S/C7H10O2/c1-4-7(8)5-9-6(2)3/h1,6H,5H2,2-3H3
