23
gdb 52671	2.6437	1.00649	0.81876	0.3105	94.26	-0.2409	0.0603	0.3012	1535.5778	0.203046	-351.129244	-351.118182	-351.117237	-351.166923	39.934	
C	 0.172938603	 1.4707752219	 0.3481649324	-0.500166
C	 0.0783313635	 0.0299143822	 0.154587722	 0.080384
C	 0.0047990573	-1.1634016496	 0.0035446962	 0.048113
C	-0.1315320076	-2.6104575651	-0.1746541053	-0.220686
C	-1.6196936379	-2.9688496411	-0.3931786598	-0.387163
C	 0.7700427822	-3.1781943815	-1.2892001501	 0.376682
C	 0.7809685	-4.6951528892	-1.3630230267	-0.465673
C	 0.8977879358	-2.4153180988	-2.5850353173	-0.294388
C	 2.0624652019	-2.4743794052	-1.6231125832	-0.312673
H	 0.7695315005	 1.940915883	-0.4414315038	 0.147217
H	-0.8168686258	 1.940697369	 0.337403372	 0.146333
H	 0.6441303039	 1.7146266725	 1.30692392	 0.146469
H	 0.1892359848	-3.0895506566	 0.7632758951	 0.096999
H	-1.7676816799	-4.0517428966	-0.4055999553	 0.113894
H	-2.2335614937	-2.5507870485	 0.4086384751	 0.119955
H	-1.9748310687	-2.5595911564	-1.3434630925	 0.124269
H	-0.1983552963	-5.1052929342	-1.6306712457	 0.117441
H	 1.494580542	-5.0388639026	-2.1177719173	 0.111901
H	 1.0769886761	-5.13608895	-0.4030770779	 0.111526
H	 0.956927902	-2.9826226215	-3.5080278691	 0.102007
H	 0.3759360076	-1.4684005513	-2.6703976346	 0.117136
H	 2.3064263522	-1.5676594847	-1.0824100764	 0.120364
H	 2.9167409969	-3.0897521858	-1.8855459677	 0.100058
14.9071	52.8003	88.8972	136.0163	209.6316	216.792	262.2074	273.2494	306.9509	330.0431	356.119	372.3594	441.7679	510.2308	551.5601	690.5003	755.5072	792.1122	874.4597	894.1119	927.4397	952.5462	986.9355	1042.7775	1052.5175	1053.7859	1066.7068	1072.281	1083.7921	1087.7799	1129.8804	1187.854	1192.0968	1261.4494	1318.5262	1329.534	1364.639	1402.2285	1415.2281	1419.1596	1460.4422	1479.2522	1479.6984	1487.6814	1494.1736	1496.7804	1504.1407	1510.3706	2364.3359	2981.2907	3022.8431	3025.1374	3045.4028	3084.2109	3084.6614	3085.7555	3100.8822	3120.6757	3122.6439	3128.8597	3133.7964	3211.0527	3225.3799
CC#CC(C)C1(C)CC1	CC#C[C@@H](C)C1(C)CC1	
InChI=1S/C9H14/c1-4-5-8(2)9(3)6-7-9/h8H,6-7H2,1-3H3	InChI=1S/C9H14/c1-4-5-8(2)9(3)6-7-9/h8H,6-7H2,1-3H3/t8-/m1/s1
