19
gdb 126421	5.10225	0.81741	0.74796	1.8352	79.33	-0.2344	0.0186	0.2531	1551.5076	0.160453	-419.233644	-419.224372	-419.223428	-419.268886	33.407	
C	-0.0116350891	 1.6997812663	 0.1887397828	-0.369147
C	 0.2343549612	 0.2041086513	-0.0714224048	-0.281543
C	 0.6544334956	-0.5459849397	 1.1573493987	 0.354066
N	 1.9126341124	-0.9615676449	 1.3025459252	-0.291108
N	 1.9376614143	-1.5573422897	 2.511680567	-0.237051
C	 0.7347516861	-1.5535387384	 3.1393277381	 0.349895
C	 0.5703023017	-2.1641918389	 4.4970199147	-0.176195
O	 1.3687526823	-3.3312583355	 4.6621617663	-0.414769
C	-0.1297612494	-0.8998635089	 2.2848856612	-0.404912
H	 0.8966130123	 2.1826319645	 0.5618399565	 0.125043
H	-0.3176993702	 2.2105399509	-0.7297585491	 0.110173
H	-0.7986475808	 1.8485092504	 0.9351656798	 0.114553
H	-0.6781548837	-0.2461131685	-0.481444346	 0.101348
H	 1.0169490913	 0.0830318734	-0.8265031593	 0.116872
H	 2.7783817442	-2.002390662	 2.8399965027	 0.273565
H	 0.9125471455	-1.4757665179	 5.2787121948	 0.132346
H	-0.4948888763	-2.3586884399	 4.684134259	 0.111166
H	 1.063602867	-3.9842739089	 4.022722504	 0.288432
H	-1.1783792243	-0.7071904335	 2.4499491683	 0.097269
35.8753	59.9412	116.9113	183.4557	204.2773	257.1044	354.5894	362.8522	414.0411	455.9989	549.2329	638.8958	684.0397	735.2449	753.5411	790.3454	812.8688	964.4215	975.9292	1006.581	1033.3734	1062.4749	1068.1389	1086.6515	1163.2638	1183.3744	1200.9638	1270.8225	1309.2779	1348.2939	1360.1618	1406.2599	1409.5728	1440.602	1475.6877	1480.0717	1490.1012	1497.6225	1504.4393	1511.0834	1606.6978	3010.1413	3030.6483	3035.3475	3056.6214	3082.5098	3106.2974	3113.6616	3253.975	3671.5393	3804.9397
CCC1=NNC(CO)=C1	CCc1n[nH]c(CO)c1	
InChI=1S/C6H10N2O/c1-2-5-3-6(4-9)8-7-5/h3,9H,2,4H2,1H3,(H,7,8)	InChI=1S/C6H10N2O/c1-2-5-3-6(4-9)8-7-5/h3,9H,2,4H2,1H3,(H,7,8)
