17
gdb 24140	5.3715	0.97375	0.86468	3.2013	74.51	-0.1994	0.0448	0.2442	1317.638	0.137441	-418.013682	-418.005837	-418.004893	-418.046963	29.506	
C	 0.1862686538	 0.9790828935	 1.2025695142	-0.28005
C	 1.1338582407	 1.035950843	 0.0199381036	-0.293767
C	-0.1224477884	 0.2370212802	-0.0668705615	 0.130352
O	 0.0450784208	-1.1593776779	-0.0911131318	-0.273205
C	-1.0139390793	-1.8608292437	 0.3707025051	 0.396667
C	-2.2124152498	-1.5530169274	 0.9608191024	-0.216391
N	-2.9139068561	-2.7182219754	 1.2161383709	-0.249484
C	-2.156495146	-3.6951427072	 0.7916515393	 0.00599
N	-0.9782351888	-3.2285471272	 0.2625140966	-0.334778
H	 0.4921958942	 0.3830321413	 2.0542816852	 0.132679
H	-0.4068274083	 1.8535969304	 1.4453627947	 0.122031
H	 1.2018136569	 1.949277854	-0.5596070475	 0.12167
H	 2.0586300437	 0.4764297419	 0.1005501402	 0.129412
H	-0.9401536578	 0.5797526902	-0.6967552262	 0.107464
H	-2.6028361712	-0.5828713379	 1.2184867912	 0.106673
H	-2.3862674414	-4.7489200406	 0.8337970401	 0.126835
H	-0.2254556128	-3.7580836373	-0.1439986064	 0.267904
62.1198	65.5965	142.6297	288.2541	358.6323	370.8764	481.4314	489.4095	670.8704	683.1527	704.0337	758.5327	775.8351	792.4413	826.3909	844.414	924.9757	988.7239	990.3495	1041.1563	1059.7472	1075.7497	1093.5814	1124.919	1133.4995	1186.7468	1192.138	1235.907	1271.7415	1282.9371	1385.1484	1396.6225	1449.6432	1455.2051	1496.6864	1528.5994	1623.6584	3131.9783	3141.8655	3146.0613	3226.0454	3239.5772	3253.9814	3270.5493	3667.1913
C1CC1OC1=CN=CN1	C1CC1Oc1cnc[nH]1	
InChI=1S/C6H8N2O/c1-2-5(1)9-6-3-7-4-8-6/h3-5H,1-2H2,(H,7,8)	InChI=1S/C6H8N2O/c1-2-5(1)9-6-3-7-4-8-6/h3-5H,1-2H2,(H,7,8)
