20
gdb 97020	2.58078	1.35501	0.9466	2.5723	84.88	-0.2382	0.0134	0.2516	1286.675	0.170178	-403.16935	-403.159938	-403.158994	-403.204767	34.062	
C	-0.2281547362	 1.4416820555	-0.0140468406	-0.321372
N	-0.2057107734	-0.0076463504	-0.1118334539	-0.288505
C	 0.5853290091	-0.5718201739	-0.9196844802	 0.385469
C	 0.5836641668	-2.0782756556	-1.0534454208	-0.342051
C	 1.859383273	-2.6298090907	-1.6142827344	-0.080853
C	 2.7941076671	-1.8455105666	-2.1366311962	-0.070477
C	 2.6539243112	-0.3570428453	-2.2309699272	 0.086799
C	 2.8335775156	 0.1577382649	-3.659242173	-0.387717
O	 1.3839464016	 0.1394147451	-1.7711376003	-0.277577
H	 0.7068698573	 1.9235697104	-0.3222798977	 0.112588
H	-1.0341782445	 1.8450840527	-0.6407712782	 0.121832
H	-0.455399067	 1.722209839	 1.0191245407	 0.116212
H	 0.3603822425	-2.5023673151	-0.0701784283	 0.139996
H	-0.2623035758	-2.3664026644	-1.6952783789	 0.136937
H	 1.9957997807	-3.7070396376	-1.5802360333	 0.098899
H	 3.7206585647	-2.2531571749	-2.531214088	 0.097215
H	 3.4217895578	 0.1132154202	-1.5955988594	 0.097043
H	 2.094899062	-0.2990859034	-4.3237491723	 0.12814
H	 2.7070431836	 1.2431089998	-3.6852607446	 0.12969
H	 3.834611744	-0.0855558695	-4.0279558834	 0.117731
41.0807	46.754	96.8512	209.9469	235.5539	240.5867	276.172	372.2808	432.6316	469.8467	546.1689	580.5804	605.8184	696.3088	752.1458	861.791	891.1556	955.1319	963.1883	987.9988	1003.8641	1048.1819	1064.7772	1111.2554	1124.3237	1144.2563	1155.8011	1203.165	1209.9145	1241.2411	1344.2543	1351.8453	1380.7871	1401.6409	1419.2807	1437.152	1459.6332	1485.3612	1491.0057	1495.6662	1496.5613	1744.4644	1765.4457	2969.7011	3003.1279	3011.8444	3044.1786	3066.9505	3083.8379	3091.8039	3120.3938	3128.0443	3157.9299	3179.9158
CN=C1CC=CC(C)O1	CN=C1CC=C[C@@H](C)O1	
InChI=1S/C7H11NO/c1-6-4-3-5-7(8-2)9-6/h3-4,6H,5H2,1-2H3	InChI=1S/C7H11NO/c1-6-4-3-5-7(8-2)9-6/h3-4,6H,5H2,1-2H3/t6-/m1/s1
