15
gdb 48082	4.19514	1.03507	0.84142	4.8002	70.99	-0.2419	-0.1084	0.1335	1294.0316	0.112664	-453.965254	-453.956918	-453.955973	-453.999225	29.009	
O	 0.0385182678	-0.0363334569	 0.355668035	-0.216224
C	 0.0253272584	 1.1607288027	 0.2564571584	 0.085771
C	 1.330869892	 1.9435015413	-0.0008160238	 0.22655
O	 2.3969208019	 1.3854151719	-0.117659284	-0.282983
C	 1.2199637843	 3.4269634656	-0.0778800954	 0.29102
N	 0.1199379621	 4.0566664354	 0.1463181112	-0.294504
C	 0.446406669	 5.4874329363	-0.0058382012	-0.170507
C	 2.0000998354	 5.5678326617	-0.0706046059	-0.185315
N	 2.3259772229	 4.1753173057	-0.3960789703	-0.341399
H	-0.8906696095	 1.7716921391	 0.335777916	 0.133354
H	-0.0135801551	 5.8499848662	-0.9342157062	 0.128733
H	 0.0177367536	 6.0675073059	 0.8153089977	 0.126265
H	 2.3598794306	 6.2561396503	-0.8391303799	 0.123208
H	 2.4341771501	 5.8678955411	 0.892928698	 0.113878
H	 3.2384730964	 3.7829921037	-0.2200435995	 0.262154
56.6248	88.3908	150.957	164.3799	201.1114	293.488	381.3275	483.5566	494.8167	544.6917	695.6688	738.7878	833.5784	857.0673	896.3536	948.873	995.6564	1017.4227	1031.114	1073.2254	1104.8325	1199.0608	1241.2164	1275.7036	1312.5019	1353.2816	1395.4706	1485.2271	1489.9514	1533.0887	1657.9808	1786.0526	1827.8385	2993.5114	3009.0413	3027.7231	3087.3653	3097.4439	3629.31
O=CC(=O)C1=NCCN1	O=CC(=O)[C]1[N]CCN1	
InChI=1S/C5H6N2O2/c8-3-4(9)5-6-1-2-7-5/h3H,1-2H2,(H,6,7)	InChI=1S/C5H6N2O2/c8-3-4(9)5-6-1-2-7-5/h3H,1-2H2,(H,6,7)
