17
gdb 53332	3.19174	0.96276	0.87726	2.6728	77.83	-0.2274	0.0241	0.2515	1392.7662	0.13321	-421.747087	-421.737847	-421.736903	-421.78234	33.214	
C	 0.0508462375	 1.5238810926	-0.0248066626	-0.499655
C	 0.0226418426	 0.0704756073	 0.0360669508	 0.07892
C	 0.0065146838	-1.1328783622	 0.0938366525	 0.080066
C	-0.0235912042	-2.5805105063	 0.1453121036	-0.125535
O	 0.093675623	-3.150643509	 1.4941113028	-0.291766
C	-1.0826319513	-3.9354392985	 1.2877984854	 0.046108
C	-2.2859101472	-3.0447413928	 1.0971221621	-0.365788
C	-1.3552287542	-3.3317026175	-0.0584948789	 0.31113
O	-1.7297933925	-3.9199041025	-1.244302391	-0.45334
H	 0.9039348635	 1.8827456565	-0.6107955795	 0.15197
H	-0.8610799451	 1.9221041645	-0.4832054759	 0.149169
H	 0.1319720241	 1.9549837104	 0.9790431977	 0.155927
H	 0.7548415798	-3.0182352267	-0.4915121737	 0.112947
H	-1.0981356131	-4.9494995877	 1.6668702734	 0.114854
H	-3.2299050872	-3.5776854123	 1.0277320572	 0.116994
H	-2.3216068632	-2.067622919	 1.5702460608	 0.124728
H	-2.3562713663	-3.3368987369	-1.6878021649	 0.293271
29.1978	84.1821	88.2807	211.9786	248.9602	285.7619	342.8223	353.1258	395.2385	445.8067	493.2236	525.9394	669.9386	722.165	850.2611	862.4115	906.5524	927.4644	991.3495	1010.4614	1012.4271	1050.6344	1054.3861	1072.4617	1084.2571	1176.9371	1202.7097	1233.6098	1258.2522	1324.3429	1355.4128	1412.5868	1415.0921	1475.5845	1477.7796	1494.4194	2364.9844	3028.538	3034.9422	3089.6174	3091.9788	3115.6543	3196.7617	3212.815	3790.9166
CC#CC1OC2CC12O	CC#C[C@H]1O[C@H]2C[C@@]12O	
InChI=1S/C7H8O2/c1-2-3-5-7(8)4-6(7)9-5/h5-6,8H,4H2,1H3	InChI=1S/C7H8O2/c1-2-3-5-7(8)4-6(7)9-5/h5-6,8H,4H2,1H3/t5-,6+,7-/m1/s1
