15
gdb 44167	4.22049	0.97136	0.93928	3.84	71.12	-0.2715	-0.0084	0.2631	1248.4475	0.111102	-420.583302	-420.575337	-420.574393	-420.616556	29.61	
O	-0.3380633781	 0.1710693186	-0.0160046669	-0.318245
C	-0.1058264504	 1.331361633	 0.0632851236	 0.46607
O	-1.0051489585	 2.3538713218	 0.3671740672	-0.260682
C	 0.0183470129	 3.345769178	 0.0844646626	 0.091035
C	 1.1293286369	 3.2317670551	 1.0591002701	-0.032925
C	 0.9545858277	 2.8102405516	 2.5127951704	-0.387725
C	 0.7788303759	 3.9627832011	 3.3896902913	 0.303285
C	 0.6440068524	 4.9299218421	 4.0897043322	-0.443212
C	 1.0567009554	 2.2664059705	-0.1399906219	-0.313769
H	-0.2748845694	 4.1945347713	-0.5164817558	 0.134533
H	 1.9077053892	 3.976672038	 0.9068799616	 0.123375
H	 0.090568078	 2.1434487913	 2.6008812559	 0.161591
H	 1.8321395808	 2.2334042542	 2.8289851409	 0.14312
H	 0.5159963797	 5.774267041	 4.7209499147	 0.201422
H	 1.8529058576	 2.1579539625	-0.8616885056	 0.132126
54.0018	94.3739	161.2122	246.6179	337.9933	351.0931	451.3926	502.2142	588.8265	625.152	654.1222	706.6435	749.1244	802.9288	832.8466	895.3209	903.3833	942.0454	967.7742	1004.918	1014.824	1058.0224	1073.5326	1107.3709	1159.5379	1249.9005	1275.1203	1300.3021	1342.145	1436.1645	1463.6554	1947.0021	2242.1303	3036.5766	3079.9495	3144.2229	3224.835	3235.4926	3505.1617
O=C1OC2C(CC#C)C12	O=C1O[C@H]2[C@@H](CC#C)[C@@H]12	
InChI=1S/C7H6O2/c1-2-3-4-5-6(4)9-7(5)8/h1,4-6H,3H2	InChI=1S/C7H6O2/c1-2-3-4-5-6(4)9-7(5)8/h1,4-6H,3H2/t4-,5+,6-/m0/s1
