19
gdb 63404	3.04724	1.15125	1.02807	5.0463	80.97	-0.2445	-0.0182	0.2263	1255.1937	0.15805	-419.238234	-419.228627	-419.227683	-419.272772	34.508	
C	-0.0690136792	 1.5507656401	-0.0170983051	-0.441516
C	-0.041312888	 0.0228030166	-0.0113353514	 0.148499
C	-1.4264248661	-0.582827082	 0.212620797	-0.4415
C	 0.7927835381	-0.6316619452	-1.1611037087	-0.225794
N	 1.7351798816	-1.1214853254	-0.1422749468	-0.103984
C	 2.8875323422	-1.8722385006	-0.2939519697	 0.069077
N	 3.6124956825	-2.2287865796	 0.6845602739	-0.411686
C	 1.0348294619	-0.5596508449	 0.9388578427	 0.419261
O	 1.2235764972	-0.5528432429	 2.1189292899	-0.338205
H	 0.9266635315	 1.970634287	-0.191469672	 0.12429
H	-0.7401047232	 1.9257819707	-0.7974083236	 0.118724
H	-0.4251494511	 1.9248534825	 0.9473819302	 0.140261
H	-2.1263962876	-0.252963683	-0.5626953767	 0.118723
H	-1.3939270663	-1.6768467215	 0.2010724053	 0.124285
H	-1.8216920701	-0.2705523372	 1.1838289114	 0.140269
H	 0.2828643295	-1.431695146	-1.7067680635	 0.116841
H	 1.2402321043	 0.0731081505	-1.8688510187	 0.116841
H	 3.072801526	-2.1040552089	-1.3514506858	 0.095614
H	 4.4069661467	-2.7710616401	 0.3492558016	 0.23
59.125	139.7249	151.1277	171.4208	206.0731	227.5741	228.2047	282.587	322.5924	377.0005	484.9633	539.365	658.5608	736.076	758.7229	817.0658	839.6851	936.0971	949.5572	967.9455	1020.4452	1033.8433	1064.0117	1106.1379	1154.9462	1189.5422	1227.0078	1246.3259	1254.7051	1323.2753	1392.6015	1399.5927	1420.4627	1428.6677	1483.1897	1485.8504	1503.4262	1503.8899	1521.119	1716.913	1894.7462	3025.7894	3030.8138	3033.6262	3041.1872	3090.1648	3100.3031	3102.6559	3111.4579	3114.5334	3501.0539
CC1(C)CN(C=N)C1=O	CC1(C)CN([CH][NH])C1=O	
InChI=1S/C6H10N2O/c1-6(2)3-8(4-7)5(6)9/h4,7H,3H2,1-2H3	InChI=1S/C6H10N2O/c1-6(2)3-8(4-7)5(6)9/h4,7H,3H2,1-2H3
