20
gdb 76379	2.43788	1.17677	1.1496	2.9123	76.61	-0.2356	0.032	0.2675	1235.6976	0.168885	-440.3172	-440.306834	-440.30589	-440.352132	38.179	
C	-0.1108883808	 0.8286508056	-2.0228808785	-0.433304
C	 0.042858915	-0.3197592486	-1.0503311233	-0.067849
C	 1.3312116589	-0.6179651578	-0.3252751324	-0.047814
C	 2.5920277208	 0.1978677622	-0.5015616698	-0.414302
C	 0.1451087688	-0.0563739212	 0.4457046631	 0.234353
O	 0.2618509708	 1.2687387865	 0.9033730789	-0.475837
C	-0.5700744103	-1.008692112	 1.3679714845	 0.356016
N	-0.9853800529	-0.4477705155	 2.5399813581	-0.542141
O	-0.7654252168	-2.1744860808	 1.0688724503	-0.382726
H	 0.4234466744	 1.7234706411	-1.6951473603	 0.123275
H	 0.2766370548	 0.553624503	-3.0093740054	 0.127819
H	-1.1665577792	 1.0944560955	-2.1514417949	 0.117315
H	-0.5517262568	-1.1992976693	-1.2791116076	 0.113805
H	 1.4903838197	-1.6750097012	-0.1336483212	 0.111188
H	 2.3883699858	 1.2699014309	-0.5074973981	 0.129823
H	 3.2921825509	 0.0021996201	 0.3171433662	 0.120909
H	 3.0954973268	-0.0639614525	-1.438442079	 0.117588
H	-0.5163170087	 1.7560273337	 0.6101474314	 0.291325
H	-0.6168626585	 0.4513545906	 2.8022321275	 0.262293
H	-1.3353472126	-1.0666816602	 3.2528046205	 0.258263
77.2456	131.13	140.306	147.7854	189.9226	220.5479	227.3501	291.6633	317.8151	371.14	422.2307	474.3007	499.652	557.3904	588.1848	627.1002	688.5447	728.3869	792.4269	852.3575	961.1028	1020.4648	1027.2379	1037.9644	1047.3326	1096.6111	1130.0489	1141.8973	1181.9316	1219.1167	1263.6825	1322.9817	1368.1944	1378.1881	1411.8865	1421.0347	1441.8249	1487.5975	1493.691	1503.727	1511.8967	1592.0835	1784.2091	3032.7443	3038.8879	3088.6812	3094.4599	3117.6759	3132.18	3156.3584	3163.2132	3593.8085	3730.1127	3793.526
CC1C(C)C1(O)C(N)=O	C[C@H]1[C@@H](C)[C@]1(O)C(=O)N	
InChI=1S/C6H11NO2/c1-3-4(2)6(3,9)5(7)8/h3-4,9H,1-2H3,(H2,7,8)	InChI=1S/C6H11NO2/c1-3-4(2)6(3,9)5(7)8/h3-4,9H,1-2H3,(H2,7,8)/t3-,4+,6-
