19
gdb 77155	3.08875	1.09862	0.91166	3.4283	76.21	-0.2386	-0.0147	0.2239	1306.7806	0.157447	-423.015218	-423.006251	-423.005306	-423.049491	32.812	
C	-0.5879120662	 1.1876418272	 0.1027097676	-0.413848
C	 0.1639388868	-0.1342241718	 0.0982872324	-0.096808
C	 1.0199653258	-0.5751255061	-1.1438392129	-0.046672
C	 2.1744123661	-1.0157636951	-0.1920806737	-0.373494
C	 1.4575048107	-0.2416526167	 0.9207277891	 0.386484
O	 1.8054315954	 0.2284831307	 1.9654347225	-0.300312
C	 0.4090380064	-1.6153803035	-2.0438956932	 0.068717
C	 1.1757609701	-2.7199115837	-2.6319130954	-0.183398
O	 0.3077463479	-2.9409839181	-1.5153438237	-0.231926
H	 0.0661492414	 2.0135570773	-0.1957173556	 0.120974
H	-1.441567951	 1.1649014621	-0.5823075783	 0.11919
H	-0.9639426485	 1.4088215475	 1.1059351028	 0.138926
H	-0.4965733072	-0.9639689317	 0.3844094827	 0.117222
H	 1.3036275988	 0.2998013504	-1.7387779551	 0.085766
H	 2.1362383865	-2.0938441268	-0.0012826627	 0.148686
H	 3.1990292506	-0.7179326196	-0.423178473	 0.124592
H	-0.4869372203	-1.2894668998	-2.5764324648	 0.096887
H	 0.8510443057	-3.1676843554	-3.5697168382	 0.120592
H	 2.2396585413	-2.808952537	-2.4173408104	 0.118424
68.1445	81.9707	154.8902	182.72	207.5731	219.542	297.4288	394.5494	453.815	578.5727	588.4159	634.3212	752.0304	762.0743	828.7282	879.887	898.6393	922.9211	978.3046	1017.5623	1040.4529	1083.2767	1093.8318	1118.439	1136.6945	1161.9374	1172.9808	1179.4234	1209.1914	1231.0757	1244.4848	1290.391	1330.7657	1371.2243	1408.3959	1428.6759	1438.7695	1494.0562	1494.2078	1526.0317	1889.626	3026.587	3035.2594	3053.9293	3057.7962	3085.7309	3090.6961	3102.8414	3112.5317	3125.1584	3174.6671
CC1C(CC1=O)C1CO1	C[C@H]1[C@@H](CC1=O)[C@H]1CO1	
InChI=1S/C7H10O2/c1-4-5(2-6(4)8)7-3-9-7/h4-5,7H,2-3H2,1H3	InChI=1S/C7H10O2/c1-4-5(2-6(4)8)7-3-9-7/h4-5,7H,2-3H2,1H3/t4-,5+,7+/m0/s1
