18
gdb 38476	3.53821	1.67976	1.52941	2.9536	75.14	-0.2287	0.0656	0.2944	911.663	0.150174	-401.827449	-401.821171	-401.820227	-401.857625	27.336	
C	-0.0174962901	 1.6126780613	 0.2311603775	-0.253177
C	 1.4596156365	 1.2288775853	 0.1084420559	-0.02693
O	 1.1650002464	-0.0092459934	 0.9112978193	-0.373787
C	 0.0924589264	 0.1007491792	-0.1209792284	 0.411044
C	-0.9561531204	-0.8231408638	-0.7109551273	-0.367839
C	-0.8607379989	-0.4077348545	-2.1990547794	-0.018719
N	-0.9685161209	 1.0452249999	-2.4356196572	-0.331956
C	 0.3735222924	 0.4290124276	-2.4674803596	-0.11622
C	 1.1625178938	 0.3682823536	-1.1740005191	 0.025347
H	-0.3447462647	 1.8109193347	 1.2529786439	 0.095303
H	-0.4547423474	 2.2740983038	-0.5120363041	 0.130748
H	 2.3620819504	 1.769877887	 0.3950635356	 0.089409
H	-0.6711481947	-1.8753648495	-0.6049387814	 0.120813
H	-1.9599330404	-0.6844622809	-0.3005132949	 0.116656
H	-1.2583158314	-1.0820307731	-2.9509649141	 0.090487
H	-1.2731596505	 1.2096994078	-3.3912250801	 0.234951
H	 0.8840317704	 0.3605051938	-3.4230164663	 0.089066
H	 1.8817367533	-0.4533132088	-1.2480641101	 0.084802
253.762	261.9107	372.9138	402.516	427.6197	533.1285	582.1906	679.5791	702.0634	725.9491	806.9379	813.1648	837.1641	885.0194	895.7418	904.6211	927.1482	962.244	973.1043	1005.2416	1051.24	1069.6932	1085.9223	1103.4445	1126.3318	1152.1123	1172.5718	1185.4433	1189.9467	1204.37	1216.4464	1265.3491	1283.3867	1302.7228	1366.7272	1379.9421	1404.6982	1470.8886	1495.424	3053.3303	3066.1388	3088.096	3105.7514	3113.3643	3154.043	3164.2845	3186.5356	3508.3253
C1C2OC11CC3NC3C21	C1[C@H]2O[C@]31C[C@H]1N[C@H]1[C@@H]23	
InChI=1S/C7H9NO/c1-3-6(8-3)5-4-2-7(1,5)9-4/h3-6,8H,1-2H2	InChI=1S/C7H9NO/c1-3-6(8-3)5-4-2-7(1,5)9-4/h3-6,8H,1-2H2/t3-,4-,5-,6-,7+/m1/s1
