15
gdb 29846	4.0724	1.12871	0.88875	2.8651	84.11	-0.1927	-0.02	0.1727	1248.4333	0.111603	-416.80037	-416.791686	-416.790742	-416.834487	31.315	
C	 0.0346703051	 1.4710240641	 0.0101921117	-0.343893
N	-0.0148089355	 0.024734874	 0.0000480754	-0.074658
C	-1.1380140942	-0.7775052963	 0.0031125619	-0.225322
C	-0.7315732469	-2.0634396945	-0.0068834137	 0.184956
O	 0.6675966567	-2.0804705159	-0.0159655678	-0.249803
C	 1.1150478585	-0.7803921313	-0.0112664792	 0.450823
N	 2.3152543643	-0.3732218287	-0.0162417635	-0.620882
C	-1.4282109419	-3.2759652884	-0.0094729898	 0.259899
C	-2.0235364827	-4.324103352	-0.0116940353	-0.427833
H	 1.0872312991	 1.755366993	 0.001395608	 0.186258
H	-0.4603287456	 1.8868891216	-0.8736801528	 0.137394
H	-0.4417771059	 1.8741233945	 0.9100821399	 0.137427
H	-2.1358577222	-0.3737728072	 0.0116842803	 0.157696
H	 2.9659367148	-1.1530479031	-0.0247261814	 0.229726
H	-2.5493961138	-5.2463965399	-0.0136496939	 0.198211
38.3076	105.4434	141.8759	168.4256	244.5007	300.4563	427.8406	440.6583	510.6248	535.085	585.6704	630.9517	669.8807	699.9051	709.4238	738.05	789.6916	844.3788	954.6499	1027.2144	1079.522	1153.3822	1157.5584	1208.9056	1276.9174	1342.04	1426.7829	1476.8252	1496.8723	1508.5131	1670.1146	1774.7351	2226.3548	3032.4369	3090.2895	3158.1984	3288.8051	3504.1378	3552.7854
CN1C=C(OC1=N)C#C	CN1C=C(O[C@H]1[NH])C#C	
InChI=1S/C6H6N2O/c1-3-5-4-8(2)6(7)9-5/h1,4,7H,2H3	InChI=1S/C6H7N2O/c1-3-5-4-8(2)6(7)9-5/h1,4,6-7H,2H3/t6-/m0/s1
