23
gdb 59784	3.01933	1.09707	0.9771	0.2138	82.08	-0.2321	0.0844	0.3164	1345.2561	0.206209	-425.431948	-425.422537	-425.421593	-425.466007	35.878	
C	 0.0567413326	 1.5290551041	 0.028113564	-0.391726
C	-0.0611541314	-0.0015242376	-0.0256378107	 0.007432
C	-1.5313331446	-0.4393686636	 0.0699110622	-0.389605
C	 0.6453324018	-0.5432969403	-1.2774039857	 0.131704
C	 0.7766681651	-2.0672920743	-1.3362903726	-0.10738
O	 1.4180539728	-2.4703967851	-2.5386385218	-0.251877
C	 0.7024673344	-2.0104142949	-3.6730018574	-0.077828
C	 0.5613169681	-0.4929943777	-3.6327139611	-0.077239
O	-0.0634520095	-0.0831012666	-2.4278787228	-0.269108
H	 1.1045695371	 1.8478314122	 0.0241389454	 0.106586
H	-0.4351951116	 1.9811496623	-0.8377820356	 0.131708
H	-0.4122148177	 1.9247714731	 0.9343808898	 0.106987
H	 0.4822894368	-0.4161863403	 0.8352480353	 0.07159
H	-2.0850985765	-0.1182713856	-0.8164163793	 0.132971
H	-1.6372502352	-1.5245503231	 0.159226952	 0.110235
H	-2.0042416456	 0.0088453863	 0.9494302478	 0.108118
H	 1.6698930877	-0.1314007425	-1.309245796	 0.064102
H	 1.3980290964	-2.4338966201	-0.5133792105	 0.105943
H	-0.2162288582	-2.5378513583	-1.266391408	 0.092032
H	 1.2652729252	-2.3294123444	-4.5557951422	 0.106281
H	-0.2985554787	-2.4720010936	-3.7066451637	 0.091209
H	 1.5581628226	-0.0303862881	-3.7205467004	 0.093045
H	-0.0653495717	-0.1336626219	-4.4552401687	 0.10482
68.5901	119.9345	186.2767	207.8621	233.8963	260.8742	288.4753	321.6545	384.6683	427.2665	464.5963	495.1915	572.7136	619.7094	825.4233	860.4801	889.5039	915.3094	930.1282	968.313	986.1172	996.4229	1018.4894	1098.9164	1112.9888	1130.8033	1145.5054	1156.2182	1167.7892	1207.2088	1255.1943	1289.8148	1306.0737	1326.6599	1353.1894	1361.159	1378.1072	1397.2063	1398.8499	1411.9386	1425.4027	1427.6676	1480.4574	1485.7479	1489.0391	1492.8298	1495.2298	1506.0916	1515.3802	2942.8061	2967.894	2978.7576	2992.6672	3006.404	3034.402	3042.6761	3080.4018	3083.1016	3084.9469	3099.4803	3104.8783	3116.7482	3122.9551
CC(C)C1COCCO1	CC(C)[C@H]1COCCO1	
InChI=1S/C7H14O2/c1-6(2)7-5-8-3-4-9-7/h6-7H,3-5H2,1-2H3	InChI=1S/C7H14O2/c1-6(2)7-5-8-3-4-9-7/h6-7H,3-5H2,1-2H3/t7-/m1/s1
