19
gdb 126737	4.49934	0.88611	0.78709	1.4672	79.94	-0.2294	0.0264	0.2558	1484.9824	0.159883	-419.226895	-419.217588	-419.216644	-419.262428	33.174	
C	 0.0162258711	 1.4602632166	-0.0559753681	-0.371597
C	-0.0734653453	-0.0529604093	 0.1440737915	-0.139595
N	-1.4280792527	-0.5571587761	-0.0029906764	 0.058469
C	-1.9501454287	-1.2740734974	-1.0293871262	-0.026019
C	-3.2811476135	-1.4839743742	-0.7396392992	-0.299177
C	-3.4739113539	-0.8463355902	 0.5050147223	 0.361306
C	-4.7402416453	-0.7339192577	 1.2933241822	-0.185421
O	-5.4450752433	-1.9659289045	 1.1900619144	-0.4182
N	-2.3468891955	-0.2893473572	 0.9470326121	-0.34018
H	 1.0459958983	 1.799949155	 0.0911369072	 0.117528
H	-0.3002209091	 1.7413505591	-1.0649019487	 0.123652
H	-0.6269673102	 1.9725451174	 0.6632835294	 0.147832
H	 0.5483126408	-0.5822772726	-0.5835964364	 0.116912
H	 0.2774943385	-0.3259499657	 1.1438373075	 0.130926
H	-1.3398832213	-1.5807926098	-1.8647974583	 0.125568
H	-4.0058665858	-2.0322729275	-1.3174284302	 0.1102
H	-4.4877565373	-0.4855430378	 2.3341114242	 0.105592
H	-5.3526907314	 0.0938064266	 0.8986161531	 0.095242
H	-6.3103875056	-1.8425050546	 1.5912055896	 0.286962
35.6667	46.5819	110.4002	181.1583	215.4137	252.6554	289.2827	359.0737	402.3978	465.1717	626.2036	666.4817	696.9445	730.6881	774.1802	795.3762	837.7552	961.7731	1004.6017	1021.869	1032.5479	1061.8785	1083.3396	1103.5833	1121.7055	1209.0761	1239.1663	1250.3244	1272.6551	1349.5559	1385.254	1405.6584	1410.1044	1440.5937	1464.5398	1480.4521	1489.1974	1508.157	1512.4043	1519.9506	1571.2164	2960.051	3014.4828	3044.6987	3056.9573	3099.4989	3117.7717	3136.6928	3252.2569	3284.329	3828.7285
CCN1C=CC(CO)=N1	CCn1ccc(CO)n1	
InChI=1S/C6H10N2O/c1-2-8-4-3-6(5-9)7-8/h3-4,9H,2,5H2,1H3	InChI=1S/C6H10N2O/c1-2-8-4-3-6(5-9)7-8/h3-4,9H,2,5H2,1H3
