21
gdb 111304	2.3122	1.33865	1.14033	1.7983	77.49	-0.2529	0.0614	0.3143	1201.8226	0.180402	-424.185517	-424.175937	-424.174993	-424.219523	36.309	
C	-0.1350850993	 1.5577964134	-0.2013928983	-0.45004
C	-0.0120791191	 0.0456463718	-0.0275714106	 0.266767
C	-1.3698576865	-0.6043907876	 0.2384515553	-0.448163
C	 0.7523222043	-0.6849504425	-1.1543855261	 0.006547
O	 2.0960377324	-0.1928632584	-1.1799344723	-0.257718
C	 1.756935718	-1.2087250359	-0.2211415251	-0.002357
C	 1.1001648449	-0.5021697609	 0.9769711935	-0.081801
C	 1.9758671011	 0.4668689308	 1.7602094554	-0.095987
O	 2.9340162115	-0.2174615762	 2.5604989381	-0.423842
H	 0.8201542055	 2.0026548553	-0.4887363786	 0.133645
H	-0.8658639059	 1.7930980037	-0.9838020733	 0.110347
H	-0.477919045	 2.0389312613	 0.721342051	 0.114445
H	-2.0795946363	-0.3712168287	-0.5638048383	 0.113945
H	-1.2876526517	-1.69459051	 0.3068805476	 0.115224
H	-1.7980208591	-0.2406587781	 1.1787288668	 0.120739
H	 0.3591068137	-1.0982588971	-2.0777790332	 0.098289
H	 2.3320912898	-2.1274666611	-0.2540105691	 0.101478
H	 0.6619121531	-1.2249522022	 1.672238136	 0.079696
H	 2.4619619887	 1.1739138595	 1.0759066035	 0.105594
H	 1.3642934925	 1.0470152438	 2.4593294953	 0.108107
H	 3.5901913774	-0.595840531	 1.9670486023	 0.285084
79.1657	132.7703	167.0894	229.4299	248.9177	258.3057	277.5689	293.4881	310.1504	334.3908	476.226	525.3364	576.8605	643.41	796.5651	837.4681	856.8659	866.1608	895.9131	953.9839	971.8114	977.5492	1008.8093	1027.7414	1057.0593	1060.5198	1104.8235	1166.572	1192.3412	1202.836	1208.0049	1244.4841	1271.4782	1301.2488	1344.2826	1381.3523	1395.2406	1402.9239	1410.742	1422.4357	1484.2694	1489.4202	1499.8902	1504.734	1512.683	3021.1546	3022.5901	3030.7791	3061.9922	3079.8543	3086.7895	3091.2691	3096.9495	3124.7668	3164.475	3182.32	3821.2518
CC1(C)C2OC2C1CO	CC1(C)[C@H]2O[C@H]2[C@H]1CO	
InChI=1S/C7H12O2/c1-7(2)4(3-8)5-6(7)9-5/h4-6,8H,3H2,1-2H3	InChI=1S/C7H12O2/c1-7(2)4(3-8)5-6(7)9-5/h4-6,8H,3H2,1-2H3/t4-,5+,6+/m1/s1
