14
gdb 9116	3.92281	0.96364	0.78107	4.0194	77.35	-0.265	-0.0767	0.1882	1404.2014	0.104011	-345.355444	-345.34644	-345.345495	-345.391131	30.347	
C	-0.0295430261	 1.572680216	 0.0236621692	-0.36985
C	 0.0229224867	 0.0353084624	-0.0331017254	-0.323311
C	 0.6973323127	-0.4796886145	-1.2151778256	 0.020748
C	 1.2591871762	-0.8954637677	-2.2003070225	 0.074272
C	 1.9266124861	-1.4110110802	-3.3698244063	 0.151714
O	 2.0673652829	-2.5987837145	-3.589690676	-0.269165
C	 2.4255409581	-0.3948601107	-4.2788656975	 0.286521
C	 2.8431788058	 0.4392485813	-5.0394102389	-0.478213
H	 0.9780174468	 1.9962123402	 0.0288320886	 0.135644
H	-0.5625489983	 1.9757638097	-0.8412147771	 0.135644
H	-0.5461733796	 1.8980618409	 0.9308064737	 0.123468
H	 0.5299959283	-0.3573514183	 0.8578091947	 0.147233
H	-0.9937629796	-0.3775586889	-0.0027789531	 0.147236
H	 3.2148106899	 1.1699498343	-5.7158976039	 0.218059
15.2735	63.3458	125.6835	165.3863	225.0588	236.5864	271.0717	407.0258	452.7084	530.9628	593.9472	646.8151	689.6623	701.9068	773.2633	778.671	906.2115	1022.589	1083.1255	1098.1126	1227.5892	1281.5436	1346.6868	1411.5181	1460.7564	1495.3693	1504.0443	1718.8021	2215.3921	2332.1961	3023.6183	3049.3148	3052.2135	3124.6658	3129.1913	3495.3362
CCC#CC(=O)C#C	CCC#CC(=O)C#C	
InChI=1S/C7H6O/c1-3-5-6-7(8)4-2/h2H,3H2,1H3	InChI=1S/C7H6O/c1-3-5-6-7(8)4-2/h2H,3H2,1H3
