17
gdb 20061	5.39987	1.39085	1.18197	1.6289	70.58	-0.2311	0.0169	0.248	1016.5691	0.143484	-363.830824	-363.823586	-363.822642	-363.862945	26.818	
C	 0.1799157194	 1.5711058802	 0.0736483145	-0.237839
N	 1.1743890784	 0.5289023042	-0.2373815734	-0.322203
C	-0.208851883	 0.1415530359	 0.0833723791	-0.013105
C	-0.3784837321	-0.6250369333	 1.3795759794	 0.099441
O	-1.7328954123	-0.5202533387	 1.8328797724	-0.278916
C	-2.2920414829	-1.8148340157	 2.0392465479	-0.114568
C	-1.2203580853	-2.7781024257	 1.6117648865	-0.099406
C	-0.1350333449	-2.1058634939	 1.2486576271	-0.095285
H	 0.3439992356	 2.0897681401	 1.0144276304	 0.121626
H	-0.1927968036	 2.1985820221	-0.7312424398	 0.112097
H	 1.3275468776	 0.4804263214	-1.2405520747	 0.233129
H	-0.8468359983	-0.2086866907	-0.7261504328	 0.082781
H	 0.2990895979	-0.17425758	 2.1233565668	 0.08441
H	-2.5682255743	-1.9430760972	 3.0986440119	 0.103951
H	-3.21742316	-1.9183258818	 1.4515722664	 0.104504
H	-1.3502140801	-3.8529731349	 1.6249077008	 0.105451
H	 0.8074277878	-2.5088533921	 0.9021995475	 0.113932
73.7294	87.8211	180.2068	275.3502	329.5189	437.668	494.6953	713.1595	768.3373	815.1984	856.4463	880.037	892.0475	923.4173	941.048	963.227	969.6719	1000.4454	1047.1391	1053.5261	1108.5209	1115.614	1119.5898	1145.18	1193.4667	1220.1532	1248.7534	1284.5064	1294.1813	1328.418	1353.1052	1381.9438	1446.2457	1513.7014	1522.1034	1690.6103	2965.4636	2971.112	2990.3302	3109.3473	3125.7838	3194.6506	3208.5677	3235.7865	3512.2027
C1NC1C1OCC=C1	C1N[C@H]1[C@H]1OCC=C1	
InChI=1S/C6H9NO/c1-2-6(8-3-1)5-4-7-5/h1-2,5-7H,3-4H2	InChI=1S/C6H9NO/c1-2-6(8-3-1)5-4-7-5/h1-2,5-7H,3-4H2/t5-,6+/m1/s1
