19
gdb 54189	2.46999	1.48028	1.36951	1.9027	74.68	-0.2341	-0.0156	0.2184	1068.3254	0.156064	-423.005783	-422.996608	-422.995664	-423.04006	34.142	
C	 0.0545347245	 1.3411581411	-0.4813155046	-0.477796
C	 0.0522373724	-0.0386729726	 0.1372081364	 0.340311
O	 1.0042762507	-0.5067000482	 0.7187850984	-0.314924
C	-1.2412272429	-0.8551430192	 0.0409571509	 0.303614
C	-1.90954105	-0.9300451822	 1.4078203605	-0.436216
O	-2.18096399	-0.349453605	-0.9639802042	-0.334176
C	-2.2059245276	-1.6331429537	-1.5977542853	 0.100709
C	-0.8650854042	-1.9913139264	-2.1532352114	-0.316072
C	-1.1533747652	-2.2051309001	-0.6811985398	-0.145004
H	 0.9961385392	 1.8435422899	-0.2566564141	 0.135415
H	-0.0912055556	 1.2674476668	-1.5633925795	 0.151953
H	-0.7919123047	 1.9274542137	-0.1071266072	 0.146227
H	-2.2016461805	 0.0683715798	 1.7480304976	 0.126641
H	-2.8065801694	-1.5523872636	 1.3523679946	 0.124962
H	-1.213503835	-1.3588695572	 2.1341287033	 0.141877
H	-3.1617911946	-2.0049042316	-1.9465777889	 0.108122
H	-0.8318017734	-2.9080326984	-2.7341766338	 0.120498
H	-0.1868459773	-1.2142076579	-2.4930054179	 0.118432
H	-1.0775965163	-3.1646025654	-0.188973855	 0.105427
36.345	128.4339	143.2129	195.7844	242.2716	250.9584	275.7551	371.102	458.2548	476.4759	498.8254	606.7723	625.4532	762.2158	798.8375	847.8691	893.6893	914.4903	958.6532	971.1646	987.7431	1015.2383	1019.7412	1048.0101	1054.6381	1082.3932	1128.4609	1148.19	1160.5633	1211.7583	1275.8482	1300.9725	1350.2728	1380.9516	1393.0161	1451.9761	1463.6594	1476.9492	1485.546	1486.1855	1807.516	3041.0415	3044.5983	3105.9182	3116.4508	3120.4672	3128.9882	3155.5997	3185.1066	3205.537	3214.3234
CC(=O)C1(C)OC2CC12	CC(=O)[C@@]1(C)O[C@H]2C[C@@H]12	
InChI=1S/C7H10O2/c1-4(8)7(2)5-3-6(5)9-7/h5-6H,3H2,1-2H3	InChI=1S/C7H10O2/c1-4(8)7(2)5-3-6(5)9-7/h5-6H,3H2,1-2H3/t5-,6+,7-/m1/s1
