19
gdb 87792	4.13758	1.0288	0.96354	1.407	77.19	-0.2149	0.0671	0.282	1284.7372	0.157274	-422.966313	-422.957743	-422.956798	-422.999641	33.377	
O	 0.1032321288	 1.4032418899	 0.4086303131	-0.420888
C	 0.0702483329	 0.0245362538	 0.1855702011	 0.014694
C	-0.6382373145	-0.8951922181	 1.176402532	-0.403043
C	-1.2561812757	-0.5581896211	-0.1459275203	 0.437671
C	-2.549178277	 0.1769466568	-0.4704408958	-0.431446
C	-2.6562246049	-0.8688685025	-1.5783205155	 0.448832
C	-3.8272546185	-1.6424558994	-2.0776207998	-0.333828
C	-3.0387374762	-0.7281748424	-3.0117070176	-0.329831
O	-1.4375951482	-1.5207202223	-1.1858898514	-0.326657
H	 0.7115557017	 1.5745724209	 1.1354934306	 0.289227
H	 0.9313853414	-0.3949894172	-0.3355599716	 0.096301
H	-0.2323394803	-1.8925238382	 1.3107584958	 0.123448
H	-1.0786353415	-0.4449296324	 2.0609942772	 0.116027
H	-3.3245097422	 0.1233823349	 0.2970804831	 0.111853
H	-2.4181978586	 1.2102776026	-0.7959395082	 0.12918
H	-3.6951698515	-2.7119887716	-2.2013478435	 0.124694
H	-4.8219276857	-1.3388833535	-1.7667058031	 0.113767
H	-3.4936429256	 0.2008545799	-3.3402504811	 0.115008
H	-2.3937419646	-1.2031264601	-3.7431331649	 0.12499
49.8379	146.0799	187.265	262.2894	289.7422	312.4283	371.3955	420.7901	435.9327	472.5297	531.2231	671.0111	753.9966	812.0509	836.1162	868.1183	895.2098	902.029	918.0475	922.0421	977.4234	999.7476	1017.625	1048.1096	1067.4994	1082.3619	1095.6304	1154.6677	1166.7633	1183.8516	1185.5477	1222.3865	1262.2527	1296.4586	1335.5465	1386.6253	1416.3856	1448.8911	1487.5459	1489.4964	1523.1258	3070.6553	3100.8245	3123.0655	3126.6498	3126.833	3129.4653	3210.2547	3218.0865	3224.3783	3799.1587
OC1CC11CC2(CC2)O1	O[C@H]1C[C@]21CC1(CC1)O2	
InChI=1S/C7H10O2/c8-5-3-7(5)4-6(9-7)1-2-6/h5,8H,1-4H2	InChI=1S/C7H10O2/c8-5-3-7(5)4-6(9-7)1-2-6/h5,8H,1-4H2/t5-,7+/m0/s1
