19
gdb 97560	2.74863	0.62424	0.53345	2.1109	90.42	-0.2437	0.0202	0.2639	2129.3428	0.155552	-385.834047	-385.822552	-385.821608	-385.874227	38.302	
C	 0.3377512719	 1.1979581901	 0.7252358613	-0.364989
C	-0.3900967061	 0.22858292	-0.2239262339	-0.315763
C	 0.4108178079	-0.1471206692	-1.3839856371	 0.058608
C	 1.0907815603	-0.4385977841	-2.3344811674	 0.090808
C	 1.9175307981	-0.8343751292	-3.4843021318	-0.245599
O	 2.4640905295	-2.1446973541	-3.327745135	-0.392377
C	 1.1732550564	-0.6931242251	-4.7445298867	 0.108556
C	 0.5668907921	-0.6079043495	-5.7809111405	 0.042526
C	-0.1633249482	-0.4977820178	-7.0348508299	-0.498625
H	 1.2608061032	 0.7508377088	 1.1036382873	 0.1309
H	 0.5994224102	 2.1248246573	 0.2077908029	 0.129517
H	-0.3008349928	 1.4472354583	 1.5778455537	 0.11496
H	-0.6749103904	-0.6781717886	 0.3251617791	 0.131139
H	-1.3303288032	 0.6815880685	-0.5637178772	 0.131299
H	 2.8008273606	-0.1833419659	-3.5224673921	 0.140627
H	 1.7189737836	-2.7552329378	-3.2862074481	 0.28468
H	-0.0598296398	-1.4098042199	-7.6329455499	 0.151749
H	-1.2322360076	-0.3326149277	-6.8612098548	 0.150314
H	 0.2098101346	 0.3370819558	-7.6379909398	 0.151671
16.2536	18.8635	56.3524	101.5388	135.5142	142.9338	215.8268	226.1631	285.944	327.944	353.0273	378.4356	483.641	496.2903	526.6034	592.6126	767.4331	785.4824	803.4503	954.4803	1010.6474	1051.8545	1053.9228	1078.7522	1104.2392	1137.5614	1177.4987	1256.473	1285.5843	1313.2283	1349.122	1408.9789	1411.1985	1415.3124	1473.2181	1476.5834	1478.0565	1494.8887	1505.5548	2363.1601	2371.2316	3020.555	3023.9924	3028.7372	3045.3378	3048.0565	3090.4078	3090.9808	3118.9104	3125.4262	3801.228
CCC#CC(O)C#CC	CCC#C[C@@H](O)C#CC	
InChI=1S/C8H10O/c1-3-5-7-8(9)6-4-2/h8-9H,3H2,1-2H3	InChI=1S/C8H10O/c1-3-5-7-8(9)6-4-2/h8-9H,3H2,1-2H3/t8-/m0/s1
