20
gdb 72581	2.1879	1.5821	1.46216	3.7353	79.26	-0.2354	0.0338	0.2692	1064.5814	0.170221	-403.174161	-403.165158	-403.164213	-403.207304	34.505	
C	-0.0957294473	 1.5745080896	-0.0797212805	-0.472936
C	 0.0164861495	 0.0718428091	 0.0222904154	 0.330869
C	 0.8750254368	-0.7077998897	-1.0198890005	-0.263556
C	 1.5670058343	-1.4959393983	 0.1296543738	-0.278143
C	 0.7278388429	-0.7189993816	 1.1948835324	 0.116127
C	 1.4165180451	-0.1131500301	 2.3934997541	-0.496853
C	-0.6379428046	-1.4086972627	 1.390722226	 0.405179
O	-1.0634108244	-2.2978284038	 2.0806006114	-0.372798
N	-1.2169779544	-0.6345900383	 0.4034119267	-0.381544
H	 0.8935549365	 2.0325198239	-0.1783334121	 0.12128
H	-0.6814493964	 1.8637786867	-0.9607316237	 0.120468
H	-0.5874021591	 1.9924251233	 0.8036726539	 0.126713
H	 0.2984581224	-1.2973935374	-1.7366147009	 0.099845
H	 1.5628217712	-0.0656180909	-1.5759798	 0.10383
H	 1.4372681878	-2.5803454723	 0.1340964044	 0.117906
H	 2.6349259996	-1.2785349089	 0.2112507607	 0.106751
H	 2.3115724439	 0.4465008377	 2.1007320957	 0.114026
H	 0.753146653	 0.5637729836	 2.9416476892	 0.125529
H	 1.7259085445	-0.9032082539	 3.0864538629	 0.140113
H	-2.0423938011	-0.8346998461	-0.147767799	 0.237196
105.2464	173.928	178.925	189.7735	217.1747	262.2374	309.5257	338.7288	401.6215	495.4844	535.6849	613.2407	663.6001	696.3555	740.1428	759.6265	802.3478	870.9375	919.5955	933.6235	960.8085	970.8299	1036.5684	1108.3131	1141.6703	1158.1993	1193.9069	1213.7063	1223.0199	1234.2423	1272.6533	1293.4392	1329.7906	1365.0198	1408.5244	1415.1395	1473.9831	1484.9126	1488.1241	1492.4684	1493.205	1496.4395	1881.2542	3027.2686	3028.9643	3058.9375	3066.1989	3091.2081	3095.64	3100.138	3104.7144	3113.2424	3123.0705	3564.7985
CC12CCC1(C)C(=O)N2	C[C@@]12CC[C@]1(C)C(=O)N2	
InChI=1S/C7H11NO/c1-6-3-4-7(6,2)8-5(6)9/h3-4H2,1-2H3,(H,8,9)	InChI=1S/C7H11NO/c1-6-3-4-7(6,2)8-5(6)9/h3-4H2,1-2H3,(H,8,9)/t6-,7-/m1/s1
