15
gdb 27847	2.00786	1.86744	0.97081	8.3063	72.79	-0.2161	0.0006	0.2166	1135.9123	0.115514	-450.195473	-450.187538	-450.186594	-450.227642	30.854	
N	 0.118171507	 1.3916383628	 0.1440133253	-0.592409
C	-0.0144338697	 0.011743022	 0.0283938445	 0.404728
C	-1.1652027663	-0.6923876968	-0.0118956119	-0.306961
C	-1.1493841322	-2.1577616951	-0.0115552121	 0.373454
O	-2.1662195357	-2.8252127473	-0.0173579814	-0.378038
N	 0.1213193387	-2.7795313121	-0.0347453422	-0.367628
C	 1.1807184233	-2.0540174998	 0.0061509895	 0.449039
N	 2.4344262415	-2.6314778511	 0.0954607874	-0.572956
H	 2.3870251903	-3.6313364918	-0.0442269535	 0.272235
H	 3.1675747118	-2.1907451786	-0.4426189378	 0.251447
N	 1.1940716987	-0.6693939996	 0.0117664402	-0.405462
H	 0.7930797638	 1.7979229008	-0.4931584147	 0.251962
H	-0.7673031314	 1.874923898	 0.0806510779	 0.264077
H	-2.1248795731	-0.193292318	-0.0490157919	 0.096331
H	 2.0045188134	-0.1970424134	 0.3843201308	 0.260181
131.554	181.766	214.3631	309.4629	323.2876	367.9132	374.8481	477.8377	505.6134	535.7556	591.3121	618.0638	632.1421	650.059	710.8257	761.9132	776.8846	848.3767	924.1495	1005.6601	1040.6812	1140.0508	1159.1393	1221.8276	1255.7313	1333.3855	1439.9905	1513.6959	1616.2695	1639.4794	1670.0003	1735.2521	1774.941	3214.8397	3533.8849	3556.7429	3612.6864	3639.4438	3665.0026
NC1=CC([O-])=NC(=[NH2+])N1	Nc1cc(=O)nc(N)[nH]1	
InChI=1S/C4H6N4O/c5-2-1-3(9)8-4(6)7-2/h1H,(H5,5,6,7,8,9)	InChI=1S/C4H6N4O/c5-2-1-3(9)8-4(6)7-2/h1H,(H5,5,6,7,8,9)
