16
gdb 50994	2.07768	1.29936	0.91711	5.9932	69.96	-0.2883	-0.0131	0.2752	1261.0576	0.12232	-437.90157	-437.892671	-437.891727	-437.936045	31.559	
O	 2.3502929894	 0.7405384338	-1.9038844423	-0.258491
C	 2.1222390708	 1.8267377183	-1.4707219113	 0.158365
O	 1.4136689916	 2.0186751737	-0.3299655516	-0.226385
C	 1.1683123401	 3.3565827475	 0.0626178509	 0.415835
C	-0.0342611406	 3.9751320646	-0.636318198	-0.404551
C	-1.2882490957	 3.2859043839	-0.3242832935	 0.279096
N	-2.2816801089	 2.7542452455	-0.0716662055	-0.293671
C	 1.4259407616	 3.6410726129	 1.5072619791	-0.29707
C	 2.3447755171	 4.2161004037	 0.4500776106	-0.333628
H	 2.4620425987	 2.7741739526	-1.9288207795	 0.087711
H	-0.1291178117	 5.0238072207	-0.3359295213	 0.160006
H	 0.1098453361	 3.9700064397	-1.7232176096	 0.157852
H	 0.74297696	 4.3045842699	 2.0251444311	 0.134514
H	 1.7991843885	 2.8148967102	 2.0999821664	 0.149437
H	 3.3319971397	 3.7786816854	 0.3574312205	 0.140635
H	 2.3009557034	 5.2783578277	 0.2362053842	 0.130346
50.8269	101.8747	135.0981	165.7616	210.515	306.4652	319.1273	382.8076	395.167	470.3502	530.2256	617.5131	771.7177	798.8046	894.914	906.8553	948.5531	972.2542	1008.2518	1024.5942	1050.5743	1068.1809	1091.6306	1157.4165	1187.8953	1199.1902	1284.7793	1329.2061	1369.0154	1419.7901	1454.0299	1461.6898	1499.0876	1875.2186	2369.779	2966.7593	3044.5404	3088.9435	3142.0638	3149.7739	3227.3603	3243.4748
O=COC1(CC#N)CC1	O=COC1(CC#N)CC1	
InChI=1S/C6H7NO2/c7-4-3-6(1-2-6)9-5-8/h5H,1-3H2	InChI=1S/C6H7NO2/c7-4-3-6(1-2-6)9-5-8/h5H,1-3H2
