20
gdb 68112	4.13382	1.09672	1.09022	2.6338	79.97	-0.2398	0.0843	0.3242	1217.4057	0.17072	-403.064212	-403.055834	-403.05489	-403.097106	32.688	
C	-0.2346508903	 1.3348854295	 0.0358503504	-0.508272
C	 0.0674896962	-0.1297616987	 0.0252093374	 0.40238
C	 0.5536096423	-1.037795265	-1.1330653363	-0.296258
C	 0.1304969322	-1.9329174956	 0.0627658227	 0.421508
C	 0.8956400588	-0.9829961923	 1.0217267791	-0.29661
O	-1.0739584143	-1.0758508396	 0.230544351	-0.380177
C	-0.0852070717	-3.4021388279	 0.11852282	-0.1486
C	-1.1440055153	-3.9442385891	 1.0049201348	-0.239596
N	-1.323498986	-3.9504963424	-0.4589965026	-0.327539
H	 0.6822669246	 1.9106062066	-0.1247023229	 0.128134
H	-0.9448095085	 1.5864252641	-0.7576291263	 0.13442
H	-0.6664521952	 1.6318072705	 0.996333805	 0.134062
H	-0.1066002724	-1.0789490755	-2.0007990846	 0.105506
H	 1.6126643646	-1.0051389464	-1.4018588636	 0.092938
H	 1.9854337092	-0.944225447	 0.9476952514	 0.093442
H	 0.5348465126	-0.9766674538	 2.0514327588	 0.104507
H	 0.8055435514	-3.9960177945	-0.0760994534	 0.09276
H	-1.01980209	-4.9241222115	 1.4566910126	 0.115828
H	-1.7157609532	-3.2290716473	 1.5881530585	 0.12787
H	-1.923629955	-3.1662810841	-0.7107809722	 0.243699
85.8781	148.9286	153.4964	192.6159	297.6524	300.6502	417.0304	450.3458	525.1244	602.0167	609.1695	653.5418	708.7106	788.5036	844.3826	874.3489	911.8613	943.2449	950.8596	975.037	988.268	1011.8792	1061.5251	1078.7761	1103.1823	1119.3935	1121.8482	1142.6565	1157.5135	1172.7711	1199.3737	1210.8854	1267.5875	1279.2801	1312.3343	1346.4902	1411.8203	1440.633	1466.3694	1476.3285	1489.1316	1502.7966	1527.7483	3039.6666	3056.3858	3066.2408	3114.1252	3115.4047	3116.3023	3129.4986	3140.1741	3145.3084	3208.111	3484.2897
CC12CC(C1)(O2)C1CN1	C[C@@]12C[C@@](C1)(O2)[C@H]1CN1	
InChI=1S/C7H11NO/c1-6-3-7(4-6,9-6)5-2-8-5/h5,8H,2-4H2,1H3	InChI=1S/C7H11NO/c1-6-3-7(4-6,9-6)5-2-8-5/h5,8H,2-4H2,1H3/t5-,6-,7+/m1/s1
