19
gdb 32633	2.93543	1.27031	0.96494	3.1293	78.86	-0.187	0.0342	0.2212	1250.6561	0.159553	-419.258318	-419.248948	-419.248004	-419.29257	34.164	
C	-0.0409294249	 1.5434148388	 0.0492947435	-0.375906
C	-0.0105587683	 0.0153492542	-0.0452034466	-0.159733
N	 0.718955017	-0.4774066729	-1.2018867017	-0.038422
C	 0.1735277344	-0.8431925504	-2.3900985851	-0.012782
N	 1.0877107873	-1.1986513061	-3.273197806	-0.364185
C	 2.2728436713	-1.0491828714	-2.6177541022	 0.275257
O	 3.4566165723	-1.33180231	-3.2155126887	-0.443785
C	 2.1036676726	-0.6030475298	-1.3295270161	 0.179464
C	 3.0906324801	-0.3289827795	-0.2489041237	-0.517745
H	 0.9681629264	 1.9549186527	 0.1357887242	 0.135552
H	-0.5094270018	 1.9758866606	-0.8394180935	 0.132211
H	-0.6131010377	 1.8548386192	 0.9287464634	 0.121943
H	 0.4380225209	-0.4137550237	 0.8566135984	 0.124163
H	-1.0291022137	-0.3790939139	-0.1117319205	 0.123211
H	-0.8938418119	-0.8373588123	-2.5547840673	 0.122525
H	 3.2395169535	-1.6348908147	-4.1050038864	 0.297385
H	 3.1186539797	 0.7254900942	 0.0549903758	 0.124511
H	 2.9048120067	-0.9237189248	 0.6549150345	 0.123821
H	 4.0865995261	-0.5904636003	-0.6139285117	 0.152515
70.7603	101.9155	140.8199	201.8977	213.8414	252.0976	303.4253	314.707	348.2606	416.3775	509.3626	586.0087	648.239	707.172	727.2433	772.4998	775.6376	803.1995	954.6479	968.6815	1065.2055	1093.0013	1105.6167	1115.1199	1179.6496	1252.0583	1272.1847	1312.4253	1371.2769	1391.0852	1407.3112	1412.0438	1420.7271	1476.0035	1480.4982	1485.6369	1491.0572	1491.9397	1506.9396	1536.0266	1684.4361	3009.0378	3044.5838	3048.6794	3051.276	3089.9654	3118.277	3123.4207	3128.9017	3245.1379	3809.2396
CCN1C=NC(O)=C1C	CCn1cnc(O)c1C	
InChI=1S/C6H10N2O/c1-3-8-4-7-6(9)5(8)2/h4,9H,3H2,1-2H3	InChI=1S/C6H10N2O/c1-3-8-4-7-6(9)5(8)2/h4,9H,3H2,1-2H3
