18
gdb 125952	2.89063	1.73144	1.14098	5.2195	77.23	-0.2447	0.0119	0.2566	1060.2951	0.151192	-398.149405	-398.142031	-398.141087	-398.181317	28.369	
C	-0.0237400412	 1.5717445237	 0.0344547677	-0.39909
C	 0.0334969689	 0.0498458394	 0.017887543	 0.03609
C	 0.7341592236	-0.5784228778	-1.2194928672	-0.223056
C	 1.4884685421	-1.844037504	-0.7059006572	-0.36344
C	 1.6619036248	-1.5319885431	 0.7487702676	 0.346012
C	 2.2702160464	-1.8738264866	 1.9348364759	-0.219122
N	 1.8066530638	-1.036822853	 2.9100691705	-0.191344
N	 0.9398653385	-0.1985791994	 2.3932563246	-0.184766
N	 0.8641192627	-0.4979753288	 1.0913099867	 0.070522
H	 0.9784645382	 1.9980062318	-0.0705162976	 0.129922
H	-0.6442483953	 1.930507829	-0.7920553508	 0.123267
H	-0.4527619088	 1.9306186728	 0.9729232104	 0.152451
H	-0.9804956983	-0.3550417544	 0.1302512814	 0.106259
H	 0.024128261	-0.8042959648	-2.0175999982	 0.116096
H	 1.4584297062	 0.1413380599	-1.6139815814	 0.120789
H	 0.8872197448	-2.7508378266	-0.8421677241	 0.129443
H	 2.4321330953	-2.0033281574	-1.2332601103	 0.130136
H	 2.9961325973	-2.6399704108	 2.152250249	 0.119831
110.6251	147.2398	223.1137	244.7176	284.6235	433.9081	488.8507	560.7263	658.1758	694.3817	713.1306	734.2831	825.5098	840.0884	908.3841	955.6009	977.2734	1007.7574	1050.9283	1101.9077	1121.9829	1129.1084	1145.706	1203.2363	1210.0075	1263.0679	1280.0728	1299.087	1319.9037	1341.6025	1348.0937	1387.3651	1413.2133	1472.7142	1487.9071	1491.3785	1499.3102	1504.0063	1582.1594	3022.5106	3038.4296	3045.5871	3059.5312	3095.353	3116.7347	3120.8596	3132.4217	3272.9042
CC1CCC2=CN=NN12	C[C@H]1CCc2cnnn12	
InChI=1S/C6H9N3/c1-5-2-3-6-4-7-8-9(5)6/h4-5H,2-3H2,1H3	InChI=1S/C6H9N3/c1-5-2-3-6-4-7-8-9(5)6/h4-5H,2-3H2,1H3/t5-/m0/s1
