21
gdb 83584	2.58995	1.62495	1.54651	2.1079	76.89	-0.2391	0.0809	0.3201	1008.8969	0.185594	-424.237991	-424.230354	-424.22941	-424.269619	30.843	
C	-0.0188292057	 1.5479284076	 0.0206013977	-0.429636
C	 0.0303154955	 0.0200716188	-0.0043972609	 0.020177
C	 0.9215949995	-0.5879874019	-1.1101935217	-0.064254
C	 2.329543651	-0.3400779122	-0.5321469193	-0.073715
O	 2.1639316187	-0.3128016844	 0.894208843	-0.273542
C	 0.7924739276	-0.5922530954	 1.181813779	 0.088769
C	 0.5590822425	-2.111263683	 1.2197231887	-0.088668
O	 1.0238457539	-2.7430433878	 0.0368806227	-0.248989
C	 0.6359895626	-2.0982816269	-1.1667712737	-0.089861
H	 0.9749353353	 1.9773130435	 0.1746665107	 0.134836
H	-0.4206079852	 1.9436781718	-0.9183106005	 0.11114
H	-0.661579998	 1.9018415959	 0.8336784838	 0.114602
H	-0.9887969252	-0.3770625313	-0.0682172434	 0.067669
H	 0.7774289407	-0.1332381572	-2.0944899911	 0.068344
H	 3.033043004	-1.1346957048	-0.804263487	 0.107554
H	 2.7455665423	 0.6208293701	-0.8589365241	 0.094639
H	 0.5528079078	-0.145816633	 2.1525117508	 0.073247
H	 1.1254318336	-2.5641125659	 2.0383460164	 0.113807
H	-0.5136394093	-2.3125041095	 1.3860031646	 0.080508
H	-0.4332374287	-2.2690101394	-1.3788635006	 0.085861
H	 1.2173844174	-2.583133155	-1.957728905	 0.107511
186.1581	205.8382	210.991	261.7389	274.9948	351.6446	391.8494	431.3354	538.6611	669.6499	753.7927	783.4287	822.6732	848.3291	867.0502	925.5484	947.3218	978.0198	983.0741	1009.4606	1028.2896	1043.0478	1081.8249	1094.6693	1109.6753	1154.8135	1165.2639	1203.2137	1216.3136	1269.181	1286.0421	1289.8259	1309.213	1334.5304	1337.107	1372.401	1388.3498	1396.9385	1413.9098	1423.407	1489.8646	1494.9409	1502.4888	1504.8305	1523.22	2955.613	2962.6183	3021.2576	3034.1312	3042.6813	3061.7797	3062.9581	3070.0193	3076.6871	3089.5957	3096.3058	3117.6808
CC1C2COC1COC2	C[C@H]1[C@H]2CO[C@@H]1COC2	
InChI=1S/C7H12O2/c1-5-6-2-8-4-7(5)9-3-6/h5-7H,2-4H2,1H3	InChI=1S/C7H12O2/c1-5-6-2-8-4-7(5)9-3-6/h5-7H,2-4H2,1H3/t5-,6+,7+/m0/s1
