15
gdb 21160	3.39698	1.87595	1.23935	4.4348	64.76	-0.1993	0.0205	0.2198	943.1439	0.120894	-392.14547	-392.137486	-392.136542	-392.178048	28.397	
C	 0.1813310297	 1.4512336719	 0.1230616545	-0.340318
N	-0.2103134394	 0.074029312	-0.1376908228	-0.389451
C	 0.4914389456	-0.66799793	-1.0615300499	 0.400554
C	 0.6949935744	-2.0360092853	-1.1319567672	 0.162253
N	 0.2526109624	-2.9707751776	-0.1676473195	-0.611139
N	 1.4117429076	-2.3086636706	-2.2564103628	-0.230799
N	 1.6787580272	-1.2085694487	-2.8909148477	-0.146946
N	 1.1065617127	-0.1950536686	-2.1691592933	-0.256393
H	 1.2420240729	 1.5654783538	 0.3943045367	 0.123852
H	-0.0181364585	 2.0742219127	-0.7562044371	 0.129215
H	-0.4308481663	 1.8425950953	 0.9380244962	 0.139406
H	-0.37647621	-0.4811939196	 0.6923106398	 0.254391
H	-0.5687404545	-3.4763135389	-0.4890548459	 0.244541
H	 0.972502315	-3.6665011116	 0.0012929861	 0.247653
H	 1.1918019111	 0.7515061352	-2.4985620071	 0.273183
73.5449	144.8104	170.0963	188.4744	272.3043	298.5005	351.5534	488.5356	517.2703	620.4366	686.6918	715.0494	737.6077	794.9883	869.1518	1005.2273	1014.0594	1070.329	1145.6009	1161.0946	1197.2569	1255.6858	1272.2494	1319.1895	1398.9085	1466.5534	1477.6281	1493.1816	1518.3691	1548.7056	1645.1947	1685.8444	2986.7268	3062.1749	3125.911	3485.8966	3558.3025	3569.4352	3673.6135
CNC1=C(N)N=NN1	CNc1c(N)nn[nH]1	
InChI=1S/C3H7N5/c1-5-3-2(4)6-8-7-3/h1H3,(H4,4,5,6,7,8)	InChI=1S/C3H7N5/c1-5-3-2(4)6-8-7-3/h1H3,(H4,4,5,6,7,8)
