16
gdb 34349	2.9206	1.61611	1.30647	2.9767	72.98	-0.2355	0.0118	0.2473	977.0111	0.126375	-396.850531	-396.843467	-396.842523	-396.881912	28.046	
N	-0.0278583187	-1.166561757	-0.0028381745	-0.343628
C	-0.0273523029	-0.0091926552	 0.0167376775	 0.192319
C	-0.0206910048	 1.4289001608	 0.0400827853	 0.180903
C	-0.4063895654	 2.2032364865	-1.2687853303	-0.217392
N	 0.8672669184	 2.9828938379	-1.2227630878	-0.299054
C	 1.3096518867	 2.2619528498	-0.0122377355	-0.069202
C	 0.9242031478	 2.9008342242	 1.3488498204	-0.026505
N	-0.3961104517	 3.545924909	 1.1757919221	-0.322582
C	-0.3306867039	 2.0965634777	 1.412611538	-0.128358
H	-0.4984294552	 1.5377319201	-2.1314653998	 0.118563
H	-1.2938965027	 2.8318622963	-1.1782010808	 0.133249
H	 1.4628663036	 2.7868482512	-2.018590147	 0.227291
H	 2.2831398017	 1.7706641075	-0.0329802941	 0.09592
H	 1.5950701327	 3.2167395161	 2.1378478027	 0.105147
H	-0.6365566948	 3.9908710184	 2.0602686201	 0.24105
H	-0.8337437208	 1.6215112465	 2.2447416338	 0.11228
140.5547	155.5249	229.2601	299.0195	421.2583	471.8925	527.6356	554.4508	619.3947	678.6742	738.3675	813.6302	827.0954	849.0734	890.9757	911.2539	938.519	979.3869	1005.8335	1014.1892	1033.6817	1073.3397	1086.9029	1122.146	1154.4689	1175.9981	1236.1119	1251.1329	1287.2645	1313.9974	1346.6534	1372.1099	1397.6025	1487.0928	2343.3307	3058.6932	3109.77	3123.647	3190.8703	3206.3822	3489.2693	3545.9723
N#CC12CNC1C1NC21	N#C[C@]12CN[C@H]1[C@H]1N[C@@H]21	
InChI=1S/C6H7N3/c7-1-6-2-8-4(6)3-5(6)9-3/h3-5,8-9H,2H2	InChI=1S/C6H7N3/c7-1-6-2-8-4(6)3-5(6)9-3/h3-5,8-9H,2H2/t3-,4+,5-,6+/m1/s1
