18
gdb 99926	2.36914	1.33872	1.04739	2.8518	72.1	-0.2841	0.0203	0.3044	1192.4992	0.146442	-439.076607	-439.067277	-439.066333	-439.110749	34.638	
O	 0.0126584034	 1.3085639173	 0.3831110608	-0.428138
C	-0.0205791664	-0.0897300328	 0.1504437951	-0.105157
C	-1.4823032696	-0.5670861606	-0.023635735	 0.174323
O	-2.2475318761	-0.0880172168	 1.0610044741	-0.445127
C	-1.9928500891	 0.0294430678	-1.292650151	 0.242352
N	-2.335577491	 0.5374123887	-2.2731484171	-0.339226
C	-1.5745761032	-2.0820606963	-0.0895768577	-0.008248
C	-1.6029999121	-2.8865778548	 1.1853326665	-0.280944
C	-2.8373644492	-2.7885297816	 0.3247406153	-0.267231
H	-0.1674714231	 1.7571447617	-0.4521357174	 0.305203
H	 0.5899151237	-0.3840193994	-0.7122819901	 0.115218
H	 0.3796859033	-0.565715442	 1.0491061009	 0.134209
H	-1.8981983008	 0.7942126052	 1.2565597338	 0.297228
H	-1.030841738	-2.5005045452	-0.93102406	 0.100085
H	-1.0506475088	-3.8190940723	 1.2050500108	 0.115215
H	-1.6122290995	-2.3370146758	 2.1186287635	 0.131843
H	-3.6483752866	-2.1742444176	 0.6961656829	 0.140576
H	-3.1433438268	-3.6531291654	-0.2525466253	 0.117819
78.028	106.7579	145.7785	169.3624	204.9638	272.9585	325.6173	382.8751	405.1057	443.9764	480.7791	553.6569	576.964	646.0918	733.4695	792.8485	829.0521	885.2172	915.4915	942.9794	1025.8693	1061.4266	1069.1102	1073.7294	1092.4252	1101.7713	1134.7993	1197.9204	1206.2052	1229.2346	1243.4025	1347.926	1381.9237	1405.8504	1435.7245	1459.3523	1487.9751	1501.2961	2342.6691	3031.369	3113.1841	3144.2113	3148.2481	3157.7805	3230.3374	3243.8983	3730.2139	3790.6565
OCC(O)(C#N)C1CC1	OC[C@@](O)(C#N)C1CC1	
InChI=1S/C6H9NO2/c7-3-6(9,4-8)5-1-2-5/h5,8-9H,1-2,4H2	InChI=1S/C6H9NO2/c7-3-6(9,4-8)5-1-2-5/h5,8-9H,1-2,4H2/t6-/m0/s1
