16
gdb 126877	5.43351	0.87935	0.8085	2.8972	70.49	-0.2158	0.0302	0.246	1408.6489	0.123804	-471.197137	-471.188322	-471.187378	-471.231986	31.614	
C	-0.8430055287	 0.7507262905	-0.3483059581	-0.362827
C	 0.4756611099	 0.2958702085	 0.2854116032	-0.14016
N	 0.3748501529	-1.0586783115	 0.8209273708	-0.391109
C	 0.0857714929	-1.2139926342	 2.0339019892	 0.550976
N	-0.0529760311	-2.4308067997	 2.6987821134	-0.424485
C	-0.3345005631	-2.1501412467	 3.9972581403	 0.512585
O	-0.5023176295	-3.1399258968	 4.8710328403	-0.407877
N	-0.4165883477	-0.8901626917	 4.2617947974	-0.255981
O	-0.1567110021	-0.2594223797	 2.9950504134	-0.25979
H	-1.6319241295	 0.8227163946	 0.406835815	 0.121254
H	-0.7268065038	 1.7340246991	-0.8157854841	 0.108644
H	-1.1672773845	 0.0393423009	-1.1136226336	 0.120713
H	 1.2580113857	 0.283849857	-0.4816102023	 0.099837
H	 0.7848780362	 1.019296747	 1.0519042617	 0.107805
H	 0.0937830376	-3.3325327324	 2.2813424079	 0.292392
H	-0.6943860253	-2.7418430548	 5.7314352954	 0.328023
22.0857	76.692	175.3043	178.5333	267.7686	338.3304	356.6892	373.5371	443.3317	443.8916	548.803	666.3111	674.6872	739.6024	740.3123	815.7822	893.5416	920.4857	948.863	1045.8817	1075.5452	1122.7148	1164.7788	1223.1545	1242.4387	1303.017	1344.8981	1376.9933	1402.3786	1489.6288	1496.3164	1515.8201	1597.9703	1697.2492	1817.5839	3010.0298	3035.312	3054.0898	3107.2685	3114.7969	3699.2622	3782.0529
CCN=C1NC(O)=NO1	CCN=c1[nH]c(O)no1	
InChI=1S/C4H7N3O2/c1-2-5-4-6-3(8)7-9-4/h2H2,1H3,(H2,5,6,7,8)	InChI=1S/C4H7N3O2/c1-2-5-4-6-3(8)7-9-4/h2H2,1H3,(H2,5,6,7,8)
