20
gdb 66383	2.36099	1.44654	1.28887	3.5402	75.18	-0.2224	-0.0247	0.1977	1107.5252	0.170833	-440.288326	-440.279451	-440.278506	-440.321702	33.659	
C	 0.0764207633	 1.5372013697	 0.1636866036	-0.44531
C	-0.005820607	 0.0038781272	 0.0923200277	 0.141799
C	 0.5789946499	-0.5098530863	-1.2352235038	-0.092762
O	 0.6982195543	-1.9210109409	-1.2519266931	-0.250109
C	 1.5059543629	-2.4004299388	-0.1906565632	-0.068033
C	 0.8949913108	-2.0097204181	 1.1535912632	-0.17771
N	 0.6674151339	-0.5634770584	 1.2687153156	-0.32842
C	-1.497290448	-0.3472558553	 0.194309238	 0.166873
O	-2.2512082602	-0.3969346385	-0.7406312898	-0.257186
H	 1.1224537558	 1.861473192	 0.1228283136	 0.119103
H	-0.4590382356	 1.9916459669	-0.6738452604	 0.141587
H	-0.3565963121	 1.9033328658	 1.0993479125	 0.134479
H	-0.0834730925	-0.24681316	-2.0632564802	 0.128833
H	 1.5655394466	-0.0414909681	-1.3983446561	 0.074336
H	 1.5603109601	-3.4874704488	-0.3063309106	 0.109161
H	 2.5293341922	-1.9918011185	-0.2740573256	 0.077109
H	-0.069899086	-2.521953169	 1.2619858419	 0.117729
H	 1.5303887498	-2.3335201285	 1.98449899	 0.104329
H	 1.5565190204	-0.0904793407	 1.402115688	 0.215491
H	-1.8383628385	-0.5034795518	 1.2428444386	 0.088702
78.7671	138.069	169.5511	217.1164	278.4889	294.2595	311.8429	359.9106	427.6921	451.8538	485.8624	585.8962	600.725	758.0475	792.719	864.7708	911.1308	917.9753	939.177	957.2454	1000.9196	1046.6642	1078.0365	1119.8148	1138.5168	1171.914	1218.5115	1233.3296	1253.4933	1310.6873	1337.2596	1365.5656	1384.1251	1389.6672	1401.4872	1415.7919	1469.4748	1474.168	1476.7695	1491.0027	1495.2064	1501.4244	1836.15	2880.9633	2943.2336	2954.6555	3025.337	3032.6873	3079.5242	3081.3096	3101.7254	3106.7368	3126.623	3503.344
CC1(COCCN1)C=O	C[C@]1(COCCN1)C=O	
InChI=1S/C6H11NO2/c1-6(4-8)5-9-3-2-7-6/h4,7H,2-3,5H2,1H3	InChI=1S/C6H11NO2/c1-6(4-8)5-9-3-2-7-6/h4,7H,2-3,5H2,1H3/t6-/m1/s1
