18
gdb 14025	3.64163	1.5242	1.30635	1.454	68.62	-0.2146	0.0696	0.2842	1001.8216	0.152355	-384.885285	-384.877071	-384.876127	-384.918272	29.746	
C	-0.3204836229	 1.1133451946	-0.092045434	-0.235099
O	 0.5368179092	 0.0089810667	 0.1216529618	-0.231682
C	 0.9223759554	-0.6106035097	-1.065502934	 0.034347
C	 1.5119933695	-1.9955928983	-0.9508603546	-0.397335
C	 0.1583483221	-1.8003298526	-1.5655493797	 0.421528
C	-1.1969012161	-2.3284979729	-1.1168524799	-0.348681
C	-1.4503944213	-2.4807212895	-2.6338543158	-0.071985
O	-0.1101613345	-2.0299458674	-2.9489904871	-0.304844
H	 0.1745442185	 1.8974929633	-0.6847175872	 0.110054
H	-1.2450217536	 0.8237608689	-0.61152704	 0.107156
H	-0.5739024653	 1.5191080151	 0.8901582108	 0.127589
H	 1.3531136601	 0.0528652637	-1.8185369407	 0.091124
H	 2.3442840417	-2.2378957748	-1.603037023	 0.12546
H	 1.5488492707	-2.4400197423	 0.038901926	 0.125786
H	-1.1636786244	-3.2671637683	-0.5602737247	 0.115853
H	-1.8342003206	-1.6186070398	-0.5875567395	 0.117684
H	-1.6284137226	-3.4994544179	-2.9940700472	 0.108393
H	-2.210479676	-1.8111595188	-3.0532279111	 0.104654
75.6761	119.3964	148.8383	161.6981	216.9549	319.6453	398.1254	439.4721	488.8285	608.2703	787.0067	800.359	866.5004	872.7739	897.4696	960.779	1003.0939	1010.2872	1048.3662	1067.4635	1113.4268	1120.0387	1162.793	1172.4562	1182.9133	1190.9375	1207.2499	1241.8286	1251.8258	1325.7244	1364.2971	1400.406	1467.3641	1484.2448	1490.1676	1494.508	1509.8758	1532.6141	2983.3634	3026.1407	3033.0203	3071.0173	3078.0209	3082.2788	3118.4297	3127.9105	3130.5914	3221.7055
COC1CC11CCO1	CO[C@H]1C[C@]21CCO2	
InChI=1S/C6H10O2/c1-7-5-4-6(5)2-3-8-6/h5H,2-4H2,1H3	InChI=1S/C6H10O2/c1-7-5-4-6(5)2-3-8-6/h5H,2-4H2,1H3/t5-,6-/m0/s1
