16
gdb 7735	3.40953	1.81226	1.22795	3.8738	69.67	-0.2316	-0.0512	0.1804	962.4027	0.130447	-383.76971	-383.762211	-383.761267	-383.801536	27.662	
C	-0.0217108613	 1.5047591252	 0.0523104638	-0.47901
C	-0.0423333995	 0.0081145105	-0.0261952143	 0.287069
C	-0.1541522089	-0.6766961485	-1.1758919453	-0.253414
C	-0.0400837508	-2.1419628326	-1.2068701325	 0.357583
O	-0.0526246256	-2.792627656	-2.2325471644	-0.326496
C	 0.182912622	-2.8050967505	 0.1520948821	-0.193264
O	-0.3723584959	-2.0666246338	 1.222941071	-0.238029
C	 0.090603509	-0.7383578519	 1.2795058859	-0.154834
H	 0.8811161886	 1.8557316553	 0.5681158717	 0.139238
H	-0.0505669583	 1.9610991252	-0.9393552546	 0.138625
H	-0.8753143385	 1.8758101086	 0.6333145001	 0.141819
H	-0.2693245173	-0.1786894871	-2.1344392244	 0.102908
H	-0.2898941517	-3.7891463532	 0.1542390738	 0.138923
H	 1.2706339203	-2.9499575904	 0.2872682859	 0.109471
H	 1.1479892408	-0.698083936	 1.6083121237	 0.105667
H	-0.499215053	-0.2408491949	 2.0576822176	 0.123745
108.6964	144.3531	189.5114	253.6858	299.5271	433.5821	442.7536	471.5077	507.5433	566.5504	645.386	846.6085	873.842	894.3785	963.6652	991.6133	1023.2335	1041.6227	1087.9179	1148.8794	1177.1093	1232.9895	1277.1976	1302.9884	1335.7453	1360.5224	1409.0627	1411.9108	1466.0747	1476.5529	1478.7505	1483.7964	1694.4071	1783.2286	2916.1608	2944.8978	3022.2999	3061.3475	3071.3087	3116.9625	3127.2931	3173.9477
CC1=CC(=O)COC1	CC1=CC(=O)COC1	
InChI=1S/C6H8O2/c1-5-2-6(7)4-8-3-5/h2H,3-4H2,1H3	InChI=1S/C6H8O2/c1-5-2-6(7)4-8-3-5/h2H,3-4H2,1H3
