16
gdb 54053	2.12926	1.37997	0.95142	5.7738	73.24	-0.2753	-0.0351	0.2403	1231.9364	0.123618	-434.110464	-434.101137	-434.100193	-434.145747	32.45	
C	-0.0184359137	 1.5340872458	 0.0368056758	-0.511211
C	-0.0008049351	 0.0176177038	 0.0596588104	 0.434081
O	 0.0251000146	-0.6088938396	 1.0955671912	-0.336299
N	-0.0101067341	-0.6545352965	-1.1709844247	-0.106364
C	-0.001316187	-2.1182220114	-1.1412970049	-0.305615
C	-1.3491765872	-2.6877031123	-1.2584058891	 0.28703
N	-2.40618408	-3.1455110244	-1.3386864878	-0.304051
C	-0.0308786866	-0.0325080185	-2.4153171782	 0.093747
N	-0.0283710899	-0.7154556775	-3.4853257968	-0.453266
H	 0.8551054363	 1.9430720987	-0.479568075	 0.151251
H	-0.9162207907	 1.9200270959	-0.4553787002	 0.155962
H	-0.0086842901	 1.8686619127	 1.0732596872	 0.162442
H	 0.6061090198	-2.4761975817	-1.9745627271	 0.183346
H	 0.4324859348	-2.4245265785	-0.1887369404	 0.185873
H	-0.0460768241	 1.0556337808	-2.3568945545	 0.123283
H	-0.040964017	-0.1085195971	-4.301667156	 0.239793
32.1475	85.0965	109.6541	172.9727	212.8125	262.3596	329.5521	334.0817	378.0405	413.9849	521.5764	571.3774	615.7892	631.9565	809.7414	825.0481	919.838	952.0054	986.9152	1054.4122	1058.9848	1096.1029	1170.7429	1258.7817	1355.3884	1366.7532	1385.6335	1405.4098	1434.8227	1439.249	1477.5603	1488.3473	1711.5892	1796.503	2368.6	3050.4898	3091.6293	3117.1472	3130.2868	3149.3781	3166.9844	3522.3288
CC(=O)N(CC#N)C=N	CC(=O)N(CC#N)C=N	
InChI=1S/C5H7N3O/c1-5(9)8(4-7)3-2-6/h4,7H,3H2,1H3	InChI=1S/C5H7N3O/c1-5(9)8(4-7)3-2-6/h4,7H,3H2,1H3
