16
gdb 12723	3.1787	2.18428	1.60024	2.2842	65.06	-0.2443	-0.0243	0.22	824.6913	0.129954	-383.731537	-383.724221	-383.723277	-383.763134	27.82	
O	 0.4112567466	 1.2691873466	-0.4529957938	-0.469391
C	 0.1313589183	-0.0343344875	-0.0899840113	 0.329455
C	 0.4519558695	-1.0858037013	-1.1903857825	-0.280562
C	-0.9946798218	-1.654540833	-1.1296704567	-0.218313
C	-1.3074179803	-0.7698040961	 0.092057536	-0.101217
C	-0.8083363828	-1.3621258406	 1.442247702	-0.351114
C	 0.4025871639	-0.4192641563	 1.3532292446	 0.317616
O	 1.0781856951	 0.1333752911	 2.1803385646	-0.320867
H	 0.6089172764	 1.7605613972	 0.3553367204	 0.294236
H	 0.690455124	-0.5772561983	-2.1261380895	 0.129926
H	 1.2638116897	-1.7786237007	-0.9562636521	 0.111695
H	-1.5796427655	-1.3863165967	-2.0123137721	 0.111284
H	-1.0917936302	-2.7313649924	-0.966949796	 0.101368
H	-2.2450851496	-0.2182826649	 0.1381406988	 0.0857
H	-1.4301980563	-1.1610700029	 2.3179443787	 0.13478
H	-0.571253107	-2.4295678741	 1.4183153888	 0.125404
76.6574	141.7053	240.2372	307.0841	347.6443	400.9039	466.2072	490.5647	630.6362	680.8817	736.0044	785.1624	831.4492	869.462	892.0217	956.5629	998.7256	1008.536	1038.306	1057.3977	1105.5133	1120.41	1181.2515	1206.8796	1217.905	1251.4882	1277.5972	1303.1037	1339.8624	1381.9295	1444.1784	1470.9108	1494.3775	1852.0082	3059.1304	3062.3786	3070.3383	3105.8205	3116.1169	3129.5576	3133.2993	3762.9752
OC12CCC1CC2=O	O[C@]12CC[C@H]1CC2=O	
InChI=1S/C6H8O2/c7-5-3-4-1-2-6(4,5)8/h4,8H,1-3H2	InChI=1S/C6H8O2/c7-5-3-4-1-2-6(4,5)8/h4,8H,1-3H2/t4-,6+/m0/s1
