20
gdb 105270	2.58114	1.35514	1.02921	1.6176	74.68	-0.234	0.0662	0.3002	1203.8564	0.169645	-440.213867	-440.204407	-440.203462	-440.248663	35.209	
C	-1.9332425664	 0.0429549856	 0.9429977316	-0.267487
O	-0.5877398626	 0.121932907	 0.4775196795	-0.291876
C	 0.344467808	-0.4595330032	 1.3631293162	 0.346015
C	 1.7238639342	 0.1578674466	 1.2334864773	-0.394161
C	 0.8497126095	 0.498343554	 2.418319665	 0.086795
O	 0.2688510007	 1.7601206507	 2.5316252412	-0.434837
C	 0.193337218	-1.9338620449	 1.6471667421	-0.107963
C	-0.1921748642	-2.8547285657	 0.5436113462	-0.227058
N	 1.1623193651	-2.9088933388	 1.1047879034	-0.313735
H	-2.5479514954	 0.5705547391	 0.2101393199	 0.128691
H	-2.2734531825	-0.9973343836	 1.0092545746	 0.12335
H	-2.0443340122	 0.5190777867	 1.9250296299	 0.12811
H	 2.5906589522	-0.4761398713	 1.3877726033	 0.122607
H	 1.8380414243	 0.9221399264	 0.4715590108	 0.123011
H	 1.1228513577	 0.1081415388	 3.3934838196	 0.11295
H	-0.12256645	 1.9568439803	 1.6708632049	 0.290073
H	-0.1305484803	-2.1855703005	 2.6546200351	 0.098769
H	-0.8149041472	-3.7201650457	 0.7521617768	 0.117654
H	-0.3332938992	-2.4124262921	-0.4384433083	 0.125972
H	 1.8000556402	-2.4206584891	 0.478921171	 0.233119
29.1211	145.3942	151.4687	186.9038	202.27	262.6057	286.2701	332.2193	376.1294	437.5357	475.8164	505.4606	652.4553	708.257	814.7836	847.7899	867.5496	897.8221	932.016	972.9267	997.0933	1006.705	1045.1956	1080.6303	1094.198	1110.437	1134.9148	1156.8166	1182.5938	1184.2503	1210.0954	1250.2136	1267.3407	1285.1003	1311.5955	1336.3882	1398.9197	1431.007	1474.4474	1477.6651	1491.2784	1509.3542	1514.4483	3014.2464	3077.327	3111.3643	3123.7727	3126.3767	3127.0507	3167.4308	3199.1421	3221.1968	3486.0679	3776.1159
COC1(CC1O)C1CN1	CO[C@]1(C[C@H]1O)[C@H]1CN1	
InChI=1S/C6H11NO2/c1-9-6(2-5(6)8)4-3-7-4/h4-5,7-8H,2-3H2,1H3	InChI=1S/C6H11NO2/c1-9-6(2-5(6)8)4-3-7-4/h4-5,7-8H,2-3H2,1H3/t4-,5-,6-/m1/s1
