20
gdb 62022	2.5816	0.91379	0.77282	2.1053	76.61	-0.2344	-0.0255	0.2089	1542.053	0.16678	-440.305921	-440.294976	-440.294032	-440.343992	37.331	
C	-0.5238568526	 1.165453484	-1.3002102094	-0.430446
C	-0.5900808313	 0.1903055167	-0.119318196	-0.02539
N	-1.6440349631	-0.799256062	-0.3523552133	-0.295266
C	-2.0787621116	-1.4876909298	 0.8487047828	-0.280354
C	-3.066461578	-0.6890649909	 1.7119687035	 0.38624
C	-3.3961443836	-1.2614954421	 3.0747773301	-0.477552
O	-3.561365026	 0.3332973146	 1.2941244609	-0.301236
C	 0.7373127237	-0.5540174462	-0.0284579597	 0.179772
O	 1.559079999	-0.3998811876	 0.8373090923	-0.252182
H	 0.2819259918	 1.8907798786	-1.1609514251	 0.135781
H	-0.3559830671	 0.62654591	-2.2383508031	 0.131061
H	-1.467269798	 1.7146508928	-1.381997339	 0.13581
H	-0.7193741321	 0.7589502738	 0.8139204078	 0.085058
H	-2.4503474516	-0.3240664415	-0.7475826232	 0.229471
H	-2.5797873897	-2.4314354832	 0.584021305	 0.127683
H	-1.2124186136	-1.7777759367	 1.4557103442	 0.134002
H	-2.5280865606	-1.1475378382	 3.7351987488	 0.152051
H	-4.2474403262	-0.7355621742	 3.5084711994	 0.147429
H	-3.6074440689	-2.3342555183	 3.0110604614	 0.138301
H	 0.8850289195	-1.2798466998	-0.8613817273	 0.079766
39.5956	44.4864	64.8657	75.4398	106.8222	218.6409	226.6442	282.1028	298.1714	353.5225	379.953	462.36	474.6642	539.6	626.2952	733.2589	817.4377	839.085	881.7743	933.758	957.1611	1001.4257	1064.373	1083.8849	1146.6148	1164.5823	1167.8616	1195.0681	1267.6586	1320.4535	1350.2032	1359.9675	1383.527	1395.7505	1407.9301	1453.0348	1462.987	1475.601	1485.6983	1498.9391	1523.5706	1810.3186	1834.7062	2872.696	2992.2596	3001.0924	3036.4464	3037.8755	3061.9878	3097.658	3109.1364	3123.9986	3152.1241	3512.752
CC(NCC(C)=O)C=O	C[C@@H](NCC(=O)C)C=O	
InChI=1S/C6H11NO2/c1-5(4-8)7-3-6(2)9/h4-5,7H,3H2,1-2H3	InChI=1S/C6H11NO2/c1-5(4-8)7-3-6(2)9/h4-5,7H,3H2,1-2H3/t5-/m1/s1
