18
gdb 110124	2.18757	1.3799	1.05393	4.1458	74.41	-0.2508	0.0289	0.2797	1219.7095	0.145206	-439.051117	-439.04131	-439.040366	-439.086199	34.021	
C	-0.5826750048	 1.1070397054	-0.1884840181	-0.242629
O	 0.4673358518	 0.1885101659	 0.0824560231	-0.216802
C	 0.9561307285	-0.4280806446	-1.0403491086	 0.076828
C	 1.6263091081	-1.7428140514	-0.8640355856	 0.076793
O	 1.7081653756	-2.2455119292	 0.408906462	-0.21679
C	 1.8469589744	-3.659232383	 0.4507875023	-0.24263
C	 0.2568487255	-1.6975504402	-1.5847414413	-0.312569
C	-0.8979293273	-2.1950958321	-0.9044671986	 0.321885
N	-1.844171807	-2.6061783271	-0.3789202282	-0.354153
H	-0.2496709785	 1.8991076157	-0.8748250437	 0.109702
H	-1.4551566665	 0.6007794285	-0.6189367223	 0.134346
H	-0.8602103212	 1.5533726988	 0.7676611097	 0.141672
H	 1.3504959214	 0.238855373	-1.8099547322	 0.103284
H	 2.4746835361	-1.9667183051	-1.5142249935	 0.10327
H	 0.9714098848	-4.1595415849	 0.0196097142	 0.134327
H	 2.7498673786	-3.9853156614	-0.0856399998	 0.10971
H	 1.9361362673	-3.9321644554	 1.5034066436	 0.141675
H	 0.2506638732	-1.8448085727	-2.6598795529	 0.132079
94.376	97.9756	109.4296	141.1603	157.9372	201.6122	210.3011	277.0174	331.6618	402.8137	415.9719	648.392	664.9011	673.0572	728.2888	791.3381	886.842	970.9115	1043.0586	1067.6283	1070.3287	1120.7442	1125.621	1174.2764	1182.3081	1189.6231	1216.1004	1257.9939	1286.3747	1350.0448	1369.3667	1441.2055	1484.7558	1487.1833	1488.6389	1494.6553	1501.8652	1507.6918	2346.4025	2996.6079	2997.3798	3065.4366	3065.947	3074.5788	3085.9049	3138.8208	3139.0075	3164.6061
COC1C(OC)C1C#N	CO[C@H]1[C@@H](OC)[C@H]1C#N	
InChI=1S/C6H9NO2/c1-8-5-4(3-7)6(5)9-2/h4-6H,1-2H3	InChI=1S/C6H9NO2/c1-8-5-4(3-7)6(5)9-2/h4-6H,1-2H3/t4-,5+,6-
