17
gdb 35219	3.33668	1.26014	1.07577	2.0779	83.62	-0.2121	0.0049	0.217	1149.2323	0.134583	-384.640777	-384.632612	-384.631668	-384.673657	31.404	
C	 0.1991177826	-1.166399008	-0.1062811223	-0.450214
C	 0.1237144062	 0.0332342305	-0.0540685484	 0.347374
C	 0.0273028436	 1.458192013	-0.0119574833	-0.302295
C	 0.2914168944	 2.2192144104	 1.2888940567	-0.356104
C	 1.292717177	 2.3188916192	 0.1854528804	 0.437625
O	 2.5256515724	 1.6724646114	 0.3615144701	-0.296416
C	 3.5153157249	 2.3145241373	-0.4458647436	-0.129821
C	 2.8247375656	 3.5214571072	-1.0195356327	-0.110096
C	 1.5480892502	 3.5146551984	-0.6470160517	-0.151939
H	 0.2720622721	-2.224436411	-0.147855944	 0.191336
H	-0.7230341575	 1.8904403063	-0.6688356702	 0.111391
H	-0.3380012931	 3.0732534416	 1.5151874333	 0.118499
H	 0.5856319499	 1.6185211233	 2.1416232265	 0.139764
H	 4.3787345738	 2.5699665269	 0.1850697661	 0.113871
H	 3.8722956221	 1.626489742	-1.228582277	 0.113979
H	 3.3200797515	 4.2501616431	-1.6473213106	 0.111131
H	 0.7805759345	 4.2326364486	-0.9035550893	 0.111915
74.4266	124.136	140.076	257.1249	320.2995	344.6911	435.3892	518.4764	552.0913	569.9847	636.1385	646.3433	713.6925	782.7441	802.8285	839.6008	869.3291	889.8151	946.7692	954.5321	964.6205	1040.2416	1042.8402	1067.0397	1087.8614	1121.8821	1122.0217	1197.1314	1230.9325	1288.2219	1344.7395	1384.1458	1412.5101	1470.4457	1516.6562	1678.0282	2235.048	2978.4111	3010.3475	3133.5455	3136.7789	3214.7109	3232.6458	3238.3434	3507.4022
C#CC1CC11OCC=C1	C#C[C@H]1C[C@]21OCC=C2	
InChI=1S/C8H8O/c1-2-7-6-8(7)4-3-5-9-8/h1,3-4,7H,5-6H2	InChI=1S/C8H8O/c1-2-7-6-8(7)4-3-5-9-8/h1,3-4,7H,5-6H2/t7-,8+/m0/s1
