22
gdb 63427	3.76724	0.79592	0.78202	4.1309	86.83	-0.2957	0.0359	0.3317	1572.3841	0.193243	-367.233925	-367.224132	-367.223187	-367.268805	36.838	
C	 0.0931250471	 1.5272565705	 0.1965102705	-0.448586
C	-0.0023867195	 0.0144591161	 0.0270178865	 0.348773
C	-1.4307220937	-0.4066172953	-0.3277273088	-0.435387
C	 1.0549086045	-0.6368177676	-0.924488484	-0.292415
C	 1.2997699724	-1.7409970201	 0.1376360877	 0.045836
C	 2.751778759	-2.1642955349	 0.389529511	-0.365956
C	 2.877633938	-3.1034358616	 1.5036386087	 0.260766
N	 2.9524576699	-3.8447501039	 2.3871514333	-0.30944
C	 0.5930543685	-0.8460102882	 1.189672879	-0.268802
H	 1.1123025058	 1.8362938201	 0.4521341449	 0.106491
H	-0.1934603856	 2.0474551551	-0.7251206476	 0.113673
H	-0.5718229371	 1.8779655826	 0.9945487495	 0.115854
H	-1.7556081775	 0.0627584363	-1.2633274571	 0.113403
H	-1.5160092471	-1.4912222266	-0.4525412819	 0.113334
H	-2.1324241605	-0.1071148604	 0.4589028614	 0.115769
H	 0.7112973221	-0.9574215456	-1.9118719592	 0.099664
H	 1.9332220614	 0.004901726	-1.0542626562	 0.093567
H	 0.7057270998	-2.6332534504	-0.0780850568	 0.093456
H	 3.1740575649	-2.6318315028	-0.5083522153	 0.150039
H	 3.3687934012	-1.2837631833	 0.6064223126	 0.144514
H	 1.3133399939	-0.2775816953	 1.7875631053	 0.097461
H	-0.1125327077	-1.3309976907	 1.8686196465	 0.107985
56.1071	74.7874	132.4165	227.7694	255.6918	284.9408	303.3587	313.7904	367.9384	397.2116	415.5936	423.7081	495.4012	621.4971	744.7646	830.1149	862.2308	874.3936	915.4313	928.033	944.5844	962.6338	985.4	1004.2961	1049.8929	1088.6798	1096.9884	1152.0587	1210.5714	1228.4552	1239.5994	1252.7043	1279.6278	1300.0918	1313.9619	1328.4172	1383.9736	1404.6136	1422.2956	1462.8351	1474.5774	1483.7987	1486.3429	1501.4437	1504.0703	1507.1946	2360.0543	3018.3419	3024.6035	3031.7621	3039.868	3048.3328	3060.9899	3076.3791	3083.7311	3091.0067	3091.4429	3096.3584	3098.7272	3107.9375
CC1(C)CC(CC#N)C1	CC1(C)CC(CC#N)C1	
InChI=1S/C8H13N/c1-8(2)5-7(6-8)3-4-9/h7H,3,5-6H2,1-2H3	InChI=1S/C8H13N/c1-8(2)5-7(6-8)3-4-9/h7H,3,5-6H2,1-2H3
