19
gdb 61972	3.87091	0.68763	0.619	1.2732	78.68	-0.2453	-0.0099	0.2354	1789.1913	0.154464	-423.011188	-423.000319	-422.999374	-423.048752	37.897	
C	-0.0781152833	 1.5336355102	 0.0192200995	-0.473223
C	 0.0727689457	 0.024250102	-0.0601774556	 0.372661
O	 1.153826711	-0.5038886974	-0.1886022626	-0.292246
C	-1.2169811357	-0.7812480296	 0.0239387829	-0.308857
C	-0.9950001608	-2.2890086802	 0.1144877847	-0.188055
C	-2.3095765667	-3.0756050288	-0.0457793241	-0.070832
O	-2.9609226652	-2.7728470213	-1.2802888895	-0.417244
C	-2.0856471138	-4.5160489413	 0.1037494423	 0.294344
C	-1.8722721415	-5.6961526899	 0.1873015096	-0.432247
H	 0.8816824493	 2.0139567192	-0.174346342	 0.14247
H	-0.8272648629	 1.8894123515	-0.6962343587	 0.136485
H	-0.4315812714	 1.8199920193	 1.0167620577	 0.140608
H	-1.8082799946	-0.4109472659	 0.8728244036	 0.113387
H	-1.8181586966	-0.5488144344	-0.8653490937	 0.140955
H	-0.2893569907	-2.6048478745	-0.6607458322	 0.120355
H	-0.5329252065	-2.5539600614	 1.0710775204	 0.118104
H	-3.0187111521	-2.7456571258	 0.7245075768	 0.115733
H	-2.474871488	-3.2258444539	-1.9787808497	 0.286916
H	-1.697789866	-6.7403889977	 0.2731653405	 0.200686
27.1682	61.7041	87.4754	106.034	128.8017	189.0444	229.4265	266.289	312.4955	364.3616	444.926	483.8789	534.3605	569.9129	608.0038	633.3214	674.4174	740.9041	817.0413	872.2742	933.775	951.3674	1000.2215	1068.2782	1086.3704	1099.6392	1169.9047	1177.037	1267.2882	1268.8808	1323.949	1347.197	1381.1157	1388.9851	1419.6343	1453.0422	1465.187	1477.5824	1480.0352	1810.5929	2233.5003	3019.733	3027.6598	3037.1432	3051.3699	3056.4542	3097.0531	3099.0516	3152.1738	3503.0446	3802.5874
CC(=O)CCC(O)C#C	CC(=O)CC[C@@H](O)C#C	
InChI=1S/C7H10O2/c1-3-7(9)5-4-6(2)8/h1,7,9H,4-5H2,2H3	InChI=1S/C7H10O2/c1-3-7(9)5-4-6(2)8/h1,7,9H,4-5H2,2H3/t7-/m0/s1
