15
gdb 24044	4.05922	1.03186	0.92877	3.7548	74.49	-0.1963	0.0248	0.2211	1250.7173	0.111703	-416.780688	-416.772149	-416.771205	-416.814918	30.893	
C	 0.120150159	-0.9806592863	-0.5662494698	-0.482495
C	 0.1031816989	 0.1558579553	-0.175119192	 0.338738
C	 0.0910241516	 1.5406405958	 0.3059075571	-0.311316
N	 1.4037149373	 2.1799213421	 0.2569069084	-0.390413
C	 1.7761066781	 2.6614568353	-0.8537079174	 0.536323
N	 2.9717284536	 3.295620821	-1.1145344416	-0.371632
C	 3.0088167832	 3.6987988277	-2.4463330338	-0.091611
C	 1.8511488895	 3.3166915699	-2.9940473223	-0.03998
O	 1.074677952	 2.6753136267	-2.0429786804	-0.214149
H	 0.1350410683	-1.9839760705	-0.9125300195	 0.190436
H	-0.6642720482	 2.1028642994	-0.2642784757	 0.126175
H	-0.2392677163	 1.5449087296	 1.3510242574	 0.12844
H	 3.6832703324	 3.4114271902	-0.4166913561	 0.277505
H	 3.8511138018	 4.2153961603	-2.8721872502	 0.152451
H	 1.4343108889	 3.4040560232	-3.9809263641	 0.151527
32.3121	86.3261	141.3863	208.0093	269.4823	326.9348	340.7355	447.7908	582.3289	599.6149	614.9185	644.6931	682.7035	707.766	743.6191	786.7711	886.7193	909.695	933.1017	1010.3659	1050.6439	1073.1174	1126.5777	1153.3782	1206.9493	1273.6849	1358.7346	1387.0874	1417.6435	1480.4889	1661.7176	1792.5107	2233.3705	2986.4211	3047.8276	3289.5882	3317.6938	3507.7831	3711.53
C#CCN=C1NC=CO1	C#CCN=c1[nH]cco1	
InChI=1S/C6H6N2O/c1-2-3-7-6-8-4-5-9-6/h1,4-5H,3H2,(H,7,8)	InChI=1S/C6H6N2O/c1-2-3-7-6-8-4-5-9-6/h1,4-5H,3H2,(H,7,8)
