16
gdb 51386	3.13781	1.14308	0.9694	4.3875	69.39	-0.2538	-0.0334	0.2204	1201.8921	0.122702	-437.867672	-437.85943	-437.858485	-437.90185	29.595	
O	-0.5708189343	 0.4742146885	 0.1760255076	-0.231056
C	 0.4010386347	 0.888689443	-0.3985845674	 0.162391
C	 1.2561602413	 2.0440252473	 0.1048189392	-0.324588
C	 1.3671717175	 3.1463651143	-0.9324139652	-0.011962
C	 2.541203195	 3.9992764525	-1.1849047884	-0.048931
C	 3.87447165	 3.2898668089	-0.963043546	-0.380188
C	 3.3164124612	 2.2259052546	-1.9211182181	 0.399018
O	 3.69556491	 1.1910739319	-2.37058328	-0.292713
N	 2.0988349425	 2.962200935	-2.2339971147	-0.191248
H	 0.7475613772	 0.4422694304	-1.3552225034	 0.111491
H	 0.8026529026	 2.4355420324	 1.0199898959	 0.132439
H	 2.2417675453	 1.6358365066	 0.359424183	 0.134905
H	 0.4137763381	 3.6305861091	-1.1333454991	 0.128796
H	 2.4409426985	 5.0545566174	-1.4085419263	 0.121049
H	 4.7189209842	 3.8173770781	-1.4140736992	 0.15199
H	 4.1477924764	 2.97759802	 0.0477520722	 0.138607
50.8778	58.146	125.268	185.3527	249.2769	422.8018	448.8252	476.1638	518.1936	593.027	646.6358	733.4418	792.8817	834.2987	853.1257	915.9712	964.6313	1000.127	1024.4183	1051.7341	1063.8602	1091.355	1134.9235	1160.6227	1220.4845	1225.001	1261.1112	1292.1934	1354.1967	1426.9745	1432.8172	1457.2295	1459.0178	1836.3436	1915.5508	2911.7319	3041.8782	3070.9137	3102.781	3124.2074	3138.1101	3193.3878
O=CCC1C2CC(=O)N12	O=CC[C@H]1[C@H]2CC(=O)N12	
InChI=1S/C6H7NO2/c8-2-1-4-5-3-6(9)7(4)5/h2,4-5H,1,3H2	InChI=1S/C6H7NO2/c8-2-1-4-5-3-6(9)7(4)5/h2,4-5H,1,3H2/t4-,5+,7?/m0/s1
