19
gdb 74730	2.30528	2.12705	1.50313	1.8265	80.98	-0.2168	0.0122	0.229	958.4314	0.159406	-385.765081	-385.757712	-385.756768	-385.796428	30.323	
C	 0.0989988651	 1.4203063853	 0.1057305899	-0.526401
C	 0.0179377969	-0.0638558387	 0.007110354	 0.338523
C	 0.0087206536	-0.8756746584	-1.0516400725	-0.183466
C	-0.0599701227	-2.2614455694	-0.4349149786	-0.151883
C	 1.0521903326	-2.1090131839	 0.7398726237	-0.307919
C	-0.0181491928	-1.0309650756	 1.2221754517	 0.112037
C	-1.1322717796	-0.6192285227	 2.2190500563	-0.191244
O	-2.1226376117	-1.1771996719	 1.2664812727	-0.316058
C	-1.0327276583	-2.0443756589	 0.7962730681	 0.160353
H	 0.9488673905	 1.7385268938	 0.7231659215	 0.12397
H	 0.2129252444	 1.8705344322	-0.8844382193	 0.126478
H	-0.8013604234	 1.8488854154	 0.5628845551	 0.134729
H	 0.049040001	-0.6410470715	-2.1059603822	 0.097535
H	-0.0898912546	-3.1436074692	-1.0755008497	 0.069314
H	 1.1566780845	-2.98528716	 1.3850998291	 0.107098
H	 2.0251681347	-1.7392658376	 0.4101230675	 0.108835
H	-1.1504156718	-1.1743187634	 3.1641640969	 0.107923
H	-1.3054810848	 0.4458255468	 2.3940343438	 0.111925
H	-1.0691163437	-2.9593817923	 1.4010823021	 0.078252
136.8512	179.9626	254.0066	314.0627	341.6316	436.7775	471.6423	554.1245	601.9249	621.357	709.178	756.7782	789.0443	817.6284	825.7717	874.7227	900.9774	946.4128	969.0668	974.708	996.8012	1011.3304	1038.717	1062.256	1117.217	1120.5068	1157.7861	1169.1565	1192.4505	1218.8764	1228.5516	1255.4314	1280.2806	1313.4902	1393.7645	1412.3934	1475.8258	1482.7886	1485.6857	1506.7067	1700.7694	3016.2782	3016.4055	3032.986	3059.7982	3062.6815	3102.314	3107.1322	3112.8351	3134.8237	3228.3109
CC1=CC2CC11COC21	CC1=C[C@H]2C[C@]31CO[C@@H]23	
InChI=1S/C8H10O/c1-5-2-6-3-8(5)4-9-7(6)8/h2,6-7H,3-4H2,1H3	InChI=1S/C8H10O/c1-5-2-6-3-8(5)4-9-7(6)8/h2,6-7H,3-4H2,1H3/t6-,7-,8+/m0/s1
