20
gdb 61313	4.77505	0.66645	0.65192	4.9491	80.4	-0.2788	0.0294	0.3081	1749.4979	0.169765	-403.149578	-403.139731	-403.138787	-403.185235	35.574	
O	-0.3155227208	 1.3541027399	-0.0011847393	-0.417904
C	 0.0336985686	-0.0179234406	 0.0463027533	 0.139024
C	 0.7534918178	-0.458372857	-1.2504681182	-0.372359
C	-0.0218626659	-0.1754518227	-2.4554358411	 0.271761
N	-0.6346818811	 0.0355573844	-3.4116768908	-0.30303
C	 0.8750984484	-0.3588196204	 1.2836865881	-0.241189
C	 0.161871348	-0.0374062383	 2.5787952122	 0.03421
C	-0.7372048948	-1.0632347284	 3.2241851451	-0.256163
C	 0.5800935104	-0.6996471768	 3.8652234232	-0.280838
H	 0.4962347633	 1.8746864304	-0.0148692969	 0.282293
H	-0.9244642121	-0.5453311784	 0.1064871923	 0.115772
H	 1.7222111144	 0.0525134364	-1.3261376919	 0.140856
H	 0.9668431821	-1.5327243886	-1.213442214	 0.151926
H	 1.139318418	-1.4241223122	 1.2613286132	 0.097567
H	 1.8256496268	 0.1945475408	 1.2248268064	 0.089789
H	-0.168910462	 0.9937470441	 2.6507809758	 0.09667
H	-1.6528885039	-0.7244362854	 3.695286567	 0.118166
H	-0.8170229491	-2.0385358327	 2.7540254615	 0.108679
H	 1.3813568303	-1.4306087959	 3.8231384825	 0.109493
H	 0.5663541514	-0.1118803686	 4.7762984617	 0.115276
51.4049	77.9936	102.6423	106.6336	190.5713	276.6477	304.2025	347.0492	377.7347	396.2034	423.434	468.6588	607.859	775.4698	804.3873	833.199	862.7253	876.4855	920.6833	947.0826	984.5751	1031.5521	1035.0362	1059.5006	1081.957	1109.9428	1140.1964	1151.1127	1197.864	1200.0842	1226.935	1240.2418	1277.7266	1328.7638	1357.8102	1373.0788	1418.5495	1423.8994	1457.7349	1470.8933	1479.1481	1509.3827	2366.3229	2985.8051	3029.5187	3041.6075	3062.8661	3081.2594	3128.7877	3133.7202	3161.8473	3207.3392	3222.5627	3789.3931
OC(CC#N)CC1CC1	O[C@@H](CC#N)CC1CC1	
InChI=1S/C7H11NO/c8-4-3-7(9)5-6-1-2-6/h6-7,9H,1-3,5H2	InChI=1S/C7H11NO/c8-4-3-7(9)5-6-1-2-6/h6-7,9H,1-3,5H2/t7-/m0/s1
