18
gdb 37767	2.96771	2.22371	2.09457	1.6615	77.6	-0.2023	-0.001	0.2013	790.404	0.152071	-364.747562	-364.742022	-364.741077	-364.776976	25.047	
C	-0.0070073393	 1.5057864005	 0.0070125915	-0.170915
C	 1.5262624755	 1.5144865758	-0.0685255369	-0.069169
C	 2.1920474592	 0.9917010778	 1.2911692824	-0.071892
C	 1.3486212589	 1.1538149428	 2.5293381819	-0.079712
C	 0.3612342802	 0.248150188	 2.5301135692	-0.087613
C	 0.4604030571	-0.6172387616	 1.3003943029	-0.02288
C	 1.9231444113	-0.4712944811	 0.8265383794	-0.063202
C	 1.4025091916	 0.032606742	-0.5338940642	 0.007937
N	-0.0411353507	 0.0025887767	-0.0378704757	-0.179052
H	-0.4950167774	 1.9636101273	 0.8723649448	 0.100231
H	-0.4697592989	 1.8908069512	-0.9080014271	 0.102019
H	 2.0523083488	 2.3098858456	-0.5984938687	 0.063005
H	 3.2363691593	 1.2940493601	 1.3793113873	 0.068206
H	 1.484642855	 1.9427105867	 3.2608744323	 0.09893
H	-0.4361922009	 0.1767680232	 3.2606365046	 0.098181
H	 0.041990592	-1.6206566139	 1.395205315	 0.074062
H	 2.6610483844	-1.2532969816	 1.0098020978	 0.065249
H	 1.6292979141	-0.3637296293	-1.5232669564	 0.066615
304.3845	346.5752	481.644	523.3765	611.9042	660.5575	704.2082	736.1979	770.1419	795.711	805.6351	862.0147	870.284	893.9271	931.1536	950.3959	956.9076	974.4112	987.992	996.4221	1004.8506	1021.7924	1048.5304	1127.9714	1142.7178	1175.9819	1186.7675	1197.57	1212.1521	1236.3537	1249.9718	1253.8368	1279.7896	1294.6468	1321.5794	1324.7067	1362.647	1491.4772	1639.2273	3039.4025	3085.659	3088.1744	3090.8004	3096.2189	3101.7331	3117.3567	3185.0782	3210.8235
C1C2C3C=CC4C3C2N14	C1[C@H]2[C@H]3C=C[C@@H]4[C@H]3[C@H]2N14	
InChI=1S/C8H9N/c1-2-6-7-4(1)5-3-9(6)8(5)7/h1-2,4-8H,3H2	InChI=1S/C8H9N/c1-2-6-7-4(1)5-3-9(6)8(5)7/h1-2,4-8H,3H2/t4-,5+,6-,7+,8+/m1/s1
