20
gdb 37596	2.7599	2.27169	1.96923	1.5796	79.21	-0.2254	0.0896	0.3149	834.4095	0.17749	-366.007483	-366.0019	-366.000956	-366.036963	25.736	
C	-0.035231574	 1.5579505753	-0.0480238193	-0.208713
C	 1.4714630493	 1.8452983988	 0.0009483414	-0.03651
C	 1.9413855399	 0.9310851398	-1.1604370954	-0.208946
C	 1.4490406176	-0.3621261427	-0.4702672641	-0.048393
C	 2.2773546581	-0.3059645312	 0.8360987681	-0.04479
C	 2.0995445743	 1.1230648505	 1.2308710104	-0.046079
N	 1.4166856795	 0.0178321917	 1.9669472689	-0.118252
C	 0.051699104	-0.3233340617	 1.5447007232	-0.152503
C	-0.0021005751	 0.0090356153	 0.047666778	-0.049935
H	-0.6033883829	 2.0069298572	 0.7716289682	 0.092121
H	-0.461494458	 1.9180474638	-0.9897211716	 0.089332
H	 1.7531676615	 2.8976224716	-0.0597367223	 0.057602
H	 1.4547719928	 1.1578284175	-2.1157620871	 0.086686
H	 3.0254806194	 0.9344127462	-1.3067323312	 0.094187
H	 1.519199831	-1.2921090827	-1.0342605445	 0.060532
H	 3.1623372455	-0.9146562482	 0.9916453704	 0.080778
H	 2.81240584	 1.6635467636	 1.8439477649	 0.090902
H	-0.0858265259	-1.3928420783	 1.7441672906	 0.09616
H	-0.6935018734	 0.2275434248	 2.1276024607	 0.099555
H	-0.8093536635	-0.4906757011	-0.4898720993	 0.066265
291.1701	432.1712	459.7692	513.8565	572.6236	618.4376	715.4189	722.3831	773.2532	801.7173	835.5526	858.8481	886.0047	895.5301	915.3526	934.0703	954.296	964.2144	980.3159	1007.7347	1011.5614	1033.5343	1057.0805	1083.6272	1112.9679	1125.0257	1154.5527	1174.7123	1196.761	1237.7975	1245.2862	1247.9474	1275.9227	1287.3293	1295.0067	1309.714	1327.0592	1332.6766	1353.464	1379.3925	1492.6638	1508.2138	1521.4846	3030.5732	3037.6767	3045.3954	3077.0645	3089.4616	3093.088	3097.4047	3101.1736	3116.7872	3154.8668	3168.9928
C1C2CC3C4C2N4CC13	C1[C@@H]2C[C@H]3[C@H]4[C@@H]2N4C[C@@H]13	
InChI=1S/C8H11N/c1-4-2-6-5(1)3-9-7(4)8(6)9/h4-8H,1-3H2	InChI=1S/C8H11N/c1-4-2-6-5(1)3-9-7(4)8(6)9/h4-8H,1-3H2/t4-,5-,6-,7-,8+,9?/m1/s1
