21
gdb 103325	2.17118	1.70401	1.15528	0.8476	79.11	-0.2441	0.0765	0.3207	1131.2419	0.181854	-424.153418	-424.144118	-424.143174	-424.187266	35.735	
C	-0.0796911073	 1.1502245241	 1.1144278394	-0.480611
C	-0.0215949638	-0.0845297176	 0.1987241769	 0.388903
C	-1.4395745378	-0.6675579768	 0.1878020477	-0.178037
O	-2.2524916097	 0.232288733	-0.5740634697	-0.432533
C	 0.7721361652	 0.037158568	-1.1596699661	-0.135888
C	 2.0837963243	 0.0655300298	-0.3140790628	-0.244095
C	 1.2116130526	-1.0657731636	 0.3132936464	-0.143941
C	 1.0045835188	-1.5124571168	-1.1609181111	 0.151589
O	 0.0042455569	-2.4531931036	-1.4673648682	-0.435833
H	 0.773224673	 1.824732892	 1.0404787379	 0.108561
H	-0.9765031055	 1.7239139387	 0.8665077613	 0.137319
H	-0.1663556146	 0.8375938384	 2.161985062	 0.10885
H	-1.4722712143	-1.6689642154	-0.2351908335	 0.122054
H	-1.7957951789	-0.7178853829	 1.230599043	 0.068306
H	-3.1547987869	-0.0984928943	-0.5513003487	 0.283658
H	 0.5233191103	 0.6727783993	-2.0108063854	 0.071765
H	 2.9954368285	-0.2574063117	-0.8230381125	 0.089321
H	 2.2772619236	 0.9433133062	 0.2934641214	 0.103903
H	 1.4752191503	-1.7036921512	 1.1595820508	 0.067635
H	 1.9386961059	-1.8072666601	-1.6574940283	 0.064302
H	-0.1095321507	-2.4585699455	-2.4229991106	 0.284774
66.9624	121.075	161.9952	203.3654	241.9141	280.4891	308.8053	359.8605	385.3434	440.8791	472.9971	560.7972	643.7714	672.6019	761.2459	810.5625	875.2747	887.2722	890.1941	954.9878	973.3948	1018.7352	1037.2742	1044.7856	1072.9314	1083.7115	1090.6711	1132.1736	1155.6054	1183.9572	1188.6676	1202.0034	1216.154	1239.3215	1263.2712	1271.8291	1318.0889	1336.2903	1406.8994	1455.1017	1469.948	1491.2136	1506.3044	1530.8419	1545.7501	2957.4531	3002.6841	3036.9251	3072.1576	3091.7048	3104.6455	3106.8148	3135.3243	3147.4334	3182.8405	3818.4862	3832.8053
CC1(CO)C2CC1C2O	C[C@@]1(CO)[C@H]2C[C@@H]1[C@H]2O	
InChI=1S/C7H12O2/c1-7(3-8)4-2-5(7)6(4)9/h4-6,8-9H,2-3H2,1H3	InChI=1S/C7H12O2/c1-7(3-8)4-2-5(7)6(4)9/h4-6,8-9H,2-3H2,1H3/t4-,5+,6-,7+
