21
gdb 110221	2.11662	1.37472	1.26524	1.545	79.6	-0.2288	0.0687	0.2975	1187.9261	0.180029	-424.186442	-424.176449	-424.175504	-424.221001	36.75	
C	 0.2938376796	 1.0613141922	-0.3352343467	-0.233389
O	-0.3452476285	 0.0004071461	 0.3426600009	-0.235004
C	 0.484491334	-0.6311337769	 1.2700124362	 0.005294
C	 0.2013443133	-2.0351117926	 1.7137361382	 0.219633
C	 0.0008674532	-2.4146889709	 3.1531971415	-0.496997
C	-0.3195003312	-2.8402071932	 0.5108240166	-0.266085
C	 0.9965788584	-2.5361956348	-0.2733246983	-0.288564
C	 1.4826491231	-1.7008795653	 0.9138874395	 0.28508
O	 2.7853484813	-1.6951612675	 1.3906641149	-0.45771
H	 1.1743071115	 0.7157142458	-0.8974074874	 0.101926
H	-0.4304629318	 1.4839190573	-1.0357450566	 0.128499
H	 0.6165747934	 1.8516366995	 0.360376342	 0.104495
H	 0.8329514329	 0.023072517	 2.0740543269	 0.079419
H	-1.0359377054	-2.244745974	 3.4675235897	 0.121376
H	 0.2288264118	-3.4739518697	 3.3167155556	 0.118399
H	 0.6507772408	-1.8294916055	 3.8111653244	 0.123458
H	-0.4329225232	-3.9021152767	 0.7417374721	 0.098014
H	-1.2422340289	-2.4678944177	 0.0612301703	 0.109596
H	 1.6111143137	-3.4289022536	-0.4077775961	 0.106493
H	 0.8957664761	-2.0205982784	-1.23333678	 0.093269
H	 3.2609095761	-0.9643041611	 0.9808746464	 0.282796
78.7534	147.675	164.545	171.291	179.7604	206.5072	232.0443	264.3569	290.1397	377.3362	423.6758	532.2938	565.5894	583.2809	705.9851	788.9164	802.4469	833.4974	948.0423	965.4098	990.8146	1027.1385	1038.0326	1081.673	1128.8483	1151.1269	1181.2621	1187.4713	1210.2417	1222.7388	1233.2874	1243.3588	1252.7613	1298.4568	1330.5697	1333.9278	1414.0961	1455.9366	1472.0488	1483.234	1485.9227	1486.5551	1495.3992	1505.4946	1524.8888	2974.6833	3022.4064	3022.852	3049.6357	3065.4517	3071.465	3081.4404	3101.3383	3106.185	3115.1153	3124.554	3791.453
COC1C2(C)CCC12O	CO[C@H]1[C@@]2(C)CC[C@@]12O	
InChI=1S/C7H12O2/c1-6-3-4-7(6,8)5(6)9-2/h5,8H,3-4H2,1-2H3	InChI=1S/C7H12O2/c1-6-3-4-7(6,8)5(6)9-2/h5,8H,3-4H2,1-2H3/t5-,6+,7+/m0/s1
