16
gdb 25729	2.67405	1.57335	0.99748	3.4255	75.47	-0.2279	-0.0271	0.2009	1134.7008	0.125361	-434.116626	-434.108144	-434.1072	-434.150164	31.152	
C	-0.0070556862	 1.536633854	 0.2210752775	-0.501825
C	 0.0137400348	 0.0627395666	 0.0118066433	 0.17579
C	-0.0067608413	-0.6606869899	-1.1462793174	 0.311331
O	 0.0256296879	-1.9980238775	-0.802848828	-0.202038
C	 0.0639030096	-1.9973954151	 0.5438648799	 0.059698
N	 0.0590420171	-0.8249986975	 1.0848564632	-0.300087
C	-0.0479037116	-0.3343278701	-2.575523391	 0.224869
N	-0.1587877317	-1.4328938141	-3.4084138359	-0.552949
N	-0.0233254537	 0.8981995017	-2.9305725689	-0.52504
H	 0.8883306183	 1.8541944285	 0.7665269718	 0.135146
H	-0.0502222516	 2.0518695828	-0.7378790636	 0.171574
H	-0.8713021387	 1.8197108257	 0.8316159519	 0.135152
H	 0.0937954794	-2.960580987	 1.0293344688	 0.152277
H	 0.0955047707	-2.3324561908	-3.0328704421	 0.263298
H	 0.0778000917	-1.2896032026	-4.3772660857	 0.249868
H	-0.0664072447	 0.9905724854	-3.9461772138	 0.202936
60.1214	90.8854	182.5377	207.5238	279.4479	317.8829	414.7794	420.6619	437.5623	512.5105	614.1871	653.0449	669.6453	697.7847	761.7668	825.6374	846.4554	957.03	989.1013	1070.7229	1075.672	1119.7411	1129.4239	1160.8468	1212.137	1289.0269	1341.2978	1407.7445	1440.8669	1478.7322	1491.085	1550.8066	1631.9007	1661.2275	1701.0131	3039.1877	3091.0922	3164.8237	3273.3106	3465.9515	3587.995	3704.0135
CC1=C(OC=N1)C(N)=N	Cc1c(ocn1)C(=N)N	
InChI=1S/C5H7N3O/c1-3-4(5(6)7)9-2-8-3/h2H,1H3,(H3,6,7)	InChI=1S/C5H7N3O/c1-3-4(5(6)7)9-2-8-3/h2H,1H3,(H3,6,7)
