21
gdb 81653	2.78094	1.55675	1.27372	1.1506	83.31	-0.2329	0.015	0.248	1088.262	0.184162	-387.075334	-387.067329	-387.066385	-387.107366	32.213	
C	-0.1725450679	 1.4566986208	-0.0450929927	-0.419136
C	 0.0415745111	-0.0523935483	-0.0181960943	 0.023275
C	 1.2756633006	-0.5520462452	-0.8319448333	 0.127452
C	 2.1029856341	-0.5138168697	 0.479151516	-0.272266
C	 0.7613970748	-0.5982280643	 1.2691233489	-0.06752
C	 0.374871858	-2.0204688099	 1.571793096	-0.073369
C	 0.5516325903	-3.0429021836	 0.7336903676	-0.075157
C	 1.2052616031	-2.9998013396	-0.6308444933	-0.124784
O	 1.0729901377	-1.8257880538	-1.4177435378	-0.274694
H	 0.7440240264	 2.0056602491	 0.1981067894	 0.112984
H	-0.5015329468	 1.7861562318	-1.0369081393	 0.118283
H	-0.9378602494	 1.7578233524	 0.6783317526	 0.116098
H	-0.8820155289	-0.5767859164	-0.2759994297	 0.073788
H	 1.6106329139	 0.0929044201	-1.6505294583	 0.072727
H	 2.8434164733	-1.2973234157	 0.6495865	 0.104803
H	 2.5903172173	 0.4564397751	 0.600181995	 0.103304
H	 0.6815413758	 0.0274858555	 2.1616784332	 0.058589
H	-0.0992569513	-2.2106888741	 2.5313029329	 0.085722
H	 0.2447126615	-4.0394785183	 1.0440411487	 0.090687
H	 2.2728720271	-3.2577419002	-0.5158330184	 0.104851
H	 0.7723584294	-3.7903359059	-1.2534051132	 0.114364
129.1711	201.3793	212.3239	249.3566	275.5773	348.838	384.7248	419.6253	485.2289	556.1281	687.2465	747.6496	780.5275	819.9918	853.7701	862.9503	895.5102	909.2226	954.1179	986.3187	1024.7303	1032.5644	1051.6442	1075.5384	1081.9871	1115.5053	1130.6845	1167.4193	1187.2161	1237.0132	1251.5091	1270.971	1273.2038	1284.1721	1327.0335	1356.1298	1384.5173	1406.8365	1408.5813	1412.6194	1476.2449	1494.2056	1495.6981	1499.3485	1714.5159	2945.2566	3025.3711	3052.838	3059.8315	3065.8645	3070.5491	3077.1195	3093.662	3096.3216	3124.3784	3141.3134	3165.8718
CC1C2CC1C=CCO2	C[C@H]1[C@H]2C[C@@H]1C=CCO2	
InChI=1S/C8H12O/c1-6-7-3-2-4-9-8(6)5-7/h2-3,6-8H,4-5H2,1H3	InChI=1S/C8H12O/c1-6-7-3-2-4-9-8(6)5-7/h2-3,6-8H,4-5H2,1H3/t6-,7+,8-/m1/s1
