19
gdb 51173	3.80199	1.01009	0.90581	2.871	75.75	-0.2491	-0.0256	0.2234	1302.2432	0.159083	-423.026237	-423.017834	-423.01689	-423.060155	31.176	
O	-0.6291240742	 0.5502564252	 0.5262540106	-0.237734
C	 0.2032698025	 0.8964194748	-0.2708906411	 0.166137
C	 1.2168552235	 2.002711494	-0.0410113368	-0.385629
C	 1.2385142113	 3.0033059475	-1.1760938211	 0.319406
C	 2.0076014404	 2.7381215635	-2.4513544565	-0.328781
C	 2.4416514768	 3.8502774731	-1.5306700531	-0.119075
C	 1.8922705433	 5.2268456331	-1.8556893478	-0.092136
O	 0.5107752093	 5.0239726239	-2.1425379165	-0.253376
C	 0.0484254886	 3.9429825774	-1.3429445277	-0.138019
H	 0.2848353076	 0.4056816468	-1.2684666854	 0.078607
H	 0.9961604263	 2.477900262	 0.9207113559	 0.121761
H	 2.2029066331	 1.5233971822	 0.0376379155	 0.121236
H	 2.6290080107	 1.8494947754	-2.4828794567	 0.111273
H	 1.546390023	 3.0052141709	-3.3970498532	 0.127827
H	 3.3726873571	 3.7689552452	-0.9816569219	 0.091923
H	 2.0280867468	 5.9024536904	-0.9953959916	 0.094393
H	 2.3394057007	 5.6961967926	-2.7380082296	 0.11262
H	-0.810138041	 3.5004096963	-1.8597300441	 0.113896
H	-0.2883131059	 4.2895533256	-0.351021379	 0.095671
50.7237	74.431	150.7484	240.807	272.3019	306.0561	369.4041	418.4606	471.8022	615.61	686.1397	732.0998	795.4033	860.9899	904.5679	927.9506	940.241	949.3819	991.2041	1041.3152	1049.4198	1069.6037	1083.3318	1103.4764	1117.9367	1126.6648	1189.8076	1218.9431	1248.2911	1262.4687	1309.6994	1316.8889	1356.102	1371.0758	1418.6758	1425.4403	1452.0095	1485.421	1508.7074	1520.6395	1835.6889	2866.3582	2961.9984	2974.0247	3015.3451	3064.1151	3071.7551	3082.7358	3127.1514	3180.6589	3215.2181
O=CCC12CC1COC2	O=CC[C@]12C[C@H]1COC2	
InChI=1S/C7H10O2/c8-2-1-7-3-6(7)4-9-5-7/h2,6H,1,3-5H2	InChI=1S/C7H10O2/c8-2-1-7-3-6(7)4-9-5-7/h2,6H,1,3-5H2/t6-,7+/m0/s1
