16
gdb 14675	9.14339	0.56031	0.55029	1.4912	71.51	-0.2516	-0.031	0.2206	1916.8423	0.127458	-383.711924	-383.702287	-383.701343	-383.749075	31.444	
O	 0.1521489827	 1.2077990567	-0.6466974947	-0.400501
C	 0.0015104525	 0.1480816153	 0.2873351515	-0.192038
C	-1.3513105088	-0.4077524307	 0.3279899042	 0.112538
C	-2.4699991532	-0.8549641427	 0.317715305	 0.009186
C	-3.8147255681	-1.4154789832	 0.3077716381	-0.365171
C	-3.8852664137	-2.7977536167	-0.3832113195	-0.261541
C	-5.2659391451	-3.4067843571	-0.2786313412	 0.15574
O	-5.9002022886	-3.840383143	-1.2041864673	-0.23023
H	-0.1730379901	 0.8917804487	-1.4961371348	 0.287539
H	 0.721581086	-0.6632259011	 0.0933399135	 0.11778
H	 0.2632901638	 0.5734343515	 1.2625888195	 0.141295
H	-4.1832022082	-1.5044051766	 1.3386779849	 0.137787
H	-4.4973419878	-0.7207889976	-0.1980552406	 0.146588
H	-3.6005185048	-2.7334855166	-1.4358448372	 0.133517
H	-3.1826951462	-3.4760073883	 0.1195971627	 0.134621
H	-5.6764074004	-3.4332206184	 0.7593817859	 0.072889
16.1781	56.5739	64.1233	97.1669	140.8822	244.9842	287.08	301.0436	368.6669	447.1214	533.989	559.2882	753.5401	775.4033	848.6549	981.1473	993.1793	1047.3847	1075.9035	1092.118	1159.879	1197.457	1215.7731	1263.8125	1303.9768	1359.2916	1363.879	1418.9521	1430.1539	1461.1245	1478.2706	1492.3241	1840.1794	2363.6817	2846.5035	2974.5135	3016.304	3030.248	3050.4998	3062.3889	3117.4643	3816.6686
OCC#CCCC=O	OCC#CCCC=O	
InChI=1S/C6H8O2/c7-5-3-1-2-4-6-8/h5,8H,1,3,6H2	InChI=1S/C6H8O2/c7-5-3-1-2-4-6-8/h5,8H,1,3,6H2
