17
gdb 98750	3.05672	0.91771	0.81731	3.8142	71.82	-0.2528	-0.0507	0.2022	1415.2202	0.133404	-458.973868	-458.964616	-458.963671	-459.009015	32.746	
O	 0.2469702526	 1.3494903961	 0.0303462371	-0.418152
C	 0.0879325718	-0.0304809048	-0.0661053459	-0.134716
C	-1.3626484408	-0.4429642401	 0.130757805	 0.359275
O	-2.1996020256	 0.4149779216	 0.3424501547	-0.348037
C	-1.6660052438	-1.897515201	 0.0682543145	-0.125692
C	-2.8598101472	-2.4295291303	 0.8135453956	-0.295728
C	-2.9048594013	-2.4277404111	-0.6899137545	-0.100913
C	-3.8445086765	-1.5193476835	-1.4060959407	 0.145285
O	-4.349670213	-1.8137353988	-2.4618866448	-0.261501
H	-0.6437566659	 1.697563807	 0.1975696215	 0.296639
H	 0.4170842453	-0.4106513517	-1.0489322541	 0.123558
H	 0.6978395556	-0.5613047291	 0.6854259625	 0.11978
H	-0.7966282674	-2.5417426486	-0.0126790057	 0.110992
H	-2.7652686802	-3.3818704095	 1.3209317598	 0.139795
H	-3.4608314172	-1.6820539565	 1.3210071271	 0.153483
H	-2.7475614587	-3.369676648	-1.2043580752	 0.121816
H	-4.0654905276	-0.5634762919	-0.894698077	 0.114117
39.2552	86.7851	114.5911	173.9447	203.2432	280.4905	324.8649	348.3051	389.8829	406.322	488.7672	581.2935	686.4281	801.5286	828.9333	867.0053	896.672	946.3362	1024.4307	1052.2072	1059.1689	1100.4219	1109.3354	1136.1589	1155.9456	1184.3775	1212.4494	1245.2562	1306.8947	1341.7336	1406.8665	1440.7168	1451.7551	1472.7808	1489.3964	1775.7204	1812.778	2961.9617	2964.2516	2976.359	3142.2431	3165.5993	3180.6793	3238.4715	3684.9725
OCC(=O)C1CC1C=O	OCC(=O)[C@H]1C[C@H]1C=O	
InChI=1S/C6H8O3/c7-2-4-1-5(4)6(9)3-8/h2,4-5,8H,1,3H2	InChI=1S/C6H8O3/c7-2-4-1-5(4)6(9)3-8/h2,4-5,8H,1,3H2/t4-,5-/m0/s1
