21
gdb 39118	3.85512	1.061	1.0042	1.812	82.79	-0.2422	0.0837	0.326	1288.2396	0.18318	-387.04477	-387.036569	-387.035625	-387.078084	31.904	
C	-0.0316093964	 1.6769350737	 0.0632229827	-0.212833
C	 1.5115636964	 1.5152752908	 0.0523403243	-0.22867
C	 1.3203991154	 0.0439183706	 0.5343948592	-0.08447
C	-0.1557619936	 0.1295441298	 0.043772464	-0.238693
C	 2.2189711288	-1.0148697229	-0.0019396478	 0.438952
C	 2.4552399565	-1.4550686499	-1.4630573029	-0.297934
C	 2.8262003966	-2.8826085001	-0.9263938303	-0.236186
C	 2.5905879095	-2.3568466915	 0.494472481	-0.050613
O	 3.4689114311	-1.2408321213	 0.679092291	-0.298903
H	-0.387768762	 2.0986874878	 1.0075417704	 0.103897
H	-0.4904560512	 2.2320914333	-0.7578950428	 0.097257
H	 1.9126571229	 1.5482989337	-0.965571435	 0.10354
H	 2.1078358596	 2.1780954404	 0.682823647	 0.103999
H	 1.3569350519	 0.0003925884	 1.6274061869	 0.078216
H	-0.9214452566	-0.3369522777	 0.6681927942	 0.098772
H	-0.2617187721	-0.2506452605	-0.9769310463	 0.10161
H	 1.5491057298	-1.4625633827	-2.0734735048	 0.105519
H	 3.2422782245	-0.9062031962	-1.9852508454	 0.107252
H	 2.105043709	-3.6445670855	-1.2318507592	 0.10333
H	 3.8401577533	-3.2373550009	-1.1257168035	 0.109984
H	 2.2855808566	-2.8959907492	 1.3851176672	 0.095973
57.4406	111.5973	136.187	232.3339	264.5664	363.1495	459.7206	480.9161	559.4842	701.6555	736.1012	774.6327	783.0688	841.3377	873.5626	904.1069	921.3966	930.9358	936.0744	950.921	959.4145	997.5989	1009.6628	1028.5503	1070.0216	1116.641	1151.6892	1198.7167	1204.4582	1213.1325	1218.5215	1242.4337	1255.3161	1257.8857	1263.5272	1275.3083	1284.7596	1298.5441	1340.4428	1459.5645	1463.6854	1477.824	1487.0306	1493.514	1511.5351	3052.6515	3053.7446	3059.2584	3061.1498	3062.4785	3069.801	3100.6109	3108.9306	3113.2042	3121.8554	3129.5437	3174.6378
C1CC(C1)C12CCC1O2	C1CC(C1)[C@]12CC[C@H]1O2	
InChI=1S/C8H12O/c1-2-6(3-1)8-5-4-7(8)9-8/h6-7H,1-5H2	InChI=1S/C8H12O/c1-2-6(3-1)8-5-4-7(8)9-8/h6-7H,1-5H2/t7-,8-/m1/s1
