16
gdb 116728	2.64518	0.7241	0.57253	2.4759	89.18	-0.2456	-0.0219	0.2237	1843.2559	0.120708	-400.681025	-400.670807	-400.669863	-400.717727	34.631	
C	-0.0903582678	 0.8642368206	-0.8761180201	-0.252256
O	-0.5792324706	 0.1268304433	 0.2395688277	-0.194531
C	-1.2373102632	-1.0068330063	-0.0608856497	 0.148998
N	-1.7045740743	-1.7215350556	 0.8655523723	-0.24115
C	-2.4168858481	-2.9491719107	 0.5381714942	-0.294597
C	-2.5630644243	-3.3072824584	-0.8741351328	 0.401225
C	-2.6747018931	-3.5879507927	-2.0471381578	-0.315312
C	-2.8055187302	-3.9113270455	-3.3626572442	 0.289068
C	-2.9203975013	-4.1964975126	-4.5304157762	-0.541066
H	 0.4111972902	 1.7415697426	-0.4664954525	 0.147407
H	 0.6295850779	 0.2783677597	-1.4598373251	 0.130813
H	-0.9074320724	 1.1901322404	-1.5306921785	 0.130819
H	-1.3168012247	-1.2258896375	-1.1332754434	 0.096523
H	-1.9161451754	-3.7753535364	 1.0617025756	 0.15021
H	-3.4158380533	-2.8864733688	 0.9915614366	 0.150215
H	-3.0233335194	-4.4508752722	-5.556051746	 0.193634
45.8407	52.5705	101.2369	146.7694	162.788	172.6077	247.3057	280.2044	341.6467	401.2224	477.6992	524.1052	524.5904	587.9329	599.1847	612.1261	760.7161	951.5779	1003.9734	1019.0213	1066.7171	1156.2331	1177.5008	1180.3677	1261.4754	1284.4517	1343.7424	1413.618	1461.1014	1487.8099	1495.1127	1500.6478	1774.6752	2178.5307	2355.6667	3010.5578	3016.0885	3028.8106	3044.5412	3082.1566	3146.8731	3504.8843
COC=NCC#CC#C	COC=NCC#CC#C	
InChI=1S/C7H7NO/c1-3-4-5-6-8-7-9-2/h1,7H,6H2,2H3	InChI=1S/C7H7NO/c1-3-4-5-6-8-7-9-2/h1,7H,6H2,2H3
