17
gdb 52335	2.71906	1.28673	1.11945	3.1242	64.86	-0.2637	0.0087	0.2724	1130.2461	0.135727	-496.115845	-496.107363	-496.106419	-496.150285	29.578	
O	 0.921452396	 0.1891737761	 0.1020334153	-0.282446
C	 0.7475328229	 1.3483560149	-0.1236300093	 0.183114
O	 0.9725404922	 2.3056984199	 0.8038718648	-0.180343
C	 0.9327655623	 3.6590887514	 0.3624884097	-0.130905
C	 2.3198799181	 4.1182347386	-0.089052058	 0.229267
O	 3.2708938151	 4.0522248157	 0.9498977852	-0.263373
C	 4.1242405841	 2.9386798978	 0.6877733855	-0.104438
C	 4.0849817347	 2.8514853231	-0.835582389	-0.091886
O	 2.7549284307	 3.2741345338	-1.1375377823	-0.274455
H	 0.3713094991	 1.7555996221	-1.0793835035	 0.088882
H	 0.2197469689	 3.7845093912	-0.4626188684	 0.117989
H	 0.6038822024	 4.261494945	 1.2117575108	 0.136441
H	 2.2596480765	 5.1660457692	-0.425989052	 0.085294
H	 5.1143339026	 3.1637430061	 1.0906918008	 0.118302
H	 3.7323470649	 2.0274712518	 1.1549031147	 0.130697
H	 4.8162301646	 3.5274072217	-1.2993841763	 0.108218
H	 4.2226125051	 1.8412790417	-1.2268694982	 0.129643
51.8738	75.6785	102.0588	177.4457	234.7211	264.5682	317.2241	398.4109	597.149	658.0012	670.2974	793.4086	867.6582	890.5502	912.1416	955.1393	1016.4779	1028.5881	1037.1452	1066.4726	1087.6674	1139.2949	1158.0495	1201.3332	1229.0894	1248.7906	1301.0151	1330.2746	1380.1157	1384.4107	1396.5891	1407.4648	1428.7426	1484.7285	1513.3763	1521.0872	1865.321	2974.1367	2978.0987	3014.9067	3033.3705	3039.3647	3107.4643	3116.4542	3121.1617
O=COCC1OCCO1	O=COCC1OCCO1	
InChI=1S/C5H8O4/c6-4-7-3-5-8-1-2-9-5/h4-5H,1-3H2	InChI=1S/C5H8O4/c6-4-7-3-5-8-1-2-9-5/h4-5H,1-3H2
