14
gdb 25284	7.74187	0.66806	0.61499	5.5196	96.39	-0.2223	-0.0658	0.1565	1686.3056	0.101903	-399.57108	-399.563111	-399.562167	-399.604594	28.297	
O	-0.1624651045	 0.01873232	 0.000934695	-0.2451
C	-0.0246365014	 1.2246144056	 0.0091190198	-0.011332
C	 1.231069017	 1.9067837556	-0.0002472485	 0.158259
C	 2.2859284095	 2.5101796454	-0.0077703227	-0.032942
C	 3.501300313	 3.1950382212	-0.0159748379	 0.155772
C	 4.8135297689	 2.7263144521	-0.0348138889	-0.240285
C	 5.6697103912	 3.8443353945	-0.0354346179	-0.125149
C	 4.8723720543	 4.9758358655	-0.0169374632	-0.086702
N	 3.5727963677	 4.5792549815	-0.0053577527	-0.299946
H	-0.9016980631	 1.9053297489	 0.0251157624	 0.0885
H	 5.0927023241	 1.6846824671	-0.0465964264	 0.119468
H	 6.7481844162	 3.8344977313	-0.0478876644	 0.112056
H	 5.1348729913	 6.0217763717	-0.0113196374	 0.133165
H	 2.7699149958	 5.1848009596	 0.0088105129	 0.274236
73.7097	76.6221	126.1791	204.1802	244.9862	418.0783	491.8721	518.7554	522.4538	625.0278	683.3454	702.7977	751.4946	825.8314	884.3831	890.2652	937.2911	1011.8257	1026.3733	1071.4193	1132.2546	1145.3412	1270.6521	1321.8778	1420.7702	1422.6975	1453.8897	1483.0643	1591.717	1744.9883	2281.7862	2901.8331	3252.3433	3266.1199	3276.0364	3677.8763
O=CC#CC1=CC=CN1	O=CC#Cc1ccc[nH]1	
InChI=1S/C7H5NO/c9-6-2-4-7-3-1-5-8-7/h1,3,5-6,8H	InChI=1S/C7H5NO/c9-6-2-4-7-3-1-5-8-7/h1,3,5-6,8H
