15
gdb 56495	2.3296	1.24995	1.01062	1.3797	78.29	-0.2641	0.0149	0.2789	1208.5836	0.107484	-383.369246	-383.359358	-383.358414	-383.403977	36.048	
O	-0.00413204	 1.4920451795	-0.0420517357	-0.402192
C	 0.0418301917	 0.0849817047	-0.0208324713	-0.084151
C	 0.6558927007	-0.4823786669	-1.2257392697	 0.323146
C	 1.1724970197	-0.9408146116	-2.2089924596	-0.440455
C	 0.7719231724	-0.4523795686	 1.2690725361	-0.366088
C	 2.1201038643	 0.1163103621	 1.3466966831	 0.321212
C	 3.209454364	 0.6223225138	 1.3709418109	-0.441752
C	-0.0131373951	-0.1576850434	 2.468800577	 0.330905
C	-0.6817941749	 0.0653858366	 3.4404224117	-0.429289
H	 0.9087864408	 1.8079396223	-0.0644631382	 0.292687
H	-1.0001211578	-0.243200202	 0.0479532796	 0.135386
H	 1.6206297959	-1.3428690354	-3.0842080638	 0.20309
H	 0.8520078928	-1.5418519912	 1.156215029	 0.148748
H	 4.1825949537	 1.0463429033	 1.4122299864	 0.206999
H	-1.2662073082	 0.2706840567	 4.3031127045	 0.201754
61.6881	112.0402	126.2321	147.4491	185.018	243.3442	334.9676	340.9842	384.5476	431.4047	482.608	561.8041	569.3841	638.5744	640.9816	643.467	659.124	661.6817	674.699	733.4098	826.3546	930.7201	1006.719	1042.4123	1080.2537	1217.9741	1267.389	1316.7605	1339.2911	1431.1641	2235.1004	2237.86	2247.0995	3022.3252	3068.6045	3501.4074	3502.0376	3504.0933	3769.257
OC(C#C)C(C#C)C#C	O[C@@H](C#C)C(C#C)C#C	
InChI=1S/C8H6O/c1-4-7(5-2)8(9)6-3/h1-3,7-9H	InChI=1S/C8H6O/c1-4-7(5-2)8(9)6-3/h1-3,7-9H/t8-/m0/s1
