20
gdb 81077	2.75427	1.4785	1.19168	2.2183	79.43	-0.2319	0.0631	0.2951	1105.8145	0.171208	-403.060271	-403.0521	-403.051156	-403.093152	32.269	
O	 0.4660169491	 1.2844029173	-0.282632334	-0.449265
C	 0.1442259538	-0.0640286678	-0.0912512313	 0.149728
C	 0.0289848626	-0.6924826106	 1.330798856	-0.099832
C	-1.3342205578	 0.0393599883	 1.5005371616	-0.313252
C	-1.3364024668	-0.5481347543	 0.0296433647	 0.34573
C	-0.7544297437	-1.8476891412	 0.6465263594	-0.267189
N	-2.308542429	-0.4899442417	-1.0071199959	-0.174249
C	-3.717538921	-0.3977057988	-0.6291502694	-0.237698
C	-3.007739658	 0.7776112534	-1.2032751132	-0.225491
H	 0.0247305792	 1.8169419309	 0.3865067516	 0.281166
H	 0.7514633968	-0.6225225254	-0.808020068	 0.086205
H	 0.8124947496	-0.7858633603	 2.0804321708	 0.079881
H	-2.0351385005	-0.4118774417	 2.2074049622	 0.097386
H	-1.3209057817	 1.12606388	 1.633186528	 0.075551
H	-0.1932560774	-2.49833004	-0.029259485	 0.097459
H	-1.4271259142	-2.4160219282	 1.2922054428	 0.094457
H	-4.4028009872	-0.9806537648	-1.2373981072	 0.118944
H	-3.961018318	-0.3624391384	 0.4306272088	 0.112936
H	-2.7787059368	 1.5981111431	-0.5270463493	 0.107231
H	-3.164512749	 1.0695842904	-2.2372136028	 0.120302
56.9304	151.9738	198.1694	223.459	305.0921	336.2047	410.8734	487.9296	541.3566	566.6992	633.5133	768.6605	778.7488	823.1916	872.5294	889.2488	895.2445	925.5299	951.0169	970.4512	1015.5472	1031.2951	1047.3558	1063.2895	1108.2171	1118.6467	1125.1277	1132.6528	1149.5978	1157.5844	1177.5548	1187.5569	1211.8439	1214.911	1245.1056	1255.5654	1279.8727	1375.6256	1452.6189	1486.5544	1502.2053	1513.3297	1544.1652	3040.1495	3059.6826	3088.7574	3100.4064	3104.5248	3108.4954	3127.465	3135.3019	3184.8899	3199.5589	3819.4755
OC1C2CC1(C2)N1CC1	O[C@H]1[C@H]2C[C@@]1(C2)N1CC1	
InChI=1S/C7H11NO/c9-6-5-3-7(6,4-5)8-1-2-8/h5-6,9H,1-4H2	InChI=1S/C7H11NO/c9-6-5-3-7(6,4-5)8-1-2-8/h5-6,9H,1-4H2/t5-,6-,7-/m0/s1
