17
gdb 30351	3.12717	1.54607	1.09112	0.5539	74.19	-0.2259	0.0106	0.2365	1080.5967	0.137644	-421.848261	-421.840788	-421.839844	-421.880496	28.537	
C	 0.0699661274	 1.5828146067	-0.0914736765	-0.386789
C	-0.0049398875	 0.0669095847	 0.0505250922	 0.008229
O	 0.6338282625	-0.5384772496	-1.0951611606	-0.29368
C	 1.4528120969	-1.6595769328	-0.7364322056	-0.197455
C	 1.6069483155	-1.5457335272	 0.7474515759	 0.188968
C	 2.2466423419	-2.0412334567	 1.8332129664	-0.163923
O	 1.8198344814	-1.3794486311	 2.9510342492	-0.151892
C	 0.8948813816	-0.4532271619	 2.5579000014	-0.176347
C	 0.7349113396	-0.5200006355	 1.2145879553	 0.210455
H	 1.1112579341	 1.9154018912	-0.0823762012	 0.123607
H	-0.3903696439	 1.894529031	-1.0329673819	 0.126774
H	-0.463143737	 2.0692529488	 0.7318567416	 0.113315
H	-1.0629318691	-0.2421788971	 0.065983028	 0.087249
H	 0.9622191043	-2.5998672625	-1.0322923061	 0.10957
H	 2.3954892721	-1.5865829458	-1.2916830189	 0.119905
H	 2.9862996178	-2.805708562	 2.0013805464	 0.141479
H	 0.4732346425	 0.1447345299	 3.3481969047	 0.140535
74.3176	157.5272	223.4139	231.4642	301.0088	453.362	481.0466	604.6406	607.3411	638.6299	708.0915	737.2975	762.5599	782.4699	857.9377	929.8006	1000.4485	1040.4938	1050.8463	1058.1438	1085.0952	1110.467	1150.8128	1158.9805	1203.1332	1250.2812	1297.6737	1318.8905	1346.7754	1378.5871	1403.8396	1416.701	1483.2891	1494.2933	1519.3941	1600.0043	1671.318	2961.7606	2980.3807	3041.5781	3043.5664	3115.0335	3127.6454	3276.7899	3281.6554
CC1OCC2=COC=C12	C[C@H]1OCc2cocc12	
InChI=1S/C7H8O2/c1-5-7-4-8-2-6(7)3-9-5/h2,4-5H,3H2,1H3	InChI=1S/C7H8O2/c1-5-7-4-8-2-6(7)3-9-5/h2,4-5H,3H2,1H3/t5-/m1/s1
