20
gdb 53648	3.92299	0.56484	0.51141	4.0448	89.44	-0.2527	0.031	0.2837	2142.6936	0.168528	-366.015316	-366.004213	-366.003269	-366.054124	37.57	
C	-0.0259186487	 1.5267998699	-0.0534346981	-0.497721
C	-0.0017107328	 0.0709734581	-0.0450799391	 0.130101
C	 0.0283115977	-1.1325695407	-0.040312265	 0.010124
C	 0.0279756381	-2.5909086701	-0.0284623416	-0.375286
C	-1.3903750681	-3.1721651912	 0.1433234354	-0.171438
C	-1.4271062135	-4.717614793	 0.0716957013	-0.140801
C	-0.6843081607	-5.4118937289	 1.2311054521	-0.393219
C	-2.8210453248	-5.1734831034	 0.0266116163	 0.261207
N	-3.9213654449	-5.5266706916	 0.0015443209	-0.321809
H	 0.5803709828	 1.9405527869	 0.7599054451	 0.148259
H	 0.3661529658	 1.9263736426	-0.9952018552	 0.148698
H	-1.0459693173	 1.9077012351	 0.0678050575	 0.149826
H	 0.4625842625	-2.9697700677	-0.9641645591	 0.127197
H	 0.6820989355	-2.9484579084	 0.7760882791	 0.132091
H	-1.8097682563	-2.8432290368	 1.099898789	 0.126139
H	-2.0358409211	-2.7633482602	-0.6393655451	 0.130926
H	-0.9645022888	-5.0287333794	-0.8749405377	 0.126393
H	-0.7741115063	-6.4980866766	 1.1544428029	 0.140091
H	 0.3779388968	-5.1575585305	 1.2127438817	 0.130319
H	-1.0989734361	-5.1024463342	 2.1948349095	 0.138901
16.1406	46.6592	66.3604	90.5008	161.3823	200.9141	213.0169	238.1093	290.5648	305.9205	375.4333	388.8859	464.0011	558.7618	588.4801	749.9317	772.9757	837.4257	922.3217	956.091	1023.1352	1052.608	1053.3497	1073.8558	1110.3858	1138.3645	1172.6715	1220.4191	1275.3288	1310.439	1339.8384	1345.0009	1387.3938	1414.0867	1415.5663	1474.6526	1478.5417	1478.9053	1492.195	1496.0359	1503.1905	2356.4862	2375.665	3008.8006	3019.4922	3026.9961	3045.0374	3051.818	3055.7568	3087.7101	3088.0041	3101.9993	3126.2236	3131.2006
CC#CCCC(C)C#N	CC#CCC[C@@H](C)C#N	
InChI=1S/C8H11N/c1-3-4-5-6-8(2)7-9/h8H,5-6H2,1-2H3	InChI=1S/C8H11N/c1-3-4-5-6-8(2)7-9/h8H,5-6H2,1-2H3/t8-/m1/s1
