20
gdb 22075	2.08289	1.43613	1.07203	0.8643	79.01	-0.2478	-0.0006	0.2472	1224.1538	0.167806	-440.238754	-440.228603	-440.227659	-440.273774	37.697	
C	-0.4764169867	 1.3767389835	 0.1856948654	-0.399929
C	-0.0423984376	-0.0734217126	-0.0406761879	-0.092219
C	 0.9041604227	-0.325554849	-1.2648007161	-0.268571
C	 2.0961704956	-0.6278360788	-0.3039679758	 0.311985
C	 2.8575851296	-1.9314001028	-0.4898677868	-0.447937
O	 2.9718031353	 0.4978823056	-0.3099156413	-0.466467
C	 1.0918892053	-0.5547451057	 0.8454300625	 0.375353
N	 1.2679853444	-0.8495974827	 2.0634503348	-0.256851
O	 0.0964979738	-0.6411290016	 2.8182276679	-0.391133
H	 0.3895479944	 2.0446633918	 0.1548459155	 0.129154
H	-1.1797806789	 1.6917388195	-0.5923118903	 0.114009
H	-0.9616617797	 1.4866437459	 1.1591150466	 0.133821
H	-0.9149940313	-0.7337555321	-0.0037402092	 0.092724
H	 0.6153334856	-1.1823007456	-1.8767850087	 0.102644
H	 1.0813440446	 0.5398719745	-1.9052732393	 0.114328
H	 3.4429509932	-1.8910020732	-1.4136636569	 0.123606
H	 3.5412408073	-2.0997672926	 0.3493808171	 0.120508
H	 2.1758922206	-2.7857414374	-0.5398053864	 0.117081
H	 3.497097835	 0.4553389446	 0.4975640689	 0.282004
H	 0.3717147269	-0.9110431014	 3.7010336899	 0.30589
39.885	122.5315	155.3089	211.0599	237.5877	248.9658	253.8763	302.1388	342.3988	372.1265	390.1465	401.8303	447.8807	588.0599	620.5531	648.2402	766.8231	822.945	862.8573	911.9077	943.1745	970.401	979.5207	1013.3497	1087.1726	1110.2922	1135.6315	1183.5408	1202.0329	1225.7086	1253.7724	1290.7979	1328.0631	1362.8454	1401.2355	1401.7313	1403.4155	1471.5348	1485.3179	1489.0434	1493.7368	1504.8754	1775.1857	3032.705	3036.9365	3052.1934	3076.8165	3103.2957	3108.1961	3114.7586	3122.4166	3138.3172	3797.3208	3815.8854
CC1CC(C)(O)C1=NO	C[C@H]1C[C@@](C)(O)C1=NO	
InChI=1S/C6H11NO2/c1-4-3-6(2,8)5(4)7-9/h4,8-9H,3H2,1-2H3	InChI=1S/C6H11NO2/c1-4-3-6(2,8)5(4)7-9/h4,8-9H,3H2,1-2H3/t4-,6+/m0/s1
