18
gdb 55703	3.71531	1.02935	0.96798	11.2129	70.41	-0.2111	0.0048	0.2158	1246.3057	0.147141	-476.190432	-476.182187	-476.181243	-476.223749	31.336	
O	-0.0786949697	 1.2032468402	 0.3018399869	-0.631959
C	 0.0134395191	-0.104437683	 0.011075479	 0.452375
C	 0.9690468968	-0.4528858294	-1.1247592121	-0.44299
C	 2.3585666081	 0.1899714933	-0.9333235798	 0.393618
O	 2.3358414046	 1.3645754962	-0.322005698	-0.38903
O	 3.3653510874	-0.3420740128	-1.3359848961	-0.361425
C	 0.1594263094	-0.9125887266	 1.388713182	-0.249742
N	-1.3328842302	-0.6352884519	 1.522535934	-0.250336
H	-1.9261951214	-1.1965828933	 2.1297327368	 0.292938
H	-1.3646954229	 0.3791634387	 1.7154079765	 0.300897
C	-1.4551951146	-0.7006315202	 0.0059956756	-0.246686
H	 1.3635633102	 1.5296710303	-0.0166775146	 0.335572
H	 1.1046682226	-1.5283169627	-1.2663706192	 0.099825
H	 0.5511015594	-0.040619695	-2.0517899151	 0.13035
H	 0.3050362551	-1.9930030752	 1.3239285717	 0.133683
H	 0.751359674	-0.4508652261	 2.1771872575	 0.153284
H	-2.2441371117	-0.0602842322	-0.3860081737	 0.146684
H	-1.5663277663	-1.7463976004	-0.2887080415	 0.132941
71.4368	88.2756	175.4357	235.7288	328.6989	365.4207	403.578	449.0556	471.8255	566.4325	635.6742	669.4889	692.7371	810.6512	845.7255	867.469	886.6285	918.9556	955.3933	987.1929	1023.4487	1068.174	1079.6897	1086.4717	1154.8018	1205.7616	1242.3085	1261.3736	1276.208	1286.0394	1312.897	1342.7552	1369.3609	1454.0714	1465.0409	1489.6326	1523.13	1635.2904	1839.9027	2575.3263	3038.1319	3076.0628	3083.7762	3100.9858	3173.9816	3179.5301	3293.2152	3524.3118
OC1(CC([O-])=O)C[NH2+]C1	[O]C1(CC(=O)O)C[NH2]C1	
InChI=1S/C5H9NO3/c7-4(8)1-5(9)2-6-3-5/h6,9H,1-3H2,(H,7,8)	InChI=1S/C5H9NO3/c7-4(8)1-5(9)2-6-3-5/h1-3,6H2,(H,7,8)
