19
gdb 114718	2.4926	1.543	1.24255	2.1244	75.82	-0.2252	-0.0203	0.2049	1089.5042	0.159656	-423.033377	-423.024976	-423.024032	-423.066509	31.661	
C	 0.2664079369	 0.7437163098	-0.6224704439	-0.244542
O	 0.1204220179	-0.5071808193	 0.028806243	-0.246453
C	 0.588093125	-0.5143214727	 1.3726314488	-0.008596
C	 0.1575877889	-1.8192065397	 2.0599851522	-0.2533
C	 1.3505635699	-2.7713285792	 1.9563428368	-0.044097
C	 1.9339797059	-2.969604009	 0.5994748377	-0.283171
C	 2.5790879879	-1.9636280189	 1.5559581358	-0.147486
C	 2.1431802739	-0.549504338	 1.3948175355	 0.417703
O	 2.8515769358	 0.4266812988	 1.3222338613	-0.343041
H	 1.3154516763	 1.0531061718	-0.6963092928	 0.136816
H	-0.1504403885	 0.6251687214	-1.6252664385	 0.125628
H	-0.2902455449	 1.5306242286	-0.0915054807	 0.108712
H	 0.2327123925	 0.3835979911	 1.8965712826	 0.085596
H	-0.0622220685	-1.6191830027	 3.1136651524	 0.110161
H	-0.7493135745	-2.2171234286	 1.5959743267	 0.118894
H	 1.4439263792	-3.5631701279	 2.6904025195	 0.094627
H	 2.5163238497	-3.8669004537	 0.4220455937	 0.121411
H	 1.3992178475	-2.5879012954	-0.2619806768	 0.146085
H	 3.578822009	-2.1569642264	 1.9228700566	 0.105053
82.0463	118.7878	170.8581	196.6873	247.0997	327.2113	368.0427	401.3676	460.4958	566.6309	676.9851	715.2319	795.7538	810.4526	842.4206	864.4496	930.1619	948.3739	983.5807	1020.7994	1068.8767	1083.2165	1104.2859	1107.4827	1128.4167	1180.1128	1187.3856	1205.6665	1212.2759	1236.5443	1267.4609	1318.9596	1341.8699	1361.0323	1389.427	1474.3882	1476.7339	1484.3039	1491.2351	1513.8357	1821.7679	2991.411	3011.0364	3053.4629	3065.0287	3099.0078	3122.3353	3141.7371	3178.0989	3200.8167	3235.3659
COC1CC2CC2C1=O	CO[C@H]1C[C@H]2C[C@H]2C1=O	
InChI=1S/C7H10O2/c1-9-6-3-4-2-5(4)7(6)8/h4-6H,2-3H2,1H3	InChI=1S/C7H10O2/c1-9-6-3-4-2-5(4)7(6)8/h4-6H,2-3H2,1H3/t4-,5-,6+/m1/s1
