18
gdb 80666	2.64974	1.77803	1.31496	3.6448	71.28	-0.2445	0.0132	0.2578	986.9069	0.150515	-439.112242	-439.104941	-439.103997	-439.143827	29.654	
O	 0.100426155	 1.3395209438	 0.2278782659	-0.446954
C	-0.0167619678	-0.0516135289	 0.0330006381	 0.056144
C	-1.4879301144	-0.4736903235	-0.0036892413	-0.04339
C	-1.5468333805	-1.9905240777	-0.3475006149	-0.230768
C	-1.3828798239	-1.5413029636	-1.8231985595	 0.000432
C	-2.0807538247	-0.2091808658	-1.4178565737	-0.228452
N	 0.0376595946	-1.286465254	-2.0810491894	-0.300218
C	 0.7103792769	-0.4151858554	-1.2815889309	 0.366253
O	 1.7884220705	 0.0874655062	-1.5507003603	-0.398319
H	 0.9619144176	 1.5757741399	-0.1466302321	 0.292642
H	 0.4922270661	-0.6024328255	 0.8440212784	 0.087409
H	-2.0202413932	-0.1022306454	 0.8735013139	 0.081397
H	-0.7761197188	-2.6505936006	 0.0596688208	 0.104411
H	-2.5365722028	-2.4115786559	-0.1581214815	 0.108981
H	-1.7883641137	-2.1556776929	-2.6271655281	 0.079656
H	-3.1690666276	-0.3024149463	-1.4257576823	 0.105601
H	-1.7772337017	 0.7011866554	-1.9394054266	 0.114339
H	 0.4201449385	-1.4389518399	-3.0030531265	 0.250837
91.0634	202.9512	288.6912	382.4752	402.9734	451.7344	457.1267	487.305	532.0379	544.6283	626.2717	712.4544	808.0434	835.604	865.5777	893.2808	910.7601	937.0606	985.2665	1024.387	1079.6956	1092.5841	1106.9177	1125.9236	1133.0578	1149.0946	1238.83	1240.3369	1266.8759	1276.7885	1296.9764	1334.2333	1364.8057	1389.8242	1437.1123	1452.7551	1474.411	1505.8883	1789.3791	2942.7202	3060.7741	3067.7744	3098.3883	3111.5334	3123.2574	3129.4003	3609.2201	3730.0804
OC1C2CC(C2)NC1=O	O[C@H]1[C@@H]2C[C@@H](C2)NC1=O	
InChI=1S/C6H9NO2/c8-5-3-1-4(2-3)7-6(5)9/h3-5,8H,1-2H2,(H,7,9)	InChI=1S/C6H9NO2/c8-5-3-1-4(2-3)7-6(5)9/h3-5,8H,1-2H2,(H,7,9)/t3-,4+,5-/m0/s1
