17
gdb 107530	2.09302	1.57269	1.08868	1.7111	74.01	-0.2427	0.0169	0.2596	1137.0879	0.133742	-421.73335	-421.724567	-421.723623	-421.767113	32.744	
O	 0.1049462173	 1.4070800006	 0.2136713887	-0.408681
C	 0.0518786091	 0.0156619436	-0.0663348732	-0.173117
C	-1.3412141089	-0.5293829456	-0.0209271404	 0.232409
C	-2.0293447691	-1.0390011475	 1.2371994153	-0.36342
C	-1.904187224	-1.9287354306	 0.0414002011	 0.047593
O	-2.9359640359	-1.6551206103	-0.9087667381	-0.294265
C	-2.4183124461	-0.2978548708	-1.0971341071	-0.106698
C	-3.4078086357	 0.7465810323	-0.9047492312	 0.347858
C	-4.2222464038	 1.6159486988	-0.7452526405	-0.450258
H	-0.3529423363	 1.5526299229	 1.048578603	 0.286305
H	 0.4753816939	-0.0945780369	-1.0711515072	 0.113688
H	 0.6908185744	-0.5629831424	 0.6209070705	 0.089543
H	-1.3499916743	-1.259761374	 2.0560343175	 0.11661
H	-3.007799379	-0.6678407491	 1.5269733748	 0.132591
H	-1.4387468628	-2.906921995	 0.0170136938	 0.112625
H	-1.9694401629	-0.2226456444	-2.095389812	 0.113276
H	-4.9417664459	 2.3854598584	-0.6096192848	 0.20394
70.412	93.6529	135.491	207.1262	276.9576	308.5962	355.1096	395.9317	441.5047	518.617	551.8628	629.7618	671.2827	722.0169	748.6302	863.859	916.962	921.1948	941.3436	999.5102	1003.6203	1034.6027	1038.4206	1059.8212	1081.8702	1109.3761	1185.2168	1223.0643	1258.7555	1292.2167	1350.7704	1363.5232	1401.6366	1430.8555	1479.9491	1503.0545	2236.6818	2969.7548	3029.5367	3061.3361	3116.5115	3186.6965	3209.2596	3501.331	3808.3918
OCC12CC1OC2C#C	OC[C@]12C[C@H]1O[C@H]2C#C	
InChI=1S/C7H8O2/c1-2-5-7(4-8)3-6(7)9-5/h1,5-6,8H,3-4H2	InChI=1S/C7H8O2/c1-2-5-7(4-8)3-6(7)9-5/h1,5-6,8H,3-4H2/t5-,6+,7-/m0/s1
