19
gdb 77747	1.91213	1.53503	1.38202	3.8882	76.79	-0.2318	-0.0081	0.2237	1103.9666	0.156728	-423.016578	-423.007124	-423.00618	-423.050368	35.21	
C	 0.1461444702	 1.6082994903	-0.3865493583	-0.421028
C	 0.2402190912	 0.1149832271	-0.1322654419	-0.091902
C	 1.4913365497	-0.7340167856	-0.4133599856	-0.298227
C	 2.6965758266	-0.0400411431	 0.1392106403	 0.413083
O	 3.7721351973	 0.2515757812	-0.3079232719	-0.328695
C	 2.1205469808	 0.0166074044	 1.5802134132	-0.153396
C	 2.131348777	 1.276375048	 2.4370935807	-0.434437
C	 0.8374854394	-0.6052432927	 1.0202364584	 0.398813
O	 0.1770273908	-1.5364397853	 1.7890333872	-0.456302
H	 1.0850181786	 2.1220047059	-0.1713824336	 0.140772
H	-0.0911862816	 1.7927860137	-1.4396160139	 0.12541
H	-0.6426239216	 2.0666421893	 0.2201070639	 0.120755
H	-0.6393123107	-0.4222468997	-0.497312787	 0.086389
H	 1.4801283694	-1.5167823414	-1.1625232618	 0.108159
H	 2.6483599374	-0.7872301399	 2.1132143281	 0.117421
H	 1.567104998	 2.0954809932	 1.9858833404	 0.120663
H	 1.7020149633	 1.0769694439	 3.4240331891	 0.126088
H	 3.1616044542	 1.6166533408	 2.581450409	 0.135837
H	-0.72313574	-1.63743683	 1.4636288037	 0.290596
103.7898	150.8378	156.0702	183.1415	221.2891	224.2818	259.5672	314.8884	329.9632	426.8136	504.7319	574.1502	599.1226	666.6141	701.257	725.3206	796.3277	887.4356	899.916	941.5796	988.0804	1063.0756	1085.0399	1092.5008	1107.8193	1134.1278	1145.2987	1176.5784	1208.0382	1236.5102	1319.6835	1356.1044	1400.7672	1410.7735	1421.4889	1470.9938	1490.0886	1494.2655	1501.6044	1508.6918	1872.0314	3017.7199	3035.8299	3044.8246	3071.24	3095.6753	3107.3161	3126.4377	3135.2163	3189.5313	3821.3355
CC1C2C(=O)C(C)C12O	C[C@H]1[C@H]2C(=O)[C@@H](C)[C@@]12O	
InChI=1S/C7H10O2/c1-3-5-6(8)4(2)7(3,5)9/h3-5,9H,1-2H3	InChI=1S/C7H10O2/c1-3-5-6(8)4(2)7(3,5)9/h3-5,9H,1-2H3/t3-,4+,5-,7-/m0/s1
