19
gdb 120363	3.15257	1.01362	0.80828	1.9386	78.28	-0.243	-0.0199	0.2232	1431.4973	0.158043	-423.044102	-423.034961	-423.034017	-423.079048	32.683	
C	 0.0320195925	 1.420902151	 0.0865898254	-0.229662
O	 0.0066676706	 0.0138532313	 0.0284198966	-0.238759
C	 0.6608579528	-0.4983509459	-1.1116560787	-0.057727
C	 0.5483930168	-2.0229761477	-1.0764510363	-0.17383
C	-0.8397478446	-2.5800083178	-1.255035942	-0.067013
C	-0.9154528871	-3.4705368809	-2.2457565617	-0.081751
C	 0.4063742503	-3.6869191851	-2.9327488158	-0.369412
C	 1.3316592495	-2.682628541	-2.2288519148	 0.384604
O	 2.4672084697	-2.4272938064	-2.534999116	-0.312736
H	 1.0618815404	 1.8091901212	 0.1222500856	 0.107867
H	-0.4750817113	 1.8746290571	-0.7796016454	 0.105566
H	-0.4905387024	 1.7198651324	 0.9984132855	 0.127791
H	 0.1995818287	-0.102540723	-2.0326128192	 0.087254
H	 1.7242817917	-0.2132365121	-1.1237402077	 0.109599
H	 0.9922372416	-2.3491362981	-0.1240677745	 0.118125
H	-1.6631704246	-2.2671058904	-0.6250158498	 0.112933
H	-1.8161531537	-3.9967399952	-2.5402878095	 0.101994
H	 0.8020488334	-4.7046773346	-2.8116304737	 0.13797
H	 0.3917882956	-3.4952036449	-4.012874108	 0.13719
54.8738	86.3474	98.5876	131.2293	220.624	259.6934	291.8863	363.9973	451.1398	528.3755	584.9347	632.1189	728.4321	762.403	805.6243	900.6593	925.3957	971.4056	989.4107	1003.0717	1072.468	1091.2902	1128.9251	1146.1804	1153.0108	1165.7603	1183.821	1221.5935	1241.6116	1254.8617	1282.7975	1323.3457	1380.4056	1409.0527	1442.5066	1479.4032	1484.4596	1503.6164	1528.6202	1677.8605	1845.8584	2956.0617	2973.8503	2999.0422	3011.7455	3017.6322	3023.2646	3055.2654	3115.2585	3193.0066	3220.1451
COCC1C=CCC1=O	COC[C@H]1C=CCC1=O	
InChI=1S/C7H10O2/c1-9-5-6-3-2-4-7(6)8/h2-3,6H,4-5H2,1H3	InChI=1S/C7H10O2/c1-9-5-6-3-2-4-7(6)8/h2-3,6H,4-5H2,1H3/t6-/m1/s1
