19
gdb 31563	3.30051	1.09461	0.83179	1.261	81.65	-0.1569	0.0698	0.2267	1391.0135	0.158769	-419.23094	-419.220879	-419.219935	-419.26578	36.163	
C	-0.5479235919	 0.5725248637	 0.4438904814	-0.242948
O	 0.5167173132	 0.882466806	-0.4369353073	-0.261641
C	 0.8057698759	-0.0816075774	-1.3397118348	 0.424965
C	 0.2908946151	-1.3325389751	-1.5868996384	-0.36992
C	 1.04606234	-1.8663982745	-2.6850834957	 0.177502
N	 0.7703784192	-3.1094267889	-3.2987069244	-0.609717
C	 1.9876155468	-0.9364119247	-3.0606972568	 0.242447
C	 3.0185697161	-0.9416498776	-4.1368666501	-0.510339
N	 1.8102100109	 0.1693101007	-2.2231331459	-0.395557
H	-1.4806446455	 0.4012108832	-0.1086034854	 0.126393
H	-0.3201369975	-0.3203895322	 1.0402550027	 0.123799
H	-0.6662678179	 1.4328433653	 1.1043040702	 0.131593
H	-0.5292562803	-1.8118922643	-1.0784389846	 0.085268
H	 0.6569821016	-3.8473685949	-2.6126240915	 0.23463
H	 1.5052684005	-3.3874489863	-3.9381157122	 0.229264
H	 3.178738458	-1.9591984316	-4.5075114174	 0.119621
H	 2.7478483567	-0.3247617014	-5.0056735803	 0.123778
H	 3.9907773157	-0.5817432206	-3.7748613677	 0.11683
H	 2.3621866034	 1.0084470508	-2.2241421118	 0.254033
75.0398	114.6976	161.6456	174.712	195.4354	211.444	236.2754	258.0064	266.6936	375.909	407.6619	515.1423	621.455	636.8435	648.6551	666.4415	717.377	781.5999	822.0776	988.0293	1017.1357	1057.2869	1065.0941	1099.283	1183.5353	1185.8066	1221.7919	1240.4734	1254.9693	1337.9044	1419.4779	1467.303	1474.8008	1482.7772	1483.3406	1496.6665	1504.0759	1514.3737	1599.5995	1644.5336	1674.131	2995.3318	3006.7219	3037.0856	3064.3779	3091.1717	3137.1969	3261.9644	3509.4761	3598.585	3689.9379
COC1=CC(N)=C(C)N1	COc1cc(N)c(C)[nH]1	
InChI=1S/C6H10N2O/c1-4-5(7)3-6(8-4)9-2/h3,8H,7H2,1-2H3	InChI=1S/C6H10N2O/c1-4-5(7)3-6(8-4)9-2/h3,8H,7H2,1-2H3
