15
gdb 43214	2.38199	1.68275	1.21204	3.4837	71.73	-0.2371	-0.043	0.1942	1023.3884	0.111133	-420.55998	-420.552145	-420.551201	-420.592776	29.114	
O	-0.028074939	 0.0497722794	-0.5207225806	-0.271641
C	-0.0535337231	 1.1893424163	-0.1811344754	 0.402654
C	-1.1643452193	 2.1973487185	 0.1933016288	-0.011779
O	-1.4672603093	 2.0516616473	 1.5962259644	-0.281795
C	-0.5453640422	 3.1164199348	 1.9567326301	-0.083204
C	-0.0686576158	 3.2648783364	 0.5065422391	-0.107306
C	 1.061430934	 2.2682914593	 0.0807119591	-0.319541
C	 2.1489243101	 1.9686390361	 0.9806729172	 0.328912
C	 3.030966827	 1.7027197423	 1.7536199343	-0.44212
H	-2.0482568242	 2.3093729453	-0.4391292519	 0.100741
H	-1.0903204526	 3.984340495	 2.3451449886	 0.112277
H	 0.2038955865	 2.7924428091	 2.6857743936	 0.129999
H	-0.0314780682	 4.2568826376	 0.0638708537	 0.097885
H	 1.4468394848	 2.5587150536	-0.9065207475	 0.1401
H	 3.8170052712	 1.4637159091	 2.4266902264	 0.204818
68.7681	124.0421	157.6834	211.9906	336.0292	363.4839	492.9089	519.1162	598.8736	616.3285	641.1311	655.7571	779.623	826.6554	844.8761	915.6605	967.8635	988.1896	1014.9488	1043.5296	1054.9287	1095.1161	1136.4768	1168.378	1190.4527	1207.5706	1265.1911	1290.1231	1307.3331	1358.0761	1517.5547	1909.0151	2233.7748	3020.4365	3032.5742	3087.8321	3089.3639	3148.3627	3501.8581
O=C1C2OCC2C1C#C	O=C1[C@H]2OC[C@H]2[C@H]1C#C	
InChI=1S/C7H6O2/c1-2-4-5-3-9-7(5)6(4)8/h1,4-5,7H,3H2	InChI=1S/C7H6O2/c1-2-4-5-3-9-7(5)6(4)8/h1,4-5,7H,3H2/t4-,5+,7+/m1/s1
