18
gdb 51217	4.53384	1.06878	1.02718	3.3099	77.96	-0.251	0.0212	0.2722	1208.3226	0.148226	-401.88776	-401.880158	-401.879214	-401.920352	29.453	
N	-0.1630976537	 1.2338081937	 0.0562203578	-0.439098
C	-0.1466056169	-0.0131562238	 0.2384412814	 0.102751
O	-1.0778162908	-0.7914862018	-0.3658530365	-0.231452
C	-0.9375312673	-2.16281642	-0.2018842554	 0.432718
C	-0.1274082604	-3.1114389752	-1.0742101567	-0.296797
C	-0.9814542141	-4.2310250572	-0.4058726567	-0.067363
C	-0.5333984405	-4.2258429852	 1.0845989925	-0.227911
C	-1.1844117713	-2.8478030513	 1.1592618926	-0.131215
C	-2.0665599721	-3.1336864578	-0.0426153695	-0.149117
H	 0.5882916483	 1.670874118	 0.5860649042	 0.230451
H	 0.5529525959	-0.5842018125	 0.8614508538	 0.093544
H	-0.3840867698	-2.982938734	-2.1289756335	 0.113157
H	 0.9610870568	-3.1603212502	-0.9540344437	 0.091459
H	-1.1727600076	-5.1610253482	-0.9349120128	 0.080662
H	-1.0862519098	-4.9595952826	 1.6777096015	 0.105697
H	 0.5396993575	-4.3210235333	 1.2882279621	 0.090009
H	-1.4370304753	-2.2528094369	 2.0278709623	 0.096105
H	-3.1291165288	-3.0373856416	-0.2061087535	 0.106399
71.0515	111.7557	142.0618	348.7922	359.1772	415.901	438.1178	499.8044	700.5984	727.6186	766.9719	799.179	825.2795	836.7773	886.7647	919.1557	954.9783	960.4871	996.9362	1002.8885	1017.8715	1050.212	1052.0008	1077.92	1114.554	1128.4724	1149.8931	1173.8381	1199.2944	1225.3993	1262.2186	1276.7338	1284.5428	1314.5319	1399.4403	1413.4717	1493.4959	1508.5842	1746.5563	3028.8117	3036.2808	3044.7659	3095.013	3105.6054	3148.8952	3196.8876	3237.0508	3517.0268
N=COC12CC3CC1C23	[NH][CH]O[C@@]12C[C@H]3C[C@@H]1[C@@H]23	
InChI=1S/C7H9NO/c8-3-9-7-2-4-1-5(7)6(4)7/h3-6,8H,1-2H2	InChI=1S/C7H9NO/c8-3-9-7-2-4-1-5(7)6(4)7/h3-6,8H,1-2H2/t4-,5-,6+,7+/m1/s1
