17
gdb 7912	3.37717	1.73103	1.22876	5.968	73.54	-0.2143	-0.0077	0.2065	979.5031	0.142963	-363.917646	-363.909669	-363.908725	-363.949959	30.214	
C	-0.0691258886	 1.545758165	 0.049896742	-0.401551
C	 0.0288940598	 0.0115706548	 0.0125899772	-0.075129
C	 0.8113522693	-0.5269058852	-1.2026758439	-0.346876
C	 1.9779533559	-1.3548763258	-0.6243789746	 0.397504
O	 2.8129021313	-1.9283513608	-1.2941314241	-0.367277
C	 1.866680771	-1.3008637346	 0.8253019909	-0.339697
C	 0.7918143328	-0.5616955772	 1.198053575	 0.401661
N	 0.3319608962	-0.3386887399	 2.4570653901	-0.579325
H	 0.928318638	 1.9975192702	 0.0485789401	 0.129919
H	-0.6088214587	 1.912048331	-0.8282565672	 0.128732
H	-0.6037729455	 1.9112663218	 0.9339231621	 0.102825
H	-0.9903538838	-0.3964320036	 0.0311995802	 0.092835
H	 0.2017515788	-1.1601834497	-1.8534369545	 0.12409
H	 1.213134459	 0.2764926961	-1.828390038	 0.120916
H	 2.5589206829	-1.8028605788	 1.4892403798	 0.087465
H	 0.9115375254	-0.5782752015	 3.244436236	 0.264242
H	-0.3361443337	 0.3961312484	 2.6151742287	 0.259666
59.6987	161.2691	242.3357	266.915	311.3483	342.6591	355.6708	474.9131	515.9496	563.419	594.1369	607.0456	673.6509	782.6671	853.6529	856.5381	916.2952	936.367	1040.1513	1072.0759	1077.9217	1122.7557	1195.2405	1211.4691	1247.8125	1285.3697	1313.4891	1339.7858	1395.897	1417.047	1466.1735	1495.9303	1500.3163	1635.5435	1679.9515	1796.3464	3016.0748	3029.6892	3058.9971	3093.2112	3101.3885	3112.7491	3212.153	3604.5214	3716.7475
CC1CC(=O)C=C1N	C[C@H]1CC(=O)C=C1N	
InChI=1S/C6H9NO/c1-4-2-5(8)3-6(4)7/h3-4H,2,7H2,1H3	InChI=1S/C6H9NO/c1-4-2-5(8)3-6(4)7/h3-4H,2,7H2,1H3/t4-/m0/s1
