21
gdb 75521	2.01544	1.6725	1.03862	2.6538	85.11	-0.2227	-0.0106	0.212	1217.1713	0.183428	-387.131474	-387.122667	-387.121723	-387.164915	33.864	
C	-0.0826593616	 1.498892343	 0.0863378028	-0.479398
C	-0.0386548752	-0.0018402759	 0.0092445016	 0.323237
C	-0.0341085837	-0.6678248029	-1.1483753702	-0.146472
C	 0.0720342133	-2.1695793976	-1.2843724893	-0.25387
C	 1.4088951663	-2.7465852578	-0.7752449107	-0.189634
C	 1.5651970756	-2.7665024803	 0.7610445615	-0.287536
C	 1.4173885967	-1.4180041917	 1.4543089288	 0.394314
O	 2.3283591577	-0.9049159607	 2.0622922474	-0.308944
C	 0.0529989815	-0.7352402039	 1.3417498807	-0.38943
H	 0.8000826973	 1.8850135373	 0.611436235	 0.139946
H	-0.1194413109	 1.954274953	-0.906830096	 0.119906
H	-0.9573211573	 1.8401678751	 0.6549668266	 0.124148
H	-0.0851066216	-0.0962015219	-2.072287768	 0.081966
H	-0.7547405673	-2.6638918533	-0.7516263458	 0.102131
H	-0.0459585054	-2.4412561583	-2.3377923242	 0.101788
H	 1.5140831518	-3.7788557214	-1.1297651503	 0.100038
H	 2.2351271165	-2.1771357328	-1.2157981731	 0.112355
H	 0.8003129982	-3.4365850221	 1.1793461423	 0.108472
H	 2.5458705982	-3.16648038	 1.032130943	 0.117601
H	-0.0427290566	-0.0362537407	 2.1748557216	 0.117258
H	-0.7459953734	-1.482951797	 1.4193210362	 0.112123
88.1719	93.6501	185.1565	229.5219	267.7234	291.4546	357.9617	389.3013	442.958	477.5713	520.6649	592.7297	641.411	782.0945	803.6351	822.7437	865.3397	884.5602	948.4967	966.1332	985.0515	1013.4747	1060.2268	1077.7983	1092.5763	1125.3804	1182.6055	1193.7183	1215.774	1272.9934	1278.4855	1293.0595	1350.6078	1357.44	1363.4014	1386.6042	1411.4177	1469.063	1475.9122	1478.2042	1488.3485	1493.2624	1493.7744	1731.1903	1809.0276	2991.7085	3010.3386	3016.0585	3028.9194	3031.1121	3065.1397	3073.0277	3073.6434	3098.8676	3111.3771	3115.0515	3149.8683
CC1=CCCCC(=O)C1	CC1=CCCCC(=O)C1	
InChI=1S/C8H12O/c1-7-4-2-3-5-8(9)6-7/h4H,2-3,5-6H2,1H3	InChI=1S/C8H12O/c1-7-4-2-3-5-8(9)6-7/h4H,2-3,5-6H2,1H3
