21
gdb 63271	2.11128	1.59081	1.24719	2.978	83.54	-0.2341	-0.0162	0.2179	1139.3612	0.180207	-387.0996	-387.090152	-387.089207	-387.13378	36.116	
C	-0.3719525618	 1.5090076178	 0.1331587906	-0.443936
C	-0.0271624282	 0.0260459649	-0.0004223258	 0.227451
C	-1.2416593349	-0.790723087	-0.4406634337	-0.443921
C	 1.2595891319	-0.2442434332	-0.8674530977	-0.415741
C	 1.9458435383	-0.8169804906	 0.3846637783	 0.363013
O	 3.0290841125	-1.283299643	 0.6107460408	-0.322481
C	 0.731469741	-0.5660186205	 1.2224624972	 0.210143
C	 0.7642587858	-0.1183268045	 2.6681556367	-0.314074
C	 0.2489110604	-1.4794538738	 2.3289192236	-0.314085
H	 0.4972655232	 2.0946209522	 0.4493748534	 0.116692
H	-0.7236078278	 1.9147564902	-0.8220064565	 0.116041
H	-1.16711431	 1.667345389	 0.870753651	 0.112321
H	-1.6150463906	-0.4420006131	-1.409998381	 0.116042
H	-0.9956775607	-1.8532233058	-0.5358582474	 0.116692
H	-2.0628967014	-0.7016784626	 0.2797794154	 0.112328
H	 1.1365368756	-0.9704206778	-1.6766032647	 0.125685
H	 1.7486438283	 0.646911496	-1.2722747149	 0.125716
H	 1.7443536565	-0.0347147425	 3.126157694	 0.134503
H	 0.0506437944	 0.6430468085	 2.9652415025	 0.121562
H	-0.8197632775	-1.6558520213	 2.3922836889	 0.121548
H	 0.8716715749	-2.3396167828	 2.5517038195	 0.1345
38.0165	161.5226	196.8498	197.7658	227.7502	253.0088	306.573	330.7944	332.0241	438.7579	527.3724	528.934	589.3296	619.1032	753.661	802.2308	821.6065	851.1484	916.9677	942.6242	956.881	963.3418	998.3895	1027.1226	1038.0686	1066.8656	1074.5794	1100.0087	1178.3044	1197.3071	1198.9972	1207.2493	1265.8857	1296.7657	1353.7943	1403.8266	1419.9653	1443.0367	1455.4948	1480.8183	1484.8347	1489.3783	1503.0819	1505.7378	1874.1461	3021.6556	3026.2772	3055.062	3085.497	3090.449	3097.6458	3100.4151	3108.856	3128.6622	3130.0169	3211.1187	3225.9578
CC1(C)CC(=O)C11CC1	CC1(C)CC(=O)C21CC2	
InChI=1S/C8H12O/c1-7(2)5-6(9)8(7)3-4-8/h3-5H2,1-2H3	InChI=1S/C8H12O/c1-7(2)5-6(9)8(7)3-4-8/h3-5H2,1-2H3
