15
gdb 56473	2.72929	1.05311	0.83413	1.4006	70.45	-0.2601	-0.0338	0.2263	1353.6861	0.110002	-453.923569	-453.913793	-453.912849	-453.959498	33.48	
N	-0.0756878035	 1.4944599386	 0.1502405541	-0.489519
C	 0.0367317709	 0.0543774309	-0.0332375161	-0.25712
C	-1.2695435732	-0.5959951952	 0.0762662532	 0.354101
C	-2.3485486707	-1.1198512259	 0.1272644276	-0.453199
C	 0.6696205267	-0.3488393752	-1.3832192722	 0.441497
O	 0.8377936373	 0.394373772	-2.3086111699	-0.33749
O	 1.0303967985	-1.6647994161	-1.3599048687	-0.196605
C	 1.5619791745	-2.214137621	-2.5058182919	 0.120019
N	 1.9371063557	-3.411784092	-2.4595089754	-0.412785
H	 0.8419876103	 1.9154187257	 0.0317326038	 0.239414
H	-0.6547105538	 1.8766658849	-0.5925074849	 0.245644
H	 0.6935662148	-0.3500564756	 0.7483735056	 0.147056
H	-3.3000645912	-1.5877616104	 0.1912029515	 0.209658
H	 1.5879286285	-1.5114502201	-3.3386351547	 0.145959
H	 2.3015323353	-3.6960636406	-3.3678140417	 0.243371
33.5328	84.8687	107.5545	143.6896	177.2566	184.7653	249.7902	311.6519	375.5699	414.9204	522.7901	577.2469	633.9339	665.1378	669.0439	798.4424	853.8316	891.9929	916.955	969.0937	1006.8325	1070.4218	1143.7642	1170.3998	1222.185	1258.4414	1302.3396	1389.4043	1394.7772	1663.7409	1748.5808	1843.6132	2244.8579	3030.0887	3140.8321	3492.1111	3503.2265	3508.0167	3569.6348
NC(C#C)C(=O)OC=N	N[C@@H](C#C)C(=O)O[CH][NH]	
InChI=1S/C5H6N2O2/c1-2-4(7)5(8)9-3-6/h1,3-4,6H,7H2	InChI=1S/C5H6N2O2/c1-2-4(7)5(8)9-3-6/h1,3-4,6H,7H2/t4-/m0/s1
