18
gdb 78960	2.5107	2.07651	1.54298	2.7431	72.86	-0.2281	0.0622	0.2904	917.5658	0.147902	-401.860442	-401.853052	-401.852108	-401.891839	29.75	
C	-0.0752484937	 1.6424502855	-0.0180406186	-0.430643
C	 0.0129117029	 0.1259264308	 0.0049978996	-0.04331
C	 1.0650089023	-0.6264932398	-0.8551838393	-0.098675
C	 2.4620333566	-0.2540009572	-0.3097213146	-0.038403
C	 2.2072819218	-0.2417748716	 1.1555736098	-0.141025
N	 2.6549601721	-1.5120122283	 0.4910381015	-0.175646
C	 1.1616944017	-1.7516377389	 0.2266312147	-0.038769
C	 0.7011028906	-0.6190661103	 1.188408495	 0.382205
O	 0.0745297353	-0.8967314528	 2.3938476486	-0.482258
H	 0.9103730369	 2.0949479987	 0.1363987078	 0.118665
H	-0.4633660533	 2.0062840384	-0.9753275703	 0.120545
H	-0.7437608202	 2.0134063362	 0.7675116406	 0.112779
H	-0.9705929488	-0.3344852089	-0.1533289628	 0.079641
H	 0.9377876257	-0.806329761	-1.9198888993	 0.075629
H	 3.2903606338	 0.2403217325	-0.8029869563	 0.095815
H	 2.8115937641	 0.2614871623	 1.9014497952	 0.092782
H	 0.75078401	-2.7562950022	 0.1702772248	 0.087612
H	 0.0679399222	-0.0963858134	 2.9306671037	 0.283055
174.8598	192.4446	205.9542	221.8092	323.2679	351.8454	548.4422	593.7621	608.5672	694.5049	775.1159	790.2654	809.14	835.769	853.6069	891.915	910.5979	950.1431	962.5854	976.5255	1009.1448	1034.484	1058.2343	1094.014	1128.2858	1135.6005	1150.5748	1183.6387	1195.1968	1212.8594	1236.4564	1267.4705	1320.4024	1327.6214	1373.464	1407.8333	1408.97	1496.639	1498.5796	3026.1057	3036.7126	3089.2877	3098.2414	3143.5777	3156.1731	3175.6921	3188.0494	3796.8519
CC1C2C3C4N3C2C14O	C[C@H]1[C@H]2[C@H]3[C@@H]4N3[C@H]2[C@]14O	
InChI=1S/C7H9NO/c1-2-3-4-6-7(2,9)5(3)8(4)6/h2-6,9H,1H3	InChI=1S/C7H9NO/c1-2-3-4-6-7(2,9)5(3)8(4)6/h2-6,9H,1H3/t2-,3-,4-,5+,6-,7+,8?/m0/s1
