13
gdb 21342	6.14683	1.36451	1.18692	2.4712	64.03	-0.259	-0.001	0.2579	951.3275	0.097762	-357.66729	-357.660516	-357.659571	-357.699919	23.795	
N	-0.4017407823	-0.736448953	-1.0350056933	-0.294623
C	-0.1517212715	 0.1765517974	-0.3740638075	 0.267059
C	 0.1402839862	 1.3545325308	 0.4488989315	-0.264617
N	 1.4534306954	 1.9061455697	 0.1855293976	 0.042006
C	 2.0262153663	 2.2059968086	-1.0100363168	-0.022572
C	 3.2415800625	 2.7877994564	-0.725322611	-0.225436
C	 3.3077428926	 2.7993508694	 0.684185016	 0.002674
N	 2.2224019295	 2.2665922943	 1.2362943974	-0.257778
H	-0.6447360738	 2.1026190106	 0.2817335804	 0.173398
H	 0.1235159315	 1.0838866191	 1.5071778465	 0.191406
H	 1.5385929451	 1.9706812982	-1.9427623245	 0.151609
H	 3.9743104279	 3.1415396751	-1.4318904064	 0.115116
H	 4.1004062105	 3.1684333633	 1.3180889102	 0.121759
18.9766	109.5861	233.1083	345.5114	369.9406	493.5982	619.6109	664.9122	766.3563	773.5519	841.8878	898.8466	926.7076	949.021	976.5012	988.9638	1072.8473	1107.6148	1194.5089	1240.8998	1315.6149	1365.0716	1380.2059	1428.9488	1461.2898	1488.0835	1561.4646	2372.1177	3036.5817	3117.4707	3248.501	3262.3873	3281.8071
N#CCN1C=CC=N1	N#CCn1cccn1	
InChI=1S/C5H5N3/c6-2-5-8-4-1-3-7-8/h1,3-4H,5H2	InChI=1S/C5H5N3/c6-2-5-8-4-1-3-7-8/h1,3-4H,5H2
