23
gdb 84872	2.11975	1.47008	0.9546	0.2037	94.76	-0.2243	0.0261	0.2505	1334.299	0.206605	-351.173637	-351.164233	-351.163289	-351.208227	36.115	
C	-0.8755237506	 1.2232994925	 0.1146072404	-0.377704
C	 0.0387338223	-0.0160810078	-0.0741627627	-0.084542
C	 0.6820330378	 0.0619576564	-1.4346368879	-0.041194
C	 1.943570492	 0.3083672758	-1.7818730925	-0.077043
C	 3.1253314318	 0.5072862782	-0.8694551252	-0.249622
C	 3.2430117824	-0.5230163868	 0.2646528833	-0.285627
C	 2.18506023	-0.4460922636	 1.3458584265	 0.273075
C	 2.7165328698	-0.6817978651	 2.7403778293	-0.469343
C	 0.8812835609	-0.2201871945	 1.1608057514	-0.110985
H	-0.2761588514	 2.1373514629	 0.1642803482	 0.121883
H	-1.5783514856	 1.3215928688	-0.7187269627	 0.110271
H	-1.4556347376	 1.1426779607	 1.0398233069	 0.110496
H	-0.6465792506	-0.8807459714	-0.1070623414	 0.089429
H	-0.0401827753	-0.0475980499	-2.2436192129	 0.079754
H	 2.1587229096	 0.3721622325	-2.8468685386	 0.079974
H	 4.0418666098	 0.4660538219	-1.4688193739	 0.094716
H	 3.1005142173	 1.5142436975	-0.4309443784	 0.110505
H	 3.2490034679	-1.5317652508	-0.1709192663	 0.111599
H	 4.2248664387	-0.4000883113	 0.7379358923	 0.09183
H	 3.4613718395	 0.0779934318	 3.0123576035	 0.118783
H	 1.9228139529	-0.6668155298	 3.4917463475	 0.1151
H	 3.2288320496	-1.6509582194	 2.8065829776	 0.119736
H	 0.2670458986	-0.2092088685	 2.0623919457	 0.068907
28.0578	142.5983	162.1997	222.8543	243.1186	258.8325	326.1583	350.4085	352.622	436.2506	502.2778	524.7358	640.0013	675.7537	750.8143	817.0237	820.5427	868.7437	887.0357	941.7172	984.2891	993.0065	1010.0971	1019.773	1059.2664	1067.1315	1079.1415	1080.8646	1154.1673	1183.5183	1197.7671	1269.1856	1294.6846	1296.2751	1345.852	1370.72	1380.9988	1398.2948	1410.9046	1421.6696	1439.7325	1476.3112	1481.5105	1484.8575	1492.4324	1495.4441	1499.0219	1740.9484	1749.6913	2947.2761	3006.9573	3010.4251	3014.5605	3031.5309	3047.5607	3053.2979	3056.1019	3100.7917	3104.7614	3111.1514	3112.9204	3116.4152	3145.9807
CC1C=CCCC(C)=C1	C[C@H]1C=CCCC(=C1)C	
InChI=1S/C9H14/c1-8-5-3-4-6-9(2)7-8/h3,5,7-8H,4,6H2,1-2H3	InChI=1S/C9H14/c1-8-5-3-4-6-9(2)7-8/h3,5,7-8H,4,6H2,1-2H3/t8-/m0/s1
