13
gdb 125478	5.43824	1.32445	1.07216	4.4192	66.77	-0.2567	-0.0452	0.2115	1038.0489	0.090658	-452.739862	-452.733232	-452.732288	-452.771098	24.901	
C	-0.0079414794	 1.4572355435	 0.066962844	-0.494161
C	-0.0174468858	-0.019204119	-0.0643686669	 0.366831
N	-0.160710553	-0.719661123	-1.1420705462	-0.36381
C	-0.0905220652	-2.0315517322	-0.6826374519	 0.381587
N	-0.1523549661	-3.2402721812	-1.18643266	-0.246578
O	 0.0065446064	-4.0556444006	-0.0535024404	-0.173155
C	 0.1566988976	-3.3180718142	 1.0809919225	-0.076862
C	 0.0998299549	-2.0212692304	 0.7135966853	 0.198249
O	 0.1493658282	-0.7250126202	 1.1282422145	-0.246833
H	 0.9390247109	 1.7964024922	 0.4986383408	 0.160214
H	-0.1429804156	 1.9058808231	-0.9164674671	 0.169629
H	-0.8104660069	 1.7868135728	 0.7344054844	 0.160244
H	 0.284221914	-3.8731745709	 1.9942415012	 0.164645
106.8483	154.2831	292.8464	346.7338	373.4835	541.8501	575.0715	585.3027	658.8862	762.056	780.4277	790.8955	827.6845	882.2638	898.3173	982.1959	1030.9547	1064.2727	1085.2593	1175.142	1267.5691	1287.1346	1407.817	1445.7524	1469.9154	1470.8668	1561.3288	1650.8478	1699.0977	3051.1796	3108.8727	3169.6847	3289.5232
CC1=NC2=NOC=C2O1	Cc1nc2nocc2o1	
InChI=1S/C5H4N2O2/c1-3-6-5-4(9-3)2-8-7-5/h2H,1H3	InChI=1S/C5H4N2O2/c1-3-6-5-4(9-3)2-8-7-5/h2H,1H3
