18
gdb 36187	3.83594	1.1193	1.10554	4.1771	79.22	-0.2618	0.0355	0.2973	1160.3141	0.14908	-364.778719	-364.771205	-364.77026	-364.811224	29.303	
N	-0.1641270886	-1.0593828237	-0.436197024	-0.309562
C	-0.0699772267	 0.0535532485	-0.1403553069	 0.266194
C	 0.0715458229	 1.4633000964	 0.2382490338	-0.471091
C	 1.4948100512	 1.9502216505	 0.1335344638	 0.367707
C	 2.6724795012	 1.5889994236	 1.0365016313	-0.281777
C	 3.395194138	 2.8046458109	 0.3928870042	-0.064802
C	 3.6021680795	 2.3755290586	-1.08711887	-0.228861
C	 2.0817562428	 2.4394149035	-1.203426839	-0.096446
C	 1.9738203492	 3.3744872065	-0.0193119063	-0.146574
H	-0.5832197941	 2.0614504224	-0.4070460402	 0.151139
H	-0.3050101293	 1.5827915956	 1.2618551351	 0.151365
H	 2.4294527023	 1.7705538873	 2.0880802105	 0.098095
H	 3.141219383	 0.6043878934	 0.9295023503	 0.103624
H	 4.1681623123	 3.343230342	 0.9359470762	 0.076379
H	 4.0753220209	 3.1659401435	-1.6760035854	 0.103427
H	 4.1107660696	 1.4223171198	-1.2697603429	 0.097398
H	 1.4746537967	 2.4339393622	-2.1003974254	 0.0905
H	 1.4755960692	 4.3239852087	 0.1149218151	 0.093286
59.3515	99.667	267.0163	284.1674	392.0646	425.7269	438.6956	461.5967	679.5613	718.1351	757.0652	802.5454	826.3919	869.7127	893.1515	930.1281	935.8945	953.4049	969.9881	996.7771	1008.966	1024.892	1077.4997	1103.6845	1131.6048	1145.4751	1173.7084	1190.9375	1217.4795	1251.2947	1263.7499	1279.682	1329.537	1330.3975	1410.9303	1457.7381	1493.2201	1508.7824	2361.9819	3029.7931	3033.8887	3039.9106	3066.9345	3091.5495	3100.0647	3143.8374	3190.4675	3219.3543
N#CCC12CC3CC1C23	N#CC[C@@]12C[C@H]3C[C@@H]1[C@@H]23	
InChI=1S/C8H9N/c9-2-1-8-4-5-3-6(8)7(5)8/h5-7H,1,3-4H2	InChI=1S/C8H9N/c9-2-1-8-4-5-3-6(8)7(5)8/h5-7H,1,3-4H2/t5-,6-,7+,8-/m1/s1
