22
gdb 121730	4.01957	0.60739	0.54865	3.5031	81.69	-0.2382	0.0391	0.2773	2071.3577	0.192667	-441.5231	-441.511924	-441.51098	-441.561417	38.707	
C	-0.008723517	 1.5467891458	 0.081266996	-0.385021
C	-0.0674196124	 0.0181987047	 0.085823574	-0.148947
C	 0.7751517888	-0.6075892966	 1.2027790727	-0.299042
C	 0.8409967918	-2.1290893916	 1.0903762086	 0.414512
O	 0.931244098	-2.6986955562	 0.0148440238	-0.384267
N	 0.8060497551	-2.7961647878	 2.2793932199	-0.318798
C	 0.9508260552	-4.2343067495	 2.3850808119	-0.145457
C	 2.0661358806	-4.6018384597	 3.3522554148	-0.079185
O	 1.7304268076	-4.0287272624	 4.612497992	-0.425311
H	 1.018275362	 1.9038857036	-0.0566319733	 0.112934
H	-0.6162779459	 1.9625268459	-0.7285288337	 0.114023
H	-0.3796475276	 1.9673918967	 1.023105258	 0.109677
H	-1.1078026779	-0.3134905086	 0.1908154091	 0.099117
H	 0.2850516769	-0.3848223524	-0.8680678884	 0.127542
H	 1.8068768078	-0.2362911035	 1.1311211431	 0.122485
H	 0.4031769335	-0.3043720097	 2.1890961496	 0.090861
H	 0.7723191541	-2.2819920876	 3.1445748488	 0.250745
H	 0.0139673717	-4.688766151	 2.7335846382	 0.113002
H	 1.1630854548	-4.612853768	 1.383152194	 0.145943
H	 2.1483435649	-5.6972460125	 3.4190168913	 0.09405
H	 3.0229780559	-4.2072136311	 2.9798939241	 0.098698
H	 2.4736401321	-4.1475241986	 5.2103818054	 0.292438
32.1279	47.2842	71.8135	80.9615	133.7545	183.0108	246.8406	265.4471	279.7974	303.7795	346.7411	422.4261	506.9411	526.7141	627.348	725.0644	756.6488	845.4967	877.7909	898.4963	920.6125	978.0776	1054.3441	1074.3078	1097.3815	1103.7403	1117.4655	1143.5296	1210.0633	1232.6993	1257.5296	1260.0736	1300.9068	1310.6466	1345.2316	1386.8664	1401.3912	1413.3258	1452.878	1466.3687	1486.4861	1493.0548	1499.6457	1509.9585	1514.4319	1534.8748	1769.5041	2983.3791	3011.9303	3015.1928	3026.5743	3032.351	3035.7616	3055.5278	3079.2916	3101.2532	3104.4677	3125.2975	3648.1685	3838.1239
CCCC(=O)NCCO	CCCC(=O)NCCO	
InChI=1S/C6H13NO2/c1-2-3-6(9)7-4-5-8/h8H,2-5H2,1H3,(H,7,9)	InChI=1S/C6H13NO2/c1-2-3-6(9)7-4-5-8/h8H,2-5H2,1H3,(H,7,9)
