18
gdb 39164	3.14698	1.77689	1.29957	2.4336	77.47	-0.2227	0.0275	0.2502	981.8336	0.152406	-398.126887	-398.119982	-398.119038	-398.157997	27.996	
C	-0.0222164062	 1.4128541096	-0.0501821287	-0.162189
C	 1.4652015179	 1.9153951573	 0.0245682315	-0.363244
C	 2.2066796424	 0.7074388599	-0.5072362133	 0.308406
N	 3.1398249138	 0.6935988119	-1.6425411313	-0.376135
C	 3.5295266274	 0.0304504591	-0.3949895043	-0.11245
C	 3.2493467583	-1.4733305319	-0.2886378424	-0.201778
N	 1.8221050276	-1.5941794075	-0.6380380903	-0.389479
C	 1.1981069713	-0.3844451267	-0.4399369284	 0.3782
N	-0.004436229	-0.0643971497	-0.1679102076	-0.345339
H	-0.5910859987	 1.6965656288	 0.8407216723	 0.10512
H	-0.5478382457	 1.8460513941	-0.9110539641	 0.106369
H	 1.6516538742	 2.8089183303	-0.5738853872	 0.119208
H	 1.7422519616	 2.1351449977	 1.0601769857	 0.111152
H	 2.8526135355	 0.0136069419	-2.345698959	 0.236623
H	 4.395047679	 0.4377131524	 0.1166037178	 0.103987
H	 3.8720500929	-2.0670055866	-0.9690243887	 0.116205
H	 3.4521127749	-1.8131083423	 0.7372317748	 0.114164
H	 1.329180053	-2.4440511682	-0.4113861668	 0.251183
123.1986	229.1171	257.422	313.9573	415.7966	445.9314	517.685	614.332	643.6575	723.3544	735.4694	786.0949	826.1335	852.5389	866.2634	919.5584	942.5866	990.679	1013.1531	1046.385	1076.9321	1086.3853	1110.5475	1170.091	1183.5824	1194.1392	1232.5302	1241.2283	1281.3873	1303.5264	1306.9232	1333.1484	1387.9212	1424.9491	1449.6683	1482.227	1507.7634	1519.6608	1759.9697	3000.247	3022.3933	3046.8743	3056.291	3073.7173	3120.09	3171.3996	3462.6688	3629.1167
C1CC23NC2CNC3=N1	C1C[C@@]23N[C@@H]2CN[C]3[N]1	
InChI=1S/C6H9N3/c1-2-7-5-6(1)4(9-6)3-8-5/h4,9H,1-3H2,(H,7,8)	InChI=1S/C6H9N3/c1-2-7-5-6(1)4(9-6)3-8-5/h4,9H,1-3H2,(H,7,8)/t4-,6-/m1/s1
