16
gdb 25033	4.01623	1.12118	0.94172	4.5723	73.15	-0.2047	0.026	0.2307	1221.6414	0.125466	-437.931125	-437.923378	-437.922434	-437.963817	29.237	
O	 0.0910155787	 0.0293301961	-0.2040753076	-0.401053
C	-0.0162685916	 1.2192721803	-0.0882708496	 0.476329
N	-1.1135761902	 1.9918161786	 0.2014960613	-0.363154
C	-0.7599774027	 3.3456545219	 0.2354425192	-0.238432
C	 0.5533222169	 3.4046714273	-0.0328744011	 0.389274
O	 1.029635302	 2.1198083689	-0.2339166877	-0.25197
C	 1.5044029794	 4.5094964287	-0.1429412854	-0.106064
C	 2.9416887818	 4.341124262	 0.3137427828	-0.267502
C	 2.6363220718	 4.4578926996	-1.1523176226	-0.267493
H	-2.0212646371	 1.5935081032	 0.3603405614	 0.276515
H	-1.4684319115	 4.1275894983	 0.4447573395	 0.147657
H	 1.0466305994	 5.4777922099	 0.029530757	 0.094726
H	 3.4057157251	 5.1804838846	 0.8189319794	 0.118229
H	 3.225966125	 3.3659358058	 0.6908937334	 0.137367
H	 2.7166017393	 3.560702695	-1.7545271546	 0.137344
H	 2.8880280735	 5.3784340299	-1.6664281356	 0.118225
79.9549	134.2511	151.2193	212.607	358.4339	393.6282	454.5143	517.6441	616.9318	660.3788	715.5102	758.9634	765.9982	795.7176	821.8656	904.4273	907.0195	942.0248	972.2249	1055.2383	1066.6368	1088.1055	1091.0503	1122.243	1144.6869	1203.8912	1211.8753	1271.3286	1344.328	1401.4399	1410.4545	1464.4414	1498.5035	1717.2418	1898.5298	3141.9085	3144.9622	3168.2118	3227.1714	3241.75	3291.7709	3703.9441
O=C1NC=C(O1)C1CC1	O=c1[nH]cc(o1)C1CC1	
InChI=1S/C6H7NO2/c8-6-7-3-5(9-6)4-1-2-4/h3-4H,1-2H2,(H,7,8)	InChI=1S/C6H7NO2/c8-6-7-3-5(9-6)4-1-2-4/h3-4H,1-2H2,(H,7,8)
