20
gdb 22283	4.17584	0.79038	0.69167	1.7114	80.1	-0.241	0.0078	0.2488	1612.9043	0.168376	-440.233355	-440.223434	-440.22249	-440.268683	36.643	
C	 0.1318158666	 1.4389359828	-0.1911653852	-0.406794
C	-0.0228547833	-0.0693501734	 0.0053351711	 0.123857
O	 0.7496261698	-0.5339914448	 1.1098182293	-0.430642
C	-1.480710903	-0.4972791475	 0.1422011327	 0.017667
C	-2.3696748059	-0.431480914	-1.1486230802	-0.343668
C	-2.7332090195	-1.879600104	-0.8946565238	 0.420078
C	-1.7457918676	-2.0338274913	 0.2429292601	-0.339533
N	-3.6259283864	-2.5958292557	-1.4351376319	-0.231848
O	-3.6564135692	-3.8804312301	-0.8565258417	-0.394845
H	 1.1884084435	 1.7028074714	-0.2864822478	 0.12644
H	-0.3944579203	 1.7820498803	-1.0876688415	 0.122149
H	-0.28160433	 1.9848970843	 0.6664407964	 0.106213
H	 0.4088629311	-0.5894567529	-0.8605115484	 0.085801
H	 0.439267017	-0.0743584791	 1.8981493767	 0.275932
H	-1.9435846393	 0.0476385686	 0.9733288637	 0.065582
H	-3.1959216997	 0.2835197387	-1.1496863294	 0.121646
H	-1.7860346545	-0.2846176679	-2.0649608864	 0.119403
H	-0.871750371	-2.6435102345	-0.0086789688	 0.132832
H	-2.1619295333	-2.4127380319	 1.1795648813	 0.124391
H	-4.3719385049	-4.3030766991	-1.343193286	 0.305341
37.9171	82.8096	143.0473	216.7879	239.6215	257.2253	281.1186	308.1989	347.2345	368.9561	438.5758	471.4271	487.7177	558.3485	699.8678	773.4566	794.9317	888.9599	924.2619	960.5842	968.6323	987.6461	1028.9288	1041.3013	1077.8762	1115.7568	1140.1183	1183.0741	1200.7826	1214.8494	1252.716	1264.8057	1285.3401	1329.6355	1390.8251	1403.8107	1404.3778	1421.0305	1453.6214	1472.3277	1491.8563	1494.8059	1785.238	3018.2314	3024.4997	3038.7095	3041.5809	3057.229	3093.858	3101.9728	3107.0702	3119.6299	3795.8513	3819.4363
CC(O)C1CC(C1)=NO	C[C@@H](O)[C@H]1CC(=NO)C1	
InChI=1S/C6H11NO2/c1-4(8)5-2-6(3-5)7-9/h4-5,8-9H,2-3H2,1H3	InChI=1S/C6H11NO2/c1-4(8)5-2-6(3-5)7-9/h4-5,8-9H,2-3H2,1H3/t4-,5-/m1/s1
