15
gdb 125738	3.02167	1.46644	0.99952	6.3404	71.11	-0.2683	-0.0973	0.171	1131.2289	0.110886	-453.959165	-453.950901	-453.949957	-453.9925	30.031	
C	-0.0373957525	 1.5437709337	-0.0067183	-0.484587
C	-0.011494758	 0.0423539648	-0.0000334097	 0.313938
N	-0.0383243682	-0.5360048823	-1.1532244054	-0.094121
O	-0.0155407448	-1.9089392968	-1.174225769	-0.246137
C	 0.034885178	-2.6887521738	-0.0090524643	 0.469498
O	 0.0508873364	-3.8738876589	-0.1492471879	-0.318779
N	 0.0626654441	-2.0302771833	 1.216548509	-0.356157
C	 0.0412334636	-0.7400017521	 1.2356568696	 0.283767
C	 0.0715120565	-0.0418312146	 2.5628707168	-0.486933
H	 0.8537678017	 1.9569935352	 0.4775332061	 0.14518
H	-0.076073659	 1.9005889875	-1.0367691955	 0.162253
H	-0.9098133245	 1.9268150027	 0.5332786676	 0.145191
H	 0.1091371905	-0.7815174528	 3.3621539478	 0.165204
H	 0.9430840821	 0.6186526229	 2.6341804102	 0.150854
H	-0.8152660758	 0.5894027577	 2.6897916947	 0.150831
45.2565	149.3031	194.7406	219.1207	292.5153	313.0927	351.3386	396.3368	483.7232	543.7744	572.0036	662.7981	692.0938	770.5181	800.2167	849.3629	962.0457	1024.2152	1031.7111	1033.0713	1075.0959	1180.8831	1216.5121	1356.8075	1403.6302	1418.0928	1459.0073	1472.5183	1475.8554	1487.9827	1595.5501	1687.7337	1872.8575	3038.1422	3042.2446	3093.4739	3098.4751	3149.1461	3161.9599
CC1=NOC(=O)N=C1C	Cc1noc(=O)nc1C	
InChI=1S/C5H6N2O2/c1-3-4(2)7-9-5(8)6-3/h1-2H3	InChI=1S/C5H6N2O2/c1-3-4(2)7-9-5(8)6-3/h1-2H3
