15
gdb 44976	3.39007	1.31897	1.09827	3.4591	71.98	-0.272	0.0008	0.2728	1081.9489	0.113556	-416.822853	-416.81544	-416.814496	-416.855018	28.253	
N	-0.0902294132	 1.0556117996	-0.69801926	-0.521053
C	-0.0647433397	-0.0199588902	-0.0489301663	 0.388465
C	-1.2678034187	-0.891894453	 0.279131681	-0.313825
C	-0.6769848065	-2.1406821128	 0.8996216777	-0.113455
C	 0.3357671523	-2.9224727162	 0.0993648868	-0.332728
C	 0.8033140358	-1.8413344981	 1.0476161591	 0.284458
O	 1.0869000531	-0.5874058509	 0.4651637415	-0.264882
C	 1.5715303069	-2.1324964094	 2.2240140539	 0.240555
N	 2.1793249057	-2.3946922885	 3.1718639232	-0.334192
H	 0.8439803386	 1.4568690625	-0.7888215184	 0.235616
H	-1.915151807	-0.3657882469	 0.9869199019	 0.152555
H	-1.8531651673	-1.0775863123	-0.6245520788	 0.151949
H	-1.2072453757	-2.6459217321	 1.6962009922	 0.131203
H	 0.5150282083	-3.9506380274	 0.3909450713	 0.150065
H	 0.4576169875	-2.7098971642	-0.957946365	 0.14527
84.1238	144.4345	166.9491	323.8322	407.3461	428.045	500.8397	525.1509	552.5883	595.1437	667.1107	740.2494	838.635	846.4081	888.4532	898.6004	933.2616	961.7524	1023.5868	1062.5737	1064.5321	1086.4435	1098.99	1192.7973	1211.8095	1263.0449	1302.0654	1307.0842	1388.5511	1465.6235	1477.772	1792.2498	2360.5826	3069.7197	3112.0611	3137.3032	3203.6499	3235.3168	3486.5511
N=C1CC2CC2(O1)C#N	[NH][C]1C[C@H]2C[C@]2(O1)C#N	
InChI=1S/C6H6N2O/c7-3-6-2-4(6)1-5(8)9-6/h4,8H,1-2H2	InChI=1S/C6H6N2O/c7-3-6-2-4(6)1-5(8)9-6/h4,8H,1-2H2/t4-,6-/m0/s1
