17
gdb 95597	2.30961	1.69602	1.02091	5.7547	69.12	-0.2548	-0.0748	0.1799	1134.3085	0.135609	-459.015707	-459.007236	-459.006292	-459.049621	30.882	
C	 0.3092019682	 1.6279164984	 0.0082665381	-0.406286
C	 0.1890680948	 0.104094792	-0.0025049469	-0.097918
C	 0.8415066945	-0.578933879	-1.2124082288	-0.243123
C	 0.6121732885	-2.077813129	-1.1470872457	-0.074858
O	 1.1409326306	-2.6794629403	 0.0478881946	-0.224647
C	 1.1522138401	-2.0321910071	 1.2343054516	 0.336115
O	 1.5073722088	-2.5963932918	 2.2271033634	-0.286716
C	 0.7420663802	-0.5229508186	 1.2693034299	 0.261681
O	 0.8880206613	 0.0744603723	 2.3015809208	-0.263594
H	 1.3597622786	 1.9348408939	-0.0111152737	 0.129159
H	-0.1898511037	 2.0577158159	-0.8649170708	 0.11619
H	-0.139205953	 2.0440322935	 0.9120985372	 0.145897
H	-0.8799176854	-0.1698467356	-0.0117124023	 0.113022
H	 0.4178505057	-0.1921638624	-2.1454728929	 0.119613
H	 1.9177481716	-0.3660271861	-1.2343769185	 0.123285
H	-0.4605587016	-2.3060258598	-1.1999216945	 0.119933
H	 1.1074582808	-2.6012487763	-1.9678978213	 0.132246
34.6797	105.9394	187.9755	239.423	270.2286	313.6097	353.5983	413.5902	442.2417	488.8995	575.5865	643.9254	673.5675	784.8478	858.6624	915.3145	972.4071	974.5946	1020.1188	1078.7343	1096.644	1142.6136	1174.2478	1194.8325	1232.3632	1277.1538	1317.7369	1341.3487	1381.8299	1412.4135	1424.3604	1483.0212	1491.3172	1497.8028	1515.3576	1828.5	1849.4498	2969.2453	3023.2541	3034.9045	3047.068	3082.6433	3105.8183	3113.4299	3140.0218
CC1CCOC(=O)C1=O	C[C@H]1CCOC(=O)C1=O	
InChI=1S/C6H8O3/c1-4-2-3-9-6(8)5(4)7/h4H,2-3H2,1H3	InChI=1S/C6H8O3/c1-4-2-3-9-6(8)5(4)7/h4H,2-3H2,1H3/t4-/m0/s1
