20
gdb 13504	3.16458	1.54341	1.20974	2.2083	71.19	-0.2484	0.0688	0.3172	1063.6943	0.175715	-386.12433	-386.115247	-386.114303	-386.157737	33.888	
C	 0.0519663717	 1.4875984639	-0.1315740209	-0.407651
C	 0.0484921209	-0.023926496	 0.1030206975	 0.120308
O	 0.660431463	-0.3565615618	 1.3491579337	-0.436802
C	-1.3517552322	-0.6189438277	 0.0139631798	 0.02634
C	-2.1815312454	-0.5004722334	-1.2975168802	-0.2412
C	-2.7066880991	-1.9387197647	-1.0396574238	-0.249015
C	-1.5068751985	-2.1633027186	-0.0761978529	 0.10966
O	-0.3740533338	-2.7031647628	-0.7335722817	-0.43008
H	 1.0690773292	 1.8795080176	-0.0445244431	 0.122002
H	-0.3339142935	 1.7400307705	-1.1243914597	 0.118658
H	-0.5759327979	 1.9999497464	 0.6093019956	 0.09905
H	 0.6777563514	-0.5124206248	-0.6470191691	 0.105869
H	 0.1710444628	 0.1001923063	 2.0426124783	 0.270048
H	-1.9498390154	-0.2528324337	 0.8595680798	 0.055647
H	-2.9148760307	 0.3060468935	-1.3631638066	 0.094753
H	-1.5332650946	-0.4616251393	-2.1769503113	 0.11083
H	-3.6628958623	-1.9408328762	-0.5078616107	 0.098151
H	-2.7735705144	-2.6189280665	-1.8932346995	 0.090285
H	-1.7077435396	-2.6973524591	 0.8612835051	 0.059747
H	-0.5705622916	-3.6176719035	-0.9590331301	 0.2834
78.6222	122.078	150.2168	232.1174	255.8243	266.6116	279.9946	331.7542	400.3733	408.5271	476.5909	553.9388	690.4418	759.4963	855.4534	893.8968	898.6175	936.0973	962.4983	984.8799	1021.5305	1064.4968	1078.1969	1103.4932	1137.5438	1179.0302	1197.2603	1217.5483	1253.4886	1258.055	1272.7572	1286.8943	1321.943	1331.6858	1397.1521	1401.7326	1413.9726	1424.0482	1470.1946	1491.0904	1492.395	1496.4264	3006.062	3018.5029	3020.7797	3052.0781	3063.6959	3073.3147	3095.8039	3101.2011	3116.9423	3120.7049	3792.4472	3819.3012
CC(O)C1CCC1O	C[C@@H](O)[C@H]1CC[C@H]1O	
InChI=1S/C6H12O2/c1-4(7)5-2-3-6(5)8/h4-8H,2-3H2,1H3	InChI=1S/C6H12O2/c1-4(7)5-2-3-6(5)8/h4-8H,2-3H2,1H3/t4-,5-,6-/m1/s1
