19
gdb 99685	2.23433	1.34723	1.07271	4.2154	75.78	-0.241	0.0302	0.2712	1206.6556	0.159388	-419.183735	-419.17439	-419.173446	-419.218516	33.419	
O	 0.1844564599	 1.3933145494	 0.0358627537	-0.4046
C	 0.0547094812	-0.0117349278	 0.0308640246	-0.081275
C	-1.4110750219	-0.4867121432	 0.0781945488	-0.119655
C	-2.0652388745	-0.0779261721	 1.3467103674	 0.271446
N	-2.6305615457	 0.2508088242	 2.3002711545	-0.335332
N	-2.1509904703	-0.0658655519	-1.0989861256	-0.084517
C	-2.6714666947	 1.3212143475	-1.2323614795	-0.179425
C	-3.9320459253	 0.7454732106	-1.9189645015	-0.232157
C	-3.5071923403	-0.6191691886	-1.326846898	-0.170038
H	-0.0307321669	 1.7167979934	-0.8438383032	 0.295934
H	 0.5147172557	-0.4644842039	-0.8574194484	 0.107212
H	 0.5794841403	-0.3781283969	 0.9186665133	 0.126949
H	-1.3897009962	-1.5848207725	 0.0687008637	 0.126972
H	-2.893473207	 1.7966873393	-0.2680318525	 0.129547
H	-2.0400065468	 1.992831677	-1.824212626	 0.093226
H	-4.8930158752	 1.1444458199	-1.5958418198	 0.118282
H	-3.8722499812	 0.7720037776	-3.0081100497	 0.116207
H	-3.5307351448	-1.4987761677	-1.9780040726	 0.107625
H	-4.0417784163	-0.8469662145	-0.3931667192	 0.113597
62.127	95.2089	104.8454	154.9532	179.7061	252.3079	305.2269	343.3893	357.8431	421.1772	559.007	643.8866	726.0175	775.7771	823.7609	861.3528	912.3203	945.3786	949.0944	996.2499	1033.916	1080.1553	1101.0842	1140.952	1155.3317	1194.0429	1215.7355	1226.1413	1250.4913	1271.1333	1285.5916	1306.3502	1347.1984	1360.1746	1404.6539	1413.468	1487.0588	1487.6719	1502.2611	1528.3685	2342.6098	2998.7528	3015.1593	3017.9101	3032.1866	3060.0988	3068.9308	3090.621	3091.0128	3148.5408	3835.816
OCC(C#N)N1CCC1	OC[C@@H](C#N)N1CCC1	
InChI=1S/C6H10N2O/c7-4-6(5-9)8-2-1-3-8/h6,9H,1-3,5H2	InChI=1S/C6H10N2O/c7-4-6(5-9)8-2-1-3-8/h6,9H,1-3,5H2/t6-/m1/s1
