18
gdb 66855	2.56739	2.08514	1.82273	2.1817	73.21	-0.2253	0.0656	0.2909	859.1433	0.149964	-401.88793	-401.881398	-401.880453	-401.918295	27.933	
O	-0.0816727356	 1.402887982	 0.031942996	-0.495938
C	 0.0148013386	 0.0213600336	 0.0074134559	 0.415338
C	-1.3138340879	-0.7741824638	 0.0630408254	-0.112228
C	-0.7259998032	-1.7628363984	-0.9021695252	-0.058478
C	 0.5061505106	-0.8581516839	-1.1928726862	-0.117861
C	 1.8027506248	-1.2152652199	-0.4394012314	-0.250203
C	 1.0832898898	-0.7853343086	 0.8714052235	-0.126098
C	 0.2559303449	-1.9618346463	 1.4052070369	-0.155775
N	-0.9179575681	-2.0916685866	 0.5219142521	-0.104227
H	 0.7822000597	 1.78100895	-0.1632206864	 0.284087
H	-2.3172309038	-0.3914404888	 0.2091773059	 0.094646
H	-1.211558357	-2.4108555333	-1.6233460023	 0.094489
H	 0.5264746764	-0.4789284198	-2.2161388229	 0.07141
H	 2.1657888726	-2.246837727	-0.4848429814	 0.095225
H	 2.6215266992	-0.5426411606	-0.7145085108	 0.089553
H	 1.6545480084	-0.2505612426	 1.6331642785	 0.066235
H	 0.8189563	-2.9004579818	 1.4250832081	 0.104517
H	-0.1214578695	-1.768480504	 2.4153756543	 0.105308
227.1072	257.8887	308.1378	350.5042	424.828	485.3984	590.6622	618.5599	659.5044	740.8693	745.3767	815.8514	850.3522	863.0681	899.761	932.961	954.0349	967.6232	997.6525	1007.8108	1029.7626	1046.1356	1059.1357	1094.3288	1107.1249	1138.6189	1156.4096	1187.7922	1232.4405	1247.9932	1255.9872	1274.4592	1293.149	1322.0149	1327.5824	1369.4815	1396.8164	1487.2805	1502.7711	3038.181	3039.4286	3084.3274	3085.2328	3091.5586	3098.3786	3167.7694	3184.798	3809.5739
OC12C3C4C1CC2CN34	O[C@@]12[C@H]3[C@H]4[C@@H]1C[C@@H]2CN34	
InChI=1S/C7H9NO/c9-7-3-1-4(7)5-6(7)8(5)2-3/h3-6,9H,1-2H2	InChI=1S/C7H9NO/c9-7-3-1-4(7)5-6(7)8(5)2-3/h3-6,9H,1-2H2/t3-,4+,5-,6-,7-,8?/m1/s1
