21
gdb 108513	2.63939	1.48874	1.21872	2.2261	77.4	-0.2389	0.0792	0.3181	1121.9395	0.183114	-424.212065	-424.203574	-424.20263	-424.245163	32.747	
C	-0.0238721157	 1.4802759163	 0.0215650229	-0.257699
O	 0.0025974163	 0.0753928865	-0.1157089153	-0.293211
C	-1.2544021278	-0.545102468	 0.0025378779	 0.418571
C	-1.8774075539	-0.5721690394	 1.4358775256	-0.293038
C	-1.9170141097	-2.1266940103	 1.3832706352	-0.258019
C	-1.1764852278	-2.1002395868	 0.0114761989	 0.068196
O	-1.8878930879	-2.5931392985	-1.1037753982	-0.257199
C	-2.8721125646	-1.6187931864	-1.4379183536	-0.097585
C	-2.2167442054	-0.253416306	-1.1679989472	-0.298339
H	 1.0101984467	 1.827324568	-0.0423162164	 0.127752
H	-0.6070358588	 1.964082156	-0.7755213764	 0.107028
H	-0.4403607742	 1.7909783916	 0.9910967911	 0.10682
H	-1.1817182331	-0.1857654133	 2.183956176	 0.109675
H	-2.8393117886	-0.0669685446	 1.5563171226	 0.093712
H	-1.3781449416	-2.6346731425	 2.1852418032	 0.105206
H	-2.9179994772	-2.558164418	 1.3145643809	 0.108896
H	-0.1739723948	-2.5305025967	 0.0060249548	 0.088306
H	-3.1524783502	-1.7711410038	-2.4831152701	 0.11309
H	-3.7763181528	-1.7484201709	-0.8225197971	 0.092046
H	-2.950888516	 0.5295169493	-0.9606767268	 0.098867
H	-1.612802383	 0.0480640075	-2.0291633179	 0.116925
81.8903	127.6899	192.9986	200.0834	225.1084	330.6505	365.8255	402.9041	464.3454	590.1764	626.033	667.7219	737.9543	813.0051	839.2007	889.2183	933.4108	943.8585	948.1525	983.2095	1005.6559	1035.916	1090.7653	1132.2759	1148.1801	1174.0963	1178.1533	1184.9737	1210.871	1217.583	1232.7951	1247.2678	1255.9365	1269.7998	1272.0757	1329.7446	1352.3073	1395.4092	1466.3374	1476.3561	1480.5728	1487.7722	1490.2691	1509.4759	1519.2692	2979.2412	2985.3227	3033.377	3055.3049	3058.7751	3073.4564	3093.8218	3103.6219	3109.3405	3111.9837	3114.9115	3131.2014
COC12CCC1OCC2	CO[C@]12CC[C@H]1OCC2	
InChI=1S/C7H12O2/c1-8-7-3-2-6(7)9-5-4-7/h6H,2-5H2,1H3	InChI=1S/C7H12O2/c1-8-7-3-2-6(7)9-5-4-7/h6H,2-5H2,1H3/t6-,7+/m1/s1
