21
gdb 122546	4.44332	0.5526	0.53638	2.7371	76.23	-0.2625	0.075	0.3374	2073.3745	0.180369	-461.328455	-461.317815	-461.316871	-461.365814	37.075	
O	-0.2345729224	 1.3387748442	-0.7749185309	-0.419989
C	-0.0505050372	 0.0830809005	-0.1411080933	-0.076553
C	-1.3920473403	-0.6370903736	-0.1324983358	-0.159717
C	-1.3245657145	-2.0100645135	 0.5488281065	-0.239866
C	-2.6689553306	-2.6989915234	 0.5433140486	 0.067545
O	-3.1123118775	-3.2783166654	-0.6909896521	-0.272602
C	-2.8987050515	-4.1493507479	 0.4348378192	 0.026515
C	-1.8295521016	-5.1964582091	 0.2454108935	-0.08479
O	-2.2632265237	-6.1965559669	-0.6619714413	-0.418653
H	 0.612750291	 1.7926581486	-0.7975633315	 0.286129
H	 0.6960015267	-0.5287692305	-0.6744465284	 0.085377
H	 0.3123474568	 0.2068357442	 0.8932748238	 0.08225
H	-2.1258575856	 0.0014821301	 0.3744533332	 0.106902
H	-1.7376989956	-0.7559963872	-1.1651838586	 0.124282
H	-0.5800153399	-2.635529137	 0.0470937613	 0.105765
H	-0.9976334313	-1.8954789112	 1.591506489	 0.102519
H	-3.4528560956	-2.1307432657	 1.0512187679	 0.090308
H	-3.8252367227	-4.5439971492	 0.8567969989	 0.096616
H	-0.8899995139	-4.7358518372	-0.0879067879	 0.092421
H	-1.6356899458	-5.706858184	 1.1953619625	 0.11222
H	-2.5055031247	-5.7420486356	-1.4769927845	 0.293322
38.519	67.8944	80.2815	102.206	130.3161	182.4926	253.8704	262.6287	285.9317	399.1752	427.4305	462.726	494.6355	585.7376	747.8899	784.3973	841.512	871.2921	929.5772	1007.2263	1012.1455	1047.2326	1067.338	1071.9985	1095.1283	1112.9811	1162.5307	1175.9226	1218.9092	1229.1401	1235.3801	1294.6953	1301.0862	1309.1946	1317.1387	1354.1444	1376.4809	1402.7254	1434.3428	1464.8422	1471.4822	1493.191	1497.1124	1500.7886	1528.5052	2953.9937	2978.8763	3011.7285	3020.7695	3037.054	3065.7072	3072.5048	3077.3097	3093.2308	3100.4109	3800.028	3831.074
OCCCC1OC1CO	OCCC[C@H]1O[C@H]1CO	
InChI=1S/C6H12O3/c7-3-1-2-5-6(4-8)9-5/h5-8H,1-4H2	InChI=1S/C6H12O3/c7-3-1-2-5-6(4-8)9-5/h5-8H,1-4H2/t5-,6+/m1/s1
