18
gdb 97331	4.39567	0.73317	0.65419	1.8029	74.79	-0.2727	-0.03	0.2427	1718.3436	0.144011	-476.253593	-476.243226	-476.242282	-476.289925	35.652	
C	 0.0373770964	 1.3246880157	 0.0504471467	-0.32062
N	 0.0020129009	-0.1233235315	 0.125388568	-0.186838
C	-1.1146671108	-0.6773511777	 0.0173239971	 0.112386
O	-1.1644513945	-2.056464735	 0.0826077304	-0.216578
C	-2.3739317385	-2.6624617837	-0.0213899554	 0.433138
O	-3.4236194479	-2.08709471	-0.1652612113	-0.362569
C	-2.2530537232	-4.1758070345	 0.0625749618	 0.039299
C	-1.6726565777	-4.6177283373	 1.4135598874	-0.397876
O	-3.5135944419	-4.7559143941	-0.1579393535	-0.436666
H	 0.6955394348	 1.6239625921	-0.771973326	 0.140096
H	-0.9479652167	 1.7914572008	-0.0983185812	 0.109579
H	 0.4777719728	 1.7196632097	 0.9719593833	 0.139862
H	-2.0904018829	-0.2099708066	-0.1278616949	 0.13893
H	-1.5572805977	-4.4810491584	-0.7347625122	 0.110462
H	-2.3156098872	-4.2812994054	 2.2323094441	 0.127051
H	-1.6323714193	-5.7090943372	 1.4367815354	 0.136997
H	-0.6657797935	-4.219445975	 1.5589223305	 0.137067
H	-4.1397452434	-4.0237943819	-0.2511552802	 0.29628
50.0127	71.2166	87.0542	122.3121	209.5834	225.9412	237.2911	298.3739	329.3389	348.2216	363.7815	394.0242	448.2109	578.9233	670.0221	758.5271	872.2748	944.8587	984.4518	1047.0639	1067.2609	1100.537	1103.4141	1141.2613	1167.4897	1179.488	1226.405	1288.7246	1353.528	1370.763	1399.1055	1438.6019	1447.667	1480.8717	1492.7565	1498.5928	1501.7344	1780.2164	1814.9851	2988.1299	2988.9501	3049.2905	3075.7632	3094.0562	3120.3364	3127.2155	3139.7352	3735.2814
CN=COC(=O)C(C)O	CN=COC(=O)[C@@H](C)O	
InChI=1S/C5H9NO3/c1-4(7)5(8)9-3-6-2/h3-4,7H,1-2H3	InChI=1S/C5H9NO3/c1-4(7)5(8)9-3-6-2/h3-4,7H,1-2H3/t4-/m1/s1
