19
gdb 87794	4.17914	0.96149	0.90679	2.4412	76.48	-0.2379	0.0672	0.3051	1324.7122	0.157048	-422.966472	-422.957548	-422.956604	-423.000915	33.336	
O	 0.29773641	 1.3063494241	 0.3448302546	-0.424031
C	 0.0836870652	-0.0719096885	 0.2460622632	 0.088564
C	-0.7628707176	-0.8354642745	 1.2340286878	-0.397009
C	-1.2319497232	-0.6315551843	-0.1912184535	 0.30274
C	-2.4578029059	 0.1988310469	-0.6194482783	-0.40762
C	-2.8532957399	-0.9856624168	-1.5126181626	 0.465296
C	-4.1814763049	-1.546743099	-1.7581219599	-0.261643
O	-3.4535686081	-0.8550434333	-2.7849516627	-0.267455
C	-1.5280498802	-1.7129922598	-1.2468988156	-0.39766
H	-0.5101221364	 1.721827426	 0.6632485648	 0.286539
H	 0.9884807974	-0.5485142355	-0.1192443266	 0.108488
H	-0.4382241963	-1.8251943797	 1.5419605038	 0.115786
H	-1.26796107	-0.2700419136	 2.013518605	 0.107999
H	-3.1744734948	 0.4792624399	 0.158456906	 0.104343
H	-2.1920687681	 1.0884363009	-1.2016416241	 0.121
H	-4.2979856315	-2.6192444301	-1.9109649652	 0.115417
H	-5.0664582681	-1.0309859263	-1.3864392793	 0.114484
H	-0.8542499212	-1.6845580829	-2.1093699124	 0.11826
H	-1.6052806764	-2.7433138536	-0.887719835	 0.106503
37.7249	78.0879	144.2895	197.0014	270.7734	315.7774	360.0139	397.8286	416.0803	444.0882	545.785	669.5845	783.5327	833.225	838.4762	873.5838	874.181	879.8018	936.9075	958.9019	1001.9965	1022.0034	1068.9523	1098.0127	1108.3401	1126.5744	1140.5394	1157.4728	1160.019	1205.4998	1217.4458	1232.1109	1239.6061	1312.2799	1351.383	1430.4873	1436.7847	1465.9674	1486.4762	1488.7102	1538.1633	3035.9028	3046.185	3076.9419	3088.5385	3096.9948	3107.9031	3159.2966	3163.5013	3195.1896	3821.2329
OC1CC11CC2(CO2)C1	O[C@H]1C[C@]21C[C@]1(CO1)C2	
InChI=1S/C7H10O2/c8-5-1-6(5)2-7(3-6)4-9-7/h5,8H,1-4H2	InChI=1S/C7H10O2/c8-5-1-6(5)2-7(3-6)4-9-7/h5,8H,1-4H2/t5-,6-,7+/m0/s1
