20
gdb 17609	3.91789	1.29356	1.13033	2.5558	76.25	-0.2385	-0.0093	0.2292	1148.8798	0.175526	-349.023774	-349.014551	-349.013606	-349.058173	33.309	
C	-0.1196968105	 1.4507605409	 0.1614854673	-0.389968
C	 0.0528540299	-0.0718135089	-0.0260821705	-0.073919
C	 0.7879389291	-0.4018028541	-1.3258449494	-0.386799
C	 0.7767993232	-0.6464772783	 1.1924489638	 0.384964
O	 1.9374122032	-1.0023442265	 1.143340829	-0.343176
C	-0.0079982771	-0.7344540024	 2.4605321456	-0.096308
C	 0.3210048239	-1.8877474797	 3.3992698323	-0.251599
C	 0.7410615228	-0.5077288048	 3.7669637442	-0.249511
H	 0.8565138522	 1.946133834	 0.1885366893	 0.130156
H	-0.6898357364	 1.8727097506	-0.6716582059	 0.120387
H	-0.6470273779	 1.6943215741	 1.088563689	 0.120022
H	-0.9506350022	-0.5201485963	-0.0452050712	 0.08455
H	 1.8035234231	 0.0018173508	-1.3053660461	 0.13275
H	 0.8697716105	-1.482299169	-1.4723118854	 0.119341
H	 0.2594368786	 0.0239519307	-2.1844440409	 0.104029
H	-1.0416509494	-0.4105457547	 2.4174951186	 0.086185
H	-0.5064936525	-2.3457583475	 3.9286988111	 0.116504
H	 1.0906830197	-2.5657004087	 3.0488011299	 0.138452
H	 1.791943841	-0.2629212219	 3.6640976313	 0.137508
H	 0.2115123589	 0.0122515119	 4.5569896681	 0.116432
46.3901	62.2053	180.3175	185.8924	214.5258	248.938	284.3832	316.6148	333.708	431.5477	620.2882	739.4234	758.2969	805.1828	831.2476	864.6695	893.9844	923.2849	933.8521	971.5064	1044.8706	1077.0179	1090.056	1097.7937	1118.5507	1132.7581	1141.119	1201.367	1210.6508	1224.7292	1310.659	1359.1929	1397.684	1407.4745	1420.9558	1451.898	1482.881	1484.2471	1486.1766	1501.2644	1509.6413	1780.8481	3008.0913	3035.8366	3044.4378	3107.5586	3110.1435	3113.5548	3124.94	3139.9757	3141.7121	3172.7459	3227.7072	3242.3736
CC(C)C(=O)C1CC1	CC(C)C(=O)C1CC1	
InChI=1S/C7H12O/c1-5(2)7(8)6-3-4-6/h5-6H,3-4H2,1-2H3	InChI=1S/C7H12O/c1-5(2)7(8)6-3-4-6/h5-6H,3-4H2,1-2H3
