20
gdb 114399	3.28753	1.14511	1.00586	2.5892	79.06	-0.2263	-0.0269	0.1994	1252.597	0.170485	-403.122043	-403.113418	-403.112473	-403.155874	32.644	
C	-0.1859491011	 1.3996318541	 0.1873931488	-0.381112
C	-0.1136924288	-0.1155101424	-0.0314044799	-0.208123
C	 0.6912368154	-0.5051515585	-1.2614935094	 0.088973
C	 0.7430923774	-1.9990909892	-1.6863459406	-0.305019
C	 0.3569948714	-1.5188568314	-3.1110415803	-0.094586
N	 0.2037256307	-0.081798325	-2.6341658996	-0.154985
C	-1.2776019918	-0.1376300354	-2.8522927432	-0.312522
C	-1.1410638811	-1.5589895671	-3.4293703178	 0.394148
O	-1.880520561	-2.3456994864	-3.940388385	-0.287169
H	 0.8161143912	 1.8258507041	 0.3039794453	 0.121177
H	-0.6584305387	 1.9043385807	-0.6609612121	 0.130893
H	-0.7606380358	 1.6418987407	 1.0861867228	 0.11584
H	 0.3648590782	-0.5932299566	 0.8337116074	 0.104814
H	-1.1232228677	-0.5422823144	-0.0790572624	 0.099149
H	 1.7027963365	-0.0965937846	-1.1511185901	 0.085073
H	 1.7167807425	-2.4856188656	-1.6075033368	 0.116172
H	-0.0044002313	-2.6407606548	-1.2107784756	 0.116402
H	 1.0541792293	-1.7310317696	-3.925717112	 0.10175
H	-1.9135832506	-0.0555483434	-1.9655575597	 0.130622
H	-1.6142006248	 0.605841775	-3.5835165397	 0.138504
47.4689	99.4572	172.6654	192.9269	244.318	323.5694	380.6438	429.8382	489.7048	512.5689	600.4236	702.4445	749.4919	797.9279	804.3385	888.7991	897.7877	936.6754	964.8686	976.9445	1005.1955	1013.8681	1068.5418	1099.5945	1115.8682	1134.7999	1169.8026	1185.6204	1202.1396	1251.7948	1255.9262	1277.8235	1282.0223	1309.4267	1340.0715	1402.4997	1415.092	1449.559	1487.5779	1493.7335	1498.3108	1508.504	1900.8014	3021.9582	3024.9888	3037.7136	3043.3148	3055.1461	3060.1683	3078.7005	3094.0635	3105.7564	3110.7918	3120.081
CCC1CC2N1CC2=O	CC[C@H]1C[C@@H]2N1CC2=O	
InChI=1S/C7H11NO/c1-2-5-3-6-7(9)4-8(5)6/h5-6H,2-4H2,1H3	InChI=1S/C7H11NO/c1-2-5-3-6-7(9)4-8(5)6/h5-6H,2-4H2,1H3/t5-,6-/m0/s1
