14
gdb 8785	4.60237	1.33211	1.03977	0.6659	68.04	-0.2316	-0.0878	0.1437	1076.757	0.105057	-378.702878	-378.693882	-378.692938	-378.737395	30.534	
C	-0.0920433616	 1.426397301	 0.0416548314	-0.310265
N	-0.056684025	-0.0083249402	-0.125718881	-0.304753
C	 0.6034041555	-0.5988608697	-1.147177001	 0.286329
N	 1.2456936859	 0.060241167	-2.0424330789	-0.551801
C	 0.4903756275	-2.1144797066	-1.1014631039	 0.20294
O	-0.1320733193	-2.6827245368	-0.2279260344	-0.308161
C	 1.166838143	-2.8408624864	-2.1581151161	 0.251714
C	 1.7128770488	-3.4856409392	-3.0157488621	-0.382727
H	 0.9184152818	 1.8341733994	 0.1590896423	 0.141161
H	-0.5422148884	 1.913589149	-0.8307407424	 0.141186
H	-0.6803815729	 1.6663694912	 0.9290851615	 0.123741
H	-0.5261214497	-0.622515754	 0.5186277265	 0.263699
H	 1.6659512338	-0.5804686605	-2.7140461262	 0.223815
H	 2.1944508107	-4.0572739343	-3.7723042857	 0.22312
40.8256	69.9992	119.0471	139.4607	229.2947	249.0785	324.2221	410.2022	432.5302	491.4946	500.5975	661.5836	666.1172	709.5665	802.6802	810.2904	854.7522	988.8605	1162.4501	1165.1489	1193.3971	1199.728	1336.8552	1457.9509	1473.2211	1514.3233	1562.3782	1701.926	1747.8829	2212.084	3028.2662	3077.7083	3134.6843	3491.0672	3498.7024	3656.1168
CNC(=N)C(=O)C#C	CNC(=N)C(=O)C#C	
InChI=1S/C5H6N2O/c1-3-4(8)5(6)7-2/h1H,2H3,(H2,6,7)	InChI=1S/C5H6N2O/c1-3-4(8)5(6)7-2/h1H,2H3,(H2,6,7)
