14
gdb 19381	3.33507	2.29851	1.62344	3.3626	63.76	-0.2541	-0.0131	0.241	786.2348	0.107314	-378.644354	-378.637828	-378.636883	-378.674955	24.92	
N	-0.0508264188	 1.2495989624	 0.0006992423	-0.522329
C	-0.0076943971	-0.0015541789	 0.0535492218	 0.287529
N	 1.0975484887	-0.9518846699	-0.0904120375	-0.178551
C	 1.0477431991	-1.826189739	 1.1176778245	-0.251319
C	 0.0750972954	-2.0886135366	 0.0447471474	-0.135187
C	-1.0584692329	-1.0836016304	 0.1334299851	 0.422642
C	-2.3917229723	-1.137711947	 0.7378534698	-0.262152
O	-2.2050057214	-1.1118218376	-0.6838197917	-0.261081
H	 0.8857323639	 1.6391456612	-0.1347330046	 0.234775
H	 1.9173259446	-2.47093832	 1.195860465	 0.140569
H	 0.7116177333	-1.3953219342	 2.0576795089	 0.132376
H	 0.1032039285	-2.9440946584	-0.6181348899	 0.129218
H	-2.7555498017	-2.0798086306	 1.1449417906	 0.123943
H	-2.8166715595	-0.2318995011	 1.1655960882	 0.139567
134.8917	207.0745	237.6875	291.7414	432.8609	486.4887	599.1882	677.8381	717.8998	768.3043	811.6809	859.9488	909.7376	923.2236	955.7365	970.7107	1031.9661	1044.0598	1117.3596	1125.8923	1135.87	1151.2972	1162.3786	1228.3405	1269.3938	1309.7621	1445.2188	1501.7956	1528.5997	1817.6949	3089.5102	3113.003	3185.2982	3201.4583	3210.5938	3450.7685
N=C1N2CC2C11CO1	[NH][C]1N2C[C@H]2[C@]21CO2	
InChI=1S/C5H6N2O/c6-4-5(2-8-5)3-1-7(3)4/h3,6H,1-2H2	InChI=1S/C5H6N2O/c6-4-5(2-8-5)3-1-7(3)4/h3,6H,1-2H2/t3-,5-,7?/m0/s1
