15
gdb 9194	5.69756	0.96096	0.91692	2.0614	64.58	-0.2583	0.0326	0.291	1265.773	0.116829	-399.800895	-399.791764	-399.79082	-399.836064	30.806	
C	 0.1031193872	 1.1680504096	-0.3069279441	-0.232816
O	-0.1049781096	-0.1105309952	 0.2987355905	-0.264285
C	-1.3385918879	-0.6347626479	 0.0994067046	 0.529422
O	-2.2166265914	-0.1043211337	-0.543866054	-0.411582
N	-1.4411402603	-1.8285714803	 0.7533930261	-0.359286
C	-2.5872924866	-2.6985184562	 0.5486504417	-0.296316
C	-2.2482921735	-3.9426176629	-0.1417172488	 0.295867
C	-1.9530515768	-4.9728637382	-0.6847142554	-0.451106
H	 1.129888662	 1.4443383273	-0.06532168	 0.130422
H	-0.031317133	 1.11211812	-1.3900623107	 0.140879
H	-0.5939305129	 1.9075371632	 0.09568489	 0.139407
H	-0.5972678743	-2.2178754901	 1.1415434791	 0.258467
H	-3.0605273959	-2.9322253123	 1.511099807	 0.138705
H	-3.3090268802	-2.1177803694	-0.0338590387	 0.178092
H	-1.7021187367	-5.8790276341	-1.1784431071	 0.204131
29.5366	70.6718	96.4505	147.3509	212.8233	233.156	322.3998	336.7316	438.2584	486.3634	587.1446	620.2284	668.5509	705.7449	780.9271	911.063	943.5217	1030.9764	1063.6455	1169.2093	1183.6604	1216.1807	1245.9613	1278.9491	1380.9053	1467.8572	1474.8475	1481.4919	1500.7354	1541.7895	1816.4304	2240.7071	3021.9761	3050.635	3092.5564	3124.8159	3154.4205	3505.2978	3647.8817
COC(=O)NCC#C	COC(=O)NCC#C	
InChI=1S/C5H7NO2/c1-3-4-6-5(7)8-2/h1H,4H2,2H3,(H,6,7)	InChI=1S/C5H7NO2/c1-3-4-6-5(7)8-2/h1H,4H2,2H3,(H,6,7)
