23
gdb 65260	3.04009	1.24303	1.02605	1.5624	85.32	-0.2394	0.0837	0.3231	1271.9239	0.206618	-388.292614	-388.283509	-388.282565	-388.326783	35.011	
C	 0.0726086967	 1.5084859659	 0.3413833812	-0.470041
C	 0.0087728301	 0.03464294	-0.0111208527	 0.345927
C	 1.0140743093	-0.5159589943	-0.9916580316	-0.298724
C	 1.1198867927	-0.860112571	 0.4775197069	-0.308109
C	-1.4062914859	-0.5242146595	-0.0348052559	 0.082961
C	-2.3186823238	 0.056245324	-1.1299818246	-0.234727
C	-3.2996793497	-1.0962618158	-1.3807505723	-0.234692
C	-2.3905721867	-2.3172596758	-1.2041849918	-0.060822
O	-1.3899021789	-1.9393825221	-0.2595903021	-0.279738
H	 1.1101780596	 1.8501841841	 0.4021901079	 0.114626
H	-0.4361375568	 2.1285333216	-0.4058087014	 0.114816
H	-0.3979186059	 1.7049413105	 1.3128293984	 0.113376
H	 0.6907427817	-1.3089165865	-1.656083957	 0.113919
H	 1.7399603453	 0.1684008715	-1.4185079704	 0.100261
H	 1.9177502472	-0.4070458675	 1.0571500747	 0.099375
H	 0.8619103521	-1.8723407069	 0.7632492299	 0.126827
H	-1.8622918231	-0.3402903525	 0.9535020381	 0.062741
H	-2.8089349358	 0.9825433193	-0.8222729132	 0.103462
H	-1.7292935717	 0.2641679248	-2.0302968498	 0.106093
H	-4.0907573762	-1.0962423738	-0.6232013346	 0.10667
H	-3.7748202153	-1.0613498417	-2.3642523495	 0.101977
H	-2.919325611	-3.1980884221	-0.823390083	 0.101838
H	-1.9127883637	-2.5956110923	-2.1554293073	 0.091985
49.9624	84.777	180.3022	213.4598	224.1054	270.3978	317.981	342.4964	441.4669	493.7595	571.8236	657.8866	745.6553	793.9719	855.1261	875.9168	885.9016	895.1028	930.6026	947.8334	953.432	960.3256	1001.8561	1032.5613	1051.7159	1069.4159	1085.9961	1103.3632	1119.1659	1152.814	1191.5305	1195.8597	1208.0953	1257.9613	1287.7568	1307.1869	1337.864	1347.2805	1361.4261	1391.1964	1398.0925	1418.6969	1455.7316	1485.8964	1492.5901	1495.2994	1498.3298	1509.5622	1531.5349	2943.1981	2988.6749	3019.9963	3043.5497	3046.9007	3061.039	3077.5466	3099.7171	3103.3792	3112.2474	3131.8445	3135.7171	3217.5184	3232.4676
CC1(CC1)C1CCCO1	CC1(CC1)[C@H]1CCCO1	
InChI=1S/C8H14O/c1-8(4-5-8)7-3-2-6-9-7/h7H,2-6H2,1H3	InChI=1S/C8H14O/c1-8(4-5-8)7-3-2-6-9-7/h7H,2-6H2,1H3/t7-/m1/s1
