16
gdb 7118	7.33647	0.95256	0.85206	4.1256	65.8	-0.2529	0.0008	0.2537	1326.1363	0.129773	-417.10128	-417.092304	-417.09136	-417.13597	30.267	
C	 0.0167331689	 1.5718885659	-0.2522688146	-0.392904
C	-0.0489900981	 0.0752344054	-0.0165682783	-0.035155
O	 0.5699709933	-0.5692345981	-1.1454428377	-0.282744
C	 0.5928724404	-1.9260517644	-1.087215894	 0.541042
O	 0.1484245082	-2.588394257	-0.1917509523	-0.359322
N	 1.2176728316	-2.3775929759	-2.2421971761	-0.373596
C	 1.4737092055	-3.6868932023	-2.6310554228	 0.084572
N	 1.1601522687	-4.7123290953	-1.9575228792	-0.400537
H	 1.0533717978	 1.9090232331	-0.3414215855	 0.12841
H	-0.515576863	 1.8479079868	-1.166975525	 0.128403
H	-0.4456676647	 2.0987970273	 0.5875009742	 0.125655
H	 0.4801339555	-0.2193404156	 0.8950636491	 0.125442
H	-1.0801918907	-0.2800557156	 0.074194944	 0.1254
H	 1.5182800976	-1.6494061585	-2.8696131093	 0.26176
H	 1.9845931099	-3.6931819204	-3.6025007544	 0.094955
H	 1.4549998192	-5.5505292756	-2.455394438	 0.228618
44.5008	72.7972	118.03	135.5371	193.5878	241.2547	258.6226	353.064	429.2244	568.9766	579.5865	774.283	805.8056	809.2773	821.8537	911.1994	969.5567	1050.8263	1061.4774	1134.9248	1152.7153	1185.4962	1210.519	1263.806	1292.3934	1395.7099	1420.4729	1432.3656	1485.8702	1497.5353	1520.6559	1547.9272	1740.3939	1862.0014	3032.7747	3046.1106	3052.9711	3090.7352	3121.3387	3125.4284	3502.089	3650.0858
CCOC(=O)NC=N	CCOC(=O)NC=N	
InChI=1S/C4H8N2O2/c1-2-8-4(7)6-3-5/h3H,2H2,1H3,(H2,5,6,7)	InChI=1S/C4H8N2O2/c1-2-8-4(7)6-3-5/h3H,2H2,1H3,(H2,5,6,7)
