19
gdb 92780	2.71073	1.38918	1.03243	3.5509	79.84	-0.2552	-0.0665	0.1886	1180.3138	0.15908	-423.057129	-423.048441	-423.047496	-423.090434	32.939	
C	-0.0642569208	 1.5374959332	 0.0294317772	-0.379857
C	 0.0098021347	 0.006922914	 0.0209630008	-0.025868
C	 0.8796420861	-0.5118151189	-1.1627508962	-0.272701
C	 2.2317060612	-0.7335103884	-0.5418537824	-0.151016
C	 2.1644041767	-0.7363329721	 0.7964583838	 0.223189
C	 3.282204324	-0.9298587573	 1.7119491446	 0.065502
O	 3.1683440255	-0.9039730335	 2.9245228389	-0.293957
C	 0.734007209	-0.5519650682	 1.2803955763	 0.030954
O	 0.6039621759	 0.3084221147	 2.391183184	-0.439426
H	 0.9353851584	 1.9832390818	 0.0566383689	 0.115947
H	-0.5724620585	 1.8943613618	-0.8723678951	 0.103071
H	-0.6077635626	 1.8971910956	 0.9043966246	 0.139182
H	-1.0054323529	-0.3949500577	-0.0410371739	 0.077713
H	 0.4968603579	-1.459597879	-1.5680116492	 0.121509
H	 0.9111071899	 0.1885883915	-2.0052415569	 0.115708
H	 3.1375200032	-0.8927327639	-1.1198659441	 0.112673
H	 4.2734475901	-1.0999234371	 1.2401576979	 0.085211
H	 0.3227477444	-1.5473190165	 1.5271545174	 0.074874
H	 1.2601200177	 0.0098419102	 3.0366917935	 0.297295
72.2249	130.0238	199.8857	234.3609	279.3567	285.2968	309.2279	374.026	443.0861	477.1163	532.7701	611.8322	705.0553	744.8453	785.4211	842.1745	867.2878	924.2766	932.3097	990.5339	1035.3826	1054.4196	1078.847	1099.3179	1144.8183	1204.2815	1210.5881	1261.9834	1285.1828	1302.7755	1346.074	1368.0615	1373.3392	1406.1727	1414.6201	1430.6481	1471.3768	1492.4995	1498.9925	1684.2088	1754.7769	2904.8977	2930.9917	3009.0041	3039.6878	3058.1216	3064.8015	3104.217	3139.8975	3178.4482	3738.5615
CC1CC=C(C=O)C1O	C[C@H]1CC=C(C=O)[C@H]1O	
InChI=1S/C7H10O2/c1-5-2-3-6(4-8)7(5)9/h3-5,7,9H,2H2,1H3	InChI=1S/C7H10O2/c1-5-2-3-6(4-8)7(5)9/h3-5,7,9H,2H2,1H3/t5-,7-/m0/s1
