18
gdb 46901	3.48125	1.39377	1.07873	4.7401	73.69	-0.2491	0.0336	0.2828	1107.1913	0.14984	-439.072853	-439.065236	-439.064292	-439.105364	29.559	
N	-0.0767641823	 1.303547012	-0.2831196826	-0.5091
C	-0.0097799549	 0.0873564359	 0.0540158668	 0.438065
O	 1.1920924363	-0.5569066121	 0.1663134102	-0.270569
C	 1.4500365301	-1.5974609912	 1.1239718949	-0.111829
C	 0.7982166374	-2.9071962161	 0.7621153155	-0.012666
C	 0.0604817234	-3.69894093	 1.8147836336	-0.319168
C	-0.7086440283	-2.9254797217	 0.7731011423	-0.010722
C	-1.384823584	-1.6269363184	 1.1331911571	-0.108454
O	-1.1680488486	-0.6058229953	 0.1502535387	-0.239815
H	 0.86760013	 1.6685181777	-0.395045989	 0.224321
H	 2.5390990638	-1.6886373808	 1.1253793384	 0.124099
H	 1.1531375496	-1.2632537415	 2.1246729501	 0.110084
H	 1.2896093508	-3.4633826189	-0.0292868079	 0.101551
H	 0.072506137	-4.7801543408	 1.7426192568	 0.125242
H	 0.064249799	-3.3232923347	 2.8335672509	 0.118855
H	-1.1961887035	-3.4936367008	-0.0121850014	 0.102739
H	-2.4710140303	-1.7430583786	 1.1584653329	 0.127347
H	-1.0759639656	-1.2699697648	 2.1222731428	 0.110019
54.913	140.8051	263.2138	275.0814	327.3003	377.5457	432.5911	489.387	626.1954	635.9793	755.9873	779.7701	811.7043	831.7268	864.2602	872.0235	950.1575	968.2877	978.8296	1015.8834	1037.9659	1065.4098	1109.305	1130.5134	1135.0699	1181.2796	1186.5223	1230.3319	1286.3335	1294.6109	1300.6127	1377.9649	1393.7562	1428.5336	1435.0873	1494.7715	1497.8097	1520.6251	1739.0545	3030.3682	3047.2227	3096.9297	3101.527	3132.6397	3161.0468	3169.9281	3220.5138	3514.9959
N=C1OCC2CC2CO1	[NH][C]1OC[C@H]2C[C@H]2CO1	
InChI=1S/C6H9NO2/c7-6-8-2-4-1-5(4)3-9-6/h4-5,7H,1-3H2	InChI=1S/C6H9NO2/c7-6-8-2-4-1-5(4)3-9-6/h4-5,7H,1-3H2/t4-,5+
