17
gdb 48561	2.95779	1.77906	1.27663	2.9641	77.18	-0.2324	-0.0277	0.2047	976.0202	0.136683	-384.639032	-384.632159	-384.631214	-384.670303	27.805	
O	-0.0541351635	-0.0509106065	 0.131132727	-0.25813
C	 0.0088470903	 1.1427456492	-0.0473858482	 0.048892
C	 1.2827607708	 1.9147093634	-0.0433230451	 0.244874
C	 2.591498595	 1.1801406567	 0.1981572563	-0.171903
C	 3.5177433814	 2.1362833289	 0.1395974162	-0.126415
C	 2.7237373283	 3.4035616418	-0.1346811421	-0.06004
C	 1.5766634224	 3.0317803051	-1.1440892682	-0.077063
C	 0.6344869716	 4.0305795489	-0.4354345514	-0.270984
C	 1.396775281	 3.3192886266	 0.7049554472	-0.077128
H	-0.9162453714	 1.732776407	-0.228263862	 0.071954
H	 2.6762464768	 0.1182828563	 0.371471231	 0.127634
H	 4.5899588846	 2.0655755786	 0.2549032427	 0.110191
H	 3.2270625659	 4.3659913884	-0.2353692155	 0.071245
H	 1.6865842657	 2.8388101701	-2.2143696178	 0.08302
H	 0.8674822604	 5.0893504396	-0.5773945879	 0.098374
H	-0.4409968227	 3.8635603253	-0.5141051774	 0.102477
H	 1.2975765532	 3.4606439406	 1.7843078851	 0.083003
91.6542	213.8929	252.4717	385.3516	396.6447	501.869	506.9281	647.3558	682.1229	747.625	766.215	775.5527	809.6808	877.7374	902.9315	920.0055	922.8324	960.8378	1021.8058	1022.1653	1048.6816	1067.4023	1070.6181	1104.7572	1136.2074	1140.1495	1182.1672	1194.3986	1222.5124	1249.2079	1261.8638	1316.7479	1336.4078	1437.2206	1528.5352	1640.1283	1806.8218	2887.563	3060.2256	3082.254	3087.1429	3113.6962	3122.1696	3230.3053	3264.2281
O=CC12C=CC3C1CC23	O=C[C@@]12C=C[C@H]3[C@@H]1C[C@@H]23	
InChI=1S/C8H8O/c9-4-8-2-1-5-6(8)3-7(5)8/h1-2,4-7H,3H2	InChI=1S/C8H8O/c9-4-8-2-1-5-6(8)3-7(5)8/h1-2,4-7H,3H2/t5-,6-,7+,8-
