21
gdb 91366	2.15683	1.93492	1.43128	3.2486	76.29	-0.2376	0.0621	0.2996	1009.3997	0.186065	-424.244426	-424.236795	-424.235851	-424.276129	31.98	
O	 0.2994561276	 1.3402908481	-0.2842848636	-0.455742
C	 0.0733057945	-0.0247447663	-0.027852215	 0.169666
C	 0.6869071659	-0.5748300084	 1.3078517848	-0.250925
C	-0.4806739125	-1.3541500524	 1.9500639399	 0.002798
C	-1.5000233681	-0.3359331793	 2.5040434175	-0.260488
C	-2.1489117928	 0.2549669424	 1.2112109456	 0.134887
O	-2.0212925799	 1.6739553639	 1.0809473547	-0.443948
C	-1.4101962727	-0.4783609605	 0.0693714651	-0.079225
C	-1.2363671485	-1.8760736656	 0.7014774959	-0.230277
H	-0.3407877696	 1.8316130363	 0.2487292471	 0.284688
H	 0.5255427754	-0.5562412886	-0.8729477099	 0.077527
H	 1.5441465602	-1.2255878241	 1.1107250365	 0.09192
H	 1.0393647786	 0.2518777291	 1.931573976	 0.096196
H	-0.1735280473	-2.1082772468	 2.677190564	 0.057148
H	-2.2521864455	-0.8234488014	 3.132347526	 0.093951
H	-1.0247762829	 0.4504683589	 3.1001107028	 0.093372
H	-3.2160746513	-0.0034201183	 1.1699570258	 0.07373
H	-2.3714577253	 2.0847821675	 1.8770871199	 0.288867
H	-1.9375794301	-0.4280916219	-0.8844638391	 0.065642
H	-0.640770827	-2.5515810799	 0.0803853846	 0.098679
H	-2.1841919088	-2.3688098926	 0.9419829014	 0.091532
90.9462	253.6997	282.4886	346.5726	352.2952	416.9912	429.525	451.8894	525.3119	543.5714	569.2905	720.2963	782.5535	805.0575	815.5171	864.1408	928.8824	935.2807	949.0565	962.0252	975.8168	994.7786	1049.4083	1061.7552	1099.1472	1112.9252	1139.2726	1156.9351	1172.3646	1201.6935	1222.9317	1251.6227	1271.951	1290.1575	1311.2534	1327.8197	1335.6786	1346.6892	1366.7468	1369.937	1425.3987	1479.7883	1487.2432	1493.0264	1513.6368	2993.1345	3031.1373	3039.665	3046.9948	3050.8331	3083.5903	3090.5147	3095.6807	3097.7542	3105.017	3728.281	3826.9298
OC1CC2CC(O)C1C2	O[C@H]1C[C@H]2C[C@@H](O)[C@@H]1C2	
InChI=1S/C7H12O2/c8-6-2-4-1-5(6)7(9)3-4/h4-9H,1-3H2	InChI=1S/C7H12O2/c8-6-2-4-1-5(6)7(9)3-4/h4-9H,1-3H2/t4-,5+,6-,7+
