17
gdb 116025	2.236	1.69701	1.14562	3.5337	71.8	-0.2386	-0.058	0.1807	1093.8016	0.135457	-458.974189	-458.965691	-458.964747	-459.007762	30.643	
C	-0.0780458441	 1.181503756	-0.5871058841	-0.242628
O	-0.3453204595	-0.2131793565	-0.5443513155	-0.24564
C	-1.3572996045	-0.5667233232	 0.3544291073	 0.076415
O	-2.6415135707	-0.1892110659	-0.0942724859	-0.259458
C	-3.0549393971	-0.8248341523	-1.293308564	-0.128645
C	-2.7946074578	-2.2982480578	-1.3161600503	-0.058071
C	-1.9824938663	-2.894356456	-0.4362870582	-0.152823
C	-1.2473717058	-2.0897706387	 0.5512318672	 0.37224
O	-0.5744689975	-2.5566919871	 1.4440103155	-0.323345
H	 0.7084397511	 1.3304841589	-1.3294178233	 0.132711
H	-0.9672478704	 1.7532338682	-0.8778839577	 0.123891
H	 0.274354534	 1.5448823195	 0.3883120891	 0.119098
H	-1.2307127222	-0.0654546362	 1.3221296217	 0.096741
H	-4.1296005296	-0.6300779977	-1.3807950039	 0.129734
H	-2.5732640336	-0.3611008375	-2.1699376214	 0.126819
H	-3.3001262315	-2.8668119637	-2.0933345345	 0.117058
H	-1.8157894745	-3.96637951	-0.421447382	 0.115903
77.3955	101.563	149.7823	184.8195	220.6372	308.9007	338.6884	416.7979	468.8496	538.7636	631.8434	634.5846	759.2987	821.3707	893.9501	935.0617	988.0925	989.262	1019.2683	1050.675	1086.8932	1135.2367	1172.1582	1178.3195	1212.7081	1262.6949	1274.3545	1349.7031	1374.0624	1402.3638	1410.1259	1470.9653	1477.5866	1485.4723	1509.3289	1686.6843	1798.8113	2978.3211	3003.6602	3042.366	3063.9954	3068.4473	3130.7498	3159.1613	3194.7774
COC1OCC=CC1=O	CO[C@H]1OCC=CC1=O	
InChI=1S/C6H8O3/c1-8-6-5(7)3-2-4-9-6/h2-3,6H,4H2,1H3	InChI=1S/C6H8O3/c1-8-6-5(7)3-2-4-9-6/h2-3,6H,4H2,1H3/t6-/m0/s1
