21
gdb 110200	2.23899	1.52726	1.08359	1.3378	79.75	-0.2282	0.0727	0.3009	1200.417	0.179906	-424.1713	-424.161596	-424.160652	-424.205358	36.668	
C	-0.0308634549	 1.4444159652	 0.0959192151	-0.507555
C	-0.0626682403	-0.0420320185	-0.0657350801	 0.410336
C	 0.5812957743	-0.946247805	-1.1466202805	-0.301832
C	 0.036944765	-1.8462540665	-0.0085354386	 0.382417
C	 0.2495296632	-3.3080981247	 0.2380399963	-0.514457
O	 0.6129708162	-0.8811938512	 0.967995224	-0.380331
C	-1.2791876631	-1.0134515417	-0.0131175437	-0.03787
C	-2.1458109243	-1.0040747558	 1.2254282321	-0.129111
O	-2.9479751758	 0.17503882	 1.1710193913	-0.426876
H	 1.0009376309	 1.8021749705	 0.1662791021	 0.12432
H	-0.5084099961	 1.922898557	-0.7648553049	 0.126019
H	-0.57879608	 1.7407288968	 0.9938194932	 0.139735
H	 0.1004200602	-1.0028497966	-2.1273460635	 0.087898
H	 1.6697208381	-0.8910132433	-1.2044564597	 0.098087
H	 1.3187819436	-3.5385237304	 0.2679137467	 0.133451
H	-0.1954822984	-3.6119621655	 1.1906677746	 0.130278
H	-0.2095723804	-3.898172608	-0.5615184126	 0.125682
H	-1.8788099215	-1.0665300002	-0.9277898607	 0.068397
H	-2.7779570492	-1.9067959086	 1.2466934243	 0.079586
H	-1.5027327018	-1.0124860639	 2.1140371381	 0.105506
H	-3.4681604456	 0.2176406705	 1.9787196865	 0.28632
89.2074	138.7675	178.469	189.8268	210.8104	225.5449	251.9647	308.3727	328.6969	383.0713	467.9797	543.6407	596.4003	659.4519	663.9512	724.0883	763.782	845.9072	881.5745	930.7382	1010.8152	1017.4367	1039.7519	1064.1378	1065.2992	1120.8329	1139.4381	1150.8804	1163.4026	1177.1183	1216.9879	1243.05	1258.1693	1285.1541	1351.4941	1396.8294	1409.6974	1423.3791	1457.0866	1477.249	1479.2531	1482.3541	1490.1138	1506.7587	1524.3075	2967.4416	3037.7343	3041.8849	3042.4935	3051.5575	3065.616	3110.5395	3112.73	3113.3126	3127.7314	3136.9032	3828.597
CC12CC(C)(O1)C2CO	C[C@@]12C[C@@](C)(O1)[C@H]2CO	
InChI=1S/C7H12O2/c1-6-4-7(2,9-6)5(6)3-8/h5,8H,3-4H2,1-2H3	InChI=1S/C7H12O2/c1-6-4-7(2,9-6)5(6)3-8/h5,8H,3-4H2,1-2H3/t5-,6-,7+
