21
gdb 39518	2.85575	1.82591	1.46976	0.5242	86.66	-0.2162	0.0192	0.2354	983.6464	0.186966	-349.951773	-349.944906	-349.943962	-349.982535	29.497	
C	-0.1465825022	 1.4279960846	 0.0239192059	-0.269593
C	 1.2842010127	 1.9249743868	 0.0729680946	-0.149469
C	 2.1590474687	 0.9800231797	-0.293383671	 0.230947
C	 3.523166299	 0.7835608558	 0.2903026145	-0.284302
C	 3.3331874015	-0.347335407	 1.3760551161	-0.181746
C	 1.8486217915	-0.5692392833	 1.7791384246	-0.228741
C	 1.0146459516	-0.9423940831	 0.5424560523	-0.021031
C	 0.0365844325	-0.0613208567	-0.2581241778	-0.066552
C	 1.4489991602	-0.2676790819	-0.7352602893	-0.131972
H	-0.6486150291	 1.6266986761	 0.9806790878	 0.104891
H	-0.7658704724	 1.9031339475	-0.7507278855	 0.102069
H	 1.5589276886	 2.8485051893	 0.5736245076	 0.081243
H	 4.2756070648	 0.4679505567	-0.4411831394	 0.096745
H	 3.8823783773	 1.7071723738	 0.7545740655	 0.098361
H	 3.7149116441	-1.2920753691	 0.9735143817	 0.100918
H	 3.936328378	-0.1179881295	 2.260663691	 0.093775
H	 1.799527871	-1.3817171496	 2.511939582	 0.089706
H	 1.4559708441	 0.318135156	 2.2843234337	 0.103168
H	 0.7682999906	-1.9988692686	 0.4667458597	 0.079883
H	-0.7803557948	-0.600433353	-0.7256272684	 0.076953
H	 1.7450793722	-0.8135926348	-1.6253244855	 0.074748
163.012	250.2438	270.2481	344.0461	426.1691	483.6723	514.6027	621.8895	701.2651	734.4436	748.788	793.981	823.2211	831.5037	849.1911	887.6091	916.8478	947.4433	957.2442	983.1174	996.4956	1019.6862	1024.7481	1057.6322	1085.4328	1107.1108	1139.4816	1166.7212	1192.0695	1199.2669	1214.271	1240.6619	1275.7885	1306.56	1319.5494	1338.0416	1353.5782	1358.9309	1370.2798	1401.0111	1479.0866	1481.6714	1492.3374	1501.5418	1686.9899	2998.8448	3028.8076	3029.5809	3040.8844	3046.6798	3068.3274	3079.8797	3092.876	3129.3754	3150.7307	3169.5755	3175.345
C1C=C2CCCC3C1C23	C1[CH][C]2CCC[C@H]3[C@@H]1[C@@H]23	
InChI=1S/C9H12/c1-2-6-4-5-8-7(3-1)9(6)8/h4,7-9H,1-3,5H2	InChI=1S/C9H12/c1-2-6-4-5-8-7(3-1)9(6)8/h4,7-9H,1-3,5H2/t7-,8+,9-/m0/s1
