15
gdb 69230	2.69388	1.68271	1.20269	2.0499	67.82	-0.2618	-0.026	0.2358	1005.5609	0.113994	-453.981175	-453.97361	-453.972665	-454.013092	29.075	
N	-0.0846419437	 1.4387458899	-0.1374582837	-0.585946
C	-0.0719008671	 0.0196662798	-0.01918708	 0.165568
C	-0.4698487975	-0.8184521381	-1.21195579	-0.310233
C	-1.3284829645	-0.8356582813	 0.0301519656	-0.153556
C	-1.0257071111	-1.9360114341	 0.9765816177	 0.422843
N	-1.8274984718	-2.7871525447	 1.435689307	-0.528046
O	 0.3275437658	-1.8783825691	 1.3208040728	-0.230621
C	 0.893664081	-0.6841079492	 0.8951437105	 0.386959
O	 1.9681641651	-0.324936766	 1.2677361382	-0.326184
H	-0.1217859341	 1.8762581072	 0.7784967705	 0.244845
H	 0.771884195	 1.7593550224	-0.5796696314	 0.250238
H	-0.8654738119	-0.2463369186	-2.0427288475	 0.145708
H	 0.1084695594	-1.6964290551	-1.4758430575	 0.142822
H	-2.3251072058	-0.419578541	 0.0057918477	 0.137522
H	-1.3578813486	-3.4217661723	 2.0835583201	 0.238081
134.0378	147.0271	237.9257	264.271	307.0852	355.8938	411.0233	529.2721	557.4931	629.231	696.2936	744.3352	783.3506	806.4943	864.7699	886.9161	897.6623	915.5086	962.7134	1006.0099	1051.9767	1078.8155	1093.6332	1103.0185	1248.0766	1270.7159	1287.2206	1337.1022	1408.0183	1484.6057	1668.4053	1794.6102	1904.7499	3144.4679	3232.6915	3242.459	3482.3119	3497.5651	3569.9965
NC12CC1C(=N)OC2=O	N[C@]12C[C@H]1[C]([NH])OC2=O	
InChI=1S/C5H6N2O2/c6-3-2-1-5(2,7)4(8)9-3/h2,6H,1,7H2	InChI=1S/C5H6N2O2/c6-3-2-1-5(2,7)4(8)9-3/h2,6H,1,7H2/t2-,5+/m0/s1
