17
gdb 19111	4.55694	2.25049	2.18126	0.8558	70.13	-0.2171	0.0886	0.3057	715.5297	0.14391	-326.634472	-326.62857	-326.627626	-326.664052	24.685	
C	-0.1061233187	 1.5430421068	 0.0009263083	-0.324411
N	 0.0332855395	 0.097656568	 0.0189446131	-0.062973
C	 1.0610076338	-0.533952701	-0.8304506031	-0.037449
C	 2.4871002764	-0.1003636396	-0.3419097371	-0.082075
C	 2.6956649944	-1.3600533954	 0.4640014218	-0.113909
C	 2.231866272	-0.1062299542	 1.1658764368	-0.082073
C	 0.7249750602	-0.5416177138	 1.1545161281	-0.037455
C	 1.1959842201	-1.6969462838	 0.2088507984	-0.063175
H	 0.8457301378	 2.076114129	 0.1641148601	 0.100998
H	-0.5151024121	 1.8586503958	-0.9648417486	 0.116934
H	-0.8105741559	 1.8519090954	 0.7806253876	 0.116935
H	 0.8602036663	-0.6373534127	-1.8968687901	 0.066611
H	 3.2227136753	 0.5368085958	-0.8135503853	 0.085401
H	 3.5740781571	-1.9718042257	 0.6103134515	 0.087924
H	 2.7704580722	 0.5264058517	 1.8581559265	 0.085401
H	 0.1844841588	-0.6527676014	 2.0946102503	 0.06661
H	 0.7123464729	-2.6652377749	 0.1232388617	 0.076707
208.4024	210.2974	283.577	581.5369	590.067	679.7613	744.958	782.3736	794.9307	807.9901	830.8607	839.8435	861.3274	869.6634	917.6832	944.846	966.6229	994.7739	1027.3135	1033.1898	1073.3566	1088.7189	1149.6042	1157.7306	1164.1941	1184.8617	1200.3248	1211.6961	1230.1575	1258.8433	1264.7322	1295.0358	1348.6643	1442.1726	1483.9405	1503.755	2964.824	3059.4482	3096.5225	3113.4888	3114.7911	3163.9105	3201.0055	3204.7662	3222.4688
CN1C2C3C4C3C1C24	CN1[C@H]2[C@@H]3[C@H]4[C@@H]3[C@@H]1[C@@H]24	
InChI=1S/C7H9N/c1-8-6-3-2-4(3)7(8)5(2)6/h2-7H,1H3	InChI=1S/C7H9N/c1-8-6-3-2-4(3)7(8)5(2)6/h2-7H,1H3/t2-,3+,4-,5+,6-,7+
