15
gdb 44527	4.52398	1.29058	1.14637	3.8702	72.37	-0.2431	-0.054	0.1891	1029.3082	0.113259	-420.587269	-420.580634	-420.57969	-420.618395	26.274	
O	 0.0778546772	 0.0235267458	 0.0604534105	-0.316731
C	 0.013658109	 1.2258537156	 0.021817658	 0.386718
C	-1.3059588471	 2.065951851	 0.0514296221	-0.371242
C	-0.8284687812	 3.432079751	-0.4328715747	-0.084535
C	-0.8606393325	 4.8361300428	 0.2304737804	 0.00149
O	-0.2051169689	 4.7756531257	 1.4966268675	-0.2244
C	 0.6244202607	 4.8589140848	 0.3153749896	-0.100196
C	 0.658347453	 3.413873024	-0.1273599056	 0.303885
C	 1.1644456583	 2.1953515732	 0.0543677558	-0.33339
H	-2.0929055588	 1.5890921373	-0.5349324798	 0.124348
H	-1.6288445444	 2.1082107542	 1.0983088816	 0.14496
H	-0.9909719539	 3.5672917808	-1.5098389202	 0.106276
H	-1.5593379837	 5.6491801816	 0.0722028172	 0.11427
H	 1.3454171534	 5.6638819417	 0.2649377232	 0.125155
H	 2.1709853588	 1.8895423203	 0.3062173245	 0.123393
107.3125	199.1825	247.4652	376.9623	488.9558	521.4732	595.2379	608.426	685.7066	705.9258	776.137	824.4076	835.262	867.4727	884.0776	920.0006	961.1093	998.7838	1034.88	1055.9929	1086.6611	1119.3424	1162.383	1171.8506	1217.6253	1228.8794	1250.065	1267.8597	1328.0951	1355.7978	1452.9992	1703.8213	1824.618	3032.6492	3054.5175	3127.2172	3191.2981	3215.8672	3228.7231
O=C1CC2C3OC3C2=C1	O=C1C[C@H]2[C@H]3O[C@H]3[C]2[CH]1	
InChI=1S/C7H6O2/c8-3-1-4-5(2-3)7-6(4)9-7/h1,5-7H,2H2	InChI=1S/C7H6O2/c8-3-1-4-5(2-3)7-6(4)9-7/h1,5-7H,2H2/t5-,6+,7-/m1/s1
