14
gdb 11932	3.28486	1.89272	1.53814	5.7489	64.15	-0.2421	-0.0043	0.2378	842.9963	0.107372	-378.679196	-378.672006	-378.671062	-378.710441	27.13	
N	-0.0741043065	 1.4682491967	-0.212941977	-0.580568
C	-0.0150421773	 0.0679748357	-0.0747697165	 0.190302
C	-0.3403343005	-0.8340217573	-1.2375981942	-0.357203
C	-1.1606344633	-0.9593146684	 0.0197383822	 0.313281
O	-0.4615258978	-1.7422723718	 0.9871306512	-0.31164
C	 0.617261715	-0.7689302244	 1.0437750968	-0.132592
C	-2.5744031037	-0.8189410293	 0.111410147	 0.229542
N	-3.7221884648	-0.6884070965	 0.1847275012	-0.349551
H	-0.1056876171	 1.9488920213	 0.6788436669	 0.244131
H	 0.6956269848	 1.8357430833	-0.7611011766	 0.24494
H	-0.8327432926	-0.3225387875	-2.0575864796	 0.149121
H	 0.3032971128	-1.6668124325	-1.5065985257	 0.130222
H	 1.597413111	-1.2207003276	 0.8545557948	 0.114487
H	 0.61937167	-0.2578651918	 2.0142933194	 0.115526
117.0505	160.7419	247.8027	317.1661	352.2249	392.7076	437.0624	554.5502	569.6752	601.7255	693.9307	729.1227	786.3839	850.1116	933.2774	968.7368	988.7606	1042.4217	1070.9237	1106.8166	1146.6609	1170.0335	1280.4037	1301.2802	1337.1419	1411.5617	1481.4356	1514.9662	1658.0974	2345.3317	3023.3739	3079.2164	3123.4357	3227.4842	3512.3717	3596.9208
NC12CC1(OC2)C#N	N[C@]12C[C@]1(OC2)C#N	
InChI=1S/C5H6N2O/c6-2-5-1-4(5,7)3-8-5/h1,3,7H2	InChI=1S/C5H6N2O/c6-2-5-1-4(5,7)3-8-5/h1,3,7H2/t4-,5-/m0/s1
