17
gdb 124179	4.68038	0.82966	0.71093	3.0314	82.4	-0.2297	0.031	0.2607	1560.4218	0.136827	-380.872403	-380.863346	-380.862402	-380.909683	31.303	
C	 0.1530267194	 1.3544164215	-0.780635224	-0.499392
C	 0.0525517637	-0.0058551025	-0.2691850206	 0.101156
C	-0.0050177265	-1.128552768	 0.1628895334	 0.029085
C	-0.0992865269	-2.4926824093	 0.6786089829	-0.483419
C	-1.4204637923	-3.1570020925	 0.3851482953	 0.397261
C	-1.9016262206	-4.4201659151	 0.6768340106	-0.309939
C	-3.2060787595	-4.436999426	 0.1407960428	-0.004471
N	-3.5219938502	-3.282117698	-0.4405017026	-0.238027
N	-2.4196357244	-2.5267355534	-0.2757323961	-0.233822
H	 1.1345246667	 1.785831055	-0.5562119283	 0.154755
H	 0.0193775788	 1.3834598298	-1.8674023589	 0.152224
H	-0.6051544084	 2.0064140847	-0.3336126689	 0.152117
H	 0.7125738163	-3.1007402495	 0.2578842111	 0.152353
H	 0.0699521774	-2.4862869509	 1.7637273741	 0.152425
H	-1.3834709474	-5.2083506239	 1.199260319	 0.097825
H	-3.9259397748	-5.2424952806	 0.1548639688	 0.108464
H	-2.3891538112	-1.5850052212	-0.6319505187	 0.271404
7.6787	29.8974	77.5525	194.778	237.5993	240.9513	338.1633	373.7879	462.3959	567.2903	651.0569	701.2815	713.7906	776.6073	794.825	893.0357	940.5352	948.5458	1033.7585	1052.6393	1054.9939	1062.5279	1131.0136	1164.1781	1218.8484	1236.4314	1287.5713	1311.0764	1371.4609	1415.7052	1440.288	1466.5217	1477.9026	1479.0452	1509.4999	1594.8942	2372.8556	3013.9095	3030.3148	3035.5815	3092.0885	3092.957	3241.205	3265.3292	3657.6624
CC#CCC1=CC=NN1	CC#CCc1ccn[nH]1	
InChI=1S/C7H8N2/c1-2-3-4-7-5-6-8-9-7/h5-6H,4H2,1H3,(H,8,9)	InChI=1S/C7H8N2/c1-2-3-4-7-5-6-8-9-7/h5-6H,4H2,1H3,(H,8,9)
