17
gdb 92393	2.29692	1.61956	1.28079	2.3043	73.43	-0.2529	-0.0025	0.2504	1048.0276	0.136251	-417.974497	-417.96637	-417.965426	-418.007155	30.628	
C	 0.2242335727	 1.5425591406	-0.0724779856	-0.41445
C	 0.0589985842	 0.0513982758	 0.0780364432	 0.129736
O	 0.8793414266	-0.7260854234	-0.8424135659	-0.311953
C	 1.3770901476	-1.5744856573	 0.1972563067	 0.057724
C	 2.7403631343	-1.1388668712	 0.7655960825	-0.184562
N	 2.0587003097	-0.1244040851	 1.6244251115	-0.357595
C	 0.7193642802	-0.6744374047	 1.2888256576	 0.156214
C	-0.1023645322	-1.1252285634	 2.3853112476	 0.182612
N	-0.7528169096	-1.4794304787	 3.2742153261	-0.336798
H	 1.2488343902	 1.836531488	 0.1624873784	 0.144813
H	-0.0114107682	 1.8361085681	-1.0997891489	 0.133227
H	-0.4621631866	 2.0684740149	 0.5993974765	 0.126176
H	-0.9912778831	-0.2520829605	-0.0253788808	 0.092195
H	 1.1721118647	-2.6334734949	 0.032838516	 0.104881
H	 3.2337140913	-1.9417375199	 1.3264499855	 0.112965
H	 3.4377592399	-0.7099712086	 0.0411496222	 0.124386
H	 2.2873024082	-0.1802781697	 2.6094030875	 0.240429
109.3987	129.1757	176.9622	216.5261	260.2944	349.0888	368.2095	489.9175	519.5977	550.6351	601.7363	636.6161	708.138	839.4966	871.6244	900.195	965.2824	978.8079	1001.6355	1044.8627	1088.7044	1104.4005	1126.9727	1140.5765	1163.5005	1198.3432	1213.9164	1290.0664	1317.8645	1339.1146	1371.078	1395.3612	1413.3625	1479.5167	1492.8532	1496.1602	2345.4932	3018.3294	3030.0722	3044.9123	3098.3247	3103.1537	3113.0334	3143.6996	3560.1595
CC1OC2CNC12C#N	C[C@H]1O[C@H]2CN[C@@]12C#N	
InChI=1S/C6H8N2O/c1-4-6(3-7)5(9-4)2-8-6/h4-5,8H,2H2,1H3	InChI=1S/C6H8N2O/c1-4-6(3-7)5(9-4)2-8-6/h4-5,8H,2H2,1H3/t4-,5+,6+/m1/s1
