23
gdb 121983	2.19989	0.75225	0.58554	4.0465	84.47	-0.274	0.0109	0.2848	1953.7895	0.202734	-425.46784	-425.456571	-425.455627	-425.505928	39.055	
C	-0.0284181944	 1.5679924562	 0.0047205686	-0.381044
C	 0.0020957021	 0.0378766094	-0.0335758663	-0.165968
C	 0.7184282747	-0.5165752167	-1.2697684252	-0.174792
C	 0.7486998665	-2.0473959358	-1.3102680476	-0.183106
C	 1.4645406413	-2.6250880524	-2.5300493744	 0.102268
C	 1.549940693	-4.1474458929	-2.5155613993	-0.393811
O	 0.7281402464	-2.2161870301	-3.7068617429	-0.187541
C	 1.4135378967	-1.7557848459	-4.7658690513	 0.171009
O	 0.8900313566	-1.4406946976	-5.792902042	-0.280273
H	 0.9851659173	 1.9842896633	 0.0151237683	 0.113413
H	-0.5428187802	 1.9749426106	-0.8726819594	 0.118728
H	-0.5476864343	 1.9347826856	 0.8954600599	 0.11275
H	 0.4918903554	-0.3425444324	 0.8729200838	 0.092993
H	-1.0245504731	-0.3503411048	-0.0082568839	 0.098824
H	 0.2259842446	-0.1423366173	-2.1750149686	 0.116885
H	 1.7476195554	-0.1303644933	-1.2957960907	 0.088318
H	 1.2503864031	-2.4336099364	-0.4138322182	 0.099149
H	-0.2746987603	-2.4431400579	-1.2908154643	 0.111159
H	 2.4757062665	-2.197305608	-2.5936681865	 0.085301
H	 2.0990079556	-4.4904493261	-1.633447437	 0.122465
H	 0.5475834715	-4.585261698	-2.4931740593	 0.135923
H	 2.0649391217	-4.5183325841	-3.4065167785	 0.124128
H	 2.504494724	-1.6945347254	-4.5791021752	 0.073222
34.6723	62.8728	76.7761	121.0353	139.4649	161.5051	220.4092	245.5784	262.4389	274.9725	307.0382	405.2521	490.9752	521.401	611.0791	738.4143	795.0335	886.1261	904.9817	923.4974	946.8899	1021.4106	1030.6716	1048.0818	1065.4317	1075.4152	1137.723	1146.2951	1175.5844	1217.9185	1255.4114	1277.0212	1318.4093	1333.4159	1341.0538	1376.7746	1387.1638	1403.6059	1411.4291	1415.3002	1440.2342	1472.8717	1486.07	1488.2736	1496.2273	1499.2523	1500.4195	1512.5851	1861.5725	2935.2427	3000.222	3005.6194	3013.5648	3024.6343	3030.2664	3040.9168	3042.0631	3056.507	3076.9005	3097.352	3103.6886	3116.4302	3120.5511
CCCCC(C)OC=O	CCCC[C@@H](C)OC=O	
InChI=1S/C7H14O2/c1-3-4-5-7(2)9-6-8/h6-7H,3-5H2,1-2H3	InChI=1S/C7H14O2/c1-3-4-5-7(2)9-6-8/h6-7H,3-5H2,1-2H3/t7-/m1/s1
