17
gdb 68679	2.33208	1.83544	1.50818	1.6446	68.16	-0.2536	-0.0224	0.2313	957.0604	0.135487	-458.958064	-458.950194	-458.94925	-458.990231	29.935	
C	 0.0409183195	 1.5645931686	 0.0598070795	-0.480814
C	-0.032479506	 0.0631254139	-0.0349658128	 0.235397
C	 0.8310895928	-0.5915477081	-1.1191126364	-0.100866
O	 0.473074305	-1.9595401309	-1.295053119	-0.26923
C	 0.159796796	-2.6554758809	-0.0917955627	-0.07853
C	-0.6063393808	-1.7333591381	 0.8519145272	-0.058872
O	 0.2896389544	-0.642251612	 1.216798469	-0.333744
C	-1.380347093	-0.6924567166	 0.0192861817	 0.404917
O	-2.5118339019	-0.464249477	-0.271360603	-0.307103
H	 1.0791301907	 1.9049071341	 0.1295954994	 0.132853
H	-0.4125845197	 2.0164593307	-0.8273451265	 0.141206
H	-0.4993884906	 1.9141321296	 0.9425941393	 0.141978
H	 0.6851462919	-0.1159256683	-2.0937038731	 0.121595
H	 1.8856292474	-0.4863351652	-0.821513725	 0.107978
H	-0.4379548507	-3.5228166276	-0.3881002296	 0.124812
H	 1.0691147381	-3.0026486008	 0.4212706078	 0.111199
H	-1.0639491931	-2.2266699315	 1.7117537842	 0.107226
135.9405	145.8733	214.4131	223.6374	254.9805	315.2433	440.3092	485.4045	501.6892	535.2021	671.3651	712.9412	812.47	846.3248	875.939	901.9994	916.6404	982.0867	1001.7389	1036.1773	1046.0847	1130.4736	1149.7152	1183.565	1211.0235	1254.1931	1271.6285	1294.9262	1303.9373	1370.7194	1405.5343	1413.0228	1475.7519	1481.4356	1490.6097	1492.6881	1923.3851	2991.8868	3000.3673	3043.6007	3087.0051	3088.6234	3105.9291	3114.2371	3131.3099
CC12COCC(O1)C2=O	C[C@@]12COC[C@@H](O1)C2=O	
InChI=1S/C6H8O3/c1-6-3-8-2-4(9-6)5(6)7/h4H,2-3H2,1H3	InChI=1S/C6H8O3/c1-6-3-8-2-4(9-6)5(6)7/h4H,2-3H2,1H3/t4-,6+/m1/s1
