22
gdb 97404	4.61777	0.70129	0.66982	2.717	88.74	-0.2442	0.0261	0.2703	1801.2891	0.190847	-404.336691	-404.325993	-404.325049	-404.372921	38.421	
C	 0.3659871665	 1.2192366252	 0.3597729751	-0.313911
N	-0.2569377289	 0.1005425446	-0.3157208866	-0.206222
C	 0.4934149906	-0.6705182021	-0.9651528352	 0.129719
O	-0.0194812001	-1.7409166079	-1.6151394673	-0.208735
C	 0.8970992948	-2.4917483415	-2.3743765522	 0.075563
C	 1.8366795837	-3.4438803384	-1.6732692812	-0.358487
C	 0.6598245852	-3.9713895692	-2.4775607675	 0.302914
C	-0.5069795135	-4.5727110507	-1.7177762433	-0.448251
C	 0.9535511061	-4.6256023698	-3.8142931459	-0.452271
H	 1.4588013496	 1.2750976306	 0.2238712289	 0.094661
H	-0.0729909752	 2.1568916067	-0.0000187943	 0.127328
H	 0.1567003633	 1.1633854478	 1.4342467389	 0.126947
H	 1.5842228862	-0.5634462827	-1.0634638573	 0.078265
H	 1.2511565618	-1.9672844505	-3.259912011	 0.097626
H	 2.8424294187	-3.5592770197	-2.0641281396	 0.112378
H	 1.7604484329	-3.494695788	-0.5922351203	 0.121645
H	-0.709327024	-4.0282219376	-0.7938441748	 0.13467
H	-1.4192833395	-4.5473380194	-2.3241046076	 0.120266
H	-0.3006779704	-5.6191840506	-1.4669860404	 0.113111
H	 1.2208390225	-5.6799401879	-3.6796271	 0.119255
H	 0.0784398416	-4.5842814855	-4.472798902	 0.121475
H	 1.7858818481	-4.1367118232	-4.3304965663	 0.112055
45.2033	73.2835	103.6354	186.6902	198.4696	213.1102	227.1853	255.0949	310.0991	319.2741	364.6017	406.1244	438.4979	521.6647	609.7318	707.4124	847.4295	885.007	917.9347	975.2606	985.3164	992.6322	1024.6541	1047.7122	1065.323	1078.5156	1116.9155	1136.7604	1141.936	1158.9917	1181.1639	1239.3869	1288.5089	1339.7412	1391.8435	1409.3212	1418.9862	1425.6553	1450.029	1480.4671	1481.2175	1483.147	1491.2732	1501.2649	1504.4214	1514.6962	1779.117	2965.6768	3005.4525	3024.3489	3033.1232	3057.2085	3076.4144	3087.4047	3090.7358	3098.1735	3119.1402	3128.5835	3133.8069	3217.4608
CN=COC1CC1(C)C	CN=CO[C@H]1CC1(C)C	
InChI=1S/C7H13NO/c1-7(2)4-6(7)9-5-8-3/h5-6H,4H2,1-3H3	InChI=1S/C7H13NO/c1-7(2)4-6(7)9-5-8-3/h5-6H,4H2,1-3H3/t6-/m0/s1
