16
gdb 35585	2.84166	1.59064	1.3355	4.3763	67.89	-0.2713	-0.0032	0.2681	978.2361	0.12602	-437.880684	-437.873402	-437.872457	-437.912804	27.397	
N	 0.4958518295	-1.1223253475	 0.2587926567	-0.325116
C	 0.3163592309	 0.0139992291	 0.1502333518	 0.308782
C	 0.0949886501	 1.4504367467	 0.0028813477	-0.065844
O	-0.281857841	 2.1055389468	 1.2295002507	-0.300802
C	 0.7844394748	 3.0866045581	 1.1072364436	 0.0948
C	 1.8688970257	 2.9373101231	 2.1655601045	-0.243678
C	 2.6750167903	 1.7349077519	 1.6480136954	-0.102357
O	 2.5925629485	 1.8125081964	 0.2143720751	-0.248501
C	 1.3600337389	 2.365230634	-0.1365642895	 0.056505
H	-0.6493258752	 1.6191791059	-0.785825769	 0.12533
H	 0.383047143	 4.0967912859	 0.997278393	 0.09263
H	 2.4845708514	 3.8423600764	 2.1835732476	 0.116703
H	 1.4483263909	 2.7774781584	 3.16074861	 0.129369
H	 3.7336659736	 1.7621217467	 1.912656051	 0.123135
H	 2.2473438542	 0.7887647668	 1.9997334783	 0.131115
H	 1.4559138344	 2.8815126014	-1.0917680469	 0.10793
80.769	132.0221	221.6917	239.3637	366.154	376.3656	529.6885	583.959	659.8857	674.5223	786.1118	840.7559	863.2142	900.1327	935.2879	962.1942	970.6933	1000.6383	1026.3529	1062.9796	1102.3871	1139.6858	1184.8015	1218.6941	1228.3355	1250.3643	1294.2784	1315.5337	1325.0612	1354.5719	1363.1935	1401.6219	1466.5766	1523.554	2357.6284	3028.31	3044.0066	3059.0992	3086.13	3114.4283	3119.2984	3125.9754
N#CC1OC2CCOC12	N#C[C@H]1O[C@H]2CCO[C@@H]12	
InChI=1S/C6H7NO2/c7-3-5-6-4(9-5)1-2-8-6/h4-6H,1-2H2	InChI=1S/C6H7NO2/c7-3-5-6-4(9-5)1-2-8-6/h4-6H,1-2H2/t4-,5+,6+/m0/s1
