16
gdb 11664	3.13597	1.96946	1.55131	2.8192	64.91	-0.2456	0.006	0.2516	858.3855	0.130787	-383.701968	-383.694665	-383.693721	-383.733832	27.357	
O	 0.0126669113	 1.3918569855	 0.0407154956	-0.417695
C	 0.0043805481	-0.0188967008	-0.1123731057	-0.205865
C	-1.3994437249	-0.5564161336	-0.0610251297	 0.185799
C	-2.5981580764	-0.3117179771	-1.0499631039	-0.25916
C	-3.2464208081	-1.1776080757	 0.0864773759	-0.171993
C	-1.9296228125	-2.031321788	 0.036718416	-0.284983
C	-2.4484820952	-0.2643546762	 1.0229383792	 0.4335
O	-2.5517470525	 0.3704678301	 2.0303313944	-0.348739
H	-0.390476607	 1.5888535071	 0.894370565	 0.299618
H	 0.4746427866	-0.2272308546	-1.0793928702	 0.116033
H	 0.6133204498	-0.5164507402	 0.6597365932	 0.098203
H	-2.9485096742	 0.7135879856	-1.174696392	 0.12252
H	-2.4987959613	-0.8320053324	-2.0059231174	 0.108854
H	-4.2711541082	-1.5343112502	 0.1520768769	 0.098431
H	-1.8111346613	-2.6149401673	-0.879605142	 0.110559
H	-1.664428964	-2.6086310023	 0.9246645445	 0.114916
67.8926	143.6837	192.0126	246.4957	397.4483	431.3312	475.4231	517.257	679.5372	719.9032	783.4237	789.667	820.1309	895.1722	946.577	979.599	1006.1215	1022.1611	1038.8242	1063.6083	1081.3027	1128.1645	1138.0777	1180.7044	1195.3149	1225.1789	1253.8476	1348.1069	1384.5555	1430.1206	1495.6338	1500.9185	1531.7733	1898.5861	2976.0961	3061.3564	3065.1546	3068.6153	3133.2176	3143.1168	3155.9556	3796.6766
OCC12CC(C1)C2=O	OC[C@@]12C[C@@H](C1)C2=O	
InChI=1S/C6H8O2/c7-3-6-1-4(2-6)5(6)8/h4,7H,1-3H2	InChI=1S/C6H8O2/c7-3-6-1-4(2-6)5(6)8/h4,7H,1-3H2/t4-,6+
