17
gdb 54320	2.72461	1.37337	1.11854	3.7175	68.04	-0.2482	0.0104	0.2586	1117.8389	0.135952	-455.124736	-455.116069	-455.115124	-455.158387	32.181	
N	-0.0249767271	 1.2820201374	-0.057995636	-0.529766
C	 0.0857341819	-0.0673257733	 0.0520710048	 0.340964
O	 1.1273239234	-0.6669930726	 0.2303295942	-0.362027
C	-1.2433307443	-0.8067945156	-0.0209071708	 0.261648
C	-2.2450382209	-0.5087292404	 1.0214354126	-0.199715
O	-2.3947265127	 0.0024661641	-0.3092694177	-0.285272
C	-1.1840543781	-2.1426103385	-0.7016282486	-0.055682
C	-2.4255027614	-2.8250062145	-1.129125763	-0.253642
N	-1.5213745697	-2.2352705395	-2.1343551335	-0.322472
H	 0.8173234866	 1.8326366467	-0.0742349288	 0.26643
H	-0.8999740907	 1.6863149204	-0.3477809024	 0.273811
H	-2.9551936161	-1.2832651832	 1.3013128125	 0.130392
H	-2.0262919088	 0.2394208781	 1.7806317048	 0.131598
H	-0.3132142888	-2.7220833419	-0.4136673139	 0.123649
H	-2.4695771946	-3.91009685	-1.1278404951	 0.121967
H	-3.3714301399	-2.3239423595	-0.943626166	 0.120068
H	-1.9190813389	-1.3468414977	-2.4351208131	 0.238048
73.4378	80.0098	174.02	209.8331	268.3665	305.6542	348.8855	378.5052	473.8062	505.5513	579.5253	635.1365	676.3637	766.5681	835.1426	845.8875	876.8967	930.9929	937.8208	985.3424	1024.9524	1090.212	1109.1174	1130.7254	1143.5371	1162.1962	1176.8064	1201.7522	1272.0121	1304.205	1346.8836	1392.6495	1427.0143	1500.8168	1512.6557	1594.4551	1803.4096	3097.3707	3114.0735	3174.4277	3194.1798	3201.7247	3482.9871	3596.0329	3734.2214
NC(=O)C1(CO1)C1CN1	NC(=O)[C@]1(CO1)[C@H]1CN1	
InChI=1S/C5H8N2O2/c6-4(8)5(2-9-5)3-1-7-3/h3,7H,1-2H2,(H2,6,8)	InChI=1S/C5H8N2O2/c6-4(8)5(2-9-5)3-1-7-3/h3,7H,1-2H2,(H2,6,8)/t3-,5+/m1/s1
