18
gdb 66229	4.39652	0.70845	0.67597	5.2335	74.04	-0.2753	0.0056	0.2809	1657.8453	0.144776	-439.060759	-439.051012	-439.050068	-439.096682	33.842	
C	-0.041733975	 1.580814649	-0.0797290966	-0.463786
C	-0.0580657415	 0.0722894527	 0.007431565	 0.404005
C	-1.3414144989	-0.5578996609	 0.498280519	-0.116865
O	-1.7118631035	 0.0602982165	 1.7206810102	-0.240969
C	-2.8902211962	-0.4794796568	 2.2602364478	-0.179019
C	-3.2407483298	 0.2496721907	 3.4827823013	 0.266245
N	-3.5459290052	 0.8063030751	 4.4468520999	-0.289568
C	 0.8155654695	-0.7433621861	-0.8488197597	-0.231757
O	 1.1340254877	-0.5323446306	 0.5265923931	-0.263382
H	 0.9323489892	 1.9286243969	-0.4303819048	 0.128939
H	-0.8124930999	 1.9381201295	-0.7712788137	 0.119662
H	-0.2401411494	 2.0176972942	 0.9018282611	 0.152758
H	-2.1411436058	-0.4201567474	-0.2496297868	 0.097879
H	-1.1870394747	-1.6374153834	 0.6425019985	 0.104188
H	-3.7338211739	-0.4025968614	 1.5538826467	 0.139024
H	-2.7718105563	-1.547079899	 2.5082363301	 0.143971
H	 0.5323352036	-1.7620932437	-1.1136175866	 0.111105
H	 1.4662616	-0.2456058554	-1.5665429245	 0.117568
39.8646	75.8498	91.4706	127.8343	199.5726	223.0446	297.3565	355.5897	367.3774	385.7849	419.5768	476.0885	593.3441	746.8284	843.8818	900.861	933.9091	962.3233	972.2263	1029.647	1038.4345	1072.7462	1120.0822	1133.6096	1153.3097	1173.6155	1251.4209	1262.0029	1301.7218	1365.4465	1401.7905	1415.9725	1450.838	1479.781	1488.9367	1499.5635	1510.9218	1532.24	2375.2055	2959.0941	2969.5273	2993.5915	3017.6011	3044.8485	3077.4744	3115.8529	3138.3913	3162.7849
CC1(COCC#N)CO1	C[C@@]1(COCC#N)CO1	
InChI=1S/C6H9NO2/c1-6(5-9-6)4-8-3-2-7/h3-5H2,1H3	InChI=1S/C6H9NO2/c1-6(5-9-6)4-8-3-2-7/h3-5H2,1H3/t6-/m1/s1
