17
gdb 51223	4.25256	1.01735	0.99881	2.659	72.03	-0.2382	-0.026	0.2122	1210.9837	0.134799	-421.760424	-421.752735	-421.751791	-421.7936	28.916	
O	-0.2353987605	 0.0330685531	 0.1085531792	-0.23595
C	 0.0073021089	 1.2091458204	 0.0409419701	 0.167546
C	 1.3743169632	 1.7922602417	-0.2746579353	-0.405909
C	 1.3061559652	 2.83744249	-1.3526754732	 0.274156
C	 0.9885749433	 2.6515905397	-2.8410534971	-0.283527
C	 1.4592074346	 4.1189374679	-2.9914238461	 0.070752
O	 0.4344358629	 4.881479226	-2.2885326284	-0.292792
C	 0.9677023697	 4.3257880085	-1.0910742538	 0.057235
C	 2.2938920125	 3.9653294149	-1.6640400958	-0.205096
H	-0.7849613208	 1.9737038627	 0.2128808833	 0.080706
H	 1.7519962022	 2.2502740772	 0.652274812	 0.122682
H	 2.0496098164	 0.9705591716	-0.5348826886	 0.125127
H	 1.6864743587	 1.950730075	-3.3071397256	 0.108728
H	-0.0391851967	 2.4366332987	-3.1505041232	 0.107629
H	 1.7611377828	 4.5616097014	-3.9375121063	 0.09355
H	 0.6675177064	 4.7356034683	-0.1352799728	 0.111051
H	 3.3196058013	 4.148726293	-1.3754967884	 0.10411
57.5399	74.3323	150.947	275.181	339.0905	439.6006	459.2688	541.4321	650.2247	738.9947	774.2074	791.3151	810.3629	842.5932	911.1397	918.7063	943.8238	948.9114	990.1973	1030.9199	1044.5771	1061.3121	1073.4829	1134.6035	1151.6678	1161.9539	1191.9718	1217.6915	1248.1505	1289.5068	1305.9953	1315.707	1400.1388	1423.9256	1454.4625	1488.5001	1837.3157	2870.3663	3003.2924	3048.0317	3079.737	3111.0015	3153.3249	3200.0581	3214.5773
O=CCC12CC3OC1C23	O=CC[C@@]12C[C@H]3O[C@@H]1[C@@H]23	
InChI=1S/C7H8O2/c8-2-1-7-3-4-5(7)6(7)9-4/h2,4-6H,1,3H2	InChI=1S/C7H8O2/c8-2-1-7-3-4-5(7)6(7)9-4/h2,4-6H,1,3H2/t4-,5+,6-,7+/m1/s1
