17
gdb 78889	2.6497	2.11444	1.49011	1.855	69.13	-0.2196	0.0669	0.2865	890.8725	0.136799	-421.767735	-421.760775	-421.759831	-421.798565	29.267	
O	-0.0177509668	 1.3961991847	-0.0460637226	-0.44797
C	 0.0503178573	-0.0251883361	-0.0437288054	 0.061808
C	 0.6049875634	-0.6584007636	 1.2104418803	-0.130514
C	-0.50622007	-0.8656212871	 2.2376399987	-0.104408
C	-0.0049747822	-2.0331667714	 1.4146340235	-0.088969
C	-1.3155771896	-2.01483665	 0.5776011242	-0.13861
C	-1.8099589061	-0.8333461687	 1.4063124933	-0.175127
C	-1.3342100156	-0.6510518685	-0.0400603149	 0.378606
O	-2.2205045077	-0.3609437275	-1.0604316829	-0.485622
H	-0.3785785065	 1.6587267042	 0.8095635964	 0.282565
H	 0.6133859044	-0.2953110749	-0.9426352948	 0.096293
H	 1.6164454009	-0.4642586686	 1.5449893401	 0.093571
H	-0.3968054263	-0.6735965744	 3.2965362925	 0.090293
H	 0.5560230875	-2.9055313333	 1.7208974301	 0.092072
H	-1.8667523751	-2.8640232277	 0.1985321981	 0.097599
H	-2.814868528	-0.612076932	 1.7368753017	 0.091502
H	-2.1925689398	 0.5984535748	-1.1717971484	 0.286911
173.5607	210.9072	316.1754	358.9996	374.8555	437.4213	541.8582	576.778	596.1923	713.5233	739.4226	758.7028	774.8843	810.3373	846.0914	889.3615	919.2742	940.361	944.1714	951.4924	990.633	998.0457	1043.6358	1058.0029	1072.0805	1108.4637	1142.6378	1194.4979	1219.1254	1251.2094	1261.0866	1275.4115	1300.3408	1346.1079	1370.982	1429.237	1455.7521	3073.4155	3193.857	3195.6125	3208.5752	3211.9764	3221.601	3764.8018	3786.1987
OC1C2C3C2C2C3C12O	O[C@H]1[C@H]2[C@@H]3[C@H]2[C@H]2[C@@H]3[C@@]12O	
InChI=1S/C7H8O2/c8-6-3-1-2(3)5-4(1)7(5,6)9/h1-6,8-9H	InChI=1S/C7H8O2/c8-6-3-1-2(3)5-4(1)7(5,6)9/h1-6,8-9H/t1-,2+,3-,4+,5-,6-,7-/m0/s1
