17
gdb 37647	3.28305	2.43648	2.16097	0.3028	72.5	-0.1954	0.0666	0.262	738.1513	0.140489	-380.767895	-380.762791	-380.761846	-380.796956	23.305	
C	-0.0325022678	 1.532430682	-0.0263552529	-0.179107
C	 1.4831546539	 1.5429959336	 0.0858445092	-0.00714
C	 1.3976928371	 0.087256547	 0.6179942591	-0.026646
C	 2.361803932	-0.3680767631	-0.4876265966	-0.005707
C	 1.5572742777	-1.0629335802	-1.5883321487	-0.119164
C	 0.2152627349	-0.4372386645	-1.3655725833	-0.035736
C	 1.2783517579	 0.3349648048	-2.131642002	-0.053206
N	 2.1950180886	 0.9845358522	-1.1552144088	-0.156901
N	 0.0003219779	 0.0196284841	 0.0050730917	-0.136864
H	-0.5275567696	 1.9274336129	 0.865957709	 0.10724
H	-0.4979417115	 1.9549488108	-0.9226471529	 0.10523
H	 2.0328781863	 2.3727288903	 0.5335033742	 0.074118
H	 1.4559072296	-0.2459460106	 1.6558072031	 0.073015
H	 3.3786879935	-0.6810516108	-0.2463909674	 0.075828
H	 1.7499999525	-2.0011421873	-2.089020795	 0.098285
H	-0.6492871767	-0.8116868927	-1.9033093849	 0.094679
H	 1.1786300236	 0.6978185117	-3.1485221539	 0.092075
364.8118	429.3046	566.9372	616.0236	694.4286	709.8129	735.0527	775.5557	799.4352	814.3799	842.4186	883.5704	907.8494	932.4904	949.402	951.792	976.6041	989.5406	1001.8929	1013.0919	1044.2105	1055.1889	1088.1523	1102.5855	1116.7854	1181.8403	1193.9269	1208.4903	1220.6559	1242.8786	1254.7152	1272.1101	1287.9184	1297.2855	1316.4747	1369.0348	1495.4518	3042.055	3082.1284	3090.5251	3095.7601	3102.7188	3164.0839	3172.3571	3215.8154
C1C2C3C4C5C(C5N24)N13	C1[C@H]2[C@@H]3[C@H]4[C@H]5[C@H]([C@H]5N24)N13	
InChI=1S/C7H8N2/c1-2-4-6-3-5(8(1)4)7(3)9(2)6/h2-7H,1H2	InChI=1S/C7H8N2/c1-2-4-6-3-5(8(1)4)7(3)9(2)6/h2-7H,1H2/t2-,3+,4+,5+,6+,7-/m0/s1
