15
gdb 28302	5.14653	1.28987	1.03798	2.6939	74.21	-0.1906	-0.0129	0.1777	1079.126	0.115215	-416.85369	-416.846869	-416.845925	-416.884678	27.218	
O	 0.0778565418	 1.3230350435	-0.0184982894	-0.435656
C	 0.0643145385	-0.0265610321	-0.0690581289	 0.341611
C	 0.012933645	-0.8029840558	-1.2051613518	-0.268576
N	 0.0215063422	-2.0965742683	-0.7065852147	 0.01155
C	-0.0065630519	-3.4371187881	-1.1283904126	-0.020842
C	 0.0287909219	-4.2448731127	-0.059420285	-0.136656
C	 0.0859713839	-3.4130815821	 1.2125723702	-0.412636
C	 0.075778163	-2.020415066	 0.6537364896	 0.39088
N	 0.1031719839	-0.7761250702	 1.0822007734	-0.451133
H	 0.1165068347	 1.5537337393	 0.9176354261	 0.300904
H	-0.0262188607	-0.5625988934	-2.2516194677	 0.131931
H	-0.0500692249	-3.6768010782	-2.1802171845	 0.138139
H	 0.018739666	-5.3235389669	-0.0828695846	 0.115879
H	-0.7696848266	-3.6052088126	 1.8713450157	 0.147304
H	 0.9874351934	-3.6201231762	 1.8020987441	 0.147301
131.5803	255.0019	318.6017	319.6904	372.321	435.3221	533.218	571.3236	636.2806	664.3615	706.7095	723.9296	743.3903	806.4466	903.1035	906.5073	938.8774	943.1328	1014.2852	1090.8468	1135.0937	1147.9785	1189.0779	1231.5755	1257.9942	1309.8451	1380.8745	1421.3152	1445.5405	1460.0708	1566.4421	1637.3511	1652.8396	3038.2877	3065.548	3245.9822	3268.4545	3300.6919	3803.837
OC1=CN2C=CCC2=N1	Oc1cn2C=CCc2n1	
InChI=1S/C6H6N2O/c9-6-4-8-3-1-2-5(8)7-6/h1,3-4,9H,2H2	InChI=1S/C6H6N2O/c9-6-4-8-3-1-2-5(8)7-6/h1,3-4,9H,2H2
