17
gdb 112155	3.30024	1.12561	0.89398	3.7749	71.99	-0.2697	-0.0429	0.2268	1285.744	0.135398	-459.017689	-459.008932	-459.007987	-459.05152	31.733	
C	 0.0716006381	 1.493824407	 0.0685587126	-0.488628
C	-0.0344895313	 0.0076726357	 0.0159295231	 0.167552
C	-1.0879388856	-0.8075431111	 0.1018630578	-0.219025
C	-0.6435301607	-2.2337996734	-0.0227708452	 0.034059
C	-1.1956635755	-2.9859897326	-1.2387825665	-0.060041
O	-0.6705093687	-4.2902859859	-1.3193295858	-0.414982
O	 0.7845543771	-2.1543517514	-0.1619865837	-0.249414
C	 1.179332229	-0.8383070387	-0.1591596736	 0.388027
O	 2.3235923621	-0.5035684382	-0.2820088782	-0.343364
H	 0.7166865075	 1.8024822438	 0.8980863754	 0.15153
H	 0.5396633927	 1.8765586819	-0.8445308938	 0.151451
H	-0.9065493992	 1.9646315736	 0.1882858169	 0.12751
H	-2.125754286	-0.5270981105	 0.2330409603	 0.125862
H	-0.8569226724	-2.8218180613	 0.8796605341	 0.117164
H	-2.2824596948	-3.0835174493	-1.144310176	 0.114989
H	-0.9831864097	-2.3943821812	-2.1428671368	 0.098891
H	 0.2895304372	-4.2026979784	-1.3477389406	 0.298419
90.3103	111.2828	126.5236	149.3705	251.8907	270.4845	355.0888	403.0611	434.0726	495.3344	567.2942	611.7725	731.6844	773.3487	797.8668	871.0651	911.307	983.0833	1018.4089	1067.222	1071.2501	1081.2327	1089.9206	1113.3057	1216.306	1222.436	1284.5339	1332.0284	1356.5251	1388.3129	1415.6909	1427.1685	1472.8062	1483.4329	1495.2656	1716.0183	1866.3298	2987.2769	3031.2471	3041.3623	3079.1242	3096.3605	3130.6027	3214.1063	3799.5655
CC1=CC(CO)OC1=O	CC1=C[C@@H](CO)OC1=O	
InChI=1S/C6H8O3/c1-4-2-5(3-7)9-6(4)8/h2,5,7H,3H2,1H3	InChI=1S/C6H8O3/c1-4-2-5(3-7)9-6(4)8/h2,5,7H,3H2,1H3/t5-/m0/s1
