16
gdb 102239	2.31006	1.09119	0.91436	4.337	66.84	-0.2931	-0.0148	0.2783	1325.5179	0.12129	-475.060631	-475.050617	-475.049673	-475.097848	33.56	
C	-0.2536719747	 1.4141573598	-0.0054227879	-0.484632
C	-0.0064311921	-0.0601997087	 0.1702643423	 0.446365
O	 1.0010415993	-0.5713271169	 0.5754040513	-0.329096
O	-1.1153263474	-0.7696782599	-0.2064854069	-0.262195
C	-1.0259937342	-2.2064525733	-0.1302727192	-0.067532
C	-2.2008858482	-2.6931118924	 0.7275523639	-0.071654
O	-3.4461671394	-2.322365526	 0.1944484505	-0.40415
C	-1.0685306465	-2.7439998929	-1.4962863553	 0.293417
N	-1.0866238101	-3.189910343	-2.5611774601	-0.310775
H	 0.6091630241	 1.9709624099	 0.3567928364	 0.159728
H	-0.4223720324	 1.6341305303	-1.0635755989	 0.166386
H	-1.1532659023	 1.7151269498	 0.5379857204	 0.15389
H	-0.0716484347	-2.4745786657	 0.3333217488	 0.165768
H	-2.1820705806	-3.7857655007	 0.7755563288	 0.138516
H	-2.0447913059	-2.3019059227	 1.7446251985	 0.109555
H	-3.4462461149	-1.3633803777	 0.0978282374	 0.296408
19.0479	60.7247	89.0982	101.3683	144.8266	195.9976	265.7596	328.5039	379.338	401.7073	431.9546	571.7509	604.0901	636.6989	691.285	845.0297	889.6974	965.0396	997.9497	1042.0189	1065.1222	1066.516	1117.8203	1230.5058	1233.5102	1305.5156	1348.6297	1396.194	1403.8472	1422.6394	1467.4958	1474.4228	1492.1941	1844.0979	2367.9324	2994.2954	3060.1834	3082.3418	3096.851	3126.142	3174.8368	3807.2027
CC(=O)OC(CO)C#N	CC(=O)O[C@@H](CO)C#N	
InChI=1S/C5H7NO3/c1-4(8)9-5(2-6)3-7/h5,7H,3H2,1H3	InChI=1S/C5H7NO3/c1-4(8)9-5(2-6)3-7/h5,7H,3H2,1H3/t5-/m1/s1
