17
gdb 48178	4.91828	0.59857	0.53887	0.6535	75.92	-0.2548	-0.0983	0.1565	1923.9613	0.131408	-421.813896	-421.803703	-421.802759	-421.851157	34.641	
O	-0.9346989331	 1.5000465737	 0.2184430466	-0.218384
C	 0.0845874442	 1.014545504	-0.1953526643	 0.094795
C	 1.400913255	 1.7941203317	-0.3396605873	 0.27663
O	 2.3639031864	 1.2013578865	-0.768055974	-0.271163
C	 1.3859729513	 3.2477502421	 0.0678407881	-0.309832
C	 2.7340998538	 3.9425486682	-0.1091443356	-0.178573
C	 2.6808576666	 5.4234655154	 0.3143417983	-0.362873
C	 3.9598121287	 6.1038077125	 0.1525190557	 0.289348
C	 5.0246422915	 6.6424492491	 0.010196239	-0.426914
H	 0.1773317948	-0.0451334489	-0.514564132	 0.110025
H	 0.5907979738	 3.7435465652	-0.5067464333	 0.141318
H	 1.0338378757	 3.2954341335	 1.1080198222	 0.14133
H	 3.4986175056	 3.4220163504	 0.4754371154	 0.127769
H	 3.0530484136	 3.8717069521	-1.1533745677	 0.127806
H	 1.9129838175	 5.9464890862	-0.2714660759	 0.131304
H	 2.3596364829	 5.4954619009	 1.3621940141	 0.131306
H	 5.9612596818	 7.1273084974	-0.1118441492	 0.196108
23.6286	70.2723	81.3224	107.7464	133.9332	160.405	257.5919	323.877	348.7364	459.3458	491.2604	522.3775	620.0756	640.2968	654.4968	721.3555	814.0512	814.5688	966.3938	967.6547	1036.8548	1064.5254	1087.4808	1154.7048	1162.8574	1277.0501	1283.3375	1316.6174	1362.3684	1364.7365	1399.4177	1436.6916	1472.8087	1494.8842	1804.0395	1825.3595	2241.1359	2924.2691	3012.2763	3021.2288	3039.8099	3044.4039	3062.7374	3104.924	3507.6692
O=CC(=O)CCCC#C	O=CC(=O)CCCC#C	
InChI=1S/C7H8O2/c1-2-3-4-5-7(9)6-8/h1,6H,3-5H2	InChI=1S/C7H8O2/c1-2-3-4-5-7(9)6-8/h1,6H,3-5H2
