20
gdb 121480	5.21247	0.59112	0.5572	4.5798	84.43	-0.2265	0.0099	0.2363	2027.1658	0.168379	-440.262303	-440.252177	-440.251233	-440.298985	35.924	
C	-0.1229241496	 1.4927383411	-0.0775440655	-0.385209
C	-0.1144568341	 0.0015573775	 0.1997294461	-0.054584
O	-1.378760082	-0.529373204	-0.2157781609	-0.206663
C	-1.5543438486	-1.8478354202	-0.0279379587	 0.124563
N	-2.6307238549	-2.407241944	-0.3722162822	-0.239787
C	-2.7757452122	-3.8076638071	-0.184123405	-0.000222
C	-4.1350663803	-4.295026949	 0.3105881147	-0.340603
C	-3.7606897279	-4.4517989878	-1.1384959332	 0.134797
O	-4.3541829087	-3.6569851389	-2.1119559999	-0.43469
H	 0.8296695652	 1.9353443001	 0.2274082988	 0.123166
H	-0.2714479469	 1.6848107979	-1.1434117281	 0.13802
H	-0.9283725805	 1.9822078466	 0.4762755456	 0.137672
H	 0.6934926461	-0.4954989701	-0.3538400512	 0.111379
H	 0.0350564192	-0.1975347336	 1.2694948761	 0.110979
H	-0.7053627435	-2.3685619004	 0.4381450046	 0.082774
H	-1.8930471203	-4.3711130859	 0.1225788453	 0.075809
H	-4.1531605589	-5.1695667202	 0.9522698033	 0.109745
H	-4.8621610036	-3.5267926933	 0.5479680794	 0.124254
H	-3.536350592	-5.4482246946	-1.5077078742	 0.097317
H	-4.0514377764	-2.7537846243	-1.9342330352	 0.291284
29.1305	56.838	95.0967	129.2376	199.8625	230.307	248.7756	296.8931	350.8759	417.7217	441.523	515.1582	538.7855	666.7147	776.5328	799.3797	817.8889	880.0107	940.8882	978.7909	1009.0357	1019.853	1048.8331	1067.9611	1109.1788	1129.8819	1137.3325	1182.4468	1189.5036	1224.9293	1245.8597	1302.7601	1352.1658	1358.8721	1398.0011	1417.0838	1432.7176	1444.1818	1479.8736	1483.5147	1498.7555	1522.9511	1770.1176	3000.1881	3017.9017	3044.0391	3050.4894	3078.9808	3125.9279	3130.6454	3132.2518	3151.6411	3229.5435	3712.0982
CCOC=NC1CC1O	CCOC=N[C@H]1C[C@H]1O	
InChI=1S/C6H11NO2/c1-2-9-4-7-5-3-6(5)8/h4-6,8H,2-3H2,1H3	InChI=1S/C6H11NO2/c1-2-9-4-7-5-3-6(5)8/h4-6,8H,2-3H2,1H3/t5-,6+/m0/s1
