21
gdb 110675	2.85883	1.35815	1.26057	1.8333	80.34	-0.2443	0.0704	0.3146	1111.457	0.185253	-387.064257	-387.056431	-387.055487	-387.096629	31.452	
O	 0.4167544651	 0.3042727164	-1.468098881	-0.424101
C	 0.0301334382	 0.2435823881	-0.0993224801	-0.099533
C	-1.2998088749	-0.4825821145	 0.0731885913	 0.015661
C	-1.423384534	-1.9827490382	-0.2319089891	-0.107108
C	-1.0312695473	-2.8613006132	 0.9505856674	-0.026188
C	-0.1227271283	-2.3216026176	 2.0536211402	-0.23769
C	-0.8675556663	-1.0551744631	 2.5638052689	-0.20803
C	-1.9254848465	-0.7679680147	 1.4846916402	-0.081551
C	-2.3594305958	-2.1658931743	 0.9547048306	-0.081585
H	 0.5238230352	-0.6023093758	-1.7741218171	 0.282664
H	 0.8231962514	-0.2135795047	 0.5086800959	 0.085527
H	-0.0663966728	 1.2861447078	 0.225901068	 0.105052
H	-2.0416422336	 0.0467156141	-0.5354848742	 0.079146
H	-1.5234215368	-2.4158770413	-1.2218357543	 0.078284
H	-1.0097159687	-3.9229840475	 0.7272180695	 0.080011
H	-0.0090962411	-3.064436296	 2.8499138188	 0.096841
H	 0.8852291966	-2.0955178873	 1.6910359962	 0.099806
H	-1.3675781516	-1.266953582	 3.5154494713	 0.096027
H	-0.1966313671	-0.2075959718	 2.7354298413	 0.097986
H	-2.7018193383	-0.0695417608	 1.7978819184	 0.065233
H	-3.3336567836	-2.6320494336	 1.0133985777	 0.083549
77.1761	165.7775	199.583	247.829	311.416	346.8421	462.1046	533.4747	600.7113	694.1344	734.4423	781.6163	792.7834	832.5931	846.4404	885.3559	896.0432	927.3564	974.7031	992.7342	1022.668	1035.5592	1050.2038	1052.6768	1064.666	1082.3855	1105.4435	1146.1432	1152.5077	1195.2226	1215.7651	1227.8168	1239.3541	1266.0077	1290.5657	1304.5112	1327.3329	1345.8566	1358.5964	1395.708	1410.612	1424.3239	1486.0017	1505.4327	1514.0197	3005.1462	3035.8892	3039.7181	3046.2626	3062.6243	3069.9045	3088.8042	3107.4347	3154.9059	3168.1439	3203.1711	3811.9759
OCC1C2C3CCC1C23	OC[C@H]1[C@H]2[C@H]3CC[C@@H]1[C@@H]23	
InChI=1S/C8H12O/c9-3-6-4-1-2-5-7(4)8(5)6/h4-9H,1-3H2	InChI=1S/C8H12O/c9-3-6-4-1-2-5-7(4)8(5)6/h4-9H,1-3H2/t4-,5-,6+,7+,8+/m0/s1
