21
gdb 40401	3.33596	1.274	1.13708	0.1972	86.94	-0.222	0.0244	0.2463	1171.0779	0.184181	-349.937915	-349.93007	-349.929126	-349.970287	31.959	
C	-0.0834393858	 1.4613500017	-0.1711626438	-0.278655
C	 1.289661176	 0.8724327407	 0.0421319636	-0.274194
C	 0.0714233831	-0.0199835455	 0.074128969	-0.0772
C	-0.3954226499	-0.6900886191	 1.3313085495	 0.378507
C	-0.411759482	-2.1995426946	 1.3677142876	-0.330748
C	-1.7268145258	-1.4403183047	 1.382123989	-0.117176
C	-2.285044316	-1.1767646092	 2.738047405	-0.067305
C	-1.4632941072	-0.4220749415	 3.4707236209	-0.087513
C	-0.2378114481	 0.0069061296	 2.6914730606	-0.355079
H	-0.5004498305	 2.0756895482	 0.6195846803	 0.114339
H	-0.3584180711	 1.7856141936	-1.1689138315	 0.108422
H	 1.9627524831	 0.7990184007	-0.805071979	 0.108442
H	 1.7865439936	 1.0862867153	 0.9826084591	 0.112589
H	-0.0635477355	-0.641720217	-0.8074979674	 0.074955
H	-0.1371162304	-2.7107248048	 0.4497930905	 0.104806
H	-0.1179850005	-2.7142508411	 2.2775069497	 0.10662
H	-2.3800909331	-1.5073570192	 0.5184747915	 0.082316
H	-3.2279179524	-1.5915636773	 3.076923186	 0.091784
H	-1.6170630139	-0.1451952728	 4.5075518834	 0.090394
H	 0.6939014066	-0.281665447	 3.1949397481	 0.108912
H	-0.2016283102	 1.100389514	 2.590662368	 0.105783
69.6327	149.4118	194.9144	305.2386	349.5359	365.229	463.2228	499.5689	570.3356	713.7118	743.7224	765.7177	786.4461	820.5215	831.2656	877.4286	898.7412	922.4016	944.7772	954.1019	972.9669	998.4672	1010.4416	1041.5749	1059.1449	1068.3615	1075.3755	1075.57	1081.3716	1137.9713	1141.2521	1178.5764	1198.3403	1218.2547	1244.8259	1280.269	1320.6985	1349.087	1382.796	1433.1557	1463.9418	1475.0323	1487.436	1510.5549	1671.1045	3011.5346	3039.1263	3113.3908	3129.4049	3130.4754	3135.5404	3161.8585	3183.5301	3202.4916	3206.5984	3208.6447	3221.2209
C1CC1C12CC1C=CC2	C1CC1[C@]12C[C@H]1C=CC2	
InChI=1S/C9H12/c1-2-8-6-9(8,5-1)7-3-4-7/h1-2,7-8H,3-6H2	InChI=1S/C9H12/c1-2-8-6-9(8,5-1)7-3-4-7/h1-2,7-8H,3-6H2/t8-,9+/m1/s1
