12
gdb 25389	3.98644	1.25335	0.95355	0.8365	66.07	-0.2754	-0.1248	0.1506	1111.4625	0.077834	-468.828491	-468.821199	-468.820254	-468.861177	25.497	
N	-0.2091291389	 1.2775460959	 0.0091780987	-0.50715
C	 0.0030212497	 0.0380259936	 0.0009958868	 0.435822
O	-1.1573329111	-0.7712467515	 0.0023562992	-0.206589
C	-1.0138142637	-2.0975489351	-0.0059096082	 0.337083
C	-2.3601620016	-2.793591438	-0.0029626126	 0.111641
O	-2.473808236	-3.9858330415	-0.0091968599	-0.199827
N	 0.097056027	-2.7389050152	-0.0153035135	-0.293233
C	 1.2137949678	-1.913512675	-0.0164082191	 0.071042
N	 1.2235738477	-0.6256758395	-0.0091096326	-0.273498
H	 0.686909922	 1.7627742508	 0.0073217036	 0.248114
H	-3.215306122	-2.0901073021	 0.0053689864	 0.126362
H	 2.1692884593	-2.4326376824	-0.0242658988	 0.150233
64.4433	114.409	178.8752	196.2607	395.1223	397.1376	491.1523	564.0436	627.659	692.8904	774.3752	837.7352	862.116	878.9909	957.3445	1006.3473	1012.4937	1035.1075	1180.9473	1238.0548	1301.0298	1412.2491	1418.0671	1586.8914	1682.0682	1762.7693	1843.2289	2958.5706	3173.3287	3521.4142
N=C1OC(C=O)=NC=N1	[NH]C1=NCN=C(O1)C=O	
InChI=1S/C4H3N3O2/c5-4-7-2-6-3(1-8)9-4/h1-2,5H	InChI=1S/C4H4N3O2/c5-4-7-2-6-3(1-8)9-4/h1,5H,2H2
