19
gdb 117091	3.11631	0.8215	0.65852	1.8669	76.36	-0.2408	-0.0507	0.1901	1680.1136	0.156521	-456.362724	-456.351935	-456.350991	-456.399528	37.509	
C	 0.078113731	 1.3944545242	 0.0132824346	-0.341889
N	 0.0606697703	-0.0558642473	 0.0214798208	-0.274225
C	-1.0808841029	-0.6284198169	-0.0592352393	 0.275856
N	-2.3169269246	-0.0540001154	-0.1819848	-0.55061
C	-1.1348744518	-2.1449077041	-0.0514393304	 0.347335
O	-2.2171849545	-2.6993589845	-0.0376923899	-0.337071
C	 0.1730518075	-2.8945451779	-0.0561838673	-0.280636
C	-0.0124931861	-4.4030507969	 0.0074355005	-0.080841
O	 1.283871882	-4.9820169096	-0.0154371121	-0.423702
H	 1.1102525327	 1.7506928748	 0.0438557898	 0.1286
H	-0.4013301446	 1.8086304312	-0.8876675438	 0.118858
H	-0.445376815	 1.8206948419	 0.885328954	 0.110551
H	-2.4490839663	 0.9050645213	 0.0885245047	 0.25833
H	-3.0946148711	-0.6862119553	-0.0607264361	 0.269554
H	 0.7356683236	-2.6130799917	-0.9540510924	 0.146974
H	 0.7903493682	-2.5388822939	 0.7753577125	 0.150831
H	-0.5615821642	-4.6722095253	 0.9217596431	 0.096916
H	-0.6233874104	-4.7392224265	-0.8427872681	 0.098767
H	 1.1832288261	-5.9376132782	 0.0166714492	 0.286401
47.0517	67.2359	107.0901	117.0214	151.6072	195.8127	238.9135	270.7976	320.1613	332.1403	361.8557	413.8345	503.5756	514.6923	573.5297	683.7235	703.8266	811.724	835.1396	989.1682	1021.0284	1058.7307	1064.9354	1100.4592	1103.1386	1125.1343	1202.163	1202.7499	1254.7799	1292.7306	1324.7445	1391.1498	1431.8451	1436.951	1468.6257	1490.096	1502.6347	1523.0799	1600.0841	1727.7937	1775.942	2962.0824	2990.0046	3009.3627	3018.3756	3058.4748	3091.7173	3106.7864	3581.7815	3715.9335	3832.7797
CN=C(N)C(=O)CCO	CN=C(N)C(=O)CCO	
InChI=1S/C5H10N2O2/c1-7-5(6)4(9)2-3-8/h8H,2-3H2,1H3,(H2,6,7)	InChI=1S/C5H10N2O2/c1-7-5(6)4(9)2-3-8/h8H,2-3H2,1H3,(H2,6,7)
