13
gdb 133235	3.26883	1.44483	1.00826	1.2216	64.35	-0.2502	-0.0939	0.1564	1058.7066	0.089066	-494.056189	-494.048699	-494.047755	-494.088826	26.837	
C	-0.0287592311	 1.4496085339	-0.0097189697	-0.321321
N	-0.0014391135	-0.0081321977	 0.0024451591	-0.050404
N	-0.0367364884	-0.6260654346	-1.1949006522	-0.275911
C	-0.0115450796	-1.9168841597	-1.1581745937	 0.385259
F	-0.0453687467	-2.5381837275	-2.3194522229	-0.051653
N	 0.0456974642	-2.7256959942	-0.0715192698	-0.276295
C	 0.0791219218	-2.1180183323	 1.0727796514	-0.062303
C	 0.0584805637	-0.6608802949	 1.231447056	 0.399982
O	 0.0885696546	-0.0555584815	 2.2894923077	-0.390289
H	 0.8678175843	 1.839224726	 0.4790885798	 0.16203
H	-0.0750197374	 1.7700004269	-1.0483260837	 0.158989
H	-0.8984193198	 1.8067065145	 0.5477364403	 0.162025
H	 0.1255097179	-2.708256049	 1.9847982477	 0.159892
66.4217	116.392	194.3067	304.6015	355.0419	378.1165	413.379	489.2595	561.2307	603.345	621.4247	747.0169	788.3583	824.9847	954.7583	973.1694	1064.0246	1147.6928	1169.0042	1280.8992	1327.2364	1365.1382	1424.3839	1447.801	1470.0475	1498.0741	1550.5175	1645.9352	1769.651	3059.5449	3123.6059	3173.7619	3186.2826
CN1N=C(F)N=CC1=O	Cn1nc(F)ncc1=O	
InChI=1S/C4H4FN3O/c1-8-3(9)2-6-4(5)7-8/h2H,1H3	InChI=1S/C4H4FN3O/c1-8-3(9)2-6-4(5)7-8/h2H,1H3
