23
gdb 103759	2.97759	1.11657	0.96157	1.4571	83.38	-0.2384	0.0891	0.3275	1360.8806	0.201263	-425.397063	-425.385853	-425.384909	-425.432914	40.596	
C	 0.4019517205	 1.2629931551	 0.2137646169	-0.24592
O	-0.1724647868	 0.0377986222	-0.1963740187	-0.284764
C	 0.4848303332	-0.5869650666	-1.2674939982	 0.366406
C	 0.3096865537	 0.0958371158	-2.6061486053	-0.451322
C	 1.7882182523	-1.3025307219	-0.9416880913	-0.413702
C	 0.5078367216	-2.090747905	-1.179047144	 0.366404
C	-0.1712088495	-2.7975677744	-0.0265743862	-0.45132
O	 0.3900397518	-2.737308711	-2.4191068545	-0.284764
C	 1.1478197817	-3.9250344786	-2.5388853969	-0.245919
H	 1.4704034221	 1.1524709417	 0.4482683664	 0.106283
H	 0.2930965528	 2.0488680973	-0.546107001	 0.110867
H	-0.1301808274	 1.5750574461	 1.1156682338	 0.125059
H	 0.845331631	 1.0502868819	-2.6415928722	 0.110289
H	 0.6820709842	-0.5396629489	-3.4097640538	 0.134541
H	-0.7521900806	 0.2912025022	-2.7875983385	 0.123447
H	 2.5523594265	-1.3340093635	-1.7112684155	 0.111966
H	 2.1602388969	-1.2391047101	 0.0755307103	 0.111966
H	-0.2013870476	-2.1524559305	 0.8516328607	 0.13454
H	-1.2002179783	-3.0517043594	-0.3008520292	 0.123447
H	 0.3515280445	-3.7222694443	 0.2395445636	 0.110289
H	 2.2094048175	-3.7546043102	-2.3091321663	 0.106283
H	 0.775186327	-4.724452741	-1.8839590214	 0.110867
H	 1.0565038028	-4.254631927	-3.5766744889	 0.125059
87.9497	91.302	136.3491	166.124	172.74	173.6566	197.193	239.609	256.3885	314.6237	356.2011	399.8592	407.7491	440.0127	450.6786	617.3752	711.5624	728.0086	885.0172	911.8253	920.4185	927.5368	982.2339	1029.6853	1069.4492	1102.9729	1122.3268	1131.555	1175.9471	1181.4632	1182.8877	1212.5501	1218.2278	1237.0379	1286.8851	1376.9069	1403.3541	1414.7762	1464.1267	1471.0462	1474.921	1482.6196	1484.4361	1491.058	1494.2312	1501.7781	1506.6345	1510.6588	1513.4918	2992.162	2992.5199	3037.8984	3038.5229	3045.7233	3046.2033	3098.8626	3099.2751	3114.7545	3114.8328	3126.9962	3151.0192	3151.2562	3218.8066
COC1(C)CC1(C)OC	CO[C@@]1(C)C[C@]1(C)OC	
InChI=1S/C7H14O2/c1-6(8-3)5-7(6,2)9-4/h5H2,1-4H3	InChI=1S/C7H14O2/c1-6(8-3)5-7(6,2)9-4/h5H2,1-4H3/t6-,7-/m0/s1
