17
gdb 109118	3.17936	1.24965	0.91239	1.6388	70.84	-0.2524	-0.019	0.2334	1225.0507	0.135817	-455.194815	-455.185879	-455.184935	-455.228742	31.758	
C	-0.0257478857	 1.4825285061	-0.0060761365	-0.358853
N	-0.0129756199	 0.0356925027	 0.0601932959	-0.145163
C	-0.007661575	-0.788927811	-1.0692647853	 0.38904
O	-0.0132051465	-0.4136934596	-2.2155184972	-0.364899
C	 0.0062122572	-2.2020599394	-0.4800372492	-0.302694
N	 0.0076751553	-2.0356667655	 0.9715196588	-0.328204
C	-0.0033127131	-0.7737615821	 1.1907971326	 0.355671
C	-0.0055252056	-0.2177466463	 2.5866105192	-0.130167
O	 0.0055936328	-1.2437792531	 3.536756562	-0.416945
H	 0.862518366	 1.9122209569	 0.4676875176	 0.142614
H	-0.0301671945	 1.747948439	-1.0650970589	 0.174529
H	-0.9195027405	 1.8966436637	 0.4712193628	 0.142615
H	-0.8703529461	-2.7667003937	-0.8158885284	 0.154739
H	 0.891279784	-2.7510282175	-0.819517037	 0.154738
H	 0.8707497998	 0.4406083596	 2.7094387572	 0.116072
H	-0.8929750416	 0.4247857457	 2.7129496757	 0.116079
H	 0.0121281734	-2.0723113557	 3.0314345509	 0.300827
87.3165	115.3092	135.2616	193.892	197.4077	245.037	282.9553	356.8277	390.3963	522.9176	526.0945	627.4011	644.9545	730.1404	777.062	936.1891	976.3482	1036.7799	1061.4387	1093.3076	1111.3363	1155.1176	1171.1708	1180.179	1253.3737	1267.3149	1312.9244	1345.668	1391.13	1440.9667	1458.6027	1491.9816	1495.1633	1505.3553	1511.0019	1694.5819	1842.6801	2968.1664	2980.3513	3036.7245	3053.5801	3088.5223	3097.8838	3142.1465	3683.769
CN1C(=O)CN=C1CO	CN1C(=O)CN=C1CO	
InChI=1S/C5H8N2O2/c1-7-4(3-8)6-2-5(7)9/h8H,2-3H2,1H3	InChI=1S/C5H8N2O2/c1-7-4(3-8)6-2-5(7)9/h8H,2-3H2,1H3
