21
gdb 62665	3.02793	1.38716	1.19434	1.2407	82.98	-0.243	0.0772	0.3201	1138.6214	0.181209	-387.047491	-387.038555	-387.037611	-387.080201	35.542	
C	 0.0068477928	 1.5594387721	-0.0000580822	-0.457501
C	 0.0979923707	 0.0450623506	 0.0559306291	 0.311124
C	-1.1495049516	-0.6484141556	-0.4697081167	-0.455215
C	 1.3803805668	-0.7067629452	-0.2233064965	-0.08616
C	 2.608717431	 0.0038453505	 0.2879247165	-0.141161
C	 3.2557326492	-0.7938706118	 1.4026411804	-0.344056
C	 2.0127697168	 0.0093501367	 1.6952447939	 0.385788
O	 2.0284713837	 1.0850048038	 2.5728702132	-0.467388
C	 0.7693620835	-0.6891520474	 1.1996651105	-0.181249
H	 0.8883511117	 2.0471200421	 0.4172709143	 0.138626
H	-0.1172958549	 1.8975482894	-1.0359976473	 0.104637
H	-0.863479058	 1.9096638399	 0.5670273141	 0.110321
H	-1.3399331616	-0.3697012636	-1.5123523567	 0.115125
H	-1.0567423732	-1.7383776934	-0.4254640614	 0.110863
H	-2.0310902882	-0.3624701888	 0.1151464894	 0.115166
H	 1.3970963438	-1.5598454472	-0.8938188474	 0.080595
H	 3.1348302998	 0.8129948187	-0.2047192864	 0.093254
H	 3.2398133962	-1.8807554457	 1.3860148163	 0.10106
H	 4.1667302297	-0.3558228962	 1.8006382109	 0.10894
H	 2.1151800549	 0.7428897815	 3.4689824836	 0.284024
H	 0.272159807	-1.5106096302	 1.7067333226	 0.073209
157.8489	174.6824	196.0857	212.7523	227.6364	273.2922	343.4812	374.2989	391.3435	429.2574	497.8314	562.4679	620.8865	697.0807	797.4678	830.5906	860.7377	877.9762	909.5186	943.8327	969.4553	976.5552	1001.5806	1027.7115	1041.2219	1050.4507	1060.8916	1087.061	1093.5304	1157.0935	1191.0268	1206.6681	1248.2342	1294.6802	1298.6214	1316.5902	1382.6006	1398.0885	1408.4022	1425.7073	1482.0795	1488.3718	1490.2352	1502.7044	1510.9966	3022.1973	3027.307	3078.1715	3086.2021	3097.2328	3106.7877	3142.6944	3149.2814	3163.6243	3180.5734	3198.7501	3798.9849
CC1(C)C2C3CC3(O)C12	CC1(C)[C@H]2[C@@H]3C[C@]3(O)[C@@H]12	
InChI=1S/C8H12O/c1-7(2)5-4-3-8(4,9)6(5)7/h4-6,9H,3H2,1-2H3	InChI=1S/C8H12O/c1-7(2)5-4-3-8(4,9)6(5)7/h4-6,9H,3H2,1-2H3/t4-,5-,6+,8+/m0/s1
