21
gdb 103915	2.85385	1.21697	1.02194	0.3518	78.6	-0.2464	0.073	0.3194	1239.9091	0.18059	-424.189384	-424.179804	-424.17886	-424.223088	37.003	
C	-0.0892935001	 1.5960430696	 0.1041530606	-0.455272
C	 0.0182407321	 0.0745867953	 0.0375523604	 0.345784
C	-1.3503834928	-0.5594274277	-0.1937516976	-0.126778
O	-1.84851674	-0.117827552	-1.4494912261	-0.427788
C	 1.0830384425	-0.5284622903	-0.9546054724	-0.347997
C	 1.7330245305	-1.2573877098	 0.2274780839	 0.411825
O	 2.1619302601	-2.5744859638	 0.1935330349	-0.467681
C	 2.2028175713	-0.2797221972	 1.2646539898	-0.362887
C	 0.7346128062	-0.6493005693	 1.1970634502	-0.156453
H	 0.8886800581	 2.0675465933	 0.2367401547	 0.106649
H	-0.5347311421	 1.985433599	-0.8152172189	 0.13411
H	-0.7246034902	 1.9043133315	 0.9430064974	 0.106457
H	-1.2509921846	-1.6559093532	-0.1692460912	 0.09063
H	-2.028668392	-0.2690914726	 0.6263490795	 0.080931
H	-2.7009457335	-0.5359848614	-1.5992140787	 0.287674
H	 0.6266838162	-1.2048931931	-1.6792033258	 0.114877
H	 1.7157505617	 0.1888645644	-1.4877958478	 0.085527
H	 3.0872466543	-2.5830719995	-0.0751551996	 0.283224
H	 2.7273140316	-0.737002349	 2.098022773	 0.111149
H	 2.5548811926	 0.7143231548	 0.9988802145	 0.102456
H	 0.2360708582	-1.1033783289	 2.0466920791	 0.08356
100.8371	139.5338	188.3054	221.1089	242.0949	259.3541	268.7035	348.2949	380.3071	389.3266	410.272	432.3426	526.6493	600.7867	702.1576	782.8784	839.0524	881.6905	914.3069	946.3892	957.1215	975.9763	999.1467	1018.5463	1034.9134	1072.8711	1080.3757	1101.009	1147.2911	1178.2845	1214.7411	1227.2106	1255.3931	1263.9361	1291.0403	1313.5593	1338.1214	1395.2047	1410.8662	1455.1858	1479.2412	1489.5085	1498.5898	1507.6782	1521.6618	2956.5067	2994.7515	3031.2565	3046.3386	3096.1236	3106.3554	3119.3172	3121.5353	3168.1766	3199.7772	3791.7515	3835.9643
CC1(CO)CC2(O)CC12	C[C@@]1(CO)C[C@@]2(O)C[C@@H]12	
InChI=1S/C7H12O2/c1-6(4-8)3-7(9)2-5(6)7/h5,8-9H,2-4H2,1H3	InChI=1S/C7H12O2/c1-6(4-8)3-7(9)2-5(6)7/h5,8-9H,2-4H2,1H3/t5-,6-,7-/m0/s1
