25
gdb 57532	3.15247	0.93789	0.88533	0.9932	89.89	-0.2384	0.0751	0.3135	1507.8528	0.226414	-389.488079	-389.477485	-389.476541	-389.523693	40.257	
C	 0.0520015223	 1.6431656189	 0.2036554658	-0.406468
C	 0.0006294732	 0.1109585601	 0.0838421898	 0.353723
C	 0.758551093	-0.5539074518	 1.2433254953	-0.407209
C	-1.4555589218	-0.3643254257	 0.0616718336	-0.397108
O	 0.5134752404	-0.3096103976	-1.1927419112	-0.296251
C	 1.8862768173	-0.1830631963	-1.4533230883	 0.17176
C	 2.819983199	-1.412121011	-1.2424871925	-0.239977
C	 3.4995658794	-1.0579980224	-2.5929298374	-0.221092
C	 2.2451183856	-0.2164715234	-2.9553251274	-0.246922
H	 1.0794496902	 2.0185112582	 0.2266927513	 0.112568
H	-0.4637919505	 2.1047269061	-0.6432416518	 0.118877
H	-0.4356695571	 1.9715614026	 1.1269676986	 0.111273
H	 0.291541167	-0.2960735095	 2.1991432634	 0.110675
H	 0.7441940346	-1.6425218075	 1.1370025049	 0.11925
H	 1.8011080609	-0.2255241133	 1.2849244797	 0.112749
H	-1.9841266522	 0.0789171841	-0.7868861793	 0.11839
H	-1.4972361807	-1.4521379438	-0.0421492596	 0.115692
H	-1.973297369	-0.0800418099	 0.9826314175	 0.106725
H	 2.3102142771	 0.7090822734	-0.9742570532	 0.064945
H	 3.4382295943	-1.4513747831	-0.3420866812	 0.089625
H	 2.2353241982	-2.3336207126	-1.3168446925	 0.105126
H	 4.3861820947	-0.4330444301	-2.4539073622	 0.100627
H	 3.7604030605	-1.8836665626	-3.2576172663	 0.099462
H	 1.502944073	-0.8148269941	-3.4913548888	 0.110701
H	 2.3790110007	 0.7355090216	-3.474357768	 0.092859
49.2122	77.6343	124.5985	187.4494	210.7848	244.6199	263.5612	301.5015	316.1859	338.8358	384.4988	450.8073	481.9817	489.153	641.0928	742.3541	781.4998	785.8929	897.9849	905.7294	910.3757	921.0347	924.9121	939.7638	954.6665	993.8866	1038.5939	1042.0065	1056.99	1134.9124	1164.5445	1190.9878	1223.139	1242.6593	1244.603	1251.2183	1256.3705	1273.346	1278.3788	1296.5957	1387.9726	1393.8783	1405.7725	1423.3064	1469.6461	1472.3867	1481.7653	1484.8105	1486.9754	1497.0983	1499.3267	1509.4897	1517.218	3014.1979	3036.5546	3038.2429	3045.5794	3054.6548	3059.5942	3064.8423	3104.0058	3104.4511	3109.0567	3112.5325	3113.9508	3116.2223	3119.8486	3120.725	3125.6702
CC(C)(C)OC1CCC1	CC(C)(C)OC1CCC1	
InChI=1S/C8H16O/c1-8(2,3)9-7-5-4-6-7/h7H,4-6H2,1-3H3	InChI=1S/C8H16O/c1-8(2,3)9-7-5-4-6-7/h7H,4-6H2,1-3H3
