15
gdb 48052	2.4002	1.57167	0.99604	1.3319	69.52	-0.2588	-0.1086	0.1502	1129.9165	0.110696	-453.921677	-453.9129	-453.911955	-453.956154	30.362	
N	-0.7238598174	 0.4743057302	 1.6002238402	-0.467613
C	-0.1569661016	 0.0018496148	 0.5634494335	 0.231706
N	-0.8316526115	-0.2567570464	-0.6245503683	-0.100299
C	-1.2729757018	-1.605573217	-0.9874040364	-0.214074
C	-2.2549463631	-0.5513765934	-0.5968968095	-0.225629
C	 1.3567223757	-0.1551186435	 0.5000258071	 0.262715
O	 2.063384803	 0.2472060458	 1.3954797616	-0.279236
C	 2.069455379	-0.8585230799	-0.661914139	 0.090363
O	 1.65556544	-1.8446392305	-1.2102334057	-0.215009
H	-0.0074912117	 0.6946813513	 2.297524673	 0.244106
H	-1.1295183593	-1.8739609289	-2.0283305159	 0.138061
H	-1.0761314773	-2.401772623	-0.2759954103	 0.136826
H	-2.7175852848	-0.614607002	 0.3828895159	 0.150666
H	-2.8408305446	-0.0537185009	-1.3633805835	 0.129866
H	 3.0742385454	-0.4306723666	-0.8594220328	 0.11755
49.611	96.0344	110.7821	161.6329	214.0838	232.2631	327.4035	389.5358	491.4504	526.1185	577.0606	696.8013	782.5841	808.9418	883.9138	925.0998	939.1336	1000.7836	1044.3829	1057.6552	1120.4663	1136.2606	1172.4185	1185.9073	1197.6401	1289.1724	1383.3474	1420.7132	1490.6084	1516.7595	1680.406	1788.1298	1822.1958	2927.0016	3126.3271	3129.7513	3213.417	3226.515	3447.4969
N=C(N1CC1)C(=O)C=O	[NH][C](N1CC1)C(=O)C=O	
InChI=1S/C5H6N2O2/c6-5(4(9)3-8)7-1-2-7/h3,6H,1-2H2	InChI=1S/C5H6N2O2/c6-5(4(9)3-8)7-1-2-7/h3,6H,1-2H2
