15
gdb 28647	5.60063	0.99086	0.84238	6.7456	86.95	-0.2213	-0.0299	0.1914	1281.4866	0.115687	-379.761534	-379.754013	-379.753069	-379.793371	29.211	
N	-0.0162054521	 1.4048137496	 0.1492486989	-0.586825
C	 0.0020095316	 0.0256366757	 0.0584038994	 0.331301
C	-1.1964606011	-0.7090006905	 0.0457399784	-0.171583
C	-1.1772188934	-2.0914038793	 0.0093492857	-0.174898
C	 0.0398288589	-2.7893839958	-0.0167941722	 0.157249
C	 1.2376825674	-2.058587664	-0.0045770456	-0.174898
C	 1.2197732461	-0.6761667611	 0.0318072995	-0.171581
C	 0.0589572202	-4.2145142043	-0.0580057402	 0.192267
N	 0.0744996983	-5.3728197549	-0.092267811	-0.345498
H	 0.8170733834	 1.8877950989	-0.148707854	 0.256328
H	-0.8656910286	 1.864927494	-0.138974188	 0.256328
H	-2.145600811	-0.1826394955	 0.0677811612	 0.09529
H	-2.108792461	-2.6453757704	-0.0019329465	 0.120615
H	 2.1837725039	-2.5870442901	-0.0266876997	 0.120615
H	 2.1544513075	-0.1242059822	 0.0429870941	 0.09529
105.791	154.9112	260.7606	356.1474	383.9326	412.5799	417.3575	474.9597	513.5029	564.8488	575.6887	662.8517	715.5418	745.5016	834.3696	846.4865	852.7065	944.1879	967.2515	1023.6123	1074.7494	1153.5692	1198.9307	1233.8703	1325.934	1333.7416	1359.948	1467.4549	1548.1312	1599.452	1648.7964	1665.3819	2335.318	3172.9048	3173.4051	3202.5381	3203.7042	3582.5941	3687.4741
NC1=CC=C(C=C1)C#N	Nc1ccc(cc1)C#N	
InChI=1S/C7H6N2/c8-5-6-1-3-7(9)4-2-6/h1-4H,9H2	InChI=1S/C7H6N2/c8-5-6-1-3-7(9)4-2-6/h1-4H,9H2
