17
gdb 106948	2.97852	1.28492	1.23913	3.8736	68.18	-0.2573	0.0301	0.2873	1078.2421	0.137564	-455.158101	-455.150039	-455.149095	-455.190962	30.422	
O	 0.066090727	 1.3036122624	 0.3976650148	-0.414799
C	-0.0178729106	 0.0226388207	-0.1979685444	-0.151534
C	-1.4201113105	-0.5337206383	-0.1100005496	 0.29226
C	-1.6779577975	-1.9549505095	 0.2094601305	-0.299539
N	-1.8637991984	-0.9137072498	 1.2527119282	-0.193994
C	-3.2552539711	-0.5176110826	 1.3601133934	 0.407021
O	-3.9463400923	-0.6988427081	 2.3277880254	-0.366629
N	-3.6194671369	 0.0925530293	 0.1859761529	-0.322553
C	-2.5445117449	 0.2680013719	-0.7682794667	-0.240602
H	-0.1842915487	 1.1924425496	 1.3228832884	 0.296978
H	 0.2748823564	 0.1502873229	-1.2463132184	 0.11569
H	 0.6836416394	-0.6879190607	 0.2620541448	 0.101654
H	-2.5724392298	-2.425377678	-0.1908617448	 0.134609
H	-0.8464216497	-2.628783704	 0.3925838586	 0.130706
H	-4.5288541921	 0.5142853722	 0.096837082	 0.260646
H	-2.2354196644	 1.316538412	-0.8573492955	 0.133473
H	-2.8082224758	-0.1071866699	-1.7644002897	 0.116611
79.1935	133.0217	139.0065	269.6332	291.8875	365.8521	435.897	466.6696	500.6379	553.881	589.3916	711.1372	739.8725	813.38	833.9341	862.6704	928.0216	956.9062	1000.6315	1061.3047	1071.8034	1078.5063	1129.3777	1134.1557	1192.5525	1209.8305	1224.7454	1319.8107	1326.6665	1367.0106	1409.9408	1430.0936	1442.7445	1492.3289	1506.2974	1530.2775	1866.3503	3004.1182	3020.9549	3058.3111	3070.7748	3111.9829	3202.0454	3660.2689	3789.8022
OCC12CN1C(=O)NC2	OC[C@@]12CN1C(=O)NC2	
InChI=1S/C5H8N2O2/c8-3-5-1-6-4(9)7(5)2-5/h8H,1-3H2,(H,6,9)	InChI=1S/C5H8N2O2/c8-3-5-1-6-4(9)7(5)2-5/h8H,1-3H2,(H,6,9)/t5-,7?/m1/s1
