19
gdb 113471	4.0747	1.05586	1.01141	2.1372	77.3	-0.225	0.0684	0.2934	1265.2269	0.15733	-422.940417	-422.931923	-422.930979	-422.973706	32.227	
C	 0.1116036312	 1.1828663441	-0.4123044698	-0.229089
O	-0.1982266954	 0.2146915556	 0.5705786885	-0.232965
C	-1.3996669244	-0.4343484088	 0.3329598276	 0.03485
C	-1.4364831894	-1.5970642978	-0.6604953903	-0.417295
C	-1.5216144165	-1.8393435753	 0.8161625359	 0.449781
O	-0.4618848286	-2.509447292	 1.5139792042	-0.307731
C	-1.4376576137	-3.2579005846	 2.2536817746	 0.103774
C	-2.2877183798	-2.3571320984	 3.0909896029	-0.300556
C	-2.5978266438	-2.5323160727	 1.6134132086	-0.224456
H	 1.0678811546	 1.6297773226	-0.131231425	 0.129274
H	 0.2023535175	 0.7325179987	-1.4110817328	 0.109234
H	-0.6531329508	 1.9733166728	-0.456951109	 0.104211
H	-2.2866558707	 0.2018092772	 0.3921092684	 0.08534
H	-2.3157949103	-1.7452365272	-1.2795924415	 0.113231
H	-0.488989198	-1.8594866523	-1.1201575696	 0.132314
H	-1.2340566521	-4.3054823437	 2.4381627508	 0.107143
H	-2.9818326937	-2.8579095148	 3.7592494975	 0.113654
H	-1.875142728	-1.4225737874	 3.4596345159	 0.126248
H	-3.5402657983	-2.8980776557	 1.2298640032	 0.103036
86.4376	110.824	154.9878	189.8213	227.7874	328.1381	376.61	441.028	481.7962	508.4963	668.9759	756.3567	794.5557	810.2615	871.2367	906.2262	918.5635	961.2202	976.8024	1006.7691	1026.4646	1043.4997	1045.2024	1051.9353	1069.9146	1088.0377	1114.0065	1170.568	1172.7896	1184.6284	1198.0602	1241.4793	1279.049	1322.6731	1351.9663	1410.5776	1466.5835	1474.5289	1485.8972	1501.2066	1511.3092	2982.2724	3034.2949	3064.7457	3119.1749	3120.3138	3123.3468	3188.8079	3205.5656	3215.1091	3219.0789
COC1CC11OC2CC12	CO[C@H]1C[C@]21O[C@H]1C[C@@H]21	
InChI=1S/C7H10O2/c1-8-6-3-7(6)4-2-5(4)9-7/h4-6H,2-3H2,1H3	InChI=1S/C7H10O2/c1-8-6-3-7(6)4-2-5(4)9-7/h4-6H,2-3H2,1H3/t4-,5+,6+,7+/m1/s1
