17
gdb 56436	2.19404	1.35966	1.06725	1.9264	74.92	-0.2475	-0.0359	0.2117	1196.8541	0.132253	-421.780179	-421.770588	-421.769644	-421.81527	34.083	
C	-0.5940191973	 1.6528610613	 0.6226001333	-0.393173
C	-0.4704250168	 0.283884765	-0.0643712682	-0.246195
C	 0.8556143275	-0.3072649049	 0.1067719671	 0.345329
C	 1.9378987947	-0.7970957841	 0.2890057585	-0.474464
C	-1.4945226424	-0.720562567	 0.5090233341	 0.354052
O	-1.9882230515	-0.5940967289	 1.6022721353	-0.304096
C	-1.8639582932	-1.8996557535	-0.3501673564	-0.004921
C	-2.4953623636	-1.6876665261	-1.669878536	-0.172764
O	-1.1460809294	-2.1156393785	-1.5616570416	-0.209279
H	 0.1713353621	 2.3340670688	 0.2445658737	 0.125178
H	-1.5798092685	 2.0860840423	 0.4316885352	 0.119122
H	-0.473560013	 1.5448353106	 1.701592549	 0.149327
H	-0.6555743637	 0.3796902607	-1.1415373779	 0.122997
H	 2.898053344	-1.2279347155	 0.4308666353	 0.202451
H	-2.1351753009	-2.7908774394	 0.2129161071	 0.125209
H	-3.2040522171	-2.4297369915	-2.0326948969	 0.13517
H	-2.6421161408	-0.6758903691	-2.0454281215	 0.126054
45.185	87.9997	121.1352	171.3313	198.7445	217.4132	263.2322	290.8453	413.5418	486.8694	500.6458	584.3333	625.2282	643.7575	692.4579	782.4037	863.4597	884.658	904.1052	943.9342	1023.5509	1076.9013	1101.0636	1115.1124	1148.4017	1161.8913	1197.9083	1263.523	1292.1272	1320.3896	1388.9547	1406.9869	1487.9434	1493.5715	1525.2271	1814.4475	2233.1387	3035.1852	3055.1659	3088.8409	3128.6075	3137.9253	3149.3568	3179.9126	3504.7707
CC(C#C)C(=O)C1CO1	C[C@@H](C#C)C(=O)[C@H]1CO1	
InChI=1S/C7H8O2/c1-3-5(2)7(8)6-4-9-6/h1,5-6H,4H2,2H3	InChI=1S/C7H8O2/c1-3-5(2)7(8)6-4-9-6/h1,5-6H,4H2,2H3/t5-,6+/m0/s1
