17
gdb 110252	2.82349	1.36023	1.0716	3.364	69.18	-0.2382	-0.0084	0.2298	1131.5013	0.134998	-458.905111	-458.896917	-458.895972	-458.937949	31.082	
C	 0.0288809548	 1.2984828419	-0.2002818446	-0.256815
O	-0.0264257808	 0.0106257142	 0.3948293409	-0.275283
C	-1.2731453827	-0.6206180896	 0.228056165	 0.160159
C	-1.5676648353	-1.3992004683	-1.1186418731	-0.294956
C	-0.5298022453	-2.4898822855	-0.6032877653	 0.186517
O	 0.8357844444	-2.270768469	-0.6816745382	-0.444744
C	-1.3412638857	-2.1047159177	 0.7064252772	-0.291942
C	-2.5488778103	-2.1709646502	-0.2378414488	 0.448321
O	-3.6586655601	-2.605304939	-0.2678572642	-0.315196
H	 1.0032177978	 1.7231865257	 0.0479501746	 0.141355
H	-0.0773663333	 1.2448183416	-1.2918226909	 0.125642
H	-0.7603162303	 1.9487416682	 0.2013781144	 0.124565
H	-2.0720892735	 0.0453165471	 0.5782956071	 0.09498
H	-1.7011784284	-1.0036279059	-2.1224661114	 0.095013
H	-0.7111751916	-3.500288023	-0.9746682584	 0.107558
H	 1.007342714	-1.4025416641	-0.2893274905	 0.294125
H	-1.2232238939	-2.4836643163	 1.7183762162	 0.1007
91.8163	142.8459	174.2245	211.291	305.5366	314.0354	406.8466	426.325	542.9775	568.2692	594.1462	624.8217	727.2756	745.1757	773.4968	861.829	950.6757	1015.5036	1020.2348	1027.0259	1065.1984	1111.8875	1113.619	1136.1139	1177.7756	1185.7907	1191.2376	1225.3044	1248.5549	1252.4137	1345.5847	1426.4491	1483.9716	1487.9787	1499.4398	1509.2031	1923.729	3000.4262	3024.3855	3059.5032	3097.1081	3133.6997	3155.0174	3160.2545	3718.4481
COC1C2C(O)C1C2=O	CO[C@H]1[C@H]2[C@@H](O)[C@@H]1C2=O	
InChI=1S/C6H8O3/c1-9-6-2-4(7)3(6)5(2)8/h2-4,6-7H,1H3	InChI=1S/C6H8O3/c1-9-6-2-4(7)3(6)5(2)8/h2-4,6-7H,1H3/t2-,3+,4+,6-
