16
gdb 123826	3.59503	1.52185	1.10954	2.5002	70.22	-0.248	-0.0101	0.2379	1035.3586	0.127429	-437.884834	-437.878131	-437.877186	-437.916041	26.136	
C	-0.0053704466	 1.4154390221	 0.0228948382	-0.078561
C	 1.439557064	 1.9616282192	-0.0079538947	-0.345495
C	 2.144338344	 1.1952795707	-1.0683984143	 0.37614
C	 1.7002622308	 0.0431150797	-1.6338204183	 0.094847
C	 0.4099882164	-0.5849985326	-1.19761156	-0.201304
O	-0.0355675672	-0.0020917661	 0.0207107706	-0.246178
C	 2.7107953554	-0.2571866113	-2.5858077527	-0.08189
N	 3.6744094021	 0.6335096898	-2.5816983104	-0.144975
O	 3.3129651296	 1.569817718	-1.6068233059	-0.225767
H	-0.5171467729	 1.7276952272	 0.9362322432	 0.119157
H	-0.5649926886	 1.8143718331	-0.8381441372	 0.100369
H	 1.4395427859	 3.0365240154	-0.2191512127	 0.129458
H	 1.9254789613	 1.818031259	 0.9645716138	 0.136735
H	-0.3635058232	-0.4777917701	-1.977231127	 0.107228
H	 0.5226051748	-1.6545780087	-0.9935577927	 0.128336
H	 2.7790424743	-1.0889430853	-3.2735145099	 0.131901
113.7499	220.3452	284.4179	327.199	367.998	454.3432	520.82	637.4763	660.899	712.4328	747.1697	856.0941	904.0524	906.8693	945.1123	968.2316	974.1818	1029.9426	1089.3605	1113.6207	1184.1668	1201.0803	1212.8031	1239.9287	1273.4013	1313.1689	1337.2097	1371.013	1407.0169	1437.1037	1470.9895	1493.0059	1501.4446	1514.7838	1672.4781	2958.3319	2982.3683	3036.7424	3071.5689	3080.9647	3102.6129	3238.2404
C1CC2=C(CO1)C=NO2	C1Cc2c(CO1)cno2	
InChI=1S/C6H7NO2/c1-2-8-4-5-3-7-9-6(1)5/h3H,1-2,4H2	InChI=1S/C6H7NO2/c1-2-8-4-5-3-7-9-6(1)5/h3H,1-2,4H2
