16
gdb 72305	2.29066	1.98214	1.54961	3.1811	69.74	-0.2196	-0.0503	0.1694	920.8914	0.121565	-437.745026	-437.737074	-437.736129	-437.776897	30.893	
C	-0.1929764028	 1.6148719796	-0.0612627724	-0.522084
C	-0.1260823958	 0.1221103672	 0.0295612676	 0.16059
C	-0.0522946184	-0.976625554	-0.9356239403	-0.053201
O	 1.3774834951	-1.3428785207	-0.6476629719	-0.264803
C	 0.9857288211	-0.832847181	 0.5954085353	 0.228228
N	 0.787288739	-1.5757119467	 1.6037043748	-0.22761
C	-0.7014211345	-1.5008562241	 1.7306196427	-0.231901
C	-1.1164525592	-0.9337918888	 0.3453006129	 0.285177
O	-2.4415360389	-0.7346750677	 0.0208191555	-0.457215
H	 0.6725664047	 2.015773543	-0.5973602975	 0.136995
H	-1.0991814068	 1.9170812796	-0.5944971504	 0.142318
H	-0.2197934211	 2.0698671239	 0.9339285125	 0.135393
H	-0.3633716782	-1.0857204769	-1.9684910378	 0.129841
H	-1.0366863292	-2.5292341309	 1.9075193735	 0.124126
H	-1.0939080729	-0.8697872117	 2.5421817092	 0.117001
H	-2.883093612	-1.5909624108	-0.0155308337	 0.297145
168.7659	186.6151	191.4491	259.9372	269.3896	339.6308	365.7652	450.7276	515.5789	580.2743	583.0642	611.5823	697.5425	729.5355	800.569	876.1759	904.4619	945.1607	983.1239	1008.3074	1036.0326	1052.0011	1125.7083	1158.9006	1171.0237	1201.6592	1232.769	1291.0803	1340.9232	1409.8492	1476.8867	1488.9182	1491.467	1501.5529	1622.4278	2990.8848	3038.4699	3060.718	3106.7493	3113.8125	3187.6743	3793.8723
CC12C3OC1=NCC23O	C[C@@]12[C@H]3O[C]1[N]C[C@@]23O	
InChI=1S/C6H7NO2/c1-5-3-6(5,8)2-7-4(5)9-3/h3,8H,2H2,1H3	InChI=1S/C6H7NO2/c1-5-3-6(5,8)2-7-4(5)9-3/h3,8H,2H2,1H3/t3-,5-,6+/m1/s1
