21
gdb 58042	1.84305	1.43855	1.09397	4.284	79.58	-0.23	0.0315	0.2615	1254.9944	0.180026	-420.402176	-420.39123	-420.390286	-420.437919	39.101	
C	-0.0746968427	 1.6912059139	 0.3942637859	-0.408146
C	-0.1049256471	 0.1809182684	 0.171438082	 0.11221
O	 0.2554283236	-0.1729733407	-1.1566567471	-0.419713
C	 0.8419080247	-0.5618075988	 1.1453022901	-0.122993
C	 0.7601475265	-2.0301116435	 0.9277630292	 0.289245
N	 0.755714812	-3.1780168546	 0.7913437066	-0.337226
N	 2.2116080207	-0.0616209879	 1.1761804559	-0.055899
C	 2.8879486183	-0.3871192163	 2.4275974403	-0.329372
C	 3.0335988398	-0.4227479081	 0.0188962318	-0.342959
H	 0.9332372288	 2.080759601	 0.2427767661	 0.145565
H	-0.760226714	 2.1855605088	-0.3024643526	 0.107357
H	-0.3957576133	 1.9445770899	 1.409934791	 0.117417
H	-1.11518877	-0.1997011037	 0.3926039759	 0.086795
H	-0.3676299336	 0.2446537804	-1.7592523295	 0.290206
H	 0.4225072223	-0.3800150519	 2.1421282432	 0.123166
H	 3.0542276743	-1.4699801734	 2.5647647888	 0.117738
H	 3.8629576311	 0.1083592921	 2.4447410491	 0.124841
H	 2.3055219214	-0.0171798393	 3.2774866044	 0.117407
H	 2.5220490939	-0.1438863683	-0.9005130427	 0.151862
H	 3.9794539102	 0.1234144659	 0.0826213893	 0.114688
H	 3.2603045531	-1.5015716437	-0.0209730178	 0.117811
66.8632	95.4894	128.2922	163.6716	205.7719	229.6492	234.4214	242.4815	252.055	329.3365	332.1496	369.4796	413.9214	422.2634	512.0274	601.6307	662.5825	829.63	873.611	909.8435	977.8602	1021.0842	1063.8596	1076.8593	1124.2974	1126.1265	1149.326	1192.8251	1209.3111	1258.4653	1300.2637	1318.1271	1376.9539	1384.226	1406.7062	1420.614	1448.0546	1477.8839	1483.7166	1483.9654	1497.7622	1499.566	1507.1966	1520.4857	2344.5035	2957.7801	2970.9117	2972.2867	3037.8845	3044.4391	3064.795	3079.793	3100.9513	3108.0241	3145.2255	3168.842	3826.0343
CC(O)C(C#N)N(C)C	C[C@@H](O)[C@@H](C#N)N(C)C	
InChI=1S/C6H12N2O/c1-5(9)6(4-7)8(2)3/h5-6,9H,1-3H3	InChI=1S/C6H12N2O/c1-5(9)6(4-7)8(2)3/h5-6,9H,1-3H3/t5-,6-/m1/s1
