18
gdb 39077	2.62106	1.81795	1.23264	2.1884	77.69	-0.2313	0.0028	0.2341	1019.319	0.149528	-401.923972	-401.916559	-401.915614	-401.955608	29.461	
C	 0.00488018	 1.6021867496	 0.1681574813	-0.324271
C	 1.2704734681	 0.8462133055	-0.0987590009	 0.114264
O	 2.2196932211	 0.9240318941	 0.9395901273	-0.229538
C	 3.0731988167	-0.0877636388	 1.2786661243	 0.138064
N	 3.0088525093	-1.3443838498	 1.2171361787	-0.252679
C	 1.8312001529	-2.0714413804	 0.7404262525	-0.21115
C	 0.5881401113	-1.7697801675	 1.5523378083	-0.052502
C	-0.2500252164	-0.7820110541	 1.2453068223	-0.070892
C	-0.0288736715	 0.0922590886	 0.0603523423	-0.099197
H	-0.0753134105	 2.0255550903	 1.1637891866	 0.130933
H	-0.4337070338	 2.1991928554	-0.6229516722	 0.117885
H	 1.7277869127	 0.8962173807	-1.0832887191	 0.105098
H	 3.9556638449	 0.3697073661	 1.7275179576	 0.118962
H	 1.6449393365	-1.8666775658	-0.3203256319	 0.110373
H	 2.0660250802	-3.1373914627	 0.8169397233	 0.106413
H	 0.4131162642	-2.3827314156	 2.4322814242	 0.097956
H	-1.1320778786	-0.5963774369	 1.8534661573	 0.094543
H	-0.4371251272	-0.2882259087	-0.8755512418	 0.105739
128.9871	186.1032	235.1312	280.3443	293.0278	396.0678	469.3289	516.8044	583.3572	701.3074	741.9425	775.5283	785.2855	816.3628	855.1315	927.1325	952.7417	975.0107	993.3834	998.6324	1039.7619	1066.5958	1073.9545	1106.833	1126.8019	1135.8043	1176.1646	1229.3053	1234.0666	1269.2683	1341.7504	1365.2988	1387.4513	1417.4059	1436.5557	1478.0773	1510.239	1712.3877	1745.917	3032.098	3070.7542	3104.6334	3132.1286	3136.5429	3141.8075	3148.4626	3175.1895	3228.386
C1C2OC=NCC=CC12	C1[C@H]2OC=NCC=C[C@@H]12	
InChI=1S/C7H9NO/c1-2-6-4-7(6)9-5-8-3-1/h1-2,5-7H,3-4H2/b2-1-,8-5-	InChI=1S/C7H9NO/c1-2-6-4-7(6)9-5-8-3-1/h1-2,5-7H,3-4H2/b2-1-,8-5-/t6-,7+/m0/s1
