14
gdb 10968	2.77628	2.61471	1.9415	2.0156	62.35	-0.2346	-0.0019	0.2327	734.6318	0.106603	-382.521049	-382.514215	-382.513271	-382.552044	26.072	
O	-0.0931979182	 1.4548358423	-0.0601366934	-0.477491
C	-0.0131767837	 0.0764854146	-0.0225835204	 0.274413
C	-1.3112688004	-0.7743628401	-0.0559621045	-0.245461
C	-0.3908786696	-1.9352015972	 0.4411089874	-0.197574
C	 0.6464098802	-1.9955760106	-0.665121987	-0.081609
C	 0.8848776024	-0.7070124805	-0.9722121404	-0.168857
C	 0.3156097212	-0.7905986222	 1.2863608637	 0.35884
O	 0.7907305567	-0.6340184097	 2.3600492238	-0.302275
H	 0.7793101594	 1.8217915095	 0.1184960537	 0.293405
H	-2.0513400172	-0.4530698646	 0.6832868598	 0.118051
H	-1.7523382344	-0.9147714106	-1.0454428168	 0.112578
H	-0.7782464716	-2.8489359795	 0.8813240358	 0.09159
H	 1.1571386389	-2.8857123755	-1.0041355032	 0.115013
H	 1.6268972363	-0.2750152258	-1.6296663885	 0.109375
89.2814	156.6162	249.7715	359.5696	419.2845	449.7098	562.4623	625.1178	661.87	699.6055	757.328	802.7911	827.2511	868.8617	902.5293	946.1941	962.295	1012.9627	1047.3413	1080.5574	1115.1236	1134.3659	1192.9846	1246.8387	1277.2812	1335.0555	1385.9098	1482.7672	1590.5129	1915.1184	3056.9156	3132.6396	3172.0485	3217.6921	3242.2488	3814.3966
OC12CC(C=C1)C2=O	O[C@@]12C[C@@H](C=C1)C2=O	
InChI=1S/C6H6O2/c7-5-4-1-2-6(5,8)3-4/h1-2,4,8H,3H2	InChI=1S/C6H6O2/c7-5-4-1-2-6(5,8)3-4/h1-2,4,8H,3H2/t4-,6-/m1/s1
