27
gdb 100103	2.93566	0.84471	0.7935	1.2101	92.54	-0.2558	0.0621	0.3179	1674.0665	0.248673	-390.710189	-390.698163	-390.697218	-390.747012	45.087	
C	 0.5035108468	 1.278879852	-0.0550291259	-0.393721
C	 0.1241490672	-0.184368666	 0.1901047131	-0.186523
C	-1.3537461488	-0.5415792245	-0.1101063965	 0.335746
C	-2.3114996808	 0.2501039911	 0.7839688718	-0.403101
O	-1.6762902423	-0.1337057757	-1.4497924537	-0.452916
C	-1.521890047	-2.0708381646	 0.0666066047	-0.202574
C	-2.9238696287	-2.6971579828	-0.0785031729	 0.029758
C	-3.4765038009	-2.6286848652	-1.5101913107	-0.390677
C	-2.8883914838	-4.1539100355	 0.4096497606	-0.387377
H	 1.5864840904	 1.4141397668	 0.0249178427	 0.106819
H	 0.1894196304	 1.5949572827	-1.05332189	 0.125581
H	 0.0365671148	 1.9504433007	 0.6715119657	 0.116317
H	 0.7545611058	-0.8280269818	-0.4401617611	 0.080584
H	 0.3536068782	-0.4636622258	 1.2258615847	 0.093327
H	-2.1603039542	 1.3235343224	 0.6510487858	 0.122842
H	-3.3505421949	 0.030880592	 0.5290626335	 0.125385
H	-2.1521935302	 0.0040065906	 1.8382370658	 0.108765
H	-1.1305758348	-0.6512669059	-2.052184541	 0.273609
H	-0.8431518869	-2.5674952557	-0.6450576315	 0.075184
H	-1.1350751765	-2.3249666581	 1.0624137416	 0.090075
H	-3.6138322639	-2.1516834749	 0.5783161379	 0.074344
H	-2.8248359643	-3.1801534787	-2.2007794996	 0.097047
H	-4.469740888	-3.0876381827	-1.5641377391	 0.101978
H	-3.5445167459	-1.5998270815	-1.8657683513	 0.136624
H	-3.8782908678	-4.6167994126	 0.3388198155	 0.108023
H	-2.1992330992	-4.7543927288	-0.1968405125	 0.108707
H	-2.5586551448	-4.2224771874	 1.4519511226	 0.106172
46.0678	89.4092	121.7049	148.4484	202.4048	227.9257	239.6224	260.0664	276.392	305.896	314.0354	335.396	353.3263	390.0558	418.3509	435.7222	461.2007	598.6682	753.3751	784.5154	814.9458	876.6264	902.4312	930.966	939.9315	965.8493	973.8631	1003.211	1016.6114	1063.9498	1106.2937	1110.2163	1163.0063	1187.0062	1196.3149	1211.3409	1271.0798	1294.4999	1328.4592	1361.5732	1367.5831	1383.5416	1391.8165	1398.5886	1405.2666	1420.4192	1428.1382	1466.5427	1480.2412	1486.5092	1489.6504	1494.1075	1496.1574	1504.1083	1509.3816	1514.373	1517.2415	2982.594	3004.434	3016.1182	3019.1665	3025.777	3035.5205	3042.8302	3049.697	3054.4692	3079.1239	3088.711	3096.1929	3105.4802	3121.7571	3124.596	3132.1305	3141.454	3800.1409
CCC(C)(O)CC(C)C	CC[C@@](C)(O)CC(C)C	
InChI=1S/C8H18O/c1-5-8(4,9)6-7(2)3/h7,9H,5-6H2,1-4H3	InChI=1S/C8H18O/c1-5-8(4,9)6-7(2)3/h7,9H,5-6H2,1-4H3/t8-/m1/s1
