20
gdb 70075	2.55772	1.78819	1.36109	1.4799	84.02	-0.2244	0.0167	0.2411	1026.1523	0.173389	-365.992097	-365.984538	-365.983594	-366.023539	31.363	
C	-0.0364161506	 1.4855965449	-0.0070729006	-0.486415
C	-0.0295622774	-0.0299984809	 0.0316339006	 0.37453
C	-0.3258326783	-0.7279214679	 1.3280847	-0.329092
C	 1.1001384029	-0.7231812125	 0.7882340854	-0.123803
C	 1.7089674164	-1.9372135138	 0.2081697689	-0.061475
C	 1.3123047813	-2.4912607205	-0.9431451967	-0.062152
C	 0.2155949684	-1.9179593807	-1.7522681011	-0.072482
N	-1.1645055642	-1.9790090679	-1.1902919527	-0.343091
C	-0.4686842688	-0.6856146493	-1.2572012904	-0.123568
H	 0.5934041856	 1.8675355001	-0.8193490166	 0.117223
H	-1.0506774347	 1.8736702475	-0.1609137583	 0.116591
H	 0.340193399	 1.906124246	 0.9300545567	 0.114819
H	-0.5276210257	-0.114342294	 2.2001588198	 0.102303
H	-0.8723285835	-1.6611428093	 1.2704696446	 0.139422
H	 1.7912558975	-0.0766823393	 1.3229629701	 0.079819
H	 2.5348904689	-2.3808775507	 0.7589260078	 0.088225
H	 1.8067307872	-3.3810292706	-1.3218947042	 0.085152
H	 0.3007108355	-2.0508578689	-2.8284420582	 0.081431
H	-1.8359827703	-2.045928975	-1.9515320024	 0.227637
H	-0.8028164593	 0.0189856728	-2.0153653827	 0.074927
141.9839	221.5719	246.4586	294.5403	315.5806	398.7489	472.6221	508.778	524.1367	585.31	676.8759	745.8188	794.0858	814.8801	841.7658	865.4687	882.9829	928.4389	949.0095	957.6141	980.219	989.4291	1024.7184	1063.7739	1097.5095	1102.5958	1115.1885	1123.0056	1159.2024	1191.7766	1212.8055	1240.6687	1264.0756	1326.819	1384.0856	1414.2071	1417.4077	1430.6237	1454.8782	1486.3032	1492.0871	1502.2984	1698.1622	3019.2367	3077.2238	3100.972	3122.7261	3130.532	3131.7426	3135.3894	3150.3844	3174.9384	3234.8963	3492.2318
CC12CC1C=CC1NC21	C[C@]12C[C@H]1C=C[C@H]1N[C@@H]21	
InChI=1S/C8H11N/c1-8-4-5(8)2-3-6-7(8)9-6/h2-3,5-7,9H,4H2,1H3	InChI=1S/C8H11N/c1-8-4-5(8)2-3-6-7(8)9-6/h2-3,5-7,9H,4H2,1H3/t5-,6-,7-,8+/m1/s1
