17
gdb 124125	6.82156	0.72102	0.65743	2.4872	91.82	-0.2181	-0.0082	0.2099	1709.1789	0.136021	-380.886551	-380.877154	-380.87621	-380.92263	32.565	
C	-0.1429870145	 1.4796438951	 0.0334322568	-0.510077
C	-0.0237667537	 0.0309187059	 0.0155998461	 0.194881
C	 0.0837544058	-1.1710942195	 0.0013625444	-0.052352
C	 0.1972188167	-2.5765840814	-0.0156617511	 0.249525
C	 1.2950908644	-3.4245137089	 0.0200307356	-0.409789
C	 0.7631283714	-4.7318495711	-0.0242116505	 0.349481
C	 1.4965508444	-6.0361398471	-0.0117278446	-0.500445
N	-0.5703472649	-4.7045230632	-0.0832666808	-0.268049
N	-0.890193411	-3.4006383908	-0.0770770404	-0.289984
H	 0.8440886228	 1.9533494133	-0.001562108	 0.156515
H	-0.716404208	 1.8435751554	-0.8265306949	 0.153256
H	-0.6467536201	 1.8286584957	 0.9419385632	 0.153295
H	 2.3291923347	-3.1254604828	 0.0708412	 0.103887
H	 2.0961513636	-6.1496631642	 0.8979961657	 0.1286
H	 0.7843232181	-6.8624547852	-0.0598872206	 0.139724
H	 2.1802006508	-6.1192102906	-0.8635902058	 0.128532
H	-1.8560046604	-3.1219681606	-0.1158222451	 0.272999
18.7875	85.7536	86.0021	92.5397	223.3752	279.4961	325.905	357.4097	450.6689	458.53	521.2159	537.9756	689.3137	699.3244	704.4661	820.3062	956.354	991.0599	1009.6723	1050.7803	1051.5531	1066.5367	1074.2775	1192.5718	1203.3136	1289.9496	1406.5285	1411.3715	1423.6566	1438.2825	1473.607	1476.3856	1484.3441	1491.5202	1503.1842	1599.7848	2357.7648	3026.0242	3036.0666	3084.9656	3087.6029	3091.7233	3132.9439	3269.6587	3673.6669
CC#CC1=CC(C)=NN1	CC#Cc1cc(C)n[nH]1	
InChI=1S/C7H8N2/c1-3-4-7-5-6(2)8-9-7/h5H,1-2H3,(H,8,9)	InChI=1S/C7H8N2/c1-3-4-7-5-6(2)8-9-7/h5H,1-2H3,(H,8,9)
