21
gdb 115316	2.92033	1.26586	0.97576	3.5749	81.02	-0.2219	0.0655	0.2874	1287.3784	0.183681	-420.464507	-420.454852	-420.453908	-420.499499	34.492	
C	-0.0260890247	 1.4800982234	 0.1202613578	-0.385143
C	-0.0467854347	-0.0469598426	-0.0214153974	-0.150611
N	-1.3718748912	-0.6341699823	 0.0086436245	-0.119424
C	-2.2343498232	-0.6060707065	 1.1759675957	-0.180563
C	-3.5060711428	-1.2981587168	 0.6470225167	-0.172778
N	-3.4265604812	-1.0324427362	-0.7772396951	-0.120944
C	-4.3504426673	-1.6303066516	-1.7107761147	-0.338442
C	-2.1127665891	-0.7796450148	-1.151679328	 0.479168
O	-1.6918124216	-0.7001650097	-2.2897306005	-0.444741
H	 1.0038799123	 1.8480888233	 0.077381491	 0.11813
H	-0.5896305216	 1.947513183	-0.6925151798	 0.137132
H	-0.4556216134	 1.8081337969	 1.0724209617	 0.113917
H	 0.3883593622	-0.3354186809	-0.9815457252	 0.141428
H	 0.5549500089	-0.5092480523	 0.7709329757	 0.097841
H	-1.7896129431	-1.1402092619	 2.0218512929	 0.112279
H	-2.4544960559	 0.4218548126	 1.5007145794	 0.106643
H	-3.4858470676	-2.381077094	 0.852692275	 0.101317
H	-4.4194586647	-0.8877113898	 1.0888221581	 0.113031
H	-5.3538933702	-1.2080433368	-1.5886935406	 0.118928
H	-3.9886570945	-1.415682155	-2.7177789846	 0.162638
H	-4.4180816966	-2.7220286782	-1.5838262823	 0.110193
51.0814	87.8738	160.1429	169.428	190.7689	209.5983	228.0737	290.5095	331.7145	397.7275	530.1167	578.9424	650.287	763.6399	766.2524	789.8111	860.4212	933.9368	974.4509	1014.4984	1061.7819	1087.7538	1116.5863	1135.9568	1166.8951	1198.5452	1219.5166	1258.9157	1279.3084	1304.9984	1314.4868	1356.4217	1393.0636	1406.0302	1420.7004	1435.452	1460.326	1477.9717	1491.4368	1494.3002	1501.7178	1512.3221	1533.8915	1539.3588	1808.5612	2965.9901	2986.1419	2987.3236	3029.572	3037.4048	3061.631	3062.0603	3068.9106	3096.1137	3112.2163	3121.425	3142.2245
CCN1CCN(C)C1=O	CCN1CCN(C)C1=O	
InChI=1S/C6H12N2O/c1-3-8-5-4-7(2)6(8)9/h3-5H2,1-2H3	InChI=1S/C6H12N2O/c1-3-8-5-4-7(2)6(8)9/h3-5H2,1-2H3
