14
gdb 132393	1.82749	1.78795	0.90375	3.6072	68.19	-0.2207	0.0101	0.2307	1162.3467	0.100716	-481.85727	-481.849829	-481.848884	-481.888942	29.434	
O	 0.0965685684	 1.34702257	-0.0764772464	-0.440354
C	 0.0816337494	-0.0127739446	-0.0283766278	 0.450556
C	 0.0093350175	-0.6902971551	-1.2446452306	-0.377616
C	-0.0066800269	-2.0760086193	-1.2115391137	 0.353012
F	-0.0758010476	-2.7370238849	-2.3711591145	-0.080908
C	 0.0452905535	-2.8114552608	-0.0376707277	-0.377616
C	 0.1171613384	-2.1100978075	 1.1650369454	 0.450556
O	 0.1675322194	-2.8452291964	 2.308989906	-0.440354
C	 0.1357595043	-0.7136648039	 1.1784257279	-0.440756
H	 0.1475520648	 1.6966562859	 0.8189665446	 0.298541
H	-0.032739869	-0.1508400359	-2.1808822509	 0.116711
H	 0.0307234095	-3.8926183307	-0.0517508731	 0.116711
H	 0.2150834373	-2.2527881674	 3.0662318104	 0.298541
H	 0.1919889108	-0.1758327492	 2.1219454505	 0.072975
211.5982	239.5379	246.804	330.9696	331.2396	366.6105	367.2133	509.7917	514.9787	555.9016	598.1837	623.1301	628.9919	690.1553	779.5341	829.646	835.377	1009.9847	1016.8161	1026.9763	1154.4008	1166.0346	1207.8262	1245.1594	1298.4448	1376.9609	1407.0056	1522.0562	1539.5301	1653.4826	1667.3785	3146.5238	3229.1672	3229.212	3825.9603	3826.7587
OC1=CC(F)=CC(O)=C1	Oc1cc(F)cc(O)c1	
InChI=1S/C6H5FO2/c7-4-1-5(8)3-6(9)2-4/h1-3,8-9H	InChI=1S/C6H5FO2/c7-4-1-5(8)3-6(9)2-4/h1-3,8-9H
