13
gdb 42545	4.63399	1.22598	1.1482	1.2879	67.85	-0.2714	-0.0403	0.2311	1016.8431	0.089941	-415.563533	-415.556774	-415.55583	-415.594912	25.612	
O	 0.0486747464	 0.0793911473	-0.1979826436	-0.289337
C	-0.0292766343	 1.2533160778	-0.0584675538	 0.449575
C	-1.0978058926	 2.2938891031	 0.070342323	-0.265335
C	-0.0661038608	 3.1551989833	 0.7583175584	-0.063093
N	 1.0450290784	 2.2677915277	 0.1836948742	-0.219904
C	 0.9371504893	 3.0613715353	-1.1082473822	-0.241292
C	-0.4439292017	 3.5368146653	-0.6360933227	 0.198152
C	-1.2400425077	 4.6260243828	-1.0999889926	 0.176976
N	-1.8636052016	 5.5170530905	-1.4945223839	-0.328687
H	-2.1676743326	 2.2338333703	 0.215245704	 0.146093
H	-0.0616716524	 3.6561199138	 1.7137679793	 0.148817
H	 1.6684964032	 3.870782255	-1.1188383602	 0.145726
H	 1.0117141365	 2.4583604779	-2.0175747599	 0.14231
113.1372	149.9277	204.1799	370.3801	470.5741	518.9342	536.2188	557.4762	653.7072	725.1547	779.7614	834.2231	853.143	901.0147	918.1031	935.6426	973.4325	1016.5607	1051.2714	1088.0578	1114.7596	1160.596	1184.5479	1229.7347	1277.1276	1375.8371	1511.0489	1941.7307	2352.6251	3066.1111	3137.6034	3223.6342	3253.1306
O=C1C2C3N1CC23C#N	O=C1[C@H]2[C@H]3N1C[C@@]23C#N	
InChI=1S/C6H4N2O/c7-1-6-2-8-4(6)3(6)5(8)9/h3-4H,2H2	InChI=1S/C6H4N2O/c7-1-6-2-8-4(6)3(6)5(8)9/h3-4H,2H2/t3-,4-,6+/m1/s1
