15
gdb 126441	1.89815	1.84441	1.00226	4.0103	73.19	-0.28	-0.0464	0.2336	1143.3147	0.114677	-413.016569	-413.008404	-413.00746	-413.05091	28.793	
C	-0.2090903179	 1.518389312	 0.0717114884	-0.383554
C	 0.1009358687	 0.0135006083	-0.0203170494	-0.308454
C	 0.7579800288	-0.5200489263	 1.2117685962	 0.239505
N	 2.0663108219	-0.7602351645	 1.2913969614	-0.243875
N	 2.2337511263	-1.1920070477	 2.538467198	-0.077959
N	 1.1619270586	-1.2652677408	 3.2974774782	-0.257648
C	 0.1935075846	-0.8378187541	 2.4735257877	 0.171141
C	-1.1650525825	-0.7484264382	 2.8728266596	 0.237892
N	-2.286075722	-0.6548355527	 3.1446637486	-0.340179
H	 0.7068382198	 2.0968085495	 0.2231489855	 0.130362
H	-0.6843338713	 1.8641153865	-0.8504510877	 0.125788
H	-0.8886710641	 1.7315158887	 0.9020582385	 0.139481
H	-0.8285016083	-0.5392692302	-0.1960053027	 0.130307
H	 0.7613288305	-0.1834045274	-0.8693891477	 0.131391
H	 3.1410729469	-1.4618918731	 2.8859816755	 0.305803
19.045	128.2447	163.7877	185.3369	229.3475	342.4442	396.3704	536.7523	559.227	575.5681	595.6753	690.0182	722.4048	784.9927	801.8202	975.1927	1000.7902	1070.5522	1088.5189	1172.8027	1200.8018	1270.5197	1275.6463	1352.362	1362.6649	1409.9858	1445.2816	1479.5991	1493.6245	1499.2497	1513.0128	1548.376	2356.972	3043.8537	3049.6074	3095.4032	3120.4351	3123.8053	3657.2862
CCC1=NNN=C1C#N	CCc1n[nH]nc1C#N	
InChI=1S/C5H6N4/c1-2-4-5(3-6)8-9-7-4/h2H2,1H3,(H,7,8,9)	InChI=1S/C5H6N4/c1-2-4-5(3-6)8-9-7-4/h2H2,1H3,(H,7,8,9)
