15
gdb 64547	3.43364	1.23245	1.11443	2.8614	66.54	-0.2743	-0.0597	0.2146	1088.0393	0.110242	-457.767086	-457.758902	-457.757957	-457.800122	29.645	
C	-0.0986107326	 1.7014944501	 0.5754467143	-0.494153
C	-0.0705470279	 0.2337790034	 0.2091036378	 0.163399
C	-1.3226193643	-0.3138622467	-0.4133114458	 0.100721
O	-1.5368388069	-1.4872378464	-0.5950280899	-0.25632
C	 1.1634482775	-0.4593152918	-0.3304075043	 0.073383
O	 2.3563208394	 0.1535134822	 0.2061957273	-0.263551
C	 1.9899723884	-0.2711041065	 1.4899068556	 0.465059
O	 2.6246900075	-0.1792983649	 2.4851735797	-0.311401
C	 0.6759310918	-0.8507329926	 1.0268667951	-0.305035
H	 0.901229388	 2.0721743501	 0.8053923226	 0.161268
H	-0.4879986085	 2.2920986923	-0.260833691	 0.131615
H	-0.7413163506	 1.8785014201	 1.4431363334	 0.139369
H	-2.0511309758	 0.4635335153	-0.7298841451	 0.093798
H	 1.2408882189	-1.012437123	-1.2549449122	 0.150982
H	 0.1733888452	-1.7402233316	 1.3754216626	 0.150866
88.8262	130.2675	166.9764	193.761	219.9645	293.0992	376.7181	456.4684	482.0897	642.862	661.7395	723.6519	787.3504	838.6965	866.017	917.9035	944.5364	968.9321	1014.475	1023.9578	1071.6478	1091.035	1119.8598	1175.8544	1241.9793	1261.2192	1351.3146	1421.8333	1432.5591	1493.6498	1496.4539	1808.4758	1954.0709	2901.8868	3042.992	3104.5974	3143.0295	3234.1316	3245.8005
CC1(C=O)C2OC(=O)C12	C[C@@]1(C=O)[C@H]2OC(=O)[C@@H]12	
InChI=1S/C6H6O3/c1-6(2-7)3-4(6)9-5(3)8/h2-4H,1H3	InChI=1S/C6H6O3/c1-6(2-7)3-4(6)9-5(3)8/h2-4H,1H3/t3-,4-,6-/m0/s1
