17
gdb 61484	2.47357	0.96685	0.91164	4.8908	74.03	-0.3081	-0.0118	0.2962	1380.132	0.133322	-418.02321	-418.0132	-418.012256	-418.059207	34.643	
C	-1.4424856862	 0.5006390626	 0.727335191	-0.40018
C	-0.0359199122	 0.2646353322	 0.1799122427	 0.004698
O	 0.7390758979	-0.2701576954	 1.2384845466	-0.255517
C	 2.1154457022	-0.5132700614	 0.948730263	-0.021086
C	 2.9613121071	 0.7665285417	 0.9485276708	-0.404971
C	 2.5913342809	-1.450113926	 1.9785721546	 0.286329
N	 3.0038203593	-2.1736522977	 2.7780061498	-0.308437
C	-0.056659197	-0.6488357828	-0.985327059	 0.263618
N	-0.0508235325	-1.3577834322	-1.8978587199	-0.316099
H	-1.3835657041	 1.1932444301	 1.5694667399	 0.143758
H	-2.0846868581	 0.9272024266	-0.0465101327	 0.143708
H	-1.8734948984	-0.4416433303	 1.0714826518	 0.157027
H	 0.3850840927	 1.2186449235	-0.169740745	 0.124339
H	 2.206960976	-1.0224229145	-0.0219694519	 0.147901
H	 4.0140550252	 0.5186423652	 0.790831358	 0.151204
H	 2.6475915348	 1.4335998144	 0.1415505274	 0.132473
H	 2.8586369424	 1.285342984	 1.9041640227	 0.151235
28.5546	81.9915	126.1095	175.7075	213.8026	222.6215	231.6096	268.5424	311.4467	365.0571	421.1545	527.5683	567.3774	575.2692	635.9292	803.0652	830.8656	881.3954	976.8831	1043.1221	1084.7537	1104.6973	1125.8001	1138.8555	1161.414	1331.4722	1345.7761	1355.75	1388.2601	1406.7399	1409.4209	1481.6592	1489.2416	1491.5398	1495.5349	2353.8316	2371.439	3003.0997	3010.7763	3055.0314	3061.1309	3130.2571	3143.1685	3144.713	3149.2426
CC(OC(C)C#N)C#N	C[C@@H](O[C@@H](C)C#N)C#N	
InChI=1S/C6H8N2O/c1-5(3-7)9-6(2)4-8/h5-6H,1-2H3	InChI=1S/C6H8N2O/c1-5(3-7)9-6(2)4-8/h5-6H,1-2H3/t5-,6+
