20
gdb 55953	3.77066	0.88671	0.88217	3.4136	82.08	-0.2396	0.0182	0.2578	1431.4122	0.171102	-403.200355	-403.190994	-403.19005	-403.236812	33.66	
C	-0.0833891961	 1.5244559934	-0.0225472043	-0.483769
C	 0.0826719044	 0.0124200235	-0.0802907783	 0.407078
O	 1.1294746865	-0.5059410873	-0.426943509	-0.376292
N	-1.0215096978	-0.7054913353	 0.2828939972	-0.315934
C	-1.0578210371	-2.1600612138	 0.2914264804	 0.028382
C	-1.4242784528	-2.7032177815	 1.7024251893	-0.263809
C	-2.9061209854	-2.9766953162	 1.5962661938	-0.065703
C	-3.3210189277	-2.9738529207	 0.3294049083	-0.065724
C	-2.1886715793	-2.697987138	-0.631666224	-0.263668
H	 0.1138300222	 1.9367204219	-1.0156592375	 0.151373
H	-1.0734023528	 1.8499877442	 0.3078745876	 0.107588
H	 0.6706097772	 1.9339217385	 0.6548649267	 0.151405
H	-1.8562140189	-0.2134306953	 0.5587293955	 0.241577
H	-0.0660614961	-2.4718093346	-0.0341475221	 0.12009
H	-0.8726523002	-3.6268437473	 1.9252818828	 0.114771
H	-1.15879409	-1.9858254502	 2.4862703346	 0.105492
H	-3.5269776823	-3.1874207974	 2.4599098688	 0.093435
H	-4.3327840465	-3.1818868364	-0.0004461274	 0.093437
H	-2.4373331517	-1.9770102393	-1.4177322017	 0.105515
H	-1.8770349255	-3.6199688281	-1.1414408408	 0.114756
25.6454	37.6827	74.9992	97.723	216.8677	310.5739	370.5602	437.7146	446.8304	484.6404	596.32	638.0483	692.4426	751.2655	788.8462	883.701	884.8023	899.2908	948.4829	975.2345	978.4717	1006.5569	1022.1423	1048.2398	1056.2806	1100.3616	1130.5441	1170.3841	1226.8088	1240.7329	1259.4044	1310.343	1320.1634	1366.021	1379.1678	1396.4985	1470.4773	1475.7003	1483.654	1486.5093	1532.0882	1679.7524	1776.8183	3015.7495	3016.0645	3048.0543	3066.0991	3066.9179	3126.5051	3127.2162	3132.8968	3182.8304	3208.0053	3635.7489
CC(=O)NC1CC=CC1	CC(=O)N[C@H]1CC=CC1	
InChI=1S/C7H11NO/c1-6(9)8-7-4-2-3-5-7/h2-3,7H,4-5H2,1H3,(H,8,9)	InChI=1S/C7H11NO/c1-6(9)8-7-4-2-3-5-7/h2-3,7H,4-5H2,1H3,(H,8,9)
