17
gdb 42984	2.80766	1.70571	1.28629	3.1103	72.79	-0.2424	-0.0294	0.2131	992.271	0.138296	-417.984094	-417.976838	-417.975894	-418.015788	28.581	
O	 0.118526939	 0.0845267186	 0.2695748434	-0.355122
C	 0.0268806999	 1.2789033033	 0.1048916116	 0.408584
C	-1.2117782467	 2.0722534305	-0.1772567525	-0.176758
N	-1.2987508151	 3.2592498356	 0.7307402115	-0.329622
C	-0.7770136394	 3.4298511315	-0.6272724169	-0.043955
C	 0.7462885732	 3.5086789784	-0.6584671153	-0.308278
C	 1.1959266843	 2.233612401	 0.0466201226	 0.236906
C	 2.2042938708	 2.1372649065	 1.1425012491	-0.263572
N	 2.5231458012	 1.6585149962	-0.1999021598	-0.359558
H	-2.1160096466	 1.5775152242	-0.5093160324	 0.110479
H	-2.2744399221	 3.5480948866	 0.7614398875	 0.2426
H	-1.3615956876	 3.9830707266	-1.3548457501	 0.1006
H	 1.105913202	 3.5061307688	-1.6928898484	 0.121171
H	 1.1120774046	 4.4180206538	-0.1732226361	 0.117498
H	 2.7209731231	 3.0431425213	 1.4480737139	 0.124358
H	 2.0227860798	 1.4108509627	 1.9300642673	 0.130108
H	 2.4118366994	 0.6430033745	-0.2222120354	 0.244562
90.2268	198.045	260.5266	274.5307	370.587	372.5667	453.1485	569.3478	609.9069	702.2404	779.7054	806.4512	839.3063	865.608	885.6983	907.5619	946.0301	962.0908	999.7419	1010.0151	1045.6126	1089.4304	1113.261	1126.1262	1156.7198	1176.2984	1201.0559	1242.3652	1282.2108	1309.207	1330.846	1354.8805	1392.1762	1411.6188	1483.3354	1500.0754	1824.2531	3051.1857	3096.5974	3107.285	3167.8565	3199.2762	3199.7747	3446.1826	3494.1686
O=C1C2NC2CC11CN1	O=C1[C@H]2N[C@H]2C[C@]21CN2	
InChI=1S/C6H8N2O/c9-5-4-3(8-4)1-6(5)2-7-6/h3-4,7-8H,1-2H2	InChI=1S/C6H8N2O/c9-5-4-3(8-4)1-6(5)2-7-6/h3-4,7-8H,1-2H2/t3-,4-,6+/m0/s1
