16
gdb 124954	3.07916	1.27068	0.96198	3.5538	72.27	-0.2462	-0.0123	0.2339	1193.4504	0.123809	-437.861906	-437.85376	-437.852816	-437.895653	29.068	
C	 0.2663586619	 1.5411970559	 0.2798554202	-0.495742
C	 0.0291218379	 0.0984718508	 0.005894444	 0.344262
C	-1.0930478567	-0.6520494839	-0.2001216646	 0.086195
C	-0.5737945974	-1.9644650888	-0.3995862409	-0.042522
N	 0.7303356661	-2.00236036	-0.3271262406	-0.138617
O	 1.1195033118	-0.6874423641	-0.0730409539	-0.215143
C	-2.506314483	-0.2357518063	-0.2105965758	-0.058243
C	-3.4666375557	-0.7197445216	-1.2196251794	-0.181312
O	-3.4699853816	-1.2496810686	 0.1043868491	-0.230073
H	 0.9241714866	 1.6660691823	 1.1452738426	 0.156508
H	 0.7464515247	 2.031820451	-0.573882867	 0.154521
H	-0.6762660397	 2.0541855113	 0.4813065577	 0.141289
H	-1.1253901521	-2.8773063157	-0.5731286198	 0.143419
H	-2.7140855555	 0.7313037085	 0.2478048755	 0.094208
H	-4.3273654216	-0.1061193492	-1.48292445	 0.121786
H	-3.1201595857	-1.3991325417	-1.9969842969	 0.119465
52.801	91.6883	155.1525	171.8527	246.0702	281.0817	446.6358	474.894	612.5703	639.1404	697.7755	721.4714	847.9055	898.1707	910.9285	917.0376	960.9064	996.2242	1014.3067	1062.2809	1094.3648	1138.6389	1161.0449	1168.4896	1206.1329	1260.3282	1287.9882	1405.76	1415.3543	1440.1308	1471.9539	1485.5487	1521.0213	1524.3585	1676.4516	3042.3186	3082.1067	3100.9952	3106.0533	3134.8867	3172.9064	3250.1293
CC1=C(C=NO1)C1CO1	Cc1c(cno1)[C@H]1CO1	
InChI=1S/C6H7NO2/c1-4-5(2-7-9-4)6-3-8-6/h2,6H,3H2,1H3	InChI=1S/C6H7NO2/c1-4-5(2-7-9-4)6-3-8-6/h2,6H,3H2,1H3/t6-/m1/s1
