15
gdb 43847	3.22803	1.35717	1.04181	5.2672	67.15	-0.2561	-0.084	0.1722	1108.2837	0.111611	-457.798038	-457.79035	-457.789406	-457.83208	28.62	
O	 0.013321791	-0.0015752692	 0.0037385025	-0.263206
C	-0.0558396813	 1.1933795138	 0.0111597433	 0.291605
C	-1.290931144	 2.076701997	 0.033208222	-0.446741
C	-0.7227983497	 3.4855879118	 0.0324648266	 0.430485
C	-1.3086888654	 4.6410083319	-0.7133545551	-0.321045
C	-1.2876813883	 4.6333517735	 0.8057902539	-0.321053
O	 0.7101386239	 3.4110631844	 0.0122921383	-0.243086
C	 1.1678464602	 2.1379987203	-0.0008585719	 0.326205
O	 2.3232813975	 1.839731066	-0.0185266407	-0.308491
H	-1.9121112139	 1.863821058	-0.8422772013	 0.158666
H	-1.8870649153	 1.8546892815	 0.9237120346	 0.158669
H	-0.6135435471	 5.3031585174	-1.2163196515	 0.142223
H	-2.253790014	 4.4908530059	-1.2241928739	 0.126773
H	-2.2183235334	 4.4779050706	 1.3410112643	 0.126773
H	-0.5788223702	 5.2905069572	 1.2960050088	 0.142224
11.812	110.8909	264.8092	303.8197	326.2001	388.6278	459.3463	471.4385	568.2104	625.325	661.9056	722.6732	765.1495	843.2996	866.7397	934.3087	954.3412	985.0895	1012.8135	1058.1482	1063.7065	1083.7194	1174.8126	1189.2281	1210.0152	1230.313	1282.3006	1379.1648	1444.6554	1451.9204	1499.2487	1871.6995	1883.4821	3057.7265	3099.3684	3136.3897	3138.6033	3223.6195	3236.5854
O=C1CC2(CC2)OC1=O	O=C1CC2(CC2)OC1=O	
InChI=1S/C6H6O3/c7-4-3-6(1-2-6)9-5(4)8/h1-3H2	InChI=1S/C6H6O3/c7-4-3-6(1-2-6)9-5(4)8/h1-3H2
