21
gdb 69548	2.56863	1.53142	1.346	1.1101	81.79	-0.2307	0.0809	0.3116	1080.3377	0.182067	-387.039691	-387.031297	-387.030353	-387.071837	34.271	
C	-0.0114030152	 1.5197540959	-0.020439038	-0.489567
C	 0.0036342666	 0.0071240924	 0.012017243	 0.389963
C	-1.3701385241	-0.7437813131	-0.0165176035	-0.295632
C	-0.982583992	-1.507858517	 1.291401362	-0.244042
C	 0.393784929	-0.7812543625	 1.3034713936	-0.138302
C	 1.590560265	-1.3964107924	 0.5396958644	 0.397899
O	 2.8550633615	-1.525688422	 1.0922724585	-0.4662
C	 1.175421162	-2.1533483923	-0.6869607182	-0.372149
C	 1.2040618128	-0.6388462932	-0.7258983837	-0.167346
H	 0.9748910199	 1.9288225218	 0.2266065195	 0.119673
H	-0.2839031378	 1.8905067995	-1.0167655621	 0.113813
H	-0.7338068785	 1.926465264	 0.6958224603	 0.109823
H	-2.2229159071	-0.071704254	 0.1114652448	 0.095389
H	-1.5585522831	-1.3611682496	-0.8984303424	 0.097697
H	-1.6128065148	-1.2463464804	 2.1447673202	 0.097878
H	-0.9466206787	-2.5986008545	 1.2212625551	 0.095025
H	 0.6919704105	-0.2468652091	 2.2067492217	 0.068731
H	 2.9457326694	-2.4223280387	 1.4336619459	 0.282565
H	 2.0105707944	-2.6103970111	-1.2097732696	 0.111202
H	 0.2502860982	-2.7183423238	-0.7524264833	 0.107777
H	 1.8303637119	-0.11740426	-1.4416352282	 0.085802
142.7962	220.5035	235.5135	246.1001	281.2147	299.0267	331.6291	390.9205	455.776	487.222	575.2564	629.6687	714.8729	752.3902	812.6089	838.3521	880.5378	891.5121	917.6591	941.7349	961.1496	985.2838	995.7436	1011.2195	1021.8109	1071.3407	1100.173	1120.4007	1153.4424	1199.3061	1212.1166	1222.6176	1224.8379	1248.3909	1263.8934	1281.9119	1302.6228	1348.0168	1400.2173	1410.0092	1474.5835	1487.0476	1491.5716	1494.9344	1506.8123	3015.8117	3053.6931	3059.8033	3078.3022	3090.8081	3093.4299	3102.7507	3114.9694	3117.8622	3168.0764	3199.4182	3788.6464
CC12CCC1C1(O)CC21	C[C@]12CC[C@H]1[C@@]1(O)C[C@@H]21	
InChI=1S/C8H12O/c1-7-3-2-5(7)8(9)4-6(7)8/h5-6,9H,2-4H2,1H3	InChI=1S/C8H12O/c1-7-3-2-5(7)8(9)4-6(7)8/h5-6,9H,2-4H2,1H3/t5-,6+,7+,8+/m1/s1
