19
gdb 89403	2.92884	1.43119	1.22106	3.1263	70.21	-0.2485	0.0767	0.3253	1083.6421	0.159455	-460.163886	-460.155669	-460.154725	-460.196093	32.827	
C	 0.0758307242	 1.4624075741	-0.0695967687	-0.486658
C	-0.0537564927	-0.0233229859	 0.1092797632	 0.406068
C	-1.3141557424	-0.7637809052	-0.324230542	-0.311155
C	-1.105700271	-2.2032547695	 0.1904686773	 0.065126
O	-0.411460006	-3.0250917081	-0.7422684269	-0.448141
C	-0.2373509311	-2.0424540738	 1.4770627323	 0.112078
O	 0.4874281234	-3.2049201049	 1.7855364715	-0.440859
C	 0.6011203972	-0.811269603	 1.1638520425	-0.051501
O	 1.1318041123	-0.8063375488	-0.1842781262	-0.317462
H	 1.0415715755	 1.8132722594	 0.3019253914	 0.135175
H	-0.0027536073	 1.7324334098	-1.1283068627	 0.13118
H	-0.7200797729	 1.9865899365	 0.4696478469	 0.126515
H	-2.1916623142	-0.3026972111	 0.1447242201	 0.109435
H	-1.4680547283	-0.7469067051	-1.4080163773	 0.11726
H	-2.0459050994	-2.7178121781	 0.397807305	 0.091464
H	 0.3660210597	-2.506697896	-1.0020828651	 0.292346
H	-0.8770069021	-1.8039444864	 2.3386430737	 0.08195
H	 0.5733105445	-3.676061184	 0.9428533353	 0.285993
H	 1.2587632005	-0.37696187	 1.9121523	 0.101187
148.7588	177.82	202.5298	252.5958	296.6533	345.8841	403.6217	416.5533	461.6189	516.9515	533.5709	625.7686	679.698	706.5906	808.8348	843.8776	854.6084	888.4097	912.4133	956.4663	1003.0304	1036.0014	1056.6756	1070.1081	1119.4853	1134.7755	1208.0168	1218.6388	1241.5497	1248.4086	1307.8657	1316.2873	1341.3634	1364.1203	1410.5928	1434.8957	1452.4582	1457.573	1476.2023	1488.4524	1499.6471	3012.9081	3036.0449	3040.8872	3087.4333	3097.8204	3100.4068	3126.3484	3155.931	3698.767	3716.7214
CC12CC(O)C(O)C1O2	C[C@]12C[C@@H](O)[C@@H](O)[C@H]1O2	
InChI=1S/C6H10O3/c1-6-2-3(7)4(8)5(6)9-6/h3-5,7-8H,2H2,1H3	InChI=1S/C6H10O3/c1-6-2-3(7)4(8)5(6)9-6/h3-5,7-8H,2H2,1H3/t3-,4-,5-,6+/m1/s1
