21
gdb 88170	2.67068	1.30972	1.13167	1.7077	77.97	-0.2518	0.0833	0.3351	1199.7777	0.181664	-424.21923	-424.210057	-424.209112	-424.253158	34.417	
C	 0.1359353687	 1.4976009249	-0.2830160035	-0.423319
C	 0.1651637221	 0.006413064	-0.0624135029	-0.003112
O	 1.4505265557	-0.6023703738	 0.1363281519	-0.301063
C	 0.5110012761	-0.6182701947	 1.2193915138	 0.368712
C	 0.9161639095	 0.1388595602	 2.4897898218	-0.144259
O	 0.6751418921	-0.7496656338	 3.5726329254	-0.258168
C	 0.7114588478	-2.075881888	 3.0511257693	-0.098263
C	-0.0048211045	-1.9793625559	 1.6943613469	-0.082996
C	-1.5300490794	-2.0141112139	 1.8543713688	-0.397396
H	 0.8065157049	 2.0154521738	 0.4070244339	 0.129337
H	 0.447211851	 1.7381910439	-1.304765471	 0.131049
H	-0.8789103813	 1.8853741622	-0.1419760042	 0.124114
H	-0.4824104435	-0.5630540622	-0.7335265666	 0.086091
H	 1.979903436	 0.4093171204	 2.4176288551	 0.108272
H	 0.3349526474	 1.0497917368	 2.6653815483	 0.109486
H	 1.7507913043	-2.4180610303	 2.9227496917	 0.095661
H	 0.2136525506	-2.7286579738	 3.773131742	 0.106349
H	 0.3272178659	-2.7535570652	 0.997472518	 0.08864
H	-1.8595514561	-1.2674748067	 2.5837503302	 0.130572
H	-2.0385599402	-1.8125757488	 0.906814894	 0.11419
H	-1.8591117671	-2.9963376691	 2.2087994472	 0.116105
62.1927	141.154	174.8692	195.8056	206.2745	233.1846	290.2091	336.7631	433.0543	458.1138	509.7394	533.0861	700.2849	763.4526	781.3425	864.5581	903.8656	945.0158	956.9565	983.612	1009.8922	1024.5971	1045.4211	1091.0824	1125.2678	1127.046	1146.1655	1165.1935	1214.2849	1236.1017	1259.8507	1270.4872	1326.4872	1346.7238	1362.4388	1387.5115	1409.6489	1411.4284	1471.0368	1489.7175	1495.8291	1498.9426	1506.1655	1517.3969	1519.2893	2977.8227	2998.2622	3035.599	3037.7818	3069.8761	3075.4616	3077.1323	3092.6119	3100.964	3103.873	3112.9609	3127.6007
CC1OC11COCC1C	C[C@H]1O[C@]21COC[C@H]2C	
InChI=1S/C7H12O2/c1-5-3-8-4-7(5)6(2)9-7/h5-6H,3-4H2,1-2H3	InChI=1S/C7H12O2/c1-5-3-8-4-7(5)6(2)9-7/h5-6H,3-4H2,1-2H3/t5-,6-,7-/m1/s1
