16
gdb 29421	3.78443	1.06726	0.83337	1.806	77.98	-0.1754	0.0119	0.1872	1318.551	0.125849	-434.087813	-434.079349	-434.078405	-434.120995	31.758	
N	 0.0766918881	 1.1897784936	-0.723948849	-0.606881
C	-0.0098297527	-0.0174382286	-0.0195994139	 0.250182
C	-0.4702293976	-0.2289265431	 1.243866715	-0.115035
O	-0.2959064607	-1.5598966183	 1.5877799075	-0.205424
C	 0.2674495407	-2.1596742829	 0.5178049996	 0.484453
N	 0.5035820686	-3.510413911	 0.6996091121	-0.39281
C	 1.0536033222	-4.3752924036	-0.2118432025	 0.076787
N	 1.419058113	-4.016465491	-1.3799460366	-0.451899
C	 0.4752066455	-1.2845797605	-0.5035543167	-0.359498
H	-0.050282269	 1.0666535648	-1.7199542711	 0.246251
H	-0.5666372371	 1.8940530391	-0.3875023868	 0.241352
H	-0.9083555675	 0.3958243182	 2.0016684599	 0.116225
H	 0.241600481	-3.8724804173	 1.6016148835	 0.261424
H	 1.1294480384	-5.3880467701	 0.1998283954	 0.093842
H	 1.7980047957	-4.813164633	-1.885842991	 0.223212
H	 0.9182253514	-1.5188073063	-1.4547117556	 0.137818
76.1346	153.9915	156.7813	226.5315	278.477	313.2332	374.6497	428.5574	438.6967	554.3201	583.6749	636.566	680.0295	711.0583	748.5479	787.581	795.236	812.0264	982.5968	1001.0658	1029.5273	1088.7254	1110.7314	1147.1995	1190.6871	1239.3134	1272.9048	1323.6723	1412.2755	1442.2785	1571.7666	1616.3122	1654.6514	1679.2689	1722.2217	3054.9402	3293.8839	3303.2616	3518.5597	3540.895	3631.0705	3657.5623
NC1=COC(NC=N)=C1	Nc1coc(NC=N)c1	
InChI=1S/C5H7N3O/c6-3-8-5-1-4(7)2-9-5/h1-3H,7H2,(H2,6,8)	InChI=1S/C5H7N3O/c6-3-8-5-1-4(7)2-9-5/h1-3H,7H2,(H2,6,8)
