17
gdb 125545	3.1598	1.4698	1.02264	1.2126	77.83	-0.2	0.0366	0.2366	1144.9111	0.136571	-417.99052	-417.981901	-417.980957	-418.024853	30.764	
C	-0.1445299072	 1.4885450676	 0.0533532498	-0.519478
C	 0.0566405506	 0.0055647371	 0.0549360024	 0.256494
N	 0.1280176319	-0.6884133535	-1.1031117039	-0.364186
N	 0.3053381695	-1.9321947627	-0.6645731611	 0.079349
C	 0.4899111295	-3.3442228715	-1.0190119728	-0.164916
C	 0.5551437894	-3.5990926605	 0.5448974453	-0.383159
C	 0.3536857549	-2.0953462556	 0.6707353043	 0.337083
C	 0.1927124865	-0.8315183733	 1.2041968006	-0.01621
O	 0.1703987517	-0.4751569031	 2.5207137981	-0.4433
H	 0.6862268946	 2.0185001084	 0.5371091199	 0.122334
H	-0.2132615637	 1.8456335146	-0.9760851877	 0.149824
H	-1.0670561265	 1.7807287373	 0.5716395899	 0.122277
H	-0.3639789811	-3.7907085145	-1.5356437957	 0.132229
H	 1.4113053951	-3.5499072387	-1.5704730617	 0.132233
H	-0.2514824143	-4.2253492385	 0.9329322117	 0.130577
H	 1.5136689292	-3.9860198232	 0.8983471348	 0.13058
H	 0.0409010799	 0.4765533299	 2.575650456	 0.298268
27.7846	98.0438	171.3329	186.0221	243.2046	271.7852	304.3049	359.1346	574.9702	583.8989	644.4342	659.9047	686.1219	811.8505	827.0098	877.1445	924.8437	995.2697	1057.0783	1060.4572	1080.5969	1132.4167	1170.5656	1215.7055	1252.6951	1258.5959	1303.097	1345.8607	1383.4369	1410.2743	1469.4589	1484.3924	1484.6203	1497.284	1501.6057	1538.213	1662.4709	3012.7239	3055.9729	3057.3783	3070.6118	3107.7598	3122.9163	3131.1284	3833.5349
CC1=NN2CCC2=C1O	Cc1nn2CCc2c1O	
InChI=1S/C6H8N2O/c1-4-6(9)5-2-3-8(5)7-4/h9H,2-3H2,1H3	InChI=1S/C6H8N2O/c1-4-6(9)5-2-3-8(5)7-4/h9H,2-3H2,1H3
