23
gdb 83338	2.07254	1.61426	1.47705	1.5101	85.2	-0.2301	0.0889	0.3189	1113.8136	0.205516	-388.285108	-388.275912	-388.274967	-388.318138	36.225	
C	-0.2074105317	 1.5656229458	 0.9371524555	-0.44061
C	-0.0949016989	 0.1003828361	 0.547150368	-0.010143
C	 0.9594191968	-0.404639281	-0.4983883609	-0.102229
C	 2.255438098	 0.0980831413	 0.1418069217	-0.094162
O	 2.0081467673	-0.2555813212	 1.5216738021	-0.314813
C	 0.7043543876	-0.8866900372	 1.4511866116	 0.431509
C	 0.2771931861	-1.3487308564	 2.8152695998	-0.502804
C	 0.8672333493	-1.8061853705	 0.200917474	 0.000584
C	-0.2628576339	-2.7466135563	-0.1970965977	-0.440811
H	 0.7240347693	 1.9409978262	 1.3676078839	 0.133822
H	-0.464920934	 2.188100725	 0.0727825145	 0.111168
H	-0.9955352455	 1.7054652865	 1.6851572142	 0.113228
H	-1.0803625644	-0.3016414057	 0.306622805	 0.069986
H	 0.8334385479	-0.271207675	-1.5733872035	 0.061454
H	 3.1485651671	-0.4196991454	-0.2283318619	 0.095467
H	 2.4121766141	 1.1790440605	 0.0499624203	 0.094596
H	 0.1907426909	-0.4998170122	 3.5009216256	 0.127365
H	-0.6919718862	-1.8537241251	 2.7661196765	 0.116658
H	 1.0117598193	-2.0450096485	 3.2322472157	 0.126475
H	 1.8121726176	-2.3610929704	 0.2155034345	 0.068058
H	-1.2402056686	-2.2595380517	-0.2474583986	 0.118993
H	-0.0647549835	-3.1834756884	-1.1821174087	 0.11737
H	-0.3441033743	-3.5752066963	 0.5152935386	 0.11884
164.5353	169.6606	192.1623	198.0022	205.4431	244.7566	293.6746	323.6498	353.8805	433.3131	509.0903	601.989	630.1274	692.1225	749.3743	783.7488	814.8034	871.4773	917.7666	944.754	970.7681	995.4201	1019.018	1033.8756	1058.499	1079.3961	1124.3652	1130.3853	1139.7282	1166.8671	1180.6668	1198.9651	1226.1125	1248.182	1276.4293	1321.3859	1355.571	1383.701	1398.4604	1404.9122	1416.7538	1424.9396	1479.5406	1489.0204	1493.3309	1497.2467	1501.9533	1505.2825	1536.5424	3020.7237	3031.1716	3033.1242	3037.4447	3040.8589	3057.8014	3087.0176	3088.2351	3090.7768	3106.3466	3111.2812	3113.1101	3114.7221	3126.9449
CC1C2COC1(C)C2C	C[C@H]1[C@H]2CO[C@]1(C)[C@H]2C	
InChI=1S/C8H14O/c1-5-7-4-9-8(5,3)6(7)2/h5-7H,4H2,1-3H3	InChI=1S/C8H14O/c1-5-7-4-9-8(5,3)6(7)2/h5-7H,4H2,1-3H3/t5-,6-,7-,8+/m0/s1
