14
gdb 123385	7.57614	0.8124	0.7371	2.1413	71.59	-0.2344	0.0027	0.2371	1435.5655	0.099573	-436.628232	-436.620144	-436.6192	-436.662089	28.762	
C	-0.0203031557	-1.1506552711	-0.0038062832	-0.401861
C	 0.0130869407	 0.0488862512	 0.0025944391	 0.291344
C	 0.0088991202	 1.5004691589	 0.0108634435	-0.243603
O	 1.3772684578	 1.9632714457	-0.0026378289	-0.2696
C	 1.5606996102	 3.2786481208	 0.0026774187	 0.557282
C	 2.7183931824	 4.0020339735	-0.0068438333	-0.401851
C	 2.2418630105	 5.3346944152	 0.0063415978	 0.060123
N	 0.9333312847	 5.4253228165	 0.0222568098	-0.163407
O	 0.4903105627	 4.0805117733	 0.0198347478	-0.221684
H	-0.0462622214	-2.2126628838	-0.0095167958	 0.211334
H	-0.5173554835	 1.896946766	-0.864999762	 0.160025
H	-0.4965224279	 1.8869330428	 0.9033147075	 0.160025
H	 3.7282096107	 3.633306606	-0.0208286338	 0.12604
H	 2.8180552385	 6.250026925	 0.0047594329	 0.135833
42.4342	78.0698	114.4555	226.6187	293.5161	331.4615	430.6651	507.9244	622.0688	631.3697	697.1292	708.5971	749.0857	767.7924	886.9137	926.549	927.4298	975.3197	1001.9693	1017.4098	1043.2445	1063.6852	1226.8956	1252.8553	1318.8626	1379.1679	1394.7777	1490.3213	1540.5022	1655.9757	2254.5691	3035.993	3073.1125	3238.2788	3298.444	3503.9365
C#CCOC1=CC=NO1	C#CCOc1ccno1	
InChI=1S/C6H5NO2/c1-2-5-8-6-3-4-7-9-6/h1,3-4H,5H2	InChI=1S/C6H5NO2/c1-2-5-8-6-3-4-7-9-6/h1,3-4H,5H2
