20
gdb 78348	2.60174	1.4112	1.105	1.5716	80.22	-0.2222	0.0817	0.3039	1183.5577	0.169279	-403.073925	-403.065191	-403.064246	-403.106903	33.681	
C	 0.0087530161	 1.6086667682	-0.1165982451	-0.412843
C	 0.0437362446	 0.0947197832	 0.0256547438	-0.099621
C	 0.9841388926	-0.7123316705	-0.8962372013	-0.04276
C	 1.6675578249	-1.3483026409	 0.273115415	-0.16395
N	 2.3648531551	-0.3357020664	-0.5526879706	-0.10779
C	 3.3626873556	-0.9184034578	-1.4468742266	-0.316258
C	 0.7935059251	-0.5531814363	 1.2226684578	 0.463054
C	 1.0473402828	-0.0923918918	 2.5837126494	-0.262131
O	 0.100729678	-1.142904847	 2.3056372936	-0.287231
H	 1.0246859616	 2.01144159	-0.1282312336	 0.135215
H	-0.4904863493	 1.9041814102	-1.0458691516	 0.112407
H	-0.5393222577	 2.0692885998	 0.7122670061	 0.115516
H	-0.9633868305	-0.3356850258	-0.0024498252	 0.092003
H	 0.756391973	-1.1338066181	-1.8682451548	 0.093096
H	 2.0689611508	-2.3462659986	 0.4007232352	 0.101676
H	 3.0935724229	-1.918469403	-1.8269438529	 0.099283
H	 3.5036427663	-0.2530529894	-2.30444636	 0.125269
H	 4.3164992391	-1.0000076805	-0.9165232353	 0.125313
H	 1.9526316491	-0.4039356134	 3.1027916857	 0.114564
H	 0.6102106398	 0.8422613283	 2.9320574206	 0.11519
114.1231	166.1876	200.8137	214.2657	237.2321	247.2528	308.4141	362.2629	426.7787	463.3774	573.76	599.4065	738.2655	824.8969	836.8293	852.1012	872.2356	897.8154	906.2647	962.0092	1010.3953	1058.7479	1083.0415	1112.903	1119.0119	1123.2031	1139.152	1147.4235	1163.4934	1177.4355	1223.7306	1245.3798	1285.5663	1353.8215	1357.3538	1402.4035	1445.6985	1453.9266	1492.1792	1493.4787	1499.2916	1502.2435	1539.2178	2960.9698	3033.0667	3056.3073	3068.1419	3083.3226	3093.459	3104.8372	3123.3309	3169.7627	3181.4784	3196.8916
CC1C2C(N2C)C11CO1	C[C@H]1[C@@H]2[C@@H](N2C)[C@]21CO2	
InChI=1S/C7H11NO/c1-4-5-6(8(5)2)7(4)3-9-7/h4-6H,3H2,1-2H3	InChI=1S/C7H11NO/c1-4-5-6(8(5)2)7(4)3-9-7/h4-6H,3H2,1-2H3/t4-,5+,6+,7+,8?/m0/s1
