21
gdb 107636	2.42627	1.54088	1.13793	2.1538	77.5	-0.2246	0.0766	0.3012	1155.5018	0.181695	-424.200884	-424.19174	-424.190796	-424.234601	34.535	
C	-0.4832252393	 1.3436641698	-0.430003898	-0.253845
O	 0.1966655461	 0.1711032897	-0.0185251269	-0.292566
C	 0.8052158883	-0.5500117	-1.0397731527	 0.394217
C	-0.0520723996	-1.3406591031	-2.0181012158	-0.397848
C	 0.8029370901	-2.040822209	-0.9761183073	 0.04475
O	 2.0482476271	-2.5639937321	-1.3454142453	-0.259221
C	 2.7713711111	-1.5230146086	-2.0010529397	-0.10329
C	 2.2178434825	-0.1695789019	-1.4939223418	-0.063272
C	 2.3531980892	 0.9392838823	-2.5402043502	-0.416394
H	 0.2077880469	 2.1343308898	-0.7513532457	 0.111476
H	-1.1831881224	 1.137827718	-1.251345586	 0.109825
H	-1.0449070313	 1.702709138	 0.4358424194	 0.12655
H	-1.1194433703	-1.3436682343	-1.8245520261	 0.119088
H	 0.2192798928	-1.3899113429	-3.0673776213	 0.11566
H	 0.3314214784	-2.5921087412	-0.1719089257	 0.112625
H	 3.8341757662	-1.6605152166	-1.7833201252	 0.112803
H	 2.639815065	-1.5996419506	-3.0914538771	 0.092847
H	 2.7518839421	 0.1233670607	-0.5814044642	 0.088684
H	 1.7341721908	 0.7294899694	-3.4192117365	 0.118438
H	 2.0539916752	 1.9122756591	-2.1415737354	 0.122253
H	 3.3915516112	 1.0309944634	-2.8783414484	 0.117222
80.1926	125.3558	168.4771	201.0542	216.322	249.0091	298.4654	362.4125	385.9388	457.6474	486.8088	604.9537	661.1501	707.4825	824.69	877.5458	913.8062	945.3691	965.4871	978.1164	1003.7445	1022.3056	1042.7046	1076.3382	1101.1478	1125.3333	1150.5294	1171.3381	1179.0779	1218.6005	1231.6652	1258.7614	1275.4105	1310.029	1355.1482	1376.8684	1409.5255	1415.388	1465.0293	1483.5363	1488.2783	1495.1814	1503.4183	1509.3279	1523.8183	2984.8264	2998.4763	3031.0871	3032.6614	3052.5285	3084.4633	3094.0975	3112.9262	3116.1987	3130.4822	3193.8562	3220.553
COC12CC1OCC2C	CO[C@]12C[C@H]1OC[C@H]2C	
InChI=1S/C7H12O2/c1-5-4-9-6-3-7(5,6)8-2/h5-6H,3-4H2,1-2H3	InChI=1S/C7H12O2/c1-5-4-9-6-3-7(5,6)8-2/h5-6H,3-4H2,1-2H3/t5-,6-,7+/m1/s1
