16
gdb 69354	2.89432	1.33593	1.10194	4.4697	69.42	-0.2757	0.0129	0.2886	1100.2971	0.122699	-437.856297	-437.847811	-437.846867	-437.889077	32.416	
O	-0.1986005045	 1.428936951	-0.0181961342	-0.458277
C	-0.0726193996	 0.0567677867	 0.0214266482	 0.416532
C	-0.2963697401	-0.8302629862	-1.1651421042	-0.356036
C	-1.2083350201	-0.9586523676	 0.037960517	-0.129044
C	-0.4940654556	-1.7682208378	 1.1248544549	 0.264126
O	-0.175219745	-3.0782403425	 0.7121834567	-0.459981
C	 0.6712403844	-0.6975779771	 1.1299922552	-0.3725
C	-1.2285726519	-1.7928467977	 2.3985180824	 0.235885
N	-1.7818568701	-1.8379190476	 3.4124938784	-0.337013
H	 0.4890067655	 1.7847962192	-0.5915915785	 0.29201
H	-0.7720947943	-0.3367292063	-2.0064324443	 0.123495
H	 0.3895997585	-1.6311226105	-1.4228191632	 0.127986
H	-2.2791503346	-0.8208597914	-0.0252757943	 0.116497
H	 0.3038491919	-3.5183161694	 1.423837383	 0.294429
H	 1.6600975013	-1.1004777242	 0.8899989037	 0.104445
H	 0.7088704441	-0.1343342685	 2.0634681591	 0.137448
95.1247	157.3875	209.1474	238.0065	276.8654	323.9899	383.488	408.0833	423.2439	458.0849	515.2516	568.3251	638.1939	693.537	777.9819	847.7102	899.409	932.1041	957.5425	981.5948	1026.0866	1056.7017	1073.1653	1093.0634	1112.5522	1213.3181	1223.6547	1244.8079	1270.2025	1314.0918	1367.2806	1411.1661	1467.5086	1501.5774	2350.9248	3054.2134	3126.0235	3134.4375	3211.0979	3219.4471	3799.7891	3802.4043
OC12CC1C(O)(C2)C#N	O[C@]12C[C@H]1[C@@](O)(C2)C#N	
InChI=1S/C6H7NO2/c7-3-6(9)2-5(8)1-4(5)6/h4,8-9H,1-2H2	InChI=1S/C6H7NO2/c7-3-6(9)2-5(8)1-4(5)6/h4,8-9H,1-2H2/t4-,5+,6-/m1/s1
