19
gdb 98524	3.64967	1.08503	0.9753	1.6048	76.72	-0.2465	-0.023	0.2235	1284.5343	0.157096	-422.97808	-422.969136	-422.968192	-423.013145	32.659	
C	 0.0904807078	 1.4412359211	 0.1611957924	-0.384552
C	 0.2724297455	-0.0665742275	 0.0188746303	-0.287276
C	 0.6185603365	-0.5018335826	-1.3892383645	 0.215374
O	 0.7440382701	 0.256556665	-2.3244103761	-0.318606
C	 0.8125099525	-1.9795961281	-1.5994917127	 0.367824
C	-0.0242761349	-2.9601489697	-2.4704219212	-0.243766
C	 0.9982288743	-3.7590255162	-1.6307526402	 0.039086
C	 2.1015835897	-2.7463261337	-2.0125948299	-0.243736
O	 0.6604902531	-2.9160879688	-0.4561373608	-0.345887
H	 1.0021798098	 1.9734791747	-0.1225292468	 0.130975
H	-0.7103171873	 1.8015128341	-0.4898853243	 0.130949
H	-0.1572914042	 1.7042034663	 1.1930655492	 0.112087
H	 1.0582549162	-0.4535356011	 0.6821412636	 0.137361
H	-0.6259060602	-0.622663176	 0.3203984904	 0.13733
H	-1.065304471	-3.069604233	-2.1653081887	 0.112564
H	 0.1097315783	-2.9149470399	-3.5526197259	 0.112491
H	 1.0704095479	-4.8331839014	-1.4642479925	 0.102721
H	 2.4145034035	-2.6831360592	-3.0562624554	 0.112495
H	 2.9277198325	-2.6679751842	-1.3053640768	 0.112566
26.8774	64.4572	137.8121	160.6923	213.0172	267.0256	343.1057	439.3397	537.5727	539.944	601.0658	707.9591	742.9282	767.8486	819.5815	880.8924	927.2158	932.0688	944.7841	984.1049	998.1922	1039.0389	1049.5641	1091.5407	1106.3523	1112.4415	1121.8334	1160.7434	1214.5787	1235.3402	1238.2493	1269.332	1304.0778	1386.7595	1413.0449	1440.1232	1466.0215	1491.3321	1497.1746	1508.457	1801.0964	3027.0102	3049.0907	3050.8783	3073.8496	3079.8078	3122.9112	3124.3352	3127.6533	3156.3087	3161.7275
CCC(=O)C12CC(C1)O2	CCC(=O)[C@@]12C[C@@H](C1)O2	
InChI=1S/C7H10O2/c1-2-6(8)7-3-5(4-7)9-7/h5H,2-4H2,1H3	InChI=1S/C7H10O2/c1-2-6(8)7-3-5(4-7)9-7/h5H,2-4H2,1H3/t5-,7+
