17
gdb 69384	3.57116	1.17793	0.99384	4.128	76.6	-0.2526	-0.0639	0.1887	1202.4274	0.134646	-421.837084	-421.828923	-421.827979	-421.869812	30.662	
C	 0.0467229757	 1.5178149568	-0.0182807302	-0.485596
C	-0.0627153532	 0.0251636	 0.1224353649	 0.410916
C	-1.3722434465	-0.6991479637	-0.2160829976	-0.329706
C	-1.310023748	-1.9536549093	 0.6193826152	-0.163814
C	-0.2101183518	-1.996481038	 1.3916867038	 0.270619
C	 0.1098892495	-3.0503852895	 2.3555499307	 0.068443
O	 1.0848848649	-3.0429892776	 3.073946007	-0.271705
C	 0.6471182228	-0.8010940611	 1.1211526034	-0.161081
O	 1.0868953657	-0.74122514	-0.2548652828	-0.29205
H	 1.0315970449	 1.8596578474	 0.3082450734	 0.13752
H	-0.0881568451	 1.8192973657	-1.0630552589	 0.130245
H	-0.7181014961	 2.0243886928	 0.5794847446	 0.123867
H	-2.2527030282	-0.0954161726	 0.0412729731	 0.123246
H	-1.4439859937	-0.9201928807	-1.2880440654	 0.137101
H	-2.0689847017	-2.7286880688	 0.579747401	 0.119101
H	-0.6316419833	-3.8794614377	 2.3959021153	 0.069997
H	 1.3485309541	-0.4239830635	 1.8571693325	 0.112897
100.6684	157.918	176.3253	196.7781	290.7977	309.7484	378.8473	405.9829	479.5443	598.4376	609.4581	707.9028	768.7547	809.6395	846.5285	888.9072	924.4565	952.5282	984.063	1009.4312	1041.1596	1063.8733	1095.0657	1188.9607	1203.3875	1222.3808	1255.0648	1313.2484	1370.9968	1407.9638	1420.1797	1437.0288	1453.4597	1484.5682	1495.2937	1663.9315	1786.4268	2880.6381	3025.1105	3036.2953	3062.6892	3097.8198	3127.9123	3184.5284	3187.8497
CC12CC=C(C=O)C1O2	C[C@]12CC=C(C=O)[C@H]1O2	
InChI=1S/C7H8O2/c1-7-3-2-5(4-8)6(7)9-7/h2,4,6H,3H2,1H3	InChI=1S/C7H8O2/c1-7-3-2-5(4-8)6(7)9-7/h2,4,6H,3H2,1H3/t6-,7+/m1/s1
