20
gdb 120603	3.76538	0.82518	0.78499	1.5317	77.56	-0.243	-0.0258	0.2172	1509.0568	0.168002	-440.26069	-440.250479	-440.249535	-440.2968	36.345	
C	 0.0001582782	 1.5689218328	-0.1787686509	-0.473656
C	-0.0142349842	 0.0777768733	 0.0725513442	 0.205082
C	 1.2559623669	-0.7279473193	 0.0254646129	-0.289574
N	 0.5629741724	-0.5436749925	 1.2839940467	-0.135188
C	 1.182370642	 0.31003274	 2.298407888	-0.137832
C	 1.847043698	-0.5716489386	 3.3550180077	-0.065737
O	 2.8629295357	-1.395631615	 2.8094278125	-0.4195
C	-1.2576502251	-0.6363694135	-0.3596835053	 0.143022
O	-2.1403537634	-0.1360910444	-1.0095799814	-0.261282
H	 0.9783836114	 2.0113813514	 0.0158057596	 0.120712
H	-0.2683325142	 1.7606593536	-1.2205463757	 0.146286
H	-0.7441771123	 2.0761245539	 0.4434066095	 0.134201
H	 1.2608786945	-1.7362995689	-0.3836374771	 0.11915
H	 2.168816092	-0.1606502988	-0.1500480726	 0.129193
H	 1.9324015899	 0.994837362	 1.875614047	 0.098732
H	 0.4004448323	 0.913420483	 2.7744542456	 0.107826
H	 2.3308361159	 0.0632404706	 4.1048325545	 0.10941
H	 1.0772799633	-1.1702335953	 3.863180106	 0.098627
H	 2.4239575316	-2.0545353382	 2.2620794636	 0.293383
H	-1.2979770147	-1.6948155059	-0.0189227547	 0.077145
34.5837	80.4737	107.6774	142.3761	162.461	247.9556	260.6588	286.6932	360.716	390.4243	420.0386	446.9796	488.7601	605.1433	730.1269	761.7093	871.546	897.8056	918.6098	941.3937	1004.0318	1024.2574	1059.8261	1085.6813	1098.7065	1125.1863	1132.5534	1167.7548	1223.5906	1278.6891	1319.5659	1343.0384	1378.198	1398.7053	1409.4187	1419.059	1425.1047	1475.0176	1483.9546	1492.996	1496.4527	1507.1149	1824.1873	2892.2518	2988.3877	3003.3028	3050.7435	3065.1574	3079.2332	3086.3179	3116.0428	3140.3415	3170.5795	3822.9877
CC1(CN1CCO)C=O	C[C@]1(CN1CCO)C=O	
InChI=1S/C6H11NO2/c1-6(5-9)4-7(6)2-3-8/h5,8H,2-4H2,1H3	InChI=1S/C6H11NO2/c1-6(5-9)4-7(6)2-3-8/h5,8H,2-4H2,1H3/t6-,7?/m0/s1
