19
gdb 109383	2.60118	1.27305	0.95848	1.02	73.45	-0.2448	0.0118	0.2566	1242.5399	0.159751	-460.15609	-460.147287	-460.146343	-460.18957	33.206	
O	 0.2180845236	 1.3490421999	-0.0139303572	-0.408689
C	 0.0388869528	-0.0446380518	 0.1518575591	-0.156901
C	-1.396672904	-0.5062271055	 0.1058758594	 0.222861
C	-2.4393106944	 0.3238094532	 0.0785071794	-0.167524
C	-3.8559340803	-0.1681532749	-0.0226835092	-0.130686
O	-3.9446432206	-1.5420960334	-0.3630748993	-0.259079
C	-3.0607777413	-2.3314491153	 0.4203631163	-0.117869
C	-1.6170725304	-2.0053183256	 0.0435997199	 0.038796
O	-1.2942532579	-2.5138439135	-1.2517582379	-0.436378
H	-0.0612577332	 1.5714852734	-0.908308636	 0.283424
H	 0.6120173609	-0.6228251011	-0.5903715537	 0.114905
H	 0.4719250883	-0.2852004663	 1.1321565923	 0.121884
H	-2.286970549	 1.3979294931	 0.142161977	 0.099911
H	-4.3898722757	 0.0234991197	 0.9269711191	 0.103238
H	-4.3999884356	 0.3746235592	-0.8044115633	 0.119044
H	-3.2308955102	-2.1619155701	 1.4959512913	 0.091313
H	-3.2830211166	-3.375740769	 0.1859847183	 0.115318
H	-0.9336266552	-2.5195369474	 0.7311063871	 0.085223
H	-1.9691862412	-2.1593605844	-1.8442458426	 0.28121
89.6957	119.9018	189.9751	207.4971	264.4659	294.2527	329.977	350.8192	415.1362	445.4006	531.8035	588.6215	642.1336	748.2728	838.0574	849.0599	888.6628	948.4098	976.1261	1000.8301	1033.6029	1058.0611	1084.5448	1108.5732	1156.0481	1160.6754	1210.1405	1240.614	1274.4906	1292.4336	1314.5875	1359.2445	1368.9205	1397.9898	1411.7211	1414.3118	1426.9241	1481.6505	1491.7498	1493.0974	1741.7521	2933.3888	2978.3109	2983.2481	3034.2632	3039.3298	3053.7682	3098.723	3168.8924	3780.9763	3811.3624
OCC1=CCOCC1O	OCC1=CCOC[C@H]1O	
InChI=1S/C6H10O3/c7-3-5-1-2-9-4-6(5)8/h1,6-8H,2-4H2	InChI=1S/C6H10O3/c7-3-5-1-2-9-4-6(5)8/h1,6-8H,2-4H2/t6-/m1/s1
