17
gdb 18967	5.8714	1.4553	1.41441	2.7092	68.41	-0.2393	0.0751	0.3144	918.5586	0.143325	-363.752432	-363.745757	-363.744812	-363.783367	26.193	
O	 0.0331844035	 1.4302053014	 0.16373065	-0.422953
C	 0.1126759093	 0.0528005503	-0.1627955344	-0.087241
C	-1.2677629396	-0.5724785953	-0.1286308211	 0.031477
C	-1.5062321496	-2.0629173077	 0.1081429591	-0.093831
C	-1.2042760081	-1.8807813858	 1.6283361554	-0.008942
C	-2.5261454039	-2.5049359759	 2.0822482249	-0.257622
C	-2.8473450676	-1.70325417	 0.8199105977	 0.005795
N	-1.9145656045	-0.5403225252	 1.2607771007	-0.186987
H	-0.518510758	 1.4879243224	 0.9538010209	 0.294241
H	 0.5388793281	-0.0106052087	-1.1702669438	 0.106667
H	 0.7975911211	-0.4815018975	 0.5152753305	 0.082609
H	-1.9144973165	-0.0913760256	-0.8731802114	 0.078083
H	-1.2920288232	-2.9325411806	-0.5221239715	 0.06837
H	-0.2362880105	-1.8823054118	 2.1295038169	 0.089804
H	-2.6082279555	-3.5922894359	 2.0116075582	 0.102383
H	-2.9452331278	-2.1239503114	 3.0171515548	 0.111501
H	-3.8065248673	-1.4819829327	 0.3483574931	 0.086649
88.8788	172.342	256.2735	370.9876	431.0658	474.3159	548.2932	709.5925	732.5554	820.1635	849.035	855.9535	885.4564	910.4707	940.6657	1012.5608	1022.2879	1026.7075	1048.0089	1072.0252	1101.8165	1127.4276	1142.3179	1151.9855	1179.4398	1183.8544	1218.504	1232.9099	1258.3641	1270.5379	1316.2301	1347.28	1406.3366	1445.1498	1491.4352	1508.9018	2975.2647	3033.3062	3047.9703	3059.0297	3065.7983	3102.1565	3115.1123	3125.1708	3778.4785
OCC1C2C3CC2N13	OC[C@H]1[C@H]2[C@@H]3C[C@H]2N13	
InChI=1S/C6H9NO/c8-2-5-6-3-1-4(6)7(3)5/h3-6,8H,1-2H2	InChI=1S/C6H9NO/c8-2-5-6-3-1-4(6)7(3)5/h3-6,8H,1-2H2/t3-,4+,5-,6-/m0/s1
