19
gdb 115546	2.45511	1.14082	1.05865	5.0884	76.68	-0.2411	0.0081	0.2492	1270.0868	0.157909	-419.188626	-419.178793	-419.177849	-419.22404	34.874	
C	 0.1382132937	 1.5943914679	-0.0704213024	-0.324497
N	-0.2116630192	 0.1996036895	-0.3253543097	-0.281807
C	 0.708839532	-0.5064258428	-1.1683191041	-0.058618
C	 1.9743432193	-1.2152907825	-0.6077959373	-0.09988
O	 1.5615102788	-2.4821704076	-1.1666860149	-0.305065
C	 0.296608894	-1.9528295903	-1.6257801078	 0.246122
C	-0.8913237838	-2.5984405356	-0.9218168409	-0.434175
C	 0.1695762689	-2.0919105143	-3.0851439763	 0.26048
N	 0.0660318071	-2.1766098291	-4.2332653991	-0.339798
H	 1.1179891679	 1.7402143872	 0.4143918764	 0.105415
H	 0.1487571342	 2.1431505284	-1.0180270223	 0.135323
H	-0.6264524676	 2.0458016165	 0.5674671181	 0.128411
H	-0.3491925211	-0.2903018211	 0.5514377695	 0.222233
H	 0.9408851294	 0.1284496446	-2.026061426	 0.113612
H	 2.9428298927	-0.8917769365	-1.0036688515	 0.117647
H	 2.0254175868	-1.2517509133	 0.4889397028	 0.098514
H	-0.7607358876	-2.5436901144	 0.1619154772	 0.119463
H	-1.8205129855	-2.0927700003	-1.1953358449	 0.149826
H	-0.9607098	-3.6518546461	-1.2041714768	 0.146792
44.3301	74.8407	140.7887	171.7722	187.5381	205.8974	234.085	307.4334	367.7649	392.2766	449.6311	552.9865	593.9888	630.7557	732.0764	826.9058	879.4338	913.136	933.4594	1016.5219	1035.5365	1036.374	1109.0297	1138.5921	1154.2936	1162.9392	1185.5853	1202.9605	1260.8341	1271.5727	1330.2752	1379.3213	1406.1437	1460.3583	1474.9569	1487.105	1492.3579	1505.2378	1519.9471	1525.5366	2350.8497	2963.9548	3009.0298	3051.9633	3066.8611	3068.5575	3094.1284	3112.7879	3128.8829	3138.5146	3534.0753
CNC1COC1(C)C#N	CN[C@H]1CO[C@]1(C)C#N	
InChI=1S/C6H10N2O/c1-6(4-7)5(8-2)3-9-6/h5,8H,3H2,1-2H3	InChI=1S/C6H10N2O/c1-6(4-7)5(8-2)3-9-6/h5,8H,3H2,1-2H3/t5-,6+/m0/s1
