20
gdb 107137	3.52608	1.1548	1.12706	1.2522	79.84	-0.204	0.0813	0.2853	1210.1509	0.169196	-403.052117	-403.04325	-403.042306	-403.085384	34.18	
C	 0.0312992223	 1.3536012342	 0.2868487476	-0.255576
O	 0.0020183745	 0.0108004594	-0.1723750034	-0.276899
C	-1.2525601423	-0.5512979643	-0.1130874077	 0.45037
C	-1.8838728711	-1.0749439656	 1.1477627218	-0.356148
C	-1.5969580559	-2.0158635875	-0.012097387	-0.209429
C	-2.6030687315	-1.8394028686	-1.1982357682	 0.354696
C	-2.8567553077	-2.8730965072	-2.2484508604	-0.508138
N	-3.6208083701	-0.8292000795	-0.7990479612	-0.378482
C	-2.2793906688	-0.4019515322	-1.2857998599	-0.201267
H	 1.0630881269	 1.6998647325	 0.1940865604	 0.124752
H	-0.619318695	 2.0031690635	-0.3157234298	 0.110589
H	-0.2842135194	 1.4234202037	 1.3366063098	 0.114923
H	-1.1741290556	-1.1840478983	 1.9627471501	 0.109033
H	-2.8995908811	-0.8304936974	 1.4304173117	 0.138046
H	-0.9313670865	-2.8644039127	 0.078314131	 0.096023
H	-3.4691745709	-3.6952164304	-1.8587301676	 0.128435
H	-3.3804360828	-2.4388591687	-3.1072679287	 0.115496
H	-1.9160490534	-3.3018653005	-2.610946711	 0.129367
H	-4.2662380044	-0.7316328429	-1.5837767063	 0.222226
H	-2.1577515773	 0.2400127724	-2.1497344414	 0.091981
85.8313	132.2504	169.5963	211.9238	238.5763	284.5586	364.0978	390.5193	431.4203	453.3147	526.7211	606.0275	664.5752	786.6282	815.1541	857.1563	860.4443	910.1652	929.0601	971.6378	980.7652	995.3123	1011.6082	1065.7306	1081.2042	1092.6852	1110.2676	1115.2468	1179.2369	1184.4649	1209.4207	1229.4718	1276.0091	1327.4408	1363.7475	1408.5811	1445.6145	1458.793	1480.3743	1485.5872	1492.5144	1499.8105	1506.0526	2994.1453	3020.3309	3049.1481	3082.4363	3094.3073	3121.5503	3135.1983	3189.2633	3200.299	3234.0754	3458.1661
COC12CC1C1(C)NC21	CO[C@]12C[C@H]1[C@@]1(C)N[C@@H]21	
InChI=1S/C7H11NO/c1-6-4-3-7(4,9-2)5(6)8-6/h4-5,8H,3H2,1-2H3	InChI=1S/C7H11NO/c1-6-4-3-7(4,9-2)5(6)8-6/h4-5,8H,3H2,1-2H3/t4-,5+,6+,7+/m0/s1
