16
gdb 77803	2.49093	1.42456	1.08514	2.5562	72.07	-0.246	-0.0571	0.1888	1117.1767	0.121856	-437.860789	-437.852334	-437.85139	-437.894137	30.804	
C	-0.1210381795	 1.5268280187	-0.0111819331	-0.329393
N	 0.0855716582	 0.087135107	 0.1362286116	-0.118469
C	 1.3383865614	-0.5631191468	-0.1700072153	-0.218236
C	 2.5343628113	 0.2245918987	 0.3558294296	 0.419832
O	 3.5949125369	 0.5017226318	-0.1209261627	-0.294303
C	 1.9422056541	 0.33504033	 1.7813089602	-0.437936
C	 0.7519399497	-0.4926797605	 1.2723300009	 0.220315
C	 0.1215980965	-1.6328120092	 1.9737073787	 0.089638
O	 0.4639783484	-2.0191084619	 3.0638250372	-0.256697
H	 0.725518745	 2.1524645151	 0.2971669143	 0.127197
H	-0.3333652459	 1.7297936153	-1.0638531541	 0.144247
H	-0.99833574	 1.8092608814	 0.5769369528	 0.139954
H	 1.3511111002	-1.3778966147	-0.8870210058	 0.127366
H	 2.5610855624	-0.2178853768	 2.4926759266	 0.16295
H	 1.7290567116	 1.3270969503	 2.184718645	 0.132421
H	-0.6979786404	-2.1105557882	 1.396069204	 0.091114
83.3933	123.8205	151.0861	187.187	241.3398	292.6835	370.4088	455.4153	458.4133	521.3993	599.672	636.5825	686.4341	732.4169	860.6362	925.9576	957.7246	989.0571	1026.9044	1045.4043	1081.827	1107.6886	1150.3924	1171.5281	1193.7898	1229.817	1278.6614	1370.634	1419.0692	1446.0281	1461.8232	1492.2907	1497.1362	1810.9313	1889.708	2914.354	3023.7846	3075.6653	3098.0916	3126.658	3130.0864	3172.5585
CN1C2C(=O)CC12C=O	CN1[C@H]2C(=O)C[C@@]12C=O	
InChI=1S/C6H7NO2/c1-7-5-4(9)2-6(5,7)3-8/h3,5H,2H2,1H3	InChI=1S/C6H7NO2/c1-7-5-4(9)2-6(5,7)3-8/h3,5H,2H2,1H3/t5-,6-,7?/m0/s1
