12
gdb 21491	5.22802	1.61145	1.23362	0.9433	57.9	-0.2524	-0.0685	0.1839	885.6332	0.08507	-410.804788	-410.798016	-410.797072	-410.836353	24.586	
N	-0.0597913873	 1.31732501	 0.2372443032	-0.524361
C	 0.066739166	-0.0328640611	 0.0676893324	 0.284388
N	 1.2155360315	-0.5799075809	-0.0776090469	-0.519968
C	-1.2213894642	-0.7703068735	 0.0982825157	 0.326855
N	-2.3796523509	-0.1615090176	 0.132740219	-0.159965
O	-3.3255147006	-1.1376944471	 0.1363009735	-0.145708
N	-2.7546610373	-2.3814731398	 0.1065004641	-0.056263
C	-1.4695142604	-2.174232938	 0.0822192937	-0.126086
H	 0.7609627322	 1.8680135374	 0.0435636461	 0.2656
H	-0.9590460645	 1.744272143	 0.0912059451	 0.276828
H	 1.1436322567	-1.5915065151	-0.1475726694	 0.217645
H	-0.7785151913	-3.0020687174	 0.0587736534	 0.161034
48.6413	206.5872	213.0068	346.7951	406.3903	482.3353	502.7387	625.8913	650.5378	656.7865	766.8305	816.4277	889.4738	896.9103	952.199	1016.355	1061.3704	1113.5045	1141.2677	1200.0927	1351.31	1448.1997	1494.8148	1590.8592	1621.4791	1714.1731	3273.4629	3525.3736	3600.0598	3727.4826
NC(=N)C1=NON=C1	NC(=N)c1nonc1	
InChI=1S/C3H4N4O/c4-3(5)2-1-6-8-7-2/h1H,(H3,4,5)	InChI=1S/C3H4N4O/c4-3(5)2-1-6-8-7-2/h1H,(H3,4,5)
