15
gdb 129586	3.7558	1.29752	1.04922	2.0281	66.97	-0.2661	-0.0716	0.1945	1096.8548	0.112747	-450.05151	-450.043808	-450.042864	-450.084897	28.592	
N	 0.0768789163	 1.40814571	 0.1759035387	-0.566398
C	 0.0057396547	-0.0183470569	 0.0182463316	 0.210433
C	-0.5846852184	-0.797048145	 1.1823852276	-0.275193
C	-1.3878992185	-0.6186675399	-0.0691488095	-0.275166
C	 1.0768869507	-0.6802263927	-0.7635759086	 0.374321
N	 1.1847011827	-1.9567878132	-1.014151881	-0.17323
O	 2.3158698578	-2.0681736649	-1.7564260465	-0.135633
N	 2.8646958579	-0.8083599039	-1.9297386553	 0.044142
N	 2.1274154745	 0.0216434996	-1.3384444107	-0.230977
H	 0.9467353423	 1.6746347251	 0.6287007571	 0.241408
H	 0.074881129	 1.8682983003	-0.7301571767	 0.241422
H	-0.164169624	-1.7741765824	 1.3886273582	 0.138651
H	-0.8526719723	-0.2023070677	 2.0471514655	 0.133791
H	-2.20078923	 0.0970965166	-0.0534475116	 0.133794
H	-1.5189055427	-1.4733106152	-0.7222736889	 0.138634
22.0064	175.2921	183.4227	259.867	322.4961	362.311	455.6457	480.5368	556.3635	673.3678	723.9119	783.8093	788.5254	852.1501	873.5457	886.6633	956.762	961.5078	1036.1939	1061.753	1067.518	1076.9122	1094.9159	1201.5471	1203.4206	1280.8901	1302.2491	1352.7026	1450.514	1475.3713	1484.1474	1576.3584	1670.1002	3146.6624	3148.8952	3237.9366	3250.8888	3490.8059	3562.1494
NC1(CC1)C1=NON=N1	NC1(CC1)c1nonn1	
InChI=1S/C4H6N4O/c5-4(1-2-4)3-6-8-9-7-3/h1-2,5H2	InChI=1S/C4H6N4O/c5-4(1-2-4)3-6-8-9-7-3/h1-2,5H2
