25
gdb 57544	3.4483	0.72192	0.7017	1.448	89.67	-0.2592	0.0662	0.3254	1789.4362	0.226433	-389.48893	-389.477923	-389.476979	-389.525342	41.402	
C	 0.0920675323	 1.5558409746	 0.2935835381	-0.414889
C	-0.0087535155	 0.0522324155	-0.0057326489	 0.338623
C	 0.5836904209	-0.7611523001	 1.1548159615	-0.41127
O	-1.3839238596	-0.3141566055	-0.1912659641	-0.460265
C	 0.6931260543	-0.3320425122	-1.3208345842	-0.166582
C	 0.1513673829	 0.3554001971	-2.5818669355	-0.222899
C	 0.7721992402	-0.1903024641	-3.8511099271	 0.0356
C	 0.2124348083	-1.4318805298	-4.5003928599	-0.255044
C	 0.0437996126	-0.0869759199	-5.1661579168	-0.278492
H	 1.1357008081	 1.8801926225	 0.3626231162	 0.112945
H	-0.4040090184	 2.1441217421	-0.481747357	 0.125437
H	-0.3882090704	 1.7876320555	 1.2520187873	 0.09894
H	 0.0671625204	-0.5286831362	 2.0938998155	 0.097819
H	 0.474540047	-1.8321393164	 0.9621228603	 0.120054
H	 1.6465018971	-0.5393685722	 1.2977662935	 0.111555
H	-1.8634719811	-0.0674447726	 0.6064477185	 0.273229
H	 1.7659431799	-0.1269042504	-1.215144003	 0.085463
H	 0.5921653911	-1.4170807877	-1.4435503303	 0.10152
H	-0.9352252315	 0.2207656066	-2.6169975307	 0.111639
H	 0.330509946	 1.4369504454	-2.5308414541	 0.089668
H	 1.8536848089	-0.0816721949	-3.9045691916	 0.074206
H	 0.8988740514	-2.1446133973	-4.9443379359	 0.105685
H	-0.6647480484	-1.8839039755	-4.0483217551	 0.112914
H	-0.9459318451	 0.3585358348	-5.1603155183	 0.108288
H	 0.6167933385	 0.1202538908	-6.0634697684	 0.105857
46.7946	61.6161	126.0883	133.7857	220.3979	243.0628	262.3121	279.141	296.6318	341.3213	370.2818	389.1353	430.7754	479.7158	525.5347	753.147	768.6098	782.9111	821.6213	837.934	906.4955	916.8556	922.5233	950.2051	971.7464	994.0514	1037.6276	1054.4232	1063.4777	1078.251	1103.8151	1140.241	1160.9828	1190.4836	1199.4634	1218.3962	1229.086	1262.6691	1302.7943	1335.3849	1366.6447	1394.7931	1396.1171	1413.4884	1418.5038	1467.5153	1470.9499	1481.1785	1486.6496	1497.1557	1500.17	1507.7174	1510.1508	3019.5007	3022.6305	3026.0894	3031.2034	3059.2028	3079.891	3086.7113	3094.2991	3114.5281	3123.4983	3124.4106	3126.2377	3131.8964	3203.612	3218.901	3808.9693
CC(C)(O)CCC1CC1	CC(C)(O)CCC1CC1	
InChI=1S/C8H16O/c1-8(2,9)6-5-7-3-4-7/h7,9H,3-6H2,1-2H3	InChI=1S/C8H16O/c1-8(2,9)6-5-7-3-4-7/h7,9H,3-6H2,1-2H3
