17
gdb 26958	3.09835	1.34429	1.0129	1.4311	77.06	-0.1799	0.0358	0.2157	1163.5721	0.137017	-417.992513	-417.984444	-417.9835	-418.025511	30.753	
N	 0.0612235567	 1.3628362555	 0.0341446596	-0.599546
C	-0.0030980421	-0.020983793	 0.0183137819	 0.313911
C	-1.0562078146	-0.8807595147	 0.1497134441	 0.172856
C	-0.4786251805	-2.2044643275	 0.1645570706	-0.25862
C	 0.8576378799	-2.0363270869	 0.0275491141	-0.030733
O	 1.1651483466	-0.6988752739	-0.0542842223	-0.17204
N	-2.3948602152	-0.4267521926	 0.2353584061	-0.194031
C	-3.4617693321	-1.2940420185	-0.2707631948	-0.225262
C	-3.296038486	-1.0822888217	 1.1911934588	-0.22335
H	 0.6657523029	 1.7431099767	-0.6850246622	 0.250691
H	-0.8739431034	 1.7456051167	-0.0433290443	 0.259376
H	-0.9924203114	-3.1495914364	 0.2520261811	 0.103669
H	 1.6969788445	-2.7071303113	-0.0335429676	 0.129559
H	-4.2555590272	-0.7873700248	-0.8128912312	 0.116901
H	-3.1780889087	-2.2617273095	-0.6771119709	 0.118842
H	-2.8933079383	-1.9043559203	 1.7777812118	 0.119887
H	-3.9666800911	-0.4191845076	 1.7306077053	 0.11789
52.9616	162.3669	177.1033	244.4152	273.54	305.8797	449.9355	508.4523	558.7493	618.666	662.868	708.2784	725.086	797.9299	811.2952	813.2753	856.2488	894.5021	924.6872	1031.8598	1033.2898	1057.4595	1107.8972	1118.4897	1158.5185	1174.9142	1177.6021	1204.5813	1233.9165	1308.5679	1366.9565	1471.7013	1491.6195	1515.93	1561.4572	1617.9938	1695.7978	3103.2949	3107.1572	3183.6826	3199.4512	3246.7145	3293.442	3517.9899	3617.0369
NC1=C(C=CO1)N1CC1	Nc1c(cco1)N1CC1	
InChI=1S/C6H8N2O/c7-6-5(1-4-9-6)8-2-3-8/h1,4H,2-3,7H2	InChI=1S/C6H8N2O/c7-6-5(1-4-9-6)8-2-3-8/h1,4H,2-3,7H2
