16
gdb 127559	3.07798	1.45933	1.00228	3.7847	78.57	-0.2288	-0.0499	0.179	1146.0659	0.124097	-434.076086	-434.067496	-434.066552	-434.111023	30.344	
C	 0.001198388	 1.4683220922	 0.0222505617	-0.303945
N	 0.0116277403	 0.010712179	-0.0048903409	 0.129115
N	-0.0203106516	-0.5816110601	-1.190832213	-0.191922
C	-0.0105881353	-1.8873501795	-1.2097551	-0.062142
C	 0.0328034467	-2.7156453656	-0.0171957414	 0.250998
O	 0.0425604468	-3.9421377917	-0.0146894927	-0.376978
C	 0.0642868923	-1.9048263666	 1.2086535414	 0.24927
C	 0.1106416398	-2.5976847295	 2.5315060852	-0.466102
N	 0.0531903531	-0.5983448868	 1.1834583569	-0.274773
H	 0.9040276214	 1.837359148	 0.5150991843	 0.153737
H	-0.0344187449	 1.8151411874	-1.008354176	 0.164508
H	-0.8739330035	 1.8234838845	 0.5719423762	 0.153764
H	-0.0371375801	-2.3558954381	-2.1884554698	 0.138694
H	 0.9922001219	-3.2454340115	 2.583688524	 0.151635
H	 0.1301682819	-1.8747231914	 3.3477974577	 0.132508
H	-0.7556893169	-3.2592265504	 2.6377151864	 0.151635
13.958	105.0115	137.3786	184.4992	268.3122	316.6061	342.4544	460.5754	472.5661	534.3968	542.7198	588.2837	718.7589	782.5882	805.5862	932.8683	934.81	1003.301	1049.8906	1079.4801	1149.9628	1170.4545	1267.4977	1335.0108	1341.3003	1403.5799	1430.6908	1445.1788	1463.1487	1464.8041	1478.8585	1505.3785	1558.5271	1601.4722	1733.737	3043.8019	3058.3118	3096.8245	3125.2447	3151.4964	3184.5008	3188.43
CN1N=CC(=O)C(C)=N1	Cn1ncc(=O)c(C)n1	
InChI=1S/C5H7N3O/c1-4-5(9)3-6-8(2)7-4/h3H,1-2H3	InChI=1S/C5H7N3O/c1-4-5(9)3-6-8(2)7-4/h3H,1-2H3
