17
gdb 64851	2.78405	1.21721	0.97825	1.7958	80.84	-0.2596	0.0078	0.2675	1236.6345	0.132141	-384.602332	-384.593025	-384.592081	-384.636718	34.828	
C	-0.3622570022	 1.6205240562	 0.0204925878	-0.437874
C	 0.0592696618	 0.1565701321	-0.0707497106	 0.222515
C	 0.8890605911	-0.2340573614	-1.3285028079	-0.347887
C	 2.0623241612	-0.4359056291	-0.3367852125	-0.04826
O	 1.2117165031	-0.103430117	 0.7909668707	-0.313111
C	 2.6443454116	-1.7646364885	-0.2569075105	 0.341965
C	 3.1362844912	-2.860109763	-0.2075806553	-0.448729
C	-1.0522288302	-0.7378309266	 0.2348526361	 0.339165
C	-1.9801243799	-1.4634310838	 0.4737668833	-0.459621
H	 0.4841276983	 2.2700089404	-0.2201532561	 0.11957
H	-1.1810703956	 1.8279764145	-0.6751632087	 0.128632
H	-0.7020311467	 1.8485216721	 1.0341319569	 0.1402
H	 0.5584537493	-1.1427307888	-1.8275600729	 0.136027
H	 1.0257974271	 0.5677763346	-2.0548926546	 0.11765
H	 2.8622062159	 0.308232894	-0.4410804432	 0.10643
H	 3.5667575605	-3.8296983814	-0.155949657	 0.2029
H	-2.7918567064	-2.1129324244	 0.6916368544	 0.200429
33.2882	142.7985	174.104	186.514	217.8222	240.8164	330.4659	373.8077	478.7219	506.0288	541.3509	565.8484	618.7181	623.9379	647.042	667.2049	671.5114	773.0224	872.1769	900.5728	938.8995	963.3364	987.7779	1053.1116	1100.9243	1131.2376	1194.3103	1254.461	1266.8089	1274.3475	1370.8364	1404.2797	1478.2871	1486.303	1490.3863	2233.8657	2236.4292	3018.9384	3041.7028	3095.2536	3119.1009	3126.9751	3166.338	3500.9178	3502.4058
CC1(CC(O1)C#C)C#C	C[C@]1(C[C@@H](O1)C#C)C#C	
InChI=1S/C8H8O/c1-4-7-6-8(3,5-2)9-7/h1-2,7H,6H2,3H3	InChI=1S/C8H8O/c1-4-7-6-8(3,5-2)9-7/h1-2,7H,6H2,3H3/t7-,8+/m0/s1
