17
gdb 125997	3.92336	1.42546	1.19356	4.4369	73.12	-0.2155	0.0311	0.2466	1043.5191	0.140361	-414.216516	-414.209285	-414.208341	-414.248358	27.678	
C	 0.2062177804	 1.469602139	 0.0494151264	-0.400004
C	-0.0350055241	-0.0381937717	-0.0410257086	 0.021118
C	 0.7050603701	-0.6854586198	-1.2634927288	-0.187014
N	 1.8724602571	-1.2162347075	-0.5995644323	 0.039154
N	 3.0304835336	-1.8205284399	-0.9913717686	-0.284169
C	 3.536943551	-2.1604220228	 0.1852934499	 0.025166
N	 2.7867757609	-1.8504494268	 1.2963421864	-0.393138
C	 1.745959836	-1.2719739575	 0.7342764645	 0.461926
N	 0.5195465775	-0.7716010128	 1.1333183357	-0.414924
H	 1.277988224	 1.6920269574	 0.0765564741	 0.139874
H	-0.2311587965	 1.9824082854	-0.8132472397	 0.128028
H	-0.2550789952	 1.8843849206	 0.9517125385	 0.123633
H	-1.1079676911	-0.2360935438	-0.1088050437	 0.101346
H	 0.1143392085	-1.4836720237	-1.7271599609	 0.131795
H	 0.9613372779	 0.0528699572	-2.0275094889	 0.134223
H	 4.494377885	-2.6550985465	 0.2586644053	 0.120739
H	 0.5071169449	-0.2695456966	 2.0107918706	 0.252251
85.5977	151.1852	251.7829	268.0291	347.5962	404.9103	475.43	600.9611	661.165	666.2181	754.2975	770.2291	814.7475	866.368	895.125	940.2401	947.7025	987.7031	1049.3018	1119.7868	1140.4561	1151.0043	1197.5627	1225.1184	1276.132	1296.2831	1312.2231	1353.5129	1359.5832	1388.0198	1409.6318	1458.4674	1493.2297	1495.8196	1515.3822	1561.3471	1618.9082	3032.9254	3037.2485	3069.4674	3095.7189	3105.8094	3113.613	3255.744	3589.6019
CC1CN2N=CN=C2N1	C[C@H]1Cn2ncnc2N1	
InChI=1S/C5H8N4/c1-4-2-9-5(8-4)6-3-7-9/h3-4H,2H2,1H3,(H,6,7,8)	InChI=1S/C5H8N4/c1-4-2-9-5(8-4)6-3-7-9/h3-4H,2H2,1H3,(H,6,7,8)/t4-/m0/s1
