14
gdb 130709	3.43291	1.74079	1.16345	3.5231	70.76	-0.2136	-0.0404	0.1732	964.0534	0.104573	-432.918601	-432.911978	-432.911034	-432.949672	25.427	
O	 0.0182261413	-0.047143282	 0.0418314837	-0.428719
C	 0.0234246127	 1.16429468	 0.0457439515	 0.449372
N	-1.0411944686	 2.0594278816	 0.0731742087	-0.315902
N	-0.6889559195	 3.3983623934	 0.069311441	-0.324775
C	 0.6087237168	 3.3424524102	 0.0393888519	 0.428551
C	 1.7423371415	 4.2477540842	 0.0163914447	-0.190789
C	 2.860221385	 3.5006481106	-0.0116331686	-0.087071
C	 2.5406366833	 2.0163235228	-0.0089940676	-0.235951
N	 1.0940673363	 2.0546838659	 0.0241680406	-0.139457
H	-2.0107923728	 1.7961933537	 0.0940697327	 0.280254
H	 1.6694166877	 5.3248866275	 0.0215555017	 0.13637
H	 3.8769681005	 3.8680350892	-0.0337659663	 0.126922
H	 2.914604686	 1.5024203699	-0.9036932627	 0.150596
H	 2.9550107198	 1.496823093	 0.8644205487	 0.1506
130.6937	191.2885	285.2379	296.0977	392.492	506.5606	591.8079	658.1479	688.5437	691.3014	732.7388	785.2106	819.5383	876.7725	939.5915	955.7622	1003.7832	1055.5248	1094.3749	1137.8885	1179.7723	1187.7881	1277.1485	1345.0483	1358.6454	1394.6387	1439.0124	1498.7258	1609.8107	1665.4455	1844.7402	3026.1762	3054.2302	3233.4207	3260.2793	3694.0446
O=C1NN=C2C=CCN12	O=c1[nH]nc2C=CCn12	
InChI=1S/C5H5N3O/c9-5-7-6-4-2-1-3-8(4)5/h1-2H,3H2,(H,7,9)	InChI=1S/C5H5N3O/c9-5-7-6-4-2-1-3-8(4)5/h1-2H,3H2,(H,7,9)
