18
gdb 65705	2.36995	1.17063	0.99487	5.8739	75.01	-0.2491	-0.0238	0.2254	1257.1297	0.1453	-439.107865	-439.098343	-439.097398	-439.142672	34.177	
C	 0.0131915789	 1.5232186089	-0.3470746607	-0.455247
C	 0.0030489199	 0.0472843174	 0.0054818349	 0.327529
C	 1.2522355645	-0.7668721644	-0.0573447657	-0.363415
C	 0.6369403688	-0.4656354884	 1.3053067221	-0.103836
C	 1.3557907847	 0.4270545505	 2.2445723734	 0.165354
O	 1.3503535349	 0.2880889744	 3.4422080124	-0.261723
N	-1.1996770542	-0.6480003131	-0.3780904079	-0.327269
C	-2.4176208201	-0.3992702818	 0.1858333502	 0.154683
O	-2.6152820629	 0.3690669589	 1.0999213311	-0.313751
H	 0.963304102	 1.9955644768	-0.0879856487	 0.121277
H	-0.1422736995	 1.6482477085	-1.4238706868	 0.118113
H	-0.7905108409	 2.0382859272	 0.18367352	 0.164508
H	 1.2004466176	-1.794661292	-0.399598752	 0.126363
H	 2.1712325114	-0.2501041967	-0.3151339344	 0.130862
H	 0.1038307054	-1.2717006888	 1.7949424752	 0.118963
H	 1.9425609216	 1.2453872946	 1.7677555563	 0.066646
H	-1.1671985058	-1.2478330717	-1.1883424066	 0.250593
H	-3.2184523162	-0.9995140803	-0.2913044629	 0.080351
53.9875	99.9585	123.7022	187.1474	222.6068	226.9273	280.4963	375.2973	387.9928	396.854	431.5341	495.8823	546.4101	667.4164	799.6833	851.6039	895.9	934.7264	951.3317	1026.35	1033.4727	1056.1717	1081.6688	1083.9857	1115.9927	1175.6525	1182.7364	1263.0053	1312.5739	1363.7282	1413.5084	1430.3339	1442.9987	1474.3672	1487.0207	1506.2977	1512.3339	1808.1562	1820.7558	2863.8047	2931.8443	3045.4985	3115.6884	3131.3445	3140.1252	3194.1358	3219.9772	3616.2606
CC1(CC1C=O)NC=O	C[C@]1(C[C@H]1C=O)NC=O	
InChI=1S/C6H9NO2/c1-6(7-4-9)2-5(6)3-8/h3-5H,2H2,1H3,(H,7,9)	InChI=1S/C6H9NO2/c1-6(7-4-9)2-5(6)3-8/h3-5H,2H2,1H3,(H,7,9)/t5-,6+/m0/s1
