19
gdb 121048	3.12396	1.00735	0.87972	3.6838	72.37	-0.2644	0.0136	0.278	1388.6026	0.158954	-460.219075	-460.210093	-460.209149	-460.253943	32.284	
C	 0.457967598	 1.3982424498	-0.0498462269	-0.386753
C	 0.1626720759	-0.0899839771	-0.0118476503	-0.050134
O	 0.728834593	-0.6867510838	-1.1797339582	-0.248974
C	 0.479066395	-2.0446271982	-1.3137274475	 0.21316
C	 1.1060381008	-2.5364997997	-2.6236474493	-0.25362
C	 2.5157454274	-2.9356346403	-2.1809796445	-0.359612
C	 2.34861775	-3.2647312344	-0.7012567915	 0.430691
O	 3.1006325765	-3.8386149906	 0.0279344088	-0.331242
O	 1.134793575	-2.7958058836	-0.2748723534	-0.228329
H	 1.5370103178	 1.5757729633	-0.0584256945	 0.131114
H	 0.0267752945	 1.8568310376	-0.944211239	 0.126277
H	 0.0342555218	 1.8883963051	 0.8315191408	 0.121249
H	 0.5887796534	-0.5546526504	 0.8855707585	 0.121351
H	-0.9231184669	-0.27535235	 0.0007218146	 0.092952
H	-0.5911182174	-2.2627545802	-1.2043106007	 0.083484
H	 0.551542001	-3.4035348631	-2.9922007218	 0.120018
H	 1.0750595127	-1.7524867406	-3.3801740411	 0.127893
H	 2.9426025106	-3.7896902051	-2.707799583	 0.139372
H	 3.2229973006	-2.1044449089	-2.263206531	 0.151103
47.8181	85.9045	109.567	141.1699	202.6992	251.2024	359.5128	402.2822	490.5439	533.7023	566.0296	670.7885	771.3958	797.8935	819.7657	869.1981	888.4287	935.0087	987.4892	1005.5031	1052.0878	1071.6307	1122.089	1143.0937	1155.0352	1185.4964	1206.2296	1235.1057	1297.226	1298.9758	1334.0714	1367.5104	1388.421	1406.6336	1442.6014	1461.3612	1483.9326	1487.5788	1500.1399	1528.0591	1891.4435	2983.5098	3027.7404	3046.4625	3051.4391	3072.0374	3076.7981	3122.017	3123.6098	3131.8231	3142.4859
CCOC1CCC(=O)O1	CCO[C@H]1CCC(=O)O1	
InChI=1S/C6H10O3/c1-2-8-6-4-3-5(7)9-6/h6H,2-4H2,1H3	InChI=1S/C6H10O3/c1-2-8-6-4-3-5(7)9-6/h6H,2-4H2,1H3/t6-/m1/s1
