17
gdb 53261	3.97285	0.80194	0.73839	4.0865	81.61	-0.2482	-0.0457	0.2025	1566.3205	0.131129	-421.79256	-421.782248	-421.781304	-421.829594	34.795	
C	 0.1644070155	 1.4753844077	 0.0818065704	-0.504296
C	 0.053483961	 0.025207325	 0.0827762254	 0.187188
C	-0.035421013	-1.1765001896	 0.0918808874	 0.042453
C	-0.100295138	-2.6098106025	 0.0832320151	-0.232964
O	-0.7005618448	-3.2739184465	 1.1969017042	-0.257721
C	-1.3998770337	-3.3483445007	-0.0443839376	 0.295275
C	-2.7249992096	-2.6341204229	-0.1296613916	-0.482457
C	-1.3077336408	-4.6924591183	-0.7262345219	 0.105898
O	-0.3942722919	-5.4604995917	-0.5749947289	-0.2469
H	 1.2078759964	 1.79135171	-0.0224636635	 0.157421
H	-0.4031736455	 1.9172231775	-0.7444293793	 0.15424
H	-0.2210706833	 1.8986427299	 1.0155739157	 0.158516
H	 0.7770274009	-3.129368469	-0.3006371457	 0.130184
H	-2.6390341658	-1.6196708862	 0.2614459554	 0.148357
H	-3.0659402305	-2.5789802822	-1.1690626798	 0.128072
H	-3.4855801257	-3.1694686232	 0.4484070203	 0.136852
H	-2.1553667611	-4.9207351474	-1.4108132657	 0.079881
23.3901	69.4756	85.2569	111.6692	149.4603	217.5753	253.5512	256.6494	350.4128	369.9897	377.2172	489.571	525.3452	652.1572	739.1495	786.2281	845.2756	896.7939	994.6274	1006.6241	1050.7288	1052.1164	1105.5336	1119.7646	1194.4242	1230.481	1315.1205	1403.5738	1412.8641	1414.5343	1434.4984	1474.5055	1475.6322	1484.7046	1488.5014	1828.1489	2366.0584	2880.5829	3030.1729	3040.1929	3092.3521	3095.2465	3101.9324	3120.7596	3145.957
CC#CC1OC1(C)C=O	CC#C[C@H]1O[C@]1(C)C=O	
InChI=1S/C7H8O2/c1-3-4-6-7(2,5-8)9-6/h5-6H,1-2H3	InChI=1S/C7H8O2/c1-3-4-6-7(2,5-8)9-6/h5-6H,1-2H3/t6-,7-/m1/s1
