18
gdb 55707	2.25166	1.37072	0.99662	2.804	76.61	-0.2523	-0.0269	0.2254	1224.4467	0.145674	-401.973853	-401.96436	-401.963416	-402.009053	33.971	
C	 0.4651128847	 0.8320296326	 0.5978120351	-0.487765
C	-0.5288187705	 0.1048830037	-0.2799935358	 0.394536
O	-1.7246504658	 0.1638153519	-0.1093934089	-0.299797
C	 0.0400658787	-0.7614201127	-1.412861632	-0.380094
C	 0.1538217902	-2.2265165214	-0.979785111	 0.176954
C	-1.1293268538	-3.0257654978	-0.7984893543	-0.281199
C	-0.2368851418	-3.3239342336	-1.9631836893	-0.308727
C	 1.2445411511	-2.5118325772	-0.0821324789	 0.255313
N	 2.1272791097	-2.7133469435	 0.6391900451	-0.353342
H	 1.1949664712	 0.1254172814	 1.0096315266	 0.170009
H	 1.0315572303	 1.5539729722	-0.002664496	 0.142575
H	-0.0536480428	 1.3504568904	 1.4046046254	 0.144895
H	-0.6622407239	-0.7031098472	-2.2482560263	 0.12974
H	 1.0160089936	-0.3966796595	-1.7472157262	 0.122341
H	-1.1645939553	-3.7384220112	 0.0163685112	 0.143185
H	-2.0454475452	-2.4705208653	-0.9604386609	 0.154603
H	-0.5362899867	-2.9968111307	-2.9524979545	 0.133033
H	 0.3442639862	-4.2380882421	-1.9439629792	 0.14374
39.4392	74.9734	127.9971	163.246	190.4219	230.9911	283.3679	341.2464	388.6206	511.3329	556.5285	574.2407	595.8083	700.1245	781.9994	802.0062	869.7163	902.0967	931.3185	957.7508	970.6487	1042.8613	1054.3286	1071.7823	1096.0569	1156.7545	1193.3098	1238.8609	1274.4474	1321.1148	1344.1452	1387.2081	1459.7742	1469.4742	1473.6338	1475.9943	1500.4353	1812.0833	2344.2453	3033.1503	3055.6965	3093.9642	3114.6753	3144.4447	3154.6288	3156.0725	3232.0087	3248.6778
CC(=O)CC1(CC1)C#N	CC(=O)CC1(CC1)C#N	
InChI=1S/C7H9NO/c1-6(9)4-7(5-8)2-3-7/h2-4H2,1H3	InChI=1S/C7H9NO/c1-6(9)4-7(5-8)2-3-7/h2-4H2,1H3
