18
gdb 124609	2.6985	1.35658	1.12484	1.4862	74.96	-0.2099	0.0048	0.2147	1155.3318	0.147478	-435.283341	-435.274447	-435.273503	-435.317913	32.485	
C	-0.0247682112	 1.5036302862	 0.0907552693	-0.386679
C	-0.024585089	-0.0282204677	 0.0636875596	 0.039253
C	 0.7467019184	-0.6356962807	 1.2398684615	-0.386687
N	-1.3897279419	-0.5425062936	 0.0225847987	-0.065987
N	-2.286625385	-0.316745338	 1.0459582119	-0.218686
C	-3.3528565985	-0.908750566	 0.6609845176	 0.078921
O	-3.2558742629	-1.5241450832	-0.5495126014	-0.206755
C	-1.9512316312	-1.2873440293	-0.9858032787	 0.465272
N	-1.4123632342	-1.6722699579	-2.0643614168	-0.612382
H	 1.0022565698	 1.8799591794	 0.0764633502	 0.11951
H	-0.5521777247	 1.9088705309	-0.777179103	 0.125729
H	-0.5141749809	 1.8724259733	 0.9969098144	 0.135481
H	 0.4094384964	-0.3773357504	-0.8776245449	 0.135954
H	 0.2873127224	-0.3491999149	 2.1904076633	 0.13548
H	 0.758804466	-1.7272457087	 1.1760815424	 0.125724
H	 1.7807490318	-0.2788622349	 1.2356321434	 0.119519
H	-4.2908246329	-0.9645426957	 1.1877217483	 0.165872
H	-2.0584532124	-2.2110101186	-2.6325693261	 0.230461
27.9229	83.7895	186.7258	219.2121	225.1833	255.6581	298.1763	417.2608	419.6577	550.582	631.4227	633.5837	689.1814	724.2621	773.1032	809.5774	880.3237	935.7963	946.8672	949.6266	972.0941	1052.3199	1106.3805	1147.997	1151.6934	1206.0185	1249.585	1294.6854	1354.1081	1384.9194	1398.0505	1416.7988	1420.9918	1483.5549	1489.5077	1497.8146	1511.879	1646.7141	1786.0274	3041.7435	3045.7974	3082.7144	3115.7927	3121.1393	3121.3125	3127.2882	3292.8869	3557.5501
CC(C)N1N=COC1=N	CC(C)N1N=CO[C@H]1[NH]	
InChI=1S/C5H9N3O/c1-4(2)8-5(6)9-3-7-8/h3-4,6H,1-2H3	InChI=1S/C5H10N3O/c1-4(2)8-5(6)9-3-7-8/h3-6H,1-2H3/t5-/m0/s1
