20
gdb 36956	5.85404	0.70201	0.65919	2.1703	84.3	-0.2448	0.0305	0.2753	1739.7418	0.171157	-403.127186	-403.118242	-403.117298	-403.162916	32.4	
C	 0.0839473486	 1.557156998	 0.3806473258	-0.198909
N	 0.1469492213	 0.1052108182	 0.2142252455	-0.32053
C	-0.2803424764	-0.635688291	 1.1241719987	 0.45931
C	-0.3759299733	-2.1330908131	 1.3333595306	-0.37308
C	-1.0031256291	-1.7362600099	 2.6850333714	-0.075919
O	-0.8581697445	-0.3239698767	 2.3515307704	-0.262558
C	 1.4490612516	 2.1817239301	 0.188267719	 0.047544
C	 1.9770733843	 2.4350786026	-1.1974539269	-0.245066
C	 1.5603255342	 3.5949258166	-0.3253424897	-0.274429
H	-0.5935611415	 1.9501216807	-0.3893073537	 0.098431
H	-0.3290469194	 1.8489796963	 1.3556113908	 0.110444
H	-1.0341251746	-2.6511491886	 0.6339085333	 0.137992
H	 0.5832232281	-2.6512237154	 1.3811258024	 0.13785
H	-2.0543927081	-1.9983520544	 2.8280536572	 0.121756
H	-0.4267647087	-1.988778306	 3.5786367409	 0.121573
H	 2.1808128384	 1.8806860995	 0.9332319081	 0.079826
H	 3.0344704312	 2.2838045009	-1.3838765955	 0.107133
H	 1.3378920122	 2.1707429591	-2.0333506389	 0.113277
H	 0.6422941277	 4.1160376274	-0.5783249234	 0.107451
H	 2.330935688	 4.2357748357	 0.088639584	 0.107905
17.7072	67.9034	113.109	152.2303	191.8365	280.7068	332.2405	417.758	525.2402	581.2811	745.9163	772.1708	790.2738	809.9939	847.7588	902.6365	916.2081	946.4092	962.8263	1001.5546	1022.917	1056.2344	1058.961	1065.1338	1076.8825	1125.4611	1138.8566	1159.5043	1181.7417	1196.8452	1200.1216	1227.9271	1239.6779	1285.7541	1349.7419	1363.1392	1414.3817	1467.6295	1470.9224	1492.0148	1509.8604	1522.3275	1843.3665	3002.9075	3041.2013	3061.5244	3087.905	3113.888	3128.3567	3134.3387	3142.6267	3143.3114	3206.1418	3221.9106
C(N=C1CCO1)C1CC1	C(N=C1CCO1)C1CC1	
InChI=1S/C7H11NO/c1-2-6(1)5-8-7-3-4-9-7/h6H,1-5H2	InChI=1S/C7H11NO/c1-2-6(1)5-8-7-3-4-9-7/h6H,1-5H2
