17
gdb 82716	2.39994	2.17808	1.66501	3.325	72.08	-0.2164	-0.0132	0.2033	878.0253	0.137426	-417.953272	-417.946235	-417.94529	-417.984541	27.695	
C	-0.2181702074	 1.4959995768	 0.1182820392	-0.340531
N	 0.1137213878	 0.0883984832	-0.0161593678	-0.061611
C	 0.733017949	-0.4550941862	-1.2407748087	-0.032422
C	 2.0788028338	 0.2092112661	-1.6609655419	-0.206234
N	 2.7657063001	-0.4699389447	-0.4968040652	-0.176492
C	 1.5761181949	-1.3881202498	-0.3312930839	 0.001912
C	 1.0994585084	-0.566608726	 0.8928994222	-0.168214
C	 2.4170683305	 0.2167380509	 0.7307715021	 0.396799
O	 2.9198727641	 1.1756430391	 1.2387114709	-0.320878
H	 0.6460395712	 2.1759663063	 0.0676375989	 0.125493
H	-0.9233351424	 1.7657068672	-0.6748232978	 0.126118
H	-0.7133586194	 1.6557829728	 1.0814023402	 0.133497
H	 0.0199846714	-0.7411350889	-2.0174337194	 0.085802
H	 2.4638389256	-0.175655249	-2.6103521007	 0.120895
H	 2.1586929843	 1.299948281	-1.6512755374	 0.129918
H	 1.7101660591	-2.4629179749	-0.3998704179	 0.096758
H	 0.7089142089	-0.8943776738	 1.8580192173	 0.08919
136.2872	187.1314	201.7903	279.3867	359.3076	474.4019	495.021	616.8051	668.7077	740.2551	767.8041	824.7192	844.7862	883.6	889.7844	937.1247	959.9905	996.7881	1010.6605	1047.9654	1074.5888	1152.122	1156.3114	1182.874	1185.9825	1198.7025	1218.023	1228.3402	1238.3668	1280.6972	1292.3825	1310.0123	1448.5342	1484.8147	1492.2262	1514.2131	1878.4442	2988.4418	3047.8565	3068.6816	3081.9941	3092.8356	3105.8316	3106.7164	3171.656
CN1C2CN3C2C1C3=O	CN1[C@H]2CN3[C@H]2[C@H]1C3=O	
InChI=1S/C6H8N2O/c1-7-3-2-8-4(3)5(7)6(8)9/h3-5H,2H2,1H3	InChI=1S/C6H8N2O/c1-7-3-2-8-4(3)5(7)6(8)9/h3-5H,2H2,1H3/t3-,4+,5-/m0/s1
