18
gdb 62428	3.78906	1.23161	1.19953	1.9209	84.78	-0.2172	-0.0006	0.2167	1104.9146	0.146669	-364.75641	-364.748183	-364.747238	-364.788652	32.474	
C	-0.1520674875	 1.5678636275	 0.0283813331	-0.477736
C	-0.0202962361	 0.0574249337	-0.0450674406	 0.091156
C	-1.0704061022	-0.6398747395	 0.6620962159	 0.276082
C	-1.9734978856	-1.1962937825	 1.2285538457	-0.395609
C	 0.5861954735	-0.6629072607	-1.2357142627	-0.110927
C	 1.3928761512	 0.1255692313	-2.2028786096	-0.076735
C	 2.4682098438	 0.6302480435	-1.5955751059	-0.090583
C	 2.4916399335	 0.2186603494	-0.1406735212	-0.209818
N	 1.2949871911	-0.6340084979	 0.0607053616	-0.137644
H	 0.5285107	 2.0779621497	-0.6540808721	 0.128712
H	-1.1756967363	 1.8571432557	-0.2242645111	 0.133638
H	 0.0460629644	 1.9126583081	 1.0489839754	 0.131145
H	-2.7600536929	-1.696257256	 1.7370878619	 0.189245
H	 0.1394451575	-1.6052897533	-1.5424641026	 0.101654
H	 1.1223878005	 0.2469958978	-3.2441084063	 0.105022
H	 3.2213663868	 1.2655899436	-2.0471028436	 0.105319
H	 3.3850325557	-0.3681289543	 0.1098550341	 0.120034
H	 2.4807662826	 1.077195684	 0.543944798	 0.117045
132.8731	149.6661	189.7772	242.4198	257.01	353.2246	414.6654	463.7166	529.109	557.3785	606.9203	642.6511	660.6522	733.2427	748.1403	785.0875	828.9124	877.2594	927.455	952.5681	957.0491	1018.8746	1025.2353	1061.4492	1088.6198	1105.5107	1123.5314	1200.658	1242.2078	1283.898	1314.1474	1350.1859	1367.1798	1408.1909	1481.694	1492.9773	1497.1371	1663.6746	2234.6367	3014.1159	3038.5723	3044.2794	3107.5715	3139.7991	3141.7303	3196.7451	3224.1234	3503.7571
CC1(C#C)C2C=CCN12	C[C@@]1(C#C)[C@H]2C=CCN12	
InChI=1S/C8H9N/c1-3-8(2)7-5-4-6-9(7)8/h1,4-5,7H,6H2,2H3	InChI=1S/C8H9N/c1-3-8(2)7-5-4-6-9(7)8/h1,4-5,7H,6H2,2H3/t7-,8-,9?/m1/s1
