19
gdb 45176	2.74333	1.83829	1.58108	3.1275	77.86	-0.2321	-0.0084	0.2236	928.1023	0.162459	-385.892183	-385.885595	-385.884651	-385.922926	27.927	
O	 0.0120885139	-0.0165434807	-0.1009344933	-0.335647
C	 0.0022344214	 1.1870695941	-0.0107854116	 0.418923
C	-1.2757369079	 2.0288703912	 0.0895405548	-0.32437
C	-0.9269538253	 3.3492674935	 0.7850805768	-0.042448
C	-0.1039386703	 3.022857053	 2.0687715387	-0.243636
C	 1.1510969241	 3.1223806331	 1.1865056759	-0.020742
C	 0.3748980012	 4.0068936719	 0.1650364292	-0.016388
C	 1.0084701146	 3.2340229736	-1.0000496723	-0.252945
C	 1.242567601	 2.0581196984	 0.0078441288	-0.13513
H	-1.666787621	 2.1928751302	-0.9227605543	 0.124457
H	-2.0342534383	 1.4615001797	 0.6368906331	 0.123285
H	-1.7956570627	 4.0010199056	 0.8908693774	 0.070251
H	-0.1258058406	 3.8442171018	 2.7909757866	 0.102115
H	-0.3253259252	 2.0846808624	 2.5893965154	 0.102608
H	 2.118640428	 3.3949495665	 1.6099605556	 0.07126
H	 0.3904490229	 5.0973259029	 0.1867924282	 0.066266
H	 0.4275942465	 3.0277855709	-1.9045478532	 0.101525
H	 1.9599588453	 3.6882752962	-1.2900793648	 0.109455
H	 2.1477449423	 1.4581139057	-0.0785000412	 0.08116
110.6323	308.8907	352.5265	374.1625	446.2312	475.3051	542.8987	629.4398	674.8066	738.2427	764.2607	815.3509	821.7239	878.7791	909.6032	934.6156	951.5946	971.9314	978.7131	1021.5931	1056.1295	1058.6792	1063.2578	1074.0135	1129.8704	1161.6245	1199.0839	1213.672	1222.0825	1242.5473	1252.0812	1272.9465	1283.075	1295.1618	1318.5249	1332.8312	1348.1056	1453.7155	1491.8657	1497.8948	1827.7317	3033.1153	3038.3879	3047.5775	3085.7068	3091.9556	3094.8804	3095.2337	3099.7763	3105.8176	3122.4894
O=C1CC2CC3C2CC13	O=C1C[C@H]2C[C@@H]3[C@H]2C[C@H]13	
InChI=1S/C8H10O/c9-8-2-4-1-6-5(4)3-7(6)8/h4-7H,1-3H2	InChI=1S/C8H10O/c9-8-2-4-1-6-5(4)3-7(6)8/h4-7H,1-3H2/t4-,5+,6-,7+/m1/s1
