22
gdb 110610	4.35596	0.97098	0.90094	1.4309	86.96	-0.2141	0.0743	0.2884	1418.2803	0.193248	-367.136641	-367.127529	-367.126584	-367.170243	35.328	
C	-0.2958063904	 1.4284726862	-0.1498082249	-0.375735
C	 0.2536026972	 0.0154543869	 0.0723528839	-0.209538
C	 0.950223592	-0.526615412	-1.1575218687	 0.01483
C	 0.9378345731	-1.9830078116	-1.4175452622	-0.119566
N	 0.0163656479	-1.0600501155	-2.173550971	-0.155667
C	 0.7516329282	-1.4629308685	-3.4370482239	-0.048387
C	 2.2525510089	-1.3184121082	-3.4663076232	-0.359651
C	 1.6262360741	-2.4650397781	-2.7169731126	 0.336504
C	 1.9044453973	-3.9153303482	-2.9809101459	-0.493962
H	 0.5080887297	 2.1353070275	-0.3843540241	 0.109319
H	-1.0029353075	 1.4336402155	-0.9842202747	 0.135084
H	-0.8128071329	 1.7968164461	 0.7413907772	 0.109929
H	 0.9625989273	 0.0102161695	 0.9102486178	 0.095366
H	-0.5645401305	-0.6614879917	 0.3423977644	 0.105154
H	 1.7898660226	 0.0784241125	-1.4863185936	 0.082249
H	 0.5281923271	-2.6913747159	-0.7013634599	 0.089032
H	 0.1560061559	-1.5550584871	-4.3373403195	 0.098636
H	 2.6730986511	-1.6134671813	-4.4241276581	 0.11137
H	 2.8040066821	-0.5132667824	-2.9940590766	 0.114185
H	 2.7691310827	-4.2677019144	-2.4047744084	 0.120274
H	 1.0468134219	-4.5411920413	-2.7078408679	 0.121553
H	 2.1208028221	-4.087077098	-4.040040318	 0.119021
74.9658	130.4725	185.9575	204.2577	213.0807	267.6323	302.6323	388.6574	394.0322	465.4892	528.7542	621.6931	718.2594	744.0392	796.791	826.9519	843.6969	894.2414	920.5061	946.0589	980.9689	989.8217	1025.2337	1031.8923	1048.0343	1057.0554	1076.2305	1093.9764	1124.2829	1139.7182	1168.4027	1205.2414	1240.3423	1260.6779	1287.8272	1312.285	1347.2295	1390.8308	1404.7251	1420.7875	1452.4081	1478.0672	1484.363	1496.5507	1499.1741	1507.1763	1508.0565	3018.5372	3026.2278	3033.9223	3067.4246	3074.9156	3099.0817	3100.5412	3117.6312	3121.682	3134.6101	3152.206	3180.1366	3199.5877
CCC1C2N1C1CC21C	CC[C@H]1[C@H]2N1[C@H]1C[C@@]21C	
InChI=1S/C8H13N/c1-3-5-7-8(2)4-6(8)9(5)7/h5-7H,3-4H2,1-2H3	InChI=1S/C8H13N/c1-3-5-7-8(2)4-6(8)9(5)7/h5-7H,3-4H2,1-2H3/t5-,6-,7+,8+,9?/m0/s1
