15
gdb 6007	2.67884	1.91876	1.48531	2.0231	61.81	-0.26	0.0023	0.2622	887.9612	0.118061	-396.023096	-396.014168	-396.013224	-396.056385	32.139	
C	 0.5784557432	 1.3073570979	 0.6419408768	-0.38894
C	 0.0756629844	-0.0585251321	 0.1207370975	-0.022375
N	 0.0868227572	-1.0179853961	 1.2281478377	-0.52056
C	-1.2962024943	 0.0797382644	-0.3886078053	 0.293941
N	-2.3486342154	 0.1949598112	-0.8533309806	-0.347947
C	 1.0555812038	-0.5022878847	-1.0208129622	 0.418841
N	 0.6859722579	-0.2309799198	-2.2934214112	-0.540055
O	 2.1128453331	-1.0140079039	-0.7098851239	-0.370453
H	 1.6081946947	 1.1845339587	 0.9866306492	 0.146034
H	 0.5587537374	 2.065057998	-0.1451132347	 0.133149
H	-0.0446413174	 1.628691166	 1.4779464266	 0.149005
H	-0.3719599183	-1.8785388965	 0.9384366545	 0.241492
H	 1.0659006968	-1.26482805	 1.3706984014	 0.252527
H	-0.2413637037	 0.086796551	-2.5220795649	 0.284809
H	 1.3022604707	-0.514728294	-3.0384147509	 0.270533
49.9483	157.8674	190.5509	235.1229	242.9866	258.0679	318.3722	351.2855	363.3854	443.755	510.7367	555.4757	593.6657	611.1256	698.8247	772.4138	864.1647	934.3594	980.8171	1058.9498	1106.8412	1147.1063	1204.5219	1342.4655	1352.9081	1401.5367	1485.1306	1491.1783	1621.0207	1665.4122	1800.532	2350.1979	3055.2233	3136.1336	3150.5938	3465.8378	3544.8819	3589.6649	3719.8223
CC(N)(C#N)C(N)=O	C[C@@](N)(C#N)C(=O)N	
InChI=1S/C4H7N3O/c1-4(7,2-5)3(6)8/h7H2,1H3,(H2,6,8)	InChI=1S/C4H7N3O/c1-4(7,2-5)3(6)8/h7H2,1H3,(H2,6,8)/t4-/m1/s1
