16
gdb 43286	3.1633	1.70523	1.12334	4.139	82.98	-0.2122	-0.0606	0.1516	1028.9222	0.127286	-400.810757	-400.803667	-400.802723	-400.842734	26.935	
O	 0.0700364621	-0.060742622	 0.0016444898	-0.391619
C	 0.0140483067	 1.1529590543	 0.0094798741	 0.362328
C	-1.190973112	 2.0527179222	 0.0309210671	-0.200689
C	-0.806134851	 3.3450436156	 0.0318295376	-0.221371
C	 0.6470617903	 3.3679076216	 0.0116266023	 0.418453
C	 1.6837768502	 4.2167466857	-0.0010730014	-0.270662
C	 2.9794107919	 3.4270768913	-0.0231547294	-0.263552
C	 2.5233723043	 1.9280622048	-0.0243638177	-0.187861
N	 1.072315576	 2.0366999892	 0.0005800767	-0.125427
H	-2.1961651711	 1.6559737137	 0.0428095541	 0.128227
H	-1.4322272229	 4.2256422844	 0.0447852986	 0.125506
H	 1.6292121599	 5.2955129268	 0.0035270731	 0.114529
H	 3.5831786573	 3.6642928813	-0.9071311753	 0.125401
H	 3.6074598593	 3.6554460034	 0.8461531996	 0.12543
H	 2.8607409546	 1.392119825	-0.9168586407	 0.13063
H	 2.8905130343	 1.3815159827	 0.8496962414	 0.130678
85.0035	108.7799	212.1819	288.8646	369.6386	550.6048	631.3339	639.8973	651.8686	725.1795	754.9045	763.8215	821.1887	822.7854	840.5799	909.3709	941.3535	986.5141	1056.6087	1060.0284	1072.081	1124.4622	1199.524	1225.4976	1239.2044	1277.4338	1309.0033	1353.9183	1365.2335	1426.5751	1485.7373	1529.8267	1586.8068	1711.782	1799.2656	3029.2596	3049.9297	3051.8746	3086.3724	3231.6641	3243.406	3252.7223
O=C1C=CC2=CCCN12	O=C1C=CC2=CCCN12	
InChI=1S/C7H7NO/c9-7-4-3-6-2-1-5-8(6)7/h2-4H,1,5H2	InChI=1S/C7H7NO/c9-7-4-3-6-2-1-5-8(6)7/h2-4H,1,5H2
