19
gdb 62759	3.55182	1.20734	1.17687	4.2131	75.19	-0.2644	0.0113	0.2756	1138.8419	0.15888	-423.066775	-423.058308	-423.057364	-423.099581	32.502	
C	 0.1372844214	 1.5430744145	-0.0019384269	-0.469246
C	 0.0687378393	 0.0294487906	-0.0363016309	 0.273447
C	-1.1951574771	-0.5479751069	 0.5769931731	-0.451076
C	 0.6349770848	-0.7736483351	-1.2071475333	-0.126689
C	 1.6485432536	-0.1330336784	-2.1287697859	-0.392442
C	 2.8296564328	 0.2334484198	-1.2221662595	 0.419328
O	 3.8373034255	 0.8054713083	-1.5115173204	-0.329195
O	 2.5668825787	-0.1782406304	 0.0578864678	-0.213625
C	 1.3067754168	-0.8121132244	 0.1459283901	 0.047667
H	 1.0844231833	 1.9431536038	-0.3685616841	 0.139645
H	-0.6668117923	 1.976475111	-0.6071642699	 0.12085
H	 0.0108374817	 1.9034779769	 1.0247051386	 0.126321
H	-2.0823058931	-0.2191497367	 0.024010677	 0.122949
H	-1.1860623151	-1.6427082035	 0.5671171914	 0.116474
H	-1.3081005767	-0.2229202305	 1.6171330816	 0.123731
H	 0.0630737857	-1.6199945161	-1.5687294123	 0.096578
H	 2.0007718787	-0.8272927261	-2.8978392104	 0.143058
H	 1.3086026693	 0.7703944943	-2.6431183322	 0.143572
H	 1.3270890028	-1.6718501311	 0.8049994564	 0.108655
96.4626	157.8863	185.2933	217.3027	256.8221	285.3175	342.3439	440.3371	483.605	498.9441	567.7954	679.4344	696.3655	740.8884	823.8642	836.9487	867.5547	957.4969	975.3048	996.6739	1020.9673	1030.2049	1076.3963	1096.8909	1130.4114	1140.9509	1166.9194	1185.0318	1232.902	1291.189	1318.6196	1340.6972	1412.9671	1417.5316	1437.4147	1461.3396	1482.3275	1491.0473	1501.8837	1512.8836	1886.3592	3026.055	3035.634	3063.4569	3090.0311	3092.8333	3099.2114	3101.1886	3129.3194	3175.6943	3185.4537
CC1(C)C2CC(=O)OC12	CC1(C)[C@H]2CC(=O)O[C@@H]12	
InChI=1S/C7H10O2/c1-7(2)4-3-5(8)9-6(4)7/h4,6H,3H2,1-2H3	InChI=1S/C7H10O2/c1-7(2)4-3-5(8)9-6(4)7/h4,6H,3H2,1-2H3/t4-,6+/m0/s1
