19
gdb 85686	2.44203	1.37346	1.05964	5.1185	80.08	-0.2569	0.0295	0.2863	1191.048	0.159699	-382.053513	-382.044777	-382.043833	-382.087073	32.892	
C	-1.0045077633	 1.0927742237	-0.0576552971	-0.415806
C	-0.0412154018	-0.0835918147	-0.0849358795	-0.055215
C	 1.3041859244	 0.069863036	-0.8560751354	-0.253005
C	 2.0378674814	-0.6806567777	 0.3044972903	-0.207098
C	 3.3096079306	-0.153294597	 0.7650988871	 0.278993
N	 4.3079471252	 0.2922963642	 1.1424422562	-0.337108
C	 0.7829054014	-0.4248559187	 1.1688748932	 0.333975
C	 0.7246900591	 0.222079751	 2.495720321	-0.30175
N	 0.4243052973	-1.2175089082	 2.3281933787	-0.363628
H	-0.499269697	 2.0093188695	 0.263493505	 0.12527
H	-1.4292446978	 1.2714121703	-1.051010249	 0.125034
H	-1.8409567068	 0.9105210753	 0.6267616434	 0.117568
H	-0.5620573934	-0.9859474586	-0.430175436	 0.084423
H	 1.3766972351	-0.3859847042	-1.8440371409	 0.117973
H	 1.6206804153	 1.1134523002	-0.9162076051	 0.126566
H	 2.1421384931	-1.7488073695	 0.0919433073	 0.12959
H	 1.6439699088	 0.4360407847	 3.033580666	 0.143731
H	-0.09422992	 0.9086737436	 2.6936761889	 0.117461
H	-0.5809028915	-1.37730267	 2.350977246	 0.233024
60.8832	124.8552	195.9417	214.2295	225.6839	274.3911	348.3625	373.7508	473.7553	508.9836	547.3876	581.4499	695.452	802.1869	847.0193	881.836	924.8273	937.6963	941.4527	980.4662	1003.1781	1041.5769	1082.9776	1093.3152	1127.838	1138.6408	1165.3386	1212.1809	1239.1375	1259.2071	1279.7337	1289.1617	1342.4234	1379.3969	1403.5336	1414.8521	1489.3563	1495.797	1497.2075	1515.324	2352.7074	3022.7273	3029.4236	3070.7769	3078.6935	3093.5824	3105.5116	3110.7769	3139.5551	3198.8922	3486.1301
CC1CC(C#N)C11CN1	C[C@H]1C[C@@H](C#N)[C@]21CN2	
InChI=1S/C7H10N2/c1-5-2-6(3-8)7(5)4-9-7/h5-6,9H,2,4H2,1H3	InChI=1S/C7H10N2/c1-5-2-6(3-8)7(5)4-9-7/h5-6,9H,2,4H2,1H3/t5-,6-,7+/m0/s1
