13
gdb 8983	4.00677	1.13095	0.9351	1.8532	62.42	-0.257	-0.0817	0.1753	1167.882	0.093155	-398.594697	-398.586304	-398.58536	-398.628862	28.595	
O	-0.6778051129	 1.3518289733	 0.5278030032	-0.243805
C	 0.2638294162	 1.0191799687	-0.1441419935	 0.105266
C	 1.538649403	 1.8568408398	-0.2873810302	 0.311312
O	 2.4605720363	 1.4650072763	-0.9803479262	-0.357967
N	 1.4931886341	 3.007960375	 0.4178199951	-0.304876
C	 2.5692686263	 3.9876990005	 0.3870841725	-0.292565
C	 2.079928772	 5.3382375666	 0.13165803	 0.284474
C	 1.6656860152	 6.4500126764	-0.0544051509	-0.432048
H	 0.3035174787	 0.0770892864	-0.7248761494	 0.121347
H	 0.641206602	 3.2034679533	 0.924443391	 0.273212
H	 3.1284609341	 3.9696814717	 1.3323416081	 0.148649
H	 3.259489573	 3.6613983023	-0.3979406487	 0.177844
H	 1.308166152	 7.4343996197	-0.231696471	 0.209157
34.7505	71.8961	163.5594	189.3944	231.6512	292.0489	324.839	505.659	518.5656	563.1362	626.2341	639.4039	675.5921	702.9929	902.8713	959.2451	1026.1705	1042.473	1106.0043	1241.1233	1271.8656	1362.5337	1378.3693	1485.4922	1544.9117	1786.3534	1824.0521	2245.8837	2961.1367	3015.5657	3082.072	3504.2652	3610.2153
O=CC(=O)NCC#C	O=CC(=O)NCC#C	
InChI=1S/C5H5NO2/c1-2-3-6-5(8)4-7/h1,4H,3H2,(H,6,8)	InChI=1S/C5H5NO2/c1-2-3-6-5(8)4-7/h1,4H,3H2,(H,6,8)
