14
gdb 29247	3.2863	1.45115	1.00818	4.2468	71.06	-0.2034	-0.0434	0.1599	1088.2665	0.102525	-470.063311	-470.055398	-470.054454	-470.095893	29.615	
N	-0.0280952751	 1.4737361991	 0.1468035468	-0.591539
C	-0.066997784	 0.0814732745	-0.0131214553	 0.081408
C	-1.1796991492	-0.6795239772	-0.0817569194	-0.040304
N	-1.1077513438	-2.0396420778	-0.2876421239	-0.348136
C	 0.0714293215	-2.7236655289	-0.4729040712	 0.47245
N	 0.0919257621	-3.9719192812	-0.6775925708	-0.569903
O	 1.2027222287	-1.9454840865	-0.4148411133	-0.250538
C	 1.2257060586	-0.5779845569	-0.1763119595	 0.422688
O	 2.2934819572	-0.0275491035	-0.1199658932	-0.342093
H	 0.9209743869	 1.7734074393	 0.3370657752	 0.265129
H	-0.6640915658	 1.8296138514	 0.8475312418	 0.24802
H	-2.1783525748	-0.2746895253	 0.0244707523	 0.135125
H	-1.9407731965	-2.6027885039	-0.3288672033	 0.280773
H	 1.0467377141	-4.3025784629	-0.7886460061	 0.236921
75.6619	142.8985	191.9612	306.759	321.8373	375.0652	378.1383	474.2308	505.0795	532.9352	608.5001	703.7224	722.9784	736.1014	780.6207	789.5014	833.3676	885.1378	973.8053	1053.7904	1089.5728	1147.853	1214.7687	1288.0847	1403.2473	1418.076	1502.1248	1636.0889	1722.9726	1762.5039	1834.9764	3213.2037	3533.706	3545.5671	3630.881	3667.3967
NC1=CNC(=N)OC1=O	NC1=CN[C]([NH])OC1=O	
InChI=1S/C4H5N3O2/c5-2-1-7-4(6)9-3(2)8/h1H,5H2,(H2,6,7)	InChI=1S/C4H5N3O2/c5-2-1-7-4(6)9-3(2)8/h1H,5H2,(H2,6,7)
