21
gdb 58494	1.96022	1.52885	1.20656	3.8217	83.88	-0.2111	0.0305	0.2415	1176.0396	0.18103	-383.258859	-383.248783	-383.247839	-383.293286	37.419	
C	 0.7998596685	 0.0438092384	 1.2290884318	-0.346241
N	 0.0263527085	-0.0558089385	-0.0039175679	-0.105109
C	 0.8540178072	-0.2621280608	-1.1816967512	-0.344687
C	-1.2012345035	-0.7887071231	 0.1166680439	 0.33679
C	-2.3049824441	-0.0023715038	 0.8078567798	-0.43214
C	-1.6360371122	-1.7474949032	-0.9455288898	-0.334649
C	-1.2325245639	-2.3228558778	 0.4067960618	-0.225279
C	-0.0242906844	-3.0850938938	 0.5029290943	 0.307301
N	 0.9494506546	-3.7073971688	 0.5857257308	-0.359948
H	 1.5486298984	 0.8348933215	 1.1212620427	 0.119202
H	 0.1486395152	 0.3176576466	 2.0628015969	 0.118862
H	 1.3207487232	-0.8893172091	 1.4933965264	 0.13211
H	 1.338358898	-1.2517019725	-1.2331653479	 0.123875
H	 0.2648767686	-0.1114411286	-2.0899248747	 0.122524
H	 1.6481965179	 0.4909838103	-1.1775680435	 0.121935
H	-2.5200008278	 0.9042961086	 0.2347049116	 0.130679
H	-3.2238933687	-0.5904126958	 0.8879634996	 0.114644
H	-2.0157309996	 0.2991994621	 1.8185706636	 0.128178
H	-2.6894872629	-1.7832985013	-1.2004071486	 0.125674
H	-0.9708987823	-1.9634614079	-1.7714867844	 0.141123
H	-2.0254840505	-2.6763238723	 1.0570735049	 0.125157
88.0565	118.2197	147.5204	187.9878	213.3276	231.2789	256.969	301.3252	324.7899	376.4502	406.3466	447.3921	476.8893	568.0564	610.275	672.0712	765.6605	814.8182	888.1323	929.6476	980.996	1033.8161	1074.3071	1082.1073	1091.8162	1110.4674	1123.9185	1125.7236	1180.9173	1213.441	1249.2835	1296.435	1357.2016	1382.121	1416.3945	1446.1951	1476.3601	1481.8785	1485.7255	1492.8388	1497.1626	1506.413	1510.6043	1526.4906	2337.9438	2968.024	2994.5228	3042.787	3069.1072	3073.4845	3109.6847	3112.3652	3115.375	3118.5742	3147.2733	3166.3912	3239.6771
CN(C)C1(C)CC1C#N	CN(C)[C@@]1(C)C[C@H]1C#N	
InChI=1S/C7H12N2/c1-7(9(2)3)4-6(7)5-8/h6H,4H2,1-3H3	InChI=1S/C7H12N2/c1-7(9(2)3)4-6(7)5-8/h6H,4H2,1-3H3/t6-,7-/m0/s1
