21
gdb 13629	3.66879	1.16664	1.0286	2.2588	75.38	-0.243	0.0713	0.3144	1248.0309	0.187284	-366.241619	-366.231842	-366.230898	-366.276462	35.286	
C	 0.0047468431	 1.5600400833	 0.1696280848	-0.384122
C	-0.1179609468	 0.036251583	 0.2329403712	-0.189055
C	-1.5168663988	-0.4735401941	-0.1337382191	 0.146103
O	-1.9125859175	-0.0619746808	-1.4432116138	-0.434714
C	-1.61149808	-1.9794909265	 0.0078889018	-0.047571
N	-1.8781306814	-2.5106377652	 1.3559966731	-0.342268
C	-2.8731555875	-2.7152315336	 0.2855448906	 0.000967
C	-4.2244274692	-2.0623326235	 0.4489915042	-0.392154
H	 1.0274883452	 1.885719169	 0.3820791608	 0.107116
H	-0.2773707134	 1.9282339421	-0.8203189902	 0.124806
H	-0.6567991479	 2.036902339	 0.9011989839	 0.11608
H	 0.6133060566	-0.42724326	-0.4470665296	 0.076486
H	 0.12321622	-0.3279772618	 1.2386218618	 0.111501
H	-2.2455654367	-0.0090397475	 0.5377920067	 0.09156
H	-1.2910883598	-0.4475284253	-2.0710645249	 0.274112
H	-0.8753580894	-2.5137174575	-0.5980003662	 0.065999
H	-1.3428988135	-3.3583010136	 1.5211702082	 0.228992
H	-2.9177968569	-3.7160421845	-0.1443119971	 0.078338
H	-4.1439966575	-1.1009024514	 0.9598853288	 0.129139
H	-4.6933538249	-1.8965219259	-0.5263053016	 0.124049
H	-4.8875421536	-2.6997141151	 1.0436687667	 0.114636
45.0124	104.0812	118.4136	171.6615	201.3419	240.2535	251.5626	277.6263	387.0027	392.7314	416.2772	522.2256	561.5154	780.4619	789.3424	843.865	874.7646	938.4406	966.741	986.8679	1013.4307	1040.9704	1061.2737	1088.3395	1113.3147	1122.8002	1158.3906	1196.5278	1247.3695	1263.4864	1275.3031	1300.8646	1332.9379	1380.5296	1401.8636	1406.4622	1415.2955	1431.5877	1470.2848	1482.2268	1492.5527	1496.4187	1504.1684	1508.7958	2994.1271	3037.4206	3039.3732	3057.9526	3065.0499	3078.9761	3099.1833	3101.8338	3102.1591	3120.761	3134.8698	3507.0962	3793.8518
CCC(O)C1NC1C	CC[C@@H](O)[C@H]1N[C@H]1C	
InChI=1S/C6H13NO/c1-3-5(8)6-4(2)7-6/h4-8H,3H2,1-2H3	InChI=1S/C6H13NO/c1-3-5(8)6-4(2)7-6/h4-8H,3H2,1-2H3/t4-,5+,6-/m0/s1
