20
gdb 96274	2.06343	1.70654	0.99685	4.4835	75.99	-0.2456	0.0408	0.2864	1207.8705	0.172796	-440.342759	-440.334122	-440.333178	-440.37613	32.923	
C	-0.1417604348	 1.4889961455	 0.0685192517	-0.392487
C	 0.0098768699	-0.0233853983	-0.0293097108	 0.12772
C	 0.7693298985	-0.4583057617	-1.2834988018	-0.184514
C	 0.7611972426	-1.9706335589	-1.515359226	-0.199287
C	 1.3184733652	-2.7673917348	-0.3344622809	-0.159744
N	 0.4798175415	-2.7033149402	 0.8647640311	-0.33849
C	 0.461950783	-1.6385639063	 1.7386207335	 0.402595
O	 0.2572675204	-1.7509816289	 2.9213754931	-0.370495
O	 0.7068385491	-0.4218342292	 1.1771962537	-0.249307
H	 0.8403971469	 1.9719905219	 0.0707504567	 0.127646
H	-0.714587312	 1.871112664	-0.7817310791	 0.114888
H	-0.6584520468	 1.7602275243	 0.9918384951	 0.134815
H	-0.9814005065	-0.4949399976	-0.0193634331	 0.092982
H	 0.3251409399	 0.0451708171	-2.1501300257	 0.100465
H	 1.8007572924	-0.0927304527	-1.1981505374	 0.107253
H	-0.261319437	-2.312720266	-1.7175594775	 0.105061
H	 1.3592530044	-2.2061990011	-2.4032779345	 0.099829
H	 1.3807970068	-3.8236131364	-0.6101040435	 0.111583
H	 2.3413271486	-2.4322845968	-0.1113994411	 0.11639
H	 0.3642476577	-3.572631074	 1.3638456266	 0.253097
68.7645	140.2568	184.2573	219.0478	273.7441	305.4874	354.6747	374.1954	426.8969	521.256	558.5753	584.8915	692.5609	756.747	822.3953	854.0817	867.6623	888.1985	949.8563	988.2565	1014.0816	1056.4661	1097.7152	1143.2094	1147.3817	1158.2729	1229.3437	1242.6166	1296.3183	1326.0976	1334.6639	1386.5337	1394.4027	1399.7741	1411.5511	1418.2897	1461.5987	1469.2166	1481.9582	1485.5366	1498.1834	1499.2648	1835.1263	3006.6237	3020.1598	3028.0494	3029.1051	3044.3699	3067.2703	3077.5941	3089.4504	3116.1819	3131.0582	3619.5701
CC1CCCNC(=O)O1	C[C@H]1CCCNC(=O)O1	
InChI=1S/C6H11NO2/c1-5-3-2-4-7-6(8)9-5/h5H,2-4H2,1H3,(H,7,8)	InChI=1S/C6H11NO2/c1-5-3-2-4-7-6(8)9-5/h5H,2-4H2,1H3,(H,7,8)/t5-/m0/s1
