18
gdb 34042	3.04491	1.33892	1.14876	3.8779	76.35	-0.2652	0.0308	0.296	1105.1103	0.149611	-401.955898	-401.948123	-401.947179	-401.988122	30.183	
N	 0.0602889656	-1.1091484896	 0.0768878537	-0.348222
C	 0.0236710754	 0.0464972956	 0.0247585917	 0.237861
C	-0.0275506407	 1.4844039639	-0.0327042645	 0.109989
C	 0.5261731132	 2.1214662113	-1.306287366	-0.332393
C	 1.3235533584	 2.2074161871	-0.0408645116	 0.086105
O	 1.4475957361	 3.4450750718	 0.5808783952	-0.256646
C	 0.5242217763	 3.6991204619	 1.6360575706	-0.066186
C	-0.9119354188	 3.5657590507	 1.1413803009	-0.231329
C	-1.1945718541	 2.1109889601	 0.7350102768	-0.277695
H	 0.8588670522	 1.4571132512	-2.0948201529	 0.138098
H	 0.0477071904	 3.0357704884	-1.6388800441	 0.131902
H	 2.2140437299	 1.5903847069	 0.0503584723	 0.120007
H	 0.7050093173	 3.0140992929	 2.4795825419	 0.100003
H	 0.7432119854	 4.7160658101	 1.970196847	 0.117569
H	-1.6135470644	 3.868083341	 1.9255927613	 0.11039
H	-1.0566759203	 4.2500356323	 0.2977330188	 0.113896
H	-2.1157654132	 2.033694243	 0.1483243535	 0.120658
H	-1.3485969688	 1.5173554112	 1.6428965653	 0.125994
111.7015	146.2825	175.4138	277.9284	327.6765	402.1791	428.7545	484.1533	537.3602	574.6241	581.2399	682.547	789.8437	860.4713	880.5992	910.6674	934.8994	951.6105	979.8434	1045.1174	1057.3448	1064.9548	1115.2402	1118.2784	1190.2793	1202.2963	1255.543	1260.1764	1293.5176	1314.2464	1356.7137	1375.7624	1400.4051	1421.6397	1468.2093	1483.2403	1497.5214	1506.3636	2346.5134	2984.9428	3040.4742	3044.0893	3077.2006	3092.4447	3101.9103	3139.2993	3142.6466	3237.4223
N#CC12CC1OCCC2	N#C[C@]12C[C@H]1OCCC2	
InChI=1S/C7H9NO/c8-5-7-2-1-3-9-6(7)4-7/h6H,1-4H2	InChI=1S/C7H9NO/c8-5-7-2-1-3-9-6(7)4-7/h6H,1-4H2/t6-,7+/m1/s1
