23
gdb 83250	1.76489	1.65158	1.45468	1.2478	84.62	-0.2432	0.0737	0.3168	1141.3934	0.205833	-388.295357	-388.285794	-388.284849	-388.328948	37.139	
C	-0.1772833517	 1.6833596216	-0.1892642272	-0.427762
C	 0.0830524444	 0.1973967507	-0.0441689971	-0.070577
C	 1.3885507497	-0.5272123138	-0.3468754423	-0.113078
C	 2.7050628997	 0.240915702	-0.323859974	-0.226319
C	 2.7704470732	 0.9383895854	 1.0608287144	-0.245575
C	 1.8112749932	 0.1533444564	 1.9870033036	-0.009132
C	 1.1814261268	 0.9857655853	 3.1071219689	-0.41719
C	 0.8238080389	-0.5424347131	 1.0502614485	 0.372001
O	 0.2482767601	-1.7254207454	 1.5378523426	-0.476022
H	 0.6848516726	 2.3049531202	 0.0549453392	 0.12228
H	-0.4594668833	 1.9153515441	-1.2227496799	 0.116882
H	-1.0064907992	 2.0025249409	 0.4526962238	 0.114178
H	-0.7676568041	-0.3990221335	-0.3705473482	 0.085034
H	 1.323592702	-1.416155793	-0.9651242473	 0.085921
H	 3.5285720503	-0.4740854313	-0.4303627992	 0.102409
H	 2.8036895503	 0.9570109645	-1.1474381692	 0.095643
H	 3.7886984916	 0.9557244767	 1.4604996499	 0.096914
H	 2.4566994647	 1.9838164566	 0.9881599792	 0.101973
H	 2.3698146237	-0.670539719	 2.451502131	 0.080461
H	 0.5991026166	 1.8221210495	 2.7062039153	 0.115909
H	 0.5128974671	 0.3744525319	 3.7241869905	 0.103768
H	 1.9476124638	 1.3998600934	 3.771109411	 0.113192
H	-0.5107868302	-1.4844459302	 2.0792013367	 0.27909
116.8359	142.6249	179.663	211.3577	217.2953	232.5252	275.0478	301.0585	346.175	404.6497	496.6341	549.7823	558.0238	646.2535	681.021	750.496	830.3519	870.8758	889.3672	921.2614	959.0963	981.605	1001.0597	1042.4654	1057.482	1085.6797	1111.5263	1126.2935	1139.5201	1146.5343	1190.2129	1227.8919	1237.9431	1281.0529	1314.4399	1325.1468	1333.3845	1337.3334	1357.8485	1383.6373	1405.773	1413.7735	1461.4587	1487.384	1494.2428	1496.2056	1502.2915	1505.6886	1517.2759	3011.8337	3025.7727	3030.4743	3034.0957	3054.3275	3064.4865	3079.3303	3087.7565	3091.5646	3101.0466	3113.4751	3141.37	3166.8468	3802.3075
CC1C2CCC(C)C12O	C[C@H]1[C@H]2CC[C@@H](C)[C@@]12O	
InChI=1S/C8H14O/c1-5-3-4-7-6(2)8(5,7)9/h5-7,9H,3-4H2,1-2H3	InChI=1S/C8H14O/c1-5-3-4-7-6(2)8(5,7)9/h5-7,9H,3-4H2,1-2H3/t5-,6+,7-,8-/m1/s1
