17
gdb 71316	3.4286	1.46546	1.18142	1.7857	79.12	-0.2445	0.0505	0.295	1046.7934	0.134636	-384.577451	-384.569663	-384.568719	-384.609409	31.03	
O	 0.0267347854	 1.3383075159	 0.1852352485	-0.46271
C	 0.1038834909	-0.0346027595	 0.1215819145	 0.402115
C	 0.8011090311	-1.0141784701	 1.0905609877	-0.330736
C	 0.0855969301	-1.9064191487	 0.0562791459	-0.067154
C	-1.1498533398	-0.9471283669	-0.0405733708	-0.080965
C	-1.0854033963	-0.93075693	-1.5937933946	-0.206669
C	-1.6028884259	 0.2028473474	-2.3332067818	 0.308907
C	-2.0446026497	 1.1193655906	-2.9747142207	-0.44354
C	 0.3988031218	-0.9451567976	-1.1357719567	-0.117825
H	 0.902623406	 1.706066243	 0.0251700089	 0.285574
H	 1.8962608563	-1.0323584007	 1.0793653753	 0.089573
H	 0.4201896186	-1.0438537202	 2.1160730579	 0.09967
H	 0.0483294018	-2.9914323952	-0.0043851603	 0.08402
H	-2.0299619814	-0.9532803712	 0.6029024768	 0.082676
H	-1.4120948272	-1.8697342921	-2.0561874252	 0.093135
H	-2.4311467382	 1.9407254273	-3.5250744285	 0.188842
H	 1.2990143465	-0.9455496521	-1.7524087768	 0.075086
114.8771	139.6471	210.5308	288.8098	338.5766	419.9747	430.0436	499.5711	526.8629	621.2751	623.9898	658.0868	722.8895	791.6273	867.7092	880.4517	890.7958	902.0571	928.5277	991.8393	1013.2292	1043.8604	1056.6041	1071.7193	1080.7556	1116.9654	1136.3299	1168.4476	1202.6621	1212.4786	1221.5652	1276.338	1300.9363	1362.9076	1389.1419	1512.3614	2232.6077	3035.0158	3037.3121	3098.3379	3102.8557	3115.3807	3149.2753	3505.9001	3807.4154
OC12CC3C1C(C#C)C23	O[C@@]12C[C@H]3[C@@H]1[C@@H](C#C)[C@@H]23	
InChI=1S/C8H8O/c1-2-4-6-5-3-8(6,9)7(4)5/h1,4-7,9H,3H2	InChI=1S/C8H8O/c1-2-4-6-5-3-8(6,9)7(4)5/h1,4-7,9H,3H2/t4-,5+,6+,7-,8+
