18
gdb 45793	2.66475	1.81604	1.29816	2.8793	77.84	-0.2138	-0.0088	0.205	991.7915	0.15164	-401.982668	-401.975599	-401.974655	-402.013986	28.725	
O	-0.0091189251	-0.0731790017	 0.3163982056	-0.364204
C	 0.0080208092	 1.113641104	 0.0493788291	 0.386382
N	-1.1918636347	 1.7697609478	-0.1866841395	-0.324916
C	-1.4815417286	 3.0990879267	-0.5080001397	 0.000921
C	-0.6187286664	 4.1069721382	-0.6721506739	-0.102197
C	 0.870136734	 3.9848158792	-0.535149992	-0.068314
C	 1.4484066337	 2.76550896	-1.3223541878	-0.237552
C	 1.2989379849	 1.9018226148	-0.0334750122	-0.110111
C	 1.2945636641	 3.2376864467	 0.7696248813	-0.237546
H	-1.9760943788	 1.1394804572	-0.1019903061	 0.251465
H	-2.5466386421	 3.2666106441	-0.6240000523	 0.111583
H	-1.0366541975	 5.0753925552	-0.9214196682	 0.091661
H	 1.3520149031	 4.9468094076	-0.7168483806	 0.067397
H	 0.9185321847	 2.4474602481	-2.2223852159	 0.111195
H	 2.5061967589	 2.9069038796	-1.5558289005	 0.108691
H	 2.0959034032	 1.1926504816	 0.1852132985	 0.095638
H	 2.3134527273	 3.4984791004	 1.0650509606	 0.108702
H	 0.6348007102	 3.3182762303	 1.6357632235	 0.111204
115.4249	192.3052	308.2218	315.6578	365.7071	436.4791	541.8264	564.7951	631.5834	716.0696	720.2344	751.8109	802.8287	824.6452	836.8536	868.7058	928.7983	946.0117	977.0872	1005.4346	1016.4397	1071.0124	1085.1922	1139.4681	1150.8048	1162.4946	1253.5598	1255.9051	1262.1081	1262.4445	1332.6929	1352.9949	1375.8531	1438.572	1473.5056	1483.3912	1500.9321	1723.0979	1778.8664	3064.6766	3067.2141	3089.1594	3120.19	3124.7612	3129.1553	3181.9993	3202.4749	3612.9896
O=C1NC=CC2CC1C2	O=C1NC=C[C@@H]2C[C@H]1C2	
InChI=1S/C7H9NO/c9-7-6-3-5(4-6)1-2-8-7/h1-2,5-6H,3-4H2,(H,8,9)	InChI=1S/C7H9NO/c9-7-6-3-5(4-6)1-2-8-7/h1-2,5-6H,3-4H2,(H,8,9)/t5-,6+
