22
gdb 58986	2.98243	1.07746	0.93358	1.1075	83.84	-0.2394	0.0305	0.27	1396.3581	0.193692	-404.387608	-404.377644	-404.3767	-404.423225	36.195	
C	-0.1334960661	 1.5003351386	 0.0514250125	-0.389176
C	 0.045171579	-0.0307220458	 0.018444583	-0.072559
C	 0.6876116276	-0.5066016423	-1.2869577248	-0.378683
C	 0.8257287054	-0.4858406202	 1.2186318655	 0.422028
N	 1.9674742301	-1.0419652353	 1.2263247477	-0.325331
C	 2.3281397859	-1.2813055735	 2.6345671512	 0.027061
C	 3.6707763633	-0.6400579399	 2.9819068602	-0.386
C	 1.1263972451	-0.7008476972	 3.4322498102	-0.123829
O	 0.2085088924	-0.2517816451	 2.4153807864	-0.265336
H	 0.8347319139	 2.0030528161	-0.0459387514	 0.121616
H	-0.7672311539	 1.8244294093	-0.7793856667	 0.115223
H	-0.5957031646	 1.8239202831	 0.9868587666	 0.130876
H	-0.9526319445	-0.4802168588	 0.1152642197	 0.097841
H	 1.6900575989	-0.085236641	-1.4009267155	 0.130188
H	 0.7856222948	-1.594467467	-1.3073664706	 0.124453
H	 0.0792104587	-0.1934175767	-2.1410281368	 0.104452
H	 2.4077002277	-2.3647729887	 2.7886639028	 0.08515
H	 3.6289779172	 0.4439621455	 2.8318941396	 0.11717
H	 3.937689116	-0.8338239026	 4.026486143	 0.110548
H	 4.4612021568	-1.0414427528	 2.3424801779	 0.12999
H	 0.6147094993	-1.4366886619	 4.058408345	 0.114626
H	 1.4042227771	 0.1590444563	 4.0519595546	 0.109692
37.7579	67.2909	124.9672	179.3167	214.7421	236.6821	242.3441	309.1173	343.5874	356.4031	453.3829	469.4905	632.0671	698.3061	734.1113	853.452	874.8021	923.3593	935.8762	938.35	953.1774	972.2969	1016.9194	1079.3022	1114.2825	1121.0577	1143.1523	1162.5361	1174.8425	1224.1694	1228.906	1311.6902	1331.1815	1351.375	1375.564	1390.342	1401.8144	1409.8246	1420.7627	1485.358	1488.2333	1488.6011	1496.6113	1498.8405	1512.6172	1521.9371	1732.1991	3016.9994	3018.3706	3032.7259	3038.3295	3040.4173	3045.9595	3091.7743	3102.8903	3106.41	3117.219	3121.8961	3126.9507	3127.9571
CC(C)C1=NC(C)CO1	CC(C)C1=N[C@@H](C)CO1	
InChI=1S/C7H13NO/c1-5(2)7-8-6(3)4-9-7/h5-6H,4H2,1-3H3	InChI=1S/C7H13NO/c1-5(2)7-8-6(3)4-9-7/h5-6H,4H2,1-3H3/t6-/m0/s1
