21
gdb 32983	4.37956	0.8504	0.76122	0.3199	93.33	-0.2358	0.0047	0.2405	1570.1475	0.184655	-350.035189	-350.026481	-350.025537	-350.069462	32.906	
C	-0.0333703195	 1.5836279556	-0.0185148335	-0.378818
C	 0.0043852869	 0.0538519979	-0.000148141	-0.150275
C	 0.7335710603	-0.5143096049	 1.2329925198	-0.300005
C	 0.7705503502	-2.0248113015	 1.2504295219	 0.324787
C	-0.2543333221	-2.7613124588	 1.8525943356	-0.189271
C	-0.2418020191	-4.1535373802	 1.8379425427	-0.090899
C	 0.8019667585	-4.8368824017	 1.2184611379	-0.121296
C	 1.831129618	-4.1164826757	 0.6166617124	-0.090971
C	 1.8130597692	-2.7244131267	 0.6345379857	-0.188949
H	 0.977892855	 2.0056566131	-0.0252396024	 0.113603
H	-0.5559850266	 1.9581976698	-0.9042259815	 0.112378
H	-0.5487397774	 1.9787164273	 0.8641502542	 0.113616
H	-1.0169918949	-0.3457397455	-0.0244320994	 0.1005
H	 0.4964139472	-0.3188854254	-0.9070566054	 0.100484
H	 1.7567571707	-0.1189330418	 1.254377179	 0.098582
H	 0.2382142336	-0.1459862191	 2.139969913	 0.098492
H	-1.0692959218	-2.235735706	 2.342787956	 0.085362
H	-1.045685675	-4.7049913012	 2.3151349606	 0.092213
H	 0.8155505355	-5.9216896368	 1.2086168767	 0.092901
H	 2.6523903138	-4.6389300316	 0.1364312683	 0.092215
H	 2.6225100375	-2.1697859769	 0.1677674595	 0.085351
44.7559	86.9904	102.7157	233.0961	278.1691	309.2789	345.4607	415.4097	509.4713	596.1093	631.8023	720.8089	746.5032	769.0667	824.8752	865.9273	878.0713	895.879	928.1349	952.6248	986.6776	1014.4317	1043.5371	1052.4899	1069.7622	1109.5691	1125.891	1181.1422	1203.6003	1228.5748	1250.6698	1315.0798	1321.8146	1344.6082	1353.5273	1382.6088	1410.3395	1482.5665	1483.6669	1493.8307	1497.4368	1510.3502	1527.5439	1623.4252	1645.2765	3018.2967	3026.9521	3030.4526	3047.6028	3069.147	3096.3019	3101.1292	3158.6955	3159.7591	3173.7799	3182.6378	3195.9389
CCCC1=CC=CC=C1	CCCc1ccccc1	
InChI=1S/C9H12/c1-2-6-9-7-4-3-5-8-9/h3-5,7-8H,2,6H2,1H3	InChI=1S/C9H12/c1-2-6-9-7-4-3-5-8-9/h3-5,7-8H,2,6H2,1H3
