18
gdb 128358	3.19416	1.21716	0.89665	3.6882	76.9	-0.2156	0.0167	0.2323	1299.4794	0.147506	-435.259508	-435.249913	-435.248969	-435.293815	34.499	
C	 0.0652247485	 1.4069185467	-0.0311168296	-0.319447
N	-0.1182290884	-0.0307124524	 0.1031098239	-0.381608
C	 0.5934874313	-0.703938625	 1.0683812618	 0.420341
N	 1.2402889027	-0.0840952172	 2.0307890436	-0.256298
O	 1.7667766223	-1.1194684013	 2.8368840948	-0.240049
C	 1.4182184021	-2.3083992495	 2.3236082618	 0.452686
C	 1.8683006679	-3.5353868179	 3.0282066218	-0.495037
C	 0.6768774601	-2.133890531	 1.1956466199	-0.102313
N	 0.1145210681	-3.1481190155	 0.3792568487	-0.622668
H	 1.0988074574	 1.6884922814	-0.2765091267	 0.124234
H	-0.6041891185	 1.7783308658	-0.8103369306	 0.117813
H	-0.1932150514	 1.890290289	 0.9139924912	 0.156407
H	-0.1824756432	-0.5375494775	-0.7675106376	 0.22879
H	 1.5555369448	-3.5213517048	 4.077158084	 0.144693
H	 1.4320738692	-4.406482529	 2.5352151839	 0.150506
H	 2.9596783424	-3.6278872475	 3.011140066	 0.142218
H	 0.5868682859	-3.2376561687	-0.5149963032	 0.238339
H	-0.8687883511	-2.9789961555	 0.1931982561	 0.241395
92.627	121.331	149.5923	177.9459	196.1235	207.013	246.3323	300.542	329.9087	400.2088	512.6165	529.1404	625.6814	644.958	735.4477	746.3248	778.146	804.397	930.9135	998.9603	1030.0204	1067.5403	1128.4781	1151.6082	1178.3903	1216.8113	1268.1204	1306.1258	1392.0741	1426.8324	1454.5066	1478.8904	1481.0257	1484.1639	1510.5426	1537.9046	1591.0013	1644.9571	1710.1119	3007.7154	3039.6136	3092.5715	3096.142	3133.8471	3139.8446	3491.3857	3561.7167	3597.3885
CNC1=NOC(C)=C1N	CNc1noc(C)c1N	
InChI=1S/C5H9N3O/c1-3-4(6)5(7-2)8-9-3/h6H2,1-2H3,(H,7,8)	InChI=1S/C5H9N3O/c1-3-4(6)5(7-2)8-9-3/h6H2,1-2H3,(H,7,8)
