17
gdb 40392	4.38306	1.18416	1.11071	1.5804	71.43	-0.2311	0.0538	0.2849	1106.2519	0.135186	-421.714736	-421.707401	-421.706456	-421.746857	28.753	
C	 0.4587882301	 1.4520135604	 0.0639951492	-0.176513
O	 1.0776546361	 0.2398648546	-0.3750152408	-0.233168
C	-0.2835988244	 0.1802466882	 0.0570589517	-0.055452
C	-0.5549776228	-0.59066872	 1.2949064819	 0.323094
C	 0.4843129198	-0.9512996211	 2.3187754535	-0.341907
C	-0.2451660595	-2.0568976599	 1.597723725	-0.156809
C	-1.7017672657	-2.2264025662	 2.1316247465	 0.021993
O	-1.9304741536	-1.2967970331	 3.2025962895	-0.238632
C	-2.0059582859	-0.8296016887	 1.8505902167	-0.054277
H	 0.8254226272	 1.8436037442	 1.0111599612	 0.118346
H	 0.2785863938	 2.1909016848	-0.7154831945	 0.116085
H	-0.994843242	 0.0218773372	-0.7568617392	 0.090292
H	 1.5007081605	-0.7970482591	 1.9723152556	 0.132251
H	 0.303907376	-0.774031013	 3.3712735245	 0.134031
H	 0.2504034841	-2.7745595183	 0.957770622	 0.104232
H	-2.3140427923	-3.1191086393	 2.1034904336	 0.111351
H	-2.9143874612	-0.3277147009	 1.5385303435	 0.105081
68.0721	158.2491	182.4168	334.3111	363.611	420.5144	493.9164	582.6616	663.1677	757.6913	797.8446	804.6982	825.1708	865.486	880.1931	904.5004	932.2169	962.154	976.2857	990.5341	1026.5947	1055.9411	1081.2702	1101.0738	1107.3389	1147.5019	1166.1694	1172.8845	1215.2304	1250.0115	1261.8416	1283.5086	1352.4364	1396.7974	1440.2166	1475.9686	1520.6588	3078.4243	3086.9539	3146.1576	3177.7149	3181.5694	3198.6407	3210.0141	3241.0851
C1OC1C12CC1C1OC21	C1O[C@H]1[C@]12C[C@H]1[C@H]1O[C@@H]21	
InChI=1S/C7H8O2/c1-3-5-6(9-5)7(1,3)4-2-8-4/h3-6H,1-2H2	InChI=1S/C7H8O2/c1-3-5-6(9-5)7(1,3)4-2-8-4/h3-6H,1-2H2/t3-,4+,5+,6+,7-/m0/s1
