14
gdb 25543	3.65433	1.17644	0.88994	6.6434	69.2	-0.1888	-0.0122	0.1766	1196.7158	0.10257	-470.085025	-470.077069	-470.076124	-470.117941	29.178	
O	-0.2096626033	-0.0306945503	 0.0031574583	-0.325043
C	-0.0683953903	 1.1758695033	 0.0091866951	 0.150332
N	 1.1289272909	 1.8341477998	 0.0015078435	-0.406191
C	 2.3909931929	 1.2429837786	-0.0128302898	 0.444438
C	 3.6135622181	 1.8221028342	-0.0161093269	-0.218381
N	 4.5393991591	 0.7744302607	-0.0337550149	-0.339659
C	 3.9124524989	-0.4648998774	-0.0405378112	 0.455896
O	 4.4175615368	-1.5677034886	-0.053410799	-0.427861
N	 2.5584786121	-0.1313879756	-0.02824011	-0.399287
H	-0.9162060855	 1.883757152	 0.0199682227	 0.097242
H	 1.1057171613	 2.8421459215	 0.0073862807	 0.267062
H	 3.9017566022	 2.8579999311	-0.0091775768	 0.134858
H	 5.5392894677	 0.861722296	-0.0380567156	 0.270709
H	 1.7906511691	-0.7841464353	-0.0241616861	 0.295885
68.2992	157.9518	173.1101	199.6847	332.9011	336.9912	452.0291	514.479	520.3445	568.4492	582.7571	645.1343	655.3998	755.8503	757.2579	862.5898	973.8495	1005.2606	1010.0011	1091.63	1150.9997	1185.948	1267.2605	1341.3254	1388.079	1429.1292	1476.0838	1515.0046	1708.2546	1788.6881	1849.3332	2978.261	3290.9373	3633.2452	3649.931	3706.6765
O=CNC1=CNC(=O)N1	O=CNc1c[nH]c(=O)[nH]1	
InChI=1S/C4H5N3O2/c8-2-6-3-1-5-4(9)7-3/h1-2H,(H,6,8)(H2,5,7,9)	InChI=1S/C4H5N3O2/c8-2-6-3-1-5-4(9)7-3/h1-2H,(H,6,8)(H2,5,7,9)
