20
gdb 120520	5.30774	0.69188	0.6749	3.8229	81.26	-0.2618	0.0315	0.2934	1712.2518	0.170148	-403.151587	-403.142023	-403.141079	-403.18709	34.198	
C	-0.451436532	 1.1919046134	-0.3003932554	-0.385309
C	 0.1830847823	-0.1753153664	-0.1144720911	-0.047805
O	 0.4307418789	-0.3711058984	 1.2692866205	-0.250229
C	 0.9758531171	-1.6181025582	 1.5777860541	 0.177002
C	 2.5020697647	-1.8462784081	 1.3608379208	-0.265858
C	 2.5545799374	-2.5215712559	 2.7735961791	-0.173242
C	 1.170997242	-1.8572639743	 3.0873387462	-0.268501
C	 2.5147433443	-3.975241864	 2.7309048661	 0.273436
N	 2.4771228692	-5.1305963851	 2.6908367732	-0.327473
H	 0.2161015987	 1.9779899798	 0.0636609327	 0.127402
H	-0.6581998326	 1.3746159596	-1.3589592279	 0.118257
H	-1.391516257	 1.256623765	 0.2545592446	 0.129505
H	-0.4833923121	-0.9689799123	-0.490215169	 0.093337
H	 1.1232915477	-0.2452488966	-0.6846037384	 0.092907
H	 0.3923283144	-2.4270249767	 1.1123436534	 0.08366
H	 2.8307356676	-2.4441777569	 0.5102632228	 0.12316
H	 3.0379415129	-0.8942092756	 1.3779112041	 0.119896
H	 3.3828161575	-2.2127101989	 3.4143517611	 0.126942
H	 1.3159627134	-0.905554031	 3.6030128187	 0.126145
H	 0.4298782457	-2.4560640796	 3.6168324443	 0.126768
46.2269	73.7312	90.6346	146.4378	203.4212	237.0073	256.4286	347.802	401.6004	460.1378	512.2249	567.154	699.0255	790.7994	820.0656	825.7737	887.79	914.7634	926.6024	998.9272	1001.5363	1068.7943	1092.0049	1113.9054	1150.1669	1171.0708	1180.2088	1187.4162	1227.4736	1248.3265	1270.4741	1297.5029	1300.4167	1342.2477	1377.6518	1405.8858	1443.9796	1466.3718	1483.7988	1490.6893	1499.6673	1529.013	2351.4061	2965.7224	2989.2955	2994.79	3046.3124	3074.323	3081.6554	3093.072	3121.4142	3123.337	3142.2495	3147.6788
CCOC1CC(C1)C#N	CCO[C@H]1C[C@@H](C1)C#N	
InChI=1S/C7H11NO/c1-2-9-7-3-6(4-7)5-8/h6-7H,2-4H2,1H3	InChI=1S/C7H11NO/c1-2-9-7-3-6(4-7)5-8/h6-7H,2-4H2,1H3/t6-,7-
