16
gdb 50358	4.95096	1.0848	0.93457	2.4204	76.36	-0.2197	-0.0258	0.1939	1199.1112	0.125487	-437.86316	-437.855706	-437.854762	-437.895558	27.648	
O	-0.0074569144	-0.0591819198	 0.0802169643	-0.324394
C	 0.0233566525	 1.152281693	 0.0394279548	 0.145656
N	 1.1661914056	 1.8950053771	-0.0465348843	-0.064665
C	 1.2324068955	 3.3821693418	-0.0392830654	-0.216268
C	 2.6982305979	 3.6376450355	-0.4357475624	 0.09651
O	 3.656313943	 4.1806287713	 0.528454242	-0.298061
C	 4.5299178259	 3.0137935191	 0.3578297882	-0.134405
C	 3.3643133902	 2.301209707	-0.2813331764	 0.020917
C	 2.4695542807	 1.3627807679	 0.035069064	-0.059613
H	-0.8818120201	 1.7885598396	 0.0740678969	 0.078657
H	 0.5190386157	 3.8014235867	-0.7514655866	 0.12947
H	 1.0186999479	 3.7766287933	 0.9612170729	 0.138157
H	 2.7990198287	 4.1711038115	-1.3887328003	 0.090152
H	 5.3716826391	 3.2587228023	-0.3015232711	 0.114528
H	 4.9022637235	 2.6209821946	 1.3083803188	 0.125968
H	 2.5813293981	 0.3505317791	 0.3945642746	 0.157392
67.2353	167.517	203.2819	237.674	307.8579	352.5385	438.4479	508.8244	657.5097	728.1062	751.3353	857.0876	877.9754	902.2946	914.5026	957.1602	998.9151	1021.8131	1054.7637	1058.2191	1100.4879	1137.3443	1194.8785	1214.2279	1219.4952	1277.8362	1313.6055	1332.7748	1363.0904	1424.8544	1436.376	1493.7404	1515.8751	1708.9177	1789.195	2948.6848	3021.8016	3027.874	3038.6292	3089.2867	3114.8306	3255.6391
O=CN1CC2OCC2=C1	O=CN1C[C@H]2OC[C]2[CH]1	
InChI=1S/C6H7NO2/c8-4-7-1-5-3-9-6(5)2-7/h1,4,6H,2-3H2	InChI=1S/C6H7NO2/c8-4-7-1-5-3-9-6(5)2-7/h1,4,6H,2-3H2/t6-/m1/s1
