16
gdb 19596	4.27853	2.01546	1.8705	3.7461	63.07	-0.2382	0.0727	0.3109	753.9396	0.134114	-379.838723	-379.832953	-379.832009	-379.868205	24.645	
O	 0.1317591307	 1.4020315789	-0.090380849	-0.46626
C	 0.1009107481	 0.0057777405	-0.0800577969	 0.206368
C	 0.1711634332	-0.641641891	 1.3412924107	-0.067271
N	-1.2699900032	-0.1863093145	 1.4608419272	-0.351981
C	-1.3297906783	-0.6183326241	 0.0088342878	-0.067271
C	-1.0665861955	-2.1376927943	 0.0808887573	-0.049214
N	 0.2930362607	-2.5580874549	-0.3413233538	-0.32854
C	 0.0420805693	-2.1549101099	 1.065102924	-0.049214
H	-0.4814698102	 1.6789029382	 0.6052291316	 0.285183
H	 0.7754702192	-0.3604898241	-0.8463275135	 0.115142
H	 0.869768088	-0.3000380153	 2.1052166329	 0.073841
H	-1.8268353181	-0.7806708731	 2.0777058511	 0.204251
H	-2.1649871802	-0.2529095725	-0.5888568885	 0.073841
H	-1.8819657794	-2.8524708975	 0.0674195558	 0.095072
H	 0.3179063794	-3.5758385348	-0.38714015	 0.230982
H	 0.1395461264	-2.8838639317	 1.8620094935	 0.095072
271.2205	338.7663	368.901	405.989	575.1515	577.077	592.9335	676.0198	790.3636	814.5784	849.505	872.6296	888.3783	897.1578	914.7985	937.1502	950.9695	1031.8893	1055.1472	1075.061	1097.1658	1120.7051	1154.1623	1158.6648	1192.0789	1222.5468	1230.1893	1269.2928	1291.9254	1315.1291	1334.7745	1335.3525	1390.3257	1452.555	3118.9776	3120.6759	3167.4741	3178.0181	3186.922	3430.0584	3476.4829	3741.8661
OC1C2NC1C1NC21	O[C@H]1[C@H]2N[C@@H]1[C@H]1N[C@@H]21	
InChI=1S/C5H8N2O/c8-5-3-1-2(6-1)4(5)7-3/h1-8H	InChI=1S/C5H8N2O/c8-5-3-1-2(6-1)4(5)7-3/h1-8H/t1-,2+,3+,4-,5+
