16
gdb 32172	3.58323	1.14507	0.87248	1.4963	75.14	-0.2267	-0.017	0.2097	1258.3103	0.125807	-437.9532	-437.945189	-437.944245	-437.98622	29.981	
O	 0.0432313401	 1.3781611754	 0.0232487437	-0.417544
C	-0.0217824467	-0.0339459864	-0.0290240443	-0.149419
C	-1.4627338941	-0.4837596193	-0.0067234114	 0.300073
C	-2.521418557	 0.4116033231	 0.0566998033	-0.179895
C	-3.8183968459	-0.107922383	 0.0723513901	-0.065123
C	-4.0162959515	-1.4764901437	 0.0252431096	-0.216414
C	-2.874341956	-2.2837059762	-0.0370831719	 0.428218
O	-3.029558942	-3.6249714269	-0.084355044	-0.42101
N	-1.635571232	-1.8143892814	-0.0530729615	-0.418196
H	 0.9684755575	 1.63623639	 0.0079088611	 0.293287
H	 0.4494959436	-0.432049272	-0.9416411585	 0.1093
H	 0.4978886227	-0.4996120248	 0.8233596395	 0.109298
H	-2.3283374166	 1.4742702892	 0.0921810235	 0.11845
H	-4.6718810302	 0.5608719167	 0.1214434721	 0.106774
H	-5.0001550498	-1.9277552296	 0.034911302	 0.107787
H	-2.1354056521	-3.9918774513	-0.1229949035	 0.294415
53.9251	179.5997	209.3161	209.8899	242.1082	364.8511	445.4591	481.375	530.8719	553.0386	617.6729	624.3072	748.3751	765.3327	820.0035	899.1886	959.6346	1001.1382	1005.8919	1039.8579	1090.3085	1112.9891	1165.7692	1197.1111	1215.6517	1243.9829	1277.6098	1350.7211	1358.7691	1446.7256	1489.2349	1500.0939	1516.779	1630.2917	1652.2971	2973.1058	2997.0233	3181.3687	3216.4485	3239.3466	3767.8308	3847.7253
OCC1=CC=CC(O)=N1	OCc1cccc(O)n1	
InChI=1S/C6H7NO2/c8-4-5-2-1-3-6(9)7-5/h1-3,8H,4H2,(H,7,9)	InChI=1S/C6H7NO2/c8-4-5-2-1-3-6(9)7-5/h1-3,8H,4H2,(H,7,9)
