18
gdb 34872	2.23805	1.74533	1.20434	2.0581	82.33	-0.2291	0.0473	0.2763	1076.033	0.146982	-364.70912	-364.701045	-364.700101	-364.741571	31.935	
C	-0.1008946841	-1.240886691	-0.0877985747	-0.467367
C	-0.0537639382	-0.0419064388	-0.007958806	 0.362104
C	 0.0150539632	 1.4044693822	 0.0510388052	-0.295389
C	-0.2376087486	 2.1163635817	 1.4013989172	-0.049326
N	 0.8445410596	 1.719878171	 2.3268385287	-0.326357
C	 1.0805021799	 2.8024228287	 1.3343662601	-0.167397
C	 1.4150268778	 2.1055016397	 0.0336673723	 0.419843
C	 2.7233653917	 1.5436959755	-0.412094413	-0.318349
C	 2.0848264415	 2.6873394679	-1.1728180141	-0.346775
H	-0.145047675	-2.3006061945	-0.1360719166	 0.192339
H	-0.6234479724	 1.8463084612	-0.7220220974	 0.103968
H	-1.1951663378	 2.4642120363	 1.767413637	 0.099402
H	 0.6424601156	 2.1695070318	 3.2202785438	 0.228483
H	 1.3627972418	 3.8011552076	 1.6445515031	 0.096775
H	 3.6005975499	 1.7484470336	 0.1923993201	 0.115041
H	 2.709249373	 0.5581963044	-0.8659656693	 0.126023
H	 1.6543261641	 2.4802581156	-2.1478116322	 0.115222
H	 2.5282081182	 3.6745200971	-1.0843090942	 0.111761
100.1931	128.1283	183.2156	253.496	290.9322	358.0908	476.7846	491.6055	555.6054	616.888	630.4493	645.4324	749.0415	768.7864	824.777	835.5451	879.8159	898.3989	930.8013	962.1704	977.2417	983.0964	1034.9336	1053.7543	1063.935	1076.7088	1110.6201	1111.0598	1174.9542	1185.0953	1221.2491	1269.5755	1300.1253	1339.3576	1357.2105	1410.9761	1462.6874	1504.3848	2234.2924	3045.3789	3119.9514	3130.7787	3184.2795	3198.5558	3199.5229	3218.8128	3465.4816	3503.3059
C#CC1C2NC2C11CC1	C#C[C@H]1[C@H]2N[C@H]2C21CC2	
InChI=1S/C8H9N/c1-2-5-6-7(9-6)8(5)3-4-8/h1,5-7,9H,3-4H2	InChI=1S/C8H9N/c1-2-5-6-7(9-6)8(5)3-4-8/h1,5-7,9H,3-4H2/t5-,6+,7+/m0/s1
