25
gdb 100347	2.32279	1.0761	0.90783	2.6457	88.96	-0.2464	-0.0231	0.2234	1448.599	0.225728	-389.511729	-389.500291	-389.499346	-389.548441	41.809	
C	-0.1298245911	 1.5117345454	-0.2132982366	-0.407923
C	 0.0850229596	 0.0051217859	-0.0283659757	-0.178657
C	 0.7753131926	-0.4472973398	 1.2865941448	 0.248933
C	 2.2134156404	 0.1057551396	 1.3397853388	-0.424097
C	 0.0140934157	 0.0450712572	 2.5450958667	-0.186864
C	-1.425310248	-0.4543498627	 2.7169235564	-0.410967
C	 0.8175026302	-2.008160819	 1.2405261204	-0.293539
C	 1.3557887903	-2.658702156	 2.4928030492	 0.145362
O	 0.6794583509	-3.2613238186	 3.2900917946	-0.244751
H	 0.8091357755	 2.072291581	-0.1795081303	 0.118549
H	-0.5889571241	 1.7066200884	-1.1876039551	 0.115975
H	-0.7956259784	 1.9283478304	 0.5483651521	 0.122819
H	-0.8849195233	-0.4994251096	-0.1096619312	 0.098744
H	 0.6847285964	-0.3725258591	-0.8672214685	 0.090654
H	 2.2147786515	 1.1993602594	 1.3567078562	 0.119485
H	 2.7421834725	-0.2273093294	 2.2382447417	 0.114071
H	 2.7957282954	-0.2156685315	 0.4689308725	 0.108489
H	 0.5910112586	-0.2459813554	 3.4320578518	 0.10028
H	 0.0214192928	 1.1412932683	 2.5410957295	 0.094297
H	-2.0558592062	-0.2008160027	 1.8586075613	 0.113359
H	-1.4580058475	-1.5378166593	 2.8589089403	 0.140733
H	-1.8789231033	 0.0044924893	 3.6009923669	 0.114099
H	-0.1842745772	-2.4097845247	 1.0660304521	 0.118457
H	 1.4566221999	-2.3081210445	 0.3987817815	 0.105548
H	 2.4525855067	-2.5539386525	 2.6558392107	 0.076945
53.2004	77.0485	84.9465	135.039	183.8038	228.4477	237.3191	267.3715	290.2917	310.9141	322.4508	364.1515	373.5443	475.7803	486.3473	535.6974	686.7833	769.5027	791.1809	845.5038	880.149	907.628	975.8661	1007.1575	1016.09	1021.2634	1040.2843	1051.5691	1097.9735	1109.81	1185.3313	1199.0744	1225.0772	1258.9222	1294.8939	1328.4511	1332.5847	1370.2599	1382.9905	1409.0754	1414.3614	1415.7962	1433.0305	1465.7594	1482.958	1485.662	1495.887	1501.7184	1506.7613	1510.9676	1514.0736	1517.1608	1819.9602	2870.2907	3015.8412	3020.9588	3024.7325	3033.2994	3040.3259	3042.4856	3053.7432	3057.3817	3097.2209	3098.5873	3102.2498	3103.5946	3108.4785	3115.2819	3120.8462
CCC(C)(CC)CC=O	CCC(C)(CC)CC=O	
InChI=1S/C8H16O/c1-4-8(3,5-2)6-7-9/h7H,4-6H2,1-3H3	InChI=1S/C8H16O/c1-4-8(3,5-2)6-7-9/h7H,4-6H2,1-3H3
