19
gdb 57885	2.77499	1.21992	0.99832	2.9054	72.96	-0.256	-0.0293	0.2267	1239.4812	0.156203	-460.166815	-460.157086	-460.156141	-460.201483	36.359	
C	-0.1389539122	 1.5965504826	-0.049893445	-0.406116
C	 0.0060681432	 0.0653421043	 0.0235927727	 0.064043
O	 0.6808001468	-0.3217602877	 1.1919972328	-0.440131
C	-1.3668110334	-0.6101283779	-0.0125520539	 0.289505
O	-1.7793706695	-1.1658203576	 0.9901829155	-0.359981
C	-2.1785861949	-0.5647468237	-1.2660123126	 0.28459
O	-1.5942603675	 0.0351284525	-2.3872553793	-0.453854
C	-3.1837502574	-1.6862091787	-1.4783625944	-0.300106
C	-3.6667372565	-0.3220176085	-1.099475758	-0.269992
H	 0.8526379357	 2.0449656719	 0.0498095582	 0.130603
H	-0.5807584323	 1.9076957835	-0.9986493456	 0.137653
H	-0.7592921453	 1.9561001652	 0.7768734651	 0.122061
H	 0.5789066302	-0.2718230172	-0.8538569099	 0.075484
H	 0.0112521676	-0.7670846782	 1.7363343775	 0.289825
H	-1.0124655216	-0.6063452628	-2.8097796943	 0.291628
H	-3.3177016373	-2.0034970078	-2.506325643	 0.12325
H	-3.2050170425	-2.4643454249	-0.7248897176	 0.144367
H	-4.0226298284	-0.1683297563	-0.0880414692	 0.142021
H	-4.1169586647	 0.2936630811	-1.8689279292	 0.135152
47.7304	84.7476	185.449	213.3524	242.4016	276.3096	306.8606	329.2375	365.5729	402.0542	420.1397	446.0646	487.0031	567.2542	719.0597	773.3824	780.9259	843.5792	866.0231	921.1678	950.152	996.5627	1038.041	1051.2049	1081.779	1088.8285	1096.0336	1175.7814	1205.0737	1262.0613	1268.2863	1326.8463	1341.1497	1351.5524	1388.3882	1438.2879	1441.1413	1472.2789	1494.5829	1499.507	1763.3513	2987.1715	3046.7667	3121.5848	3142.5423	3143.0138	3149.2418	3238.0295	3252.5597	3676.4094	3798.4754
CC(O)C(=O)C1(O)CC1	C[C@@H](O)C(=O)C1(O)CC1	
InChI=1S/C6H10O3/c1-4(7)5(8)6(9)2-3-6/h4,7,9H,2-3H2,1H3	InChI=1S/C6H10O3/c1-4(7)5(8)6(9)2-3-6/h4,7,9H,2-3H2,1H3/t4-/m1/s1
