13
gdb 132654	3.13842	1.33868	0.93908	2.6657	65.26	-0.2194	-0.022	0.1974	1111.2876	0.089391	-502.050954	-502.043745	-502.0428	-502.082549	27.798	
N	-0.0275264841	 1.381799135	-0.157654933	-0.565775
C	 0.0209473719	 0.0034332545	-0.0650064651	 0.403416
N	-1.1557302414	-0.63130985	-0.0386539258	-0.333716
C	-1.1528520134	-1.9665220318	-0.0102203511	-0.105627
C	 0.0016216033	-2.7256022188	 0.003775965	 0.093053
F	-0.0360911642	-4.0595069559	 0.0399196463	-0.065632
C	 1.2254842331	-2.0556160212	-0.0158962426	 0.215311
F	 2.3538938807	-2.7547080444	-0.0003761669	-0.054378
C	 1.2522229933	-0.6780009535	-0.0537396923	-0.337861
H	 0.7561826851	 1.8926767878	 0.2171367568	 0.252949
H	-0.9276691149	 1.7685428374	 0.0848506245	 0.258501
H	-2.1161653854	-2.4694459893	 0.0082084117	 0.127393
H	 2.2016625358	-0.1570720099	-0.0817676175	 0.112367
145.1174	226.0706	274.5023	330.686	367.1842	386.6229	447.1175	466.8152	528.1848	557.5586	592.0246	676.6981	749.9397	779.6886	797.961	857.7248	946.3007	977.4701	1085.5457	1208.0264	1241.0297	1304.2106	1325.7557	1373.5513	1471.2859	1550.0466	1625.5894	1634.4413	1670.8847	3166.4163	3202.4916	3578.7566	3692.3218
NC1=NC=C(F)C(F)=C1	Nc1ncc(F)c(F)c1	
InChI=1S/C5H4F2N2/c6-3-1-5(8)9-2-4(3)7/h1-2H,(H2,8,9)	InChI=1S/C5H4F2N2/c6-3-1-5(8)9-2-4(3)7/h1-2H,(H2,8,9)
