18
gdb 90628	3.31322	1.186	1.09564	5.4365	77.06	-0.2727	0.0315	0.3041	1155.1164	0.147265	-401.931491	-401.922817	-401.921873	-401.964457	32.95	
C	-0.0365177477	 1.5552321198	-0.0605744169	-0.469931
C	 0.074983544	 0.038830083	 0.0447654511	 0.153206
C	-1.1017256451	-0.6422661158	-0.4555647286	 0.234912
N	-2.05031961	-1.1644098488	-0.8630487645	-0.346326
C	 1.3414660719	-0.7662395376	-0.1979064012	-0.077489
C	 2.5729743387	-0.0014477645	 0.2931922274	-0.31343
C	 1.9627200593	-0.0408185333	 1.7423644645	 0.094309
O	 1.7341052083	 1.1565167327	 2.4483997618	-0.423337
C	 0.7147324766	-0.7264939226	 1.1985095938	-0.091732
H	 0.8021289577	 2.0497754896	 0.4253865914	 0.146431
H	-0.0843682171	 1.8615166838	-1.1102087121	 0.127655
H	-0.9498981113	 1.8965386448	 0.434588585	 0.139104
H	 1.3471766659	-1.5864259586	-0.9038135466	 0.113804
H	 3.4975055067	-0.5766013839	 0.2111686107	 0.112476
H	 2.7328476765	 0.9898852723	-0.1377496946	 0.111308
H	 2.5252414477	-0.7547913158	 2.3577719443	 0.088937
H	 2.5664585743	 1.4456230157	 2.8359058332	 0.289297
H	 0.1497687236	-1.4884012008	 1.7207122614	 0.110809
129.0209	137.2973	160.7259	202.6788	260.9018	286.8925	315.3825	390.8403	427.0313	551.0255	559.4123	562.8935	653.3997	698.0678	815.5425	844.9246	885.1107	943.7464	988.1666	1003.8347	1015.8548	1027.8923	1065.0415	1098.7774	1113.7218	1156.2497	1190.4938	1227.7743	1248.3583	1267.9333	1281.4677	1320.7634	1384.2394	1420.0884	1429.6279	1480.518	1489.4687	1505.7946	2349.0961	3015.6131	3050.4013	3067.0354	3112.9456	3120.1361	3172.0237	3191.6192	3204.1635	3818.0151
CC1(C#N)C2CC(O)C12	C[C@@]1(C#N)[C@H]2C[C@@H](O)[C@@H]12	
InChI=1S/C7H9NO/c1-7(3-8)4-2-5(9)6(4)7/h4-6,9H,2H2,1H3	InChI=1S/C7H9NO/c1-7(3-8)4-2-5(9)6(4)7/h4-6,9H,2H2,1H3/t4-,5+,6-,7+/m0/s1
