23
gdb 95999	2.86102	1.24486	1.04582	1.665	84.29	-0.2628	0.0764	0.3392	1257.1485	0.207173	-388.286251	-388.277216	-388.276272	-388.320164	34.513	
C	 0.6560962737	 1.5094579119	-0.3654101896	-0.386003
C	 0.044823483	 0.1564725984	 0.0272393488	-0.001108
C	 0.2469030053	-0.9126227277	-1.0645911554	-0.209673
C	 1.6832378878	-1.4415384888	-0.8407176461	-0.212312
C	 1.9902161682	-1.2027141372	 0.6648806733	-0.22921
C	 0.7317600463	-0.5148825201	 1.249257509	 0.011635
C	 0.9719205395	 0.4042567582	 2.4257367062	 0.05758
C	 2.0529443708	 0.217276795	 3.4023619544	-0.187826
O	 2.1331818113	 1.2432690618	 2.4100001584	-0.230394
H	 1.7259026383	 1.4282035999	-0.5804758721	 0.123319
H	 0.1632547259	 1.9003196438	-1.2618683553	 0.105136
H	 0.5447897885	 2.2508910712	 0.4304896746	 0.124131
H	-1.0220056602	 0.3078461589	 0.2311060572	 0.060091
H	-0.4766240307	-1.7234927405	-0.9187439106	 0.09015
H	 0.0910315958	-0.5211998978	-2.0745880715	 0.089791
H	 1.7721086656	-2.4955175309	-1.1175522999	 0.094465
H	 2.3965752313	-0.8964705871	-1.4657958686	 0.103226
H	 2.2140274779	-2.1351913639	 1.1903130463	 0.09296
H	 2.8568315937	-0.5476714145	 0.7871509121	 0.120226
H	 0.0428634044	-1.2935047105	 1.6075877365	 0.07279
H	 0.077112212	 0.9200903764	 2.7819475246	 0.086068
H	 1.9253196227	 0.5676304286	 4.4257840997	 0.111427
H	 2.7565370189	-0.6041367252	 3.2787487682	 0.11353
76.9733	99.3086	150.6114	186.1197	219.4203	239.82	329.5231	342.7381	430.1688	590.7835	627.0795	643.4454	764.9084	794.0105	829.5487	847.6359	896.0559	900.4435	927.8121	968.1533	977.9669	1006.163	1039.2065	1046.4138	1067.8916	1091.4325	1112.9332	1153.4183	1162.3621	1175.9633	1207.037	1218.3636	1250.5312	1285.4623	1296.4702	1306.7102	1309.4913	1331.5435	1344.26	1381.1057	1384.7331	1418.6409	1432.5977	1487.1245	1491.1337	1500.5683	1505.5243	1517.3507	1531.2682	2996.5853	3023.7907	3036.7965	3040.2075	3050.9857	3060.8886	3077.2524	3079.5009	3086.7862	3088.7434	3103.4628	3108.1665	3115.3671	3171.5087
CC1CCCC1C1CO1	C[C@H]1CCC[C@H]1[C@H]1CO1	
InChI=1S/C8H14O/c1-6-3-2-4-7(6)8-5-9-8/h6-8H,2-5H2,1H3	InChI=1S/C8H14O/c1-6-3-2-4-7(6)8-5-9-8/h6-8H,2-5H2,1H3/t6-,7+,8+/m0/s1
