19
gdb 85528	2.46163	1.65641	1.11727	4.0115	75.84	-0.2304	0.0591	0.2895	1109.9453	0.162031	-419.250636	-419.242559	-419.241615	-419.283096	31.823	
C	-0.384017614	 1.5273499312	 0.0549702158	-0.395795
C	 0.0674694691	 0.0658364528	 0.0119326394	 0.034817
N	 0.8352539947	-0.1720392284	-1.2065111983	-0.354015
C	 1.6622532019	-1.2554724751	-1.4309767566	 0.416787
O	 2.0258905232	-1.5816365428	-2.5472778854	-0.413453
N	 2.0688626938	-1.9243614193	-0.2918516171	-0.344051
C	 1.9395777036	-1.379326557	 1.0298704658	 0.00775
C	 2.3595504465	 0.0461654164	 1.3341744943	-0.314881
C	 0.8950749047	-0.3257717056	 1.2238870915	-0.022346
H	 0.480728335	 2.1966551537	 0.0753621658	 0.129732
H	-0.9932170185	 1.7751331969	-0.8212681965	 0.115268
H	-0.9913714622	 1.7128890965	 0.9458565581	 0.120324
H	-0.8332215139	-0.5714827517	 0.0237828912	 0.082793
H	 0.4498070347	 0.1885093452	-2.0666126102	 0.245863
H	 2.859259822	-2.5251694698	-0.4728550693	 0.249213
H	 2.0680165251	-2.1293117512	 1.8029601404	 0.103088
H	 2.7561445658	 0.272099231	 2.3179084388	 0.113766
H	 2.7993630099	 0.6131542678	 0.5211622304	 0.132389
H	 0.3222837886	-0.3596816809	 2.1452870518	 0.092754
107.9907	124.9902	216.7712	248.4868	296.1437	387.9061	437.4777	488.1604	505.8333	557.9177	574.7862	630.3173	720.9673	747.0316	768.598	835.5861	863.6486	929.2924	953.6914	996.6403	1036.3079	1049.7896	1068.8481	1090.5744	1108.8829	1135.5247	1161.153	1214.0105	1238.1201	1320.2706	1358.6851	1362.2702	1408.5767	1409.6422	1429.669	1452.8594	1462.8344	1491.7948	1496.7948	1501.9943	1804.7137	2947.0202	3035.1297	3103.4501	3121.2108	3135.0719	3154.487	3165.0387	3226.5531	3617.6861	3621.9907
CC1NC(=O)NC2CC12	C[C@H]1NC(=O)N[C@H]2C[C@@H]12	
InChI=1S/C6H10N2O/c1-3-4-2-5(4)8-6(9)7-3/h3-5H,2H2,1H3,(H2,7,8,9)	InChI=1S/C6H10N2O/c1-3-4-2-5(4)8-6(9)7-3/h3-5H,2H2,1H3,(H2,7,8,9)/t3-,4+,5+/m1/s1
