20
gdb 91209	2.0314	1.61847	1.55664	2.5684	79.63	-0.2565	0.0297	0.2862	1057.3142	0.170439	-403.146609	-403.137758	-403.136814	-403.179908	33.663	
C	-0.528871162	 1.3924271413	 0.0935354218	-0.408222
C	 0.0578408275	-0.005680687	-0.0313498211	-0.023778
C	 1.3713754231	-0.1999203396	-0.8589921574	-0.261801
C	 2.0427916349	-0.843606154	 0.3662464796	 0.062563
O	 2.7290605664	 0.1533902785	 1.1901381674	-0.277462
C	 1.6139880717	 0.3155951799	 1.9924504925	 0.40317
N	 1.442914407	 1.025669034	 3.0128698968	-0.558413
C	 0.7519196781	-0.6622216926	 1.2224238631	 0.187828
C	 0.0084149107	-1.7218391712	 2.0017719051	-0.496378
H	 0.2152931713	 2.1094581759	 0.4527279388	 0.131074
H	-0.896047301	 1.7425014438	-0.877408259	 0.113836
H	-1.3683985478	 1.4094057362	 0.7962523837	 0.124702
H	-0.7134140611	-0.695603595	-0.388987367	 0.078867
H	 1.2625918657	-0.8718997371	-1.7135456267	 0.107348
H	 1.8678554207	 0.7157977822	-1.1889950682	 0.115695
H	 2.6299341469	-1.7577648267	 0.2788723784	 0.090687
H	 2.2862272955	 1.554063233	 3.2445448517	 0.225195
H	-0.8086310271	-1.266131528	 2.5710051608	 0.141953
H	-0.4215803931	-2.4753635684	 1.33378765	 0.115005
H	 0.6641879225	-2.2284861651	 2.7166950697	 0.128131
81.3087	138.4085	183.3684	201.9856	219.9488	246.9729	343.4692	366.8822	412.6211	496.7638	609.9179	656.9141	701.9973	753.1619	827.8829	865.5164	868.5039	879.458	904.6995	937.6382	978.1258	1012.1085	1037.3379	1093.5959	1114.0992	1149.6362	1166.5818	1175.2957	1219.2709	1231.5969	1241.455	1271.9561	1319.2135	1347.0712	1382.9924	1411.3293	1416.2792	1467.0085	1488.911	1491.3374	1491.5993	1493.1511	1813.2255	3032.3839	3032.9909	3046.2469	3065.7844	3098.1888	3102.6139	3105.3559	3110.8267	3114.1931	3124.0008	3470.8926
CC1CC2OC(=N)C12C	C[C@H]1C[C@H]2O[C]([NH])[C@@]12C	
InChI=1S/C7H11NO/c1-4-3-5-7(4,2)6(8)9-5/h4-5,8H,3H2,1-2H3	InChI=1S/C7H11NO/c1-4-3-5-7(4,2)6(8)9-5/h4-5,8H,3H2,1-2H3/t4-,5+,7-/m0/s1
