23
gdb 40796	3.57574	1.02973	0.85783	0.2235	90.97	-0.2343	0.0335	0.2678	1417.7903	0.207933	-351.164548	-351.155983	-351.155039	-351.197896	33.885	
C	-0.1853286885	 1.4130281487	-0.1863173515	-0.279104
C	 1.2497925467	 1.0261636196	 0.080977881	-0.277579
C	 0.1781677095	-0.033975232	 0.0298408214	 0.03013
C	-0.2514988999	-0.7618249297	 1.2873649135	 0.016108
C	-1.6855625091	-1.3061870397	 1.1814076003	-0.199302
C	-2.1507424237	-1.9319833017	 2.5045801372	-0.264355
C	-1.0906251958	-2.8088634656	 3.1192423148	-0.0389
C	 0.1817961018	-2.8066864909	 2.723690683	-0.062747
C	 0.7164153076	-1.9066518028	 1.6398207773	-0.244355
H	-0.7258422884	 1.9225415143	 0.6051664621	 0.107756
H	-0.4538682183	 1.7384582701	-1.1853233026	 0.108259
H	 1.9614697016	 1.0878726933	-0.7349169371	 0.108195
H	 1.6662208809	 1.2762665966	 1.0517305673	 0.108249
H	 0.1758889377	-0.6583648008	-0.8620070318	 0.075748
H	-0.2295937755	-0.0403374647	 2.1182349416	 0.063934
H	-2.3700514198	-0.5074209747	 0.8756756929	 0.09204
H	-1.7167922102	-2.0673763736	 0.3898720642	 0.093286
H	-2.4319766248	-1.1420799082	 3.2178023037	 0.103857
H	-3.0672324962	-2.5145471563	 2.3443971783	 0.099064
H	-1.4036064344	-3.4702263686	 3.9241720316	 0.079334
H	 0.8936204987	-3.4806399813	 3.1956095036	 0.079145
H	 0.9282655249	-2.5013820763	 0.7371919984	 0.100264
H	 1.6861828451	-1.4914272258	 1.9427264707	 0.100972
81.2005	106.1326	160.1278	188.1871	281.8667	367.9637	406.6654	429.3541	462.9884	511.4544	668.3298	728.5071	779.2153	817.7253	826.1216	859.3519	895.5882	914.5217	925.1114	959.938	974.6589	988.5436	1005.7852	1051.8542	1055.0929	1074.7072	1084.5448	1104.1078	1138.8282	1158.4343	1160.6514	1197.6414	1211.4635	1225.4134	1249.0761	1275.6379	1299.8289	1324.3617	1365.6705	1369.6733	1382.461	1415.7407	1425.1154	1468.1307	1473.3302	1478.2252	1495.0909	1505.0515	1726.2967	2981.4359	2991.1103	2992.4727	3015.7097	3036.1044	3037.1302	3067.54	3119.2022	3125.4316	3130.8019	3136.4963	3160.8701	3203.3048	3218.5059
C1CC1C1CCC=CC1	C1CC1[C@H]1CCC=CC1	
InChI=1S/C9H14/c1-2-4-8(5-3-1)9-6-7-9/h1-2,8-9H,3-7H2	InChI=1S/C9H14/c1-2-4-8(5-3-1)9-6-7-9/h1-2,8-9H,3-7H2/t8-/m1/s1
