22
gdb 115850	2.66409	1.2395	1.08123	1.0691	81.73	-0.2155	0.0755	0.291	1232.6723	0.194991	-404.320443	-404.311223	-404.310279	-404.354337	34.851	
C	-0.1399589002	 1.4762906503	-0.0385709336	-0.316779
N	 0.0510002973	 0.0385179345	 0.0213988513	-0.084955
C	 1.2629222171	-0.642950706	-0.3945121446	-0.03343
C	 2.5898943002	 0.1076234573	-0.448024166	-0.240158
C	 2.8041237186	 0.7213976769	 0.9595738825	-0.235017
C	 1.8588238513	-0.0470104762	 1.9190021527	 0.03244
C	 1.311398633	 0.7912573396	 3.0681468106	-0.095592
O	 2.416757212	 1.2065864773	 3.8607823937	-0.424043
C	 0.7988538084	-0.6958372126	 1.0316272898	-0.069112
H	 0.7493092216	 2.0952178869	 0.1394101215	 0.103982
H	-0.5260683281	 1.7291621673	-1.0323126632	 0.120403
H	-0.903721576	 1.7621080506	 0.6922672808	 0.120805
H	 1.1173271774	-1.467046031	-1.0903891434	 0.082036
H	 3.3805103329	-0.6131593695	-0.6855270611	 0.102694
H	 2.6133011189	 0.8660987325	-1.2389366634	 0.100002
H	 3.844285753	 0.6463610393	 1.283723048	 0.109334
H	 2.5640287279	 1.7886222548	 0.967281117	 0.107082
H	 2.4170086504	-0.8737195938	 2.3803324692	 0.082765
H	 0.7591625141	 1.6592668802	 2.6761093318	 0.08535
H	 0.6019539748	 0.1903242987	 3.6600364158	 0.084214
H	 2.0860877311	 1.7637903566	 4.5711673738	 0.285988
H	 0.2717822742	-1.5557671437	 1.4419558367	 0.081991
91.8675	125.048	144.9711	179.4733	194.2349	266.2635	270.8587	348.7553	416.4689	443.8683	505.0605	688.2875	705.8391	734.8782	792.9816	823.2546	850.6894	921.3635	960.7975	975.6017	1032.9298	1034.9854	1063.2946	1084.3535	1102.9294	1118.9496	1142.3608	1159.173	1174.7777	1198.9565	1233.9923	1247.3911	1260.3826	1302.1162	1313.6654	1323.6888	1333.1606	1343.3783	1374.71	1412.6016	1458.5003	1460.693	1482.0436	1487.104	1500.7049	1510.14	1524.7616	2967.1506	2994.6219	3006.1407	3016.1689	3034.323	3055.623	3065.1889	3068.6815	3090.9375	3104.5424	3111.4105	3123.0716	3830.9888
CN1C2CCC(CO)C12	CN1[C@H]2CC[C@@H](CO)[C@@H]12	
InChI=1S/C7H13NO/c1-8-6-3-2-5(4-9)7(6)8/h5-7,9H,2-4H2,1H3	InChI=1S/C7H13NO/c1-8-6-3-2-5(4-9)7(6)8/h5-7,9H,2-4H2,1H3/t5-,6-,7+,8?/m0/s1
