18
gdb 53098	2.23799	1.13357	0.93693	1.6345	88.11	-0.2192	0.0216	0.2408	1360.0201	0.143985	-364.721208	-364.710885	-364.709941	-364.757721	36.18	
C	 0.1029461427	 1.5477414035	-0.3266286456	-0.500468
C	 0.050131435	 0.0982664298	-0.2124703395	 0.068895
C	 0.0083922866	-1.1012705908	-0.1051264211	 0.125914
C	-0.0165843379	-2.5344071365	-0.0302298333	-0.227574
C	-0.4445992382	-3.2457298499	 1.2425130893	-0.219495
C	-0.8389701079	-2.5005896708	 2.4039641086	 0.37612
C	-1.1735154241	-1.9211520028	 3.4035656841	-0.468458
N	-1.2680998564	-3.301436702	 0.0274885745	-0.109538
C	-2.5333898694	-2.5751517379	 0.0085442468	-0.312657
H	 1.138437088	 1.9003282035	-0.3875023209	 0.152161
H	-0.4198101689	 1.8979949586	-1.2236068936	 0.149946
H	-0.3614518873	 2.0303123207	 0.5402624497	 0.15246
H	 0.756066064	-3.0313493566	-0.6145521677	 0.114524
H	 0.0549864492	-4.1869668193	 1.4647666963	 0.117618
H	-1.4611542252	-1.3998785869	 4.2828025559	 0.198744
H	-2.511253485	-1.6147521047	 0.5372044442	 0.128955
H	-2.8073735214	-2.3951659087	-1.0348945705	 0.125986
H	-3.2994803339	-3.209617899	 0.4631762726	 0.126868
27.1258	67.7662	96.2725	144.6667	172.6284	185.4506	257.6125	304.8954	345.3434	381.5071	437.1449	539.8336	586.1151	608.1559	622.3336	660.1348	695.412	800.1212	837.3589	934.7946	1037.3904	1051.5356	1051.9427	1062.1644	1125.0741	1163.1243	1174.0036	1202.5382	1320.6849	1359.756	1371.6385	1413.6888	1451.5439	1476.0465	1477.4497	1488.7447	1494.2122	2232.6624	2365.2999	3023.7629	3027.515	3088.0371	3090.6287	3095.2178	3111.9908	3116.3807	3120.4672	3503.8983
CC#CC1C(C#C)N1C	CC#C[C@H]1[C@@H](C#C)N1C	
InChI=1S/C8H9N/c1-4-6-8-7(5-2)9(8)3/h2,7-8H,1,3H3	InChI=1S/C8H9N/c1-4-6-8-7(5-2)9(8)3/h2,7-8H,1,3H3/t7-,8+,9?/m1/s1
