18
gdb 31819	4.53845	0.98058	0.8577	2.9877	83.3	-0.2244	-0.0198	0.2046	1363.6997	0.148875	-402.017821	-402.00946	-402.008515	-402.05131	31.61	
C	 0.0966468185	 1.5185166251	 0.1853008136	-0.366606
C	-0.0590222989	 0.0058818166	-0.0368411532	-0.265053
C	 0.7018011563	-0.4813389699	-1.247760044	 0.308374
N	 0.2557460158	-0.0668234193	-2.4442698661	-0.302724
C	 0.8962718013	-0.4521142203	-3.5415920769	-0.062054
C	 2.0255130188	-1.2775774939	-3.5223471163	 0.334674
O	 2.5953033019	-1.607065038	-4.7141188206	-0.438236
C	 2.494458173	-1.7123065247	-2.2872273501	-0.221889
C	 1.8214400833	-1.3066163785	-1.1395409731	-0.152182
H	 1.1411093374	 1.7830207669	 0.3813992156	 0.111233
H	-0.2285405791	 2.0641629129	-0.7044696665	 0.137364
H	-0.504014065	 1.8534585638	 1.0366231277	 0.108349
H	 0.2759950877	-0.5408498373	 0.8514181804	 0.092901
H	-1.1209097035	-0.2271101033	-0.1765778897	 0.114768
H	 0.5130318846	-0.1049940318	-4.4982464059	 0.112967
H	 3.3562051092	-2.1758884683	-4.5568889955	 0.298369
H	 3.3675500554	-2.3570223065	-2.222420287	 0.092699
H	 2.1656387133	-1.6326797237	-0.1637060124	 0.097046
43.1627	103.9869	215.6591	236.7323	328.6465	351.0919	398.4666	422.5011	435.1798	498.4944	562.8858	650.5006	734.2737	780.9794	798.4761	849.9284	859.1159	946.1603	955.2438	981.9579	1033.5624	1069.1455	1085.8812	1153.6366	1188.1149	1246.1191	1270.4198	1303.442	1322.1509	1331.1687	1363.3996	1401.5276	1461.6035	1480.0574	1495.7032	1507.9035	1523.6107	1620.9367	1644.4386	3034.9292	3036.5818	3073.6136	3104.6813	3123.3133	3155.0273	3158.3888	3186.2311	3819.698
CCC1=NC=C(O)C=C1	CCc1ncc(O)cc1	
InChI=1S/C7H9NO/c1-2-6-3-4-7(9)5-8-6/h3-5,9H,2H2,1H3	InChI=1S/C7H9NO/c1-2-6-3-4-7(9)5-8-6/h3-5,9H,2H2,1H3
