17
gdb 44066	3.37291	1.5092	1.41034	3.5409	72.92	-0.2341	-0.0187	0.2154	965.4046	0.136449	-421.730295	-421.723537	-421.722593	-421.761218	28.111	
O	 0.034098402	-0.0115533112	 0.2619572872	-0.32592
C	 0.0297437173	 1.1803008518	 0.1339790526	 0.471617
C	-1.1370736007	 2.1784729821	 0.062533194	-0.385045
C	-0.2829781341	 3.4426540952	-0.1756856779	 0.400126
C	-0.8810980882	 4.4992793231	-1.1398708781	-0.331849
C	-0.2770971342	 3.5405511695	-2.2835371837	-0.299431
C	 0.7617476177	 3.1194045532	-1.1783538683	-0.000948
C	 1.1980971271	 2.1507683339	-0.0117274968	-0.133807
O	 0.7354004909	 3.235953099	 0.91691004	-0.368438
H	-1.8538047252	 1.9214524923	-0.7217896925	 0.125286
H	-1.6707055908	 2.2464640668	 1.0141124942	 0.140409
H	-1.9608045622	 4.6664577895	-1.1212240192	 0.113813
H	-0.3511218666	 5.4532792184	-1.1247892546	 0.130417
H	-0.9888082425	 2.7726833388	-2.5868267438	 0.129827
H	 0.1320351825	 4.0293030442	-3.1685664026	 0.120186
H	 1.5077707473	 3.9180332967	-1.1438695725	 0.109942
H	 2.2179052495	 1.8153624866	 0.1656932422	 0.103815
115.1282	281.6286	317.5326	354.3546	464.1781	485.6277	536.067	575.8685	633.2956	652.6411	733.2263	747.7797	801.3132	829.972	841.5082	864.4857	910.7053	945.3413	1013.9112	1023.4682	1074.5268	1081.0893	1111.7036	1156.8542	1160.6584	1171.3179	1203.0432	1216.6914	1223.9551	1235.5359	1263.0406	1314.0803	1394.1556	1445.9143	1479.527	1493.6966	1882.381	3064.7984	3068.4586	3070.8192	3089.4443	3117.7538	3135.7469	3154.8011	3155.9818
O=C1CC23CCC2C1O3	O=C1C[C@]23CC[C@@H]2[C@H]1O3	
InChI=1S/C7H8O2/c8-5-3-7-2-1-4(7)6(5)9-7/h4,6H,1-3H2	InChI=1S/C7H8O2/c8-5-3-7-2-1-4(7)6(5)9-7/h4,6H,1-3H2/t4-,6-,7-/m1/s1
