23
gdb 101330	2.62698	0.98993	0.82034	1.9327	83.1	-0.2387	0.0688	0.3075	1520.0237	0.203453	-425.40209	-425.391411	-425.390467	-425.437828	39.143	
C	 0.0872453587	 1.5518008393	-0.2172614998	-0.381035
C	 0.000876589	 0.0245708718	-0.2600453806	-0.178044
C	 0.9446582607	-0.6053178841	-1.2936305134	 0.114404
O	 2.3056969377	-0.2299413255	-1.0427250426	-0.428815
C	 0.7922523756	-2.1097655269	-1.3660639582	-0.065296
C	-0.3061513128	-2.7188945925	-2.2208046736	-0.33493
C	 1.1214982904	-2.8666995097	-2.6363037552	 0.118055
O	 1.5055412175	-2.1777364823	-3.78046129	-0.239332
C	 2.9092116475	-1.9700477194	-3.8539093675	-0.249306
H	 1.1138256045	 1.8742755602	-0.025351554	 0.12631
H	-0.2236075206	 1.9889216513	-1.172688307	 0.114266
H	-0.557978635	 1.9643399828	 0.564259689	 0.107043
H	 0.2385588466	-0.3929024186	 0.7299752635	 0.080138
H	-1.0241538657	-0.2936706985	-0.4844702588	 0.101496
H	 0.7308528906	-0.1856465665	-2.2826502941	 0.097236
H	 2.5639083327	-0.6214467076	-0.200542449	 0.273208
H	 1.0128263154	-2.6249977328	-0.4314473998	 0.071324
H	-0.8451421017	-3.5861002816	-1.8567126618	 0.111787
H	-0.9011484282	-2.0314603966	-2.8134666755	 0.124399
H	 1.5923416473	-3.8454707493	-2.5248363604	 0.07924
H	 3.2661796412	-1.375809153	-3.0050003876	 0.137146
H	 3.4500908455	-2.9286064073	-3.8791320429	 0.09888
H	 3.1012265832	-1.4351257632	-4.7869836006	 0.121828
68.8575	99.3891	115.2364	159.913	185.4607	213.9166	231.9194	256.8609	299.3854	303.3823	377.8954	423.5622	475.4192	518.0151	627.5299	774.3265	784.0107	826.9931	848.4639	911.3986	975.8422	988.6234	1036.1975	1048.9981	1066.4539	1090.2373	1100.5773	1119.3014	1130.0429	1161.7769	1162.7495	1195.084	1221.445	1257.8983	1261.6398	1281.992	1327.8347	1374.4072	1393.1207	1404.5451	1413.9177	1432.116	1475.3629	1481.2069	1488.5148	1494.8479	1498.8184	1509.5529	1518.1717	2986.6007	2998.8042	3037.0949	3053.537	3065.5954	3068.6548	3077.9719	3100.753	3108.66	3122.3859	3122.7887	3133.6009	3220.8579	3795.1889
CCC(O)C1CC1OC	CC[C@@H](O)[C@H]1C[C@H]1OC	
InChI=1S/C7H14O2/c1-3-6(8)5-4-7(5)9-2/h5-8H,3-4H2,1-2H3	InChI=1S/C7H14O2/c1-3-6(8)5-4-7(5)9-2/h5-8H,3-4H2,1-2H3/t5-,6-,7-/m1/s1
