18
gdb 24157	3.75038	1.07749	1.04313	0.9267	77.29	-0.2248	0.0108	0.2356	1208.0339	0.149079	-401.934744	-401.926898	-401.925954	-401.967964	29.602	
C	-0.2666992471	 1.6834231847	-0.655129697	-0.262327
N	-0.8383602257	 0.363885595	-0.3335347168	-0.070915
C	 0.0300732742	-0.7997903174	-0.213194211	-0.222397
C	-0.6221475456	-0.2055511479	 0.9880816755	-0.219481
C	 1.1164720917	 2.008062085	-0.1580118997	 0.21021
C	 1.4479609933	 2.6760244227	 0.982918729	-0.088564
O	 2.7953397962	 2.7898146234	 1.1122910152	-0.139569
C	 3.3458158916	 2.17991605	 0.0292560083	 0.002476
C	 2.3757332153	 1.6854219106	-0.7802590699	-0.276401
H	-0.2847398555	 1.7696690992	-1.74747751	 0.112938
H	-0.9738467434	 2.4254881884	-0.2685635466	 0.112288
H	-0.3524316471	-1.7141359139	-0.6590839855	 0.111851
H	 1.1059077708	-0.6639191214	-0.2962379363	 0.116349
H	 0.0303607912	 0.322451431	 1.681090685	 0.110301
H	-1.4903023203	-0.6763717598	 1.4416422976	 0.112025
H	 0.8619791071	 3.1321244623	 1.7645864765	 0.138206
H	 4.4222958172	 2.1903736466	-0.0157311924	 0.138152
H	 2.5208990961	 1.1648129416	-1.7145894419	 0.114859
55.5451	103.6569	116.5952	291.9074	298.3837	363.3572	446.7359	624.2593	625.231	732.3264	740.4899	759.9154	806.5708	828.7676	845.9374	876.6296	891.987	960.7073	993.9941	1025.5586	1050.9632	1057.4226	1102.0717	1116.1237	1123.8173	1170.5573	1182.6883	1202.308	1251.9597	1272.3535	1304.7473	1314.5303	1373.4386	1411.6736	1481.1386	1486.1302	1515.2676	1533.1288	1619.6227	3034.9765	3074.9695	3096.1678	3102.8879	3176.4407	3191.1291	3248.8736	3269.5745	3284.7228
C(N1CC1)C1=COC=C1	C(N1CC1)c1cocc1	
InChI=1S/C7H9NO/c1-4-9-6-7(1)5-8-2-3-8/h1,4,6H,2-3,5H2	InChI=1S/C7H9NO/c1-4-9-6-7(1)5-8-2-3-8/h1,4,6H,2-3,5H2
