16
gdb 51356	6.90326	0.88624	0.8676	2.7107	71.58	-0.2497	0.0024	0.2521	1309.8403	0.124115	-437.796334	-437.789023	-437.788079	-437.829293	27.022	
O	-0.1427137376	-0.0471939084	-0.0924138719	-0.27243
C	-0.0997009067	 1.1449191041	-0.0811111922	 0.169254
O	 1.037931641	 1.8293847127	 0.1565579928	-0.210718
C	 0.9911805657	 3.2463314201	 0.1493021032	 0.161255
C	 1.7690154554	 3.9486886331	 1.2593395376	-0.06005
C	 3.1594067659	 3.6902944476	 0.5984677401	-0.057188
C	 3.4383009675	 5.1872997264	 0.6587667976	-0.185545
N	 1.9402242914	 5.1987581577	 0.3490836002	-0.170657
C	 2.1449929012	 3.9519999089	-0.5587633311	-0.060047
H	-0.9686407204	 1.807006651	-0.2601318896	 0.083839
H	-0.0165848829	 3.6215129524	-0.0584155523	 0.105908
H	 1.5347538328	 4.0583176709	 2.3186661893	 0.094244
H	 3.8191872018	 2.8302669677	 0.7333444948	 0.089758
H	 3.6827746954	 5.6316952307	 1.6286920373	 0.109063
H	 4.0470251464	 5.6348038342	-0.1332023633	 0.10907
H	 2.3500033833	 4.0655006909	-1.6237348927	 0.094242
36.6909	122.1423	147.3588	320.2676	334.1702	419.8485	477.8549	708.3197	713.864	803.5955	825.9683	845.5334	876.0174	919.9405	933.9755	964.7128	1029.6889	1038.8351	1043.588	1071.4433	1095.5971	1102.5522	1141.2352	1157.6157	1167.5371	1195.1362	1203.227	1232.0755	1258.9202	1277.8795	1321.3046	1383.9942	1440.2417	1521.911	1869.4658	2954.7481	3042.5846	3058.7047	3083.2994	3102.7277	3114.9315	3120.7992
O=COC1C2C3CN2C13	O=CO[C@H]1[C@H]2[C@@H]3CN2[C@H]13	
InChI=1S/C6H7NO2/c8-2-9-6-4-3-1-7(4)5(3)6/h2-6H,1H2	InChI=1S/C6H7NO2/c8-2-9-6-4-3-1-7(4)5(3)6/h2-6H,1H2/t3-,4+,5-,6-
