16
gdb 12318	3.13632	2.17727	1.35221	4.4519	67.82	-0.2619	-0.0391	0.2228	899.7058	0.13139	-383.795426	-383.788066	-383.787122	-383.827011	27.336	
C	 0.0171503662	 1.497259646	-0.1080739305	-0.473475
C	-0.0331260642	-0.0021929259	-0.0463864973	 0.15604
C	-1.1507427676	-0.7169119122	 0.1321336564	-0.147186
C	-1.120017195	-2.2167538223	 0.1865811956	-0.274137
C	 0.0929557136	-2.7135726242	-0.5857653195	-0.077933
O	 1.2974143961	-2.0495802873	-0.1804863927	-0.231667
C	 1.2901205071	-0.6940165759	-0.0828922123	 0.384476
O	 2.3365263754	-0.1068815304	 0.0258032246	-0.332364
H	 0.6615459849	 1.8939503957	 0.6818582727	 0.150105
H	 0.4494112578	 1.8356746185	-1.0557614928	 0.139779
H	-0.9825188652	 1.9270575938	-0.0066857154	 0.114924
H	-2.1052133669	-0.2114580079	 0.2596509573	 0.103143
H	-1.085646455	-2.5614511305	 1.2298754513	 0.130909
H	-2.0289775228	-2.6442551245	-0.2513949997	 0.11884
H	 0.2801228866	-3.7771409629	-0.4237089699	 0.12404
H	-0.0564524107	-2.5483013002	-1.6610085777	 0.114505
105.4408	155.6218	203.195	300.2182	302.0962	356.764	443.1355	505.3173	559.5735	650.1884	725.6443	774.742	876.5258	899.8703	942.7443	970.1339	1067.2414	1073.5311	1082.0817	1096.8955	1146.9418	1207.6815	1237.3279	1300.1647	1368.1572	1373.5755	1416.4021	1427.9051	1467.0519	1470.2049	1487.1293	1507.5114	1717.6691	1817.299	3011.5179	3023.8674	3041.817	3067.9883	3100.8284	3108.9322	3126.0837	3156.578
CC1=CCCOC1=O	CC1=CCCOC1=O	
InChI=1S/C6H8O2/c1-5-3-2-4-8-6(5)7/h3H,2,4H2,1H3	InChI=1S/C6H8O2/c1-5-3-2-4-8-6(5)7/h3H,2,4H2,1H3
