21
gdb 39622	4.28134	0.94776	0.80928	1.6336	87.61	-0.2237	0.0166	0.2403	1449.5108	0.183354	-387.083794	-387.075129	-387.074185	-387.118241	32.167	
C	 0.118801673	 1.4070020521	-0.4568600256	-0.20601
C	 1.457033304	 1.587651809	 0.3261709991	-0.322008
C	 1.2834096611	 0.1728905796	 0.861028103	 0.263301
C	-0.1256720298	 0.0628052605	 0.2989171187	-0.320676
C	 2.0906145516	-0.6684831377	 1.4897131223	 0.133873
C	 1.7964911897	-2.0971474878	 1.8960969852	-0.326954
C	 3.2132547933	-2.6521550343	 2.1103002831	-0.077357
O	 3.9732784093	-1.5505548964	 2.5895251816	-0.252337
C	 3.5262769873	-0.3890231561	 1.9001691143	-0.156667
H	-0.6330343682	 2.1851483547	-0.3115296418	 0.100125
H	 0.271489834	 1.2681248523	-1.5293182827	 0.106156
H	 2.3540610125	 1.7791905791	-0.2724580065	 0.105851
H	 1.4045219254	 2.3606871502	 1.1021497531	 0.109184
H	-0.9098487172	 0.131965119	 1.0620525381	 0.108691
H	-0.3402929675	-0.8161221103	-0.3184741792	 0.104832
H	 1.2326409093	-2.129452028	 2.8370833695	 0.116148
H	 1.2232135107	-2.6492852419	 1.1456738843	 0.107636
H	 3.2746023363	-3.449570508	 2.8552175393	 0.106861
H	 3.6270616093	-3.0301853271	 1.1605125582	 0.08772
H	 4.1572476401	-0.1909030568	 1.0162151169	 0.097265
H	 3.6300409557	 0.4657503281	 2.578337009	 0.114364
40.3688	80.3786	130.7987	161.5717	238.1712	273.1372	385.5642	471.2541	475.166	652.8876	716.1037	751.0201	762.5635	852.4704	880.0399	924.9611	932.7559	942.9214	963.7396	987.6841	1012.3496	1038.3004	1077.2234	1083.467	1095.7586	1117.0726	1192.7017	1204.475	1212.3443	1219.6917	1230.332	1240.6879	1255.6742	1275.6601	1277.2371	1299.5138	1348.2741	1395.4774	1461.239	1471.9308	1474.6653	1496.6149	1502.131	1520.8698	1799.0058	2948.2115	2965.8658	3024.7705	3026.4765	3030.6015	3047.6795	3064.4415	3069.995	3073.2499	3085.4687	3095.5808	3124.359
C1CC(C1)=C1CCOC1	C1CC(=C2CCOC2)C1	
InChI=1S/C8H12O/c1-2-7(3-1)8-4-5-9-6-8/h1-6H2	InChI=1S/C8H12O/c1-2-7(3-1)8-4-5-9-6-8/h1-6H2
