17
gdb 90627	3.47265	1.18666	1.1026	5.003	73.37	-0.2616	0.017	0.2785	1132.4036	0.135377	-417.964537	-417.955983	-417.955038	-417.997392	32.185	
C	-0.0722406094	 1.5680907627	 0.0962925986	-0.493801
C	 0.0386039869	 0.0592575339	-0.0679586454	 0.152634
C	-1.0600579073	-0.6486054649	 0.5711371267	 0.267178
N	-1.9627650467	-1.1745736726	 1.0653479145	-0.339535
C	 0.5899484654	-0.6584691562	-1.2557119703	-0.106355
C	 1.7818880349	 0.0577602152	-1.9030070866	 0.085431
O	 1.6148517044	 1.3057782706	-2.5314014317	-0.417427
C	 2.4107229346	 0.1096470728	-0.4939619676	-0.196681
N	 1.2966636298	-0.7240372006	 0.0897098472	-0.156637
H	 0.5972753469	 2.1033277928	-0.5729377181	 0.163431
H	-1.0949642942	 1.8771150766	-0.1366733747	 0.143942
H	 0.1330952658	 1.848989253	 1.1340880009	 0.140645
H	 0.0804279009	-1.5240056976	-1.6682652357	 0.113257
H	 2.3239614986	-0.6420838333	-2.5513206614	 0.097304
H	 1.2021278218	 1.1703109178	-3.3907824278	 0.291308
H	 3.3522384259	-0.4328718628	-0.4035887619	 0.128323
H	 2.5216882419	 1.1021445227	-0.0535620765	 0.126982
128.3565	144.3461	167.3522	208.7518	258.6871	278.9329	326.2698	397.4413	436.8736	547.8096	555.2269	574.2968	654.8902	715.3534	816.6189	845.6782	913.0018	960.0678	986.0476	1005.2002	1011.1704	1071.8069	1104.7772	1133.2433	1167.9789	1224.4245	1237.3026	1285.0836	1292.5912	1317.0293	1385.2011	1417.672	1426.6644	1487.0287	1494.4301	1514.3775	2359.5729	3024.0631	3052.492	3084.5897	3114.9233	3140.9311	3161.2483	3179.1766	3814.4533
CC1(C#N)C2C(O)CN12	C[C@@]1(C#N)[C@H]2[C@@H](O)CN12	
InChI=1S/C6H8N2O/c1-6(3-7)5-4(9)2-8(5)6/h4-5,9H,2H2,1H3	InChI=1S/C6H8N2O/c1-6(3-7)5-4(9)2-8(5)6/h4-5,9H,2H2,1H3/t4-,5+,6+,8?/m0/s1
