18
gdb 62525	2.59885	1.2965	1.09334	2.1156	76.86	-0.2573	-0.0381	0.2192	1161.1376	0.145359	-401.982036	-401.97262	-401.971675	-402.016263	34.291	
C	-0.3188145645	 1.4607773687	-0.1407504313	-0.446006
C	 0.0240439988	-0.0151165223	 0.0424436493	 0.168531
C	-1.2098520151	-0.8494604053	 0.4062824081	-0.438714
C	 0.9311979249	-0.652910659	-1.0965724205	-0.20286
C	 1.9597780801	-1.1432206059	-0.022234413	-0.369543
C	 1.1961620396	-0.2987452106	 1.0081768353	 0.391119
O	 1.4344566862	 0.0622396604	 2.1222769528	-0.293439
C	 0.3342819166	-1.6637185307	-1.9491306721	 0.281935
N	-0.1525317996	-2.4714132364	-2.6186134673	-0.332719
H	 0.5646893149	 2.0530323365	-0.3991287921	 0.122074
H	-1.0625051964	 1.5900659908	-0.9339952835	 0.131033
H	-0.7330565666	 1.8669919523	 0.7866695071	 0.142946
H	-1.9623922194	-0.7853060377	-0.3855312946	 0.140758
H	-0.9673358007	-1.9065552769	 0.5491192013	 0.132935
H	-1.6467890025	-0.4727120654	 1.3353440334	 0.137111
H	 1.3616824127	 0.1299216004	-1.7261818036	 0.130009
H	 1.8926580542	-2.2147105224	 0.1860635638	 0.157286
H	 3.0068850266	-0.8818749263	-0.1861245332	 0.147544
56.635	134.2316	161.0646	199.5938	210.8144	222.3978	272.5419	335.0094	341.8256	466.0215	488.8211	520.795	602.7789	644.6045	711.5374	751.2253	863.9546	941.6734	963.6616	972.5952	1001.7338	1049.149	1066.6209	1112.3403	1160.4895	1185.9936	1222.915	1237.6946	1272.6309	1345.6931	1399.1567	1419.5907	1440.7616	1478.5724	1481.8692	1499.5668	1502.4733	1897.5701	2353.3863	3034.2359	3040.4659	3073.5738	3080.9332	3104.6325	3112.5751	3114.4038	3120.6724	3133.8061
CC1(C)C(CC1=O)C#N	CC1(C)[C@@H](CC1=O)C#N	
InChI=1S/C7H9NO/c1-7(2)5(4-8)3-6(7)9/h5H,3H2,1-2H3	InChI=1S/C7H9NO/c1-7(2)5(4-8)3-6(7)9/h5H,3H2,1-2H3/t5-/m0/s1
