16
gdb 110786	2.77689	1.5517	1.32075	4.1165	65.78	-0.2443	0.0501	0.2944	1009.4153	0.124115	-474.995357	-474.987536	-474.986592	-475.028181	28.827	
C	-0.0515740696	 1.2043443097	-0.3312095019	-0.239655
O	-0.2854738168	 0.1581616565	 0.6047394651	-0.230265
C	-1.4088163455	-0.5849820217	 0.3227381928	 0.045559
C	-1.3836932226	-1.6284508497	-0.7867611515	-0.009041
O	-0.108045695	-1.962038522	-1.2749544789	-0.228109
C	 0.6396392966	-2.5035864711	-0.2721088887	 0.507293
N	 1.8382427786	-2.8337504084	-0.4332469189	-0.572
O	-0.1101403562	-2.6215108285	 0.8698029661	-0.244107
C	-1.3801959585	-2.057498887	 0.6558605697	-0.007784
H	 0.8585124589	 1.7129629559	-0.0086953264	 0.14028
H	 0.0918669723	 0.8055968285	-1.3421811384	 0.135793
H	-0.8828650255	 1.9233975942	-0.3392198708	 0.110375
H	-2.372147517	-0.0899389384	 0.4677456392	 0.10238
H	-2.1768424542	-1.7729574418	-1.5088954133	 0.125482
H	 2.2185714339	-3.215060873	 0.4289694697	 0.235938
H	-2.1742305394	-2.5643514333	 1.188290376	 0.127861
79.001	119.7775	166.547	185.5046	264.0965	326.5917	467.8545	609.0895	648.0878	708.5804	722.9005	780.8738	785.459	796.6965	814.2992	893.8563	969.8013	1000.2909	1024.283	1082.4921	1098.5596	1102.6471	1139.7522	1153.0355	1181.2294	1209.3121	1226.8672	1259.7769	1344.9809	1370.2993	1424.1862	1486.5013	1488.7911	1502.5849	1808.7662	3001.5039	3071.3268	3077.6726	3137.1068	3197.1201	3205.6027	3546.5789
COC1C2OC(=N)OC12	CO[C@H]1[C@H]2O[C]([NH])O[C@@H]12	
InChI=1S/C5H7NO3/c1-7-2-3-4(2)9-5(6)8-3/h2-4,6H,1H3	InChI=1S/C5H7NO3/c1-7-2-3-4(2)9-5(6)8-3/h2-4,6H,1H3/t2-,3+,4-
