14
gdb 30992	3.2772	1.23899	0.92242	4.6828	60.97	-0.2115	0.0214	0.2329	1175.5485	0.100994	-510.998714	-510.990526	-510.989582	-511.031774	29.824	
N	-0.0312341784	 1.3000131267	-0.3040713851	-0.596345
C	-0.1161481425	-0.0626645242	-0.1320234358	 0.260288
C	-1.1323464572	-0.9105478766	 0.0664013131	 0.200624
C	-2.6095008324	-0.7215088331	 0.078452018	-0.189938
O	-2.9815115812	 0.3756195234	-0.7542025333	-0.407615
O	-0.5837778703	-2.179543244	 0.3115020059	-0.248335
C	 0.7642425909	-2.0705084069	 0.2242103961	 0.489746
O	 1.5588664703	-2.9449042349	 0.3524653085	-0.371943
O	 1.0722123246	-0.7546534609	-0.0495628715	-0.224169
H	 0.6744992502	 1.5807617529	-0.9740962502	 0.263537
H	-0.9393197804	 1.6967417078	-0.5147143709	 0.267699
H	-3.1008598592	-1.6581093593	-0.22157262	 0.127086
H	-2.9886167758	-0.4661113317	 1.0753108771	 0.138867
H	-2.7913195186	 0.1199433408	-1.6638386821	 0.290497
75.1922	150.9011	183.7704	225.2612	292.2484	326.6948	357.7787	380.467	429.1457	588.8577	630.9791	656.5044	727.7784	751.7541	778.2935	826.1864	954.2442	973.8326	1008.6779	1054.638	1132.2536	1180.4128	1236.5279	1308.482	1374.3397	1402.6598	1434.7724	1506.3385	1629.5419	1794.8195	1941.8248	3007.2213	3050.6771	3526.7738	3628.8773	3802.6962
NC1=C(CO)OC(=O)O1	Nc1c(CO)oc(=O)o1	
InChI=1S/C4H5NO4/c5-3-2(1-6)8-4(7)9-3/h6H,1,5H2	InChI=1S/C4H5NO4/c5-3-2(1-6)8-4(7)9-3/h6H,1,5H2
