23
gdb 101566	2.57565	0.90995	0.79528	2.1564	83.02	-0.2365	-0.0041	0.2324	1604.2183	0.20175	-425.448615	-425.437055	-425.436111	-425.486824	40.055	
C	-0.2629544354	 1.5322047304	 0.4246442456	-0.377753
C	-0.5082308008	 0.0317213347	 0.5471075361	-0.283331
C	-1.4470491471	-0.5273834403	-0.5050838163	 0.397693
O	-1.9564334033	 0.1621827141	-1.3600271365	-0.32381
C	-1.7601713619	-2.0219679372	-0.4244008075	-0.304201
C	-3.2237628607	-2.2300354794	-0.01878508	 0.152709
C	-3.6246446313	-3.7057916711	-0.0242119206	-0.407169
O	-3.3523908887	-1.6461351738	 1.2759151752	-0.254204
C	-4.6731963603	-1.3261967483	 1.6517689073	-0.2394
H	 0.4108689105	 1.8820077324	 1.2118608471	 0.106975
H	 0.179324404	 1.7786400208	-0.5443065409	 0.12768
H	-1.2021414172	 2.0860964842	 0.5009451802	 0.130235
H	 0.4319241449	-0.5360961459	 0.4931745722	 0.115425
H	-0.9458680811	-0.2337192603	 1.5194281492	 0.138208
H	-1.5973597099	-2.459615354	-1.4144046623	 0.120787
H	-1.1096197812	-2.5300209841	 0.2946629196	 0.103003
H	-3.8516360764	-1.6709028069	-0.7298764763	 0.088966
H	-3.0007502295	-4.2738168679	 0.6731910261	 0.122743
H	-4.6706088494	-3.8368533528	 0.267456565	 0.11875
H	-3.5052639392	-4.1320063601	-1.0251839513	 0.119071
H	-4.6167308514	-0.8096863315	 2.6132547979	 0.127153
H	-5.152050421	-0.6597186245	 0.9185622447	 0.113192
H	-5.3056453037	-2.2172206586	 1.7746090154	 0.107278
32.1938	57.0341	73.225	94.1432	139.9708	195.0938	203.9475	233.4458	248.7656	289.3862	304.7136	398.3343	443.2174	471.1766	540.7576	646.0846	754.8712	815.6855	830.0098	894.7437	930.699	999.4237	1011.4622	1044.7302	1107.2213	1114.3257	1117.4484	1147.6585	1162.8734	1183.5814	1206.0838	1258.2182	1278.4704	1307.9371	1366.1882	1378.3106	1387.5986	1405.372	1412.9703	1450.1038	1463.9589	1479.1536	1482.6488	1492.9964	1493.2588	1497.8631	1502.1314	1511.9408	1805.5558	2982.3428	2990.8709	3013.7403	3032.1691	3039.5882	3046.1684	3049.9006	3050.267	3102.0324	3111.0686	3112.693	3114.8453	3120.2159	3125.2371
CCC(=O)CC(C)OC	CCC(=O)C[C@@H](C)OC	
InChI=1S/C7H14O2/c1-4-7(8)5-6(2)9-3/h6H,4-5H2,1-3H3	InChI=1S/C7H14O2/c1-4-7(8)5-6(2)9-3/h6H,4-5H2,1-3H3/t6-/m1/s1
