15
gdb 21075	3.45609	2.05021	1.30383	1.7996	64.51	-0.1942	0.0339	0.2281	894.7797	0.119687	-395.987428	-395.979111	-395.978167	-396.02014	29.304	
C	-0.0458632358	 1.4157084321	-0.0390646933	-0.328727
N	 0.0023548857	-0.0267863304	 0.0168942324	 0.017855
N	-0.0867300047	-0.7590026349	-1.1101524768	-0.279437
C	-0.0328361089	-2.0293250963	-0.7023930612	-0.110711
C	 0.0736224597	-2.1107733215	 0.6971934733	 0.158075
O	 0.1378022656	-3.1896452459	 1.5389480115	-0.460574
C	 0.0880166183	-0.7988298334	 1.1384831041	 0.28155
N	 0.2439615205	-0.2479972968	 2.4213312834	-0.617272
H	 0.5461546375	 1.8215956553	 0.7841042256	 0.151505
H	 0.3719521234	 1.7317298599	-0.9953168931	 0.153497
H	-1.0728719785	 1.7921589855	 0.040342756	 0.129908
H	-0.072750838	-2.8316091637	-1.4257124131	 0.100194
H	 0.396659253	-3.9628067527	 1.0296583329	 0.299098
H	 0.60608478	-0.9555463318	 3.0513501358	 0.256847
H	-0.6316363678	 0.0891020445	 2.8117787824	 0.248191
95.732	125.0093	146.3417	206.1776	253.0464	277.7835	290.5027	347.4402	531.6075	594.7601	643.9434	684.6492	752.4217	788.9174	828.2218	839.3633	1013.5072	1073.0914	1146.4307	1154.2159	1225.9882	1244.7472	1299.6621	1360.9167	1404.9095	1434.2172	1454.5639	1490.9799	1507.5442	1559.5034	1645.158	1675.8811	3029.5457	3109.1724	3157.9222	3230.2228	3489.105	3579.6306	3843.6171
CN1N=CC(O)=C1N	Cn1ncc(O)c1N	
InChI=1S/C4H7N3O/c1-7-4(5)3(8)2-6-7/h2,8H,5H2,1H3	InChI=1S/C4H7N3O/c1-7-4(5)3(8)2-6-7/h2,8H,5H2,1H3
