13
gdb 130714	3.72698	1.21486	0.91621	3.1659	78.35	-0.2451	-0.0816	0.1635	1164.9891	0.090421	-415.614847	-415.607566	-415.606621	-415.646727	27.538	
O	-0.09954874	-0.0665773386	 0.0050214418	-0.389051
C	-0.0041217902	 1.14685915	 0.0094362544	 0.457449
N	-1.1526274854	 1.9551160283	 0.0294620326	-0.263321
N	-1.233643442	 3.2885411549	 0.0368193119	-0.17801
C	-0.1109241157	 3.9421422407	 0.0239244733	-0.06606
C	 1.177228701	 3.2937979883	 0.0025921397	 0.169757
C	 1.2198679231	 1.9286197348	-0.004361337	-0.344733
C	 2.3530814408	 4.0945066274	-0.0104185254	 0.228314
C	 3.3324702416	 4.7939463944	-0.0211734369	-0.380832
H	-2.0400767434	 1.4686862483	 0.0397531665	 0.278593
H	-0.1823078702	 5.0227086534	 0.0299704762	 0.138118
H	 2.1540634246	 1.3817574551	-0.0202072006	 0.139065
H	 4.2035424458	 5.402591843	-0.0309575166	 0.210712
131.4837	141.3251	170.5199	341.4522	422.625	450.9182	463.029	550.5517	565.1103	634.7317	656.6927	673.319	720.5325	740.1686	749.4851	900.1468	926.9049	931.0896	1027.8658	1135.3377	1192.9613	1243.1039	1329.6208	1416.5524	1429.3865	1561.2557	1639.9827	1789.0985	2230.7522	3213.5203	3223.0176	3496.986	3590.5309
O=C1NN=CC(=C1)C#C	O=c1[nH]ncc(c1)C#C	
InChI=1S/C6H4N2O/c1-2-5-3-6(9)8-7-4-5/h1,3-4H,(H,8,9)	InChI=1S/C6H4N2O/c1-2-5-3-6(9)8-7-4-5/h1,3-4H,(H,8,9)
