12
gdb 21561	7.26556	1.30128	1.10564	7.5481	64.18	-0.2338	-0.0218	0.212	976.8262	0.086597	-373.733948	-373.727036	-373.726092	-373.765018	25.214	
N	 0.112279214	 1.3992569025	 0.1373354541	-0.609002
C	-0.0431879615	 0.0212060728	 0.0377631166	 0.413902
C	-1.1602466099	-0.7903317933	 0.0183486862	-0.372354
C	-0.6338831137	-2.1067802822	-0.0051458475	 0.261444
N	 0.7001151395	-2.1231820059	-0.0064040907	-0.284328
N	 1.0294114331	-0.8164582429	 0.0275064081	-0.236955
C	-1.3789217066	-3.3193939484	-0.0385257709	 0.242418
N	-2.0226568198	-4.2804880141	-0.0659274686	-0.341628
H	 0.7840194312	 1.7882572034	-0.5131535723	 0.258308
H	-0.7665907746	 1.8912504285	 0.0545013664	 0.265376
H	-2.1945211106	-0.4911922363	 0.0082787476	 0.121529
H	 2.0021308189	-0.5632792841	 0.085014941	 0.28129
141.4225	159.0639	177.7856	311.6468	377.0875	492.3179	532.9729	549.9749	584.5349	660.5362	715.4636	729.1898	753.6963	793.3069	1003.247	1047.336	1103.1425	1177.5031	1192.4098	1335.6918	1432.8291	1466.9771	1502.3126	1624.2512	1663.9415	2357.1379	3280.8464	3541.6462	3639.2408	3664.3564
NC1=CC(=NN1)C#N	Nc1cc(n[nH]1)C#N	
InChI=1S/C4H4N4/c5-2-3-1-4(6)8-7-3/h1H,(H3,6,7,8)	InChI=1S/C4H4N4/c5-2-3-1-4(6)8-7-3/h1H,(H3,6,7,8)
