19
gdb 110503	2.66666	1.55381	1.25541	1.8241	73.79	-0.2339	0.0595	0.2934	1060.9205	0.1581	-422.957429	-422.948919	-422.947975	-422.990715	32.558	
C	-0.0001359247	 1.5358948829	-0.005879776	-0.50428
C	 0.129337907	 0.045493575	 0.0354388169	 0.39836
O	-1.1524758295	-0.666478884	 0.0910810476	-0.329639
C	-0.4504377291	-1.7061905233	 0.7706124894	 0.096367
C	 0.9150650143	-1.8927224466	 0.0825325808	-0.153339
C	 0.7002230005	-0.8667777276	 1.191539172	-0.203706
C	 0.9532775128	-0.8047395763	-0.9918717085	-0.028908
C	 0.3643199589	-1.0767187473	-2.367739178	-0.106541
O	 0.3879006312	 0.0779307709	-3.2033606111	-0.423688
H	 0.9873075569	 2.0046280683	-0.0473154122	 0.130833
H	-0.5607688883	 1.8492761438	-0.8930539431	 0.119995
H	-0.5305562434	 1.904530938	 0.8768072578	 0.131985
H	-1.0117268976	-2.4862153752	 1.2670639617	 0.108816
H	 1.4722839263	-2.819642237	 0.1321876135	 0.090473
H	 1.1981024126	-0.6773877032	 2.1320709492	 0.099343
H	 1.9614287243	-0.3868447732	-1.0811884717	 0.079651
H	 0.9663595446	-1.8367140961	-2.8797880519	 0.101824
H	-0.6524065012	-1.4738823614	-2.2595321837	 0.105603
H	-0.3699559458	 0.6210179423	-2.9697163328	 0.286851
56.162	135.1191	170.9441	240.8374	253.0992	295.9137	306.8893	399.0749	551.0252	586.3608	650.146	763.523	766.9164	782.2134	807.1806	817.087	852.9114	930.4287	975.3685	990.7438	998.3811	1026.9019	1039.8051	1057.2747	1069.6904	1105.5805	1123.4146	1138.472	1178.52	1188.7448	1230.7866	1278.9047	1318.5412	1364.61	1370.3035	1399.7776	1412.6953	1421.818	1473.3922	1487.2061	1497.4001	3025.3977	3038.1464	3058.3373	3075.6884	3105.5414	3120.26	3196.0343	3205.4714	3221.1872	3837.6439
CC12OC3C(C13)C2CO	C[C@]12O[C@H]3[C@H]([C@@H]13)[C@H]2CO	
InChI=1S/C7H10O2/c1-7-3(2-8)4-5(7)6(4)9-7/h3-6,8H,2H2,1H3	InChI=1S/C7H10O2/c1-7-3(2-8)4-5(7)6(4)9-7/h3-6,8H,2H2,1H3/t3-,4+,5-,6+,7-/m1/s1
