18
gdb 37187	3.45894	1.74595	1.60303	3.0142	74.21	-0.2267	0.0694	0.2961	890.4962	0.150974	-401.8295	-401.82345	-401.822506	-401.859462	26.645	
C	 0.0869343883	 1.5361887505	 0.1664853157	-0.200255
O	 1.5189776302	 1.4304128646	-0.1166785805	-0.318122
C	 1.2855887913	 0.2149415583	-0.8997600186	 0.138483
C	 1.5558271152	-1.2211071092	-0.4098399628	-0.120066
C	 0.787949163	-0.8355812539	 0.8859324895	-0.243944
C	-0.0467033891	 0.0468129622	-0.1417555601	 0.278048
C	-0.8037392296	-1.0326031213	-0.8990249274	-0.18012
N	-0.284817593	-1.2405924875	-2.2741537096	-0.337132
C	 0.3630573062	-1.9420737911	-1.1383154481	-0.023183
H	-0.1045433477	 1.8704001648	 1.1911793301	 0.106348
H	-0.4055480924	 2.2066871509	-0.5496488187	 0.107886
H	 1.3476145946	 0.4307052658	-1.9635709438	 0.104466
H	 2.5190975308	-1.7340380104	-0.4205558668	 0.063141
H	 0.245042862	-1.6338881174	 1.3977827781	 0.085597
H	 1.3703383258	-0.2410295867	 1.5882117171	 0.117965
H	-1.7845551966	-1.4001719327	-0.6201130447	 0.093422
H	-0.8895814068	-1.9040858926	-2.7545386361	 0.231175
H	 0.2836004978	-3.0207833441	-1.0615314233	 0.096293
272.3834	310.0582	394.988	418.0117	448.4801	545.5406	593.8193	707.8944	727.2208	785.2542	829.4264	860.9748	862.3347	886.4842	894.2539	916.8634	928.8609	946.9381	1000.2589	1029.8982	1045.9572	1065.6272	1075.8169	1093.3793	1123.8093	1151.3554	1159.5216	1188.6639	1196.0785	1228.5147	1248.0258	1249.3402	1273.6024	1323.7519	1335.7045	1360.6539	1390.8885	1489.7158	1512.1294	3016.074	3070.0121	3080.9106	3095.7059	3140.9478	3152.9709	3170.0975	3179.5185	3491.3576
C1OC2C3CC12C1NC31	C1O[C@H]2[C@H]3C[C@@]12[C@H]1N[C@@H]31	
InChI=1S/C7H9NO/c1-3-4-5(8-4)7(1)2-9-6(3)7/h3-6,8H,1-2H2	InChI=1S/C7H9NO/c1-3-4-5(8-4)7(1)2-9-6(3)7/h3-6,8H,1-2H2/t3-,4-,5-,6-,7-/m0/s1
