21
gdb 74033	2.16004	1.85492	1.09657	1.4196	86.49	-0.2238	0.0223	0.2461	1155.3191	0.183804	-387.08741	-387.07909	-387.078146	-387.120042	32.605	
C	 0.0884995817	 1.4711381621	-0.154517851	-0.489712
C	-0.0375664635	 0.0142832174	 0.1813047939	 0.112889
C	-1.1721838648	-0.6787701742	 0.1883946178	 0.223662
C	-2.5570387968	-0.5891750678	-0.4256341908	-0.320406
C	-2.3611876707	-2.0937843794	-0.8248194249	-0.256701
C	-1.2555435171	-2.1767178281	 0.2842323692	 0.096423
O	-0.0653907144	-2.9166789111	 0.1390967847	-0.271655
C	 1.0580912017	-2.1677772857	-0.3090033684	-0.069837
C	 1.2114453053	-0.8181151976	 0.4169006442	-0.304655
H	 0.7416966627	 1.6254328333	-1.0237167676	 0.120254
H	-0.8836255086	 1.922464902	-0.3708179882	 0.121266
H	 0.5402090959	 2.0299222667	 0.6756068241	 0.126294
H	-3.359671746	-0.4649024986	 0.3092284785	 0.108695
H	-2.7070411438	 0.1322903112	-1.2320751665	 0.108806
H	-3.2175972034	-2.7653794658	-0.7315122705	 0.098008
H	-1.9256938882	-2.1829583476	-1.8226102358	 0.110668
H	-1.7180277669	-2.5144011885	 1.221815287	 0.085611
H	 1.9230589247	-2.8136303022	-0.1300885727	 0.102814
H	 0.9952128652	-1.9795041194	-1.3925277327	 0.086278
H	 2.0962228621	-0.3037294691	 0.022961801	 0.098339
H	 1.3967226149	-0.9940400176	 1.4844537687	 0.112958
122.7842	147.1437	182.009	206.8849	243.8821	353.3836	375.9113	445.703	474.8322	525.7685	630.0666	679.9635	713.9517	785.8546	854.2842	871.7026	906.7844	930.9528	980.5431	1012.6424	1017.8181	1025.2041	1078.4385	1096.7587	1109.0381	1124.467	1165.5459	1185.048	1218.5102	1224.329	1243.6337	1261.8901	1272.2808	1304.0296	1346.9769	1376.0265	1408.7989	1414.6605	1469.7719	1476.7805	1481.1238	1487.4555	1492.0259	1505.3613	1784.0045	2976.6564	3006.0237	3010.4607	3021.3725	3045.6984	3055.4653	3063.5798	3066.532	3078.8366	3100.6686	3109.5806	3130.6391
CC1=C2CCC2OCC1	C[C]1[C]2CC[C@H]2OCC1	
InChI=1S/C8H12O/c1-6-4-5-9-8-3-2-7(6)8/h8H,2-5H2,1H3	InChI=1S/C8H12O/c1-6-4-5-9-8-3-2-7(6)8/h8H,2-5H2,1H3/t8-/m1/s1
