17
gdb 38042	3.64364	1.54622	1.24066	1.9668	72.42	-0.2429	-0.011	0.2319	992.0387	0.138342	-421.802766	-421.796054	-421.79511	-421.833936	26.732	
C	 0.0092548782	 1.562111216	 0.005484312	-0.099012
O	 1.4191678962	 1.8183347928	-0.0772677055	-0.272054
C	 2.1434926901	 0.7596536447	 0.5682989325	-0.160683
C	 1.121364498	-0.3161412886	 0.7850584992	 0.281671
C	 0.8740042721	-1.2558659187	 1.6989423186	-0.253906
C	-0.5798053839	-1.6132937818	 1.6513641243	 0.013944
O	-1.417767203	-0.4815923769	 2.005820046	-0.254782
C	-1.2094684658	-0.7563880197	 0.6229873856	-0.002692
C	-0.0970118367	 0.0335078052	-0.0496458912	-0.101544
H	-0.4107300334	 1.9368641778	 0.9495533108	 0.111519
H	-0.4602039159	 2.0839795435	-0.8316556401	 0.110432
H	 2.9650415887	 0.4573645801	-0.0943239657	 0.116138
H	 2.5821696546	 1.1095879959	 1.5129778581	 0.114665
H	 1.5524934631	-1.6139958813	 2.4634199461	 0.106051
H	-0.969545011	-2.5785129436	 1.9593447341	 0.100812
H	-2.0932141996	-1.0556964061	 0.0665316865	 0.097357
H	 0.0192400984	-0.3025917393	-1.0886550015	 0.092083
121.674	181.2263	226.6171	355.4885	460.6207	482.1176	598.4252	639.9925	712.4801	747.8867	816.5632	837.648	857.6967	868.1853	916.2897	935.9769	976.2741	1014.1033	1037.4446	1049.355	1072.5906	1096.9638	1117.1327	1158.36	1203.8094	1220.4709	1245.0958	1273.3634	1279.7165	1310.8277	1332.7255	1353.2983	1379.9957	1410.3608	1506.3685	1518.1659	1714.4253	3002.4576	3009.0448	3023.2252	3032.9357	3101.1642	3150.4291	3167.4592	3208.4847
C1OCC2=CC3OC3C12	C1OC[C]2[CH][C@H]3O[C@H]3[C@@H]12	
InChI=1S/C7H8O2/c1-4-2-8-3-5(4)7-6(1)9-7/h1,5-7H,2-3H2	InChI=1S/C7H8O2/c1-4-2-8-3-5(4)7-6(1)9-7/h1,5-7H,2-3H2/t5-,6+,7-/m0/s1
