15
gdb 20236	4.32085	2.72059	2.37263	1.6357	61.9	-0.2359	0.0795	0.3154	635.141	0.122172	-362.593858	-362.588798	-362.587854	-362.622718	21.368	
C	-0.0289654795	 1.5771682148	 0.0269569683	-0.084381
O	 1.3386499097	 2.0270376553	 0.0122984679	-0.278017
C	 2.1325196195	 0.8682856022	-0.1187144071	 0.124887
C	 1.9250688266	 0.0568216536	-1.4049241613	-0.086629
C	 1.6594212756	-1.1947050754	-0.6546787769	-0.063497
C	 1.4418961364	-0.3188356446	 0.6170341301	-0.129639
C	 0.0641263956	 0.0553680879	 0.032206699	-0.002248
N	 0.5215607635	-0.4890077545	-1.3077468138	-0.153709
H	-0.5267509383	 1.9790574251	 0.9181024667	 0.10411
H	-0.5575756951	 1.934649795	-0.8658325492	 0.114206
H	 3.1667419312	 1.0959402716	 0.1376911848	 0.089697
H	 2.3198749769	 0.2139341978	-2.4000501142	 0.100185
H	 1.9201344593	-2.2274560201	-0.8347984331	 0.103789
H	 1.6328465296	-0.5472271168	 1.6622534826	 0.077491
H	-0.819016041	-0.4797636017	 0.3804519162	 0.083755
238.0128	390.1174	496.7946	664.957	683.2074	755.5571	768.2663	828.5987	842.0729	878.3929	895.4327	919.8858	941.3418	950.8	973.3204	996.4665	1014.44	1036.503	1075.6672	1096.2434	1144.3387	1150.7715	1191.3783	1202.0675	1221.3569	1239.118	1272.1075	1307.538	1320.3499	1329.9215	1388.3464	1509.0519	3017.357	3057.555	3120.5465	3129.1798	3152.4813	3201.7818	3225.9272
C1OC2C3C4C2C1N34	C1O[C@@H]2[C@H]3[C@H]4[C@@H]2[C@@H]1N34	
InChI=1S/C6H7NO/c1-2-3-4-5(7(2)4)6(3)8-1/h2-6H,1H2	InChI=1S/C6H7NO/c1-2-3-4-5(7(2)4)6(3)8-1/h2-6H,1H2/t2-,3+,4-,5-,6+,7?/m1/s1
