23
gdb 114517	2.48503	1.31262	1.0267	1.66	85.46	-0.2337	0.0757	0.3094	1293.5838	0.205627	-388.26372	-388.254413	-388.253468	-388.298004	35.463	
C	 0.0173579377	 1.8211515825	 0.9925742588	-0.383795
C	-0.2201453703	 0.3434214628	 0.6595002791	-0.197743
C	 0.7318120984	-0.5595583206	 1.4262386594	 0.160909
O	 0.4808074081	-0.5501512742	 2.8607300953	-0.314984
C	 0.4935571256	-1.987313302	 2.9147153607	 0.13262
C	-0.9187664478	-2.6143406031	 2.7894870127	-0.267721
C	-0.6242402464	-2.9254803133	 1.2855421056	 0.045021
C	-1.6888554772	-2.6855052367	 0.2227784691	-0.418838
C	 0.7036451513	-2.1116921398	 1.3795871091	-0.153098
H	 1.0307473556	 2.1316757858	 0.7146801843	 0.112054
H	-0.6887186707	 2.4660857929	 0.4610831023	 0.109226
H	-0.1036046835	 1.9938560408	 2.0659315279	 0.137581
H	-1.252602849	 0.078929656	 0.9044233715	 0.105231
H	-0.0855445327	 0.1683273751	-0.4157431248	 0.094271
H	 1.7612147769	-0.2118105726	 1.2425914401	 0.070106
H	 1.1738897832	-2.3753780441	 3.6773000678	 0.072025
H	-1.1256982939	-3.485556264	 3.4165073589	 0.095741
H	-1.6957573845	-1.8637488714	 2.9565892291	 0.106752
H	-0.3149849953	-3.97523117	 1.2154542321	 0.078652
H	-2.1347317181	-1.6910398216	 0.2920502167	 0.120518
H	-1.275595557	-2.797892411	-0.7860405917	 0.113445
H	-2.499536435	-3.4153864696	 0.3286499995	 0.113426
H	 1.5791453046	-2.5661990818	 0.9147054963	 0.068599
62.1572	95.015	142.1225	198.2939	228.47	241.3412	308.878	356.2985	400.4792	439.5827	571.8913	599.7116	713.2452	761.9838	790.2759	843.3181	860.9492	912.6397	927.2127	947.4766	950.5323	996.7794	1016.6421	1067.7258	1075.7016	1104.1916	1114.8817	1129.5498	1167.1438	1177.8792	1202.6442	1215.1863	1251.5198	1271.3568	1283.152	1307.1113	1322.1353	1340.3741	1355.669	1379.946	1404.7518	1411.8968	1417.2019	1468.8792	1475.3749	1494.0602	1497.6003	1502.6449	1507.9616	2964.0227	3023.0147	3029.0175	3033.2808	3035.2303	3055.8665	3070.6088	3084.9359	3087.639	3099.4054	3105.6626	3114.7259	3117.4838	3126.9856
CCC1OC2CC(C)C12	CC[C@H]1O[C@H]2C[C@@H](C)[C@@H]12	
InChI=1S/C8H14O/c1-3-6-8-5(2)4-7(8)9-6/h5-8H,3-4H2,1-2H3	InChI=1S/C8H14O/c1-3-6-8-5(2)4-7(8)9-6/h5-8H,3-4H2,1-2H3/t5-,6-,7+,8+/m1/s1
