15
gdb 18971	4.69347	2.40387	1.95858	1.8857	63.79	-0.2491	0.0126	0.2618	694.8342	0.122673	-362.627565	-362.622328	-362.621384	-362.656603	21.891	
C	-0.0483962093	 1.5906528168	 0.0133008594	-0.234393
C	 1.4608903247	 1.2522399219	-0.0091511997	-0.111707
C	 1.1469993967	 0.159996139	 1.0503424574	 0.152276
O	 2.0523697883	-0.9340691493	 1.1539149603	-0.244098
C	 2.4357024083	-1.4165268358	-0.0500770706	 0.119002
N	 2.0536074715	-0.9714400365	-1.1723697502	-0.29355
C	 1.1340474418	 0.1429843455	-1.0692232008	 0.053106
C	-0.0007360096	 0.0444679548	 0.009472133	-0.111707
H	-0.4329958797	 2.070032629	 0.9175571502	 0.097797
H	-0.4466071877	 2.0586394186	-0.8895690298	 0.105128
H	 2.311885923	 1.9323944293	-0.0184837608	 0.08387
H	 0.9060737931	 0.4672532835	 2.0681759123	 0.091548
H	 3.1256801897	-2.2499784917	 0.0511704901	 0.129975
H	 0.8307658522	 0.494790882	-2.056353957	 0.078884
H	-0.8290827429	-0.663053577	 0.0215371362	 0.08387
282.7038	350.5694	411.4484	562.5086	587.4607	609.8277	787.2372	810.4071	827.9677	880.5851	904.3776	907.1033	961.1496	972.2355	993.155	1009.1052	1083.308	1089.0634	1100.86	1106.2495	1126.1803	1175.8474	1180.7792	1202.0323	1241.9661	1247.113	1253.3569	1342.5122	1383.1191	1412.3777	1511.1992	1709.5381	3056.8694	3098.7118	3113.9095	3121.0681	3123.2196	3129.1399	3180.7559
C1C2C3OC=NC2C13	C1[C@H]2[C@@H]3O[CH][N][C@H]2[C@H]13	
InChI=1S/C6H7NO/c1-3-5-4(1)6(3)8-2-7-5/h2-6H,1H2	InChI=1S/C6H7NO/c1-3-5-4(1)6(3)8-2-7-5/h2-6H,1H2/t3-,4+,5-,6+
