17
gdb 94798	2.92358	1.49353	1.11215	1.4061	69.76	-0.2489	-0.0362	0.2127	1083.8031	0.135239	-458.964382	-458.95626	-458.955316	-458.997108	30.948	
O	 0.1648697859	 1.3806998735	-0.0432268365	-0.435841
C	 0.0919623192	-0.0143829245	 0.0142557986	 0.045194
C	 0.6534227525	-0.652707693	 1.2915545511	-0.139043
O	-0.0069253847	-1.9262047752	 1.3604666196	-0.300421
C	-1.3315209577	-1.7294411095	 0.9325075838	 0.342818
C	-2.221439315	-2.9180215216	 0.7165023097	-0.320803
C	-2.4963781005	-1.9958675657	 1.8717113071	-0.311582
C	-1.3500658463	-0.5236627809	 0.066246504	 0.28137
O	-2.2936688989	 0.0396585952	-0.4364939191	-0.348738
H	-0.6753890613	 1.6767783149	-0.4233660741	 0.29536
H	 0.5759568188	-0.487055266	-0.8591538077	 0.10422
H	 1.7271286405	-0.8413985145	 1.2703792917	 0.123868
H	 0.4079164206	-0.0218609262	 2.1582020056	 0.111619
H	-2.8835250996	-2.8875015767	-0.1419386136	 0.138919
H	-1.7736236599	-3.8814439672	 0.9325455182	 0.138543
H	-2.2251177038	-2.3350476992	 2.8646289927	 0.134866
H	-3.3429653797	-1.3213672934	 1.8068161191	 0.13965
73.6702	167.6735	204.0952	224.8476	264.7924	370.2957	381.2598	455.6119	469.3925	520.5744	618.0854	696.1337	763.0599	775.1574	836.1872	891.5869	945.5818	949.2901	1001.878	1039.6353	1045.1646	1065.5149	1085.1884	1090.8584	1172.2654	1201.3707	1209.3343	1257.6026	1264.9098	1328.0731	1353.25	1392.7669	1412.4424	1443.0542	1477.344	1515.0388	1836.9669	2948.9877	3009.3826	3129.1797	3138.0875	3139.6372	3228.5744	3243.6964	3725.613
OC1COC2(CC2)C1=O	O[C@H]1COC2(CC2)C1=O	
InChI=1S/C6H8O3/c7-4-3-9-6(1-2-6)5(4)8/h4,7H,1-3H2	InChI=1S/C6H8O3/c7-4-3-9-6(1-2-6)5(4)8/h4,7H,1-3H2/t4-/m0/s1
