15
gdb 12953	2.71364	2.20185	1.74157	2.541	63.27	-0.2339	0.0155	0.2493	812.5862	0.119673	-395.928563	-395.921012	-395.920068	-395.960046	28.718	
N	-0.1315248101	 1.4813856668	 0.1599885637	-0.517286
C	-0.1174798248	 0.0468250484	 0.044134636	-0.073145
C	-0.5190352853	-0.8219546898	 1.2125042983	-0.113315
N	-1.6092373808	-0.2090473847	 1.9855028054	-0.348174
C	-2.4468952878	-0.1528238522	 0.8222536348	 0.301098
N	-3.6543690333	 0.1399072139	 0.6087315553	-0.548978
C	-1.3966242668	-0.7479156983	-0.0628846869	 0.309614
O	-1.5997920838	-1.5830231282	-1.1308370297	-0.449056
H	 0.7993776823	 1.8313242323	 0.3640865211	 0.23287
H	-0.4303890576	 1.9082669848	-0.7110286248	 0.243451
H	 0.654826645	-0.4234779769	-0.5715904405	 0.093958
H	 0.0711228052	-1.6310692365	 1.6222240803	 0.111255
H	-1.3953632432	 0.6958803933	 2.398157532	 0.236723
H	-4.1076889022	 0.4794394449	 1.4596526155	 0.220323
H	-2.4001055468	-2.0922618578	-0.9553964405	 0.300662
110.4696	200.4988	229.1088	251.1438	295.3329	334.1554	412.1492	483.6866	586.6352	644.6075	698.7952	727.0948	768.7537	814.5782	879.1271	897.0124	923.0638	954.3102	975.3659	1052.6388	1063.6952	1109.7505	1191.9511	1243.8467	1271.6109	1283.4559	1344.447	1368.9353	1371.7015	1491.2613	1654.0304	1801.2852	3066.5747	3205.0691	3458.0854	3496.6086	3499.2809	3575.9334	3794.2125
NC1C2NC(=N)C12O	N[C@H]1[C@H]2N[C]([NH])[C@@]12O	
InChI=1S/C4H7N3O/c5-1-2-4(1,8)3(6)7-2/h1-2,8H,5H2,(H2,6,7)	InChI=1S/C4H7N3O/c5-1-2-4(1,8)3(6)7-2/h1-2,8H,5H2,(H2,6,7)/t1-,2+,4+/m0/s1
