18
gdb 108155	3.37042	1.46456	1.23678	3.2215	78.04	-0.1988	-0.0343	0.1645	1045.5902	0.147852	-397.98613	-397.978211	-397.977266	-398.018385	30.915	
C	 0.2788206759	 1.4605753931	-0.0050617512	-0.329585
N	-0.1766924731	 0.0883256751	-0.2167464678	-0.364641
C	 0.4244840851	-0.6027835207	-1.2899169811	 0.335597
C	 0.0335426898	-0.2468952957	-2.7495270915	-0.206015
N	 0.910698999	-1.1436774576	-3.555987968	-0.234561
C	 1.2859724954	-2.0067074154	-2.6954889064	 0.19609
N	 2.62191385	-2.0956732167	-2.173802139	-0.316754
C	 1.9115166816	-1.4120830358	-1.008944616	-0.110602
C	 0.6175855118	-2.0636018896	-1.2955253914	-0.239239
H	 1.3604814762	 1.5411213943	 0.1873535826	 0.107414
H	 0.0496782358	 2.0652132486	-0.887417314	 0.135461
H	-0.2623869355	 1.892314167	 0.8408729283	 0.122798
H	-0.1398016376	-0.4446959558	 0.6434120553	 0.228492
H	-1.0514891905	-0.3739036522	-2.8894197477	 0.11085
H	 0.2903346714	 0.7752328396	-3.0463204671	 0.118837
H	 3.2343910364	-1.4932212429	-2.7265320289	 0.230963
H	 2.4230432711	-1.3075191661	-0.0566025132	 0.107988
H	 0.088636767	-2.8841728291	-0.824324803	 0.106907
92.1716	157.0527	186.4269	260.0687	304.7091	362.8307	439.3903	478.9653	545.3047	582.5184	642.5995	708.5497	728.7438	777.7615	819.77	852.6314	911.6718	951.8278	993.5318	1009.9952	1022.2395	1043.8372	1100.8962	1143.9545	1150.1696	1156.804	1166.1773	1177.2532	1244.2197	1267.2888	1306.0396	1313.7586	1380.1203	1462.8617	1482.1355	1484.8446	1499.1684	1521.8938	1622.6628	2978.9799	2981.2059	3066.7567	3079.0878	3118.2584	3157.244	3172.5625	3442.959	3549.7857
CNC12CN=C3NC1C23	CN[C@@]12C[N][C]3N[C@@H]1[C@@H]23	
InChI=1S/C6H9N3/c1-7-6-2-8-5-3(6)4(6)9-5/h3-4,7H,2H2,1H3,(H,8,9)	InChI=1S/C6H9N3/c1-7-6-2-8-5-3(6)4(6)9-5/h3-4,7H,2H2,1H3,(H,8,9)/t3-,4-,6-/m1/s1
