15
gdb 20783	4.81659	1.87971	1.46344	5.29	67.34	-0.2493	0.0116	0.2609	844.0267	0.120926	-358.8114	-358.804833	-358.803889	-358.842239	24.518	
C	-0.3105236703	 1.6177714379	-0.1631113426	-0.399789
C	 0.0044901543	 0.1416570071	-0.0272315458	 0.050842
C	 0.7559167674	-0.5771222078	-1.2215895855	-0.400887
C	 1.8881712482	-0.8059909254	-0.2252294192	 0.310384
C	 3.0667902014	-1.2103783648	 0.36180183	-0.209224
N	 3.0197033879	-0.7892280621	 1.666326176	-0.183249
N	 1.8934608408	-0.1603059749	 1.9261564646	-0.188731
N	 1.2296612712	-0.1820736115	 0.7606080459	 0.092252
H	 0.5584774771	 2.1714709614	-0.5300935791	 0.136455
H	-1.1376379053	 1.758119039	-0.8660447885	 0.132038
H	-0.6070995786	 2.0404028229	 0.8009862815	 0.147869
H	-0.8573456699	-0.4216407436	 0.3404851937	 0.118679
H	 0.265098708	-1.4777889916	-1.595352928	 0.136396
H	 0.9920697322	 0.083471087	-2.0587501024	 0.134085
H	 3.9192363756	-1.7462026736	-0.0193789906	 0.122879
97.0768	194.1938	227.7823	290.8381	421.3348	467.6377	677.9239	690.7503	698.4983	737.3457	828.6722	849.3348	916.5296	1001.1208	1023.1891	1068.8461	1090.9697	1099.6744	1112.0585	1183.4178	1199.5514	1220.2003	1248.8517	1273.8384	1323.5381	1365.9885	1413.1888	1471.1995	1486.504	1496.4828	1506.2526	1542.5841	3043.2667	3075.5762	3078.9405	3118.0875	3124.1642	3130.0513	3284.912
CC1CC2=CN=NN12	C[C@H]1Cc2cnnn12	
InChI=1S/C5H7N3/c1-4-2-5-3-6-7-8(4)5/h3-4H,2H2,1H3	InChI=1S/C5H7N3/c1-4-2-5-3-6-7-8(4)5/h3-4H,2H2,1H3/t4-/m0/s1
