18
gdb 12808	3.45803	2.02315	1.53205	1.9938	72.6	-0.2402	0.0075	0.2477	884.6036	0.154574	-347.80652	-347.799174	-347.79823	-347.83784	28.613	
C	-0.1807648485	 1.5321197904	 0.0712087832	-0.474563
C	 0.0687726696	 0.0443073803	-0.0043333591	 0.390901
O	-0.7241259164	-0.7460491059	 0.9134262648	-0.297032
C	 0.6963279907	-0.685395382	 1.1095025475	-0.026198
C	 1.467284119	-1.9730507322	 0.8444849573	-0.232624
C	 2.0610697916	-2.0465532185	-0.5766863147	-0.268487
C	 1.1480066965	-1.4703640184	-1.6299270771	-0.056178
C	 0.2390270298	-0.5318335197	-1.368853017	-0.114901
H	 0.643645423	 2.0904141689	-0.3851083633	 0.122722
H	-1.0994683281	 1.7939572623	-0.465877404	 0.124835
H	-0.2910614685	 1.8510501176	 1.1106675668	 0.12661
H	 0.9881011481	-0.1174058584	 1.9935485293	 0.083217
H	 2.2641843094	-2.0896885056	 1.5859227942	 0.097388
H	 0.7695489133	-2.8041486652	 0.991533504	 0.12271
H	 3.0225424649	-1.5128801808	-0.6132946583	 0.114269
H	 2.2994985001	-3.0876873827	-0.8201717889	 0.108188
H	 1.2646434456	-1.8415826355	-2.6452258791	 0.09297
H	-0.3958132501	-0.1360167849	-2.1577401856	 0.086175
101.1218	183.1128	223.2495	274.2495	344.3676	427.4462	480.1864	519.1637	532.5053	658.3391	724.728	773.9614	793.4193	860.5767	905.7178	931.6998	960.8617	1001.0291	1020.407	1052.8115	1076.9752	1088.3404	1128.9429	1193.7024	1210.3015	1240.9321	1272.167	1334.5433	1347.6267	1382.1335	1409.6411	1424.2063	1456.4141	1472.8601	1484.2227	1486.5388	1499.978	1717.3639	2999.1256	3032.4777	3042.672	3060.6349	3084.9572	3095.1361	3101.8444	3122.3255	3146.2246	3169.0061
CC12OC1CCC=C2	C[C@]12O[C@H]1CCC=C2	
InChI=1S/C7H10O/c1-7-5-3-2-4-6(7)8-7/h3,5-6H,2,4H2,1H3	InChI=1S/C7H10O/c1-7-5-3-2-4-6(7)8-7/h3,5-6H,2,4H2,1H3/t6-,7+/m0/s1
