14
gdb 125734	3.26673	1.40235	0.98719	3.8752	69.09	-0.255	-0.0707	0.1843	1121.2147	0.100527	-473.848366	-473.840731	-473.839787	-473.880518	28.595	
C	-0.2138975731	 1.5316710813	 0.0382077644	-0.47081
C	 0.0209091074	 0.0458080724	 0.0151597642	 0.373478
N	 0.1009640478	-0.4760298894	-1.1692598235	-0.154094
O	 0.3208115024	-1.8676656241	-1.2337260718	-0.250198
C	 0.4476235509	-2.6558944	-0.1483165847	 0.401046
O	 0.6361963095	-3.849916901	-0.2532561789	-0.375793
C	 0.3488829308	-2.0140375183	 1.1699286743	 0.266873
O	 0.482036199	-2.8429409515	 2.2017352762	-0.398384
C	 0.138688029	-0.6832786265	 1.2473493279	-0.287489
H	 0.601230815	 2.0395078998	 0.5646123978	 0.144127
H	-0.2771392859	 1.9172918357	-0.9796550828	 0.157614
H	-1.1435789554	 1.7637264838	 0.5685590775	 0.14412
H	 0.6206080655	-3.7247175926	 1.8040959133	 0.320094
H	 0.0596946773	-0.1711782798	 2.1987324462	 0.129417
119.1376	157.6586	192.0693	291.2067	332.8458	346.7933	431.9022	472.8622	507.5861	603.2499	627.8274	676.5428	687.1053	795.17	803.9215	898.0881	942.5935	1000.37	1059.9437	1062.0766	1177.7375	1212.9158	1272.2777	1391.6746	1417.3196	1469.936	1474.9563	1479.9801	1603.2411	1727.2115	1783.8767	3041.4911	3099.535	3154.1311	3205.2767	3605.8233
CC1=NOC(=O)C(O)=C1	Cc1noc(=O)c(O)c1	
InChI=1S/C5H5NO3/c1-3-2-4(7)5(8)9-6-3/h2,7H,1H3	InChI=1S/C5H5NO3/c1-3-2-4(7)5(8)9-6-3/h2,7H,1H3
