19
gdb 122865	4.48482	0.62299	0.57248	3.8991	70.47	-0.2667	0.0063	0.273	1932.5091	0.156108	-497.313411	-497.302813	-497.301869	-497.351205	35.517	
C	 0.0483988773	 1.2991087467	 0.0671111841	-0.227928
O	 0.023574171	-0.1066841062	-0.0147506553	-0.227384
C	-1.2680456769	-0.6418105971	 0.1327230161	-0.06715
C	-1.1821543626	-2.1497918943	 0.0817479808	-0.078834
O	-0.536693617	-2.5998367958	 1.2898154445	-0.232509
C	-0.3142979683	-3.9118333867	 1.3834887868	 0.417921
O	-0.625649578	-4.7302741172	 0.5489085717	-0.373461
C	 0.388958502	-4.2901606089	 2.6748131869	-0.144038
O	 0.5791583352	-5.674394185	 2.7464034576	-0.419825
H	 1.0868197002	 1.6139991479	-0.0575972255	 0.132887
H	-0.5622902224	 1.7655550338	-0.7222944821	 0.105752
H	-0.3182847853	 1.6574817328	 1.0416808622	 0.108399
H	-1.7221637756	-0.3255077888	 1.0864512355	 0.099902
H	-1.9339450204	-0.3016501912	-0.6793734491	 0.093782
H	-2.1797828245	-2.5948968491	 0.017884728	 0.12483
H	-0.5992654758	-2.4774611605	-0.7829704872	 0.13945
H	 1.3454360569	-3.7471003442	 2.7141772873	 0.127592
H	-0.2153689547	-3.9246775676	 3.5182202369	 0.124063
H	 0.2250242788	-6.0277762189	 1.9166182706	 0.296549
25.0903	60.5775	80.8146	93.5896	155.9141	171.4862	229.9508	280.3844	308.7965	323.4908	363.6678	459.0971	528.3557	583.4124	721.8488	856.3583	887.0694	951.954	1041.4609	1056.8113	1058.7623	1128.1793	1130.3107	1171.4266	1187.2072	1228.3528	1241.5783	1261.2776	1264.6026	1299.049	1320.0889	1397.1677	1434.0837	1469.262	1480.3558	1486.6514	1493.0602	1498.3642	1499.6868	1521.7117	1803.8148	2955.2758	2973.4626	2990.4527	2996.5314	3017.304	3018.2569	3062.764	3116.2293	3120.4373	3717.6069
COCCOC(=O)CO	COCCOC(=O)CO	
InChI=1S/C5H10O4/c1-8-2-3-9-5(7)4-6/h6H,2-4H2,1H3	InChI=1S/C5H10O4/c1-8-2-3-9-5(7)4-6/h6H,2-4H2,1H3
