17
gdb 65751	2.94283	1.20439	1.13558	1.3176	69.81	-0.2541	0.0123	0.2664	1134.5894	0.13554	-455.192807	-455.183731	-455.182787	-455.226825	32.622	
C	 0.3443210279	 1.6132880283	 0.7888696057	-0.445914
C	 0.1188765659	 0.1294135914	 0.5115708613	 0.180232
C	 0.2315324844	-0.3030571505	-0.9870565912	-0.183095
N	 1.4560160739	-1.0266482098	-0.6103088915	-0.335349
C	 1.3635186829	-0.7818467854	 0.7297699807	 0.397117
O	 1.9740866954	-1.1532422269	 1.6979507469	-0.373006
N	-1.0248350887	-0.4107043759	 1.2237907776	-0.3327
C	-2.3085919401	-0.1327867324	 0.87900057	 0.152156
O	-2.6342827265	 0.5307875976	-0.0846365197	-0.332866
H	 1.2174227502	 1.9817202152	 0.2420824284	 0.124178
H	-0.533820567	 2.1850644706	 0.4796620485	 0.154124
H	 0.5168336586	 1.7732354581	 1.8570474317	 0.131405
H	-0.5822644598	-0.9442852177	-1.3297140055	 0.134604
H	 0.3900757623	 0.5145551852	-1.6940207268	 0.122369
H	 2.0567830063	-1.652005676	-1.1271332887	 0.256801
H	-0.8387406771	-0.9268168975	 2.0712012538	 0.263129
H	-3.0371780686	-0.5964693241	 1.5726963988	 0.086817
72.4688	107.798	149.537	190.7271	232.3294	238.3724	273.0055	330.4215	405.081	498.5553	543.1585	551.6186	668.4519	736.7599	763.2491	836.4916	890.7089	966.7605	985.4706	994.1574	1032.3544	1136.5703	1144.5301	1172.6758	1193.8924	1228.9321	1271.2016	1301.7469	1389.3911	1407.3486	1424.0481	1481.3978	1498.9777	1512.3251	1521.4403	1792.0146	1891.7975	2942.9349	3044.4865	3071.1015	3116.9154	3128.9902	3133.7194	3608.7409	3612.5748
CC1(CNC1=O)NC=O	C[C@]1(CNC1=O)NC=O	
InChI=1S/C5H8N2O2/c1-5(7-3-8)2-6-4(5)9/h3H,2H2,1H3,(H,6,9)(H,7,8)	InChI=1S/C5H8N2O2/c1-5(7-3-8)2-6-4(5)9/h3H,2H2,1H3,(H,6,9)(H,7,8)/t5-/m1/s1
