19
gdb 115526	2.65765	1.06033	1.04615	2.4275	77.63	-0.2509	0.0291	0.2801	1278.4579	0.156126	-422.964321	-422.954343	-422.953399	-422.999707	36.185	
C	-0.2739110607	 1.6218377125	 0.0231858499	-0.438518
C	-0.0132054108	 0.1176856465	 0.0719928145	 0.178439
O	 1.1697072042	-0.2293318662	-0.7030270804	-0.305624
C	 1.763618634	-0.9381865083	 0.4073900256	-0.078612
C	 0.6309425416	-0.5109877607	 1.3573126006	-0.062197
C	 1.0288536796	 0.4161332753	 2.4900979454	-0.110197
O	 1.7339117327	-0.3820442347	 3.4307294851	-0.422249
C	-1.1892262297	-0.6201677442	-0.3913812201	 0.347223
C	-2.1609752727	-1.2239517424	-0.7609086484	-0.48241
H	 0.6096806384	 2.1788966098	 0.3418296056	 0.120353
H	-0.5094130869	 1.9105652433	-1.0046582583	 0.13896
H	-1.1234099954	 1.8920017385	 0.6573000689	 0.126806
H	 1.832701312	-2.0147332416	 0.2144029861	 0.108424
H	 2.7598080586	-0.552685608	 0.6524601192	 0.10628
H	 0.0506497992	-1.3381481738	 1.7679488824	 0.099232
H	 1.6631047871	 1.2329505164	 2.1137586053	 0.092132
H	 0.1325050136	 0.8713047331	 2.9407065923	 0.093229
H	 2.0568226023	 0.1913043586	 4.1320049417	 0.289719
H	-3.0141913172	-1.761201884	-1.0948393154	 0.199012
37.4429	90.3086	133.7612	182.0995	195.6176	233.3215	258.4112	293.3249	366.6167	393.9371	423.9603	535.2929	579.6308	623.1817	636.1205	662.	838.7037	877.6847	909.5903	920.6629	939.0611	1018.025	1058.8618	1091.718	1113.2326	1139.0469	1161.5065	1171.9914	1199.2941	1246.7378	1273.4727	1286.5204	1338.6686	1375.5856	1401.2048	1461.7824	1478.1381	1491.5165	1518.4349	1530.7959	2229.783	2970.5957	3003.0986	3027.0328	3048.0263	3070.5018	3107.923	3122.913	3133.67	3500.2445	3830.4256
CC1(OCC1CO)C#C	C[C@]1(OC[C@H]1CO)C#C	
InChI=1S/C7H10O2/c1-3-7(2)6(4-8)5-9-7/h1,6,8H,4-5H2,2H3	InChI=1S/C7H10O2/c1-3-7(2)6(4-8)5-9-7/h1,6,8H,4-5H2,2H3/t6-,7+/m1/s1
