18
gdb 81467	2.32924	2.03553	1.73221	3.0323	69.3	-0.2411	0.0569	0.298	888.5854	0.151379	-439.04583	-439.039312	-439.038367	-439.076359	27.691	
O	 0.2468902127	 1.4145889716	-0.2635984926	-0.435887
C	 0.0449363204	 0.0646516933	-0.0367886359	 0.121769
C	 0.1994636021	-0.6053720786	 1.3597955176	 0.033778
C	-0.3845465592	 0.2361419866	 2.5060624419	-0.238253
C	-1.8264504785	 0.6294196445	 2.1986364401	-0.015827
N	-2.0439425115	 1.6286715775	 1.1317821032	-0.362526
C	-2.3622518579	 0.2001739689	 0.8805684861	-0.033171
C	-1.364445031	-0.599662552	 0.050752303	 0.01436
O	-0.7794130722	-1.5982772522	 0.9371941837	-0.295825
H	-0.4843976383	 1.8754493323	 0.1925198758	 0.301073
H	 0.6463544136	-0.4970439377	-0.7564884497	 0.098932
H	 1.1568092958	-1.0596204363	 1.6286719333	 0.075225
H	-0.3727390916	-0.3642033839	 3.4215461088	 0.111821
H	 0.2383413416	 1.1209456307	 2.6820972944	 0.117814
H	-2.5087495934	 0.671358564	 3.0421503472	 0.096567
H	-2.8913447524	 2.1621326903	 1.2997027913	 0.240486
H	-3.4097763955	-0.0731775497	 0.7972654015	 0.09579
H	-1.8051203547	-1.0461960093	-0.8435131898	 0.073873
185.4541	274.6901	314.8064	402.6598	432.9993	454.6808	582.8508	632.0216	651.5764	733.7218	764.4301	778.6935	841.9656	860.802	889.1589	911.8676	917.1963	937.5111	983.058	1029.389	1038.1213	1061.2455	1121.0652	1129.8073	1148.3834	1195.8619	1198.3111	1229.3627	1241.144	1263.5587	1313.7039	1319.7352	1332.7432	1360.3684	1374.3562	1399.6007	1446.3456	1467.8776	1510.3451	3040.96	3071.6848	3078.8404	3085.9968	3089.4131	3148.9214	3159.1308	3519.5847	3521.6521
OC1C2CC3NC3C1O2	O[C@H]1[C@H]2C[C@H]3N[C@H]3[C@@H]1O2	
InChI=1S/C6H9NO2/c8-5-3-1-2-4(7-2)6(5)9-3/h2-8H,1H2	InChI=1S/C6H9NO2/c8-5-3-1-2-4(7-2)6(5)9-3/h2-8H,1H2/t2-,3-,4-,5+,6+/m1/s1
