23
gdb 100913	2.23094	1.0029	0.73218	3.0659	82.77	-0.2445	-0.017	0.2275	1595.6727	0.202323	-425.435729	-425.424282	-425.423338	-425.473217	40.336	
C	 0.0066913719	 1.6320885755	 0.0226801305	-0.394775
C	-0.0501936719	 0.1022878586	-0.0622192705	-0.18216
C	 0.7355767832	-0.5003813481	-1.2454449581	 0.015367
C	 2.221049959	-0.1059278072	-1.2040420793	-0.405108
C	 0.5923016714	-2.048600306	-1.3151685767	-0.09891
C	-0.8576155681	-2.5550942174	-1.2383757793	-0.093771
O	-0.9559750028	-3.9277144392	-1.5920155028	-0.415359
C	 1.1768715976	-2.5499612458	-2.6265880887	 0.172214
O	 2.2037336143	-3.166539908	-2.7418550696	-0.260056
H	 1.0150086188	 1.9978800408	 0.2344695467	 0.123703
H	-0.3257667608	 2.0926264562	-0.9146524566	 0.115979
H	-0.6482875348	 1.9964502875	 0.8200547107	 0.11593
H	 0.3274772298	-0.3315831022	 0.874131826	 0.096319
H	-1.1016257944	-0.1950888258	-0.1348569063	 0.10287
H	 0.2981124141	-0.0925652774	-2.1705017175	 0.075058
H	 2.7899405387	-0.5843443456	-2.0053780763	 0.134745
H	 2.3495448123	 0.9744399484	-1.305279454	 0.118583
H	 2.6749705028	-0.4113208106	-0.2538213996	 0.117262
H	 1.1819908983	-2.4996427223	-0.5054675214	 0.081006
H	-1.2816554559	-2.3693168522	-0.2433089785	 0.103416
H	-1.4819656705	-2.0212646029	-1.9647534525	 0.115859
H	-0.4046161426	-4.4340047124	-0.9858359398	 0.288456
H	 0.5688875596	-2.2721957439	-3.5202179365	 0.073372
36.4903	74.2097	86.4605	129.228	156.2274	194.8649	209.4802	252.5612	282.5706	307.5108	328.6971	349.0045	371.7255	452.6378	526.7563	558.2631	778.1218	825.6166	863.4237	933.3998	961.6591	977.8935	993.9728	1035.9802	1048.1743	1064.985	1116.344	1127.0876	1159.647	1180.5271	1213.4756	1249.8489	1302.3924	1334.8789	1346.1111	1364.7532	1374.0442	1392.4859	1409.3288	1411.5955	1417.9753	1429.6546	1482.4404	1495.4776	1498.6195	1504.082	1507.4831	1514.2048	1834.409	2850.8109	2980.0517	3012.4389	3016.2996	3023.8896	3034.7347	3037.3009	3064.9689	3069.1407	3099.5656	3105.3558	3114.2719	3124.9613	3808.8287
CCC(C)C(CO)C=O	CC[C@@H](C)[C@@H](CO)C=O	
InChI=1S/C7H14O2/c1-3-6(2)7(4-8)5-9/h4,6-7,9H,3,5H2,1-2H3	InChI=1S/C7H14O2/c1-3-6(2)7(4-8)5-9/h4,6-7,9H,3,5H2,1-2H3/t6-,7-/m1/s1
