18
gdb 36200	3.36585	1.15913	1.02492	3.1344	75.19	-0.2559	0.0227	0.2786	1187.0424	0.148071	-401.929052	-401.920835	-401.919891	-401.962697	30.373	
N	-0.0645590762	-1.1555413659	 0.0609623491	-0.304466
C	-0.0610544073	-0.0003007157	 0.0898643682	 0.263941
C	-0.0176647638	 1.4630375129	 0.1196519623	-0.460084
C	 1.4004216703	 1.9935897599	-0.0419280621	 0.313745
C	 2.4051468452	 1.818455626	 1.1340655045	-0.289478
C	 2.7399988584	 3.3430370286	 1.0785539534	-0.230534
C	 1.7761746195	 3.5056373112	-0.1179421179	 0.056161
O	 2.421940525	 3.3181405594	-1.3910817083	-0.288221
C	 2.0581010249	 1.919007501	-1.4341909621	-0.119426
H	-0.664380815	 1.8472293928	-0.6782634717	 0.155222
H	-0.4478244869	 1.8027656378	 1.0693764743	 0.152123
H	 1.9266921592	 1.510878447	 2.0671704079	 0.112182
H	 3.231117844	 1.1319982315	 0.9347988494	 0.116395
H	 2.4254530834	 3.8890114866	 1.9718566659	 0.106678
H	 3.7724234377	 3.6087937255	 0.8444896404	 0.119811
H	 1.0689798241	 4.3404401335	-0.1270804687	 0.077316
H	 2.9283764142	 1.2591769433	-1.5297847844	 0.112862
H	 1.3617739132	 1.7130062943	-2.2581496902	 0.105771
55.1018	89.1741	110.6594	245.2851	320.4682	369.8182	387.3731	396.5427	473.4518	669.7924	697.3123	738.725	861.2376	883.968	901.4869	921.4356	941.0412	950.4413	971.7799	1006.1389	1035.6649	1087.3227	1111.1453	1137.0473	1160.7446	1196.252	1222.4605	1249.3334	1267.9185	1285.6428	1301.6213	1321.1831	1334.6977	1376.839	1461.485	1464.7048	1488.881	1525.6711	2360.4107	3007.0367	3035.1752	3059.2562	3059.9472	3063.993	3073.0169	3073.8926	3111.4627	3131.6382
N#CCC12CCC1OC2	N#CC[C@]12CC[C@H]1OC2	
InChI=1S/C7H9NO/c8-4-3-7-2-1-6(7)9-5-7/h6H,1-3,5H2	InChI=1S/C7H9NO/c8-4-3-7-2-1-6(7)9-5-7/h6H,1-3,5H2/t6-,7+/m1/s1
