14
gdb 42645	3.25312	1.46178	1.25662	4.0893	74.52	-0.2539	-0.0128	0.2411	993.1578	0.10044	-399.461344	-399.454259	-399.453315	-399.492947	27.602	
O	 0.0237756158	 0.0513397328	 0.2141390576	-0.306342
C	-0.0179877654	 1.2322716407	 0.0992347413	 0.439978
C	-1.0603483842	 2.2910968297	-0.0288443369	-0.266528
C	-0.4011398211	 3.5343141616	 0.6111307818	-0.140158
C	 0.9450967786	 3.0524304946	 1.1417168519	-0.196916
N	 1.094818928	 2.2064379343	-0.1172274757	-0.252683
C	 0.0115770251	 3.1169319976	-0.7630212086	 0.332876
C	 0.0308046889	 3.6854779176	-2.0501369205	 0.021131
C	 0.0521815365	 4.1791548727	-3.1469600329	-0.340725
H	-2.1203856407	 2.2314032707	-0.2327989433	 0.13361
H	-1.0056061754	 4.3892235857	 0.8892095083	 0.122818
H	 1.7035952009	 3.8372886349	 1.1526975672	 0.132032
H	 0.9789045433	 2.4739932901	 2.0704339301	 0.126472
H	 0.0758090297	 4.610198927	-4.1171923503	 0.194435
92.5869	160.4601	211.4691	383.2454	446.0813	489.5849	524.5098	566.6678	596.8557	640.4386	688.9967	738.6049	776.8226	794.8856	846.3812	899.7169	936.574	950.1328	982.7207	992.0589	1048.6828	1093.3617	1109.9269	1164.016	1180.3763	1278.1094	1291.6998	1419.9601	1510.503	1932.2088	2240.1299	3055.5158	3124.9602	3193.4153	3224.1236	3502.1003
O=C1C2C3CN1C23C#C	O=C1[C@H]2[C@H]3CN1[C@@]23C#C	
InChI=1S/C7H5NO/c1-2-7-4-3-8(7)6(9)5(4)7/h1,4-5H,3H2	InChI=1S/C7H5NO/c1-2-7-4-3-8(7)6(9)5(4)7/h1,4-5H,3H2/t4-,5-,7-/m1/s1
