19
gdb 53088	3.47372	0.9103	0.75203	1.9769	92.14	-0.2193	-0.0156	0.2037	1542.4843	0.157562	-385.883758	-385.873938	-385.872994	-385.920874	34.257	
C	-0.0357331854	 1.4733527761	-0.0461183106	-0.508
C	 0.023345418	 0.0209339622	-0.0066942918	 0.183901
C	 0.0907262214	-1.1843897801	 0.0277314133	-0.088771
C	 0.0986765497	-2.5962930732	 0.0583838081	 0.193659
C	 1.1448755906	-3.4255335372	 0.1425357553	-0.24213
C	 0.6771439594	-4.8482681406	 0.1052276092	-0.11175
O	-0.7431518364	-4.775394024	 0.0673661678	-0.27886
C	-1.1803986402	-3.4183298794	-0.0319318533	 0.020388
C	-2.2045928623	-3.1169312673	 1.0586632271	-0.388903
H	 0.779329898	 1.8882770343	-0.6495434511	 0.152534
H	-0.9804990638	 1.8213825221	-0.4779124855	 0.151799
H	 0.0464073698	 1.9015419241	 0.9595490682	 0.152745
H	 2.1852721118	-3.1368495852	 0.2118119247	 0.10548
H	 1.0581128078	-5.3838450946	-0.7810922305	 0.105079
H	 0.9951947895	-5.4258500276	 0.9872785118	 0.108465
H	-1.652173962	-3.2625210784	-1.016543212	 0.082919
H	-1.7581042898	-3.2488531892	 2.0486053766	 0.116971
H	-2.5637081074	-2.0873062905	 0.9686640323	 0.120956
H	-3.0579903087	-3.7944122016	 0.9673890903	 0.123519
10.5251	69.8484	86.8843	108.2977	235.7686	245.5878	257.1217	317.4981	370.0261	435.5086	466.2329	518.4405	626.4407	757.0433	796.9043	833.3505	871.5504	924.9051	966.273	1037.9481	1049.1157	1052.2726	1055.6399	1083.1546	1122.9335	1125.7643	1195.8534	1264.6829	1274.7101	1335.8208	1371.1793	1383.3194	1399.414	1413.4083	1475.2779	1475.6312	1485.5593	1494.6904	1519.8188	1689.1134	2349.0614	2955.4734	2960.6581	2986.0455	3025.0829	3041.556	3084.056	3089.1559	3119.883	3121.9267	3225.236
CC#CC1=CCOC1C	CC#CC1=CCO[C@H]1C	
InChI=1S/C8H10O/c1-3-4-8-5-6-9-7(8)2/h5,7H,6H2,1-2H3	InChI=1S/C8H10O/c1-3-4-8-5-6-9-7(8)2/h5,7H,6H2,1-2H3/t7-/m0/s1
