20
gdb 77511	2.42543	1.59914	1.42745	0.447	79.35	-0.2286	-0.0012	0.2274	1053.825	0.170135	-403.110314	-403.101666	-403.100721	-403.142712	34.636	
C	-0.0041432698	 1.5429967492	-0.0705068184	-0.520257
C	-0.0506563432	 0.0392010201	 0.0033110635	 0.239251
N	 0.4042875072	-0.784282786	-1.1958529295	-0.364066
C	-0.3367105385	-1.9040725503	-0.4746984624	 0.239244
C	-0.6962765078	-3.1585902275	-1.2269703978	-0.520253
C	 0.5397493038	-1.9863506952	 0.7859771278	-0.119997
C	 0.7286724077	-0.7025660898	 1.1018000388	-0.120017
C	-1.3777633622	-0.813205038	-0.0118178196	 0.088634
O	-2.184141105	-0.9709151757	 1.1118348567	-0.435746
H	 1.0231225184	 1.8981469588	-0.2023178621	 0.130293
H	-0.6026198641	 1.9175667392	-0.9074298207	 0.116214
H	-0.4041928803	 1.9845233249	 0.8482055999	 0.127239
H	-0.1767731863	-0.5024656499	-1.9938509128	 0.200376
H	 0.2020269419	-3.6797367949	-1.5737215002	 0.130284
H	-1.2624556308	-3.8415573273	-0.5850847139	 0.127247
H	-1.3161876164	-2.9329244314	-2.1008711078	 0.116213
H	 0.9038658365	-2.8892135118	 1.2563144614	 0.107399
H	 1.292309089	-0.2496976996	 1.9056551207	 0.107398
H	-2.0411318154	-0.51399759	-0.8311646891	 0.079737
H	-1.5975696748	-1.2350114748	 1.8343804555	 0.270808
175.3597	175.897	209.26	211.8109	233.3966	290.5088	343.465	378.8241	480.0424	551.732	587.4623	597.4649	600.8304	635.3383	747.145	792.166	823.1229	827.3004	860.2956	896.0736	898.8254	912.8157	1053.0105	1077.4774	1078.64	1099.9677	1136.6699	1160.2931	1168.9472	1209.1268	1223.087	1268.7648	1285.6577	1349.6024	1380.0058	1410.9629	1416.6579	1445.1434	1486.5931	1488.361	1492.3363	1493.5009	1621.7238	3032.6549	3032.8202	3059.2583	3100.7714	3100.8952	3104.6054	3104.7188	3214.8996	3242.2103	3372.5781	3739.3631
CC12NC(C)(C=C1)C2O	C[C@@]12N[C@@](C)(C=C1)[C@H]2O	
InChI=1S/C7H11NO/c1-6-3-4-7(2,8-6)5(6)9/h3-5,8-9H,1-2H3	InChI=1S/C7H11NO/c1-6-3-4-7(2,8-6)5(6)9/h3-5,8-9H,1-2H3/t5-,6+,7-
