22
gdb 104115	2.43325	1.22755	1.0801	3.9666	82.39	-0.2349	0.0383	0.2731	1270.1001	0.194439	-404.414061	-404.404507	-404.403563	-404.448302	36.47	
C	 0.0982093617	 1.4248574161	 0.2619037531	-0.402702
C	-0.1375373149	-0.0821640534	 0.1259969538	-0.185306
C	-1.5965197495	-0.5049175542	-0.1818907723	 0.282996
C	-2.044012595	-0.0167268933	-1.5646741393	-0.435023
C	-1.751766349	-2.0490120554	-0.0372985824	-0.250678
C	-2.2102033545	-2.2764960108	 1.4116294411	-0.33926
C	-2.8637793049	-0.9516569252	 1.8164646907	 0.403927
O	-3.5452284618	-0.733530268	 2.7941516996	-0.382769
N	-2.5183819168	-0.0392002733	 0.8555125075	-0.318184
H	 1.1412924678	 1.6272669148	 0.5221363662	 0.121204
H	-0.1157675944	 1.9624027334	-0.6670243445	 0.119686
H	-0.523017729	 1.8556425728	 1.0541081169	 0.117723
H	 0.5073195767	-0.4861685314	-0.6647122242	 0.097305
H	 0.169212498	-0.5742424912	 1.0572360863	 0.098718
H	-1.4084360002	-0.4468294004	-2.3456898909	 0.120121
H	-3.0780625358	-0.3157628163	-1.7579138355	 0.122521
H	-1.9865925398	 1.0728039272	-1.6523206243	 0.11714
H	-2.521775548	-2.398319369	-0.731782447	 0.106124
H	-0.8231421517	-2.5672711406	-0.2883016671	 0.10388
H	-2.9155125012	-3.1004571485	 1.5334295174	 0.129096
H	-1.3746480208	-2.4652438964	 2.0945464554	 0.128794
H	-2.7716333068	 0.9296290634	 0.9714810495	 0.244684
74.3229	103.8525	127.5143	219.019	231.94	248.874	322.3248	346.1837	388.7857	475.5954	488.5461	508.4129	576.5857	601.5726	652.0556	755.1994	790.6602	827.7281	889.4084	914.6803	959.4896	1004.4721	1012.0116	1019.5745	1025.2491	1074.3175	1123.5613	1186.603	1198.297	1225.6845	1249.9935	1289.7756	1312.3756	1318.3895	1350.8015	1369.0485	1408.3457	1413.7205	1422.1794	1469.9342	1478.2302	1492.9613	1495.5056	1498.9344	1507.2379	1510.8701	1827.9591	3021.1229	3035.6628	3040.0793	3054.6673	3055.4171	3059.0744	3101.9245	3103.5	3106.0365	3110.4759	3114.9987	3120.6929	3636.2098
CCC1(C)CCC(=O)N1	CC[C@@]1(C)CCC(=O)N1	
InChI=1S/C7H13NO/c1-3-7(2)5-4-6(9)8-7/h3-5H2,1-2H3,(H,8,9)	InChI=1S/C7H13NO/c1-3-7(2)5-4-6(9)8-7/h3-5H2,1-2H3,(H,8,9)/t7-/m0/s1
