21
gdb 120291	3.1823	0.97421	0.93544	1.2758	83.12	-0.224	0.0218	0.2457	1368.5233	0.183485	-387.080499	-387.071742	-387.070798	-387.11457	33.349	
O	-0.0234235295	 1.4023502316	 0.0101560443	-0.422374
C	-0.0593786067	 0.0022695189	-0.2258906639	-0.065976
C	-1.3999314566	-0.5243943307	 0.2750112549	-0.204654
C	-1.5139605162	-2.0252178139	 0.1340088875	-0.010666
C	-2.8200275616	-2.7814181231	 0.111357071	-0.086731
C	-4.117270166	-2.0358512838	-0.2146539197	-0.271708
C	-3.9080855643	-1.54984216	-1.6342745725	-0.072532
C	-2.7389171822	-1.9583193929	-2.1346338948	-0.070902
C	-1.9510079212	-2.7429241269	-1.1422599978	-0.096739
H	 0.812264403	 1.7414499361	-0.3229226834	 0.283559
H	 0.0471509081	-0.2265143654	-1.2983945584	 0.087012
H	 0.7638122941	-0.5108239256	 0.2991629004	 0.078568
H	-1.5102407651	-0.2431297328	 1.3299405376	 0.101918
H	-2.1960476069	-0.0140312757	-0.2734531107	 0.112812
H	-0.7281129349	-2.5618183232	 0.6638920215	 0.079575
H	-2.8865990303	-3.6817909581	 0.7112027922	 0.081082
H	-4.9866923429	-2.7026473173	-0.1424118438	 0.105403
H	-4.3127625511	-1.2056778111	 0.4777087317	 0.111022
H	-4.6275541686	-0.9212458146	-2.1472886761	 0.091793
H	-2.3730169733	-1.7362147644	-3.1309986381	 0.08977
H	-1.3687918777	-3.5966656171	-1.473316502	 0.079767
58.4107	90.9499	117.9556	226.9214	261.5422	264.275	338.3422	425.0826	502.3128	558.5549	695.7537	741.6342	768.7249	781.5291	806.843	812.9983	916.9463	937.0161	950.9674	960.7035	979.3091	1014.8497	1035.697	1048.5598	1071.2929	1081.7688	1104.4248	1125.2316	1137.3877	1184.7264	1210.2272	1237.598	1248.4556	1302.169	1306.4933	1316.1223	1324.6467	1367.3932	1383.1932	1437.9379	1459.7844	1477.9358	1488.6133	1526.4003	1666.6576	2957.462	2987.1439	3012.8095	3034.8362	3036.3241	3094.3532	3114.4692	3156.2416	3172.3215	3181.9295	3206.8921	3831.42
OCCC1C2CC=CC12	OCC[C@H]1[C@H]2CC=C[C@@H]12	
InChI=1S/C8H12O/c9-5-4-8-6-2-1-3-7(6)8/h1-2,6-9H,3-5H2	InChI=1S/C8H12O/c9-5-4-8-6-2-1-3-7(6)8/h1-2,6-9H,3-5H2/t6-,7+,8-/m1/s1
