21
gdb 112082	3.07938	1.2611	0.99029	1.6216	84.21	-0.2414	0.0244	0.2658	1264.8201	0.183539	-387.093439	-387.084914	-387.08397	-387.126836	32.841	
C	-0.0055197176	 1.4029119225	 0.3671983286	-0.394997
C	 0.1887737027	-0.0880064343	 0.0789429965	-0.163775
C	 0.686049436	-0.412225562	-1.350913706	-0.067719
C	 2.0684423743	 0.1237444854	-1.626169031	-0.046602
C	 3.0651704487	-0.566707329	-2.1756449035	-0.06507
C	 2.9683816402	-1.9978251982	-2.6249354456	-0.297156
C	 1.6829257616	-2.6722597359	-2.2078314884	 0.051479
O	 1.429336488	-2.7433461372	-0.8011418785	-0.262962
C	 0.5864066725	-1.904554089	-1.6012643151	 0.034961
H	 0.9349122803	 1.9602072676	 0.3180660315	 0.120557
H	-0.7004530383	 1.8592222381	-0.3472313405	 0.111917
H	-0.4175805526	 1.551559444	 1.3701188375	 0.115192
H	 0.8924783309	-0.5273376672	 0.7942692038	 0.117313
H	-0.7669566831	-0.6062999578	 0.2300529588	 0.093315
H	-0.0138272733	 0.0702586713	-2.0537075569	 0.080094
H	 2.2407784235	 1.1610895545	-1.3522038762	 0.087213
H	 4.0255012121	-0.0813083906	-2.3325341473	 0.086277
H	 3.0517280599	-2.0510265229	-3.7206905666	 0.112227
H	 3.8206074482	-2.5754812176	-2.2399641948	 0.119275
H	 1.437807231	-3.5895611369	-2.7449824127	 0.084773
H	-0.431857585	-2.2836865246	-1.7070641938	 0.083688
66.9451	99.2558	177.7751	225.5026	272.7828	323.8474	362.8889	406.1697	482.1284	538.839	648.8602	707.124	748.6387	781.5512	825.882	874.5958	909.1684	917.3074	932.1835	971.9229	1003.2096	1020.3604	1046.6897	1059.1393	1085.4	1116.8178	1150.245	1154.9274	1211.4835	1239.5165	1268.1115	1290.7847	1314.3606	1350.8299	1361.8924	1377.8347	1388.8676	1413.5598	1433.5677	1463.9105	1480.4168	1488.8724	1501.1174	1508.9501	1731.8035	2964.8124	3000.9374	3023.8405	3025.7603	3032.1144	3071.1046	3085.7372	3099.2114	3101.6191	3106.4547	3146.0288	3170.5002
CCC1C=CCC2OC12	CC[C@H]1C=CC[C@H]2O[C@@H]12	
InChI=1S/C8H12O/c1-2-6-4-3-5-7-8(6)9-7/h3-4,6-8H,2,5H2,1H3	InChI=1S/C8H12O/c1-2-6-4-3-5-7-8(6)9-7/h3-4,6-8H,2,5H2,1H3/t6-,7+,8-/m0/s1
