19
gdb 94887	2.58969	1.82024	1.44172	2.0255	74.24	-0.2419	0.0685	0.3104	976.944	0.160114	-422.989647	-422.981943	-422.980999	-423.021406	30.996	
O	-0.0425733542	 1.3311173442	 0.8522522986	-0.440456
C	 0.0073579124	 0.1609529251	 0.0402053089	-0.001698
C	 0.9430904117	-0.9398460825	 0.634212179	-0.237833
C	 0.1023194185	-1.7174313615	 1.6971201737	-0.308902
C	-1.2940390688	-1.5721968819	 1.1513654126	 0.320828
C	-2.7061127882	-1.2374532946	 1.6723954502	-0.299012
C	-2.7560548481	-0.0584588445	 0.6267252157	-0.300261
C	-1.350616155	-0.4841705554	 0.1693824549	 0.343113
O	-1.4004351324	-1.8460731735	-0.2546191962	-0.313381
H	 0.8101750149	 1.7713438417	 0.7876202849	 0.286335
H	 0.2946315865	 0.416059177	-0.9897418189	 0.07067
H	 1.2559458747	-1.6178178285	-0.1630156396	 0.119689
H	 1.8440717005	-0.4902942596	 1.0630691444	 0.089504
H	 0.4451226159	-2.7496878416	 1.8164392365	 0.106711
H	 0.1593116284	-1.2297282717	 2.6761436271	 0.112611
H	-3.4465110446	-2.033119573	 1.5649286306	 0.108647
H	-2.7051181495	-0.8774722756	 2.7035669989	 0.111014
H	-3.5350876004	-0.0989241314	-0.1377404005	 0.105489
H	-2.7553120323	 0.9209939572	 1.1060439292	 0.12693
126.1573	185.8304	229.8044	258.42	307.5196	385.0472	449.199	481.8718	507.6622	640.7101	690.6871	740.5528	764.7712	777.8432	824.1771	859.6781	916.3159	933.764	948.6875	967.5904	988.9487	1044.1948	1081.1747	1120.2597	1170.2508	1184.6898	1194.2473	1219.1677	1223.2038	1228.1764	1244.7747	1271.2369	1305.8778	1342.7255	1350.0461	1416.4662	1438.9788	1463.1709	1468.3662	1486.5164	1490.3364	2999.1355	3047.8026	3062.1774	3068.2227	3076.6901	3087.5371	3115.3907	3122.6978	3145.1721	3828.1703
OC1CCC23CCC12O3	O[C@H]1CC[C@@]23CC[C@@]12O3	
InChI=1S/C7H10O2/c8-5-1-2-6-3-4-7(5,6)9-6/h5,8H,1-4H2	InChI=1S/C7H10O2/c8-5-1-2-6-3-4-7(5,6)9-6/h5,8H,1-4H2/t5-,6+,7+/m0/s1
