19
gdb 88454	2.90934	1.17803	1.02905	3.695	72.38	-0.2186	0.0568	0.2754	1216.0505	0.15668	-460.109961	-460.100495	-460.099551	-460.144095	36.104	
O	 0.1119258163	 1.3561765918	-0.1890496464	-0.435425
C	-0.0060952537	-0.0227428094	-0.0180692769	 0.128529
C	-0.4083588474	-0.6345346497	 1.2991581183	-0.347371
C	-1.3494030874	-0.7044894454	 0.1036790477	-0.094852
C	-2.6150138128	 0.0936645334	 0.0860533618	 0.381262
O	-2.4985222617	 1.2651039807	 0.8752927031	-0.479275
C	-3.4464493377	 0.1528206293	-1.1790015795	-0.3993
C	-3.9457235903	-0.6023801873	 0.0440850872	 0.042768
O	-3.9608212147	-1.9968676348	 0.0484833365	-0.412187
H	-0.6577611411	 1.7559918805	 0.2383865048	 0.285797
H	 0.7571493581	-0.5319405454	-0.5985846539	 0.098
H	 0.0663285897	-1.5504040049	 1.6348136711	 0.107868
H	-0.6772634729	 0.0547922966	 2.091807807	 0.126417
H	-1.4655586487	-1.6723834423	-0.3698201247	 0.098533
H	-3.1991931037	 1.8769930571	 0.6308957881	 0.289656
H	-3.9397585157	 1.0835163098	-1.4470529101	 0.106873
H	-3.0981741209	-0.432010837	-2.0239833193	 0.127737
H	-4.7462030344	-0.1281159745	 0.615849034	 0.084496
H	-4.637659231	-2.2903979385	-0.5708564287	 0.290474
59.503	128.8924	155.8542	201.0048	229.6602	267.7187	308.9452	387.512	404.1393	457.7755	467.5044	503.1592	506.4724	628.7891	715.5135	791.1646	800.1515	831.7551	891.7221	938.4184	947.6301	998.6294	1021.152	1029.9747	1048.8742	1068.1402	1083.2664	1125.6012	1144.664	1163.9671	1193.4586	1229.6221	1265.8313	1291.2455	1333.7476	1364.5685	1411.9602	1445.2154	1463.2368	1485.4735	1506.6172	3076.8189	3116.1201	3132.8792	3156.624	3179.9913	3210.5634	3225.0944	3743.1684	3799.2202	3835.4161
OC1CC1C1(O)CC1O	O[C@H]1C[C@H]1[C@@]1(O)C[C@H]1O	
InChI=1S/C6H10O3/c7-4-1-3(4)6(9)2-5(6)8/h3-5,7-9H,1-2H2	InChI=1S/C6H10O3/c7-4-1-3(4)6(9)2-5(6)8/h3-5,7-9H,1-2H2/t3-,4+,5-,6+/m1/s1
