16
gdb 126326	2.88498	1.42344	1.02825	2.625	76.63	-0.2591	-0.0928	0.1662	1139.2542	0.123439	-434.033357	-434.025015	-434.024071	-434.066652	30.525	
C	 0.0936307572	 1.4863165567	 0.182024518	-0.381324
C	-0.0171831108	-0.0309474809	-0.0657712062	-0.282555
C	-1.4339199169	-0.5224966895	-0.0387995053	 0.212816
C	-2.1161097239	-0.8766963137	-1.1417656303	-0.075795
N	-3.44443839	-1.310774905	-1.1090907254	-0.104284
N	-4.0932502802	-1.4141718323	-0.0762449518	 0.046499
O	-3.4303635004	-1.0681888241	 1.1921041608	-0.291124
C	-2.1315148225	-0.6322672266	 1.2462895733	 0.379243
N	-1.568106917	-0.3504674107	 2.3499135487	-0.524123
H	 1.1430061604	 1.7917672206	 0.1456824234	 0.123324
H	-0.4516101542	 2.0506406913	-0.5807300838	 0.119046
H	-0.3083141512	 1.7423961615	 1.1637618419	 0.155931
H	 0.4274691181	-0.28387002	-1.0339075843	 0.107218
H	 0.5425270233	-0.55808344	 0.7130169125	 0.143312
H	-1.6894578722	-0.8486420544	-2.1364724733	 0.138957
H	-2.2084307499	-0.497761593	 3.1315706419	 0.232859
86.0313	91.0768	160.496	213.7764	255.8454	308.8323	370.3489	441.4069	528.8992	568.5042	608.1761	619.8076	777.3483	782.3753	802.5465	876.2004	907.3431	925.1961	965.8122	1031.8693	1069.8156	1080.3031	1116.2408	1207.8084	1281.3987	1303.7202	1349.3014	1397.4985	1424.122	1474.4546	1494.6763	1512.1609	1608.0468	1672.6471	1720.1036	3046.2619	3047.5037	3093.8528	3116.9189	3146.6212	3215.4214	3482.5345
CCC1=CN=NOC1=N	CCC1=C(O[N]N=C1)[NH]	
InChI=1S/C5H7N3O/c1-2-4-3-7-8-9-5(4)6/h3,6H,2H2,1H3	InChI=1S/C5H7N3O/c1-2-4-3-7-8-9-5(4)6/h3,6H,2H2,1H3
