20
gdb 13412	5.04969	1.0976	1.00197	1.2517	71.79	-0.244	0.0838	0.3278	1234.9048	0.177496	-386.136409	-386.127808	-386.126863	-386.170437	30.572	
C	-0.0415924708	 1.3794179086	-0.7918249679	-0.224217
O	-0.1924546876	-0.0183251529	-0.7423332303	-0.234159
C	 0.9883679205	-0.6879391567	-0.3608869004	-0.067013
C	 0.7009002866	-2.1868610202	-0.3395010079	 0.11191
C	 0.4638432622	-2.792795517	-1.7378774076	-0.240263
C	 1.8237039517	-3.428365672	-2.0723489793	-0.220509
C	 2.3021393903	-3.8564352054	-0.6841835214	-0.059285
O	 1.8538408848	-2.8387194865	 0.205162917	-0.275387
H	 0.2386129103	 1.7950369768	 0.1890274672	 0.105178
H	 0.7254918661	 1.6827841817	-1.522239462	 0.102674
H	-1.0027476897	 1.8034526456	-1.0931248558	 0.125691
H	 1.8093755297	-0.472561772	-1.066691193	 0.080342
H	 1.3226152216	-0.3674937476	 0.6388515716	 0.095577
H	-0.1608004076	-2.3591922073	 0.3184489317	 0.080174
H	-0.313545703	-3.5615755022	-1.6920400377	 0.102815
H	 0.1389599561	-2.0344261506	-2.4529269709	 0.116557
H	 1.7511598778	-4.2607678612	-2.776491921	 0.100493
H	 2.5089478683	-2.6859079246	-2.4945449662	 0.106728
H	 1.8680880343	-4.8301166519	-0.4044637012	 0.088
H	 3.3900364586	-3.9312606846	-0.5918654349	 0.104695
50.1599	91.1495	108.8991	172.1737	236.5801	241.1028	333.9888	400.9835	471.6047	600.2325	710.6616	828.616	880.493	896.8049	929.0742	944.7701	1004.5827	1006.7441	1007.7976	1100.13	1110.199	1155.7991	1172.0658	1185.4995	1196.6113	1208.8431	1229.8135	1244.6113	1264.6481	1312.3166	1321.9778	1338.8076	1373.4855	1394.4243	1422.6177	1481.1551	1485.933	1488.8621	1500.2536	1504.8899	1524.7144	1526.7173	2952.5472	2970.835	2972.2304	2994.416	3013.3036	3020.7141	3050.967	3060.6527	3077.1279	3106.5932	3111.7203	3119.9898
COCC1CCCO1	COC[C@H]1CCCO1	
InChI=1S/C6H12O2/c1-7-5-6-3-2-4-8-6/h6H,2-5H2,1H3	InChI=1S/C6H12O2/c1-7-5-6-3-2-4-8-6/h6H,2-5H2,1H3/t6-/m1/s1
