14
gdb 43617	7.1549	0.60448	0.59505	3.303	82.86	-0.2665	-0.0479	0.2186	1749.1714	0.099698	-399.544004	-399.535656	-399.534712	-399.578193	29.618	
O	-0.0017389264	 0.0644715299	-0.2834455524	-0.27031
C	-0.0142543636	 1.2259279529	-0.010780181	 0.404406
C	-1.136828934	 2.2361841032	 0.2799263471	-0.348923
C	-0.0312726427	 3.2305672	 0.7940293517	-0.204157
C	 1.0871670915	 2.2673033726	 0.2494391557	-0.348926
C	-0.057251859	 4.5741440161	 0.2702410797	 0.123648
C	-0.0791719795	 5.6956372759	-0.1814489699	 0.027638
C	-0.1039852284	 6.9621327257	-0.6891315107	 0.208346
N	-0.1251606982	 8.0402525798	-1.12180659	-0.334482
H	-1.6285903883	 2.5769311523	-0.6358409623	 0.155486
H	-1.8986300814	 1.9291798107	 0.9993187446	 0.149024
H	-0.0167347021	 3.2626460276	 1.8871685216	 0.133742
H	 1.8766537255	 1.9819854666	 0.9475972538	 0.149024
H	 1.5439657765	 2.6213207268	-0.679307848	 0.155485
42.5305	83.1053	116.5075	220.3787	245.5704	396.7089	436.3382	442.3704	519.6855	567.7502	585.905	601.3883	673.5663	708.2158	843.6052	911.2941	943.7057	992.1327	1042.5981	1090.275	1175.1661	1194.6861	1200.1447	1228.7777	1229.3179	1352.6363	1425.6508	1443.3882	1908.6603	2264.0402	2397.2057	3069.1212	3069.5392	3073.8154	3133.2661	3133.4353
O=C1CC(C1)C#CC#N	O=C1CC(C1)C#CC#N	
InChI=1S/C7H5NO/c8-3-1-2-6-4-7(9)5-6/h6H,4-5H2	InChI=1S/C7H5NO/c8-3-1-2-6-4-7(9)5-6/h6H,4-5H2
