14
gdb 9864	5.97806	0.93635	0.86012	1.7587	81.17	-0.2457	-0.0276	0.2181	1297.6829	0.103983	-345.328876	-345.320551	-345.319607	-345.361723	30.117	
C	-0.027991643	 1.5065313329	 0.0203408472	-0.468367
C	-0.0159797799	-0.0065110058	-0.0571454957	 0.142725
C	 0.7716734674	-0.6992024538	-1.1018533077	-0.206349
O	 1.2515495063	-0.6291698612	 0.2353440915	-0.249524
C	-1.1678008523	-0.674424061	 0.4963105983	 0.442689
C	-2.1531145677	-1.1939300003	 0.9708224953	-0.235871
C	-3.2550072204	-1.7906269325	 1.4987833198	 0.293193
C	-4.2344337457	-2.3193380111	 1.9672908303	-0.570246
H	 0.8890488012	 1.9083521043	-0.4170806133	 0.132138
H	-0.8898616531	 1.9122470396	-0.5174503252	 0.136095
H	-0.0912566063	 1.8324249043	 1.0623531191	 0.142523
H	 0.4616807614	-1.6857021201	-1.4407615123	 0.12641
H	 1.3120649661	-0.0961677836	-1.8310653373	 0.119666
H	-5.093878694	-2.7865348718	 2.37990793	 0.194919
82.1219	101.2124	194.9324	226.3335	263.9601	325.4533	362.0515	487.2016	502.6869	533.7947	547.9927	584.7622	597.521	611.1667	786.0492	856.9369	925.301	1023.7668	1067.5056	1097.201	1137.4606	1167.8316	1293.1883	1364.2705	1408.8027	1477.6538	1493.337	1519.2512	2181.9666	2357.9341	3046.5395	3082.5752	3119.8568	3132.0704	3177.3807	3505.0948
CC1(CO1)C#CC#C	C[C@]1(CO1)C#CC#C	
InChI=1S/C7H6O/c1-3-4-5-7(2)6-8-7/h1H,6H2,2H3	InChI=1S/C7H6O/c1-3-4-5-7(2)6-8-7/h1H,6H2,2H3/t7-/m1/s1
