17
gdb 78429	5.2176	1.21886	1.18846	1.9639	70.57	-0.231	0.0743	0.3053	1041.893	0.137007	-421.730101	-421.723529	-421.722585	-421.760723	27.589	
O	-0.0981004864	 1.4160983919	-0.0299916955	-0.431763
C	 0.0047509598	 0.0246240873	-0.0069806819	 0.077009
C	-0.4204131689	-0.6951710396	 1.2588248579	-0.13
C	-1.3141067467	-0.6940507772	 0.0195887127	-0.086736
C	-1.3196750481	-2.1660591294	-0.3386360181	-0.055453
C	 0.0801954262	-2.7892070378	-0.0464055286	 0.025079
O	-0.5199240065	-4.0552103937	 0.3843453935	-0.316333
C	-1.3526259902	-3.012258264	 0.9845890868	 0.052077
C	-0.0865740487	-2.168283516	 1.3759455998	-0.054
H	 0.6461647869	 1.7783252608	 0.4624546165	 0.288145
H	 0.8229655035	-0.3837099321	-0.6013842028	 0.087773
H	-0.6633505356	-0.1005475616	 2.1314891823	 0.093419
H	-2.2163784592	-0.0973253699	-0.0316493361	 0.101769
H	-1.8735622639	-2.5307629101	-1.2022314261	 0.082464
H	 0.9634314058	-2.8473030335	-0.6832022094	 0.094115
H	-2.2020015156	-3.3223424538	 1.5951719838	 0.09255
H	 0.5557865077	-2.5375072712	 2.1741305754	 0.079886
183.796	257.5659	314.4608	343.9826	404.1714	476.1116	501.8338	692.2359	741.9171	764.9796	782.7823	855.0727	865.2479	877.226	891.4707	910.5004	925.3307	980.3432	991.688	1006.1653	1024.9772	1077.3045	1087.705	1120.0169	1141.8712	1159.6158	1165.6129	1179.8995	1183.5393	1222.2942	1253.9284	1276.8775	1282.2443	1304.8594	1321.4142	1355.0489	1454.7241	3086.2548	3106.2182	3110.3929	3135.2463	3140.9232	3181.9517	3195.0218	3804.4777
OC1C2C1C1C3OC1C23	O[C@H]1[C@H]2[C@@H]1[C@H]1[C@@H]3O[C@H]1[C@H]23	
InChI=1S/C7H8O2/c8-5-1-2(5)4-6-3(1)7(4)9-6/h1-8H	InChI=1S/C7H8O2/c8-5-1-2(5)4-6-3(1)7(4)9-6/h1-8H/t1-,2+,3-,4+,5-,6-,7+
