16
gdb 78625	2.69155	1.73599	1.3616	3.7636	68.49	-0.2386	0.0008	0.2394	959.1058	0.123213	-437.8338	-437.826048	-437.825104	-437.865704	30.093	
C	 0.0901091745	 1.5899321762	-0.1410557264	-0.430817
C	 0.0733815627	 0.0833853277	 0.0251727498	-0.025716
N	 1.0230361195	-0.7435929048	-0.8566394764	-0.231585
C	 1.2109765182	-1.692525241	 0.3300067995	-0.076546
C	 2.2693892588	-0.7339081031	 0.8761447103	-0.312764
C	 2.3504803786	-0.1580220046	-0.4843395007	 0.439522
O	 3.1157572866	 0.4647684941	-1.1505690792	-0.324479
C	 0.7203196	-0.6316302365	 1.2185897972	 0.36481
O	 0.2636693512	-0.7814811913	 2.5000923268	-0.451836
H	 1.0746702606	 2.0209852681	 0.0589174233	 0.137403
H	-0.1947185478	 1.8598027282	-1.1624389756	 0.145992
H	-0.6334338912	 2.0470530482	 0.5420086811	 0.120583
H	-0.9358222334	-0.3121466546	-0.1301366517	 0.099372
H	 1.184093086	-2.7701766127	 0.2873248189	 0.129748
H	 2.9991767453	-0.8826989932	 1.6609725883	 0.117766
H	 0.4187930503	 0.0369767793	 2.985636625	 0.298547
137.6423	180.1218	204.4854	227.8423	302.3302	347.0338	410.0288	505.6975	545.487	605.1385	648.8998	698.8126	797.3247	804.855	838.7484	860.2794	899.2379	930.034	947.7867	963.7896	1068.6339	1078.4596	1093.0249	1111.6756	1147.0471	1200.7875	1227.3853	1249.1297	1296.6609	1387.5566	1413.64	1467.6889	1492.1948	1494.6883	1915.6658	3041.7662	3057.1441	3110.3565	3123.8306	3210.0993	3247.6404	3793.5232
CC1N2C3C(C2=O)C13O	C[C@H]1N2[C@H]3[C@@H](C2=O)[C@@]13O	
InChI=1S/C6H7NO2/c1-2-6(9)3-4(6)7(2)5(3)8/h2-4,9H,1H3	InChI=1S/C6H7NO2/c1-2-6(9)3-4(6)7(2)5(3)8/h2-4,9H,1H3/t2-,3+,4+,6+/m1/s1
