20
gdb 103258	2.62234	1.30186	1.11375	3.9166	79.41	-0.2411	0.0088	0.25	1194.6233	0.170117	-403.150557	-403.141466	-403.140522	-403.1844	34.495	
C	 0.234794714	 1.3104406434	 0.3509756619	-0.382418
C	-0.1594472963	-0.0816836541	-0.1603439183	-0.261053
C	 0.67659524	-0.5628906618	-1.3386654118	 0.319009
C	 0.4695570599	 0.2128652727	-2.6307562304	-0.462652
C	 2.0642804163	-1.1238619566	-1.1703676386	-0.054354
N	 2.2422390511	-1.8994329257	 0.0589557064	-0.345607
C	 1.1653561513	-2.7548690525	-0.2500965926	 0.408802
O	 0.6606265159	-3.6507083295	 0.3656929531	-0.348283
C	 0.9403414722	-2.0645226499	-1.5866045034	-0.284454
H	 1.2860934134	 1.3348366312	 0.6585604922	 0.113152
H	 0.0953853502	 2.0837464543	-0.4103697995	 0.120844
H	-0.3733455078	 1.5892313985	 1.2165772789	 0.119983
H	-0.0942377841	-0.7975020839	 0.6642254603	 0.115597
H	-1.2133491026	-0.0782951184	-0.4657709169	 0.105568
H	 0.7095687229	 1.2724140221	-2.4990658955	 0.127249
H	 1.1036189573	-0.1731728594	-3.4348926592	 0.120358
H	-0.5717478987	 0.1435325455	-2.9632296701	 0.127253
H	 2.9257934047	-0.8183072928	-1.7512273287	 0.108088
H	 2.3795662415	-1.4931847686	 0.9776721792	 0.241403
H	 0.7447283787	-2.5320385246	-2.541515117	 0.111515
58.8468	121.7428	179.5416	204.7282	222.5137	276.5666	309.0674	355.1183	441.6156	460.663	529.7674	610.5138	672.7104	725.4917	775.6237	782.8976	845.702	854.9923	913.5994	951.5525	1000.3913	1021.154	1024.4476	1052.0921	1058.9594	1077.8225	1124.3985	1140.3092	1179.9304	1251.5292	1291.9892	1310.3948	1326.4249	1365.0382	1395.1018	1408.6448	1416.8857	1480.6448	1491.583	1500.1714	1503.7004	1508.9211	1891.8714	3031.6358	3035.3638	3036.8675	3076.9331	3100.45	3102.9965	3106.1057	3113.2376	3188.8849	3218.4136	3546.0122
CCC1(C)C2NC(=O)C12	CC[C@@]1(C)[C@H]2NC(=O)[C@@H]12	
InChI=1S/C7H11NO/c1-3-7(2)4-5(7)8-6(4)9/h4-5H,3H2,1-2H3,(H,8,9)	InChI=1S/C7H11NO/c1-3-7(2)4-5(7)8-6(4)9/h4-5H,3H2,1-2H3,(H,8,9)/t4-,5-,7+/m0/s1
