17
gdb 67061	2.95014	1.46548	1.0299	2.0641	82.12	-0.2083	-0.0238	0.1845	1142.8079	0.137063	-418.033036	-418.02492	-418.023975	-418.065634	31.786	
N	 1.683594109	 1.2041334497	 0.0774780925	-0.583375
C	 0.7233322864	 0.2188841957	-0.0967485443	 0.278935
C	 0.3876838092	-0.3714134453	-1.2549884324	-0.195532
C	-0.703327902	-1.4032908678	-1.3174474148	-0.359384
C	-1.6560435908	-1.2556921131	-0.1666398269	 0.414538
C	-2.9708451024	-1.4350553332	-0.2062465504	-0.426686
O	-1.0820982685	-0.9588865981	 1.0617634082	-0.268121
C	 0.0360812241	-0.1808498229	 1.1526717848	 0.367227
N	 0.4933324666	 0.1756313233	 2.2818728729	-0.535881
H	 1.9933650711	 1.2729147538	 1.0382575284	 0.266967
H	 2.4356720341	 1.1998420776	-0.5947851279	 0.243598
H	 0.9255714619	-0.1362692521	-2.1683141508	 0.087413
H	-1.2700086891	-1.3216743501	-2.2501546957	 0.125373
H	-0.2735150847	-2.4192184981	-1.3145690807	 0.127719
H	-3.5776655868	-1.3241076446	 0.6832827249	 0.115808
H	-3.4572170928	-1.7131365494	-1.1317090963	 0.112785
H	-0.0858886052	-0.1868355153	 3.0394429485	 0.228616
81.1689	115.0013	232.5856	331.5687	354.5778	364.6764	403.5507	430.3408	515.2025	523.102	545.9103	639.2106	711.0729	748.0125	765.7381	777.5928	816.859	876.2236	888.3207	889.4805	945.8349	975.4723	1028.8089	1136.1571	1154.5532	1193.3749	1258.1081	1266.3628	1329.3337	1354.2687	1429.9924	1445.2589	1474.2556	1623.6702	1703.8595	1733.1696	1750.8202	2959.3905	3071.6955	3171.2499	3175.9283	3267.3116	3492.4726	3548.5952	3663.4742
NC12C3CC1(C3)OC2=N	NC1=C(OC(=C)C[CH]1)[NH]	
InChI=1S/C6H8N2O/c7-4-6(8)3-1-5(6,2-3)9-4/h3,7H,1-2,8H2	InChI=1S/C6H8N2O/c1-4-2-3-5(7)6(8)9-4/h3,8H,1-2,7H2
