20
gdb 107150	4.33212	1.00099	0.94439	2.2557	79.91	-0.2509	0.0804	0.3313	1324.4023	0.170403	-403.090053	-403.081402	-403.080457	-403.123572	33.045	
C	 0.250132615	 1.5059267198	 0.2290098295	-0.380473
C	-0.1015116085	 0.038019848	-0.0475072591	-0.277984
C	 0.5021785583	-0.4659452871	-1.3264102785	 0.361143
C	 0.0613504973	-0.0773565824	-2.7575914149	-0.403111
C	 0.3873564579	-1.5274816567	-3.1723135218	 0.458822
C	-0.2772315536	-2.3714511741	-4.1618626851	-0.269545
O	 1.0685358302	-1.9097633034	-4.3586376928	-0.275246
C	 0.8481781429	-1.8680030617	-1.7745572434	-0.202966
N	 1.8847628602	-0.928183633	-1.3360835845	-0.361664
H	 1.3342177062	 1.6353333858	 0.3044565387	 0.129563
H	-0.112342251	 2.1606444138	-0.5710298645	 0.11598
H	-0.198466786	 1.8468446588	 1.1667575945	 0.114015
H	 0.2581403517	-0.5901049452	 0.7743486437	 0.112118
H	-1.1915470897	-0.082128447	-0.092090956	 0.096077
H	-1.0027540505	 0.1583696589	-2.8499927433	 0.112152
H	 0.647563809	 0.7118534429	-3.2390103463	 0.109415
H	-0.3796317525	-3.4416454118	-3.9839715553	 0.117307
H	-1.0232613601	-1.9391237247	-4.8279634163	 0.115725
H	 0.7652348816	-2.8215753343	-1.2649470634	 0.093784
H	 2.4309340114	-0.5656182067	-2.1158324213	 0.234888
69.1193	90.7515	172.7643	218.429	282.2347	309.7121	354.7073	403.9723	429.7597	511.604	593.6717	677.0257	781.5879	810.8751	814.7908	848.2952	896.5315	941.8738	955.2729	972.0449	1003.3382	1008.1619	1061.5555	1104.5762	1118.2286	1127.1422	1149.0671	1154.5658	1169.6391	1186.2043	1227.0329	1240.3842	1271.072	1328.3741	1347.3347	1406.8611	1435.9749	1441.7225	1475.0168	1482.9337	1498.4823	1508.438	1537.9958	3026.551	3034.7369	3047.2398	3072.8525	3076.9121	3101.2701	3104.1647	3112.6716	3162.3247	3176.3595	3463.8868
CCC12CC3(CO3)C1N2	CC[C@]12C[C@]3(CO3)[C@H]1N2	
InChI=1S/C7H11NO/c1-2-6-3-7(4-9-7)5(6)8-6/h5,8H,2-4H2,1H3	InChI=1S/C7H11NO/c1-2-6-3-7(4-9-7)5(6)8-6/h5,8H,2-4H2,1H3/t5-,6-,7-/m0/s1
