20
gdb 28929	2.87674	1.37135	1.00966	2.0055	87.3	-0.1919	0.0428	0.2348	1222.7781	0.172067	-366.033929	-366.025412	-366.024468	-366.068209	32.711	
C	-0.2005567439	 1.4850716617	 0.0899148598	-0.503564
C	-0.0569627582	 0.0012736073	-0.0118964034	 0.301379
C	-0.09677011	-0.8065801129	-1.1282217416	-0.24444
C	 0.0906606723	-2.1485165318	-0.7040061928	-0.172348
C	 0.2397292539	-2.1237522853	 0.6610354509	-0.115038
N	 0.1502895292	-0.8152001254	 1.0852724426	-0.045754
C	 0.2535555031	-0.359673449	 2.4423703035	 0.075232
C	-0.3009478499	-1.1684032641	 3.5849743807	-0.285549
C	 1.1953770738	-1.0127142897	 3.4188633348	-0.285564
H	 0.6895785827	 1.971537689	 0.5089057225	 0.126039
H	-0.3549911586	 1.8969190148	-0.9101312301	 0.132046
H	-1.0581598558	 1.7890293975	 0.7036427946	 0.126038
H	-0.2455645024	-0.4587685269	-2.13954048	 0.086172
H	 0.1138467039	-3.0308863741	-1.3248584519	 0.090044
H	 0.4014431983	-2.9257379778	 1.3626316624	 0.113218
H	 0.1489674675	 0.7149645301	 2.5072921819	 0.107678
H	-0.7958402957	-0.640832546	 4.3928668109	 0.119487
H	-0.7377727978	-2.1312096714	 3.3451362544	 0.127717
H	 1.7562364902	-1.871718557	 3.0683213274	 0.127716
H	 1.7358763375	-0.377386849	 4.1117980236	 0.11949
17.6605	137.9909	188.132	194.5475	243.1339	299.2873	418.9379	466.6787	588.9007	624.1812	639.8519	698.3984	702.5125	765.5034	780.3117	806.293	827.6614	893.6245	916.6554	942.0922	993.1008	1043.9758	1059.4216	1063.3218	1072.3039	1084.574	1105.7565	1123.6982	1169.701	1196.9826	1229.9265	1264.2382	1331.9449	1361.597	1418.9222	1445.0271	1459.9	1463.6747	1483.5698	1492.2256	1505.3706	1531.8469	1598.8717	3012.0973	3054.9115	3118.7014	3136.627	3139.4529	3203.1791	3218.1417	3233.4166	3237.2223	3251.0591	3271.5618
CC1=CC=CN1C1CC1	Cc1cccn1C1CC1	
InChI=1S/C8H11N/c1-7-3-2-6-9(7)8-4-5-8/h2-3,6,8H,4-5H2,1H3	InChI=1S/C8H11N/c1-7-3-2-6-9(7)8-4-5-8/h2-3,6,8H,4-5H2,1H3
