21
gdb 112884	2.6061	1.23557	0.9382	3.8298	80.16	-0.228	0.0655	0.2935	1331.3984	0.183739	-420.470802	-420.461292	-420.460348	-420.505643	34.891	
C	 0.0947827091	 1.4824212073	 0.0725560932	-0.384527
C	-0.0162160682	-0.0429062475	-0.0397242397	-0.150476
N	-1.3743010537	-0.5470057572	-0.0080343149	-0.104062
C	-2.2444799514	-0.4582621114	 1.1491963191	-0.175542
C	-3.5344446197	-1.1469502509	 0.6465650533	 0.048504
C	-4.8151833679	-0.6093845063	 1.2725459197	-0.399671
N	-3.4370971626	-0.8840254349	-0.7875044571	-0.368189
C	-2.1059624828	-0.7198455896	-1.1688652562	 0.450908
O	-1.6744395563	-0.7193625761	-2.3030916162	-0.43062
H	 1.1452357966	 1.7874837442	 0.0326753922	 0.118044
H	-0.4332324438	 1.9671994993	-0.7537794662	 0.137021
H	-0.3228745768	 1.8536295133	 1.0141587958	 0.114286
H	 0.4059763338	-0.3772653936	-0.9908202	 0.142036
H	 0.5524281745	-0.523778821	 0.7661607598	 0.09759
H	-1.8166026562	-0.9664180481	 2.0198664344	 0.10975
H	-2.4534987257	 0.5854254729	 1.433038626	 0.101129
H	-3.4583062893	-2.2272926385	 0.8495420985	 0.081224
H	-4.9195199005	 0.4613389281	 1.0743290859	 0.128049
H	-5.6948377491	-1.1191533224	 0.8667984137	 0.119292
H	-4.8092817621	-0.7683985306	 2.35610892	 0.119475
H	-4.0109238279	-1.4050574473	-1.4332212411	 0.245778
51.4125	79.4101	147.1167	184.7405	207.8253	239.7273	285.4108	321.5104	385.8655	457.7762	526.2716	543.1189	612.4435	693.4414	763.299	785.1152	799.8468	877.7679	954.5968	963.7902	969.4796	1072.7439	1083.6193	1097.8618	1144.0053	1160.5737	1191.3886	1237.3023	1261.8122	1283.9956	1339.2819	1354.644	1383.1809	1395.6365	1410.2124	1411.4545	1419.46	1455.1641	1477.4503	1492.1676	1495.1793	1498.8087	1501.8991	1530.1418	1826.9285	2963.515	2976.496	3026.9799	3035.6489	3038.1894	3060.4192	3095.9185	3103.9126	3112.0724	3117.4043	3121.3051	3625.4032
CCN1CC(C)NC1=O	CCN1C[C@@H](C)NC1=O	
InChI=1S/C6H12N2O/c1-3-8-4-5(2)7-6(8)9/h5H,3-4H2,1-2H3,(H,7,9)	InChI=1S/C6H12N2O/c1-3-8-4-5(2)7-6(8)9/h5H,3-4H2,1-2H3,(H,7,9)/t5-/m1/s1
