21
gdb 38377	2.12832	2.09425	1.32896	0.5634	77.35	-0.2336	0.0754	0.3091	1032.5173	0.185499	-424.212239	-424.204566	-424.203622	-424.244123	30.825	
C	 0.0060470207	 1.4833347046	-0.3224709925	-0.296358
C	 1.5171528247	 1.5442137544	-0.0163021742	 0.147492
C	 1.9423652301	 2.3461608503	 1.2144734866	-0.239834
C	 1.5942997302	 1.6828508901	 2.5538286648	-0.060518
O	 0.2407359693	 1.26583623	 2.6604958858	-0.258748
C	 0.0002886068	-0.1294201157	 2.547100881	-0.060518
C	-0.6082324526	-0.5536818818	 1.2037071516	-0.239834
C	 0.1374099832	-0.0244527723	-0.0221260227	 0.147492
O	 1.5711090565	 0.1048837244	 0.1834901797	-0.314443
H	-0.6290005146	 2.0393434026	 0.3660960851	 0.118729
H	-0.2625739437	 1.7234293004	-1.3528221182	 0.098188
H	 2.1329687174	 1.8304208705	-0.8778344772	 0.073197
H	 3.0275492705	 2.5118191447	 1.2081920457	 0.098712
H	 1.4754211117	 3.3370619742	 1.1458528465	 0.105295
H	 2.2609656027	 0.8272406728	 2.7140267344	 0.106763
H	 1.7793124969	 2.4013088302	 3.3626057603	 0.095209
H	 0.9333942188	-0.6821078924	 2.7084262323	 0.106763
H	-0.6916542604	-0.4079921202	 3.3521751653	 0.09521
H	-0.6340020033	-1.6510979947	 1.1927367999	 0.098712
H	-1.6503687657	-0.2167330933	 1.1326573736	 0.105295
H	-0.0646819793	-0.6681466489	-0.8871108277	 0.073197
140.5684	147.1053	213.2527	325.0004	327.4311	350.7763	362.1032	470.5682	591.1951	625.379	712.8074	787.3931	807.5734	845.4628	846.0053	927.9809	933.7339	935.0967	963.6508	987.0615	1056.2138	1078.1144	1088.582	1112.2979	1131.3295	1154.373	1161.1928	1224.2488	1243.9705	1266.4138	1291.4767	1295.4765	1301.2359	1348.4538	1353.3332	1380.1236	1384.0727	1401.3314	1414.6434	1436.3783	1471.6893	1471.9572	1481.607	1483.6438	1514.4304	3008.7873	3010.8275	3014.9212	3018.8472	3027.2375	3030.4513	3050.4972	3051.5619	3067.7545	3069.4855	3081.4498	3146.205
C1C2CCOCCC1O2	C1[C@H]2CCOCC[C@@H]1O2	
InChI=1S/C7H12O2/c1-3-8-4-2-7-5-6(1)9-7/h6-7H,1-5H2	InChI=1S/C7H12O2/c1-3-8-4-2-7-5-6(1)9-7/h6-7H,1-5H2/t6-,7+
