17
gdb 82713	2.39053	2.16601	1.62253	2.6022	72.89	-0.2256	-0.01	0.2156	891.6581	0.13705	-417.935391	-417.928293	-417.927349	-417.966734	28.098	
C	 0.0326824701	 1.5883862815	 0.0927060976	-0.406487
C	 0.0624692869	 0.0807838378	-0.0123994401	 0.029191
C	 0.7616045209	-0.6062997644	-1.2128492827	 0.064237
O	 2.0741561181	-0.0419164873	-1.4645452739	-0.297818
C	 2.6762440007	-0.8218946348	-0.3866268784	-0.031172
C	 1.3578884058	-1.6077554897	-0.2057948862	-0.032347
N	 0.9781151175	-0.688202586	 0.9496299369	-0.186154
C	 2.3178866001	-0.1316431953	 0.9305384308	 0.383976
N	 2.8260586438	 0.6515990749	 1.7742948447	-0.522069
H	 0.9956172028	 2.0215656916	-0.1853279039	 0.140503
H	-0.7347543648	 1.9925342449	-0.5755729603	 0.1183
H	-0.2032910658	 1.8957264281	 1.1155475698	 0.142866
H	-0.9393637832	-0.344924593	 0.1177866208	 0.093825
H	 0.2211488861	-0.8048859776	-2.1403505984	 0.087915
H	 3.6777289131	-1.1774663888	-0.635772416	 0.090245
H	 1.2106856604	-2.6799699273	-0.1142229039	 0.097977
H	 3.7952609876	 0.8622738953	 1.5294365932	 0.227014
146.3122	156.7758	206.5004	268.7444	369.6011	452.0351	552.6185	633.5489	659.9773	733.3032	788.7369	817.8075	831.928	864.8054	889.6617	920.1262	942.2291	947.6692	972.8243	989.0148	1025.2806	1069.6486	1109.3936	1151.1656	1174.3154	1180.1932	1214.5319	1249.2925	1253.743	1268.8122	1303.386	1323.2017	1369.6098	1407.934	1480.157	1496.5606	1781.5627	3038.6136	3046.3968	3094.1525	3097.7291	3114.0201	3136.9986	3160.6422	3466.258
CC1C2OC3C2N1C3=N	C[C@H]1[C@H]2O[C@@H]3[C@H]2N1[C]3[NH]	
InChI=1S/C6H8N2O/c1-2-4-3-5(9-4)6(7)8(2)3/h2-5,7H,1H3	InChI=1S/C6H8N2O/c1-2-4-3-5(9-4)6(7)8(2)3/h2-5,7H,1H3/t2-,3-,4+,5+/m0/s1
