17
gdb 87611	2.77523	1.52959	1.14139	2.832	75.65	-0.2167	-0.0167	0.2	1085.6502	0.137063	-418.033754	-418.025641	-418.024697	-418.066271	30.942	
C	-0.0758884058	 1.5185558825	-0.0974312627	-0.398085
C	-0.0069557994	 0.0211599002	 0.0621861837	-0.029096
N	 1.2780931542	-0.6222560824	-0.1745267363	-0.372298
C	 0.7347387358	-0.627609153	 1.2008669722	 0.222187
C	 1.3785716611	 0.0227565756	 2.3648762569	-0.265071
C	 1.1460215362	-0.7526872983	 3.4328925988	-0.029646
N	 0.4097272981	-1.8996283325	 3.0813719343	-0.360205
C	 0.1650599593	-1.927474366	 1.7238088325	 0.376009
O	-0.3682593079	-2.8115602879	 1.0853011335	-0.393907
H	 0.8632836458	 1.9879408314	 0.2046236041	 0.12818
H	-0.2588656862	 1.7781487797	-1.1455620696	 0.12726
H	-0.8894991526	 1.9385763154	 0.502546076	 0.122946
H	-0.8917691551	-0.5326152501	-0.2494814569	 0.108974
H	 1.1246786494	-1.5562678792	-0.5576637653	 0.246319
H	 1.9106495876	 0.9599468888	 2.3539586848	 0.117424
H	 1.4315719476	-0.6043512634	 4.4639473027	 0.135031
H	 0.1994365218	-2.6709451609	 3.6920644713	 0.263977
115.4776	151.4736	185.5076	195.9395	267.7947	323.8109	441.2744	456.1123	509.2058	577.6204	610.764	706.9946	724.7127	738.8503	827.2213	843.5235	880.255	893.9976	985.6944	1032.8752	1051.0088	1067.9486	1095.1708	1124.0832	1142.6841	1195.6802	1255.7025	1276.6498	1342.3848	1379.7083	1404.1444	1416.279	1460.6429	1486.5124	1498.4429	1648.7823	1820.4648	3039.3009	3102.5468	3115.8853	3133.4401	3242.2338	3270.7219	3455.093	3669.0612
CC1NC11C=CNC1=O	C[C@H]1N[C@]21C=CNC2=O	
InChI=1S/C6H8N2O/c1-4-6(8-4)2-3-7-5(6)9/h2-4,8H,1H3,(H,7,9)	InChI=1S/C6H8N2O/c1-4-6(8-4)2-3-7-5(6)9/h2-4,8H,1H3,(H,7,9)/t4-,6+/m1/s1
