19
gdb 111557	2.62756	1.62522	1.24172	2.662	74.48	-0.2233	0.0602	0.2835	1050.5273	0.159464	-422.959787	-422.951678	-422.950734	-422.992208	32.181	
O	 0.3445490433	 0.2837370719	 0.9202122271	-0.426771
C	-0.1668252973	 0.3764720272	-0.4162462285	-0.130933
C	-1.5119716789	-0.3283916843	-0.3866459353	-0.034333
C	-2.2194192767	-0.8973790726	-1.6591070556	-0.104816
C	-1.1942378913	-1.8472093439	-2.3413814854	-0.239333
C	-1.3174908143	-2.7014355681	-1.0846406927	-0.134592
C	-2.6932933844	-2.1261107582	-0.7687368851	-0.15344
C	-1.5500966748	-1.7592094449	 0.1236806322	 0.425188
O	-1.3347927713	-2.1565823608	 1.424537945	-0.477313
H	 1.2312547306	 0.655457967	 0.9348756007	 0.291453
H	-0.2724255901	 1.4282985627	-0.7229072811	 0.088897
H	 0.5194500279	-0.1130232744	-1.1196237632	 0.09347
H	-2.2278220775	 0.2684201889	 0.1896653403	 0.081822
H	-2.8680774347	-0.2541872125	-2.249861073	 0.069811
H	-1.6465887945	-2.3457352242	-3.204647404	 0.098311
H	-0.2188245304	-1.4427734219	-2.6361201213	 0.082542
H	-0.9849701623	-3.7163656024	-0.9080839226	 0.085633
H	-3.6524786814	-2.5897155	-0.5931340993	 0.094055
H	-0.5351779019	-1.6919455796	 1.7049092919	 0.290349
90.4547	150.3076	208.7842	273.0062	321.1449	340.9835	395.7093	420.4515	483.1448	582.7003	637.3456	680.2757	749.2976	799.798	833.0747	872.1598	912.9628	939.6449	954.5252	990.43	1002.0034	1011.6799	1047.8103	1081.2047	1092.3432	1109.3319	1128.2557	1146.5868	1178.0569	1206.5033	1230.6403	1243.5039	1268.2857	1277.4788	1292.058	1343.368	1403.0967	1451.9054	1478.4914	1507.0122	1521.3419	2983.9196	3022.2257	3033.6914	3055.1808	3079.2534	3135.4462	3199.1669	3229.5666	3769.1438	3831.7769
OCC1C2CC3C2C13O	OC[C@H]1[C@H]2C[C@@H]3[C@H]2[C@]13O	
InChI=1S/C7H10O2/c8-2-5-3-1-4-6(3)7(4,5)9/h3-6,8-9H,1-2H2	InChI=1S/C7H10O2/c8-2-5-3-1-4-6(3)7(4,5)9/h3-6,8-9H,1-2H2/t3-,4-,5+,6+,7-/m1/s1
