20
gdb 13134	3.90353	1.08106	0.92481	2.2969	71.2	-0.2411	0.0756	0.3167	1281.1142	0.176035	-386.117378	-386.108183	-386.107239	-386.151995	32.592	
C	-0.3282933812	 1.5200074706	-0.0622035132	-0.401649
C	 0.1325939854	 0.0762095332	-0.0439316916	 0.143951
O	 1.3988196505	-0.1096378559	-0.7228250442	-0.291016
C	 1.9400983933	-0.8539905215	 0.3838846364	-0.078145
C	 0.6971718075	-0.5674363967	 1.2573776805	-0.060112
C	 0.9108277663	 0.3285480963	 2.4725186505	-0.191225
C	 1.5671862222	-0.4127265704	 3.6315777821	-0.076412
O	 1.7415622289	 0.5101880226	 4.6949670542	-0.420317
H	 0.4038217068	 2.1840617707	 0.4038124389	 0.123379
H	-0.4703226654	 1.8444489646	-1.0979946283	 0.126115
H	-1.2850959131	 1.6282330953	 0.4600154722	 0.115398
H	-0.6383748112	-0.5571154843	-0.5078670844	 0.068449
H	 2.1029005883	-1.9099006708	 0.1297317056	 0.094126
H	 2.8872747908	-0.4269040005	 0.7389884141	 0.097929
H	 0.1509369168	-1.4681354945	 1.5545359518	 0.070942
H	 1.5411955926	 1.1867570642	 2.2133170176	 0.113159
H	-0.0466899523	 0.7337129769	 2.8210926382	 0.107474
H	 0.9308440332	-1.2599738052	 3.9371768793	 0.084373
H	 2.533399106	-0.834211592	 3.3078932507	 0.08751
H	 2.1682422246	 0.0525756274	 5.4250967297	 0.286071
52.1735	96.2645	110.2848	133.3118	226.2412	263.0752	264.821	340.8713	386.6942	436.6483	515.6381	741.2602	800.6312	859.0949	877.4921	899.5313	959.6943	993.6845	1032.0282	1038.7399	1079.9613	1091.7159	1116.6721	1158.3368	1161.5127	1189.8672	1228.3533	1236.7797	1269.0012	1293.0187	1315.8495	1326.4978	1363.0335	1387.9333	1395.7944	1409.4056	1463.948	1482.0357	1491.0048	1498.9403	1526.5074	1527.7793	2955.8764	2980.2358	2981.8543	3001.3483	3033.4234	3037.0727	3040.0356	3055.7607	3081.3798	3105.8602	3124.8993	3830.6513
CC1OCC1CCO	C[C@H]1OC[C@H]1CCO	
InChI=1S/C6H12O2/c1-5-6(2-3-7)4-8-5/h5-7H,2-4H2,1H3	InChI=1S/C6H12O2/c1-5-6(2-3-7)4-8-5/h5-7H,2-4H2,1H3/t5-,6-/m1/s1
