18
gdb 16667	3.20105	2.1117	1.5466	2.3926	66.2	-0.2522	0.0703	0.3225	865.4435	0.154679	-384.932659	-384.925285	-384.92434	-384.964254	28.767	
C	 0.0345987996	 1.585478198	-0.0368544192	-0.394259
C	 0.0465023473	 0.0604885503	 0.0010767334	 0.004491
C	 0.7271960982	-0.6230723372	-1.2186831193	-0.264254
C	 1.2676309552	-1.9331802189	-0.6697191721	 0.048711
O	 2.4702711404	-1.7691825409	 0.1048510349	-0.263563
C	 1.2207681536	-1.9166307014	 0.8007734676	-0.007822
C	 0.7187937037	-0.5465765851	 1.2730651846	 0.097073
O	 1.7823349478	 0.2268658416	 1.7953233882	-0.430755
H	 1.0525783033	 1.9830683549	-0.0100496414	 0.123629
H	-0.4555885269	 1.950442822	-0.9454607903	 0.106982
H	-0.5003689371	 1.9986304917	 0.8242556723	 0.116636
H	-0.9906377623	-0.3010909817	 0.0190659376	 0.073944
H	 0.0197486873	-0.7885933828	-2.0367520266	 0.103823
H	 1.5518454703	-0.0223194197	-1.6192300965	 0.113929
H	 1.2299042839	-2.851537216	-1.2500236877	 0.100189
H	 1.1368115798	-2.8056109429	 1.4198745947	 0.100494
H	-0.0123715518	-0.6429177218	 2.0818057942	 0.081059
H	 2.5533318477	 0.0049547298	 1.2551454456	 0.289693
67.4802	211.0612	242.3587	273.756	335.7174	402.3119	483.6188	497.3547	564.3086	679.6077	710.0234	778.6294	821.6519	865.1861	888.5898	924.4979	941.9297	995.6618	1015.9262	1051.8232	1100.0441	1107.4886	1137.3167	1166.9174	1205.8132	1248.7601	1267.3875	1290.5712	1312.1982	1320.9807	1357.6568	1365.1827	1408.0732	1424.5033	1447.1167	1485.3167	1491.7345	1496.4714	3007.5591	3036.9698	3043.7411	3063.521	3088.8826	3101.445	3118.1547	3144.1644	3157.307	3749.554
CC1CC2OC2C1O	C[C@H]1C[C@H]2O[C@H]2[C@H]1O	
InChI=1S/C6H10O2/c1-3-2-4-6(8-4)5(3)7/h3-7H,2H2,1H3	InChI=1S/C6H10O2/c1-3-2-4-6(8-4)5(3)7/h3-7H,2H2,1H3/t3-,4+,5-,6+/m0/s1
