19
gdb 107043	3.97907	1.08423	0.96913	2.1839	76.58	-0.2332	0.009	0.2422	1240.347	0.159231	-423.008604	-422.9999	-422.998956	-423.04184	33.368	
O	-0.0158294297	 1.3532043364	 0.3804420747	-0.420447
C	 0.0190324095	-0.0035762613	-0.0488268639	-0.188324
C	-1.3927465693	-0.5170660046	-0.0819070471	 0.351208
C	-2.0472452684	-1.0705498426	 1.1685901054	-0.324494
C	-1.7536659351	-1.9843403871	-0.0012936524	-0.136919
C	-2.87761301	-2.2533894862	-1.0094805707	 0.081423
O	-4.0045277531	-2.9474316283	-0.4887120043	-0.432298
C	-3.1959542918	-0.865137371	-1.545292252	-0.133092
C	-2.3758312083	 0.0642882911	-1.0547922686	-0.141272
H	 0.8638398311	 1.7253674175	 0.2671709761	 0.287558
H	 0.4673777987	-0.0854759467	-1.0517292085	 0.089903
H	 0.6214604286	-0.6237118145	 0.6341322566	 0.083761
H	-1.4244547856	-1.1976127415	 2.048573338	 0.114653
H	-3.0675948946	-0.7667581791	 1.380751576	 0.104836
H	-0.9917130981	-2.7425207874	 0.1366923052	 0.086823
H	-2.5156825002	-2.9084253586	-1.8120388307	 0.091842
H	-4.32632649	-2.4432421027	 0.267136994	 0.275814
H	-4.0279921757	-0.6976544163	-2.219649063	 0.099497
H	-2.3979932177	 1.125586683	-1.2733758249	 0.109527
82.8842	120.1389	204.2386	213.3076	257.5662	294.6415	348.0609	370.6953	399.6113	495.3584	582.7827	672.7217	714.0916	754.7941	795.9798	868.0582	902.631	947.7342	957.5929	965.9456	989.2493	1011.4921	1053.9263	1066.8567	1074.9321	1078.6501	1090.0501	1134.8719	1220.4438	1241.3907	1260.983	1263.1951	1296.6448	1316.3658	1362.5251	1400.3713	1426.9041	1463.53	1483.4677	1517.6145	1671.6743	2964.4452	2994.9482	3028.7181	3119.2326	3176.0812	3191.0323	3206.4458	3215.6221	3797.0231	3826.9672
OCC12CC1C(O)C=C2	OC[C@]12C[C@H]1[C@@H](O)C=C2	
InChI=1S/C7H10O2/c8-4-7-2-1-6(9)5(7)3-7/h1-2,5-6,8-9H,3-4H2	InChI=1S/C7H10O2/c8-4-7-2-1-6(9)5(7)3-7/h1-2,5-6,8-9H,3-4H2/t5-,6-,7-/m0/s1
