15
gdb 13044	4.25977	1.27993	1.03063	3.3277	62.87	-0.2516	-0.0265	0.2251	1076.5192	0.118076	-399.802289	-399.794484	-399.79354	-399.835572	27.045	
N	-0.1650578963	 1.1794290497	-0.3197789712	-0.538985
C	-0.0522498916	-0.0370877063	-0.0399096988	 0.441116
O	 1.027081388	-0.7641764446	 0.413860123	-0.249225
C	 0.2195393075	-1.9782315851	 0.5203205889	-0.105135
C	-1.0090185309	-1.2182074385	-0.0313244037	-0.142344
C	-2.2529419029	-1.1022598647	 0.8547162272	-0.301805
C	-3.2788152676	-0.1347099865	 0.2855215921	 0.148479
O	-4.4425616852	-0.4086946211	 0.1399015966	-0.239711
H	 0.7115625664	 1.6849644371	-0.1822279245	 0.234005
H	 0.6246633931	-2.7757260322	-0.1059614823	 0.128761
H	 0.1469770694	-2.3068804402	 1.5604001172	 0.125891
H	-1.2836273712	-1.5333602538	-1.0419309084	 0.123097
H	-2.7346271203	-2.0752619646	 0.9889335567	 0.126731
H	-1.9555060567	-0.7267096748	 1.8440188848	 0.128492
H	-2.8724562216	 0.8606485256	 0.0109886523	 0.120632
62.5307	81.8627	119.4866	180.0508	273.7226	344.7574	444.7437	503.9743	652.143	739.8615	803.0664	823.5906	866.4206	927.4237	964.1864	990.7633	1019.1852	1069.7043	1098.306	1140.7705	1162.2323	1196.5001	1232.4162	1257.7429	1295.2712	1348.5775	1378.7367	1427.0586	1461.8384	1515.5234	1822.3228	1830.5987	2932.7299	3018.3319	3063.435	3075.8254	3098.1314	3125.6424	3480.0909
N=C1OCC1CC=O	[NH][C]1OC[C@H]1CC=O	
InChI=1S/C5H7NO2/c6-5-4(1-2-7)3-8-5/h2,4,6H,1,3H2	InChI=1S/C5H7NO2/c6-5-4(1-2-7)3-8-5/h2,4,6H,1,3H2/t4-/m1/s1
