18
gdb 91778	2.43532	1.73781	1.25684	0.7037	72.13	-0.2396	-0.0337	0.2059	1037.5709	0.147296	-439.083862	-439.075339	-439.074395	-439.116826	32.262	
C	-0.2208930329	 1.4840876688	 0.1193563558	-0.483882
C	 0.0496810929	 0.0111600135	-0.0311078498	 0.20322
C	-0.7526335399	-1.0389271184	 0.6885018544	-0.280352
N	 0.623459653	-0.7763849916	 1.0863512387	-0.141736
C	 1.5760628006	-1.7638254724	 0.5107015408	-0.179169
C	 1.4053477584	-1.799919827	-1.0118539151	-0.015639
O	 0.6382957022	-2.9339278841	-1.4088001784	-0.423423
C	 0.6214077951	-0.499258386	-1.3160776395	 0.352804
O	 0.5153588051	 0.0036839236	-2.4084438908	-0.337597
H	 0.7032402319	 2.0638556069	 0.0314840889	 0.129434
H	-0.9023720179	 1.8189691702	-0.6680906593	 0.139723
H	-0.6690862397	 1.6977175899	 1.0923529433	 0.128041
H	-1.5099268861	-0.6888900763	 1.3851297684	 0.124146
H	-0.9794838452	-1.9698463536	 0.1768064606	 0.143273
H	 2.5849824136	-1.4297161648	 0.7691765721	 0.118469
H	 1.412363044	-2.748347367	 0.9558204444	 0.128924
H	 2.3686949735	-1.7766331657	-1.5372699493	 0.097444
H	 0.4435340413	-2.833373306	-2.3485984352	 0.296318
86.17	137.1176	183.5213	218.4075	263.3968	306.0176	374.6734	391.1186	436.649	474.3166	591.2083	636.4084	684.2986	775.1157	800.85	829.316	899.6556	922.0408	982.7719	1008.3381	1030.7132	1086.4608	1106.7445	1112.8023	1124.6088	1173.2463	1221.1218	1257.4841	1309.8143	1318.3203	1345.3892	1367.5869	1407.4547	1414.2134	1481.8656	1482.512	1492.6938	1506.682	1828.0177	3021.8952	3044.8146	3062.6249	3108.015	3111.8019	3114.1704	3130.2574	3203.4046	3789.1514
CC12CN1CC(O)C2=O	C[C@]12CN1C[C@@H](O)C2=O	
InChI=1S/C6H9NO2/c1-6-3-7(6)2-4(8)5(6)9/h4,8H,2-3H2,1H3	InChI=1S/C6H9NO2/c1-6-3-7(6)2-4(8)5(6)9/h4,8H,2-3H2,1H3/t4-,6-,7?/m1/s1
