20
gdb 17114	4.47687	1.44762	1.36991	1.2978	74.31	-0.2612	0.0795	0.3407	985.6934	0.179775	-348.989419	-348.982163	-348.981219	-349.020835	28.878	
O	-0.145704064	 1.4506298603	-0.0892488645	-0.422874
C	 0.0137477317	 0.0443641975	 0.0552293627	-0.109216
C	-1.3666650072	-0.587393016	-0.0265441473	 0.061267
C	-2.0842165143	-0.4255622357	-1.4106808495	-0.217815
C	-2.3761034646	-1.90795012	-1.7184811937	-0.007871
C	-2.8653818609	-2.435219527	-0.3377840314	-0.223873
C	-1.3943281079	-2.130059773	 0.0720098003	-0.03537
C	-1.0199820573	-2.5851951213	-1.3715417426	-0.222791
H	 0.7269353112	 1.8541655073	-0.080994122	 0.284801
H	 0.6688831638	-0.3591328885	-0.7326533081	 0.081886
H	 0.4769981549	-0.2031944847	 1.024753592	 0.080277
H	-1.9699195533	-0.1464150392	 0.774919445	 0.073664
H	-2.9938219079	 0.1770258471	-1.3423476601	 0.095492
H	-1.4340720673	 0.0399364105	-2.1575786639	 0.098591
H	-2.9100131008	-2.1321846861	-2.6427981433	 0.054553
H	-3.6650297462	-1.8878579462	 0.1715845257	 0.085615
H	-3.0861719445	-3.5052260557	-0.3470210292	 0.091717
H	-0.9389775573	-2.5814155621	 0.9552850683	 0.05332
H	-1.0526466952	-3.6718596378	-1.4816407508	 0.093024
H	-0.109542673	-2.1931116795	-1.8339571875	 0.085604
99.3299	171.2055	211.2128	278.3949	377.6033	430.3788	476.3067	528.0591	646.8586	823.5767	830.8605	836.5135	852.668	866.853	918.8929	946.1878	977.8272	991.2622	1025.4712	1031.7585	1048.001	1077.9048	1082.4097	1098.7296	1123.1857	1141.59	1185.221	1217.0147	1241.0374	1242.6653	1255.9175	1258.448	1285.3602	1293.9478	1320.4426	1331.2883	1383.7978	1460.0907	1489.8108	1498.4526	1518.7905	1530.0638	2959.5409	2988.9308	3042.6214	3046.8912	3054.4214	3057.5309	3097.2797	3098.5803	3104.9608	3109.9228	3115.2571	3830.6726
OCC1CC2CC1C2	OC[C@H]1C[C@@H]2C[C@H]1C2	
InChI=1S/C7H12O/c8-4-7-3-5-1-6(7)2-5/h5-8H,1-4H2	InChI=1S/C7H12O/c8-4-7-3-5-1-6(7)2-5/h5-8H,1-4H2/t5-,6+,7-/m1/s1
