14
gdb 50050	3.17731	0.78467	0.65726	2.8699	87.25	-0.2466	-0.042	0.2046	1610.2422	0.098429	-399.468349	-399.459538	-399.458594	-399.502794	31.41	
O	-0.2734287099	 0.3660829144	 0.8546018986	-0.251225
C	 0.2981679411	 0.7461846356	-0.1346614469	 0.178894
C	 1.3693482984	 1.7864940129	-0.1104130315	-0.11587
N	 2.3329643508	 1.7243723147	-1.217688775	-0.310804
C	 1.4151666214	 2.869060344	-1.1700234171	-0.321804
C	 0.4322090718	 2.9938318993	-2.2064088872	 0.477052
C	-0.4002866612	 3.149256164	-3.0714025117	-0.200363
C	-1.3365886543	 3.3129097217	-4.0434245027	 0.297553
C	-2.1684071018	 3.4592831292	-4.9063810936	-0.553387
H	 0.0764853138	 0.348157328	-1.1465725961	 0.102695
H	 1.7017484468	 2.0728962061	 0.8842634306	 0.115928
H	 3.2573890661	 2.000416695	-0.8970147601	 0.252931
H	 1.8105481144	 3.8176617418	-0.8102302981	 0.13072
H	-2.9006127575	 3.5853378434	-5.6650380392	 0.197681
53.7943	97.8998	116.1865	191.9943	248.0825	315.4688	326.3853	458.1965	476.1054	523.6471	546.2197	573.9017	605.9324	616.5201	714.8061	816.3043	888.9214	919.3245	984.8233	1039.8351	1094.5102	1144.1268	1181.784	1209.8784	1253.8327	1360.9261	1411.1971	1444.8289	1827.8665	2184.0624	2359.9908	2927.7991	3119.5642	3153.2495	3503.5342	3513.9601
O=CC1NC1C#CC#C	O=C[C@H]1N[C@H]1C#CC#C	
InChI=1S/C7H5NO/c1-2-3-4-6-7(5-9)8-6/h1,5-8H	InChI=1S/C7H5NO/c1-2-3-4-6-7(5-9)8-6/h1,5-8H/t6-,7+/m0/s1
