19
gdb 68677	2.27905	1.77785	1.47647	2.1208	74.78	-0.2436	-0.0172	0.2264	1006.4799	0.159668	-423.044955	-423.036868	-423.035924	-423.077225	31.47	
C	 0.0435327738	 1.5665287513	 0.0701275672	-0.472382
C	-0.0406060313	 0.0641992331	-0.0386509951	 0.274714
C	 0.6198962807	-0.5655564117	-1.2767781708	-0.2298
C	 0.2284537586	-2.0594214843	-1.3932300395	-0.233983
C	 0.0626849665	-2.7345284668	-0.0100719173	-0.207592
C	-0.4886865362	-1.7087030822	 0.984742506	-0.025814
O	 0.4993772541	-0.6469900996	 1.1309340035	-0.332375
C	-1.3660037772	-0.6645217632	 0.2726544626	 0.373788
O	-2.5292879473	-0.423177706	 0.1638395539	-0.312114
H	 1.0803439059	 1.9058879882	-0.0218996351	 0.128112
H	-0.5425071631	 2.0307739527	-0.7287627252	 0.134655
H	-0.3504743916	 1.90462077	 1.0315920008	 0.134276
H	 0.3330277359	-0.0284761701	-2.1872947434	 0.106292
H	 1.7018019118	-0.4456843083	-1.1494424345	 0.114673
H	-0.7300883407	-2.1225055888	-1.9217621268	 0.119037
H	 0.9529521121	-2.6015281885	-2.0073528874	 0.103329
H	-0.5978383419	-3.6048563644	-0.0849887566	 0.108792
H	 1.0235827816	-3.0810832253	 0.3854746271	 0.117756
H	-0.8118944116	-2.1217546261	 1.9431481605	 0.098636
129.2299	160.5585	204.0878	222.4471	242.2164	318.2891	438.4781	459.1307	485.7391	529.7458	649.549	698.2388	777.1935	821.6537	847.4081	862.8118	880.0289	922.3926	931.7246	986.1746	1035.6982	1054.7509	1078.2672	1094.9303	1149.0602	1199.9033	1207.5442	1239.3587	1267.389	1296.2114	1312.2453	1354.5013	1369.5867	1376.9051	1405.3826	1467.0834	1474.2589	1479.5298	1492.2427	1501.3088	1911.645	3035.2955	3037.3783	3042.3772	3042.9138	3078.7934	3084.921	3092.7953	3096.2422	3112.6605	3127.8362
CC12CCCC(O1)C2=O	C[C@@]12CCC[C@@H](O1)C2=O	
InChI=1S/C7H10O2/c1-7-4-2-3-5(9-7)6(7)8/h5H,2-4H2,1H3	InChI=1S/C7H10O2/c1-7-4-2-3-5(9-7)6(7)8/h5H,2-4H2,1H3/t5-,7+/m1/s1
