16
gdb 22679	3.05695	1.00721	0.80402	1.3845	76.5	-0.2414	-0.0362	0.2051	1382.4488	0.121098	-437.78034	-437.771023	-437.770079	-437.815556	33.233	
O	-0.454501864	 1.7227888416	 0.4351125742	-0.381563
N	 0.0083870821	 0.4826696466	 0.8489817319	-0.159268
C	-0.7048353577	-0.4903467632	 0.3991914813	 0.154746
C	-0.2618711868	-1.8824640168	 0.7907338098	-0.318143
C	 0.2457836931	-2.6943243794	-0.384044426	 0.096879
C	 0.1596881364	-4.1593311449	-0.3997508267	-0.182588
O	-0.7279620373	-3.3627485882	-1.1853524587	-0.222255
C	-1.8513465794	-0.3342222471	-0.4295862061	 0.38533
C	-2.8306924808	-0.2412716615	-1.122838924	-0.472863
H	 0.1683175198	 2.3264891882	 0.8554016703	 0.310822
H	 0.536840197	-1.7771353121	 1.5317230213	 0.128829
H	-1.0973627882	-2.4203228348	 1.2520795639	 0.120261
H	 1.0445300802	-2.2221149496	-0.9580565736	 0.100869
H	 0.8919889237	-4.7394975868	-0.959176522	 0.116697
H	-0.2982693563	-4.6782192242	 0.4419024227	 0.114054
H	-3.690462982	-0.1580421179	-1.7410518784	 0.208193
38.5522	68.5173	119.0122	150.2519	269.7219	272.0374	315.5777	356.4073	425.3699	454.04	469.4035	633.3913	640.7209	659.4435	730.971	776.7598	805.732	863.5862	942.0899	957.3157	1037.4139	1096.2946	1105.6422	1157.9899	1169.4595	1220.679	1277.6873	1292.7896	1317.8678	1402.6801	1438.049	1453.3053	1529.3711	1676.0837	2223.3396	3044.7038	3081.6072	3094.8132	3108.6543	3168.2951	3500.6506	3809.5778
ON=C(CC1CO1)C#C	ON=C(C[C@H]1CO1)C#C	
InChI=1S/C6H7NO2/c1-2-5(7-8)3-6-4-9-6/h1,6,8H,3-4H2	InChI=1S/C6H7NO2/c1-2-5(7-8)3-6-4-9-6/h1,6,8H,3-4H2/t6-/m0/s1
