18
gdb 32956	3.77042	0.97086	0.89729	1.5641	76.07	-0.2337	-0.0016	0.2321	1373.9859	0.147057	-439.113846	-439.104668	-439.103724	-439.149153	31.947	
C	 0.0501809013	 0.546647043	-0.321670341	-0.238389
O	-0.2516159418	 0.2461714604	 1.0271899127	-0.228149
C	 0.7422040436	-0.5326073487	 1.6677935852	-0.178963
C	 0.7754201325	-1.9539871326	 1.203203927	 0.353621
N	 1.6253046356	-2.5226914708	 0.406270485	-0.294834
C	 1.1694522588	-3.8290126722	 0.2865683349	-0.197115
C	 0.0451893621	-3.9893845798	 1.0285287886	 0.324416
C	-0.8803822497	-5.1157662956	 1.3037844772	-0.495161
O	-0.2165270829	-2.7845619026	 1.6254672893	-0.196685
H	 0.1453404912	-0.3571885425	-0.9382177291	 0.122576
H	-0.7743052067	 1.154439516	-0.7011733978	 0.127476
H	 0.9868274754	 1.1189535084	-0.4053924177	 0.10792
H	 1.7449723166	-0.1114000664	 1.5115115382	 0.118008
H	 0.5038036514	-0.4985040426	 2.73485739	 0.124599
H	 1.6819125262	-4.5579669758	-0.3213260426	 0.119972
H	-0.9186389881	-5.3518222918	 2.372979352	 0.143834
H	-1.9013144524	-4.8831999445	 0.9814653214	 0.145332
H	-0.546080553	-6.0068355619	 0.7678500968	 0.141541
28.5016	92.4606	123.8299	142.2469	202.6313	223.8219	279.7423	352.8312	402.2035	468.2844	633.1065	654.998	706.731	804.5214	849.1567	930.9105	951.0566	991.4793	1020.7917	1040.2724	1067.3962	1124.35	1152.5588	1183.0696	1214.5406	1229.908	1255.8194	1311.3832	1366.4217	1398.7413	1419.4314	1468.2211	1472.462	1482.2514	1485.8981	1490.5188	1509.6064	1596.7089	1644.6713	2986.3073	3016.4133	3034.6545	3045.4547	3087.4917	3093.6302	3120.8721	3130.7806	3261.3151
COCC1=NC=C(C)O1	COCc1ncc(C)o1	
InChI=1S/C6H9NO2/c1-5-3-7-6(9-5)4-8-2/h3H,4H2,1-2H3	InChI=1S/C6H9NO2/c1-5-3-7-6(9-5)4-8-2/h3H,4H2,1-2H3
