21
gdb 117951	2.43854	0.93925	0.71054	3.7751	76.55	-0.2605	-0.0263	0.2342	1618.72	0.178333	-461.374487	-461.363449	-461.362505	-461.411989	38.432	
C	 0.2572766854	 0.8418845142	-0.9222362429	-0.386539
C	-0.0315498969	-0.2607761128	 0.0817372867	-0.039983
O	-1.2792397338	-0.8486648046	-0.2500863984	-0.259605
C	-1.6369513608	-1.9805585762	 0.5169383967	 0.037628
C	-2.1527999367	-1.6386682632	 1.9182664788	-0.403427
C	-2.6784635746	-2.7698138342	-0.2751615828	 0.330952
O	-3.2932622564	-3.6861630544	 0.2294026061	-0.335472
C	-2.9236313953	-2.4125323894	-1.7304487528	-0.126213
O	-3.8680168713	-3.2674695085	-2.3036750438	-0.426634
H	 1.2147869705	 1.3196773369	-0.6951544166	 0.119837
H	 0.301660943	 0.4370743764	-1.9371366658	 0.129076
H	-0.5263590763	 1.6039985028	-0.8905706878	 0.131084
H	 0.7595352881	-1.0284338559	 0.0560595293	 0.09145
H	-0.0549774345	 0.1491183169	 1.1023605368	 0.097854
H	-0.7665473947	-2.6558422617	 0.6101357501	 0.10021
H	-2.5292836932	-2.5453851995	 2.3961398022	 0.148026
H	-1.3595215741	-1.2171093484	 2.540129958	 0.120419
H	-2.9676299596	-0.9118377566	 1.8509307945	 0.130009
H	-3.2419123595	-1.3595874223	-1.7731022545	 0.129487
H	-1.9604652945	-2.4514234034	-2.2630918165	 0.119513
H	-4.1298085946	-3.871746846	-1.5907316174	 0.292327
37.2626	58.713	75.2695	119.6393	144.5743	211.0624	238.5803	249.1769	297.5552	343.72	374.7569	392.8896	438.0749	488.1681	556.2864	668.3246	812.1063	823.2402	868.7085	937.393	946.5277	1023.1288	1084.7529	1100.9453	1128.1033	1147.3843	1161.5302	1186.3116	1189.205	1233.1917	1297.9025	1302.6263	1332.4952	1344.5592	1392.1775	1403.1763	1434.2907	1448.4534	1475.624	1483.7282	1490.6566	1495.873	1500.1447	1529.2957	1793.4005	2940.518	2968.2466	2993.4802	3008.304	3010.2204	3046.7672	3051.5229	3122.0957	3123.9626	3125.0694	3142.7088	3685.4736
CCOC(C)C(=O)CO	CCO[C@@H](C)C(=O)CO	
InChI=1S/C6H12O3/c1-3-9-5(2)6(8)4-7/h5,7H,3-4H2,1-2H3	InChI=1S/C6H12O3/c1-3-9-5(2)6(8)4-7/h5,7H,3-4H2,1-2H3/t5-/m0/s1
