19
gdb 74795	2.69861	1.68822	1.52384	2.0038	75.13	-0.2502	-0.001	0.2492	976.4288	0.161808	-423.030992	-423.023665	-423.02272	-423.062427	29.603	
C	-0.0612636335	 1.503309574	 0.0539601877	-0.514224
C	-0.0797824887	 0.0133774653	-0.022893257	 0.320736
C	-0.0954494138	-0.7818872358	-1.0981799856	-0.204942
C	 0.0397092862	-2.2338446633	-0.6504820695	 0.07765
C	-0.6136946338	-2.179007892	 0.7411910267	-0.225896
C	 0.0622585309	-0.8835839915	 1.2145580063	 0.028469
O	 1.4497297206	-1.1876067555	 1.4648661451	-0.280647
C	 2.1286241957	-1.6303323109	 0.3029935829	 0.030077
O	 1.4242515451	-2.596406163	-0.447194216	-0.277953
H	 0.8496749972	 1.8525256462	 0.55561282	 0.14187
H	-0.1054225049	 1.9630460246	-0.937053066	 0.126708
H	-0.9051094723	 1.8802442845	 0.645640017	 0.129868
H	-0.0885932125	-0.4618910986	-2.1337024447	 0.097486
H	-0.3596778215	-2.9784214638	-1.3399135829	 0.075895
H	-1.6991842866	-2.0661413298	 0.6735525305	 0.096372
H	-0.3575167325	-3.0396036868	 1.3618300846	 0.105721
H	-0.3170381084	-0.4528716626	 2.1432357247	 0.072472
H	 2.3702027997	-0.7675099077	-0.3351855617	 0.084843
H	 3.0507531032	-2.1065102136	 0.6437784479	 0.115493
144.9662	172.3823	237.8811	327.9685	349.4539	414.4097	472.4449	475.4558	596.9295	619.299	670.7227	816.9576	839.1933	859.985	872.2199	911.3077	937.2285	952.4876	990.6915	1007.3503	1018.7499	1052.0796	1065.0937	1120.2076	1142.0305	1176.1842	1187.4616	1257.4786	1272.8195	1292.978	1311.9225	1336.7164	1361.162	1367.3363	1409.7634	1442.9594	1476.2356	1476.693	1485.2029	1516.4213	1699.4067	2987.8044	3019.8538	3064.1471	3068.6809	3095.7142	3103.1802	3109.7462	3111.8092	3128.4722	3197.6746
CC1=CC2CC1OCO2	CC1=C[C@@H]2C[C@H]1OCO2	
InChI=1S/C7H10O2/c1-5-2-6-3-7(5)9-4-8-6/h2,6-7H,3-4H2,1H3	InChI=1S/C7H10O2/c1-5-2-6-3-7(5)9-4-8-6/h2,6-7H,3-4H2,1H3/t6-,7-/m1/s1
