15
gdb 123806	5.62225	0.98526	0.88905	4.0389	69.29	-0.2437	-0.0242	0.2196	1263.7455	0.111325	-453.895015	-453.887174	-453.88623	-453.928577	28.362	
C	-0.3601320745	 1.0895216302	-0.1936070102	-0.277857
C	 1.0983471013	 1.0631017897	 0.2218939167	-0.291623
C	 0.3652549456	-0.2097915631	-0.0274635303	 0.127341
O	 0.0996841358	-0.9835186605	 1.1370046421	-0.264039
C	-0.8930848393	-1.8579040762	 1.0683456607	 0.500752
C	-1.3550013071	-2.6955851967	 2.0564037492	-0.245224
N	-2.3725371675	-3.4067782319	 1.496812613	-0.074231
N	-2.586453661	-3.1124384109	 0.3072842652	-0.03211
O	-1.5744997167	-2.0301848749	-0.0397606482	-0.244348
H	-1.0860963902	 1.3493380142	 0.5679547389	 0.135192
H	-0.6219282662	 1.3993982383	-1.1985994744	 0.132616
H	 1.8592066088	 1.3602929863	-0.4901236913	 0.129454
H	 1.3214919269	 1.3011397521	 1.2554230736	 0.13714
H	 0.5935331135	-0.8185900428	-0.8949621063	 0.127109
H	-1.0318350894	-2.8199899237	 3.0736348813	 0.139827
47.2788	66.9482	138.0382	281.3969	301.4283	361.8689	423.2372	515.6719	669.7324	724.706	740.4279	757.6614	759.1584	829.3392	842.7989	953.0852	970.6344	995.8521	1058.4161	1066.707	1079.6482	1119.6824	1143.7014	1172.3016	1190.8854	1238.0162	1321.9912	1383.8462	1412.6076	1455.6748	1484.942	1497.7773	1611.2703	3145.7943	3148.161	3177.0844	3229.6464	3242.8827	3305.7767
C1CC1OC1=CN=NO1	C1CC1Oc1cnno1	
InChI=1S/C5H6N2O2/c1-2-4(1)8-5-3-6-7-9-5/h3-4H,1-2H2	InChI=1S/C5H6N2O2/c1-2-4(1)8-5-3-6-7-9-5/h3-4H,1-2H2
