17
gdb 30929	2.31379	1.39201	0.90383	4.6845	74.84	-0.1875	0.0215	0.209	1263.3807	0.135516	-455.170706	-455.161601	-455.160657	-455.204685	33.208	
C	 0.2357572768	 1.537952556	 0.1195642289	-0.49421
C	-0.0163175265	 0.0802563885	 0.0411346419	 0.239322
C	-1.1167642045	-0.6764565261	-0.0785050283	 0.239259
C	-2.5594217329	-0.3374445357	-0.1637983884	-0.20854
O	-3.1165941568	-1.0733432983	-1.2510663247	-0.420006
N	-0.7030074945	-2.0147889786	-0.0214822891	-0.378988
C	 0.6747871588	-2.064714084	 0.0309658756	 0.452068
N	 1.4025786137	-3.1006784641	-0.0058005363	-0.603289
O	 1.0961167036	-0.7505025661	 0.1403642438	-0.252515
H	 0.9533850498	 1.8510848208	-0.6472466399	 0.144657
H	-0.6921093949	 2.094581	-0.0299975838	 0.133893
H	 0.6530861408	 1.8231239069	 1.0926796715	 0.142032
H	-3.0639824396	-0.6094599863	 0.7776542289	 0.108232
H	-2.6735611035	 0.7471399958	-0.3001421175	 0.106042
H	-4.0749137383	-1.007267667	-1.1960541618	 0.293843
H	-1.2394075019	-2.7737170434	-0.4063707027	 0.276115
H	 2.38591298	-2.8474946583	 0.0408559018	 0.222085
79.1414	122.5422	159.8048	191.0311	228.9002	258.0596	273.5552	326.8088	405.6875	470.5624	536.1108	609.1093	629.6562	683.5821	717.6438	752.9489	830.95	933.3404	981.8959	1012.4179	1047.1503	1061.9663	1068.3469	1140.9907	1216.5482	1233.3941	1270.8214	1291.4714	1350.4938	1415.8154	1428.3982	1464.9528	1467.8544	1492.4567	1506.2936	1763.4258	1797.8308	2967.0327	3019.6022	3027.8754	3077.3782	3127.333	3539.9031	3677.9042	3825.4811
CC1=C(CO)NC(=N)O1	CC1=C(CO)N[C@H]([NH])O1	
InChI=1S/C5H8N2O2/c1-3-4(2-8)7-5(6)9-3/h8H,2H2,1H3,(H2,6,7)	InChI=1S/C5H9N2O2/c1-3-4(2-8)7-5(6)9-3/h5-8H,2H2,1H3/t5-/m0/s1
