18
gdb 116574	3.49081	1.01538	0.89633	1.402	76.7	-0.2452	0.0145	0.2597	1359.2331	0.145842	-439.044952	-439.035934	-439.03499	-439.079495	33.124	
C	 0.9941638701	 0.2287324299	-0.1752179727	-0.359701
C	-0.5045649444	 0.5309915345	-0.1137852911	-0.153082
N	-1.2708663654	-0.7119836387	-0.0454883678	-0.35379
C	-2.0488980225	-1.010908251	-0.9746878908	 0.393738
O	-2.4117591708	-0.3076981847	-2.1365356002	-0.286844
C	-3.4911476198	-1.2474538043	-2.383860283	 0.004989
C	-2.9078411557	-2.6009492718	-2.641682825	-0.32563
C	-3.0335078161	-2.1134658612	-1.2119472057	 0.244412
O	-3.6569096527	-2.8767825983	-0.2630366559	-0.436808
H	 1.5729664117	 1.1573487645	-0.1504527574	 0.111359
H	 1.2960678714	-0.393863365	 0.6716881859	 0.126962
H	 1.2452632218	-0.3067236842	-1.0959598408	 0.12004
H	-0.7198192353	 1.0961198626	 0.801223553	 0.106233
H	-0.8014786895	 1.1559120353	-0.9654716552	 0.11372
H	-4.442923014	-0.8473337021	-2.7026976147	 0.129033
H	-3.6358784696	-3.3732815909	-2.8747306507	 0.135138
H	-1.9426654249	-2.7013270058	-3.1296076273	 0.129995
H	-3.8188869041	-2.3198085388	 0.5079774893	 0.300236
37.3586	98.1631	138.2848	187.9683	246.6504	281.1152	331.2304	372.1267	452.2776	454.7285	529.3251	645.9805	721.7048	754.5783	821.9667	851.941	878.0534	894.3045	919.2672	947.8641	1010.7005	1035.4495	1057.4141	1080.6657	1096.019	1120.0569	1175.1139	1210.6536	1268.4178	1302.891	1360.7766	1377.1944	1405.7007	1421.883	1489.1726	1493.3669	1495.8345	1513.4708	1848.3503	3017.1914	3039.7476	3055.2316	3111.7626	3117.0349	3120.1433	3211.1671	3227.0486	3790.0671
CCN=C1OC2CC12O	CCN=C1O[C@H]2C[C@@]12O	
InChI=1S/C6H9NO2/c1-2-7-5-6(8)3-4(6)9-5/h4,8H,2-3H2,1H3	InChI=1S/C6H9NO2/c1-2-7-5-6(8)3-4(6)9-5/h4,8H,2-3H2,1H3/t4-,6-/m0/s1
