17
gdb 56427	2.98922	1.06016	0.901	0.6992	75.45	-0.2423	-0.0892	0.1531	1329.5786	0.130876	-421.824538	-421.8141	-421.813156	-421.860984	36.106	
C	 0.0263390491	 1.5326279909	-0.2008426401	-0.402394
C	-0.0327824177	 0.0010260607	 0.0539987263	-0.28307
C	 0.6915935489	-0.3754626635	 1.2589953289	 0.337879
C	 1.301397332	-0.6703179076	 2.2507781294	-0.438852
C	-1.5047042146	-0.4211046746	 0.1167618804	 0.276687
O	-2.1324446941	-0.5785721276	 1.1332929782	-0.27099
C	-2.2036322672	-0.620452095	-1.2557230745	 0.309199
C	-3.673111054	-0.9509679267	-1.2010440572	-0.474059
O	-1.5658505017	-0.5160576128	-2.2777260876	-0.276238
H	 1.0689200169	 1.8483118267	-0.2767373195	 0.141166
H	-0.482739156	 1.7825388425	-1.1345938702	 0.138655
H	-0.4408226322	 2.0749952964	 0.6249988875	 0.140407
H	 0.4039881771	-0.4914291969	-0.8216156529	 0.139996
H	 1.8377451812	-0.9402491384	 3.126595803	 0.198425
H	-3.8304387289	-1.8584975401	-0.6099525724	 0.161619
H	-4.2168132166	-0.154553819	-0.6827059713	 0.157979
H	-4.058881852	-1.080488515	-2.212192968	 0.143591
41.2971	50.708	109.1444	128.4493	176.6247	208.6208	223.0543	259.8069	334.5999	403.5111	407.3096	518.0254	530.8503	591.4547	633.3989	647.1762	719.5863	773.6223	843.6243	922.4488	1006.9222	1029.1051	1042.6072	1071.7976	1129.049	1233.703	1293.773	1350.1302	1384.1897	1398.8108	1451.8186	1459.2396	1495.6892	1497.3235	1802.6388	1814.4882	2244.5639	3050.691	3052.8103	3059.6976	3112.1804	3136.1437	3138.3393	3163.9023	3504.9277
CC(C#C)C(=O)C(C)=O	C[C@@H](C#C)C(=O)C(=O)C	
InChI=1S/C7H8O2/c1-4-5(2)7(9)6(3)8/h1,5H,2-3H3	InChI=1S/C7H8O2/c1-4-5(2)7(9)6(3)8/h1,5H,2-3H3/t5-/m0/s1
