17
gdb 123845	3.59924	1.56759	1.12367	1.6975	82.12	-0.2029	0.0001	0.2029	1046.5147	0.14064	-380.916414	-380.909627	-380.908683	-380.947398	27.495	
C	-0.0176353661	 1.5030968544	 0.0697699522	-0.269641
C	 1.3944055857	 2.1190546146	-0.0613262462	-0.320482
C	 2.1849595945	 1.3748279108	-1.0931176254	 0.290329
N	 3.186131239	 1.8529744672	-1.8164663101	-0.313533
N	 3.6114807465	 0.7833987847	-2.5314534818	-0.191221
C	 2.9079377303	-0.3498228527	-2.2769019491	-0.173034
C	 1.9566119458	-0.0062781956	-1.3365843462	 0.204009
C	 0.8915894482	-0.7140128574	-0.6495127591	-0.166268
C	-0.0226451377	-0.0118446775	 0.0353326633	-0.089197
H	-0.4896027722	 1.8625932135	 0.9899464434	 0.102984
H	-0.6513076838	 1.8690195386	-0.7533420949	 0.115525
H	 1.3359232733	 3.1848460891	-0.2983182498	 0.116523
H	 1.9113681949	 2.0382699905	 0.9055455958	 0.115228
H	 4.3686081216	 0.9045810026	-3.1812752054	 0.272446
H	 3.1272150162	-1.278328173	-2.7805418527	 0.133551
H	 0.842554536	-1.7974791006	-0.7019102574	 0.084025
H	-0.8362594922	-0.5228936191	 0.5413021735	 0.088757
141.5047	204.0914	287.1138	393.8967	425.779	458.4549	514.3007	579.9504	654.2551	681.0759	703.7196	746.0121	769.4361	816.5962	873.0296	921.7117	958.599	981.8	1018.7416	1039.2839	1065.4082	1154.7568	1164.5192	1188.6916	1226.8755	1248.3016	1299.2567	1343.5516	1360.5808	1395.6368	1437.0151	1469.0678	1473.2229	1482.907	1521.4261	1608.6638	1687.1757	2985.6141	3007.6613	3067.0834	3089.8649	3161.7539	3183.4334	3257.1246	3684.703
C1CC2=NNC=C2C=C1	C1Cc2n[nH]cc2C=C1	
InChI=1S/C7H8N2/c1-2-4-7-6(3-1)5-8-9-7/h1,3,5H,2,4H2,(H,8,9)	InChI=1S/C7H8N2/c1-2-4-7-6(3-1)5-8-9-7/h1,3,5H,2,4H2,(H,8,9)
