21
gdb 80884	2.42212	1.74492	1.44886	1.7681	80.86	-0.2487	0.0842	0.3329	1030.2041	0.183126	-387.050029	-387.042093	-387.041149	-387.081741	32.686	
C	-0.1518529892	 1.5516645692	-0.0301285302	-0.445621
C	-0.0145108784	 0.0344720027	-0.0011137603	 0.019829
C	 1.0973591786	-0.5971021378	-0.8935511486	-0.095326
C	 2.0987438095	-0.2668501409	 0.2660552786	-0.271327
C	 0.8392931968	-0.5921774245	 1.1559948955	 0.292124
C	 0.7150386828	-0.1667427914	 2.6009287234	-0.514589
C	 0.7355715146	-2.1079121058	 0.8269888978	 0.00258
O	-0.3366961718	-2.5088083733	-0.0430146272	-0.257667
C	 0.917357182	-2.1092793784	-0.6223514818	 0.033088
H	 0.7948885007	 2.0880277131	 0.0795791553	 0.113762
H	-0.5997995367	 1.8694038045	-0.9780952366	 0.117218
H	-0.8167578866	 1.8904044938	 0.7720868675	 0.117939
H	-0.998712623	-0.4182737331	-0.1234538399	 0.092176
H	 1.2664707561	-0.2767858424	-1.9218667814	 0.059624
H	 2.9715245907	-0.9189386375	 0.3764387665	 0.0878
H	 2.4155686079	 0.7765924214	 0.3071739759	 0.098065
H	 0.8619287643	 0.9120290003	 2.7150020647	 0.117404
H	-0.2743620601	-0.4143915616	 3.0019889814	 0.123447
H	 1.4610807627	-0.6695230493	 3.2277142986	 0.114611
H	 1.1017962382	-2.8644941484	 1.5144112106	 0.095363
H	 1.4435738808	-2.8680690905	-1.1917465197	 0.099499
194.2662	205.047	216.5625	234.5468	284.4456	342.3221	414.909	431.2363	518.4815	594.0983	619.7167	681.8041	770.2753	808.3265	840.3662	850.4269	880.0469	886.186	921.5466	938.1644	984.4411	1010.7038	1050.9178	1057.4557	1081.4507	1098.9372	1103.9646	1123.4143	1191.5211	1203.1763	1221.9987	1242.3712	1247.5518	1263.7326	1279.413	1323.1714	1375.5596	1405.9539	1413.3015	1416.8715	1490.3311	1492.1433	1498.6425	1500.724	1518.676	3024.0521	3032.3189	3050.4937	3085.1309	3090.3213	3092.8941	3097.7716	3109.3264	3115.17	3124.6445	3156.9312	3174.58
CC1C2CC1(C)C1OC21	C[C@H]1[C@H]2C[C@]1(C)[C@H]1O[C@@H]21	
InChI=1S/C8H12O/c1-4-5-3-8(4,2)7-6(5)9-7/h4-7H,3H2,1-2H3	InChI=1S/C8H12O/c1-4-5-3-8(4,2)7-6(5)9-7/h4-7H,3H2,1-2H3/t4-,5+,6-,7-,8-/m0/s1
