22
gdb 96198	2.00721	1.67264	0.97803	1.9243	84.58	-0.2339	0.0204	0.2544	1275.1441	0.194251	-404.37746	-404.368072	-404.367128	-404.411539	35.534	
C	-0.0703949317	 1.5313870708	 0.038979283	-0.396568
C	-0.0184251727	 0.011934308	-0.0598865222	 0.13392
C	 0.8041671006	-0.4721805837	-1.25245193	-0.18211
C	 0.7785969239	-1.9894048533	-1.4390803646	-0.217749
C	 1.3998573769	-2.7628448413	-0.2694405219	-0.145658
N	 0.6409156744	-2.7984230342	 0.9738288093	-0.271672
C	 0.3069352499	-1.7472398604	 1.5899974165	 0.364635
C	-0.3323697094	-1.8050484757	 2.9491368069	-0.443491
O	 0.5113489288	-0.4412328295	 1.202478447	-0.279619
H	 0.9390744257	 1.9413347132	 0.1434704012	 0.126148
H	-0.5262088921	 1.9583495405	-0.8591025041	 0.115936
H	-0.6560433011	 1.8391114415	 0.9087400866	 0.12257
H	-1.0408365858	-0.3842647611	-0.153358417	 0.07745
H	 0.4153786744	 0.0184736723	-2.1532924183	 0.09503
H	 1.8388060285	-0.127362475	-1.1237455389	 0.100328
H	-0.2534805222	-2.3328034478	-1.5879469381	 0.100631
H	 1.329118004	-2.2495966079	-2.3511132016	 0.095523
H	 1.5514827882	-3.8025435144	-0.5773271062	 0.099347
H	 2.3995410385	-2.349001376	-0.0644854394	 0.103325
H	-0.4054250302	-2.8371602231	 3.2899320424	 0.13826
H	 0.2619566836	-1.2210847392	 3.6600729194	 0.136829
H	-1.3294261821	-1.3510875238	 2.92321327	 0.126932
66.4088	115.0844	176.786	210.1952	220.933	263.0606	303.1039	354.5377	370.8543	390.3159	467.3815	526.0482	608.303	657.124	779.8999	834.7263	845.5065	877.8945	927.2342	967.6326	985.5301	1032.9437	1057.9131	1064.5238	1086.5682	1129.1009	1146.4995	1159.2943	1213.8488	1224.0385	1260.6234	1302.2007	1339.9836	1373.3972	1384.1044	1395.6581	1402.0323	1405.2642	1411.0375	1469.6237	1471.8071	1478.9786	1481.5596	1485.7981	1495.9468	1499.7266	1761.0608	2988.1628	2990.3374	3018.1019	3020.7995	3039.1869	3043.6197	3057.2861	3062.1649	3067.1897	3093.9045	3116.669	3125.3647	3161.4885
CC1CCCN=C(C)O1	C[C@H]1CCCN=C(C)O1	
InChI=1S/C7H13NO/c1-6-4-3-5-8-7(2)9-6/h6H,3-5H2,1-2H3	InChI=1S/C7H13NO/c1-6-4-3-5-8-7(2)9-6/h6H,3-5H2,1-2H3/t6-/m0/s1
