27
gdb 100672	2.64273	0.92759	0.84444	1.2675	91.82	-0.2612	0.0764	0.3376	1570.279	0.249254	-390.69484	-390.682844	-390.6819	-390.731254	45.022	
C	 0.1435515257	 1.5500211156	-0.0772827216	-0.406005
C	-0.062473265	 0.0441900254	 0.1333119166	-0.185412
C	-1.5234954054	-0.4827429876	 0.0616505601	 0.256972
C	-2.3343303281	 0.0553584828	 1.2582234932	-0.420646
C	-2.1726188439	 0.0060600784	-1.2502011009	-0.419629
C	-1.4849138811	-2.0509090683	 0.0628635897	 0.051869
C	-0.5753256532	-2.6804941113	 1.1329597703	-0.422203
C	-2.8738580963	-2.6989550916	 0.1632316776	-0.102877
O	-2.7391276645	-4.0619498824	-0.2294334779	-0.422671
H	 1.1981733532	 1.8056251488	 0.0675978367	 0.111094
H	-0.1317171984	 1.8692542927	-1.08637762	 0.117998
H	-0.4343488446	 2.1508061195	 0.6322506759	 0.115396
H	 0.5342306607	-0.4954097082	-0.6146128925	 0.089947
H	 0.3593463552	-0.2250154502	 1.1074256574	 0.096508
H	-2.3178663137	 1.1490404056	 1.2842012021	 0.111188
H	-3.3852569248	-0.2451948239	 1.2013082772	 0.109756
H	-1.9350745239	-0.3014699476	 2.2131822863	 0.111599
H	-1.5767802978	-0.2943820166	-2.1195274657	 0.10914
H	-3.1809198543	-0.3943589646	-1.3850340542	 0.109359
H	-2.2599306466	 1.0960733959	-1.2655912615	 0.111583
H	-1.0928453392	-2.3532584637	-0.9184564155	 0.077525
H	-0.8277098263	-2.3264756523	 2.1392022357	 0.106407
H	-0.7072986645	-3.7649258812	 1.1177100887	 0.130333
H	 0.4818442765	-2.4696145376	 0.958373609	 0.111448
H	-3.2458676425	-2.6281526354	 1.1972025397	 0.083762
H	-3.6002441223	-2.1879690289	-0.483232656	 0.083513
H	-3.5755516948	-4.5050960532	-0.0619207603	 0.284047
71.1732	96.4331	108.7938	180.7355	200.5685	237.306	246.4578	253.7293	271.1533	281.61	330.0513	333.7702	343.0378	353.2824	381.3653	439.8092	482.3826	571.8892	721.2506	790.1904	826.5411	900.8852	930.18	931.4119	936.1356	997.5162	1015.0801	1025.7112	1048.7841	1059.4305	1086.8302	1121.7488	1162.3886	1193.7993	1231.6109	1236.8625	1267.4874	1276.5184	1316.5355	1351.0039	1366.4676	1371.2725	1397.9004	1403.2902	1410.8736	1425.0355	1454.2617	1481.8013	1483.2875	1490.6896	1498.0425	1505.3721	1506.6964	1509.9426	1514.0547	1520.501	1525.6114	2975.4335	3005.8028	3015.0295	3019.9123	3033.4564	3036.5136	3039.9156	3041.8815	3064.1308	3098.1062	3100.0775	3100.6637	3105.2661	3109.5779	3110.4911	3115.1582	3128.4114	3833.4919
CCC(C)(C)C(C)CO	CCC(C)(C)[C@@H](C)CO	
InChI=1S/C8H18O/c1-5-8(3,4)7(2)6-9/h7,9H,5-6H2,1-4H3	InChI=1S/C8H18O/c1-5-8(3,4)7(2)6-9/h7,9H,5-6H2,1-4H3/t7-/m0/s1
