20
gdb 83458	2.72391	1.33595	1.07956	3.4221	80.67	-0.2378	0.0277	0.2655	1187.7791	0.171161	-403.148536	-403.139631	-403.138687	-403.182343	33.54	
C	-0.0022133351	 1.5680606918	 0.1509656939	-0.425754
C	 0.1068074935	 0.0610047548	 0.2055995763	 0.001623
C	 1.2991451022	-0.7732175255	-0.195903487	-0.155594
C	 2.6187387533	-0.0945461497	 0.1936097641	-0.225245
C	 2.1483835314	-0.0432287537	 1.6833870533	-0.286428
C	 0.8261741886	-0.7093751731	 1.2721119472	 0.382161
N	 0.1468858235	-1.6808583236	 2.0547218098	-0.388358
C	-1.0407254428	-1.4657443818	 2.6971582638	 0.134056
O	-1.7097802154	-0.4587963202	 2.6363367339	-0.313883
H	 0.9332815845	 2.0683271828	 0.4145199873	 0.11453
H	-0.2826583367	 1.9006164899	-0.8541664375	 0.113716
H	-0.773016194	 1.9043928766	 0.8509334718	 0.143046
H	-0.8219432879	-0.4393963815	-0.0571885998	 0.100646
H	 1.201744341	-1.5874123634	-0.905095103	 0.085164
H	 3.4879664635	-0.7409555973	 0.0558187203	 0.101854
H	 2.8246569423	 0.866189764	-0.2868188493	 0.103428
H	 2.7521991891	-0.6942486024	 2.3214169756	 0.096667
H	 2.074351405	 0.9371452737	 2.1641043696	 0.105875
H	 0.624551813	-2.5460925355	 2.261778761	 0.241813
H	-1.3403568792	-2.3550474359	 3.2891591188	 0.070683
54.1172	119.021	186.2227	207.3916	240.4591	257.273	274.5613	414.2243	440.4777	518.443	552.356	605.8758	720.2407	750.3728	795.0197	845.8248	916.0039	929.3333	960.2541	983.29	998.3643	1032.1498	1047.7927	1078.3215	1108.6244	1128.1845	1142.1093	1178.9796	1216.4676	1227.7291	1241.7587	1268.3416	1299.9611	1338.2954	1410.9179	1433.7715	1465.3228	1478.7368	1497.631	1508.3597	1510.3909	1519.7166	1811.1442	2920.5532	3039.7572	3049.2446	3061.2347	3092.9385	3103.533	3113.2639	3117.6254	3148.0266	3176.0131	3595.0328
CC1C2CCC12NC=O	C[C@H]1[C@H]2CC[C@@]12NC=O	
InChI=1S/C7H11NO/c1-5-6-2-3-7(5,6)8-4-9/h4-6H,2-3H2,1H3,(H,8,9)	InChI=1S/C7H11NO/c1-5-6-2-3-7(5,6)8-4-9/h4-6H,2-3H2,1H3,(H,8,9)/t5-,6+,7+/m0/s1
