19
gdb 39685	3.56738	1.2029	1.1627	1.901	70.3	-0.2428	0.0778	0.3206	1134.1886	0.1608	-460.137199	-460.129089	-460.128145	-460.171028	29.346	
C	 0.084503779	 1.0755190698	-0.4920316609	-0.056739
C	 1.4925156595	 1.4176036437	 0.030944953	-0.293563
C	 1.3964600678	 0.0565830505	 0.7567536334	 0.126185
O	 0.07558448	-0.1843854892	 0.218187598	-0.294456
C	 2.3800117707	-1.0262030573	 0.3417615069	 0.075325
C	 1.9184681554	-2.4504847701	 0.7493311083	-0.129669
O	 2.1148280844	-3.226217081	-0.4243498735	-0.237081
C	 1.9193143625	-2.3249859882	-1.4817956003	 0.024112
O	 2.503183875	-1.1000728865	-1.0791850639	-0.266245
H	-0.7233743034	 1.7341824377	-0.1520771572	 0.102398
H	 0.00007936	 0.930386614	-1.574551164	 0.109746
H	 2.2684924038	 1.4646532564	-0.7325992129	 0.128703
H	 1.5546168428	 2.2904163593	 0.6817264778	 0.108838
H	 1.3733197471	 0.1189423903	 1.8551315791	 0.073848
H	 3.369090289	-0.7844599441	 0.7533132549	 0.0837
H	 2.5162939891	-2.8845800209	 1.5531807318	 0.115593
H	 0.8599204544	-2.4433443882	 1.0417822857	 0.119491
H	 2.4382546971	-2.6978766466	-2.3696256337	 0.11448
H	 0.8453037657	-2.1826745598	-1.6855826723	 0.095333
59.7533	78.8405	101.2727	195.6918	249.9892	285.6209	393.3194	631.6073	664.5625	743.3836	765.3226	804.9179	855.3207	930.5809	941.9826	963.1824	978.8119	991.0955	1027.7379	1033.6947	1097.2657	1112.3177	1119.1823	1140.2275	1168.7623	1185.6049	1220.4249	1222.0557	1258.5196	1266.0608	1273.9338	1309.0102	1347.5761	1365.831	1377.3968	1390.6651	1437.9828	1481.7203	1509.1505	1527.4898	1541.4518	2969.5814	2989.7755	3017.9672	3022.1685	3025.0833	3069.0208	3087.7717	3091.1622	3109.4266	3151.8065
C1CC(O1)C1COCO1	C1C[C@@H](O1)[C@H]1COCO1	
InChI=1S/C6H10O3/c1-2-8-5(1)6-3-7-4-9-6/h5-6H,1-4H2	InChI=1S/C6H10O3/c1-2-8-5(1)6-3-7-4-9-6/h5-6H,1-4H2/t5-,6-/m1/s1
