18
gdb 23274	2.71739	1.44986	1.15731	1.8066	74.92	-0.2465	-0.0034	0.2431	1097.255	0.147624	-439.041433	-439.033225	-439.03228	-439.074005	31.732	
C	 0.8296851633	 1.5265663672	-0.2999764688	-0.40075
C	 0.1156716278	 0.2100230849	 0.0526672601	-0.083292
C	 0.1800997743	-0.8579385829	-1.0817270785	-0.271414
C	 1.2249389959	-1.8648582594	-0.6340726675	 0.051414
O	 2.4727338087	-1.2677751527	-0.2756942696	-0.254283
C	 1.5602729312	-1.6392376922	 0.7827234254	-0.057362
C	 0.7599018478	-0.4802117179	 1.2459877571	 0.431019
N	 0.6476469523	-0.2239020417	 2.4886947097	-0.249873
O	-0.1931952877	 0.8789316006	 2.7109756777	-0.389321
H	 1.8744796979	 1.3367542801	-0.5574764588	 0.138192
H	 0.3421522864	 2.0053534786	-1.1556920096	 0.109879
H	 0.7953405768	 2.2181446132	 0.5454343539	 0.133823
H	-0.9230901535	 0.4396869967	 0.3074057828	 0.104048
H	-0.7822972402	-1.3692624832	-1.1958704401	 0.108557
H	 0.4334899271	-0.4148475304	-2.0498846426	 0.113989
H	 1.2917792896	-2.8468256403	-1.0960562549	 0.099079
H	 1.9073132636	-2.4002835414	 1.4728342929	 0.107287
H	-0.1985280213	 0.9400782708	 3.6723212209	 0.309007
96.7805	169.4619	198.1218	245.5636	280.7144	347.0989	373.3005	412.5177	447.9073	492.8745	645.2729	684.8785	723.5933	773.5205	816.4561	862.7564	891.4856	918.1865	970.0589	984.155	1015.1507	1042.3436	1092.5307	1107.4006	1136.1699	1221.1854	1235.9108	1250.8137	1263.5069	1315.7826	1335.8323	1337.5937	1395.0794	1411.994	1425.8344	1481.9013	1497.2574	1509.4751	1751.0784	3040.7732	3043.8002	3066.3829	3089.495	3113.6652	3135.6019	3145.5512	3185.8903	3816.825
CC1CC2OC2C1=NO	C[C@H]1C[C@H]2O[C@H]2C1=NO	
InChI=1S/C6H9NO2/c1-3-2-4-6(9-4)5(3)7-8/h3-4,6,8H,2H2,1H3	InChI=1S/C6H9NO2/c1-3-2-4-6(9-4)5(3)7-8/h3-4,6,8H,2H2,1H3/t3-,4+,6+/m0/s1
