20
gdb 66130	2.47141	1.55868	1.28641	2.4961	78.23	-0.244	-0.0224	0.2216	1074.04	0.171485	-403.15079	-403.142304	-403.14136	-403.183896	32.713	
C	 0.09601769	 1.6066268562	 0.2294711065	-0.455075
C	 0.0137897468	 0.076530486	 0.0967340548	 0.209524
C	 0.6957144257	-0.4717142588	-1.1826650046	-0.259331
C	 1.2482786228	-1.8707322	-0.8179309898	-0.220352
C	 1.4950935454	-1.7976076399	 0.6771918492	-0.0256
N	 2.2172412215	-0.5691470558	 1.0870628135	-0.345607
C	 0.7483605845	-0.6456163682	 1.2327621179	-0.080497
C	-1.4508063187	-0.3339991718	 0.1792817251	 0.134892
O	-2.0612355898	-0.9462280628	-0.6584556709	-0.253691
H	 1.1431935932	 1.8997945539	 0.3405750342	 0.143638
H	-0.3158372252	 2.1042561057	-0.6542660653	 0.124737
H	-0.455100771	 1.9669139791	 1.1059378782	 0.110867
H	-0.0123547892	-0.5136840337	-2.0122278294	 0.1154
H	 1.5147408479	 0.1944638596	-1.4593699001	 0.111569
H	 0.4998515614	-2.6456707709	-1.0160017546	 0.114779
H	 2.1494587227	-2.1211427888	-1.3857553595	 0.103222
H	 1.6490070897	-2.705480659	 1.2518917892	 0.08627
H	 2.6468726681	-0.7218323356	 1.9962914369	 0.231561
H	 0.3171946652	-0.6542472132	 2.2300652968	 0.082527
H	-1.9549544011	-0.006774542	 1.1207772719	 0.071169
63.0649	129.2647	199.8479	242.481	294.4499	314.9703	327.2406	378.3427	431.8339	559.9906	629.7116	668.3541	776.5861	812.6891	831.224	864.2277	905.6197	924.3313	937.087	956.852	999.208	1004.4375	1024.7074	1077.2233	1120.8637	1140.6322	1155.353	1173.0855	1208.6765	1237.4217	1270.5912	1283.4432	1326.9597	1341.0726	1375.897	1397.7511	1418.3178	1435.0169	1473.0854	1490.3736	1495.6577	1500.7514	1829.3114	2839.2542	3029.7558	3047.8487	3079.5419	3091.9505	3095.5531	3121.3397	3131.7435	3144.552	3163.1222	3500.4478
CC1(CCC2NC12)C=O	C[C@]1(CC[C@H]2N[C@@H]12)C=O	
InChI=1S/C7H11NO/c1-7(4-9)3-2-5-6(7)8-5/h4-6,8H,2-3H2,1H3	InChI=1S/C7H11NO/c1-7(4-9)3-2-5-6(7)8-5/h4-6,8H,2-3H2,1H3/t5-,6-,7+/m1/s1
