17
gdb 95659	2.13444	1.82638	1.22216	3.2277	64.12	-0.2434	-0.0341	0.2094	1029.1533	0.13568	-496.106558	-496.098144	-496.097199	-496.139674	31.65	
O	-0.0337667275	 1.3862820524	-0.1055098336	-0.447858
C	-0.0142931532	-0.0336122481	-0.0218504497	 0.086629
C	 0.7453295312	-0.4938438423	 1.21968532	-0.125903
O	 0.1168279319	 0.038986401	 2.379536734	-0.256058
C	-1.1919814178	-0.490376829	 2.5745284678	-0.182163
C	-2.0894261929	-0.1780325153	 1.3698840049	 0.328518
O	-3.1619394032	 0.3589487334	 1.4820123726	-0.28688
C	-1.4706273463	-0.5544826431	 0.0142676269	 0.020416
O	-2.2151769036	-0.1034112732	-1.077443965	-0.416442
H	-0.0937857254	 1.7168240145	 0.8011104472	 0.294718
H	 0.4690487732	-0.395560399	-0.9352091494	 0.100375
H	 0.7920147638	-1.5934092744	 1.2684848712	 0.101906
H	 1.764186248	-0.0979358486	 1.214305328	 0.129235
H	-1.1446843343	-1.5813557308	 2.7336514767	 0.111375
H	-1.608874602	-0.0178929107	 3.4653118903	 0.140865
H	-1.4517286302	-1.652873019	-0.0396656056	 0.109012
H	-2.1571136018	 0.8606776521	-1.0657411963	 0.292256
68.2214	124.6178	208.1603	242.9566	282.5361	348.6077	371.7072	395.5985	447.46	488.0946	528.6437	600.8983	651.5481	725.8747	828.3523	866.4621	929.1435	950.97	980.5545	1036.7698	1107.9194	1132.5972	1146.9305	1165.2425	1225.502	1249.9689	1260.6995	1295.1357	1321.6486	1353.139	1369.0033	1392.4605	1423.8957	1430.1145	1474.3668	1488.904	1835.1427	2965.8399	2986.4149	3016.6844	3067.1106	3101.6436	3127.2092	3758.8549	3782.8844
OC1COCC(=O)C1O	O[C@H]1COCC(=O)[C@H]1O	
InChI=1S/C5H8O4/c6-3-1-9-2-4(7)5(3)8/h3,5-6,8H,1-2H2	InChI=1S/C5H8O4/c6-3-1-9-2-4(7)5(3)8/h3,5-6,8H,1-2H2/t3-,5-/m0/s1
