23
gdb 122227	2.79722	0.83647	0.72442	0.2833	83.22	-0.2457	0.0849	0.3306	1679.8595	0.202958	-425.389844	-425.37903	-425.378086	-425.426524	38.477	
C	 1.4617231518	-1.900700522	 2.574084965	-0.227554
O	 0.8491284718	-1.9127166939	 1.3087026764	-0.23226
C	-0.4548265071	-2.4540942182	 1.3370007543	-0.04676
C	-1.0256873445	-2.4032003681	-0.0764305672	-0.285837
C	-2.4377309216	-2.950921095	-0.1510663348	 0.446573
C	-2.9564649252	-3.536343383	-1.4417829581	-0.333389
C	-2.6584475151	-4.4309113186	-0.2537089318	-0.312525
O	-3.3776130371	-2.3022766137	 0.6686818199	-0.286225
C	-3.7485292487	-1.0094225275	 0.2292934667	-0.249714
H	 2.4573329843	-1.4659024271	 2.4540049953	 0.123735
H	 0.894508457	-1.2944839283	 3.2988252705	 0.10167
H	 1.56603467	-2.916148976	 2.9895954278	 0.101207
H	-0.4332899032	-3.4950810597	 1.7025841921	 0.085879
H	-1.0978186305	-1.8858615549	 2.0277266185	 0.096949
H	-0.9918587519	-1.366751198	-0.4324453743	 0.10565
H	-0.3781702469	-2.9800433887	-0.7450789121	 0.105588
H	-4.0011424644	-3.365121997	-1.6759312814	 0.116924
H	-2.2973918315	-3.5730844825	-2.3024998312	 0.112468
H	-1.7910292827	-5.0806195331	-0.2965589932	 0.111764
H	-3.506299454	-4.8324790605	 0.2885605365	 0.122665
H	-4.549666322	-0.6697084785	 0.8901843492	 0.125259
H	-2.9185627345	-0.2917201152	 0.2899803052	 0.110741
H	-4.1195103642	-1.0240381304	-0.8051710832	 0.107193
57.2196	69.2506	106.469	123.1144	139.7643	200.2512	227.3508	260.8918	293.9082	311.1713	349.6279	442.9751	466.1362	565.598	732.464	783.3822	801.4015	897.2163	913.8238	951.2297	965.8262	1004.383	1048.011	1071.4944	1079.7609	1090.1421	1106.2426	1162.5699	1180.0816	1182.008	1190.4411	1216.8811	1222.1214	1230.782	1282.1611	1290.9237	1329.7902	1362.5583	1423.0237	1453.4056	1472.5109	1479.9123	1481.6176	1484.4014	1497.9317	1500.3091	1505.8834	1510.3956	1533.3745	2954.8006	2968.5108	2994.002	2995.2195	3007.2563	3038.7867	3047.3209	3083.632	3109.4785	3115.2076	3133.1221	3138.3734	3217.5705	3232.6898
COCCC1(CC1)OC	COCCC1(CC1)OC	
InChI=1S/C7H14O2/c1-8-6-5-7(9-2)3-4-7/h3-6H2,1-2H3	InChI=1S/C7H14O2/c1-8-6-5-7(9-2)3-4-7/h3-6H2,1-2H3
