13
gdb 23651	3.73569	1.93004	1.28265	1.5476	63.02	-0.2623	-0.0546	0.2077	875.0608	0.096094	-402.806329	-402.799721	-402.798777	-402.837486	24.075	
C	 0.0103087275	 1.4975153717	 0.0365575569	-0.470855
C	 0.0115962481	-0.0036469923	-0.0081647156	 0.310322
C	-0.1661656304	-0.7194625711	-1.1931139606	-0.059711
N	-0.1651290359	-2.0554082073	-1.2334430982	-0.218259
C	 0.0146569237	-2.6926835572	-0.0830087853	-0.132915
C	 0.1912369634	-1.9639232883	 1.0946536422	 0.298706
F	 0.3696523396	-2.6190802145	 2.2354826772	-0.06444
N	 0.1930821736	-0.6565300374	 1.1527896426	-0.337732
H	 0.959777521	 1.8674016485	 0.4362751602	 0.1492
H	-0.1439405183	 1.9269191137	-0.955813953	 0.129109
H	-0.7799766671	 1.8579652656	 0.7025984572	 0.1492
H	-0.3134624526	-0.2005870589	-2.135792399	 0.115615
H	 0.0211928774	-3.7780304826	-0.0786337346	 0.13176
83.7729	197.3668	230.96	298.5651	466.3489	480.7459	548.9488	582.3374	618.2791	727.0416	774.1338	894.7886	950.0275	974.7893	1022.5753	1058.9435	1060.3116	1190.4189	1248.5035	1280.4302	1334.6309	1411.0071	1449.1793	1473.0363	1474.7416	1498.1177	1594.6562	1620.9733	3044.1137	3104.8914	3131.8143	3171.7278	3182.1484
CC1=CN=CC(F)=N1	Cc1cncc(F)n1	
InChI=1S/C5H5FN2/c1-4-2-7-3-5(6)8-4/h2-3H,1H3	InChI=1S/C5H5FN2/c1-4-2-7-3-5(6)8-4/h2-3H,1H3
