19
gdb 101503	5.65297	0.54447	0.52038	2.2315	94.49	-0.2402	-0.0096	0.2307	2069.3821	0.155807	-385.837323	-385.826638	-385.825694	-385.87356	38.122	
C	-0.0374284309	 1.5818213664	-0.0752750851	-0.390188
C	 0.0093712636	 0.0513751578	-0.0541940524	 0.038939
C	 0.7399594705	-0.5055095215	-1.2771121955	-0.078766
O	 0.0322343195	-0.1013164014	-2.4375655044	-0.423189
C	 0.6789227784	-0.4932101071	 1.2319876996	-0.40166
C	-0.0263385343	-0.1390527001	 2.4532013034	 0.339437
C	-0.6222512192	 0.1541771606	 3.4653699733	-0.193742
C	-1.2914075624	 0.4848450635	 4.6033030498	 0.289914
C	-1.8846818438	 0.7783485468	 5.6134888399	-0.560776
H	 0.9748171874	 2.0022344846	-0.0241552662	 0.10599
H	-0.5023582827	 1.9325868306	-0.9986048695	 0.136363
H	-0.6050244986	 1.9689072552	 0.7750365373	 0.128446
H	-1.0171407388	-0.3337739179	-0.0883670591	 0.098771
H	 1.7764011904	-0.1266619084	-1.288696845	 0.08384
H	 0.7924550843	-1.6045787347	-1.2090913175	 0.083562
H	 0.5226462962	-0.3960634069	-3.2100517072	 0.288505
H	 0.7553198629	-1.5874828714	 1.1704777453	 0.132673
H	 1.7107645757	-0.1175946218	 1.2898279421	 0.133307
H	-2.4067989581	 1.0373259956	 6.5006714113	 0.188575
49.7566	64.5957	117.1394	157.9511	193.8837	237.6987	240.7329	254.9445	322.7563	355.6192	390.2575	416.2999	511.4417	530.6711	551.651	588.7689	595.1515	740.7228	835.2119	888.2747	931.7332	946.7474	1074.8019	1093.0188	1123.6636	1168.7905	1180.3406	1222.7701	1253.1978	1277.3191	1309.2739	1358.4588	1381.7677	1406.8581	1459.948	1465.1718	1495.9148	1504.2746	1521.0715	2181.5513	2363.1979	2951.1204	2980.5513	3002.1265	3028.354	3032.4429	3048.482	3104.9317	3137.6051	3506.7633	3835.5356
CC(CO)CC#CC#C	C[C@@H](CO)CC#CC#C	
InChI=1S/C8H10O/c1-3-4-5-6-8(2)7-9/h1,8-9H,6-7H2,2H3	InChI=1S/C8H10O/c1-3-4-5-6-8(2)7-9/h1,8-9H,6-7H2,2H3/t8-/m1/s1
