23
gdb 66217	4.15107	0.62885	0.60893	0.7851	92.4	-0.2557	0.0577	0.3133	1918.8188	0.203341	-351.118727	-351.108172	-351.107228	-351.154929	39.227	
C	 0.0754302676	 1.5407003498	 0.4303672053	-0.463061
C	 0.0084329636	 0.0652344949	 0.0796716182	 0.386699
C	-1.3384283642	-0.4335046885	-0.425848433	-0.265313
C	-1.7853701707	 0.1880788726	-1.7553994346	-0.174577
C	-3.1206503633	-0.4011978376	-2.2542780275	-0.354324
C	-3.569390117	 0.1830305077	-3.5122915469	 0.291231
C	-3.9166429814	 0.6808844606	-4.5499717957	-0.436729
C	 1.2492691726	-0.5817212322	-0.4917993776	-0.293339
C	 0.8214077269	-0.886234184	 0.9252739888	-0.314444
H	 1.0596126879	 1.8052528212	 0.8293232925	 0.112106
H	-0.1050796264	 2.1770414005	-0.4428236128	 0.119452
H	-0.6716041771	 1.7996701977	 1.1906449248	 0.112575
H	-1.2908574561	-1.5242637967	-0.5429499367	 0.089582
H	-2.105239208	-0.2431368525	 0.3392354698	 0.092491
H	-1.8992426161	 1.2723256614	-1.6528324757	 0.111765
H	-1.0156383997	 0.0274014994	-2.5187169259	 0.11125
H	-3.018886091	-1.4882739062	-2.3732572619	 0.127217
H	-3.8934211257	-0.254090065	-1.4879086109	 0.127982
H	-4.2330205128	 1.1135890444	-5.4662789971	 0.191615
H	 1.1255954163	-1.3598170537	-1.2382424949	 0.106651
H	 2.1305393691	 0.0338722108	-0.63901232	 0.107781
H	 1.4117407834	-0.4731723307	 1.7366705512	 0.107132
H	 0.4109308523	-1.8688511838	 1.1343471307	 0.106259
45.8802	81.3228	89.5251	121.6664	208.7253	221.0309	270.9022	333.915	349.0249	354.7268	386.9926	441.8081	544.5081	613.8506	632.3526	719.109	741.9318	786.8204	839.1029	868.5659	919.9326	933.4461	950.7644	981.7675	1014.8346	1040.2218	1050.0057	1061.626	1078.0386	1095.5815	1123.7221	1171.1037	1188.1481	1260.7343	1287.1645	1316.7575	1319.1171	1354.0581	1370.4034	1396.0098	1421.1493	1467.8151	1472.7796	1478.2197	1494.6806	1500.6975	1503.7467	1510.4321	2238.2014	2999.4225	3012.6219	3023.2561	3036.6564	3040.0654	3043.9074	3083.2263	3089.4837	3099.4061	3123.4512	3128.3091	3200.5178	3215.1346	3507.8185
CC1(CCCC#C)CC1	CC1(CCCC#C)CC1	
InChI=1S/C9H14/c1-3-4-5-6-9(2)7-8-9/h1H,4-8H2,2H3	InChI=1S/C9H14/c1-3-4-5-6-9(2)7-8-9/h1H,4-8H2,2H3
