18
gdb 56993	2.95082	1.22245	0.97693	2.9299	77.51	-0.2284	0.0355	0.2638	1219.8098	0.146673	-401.855291	-401.846559	-401.845614	-401.888886	33.21	
O	 0.8116246896	 0.0457511951	-1.0990561455	-0.421043
C	-0.082946147	-0.0046730725	 0.0114518339	-0.056561
C	-1.3037430141	-0.7514831678	-0.3065202753	 0.290844
C	-2.2723673572	-1.4155740419	-0.5664342685	-0.454877
C	 0.6008414139	-0.5803420479	 1.2567188586	 0.000657
C	 1.8564636585	 0.1859192439	 1.8117030137	-0.252678
C	 1.1100137873	 0.3562531529	 3.1390285905	-0.040362
N	-0.1211806751	 1.1180179436	 2.8187108937	-0.329336
C	-0.0881162814	-0.3520133073	 2.61096539	-0.064515
H	 0.9373924781	-0.8575300897	-1.410519534	 0.281652
H	-0.3382125076	 1.0383428882	 0.223360244	 0.137469
H	-3.141965753	-1.976700676	-0.8050265956	 0.196876
H	 0.823150016	-1.6401130292	 1.0983787148	 0.074073
H	 2.7358509376	-0.4569284435	 1.8813998017	 0.101756
H	 2.1191766616	 1.1134796457	 1.2987837979	 0.118392
H	 1.523112873	 0.3696033525	 4.1399385157	 0.093318
H	-0.6151367337	 1.2801868846	 3.6957211265	 0.229576
H	-0.8030383366	-0.9973528707	 3.1054248578	 0.094759
65.2774	120.0008	143.8992	208.3638	247.9263	300.532	376.7354	427.7841	467.4365	543.9945	602.2573	625.6826	668.9235	703.9392	805.0527	826.8214	847.9257	919.7432	929.4808	962.7769	988.8377	994.6151	1042.418	1067.0926	1090.7863	1111.2425	1127.5665	1159.4434	1194.7078	1247.447	1255.8855	1284.1333	1307.3099	1325.5003	1374.8657	1380.5098	1422.2734	1477.1095	2227.8032	3057.3412	3074.1498	3077.074	3131.0295	3186.2569	3200.1469	3475.3441	3502.9452	3803.4073
OC(C#C)C1CC2NC12	O[C@@H](C#C)[C@H]1C[C@H]2N[C@@H]12	
InChI=1S/C7H9NO/c1-2-6(9)4-3-5-7(4)8-5/h1,4-9H,3H2	InChI=1S/C7H9NO/c1-2-6(9)4-3-5-7(4)8-5/h1,4-9H,3H2/t4-,5-,6+,7+/m1/s1
