16
gdb 124255	4.40453	1.03544	0.84713	1.1613	75.11	-0.2637	-0.0694	0.1943	1330.5599	0.122579	-437.914067	-437.905277	-437.904333	-437.948182	30.94	
C	-0.1283960007	 1.4965463287	-0.0138035466	-0.487586
C	 0.0409802106	-0.0054139268	 0.0234716276	 0.296225
O	 1.1204507092	-0.5567913304	 0.0589794607	-0.295829
C	-1.1941714016	-0.8262921582	 0.0155743015	 0.351238
C	-1.378545314	-2.1751790523	 0.0419769872	-0.398488
C	-2.7920503228	-2.3303581246	 0.0151025667	 0.390431
C	-3.5983177335	-3.5888274708	 0.0260936566	-0.495098
N	-3.394928204	-1.1592504633	-0.0238974324	-0.186847
O	-2.3908558181	-0.2050500807	-0.0239282802	-0.213836
H	 0.8539571649	 1.9687001072	-0.0033547184	 0.145009
H	-0.6815656482	 1.7949257161	-0.9105101811	 0.154691
H	-0.7191341669	 1.8342537929	 0.8441545914	 0.154697
H	-0.6139174735	-2.9327543413	 0.0753205119	 0.143446
H	-3.3944664096	-4.1744813148	 0.9280912481	 0.143979
H	-4.6632590586	-3.3520626591	-0.0047875827	 0.154055
H	-3.3525476931	-4.2167791724	-0.8360971903	 0.143911
69.7676	119.0389	121.9809	147.4881	154.3254	309.6931	311.8712	380.8861	491.0472	552.1607	607.1593	665.4327	702.7855	704.1723	863.2505	939.9628	959.2743	984.6297	1013.8273	1045.4334	1048.3215	1067.8443	1092.0289	1222.6028	1289.7507	1386.5647	1406.0356	1440.646	1459.2659	1469.3273	1478.0123	1482.1082	1508.9582	1630.1132	1785.9806	3045.7193	3045.9658	3103.7487	3107.7169	3142.7727	3161.8026	3286.6081
CC(=O)C1=CC(C)=NO1	CC(=O)c1cc(C)no1	
InChI=1S/C6H7NO2/c1-4-3-6(5(2)8)9-7-4/h3H,1-2H3	InChI=1S/C6H7NO2/c1-4-3-6(5(2)8)9-7-4/h3H,1-2H3
