20
gdb 84794	2.69144	1.32899	1.11816	3.3081	79.97	-0.2357	0.0244	0.2601	1170.2782	0.171409	-403.201057	-403.191698	-403.190754	-403.235565	34.667	
C	 0.3037244934	 1.6627338277	-0.2843957611	-0.389706
C	-0.0217561434	 0.2143343234	 0.1228006457	-0.040098
C	-0.0179535869	-0.7141810103	-1.0724609412	-0.062375
C	 1.0056962554	-1.5639316396	-1.0640523767	-0.072557
C	 1.8775430927	-1.3954054369	 0.1542775219	-0.269501
C	 1.035420066	-0.4744154087	 1.0697094888	-0.108923
C	 1.8845470187	 0.5210746321	 1.8537020863	 0.400964
N	 1.3490055165	 0.9159854846	 3.0475692467	-0.52377
O	 2.938865558	 0.9696317641	 1.4428072879	-0.367689
H	 1.3080669336	 1.7354776583	-0.7091139618	 0.140483
H	-0.413647228	 2.0141259494	-1.0331594727	 0.104771
H	 0.2499980391	 2.3387678184	 0.5747191885	 0.115364
H	-1.0020717354	 0.2191233796	 0.6165974789	 0.069295
H	-0.7511157411	-0.6191203952	-1.8668717068	 0.088479
H	 1.2318384631	-2.2803256619	-1.8463485364	 0.091757
H	 2.1194580785	-2.3454793855	 0.6441789099	 0.099493
H	 2.8313681982	-0.9140192879	-0.0924597995	 0.138454
H	 0.4764921152	-1.0979441407	 1.7762006058	 0.07056
H	 0.5204170606	 0.4967252243	 3.4302913183	 0.256455
H	 1.8686353256	 1.5686804748	 3.6113660874	 0.258547
61.4915	73.5237	131.7257	173.9254	230.7963	248.8264	293.2486	361.4732	394.1795	479.8467	573.0342	626.1619	658.2666	724.7265	740.0925	774.5916	809.8485	876.1372	948.2799	964.6093	974.8061	992.899	1019.448	1068.7133	1084.7067	1097.7814	1117.9084	1137.3731	1182.2027	1254.7452	1285.1357	1303.2892	1327.9802	1353.0473	1361.7283	1405.031	1411.7865	1490.4553	1492.6113	1500.5672	1615.7613	1691.7635	1788.2834	3008.8024	3032.9246	3036.6497	3040.3754	3069.6527	3101.5492	3125.9538	3175.7036	3202.4128	3602.2295	3740.7339
CC1C=CCC1C(N)=O	C[C@H]1C=CC[C@H]1C(=O)N	
InChI=1S/C7H11NO/c1-5-3-2-4-6(5)7(8)9/h2-3,5-6H,4H2,1H3,(H2,8,9)	InChI=1S/C7H11NO/c1-5-3-2-4-6(5)7(8)9/h2-3,5-6H,4H2,1H3,(H2,8,9)/t5-,6+/m0/s1
