19
gdb 118629	2.3274	0.92444	0.69393	5.3394	74.87	-0.2711	-0.0465	0.2247	1623.6813	0.155472	-460.196526	-460.186201	-460.185257	-460.233001	35.181	
C	 0.0226900805	 1.6119440675	-0.0341554543	-0.385282
C	 0.0192590677	 0.08206105	-0.0718774062	-0.174151
C	-1.3842617394	-0.5068137755	 0.1091389625	-0.198793
C	-1.4051911147	-2.0371725302	 0.0870405412	-0.004712
O	-0.6597811454	-2.5096428324	 1.2016156091	-0.181546
C	-0.3392113418	-3.8249840894	 1.2336708379	 0.188142
O	 0.2304534254	-4.3162366188	 2.1581128382	-0.271617
C	-2.8307085922	-2.5800045761	 0.1090959203	 0.151969
O	-3.2119990416	-3.4423076364	 0.8527639953	-0.226759
H	 1.03463009	 2.0060407557	-0.1654468133	 0.121274
H	-0.6048386542	 2.0328342702	-0.8276741344	 0.114988
H	-0.3576282295	 1.9850058805	 0.9228687868	 0.12265
H	 0.4339100862	-0.2661278621	-1.0273716556	 0.0966
H	 0.6726799875	-0.3133110694	 0.7123927226	 0.129365
H	-1.8139800427	-0.1705007873	 1.0606269948	 0.126715
H	-2.0480391143	-0.1442625854	-0.6860723399	 0.106309
H	-0.9497758693	-2.3875393774	-0.8558177878	 0.109206
H	-0.630555613	-4.3650406112	 0.3145379512	 0.082883
H	-3.5012715893	-2.1150649523	-0.6480111485	 0.09276
72.7303	75.0446	83.9794	109.2996	170.8336	189.6743	222.4426	246.0739	299.4633	322.502	365.4291	503.7262	596.4815	733.7629	749.1406	849.0684	879.9122	897.3577	1004.1948	1017.8507	1036.1911	1049.5446	1092.7219	1139.3862	1165.2115	1191.1828	1251.5265	1280.5896	1330.5388	1339.1022	1356.9974	1396.2462	1412.4262	1415.0616	1438.3589	1475.8999	1493.7555	1499.8633	1510.3133	1840.6956	1875.9763	2884.9312	2960.4302	2976.5543	3020.6453	3028.2141	3033.135	3065.1918	3081.616	3103.7145	3109.1375
CCCC(OC=O)C=O	CCC[C@@H](OC=O)C=O	
InChI=1S/C6H10O3/c1-2-3-6(4-7)9-5-8/h4-6H,2-3H2,1H3	InChI=1S/C6H10O3/c1-2-3-6(4-7)9-5-8/h4-6H,2-3H2,1H3/t6-/m1/s1
