21
gdb 108590	2.50374	1.398	1.22178	0.9618	78.16	-0.2378	0.0668	0.3047	1152.4171	0.182605	-424.209949	-424.200866	-424.199922	-424.243435	34.571	
C	-0.0030182289	 1.3412447537	-0.3995554997	-0.256005
O	 0.0124739286	 0.002260833	 0.0608109549	-0.285889
C	-1.2561113663	-0.5608272488	 0.18905429	 0.407333
C	-2.1269840089	-0.1205117124	 1.3619528131	-0.272967
C	-3.0866192819	-1.3006987926	 1.6378742586	-0.214928
C	-2.3773644389	-2.5617434337	 1.0806175476	-0.22329
C	-1.4128421845	-2.056902967	 0.0173051887	-0.170233
C	-1.9198761966	-1.0946220943	-1.0479163979	 0.01503
O	-3.280037783	-0.8541289662	-1.2789730125	-0.420687
H	 1.0383339759	 1.6471166736	-0.5254741857	 0.123326
H	-0.523602231	 1.4310007408	-1.3637247664	 0.111171
H	-0.4855646202	 2.0182465835	 0.3192129839	 0.110545
H	-1.4537161508	 0.0539734586	 2.2095048616	 0.104057
H	-2.6717322946	 0.8097960107	 1.1744980816	 0.10336
H	-3.320690102	-1.3983248276	 2.7015140436	 0.092053
H	-4.0240032361	-1.1388723283	 1.1048177398	 0.116117
H	-1.7988727756	-3.0640539238	 1.8644383444	 0.103908
H	-3.0948192414	-3.2969830768	 0.6987780054	 0.089437
H	-0.5546848616	-2.6646490571	-0.2495419885	 0.089084
H	-1.2933287487	-1.0483546286	-1.9394809268	 0.089611
H	-3.6541541337	-1.6393826665	-1.6925396056	 0.288968
96.3881	155.1261	176.6446	189.419	204.6082	231.8212	294.3594	362.2429	383.8692	495.7069	529.1276	588.4812	684.0127	707.0573	784.4542	848.0621	877.9371	914.5022	963.0723	967.9163	999.3861	1043.5598	1060.5045	1069.5657	1112.2621	1146.8949	1179.4536	1187.2223	1193.3796	1217.8864	1251.5599	1257.8196	1266.4667	1294.2555	1319.9669	1336.4867	1350.4521	1369.9232	1454.9433	1480.5879	1487.0387	1488.2004	1492.7205	1508.0823	1514.4704	2990.5965	3031.0279	3036.0246	3043.2001	3062.359	3068.7985	3080.6999	3094.0228	3115.6158	3127.1268	3167.3259	3799.7959
COC12CCCC1C2O	CO[C@]12CCC[C@H]1[C@H]2O	
InChI=1S/C7H12O2/c1-9-7-4-2-3-5(7)6(7)8/h5-6,8H,2-4H2,1H3	InChI=1S/C7H12O2/c1-9-7-4-2-3-5(7)6(7)8/h5-6,8H,2-4H2,1H3/t5-,6+,7+/m0/s1
