19
gdb 92370	2.4474	1.90007	1.39599	2.3702	69.61	-0.2503	0.0563	0.3065	979.2285	0.160104	-460.169942	-460.162093	-460.161149	-460.201745	31.497	
C	-0.0539133922	 1.563516353	 0.002304455	-0.41372
C	 0.0443437511	 0.0474635437	 0.0317520495	 0.136839
O	 0.8063727861	-0.4456655456	-1.0975219872	-0.285018
C	 1.8329403348	-1.2539823713	-0.5512960089	 0.215129
C	 2.2673720851	-0.493001905	 0.6998710895	-0.330447
C	 0.8149388732	-0.5574681906	 1.2344465864	 0.318247
O	 0.4621871422	 0.0650034452	 2.4344576259	-0.494865
C	 0.5959109455	-2.0872328242	 1.1632408824	-0.121985
O	 1.2886568005	-2.4666956405	-0.0365868735	-0.269729
H	 0.9282996463	 2.0362817166	 0.0862512962	 0.117382
H	-0.5054477618	 1.8819656676	-0.9416268209	 0.125176
H	-0.6788358267	 1.9152717103	 0.8275395774	 0.130632
H	-0.9647091104	-0.3823353361	-0.0190828108	 0.082106
H	 2.5485291677	-1.4967890727	-1.3342098317	 0.094804
H	 2.9843473375	-1.0440539474	 1.3134182838	 0.100839
H	 2.6268918759	 0.5160068968	 0.4985395374	 0.115464
H	 0.9666555806	-0.3373816971	 3.1494744025	 0.284488
H	 1.0365035279	-2.5989464847	 2.0321798373	 0.084748
H	-0.4630451932	-2.3599447779	 1.0941957897	 0.109908
146.4512	204.8002	241.828	257.1551	287.1078	367.0203	390.0169	444.591	514.4178	532.7277	614.7341	635.7305	766.0207	792.531	859.0618	898.6598	914.3658	938.9477	959.6059	993.7563	1044.9154	1059.5231	1092.079	1095.8523	1136.717	1147.2067	1171.8131	1198.3902	1225.3793	1267.4923	1288.8215	1312.5664	1360.5447	1373.0635	1384.068	1408.106	1412.7542	1483.9012	1489.8394	1496.2307	1525.4597	2987.6019	3015.2869	3047.6782	3060.7427	3076.3292	3120.8505	3127.7797	3145.6027	3152.712	3808.5716
CC1OC2CC1(O)CO2	C[C@H]1O[C@H]2C[C@]1(O)CO2	
InChI=1S/C6H10O3/c1-4-6(7)2-5(9-4)8-3-6/h4-5,7H,2-3H2,1H3	InChI=1S/C6H10O3/c1-4-6(7)2-5(9-4)8-3-6/h4-5,7H,2-3H2,1H3/t4-,5+,6+/m1/s1
