16
gdb 106954	4.22013	1.10981	0.99456	2.8096	64.7	-0.2723	-0.0109	0.2614	1163.428	0.125496	-475.030037	-475.022141	-475.021197	-475.062968	29.236	
O	 0.0326543833	 1.3633043361	-0.3972757454	-0.414185
C	 0.0445766387	 0.0517872513	 0.1419707394	-0.148637
C	-1.34695843	-0.5219787759	 0.2035218222	 0.29041
C	-2.3856528901	 0.1007542308	 1.124517851	-0.148027
O	-3.3788072233	-0.9128693356	 1.3546921313	-0.237098
C	-2.9262746557	-2.1481927945	 0.9663700144	 0.460108
O	-3.4803942709	-3.1617755894	 1.2722022322	-0.335122
C	-1.6964445339	-1.9662223046	 0.1227076163	-0.257219
N	-1.874041369	-1.0735762714	-1.0443368192	-0.370301
H	-0.2545280071	 1.2870617741	-1.3142703212	 0.294257
H	 0.6877667261	-0.6244463505	-0.4374622376	 0.10896
H	 0.4636217366	 0.140073491	 1.1497922951	 0.118973
H	-1.9432927774	 0.3884263204	 2.0849197541	 0.129948
H	-2.8786192007	 0.9749335107	 0.6901948986	 0.13445
H	-1.005043375	-2.7923140299	 0.0145527177	 0.125204
H	-2.8583744416	-0.8435707326	-1.1739587188	 0.248276
65.1442	118.7466	181.5547	237.2772	315.3531	385.7087	403.8731	415.3637	498.1789	641.3856	697.7706	749.5183	795.4934	834.454	884.2374	931.0514	980.9249	1028.8232	1045.3265	1056.0053	1078.8905	1130.8977	1147.4634	1177.3735	1199.9716	1234.8366	1279.0506	1335.1029	1362.8873	1395.4534	1418.1222	1450.0793	1491.1439	1515.1694	1886.0141	3014.1747	3045.131	3082.059	3098.0497	3201.795	3473.1859	3803.3246
OCC12COC(=O)C1N2	OC[C@]12COC(=O)[C@H]1N2	
InChI=1S/C5H7NO3/c7-1-5-2-9-4(8)3(5)6-5/h3,6-7H,1-2H2	InChI=1S/C5H7NO3/c7-1-5-2-9-4(8)3(5)6-5/h3,6-7H,1-2H2/t3-,5+/m1/s1
