21
gdb 72765	2.66088	1.70695	1.44943	0.4362	88.17	-0.2166	0.0196	0.2361	1024.2307	0.184161	-349.928361	-349.920708	-349.919764	-349.959797	32.035	
C	-0.1812893635	 1.5708636322	-0.1731477573	-0.457764
C	-0.006453724	 0.0539446291	-0.0615496408	 0.310561
C	-1.2114976852	-0.6190230099	 0.7112242383	-0.281014
C	-0.3556022361	-0.587293425	 2.032300283	-0.316043
C	 0.8294883065	-0.4349658767	 1.1036855147	 0.235031
C	 1.9486717924	-1.0639988106	 0.7381903549	-0.238602
C	 2.0477596055	-1.0854957749	-0.7579086981	-0.05993
C	 1.0068622365	-1.9869795555	-1.3980228175	-0.300785
C	 0.7131575039	-0.5166756616	-1.2762782438	-0.11662
H	 0.7624879397	 2.0508136345	-0.4516529907	 0.119304
H	-0.9270881832	 1.8173035602	-0.9384096015	 0.111098
H	-0.5154228379	 2.0109171269	 0.7717965953	 0.110923
H	-2.1501306617	-0.0584710202	 0.7217802368	 0.096349
H	-1.3981214428	-1.6421930406	 0.3794616213	 0.108098
H	-0.5752072567	 0.3010086444	 2.6326308225	 0.110317
H	-0.3814160429	-1.466025349	 2.6802073537	 0.107337
H	 2.5970376322	-1.6567849813	 1.3745208566	 0.089714
H	 2.9874925561	-0.9244425151	-1.2760790423	 0.082124
H	 1.2094736984	-2.3514500019	-2.4002565336	 0.107236
H	 0.4897022128	-2.6964453117	-0.7598201077	 0.106573
H	 0.7023192601	 0.0590266267	-2.1955487938	 0.076094
161.8078	213.0178	236.9608	251.9184	326.1252	407.9258	413.3414	493.7307	582.3961	652.562	684.2489	748.577	784.8425	801.8015	831.8102	845.054	880.5643	895.8133	901.0984	954.8686	959.8411	1000.7117	1037.0225	1046.7269	1067.9447	1073.1518	1099.86	1111.7597	1133.3783	1171.9697	1194.0084	1218.4938	1221.3165	1234.9174	1258.6729	1307.7555	1332.8513	1369.9189	1406.5571	1469.8611	1477.0819	1485.7371	1491.8262	1497.4033	1701.3819	3024.1319	3052.0577	3060.3913	3089.8671	3103.1388	3106.4392	3120.4981	3128.2782	3155.6714	3165.3209	3186.4016	3206.5064
CC12CCC1=CC1CC21	C[C@]12CC[C]1[CH][C@H]1C[C@@H]21	
InChI=1S/C9H12/c1-9-3-2-7(9)4-6-5-8(6)9/h4,6,8H,2-3,5H2,1H3	InChI=1S/C9H12/c1-9-3-2-7(9)4-6-5-8(6)9/h4,6,8H,2-3,5H2,1H3/t6-,8+,9-/m0/s1
