20
gdb 122758	5.18068	0.57278	0.52242	0.7921	85.78	-0.2637	-0.0252	0.2385	2107.0671	0.168448	-403.126218	-403.115693	-403.114749	-403.1629	37.036	
C	 0.0318423049	 1.5748808164	 0.0997467795	-0.381056
C	 0.0279082205	 0.0448662614	 0.0469561637	-0.166629
C	 0.7435655837	-0.5920650141	 1.2434336686	-0.185352
C	 0.7315163255	-2.1102331483	 1.1770824574	-0.060154
O	 1.4238642589	-2.6001843302	 2.3387960766	-0.235229
C	 1.5184217306	-3.934115907	 2.4582282294	 0.254932
N	 1.027049189	-4.7353604037	 1.5982312843	-0.538765
C	 2.2275710106	-4.3135607126	 3.651438442	 0.276986
C	 2.8129489021	-4.6823920758	 4.6345185357	-0.408982
H	 1.0545469562	 1.9675536019	 0.1068263084	 0.116331
H	-0.4844441946	 2.0043053625	-0.7642032932	 0.113592
H	-0.4681466364	 1.940530616	 1.0033386121	 0.116331
H	-1.0074162082	-0.3181228145	 0.0060063934	 0.100018
H	 0.5037151354	-0.291315435	-0.8835945279	 0.100019
H	 1.7830941175	-0.2445663264	 1.2868526874	 0.106409
H	 0.2682066141	-0.2715306086	 2.178608083	 0.106413
H	-0.2873572496	-2.5134106517	 1.1716008251	 0.120905
H	 1.2316970193	-2.4864298027	 0.2776579289	 0.120932
H	 1.2048270929	-5.6993726287	 1.8702931254	 0.234572
H	 3.3313090476	-5.0044655289	 5.5042554103	 0.208725
51.1295	66.2679	83.1002	129.1467	158.3398	174.6856	249.2611	258.3966	306.3459	345.4399	427.7825	560.3592	591.5256	657.6359	658.3091	732.6267	744.8638	806.5121	853.411	883.8674	932.0758	949.3042	1000.5619	1042.7587	1073.0927	1118.9569	1147.091	1191.1634	1251.5561	1292.4425	1305.5684	1326.3116	1361.6526	1390.2149	1415.1536	1432.1655	1488.413	1495.2014	1500.6841	1507.8335	1519.8775	1678.7308	2236.1454	3016.011	3028.2369	3032.6659	3041.6378	3042.0775	3063.9043	3089.3068	3099.7621	3104.7602	3499.3986	3526.3436
CCCCOC(=N)C#C	CCCCO[C]([NH])C#C	
InChI=1S/C7H11NO/c1-3-5-6-9-7(8)4-2/h2,8H,3,5-6H2,1H3	InChI=1S/C7H11NO/c1-3-5-6-9-7(8)4-2/h2,8H,3,5-6H2,1H3
