14
gdb 31210	2.38529	1.56453	0.9506	9.0711	72.37	-0.2243	0.0013	0.2256	1154.8651	0.102204	-432.902695	-432.894596	-432.893651	-432.93627	28.657	
C	-0.020809753	 1.4223309004	 0.0098604005	-0.272431
O	-0.0027916336	 0.0011878997	 0.0044512483	-0.245436
C	-1.1738854347	-0.6390230716	 0.011869572	 0.384354
C	-1.410185182	-2.0009799856	 0.0104978335	 0.048715
N	-2.7772015528	-2.2383925298	 0.020253486	-0.294573
C	-3.3412829988	-1.0665184473	 0.0270174834	 0.003556
N	-2.4100994255	-0.0463961926	 0.0221887308	-0.345437
C	-0.4354274901	-3.0265207107	 0.001011607	 0.224771
N	 0.37939545	-3.8498798831	-0.0067707783	-0.357724
H	 1.0221793518	 1.7377202458	 0.0031198808	 0.165893
H	-0.5211913423	 1.8177487449	-0.883478788	 0.133265
H	-0.5076392369	 1.8110706351	 0.9135467614	 0.133325
H	-4.4016754032	-0.8665378243	 0.0354287785	 0.144407
H	-2.602391949	 0.940814049	 0.025740854	 0.277315
41.7923	127.3087	168.4285	210.6494	253.3369	312.1614	430.6671	473.8856	533.4705	549.9121	634.6052	660.0834	720.8536	737.6264	787.5202	947.5035	1039.8917	1099.6935	1162.8825	1173.4764	1206.6594	1271.7264	1302.9592	1366.4722	1462.1657	1492.0842	1494.9891	1505.2924	1546.1697	1638.9963	2346.107	3005.8121	3069.5163	3155.8829	3260.3493	3671.483
COC1=C(N=CN1)C#N	COc1c(nc[nH]1)C#N	
InChI=1S/C5H5N3O/c1-9-5-4(2-6)7-3-8-5/h3H,1H3,(H,7,8)	InChI=1S/C5H5N3O/c1-9-5-4(2-6)7-3-8-5/h3H,1H3,(H,7,8)
