19
gdb 51002	2.52647	1.14016	0.91176	1.5921	76.2	-0.2478	-0.0393	0.2086	1309.9837	0.158531	-419.147576	-419.138575	-419.137631	-419.182216	32.951	
O	 0.1798289888	-0.1864817675	 0.1014957207	-0.233032
C	 0.0208311381	 0.9890127211	-0.0992022713	 0.149559
C	 1.1132225598	 2.0297739678	 0.02236178	-0.389059
C	 1.2566130064	 2.980545481	-1.163873362	 0.294034
C	 0.6355826083	 2.6306416981	-2.4747322216	-0.279447
N	 0.0773464252	 3.7178578242	-1.6537402935	-0.340979
C	 2.5098525263	 3.8181647802	-1.2045274698	-0.009299
C	 3.3809067378	 4.0509664928	-0.0253310304	-0.254619
N	 3.8514273636	 3.2176480553	-1.1471263704	-0.326279
H	-0.9880696471	 1.3827642027	-0.3652891255	 0.075879
H	 0.8925911444	 2.6236830498	 0.9225474687	 0.135797
H	 2.0463073219	 1.4892352904	 0.210214094	 0.125962
H	 1.1092097083	 2.9512748981	-3.3983167267	 0.129555
H	 0.0865255739	 1.6955763675	-2.5565948339	 0.122025
H	-0.7710345919	 3.4153574724	-1.1814454079	 0.230774
H	 2.4261200064	 4.6163300679	-1.9384077755	 0.103729
H	 3.8937985994	 5.0020491008	 0.0852076945	 0.123511
H	 3.131257749	 3.5672195504	 0.9147720523	 0.110914
H	 3.7899016115	 2.2323895671	-0.8990762517	 0.230975
64.9476	78.3501	83.0879	192.4527	249.1296	262.2706	348.2955	376.7619	472.704	476.2775	516.259	689.2323	807.5452	820.5855	848.093	858.6685	918.6621	949.9531	966.375	978.7812	984.7481	1030.681	1064.0611	1081.928	1115.8579	1139.3177	1160.524	1184.7323	1227.9994	1245.6718	1253.4936	1277.4107	1296.4516	1330.9354	1364.0788	1429.3109	1441.4337	1461.4041	1514.7913	1518.8991	1835.4673	2851.2424	3001.2943	3081.2822	3106.5977	3115.327	3137.7214	3191.4145	3197.0732	3489.8621	3497.821
O=CCC1(CN1)C1CN1	O=CC[C@]1(CN1)[C@H]1CN1	
InChI=1S/C6H10N2O/c9-2-1-6(4-8-6)5-3-7-5/h2,5,7-8H,1,3-4H2	InChI=1S/C6H10N2O/c9-2-1-6(4-8-6)5-3-7-5/h2,5,7-8H,1,3-4H2/t5-,6+/m1/s1
