19
gdb 15404	3.51899	1.13565	0.95189	3.6734	73.64	-0.2491	0.004	0.2531	1267.9794	0.164463	-365.063402	-365.05451	-365.053566	-365.097531	31.463	
C	-0.1211376584	 1.3896791243	-0.3568224826	-0.381623
C	-0.1233861664	-0.1353904225	-0.2259017459	-0.169248
C	-1.5185018781	-0.7032694118	 0.0704804342	-0.195813
C	-1.5386986707	-2.2042345308	 0.2631623799	-0.008276
C	-2.7932204725	-2.9964111783	 0.0165473473	-0.2542
N	-1.6603609588	-3.1132985925	-0.8697103405	-0.060885
C	-1.6836220711	-2.7930516046	-2.2129369527	 0.134669
O	-2.6072507431	-3.0082637326	-2.9606849797	-0.292065
H	 0.8836646808	 1.7689912615	-0.5649748841	 0.117589
H	-0.7766857838	 1.7182326794	-1.1707514034	 0.120415
H	-0.4737109762	 1.8665788173	 0.5644882549	 0.116813
H	 0.2660349997	-0.5849165682	-1.1478703004	 0.104876
H	 0.5653252716	-0.4386047862	 0.573354818	 0.101114
H	-1.9081169919	-0.238807903	 0.9865839641	 0.108065
H	-2.2138443579	-0.4314228486	-0.7343808074	 0.110737
H	-0.8664257356	-2.5707063825	 1.0390919219	 0.100849
H	-3.0156326362	-3.8671792665	 0.6270656387	 0.12719
H	-3.6612965641	-2.466310062	-0.3681983775	 0.135843
H	-0.7143842074	-2.3804679024	-2.5530246449	 0.08395
65.4819	95.164	123.5303	154.9681	217.9656	254.3754	283.3292	355.6641	412.5151	496.715	620.1268	749.301	801.1548	859.9054	880.2157	925.3069	959.9411	1027.4119	1039.3478	1055.5854	1084.5432	1122.1612	1130.4708	1145.7529	1162.0074	1198.4638	1265.5531	1303.5022	1329.3706	1377.362	1388.1394	1415.0897	1418.1467	1436.8727	1477.1618	1492.0231	1500.8851	1509.6591	1512.2773	1795.1948	2950.4061	3012.9658	3023.3498	3032.1305	3042.7297	3064.059	3098.5802	3107.3729	3108.6471	3110.7208	3197.2842
CCCC1CN1C=O	CCC[C@H]1CN1C=O	
InChI=1S/C6H11NO/c1-2-3-6-4-7(6)5-8/h5-6H,2-4H2,1H3	InChI=1S/C6H11NO/c1-2-3-6-4-7(6)5-8/h5-6H,2-4H2,1H3/t6-,7?/m0/s1
