19
gdb 108139	3.48285	1.33144	1.27539	1.9363	74.59	-0.2129	0.076	0.2889	1087.8976	0.159592	-422.983982	-422.976215	-422.975271	-423.016378	30.263	
C	-0.0234643197	 1.513484836	-0.1692377869	-0.375492
C	-0.0577523412	 0.0103196196	 0.1402275283	-0.305992
C	-1.4365783073	-0.5559217006	 0.035575555	 0.466393
O	-2.4407661698	-0.0552186054	 0.9314309058	-0.339329
C	-3.186686324	-1.3020250732	 0.7713535882	 0.05704
C	-4.2336450977	-1.0458874938	-0.302056602	-0.075815
O	-3.4611611027	-0.6955389759	-1.4586631563	-0.266291
C	-2.1337970514	-1.094848438	-1.2085970714	 0.035883
C	-2.0101323043	-1.9583380035	 0.0152991317	-0.286863
H	 0.9880613925	 1.9125909783	-0.0513617389	 0.110516
H	-0.3525871158	 1.7111621593	-1.1941211822	 0.122802
H	-0.6878302514	 2.0593016992	 0.5062884686	 0.139237
H	 0.5950164235	-0.5379763324	-0.5499577273	 0.102918
H	 0.3260857046	-0.1730734753	 1.15167366	 0.108825
H	-3.535260029	-1.7099681089	 1.7206418931	 0.088314
H	-4.8484931781	-1.9378259164	-0.4997922362	 0.092501
H	-4.8840282454	-0.2045381688	-0.0454344222	 0.119708
H	-1.5604865324	-1.2896103626	-2.1073304077	 0.106801
H	-1.5950727804	-2.9521145374	 0.1165656605	 0.098843
84.3052	129.619	189.686	256.0652	300.4751	361.188	424.3166	523.8508	640.9976	731.2913	751.5946	780.9389	801.0642	842.1212	886.6882	890.6686	916.6172	939.783	971.2572	999.059	1017.7816	1020.2286	1047.8162	1082.3682	1102.8144	1115.8092	1171.7403	1198.6408	1224.2331	1259.5896	1270.464	1292.2111	1321.4685	1353.4922	1373.6263	1408.6655	1452.9868	1472.7366	1495.5525	1500.1112	1508.8743	2985.7607	3024.98	3042.6017	3061.7906	3087.5748	3112.692	3114.8257	3121.6749	3188.3483	3199.7695
CCC12OC3COC1C23	CC[C@@]12O[C@H]3CO[C@@H]1[C@@H]23	
InChI=1S/C7H10O2/c1-2-7-5-4(9-7)3-8-6(5)7/h4-6H,2-3H2,1H3	InChI=1S/C7H10O2/c1-2-7-5-4(9-7)3-8-6(5)7/h4-6H,2-3H2,1H3/t4-,5-,6+,7-/m0/s1
