20
gdb 107641	2.60603	1.51331	1.14377	2.4986	73.88	-0.2432	0.0689	0.3121	1116.9351	0.172928	-440.270286	-440.261867	-440.260923	-440.30315	33.04	
O	-0.1917456662	 1.3397423837	 0.6229218492	-0.428303
C	-0.0345883994	 0.0333868547	 0.0923318782	-0.168178
C	-1.3621746877	-0.6219215238	-0.1734474653	 0.293067
N	-2.2048922135	-1.0962605609	 0.9543480565	-0.386411
C	-1.6855713656	-2.0592128717	-0.0471135761	-0.096681
C	-2.7232486869	-2.437557983	-1.0925947424	-0.220057
C	-3.3517289935	-1.0852211258	-1.5027631844	-0.250499
C	-2.2601382559	-0.0163308362	-1.2455674774	 0.091427
O	-2.7650351388	 1.2599375415	-0.8553816464	-0.444159
H	-0.8974778771	 1.7625173436	 0.1135449385	 0.289882
H	 0.555900343	 0.0496873214	-0.8398661238	 0.087397
H	 0.539703272	-0.5425751371	 0.8285457585	 0.094485
H	-1.629106266	-1.136048298	 1.7928536801	 0.234981
H	-0.9412730539	-2.7833584666	 0.2707103126	 0.088542
H	-2.2170361197	-2.9137153038	-1.9405447354	 0.103547
H	-3.4666254137	-3.1456895664	-0.7136787592	 0.108989
H	-3.7054540457	-1.0754638069	-2.5359518703	 0.10291
H	-4.2073658872	-0.860854637	-0.8607478702	 0.11572
H	-1.6738884212	 0.1757908295	-2.1514997668	 0.090472
H	-3.222972793	 1.1107239328	-0.0169558059	 0.292869
99.7287	118.2032	174.297	250.3767	303.0907	342.3874	389.8702	409.7154	473.2288	548.0237	598.0818	611.5367	647.5602	729.9424	826.6838	859.3674	901.484	919.7117	963.4857	993.7451	1001.674	1039.5379	1063.0085	1069.5454	1081.4481	1093.7015	1130.9514	1182.2361	1207.9849	1242.475	1253.698	1298.8598	1308.4528	1339.9045	1344.9435	1368.0726	1378.6188	1429.7053	1448.2632	1469.9572	1481.121	1494.7982	1506.7532	2956.14	3039.7224	3044.5318	3049.6772	3070.2245	3084.7347	3118.6203	3156.7928	3493.1477	3733.9234	3763.0843
OCC12NC1CCC2O	OC[C@]12N[C@H]1CC[C@H]2O	
InChI=1S/C6H11NO2/c8-3-6-4(7-6)1-2-5(6)9/h4-5,7-9H,1-3H2	InChI=1S/C6H11NO2/c8-3-6-4(7-6)1-2-5(6)9/h4-5,7-9H,1-3H2/t4-,5+,6-/m0/s1
