17
gdb 102797	1.5634	1.16293	0.78911	2.1297	79.33	-0.1538	-0.0017	0.1521	1476.5951	0.131484	-492.272025	-492.260568	-492.259624	-492.311349	37.389	
O	 0.203408246	 1.1327146167	 0.3688614967	-0.432101
C	 0.3289993623	-0.2907836285	 0.3091198756	-0.112176
C	-1.0056388105	-0.9640893853	 0.4409103353	-0.185508
N	-1.8500388347	-0.4439418218	 1.3499425778	-0.033344
C	-2.9787314844	-0.8466713946	 1.9137853273	-0.11075
N	-3.6731602939	 0.0994951728	 2.7019483893	-0.529388
H	-3.8450124804	-0.2331134904	 3.6461517058	 0.239479
H	-4.5769225736	 0.3535375468	 2.3095336733	 0.237626
C	-2.5644578255	 0.2478558469	-1.8109243546	 0.570576
O	-1.7050600675	 0.9855731168	-2.0947372212	-0.308608
O	-3.4700825536	-0.4471758007	-1.5946895275	-0.28802
H	-0.2857843586	 1.3982679655	-0.4197140042	 0.29237
H	 0.814391719	-0.6210452903	-0.6207139024	 0.098258
H	 1.0284688852	-0.5282322611	 1.1277089826	 0.102259
H	-1.1561310581	-1.9947018689	 0.1448027944	 0.090814
H	-1.5818319043	 0.502632845	 1.6296593531	 0.268944
H	-3.3479351576	-1.836292229	 1.6637630188	 0.099569
27.9073	37.1563	75.5918	91.1056	108.2434	138.7901	142.8793	185.9199	221.3311	323.1571	375.7049	510.1023	542.4942	580.8073	601.6701	633.0254	677.0224	682.236	808.5849	950.4916	982.7502	1041.724	1071.1731	1135.9226	1193.8436	1198.688	1278.5898	1303.5283	1361.62	1379.104	1385.816	1416.5751	1454.5519	1512.0216	1640.9622	1682.8494	2413.3609	2958.7008	3004.6494	3166.3341	3204.9817	3452.3194	3458.8943	3517.2882	3784.3875
OCC(NC=[NH2+])C([O-])=O	OCC=[NH]C=[NH2].C(=O)=O	
InChI=1S/C4H8N2O3/c5-2-6-3(1-7)4(8)9/h2-3,7H,1H2,(H2,5,6)(H,8,9)	InChI=1S/C3H8N2O.CO2/c4-3-5-1-2-6;2-1-3/h1,3,5-6H,2,4H2;
