18
gdb 32751	3.16227	1.09899	0.84898	2.5371	75.88	-0.216	0.0148	0.2308	1374.6486	0.146704	-439.118793	-439.109562	-439.108618	-439.15411	32.34	
C	-0.0991365049	 1.4498739228	 0.028762668	-0.387115
C	 0.2849671555	-0.0152598199	-0.0221788826	-0.06376
O	 0.1610643012	-0.547339825	 1.3145564003	-0.275594
C	 0.5013930723	-1.8269974822	 1.4686049792	 0.334108
C	 1.3622481175	-2.4571944105	 2.3068606434	 0.142206
C	 2.2943447979	-1.8720883796	 3.3113717926	-0.495303
N	 1.2387004959	-3.8334721681	 2.0941811282	-0.30376
C	 0.3510355597	-3.9479891112	 1.1664908101	 0.066393
O	-0.1634035598	-2.7727338547	 0.7233759714	-0.186549
H	 0.5604715894	 2.0000840608	 0.705289413	 0.132537
H	-0.0205054201	 1.8911203276	-0.9690722082	 0.123996
H	-1.1282638025	 1.5655302951	 0.3794633467	 0.13549
H	-0.3722498039	-0.5777688413	-0.6944695748	 0.123004
H	 1.3204211415	-0.150673016	-0.360676283	 0.10907
H	 2.043717511	-2.2046339476	 4.3245620373	 0.136897
H	 3.3273775644	-2.178599832	 3.1157454641	 0.134633
H	 2.2439188289	-0.7807556448	 3.2863315207	 0.128211
H	-0.023281404	-4.8450712034	 0.6988991937	 0.145538
45.589	52.8043	127.2598	139.4945	234.5453	251.5711	260.8366	338.1359	383.3403	497.4982	644.1897	668.8021	701.2593	773.7405	811.715	817.393	906.7665	951.6912	978.6791	1051.6366	1068.7065	1081.6489	1130.1091	1157.0669	1181.812	1249.2255	1294.042	1307.7888	1368.3671	1401.1528	1417.4401	1434.6431	1479.2866	1483.1457	1493.1976	1499.4777	1522.3774	1564.2402	1710.6522	3020.0201	3035.6673	3048.6992	3070.4958	3089.1711	3124.2143	3124.6954	3128.5638	3272.6717
CCOC1=C(C)N=CO1	CCOc1c(C)nco1	
InChI=1S/C6H9NO2/c1-3-8-6-5(2)7-4-9-6/h4H,3H2,1-2H3	InChI=1S/C6H9NO2/c1-3-8-6-5(2)7-4-9-6/h4H,3H2,1-2H3
