20
gdb 9776	3.49901	1.51118	1.48171	1.0289	70.38	-0.2425	0.0847	0.3272	985.6545	0.17683	-386.134928	-386.126368	-386.125424	-386.168321	31.683	
C	 0.018868902	 1.4171773039	 0.1488000246	-0.25182
O	 0.0590498984	 0.0101644182	 0.0475569707	-0.285948
C	 0.645517845	-0.5271695871	-1.1364256305	 0.407978
C	 2.1139796637	-0.1217373899	-1.2980720654	-0.450172
C	 0.4888712368	-2.0711241018	-1.0526087005	-0.28615
C	-0.3223451581	-2.4415677775	-2.3081176519	-0.078177
O	-0.1411439814	-1.3571084139	-3.2119365974	-0.245456
C	-0.1804669561	-0.1911910916	-2.4117760487	-0.129997
H	 1.0169568323	 1.8633059963	 0.25864025	 0.109473
H	-0.4776229991	 1.8885850312	-0.7120533076	 0.107068
H	-0.5602975692	 1.6480890436	 1.0465782685	 0.127793
H	 2.7028081094	-0.4504241734	-0.4360943169	 0.120177
H	 2.5210038547	-0.5933174441	-2.1975835636	 0.128963
H	 2.2346334212	 0.9600947607	-1.4088109994	 0.113233
H	 1.4657601368	-2.5603301545	-1.0524477461	 0.103736
H	-0.0248824825	-2.3332547749	-0.1263279131	 0.11858
H	 0.0168400237	-3.3531967219	-2.805691602	 0.107089
H	-1.3903792983	-2.5571483638	-2.063659135	 0.092303
H	-1.2136344566	 0.0492826998	-2.1093922322	 0.088929
H	 0.2205574275	 0.6341414406	-3.0055316435	 0.102399
41.1441	103.5492	190.376	229.973	273.3462	297.2229	357.3246	367.9508	429.5591	465.2935	604.0576	652.6545	770.8521	834.7051	907.0544	934.0092	945.6908	978.7341	996.0615	1031.5816	1100.3483	1112.664	1169.285	1180.7119	1186.8096	1202.2714	1236.4599	1243.3506	1266.9137	1290.369	1326.3083	1358.8764	1393.966	1409.7548	1477.5556	1484.835	1487.3437	1493.732	1502.7048	1509.6371	1513.4942	1524.7791	2964.7852	2978.83	2989.5005	3035.6253	3042.6174	3071.0804	3092.5632	3097.9839	3108.0718	3111.622	3114.6772	3128.6391
COC1(C)CCOC1	CO[C@@]1(C)CCOC1	
InChI=1S/C6H12O2/c1-6(7-2)3-4-8-5-6/h3-5H2,1-2H3	InChI=1S/C6H12O2/c1-6(7-2)3-4-8-5-6/h3-5H2,1-2H3/t6-/m0/s1
