21
gdb 38715	2.46097	2.07005	1.5703	1.3915	80.64	-0.2323	0.0793	0.3116	949.9067	0.186538	-387.070649	-387.063842	-387.062898	-387.101235	29.699	
C	-0.0317218769	 1.4714753298	 0.0083567912	-0.385481
C	 1.3692606267	 0.8449170455	 0.0262630147	-0.072345
C	 2.2065231137	 0.2795953477	 1.18254173	-0.248138
C	 1.5645164518	-1.12622397	 1.3768674597	 0.001247
C	 0.0771414063	-0.7474799749	 1.3053799225	-0.267043
C	 0.1262500004	-0.0091673829	-0.0352990378	 0.425596
O	-0.0238114685	-0.8824628761	-1.116559733	-0.301832
C	 1.1871398333	-1.6603937828	-1.1823492077	-0.078535
C	 1.7667491062	-2.1164786509	 0.1919424682	-0.227912
H	-0.4813571859	 1.8999920205	 0.9000839813	 0.110702
H	-0.2554174483	 2.0115721314	-0.9063410194	 0.120371
H	 1.8966106176	 1.0113793996	-0.9065207279	 0.09335
H	 3.2657366205	 0.2383815537	 0.9100203479	 0.094235
H	 2.1351755697	 0.854464944	 2.1142122844	 0.096377
H	 1.8790218595	-1.6089493152	 2.309008346	 0.054323
H	-0.6050423476	-1.5995367287	 1.2620747211	 0.099513
H	-0.2224536066	-0.097283943	 2.1334978064	 0.087932
H	 0.9523480751	-2.5337630662	-1.7972835624	 0.103711
H	 1.9481946698	-1.0748383894	-1.7155118224	 0.093645
H	 2.8283683958	-2.3466858858	 0.0411066387	 0.095434
H	 1.2820398973	-3.0546211064	 0.4868263385	 0.104851
199.8542	280.6642	329.6105	370.6643	410.8897	445.1708	477.8779	564.1409	604.2433	730.2553	755.1628	776.6406	819.0389	842.6197	867.7004	900.2079	911.2047	950.6743	952.1231	983.4751	989.7058	1039.6499	1061.9201	1070.8286	1085.8439	1096.963	1118.553	1147.2942	1183.0908	1218.0959	1235.6536	1270.584	1280.1177	1299.9724	1310.4665	1337.6552	1342.9167	1373.3827	1383.8159	1421.5799	1475.9495	1480.5689	1483.468	1501.5437	1512.2064	3008.0548	3024.2184	3026.7904	3042.4487	3054.5803	3065.585	3079.9803	3089.4867	3109.7482	3114.7119	3167.1508	3204.1118
C1C2CC3CC12OCC3	C1[C@H]2C[C@H]3C[C@@]12OCC3	
InChI=1S/C8H12O/c1-2-9-8-4-6(1)3-7(8)5-8/h6-7H,1-5H2	InChI=1S/C8H12O/c1-2-9-8-4-6(1)3-7(8)5-8/h6-7H,1-5H2/t6-,7+,8+/m0/s1
