17
gdb 5541	3.06497	1.97966	1.29717	1.9294	71.47	-0.1897	0.0542	0.2439	957.8914	0.141955	-363.88951	-363.881014	-363.88007	-363.923032	30.236	
C	 0.1814816619	 0.9695177971	-0.4539735049	-0.24684
O	-0.4368077157	 0.256491989	 0.6176787262	-0.269459
C	 0.4060274858	-0.5250350129	 1.3425714518	 0.268733
C	 0.7757315305	-1.8411003571	 1.181852253	 0.185482
C	 0.3362664715	-2.7517463184	 0.0763802991	-0.510844
C	 1.6399135878	-2.1434719998	 2.2809893911	-0.235321
C	 1.7607165183	-1.0182539335	 3.0586504041	-0.089114
N	 1.0106637909	-0.0253028277	 2.4737756129	-0.294926
H	 0.6472336629	 0.2818631678	-1.1694896077	 0.124674
H	-0.6095028529	 1.5347428624	-0.9518510327	 0.129049
H	 0.9456491281	 1.6644251733	-0.0824036405	 0.112331
H	 1.1599722043	-3.0152521519	-0.598690242	 0.118488
H	-0.0689028989	-3.6920477697	 0.4672520183	 0.122862
H	-0.4474378117	-2.2783915969	-0.5223363666	 0.123605
H	 2.1148618097	-3.0945117173	 2.4715637975	 0.087524
H	 2.305296147	-0.8395018781	 3.971358159	 0.114314
H	 0.8381211903	 0.8918461938	 2.8464958514	 0.259442
42.2554	118.9404	144.9077	164.033	240.4952	252.3268	395.8276	446.9317	462.9242	623.8309	639.6361	668.7907	702.5977	743.9544	819.4686	911.2389	981.1844	1029.4248	1064.3761	1083.0919	1106.9131	1173.35	1192.4673	1217.9126	1259.7749	1299.3969	1412.2248	1422.8084	1453.8208	1484.3756	1488.4626	1498.1689	1500.3911	1505.9717	1516.4244	1649.246	3007.9903	3019.8477	3067.8895	3073.4427	3105.1149	3126.6517	3238.2137	3269.8625	3684.2115
COC1=C(C)C=CN1	COc1c(C)cc[nH]1	
InChI=1S/C6H9NO/c1-5-3-4-7-6(5)8-2/h3-4,7H,1-2H3	InChI=1S/C6H9NO/c1-5-3-4-7-6(5)8-2/h3-4,7H,1-2H3
