17
gdb 50737	2.46326	1.44075	0.97097	2.9086	69.	-0.2408	-0.0374	0.2034	1172.7946	0.135135	-458.988176	-458.979818	-458.978874	-459.022238	30.229	
O	-0.6430767908	 0.8504593144	-0.7744788828	-0.242493
C	 0.0157943043	 1.1039454187	 0.2005907184	 0.150121
C	 1.2854450853	 1.943911117	 0.1497140062	-0.219907
C	 1.4979568336	 2.6405041976	-1.2036772448	-0.209007
C	 2.5895707574	 3.7002602839	-1.1070197105	-0.097004
O	 2.259290557	 4.6658573091	-0.1195734721	-0.236158
C	 2.2547454952	 4.1282714367	 1.1819415598	-0.17545
C	 1.3801335072	 2.8861289119	 1.3597533459	 0.358242
O	 0.86604993	 2.6295988464	 2.4222480611	-0.299609
H	-0.2581214634	 0.7394899954	 1.2088425542	 0.11768
H	 2.1109913565	 1.2307680324	 0.3256024801	 0.136075
H	 1.7391696384	 1.9004151975	-1.9725840092	 0.117597
H	 0.5630867803	 3.1195738993	-1.510173496	 0.132794
H	 3.5680499804	 3.2420847448	-0.879640113	 0.08805
H	 2.6865861592	 4.248691812	-2.0475131777	 0.120414
H	 3.2764333342	 3.8396018118	 1.4967168853	 0.114194
H	 1.9021594851	 4.9023175409	 1.8671754249	 0.144462
37.8053	91.9803	145.4335	211.8716	299.527	332.7142	367.5799	448.8262	471.7088	529.3457	628.5089	642.823	744.6872	850.5659	896.5075	910.856	959.4569	1011.7926	1021.6347	1098.4118	1134.9777	1166.9996	1171.4678	1201.218	1238.5101	1269.67	1300.5812	1320.0864	1358.4006	1373.5282	1406.0155	1413.5948	1459.6142	1480.3065	1502.1699	1807.2836	1828.7482	2927.0502	2957.2251	2958.2828	2968.319	3058.9894	3095.7934	3103.9224	3112.4644
O=CC1CCOCC1=O	O=C[C@H]1CCOCC1=O	
InChI=1S/C6H8O3/c7-3-5-1-2-9-4-6(5)8/h3,5H,1-2,4H2	InChI=1S/C6H8O3/c7-3-5-1-2-9-4-6(5)8/h3,5H,1-2,4H2/t5-/m1/s1
