16
gdb 17615	3.34865	1.62011	1.24401	2.6976	61.4	-0.2655	-0.0436	0.2219	972.7405	0.128344	-420.864202	-420.855924	-420.85498	-420.897128	29.891	
C	-1.2938529432	 1.3301305545	 0.3007508924	-0.415455
C	-0.1854659923	 0.2929384505	 0.0657062825	 0.06827
O	 0.7048215395	 0.2892010837	 1.1505121739	-0.440384
C	-0.696677885	-1.1317063088	-0.1609665052	 0.317164
O	-0.3409608665	-2.0242932759	 0.5820601231	-0.332027
C	-1.561181005	-1.4695491303	-1.3416892869	-0.00315
C	-2.9394157299	-0.9609456416	-1.493142996	-0.171708
O	-1.8760576537	-0.4478565448	-2.2862282448	-0.214132
H	-0.8181134277	 2.2751394236	 0.5735459885	 0.138567
H	-1.8883052	 1.4876927249	-0.6010506039	 0.135928
H	-1.9420452034	 1.0299463285	 1.129923185	 0.120987
H	 0.345497191	 0.5688781955	-0.8620390623	 0.10434
H	 0.7342234734	-0.6293208103	 1.4623208948	 0.292933
H	-1.3368267315	-2.4490128291	-1.7621542699	 0.128776
H	-3.6625929223	-1.5813409902	-2.0189103437	 0.136833
H	-3.3513964834	-0.2783622503	-0.7542530775	 0.133059
69.1629	111.4045	183.613	218.8012	282.2911	293.1751	362.0716	403.6924	452.5731	503.3506	582.4513	676.0093	776.9719	883.7789	893.5873	933.7158	955.8769	1049.7765	1075.729	1103.4023	1153.9939	1160.5233	1169.7311	1211.9274	1269.6029	1294.9916	1344.7451	1391.9565	1397.2326	1435.8712	1496.0884	1502.009	1529.5456	1779.0917	2959.0761	3047.6881	3102.4187	3122.0712	3129.0788	3145.2053	3196.4813	3685.5594
CC(O)C(=O)C1CO1	C[C@@H](O)C(=O)[C@H]1CO1	
InChI=1S/C5H8O3/c1-3(6)5(7)4-2-8-4/h3-4,6H,2H2,1H3	InChI=1S/C5H8O3/c1-3(6)5(7)4-2-8-4/h3-4,6H,2H2,1H3/t3-,4-/m1/s1
