16
gdb 90319	2.75947	1.67015	1.30115	3.9933	72.17	-0.2055	-0.0049	0.2006	981.2641	0.125294	-437.88537	-437.877792	-437.876848	-437.917347	29.341	
O	-0.0374702655	 1.4172309416	 0.1609052748	-0.415303
C	 0.0575629673	 0.0173282062	 0.0848165367	 0.115046
C	 0.1221233262	-0.6958093517	 1.4934102528	-0.325919
C	-1.3801693561	-0.8035472026	 1.353590981	 0.104875
C	-2.424726091	-0.1317808976	 1.8590084066	-0.09149
N	-3.2471332175	 0.3246281996	 0.8180756728	-0.311132
C	-2.646991727	 0.1951701257	-0.436745493	 0.419623
O	-3.1341230927	 0.5365375307	-1.4866337744	-0.369244
C	-1.3698833454	-0.6023349034	-0.1453266263	-0.196644
H	 0.8029564021	 1.7599063167	 0.4816894381	 0.28908
H	 0.8155554644	-0.3036558407	-0.6417384127	 0.078461
H	 0.6559795365	-1.6499649908	 1.4385073316	 0.108903
H	 0.5198881776	-0.098878933	 2.3185674286	 0.102364
H	-2.6130930177	 0.1972415462	 2.8723926576	 0.122502
H	-4.1531409813	 0.7499735374	 0.9278769178	 0.259699
H	-1.3227851999	-1.4808681144	-0.792603022	 0.109178
104.127	142.1779	243.1166	268.7879	339.9687	398.707	427.0187	513.132	528.1907	626.6744	669.884	721.3447	794.4243	806.9603	833.6424	862.235	939.3052	949.6103	994.637	1040.4484	1095.2272	1101.3346	1122.7099	1180.3159	1180.7626	1226.3696	1231.9571	1273.9017	1307.9642	1337.6837	1393.7667	1406.0687	1476.3111	1681.7388	1837.0218	3008.9295	3045.5289	3091.0201	3101.8998	3219.822	3657.3303	3815.6272
OC1CC2=CNC(=O)C12	O[C@H]1C[C]2[CH]NC(=O)[C@@H]12	
InChI=1S/C6H7NO2/c8-4-1-3-2-7-6(9)5(3)4/h2,4-5,8H,1H2,(H,7,9)	InChI=1S/C6H7NO2/c8-4-1-3-2-7-6(9)5(3)4/h2,4-5,8H,1H2,(H,7,9)/t4-,5+/m0/s1
