19
gdb 58860	2.58381	1.52854	1.12719	3.6745	76.78	-0.2104	0.0098	0.2202	1127.4913	0.158687	-419.178053	-419.169233	-419.168289	-419.211444	33.398	
C	-0.0407077775	 1.4797689976	 0.1553024466	-0.347457
N	 0.0047467442	 0.0228607446	 0.046913094	-0.150173
C	 0.9065103753	-0.5859574336	 1.0075512799	-0.334996
C	-1.2930039069	-0.5412025948	-0.0166936312	 0.253536
C	-2.1861867813	-1.0220629357	 1.1623787984	-0.346681
C	-1.8054304984	-1.9608754253	 0.0496949948	-0.088614
N	-2.6248887478	-1.7204446757	-1.1459814104	-0.339098
C	-2.2373791267	-0.3695258838	-1.2068538539	 0.384401
O	-2.5639576632	 0.5300014181	-1.9291391246	-0.350053
H	 0.9614477652	 1.8847390508	-0.0157415822	 0.117
H	-0.7133514209	 1.8770983851	-0.6075298401	 0.159439
H	-0.3879966338	 1.8241697251	 1.1463296363	 0.095065
H	 0.6315966611	-0.3889510088	 2.0606476721	 0.097535
H	 0.9420179855	-1.6687437939	 0.8561262671	 0.122992
H	 1.9145614094	-0.1901157306	 0.850269267	 0.127169
H	-1.6537123333	-1.1469096061	 2.1010902236	 0.123746
H	-3.2168253893	-0.6937249309	 1.2648885264	 0.118045
H	-1.260879042	-2.88901445	 0.1628400424	 0.11797
H	-3.5942947097	-2.0119627222	-1.2217984962	 0.240174
62.2663	154.3495	188.1665	227.7821	260.7258	268.3372	321.1978	372.3689	395.243	471.6616	538.7486	628.3418	654.2881	694.4142	781.5239	861.6276	875.342	893.2057	971.1178	987.1619	1018.7329	1049.6342	1076.2712	1081.838	1122.8523	1130.6182	1185.3578	1201.5025	1241.2189	1278.2387	1303.3337	1330.2082	1414.2473	1443.0941	1472.556	1483.5988	1487.6296	1500.7615	1503.1694	1522.3123	1891.8695	2930.7324	2945.1587	3065.2055	3072.7912	3110.37	3113.4418	3133.7852	3200.4554	3208.0135	3528.4656
CN(C)C12CC1NC2=O	CN(C)[C@]12C[C@H]1NC2=O	
InChI=1S/C6H10N2O/c1-8(2)6-3-4(6)7-5(6)9/h4H,3H2,1-2H3,(H,7,9)	InChI=1S/C6H10N2O/c1-8(2)6-3-4(6)7-5(6)9/h4H,3H2,1-2H3,(H,7,9)/t4-,6-/m1/s1
