17
gdb 71039	3.2797	1.54377	1.24793	4.3008	81.96	-0.2301	-0.0699	0.1602	1019.143	0.135683	-384.621774	-384.61444	-384.613496	-384.653231	29.313	
C	-0.0702014018	 1.4923293715	-0.1008264915	-0.489228
C	-0.0351097795	-0.0119998957	-0.0447331353	 0.303174
C	 0.6031582301	-0.8950061764	-1.2093489113	-0.306953
C	-0.1871954059	-1.9957092536	-0.5289739829	 0.096818
C	 0.4017568983	-2.8212775143	 0.3687297872	-0.247907
C	 0.3209325572	-2.118219615	 1.6973065377	 0.390957
O	 0.7994850485	-2.4468907508	 2.7557447768	-0.338684
C	-0.2728934938	-0.7668849174	 1.3444688029	-0.20375
C	-1.1361900983	-0.9965380902	 0.1276995881	-0.160235
H	 0.9195820611	 1.9193026971	 0.0918569155	 0.134657
H	-0.4002728637	 1.8378545535	-1.0866688381	 0.126289
H	-0.7612287272	 1.897681684	 0.6445120299	 0.131886
H	 0.1985494712	-0.5039568479	-2.1490285704	 0.120289
H	 1.6867084382	-1.0245462389	-1.2794664083	 0.115474
H	 1.2734974133	-3.4341565772	 0.1619742037	 0.117228
H	-0.5876719849	-0.1038603404	 2.1451856431	 0.10055
H	-2.213945533	-0.9208420282	 0.0710124431	 0.109436
137.6525	190.3809	215.7122	281.3223	390.6048	393.006	449.8041	563.765	603.2993	666.5105	707.7251	736.903	771.5411	822.3159	849.0286	889.2687	913.8947	922.7028	994.4256	1003.6547	1033.1683	1044.7959	1061.7834	1120.9949	1132.7726	1171.7883	1193.8581	1204.1895	1244.8976	1273.3684	1382.929	1413.9836	1483.1466	1491.087	1498.0633	1567.9886	1800.0996	3031.0859	3041.0397	3095.1583	3107.1725	3107.7422	3165.1948	3184.1101	3204.2113
CC12CC3=CC(=O)C1C23	C[C@@]12C[C]3[CH]C(=O)[C@@H]1[C@@H]23	
InChI=1S/C8H8O/c1-8-3-4-2-5(9)7(8)6(4)8/h2,6-7H,3H2,1H3	InChI=1S/C8H8O/c1-8-3-4-2-5(9)7(8)6(4)8/h2,6-7H,3H2,1H3/t6-,7+,8-/m0/s1
