21
gdb 103718	2.86293	1.20303	0.99694	1.428	86.61	-0.2379	0.0521	0.29	1282.6841	0.178152	-387.040614	-387.029973	-387.029029	-387.075516	39.519	
C	 0.246124787	 1.2448228143	 0.2932555529	-0.246476
O	-0.2109453844	 0.0094444515	-0.2239569565	-0.281135
C	 0.5484523299	-0.4997683018	-1.2856889818	 0.403057
C	 0.3672870646	 0.2338359305	-2.5956524928	-0.459736
C	 1.8722240334	-1.126532505	-0.9343710992	-0.381671
C	 0.6723793792	-2.0243341402	-1.2605295577	 0.064714
C	 0.0239279933	-2.8008886449	-0.1217046894	-0.455729
C	 0.691345046	-2.7271540231	-2.5168954281	 0.280381
C	 0.6942751635	-3.3470479691	-3.5486111332	-0.455217
H	 1.3037598009	 1.19529278	 0.5885096429	 0.108323
H	 0.1233357328	 2.0675352842	-0.4241634171	 0.112498
H	-0.3607586467	 1.4596222843	 1.1759505426	 0.12845
H	 0.7666980998	 1.2517033861	-2.5369850792	 0.114492
H	 0.8807283409	-0.2843884951	-3.4071514104	 0.135534
H	-0.6963895466	 0.2957594699	-2.8463174995	 0.128014
H	 2.6818377254	-1.0778477001	-1.6536472912	 0.120661
H	 2.1776058463	-1.105633666	 0.1063447294	 0.117924
H	-0.0160528143	-2.1939557784	 0.7830578815	 0.128532
H	-0.9987463113	-3.0862743545	-0.3854377313	 0.127489
H	 0.5891148316	-3.7153406127	 0.0823000614	 0.120986
H	 0.6979444688	-3.8900682498	-4.4608191334	 0.188908
95.8205	115.7992	142.1609	176.8253	183.7184	205.3794	235.3558	244.2542	312.2487	382.5001	392.6381	428.73	454.8354	543.3649	582.9208	600.1325	640.9108	701.6082	706.8591	861.6121	920.5581	929.6021	944.166	998.4691	1050.5345	1080.3097	1112.8497	1121.5144	1163.8854	1181.8857	1216.2462	1234.1157	1298.8528	1358.7572	1406.3025	1416.0995	1467.8859	1473.8878	1481.9448	1487.5314	1492.4931	1499.5533	1504.8915	1511.7714	2229.2078	2994.7675	3039.6195	3046.2859	3048.6613	3102.5998	3108.7573	3117.5388	3132.8647	3139.4339	3148.9271	3226.3742	3502.9749
COC1(C)CC1(C)C#C	CO[C@@]1(C)C[C@]1(C)C#C	
InChI=1S/C8H12O/c1-5-7(2)6-8(7,3)9-4/h1H,6H2,2-4H3	InChI=1S/C8H12O/c1-5-7(2)6-8(7,3)9-4/h1H,6H2,2-4H3/t7-,8-/m0/s1
