19
gdb 40864	3.85455	1.46353	1.33935	1.7006	77.67	-0.2281	0.0785	0.3066	1010.3677	0.160293	-385.805654	-385.798677	-385.797732	-385.836955	28.753	
C	 0.010885379	 1.5682979674	-0.0569622097	-0.209987
C	 1.5584082625	 1.5400721839	 0.0889437802	-0.298159
C	 1.4447880303	 0.0836443226	 0.586747572	 0.43194
C	 0.0025599788	 0.0140188415	 0.0216368944	-0.292101
C	 2.4311717286	-1.0580858861	 0.3886184505	-0.235464
C	 3.3411525763	-1.0008925554	 1.6282786205	 0.084478
O	 2.9611971473	 0.1376402756	 2.4054987526	-0.294914
C	 1.5864955556	-0.2318278515	 2.1010318351	-0.018754
C	 2.0291613139	-1.6939380055	 1.7228742519	-0.141083
H	-0.4772232412	 2.0260365001	 0.8077540586	 0.102143
H	-0.4002936619	 2.0201395966	-0.9620699522	 0.096814
H	 2.0640340381	 1.6018102911	-0.8800399925	 0.096948
H	 2.0306642938	 2.2494679362	 0.7723648176	 0.1087
H	-0.7607383943	-0.464280322	 0.643108655	 0.094598
H	-0.0253487808	-0.4455347264	-0.9710465561	 0.098793
H	 2.7195169452	-1.5522522762	-0.53125689	 0.084402
H	 4.3632643436	-1.3528410285	 1.6694255406	 0.10993
H	 0.867042761	 0.0988540361	 2.848607869	 0.08168
H	 1.716745324	-2.6882301195	 2.0078863924	 0.100038
111.3198	169.7705	219.2183	315.352	439.2215	557.5122	573.4684	688.2907	767.322	771.3312	785.5072	796.7388	825.8363	854.0853	869.7389	893.1764	930.7185	932.151	959.3904	980.4818	1021.1199	1032.8429	1037.547	1048.1284	1072.0831	1108.5784	1151.9187	1156.1128	1182.281	1195.2718	1203.6106	1225.6027	1252.4592	1267.3532	1272.4826	1288.9944	1349.8031	1365.7517	1474.622	1483.183	1505.2347	3044.1087	3052.7174	3062.1704	3089.8624	3105.3153	3119.882	3133.7198	3188.8796	3206.2845	3222.0077
C1CC2(C1)C1C3OC2C13	C1CC2(C1)[C@H]1[C@H]3O[C@@H]2[C@@H]13	
InChI=1S/C8H10O/c1-2-8(3-1)5-4-6(5)9-7(4)8/h4-7H,1-3H2	InChI=1S/C8H10O/c1-2-8(3-1)5-4-6(5)9-7(4)8/h4-7H,1-3H2/t4-,5+,6-,7+/m0/s1
