16
gdb 123562	3.96434	1.61808	1.25437	2.4814	73.92	-0.2135	0.0284	0.2419	961.993	0.129127	-396.915852	-396.909547	-396.908603	-396.94635	25.727	
C	 0.0275874595	 1.4701121252	 0.0071087401	-0.246961
C	 1.2673058942	 0.6582501211	 0.0249065718	-0.011985
C	 1.9802393268	 0.3706740622	 1.368409078	-0.390479
C	 0.8954488234	-0.3629571097	 2.1146465202	 0.192703
C	-0.1758042325	-0.5356695419	 1.2749285106	 0.408861
N	-1.1259525157	-1.2188074989	 1.9383325951	-0.334177
N	-0.7258562394	-1.5105131448	 3.207652485	-0.232352
C	 0.4996602534	-0.987880482	 3.3135061824	-0.159488
N	-0.0803465591	-0.0167678468	-0.0349893628	-0.208056
H	-0.2834900086	 1.9583379814	 0.9266696841	 0.129164
H	-0.2760842899	 1.9655547412	-0.9100372568	 0.124346
H	 1.8499755703	 0.586664247	-0.8873395556	 0.10431
H	 2.8717425718	-0.2441219685	 1.1970191207	 0.120178
H	 2.3184868711	 1.2936065412	 1.8534198384	 0.120198
H	-2.0331918134	-1.5185858693	 1.6252233287	 0.274942
H	 1.032917488	-1.0975065973	 4.2467663002	 0.108796
161.0644	234.7402	344.2156	421.7828	435.7084	504.0717	605.5965	677.6422	700.7716	735.5656	754.3681	779.3663	828.5939	881.6924	915.652	961.5204	975.2709	1058.154	1082.4684	1091.0873	1109.2641	1118.1908	1174.9559	1180.3843	1232.582	1245.9457	1285.7219	1320.8643	1368.6504	1401.9913	1447.9972	1487.082	1498.7161	1556.9738	1605.8998	3029.6855	3058.6527	3113.2279	3168.5336	3206.9879	3239.7566	3678.882
C1C2CC3=C(NN=C3)N12	C1[C@H]2Cc3c([nH]nc3)N12	
InChI=1S/C6H7N3/c1-4-2-7-8-6(4)9-3-5(1)9/h2,5H,1,3H2,(H,7,8)	InChI=1S/C6H7N3/c1-4-2-7-8-6(4)9-3-5(1)9/h2,5H,1,3H2,(H,7,8)/t5-,9?/m1/s1
