18
gdb 31722	5.8448	0.81458	0.73525	3.0279	77.24	-0.1808	0.0373	0.2181	1530.9341	0.147646	-439.097144	-439.087851	-439.086907	-439.131893	33.433	
C	-0.1616864793	 1.445883569	 0.1949120038	-0.329363
N	-0.1600570355	 0.1610243758	-0.4973511207	-0.385231
C	-1.147817546	-0.759122979	-0.2062611257	 0.452712
C	-1.183824583	-2.1248290289	-0.2237415557	-0.439707
C	-2.5446535463	-2.4864433361	 0.0782905472	 0.233697
C	-3.1188550726	-3.8678787911	 0.1825882255	-0.164237
O	-4.3524619018	-3.9025611783	 0.8831544791	-0.411776
C	-3.2159686548	-1.3230300657	 0.2677511838	-0.133975
O	-2.3654564925	-0.2515139646	 0.095941984	-0.185498
H	 0.6526428245	 2.0558158855	-0.202540098	 0.12537
H	-1.1025475814	 1.9627606726	-0.0022759661	 0.152865
H	-0.0403585397	 1.358992067	 1.2852320203	 0.115063
H	 0.7499467962	-0.2736210355	-0.5411388577	 0.243768
H	-0.3569119316	-2.7893069056	-0.4193571762	 0.093072
H	-3.3376085892	-4.2729286082	-0.8130064604	 0.12498
H	-2.3764708744	-4.5445808176	 0.637239632	 0.092623
H	-4.1973293583	-3.496073616	 1.7427096643	 0.279579
H	-4.2345322143	-1.0782561233	 0.5100020505	 0.136057
53.2493	74.9942	130.6834	163.0885	215.9625	235.9542	323.1653	358.8236	381.8414	493.8204	600.451	612.566	660.7335	694.1405	710.1619	732.3685	761.0053	950.648	984.7571	1008.8262	1058.1453	1070.6245	1125.285	1151.2092	1152.6998	1192.4013	1209.2074	1242.1739	1315.6372	1374.5519	1403.7056	1434.3047	1450.8371	1489.5556	1490.8543	1503.6642	1516.4304	1619.1075	1660.9103	2966.3064	2990.2167	3045.6028	3096.6983	3139.8165	3251.1081	3300.161	3606.7026	3803.9158
CNC1=CC(CO)=CO1	CNc1cc(CO)co1	
InChI=1S/C6H9NO2/c1-7-6-2-5(3-8)4-9-6/h2,4,7-8H,3H2,1H3	InChI=1S/C6H9NO2/c1-7-6-2-5(3-8)4-9-6/h2,4,7-8H,3H2,1H3
