19
gdb 113252	4.01927	0.8703	0.84113	4.0251	76.68	-0.2354	0.0318	0.2671	1419.2236	0.158022	-419.187335	-419.177496	-419.176552	-419.222341	35.589	
C	-0.2188085589	 1.0973389171	-0.1240696198	-0.247937
O	 0.5907016162	-0.0498814684	 0.0960461351	-0.241351
C	 0.931595073	-0.69901264	-1.0860465031	 0.071513
C	 1.412691647	-2.1165172955	-0.9645659444	-0.364888
C	 0.0450551971	-1.8214270424	-1.5750664984	 0.286779
N	-1.1686473217	-2.0612146431	-0.8367298018	-0.576563
C	-0.1316875206	-1.9963932295	-3.0780772922	-0.374352
C	-0.387137875	-3.3932131307	-3.4390728774	 0.263898
N	-0.5910232041	-4.5021580093	-3.6925996699	-0.31246
H	 0.3012119129	 1.8333615489	-0.7542004331	 0.113709
H	-1.1713114385	 0.8320849213	-0.6004376304	 0.12935
H	-0.4121575865	 1.5422676306	 0.8542400406	 0.133519
H	 1.4010432433	-0.0539747815	-1.8317608011	 0.08663
H	 2.2340177655	-2.4390941359	-1.5959375469	 0.119715
H	 1.411209856	-2.5394473987	 0.0339979493	 0.126147
H	-1.339920306	-3.0589607716	-0.7447958667	 0.244031
H	-1.0681822057	-1.6825484618	 0.1000696972	 0.241687
H	-0.977822414	-1.3894434502	-3.4181163822	 0.157133
H	 0.7619523901	-1.6584002792	-3.613852285	 0.143439
57.5344	97.6626	113.0658	173.2959	185.2457	258.0165	295.553	334.8153	370.6341	389.1893	410.8273	468.9352	478.9053	647.0099	734.8689	824.7294	861.0798	892.5822	919.963	946.373	970.1302	1023.4236	1061.112	1066.5303	1122.7871	1159.4535	1184.2677	1201.932	1230.1532	1246.5638	1291.2376	1335.9836	1360.4204	1416.0184	1451.7816	1470.5594	1487.5056	1494.5654	1509.2982	1649.502	2359.6514	2994.9709	3045.5993	3057.0028	3077.2614	3091.7143	3127.5167	3132.563	3224.57	3488.841	3570.3588
COC1CC1(N)CC#N	CO[C@H]1C[C@]1(N)CC#N	
InChI=1S/C6H10N2O/c1-9-5-4-6(5,8)2-3-7/h5H,2,4,8H2,1H3	InChI=1S/C6H10N2O/c1-9-5-4-6(5,8)2-3-7/h5H,2,4,8H2,1H3/t5-,6+/m0/s1
