18
gdb 39907	3.98131	1.53994	1.41472	0.8121	84.6	-0.2033	-0.0448	0.1586	967.3237	0.148102	-364.669526	-364.662732	-364.661788	-364.700329	28.647	
C	-0.1634672859	 1.4283329308	 0.1609867149	-0.318755
C	 1.2364425757	 0.9121054394	-0.0472340314	-0.313152
C	 0.082281317	-0.0574471217	 0.0661659655	 0.381036
C	-0.2757182117	-0.9821448292	 1.1819119721	-0.182283
C	-0.548072034	-2.189994348	 0.6368910716	-0.006943
C	-2.0194089938	-2.3628515062	 0.211583715	-0.268579
C	-1.4823029063	-1.7539300471	-1.1473069798	-0.050504
C	-0.0984222103	-2.1690774283	-0.8474026283	-0.086444
N	-0.2972219406	-0.7715440793	-1.1686768586	-0.166369
H	-0.4311631096	 1.8439434146	 1.1265428633	 0.116405
H	-0.665767381	 1.878389913	-0.6880992059	 0.128945
H	 1.6765616401	 1.0267873222	-1.0308991397	 0.128546
H	 1.9341096207	 0.9573069042	 0.781077039	 0.11991
H	-0.7708976938	-0.6071103585	 2.073736931	 0.103084
H	-2.3591386209	-3.3846357628	 0.0066833537	 0.112019
H	-2.7715212059	-1.8236751568	 0.7928813616	 0.106853
H	-2.0099139679	-1.8056059779	-2.0936642862	 0.106034
H	 0.596894588	-2.8177259683	-1.3673211879	 0.0902
121.2429	249.0818	287.27	351.1467	456.6339	494.1597	553.3672	634.2211	705.937	746.5723	776.8786	786.9998	800.1013	850.9482	871.3183	890.0595	904.5587	937.6398	956.1299	984.1326	999.5166	1003.4281	1034.5734	1052.7486	1070.2571	1075.8993	1102.2219	1186.8406	1192.7577	1194.8881	1201.7585	1253.0652	1260.3217	1312.4098	1343.2546	1453.3919	1486.2947	1496.1694	1555.2175	3031.0351	3101.6026	3133.1967	3141.5066	3157.9467	3169.886	3183.2585	3220.2344	3237.165
C1CC11C=C2CC3C2N13	C1CC21[CH][C]1C[C@@H]3[C@H]1N23	
InChI=1S/C8H9N/c1-2-8(1)4-5-3-6-7(5)9(6)8/h4,6-7H,1-3H2	InChI=1S/C8H9N/c1-2-8(1)4-5-3-6-7(5)9(6)8/h4,6-7H,1-3H2/t6-,7+,9?/m1/s1
