17
gdb 69639	3.88369	1.15983	1.1377	4.1807	75.59	-0.2134	-0.0352	0.1782	1132.0726	0.134608	-417.912682	-417.904625	-417.90368	-417.945041	30.969	
C	 0.0336955626	 1.5221080933	-0.0746505052	-0.510695
C	 0.094288111	 0.0308779709	 0.0117749612	 0.339163
N	-0.8972809653	-0.7985422037	 0.7358329649	-0.342357
C	 0.5422175452	-0.8900945175	 1.0818355135	-0.208111
C	 1.2413732794	-1.8175622444	 0.0470164589	 0.252621
N	 0.2712517255	-2.2343638887	-0.9968054102	-0.33191
C	 0.7796759242	-0.8836478079	-1.0615044474	-0.131134
C	 2.5750320754	-2.4092405543	 0.0938652157	 0.055609
O	 3.0449963579	-3.0738721361	-0.8079495679	-0.296583
H	 0.9947217477	 1.9374443314	-0.3980112027	 0.13013
H	-0.72926082	 1.847677426	-0.7913425389	 0.137532
H	-0.2086556458	 1.9594783015	 0.8995530436	 0.123858
H	-1.3208455526	-0.1875342133	 1.4360324828	 0.229591
H	 0.915718049	-0.6785317933	 2.0760603656	 0.100844
H	 0.8246185154	-2.7981312907	-1.6478841248	 0.254711
H	 1.3872779641	-0.5250314628	-1.8841195043	 0.120221
H	 3.1545999263	-2.1986319503	 1.0183529252	 0.076509
111.2268	173.4964	199.7235	223.2576	280.2268	307.3989	378.1264	441.358	498.5005	562.7567	672.2309	729.0017	758.6296	793.8809	839.5736	862.0081	909.4439	933.2527	967.1299	993.7954	1020.818	1041.5024	1076.775	1094.8692	1113.682	1156.0975	1237.1878	1263.8156	1285.1049	1359.7466	1365.4444	1414.0414	1436.0387	1450.5161	1481.5669	1498.0313	1766.8857	2898.307	3024.1752	3086.4374	3098.9493	3191.1661	3192.914	3440.2228	3456.6411
CC12NC1C1(NC21)C=O	C[C@]12N[C@H]1[C@]1(N[C@@H]21)C=O	
InChI=1S/C6H8N2O/c1-5-3(7-5)6(2-9)4(5)8-6/h2-4,7-8H,1H3	InChI=1S/C6H8N2O/c1-5-3(7-5)6(2-9)4(5)8-6/h2-4,7-8H,1H3/t3-,4+,5+,6-/m1/s1
