15
gdb 68515	2.65016	1.90366	1.46504	1.3932	64.45	-0.2608	-0.0206	0.2402	905.1649	0.111431	-457.715016	-457.707815	-457.70687	-457.746565	27.815	
C	 0.0554757451	 1.5086053154	-0.0386842191	-0.513919
C	-0.0319878572	 0.0160657583	 0.0389685711	 0.257201
O	 0.4122176832	-0.7215783499	-1.144432485	-0.290361
C	-0.2887028057	-1.8852881397	-0.6353102966	-0.098333
C	 0.4477163153	-2.1684784949	 0.6917739111	 0.016189
O	 1.7435379256	-1.576827799	 0.7518949858	-0.22119
C	 0.6325699468	-0.7921651544	 1.1820248614	-0.028403
C	-1.3431918171	-0.8359140652	-0.1430267711	 0.397946
O	-2.5183547257	-0.6788717646	-0.1191290129	-0.300708
H	 1.0970201101	 1.8273923282	-0.1419514032	 0.147267
H	-0.5165932833	 1.8877764529	-0.8889684189	 0.144689
H	-0.3498465044	 1.9523404214	 0.8759012131	 0.137269
H	-0.4720115946	-2.6684003498	-1.366105584	 0.112936
H	 0.256126831	-3.0424932126	 1.3026627277	 0.120975
H	 0.604887191	-0.4749959762	 2.2181667304	 0.11844
130.4187	166.7724	201.8551	298.7375	306.333	422.1944	538.7558	569.8881	625.2693	718.2743	745.5456	768.8134	839.5551	848.0703	882.6703	897.7924	916.7825	945.0941	976.3105	1022.3649	1064.2453	1115.5768	1149.1977	1158.0625	1231.3823	1248.6365	1269.5287	1319.7662	1387.7315	1417.3818	1476.0708	1490.0046	1922.7599	3045.7439	3116.8191	3128.364	3168.1018	3184.1617	3197.6028
CC12OC(C3OC13)C2=O	C[C@@]12O[C@@H]([C@H]3O[C@@H]13)C2=O	
InChI=1S/C6H6O3/c1-6-4(7)2(9-6)3-5(6)8-3/h2-3,5H,1H3	InChI=1S/C6H6O3/c1-6-4(7)2(9-6)3-5(6)8-3/h2-3,5H,1H3/t2-,3+,5+,6-/m0/s1
