19
gdb 84172	3.41472	1.17555	0.96653	3.512	84.29	-0.2454	-0.0548	0.1906	1245.9051	0.159546	-385.907429	-385.899186	-385.898242	-385.940253	31.617	
C	-0.2075926575	 1.5733486446	 0.0411311612	-0.393728
C	 0.0448822939	 0.0576828182	 0.0028525008	-0.035041
C	 0.8749351788	-0.4131170296	-1.1717368613	-0.172025
C	 1.8807565913	-1.2251997581	-0.8021106739	 0.239597
C	 2.7968823084	-1.8846578516	-1.7356068079	 0.067428
O	 3.681675189	-2.6436657538	-1.4058484979	-0.271857
C	 1.9468152409	-1.3717138097	 0.6822116742	-0.144929
C	 2.237043883	-0.0843298383	 1.425497814	-0.283372
C	 0.8080858886	-0.5110680407	 1.2076782133	-0.056522
H	 0.7308546951	 2.1299048571	 0.1193781537	 0.122918
H	-0.7267392624	 1.9092533567	-0.8624591623	 0.115971
H	-0.8289683879	 1.8369312679	 0.902277734	 0.122219
H	-0.9379885608	-0.4352705146	-0.0597673327	 0.094073
H	 0.66816567	-0.1118603481	-2.1943673815	 0.106891
H	 2.6129343762	-1.6454843301	-2.807338849	 0.064811
H	 2.2376488915	-2.3200313684	 1.1157571259	 0.105422
H	 2.6213389844	-0.1713305365	 2.4360852329	 0.116126
H	 2.6435709136	 0.7480098364	 0.8601755918	 0.113172
H	 0.2361450239	-0.8159202912	 2.0761026049	 0.088846
89.5694	159.5365	190.5223	215.0859	238.1728	272.8979	395.6443	450.1	530.9966	570.9135	677.7535	710.061	780.709	803.4296	845.4689	864.7521	905.6269	934.7334	968.0113	1025.432	1038.5388	1041.4953	1069.5995	1073.109	1101.9285	1112.7385	1128.7446	1195.5727	1205.8732	1266.5209	1308.0729	1328.8484	1370.931	1393.8177	1409.6779	1423.5795	1479.4033	1497.5491	1498.7765	1663.179	1784.4831	2875.4818	2979.9066	3037.1509	3105.0673	3114.1703	3127.7719	3176.4375	3182.3548	3196.4828	3216.108
CC1C=C(C=O)C2CC12	C[C@H]1C=C(C=O)[C@H]2C[C@@H]12	
InChI=1S/C8H10O/c1-5-2-6(4-9)8-3-7(5)8/h2,4-5,7-8H,3H2,1H3	InChI=1S/C8H10O/c1-5-2-6(4-9)8-3-7(5)8/h2,4-5,7-8H,3H2,1H3/t5-,7-,8+/m0/s1
