16
gdb 68343	2.98304	1.51997	1.18603	3.9552	76.35	-0.2571	-0.06	0.1971	1037.3636	0.124426	-400.727404	-400.719805	-400.718861	-400.759399	29.365	
C	 0.0204393154	 1.5380666278	 0.1010200658	-0.514137
C	 0.0162997753	 0.0422549901	-0.0056303447	 0.286901
C	 0.5991065723	-0.7935261824	-1.1927259797	-0.256483
C	 0.6543658126	-1.8032675237	-0.0096610995	 0.021591
O	 0.9508952629	-0.6727824639	 0.8675924475	-0.300437
C	-0.8399093529	-2.0269352378	 0.2728658541	-0.203549
C	-1.2950539514	-0.7660313948	 0.2779033975	 0.24641
C	-2.5862135339	-0.2368820584	 0.4627643449	 0.178126
N	-3.630742942	 0.2463310054	 0.6062983501	-0.351544
H	 1.0127254285	 1.9350934949	-0.1258512342	 0.135452
H	-0.7011119083	 1.9711459619	-0.5980605838	 0.141913
H	-0.2570569968	 1.8488043312	 1.1125720921	 0.148657
H	-0.03852867	-1.0133821362	-2.0510125031	 0.110571
H	 1.5909041737	-0.4461749794	-1.4903509039	 0.117625
H	 1.3514295784	-2.6354174346	 0.0598257485	 0.096638
H	-1.3654447339	-2.9600862302	 0.4097035183	 0.142267
123.323	134.895	184.0253	294.7032	310.8051	443.5998	481.1504	501.9549	544.0799	616.4061	664.3719	672.5093	761.6645	821.6615	839.7945	870.4418	901.2372	915.096	955.7342	1031.4894	1048.161	1110.4573	1145.3629	1169.8871	1204.652	1233.225	1250.4543	1287.2357	1326.8049	1419.7467	1475.9245	1487.6373	1491.393	1648.6754	2329.1362	3048.3429	3069.3163	3120.8696	3130.1292	3143.1701	3153.8081	3253.1524
CC12CC(O1)C=C2C#N	C[C@@]12C[C@@H](O1)C=C2C#N	
InChI=1S/C7H7NO/c1-7-3-6(9-7)2-5(7)4-8/h2,6H,3H2,1H3	InChI=1S/C7H7NO/c1-7-3-6(9-7)2-5(7)4-8/h2,6H,3H2,1H3/t6-,7-/m0/s1
