21
gdb 107332	2.45483	1.59139	1.19035	1.0437	83.3	-0.226	0.019	0.245	1131.2156	0.181936	-387.076249	-387.067332	-387.066387	-387.109529	34.442	
C	-0.3550405636	 1.2697838879	-0.0893420248	-0.252939
O	 0.262630625	 0.0073220727	 0.0782432338	-0.29193
C	 0.7909704902	-0.5447624724	-1.086354646	 0.433249
C	-0.1588313573	-1.1818949548	-2.0708478927	-0.343751
C	 0.7712793529	-2.0472439263	-1.2236197386	-0.157448
C	 2.0771520912	-2.4037950817	-1.8473563902	-0.088204
C	 2.825976623	-1.320383379	-2.0648794848	-0.081629
C	 2.1579063915	-0.0414711671	-1.5914001145	-0.097844
C	 2.1195767824	 1.0548257071	-2.6685488602	-0.402612
H	 0.373680092	 2.0624645194	-0.3083531572	 0.110301
H	-1.1027470982	 1.2509517589	-0.8946051575	 0.107387
H	-0.852236802	 1.5076708125	 0.8544051777	 0.124093
H	-1.2046403494	-1.1802897746	-1.7813038667	 0.113432
H	 0.0270310221	-1.1150276218	-3.1377712258	 0.11021
H	 0.3257530098	-2.6687552734	-0.4552884422	 0.09633
H	 2.3515023338	-3.4212866427	-2.1023193448	 0.095445
H	 3.79880794	-1.3125938724	-2.5451031714	 0.09076
H	 2.6982869816	 0.3567982228	-0.719343579	 0.088289
H	 1.5471816954	 0.7308022812	-3.5431762479	 0.118323
H	 1.6667041095	 1.9757779501	-2.2900115748	 0.115595
H	 3.1322602701	 1.2992366235	-3.0067336721	 0.112942
84.4893	129.6755	195.1786	215.4558	232.568	261.7952	327.7444	364.597	420.9433	470.7971	553.5291	633.7914	695.893	747.4496	780.9011	845.3954	875.6532	919.1562	935.0197	971.069	981.3643	1018.762	1041.3126	1049.316	1067.2298	1094.5126	1101.275	1116.3487	1149.8425	1178.8225	1206.2519	1236.2718	1259.0248	1300.344	1330.0995	1365.5264	1385.4919	1410.6012	1462.8258	1481.0067	1489.8682	1495.1131	1503.0683	1508.2219	1668.8343	2992.8178	2993.0351	3036.0784	3046.3647	3100.4924	3111.8137	3113.8053	3124.4323	3175.8348	3181.2005	3205.171	3217.1127
COC12CC1C=CC2C	CO[C@]12C[C@H]1C=C[C@H]2C	
InChI=1S/C8H12O/c1-6-3-4-7-5-8(6,7)9-2/h3-4,6-7H,5H2,1-2H3	InChI=1S/C8H12O/c1-6-3-4-7-5-8(6,7)9-2/h3-4,6-7H,5H2,1-2H3/t6-,7-,8+/m1/s1
