20
gdb 60581	3.71189	0.97789	0.86713	2.3238	75.98	-0.2267	0.0785	0.3052	1380.156	0.169605	-440.218802	-440.209488	-440.208544	-440.253315	34.435	
C	 2.8573474783	-0.6433617296	 0.1875641513	-0.311893
N	 1.5000326221	-1.1404490132	 0.3708959408	-0.085262
C	 1.2706916848	-2.1603967563	 1.3838563688	-0.260686
C	 0.7472418777	-0.7727875994	 1.5640107086	 0.000097
C	 1.3051203397	 0.1380797136	 2.6451364725	 0.065461
O	 1.3532229414	 1.4880389025	 2.2134873603	-0.44046
C	 0.4610086809	 0.0170005953	 3.9075191162	 0.063267
C	 0.3668702293	 1.1152874843	 4.8723084677	-0.188012
O	-0.6875193878	 0.8765194395	 3.924429218	-0.251085
H	 3.5003367274	-0.7259312235	 1.0779284785	 0.097393
H	 3.3299224022	-1.2153898002	-0.6170026866	 0.119529
H	 2.8169103488	 0.408599473	-0.1067853199	 0.139498
H	 0.6078055486	-2.9774043023	 1.1108537192	 0.115999
H	 2.1156443204	-2.4533837352	 2.0089071367	 0.101073
H	-0.3095306306	-0.5900189984	 1.3643160108	 0.09668
H	 2.3355420436	-0.1446836261	 2.8852628877	 0.094003
H	 0.4413419326	 1.8089481762	 2.2566957509	 0.290435
H	 0.2668055338	-0.9997075041	 4.248993434	 0.102275
H	 0.1093050117	 0.9014705738	 5.9076418944	 0.120752
H	 0.9426465649	 2.0202358202	 4.69720528	 0.130937
63.0327	84.286	127.7129	196.5009	229.4252	262.2797	279.8884	371.1572	403.5847	437.7014	485.3089	548.9616	670.8711	754.571	800.0883	860.9668	886.3164	921.3518	953.2727	1006.4972	1033.6953	1080.073	1097.8992	1106.4394	1123.8869	1127.0474	1160.1654	1160.9	1170.5283	1183.4775	1203.3511	1260.8091	1280.8132	1295.4582	1338.7978	1410.3191	1427.6884	1440.9381	1449.1016	1486.8627	1504.0662	1513.8956	1515.2744	2975.5755	3059.5226	3071.7695	3077.6463	3096.8684	3100.625	3117.5202	3118.5422	3168.4356	3197.3775	3748.6449
CN1CC1C(O)C1CO1	CN1C[C@H]1[C@@H](O)[C@H]1CO1	
InChI=1S/C6H11NO2/c1-7-2-4(7)6(8)5-3-9-5/h4-6,8H,2-3H2,1H3	InChI=1S/C6H11NO2/c1-7-2-4(7)6(8)5-3-9-5/h4-6,8H,2-3H2,1H3/t4-,5+,6+,7?/m0/s1
