21
gdb 122205	3.59335	0.72104	0.687	1.0851	75.07	-0.2522	0.0602	0.3124	1695.1868	0.180266	-461.330522	-461.32026	-461.319316	-461.36673	36.655	
O	-0.0167671248	 1.4149111304	-0.1372865955	-0.42139
C	 0.0265272071	 0.0046752718	 0.0196430565	-0.07625
C	-1.4045336656	-0.5140179471	-0.0164940276	-0.173939
C	-1.4810551487	-2.036422801	 0.1306490149	-0.219689
C	-2.904946754	-2.5806418805	 0.1094942567	 0.333881
O	-3.6006852522	-1.9888290633	 1.1790643131	-0.472123
C	-3.5838062813	-2.5840205877	-1.2887216377	-0.127483
O	-3.3625133493	-4.0009277532	-1.4252445368	-0.27067
C	-2.9897221796	-4.123121249	-0.0389391136	-0.130961
H	 0.884224569	 1.7489965575	-0.1049730352	 0.284775
H	 0.6163052734	-0.4672677371	-0.7842513788	 0.081259
H	 0.5000210356	-0.2761117786	 0.9751857055	 0.084175
H	-1.9773575812	-0.0366087553	 0.7834868747	 0.12763
H	-1.8592743459	-0.1977794075	-0.9634611499	 0.102766
H	-0.9183013659	-2.5275431928	-0.6728462531	 0.106183
H	-1.0180786987	-2.3434935945	 1.0776067605	 0.103626
H	-4.5130952409	-2.2963335087	 1.1601912599	 0.280833
H	-4.6549196917	-2.3321978078	-1.2494618622	 0.086984
H	-3.1121311116	-2.0099601909	-2.0937735938	 0.109087
H	-2.0684645649	-4.7011752729	 0.097010089	 0.105333
H	-3.7904787889	-4.5706947419	 0.5694748635	 0.085973
56.7388	70.0232	92.4529	123.7	159.5283	258.4977	268.024	290.7852	315.9836	351.5076	417.1403	460.8311	505.3153	694.2812	764.4927	839.1334	862.3899	916.5866	944.086	1000.0281	1005.0405	1027.2119	1038.0965	1052.0792	1080.0759	1112.9311	1138.2409	1145.6728	1163.6503	1199.561	1235.5111	1255.3469	1291.3502	1305.1123	1309.7117	1326.3333	1365.8815	1381.4519	1418.9527	1462.858	1475.9554	1500.4535	1502.8442	1528.2877	1529.1744	2953.5227	2977.9113	2978.3008	2989.91	3019.7644	3038.6425	3058.6414	3060.2934	3065.063	3102.8466	3808.5334	3830.9635
OCCCC1(O)COC1	OCCCC1(O)COC1	
InChI=1S/C6H12O3/c7-3-1-2-6(8)4-9-5-6/h7-8H,1-5H2	InChI=1S/C6H12O3/c7-3-1-2-6(8)4-9-5-6/h7-8H,1-5H2
