14
gdb 28079	4.99433	0.94141	0.79303	4.5421	68.88	-0.2074	0.0154	0.2228	1344.4444	0.10172	-470.029802	-470.021703	-470.020759	-470.063337	29.206	
N	 0.0289196279	 1.3238248078	 0.1462977589	-0.585602
C	-0.0559290127	-0.0358317232	 0.0406431858	 0.489946
N	-1.1372707114	-0.7597849951	-0.0159100802	-0.425959
C	-0.6459991751	-2.0541935175	-0.0322378346	 0.378812
O	-1.4343110026	-3.1526324379	-0.1023845744	-0.225233
C	-2.7859876566	-3.010557119	 0.0126341955	 0.101548
N	-3.5004652075	-4.0445314269	-0.0747763133	-0.434642
C	 0.7037253882	-2.0604980937	 0.0084167134	-0.189723
O	 1.0960352414	-0.7237693205	 0.0547616912	-0.182025
H	 0.8878306401	 1.7300138846	-0.1928075609	 0.270958
H	-0.8054334495	 1.809079195	-0.1456093649	 0.275412
H	-3.0968831573	-1.9775211616	 0.1717702991	 0.139786
H	-4.4806147635	-3.7904515407	 0.0330192728	 0.233226
H	 1.4765022586	-2.8044643311	 0.0067405214	 0.153496
47.9972	99.0885	159.7658	233.4254	314.6705	370.628	385.438	454.0312	529.2559	555.4528	620.999	692.5398	717.891	763.6405	822.2883	831.3303	977.0209	999.8966	1058.4219	1077.7371	1107.5907	1141.0286	1236.5571	1285.9332	1346.6328	1404.7922	1456.3146	1603.2583	1660.0977	1689.3794	1747.3081	3132.5897	3327.3043	3515.8866	3586.252	3697.5366
NC1=NC(OC=N)=CO1	Nc1nc(O[CH][NH])co1	
InChI=1S/C4H5N3O2/c5-2-9-3-1-8-4(6)7-3/h1-2,5H,(H2,6,7)	InChI=1S/C4H5N3O2/c5-2-9-3-1-8-4(6)7-3/h1-2,5H,(H2,6,7)
