19
gdb 46368	3.38015	1.18226	0.92368	3.2535	77.45	-0.2198	0.0327	0.2524	1264.2688	0.160348	-419.196325	-419.187863	-419.186919	-419.230209	31.019	
O	 0.1053017481	 0.031169069	 0.0759542568	-0.367465
C	-0.0078624793	 1.2276983136	 0.0610267223	 0.444591
N	-1.084122445	 2.0746920455	 0.1089600171	-0.329662
C	-0.3061490286	 3.3174434977	 0.1528275234	-0.174521
C	 0.9737189061	 2.435274477	 0.0098905322	-0.124439
N	 1.8931614445	 2.4694450395	 1.1099176651	-0.076832
C	 2.9482222189	 3.5061419593	 1.1380934552	-0.162053
C	 3.9175912239	 2.4549790496	 1.7294317626	-0.232557
C	 2.9149095429	 1.3980006342	 1.2070880231	-0.14746
H	-2.0674645311	 1.8900796034	 0.2429901282	 0.25058
H	-0.5096045659	 4.0036144874	-0.6746853808	 0.109271
H	-0.3583366098	 3.8451152396	 1.1094040651	 0.118529
H	 1.4592052779	 2.5393421152	-0.9780327534	 0.074314
H	 3.254866616	 3.8310657419	 0.1293597524	 0.083532
H	 2.7098388559	 4.3923686209	 1.7354173304	 0.100661
H	 4.9288713865	 2.4272843807	 1.323575458	 0.105866
H	 3.9629706058	 2.4911733005	 2.8192701788	 0.114428
H	 2.6399408623	 0.5639637848	 1.8570852403	 0.11826
H	 3.2086254008	 0.9957331401	 0.2254731332	 0.094956
61.5133	102.704	119.6801	159.0255	240.5907	310.1057	368.9601	434.7081	529.7787	620.4616	722.4753	754.6027	794.027	839.9059	909.6819	918.6749	939.9583	948.1324	989.7575	1026.5181	1057.487	1101.8102	1133.5926	1144.9989	1164.5804	1181.5297	1198.6967	1212.6016	1225.3584	1260.8993	1268.435	1290.7305	1302.5586	1332.5814	1367.0465	1401.4941	1488.2878	1503.5971	1519.096	1530.9897	1892.8428	2929.9379	2959.1037	2990.3745	3046.7657	3059.2858	3084.7122	3094.0102	3100.6658	3142.9777	3606.1399
O=C1NCC1N1CCC1	O=C1NC[C@H]1N1CCC1	
InChI=1S/C6H10N2O/c9-6-5(4-7-6)8-2-1-3-8/h5H,1-4H2,(H,7,9)	InChI=1S/C6H10N2O/c9-6-5(4-7-6)8-2-1-3-8/h5H,1-4H2,(H,7,9)/t5-/m1/s1
