16
gdb 97318	4.56685	0.74996	0.6468	7.9819	75.59	-0.2463	-0.0557	0.1906	1659.0459	0.124256	-471.252345	-471.242853	-471.241909	-471.288456	32.265	
C	 0.0875182031	 1.4940919683	 0.0255130217	-0.327912
N	-0.0039124336	 0.0498520132	 0.0958049666	-0.27742
H	 0.8429147782	-0.48351056	 0.2352248907	 0.262057
C	-1.1376305645	-0.6518929391	-0.0104310825	 0.181116
N	-1.1628746876	-1.9426024622	 0.0597008877	-0.397273
C	-2.409360058	-2.5683373227	-0.065501787	 0.223293
N	-3.5256442982	-1.9860753224	-0.2431725532	-0.498288
C	-2.297542277	-4.0910650919	 0.0362369097	 0.400046
O	-3.2536545206	-4.8159635253	-0.0457316552	-0.343223
O	-1.0472804533	-4.5242425424	 0.2226023073	-0.371431
H	 0.7221354399	 1.81113548	-0.8090303598	 0.14629
H	-0.911885848	 1.9064697558	-0.1266215613	 0.158106
H	 0.4952734887	 1.9112280201	 0.9525780552	 0.146289
H	-2.0486818437	-0.0669333942	-0.1611262684	 0.151891
H	-0.5011359664	-3.7095149834	 0.2464383007	 0.300633
H	-4.253442029	-2.7030844138	-0.2961009422	 0.245827
25.5714	87.7299	102.8284	116.5312	177.8475	214.482	261.9753	374.9425	388.0728	484.1484	495.6312	622.0318	655.2656	693.4226	788.5588	820.6025	875.2685	935.1538	1034.232	1062.1546	1072.0087	1153.4212	1186.3634	1218.5343	1326.0356	1351.1668	1404.9068	1429.1815	1471.151	1481.9459	1496.438	1532.8836	1683.189	1719.6989	1863.6333	3031.9116	3087.7336	3107.809	3137.0819	3456.4174	3510.1945	3604.106	25.5734	87.7295	102.829	116.5314	177.8475	214.4822	261.9753	374.9426	388.073	484.1483	495.6311	622.0318	655.2655	693.4227	788.559	820.6025	875.2685	935.154	1034.232	1062.1546	1072.009	1153.4211	1186.3634	1218.5345	1326.0355	1351.1667	1404.9066	1429.1816	1471.1509	1481.9459	1496.4379	1532.8835	1683.1885	1719.6985	1863.6344	3031.9116	3087.7336	3107.8091	3137.0819	3456.4167	3510.1945	3604.1062
C[NH+]=CNC(=N)C([O-])=O	CNC=NC(=N)C(=O)O	
InChI=1S/C4H7N3O2/c1-6-2-7-3(5)4(8)9/h2H,1H3,(H,8,9)(H2,5,6,7)	InChI=1S/C4H7N3O2/c1-6-2-7-3(5)4(8)9/h2H,1H3,(H,8,9)(H2,5,6,7)
