21
gdb 88752	3.32052	1.12926	1.10119	1.6003	81.55	-0.2311	0.0738	0.3049	1230.5087	0.182425	-387.029437	-387.020951	-387.020007	-387.06279	33.069	
C	 1.0863841383	 1.3286885335	-0.2503475406	-0.409943
C	 0.1383989062	 0.1663905908	-0.0431679499	-0.002672
C	 0.6559252906	-1.1880942606	 0.3767041535	-0.299053
C	-0.1825201262	-0.3744707697	 1.3328398755	-0.037109
C	 0.3566549044	 0.2547475674	 2.5942811033	 0.123316
O	-0.080208335	-0.4483736753	 3.8034392199	-0.306832
C	 1.256348735	-0.4419600856	 4.3043753735	 0.100526
C	 2.1491794985	-1.2746886775	 3.4471391743	-0.293158
C	 1.8211783785	 0.1506890838	 3.0355469743	-0.154585
H	 1.9324668882	 1.2889194508	 0.4422357074	 0.120681
H	 1.4952858157	 1.320667116	-1.2667292637	 0.11701
H	 0.5818007076	 2.290708548	-0.1050781754	 0.116412
H	-0.6947132794	 0.1534958089	-0.7417118797	 0.082807
H	 0.223838934	-2.0794685265	-0.0653260243	 0.10854
H	 1.7181236533	-1.263455067	 0.5858939117	 0.117405
H	-1.2071313647	-0.7089597086	 1.4754247366	 0.097023
H	 0.012696246	 1.2953260374	 2.6724906754	 0.08313
H	 1.4077803295	-0.2112227407	 5.3523392036	 0.102094
H	 3.163120112	-1.4055774954	 3.8130333375	 0.112043
H	 1.7334649266	-2.1221509074	 2.9117809775	 0.124419
H	 2.5757270009	 0.9124748976	 2.8954807096	 0.097947
55.7815	139.1938	163.1994	207.1611	265.6886	292.1696	379.2159	447.255	480.5888	603.2831	722.8511	764.9712	774.159	800.8797	841.0766	887.0049	920.8843	927.3838	946.9517	955.6732	986.9237	1006.377	1039.6827	1050.5439	1065.7239	1071.9306	1086.3885	1094.3211	1112.5777	1141.2778	1151.4983	1197.8572	1203.0856	1235.2128	1264.2939	1306.8108	1359.7025	1375.0945	1385.789	1412.5641	1425.309	1469.4367	1493.4352	1494.0092	1506.5005	3004.4697	3028.9021	3085.6364	3102.9999	3123.1397	3129.7648	3132.0762	3143.1265	3179.7908	3202.744	3214.2371	3216.7383
CC1CC1C1OC2CC12	C[C@H]1C[C@H]1[C@H]1O[C@H]2C[C@@H]12	
InChI=1S/C8H12O/c1-4-2-5(4)8-6-3-7(6)9-8/h4-8H,2-3H2,1H3	InChI=1S/C8H12O/c1-4-2-5(4)8-6-3-7(6)9-8/h4-8H,2-3H2,1H3/t4-,5+,6+,7-,8+/m0/s1
