19
gdb 76989	3.14866	1.20655	1.02311	3.5047	76.16	-0.2384	-0.0254	0.213	1213.6364	0.15647	-423.006151	-422.996877	-422.995933	-423.040443	33.911	
C	-0.1333079467	 1.5276834513	 0.0210541115	-0.420973
C	 0.025586156	 0.0149703927	-0.0478333088	-0.065442
C	 1.1724717251	-0.6282399029	-0.952972982	-0.128585
C	 2.1188174428	 0.3040786349	-1.6634828654	 0.150473
O	 2.132382314	 0.4677553054	-2.8591737718	-0.25944
C	 1.7100939963	-1.2917778985	 0.3279337876	-0.079498
O	 2.0148104353	-0.2331924321	 1.2483797926	-0.285638
C	 0.6561243752	-0.6996776893	 1.1674264892	 0.419494
C	-0.0098280247	-1.146889094	 2.4270079906	-0.506143
H	 0.7803547722	 2.0006797391	 0.3904022591	 0.135663
H	-0.3638598713	 1.9460339155	-0.9637688326	 0.131196
H	-0.9522156125	 1.7980663043	 0.6963059065	 0.118043
H	-0.9228270797	-0.459084554	-0.3194275229	 0.088314
H	 0.7548334327	-1.3312430872	-1.6764825393	 0.0954
H	 2.8206494891	 0.849793401	-0.9984665389	 0.094759
H	 2.2710478362	-2.2142439124	 0.4288541327	 0.110164
H	-0.3130965241	-0.2862609065	 3.0337285833	 0.135609
H	-0.9063410531	-1.7342068402	 2.2043439006	 0.127889
H	 0.6724759172	-1.7582831072	 3.0232858682	 0.138716
53.9456	101.4963	187.2277	202.5388	216.7292	230.1682	239.7054	324.0547	402.1542	449.9719	525.487	574.63	673.9466	713.4166	790.8287	852.8779	863.8961	921.0717	992.9341	1000.1481	1021.3774	1052.9629	1055.1955	1100.0287	1132.6775	1147.6893	1196.1502	1210.1607	1251.5575	1271.9722	1297.5868	1356.4995	1405.499	1406.9041	1421.0159	1467.9426	1483.0062	1493.875	1496.7061	1506.1733	1816.3087	2915.1009	3035.6014	3037.4231	3059.4725	3098.2039	3099.8591	3101.2921	3121.87	3123.0635	3182.1895
CC1C(C=O)C2OC12C	C[C@H]1[C@@H](C=O)[C@H]2O[C@@]12C	
InChI=1S/C7H10O2/c1-4-5(3-8)6-7(4,2)9-6/h3-6H,1-2H3	InChI=1S/C7H10O2/c1-4-5(3-8)6-7(4,2)9-6/h3-6H,1-2H3/t4-,5+,6+,7-/m0/s1
