21
gdb 39368	2.25966	2.05242	1.52505	0.242	86.89	-0.2302	0.0172	0.2474	983.2667	0.187067	-349.975342	-349.968272	-349.967328	-350.00627	30.079	
C	-0.0192881504	 1.4712910245	 0.0914683108	-0.219433
C	 1.4525556547	 1.9247359312	-0.0443466305	-0.034875
C	 2.1924396206	 1.9295454156	 1.3164492215	-0.206056
C	 2.4931528366	 0.5451441113	 1.9282766821	-0.240973
C	 1.3576241588	-0.4330197276	 2.1406052972	-0.044714
C	 0.3469872334	-0.7299500501	 1.3180209239	-0.068403
C	 0.0620192867	-0.0712918281	-0.0206159559	-0.083217
C	 1.2416744165	-0.2271519389	-0.9756800862	-0.066843
C	 1.999572752	 0.8689469721	-0.9890397559	-0.079625
H	-0.491591378	 1.8037264522	 1.0193584816	 0.090526
H	-0.5981715861	 1.8635250253	-0.7514851681	 0.092141
H	 1.5184093965	 2.9348057708	-0.464821429	 0.063719
H	 3.1534216236	 2.4474917974	 1.2021636526	 0.08938
H	 1.6037097402	 2.5271912075	 2.0236397079	 0.096451
H	 3.2446525784	 0.0506353707	 1.2950501844	 0.115473
H	 2.9878589858	 0.7116872106	 2.89179209	 0.093629
H	 1.4213686941	-1.002506567	 3.0662727532	 0.08194
H	-0.3453262378	-1.5102786614	 1.6272069879	 0.078888
H	-0.8595103332	-0.4932567199	-0.4332452365	 0.06314
H	 1.4494520259	-1.1536042677	-1.4990264733	 0.092122
H	 2.9296772817	 0.9858554316	-1.5351415577	 0.08673
185.6962	204.8802	293.1306	313.8651	362.4367	452.0625	529.471	553.1415	651.6047	713.2605	739.4754	771.6851	802.5701	823.7481	840.9325	855.5639	904.7222	932.938	960.7849	974.1946	993.8628	1005.5931	1033.2314	1051.0811	1075.7049	1100.3495	1132.1605	1187.8382	1199.3078	1226.5802	1246.7259	1285.2945	1301.1695	1311.4379	1340.0239	1349.995	1356.1426	1384.6909	1393.8178	1420.2383	1472.9169	1481.762	1493.3887	1667.8406	1708.3563	3001.6821	3014.0402	3032.7399	3044.4059	3052.3322	3056.8484	3059.5002	3101.6213	3127.3198	3153.3693	3177.8197	3205.3621
C1C2CCC=CC1C=C2	C1[C@H]2CCC=C[C@@H]1C=C2	
InChI=1S/C9H12/c1-2-4-9-6-5-8(3-1)7-9/h1,3,5-6,8-9H,2,4,7H2	InChI=1S/C9H12/c1-2-4-9-6-5-8(3-1)7-9/h1,3,5-6,8-9H,2,4,7H2/t8-,9+/m1/s1
