20
gdb 98297	2.49573	1.16188	0.82907	4.1345	76.7	-0.2507	0.0228	0.2735	1404.1001	0.169999	-440.303907	-440.293903	-440.292959	-440.339815	35.819	
C	-0.0959740249	 1.3156793528	 0.0914446573	-0.335762
N	 0.1270294318	-0.1116985006	-0.0429789052	-0.304872
C	 0.6650535264	-0.6730836361	-1.1492537486	 0.377459
O	 1.0075640742	-0.0422161594	-2.1408898103	-0.400968
C	 0.811234334	-2.2115323084	-1.1412673583	 0.020805
O	 1.5442134888	-2.5832626289	-2.2773861849	-0.438686
C	 1.4650001741	-2.7419484861	 0.1185198426	 0.0082
C	 0.6210009246	-3.1680406212	 1.3036474835	-0.28472
C	 1.324277704	-4.1990259336	 0.4577537627	-0.269138
H	 0.1588587745	 1.7798831002	-0.8614903059	 0.173167
H	-1.1439632247	 1.528780569	 0.3269807848	 0.129355
H	 0.5347623423	 1.7472832155	 0.8767010863	 0.13009
H	-0.053214033	-0.7139785099	 0.7438160668	 0.258209
H	-0.2134122843	-2.6263603194	-1.1933271916	 0.078729
H	 1.6153515036	-1.763574568	-2.7975019249	 0.292453
H	 2.4252041324	-2.2860552186	 0.343258833	 0.093227
H	 0.9970551887	-2.9710884566	 2.3014443797	 0.11646
H	-0.460074976	-3.1063000735	 1.216425783	 0.111817
H	 0.719026292	-4.8117006292	-0.2013654879	 0.125844
H	 2.1824570315	-4.7100679381	 0.878349838	 0.118332
54.5708	72.268	87.0258	113.84	164.2693	235.6941	282.4759	327.918	383.9598	399.0955	498.9948	525.2035	549.9684	634.3121	774.2922	782.2029	832.7227	882.0019	901.784	935.8038	977.8824	1054.4453	1057.9506	1082.3275	1135.0085	1150.5015	1152.4552	1168.2626	1176.5773	1198.3617	1223.589	1258.0936	1282.8403	1329.887	1400.828	1441.3974	1458.2548	1470.0139	1496.8377	1500.0711	1504.955	1574.8546	1764.5442	2920.1396	3031.2309	3084.7817	3122.7283	3140.4164	3149.2824	3158.2776	3205.941	3227.7234	3637.0927	3644.8208
CNC(=O)C(O)C1CC1	CNC(=O)[C@@H](O)C1CC1	
InChI=1S/C6H11NO2/c1-7-6(9)5(8)4-2-3-4/h4-5,8H,2-3H2,1H3,(H,7,9)	InChI=1S/C6H11NO2/c1-7-6(9)5(8)4-2-3-4/h4-5,8H,2-3H2,1H3,(H,7,9)/t5-/m0/s1
