14
gdb 24182	4.20934	1.68827	1.20498	1.8298	77.92	-0.2169	-0.0506	0.1664	935.9456	0.106023	-395.796255	-395.79041	-395.789466	-395.82638	23.511	
C	-0.0091514585	 1.3462421613	 0.0096979267	-0.004894
N	 1.2174426082	 1.8478539967	 0.0008412497	-0.260684
C	 2.0688477056	 0.7922087345	-0.0132632269	-0.186075
C	 1.359109949	-0.4021135223	-0.0132914085	 0.294114
C	 1.6260326242	-1.7919395426	-0.023727573	-0.062473
N	 0.6949868539	-2.710097654	-0.0200516202	-0.288085
C	-0.6110963342	-2.2779059251	-0.0051384004	-0.040276
C	-0.9828893389	-0.9731629072	 0.0058139088	-0.030854
N	 0.0070710304	-0.013755645	 0.0018171802	-0.079444
H	-0.9281150878	 1.911530188	 0.0216728608	 0.141208
H	 3.1401508129	 0.9224496901	-0.0227407334	 0.126077
H	 2.6623693655	-2.123258981	-0.0354880677	 0.128744
H	-1.3706118215	-3.0513478371	-0.0022838637	 0.122916
H	-2.0074811088	-0.6265151065	 0.0175547575	 0.139726
202.0199	229.6778	400.7066	429.234	568.072	594.8467	641.8997	673.7823	748.7124	780.6698	790.8588	804.5932	836.0678	917.4552	930.2677	940.4746	967.2406	1046.48	1162.2971	1207.1519	1244.2761	1276.8733	1308.8562	1340.6805	1346.7752	1374.7288	1457.4828	1485.6719	1536.2618	1544.3363	1657.0372	3153.217	3196.6734	3229.5435	3253.1689	3260.6291
C1=NC=C2C=NC=CN12	c1ncc2cnccn12	
InChI=1S/C6H5N3/c1-2-9-5-8-4-6(9)3-7-1/h1-5H	InChI=1S/C6H5N3/c1-2-9-5-8-4-6(9)3-7-1/h1-5H
