16
gdb 68006	3.12098	1.70991	1.30448	4.1284	67.47	-0.2426	-0.0135	0.2291	948.0781	0.124869	-437.853075	-437.846046	-437.845101	-437.884322	28.3	
O	-0.0897742024	 1.3271612167	-0.0716826231	-0.472316
C	 0.0110795029	-0.0583284362	-0.0264726881	 0.398953
C	 1.0203585377	-0.7745709258	-0.8993109295	-0.430543
C	 0.3919358276	-2.1729470272	-1.0542478685	 0.392839
O	 0.8504784201	-3.1072729962	-1.6411077847	-0.298742
N	-0.8338013972	-2.2277892002	-0.2660969316	-0.179725
C	-0.3533623211	-2.238066373	 1.1898899153	-0.206162
C	-0.5365467264	-0.7289972619	 1.2484072532	-0.149632
C	-1.2754187013	-0.8159071651	-0.0707052115	-0.082408
H	 0.6153929629	 1.702872757	 0.466474648	 0.290902
H	 1.108515022	-0.2696672475	-1.8673488772	 0.144272
H	 2.0291706532	-0.881255975	-0.4872092358	 0.130301
H	-1.0747554253	-2.7856860915	 1.8006747907	 0.132081
H	 0.6448533771	-2.6640236525	 1.3418635547	 0.119351
H	-0.7736076164	-0.1222801279	 2.1139600813	 0.098844
H	-2.2356585435	-0.4529951037	-0.4115887133	 0.111985
104.6486	273.4771	293.5572	316.238	357.1079	421.5458	496.8335	566.4617	577.7103	638.1951	677.2473	775.5965	797.1178	865.4883	892.4493	927.438	949.0317	984.5583	1011.1491	1024.8926	1042.5037	1074.836	1111.4676	1143.3892	1164.7415	1195.5652	1212.3299	1233.1397	1278.6819	1311.8818	1333.0699	1422.9838	1465.5002	1513.2454	1877.7685	3038.7281	3049.7494	3091.0955	3102.4324	3187.7595	3210.2792	3799.4415
OC12CC(=O)N3CC1C23	O[C@@]12CC(=O)N3C[C@@H]1[C@@H]23	
InChI=1S/C6H7NO2/c8-4-1-6(9)3-2-7(4)5(3)6/h3,5,9H,1-2H2	InChI=1S/C6H7NO2/c8-4-1-6(9)3-2-7(4)5(3)6/h3,5,9H,1-2H2/t3-,5+,6+/m1/s1
