21
gdb 60567	2.96262	1.00192	0.87932	2.2732	78.83	-0.2586	0.0833	0.3418	1409.1927	0.180328	-424.186504	-424.176713	-424.175769	-424.221889	35.577	
C	 2.6725250105	-0.4272226804	 0.3126314954	-0.42048
C	 1.3524923827	-0.8064398522	-0.3725883467	-0.056735
C	 0.1897188171	-1.0030974916	 0.5870900255	 0.089356
C	 0.325921989	-1.3155966672	 2.015143131	-0.186502
O	-0.0168780587	 0.0037069874	 1.5849414304	-0.235581
C	 0.9671702056	 0.2659186569	-1.3777523606	 0.071583
O	 1.7479129736	 0.35575214	-2.5736898528	-0.272698
C	 0.3591609477	 0.0215795663	-2.6979850686	 0.073333
C	 0.0175859849	-1.3315741019	-3.2687633179	-0.423353
H	 3.417432003	-0.1669744881	-0.4434572298	 0.136163
H	 2.5303469437	 0.4342607761	 0.971806145	 0.135613
H	 3.0705129693	-1.2549845313	 0.9063367065	 0.112096
H	 1.4934578211	-1.7509707169	-0.9104258539	 0.081581
H	-0.7360069379	-1.3200986478	 0.101766106	 0.09147
H	-0.4692273084	-1.8624980606	 2.5202749162	 0.114632
H	 1.31222067	-1.4171938278	 2.4617896497	 0.117495
H	 0.7631228721	 1.2341039748	-0.914169852	 0.100729
H	-0.242931362	 0.8369423219	-3.1059131966	 0.088954
H	 0.6335602788	-2.1259439818	-2.8429317887	 0.128164
H	-1.0367607776	-1.5676444576	-3.086877206	 0.122141
H	 0.1752965855	-1.330516928	-4.3524305322	 0.132039
47.9486	69.0497	131.2759	176.5232	198.7921	225.1267	271.4815	281.1327	386.0569	394.0674	439.5453	555.2003	607.039	763.174	788.1836	827.2107	860.1932	913.243	960.6306	974.0972	997.0302	1003.4168	1056.3118	1087.0654	1109.1882	1141.7497	1150.3507	1166.1497	1178.0232	1183.8965	1198.9425	1282.2544	1297.2296	1304.8807	1350.1693	1392.7979	1401.012	1418.7907	1436.3453	1468.2573	1490.4851	1499.4703	1506.7591	1511.7975	1532.113	3037.3479	3044.7136	3045.8918	3075.1115	3083.4319	3088.5444	3092.3488	3098.1009	3115.9798	3126.2698	3133.3959	3179.2723
CC(C1CO1)C1OC1C	C[C@@H]([C@H]1CO1)[C@H]1O[C@H]1C	
InChI=1S/C7H12O2/c1-4(6-3-8-6)7-5(2)9-7/h4-7H,3H2,1-2H3	InChI=1S/C7H12O2/c1-4(6-3-8-6)7-5(2)9-7/h4-7H,3H2,1-2H3/t4-,5-,6+,7+/m0/s1
