20
gdb 32841	5.21183	0.77359	0.71577	1.071	83.06	-0.2261	0.0144	0.2404	1664.3159	0.170722	-403.204396	-403.194922	-403.193977	-403.239718	33.89	
C	 0.1424021156	 1.5729995152	 0.0458967928	-0.381984
C	 0.1169525818	 0.0433457388	 0.0449215481	-0.16598
C	 0.5797330179	-0.5505566969	-1.2999957376	-0.293975
C	 0.5726958383	-2.0395095892	-1.3189663809	 0.378683
N	-0.1899440606	-2.8376308237	-1.9980156729	-0.346593
C	 0.2061456576	-4.1240711036	-1.6281744854	 0.248692
C	-0.4374870202	-5.3411974266	-2.2004297391	-0.491611
C	 1.2080670914	-4.0150575172	-0.7244258386	-0.12473
O	 1.4573802708	-2.6840916607	-0.5133735606	-0.17809
H	 1.152738275	 1.9532650093	-0.1418283747	 0.116263
H	-0.5143314709	 1.9814624005	-0.7300938067	 0.118161
H	-0.1905110445	 1.9727981965	 1.0084319371	 0.1158
H	 0.7594611694	-0.3429066427	 0.8441371241	 0.112324
H	-0.8966608047	-0.3146526628	 0.2603321467	 0.109761
H	-0.0742297791	-0.2148579445	-2.1093729122	 0.130742
H	 1.5919355964	-0.1902071614	-1.5240759547	 0.117851
H	-0.3214944551	-5.3693012682	-3.2891017972	 0.137842
H	 0.0013980911	-6.2517586836	-1.7843219762	 0.121861
H	-1.5123313385	-5.3495534137	-1.9907422057	 0.137608
H	 1.8144890581	-4.7125079455	-0.1726372961	 0.137375
39.5808	84.5765	102.4399	138.4329	237.1357	249.1033	267.5615	313.1127	364.7252	421.8297	633.8151	654.3454	722.2993	746.2602	748.4033	792.3611	872.7209	899.7997	962.9385	995.8909	1026.8607	1044.0222	1067.7524	1106.3589	1112.3416	1135.3329	1219.1253	1256.6227	1288.1039	1307.819	1322.8166	1366.3834	1384.9043	1414.5693	1418.1413	1471.6378	1475.5241	1491.2756	1493.4349	1500.4179	1510.031	1616.491	1644.1589	3027.5926	3030.8152	3037.1273	3039.6823	3067.3973	3092.7835	3096.7704	3105.8267	3109.0441	3120.1542	3289.8518
CCCC1=NC(C)=CO1	CCCc1nc(C)co1	
InChI=1S/C7H11NO/c1-3-4-7-8-6(2)5-9-7/h5H,3-4H2,1-2H3	InChI=1S/C7H11NO/c1-3-4-7-8-6(2)5-9-7/h5H,3-4H2,1-2H3
