19
gdb 48630	3.25042	1.4015	1.17971	2.8606	74.84	-0.2456	-0.034	0.2116	1082.8469	0.160369	-423.031737	-423.024001	-423.023056	-423.063995	30.272	
O	-0.1353295813	-0.0190061509	 0.0870356319	-0.256308
C	 0.015225461	 1.1501492146	-0.1593288757	 0.091162
C	 1.3227037052	 1.8897115053	-0.0211727865	 0.307055
C	 1.4479582104	 2.8262221419	 1.2167183659	-0.293257
C	 2.1274464506	 3.7406750302	 0.1772066689	 0.095144
C	 3.6067799316	 3.4084944884	-0.0187715939	-0.201314
C	 3.8286043979	 1.8853945204	 0.1639921088	-0.228953
C	 2.5858838719	 1.0612290591	-0.2539586474	-0.237118
O	 1.3825860148	 3.0633146615	-0.8815232557	-0.329772
H	-0.8240571859	 1.803261059	-0.4885239152	 0.088755
H	 0.4769556394	 3.2163084914	 1.5276359724	 0.114056
H	 2.0105368073	 2.4719064743	 2.0814264173	 0.11362
H	 1.9186679954	 4.8132603873	 0.2028240765	 0.079852
H	 3.8807114083	 3.7306537208	-1.0291730435	 0.114492
H	 4.2305061089	 3.9733710226	 0.6835149858	 0.097165
H	 4.7115089036	 1.5543340295	-0.389629115	 0.104505
H	 4.0449132891	 1.6854530358	 1.2186625859	 0.107419
H	 2.5275588017	 0.1187749321	 0.2980000183	 0.119402
H	 2.6167033501	 0.8131412368	-1.3201906587	 0.114096
80.919	175.5674	221.0901	226.155	340.9832	391.8946	422.3538	444.4891	555.674	602.2049	716.42	788.3612	824.1117	844.9173	881.3004	905.1547	925.2512	941.1191	973.1026	985.8317	1042.0738	1049.0203	1080.8718	1113.4347	1173.319	1190.868	1217.1137	1232.6447	1250.8442	1270.7191	1316.4017	1336.3139	1358.5631	1365.0868	1381.3946	1400.1555	1473.8468	1478.152	1484.6952	1511.9207	1827.577	2887.7373	3036.6331	3046.7512	3051.1475	3073.7384	3077.089	3083.715	3090.5721	3104.2918	3140.1046
O=CC12CC(CCC1)O2	O=C[C@@]12C[C@@H](CCC1)O2	
InChI=1S/C7H10O2/c8-5-7-3-1-2-6(4-7)9-7/h5-6H,1-4H2	InChI=1S/C7H10O2/c8-5-7-3-1-2-6(4-7)9-7/h5-6H,1-4H2/t6-,7+/m1/s1
