18
gdb 22217	3.45814	0.8521	0.72399	1.5327	77.8	-0.2527	-0.0011	0.2515	1536.4601	0.143106	-439.008658	-438.998	-438.997056	-439.045098	37.887	
C	-1.34178157	 0.9640614616	 0.3708216617	-0.47858
C	-0.1298175546	 0.1800915657	-0.0502091788	 0.333962
N	 0.8549372989	-0.1109547569	 0.7092327655	-0.149203
O	 0.6809786961	 0.3759942629	 2.0105244781	-0.408223
C	-0.0574236009	-0.2886873524	-1.4938853838	 0.036679
O	-0.160031624	 0.8299746438	-2.3684836301	-0.417396
C	 1.1750438106	-1.1614269981	-1.8028122857	-0.403225
C	 1.1769215849	-1.6558059026	-3.1731690983	 0.307868
C	 1.1727837686	-2.0743390976	-4.2994833205	-0.424603
H	-1.0549147421	 1.8022016073	 1.010239511	 0.148307
H	-1.8751118798	 1.3355731326	-0.504917581	 0.143134
H	-2.0172756613	 0.331888558	 0.9591183405	 0.143542
H	 1.4953658046	 0.0982803513	 2.443442619	 0.306542
H	-0.9599184299	-0.8754729459	-1.7064035321	 0.110336
H	 0.6301879996	 1.369124218	-2.2460128081	 0.284037
H	 2.0834368586	-0.5798203292	-1.6036080042	 0.131205
H	 1.2031963182	-1.9977778686	-1.0963921969	 0.144285
H	 1.1711658925	-2.4407226401	-5.2958514463	 0.191332
49.8797	65.508	78.2338	116.6778	201.3313	217.8979	309.3513	323.6012	349.3563	353.5095	388.1856	411.441	458.254	527.0567	574.4051	616.8148	640.9859	693.9859	834.9029	875.1798	960.147	983.7496	1026.2288	1035.1402	1049.3179	1106.0526	1179.5431	1228.3732	1287.6511	1310.7425	1375.7198	1394.1227	1400.8239	1418.5302	1458.7009	1475.9404	1488.495	1731.9472	2242.4386	3032.1346	3042.0983	3044.4208	3078.9296	3108.4684	3152.1275	3507.9154	3791.9951	3818.1412
CC(=NO)C(O)CC#C	CC(=NO)[C@@H](O)CC#C	
InChI=1S/C6H9NO2/c1-3-4-6(8)5(2)7-9/h1,6,8-9H,4H2,2H3	InChI=1S/C6H9NO2/c1-3-4-6(8)5(2)7-9/h1,6,8-9H,4H2,2H3/t6-/m0/s1
