17
gdb 70454	3.16647	1.30806	1.21118	1.3482	67.82	-0.2326	0.0661	0.2987	1075.9194	0.134622	-458.880137	-458.872154	-458.87121	-458.91272	30.535	
O	-0.0077663719	 1.3527722403	-0.2176909679	-0.455516
C	 0.0134987412	-0.0105194953	-0.0148015844	 0.292789
C	-0.2970402863	-1.0448209248	-1.07704543	-0.370568
C	-1.1186221678	-0.9801432375	 0.1826593973	 0.044362
O	-0.4476946462	-1.6516224463	 1.258203208	-0.301132
C	 0.633757782	-0.6816496662	 1.2231267851	 0.037274
C	 2.0126616834	-1.2826104971	 1.1897331482	 0.046114
C	 2.2525359209	-2.6843105569	 1.55674991	-0.173424
O	 2.2983741394	-2.2614999967	 0.1904559805	-0.229666
H	 0.6249828992	 1.5657593599	-0.9121931142	 0.292683
H	-0.7941951488	-0.6189341435	-1.9443627639	 0.114651
H	 0.3624550726	-1.8851847549	-1.258960603	 0.146774
H	-2.1936607813	-0.8683609691	 0.2415840991	 0.114607
H	 0.5594190219	-0.0093416645	 2.0897221552	 0.09238
H	 2.8149363417	-0.5593824914	 1.3496666088	 0.096684
H	 3.2096110313	-2.9729253493	 1.9878095687	 0.114357
H	 1.3989121786	-3.3055286765	 1.8148990923	 0.13763
85.6839	152.6117	181.492	254.2077	296.1058	326.5517	380.1118	445.9789	498.648	641.3687	671.9069	728.8154	808.3422	862.7608	899.8111	907.5926	931.3205	956.543	987.8777	1017.3465	1025.5725	1070.0155	1087.2158	1096.4663	1132.6132	1165.12	1173.0327	1202.567	1240.4106	1262.0623	1287.7979	1330.6868	1377.2696	1409.9185	1431.7949	1489.3833	1517.2098	3012.528	3091.1826	3099.0381	3128.4911	3195.9384	3201.155	3231.2273	3798.4701
OC12CC1OC2C1CO1	O[C@]12C[C@H]1O[C@H]2[C@H]1CO1	
InChI=1S/C6H8O3/c7-6-1-4(6)9-5(6)3-2-8-3/h3-5,7H,1-2H2	InChI=1S/C6H8O3/c7-6-1-4(6)9-5(6)3-2-8-3/h3-5,7H,1-2H2/t3-,4-,5+,6-/m1/s1
