19
gdb 65109	3.21192	1.34285	1.16348	1.8807	75.54	-0.2424	0.0737	0.3161	1119.3778	0.158018	-422.971004	-422.962659	-422.961715	-423.003909	32.741	
O	 0.413893141	 0.6213380904	-1.3997966154	-0.455037
C	 0.1793110237	-0.2185089668	-0.2977157142	 0.259257
C	 1.38981854	-0.9506160887	 0.202162906	-0.2967
C	 0.774545765	 0.1557282951	 1.0353486373	-0.32919
C	-1.1319904349	-0.915374403	-0.3568668572	 0.390254
C	-1.7695125887	-1.6277544452	-1.5646059759	-0.292551
C	-3.1795332818	-1.2890986218	-0.9639354174	-0.23921
C	-2.4649678206	-0.5970294869	 0.2036793466	-0.062436
O	-1.6129998562	-1.5786913466	 0.8166149478	-0.290048
H	-0.1680657719	 1.3851940832	-1.3130761603	 0.281097
H	 1.2636105848	-1.9731267536	 0.5388128704	 0.127508
H	 2.3214790985	-0.737540865	-0.3086170283	 0.124056
H	 1.3050400066	 1.1004030212	 1.0751088774	 0.111564
H	 0.2306513429	-0.1225644005	 1.9297363322	 0.130237
H	-1.5748068973	-1.110546951	-2.5055505974	 0.11676
H	-1.5134324365	-2.6849538566	-1.6633587419	 0.107313
H	-3.7505267599	-0.5996503432	-1.5903513143	 0.104665
H	-3.8117291433	-2.1337425443	-0.6807440176	 0.112629
H	-2.7975878614	 0.2192602434	 0.8355490121	 0.099832
64.2502	143.4059	185.1004	265.334	304.2947	333.6366	355.809	456.9086	500.6022	521.0948	551.8466	742.6193	773.8669	778.4238	842.2653	877.0533	901.4205	918.4408	933.7147	946.2715	950.9031	988.9075	1017.0445	1055.1311	1056.4608	1082.0423	1124.1816	1152.4128	1195.2721	1207.3342	1212.9224	1231.4168	1262.6816	1270.7279	1310.0639	1363.6063	1441.8529	1462.9801	1465.5751	1485.2965	1503.0395	3066.3885	3076.3684	3118.9421	3139.3816	3140.9069	3143.6906	3179.1577	3230.1141	3243.2547	3787.2493
OC1(CC1)C12CCC1O2	OC1(CC1)[C@]12CC[C@H]1O2	
InChI=1S/C7H10O2/c8-6(3-4-6)7-2-1-5(7)9-7/h5,8H,1-4H2	InChI=1S/C7H10O2/c8-6(3-4-6)7-2-1-5(7)9-7/h5,8H,1-4H2/t5-,7+/m1/s1
