19
gdb 99886	2.32028	1.28119	1.04061	2.2652	75.25	-0.2631	0.0247	0.2878	1220.1563	0.158597	-419.18524	-419.175552	-419.174608	-419.219907	35.436	
C	-0.2635538402	 1.5821695753	 0.0044257299	-0.442588
C	-0.0888324708	 0.0508821448	-0.0219568784	 0.029996
C	 0.8231721263	-0.3945032396	 1.1648886887	-0.073022
O	 0.3173487204	-0.0177563402	 2.4238128629	-0.417436
C	-1.4025329503	-0.5801829537	 0.1916855753	 0.264736
N	-2.4165690259	-1.0934434091	 0.4057053307	-0.343212
C	 0.4987295095	-0.5173552927	-1.3216006312	 0.006682
C	 0.3354349042	 0.1343452904	-2.6422080191	-0.245774
N	 1.6563122913	 0.0928857156	-1.9867139582	-0.328683
H	 0.6773781586	 2.0807369745	-0.2478399022	 0.120369
H	-1.0372532524	 1.9163130501	-0.6891847517	 0.139672
H	-0.5402232563	 1.8899666085	 1.0139470315	 0.158576
H	 0.9929731535	-1.4781299602	 1.0975471835	 0.110275
H	 1.7906250335	 0.1045542445	 1.0538088042	 0.124727
H	-0.4766694439	-0.5372942644	 2.5967409469	 0.300543
H	 0.5511427243	-1.60429267	-1.3049894685	 0.111139
H	 0.2461917779	-0.4780131732	-3.5343489527	 0.130371
H	-0.188323392	 1.0839388455	-2.6916314511	 0.120299
H	 1.8676212822	 1.0032708039	-1.5857993707	 0.233331
54.7781	113.5395	148.4575	166.7234	210.2922	254.1537	291.9774	315.9699	367.2517	407.0919	420.2132	484.925	557.5559	617.8175	705.8197	824.5077	870.517	906.44	926.0139	953.0773	958.0437	1010.5399	1079.9503	1108.9264	1130.83	1152.7858	1168.7622	1173.7949	1222.6314	1256.6793	1281.0827	1307.8884	1387.7034	1398.9676	1416.4244	1429.0115	1488.2462	1499.2198	1503.8836	1517.7911	2345.7498	3009.126	3051.7453	3090.6799	3120.4619	3124.9917	3127.2834	3150.2293	3207.0829	3503.9073	3794.6608
CC(CO)(C#N)C1CN1	C[C@@](CO)(C#N)[C@H]1CN1	
InChI=1S/C6H10N2O/c1-6(3-7,4-9)5-2-8-5/h5,8-9H,2,4H2,1H3	InChI=1S/C6H10N2O/c1-6(3-7,4-9)5-2-8-5/h5,8-9H,2,4H2,1H3/t5-,6+/m1/s1
