14
gdb 130106	2.47679	1.80898	1.05249	2.9878	66.34	-0.2149	-0.0486	0.1663	1045.4049	0.102707	-466.220605	-466.212643	-466.211699	-466.252856	29.733	
N	-0.0412217848	 1.3257854528	-0.2057456574	-0.599135
C	-0.0406398814	-0.0253050129	-0.0229246852	 0.458438
N	-1.0660098493	-0.8040922056	 0.1476058448	-0.307202
N	-0.589666161	-2.1311034878	 0.1654753299	-0.273182
C	 0.6928453197	-2.098535012	 0.0360604555	 0.394964
N	 1.5858231573	-3.1628919917	 0.1010823265	-0.601993
N	 1.1470420767	-0.7737242498	-0.0859792302	-0.157977
C	 2.4509003103	-0.3141981888	-0.0080738519	 0.179729
O	 2.7558884669	 0.8547422933	 0.0000575786	-0.306287
H	 0.8244184334	 1.7970524509	 0.0163968339	 0.282111
H	-0.8950076285	 1.7783480806	 0.083001684	 0.271562
H	 1.0807507491	-4.0038399174	 0.3571950646	 0.272315
H	 2.0832535083	-3.326412389	-0.7688241537	 0.259147
H	 3.1768211332	-1.1393780425	 0.0608125908	 0.127511
119.5481	200.5984	224.9928	248.6943	274.8873	310.2633	370.9054	420.9397	474.0354	552.1527	558.1496	656.2803	666.2964	737.5553	778.5711	812.5136	844.1273	1020.15	1044.4329	1094.6183	1143.2829	1172.6718	1339.993	1401.2162	1430.5311	1454.1263	1584.3269	1617.1094	1657.3442	1688.4564	1804.5267	3024.7292	3505.3353	3561.1234	3601.4156	3687.1652
NC1=NN=C(N)N1C=O	Nc1nnc(N)n1C=O	
InChI=1S/C3H5N5O/c4-2-6-7-3(5)8(2)1-9/h1H,(H2,4,6)(H2,5,7)	InChI=1S/C3H5N5O/c4-2-6-7-3(5)8(2)1-9/h1H,(H2,4,6)(H2,5,7)
