18
gdb 77022	2.93084	1.05804	0.96179	0.9701	84.66	-0.2279	0.0271	0.255	1291.0888	0.144045	-364.708075	-364.698254	-364.69731	-364.742936	36.051	
C	-1.8014871466	 0.7896946302	-0.7728380556	-0.322952
N	-0.8274413809	-0.2649664485	-0.5166958206	-0.094798
C	 0.3737997505	-0.3751951816	-1.3227341358	 0.001713
C	 0.7205750661	 0.5790529904	-2.4601926718	-0.395421
C	-0.0198100239	 0.2800378664	-3.6820345489	 0.305181
C	-0.6361519742	 0.0161409343	-4.6795337107	-0.442338
C	 0.4647525185	 0.0672965041	 0.1161130696	-0.228597
C	 0.8230073268	 1.420925097	 0.4402384015	 0.354227
C	 1.1186660767	 2.5470317986	 0.746007235	-0.470271
H	-1.372707668	 1.7878561678	-0.9292008267	 0.117538
H	-2.3816711862	 0.5135844898	-1.6571507136	 0.138612
H	-2.4792939729	 0.8463620752	 0.0839366491	 0.12772
H	 0.6520892984	-1.4066976004	-1.5350253337	 0.106328
H	 0.552447944	 1.617292176	-2.1593873372	 0.146308
H	 1.797745004	 0.4954819536	-2.6549390289	 0.139745
H	-1.178226803	-0.2082157427	-5.5644890249	 0.1976
H	 0.7856968351	-0.6642917227	 0.8551933293	 0.117014
H	 1.3849784855	 3.5386284226	 1.0176491941	 0.202391
55.064	91.1231	137.2069	161.1731	175.7164	247.7403	320.039	343.5141	357.8994	424.9423	546.7108	586.7147	593.2782	611.8393	622.513	642.9463	661.6501	733.6685	808.4363	848.1334	967.5732	970.2899	1026.8953	1080.3347	1120.8974	1140.7447	1167.1559	1174.5198	1228.1997	1314.9563	1337.153	1360.8561	1414.6232	1452.0114	1463.9337	1485.2895	1510.3151	2226.6651	2239.1404	3014.1128	3029.9566	3082.083	3088.0752	3111.7894	3120.9897	3121.6788	3501.6437	3506.3618
CN1C(CC#C)C1C#C	CN1[C@@H](CC#C)[C@H]1C#C	
InChI=1S/C8H9N/c1-4-6-8-7(5-2)9(8)3/h1-2,7-8H,6H2,3H3	InChI=1S/C8H9N/c1-4-6-8-7(5-2)9(8)3/h1-2,7-8H,6H2,3H3/t7-,8+,9?/m1/s1
