18
gdb 87266	3.58236	1.04923	0.93399	3.9999	69.8	-0.2345	0.0024	0.2369	1264.5203	0.146294	-476.200494	-476.191523	-476.190578	-476.234326	33.816	
O	-0.4682935007	 1.2931149325	 0.2828739183	-0.436972
C	-0.2275899574	-0.0713471314	 0.1948252196	 0.098843
C	-0.866919327	-1.0366415064	 1.170769978	-0.377056
C	-1.3595770489	-0.9521155743	-0.2690399456	 0.349417
O	-2.5160188522	-0.2124848562	-0.5140192911	-0.488707
C	-1.1041965166	-2.0996998149	-1.2115989184	-0.167011
O	-1.639849294	-3.3847477738	-0.7837872064	-0.195408
C	-2.9539845886	-3.5421279402	-0.6867624747	 0.157223
N	-3.8158335518	-2.6179223974	-0.8269400141	-0.485542
H	-1.3911886355	 1.416285486	 0.0174552002	 0.299858
H	 0.780250855	-0.2889726687	-0.1498304929	 0.094926
H	-0.3108427909	-1.9137218217	 1.4860438407	 0.110331
H	-1.5248915463	-0.6047484428	 1.9163492727	 0.120024
H	-3.2383056987	-0.8690275297	-0.6061072198	 0.299249
H	-1.5170805721	-1.8635134595	-2.1976021233	 0.132694
H	-0.0361258668	-2.3049311813	-1.3010938286	 0.124167
H	-3.1797476926	-4.589455595	-0.4681412703	 0.122868
H	-4.7595892149	-2.9780387554	-0.7186793042	 0.241096
57.4086	131.7111	148.2855	233.0632	280.694	298.0538	340.0618	362.6566	387.9532	428.883	482.009	636.2595	681.4032	718.9061	746.0847	819.9417	849.2695	876.2542	915.799	934.5077	978.6762	1017.9591	1044.8293	1046.8009	1094.0931	1105.8307	1166.8743	1254.4425	1259.9635	1316.9406	1342.3221	1349.3705	1402.4883	1412.0918	1429.9059	1453.5216	1472.5752	1507.8499	1707.4931	3059.1961	3100.9694	3126.6819	3128.296	3138.5133	3227.2459	3468.7127	3537.8476	3734.8294
OC1CC1(O)COC=N	O[C@H]1C[C@]1(O)CO[CH][NH]	
InChI=1S/C5H9NO3/c6-3-9-2-5(8)1-4(5)7/h3-4,6-8H,1-2H2	InChI=1S/C5H9NO3/c6-3-9-2-5(8)1-4(5)7/h3-4,6-8H,1-2H2/t4-,5-/m0/s1
