22
gdb 105375	3.00174	0.98909	0.82981	2.5011	82.4	-0.2331	0.0658	0.2988	1456.1182	0.194071	-404.302587	-404.292838	-404.291894	-404.33775	36.294	
O	-0.009595651	 1.4055967114	 0.2836791209	-0.423844
C	-0.0136694522	-0.0086441057	 0.4310392737	-0.158679
C	-1.4037126516	-0.5363752426	 0.117991351	 0.334623
C	-1.5467568502	-2.0497111085	 0.168564623	-0.284762
C	-0.7368058902	-2.7771376988	-0.887574679	 0.040075
C	 0.6494335665	-3.3020874934	-0.594414363	-0.256292
C	-0.5019281064	-4.2605934602	-0.7759079519	-0.283601
C	-2.5705525566	 0.3218431491	 0.4371168293	-0.288018
N	-2.1537713037	 0.1149119785	-0.9684669421	-0.356603
H	 0.9004630449	 1.7109938339	 0.3177404487	 0.294123
H	 0.7106297882	-0.4734953005	-0.2527220174	 0.104007
H	 0.2640873199	-0.3016948548	 1.4567544859	 0.091418
H	-1.2667946269	-2.4141802205	 1.1670886944	 0.08598
H	-2.6081031608	-2.2867906516	 0.0332863799	 0.10699
H	-0.9007121698	-2.3957547802	-1.8917117052	 0.096784
H	 1.4032142797	-3.2475091388	-1.372589293	 0.108336
H	 1.0410808032	-3.1732431829	 0.410029197	 0.104884
H	-0.8798354277	-4.7677923343	 0.106324554	 0.108424
H	-0.5369656585	-4.8598298841	-1.679020205	 0.110447
H	-3.5176621857	-0.1381903235	 0.7069946199	 0.105763
H	-2.3813919798	 1.2927153168	 0.8827016387	 0.124391
H	-1.6330443914	 0.9408879607	-1.2582677998	 0.235555
55.3741	82.8204	108.9703	160.5717	213.4913	252.1366	286.832	330.4713	349.4881	390.7923	450.0773	583.6215	713.97	775.7117	804.7673	832.3572	847.2203	896.3562	918.8721	928.1456	961.4857	1000.2247	1007.363	1045.5916	1055.1546	1077.4431	1080.3898	1112.289	1134.6967	1149.3049	1165.9709	1200.7651	1212.3706	1222.5613	1245.964	1275.8971	1294.6284	1319.3237	1352.5015	1406.3568	1416.9748	1456.7018	1465.6471	1475.4693	1504.8409	1506.5967	1520.8936	2968.8426	3011.1743	3017.945	3062.3411	3112.4257	3122.8636	3129.9017	3148.6564	3201.1263	3206.5434	3217.6144	3488.6812	3849.7846
OCC1(CC2CC2)CN1	OC[C@@]1(CC2CC2)CN1	
InChI=1S/C7H13NO/c9-5-7(4-8-7)3-6-1-2-6/h6,8-9H,1-5H2	InChI=1S/C7H13NO/c9-5-7(4-8-7)3-6-1-2-6/h6,8-9H,1-5H2/t7-/m1/s1
