15
gdb 27911	2.00483	1.80046	0.94917	1.5794	72.95	-0.2125	0.0133	0.2258	1152.0452	0.115012	-454.034137	-454.026535	-454.025591	-454.065804	30.502	
N	-0.0176273474	 1.4263380359	-0.0491320078	-0.591052
C	 0.0012005081	 0.0464118767	-0.0373620204	 0.404837
C	-1.1955540116	-0.6837216516	-0.0507387306	-0.326811
C	-1.1051840125	-2.0675247479	-0.0934744222	 0.449062
O	-2.2451847319	-2.792397999	-0.1066985999	-0.423872
N	 0.0388541397	-2.7529679397	-0.1200467998	-0.48753
C	 1.1640388392	-2.0366615756	-0.1050021116	 0.449062
O	 2.3231382165	-2.730265347	-0.1299057639	-0.423872
C	 1.2171712915	-0.6509067309	-0.0629953574	-0.326811
H	 0.8202123752	 1.8905576113	 0.2642721617	 0.254088
H	-0.8645551537	 1.8676434634	 0.272831047	 0.254088
H	-2.1638947049	-0.2001746738	-0.0347898303	 0.090429
H	-1.969214264	-3.7182149952	-0.136543479	 0.293976
H	 2.0721591811	-3.6632492525	-0.1570736436	 0.293976
H	 2.1721154147	-0.1412016142	-0.0568166723	 0.090429
202.3432	208.3304	249.3575	321.96	340.7985	380.8986	489.365	502.4022	519.958	522.8111	530.7716	576.7213	631.7509	668.2558	692.8739	758.1305	811.3436	827.9134	999.3432	1021.1286	1047.1878	1112.4127	1191.7086	1205.379	1250.0626	1301.2449	1377.3051	1454.8718	1529.2614	1535.978	1623.7369	1657.4953	1690.834	3207.3921	3208.3564	3586.6448	3692.4946	3777.0677	3778.4867
NC1=CC(O)=NC(O)=C1	Nc1cc(O)nc(O)c1	
InChI=1S/C5H6N2O2/c6-3-1-4(8)7-5(9)2-3/h1-2H,(H4,6,7,8,9)	InChI=1S/C5H6N2O2/c6-3-1-4(8)7-5(9)2-3/h1-2H,(H4,6,7,8,9)
