22
gdb 99843	2.01384	1.2319	1.17308	3.173	81.67	-0.2802	0.031	0.3112	1268.0098	0.191783	-404.37057	-404.359598	-404.358654	-404.406127	40.229	
C	 0.0446805614	 1.5479410818	-0.0127842627	-0.408911
C	 0.010662866	 0.0131249094	 0.050293723	 0.006269
C	 0.8127595479	-0.4726630033	 1.2687801446	-0.415222
C	-1.4491817029	-0.550735305	-0.0008631657	 0.073004
C	-2.2238088877	-0.0328606243	-1.2351239404	-0.42578
C	-1.4461159227	-2.1105234938	-0.0465121419	-0.090582
O	-2.7428716624	-2.664476718	-0.1029636266	-0.417001
C	-2.1831061319	-0.1668795804	 1.2164238287	 0.276841
N	-2.7738195653	 0.0874888791	 2.1782380655	-0.363307
H	 1.0799756383	 1.8993232047	 0.028669262	 0.118477
H	-0.3985083215	 1.9383004963	-0.9316544449	 0.120644
H	-0.4891266165	 1.9876319129	 0.8369653636	 0.137003
H	 0.4951447368	-0.3747993612	-0.8564311229	 0.082083
H	 0.9472260255	-1.5568728187	 1.2857439015	 0.120148
H	 1.810232818	-0.0232480967	 1.2568689136	 0.118992
H	 0.3262037163	-0.1758264378	 2.2039776952	 0.141088
H	-1.6198494045	-0.1907473901	-2.1347118122	 0.119592
H	-3.1551357684	-0.5910367845	-1.3420428257	 0.14889
H	-2.4595958145	 1.0292799449	-1.156593564	 0.134085
H	-0.9385030981	-2.4188215878	-0.9665933212	 0.117053
H	-0.8842125083	-2.5115716121	 0.8042714345	 0.108292
H	-3.1721397854	-2.5043967253	 0.7456464861	 0.298341
60.884	110.7836	143.9392	166.7846	193.1174	220.9337	234.6858	256.7668	306.0818	336.2897	364.261	394.539	400.0672	450.4361	456.1048	594.5323	628.2214	692.7226	844.0947	904.416	933.1324	935.1406	960.6922	969.0279	1073.2333	1074.8231	1092.285	1149.9209	1183.8409	1191.204	1205.9324	1270.0772	1344.3312	1355.6108	1382.9228	1406.4155	1408.7311	1420.3021	1427.9775	1485.1446	1489.8083	1496.4426	1499.9712	1507.2607	1509.7932	1519.751	2339.7942	3009.9059	3031.9388	3038.8436	3043.5867	3049.4626	3086.5982	3103.5256	3110.2184	3119.3561	3121.1619	3129.038	3151.1304	3795.0594
CC(C)C(C)(CO)C#N	CC(C)[C@@](C)(CO)C#N	
InChI=1S/C7H13NO/c1-6(2)7(3,4-8)5-9/h6,9H,5H2,1-3H3	InChI=1S/C7H13NO/c1-6(2)7(3,4-8)5-9/h6,9H,5H2,1-3H3/t7-/m1/s1
