19
gdb 110954	2.73175	1.20688	1.04253	1.9203	76.28	-0.2399	0.0064	0.2463	1235.104	0.157686	-422.994278	-422.985064	-422.984119	-423.028685	33.873	
C	-0.0351560157	 1.5579179009	 0.0731387816	-0.377962
C	 0.0335335956	 0.0304621661	 0.1920935258	-0.233089
C	-1.3391170269	-0.6217660629	 0.0672889499	-0.009365
C	-2.046433762	-0.7932829529	-1.3338298399	-0.203409
C	-1.0656369475	-1.979375024	-1.6263093222	-0.298397
C	-1.4726466233	-2.1882693124	-0.1187668317	 0.257296
O	-1.0429011047	-3.1671016235	 0.7402412132	-0.471239
C	-2.8826702038	-1.8588878098	-0.612170006	 0.386571
O	-4.0035668901	-2.2497026328	-0.4819990882	-0.340032
H	 0.9512581543	 2.007857819	 0.2209096397	 0.116668
H	-0.3982130783	 1.8638111568	-0.913673829	 0.118454
H	-0.7116422413	 1.9846843797	 0.8216241092	 0.118376
H	 0.7405518018	-0.3600816865	-0.5452884783	 0.104723
H	 0.4409300169	-0.2428251783	 1.173442988	 0.113911
H	-2.0018410078	-0.2157602482	 0.8401422394	 0.082457
H	-2.3658925403	-0.0147021857	-2.0180094234	 0.101108
H	-1.3987089064	-2.7345089638	-2.3406424959	 0.113605
H	-0.0276445038	-1.7019435599	-1.7967534945	 0.117693
H	-1.8107243966	-3.6794036119	 1.0200859024	 0.302632
63.1214	93.9317	132.9629	162.3845	211.1413	234.8538	301.8615	361.1779	437.6127	506.2586	560.7837	642.1334	725.862	761.9768	782.6285	793.0433	808.6147	897.7984	930.0089	963.7911	991.8422	1029.1057	1057.8373	1083.3846	1096.4097	1122.6894	1146.0201	1167.5795	1200.0143	1212.3782	1294.186	1309.9556	1347.1319	1383.9987	1411.0481	1441.0637	1482.1717	1498.8114	1504.7102	1526.2133	1909.429	3031.9214	3035.1405	3040.041	3077.057	3088.2318	3104.8753	3106.6056	3166.1654	3185.5909	3792.6365
CCC1C2CC1(O)C2=O	CC[C@H]1[C@H]2C[C@]1(O)C2=O	
InChI=1S/C7H10O2/c1-2-5-4-3-7(5,9)6(4)8/h4-5,9H,2-3H2,1H3	InChI=1S/C7H10O2/c1-2-5-4-3-7(5,9)6(4)8/h4-5,9H,2-3H2,1H3/t4-,5+,7-/m1/s1
