14
gdb 24814	3.01634	1.5053	1.00417	2.9179	81.28	-0.2212	-0.0352	0.186	1096.6561	0.101845	-399.538384	-399.530929	-399.529985	-399.570355	28.573	
N	-0.063877503	 1.3190081415	-0.2247166995	-0.530739
C	 0.0128323478	 0.0512507977	-0.0402659631	 0.225248
C	 1.2297000797	-0.7344347662	 0.16464201	-0.212247
C	 1.1948374521	-2.0598014549	 0.348534297	 0.059819
O	 0.0464022401	-2.7846814556	 0.3615892084	-0.195973
C	-1.1149514783	-2.1145636309	 0.1772452416	-0.006286
C	-1.2108865632	-0.7797771382	-0.0181144004	-0.025634
C	-2.4909098165	-0.1923532678	-0.2000435926	 0.265906
C	-3.5827070905	 0.289982202	-0.3524959853	-0.388319
H	 0.8702824862	 1.7342060149	-0.2107914422	 0.206964
H	 2.1897534081	-0.230270603	 0.1680593143	 0.114227
H	 2.0581655244	-2.6933588809	 0.5046335673	 0.144107
H	-1.9669567408	-2.7801784261	 0.2049212551	 0.148655
H	-4.5372438263	 0.7343295673	-0.4887385506	 0.194271
100.6802	144.2709	199.7479	377.4402	379.8294	431.8576	445.1582	535.7058	566.1757	576.512	595.0624	655.9954	728.1003	756.1876	823.9031	868.4193	893.1508	912.6778	954.1382	990.1107	1090.7496	1162.6552	1217.8251	1280.1979	1348.4222	1404.4439	1441.8447	1622.0662	1647.0708	1712.035	2233.1602	3193.8425	3230.2858	3236.9439	3443.1331	3505.0993
N=C1C=COC=C1C#C	[NH]C1=CCOC=C1C#C	
InChI=1S/C7H5NO/c1-2-6-5-9-4-3-7(6)8/h1,3-5,8H	InChI=1S/C7H6NO/c1-2-6-5-9-4-3-7(6)8/h1,3,5,8H,4H2
