19
gdb 8152	3.72941	1.75196	1.5894	1.3598	70.83	-0.2195	0.0711	0.2905	899.1962	0.166264	-365.05008	-365.042415	-365.041471	-365.081408	30.313	
C	-0.218616551	 1.4505786253	 0.1414533213	-0.475838
C	 0.0538352379	-0.0195524983	-0.0592690499	 0.342563
C	-0.7625739891	-1.0584625418	 0.625062759	-0.293626
N	 0.6164723775	-0.7827583072	 1.0797966965	-0.135777
C	 1.6155614716	-1.7100983973	 0.5278372242	-0.180071
C	 1.4413206392	-1.7851117023	-1.0095319251	 0.081271
O	 0.5831308647	-2.8463608294	-1.4321383904	-0.425181
C	 0.7516284653	-0.4528395361	-1.3467858379	-0.269404
H	 0.7006401218	 2.0389125298	 0.0386566552	 0.113541
H	-0.936948008	 1.8192736961	-0.5997823064	 0.115515
H	-0.6294472835	 1.6356098653	 1.1372025928	 0.125818
H	-1.5288601031	-0.7504031365	 1.332106875	 0.10375
H	-0.9590932466	-1.9870565874	 0.0993938575	 0.130456
H	 2.6079966769	-1.3113690099	 0.7705580643	 0.103722
H	 1.531905982	-2.6976473335	 0.9969431303	 0.094448
H	 2.4128319663	-1.8764937199	-1.5148526736	 0.069109
H	 0.9753180827	-3.6763364138	-1.1421226462	 0.281557
H	 0.0710602737	-0.5775991702	-2.193282206	 0.118725
H	 1.4982604116	 0.2992675071	-1.6260890506	 0.099424
156.9475	185.6986	204.9546	303.0366	308.6498	380.0391	400.9543	418.3625	448.2623	592.2194	704.5978	766.6584	778.8854	828.8256	892.6134	910.085	937.1723	968.7208	986.8613	1027.6654	1039.5144	1083.6468	1121.0211	1122.7595	1176.1916	1200.559	1214.1343	1259.0789	1273.9157	1322.0673	1331.3311	1357.2455	1386.7328	1417.2047	1423.1074	1474.5946	1485.1545	1487.439	1493.8074	1510.8749	2996.4569	3026.1957	3027.4172	3047.0481	3068.446	3085.912	3100.6475	3108.3306	3117.1595	3207.6117	3814.8449
CC12CN1CC(O)C2	C[C@]12CN1C[C@@H](O)C2	
InChI=1S/C6H11NO/c1-6-2-5(8)3-7(6)4-6/h5,8H,2-4H2,1H3	InChI=1S/C6H11NO/c1-6-2-5(8)3-7(6)4-6/h5,8H,2-4H2,1H3/t5-,6-,7?/m0/s1
