15
gdb 33703	3.13494	1.81248	1.31704	5.4841	73.89	-0.2535	-0.0278	0.2258	926.6809	0.114595	-379.600907	-379.594427	-379.593482	-379.631619	26.324	
N	 0.0139608476	-1.1520470217	 0.0094209143	-0.336365
C	 0.0149604996	 0.0037142579	 0.0106191135	 0.189163
C	-0.0198640568	 1.4476471617	 0.0525945536	 0.223684
C	-0.910410323	 2.161199259	 1.0620396306	-0.172023
C	-0.700468768	 3.457649266	 0.8266699664	-0.109042
C	 0.30302101	 3.4703379793	-0.3093582037	-0.107571
C	 1.312904112	 2.2866408536	-0.0734925702	-0.057873
N	 1.3848199585	 1.9401044432	-1.5367756571	-0.32708
C	-0.0577821048	 2.2887878994	-1.2842396081	-0.057868
H	-1.5477398725	 1.670960003	 1.7826914572	 0.130673
H	-1.1338809541	 4.3165010636	 1.3188627686	 0.122235
H	 0.6755277988	 4.4043254738	-0.7294142249	 0.082849
H	 2.1776909045	 2.2407375603	 0.5923677417	 0.101694
H	 1.8353247156	 2.7059727507	-2.0454336322	 0.215828
H	-0.8253781073	 2.2454413003	-2.0602876895	 0.101696
152.9398	168.2201	371.1026	421.7997	487.2537	521.5326	537.5607	592.2732	679.9982	704.1498	763.5126	802.264	833.2636	886.0425	907.0062	920.6916	931.9022	967.6744	1036.4705	1079.258	1088.5647	1121.0605	1132.8772	1145.4958	1146.3086	1225.1549	1235.8575	1275.2395	1294.1628	1308.8136	1350.2511	1634.2134	2360.4004	3096.6043	3099.5076	3130.3949	3230.3214	3259.1105	3401.9532
N#CC12C=CC3C1NC23	N#C[C@@]12C=C[C@H]3[C@@H]1N[C@@H]23	
InChI=1S/C7H6N2/c8-3-7-2-1-4-5(7)9-6(4)7/h1-2,4-6,9H	InChI=1S/C7H6N2/c8-3-7-2-1-4-5(7)9-6(4)7/h1-2,4-6,9H/t4-,5-,6+,7-
