16
gdb 125667	2.72119	1.499	0.98055	4.8026	72.76	-0.2464	-0.0125	0.2339	1145.2485	0.126001	-434.132711	-434.124214	-434.12327	-434.166207	31.259	
C	 0.099666379	 1.4724634749	-0.0383289881	-0.477378
C	 0.029490235	-0.0177225647	 0.0340879565	 0.283707
N	-0.0066459519	-0.7516866461	-1.0726480784	-0.280196
N	-0.0715733657	-2.0323411889	-0.6394931556	-0.188869
C	-0.0745354305	-2.1389705882	 0.7026007367	-0.138793
C	-0.0040200743	-0.8463638312	 1.1963354614	 0.074684
C	 0.0020232923	-0.3817675137	 2.59573618	 0.297339
N	 0.2092339049	-1.3578398198	 3.5512434814	-0.541961
O	-0.1981909459	 0.7806342268	 2.9041756459	-0.36745
H	 0.9949560276	 1.8492613742	 0.4653030341	 0.136489
H	 0.1146546353	 1.7890054425	-1.0832690081	 0.12704
H	-0.7531227261	 1.9253369732	 0.4732052795	 0.14983
H	-0.1299355132	-2.7725030497	-1.3182018838	 0.278072
H	-0.1553917012	-3.0954390544	 1.19542716	 0.14142
H	 0.738182274	-2.179148719	 3.306440275	 0.249363
H	 0.3574740007	-1.0036825858	 4.4845643335	 0.256702
59.6757	109.7377	175.1194	189.715	280.8459	318.8332	410.5441	421.5882	507.3311	518.8604	540.2405	654.6342	674.9808	695.4968	710.0823	776.6808	823.6219	946.7855	1011.5754	1069.5066	1077.7279	1083.099	1126.1686	1210.0643	1281.3813	1377.7964	1391.2733	1415.56	1473.4494	1475.8947	1485.9948	1515.3337	1589.6258	1619.6753	1773.236	3052.2009	3112.5854	3141.4308	3254.4389	3578.6155	3674.026	3702.4466
CC1=NNC=C1C(N)=O	Cc1n[nH]cc1C(=O)N	
InChI=1S/C5H7N3O/c1-3-4(5(6)9)2-7-8-3/h2H,1H3,(H2,6,9)(H,7,8)	InChI=1S/C5H7N3O/c1-3-4(5(6)9)2-7-8-3/h2H,1H3,(H2,6,9)(H,7,8)
