16
gdb 127395	3.04167	1.2449	0.90386	3.8522	79.85	-0.2283	-0.0671	0.1612	1232.7437	0.123688	-434.055379	-434.046943	-434.045999	-434.088766	30.238	
C	 0.0647707461	 1.393465905	 0.0486060422	-0.316058
N	-0.1180231253	-0.0402388051	 0.1334651117	-0.074623
C	-1.5018164105	-0.4942830258	 0.0942047172	-0.265895
C	-1.4661494233	-1.9158465893	 0.6708007663	 0.323371
C	-0.186961549	-1.9710973599	 1.3803423845	 0.223034
C	 0.555843346	-0.6649714875	 1.2752144842	-0.264377
N	 0.2068055223	-3.0184930028	 2.0329008349	 0.127629
N	 0.5090107025	-3.9616072175	 2.5851632843	-0.225536
O	-2.3203852889	-2.7644034371	 0.5706267919	-0.345022
H	 1.1334836115	 1.6296853595	 0.0212134751	 0.124302
H	-0.3863861001	 1.7689791442	-0.8748133002	 0.128987
H	-0.3867792068	 1.9407322921	 0.8980628184	 0.098074
H	-2.1859824803	 0.107090754	 0.7262837664	 0.106477
H	-1.9043167265	-0.4943794651	-0.9234168352	 0.135704
H	 1.6275219484	-0.7828430813	 1.0731709134	 0.125323
H	 0.4575184738	-0.0703644733	 2.2059729151	 0.09861
89.8029	125.3419	134.8497	220.5837	244.7331	289.2803	310.9742	429.0713	492.5251	521.1137	548.6999	615.5027	650.476	761.1393	875.5425	990.28	1031.0018	1060.0204	1067.3408	1136.9825	1175.1954	1179.7033	1222.2866	1232.2506	1268.0524	1337.0478	1364.8385	1425.8939	1460.1847	1484.3686	1493.8129	1502.9488	1527.0855	1806.5612	2216.4165	2889.334	2905.3816	2928.9143	3033.9266	3062.1762	3074.8212	3106.507
CN1CC2=C(C1)N=NO2	CN1CC(=O)[C](C1)[N][N]	
InChI=1S/C5H7N3O/c1-8-2-4-5(3-8)9-7-6-4/h2-3H2,1H3	InChI=1S/C5H7N3O/c1-8-2-4(7-6)5(9)3-8/h2-3H2,1H3
