20
gdb 52402	5.25301	0.60642	0.58425	2.4833	76.74	-0.2483	0.0282	0.2765	1874.6343	0.170974	-440.28575	-440.276044	-440.275099	-440.323267	33.247	
O	 0.2230209176	 0.5120663571	 1.1410989688	-0.322229
C	 0.1081566277	 1.3593379097	 0.2810164384	 0.153198
N	 1.0612717815	 1.6819685081	-0.6346316913	-0.273154
C	 2.3781825898	 1.0651794402	-0.6514295872	-0.165976
C	 3.4681275498	 1.9459755595	-0.0257936336	-0.21376
C	 4.8433501135	 1.2911385801	-0.0701665476	-0.01975
C	 5.5750945993	 1.2529325081	-1.4342287255	-0.075618
O	 6.6615290306	 2.0530101488	-0.9300540088	-0.269971
C	 6.0463501774	 2.15627929	 0.3700890675	-0.091045
H	-0.8114257103	 1.9629198728	 0.1452759836	 0.074654
H	 0.8682836232	 2.4381684758	-1.2719832515	 0.247175
H	 2.2853785768	 0.1299949771	-0.0935580085	 0.149825
H	 2.639505306	 0.814166622	-1.6865758105	 0.110349
H	 3.5079306823	 2.9123675323	-0.5472603096	 0.094044
H	 3.1912356309	 2.1590564218	 1.0137257594	 0.119649
H	 4.8115042226	 0.3167960319	 0.4258307026	 0.086953
H	 5.9147496726	 0.2676631804	-1.7763253223	 0.10318
H	 5.048763842	 1.7508369251	-2.2613757402	 0.091329
H	 5.8022070566	 3.1957520322	 0.6283175907	 0.09791
H	 6.6807909401	 1.7354920368	 1.1595979156	 0.103236
18.4975	42.8201	71.4711	99.3515	143.2428	222.2426	280.1318	358.1058	389.7296	454.0721	529.1584	726.5491	768.0317	822.4803	876.8255	892.2091	945.3882	973.7059	1000.302	1025.0014	1031.5569	1046.0345	1090.5722	1117.8649	1153.9666	1166.7568	1179.085	1213.6588	1245.1431	1270.8768	1308.9575	1314.821	1339.8919	1370.2759	1399.8883	1411.6942	1431.0237	1474.7392	1492.4517	1513.0424	1534.267	1538.4092	1806.8095	2934.7707	2992.8836	3005.8536	3015.1544	3033.7541	3041.8355	3047.2657	3061.004	3076.1695	3114.9275	3634.0382
O=CNCCC1COC1	O=CNCCC1COC1	
InChI=1S/C6H11NO2/c8-5-7-2-1-6-3-9-4-6/h5-6H,1-4H2,(H,7,8)	InChI=1S/C6H11NO2/c8-5-7-2-1-6-3-9-4-6/h5-6H,1-4H2,(H,7,8)
