19
gdb 99898	2.27071	1.30713	1.1572	4.5561	75.29	-0.2636	0.0245	0.2881	1191.5753	0.15769	-419.188712	-419.178796	-419.177852	-419.223442	35.889	
C	 0.1187253808	 1.4218561485	 0.274302493	-0.401577
C	 0.0608402332	-0.0698357522	-0.0568847289	-0.18636
C	 0.6838431422	-0.4554871759	-1.4228128217	 0.033949
N	-0.0242983663	 0.2477427712	-2.5026148477	-0.519544
C	 2.0965853304	-0.0276009582	-1.4593454725	 0.332461
N	 3.2048481226	 0.2950450746	-1.5035997869	-0.358507
C	 0.6020993127	-1.9804881691	-1.584099348	 0.06631
C	 1.6508217186	-2.8113394677	-2.1868710184	-0.203573
O	 1.4387975755	-2.7847639679	-0.7682153865	-0.229927
H	 1.1538100667	 1.7668419848	 0.3535997434	 0.142909
H	-0.3754686861	 2.0167004627	-0.4970940916	 0.136279
H	-0.3742769235	 1.6141680059	 1.2314728609	 0.116602
H	 0.5672338681	-0.6590434054	 0.7136827184	 0.137015
H	-0.9820375467	-0.4135132683	-0.0797055268	 0.096767
H	 0.3407052691	-0.0365118489	-3.4071865492	 0.241854
H	-1.0068382818	-0.0119850951	-2.4795455052	 0.236012
H	-0.4338370035	-2.322586283	-1.6521997896	 0.092984
H	 1.375759562	-3.7426728	-2.6788565636	 0.121925
H	 2.5788139257	-2.3529273458	-2.520614779	 0.14442
74.9286	104.633	143.423	166.7234	192.6167	228.8396	256.6234	268.5837	329.0197	383.8603	440.6656	467.3796	594.134	648.264	662.9728	789.2093	835.0708	871.5521	907.6205	920.3424	1006.0346	1013.6364	1056.2997	1064.4689	1104.3858	1155.2338	1171.9124	1175.8776	1198.4209	1282.319	1291.3842	1354.3336	1365.6202	1411.6196	1423.8821	1482.9948	1495.2441	1509.0913	1525.1495	1649.9456	2360.9628	3022.6532	3049.3279	3077.0948	3087.5212	3096.75	3117.0151	3133.4034	3190.4895	3485.9853	3572.33
CCC(N)(C#N)C1CO1	CC[C@@](N)(C#N)[C@H]1CO1	
InChI=1S/C6H10N2O/c1-2-6(8,4-7)5-3-9-5/h5H,2-3,8H2,1H3	InChI=1S/C6H10N2O/c1-2-6(8,4-7)5-3-9-5/h5H,2-3,8H2,1H3/t5-,6-/m1/s1
