13
gdb 21482	5.11128	1.55617	1.20289	4.7247	62.03	-0.25	-0.0296	0.2203	920.7738	0.097449	-394.778933	-394.772177	-394.771233	-394.810224	25.081	
N	-0.0522157228	 1.3734949674	-0.0140683995	-0.553709
C	 0.0464366792	-0.0132659572	 0.0469382064	 0.215008
N	 1.1182427698	-0.7001950016	 0.1720399409	-0.508018
C	-1.2405648558	-0.7226236358	 0.0244463906	 0.179216
C	-2.5136588346	-0.2604312653	 0.174001637	-0.027514
O	-3.3936968518	-1.2637449746	 0.1009663563	-0.166541
N	-2.6984871677	-2.4613802547	-0.1043446685	-0.129017
C	-1.4376807073	-2.1260091392	-0.1417244595	-0.032208
H	 0.8186119465	 1.8587999978	-0.1760068986	 0.248814
H	-0.8107680899	 1.7424579818	-0.5691446641	 0.251062
H	 1.9485200965	-0.1054822786	 0.1575860339	 0.205127
H	-2.931072136	 0.7174899532	 0.3589014333	 0.156965
H	-0.676779446	-2.8781138933	-0.2861357683	 0.160815
74.0869	184.8564	203.8557	397.5487	398.0467	502.7095	552.5051	607.9507	638.4124	653.2611	744.5854	855.4818	863.0728	874.1498	934.2697	940.407	1006.463	1092.9379	1131.5414	1162.5386	1174.5118	1268.9476	1353.1402	1444.9654	1502.9146	1632.1735	1647.2118	1718.531	3261.8066	3267.6411	3458.7975	3560.1497	3665.487
NC(=N)C1=CON=C1	NC(=N)c1conc1	
InChI=1S/C4H5N3O/c5-4(6)3-1-7-8-2-3/h1-2H,(H3,5,6)	InChI=1S/C4H5N3O/c5-4(6)3-1-7-8-2-3/h1-2H,(H3,5,6)
