12
gdb 128900	4.72385	1.1	0.93726	2.175	65.29	-0.2741	-0.1124	0.1617	1144.9723	0.077929	-427.831112	-427.823744	-427.8228	-427.865032	25.25	
N	-0.129214867	-1.051038388	 0.7204024589	-0.292605
C	-0.0422707909	 0.0309562034	 0.3278668927	 0.280878
C	 0.0497467496	 1.3935320796	-0.1899929337	-0.421121
C	 1.4339478509	 1.9930421034	-0.06351488	 0.417005
N	 2.1265106544	 1.7985074096	 1.054210904	-0.234509
C	 3.31167123	 2.3938217053	 1.0412610316	 0.116798
N	 3.799658528	 3.1331945274	 0.0382123571	-0.159054
N	 3.0444520601	 3.2914734669	-1.0321913675	-0.041497
N	 1.8539961714	 2.7219004661	-1.1055989861	-0.209999
H	-0.249470203	 1.4213940401	-1.2408606594	 0.191157
H	-0.6547133369	 2.0288507148	 0.3627070419	 0.189443
H	 3.9511517735	 2.2825043213	 1.9125218005	 0.163502
14.2189	103.5848	177.1367	302.9487	327.2426	372.095	438.682	489.1668	676.368	708.3172	821.9668	875.559	946.6575	957.5271	972.625	1010.4181	1032.4276	1158.5552	1203.2797	1259.7822	1313.2826	1351.9692	1427.0285	1445.6855	1536.6963	1567.4222	2376.9397	3040.8997	3111.7768	3186.524
N#CCC1=NC=NN=N1	N#CCc1ncnnn1	
InChI=1S/C4H3N5/c5-2-1-4-6-3-7-9-8-4/h3H,1H2	InChI=1S/C4H3N5/c5-2-1-4-6-3-7-9-8-4/h3H,1H2
