22
gdb 14163	3.09083	2.13467	1.77295	0.06	80.93	-0.2745	0.0838	0.3583	886.7775	0.202394	-313.066136	-313.058551	-313.057606	-313.097208	31.41	
C	-0.1166836618	 1.5162944093	 0.0105582699	-0.459403
C	-0.0399894963	-0.0169159225	 0.0057174957	 0.367001
C	-1.4682432926	-0.5413927681	-0.1706514892	-0.466837
C	 1.1088286676	-0.6105052246	-0.8947987945	-0.039638
C	 2.0915159656	-0.2554045037	 0.2595494542	-0.237928
C	 0.86421068	-0.6291977172	 1.1417573807	-0.039651
C	 0.7836658756	-2.1469517315	 0.8753113239	-0.219853
C	 0.9708002471	-2.1326535546	-0.6825148115	-0.219858
H	 0.8460906218	 2.0145359685	 0.1310994208	 0.113165
H	-0.5562500367	 1.8761384201	-0.9270778744	 0.11031
H	-0.767064823	 1.8600594368	 0.8233899047	 0.110307
H	-1.898468351	-0.1662743472	-1.1068141554	 0.109901
H	-1.543062718	-1.629113301	-0.1897847176	 0.113622
H	-2.1086504937	-0.1826085379	 0.643817489	 0.109903
H	 1.2655049701	-0.2596240119	-1.9168870279	 0.049098
H	 2.9822970415	-0.8827304921	 0.3607883336	 0.082352
H	 2.382830074	 0.7916735084	 0.3041449103	 0.096338
H	 0.7736492939	-0.2972256617	 2.1780595586	 0.049098
H	 1.5852498119	-2.6876940091	 1.3867528411	 0.091838
H	-0.164046556	-2.5911912116	 1.189553989	 0.094198
H	 0.1254466864	-2.5691015539	-1.2202378953	 0.094198
H	 1.8718884935	-2.6657721245	-0.9992741957	 0.091838
143.9861	203.2523	220.0418	313.1549	350.767	390.0638	410.4844	487.1825	510.7694	631.4954	665.0421	797.2292	833.1048	841.7627	855.5178	902.4139	933.4217	936.811	955.018	973.9629	986.7309	1006.7924	1025.392	1027.4096	1084.0008	1110.774	1144.4138	1187.9285	1198.2614	1223.1935	1229.084	1251.3282	1255.5813	1259.9388	1297.4407	1311.7299	1338.0994	1405.3676	1424.9701	1479.173	1481.4331	1497.3043	1502.4713	1512.9892	1519.2293	1531.6036	3025.8979	3032.6429	3052.2915	3058.4718	3061.6451	3076.7804	3083.5297	3088.0525	3090.1805	3094.8974	3104.6993	3128.1683	3140.8426	3154.6736
CC1(C)C2CC1CC2	CC1(C)[C@H]2C[C@@H]1CC2	
InChI=1S/C8H14/c1-8(2)6-3-4-7(8)5-6/h6-7H,3-5H2,1-2H3	InChI=1S/C8H14/c1-8(2)6-3-4-7(8)5-6/h6-7H,3-5H2,1-2H3/t6-,7+
