19
gdb 119793	5.29711	0.89206	0.82778	1.4581	78.09	-0.21	0.0592	0.2692	1449.1208	0.160295	-419.211838	-419.203316	-419.202372	-419.245692	31.955	
C	-0.1672224676	 1.4931490502	-0.1418260719	-0.396671
C	 0.183110458	 0.0219732412	 0.0533186649	-0.11039
N	 0.6957307335	-0.5534094691	-1.1834245641	-0.390163
C	 0.8157045107	-1.9011371636	-1.3090671604	 0.502771
N	 0.3111151049	-2.8052321204	-0.5514959769	-0.367785
C	 0.6225129922	-4.0613042974	-1.1880263712	-0.013523
C	 0.0497690621	-4.2882272454	-2.5765341151	-0.32138
C	 1.4307059074	-3.7137781321	-2.4208091101	 0.056804
O	 1.5314673413	-2.2970050624	-2.4098434113	-0.263674
H	 0.7147220908	 2.0782490451	-0.4277287061	 0.114361
H	-0.9237303904	 1.6159883459	-0.9222416778	 0.129953
H	-0.5555763724	 1.9168398903	 0.7884529849	 0.12509
H	 0.905305243	-0.0938248531	 0.8751974844	 0.105537
H	-0.7000071142	-0.5580695454	 0.3328387852	 0.143255
H	 1.396186766	-0.0239490259	-1.681134825	 0.246696
H	 0.8233564442	-4.904431452	-0.5375758141	 0.094895
H	 0.0006371246	-5.3121230217	-2.9325640111	 0.114587
H	-0.7523164067	-3.6392858796	-2.9129166381	 0.122708
H	 2.3255542925	-4.1953295646	-2.792549026	 0.106929
45.4008	98.7239	143.7898	209.1424	269.6059	341.3121	357.9006	438.2144	496.6267	512.9853	729.0066	733.2851	748.0498	783.5392	805.7518	821.3679	915.0767	927.8863	971.7682	984.7774	1019.4202	1060.7157	1080.8817	1085.8596	1122.3256	1140.3722	1150.9732	1187.7851	1189.6966	1269.7331	1293.6577	1327.731	1364.3999	1395.9343	1416.568	1459.57	1492.298	1498.3941	1522.7674	1540.3739	1719.6831	2995.3428	3034.4218	3089.9257	3110.4857	3122.7135	3126.0266	3176.1994	3198.3068	3220.3958	3614.3332
CCNC1=NC2CC2O1	CCNC1=N[C@H]2C[C@H]2O1	
InChI=1S/C6H10N2O/c1-2-7-6-8-4-3-5(4)9-6/h4-5H,2-3H2,1H3,(H,7,8)	InChI=1S/C6H10N2O/c1-2-7-6-8-4-3-5(4)9-6/h4-5H,2-3H2,1H3,(H,7,8)/t4-,5+/m0/s1
