18
gdb 88801	2.81123	1.35639	1.05098	2.7752	73.22	-0.2645	0.0208	0.2854	1164.965	0.147145	-439.060014	-439.051485	-439.050541	-439.093786	31.363	
C	 0.0558691016	 1.5207404913	-0.308909754	-0.454315
C	-0.1273816513	 0.0950845243	 0.1367981392	 0.079329
O	 0.9891639921	-0.8105320006	 0.0478762094	-0.254376
C	 0.4529416965	-0.5277041217	 1.3377101404	 0.038452
C	 1.359429883	 0.1004415445	 2.371449514	-0.196136
C	 2.3753195054	-0.8703045225	 3.0272551613	-0.09423
O	 3.4784589389	-0.0254393664	 2.5859006779	-0.242547
C	 2.6227656613	 0.85931524	 1.9737729863	 0.457405
N	 2.8705460972	 1.927403132	 1.3675519137	-0.542868
H	 0.9747488321	 1.9619806811	 0.0791955303	 0.187544
H	 0.0770093006	 1.5632400051	-1.4033440739	 0.123988
H	-0.7990563934	 2.1194967732	 0.0260518198	 0.113932
H	-1.0574270545	-0.3641187611	-0.2082916114	 0.088294
H	-0.116124028	-1.3577215664	 1.7692206356	 0.089717
H	 0.7615090955	 0.6532712458	 3.1026038802	 0.119136
H	 2.3517080716	-0.9475182068	 4.1165697693	 0.121681
H	 2.4362974487	-1.8607788208	 2.5696700089	 0.132728
H	 3.8739681725	 2.112482689	 1.3310717231	 0.232267
50.708	114.6633	175.0368	192.5517	215.0344	250.8163	386.7016	458.7875	477.2989	510.3398	701.9799	735.7359	755.0195	799.352	858.3345	884.8643	942.9869	965.8648	980.3988	1019.4175	1030.2381	1068.0488	1087.403	1130.084	1162.7056	1174.0584	1192.9161	1219.2261	1241.8578	1296.6642	1338.5277	1379.0586	1398.9686	1429.1342	1469.6719	1504.3524	1514.2213	1518.0443	1821.3222	3032.6572	3047.7847	3062.947	3071.3118	3074.949	3091.8359	3125.1568	3148.3219	3481.6336
CC1OC1C1COC1=N	C[C@H]1O[C@H]1[C@H]1CO[C]1[NH]	
InChI=1S/C6H9NO2/c1-3-5(9-3)4-2-8-6(4)7/h3-5,7H,2H2,1H3	InChI=1S/C6H9NO2/c1-3-5(9-3)4-2-8-6(4)7/h3-5,7H,2H2,1H3/t3-,4-,5-/m1/s1
