17
gdb 50634	2.73256	1.33818	0.96421	5.0485	72.49	-0.2512	0.0067	0.2579	1186.7185	0.137711	-455.178618	-455.170525	-455.16958	-455.212077	29.6	
N	-0.0523073355	 1.2961590757	-0.2973349685	-0.493974
C	 0.0145756173	 0.0794758876	 0.0324914223	 0.376642
C	-1.2503424831	-0.7581840036	 0.0854147395	-0.24929
N	-1.1259038967	-1.9206757313	 0.9488930347	-0.05971
C	 0.1123637476	-2.6569216594	 0.8265274138	-0.195389
C	 1.2712310492	-1.7024933425	 1.0774190187	-0.070875
O	 1.2127001447	-0.5546549553	 0.2214042094	-0.250313
C	-2.1311085197	-2.27137007	 1.8025845295	 0.152766
O	-3.1801156361	-1.6795484125	 1.9278831165	-0.33049
H	 0.8845136064	 1.7021019654	-0.3471180759	 0.225126
H	-2.0812721748	-0.1491497923	 0.4373295375	 0.182801
H	-1.4796618939	-1.0754295332	-0.9432454601	 0.139787
H	 0.1293408533	-3.4698020592	 1.5584823276	 0.128178
H	 0.2006301048	-3.097757239	-0.1770623718	 0.121513
H	 1.2606527689	-1.3707353454	 2.1238693685	 0.12093
H	 2.2324749549	-2.1779990481	 0.8677632619	 0.126762
H	-1.8717052674	-3.178749757	 2.3840292064	 0.075537
62.039	81.9848	171.1668	241.0631	313.2714	353.6264	396.1902	456.0477	473.7737	541.5476	624.9384	690.1236	797.294	882.2411	915.9118	929.2055	978.9637	1015.913	1030.617	1045.7009	1108.2802	1147.5415	1201.6556	1234.5139	1271.6303	1288.3541	1310.6665	1357.3851	1398.3161	1427.5028	1434.1813	1456.8449	1477.3709	1485.3291	1503.8258	1759.7772	1800.1724	2931.8091	2996.3679	3003.1007	3026.0775	3094.8047	3106.6715	3158.3061	3466.172
N=C1CN(CCO1)C=O	[NH][C]1CN(CCO1)C=O	
InChI=1S/C5H8N2O2/c6-5-3-7(4-8)1-2-9-5/h4,6H,1-3H2	InChI=1S/C5H8N2O2/c6-5-3-7(4-8)1-2-9-5/h4,6H,1-3H2
