16
gdb 127466	3.52488	1.14822	0.87637	0.7318	69.89	-0.2137	0.0037	0.2174	1272.3251	0.123585	-471.207895	-471.198684	-471.19774	-471.242903	31.664	
C	 0.1445182449	 1.3715109471	-0.1176488625	-0.327203
N	 0.0477487069	-0.0651591631	-0.0600731654	-0.044661
N	 0.0960295998	-0.8477295323	-1.1980615884	-0.313006
C	 0.0584009322	-2.0499707665	-0.7572789792	 0.378319
C	 0.0200233343	-3.2906704497	-1.5877332319	-0.153828
O	 0.1872498356	-3.0122889988	-2.9532129873	-0.404841
O	-0.0038272682	-2.1462154894	 0.6003711978	-0.232689
C	 0.005703371	-0.8319900215	 1.0773061418	 0.450009
N	-0.0201667514	-0.4425491897	 2.2797058974	-0.611185
H	 1.1133744375	 1.685800233	-0.5197782269	 0.141066
H	-0.6530572265	 1.784484243	-0.7420137798	 0.141261
H	 0.0385016625	 1.7387613984	 0.9038257406	 0.178334
H	 0.8282887361	-3.963902452	-1.2760093204	 0.141383
H	-0.9262015926	-3.8189298017	-1.3770200963	 0.121572
H	-0.2162409688	-2.1541274346	-3.1302282614	 0.302977
H	-0.0566967434	-1.2230388321	 2.9275047518	 0.232493
54.2335	74.4049	110.9233	149.3439	188.6943	250.1444	279.9207	296.2945	384.8664	535.3764	637.308	669.5783	687.2003	709.4164	725.7782	837.8668	970.148	1023.628	1027.3219	1043.3303	1107.4091	1158.8906	1162.4827	1224.5241	1276.4735	1305.1678	1366.2502	1424.612	1450.7247	1460.6491	1484.3129	1504.2115	1515.334	1694.569	1797.9752	2958.8412	3038.2746	3048.5056	3099.986	3158.0147	3561.0902	3793.5085
CN1N=C(CO)OC1=N	CN1N=C(CO)O[C@@H]1[NH]	
InChI=1S/C4H7N3O2/c1-7-4(5)9-3(2-8)6-7/h5,8H,2H2,1H3	InChI=1S/C4H8N3O2/c1-7-4(5)9-3(2-8)6-7/h4-5,8H,2H2,1H3/t4-/m1/s1
