16
gdb 127299	3.12177	1.44764	0.99521	5.0428	80.92	-0.193	-0.0205	0.1725	1142.4589	0.126041	-434.08139	-434.07323	-434.072286	-434.115224	30.238	
C	 0.0753294909	 1.4286630088	-0.077690178	-0.31466
N	-0.0034924631	-0.0185595882	-0.0403323093	-0.00942
C	-1.1674669166	-0.711198609	 0.0824085913	 0.030232
C	-1.1980172197	-2.0664049169	 0.1137925612	-0.188304
C	 0.0219696686	-2.8326676379	 0.0166520731	 0.208079
N	 0.0605748273	-4.1201288312	 0.0401864271	-0.555788
C	 1.1969691865	-1.9469267607	-0.1111077575	 0.375976
O	 2.385646856	-2.5736451959	-0.2082984015	-0.404521
N	 1.1941188322	-0.6543129917	-0.1380812962	-0.340291
H	 0.6862570863	 1.8006543563	 0.7508222628	 0.145655
H	 0.5226929209	 1.7638192876	-1.0187333287	 0.145671
H	-0.9306556286	 1.8418337913	 0.0066956239	 0.139465
H	-2.0609460372	-0.1027217916	 0.1525298602	 0.129213
H	-2.1374642833	-2.5937622062	 0.2120981839	 0.11474
H	 1.0266037314	-4.4384022781	-0.0428169601	 0.220713
H	 3.0657451683	-1.8904530565	-0.2858380322	 0.303239
23.3391	109.351	174.3895	319.6751	323.2469	340.7003	428.6409	468.4994	504.3168	544.9402	555.0999	601.9544	712.3347	740.3381	809.5035	833.1744	875.37	948.2258	973.0752	1056.6668	1123.4023	1152.757	1177.5574	1205.4356	1297.8477	1355.8586	1374.9069	1421.6026	1464.6166	1470.6488	1492.0271	1526.4726	1631.274	1644.6056	1680.2757	3037.6878	3096.7878	3145.7061	3204.6309	3228.6681	3477.2087	3772.9453
CN1C=CC(=N)C(O)=N1	CN1CC=C([NH])C(=N1)O	
InChI=1S/C5H7N3O/c1-8-3-2-4(6)5(9)7-8/h2-3,6H,1H3,(H,7,9)	InChI=1S/C5H8N3O/c1-8-3-2-4(6)5(9)7-8/h2,6H,3H2,1H3,(H,7,9)
