23
gdb 64317	2.41858	1.49568	1.186	1.1743	87.06	-0.2355	0.028	0.2636	1178.4392	0.205858	-388.300553	-388.291378	-388.290434	-388.333665	36.512	
C	-0.2017809894	 1.5206198185	 0.1334228531	-0.397139
C	-0.0283027061	 0.005140451	-0.0305269934	 0.349827
C	-1.3932570025	-0.6882983607	 0.0829340873	-0.438475
C	 0.6827061865	-0.2790028254	-1.3696997065	-0.195009
C	 0.762917205	-1.7398050023	-1.8249814187	-0.276693
C	 1.3255195641	-2.7542506066	-0.865195019	-0.053749
C	 1.3998766642	-2.7284869276	 0.4657896535	-0.055018
C	 0.963443307	-1.6860267689	 1.461646455	-0.128036
O	 0.8560007779	-0.3452442864	 1.0464596468	-0.285822
H	 0.7693276686	 2.0203358623	 0.0736432668	 0.118763
H	-0.8524349203	 1.92884269	-0.6455444502	 0.10647
H	-0.6395647676	 1.7455898841	 1.1097819306	 0.114339
H	-2.0581011561	-0.3316520682	-0.7099426899	 0.113804
H	-1.3201336029	-1.774592817	-0.0094876125	 0.126209
H	-1.8600533344	-0.4549801643	 1.0448789171	 0.118825
H	 0.1863762892	 0.2944178606	-2.1626665362	 0.086913
H	 1.6960543171	 0.1260993946	-1.2715223637	 0.104528
H	-0.2361199226	-2.0856361903	-2.1322792679	 0.111253
H	 1.3577911118	-1.7728272459	-2.7469741732	 0.102026
H	 1.6792130639	-3.6633965734	-1.3502210417	 0.083693
H	 1.7993370053	-3.6164801634	 0.9564424112	 0.083284
H	 0.0230229121	-2.0327244088	 1.9279038072	 0.097738
H	 1.6998839092	-1.6584009817	 2.2743661044	 0.112269
92.5416	170.9997	228.7098	234.802	255.4779	293.5173	321.2955	374.2251	402.433	415.9763	421.697	465.6062	579.1142	680.2388	717.5897	765.1758	822.2648	846.0911	897.2867	924.63	937.8227	954.0054	998.0059	1012.8677	1032.0576	1048.6829	1080.5012	1144.301	1163.701	1205.9618	1239.364	1262.5669	1271.2039	1304.8678	1311.0857	1379.7992	1392.4545	1393.9742	1411.078	1418.956	1431.645	1465.7158	1473.8806	1482.2129	1484.5057	1490.505	1497.6763	1519.558	1742.9716	2937.5437	2992.5515	3020.9029	3034.4366	3038.9121	3041.0703	3044.9394	3072.0946	3107.5969	3112.7571	3117.4948	3120.0874	3120.8063	3138.6129
CC1(C)CCC=CCO1	CC1(C)CCC=CCO1	
InChI=1S/C8H14O/c1-8(2)6-4-3-5-7-9-8/h3,5H,4,6-7H2,1-2H3	InChI=1S/C8H14O/c1-8(2)6-4-3-5-7-9-8/h3,5H,4,6-7H2,1-2H3
