15
gdb 33985	2.37526	1.77946	1.22451	5.4196	70.9	-0.2649	-0.0107	0.2542	1007.0238	0.112459	-416.741031	-416.733556	-416.732612	-416.773081	28.309	
N	 0.0813185438	-1.148613307	 0.0370066854	-0.334569
C	 0.0330350001	 0.0067057884	 0.0175474389	 0.221808
C	-0.0763897101	 1.4318372641	-0.0099926081	 0.100785
C	 0.2724939828	 2.2779781372	-1.1843228303	-0.268567
N	 1.1175206995	 2.3931451467	 0.0057368159	-0.146922
C	 0.353884871	 3.2695001674	 0.9748261048	-0.256181
C	-0.8139101769	 2.281012751	 1.01294656	 0.387475
C	-2.2414423043	 2.3816455608	 1.3128622124	-0.268397
O	-1.3087600005	 1.7522452226	 2.2130648502	-0.251346
H	 0.7656830704	 1.7875093227	-2.0171826132	 0.154068
H	-0.394696951	 3.0947150328	-1.453285698	 0.127712
H	 0.8778684471	 3.311719071	 1.9311968042	 0.14779
H	 0.1711237521	 4.2803397317	 0.599240835	 0.122776
H	-2.6556272916	 3.3258783326	 1.6618252724	 0.129204
H	-2.9442548823	 1.7067249781	 0.8277247205	 0.134363
106.3745	139.2209	187.0903	296.9454	332.5395	426.1742	458.1029	502.7637	574.0073	586.4636	624.8127	773.5681	847.2535	867.2321	870.8321	896.46	960.4031	995.8052	1076.4675	1109.0135	1123.2942	1128.9071	1143.0847	1170.2907	1195.6685	1252.8415	1277.2744	1336.0682	1442.9216	1482.9184	1502.1221	1537.8791	2354.4809	3062.9662	3091.0119	3105.4323	3133.0121	3182.7806	3209.4356
N#CC12CN1CC21CO1	N#C[C@]12CN1C[C@]12CO1	
InChI=1S/C6H6N2O/c7-1-5-2-8(5)3-6(5)4-9-6/h2-4H2	InChI=1S/C6H6N2O/c7-1-5-2-8(5)3-6(5)4-9-6/h2-4H2/t5-,6-,8?/m1/s1
