16
gdb 31362	4.00074	1.18736	0.92112	5.2907	78.14	-0.217	-0.025	0.192	1225.0124	0.127346	-430.302901	-430.294484	-430.29354	-430.33701	30.023	
C	 0.0107184742	 1.4776495669	-0.0509029187	-0.328468
N	 0.0426662237	 0.0283612491	 0.0527564753	-0.379726
C	 0.6408183603	-0.6246975862	 1.0736007066	 0.563137
N	 0.6807089726	-1.9784940905	 1.0206902311	-0.381268
H	 0.2831816473	-2.5045379342	 0.2550562195	 0.260109
C	 1.2675186797	-2.7564838332	 2.0465610696	 0.411444
N	 1.2487729278	-4.0214437598	 1.8889032047	-0.574498
N	 1.7950751123	-2.041805596	 3.1097644971	-0.311492
C	 1.6981293268	-0.7447691514	 3.0569529405	 0.064935
N	 1.1512023144	 0.0423893725	 2.0896582219	-0.367053
H	 0.8490981731	 1.8659204415	-0.6415566993	 0.135478
H	-0.9271799496	 1.7864011444	-0.5192105509	 0.132835
H	 0.0718432266	 1.8947830696	 0.9533461563	 0.181743
H	-0.2405767255	-0.5092216964	-0.7497320586	 0.25226
H	 1.6985324551	-4.4525343034	 2.694670278	 0.224108
H	 2.1135378713	-0.1925712629	 3.8993365469	 0.116457
36.0603	88.9139	143.5119	193.4001	225.66	365.7319	398.0073	436.3499	496.5287	577.9562	604.3642	654.3084	746.9501	779.3729	829.7492	855.304	929.1545	1007.0712	1024.8277	1066.4023	1111.9889	1153.8485	1166.9709	1279.4768	1286.5684	1340.1234	1414.4856	1442.9009	1460.9275	1492.8484	1510.6974	1558.5463	1635.7632	1642.8656	1734.1207	3031.9232	3102.7912	3141.5272	3169.2051	3514.1124	3600.0386	3647.1121
CNC1=[NH+]C(=N)N=C[N-]1	CN[C@@H]1NC(=NC=N1)[NH]	
InChI=1S/C4H6N5/c1-6-4-8-2-7-3(5)9-4/h2H,1H3,(H2-,5,6,7,8,9)/q-1/p+1	InChI=1S/C4H8N5/c1-6-4-8-2-7-3(5)9-4/h2,4-6H,1H3,(H,7,8,9)/t4-/m0/s1
