22
gdb 94617	3.45202	0.92944	0.80449	1.5397	82.67	-0.2356	0.0838	0.3194	1489.7968	0.193766	-404.29473	-404.285316	-404.284372	-404.330088	34.48	
C	-0.4754037981	 1.3896651994	-0.1513429444	-0.402428
C	 0.1685881293	 0.0183262595	-0.0719373159	 0.143206
O	 1.4828724063	-0.0099029295	-0.679765434	-0.29247
C	 2.0595086209	-0.6467310025	 0.4766757136	-0.079117
C	 0.7399438912	-0.5232962798	 1.2707212247	-0.051345
C	 0.7345860112	 0.404471212	 2.4801563875	-0.167492
N	 1.2789362252	-0.274857115	 3.6527115293	-0.065432
C	 2.70257922	-0.0940173926	 3.9264369396	-0.22052
C	 1.6738291726	 0.5744377848	 4.7692160494	-0.221385
H	 0.1386680176	 2.1542409396	 0.331464107	 0.119638
H	-0.6027004108	 1.6719768481	-1.2012702852	 0.126683
H	-1.4651876121	 1.3824001143	 0.3180540696	 0.115538
H	-0.4881106355	-0.7173113392	-0.5598357108	 0.070597
H	 2.3815528257	-1.674324172	 0.2638274495	 0.097811
H	 2.916978239	-0.0830113662	 0.8646753957	 0.095286
H	 0.3119177767	-1.4810702004	 1.5739535373	 0.086854
H	 1.2811725934	 1.3383314995	 2.2547229618	 0.083954
H	-0.2986975104	 0.6873541499	 2.7174607325	 0.105192
H	 3.2319772626	-0.9711156399	 4.2873385154	 0.118042
H	 3.2784801887	 0.5424441768	 3.2565329557	 0.111357
H	 1.5659692135	 1.6523294734	 4.6551355976	 0.108537
H	 1.4355237331	 0.1954787099	 5.7589681238	 0.117496
49.2357	61.3064	100.2007	139.0321	218.3613	255.186	314.885	371.7652	380.8708	458.8638	495.6529	741.338	770.8348	835.1142	847.5609	877.1189	894.348	919.315	929.8871	1000.6263	1021.9107	1033.8513	1041.3323	1090.3722	1108.6267	1115.7045	1121.3463	1148.8642	1157.056	1168.0971	1174.0044	1206.8265	1247.1167	1277.2693	1298.6968	1320.4774	1346.5887	1366.7066	1389.2281	1407.1347	1410.2097	1481.5667	1487.1876	1494.7484	1499.2401	1520.7708	1528.4593	2935.597	2984.1687	3008.6926	3036.7252	3041.9984	3047.2383	3090.1707	3092.9856	3098.0971	3104.7043	3121.7347	3176.0099	3190.3758
CC1OCC1CN1CC1	C[C@H]1OC[C@H]1CN1CC1	
InChI=1S/C7H13NO/c1-6-7(5-9-6)4-8-2-3-8/h6-7H,2-5H2,1H3	InChI=1S/C7H13NO/c1-6-7(5-9-6)4-8-2-3-8/h6-7H,2-5H2,1H3/t6-,7-/m1/s1
