15
gdb 10437	2.80116	1.72804	1.2592	4.076	71.16	-0.259	0.0243	0.2833	974.0395	0.117444	-325.494485	-325.486399	-325.485455	-325.527167	29.655	
C	 0.3397205049	-1.2569319017	-0.1130954325	-0.447964
C	 0.1945438302	-0.0642099109	-0.0685054414	 0.286385
C	 0.0074559764	 1.3610320378	-0.039593777	 0.153353
C	-1.0981155964	 1.8868694101	-0.9600179292	-0.420162
C	-2.436333732	 1.4520079067	-0.5548497391	 0.279555
N	-3.4936164363	 1.1200120236	-0.228922737	-0.305209
C	 0.2494966233	 2.0969294651	 1.268329192	-0.280812
C	 1.2340911559	 2.2429553217	 0.1451083354	-0.307353
H	 0.4612526697	-2.3115129946	-0.1417800797	 0.201588
H	-1.0811524144	 2.9821564351	-0.966857242	 0.148986
H	-0.9179559684	 1.5560217729	-1.9885915253	 0.161386
H	-0.408578476	 2.9294807614	 1.4922339276	 0.129917
H	 0.5298862863	 1.4988101041	 2.1262206807	 0.139318
H	 2.189921803	 1.7408403788	 0.2294942751	 0.138087
H	 1.260876004	 3.17882204	-0.4029017676	 0.122925
62.5124	119.0259	178.4314	218.3768	316.095	332.186	392.0649	475.5863	533.8665	563.3376	598.0687	663.9062	712.6912	784.3238	870.9688	907.6078	936.4803	949.9541	979.8056	1014.1021	1068.5828	1091.0882	1191.9309	1210.0975	1276.66	1328.0557	1354.3449	1457.3783	1469.1423	1497.0589	2239.287	2365.7781	3047.0683	3088.8015	3140.286	3144.8257	3227.8536	3241.7164	3502.7097
C#CC1(CC#N)CC1	C#CC1(CC#N)CC1	
InChI=1S/C7H7N/c1-2-7(3-4-7)5-6-8/h1H,3-5H2	InChI=1S/C7H7N/c1-2-7(3-4-7)5-6-8/h1H,3-5H2
