14
gdb 15151	14.45531	0.61321	0.61185	2.1892	87.98	-0.2334	-0.0213	0.2122	1789.2194	0.104981	-345.334662	-345.325963	-345.325019	-345.371242	28.858	
C	-0.0129919982	 1.4824551763	-0.020052134	-0.5185
C	 0.0007239297	 0.0314127938	-0.0032054543	 0.242319
C	 0.0115186107	-1.1790503347	 0.0104211436	-0.196638
C	 0.0228287129	-2.537227597	 0.0241577499	-0.166395
C	 0.0272811827	-3.7485622634	 0.0452907002	 0.340496
C	 0.0689556573	-5.1817294601	 0.0386415743	-0.182174
C	-0.4458203785	-5.9816269874	 1.1706120153	-0.158432
O	-1.183638275	-5.8863321645	-0.0389106567	-0.2092
H	 1.0045391233	 1.8855209051	-0.0753497674	 0.158906
H	-0.569620541	 1.8630599561	-0.8838567557	 0.159491
H	-0.4826807598	 1.885063991	 0.884424191	 0.15866
H	 0.8568017127	-5.6231307933	-0.5713427411	 0.121831
H	 0.0047320662	-6.9516837409	 1.3773904724	 0.121584
H	-0.8748341632	-5.464485221	 2.0265503225	 0.128052
4.2536	69.9237	77.1245	176.0491	188.1377	328.8835	337.3699	434.8153	493.4175	540.7966	572.0187	629.8029	819.6626	845.796	950.359	1034.8958	1047.0364	1047.9164	1088.4663	1154.4885	1162.2031	1259.2843	1302.7602	1403.5763	1418.3162	1470.4334	1471.4382	1517.8317	2277.9656	2380.4907	3024.4781	3085.0769	3087.2984	3087.5178	3111.4272	3180.0813	4.272	69.9235	77.1243	176.0492	188.1378	328.8836	337.3702	434.8153	493.4176	540.7967	572.0188	629.8028	819.6625	845.7959	950.359	1034.8957	1047.0365	1047.9165	1088.4662	1154.4885	1162.203	1259.2843	1302.7601	1403.5762	1418.3161	1470.4333	1471.4381	1517.8317	2277.9657	2380.4907	3024.478	3085.0769	3087.2984	3087.5178	3111.4272	3180.0812
CC#CC#CC1CO1	CC#CC#C[C@H]1CO1	
InChI=1S/C7H6O/c1-2-3-4-5-7-6-8-7/h7H,6H2,1H3	InChI=1S/C7H6O/c1-2-3-4-5-7-6-8-7/h7H,6H2,1H3/t7-/m0/s1
