23
gdb 89850	2.71474	1.33544	1.03626	0.0836	91.34	-0.2357	0.0304	0.2662	1264.4957	0.207255	-351.168088	-351.159472	-351.158527	-351.200901	34.82	
C	-0.0567973482	 1.555794397	-0.0025899858	-0.4014
C	 0.0216485106	 0.0219355509	 0.0118915702	-0.009344
C	 0.700678914	-0.5253569841	-1.2575430935	-0.286261
C	 1.0021706094	-2.0071485814	-1.1270039412	 0.387408
C	-0.1058267267	-2.9841587963	-1.4443756773	-0.2968
C	 1.0885583187	-2.8595537904	-2.3637254092	-0.335694
C	 1.9320942346	-2.3124146326	 0.0373809559	-0.328634
C	 1.5816688059	-1.504280531	 1.2609157127	-0.071468
C	 0.7281829026	-0.4812019239	 1.2493749379	-0.036793
H	 0.9452294459	 1.9990597009	-0.01468733	 0.11586
H	-0.5944951345	 1.9134676528	-0.8871655349	 0.109061
H	-0.5785019591	 1.9342716933	 0.8829209123	 0.109611
H	-1.0119490716	-0.3586473102	 0.0345057624	 0.081389
H	 0.0678648166	-0.3374236122	-2.1329730748	 0.085849
H	 1.6386473864	 0.0243173737	-1.4219531089	 0.09176
H	-0.1943987977	-3.879840438	-0.8384576455	 0.10722
H	-1.0555976352	-2.5870908259	-1.7887522556	 0.105272
H	 0.9443970988	-2.3834901471	-3.3284794278	 0.105927
H	 1.808096306	-3.6724446468	-2.3751114264	 0.105596
H	 1.9044127381	-3.3837055632	 0.2762637616	 0.098453
H	 2.9757882691	-2.1054699524	-0.2486023577	 0.105282
H	 2.0669666238	-1.7911800353	 2.1912589282	 0.081117
H	 0.5135022725	 0.0477241123	 2.1765146374	 0.076589
101.1082	125.7642	240.0283	245.6162	292.9184	315.2937	364.6422	387.4881	453.6961	471.6179	517.7926	671.3945	717.4037	778.6199	793.0385	839.4054	887.8287	903.5776	937.1688	943.318	959.4241	987.2529	999.336	1005.2685	1015.0694	1050.7107	1071.4944	1078.9057	1111.3337	1150.3477	1171.6312	1187.7223	1210.9666	1236.9057	1303.3561	1319.3384	1328.5904	1343.83	1367.4741	1400.9216	1402.9978	1423.7694	1465.0452	1474.3863	1488.5828	1497.0493	1501.1047	1506.1802	1721.8554	2972.5063	2980.4137	3005.3041	3026.2426	3030.1149	3055.4462	3095.7514	3097.3492	3120.0464	3125.3419	3130.4031	3156.8852	3197.493	3212.6052
CC1CC2(CC2)CC=C1	C[C@H]1CC2(CC2)CC=C1	
InChI=1S/C9H14/c1-8-3-2-4-9(7-8)5-6-9/h2-3,8H,4-7H2,1H3	InChI=1S/C9H14/c1-8-3-2-4-9(7-8)5-6-9/h2-3,8H,4-7H2,1H3/t8-/m1/s1
