17
gdb 87547	2.59264	1.62646	1.19878	4.7259	74.78	-0.2248	-0.0242	0.2006	1056.329	0.135127	-417.932968	-417.92487	-417.923926	-417.965609	30.561	
C	-0.109317793	 1.4994925831	 0.0147657902	-0.313904
N	 0.0067977199	 0.0476170435	 0.0638285683	-0.120848
C	 1.3189099848	-0.5328125748	-0.1830974093	-0.324277
C	 0.7242784153	-0.5149408989	 1.1836887823	 0.288548
C	 1.2824741626	 0.1483816893	 2.4377538872	-0.185435
N	 0.1345223705	 0.2838765793	 3.3508040764	-0.331735
C	 0.8680166258	-1.0272222464	 3.28211285	-0.188812
C	 0.3304381197	-1.7267868908	 2.0413154755	 0.398903
O	-0.0584315512	-2.829908825	 1.798056369	-0.313516
H	 0.8004156767	 2.0260317349	 0.3471309197	 0.095952
H	-0.3248786804	 1.8023567791	-1.0139239212	 0.128928
H	-0.9402189133	 1.8102287102	 0.6535000804	 0.143653
H	 1.3327007003	-1.4595958657	-0.7500109232	 0.137229
H	 2.1594094201	 0.139151161	-0.3605646943	 0.111354
H	 2.1807600966	 0.7419357411	 2.5423372531	 0.114742
H	 0.465877123	 0.739338699	 4.2026003329	 0.240351
H	 1.3353835625	-1.4510568489	 4.160919453	 0.118867
106.3949	134.5118	191.7775	197.1494	250.5626	300.2971	398.8292	437.3187	567.0236	622.2067	659.4277	749.6745	801.1032	830.8492	850.2561	875.8949	901.0224	945.7126	960.1221	1043.433	1052.8031	1074.5517	1093.9885	1115.0385	1123.6285	1160.2265	1189.0139	1204.6056	1267.5685	1303.0993	1330.6964	1423.568	1450.3129	1491.5516	1493.7412	1505.8065	1898.9246	2969.9037	3078.8792	3081.265	3121.763	3181.4792	3204.4731	3215.898	3457.5731
CN1CC11C2NC2C1=O	CN1C[C@]21[C@H]1N[C@H]1C2=O	
InChI=1S/C6H8N2O/c1-8-2-6(8)4-3(7-4)5(6)9/h3-4,7H,2H2,1H3	InChI=1S/C6H8N2O/c1-8-2-6(8)4-3(7-4)5(6)9/h3-4,7H,2H2,1H3/t3-,4+,6+,8?/m1/s1
