20
gdb 121692	6.86154	0.5413	0.50797	1.2485	79.86	-0.2745	-0.0208	0.2536	2163.4479	0.168518	-440.331117	-440.320552	-440.319607	-440.368383	35.956	
C	 0.1678067805	 1.4877425335	 0.0071889492	-0.382319
C	 0.0202917387	-0.0359425182	 0.001276727	-0.170601
C	-1.4425784222	-0.4908930323	 0.0126195661	-0.158349
C	-1.5850129094	-2.0125902911	 0.0066650592	-0.337116
C	-3.0197959142	-2.4774558105	 0.0181304632	 0.465116
O	-3.9977853876	-1.7817822214	 0.0322470381	-0.333695
O	-3.0616903811	-3.854775005	 0.0101475856	-0.208789
C	-4.290926632	-4.4643150693	 0.0189824597	 0.11525
N	-4.3250364843	-5.7217024842	 0.0120444997	-0.420049
H	 1.2205258322	 1.7861005659	-0.0010918942	 0.114128
H	-0.3129379851	 1.9347802896	-0.8698390795	 0.117288
H	-0.2966524313	 1.9263457409	 0.8971552882	 0.117292
H	 0.5239858238	-0.4505293306	-0.8821608019	 0.097033
H	 0.540171719	-0.4589052032	 0.8712676117	 0.097028
H	-1.9534770633	-0.0845158506	 0.8932618534	 0.112199
H	-1.9695952768	-0.076130445	-0.8545249151	 0.112141
H	-1.1006013427	-2.4595982529	-0.8709027187	 0.141019
H	-1.0842235226	-2.4677797101	 0.8707635249	 0.141041
H	-5.1172495607	-3.7533549472	 0.0318956769	 0.142268
H	-5.2935600308	-6.0387324581	 0.0203453664	 0.239116
36.8691	70.1681	89.5674	111.5864	120.9924	143.4466	217.5831	242.3216	294.3906	332.3866	458.0141	545.709	566.8774	733.1958	734.396	804.2989	853.1247	905.9496	937.5018	948.1223	1003.6117	1045.4679	1073.5585	1073.7712	1126.0947	1130.6644	1159.265	1235.6399	1267.446	1293.3795	1311.4632	1330.5756	1373.8315	1391.5478	1407.1469	1415.7097	1452.1518	1485.8693	1496.2641	1499.0658	1512.3862	1746.3824	1841.6043	3013.2515	3030.6576	3032.8446	3039.7182	3042.8453	3059.1607	3083.7342	3099.4083	3105.0938	3138.7684	3505.9243
CCCCC(=O)OC=N	CCCCC(=O)O[CH][NH]	
InChI=1S/C6H11NO2/c1-2-3-4-6(8)9-5-7/h5,7H,2-4H2,1H3	InChI=1S/C6H11NO2/c1-2-3-4-6(8)9-5-7/h5,7H,2-4H2,1H3
