14
gdb 132244	3.39397	1.18373	0.87763	1.1105	82.19	-0.2382	-0.0375	0.2007	1209.72	0.100969	-407.553657	-407.546393	-407.545448	-407.585399	28.347	
F	 0.0012488206	 0.0194180775	 0.003388441	-0.080014
C	-0.0082105784	 1.3562302779	 0.0104725628	 0.331276
C	-1.2264491908	 2.0142835838	 0.0306158515	-0.364939
C	-1.2441799402	 3.4173958568	 0.0381640073	 0.187199
C	-0.0292200822	 4.1216314424	 0.0251584946	-0.213012
C	 1.1769474082	 3.4317758758	 0.0050155044	-0.078807
C	 1.2008056309	 2.0390451	-0.0025640857	-0.254972
C	-2.4855500603	 4.1167464624	 0.0588393494	 0.223794
C	-3.5335707894	 4.7093298682	 0.0762873263	-0.405742
H	-2.1476622901	 1.4455182867	 0.040298311	 0.121421
H	-0.0456601253	 5.2045926864	 0.0310261286	 0.110094
H	 2.1114496837	 3.9820095972	-0.0049428928	 0.110336
H	 2.1294013095	 1.4812149084	-0.0182134581	 0.116541
H	-4.4579535462	 5.2315719465	 0.0916427398	 0.196825
139.331	142.1108	242.6698	377.1295	387.5655	465.7752	475.6369	525.8024	552.7887	590.7447	632.7392	643.558	703.9233	726.6987	807.2316	897.2872	908.1635	953.5276	967.6485	1012.162	1097.4394	1159.7016	1185.8653	1287.0554	1303.0052	1341.1296	1460.0475	1513.9666	1619.2558	1645.502	2228.6242	3186.4561	3207.5182	3213.4046	3215.9688	3502.8853
FC1=CC(=CC=C1)C#C	Fc1cc(ccc1)C#C	
InChI=1S/C8H5F/c1-2-7-4-3-5-8(9)6-7/h1,3-6H	InChI=1S/C8H5F/c1-2-7-4-3-5-8(9)6-7/h1,3-6H
