18
gdb 77708	3.16278	1.30718	1.09076	0.9738	72.44	-0.2502	0.0451	0.2953	1132.7194	0.147009	-439.014434	-439.006174	-439.00523	-439.047292	31.861	
O	 0.4631265428	 0.792675195	 0.6436509684	-0.425429
C	 0.1600644855	-0.4524443522	 0.063401492	-0.022867
C	-1.3292884463	-0.829676171	-0.1155881005	 0.303396
C	-2.2990825143	-1.245832402	 0.910827145	-0.312824
N	-2.4115964716	 0.0794633404	 0.258292884	-0.361587
C	-1.0897372461	-1.2912198778	-1.5599536841	-0.396028
C	 0.2990064493	-0.6399134237	-1.4571796048	 0.406156
C	 0.9887427742	 0.2437832264	-2.4010873668	-0.270668
O	 1.467445469	-1.0781307884	-2.1156987911	-0.270208
H	 0.1164237225	 1.4805809991	 0.0638250299	 0.284722
H	 0.7300478689	-1.2006955445	 0.6233182551	 0.109526
H	-3.0928598521	-1.9441483601	 0.6590405444	 0.121795
H	-1.9641923566	-1.2892117312	 1.9446328656	 0.118297
H	-2.0294721019	 0.7856144554	 0.8883902547	 0.228988
H	-1.0315338965	-2.3781797624	-1.6684418579	 0.12119
H	-1.7723249737	-0.8847174465	-2.3091667887	 0.122301
H	 0.5777077711	 0.3889672122	-3.3992121635	 0.121695
H	 1.617540126	 1.0515290913	-2.0279725216	 0.121549
60.3548	203.41	218.9409	236.9821	275.4961	332.1617	359.225	373.7112	450.5947	515.4483	577.657	710.7076	799.4496	820.469	860.3368	883.9624	901.2356	939.4019	941.0049	992.2262	1049.2963	1074.3902	1104.3638	1112.3493	1126.9187	1141.719	1161.9773	1186.4371	1207.4711	1239.2266	1264.0285	1288.2189	1297.0508	1403.8183	1422.3888	1437.7265	1475.3177	1511.8449	1531.4755	3061.1797	3069.514	3080.3134	3102.3505	3120.2453	3169.7427	3188.0484	3452.6458	3796.8299
OC1C2(CN2)CC11CO1	O[C@H]1[C@]2(CN2)C[C@]21CO2	
InChI=1S/C6H9NO2/c8-4-5(2-7-5)1-6(4)3-9-6/h4,7-8H,1-3H2	InChI=1S/C6H9NO2/c8-4-5(2-7-5)1-6(4)3-9-6/h4,7-8H,1-3H2/t4-,5+,6+/m0/s1
