15
gdb 70809	2.97117	1.56442	1.23164	3.8111	65.55	-0.2403	0.0009	0.2412	988.4894	0.110879	-457.719086	-457.711409	-457.710465	-457.75077	30.284	
O	-0.1123149841	 1.3194135977	-0.0620577926	-0.455246
C	 0.0183214041	-0.0486313684	-0.0391933813	 0.406982
C	 0.8520846801	-0.9101061528	-0.9915794992	-0.378901
C	-0.0059739255	-2.1027942069	-0.4658031891	 0.268686
O	-0.2110459791	-3.250011395	-1.1848192528	-0.459466
C	-1.0886576813	-1.0284337333	 0.0482517475	-0.219499
C	-0.1577159988	-0.8466226193	 1.2752704644	-0.281022
C	 0.4038809915	-2.2132124927	 1.0229067554	 0.413736
O	 0.8020666187	-3.1092054941	 1.7089546844	-0.334085
H	 0.6690567281	 1.7096139563	 0.3464230726	 0.293232
H	 0.6075261902	-0.6748412996	-2.0339295927	 0.105526
H	 1.9378398704	-0.970596044	-0.8573790466	 0.108926
H	-0.2989622183	-3.0286582624	-2.1180699693	 0.290619
H	-2.1658080217	-0.9786470337	 0.0211400955	 0.124244
H	-0.3989931645	-0.3503866817	 2.2047471937	 0.116268
144.3981	227.5526	258.6448	272.4364	300.272	334.2671	419.0195	450.5153	505.3142	544.2091	638.1377	707.3554	719.5909	781.6742	812.6998	841.0995	856.66	923.8935	962.7958	1001.1389	1019.8535	1061.7328	1102.1133	1112.4947	1174.3045	1195.0633	1251.8841	1287.2338	1311.8976	1415.1759	1447.1756	1506.007	1886.8724	3029.7942	3089.8335	3226.3803	3251.448	3791.2763	3807.8803
OC12CC3(O)C1C2C3=O	O[C@]12C[C@]3(O)[C@H]1[C@H]2C3=O	
InChI=1S/C6H6O3/c7-4-2-3-5(2,8)1-6(3,4)9/h2-3,8-9H,1H2	InChI=1S/C6H6O3/c7-4-2-3-5(2,8)1-6(3,4)9/h2-3,8-9H,1H2/t2-,3-,5-,6-/m0/s1
