15
gdb 97081	3.10363	1.17796	0.99137	2.5875	68.43	-0.2733	-0.0055	0.2678	1197.3714	0.112053	-453.952886	-453.944331	-453.943387	-453.987189	29.477	
C	-0.0608125191	 1.4455985159	-0.032506315	-0.3397
N	-0.0306834639	-0.0012743831	 0.1095112958	-0.306486
C	-1.0882694808	-0.6660787322	 0.1039919245	 0.412691
C	-1.2182559758	-2.1702940182	 0.2097089252	-0.1966
O	-2.6089373111	-2.3730408956	 0.4664760536	-0.22961
C	-3.2662689738	-1.2617471586	-0.0685083241	 0.048656
O	-2.3790876244	-0.1614180769	 0.0084822038	-0.232329
C	-3.6620391359	-1.4879635126	-1.4880924781	 0.281615
N	-3.982875437	-1.6770366051	-2.5810272966	-0.307423
H	 0.6127148671	 1.7314112838	-0.8467462027	 0.138116
H	-1.0557581256	 1.8581455984	-0.2306803079	 0.130315
H	 0.3351361028	 1.8988676452	 0.8827468099	 0.136897
H	-0.9090097745	-2.6581671147	-0.7239545097	 0.149552
H	-0.6446702083	-2.5802979939	 1.0411392391	 0.159921
H	-4.1580344297	-1.0505341924	 0.5276466323	 0.154386
64.7857	69.7233	107.4776	200.1679	232.1711	243.6209	287.1078	478.137	514.1336	560.3011	587.7184	692.2016	808.1482	837.3844	922.8984	983.7646	1004.1851	1034.1685	1061.8586	1099.0284	1134.2648	1159.4143	1209.3248	1219.6026	1327.9517	1360.2538	1375.6826	1442.141	1492.3538	1497.3083	1499.4096	1843.7379	2361.2378	3026.1449	3029.9793	3090.0078	3091.9551	3100.9435	3134.9978
CN=C1COC(O1)C#N	CN=C1CO[C@@H](O1)C#N	
InChI=1S/C5H6N2O2/c1-7-4-3-8-5(2-6)9-4/h5H,3H2,1H3	InChI=1S/C5H6N2O2/c1-7-4-3-8-5(2-6)9-4/h5H,3H2,1H3/t5-/m0/s1
