20
gdb 40946	3.53302	1.29801	1.15497	1.935	79.97	-0.2423	0.026	0.2683	1128.1176	0.173461	-403.157078	-403.149371	-403.148427	-403.189282	30.523	
C	 0.1248300116	 1.3299949673	-0.5429317106	-0.216442
C	 1.4202555487	 1.6152641965	 0.2618735283	-0.265997
C	 1.371810351	 0.1658311699	 0.8280992028	 0.356528
C	-0.1219737818	 0.10089451	 0.3703612634	-0.255666
C	 2.2861072276	-0.809880676	 0.0778299065	-0.287173
C	 2.1946062372	-2.1785792729	 0.737121711	-0.079822
O	 2.5029779704	-2.0954420364	 2.1369094135	-0.223739
C	 2.0978872522	-0.9612047294	 2.7556941978	 0.112588
N	 1.5701286882	 0.0804202157	 2.2671497857	-0.3114
H	-0.6413913948	 2.1075044642	-0.5439139062	 0.101215
H	 0.326859954	 1.0485584212	-1.5800627057	 0.099153
H	 2.3183462543	 1.9000716592	-0.2936723432	 0.089376
H	 1.2565256245	 2.3322434461	 1.069301302	 0.112522
H	-0.7828128286	 0.3353927634	 1.2077640837	 0.113422
H	-0.4581815393	-0.8315127513	-0.094489914	 0.087481
H	 2.015530491	-0.8876081765	-0.980601875	 0.103138
H	 3.3215766919	-0.4515015308	 0.1272266792	 0.110847
H	 1.1838114289	-2.5950277785	 0.6323337692	 0.113298
H	 2.905178343	-2.8943682256	 0.3174114909	 0.118008
H	 2.29437292	-1.037705736	 3.8239712407	 0.122663
99.2764	126.5295	210.6805	289.5502	343.5381	356.2852	424.713	531.5827	576.4568	626.7843	705.1114	788.6404	797.2013	852.9903	879.5557	899.3068	937.5338	941.8427	961.0313	979.8265	1000.4555	1020.8474	1049.2238	1127.5114	1145.4986	1173.3294	1205.4787	1208.8186	1247.045	1252.8316	1271.3625	1277.3978	1293.9158	1303.3616	1363.1947	1399.4858	1417.3918	1467.7584	1478.1241	1483.3307	1504.8922	1507.8153	1715.6272	3017.6697	3032.6433	3046.5181	3055.2216	3064.6604	3080.1399	3101.2225	3103.0435	3115.4102	3127.2307	3153.617
C1CC2(C1)CCOC=N2	C1CC2(C1)CCOC=N2	
InChI=1S/C7H11NO/c1-2-7(3-1)4-5-9-6-8-7/h6H,1-5H2	InChI=1S/C7H11NO/c1-2-7(3-1)4-5-9-6-8-7/h6H,1-5H2
