17
gdb 42320	3.31027	1.15149	0.98188	3.1889	73.91	-0.2402	-0.0902	0.15	1208.2224	0.137185	-418.029567	-418.02105	-418.020106	-418.063928	30.431	
O	-0.2115206715	-0.1265303719	-0.1787595764	-0.27967
C	-0.171544715	 1.0751715647	-0.0837411349	 0.280941
C	 1.096919283	 1.7989248718	-0.314954176	 0.241071
N	 2.0766446639	 2.3853806078	-0.4982978144	-0.298543
C	-1.3536022381	 1.9578099539	 0.2883712405	-0.069379
C	-1.7688633646	 2.8801067014	-0.8984563832	-0.242359
C	-2.8873416276	 2.0734463184	-1.5740546296	-0.207612
C	-3.5899377705	 1.4335913502	-0.3679306848	-0.153586
N	-2.5298626194	 1.1653263019	 0.6265160085	-0.311814
H	-1.0086317894	 2.5751141083	 1.1325178268	 0.113905
H	-2.1586724661	 3.8189298998	-0.4947830143	 0.123677
H	-0.9340720441	 3.1288801897	-1.5580918926	 0.126694
H	-3.5473991379	 2.6958126515	-2.183423618	 0.107963
H	-2.4598007557	 1.2989814633	-2.2208682197	 0.112909
H	-4.323612994	 2.1316258672	 0.0565594691	 0.10745
H	-4.1239949175	 0.5122641293	-0.6146856928	 0.11061
H	-2.2757717154	 0.1834683028	 0.622052092	 0.237743
41.7403	68.6128	130.9761	184.8861	262.1862	287.7043	331.3123	452.5413	570.3307	576.1296	666.6372	696.2291	769.6864	806.3267	886.0388	903.2087	922.0342	944.3305	971.0287	1043.0216	1068.4928	1106.805	1161.9858	1173.9737	1211.7358	1251.5389	1283.3882	1317.6731	1338.7844	1347.659	1377.3815	1482.1032	1489.3201	1496.4029	1517.6184	1786.6809	2335.3747	2981.5927	3014.9321	3045.8837	3064.5258	3092.218	3104.0687	3115.4314	3536.8239
O=C(C#N)C1CCCN1	O=C(C#N)[C@H]1CCCN1	
InChI=1S/C6H8N2O/c7-4-6(9)5-2-1-3-8-5/h5,8H,1-3H2	InChI=1S/C6H8N2O/c7-4-6(9)5-2-1-3-8-5/h5,8H,1-3H2/t5-/m1/s1
