14
gdb 124377	5.16649	1.04166	0.87155	2.6918	64.88	-0.2502	-0.0114	0.2388	1246.9504	0.101019	-470.033146	-470.025165	-470.024221	-470.066944	27.904	
C	-0.2334492446	 1.4015581783	 0.1614753912	-0.484251
C	 0.337891883	 0.106224059	-0.3491653896	 0.419859
O	 1.4360833392	-0.0583678097	-0.8080475912	-0.327125
O	-0.5882595658	-0.887600877	-0.2163399646	-0.241464
C	-0.2973758054	-2.1592472975	-0.6130512029	 0.387485
C	 0.8231160831	-2.7326396986	-1.1718963952	-0.175701
N	 0.4413488004	-4.0262002848	-1.3151654773	-0.159759
N	-0.8099026681	-4.2384114628	-0.8821611119	-0.104866
N	-1.263676723	-3.0937073552	-0.45134547	-0.257936
H	 0.5087018764	 2.1909990039	 0.0531615328	 0.153236
H	-1.1388579108	 1.6561941379	-0.3965030179	 0.161435
H	-0.5195975359	 1.2949544662	 1.211598864	 0.161449
H	 1.7831147058	-2.3484130944	-1.4545095338	 0.180361
H	 0.9702179657	-4.7972296153	-1.6910896237	 0.287278
57.3282	72.8017	101.0824	179.9152	352.605	360.4088	384.9942	580.6343	598.0559	598.2937	687.5244	738.2918	762.2426	793.5217	931.8406	985.803	1012.8257	1048.8636	1062.7391	1071.2379	1134.8011	1250.1422	1278.1554	1330.3096	1353.0372	1397.9129	1467.9461	1473.6289	1500.0124	1586.6215	1835.2079	3059.2041	3124.1985	3173.6054	3340.0906	3656.1682
CC(=O)OC1=CNN=N1	CC(=O)Oc1c[nH]nn1	
InChI=1S/C4H5N3O2/c1-3(8)9-4-2-5-7-6-4/h2H,1H3,(H,5,6,7)	InChI=1S/C4H5N3O2/c1-3(8)9-4-2-5-7-6-4/h2H,1H3,(H,5,6,7)
