21
gdb 121763	6.88108	0.49783	0.47101	0.1602	76.9	-0.2485	-0.0136	0.235	2304.4143	0.17863	-461.364579	-461.353185	-461.352241	-461.40318	38.057	
C	-0.088344402	 1.3200825001	 0.1402276162	-0.228201
O	-0.0075032121	-0.0804503547	 0.0298231864	-0.235673
C	 0.6547154234	-0.4973170038	-1.1448573193	-0.051708
C	 0.6775835115	-2.0184346571	-1.1486060704	-0.312063
C	 1.367661137	-2.6046766308	-2.3687392642	 0.360181
O	 1.8418962599	-1.9002073628	-3.2346915824	-0.306563
C	 1.4313704465	-4.1202905434	-2.4450519721	-0.2794
C	 2.1350783765	-4.6322101455	-3.6930371252	-0.074571
O	 2.1192654314	-6.0509471998	-3.6288582904	-0.424661
H	 0.9092415054	 1.7865596893	 0.1709121808	 0.104587
H	-0.6467029791	 1.7652975326	-0.6986646543	 0.104587
H	-0.6123120262	 1.5458819036	 1.0722474758	 0.125725
H	 0.139423442	-0.1210289571	-2.042318865	 0.100217
H	 1.6810670522	-0.0999844684	-1.1807011245	 0.100215
H	 1.1763263504	-2.3889864268	-0.2436363457	 0.131669
H	-0.3466145163	-2.409800086	-1.0950060023	 0.131674
H	 1.9349414872	-4.5030287674	-1.5475947689	 0.131262
H	 0.4116038338	-4.5244016454	-2.3976959103	 0.131221
H	 1.6175595492	-4.2582202686	-4.5877433083	 0.101899
H	 3.1599826458	-4.2364703591	-3.7269016666	 0.101931
H	 2.5608008934	-6.3891699287	-4.4131351594	 0.287674
38.9278	47.9731	86.0541	87.2161	97.3122	123.6232	195.2413	235.3681	273.2395	279.84	323.3228	392.5908	475.0403	495.3357	690.3608	724.3751	818.0283	887.7139	976.5657	977.0884	1002.9778	1054.0534	1084.5859	1113.6569	1123.3012	1165.4684	1179.7159	1204.6856	1231.3378	1232.267	1253.5949	1295.2378	1310.3914	1319.2385	1365.9062	1423.5369	1446.9369	1458.4562	1472.0625	1483.4032	1485.304	1505.1483	1523.1103	1526.5693	1793.5336	2966.469	2982.5765	2997.4573	3006.5722	3013.2733	3025.1244	3026.8088	3036.389	3060.3583	3070.4845	3113.1265	3831.3009
COCCC(=O)CCO	COCCC(=O)CCO	
InChI=1S/C6H12O3/c1-9-5-3-6(8)2-4-7/h7H,2-5H2,1H3	InChI=1S/C6H12O3/c1-9-5-3-6(8)2-4-7/h7H,2-5H2,1H3
