22
gdb 110417	2.89818	1.28438	1.14303	1.4559	85.9	-0.2297	0.094	0.3238	1221.2789	0.194303	-367.159649	-367.15092	-367.149975	-367.192866	34.129	
C	 0.0380341977	 1.5042970473	-0.0632634902	-0.37819
C	-0.1455679419	-0.0153820988	 0.0285862294	-0.209791
C	 0.6676844007	-0.6176930233	 1.164521259	 0.104409
C	 0.7577381993	-2.1358779729	 1.4286846832	-0.119604
C	 1.3193563175	-2.7102950677	 0.1021955302	-0.29549
C	 2.5724175376	-1.8799815782	 0.395959234	 0.352295
C	 3.8895947623	-1.9132716841	-0.3118363818	-0.498537
C	 2.2482087112	-1.8295803107	 1.8435103492	-0.101486
N	 2.1697974793	-0.5714919641	 1.0451876666	-0.196387
H	 1.0941604274	 1.7561135899	-0.1969649698	 0.136771
H	-0.5236593565	 1.9231078294	-0.9036484896	 0.107334
H	-0.3076422424	 1.999903545	 0.8506519289	 0.111938
H	-1.2045258569	-0.2581465427	 0.1915543931	 0.093751
H	 0.1356494567	-0.4740415696	-0.9251046805	 0.098611
H	 0.4276929428	-0.0951467565	 2.099180643	 0.072449
H	 0.0024862045	-2.675219056	 1.9984835259	 0.06684
H	 1.5484904292	-3.7754288738	 0.2002417899	 0.101066
H	 0.7594653862	-2.5439317087	-0.8238364161	 0.092179
H	 3.7946141234	-1.5264534965	-1.3329889559	 0.121723
H	 4.6228402489	-1.2949649906	 0.2128563227	 0.132532
H	 4.2764089173	-2.9362811886	-0.3735802286	 0.115613
H	 2.8306133858	-1.9429398388	 2.7490694772	 0.091975
76.377	149.3522	175.5284	204.7192	234.1218	300.3927	310.2958	389.2125	492.6046	549.7277	599.4386	691.972	712.9482	793.6572	807.0886	846.8401	903.0727	908.5201	923.8946	958.8149	981.9288	992.7457	1006.9843	1030.1743	1057.6537	1081.8418	1121.3751	1139.0918	1144.4171	1166.5559	1175.8931	1210.814	1244.7744	1268.5685	1294.0273	1308.0693	1343.9674	1393.8729	1406.8136	1419.9614	1433.2222	1481.1862	1485.9325	1492.0926	1498.565	1505.3428	1508.9163	3020.1551	3024.7393	3029.6879	3035.7043	3043.0033	3072.5646	3089.1713	3096.0938	3103.3262	3115.7145	3116.637	3124.2241	3194.8665
CCC1C2CC3(C)C2N13	CC[C@H]1[C@H]2C[C@]3(C)[C@H]2N13	
InChI=1S/C8H13N/c1-3-6-5-4-8(2)7(5)9(6)8/h5-7H,3-4H2,1-2H3	InChI=1S/C8H13N/c1-3-6-5-4-8(2)7(5)9(6)8/h5-7H,3-4H2,1-2H3/t5-,6+,7+,8-,9?/m1/s1
