21
gdb 95505	2.15022	1.61381	0.98633	1.8149	81.98	-0.2451	0.017	0.2621	1251.8859	0.181754	-424.232877	-424.223717	-424.222773	-424.266817	34.688	
C	-0.3737385853	 1.3596916064	 0.0584315399	-0.400111
C	 0.0318963682	-0.1009454053	-0.0243537928	 0.206822
O	 0.9468028668	-0.2227846835	-1.0853512372	-0.235541
C	 1.0796636996	-1.5071182628	-1.6523623011	-0.134579
C	 1.3753820807	-2.6583650243	-0.7315709207	-0.087139
C	 1.1752673103	-2.7870031775	 0.5788446237	-0.050854
C	 0.5978829027	-1.8136377131	 1.5776492312	 0.075406
C	 1.324778098	-1.8922114442	 2.9211585677	-0.397301
O	 0.6239327895	-0.4457842212	 1.2014931469	-0.250245
H	 0.5147612762	 1.9678913142	 0.2463398245	 0.136672
H	-0.8292451442	 1.6794019265	-0.8814565753	 0.119444
H	-1.0833949162	 1.5083328961	 0.8753672753	 0.118824
H	-0.8451133226	-0.7483109367	-0.2114497135	 0.052834
H	 0.1695284821	-1.7628475408	-2.2289956075	 0.100692
H	 1.8876896076	-1.4167679567	-2.3874449975	 0.119044
H	 1.7565912696	-3.5285678351	-1.2654988944	 0.091484
H	 1.4085853099	-3.7540421654	 1.0224678422	 0.08888
H	-0.4563964159	-2.1121181342	 1.7412674336	 0.077827
H	 2.3755754813	-1.6156483603	 2.7971516575	 0.131435
H	 0.8655627268	-1.202146995	 3.6330426098	 0.123552
H	 1.2741175251	-2.9048982371	 3.3310372479	 0.112854
56.0546	132.4818	190.994	207.9373	230.5322	268.9764	302.1471	370.9423	388.0913	413.8095	513.1173	553.9529	623.7586	714.9851	781.6536	829.7396	846.5863	882.6869	941.0334	981.8427	1003.0893	1030.248	1060.0388	1087.7967	1110.4602	1135.7475	1158.1651	1169.7267	1200.3518	1272.782	1288.5533	1329.6781	1352.0282	1385.9672	1397.0741	1406.3907	1416.4037	1423.2737	1431.9359	1480.5982	1483.1959	1485.8988	1490.5341	1499.9224	1744.2003	2904.2512	2918.5768	2931.7959	3047.0839	3055.1712	3055.9254	3119.1133	3123.9245	3129.3534	3137.1971	3138.302	3144.8516
CC1OCC=CC(C)O1	C[C@H]1OCC=C[C@@H](C)O1	
InChI=1S/C7H12O2/c1-6-4-3-5-8-7(2)9-6/h3-4,6-7H,5H2,1-2H3	InChI=1S/C7H12O2/c1-6-4-3-5-8-7(2)9-6/h3-4,6-7H,5H2,1-2H3/t6-,7+/m1/s1
