16
gdb 31434	2.96816	1.34783	0.93662	2.6605	74.85	-0.2362	-0.0527	0.1835	1197.1581	0.127744	-430.28869	-430.280572	-430.279628	-430.321996	29.64	
N	 0.2231458031	 1.4265719286	-0.0380127112	-0.491636
C	-0.0030103364	-0.0052147789	 0.0077948619	-0.241929
C	-1.4398531618	-0.489185758	 0.0103948924	 0.320243
N	-2.4013158463	 0.3823299466	-0.026983238	-0.337014
C	-3.7163735934	-0.0679166408	-0.0242278436	 0.411464
N	-4.7783255666	 0.632542432	-0.0568685654	-0.561488
N	-3.8601444764	-1.4734766392	 0.0204305088	-0.285887
C	-2.7933901071	-2.2882622664	 0.0569495668	 0.111459
N	-1.5659725852	-1.8701997013	 0.0545312787	-0.314935
H	-0.239774962	 1.8072951329	-0.8589993057	 0.233092
H	-0.2562313335	 1.8611927175	 0.7459318708	 0.233129
H	 0.4971912881	-0.4896828643	-0.8411341604	 0.13672
H	 0.4805578677	-0.4313776545	 0.8967257575	 0.136727
H	-4.5200972673	 1.6175612845	-0.0867843536	 0.226061
H	-4.8060310699	-1.8284262447	 0.0233626972	 0.279532
H	-3.0051190229	-3.3553752239	 0.0899725438	 0.144463
64.3124	123.091	157.2596	186.6961	229.9069	406.001	408.0594	477.0941	567.5092	591.5932	612.8738	708.7616	775.3406	777.8821	859.0512	911.2777	914.2184	959.0805	979.8388	998.353	1105.5434	1139.5203	1176.0235	1181.1937	1239.0059	1326.3141	1378.1176	1385.5206	1412.1426	1448.4259	1481.1093	1577.7369	1673.1776	1678.5975	1743.3158	3027.9441	3057.1586	3158.2876	3492.939	3512.2705	3558.5855	3612.114
NCC1=NC(=N)NC=N1	NC[C@@H]1N=C([NH])NC=N1	
InChI=1S/C4H7N5/c5-1-3-7-2-8-4(6)9-3/h2H,1,5H2,(H2,6,7,8,9)	InChI=1S/C4H8N5/c5-1-3-7-2-8-4(6)9-3/h2-3,6H,1,5H2,(H,7,8,9)/t3-/m0/s1
