20
gdb 89683	2.7053	1.28547	1.04904	3.218	82.98	-0.2369	-0.0271	0.2098	1221.7096	0.169324	-403.130746	-403.121496	-403.120552	-403.164429	34.726	
C	-0.1036284667	 1.5673386643	 0.079264349	-0.411876
C	 0.0500567957	 0.0566767896	-0.0270377757	 0.000247
C	 1.1533678295	-0.5230719858	-0.9854767185	-0.307595
C	 1.7632337772	-1.2563736459	 0.2021134791	 0.21543
N	 2.0985686332	-0.2153101054	 1.2194414645	-0.392918
C	 0.7182537744	-0.6812656976	 1.15632558	 0.261544
C	 0.0132833362	-1.2767017962	 2.3379477039	-0.50487
C	 2.3443838855	-2.596056215	 0.2543262191	 0.048103
O	 2.4930905575	-3.3207486133	-0.7028737899	-0.27003
H	 0.8513361204	 2.030566832	 0.3410861737	 0.138571
H	-0.4420881554	 1.9901465442	-0.8725538255	 0.117358
H	-0.8395900892	 1.8409811564	 0.8435397912	 0.111007
H	-0.9133260234	-0.4145565891	-0.2462603862	 0.078432
H	 0.7597833156	-1.2013069469	-1.7433326166	 0.124711
H	 1.8137191124	 0.2113631394	-1.4521616083	 0.111235
H	 2.5552060223	-0.6783403058	 2.0076183932	 0.229727
H	-0.3320579797	-0.4846521237	 3.0132813549	 0.137255
H	-0.8631705062	-1.8524117993	 2.0246433801	 0.135501
H	 0.6679998736	-1.9402844912	 2.9115530529	 0.124597
H	 2.633565887	-2.9264512503	 1.2814375891	 0.053569
97.4381	141.2233	165.5975	196.4656	222.0826	228.3072	290.6288	314.7687	386.455	458.7205	484.4084	567.8064	621.2118	686.7151	771.0214	785.0643	828.8599	892.2041	924.8294	1002.4854	1014.4684	1054.8798	1080.6184	1085.7276	1105.9774	1123.9676	1132.0727	1182.1032	1233.5492	1245.4274	1311.8443	1348.9059	1379.1953	1402.0255	1409.0997	1416.7251	1449.2609	1481.6046	1483.7668	1493.2938	1498.3563	1504.3542	1793.411	2833.7724	3028.1196	3032.7193	3055.4316	3075.1859	3090.2641	3094.4875	3107.952	3121.4989	3140.1048	3448.1589
CC1CC2(NC12C)C=O	C[C@H]1C[C@]2(N[C@@]12C)C=O	
InChI=1S/C7H11NO/c1-5-3-7(4-9)6(5,2)8-7/h4-5,8H,3H2,1-2H3	InChI=1S/C7H11NO/c1-5-3-7(4-9)6(5,2)8-7/h4-5,8H,3H2,1-2H3/t5-,6-,7-/m0/s1
