19
gdb 61021	3.54096	1.05423	0.90825	2.5972	76.	-0.2546	-0.0352	0.2194	1295.9202	0.158492	-422.999721	-422.991187	-422.990243	-423.033423	32.224	
O	 0.9370042651	-0.0871671237	-1.0865849803	-0.436482
C	-0.0115069306	-0.0254760231	-0.0541620988	 0.029128
C	-1.24314703	-0.8227359664	-0.4209857208	 0.13337
O	-1.3264764403	-1.4216737456	-1.4676566819	-0.267528
C	 0.5881855938	-0.5420310369	 1.2640711534	 0.002678
C	 1.8171715271	 0.2282880136	 1.8554821469	-0.25717
C	 1.0604269841	 0.3765561065	 3.1822863101	-0.036182
C	-0.2111105154	 1.1393990728	 2.9644941559	-0.276514
C	-0.1671855116	-0.3188029865	 2.5831895922	-0.082216
H	 0.5345137699	-0.6384216171	-1.7764544495	 0.293187
H	-0.3448823521	 1.0167691154	 0.0962620029	 0.088642
H	-2.0631314424	-0.8366965217	 0.3248500305	 0.102532
H	 0.8431346863	-1.5973953315	 1.1296895698	 0.085913
H	 2.7056745876	-0.4017729194	 1.9156221104	 0.111291
H	 2.0868588088	 1.1630044656	 1.3541320257	 0.10816
H	 1.490783357	 0.2484585566	 4.1676148849	 0.089849
H	-0.7887926774	 1.3537183631	 3.8579715217	 0.114453
H	-0.2593201934	 1.9236076856	 2.2125846848	 0.10896
H	-0.8310368767	-1.0382511972	 3.0479489923	 0.087931
60.4284	100.4795	146.8912	189.1486	300.2843	351.4964	364.6725	397.1952	458.5947	495.9857	685.7232	761.207	780.4346	799.928	819.0221	895.6028	918.4088	949.9715	961.6629	997.5373	1018.7479	1033.6141	1061.6197	1075.4609	1087.4953	1126.2588	1141.7294	1167.4718	1204.71	1239.3919	1260.0556	1263.4368	1297.0971	1306.5535	1366.0669	1374.0096	1392.5861	1435.6904	1484.1172	1499.2484	1806.8004	2933.5946	2956.9522	3057.3193	3062.5424	3110.0786	3121.1711	3173.5734	3187.5331	3201.9999	3688.4896
OC(C=O)C1CC2CC12	O[C@@H](C=O)[C@H]1C[C@H]2C[C@@H]12	
InChI=1S/C7H10O2/c8-3-7(9)6-2-4-1-5(4)6/h3-7,9H,1-2H2	InChI=1S/C7H10O2/c8-3-7(9)6-2-4-1-5(4)6/h3-7,9H,1-2H2/t4-,5-,6+,7+/m1/s1
