22
gdb 11620	4.93372	0.89634	0.84735	0.8815	79.84	-0.2454	0.0874	0.3328	1469.5159	0.198447	-350.191914	-350.182247	-350.181303	-350.227117	35.033	
C	 0.211319932	 1.4114643242	 0.3304961737	-0.392993
C	-0.0219554136	-0.0562465304	-0.0436929654	 0.165055
C	-1.4729707116	-0.3233594009	-0.4295822452	-0.386401
O	 0.7684934422	-0.4575609693	-1.1555801244	-0.258452
C	 2.1474764865	-0.6240638499	-0.8917914317	-0.074294
C	 2.7862131731	-1.3120685483	-2.0675766938	 0.018397
C	 3.2343740066	-0.5077630449	-3.2594616833	-0.247055
C	 4.2576398708	-1.1175802317	-2.3346639542	-0.274295
H	 1.2462689975	 1.5952843724	 0.6329493238	 0.114747
H	-0.017818023	 2.0591780626	-0.522171534	 0.12051
H	-0.4334647989	 1.6999512618	 1.1668867882	 0.112408
H	 0.2405075186	-0.6873701053	 0.823851521	 0.059547
H	-1.753488992	 0.286538635	-1.294324421	 0.121678
H	-1.6087009277	-1.3748683247	-0.6956380158	 0.118903
H	-2.1459946815	-0.0805520065	 0.3981776971	 0.109281
H	 2.6444016398	 0.3451161041	-0.7194434323	 0.079247
H	 2.2851487449	-1.2237776882	 0.0250178722	 0.081408
H	 2.3784350896	-2.2972137018	-2.2742752515	 0.087049
H	 3.1084693586	-0.9383250673	-4.2464285301	 0.111605
H	 3.0930576644	 0.5673519515	-3.2225999958	 0.112723
H	 4.8104583195	-0.4520266982	-1.6793256636	 0.10936
H	 4.8311864142	-1.9687984641	-2.6838021539	 0.111572
42.0481	63.9094	112.1164	163.9105	207.565	250.054	275.4581	309.6261	370.7437	425.0641	468.6937	513.7525	773.6321	811.4286	822.8526	856.3074	915.4064	925.2493	932.3646	945.4967	971.4359	1039.3734	1059.0706	1077.2538	1106.3823	1136.2617	1150.7797	1174.6705	1194.8421	1197.3897	1200.7594	1228.9163	1286.11	1354.6842	1368.3638	1388.7697	1397.0164	1413.5558	1451.3779	1470.8216	1480.6217	1486.2956	1495.2327	1505.5033	1509.7844	1521.534	2941.3481	2949.7361	2978.2422	3036.1132	3042.0009	3106.1283	3112.2264	3115.2065	3121.8862	3130.7181	3135.9836	3153.1549	3208.6138	3224.1346
CC(C)OCC1CC1	CC(C)OCC1CC1	
InChI=1S/C7H14O/c1-6(2)8-5-7-3-4-7/h6-7H,3-5H2,1-2H3	InChI=1S/C7H14O/c1-6(2)8-5-7-3-4-7/h6-7H,3-5H2,1-2H3
