16
gdb 6947	2.69544	2.2954	1.66031	3.3635	66.02	-0.2397	-0.0246	0.2151	837.0201	0.128528	-383.765552	-383.75741	-383.756465	-383.798309	29.849	
C	-0.1095253831	 1.5665530953	 0.017937879	-0.441759
C	-0.0156628492	 0.0426273352	-0.0580341409	 0.232251
O	-1.3164556518	-0.5480608942	-0.002685528	-0.460985
C	 0.8084627543	-0.4857204842	-1.2086030962	-0.104619
C	 1.8248487052	-1.2549668315	-0.817009351	-0.082507
C	 1.9113890968	-1.3990946688	 0.6785967696	-0.375108
C	 0.7538915885	-0.5254010147	 1.1744843736	 0.398669
O	 0.4778955986	-0.283494741	 2.3168630447	-0.305353
H	 0.8808407299	 2.0316657166	 0.0014659834	 0.123698
H	-0.6754623353	 1.9579880195	-0.8362919745	 0.105271
H	-0.6181455827	 1.8494455125	 0.9431160343	 0.148289
H	-1.8597359141	-0.1246243154	-0.676498062	 0.280058
H	 0.5627842956	-0.2553006491	-2.240290929	 0.096028
H	 2.5275833785	-1.7395475876	-1.4857315622	 0.105504
H	 1.7840452849	-2.4325607263	 1.0262418384	 0.143488
H	 2.8577824939	-1.0472744264	 1.1079561107	 0.137076
43.054	136.4868	218.1898	236.5127	245.7202	296.8966	361.9986	475.1679	517.1628	596.3996	617.2488	677.9023	734.4618	763.5248	890.6149	947.5816	956.0868	971.2388	991.7345	1049.5512	1114.0574	1132.3682	1143.8097	1167.6745	1212.3807	1290.1288	1351.5025	1389.2733	1403.4084	1444.2377	1484.8137	1492.6552	1680.4488	1864.2289	3026.7778	3029.506	3058.2743	3096.623	3128.4566	3176.3201	3201.959	3800.6607
CC1(O)C=CCC1=O	C[C@@]1(O)C=CCC1=O	
InChI=1S/C6H8O2/c1-6(8)4-2-3-5(6)7/h2,4,8H,3H2,1H3	InChI=1S/C6H8O2/c1-6(8)4-2-3-5(6)7/h2,4,8H,3H2,1H3/t6-/m1/s1
