18
gdb 64137	3.18246	1.19815	1.11589	3.1087	72.	-0.2802	0.0073	0.2875	1160.0252	0.146163	-439.10821	-439.099164	-439.09822	-439.142515	33.164	
C	-0.2298818515	 1.6185210224	 0.3360750315	-0.420675
C	 0.0923412465	 0.1743319306	-0.0046014824	 0.438931
C	-1.1504727454	-0.6642322992	-0.3112245262	-0.419294
O	 1.014464486	 0.1599659273	-1.0847655052	-0.266339
C	 1.7950000948	-1.0060216652	-0.9545790762	-0.141208
C	 1.8332694925	-1.2379243442	 0.5881806137	-0.045751
O	 0.8156050476	-0.3995097669	 1.1000356826	-0.281067
C	 1.6108708555	-2.6484706215	 0.9471437155	 0.272374
N	 1.4508144402	-3.7610068675	 1.2148514845	-0.319925
H	 0.694937569	 2.1620136877	 0.537958077	 0.130753
H	-0.7492686951	 2.0936122656	-0.4997219006	 0.131323
H	-0.8714608965	 1.6609833386	 1.2191857377	 0.13339
H	-1.6877112181	-0.2413729281	-1.1643195194	 0.128435
H	-0.8843399935	-1.6984458297	-0.5447693802	 0.129959
H	-1.8153403558	-0.6763489372	 0.5558898631	 0.13466
H	 1.3499410517	-1.8664156786	-1.4694741747	 0.125078
H	 2.7853634062	-0.8152658039	-1.3722700817	 0.133728
H	 2.7923229059	-0.9256480802	 1.0169442309	 0.135629
30.782	138.9894	184.5352	195.914	237.1965	245.3702	319.7795	340.1309	401.2319	486.7043	521.9653	561.3614	649.1334	696.2188	800.2133	842.4924	864.9012	925.7174	971.7674	1002.6574	1013.7933	1064.7211	1099.1447	1103.4432	1173.8692	1225.6832	1236.9957	1285.4168	1303.8287	1356.9421	1387.7557	1404.9047	1417.1515	1473.1973	1475.9901	1495.9028	1498.0044	1525.712	2357.8851	3028.094	3045.2484	3050.9744	3059.7582	3113.4801	3126.5866	3130.7261	3139.7443	3146.2125
CC1(C)OCC(O1)C#N	CC1(C)OC[C@@H](O1)C#N	
InChI=1S/C6H9NO2/c1-6(2)8-4-5(3-7)9-6/h5H,4H2,1-2H3	InChI=1S/C6H9NO2/c1-6(2)8-4-5(3-7)9-6/h5H,4H2,1-2H3/t5-/m0/s1
