17
gdb 28881	2.34642	1.82649	1.03439	2.7389	79.49	-0.2196	0.0046	0.2242	1109.8146	0.138084	-418.091269	-418.083072	-418.082127	-418.123587	32.01	
C	-0.0413765986	 1.5554769367	-0.0223698606	-0.531782
C	 0.004396139	 0.0504597351	-0.0183982231	 0.126692
C	-0.0360528614	-0.6894827675	-1.2102379639	 0.278331
N	-0.1586462898	-0.0477086758	-2.4294963537	-0.587726
C	-0.0039647172	-2.0942234671	-1.1420417596	-0.21156
C	 0.0659634725	-2.6935526281	 0.0993112482	-0.00611
N	 0.1097520846	-2.0161777082	 1.252990958	-0.395365
C	 0.0788277696	-0.6898540843	 1.1666676498	 0.369823
O	 0.125121246	-0.0161797413	 2.3427873248	-0.424167
H	 0.8409683819	 1.9911864131	-0.5124514444	 0.118119
H	-0.9246239409	 1.926912026	-0.5569097626	 0.129397
H	-0.0731527302	 1.9436269348	 0.9953431952	 0.154117
H	 0.164591624	 0.9058110894	-2.4734111152	 0.253601
H	 0.0951180126	-0.5891820847	-3.2410260279	 0.251575
H	-0.0365499247	-2.6922721082	-2.0463552446	 0.07879
H	 0.0921591103	-3.7773027919	 0.1819887558	 0.103221
H	 0.1667631224	-0.7022862881	 3.0229849637	 0.293045
119.2403	154.4292	234.0378	274.1811	305.3137	342.4447	389.4581	500.4036	514.2448	519.8721	528.5944	536.4165	561.5873	678.7809	701.5499	789.5009	819.9885	851.9285	950.9625	968.9896	1056.6774	1060.2229	1098.7695	1153.2857	1224.3029	1262.8084	1324.959	1354.4813	1374.6987	1414.5492	1476.215	1495.7026	1503.9789	1533.8557	1624.4312	1648.3169	1666.9159	3004.4017	3052.8915	3151.7512	3155.2489	3186.3713	3585.5008	3689.6382	3770.0539
CC1=C(N)C=CN=C1O	Cc1c(N)ccnc1O	
InChI=1S/C6H8N2O/c1-4-5(7)2-3-8-6(4)9/h2-3H,1H3,(H3,7,8,9)	InChI=1S/C6H8N2O/c1-4-5(7)2-3-8-6(4)9/h2-3H,1H3,(H3,7,8,9)
