19
gdb 11036	3.94875	1.6844	1.39463	2.9169	70.8	-0.2401	0.0677	0.3077	945.5016	0.166755	-365.054935	-365.047167	-365.046223	-365.086507	30.408	
C	 0.0126392101	 1.4846073645	-0.0399992241	-0.466365
C	-0.0301568916	-0.0187569499	 0.0619778453	 0.340701
C	-1.3099112653	-0.7477080618	-0.3447006373	-0.273487
C	-1.1592654596	-2.1720146376	 0.2281975463	-0.288799
C	-0.2241389523	-2.0239924753	 1.4556482555	 0.122112
O	 0.6072176661	-3.1542879555	 1.6819125608	-0.43719
C	 0.6233862324	-0.80599129	 1.1472195801	-0.058691
N	 1.2394610464	-0.7200565346	-0.1854834956	-0.369007
H	 0.9778801959	 1.864537725	 0.302899689	 0.129801
H	-0.1247210812	 1.8080650795	-1.0784710626	 0.117028
H	-0.7805821808	 1.9435329306	 0.5609413559	 0.110484
H	-2.1684414035	-0.2354295555	 0.1065513349	 0.102565
H	-1.4726407409	-0.7406600361	-1.428997438	 0.101057
H	-2.1194865863	-2.6268460609	 0.4867175138	 0.097473
H	-0.6757194045	-2.8419997224	-0.4903534014	 0.110209
H	-0.8193241122	-1.8059392261	 2.3577943665	 0.065499
H	 0.0424591029	-3.8987792115	 1.9122421058	 0.282213
H	 1.1906960101	-0.3508324728	 1.9539215214	 0.085855
H	 1.1144932042	-1.5878774895	-0.7008060962	 0.228542
124.5071	203.4107	215.7269	250.7044	280.6609	359.1609	395.2836	431.9381	532.8545	571.6988	644.0993	701.9403	815.446	852.3886	869.3094	924.5491	963.3194	1005.4339	1023.3072	1033.3374	1066.9046	1079.3094	1096.7031	1124.7462	1166.829	1194.0995	1228.0875	1261.2979	1276.7147	1298.0069	1320.7297	1336.7112	1357.1076	1412.3475	1431.0341	1447.5509	1487.7123	1491.0196	1501.3657	1509.5467	2961.8981	3026.0908	3030.6888	3051.0629	3064.0088	3086.8547	3096.907	3123.1792	3153.3009	3498.999	3817.0084
CC12CCC(O)C1N2	C[C@]12CC[C@@H](O)[C@H]1N2	
InChI=1S/C6H11NO/c1-6-3-2-4(8)5(6)7-6/h4-5,7-8H,2-3H2,1H3	InChI=1S/C6H11NO/c1-6-3-2-4(8)5(6)7-6/h4-5,7-8H,2-3H2,1H3/t4-,5-,6+/m1/s1
