17
gdb 124725	2.61041	1.53126	0.99789	4.1544	70.93	-0.2164	0.0185	0.2349	1149.6148	0.138034	-451.327425	-451.319185	-451.31824	-451.360262	31.308	
C	-0.0268809715	 1.6667935824	 0.7866804669	-0.385694
C	-0.0942821496	 0.4222875844	-0.1022754148	-0.0946
N	 0.8219989476	-0.6760203677	 0.3160465228	-0.537717
H	 0.760608242	-0.7903276894	 1.3260307981	 0.241739
H	-0.1001624376	-2.2322427942	-0.3243988324	 0.307994
H	 1.7842352755	-0.4203169598	 0.1155992557	 0.241733
C	-1.4734262426	-0.1661979791	-0.1739387629	 0.205539
C	-1.778401922	-1.5002806151	-0.3688348032	 0.349817
O	-1.0080127986	-2.5820354016	-0.4995873069	-0.423439
N	-3.1254881029	-1.5374782523	-0.399033932	-0.250567
N	-3.6516785239	-0.2878419863	-0.2349935283	-0.139106
N	-2.6459291233	 0.52369452	-0.0995834607	-0.273358
H	 0.9778388388	 2.1015808975	 0.7689292878	 0.102068
H	-0.7436262949	 2.417416287	 0.444804319	 0.1529
H	-0.2827087575	 1.4145418943	 1.8216365969	 0.117532
H	 0.231059831	 0.7028533659	-1.1141409396	 0.104462
H	-3.7302144703	-2.3341337059	-0.5152879566	 0.280698
72.7787	173.9589	207.1132	250.2438	301.7327	324.7709	352.3299	411.1524	475.6433	516.3916	541.3599	656.4	704.4976	737.2456	760.8589	834.0724	891.644	969.69	1001.1628	1014.7003	1020.3974	1084.8098	1122.7863	1215.0421	1222.503	1247.4012	1318.2961	1349.0218	1370.8325	1401.6251	1406.7377	1433.4765	1485.5477	1497.9324	1587.3182	1641.0444	1656.2056	3001.1212	3034.0276	3103.339	3128.9251	3360.4504	3476.257	3561.4133	3665.8025
CC([NH3+])C1=C([O-])NN=N1	C[C@@H](N)c1c(O)[nH]nn1	
InChI=1S/C4H8N4O/c1-2(5)3-4(9)7-8-6-3/h2H,5H2,1H3,(H2,6,7,8,9)	InChI=1S/C4H8N4O/c1-2(5)3-4(9)7-8-6-3/h2H,5H2,1H3,(H2,6,7,8,9)/t2-/m1/s1
