17
gdb 125202	3.13787	1.57598	1.07268	1.0226	75.99	-0.1978	0.0221	0.2199	1099.2724	0.138351	-418.023892	-418.015914	-418.014969	-418.056846	29.34	
C	 0.0222973245	 1.5266500048	 0.09738998	-0.514271
C	 0.0183234749	 0.0442297857	-0.0641045799	 0.186029
C	 0.1544374155	-0.7927042351	-1.1456547298	 0.250438
O	 0.3598960952	-0.6891182913	-2.4871103434	-0.30165
C	 0.1764654475	-2.04081747	-3.0041445036	-0.096561
C	 0.2496157756	-3.0519857351	-1.8106936	-0.365271
C	 0.0650444568	-2.1010879268	-0.6664032241	 0.260232
N	-0.1148051389	-2.1477996329	 0.6442242525	-0.328239
N	-0.13467367	-0.8362480464	 0.9889034106	-0.258145
H	 0.8735225285	 1.875899695	 0.6942102317	 0.134774
H	 0.0889406829	 2.0011509104	-0.8840264229	 0.149829
H	-0.892036351	 1.8893409343	 0.5818470404	 0.131831
H	-0.8076088948	-2.0828245609	-3.4851688163	 0.115093
H	 0.9456879708	-2.2068721858	-3.7608752092	 0.118906
H	-0.5246995975	-3.8191993639	-1.8938460757	 0.125779
H	 1.218767575	-3.5623696037	-1.7703147432	 0.12509
H	-0.2943894351	-0.5949583382	 1.9518263128	 0.266137
71.0342	108.2727	157.68	232.1026	280.5953	331.1184	395.2733	513.4193	590.1061	635.3595	646.0641	709.126	768.7656	798.5367	841.917	937.2779	978.5553	994.544	1061.6037	1072.3884	1081.7036	1163.688	1193.924	1218.3988	1239.6875	1271.1616	1293.5802	1377.8117	1417.962	1454.3859	1483.3167	1485.6196	1492.482	1510.1564	1525.8079	1537.8337	1686.3801	3022.7381	3035.585	3037.6042	3070.1039	3088.7909	3113.0037	3126.4897	3677.1526
CC1=C2OCCC2=NN1	Cc1c2OCCc2n[nH]1	
InChI=1S/C6H8N2O/c1-4-6-5(8-7-4)2-3-9-6/h2-3H2,1H3,(H,7,8)	InChI=1S/C6H8N2O/c1-4-6-5(8-7-4)2-3-9-6/h2-3H2,1H3,(H,7,8)
