19
gdb 16592	2.43508	2.11811	1.91599	1.8527	71.09	-0.2235	0.0594	0.2829	867.2146	0.1652	-365.010752	-365.002479	-365.001535	-365.04275	31.609	
C	 0.0366317378	 1.7180997266	-0.3801437973	-0.434666
C	 0.0446519778	 0.2028964407	-0.4130951136	 0.031723
C	 0.5727153632	-0.6730912172	-1.4801733921	-0.068782
C	 1.8998319791	-0.2093849492	-2.0612191248	 0.064526
O	 1.8368112261	 1.0111930122	-2.774182172	-0.420649
C	 2.4634295702	-0.25061312	-0.6037926411	 0.037022
C	 3.1533957419	 0.9434672547	 0.0342642296	-0.415863
N	 1.1387914296	-0.7231650495	-0.0508775459	-0.17327
H	 0.77545574	 2.1602016792	-1.0441299734	 0.153292
H	-0.9494834622	 2.0651313139	-0.708280068	 0.115929
H	 0.1897517859	 2.0848303395	 0.6406468124	 0.116706
H	-0.8666649194	-0.2085489951	 0.021806196	 0.095513
H	-0.0048711876	-1.4962729452	-1.8895393424	 0.08935
H	 2.3592424324	-0.9878675147	-2.6827009466	 0.077881
H	 2.6997351097	 1.1729505268	-3.1686367061	 0.285286
H	 3.128519641	-1.1161765448	-0.5138556339	 0.081378
H	 2.6517599278	 1.8903055041	-0.1625422174	 0.127828
H	 3.2055188557	 0.8015030404	 1.1189405561	 0.128415
H	 4.1814008409	 1.0233759076	-0.3375523093	 0.108381
139.556	179.8321	182.301	235.8497	275.5852	283.6351	295.2603	348.5818	475.6616	554.4312	647.2883	686.0558	730.7479	779.7699	801.4875	895.4233	921.7068	961.3844	1012.8791	1031.4336	1075.9224	1103.2033	1124.8136	1137.2302	1167.414	1187.746	1213.7392	1271.9125	1288.3381	1315.17	1366.8045	1387.3288	1403.6543	1410.3923	1435.023	1451.2922	1487.51	1491.8467	1504.3015	1519.9872	3017.3009	3035.9079	3037.615	3046.8275	3089.5571	3095.0734	3101.8432	3155.4847	3155.6317	3179.7903	3816.7871
CC1C2C(O)C(C)N12	C[C@H]1[C@H]2[C@@H](O)[C@@H](C)N12	
InChI=1S/C6H11NO/c1-3-5-6(8)4(2)7(3)5/h3-6,8H,1-2H3	InChI=1S/C6H11NO/c1-3-5-6(8)4(2)7(3)5/h3-6,8H,1-2H3/t3-,4+,5-,6-,7?/m0/s1
