23
gdb 111288	2.78023	1.19838	0.98022	1.7178	85.82	-0.2424	0.0854	0.3277	1343.4691	0.203873	-388.272222	-388.262223	-388.261278	-388.306742	37.608	
C	 0.1742335142	 0.8680428772	-1.525413893	-0.384789
C	-0.1628085439	 0.5225028643	-0.0705977985	-0.187036
C	-1.4920867921	-0.2123205516	 0.0668625968	-0.013215
C	-1.5381095118	-1.6798787513	-0.3898028712	-0.059095
O	-0.6609511039	-2.4211410824	 0.4754725052	-0.29351
C	-1.9993807937	-2.146217051	 0.9281471715	 0.420828
C	-2.8472895038	-3.301522372	 1.3515769934	-0.504617
C	-1.9812917233	-0.7094855967	 1.4937717745	-0.08325
C	-1.1211937775	-0.4592279816	 2.7255804305	-0.410808
H	 1.1305979597	 1.395176118	-1.5968234084	 0.112142
H	 0.2485352833	-0.0347981475	-2.1413188276	 0.118971
H	-0.594132982	 1.5103802321	-1.9708803238	 0.109811
H	 0.6318349247	-0.0989781647	 0.3547821484	 0.113207
H	-0.1946621656	 1.4435017883	 0.5252929475	 0.091607
H	-2.2907258776	 0.3633221933	-0.4154618191	 0.066984
H	-1.7075282169	-2.0900901487	-1.3800508167	 0.093385
H	-2.7353828898	-4.1349407672	 0.6527927203	 0.132687
H	-2.5584652314	-3.6542585415	 2.3484008179	 0.129685
H	-3.9031840205	-3.0142814387	 1.3911581183	 0.121948
H	-3.0041743685	-0.3581149645	 1.6681582551	 0.069421
H	-0.1276549106	-0.8975955388	 2.6024237085	 0.133116
H	-1.002375423	 0.6117483008	 2.9201530019	 0.113172
H	-1.579442686	-0.9050644258	 3.6155461183	 0.109355
88.2288	113.281	157.0453	193.8503	204.8285	221.5861	227.9337	266.9384	302.9342	347.7681	459.9608	546.5899	585.0104	663.5998	702.2039	767.0551	796.9599	856.0945	865.9145	915.6683	948.1416	988.2801	1012.8723	1038.7593	1044.6058	1062.0542	1087.3652	1106.2161	1146.6687	1175.8045	1204.4154	1217.9864	1264.2296	1272.4099	1302.4786	1343.1827	1361.6698	1388.5427	1403.7401	1406.6279	1411.9441	1467.0703	1483.8512	1486.1387	1494.7472	1497.2029	1499.6136	1505.7777	1508.9395	3026.4227	3028.42	3031.6786	3032.4121	3034.6603	3051.2932	3073.2852	3091.7028	3093.4481	3098.3487	3101.9141	3118.5703	3123.476	3169.3856
CCC1C2OC2(C)C1C	CC[C@H]1[C@H]2O[C@@]2(C)[C@H]1C	
InChI=1S/C8H14O/c1-4-6-5(2)8(3)7(6)9-8/h5-7H,4H2,1-3H3	InChI=1S/C8H14O/c1-4-6-5(2)8(3)7(6)9-8/h5-7H,4H2,1-3H3/t5-,6+,7+,8-/m0/s1
