22
gdb 57206	2.39948	1.28055	1.08033	3.4505	81.67	-0.238	0.0302	0.2682	1245.6419	0.192628	-404.380927	-404.370545	-404.369601	-404.416476	38.966	
C	 0.0270951915	 1.6998950269	 0.3211905634	-0.390184
C	 0.0698943955	 0.2057543492	-0.0174092386	-0.164371
C	 0.7911689127	-0.0096711805	-1.3627913584	 0.38269
N	 0.922026284	-1.3157743053	-1.7491763902	-0.519878
O	 1.1766956129	 0.90894756	-2.0594509924	-0.36128
C	 0.6623255266	-0.6453280301	 1.1133760156	 0.376168
C	 2.1442255546	-0.4481830912	 1.3859817246	-0.468507
C	-0.2283791358	-0.9151159234	 2.2999490849	-0.312914
C	 0.0935042592	-2.0348390778	 1.3386096981	-0.32686
H	 1.0327939487	 2.1121352952	 0.4326122071	 0.128632
H	-0.4588435285	 2.2594381664	-0.4800624715	 0.130331
H	-0.522716927	 1.8622807303	 1.2526972173	 0.103998
H	-0.9618278739	-0.1409912723	-0.1715367344	 0.090668
H	 0.7744163029	-2.0660368181	-1.0964288042	 0.262095
H	 1.4658035851	-1.4978412862	-2.5773148461	 0.255704
H	 2.3663097957	 0.5881155755	 1.6597117001	 0.127566
H	 2.4757819084	-1.0853279527	 2.211493878	 0.111707
H	 2.749834922	-0.6973150549	 0.5077448646	 0.123159
H	 0.2257300775	-0.9416650417	 3.2847117328	 0.11311
H	-1.2369029486	-0.5156634733	 2.2876278656	 0.114338
H	-0.709450253	-2.384808904	 0.6962222127	 0.111256
H	 0.7671672495	-2.8176646021	 1.672288931	 0.112572
28.3156	90.3798	167.8548	199.2301	215.8555	250.4364	271.7704	305.8725	327.6216	328.275	402.6278	415.8635	523.6395	532.8555	600.3898	667.5047	772.5614	792.4259	818.0049	867.1641	909.1142	933.5685	952.9204	1012.0688	1046.9374	1069.2815	1069.8079	1086.4899	1103.135	1124.8999	1145.217	1191.9215	1246.0806	1294.9183	1313.7628	1367.0074	1372.8019	1410.5977	1422.796	1466.9494	1486.8951	1488.9472	1498.8167	1503.6478	1508.2652	1608.2651	1793.4374	3006.3882	3033.5201	3053.4504	3097.9384	3104.9552	3117.2286	3125.1832	3130.6219	3137.1713	3197.9412	3216.6298	3595.2101	3730.3613
CC(C(N)=O)C1(C)CC1	C[C@@H](C(=O)N)C1(C)CC1	
InChI=1S/C7H13NO/c1-5(6(8)9)7(2)3-4-7/h5H,3-4H2,1-2H3,(H2,8,9)	InChI=1S/C7H13NO/c1-5(6(8)9)7(2)3-4-7/h5H,3-4H2,1-2H3,(H2,8,9)/t5-/m0/s1
