19
gdb 80709	2.36281	1.92603	1.50532	2.7639	78.79	-0.2214	-0.0173	0.2041	967.3606	0.161378	-385.923003	-385.915607	-385.914662	-385.954524	29.996	
C	-0.2127388974	 1.5569005426	 0.0252446275	-0.414752
C	 0.0425462933	 0.0538618387	-0.0301032359	-0.073958
C	 0.8879815703	-0.5054082566	-1.2181962734	-0.077741
C	 1.2194345666	-1.9214946182	-0.6796810394	-0.234188
C	 1.9458716467	-1.3954603671	 0.5817342039	-0.155826
C	 2.8882545611	-0.3748074434	-0.0570473114	-0.089529
C	 2.2687069304	 0.1417314127	-1.1234160165	-0.071487
C	 0.8450874105	-0.4852119354	 1.1775890928	 0.428009
O	 0.6583567693	-0.2240662071	 2.3365577876	-0.341781
H	 0.7220378327	 2.1191392237	-0.0610360774	 0.119939
H	-0.8820849254	 1.8763254033	-0.7798020493	 0.110839
H	-0.6732362791	 1.8200162986	 0.9817511617	 0.13824
H	-0.9237623704	-0.4696456009	-0.0083022301	 0.097418
H	 0.3929868045	-0.4513616377	-2.1883065477	 0.066192
H	 0.3296654089	-2.5211214278	-0.4590760241	 0.099394
H	 1.8898268878	-2.4810805956	-1.3363252716	 0.105832
H	 2.3781132095	-2.0997412274	 1.2892919517	 0.079917
H	 3.8336143343	-0.0740131925	 0.3746391617	 0.11015
H	 2.6232491566	 0.9412837902	-1.7609008201	 0.103333
120.0593	204.0406	226.2756	234.824	409.5972	444.6868	474.721	497.2001	631.8375	648.4206	721.6393	753.3361	773.8147	827.5773	882.1007	897.561	910.2295	935.9752	949.8962	976.7186	994.3392	1031.683	1053.6433	1107.4911	1116.9933	1143.9129	1148.4471	1188.3694	1204.3525	1251.9241	1278.0251	1281.8156	1314.7045	1335.9732	1360.6155	1404.6187	1492.8898	1495.9815	1501.8811	1636.3151	1847.9621	3010.0516	3038.1459	3049.2311	3106.4499	3108.4856	3112.1812	3116.7394	3144.3621	3206.3785	3232.1563
CC1C2CC(C=C2)C1=O	C[C@H]1[C@@H]2C[C@@H](C=C2)C1=O	
InChI=1S/C8H10O/c1-5-6-2-3-7(4-6)8(5)9/h2-3,5-7H,4H2,1H3	InChI=1S/C8H10O/c1-5-6-2-3-7(4-6)8(5)9/h2-3,5-7H,4H2,1H3/t5-,6-,7+/m0/s1
