16
gdb 69101	2.60109	1.62048	1.18215	3.266	69.7	-0.2778	-0.0054	0.2724	1041.21	0.123611	-437.88439	-437.876258	-437.875314	-437.916972	30.121	
C	-0.0330308906	 1.5132382817	-0.0316882376	-0.488885
C	-0.0464981985	 0.0158523789	 0.0631521893	 0.293874
C	-1.2569708962	-0.8016993914	-0.3603769058	-0.131992
O	-1.0406359092	-2.116031516	 0.132910925	-0.251456
C	-0.208212651	-2.0661973717	 1.2793754143	-0.156694
C	 0.6165371787	-0.8000809306	 1.1057920184	 0.217327
O	 1.1790152614	-0.680312978	-0.2058135802	-0.302051
C	 1.3653911769	-0.2512432493	 2.2055096985	 0.226084
N	 1.9512536403	 0.1740403798	 3.1067833057	-0.333851
H	 0.8708397149	 1.9201460461	 0.4261400223	 0.15669
H	-0.0587988589	 1.8250242398	-1.0807956077	 0.143319
H	-0.9063259554	 1.9397813412	 0.4710445643	 0.138026
H	-2.167660929	-0.3486067575	 0.0630291663	 0.105339
H	-1.3686735742	-0.8662459669	-1.4472481446	 0.129817
H	-0.7845815172	-2.0008447409	 2.2155085529	 0.115975
H	 0.399973208	-2.9749011751	 1.2979406789	 0.138478
129.0284	147.5332	168.7819	208.7865	242.0612	313.0894	388.3562	435.0737	504.6389	557.6585	578.712	632.218	706.1609	776.6358	890.8582	930.2321	960.773	990.8895	1062.0026	1079.5377	1111.4741	1137.7345	1192.7552	1223.7148	1248.5083	1249.9018	1362.9236	1367.3369	1418.2737	1453.2927	1483.71	1494.3284	1498.4729	1510.2171	2359.275	2982.672	2991.807	3045.9118	3081.3584	3092.6551	3111.4069	3138.0097
CC12COCC1(O2)C#N	C[C@]12COC[C@]1(O2)C#N	
InChI=1S/C6H7NO2/c1-5-3-8-4-6(5,2-7)9-5/h3-4H2,1H3	InChI=1S/C6H7NO2/c1-5-3-8-4-6(5,2-7)9-5/h3-4H2,1H3/t5-,6+/m0/s1
