16
gdb 27777	2.04779	1.7534	0.95065	5.4443	79.07	-0.2029	-0.03	0.1729	1187.1981	0.12419	-437.965515	-437.957119	-437.956175	-437.998401	31.781	
C	-0.0050563311	 1.5294873058	 0.0109273417	-0.486962
C	-0.0059140826	 0.024497546	-0.0065113986	 0.362004
C	-0.0171720972	-0.6683845184	-1.1866473133	-0.387561
C	-0.0137488955	-2.0991708604	-1.2318524258	 0.423417
O	-0.0153328511	-2.8440876154	-2.1728188855	-0.348396
O	-0.0016320513	-2.730088375	 0.0620795844	-0.258855
C	 0.0009217362	-2.040473217	 1.2035464582	 0.466995
N	-0.0491868404	-2.8628636528	 2.2949636869	-0.558172
C	 0.006011827	-0.6734549879	 1.2305089379	-0.357229
H	 0.8788704464	 1.9093649353	 0.5357496333	 0.137589
H	-0.0118620217	 1.9440595303	-0.9990044338	 0.133626
H	-0.8816673743	 1.909629531	 0.5476666048	 0.13904
H	-0.0244495852	-0.1667098732	-2.1454883617	 0.108392
H	 0.2251104843	-3.8195269759	 2.132549142	 0.271677
H	 0.2365260456	-2.4727163152	 3.1780195236	 0.266835
H	 0.0074952609	-0.1481276873	 2.176501126	 0.0876
103.588	155.6985	172.0317	207.9357	287.2585	335.838	385.3447	449.2981	472.2766	528.0601	567.1499	574.1405	612.3336	696.9582	748.4498	770.379	825.0451	832.6203	986.479	1006.7732	1031.4902	1057.7647	1094.2157	1144.944	1184.7413	1293.9687	1403.0639	1421.7988	1477.8959	1479.4209	1487.9488	1572.9834	1635.755	1676.4309	1854.132	3033.333	3086.9712	3130.4802	3209.1928	3215.5669	3592.6488	3710.7267
CC1=CC(=O)OC(N)=C1	Cc1cc(=O)oc(N)c1	
InChI=1S/C6H7NO2/c1-4-2-5(7)9-6(8)3-4/h2-3H,7H2,1H3	InChI=1S/C6H7NO2/c1-4-2-5(7)9-6(8)3-4/h2-3H,7H2,1H3
