21
gdb 110299	2.42491	1.33093	1.26211	2.6407	77.67	-0.235	0.0464	0.2814	1158.9945	0.182153	-424.192955	-424.183802	-424.182858	-424.226514	35.474	
C	-0.0197108801	 1.5817225451	 0.0839840811	-0.38247
C	 0.1282279411	 0.0571027611	 0.1401067329	-0.202744
C	 0.6554337919	-0.5444440436	-1.1622901973	-0.011399
C	 0.9006119804	-2.0553454501	-1.2524569433	-0.136313
C	-0.3749622272	-2.8459408826	-1.2934239277	 0.132127
O	-1.5334318061	-2.5572697076	-0.5662116777	-0.438457
C	 0.0345487849	-2.1402250482	-2.5470665017	-0.135493
C	-0.2648868717	-0.6520519921	-2.4411658877	 0.060589
O	-1.6642158374	-0.3963306182	-2.3121716476	-0.43298
H	 0.9338295953	 2.0676912031	-0.1522500108	 0.115117
H	-0.7401690657	 1.8976733481	-0.6808052255	 0.090847
H	-0.3708993011	 1.9827714085	 1.0395290157	 0.1191
H	 0.8299681881	-0.2062532243	 0.9420208542	 0.099029
H	-0.8201073965	-0.414246498	 0.4075912952	 0.117503
H	 1.5645324457	-0.0068762206	-1.4578392721	 0.067622
H	 1.8560397916	-2.5305348334	-1.0596412767	 0.084474
H	-0.1988181417	-3.9194365448	-1.3302500108	 0.098906
H	-1.9872186363	-1.8430511493	-1.0352107676	 0.297026
H	 0.2192114136	-2.6606083636	-3.4792762139	 0.08658
H	 0.140379117	-0.0755052493	-3.2800284616	 0.079807
H	-1.7938602057	 0.5455646799	-2.1606928771	 0.291128
82.0974	131.4024	171.374	219.2463	240.2258	257.8798	315.657	361.4509	392.9987	478.5594	518.9177	558.4332	680.049	723.5331	754.0649	787.9949	805.1855	823.5412	920.5561	950.7701	992.9021	1000.0252	1010.2359	1025.4354	1050.0937	1081.1309	1090.4873	1142.1217	1164.08	1193.7046	1204.5969	1244.732	1272.7603	1286.8316	1325.1221	1334.1628	1354.0948	1392.4704	1395.053	1410.6577	1425.7626	1466.7128	1488.2936	1499.4246	1503.612	3019.2339	3021.3214	3030.9874	3041.7612	3074.5538	3099.7038	3113.9439	3128.6265	3168.9476	3182.239	3729.0222	3817.3486
CCC1C2C(O)C2C1O	CC[C@H]1[C@H]2[C@@H](O)[C@H]2[C@H]1O	
InChI=1S/C7H12O2/c1-2-3-4-5(6(3)8)7(4)9/h3-9H,2H2,1H3	InChI=1S/C7H12O2/c1-2-3-4-5(6(3)8)7(4)9/h3-9H,2H2,1H3/t3-,4+,5+,6-,7+/m0/s1
