19
gdb 65943	2.20935	1.52622	1.33705	1.8219	81.23	-0.2498	0.0262	0.2761	1093.5588	0.15651	-385.822656	-385.813529	-385.812585	-385.856256	34.83	
C	-0.2212539756	 1.5485136652	 0.165425358	-0.433256
C	-0.0047036057	 0.0413502262	 0.0659515484	 0.153019
O	 1.1285432205	-0.2619684855	-0.8041721783	-0.318942
C	 1.8621641105	-0.9121104912	 0.257603756	-0.142086
C	 0.7373908585	-0.6349766763	 1.2424968353	 0.266085
C	 0.8099081622	-0.1945495889	 2.6712890993	-0.326317
C	 0.1816813594	-1.5216056866	 2.3068178072	-0.328345
C	-1.2190773603	-0.6453196649	-0.367679946	 0.342468
C	-2.2302818604	-1.2036701994	-0.7015971092	-0.478637
H	 0.6951684943	 2.0336037702	 0.5105717795	 0.121791
H	-0.4872653598	 1.9484676803	-0.8167478084	 0.1362
H	-1.0334372148	 1.7787994759	 0.8616840876	 0.123225
H	 2.049629783	-1.9705659736	 0.0356376766	 0.106913
H	 2.8183749805	-0.4113604743	 0.4573186798	 0.102174
H	 1.7827767614	-0.1975094364	 3.1532801185	 0.116231
H	 0.1558908773	 0.6082590944	 2.9961622359	 0.119232
H	-0.8978628452	-1.6131842455	 2.3693664447	 0.126511
H	 0.7234553933	-2.4320303073	 2.5434004582	 0.11563
H	-3.1167455293	-1.7008517724	-1.0099477932	 0.198104
66.3562	127.548	183.0018	207.3765	223.5574	271.2422	306.5597	370.1503	446.4775	493.0568	533.9141	608.4761	618.5472	641.8837	665.3931	774.5992	872.4704	878.8974	892.3144	923.0533	943.0524	986.4317	1018.9456	1057.8431	1078.3544	1091.7299	1115.0092	1150.5109	1155.6857	1186.7137	1214.5079	1263.7956	1324.3771	1397.4014	1406.9664	1463.988	1478.0938	1482.9504	1508.3029	1526.4473	2229.3665	3005.5064	3043.0998	3046.3647	3119.4423	3123.9178	3126.9678	3129.9608	3202.1083	3216.742	3500.533
CC1(OCC11CC1)C#C	C[C@]1(OCC21CC2)C#C	
InChI=1S/C8H10O/c1-3-7(2)8(4-5-8)6-9-7/h1H,4-6H2,2H3	InChI=1S/C8H10O/c1-3-7(2)8(4-5-8)6-9-7/h1H,4-6H2,2H3/t7-/m0/s1
