25
gdb 76543	2.27902	1.19561	1.12953	0.0532	93.41	-0.2459	0.085	0.3309	1334.6144	0.227719	-352.345339	-352.334931	-352.333986	-352.380378	39.288	
C	-0.0974760961	 0.8182766433	-2.0757539672	-0.411384
C	 0.0387395081	-0.3039743922	-1.0692007813	-0.077153
C	 1.3388602342	-0.6206533473	-0.350505527	-0.089683
C	 2.6156208881	 0.1652932724	-0.5624045345	-0.41184
C	 0.1780587856	-0.0441326619	 0.4121180657	 0.33532
C	 0.0731448026	 1.3272488149	 1.0987487335	-0.300901
C	-1.0343817582	 0.7324379621	 2.0148400152	-0.22783
C	-0.6493358254	-0.7000380922	 1.5381515356	-0.024085
C	-1.7690133956	-1.6670967889	 1.1833800483	-0.410741
H	 0.4882173951	 1.6987318675	-1.7989826599	 0.116978
H	 0.2372078458	 0.5001899012	-3.0696909527	 0.114275
H	-1.1421709775	 1.137619255	-2.1667218248	 0.113332
H	-0.5532787464	-1.1808084032	-1.324661386	 0.076345
H	 1.5096042968	-1.683493594	-0.1828998274	 0.072289
H	 2.4269225729	 1.2360165473	-0.6792084231	 0.116978
H	 3.2906682864	 0.0472652641	 0.2930497318	 0.113925
H	 3.1526054718	-0.1754865109	-1.4549709375	 0.113868
H	 0.9797414769	 1.5983969129	 1.6499883114	 0.096952
H	-0.2158732783	 2.1795586369	 0.4780537522	 0.09562
H	-0.9580193988	 0.9372295015	 3.0854310681	 0.092045
H	-2.0376708663	 1.0125654594	 1.6793606176	 0.09646
H	 0.023106159	-1.1718997183	 2.2663137761	 0.064761
H	-2.4632650333	-1.2208509314	 0.4629128291	 0.112284
H	-1.3803703632	-2.5930040282	 0.743552828	 0.111332
H	-2.3431900941	-1.9436506101	 2.0748311488	 0.110854
65.3794	132.8672	163.6293	164.1124	167.0102	197.3073	224.1445	245.4001	288.1567	390.4711	445.1172	492.5799	524.2398	555.631	688.1794	783.4342	785.5213	790.4427	885.7487	910.2001	929.2989	955.1944	989.3003	1005.8757	1020.3811	1044.0379	1072.559	1110.8573	1132.7763	1149.0468	1159.5314	1173.9583	1182.2421	1198.1377	1230.6599	1256.293	1270.6435	1284.2084	1323.4952	1366.5719	1368.8813	1404.2404	1413.2266	1420.5268	1459.4057	1478.7166	1486.9779	1494.1558	1494.6235	1495.7063	1498.9912	1501.1102	1515.5906	3013.4373	3021.7035	3026.1645	3029.5097	3042.3272	3052.19	3081.2062	3082.8045	3085.3391	3086.7255	3093.3588	3096.0424	3108.5173	3109.3779	3113.3749	3128.23
CC1C(C)C11CCC1C	C[C@H]1[C@@H](C)[C@]21CC[C@H]2C	
InChI=1S/C9H16/c1-6-4-5-9(6)7(2)8(9)3/h6-8H,4-5H2,1-3H3	InChI=1S/C9H16/c1-6-4-5-9(6)7(2)8(9)3/h6-8H,4-5H2,1-3H3/t6-,7-,8+,9+/m1/s1
