19
gdb 108038	3.49296	1.31907	1.22494	1.3668	79.24	-0.2221	0.0122	0.2343	1082.8717	0.160932	-385.854873	-385.84737	-385.846426	-385.886813	30.332	
O	 0.1315452238	 1.3402393389	-0.164627935	-0.415118
C	 0.0296426756	-0.0443496673	 0.1440788477	-0.174556
C	-1.3868482498	-0.5346622165	 0.1371993252	 0.312956
C	-2.4527344859	-0.1951078452	 1.1748985509	-0.275312
C	-3.2387436241	-1.4956352434	 0.7370262838	-0.10167
C	-4.1895348005	-1.0833893554	-0.3664918078	-0.090568
C	-3.4791971518	-0.751358374	-1.4494742312	-0.082216
C	-2.0356226703	-1.0290660945	-1.1982942283	-0.135814
C	-1.9315050874	-1.9378771299	-0.0036963948	-0.133799
H	-0.3447277526	 1.4809632523	-0.9899279502	 0.280676
H	 0.6366419485	-0.6563360872	-0.5445908	 0.08178
H	 0.469244982	-0.1522023379	 1.1425885533	 0.107726
H	-2.0370023883	-0.3125356941	 2.1795156362	 0.102669
H	-2.985160121	 0.7583426857	 1.1050005575	 0.094328
H	-3.6418118358	-2.1146060556	 1.5367157689	 0.069777
H	-5.2504456988	-0.9253837496	-0.2161886851	 0.09596
H	-3.8562575382	-0.3065489344	-2.361970781	 0.094809
H	-1.3342500868	-1.1521124495	-2.0170012562	 0.081198
H	-1.4316898888	-2.8993526225	 0.0214040765	 0.087175
88.9891	131.5131	280.0657	322.3201	364.4908	386.4147	419.3694	546.8806	646.3148	711.5222	720.1353	754.5202	799.1879	852.3873	862.1537	888.1242	901.773	929.6611	950.5657	958.755	991.6943	1026.0126	1034.3657	1049.5918	1067.4793	1109.8668	1138.0073	1160.5438	1187.1196	1217.855	1230.3645	1273.6019	1282.8638	1299.4438	1359.8127	1367.7535	1403.4541	1432.9351	1488.5226	1503.8292	1644.438	2958.492	3045.4317	3055.2168	3101.7418	3124.8433	3164.9541	3177.6798	3197.5704	3222.5938	3807.5981
OCC12CC3C=CC1C23	OC[C@@]12C[C@H]3C=C[C@@H]1[C@@H]23	
InChI=1S/C8H10O/c9-4-8-3-5-1-2-6(8)7(5)8/h1-2,5-7,9H,3-4H2	InChI=1S/C8H10O/c9-4-8-3-5-1-2-6(8)7(5)8/h1-2,5-7,9H,3-4H2/t5-,6-,7+,8+/m1/s1
