14
gdb 128454	4.71991	1.14385	0.92611	2.5693	65.88	-0.2745	-0.05	0.2245	1189.3159	0.101444	-470.027963	-470.020069	-470.019125	-470.061294	27.228	
C	-0.0493492616	 1.3348471691	 0.067118095	-0.240278
O	 0.0280623503	-0.0969544726	-0.0420311936	-0.217305
C	 0.6452974525	-0.5381193179	-1.1264887984	 0.574204
O	 1.1347701232	 0.1188806924	-2.0060323558	-0.379602
N	 0.6743295036	-1.9542650259	-1.1502563036	-0.080753
C	 1.238023881	-2.7150110823	-2.1337277017	-0.061857
C	 1.0216740001	-3.9978207678	-1.7249974062	-0.076077
N	 0.3456694063	-3.9722226953	-0.5289044042	-0.172884
N	 0.1331843733	-2.7507176221	-0.1764397611	-0.1168
H	 0.9526778565	 1.7683533813	 0.0970721069	 0.151982
H	-0.5972112829	 1.7515347345	-0.78086496	 0.15202
H	-0.5794402523	 1.5228816111	 0.9994243655	 0.15244
H	 1.7149577458	-2.267043269	-2.9871593218	 0.176049
H	 1.2984048143	-4.9260921854	-2.196582421	 0.138859
77.9414	102.1857	125.1583	173.3173	215.0846	318.8601	420.2692	507.1238	629.3285	711.4035	783.2524	817.6133	825.1015	884.4716	948.1922	985.7897	1015.7231	1073.515	1113.7614	1180.8238	1183.9824	1219.5679	1250.4332	1315.0195	1377.85	1457.6704	1483.9634	1484.2542	1497.4214	1542.0945	1838.0771	3060.2977	3139.8102	3175.9891	3279.8248	3313.7592
COC(=O)N1C=CN=N1	COC(=O)n1ccnn1	
InChI=1S/C4H5N3O2/c1-9-4(8)7-3-2-5-6-7/h2-3H,1H3	InChI=1S/C4H5N3O2/c1-9-4(8)7-3-2-5-6-7/h2-3H,1H3
