18
gdb 77020	2.27115	1.19776	0.93909	4.3263	82.36	-0.2558	0.033	0.2888	1296.3914	0.14583	-364.786048	-364.776449	-364.775505	-364.821062	34.782	
C	-0.1043887	 1.5778950163	 0.1425731703	-0.413117
C	-0.0020990792	 0.0758319349	 0.0021261967	-0.052519
C	 0.5703590727	-0.6051825718	-1.2116019881	-0.025912
C	 1.1059590105	 0.1832547513	-2.3974401351	-0.365776
C	 1.8941294559	-0.6569115109	-3.3005875424	 0.263728
N	 2.5027654805	-1.3311576974	-4.0145572795	-0.305044
C	 1.3394276152	-0.6521616532	 0.1083692477	-0.211024
C	 2.5573697035	 0.0865669485	 0.2643222231	 0.331196
C	 3.5812727727	 0.7059293017	 0.3933275865	-0.461909
H	 0.7906726993	 2.0888663893	-0.2185613407	 0.132787
H	-0.9688347866	 1.9646709373	-0.4077892973	 0.121741
H	-0.2295316224	 1.8524519111	 1.194681599	 0.129775
H	-0.8247317044	-0.4630815613	 0.4645424579	 0.101152
H	 0.1029432847	-1.5427202587	-1.4956471542	 0.113975
H	 0.2792976815	 0.6198731749	-2.970522258	 0.152251
H	 1.7394487201	 1.0094371524	-2.0619189622	 0.164135
H	 1.3262458164	-1.6076703837	 0.6239172687	 0.121277
H	 4.4921949097	 1.2388019293	 0.5119102876	 0.203284
40.1065	115.8005	135.7996	155.7881	167.0725	219.1853	321.1079	359.2708	384.3941	466.9434	520.289	586.5751	591.0986	611.0207	660.68	745.2315	795.1919	872.8039	913.3389	932.4774	978.8955	997.2508	1049.2345	1104.7181	1121.9004	1149.6101	1165.6577	1244.3563	1261.6501	1315.2042	1366.4233	1389.7858	1423.3633	1438.2136	1457.507	1492.1964	1503.2725	2232.2673	2364.3249	3039.4089	3044.5121	3094.9395	3099.396	3124.2669	3143.3963	3149.6714	3163.8449	3502.5241
CC1C(CC#N)C1C#C	C[C@H]1[C@@H](CC#N)[C@H]1C#C	
InChI=1S/C8H9N/c1-3-7-6(2)8(7)4-5-9/h1,6-8H,4H2,2H3	InChI=1S/C8H9N/c1-3-7-6(2)8(7)4-5-9/h1,6-8H,4H2,2H3/t6-,7+,8-/m1/s1
