17
gdb 44227	4.0576	1.22664	1.14467	3.5626	73.05	-0.2307	-0.0347	0.196	1097.597	0.134877	-421.786158	-421.778569	-421.777625	-421.818496	29.51	
O	-0.162969556	 0.3128403223	-0.7309280565	-0.282833
C	-0.0870125289	 1.3722066601	-0.1864473828	 0.410286
C	-1.124117887	 2.3589879322	 0.400327764	-0.369143
C	 0.0471237214	 3.2654941098	 0.8741073863	-0.193883
C	 1.0908965312	 2.2756890856	 0.2566539508	-0.00832
O	 1.4113418945	 3.2223255635	-0.7911228422	-0.318235
C	 0.5630188557	 4.2172743335	-0.1917959246	 0.478979
C	-0.1294139467	 5.2542642785	-1.0067336962	-0.334741
C	 1.0147844729	 5.6333496868	-0.070625667	-0.345321
H	-1.8304116838	 2.7963290805	-0.3101599814	 0.136322
H	-1.6886121173	 1.8975486067	 1.2170346639	 0.135597
H	 0.0555476996	 3.5894536657	 1.9122549644	 0.093079
H	 1.9736180244	 1.8482900182	 0.737564687	 0.097357
H	 0.0770541276	 5.2609747509	-2.0714695276	 0.1328
H	-1.1404206456	 5.5420553361	-0.7367208327	 0.119297
H	 0.7819547213	 6.1760239103	 0.8399126114	 0.118055
H	 1.9667345168	 5.8863107693	-0.5245500668	 0.130703
63.3649	150.0839	200.9679	285.8884	338.5035	416.0129	462.8436	519.5153	569.1137	664.8977	752.8026	777.1534	816.3685	854.6488	877.6414	896.9525	946.9208	960.0387	979.1775	1013.6391	1027.0976	1046.51	1066.2118	1070.4425	1117.6558	1154.3972	1185.2551	1187.4159	1222.1798	1244.3047	1269.6908	1287.6033	1394.5132	1431.8651	1448.0215	1500.5874	1900.2738	3057.7021	3090.7239	3113.421	3128.843	3131.2052	3141.8156	3213.2	3226.8757
O=C1CC2C1OC21CC1	O=C1C[C@H]2[C@@H]1OC12CC1	
InChI=1S/C7H8O2/c8-5-3-4-6(5)9-7(4)1-2-7/h4,6H,1-3H2	InChI=1S/C7H8O2/c8-5-3-4-6(5)9-7(4)1-2-7/h4,6H,1-3H2/t4-,6-/m0/s1
