16
gdb 14493	3.56512	2.06563	1.54497	3.7228	69.2	-0.256	0.0198	0.2758	834.9118	0.13168	-342.725609	-342.718537	-342.717592	-342.756637	27.174	
C	-0.1678479428	 1.5842057995	-0.0134220622	-0.481235
C	 0.0078781266	 0.0625151973	 0.0082175372	 0.186209
C	-1.2941603339	-0.5717371648	-0.2096385661	 0.221458
N	-2.3354213	-1.0449746032	-0.3836975865	-0.343561
C	 1.2053370862	-0.6648824756	-0.7234273222	-0.053557
C	 2.1682838951	-0.1262679425	 0.3637190777	-0.225523
C	 0.9080066354	-0.6735784781	 1.0788472646	-0.053554
N	 1.0385353015	-1.8789687424	 0.1688800799	-0.325814
H	 0.7731261236	 2.1115730744	 0.1441704846	 0.131327
H	-0.5812594994	 1.9040351828	-0.974565989	 0.143368
H	-0.8682815136	 1.8956587273	 0.7672120081	 0.143366
H	 1.3603046581	-0.7507040213	-1.7996185021	 0.098872
H	 3.0590481716	-0.7354890263	 0.507732237	 0.12367
H	 2.3773542306	 0.9400123805	 0.4033593184	 0.105358
H	 0.7092209193	-0.769745181	 2.146931645	 0.098871
H	 0.1199011118	-2.3059686766	 0.0152676455	 0.230745
159.0765	164.5401	174.4721	284.0105	340.7686	489.0573	528.213	542.0927	633.6388	650.3206	751.2125	804.4196	875.4596	880.1187	911.6233	924.0303	1037.5972	1040.4838	1079.7031	1084.111	1121.9204	1169.0984	1174.932	1191.2211	1207.4058	1227.3579	1260.801	1298.6286	1314.6912	1414.8588	1487.3912	1488.8338	1514.6696	2342.6547	3051.0118	3104.7398	3111.1112	3113.1162	3120.1728	3146.6529	3184.9882	3399.5707
CC1(C#N)C2CC1N2	C[C@@]1(C#N)[C@H]2C[C@@H]1N2	
InChI=1S/C6H8N2/c1-6(3-7)4-2-5(6)8-4/h4-5,8H,2H2,1H3	InChI=1S/C6H8N2/c1-6(3-7)4-2-5(6)8-4/h4-5,8H,2H2,1H3/t4-,5+,6-
