19
gdb 38493	3.09206	1.74547	1.56565	2.0187	77.23	-0.2379	0.0795	0.3174	937.6338	0.161392	-385.842391	-385.835595	-385.83465	-385.873121	28.788	
C	 0.0548580614	 1.4999237245	-0.0157943368	-0.293271
C	 1.3570341098	 0.7385444444	-0.0519815635	-0.008127
C	 2.1033183641	 0.5516086986	 1.2872120034	-0.33933
C	 1.1518005356	-0.3314646502	 2.0701654292	 0.322254
C	 0.3463886523	-0.2655765916	 3.3833255266	-0.296173
C	-0.9397091678	-0.6296585668	 2.5471485254	-0.296711
C	-0.0452581458	-0.6647208406	 1.2901848989	 0.316468
O	 0.9787382092	-1.643330048	 1.5250039874	-0.310436
C	 0.0201991391	-0.0105042619	-0.0446325008	-0.148014
H	-0.2207826811	 2.0092717705	 0.9035824584	 0.107828
H	-0.2533586748	 2.0201391019	-0.9161260893	 0.114975
H	 1.9413707022	 0.7785921766	-0.9641025047	 0.087693
H	 3.079888311	 0.0785565743	 1.1423516762	 0.11367
H	 2.2721543655	 1.5073441633	 1.7965849953	 0.104441
H	 0.6538935602	-0.96831677	 4.1609532105	 0.109823
H	 0.2947747571	 0.7417088164	 3.8044166683	 0.105228
H	-1.4424942571	-1.5679830788	 2.7905691239	 0.110205
H	-1.6707189845	 0.1816310234	 2.5321216889	 0.109116
H	-0.3391304965	-0.512422626	-0.9366296573	 0.09036
162.9522	218.1738	310.9532	353.1853	437.4183	474.0616	509.9152	627.0413	673.8733	742.5271	763.651	768.9662	804.7626	824.3428	878.5133	889.7949	925.8927	937.7595	956.0705	997.7865	1033.6934	1057.3365	1076.1611	1096.7203	1107.1808	1127.7755	1167.1905	1188.8117	1197.3203	1215.2746	1222.4318	1262.1237	1266.4443	1316.2906	1352.5923	1375.1993	1428.3031	1465.5342	1481.3332	1487.8811	1492.5077	3038.471	3062.5036	3071.9829	3078.4534	3114.2413	3121.4184	3132.3834	3162.2112	3176.7156	3208.8234
C1C2CC34CCC3(O4)C12	C1[C@H]2C[C@@]34CC[C@@]3(O4)[C@@H]12	
InChI=1S/C8H10O/c1-2-8-6-3-5(6)4-7(1,8)9-8/h5-6H,1-4H2	InChI=1S/C8H10O/c1-2-8-6-3-5(6)4-7(1,8)9-8/h5-6H,1-4H2/t5-,6-,7-,8+/m0/s1
