16
gdb 126288	5.8388	0.86326	0.79608	3.1638	81.8	-0.254	-0.0319	0.222	1433.3075	0.123221	-400.721831	-400.713265	-400.71232	-400.755679	31.199	
C	 0.1212870684	 1.5456154967	-0.1796938286	-0.376518
C	-0.0549283795	 0.0364962232	 0.0637500451	-0.305591
C	 0.5759073663	-0.4275141894	 1.3328957198	 0.449026
C	 0.0931437981	-0.9576785255	 2.4868746189	-0.440706
C	 1.2571844813	-1.1571892403	 3.2892162267	 0.239413
N	 2.3523882056	-0.7720121226	 2.6565908307	-0.205016
O	 1.9174717626	-0.3131787115	 1.4243350519	-0.206055
C	 1.3211830804	-1.6918711445	 4.6012091516	 0.255875
C	 1.3357622303	-2.1491540488	 5.7131303999	-0.386742
H	 1.180760752	 1.8104940424	-0.221487623	 0.143171
H	-0.343147436	 1.8344882159	-1.1265056036	 0.121572
H	-0.3422923219	 2.1280787671	 0.6218014867	 0.128319
H	-1.1170838034	-0.2229314109	 0.0993937139	 0.122684
H	 0.3813743507	-0.5225492085	-0.7728630539	 0.132739
H	-0.9280925923	-1.1807905988	 2.7439713314	 0.127929
H	 1.3634220073	-2.5514747542	 6.6956787326	 0.199898
46.4679	110.0711	141.3615	193.8469	214.8778	325.9096	371.4458	479.1601	536.695	548.5055	622.6325	669.6076	676.4814	710.5261	733.7062	788.6881	828.084	959.5171	961.8836	1022.4962	1030.5806	1072.6117	1091.0507	1149.2932	1253.1088	1313.5491	1349.0171	1408.2495	1427.2823	1473.5617	1479.3175	1497.0206	1507.4641	1632.3973	2246.2449	3038.9162	3047.5002	3089.1671	3120.2164	3130.2802	3285.829	3503.0606
CCC1=CC(=NO1)C#C	CCc1cc(no1)C#C	
InChI=1S/C7H7NO/c1-3-6-5-7(4-2)9-8-6/h1,5H,4H2,2H3	InChI=1S/C7H7NO/c1-3-6-5-7(4-2)9-8-6/h1,5H,4H2,2H3
