15
gdb 54805	2.63806	1.63054	1.14444	0.6288	65.16	-0.2502	-0.0276	0.2226	1027.6458	0.112746	-453.955607	-453.947638	-453.946694	-453.988703	29.495	
N	-0.002081457	 1.2280095184	 0.3631648539	-0.524335
C	 0.129745027	-0.0322616729	-0.1353821333	 0.384746
O	 1.1444083543	-0.4784959131	-0.6286669888	-0.357586
C	-1.1617450542	-0.8412073296	-0.0387585267	-0.270286
C	-1.0972426065	-2.3550695543	 0.1297799686	-0.015206
C	-0.537164114	-2.7262026555	 1.4304056814	-0.240142
N	-1.9782954452	-2.2992655744	 1.3972996832	-0.179896
C	-1.9315598603	-0.8590867219	 1.292617653	 0.402819
O	-2.3927027284	-0.0164779731	 2.0020920312	-0.315308
H	 0.8194026161	 1.8099088751	 0.4042085491	 0.265736
H	-0.8004742482	 1.4700001125	 0.931489842	 0.279418
H	-1.8399558809	-0.5337399819	-0.84182352	 0.148786
H	-1.3247319703	-3.0764021848	-0.6434742437	 0.124609
H	-0.4368822319	-3.7794600479	 1.6680355644	 0.148653
H	 0.1862076398	-2.0796678367	 1.9195581453	 0.147992
55.3199	118.8065	151.3809	212.1252	353.0886	398.3786	434.8696	476.451	561.3316	610.5888	650.5499	670.4092	705.6677	755.8021	825.8147	883.5226	938.4305	1009.2438	1026.0933	1048.0139	1063.3257	1113.3664	1117.8615	1148.7319	1179.2375	1228.6336	1285.0158	1356.8152	1364.5167	1509.7289	1628.0769	1808.8669	1894.9369	3071.9872	3126.7449	3211.5246	3222.9831	3566.5216	3704.9441
NC(=O)C1C2CN2C1=O	NC(=O)[C@H]1[C@H]2CN2C1=O	
InChI=1S/C5H6N2O2/c6-4(8)3-2-1-7(2)5(3)9/h2-3H,1H2,(H2,6,8)	InChI=1S/C5H6N2O2/c6-4(8)3-2-1-7(2)5(3)9/h2-3H,1H2,(H2,6,8)/t2-,3-,7?/m1/s1
