16
gdb 125814	3.00575	1.29322	0.96363	2.9631	70.94	-0.2529	-0.01	0.2429	1188.1393	0.123957	-437.860249	-437.852199	-437.851254	-437.893698	29.027	
C	 0.1451244444	 1.5357423547	-0.12636178	-0.500501
C	 0.0363043707	 0.0482301327	-0.0248580667	 0.306992
N	 0.0485477415	-0.6910929672	-1.1089968588	-0.197718
O	-0.0650401995	-2.0097992074	-0.6768102372	-0.168226
C	-0.143293626	-2.0212232988	 0.659842134	 0.000967
C	-0.0909567564	-0.756454221	 1.153217788	 0.079426
C	-0.1411114153	-0.3298728226	 2.5650895556	-0.069624
C	-1.3363637827	-0.5319115838	 3.4078457369	-0.168194
O	-0.1938889584	-1.3772493943	 3.5354826378	-0.227076
H	 1.0214350541	 1.9043966227	 0.4178590567	 0.138657
H	 0.2363474458	 1.8317573772	-1.172831586	 0.155492
H	-0.7359874213	 2.0258199793	 0.3010074162	 0.138547
H	-0.219630933	-2.9870171803	 1.1332009126	 0.165234
H	 0.5207495787	 0.4949263748	 2.8330389165	 0.103205
H	-1.5220888122	 0.1330637991	 4.2502107347	 0.121634
H	-2.2161760605	-0.9978290749	 2.9678466596	 0.121186
54.4211	132.5424	146.6176	172.3524	268.6536	286.216	434.8819	487.2856	612.4465	622.6349	702.9714	730.6131	860.7697	863.4769	899.3611	916.782	947.0296	1011.0923	1028.4254	1067.9531	1095.1932	1146.8218	1153.2486	1169.2842	1186.8138	1271.9863	1302.0923	1390.1035	1417.7082	1445.187	1481.6892	1482.6113	1516.8483	1534.7199	1655.3826	3039.5661	3085.1482	3094.0325	3098.4134	3141.6906	3179.6338	3275.9705
CC1=NOC=C1C1CO1	Cc1nocc1[C@H]1CO1	
InChI=1S/C6H7NO2/c1-4-5(2-9-7-4)6-3-8-6/h2,6H,3H2,1H3	InChI=1S/C6H7NO2/c1-4-5(2-9-7-4)6-3-8-6/h2,6H,3H2,1H3/t6-/m1/s1
