14
gdb 33721	6.2567	0.95989	0.95903	4.6284	76.25	-0.2688	-0.0233	0.2455	1197.8451	0.099283	-399.451797	-399.44407	-399.443126	-399.483977	29.447	
C	-0.0575468746	-1.0804137019	-0.1380183412	-0.335602
C	-0.0261439883	 0.1170713291	-0.0436001283	 0.069356
C	 0.0269691542	 1.5360970547	 0.0961034366	 0.311664
C	-0.6481236935	 2.4502008707	 1.1611585619	-0.281417
C	-0.0333008829	 3.335079708	 0.046304568	 0.305117
C	 1.2623587544	 2.484466223	 0.0868441925	-0.281417
O	-0.5848803524	 2.4069814678	-0.9641897307	-0.345919
C	-0.1755263426	 4.753750419	-0.1614076331	 0.180698
N	-0.2716954585	 5.8973326605	-0.2958018609	-0.338506
H	-0.0888758048	-2.1388241383	-0.2272664804	 0.197609
H	-1.7366379935	 2.4172805498	 1.1685755821	 0.138327
H	-0.1991541709	 2.492583791	 2.1549118772	 0.120881
H	 1.8770411905	 2.5298243941	 0.9874124825	 0.120881
H	 1.8346853528	 2.4813396325	-0.8396730962	 0.138327
109.4401	111.0134	209.3747	212.1086	442.797	462.7442	494.0725	535.154	536.8597	553.9441	592.7788	616.7071	641.2512	697.5026	732.6948	818.5012	952.2497	967.0165	997.3585	1076.1357	1084.3056	1119.0382	1123.2833	1127.1783	1169.4434	1238.9884	1357.3955	1465.6657	1511.4	2245.4473	2362.618	3080.1775	3087.5966	3173.2359	3177.1413	3497.6739
C#CC12CC(C1)(O2)C#N	C#C[C@@]12C[C@@](C1)(O2)C#N	
InChI=1S/C7H5NO/c1-2-6-3-7(4-6,5-8)9-6/h1H,3-4H2	InChI=1S/C7H5NO/c1-2-6-3-7(4-6,5-8)9-6/h1H,3-4H2/t6-,7+
