22
gdb 102311	2.35851	0.952	0.80184	4.7645	84.81	-0.2291	0.0316	0.2607	1553.8413	0.193047	-400.514448	-400.503585	-400.502641	-400.550802	38.511	
C	 0.1906015892	 1.4182650428	 0.246870154	-0.325251
N	 0.049228129	-0.0034309204	-0.0367381596	-0.275738
C	-1.3221506164	-0.4860244918	-0.0222092019	-0.130343
C	-1.3729411549	-1.8949621767	-0.6583999944	-0.16282
N	-0.8755273707	-1.8695042167	-2.0285923159	-0.061547
C	-0.3421199866	-3.1600381727	-2.4472913213	-0.324401
C	-1.8610378667	-1.372549153	-2.9807093057	-0.327861
C	-1.8352590008	-0.554218488	 1.3573803383	 0.310241
N	-2.2573430569	-0.6088969102	 2.4315455257	-0.330516
H	 1.2410891067	 1.7019882169	 0.1421333603	 0.125195
H	-0.412154013	 2.069562289	-0.4114060394	 0.094915
H	-0.1081471812	 1.62132626	 1.2805146081	 0.143097
H	 0.4161939801	-0.2337307486	-0.9557087693	 0.228992
H	-2.0157328763	 0.1817380913	-0.5698024735	 0.099512
H	-0.7215730861	-2.5418753345	-0.0650806491	 0.128911
H	-2.3992956951	-2.2931874154	-0.5834562141	 0.10203
H	-1.1095750548	-3.9547742841	-2.4872032	 0.101189
H	 0.0954782681	-3.0667645182	-3.4459716321	 0.123011
H	 0.4450959833	-3.4788278633	-1.7585806397	 0.129104
H	-2.2052065937	-0.3747888896	-2.6956048141	 0.123949
H	-1.4062277646	-1.2959283382	-3.9726369284	 0.125665
H	-2.7471975382	-2.0294978785	-3.058427938	 0.102666
50.98	92.9422	106.6836	126.8506	190.285	229.8924	241.0545	245.697	285.2301	305.4674	348.0998	402.7248	421.214	500.1845	576.6867	589.3327	797.9629	833.3834	876.2386	984.2333	1038.1812	1045.656	1062.4611	1067.9104	1122.6387	1143.8612	1163.8131	1173.0887	1201.3132	1236.2636	1304.467	1314.5214	1318.4673	1362.8046	1401.8614	1445.8847	1462.4062	1467.2763	1480.0723	1483.6279	1491.1558	1494.4133	1499.9321	1503.6821	1513.2092	1517.9716	2359.389	2907.1068	2937.7438	2943.6074	2945.2175	2962.0211	3067.7028	3068.9136	3073.3763	3095.2176	3113.1459	3115.2458	3115.5773	3511.5278
CNC(CN(C)C)C#N	CN[C@@H](CN(C)C)C#N	
InChI=1S/C6H13N3/c1-8-6(4-7)5-9(2)3/h6,8H,5H2,1-3H3	InChI=1S/C6H13N3/c1-8-6(4-7)5-9(2)3/h6,8H,5H2,1-3H3/t6-/m1/s1
