16
gdb 23465	3.29431	1.38572	1.04673	1.7941	74.08	-0.2373	-0.0085	0.2288	1099.8974	0.125382	-434.00073	-433.993094	-433.99215	-434.033362	29.03	
O	-0.0713945426	 1.327051723	-0.2443777445	-0.392028
N	 0.0089093844	-0.0731854749	-0.2583130169	-0.197895
C	-1.1028694454	-0.6054869261	 0.0783928181	 0.33974
C	-2.3297870904	 0.1636417927	 0.5077979254	-0.245948
N	-3.4399348877	-0.6075777424	 1.0458383586	-0.212968
C	-3.3715086356	-1.8703851487	 1.1009464067	 0.047527
N	-2.2887781343	-2.7285202838	 0.7725993648	-0.124684
C	-2.0723126657	-2.9117639791	-0.6760444564	-0.252088
C	-1.1303312118	-2.086898551	 0.1411280246	-0.081394
H	 0.8246970194	 1.5858677625	-0.4837564883	 0.310771
H	-2.02680761	 0.9126306121	 1.2498645527	 0.15188
H	-2.7082190167	 0.7563992238	-0.3353832726	 0.146085
H	-4.2370102359	-2.4240941873	 1.4662201929	 0.121506
H	-1.7724911395	-3.9089554306	-0.9835089622	 0.134594
H	-2.7528545004	-2.3970044334	-1.3486303817	 0.134283
H	-0.1786072876	-2.5423546266	 0.3987325489	 0.120616
46.9656	165.2553	230.358	263.4615	356.5459	419.7599	438.3859	506.5792	508.1008	565.9422	628.3212	731.7065	756.8713	855.8048	916.7705	958.3403	969.5646	992.8982	995.9515	1038.823	1060.7739	1082.4912	1104.0908	1171.7968	1247.7799	1280.0639	1306.4446	1332.0753	1354.0911	1404.9451	1431.4774	1456.597	1501.3381	1721.1686	1728.1952	3028.4297	3049.5511	3113.682	3129.4983	3153.5736	3209.5016	3822.4419
ON=C1CN=CN2CC12	ON=C1CN=CN2C[C@@H]12	
InChI=1S/C5H7N3O/c9-7-4-1-6-3-8-2-5(4)8/h3,5,9H,1-2H2	InChI=1S/C5H7N3O/c9-7-4-1-6-3-8-2-5(4)8/h3,5,9H,1-2H2/t5-,8?/m0/s1
