19
gdb 77637	2.15445	1.44498	1.33039	4.8894	82.16	-0.2591	0.0127	0.2718	1118.9856	0.158456	-382.049155	-382.04012	-382.039175	-382.082489	33.911	
C	-0.0916011798	 1.4795520396	 0.0523224707	-0.331615
N	 0.1209370811	 0.0479851013	-0.1103967185	-0.143835
C	 0.6906098116	-0.5654998083	-1.28522727	 0.260494
C	-0.0577330422	-1.6590183402	-1.9854267565	-0.478838
C	 1.8200075956	 0.288208017	-1.9050932948	-0.287883
C	 2.5764690139	 0.2709884425	-0.5438595014	-0.296761
C	 1.4268744253	-0.5645381932	 0.0602125503	 0.147725
C	 1.5864974067	-1.6042314614	 1.0317013263	 0.226809
N	 1.7482994595	-2.448901013	 1.8061337767	-0.35413
H	 0.7012916253	 2.121701753	-0.3532091431	 0.112325
H	-1.0317098422	 1.7442784964	-0.4401980017	 0.133177
H	-0.1956612785	 1.6948513075	 1.1193102063	 0.139272
H	-0.761343298	-1.2361475079	-2.7124541185	 0.128397
H	 0.6262185568	-2.3196862702	-2.5272206476	 0.126852
H	-0.6281857888	-2.2502463613	-1.2655137222	 0.147613
H	 2.3606770817	-0.2504454276	-2.6854487418	 0.117727
H	 1.5190066392	 1.2623817574	-2.2995214579	 0.109225
H	 3.5077384869	-0.2949611881	-0.5910227743	 0.129423
H	 2.7723093759	 1.2300304668	-0.057274192	 0.114022
114.5109	146.3918	162.0838	182.667	227.9407	274.5928	280.1496	326.1951	418.0975	498.552	550.608	564.1946	592.9528	692.4994	730.8029	771.4544	804.2765	915.6304	954.5187	988.6641	1042.2183	1076.2244	1123.9472	1138.6503	1159.9462	1174.2674	1196.5529	1226.0308	1228.8277	1237.1564	1291.6401	1402.7592	1435.5094	1456.4786	1473.5463	1481.9549	1487.3437	1491.4167	1505.0331	1513.7052	2347.4977	3014.2093	3032.7127	3066.2251	3072.0852	3086.8373	3095.1796	3116.1735	3117.6543	3130.8726	3134.7368
CN1C2(C)CCC12C#N	CN1[C@@]2(C)CC[C@@]12C#N	
InChI=1S/C7H10N2/c1-6-3-4-7(6,5-8)9(6)2/h3-4H2,1-2H3	InChI=1S/C7H10N2/c1-6-3-4-7(6,5-8)9(6)2/h3-4H2,1-2H3/t6-,7-,9?/m0/s1
