20
gdb 56041	2.925	1.19256	1.10131	6.6033	74.42	-0.2366	0.0363	0.2729	1190.201	0.173636	-440.33025	-440.321944	-440.321	-440.364058	31.253	
O	-1.608966986	 2.1391412401	 2.0180911145	-0.389081
C	-0.8514235035	 2.1699765725	 0.9197944032	 0.37721
O	 0.296401234	 2.5363264802	 0.9658800213	-0.334146
C	-1.4690292725	 1.7807642634	-0.4382322079	-0.343997
C	-2.7069011442	 0.8680693062	-0.5327326514	-0.001266
C	-2.5658328167	-0.468889321	 0.2641946934	-0.225015
C	-3.6782548787	-0.422382466	 1.3365752672	-0.169667
N	-3.9922557241	 1.0141325712	 1.4238102846	-0.310479
H	-4.8568001009	 1.2019804426	 1.9196382002	 0.235691
H	-2.5291140242	 1.7762858845	 1.8698370387	 0.330198
C	-4.001922672	 1.4895063192	 0.0336896797	-0.195305
H	-1.6841258111	 2.7292461241	-0.9483600888	 0.12929
H	-0.6441094568	 1.3310193895	-0.9979922958	 0.134778
H	-2.8508150492	 0.6585778938	-1.5962120269	 0.087452
H	-2.6786884101	-1.3420794424	-0.3812882986	 0.109814
H	-1.5797769655	-0.5376296673	 0.7303222172	 0.130374
H	-4.5516172335	-1.0083513707	 1.0119453846	 0.099483
H	-3.3568357979	-0.8023598013	 2.3096202803	 0.121611
H	-4.0085595132	 2.5829950966	 0.0004789041	 0.115645
H	-4.8786942041	 1.1234091947	-0.5233761596	 0.097409
45.6168	100.7829	121.5596	220.9651	298.7126	337.0689	367.1855	517.7049	560.939	605.4248	640.608	738.103	789.0517	845.6823	870.8133	887.2057	906.9043	944.1879	957.3767	1003.4005	1032.8602	1044.7981	1070.9749	1107.5818	1131.607	1190.4053	1219.0176	1223.4507	1256.8397	1285.8953	1286.6309	1308.749	1326.8351	1332.4776	1383.1062	1398.1075	1431.3644	1456.8818	1474.1265	1496.8899	1512.6814	1528.4683	1835.5563	2975.2031	2984.2997	3030.7395	3063.7605	3068.5361	3074.9722	3083.7086	3093.1826	3093.6902	3117.2471	3537.3938
[O-]C(=O)CC1CC[NH2+]C1	OC(=O)C[C@H]1CCNC1	
InChI=1S/C6H11NO2/c8-6(9)3-5-1-2-7-4-5/h5,7H,1-4H2,(H,8,9)	InChI=1S/C6H11NO2/c8-6(9)3-5-1-2-7-4-5/h5,7H,1-4H2,(H,8,9)/t5-/m1/s1
