19
gdb 71998	1.848	1.83214	1.71443	0.874	75.44	-0.2107	0.0659	0.2766	1005.9402	0.15733	-422.967466	-422.95866	-422.957716	-423.000244	33.869	
C	 0.0111303313	 1.4024875479	-0.0533854592	-0.519493
C	 0.0151537191	-0.0863508898	-0.0121402014	 0.348875
O	 0.9614293166	-0.8240851911	-0.7949825266	-0.329806
C	 0.186436161	-2.0112312062	-0.4604179305	 0.019178
C	 0.4821078429	-2.2465563669	 1.0437951758	-0.307948
C	-0.3079048482	-0.9515929768	 1.2361744279	 0.243977
O	-0.8466911544	-0.4266066257	 2.3933059087	-0.458125
C	-1.0651727562	-1.1297252838	-0.074513488	 0.186153
C	-2.515046226	-1.1412686369	-0.4310165082	-0.533202
H	 0.991896303	 1.7979146372	 0.2351969125	 0.128979
H	-0.2225337739	 1.7767846207	-1.0549958997	 0.131508
H	-0.7343470216	 1.7915860193	 0.6463736464	 0.131857
H	 0.2467274441	-2.801366864	-1.205878796	 0.086148
H	-0.0669541131	-3.1063586922	 1.4374162503	 0.105144
H	 1.5377303771	-2.291497892	 1.3316389423	 0.09336
H	-0.1634517259	 0.0780549477	 2.8494744626	 0.288995
H	-3.0394483039	-0.3326302753	 0.0884440443	 0.134089
H	-2.6676868339	-1.0061099016	-1.5074957306	 0.125548
H	-2.994221788	-2.0825852507	-0.1382764807	 0.124763
152.5857	171.8588	176.4062	187.9642	224.8848	260.6688	306.8507	383.6321	414.3333	472.1172	567.9429	633.684	654.0845	673.8272	734.2583	786.7178	835.3402	902.5005	922.4124	930.658	1020.5277	1061.588	1088.9324	1102.869	1121.87	1135.0048	1153.8648	1198.6341	1233.7131	1259.2653	1300.6001	1316.0499	1369.0703	1409.8705	1416.3135	1475.8616	1480.2031	1486.2383	1492.8474	1494.9234	1523.6074	3024.2312	3031.1859	3042.4648	3083.4772	3093.4267	3098.8334	3108.2539	3115.8648	3142.678	3784.9731
CC12OC3CC1(O)C23C	C[C@@]12O[C@H]3C[C@]1(O)[C@@]23C	
InChI=1S/C7H10O2/c1-5-4-3-7(5,8)6(5,2)9-4/h4,8H,3H2,1-2H3	InChI=1S/C7H10O2/c1-5-4-3-7(5,8)6(5,2)9-4/h4,8H,3H2,1-2H3/t4-,5+,6-,7-/m0/s1
