19
gdb 119255	2.0068	1.11089	0.80051	3.2471	72.71	-0.2717	0.0034	0.2751	1443.7947	0.156597	-460.162474	-460.152612	-460.151668	-460.198036	35.011	
O	-1.9048499064	 1.3673674848	-1.3674039122	-0.421328
C	-1.8625736682	-0.0504573769	-1.3978635622	-0.073172
C	-1.6396175391	-0.5249172837	 0.036250091	-0.24469
C	-1.5903945717	-2.0305332601	 0.1609394349	 0.407588
C	-1.9812725179	-2.7308206985	 1.4366275616	-0.329984
C	-2.8492699459	-2.8427302302	 0.2011750608	-0.305635
O	-0.5511941975	-2.6288048615	-0.6139885757	-0.232198
C	 0.6865557618	-2.6455195676	-0.0730729618	 0.155603
O	 1.6358767068	-3.0697830762	-0.6603560111	-0.274688
H	-1.9652455088	 1.685816434	-2.2725735571	 0.288948
H	-2.8034592664	-0.4738886226	-1.7840514341	 0.090273
H	-1.0500154714	-0.4187713557	-2.0399747346	 0.109244
H	-0.7096936235	-0.0812812289	 0.4128134581	 0.11164
H	-2.4487132173	-0.1394894204	 0.6659017243	 0.114239
H	-1.4149445921	-3.6095279704	 1.7232380925	 0.129894
H	-2.3253842187	-2.1243114004	 2.2670466457	 0.126763
H	-3.7951547396	-2.3135360766	 0.1793711028	 0.12357
H	-2.8396624041	-3.786740964	-0.3304854032	 0.136178
H	 0.71188192	-2.2406648853	 0.9551879305	 0.087755
58.5817	87.8142	116.7664	154.9182	171.2943	211.7566	259.501	304.0137	336.3621	371.4962	442.0018	534.4865	594.9412	771.3163	788.8137	828.0428	907.8295	940.4078	958.8217	999.9821	1029.9843	1052.4877	1060.1348	1080.157	1086.1497	1102.8104	1172.2769	1190.8402	1206.3422	1250.6035	1274.4473	1302.0549	1334.5621	1378.5143	1421.0795	1455.7224	1462.5379	1481.5091	1497.5182	1529.6638	1864.1751	2973.0781	2975.3505	3019.1063	3035.5702	3084.6219	3139.0148	3144.0993	3223.1387	3237.7639	3833.577
OCCC1(CC1)OC=O	OCCC1(CC1)OC=O	
InChI=1S/C6H10O3/c7-4-3-6(1-2-6)9-5-8/h5,7H,1-4H2	InChI=1S/C6H10O3/c7-4-3-6(1-2-6)9-5-8/h5,7H,1-4H2
