19
gdb 37127	3.59275	1.59762	1.51328	1.2859	76.89	-0.1904	0.0774	0.2678	953.1068	0.161011	-385.804691	-385.797838	-385.796894	-385.835414	29.1	
C	-0.00584202	 1.466978161	-0.0852315164	-0.295756
C	 1.3333826173	 0.7951144811	 0.0311001969	-0.113169
C	 0.0434197221	-0.0254696698	 0.0704753421	-0.12346
C	 0.4850191992	-0.732247539	-1.233860918	 0.376126
C	 0.8020254473	 0.1138285016	-2.4326654372	-0.426037
C	 1.7788226083	 0.0556832308	-1.2677352162	 0.195493
C	 2.8589023495	-1.0051075502	-1.2558737181	-0.308601
C	 2.0874178424	-2.3112325331	-1.61432748	-0.097074
O	 0.7186654899	-2.102576895	-1.2313214086	-0.288397
H	-0.3115119989	 1.9921213398	 0.8152599827	 0.115241
H	-0.3464880797	 1.9491148659	-0.9950832941	 0.112634
H	 2.0266731423	 1.0401929039	 0.8265920216	 0.087309
H	-0.4354550436	-0.5533706836	 0.8843746573	 0.09573
H	 1.1050091947	-0.4395284237	-3.3157770531	 0.120935
H	 0.2574367413	 1.0200606264	-2.6703813498	 0.119055
H	 3.6891257	-0.8331078942	-1.948098462	 0.106518
H	 3.2797642811	-1.0772548876	-0.2476438919	 0.110638
H	 2.1456606792	-2.511701513	-2.6929723335	 0.101586
H	 2.4540262676	-3.1980757511	-1.0890278617	 0.111231
176.8853	218.8732	294.6812	322.612	456.4159	462.6165	530.3039	602.4874	650.1621	726.7747	737.4421	801.2268	824.2975	844.9839	883.9586	901.6302	924.5133	943.3722	946.5939	966.0374	1015.1007	1025.1635	1036.6796	1047.1011	1067.8341	1094.183	1165.1872	1168.6707	1199.2673	1209.7499	1229.5867	1245.3773	1275.8919	1321.5269	1331.5416	1358.444	1388.065	1470.9123	1490.9641	1509.0372	1526.17	3007.1322	3046.6575	3078.0813	3092.6379	3124.0411	3139.0814	3176.5171	3197.2908	3205.3628	3216.4567
C1C2C1C13CC21CCO3	C1[C@H]2[C@@H]1[C@@]13C[C@@]21CCO3	
InChI=1S/C8H10O/c1-2-9-8-4-7(1,8)5-3-6(5)8/h5-6H,1-4H2	InChI=1S/C8H10O/c1-2-9-8-4-7(1,8)5-3-6(5)8/h5-6H,1-4H2/t5-,6+,7-,8-/m0/s1
