15
gdb 9189	7.48736	0.9109	0.82043	2.2547	65.45	-0.2545	0.0284	0.2829	1342.3784	0.116404	-399.801184	-399.791853	-399.790908	-399.836908	31.002	
C	 0.0979870306	 1.3862354613	 0.1124749158	-0.33055
N	-0.0791084924	-0.0496446805	 0.136708714	-0.3593
C	-1.2950517424	-0.6340865485	-0.0086124092	 0.539082
O	-2.352060186	-0.0635698107	-0.1702491302	-0.409786
O	-1.1598943596	-1.9888119783	 0.0540960433	-0.275666
C	-2.3975252418	-2.703645991	-0.0895020064	-0.219368
C	-2.1238647493	-4.1290864011	-0.0052248619	 0.285109
C	-1.9341532505	-5.3128170643	 0.059572965	-0.41699
H	 0.7546838949	 1.6956173964	-0.7085071178	 0.1275
H	-0.8849944135	 1.8351246007	-0.0339110448	 0.171007
H	 0.5188855649	 1.7542384654	 1.0549948332	 0.127515
H	 0.7121880777	-0.6579491478	 0.2630498136	 0.256598
H	-3.0959233977	-2.3899858444	 0.6940877547	 0.150938
H	-2.8603109673	-2.4478281809	-1.048959529	 0.150925
H	-1.7648822873	-6.3596727863	 0.1169927998	 0.202986
23.4871	63.3514	109.6496	113.3654	149.5871	235.8385	325.926	327.8293	424.1552	469.2004	559.9362	613.5559	683.7535	725.6278	776.7971	939.8821	985.7694	1015.7098	1036.2404	1159.5046	1168.5308	1177.6974	1248.2597	1251.2163	1391.0096	1447.1958	1490.1526	1497.575	1502.6276	1571.5135	1816.976	2250.6622	3026.5907	3043.2145	3076.2954	3077.0103	3153.994	3506.4467	3659.2507
CNC(=O)OCC#C	CNC(=O)OCC#C	
InChI=1S/C5H7NO2/c1-3-4-8-5(7)6-2/h1H,4H2,2H3,(H,6,7)	InChI=1S/C5H7NO2/c1-3-4-8-5(7)6-2/h1H,4H2,2H3,(H,6,7)
