18
gdb 78718	4.66948	1.15951	1.05215	1.1021	84.51	-0.2255	0.0338	0.2592	1172.594	0.147103	-364.706621	-364.698722	-364.697777	-364.738618	31.507	
C	-0.1086385655	 1.4756724468	 0.0179031507	-0.400967
C	 0.033862823	-0.0351567189	-0.0118671834	 0.04557
C	 0.8347794499	-0.5887142623	-1.1823155667	-0.125814
C	 2.0595362158	-0.5567011021	-0.3300825944	-0.080111
N	 1.150630211	-0.5078045838	 0.9150362291	-0.186712
C	 1.0228859565	-2.0083955474	 0.7989166112	-0.239075
C	 1.4676295954	-1.9128613421	-0.659761323	 0.214197
C	 1.9578731437	-2.9267469807	-1.5246475346	 0.095468
C	 2.3693262968	-3.8089112125	-2.233348972	-0.371588
H	 0.8490172312	 1.9651395562	-0.1848315665	 0.12113
H	-0.8305395184	 1.8108256972	-0.7344158049	 0.114286
H	-0.4578258943	 1.8010647306	 1.0021012858	 0.126892
H	-0.9275394848	-0.5131287122	 0.2127366089	 0.072965
H	 0.7480203517	-0.4122953796	-2.2473072173	 0.100715
H	 3.0573660945	-0.1530808346	-0.421947417	 0.109611
H	 1.7771747752	-2.4948394621	 1.4216034897	 0.117484
H	 0.0295063266	-2.4050434158	 1.0353636957	 0.103956
H	 2.7338769416	-4.5833321269	-2.8613456013	 0.181993
130.1617	134.8126	230.6383	247.4265	296.3941	406.9148	469.3156	498.4409	527.835	575.439	587.4829	655.7734	745.3745	782.5626	803.4569	838.7738	879.8129	905.5984	929.2907	952.2253	1005.5335	1010.2927	1062.4615	1076.3749	1093.6335	1132.8608	1135.0715	1182.0164	1201.4898	1231.2989	1279.9722	1294.1911	1376.2873	1391.3585	1411.6521	1488.8358	1492.2913	1512.1547	2231.2528	3028.111	3036.5435	3043.3138	3106.5237	3109.4655	3116.2183	3194.3307	3226.2562	3503.1224
CC1C2C3N1CC23C#C	C[C@H]1[C@H]2[C@H]3N1C[C@@]23C#C	
InChI=1S/C8H9N/c1-3-8-4-9-5(2)6(8)7(8)9/h1,5-7H,4H2,2H3	InChI=1S/C8H9N/c1-3-8-4-9-5(2)6(8)7(8)9/h1,5-7H,4H2,2H3/t5-,6-,7+,8-/m0/s1
