15
gdb 8780	3.66522	1.2946	1.16903	3.8678	64.45	-0.2594	-0.0158	0.2436	1059.82	0.117438	-395.983215	-395.974132	-395.973188	-396.017205	31.642	
C	-0.0937060433	 1.4218785523	 0.0362278461	-0.343321
N	-0.0230336235	-0.0287520672	 0.0102355398	-0.265901
C	 0.5839890557	-0.5887832402	-0.9549670589	 0.345858
N	 1.1536430874	 0.0036991304	-2.0744580452	-0.565921
C	 0.5833915083	-2.1158983896	-1.011107343	-0.060687
O	-0.2884262384	-2.6104578423	-2.0091824774	-0.400852
C	 1.9607325926	-2.6260476127	-1.2178475723	 0.250136
N	 3.0406894111	-2.9813640872	-1.4271336983	-0.326666
H	 0.8845338237	 1.905297619	-0.1220435389	 0.107243
H	-0.7828697827	 1.8060542564	-0.7295719057	 0.127123
H	-0.4681789013	 1.7466298948	 1.0095027745	 0.136149
H	 1.2484041804	 1.007851567	-2.0499874141	 0.26227
H	 1.9692876054	-0.458081797	-2.4553478971	 0.271371
H	 0.2077384175	-2.4709382853	-0.0503378618	 0.164259
H	-0.1253253031	-2.1086150685	-2.8171029377	 0.298939
53.7598	108.7651	131.1079	186.0554	210.0299	283.7779	299.2391	352.7328	396.1254	441.6259	471.3445	578.1571	600.2201	674.6447	752.5907	864.6261	932.0929	1013.2821	1058.4189	1104.6896	1114.7418	1180.8344	1266.0063	1305.2923	1335.6097	1416.326	1433.6706	1487.5394	1508.634	1645.4492	1757.2637	2348.7258	2965.5198	3028.4486	3109.1493	3120.4171	3554.4907	3663.8065	3794.1532
CN=C(N)C(O)C#N	CN=C(N)[C@@H](O)C#N	
InChI=1S/C4H7N3O/c1-7-4(6)3(8)2-5/h3,8H,1H3,(H2,6,7)	InChI=1S/C4H7N3O/c1-7-4(6)3(8)2-5/h3,8H,1H3,(H2,6,7)/t3-/m0/s1
