19
gdb 69664	3.61471	1.44697	1.21671	3.5429	80.29	-0.2316	0.0033	0.2349	1072.3576	0.160731	-382.019302	-382.011686	-382.010742	-382.051011	30.351	
C	 0.036747425	 1.5883966362	 0.2337263273	-0.484209
C	-0.055593973	 0.1150623971	-0.0264738645	 0.292555
C	-0.8760752631	-0.8031583988	 0.7907171082	-0.276661
N	 0.6111637406	-0.923374398	 0.9181081806	-0.226907
C	 0.9280208518	-1.652203998	-0.2944134126	 0.346552
N	 1.0015104678	-2.8589425751	-0.6587184422	-0.271497
C	 0.7924763565	-2.7829362008	-2.1395739609	-0.160039
C	 0.024103512	-1.4326084292	-2.411599173	-0.27674
C	 0.5909447547	-0.5767112912	-1.2671026539	-0.13127
H	 1.0312023658	 1.9725803868	-0.015715623	 0.128
H	-0.6972055108	 2.1308908697	-0.3735850571	 0.127827
H	-0.1610844435	 1.812426015	 1.285763464	 0.134143
H	-1.3398215394	-0.3912253629	 1.6822540032	 0.12869
H	-1.4137595378	-1.635898539	 0.3458082156	 0.131219
H	 1.7577165233	-2.8096608578	-2.6619499211	 0.111049
H	 0.2237299791	-3.6589146856	-2.4622166238	 0.114094
H	 0.2020521615	-1.0327048479	-3.4128235302	 0.104042
H	-1.0524124388	-1.5965388519	-2.2956885164	 0.110079
H	 1.4607646585	 0.0139594215	-1.5751712201	 0.099073
143.906	177.0448	214.4063	253.2694	296.1267	343.5573	482.9807	530.2711	584.5455	626.9129	690.3723	708.4953	749.6109	847.2809	875.5873	896.1978	923.256	939.3924	971.9209	1010.3119	1036.43	1066.0946	1089.926	1104.3195	1133.5774	1142.3968	1167.6322	1212.0723	1231.0452	1262.6491	1293.2841	1312.7134	1317.9228	1389.0869	1421.8762	1480.9257	1484.1822	1490.4582	1499.6939	1504.4486	1753.5906	3027.0901	3030.7158	3049.8224	3053.2087	3093.6227	3094.1161	3110.9499	3113.5948	3116.2371	3203.5522
CC12CN1C1=NCCC21	C[C@]12CN1[C]1[N]CC[C@@H]21	
InChI=1S/C7H10N2/c1-7-4-9(7)6-5(7)2-3-8-6/h5H,2-4H2,1H3	InChI=1S/C7H10N2/c1-7-4-9(7)6-5(7)2-3-8-6/h5H,2-4H2,1H3/t5-,7-,9?/m1/s1
