17
gdb 34594	3.64426	1.31739	1.13314	1.7801	82.83	-0.2269	-0.0283	0.1985	1094.3856	0.13681	-384.646906	-384.639563	-384.638619	-384.678499	29.542	
C	 0.0878354222	-1.1943334298	-0.01032848	-0.388215
C	-0.0117686645	 0.0071679965	 0.0062660305	 0.164426
C	-0.0513849347	 1.4215778165	 0.019299309	 0.207149
C	-1.1716370048	 2.162765527	 0.0596788825	-0.164483
C	-1.0560785857	 3.6692235751	 0.0437147365	-0.258203
C	 0.4255957622	 4.0598403281	-0.0578245624	 0.085575
C	 1.1628157967	 3.2692060835	-1.162694638	-0.243335
C	 1.252443446	 2.2230406988	-0.0283673479	-0.024558
O	 1.1614103163	 3.3006267551	 0.9463659243	-0.29025
H	 0.1546515107	-2.2538306369	-0.0193583523	 0.191266
H	-2.1538733554	 1.7047875563	 0.1118614334	 0.101272
H	-1.6263342847	 4.0937864125	-0.7941056193	 0.112247
H	-1.4908611631	 4.0930660553	 0.9588603412	 0.12346
H	 0.592433818	 5.1362488588	 0.0303191024	 0.079282
H	 0.6299887623	 3.0007643324	-2.0764885241	 0.10551
H	 2.1335246755	 3.7127268646	-1.3892086432	 0.111611
H	 2.145584913	 1.6106507261	 0.0980997275	 0.087247
115.7116	150.0056	283.8818	341.543	401.5392	434.3434	452.4689	524.9222	577.6571	638.3026	640.4899	655.2833	766.927	831.9526	836.4819	875.6144	899.4245	948.1492	960.4272	969.9452	1005.2435	1069.2019	1082.9936	1111.0511	1168.9847	1177.4151	1225.1602	1251.7476	1280.8658	1324.5516	1341.8062	1343.1433	1370.967	1459.8638	1486.6023	1674.9973	2216.855	3012.863	3042.0648	3073.6299	3083.2411	3114.255	3141.4558	3185.2772	3503.5101
C#CC1=CCC2CC1O2	C#CC1=CC[C@@H]2C[C@H]1O2	
InChI=1S/C8H8O/c1-2-6-3-4-7-5-8(6)9-7/h1,3,7-8H,4-5H2	InChI=1S/C8H8O/c1-2-6-3-4-7-5-8(6)9-7/h1,3,7-8H,4-5H2/t7-,8-/m1/s1
