19
gdb 53617	4.87424	0.74654	0.67543	1.3315	86.88	-0.2262	0.0135	0.2398	1690.7099	0.157827	-385.869204	-385.859573	-385.858629	-385.906183	33.419	
C	 0.0314609854	 1.4901972228	 0.0045036873	-0.49705
C	 0.0352850945	 0.0359041558	-0.06335724	 0.094501
C	 0.0381202196	-1.1661526082	-0.1273309683	 0.049256
C	 0.0236668718	-2.6221299509	-0.1876308719	-0.359862
C	-1.3539990393	-3.2358249172	 0.155912777	 0.09619
O	-2.3277677444	-2.8508029847	-0.8149286398	-0.268664
C	-2.9192301418	-3.9990190564	-1.4153862911	-0.112191
C	-2.2380074665	-5.1734705203	-0.7720003509	-0.096787
C	-1.3601840355	-4.741826207	 0.1251202551	-0.098889
H	 0.5184478062	 1.8512409075	 0.917407483	 0.142724
H	 0.5608337267	 1.9303865318	-0.8480457639	 0.144878
H	-0.9906527562	 1.8850506749	-0.0031974281	 0.147884
H	 0.3103987446	-2.969764246	-1.1878026741	 0.125762
H	 0.7642606547	-3.0318768854	 0.5130542436	 0.117377
H	-1.6595135001	-2.8474728023	 1.140685157	 0.089641
H	-4.0064078106	-3.997686084	-1.2357654494	 0.105892
H	-2.7740168854	-3.9709926181	-2.506731819	 0.106659
H	-2.4639246247	-6.2021110759	-1.0230815576	 0.107398
H	-0.7211411189	-5.3452744862	 0.7573928612	 0.105282
17.6584	50.7819	71.6759	97.2833	208.9939	234.2322	289.2172	363.1739	383.873	442.4929	525.997	704.7229	745.302	785.9807	812.571	837.2891	937.5262	959.8576	979.1401	1004.9607	1043.1134	1050.9765	1053.5675	1061.4627	1114.8788	1129.2011	1170.5563	1193.6956	1233.2721	1274.7561	1328.5327	1361.6928	1374.6846	1389.7587	1415.0813	1458.9782	1479.1826	1479.6308	1521.3309	1691.7665	2375.8615	2969.4244	2974.2718	2989.1384	3011.3751	3024.0855	3053.593	3082.9489	3084.5183	3204.5535	3229.2578
CC#CCC1OCC=C1	CC#CC[C@H]1OCC=C1	
InChI=1S/C8H10O/c1-2-3-5-8-6-4-7-9-8/h4,6,8H,5,7H2,1H3	InChI=1S/C8H10O/c1-2-3-5-8-6-4-7-9-8/h4,6,8H,5,7H2,1H3/t8-/m1/s1
