21
gdb 83419	2.77178	1.29545	1.11205	1.5566	82.91	-0.2416	0.0817	0.3233	1202.5121	0.182609	-387.040792	-387.032156	-387.031212	-387.074128	33.207	
C	 0.0155539656	 1.6232627406	 0.2210613377	-0.423593
C	 0.0509641715	 0.1123295097	 0.317159269	-0.058926
C	 1.179078172	-0.7688165178	-0.1614249769	-0.126506
C	 2.550830971	-0.1421645073	 0.1154748405	-0.225723
C	 2.1929724792	-0.0612905865	 1.6337494417	-0.308523
C	 0.8186264717	-0.6857561382	 1.3361438656	 0.353449
C	 0.1814916288	-1.7046447582	 2.2101835174	-0.049997
C	-1.0453550984	-1.4396263996	 2.9804834429	-0.179618
O	-1.0811338791	-2.2309397884	 1.7913118591	-0.233062
H	 0.9847053022	 2.0831133811	 0.4316896611	 0.118203
H	-0.2861757072	 1.9391632029	-0.7837050125	 0.118302
H	-0.7069033413	 2.0439081485	 0.9295195483	 0.11412
H	-0.9109353482	-0.358368106	 0.1237525168	 0.103984
H	 0.9946979296	-1.5854969322	-0.8501080902	 0.088004
H	 3.3766650925	-0.8308469046	-0.0747508145	 0.102981
H	 2.7684022732	 0.8011671283	-0.3953635721	 0.097203
H	 2.823630121	-0.719724045	 2.2371863575	 0.101928
H	 2.1879989567	 0.928513314	 2.1013349183	 0.095876
H	 0.8609275777	-2.4640927116	 2.6047224957	 0.085757
H	-1.2358827522	-1.981083919	 3.9061203123	 0.113577
H	-1.5177223663	-0.4617498805	 2.9014980323	 0.112564
72.7227	136.8723	174.7458	195.7772	245.834	265.6429	333.8221	397.065	489.4222	547.9464	650.6979	723.7992	758.423	801.0553	846.1555	870.3241	913.3262	927.4705	950.9715	983.9843	997.624	1017.4244	1056.5385	1073.061	1100.0954	1124.8541	1135.7541	1150.663	1160.7242	1173.1543	1213.0309	1223.7292	1248.2387	1256.1655	1291.3189	1293.3387	1347.8045	1416.8154	1424.685	1473.161	1477.3363	1501.9751	1508.9289	1510.6813	1521.5581	3031.3859	3044.4774	3052.626	3075.4679	3083.607	3087.2634	3089.4955	3107.605	3111.3745	3140.2228	3172.571	3175.4747
CC1C2CCC12C1CO1	C[C@H]1[C@H]2CC[C@@]12[C@H]1CO1	
InChI=1S/C8H12O/c1-5-6-2-3-8(5,6)7-4-9-7/h5-7H,2-4H2,1H3	InChI=1S/C8H12O/c1-5-6-2-3-8(5,6)7-4-9-7/h5-7H,2-4H2,1H3/t5-,6+,7+,8+/m0/s1
