20
gdb 94771	3.58903	1.16596	1.02178	3.1327	79.95	-0.2418	-0.0232	0.2186	1223.8498	0.171222	-403.153234	-403.144747	-403.143803	-403.186188	32.687	
C	-0.0445639924	 1.5619940354	 0.015659327	-0.397454
C	 0.0576584929	 0.0414556365	 0.0166333139	 0.072406
C	 0.7287159579	-0.5715025701	-1.237091772	-0.254008
C	 1.3336319049	-1.8973130234	-0.7340396991	-0.294577
C	 1.572891256	-1.6458389498	 0.7465005746	 0.242644
C	 2.2424816686	-0.3579647207	 1.1234976952	-0.29431
N	 0.7937856311	-0.4600551712	 1.206437198	-0.134905
C	 1.6206752806	-2.7888915666	 1.6932937426	 0.093941
O	 1.6508667128	-3.9468526022	 1.3558063001	-0.26338
H	 0.9451605826	 2.0242935874	-0.0653258591	 0.115093
H	-0.6447484915	 1.9032286733	-0.8335671093	 0.119801
H	-0.5150642348	 1.9213069003	 0.9349235338	 0.129487
H	-0.9504396909	-0.3793066183	 0.1163392642	 0.088656
H	 0.0132815961	-0.7167523946	-2.0501249288	 0.108751
H	 1.5079124631	 0.0958053588	-1.6206436656	 0.103679
H	 0.6310651135	-2.7298963022	-0.8362987099	 0.12549
H	 2.2448948357	-2.1813501909	-1.2670261837	 0.114586
H	 2.7462093741	-0.2718783183	 2.082812239	 0.123357
H	 2.7089163366	 0.2054086178	 0.3190858174	 0.121778
H	 1.6212266132	-2.488098361	 2.7644979117	 0.078965
84.6482	163.945	189.3925	211.3034	241.9228	296.1756	369.5644	401.5905	457.7832	526.5589	602.6387	653.9296	724.6269	785.617	814.8874	833.4388	921.9023	934.6072	956.9234	976.4022	1001.8441	1035.3317	1078.2593	1100.5257	1117.0898	1136.2939	1176.3813	1205.8958	1224.7801	1278.8341	1295.3989	1319.8396	1353.7586	1367.3186	1380.7563	1409.4339	1426.5487	1489.1584	1490.9508	1495.8162	1498.6522	1521.3293	1816.1729	2890.3642	3026.7074	3037.2284	3049.8304	3062.4973	3095.6977	3104.7642	3105.5873	3110.0486	3118.2557	3188.3987
CC1CCC2(CN12)C=O	C[C@H]1CC[C@]2(CN12)C=O	
InChI=1S/C7H11NO/c1-6-2-3-7(5-9)4-8(6)7/h5-6H,2-4H2,1H3	InChI=1S/C7H11NO/c1-6-2-3-7(5-9)4-8(6)7/h5-6H,2-4H2,1H3/t6-,7-,8?/m0/s1
