16
gdb 62336	3.66773	1.17389	1.1385	3.7137	76.83	-0.2512	-0.0233	0.2279	1116.1701	0.121785	-400.693018	-400.684591	-400.683647	-400.725758	32.016	
C	 0.0113475674	 1.5090841489	 0.0466136687	-0.475362
C	 0.0333274482	-0.0058311848	-0.079478484	 0.090137
C	-1.1332198023	-0.6395695497	 0.4897297301	 0.275292
C	-2.1315760925	-1.1267453888	 0.9471096336	-0.384464
C	 0.6933087462	-0.7498365886	-1.1824186419	-0.056843
C	 1.9229363369	-0.0476176573	-1.7503862463	-0.394515
C	 2.4122100438	-0.0210081676	-0.2920439839	 0.394883
O	 3.3756689142	 0.3752474235	 0.2821532104	-0.286548
N	 1.2947959433	-0.8028624854	 0.2244145991	-0.204363
H	 0.8712291017	 1.9872179614	-0.4249518983	 0.137374
H	-0.8997154496	 1.898361271	-0.4160275461	 0.140685
H	 0.0024918756	 1.7895718534	 1.1032159437	 0.153218
H	-3.0048584046	-1.5694503534	 1.3590018578	 0.200899
H	 0.2411763502	-1.640275695	-1.6017061557	 0.121155
H	 2.5431118288	-0.7114511957	-2.3586199767	 0.149537
H	 1.8010463927	 0.9049923584	-2.2699907905	 0.138913
120.3495	132.448	159.172	191.7403	274.4534	328.0215	417.2478	449.3903	511.3029	548.9868	567.2673	631.006	638.8587	656.4932	680.9661	785.3531	839.907	889.7958	956.8736	990.0433	1021.3276	1024.926	1062.4022	1091.7778	1147.115	1219.5912	1232.5473	1276.1404	1377.6096	1420.0006	1452.374	1482.5355	1497.5334	1917.3133	2243.9067	3055.3003	3073.6227	3124.4145	3127.3732	3142.1301	3196.3263	3501.4343
CC1(C#C)C2CC(=O)N12	C[C@@]1(C#C)[C@H]2CC(=O)N12	
InChI=1S/C7H7NO/c1-3-7(2)5-4-6(9)8(5)7/h1,5H,4H2,2H3	InChI=1S/C7H7NO/c1-3-7(2)5-4-6(9)8(5)7/h1,5H,4H2,2H3/t5-,7-,8?/m1/s1
