19
gdb 119109	1.87947	1.105	0.7536	2.4676	82.42	-0.2437	0.0341	0.2778	1571.4079	0.155366	-422.962977	-422.952348	-422.951404	-423.000826	35.935	
C	 0.2565369586	 1.3982433515	 0.1176292607	-0.222127
O	 0.3064837076	-0.0079079469	 0.1285462411	-0.225447
C	 0.5198710772	-0.5550224925	-1.1482661446	-0.126328
C	 0.5239505927	-2.0657247593	-1.0463750458	 0.194462
C	 1.3577003779	-2.8303670663	-1.9981984909	-0.217981
O	 1.7876016396	-2.6422876537	-0.6575049828	-0.258721
C	-0.6544177647	-2.6748852969	-0.479727842	 0.031846
C	-1.6501499535	-3.1709752521	-0.0196397052	 0.117214
C	-2.8458171336	-3.7723611141	 0.5503032955	-0.503361
H	 1.2008842512	 1.8390095823	-0.2397205483	 0.105065
H	-0.5597901671	 1.7734169073	-0.5204774536	 0.10301
H	 0.081393488	 1.7254194825	 1.1450284926	 0.130682
H	-0.2752404063	-0.239617265	-1.8462090846	 0.091617
H	 1.4865481719	-0.2268132186	-1.563354644	 0.091832
H	 1.0538107875	-3.8413568789	-2.2625852769	 0.120706
H	 1.9285676208	-2.2968013112	-2.7584480685	 0.11143
H	-2.5861000868	-4.5902614286	 1.231249967	 0.154883
H	-3.4256327798	-3.0377197262	 1.1194792798	 0.152942
H	-3.4979366012	-4.1829413132	-0.2285446497	 0.148275
20.2689	56.6414	90.1723	102.1721	129.2464	188.1092	234.9786	293.9197	320.7145	343.4126	373.2906	425.2135	533.1887	563.9609	676.4235	795.5348	916.7257	945.6609	1014.9212	1027.3086	1051.0539	1054.0127	1062.4313	1134.0225	1159.0198	1172.8829	1184.0804	1228.9029	1258.7204	1300.8727	1370.8593	1413.5709	1427.1785	1475.8675	1476.978	1477.4268	1486.1883	1494.6611	1517.863	1521.5137	2373.4838	2951.0641	2969.4341	2993.8462	3011.7711	3028.3431	3078.519	3089.052	3092.2498	3118.1783	3171.7669
COCC1(CO1)C#CC	COC[C@]1(CO1)C#CC	
InChI=1S/C7H10O2/c1-3-4-7(5-8-2)6-9-7/h5-6H2,1-2H3	InChI=1S/C7H10O2/c1-3-4-7(5-8-2)6-9-7/h5-6H2,1-2H3/t7-/m0/s1
