23
gdb 114811	2.48693	1.2326	1.09577	1.8691	85.18	-0.2369	0.0757	0.3126	1283.6698	0.205189	-388.266724	-388.257297	-388.256353	-388.301122	35.797	
C	 0.0454179073	 1.5253219234	-0.1890790202	-0.381481
C	 0.0405128612	-0.005502391	-0.1093457348	-0.202597
C	-1.3611439891	-0.5792453736	 0.074115618	-0.012546
C	-2.3461326181	-0.5487803864	-1.1431586657	-0.258506
C	-2.5466395881	-2.0730114404	-1.0083975848	 0.076286
O	-1.6356775608	-2.8248643149	-1.8365487431	-0.294676
C	-0.7014272392	-2.986155363	-0.7453108533	-0.124083
C	-1.565505549	-2.1287337315	 0.2035471836	 0.276608
C	-1.8819869186	-2.6856622976	 1.5733251773	-0.502975
H	 1.0581226354	 1.9130087106	-0.3363666365	 0.112116
H	-0.5707297688	 1.8801293947	-1.0223484363	 0.120767
H	-0.3530155782	 1.9705559125	 0.7294537934	 0.112958
H	 0.4927428782	-0.413245918	-1.0218297569	 0.103647
H	 0.679317492	-0.3302525773	 0.7234005825	 0.092066
H	-1.8221727093	-0.0952329106	 0.9435183286	 0.065477
H	-3.2468305967	 0.048868354	-0.9802680747	 0.096949
H	-1.9025248149	-0.2689699808	-2.1024911691	 0.106666
H	-3.5608302139	-2.4836883138	-1.0222974019	 0.068186
H	-0.6250951713	-4.0389802187	-0.4395427738	 0.092413
H	 0.3021170483	-2.6223588562	-0.9951542827	 0.098367
H	-1.0061561438	-2.6305338746	 2.2321214857	 0.119084
H	-2.689454336	-2.1236072308	 2.05536181	 0.116418
H	-2.1895962668	-3.7357447562	 1.5188916046	 0.118857
54.0246	94.6213	175.5756	200.2515	212.347	244.7171	305.9585	315.8776	399.2487	420.1438	471.8189	629.3389	655.3411	766.938	785.9545	843.2531	870.3663	904.2212	944.1515	957.9778	970.9785	986.8894	1008.8177	1023.2356	1061.5353	1106.8665	1124.4339	1146.1723	1163.8748	1174.7786	1195.3746	1225.387	1253.55	1271.4172	1286.65	1295.0879	1319.2138	1343.131	1373.2373	1397.0192	1411.5193	1412.1612	1465.2005	1487.5343	1491.3906	1493.7847	1500.9128	1507.2027	1528.3429	2998.3264	3012.6046	3017.7691	3023.0467	3030.3954	3049.2036	3052.3107	3055.9534	3063.8089	3079.9814	3092.4358	3097.5304	3103.347	3112.8404
CCC1CC2OCC12C	CC[C@H]1C[C@H]2OC[C@@]12C	
InChI=1S/C8H14O/c1-3-6-4-7-8(6,2)5-9-7/h6-7H,3-5H2,1-2H3	InChI=1S/C8H14O/c1-3-6-4-7-8(6,2)5-9-7/h6-7H,3-5H2,1-2H3/t6-,7+,8-/m0/s1
