18
gdb 86469	2.29078	1.30373	0.96257	4.2993	82.92	-0.2774	0.0132	0.2906	1268.3729	0.145983	-364.784992	-364.775767	-364.774822	-364.818992	34.424	
C	 0.1194749673	 1.6003580482	 0.0346696923	-0.414965
C	 0.0968764764	 0.0811349571	 0.019498992	 0.048403
C	 1.0969762949	-0.6669520112	-0.9013184426	-0.260736
C	 1.3042015451	-1.7418072102	 0.2359313356	-0.033409
C	 0.691337251	-0.6822400637	 1.232612068	-0.26074
C	 0.4576748587	-2.9152702235	 0.0666273397	 0.299003
C	-0.2659133872	-3.863070283	-0.0776544696	-0.440832
C	 2.6905142886	-2.1259765813	 0.4967083026	 0.24002
N	 3.7974506464	-2.3852317279	 0.7052751165	-0.343778
H	 1.1296223513	 1.9779190413	 0.2293550857	 0.119087
H	-0.2121412301	 2.0103873606	-0.9253954971	 0.123248
H	-0.5422870971	 1.9979481918	 0.811722131	 0.123248
H	-0.9180207403	-0.2789842885	-0.1759868165	 0.092904
H	 0.7430786781	-1.0536854753	-1.8571852914	 0.125615
H	 2.0176352079	-0.0979548802	-1.0528289817	 0.125282
H	 1.4906834206	-0.1178358747	 1.7192428774	 0.125284
H	 0.0123815896	-1.0812567586	 1.9864629661	 0.125618
H	-0.8937705711	-4.7106836211	-0.2029645679	 0.206746
65.3933	125.7148	162.4362	173.1111	237.9664	243.2335	309.406	383.1557	465.442	486.3524	502.1834	585.6865	587.2979	631.5756	658.0974	710.9185	838.3919	855.6142	903.9429	931.4815	960.5358	972.3282	1060.5189	1071.4542	1142.2583	1149.8078	1212.3865	1241.5466	1265.9971	1292.0464	1297.2032	1377.9803	1413.171	1470.8317	1491.2782	1495.804	1497.4532	2241.2556	2355.3356	3027.2411	3056.0207	3071.3581	3076.6746	3097.686	3097.8801	3141.7349	3143.5769	3500.308
CC1CC(C1)(C#C)C#N	C[C@H]1C[C@@](C1)(C#C)C#N	
InChI=1S/C8H9N/c1-3-8(6-9)4-7(2)5-8/h1,7H,4-5H2,2H3	InChI=1S/C8H9N/c1-3-8(6-9)4-7(2)5-8/h1,7H,4-5H2,2H3/t7-,8+
