17
gdb 111192	2.77742	1.17205	0.94055	3.9362	73.61	-0.2587	0.0103	0.269	1239.7365	0.136915	-417.935025	-417.926837	-417.925893	-417.968322	30.463	
O	 0.0963527619	 1.4410940337	-0.1250319836	-0.416425
C	 0.089042553	 0.0417280746	 0.1291878282	-0.122123
C	-1.3213443143	-0.5218905732	 0.0820480209	 0.023411
C	-1.9858346605	-0.853623242	-1.2913008921	-0.053536
N	-1.0090805422	-2.0043668277	-1.4110238804	-0.324559
C	-1.5420578742	-2.0610473987	 0.007810587	-0.056871
C	-2.9878004195	-1.7969661129	-0.5410874048	-0.145992
C	-4.0279820207	-1.2540292856	 0.3191694288	 0.265392
N	-4.8608309277	-0.8287021318	 0.9994941165	-0.330607
H	-0.0637742961	 1.5700745015	-1.0648823234	 0.284792
H	 0.7446280339	-0.5048482941	-0.5568245081	 0.119784
H	 0.4861366837	-0.0761874013	 1.1435683647	 0.112742
H	-1.9718501663	 0.0068844014	 0.7815402508	 0.111953
H	-2.2164311226	-0.1930959829	-2.128316646	 0.098228
H	-1.4237131829	-2.7567533271	-1.9695179965	 0.214403
H	-1.2403536167	-2.8346400111	 0.7144846024	 0.103077
H	-3.3867796886	-2.6071858928	-1.1578986243	 0.116332
70.7567	120.8235	158.7105	207.0371	275.2219	309.6887	398.4746	480.5277	528.4121	531.9049	641.8032	773.4542	782.355	877.1238	883.1783	899.3263	907.6584	1007.571	1026.1183	1048.4929	1069.072	1095.034	1111.7353	1144.4605	1153.605	1171.6436	1192.3448	1220.9956	1249.4386	1286.1241	1294.364	1360.2794	1379.3858	1407.3613	1433.6808	1505.4376	2349.8906	3039.7782	3076.4189	3082.3008	3104.8051	3109.8935	3119.1075	3389.2076	3823.6148
OCC1C2NC1C2C#N	OC[C@H]1[C@H]2N[C@@H]1[C@H]2C#N	
InChI=1S/C6H8N2O/c7-1-3-5-4(2-9)6(3)8-5/h3-6,8-9H,2H2	InChI=1S/C6H8N2O/c7-1-3-5-4(2-9)6(3)8-5/h3-6,8-9H,2H2/t3-,4-,5-,6+
