15
gdb 10112	3.39525	1.16115	0.91545	2.4263	62.58	-0.2678	-0.0419	0.226	1195.2835	0.116695	-399.813516	-399.804593	-399.803649	-399.848206	29.969	
O	 0.164880365	 1.4180974014	 0.0575207272	-0.411896
C	 0.0732892465	 0.0191183861	-0.028283315	-0.064556
C	-1.3949491057	-0.4818878123	-0.0625878459	-0.166739
C	-1.4631796055	-2.0182530659	-0.2223633878	-0.294597
C	-2.8809887888	-2.5433621395	-0.3554476425	 0.151217
O	-3.2501003277	-3.2529290659	-1.2534544501	-0.22852
C	-2.0757660247	-0.0268019763	 1.1535486779	 0.261956
N	-2.560435705	 0.3531951034	 2.1323304061	-0.322565
H	-0.1464369651	 1.6924675952	 0.9278640238	 0.301934
H	 0.5521375755	-0.2689821738	-0.9687130321	 0.129588
H	 0.6045610415	-0.4874059541	 0.7914265528	 0.110409
H	-1.8853150269	 0.0002570184	-0.9166963534	 0.149463
H	-0.8983682046	-2.3243508792	-1.1066959367	 0.137228
H	-1.0084118877	-2.4889773095	 0.65977854	 0.141346
H	-3.5745943267	-2.2253680178	 0.4539190758	 0.105732
56.5821	66.3306	111.031	163.1603	169.1766	245.6604	334.194	382.3639	393.2479	489.9126	558.9561	611.6404	789.2984	827.8551	939.7447	989.3333	1056.9411	1084.1087	1096.7952	1113.3542	1198.5116	1220.2549	1268.9191	1323.2196	1361.3354	1393.3943	1420.2775	1430.4682	1460.45	1502.2735	1837.4292	2350.0456	2896.6223	2995.9072	3027.6302	3052.7985	3092.2323	3111.4728	3800.1425
OCC(CC=O)C#N	OC[C@@H](CC=O)C#N	
InChI=1S/C5H7NO2/c6-3-5(4-8)1-2-7/h2,5,8H,1,4H2	InChI=1S/C5H7NO2/c6-3-5(4-8)1-2-7/h2,5,8H,1,4H2/t5-/m0/s1
