16
gdb 30489	4.03786	1.14053	0.89435	3.8386	79.5	-0.2003	-0.0296	0.1707	1249.238	0.126141	-434.114658	-434.106681	-434.105736	-434.14715	30.11	
C	-0.0255208185	 1.4424107624	 0.0006376014	-0.343445
N	-0.0258025406	-0.0038558703	-0.0501808803	-0.325932
C	 0.5422814971	-0.652121222	 0.896761853	 0.419772
N	 1.18212159	-0.0355226784	 2.0095948685	-0.370127
C	 1.7774861267	-0.7355417034	 3.0014183582	 0.108663
N	 1.8364306743	-2.0250815081	 3.0575961344	-0.369489
C	 1.2356461857	-2.6941234709	 2.0093407152	 0.438142
O	 1.3109085466	-4.03515424	 2.0914432078	-0.414278
C	 0.6115610229	-2.0892718071	 0.965303746	-0.294858
H	 0.9894127393	 1.8792092438	-0.0134306486	 0.099041
H	-0.5486700197	 1.8352235766	-0.8750911668	 0.128682
H	-0.5436801888	 1.8480779524	 0.8883816576	 0.098917
H	 1.1881213124	 0.9712243771	 2.0542629393	 0.265731
H	 2.2301610819	-0.1444167594	 3.7941635158	 0.136933
H	 1.7925528901	-4.2287198421	 2.9067767378	 0.300824
H	 0.1560088705	-2.6593250106	 0.1683485708	 0.121424
113.6702	144.3463	192.1093	223.7543	285.5761	379.8234	418.3136	470.1031	494.9781	550.1914	606.0792	620.6014	707.822	755.1189	783.1024	862.4676	925.5303	963.8077	981.2209	1038.4282	1105.813	1147.6559	1182.9718	1207.0579	1261.156	1307.5745	1396.8541	1427.8552	1454.2175	1468.0377	1508.2972	1508.741	1628.7673	1697.0126	1738.3554	2927.6251	2965.0265	3093.5509	3163.4596	3240.1274	3641.8462	3780.4054
CN=C1NC=NC(O)=C1	C[N]C1=C[C@H](N=CN1)O	
InChI=1S/C5H7N3O/c1-6-4-2-5(9)8-3-7-4/h2-3H,1H3,(H2,6,7,8,9)	InChI=1S/C5H8N3O/c1-6-4-2-5(9)8-3-7-4/h2-3,5,9H,1H3,(H,7,8)/t5-/m1/s1
