17
gdb 26754	3.17236	1.47536	1.03442	1.4672	78.35	-0.1681	0.0434	0.2116	1124.279	0.137443	-417.993185	-417.984911	-417.983967	-418.025719	31.431	
N	-0.0084243391	 1.4311424492	-0.0302192284	-0.614875
C	-0.0079729508	 0.0264740787	-0.1225728905	 0.219095
C	-1.1435904226	-0.7666634012	-0.1027172847	 0.152649
O	-2.4277757317	-0.3768045488	 0.1741857922	-0.438636
N	-0.7125562182	-2.0801199047	-0.0877199846	-0.043849
C	-0.8874577653	-3.4031717665	-0.7397712189	-0.175171
C	 0.6758006858	-3.5396990279	-0.7214197548	-0.347791
C	 0.6551548023	-2.1012478525	-0.2341466733	 0.281823
C	 1.1454213068	-0.8194740875	-0.267237384	-0.380181
H	 0.7429934536	 1.7772731114	 0.5538383704	 0.239817
H	-0.8910439508	 1.7637900486	 0.3422238381	 0.240113
H	-2.9241808401	-0.307138385	-0.6490623678	 0.298215
H	-1.4697000026	-4.1132623961	-0.1472386406	 0.120262
H	-1.301499823	-3.3354502944	-1.7505485207	 0.119417
H	 1.0663380591	-4.2847066634	-0.0225895857	 0.118247
H	 1.123864857	-3.7055034015	-1.7041139199	 0.121616
H	 2.1682729497	-0.4930317283	-0.3776733169	 0.089248
114.8556	183.5129	194.9703	244.293	264.0074	273.1649	306.9511	347.1058	561.2929	597.6762	627.1209	661.4395	688.06	758.0661	797.9437	819.8118	833.6858	892.2673	963.7678	1040.2792	1059.4487	1095.7809	1131.8291	1161.6287	1184.3288	1224.5041	1227.4868	1267.5833	1303.7295	1359.4975	1386.2992	1469.1555	1487.2803	1512.8144	1551.9663	1634.3978	1652.6434	3049.1199	3058.2405	3097.8028	3112.2659	3243.8962	3514.7661	3605.3552	3768.5235
NC1=C(O)N2CCC2=C1	Nc1c(O)n2CCc2c1	
InChI=1S/C6H8N2O/c7-5-3-4-1-2-8(4)6(5)9/h3,9H,1-2,7H2	InChI=1S/C6H8N2O/c7-5-3-4-1-2-8(4)6(5)9/h3,9H,1-2,7H2
