19
gdb 91049	2.15843	1.82221	1.55665	2.4466	74.14	-0.2215	0.0642	0.2857	979.6364	0.158844	-422.960721	-422.952715	-422.95177	-422.992547	32.638	
O	 0.0979535649	 1.4198955906	-0.2149423689	-0.421886
C	 0.0418017729	 0.0329481727	 0.0162239802	 0.040999
C	 0.2911497352	-0.5259990465	 1.464623551	-0.302977
C	-1.0944126242	-1.2313844211	 1.4249817449	-0.099055
C	-2.3247994708	-0.4803154555	 1.9904672863	-0.063044
C	-2.2294222245	 1.0104527202	 1.8127863829	-0.296931
C	-2.5801167545	 0.1710933427	 0.6228112068	-0.065181
C	-1.3839321026	-0.5927527604	 0.0230764515	 0.410509
O	-1.8054204662	-1.3088551054	-1.0993724542	-0.48906
H	 1.0216819802	 1.6904151421	-0.2208166441	 0.284972
H	 0.662939744	-0.5102688857	-0.7158594848	 0.053823
H	 1.1430441771	-1.2072588158	 1.5320461453	 0.093536
H	 0.4018826859	 0.245885997	 2.2290166789	 0.106668
H	-1.1174358774	-2.3134537879	 1.5515146652	 0.067078
H	-3.0401445166	-0.9193537753	 2.6757362101	 0.082735
H	-3.0684297018	 1.5611781093	 2.2281749347	 0.108573
H	-1.2909840122	 1.5495811357	 1.8581353873	 0.12313
H	-3.5038863349	 0.2884020479	 0.0701931252	 0.090962
H	-1.0951575643	-1.9006503046	-1.3691945081	 0.275149
145.9786	224.1425	231.2162	263.4224	316.6859	333.7222	344.0149	435.2746	488.6873	545.2664	625.7822	652.6203	738.443	776.0494	790.3589	865.5305	913.2336	930.8679	953.359	980.979	1011.7372	1026.2049	1051.77	1062.1165	1087.3949	1091.9706	1100.7553	1116.6666	1152.5582	1187.5433	1192.7002	1231.4886	1245.6995	1271.1617	1289.4418	1314.9509	1355.2609	1390.5616	1426.7072	1474.3672	1504.6284	2950.5018	3063.6983	3111.7062	3122.2229	3133.614	3174.3273	3191.7793	3217.4541	3805.1698	3812.5848
OC1CC2C3CC3C12O	O[C@H]1C[C@H]2[C@H]3C[C@H]3[C@@]12O	
InChI=1S/C7H10O2/c8-6-2-5-3-1-4(3)7(5,6)9/h3-6,8-9H,1-2H2	InChI=1S/C7H10O2/c8-6-2-5-3-1-4(3)7(5,6)9/h3-6,8-9H,1-2H2/t3-,4+,5-,6-,7-/m0/s1
