20
gdb 35758	2.90131	1.4349	1.27759	4.1187	81.39	-0.2942	0.0354	0.3296	1071.0057	0.174964	-366.032003	-366.024551	-366.023607	-366.063831	30.054	
N	-0.0778263983	-1.1856465585	-0.3430012705	-0.336745
C	-0.0483822417	-0.0437318611	-0.1630571091	 0.272525
C	-0.0099854027	 1.4027471175	 0.072083695	-0.145317
C	-0.7053676372	 1.7977708946	 1.4137000626	-0.226426
C	 0.2836534241	 1.9222163572	 2.5950001053	-0.204818
C	 1.6713244544	 2.3747123899	 2.1086755064	 0.000696
C	 1.5536606826	 3.258880614	 0.8300394958	-0.248504
C	 1.4512420815	 1.9220364061	 0.0393206896	-0.011364
C	 2.2700169258	 1.276035358	 1.1883068108	-0.223725
H	-0.5700450657	 1.8653089238	-0.7495684023	 0.121036
H	-1.1791996668	 2.7689004688	 1.2475885226	 0.114319
H	-1.51268762	 1.0986541418	 1.6436569783	 0.120785
H	-0.1250794586	 2.6344672539	 3.3203767215	 0.099651
H	 0.3859587603	 0.9654319619	 3.1200614154	 0.111499
H	 2.2863889905	 2.7422359996	 2.9329180886	 0.065015
H	 0.7391109653	 3.9847224125	 0.7546287469	 0.093438
H	 2.4968752935	 3.7641081895	 0.6086439834	 0.104954
H	 1.8541006659	 1.8770510161	-0.9742481942	 0.0788
H	 3.3431379591	 1.411029836	 1.0320131899	 0.100313
H	 2.069938078	 0.2297216084	 1.4351220138	 0.113867
99.9233	148.6423	253.3531	299.6057	394.2044	413.6073	429.9227	517.3454	577.8113	645.1967	745.3294	804.5114	817.9906	827.8448	888.3289	906.9303	920.3426	949.8571	962.3862	980.0772	1036.8764	1066.2133	1095.0992	1107.4686	1110.4261	1135.2264	1150.8434	1217.4593	1237.0231	1255.8072	1275.586	1281.6634	1306.3625	1321.8436	1345.4515	1349.5002	1375.1529	1383.3324	1480.9883	1496.2864	1498.8987	1523.6468	2350.4519	3032.2682	3033.0627	3054.7704	3056.8908	3062.5068	3072.3133	3082.5292	3088.8767	3106.3082	3112.4638	3113.6262
N#CC1CCC2CC1C2	N#C[C@H]1CC[C@@H]2C[C@H]1C2	
InChI=1S/C8H11N/c9-5-7-2-1-6-3-8(7)4-6/h6-8H,1-4H2	InChI=1S/C8H11N/c9-5-7-2-1-6-3-8(7)4-6/h6-8H,1-4H2/t6-,7-,8+/m1/s1
