14
gdb 125274	5.30642	1.27552	1.03497	5.7236	73.09	-0.2248	-0.0374	0.1873	1080.3468	0.101978	-432.860105	-432.852825	-432.85188	-432.891841	27.319	
C	-0.015979937	 1.4805891291	 0.0590193429	-0.502955
C	-0.0006615085	-0.0081262347	-0.043610525	 0.347736
C	-0.0491966331	-0.8076000004	-1.1803483864	-0.415454
C	-0.0055030289	-2.1384834556	-0.7010307619	 0.399679
C	 0.0662553984	-2.1035698607	 0.6755230366	 0.306368
N	 0.0699065306	-0.7964176784	 1.0923929045	-0.431195
N	 0.1089218966	-3.3642008099	 1.1549329157	-0.224522
N	 0.0701227203	-4.1828887797	 0.1927386862	-0.051627
O	-0.0079796271	-3.4083038683	-1.0833194883	-0.257291
H	 0.8898415566	 1.864043112	 0.5436105442	 0.141124
H	-0.074742222	 1.9224099725	-0.9373777202	 0.14926
H	-0.8760445011	 1.8394457489	 0.6368477131	 0.141112
H	-0.1074517287	-0.4495903149	-2.194841198	 0.121594
H	 0.1147554639	-0.4581179398	 2.0375073366	 0.276173
97.3918	150.559	281.5154	281.8012	334.174	397.9268	454.258	538.7141	559.6632	635.1182	644.6749	753.5981	774.7261	783.6993	836.208	977.1824	999.2208	1012.8945	1058.6102	1164.292	1223.5304	1266.5273	1387.8186	1401.8623	1418.1309	1473.6985	1478.4551	1504.4333	1519.1267	1572.8901	1587.8007	3026.7714	3075.7061	3134.4787	3269.5449	3686.199
CC1=CC2=C(N1)N=NO2	Cc1cc2c([nH]1)nno2	
InChI=1S/C5H5N3O/c1-3-2-4-5(6-3)7-8-9-4/h2,6H,1H3	InChI=1S/C5H5N3O/c1-3-2-4-5(6-3)7-8-9-4/h2,6H,1H3
