20
gdb 59859	2.47784	1.127	0.92032	1.1852	78.59	-0.2184	-0.0749	0.1435	1371.6482	0.166916	-440.298227	-440.287308	-440.286364	-440.335641	37.433	
C	 0.6556702406	 0.9264976266	-0.3536041289	-0.327402
N	-0.2932151745	-0.1353578565	-0.0577309284	-0.061893
C	 0.2009154833	-1.0909801745	 0.9202166958	-0.323507
C	-1.6336690486	 0.3723037078	 0.2288260152	-0.247025
C	-2.2810588639	 0.5247555326	-1.1369015081	 0.299564
O	-2.3794405013	 1.5688403406	-1.7394899943	-0.295287
C	-2.7643245449	-0.7976073146	-1.7850870585	 0.31882
C	-3.0210513857	-0.7476196952	-3.2702760985	-0.477367
O	-2.9520504941	-1.7725745892	-1.094684533	-0.287437
H	 1.590134516	 0.4941395439	-0.7243429315	 0.120551
H	 0.2507871611	 1.5845955645	-1.1272874465	 0.140219
H	 0.8896608834	 1.547959865	 0.530970161	 0.097808
H	 0.3524827097	-0.648336698	 1.9221900525	 0.097362
H	-0.5031869673	-1.9224500911	 1.0092635018	 0.138269
H	 1.16128073	-1.4931877865	 0.5823831282	 0.121045
H	-2.1865202948	-0.37224703	 0.8037585054	 0.132316
H	-1.6388753106	 1.3321416551	 0.766570265	 0.101897
H	-2.075784768	-0.5755223817	-3.7977636831	 0.152453
H	-3.4658209541	-1.6857610172	-3.6025214785	 0.139734
H	-3.666185046	 0.1009853182	-3.5132674455	 0.15988
41.9521	50.9768	65.8855	99.1072	132.7842	229.2655	244.3766	253.0488	314.863	349.091	389.6007	419.7169	444.0961	524.3051	544.1736	672.7706	729.7112	845.2761	917.9681	998.4178	1031.3316	1057.8719	1071.3529	1103.4083	1126.2829	1171.8982	1192.5699	1276.6383	1307.6216	1308.8936	1376.2323	1382.7679	1446.2271	1454.3202	1459.8753	1460.7728	1484.4968	1487.5114	1499.1183	1502.1348	1513.5104	1800.8194	1803.9859	2933.8174	2940.7645	2994.3184	3046.6498	3066.1284	3068.847	3112.4203	3113.5009	3116.9759	3124.3427	3162.8239
CN(C)CC(=O)C(C)=O	CN(C)CC(=O)C(=O)C	
InChI=1S/C6H11NO2/c1-5(8)6(9)4-7(2)3/h4H2,1-3H3	InChI=1S/C6H11NO2/c1-5(8)6(9)4-7(2)3/h4H2,1-3H3
