16
gdb 72633	2.60331	1.49049	1.23321	3.8923	70.86	-0.2504	0.0179	0.2683	1044.7068	0.122738	-437.861665	-437.853039	-437.852095	-437.894596	32.344	
O	-0.1314165082	 1.449201004	 0.0958706714	-0.447946
C	-0.0644173148	 0.0801483722	 0.1090206833	 0.323665
C	 0.7326530586	-0.7825337483	 1.0925787668	-0.304113
C	-0.447233519	-1.8193323997	 1.090068704	-0.285116
C	-1.195028353	-0.9310053131	 0.1062543357	 0.389939
O	-2.5594278152	-0.850191526	 0.1188191978	-0.45122
C	-0.3316793591	-0.7667494228	-1.160647318	-0.357626
C	-0.9890701221	-0.0817958988	-2.2312461615	 0.267755
N	-1.5587348856	 0.4687510444	-3.0765328502	-0.337617
H	 0.5768946001	 1.8040852643	-0.4548215011	 0.29787
H	 1.7083164906	-1.1429665874	 0.7525908608	 0.104035
H	 0.8448242403	-0.2882424163	 2.0592203312	 0.126494
H	-0.2211476331	-2.8330665712	 0.7493838746	 0.112104
H	-0.957112024	-1.865465995	 2.0539318469	 0.130535
H	-2.8574200708	-0.2626647588	-0.5879382162	 0.308545
H	 0.3649273452	-1.5433745075	-1.4718204956	 0.122696
107.3092	133.8268	194.832	229.5714	254.9995	284.1706	332.808	385.7702	399.7415	507.8794	560.4747	575.987	655.6538	702.5251	745.4077	793.9321	868.8447	929.1296	964.0799	1018.0719	1057.6723	1084.6498	1115.3454	1159.6169	1197.884	1220.8309	1237.7149	1272.7018	1298.5623	1336.5876	1412.1615	1453.6484	1477.6619	1519.4641	2338.5514	3055.0446	3069.0105	3117.1348	3117.9374	3134.1952	3773.9083	3780.4362
OC12CCC1(O)C2C#N	O[C@@]12CC[C@]1(O)[C@H]2C#N	
InChI=1S/C6H7NO2/c7-3-4-5(8)1-2-6(4,5)9/h4,8-9H,1-2H2	InChI=1S/C6H7NO2/c7-3-4-5(8)1-2-6(4,5)9/h4,8-9H,1-2H2/t4-,5+,6-
