17
gdb 52447	2.42803	0.87551	0.67417	4.5326	72.42	-0.2702	0.0118	0.282	1606.3385	0.132216	-458.92943	-458.919435	-458.918491	-458.96621	33.823	
O	 0.7988777582	 0.2074413375	-0.6728801331	-0.276564
C	 0.7801251324	 1.4003634046	-0.6921078642	 0.178822
O	 0.8493652193	 2.1388192007	 0.4389809994	-0.181435
C	 0.9261268201	 3.5570897329	 0.2952695861	-0.103782
C	 2.3682764174	 4.0168743503	 0.1860594042	-0.048564
O	 2.8625581164	 3.5782324242	-1.0602137115	-0.247869
C	 4.256258839	 3.7929415429	-1.2120975632	-0.206298
C	 4.6873986564	 3.3305036005	-2.523115706	 0.277888
C	 5.0678278128	 2.9572625781	-3.5987408865	-0.406055
H	 0.6899062032	 2.0167356281	-1.6039284077	 0.092311
H	 0.3641874598	 3.8869251813	-0.5871392214	 0.125581
H	 0.4592719462	 3.9822304513	 1.1869357025	 0.129129
H	 2.4130934643	 5.116064006	 0.2672943666	 0.097637
H	 2.9541333277	 3.5909994896	 1.0158275572	 0.110953
H	 4.4918461756	 4.8644792573	-1.0987198966	 0.122474
H	 4.812098783	 3.2589577751	-0.4237779605	 0.129502
H	 5.3993308482	 2.6211358396	-4.5502298455	 0.20627
36.9917	56.6681	98.877	122.0554	141.4854	181.216	266.3342	330.1176	336.9501	376.6637	494.3258	547.9133	615.7978	635.1816	684.8824	886.4629	925.6936	978.7849	1029.5649	1034.7317	1056.7942	1061.2715	1123.4472	1152.6573	1182.8399	1251.8811	1267.6323	1320.8049	1380.6946	1402.4714	1429.6807	1443.4958	1489.7128	1492.8144	1514.6448	1868.197	2250.7002	2959.2504	2968.3132	2984.4583	2986.6913	3006.3399	3042.476	3112.9988	3504.9724
O=COCCOCC#C	O=COCCOCC#C	
InChI=1S/C6H8O3/c1-2-3-8-4-5-9-6-7/h1,6H,3-5H2	InChI=1S/C6H8O3/c1-2-3-8-4-5-9-6-7/h1,6H,3-5H2
