17
gdb 76115	3.27421	1.31294	1.12513	2.0836	74.61	-0.2454	0.0398	0.2852	1116.4835	0.133169	-421.756459	-421.74759	-421.746646	-421.78977	33.46	
C	-0.0762901378	 1.5347810948	 0.0700878731	-0.51279
C	 0.1626278777	 0.0648310505	-0.0280862776	 0.372971
O	-0.7859258436	-0.8306068098	 0.5882769433	-0.291026
C	 0.5968554633	-0.9561462143	 0.9410947876	-0.046397
C	 1.2615969404	-1.8266160556	-0.1407548688	-0.297176
C	 0.798843106	-3.1892613422	-0.2829725891	 0.336376
C	 0.3889912852	-4.3111266187	-0.4225575246	-0.436632
C	 0.7371853614	-0.7477441162	-1.2079114583	 0.080536
O	-0.162290576	-1.160411873	-2.1838691421	-0.424248
H	 0.8343486689	 2.0916152858	-0.1729049804	 0.128195
H	-0.8569683663	 1.8432868151	-0.6335430499	 0.141858
H	-0.3966468711	 1.8062151646	 1.0793445688	 0.137235
H	 0.8536212375	-0.8751385217	 1.9910031472	 0.11349
H	 2.3534488466	-1.783638479	-0.0738557547	 0.105919
H	 0.0356576975	-5.3059013436	-0.5372098474	 0.197515
H	 1.5710650579	-0.2563507024	-1.7146341599	 0.099784
H	-0.8965609874	-1.5825237744	-1.7181176172	 0.29439
84.2972	124.4699	180.4276	196.8358	222.532	285.3551	346.8672	397.8255	446.083	529.0771	565.5712	622.3366	632.5673	643.4487	715.2686	768.9072	787.539	859.9561	890.0982	919.854	1009.7741	1031.3494	1071.2341	1098.8436	1116.6063	1158.9909	1199.0234	1248.1051	1262.5506	1306.3919	1330.8787	1402.6559	1434.8839	1472.1568	1485.2002	1495.2317	2234.657	3037.9494	3058.5782	3093.2145	3102.4216	3122.6673	3188.4434	3503.3739	3769.8119
CC12OC1C(C#C)C2O	C[C@]12O[C@H]1[C@@H](C#C)[C@H]2O	
InChI=1S/C7H8O2/c1-3-4-5(8)7(2)6(4)9-7/h1,4-6,8H,2H3	InChI=1S/C7H8O2/c1-3-4-5(8)7(2)6(4)9-7/h1,4-6,8H,2H3/t4-,5+,6-,7+/m0/s1
