23
gdb 121360	2.67169	1.07005	0.85243	2.1842	82.87	-0.241	0.0818	0.3228	1464.5612	0.20498	-425.433082	-425.423008	-425.422064	-425.469477	36.402	
C	 0.0201036014	 1.5166449564	-0.0721824399	-0.38475
C	 0.1903767156	 0.0068535559	-0.1031176626	-0.036011
O	 0.6095230911	-0.4214600207	 1.1769489221	-0.250929
C	 0.7513835347	-1.8225577459	 1.305417152	 0.117935
C	 2.0650784844	-2.3556484691	 0.6670133364	-0.257564
C	 2.8541784364	-2.9167295054	 1.8684462099	-0.077154
O	 2.3225945347	-2.2727418186	 3.0118140525	-0.25186
C	 0.9172444523	-2.1928966847	 2.8000977445	 0.111382
C	 0.305285111	-1.2338796124	 3.8034458148	-0.401943
H	 0.9660629741	 2.0036155421	 0.1811126403	 0.12765
H	-0.3094598315	 1.8838577337	-1.0487404032	 0.113702
H	-0.7230473373	 1.8033968298	 0.6772032408	 0.126325
H	-0.759637896	-0.4863721232	-0.371912557	 0.084304
H	 0.9271276257	-0.2787969241	-0.8715985179	 0.086726
H	-0.1379577453	-2.3148587874	 0.8843814273	 0.05931
H	 1.8934372491	-3.1094988211	-0.1049962866	 0.098754
H	 2.5950177218	-1.5153496737	 0.2116579399	 0.117517
H	 2.7194564868	-4.0090038671	 1.9441232998	 0.084246
H	 3.9260367199	-2.7075466924	 1.8276837978	 0.107377
H	 0.4807994032	-3.2001791391	 2.9322571599	 0.056786
H	 0.7187860527	-0.2332558339	 3.6721343481	 0.138579
H	-0.7788721688	-1.1805037662	 3.6682955943	 0.111754
H	 0.5126749239	-1.5785963727	 4.8199795368	 0.117864
23.1358	76.3595	101.7362	152.1123	193.9534	216.3279	243.7869	281.4968	346.4426	381.9033	478.5968	532.3368	645.7347	696.8157	819.607	833.5797	861.808	886.0645	903.5124	938.1748	976.3621	1006.4612	1045.2099	1083.7349	1097.8619	1131.7062	1147.5374	1163.9178	1188.6646	1189.7319	1232.02	1243.842	1284.4814	1298.4176	1315.8328	1357.362	1375.3704	1383.7536	1400.2422	1403.2832	1414.2599	1440.3117	1477.1951	1482.0495	1483.33	1494.0942	1499.8895	1516.1613	1529.3112	2926.9624	2954.4116	2959.9824	2983.2122	2989.3855	3044.9514	3053.2311	3066.584	3092.4931	3117.3837	3119.2601	3120.779	3121.7521	3149.5666
CCOC1CCOC1C	CCO[C@H]1CCO[C@H]1C	
InChI=1S/C7H14O2/c1-3-8-7-4-5-9-6(7)2/h6-7H,3-5H2,1-2H3	InChI=1S/C7H14O2/c1-3-8-7-4-5-9-6(7)2/h6-7H,3-5H2,1-2H3/t6-,7-/m0/s1
