16
gdb 126893	4.12183	1.07763	0.91744	2.0196	79.34	-0.25	-0.0967	0.1532	1265.3734	0.12292	-434.020361	-434.011895	-434.010951	-434.05438	30.37	
C	-0.3437432744	 1.3290662025	 0.089547599	-0.370793
C	 0.1808538238	-0.1063844124	-0.0473004595	-0.139348
N	 0.8120816347	-0.563153761	 1.1863480328	-0.314169
C	 0.1027410082	-1.0901741578	 2.0953208831	 0.446486
O	-1.2632720464	-1.2539873327	 1.9806992599	-0.310885
N	-2.0532680895	-1.9461236338	 3.0202394112	 0.052763
N	-1.4811861965	-2.3326464691	 4.0287483816	-0.100234
C	-0.1043245799	-2.1552474577	 4.2513554149	 0.011489
C	 0.6772487806	-1.566146366	 3.3395808252	-0.157283
H	 0.4571314352	 2.003103374	 0.4069790635	 0.124334
H	-0.7346471852	 1.6832821384	-0.8693158615	 0.11533
H	-1.1495125321	 1.3783790137	 0.8273784318	 0.128335
H	-0.6396592475	-0.7679818122	-0.353172395	 0.112002
H	 0.9454973791	-0.1386099801	-0.830163394	 0.103441
H	 0.2420232924	-2.5411259036	 5.2001755394	 0.149204
H	 1.7422624576	-1.4274101221	 3.4763579077	 0.149326
46.9454	81.1742	142.5381	185.0251	264.8841	292.348	391.8934	461.267	482.7236	579.2735	612.1878	702.3971	734.9309	794.1218	842.5323	858.9271	904.7666	959.5479	998.4877	1005.4242	1052.6766	1117.253	1166.5038	1195.6498	1242.0665	1307.1009	1367.2197	1399.638	1416.8089	1490.6332	1497.2929	1515.2765	1613.1918	1679.2255	1727.1927	3019.7965	3041.1468	3067.4347	3114.4586	3122.1015	3221.1695	3240.2984
CCN=C1ON=NC=C1	CC[N]C1=CC=N[N]O1	
InChI=1S/C5H7N3O/c1-2-6-5-3-4-7-8-9-5/h3-4H,2H2,1H3	InChI=1S/C5H7N3O/c1-2-6-5-3-4-7-8-9-5/h3-4H,2H2,1H3
