18
gdb 79612	2.65099	1.59031	1.15874	2.5897	76.34	-0.2397	-0.029	0.2107	1090.0306	0.14814	-401.928318	-401.920629	-401.919685	-401.960321	30.224	
C	 0.0530936708	 1.6029393047	-0.0867698106	-0.418298
C	-0.0241764857	 0.095906365	-0.1228958967	 0.013093
C	 0.7751232015	-0.6886868439	-1.1150359055	-0.163596
N	 1.1724303573	-0.6297188172	 0.3042487173	-0.124303
C	 0.9910022752	-1.9829142377	 0.8717564793	 0.002262
C	-0.3598106827	-2.6235068539	 0.9841771886	-0.307525
C	 0.5376264309	-2.9447838697	-0.2018514665	-0.152568
C	 0.4000435523	-2.116642246	-1.4593186087	 0.402098
O	 0.1873147888	-2.5368135457	-2.5686748179	-0.322874
H	 1.0494553456	 1.9452102606	-0.3772586376	 0.13218
H	-0.6822843538	 2.0436511537	-0.767844474	 0.124814
H	-0.1528828007	 1.9728009093	 0.9231746826	 0.127215
H	-0.9930343944	-0.3062511158	 0.1569203264	 0.091196
H	 1.3882273291	-0.1664074195	-1.8451856458	 0.111738
H	 1.7558847651	-2.2445803917	 1.5931497113	 0.109185
H	-0.4546390113	-3.4168009533	 1.7182937821	 0.127233
H	-1.2749723805	-2.0648768374	 0.8368702328	 0.13267
H	 0.9081951826	-3.9550512915	-0.323643817	 0.115481
144.3256	162.2895	197.8403	221.2537	281.0803	395.2446	460.9159	478.1744	575.3433	664.4396	711.997	743.5296	776.8186	826.8081	845.364	864.3165	964.6503	975.34	993.9041	1001.8049	1038.6475	1056.2041	1067.9777	1108.5648	1124.5712	1136.6047	1169.0985	1182.4877	1193.2926	1245.265	1293.8707	1327.8973	1346.2643	1408.2189	1431.2803	1485.8768	1488.914	1497.9535	1831.9545	3037.5095	3103.3165	3122.1096	3140.4242	3144.873	3160.2556	3177.9131	3193.5341	3225.4582
CC1C2N1C1CC1C2=O	C[C@H]1[C@H]2N1[C@H]1C[C@H]1C2=O	
InChI=1S/C7H9NO/c1-3-6-7(9)4-2-5(4)8(3)6/h3-6H,2H2,1H3	InChI=1S/C7H9NO/c1-3-6-7(9)4-2-5(4)8(3)6/h3-6H,2H2,1H3/t3-,4+,5-,6+,8?/m0/s1
