17
gdb 44448	3.04517	1.80034	1.60693	4.5151	70.21	-0.2585	0.0179	0.2764	887.1482	0.139925	-421.874599	-421.86837	-421.867426	-421.905037	25.983	
O	-0.0304181538	-0.0036909577	-0.2886025299	-0.343751
C	 0.0087356478	 1.1591518205	-0.0004529018	 0.431512
O	-1.1374060361	 1.8268881058	 0.3235594308	-0.230644
C	-1.0144407159	 3.2005729454	 0.6535374274	 0.116117
C	-0.0122845831	 4.0646122099	-0.0600319947	-0.094285
C	 0.9935566148	 3.2619268007	-0.8667833795	-0.237282
C	 1.2412181993	 2.0398227152	 0.0545471084	-0.182558
C	 1.3103927387	 2.6726776844	 1.4682074897	-0.237283
C	 0.1872533142	 3.6935086739	 1.4105121001	-0.094284
H	-1.9940214503	 3.5968182928	 0.8864530892	 0.116571
H	-0.2973830028	 5.0615787381	-0.3739955184	 0.094642
H	 0.624294669	 2.9710206621	-1.8552830035	 0.121472
H	 1.9223085185	 3.8255648711	-1.0056257444	 0.111504
H	 2.1115229998	 1.4433187587	-0.2140767101	 0.100651
H	 1.1831939031	 1.9315847192	 2.2636406799	 0.121471
H	 2.2780314208	 3.1639943151	 1.6159513356	 0.111503
H	 0.0536868961	 4.4086443347	 2.2133431011	 0.094642
141.3366	289.9766	334.282	439.4246	484.323	503.818	619.112	674.0234	760.8665	777.9891	797.1933	802.2181	839.474	906.8699	919.151	933.4242	988.8532	1010.7226	1023.281	1064.4131	1067.1108	1074.0277	1098.4463	1131.5945	1179.0447	1191.5804	1214.3812	1240.4366	1296.8143	1302.8252	1342.4978	1343.2789	1368.1143	1426.929	1490.0075	1506.1404	1864.702	3043.8055	3045.9428	3087.8019	3088.9738	3133.8787	3179.6785	3185.6969	3205.4182
O=C1OC2C3CC1CC23	O=C1O[C@@H]2[C@@H]3C[C@H]1C[C@H]23	
InChI=1S/C7H8O2/c8-7-3-1-4-5(2-3)6(4)9-7/h3-6H,1-2H2	InChI=1S/C7H8O2/c8-7-3-1-4-5(2-3)6(4)9-7/h3-6H,1-2H2/t3-,4+,5-,6+
