18
gdb 111483	2.84269	1.48921	1.09332	3.8364	72.09	-0.248	0.0108	0.2588	1101.8805	0.149423	-439.086955	-439.079273	-439.078329	-439.119227	30.185	
O	 0.1519816696	 1.3792229271	 0.0259834393	-0.42502
C	 0.0950722563	-0.0244962786	 0.0341029787	-0.05718
C	-1.3577367707	-0.5396707744	 0.0352170609	-0.136736
C	-1.5673187196	-2.0424965643	-0.0158575553	-0.086088
C	-1.148373883	-2.8679240834	 1.1920607951	-0.321043
C	-2.5512384412	-2.3536787241	 1.0741594665	 0.080492
O	-2.835873978	-1.164156942	 1.7961618289	-0.23084
C	-2.0943123148	-0.1313425458	 1.304311384	 0.415472
N	-2.0087714181	 1.0097733481	 1.8465607478	-0.554481
H	-0.4240637408	 1.6759497608	 0.7513739958	 0.29907
H	 0.5996498371	-0.3775619413	-0.8721528765	 0.103721
H	 0.6315113821	-0.456518864	 0.8953665439	 0.081613
H	-1.8669349995	-0.0684457941	-0.8146525808	 0.117828
H	-1.6274637241	-2.5300237272	-0.9806290167	 0.105748
H	-0.9878136082	-3.9278227473	 1.0292461366	 0.1269
H	-0.5104934368	-2.4224082164	 1.9480849002	 0.133807
H	-3.4167846725	-2.9958426665	 0.9800899994	 0.116717
H	-2.5520201478	 1.0627967236	 2.7079955121	 0.230022
93.2467	151.8107	194.0605	248.7446	370.2344	409.897	453.7662	462.2586	622.0234	635.0326	693.5289	700.1211	790.1391	800.6492	820.0334	879.595	950.4043	974.6403	994.7323	1027.0979	1043.2006	1069.5022	1077.5732	1097.4963	1108.6485	1123.6682	1156.9868	1201.9652	1221.7142	1270.3237	1288.5706	1315.5065	1376.8439	1388.1787	1394.063	1476.0531	1482.5658	1512.075	1758.0976	2965.1176	3038.8259	3062.4293	3136.6627	3190.1714	3205.5813	3227.1853	3491.4048	3636.8405
OCC1C2CC2OC1=N	OC[C@H]1[C@H]2C[C@H]2O[C]1[NH]	
InChI=1S/C6H9NO2/c7-6-4(2-8)3-1-5(3)9-6/h3-5,7-8H,1-2H2	InChI=1S/C6H9NO2/c7-6-4(2-8)3-1-5(3)9-6/h3-5,7-8H,1-2H2/t3-,4+,5-/m1/s1
