16
gdb 25484	5.03835	0.98166	0.83664	3.1294	82.68	-0.2394	-0.0128	0.2266	1324.2069	0.12636	-400.81179	-400.804304	-400.80336	-400.84437	28.261	
N	-2.453531031	 1.1781401903	-0.149790282	-0.427795
C	-2.2572978575	-0.0007772849	 0.248123185	 0.105333
O	-1.2254508411	-0.7149209844	-0.2689255411	-0.220044
C	-1.1752078775	-2.0734150324	-0.0340037174	 0.394138
C	 0.0775042071	-2.619640617	 0.2359592818	-0.201296
C	 0.1964904539	-3.9900716028	 0.4373186142	-0.08684
C	-0.9277055128	-4.8130197571	 0.3765844336	-0.119534
C	-2.1729531338	-4.2571109844	 0.099000079	-0.084625
C	-2.3046316347	-2.8861454487	-0.1163481756	-0.230683
H	-3.2284067973	 1.5925636089	 0.3643521909	 0.234269
H	-2.8185283827	-0.5489362925	 1.0135843499	 0.103877
H	 0.9358505312	-1.9599444281	 0.2840361189	 0.114583
H	 1.1721245772	-4.4153309615	 0.6473713453	 0.104535
H	-0.8310278745	-5.8809423764	 0.5371660486	 0.100524
H	-3.0508963382	-4.8911689135	 0.0349571041	 0.103746
H	-3.2676620582	-2.4585047753	-0.3706680354	 0.10981
67.2932	111.2197	177.768	289.0136	399.6303	424.2014	455.7986	534.7457	624.4776	658.7209	713.4517	781.3694	824.7867	849.5729	861.826	919.4952	956.0958	985.908	1013.9604	1041.4514	1053.1354	1058.4964	1100.4348	1180.3713	1190.7792	1250.9217	1290.1076	1328.1312	1347.9957	1410.6081	1485.9394	1523.004	1630.1391	1637.2959	1744.5297	3056.1248	3176.4405	3184.3996	3195.7066	3202.9547	3209.3082	3518.1343
N=COC1=CC=CC=C1	[NH][CH]Oc1ccccc1	
InChI=1S/C7H7NO/c8-6-9-7-4-2-1-3-5-7/h1-6,8H	InChI=1S/C7H7NO/c8-6-9-7-4-2-1-3-5-7/h1-6,8H
