19
gdb 64734	2.50218	1.27391	1.12865	2.8047	81.25	-0.2353	-0.0205	0.2148	1189.8128	0.155971	-385.86953	-385.859854	-385.85891	-385.90429	35.657	
C	-0.1252720257	 1.7075063211	-0.0427748156	-0.449984
C	 0.0502738003	 0.1924004643	-0.0440202825	 0.193299
C	-1.2934170081	-0.5517553405	 0.1735394613	-0.411489
C	-1.9763811136	-0.2121419329	 1.4151637845	 0.321012
C	-2.5409598524	 0.0704752875	 2.4375888021	-0.440226
C	 0.8629404937	-0.4369474364	-1.2294145475	-0.283629
C	 1.821104487	-1.1517790956	-0.23005401	-0.3408
C	 1.1607482592	-0.3404373815	 0.8959738338	 0.380219
O	 1.4448636085	-0.1161995409	 2.0358221989	-0.29382
H	 0.8323111027	 2.2140410492	-0.1972037741	 0.116941
H	-0.8069632839	 2.0198012855	-0.8422825158	 0.115669
H	-0.5383203722	 2.0438036071	 0.9115227219	 0.149891
H	-1.945890222	-0.322668461	-0.6800790692	 0.134133
H	-1.1204936767	-1.6354150924	 0.1393307611	 0.129042
H	-3.0318682589	 0.3151874715	 3.3467526957	 0.198847
H	 0.2925638115	-1.0920506783	-1.8911288615	 0.104974
H	 1.3672086594	 0.3188598093	-1.8349268916	 0.110901
H	 1.6433641361	-2.2272290823	-0.1287146861	 0.133347
H	 2.895583095	-0.9941179637	-0.3512184755	 0.131674
58.8224	71.0313	134.2108	180.8713	200.4362	263.1407	309.3942	334.6962	352.6245	474.3137	487.7495	519.71	623.7153	644.1466	699.31	711.1325	743.6492	857.3997	890.4626	929.5311	938.4927	974.4064	985.9345	1053.9999	1067.1751	1135.4057	1166.0553	1197.8495	1211.5813	1243.9432	1248.2824	1314.4328	1335.4281	1408.2368	1440.4141	1466.4798	1488.3293	1491.174	1496.3133	1888.4356	2239.5885	3009.7405	3032.0683	3041.979	3059.3034	3072.8757	3098.5802	3110.2339	3124.9723	3128.9059	3506.3719
CC1(CC#C)CCC1=O	C[C@@]1(CC#C)CCC1=O	
InChI=1S/C8H10O/c1-3-5-8(2)6-4-7(8)9/h1H,4-6H2,2H3	InChI=1S/C8H10O/c1-3-5-8(2)6-4-7(8)9/h1H,4-6H2,2H3/t8-/m1/s1
