17
gdb 74702	3.17159	1.69848	1.50191	1.6435	72.51	-0.2172	0.0021	0.2193	925.7952	0.139914	-418.029692	-418.022949	-418.022005	-418.060372	28.25	
N	 0.0488382316	 1.3488499061	-0.1065715632	-0.562611
C	-0.0604783444	-0.0241240737	-0.0348013806	 0.456211
N	-1.1943960606	-0.6161355379	-0.0379043565	-0.34966
C	-1.1216132563	-2.0874453648	-0.0157068636	-0.023373
C	 0.0675226904	-2.5527275688	-0.8815647433	-0.246857
C	 1.1837026698	-2.0512380405	 0.0387354968	 0.075371
O	 1.1806974679	-0.5881712952	-0.010750224	-0.283149
C	 0.6892748571	-2.4869246506	 1.405816317	-0.088763
C	-0.6461184028	-2.5084111124	 1.3751126197	-0.058598
H	 0.8884055781	 1.7281156619	 0.3045326027	 0.253304
H	-0.8014832529	 1.8265524459	 0.1502140177	 0.259343
H	-2.0899951545	-2.4946571175	-0.3104760287	 0.06821
H	 0.1089518537	-3.6406121165	-0.9745730779	 0.104298
H	 0.0850016959	-2.0936220805	-1.87282992	 0.110199
H	 2.2023476686	-2.3317183762	-0.2276592129	 0.081995
H	 1.3311172841	-2.6193731449	 2.267600692	 0.100068
H	-1.3119744956	-2.6722475243	 2.2139404649	 0.104011
154.9508	284.1591	355.1469	391.8026	416.2955	435.9289	476.8408	565.4293	615.882	630.6959	747.1307	764.9617	801.3976	825.8887	866.3814	892.6496	914.5393	925.491	960.658	990.0522	1004.5162	1009.7516	1080.0316	1127.0784	1155.3498	1205.0197	1236.1694	1294.5795	1306.217	1316.585	1352.3699	1362.402	1398.7415	1482.7891	1608.3587	1649.9069	1709.6755	3066.2453	3093.9468	3121.0367	3122.5704	3196.8341	3222.6007	3579.7158	3696.2916
NC1=NC2CC(O1)C=C2	N[C]1[N][C@H]2C[C@@H](O1)C=C2	
InChI=1S/C6H8N2O/c7-6-8-4-1-2-5(3-4)9-6/h1-2,4-5H,3H2,(H2,7,8)	InChI=1S/C6H8N2O/c7-6-8-4-1-2-5(3-4)9-6/h1-2,4-5H,3H2,(H2,7,8)/t4-,5+/m1/s1
