15
gdb 131191	3.37681	1.63914	1.11117	3.6544	75.99	-0.1996	-0.0245	0.175	1018.7414	0.115286	-416.825289	-416.818253	-416.817308	-416.856691	27.117	
O	 0.0915650157	 1.388402235	 0.1869107493	-0.43935
C	 0.0597392499	 0.0374377268	 0.0150965149	 0.091101
C	 0.0504730022	-0.733877015	-1.1384725894	 0.290924
C	 0.0611157111	-0.7747395871	-2.589460226	-0.231086
C	 0.0322614477	-2.0609281861	-2.9870661465	-0.099769
C	-0.0005689241	-2.9911935379	-1.789194252	-0.228104
N	 0.0147573853	-2.0305861419	-0.7012588362	 0.034924
N	 0.0000268927	-2.165623573	 0.6229368003	-0.292875
C	 0.0278629405	-0.9024754192	 1.0714970266	-0.053558
H	 0.1100542553	 1.8167395458	-0.673680643	 0.299302
H	 0.0879073383	 0.0906880314	-3.237217245	 0.109555
H	 0.0314553833	-2.4243560596	-4.0045437089	 0.114819
H	-0.9026678694	-3.6149734637	-1.7605996602	 0.143728
H	 0.8686153853	-3.6593271082	-1.7464926054	 0.143709
H	 0.0241907962	-0.6965308475	 2.1310043415	 0.116679
143.6395	182.5817	211.4004	275.5428	344.6184	459.9834	532.3917	618.4025	640.9519	673.7807	687.8398	741.4871	805.4271	846.49	875.5459	932.9521	943.8603	984.8454	1044.409	1120.1568	1153.172	1173.8445	1213.3536	1252.3437	1294.8369	1347.8528	1374.1258	1401.8255	1430.9135	1483.8501	1510.3076	1598.5939	1649.2124	3027.4738	3057.9678	3223.6662	3248.353	3254.9574	3841.7587
OC1=C2C=CCN2N=C1	Oc1c2C=CCn2nc1	
InChI=1S/C6H6N2O/c9-6-4-7-8-3-1-2-5(6)8/h1-2,4,9H,3H2	InChI=1S/C6H6N2O/c9-6-4-7-8-3-1-2-5(6)8/h1-2,4,9H,3H2
