18
gdb 79192	2.66148	1.85017	1.5174	2.2192	68.81	-0.244	0.0509	0.2949	922.0973	0.150044	-439.042655	-439.035436	-439.034492	-439.074012	29.45	
O	 0.2094857597	 1.413630617	 0.104955938	-0.443007
C	 0.0575101469	-0.0054673386	 0.0071072268	 0.0525
C	-1.3719296493	-0.4804419769	-0.132988171	-0.066713
C	-2.1748950219	-0.0626232184	-1.3214575983	-0.059018
C	-1.3212821524	 0.3606837711	-2.5128172346	-0.26029
C	-0.4583813174	-0.8814369839	-2.1920091962	-0.024878
C	 0.7369885535	-0.5619630631	-1.2878110634	 0.134693
O	 1.6641453755	 0.3336693074	-1.8430852966	-0.445985
N	-1.5419692637	-1.4342423988	-1.2587379915	-0.154492
H	-0.5765453231	 1.8204777388	-0.2744116267	 0.294219
H	 0.5293304539	-0.411382204	 0.9055269059	 0.098042
H	-1.9324561598	-0.7467770436	 0.7572664291	 0.098705
H	-3.2508965152	 0.0603472983	-1.240438472	 0.099252
H	-1.8737598715	 0.2404730921	-3.4466506817	 0.119511
H	-0.8342731414	 1.3398560221	-2.5182961918	 0.095128
H	-0.2324950024	-1.5532743782	-3.018444109	 0.086366
H	 1.248688776	-1.5015710971	-1.0414643395	 0.087015
H	 1.5252243825	 1.1694366459	-1.3714530878	 0.288952
110.295	225.7274	288.2335	310.4225	314.485	460.9471	502.3545	538.0555	565.2979	668.6074	706.0861	764.2615	790.8704	808.8919	843.0963	882.0763	941.4842	975.3447	1004.8435	1020.6701	1051.0507	1075.8616	1086.3666	1107.4371	1137.9585	1146.0616	1189.2659	1223.8747	1243.295	1252.8008	1270.2331	1305.2078	1327.444	1358.5366	1383.3218	1396.51	1419.2161	1438.0606	1497.736	3019.4939	3055.224	3077.2434	3110.9998	3128.8109	3151.2554	3168.9824	3698.0821	3819.4021
OC1C2C3CC(C1O)N23	O[C@H]1[C@H]2[C@H]3C[C@@H]([C@H]1O)N23	
InChI=1S/C6H9NO2/c8-5-3-1-2-4(6(5)9)7(2)3/h2-6,8-9H,1H2	InChI=1S/C6H9NO2/c8-5-3-1-2-4(6(5)9)7(2)3/h2-6,8-9H,1H2/t2-,3+,4-,5-,6+,7?/m1/s1
