19
gdb 109559	2.59632	1.27656	0.99634	2.0417	71.37	-0.2561	-0.0359	0.2202	1220.6722	0.157512	-460.16117	-460.151472	-460.150527	-460.195749	35.234	
C	-0.1947366406	 1.4837232084	-0.2020455444	-0.39535
C	-0.0565824384	-0.0281791779	-0.065290039	-0.100999
C	 1.1667090698	-0.6110454372	-0.8933650454	 0.069287
O	 1.6963887523	 0.072231188	-1.9859550683	-0.427491
C	 1.9193079642	-0.5640841647	 0.4290104574	 0.328242
O	 3.0540872532	-0.2442352108	 0.6859075482	-0.340103
C	 0.6352474092	-0.5454858569	 1.253413045	-0.117162
C	 0.714918186	 0.2711402152	 2.5436890266	-0.090209
O	 1.6959088466	-0.2697808214	 3.4083619995	-0.42177
H	 0.7442427889	 2.0045961857	 0.0141702354	 0.119594
H	-0.4778565563	 1.7413304846	-1.226111692	 0.135081
H	-0.9582430188	 1.8761115713	 0.4759249672	 0.123193
H	-1.0028294535	-0.5234801589	-0.2898529482	 0.086782
H	 0.9400753771	-1.6449694766	-1.1824869089	 0.114071
H	 2.4711737397	 0.5575555418	-1.676738267	 0.299076
H	 0.3098299811	-1.5648813524	 1.4848641762	 0.112758
H	 0.9234463205	 1.325264007	 2.3106505479	 0.094696
H	-0.2367464513	 0.2376618687	 3.083770869	 0.113327
H	 2.5368284504	-0.2128141237	 2.9364526909	 0.296977
78.5158	108.8748	150.871	160.3202	210.3547	225.078	238.5469	276.5612	342.5689	443.8849	503.2261	518.9034	581.11	590.9335	759.5209	809.6062	837.9284	848.686	952.765	982.3258	1019.9203	1062.8136	1073.1293	1104.6161	1125.0169	1143.0196	1171.4643	1213.554	1236.6215	1264.1574	1314.7086	1338.918	1363.4327	1394.1893	1412.059	1419.2851	1440.4585	1495.1841	1495.4717	1512.3161	1837.9738	2999.6805	3033.9905	3039.4291	3061.0108	3077.3848	3087.3161	3108.2701	3119.2368	3771.7396	3782.8818
CC1C(O)C(=O)C1CO	C[C@H]1[C@@H](O)C(=O)[C@H]1CO	
InChI=1S/C6H10O3/c1-3-4(2-7)6(9)5(3)8/h3-5,7-8H,2H2,1H3	InChI=1S/C6H10O3/c1-3-4(2-7)6(9)5(3)8/h3-5,7-8H,2H2,1H3/t3-,4+,5-/m1/s1
