19
gdb 110329	2.24079	1.28675	1.16661	2.704	75.94	-0.2408	-0.0172	0.2237	1184.2323	0.158223	-423.00909	-423.000016	-422.999071	-423.043155	33.602	
C	-0.3839628138	 1.5295697229	 0.0933332029	-0.425932
C	 0.0640712638	 0.076506681	-0.0006930054	-0.094816
C	 0.6985360634	-0.5356916386	-1.2650825487	-0.111242
C	 2.1129578829	-0.1211784359	-1.5056971293	-0.028561
C	 2.7787344769	 1.2136627817	-1.2248254005	-0.101187
O	 4.19155666	 1.0882441474	-1.2310949305	-0.415687
C	 1.8440188607	-1.1705546914	-0.4281510792	-0.213894
C	 1.2719148919	-0.4972311209	 0.7919142844	 0.383534
O	 1.5531916893	-0.5065595435	 1.9573864924	-0.319391
H	 0.3806744511	 2.2300145114	-0.2496455531	 0.127327
H	-1.2824240384	 1.6981078046	-0.5093606276	 0.121522
H	-0.6263259968	 1.7773097924	 1.1317029277	 0.13688
H	-0.7735997091	-0.5695708285	 0.2998709673	 0.111432
H	 0.1294077753	-1.0371111471	-2.0382048926	 0.101688
H	 2.5334219191	-0.5823651061	-2.3982240459	 0.108693
H	 2.5407464108	 1.9249422855	-2.0234744867	 0.115386
H	 2.4271095166	 1.6466466491	-0.2797178774	 0.104358
H	 4.4328464836	 0.5052767886	-0.5029814575	 0.288306
H	 2.2856886126	-2.1584170827	-0.4715362504	 0.111583
64.9997	136.6984	142.4319	167.0471	190.4092	250.2225	316.8997	369.123	444.0343	475.7636	580.7668	630.6143	674.9514	753.1886	787.2188	821.8447	886.0993	932.939	953.9796	976.1822	1023.2959	1052.5943	1057.362	1079.5322	1093.9131	1116.7314	1152.959	1179.1063	1218.063	1238.9066	1287.3117	1327.2915	1356.0382	1375.0975	1408.273	1412.1176	1447.9213	1492.5709	1499.0822	1504.7734	1877.7409	3011.5656	3018.8134	3042.1291	3071.7259	3104.094	3126.6996	3128.7678	3187.6396	3197.728	3806.649
CC1C2C(CO)C2C1=O	C[C@H]1[C@H]2[C@@H](CO)[C@H]2C1=O	
InChI=1S/C7H10O2/c1-3-5-4(2-8)6(5)7(3)9/h3-6,8H,2H2,1H3	InChI=1S/C7H10O2/c1-3-5-4(2-8)6(5)7(3)9/h3-6,8H,2H2,1H3/t3-,4+,5-,6+/m0/s1
