21
gdb 79242	2.38238	1.61242	1.3831	0.8285	82.42	-0.228	0.0727	0.3007	1081.6854	0.181292	-387.050188	-387.041082	-387.040138	-387.083325	35.239	
C	 0.0001825086	 1.6238214364	-0.0180199462	-0.433199
C	 0.0942874665	 0.1026421535	-0.0084041155	-0.023217
C	 0.8089335359	-0.6633258761	-1.1229952961	-0.132914
C	 2.2974614492	-0.7927459077	-0.7334109848	-0.117529
C	 2.4895981197	-0.1123876335	 0.6209845902	-0.308165
C	 1.0704095303	-0.6552130013	 0.9507859806	 0.315245
O	 0.6982169673	-0.9962679388	 2.244648585	-0.482451
C	 1.2667557486	-1.7495940958	-0.1804745729	 0.310605
C	 1.1324696219	-3.2357207093	-0.1748332084	-0.527264
H	 0.9637205126	 2.0958537807	-0.229935917	 0.118913
H	-0.7048631635	 1.96307957	-0.784960034	 0.115788
H	-0.3609978516	 2.0056660758	 0.9449113758	 0.103767
H	-0.9002235526	-0.3353874375	 0.1380469361	 0.072233
H	 0.4959509956	-0.7807347569	-2.1536226389	 0.077466
H	 3.0502614707	-1.0008541003	-1.4834287558	 0.081341
H	 3.2392859275	-0.6373316298	 1.2199828865	 0.10007
H	 2.6668087001	 0.9681259855	 0.668855959	 0.081239
H	 0.6989181153	-0.1976540846	 2.784136407	 0.279809
H	 0.1161877518	-3.5467983501	 0.0922777848	 0.12498
H	 1.3580453191	-3.6475906364	-1.1646261194	 0.118582
H	 1.8182225972	-3.6989432538	 0.543552164	 0.124703
145.8424	148.6332	184.9125	185.8276	194.334	209.3904	300.0565	373.197	389.4269	503.2776	547.0175	606.1128	668.1538	685.8221	750.8641	818.901	854.5603	867.05	922.5745	940.2315	972.0694	996.4508	1002.8585	1048.7394	1067.7752	1096.81	1113.5141	1130.3989	1155.5079	1174.4971	1201.8379	1231.9623	1247.1603	1275.0624	1296.0222	1358.1212	1394.9694	1406.6543	1412.72	1467.6106	1481.9616	1492.0402	1493.6616	1498.4808	1513.1568	3022.5334	3023.9569	3032.1346	3039.1891	3082.5631	3083.3512	3091.0167	3094.2873	3110.5181	3180.6516	3193.2353	3798.4076
CC1C2C3CC1(O)C23C	C[C@H]1[C@H]2[C@H]3C[C@]1(O)[C@@]23C	
InChI=1S/C8H12O/c1-4-6-5-3-8(4,9)7(5,6)2/h4-6,9H,3H2,1-2H3	InChI=1S/C8H12O/c1-4-6-5-3-8(4,9)7(5,6)2/h4-6,9H,3H2,1-2H3/t4-,5+,6-,7+,8+/m0/s1
