15
gdb 54656	3.89171	1.11305	0.87043	7.7947	70.53	-0.2218	-0.0443	0.1774	1244.7481	0.113456	-454.011769	-454.003732	-454.002788	-454.044455	30.273	
O	 0.0741862674	 0.1057353624	 0.0481487058	-0.339489
C	-0.1045944338	 1.2955212977	 0.0254128947	 0.370423
O	 0.9091894146	 2.1830871642	 0.0040377041	-0.382226
C	-1.4435541265	 1.9443423216	 0.0178628549	 0.202999
C	-2.6499503458	 1.3549193405	 0.0308038861	-0.18916
C	-3.6690891411	 2.4611655909	 0.0155116019	-0.373149
C	-2.7551560265	 3.6751063136	-0.003278023	 0.39263
N	-3.2199116308	 4.9480568312	-0.0741221347	-0.569944
H	-4.1703413186	 5.1420769788	 0.1899896756	 0.266605
H	-2.553383245	 5.6905798175	 0.0681671593	 0.270901
N	-1.4963337281	 3.3637997456	-0.0005747595	-0.3851
H	-2.8571328289	 0.2968372844	 0.0524298064	 0.132547
H	-4.322482401	 2.4384651858	-0.8657208864	 0.153268
H	-4.3262003369	 2.4567470303	 0.8950586478	 0.144856
H	 0.503497541	 3.0694509656	-0.0122913532	 0.30484
90.4996	150.6378	173.6645	248.7923	317.4692	373.5406	413.1221	414.7579	528.5412	536.0347	599.7767	682.7745	709.1917	731.0836	740.4314	826.3624	869.8109	936.8157	949.5377	976.3025	1097.3881	1134.5903	1143.5265	1227.5644	1248.5408	1307.0515	1403.1458	1418.858	1438.5464	1609.43	1662.3599	1673.728	1855.0493	3032.5171	3066.8824	3267.922	3599.8185	3623.0309	3722.4045
[O-]C(=O)C1=CCC(=[NH2+])N1	O=C(O)C1=CCC(=N1)N	
InChI=1S/C5H6N2O2/c6-4-2-1-3(7-4)5(8)9/h1H,2H2,(H2,6,7)(H,8,9)	InChI=1S/C5H6N2O2/c6-4-2-1-3(7-4)5(8)9/h1H,2H2,(H2,6,7)(H,8,9)
