16
gdb 51134	4.48121	1.04763	0.94898	1.0725	68.92	-0.2508	-0.03	0.2208	1205.3558	0.123686	-437.886433	-437.878557	-437.877613	-437.920041	28.708	
O	 0.2774793494	-0.1942765701	-0.079851279	-0.234292
C	 0.0986550464	 0.9844211799	-0.2406916473	 0.163109
C	 1.1457654916	 2.0522957357	 0.0351941177	-0.375622
C	 1.2884769693	 3.0207384856	-1.1086910677	 0.388634
C	 2.0254238052	 2.7308937939	-2.3860988853	-0.345487
C	 2.4834843955	 3.8785462344	-1.5051175261	-0.076724
N	 1.9463575336	 5.179527508	-1.8314389658	-0.251444
C	 0.687723008	 5.0787909115	-1.6863233081	 0.09296
O	 0.1682272691	 3.8987770811	-1.2498065266	-0.248978
H	-0.8733231976	 1.3782581361	-0.6113028982	 0.095058
H	 0.8405760553	 2.6059079212	 0.9337908483	 0.136284
H	 2.0982377536	 1.5581865866	 0.2433172179	 0.132429
H	 2.6467914307	 1.841872819	-2.383455403	 0.132919
H	 1.5562378543	 2.9675492749	-3.3351901503	 0.130976
H	 3.455926958	 3.8519713952	-1.0284717007	 0.11104
H	-0.0432892224	 5.8560774572	-1.8706284356	 0.149136
49.4051	61.2629	147.7807	254.8862	334.0859	390.192	405.6681	476.5832	607.4293	682.532	738.9527	807.4083	812.0248	877.112	915.427	937.4993	950.1175	978.2834	1032.7282	1046.4346	1076.921	1077.1569	1114.3206	1129.8597	1177.7705	1243.1388	1269.642	1313.4345	1338.7771	1389.7751	1426.4903	1445.0116	1468.3549	1669.0451	1836.3101	2895.7004	3025.7877	3110.6559	3132.1879	3185.8278	3226.1752	3233.9413
O=CCC12CC1N=CO2	O=CC[C@]12C[C@H]1N=CO2	
InChI=1S/C6H7NO2/c8-2-1-6-3-5(6)7-4-9-6/h2,4-5H,1,3H2	InChI=1S/C6H7NO2/c8-2-1-6-3-5(6)7-4-9-6/h2,4-5H,1,3H2/t5-,6+/m1/s1
