19
gdb 61534	3.51455	0.9296	0.86328	2.1451	77.75	-0.2529	0.0217	0.2746	1393.179	0.156481	-422.967752	-422.95805	-422.957105	-423.00235	36.755	
O	-0.3348512704	 1.2620232308	-0.0527976064	-0.427518
C	-0.0296333319	-0.1349458605	 0.0358253431	-0.082062
C	 0.5915089628	-0.6865191364	-1.2689683497	-0.300291
C	-0.0746069271	-0.0907031469	-2.5014410467	 0.450644
O	-1.4702469126	 0.0146238252	-2.4116437614	-0.477214
C	 0.6429917264	 0.9655170842	-3.3090247604	-0.322781
C	 0.4443852941	-0.433517529	-3.862339863	-0.313764
C	 0.8085821056	-0.4343692861	 1.1970159146	 0.296185
C	 1.5313235195	-0.665836824	 2.1293236829	-0.417527
H	 0.4963180885	 1.743059033	-0.1363106142	 0.289687
H	-1.0090299672	-0.6057720939	 0.168328737	 0.133656
H	 1.6669222829	-0.4785605422	-1.2875054023	 0.104142
H	 0.4774825293	-1.7770477819	-1.2536604747	 0.119271
H	-1.6357950772	 0.7314369015	-1.7839944222	 0.291376
H	 0.0323538002	 1.7557892023	-3.7310260597	 0.116471
H	 1.6435650271	 1.2670639232	-3.0156657065	 0.102122
H	 1.305967883	-1.0881804139	-3.9389779008	 0.111182
H	-0.2975356825	-0.5601025186	-4.6419237344	 0.12556
H	 2.1521500694	-0.8731812367	 2.9659371048	 0.200862
64.6954	85.8179	123.0967	199.8443	241.098	292.4244	314.3273	340.5614	373.8102	444.4437	487.7092	554.5347	567.9171	588.6084	628.6794	678.2537	756.3119	778.1499	829.2919	901.3087	922.7935	933.4792	975.0659	1001.5956	1045.0941	1054.8004	1075.7469	1082.8534	1168.0533	1190.5012	1264.5937	1292.1318	1300.1574	1324.3187	1354.9562	1403.9633	1430.0215	1452.4497	1481.7625	1499.8584	2233.869	3034.5811	3060.6424	3082.9753	3126.7214	3137.3871	3214.676	3231.5149	3501.6401	3752.8076	3805.219
OC(CC1(O)CC1)C#C	O[C@@H](CC1(O)CC1)C#C	
InChI=1S/C7H10O2/c1-2-6(8)5-7(9)3-4-7/h1,6,8-9H,3-5H2	InChI=1S/C7H10O2/c1-2-6(8)5-7(9)3-4-7/h1,6,8-9H,3-5H2/t6-/m1/s1
