23
gdb 76898	2.15123	1.70753	1.34977	1.5624	83.44	-0.248	0.0525	0.3005	1099.899	0.207767	-388.29739	-388.288671	-388.287727	-388.330315	34.743	
C	-0.747543154	 1.3215275889	 0.0021147292	-0.417313
C	-0.0953572596	-0.055869344	-0.0118565991	-0.013901
C	 1.0955208355	-0.3023372486	-1.0008331941	 0.104662
O	 1.562721359	 0.7761901663	-1.7815089984	-0.423087
C	 1.9842607155	-0.8011539783	 0.1871689431	-0.039566
C	 3.1583280904	 0.0986113449	 0.6018812853	-0.225712
C	 2.5302767911	 1.2319698109	 1.4417949953	-0.218931
C	 1.3369795284	 0.5653225867	 2.157443498	-0.212189
C	 0.8102074434	-0.5067871769	 1.18520836	-0.031064
H	-0.0331526969	 2.1329755113	 0.176627593	 0.104356
H	-1.2410488487	 1.522949799	-0.9537873002	 0.124494
H	-1.5044759092	 1.3855032286	 0.7910333783	 0.116345
H	-0.8801950499	-0.7989186914	-0.1885187862	 0.069979
H	 0.8824832782	-1.0900640883	-1.7281642642	 0.083024
H	 1.7386808923	 1.526025681	-1.2046489349	 0.281081
H	 2.2869596814	-1.8454083405	 0.0824348947	 0.060861
H	 3.8541619694	-0.4761587155	 1.2230539053	 0.097281
H	 3.7232756913	 0.4671294501	-0.2596543538	 0.105595
H	 3.2415556499	 1.6854145536	 2.1382856995	 0.098565
H	 2.1791952242	 2.0467382843	 0.7943612897	 0.083137
H	 1.6914053748	 0.0723095208	 3.0702451332	 0.096095
H	 0.5710623736	 1.2844254031	 2.4642078676	 0.096223
H	 0.4055505299	-1.3660380663	 1.7242397186	 0.060067
84.3255	188.7426	202.9405	229.5635	242.6823	250.3432	281.6145	446.886	495.1573	509.58	575.776	621.8521	738.3594	755.0987	819.8708	847.2778	853.7913	881.3372	897.1394	930.0273	960.4265	1000.1368	1020.3585	1049.7591	1071.1912	1096.4911	1115.0438	1150.9996	1159.7588	1177.0944	1188.5972	1230.4628	1259.7304	1266.0326	1276.7267	1293.2538	1312.9073	1324.2746	1330.6362	1343.0814	1358.0464	1374.9128	1409.3885	1441.9106	1482.8046	1487.705	1493.8767	1503.2489	1511.9628	3009.1367	3033.3081	3034.948	3037.0901	3040.5252	3066.7894	3073.298	3079.6893	3083.9629	3087.4085	3092.2516	3096.4739	3104.1896	3816.9423
CC1C(O)C2CCCC12	C[C@H]1[C@@H](O)[C@H]2CCC[C@@H]12	
InChI=1S/C8H14O/c1-5-6-3-2-4-7(6)8(5)9/h5-9H,2-4H2,1H3	InChI=1S/C8H14O/c1-5-6-3-2-4-7(6)8(5)9/h5-9H,2-4H2,1H3/t5-,6+,7+,8-/m1/s1
