17
gdb 20129	3.50749	1.47609	1.12785	1.2501	64.26	-0.2501	0.0599	0.31	1045.7561	0.141162	-400.933001	-400.924578	-400.923634	-400.966812	29.774	
O	 1.1497660192	 1.815157055	 0.4346926861	-0.430597
C	 0.5245654971	 0.5798726117	 0.0946516985	 0.061517
C	 1.0367660794	 0.0235791759	-1.213755262	-0.005537
C	 0.1138679845	-0.6737032506	-2.1417212287	-0.231537
N	 0.6588693724	 0.649124697	-2.4875333329	-0.325472
C	 0.6842736092	-0.4230860928	 1.2225667364	 0.080305
C	-0.2853492599	-0.5072399553	 2.3168439075	-0.178963
O	-0.2738964755	-1.4807864096	 1.2669780583	-0.233743
H	 2.0927556888	 1.733472053	 0.2552758663	 0.285353
H	-0.5443064438	 0.8066079313	-0.0067399879	 0.084767
H	 2.0784574251	-0.301251746	-1.1823220798	 0.086711
H	 0.4774598848	-1.4941945476	-2.7529198776	 0.12266
H	-0.9281009028	-0.7571059409	-1.8452936187	 0.122549
H	-0.0359196919	 1.373899919	-2.3199339977	 0.236146
H	 1.7124354167	-0.7367691154	 1.4200990442	 0.088306
H	 0.0297447848	-0.8704776787	 3.2935425083	 0.118387
H	-1.1432123882	 0.163726684	 2.3235313798	 0.119147
53.9264	67.1364	159.4469	183.1496	232.4688	249.4882	372.1751	424.6676	463.792	554.6848	810.5543	858.4585	870.996	876.8502	922.805	953.728	972.6994	1043.5649	1061.4054	1087.3293	1121.1633	1131.8469	1156.0821	1157.9413	1172.6852	1191.7199	1245.8937	1268.5336	1280.1934	1294.4451	1314.2088	1399.066	1431.4167	1455.3245	1512.9194	1530.3006	3034.7671	3078.5526	3087.0521	3091.2706	3115.0013	3174.5328	3200.406	3490.7875	3807.5978
OC(C1CN1)C1CO1	O[C@@H]([C@H]1CN1)[C@H]1CO1	
InChI=1S/C5H9NO2/c7-5(3-1-6-3)4-2-8-4/h3-7H,1-2H2	InChI=1S/C5H9NO2/c7-5(3-1-6-3)4-2-8-4/h3-7H,1-2H2/t3-,4-,5+/m1/s1
