20
gdb 81028	2.43329	1.74201	1.33577	1.6446	74.12	-0.2317	0.0743	0.3061	1031.3297	0.172394	-440.260156	-440.252015	-440.251071	-440.292252	32.485	
C	-0.0084773021	 1.54252624	 0.036065739	-0.46531
C	-0.0542261582	 0.0300613527	 0.0008549771	 0.233115
C	 0.8243162592	-0.5840962764	-1.0983749847	-0.107285
O	 0.5263583362	-1.9576121587	-1.3193733679	-0.261164
C	 0.1452241923	-2.6818307265	-0.15606463	-0.084619
C	-0.6353737264	-1.7909208585	 0.8067800378	-0.061223
N	 0.2102937234	-0.6663390255	 1.3066906614	-0.372651
C	-1.4301628344	-0.7199605838	 0.009856134	 0.166836
O	-2.4427223119	-0.0802632896	 0.741512494	-0.4607
H	 1.0036174846	 1.8994820584	 0.2580954896	 0.115346
H	-0.3143242539	 1.9664157918	-0.9260888061	 0.121127
H	-0.6806998899	 1.9266333684	 0.8065819421	 0.122131
H	 0.6617803283	-0.0874300007	-2.0615582238	 0.109562
H	 1.8861083219	-0.4491064204	-0.8250883438	 0.085031
H	-0.4627294058	-3.5224341555	-0.509402234	 0.112614
H	 1.0285263088	-3.0976065221	 0.359850632	 0.086909
H	-1.1626126814	-2.3618161857	 1.5776639792	 0.073021
H	 1.187801045	-0.9090893607	 1.468875606	 0.203758
H	-1.8520449247	-1.0093584187	-0.9529150501	 0.094809
H	-2.0684198609	 0.1231324513	 1.6081067784	 0.288694
162.6556	183.6888	206.3815	239.3928	271.8601	343.9243	395.3185	424.4	469.0262	499.7974	534.3636	649.0311	703.2086	839.8495	853.7383	864.7706	890.4798	926.7207	970.1717	999.8901	1016.0975	1020.5642	1062.4663	1128.9183	1133.6954	1156.1728	1183.4681	1214.4389	1219.3804	1247.9601	1258.13	1285.8492	1318.9844	1334.0748	1354.7892	1377.5406	1410.603	1412.8794	1446.36	1485.8878	1487.2841	1499.0312	1506.2915	2944.3855	2954.1357	3034.9505	3055.5819	3059.0447	3065.7948	3098.9	3119.1365	3126.2008	3446.4285	3778.0163
CC12COCC(N1)C2O	C[C@@]12COC[C@@H](N1)[C@H]2O	
InChI=1S/C6H11NO2/c1-6-3-9-2-4(7-6)5(6)8/h4-5,7-8H,2-3H2,1H3	InChI=1S/C6H11NO2/c1-6-3-9-2-4(7-6)5(6)8/h4-5,7-8H,2-3H2,1H3/t4-,5-,6+/m1/s1
