14
gdb 5559	3.47882	1.90998	1.27954	2.9613	59.76	-0.2091	0.0156	0.2248	895.1428	0.106982	-419.687549	-419.679893	-419.678949	-419.720093	27.554	
O	 0.2033390352	 1.1939328052	-0.5141091455	-0.419584
C	-0.037886437	 0.0778786653	 0.3276864892	-0.178336
C	-1.3937153764	-0.5107763882	 0.1067490465	 0.254781
C	-2.1119772782	-0.7134177077	-1.0327642461	 0.198607
O	-1.6365463884	-0.4211041191	-2.2844086385	-0.45668
C	-3.3613956813	-1.3021739639	-0.654608304	-0.298791
C	-3.3060401655	-1.4160195746	 0.6992902696	-0.004802
O	-2.12651039	-0.9473113867	 1.1753204479	-0.175406
H	-0.0198826262	 0.9252907439	-1.4130871405	 0.295933
H	 0.7454409443	-0.6877487453	 0.1952499351	 0.102544
H	 0.033342625	 0.4304535098	 1.3616724017	 0.128045
H	-2.3775100982	-0.2717705641	-2.8791730766	 0.304591
H	-4.1763757837	-1.5969864375	-1.2976869593	 0.111076
H	-3.9943889696	-1.7942860271	 1.4365663905	 0.138022
43.1476	152.2252	196.9058	226.843	310.8342	393.5756	415.8833	432.0074	616.6398	654.348	695.5983	725.1916	746.1315	795.3669	905.4047	985.4817	1054.7427	1074.2007	1092.6615	1162.3894	1206.0214	1274.3786	1291.0908	1308.2771	1367.3989	1436.0485	1473.7844	1503.0162	1535.7713	1695.722	2952.6626	3075.8577	3247.8882	3284.186	3792.5669	3835.3054
OCC1=C(O)C=CO1	OCc1c(O)cco1	
InChI=1S/C5H6O3/c6-3-5-4(7)1-2-8-5/h1-2,6-7H,3H2	InChI=1S/C5H6O3/c6-3-5-4(7)1-2-8-5/h1-2,6-7H,3H2
