20
gdb 39139	3.35782	1.39443	1.25672	1.0299	78.06	-0.2309	0.0751	0.3061	1079.3628	0.173297	-403.120438	-403.11279	-403.111845	-403.152871	30.253	
C	 0.0602777643	 1.2987679615	 0.4016855991	-0.070607
C	 1.4617093727	 1.5336913105	-0.1910804531	-0.352477
C	 1.2833084509	 0.1375886692	-0.8274034942	 0.490822
C	 1.2862244176	 0.0101380441	-2.3616115856	-0.286019
C	 1.4651854155	-1.4979754345	-2.6569857485	-0.217617
C	 2.2519469498	-2.0057079719	-1.4608935654	-0.023233
N	 3.4068528835	-1.1415136235	-1.1269664917	-0.35328
C	 2.1440904854	-1.0174808804	-0.3605952748	-0.105121
O	-0.0513256495	 0.0158476151	-0.2475768327	-0.330141
H	 0.0144718089	 1.209152025	 1.4943959435	 0.098516
H	-0.7229100939	 1.9931823703	 0.0740643235	 0.100689
H	 1.532490302	 2.3533850245	-0.9085826012	 0.109375
H	 2.2792379475	 1.6163749098	 0.5271375827	 0.109987
H	 0.3686573041	 0.4259084383	-2.7836186559	 0.101413
H	 2.1353841752	 0.5733312514	-2.7571995846	 0.119548
H	 0.4957607251	-2.0075522089	-2.6879486287	 0.109562
H	 1.9720568291	-1.6803494908	-3.6095073821	 0.100356
H	 2.3229566675	-3.0702445922	-1.262710826	 0.084385
H	 4.0708110786	-1.6758148938	-0.5718610908	 0.230838
H	 2.1165564559	-1.3021311138	 0.6861299865	 0.083002
68.1687	111.4392	208.4845	299.6972	361.2453	385.6044	434.8325	507.2404	662.0274	732.7572	782.9038	821.667	824.6309	859.795	868.3771	908.7975	926.9433	941.5652	963.4992	981.6386	994.2277	1023.3964	1055.612	1089.6373	1116.3785	1156.455	1160.2694	1167.1312	1199.9191	1206.8971	1235.1403	1242.9067	1269.1924	1276.2885	1320.8793	1339.4109	1354.5526	1388.1013	1423.7279	1463.5108	1488.4906	1490.3001	1531.6158	3012.6494	3045.2207	3050.189	3067.9049	3076.3261	3088.1953	3120.829	3129.8239	3160.3107	3171.426	3500.4116
C1CC2(CCC3NC23)O1	C1C[C@]2(CC[C@H]3N[C@@H]23)O1	
InChI=1S/C7H11NO/c1-2-7(3-4-9-7)6-5(1)8-6/h5-6,8H,1-4H2	InChI=1S/C7H11NO/c1-2-7(3-4-9-7)6-5(1)8-6/h5-6,8H,1-4H2/t5-,6-,7+/m1/s1
