18
gdb 84461	4.10649	1.18373	1.0392	1.2253	85.25	-0.2284	0.0019	0.2303	1184.2729	0.14744	-364.762861	-364.754609	-364.753665	-364.795266	32.526	
C	-0.07437677	 1.5910773948	 0.0623263422	-0.394571
C	 0.0207543654	 0.0596027702	-0.008222831	-0.036021
C	 0.8084419758	-0.4534983214	-1.2024658702	-0.078413
C	 1.7919484758	-1.2861261217	-0.8625400666	-0.156603
C	 1.8607936899	-1.4416373508	 0.6273699641	 0.191652
N	 2.1688943441	-0.1309447624	 1.3003433004	-0.36744
C	 0.7692928123	-0.5666056967	 1.1709163833	-0.114433
C	 2.2802621091	-2.663170302	 1.2419585091	 0.176093
C	 2.6571880511	-3.6883410641	 1.7470777435	-0.40028
H	 0.9230934458	 2.0249201187	 0.1662226313	 0.142638
H	-0.5394075415	 1.9959077605	-0.8421442998	 0.111833
H	-0.6799403365	 1.9053480982	 0.9185635484	 0.11197
H	-0.9989254133	-0.3513147514	-0.0384905659	 0.084503
H	 0.5910361396	-0.1256654191	-2.2133751828	 0.099198
H	 2.4862818581	-1.7779839151	-1.5314512096	 0.106646
H	 2.4791120232	-0.3323770309	 2.2503839402	 0.234622
H	 0.2278220316	-0.8484060678	 2.0674538737	 0.098129
H	 2.9816541996	-4.5954511291	 2.1928376298	 0.190477
114.5582	135.2262	198.169	234.634	266.123	394.4887	410.0323	487.7004	523.4574	567.2731	587.5725	606.6654	659.375	701.0968	754.6193	798.4242	828.0763	857.2457	924.7892	949.3784	966.3372	1002.1956	1038.3871	1069.9974	1093.6985	1117.3167	1141.2606	1169.2831	1258.4211	1284.8947	1322.7558	1339.8719	1359.6454	1397.2352	1421.5314	1495.7119	1504.8766	1669.4499	2234.7454	2998.5738	3038.0952	3101.9813	3128.7927	3171.4711	3188.2904	3223.6072	3475.9914	3505.2651
CC1C=CC2(NC12)C#C	C[C@H]1C=C[C@]2(N[C@@H]12)C#C	
InChI=1S/C8H9N/c1-3-8-5-4-6(2)7(8)9-8/h1,4-7,9H,2H3	InChI=1S/C8H9N/c1-3-8-5-4-6(2)7(8)9-8/h1,4-7,9H,2H3/t6-,7-,8+/m0/s1
