19
gdb 113681	3.85982	0.82978	0.76121	5.0504	74.89	-0.2453	0.018	0.2633	1539.0951	0.158854	-456.338098	-456.327969	-456.327025	-456.374487	35.32	
C	-0.4016616628	 1.6401295361	-0.3239432088	-0.333487
N	-0.3031673489	 0.1940788676	-0.3063582884	-0.325329
C	 0.8713449107	-0.464933379	-0.5382053632	 0.453695
O	 1.9168535322	 0.1080008545	-0.7873428978	-0.374459
C	 0.7431431299	-1.9661484823	-0.4366386519	-0.166137
N	 1.6629189934	-2.7718069853	-1.2570707205	-0.321039
C	 1.7846806605	-2.8354281962	 0.2015587264	-0.027203
C	 3.0952008644	-2.331729441	 0.7639316344	-0.087691
O	 4.1226824393	-3.2877361836	 0.5365618876	-0.425051
H	-0.7301280193	 2.0299313816	 0.6460844748	 0.126056
H	 0.5925805743	 2.0284487427	-0.5471615837	 0.174912
H	-1.100915154	 1.9830842639	-1.094604871	 0.126807
H	-1.1322259629	-0.3427931193	-0.1149438279	 0.244928
H	-0.2798753721	-2.3292738745	-0.3427685543	 0.075668
H	 1.1733468075	-3.585095303	-1.6200082002	 0.237618
H	 1.4030578503	-3.7304083985	 0.6924896168	 0.091769
H	 3.3334807854	-1.3587497142	 0.3248958777	 0.138389
H	 3.0165696381	-2.2186486025	 1.850505422	 0.100989
H	 4.2418693841	-3.3281441271	-0.4189627621	 0.289564
38.6628	71.5343	81.3005	130.5957	142.221	227.6118	249.2986	327.8783	374.7385	397.1274	421.5315	472.2944	521.1682	690.2027	777.303	836.2299	847.8161	910.4085	941.1854	980.3595	1010.4733	1056.787	1070.0967	1119.7015	1154.0673	1167.1895	1175.4948	1206.5727	1229.3901	1261.5013	1274.4046	1370.4994	1409.1778	1434.9454	1444.2071	1473.6269	1493.6747	1500.3408	1505.7119	1561.0972	1779.8751	3027.2052	3049.2714	3079.1378	3096.3437	3102.7999	3118.6267	3154.9128	3508.5219	3650.529	3803.0678
CNC(=O)C1NC1CO	CNC(=O)[C@H]1N[C@H]1CO	
InChI=1S/C5H10N2O2/c1-6-5(9)4-3(2-8)7-4/h3-4,7-8H,2H2,1H3,(H,6,9)	InChI=1S/C5H10N2O2/c1-6-5(9)4-3(2-8)7-4/h3-4,7-8H,2H2,1H3,(H,6,9)/t3-,4-/m0/s1
