21
gdb 111241	3.3966	1.2122	1.12238	1.3472	78.45	-0.2481	0.0874	0.3355	1185.5406	0.184045	-424.200367	-424.192159	-424.191215	-424.233081	31.758	
C	-0.0188472757	 1.290381448	-0.2413321648	-0.246193
O	-0.0920854482	 0.0029220745	 0.3290169042	-0.263033
C	-1.3514388939	-0.6076440233	 0.1774653724	 0.175049
C	-1.6033257329	-1.2749310687	-1.2077645426	-0.086337
C	-0.8094005565	-2.5028015571	-0.6732356112	-0.229187
C	-1.3135759637	-2.0488568261	 0.7285728945	-0.069953
C	-2.7565720269	-2.5369812815	 0.9129429236	-0.081827
O	-3.436243865	-2.6391736485	-0.332491356	-0.256527
C	-3.0913132647	-1.6459933275	-1.2890164148	-0.074626
H	 0.9798639978	 1.6808080541	-0.0316805501	 0.127823
H	-0.169250565	 1.274982455	-1.3308678582	 0.106847
H	-0.7657855794	 1.9698981374	 0.1984496322	 0.104831
H	-2.145273864	 0.0595200078	 0.5540956444	 0.050904
H	-1.2699173325	-0.7570165817	-2.1104782619	 0.065893
H	-1.1061284614	-3.4927233109	-1.025405486	 0.101938
H	 0.2661722702	-2.3629195248	-0.7763527485	 0.111682
H	-0.7034745989	-2.2266874199	 1.6169486745	 0.072974
H	-2.7763989936	-3.5439900399	 1.3434157723	 0.108037
H	-3.2970246034	-1.8654344089	 1.6012321135	 0.08837
H	-3.7111729328	-0.7423107126	-1.1579079237	 0.085768
H	-3.3359318493	-2.0791232456	-2.2649953437	 0.107567
101.5125	151.0781	177.3308	216.2855	291.9703	294.3012	372.9451	414.1937	468.4006	543.8024	659.4174	832.414	851.5862	856.9876	880.7047	916.1017	933.5053	964.9609	985.4569	1024.5395	1056.3783	1082.7356	1085.2815	1108.1601	1143.5252	1152.8834	1168.4288	1184.0569	1221.9871	1238.0335	1247.9326	1272.1127	1277.4124	1298.1515	1306.3458	1320.5946	1378.6333	1391.1197	1419.7379	1477.9547	1485.6611	1487.537	1505.1682	1509.6352	1514.8979	2950.7986	2955.6252	2967.0825	2977.8431	3025.0565	3059.3676	3062.9188	3076.7288	3083.9405	3091.5609	3115.1869	3148.2785
COC1C2CC1COC2	CO[C@H]1[C@H]2C[C@@H]1COC2	
InChI=1S/C7H12O2/c1-8-7-5-2-6(7)4-9-3-5/h5-7H,2-4H2,1H3	InChI=1S/C7H12O2/c1-8-7-5-2-6(7)4-9-3-5/h5-7H,2-4H2,1H3/t5-,6+,7-
