15
gdb 28387	3.23924	1.37151	0.96621	2.0577	75.24	-0.1817	-0.0169	0.1648	1135.4804	0.114108	-454.017707	-454.00966	-454.008715	-454.049984	31.002	
N	-0.0052510416	 1.3975017066	 0.1863405589	-0.58302
C	-0.0585879388	 0.0187305044	 0.0545814619	 0.170391
C	-1.1944138314	-0.7442805061	 0.0117438741	-0.163309
C	-1.1451676934	-2.1672767768	-0.0557750251	-0.245514
C	 0.0640815091	-2.7778016135	-0.1005046229	 0.422601
O	 0.2256705701	-4.1247491806	-0.2256717387	-0.427469
N	 1.2063500529	-2.0128851167	-0.0812897912	-0.43498
C	 1.2532640208	-0.6223568185	-0.011130677	 0.407536
O	 2.3211158335	-0.0184086017	-0.0281385016	-0.417831
H	 0.9094633962	 1.760048103	-0.0518646574	 0.262644
H	-0.7691546317	 1.9153507234	-0.2200707721	 0.246028
H	-2.1651145798	-0.2587501619	 0.0463010953	 0.094141
H	-2.043803437	-2.7673275127	-0.0576109776	 0.110098
H	 0.8418175594	-4.44603269	 0.443703716	 0.303706
H	 2.1046676016	-2.457409059	-0.2153182125	 0.254976
133.8162	149.1252	194.1888	312.3308	338.1184	351.2514	393.12	423.1307	463.0844	543.3033	591.1196	611.9116	636.9008	669.3264	741.1459	784.3022	800.8574	816.6169	903.6446	1010.1099	1071.3284	1155.6986	1213.7793	1242.4227	1255.1941	1306.9281	1356.2846	1442.7925	1480.3399	1605.4145	1643.6914	1695.6174	1752.9455	3171.6919	3236.3003	3545.1581	3601.3129	3664.6642	3778.6062
NC1=CC=C(O)NC1=O	Nc1ccc(O)[nH]c1=O	
InChI=1S/C5H6N2O2/c6-3-1-2-4(8)7-5(3)9/h1-2H,6H2,(H2,7,8,9)	InChI=1S/C5H6N2O2/c6-3-1-2-4(8)7-5(3)9/h1-2H,6H2,(H2,7,8,9)
