19
gdb 111123	3.49748	1.33018	1.21923	2.6943	74.99	-0.2259	0.0746	0.3005	1092.1705	0.16134	-419.109984	-419.102501	-419.101557	-419.142038	29.751	
C	 0.0179771864	 1.3201726099	-0.2115626277	-0.243632
O	-0.06543828	 0.0300362693	 0.3493788652	-0.255365
C	-1.3303319921	-0.5447634114	 0.2092468595	 0.194444
C	-1.6099788444	-1.2829257884	-1.146359214	-0.076343
N	-0.6800139232	-2.3491706803	-0.6202843319	-0.301731
C	-1.3458320364	-2.0147732418	 0.6943839751	-0.069245
C	-2.8158342266	-2.4469988167	 0.4519839833	-0.053304
N	-3.7827636997	-1.3426074144	 0.2276902029	-0.333391
C	-3.0115377572	-1.9031868018	-0.9122188106	-0.053285
H	 1.0170764715	 1.7031973041	 0.0091326483	 0.126344
H	-0.1208425903	 1.3076044999	-1.3031178323	 0.104476
H	-0.730079891	 2.0027798945	 0.2220250135	 0.103419
H	-2.1149380956	 0.1192117458	 0.5753781917	 0.098446
H	-1.3869330713	-0.8542805889	-2.1234168984	 0.069192
H	-0.9449378837	-3.2796397904	-0.9530685333	 0.196034
H	-0.8460777915	-2.3276291578	 1.6107929815	 0.074674
H	-3.1702080574	-3.4174119588	 0.7812393167	 0.095201
H	-4.7229338323	-1.7359364317	 0.205192598	 0.229453
H	-3.5308989252	-2.423625301	-1.7096038376	 0.094612
83.2235	174.8932	180.2488	313.5904	363.0463	385.3111	450.5198	560.7438	587.524	681.9068	785.0997	817.3683	852.1249	885.6577	894.1744	898.1575	902.9265	946.3988	969.5063	1023.1665	1038.6506	1059.3861	1099.1605	1112.2338	1142.19	1158.5883	1175.9783	1183.0141	1192.1694	1214.439	1238.8307	1250.5122	1283.9653	1302.7483	1324.4991	1339.1728	1379.5524	1417.1424	1481.7386	1488.4552	1508.7525	2973.3455	3020.1192	3098.3608	3115.6778	3119.0594	3125.4044	3165.8844	3177.798	3407.1962	3470.3348
COC1C2NC1C1NC21	CO[C@H]1[C@H]2N[C@@H]1[C@H]1N[C@@H]21	
InChI=1S/C6H10N2O/c1-9-6-4-2-3(7-2)5(6)8-4/h2-8H,1H3	InChI=1S/C6H10N2O/c1-9-6-4-2-3(7-2)5(6)8-4/h2-8H,1H3/t2-,3+,4+,5-,6+
