19
gdb 102421	2.56199	0.76321	0.60619	1.4878	94.39	-0.2416	-0.011	0.2305	1805.0615	0.155949	-385.837739	-385.826974	-385.82603	-385.87408	38.176	
C	 0.7220092611	-0.1859337	 1.3620012601	-0.390927
C	 0.0700961451	-0.0834933389	-0.0171462243	-0.168824
C	-1.3638646979	-0.663937404	-0.067076992	-0.190069
C	-2.0547547447	-0.3561264951	-1.409207907	-0.088783
O	-2.1631614355	 1.0532867583	-1.5166034619	-0.416408
C	-1.3848310973	-2.0994869934	 0.1844467455	 0.43296
C	-1.3982870594	-3.2950769925	 0.3770384178	-0.289074
C	-1.4120838824	-4.6390856757	 0.590753253	 0.296385
C	-1.4254059598	-5.8317014769	 0.7807227102	-0.568264
H	 1.7303507656	 0.2385217085	 1.3477151464	 0.11437
H	 0.1425538134	 0.3599395674	 2.1149441856	 0.115579
H	 0.7991455889	-1.2271132448	 1.6899903026	 0.130138
H	 0.0035627789	 0.9616440317	-0.3318700054	 0.121877
H	 0.6820462772	-0.6063702944	-0.7622641044	 0.100319
H	-1.960126668	-0.165555629	 0.7114700517	 0.11857
H	-1.457456491	-0.7830512748	-2.2293695629	 0.098987
H	-3.0424945283	-0.8385010477	-1.4273552887	 0.101709
H	-2.5356512902	 1.2635249262	-2.3775196519	 0.292048
H	-1.4355347656	-6.8799871851	 0.9475458756	 0.189407
63.2297	79.8577	101.7124	139.3223	195.7336	211.3589	214.991	244.6497	290.1746	333.2555	429.1528	477.8271	498.2123	533.4108	551.2878	593.2396	605.3124	712.8234	823.2793	843.0946	981.342	1010.9841	1044.6261	1079.4658	1106.9819	1142.4295	1188.0333	1229.4852	1253.4503	1280.0366	1317.3645	1358.2424	1365.3214	1414.6178	1449.8169	1491.5605	1498.0365	1508.0772	1520.6123	2179.9313	2359.1714	2982.2047	3001.4581	3023.2741	3034.169	3038.8689	3089.514	3104.0484	3114.8893	3505.9806	3837.9085
CCC(CO)C#CC#C	CC[C@@H](CO)C#CC#C	
InChI=1S/C8H10O/c1-3-5-6-8(4-2)7-9/h1,8-9H,4,7H2,2H3	InChI=1S/C8H10O/c1-3-5-6-8(4-2)7-9/h1,8-9H,4,7H2,2H3/t8-/m1/s1
