21
gdb 74699	2.97041	1.52569	1.34609	0.3369	87.78	-0.217	0.0132	0.2302	1068.4882	0.18552	-349.980628	-349.97314	-349.972196	-350.012042	31.257	
C	-0.0101160131	 1.5504928644	 0.0493387632	-0.47448
C	 0.0081006645	 0.0495673832	-0.0341004383	 0.334902
C	 0.0006238042	-0.6139347957	-1.195762189	-0.163086
C	-0.0121706313	-2.1369894501	-1.220448262	-0.090819
C	 0.8733953648	-2.6336088907	-0.0555326854	-0.218852
C	-0.0324977835	-2.238351664	 1.1308258246	-0.059652
C	 0.0202620889	-0.6948546341	 1.2912661775	-0.289371
C	-1.3933611335	-2.6619980529	 0.5926049246	-0.070865
C	-1.3877302756	-2.6109171457	-0.7398171259	-0.068018
H	 0.8558302476	 1.9313298356	 0.6068384048	 0.117702
H	-0.0027733837	 2.0096768804	-0.9431762004	 0.117324
H	-0.9016990738	 1.9076884633	 0.5821062678	 0.119303
H	-0.0271166091	-0.0724433235	-2.1381000327	 0.072925
H	 0.2787549394	-2.5241789602	-2.1996858174	 0.057398
H	 0.9994361863	-3.7197555004	-0.0965653491	 0.090845
H	 1.8576137582	-2.1566353024	-0.0359946189	 0.089072
H	 0.237052674	-2.7215603667	 2.0743752811	 0.058662
H	 0.9254478506	-0.4139530493	 1.8495958928	 0.101109
H	-0.8220998887	-0.348231173	 1.9084660758	 0.097608
H	-2.2478669747	-2.8745332366	 1.2250168376	 0.087229
H	-2.2326880314	-2.7694401116	-1.3996402306	 0.091064
137.3651	191.5456	266.5049	321.8051	368.3894	412.2398	416.5537	482.5761	562.5313	618.0999	728.6967	769.8448	789.7333	835.0017	839.662	859.1069	895.6185	919.7552	941.7525	962.6894	977.8052	1005.7732	1015.3561	1047.0031	1068.4274	1090.2848	1123.2812	1148.4097	1177.9769	1194.8652	1225.4871	1284.2094	1307.1276	1311.7678	1318.2452	1334.7552	1366.8681	1386.325	1412.278	1465.3338	1478.1971	1488.3243	1493.2007	1660.3778	1718.173	2992.0938	3009.9825	3017.0169	3046.1434	3053.7454	3063.5189	3078.4204	3099.7775	3105.6448	3152.3808	3184.3755	3211.5888
CC1=CC2CC(C1)C=C2	CC1=C[C@H]2C[C@@H](C1)C=C2	
InChI=1S/C9H12/c1-7-4-8-2-3-9(5-7)6-8/h2-4,8-9H,5-6H2,1H3	InChI=1S/C9H12/c1-7-4-8-2-3-9(5-7)6-8/h2-4,8-9H,5-6H2,1H3/t8-,9+/m0/s1
