19
gdb 90387	2.18121	1.55937	1.30421	3.6419	79.99	-0.2512	0.0104	0.2616	1095.2749	0.158863	-382.048239	-382.039316	-382.038372	-382.081406	33.554	
C	-0.217026407	 1.5902386656	-0.0650103234	-0.436793
C	 0.0227314411	 0.0882608344	 0.0226575587	-0.038917
C	 1.1043570804	-0.6229563203	-0.837988916	-0.198424
N	 1.6609570275	-1.350942032	 0.3641646935	-0.174232
C	 2.1902161261	-0.3006876535	 1.2751548	-0.207178
C	 2.8633261421	 0.877877957	 0.7920122285	 0.316481
N	 3.4360441853	 1.8106513395	 0.4160751281	-0.354193
C	 0.7175468232	-0.5427207694	 1.2382771258	 0.311783
C	 0.0008913535	-1.1175137813	 2.4255905075	-0.492229
H	 0.7058451986	 2.1639061254	 0.0412226869	 0.153548
H	-0.661138398	 1.8466000458	-1.032817028	 0.121589
H	-0.9149589209	 1.9180456724	 0.7131879736	 0.118667
H	-0.9305702138	-0.4336177318	-0.1130148561	 0.089532
H	 0.7138278069	-1.3479847015	-1.5528443737	 0.118834
H	 1.8365893322	 0.0170828739	-1.338016412	 0.133428
H	 2.7003506237	-0.7439039442	 2.1265117836	 0.137566
H	-0.3657226516	-0.3184511617	 3.0797758506	 0.134208
H	-0.8592693599	-1.7139314409	 2.1043220505	 0.131293
H	 0.6612280405	-1.7622243475	 3.0124261017	 0.135038
138.429	138.5996	169.7116	188.6221	211.2768	238.3832	308.7234	369.6468	412.3099	461.0865	573.2513	581.6389	629.7367	718.3374	751.1447	829.8192	873.742	920.4846	944.4977	976.9932	1037.9859	1056.7768	1086.2853	1107.5757	1136.8586	1154.1862	1196.6871	1240.8149	1272.794	1305.6509	1322.8691	1378.4525	1410.7774	1416.0086	1435.8475	1481.881	1491.1917	1496.8477	1504.9201	1506.3128	2344.8876	3033.0644	3037.0795	3047.6154	3067.7137	3095.9156	3099.0182	3114.7681	3129.8401	3136.8168	3148.8684
CC1CN2C(C#N)C12C	C[C@H]1CN2[C@@H](C#N)[C@@]12C	
InChI=1S/C7H10N2/c1-5-4-9-6(3-8)7(5,9)2/h5-6H,4H2,1-2H3	InChI=1S/C7H10N2/c1-5-4-9-6(3-8)7(5,9)2/h5-6H,4H2,1-2H3/t5-,6-,7+,9?/m0/s1
