18
gdb 99661	2.37752	1.11309	0.88145	4.8007	72.55	-0.2741	0.0333	0.3074	1340.8866	0.146316	-439.071379	-439.061724	-439.06078	-439.106553	34.713	
O	-0.075625449	 1.406023809	 0.1978559265	-0.416413
C	-0.1347826244	-0.0003979554	 0.2166097028	-0.065352
C	-1.5387279542	-0.5449263521	-0.1490026728	-0.174373
C	-1.8963927177	-0.0547433139	-1.4857093086	 0.262929
N	-2.1125585191	 0.3613251596	-2.5427420188	-0.332056
C	-1.6000937452	-2.0633316356	-0.0865692307	-0.026333
C	-1.7042580587	-2.7503077901	 1.2629501631	-0.347214
C	-2.8738367693	-2.7518107507	 0.3105728989	 0.098828
O	-3.9653565049	-1.9214455317	 0.5729794653	-0.413278
H	-0.2139431334	 1.7000473172	-0.7101417384	 0.298502
H	 0.6143134796	-0.4558865756	-0.4487479967	 0.101846
H	 0.0945574171	-0.3105379328	 1.2397463103	 0.121732
H	-2.2646350764	-0.1261414057	 0.5548748128	 0.14442
H	-1.0026912949	-2.5650367635	-0.8416848443	 0.108354
H	-1.1475222436	-3.6661315508	 1.4265380019	 0.121588
H	-1.7980649878	-2.1109413741	 2.1350812795	 0.122724
H	-3.1161037164	-3.6813970996	-0.2027404675	 0.099195
H	-4.4756908218	-2.3109569041	 1.2904487768	 0.294902
47.689	94.8744	126.3338	146.4863	195.1256	268.4744	298.736	322.5348	379.5996	406.1348	467.3767	501.0022	561.8647	630.0873	789.602	821.9633	843.417	899.4254	987.328	1007.9194	1049.3498	1061.1148	1067.932	1087.7548	1136.7579	1158.5662	1174.6059	1202.6642	1234.3951	1255.8554	1294.6462	1335.131	1389.9163	1400.0277	1417.6477	1428.434	1488.0841	1503.7429	2350.3422	2992.2048	3077.4678	3096.4322	3109.8764	3131.3198	3157.2108	3221.6094	3794.7316	3811.6851
OCC(C#N)C1CC1O	OC[C@@H](C#N)[C@H]1C[C@H]1O	
InChI=1S/C6H9NO2/c7-2-4(3-8)5-1-6(5)9/h4-6,8-9H,1,3H2	InChI=1S/C6H9NO2/c7-2-4(3-8)5-1-6(5)9/h4-6,8-9H,1,3H2/t4-,5-,6-/m1/s1
