18
gdb 123478	5.01932	0.941	0.87767	3.4657	78.51	-0.2306	0.0277	0.2582	1342.2098	0.150459	-398.116057	-398.108205	-398.107261	-398.14942	29.316	
C	-0.1306679912	 1.6333512628	 0.1303252195	-0.279774
N	-0.2199102976	 0.2641408382	-0.3758979247	-0.078936
C	-0.2236183116	-0.7971771726	 0.6283633048	-0.215618
C	-1.467524541	-0.4420752103	-0.1092674725	-0.219766
C	 1.3018202293	 2.0627809661	 0.2116730919	 0.390432
C	 1.9738174464	 2.9550905981	 1.0252252627	-0.324018
C	 3.3050050783	 2.9339191212	 0.5555616313	-0.002874
N	 3.4601281318	 2.0935885517	-0.4641808055	-0.232527
N	 2.2277615318	 1.5864209238	-0.6561992959	-0.224573
H	-0.6839891484	 2.2756277449	-0.5680041363	 0.126045
H	-0.6054754348	 1.7564467795	 1.1187181152	 0.100314
H	 0.3329483511	-1.6934801715	 0.3720727421	 0.123357
H	-0.1600970696	-0.5040355781	 1.6745690602	 0.120567
H	-2.2417686101	 0.0857661941	 0.4450128128	 0.11472
H	-1.8340235895	-1.0739568844	-0.9129136759	 0.122876
H	 1.5601473483	 3.5339820032	 1.8354032187	 0.096571
H	 4.15435099	 3.4917081925	 0.9223705774	 0.107461
H	 2.0661944069	 0.8782329005	-1.3532740059	 0.275741
57.9374	74.7197	135.1361	256.6537	327.8878	368.1487	425.4095	580.521	656.9892	706.0983	743.579	771.3521	800.1764	840.0283	890.357	908.2356	940.1863	1006.2116	1018.5273	1045.3493	1053.3728	1061.8554	1117.1122	1122.6799	1130.8577	1172.4435	1179.8806	1241.2273	1264.2523	1299.3924	1320.4302	1344.8333	1381.5199	1447.3841	1484.2125	1493.3441	1504.2888	1522.5054	1603.6953	2958.2147	3025.091	3098.9332	3104.7921	3183.3694	3198.0546	3241.9452	3265.0556	3669.4375
C(N1CC1)C1=CC=NN1	C(N1CC1)c1ccn[nH]1	
InChI=1S/C6H9N3/c1-2-7-8-6(1)5-9-3-4-9/h1-2H,3-5H2,(H,7,8)	InChI=1S/C6H9N3/c1-2-7-8-6(1)5-9-3-4-9/h1-2H,3-5H2,(H,7,8)
