19
gdb 53825	2.88855	1.06069	0.88373	0.4193	76.61	-0.2361	-0.082	0.154	1372.6589	0.156562	-423.046957	-423.037116	-423.036172	-423.083126	34.675	
C	 0.8100632768	 1.180524259	-0.3467171373	-0.472646
C	 0.4402412062	-0.2776580252	-0.4539214932	 0.303981
O	 0.8371561125	-1.1340350786	 0.302911745	-0.278306
C	-0.5228194411	-0.6473765017	-1.6133926129	 0.285016
O	-0.956581262	 0.2332130646	-2.3206290908	-0.285823
C	-0.8357907215	-2.1167295805	-1.8066355781	-0.31544
C	 0.1668891221	-2.7408880203	-2.7701678936	 0.017624
C	 1.5059210606	-3.2314842692	-2.2743169183	-0.259447
C	 0.4521033602	-4.2199146921	-2.7049846942	-0.276203
H	 1.3067275922	 1.507204836	-1.2662592989	 0.155955
H	-0.0933493321	 1.7915477163	-0.2583830392	 0.157896
H	 1.463216945	 1.3337723809	 0.5123763936	 0.139948
H	-0.7883294015	-2.6315720763	-0.8439667523	 0.12627
H	-1.8485377172	-2.1932130659	-2.2141044445	 0.121723
H	 0.1516860537	-2.2949943745	-3.7606898186	 0.097991
H	 2.3710923748	-3.0917898766	-2.9130054952	 0.112725
H	 1.7095791108	-3.1355022729	-1.2138620119	 0.138014
H	-0.0479358219	-4.7968525828	-1.934105936	 0.115762
H	 0.5924068524	-4.7537029303	-3.6384173637	 0.114961
42.1466	57.0151	83.9544	116.3607	147.2116	236.7778	309.4758	331.1624	378.4012	424.2552	530.9755	546.3353	660.5491	738.4253	777.8915	814.7871	836.87	897.1316	920.1774	964.1651	997.221	1030.3189	1060.4282	1077.9517	1086.8636	1139.9562	1153.2996	1201.2985	1221.1235	1243.0006	1283.2917	1315.3707	1384.4332	1396.4059	1452.1384	1459.9492	1461.4005	1473.237	1505.7456	1798.3499	1803.2406	3050.6375	3056.004	3112.0708	3116.4856	3132.8934	3139.384	3150.1549	3162.7644	3213.1795	3230.2945
CC(=O)C(=O)CC1CC1	CC(=O)C(=O)CC1CC1	
InChI=1S/C7H10O2/c1-5(8)7(9)4-6-2-3-6/h6H,2-4H2,1H3	InChI=1S/C7H10O2/c1-5(8)7(9)4-6-2-3-6/h6H,2-4H2,1H3
