15
gdb 5450	3.39263	1.94374	1.24527	1.4455	79.26	-0.1967	0.0045	0.2012	936.8952	0.118926	-325.543168	-325.535376	-325.534432	-325.575214	29.036	
C	-0.0019221292	 1.5374089807	 0.0725437331	-0.521251
C	 0.0158273258	 0.0406590877	 0.0438221854	 0.183574
C	-0.00010476	-0.7523822659	-1.0994919325	 0.101452
N	 0.0261970225	-2.0742036744	-0.6894367615	-0.313405
C	 0.0575125533	-2.1343113825	 0.6721220946	-0.090809
C	 0.0520041946	-0.8432532057	 1.1544152706	-0.215948
C	-0.0355449037	-0.397527614	-2.4609539228	 0.274696
C	-0.0662211211	-0.1016052812	-3.6301811466	-0.475648
H	 0.8894024496	 1.9415967008	 0.5663138623	 0.126415
H	-0.0370433893	 1.9444330219	-0.9412113305	 0.133349
H	-0.8720512867	 1.9194927194	 0.6188027627	 0.126299
H	 0.0218134876	-2.858706488	-1.3173896268	 0.26626
H	 0.0810411177	-3.0814763357	 1.1869108381	 0.12147
H	 0.0718574227	-0.5591441054	 2.1957951206	 0.096051
H	-0.0936546539	 0.1671888522	-4.6565998768	 0.187496
82.6764	140.7607	158.8578	258.4644	315.3237	442.1138	464.999	499.2492	524.5478	591.5983	635.9176	680.2458	692.6768	693.0344	738.2287	829.5054	915.7719	992.3885	1062.4744	1074.0219	1117.4801	1191.7642	1254.0204	1301.2285	1415.8639	1434.5792	1472.2956	1486.086	1494.572	1500.3705	1602.0905	2218.6865	3027.1028	3075.2128	3116.8587	3242.8423	3268.8972	3503.9793	3685.5668
CC1=C(NC=C1)C#C	Cc1c([nH]cc1)C#C	
InChI=1S/C7H7N/c1-3-7-6(2)4-5-8-7/h1,4-5,8H,2H3	InChI=1S/C7H7N/c1-3-7-6(2)4-5-8-7/h1,4-5,8H,2H3
