18
gdb 47513	2.78102	1.52711	1.1335	5.0452	72.67	-0.2497	0.0604	0.3102	1092.6062	0.149429	-439.124871	-439.116993	-439.116049	-439.157484	30.474	
O	 0.0830841521	-0.0125952919	 0.0647054321	-0.3923
C	 0.004582556	 1.1889393418	 0.0080519995	 0.446612
N	-1.183729075	 1.868154607	-0.0174006584	-0.360704
C	-1.3820997079	 3.3069263866	-0.0758116181	-0.153147
C	-0.1056130389	 3.9970319029	 0.4004902934	-0.28934
C	 1.0618514444	 3.3335950289	-0.2811649789	 0.464489
C	 1.5186402334	 3.7480913914	-1.6554427529	-0.321527
C	 2.3955731885	 3.9829731123	-0.4376106584	-0.335872
O	 1.1409468621	 1.9453988374	 0.0043661904	-0.281708
H	-1.9835783368	 1.2572769795	-0.0431977485	 0.258672
H	-1.6179453628	 3.6293181284	-1.1003585225	 0.112181
H	-2.2336311275	 3.5786850955	 0.5574870132	 0.114055
H	-0.1381394256	 5.0631821869	 0.1627615149	 0.112311
H	-0.0014385886	 3.8924446816	 1.4865263413	 0.121991
H	 1.8138998917	 2.9565035911	-2.3338387609	 0.134297
H	 1.0413429954	 4.601828555	-2.1254634966	 0.114567
H	 2.5201794517	 4.9961931088	-0.071381864	 0.117739
H	 3.2611774878	 3.3420194168	-0.3180811655	 0.137685
87.2324	102.9694	193.6014	270.5287	337.8866	404.8546	470.1296	479.7119	520.7832	537.5249	659.2476	741.8937	760.3202	772.2138	852.909	893.7095	914.5968	953.0867	973.8047	1002.0666	1027.4871	1056.2157	1081.049	1108.0644	1126.5443	1180.5226	1189.1215	1256.1562	1268.1371	1336.3456	1349.022	1391.6213	1411.7188	1453.3842	1472.1231	1484.99	1501.6577	1527.8853	1846.6847	2996.0141	3043.1569	3061.1178	3106.9702	3134.4977	3139.8028	3222.8885	3236.1203	3653.4748
O=C1NCCC2(CC2)O1	O=C1NCCC2(CC2)O1	
InChI=1S/C6H9NO2/c8-5-7-4-3-6(9-5)1-2-6/h1-4H2,(H,7,8)	InChI=1S/C6H9NO2/c8-5-7-4-3-6(9-5)1-2-6/h1-4H2,(H,7,8)
