17
gdb 123860	3.3856	1.54182	1.10629	4.4925	73.78	-0.2519	-0.0303	0.2216	1060.3265	0.138815	-418.017389	-418.010457	-418.009513	-418.048712	27.396	
C	-0.0195241513	 1.5220326681	-0.0495828578	-0.202988
C	 1.405591183	 2.1032163989	 0.0290155281	-0.203697
C	 2.1101474814	 1.7640064705	 1.3619615988	-0.323587
C	 1.8663615956	 0.3241763132	 1.6717067121	 0.208412
C	 0.9235862139	-0.4521363835	 1.0714894924	 0.36121
C	-0.0313013184	-0.0226230832	 0.0139355062	-0.331175
O	 0.981619372	-1.6782904218	 1.5752878826	-0.23449
N	 2.0471861606	-1.6450143771	 2.5655477683	-0.031169
N	 2.51543162	-0.4802211672	 2.5788041302	-0.191665
H	-0.6161940611	 1.9163377946	 0.7822798821	 0.11253
H	-0.5092231153	 1.8504185541	-0.9712957982	 0.107688
H	 2.0014549222	 1.7046469224	-0.8019606106	 0.108915
H	 1.3700249757	 3.1889364682	-0.1024689744	 0.106096
H	 3.182907947	 1.9720774857	 1.2945405326	 0.125812
H	 1.7221104617	 2.3999688513	 2.1686583877	 0.121455
H	-1.037264383	-0.4025454772	 0.2209763018	 0.133073
H	 0.2701396559	-0.4528646571	-0.9503045217	 0.133581
113.2854	216.6266	294.6382	310.8227	366.8703	436.3567	489.556	576.7504	656.5781	683.5134	698.0907	717.7677	833.7188	850.2592	919.3149	937.436	967.7041	1011.0529	1064.4017	1101.9221	1158.6848	1164.8078	1205.79	1258.7986	1260.5736	1268.2399	1322.653	1366.0756	1370.4748	1381.7782	1432.1444	1459.8416	1474.6809	1486.4019	1492.1406	1500.7678	1647.4678	3020.7891	3025.2817	3029.138	3036.7521	3074.1942	3075.5447	3084.7201	3088.3213
C1CCC2=C(C1)ON=N2	C1CCc2c(C1)onn2	
InChI=1S/C6H8N2O/c1-2-4-6-5(3-1)7-8-9-6/h1-4H2	InChI=1S/C6H8N2O/c1-2-4-6-5(3-1)7-8-9-6/h1-4H2
