15
gdb 35647	3.88699	0.99582	0.88806	3.1537	81.75	-0.245	-0.0436	0.2014	1279.084	0.112928	-379.648863	-379.640583	-379.639639	-379.682148	30.402	
C	 0.0814624079	-1.2233874787	 0.0492913292	-0.401066
C	 0.006104599	-0.021417448	 0.0452634258	 0.210508
C	-0.0257334074	 1.3912590924	 0.0492616654	 0.218783
C	-1.0981392087	 2.1814683392	-0.0736361622	-0.191602
C	-0.6919762475	 3.638216801	-0.0484644285	-0.141611
N	 0.7078865175	 3.5817346959	 0.3954526477	-0.317294
C	 1.2330781431	 2.2264511203	 0.1781608372	-0.266382
C	-0.8689518973	 4.2627868498	-1.3812623324	 0.251338
N	-0.9738962355	 4.7686266369	-2.4158117277	-0.321168
H	 0.1311514036	-2.2844002231	 0.0484819486	 0.202816
H	-2.1225392742	 1.8638454709	-0.2058791812	 0.129509
H	-1.2993944559	 4.2215420238	 0.658220707	 0.133686
H	 1.2778327863	 4.3011556323	-0.0290977205	 0.241475
H	 1.8480352085	 1.906502043	 1.0279340129	 0.129111
H	 1.8499853806	 2.1219446443	-0.7287222213	 0.121896
72.6405	108.0562	153.6248	196.5478	249.1737	364.3226	475.7726	510.6245	515.9887	538.796	595.7111	624.5796	649.354	659.4143	812.3012	857.6242	900.415	932.7328	975.5943	1007.4999	1052.2916	1117.0354	1188.3582	1203.0886	1264.9787	1281.2962	1341.7056	1358.1835	1446.2223	1517.7121	1681.7182	2229.5381	2342.9901	2977.6	2999.8332	3042.3704	3242.0649	3501.3323	3580.4717
C#CC1=CC(NC1)C#N	C#CC1=C[C@@H](NC1)C#N	
InChI=1S/C7H6N2/c1-2-6-3-7(4-8)9-5-6/h1,3,7,9H,5H2	InChI=1S/C7H6N2/c1-2-6-3-7(4-8)9-5-6/h1,3,7,9H,5H2/t7-/m1/s1
