22
gdb 65114	3.24492	1.11885	0.97656	1.6116	88.85	-0.2179	0.0329	0.2508	1324.0661	0.195412	-367.208234	-367.199311	-367.198367	-367.24203	34.325	
C	 0.0738231666	 1.4596223438	-0.3740103459	-0.474845
C	 0.0036986703	-0.0209675667	-0.0414529432	 0.209433
C	 1.1453075781	-0.8851334683	-0.4721280649	-0.266875
N	 0.9513208987	-0.5578290207	 0.9519020003	-0.340244
C	-1.364506031	-0.6077521502	 0.010380406	 0.306369
C	-1.8643107533	-1.3790025807	 0.9781231065	-0.17199
C	-3.2927562843	-1.7862270751	 0.7132877026	-0.246255
C	-3.4959919376	-1.4003256169	-0.7748539021	-0.208166
C	-2.3899661299	-0.3600984635	-1.0823417575	-0.311218
H	 1.1138133474	 1.7958453899	-0.4413305996	 0.108651
H	-0.4099638887	 1.6781771092	-1.3314600488	 0.127977
H	-0.4295898465	 2.0556451993	 0.3956199977	 0.125313
H	 0.9638543658	-1.9257021478	-0.7250132543	 0.116826
H	 1.9677996698	-0.4188299904	-1.0100276913	 0.104675
H	 1.6046134515	 0.1716931175	 1.2275134431	 0.224705
H	-1.3163743755	-1.6559526421	 1.8704078164	 0.101384
H	-3.4767203106	-2.8511389904	 0.8972317964	 0.099047
H	-3.9813725732	-1.2412252482	 1.3757545304	 0.101143
H	-3.3437225866	-2.2849681201	-1.4014814599	 0.102923
H	-4.5009189166	-1.0256755721	-0.9861942617	 0.093217
H	-2.7743090406	 0.6687498625	-1.028129435	 0.100909
H	-1.9741036941	-0.4761409692	-2.0906761251	 0.097021
58.6018	118.4319	162.8798	192.317	227.7666	307.4493	322.1487	362.4749	466.1463	531.4954	547.5922	649.2675	792.0254	815.5948	843.971	872.8553	882.7822	913.6189	920.7483	928.3552	959.2857	980.5627	991.0987	1035.5001	1050.6901	1069.525	1098.5106	1122.4964	1149.3264	1153.5207	1226.7464	1231.8032	1257.5259	1273.217	1314.1393	1324.1678	1327.8067	1350.6863	1387.2765	1413.1558	1482.6419	1485.2914	1489.8969	1501.0487	1507.3263	1508.2779	1715.7326	2997.91	3000.0407	3026.5274	3036.3699	3044.5568	3058.0665	3092.9247	3097.5909	3100.0817	3101.1777	3191.1219	3212.3026	3493.6406
CC1(CN1)C1=CCCC1	C[C@]1(CN1)C1=CCCC1	
InChI=1S/C8H13N/c1-8(6-9-8)7-4-2-3-5-7/h4,9H,2-3,5-6H2,1H3	InChI=1S/C8H13N/c1-8(6-9-8)7-4-2-3-5-7/h4,9H,2-3,5-6H2,1H3/t8-/m0/s1
