21
gdb 98594	2.61424	1.22104	0.99004	3.3097	81.1	-0.2346	0.0513	0.2859	1306.4201	0.18101	-420.426362	-420.415755	-420.414811	-420.462378	37.468	
C	-0.0041589638	 1.1958094476	 0.2133214521	-0.322708
N	-0.0603948523	-0.2262527055	-0.0629315003	-0.325458
C	-1.2519692666	-0.9095682924	-0.0123480716	 0.431813
O	-2.2891595361	-0.4299797782	 0.4075866454	-0.399163
N	-1.1544802108	-2.1971147501	-0.5586447383	-0.15511
C	-0.3525458373	-3.2994909405	-0.0183286567	-0.025206
C	 0.456707372	-3.1557555737	 1.2497479349	-0.406136
C	-1.8571686074	-3.3541021407	-0.030092052	 0.002773
C	-2.7057986171	-3.2999417061	 1.2202002617	-0.401559
H	 0.9265090132	 1.4464780552	 0.7314706511	 0.118814
H	-0.0737041303	 1.8046656865	-0.6978915012	 0.121032
H	-0.8514471087	 1.4422864898	 0.8537466727	 0.16607
H	 0.6626813444	-0.6262822794	-0.6384481641	 0.245113
H	 0.1602871425	-3.8668562665	-0.7957204127	 0.090441
H	-0.0738518169	-2.5994548277	 2.0244676906	 0.135966
H	 0.7031161043	-4.1471031801	 1.6448797454	 0.124575
H	 1.3988657684	-2.6322707164	 1.0565598954	 0.119851
H	-2.3019235046	-3.9592594543	-0.8205118468	 0.092286
H	-2.2454218334	-2.7217842714	 2.0217728102	 0.129251
H	-3.6684425918	-2.8324444989	 1.0009407135	 0.14688
H	-2.8868567177	-4.318347247	 1.5811569306	 0.110475
62.1601	80.2131	101.9394	142.5377	169.9455	179.5398	190.9028	272.9423	278.6174	351.4932	454.2582	475.9362	499.5832	527.1748	621.2946	760.8893	792.879	821.0847	847.2795	961.4879	989.3942	1032.9716	1067.518	1096.659	1135.8675	1151.0517	1168.2902	1175.3891	1180.2083	1204.9536	1232.516	1372.6648	1381.9206	1418.7732	1421.9926	1439.8503	1443.2646	1478.419	1481.8075	1489.475	1495.46	1501.5418	1507.9161	1549.8126	1775.6466	3014.6967	3040.0493	3046.5836	3080.4108	3089.3592	3096.5469	3100.7671	3118.9366	3136.5781	3150.4852	3154.5169	3639.5795
CNC(=O)N1C(C)C1C	CNC(=O)N1[C@@H](C)[C@H]1C	
InChI=1S/C6H12N2O/c1-4-5(2)8(4)6(9)7-3/h4-5H,1-3H3,(H,7,9)	InChI=1S/C6H12N2O/c1-4-5(2)8(4)6(9)7-3/h4-5H,1-3H3,(H,7,9)/t4-,5+,8?
