17
gdb 63620	2.66042	1.14577	0.96393	2.0438	71.6	-0.2535	-0.1038	0.1497	1269.061	0.131462	-458.966042	-458.956398	-458.955453	-459.001	33.981	
C	 0.5058327421	 1.4899193543	-0.4074172466	-0.468832
C	 0.0158361125	 0.1252083231	 0.017557244	 0.390712
C	-1.3380346899	-0.2891813263	-0.5186252449	-0.446455
O	 1.000225215	-0.9037417333	 0.0319625236	-0.267525
C	 0.4734977974	-0.5092587135	 1.2964634449	-0.116984
C	 1.3997407754	 0.177762863	 2.2414440677	 0.278532
O	 2.446845963	 0.7092173292	 1.9470675509	-0.286792
C	 0.9576680271	 0.2163144761	 3.7110370734	 0.088419
O	-0.0606042403	-0.2771657668	 4.1195308427	-0.22002
H	 1.4887381224	 1.7050835594	 0.0113885226	 0.162819
H	 0.5802443007	 1.5225486164	-1.4997268977	 0.131639
H	-0.2008095547	 2.2673385197	-0.0989767626	 0.122927
H	-1.3280273099	-0.265336469	-1.6136759034	 0.133442
H	-1.5939349346	-1.3016147173	-0.1988979478	 0.134173
H	-2.1178048957	 0.397928819	-0.1752337449	 0.130265
H	-0.2032427149	-1.2172576563	 1.7702161024	 0.119579
H	 1.6829942446	 0.7548818922	 4.3565622555	 0.114101
50.5447	123.2578	131.3508	166.5748	180.6574	220.3574	246.7194	320.1004	364.8238	409.0249	444.444	526.4643	591.5558	644.2784	714.3642	811.3114	887.5028	939.5762	949.945	1002.266	1022.7894	1074.975	1097.4026	1144.0034	1184.555	1266.7142	1333.8788	1364.8967	1408.9269	1418.0003	1435.119	1474.8645	1483.6354	1499.991	1509.0897	1793.4299	1821.382	2927.8807	3038.173	3043.7026	3099.9744	3106.4526	3131.3243	3141.3818	3157.318
CC1(C)OC1C(=O)C=O	CC1(C)O[C@H]1C(=O)C=O	
InChI=1S/C6H8O3/c1-6(2)5(9-6)4(8)3-7/h3,5H,1-2H3	InChI=1S/C6H8O3/c1-6(2)5(9-6)4(8)3-7/h3,5H,1-2H3/t5-/m0/s1
