16
gdb 27792	2.04287	1.80753	0.96506	6.4926	76.88	-0.2216	-0.0247	0.197	1169.9256	0.126043	-434.161377	-434.153066	-434.152121	-434.194164	31.388	
C	 0.0165279743	 1.5256798977	-0.014554205	-0.494727
C	-0.0620177468	 0.0286998217	 0.0140325878	 0.416072
C	-1.219999404	-0.6826925884	-0.0464396995	-0.302709
C	-1.1093647721	-2.1134123082	-0.0058543457	 0.415463
N	-2.2496795328	-2.8600471825	-0.0256599123	-0.552553
N	 0.0284475543	-2.7684694423	 0.0797016562	-0.412284
C	 1.2092364126	-2.0780505776	 0.1487256053	 0.422162
O	 2.3156143188	-2.5697110099	 0.2336903397	-0.400629
N	 1.1051758219	-0.6561215529	 0.1090686553	-0.405534
H	 0.6161081609	 1.8667607449	-0.8659162174	 0.148715
H	-0.9786305398	 1.965435181	-0.0941404858	 0.143793
H	 0.4924086733	 1.9064419087	 0.8960114354	 0.149652
H	-2.1785544112	-0.1862555844	-0.1119934296	 0.091041
H	-3.1116164058	-2.4520099168	-0.3429286416	 0.257952
H	-2.1276058559	-3.8520928581	-0.1534290012	 0.266963
H	 1.9898897023	-0.1718376427	 0.1554571583	 0.256623
115.579	141.7341	182.8707	214.1132	286.2416	312.2542	359.0161	510.3371	522.5247	538.2929	561.8757	582.0961	635.2111	649.2744	745.0805	785.8781	797.8329	910.9918	980.691	1034.1042	1046.1981	1063.7023	1108.6261	1192.2407	1254.2564	1324.0576	1412.6326	1452.2895	1465.8593	1478.5823	1507.5735	1588.6043	1633.4015	1687.7099	1809.7761	3036.7313	3092.5891	3141.6755	3216.1297	3600.2736	3616.5614	3730.8798
CC1=CC(N)=NC(=O)N1	Cc1cc(N)nc(=O)[nH]1	
InChI=1S/C5H7N3O/c1-3-2-4(6)8-5(9)7-3/h2H,1H3,(H3,6,7,8,9)	InChI=1S/C5H7N3O/c1-3-2-4(6)8-5(9)7-3/h2H,1H3,(H3,6,7,8,9)
