19
gdb 88785	3.17231	1.05526	0.87355	4.2369	75.82	-0.262	0.0122	0.2742	1348.3136	0.159108	-423.040432	-423.031654	-423.03071	-423.074754	32.113	
C	 0.2211644949	 1.5640692588	-0.4541495895	-0.409667
C	 0.0821419416	 0.0878622261	-0.151420434	-0.006805
C	 1.2909137072	-0.8060941867	-0.0436630907	-0.295358
C	 0.4570676566	-0.5250532714	 1.1852475904	-0.0061
C	 1.0197180508	 0.2829231212	 2.323781972	-0.207551
C	 0.0763734905	 0.7415544665	 3.457147918	-0.098158
O	 0.8446634246	-0.0359315942	 4.4301097089	-0.241098
C	 1.6965275061	-0.5060885361	 3.4595070556	 0.449617
O	 2.5983847343	-1.2673914722	 3.5919009827	-0.32172
H	 1.1335078007	 1.9895985596	-0.025795137	 0.117029
H	 0.267973883	 1.7298557291	-1.535763383	 0.124656
H	-0.6294112797	 2.1371525588	-0.0678839392	 0.117954
H	-0.7911993992	-0.3674770315	-0.6114834995	 0.090068
H	 1.2594353146	-1.8014464247	-0.4716860366	 0.119483
H	 2.2669594007	-0.3337046609	-0.0978855305	 0.118335
H	-0.1822562159	-1.3408090824	 1.5145900348	 0.091143
H	 1.6753316235	 1.080377934	 1.9656421538	 0.109739
H	 0.0888492903	 1.8030651321	 3.7119605031	 0.123886
H	-0.9501805648	 0.3731679639	 3.3938001909	 0.124549
48.7875	110.9129	119.9691	184.3138	201.7617	268.4187	347.2493	399.3621	452.0324	559.9613	661.0514	750.6395	769.8416	827.9886	858.0211	896.9374	919.3514	941.4587	964.013	1021.2509	1031.2995	1071.6194	1085.1242	1112.1044	1113.2813	1148.458	1157.3522	1186.6334	1197.2921	1215.8069	1256.0166	1283.1775	1346.4089	1394.6112	1422.1222	1435.8536	1493.0881	1493.7244	1506.8481	1517.4301	1938.0268	3030.5786	3069.0527	3085.9406	3090.2126	3103.2715	3127.729	3131.8762	3132.4437	3142.067	3217.352
CC1CC1C1COC1=O	C[C@H]1C[C@H]1[C@H]1COC1=O	
InChI=1S/C7H10O2/c1-4-2-5(4)6-3-9-7(6)8/h4-6H,2-3H2,1H3	InChI=1S/C7H10O2/c1-4-2-5(4)6-3-9-7(6)8/h4-6H,2-3H2,1H3/t4-,5+,6+/m0/s1
