24
gdb 121735	4.48857	0.53623	0.52929	3.3092	88.72	-0.2397	0.0377	0.2775	2266.9676	0.21574	-405.600512	-405.588884	-405.58794	-405.640029	40.264	
C	 0.0226532992	 1.3149639061	-0.6593847357	-0.380006
C	-0.0912308246	 0.0203608751	 0.1501391216	-0.168712
C	-1.4218195592	-0.7043615407	-0.0714297541	-0.143578
C	-1.5441745495	-2.0028810331	 0.7327739572	-0.321245
C	-2.9421704207	-2.610559219	 0.6338774553	 0.414881
O	-3.9497351761	-1.9233463374	 0.6317957052	-0.380168
N	-2.9764344185	-3.9751916159	 0.5768662798	-0.317174
C	-4.2137980313	-4.7339189759	 0.4903371124	-0.143333
C	-4.4087874051	-5.4029206694	-0.8721053249	-0.371593
H	 0.978693089	 1.8167198221	-0.4799622678	 0.109612
H	-0.0533683814	 1.1172582427	-1.7344335139	 0.113467
H	-0.7773671195	 2.0156466109	-0.3965781155	 0.117897
H	 0.7408123836	-0.6482515606	-0.109856104	 0.089182
H	 0.0247808676	 0.2445578578	 1.2191318389	 0.094111
H	-2.260411705	-0.0560990537	 0.202632773	 0.125966
H	-1.5458579716	-0.9263050619	-1.1397249884	 0.094201
H	-0.7783865571	-2.7258434978	 0.4251311864	 0.087355
H	-1.3625276901	-1.7917955744	 1.7955919096	 0.125802
H	-2.1038274912	-4.4763883293	 0.5443703914	 0.23914
H	-4.2334358531	-5.4873788667	 1.2878117057	 0.103011
H	-5.015994912	-4.0194958948	 0.686044305	 0.15068
H	-5.3455582385	-5.9690621755	-0.889352665	 0.119287
H	-4.444026854	-4.6538996552	-1.6683708446	 0.132575
H	-3.5935432208	-6.1001475135	-1.0959095377	 0.108643
19.5322	31.7548	67.2013	89.4926	127.9689	133.7029	214.174	245.9541	284.0764	293.5689	342.9402	417.859	440.7116	483.5365	629.506	711.3211	738.0272	792.637	801.8181	891.1966	913.5878	937.329	941.1681	1022.9187	1064.9543	1077.495	1105.1665	1120.8745	1136.4986	1174.4401	1219.9597	1243.1058	1283.2443	1317.2626	1320.1134	1331.2599	1372.3363	1393.4291	1399.8024	1410.4169	1413.8133	1465.5436	1483.722	1486.0001	1492.6494	1498.1113	1499.4372	1502.1931	1512.5165	1541.4266	1772.0724	3007.6529	3013.6297	3023.572	3025.8239	3029.7658	3032.591	3038.5685	3051.833	3087.3109	3094.8566	3097.7512	3101.5178	3115.8393	3126.8182	3641.518
CCCCC(=O)NCC	CCCCC(=O)NCC	
InChI=1S/C7H15NO/c1-3-5-6-7(9)8-4-2/h3-6H2,1-2H3,(H,8,9)	InChI=1S/C7H15NO/c1-3-5-6-7(9)8-4-2/h3-6H2,1-2H3,(H,8,9)
