18
gdb 5903	3.90792	1.25429	1.20342	0.1669	79.54	-0.2575	0.0377	0.2952	1082.9212	0.149583	-310.609538	-310.599995	-310.599051	-310.642967	35.698	
C	 0.051145717	 1.5683156711	 0.0027812256	-0.403746
C	 0.0450093739	 0.0244210758	 0.0216197431	 0.044911
C	 0.8216045176	-0.4954090901	 1.2507084138	-0.403744
C	-1.4275936308	-0.5082685393	 0.0499149633	-0.365043
C	-2.1898878429	-0.0868093557	 1.2183927325	 0.317992
C	-2.8164640315	 0.2624633353	 2.1834913774	-0.459824
C	 0.6711595697	-0.482640849	-1.2034552408	 0.344694
C	 1.1761094332	-0.9028643399	-2.2105157172	-0.488611
H	 1.0765075693	 1.9462081992	-0.0274779445	 0.122615
H	-0.4775687423	 1.9504908511	-0.8752021651	 0.121155
H	-0.4400951747	 1.9552154791	 0.8998260937	 0.129871
H	 0.3441373988	-0.1455689702	 2.1701319179	 0.129877
H	 0.8438660055	-1.5889129444	 1.2650340772	 0.121154
H	 1.8535878141	-0.1352495077	 1.2312418534	 0.122607
H	-1.9355630572	-0.172436169	-0.8615028466	 0.137838
H	-1.4014270955	-1.6030801966	 0.003018495	 0.137841
H	-3.3787627334	 0.5652834987	 3.0318158113	 0.196219
H	 1.6290859793	-1.2700431383	-3.0980582301	 0.194192
83.3819	122.9556	183.3468	185.7935	236.2874	266.6421	331.1995	337.8432	363.2584	368.1546	489.9226	550.784	551.5151	615.9439	627.9868	641.397	645.9198	731.8432	875.5721	896.8376	952.6067	976.3616	982.0399	1041.0895	1136.9868	1210.0447	1226.8993	1282.9821	1339.6295	1394.9467	1417.2231	1465.8285	1483.9555	1485.2461	1500.1928	1507.8555	2230.6995	2234.856	3034.7773	3041.1806	3045.3118	3070.7645	3116.9135	3119.1762	3122.2057	3126.3065	3501.9597	3504.8285
CC(C)(CC#C)C#C	CC(C)(CC#C)C#C	
InChI=1S/C8H10/c1-5-7-8(3,4)6-2/h1-2H,7H2,3-4H3	InChI=1S/C8H10/c1-5-7-8(3,4)6-2/h1-2H,7H2,3-4H3
