23
gdb 91323	2.5271	1.4555	1.17344	1.6665	85.15	-0.2339	0.0735	0.3074	1186.229	0.20461	-388.265874	-388.256498	-388.255554	-388.299836	36.53	
C	-0.6382366221	 1.4229249802	-0.1548970693	-0.413705
C	 0.1437207202	 0.1235189327	-0.16069085	 0.141157
O	 1.3590904475	 0.194472676	-0.9538217997	-0.314016
C	 2.1164719877	-0.4813287042	 0.0687951654	 0.132317
C	 2.8975421141	 0.49169632	 0.9797533987	-0.293132
C	 1.7561068251	 0.3885232328	 2.0536306066	 0.325926
C	 2.1920025912	-0.5233490395	 3.2090078117	-0.426748
C	 1.2038032102	 1.6945932846	 2.6202543173	-0.454418
C	 0.9102285889	-0.4728378482	 1.0492712559	-0.143171
H	-0.0124417482	 2.2752152239	 0.1116261565	 0.126835
H	-1.0435516035	 1.6069737174	-1.1553832382	 0.123992
H	-1.4788807039	 1.3664314055	 0.5447948869	 0.115953
H	-0.5054722418	-0.6659117022	-0.5718154888	 0.073165
H	 2.6193754081	-1.3775651088	-0.3042209973	 0.071043
H	 3.8770634418	 0.147336477	 1.3242663262	 0.092811
H	 3.0074158685	 1.474068095	 0.514301972	 0.103902
H	 2.9826188654	-0.0465039004	 3.799478632	 0.111218
H	 1.3511392947	-0.7380734652	 3.8788874472	 0.110537
H	 2.5798956594	-1.4805028807	 2.8438685497	 0.112423
H	 0.2664169265	 1.5284664227	 3.1638412859	 0.11088
H	 1.9198511644	 2.129127765	 3.328002549	 0.110867
H	 1.0175900787	 2.4427954006	 1.8484997777	 0.117449
H	 0.4590169071	-1.3696921241	 1.4764996144	 0.064717
43.439	148.8523	185.3349	225.6675	267.9048	282.9095	305.0852	349.2338	361.3127	395.8358	434.5193	553.97	606.5622	666.2984	789.4716	832.7581	835.2693	872.433	916.2621	929.7662	948.556	961.4324	989.3465	1027.2077	1036.0098	1069.7142	1092.8472	1112.5336	1145.3485	1182.2575	1200.4295	1216.5856	1242.8049	1251.753	1281.31	1304.0789	1321.1524	1351.4506	1393.7349	1400.8945	1410.6678	1421.3383	1466.2698	1473.0343	1483.4436	1485.8638	1497.8401	1503.5612	1517.41	2965.4309	3018.89	3027.7892	3041.8276	3050.6801	3067.3473	3081.7136	3089.0472	3089.9594	3095.2952	3102.8804	3113.3993	3127.8371	3149.5729
CC1OC2CC(C)(C)C12	C[C@H]1O[C@H]2CC(C)(C)[C@@H]12	
InChI=1S/C8H14O/c1-5-7-6(9-5)4-8(7,2)3/h5-7H,4H2,1-3H3	InChI=1S/C8H14O/c1-5-7-6(9-5)4-8(7,2)3/h5-7H,4H2,1-3H3/t5-,6+,7+/m1/s1
