19
gdb 89785	2.14588	1.50012	1.00452	3.7177	76.29	-0.246	-0.0247	0.2213	1213.5457	0.157052	-423.002203	-422.993152	-422.992208	-423.036683	33.166	
C	-0.7251003585	 1.1776849146	 0.0827799997	-0.417024
C	 0.1932931621	-0.035659161	 0.0378996519	 0.028985
C	 1.5536264028	 0.0719776403	-0.7164040403	-0.341939
C	 2.1857974402	-0.7075392762	 0.4323809954	 0.455288
C	 3.0780612443	-1.866025723	 0.3983992847	-0.264081
O	 3.5298600458	-0.5839986557	 0.8596159126	-0.268139
C	 0.9661159428	-0.4856172518	 1.3447206645	-0.225656
C	 1.1839931289	 0.61583644	 2.3526475089	 0.18038
O	 0.780817721	 0.5809697331	 3.4873290497	-0.258988
H	-0.1962988427	 2.0811315811	 0.4028015438	 0.122039
H	-1.1437930092	 1.3760600314	-0.9095553218	 0.12189
H	-1.5602715356	 1.0175805597	 0.7724296805	 0.131503
H	-0.364554389	-0.9022515823	-0.3284360243	 0.091362
H	 1.6161343539	-0.3545020668	-1.7202023203	 0.110838
H	 1.9246312956	 1.102191891	-0.7476099612	 0.117646
H	 2.9982410119	-2.6361535415	 1.164559909	 0.123191
H	 3.5000856058	-2.1927323351	-0.5512644184	 0.120025
H	 0.5605094626	-1.355280966	 1.865499035	 0.091491
H	 1.7570514274	 1.4936518481	 1.9789239206	 0.081188
56.4242	60.0872	160.5379	213.3037	246.2733	248.1056	332.724	372.1792	414.2296	473.8047	503.903	542.6015	717.1392	841.7035	852.6709	876.1019	896.5239	935.9733	975.1402	979.6446	1032.1052	1099.364	1106.824	1127.6566	1132.1682	1159.8854	1173.5267	1193.4696	1226.9104	1248.6005	1263.3343	1299.289	1366.3248	1413.9992	1431.6028	1442.957	1483.9953	1494.9186	1498.1279	1533.9531	1825.2927	2879.1269	3033.6326	3049.5182	3059.3421	3081.0354	3095.7505	3101.2184	3104.5246	3110.8091	3169.4989
CC1CC2(CO2)C1C=O	C[C@H]1C[C@]2(CO2)[C@H]1C=O	
InChI=1S/C7H10O2/c1-5-2-7(4-9-7)6(5)3-8/h3,5-6H,2,4H2,1H3	InChI=1S/C7H10O2/c1-5-2-7(4-9-7)6(5)3-8/h3,5-6H,2,4H2,1H3/t5-,6-,7-/m0/s1
