18
gdb 83182	3.18523	1.31977	1.14703	3.1261	71.45	-0.2281	-0.0138	0.2143	1092.5382	0.149467	-439.082581	-439.07497	-439.074026	-439.114811	30.29	
O	 0.5499583663	 0.9747381287	 0.2803102347	-0.420815
C	 0.0968685203	-0.3214680866	 0.0812031615	 0.109111
C	-1.395562772	-0.5929212584	 0.0037851299	-0.098666
C	-2.3735055865	 0.5702604182	 0.0870516643	-0.334674
C	-3.0349225263	 0.8453576588	-1.2553558354	 0.400341
O	-4.1992787143	 1.1374694562	-1.3804297506	-0.308636
C	-2.127727283	 0.7083923784	-2.4850676526	-0.263958
N	-0.7306078142	 0.4967912763	-2.1036787043	-0.320049
C	-0.5374320748	-0.650798835	-1.2507199424	-0.089796
H	 0.3464561651	 1.4379950038	-0.5503206894	 0.28266
H	 0.7253837263	-1.0639354059	 0.5622976608	 0.103577
H	-1.7471834952	-1.5430583489	 0.3908265121	 0.098345
H	-3.1566316614	 0.4024992401	 0.8283338963	 0.126867
H	-1.8253835059	 1.4747476581	 0.3863522397	 0.140091
H	-2.5456946463	-0.104485566	-3.1027841906	 0.119698
H	-2.2156463184	 1.6300468611	-3.0693005925	 0.135647
H	-0.1249865593	 0.4699149001	-2.9145291129	 0.236977
H	-0.3562583106	-1.6172359793	-1.7197660986	 0.083281
70.9635	162.9346	221.023	314.8852	387.4077	447.3811	463.4333	511.4634	578.2041	589.3308	631.7123	660.1168	730.3003	776.2131	788.316	832.2612	905.4294	958.386	986.7005	1015.3113	1049.3955	1075.3654	1104.8104	1118.3428	1158.1073	1171.1332	1223.802	1233.0627	1253.5925	1285.9036	1318.6962	1339.2483	1353.9077	1400.4942	1445.0143	1460.4884	1472.3485	1482.3845	1823.9101	2965.2635	3020.9189	3078.3644	3098.4594	3117.4828	3159.9762	3171.2491	3551.5757	3643.4944
OC1C2CC(=O)CNC12	O[C@H]1[C@H]2CC(=O)CN[C@@H]12	
InChI=1S/C6H9NO2/c8-3-1-4-5(6(4)9)7-2-3/h4-7,9H,1-2H2	InChI=1S/C6H9NO2/c8-3-1-4-5(6(4)9)7-2-3/h4-7,9H,1-2H2/t4-,5+,6-/m0/s1
