16
gdb 31598	3.29274	1.07288	0.85527	1.8997	69.85	-0.1881	0.0187	0.2069	1311.5723	0.123697	-475.03256	-475.023383	-475.022439	-475.066728	33.243	
N	-0.0474985374	 1.4446208878	-0.2016873875	-0.616377
C	 0.0580696239	 0.0529915386	-0.0361713672	 0.148377
C	-0.952280125	-0.8327799248	 0.1801679837	 0.280016
O	-2.2624488238	-0.6307162968	 0.4366790848	-0.430239
O	-0.4854104926	-2.1181111957	 0.193428661	-0.219453
C	 0.8685039444	-2.0463876014	-0.0105831202	 0.346335
C	 1.5963447661	-3.3428202809	-0.0027278909	-0.173309
O	 1.6648347263	-3.9510783824	 1.284794001	-0.413055
C	 1.2461015244	-0.7479677878	-0.1520957895	-0.337351
H	 0.6672793433	 1.9461581165	 0.3122936496	 0.244726
H	-0.9558529933	 1.7787243785	 0.0984047731	 0.246158
H	-2.7986774811	-0.9872631534	-0.2831780302	 0.306637
H	 1.1392179626	-4.0315150436	-0.7310484222	 0.09908
H	 2.6294181487	-3.1686019801	-0.315065787	 0.122448
H	 0.7611108344	-4.0255519989	 1.6092141249	 0.287202
H	 2.2500584092	-0.3929857155	-0.3292276433	 0.108804
58.852	110.9732	182.0685	232.2547	243.8827	262.2361	283.8973	314.146	324.7826	416.9018	520.3766	600.8096	648.54	663.8707	717.6991	799.8047	809.7333	845.1255	951.0886	998.1718	1036.3914	1071.4438	1159.1243	1192.4775	1198.0341	1254.2226	1316.2802	1327.2173	1368.6557	1416.9602	1464.9539	1488.1321	1618.9257	1649.6918	1731.9904	2977.7045	3098.5922	3249.6573	3519.9139	3607.3031	3748.5463	3815.1406
NC1=C(O)OC(CO)=C1	Nc1c(O)oc(CO)c1	
InChI=1S/C5H7NO3/c6-4-1-3(2-7)9-5(4)8/h1,7-8H,2,6H2	InChI=1S/C5H7NO3/c6-4-1-3(2-7)9-5(4)8/h1,7-8H,2,6H2
