20
gdb 71638	2.66997	1.60795	1.54453	1.5526	78.29	-0.2353	0.0734	0.3087	996.3213	0.173847	-403.095044	-403.08763	-403.086686	-403.126465	30.46	
O	-0.0776326355	 1.3870369257	 0.0192868344	-0.471306
C	 0.0345488222	 0.0039705674	 0.0279428336	 0.341125
C	 0.6181247186	-0.9631329107	 1.0824117455	-0.238353
N	 0.0561882092	-1.9134382735	 0.0219614938	-0.169019
C	-1.1684933882	-0.9510877955	-0.0055342196	 0.023512
C	-2.062216677	-1.0184822958	-1.2373759021	-0.252729
C	-1.2838334567	-1.576418736	-2.4348983314	-0.197414
C	 0.1414279579	-1.0107572108	-2.4349373772	-0.247567
C	 0.6861533189	-0.9443948046	-1.0144749271	-0.016985
H	 0.8066587013	 1.7700620281	 0.0148032079	 0.280492
H	 1.7053305659	-1.0266490328	 1.1863016021	 0.092157
H	 0.1118734842	-1.0401038181	 2.0482341135	 0.100309
H	-1.7401464098	-1.0097821017	 0.9256650964	 0.069666
H	-2.9415258057	-1.6371577248	-1.0311201601	 0.100194
H	-2.431302487	-0.0054498445	-1.4437377524	 0.112124
H	-1.2235073083	-2.6645846918	-2.3323535551	 0.117602
H	-1.7971482466	-1.3693383339	-3.3786239941	 0.091777
H	 0.7962901812	-1.6217934657	-3.0647716253	 0.100108
H	 0.1607630081	 0.0047924343	-2.8531600239	 0.102923
H	 1.7802165873	-0.9922104654	-0.985591539	 0.061385
167.5757	176.6977	233.8773	265.5993	397.6514	401.8603	464.8382	507.4529	570.0101	623.0911	694.7719	767.6639	787.5745	816.1759	864.8931	894.1624	907.9859	913.6139	1007.6328	1023.4786	1032.3379	1059.0882	1078.4196	1109.9723	1121.4155	1132.6072	1156.0568	1189.7868	1217.0275	1224.5773	1231.4722	1278.7426	1310.9143	1348.1686	1355.783	1364.7917	1373.6189	1401.5353	1441.5504	1481.4769	1484.2263	1500.5654	1529.7767	3018.7611	3027.0493	3040.9632	3046.4847	3048.7605	3058.45	3069.7964	3074.8666	3093.7952	3117.4978	3803.1298
OC12CN3C1CCCC23	O[C@@]12CN3[C@@H]1CCC[C@@H]23	
InChI=1S/C7H11NO/c9-7-4-8-5(7)2-1-3-6(7)8/h5-6,9H,1-4H2	InChI=1S/C7H11NO/c9-7-4-8-5(7)2-1-3-6(7)8/h5-6,9H,1-4H2/t5-,6+,7+
