14
gdb 80235	2.39006	1.79594	1.35626	5.0576	62.67	-0.2446	-0.0344	0.2102	938.4849	0.100924	-473.829696	-473.822273	-473.821328	-473.861459	28.388	
O	-0.0921877337	 1.4713153811	-0.035973392	-0.419865
C	 0.0143246733	 0.0823759354	 0.0043612598	 0.142943
C	 0.1095931211	-0.6469926583	 1.4008437437	-0.206387
N	-1.0601178305	-0.1206722055	 2.1222083194	-0.30355
C	-2.0560590501	-0.0042237225	 1.1589294603	 0.438237
O	-3.1543060688	 0.4674733892	 1.2653609056	-0.360411
C	-1.3668924811	-0.6580141542	-0.0740863187	-0.322823
C	-0.6102978391	-1.8020923584	 0.646343972	 0.453334
O	-0.5478758861	-2.986956763	 0.5782926496	-0.299015
H	 0.7907879237	 1.8523916751	 0.0044016325	 0.296216
H	 0.7422954656	-0.3122571462	-0.7163329102	 0.099815
H	 1.0145192247	-0.7548881468	 1.9927532094	 0.102559
H	-0.9853123839	 0.5374700308	 2.8828358623	 0.262948
H	-1.9608948351	-0.7637882669	-0.9755428136	 0.116
127.609	162.3566	273.6557	281.4611	303.3519	344.869	450.4274	498.5319	562.8867	645.6539	680.8345	703.5378	767.88	784.1487	836.2702	882.5053	981.0692	1019.0509	1028.7715	1088.4538	1119.2744	1137.5738	1178.2778	1185.1838	1234.6481	1261.6736	1311.071	1370.8311	1434.2824	1875.9557	1930.8414	3027.7212	3165.2859	3191.9374	3631.4567	3821.3744
OC1C2NC(=O)C1C2=O	O[C@H]1[C@H]2NC(=O)[C@@H]1C2=O	
InChI=1S/C5H5NO3/c7-3-1-4(8)2(3)6-5(1)9/h1-3,7H,(H,6,9)	InChI=1S/C5H5NO3/c7-3-1-4(8)2(3)6-5(1)9/h1-3,7H,(H,6,9)/t1-,2+,3+/m0/s1
