16
gdb 126273	2.31826	1.3796	0.91904	5.2244	75.1	-0.2693	-0.0799	0.1895	1245.1434	0.123586	-437.893145	-437.884679	-437.883734	-437.927526	29.781	
C	-0.3266100768	 1.5634152088	-0.0612752532	-0.371394
C	 0.0852822484	 0.084950171	 0.057438381	-0.318553
C	 0.7765267175	-0.4283656215	-1.1699073101	 0.088973
C	 2.0993138018	-0.7267900203	-1.3808025757	 0.253492
O	 2.287200579	-1.1422817848	-2.6524296546	-0.193436
N	 1.0802769984	-1.1259435165	-3.3124033776	-0.113488
C	 0.1962618078	-0.7050777065	-2.4400396884	-0.025201
C	 3.2616124036	-0.668924533	-0.4890814493	 0.076326
O	 4.39018369	-0.9578724717	-0.80580325	-0.254629
H	 0.5487381398	 2.2031228648	-0.2067127848	 0.130554
H	-0.9988306393	 1.720223487	-0.9103562875	 0.127723
H	-0.8441607607	 1.8905471139	 0.8449684639	 0.125973
H	 0.7306959716	-0.0465093888	 0.9311461941	 0.119238
H	-0.806809167	-0.5251048016	 0.2428554334	 0.125321
H	-0.8382169347	-0.6153758951	-2.741711586	 0.141271
H	 3.0103577005	-0.3249111555	 0.5361508451	 0.08783
30.038	129.1624	156.3494	174.0067	225.265	254.9412	316.5828	404.1611	537.5351	618.1405	653.7155	717.079	777.1911	790.0008	911.8328	953.8346	977.8143	981.4481	1015.9093	1055.8033	1080.1107	1156.8644	1206.6359	1265.4579	1296.946	1351.0714	1405.9623	1417.4016	1421.8221	1482.1272	1494.0272	1497.6727	1507.764	1638.0677	1796.6369	2909.1486	3038.118	3042.5329	3080.532	3116.9707	3119.8095	3241.416
CCC1=C(ON=C1)C=O	CCc1c(onc1)C=O	
InChI=1S/C6H7NO2/c1-2-5-3-7-9-6(5)4-8/h3-4H,2H2,1H3	InChI=1S/C6H7NO2/c1-2-5-3-7-9-6(5)4-8/h3-4H,2H2,1H3
