18
gdb 112212	2.53423	1.32903	0.98347	1.4769	74.14	-0.2587	0.0193	0.278	1216.3357	0.147389	-439.065868	-439.057238	-439.056294	-439.09943	32.271	
O	 0.0307086258	 1.4355530004	-0.1806991315	-0.416776
C	-0.0148640456	 0.1161604508	 0.3237685912	-0.070178
C	-1.3557224485	-0.5313361236	 0.0404907193	 0.026735
O	-1.5597803888	-0.6345523899	-1.4206397389	-0.303294
C	-1.6538916305	-2.0176994711	-1.3504346914	 0.401427
N	-1.8322546981	-2.8779963507	-2.2441740362	-0.559002
C	-1.4773894413	-2.0503645828	 0.1265514516	 0.184469
C	-0.7136304332	-3.0662296001	 0.9331245551	-0.320423
C	-2.2010467063	-2.9336728108	 1.1030023726	-0.319893
H	-0.1634982758	 1.3763649144	-1.123575966	 0.295006
H	 0.786057406	-0.5128942461	-0.0945027993	 0.097578
H	 0.1422926397	 0.184292233	 1.4061905321	 0.11372
H	-2.1752901468	 0.0448838011	 0.4802450823	 0.103395
H	-1.9166110453	-2.4548811691	-3.1689232137	 0.229325
H	-0.3299337258	-3.9239320903	 0.392140145	 0.144136
H	-0.0724728156	-2.7013738388	 1.7284745759	 0.125302
H	-2.5749062464	-2.4738204946	 2.0118423399	 0.124646
H	-2.8392070734	-3.7013108018	 0.679779152	 0.143827
84.812	120.4868	139.9706	202.652	207.604	289.2313	359.8322	425.4047	464.1462	559.8051	599.4473	689.0116	751.879	786.1704	841.7567	846.8077	888.3918	939.11	957.0642	998.629	1007.3624	1034.1251	1065.9266	1082.9593	1091.6035	1114.9749	1189.9464	1196.0171	1217.5063	1261.696	1276.8985	1342.4015	1398.9229	1406.0046	1433.6121	1458.0609	1494.3627	1500.3957	1828.0701	2990.1098	3064.9144	3079.2485	3134.1774	3136.8623	3218.7681	3232.7642	3489.686	3796.851
OCC1OC(=N)C11CC1	OC[C@H]1O[C]([NH])C21CC2	
InChI=1S/C6H9NO2/c7-5-6(1-2-6)4(3-8)9-5/h4,7-8H,1-3H2	InChI=1S/C6H9NO2/c7-5-6(1-2-6)4(3-8)9-5/h4,7-8H,1-3H2/t4-/m1/s1
