19
gdb 65276	3.46547	1.21476	1.16818	1.6277	71.71	-0.2409	0.0788	0.3196	1144.3465	0.159205	-460.143368	-460.134941	-460.133996	-460.17672	32.014	
O	-0.2231991207	 1.1933684954	-0.6847279866	-0.473319
C	-0.0769469978	-0.1106507335	-0.2011665999	 0.420568
C	-0.5132780524	-0.414355327	 1.2134305919	-0.33125
C	-1.3408269796	-0.8698641015	 0.0279505014	-0.305568
C	 1.1288568937	-0.8277951522	-0.7659963919	 0.144698
O	 1.018264148	-1.0886976483	-2.1546192297	-0.260517
C	 1.8638066077	-0.1737720707	-2.8397325707	-0.09738
C	 2.971312491	 0.0638832396	-1.8177827644	-0.091488
O	 2.2631289798	 0.0164168865	-0.582407677	-0.288636
H	 0.5983207233	 1.6472036872	-0.457913904	 0.282709
H	 0.0325904911	-1.1572138525	 1.7857568039	 0.113293
H	-0.8884026531	 0.4241248883	 1.7883942985	 0.118803
H	-2.2604042981	-0.3342209605	-0.1760812807	 0.127701
H	-1.3631765401	-1.924855435	-0.2225236945	 0.120374
H	 1.2770643744	-1.7944851559	-0.260935321	 0.077228
H	 2.208182442	-0.6438559181	-3.7642390754	 0.112202
H	 1.328151888	 0.7549415021	-3.0752587819	 0.111014
H	 3.7328140163	-0.7276473855	-1.8599021166	 0.104841
H	 3.4590647166	 1.0383125815	-1.9008524714	 0.114727
68.7883	90.6914	173.3414	252.7002	270.081	303.3647	347.7354	425.8367	493.8929	537.1811	651.3538	746.5171	767.6035	828.6207	882.3791	909.642	915.7566	949.5591	953.1523	977.1624	991.4393	1008.9814	1050.7349	1064.6632	1077.4815	1139.2497	1167.1785	1187.8677	1228.8344	1247.0625	1248.7666	1311.4283	1334.6102	1361.6357	1379.8465	1387.471	1435.545	1451.8356	1504.7635	1511.819	1518.9847	2988.8892	3006.9741	3023.9477	3097.8566	3105.5701	3132.885	3140.3724	3220.3064	3234.3092	3776.4629
OC1(CC1)C1OCCO1	OC1(CC1)C1OCCO1	
InChI=1S/C6H10O3/c7-6(1-2-6)5-8-3-4-9-5/h5,7H,1-4H2	InChI=1S/C6H10O3/c7-6(1-2-6)5-8-3-4-9-5/h5,7H,1-4H2
