18
gdb 98612	4.08132	1.14154	1.04774	2.5157	74.12	-0.2399	0.0407	0.2806	1198.8586	0.147716	-439.048558	-439.04027	-439.039326	-439.082075	30.3	
C	-0.3152222585	 1.1979706453	 0.1264506151	-0.230493
O	 0.1195073488	-0.1575408159	-0.0086544519	-0.250052
C	 0.7722363212	-0.6519785648	 1.0702558997	 0.477013
O	 0.9618610038	-0.0388951546	 2.0954461586	-0.413431
N	 1.2686585108	-1.912786333	 0.7914110739	-0.15922
C	 0.4320089371	-3.0288177757	 0.1949394971	-0.019477
C	 1.5470918358	-3.9911322848	 0.6879793666	-0.222699
C	 1.2546486249	-2.9957770716	 1.8451833613	-0.009844
C	-0.2660122008	-3.2100990786	 1.576347145	-0.226666
H	 0.5377465551	 1.8665183885	 0.2701953129	 0.139398
H	-0.8315426799	 1.437426292	-0.8037387342	 0.128628
H	-0.9920210385	 1.3080656809	 0.9778149864	 0.136642
H	-0.0088500004	-2.9388821047	-0.7957470185	 0.10421
H	 1.2557467831	-5.0286135435	 0.8541036764	 0.103883
H	 2.516936733	-3.8881047352	 0.2015110688	 0.114422
H	 1.774418365	-2.8666213219	 2.7919343891	 0.11009
H	-0.9298339382	-2.40530218	 1.8970268364	 0.119264
H	-0.6802316124	-4.1963437724	 1.8007603072	 0.098331
83.3803	100.3856	124.2067	153.4076	199.8528	315.2687	416.1777	518.6501	562.9542	650.5602	782.1543	788.1184	804.4256	830.7581	896.4468	906.0097	915.0581	991.4016	1003.8506	1018.699	1072.6592	1086.6643	1121.6963	1123.0324	1165.8686	1182.1248	1185.0293	1193.532	1213.6832	1225.7458	1256.197	1270.9587	1341.6211	1475.1123	1481.6052	1484.549	1502.4329	1525.1879	1801.624	3048.5246	3062.4261	3086.8705	3121.5176	3137.2173	3144.1118	3150.574	3152.6729	3164.9323
COC(=O)N1C2CC1C2	COC(=O)N1[C@H]2C[C@@H]1C2	
InChI=1S/C6H9NO2/c1-9-6(8)7-4-2-5(7)3-4/h4-5H,2-3H2,1H3	InChI=1S/C6H9NO2/c1-9-6(8)7-4-2-5(7)3-4/h4-5H,2-3H2,1H3/t4-,5+
