21
gdb 101874	4.63512	0.59322	0.58032	5.3836	80.54	-0.241	0.0262	0.2671	1953.9788	0.181155	-420.408105	-420.397301	-420.396356	-420.445196	37.902	
C	-0.2274176422	 1.4339816383	 0.3945171521	-0.381324
C	-0.0507644231	-0.0261617948	-0.0297353919	-0.192357
C	-1.3648043427	-0.8110064951	-0.0666635989	 0.125022
O	-2.3216268978	-0.222043951	-0.950062026	-0.429544
C	-1.1513452566	-2.2887926104	-0.4437568001	-0.177093
N	-2.3726410971	-3.0806158469	-0.5620027031	-0.284757
C	-2.9881651368	-3.4158400659	 0.7183204677	-0.274067
C	-4.1744193167	-4.2554501326	 0.5205662939	 0.263587
N	-5.1213924659	-4.8997487627	 0.3724162307	-0.30007
H	 0.721955413	 1.9755914766	 0.3528664342	 0.114853
H	-0.9436448796	 1.942302307	-0.2563562626	 0.128136
H	-0.6072480659	 1.5018401412	 1.4196484617	 0.118281
H	 0.4128520099	-0.0746386587	-1.0266935678	 0.090102
H	 0.6440856976	-0.5359764675	 0.6497048644	 0.102238
H	-1.8410548447	-0.7494616302	 0.9207172902	 0.088457
H	-1.903098122	-0.1276524779	-1.8143091487	 0.280442
H	-0.6354554363	-2.3270697408	-1.413664114	 0.098447
H	-0.4857756394	-2.7710050598	 0.2828508367	 0.105369
H	-3.0372179761	-2.5540758152	-1.1223817584	 0.234471
H	-2.2648138377	-3.9843255305	 1.3163004603	 0.153176
H	-3.2948166197	-2.552255583	 1.3339175398	 0.13663
44.326	60.8162	75.3784	116.5507	181.3857	192.0293	221.3984	265.7059	336.2586	339.1093	390.9797	427.7969	462.5662	531.5128	579.2796	771.9024	779.678	856.8995	911.8472	954.8572	973.2364	989.2648	1012.9484	1060.3263	1100.152	1119.7399	1144.9898	1154.4899	1221.5511	1260.6219	1291.6846	1301.9146	1354.5078	1379.4128	1387.191	1394.3858	1408.201	1420.0231	1471.4324	1483.808	1489.3851	1496.002	1508.3024	1514.8201	2368.3477	2953.7071	2996.9215	3006.0244	3030.4664	3040.0336	3046.9708	3048.1465	3065.4133	3105.7605	3122.2585	3513.5297	3781.6714
CCC(O)CNCC#N	CC[C@@H](O)CNCC#N	
InChI=1S/C6H12N2O/c1-2-6(9)5-8-4-3-7/h6,8-9H,2,4-5H2,1H3	InChI=1S/C6H12N2O/c1-2-6(9)5-8-4-3-7/h6,8-9H,2,4-5H2,1H3/t6-/m1/s1
