17
gdb 97871	6.93052	0.43317	0.41078	4.1538	89.68	-0.26	-0.0605	0.1995	2559.4954	0.132491	-384.642902	-384.632206	-384.631262	-384.681846	34.913	
C	-0.0408381075	 1.6213746531	-0.0183933243	-0.365855
C	-0.0057474839	 0.0820257228	-0.0125718657	-0.313868
C	 0.6876602857	-0.4685241911	 1.1475847577	 0.101871
C	 1.2634756335	-0.9000272004	 2.1118013967	 0.052385
C	 1.9636453571	-1.4284130296	 3.2834382408	-0.504629
C	 2.018428742	-2.8883615465	 3.3363532629	 0.141006
C	 2.076923754	-4.0919687156	 3.4025444998	 0.005125
C	 2.1214667216	-5.5308228754	 3.4390359242	 0.025531
O	 2.6500327445	-6.1799102986	 4.3123925351	-0.229447
H	 0.9718086126	 2.0333425405	-0.0268999406	 0.129494
H	-0.5690849773	 1.9856743271	-0.904213288	 0.118214
H	-0.5528531312	 2.0020021609	 0.869419186	 0.129498
H	-1.0306537961	-0.3090612423	-0.0406461607	 0.133147
H	 0.4795893427	-0.2779857199	-0.9285523843	 0.133139
H	 2.9917755067	-1.0401983256	 3.3171955529	 0.171938
H	 1.4874243531	-1.064493581	 4.2052240396	 0.17194
H	 1.6191795125	-6.0193199185	 2.5793158578	 0.100511
23.1217	26.9452	44.576	124.5662	155.7787	159.6286	178.3439	253.0226	309.596	374.0088	396.643	479.2605	513.3183	609.8471	748.4557	786.7533	828.8539	919.0124	963.2925	1022.0094	1077.948	1105.0954	1134.79	1172.3135	1227.0815	1286.1357	1334.9457	1351.1185	1409.7412	1421.7666	1440.2343	1476.2782	1494.8842	1505.5928	1768.1454	2337.286	2377.6236	2919.1949	3004.7988	3023.7572	3028.1067	3046.0655	3051.6988	3120.1425	3124.938
CCC#CCC#CC=O	CCC#CCC#CC=O	
InChI=1S/C8H8O/c1-2-3-4-5-6-7-8-9/h8H,2,5H2,1H3	InChI=1S/C8H8O/c1-2-3-4-5-6-7-8-9/h8H,2,5H2,1H3
