17
gdb 54177	2.32264	1.24917	1.04614	4.6642	71.13	-0.2431	-0.0402	0.2029	1209.3365	0.131706	-458.975416	-458.965742	-458.964798	-459.010397	34.58	
C	-0.0806664783	 1.5067478284	 0.112545109	-0.475804
C	 0.0069711486	 0.0268802357	-0.188918162	 0.328282
O	 1.037497258	-0.5083877307	-0.5383234483	-0.314327
C	-1.2682806435	-0.769698553	-0.0331384571	 0.252113
O	-2.4328790243	-0.0295459809	 0.1916253309	-0.451665
C	-1.3740687093	-2.0931405185	-0.731950819	-0.349269
C	-1.2289494919	-2.0816144241	 0.7748217183	-0.11671
C	 0.0025756791	-2.6131419645	 1.4205374477	 0.137113
O	-0.0100195516	-3.1339128144	 2.5101447488	-0.265389
H	 0.9166024693	 1.9435903398	 0.0587235553	 0.143963
H	-0.7392483511	 2.0040468443	-0.6081798903	 0.135688
H	-0.5254349383	 1.6720378649	 1.0983830732	 0.15767
H	-2.8015446763	 0.2250078758	-0.6615537226	 0.293123
H	-2.3431321322	-2.3677527172	-1.1322131878	 0.13145
H	-0.5072085423	-2.397233636	-1.3087675856	 0.15222
H	-2.1318087732	-2.2299832017	 1.3569328115	 0.128642
H	 0.9314889774	-2.5188619379	 0.8269001581	 0.1129
51.4801	87.517	141.29	151.838	211.2119	265.4556	287.8179	323.5455	362.1895	406.5205	450.1874	492.8516	556.0404	627.462	654.9059	809.826	862.3531	891.1404	967.4833	979.4339	1044.3876	1049.8684	1076.341	1080.8995	1155.3281	1170.1865	1229.4007	1307.6575	1333.6771	1349.6066	1385.2618	1436.2561	1453.185	1456.3578	1467.989	1791.1999	1807.7074	2961.1804	3045.0236	3107.1517	3138.1407	3161.4094	3187.0517	3238.1666	3798.4639
CC(=O)C1(O)CC1C=O	CC(=O)[C@@]1(O)C[C@H]1C=O	
InChI=1S/C6H8O3/c1-4(8)6(9)2-5(6)3-7/h3,5,9H,2H2,1H3	InChI=1S/C6H8O3/c1-4(8)6(9)2-5(6)3-7/h3,5,9H,2H2,1H3/t5-,6-/m0/s1
