22
gdb 58223	2.15285	1.16683	1.00022	2.8519	79.42	-0.2361	0.028	0.2641	1333.3527	0.191788	-441.511143	-441.500121	-441.499177	-441.547457	39.52	
C	 0.0416154011	 1.5072836495	-0.2393066863	-0.435126
C	 0.0136140495	 0.002131118	 0.0084025734	 0.152714
O	 0.8142727076	-0.3507951773	 1.1360866812	-0.434666
C	-1.423160044	-0.5738653829	 0.1157951965	 0.004478
C	-1.4079163926	-2.1064756554	 0.1409067972	-0.409912
N	-2.1850676721	-0.0128657398	 1.2357648034	-0.04304
C	-2.0309872944	-0.5423921063	 2.588575874	-0.354294
C	-3.1633880469	 0.9143280138	 1.0194464946	 0.14969
O	-3.8796097144	 1.3962551309	 1.8728442915	-0.348599
H	 1.0748851783	 1.8531034071	-0.3307445828	 0.129366
H	-0.4902335541	 1.7701847697	-1.1590334925	 0.12248
H	-0.4345916577	 2.0482520116	 0.586704471	 0.128304
H	 0.4836362328	-0.504967174	-0.8447098984	 0.087457
H	 0.7280873083	 0.3522732477	 1.7879342332	 0.287843
H	-1.9470239156	-0.2534409013	-0.7936449426	 0.089092
H	-2.4214335284	-2.5061546157	 0.2338729166	 0.122032
H	-0.9751324758	-2.48772045	-0.7887104886	 0.120777
H	-0.8011819359	-2.482923164	 0.9676479838	 0.142572
H	-2.3993258204	 0.2102851312	 3.2860919354	 0.158944
H	-2.6184420299	-1.4572842879	 2.7332596547	 0.129221
H	-0.983735909	-0.7682323245	 2.7870837817	 0.132037
H	-3.2347769863	 1.1968204296	-0.049729247	 0.06863
47.5849	68.8962	116.8901	161.6606	223.6401	239.6219	251.4202	262.0307	292.3098	307.7289	324.343	360.1216	368.5894	435.157	533.1672	577.2191	718.5128	790.6536	856.6677	928.7794	979.1609	1027.3187	1028.4881	1041.1965	1070.1142	1089.3566	1126.849	1155.9505	1175.2061	1272.1661	1295.8311	1312.061	1338.6785	1370.2894	1402.72	1406.1795	1418.7705	1433.147	1444.4592	1448.8599	1488.6616	1492.6023	1500.1861	1502.7362	1505.4901	1527.7088	1790.7066	2930.9777	3020.8039	3029.7613	3032.4692	3034.1872	3048.9598	3102.9038	3116.8607	3118.7523	3119.1875	3133.8551	3168.6211	3818.1067
CC(O)C(C)N(C)C=O	C[C@@H](O)[C@@H](C)N(C)C=O	
InChI=1S/C6H13NO2/c1-5(6(2)9)7(3)4-8/h4-6,9H,1-3H3	InChI=1S/C6H13NO2/c1-5(6(2)9)7(3)4-8/h4-6,9H,1-3H3/t5-,6-/m1/s1
