14
gdb 123681	4.12634	1.59176	1.24705	4.0506	66.41	-0.2456	-0.0129	0.2327	931.2766	0.104372	-432.837393	-432.831345	-432.830401	-432.867798	24.096	
C	-0.0560941203	 1.5101306552	-0.0018152946	-0.379633
C	 1.4383162501	 1.8886633684	-0.0252659376	 0.062709
O	 2.195814738	 1.4667217822	 1.1101456357	-0.24094
C	 2.2925570085	 0.6724098571	-0.0891608215	-0.144596
C	 1.3208171755	-0.4412940856	-0.0814204454	 0.379446
C	 0.0271106498	 0.0072030704	 0.0015437718	 0.296489
N	-0.814117571	-1.0480322272	 0.0988650695	-0.284916
N	-0.0986325805	-2.1439416228	 0.0616406643	-0.122784
N	 1.2101652326	-1.7816825102	-0.0364860941	-0.342548
H	-0.5507571021	 1.9184836705	 0.8852200426	 0.144378
H	-0.5704189057	 1.9108190034	-0.8823425311	 0.128147
H	 1.7491133228	 2.836065885	-0.4573714432	 0.108195
H	 3.2694322085	 0.6330365414	-0.5584892396	 0.113277
H	 1.9104223038	-2.5048550874	-0.0683276569	 0.282775
156.573	247.686	356.6318	429.0592	457.548	566.5926	611.309	709.8467	722.0926	743.7411	787.3952	845.2635	858.1943	904.0084	985.0161	1010.8463	1028.4194	1033.2374	1090.3658	1174.4529	1188.6412	1215.6417	1240.7173	1269.2134	1301.5078	1366.4795	1372.2981	1418.7096	1469.1595	1529.3966	1590.2557	3048.9149	3090.5729	3152.8436	3178.3439	3662.9184
C1C2OC2C2=C1N=NN2	C1[C@H]2O[C@H]2c2c1nn[nH]2	
InChI=1S/C5H5N3O/c1-2-4(7-8-6-2)5-3(1)9-5/h3,5H,1H2,(H,6,7,8)	InChI=1S/C5H5N3O/c1-2-4(7-8-6-2)5-3(1)9-5/h3,5H,1H2,(H,6,7,8)/t3-,5-/m1/s1
