17
gdb 48485	2.14631	1.55973	1.16645	3.1847	74.82	-0.2556	-0.0345	0.2212	1104.1984	0.134516	-421.798933	-421.790178	-421.789234	-421.833076	31.843	
O	 0.1170882384	 0.0200706508	 0.1742973198	-0.235375
C	 0.1326330336	 1.2187051303	 0.1514845336	 0.127605
C	 1.3917368743	 2.0824237693	-0.069329694	 0.04108
C	 1.6039931096	 2.9938237037	 1.1927386926	-0.303614
C	 2.9714212059	 2.526332181	 1.7306146562	-0.069546
O	 3.1368035266	 1.2027326857	 1.2543497151	-0.241046
C	 2.6771914399	 1.2087769984	-0.0817444921	-0.132978
C	 1.1765352374	 2.8347440961	-1.2963716773	 0.26506
C	 0.9642405573	 3.4315897788	-2.3187961159	-0.45757
H	-0.7914371082	 1.820945748	 0.2908791397	 0.097322
H	 1.5906234048	 4.0525411075	 0.9317097776	 0.126365
H	 0.8090683597	 2.8182177553	 1.9249365625	 0.120327
H	 3.773089937	 3.1796147465	 1.3503254085	 0.098333
H	 3.0286968671	 2.5047106392	 2.821243698	 0.117919
H	 2.4640627363	 0.1817022209	-0.3797026004	 0.142863
H	 3.4195740256	 1.6524756076	-0.760727649	 0.099215
H	 0.7925241147	 3.962937511	-3.2223698147	 0.204039
51.9457	76.9981	157.4725	169.8306	223.073	318.7026	340.0235	482.0277	489.134	517.8559	598.8859	626.8515	648.6544	671.7473	804.8869	837.8887	915.9786	952.2336	973.4451	985.2559	1040.8644	1096.4542	1108.6611	1155.6322	1165.8569	1239.7525	1250.9038	1289.2829	1318.9553	1353.7747	1394.403	1417.2901	1493.0492	1496.4687	1518.994	1839.8793	2228.6764	2897.1588	2977.0871	3001.7083	3054.1358	3103.0303	3126.7952	3134.3239	3499.6558
O=CC1(CCOC1)C#C	O=C[C@]1(CCOC1)C#C	
InChI=1S/C7H8O2/c1-2-7(5-8)3-4-9-6-7/h1,5H,3-4,6H2	InChI=1S/C7H8O2/c1-2-7(5-8)3-4-9-6-7/h1,5H,3-4,6H2/t7-/m1/s1
