13
gdb 83070	2.95824	1.52978	1.2952	3.4162	63.	-0.2696	-0.0144	0.2552	955.4334	0.089689	-452.734919	-452.727646	-452.726702	-452.766651	27.086	
O	-0.0182697829	 1.398398107	 0.2628077244	-0.402129
C	-0.0413861233	 0.0259483778	 0.1418055405	 0.030359
C	-0.4404080199	-0.7756626719	 1.3348411816	-0.007258
O	-1.1589298477	-0.0892564167	 2.3324895649	-0.196861
C	-2.2951690519	 0.3544144402	 1.7370545333	 0.118772
N	-2.5363358524	 0.0147977689	 0.5345663053	-0.302122
C	-1.3846017915	-0.7360018565	 0.1011153558	 0.119758
C	-1.5660322468	-1.8055568952	-0.8357009108	 0.231059
N	-1.660402887	-2.672643625	-1.5952397162	-0.338526
H	-0.3521958423	 1.7894820326	-0.5530668308	 0.307673
H	 0.7332426202	-0.4309950902	-0.4728614723	 0.128624
H	 0.1194248974	-1.6248089293	 1.7031654937	 0.146896
H	-2.9300549619	 0.9659829482	 2.3643676405	 0.163755
139.4517	165.9925	211.4334	228.52	306.1189	458.4642	474.3929	517.864	559.4717	612.7646	720.5752	754.4493	774.4344	902.2638	911.8692	951.7347	992.0295	1030.9838	1081.2581	1124.5722	1151.2093	1228.2021	1250.4646	1296.9379	1311.2474	1356.4575	1459.2117	1661.719	2356.2497	3120.1847	3213.0761	3248.116	3797.3489
OC1C2OC=NC12C#N	O[C@H]1[C@H]2OC=N[C@@]12C#N	
InChI=1S/C5H4N2O2/c6-1-5-3(8)4(5)9-2-7-5/h2-4,8H	InChI=1S/C5H4N2O2/c6-1-5-3(8)4(5)9-2-7-5/h2-4,8H/t3-,4+,5-/m0/s1
