18
gdb 98246	2.69469	1.29348	0.8984	2.3812	71.84	-0.2479	0.0195	0.2674	1273.7801	0.147317	-472.448465	-472.438566	-472.437622	-472.483882	35.336	
C	 1.7559404434	 1.2504777754	 1.6947547775	-0.229687
O	 1.3909803492	-0.1179971642	 1.9054601451	-0.262869
C	 0.6376316984	-0.6850863111	 0.9328478844	 0.521706
N	 0.2402963602	 0.0189551665	-0.0473679869	-0.588174
N	 0.336383158	-2.0267045539	 1.1896724218	-0.224559
C	-0.7638743855	-2.5893905778	 0.4056701797	-0.360917
C	 1.0395033222	-2.9591124383	 2.0052365275	 0.472327
N	 2.1822841781	-2.5300653221	 2.6097470753	-0.560115
O	 0.6457267703	-4.1064683803	 2.099727064	-0.397882
H	 0.8650884514	 1.8799314716	 1.6488938765	 0.149388
H	 2.3749780296	 1.5189587881	 2.5518957051	 0.12693
H	 2.3125230704	 1.3630686482	 0.7618149074	 0.146166
H	-0.2889231496	-0.5180298073	-0.7243200071	 0.229418
H	-0.4766287587	-2.7432174159	-0.6418298963	 0.128928
H	-1.0163497068	-3.5523023861	 0.8413762633	 0.179197
H	-1.6265251998	-1.9195300318	 0.4456935687	 0.134335
H	 2.349563636	-1.5459298642	 2.7295042672	 0.273725
H	 2.5541741833	-3.1815349268	 3.280167217	 0.262084
48.6195	62.6534	127.7064	185.5853	211.3125	216.6316	251.7543	358.5814	402.8813	410.8876	421.1654	471.8699	548.556	568.5772	676.009	736.8797	767.0308	792.0203	800.1165	956.0242	1035.0949	1102.5458	1122.4524	1159.2679	1182.5965	1208.4156	1215.4213	1253.2162	1348.2431	1406.0022	1448.9183	1473.7635	1485.8896	1501.3574	1505.5947	1520.2539	1601.2124	1708.5199	1795.1492	3025.7774	3056.6276	3098.845	3138.5957	3154.3872	3189.0828	3577.3158	3601.3009	3734.0274
COC(=N)N(C)C(N)=O	COC(=N)N(C)C(=O)N	
InChI=1S/C4H9N3O2/c1-7(3(5)8)4(6)9-2/h6H,1-2H3,(H2,5,8)	InChI=1S/C4H9N3O2/c1-7(3(5)8)4(6)9-2/h6H,1-2H3,(H2,5,8)
