18
gdb 78874	2.72322	1.88713	1.40673	3.0816	74.77	-0.2406	0.0726	0.3132	950.358	0.149515	-401.865346	-401.858381	-401.857436	-401.896342	29.135	
O	-0.2554220264	 1.4639140574	 0.0092926756	-0.454278
C	-0.1211793937	 0.0753829332	 0.0802027024	 0.184759
C	 0.1643820218	-0.6648710301	 1.4013653258	-0.140811
C	-0.6791162666	-1.8326869307	 0.9508033113	-0.080032
C	-1.1859852181	-0.9557843092	 2.077212948	-0.178365
C	-2.2278123652	-0.356117501	 1.173192776	 0.410764
C	-3.6878640825	-0.3116141461	 1.3223032032	-0.343504
N	-2.8971745727	 0.9498026869	 1.268421901	-0.3926
C	-1.3892501306	-0.817809976	-0.0296672394	-0.214828
H	-1.1375013717	 1.6888716767	 0.3375367917	 0.296553
H	 0.629062289	-0.2223401396	-0.6595167389	 0.081581
H	 1.0856750626	-0.6931851016	 1.9692063058	 0.089471
H	-0.4863465973	-2.8926295202	 0.899452591	 0.098895
H	-1.2579148217	-1.1885147023	 3.1321114262	 0.089359
H	-4.3330898495	-0.4823192113	 0.4646556286	 0.124927
H	-4.1224571058	-0.5949025563	 2.2775761294	 0.117385
H	-2.7925202765	 1.3206154999	 2.210706299	 0.23448
H	-1.854401335	-1.0367741499	-0.9879930966	 0.076242
150.9798	211.2016	274.7551	344.3321	375.8543	493.7075	500.1367	589.1196	647.1796	754.3648	783.434	797.7444	809.4753	845.9134	874.1794	899.6509	914.0364	944.7792	972.166	986.4555	992.2834	1020.202	1026.977	1047.3776	1066.2133	1120.8964	1131.0166	1152.9169	1163.1644	1189.3628	1238.8184	1266.6203	1279.2216	1300.6414	1332.451	1355.9752	1445.2205	1456.046	1520.2761	3062.203	3105.8827	3146.0992	3190.6425	3192.6327	3201.073	3243.3608	3487.7052	3724.5599
OC1C2C3C2C2(CN2)C13	O[C@H]1[C@@H]2[C@H]3[C@@H]2[C@]2(CN2)[C@@H]13	
InChI=1S/C7H9NO/c9-6-3-2-4(3)7(1-8-7)5(2)6/h2-6,8-9H,1H2	InChI=1S/C7H9NO/c9-6-3-2-4(3)7(1-8-7)5(2)6/h2-6,8-9H,1H2/t2-,3+,4-,5+,6-,7+/m0/s1
