19
gdb 83378	2.71563	1.75392	1.55718	1.073	74.43	-0.238	0.0488	0.2868	954.8328	0.160316	-422.935714	-422.928521	-422.927577	-422.966869	29.622	
C	-0.0700699358	 1.6220407953	 0.0732725556	-0.445365
C	 0.0293574068	 0.1067690355	 0.046877537	-0.002952
C	 1.1341127483	-0.6295710386	-0.7558962494	-0.163904
C	 2.4010471274	-0.0138370029	-0.0536703782	-0.101975
O	 1.9975326022	 0.0411275364	 1.3643977449	-0.348691
C	 0.7738993183	-0.6483671126	 1.2172150122	 0.383902
C	-0.1088079909	-1.5950810221	 2.0208721216	-0.184666
O	-0.2535083847	-2.3797904014	 0.7842345949	-0.307274
C	 0.9884918329	-1.8017958876	 0.2540203835	 0.092007
H	 0.8295306634	 2.0846532456	 0.4863622476	 0.132679
H	-0.2339683903	 2.0225090751	-0.933401237	 0.115127
H	-0.9159392895	 1.9397741919	 0.6920669646	 0.117276
H	-0.939393857	-0.3534758362	-0.142151028	 0.09892
H	 1.1790578607	-0.6930821622	-1.8454156089	 0.071515
H	 3.2954158312	-0.6398708244	-0.1442358866	 0.11269
H	 2.6254651304	 0.994903115	-0.4075955251	 0.118475
H	 0.4101981396	-2.1736101845	 2.794385758	 0.116514
H	-1.0714762955	-1.2290193052	 2.3892209108	 0.115156
H	 1.8139579326	-2.5118885672	 0.3525423226	 0.080565
160.1093	237.2515	253.7452	315.6826	330.6889	386.0153	449.9802	550.0025	601.3736	708.7112	727.1429	757.7673	825.1126	862.3073	883.5309	893.3863	918.0758	947.4433	987.3682	1004.7629	1029.858	1062.6538	1090.1314	1107.4899	1137.7141	1148.3599	1172.4277	1179.9689	1223.6202	1229.8111	1262.9434	1281.139	1319.1927	1329.5677	1362.3499	1391.5977	1411.3019	1490.1516	1500.4341	1508.9731	1519.9299	3029.3451	3034.8803	3044.2221	3070.3506	3091.4944	3092.2684	3097.309	3106.8176	3113.7984	3130.1086
CC1C2COC11COC21	C[C@H]1[C@H]2CO[C@]31CO[C@@H]23	
InChI=1S/C7H10O2/c1-4-5-2-9-7(4)3-8-6(5)7/h4-6H,2-3H2,1H3	InChI=1S/C7H10O2/c1-4-5-2-9-7(4)3-8-6(5)7/h4-6H,2-3H2,1H3/t4-,5+,6-,7-/m0/s1
