16
gdb 32356	4.815	1.05202	0.86816	3.9182	78.6	-0.2013	-0.0446	0.1568	1283.5686	0.124873	-437.902153	-437.894214	-437.89327	-437.934826	29.869	
C	 0.0754203718	 1.3989071192	 0.0068281439	-0.24982
O	 0.0112283734	-0.0144132345	 0.0028579845	-0.257148
C	-1.2287825182	-0.5721810875	 0.0106820157	 0.264648
C	-2.4041283988	 0.0895205279	 0.0219464298	-0.068926
O	-3.6044152934	-0.5595130336	 0.0291658339	-0.242971
C	-3.6984127782	-1.9453715696	 0.0254105623	 0.386036
N	-4.8323716758	-2.5222035323	 0.0323399782	-0.542846
C	-2.4370183068	-2.6641698697	 0.0133030373	-0.147655
C	-1.2587748264	-2.0140315024	 0.0062587552	-0.134843
H	 1.1341287094	 1.660665495	-0.0006114419	 0.141631
H	-0.4118334081	 1.8225458894	-0.8818393164	 0.126194
H	-0.3978701824	 1.8168954966	 0.9056600732	 0.126194
H	-2.5336555884	 1.1613131466	 0.0264202743	 0.126698
H	-5.5853135229	-1.8335276988	 0.0404068952	 0.218435
H	-2.5081122603	-3.7439122484	 0.0103669718	 0.130149
H	-0.3106081449	-2.540220868	-0.0027992768	 0.124224
77.8217	124.5893	222.3183	241.713	329.5743	369.9238	382.2608	461.4654	514.0868	520.0704	631.9498	724.3145	759.2264	806.4489	817.7278	833.9789	861.8405	962.7537	1005.1396	1052.3377	1070.0683	1162.5601	1178.8059	1179.5813	1228.9329	1295.3207	1298.1337	1375.3996	1451.4294	1484.9317	1485.3024	1507.4365	1614.4175	1685.4258	1738.1969	2998.3387	3055.3394	3141.349	3197.8489	3229.6723	3247.3075	3487.5618
COC1=COC(=N)C=C1	COC1=CC=C(OC1)[NH]	
InChI=1S/C6H7NO2/c1-8-5-2-3-6(7)9-4-5/h2-4,7H,1H3	InChI=1S/C6H8NO2/c1-8-5-2-3-6(7)9-4-5/h2-3,7H,4H2,1H3
