25
gdb 61167	2.73137	0.93526	0.85455	0.7977	94.81	-0.2569	0.0555	0.3124	1526.9809	0.225106	-352.335723	-352.324239	-352.323294	-352.371752	43.665	
C	 0.0414807822	 1.5884653435	 0.1112553422	-0.421189
C	-0.0441343256	 0.0621042432	-0.0485891257	 0.041739
C	-1.5354965104	-0.3746678183	 0.0063689621	-0.388135
C	-2.1463568548	-0.153593594	 1.3121731045	 0.300434
C	-2.6301908155	 0.0237680404	 2.3987495567	-0.436035
C	 0.7062046195	-0.5005594536	-1.3023144824	 0.264305
C	 2.1502353207	 0.0419221716	-1.324759781	-0.417426
C	 0.7913287579	-2.0387270245	-1.2152132459	-0.413652
C	 0.0096584272	-0.1117695742	-2.6211185576	-0.410669
H	 1.0681182013	 1.9286431401	 0.2628197772	 0.115676
H	-0.3616987942	 2.1099876192	-0.7640928621	 0.112362
H	-0.5429060328	 1.903651108	 0.9802073293	 0.130208
H	 0.444638725	-0.3867069532	 0.8265112526	 0.079768
H	-2.1058114886	 0.1754069821	-0.7530050618	 0.128227
H	-1.6345530839	-1.435300957	-0.2466584368	 0.126839
H	-3.0687059124	 0.1777687658	 3.3532020917	 0.190962
H	 2.6623688381	-0.1500413025	-0.3749537232	 0.108707
H	 2.726693153	-0.447572682	-2.1169912753	 0.107192
H	 2.1829194749	 1.1181945707	-1.5136940209	 0.114372
H	-0.1906657502	-2.5189493948	-1.2571464947	 0.111526
H	 1.3772374142	-2.4351826909	-2.0512820592	 0.109332
H	 1.2805863519	-2.3551324151	-0.2874946625	 0.111172
H	-0.0833132348	 0.9732072872	-2.7312149857	 0.113358
H	 0.5890770397	-0.4763932646	-3.4762243196	 0.108916
H	-0.9919369126	-0.5458452574	-2.7002829521	 0.11201
57.8231	67.6098	139.781	202.7211	230.1434	245.6471	259.0343	279.2483	292.5716	337.1812	351.0753	363.4343	381.2635	398.1251	448.2918	508.8286	532.2334	611.696	633.0997	732.2018	841.7427	881.1589	909.6954	932.4063	935.0173	958.5956	977.5709	1007.7871	1027.8826	1073.0793	1108.488	1127.1053	1208.4127	1241.3685	1255.1391	1264.9416	1311.5039	1360.6492	1368.4461	1400.3836	1401.5142	1409.8692	1435.7195	1469.7984	1481.4627	1485.6154	1487.6736	1499.5485	1506.7131	1511.3995	1514.3048	1522.3931	2234.5812	3011.1267	3026.3626	3029.0873	3030.1073	3035.8508	3042.5175	3072.1809	3089.7772	3094.0237	3098.6621	3101.184	3104.6261	3108.4907	3109.1827	3125.6794	3507.3562
CC(CC#C)C(C)(C)C	C[C@@H](CC#C)C(C)(C)C	
InChI=1S/C9H16/c1-6-7-8(2)9(3,4)5/h1,8H,7H2,2-5H3	InChI=1S/C9H16/c1-6-7-8(2)9(3,4)5/h1,8H,7H2,2-5H3/t8-/m0/s1
