18
gdb 93414	2.87345	1.3172	0.93668	5.3662	78.69	-0.2142	-0.0189	0.1953	1210.256	0.148957	-439.13251	-439.124039	-439.123095	-439.165364	33.011	
N	 0.0067673526	 1.3903713474	 0.0905804676	-0.563215
C	-0.0582123751	 0.0336253433	-0.0048878084	 0.385921
C	-1.2126100266	-0.6836906288	 0.0041429985	-0.314725
C	-1.256265505	-2.1362912295	-0.0213055306	 0.39136
O	-2.3005584165	-2.7680274531	-0.0032442041	-0.369026
C	 0.0932527713	-2.8610202711	-0.048561886	-0.326477
C	 1.1974987555	-2.0236076828	-0.6993034413	-0.245938
C	 1.2959670238	-0.6531956918	-0.0321637712	 0.043756
O	 2.2023579774	 0.2192398677	-0.7065045866	-0.448157
H	 0.862655205	 1.816817533	-0.2290522883	 0.273054
H	-0.8398654008	 1.9201072165	-0.0395770471	 0.259833
H	-2.1725205603	-0.1769879565	 0.0487995454	 0.078854
H	 0.3630714538	-3.0937088586	 0.9915271052	 0.117319
H	-0.0472694816	-3.8180355999	-0.5567185359	 0.121851
H	 2.1661811644	-2.53398575	-0.63285455	 0.088292
H	 0.9829965745	-1.8675766811	-1.7624025594	 0.118247
H	 1.6185593519	-0.7792641437	 1.0157410963	 0.096515
H	 3.0906175757	-0.132976061	-0.5983906042	 0.292535
81.4418	168.7041	208.3569	244.1887	336.8696	352.726	376.3262	416.9004	464.9237	493.6125	521.4593	536.7641	590.9955	647.4468	700.857	756.7714	833.071	879.1203	899.9372	981.0506	1046.7494	1075.8985	1093.2584	1110.7647	1180.2297	1206.6955	1232.2373	1260.1021	1315.0405	1329.6881	1347.2048	1371.0922	1392.0863	1452.1872	1465.1108	1495.2159	1621.2402	1674.8942	1750.2713	2954.4812	3016.5889	3028.2966	3077.7492	3103.2572	3168.6847	3583.803	3703.1374	3836.8875
NC1=CC(=O)CCC1O	NC1=CC(=O)CC[C@H]1O	
InChI=1S/C6H9NO2/c7-5-3-4(8)1-2-6(5)9/h3,6,9H,1-2,7H2	InChI=1S/C6H9NO2/c7-5-3-4(8)1-2-6(5)9/h3,6,9H,1-2,7H2/t6-/m1/s1
