14
gdb 17910	3.04863	2.43137	2.2267	2.654	56.17	-0.2377	-0.0312	0.2065	698.5905	0.109304	-419.679793	-419.67385	-419.672906	-419.709865	22.881	
O	 0.0033388074	 0.0404707031	 0.0038511481	-0.317681
C	-0.0111560098	 1.235069823	 0.0103284616	 0.431609
C	-1.1458850516	 2.27435106	 0.0315961725	-0.210455
C	-0.6785248214	 3.0707771423	 1.2648478088	-0.077824
O	 0.7751414228	 3.0373841345	 1.1722864947	-0.273172
C	 1.0819908043	 2.3105944457	 0.0005132645	 0.095559
O	 0.7424823684	 3.0493397785	-1.154660219	-0.273169
C	-0.7132035149	 3.0835186748	-1.2060085471	-0.077822
H	-2.1675700572	 1.9042978108	 0.0440275072	 0.107197
H	-1.0127584622	 4.1143360254	 1.2499634207	 0.116336
H	-0.9920880406	 2.6066369417	 2.2060438766	 0.122244
H	 2.1330569729	 2.037273533	-0.0156458127	 0.118594
H	-1.0531493004	 2.6290873043	-2.1427714497	 0.122247
H	-1.0467090576	 4.1268291228	-1.1709701862	 0.116337
160.1837	175.3858	341.1277	427.9644	502.4329	569.9262	650.883	747.9114	799.2346	869.7346	895.1361	895.4716	924.3683	947.3553	976.9316	1022.5532	1084.4931	1109.8146	1152.6788	1161.6967	1189.9905	1250.0746	1266.0643	1267.8336	1306.6784	1368.3403	1389.7451	1521.8755	1537.9403	1906.552	3030.0147	3030.7985	3075.0304	3077.2819	3163.4096	3182.1025
O=C1C2COC1OC2	O=C1[C@H]2CO[C@@H]1OC2	
InChI=1S/C5H6O3/c6-4-3-1-7-5(4)8-2-3/h3,5H,1-2H2	InChI=1S/C5H6O3/c6-4-3-1-7-5(4)8-2-3/h3,5H,1-2H2/t3-,5+
