17
gdb 35851	3.40388	1.17797	0.91655	2.0378	74.12	-0.2616	-0.0044	0.2572	1216.3044	0.137913	-418.024851	-418.01673	-418.015786	-418.058115	29.737	
N	-0.0089323901	-1.1622021979	-0.123837782	-0.313545
C	-0.003879606	-0.0098500086	-0.0358233663	 0.264988
C	 0.0215878114	 1.4490176164	 0.094437818	-0.168208
C	-0.7868899732	 1.9019884712	 1.3242210313	-0.21541
C	-0.9883016318	 3.4199058231	 1.3891768263	-0.167503
N	 0.1704421428	 4.2730919349	 1.5882654284	-0.230004
C	 1.2472609311	 4.1947853049	 0.9438393493	 0.111569
O	 1.6755820351	 3.3088737392	-0.0085362669	-0.230185
C	 1.4910503656	 1.9106849592	 0.1621519776	-0.072452
H	-0.425189454	 1.874117039	-0.8140791632	 0.134859
H	-1.77379638	 1.4284180584	 1.302776701	 0.126355
H	-0.2841475451	 1.550254777	 2.2326927879	 0.12465
H	-1.4925927726	 3.7511025814	 0.4686104269	 0.120157
H	-1.6847548018	 3.629754045	 2.2071262614	 0.119761
H	 2.0036920457	 4.9692914753	 1.0743832922	 0.12674
H	 1.9236643142	 1.5924998768	 1.119315733	 0.127009
H	 2.0643720287	 1.4510478249	-0.645197065	 0.141218
56.6595	146.3102	166.736	180.7129	299.4672	346.8978	366.3935	475.2363	513.3989	534.2561	561.4789	744.7154	823.0167	853.0141	939.8115	949.1551	957.2082	974.3775	1014.7339	1077.6776	1102.1377	1123.4612	1160.4781	1215.1664	1268.8349	1310.2737	1319.5865	1341.2978	1369.1018	1390.4131	1424.5515	1427.8342	1480.6417	1489.0441	1498.1603	1762.911	2358.0291	2999.2908	3025.5414	3034.6042	3043.4134	3069.1506	3088.8037	3116.9938	3135.9906
N#CC1CCN=COC1	N#C[C@H]1CCN=COC1	
InChI=1S/C6H8N2O/c7-3-6-1-2-8-5-9-4-6/h5-6H,1-2,4H2	InChI=1S/C6H8N2O/c7-3-6-1-2-8-5-9-4-6/h5-6H,1-2,4H2/t6-/m1/s1
