19
gdb 74533	3.85762	1.32128	1.2163	2.2155	80.94	-0.2211	0.0077	0.2288	1104.5834	0.159396	-385.8562	-385.848488	-385.847543	-385.887957	30.981	
C	-0.2682047254	 1.5491057855	 0.0514775735	-0.485037
C	 0.0037113242	 0.0797159441	-0.0159740746	 0.32692
C	 0.0966337209	-0.6745086369	-1.1266739672	-0.28802
C	 0.2189708088	-2.1034847651	-0.7521806941	 0.290082
C	 1.2659934329	-3.227808753	-0.8708911706	-0.291413
C	 1.3014791699	-3.2813886037	 0.7038869081	-0.289644
C	 0.2361583847	-2.1659195764	 0.7181139881	 0.302604
C	 0.1397416631	-0.7572088973	 1.2666068706	-0.412229
O	-0.8995987746	-2.6346174995	-0.005932226	-0.302698
H	 0.4914009593	 2.0673622174	 0.6505703715	 0.124295
H	-0.2876401105	 2.0008300587	-0.9437972456	 0.126971
H	-1.234115115	 1.7502425692	 0.5323541316	 0.132975
H	 0.0307908634	-0.2955821777	-2.139928192	 0.094485
H	 0.9320560292	-4.1270898297	-1.3928408381	 0.110555
H	 2.2124627125	-2.8894652019	-1.297821419	 0.109628
H	 1.0063351147	-4.2188397972	 1.1809480679	 0.109481
H	 2.2646880418	-2.9573502167	 1.1054633876	 0.106333
H	 1.0397431118	-0.4773518657	 1.8293915683	 0.112672
H	-0.7130101019	-0.6084963939	 1.9397037401	 0.12204
131.4198	176.0332	221.7823	273.4876	315.4937	367.4937	447.9015	484.2024	549.3197	579.1189	695.7869	746.1597	755.3114	793.2568	827.2406	862.1964	868.7218	918.069	941.1109	962.5005	1004.6356	1023.9284	1072.7079	1109.5809	1147.3363	1160.6616	1191.8188	1217.1623	1226.084	1259.0827	1270.8975	1324.1023	1336.4957	1398.5464	1410.7449	1460.9259	1464.5972	1477.2365	1484.3428	1485.657	1666.2258	3016.4981	3026.5893	3061.0991	3062.1371	3063.8366	3071.1473	3112.9016	3114.0389	3132.2078	3196.9513
CC1=CC23CCC2(C1)O3	CC1=C[C@@]23CC[C@]2(C1)O3	
InChI=1S/C8H10O/c1-6-4-7-2-3-8(7,5-6)9-7/h4H,2-3,5H2,1H3	InChI=1S/C8H10O/c1-6-4-7-2-3-8(7,5-6)9-7/h4H,2-3,5H2,1H3/t7-,8+/m0/s1
