18
gdb 108039	4.12413	1.35183	1.20459	1.9587	75.07	-0.2183	-0.0016	0.2166	1048.6985	0.149616	-401.903107	-401.89583	-401.894886	-401.934822	29.225	
O	 0.0547440042	 1.2822612067	 0.4964952899	-0.415285
C	 0.0183815804	 0.0385946105	-0.1853609025	-0.16104
C	-1.3759859611	-0.5222194941	-0.2340101855	 0.283118
C	-2.5846024311	 0.2522973717	-0.7417585395	-0.292634
C	-3.3984981779	-0.4928514816	 0.3674415409	-0.05639
C	-3.9425032609	-1.7728300524	-0.2169667188	-0.081621
C	-2.9162040009	-2.5987827975	-0.4235397274	-0.077619
C	-1.6850961413	-1.958932898	 0.1175960523	-0.123452
N	-2.0810013379	-0.8818628477	 1.0574943308	-0.182059
H	-0.3580952841	 1.1251354685	 1.3545764088	 0.291987
H	 0.3889334459	 0.2306267778	-1.1987622706	 0.11399
H	 0.6955509102	-0.693061648	 0.2826562258	 0.09035
H	-2.4548592076	 1.3088261579	-0.5010064245	 0.125538
H	-2.9019309084	 0.13871224	-1.7821603982	 0.097704
H	-4.0687801273	 0.0969223597	 0.9910287972	 0.081846
H	-4.967320299	-1.9033211462	-0.5401315508	 0.106403
H	-2.9279940509	-3.5626519583	-0.9145209503	 0.107762
H	-0.8451176924	-2.5666363189	 0.4413396427	 0.091401
81.8294	162.6427	265.4029	321.6653	367.0424	445.774	481.6635	559.6833	645.8983	730.9522	743.2934	763.8013	791.1057	825.5263	865.8521	871.3905	934.4715	947.9662	953.9352	991.3016	1018.4386	1054.1332	1071.3174	1094.6597	1104.3754	1144.089	1188.6548	1210.6775	1230.8514	1260.377	1294.2621	1317.846	1351.2668	1384.7211	1396.1707	1428.7982	1487.2843	1491.6531	1657.0866	2981.2642	3057.4399	3065.913	3118.4558	3129.2455	3154.8808	3209.4192	3234.9205	3784.4819
OCC12CC3C=CC1N23	OC[C@@]12C[C@H]3C=C[C@@H]1N23	
InChI=1S/C7H9NO/c9-4-7-3-5-1-2-6(7)8(5)7/h1-2,5-6,9H,3-4H2	InChI=1S/C7H9NO/c9-4-7-3-5-1-2-6(7)8(5)7/h1-2,5-6,9H,3-4H2/t5-,6+,7+,8?/m1/s1
