18
gdb 121508	5.14654	0.57319	0.54308	4.4389	79.65	-0.2492	0.0052	0.2544	1996.4085	0.144605	-439.030947	-439.020767	-439.019822	-439.068092	35.291	
O	 0.4182666614	 0.8639058236	 0.0612412294	-0.421714
C	-0.4393543588	-0.1981650473	 0.4153460784	-0.036075
C	-1.783386618	-0.0915308145	-0.312861116	-0.158999
N	-1.527162155	-0.0381710532	-1.7422074466	-0.233402
C	-2.1591988489	-0.820288134	-2.4952855865	 0.137884
O	-1.919112232	-0.8277464511	-3.8249602554	-0.195609
C	-2.7158891949	-1.7319637551	-4.5962739558	-0.235015
C	-4.1063320271	-1.3074927503	-4.7262618858	 0.312074
C	-5.2507575971	-0.9559713241	-4.8231021067	-0.445229
H	 0.3483741386	 0.9395314996	-0.8997219658	 0.292549
H	 0.0136633306	-1.1784187233	 0.1887415673	 0.079696
H	-0.5959309784	-0.1467556894	 1.4984470954	 0.101496
H	-2.4466048446	-0.9224821224	-0.0198804494	 0.081029
H	-2.2623330507	 0.8496588355	-0.0149247982	 0.117274
H	-2.9250702239	-1.5352480829	-2.161727421	 0.090984
H	-2.2329475598	-1.7666724859	-5.5763775918	 0.159214
H	-2.6652452441	-2.742436722	-4.1680259472	 0.140635
H	-6.2620032773	-0.6432735731	-4.9149155545	 0.213206
24.3876	47.8941	90.9736	112.7249	201.0434	211.0538	245.9045	321.8403	359.7796	408.702	467.7607	492.9312	548.7707	631.5679	642.2715	693.4436	886.4109	894.5061	938.2662	977.7692	1008.268	1034.4587	1091.0893	1100.0463	1124.8766	1195.0171	1226.3757	1262.3209	1301.8285	1367.7183	1382.5274	1390.225	1420.3128	1443.1435	1480.3996	1484.5088	1510.0873	1778.233	2241.5297	2956.9585	2967.6778	3011.1085	3020.8892	3047.2132	3068.6853	3097.0121	3502.0807	3761.523
OCCN=COCC#C	OCCN=COCC#C	
InChI=1S/C6H9NO2/c1-2-5-9-6-7-3-4-8/h1,6,8H,3-5H2	InChI=1S/C6H9NO2/c1-2-5-9-6-7-3-4-8/h1,6,8H,3-5H2
