16
gdb 53367	3.34408	0.91473	0.8389	5.1321	73.54	-0.2623	0.0237	0.286	1416.7393	0.124744	-437.910868	-437.90203	-437.901086	-437.946391	30.62	
C	-0.149651152	 1.4450262548	 0.0565549665	-0.497231
C	-0.0557620615	-0.006307362	 0.0040052527	 0.028014
C	 0.0216971451	-1.2075022873	-0.0346737657	 0.120972
C	 0.0955776723	-2.6676925716	-0.0893254726	-0.191484
C	 0.7349869338	-3.3185126964	 1.170035634	-0.083933
O	-0.3670971785	-3.6775382138	 2.0026462147	-0.232889
C	-1.5171379066	-3.7039859462	 1.2627527239	 0.478444
O	-2.5831152351	-4.0278440601	 1.70093192	-0.384163
N	-1.2081334757	-3.3249490919	-0.0338878236	-0.3493
H	 0.4890933011	 1.8533848046	 0.8469718864	 0.156283
H	 0.1594811485	 1.89831886	-0.8913102797	 0.153715
H	-1.1768504178	 1.7650197749	 0.2614695438	 0.158159
H	 0.6434353203	-2.9757400661	-0.986323701	 0.120281
H	 1.2903598693	-4.2221436648	 0.8963707884	 0.122144
H	 1.3847419221	-2.6335266858	 1.7145628165	 0.13718
H	-1.9735030152	-2.9680587884	-0.5849566544	 0.263806
26.1736	57.9774	99.2372	177.9243	192.9483	305.3322	329.6205	438.7052	483.6264	533.4248	582.7694	712.1159	730.9137	769.189	815.2633	918.6845	944.3932	1032.3279	1051.1405	1054.3539	1068.5916	1112.5134	1172.0613	1202.9647	1239.9551	1281.9054	1368.9576	1403.2124	1411.6803	1414.6862	1475.9353	1476.5634	1514.3531	1896.4508	2368.6661	3031.9828	3039.4883	3052.7027	3095.2329	3095.9239	3136.4758	3640.0787
CC#CC1COC(=O)N1	CC#C[C@H]1COC(=O)N1	
InChI=1S/C6H7NO2/c1-2-3-5-4-9-6(8)7-5/h5H,4H2,1H3,(H,7,8)	InChI=1S/C6H7NO2/c1-2-3-5-4-9-6(8)7-5/h5H,4H2,1H3,(H,7,8)/t5-/m0/s1
