13
gdb 28121	5.4714	1.35543	1.09371	0.9138	66.89	-0.2278	-0.0278	0.2001	1024.5083	0.091213	-452.776193	-452.769502	-452.768558	-452.807611	24.61	
C	-0.0142806979	 1.4294822262	 0.0731165164	-0.493274
C	-0.0139282978	-0.0469041033	-0.064974868	 0.356484
N	-0.2044618518	-0.7512979575	-1.1539684096	-0.390328
C	-0.0926563561	-2.0256656821	-0.6777418256	 0.314924
C	 0.1547037105	-2.0595407763	 0.6453337958	 0.302492
O	 0.2151163288	-0.7783405726	 1.0928536238	-0.220294
N	 0.2650747763	-3.3335097693	 1.1210174805	-0.350506
C	 0.0730573216	-4.0249090287	 0.0286147023	 0.04099
O	-0.154711429	-3.3051725715	-1.1263275608	-0.19269
H	 0.9487140937	 1.7890659089	 0.4503327693	 0.153843
H	-0.2048311208	 1.8738834669	-0.9038367973	 0.163222
H	-0.7876182554	 1.7582689112	 0.7750921872	 0.153838
H	 0.0713659677	-5.0968652818	-0.079914914	 0.161299
94.0626	146.8634	273.6907	288.2544	372.7132	532.3889	581.1575	638.3898	672.7027	765.6285	781.5953	791.4405	826.1497	900.2647	950.5699	1028.3635	1059.5988	1061.1209	1166.5453	1234.3866	1307.3575	1404.185	1435.4632	1448.3216	1471.2395	1478.8022	1506.794	1584.7252	1638.2829	3044.389	3099.0911	3160.1693	3293.2747
CC1=NC2=C(O1)N=CO2	Cc1nc2c(o1)nco2	
InChI=1S/C5H4N2O2/c1-3-7-5-4(9-3)6-2-8-5/h2H,1H3	InChI=1S/C5H4N2O2/c1-3-7-5-4(9-3)6-2-8-5/h2H,1H3
