21
gdb 58679	2.05268	1.37387	1.18192	3.2436	80.15	-0.2537	-0.027	0.2267	1210.857	0.180167	-424.234576	-424.224541	-424.223596	-424.269151	37.394	
C	 0.2996585506	 1.463401841	 0.3664574082	-0.414688
C	-0.1302215238	 0.035602869	 0.0056966351	 0.051639
O	-1.5348616933	-0.0667926502	-0.1654473555	-0.447369
C	 0.6079278406	-0.496039103	-1.2232610816	 0.243809
C	 2.0314803526	-1.0291610752	-1.1006076143	-0.343516
C	 0.9321764679	-1.9946898898	-1.3818914047	-0.045743
C	 0.4559052168	-3.0161206785	-0.373061155	-0.413468
C	 0.2634056486	 0.1436955369	-2.511325645	 0.116695
O	-0.6347875688	 0.9416888239	-2.6777957442	-0.299048
H	 1.3702907666	 1.5095867709	 0.5919575869	 0.107713
H	 0.0901880066	 2.1539083562	-0.4549749816	 0.133939
H	-0.2553724124	 1.7972376579	 1.2471942641	 0.122418
H	 0.10131311	-0.6135179746	 0.8566339429	 0.080305
H	-1.7439753042	 0.4701293641	-0.9422717975	 0.292212
H	 2.7432856173	-0.7844185787	-1.8828657583	 0.120399
H	 2.4481825615	-1.012878183	-0.0982646299	 0.126376
H	 0.878459023	-2.3447755381	-2.4106748849	 0.097223
H	 0.6574770345	-2.7045878164	 0.6547053861	 0.125526
H	-0.6198687337	-3.1909832479	-0.466556581	 0.143199
H	 0.9739026342	-3.9673812456	-0.5340723614	 0.122623
H	 0.8900443956	-0.1828630391	-3.3735885886	 0.079757
77.5405	115.4991	140.1743	211.7305	215.5865	229.7848	248.8739	271.9066	352.5849	375.4161	420.4431	484.8775	524.2838	547.7654	571.7321	761.1444	782.7965	867.0431	898.3612	918.2073	933.4957	1019.2262	1038.7894	1049.4315	1069.5848	1085.1116	1102.5257	1127.0992	1135.1209	1196.5486	1241.8895	1316.6199	1340.3348	1358.2398	1401.4031	1406.5015	1424.262	1440.529	1448.0111	1484.4704	1491.8697	1494.9996	1499.897	1505.0785	1783.9878	2862.1982	3040.3853	3041.025	3053.2609	3104.9761	3112.3275	3116.4691	3123.8617	3128.0909	3132.9237	3208.5751	3749.1848
CC(O)C1(CC1C)C=O	C[C@@H](O)[C@]1(C[C@H]1C)C=O	
InChI=1S/C7H12O2/c1-5-3-7(5,4-8)6(2)9/h4-6,9H,3H2,1-2H3	InChI=1S/C7H12O2/c1-5-3-7(5,4-8)6(2)9/h4-6,9H,3H2,1-2H3/t5-,6-,7-/m1/s1
