24
gdb 5991	3.02459	1.16095	1.06424	1.0832	82.08	-0.2454	0.0794	0.3247	1310.89	0.220146	-351.410877	-351.400007	-351.399063	-351.44654	39.382	
C	-0.0171510428	 1.5585409016	 0.1577659258	-0.380683
C	 0.0234025457	 0.033628391	 0.0202314136	-0.177257
C	-1.3782817151	-0.5806562654	-0.0658366599	-0.171824
C	-1.434460967	-2.1214560971	-0.0853405996	 0.356808
C	-2.905248746	-2.5688118265	-0.1289526414	-0.420176
C	-0.6674674285	-2.69813181	-1.2881710357	-0.425831
O	-0.8279469762	-2.504867925	 1.1596989604	-0.27334
C	-0.6628440296	-3.8787135464	 1.419597842	-0.240567
H	 0.9911680204	 1.9803930054	 0.2176680557	 0.108268
H	-0.5210807869	 2.0232398297	-0.6976602956	 0.108632
H	-0.5583771593	 1.860919345	 1.0613882592	 0.113182
H	 0.6044410628	-0.2297397908	-0.87191697	 0.089669
H	 0.5474965972	-0.4062997106	 0.874349224	 0.113366
H	-1.9654115728	-0.2446443245	 0.7981940902	 0.094565
H	-1.893891171	-0.2052838552	-0.9592328998	 0.08452
H	-3.3950888852	-2.1811271433	-1.0276880977	 0.112853
H	-3.0010478538	-3.658420886	-0.1504369952	 0.110287
H	-3.4430776311	-2.1923731168	 0.7462009783	 0.118079
H	 0.405950859	-2.5137323544	-1.1961761395	 0.123949
H	-0.8207266348	-3.7766894756	-1.3882549142	 0.110958
H	-1.0167438871	-2.2326357249	-2.2150701687	 0.114256
H	 0.0167232012	-4.3681141579	 0.7076470531	 0.103751
H	-0.2224124781	-3.9532271208	 2.4177390419	 0.123964
H	-1.6133956311	-4.4309632213	 1.424019643	 0.102574
68.3325	74.2306	100.4617	160.7577	190.9736	243.9931	247.8258	258.8489	285.2129	318.5399	347.6682	373.6423	412.8666	468.951	565.8735	733.8015	744.7809	847.8218	873.2765	916.4834	920.0307	958.229	1002.214	1050.1628	1079.2955	1100.7801	1130.9913	1181.3775	1193.8952	1210.1955	1221.5946	1264.6423	1290.2671	1324.4672	1340.7508	1391.961	1395.9553	1410.405	1413.6216	1470.0639	1474.798	1482.8533	1484.3285	1494.6139	1497.6221	1499.9621	1504.2239	1510.353	1511.0822	1518.0313	2989.2159	3017.5684	3026.0943	3031.317	3033.7292	3041.8809	3044.159	3055.7449	3076.8828	3098.7971	3100.3749	3102.1087	3103.8537	3110.6451	3115.6303	3121.7467
CCCC(C)(C)OC	CCCC(C)(C)OC	
InChI=1S/C7H16O/c1-5-6-7(2,3)8-4/h5-6H2,1-4H3	InChI=1S/C7H16O/c1-5-6-7(2,3)8-4/h5-6H2,1-4H3
