19
gdb 82934	2.22243	1.87248	1.50478	1.6724	73.77	-0.2311	0.0797	0.3108	987.7227	0.159399	-422.981851	-422.973956	-422.973011	-423.013644	31.901	
C	-0.0637214322	 1.5123173985	-0.0236996184	-0.489942
C	 0.0081985556	 0.0021418458	-0.0229594255	 0.257541
C	-0.6013960414	-0.739237563	 1.1767219671	 0.047782
O	-1.3333560739	-1.9239587871	 1.1205490157	-0.430085
C	 0.882431926	-0.7719240838	 0.9535716823	-0.022887
O	 1.3265999887	-1.952093198	 0.3116371978	-0.279605
C	 1.1160024739	-1.85318326	-1.0894282365	 0.090036
C	-0.2645326953	-2.0794526308	-1.6489142099	-0.341422
C	 0.2320745351	-0.6708519504	-1.3651145307	-0.127837
H	 0.7964868909	 1.9508720516	-0.5430407279	 0.119729
H	-0.9733812558	 1.8625316514	-0.5241518034	 0.127643
H	-0.0728704805	 1.9121446489	 0.9949761759	 0.118126
H	-0.9658437688	-0.0733036793	 1.9571904353	 0.096742
H	-0.6838180569	-2.6402921191	 1.1193207721	 0.2952
H	 1.608004159	-0.3487909242	 1.6429451776	 0.093194
H	 1.9971128008	-2.1138512853	-1.6667914001	 0.100732
H	-0.3029482615	-2.3701329448	-2.6943218292	 0.109444
H	-1.0476653871	-2.4886582285	-1.0294120178	 0.145649
H	 0.4220948334	-0.0038906519	-2.1984271446	 0.08996
168.5384	205.8449	218.5015	231.227	296.3551	306.8761	427.5955	441.0834	544.5273	597.3655	657.5959	694.7138	714.4816	786.9403	807.2079	822.6136	870.5263	957.8055	976.123	994.7292	1014.6751	1031.1282	1068.7982	1074.5358	1096.2668	1107.162	1120.7057	1150.5528	1184.741	1210.9821	1216.6489	1275.7928	1322.2623	1336.5406	1372.952	1381.7327	1418.6386	1446.9932	1470.4556	1491.5469	1500.3274	3024.0033	3085.1452	3099.1636	3117.5993	3141.6752	3142.9105	3158.7114	3172.265	3263.8964	3748.7245
CC12C(O)C1OC1CC21	C[C@]12[C@@H](O)[C@H]1O[C@H]1C[C@@H]21	
InChI=1S/C7H10O2/c1-7-3-2-4(3)9-6(7)5(7)8/h3-6,8H,2H2,1H3	InChI=1S/C7H10O2/c1-7-3-2-4(3)9-6(7)5(7)8/h3-6,8H,2H2,1H3/t3-,4+,5+,6-,7+/m1/s1
