17
gdb 104387	2.24691	1.5302	1.32363	2.4291	64.11	-0.2412	-0.0305	0.2107	1043.3732	0.133797	-496.101971	-496.092772	-496.091828	-496.136164	33.139	
O	 0.0094210131	 1.398246378	 0.0958871614	-0.423145
C	 0.0382661757	-0.01748958	 0.1069792728	-0.12275
C	-1.4068433216	-0.506002642	-0.0589292784	 0.278239
O	-1.9402277951	-0.1105318508	-1.2958436471	-0.481137
C	-1.4998845669	-2.0201720312	 0.1556565056	-0.137966
O	-1.5461250957	-2.1896871425	 1.574944929	-0.256416
C	-2.3597454618	-1.1609305575	 2.1148360515	-0.182448
C	-2.2950124218	-0.015912879	 1.1073447792	 0.332965
O	-2.8883980245	 1.0270867616	 1.1377066598	-0.310689
H	 0.9125549637	 1.7253844275	 0.0623812459	 0.295907
H	 0.6161412753	-0.4185532308	-0.7394892445	 0.103042
H	 0.4643635524	-0.4174212713	 1.0395051465	 0.102904
H	-2.0706562492	 0.8455665658	-1.2354080382	 0.298457
H	-2.4082910973	-2.4001219376	-0.3343479524	 0.114215
H	-0.6357937192	-2.5786845845	-0.2116320317	 0.117708
H	-3.4090020018	-1.477411092	 2.2275339512	 0.129663
H	-1.9814853051	-0.8728038036	 3.1005321694	 0.141451
52.3406	127.2579	161.9663	190.8341	207.1198	248.7294	287.0944	336.5642	365.7414	451.4258	506.3561	577.3919	631.3705	675.9332	704.9513	874.3273	945.612	979.1205	992.1785	1067.3765	1077.9388	1094.3427	1103.9826	1161.1431	1200.4155	1211.7478	1236.6875	1266.0774	1289.9866	1322.7827	1377.7937	1408.7417	1442.2258	1474.5253	1508.7371	1514.0075	1867.0507	2978.4165	2986.6081	3006.2504	3020.2693	3082.6294	3103.6917	3769.5675	3840.8655
OCC1(O)COCC1=O	OC[C@@]1(O)COCC1=O	
InChI=1S/C5H8O4/c6-2-5(8)3-9-1-4(5)7/h6,8H,1-3H2	InChI=1S/C5H8O4/c6-2-5(8)3-9-1-4(5)7/h6,8H,1-3H2/t5-/m1/s1
