19
gdb 78260	2.42247	1.65319	1.28663	3.0062	75.56	-0.2092	0.0609	0.2701	1057.1509	0.158528	-422.940954	-422.932665	-422.931721	-422.973253	33.212	
C	-0.0244252915	 1.4735819038	 0.0076692318	-0.485631
C	-0.0461378156	-0.0298063421	 0.0146841872	 0.293112
C	-0.9007543956	-0.8185920189	 0.940713289	 0.018322
O	-1.9171367872	-1.7290035711	 0.5675234109	-0.428928
C	 0.5791277932	-1.0441803409	 1.0164955675	-0.174101
C	 1.2826391434	-1.7734116811	-0.1563740692	-0.142786
C	 0.4641283994	-2.2664680132	-1.3241386842	 0.139005
O	-0.682438453	-3.0317426859	-1.3769126246	-0.444879
C	 0.6490354423	-0.7843738606	-1.1624848325	-0.200639
H	 0.9816370515	 1.8531745872	-0.2043268984	 0.122395
H	-0.6945241653	 1.8677662771	-0.7668076216	 0.127986
H	-0.3440727842	 1.8856839188	 0.9696383958	 0.116858
H	-1.2311822933	-0.193530289	 1.7723376632	 0.101584
H	-1.9696080618	-2.4030976006	 1.255935107	 0.296266
H	 1.1149582425	-0.8365959467	 1.9365373105	 0.087391
H	 2.3331175611	-2.0234255535	-0.0599356005	 0.087238
H	 1.1472262533	-2.6235712331	-2.0948447447	 0.106542
H	-1.3385241625	-2.6215962563	-0.7876741843	 0.295287
H	 1.1595043932	-0.1874134241	-1.9107751831	 0.084978
115.7359	196.7688	210.2611	251.153	287.3078	310.7751	348.8394	421.1387	543.0014	580.9545	583.2363	650.3056	687.8355	703.0337	731.1844	763.4703	834.1509	911.3806	922.2517	961.3258	979.9618	1001.8803	1014.4141	1038.2056	1081.0746	1086.8051	1101.6289	1162.2095	1210.0772	1228.058	1272.1997	1292.2028	1297.9711	1345.2749	1360.3114	1413.4078	1419.1368	1478.1911	1484.2935	1501.4109	1509.9889	3018.8685	3077.0903	3088.4564	3102.1662	3116.3862	3157.4708	3162.8994	3174.7631	3606.5286	3788.4204
CC12C(O)C1C1C(O)C21	C[C@]12[C@@H](O)[C@H]1[C@H]1[C@@H](O)[C@@H]21	
InChI=1S/C7H10O2/c1-7-3-2(5(3)8)4(7)6(7)9/h2-6,8-9H,1H3	InChI=1S/C7H10O2/c1-7-3-2(5(3)8)4(7)6(7)9/h2-6,8-9H,1H3/t2-,3-,4+,5+,6-,7+/m0/s1
