20
gdb 60817	2.40491	1.29548	1.06785	2.5567	76.33	-0.2356	-0.024	0.2116	1217.2489	0.168576	-440.257161	-440.247496	-440.246552	-440.29203	35.438	
C	-0.1310642924	 1.6223149181	 0.1887069198	-0.424344
C	-0.0010464993	 0.0944104827	 0.1422328995	 0.029947
C	-1.3825241194	-0.570978738	-0.0186830325	 0.053533
O	-2.0739148894	-0.0846962674	-1.1379174226	-0.440035
C	-1.2081359351	-2.0761420995	-0.1347613886	 0.158561
O	-1.7191054504	-2.7025104681	-1.0313687437	-0.274544
N	 0.8659869464	-0.5057052949	-0.8801829706	-0.075626
C	 0.9705704985	 0.0778481794	-2.2104062855	-0.210878
C	 2.1268193177	 0.108485335	-1.2702989901	-0.238712
H	 0.8429067961	 2.1109957451	 0.2790481758	 0.117394
H	-0.644681215	 2.0054819894	-0.6953359969	 0.147966
H	-0.7218826214	 1.9105104735	 1.0639562382	 0.120748
H	 0.4046914554	-0.2470760609	 1.1051587449	 0.082878
H	-1.9637550375	-0.3824508401	 0.9034533164	 0.086591
H	-2.3000158927	-0.8731164722	-1.658294739	 0.294983
H	-0.6141665951	-2.5665766945	 0.6609017922	 0.096586
H	 0.9446491437	-0.6325609047	-3.0319063861	 0.120828
H	 0.4665395844	 1.018489031	-2.4101074709	 0.122926
H	 2.3969192762	 1.0733010891	-0.8475616063	 0.112483
H	 2.9595426493	-0.5793905829	-1.390019884	 0.118716
59.1508	77.4159	119.4728	207.6582	211.7583	261.2047	281.49	314.9977	344.8193	382.6866	481.9809	500.5328	646.2949	697.6036	758.224	812.9744	832.622	900.0628	925.7643	952.5319	999.1549	1016.3105	1034.8888	1088.3279	1115.7168	1120.7905	1134.8867	1169.6	1185.4088	1192.1274	1254.9692	1323.4022	1339.2933	1345.8252	1373.7668	1398.371	1404.1955	1440.3613	1481.6366	1494.4526	1510.3159	1522.7134	1813.3425	2931.2823	2949.6323	3008.3864	3048.1122	3103.3183	3109.6059	3117.6526	3138.4647	3182.9209	3204.4841	3673.1493
CC(C(O)C=O)N1CC1	C[C@@H]([C@@H](O)C=O)N1CC1	
InChI=1S/C6H11NO2/c1-5(6(9)4-8)7-2-3-7/h4-6,9H,2-3H2,1H3	InChI=1S/C6H11NO2/c1-5(6(9)4-8)7-2-3-7/h4-6,9H,2-3H2,1H3/t5-,6-/m0/s1
