15
gdb 92672	3.38369	1.24149	0.93298	2.7997	78.03	-0.2505	-0.0663	0.1842	1188.4032	0.111407	-420.626732	-420.618465	-420.617521	-420.659749	30.881	
O	 0.1820550563	 1.3117751131	 0.363129295	-0.43725
C	-0.0043682368	-0.0375222039	 0.0276050579	 0.059732
C	-1.4768891173	-0.4614383793	-0.0899047842	-0.290289
C	-1.4869027427	-1.3630461531	-1.2959431991	-0.161549
C	-0.3402524848	-1.3324676734	-2.0095616517	 0.069409
C	-0.0407309893	-2.0133948122	-3.2110812014	 0.239293
C	 0.2525253781	-2.5826225127	-4.2303410913	-0.403741
C	 0.5894246397	-0.3684183506	-1.3492154453	 0.259199
O	 1.5963669739	 0.1371596794	-1.7823533587	-0.329629
H	 0.9988003672	 1.5822969324	-0.0811753858	 0.294571
H	 0.4998650087	-0.7020147683	 0.7521664951	 0.101351
H	-1.8660352414	-0.9600543744	 0.8034004814	 0.125217
H	-2.0999592439	 0.4258532285	-0.2586017202	 0.147855
H	-2.3508244735	-1.9600664813	-1.5657903301	 0.12534
H	 0.5090260757	-3.0824834644	-5.1316087218	 0.20049
69.9151	130.2693	169.2903	245.1102	297.1388	385.4294	402.2377	429.4229	472.4497	532.7569	605.0254	625.9834	641.5296	654.9283	740.7792	814.3039	875.083	943.0539	965.6521	1020.3617	1036.4056	1135.7677	1179.0505	1217.8879	1247.9052	1304.078	1310.2768	1364.8523	1413.9354	1471.5929	1644.1749	1821.3481	2233.0976	2943.1169	3038.9151	3080.6018	3203.3975	3501.2605	3733.787
OC1CC=C(C#C)C1=O	O[C@H]1CC=C(C#C)C1=O	
InChI=1S/C7H6O2/c1-2-5-3-4-6(8)7(5)9/h1,3,6,8H,4H2	InChI=1S/C7H6O2/c1-2-5-3-4-6(8)7(5)9/h1,3,6,8H,4H2/t6-/m0/s1
