20
gdb 64139	3.29932	1.02987	0.97016	5.5206	79.37	-0.2776	0.0386	0.3162	1299.7797	0.17114	-403.187169	-403.178075	-403.177131	-403.221255	34.778	
C	-0.2233384902	 1.5468439324	-0.0163712432	-0.455008
C	 0.0686713546	 0.0473945639	-0.0078711263	 0.396353
O	-1.1570236309	-0.6946767603	 0.041441382	-0.469736
C	 0.9168741344	-0.4340252685	-1.2068084635	-0.249367
C	 1.4847650431	-1.7749716535	-0.7331955622	-0.215179
C	 1.925880023	-1.4484574082	 0.7173172802	-0.136033
C	 0.8672639698	-0.4236037883	 1.2363024094	-0.243343
C	 2.0744795797	-2.6250369833	 1.5671350629	 0.262802
N	 2.1918260363	-3.5596591681	 2.2374666344	-0.330047
H	 0.7002959002	 2.1339782754	 6.7105*^-6	 0.116317
H	-0.7800150852	 1.8285551857	-0.9183666643	 0.108132
H	-0.8268821252	 1.8217144928	 0.8535049721	 0.130326
H	-1.6834525316	-0.4475363606	-0.7269506708	 0.276031
H	 0.3210160431	-0.5126814919	-2.1216023213	 0.092686
H	 1.7296402522	 0.2769535268	-1.4026160415	 0.09784
H	 0.6924047587	-2.5274802121	-0.7152136413	 0.134052
H	 2.3082658284	-2.1542873094	-1.3417807668	 0.110704
H	 2.9048342096	-0.9566122851	 0.6761266161	 0.120724
H	 1.3565391347	 0.4104022295	 1.7435676476	 0.109918
H	 0.1737640755	-0.8850280774	 1.940431956	 0.142826
34.8417	145.9408	174.493	251.5373	266.5099	312.9991	316.4563	361.5072	413.3669	438.9243	510.2031	541.7944	563.6681	600.0881	753.152	809.7856	863.354	905.5918	927.8189	943.8978	982.613	1026.886	1035.4477	1054.548	1067.2037	1121.2512	1176.8347	1199.6814	1223.1639	1265.3078	1296.1703	1309.736	1320.2418	1344.4409	1367.9097	1383.1186	1409.2807	1478.3695	1481.2863	1491.4752	1495.4217	1496.6779	2356.3647	3025.1766	3031.064	3037.3771	3071.433	3079.7759	3085.4374	3093.7388	3115.4558	3125.5399	3136.1313	3801.1253
CC1(O)CCC(C1)C#N	C[C@@]1(O)CC[C@@H](C1)C#N	
InChI=1S/C7H11NO/c1-7(9)3-2-6(4-7)5-8/h6,9H,2-4H2,1H3	InChI=1S/C7H11NO/c1-7(9)3-2-6(4-7)5-8/h6,9H,2-4H2,1H3/t6-,7+/m0/s1
