14
gdb 129070	3.90866	1.16053	0.89522	7.9584	75.31	-0.2331	-0.0721	0.161	1202.5569	0.101568	-432.890709	-432.883023	-432.882079	-432.923057	28.52	
N	-0.0085694496	 0.9466767064	 0.1372417616	-0.592893
H	 0.0094806471	-0.0298869368	-0.1095178644	 0.263417
H	 0.822665069	 1.4561890757	-0.11658032	 0.265785
C	-1.2081548662	 1.6058058385	 0.064561607	 0.339342
C	-1.28022719	 3.0122225104	 0.0392222499	-0.019321
N	-2.4128671422	 3.7054313211	 0.013252863	-0.190037
N	-3.5840640057	 3.0839191204	 0.0106535588	-0.252005
C	-3.5892059882	 1.743273917	 0.0335947609	 0.262586
C	-4.9210800334	 1.0574381569	 0.0277548173	 0.123506
O	-5.9901371529	 1.6044432166	 0.0023752725	-0.234252
C	-2.4412641389	 0.9572072092	 0.0596869104	-0.256878
H	-0.3703593482	 3.6085184884	 0.040128031	 0.113111
H	-4.8374595057	-0.0548949147	 0.0498823216	 0.068364
H	-2.5146921953	-0.1268003091	 0.0768651505	 0.109273
83.1013	199.8217	208.3283	223.1409	355.1311	391.5903	414.3311	450.4244	457.3331	545.1906	588.047	696.6552	769.6436	805.5156	898.9236	929.6679	982.0344	1030.8369	1031.8748	1075.2338	1159.7982	1171.905	1253.1826	1366.0139	1418.2644	1435.6985	1487.2621	1572.6697	1625.0632	1661.7667	1833.6848	2851.9397	3154.1756	3163.6125	3591.3063	3699.8738
[NH2+]=C1C=N[N-]C(C=O)=C1	Nc1cnnc(C=O)c1	
InChI=1S/C5H4N3O/c6-4-1-5(3-9)8-7-2-4/h1-3H,(H-,6,8)/q-1/p+1	InChI=1S/C5H5N3O/c6-4-1-5(3-9)8-7-2-4/h1-3H,(H2,6,8)
