20
gdb 73205	2.39386	1.75385	1.45805	2.344	78.75	-0.2432	0.0337	0.2769	1014.9849	0.172343	-403.161287	-403.153238	-403.152294	-403.193749	31.539	
C	-0.0789013587	 1.5210717157	-0.0033867134	-0.451222
C	-0.0214713427	 0.00869473	 0.0539779088	 0.398887
C	-1.2881950963	-0.7979748507	 0.4454658693	-0.251077
C	-0.3828190639	-1.769373895	 1.2510600997	-0.248073
C	 0.7407932041	-0.6932704104	 1.214359027	-0.043115
C	 2.1774490917	-1.095444437	 0.9121306729	-0.190645
N	 2.3998270729	-1.5366151653	-0.4596640712	-0.268174
C	 1.5639031619	-1.1888397044	-1.3407230179	 0.122303
O	 0.4262054229	-0.4599337437	-1.2404796672	-0.279251
H	 0.9204837295	 1.9430581508	-0.1527087558	 0.124728
H	-0.7134924141	 1.8502824348	-0.832154333	 0.128971
H	-0.4879631727	 1.9229172805	 0.9285130777	 0.115277
H	-1.9500472562	-0.2144994842	 1.0914211175	 0.101319
H	-1.8630757409	-1.2004434797	-0.390554074	 0.10908
H	-0.7326283105	-2.081609929	 2.2368758653	 0.099358
H	-0.1149483401	-2.6599542652	 0.6764785443	 0.118498
H	 0.6956856814	-0.0668212461	 2.1106835154	 0.073843
H	 2.8525585988	-0.2502398134	 1.1073848059	 0.111005
H	 2.5000659357	-1.8982021215	 1.5866180178	 0.10962
H	 1.7050584872	-1.4830972862	-2.3799630392	 0.118668
82.6396	136.7534	211.2814	235.7304	322.708	357.6234	382.0685	484.3114	508.3904	592.0598	615.3818	700.9164	763.8397	845.0279	866.5015	874.0874	915.3988	934.9529	954.0666	964.7796	988.526	1034.2336	1088.9706	1126.5248	1157.7533	1173.2706	1185.9496	1205.3467	1239.3351	1251.889	1260.5271	1276.7025	1328.2503	1340.0817	1379.6271	1412.2676	1418.1329	1470.447	1478.8742	1483.5456	1491.6959	1491.8291	1733.4366	3005.6681	3034.911	3041.2663	3057.415	3064.0326	3066.7384	3106.5905	3112.8396	3115.2642	3130.0819	3149.3971
CC12CCC1CN=CO2	C[C@]12CC[C@H]1CN=CO2	
InChI=1S/C7H11NO/c1-7-3-2-6(7)4-8-5-9-7/h5-6H,2-4H2,1H3	InChI=1S/C7H11NO/c1-7-3-2-6(7)4-8-5-9-7/h5-6H,2-4H2,1H3/t6-,7-/m0/s1
