23
gdb 92093	2.6489	1.39972	1.01639	0.1923	91.01	-0.233	0.0248	0.2578	1258.3999	0.208095	-351.158407	-351.149943	-351.148999	-351.191078	34.319	
C	-0.5717501138	 1.4426523862	 0.040586335	-0.398689
C	 0.035379225	 0.026666573	 0.0186818024	-0.009477
C	 0.720249467	-0.2491615624	-1.3336021039	-0.227238
C	 1.1603542861	-1.6892636991	-1.487746863	 0.006349
C	 2.4502273307	-2.0577058979	-2.1830122428	-0.329788
C	 2.3328009184	-2.1830128534	-0.6820829976	 0.018324
C	 3.0458344475	-1.212128113	 0.2482541498	-0.288571
C	 2.1591260724	-0.6515395655	 1.3433395651	-0.082602
C	 0.921296994	-0.1628892945	 1.2327593424	-0.01547
H	 0.2091491368	 2.2030200842	-0.0723381895	 0.1162
H	-1.2908997768	 1.5727459796	-0.7748345658	 0.108763
H	-1.0926481413	 1.6391018182	 0.983310158	 0.110436
H	-0.8044113694	-0.6813739736	 0.1164588376	 0.078203
H	 0.0261599935	 0.0135249899	-2.1423679675	 0.088861
H	 1.5767479177	 0.4264816805	-1.4435777439	 0.094584
H	 0.3383376059	-2.3914417084	-1.6070758056	 0.07569
H	 2.477652648	-2.9612341271	-2.7826554221	 0.106406
H	 3.0620199249	-1.2495706239	-2.5735419682	 0.105455
H	 2.2465728064	-3.1914337482	-0.2871987509	 0.079313
H	 3.9040023805	-1.7163814244	 0.7063655335	 0.097363
H	 3.4799135245	-0.3896835405	-0.3347231282	 0.109399
H	 2.5970815571	-0.6508767983	 2.3399110879	 0.080605
H	 0.451983405	 0.1795030686	 2.1558243474	 0.075884
85.1073	179.4254	232.0688	261.0768	296.8626	313.1747	348.937	387.9036	429.4744	528.0217	584.0167	662.6794	731.3493	803.4127	815.6369	823.9508	863.098	907.5005	921.2688	941.2532	976.9749	1000.6958	1017.4508	1025.8565	1052.2413	1071.0994	1084.5993	1121.5327	1136.4434	1143.3186	1181.3723	1228.9127	1249.3992	1249.8572	1283.9422	1300.2273	1333.7691	1354.0882	1373.9949	1394.1807	1404.3705	1426.3182	1436.6885	1479.1131	1490.2103	1495.2044	1499.4692	1503.8715	1721.7631	2962.092	3015.6792	3022.1312	3028.1282	3053.2517	3060.8152	3097.2333	3099.4732	3109.6309	3121.8787	3126.7162	3141.5594	3144.8016	3206.6192
CC1CC2CC2CC=C1	C[C@H]1C[C@H]2C[C@H]2CC=C1	
InChI=1S/C9H14/c1-7-3-2-4-8-6-9(8)5-7/h2-3,7-9H,4-6H2,1H3	InChI=1S/C9H14/c1-7-3-2-4-8-6-9(8)5-7/h2-3,7-9H,4-6H2,1H3/t7-,8-,9+/m1/s1
