13
gdb 48229	2.83333	1.37113	0.93642	4.4261	69.9	-0.2818	-0.0836	0.1982	1147.271	0.088864	-448.949097	-448.940441	-448.939497	-448.983653	29.426	
N	-0.0030073945	 1.308364611	-0.0228320212	-0.45277
C	-0.0038844054	 0.0475725468	 0.0763911709	 0.114091
N	-1.2119696816	-0.6864538154	-0.0157466937	-0.176216
C	-2.4428595408	 0.0003793431	-0.0820360647	 0.170274
O	-3.5016891847	-0.5454582093	-0.2365035897	-0.273787
C	-1.1365036647	-2.0884567747	-0.0563441484	 0.338512
N	-0.0150143269	-2.6639178297	-0.242561888	-0.491873
C	-2.3480455665	-2.8536859768	 0.1643979971	 0.255095
N	-3.1629798012	-3.6507315215	 0.3610499607	-0.32297
H	 0.9393110756	 1.6733410433	 0.0994555334	 0.249701
H	 0.8518633806	-0.6066860588	 0.2358885833	 0.163739
H	-2.2922389629	 1.0815517028	 0.0192980613	 0.163832
H	-0.1123380572	-3.6764662307	-0.204068711	 0.26237
29.8937	89.7561	172.8819	194.604	231.7519	261.7017	292.6449	351.5421	442.6063	475.1822	618.7839	705.7732	732.8641	802.8504	832.7669	881.501	1021.1432	1049.8593	1084.0373	1137.3462	1198.8086	1327.3837	1366.6425	1414.998	1441.0123	1671.4083	1729.6893	1827.0429	2343.4099	3085.7223	3148.284	3517.8415	3524.9128
N=CN(C=O)C(=N)C#N	N=CN(C=O)C(=N)C#N	
InChI=1S/C4H4N4O/c5-1-4(7)8(2-6)3-9/h2-3,6-7H	InChI=1S/C4H4N4O/c5-1-4(7)8(2-6)3-9/h2-3,6-7H
