19
gdb 109551	2.18388	1.47679	0.97678	2.714	74.75	-0.22	0.0372	0.2571	1222.2742	0.157705	-456.323343	-456.313023	-456.312079	-456.359591	35.808	
C	-0.1463277418	 1.3147999071	 0.6720026072	-0.338162
N	-0.0777984712	-0.0549315748	 0.2330044288	-0.06191
C	-1.1349185713	-1.0401380545	-0.04191257	-0.012516
C	-2.1135454212	-0.6565354149	-1.1363143775	-0.077693
O	-2.9115118686	 0.4087673347	-0.6319898794	-0.429214
C	 0.0154395365	-2.0120785255	-0.476142574	 0.029318
O	-0.0495817355	-2.5113455242	-1.7888094838	-0.433549
C	 0.9466727784	-0.8194343156	-0.2728871764	 0.328691
N	 2.1725772903	-0.6907566902	-0.5763083834	-0.58516
H	 0.8720641977	 1.6934169837	 0.799846568	 0.128698
H	-0.676738771	 1.9511034906	-0.0445491777	 0.137756
H	-0.6627503745	 1.3868397877	 1.6360692203	 0.133948
H	-1.6876717311	-1.3388386639	 0.8572550843	 0.082017
H	-1.5607437454	-0.3612162029	-2.0376619548	 0.096369
H	-2.7226976327	-1.5364372031	-1.3926097938	 0.103237
H	-3.523452358	 0.6788535582	-1.3228281125	 0.29061
H	 0.1755824142	-2.8214846261	 0.2467382866	 0.09658
H	 0.8097967309	-2.3290379585	-2.1884829154	 0.302164
H	 2.5224579044	 0.2530165122	-0.4062308666	 0.208816
40.8679	72.6233	105.0439	118.9458	171.986	203.8474	255.7353	262.6705	296.1772	334.3836	422.9291	483.0534	562.3331	642.9787	777.4088	786.1807	806.2474	867.8932	915.8487	990.5537	1056.4701	1069.2472	1104.5845	1135.1145	1148.3419	1177.103	1218.7899	1242.8597	1251.1875	1274.0711	1284.9991	1368.3373	1370.3869	1378.4704	1425.4282	1457.7299	1461.4674	1474.0755	1508.926	1518.6737	1785.1583	2992.6236	3022.7931	3024.8146	3033.5988	3048.1168	3080.3412	3111.0989	3466.6609	3785.238	3830.2397
CN1C(CO)C(O)C1=N	CN1[C@@H](CO)[C@@H](O)[C]1[NH]	
InChI=1S/C5H10N2O2/c1-7-3(2-8)4(9)5(7)6/h3-4,6,8-9H,2H2,1H3	InChI=1S/C5H10N2O2/c1-7-3(2-8)4(9)5(7)6/h3-4,6,8-9H,2H2,1H3/t3-,4+/m0/s1
