17
gdb 12321	3.09811	2.10124	1.30516	4.8492	73.44	-0.2075	-0.0249	0.1826	930.5555	0.143942	-363.90884	-363.901229	-363.900284	-363.940555	28.678	
C	-0.0804939052	 1.5220700751	-0.0043341781	-0.47877
C	-0.0160968203	 0.0194783281	-0.0011457578	 0.158828
C	-0.1416266552	-0.7200682641	-1.134177057	-0.062045
N	-0.0792520839	-2.0872042321	-1.1888388084	-0.289232
C	 0.5414872356	-2.7729289309	-0.0603870832	-0.181088
C	-0.0041743623	-2.191185572	 1.2414863434	-0.301459
C	 0.1213451099	-0.6637469274	 1.2853637513	 0.303347
O	 0.253003874	-0.0716811446	 2.343970083	-0.347211
H	 0.8433551085	 1.956854037	 0.3922438537	 0.133281
H	-0.2369094515	 1.9125753073	-1.0144763363	 0.102947
H	-0.8898572346	 1.8859706211	 0.6379207073	 0.132103
H	-0.3282881355	-0.2363274251	-2.0900147669	 0.110434
H	 0.0959976666	-2.4827342	-2.0990163378	 0.247599
H	 0.3322295257	-3.8438188724	-0.1347128943	 0.113112
H	 1.6361886311	-2.639307709	-0.0888834343	 0.107708
H	-1.0715391482	-2.434264273	 1.3349258002	 0.126518
H	 0.5075824653	-2.6136136781	 2.1088363853	 0.123928
113.8103	143.8917	201.7603	283.6917	305.5398	388.4488	421.1918	479.3893	515.5476	553.2694	642.5936	705.8258	769.9835	882.4296	918.4255	938.1597	1005.6527	1052.8288	1067.7953	1077.7188	1118.7184	1195.1732	1230.5033	1244.3445	1297.5828	1346.3385	1380.2034	1409.365	1420.2651	1456.3748	1471.8025	1496.0009	1498.7261	1521.4725	1685.6991	1751.0189	2962.8779	3026.0656	3030.8065	3081.2073	3084.4944	3106.5339	3114.3785	3161.5618	3623.6943
CC1=CNCCC1=O	CC1=CNCCC1=O	
InChI=1S/C6H9NO/c1-5-4-7-3-2-6(5)8/h4,7H,2-3H2,1H3	InChI=1S/C6H9NO/c1-5-4-7-3-2-6(5)8/h4,7H,2-3H2,1H3
