22
gdb 90401	2.19405	1.56393	1.30419	1.6459	82.81	-0.2242	0.0614	0.2855	1135.4668	0.192224	-404.310897	-404.301024	-404.30008	-404.344555	38.063	
C	-0.0866409307	 1.5528132599	-0.0352695631	-0.480576
C	 0.0129117349	 0.0395032632	 0.0811880168	 0.283004
C	-1.2263375325	-0.6515392319	-0.4661811667	-0.449859
N	 1.2365720365	-0.7166346449	-0.2974055109	-0.217258
C	 2.4198659633	 0.1184853059	 0.0955851224	-0.212239
C	 2.0220835902	 0.0554877246	 1.5946581909	 0.036678
O	 1.8315304165	 1.2299382985	 2.3594309091	-0.428752
C	 0.749295025	-0.6699562559	 1.1674161192	 0.301442
C	 0.2404071285	-1.8480943131	 1.9519017305	-0.505674
H	 0.6720494038	 2.0856371267	 0.5337671525	 0.143714
H	-0.0296533432	 1.8527601219	-1.0889074927	 0.112878
H	-1.0622915215	 1.8763109406	 0.3426357497	 0.116619
H	-1.4655478889	-0.2439334413	-1.4542650823	 0.116619
H	-1.0691051996	-1.7247691309	-0.5828318324	 0.128175
H	-2.0923283855	-0.4844754721	 0.1839421528	 0.112044
H	 3.3459861342	-0.4110656029	-0.1398113625	 0.101188
H	 2.4497208317	 1.1108712164	-0.361859048	 0.104536
H	 2.6775997419	-0.6426456387	 2.1323181822	 0.078545
H	 2.6899867618	 1.5241246346	 2.6802495078	 0.285037
H	-0.0640847903	-1.5131583077	 2.9509919192	 0.128483
H	-0.6204491843	-2.3296754208	 1.4856378032	 0.125749
H	 1.0237527181	-2.603641522	 2.0791107122	 0.119647
137.8201	150.8296	172.7154	205.5022	222.1977	237.2487	275.4833	311.7689	330.1528	379.9528	396.1534	434.7892	510.8401	565.2391	635.4902	659.6172	703.5402	820.7625	858.4989	941.1218	965.2642	971.2475	1005.1202	1040.6059	1061.3659	1081.0567	1120.1524	1144.2146	1150.1377	1168.2968	1215.3015	1236.2913	1280.3223	1287.5974	1327.9473	1401.0592	1408.2153	1417.0698	1421.3335	1445.8165	1481.4958	1485.3615	1488.6962	1491.9599	1504.7482	1513.5754	1518.7878	3007.3482	3029.3267	3029.5819	3035.7869	3059.7396	3084.3157	3087.6592	3094.9016	3111.1425	3130.6276	3139.8338	3168.5838	3815.1248
CC1(C)N2CC(O)C12C	CC1(C)N2C[C@@H](O)[C@@]12C	
InChI=1S/C7H13NO/c1-6(2)7(3)5(9)4-8(6)7/h5,9H,4H2,1-3H3	InChI=1S/C7H13NO/c1-6(2)7(3)5(9)4-8(6)7/h5,9H,4H2,1-3H3/t5-,7+,8?/m1/s1
