25
gdb 80613	2.02967	1.78048	1.42031	0.0488	91.28	-0.2827	0.0813	0.364	1122.4623	0.230283	-352.356047	-352.347086	-352.346142	-352.388567	37.012	
C	-0.1754686861	 1.5304617773	-0.0823443242	-0.417685
C	 0.0633264799	 0.0209897834	-0.0347170519	 0.003222
C	 1.0098283608	-0.5147801815	-1.1374455348	-0.010886
C	 1.217342264	-1.9901518238	-0.7018730262	-0.248112
C	 1.9446551326	-1.3165547385	 0.499841256	-0.025821
C	 2.4236935509	-0.2616305116	-0.5420595698	-0.239028
C	 0.7984415221	-0.5731031785	 1.2452631083	 0.322725
C	 1.3420404271	 0.4727048921	 2.2319693166	-0.441139
C	-0.1103527517	-1.5264969292	 2.0374582621	-0.445747
H	 0.7555039348	 2.1043306607	-0.0498156423	 0.112824
H	-0.6940836033	 1.8003075107	-1.0090167562	 0.108556
H	-0.8012583562	 1.8680239494	 0.7503583909	 0.111511
H	-0.9135092827	-0.4682937945	-0.1360659947	 0.062034
H	 0.7612035228	-0.2472090726	-2.1663928043	 0.049944
H	 0.3345821437	-2.6063871604	-0.5149610055	 0.085986
H	 1.9100612857	-2.5271103148	-1.3544914555	 0.09137
H	 2.6504528942	-1.8664118336	 1.1264213865	 0.049004
H	 3.2184662118	-0.6467982561	-1.1855202466	 0.092343
H	 2.6851446989	 0.743140996	-0.2037241362	 0.086776
H	 2.0128587919	 1.1988946756	 1.7682452317	 0.110588
H	 0.5285379831	 1.0312596257	 2.7066861683	 0.109722
H	 1.9017180585	-0.0257250662	 3.0318888574	 0.106594
H	 0.4392293688	-1.9973288991	 2.861173072	 0.105981
H	-0.9528015307	-0.9797305162	 2.4767064356	 0.108354
H	-0.527080281	-2.3239748843	 1.4170474529	 0.110885
158.848	185.883	225.0362	239.8677	244.316	282.0534	312.5794	369.4587	401.2578	487.2657	496.6402	527.4523	583.1129	707.8253	787.5178	819.7038	854.4284	860.7518	886.8369	930.5254	948.036	965.8312	982.8682	1006.3065	1031.5502	1038.5279	1044.9328	1070.554	1079.5542	1089.3284	1119.6177	1148.6019	1207.8701	1214.2073	1222.4225	1229.0202	1245.4369	1259.2569	1296.9359	1309.572	1337.5739	1379.2234	1401.5411	1410.8202	1426.2077	1480.984	1483.3675	1492.4913	1496.9974	1503.6642	1508.7903	1513.4106	1534.4872	3017.4068	3023.7031	3029.6637	3034.5947	3059.4448	3064.5525	3080.9812	3085.744	3089.7273	3092.8213	3094.6934	3103.4766	3106.8797	3114.2523	3118.1396	3124.9694
CC1C2CC(C2)C1(C)C	C[C@H]1[C@@H]2C[C@@H](C2)C1(C)C	
InChI=1S/C9H16/c1-6-7-4-8(5-7)9(6,2)3/h6-8H,4-5H2,1-3H3	InChI=1S/C9H16/c1-6-7-4-8(5-7)9(6,2)3/h6-8H,4-5H2,1-3H3/t6-,7-,8+/m0/s1
