14
gdb 80782	2.02694	1.85611	1.16933	4.7799	68.71	-0.2819	-0.0438	0.2381	1038.8444	0.099098	-436.634062	-436.626112	-436.625168	-436.666649	29.105	
C	-0.0889598411	 1.5472743049	 0.0175952426	-0.440487
C	-0.0361554773	 0.0303924757	-0.0162984218	-0.020551
C	 1.2435137845	-0.6415956596	-0.5975174749	-0.096742
O	 1.9841652395	-0.242055314	 0.6302645584	-0.31195
C	 0.6775435341	-0.6926091164	 1.1731611428	 0.167902
C	 0.4251127028	-0.5982692307	 2.5798661565	 0.180687
N	 0.1768413171	-0.5458572449	 3.7078786117	-0.332554
C	 0.8905081848	-1.9192252151	 0.2000667738	 0.460752
O	 0.9007908526	-3.0978006421	 0.1711133881	-0.281054
H	 0.871874278	 1.9658835574	 0.3214921969	 0.151833
H	-0.3459611081	 1.9366747548	-0.9720516971	 0.133362
H	-0.8566515784	 1.8848376296	 0.7199172582	 0.143546
H	-0.9838229499	-0.4244992155	-0.3214345964	 0.11126
H	 1.7405206313	-0.4975581543	-1.5527035688	 0.133996
112.9581	144.0855	169.0758	224.5875	245.3048	311.2964	394.8131	511.7981	539.424	558.7306	614.0265	752.7205	772.4124	786.3689	808.8492	875.001	923.2934	984.634	1054.9112	1067.491	1108.0495	1168.8858	1202.6681	1215.3504	1294.6048	1388.4283	1407.5437	1493.1823	1500.122	1957.2161	2354.0761	3049.8252	3070.4738	3114.1212	3145.6795	3176.8528
CC1C2OC1(C#N)C2=O	C[C@H]1[C@H]2O[C@]1(C#N)C2=O	
InChI=1S/C6H5NO2/c1-3-4-5(8)6(3,2-7)9-4/h3-4H,1H3	InChI=1S/C6H5NO2/c1-3-4-5(8)6(3,2-7)9-4/h3-4H,1H3/t3-,4+,6-/m0/s1
