16
gdb 57142	4.2569	0.70472	0.65017	4.122	83.66	-0.2878	-0.0522	0.2357	1672.0628	0.123304	-400.713121	-400.703987	-400.703043	-400.748	32.59	
O	-0.3343844206	 1.342885158	 0.0171366184	-0.406918
C	-0.1162829813	-0.0605031761	 0.0296266383	-0.092101
C	 0.618612182	-0.494816392	-1.164361784	 0.103406
C	 1.2506883997	-0.8352803756	-2.1366833847	 0.025413
C	 1.9611521575	-1.2212772268	-3.2368836675	 0.20918
N	 2.5675284887	-1.5494727591	-4.1718000928	-0.332218
C	 0.5743657574	-0.5582728515	 1.2997512606	 0.013828
C	 1.6207831118	 0.2721689671	 1.9929278839	-0.267086
C	 0.2592714194	 0.0886362827	 2.6197104978	-0.274822
H	 0.5035437281	 1.7759791075	-0.1804663339	 0.296323
H	-1.1212677302	-0.500360013	-0.0126817038	 0.138554
H	 0.7279995745	-1.6332489317	 1.2985759032	 0.104792
H	 2.4728831955	-0.2407887178	 2.4232928652	 0.12311
H	 1.8519619433	 1.2552063169	 1.5965783153	 0.106122
H	-0.4058278113	 0.9441461014	 2.6027931789	 0.133336
H	 0.1668028256	-0.5487753198	 3.4914452649	 0.119083
47.4688	76.0592	121.5522	198.9829	242.133	259.5303	306.2121	331.2273	405.1432	520.2027	568.5133	592.2994	607.7992	737.237	779.6759	807.9067	840.1159	944.7265	974.9356	1032.4573	1060.6197	1087.9194	1121.6585	1138.9956	1163.0218	1196.6185	1229.8141	1265.5709	1307.7744	1387.1902	1416.4954	1459.4168	1503.3297	2261.3013	2398.6235	3030.4662	3137.0018	3143.868	3156.6092	3217.7403	3236.3979	3809.5139
OC(C#CC#N)C1CC1	O[C@@H](C#CC#N)C1CC1	
InChI=1S/C7H7NO/c8-5-1-2-7(9)6-3-4-6/h6-7,9H,3-4H2	InChI=1S/C7H7NO/c8-5-1-2-7(9)6-3-4-6/h6-7,9H,3-4H2/t7-/m0/s1
