14
gdb 61335	6.702	0.55675	0.52573	0.8137	74.62	-0.2767	-0.073	0.2037	1923.4034	0.097832	-436.662642	-436.652821	-436.651877	-436.699546	32.251	
O	-0.0731675219	 1.4398745937	 0.0352436049	-0.39581
C	 0.0199490378	 0.0355496149	 0.0310314084	-0.006978
C	 0.6680579229	-0.5291600065	-1.2613593003	-0.389417
C	-0.0563654252	-0.1377593477	-2.458024228	 0.079789
C	-0.6572053563	 0.1775272461	-3.4562379115	 0.071064
C	-1.3968665353	 0.5734177641	-4.6296166729	 0.020133
O	-1.0384541846	 0.3609607888	-5.7642966058	-0.22223
C	 0.7544649984	-0.4662237796	 1.2112442469	 0.255861
N	 1.360338347	-0.8405208967	 2.1209433766	-0.303774
H	 0.8164113392	 1.8120937602	 0.0618984233	 0.300805
H	-1.011448868	-0.3261450454	 0.0911971323	 0.157965
H	 1.7083235169	-0.1837462272	-1.3207509018	 0.156531
H	 0.713365826	-1.6231594055	-1.1919561569	 0.169491
H	-2.3454008867	 1.1028366807	-4.4087666452	 0.10657
26.3663	53.7169	63.8216	161.554	174.4398	188.0367	242.636	331.9818	358.4082	403.2059	462.4393	544.5636	588.9642	614.4808	834.8512	855.4509	933.4274	1018.6488	1021.8532	1099.6783	1158.382	1192.5034	1279.9724	1319.0549	1359.4828	1420.3786	1422.4508	1451.748	1770.5821	2336.907	2357.8753	2926.476	3028.3432	3063.0274	3080.6841	3796.9221
OC(CC#CC=O)C#N	O[C@@H](CC#CC=O)C#N	
InChI=1S/C6H5NO2/c7-5-6(9)3-1-2-4-8/h4,6,9H,3H2	InChI=1S/C6H5NO2/c7-5-6(9)3-1-2-4-8/h4,6,9H,3H2/t6-/m0/s1
