14
gdb 16600	3.38476	2.36618	1.54159	3.7801	63.17	-0.2465	-0.078	0.1684	790.4178	0.108502	-378.718965	-378.712533	-378.711589	-378.74968	24.532	
N	-0.0746043703	 1.224461176	-0.3698437285	-0.468454
C	-0.0235454861	 0.0013778818	-0.051470659	 0.247678
N	-1.1581319584	-0.8061717624	 0.2009987965	-0.112178
C	-1.3897470483	-1.8462655405	-0.830308106	-0.247146
C	-0.6785615985	-2.2021842913	 0.418713958	-0.032597
C	 0.8392884751	-2.2594515839	 0.4176315483	-0.367719
C	 1.2559650659	-0.8223617364	 0.1084109777	 0.348486
O	 2.3661226154	-0.3785053164	-0.0162856678	-0.296968
H	 0.8891204614	 1.5617671612	-0.4731903504	 0.242662
H	-2.4322851364	-2.1159527517	-0.9637800126	 0.140059
H	-0.814939958	-1.7776015127	-1.7515702406	 0.130551
H	-1.2133774774	-2.7414758191	 1.1935000859	 0.113385
H	 1.2394380705	-2.5478206781	 1.3951427263	 0.151977
H	 1.263448375	-2.9472120263	-0.3202377878	 0.150262
85.7205	212.3265	322.4535	352.3646	415.6782	514.3651	603.2173	643.9001	706.7099	709.8706	795.2646	840.5151	901.7815	924.2225	959.4017	1022.654	1061.4563	1073.792	1116.884	1140.8724	1165.8284	1174.0121	1259.5191	1278.1135	1366.1508	1391.296	1444.0334	1508.5302	1737.0882	1847.2311	3058.7886	3098.617	3109.6421	3164.7886	3204.3257	3415.6186
N=C1N2CC2CC1=O	[NH][C]1N2C[C@H]2CC1=O	
InChI=1S/C5H6N2O/c6-5-4(8)1-3-2-7(3)5/h3,6H,1-2H2	InChI=1S/C5H6N2O/c6-5-4(8)1-3-2-7(3)5/h3,6H,1-2H2/t3-,7?/m1/s1
