23
gdb 63738	3.18983	1.13556	1.11452	0.1087	92.78	-0.2193	0.0275	0.2469	1273.3324	0.205422	-351.164797	-351.155662	-351.154718	-351.19829	36.541	
C	 0.4202921014	 1.3347819183	-0.1195198078	-0.416644
C	-0.1541791393	-0.0908072713	 0.0178455021	 0.267362
C	-1.6849151986	-0.0189897408	 0.1400995853	-0.428492
C	 0.2942151082	-1.0024445751	-1.1708839366	-0.34833
C	 1.442083953	-1.8661933566	-0.6298654593	 0.353887
C	 1.867681422	-3.1493510067	-1.3030103726	-0.318058
C	 2.7910903517	-1.9598019742	-1.3195543004	-0.310679
C	 1.3523551844	-1.7342746276	 0.8478385322	-0.151153
C	 0.4825049973	-0.7919303428	 1.2075968603	-0.109291
H	 1.5054673156	 1.307949184	-0.2582150001	 0.116386
H	-0.0226597025	 1.8530869226	-0.9780026134	 0.106948
H	 0.2116088653	 1.9323699531	 0.7749857149	 0.107128
H	-2.1293044734	 0.4282324194	-0.7565714329	 0.109265
H	-2.1172817507	-1.016021478	 0.271484905	 0.112245
H	-1.9845122411	 0.5934616252	 0.9982512192	 0.10729
H	-0.5396393798	-1.64742633	-1.4708270469	 0.096236
H	 0.582602087	-0.41811083	-2.0501941136	 0.092073
H	 2.129658345	-3.9954987583	-0.6756211983	 0.109125
H	 1.3665051782	-3.4204741906	-2.2270978159	 0.109364
H	 2.9154590836	-1.4205460407	-2.2532622498	 0.110821
H	 3.6821071116	-1.9909021102	-0.7008288148	 0.109557
H	 1.9554186033	-2.3338580483	 1.5222740394	 0.090081
H	 0.2620674979	-0.4949209714	 2.2280983738	 0.084877
48.9298	170.2467	233.7087	244.4485	278.3252	292.3942	315.794	331.6758	397.7003	404.9524	491.9825	574.9128	644.7556	776.6291	784.5098	785.7842	821.9291	847.7977	907.5355	925.163	933.177	936.2518	962.8289	965.6258	982.8495	995.477	1035.1654	1056.7897	1073.8679	1112.0829	1148.9177	1191.0041	1200.4007	1242.2129	1260.2041	1298.3381	1307.1382	1315.156	1393.9455	1399.5746	1423.6494	1465.1781	1482.5305	1485.7545	1492.295	1498.6763	1501.1457	1508.1483	1678.8119	3018.9609	3022.9376	3033.0172	3076.658	3084.7175	3089.4045	3098.3681	3102.841	3119.1799	3123.8218	3168.083	3193.6208	3197.8296	3214.1145
CC1(C)CC2(CC2)C=C1	CC1(C)CC2(CC2)C=C1	
InChI=1S/C9H14/c1-8(2)3-4-9(7-8)5-6-9/h3-4H,5-7H2,1-2H3	InChI=1S/C9H14/c1-8(2)3-4-9(7-8)5-6-9/h3-4H,5-7H2,1-2H3
