20
gdb 85609	2.18747	1.59128	1.00643	3.7237	81.31	-0.2352	0.0093	0.2445	1213.8591	0.172566	-403.196091	-403.187422	-403.186478	-403.2296	33.282	
C	-1.1745583699	 0.7320284043	 0.1208314715	-0.427968
C	 0.2299844276	 0.1312955571	-0.0022297468	 0.002051
N	 0.7534864759	 0.4716291285	-1.3241512571	-0.296113
C	 1.949366716	 0.1045723829	-1.8725939349	 0.382185
O	 2.2658423576	 0.4372743815	-3.001049165	-0.373595
C	 2.8609338448	-0.7134149379	-0.969088526	-0.31828
C	 3.4339746322	 0.1174892733	 0.1912853811	-0.25402
C	 2.4404598185	 0.6029625653	 1.212579629	-0.06356
C	 1.110048865	 0.59676063	 1.1472638504	-0.03534
H	-1.131792379	 1.8259276436	 0.081788643	 0.131384
H	-1.8213618673	 0.3778116319	-0.6874029974	 0.124463
H	-1.6297925311	 0.4437364482	 1.0715919434	 0.129322
H	 0.1202600233	-0.9628878208	 0.064049373	 0.100563
H	 0.1754158496	 1.0353828449	-1.9303458417	 0.241475
H	 2.3245673865	-1.581814657	-0.5682662049	 0.112706
H	 3.6718701342	-1.0807659898	-1.5999077545	 0.123801
H	 4.1876194035	-0.4865566225	 0.7134552787	 0.112543
H	 3.9875844177	 0.9761913993	-0.2150151989	 0.128657
H	 2.8917247106	 0.998768902	 2.1211159556	 0.091677
H	 0.5589510345	 0.9569216155	 2.0135469514	 0.088048
54.8233	115.3999	191.4081	257.342	288.3083	330.7247	354.0882	364.2328	484.9727	499.2629	519.3338	599.2193	656.7191	733.1739	779.9352	795.9477	837.4341	886.7675	949.6328	1000.6006	1004.1009	1029.8657	1046.3136	1076.9329	1105.4263	1175.3763	1203.8869	1237.5102	1274.7554	1323.9994	1328.1733	1350.6876	1379.1875	1402.2027	1407.5617	1424.7755	1459.5789	1474.232	1483.7481	1497.2626	1503.1007	1732.9054	1787.3818	2965.4003	3008.8801	3031.0973	3038.265	3047.1991	3109.9153	3122.4399	3123.1094	3129.7177	3154.083	3609.1103
CC1NC(=O)CCC=C1	C[C@H]1NC(=O)CCC=C1	
InChI=1S/C7H11NO/c1-6-4-2-3-5-7(9)8-6/h2,4,6H,3,5H2,1H3,(H,8,9)	InChI=1S/C7H11NO/c1-6-4-2-3-5-7(9)8-6/h2,4,6H,3,5H2,1H3,(H,8,9)/t6-/m1/s1
