18
gdb 125524	5.39821	1.00062	0.91017	0.215	80.92	-0.2339	0.0041	0.238	1322.1463	0.149013	-398.12845	-398.120127	-398.119183	-398.162706	30.23	
C	 0.1818621666	 1.4730210414	-0.0343927555	-0.496652
C	 0.0319987961	-0.0130158228	 0.0234902861	 0.302825
N	 0.0484608431	-0.7694246683	-1.0816119871	-0.293402
N	-0.1094637682	-2.0097278206	-0.6284904999	 0.12311
N	-0.228426312	-2.1299482126	 0.685254164	-0.234829
C	-0.14115723	-0.8705176145	 1.1220227608	-0.129014
C	-0.1461369813	-3.1320504921	-1.5239950501	 0.099278
C	 0.4519511704	-4.4442949836	-1.1001873662	-0.277793
C	-1.0462533946	-4.2975555238	-1.2227706422	-0.277784
H	 1.0614983699	 1.8091038675	 0.5248464852	 0.133756
H	 0.2917331352	 1.7953944453	-1.0717752572	 0.143662
H	-0.6895359459	 1.9804327733	 0.3928906423	 0.133658
H	-0.2051694836	-0.6456649316	 2.1750150159	 0.11837
H	-0.029163151	-2.7885491718	-2.5424675439	 0.12476
H	 0.9906947478	-5.0163149732	-1.8470428224	 0.121551
H	 0.8613765875	-4.4841288672	-0.097985249	 0.143482
H	-1.6115885253	-4.2419120468	-0.3003134177	 0.143466
H	-1.5577451745	-4.7667158987	-2.0555429431	 0.121554
36.1133	58.0549	143.0649	179.7308	278.0193	305.9937	423.2596	452.8848	631.8797	693.8791	696.0862	710.9343	781.4551	816.9652	862.425	916.7199	949.7963	995.8478	1018.7485	1061.8519	1068.026	1068.1403	1084.7332	1091.8929	1124.1141	1200.7647	1208.8263	1222.8346	1276.1823	1351.9409	1402.1453	1408.5803	1431.7517	1445.1531	1451.9201	1485.6041	1498.3865	1499.8553	1560.3602	3038.965	3091.2031	3134.1826	3143.5728	3145.2923	3218.2568	3232.4627	3245.8772	3264.4186
CC1=NN(N=C1)C1CC1	Cc1nn(nc1)C1CC1	
InChI=1S/C6H9N3/c1-5-4-7-9(8-5)6-2-3-6/h4,6H,2-3H2,1H3	InChI=1S/C6H9N3/c1-5-4-7-9(8-5)6-2-3-6/h4,6H,2-3H2,1H3
