20
gdb 6969	2.42655	2.25111	1.60155	1.523	75.07	-0.2425	0.0138	0.2563	914.8322	0.176798	-349.02044	-349.012112	-349.011168	-349.052529	32.783	
C	-0.0270801321	 1.5093007015	 0.0629553067	-0.439669
C	 0.0046260039	-0.02746502	 0.0056184179	 0.286754
C	-1.4227062102	-0.5709134644	-0.112377669	-0.446873
C	 0.9255345441	-0.4788665173	-1.1698718657	-0.290682
C	 2.2612544818	-0.7304792024	-0.5139859014	-0.064864
C	 2.1598456749	-0.7980786114	 0.8115332968	-0.125389
C	 0.7364186543	-0.6019654148	 1.2756129534	 0.07702
O	 0.5969933304	 0.1669944681	 2.462510344	-0.433939
H	 0.9842665071	 1.9308680479	 0.1026845051	 0.105921
H	-0.5145628912	 1.9107044545	-0.8313213733	 0.111666
H	-0.5814751934	 1.8603032895	 0.9375128944	 0.122793
H	-1.9250289398	-0.1850401747	-1.0065391391	 0.107496
H	-1.4265817876	-1.6647571361	-0.1732820732	 0.109112
H	-2.0210723858	-0.2818047035	 0.7586127659	 0.122549
H	 0.5485820424	-1.4014581184	-1.6336921665	 0.103976
H	 0.9758739977	 0.2667989309	-1.9728310249	 0.09753
H	 3.1729536229	-0.8796111843	-1.0829659767	 0.094752
H	 2.9626114893	-1.0091203845	 1.5097132039	 0.096068
H	 0.2903554599	-1.5697061124	 1.5434041607	 0.087622
H	 1.1009173613	 0.9793105319	 2.345290141	 0.278158
76.0104	224.4441	256.8096	281.0342	304.9636	311.3614	343.6139	358.1381	416.3434	462.0018	548.2891	592.4394	708.1391	748.4005	801.0045	879.4963	931.7516	954.5012	967.5824	972.6608	984.5612	1028.6599	1032.9198	1078.9876	1128.6498	1147.3036	1199.3225	1226.8516	1251.3256	1260.8021	1312.486	1338.0316	1364.1323	1394.8431	1416.5129	1429.7461	1483.285	1490.1863	1497.0773	1505.5642	1517.3521	1686.2268	3006.2578	3008.8237	3022.9393	3028.758	3043.6811	3089.3873	3092.7788	3094.8204	3114.4919	3177.8191	3203.963	3807.7089
CC1(C)CC=CC1O	CC1(C)CC=C[C@H]1O	
InChI=1S/C7H12O/c1-7(2)5-3-4-6(7)8/h3-4,6,8H,5H2,1-2H3	InChI=1S/C7H12O/c1-7(2)5-3-4-6(7)8/h3-4,6,8H,5H2,1-2H3/t6-/m1/s1
