22
gdb 97200	2.35128	1.35679	0.91213	2.7021	86.35	-0.2376	0.0273	0.2649	1347.5397	0.194435	-404.379903	-404.370394	-404.36945	-404.414478	35.409	
C	 0.0122871133	 1.4650206841	 0.1512192942	-0.32439
N	 0.0094152376	 0.0126271962	 0.1210282031	-0.283458
C	-1.0741657759	-0.6151322086	-0.0525623231	 0.386616
C	-1.1069470753	-2.1260055369	-0.0308963602	-0.27069
C	-2.103010178	-2.7132310365	-1.0387276223	-0.227382
C	-3.4575915334	-2.0218293336	-0.8690289044	-0.198529
C	-3.2984098792	-0.5128889219	-1.0354206002	 0.143531
C	-4.5662977776	 0.2740173624	-0.7451173602	-0.399199
O	-2.2857821615	 0.0211925285	-0.1540108284	-0.277253
H	 0.8983852206	 1.8265158386	-0.3809551887	 0.116787
H	-0.8832911938	 1.9262080651	-0.279639475	 0.113198
H	 0.104844107	 1.8080556285	 1.1895964706	 0.12258
H	-0.0895425591	-2.4871337822	-0.1870265579	 0.124521
H	-1.4095156732	-2.4324546827	 0.9806079679	 0.117379
H	-1.7362437076	-2.5567726406	-2.0615614415	 0.104054
H	-2.1926811737	-3.7946948929	-0.8964220726	 0.100437
H	-4.1845073846	-2.3843008259	-1.6041537816	 0.100022
H	-3.8673879726	-2.2341665972	 0.1272300809	 0.101557
H	-2.9719623623	-0.3093261103	-2.0674183333	 0.080271
H	-4.9043471432	 0.0905497926	 0.2794517964	 0.125254
H	-4.3865841864	 1.3460568799	-0.8604195689	 0.127823
H	-5.3637048912	-0.0212675966	-1.4336986948	 0.116869
67.7217	93.193	114.5808	206.8637	226.8963	233.256	302.0278	328.2034	413.3079	428.8422	480.32	525.2284	579.4436	661.1972	767.8138	851.4847	868.0894	911.6238	934.8543	979.179	989.5977	1027.9157	1059.6786	1098.3571	1116.9746	1135.9461	1152.5308	1156.3899	1203.0051	1228.4688	1250.2984	1282.1185	1341.7193	1360.1615	1372.9434	1382.0804	1403.9705	1411.9876	1434.2466	1469.326	1478.9697	1485.8097	1491.1687	1495.852	1498.7228	1500.4378	1764.7351	2979.45	3012.5823	3014.3295	3023.5222	3028.6914	3042.9958	3070.1756	3074.5983	3079.9625	3090.4144	3116.8319	3122.9087	3123.123
CN=C1CCCC(C)O1	CN=C1CCC[C@@H](C)O1	
InChI=1S/C7H13NO/c1-6-4-3-5-7(8-2)9-6/h6H,3-5H2,1-2H3	InChI=1S/C7H13NO/c1-6-4-3-5-7(8-2)9-6/h6H,3-5H2,1-2H3/t6-/m1/s1
