16
gdb 85801	2.55036	1.2297	1.19845	5.2018	72.13	-0.2495	-0.0078	0.2417	1141.0674	0.123895	-434.087304	-434.077898	-434.076954	-434.121757	32.64	
C	-0.0398316911	 1.4283543717	-0.1213055188	-0.347861
N	-0.0042312725	-0.0117013306	-0.0876063569	-0.076997
C	-1.0725236366	-1.008300298	-0.0124781122	-0.195347
C	 0.0388080766	-2.1153970097	 0.019251491	 0.002654
N	 0.0282743096	-2.9684610311	 1.1939898336	-0.549187
C	 0.0932985326	-2.9224959985	-1.1954059589	 0.275934
N	 0.1554094487	-3.544268584	-2.1674888457	-0.325208
C	 1.0433719722	-0.8872509211	-0.0240812055	 0.362893
O	 2.2338875313	-0.7487168985	 0.0344442501	-0.359013
H	 0.9921943905	 1.7857463728	-0.1374071558	 0.169211
H	-0.5561036103	 1.7913355376	-1.0172921726	 0.141261
H	-0.543915864	 1.837401716	 0.7624965997	 0.13492
H	-1.6589769442	-0.9752716612	 0.9122000092	 0.124939
H	-1.7407637428	-1.0285919964	-0.8780896372	 0.138829
H	 0.8102610143	-3.6161005166	 1.1548438914	 0.258584
H	 0.1624277156	-2.4006796724	 2.0265970188	 0.24439
77.2635	115.7141	139.2807	167.7345	180.2957	228.8448	236.6345	248.4391	363.4445	439.9784	512.0723	612.6093	617.9271	738.6287	788.8747	820.716	895.1775	945.1001	1002.1115	1031.3135	1069.4889	1123.3819	1168.5989	1215.3912	1256.2561	1295.3588	1359.0454	1417.8612	1450.1823	1482.2889	1509.2583	1531.6925	1658.425	1890.1235	2359.4052	3021.7655	3040.3354	3077.1955	3097.0414	3135.4681	3490.3286	3572.3799
CN1CC(N)(C#N)C1=O	CN1C[C@@](N)(C#N)C1=O	
InChI=1S/C5H7N3O/c1-8-3-5(7,2-6)4(8)9/h3,7H2,1H3	InChI=1S/C5H7N3O/c1-8-3-5(7,2-6)4(8)9/h3,7H2,1H3/t5-/m0/s1
