17
gdb 127112	3.97824	1.11895	0.88582	4.7213	71.83	-0.1997	0.0432	0.243	1275.4838	0.136911	-451.348368	-451.33923	-451.338286	-451.382323	32.572	
C	-1.3747596571	 0.5004653028	 0.2936848631	-0.339372
N	-0.0407902331	 0.1176670102	-0.1446813907	-0.170788
C	 1.0231673072	 0.1634421154	 0.8376585079	-0.349508
C	 0.0547231637	-0.7835051118	-1.1691242304	 0.535032
N	-0.9105805133	-1.0855800846	-2.0319482697	-0.46444
C	-0.2916419306	-1.9710859542	-2.8624864257	 0.429644
O	-0.9344254743	-2.5269375321	-3.900256462	-0.413423
N	 0.9625625449	-2.2594322872	-2.6008812604	-0.30628
N	 1.174516699	-1.4737225574	-1.4809013748	-0.304141
H	-2.0344358475	 0.5320663617	-0.5725505933	 0.169644
H	-1.7948581316	-0.2056202821	 1.0258576572	 0.118455
H	-1.33085088	 1.4929037658	 0.7517171914	 0.123476
H	 1.0623990435	-0.7317568133	 1.4789489972	 0.123416
H	 1.9942603045	 0.284527626	 0.345488332	 0.131273
H	 0.8747546381	 1.0354273818	 1.478394313	 0.139762
H	-1.827439012	-2.163489013	-3.8911014617	 0.306223
H	 2.0676981286	-1.5006712578	-1.0246787231	 0.271026
77.5682	124.9708	161.1413	171.558	218.0716	242.2398	296.1249	360.4456	393.9183	412.7084	429.571	565.6452	603.9478	717.5923	767.7214	774.3164	958.2533	1025.9413	1075.1698	1088.6609	1130.2861	1133.7532	1171.5324	1216.7459	1257.3268	1281.6031	1364.8331	1431.6839	1445.5893	1470.0688	1484.5349	1490.1883	1502.8083	1504.5219	1517.1142	1642.7736	1662.6157	2976.6454	2993.4625	3063.3237	3082.7314	3120.3251	3161.641	3703.8735	3821.2701
CN(C)C1=NC(O)=NN1	CN(C)c1nc(O)n[nH]1	
InChI=1S/C4H8N4O/c1-8(2)3-5-4(9)7-6-3/h1-2H3,(H2,5,6,7,9)	InChI=1S/C4H8N4O/c1-8(2)3-5-4(9)7-6-3/h1-2H3,(H2,5,6,7,9)
