16
gdb 19140	3.34889	1.69331	1.34507	2.9147	65.45	-0.2505	-0.0273	0.2232	933.9885	0.129032	-383.711305	-383.703575	-383.702631	-383.743673	28.117	
O	-0.2037784089	 0.2889424748	 0.7281349621	-0.278979
C	 0.1184258427	 1.0542023114	-0.1513066382	 0.071689
C	 1.3054668553	 1.9537786231	-0.0742524915	 0.24359
C	 1.8197465952	 2.2761878213	 1.3222782475	-0.293342
C	 2.5666416493	 1.292856258	 0.4939083609	-0.28712
C	 1.4720055597	 2.9862719839	-1.1458626825	-0.001696
O	 1.0149806817	 2.6520733291	-2.4594472063	-0.233541
C	 0.3458620321	 3.704745535	-1.7566634939	-0.195091
H	-0.4481675818	 1.1073747313	-1.1020426069	 0.101028
H	 2.243729137	 3.2631441202	 1.4726896848	 0.121921
H	 1.2138317344	 1.8940723585	 2.1356148829	 0.146338
H	 2.4753392365	 0.2431628473	 0.7470388419	 0.144393
H	 3.5109205883	 1.5873714989	 0.0487438136	 0.125908
H	 2.4383785246	 3.4943702738	-1.1290912411	 0.093737
H	-0.6717775126	 3.481460119	-1.4379639354	 0.11759
H	 0.4943957664	 4.7043182943	-2.1619553981	 0.123573
77.7788	119.5735	192.0803	227.4191	265.7316	308.6342	394.8583	497.9719	610.2178	730.8944	792.7052	824.9087	850.3534	866.4105	940.5165	975.9888	1005.6714	1030.4153	1059.377	1066.722	1097.7943	1104.4838	1156.5939	1173.6245	1205.2518	1277.7909	1280.7321	1333.9764	1434.638	1446.2227	1452.9019	1484.2717	1529.7588	1802.4385	2937.5209	3082.5382	3086.7799	3137.4945	3138.5296	3170.5764	3226.3381	3239.9761
O=CC1(CC1)C1OC1	O=CC1(CC1)[C@H]1OC1	
InChI=1S/C6H8O2/c7-4-6(1-2-6)5-3-8-5/h4-5H,1-3H2	InChI=1S/C6H8O2/c7-4-6(1-2-6)5-3-8-5/h4-5H,1-3H2/t5-/m0/s1
