17
gdb 56710	2.00727	1.38378	1.24388	4.715	78.46	-0.261	0.0193	0.2803	1137.6133	0.134556	-380.825876	-380.816467	-380.815523	-380.860078	34.77	
N	 0.1546390311	 1.3575315113	 0.2898593117	-0.503341
C	-0.0244426141	-0.0582300857	-0.0200309775	-0.216019
C	-1.464659935	-0.3748175856	-0.0253503088	 0.31476
N	-2.5875050308	-0.6442948927	-0.0419041606	-0.319132
C	 0.63041895	-0.5463771943	-1.3292745379	 0.142892
C	 2.068743095	-1.0383146967	-1.2345925989	-0.317451
C	 0.9583891952	-2.0234826529	-1.454226721	-0.2884
C	 0.2296624848	 0.1814017323	-2.502234862	 0.2756
C	-0.1215505908	 0.8216527414	-3.458276505	-0.439406
H	 1.1500722023	 1.5562575797	 0.3406541539	 0.238044
H	-0.2132266874	 1.9146991203	-0.4774604576	 0.248556
H	 0.4204460061	-0.6353883729	 0.8005745421	 0.129733
H	 2.7253763842	-0.8076808689	-2.0645242364	 0.137737
H	 2.5426351539	-1.0032354593	-0.2586859829	 0.122121
H	 0.6627459706	-2.6636695644	-0.6297054271	 0.132083
H	 0.8513930588	-2.4722672112	-2.4338709218	 0.139498
H	-0.4392238137	 1.3670694396	-4.3125397403	 0.202725
58.1002	115.3386	144.6653	211.719	217.541	254.4894	274.5741	344.0424	398.2772	471.5611	541.9676	564.3097	594.6766	612.5991	670.2649	732.9515	779.3097	857.234	886.5101	911.7386	949.6611	970.3183	983.0061	1063.5494	1087.7359	1131.3375	1191.9802	1204.4122	1257.3231	1266.5712	1361.9304	1403.6399	1466.6246	1494.2969	1662.7671	2233.6325	2366.0213	3034.436	3134.1598	3142.5974	3224.0216	3238.6138	3485.1323	3500.3713	3567.1277
NC(C#N)C1(CC1)C#C	N[C@@H](C#N)C1(CC1)C#C	
InChI=1S/C7H8N2/c1-2-7(3-4-7)6(9)5-8/h1,6H,3-4,9H2	InChI=1S/C7H8N2/c1-2-7(3-4-7)6(9)5-8/h1,6H,3-4,9H2/t6-/m0/s1
