18
gdb 96638	1.664	1.1478	0.97608	1.2441	71.63	-0.1753	0.0423	0.2175	1363.8976	0.14457	-472.441046	-472.429117	-472.428173	-472.480935	38.838	
C	 0.0903239208	 1.2337168544	-0.240888878	-0.319751
N	 0.4840892363	-0.1636626446	-0.052360883	-0.335201
H	 0.0650831032	-0.7752540337	-0.7398734808	 0.22149
C	 0.4001288742	-0.7294936109	 1.2310485909	 0.299397
N	 1.1029781331	 0.0117349416	 2.2012016437	-0.547998
C	-0.2752348485	-1.8604302374	 1.5143139697	-0.151917
N	-1.2400374485	-2.49536913	 0.6771180288	-0.544769
C	 2.589699906	-2.4227382084	-0.2196686252	 0.597511
O	 3.3547949206	-1.9268964165	 0.5021290105	-0.302027
O	 1.8555080329	-2.9422377421	-0.9585822009	-0.309001
H	 0.611660493	 1.8564169836	 0.486967632	 0.14671
H	 0.3802512554	 1.5550222572	-1.2452206152	 0.118343
H	-0.9901758958	 1.4048269372	-0.1160164962	 0.107346
H	 2.073136008	 0.148468108	 1.9334493968	 0.244526
H	 1.0534289293	-0.4221279432	 3.1141655136	 0.240474
H	-0.138103041	-2.3200407749	 2.4899968583	 0.073865
H	-1.6511397524	-1.8535313105	 0.008774857	 0.223455
H	-0.8583021066	-3.28224374	 0.1594774481	 0.237547
26.809	45.8938	57.3121	73.1204	95.4449	115.2556	142.762	169.1676	257.7101	284.5697	326.1305	352.5163	475.7671	589.0314	635.0584	668.7413	681.0795	731.1612	769.5536	771.7076	819.8719	871.4323	1074.9017	1120.653	1150.9526	1156.0237	1186.9414	1226.2064	1316.1054	1374.0412	1406.6905	1460.0044	1472.486	1496.2136	1520.8368	1623.6781	1648.716	1733.5195	2427.8176	2983.3184	3085.4405	3144.2713	3148.152	3478.3515	3499.3286	3571.7658	3578.907	3613.5221
C[NH+]=C(N)C(N)C([O-])=O	CNC(=[NH2])[CH]N.C(=O)=O	
InChI=1S/C4H9N3O2/c1-7-3(6)2(5)4(8)9/h2H,5H2,1H3,(H2,6,7)(H,8,9)	InChI=1S/C3H9N3.CO2/c1-6-3(5)2-4;2-1-3/h2,6H,4-5H2,1H3;
