15
gdb 49135	3.40041	1.15296	0.88076	0.7056	72.56	-0.2497	-0.108	0.1418	1226.0378	0.112103	-457.792116	-457.784235	-457.78329	-457.825054	28.502	
O	-0.0395795832	-0.0243553564	 0.0890410613	-0.256906
C	-0.0020878856	 1.1798421181	-0.0084206022	 0.113168
C	 1.2577480003	 1.9566004393	-0.0481875951	 0.17958
C	 1.228522747	 3.2979514483	-0.1300290181	-0.249086
C	 2.4785845746	 4.0847919353	-0.0460301283	 0.368792
O	 2.4912205784	 5.2966181128	-0.0319793121	-0.304567
C	 3.7500517582	 3.25042744	 0.1038156856	-0.19543
O	 3.6384674294	 1.975118749	-0.4941504628	-0.237853
C	 2.5651410926	 1.2113805756	 0.0120933945	-0.171644
H	-0.9273308498	 1.7915895634	-0.0746320492	 0.091985
H	 0.2966852497	 3.8536338029	-0.2001767083	 0.12536
H	 4.5794091774	 3.7698068167	-0.3802854418	 0.146978
H	 3.9801392748	 3.1730264485	 1.1823603221	 0.117893
H	 2.756258405	 0.8912144492	 1.0525354957	 0.121386
H	 2.5022764313	 0.3023250473	-0.5911443814	 0.150344
92.0457	103.1613	187.3556	227.3691	267.9024	380.008	425.2994	443.3872	501.879	533.9941	619.7104	717.5532	839.923	885.3275	898.8636	976.9938	1001.0179	1029.7074	1062.2019	1145.0677	1167.3024	1223.319	1264.8018	1297.2271	1330.6484	1363.1001	1405.9185	1421.9479	1464.2572	1477.5764	1678.3348	1789.0348	1791.5408	2905.5877	2947.0153	2949.1481	3103.3256	3118.6413	3169.958
O=CC1=CC(=O)COC1	O=CC1=CC(=O)COC1	
InChI=1S/C6H6O3/c7-2-5-1-6(8)4-9-3-5/h1-2H,3-4H2	InChI=1S/C6H6O3/c7-2-5-1-6(8)4-9-3-5/h1-2H,3-4H2
