21
gdb 119191	1.87261	1.20565	0.84816	1.6761	85.94	-0.2397	0.0498	0.2895	1456.9096	0.179359	-387.04476	-387.034281	-387.033336	-387.080214	38.801	
C	-0.0908095446	 1.6170164462	-0.049874418	-0.38072
C	-0.2172419195	 0.0995698318	-0.2075958885	-0.164291
C	 0.919491938	-0.5027972126	-1.0415811239	-0.255644
C	 0.8324330067	-2.0206980747	-1.1784115418	 0.117297
C	-0.1426185764	-2.6030392259	-2.2091553241	-0.358949
C	 1.3367345557	-2.6779416607	-2.4531461382	 0.054054
O	 1.9316695896	-1.8436106204	-3.4005629382	-0.419424
C	 1.016773404	-2.7660587093	 0.0394192667	 0.29388
C	 1.1775525242	-3.3787739339	 1.0627261687	-0.460608
H	 0.8460392497	 1.8861485017	 0.4506206397	 0.115153
H	-0.0997616926	 2.1206923458	-1.023173318	 0.111433
H	-0.9142423251	 2.0257793096	 0.5440981556	 0.11003
H	-0.2306388437	-0.3764934881	 0.7799585487	 0.109093
H	-1.178652592	-0.1449034813	-0.6774133306	 0.091634
H	 0.9293227503	-0.0656450962	-2.0443042713	 0.108855
H	 1.8839837094	-0.249269405	-0.5843083166	 0.103866
H	-0.6813778552	-3.5085201536	-1.956257126	 0.123609
H	-0.6996999933	-1.8760252103	-2.7912922653	 0.117988
H	 1.8187527248	-3.646509199	-2.3285739812	 0.101698
H	 1.6417871219	-2.130965498	-4.2727131236	 0.291059
H	 1.3198063982	-3.919881316	 1.9649089159	 0.189988
78.593	87.8091	133.9281	146.2097	162.8033	245.953	247.1605	278.8323	308.0497	366.9356	423.8888	488.6092	540.8207	573.8385	596.1696	641.8002	704.1899	749.0865	817.7241	877.1098	896.9772	914.3843	937.5019	1007.0689	1044.2831	1049.3183	1066.141	1123.7573	1125.2806	1180.6585	1241.5636	1262.963	1298.315	1311.6805	1320.5303	1339.3951	1390.8839	1412.6889	1418.1444	1471.6775	1487.1918	1495.3382	1500.6434	1511.817	2230.5826	3022.1229	3028.0196	3036.873	3057.2395	3089.942	3100.1925	3101.1021	3113.5698	3133.2413	3229.1073	3503.943	3806.0511
CCCC1(CC1O)C#C	CCC[C@]1(C[C@H]1O)C#C	
InChI=1S/C8H12O/c1-3-5-8(4-2)6-7(8)9/h2,7,9H,3,5-6H2,1H3	InChI=1S/C8H12O/c1-3-5-8(4-2)6-7(8)9/h2,7,9H,3,5-6H2,1H3/t7-,8+/m1/s1
