17
gdb 25688	5.90195	0.74833	0.66968	3.3667	90.57	-0.199	0.0164	0.2154	1682.6949	0.135786	-380.902893	-380.893468	-380.892523	-380.939394	32.705	
C	-0.0475149296	 1.4632407713	-0.0167120724	-0.509952
C	-0.0024303876	 0.009542919	-0.011546633	 0.241016
C	 0.0274028964	-1.1962815604	-0.007649886	-0.134986
C	 0.0658764508	-2.6115691662	-0.0031363488	 0.141175
C	 1.1812047994	-3.4172895713	 0.0386588693	-0.208798
N	 0.7026096157	-4.7051861889	 0.0242242116	-0.267242
C	-0.6657672785	-4.6429299468	-0.0251276394	 0.329488
C	-1.5360735223	-5.8546480837	-0.0534399565	-0.509617
N	-1.0790616826	-3.3978373057	-0.0425860702	-0.341847
H	 0.9603594734	 1.8912666962	-0.0589168025	 0.145023
H	-0.6038474431	 1.8424465791	-0.8816499507	 0.148278
H	-0.5341252547	 1.8523309643	 0.8851975854	 0.14761
H	 2.2329850575	-3.190083683	 0.0758851197	 0.131065
H	 1.2613193545	-5.5418315894	 0.0461343465	 0.263789
H	-1.4019221877	-6.4749934864	 0.8403204138	 0.131761
H	-2.5768612028	-5.5322729517	-0.0960579572	 0.161683
H	-1.3320630886	-6.4838641662	-0.9275366696	 0.131553
12.2008	80.6218	86.2437	101.108	226.7981	279.1699	305.7872	362.4807	454.2175	475.2815	527.8204	547.0573	666.8023	699.9519	714.5757	754.3849	939.1623	968.4151	1030.6958	1051.1582	1053.8966	1063.1862	1071.0883	1115.4466	1230.7831	1309.7179	1363.3761	1412.6345	1414.3149	1431.6197	1475.4481	1478.8247	1484.0517	1495.2894	1573.5666	1593.3172	2363.0255	3021.9614	3030.5277	3079.3169	3079.856	3084.289	3151.6233	3281.046	3661.1841
CC#CC1=CNC(C)=N1	CC#Cc1c[nH]c(C)n1	
InChI=1S/C7H8N2/c1-3-4-7-5-8-6(2)9-7/h5H,1-2H3,(H,8,9)	InChI=1S/C7H8N2/c1-3-4-7-5-8-6(2)9-7/h5H,1-2H3,(H,8,9)
