18
gdb 98493	2.3124	1.42157	0.95062	2.715	81.15	-0.2461	0.0266	0.2727	1252.0275	0.145832	-401.941917	-401.932206	-401.931262	-401.976875	35.29	
C	 0.0066603554	 1.4317476994	-0.1509799742	-0.341102
N	-0.1023586138	-0.0096672387	-0.2418472454	-0.358806
C	-1.1445959611	-0.6976824731	 0.2859214395	 0.403095
O	-2.0768575452	-0.1767696365	 0.879251537	-0.398671
C	-1.0914533913	-2.2036862093	 0.094576641	 0.046066
C	-1.7247177157	-3.0078291072	 1.2357313981	-0.281395
C	-2.4643206833	-2.8709660512	-0.0466299388	-0.281398
C	 0.0226266217	-2.7721617911	-0.6086108205	 0.183413
C	 0.9677520047	-3.22555904	-1.2020880644	-0.396521
H	 0.9122999067	 1.7286177932	 0.3897490888	 0.126523
H	 0.0268599545	 1.8923500287	-1.1450338011	 0.126523
H	-0.8672615101	 1.7935952011	 0.3918002274	 0.170546
H	 0.6168523597	-0.5358132528	-0.7128899712	 0.253907
H	-1.2564549878	-3.955174589	 1.473021732	 0.12879
H	-2.0631742175	-2.4115270338	 2.0740845326	 0.148604
H	-3.3000649546	-2.1825413407	-0.0705678746	 0.148605
H	-2.5183845342	-3.7216441811	-0.7148048966	 0.128793
H	 1.7939925818	-3.6421592979	-1.7230745797	 0.193028
55.6488	81.2396	133.5742	138.6341	216.6511	228.953	291.3625	325.3746	405.7041	507.4217	508.961	549.0929	556.1035	574.2494	662.6376	754.3628	783.8465	794.5029	866.8617	899.4516	978.6442	978.717	1070.0188	1077.6223	1101.9408	1154.7054	1174.1512	1209.3301	1227.8402	1295.1182	1304.8389	1439.4016	1444.3296	1474.6092	1495.9383	1500.3877	1574.5009	1765.7747	2224.1348	3027.7175	3079.0442	3150.0199	3151.3079	3153.5876	3243.3498	3256.8862	3499.298	3624.818
CNC(=O)C1(CC1)C#C	CNC(=O)C1(CC1)C#C	
InChI=1S/C7H9NO/c1-3-7(4-5-7)6(9)8-2/h1H,4-5H2,2H3,(H,8,9)	InChI=1S/C7H9NO/c1-3-7(4-5-7)6(9)8-2/h1H,4-5H2,2H3,(H,8,9)
