23
gdb 96194	1.96452	1.4934	0.91807	1.2789	87.98	-0.2275	0.0248	0.2523	1340.8755	0.206705	-388.311832	-388.302497	-388.301553	-388.34549	36.499	
C	 0.1186535232	 1.5498535196	 3.1984*^-6	-0.478032
C	 0.0189333713	 0.0465493022	-0.0127263228	 0.328546
C	 0.0143258448	-0.6439073368	-1.1561928796	-0.148998
C	-0.0868794567	-2.1454816207	-1.2839472946	-0.248112
C	-1.3597372411	-2.7601721201	-0.6675359681	-0.19557
C	-1.3783239024	-2.7947077999	 0.8640411339	-0.173637
C	-1.370607909	-1.439502163	 1.5725048022	 0.132949
O	-1.527620733	-1.7467520497	 2.9565750949	-0.438214
C	-0.0828278767	-0.6211657795	 1.345305433	-0.32165
H	 0.9973443543	 1.8824764215	 0.5685709416	 0.121337
H	 0.1910150885	 1.9625413426	-1.0097675623	 0.118281
H	-0.7537491392	 2.0022873066	 0.490744088	 0.117867
H	 0.0880314029	-0.0863272418	-2.0879183798	 0.074399
H	-0.0466581807	-2.4113428861	-2.345183993	 0.094609
H	 0.7898838985	-2.6251323831	-0.8223293497	 0.102469
H	-2.2370869924	-2.2176633866	-1.0417430538	 0.094661
H	-1.4573067304	-3.7917406043	-1.0268878977	 0.092211
H	-2.2696901677	-3.3319184232	 1.2063914208	 0.10183
H	-0.5150343313	-3.3668212867	 1.2303763601	 0.096978
H	-2.2282766348	-0.8438271459	 1.2170583547	 0.061133
H	-1.5377871163	-0.9181276983	 3.4459104977	 0.276931
H	 0.7778433922	-1.2809010318	 1.5224919395	 0.112262
H	-0.0356774437	 0.1504664749	 2.1241748868	 0.077751
91.6825	129.4978	194.0937	230.4527	277.7602	287.8081	296.8929	338.9289	370.0045	405.876	457.2438	509.5666	523.7025	600.5972	795.4978	810.0518	825.0404	868.6876	904.1206	941.6529	961.9	999.8101	1026.2928	1053.2955	1079.6826	1095.8437	1099.669	1107.6382	1147.7186	1186.7494	1223.4626	1254.8719	1270.3466	1301.6021	1323.5486	1355.7098	1361.7447	1373.3605	1386.096	1392.9459	1413.8223	1440.2636	1476.6425	1480.7649	1482.2474	1484.9593	1492.9372	1498.7673	1735.9806	2955.3394	2991.2718	3005.9018	3010.5247	3019.8551	3021.158	3046.6921	3051.7746	3060.0889	3065.7339	3072.0387	3109.2391	3139.5658	3816.0263
CC1=CCCCC(O)C1	CC1=CCCC[C@@H](O)C1	
InChI=1S/C8H14O/c1-7-4-2-3-5-8(9)6-7/h4,8-9H,2-3,5-6H2,1H3	InChI=1S/C8H14O/c1-7-4-2-3-5-8(9)6-7/h4,8-9H,2-3,5-6H2,1H3/t8-/m1/s1
