17
gdb 45130	2.76734	1.69388	1.19464	5.4496	78.82	-0.204	-0.016	0.188	1030.3343	0.13858	-417.986487	-417.978966	-417.978022	-418.018765	29.516	
N	-0.0230117776	 1.4005911974	-0.4167284315	-0.495272
C	 0.0470620497	 0.1672288325	-0.0986243982	 0.334812
O	-1.1548618213	-0.4920362013	-0.1484678282	-0.234943
C	-1.3281507136	-1.8108009393	-0.5586393763	 0.121964
C	-0.5129956909	-2.4941207135	-1.6258614228	-0.365127
C	-0.4916643998	-2.9949765315	-0.1785268622	-0.014278
N	 0.6880124315	-2.9009089349	 0.6306941108	-0.312364
C	 1.4882870024	-1.7960713259	 0.7111119642	-0.004015
C	 1.2457672225	-0.504977041	 0.3965923833	-0.190078
H	 0.8826897355	 1.8449273527	-0.2733561622	 0.214531
H	-2.3965474768	-1.9987808181	-0.5696668544	 0.118566
H	-1.0113411405	-3.07287949	-2.3956871263	 0.121551
H	 0.382557135	-1.9758197593	-1.9511019167	 0.141711
H	-1.045370045	-3.9010040715	 0.0463646587	 0.108358
H	 1.1863244156	-3.7734940161	 0.7141969073	 0.248993
H	 2.4734382595	-2.0299222164	 1.1052095954	 0.116389
H	 2.0822454438	 0.1678215362	 0.5488720491	 0.089203
66.8022	111.8425	278.9439	302.1234	398.0577	459.8418	477.2355	505.5375	520.3144	683.5248	694.0254	727.7117	741.4797	793.9512	816.2236	864.485	875.5041	903.3218	965.0468	996.1221	1028.593	1039.2066	1085.0398	1120.5771	1141.862	1176.2275	1218.4389	1284.8597	1340.1967	1356.3525	1418.3225	1426.9442	1452.8881	1487.9419	1544.6415	1662.7177	1713.645	3136.3769	3153.9469	3164.3563	3168.1897	3189.7899	3228.4456	3496.6513	3611.2565
N=C1OC2CC2NC=C1	[NH]C1=C[CH]N[C@H]2[C@@H](O1)C2	
InChI=1S/C6H8N2O/c7-6-1-2-8-4-3-5(4)9-6/h1-2,4-5,7-8H,3H2	InChI=1S/C6H8N2O/c7-6-1-2-8-4-3-5(4)9-6/h1-2,4-5,7-8H,3H2/t4-,5+/m1/s1
