13
gdb 127806	3.75312	1.31647	0.98068	3.7072	63.52	-0.2748	-0.0711	0.2036	1109.5282	0.088829	-486.077362	-486.069304	-486.068359	-486.110766	27.32	
C	 0.1016871265	 1.4394955353	-0.0645682012	-0.338849
N	 0.09951445	-0.0061333949	 0.0007622048	-0.096159
N	 0.186620003	-0.7861352781	-1.1102731748	-0.075802
N	 0.1632708571	-2.0065633847	-0.7772475482	-0.079095
N	 0.0577914147	-2.0624421688	 0.5948594071	-0.153603
C	 0.0029491749	-3.2626740248	 1.3284325608	 0.191214
O	 0.0422146995	-4.3515566524	 0.8372834007	-0.252006
C	 0.0127631303	-0.7719476998	 1.1478840671	 0.560551
O	-0.0768511241	-0.4327197815	 2.3037962979	-0.404815
H	 1.030779961	 1.8005728244	-0.5113986314	 0.162473
H	-0.7490080768	 1.7967796473	-0.6492566847	 0.162482
H	 0.0214468828	 1.7986981926	 0.96261647	 0.179925
H	-0.080065349	-3.0356343545	 2.403410442	 0.143684
74.3351	89.1979	185.9802	195.3699	228.489	279.359	296.2482	408.6134	558.2433	685.6548	723.3378	750.7663	794.8812	827.6063	1014.3591	1041.4322	1074.8696	1158.0058	1158.8396	1268.5104	1330.0505	1407.4516	1423.181	1451.2308	1483.8236	1487.5682	1516.1758	1841.9004	1857.4603	3026.8345	3058.8031	3133.4666	3159.2685
CN1N=NN(C=O)C1=O	Cn1nnn(C=O)c1=O	
InChI=1S/C3H4N4O2/c1-6-3(9)7(2-8)5-4-6/h2H,1H3	InChI=1S/C3H4N4O2/c1-6-3(9)7(2-8)5-4-6/h2H,1H3
