15
gdb 124803	4.04833	1.08663	0.91316	1.7871	64.76	-0.2592	-0.0141	0.2451	1236.2707	0.111047	-491.068682	-491.060186	-491.059242	-491.102323	30.593	
C	 0.560712668	 1.1890208925	 0.395696943	-0.406302
C	-0.2219970608	-0.0546556605	-0.0524525115	 0.016326
O	-1.5971421772	 0.1918413388	-0.2212911316	-0.409979
C	 0.3720899705	-0.6273184653	-1.3070170042	 0.420626
N	-0.2068523557	-0.6814127783	-2.4460593007	-0.196933
O	 0.7748284046	-1.2439154268	-3.3110069921	-0.241915
C	 1.903607117	-1.493528677	-2.5839859475	 0.505623
N	 2.9989614914	-1.9842243579	-2.9365141252	-0.574619
O	 1.6428969856	-1.0924212896	-1.290958311	-0.208909
H	 1.613601907	 0.9507288706	 0.5700141463	 0.143589
H	 0.5022248955	 1.9729474307	-0.3662285991	 0.12785
H	 0.1218882616	 1.5674879534	 1.321319976	 0.141767
H	-0.1437643093	-0.822419253	 0.7273899948	 0.132823
H	-1.7267208855	 0.6450669506	-1.0631851452	 0.300938
H	 2.9955939873	-2.2177552183	-3.9260638821	 0.249116
58.3736	121.4478	157.9658	218.6951	243.1908	269.6277	341.4174	392.2002	462.3935	519.6665	655.7575	708.9589	740.1069	763.4257	785.3483	895.5971	913.5194	943.9479	978.9606	1030.2758	1060.4546	1094.3853	1142.5049	1244.7838	1278.0899	1331.078	1363.9583	1402.5007	1436.0118	1489.5335	1496.9984	1692.4722	1818.5056	3042.0681	3046.8448	3121.4977	3139.0607	3549.0141	3793.3423
CC(O)C1=NOC(=N)O1	C[C@@H](O)C1=NO[C@@H]([NH])O1	
InChI=1S/C4H6N2O3/c1-2(7)3-6-9-4(5)8-3/h2,5,7H,1H3	InChI=1S/C4H7N2O3/c1-2(7)3-6-9-4(5)8-3/h2,4-5,7H,1H3/t2-,4+/m1/s1
