19
gdb 57009	2.89273	1.21887	0.94015	2.8117	80.45	-0.2454	0.0183	0.2637	1251.282	0.161101	-382.09096	-382.082228	-382.081284	-382.12478	32.696	
N	-0.2578779336	 1.3578563729	 0.0910446353	-0.496725
C	 0.0003248686	-0.0840785055	 0.1174371116	-0.133739
C	 0.5213019576	-0.5792259447	-1.1760664238	 0.258584
N	 0.9305408312	-0.9125293035	-2.2054602646	-0.332444
C	 0.95808435	-0.4551367645	 1.277315554	 0.017883
C	 0.321975861	-0.0647325024	 2.6412229476	-0.27402
C	-0.1915745341	-1.378938513	 3.1783661669	-0.059018
C	 0.2716624822	-2.419126282	 2.4885821127	-0.060579
C	 1.183842043	-1.9918092623	 1.3630820732	-0.279621
H	 0.592598454	 1.8537220915	-0.1628695348	 0.240434
H	-0.9438522742	 1.5780583189	-0.6245868926	 0.244942
H	-0.9565161532	-0.5896746043	 0.2990036757	 0.135143
H	 1.8998308365	 0.0748679464	 1.1046788989	 0.081087
H	 1.0704343807	 0.3688762633	 3.3180482124	 0.105086
H	-0.4541050479	 0.6962378855	 2.5163029725	 0.128078
H	-0.8398910492	-1.4387028278	 4.0455568857	 0.093952
H	 0.0631283193	-3.4613208422	 2.7026715182	 0.095461
H	 0.9698832145	-2.5009196439	 0.4163357697	 0.122677
H	 2.2309813136	-2.2259250424	 1.5963696115	 0.112819
66.8665	84.2067	142.5242	245.1248	261.1317	279.8109	350.3318	378.3685	432.0738	527.9285	599.7978	686.4911	743.8429	792.877	836.8931	866.5906	903.8528	929.3037	945.178	977.3567	980.902	992.446	1038.9318	1069.4385	1123.6926	1130.9022	1150.041	1181.9112	1239.6971	1257.5277	1302.3424	1309.7829	1332.1796	1370.975	1375.341	1392.7777	1488.8501	1496.8612	1661.5218	1688.8914	2340.4544	3016.6611	3020.0257	3038.5197	3057.8454	3065.3997	3082.5106	3184.3768	3209.7305	3491.8882	3572.2589
NC(C#N)C1CC=CC1	N[C@@H](C#N)[C@H]1CC=CC1	
InChI=1S/C7H10N2/c8-5-7(9)6-3-1-2-4-6/h1-2,6-7H,3-4,9H2	InChI=1S/C7H10N2/c8-5-7(9)6-3-1-2-4-6/h1-2,6-7H,3-4,9H2/t7-/m0/s1
