16
gdb 49801	2.643	1.59301	1.02195	0.932	74.23	-0.2584	-0.0312	0.2272	1113.5645	0.126666	-434.117671	-434.10995	-434.109006	-434.150208	28.637	
N	-0.0459277823	 1.3191733333	-0.0405358295	-0.457539
C	-0.0194334352	 0.0520209393	-0.037534738	 0.095077
N	-1.1999106583	-0.7025256292	 0.0682217812	-0.159959
C	-2.4599110706	-0.0533330842	 0.1034075037	 0.111897
N	-3.5657716445	-0.5935930566	 0.3971064376	-0.248366
C	-3.5361233018	-2.0083884704	 0.7542422441	-0.172562
C	-2.4569132241	-2.792824918	 0.0010255075	-0.339706
C	-1.109763442	-2.1094973711	 0.0763598795	 0.427576
O	-0.0457982293	-2.6822090828	 0.0994544401	-0.34533
H	 0.8966672695	 1.6908629063	-0.1384925767	 0.240476
H	 0.8551057764	-0.5945530196	-0.1109843563	 0.148979
H	-2.3881162568	 1.0036870625	-0.130652626	 0.165915
H	-3.3758136769	-2.0822380298	 1.8396711734	 0.12619
H	-4.5217938815	-2.43887819	 0.5575345543	 0.124077
H	-2.3414833737	-3.8145108913	 0.367647865	 0.139719
H	-2.7257004088	-2.8521991283	-1.06258263	 0.143556
89.3465	146.758	174.8749	249.7942	254.6914	383.4593	447.529	517.655	552.5945	583.1332	657.9262	741.7453	799.5983	837.1877	877.1048	921.7171	968.185	1027.6558	1076.1743	1088.3261	1124.0474	1147.2567	1199.1966	1239.585	1276.8893	1333.8666	1349.1461	1382.6453	1402.1079	1417.7682	1459.8129	1492.807	1722.5662	1744.0239	1814.7922	3010.4334	3030.5312	3083.2397	3120.8374	3138.6124	3201.9274	3512.372
N=CN1C=NCCC1=O	[NH][CH]N1C=NCCC1=O	
InChI=1S/C5H7N3O/c6-3-8-4-7-2-1-5(8)9/h3-4,6H,1-2H2	InChI=1S/C5H7N3O/c6-3-8-4-7-2-1-5(8)9/h3-4,6H,1-2H2
