19
gdb 94328	2.61299	1.22412	1.10349	4.8524	80.64	-0.2671	0.0145	0.2815	1203.6253	0.159361	-382.051941	-382.043094	-382.04215	-382.085876	32.943	
C	-0.2647688904	 1.4377247311	 0.100007961	-0.391884
C	 0.0314247705	-0.051114115	-0.0473288743	-0.066193
C	 1.2905219259	-0.4061980184	-0.9046853661	-0.225092
C	 2.0788097994	-0.766595756	 0.3916328638	-0.320749
C	 0.7549739889	-0.6768154324	 1.1565154688	 0.372055
N	 0.5191505081	-0.3212771089	 2.5418985279	-0.357305
C	 0.2262546157	-1.706737631	 2.1030448997	-0.284269
C	-1.1620307405	-2.0963973377	 2.0814130265	 0.339058
N	-2.2692711912	-2.4252138549	 2.0240137885	-0.341371
H	 0.6363271484	 1.9995420801	 0.3706163426	 0.109495
H	-0.6475638723	 1.8485760921	-0.839711464	 0.116588
H	-1.0095566851	 1.6095073557	 0.8819516345	 0.138723
H	-0.8777183202	-0.5855059408	-0.3379283938	 0.096186
H	 1.1352972316	-1.2665836293	-1.5584516173	 0.112452
H	 1.7014866892	 0.4143961101	-1.4963090015	 0.106232
H	 2.5966180794	-1.7287068543	 0.4101831719	 0.110597
H	 2.7852170615	 0.0136789029	 0.6923478833	 0.114155
H	 1.3856166909	-0.3129320007	 3.0765204685	 0.241968
H	 0.9050533602	-2.5007571125	 2.4037421501	 0.129353
56.9503	99.0029	151.8287	206.8113	221.6844	292.6049	331.3305	379.5399	448.8265	546.5589	578.9919	614.208	729.3777	778.4953	824.5854	877.1228	903.1942	914.6183	937.0283	950.8669	983.25	1026.0638	1079.1465	1081.9918	1132.5355	1178.0427	1193.782	1206.5758	1238.5941	1258.1318	1266.107	1289.9391	1335.4435	1365.9871	1409.1661	1446.1374	1473.6099	1492.8857	1496.4128	1497.6224	2356.4225	3033.0858	3050.7339	3062.2152	3074.0677	3100.0584	3100.8119	3116.9533	3128.9899	3142.8176	3490.1869
CC1CCC11NC1C#N	C[C@H]1CC[C@]21N[C@H]2C#N	
InChI=1S/C7H10N2/c1-5-2-3-7(5)6(4-8)9-7/h5-6,9H,2-3H2,1H3	InChI=1S/C7H10N2/c1-5-2-3-7(5)6(4-8)9-7/h5-6,9H,2-3H2,1H3/t5-,6-,7+/m0/s1
