15
gdb 127222	3.18817	1.26216	0.9101	4.7299	77.63	-0.2201	-0.0125	0.2076	1215.799	0.114554	-413.032587	-413.024108	-413.023164	-413.066001	30.574	
C	-0.0049192405	 1.4013048041	 0.0944901396	-0.317099
N	 0.0130500649	-0.0400373259	-0.0153887574	 0.054202
C	-0.0827062919	-0.7868123894	-1.1227636841	-0.114117
C	-0.012047295	-2.1173472495	-0.7235320319	 0.023811
C	-0.0762521198	-3.2816776024	-1.514127342	 0.18435
N	-0.1328971361	-4.2650301388	-2.126884343	-0.361952
C	 0.1323601198	-2.0480856469	 0.6965736345	 0.331733
N	 0.3090971492	-3.1075349398	 1.55773656	-0.592946
N	 0.1411105376	-0.7890620759	 1.1173380128	-0.348394
H	 0.9321685748	 1.7569020297	 0.5312290406	 0.156329
H	-0.1282465762	 1.8301553574	-0.9009748894	 0.143976
H	-0.8335810624	 1.7182134679	 0.7332674012	 0.155042
H	-0.1929942566	-0.3550887713	-2.104572143	 0.156916
H	-0.0941787545	-3.9806450346	 1.2518868412	 0.26688
H	 0.1073371366	-2.8917841445	 2.5230475407	 0.261268
73.4124	126.2474	137.828	197.484	279.5799	313.2382	337.5372	425.1242	532.8604	535.4499	580.2599	602.689	618.0982	665.3777	747.9041	813.8538	824.0815	1010.1097	1075.5165	1132.9406	1152.9686	1196.7275	1226.2431	1330.144	1415.5277	1456.5577	1469.228	1488.2562	1539.9419	1543.9225	1609.4893	1652.8891	2333.7049	3051.245	3117.9319	3151.1182	3268.1609	3572.1801	3677.7004
CN1C=C(C#N)C(N)=N1	Cn1cc(C#N)c(N)n1	
InChI=1S/C5H6N4/c1-9-3-4(2-6)5(7)8-9/h3H,1H3,(H2,7,8)	InChI=1S/C5H6N4/c1-9-3-4(2-6)5(7)8-9/h3H,1H3,(H2,7,8)
