15
gdb 82160	3.44461	1.20105	1.0481	5.0346	61.93	-0.2692	0.0024	0.2716	1118.4793	0.111015	-494.866663	-494.858664	-494.85772	-494.899956	28.871	
O	 0.1540692049	 1.4070512272	-0.0826505086	-0.422654
C	 0.0849312992	 0.0173441545	-0.0591716076	 0.084113
C	-1.3146347815	-0.6126626077	 0.0344626295	-0.019084
O	-2.0222914358	-0.0867519317	-1.0941488795	-0.241728
C	-1.1854198739	-1.2302756882	-1.3026914893	-0.008577
C	 0.2403273172	-0.7246033951	-1.4602660453	 0.051362
O	 0.4231030765	 0.098833342	-2.5991277969	-0.194287
C	 1.6205875043	 0.7205936683	-2.7105795151	 0.181483
O	 1.8714640764	 1.4602503622	-3.6118360991	-0.270869
H	-0.5516226688	 1.7058146965	-0.6729787338	 0.303868
H	 0.7964583456	-0.3460398271	 0.6849935632	 0.104101
H	-1.8955144571	-0.9162888912	 0.8968086414	 0.121044
H	-1.6478666727	-2.1165971341	-1.7180734729	 0.124123
H	 0.9838795468	-1.5279041969	-1.4248100555	 0.10183
H	 2.3233365389	 0.4573377314	-1.8990213704	 0.085275
69.4954	112.8699	134.1188	203.9795	255.8299	307.3878	460.5208	496.2515	539.7934	665.705	715.2403	761.2625	826.6448	862.1923	895.4214	917.5226	955.6077	1026.0485	1039.0817	1050.5833	1111.5392	1132.0656	1157.5356	1186.5382	1232.3139	1240.0235	1277.2572	1310.9873	1358.9294	1377.2307	1435.7658	1442.5278	1871.7991	2972.2578	3056.28	3102.3523	3195.7248	3211.3461	3762.1274
OC1C2OC2C1OC=O	O[C@H]1[C@H]2O[C@H]2[C@H]1OC=O	
InChI=1S/C5H6O4/c6-1-8-3-2(7)4-5(3)9-4/h1-5,7H	InChI=1S/C5H6O4/c6-1-8-3-2(7)4-5(3)9-4/h1-5,7H/t2-,3+,4-,5+/m1/s1
