19
gdb 90622	4.15695	1.24014	1.1441	2.6195	75.36	-0.2373	0.0616	0.2989	1145.7461	0.157778	-422.966566	-422.958381	-422.957437	-422.998907	31.869	
C	-0.1050325864	 1.4629173177	-0.0843951705	-0.413339
C	 0.0317299053	-0.0416504632	 0.0316214965	 0.159307
O	 1.1159547629	-0.5476112268	-0.8098490014	-0.309021
C	 1.814241837	-1.0701660043	 0.3242172054	 0.045703
C	 0.7313403407	-0.5809791636	 1.307986185	-0.145669
C	 0.4608516187	-2.0593385654	 1.6799419748	-0.074393
O	 0.0939286661	-2.7496125606	 0.4813998168	-0.267443
C	 1.488775253	-2.5502589753	 0.7317696496	 0.402556
C	 2.3918145371	-3.739056363	 0.7113395863	-0.512257
H	 0.8238141907	 1.9683386556	 0.1984020767	 0.116796
H	-0.3456475971	 1.7424017928	-1.1147799042	 0.128769
H	-0.9107179213	 1.8225805216	 0.5656062003	 0.113833
H	-0.9058950099	-0.5491856102	-0.2147892011	 0.094977
H	 2.8702145432	-0.7884189061	 0.3689601024	 0.077691
H	 0.9399984919	 0.1097474104	 2.1233617591	 0.080887
H	 0.0983528861	-2.4688371534	 2.6167503659	 0.103386
H	 2.5836912826	-4.0586415607	-0.3191828749	 0.138922
H	 3.3548680982	-3.5050941179	 1.1765247994	 0.124483
H	 1.9362601212	-4.5752779775	 1.2487824438	 0.134811
124.4339	182.1676	189.7555	235.553	252.3088	297.6051	327.394	396.9002	543.6397	564.8402	670.9642	740.3752	800.189	819.5738	854.5363	861.7565	878.7547	902.5171	961.1743	990.2466	1023.4624	1041.5089	1072.9734	1093.594	1099.7709	1125.4103	1164.577	1185.9856	1222.3014	1244.4433	1260.7144	1283.9831	1327.1114	1367.5022	1403.0784	1405.0671	1457.7956	1481.4489	1483.3191	1492.2079	1493.9472	3031.1673	3033.6043	3061.4535	3069.1536	3097.4581	3103.7646	3111.9282	3118.8245	3129.2938	3174.9934
CC1OC2C1C1OC21C	C[C@H]1O[C@H]2[C@@H]1[C@H]1O[C@@]21C	
InChI=1S/C7H10O2/c1-3-4-5(8-3)7(2)6(4)9-7/h3-6H,1-2H3	InChI=1S/C7H10O2/c1-3-4-5(8-3)7(2)6(4)9-7/h3-6H,1-2H3/t3-,4-,5+,6-,7+/m1/s1
