17
gdb 80123	2.6591	1.5234	1.2496	3.2911	73.34	-0.2505	-0.0384	0.212	1045.5452	0.135893	-418.001183	-417.993138	-417.992193	-418.033778	30.065	
C	-0.072433695	 1.5448160096	-0.0644745983	-0.427895
C	 0.0079336358	 0.0425621652	 0.0655286643	-0.038633
N	 1.2408511043	-0.7443166917	-0.1746242322	-0.176509
C	 2.4462936653	 0.015586457	-0.0433730217	 0.034014
N	 2.7793839393	 0.4805650103	 1.0904612851	-0.19047
C	 1.7096818283	 0.1261583516	 2.0410367519	-0.261395
C	 0.6770918108	-0.6411217817	 1.2186958004	 0.195837
C	 0.0762729719	-1.8897213771	 1.7638997599	 0.095342
O	 0.1659578034	-2.2288164496	 2.9168716079	-0.254871
H	 0.8180214893	 2.0520940725	 0.3105205581	 0.149815
H	-0.2097560841	 1.8255918028	-1.1136527723	 0.136182
H	-0.9391650251	 1.9120587327	 0.4944429342	 0.136532
H	-0.8576920592	-0.4751593939	-0.3461680472	 0.107352
H	 3.0566487318	 0.1297538345	-0.9344517567	 0.134366
H	 2.1012519959	-0.5083771819	 2.841933524	 0.147814
H	 1.3217629198	 1.0358877123	 2.5121670917	 0.124697
H	-0.4767016225	-2.4953754028	 1.012771051	 0.087821
88.7064	178.5774	204.579	223.0696	232.4235	262.5968	412.5438	443.6336	500.2255	584.6025	654.8159	738.4582	767.0215	820.7216	897.4974	947.9786	957.7636	980.5141	1009.465	1028.0359	1045.9113	1074.1966	1130.5967	1160.7903	1200.713	1262.6708	1303.5995	1327.3357	1339.8517	1404.5206	1419.2815	1429.3608	1485.9527	1496.4686	1504.5961	1681.0546	1819.4966	2895.0726	3044.6412	3050.8696	3090.8421	3104.7095	3111.3245	3142.9413	3189.9333
CC1N2C=NCC12C=O	C[C@H]1N2C=NC[C@@]12C=O	
InChI=1S/C6H8N2O/c1-5-6(3-9)2-7-4-8(5)6/h3-5H,2H2,1H3	InChI=1S/C6H8N2O/c1-5-6(3-9)2-7-4-8(5)6/h3-5H,2H2,1H3/t5-,6-,8?/m1/s1
