19
gdb 93750	2.12363	1.6109	0.96122	4.2285	81.68	-0.2491	-0.0609	0.1882	1224.2551	0.1587	-423.06471	-423.055717	-423.054773	-423.098417	33.385	
C	-0.0104764061	 1.511570909	 0.0943083452	-0.4997
C	 0.0408465973	 0.0221919372	-0.0157442644	 0.219946
C	-0.0030468327	-0.7508444441	-1.1202487339	 0.123155
C	-0.1075276342	-0.315428133	-2.5054762208	 0.062616
O	-0.1255553203	-1.089974178	-3.4481024379	-0.298925
C	 0.0266079667	-2.2355690436	-0.7831481531	 0.048098
O	 0.9312959059	-2.9864046001	-1.5677347155	-0.444138
C	 0.4674361197	-2.2437076988	 0.6926172944	-0.23518
C	 0.122357131	-0.8364498095	 1.2277926443	-0.302829
H	 0.8937943551	 1.8852142838	 0.5906952883	 0.143024
H	-0.1039208352	 2.0150374015	-0.8693096388	 0.136828
H	-0.8552094553	 1.816971414	 0.7244535887	 0.141114
H	-0.1678946319	 0.7772807227	-2.6870246654	 0.077694
H	-0.9934622651	-2.6448667011	-0.8896023302	 0.071802
H	 0.6916018103	-2.8056530934	-2.487537055	 0.294166
H	 0.0126468116	-3.0492959872	 1.2722836984	 0.105233
H	 1.5509870417	-2.3944035892	 0.6977431159	 0.123636
H	 0.8534990186	-0.4513785475	 1.9482499626	 0.113713
H	-0.8479156969	-0.8193657926	 1.7456096672	 0.119747
92.1417	128.6826	152.9618	178.9329	214.0936	264.8986	298.6746	397.1958	441.6432	494.0467	533.862	564.5569	621.8927	630.1553	770.8042	854.8077	911.9453	953.1982	975.4652	1012.3392	1027.8251	1043.4983	1084.4768	1118.9368	1165.5787	1204.1729	1236.3052	1276.1971	1282.1943	1307.4779	1350.5336	1371.6066	1405.3614	1425.7811	1435.576	1472.8631	1475.8464	1480.2229	1494.5553	1693.948	1743.8244	2915.3706	2939.394	3006.5295	3025.4244	3051.7362	3069.3461	3071.6964	3119.9029	3130.9499	3741.9914
CC1=C(C=O)C(O)CC1	CC1=C(C=O)[C@@H](O)CC1	
InChI=1S/C7H10O2/c1-5-2-3-7(9)6(5)4-8/h4,7,9H,2-3H2,1H3	InChI=1S/C7H10O2/c1-5-2-3-7(9)6(5)4-8/h4,7,9H,2-3H2,1H3/t7-/m0/s1
