18
gdb 75122	3.3323	1.23211	0.94866	4.3169	77.24	-0.2168	0.009	0.2258	1231.2566	0.149355	-439.140155	-439.131844	-439.1309	-439.173192	31.36	
C	-0.268004214	 1.5433534889	 0.0699325942	-0.469513
C	 0.0314456373	 0.0688187607	 0.0057240876	 0.258092
C	 0.1534140537	-0.5347578711	-1.1811393128	-0.057918
N	 0.3860536236	-1.8854534858	-1.4949508003	-0.387252
C	 0.1234312982	-3.0525257512	-0.7892869675	 0.450365
O	-0.066700371	-4.1007167743	-1.3519643185	-0.374919
O	 0.0907788772	-2.9670912435	 0.5564566731	-0.232871
C	 0.8752620993	-1.9788261304	 1.2394921357	-0.098398
C	 0.1751815825	-0.6325854942	 1.3295502355	-0.303797
H	 0.5155949447	 2.085732657	 0.6155481619	 0.121076
H	-0.3553938161	 1.9863085665	-0.9258450943	 0.12045
H	-1.2082588458	 1.7357609237	 0.6037895486	 0.125631
H	 0.0665023302	 0.0635341551	-2.08274784	 0.103278
H	 0.4059900048	-2.0902962153	-2.4821881058	 0.262726
H	 1.0314786685	-2.3969243051	 2.2364573758	 0.126581
H	 1.8507858304	-1.8805775997	 0.7506984663	 0.125278
H	 0.7528412417	 0.0051943569	 2.0143296822	 0.107002
H	-0.8045369052	-0.7703145882	 1.8085897784	 0.124189
87.2136	103.2562	197.7147	275.318	298.329	323.2301	331.0806	417.3285	461.866	512.5627	610.3179	624.635	737.313	772.4436	808.4203	849.7702	885.409	918.8763	990.3861	1023.5527	1048.3564	1092.3387	1106.4786	1187.3521	1204.162	1244.9708	1275.6315	1309.7052	1386.7615	1417.1362	1427.2662	1430.5182	1468.3365	1476.1597	1488.0514	1499.4317	1505.5857	1757.3392	1836.2766	3002.0631	3010.0398	3027.1325	3051.6018	3052.3335	3107.6746	3111.0372	3174.9875	3631.3722
CC1=CNC(=O)OCC1	CC1=CNC(=O)OCC1	
InChI=1S/C6H9NO2/c1-5-2-3-9-6(8)7-4-5/h4H,2-3H2,1H3,(H,7,8)	InChI=1S/C6H9NO2/c1-5-2-3-9-6(8)7-4-5/h4H,2-3H2,1H3,(H,7,8)
