22
gdb 114262	3.14241	1.35007	1.17319	1.1923	88.09	-0.2024	0.08	0.2824	1167.7033	0.194418	-367.077991	-367.069773	-367.068829	-367.110666	33.25	
C	-0.1119731601	 1.5718176147	 0.1670960776	-0.373931
C	 0.1169854039	 0.0570824035	 0.1772053198	-0.208893
C	 0.6606060049	-0.4605551089	-1.1562760127	 0.053777
C	 0.5987808429	-2.0158228069	-1.4590167772	-0.372522
C	-0.4679943378	-1.6295227586	-2.4979162066	 0.301247
C	-0.9789941055	-1.4168186463	-3.9538229402	-0.27764
C	-1.4218866001	-0.1837833941	-3.051657501	-0.01951
C	-1.8939362273	-1.1942567007	-1.9988580109	-0.251927
N	 0.0249146626	-0.217032142	-2.5407621321	-0.168857
H	 0.8076940617	 2.1075894446	-0.0919372436	 0.11869
H	-0.8724164489	 1.8498406364	-0.5694567986	 0.124268
H	-0.4436462217	 1.9288700109	 1.146783778	 0.110998
H	 0.8658660922	-0.1931428258	 0.9415661088	 0.096697
H	-0.7975846423	-0.4592282103	 0.4823116317	 0.101085
H	 1.6760731423	-0.0632043965	-1.2534726404	 0.087233
H	 1.5326641294	-2.3899099798	-1.8836214105	 0.113759
H	 0.2704304296	-2.671451017	-0.6488278603	 0.102186
H	-0.2030329531	-1.19904244	-4.6871664568	 0.108724
H	-1.7827732497	-2.0492393091	-4.3395918464	 0.09137
H	-1.911479437	 0.7303657801	-3.397599667	 0.079947
H	-2.7363152994	-1.8403451895	-2.265543885	 0.086456
H	-1.9875661567	-0.8338789548	-0.9782638465	 0.096844
72.3121	133.5325	197.3762	264.1034	299.6784	369.4644	387.9445	484.5397	535.5626	584.866	686.3482	727.3427	753.0387	795.3492	816.7852	841.5099	860.9797	913.9479	925.157	963.0327	970.8285	981.1096	999.058	1036.0056	1066.8766	1079.1093	1109.0474	1121.6137	1127.1676	1165.8246	1182.4079	1191.1027	1201.1964	1221.0873	1240.4296	1249.731	1284.073	1291.9262	1341.1293	1393.4848	1412.4456	1469.4558	1475.195	1490.2841	1497.0358	1506.4022	1527.4328	3015.0429	3034.7868	3040.4412	3050.0539	3062.4672	3065.8721	3075.5268	3078.188	3104.5552	3108.1158	3126.5091	3157.6918	3175.9569
CCC1CC23CC(C2)N13	CC[C@H]1C[C@@]23C[C@@H](C2)N13	
InChI=1S/C8H13N/c1-2-6-3-8-4-7(5-8)9(6)8/h6-7H,2-5H2,1H3	InChI=1S/C8H13N/c1-2-6-3-8-4-7(5-8)9(6)8/h6-7H,2-5H2,1H3/t6-,7-,8+/m0/s1
