17
gdb 65871	2.89152	1.24111	1.14642	3.6151	70.85	-0.2336	-0.0384	0.1952	1133.8291	0.134893	-455.17466	-455.165662	-455.164718	-455.209044	32.412	
C	-0.0309706391	 1.6202934146	 0.2495116368	-0.461034
C	 0.0274327561	 0.0956356759	 0.104191919	 0.187013
C	 0.7794291357	-0.3856302917	-1.1557254535	-0.142097
O	 1.6064182917	-1.470377834	-0.7166926213	-0.248908
C	 1.748402247	-1.422495136	 0.643366726	 0.469891
N	 2.5837720487	-2.0685206666	 1.3372389434	-0.590865
N	 0.7951769756	-0.5591880011	 1.1477643676	-0.37748
C	-1.4115405636	-0.4500221092	 0.1458834033	 0.153043
O	-2.0475710102	-0.7873134748	-0.8160203366	-0.244588
H	 0.9807878997	 2.0322989946	 0.3072001008	 0.138023
H	-0.5471965207	 2.0670209085	-0.6055491249	 0.147117
H	-0.5738155825	 1.9099144239	 1.1561351787	 0.130379
H	 0.0902191998	-0.7466820668	-1.9203481908	 0.150953
H	 1.4133624662	 0.406557896	-1.5704140879	 0.111327
H	 3.1945149314	-2.614888377	 0.7347557898	 0.226534
H	 0.9321566693	-0.1665885646	 2.0633181027	 0.263296
H	-1.8248046053	-0.5123034817	 1.177989457	 0.087395
49.3837	77.1094	123.5885	233.3212	273.9814	296.7641	304.7174	306.265	391.609	470.0126	549.0272	646.2673	701.3256	727.2753	790.279	845.8324	894.4183	933.7886	966.1659	994.5649	1006.7196	1059.2007	1107.8154	1163.4806	1200.5465	1233.1026	1271.5235	1316.7833	1385.3978	1399.3474	1415.1966	1426.9489	1489.7286	1496.8513	1521.3083	1792.4939	1836.8956	2882.4534	3032.7471	3037.649	3104.1246	3120.2857	3128.3219	3533.4658	3672.9487
CC1(COC(=N)N1)C=O	C[C@]1(CO[C]([NH])N1)C=O	
InChI=1S/C5H8N2O2/c1-5(2-8)3-9-4(6)7-5/h2H,3H2,1H3,(H2,6,7)	InChI=1S/C5H8N2O2/c1-5(2-8)3-9-4(6)7-5/h2H,3H2,1H3,(H2,6,7)/t5-/m1/s1
