18
gdb 19567	3.86972	2.02552	1.85082	1.642	71.58	-0.233	0.0967	0.3297	804.2256	0.155783	-347.760621	-347.754231	-347.753287	-347.790774	26.361	
C	 0.0140530926	 1.4948736449	 0.013495406	-0.363805
C	 1.3371131847	 0.7401711558	-0.0160147284	-0.363427
C	 0.0435481738	 0.0046458571	 0.0068517567	 0.458949
C	-0.5710331064	-0.9813657187	 1.0258562477	-0.163393
C	-1.7599155075	-1.0966909416	 0.0149219401	-0.233131
C	-0.5902204295	-0.968043287	-0.9939213289	 0.018173
O	 0.1549004713	-2.1822870211	-0.7901716586	-0.281116
C	 0.2198875635	-2.2457937848	 0.6558754982	-0.073558
H	-0.2578435128	 2.0056963698	 0.9323227337	 0.111924
H	-0.294560187	 2.0146944585	-0.888565788	 0.113684
H	 1.9104664692	 0.7490364198	-0.9374738675	 0.118286
H	 1.9435959232	 0.7503375552	 0.8847150018	 0.11157
H	-0.7032922045	-0.7456616468	 2.0812972535	 0.071008
H	-2.3308328731	-2.0281610929	-0.0073438634	 0.095535
H	-2.4139103669	-0.2245629207	 0.0357973899	 0.10546
H	-0.7045147063	-0.7750940577	-2.0595457618	 0.077648
H	 1.2648011281	-2.2131954067	 0.9854821431	 0.099577
H	-0.2424834723	-3.1741981831	 1.0112369058	 0.096616
178.0101	234.5754	253.1102	374.3287	432.29	551.5111	616.776	676.799	773.7512	813.0354	849.0511	882.0507	909.5844	927.4928	934.4259	945.8066	968.6202	985.3492	1028.5455	1046.2233	1053.7496	1079.2808	1083.7864	1098.3326	1128.5911	1179.8802	1186.4853	1202.7956	1233.2748	1250.1852	1258.0469	1283.4283	1357.2232	1412.9523	1464.2772	1483.2779	1512.2158	1524.0008	3022.8813	3064.1002	3070.0029	3117.7405	3122.9974	3124.8991	3136.977	3144.1408	3194.5647	3209.6215
C1CC11C2CC1OC2	C1CC21[C@H]1C[C@@H]2OC1	
InChI=1S/C7H10O/c1-2-7(1)5-3-6(7)8-4-5/h5-6H,1-4H2	InChI=1S/C7H10O/c1-2-7(1)5-3-6(7)8-4-5/h5-6H,1-4H2/t5-,6-/m0/s1
