16
gdb 50134	4.34859	0.97875	0.88006	2.5395	72.82	-0.2444	-0.0488	0.1956	1274.2669	0.122806	-437.851152	-437.84287	-437.841926	-437.88482	29.983	
O	-0.6044881341	 0.9143760842	 0.9399440435	-0.241647
C	 0.1459678189	 0.7859320401	 0.0078339497	 0.160734
C	 1.4443561266	 1.5572852991	-0.1362643043	-0.063754
N	 2.5007299883	 0.8779332248	-0.9430954117	-0.385837
C	 2.6785905604	 2.087001914	-1.7558468319	 0.302836
C	 1.4242158568	 2.3279186005	-2.5496090226	-0.323169
C	 1.4298321334	 2.7535081312	-1.1135690399	-0.150079
C	 3.9865042965	 2.6932100478	-1.9940355559	 0.054423
O	 5.0170510406	 2.2325566943	-1.5565828968	-0.277938
H	-0.0715371785	 0.0955660394	-0.8364769158	 0.087288
H	 1.7784801685	 1.8800968502	 0.8541678804	 0.111008
H	 3.3398873635	 0.6836104153	-0.405336504	 0.247447
H	 1.4613420027	 3.1542766546	-3.2529116313	 0.134929
H	 0.8777238078	 1.4550836888	-2.8904004224	 0.139436
H	 1.2858244581	 3.7830657411	-0.8150085059	 0.125549
H	 3.9660146805	 3.6262077847	-2.5986293712	 0.078775
57.487	90.2462	166.1971	176.253	264.9578	320.6848	404.477	457.208	480.8089	539.2693	706.1649	756.9225	777.4145	834.9884	879.7704	933.0254	977.3694	989.4289	1011.9168	1033.9902	1044.1361	1084.4228	1098.5797	1146.7184	1193.5355	1260.3228	1283.3586	1288.7921	1337.4038	1394.5117	1416.3237	1444.7652	1483.1182	1787.114	1831.6265	2893.7379	2897.1016	3072.285	3128.5534	3206.5007	3220.7516	3533.4609
O=CC1NC2(CC12)C=O	O=C[C@H]1N[C@]2(C[C@@H]12)C=O	
InChI=1S/C6H7NO2/c8-2-5-4-1-6(4,3-9)7-5/h2-5,7H,1H2	InChI=1S/C6H7NO2/c8-2-5-4-1-6(4,3-9)7-5/h2-5,7H,1H2/t4-,5+,6+/m0/s1
