15
gdb 45118	2.97425	1.72661	1.16233	2.4463	68.16	-0.2675	-0.0543	0.2132	1003.0089	0.113473	-453.924149	-453.916855	-453.91591	-453.957323	27.716	
N	-0.1557685726	 1.1560917119	 0.7272197673	-0.473208
C	 0.0174178351	 0.1228041903	 0.0213909432	 0.310495
O	-1.0210676987	-0.2707640161	-0.7622474032	-0.215713
C	-1.1178852269	-1.6385356486	-1.0657208539	 0.057206
C	-0.7082438594	-2.0702485413	-2.4487049101	-0.326853
C	 0.1714574514	-2.3639972995	-1.2637709954	 0.055521
O	 1.3392502977	-1.5971613964	-1.1152356766	-0.213688
C	 1.3199175829	-0.6539833908	-0.1340995151	 0.294845
N	 2.4010927503	-0.4342508786	 0.4799479849	-0.469728
H	 0.6967518437	 1.4297591492	 1.2114764747	 0.227103
H	-1.9512371052	-2.1188527047	-0.5628891332	 0.123645
H	-1.2405687015	-2.8924900806	-2.9120532852	 0.131845
H	-0.3710530942	-1.2859961253	-3.1165635199	 0.147726
H	 0.2918775089	-3.3821485081	-0.9068676739	 0.123408
H	 2.3093874385	 0.3357064287	 1.1401913965	 0.227397
19.9652	104.9589	278.7508	379.9972	416.6718	466.7613	491.3536	521.8656	537.0469	723.5908	729.6448	759.3477	820.725	826.0371	857.6118	889.1111	933.6469	972.2792	1033.0711	1073.4574	1079.7154	1091.1911	1126.8211	1165.4852	1187.7434	1255.3825	1259.7883	1369.8347	1372.7827	1407.4975	1471.119	1720.1216	1734.6383	3146.9308	3153.6912	3163.3651	3244.3367	3507.8418	3514.7845
N=C1OC2CC2OC1=N	[NH]C1=C(O[C@H]2[C@@H](O1)C2)[NH]	
InChI=1S/C5H6N2O2/c6-4-5(7)9-3-1-2(3)8-4/h2-3,6-7H,1H2	InChI=1S/C5H6N2O2/c6-4-5(7)9-3-1-2(3)8-4/h2-3,6-7H,1H2/t2-,3+
