15
gdb 46022	5.2567	1.00898	0.85291	2.1831	80.41	-0.2085	-0.0215	0.187	1265.4304	0.113899	-416.834796	-416.826492	-416.825548	-416.868244	30.646	
O	-0.0431454325	-0.0627972604	-0.0691012611	-0.404798
C	-0.0224440459	 1.1512938196	-0.0214578178	 0.468858
N	-1.1328829927	 1.9421917568	-0.1132042734	-0.36628
C	-1.216568119	 3.3814902807	 0.1150402083	-0.254933
C	 0.1563912247	 4.0180590641	 0.0330012637	 0.062471
C	 1.2512305522	 3.235169657	 0.0424620208	-0.045364
N	 1.1724836278	 1.8596634323	 0.1025754129	-0.366861
C	 0.2320711884	 5.4282017574	-0.0150437306	 0.24199
C	 0.2351553853	 6.6337751198	-0.053366702	-0.437411
H	-1.990580194	 1.4154918901	-0.1582230115	 0.258605
H	-1.8754935261	 3.8269936522	-0.6405910466	 0.130293
H	-1.671230196	 3.6014767688	 1.094623817	 0.123542
H	 2.2504677426	 3.6507824872	 0.0090189201	 0.129271
H	 2.0015369224	 1.2903458037	 0.07517894	 0.267442
H	 0.2567900728	 7.6946132307	-0.0869043398	 0.193175
48.3177	104.7078	145.7726	201.3505	393.7526	415.9634	448.2129	474.3262	505.2266	524.1247	546.3598	564.3472	621.3122	667.5473	732.5847	758.4561	831.3284	911.9085	976.3523	1040.8584	1078.9417	1190.2279	1220.1748	1247.3415	1286.2598	1367.6272	1422.2622	1465.2828	1490.1363	1535.6939	1713.7097	1823.0223	2216.4085	2963.1827	3029.1418	3214.6926	3504.101	3645.0109	3669.8219
O=C1NCC(=CN1)C#C	O=C1NCC(=CN1)C#C	
InChI=1S/C6H6N2O/c1-2-5-3-7-6(9)8-4-5/h1,3H,4H2,(H2,7,8,9)	InChI=1S/C6H6N2O/c1-2-5-3-7-6(9)8-4-5/h1,3H,4H2,(H2,7,8,9)
