18
gdb 37345	2.62545	2.04481	1.96889	2.192	73.04	-0.2449	0.0239	0.2688	840.1044	0.152189	-401.947972	-401.941871	-401.940926	-401.978011	26.432	
C	 0.0248414697	 1.5174062878	 0.1463093621	-0.295516
C	 1.3262194992	 0.7723554439	 0.0148301403	-0.037605
C	-0.0027819489	 0.0214244554	-0.0049682872	-0.027588
C	-0.0797667953	-0.6136214318	-1.415346261	-0.013494
C	 1.4124691324	-0.8722514758	-1.7226217156	-0.239645
C	 1.9376210744	 0.5269953267	-1.3726899692	 0.084612
O	 1.4503751847	 1.4591857531	-2.373965415	-0.233338
C	 0.1934970101	 1.2048740364	-2.8198733394	 0.094155
N	-0.6094546717	 0.3009986029	-2.439417956	-0.251186
H	-0.2015157321	 1.905516292	 1.1344291413	 0.111713
H	-0.3238427597	 2.1488345883	-0.6612580295	 0.138589
H	 1.9994509875	 0.7319665446	 0.8639725077	 0.087873
H	-0.3253884053	-0.5840580288	 0.8347377287	 0.086827
H	-0.6970696569	-1.5132327992	-1.4129006675	 0.075328
H	 1.8398605276	-1.6101028793	-1.037569066	 0.102361
H	 1.6063170158	-1.1765258505	-2.7553013593	 0.106961
H	 3.0213613873	 0.6424257855	-1.38997484	 0.087291
H	-0.0798866389	 1.9158217887	-3.5974286144	 0.122662
212.0745	297.626	393.5096	432.8421	490.5724	516.1675	624.7586	690.0449	712.1918	759.5386	795.1054	832.8398	872.8245	886.8773	917.7168	941.1252	961.0447	974.2845	984.1626	1012.2121	1052.171	1058.5585	1073.7993	1103.5584	1123.7524	1158.9089	1176.2796	1196.5975	1221.7532	1291.7813	1303.3197	1332.548	1342.9726	1363.9906	1381.3433	1398.8564	1484.1711	1493.7734	1701.8693	3055.0371	3093.887	3109.9536	3115.5029	3138.0013	3160.0901	3164.735	3173.728	3224.7827
C1C2C1C1CC2OC=N1	C1[C@H]2[C@@H]1[C@@H]1C[C@H]2OC=N1	
InChI=1S/C7H9NO/c1-4-5(1)7-2-6(4)8-3-9-7/h3-7H,1-2H2	InChI=1S/C7H9NO/c1-4-5(1)7-2-6(4)8-3-9-7/h3-7H,1-2H2/t4-,5+,6+,7-/m1/s1
