19
gdb 64662	3.86407	1.04195	1.02892	5.0152	79.36	-0.2434	0.0349	0.2783	1237.8274	0.159475	-382.042245	-382.033629	-382.032685	-382.075608	32.597	
C	-0.1391742485	 1.6328647953	-0.2009509992	-0.487252
C	-0.0319637353	 0.1237274366	-0.1335794272	 0.324178
C	-1.2123436546	-0.5460761459	 0.5761987154	-0.399394
C	-1.4017152745	-0.0555261038	 1.9420638539	 0.278776
N	-1.5550962209	 0.3499842619	 3.0130123665	-0.316509
C	 0.5887363548	-0.7214578367	-1.1807666208	-0.071016
C	 1.7867528885	-0.0591787484	-1.8572286762	-0.27007
C	 2.3694373061	 0.1262852951	-0.433286351	-0.159089
N	 1.214747794	-0.5992050297	 0.2081647293	-0.165507
H	 0.6429273582	 2.091063083	-0.8067472995	 0.128229
H	-1.1012484069	 1.9168317318	-0.6409252342	 0.125819
H	-0.0932173035	 2.0659916803	 0.8034290383	 0.153342
H	-2.137736615	-0.3730192904	 0.0139285319	 0.146882
H	-1.0447591404	-1.626397762	 0.6170069672	 0.159781
H	 0.1265354554	-1.6470036639	-1.514817665	 0.091986
H	 2.3669503298	-0.7616151654	-2.4575703739	 0.118691
H	 1.5858759238	 0.8304073007	-2.4610503589	 0.10868
H	 3.2846029842	-0.4420454442	-0.2600947109	 0.119573
H	 2.5172378948	 1.1460724957	-0.0681875955	 0.112901
62.3722	121.8617	169.462	242.595	274.6416	311.5027	356.8283	391.8214	414.59	444.7566	580.5368	679.6849	761.1492	784.7077	825.9875	852.0397	927.044	935.1567	965.4273	974.5485	993.8831	1016.4924	1055.9313	1101.6721	1114.2049	1152.5304	1213.4891	1218.714	1234.1855	1267.9103	1298.513	1312.9277	1343.1323	1422.9238	1425.5224	1452.2832	1479.1559	1499.18	1503.3046	1518.1217	2363.3501	3042.7682	3045.5254	3058.0218	3067.7952	3096.8635	3102.4509	3111.0936	3127.5879	3140.5341	3144.7887
CC1(CC#N)C2CCN12	C[C@@]1(CC#N)[C@H]2CCN12	
InChI=1S/C7H10N2/c1-7(3-4-8)6-2-5-9(6)7/h6H,2-3,5H2,1H3	InChI=1S/C7H10N2/c1-7(3-4-8)6-2-5-9(6)7/h6H,2-3,5H2,1H3/t6-,7-,9?/m1/s1
