16
gdb 44289	3.91847	1.76515	1.55702	3.255	71.68	-0.2503	0.0241	0.2744	861.6746	0.127861	-400.71588	-400.710104	-400.709159	-400.745854	24.697	
N	-0.0427632205	 1.307817295	-0.0161966875	-0.555053
C	-0.0066968288	 0.0465742312	-0.0120079323	 0.431841
O	 1.1429333334	-0.716105153	-0.0153002164	-0.262474
C	 0.7443551299	-2.0915493231	 0.0246145945	 0.096421
C	 0.0667230214	-2.5310331156	 1.3236011216	-0.098381
C	-1.1492805176	-3.0545483836	 0.5875109327	-0.120649
C	-1.2449203911	-1.7379875758	 1.3119762125	-0.066465
C	-1.1746328968	-0.9036528164	 0.0077626517	-0.135549
C	-0.6521860346	-2.2193143982	-0.6428509402	-0.088975
H	 0.9040573805	 1.6928741243	-0.0067661376	 0.220163
H	 1.5597492338	-2.7107510229	-0.3449614519	 0.092048
H	 0.5181895561	-2.8850344979	 2.2400557165	 0.097793
H	-1.6983168549	-3.9780101759	 0.6821961688	 0.103971
H	-1.7677561101	-1.493649883	 2.226151449	 0.10381
H	-2.1170164057	-0.4867607889	-0.3376876104	 0.096433
H	-0.772758645	-2.4381415561	-1.7003165709	 0.085067
150.0687	347.771	402.5596	496.7004	611.0199	656.791	698.6243	776.2873	800.5189	820.1666	823.3626	853.0681	885.8084	894.8504	908.4978	910.7816	964.5737	978.7007	1002.1844	1019.2516	1028.2346	1040.1728	1062.8649	1079.1976	1144.4373	1173.7733	1178.7574	1215.4568	1247.7891	1256.3854	1284.5885	1307.2112	1360.7332	1371.7271	1784.2275	3137.8146	3154.0313	3161.5677	3209.3403	3216.2403	3245.4508	3462.7268
N=C1OC2C3C4C3C1C24	[NH][C]1O[C@H]2[C@@H]3[C@H]4[C@@H]3[C@@H]1[C@@H]24	
InChI=1S/C7H7NO/c8-7-5-2-1-3(2)6(9-7)4(1)5/h1-6,8H	InChI=1S/C7H7NO/c8-7-5-2-1-3(2)6(9-7)4(1)5/h1-6,8H/t1-,2+,3-,4+,5-,6+/m1/s1
