17
gdb 10945	5.42437	1.35318	1.21978	4.2969	71.03	-0.2321	0.0256	0.2577	1011.5883	0.141949	-363.853021	-363.84534	-363.844396	-363.885091	28.477	
C	-0.1890171079	 1.5230245449	 0.0470198788	-0.493896
C	 0.0671895936	 0.0463649091	-0.0041199099	 0.313734
C	-0.7437761546	-0.9816453892	 0.7510230252	-0.333437
C	 0.7381443363	-0.8799979713	 1.0075684178	-0.069453
N	 1.480069026	-1.5178596496	-0.0704835631	-0.037146
C	 0.8850027483	-0.656867122	-1.1085573237	-0.23043
C	 1.9246246258	-2.7945516186	-0.1960147896	 0.131012
O	 2.192740344	-3.3312421971	-1.2504524706	-0.326467
H	 0.7238085903	 2.0939009941	-0.155549647	 0.125345
H	-0.9394948071	 1.8190951909	-0.6954694727	 0.128852
H	-0.5634658829	 1.825155417	 1.0299982311	 0.124127
H	-1.3769264959	-0.5727206591	 1.533114784	 0.119517
H	-1.1464134036	-1.8605583166	 0.253792789	 0.119807
H	 1.1928367216	-0.6725533411	 1.9689642622	 0.111074
H	 0.3328426393	-1.2009623432	-1.8811739564	 0.127124
H	 1.6293352559	-0.0074965874	-1.5806117891	 0.122061
H	 2.0565212909	-3.2814447709	 0.792871484	 0.068173
71.2018	167.0688	193.8932	235.5114	308.2769	334.8548	389.0426	466.6302	538.6949	637.5882	758.2197	806.0684	867.587	915.3071	951.9543	967.3751	999.4745	1029.2396	1037.1042	1069.8717	1094.8528	1127.3943	1157.3196	1177.1356	1247.1989	1263.2847	1293.2089	1392.058	1400.0007	1427.427	1438.7829	1485.8656	1487.5866	1498.0297	1512.7196	1793.3275	2917.1753	3026.0085	3043.8506	3085.5393	3095.016	3102.7879	3111.1244	3183.1295	3202.6338
CC12CC1N(C2)C=O	C[C@]12C[C@H]1N(C2)C=O	
InChI=1S/C6H9NO/c1-6-2-5(6)7(3-6)4-8/h4-5H,2-3H2,1H3	InChI=1S/C6H9NO/c1-6-2-5(6)7(3-6)4-8/h4-5H,2-3H2,1H3/t5-,6-/m1/s1
