20
gdb 105031	2.501	1.23309	0.98427	2.5927	75.35	-0.2523	-0.0341	0.2182	1270.1071	0.168974	-440.266978	-440.257213	-440.256269	-440.302104	35.769	
C	 0.3631991174	 1.2325696246	-0.4699699114	-0.390037
C	 0.0310150116	-0.2075159305	-0.0580739454	-0.263447
C	 0.8570944438	-0.7283873561	 1.1065393681	 0.300377
C	 1.2413577299	-2.1621091426	 1.1186786757	-0.288266
N	 2.2594542414	-1.1177283537	 0.8786851688	-0.358738
C	 0.6286981694	 0.0098585733	 2.4290662601	 0.003682
O	-0.733757431	 0.0151686167	 2.7640069095	-0.434266
C	 1.447540775	-0.5580001827	 3.5747029743	 0.120711
O	 0.9168520614	-0.8905713826	 4.6092709981	-0.274412
H	 1.4251925892	 1.3478321774	-0.71323744	 0.114794
H	-0.2145135635	 1.5208858113	-1.3529679776	 0.11895
H	 0.1214162817	 1.9446467116	 0.3247043392	 0.133185
H	-1.0271793316	-0.2793759099	 0.2131395438	 0.131843
H	 0.1862704492	-0.8785991309	-0.9126334007	 0.088854
H	 1.3485281683	-2.704147138	 2.0551598241	 0.126975
H	 0.922786092	-2.7787170825	 0.2826068484	 0.116453
H	 2.4805700431	-1.0650562122	-0.112896845	 0.232505
H	 0.9963919504	 1.0455635273	 2.2976805152	 0.094615
H	-0.7747223558	-0.3347474237	 3.6692299979	 0.29463
H	 2.5367101581	-0.6315081567	 3.4143183268	 0.131593
45.1654	87.1796	111.7621	203.5241	212.2083	251.399	285.7622	330.2933	354.7086	422.7327	432.6265	474.7685	552.9128	680.5705	763.0548	792.9852	848.8772	879.4716	908.3881	940.3098	984.1638	1003.2588	1035.6052	1052.1644	1093.6811	1115.3071	1148.801	1160.1327	1240.7259	1264.6817	1275.4347	1303.6298	1338.3185	1366.4142	1381.6706	1406.1996	1415.6889	1444.9936	1477.8991	1501.2787	1506.9802	1519.2279	1802.8069	2929.3519	3001.1354	3025.9068	3036.6711	3079.8885	3105.3838	3106.3249	3112.8634	3188.2717	3494.4407	3672.7968
CCC1(CN1)C(O)C=O	CC[C@]1(CN1)[C@@H](O)C=O	
InChI=1S/C6H11NO2/c1-2-6(4-7-6)5(9)3-8/h3,5,7,9H,2,4H2,1H3	InChI=1S/C6H11NO2/c1-2-6(4-7-6)5(9)3-8/h3,5,7,9H,2,4H2,1H3/t5-,6-/m0/s1
