17
gdb 52783	2.76437	0.95267	0.80675	3.6932	78.26	-0.239	-0.0218	0.2172	1456.7666	0.131822	-421.806855	-421.797006	-421.796062	-421.843693	34.822	
C	 0.1936270756	 1.5742589203	-0.1987808347	-0.498679
C	 0.0949671464	 0.1248983529	-0.1088763276	 0.000364
C	 0.0000394474	-1.07421521	-0.0375839146	 0.083897
C	-0.069522458	-2.5272477325	 0.04398264	 0.22438
O	 0.6348914974	-3.1567864097	-1.0123126803	-0.459693
C	 0.2448961537	-3.0933156017	 1.4842963331	-0.405462
C	-1.2410398204	-3.4543120341	 1.6117445534	 0.428588
O	-1.9299587649	-3.8120244456	 2.521519992	-0.289747
C	-1.5179561751	-3.1114449323	 0.1433129573	-0.38816
H	 0.9811616668	 1.9640985079	 0.4551765907	 0.15174
H	 0.4210646532	 1.8915858917	-1.2222252001	 0.154182
H	-0.7483464436	 2.0507752884	 0.0936847328	 0.156209
H	 1.4746991597	-2.6973588866	-1.1206848309	 0.283959
H	 0.8805792739	-3.9822650169	 1.4207068748	 0.138439
H	 0.644774302	-2.4028773139	 2.2293814722	 0.133115
H	-2.3503284049	-2.435558747	-0.0582072551	 0.138926
H	-1.6120421393	-4.006263561	-0.4801549529	 0.147944
19.2983	34.1865	115.245	117.3066	274.7481	284.3262	312.3066	344.1199	365.493	410.8816	457.2339	488.5315	575.0048	579.264	663.0349	712.6888	818.9962	917.4842	943.2211	997.8314	1002.9419	1051.108	1054.1696	1105.1989	1119.9491	1140.593	1188.1256	1232.6465	1276.4906	1373.9421	1410.1833	1413.9545	1429.2904	1475.7989	1477.7649	1898.9468	2363.414	3029.3868	3059.5232	3066.6521	3091.4706	3092.6344	3130.9095	3136.7148	3810.2487
CC#CC1(O)CC(=O)C1	CC#CC1(O)CC(=O)C1	
InChI=1S/C7H8O2/c1-2-3-7(9)4-6(8)5-7/h9H,4-5H2,1H3	InChI=1S/C7H8O2/c1-2-3-7(9)4-6(8)5-7/h9H,4-5H2,1H3
