19
gdb 117281	4.41858	0.67093	0.58889	4.5935	75.71	-0.2335	-0.0035	0.23	1842.0732	0.156952	-456.371673	-456.360857	-456.359913	-456.40966	36.709	
C	-0.3745625204	 1.4956912356	 0.0145898634	-0.499697
C	 0.1462052644	 0.0615503162	 0.0008336027	 0.409757
O	 1.31828309	-0.2141809215	-0.0122268006	-0.298964
N	-0.8911908847	-0.8747643322	 0.0054017696	-0.363556
C	-0.8355786353	-2.2766134979	-0.0032969473	 0.357671
N	 0.2740189647	-2.8948253671	-0.0181878792	-0.462348
C	-2.2365427762	-2.8726875619	 0.0072608576	-0.275322
C	-2.29276961	-4.3937230026	 0.0010922863	-0.101145
O	-3.6644440851	-4.7520895108	 0.0128019801	-0.421703
H	 0.479121599	 2.1719710242	 0.0081420458	 0.155023
H	-1.0004333762	 1.6957740779	-0.8619268121	 0.13721
H	-0.9792131174	 1.6861196252	 0.9080042483	 0.137363
H	-1.8209499055	-0.4862617906	 0.0169208748	 0.247015
H	 0.1225082244	-3.901475697	-0.0225183718	 0.22079
H	-2.7771086972	-2.5093982276	 0.8909763387	 0.130634
H	-2.7935454304	-2.5015871513	-0.8629110212	 0.130726
H	-1.7835543806	-4.7833693889	-0.8941298156	 0.102723
H	-1.7662583553	-4.7911630807	 0.8827769557	 0.102769
H	-3.7251196581	-5.7117588192	 0.0090526949	 0.291054
34.1965	47.1527	73.106	105.8413	118.8861	119.6099	239.4805	272.5247	303.778	377.3188	425.0755	532.0393	544.4901	546.2255	613.8809	715.0433	810.7497	857.155	902.771	916.5182	1016.172	1047.9664	1051.768	1082.1792	1098.1279	1104.3188	1227.877	1232.0416	1242.9583	1294.409	1311.5094	1373.042	1382.8937	1462.5557	1470.1993	1479.5733	1484.0455	1534.4292	1536.6002	1730.5595	1839.6063	2972.4582	3002.0868	3024.0667	3038.703	3061.9665	3100.9173	3166.2735	3503.8901	3631.2564	3833.515
CC(=O)NC(=N)CCO	CC(=O)NC(=N)CCO	
InChI=1S/C5H10N2O2/c1-4(9)7-5(6)2-3-8/h8H,2-3H2,1H3,(H2,6,7,9)	InChI=1S/C5H10N2O2/c1-4(9)7-5(6)2-3-8/h8H,2-3H2,1H3,(H2,6,7,9)
