25
gdb 96072	2.38108	1.45188	1.06234	0.2147	92.31	-0.252	0.0809	0.3329	1275.8138	0.230585	-352.375003	-352.365821	-352.364877	-352.408183	37.033	
C	-0.0566840986	 1.5623586327	 0.0213957911	-0.393992
C	 0.0495013815	 0.0322734799	 0.0073452451	 0.018344
C	 0.6507253504	-0.4933141009	-1.3070001446	-0.201494
C	 0.8473291022	-2.0106748405	-1.2518937171	-0.199957
C	 1.881536374	-2.4127604566	-0.1886116233	-0.277738
C	 1.6804947606	-1.7209889994	 1.1686528188	 0.348761
C	 1.676515895	-2.656467848	 2.3624664887	-0.470313
C	 2.298090047	-0.3518994149	 1.3581190475	-0.327776
C	 0.7986113103	-0.4871414962	 1.2281436852	-0.037446
H	 0.9355891559	 2.023270257	-0.0357218989	 0.113408
H	-0.6467141148	 1.9257446184	-0.8272691365	 0.10479
H	-0.5350568619	 1.9190513592	 0.9398908191	 0.106948
H	-0.9716641739	-0.3741294225	 0.0677957958	 0.066837
H	-0.0118993709	-0.2211559366	-2.1367925171	 0.089017
H	 1.6116127987	 0.0004775041	-1.5101559691	 0.090188
H	-0.1177184753	-2.482123861	-1.021394686	 0.09171
H	 1.1567182379	-2.3968297608	-2.22964338	 0.08725
H	 1.8433503976	-3.4983509154	-0.0441257284	 0.092147
H	 2.8893155048	-2.1961695452	-0.5660727679	 0.0956
H	 2.6203751097	-3.2111836048	 2.4320463847	 0.112267
H	 1.5445025641	-2.1081762823	 3.3010975594	 0.108184
H	 0.8664745717	-3.3923801927	 2.2889988389	 0.110913
H	 2.7077083206	-0.0986984232	 2.3310691255	 0.099484
H	 2.8529403802	 0.0710548168	 0.5259824438	 0.102259
H	 0.2470721833	-0.3562477172	 2.1573599252	 0.070607
96.8186	154.395	229.006	236.9877	247.1763	271.0413	351.3373	362.5957	375.6791	418.536	453.0482	542.6298	570.5688	704.0653	743.0128	839.583	857.8412	880.1362	893.2838	916.4727	941.9455	976.7514	991.4461	1008.5042	1021.8674	1055.8979	1072.0472	1080.424	1100.9481	1135.6499	1149.0717	1166.9436	1195.3149	1238.9284	1247.28	1301.799	1318.9225	1335.1304	1363.2529	1369.2868	1378.6626	1387.8919	1406.1019	1416.0467	1424.4318	1481.2257	1488.9276	1491.0797	1492.4707	1496.3254	1499.7461	1500.8402	1506.9052	2981.9334	3008.239	3013.1582	3015.0091	3017.6845	3025.6739	3055.3711	3058.4704	3065.947	3073.2685	3091.9664	3093.3371	3095.8708	3114.9996	3118.642	3199.0511
CC1CCCC2(C)CC12	C[C@H]1CCC[C@@]2(C)C[C@@H]12	
InChI=1S/C9H16/c1-7-4-3-5-9(2)6-8(7)9/h7-8H,3-6H2,1-2H3	InChI=1S/C9H16/c1-7-4-3-5-9(2)6-8(7)9/h7-8H,3-6H2,1-2H3/t7-,8-,9-/m0/s1
