17
gdb 7792	3.31393	1.85851	1.27082	5.362	65.24	-0.2496	0.0546	0.3042	953.1751	0.144065	-401.058379	-401.05082	-401.049876	-401.090447	28.235	
C	-0.0162785934	 1.5622745566	 0.0236489742	-0.4065
C	 0.0130654464	 0.0355200035	-0.0389708232	 0.069814
C	 0.7359156558	-0.5007588214	-1.2732011165	-0.221808
C	 0.9841095915	-1.9888079814	-1.0885631783	-0.076552
O	 1.796578875	-2.2422339041	 0.0623036233	-0.241139
C	 1.5550635225	-1.562471635	 1.2159691135	 0.465028
O	 2.1115429319	-1.8860067176	 2.2356032396	-0.395579
N	 0.6817336843	-0.5083498844	 1.138809199	-0.37211
H	 0.9996098201	 1.9693797974	 0.032563402	 0.130942
H	-0.5499304121	 1.9700056454	-0.8403299931	 0.124132
H	-0.5320813319	 1.9084359325	 0.9259158669	 0.120492
H	-1.0272577405	-0.327248964	-0.0688436328	 0.084756
H	 0.1345093911	-0.323869932	-2.1699860854	 0.111111
H	 1.6951056212	 0.014471411	-1.4006606787	 0.118854
H	 0.0336538263	-2.5311886516	-0.9877258675	 0.111824
H	 1.5317613588	-2.4195934848	-1.9297897898	 0.123821
H	 0.5322354131	-0.0604676303	 2.0291917269	 0.252915
76.1127	124.3083	247.7246	259.2064	296.0686	432.1517	449.2058	499.5785	518.2762	558.8645	671.8606	761.1014	802.3062	877.4249	919.3096	982.7065	995.0107	1009.0506	1076.9053	1120.31	1156.1354	1213.1081	1230.0105	1273.9869	1300.7077	1349.5922	1383.8615	1392.8051	1411.573	1437.4778	1462.4048	1480.3656	1496.4392	1499.641	1514.7457	1843.628	2961.657	3013.2888	3033.7702	3044.362	3097.797	3102.8683	3104.0662	3116.9602	3638.4958
CC1CCOC(=O)N1	C[C@H]1CCOC(=O)N1	
InChI=1S/C5H9NO2/c1-4-2-3-8-5(7)6-4/h4H,2-3H2,1H3,(H,6,7)	InChI=1S/C5H9NO2/c1-4-2-3-8-5(7)6-4/h4H,2-3H2,1H3,(H,6,7)/t4-/m0/s1
