23
gdb 118708	3.23836	1.10819	0.96749	0.9394	87.18	-0.2502	0.0847	0.335	1343.9655	0.205626	-388.221432	-388.212158	-388.211214	-388.255738	35.372	
C	-2.5439748912	 1.0208557752	-1.3867220279	-0.221676
O	-2.3181245083	-0.3487703564	-1.1646584634	-0.235549
C	-1.4638109585	-0.5966002021	-0.0611046928	-0.148083
C	-1.214162164	-2.1052123029	 0.0178334145	 0.378267
C	-0.3162158934	-2.4726524124	-1.1706089401	-0.485267
C	-0.9215072124	-2.7257566206	 1.4371779214	-0.097134
C	-2.4141719375	-2.4771737214	 1.8143293486	-0.235264
C	-2.4339106693	-3.0420602426	 0.3645129572	-0.061041
C	-1.408596887	-4.0976927306	 0.8827171982	-0.235988
H	-3.2111556432	 1.1092135996	-2.2479714293	 0.124968
H	-3.0203819012	 1.5042712311	-0.518350174	 0.100973
H	-1.6084861108	 1.5610752792	-1.604859374	 0.101551
H	-0.4993509118	-0.079004778	-0.2087401463	 0.077861
H	-1.9067856375	-0.1761401068	 0.850579947	 0.08625
H	 0.6888253494	-2.0567608902	-1.0302403323	 0.108771
H	-0.2090809973	-3.5435134337	-1.341711957	 0.112943
H	-0.7311904072	-2.0299972343	-2.0802721646	 0.133984
H	-0.0435606158	-2.5450200783	 2.0619139647	 0.062811
H	-2.8178107734	-3.1411082607	 2.5828183977	 0.087386
H	-2.754908555	-1.4568291457	 1.9808513468	 0.092081
H	-3.3099894918	-3.2230425017	-0.2594492785	 0.072624
H	-0.7809570235	-4.615916164	 0.160274237	 0.092182
H	-1.7903884791	-4.7978537129	 1.6300656672	 0.08735
65.0705	91.5164	129.1123	172.3348	227.349	253.4201	329.3213	399.6852	428.0821	434.5828	547.6386	608.6276	703.6468	776.845	798.1318	861.214	896.0501	897.8703	958.3464	968.5971	986.4852	1003.071	1015.098	1026.0874	1080.1586	1093.5241	1109.5551	1128.1696	1153.9302	1176.6289	1180.7594	1191.2037	1203.5198	1218.1798	1224.3398	1239.5643	1252.7929	1257.7686	1320.6926	1403.3044	1420.0723	1478.5458	1484.2347	1489.1207	1499.181	1505.4216	1518.7729	1535.2642	1560.6944	2947.1425	2965.5802	3006.2194	3024.0684	3036.2354	3068.0735	3070.3686	3085.453	3103.4434	3107.2272	3109.7582	3133.4594	3144.5163	3154.3899
COCC1(C)C2CC1C2	COC[C@@]1(C)[C@H]2C[C@@H]1C2	
InChI=1S/C8H14O/c1-8(5-9-2)6-3-7(8)4-6/h6-7H,3-5H2,1-2H3	InChI=1S/C8H14O/c1-8(5-9-2)6-3-7(8)4-6/h6-7H,3-5H2,1-2H3/t6-,7+,8-
