24
gdb 121926	3.08271	0.69998	0.62151	1.9794	86.92	-0.2236	0.084	0.3077	1882.0024	0.21569	-405.511017	-405.50011	-405.499166	-405.548228	39.294	
C	-0.1139017224	 1.5842798607	 0.2014086698	-0.422553
C	 0.0323369362	 0.0562884814	 0.1118310321	 0.063172
C	-1.3507242474	-0.6157260104	 0.07397171	-0.181504
C	-1.3062189816	-2.1345774163	 0.2564946223	-0.164451
C	-2.6802925949	-2.7808947346	 0.1507746409	-0.075092
O	-2.5276710972	-4.1782743819	 0.3571397393	-0.421649
N	 0.8311732768	-0.4716054785	-1.0065621765	-0.064587
C	 0.9703106633	 0.2673356964	-2.2538747907	-0.222473
C	 2.1278511236	 0.0944689843	-1.3287903524	-0.226043
H	 0.849176725	 2.1014394965	 0.1522799788	 0.115006
H	-0.7552443836	 1.9773640399	-0.5944008535	 0.11832
H	-0.5769457127	 1.8518930997	 1.1560383184	 0.118022
H	 0.5529456337	-0.2858743393	 1.0168761158	 0.081712
H	-1.9785801743	-0.1651551508	 0.8538809455	 0.086766
H	-1.8266187723	-0.3669454991	-0.8852746328	 0.092521
H	-0.6425027575	-2.5746756611	-0.4929901263	 0.124904
H	-0.8826033199	-2.3819009787	 1.2381914744	 0.096581
H	-3.3611004341	-2.3421349834	 0.9000081711	 0.07697
H	-3.114436656	-2.5707729125	-0.8411761513	 0.080176
H	-3.3944635336	-4.588074461	 0.2856214035	 0.282626
H	 0.8923811411	-0.3239863458	-3.1625857542	 0.113029
H	 0.5511050064	 1.2678793906	-2.3300582288	 0.108022
H	 2.4679466395	 0.9815578301	-0.7967919234	 0.106422
H	 2.9131734318	-0.6249451063	-1.5476605218	 0.114102
39.763	67.3596	73.5512	126.3801	150.5789	238.1105	250.5959	265.703	291.1343	312.9445	318.0612	470.6796	498.4521	538.3942	692.167	767.862	816.8127	863.8284	884.48	915.2535	952.8218	1003.1087	1014.3689	1031.5172	1050.96	1072.0863	1098.739	1109.972	1119.855	1145.9628	1157.1543	1176.8676	1185.0534	1222.9891	1237.9673	1294.8187	1304.0621	1313.5869	1333.4137	1349.3018	1377.3683	1395.8249	1405.3619	1463.7275	1479.2706	1485.8558	1494.5545	1503.0796	1508.9365	1524.4947	1529.2854	2950.5915	2974.6694	3004.3859	3013.3902	3033.4638	3036.1372	3047.5658	3090.9513	3101.1476	3103.019	3105.9162	3107.3405	3168.2557	3186.1056	3829.7387
CC(CCCO)N1CC1	C[C@@H](CCCO)N1CC1	
InChI=1S/C7H15NO/c1-7(3-2-6-9)8-4-5-8/h7,9H,2-6H2,1H3	InChI=1S/C7H15NO/c1-7(3-2-6-9)8-4-5-8/h7,9H,2-6H2,1H3/t7-/m0/s1
