20
gdb 59893	2.97131	0.94085	0.88227	3.7548	77.21	-0.2276	-0.0334	0.1943	1432.4941	0.168127	-440.25306	-440.242995	-440.24205	-440.289311	35.343	
C	-0.6719100367	 1.4739705548	 0.4619546553	-0.31541
N	-0.6637998141	 0.0890033683	 0.0129994261	-0.06024
C	 0.665910277	-0.3280756962	-0.4141201537	-0.323654
C	-1.2273249804	-0.8204335547	 0.9985326712	-0.25452
C	-1.6387963457	-2.1591206071	 0.3868895638	 0.345293
O	-1.4290577233	-3.2126434472	 0.9387620545	-0.3048
C	-2.3579480011	-2.0908257169	-0.9401523344	-0.004385
C	-2.1246110654	-3.1664878427	-1.9271541376	-0.162688
O	-3.3154847111	-3.1284458707	-1.165482003	-0.212372
H	-0.3068414427	 2.1213780215	-0.3414344235	 0.122374
H	-1.6931350201	 1.780455102	 0.7075822126	 0.121667
H	-0.0374058729	 1.6468143161	 1.351140448	 0.09948
H	 1.4108894514	-0.2877279459	 0.4023281354	 0.102499
H	 0.6375295171	-1.3549127147	-0.790708493	 0.127704
H	 1.0126137036	 0.319564361	-1.2248470207	 0.123258
H	-0.5621811219	-1.0262159184	 1.8549851334	 0.106598
H	-2.1457351371	-0.3690070499	 1.3991804395	 0.124822
H	-2.6416369186	-1.1037626662	-1.2937570612	 0.110546
H	-2.2259327851	-2.9378788759	-2.9872435128	 0.1204
H	-1.4330294028	-3.964759037	-1.6639131398	 0.133428
42.5086	51.1408	86.0454	144.538	232.2256	241.7672	254.0177	285.303	330.5403	371.2429	385.1169	468.8292	592.7061	689.0151	765.0041	859.4712	883.4195	905.2194	966.5859	1029.1076	1066.5282	1067.091	1096.7906	1122.2272	1133.0685	1163.0714	1169.2714	1194.0727	1196.7968	1270.8588	1298.6488	1307.8693	1366.6221	1412.2396	1446.7347	1460.3285	1479.9369	1483.2326	1496.5638	1499.5061	1506.9229	1512.6913	1816.2199	2934.2732	2940.6351	2960.3396	3034.5164	3062.9504	3067.3494	3085.496	3106.7251	3111.1126	3160.8821	3183.8844
CN(C)CC(=O)C1CO1	CN(C)CC(=O)[C@H]1CO1	
InChI=1S/C6H11NO2/c1-7(2)3-5(8)6-4-9-6/h6H,3-4H2,1-2H3	InChI=1S/C6H11NO2/c1-7(2)3-5(8)6-4-9-6/h6H,3-4H2,1-2H3/t6-/m1/s1
