16
gdb 64798	2.5663	1.27356	0.98792	4.8584	70.13	-0.2871	-0.0911	0.196	1197.6573	0.121507	-437.88358	-437.874325	-437.873381	-437.918917	32.341	
C	 0.4241516974	 1.4152764041	-0.0904162462	-0.46165
C	-0.1405127755	 0.0147682463	-0.0183334401	 0.40384
C	-1.6145556145	-0.099293141	 0.3848548421	-0.374579
C	-1.7946775714	 0.3011523541	 1.8357752829	 0.301776
O	-2.0432373521	 1.4199888248	 2.2097347275	-0.263157
C	-1.6178000012	-0.7854674732	 2.8213227697	 0.246157
N	-1.5174416324	-1.6362996245	 3.5978905432	-0.300905
C	 0.4573420585	-1.0742837039	-0.8049678125	-0.228323
O	 0.7022044738	-0.9654839734	 0.5999149479	-0.25881
H	 0.2771165183	 1.9496047015	 0.8526496017	 0.14946
H	 1.4947686897	 1.3749837019	-0.3024834689	 0.136603
H	-0.0702789953	 1.9910357419	-0.8797064114	 0.129459
H	-2.2205496972	 0.5788121464	-0.2228243087	 0.141741
H	-1.95555312	-1.1276132472	 0.2405407275	 0.134398
H	-0.1512002903	-1.9241053741	-1.1110274708	 0.120773
H	 1.313146222	-0.8621381439	-1.4440073641	 0.123217
30.1455	59.4923	140.9632	172.9857	200.7918	279.6409	325.0817	350.4123	396.699	440.8145	453.4412	616.4694	652.7188	738.6467	794.9514	869.1253	910.9552	926.5472	943.3446	1033.6548	1091.7279	1121.0876	1135.9013	1177.7766	1215.439	1285.0043	1299.5596	1400.2694	1426.5916	1462.3458	1485.9822	1495.568	1533.729	1792.1469	2337.7558	3044.9092	3062.2935	3085.7791	3112.1009	3123.9029	3134.9361	3173.5165
CC1(CC(=O)C#N)CO1	C[C@@]1(CC(=O)C#N)CO1	
InChI=1S/C6H7NO2/c1-6(4-9-6)2-5(8)3-7/h2,4H2,1H3	InChI=1S/C6H7NO2/c1-6(4-9-6)2-5(8)3-7/h2,4H2,1H3/t6-/m1/s1
