23
gdb 101709	2.68901	0.95877	0.91684	2.0618	82.56	-0.2384	0.0747	0.3131	1452.5224	0.203579	-425.404849	-425.39434	-425.393396	-425.440678	38.888	
C	 0.1710568814	 1.4843752441	-0.4191591195	-0.396452
C	 0.0122524857	 0.0314886069	 0.0260119121	 0.114777
C	-1.4521678416	-0.4066665865	 0.0944219679	-0.065513
O	-2.0726858975	-0.3634150532	-1.1766099075	-0.422559
O	 0.6152043221	-0.9009057729	-0.8784710965	-0.280565
C	 2.0110650029	-0.8867861377	-0.9218339253	 0.138847
C	 2.6567147843	-1.8065469423	-1.9103934233	-0.334578
C	 2.7504606916	-0.3040044206	-2.108261781	-0.020414
C	 2.0099841339	 0.3462067204	-3.2545567828	-0.401802
H	 1.2237526398	 1.7459946508	-0.550746716	 0.120017
H	-0.3591708973	 1.6488998026	-1.3599378758	 0.135146
H	-0.2517607927	 2.1536460923	 0.337396312	 0.112842
H	 0.4640140084	-0.1013877334	 1.0230556312	 0.065438
H	-1.4980813051	-1.4176548775	 0.5270547056	 0.090728
H	-2.0136675036	 0.2689584567	 0.7477310277	 0.104615
H	-1.5097877151	-0.888341606	-1.7577130461	 0.290563
H	 2.4726447286	-0.7894169551	 0.061224176	 0.083398
H	 3.5338395169	-2.3691351639	-1.6105619332	 0.111815
H	 1.9819120917	-2.3408237101	-2.5716323223	 0.118641
H	 3.7139674758	 0.1437024946	-1.8758399455	 0.081824
H	 1.0137963733	-0.0886203981	-3.3703289054	 0.121336
H	 1.8836693729	 1.4216192926	-3.0904132384	 0.116616
H	 2.5508011538	 0.2129174762	-4.1976225838	 0.115281
46.1891	85.9393	112.3792	176.3035	203.7891	216.0375	243.2786	282.6056	320.7349	344.1772	413.7914	431.5567	475.3861	575.8915	649.7461	776.8485	798.4034	814.6746	855.128	908.8105	920.3988	946.6913	1008.3248	1019.628	1044.9076	1078.445	1099.2648	1117.6751	1138.7115	1139.7982	1159.0672	1180.7203	1192.7074	1241.9329	1248.9163	1341.9614	1360.6088	1384.8481	1386.9704	1411.3068	1418.8036	1422.3637	1435.8206	1483.6933	1489.4829	1493.9286	1498.0786	1500.2769	1507.415	2966.8326	2993.1228	3034.1751	3046.1878	3080.9993	3092.2596	3093.4777	3113.5319	3115.0499	3130.8627	3135.3985	3138.0782	3218.0823	3798.4963
CC(CO)OC1CC1C	C[C@@H](CO)O[C@H]1C[C@H]1C	
InChI=1S/C7H14O2/c1-5-3-7(5)9-6(2)4-8/h5-8H,3-4H2,1-2H3	InChI=1S/C7H14O2/c1-5-3-7(5)9-6(2)4-8/h5-8H,3-4H2,1-2H3/t5-,6+,7+/m1/s1
