19
gdb 119810	5.72119	0.75635	0.67919	3.1575	78.03	-0.2422	-0.0072	0.235	1652.2739	0.159467	-419.274644	-419.265492	-419.264548	-419.309637	33.043	
C	-0.0555304531	 1.5991456054	 0.0116113679	-0.388119
C	 0.0211803983	 0.0709935692	 0.002813215	-0.152481
C	-1.3638744457	-0.58112859	 0.0118694311	-0.305496
C	-1.3300129377	-2.0790240899	 0.0041830952	 0.395049
N	-0.2761501196	-2.8055984454	-0.0063417039	-0.2943
C	-0.7288382336	-4.1969654642	-0.0099650971	-0.303027
C	-2.2628083226	-4.1622809249	 0.0001841368	 0.40122
O	-3.069484544	-5.0583046777	 0.0013330343	-0.360441
N	-2.5310014977	-2.7979021808	 0.0087424734	-0.377603
H	 0.9448117955	 2.0418170325	 0.0050491495	 0.118722
H	-0.5917862793	 1.9787935606	-0.8655863765	 0.11371
H	-0.5760221874	 1.9693716168	 0.9022291733	 0.113721
H	 0.5719461487	-0.2774959592	-0.8765639648	 0.118849
H	 0.5877076959	-0.2867915917	 0.8683213997	 0.118992
H	-1.9344841711	-0.2533993981	 0.8931734463	 0.120277
H	-1.9501496209	-0.2446640897	-0.8557412001	 0.120142
H	-0.3639333156	-4.7301963511	-0.8949493893	 0.148632
H	-0.3524784087	-4.7384816105	 0.8651414936	 0.14865
H	-3.4611222313	-2.4114952113	 0.0167551957	 0.263505
39.5562	69.8237	129.3116	152.5405	251.1668	257.6624	319.1746	344.4918	464.4526	504.3167	553.9926	635.961	676.6887	725.3313	746.5742	881.9976	888.3314	908.7564	975.087	977.6574	1039.8643	1063.7332	1111.3941	1125.216	1157.7095	1180.7134	1230.3211	1254.3491	1285.165	1317.4339	1322.7785	1387.7163	1415.7269	1438.0761	1442.7753	1469.5742	1487.6837	1502.0275	1508.6409	1703.4391	1855.0227	3003.6843	3028.6649	3028.9268	3050.3586	3056.7824	3079.0494	3084.0967	3104.8187	3107.1592	3652.053
CCCC1=NCC(=O)N1	CCCC1=NCC(=O)N1	
InChI=1S/C6H10N2O/c1-2-3-5-7-4-6(9)8-5/h2-4H2,1H3,(H,7,8,9)	InChI=1S/C6H10N2O/c1-2-3-5-7-4-6(9)8-5/h2-4H2,1H3,(H,7,8,9)
