17
gdb 57582	2.98301	0.7655	0.71839	3.1857	82.21	-0.2648	-0.0716	0.1932	1612.3514	0.131109	-421.817092	-421.806526	-421.805582	-421.854246	35.514	
C	-0.0224942511	 1.6173510737	-0.033121558	-0.405763
C	 0.0195577067	 0.0802271372	-0.0451504768	-0.038557
C	 0.66325522	-0.4790095523	 1.2541401431	-0.414861
C	-1.4082807058	-0.506646526	-0.1120277432	 0.160185
O	-2.4084104491	 0.1487538634	-0.0225336237	-0.235729
C	 0.744281548	-0.436293372	-1.2021971826	 0.170178
C	 1.3084572562	-0.9045634651	-2.1635844297	-0.057382
C	 2.0082221646	-1.4178694728	-3.3140726721	 0.024384
O	 1.9283493846	-2.5579812794	-3.7095675005	-0.226393
H	 0.9883221196	 2.0228381802	 0.05526205	 0.12412
H	-0.4763580096	 2.0014946639	-0.9488857165	 0.13936
H	-0.6228034312	 1.9638979607	 0.8110359244	 0.136527
H	 0.1215395873	-0.1000207876	 2.1254846144	 0.137533
H	 0.6405926437	-1.5720404484	 1.2704422104	 0.139285
H	 1.7056366688	-0.1583062769	 1.3211663733	 0.141837
H	-1.4316828599	-1.6113807866	-0.2301484111	 0.10264
H	 2.6452384872	-0.6694283418	-3.8274467913	 0.102638
32.4218	59.3496	83.1464	119.1476	196.8715	203.9906	243.7427	247.0945	284.925	323.6062	333.7182	470.2143	524.258	553.8638	649.58	750.1363	836.9866	901.2618	957.6719	1013.4763	1021.0783	1044.6395	1073.1526	1160.1838	1218.4681	1262.3953	1393.2244	1402.5136	1421.8343	1424.2688	1478.4666	1482.2246	1495.3784	1504.8124	1767.494	1840.3137	2315.9865	2905.9527	2921.9419	3044.5933	3056.8016	3124.5411	3128.8038	3135.9205	3139.7457
CC(C)(C=O)C#CC=O	CC(C)(C=O)C#CC=O	
InChI=1S/C7H8O2/c1-7(2,6-9)4-3-5-8/h5-6H,1-2H3	InChI=1S/C7H8O2/c1-7(2,6-9)4-3-5-8/h5-6H,1-2H3
