16
gdb 35701	2.53622	1.50756	1.12051	3.8291	68.82	-0.2716	-0.0078	0.2637	1083.5637	0.124028	-437.851853	-437.843804	-437.84286	-437.885357	28.907	
N	-0.2156796744	-1.1251907758	-0.4234213217	-0.326979
C	-0.1551530134	-0.0137440525	-0.1110688539	 0.284717
C	-0.0238385351	 1.397393283	 0.2413164007	-0.057732
O	 0.1070384502	 1.6226806609	 1.6542115544	-0.281389
C	 1.3102713631	 2.407692951	 1.4728264353	-0.124674
C	 1.3575071639	 2.081473098	-0.0299901979	 0.351172
C	 2.5290180607	 1.3759877187	-0.7306871411	-0.358742
C	 2.444107013	 2.5486131394	-1.7276375649	-0.076863
O	 1.3720784174	 3.1560351149	-0.9597673847	-0.301357
H	-0.8497438636	 1.9710198911	-0.1984557855	 0.134962
H	 1.1441349186	 3.4720564965	 1.6752082816	 0.124547
H	 2.1383308457	 2.0316370346	 2.083047484	 0.120229
H	 3.4442487422	 1.3332295437	-0.138022503	 0.124622
H	 2.3084615603	 0.3846667198	-1.1283931098	 0.147911
H	 3.3183778479	 3.2043202872	-1.7838136374	 0.11831
H	 2.1163857335	 2.2903426995	-2.7397656161	 0.121267
60.2271	89.0605	134.1476	201.7049	273.074	364.6459	377.2349	478.123	549.0057	589.5192	781.8003	801.0722	872.9141	895.8651	920.6242	962.9539	971.8353	1017.7011	1019.4181	1056.4275	1120.9721	1151.2042	1162.6877	1179.888	1222.0819	1226.1014	1235.5735	1283.1677	1336.1015	1352.0207	1362.4546	1486.039	1507.6213	1530.7118	2352.2225	3028.4397	3036.0265	3042.8416	3085.3034	3087.6097	3091.1807	3144.3744
N#CC1OCC11CCO1	N#C[C@H]1OC[C@]21CCO2	
InChI=1S/C6H7NO2/c7-3-5-6(4-8-5)1-2-9-6/h5H,1-2,4H2	InChI=1S/C6H7NO2/c7-3-5-6(4-8-5)1-2-9-6/h5H,1-2,4H2/t5-,6+/m1/s1
