21
gdb 115415	3.15553	0.94315	0.90227	3.219	82.44	-0.2392	0.0318	0.2711	1415.5969	0.184284	-383.294449	-383.285079	-383.284135	-383.329394	34.308	
C	-0.1596416701	 1.5323324665	 0.2417975137	-0.387809
C	-0.0185402456	 0.0229189338	 0.0197257853	-0.198473
C	-1.3583538171	-0.7142595774	-0.0516332856	 0.046109
C	-2.2416134964	-0.338778468	-1.2716332588	-0.170912
N	-2.7684174295	-1.6176267744	-1.7923573369	-0.295928
C	-2.5621440783	-2.6657486691	-0.7949005678	-0.132359
C	-1.2240715343	-2.2456982491	-0.1616030431	-0.232421
C	-3.641832431	-2.7394918391	 0.2171082806	 0.258513
N	-4.5137203375	-2.7711353765	 0.9767070932	-0.332888
H	 0.8202152185	 2.015517179	 0.301325031	 0.116382
H	-0.7138530832	 2.0095944357	-0.5734713944	 0.121246
H	-0.6935303102	 1.7451779912	 1.1745044819	 0.119129
H	 0.5411979535	-0.165435862	-0.9065255739	 0.098399
H	 0.5800009893	-0.4073587537	 0.8326848169	 0.098937
H	-1.9237498395	-0.493197841	 0.862119825	 0.092122
H	-3.037904532	 0.3572980018	-0.9812742739	 0.105859
H	-1.6491831117	 0.1523268032	-2.0544242395	 0.104697
H	-3.7287644575	-1.5556159562	-2.1045795054	 0.233314
H	-2.4988940244	-3.6471537955	-1.2777998274	 0.121804
H	-0.4222021936	-2.5151727308	-0.8565871867	 0.114044
H	-1.0336054693	-2.7330644082	 0.7963583757	 0.120237
51.9689	75.1319	117.5866	167.9611	210.8616	233.8831	291.867	375.8306	416.6348	467.085	534.3135	614.9193	678.6627	774.2452	804.4657	834.2251	849.5438	934.3894	951.8677	963.1581	983.3052	1001.5297	1056.2395	1072.3256	1135.7013	1148.8674	1161.8187	1205.7973	1223.8321	1250.3287	1298.3946	1302.9621	1334.6958	1356.3708	1360.1453	1370.5366	1397.5145	1410.4259	1448.8683	1482.0282	1487.5422	1498.902	1506.652	1529.9959	2339.1138	3010.215	3013.1538	3022.1828	3031.8759	3042.9151	3046.5047	3053.3534	3061.5862	3098.7575	3105.5146	3122.4584	3570.4172
CCC1CNC(C1)C#N	CC[C@H]1CN[C@@H](C1)C#N	
InChI=1S/C7H12N2/c1-2-6-3-7(4-8)9-5-6/h6-7,9H,2-3,5H2,1H3	InChI=1S/C7H12N2/c1-2-6-3-7(4-8)9-5-6/h6-7,9H,2-3,5H2,1H3/t6-,7+/m1/s1
