13
gdb 129141	3.18524	1.49748	1.0186	4.8599	80.7	-0.2233	-0.0715	0.1518	1066.4778	0.08979	-411.727444	-411.719874	-411.71893	-411.759873	28.333	
N	-0.0383619159	 1.3059531773	 0.0105969471	-0.512493
C	-0.0413895161	 0.0308653637	 0.0034091011	 0.305219
N	 1.1982330675	-0.6938138745	-0.0084413678	-0.246987
N	 1.2617809696	-1.949206115	-0.0158568391	-0.031751
N	 0.1061416784	-2.6659647596	-0.0126073942	-0.248779
C	-1.1403660838	-2.1123711616	-0.001746986	-0.037207
C	-1.2776668952	-0.7628507932	 0.0066544278	 0.011449
C	-2.549499106	-0.1452257335	 0.0180178966	 0.276728
C	-3.6356062641	 0.3742647552	 0.027660302	-0.381613
H	 0.9318847009	 1.630092557	 0.0063561833	 0.224628
H	 0.2557319651	-3.6614200248	-0.0191067382	 0.286487
H	-1.9773684571	-2.7991115785	-0.0003830118	 0.153963
H	-4.5844189134	 0.8507219275	 0.0361750592	 0.200356
59.0844	142.4004	188.2712	382.8082	383.9416	406.4294	460.4601	508.1438	554.8333	597.2515	604.7802	622.4627	656.1095	739.4974	801.3082	897.3782	903.222	917.368	959.6629	1053.7861	1203.5281	1225.9557	1309.6118	1370.3166	1448.7971	1591.32	1655.7968	1702.6179	2228.5292	3217.5548	3454.3324	3504.5099	3661.3627
N=C1N=NNC=C1C#C	[NH]c1nn[nH]cc1C#C	
InChI=1S/C5H4N4/c1-2-4-3-7-9-8-5(4)6/h1,3H,(H2,6,7,8)	InChI=1S/C5H9N4/c1-2-4-3-7-9-8-5(4)6/h1,4-9H,3H2
