20
gdb 117580	2.79224	0.91391	0.75446	2.8607	80.73	-0.2422	0.0403	0.2825	1532.6368	0.169285	-403.076668	-403.066541	-403.065597	-403.112305	36.53	
O	-0.2287017103	 1.4925082083	 0.0643095151	-0.420314
C	-0.0208914589	 0.0885815252	 0.0916037265	-0.086296
C	-1.3908906239	-0.5749967482	 0.0417652358	-0.166963
C	-1.3308846509	-2.1197279685	-0.0199450303	-0.198615
C	-0.6792875181	-2.6802174385	 1.1637728022	 0.319172
C	-0.1720831253	-3.1333823283	 2.1563423286	-0.47099
C	-2.7335933801	-2.6985836251	-0.2316044075	 0.022399
C	-3.0824802537	-4.0907726786	 0.1300504648	-0.2593
N	-3.6404515397	-2.9558541723	 0.8929120518	-0.318831
H	 0.6248420526	 1.9242145067	 0.1615092518	 0.286868
H	 0.5827152694	-0.242148062	-0.7708346466	 0.081682
H	 0.5118118999	-0.2223568068	 1.0020152268	 0.100761
H	-1.975147001	-0.2625844051	 0.9133792502	 0.120701
H	-1.9204303409	-0.2128180424	-0.8463425777	 0.111292
H	-0.731728152	-2.3969564398	-0.9006057768	 0.111274
H	 0.2963720398	-3.5334482665	 3.021780224	 0.20268
H	-3.2309903288	-2.2537846458	-1.0918004558	 0.094801
H	-3.802978796	-4.6410589876	-0.4683200434	 0.115649
H	-2.3162987501	-4.6976552104	 0.6037506446	 0.120929
H	-3.1214621518	-2.8668739444	 1.7656026357	 0.233102
70.6	83.7028	100.6631	136.9409	163.603	213.6844	257.316	295.3288	331.9326	383.8314	435.5236	583.6559	627.7104	631.8265	651.4249	775.2243	797.4266	845.9578	888.6679	950.3821	984.4012	991.5704	1047.0273	1066.4586	1092.9086	1104.7437	1128.9145	1153.3439	1193.6364	1219.2754	1239.5176	1269.5691	1292.152	1310.605	1317.676	1347.1773	1349.5329	1409.3817	1465.4118	1490.0514	1508.0858	1528.6211	2226.2512	2957.085	2991.8327	3011.8665	3047.0729	3095.7636	3113.1019	3121.0113	3201.1717	3474.0335	3500.1493	3832.5588
OCCC(C#C)C1CN1	OCC[C@@H](C#C)[C@H]1CN1	
InChI=1S/C7H11NO/c1-2-6(3-4-9)7-5-8-7/h1,6-9H,3-5H2	InChI=1S/C7H11NO/c1-2-6(3-4-9)7-5-8-7/h1,6-9H,3-5H2/t6-,7-/m1/s1
