17
gdb 60695	4.42928	0.86547	0.77263	3.3522	73.71	-0.2406	-0.0603	0.1803	1437.3102	0.135214	-455.134037	-455.125169	-455.124225	-455.168146	32.18	
N	-0.2982603399	 0.8976003345	-0.8585441149	-0.555146
C	-0.2834974305	-0.2330857021	-0.0992327511	 0.268633
C	 1.077061237	-0.8431430453	 0.0834960781	 0.143713
O	 2.0720371412	-0.404377992	-0.4408697952	-0.267182
N	-1.2406994703	-0.829376412	 0.5179279432	-0.287896
C	-2.5698664556	-0.2388219725	 0.448134458	-0.209869
C	-3.278155125	-0.4729172847	-0.8701176166	 0.08959
C	-4.2853031043	 0.4690403018	-1.3724095267	-0.178531
O	-2.9715858088	 0.4379193702	-1.9427067193	-0.2344
H	 0.5772296093	 1.1083475047	-1.3161353627	 0.266169
H	-1.1515884079	 1.1504212084	-1.3381867815	 0.277972
H	 1.0723717484	-1.729327825	 0.7448423402	 0.107308
H	-3.1791860676	-0.6897994186	 1.2405612716	 0.114198
H	-2.5385851417	 0.8477476023	 0.6302460457	 0.105299
H	-3.3361128433	-1.5127519374	-1.1902714591	 0.111854
H	-5.078851136	 0.1185499351	-2.0293077794	 0.125491
H	-4.520403745	 1.3601390627	-0.7927403302	 0.122796
75.9978	88.5339	126.0134	194.8928	219.0585	301.9693	335.7979	365.5003	440.9973	558.5339	565.1864	592.1025	658.9744	689.4535	786.9594	857.6444	910.7377	939.9919	994.5394	1026.6255	1034.8864	1095.4659	1129.8397	1157.1878	1166.6094	1181.4482	1272.5481	1288.6809	1343.5201	1369.8247	1397.0108	1431.0656	1482.5605	1526.333	1624.2867	1717.098	1808.9487	2975.6865	2975.9731	3051.0634	3092.5663	3124.9602	3181.8441	3535.3154	3657.9725
NC(C=O)=NCC1CO1	NC(=NC[C@H]1CO1)C=O	
InChI=1S/C5H8N2O2/c6-5(2-8)7-1-4-3-9-4/h2,4H,1,3H2,(H2,6,7)	InChI=1S/C5H8N2O2/c6-5(2-8)7-1-4-3-9-4/h2,4H,1,3H2,(H2,6,7)/t4-/m0/s1
