17
gdb 50380	2.70696	1.6105	1.42996	2.9732	67.72	-0.251	-0.0304	0.2206	971.8068	0.136273	-458.95345	-458.945865	-458.944921	-458.98596	28.222	
O	-0.1179029674	 0.1302429063	-0.8892735911	-0.243424
C	-0.0452068944	 1.208341148	-0.3622433551	 0.161727
C	 1.2325423801	 1.9724756764	-0.1146990755	 0.000752
O	 2.4468305737	 1.2778272408	-0.4176878029	-0.297831
C	 2.9273629957	 2.3574990211	-1.2582135646	 0.106027
C	 3.0436084334	 1.9745949074	-2.7260034357	-0.244139
C	 1.5765692717	 1.9758388031	-3.181351044	-0.102818
O	 0.9339626341	 3.0022913142	-2.4017958597	-0.26065
C	 1.5697484789	 3.094027422	-1.1523699072	 0.035771
H	-0.9516328747	 1.7543713924	-0.0117095503	 0.081965
H	 1.2193934004	 2.3484609433	 0.9212370957	 0.091536
H	 3.8159469716	 2.8330260554	-0.8339499801	 0.084451
H	 3.6230139355	 2.7377270605	-3.2562240551	 0.110502
H	 3.5302763026	 1.0057468059	-2.8573635615	 0.127056
H	 1.4387920279	 2.2363532047	-4.2329120764	 0.11445
H	 1.1087909525	 1.0055488111	-2.9847006094	 0.137924
H	 1.5128582483	 4.1235812575	-0.797777287	 0.096702
92.6061	102.3873	190.0606	222.4056	253.8908	370.4451	478.3646	624.3231	662.9862	707.0752	792.2027	842.4241	860.2347	880.9691	905.4531	944.2343	970.369	978.0317	1008.5631	1039.7144	1097.0258	1118.5833	1133.0354	1184.0456	1212.7846	1225.3426	1247.9646	1296.415	1310.4101	1322.1933	1353.9999	1368.9134	1402.2547	1418.4656	1467.5637	1516.1048	1836.6693	2865.6566	2980.2395	3053.3587	3055.3183	3074.8716	3109.793	3113.9251	3125.0638
O=CC1OC2CCOC12	O=C[C@H]1O[C@H]2CCO[C@@H]12	
InChI=1S/C6H8O3/c7-3-5-6-4(9-5)1-2-8-6/h3-6H,1-2H2	InChI=1S/C6H8O3/c7-3-5-6-4(9-5)1-2-8-6/h3-6H,1-2H2/t4-,5+,6+/m0/s1
