15
gdb 72078	3.08568	1.68597	1.51901	3.239	63.65	-0.2302	-0.0285	0.2017	906.1735	0.112904	-457.758895	-457.752103	-457.751159	-457.789948	26.915	
C	 0.01923509	 1.4634704093	-0.0221309753	-0.50046
C	-0.0094612761	-0.0268563288	 0.0146009076	 0.422029
O	 1.0381643777	-0.6844583966	-0.7084563729	-0.279716
C	 0.7166297879	-2.0277953142	-0.3801192241	-0.024103
O	 0.5772012891	-2.0438400264	 1.0349620506	-0.250137
C	-0.3089379827	-0.9363096301	 1.1587018873	 0.014546
C	-1.2613757561	-0.9264553726	-0.0495549405	-0.369672
C	-0.7706963179	-2.1019210732	-0.8396870501	 0.521865
O	-1.3159469964	-2.8567422095	-1.5916888645	-0.328592
H	 0.9898035256	 1.8280668494	 0.3282718692	 0.145552
H	-0.1427878292	 1.8329061057	-1.038998887	 0.143847
H	-0.76094393	 1.8762519742	 0.6229675514	 0.132241
H	 1.448127127	-2.7423322713	-0.7414304159	 0.12079
H	-0.5740644842	-0.662767385	 2.1690779636	 0.131684
H	-2.2796114147	-0.5705518308	-0.0346376493	 0.120126
142.9289	201.4764	246.3876	296.7855	419.8812	540.5978	550.3254	575.4426	660.3233	693.621	775.6545	794.8867	827.0531	862.0212	887.5079	902.8478	926.3968	976.2396	1007.3867	1027.1936	1096.4785	1106.5368	1133.5383	1171.9257	1204.6935	1237.9984	1278.9399	1311.6012	1407.495	1450.2049	1476.4572	1499.5657	1895.6112	3043.8447	3113.6275	3123.8668	3205.3333	3236.8421	3249.5948
CC12OC3OC1C2C3=O	C[C@@]12O[C@H]3O[C@@H]1[C@@H]2C3=O	
InChI=1S/C6H6O3/c1-6-2-3(7)5(9-6)8-4(2)6/h2,4-5H,1H3	InChI=1S/C6H6O3/c1-6-2-3(7)5(9-6)8-4(2)6/h2,4-5H,1H3/t2-,4+,5+,6-/m0/s1
