17
gdb 126014	3.00491	1.73697	1.15246	5.738	74.08	-0.2138	0.017	0.2308	1033.5406	0.139633	-414.185943	-414.178642	-414.177697	-414.217736	28.045	
C	-0.2042925554	 1.5373737501	 0.0488852134	-0.404191
C	 0.0560957036	 0.0379736461	 0.0285639797	 0.035884
C	 0.8858465033	-0.4728409129	-1.1870520816	-0.190029
N	 1.6805853889	-1.6058915104	-0.6491419367	-0.417558
C	 1.816901385	-1.3518182523	 0.7147207878	 0.363747
C	 2.4453593709	-1.7361385941	 1.8777723381	-0.198908
N	 1.8772985816	-1.020457345	 2.9013132252	-0.184982
N	 0.9408938484	-0.2350235505	 2.4465286399	-0.190418
N	 0.9255761313	-0.4217360485	 1.1057348697	 0.057104
H	 0.7347685358	 2.0956706599	-0.005262771	 0.131606
H	-0.8325641514	 1.8220867956	-0.8004623113	 0.12534
H	-0.7198829313	 1.8203462997	 0.9695353686	 0.155309
H	-0.8953324036	-0.5062574148	 0.0881665877	 0.113234
H	 0.2486773553	-0.8005073107	-2.0114839883	 0.126197
H	 1.534250688	 0.3387975165	-1.5470940901	 0.112873
H	 2.5400190373	-1.7910549039	-1.147679523	 0.250733
H	 3.2377654323	-2.4435281749	 2.0514083118	 0.114061
115.4852	150.6902	216.9731	265.9542	314.5396	432.998	489.162	558.1857	647.7308	688.109	701.9074	726.1048	789.3451	803.7233	908.5261	953.4555	1004.482	1012.2063	1069.4666	1107.5743	1112.8904	1144.132	1165.3771	1225.5182	1260.1845	1278.2415	1312.9582	1334.9278	1350.1644	1386.5453	1412.4018	1417.5361	1488.0231	1498.7933	1513.134	1520.652	1616.4952	3001.4408	3023.2734	3046.7308	3100.7757	3120.8982	3133.3535	3283.8985	3586.6856
CC1CNC2=CN=NN12	C[C@H]1CNc2cnnn12	
InChI=1S/C5H8N4/c1-4-2-6-5-3-7-8-9(4)5/h3-4,6H,2H2,1H3	InChI=1S/C5H8N4/c1-4-2-6-5-3-7-8-9(4)5/h3-4,6H,2H2,1H3/t4-/m0/s1
