19
gdb 46376	4.02443	0.8732	0.78703	2.1943	77.85	-0.2437	0.0287	0.2724	1469.293	0.159865	-419.168527	-419.159965	-419.159021	-419.20283	31.323	
N	 0.7651998782	 1.0499255965	 0.8698300536	-0.548411
C	 0.2735187143	 0.0205021474	 0.3494449585	 0.425156
O	 0.8663742329	-1.1557750558	-0.0581724225	-0.255756
C	-0.4267172025	-1.7140478262	-0.465075967	-0.086061
C	-1.1294342961	-0.4103111501	-0.034801429	-0.1287
C	-2.1436986434	-0.4937858677	 1.0988082028	-0.16579
N	-3.3548498523	-1.1628581337	 0.6375945659	-0.068413
C	-4.5610802939	-0.9190579703	 1.4203189332	-0.220619
C	-4.3929067743	-0.2999200983	 0.0768923301	-0.223085
H	 1.7753890419	 0.959454219	 0.9918401261	 0.22755
H	-0.4314062386	-1.9476346743	-1.5316386993	 0.121493
H	-0.6740893317	-2.6010962576	 0.1224323737	 0.127745
H	-1.5392261104	 0.1655139688	-0.8690136224	 0.107922
H	-1.7255279169	-1.0786610387	 1.9270089601	 0.110595
H	-2.3355139268	 0.5223237394	 1.4848694724	 0.106144
H	-5.2163055248	-1.7742807062	 1.5574838161	 0.120305
H	-4.4837265623	-0.2592319756	 2.2830331394	 0.114905
H	-4.2030473032	 0.7721461569	 0.0457831361	 0.115309
H	-4.92410071	-0.6947435637	-0.7841109176	 0.119712
61.6723	80.4439	119.4524	135.6313	237.5749	313.9541	397.9216	413.6114	517.3367	634.3064	728.1091	775.1235	834.7963	862.2029	876.13	895.1201	926.6576	962.7964	969.8524	1017.0717	1027.5433	1039.6377	1106.0679	1115.3305	1121.7348	1137.7738	1153.8556	1177.2732	1196.316	1220.9474	1241.2557	1272.5765	1320.919	1334.7138	1371.564	1399.4083	1487.0136	1495.6362	1517.8623	1522.2271	1821.6202	2957.6316	3049.0013	3070.0988	3082.1742	3093.8943	3099.7277	3130.7426	3179.5176	3193.7495	3475.0847
N=C1OCC1CN1CC1	[NH][C]1OC[C@H]1CN1CC1	
InChI=1S/C6H10N2O/c7-6-5(4-9-6)3-8-1-2-8/h5,7H,1-4H2	InChI=1S/C6H10N2O/c7-6-5(4-9-6)3-8-1-2-8/h5,7H,1-4H2/t5-/m1/s1
