15
gdb 76295	2.48321	1.55057	1.13371	1.8488	61.52	-0.2486	-0.0558	0.1927	1047.4724	0.110282	-494.928284	-494.919586	-494.918642	-494.962198	31.455	
O	-0.2420514132	 1.4295641098	-0.3410175451	-0.438651
C	-0.024561568	 0.0689890772	 0.0294704437	-0.024578
C	-1.4201862946	-0.5760808847	 0.0337300699	 0.033879
O	-2.4107164498	 0.1225554807	 0.7169026954	-0.418315
C	-1.6783497645	-0.7919488035	-1.4758829634	 0.347643
O	-2.7268308116	-0.6233282669	-2.0339153897	-0.292075
C	-0.3406796518	-1.1623332691	-2.1155869784	-0.440168
C	 0.7073338109	-0.6015597368	-1.1530060436	 0.378874
O	 1.9008651951	-0.6099627641	-1.3007884813	-0.305048
H	 0.6146852666	 1.8660177849	-0.4069270005	 0.306381
H	 0.5236409643	-0.0208444937	 0.972927286	 0.097359
H	-1.340861986	-1.5688548662	 0.4991934954	 0.121686
H	-2.4685613874	 0.9983643662	 0.3164403869	 0.300587
H	-0.2294880088	-2.2535866035	-2.1612377284	 0.165607
H	-0.2375099812	-0.7856200904	-3.135889357	 0.166818
52.0443	82.0443	182.8091	216.785	246.1073	332.2042	363.7514	376.0225	413.7324	524.2926	537.0349	577.7208	631.4502	732.7635	756.0507	813.6437	906.9911	964.3902	1024.3446	1095.1107	1130.5674	1146.3396	1179.8272	1206.538	1222.1696	1263.4029	1282.3629	1331.9016	1397.2395	1403.4692	1433.8999	1840.7024	1879.3486	3024.2551	3044.6417	3062.761	3115.5592	3802.6815	3811.2983
OC1C(O)C(=O)CC1=O	O[C@H]1[C@@H](O)C(=O)CC1=O	
InChI=1S/C5H6O4/c6-2-1-3(7)5(9)4(2)8/h4-5,8-9H,1H2	InChI=1S/C5H6O4/c6-2-1-3(7)5(9)4(2)8/h4-5,8-9H,1H2/t4-,5+
