20
gdb 87413	3.35188	1.505	1.28333	1.6238	82.48	-0.2358	0.0792	0.315	1056.9623	0.171632	-365.929805	-365.922175	-365.921231	-365.961599	30.917	
C	-0.0685785361	 1.5590614823	 0.0038499448	-0.408281
C	-0.0203343753	 0.0506596762	 0.1127599927	-0.078539
C	 1.2786755976	-0.7037844255	-0.158221828	-0.385859
C	 0.7141641608	-0.6301344398	 1.2200903366	 0.444036
C	 1.3672668921	-0.1211080962	 2.4973154952	-0.188274
C	 0.131630183	 0.1041489864	 3.4173215222	-0.242
C	-0.0806406058	-1.4053379469	 3.3060253549	-0.04012
C	 1.3327003637	-1.640027956	 2.9351108701	-0.047211
N	 0.2734023797	-1.8685612211	 1.9094235253	-0.190458
H	 0.8501050505	 2.0139704869	 0.3895827657	 0.111943
H	-0.179908308	 1.877589601	-1.0385317169	 0.118596
H	-0.9079601608	 1.9773003944	 0.5706194527	 0.117543
H	-0.9196024515	-0.4645882491	-0.2165489601	 0.091441
H	 1.2188554046	-1.6548130462	-0.6765668362	 0.119552
H	 2.1654287364	-0.1175883839	-0.3823025275	 0.106519
H	 2.2146955981	 0.5612902798	 2.5039704094	 0.074583
H	 0.4228618061	 0.3762145852	 4.4353413511	 0.103189
H	-0.6495242623	 0.7808803503	 3.0560013665	 0.09902
H	-0.7624112096	-2.0413874865	 3.8550950829	 0.097171
H	 2.0765373569	-2.3724597412	 3.2188519686	 0.097147
136.0467	153.5842	186.5367	239.8251	351.5213	395.0605	457.6311	519.3073	605.9118	727.3785	780.489	794.7145	829.1299	835.8108	865.7764	897.1002	917.985	932.0855	956.9792	965.6107	988.4774	1010.9837	1025.7302	1049.4016	1080.7023	1099.0082	1122.8747	1127.4633	1146.5462	1156.3337	1179.9245	1199.8196	1213.7148	1238.1802	1270.1771	1331.1277	1346.0475	1412.1141	1427.9272	1488.5202	1491.8034	1500.1684	1510.379	3025.1906	3046.7796	3086.8704	3091.7781	3105.7988	3121.1632	3135.6325	3139.0695	3197.1313	3211.0678	3211.4281
CC1CC11C2CC3C2N13	C[C@H]1C[C@]21[C@H]1C[C@@H]3[C@H]1N23	
InChI=1S/C8H11N/c1-4-3-8(4)5-2-6-7(5)9(6)8/h4-7H,2-3H2,1H3	InChI=1S/C8H11N/c1-4-3-8(4)5-2-6-7(5)9(6)8/h4-7H,2-3H2,1H3/t4-,5-,6+,7-,8-,9?/m0/s1
