21
gdb 82449	2.30621	1.72998	1.33633	1.1955	82.11	-0.2326	0.074	0.3066	1073.3756	0.18165	-387.046118	-387.037311	-387.036366	-387.078742	34.966	
C	-0.0159495645	 1.6014877911	-0.0691089439	-0.42722
C	 0.0963648906	 0.0832337063	 0.0119129976	-0.012844
C	 1.1282477824	-0.7033294571	-0.8553024241	-0.087265
C	 2.5253041859	-0.1284041504	-0.4829479132	-0.306209
C	 2.2632446299	-0.7390888129	 0.8901174789	 0.347175
O	 3.1896081796	-1.0078678799	 1.879857604	-0.462998
C	 1.2760659214	-1.7296690004	 0.3395595969	-0.184958
C	 0.750922221	-0.6034581886	 1.2155474828	 0.266924
C	 0.2500181048	-0.6685015624	 2.6275779124	-0.520987
H	 0.9378406907	 2.0987438681	 0.1298753613	 0.111845
H	-0.360024277	 1.9186656361	-1.0602266549	 0.112963
H	-0.7397994294	 1.975620722	 0.6637485139	 0.113295
H	-0.893817819	-0.3647932342	-0.1440213494	 0.064901
H	 0.9029562972	-0.9624207306	-1.8875457643	 0.067475
H	 3.3233984435	-0.6729652592	-0.9960313411	 0.101911
H	 2.6929348594	 0.9500306195	-0.5832739787	 0.081778
H	 3.3139504916	-0.2102061273	 2.4067431871	 0.284333
H	 1.2078875297	-2.8050715713	 0.416713202	 0.091461
H	 0.9083852481	-1.2874114615	 3.245008106	 0.128701
H	 0.2068613954	 0.3289538108	 3.0832643993	 0.11204
H	-0.7585192814	-1.094551848	 2.6762042972	 0.11768
158.4718	180.8296	185.6081	200.5478	236.3403	295.6066	300.5001	381.6905	430.7919	470.2932	564.4255	589.4324	642.5347	695.7727	750.3992	795.2314	850.0168	882.8605	895.9099	918.8182	980.9049	1012.1746	1028.1074	1054.1367	1077.2409	1092.8809	1122.4834	1131.0136	1141.1737	1174.0576	1199.4546	1247.337	1254.3617	1277.2295	1307.7591	1354.629	1400.1519	1405.2439	1420.2538	1429.5173	1491.6718	1493.0436	1493.9273	1500.9137	1515.9755	3016.2646	3018.2136	3027.6751	3034.8989	3072.9657	3087.7142	3092.6406	3102.9453	3106.9247	3135.5666	3222.8694	3784.9329
CC1C2CC3(O)C2C13C	C[C@H]1[C@H]2C[C@]3(O)[C@H]2[C@]13C	
InChI=1S/C8H12O/c1-4-5-3-8(9)6(5)7(4,8)2/h4-6,9H,3H2,1-2H3	InChI=1S/C8H12O/c1-4-5-3-8(9)6(5)7(4,8)2/h4-6,9H,3H2,1-2H3/t4-,5+,6+,7-,8-/m0/s1
