17
gdb 28799	3.07611	1.64597	1.09991	2.9386	74.56	-0.1896	0.0519	0.2414	1062.8423	0.139452	-418.053987	-418.046507	-418.045562	-418.085895	28.629	
O	 0.0180896942	 1.3451859366	 0.2457833703	-0.441356
C	 0.0030756489	 0.0036107226	 0.0436042031	 0.300503
C	-0.1259158483	-0.8168042335	-1.0529120767	-0.234484
N	-0.0726587378	-2.149922582	-0.6655263288	-0.357713
C	 0.0806189647	-2.113311618	 0.6313596382	 0.376612
C	 0.2802449907	-3.0899830502	 1.7505910389	-0.344957
C	 0.0683600465	-2.1922550487	 3.0048313206	-0.216469
C	 0.3636031526	-0.7358656853	 2.5464421511	-0.178249
N	 0.1238320062	-0.8317923662	 1.1186590657	-0.043424
H	-0.1034896194	 1.7800944147	-0.6037983189	 0.309495
H	-0.2642196794	-0.5282858005	-2.0840913736	 0.093907
H	-0.419156997	-3.9286710348	 1.7165255117	 0.128616
H	 1.2925548508	-3.51307493	 1.7285613538	 0.121774
H	-0.9740322686	-2.2586304823	 3.328743024	 0.121981
H	 0.6960912065	-2.4849977159	 3.8486072391	 0.111848
H	-0.2940612598	-0.0009319962	 3.0175842268	 0.129543
H	 1.4007193292	-0.4397188803	 2.7461607846	 0.122373
135.307	165.5506	201.2454	231.0147	265.6688	352.4807	538.4851	589.2263	630.7512	654.9607	682.2504	738.4626	759.4056	783.8696	861.6645	900.6919	916.4973	1003.277	1045.567	1087.9297	1144.6989	1161.4187	1184.7648	1225.8098	1232.4958	1266.4274	1299.1838	1310.243	1324.0571	1343.3773	1427.1413	1488.3142	1498.6705	1521.912	1540.6729	1580.6359	1607.1594	3026.6901	3029.4817	3065.003	3091.7247	3095.5309	3120.7443	3238.8141	3842.9464
OC1=CN=C2CCCN12	Oc1cnc2CCCn12	
InChI=1S/C6H8N2O/c9-6-4-7-5-2-1-3-8(5)6/h4,9H,1-3H2	InChI=1S/C6H8N2O/c9-6-4-7-5-2-1-3-8(5)6/h4,9H,1-3H2
