15
gdb 27747	2.32139	1.49035	0.90894	6.3231	78.18	-0.1942	-0.0218	0.1725	1203.8735	0.113047	-453.988313	-453.979898	-453.978954	-454.02105	31.786	
N	 0.1043436041	 1.3300825356	 0.1433204649	-0.594055
C	-0.0567451661	-0.0268737284	 0.0659789594	 0.417742
C	-1.1783607968	-0.8229098945	 0.0729432394	-0.345887
C	-0.693355832	-2.1605417432	 0.050643943	 0.224279
N	-1.4792454412	-3.2906584405	 0.1137916279	-0.6058
C	 0.694950709	-2.0936205256	 0.0246381038	 0.197115
O	 1.0660884305	-0.745241759	 0.0364170481	-0.198927
C	 1.7032218768	-3.0971544493	-0.025434503	 0.046619
O	 2.9106188456	-2.9294663676	-0.0583751931	-0.328633
H	 1.0020900179	 1.665142862	-0.175106689	 0.271887
H	-0.6741185537	 1.8824535233	-0.1799072752	 0.265863
H	-2.2053114185	-0.4964049342	 0.1102313877	 0.100837
H	-2.4153928809	-3.1872018414	-0.2465709183	 0.256202
H	-1.0452833615	-4.1518790495	-0.1807287417	 0.260585
H	 1.2684056268	-4.1273073676	-0.0347603838	 0.032173
129.2562	162.2383	200.4776	238.7798	286.7179	307.0422	334.6751	418.5944	437.2992	535.5445	540.5373	577.7539	622.5617	679.4383	690.7942	701.4166	745.9592	862.388	997.0022	1024.7853	1053.33	1092.8414	1176.5466	1232.1306	1314.8197	1383.1108	1450.0949	1524.6087	1584.4429	1625.9954	1664.6977	1668.2712	1758.2221	2809.1652	3257.6511	3580.147	3580.4568	3681.3168	3690.9842
NC1=CC(N)=C(O1)C=O	Nc1cc(N)c(o1)C=O	
InChI=1S/C5H6N2O2/c6-3-1-5(7)9-4(3)2-8/h1-2H,6-7H2	InChI=1S/C5H6N2O2/c6-3-1-5(7)9-4(3)2-8/h1-2H,6-7H2
