15
gdb 51377	3.47422	1.38555	1.19048	5.8586	64.58	-0.2497	0.0171	0.2668	1020.7413	0.111156	-457.683015	-457.675688	-457.674743	-457.715221	27.602	
O	 0.3493032372	 0.101548517	 0.1738186878	-0.276735
C	 0.6324984123	 1.2447489108	 0.3628355604	 0.183147
O	 0.734544106	 2.1370713559	-0.6470579466	-0.183338
C	 1.018113707	 3.4795968861	-0.3370196976	 0.116838
C	 1.8556038145	 4.0555529636	 0.7731231495	-0.18242
C	 3.2235124638	 3.3443902641	 1.0074327292	 0.023997
O	 3.3206375582	 2.1934768703	 0.1623338297	-0.232184
C	 3.5886930507	 3.4853511783	-0.3948836243	 0.030228
C	 2.2548296123	 4.2209541044	-0.7206568176	-0.14729
H	 0.8228280367	 1.6956389978	 1.3517555709	 0.083301
H	 0.1305665363	 4.0880722217	-0.5057968817	 0.122147
H	 1.463020452	 4.8029659714	 1.4513400264	 0.109588
H	 3.8075441728	 3.3639985488	 1.9187455085	 0.121598
H	 4.5414126715	 3.6394934064	-0.8847819819	 0.122917
H	 2.2180867387	 5.1152970836	-1.3294068928	 0.108205
78.1397	143.2055	188.8826	255.1933	313.6581	411.1555	570.547	586.7937	694.4647	733.0767	750.2251	780.7084	836.9929	867.8124	902.6631	952.1488	974.3264	992.6466	1008.7173	1041.437	1049.7985	1060.9633	1098.7925	1149.5066	1207.1189	1240.2906	1262.1005	1282.7814	1321.1005	1394.4764	1415.9198	1449.0245	1869.1699	2992.8348	3117.9499	3187.6393	3197.5077	3199.3692	3212.5744
O=COC1C2C3OC3C12	O=CO[C@H]1[C@H]2[C@H]3O[C@H]3[C@@H]12	
InChI=1S/C6H6O3/c7-1-8-4-2-3(4)6-5(2)9-6/h1-6H	InChI=1S/C6H6O3/c7-1-8-4-2-3(4)6-5(2)9-6/h1-6H/t2-,3+,4-,5+,6-
