20
gdb 82978	2.58917	1.93942	1.5906	1.0464	77.07	-0.2107	0.0781	0.2888	943.9867	0.173445	-403.108802	-403.10152	-403.100576	-403.140388	29.394	
C	-0.3007767125	 1.5808186792	 0.082030192	-0.413514
C	 0.0071874381	 0.1005155656	-0.0084236126	 0.042922
C	 0.6230583143	-0.4867872441	-1.3129243249	 0.070639
O	 1.3832220135	 0.4554662806	-2.0615630614	-0.270869
C	 2.7812792178	 0.2728017494	-1.8257377894	-0.090525
C	 2.9036069039	-0.4579148286	-0.493991908	-0.055729
C	 2.410228909	 0.3139029425	 0.7609163279	-0.185343
N	 1.1285753335	-0.4731535701	 0.8283507315	-0.163031
C	 1.5888878295	-1.2608068025	-0.3885670728	-0.020613
H	 0.4827479162	 2.1870325602	-0.3776142318	 0.129518
H	-1.2363212987	 1.802053585	-0.4417760966	 0.119522
H	-0.4190684463	 1.8828707353	 1.1281300445	 0.121951
H	-0.8841893352	-0.4803365033	 0.2572131821	 0.08007
H	-0.0463133513	-1.0336053532	-1.9843855636	 0.072979
H	 3.2287541453	-0.3210976049	-2.6377640774	 0.094387
H	 3.2562222555	 1.2603453862	-1.8238011808	 0.106981
H	 3.8463632145	-0.995903469	-0.384847708	 0.077118
H	 3.0113155835	 0.1245040375	 1.6548402747	 0.107723
H	 2.2936129125	 1.3959890742	 0.6490512786	 0.104023
H	 1.5739160069	-2.3505093402	-0.351443054	 0.071791
95.5769	193.0544	220.9117	269.214	346.9819	425.4105	544.0282	606.054	627.9525	725.657	778.4865	808.4755	817.1064	872.4186	911.0598	914.6971	941.7228	945.1208	964.9108	983.4978	1011.5963	1067.9453	1100.2793	1118.3787	1141.4975	1158.9523	1197.652	1204.8646	1214.6114	1232.7886	1247.6262	1268.0405	1299.5734	1306.1815	1319.3327	1340.9524	1370.0426	1392.103	1405.2722	1483.0453	1490.4309	1507.8061	1517.1043	2983.6063	3027.1503	3039.3079	3047.56	3054.9536	3061.5157	3090.326	3099.3241	3103.7505	3109.8995	3127.5752
CC1C2OCC3CN1C23	C[C@H]1[C@H]2OC[C@H]3CN1[C@@H]23	
InChI=1S/C7H11NO/c1-4-7-6-5(3-9-7)2-8(4)6/h4-7H,2-3H2,1H3	InChI=1S/C7H11NO/c1-4-7-6-5(3-9-7)2-8(4)6/h4-7H,2-3H2,1H3/t4-,5+,6+,7+/m0/s1
