21
gdb 114385	3.43864	1.07401	0.99468	2.5297	78.77	-0.2385	0.0667	0.3052	1294.0865	0.181138	-424.179961	-424.170606	-424.169662	-424.213781	35.787	
C	 0.459781423	 1.7583286888	-0.5901182859	-0.46695
C	 0.4239771948	 0.2531653224	-0.4109220245	 0.30505
C	-0.7306197724	-0.4298887383	-1.1295802537	-0.452377
C	 1.6777536284	-0.5650808882	-0.3787793327	 0.05321
O	 2.7628638434	 0.1225946372	 0.2585365778	-0.320487
C	 2.0667037162	 0.0409999335	 1.5439314909	 0.113125
C	 2.1225208673	 1.337211405	 2.3320782921	-0.092369
O	 3.4707170767	 1.7098812381	 2.5630628686	-0.421659
C	 0.8100766903	-0.4979788572	 0.8666643471	-0.219463
H	 1.436121387	 2.1670928896	-0.3279975775	 0.132392
H	 0.2664960516	 2.0108143734	-1.6391219883	 0.110953
H	-0.3051775737	 2.2575856191	 0.0148974878	 0.114908
H	-0.7158725451	-0.1925543835	-2.1989104078	 0.120002
H	-0.68723066	-1.51908239	-1.0260271896	 0.115482
H	-1.6934982279	-0.0965375424	-0.7263732193	 0.122226
H	 1.9301247211	-1.3742728238	-1.0562859731	 0.101135
H	 2.550852006	-0.7467398017	 2.1371211765	 0.09178
H	 1.5631365785	 2.1353966004	 1.8292162926	 0.094141
H	 1.6638884207	 1.1782530427	 3.3148896573	 0.108913
H	 3.8986349612	 1.7310782084	 1.6989282507	 0.294814
H	 0.159550423	-1.2490649534	 1.2958755912	 0.095176
75.2094	126.2154	179.2079	219.1096	243.8299	271.574	281.7868	344.2023	378.8422	415.7664	456.3585	526.7013	570.2032	660.3225	761.5698	821.6914	841.2311	884.9054	958.6138	970.5437	1000.5942	1020.2928	1025.3165	1040.6504	1046.6118	1071.2418	1090.1067	1137.9987	1165.0543	1204.869	1216.1792	1252.9073	1284.3596	1305.0484	1349.4981	1397.1902	1405.2167	1408.1094	1425.5014	1437.6438	1486.1526	1488.1574	1498.1017	1509.1111	1516.1869	3012.4408	3024.9355	3030.1973	3032.9703	3074.776	3084.1685	3089.9005	3098.4173	3140.195	3163.0145	3194.03	3795.2285
CC1(C)C2OC(CO)C12	CC1(C)[C@H]2O[C@@H](CO)[C@@H]12	
InChI=1S/C7H12O2/c1-7(2)5-4(3-8)9-6(5)7/h4-6,8H,3H2,1-2H3	InChI=1S/C7H12O2/c1-7(2)5-4(3-8)9-6(5)7/h4-6,8H,3H2,1-2H3/t4-,5+,6-/m0/s1
