18
gdb 38220	3.26451	1.77789	1.43097	1.9647	75.5	-0.2478	0.0245	0.2724	933.8874	0.151324	-401.901907	-401.895539	-401.894595	-401.932436	26.891	
C	-0.0258755094	 1.6285468993	 0.1675485215	-0.287566
C	 1.4706116814	 1.2254739928	 0.0584426347	-0.096355
C	 1.1356274355	 0.0184525142	 1.0176709238	-0.29485
C	 0.0200291684	 0.0862500256	-0.0418997906	 0.441862
O	-1.0690909849	-0.7453367107	-0.294845965	-0.275818
C	-1.3751603642	-0.7589102357	-1.6381597546	 0.103399
N	-0.8024621275	-0.2004383556	-2.6167736081	-0.265856
C	 0.421782052	 0.6015825608	-2.4522008086	-0.220635
C	 1.0917464687	 0.2678108046	-1.124846298	-0.030013
H	-0.3657194367	 1.973135255	 1.146688572	 0.097761
H	-0.4463791767	 2.2352882473	-0.634224885	 0.106415
H	 2.3325574755	 1.8832682515	 0.1394816911	 0.08808
H	 1.8051307641	-0.8433332816	 0.9697518234	 0.102236
H	 0.8712496539	 0.2800458551	 2.0448690758	 0.100479
H	-2.2648694292	-1.3654376444	-1.7923538199	 0.123781
H	 1.0737932102	 0.3746098347	-3.301599114	 0.112635
H	 0.1541082743	 1.6594394278	-2.5556342833	 0.118012
H	 1.7619004645	-0.5913419906	-1.2279239754	 0.076432
129.0286	309.0827	373.2279	417.5004	450.2901	524.0126	562.6425	608.922	633.9197	759.7752	786.2555	844.1909	875.6242	912.5266	935.2409	952.0571	958.1413	974.7746	990.9111	1047.2288	1064.1373	1093.0738	1095.8921	1127.3087	1140.2482	1161.7696	1181.7824	1204.9378	1223.3406	1236.3141	1250.2915	1276.3748	1352.1624	1409.2174	1416.3631	1483.4621	1506.2362	1546.4552	1715.7243	3038.5961	3052.2731	3061.4241	3075.2102	3075.7193	3132.3075	3143.9802	3146.9413	3166.6184
C1C2CC11OC=NCC21	C1[C@H]2C[C@]31OC=NC[C@@H]23	
InChI=1S/C7H9NO/c1-5-2-7(1)6(5)3-8-4-9-7/h4-6H,1-3H2	InChI=1S/C7H9NO/c1-5-2-7(1)6(5)3-8-4-9-7/h4-6H,1-3H2/t5-,6-,7-/m0/s1
