15
gdb 69630	3.62377	1.20425	1.16296	4.3267	71.28	-0.2364	0.0025	0.2389	1075.4293	0.11215	-416.724312	-416.716743	-416.715798	-416.756141	29.701	
O	-0.0757368589	 1.4099771845	-0.0056151562	-0.450812
C	-0.0213011748	 0.0346033183	 0.0040600941	 0.394171
C	-0.253316239	-0.8465002947	-1.1918371216	-0.356698
C	-1.184907654	-0.9298155042	 0.0015392941	-0.170402
C	-0.5346509511	-1.6963396222	 1.1946581274	 0.237966
N	 0.84097286	-2.1446181525	 0.8115982188	-0.364804
C	 0.6159342402	-0.7473629911	 1.202878745	-0.190933
C	-1.2293093161	-2.2736417367	 2.2908461343	 0.180258
N	-1.8061657038	-2.7437089672	 3.1786063122	-0.344913
H	 0.6759635249	 1.7426993103	-0.5097184144	 0.293485
H	-0.6985421336	-0.3128864459	-2.026203564	 0.123813
H	 0.410825168	-1.6614291486	-1.449382469	 0.148992
H	-2.2459092597	-0.7316695517	-0.0528076476	 0.12072
H	 1.2361834154	-2.6412999874	 1.6108310084	 0.251787
H	 1.1024014425	-0.2881263508	 2.0538094685	 0.12737
115.9247	156.1311	265.0693	308.8875	348.1167	401.3579	440.908	481.0897	530.5807	554.5385	596.1218	651.4361	782.5343	824.6457	847.9659	870.5519	924.093	935.4998	972.4785	1003.1675	1034.1675	1051.1634	1092.2465	1103.8288	1191.9288	1202.2044	1247.9114	1290.1674	1323.9104	1383.6678	1406.4545	1483.3204	2340.5005	3139.9693	3208.4532	3223.5926	3237.7941	3472.9197	3782.9593
OC12CC1C1(NC21)C#N	O[C@]12C[C@H]1[C@]1(N[C@@H]21)C#N	
InChI=1S/C6H6N2O/c7-2-5-3-1-6(3,9)4(5)8-5/h3-4,8-9H,1H2	InChI=1S/C6H6N2O/c7-2-5-3-1-6(3,9)4(5)8-5/h3-4,8-9H,1H2/t3-,4+,5+,6+/m0/s1
