19
gdb 83666	2.34468	1.63618	1.2848	2.1426	80.4	-0.2393	0.0444	0.2837	1068.0265	0.158431	-385.819383	-385.810801	-385.809857	-385.853089	32.615	
C	-0.6027264875	 1.3980763602	 0.1023615051	-0.420916
C	-0.0862121781	-0.0241042516	-0.0468451176	 0.006368
C	 0.7651019765	-0.4085031829	-1.2945443169	-0.10388
C	 1.7756831236	 0.6403060771	-1.7894051662	-0.081731
O	 2.7688670628	 0.2063325731	-0.8277247737	-0.278513
C	 1.9290761329	-0.8611550162	-0.3721382651	 0.118407
C	 1.0905482975	-0.5134666105	 0.9007755127	-0.246746
C	 1.6663531239	 0.4196843066	 1.8432294525	 0.362691
C	 2.1303861196	 1.2019551706	 2.6301644007	-0.468482
H	 0.2076069758	 2.1318128847	 0.1031847253	 0.136549
H	-1.2933531652	 1.6465507594	-0.7111557324	 0.111581
H	-1.1410937797	 1.5134049257	 1.0482942761	 0.124216
H	-0.9249711825	-0.7198199326	 0.0478424037	 0.08131
H	 0.2903046089	-1.0383298487	-2.0457912594	 0.076712
H	 2.1242918014	 0.475664431	-2.8168344348	 0.101754
H	 1.5130045322	 1.6969629147	-1.6695372824	 0.107108
H	 2.4324298114	-1.8315192399	-0.3909134707	 0.079286
H	 0.7988380302	-1.4309495603	 1.4237153101	 0.100522
H	 2.5542257564	 1.8878260993	 3.3208554131	 0.193764
35.52	131.3603	159.2068	202.0659	273.697	321.5253	340.522	467.7259	516.0809	584.7735	612.9306	633.9826	686.491	737.8957	779.9567	844.7705	888.2535	911.5326	954.0394	995.6282	1014.1176	1015.5787	1056.1152	1109.0893	1121.1919	1134.1934	1154.1545	1186.7912	1205.2741	1236.1645	1270.9106	1296.7555	1325.7377	1332.0435	1348.0058	1378.3591	1412.6682	1487.9999	1495.0503	1525.9305	2232.6289	3016.4884	3035.4508	3037.3357	3058.8408	3066.5584	3072.0032	3100.8004	3115.5963	3118.9478	3504.2638
CC1C2COC2C1C#C	C[C@H]1[C@H]2CO[C@H]2[C@H]1C#C	
InChI=1S/C8H10O/c1-3-6-5(2)7-4-9-8(6)7/h1,5-8H,4H2,2H3	InChI=1S/C8H10O/c1-3-6-5(2)7-4-9-8(6)7/h1,5-8H,4H2,2H3/t5-,6+,7-,8+/m1/s1
