15
gdb 29738	3.4183	1.35131	0.9744	3.4697	79.96	-0.198	-0.0053	0.1926	1138.0082	0.111904	-416.809928	-416.801126	-416.800182	-416.843691	31.739	
C	 0.0288414593	 1.4428253474	 0.0215797177	-0.343995
N	 0.0411941222	-0.0073997226	 0.0072829949	-0.111861
C	 0.1053104406	-0.7954248924	-1.1037956504	 0.344556
O	 0.1623530932	-0.1886492855	-2.3110232728	-0.439302
C	 0.0943752554	-2.1030990178	-0.6747167427	-0.238813
N	 0.0242463757	-2.1367466429	 0.6916175199	-0.305555
C	-0.0070409884	-0.8775685455	 1.0893081782	 0.187995
C	-0.0796380325	-0.4145266399	 2.4200800095	 0.267009
C	-0.1413752332	 0.0031596849	 3.5489360161	-0.427725
H	 0.9390635081	 1.8402720609	-0.4359946449	 0.148222
H	-0.8353570033	 1.8261000638	-0.5280566228	 0.148235
H	-0.027663847	 1.7715717746	 1.0593502376	 0.15933
H	 0.2042846869	-0.8657801184	-2.993634343	 0.314284
H	 0.1327212839	-3.0025302313	-1.2702475505	 0.103957
H	-0.1959044909	 0.3521682846	 4.5502285332	 0.19366
54.1959	115.7525	149.4876	197.1257	261.8762	275.4362	313.9136	410.6301	470.2888	526.2163	551.1163	595.4739	676.5692	688.8593	717.2771	725.1456	755.3409	776.3248	982.8716	1129.6809	1155.9087	1176.2162	1207.5137	1284.219	1315.5642	1383.5025	1449.864	1485.8885	1492.4794	1510.1582	1546.415	1606.8321	2225.1133	3049.606	3112.3896	3157.9425	3243.7595	3501.5157	3841.6634
CN1C(O)=CN=C1C#C	Cn1c(O)cnc1C#C	
InChI=1S/C6H6N2O/c1-3-5-7-4-6(9)8(5)2/h1,4,9H,2H3	InChI=1S/C6H6N2O/c1-3-5-7-4-6(9)8(5)2/h1,4,9H,2H3
