20
gdb 116632	2.87212	1.09376	0.84809	2.207	79.13	-0.2542	0.0223	0.2765	1410.7518	0.171203	-440.306126	-440.296819	-440.295875	-440.341774	33.829	
C	-0.0713054432	 1.4085872254	 0.0628876469	-0.360107
C	-0.0099021548	-0.115150849	-0.0703042068	-0.146812
N	 0.828889043	-0.4971181025	-1.2003493413	-0.358707
C	 1.8944480738	-1.1447841117	-1.0275590287	 0.416927
O	 2.4084581771	-1.592983437	 0.1495154833	-0.248689
C	 3.5450859435	-2.448138825	-0.1168996458	-0.093961
C	 3.4291382762	-2.8430076679	-1.5946275243	-0.255095
C	 2.7702591737	-1.5912572522	-2.1849209752	 0.054196
O	 2.0322134434	-1.8024159872	-3.3551320792	-0.440425
H	 0.9157719805	 1.8189381427	 0.2978247443	 0.117738
H	-0.4125246841	 1.8630552515	-0.8716940072	 0.124102
H	-0.7607319667	 1.6969426494	 0.8626585288	 0.110459
H	 0.3339145703	-0.562749624	 0.8704277175	 0.10865
H	-1.0191745461	-0.4975228377	-0.2671728375	 0.105343
H	 4.4614056214	-1.8818538594	 0.0880654812	 0.117908
H	 3.4926589422	-3.2908429141	 0.5752195061	 0.126974
H	 4.3928103796	-3.0909993723	-2.0423811207	 0.116539
H	 2.7501056521	-3.6914587399	-1.7228302686	 0.125764
H	 3.5430548318	-0.8178460398	-2.3447710134	 0.089277
H	 1.2219804262	-1.2820944594	-3.2346190993	 0.289919
16.4301	105.0539	132.7512	171.4044	195.3376	249.9987	298.8715	375.6426	432.4364	488.0237	546.5341	570.5414	661.6172	717.8258	793.1674	825.3984	872.7632	910.5975	955.467	998.214	1033.4692	1073.5159	1107.7987	1124.6156	1147.5272	1169.7265	1192.9869	1218.0051	1232.7917	1278.3422	1302.7818	1309.9451	1375.9003	1378.6934	1402.9914	1407.3243	1439.5849	1489.5468	1493.0576	1494.9622	1512.6365	1523.5596	1803.7015	2940.3682	3017.252	3037.8504	3038.4813	3054.5114	3067.5604	3110.0519	3110.8407	3117.67	3130.56	3692.9323
CCN=C1OCCC1O	CCN=C1OCC[C@H]1O	
InChI=1S/C6H11NO2/c1-2-7-6-5(8)3-4-9-6/h5,8H,2-4H2,1H3	InChI=1S/C6H11NO2/c1-2-7-6-5(8)3-4-9-6/h5,8H,2-4H2,1H3/t5-/m1/s1
