22
gdb 100270	1.90637	1.3899	1.23786	3.1846	78.14	-0.2386	0.0382	0.2768	1219.0937	0.191109	-441.521764	-441.510475	-441.509531	-441.55818	40.712	
C	 0.6410106062	 0.9445871418	-0.3622654023	-0.397707
C	 0.1344741528	-0.4726493902	-0.08276551	-0.200506
C	-1.4010572232	-0.5854467777	 0.0249675707	 0.274995
C	-1.82365314	-2.0253170493	 0.3552083277	-0.436502
O	-1.9421136696	 0.3615548735	 0.9579253038	-0.299489
C	-1.637309483	 0.1801498434	 2.3246917528	-0.252095
C	-2.0073480142	-0.2361885801	-1.3573166286	 0.379799
N	-2.9089431122	 0.7728603069	-1.359607496	-0.523391
O	-1.6786350586	-0.8586267201	-2.3519767394	-0.394433
H	 1.7343206823	 0.9627718039	-0.3955539257	 0.111406
H	 0.2743673721	 1.3113964286	-1.3260450455	 0.131107
H	 0.3123970289	 1.6468896614	 0.4090147887	 0.118463
H	 0.4407229484	-1.1448794627	-0.8891518843	 0.129248
H	 0.5839401891	-0.8608294655	 0.8388832481	 0.087191
H	-1.2952204978	-2.4098949958	 1.2320786303	 0.11137
H	-2.90056673	-2.0749919582	 0.5435328098	 0.120533
H	-1.5905862904	-2.6650400881	-0.4978992112	 0.150413
H	-2.0439816332	-0.7585787778	 2.7221299967	 0.115841
H	-0.5572016942	 0.2048836944	 2.5204423918	 0.115436
H	-2.1031151315	 1.0124389317	 2.8584790276	 0.1278
H	-3.1142258906	 1.2590149819	-0.5041733764	 0.272591
H	-3.3268358812	 1.047077208	-2.2324876585	 0.25793
44.839	78.9062	100.3239	174.9313	190.5168	214.365	243.719	258.1827	278.7542	293.4137	332.7977	358.4175	410.2875	474.9916	493.8678	574.2133	642.0319	691.5826	761.8047	786.3069	871.7437	905.7195	1000.9639	1041.3884	1056.1185	1096.8567	1114.8119	1145.0585	1181.8518	1196.4522	1203.2984	1243.1958	1309.7486	1356.3906	1383.1797	1399.0251	1408.82	1471.7038	1477.943	1494.9312	1496.2912	1498.5743	1501.7613	1504.8548	1514.8798	1586.444	1789.3892	3003.4886	3037.37	3042.2661	3045.3034	3060.3239	3092.5667	3109.9815	3111.0997	3114.4998	3118.5997	3141.7625	3605.0949	3748.9469
CCC(C)(OC)C(N)=O	CC[C@@](C)(OC)C(=O)N	
InChI=1S/C6H13NO2/c1-4-6(2,9-3)5(7)8/h4H2,1-3H3,(H2,7,8)	InChI=1S/C6H13NO2/c1-4-6(2,9-3)5(7)8/h4H2,1-3H3,(H2,7,8)/t6-/m1/s1
