13
gdb 132456	3.21993	1.43525	0.99319	4.5884	67.77	-0.2149	-0.037	0.1779	1071.8336	0.089679	-494.06598	-494.058514	-494.05757	-494.097912	28.329	
N	 0.0732392888	 1.321186794	-0.1254830016	-0.558989
C	-0.0561538415	-0.0285907182	-0.0457356279	 0.500084
N	-1.2037352531	-0.6131720196	-0.0162698532	-0.358504
C	-1.1728034954	-1.9929142319	-0.0011426057	-0.128628
C	-0.0280818471	-2.7029254566	-0.0035269276	 0.177825
F	-0.0168438121	-4.032345869	 0.0139169205	-0.055873
C	 1.2596010058	-2.0436524059	-0.0220194183	 0.301128
N	 2.386181973	-2.6145308823	-0.0185855688	-0.531295
O	 1.1528723154	-0.6399827563	-0.0431637745	-0.258374
H	 0.9571343811	 1.7253167969	 0.1345130788	 0.274098
H	-0.7596711319	 1.851866173	 0.0683438115	 0.280418
H	-2.1309973615	-2.5011708217	 0.0163940535	 0.130376
H	 3.1459788185	-1.9348245023	-0.0364990267	 0.227733
116.8983	148.0679	304.2108	332.1739	374.4323	377.6329	395.1939	469.3493	479.486	534.5069	578.7177	728.873	751.5576	753.2215	800.2816	837.3099	949.1922	969.2687	1004.4724	1093.2638	1204.5083	1278.0995	1300.5544	1381.4982	1439.0773	1600.9283	1665.4321	1683.3447	1769.4079	3192.7737	3502.9467	3611.0171	3736.8731
NC1=NC=C(F)C(=N)O1	NC1=NCC(=C([NH])O1)F	
InChI=1S/C4H4FN3O/c5-2-1-8-4(7)9-3(2)6/h1,6H,(H2,7,8)	InChI=1S/C4H5FN3O/c5-2-1-8-4(7)9-3(2)6/h6H,1H2,(H2,7,8)
