19
gdb 96295	2.09141	1.76246	1.12814	3.5123	71.95	-0.2592	0.013	0.2721	1121.3783	0.159622	-460.20314	-460.194514	-460.19357	-460.236943	32.084	
C	 0.4289229745	 1.3501481653	 0.2113779471	-0.401541
C	-0.1845253422	 0.0105026277	-0.1493929803	 0.205552
O	 0.4238693455	-0.451188554	-1.3144435121	-0.240749
C	 0.0943450538	-1.7941559462	-1.6603320137	-0.084161
C	 1.1542379668	-2.7562842991	-1.0885038826	-0.219572
C	 1.8419463151	-2.1652680092	 0.156880638	-0.315498
C	 0.8758891993	-1.7792110296	 1.2638560113	 0.401062
O	 0.9055003747	-2.2633379666	 2.3622051263	-0.314616
O	-0.1175676986	-0.8885059049	 0.9798150415	-0.251795
H	 1.5035030313	 1.2412345502	 0.3826950937	 0.131167
H	 0.2749667619	 2.0590818341	-0.6059483467	 0.133092
H	-0.0377311249	 1.7382904335	 1.118776265	 0.139403
H	-1.2705071369	 0.099113202	-0.3010328081	 0.092739
H	-0.9066543258	-2.0417916535	-1.2861681365	 0.115451
H	 0.0649054301	-1.840342147	-2.7523048323	 0.116363
H	 0.6920971555	-3.7195591704	-0.8479811568	 0.119231
H	 1.9277431288	-2.9537330359	-1.8371967109	 0.11322
H	 2.5311481304	-2.8894706467	 0.5933590598	 0.127346
H	 2.4155444508	-1.2834910296	-0.1420704327	 0.133306
62.4013	74.3572	175.3	214.8843	264.5724	314.4602	356.012	394.6003	487.7996	497.5961	573.2363	676.107	698.9351	746.7489	816.2082	869.027	885.9363	954.2424	966.5459	1022.3448	1073.0051	1096.7347	1111.0988	1131.2321	1151.8386	1194.2978	1241.4965	1287.2646	1302.6095	1343.8055	1374.3664	1381.2343	1406.1823	1418.6432	1427.4151	1473.2989	1483.6742	1485.9032	1495.093	1510.1155	1838.0982	2997.4805	3027.9684	3047.9834	3053.9837	3068.4445	3082.9602	3100.4714	3130.6651	3132.0389	3145.2426
CC1OCCCC(=O)O1	C[C@H]1OCCCC(=O)O1	
InChI=1S/C6H10O3/c1-5-8-4-2-3-6(7)9-5/h5H,2-4H2,1H3	InChI=1S/C6H10O3/c1-5-8-4-2-3-6(7)9-5/h5H,2-4H2,1H3/t5-/m0/s1
