19
gdb 70586	2.53329	1.71093	1.40022	0.5804	73.77	-0.2499	0.0771	0.327	1001.3214	0.160466	-423.004809	-422.9972	-422.996256	-423.036363	31.107	
O	-0.0530324915	 1.370548766	 0.1410600429	-0.467724
C	-0.0011746175	-0.0240800233	-0.0062590713	 0.377956
C	-0.4544837562	-0.6411932244	-1.3019343623	-0.357589
C	-1.3256201833	-0.7310172362	-0.0595531798	-0.068208
C	-1.4827756292	-2.0454781126	 0.7010709527	-0.233877
C	-0.697655649	-2.0655273514	 2.0267186891	-0.24467
C	 0.7491008482	-1.6656553489	 1.831934171	 0.068039
O	 1.3583971924	-2.0520633357	 0.5866257418	-0.261788
C	 1.0916924366	-0.6658254331	 0.8098463716	-0.030063
H	 0.6404152828	 1.7522128776	-0.409178631	 0.282561
H	-0.7684788974	 0.0420981142	-2.0834619144	 0.108612
H	 0.045433027	-1.5439250691	-1.6357879799	 0.128277
H	-2.1791310334	-0.0614357539	-0.0458724246	 0.096165
H	-2.5415901452	-2.225978381	 0.9084580882	 0.099608
H	-1.1381240486	-2.8788691884	 0.0824551665	 0.117292
H	-1.1434196845	-1.3717635594	 2.752294593	 0.109218
H	-0.7507427479	-3.0648249133	 2.4744544833	 0.104664
H	 1.4035726038	-1.7735190352	 2.696891169	 0.088689
H	 1.9793030229	-0.0457247117	 0.9445450441	 0.082838
149.6058	193.7492	264.4275	313.7762	336.7242	363.042	435.0396	466.7854	511.4807	534.6542	625.0292	733.1077	783.3929	811.9526	853.2572	910.914	917.1503	933.9098	954.8551	962.7512	1007.862	1048.9764	1062.0825	1092.0244	1097.3879	1123.8406	1144.7845	1215.9675	1231.7168	1255.0765	1277.0657	1280.9365	1337.7311	1361.4376	1378.9578	1389.8589	1407.9916	1463.9364	1470.4467	1485.8684	1495.7368	3021.4104	3051.8195	3063.9933	3094.0054	3094.777	3113.6998	3131.1964	3165.2067	3226.6236	3788.418
OC12CC1CCC1OC21	O[C@]12C[C@H]1CC[C@H]1O[C@@H]21	
InChI=1S/C7H10O2/c8-7-3-4(7)1-2-5-6(7)9-5/h4-6,8H,1-3H2	InChI=1S/C7H10O2/c8-7-3-4(7)1-2-5-6(7)9-5/h4-6,8H,1-3H2/t4-,5-,6-,7-/m1/s1
