16
gdb 45060	2.56985	1.86942	1.27927	4.3962	69.15	-0.2455	0.0038	0.2493	974.4616	0.125504	-437.887214	-437.880013	-437.879069	-437.918829	28.338	
O	 0.0187944725	-0.010663162	 0.1905766406	-0.368944
C	 0.0190459346	 1.1926398416	 0.0706615683	 0.339466
N	-1.0759409947	 2.0091475699	-0.0852555376	-0.324146
C	-0.7829992988	 3.4147735997	-0.0540758159	-0.005157
C	-0.1949737468	 3.9614249005	 1.22336069	-0.31356
C	 0.7168303345	 3.5265354551	 0.0901502343	-0.152787
C	 1.2336881585	 2.1195121537	 0.097749903	 0.339708
C	 2.511958198	 1.6461492198	 0.6389453459	-0.235542
O	 2.3117922193	 1.7734914907	-0.7701497479	-0.270669
H	-2.0020210876	 1.6395891185	 0.0644538267	 0.257174
H	-1.3512047752	 4.0441759215	-0.728655616	 0.113347
H	-0.2688474934	 5.0290180697	 1.4006853569	 0.124527
H	-0.2575734958	 3.3437269667	 2.1135287054	 0.125616
H	 1.282367074	 4.2708385942	-0.4551938716	 0.115835
H	 3.1967081914	 2.3666893593	 1.083561767	 0.116561
H	 2.5725747496	 0.6232298512	 1.004918321	 0.138572
99.4716	187.3989	258.3933	272.5345	390.2034	459.4854	492.3127	512.4403	578.7889	700.744	718.1139	749.7764	810.9312	819.1828	874.2947	909.9235	938.432	989.9016	1020.3069	1046.8422	1066.5062	1088.3068	1128.0991	1131.2245	1162.7693	1183.6263	1195.8307	1302.0906	1302.6761	1377.137	1415.3554	1435.1124	1477.9138	1515.9211	1836.9919	3088.4884	3129.5408	3179.6999	3187.2307	3199.9636	3222.304	3633.7374
O=C1NC2CC2C11CO1	O=C1N[C@H]2C[C@H]2[C@]21CO2	
InChI=1S/C6H7NO2/c8-5-6(2-9-6)3-1-4(3)7-5/h3-4H,1-2H2,(H,7,8)	InChI=1S/C6H7NO2/c8-5-6(2-9-6)3-1-4(3)7-5/h3-4H,1-2H2,(H,7,8)/t3-,4+,6+/m1/s1
