18
gdb 126840	3.024	1.30115	0.9899	3.9279	75.54	-0.2068	0.0198	0.2266	1216.0072	0.149005	-431.445498	-431.436108	-431.435163	-431.480006	33.811	
C	-0.1405358833	 1.535535591	 0.0860354886	-0.384937
C	 0.1369583572	 0.033920752	-0.0070221568	-0.149403
N	 0.7024516646	-0.50949457	 1.2144706886	 0.009092
N	 2.0322976558	-0.8218608175	 1.2766881115	-0.177961
N	 2.2806926841	-1.2194657957	 2.4886353213	-0.241437
C	 1.1337244855	-1.1922362856	 3.2203969679	 0.188952
N	 0.9885256301	-1.5785287336	 4.5734505312	-0.608201
C	 0.1105012527	-0.7417573148	 2.4085061519	 0.308174
N	-1.2236677613	-0.4792910501	 2.7018460232	-0.611676
H	 0.7856491404	 2.0811259561	 0.2851722101	 0.142006
H	-0.5612880689	 1.8973654593	-0.8568909499	 0.121125
H	-0.8504733247	 1.7533133337	 0.8885347881	 0.142004
H	-0.7802073844	-0.5162752824	-0.2501155153	 0.110281
H	 0.867543208	-0.1855027721	-0.7886748805	 0.147423
H	 1.4967003229	-2.440026585	 4.7487732791	 0.246922
H	 1.3808390428	-0.881053055	 5.2003267858	 0.24443
H	-1.4424220481	-0.8586806893	 3.6173361144	 0.263133
H	-1.8738293335	-0.845679461	 2.0156697908	 0.250073
56.7739	97.8499	118.4996	206.1165	244.0545	251.8406	284.4666	303.8581	333.0195	416.3211	518.0616	603.0966	685.2545	720.3114	740.1245	774.7433	807.019	821.8086	876.8264	975.3982	1039.0909	1048.2874	1105.8584	1198.9877	1207.3145	1250.693	1266.7048	1321.4647	1353.2192	1383.7523	1397.4325	1409.8706	1479.7142	1490.0456	1508.8281	1558.2177	1623.6935	1650.7694	1681.9621	3034.0932	3046.5763	3109.3442	3122.4738	3133.9498	3487.0494	3507.1559	3556.1728	3597.4202
CCN1N=NC(N)=C1N	CCn1nnc(N)c1N	
InChI=1S/C4H9N5/c1-2-9-4(6)3(5)7-8-9/h2,5-6H2,1H3	InChI=1S/C4H9N5/c1-2-9-4(6)3(5)7-8-9/h2,5-6H2,1H3
