20
gdb 36487	3.86603	1.01393	0.88244	4.151	82.23	-0.279	0.0396	0.3186	1328.6876	0.173337	-366.036726	-366.028573	-366.027629	-366.069833	31.538	
N	-0.0192701453	-1.176779104	-0.0703834629	-0.314736
C	-0.0273219735	-0.0228486328	-0.004141106	 0.264312
C	-0.0095931274	 1.4366815455	 0.0797150461	-0.357374
C	 1.4152422568	 2.0250009477	 0.0090298719	 0.023369
C	 2.1663167002	 1.7027970593	-1.3062176855	-0.23947
C	 3.1895399464	 2.8479084439	-1.47738789	-0.221378
C	 2.543508636	 4.0520632829	-0.8035293614	-0.030764
C	 1.0996048874	 4.3422983588	-1.1298452496	-0.293724
C	 1.447886776	 3.5452886324	 0.1074437422	-0.046701
H	-0.6206388971	 1.8418988447	-0.7352487775	 0.148704
H	-0.4963888126	 1.7336767523	 1.0157426374	 0.147794
H	 1.9859445838	 1.6195705045	 0.8539771451	 0.092471
H	 2.6327910487	 0.7156830781	-1.2837252532	 0.120494
H	 1.4604628438	 1.6926599397	-2.1441344489	 0.106779
H	 4.1236632119	 2.6047961267	-0.9574021696	 0.104619
H	 3.4429018407	 3.022083642	-2.5284790158	 0.102034
H	 3.1761603833	 4.8798485375	-0.5031662954	 0.085455
H	 0.7508796447	 5.3571236071	-0.9739024487	 0.113972
H	 0.6358265514	 3.8486380234	-1.9783787549	 0.11
H	 1.2660978948	 3.9984713303	 1.0763462265	 0.084143
68.3647	105.9919	168.3505	244.5718	310.8235	371.1359	400.3884	443.6692	512.6137	623.5942	644.019	771.8984	819.1442	826.7487	848.8352	896.3879	929.0613	953.1361	959.2375	984.2085	1001.819	1045.6466	1062.1414	1077.6334	1098.0506	1110.4751	1135.0944	1180.3312	1204.8359	1225.5749	1248.5818	1292.1966	1315.1826	1328.2136	1344.8859	1354.4144	1381.5797	1398.4919	1465.7302	1484.7945	1493.5785	1510.7072	2359.0118	3024.6317	3035.4533	3041.013	3046.6052	3075.4923	3080.4676	3109.2907	3128.9983	3159.1805	3172.1844	3211.5671
N#CCC1CCC2CC12	N#CC[C@H]1CC[C@H]2C[C@@H]12	
InChI=1S/C8H11N/c9-4-3-6-1-2-7-5-8(6)7/h6-8H,1-3,5H2	InChI=1S/C8H11N/c9-4-3-6-1-2-7-5-8(6)7/h6-8H,1-3,5H2/t6-,7+,8+/m1/s1
