18
gdb 37325	2.4171	2.32269	1.53534	1.0615	73.8	-0.2262	0.0753	0.3015	897.4668	0.150377	-401.888067	-401.881554	-401.88061	-401.918561	27.64	
C	 0.0655010454	 1.5709607755	-0.134143859	-0.312038
C	 1.3348039048	 0.7610472019	-0.003813156	-0.050207
C	 2.1068669654	 0.7889920962	 1.276796195	 0.02325
O	 1.5331558074	 1.4938613286	 2.3830542941	-0.257156
C	 1.6004751456	 0.0662306809	 2.4665209356	 0.033174
C	 0.3217158645	-0.705142966	 2.383695159	-0.035807
C	-0.9882198263	 0.0094675362	 2.3675661717	-0.258004
N	-0.5000312001	-0.6375076171	 1.161113679	-0.107852
C	-0.0260316186	 0.0752100266	 0.003543883	 0.008852
H	-0.1950838001	 2.191948467	 0.7137730397	 0.136484
H	-0.171220748	 1.9974664665	-1.1023970048	 0.113174
H	 1.9485045375	 0.629683725	-0.8885512942	 0.085725
H	 3.1823967186	 0.9263142942	 1.1740436755	 0.095173
H	 2.315405917	-0.3060931962	 3.199088127	 0.092456
H	 0.3838173459	-1.7006492782	 2.8194249181	 0.088615
H	-1.8646552196	-0.4529811634	 2.8148097755	 0.113553
H	-0.9455036763	 1.0917889928	 2.4478031048	 0.131829
H	-0.2737789131	-0.4625583804	-0.906826204	 0.098777
198.4654	208.4395	339.8092	435.4682	449.0009	476.2787	545.0659	617.1116	680.5786	733.9643	762.1785	804.4217	846.0319	861.5951	886.432	911.0192	923.744	976.001	1039.2983	1058.0137	1060.7897	1081.0208	1098.7788	1107.5878	1121.5238	1130.7251	1139.7729	1156.8465	1161.9358	1220.5215	1281.6121	1350.4167	1361.4008	1391.9508	1400.4043	1406.4092	1448.0993	1477.9806	1511.5334	3106.1877	3108.6179	3116.9177	3129.1389	3139.4991	3144.9652	3166.5096	3196.6813	3236.9466
C1C2C3OC3C3CN3C12	C1[C@H]2[C@H]3O[C@H]3[C@H]3CN3[C@@H]12	
InChI=1S/C7H9NO/c1-3-4(1)8-2-5(8)7-6(3)9-7/h3-7H,1-2H2	InChI=1S/C7H9NO/c1-3-4(1)8-2-5(8)7-6(3)9-7/h3-7H,1-2H2/t3-,4+,5-,6-,7+,8?/m1/s1
