20
gdb 22040	1.90799	1.55334	1.05967	0.4932	85.78	-0.2373	-0.0309	0.2063	1224.4887	0.166665	-403.078304	-403.067807	-403.066863	-403.112862	39.811	
C	 0.1128234444	 1.4951595363	 0.2021032724	-0.404123
C	 0.0138541862	-0.0412342199	 0.0597279279	 0.156128
C	 0.735783489	-0.7437137503	 1.2327205967	-0.404123
C	-1.4741600833	-0.4371511064	 0.0990867696	-0.417999
C	 0.6551154885	-0.4765515814	-1.2735446492	 0.165092
N	 1.8765267839	-0.313218258	-1.6570639711	-0.176831
O	 2.6784094544	 0.3399678394	-0.7228156903	-0.380958
C	-0.1405003273	-1.1492577192	-2.2540206891	 0.287259
C	-0.8287454182	-1.7139023222	-3.0647108232	-0.409165
H	 1.1475821152	 1.8362767768	 0.1997070675	 0.138338
H	-0.4185445302	 1.9960063318	-0.6135793767	 0.114747
H	-0.3535945939	 1.8033246551	 1.1440376032	 0.108976
H	 0.2712481727	-0.4422788957	 2.1777580821	 0.108977
H	 0.6464588489	-1.831575827	 1.1483723658	 0.114747
H	 1.7939821761	-0.4868371035	 1.2690923663	 0.138337
H	-2.04159287	 0.0379062666	-0.7056218917	 0.120809
H	-1.6085193176	-1.5185273309	 0.0108356641	 0.120809
H	-1.9050420807	-0.1177867524	 1.0533265678	 0.106822
H	 3.52838742	 0.3681128388	-1.1754903438	 0.313176
H	-1.428954298	-2.2124469281	-3.7851252083	 0.198983
63.762	164.1634	178.5405	217.3364	231.7638	244.9809	262.7769	296.5839	306.9587	378.6569	381.9083	407.1473	425.0355	480.3621	549.2085	569.3245	609.8453	657.1967	666.7019	699.7624	845.0316	938.765	942.2798	970.137	1001.5772	1046.2888	1055.2084	1162.4356	1226.726	1243.9883	1275.0598	1388.709	1396.3006	1402.8044	1433.4858	1475.7866	1486.0391	1492.1169	1500.5403	1506.7296	1525.1764	1653.8679	2221.7833	3036.773	3037.0124	3043.8525	3097.4012	3099.1272	3110.9487	3120.647	3155.3474	3157.4767	3502.031	3814.0881
CC(C)(C)C(=NO)C#C	CC(C)(C)C(=NO)C#C	
InChI=1S/C7H11NO/c1-5-6(8-9)7(2,3)4/h1,9H,2-4H3	InChI=1S/C7H11NO/c1-5-6(8-9)7(2,3)4/h1,9H,2-4H3
