18
gdb 8175	2.9371	2.39714	1.67755	1.3114	72.77	-0.2167	0.0211	0.2378	838.0583	0.153844	-347.778183	-347.770741	-347.769797	-347.809322	29.53	
C	 0.0103379988	 1.4635732327	 0.044699791	-0.523883
C	-0.0062826441	-0.0223822335	-0.0244478506	 0.27699
C	-0.0151275123	-0.8910011029	-1.0395335683	-0.198905
C	-0.0099608891	-2.258810032	-0.3408087841	-0.073178
C	 1.0635111026	-2.0071264164	 0.7763669426	-0.235918
C	 0.0011747733	-0.9577638642	 1.2131049916	 0.323808
O	 0.0861070774	-0.4027583522	 2.487851319	-0.482551
C	-1.0777654566	-2.0164976617	 0.780560586	-0.271535
H	 0.8751730846	 1.8240074423	 0.6152198478	 0.13696
H	 0.0456100472	 1.9091715225	-0.9532536719	 0.127895
H	-0.8804842518	 1.8589118558	 0.5527517635	 0.114684
H	-0.0184835061	-0.7101816482	-2.1058664895	 0.094191
H	-0.0082315872	-3.1616909259	-0.9473378958	 0.064941
H	 1.1607174142	-2.8342543964	 1.4863605459	 0.095771
H	 2.0409388958	-1.6336345125	 0.4637928319	 0.093014
H	-0.6731466457	 0.1744483129	 2.6223529386	 0.278752
H	-2.0587878299	-1.648671739	 0.4689996741	 0.084803
H	-1.1676593112	-2.8450699311	 1.4900586482	 0.094161
153.3204	175.5626	213.3205	232.5755	359.3063	413.2146	486.523	514.6419	576.9618	602.1026	658.5704	779.7038	780.6065	835.2666	886.183	913.8249	918.5424	959.9282	1005.0265	1008.6745	1052.7081	1069.9403	1075.8544	1127.3627	1156.4993	1175.4608	1221.0975	1231.8383	1254.6632	1268.4127	1324.2104	1351.0683	1411.9638	1476.3634	1477.1194	1485.4614	1518.3106	1700.0788	3007.2368	3043.4822	3055.4768	3055.8356	3108.8204	3114.7141	3124.7584	3140.2952	3219.2886	3807.3278
CC1=CC2CC1(O)C2	CC1=C[C@H]2C[C@]1(O)C2	
InChI=1S/C7H10O/c1-5-2-6-3-7(5,8)4-6/h2,6,8H,3-4H2,1H3	InChI=1S/C7H10O/c1-5-2-6-3-7(5,8)4-6/h2,6,8H,3-4H2,1H3/t6-,7-
