18
gdb 51080	4.25069	1.11042	1.04821	3.4876	78.89	-0.2409	-0.0036	0.2374	1185.9497	0.148321	-401.9088	-401.901143	-401.900199	-401.941457	29.901	
N	-0.1092760019	 1.2952405311	-0.0073974202	-0.4441
C	-0.0593227644	 0.0356836116	 0.052766659	 0.102693
O	-1.1887665597	-0.689129636	-0.093401428	-0.248411
C	-1.0598866313	-2.0854973109	-0.0303839903	 0.398728
C	-0.6678846481	-2.8683809149	 1.2723099858	-0.26688
C	-1.3309885001	-4.0299756552	 0.4533052674	-0.085541
C	-2.3530834038	-2.9451188455	-0.0478645825	-0.260671
C	-0.3862519759	-4.1030453434	-0.7562753477	-0.080009
C	-0.2043638653	-2.8219343285	-1.0812627186	-0.153278
H	 0.8221022468	 1.6841883245	 0.1254468013	 0.228795
H	 0.8367688804	-0.5752210748	 0.221042286	 0.09249
H	 0.3933274759	-2.9642253202	 1.5114581653	 0.09736
H	-1.2506932693	-2.5611649732	 2.1453932776	 0.107895
H	-1.6568648744	-4.952250457	 0.9277916558	 0.075697
H	-3.0769541638	-2.641779777	 0.7136643728	 0.107832
H	-2.8323079271	-3.1079492331	-1.0145591197	 0.105341
H	 0.0050024421	-5.0004689396	-1.2137642606	 0.109157
H	 0.36199739	-2.3579906679	-1.8758912235	 0.112903
69.3885	95.5742	154.1338	354.7767	381.8388	442.6532	472.9519	542.9118	546.3624	693.0902	711.8029	758.9927	823.9531	831.6322	845.0891	899.393	910.4616	940.8293	952.449	1006.0235	1034.2616	1042.6717	1046.9818	1070.9358	1078.1211	1107.2816	1160.8848	1185.4122	1219.5286	1226.2452	1258.4201	1261.7085	1292.3185	1336.079	1422.3463	1477.5747	1516.3581	1629.0017	1744.8601	3037.3589	3054.2353	3066.0343	3127.6493	3137.5383	3149.4336	3222.55	3249.5754	3515.7361
N=COC12CC(C1)C=C2	[NH][CH]O[C@@]12C[C@@H](C1)C=C2	
InChI=1S/C7H9NO/c8-5-9-7-2-1-6(3-7)4-7/h1-2,5-6,8H,3-4H2	InChI=1S/C7H9NO/c8-5-9-7-2-1-6(3-7)4-7/h1-2,5-6,8H,3-4H2/t6-,7-
