15
gdb 57090	3.30938	1.17937	0.91769	4.0031	65.89	-0.2673	-0.0033	0.264	1192.7658	0.113278	-453.95663	-453.948325	-453.947381	-453.990515	29.23	
O	-0.1998350343	 1.3179366551	 0.0264058338	-0.413177
C	 0.0299782821	-0.0797802482	 0.0271240781	-0.023427
C	 0.6838380017	-0.5129695664	-1.220626521	 0.277515
N	 1.2202596875	-0.7878284295	-2.206071905	-0.31421
C	 0.8378884129	-0.5255260143	 1.267478346	-0.020239
C	 0.1499186392	-0.0993885528	 2.5911113293	-0.128656
O	-0.1436853364	-1.3589860609	 3.2469129431	-0.214368
C	 0.3445158269	-2.3134494848	 2.4270584236	 0.129503
N	 0.9094672042	-1.9923923417	 1.3372623467	-0.265992
H	 0.6257709479	 1.7637653263	-0.196726515	 0.30005
H	-0.9605120145	-0.5454766609	 0.0761054367	 0.14579
H	 1.8492473803	-0.1123675275	 1.1786981084	 0.102343
H	 0.7980716738	 0.4833636911	 3.2489793746	 0.129194
H	-0.7852882126	 0.4434702656	 2.4371095552	 0.141664
H	 0.2060677312	-3.3275883211	 2.7850216254	 0.154011
60.8175	77.4518	129.309	225.3207	247.0948	313.3341	346.3276	429.1366	478.7765	569.6333	615.1402	761.3137	860.38	889.8162	947.0705	964.2711	972.8146	1014.4599	1045.2003	1074.7143	1121.1431	1146.2822	1206.0168	1251.7845	1291.8778	1299.9121	1317.566	1373.1008	1379.3254	1417.2539	1518.4009	1697.9828	2360.6905	3036.3743	3066.9349	3072.2749	3122.952	3220.9152	3800.1356
OC(C#N)C1COC=N1	O[C@@H](C#N)[C@H]1COC=N1	
InChI=1S/C5H6N2O2/c6-1-5(8)4-2-9-3-7-4/h3-5,8H,2H2	InChI=1S/C5H6N2O2/c6-1-5(8)4-2-9-3-7-4/h3-5,8H,2H2/t4-,5+/m1/s1
