14
gdb 42537	4.25657	1.27753	1.16681	3.3714	73.14	-0.2805	-0.0177	0.2629	1026.4123	0.102115	-395.673626	-395.666762	-395.665817	-395.704975	26.527	
N	-0.1228996276	 1.206081606	-0.1145863145	-0.541681
C	-0.0804668241	-0.0423799822	-0.0572458761	 0.438159
C	-1.0992063575	-1.1394134891	 0.133299856	-0.165306
C	-0.8947351464	-1.9684176146	-1.1708345702	-0.291919
C	 0.5220958172	-2.2329819981	-0.6392510887	 0.22873
C	 1.4874030147	-3.1574326805	-1.1424749564	 0.202987
N	 2.2331973286	-3.9305976381	-1.5696888365	-0.33505
C	 0.1268166002	-1.9220781089	 0.7524480578	-0.089815
N	 1.0539129355	-0.9735089783	 0.0420187808	-0.218541
H	 0.8183545411	 1.5987479186	-0.1930959822	 0.241336
H	-2.0833407865	-0.9682452201	 0.5569503173	 0.115761
H	-1.4768246051	-2.8918249839	-1.1703112078	 0.137713
H	-1.0038442214	-1.4431806366	-2.1229585786	 0.135067
H	 0.3570849814	-2.3670533441	 1.7092648191	 0.14256
120.8633	156.9855	207.0052	368.1363	442.0662	499.2391	541.6978	556.449	654.55	684.278	756.5635	799.4325	836.4436	875.5125	916.8857	930.6371	950.1128	981.3181	1024.7427	1046.4892	1112.3257	1131.917	1142.5849	1183.3491	1218.3732	1250.5801	1287.241	1369.5403	1497.6961	1831.996	2362.6913	3070.6593	3136.2716	3182.769	3237.2059	3458.8791
N=C1C2CC3(C#N)C2N13	[NH][C]1[C@H]2C[C@]3(C#N)[C@H]2N13	
InChI=1S/C6H5N3/c7-2-6-1-3-4(6)9(6)5(3)8/h3-4,8H,1H2	InChI=1S/C6H5N3/c7-2-6-1-3-4(6)9(6)5(3)8/h3-4,8H,1H2/t3-,4-,6-,9?/m0/s1
