17
gdb 113126	2.33683	1.23394	0.93063	4.886	81.47	-0.2566	-0.007	0.2496	1294.876	0.133302	-380.814964	-380.805484	-380.80454	-380.849383	34.404	
C	-0.1139136226	 1.5698963838	-0.267434122	-0.38236
C	-0.0168402982	 0.1506697662	 0.2840176474	-0.12522
N	-1.3146555835	-0.5173606736	 0.1489416344	-0.109093
C	-1.582630689	-1.2495570821	-1.0637167251	-0.262917
C	-1.3558250622	-1.9949527777	 0.2359230223	 0.012711
C	-0.1530431526	-2.7738777012	 0.3913296213	 0.290972
C	 0.8418523253	-3.428396725	 0.5510024616	-0.436621
C	-2.5098879025	-2.5124093222	 0.9492407226	 0.248916
N	-3.4338142891	-2.9335502971	 1.5005009888	-0.335527
H	 0.8381422134	 2.0918856972	-0.1349183177	 0.122501
H	-0.3484363543	 1.5624632835	-1.3368829184	 0.121742
H	-0.896138321	 2.1329492834	 0.2482890272	 0.13716
H	 0.786218852	-0.405048282	-0.2226247734	 0.104708
H	 0.2267340156	 0.1716373485	 1.3511480445	 0.123336
H	-2.5920215254	-1.1841035509	-1.4590319086	 0.146015
H	-0.7882077351	-1.3553638986	-1.8012477968	 0.132614
H	 1.7184933691	-4.0130049421	 0.687288672	 0.211061
76.4694	119.5896	128.4756	144.048	209.0521	242.6041	268.8435	360.3201	395.3065	481.5986	508.8614	589.3761	601.3948	616.4815	680.5146	684.3466	768.8801	812.8324	897.8339	916.1309	969.0535	1057.4098	1105.6172	1122.795	1135.1546	1197.7689	1249.0434	1308.7631	1326.351	1386.5256	1412.9883	1486.9824	1489.7293	1498.7821	1515.3259	2239.9588	2363.4388	2995.4451	3042.7242	3074.9333	3095.9038	3113.204	3126.6488	3196.4049	3499.1167
CCN1CC1(C#C)C#N	CCN1C[C@]1(C#C)C#N	
InChI=1S/C7H8N2/c1-3-7(5-8)6-9(7)4-2/h1H,4,6H2,2H3	InChI=1S/C7H8N2/c1-3-7(5-8)6-9(7)4-2/h1H,4,6H2,2H3/t7-,9?/m0/s1
