17
gdb 45746	2.94347	1.44455	1.1145	4.2609	74.73	-0.2369	-0.0155	0.2214	1094.1453	0.138667	-414.178119	-414.170275	-414.169331	-414.21097	29.457	
N	-0.0251103534	 1.2696971522	 0.1780680105	-0.539156
C	 0.0201390316	 0.0088774188	 0.0615724583	 0.390154
N	 1.1107258929	-0.8601216356	-0.0539220636	-0.34506
C	 0.6359350857	-2.1612192004	-0.0973310654	 0.0615
N	-0.6333612047	-2.2980254193	-0.0781778451	-0.260009
C	-1.1879107923	-0.9345477274	 0.0014890051	-0.086093
C	-2.1363953956	-0.7547594925	 1.1783769293	 0.016453
C	-3.1243329484	-1.8045239839	 1.5089716504	-0.246044
N	-1.9730757938	-1.5516579606	 2.4011762417	-0.323678
H	 0.9023116677	 1.6959904924	 0.1911293173	 0.211248
H	 2.0775905519	-0.592211567	 0.0263001401	 0.261292
H	 1.3396175274	-2.986159587	-0.1526594103	 0.141183
H	-1.7421301837	-0.7252668581	-0.9234033223	 0.128242
H	-2.3807027365	 0.2898327114	 1.3531316796	 0.116581
H	-4.0924188869	-1.528643739	 1.9171261931	 0.115109
H	-3.1114529059	-2.7095952029	 0.9089317597	 0.126872
H	-1.2791195659	-2.2760635411	 2.2227436016	 0.231405
78.8102	95.5151	167.8782	226.6603	332.4094	354.6939	438.9497	504.2401	602.036	629.7522	706.9885	808.7995	850.3909	855.7564	875.5042	896.3184	944.952	958.8031	987.7332	1002.8616	1078.4781	1081.8159	1090.5705	1129.3735	1152.0261	1190.8354	1247.0305	1273.7309	1287.9988	1299.4914	1315.3385	1351.577	1402.8608	1418.029	1503.3622	1677.866	1768.8146	3021.5379	3114.5259	3148.4886	3190.5682	3204.3702	3463.4936	3480.1127	3656.6197
N=C1NC=NC1C1CN1	[NH][C]1NC=N[C@H]1[C@H]1CN1	
InChI=1S/C5H8N4/c6-5-4(3-1-7-3)8-2-9-5/h2-4,7H,1H2,(H2,6,8,9)	InChI=1S/C5H8N4/c6-5-4(3-1-7-3)8-2-9-5/h2-4,7H,1H2,(H2,6,8,9)/t3-,4+/m1/s1
