21
gdb 101899	5.54268	0.52729	0.51002	3.9775	77.54	-0.2742	0.0106	0.2849	2154.5483	0.179606	-461.388826	-461.377914	-461.37697	-461.426604	37.587	
C	 0.1818425397	 1.3975007874	 0.3094780058	-0.382239
C	 0.1156943668	-0.1104295459	 0.0570933452	-0.193694
C	 0.647993155	-0.5158269149	-1.321817219	 0.131959
O	 2.0007350985	-0.0953564439	-1.512544942	-0.430508
C	 0.497550075	-2.0196381403	-1.5848575381	-0.209717
C	 0.975365128	-2.4077237059	-2.9793663312	-0.09004
O	 0.788481737	-3.813729234	-3.1941635148	-0.175118
C	 1.8795680195	-4.5838017522	-3.3479186059	 0.168599
O	 1.8227979466	-5.76603559	-3.5069090969	-0.276296
H	 1.2029512637	 1.7673712933	 0.1850641655	 0.127191
H	-0.4548103264	 1.941648892	-0.3966311756	 0.117781
H	-0.1540891961	 1.6437702567	 1.3208338289	 0.11425
H	 0.6927566566	-0.6471811512	 0.8250447364	 0.089061
H	-0.9176263094	-0.4654971863	 0.1537023616	 0.103293
H	 0.0887011276	 0.0352626563	-2.0904222516	 0.090531
H	 2.5239256019	-0.4614207193	-0.7897583826	 0.279003
H	 1.0709684887	-2.5835743493	-0.8361889152	 0.097004
H	-0.5509422749	-2.3151283152	-1.4668460296	 0.117292
H	 0.3933927728	-1.8906469739	-3.7492578543	 0.123274
H	 2.0280037926	-2.1357481799	-3.1129960875	 0.12384
H	 2.8219823368	-4.0011041437	-3.314338209	 0.074533
32.8882	45.7449	91.8355	116.3606	135.2604	179.1107	218.8794	278.7331	297.451	326.6391	350.002	424.1223	474.3794	540.0349	678.6205	774.98	795.9871	871.4639	952.7158	1002.139	1023.6773	1041.0132	1047.5174	1066.7829	1097.1289	1120.5651	1147.5513	1158.9358	1254.3996	1267.8724	1283.8282	1319.0342	1349.1883	1363.0375	1393.7812	1404.5378	1407.9226	1421.7707	1433.0722	1476.6908	1487.8211	1495.6827	1508.9583	1512.3287	1865.8055	2935.7909	2999.5227	3014.7388	3027.4197	3039.8586	3043.753	3053.396	3072.5468	3097.5038	3105.5384	3122.4988	3789.1217
CCC(O)CCOC=O	CC[C@@H](O)CCOC=O	
InChI=1S/C6H12O3/c1-2-6(8)3-4-9-5-7/h5-6,8H,2-4H2,1H3	InChI=1S/C6H12O3/c1-2-6(8)3-4-9-5-7/h5-6,8H,2-4H2,1H3/t6-/m1/s1
