21
gdb 32590	2.65903	1.23814	0.91454	3.5043	86.96	-0.2019	0.0393	0.2412	1362.6236	0.182298	-383.332052	-383.322091	-383.321146	-383.367446	35.795	
C	 0.0213158616	 1.553394294	 0.1930754344	-0.372698
C	-0.0136517241	 0.0467704226	-0.0791258434	-0.161659
N	-1.3566486119	-0.5098081717	-0.0417778559	-0.015685
C	-2.0553734858	-0.8558118654	 1.1014871657	-0.218968
C	-3.2922997595	-1.2692837107	 0.6849546028	 0.269957
C	-4.4392445993	-1.762323429	 1.5060813652	-0.487916
N	-3.3714916262	-1.1807345012	-0.6892655413	-0.356092
C	-2.2054900337	-0.7219299557	-1.0961265091	 0.325588
C	-1.8378189352	-0.4722128192	-2.5217765351	-0.506261
H	 1.0521744138	 1.9201252538	 0.166974017	 0.120693
H	-0.5579154584	 2.0999773002	-0.5568314823	 0.131594
H	-0.4000136919	 1.7801788345	 1.1765074162	 0.131934
H	 0.4159756141	-0.1710493948	-1.0606917571	 0.123174
H	 0.5954792841	-0.4856946563	 0.6588617511	 0.121772
H	-1.605251782	-0.7835063929	 2.0787325489	 0.114446
H	-5.3243424301	-1.1316076158	 1.3671207017	 0.128696
H	-4.7237576237	-2.7801527577	 1.2173131874	 0.128983
H	-4.1886900657	-1.767772865	 2.5706649911	 0.111456
H	-1.5809016752	 0.5765813553	-2.7116276137	 0.127117
H	-0.9857146789	-1.082555078	-2.8446385779	 0.129098
H	-2.6968946719	-0.7316465166	-3.1415768361	 0.15477
44.595	103.5484	116.3983	137.6948	201.7235	207.4153	262.3622	291.3344	295.9661	410.048	474.336	596.9976	636.588	659.551	696.4719	720.5374	775.0514	805.0663	964.6051	986.6425	1025.6481	1028.2468	1060.9476	1064.3295	1097.0176	1099.4746	1190.5848	1214.4503	1293.2719	1323.4384	1386.2432	1398.7109	1406.915	1409.7347	1420.2988	1450.7252	1476.1103	1482.6288	1483.7248	1489.1445	1492.8948	1502.5556	1511.1408	1557.0434	1611.1839	3024.5678	3031.1235	3042.0605	3050.9717	3071.3185	3083.9348	3093.7629	3111.6492	3116.6416	3125.1566	3146.7208	3258.0967
CCN1C=C(C)N=C1C	CCn1cc(C)nc1C	
InChI=1S/C7H12N2/c1-4-9-5-6(2)8-7(9)3/h5H,4H2,1-3H3	InChI=1S/C7H12N2/c1-4-9-5-6(2)8-7(9)3/h5H,4H2,1-3H3
