13
gdb 125842	3.38374	1.14184	0.86481	2.1522	62.25	-0.2975	-0.0589	0.2386	1229.5997	0.087335	-489.862083	-489.85397	-489.853025	-489.895875	27.611	
C	 0.0215680712	 1.494940437	 0.0179929435	-0.495943
C	-0.039426332	 0.0068506566	 0.0370180645	 0.248097
N	 0.0142783145	-0.7411902119	-1.0303921406	-0.122162
O	-0.0709272298	-2.0405636193	-0.6028204998	-0.158034
N	-0.1926979413	-2.1124032513	 0.7590499158	-0.163928
C	-0.1643985295	-0.8724982912	 1.1561063034	 0.362969
O	-0.2677353386	-0.4634045183	 2.4402934005	-0.22529
C	 0.1474981752	-1.3222665371	 3.444753025	 0.165393
O	-0.0151282422	-1.0388599222	 4.5840284849	-0.233158
H	 0.8651863796	 1.8555545932	 0.6144771375	 0.154873
H	 0.1332485211	 1.8508089534	-1.0070049226	 0.162782
H	-0.8886689157	 1.9248249904	 0.4471277766	 0.158785
H	 0.6246813075	-2.2284961092	 3.0453610012	 0.145616
67.841	110.0384	112.8049	159.978	253.5484	270.917	396.4082	474.5091	516.6963	627.3676	678.2944	744.7246	868.5618	920.2872	932.4008	1016.0409	1036.9329	1063.7344	1070.405	1083.5597	1268.1835	1403.371	1417.8846	1436.7268	1477.844	1488.042	1547.7737	1633.0108	1892.1323	3050.3945	3055.0754	3108.7295	3151.239
CC1=NON=C1OC=O	Cc1nonc1OC=O	
InChI=1S/C4H4N2O3/c1-3-4(8-2-7)6-9-5-3/h2H,1H3	InChI=1S/C4H4N2O3/c1-3-4(8-2-7)6-9-5-3/h2H,1H3
