16
gdb 32026	2.86262	1.44602	0.96806	3.6293	83.	-0.1936	-0.0452	0.1484	1173.0894	0.125087	-434.084551	-434.076139	-434.075195	-434.118117	30.51	
C	-0.1269636622	 1.4940487095	 0.0467634788	-0.330375
N	-0.0767020395	 0.0501864487	-0.1217418786	-0.359861
C	-1.166856851	-0.7537960527	-0.0343558857	 0.459657
C	-1.1581950109	-2.1224556905	 0.0464627125	-0.192515
N	-2.3261759266	-2.8238852988	 0.083290355	-0.202622
C	-3.4494132622	-2.1795075531	 0.0429386986	-0.108715
C	-3.553198427	-0.7314170753	-0.0364490397	 0.343515
N	-4.5670412962	 0.0315954735	-0.0808081007	-0.517754
O	-2.3214662801	-0.0701910823	-0.0632051216	-0.225781
H	 0.8336208025	 1.9095982766	-0.2632372159	 0.134206
H	-0.9106261339	 1.9150173449	-0.5844100248	 0.168641
H	-0.3245548269	 1.7931368243	 1.0844903017	 0.136898
H	 0.8051134274	-0.405843411	 0.0442525165	 0.261603
H	-0.2278159395	-2.6752504842	 0.0774069195	 0.097126
H	-4.3798776359	-2.741069174	 0.0736072516	 0.11016
H	-5.417108388	-0.5291918556	-0.0535581873	 0.225815
78.0799	103.9766	121.9481	188.356	197.9347	388.8842	443.0096	453.846	484.2623	538.7909	625.9027	689.1737	717.7934	742.4968	766.0769	805.6529	874.0282	925.3872	1005.8682	1061.2298	1082.1748	1147.0658	1167.9876	1189.3062	1279.9574	1323.001	1391.9863	1427.7673	1462.2833	1485.8843	1494.2739	1517.6154	1566.056	1651.6597	1715.3082	3019.0113	3107.5071	3150.4251	3154.5799	3198.9583	3508.5928	3652.6581
CNC1=CN=CC(=N)O1	CNC1=C[N]C=C([NH])O1	
InChI=1S/C5H7N3O/c1-7-5-3-8-2-4(6)9-5/h2-3,6-7H,1H3	InChI=1S/C5H7N3O/c1-7-5-3-8-2-4(6)9-5/h2-3,6-7H,1H3
