19
gdb 20292	5.11764	1.54411	1.45069	1.0887	75.9	-0.2218	0.0943	0.3161	935.3111	0.167387	-327.833917	-327.827147	-327.826203	-327.865008	27.097	
C	 0.0102568726	 1.3975122455	-0.2653550893	-0.218689
C	 1.3408301932	 0.8212095981	 0.0585442887	-0.226041
N	 0.1525416861	-0.0246878754	 0.0391565264	-0.100584
C	-0.3056034374	-0.5479646381	 1.3135989276	 0.099352
C	-1.2896886066	 0.2212987224	 2.2667413518	-0.076904
C	-2.423713716	-0.0875324483	 1.2387517162	-0.221963
C	-1.6045750655	-1.4059155636	 1.3588995465	-0.058367
C	-1.5971917339	-1.1675762024	 2.8953316919	-0.224809
H	-0.4418987729	 2.0424194851	 0.4844830943	 0.117272
H	-0.2593453591	 1.6345737246	-1.2912820794	 0.115367
H	 2.0711215662	 0.6290109585	-0.7231276986	 0.113463
H	 1.7681569295	 1.0807831863	 1.0265200119	 0.107083
H	 0.5475836102	-1.0143645284	 1.8185855025	 0.06679
H	-1.1171698115	 1.1551929259	 2.8052598626	 0.066012
H	-3.4399604255	-0.1123449595	 1.6425589669	 0.086839
H	-2.3949854327	 0.4284357288	 0.278940734	 0.105769
H	-1.7819770261	-2.345630274	 0.8345653462	 0.07018
H	-0.7964248954	-1.641708448	 3.4703504157	 0.0872
H	-2.5620092051	-1.2585680074	 3.3995301739	 0.09203
73.2074	197.5986	211.6087	384.0584	402.4487	514.9172	579.2343	759.5397	796.4833	808.2728	844.295	876.1769	898.1825	904.6669	908.1739	922.638	1012.7965	1018.2903	1022.4159	1037.5949	1086.449	1089.7689	1111.5161	1114.6436	1126.8372	1140.2954	1145.359	1176.6458	1183.9771	1193.5822	1213.1801	1246.3782	1251.8727	1267.3152	1334.9936	1411.8388	1493.3949	1499.4107	1521.1297	1538.4704	3041.4806	3050.3041	3059.5397	3088.2514	3089.9075	3102.426	3108.481	3117.4924	3137.2512	3170.5159	3189.0483
C1CN1C1C2CC1C2	C1CN1[C@H]1[C@H]2C[C@@H]1C2	
InChI=1S/C7H11N/c1-2-8(1)7-5-3-6(7)4-5/h5-7H,1-4H2	InChI=1S/C7H11N/c1-2-8(1)7-5-3-6(7)4-5/h5-7H,1-4H2/t5-,6+,7-
