20
gdb 92457	2.18665	1.89094	1.46609	2.1022	73.72	-0.219	0.0789	0.2979	1000.094	0.173376	-440.271494	-440.263817	-440.262872	-440.303205	31.074	
C	-0.3336800356	 1.3388444407	-0.0231987111	-0.332704
N	 0.0961402737	-0.0439346175	-0.0366069257	-0.08637
C	 0.7795358229	-0.5059360645	-1.2758698159	-0.193321
C	 1.859664233	-1.4417547118	-0.7037921512	 0.055697
O	 2.9242358029	-0.6330101515	-0.1913199255	-0.278809
C	 2.3829625047	 0.0506664392	 0.9612770455	-0.091856
C	 0.9565062374	-0.5071512042	 1.0699076541	-0.071392
C	 1.1846927871	-1.9583498938	 0.590920615	 0.155699
O	 0.0137661905	-2.7118783107	 0.4348918351	-0.456796
H	 0.4875903285	 2.0663095651	-0.1527765373	 0.102042
H	-1.0523297039	 1.5060509475	-0.8321843016	 0.125592
H	-0.8380823066	 1.5610178153	 0.9228846026	 0.121041
H	 0.0757463594	-1.0091194386	-1.949584329	 0.104601
H	 1.260846837	 0.3154055603	-1.8233687924	 0.103935
H	 2.2733147952	-2.1754841	-1.3939352602	 0.083522
H	 2.9917384734	-0.1785744531	 1.8454493779	 0.104558
H	 2.4097661105	 1.1351880964	 0.7987955302	 0.102276
H	 0.4734372649	-0.3737739037	 2.0392614996	 0.077162
H	 1.8848610021	-2.5224343636	 1.2105176253	 0.090136
H	-0.6741789371	-2.0661355415	 0.2140060145	 0.284986
140.8264	219.2903	236.8138	262.9529	311.2987	356.8169	420.2911	453.0591	565.2781	568.047	603.3029	724.0609	792.5811	817.5927	862.7298	895.026	932.47	953.4218	997.6087	1024.9873	1042.1063	1071.4953	1084.8675	1127.537	1136.7967	1163.7624	1189.172	1216.2208	1226.6338	1241.0113	1248.8489	1282.0103	1310.419	1317.2482	1342.3629	1367.7288	1376.6095	1440.8799	1460.1504	1487.3237	1505.5802	1511.2618	1527.7993	2947.4011	3008.7617	3013.6568	3047.3698	3050.881	3057.9334	3099.4282	3100.076	3109.5022	3137.817	3714.317
CN1CC2OCC1C2O	CN1C[C@H]2OC[C@@H]1[C@H]2O	
InChI=1S/C6H11NO2/c1-7-2-5-6(8)4(7)3-9-5/h4-6,8H,2-3H2,1H3	InChI=1S/C6H11NO2/c1-7-2-5-6(8)4(7)3-9-5/h4-6,8H,2-3H2,1H3/t4-,5-,6-/m1/s1
