19
gdb 107655	3.26678	1.2781	1.04547	2.2821	76.46	-0.2458	0.0035	0.2492	1179.6871	0.160122	-423.016882	-423.008588	-423.007643	-423.049995	31.82	
O	 0.0452276954	 1.354659556	 0.5212086036	-0.418183
C	 0.0875760115	 0.0665731849	-0.0697943921	-0.13722
C	-1.3062509127	-0.5029275173	-0.2207349988	 0.344675
O	-1.8730176264	-0.8964532841	 1.0612294269	-0.307476
C	-1.5925249202	-1.9115473949	 0.0842367141	-0.033901
C	-2.8065436117	-2.5841329803	-0.546066184	-0.235421
C	-3.2215113168	-1.9603930851	-1.8941854806	-0.27184
C	-3.0828831421	-0.4585586002	-1.9224475526	-0.058299
C	-2.2226184257	 0.2070908982	-1.1528352098	-0.120945
H	-0.4128461998	 1.25165915	 1.3637339058	 0.294122
H	 0.5613280767	 0.1926585223	-1.0490955182	 0.113092
H	 0.700827706	-0.6291916326	 0.522167023	 0.091372
H	-0.7622015155	-2.5614017877	 0.3614913717	 0.086913
H	-2.6140650506	-3.6538744141	-0.6746785262	 0.100546
H	-3.6313763394	-2.4905458169	 0.1677638294	 0.125333
H	-2.6178952411	-2.3855040219	-2.709888029	 0.116067
H	-4.2547700344	-2.2434950927	-2.1228788625	 0.110371
H	-3.7107915265	 0.0839103339	-2.6250107517	 0.095791
H	-2.1333260266	 1.2877592125	-1.1978214289	 0.105004
77.1099	97.8657	163.7108	247.6197	291.1303	364.7655	425.0343	448.1935	500.9753	524.0655	584.6481	694.8442	730.0457	786.1936	807.7427	864.1497	904.8832	938.0504	983.4044	996.6254	1010.7229	1047.0379	1062.0688	1084.332	1115.6004	1181.0775	1193.2482	1212.554	1255.6397	1272.6372	1319.1754	1345.7372	1371.0171	1390.3907	1423.4016	1426.7405	1465.8021	1478.1154	1484.4965	1491.0047	1715.3738	2993.5761	3000.3009	3045.2176	3061.518	3076.6857	3088.2826	3106.0466	3155.0384	3187.9487	3793.759
OCC12OC1CCC=C2	OC[C@]12O[C@H]1CCC=C2	
InChI=1S/C7H10O2/c8-5-7-4-2-1-3-6(7)9-7/h2,4,6,8H,1,3,5H2	InChI=1S/C7H10O2/c8-5-7-4-2-1-3-6(7)9-7/h2,4,6,8H,1,3,5H2/t6-,7-/m0/s1
