21
gdb 53548	4.05085	0.83055	0.78255	0.2327	91.65	-0.2407	0.0618	0.3025	1567.7898	0.182232	-349.887599	-349.878333	-349.877389	-349.923908	34.005	
C	 0.0322159215	 1.4891069694	 0.0087288421	-0.496424
C	 0.0155832445	 0.0328309826	 0.0018804787	 0.06132
C	 0.0148863477	-1.1713713875	-0.0038759121	 0.064644
C	-0.0282567427	-2.6311530175	-0.0104977212	-0.488419
C	-1.4434381495	-3.1816957491	-0.0010125193	 0.368865
C	-2.5584291881	-2.9483534659	-1.0651316612	-0.239919
C	-3.1905406001	-3.8765309756	 0.0106254777	-0.045505
C	-1.8620529713	-4.6844495706	-0.0039726274	-0.266515
C	-2.5404433361	-2.9575936248	 1.0835872688	-0.239915
H	 1.0574476883	 1.8759198129	 0.0008709248	 0.146113
H	-0.4811587319	 1.899066518	-0.8682649035	 0.145192
H	-0.4644064693	 1.8905651746	 0.8991996327	 0.145193
H	 0.4991842637	-3.0159475785	-0.8943676595	 0.124129
H	 0.5142230808	-3.0243570257	 0.8604749661	 0.124129
H	-2.9560369741	-1.9328257135	-1.1373274139	 0.093745
H	-2.3884255496	-3.3851725873	-2.0539302578	 0.084067
H	-4.2029189941	-4.2806197609	 0.0173602388	 0.069839
H	-1.6408633086	-5.2527617377	-0.9125736542	 0.085821
H	-1.6257082992	-5.2605239427	 0.8958818034	 0.085821
H	-2.3539511367	-3.4028806052	 2.0656127402	 0.084068
H	-2.9366863451	-1.9427429348	 1.1711504769	 0.093749
14.409	52.0476	73.0106	205.5662	223.291	295.744	320.6764	383.677	441.8415	540.7414	545.4197	678.4018	756.699	769.8458	812.1809	886.3575	888.0785	954.7141	962.3541	972.085	986.2615	994.5743	1053.6504	1054.1211	1098.6712	1098.6867	1130.8711	1142.0741	1148.9501	1157.5911	1163.2997	1224.3695	1224.5023	1235.972	1276.5844	1306.3843	1344.8305	1415.4617	1465.5522	1479.2656	1480.1304	1497.4356	1498.3892	1555.4412	2372.6712	3004.4637	3024.9738	3033.744	3038.8248	3043.9957	3050.7283	3084.4404	3084.7082	3103.1668	3110.8661	3112.1448	3115.7601
CC#CCC12CC(C1)C2	CC#CC[C@@]12C[C@@H](C1)C2	
InChI=1S/C9H12/c1-2-3-4-9-5-8(6-9)7-9/h8H,4-7H2,1H3	InChI=1S/C9H12/c1-2-3-4-9-5-8(6-9)7-9/h8H,4-7H2,1H3/t8-,9+
