15
gdb 18338	3.3855	2.47056	1.62071	5.0461	60.32	-0.2549	0.0355	0.2904	778.4954	0.121694	-399.824772	-399.81844	-399.817496	-399.855629	23.606	
O	-0.1766968975	 0.2549979344	 0.8213113273	-0.371555
C	-0.1165120717	 1.3190174189	 0.2760483986	 0.448476
O	-1.2243683962	 2.0655077908	-0.0320870983	-0.237052
C	-0.8596035659	 3.3882013255	-0.443759374	-0.10747
C	 0.6774204031	 3.4142785188	-0.3754560149	 0.009884
C	 1.442120445	 3.8345854423	 0.9107212137	-0.255588
C	 1.9987579651	 2.381335717	 0.9479589958	-0.176617
N	 1.0349891655	 1.999341165	-0.1297393776	-0.159989
H	-1.2289546742	 3.5511471378	-1.4604319541	 0.126114
H	-1.334871818	 4.1130932833	 0.2255790088	 0.123091
H	 1.1212505687	 3.8106571216	-1.2926384989	 0.097789
H	 2.1687215532	 4.6418093055	 0.8054288074	 0.115388
H	 0.7760366132	 4.0565258622	 1.749088575	 0.121444
H	 3.0323056249	 2.2877958964	 0.6068282832	 0.12403
H	 1.8648940747	 1.8046767707	 1.8652534678	 0.142056
90.2485	150.0675	254.9799	324.7627	504.1151	652.0693	682.464	718.3517	770.9116	795.0077	812.9106	909.089	929.0648	961.3611	1031.7356	1046.3119	1080.4766	1105.9851	1135.0598	1169.5385	1201.099	1227.5159	1240.1145	1259.3373	1279.3151	1316.8689	1369.6787	1400.8904	1485.3482	1515.8886	1521.2328	1879.2555	3043.9785	3063.7716	3066.8512	3071.6761	3092.3464	3121.3167	3136.3546
O=C1OCC2CCN12	O=C1OC[C@H]2CCN12	
InChI=1S/C5H7NO2/c7-5-6-2-1-4(6)3-8-5/h4H,1-3H2	InChI=1S/C5H7NO2/c7-5-6-2-1-4(6)3-8-5/h4H,1-3H2/t4-/m1/s1
