16
gdb 71515	2.94258	1.58908	1.44635	3.196	69.24	-0.2421	-0.0246	0.2175	946.2136	0.125085	-437.839283	-437.832288	-437.831344	-437.870528	28.03	
O	-0.0367612497	 1.4110490715	 0.0594608933	-0.460372
C	 0.0424118853	 0.0350405392	 0.0302382484	 0.341607
C	 0.6629363897	-0.9665031289	 1.0156886753	-0.235074
N	 0.0227198805	-1.8796456346	-0.0328404235	-0.154354
C	-1.1826774891	-0.9035415036	-0.0358377612	-0.015942
C	-1.7813931432	-0.9427599966	-1.4293663656	-0.372094
C	-0.4661634501	-0.9121728225	-2.2226375639	 0.443044
O	-0.2923172866	-0.8670280041	-3.4103511613	-0.322688
C	 0.5609832871	-0.9137532846	-1.1156124821	-0.188584
H	 0.8530146315	 1.7817742357	 0.0489839998	 0.289771
H	 1.75153892	-1.0548019335	 1.0604110927	 0.106312
H	 0.2110534587	-1.0595585092	 2.0076732789	 0.109516
H	-1.8345349447	-0.9953737558	 0.8333157919	 0.088609
H	-2.3453673344	-1.8583783498	-1.6313207394	 0.139531
H	-2.4129364317	-0.0814970031	-1.6643312944	 0.141012
H	 1.6170965466	-1.0045276403	-1.3646729289	 0.089707
117.1377	219.5759	268.8677	349.792	377.8144	416.3103	524.4644	562.2892	613.612	654.0115	695.3919	741.2707	834.889	858.2292	900.375	929.5143	957.3927	963.5183	1032.1295	1037.8442	1076.7545	1109.7836	1127.3163	1134.4671	1167.0377	1200.8007	1245.792	1262.7018	1270.4421	1279.8388	1325.3066	1395.3427	1444.5929	1529.5089	1868.7737	3051.7494	3064.3511	3113.5464	3118.3723	3119.8789	3141.5701	3803.4703
OC12CN3C1CC(=O)C23	O[C@@]12CN3[C@@H]1CC(=O)[C@@H]23	
InChI=1S/C6H7NO2/c8-3-1-4-6(9)2-7(4)5(3)6/h4-5,9H,1-2H2	InChI=1S/C6H7NO2/c8-3-1-4-6(9)2-7(4)5(3)6/h4-5,9H,1-2H2/t4-,5+,6+/m1/s1
