17
gdb 73471	2.94688	1.89194	1.61075	0.7283	66.52	-0.2247	0.0746	0.2993	890.5745	0.137049	-458.938882	-458.931948	-458.931004	-458.969934	27.808	
C	-0.0240792006	 1.4741799752	-0.0432457553	-0.464837
C	 0.0238664532	-0.0262402797	 0.0113848159	 0.382905
O	-1.1857208053	-0.5867821342	-0.4333450197	-0.315857
C	-1.2322767928	-2.0153360103	-0.4165323353	-0.068708
C	 0.0889258715	-2.5713647853	 0.0976426071	 0.121757
O	 0.3320680125	-2.0414070309	 1.3930124416	-0.2565
C	 0.7779784614	-0.7283893092	 1.1267860898	-0.037527
C	 1.3162449625	-0.7627878405	-0.2936580578	-0.037501
O	 1.1376130271	-2.0928949207	-0.7325658336	-0.256495
H	 0.9193319495	 1.9048054565	 0.3052874829	 0.120427
H	-0.2001186253	 1.8132816845	-1.068810983	 0.133431
H	-0.8315244583	 1.8533604929	 0.5907994776	 0.133465
H	-2.052976702	-2.3402312141	 0.2357472799	 0.108695
H	-1.4199717426	-2.3805553803	-1.4343561024	 0.10869
H	 0.1170831304	-3.6618327738	 0.1347263827	 0.104613
H	 1.2213008446	-0.2382808341	 1.9843861221	 0.111721
H	 2.2241919044	-0.302330536	-0.6622082225	 0.111723
155.8167	198.6651	251.25	291.8557	401.9234	409.4021	539.89	583.512	652.1538	716.5108	728.4987	828.3546	841.0076	868.0109	889.6689	892.1074	954.1272	1036.3041	1041.509	1062.1205	1068.4063	1079.2439	1133.05	1135.0061	1148.9019	1234.5721	1237.2784	1252.4801	1256.0447	1347.9875	1360.8857	1402.4224	1413.2898	1430.7684	1476.7985	1502.1532	1506.6221	3011.9523	3038.126	3053.5644	3109.5077	3111.2362	3115.1393	3190.8116	3198.7912
CC12OCC3OC1C2O3	C[C@]12OC[C@@H]3O[C@H]1[C@H]2O3	
InChI=1S/C6H8O3/c1-6-4-5(6)9-3(8-4)2-7-6/h3-5H,2H2,1H3	InChI=1S/C6H8O3/c1-6-4-5(6)9-3(8-4)2-7-6/h3-5H,2H2,1H3/t3-,4+,5-,6+
