23
gdb 95208	2.36966	1.61044	1.13358	1.7253	84.33	-0.2563	0.0788	0.3351	1174.8001	0.207302	-388.29964	-388.290907	-388.289963	-388.332462	34.879	
C	-0.0860828504	 1.567351018	-0.0776793114	-0.416653
C	 0.0598452027	 0.0420000402	-0.0479385488	 0.036289
C	 0.6864151974	-0.4999769117	-1.343689308	-0.203775
C	 0.5440122136	-2.0252806685	-1.4279718571	-0.248413
C	 1.0317448662	-2.705059645	-0.1698360723	 0.067033
O	 2.3111634926	-2.2850631097	 0.3116615299	-0.258928
C	 1.1502934971	-1.9591294531	 1.0946444155	 0.033292
C	 0.8023317409	-0.477828477	 1.215058568	-0.01739
C	 2.0682154032	 0.3104402376	 1.5943702537	-0.389964
H	 0.8765231184	 2.0644904023	-0.2350093396	 0.119963
H	-0.7498208848	 1.8715620964	-0.8938116026	 0.109071
H	-0.5109134532	 1.9501470375	 0.856895142	 0.108948
H	-0.9558585678	-0.3784051124	 0.0051915159	 0.066427
H	 0.1990432837	-0.040066589	-2.2106561759	 0.08867
H	 1.7456686891	-0.2244904309	-1.3952440284	 0.111842
H	-0.5104730572	-2.2958516967	-1.5760641651	 0.098777
H	 1.0923946492	-2.4224734849	-2.2908909456	 0.103277
H	 0.8722387469	-3.7838159277	-0.1196637145	 0.081072
H	 1.0990581268	-2.5238584499	 2.027162668	 0.084062
H	 0.1000837263	-0.3915318634	 2.0553013862	 0.068976
H	 2.8092091774	 0.2781898972	 0.7914444018	 0.133214
H	 1.8401405335	 1.3547716909	 1.8205889109	 0.111521
H	 2.5343084182	-0.1279068402	 2.4830029777	 0.11269
90.3173	195.7076	216.3419	253.9736	281.021	298.6161	314.6483	343.8623	400.6268	469.0042	510.4939	641.5567	660.1346	720.2832	799.8299	814.8292	867.3867	903.6313	935.3695	962.4228	973.9425	1016.3332	1030.4033	1050.1744	1075.3382	1095.306	1105.2467	1129.6833	1175.0033	1201.3396	1216.3804	1262.7616	1294.4202	1331.5732	1335.8349	1347.6217	1370.3673	1376.7099	1386.7103	1401.3812	1408.9102	1416.5304	1465.8017	1483.1532	1487.9029	1494.7544	1498.3016	1504.8201	1511.6812	2980.7188	3011.0058	3016.1366	3028.9403	3038.0842	3044.7404	3054.8193	3079.7055	3083.7161	3094.0831	3096.9324	3100.9087	3108.1662	3128.7767
CC1CCC2OC2C1C	C[C@H]1CC[C@H]2O[C@H]2[C@H]1C	
InChI=1S/C8H14O/c1-5-3-4-7-8(9-7)6(5)2/h5-8H,3-4H2,1-2H3	InChI=1S/C8H14O/c1-5-3-4-7-8(9-7)6(5)2/h5-8H,3-4H2,1-2H3/t5-,6-,7+,8-/m0/s1
