16
gdb 30378	3.40522	1.32837	1.03559	1.5352	86.03	-0.2386	-0.0728	0.1657	1142.6449	0.125178	-396.928625	-396.920713	-396.919769	-396.961303	29.146	
C	 0.4154702331	 1.432386709	 0.1599866056	-0.334276
N	 0.3394928916	-0.0142250274	 0.1091536569	-0.273222
C	 0.4915393072	-0.6275138537	-0.9996101969	 0.237542
C	 0.331516062	-2.0791381702	-1.0946309282	-0.139064
C	 1.0010890854	-2.8862904047	-1.9543132224	 0.014657
N	 2.0490773725	-2.5744355847	-2.7865055592	-0.236036
C	 2.257598524	-1.3949805136	-3.2673642816	 0.075842
N	 1.4118121739	-0.3123896192	-3.2964816014	-0.192507
C	 0.6056852686	 0.0040703278	-2.3551818379	-0.04155
H	 1.0562382936	 1.7172949297	 1.0014766096	 0.139296
H	 0.8044954648	 1.9205693741	-0.7447245521	 0.108545
H	-0.5802981577	 1.840669111	 0.3758721511	 0.134549
H	-0.3751810611	-2.5256046872	-0.4008580264	 0.120792
H	 0.7801303579	-3.9510469987	-1.9259966061	 0.117824
H	 3.1632235151	-1.2547399936	-3.856034554	 0.128169
H	-0.1128553909	 0.7976297015	-2.574925497	 0.139437
80.757	122.3197	196.2213	230.7497	330.4586	335.3903	369.2466	436.7293	504.704	595.749	651.1781	697.5204	813.6716	843.954	898.0552	954.8009	979.1716	1006.4131	1012.4601	1039.0526	1094.5732	1118.9383	1152.6563	1241.3391	1272.3795	1393.889	1424.8207	1436.6377	1451.6314	1476.9772	1503.2855	1557.2308	1626.7606	1678.4449	1715.4577	2991.815	3058.9009	3079.643	3097.7686	3143.3082	3152.0241	3179.5951
CN=C1C=CN=CN=C1	CN=c1ccncnc1	
InChI=1S/C6H7N3/c1-7-6-2-3-8-5-9-4-6/h2-5H,1H3	InChI=1S/C6H7N3/c1-7-6-2-3-8-5-9-4-6/h2-5H,1H3
