23
gdb 62675	2.3356	1.6654	1.26665	0.2688	89.67	-0.1991	0.0814	0.2805	1136.8442	0.204816	-351.082557	-351.073416	-351.072472	-351.115354	36.957	
C	-0.2163433628	 1.5990650903	 0.0542764704	-0.490274
C	 0.037657095	 0.0864327978	 0.0344528992	 0.268406
C	-1.1715930889	-0.6376860077	-0.5608285663	-0.453983
C	 1.3179238816	-0.6708265936	-0.3243896469	-0.159516
C	 2.6788384518	-0.1525123282	 0.1970593096	-0.054721
C	 2.6417805484	 1.1543251112	 0.923823889	-0.316913
C	 2.1071278921	-0.0858905959	 1.6059303189	-0.11638
C	 0.7602365497	-0.7047819778	 1.1009436603	 0.304726
C	 0.1907290389	-1.8322224827	 1.9182271491	-0.496242
H	 0.2740696781	 2.11349162	-0.7787268607	 0.122891
H	-1.2909947832	 1.7873150572	-0.0418451046	 0.105747
H	 0.1018146783	 2.0670736679	 0.9864728423	 0.130981
H	-1.3995210314	-0.2240681689	-1.5497014662	 0.115519
H	-1.0060125017	-1.7108899455	-0.6835065614	 0.114452
H	-2.0597016212	-0.5022158059	 0.067268377	 0.113753
H	 1.2709393843	-1.4532462451	-1.0739066816	 0.076152
H	 3.607774039	-0.6099720132	-0.1203072294	 0.084153
H	 3.6098649632	 1.452300857	 1.3201456916	 0.106949
H	 2.0410289228	 1.9916688996	 0.6049831649	 0.111704
H	 2.5604722687	-0.447457464	 2.5212129485	 0.083634
H	-0.1727201615	-1.4613670551	 2.8858981899	 0.115147
H	-0.6436612795	-2.3336521412	 1.4229277413	 0.118106
H	 0.9563706781	-2.5887672262	 2.1295493451	 0.11571
129.2386	191.6518	192.7278	217.6228	259.4919	308.0177	323.1727	336.1787	366.0602	410.502	491.8758	581.2007	606.358	670.727	687.0445	762.7718	844.722	860.3732	885.83	917.5912	921.3994	982.7816	987.5011	994.6775	1014.6296	1035.6432	1043.0887	1063.3483	1091.5571	1114.0496	1145.8323	1159.5755	1193.2909	1201.5144	1216.6402	1283.969	1292.6083	1340.2315	1402.7315	1410.1261	1423.4314	1443.3961	1486.0158	1491.0248	1493.6416	1501.4522	1505.627	1511.9778	1525.9083	3014.033	3025.1883	3035.3083	3062.8715	3084.7793	3088.0566	3109.6783	3121.3535	3129.5384	3133.0216	3162.9287	3175.0451	3187.5271	3253.7875
CC1(C)C2C3CC3C12C	CC1(C)[C@H]2[C@H]3C[C@H]3[C@@]12C	
InChI=1S/C9H14/c1-8(2)7-5-4-6(5)9(7,8)3/h5-7H,4H2,1-3H3	InChI=1S/C9H14/c1-8(2)7-5-4-6(5)9(7,8)3/h5-7H,4H2,1-3H3/t5-,6+,7+,9+/m0/s1
