18
gdb 44369	3.18427	1.64268	1.37144	2.7943	74.43	-0.2096	-0.0164	0.1931	965.8011	0.149762	-401.927059	-401.920101	-401.919157	-401.958641	28.095	
O	 0.0013449127	-0.124314988	-0.3963370305	-0.312213
C	 0.0053502339	 1.0279762679	-0.0336081486	 0.36162
C	-1.3017131966	 1.7650394454	 0.2783345768	-0.333513
C	-1.1593679004	 3.1174526207	 0.957796309	-0.044486
C	-0.4919349469	 3.3400714907	 2.3021512543	-0.092672
C	 0.6767758047	 2.3779542914	 2.4817248876	-0.196697
N	 1.2566967271	 2.8351061258	 1.1734255081	-0.104236
C	 1.303401368	 1.8277960089	 0.1177042095	-0.268317
C	 0.1683541597	 3.8145380559	 1.017561446	-0.042989
H	-1.7928763941	 1.9055917604	-0.6941531436	 0.136765
H	-1.9455072769	 1.0764824522	 0.8381645418	 0.131375
H	-2.0015150167	 3.789549121	 0.8092440382	 0.093186
H	-0.956542044	 3.9298423024	 3.0812274818	 0.094867
H	 1.3416875242	 2.6357353352	 3.3113265375	 0.115952
H	 0.4377220243	 1.3081119128	 2.54398629	 0.110723
H	 2.1207563671	 1.1200980349	 0.2879034177	 0.129989
H	 1.5094982714	 2.3362762846	-0.8339933718	 0.127396
H	 0.3678655325	 4.8099465378	 0.6357852462	 0.093249
60.5718	195.1528	338.5347	369.6106	430.7235	440.878	483.6477	566.2553	678.0163	705.8046	759.4004	793.5305	809.6348	855.3798	864.4678	928.458	950.5489	1006.1173	1020.3181	1038.1975	1054.3427	1084.5281	1099.3472	1137.778	1148.6488	1194.3442	1212.1938	1227.2009	1259.9455	1279.038	1307.9413	1318.1445	1329.9857	1343.2143	1428.9742	1447.7538	1449.9141	1509.6883	1815.2283	3014.1082	3022.9101	3026.0487	3063.4232	3076.0277	3088.6685	3135.79	3165.8363	3201.727
O=C1CC2C3CN(C1)C23	O=C1C[C@H]2[C@H]3CN(C1)[C@@H]23	
InChI=1S/C7H9NO/c9-4-1-5-6-3-8(2-4)7(5)6/h5-7H,1-3H2	InChI=1S/C7H9NO/c9-4-1-5-6-3-8(2-4)7(5)6/h5-7H,1-3H2/t5-,6+,7-/m0/s1
