15
gdb 27107	3.28726	1.17201	0.89625	2.3267	70.83	-0.2362	-0.0032	0.233	1247.0243	0.112169	-453.970354	-453.96192	-453.960976	-454.004876	29.217	
C	-0.1639120322	 1.4577209178	-0.0175499892	-0.497544
C	 0.0108846041	-0.0211500498	-0.0462674087	 0.149128
C	 0.2973755822	-0.8345119796	-1.0905576029	 0.327158
O	 0.5898657221	-0.5909466858	-2.3820436861	-0.211116
C	-0.1960022441	-1.1951837044	-3.3333181251	 0.113886
N	 0.1115415994	-1.0588027118	-4.5417272139	-0.416351
O	 0.3747144258	-2.1296675292	-0.6517876445	-0.176742
C	 0.1157296898	-2.0260563046	 0.6769288991	 0.072566
N	-0.0990097419	-0.8243104899	 1.092120206	-0.29931
H	 0.5729826388	 1.9245547644	 0.6441366521	 0.144481
H	-0.0438922903	 1.8780996223	-1.0187284275	 0.138194
H	-1.1562566758	 1.7267639587	 0.3586997021	 0.140776
H	-1.0373492669	-1.7452630519	-2.9000804339	 0.116584
H	-0.5595288366	-1.5438466097	-5.1337970198	 0.243201
H	 0.1093169856	-2.9462800164	 1.2393203024	 0.155089
34.8384	91.6919	127.0842	144.3148	249.544	254.6149	384.3782	470.4094	498.7793	660.812	671.0865	699.7256	817.6791	821.5172	838.3407	950.7564	975.7685	1022.4844	1041.3046	1069.3322	1101.0213	1150.3828	1248.9773	1254.5009	1306.1307	1375.806	1409.299	1426.1006	1478.3259	1490.7886	1560.7223	1698.2657	1764.5408	3040.8448	3076.5902	3097.0773	3130.2188	3277.0567	3525.204
CC1=C(OC=N)OC=N1	Cc1c(O[CH][NH])ocn1	
InChI=1S/C5H6N2O2/c1-4-5(8-2-6)9-3-7-4/h2-3,6H,1H3	InChI=1S/C5H6N2O2/c1-4-5(8-2-6)9-3-7-4/h2-3,6H,1H3
