16
gdb 130330	3.02712	1.27214	0.95015	5.2259	67.09	-0.2352	-0.023	0.2122	1185.0834	0.125279	-471.165762	-471.157562	-471.156618	-471.198786	30.672	
N	 0.5716324046	 1.4145095151	-0.0552072204	-0.599866
C	 0.2994962156	 0.066609417	-0.0123533096	 0.268914
N	-0.8984512193	-0.4357575144	 0.1527328687	-0.171748
O	-0.7153884329	-1.8050344239	 0.2077128412	-0.165637
N	 0.5948504544	-2.1318535343	 0.0615283003	-0.141791
C	 1.2504596571	-1.0113298895	-0.0712328854	 0.309258
C	 2.7402247773	-0.9911728732	-0.2254499494	-0.337978
C	 3.2523289983	-0.3374680885	-1.5184677388	-0.083054
O	 3.0858901653	 1.0810177798	-1.5435058911	-0.401868
H	 1.3334324541	 1.6406679648	-0.6865173378	 0.266338
H	-0.2506194053	 1.9868092858	-0.1868908671	 0.259518
H	 3.1957089824	-0.4741113391	 0.6307721621	 0.117949
H	 3.0897236326	-2.0278431577	-0.1916670583	 0.139777
H	 4.3101419369	-0.5961186388	-1.6588717198	 0.110592
H	 2.6997713744	-0.7178631261	-2.3821768693	 0.135824
H	 3.7105778245	 1.4627904928	-0.9174532353	 0.293772
68.902	161.0291	181.693	230.6055	295.3053	330.2153	374.0248	431.8821	478.2885	526.3904	615.9837	634.7134	722.7514	748.1532	791.66	871.8217	912.7934	952.8114	968.4546	1018.1015	1050.7545	1077.2382	1172.8088	1191.0394	1251.4683	1291.5198	1373.3543	1393.6258	1411.5342	1461.3229	1468.4757	1501.7155	1554.7877	1632.8742	1664.2693	3014.8407	3021.3511	3090.2475	3100.5144	3502.9585	3636.6583	3811.9931
NC1=NON=C1CCO	Nc1nonc1CCO	
InChI=1S/C4H7N3O2/c5-4-3(1-2-8)6-9-7-4/h8H,1-2H2,(H2,5,7)	InChI=1S/C4H7N3O2/c5-4-3(1-2-8)6-9-7-4/h8H,1-2H2,(H2,5,7)
