19
gdb 106452	2.81286	1.29871	1.09565	2.8612	76.83	-0.2436	-0.0254	0.2183	1172.3991	0.158043	-422.973288	-422.964635	-422.963691	-423.007131	31.971	
C	 0.6666314751	 1.6327924195	-0.3820587552	-0.266107
O	 0.4752196233	 0.2345792437	-0.2483910197	-0.290295
C	 0.8741192283	-0.4935169933	-1.3420384917	 0.426913
C	 0.2989327116	-0.4822213299	-2.7968159762	-0.29515
C	 1.3683710847	-1.6128437058	-2.7498801854	-0.06328
C	 2.2964044888	-0.627171665	-1.9769813259	-0.299071
C	 0.7469277864	-2.0552306805	-1.3928709306	-0.119304
C	 1.5097603489	-2.8960823617	-0.4092619708	 0.116691
O	 2.6298610478	-3.3192856628	-0.5624973404	-0.249937
H	 1.7260691248	 1.8818686768	-0.5301087409	 0.11947
H	 0.0875477196	 2.0407845528	-1.2218334736	 0.116581
H	 0.3187191114	 2.0900539562	 0.5460311457	 0.133782
H	-0.7438042227	-0.7875703924	-2.9154389323	 0.096205
H	 0.5464502948	 0.3830486817	-3.4166186395	 0.095267
H	 1.6581667953	-2.2709644253	-3.5638268635	 0.094313
H	 2.6492998695	 0.2341877685	-2.5495198058	 0.091558
H	 3.0845951272	-1.0676271596	-1.3696962525	 0.12872
H	-0.2956556527	-2.3944674815	-1.4281182955	 0.082343
H	 0.9396543581	-3.1257633213	 0.5203401337	 0.081303
62.0617	93.7476	152.8683	189.9737	223.5296	261.1284	351.7194	421.4753	487.2543	569.218	618.2219	715.4572	782.7235	819.6031	846.3058	920.3259	943.8539	952.4551	983.2705	1021.6416	1049.3695	1080.0854	1090.7593	1115.377	1130.8472	1148.6301	1165.2366	1180.7491	1203.8737	1206.8457	1226.9142	1238.704	1300.7343	1388.0185	1427.0114	1484.1298	1489.8039	1497.4658	1505.6019	1542.4797	1816.3813	2866.3976	2998.3808	3038.4342	3052.3616	3056.7142	3072.9741	3123.9957	3129.535	3161.8559	3166.3382
COC12CC(C1)C2C=O	CO[C@@]12C[C@@H](C1)[C@H]2C=O	
InChI=1S/C7H10O2/c1-9-7-2-5(3-7)6(7)4-8/h4-6H,2-3H2,1H3	InChI=1S/C7H10O2/c1-9-7-2-5(3-7)6(7)4-8/h4-6H,2-3H2,1H3/t5-,6-,7-/m1/s1
