15
gdb 5396	5.41277	1.5697	1.22622	4.0116	71.3	-0.2246	-0.016	0.2086	949.8811	0.121825	-358.904275	-358.897054	-358.89611	-358.936279	25.891	
C	 0.0709605037	 1.4547542999	 0.0085465885	-0.325656
N	-0.0579053182	 0.0172510153	 0.0041573709	-0.347909
C	-1.2331442131	-0.6602567241	 0.0113177415	 0.437342
N	-1.1388944162	-2.0041378285	 0.0066909957	-0.336412
C	-2.282130828	-2.6792001505	 0.0133198665	 0.075874
N	-3.5247997907	-2.1930476927	 0.0242283344	-0.275724
C	-3.5969465811	-0.8543943315	 0.02874151	 0.024807
C	-2.4907752569	-0.0261308463	 0.0227791599	-0.226347
H	 1.1313028437	 1.7123592407	 0.000066732	 0.136923
H	-0.395368454	 1.9114942751	-0.8742633515	 0.134143
H	-0.3796971833	 1.9049834429	 0.9028067142	 0.134051
H	 0.7652769866	-0.5621504767	-0.0027588471	 0.253279
H	-2.1905701632	-3.7639500241	 0.0096366202	 0.110593
H	-4.5972244082	-0.425837134	 0.0376273747	 0.109121
H	-2.5948529211	 1.0510484146	 0.0268234501	 0.095916
54.4733	129.656	217.4596	221.7119	374.8318	434.798	475.5934	560.5711	576.3471	692.32	803.2712	837.5801	845.1603	985.5909	995.148	1023.6176	1093.4352	1102.5643	1161.3125	1169.5046	1214.6053	1262.8066	1344.2787	1373.0747	1426.0634	1458.3	1473.406	1483.6077	1522.988	1568.9881	1600.1633	1638.505	3006.3405	3050.2863	3132.7678	3148.4111	3151.8839	3213.1642	3650.3338
CNC1=NC=NC=C1	CNc1ncncc1	
InChI=1S/C5H7N3/c1-6-5-2-3-7-4-8-5/h2-4H,1H3,(H,6,7,8)	InChI=1S/C5H7N3/c1-6-5-2-3-7-4-8-5/h2-4H,1H3,(H,6,7,8)
