21
gdb 82609	2.31471	1.73861	1.37386	1.5189	81.54	-0.2295	0.0683	0.2978	1052.0171	0.183893	-387.051412	-387.043052	-387.042108	-387.084274	33.11	
C	-0.1793277525	 1.5529116692	-0.0630972149	-0.410922
C	 0.0153463381	 0.0567931355	 0.0433151743	 0.000616
C	 1.2592849206	-0.7260767659	-0.3068103628	-0.068665
C	 2.6579020452	-0.0939771594	-0.1798939884	-0.254236
C	 3.0636888524	-0.1522152127	 1.3043374075	-0.110054
C	 2.5009038641	 0.8496201094	 2.2797682601	 0.085555
O	 1.9528104135	 2.0774526564	 1.9055689313	-0.405721
C	 1.7862997383	-0.4605691893	 2.0935632399	-0.077946
C	 0.6882853943	-0.8069093776	 1.1020326697	-0.062737
H	 0.7369828748	 2.1145882837	 0.0900513227	 0.130262
H	-0.5786446946	 1.7898692075	-1.0565253838	 0.097767
H	-0.9041517489	 1.9070661037	 0.6780464895	 0.112919
H	-0.8762163098	-0.4642701395	-0.3072359195	 0.079273
H	 1.1640055414	-1.553168479	-1.0041217013	 0.07427
H	 3.3756421025	-0.6649378127	-0.7747878437	 0.101956
H	 2.6825036716	 0.932386479	-0.5656102003	 0.097995
H	 4.0166352984	-0.613468368	 1.545904115	 0.078039
H	 3.0424476623	 0.9024014841	 3.2269501381	 0.082606
H	 2.6830567109	 2.6615118973	 1.6728141796	 0.286472
H	 1.8171738308	-1.1176862525	 2.9569422283	 0.083438
H	 0.1130352965	-1.6766397692	 1.4037071187	 0.079113
70.7732	125.6204	192.0888	230.2077	288.3389	299.3831	407.5658	495.6418	538.4069	633.1704	652.8383	677.0357	705.678	728.7022	761.2884	822.114	845.4727	917.8971	930.4984	975.8051	1012.7086	1024.342	1054.7807	1069.7827	1081.1409	1098.1263	1113.6069	1125.3371	1139.288	1151.7029	1213.0506	1255.9562	1278.4613	1288.0573	1305.3436	1322.6127	1356.9092	1375.2257	1380.3259	1419.7009	1440.5123	1462.5222	1486.0419	1492.5843	1505.7308	3030.3913	3034.3317	3065.9742	3082.7436	3086.077	3090.1544	3136.8488	3144.1389	3146.6312	3161.2836	3192.7618	3795.8657
CC1C2CC3C(O)C3C12	C[C@H]1[C@H]2C[C@H]3[C@@H](O)[C@H]3[C@@H]12	
InChI=1S/C8H12O/c1-3-4-2-5-7(6(3)4)8(5)9/h3-9H,2H2,1H3	InChI=1S/C8H12O/c1-3-4-2-5-7(6(3)4)8(5)9/h3-9H,2H2,1H3/t3-,4+,5+,6-,7+,8+/m0/s1
