15
gdb 26617	2.38607	1.87809	1.05211	3.8018	76.64	-0.1755	-0.0195	0.1561	1057.8431	0.113606	-453.978712	-453.970713	-453.969769	-454.010798	31.144	
N	-0.016144172	 1.3955696058	 0.1518689432	-0.588409
C	-0.0439326086	 0.016246975	 0.0533444491	 0.151663
C	-1.1887066203	-0.7238694538	 0.0252628055	 0.297967
O	-2.3831864334	-0.0570857621	 0.0353400073	-0.449304
C	-1.1184803206	-2.154842281	-0.0099578321	-0.285916
C	 0.0871136628	-2.7471085564	-0.0220673206	 0.04917
O	 1.2410212185	-2.0382437555	-0.0127747317	-0.235502
C	 1.2446614211	-0.6545675578	 0.0061993691	 0.351267
N	 2.337140941	 0.0032310703	-0.0237337739	-0.568201
H	 0.8731436075	 1.7832035806	-0.1344956399	 0.267129
H	-0.8280810883	 1.8671816354	-0.2169736834	 0.25384
H	-3.1048458379	-0.6903469981	-0.0171688545	 0.300216
H	-2.0175417974	-2.7600929297	-0.0203312194	 0.101682
H	 0.2676476606	-3.8127002506	-0.0404972035	 0.13518
H	 3.1422946371	-0.6186939423	-0.0666856452	 0.21922
129.0446	185.401	235.5827	287.13	289.7259	347.2641	397.3174	490.5217	503.2334	526.5424	545.2662	613.0215	625.2448	704.556	733.5477	746.9195	800.2121	854.1805	862.9171	964.6741	1038.492	1099.3643	1171.7066	1252.5891	1269.4043	1291.6863	1342.0024	1420.238	1460.5909	1599.5832	1637.4469	1702.3789	1729.1899	3194.981	3239.0413	3513.1026	3549.3951	3671.1641	3842.7143
NC1=C(O)C=COC1=N	NC1=C(OC=C[C@H]1O)[NH]	
InChI=1S/C5H6N2O2/c6-4-3(8)1-2-9-5(4)7/h1-2,7-8H,6H2	InChI=1S/C5H7N2O2/c6-4-3(8)1-2-9-5(4)7/h1-3,7-8H,6H2/t3-/m1/s1
