15
gdb 26548	2.33852	1.86491	1.04415	4.919	71.01	-0.2311	-0.0284	0.2027	1069.4066	0.112398	-457.82226	-457.814041	-457.813097	-457.855538	30.057	
C	-0.0041459596	 1.5394504908	 0.0233262868	-0.481777
C	 0.0110431092	 0.0387405756	-0.0126005909	-0.044381
C	-0.0471263272	-0.6662311574	-1.1641224405	 0.408429
O	-0.1239677386	-0.1121225528	-2.3838382855	-0.402426
O	-0.0361110802	-2.0191992369	-1.2413002024	-0.236678
C	 0.0387606606	-2.7336085011	-0.0826841438	 0.053734
C	 0.1013364418	-2.1544279287	 1.1192670221	-0.252344
C	 0.0924184579	-0.6890720242	 1.2558068789	 0.333129
O	 0.1485186455	-0.1236365808	 2.3410871257	-0.375681
H	 0.8972986671	 1.9140918616	 0.5189441	 0.142518
H	-0.0661741611	 1.9699256521	-0.9768789677	 0.12941
H	-0.8516857268	 1.8941041382	 0.6187291158	 0.142498
H	-0.1533800087	-0.8201526421	-3.0392368961	 0.31067
H	 0.0392008637	-3.7960445712	-0.2867685159	 0.146742
H	 0.1599058363	-2.758194063	 2.0159394737	 0.126157
49.2396	121.9842	191.1795	256.1868	275.6837	335.3115	360.684	458.5011	491.777	534.1097	550.0645	665.2434	680.9274	753.0799	844.2866	848.2017	930.8838	953.1465	1025.4244	1062.8987	1085.1847	1151.3517	1259.7887	1282.7065	1293.9842	1405.2577	1415.2593	1426.7254	1478.1295	1487.7689	1648.9788	1734.3412	1735.8662	3044.8963	3095.3872	3145.8129	3215.4713	3236.3005	3804.9885
CC1=C(O)OC=CC1=O	Cc1c(O)occc1=O	
InChI=1S/C6H6O3/c1-4-5(7)2-3-9-6(4)8/h2-3,8H,1H3	InChI=1S/C6H6O3/c1-4-5(7)2-3-9-6(4)8/h2-3,8H,1H3
