19
gdb 106069	2.43187	1.65568	1.38879	1.5249	75.32	-0.2247	0.0694	0.2941	1032.3326	0.158081	-422.956387	-422.947804	-422.946859	-422.989477	32.729	
C	 0.1068229405	 1.3544068647	 0.2263141413	-0.263513
O	 0.0072699117	-0.0039777686	-0.1892150849	-0.27565
C	-1.2540129591	-0.502993525	-0.1041830541	 0.393
C	-2.1658351101	-0.8976216851	 1.0345439338	-0.154373
C	-3.3482470952	-0.1214718264	 0.4576084317	-0.287668
C	-2.6099206937	-0.2178211498	-0.9099117386	 0.302598
O	-2.7137519522	 0.7704236679	-1.8765976139	-0.482515
C	-2.6533173569	-1.734959216	-1.2589103403	-0.294126
C	-1.7228414486	-1.919869891	-0.0602340796	-0.147013
H	 1.1526839429	 1.6446392447	 0.1074435899	 0.126704
H	-0.5242246376	 2.0036518317	-0.3925549382	 0.134709
H	-0.1852300984	 1.4667323699	 1.279162347	 0.111764
H	-1.9151786173	-1.0735059215	 2.0721702112	 0.089094
H	-4.349281576	-0.5654149191	 0.5180088738	 0.083199
H	-3.3717304779	 0.9099609947	 0.8200589031	 0.099453
H	-3.5900165454	 0.7221000436	-2.2759886899	 0.280956
H	-3.6326481985	-2.228497159	-1.2524948762	 0.08238
H	-2.1330077834	-1.9347778754	-2.1994145569	 0.107744
H	-1.1463778447	-2.7927428104	 0.2154755804	 0.093258
89.2327	139.3004	153.1521	173.5535	237.9712	320.3226	384.2688	422.3138	484.1938	506.0192	596.7855	656.1163	726.3686	756.4613	829.8536	879.2816	896.8931	943.5789	977.6047	991.4021	1012.4582	1047.3759	1065.3121	1092.701	1108.1602	1115.2322	1158.0005	1180.8152	1201.0199	1219.4251	1238.4056	1257.4103	1277.5722	1285.0397	1369.8881	1437.4348	1484.2723	1486.6209	1499.2275	1507.5345	1520.4932	3004.5186	3023.3515	3031.6086	3069.9744	3098.0594	3103.544	3128.675	3201.4197	3210.2776	3788.8301
COC12C3CC1(O)CC23	CO[C@@]12[C@H]3C[C@]1(O)C[C@@H]23	
InChI=1S/C7H10O2/c1-9-7-4-2-6(7,8)3-5(4)7/h4-5,8H,2-3H2,1H3	InChI=1S/C7H10O2/c1-9-7-4-2-6(7,8)3-5(4)7/h4-5,8H,2-3H2,1H3/t4-,5+,6-,7+
