22
gdb 14964	3.8941	1.33794	1.10763	0.1974	84.7	-0.2248	0.0343	0.259	1174.0766	0.202163	-313.102633	-313.094246	-313.093302	-313.135514	32.172	
C	 0.0619555786	 1.569648358	-0.1498959309	-0.369984
C	-0.0509555685	 0.045086459	 0.0300692022	-0.271865
C	 0.6585733141	-0.4794420388	 1.2571962296	 0.331533
C	-0.0137742978	-0.8963228534	 2.334070799	-0.148613
C	 0.6218592967	-1.4465045739	 3.5850072246	-0.238144
C	 2.099632949	-1.8062956457	 3.3762967574	-0.193198
C	 2.8159139834	-0.7069325624	 2.5851296563	-0.197675
C	 2.1719327572	-0.5214293168	 1.2044339569	-0.283638
H	 1.1038391333	 1.8935456697	-0.237433196	 0.116782
H	-0.4608089354	 1.8941887996	-1.0553294779	 0.110451
H	-0.3790388552	 2.0940018128	 0.7037595805	 0.118006
H	-1.1103526966	-0.2304264385	 0.0788330841	 0.096637
H	 0.3575416219	-0.4468375791	-0.8644042702	 0.094192
H	-1.1017649765	-0.8441075263	 2.3267177767	 0.068631
H	 0.5258827519	-0.7109635931	 4.3987370499	 0.102182
H	 0.0626115604	-2.3273103603	 3.926279858	 0.097267
H	 2.5901178153	-1.9741450639	 4.3412374395	 0.087981
H	 2.1668183985	-2.7500974982	 2.8193749083	 0.095431
H	 2.7535516706	 0.2368921124	 3.1427272577	 0.095873
H	 3.8813205697	-0.9376070167	 2.4759012292	 0.088142
H	 2.4792086535	-1.3395004894	 0.5342511857	 0.102228
H	 2.5550583459	 0.3927786551	 0.7340833993	 0.09778
69.3671	105.5247	201.0866	221.0456	262.5698	334.3876	349.0549	433.0845	483.4541	535.968	615.4637	763.3903	788.9623	820.9842	853.8967	862.3537	917.5468	940.7547	943.8576	995.9686	1047.8808	1065.3432	1078.784	1101.998	1115.0666	1159.7391	1174.4116	1198.2543	1266.0106	1281.3819	1295.1606	1340.0194	1354.0309	1368.8018	1373.2974	1382.0529	1401.5823	1406.8647	1471.3091	1478.938	1481.6629	1489.4125	1498.7021	1500.4345	1507.0913	1735.4159	2987.2526	2987.9612	3004.99	3015.9286	3020.1129	3035.1582	3035.562	3042.3233	3058.4146	3065.4223	3070.2368	3104.176	3109.5803	3129.7583
CCC1=CCCCC1	CCC1=CCCCC1	
InChI=1S/C8H14/c1-2-8-6-4-3-5-7-8/h6H,2-5,7H2,1H3	InChI=1S/C8H14/c1-2-8-6-4-3-5-7-8/h6H,2-5,7H2,1H3
