17
gdb 69143	2.79627	1.7629	1.35319	4.9459	71.49	-0.2451	-0.0064	0.2387	975.6261	0.136726	-417.985402	-417.977972	-417.977028	-418.017006	29.246	
C	-0.0432224474	 1.5007980237	-0.0245225665	-0.48333
C	-0.054167451	-0.0072304944	 0.0183277462	 0.322442
C	-0.5398897019	-0.7387860575	 1.2165847492	-0.30668
N	 0.9131553205	-0.6779734917	 0.906652027	-0.16254
C	 1.3828923609	-1.8480310417	 0.2079095898	 0.380871
O	 1.9896341643	-2.7446501142	 0.7114057912	-0.30941
N	 1.0756697873	-1.7576620825	-1.2011321011	-0.130662
C	-0.3216251239	-2.1478354861	-1.5107126499	-0.270259
C	 0.040480318	-0.72104328	-1.3252048282	-0.08696
H	 0.7887952397	 1.866436252	-0.6351870079	 0.134841
H	-0.9759357581	 1.8804694309	-0.4555599337	 0.127292
H	 0.0657966149	 1.9139195819	 0.9809238423	 0.136827
H	-0.8268078806	-0.1794710211	 2.1027650207	 0.133171
H	-1.0469461579	-1.6918547947	 1.1101593242	 0.132824
H	-0.4611236339	-2.5379774563	-2.5147202115	 0.137733
H	-0.8923430001	-2.6677826232	-0.7481709995	 0.136211
H	 0.1150599592	-0.0768559951	-2.1964609021	 0.10763
137.3936	190.5453	197.0454	294.9463	312.0644	382.8345	455.8486	512.544	586.6205	658.8766	698.5982	765.3926	803.2798	835.5124	852.5961	873.6247	940.4177	981.7064	1009.2048	1041.092	1055.0178	1081.6861	1106.6167	1116.5594	1124.9686	1146.828	1165.1457	1257.6688	1275.0166	1357.6438	1407.2248	1423.2159	1485.4744	1494.0468	1503.3033	1528.8555	1877.4136	3037.0396	3102.1181	3117.864	3123.9716	3127.258	3153.4726	3204.1267	3212.97
CC12CN1C(=O)N1CC21	C[C@]12CN1C(=O)N1C[C@@H]21	
InChI=1S/C6H8N2O/c1-6-3-8(6)5(9)7-2-4(6)7/h4H,2-3H2,1H3	InChI=1S/C6H8N2O/c1-6-3-8(6)5(9)7-2-4(6)7/h4H,2-3H2,1H3/t4-,6+,7?,8?/m0/s1
