22
gdb 7154	3.93739	0.79876	0.6927	0.0702	88.15	-0.2389	0.0644	0.3034	1715.73	0.197605	-313.061838	-313.050927	-313.049983	-313.100334	37.378	
C	-0.0443176253	 1.611222131	 0.0570740515	-0.38346
C	 0.0228826567	 0.0822622893	-0.0070083058	-0.174614
C	 0.7864293281	-0.5214638315	 1.1770612823	-0.15028
C	 0.7965594876	-2.0697050061	 1.217060879	-0.160969
C	 1.5363121684	-2.6949534043	 0.016192015	-0.382141
C	 1.371872362	-2.5432719033	 2.4773833063	 0.057968
C	 1.8660389953	-2.9178200369	 3.5102479863	 0.07349
C	 2.4535937619	-3.3775648929	 4.761266769	-0.497596
H	 0.9589926314	 2.0515810013	 0.0514243778	 0.114743
H	-0.593036085	 2.0229859813	-0.795743732	 0.110671
H	-0.5460718366	 1.9476625872	 0.9711141244	 0.114594
H	-0.9958515242	-0.3282638745	-0.0282272644	 0.093515
H	 0.4921088555	-0.2172063816	-0.951508246	 0.099585
H	 1.8242614218	-0.16313229	 1.1737723279	 0.098485
H	 0.3424296809	-0.1591480957	 2.111936238	 0.100861
H	-0.2505862414	-2.4054605767	 1.175475306	 0.096195
H	 1.5401804252	-3.7854114109	 0.0923635678	 0.121451
H	 1.0579547896	-2.421663555	-0.92834781	 0.11371
H	 2.5768243724	-2.355722939	-0.0122468888	 0.120114
H	 2.8454170142	-4.3967517587	 4.6681510726	 0.144669
H	 3.283159682	-2.7334033469	 5.0740046829	 0.144453
H	 1.7160830497	-3.381085776	 5.5718291902	 0.144556
7.442	70.1596	76.8063	92.497	150.1608	211.0548	237.7918	253.8943	293.12	320.3567	338.7916	393.624	514.6648	542.2392	735.8057	746.3922	852.9148	874.9864	927.993	999.9542	1008.6973	1052.4475	1053.6314	1054.8152	1098.2828	1129.4438	1158.1713	1203.1931	1260.2461	1290.5623	1324.9875	1344.2407	1352.7844	1392.7859	1406.1945	1413.4398	1415.3874	1479.6574	1479.887	1481.0646	1493.5659	1495.2147	1499.4407	1501.5804	1511.1227	2368.1989	2987.577	3013.1709	3023.4425	3023.8362	3029.6612	3039.8243	3046.8408	3069.1685	3082.6327	3082.7252	3096.9189	3101.0246	3112.783	3119.3153
CCCC(C)C#CC	CCC[C@@H](C)C#CC	
InChI=1S/C8H14/c1-4-6-8(3)7-5-2/h8H,4,6H2,1-3H3	InChI=1S/C8H14/c1-4-6-8(3)7-5-2/h8H,4,6H2,1-3H3/t8-/m1/s1
