17
gdb 108909	3.3206	1.03301	0.86209	2.7858	70.61	-0.2346	-0.0314	0.2032	1319.8363	0.135868	-455.160908	-455.152012	-455.151068	-455.195525	31.445	
O	 0.1253544695	 1.4488124028	-0.2808237844	-0.418538
C	 0.0754393681	 0.0491043568	-0.2741189234	-0.124208
C	-1.3325922705	-0.4530949374	-0.0996261324	 0.351307
N	-2.3242565355	 0.3599631114	-0.0649066496	-0.345394
C	-3.5322655814	-0.460325646	 0.1378410096	-0.061751
C	-3.0439562907	-1.9228237325	 0.323484394	-0.207197
N	-1.6225613647	-1.796386239	-0.0354153002	-0.346218
C	-4.3090006058	 0.0908897707	 1.3267374936	 0.155339
O	-4.7027172294	-0.5726730685	 2.2503196936	-0.23833
H	-0.7983772782	 1.7421000828	-0.2470102738	 0.295701
H	 0.47837831	-0.3682055973	-1.211431852	 0.118141
H	 0.7014251753	-0.3526156874	 0.5396529446	 0.106841
H	-4.1886014937	-0.3552008731	-0.739484424	 0.109346
H	-3.1885936757	-2.2448920395	 1.360860299	 0.135491
H	-3.5559903164	-2.6286286312	-0.3346132156	 0.120883
H	-0.9512070217	-2.4282248018	 0.3749476824	 0.249073
H	-4.4772897792	 1.1872531391	 1.2766115588	 0.099514
53.9082	77.6417	120.3938	167.3734	213.2571	267.8186	345.4294	384.7693	454.627	478.5108	581.3974	641.062	711.5176	732.4885	840.5191	939.738	999.5982	1032.1764	1033.9933	1047.8341	1088.7773	1097.1028	1121.0388	1206.9701	1234.7448	1254.9201	1267.3491	1304.4401	1326.4197	1362.0753	1408.4118	1454.0194	1498.7955	1509.638	1537.0515	1693.6407	1832.3471	2918.0404	2972.4197	2986.6495	2990.228	3045.8726	3095.7679	3612.577	3695.9434
OCC1=NC(CN1)C=O	OC[C]1[N][C@@H](CN1)C=O	
InChI=1S/C5H8N2O2/c8-2-4-1-6-5(3-9)7-4/h2,4,9H,1,3H2,(H,6,7)	InChI=1S/C5H8N2O2/c8-2-4-1-6-5(3-9)7-4/h2,4,9H,1,3H2,(H,6,7)/t4-/m0/s1
