15
gdb 35178	3.82357	1.20991	1.07782	4.2794	71.04	-0.2585	0.0056	0.2641	1097.371	0.112706	-416.703513	-416.69629	-416.695346	-416.735454	27.704	
N	-0.1549798954	-1.1793252792	 0.0412711253	-0.329213
C	-0.0994418968	-0.0246096652	 0.0541233384	 0.331849
C	-0.021056235	 1.4151636035	 0.0206302675	-0.330581
N	 0.5830243008	 2.0793669715	 1.2176275496	-0.38215
C	 1.2777053368	 2.1338189462	-0.0266811694	 0.479901
C	 2.7423239469	 1.7985399462	-0.3380625146	-0.04189
C	 2.4904581475	 2.2191225156	-1.807236984	-0.216508
C	 1.8477674782	 3.2798770137	-0.8783065922	-0.063804
O	 3.0608452875	 3.2197082688	-0.0280318828	-0.305855
H	-0.8718683611	 1.8942651578	-0.4575524308	 0.138865
H	 0.0877626338	 2.9420243238	 1.4316503796	 0.252577
H	 3.3853705734	 1.0265286788	 0.0787167831	 0.123026
H	 3.3810077489	 2.5692963611	-2.328087053	 0.12213
H	 1.8381275757	 1.5964876169	-2.4237722631	 0.113861
H	 1.4330400587	 4.2612021607	-1.1083000635	 0.107791
98.1969	128.4499	224.4594	296.5196	354.0072	435.8239	513.4831	570.0768	641.831	691.2761	752.6997	806.6226	851.4601	871.6147	891.9096	912.0477	920.828	1000.9124	1026.5879	1029.4158	1069.8603	1117.2553	1133.0613	1170.6685	1179.0021	1193.181	1229.4202	1237.6601	1261.0273	1352.8125	1474.015	1507.0472	2360.027	3074.4066	3126.5558	3143.7381	3155.7132	3164.6956	3503.9595
N#CC1NC11C2CC1O2	N#C[C@H]1N[C@]21[C@H]1C[C@@H]2O1	
InChI=1S/C6H6N2O/c7-2-3-6(8-3)4-1-5(6)9-4/h3-5,8H,1H2	InChI=1S/C6H6N2O/c7-2-3-6(8-3)4-1-5(6)9-4/h3-5,8H,1H2/t3-,4-,5+,6-/m1/s1
