22
gdb 102162	1.57284	1.26908	0.8595	5.211	82.46	-0.2816	0.0398	0.3213	1458.3586	0.192292	-404.368278	-404.357323	-404.356379	-404.404646	39.285	
C	 1.00364905	-0.3854491904	-1.2512306395	-0.397477
C	 0.4261268543	-0.0059988106	 0.1222532654	 0.010455
C	 0.7655193102	 1.4521179409	 0.4684003963	-0.401711
C	-1.0903303346	-0.2914263851	 0.2667958057	 0.034408
C	-1.9525258954	 0.3417406301	-0.8279173183	-0.105264
O	-3.3133485152	 0.1831619743	-0.446702231	-0.423317
C	-1.4196074847	-1.8038179025	 0.3454605136	-0.360355
C	-0.8130870746	-2.4636782423	 1.4976970138	 0.264494
N	-0.3247020594	-2.9717863027	 2.4141151265	-0.321201
H	 2.091666654	-0.267774523	-1.2479419938	 0.121216
H	 0.7921563729	-1.4247605752	-1.5223402665	 0.11441
H	 0.6103500635	 0.2563136719	-2.0474200963	 0.115062
H	 0.9221128453	-0.6346229818	 0.8728671149	 0.104892
H	 0.3419224242	 2.1563252415	-0.2561740896	 0.114033
H	 0.3899286528	 1.7239423829	 1.4600836873	 0.119716
H	 1.8497271082	 1.6026387568	 0.4696018784	 0.117236
H	-1.4209478492	 0.1528747969	 1.2136910939	 0.101915
H	-1.6961386101	 1.4051382981	-0.9340268964	 0.097211
H	-1.7573043907	-0.1444909076	-1.7961261612	 0.091015
H	-3.8697183674	 0.5181529422	-1.1556043949	 0.291636
H	-2.5056537089	-1.9215050531	 0.399797018	 0.169547
H	-1.0885187852	-2.3195080712	-0.5636653963	 0.142078
49.9902	83.2323	114.2473	140.1234	216.2051	225.7	243.6322	251.5175	271.1105	300.3996	337.5065	397.6116	435.4863	456.5941	554.6957	574.6857	761.6747	874.7477	911.6451	931.5281	958.1947	968.3568	999.4363	1006.2394	1061.3131	1107.6053	1134.6649	1152.8863	1203.9034	1227.3523	1241.1256	1264.9397	1315.9222	1337.6936	1350.8325	1378.8463	1397.2267	1405.6453	1428.6183	1456.3093	1473.3121	1485.1363	1498.5777	1507.0726	1511.9715	1523.3136	2357.9986	2980.5472	3016.8151	3024.1551	3031.6243	3034.774	3038.6848	3051.1553	3096.5264	3099.8069	3102.1918	3103.3819	3104.8898	3835.0587
CC(C)C(CO)CC#N	CC(C)[C@@H](CO)CC#N	
InChI=1S/C7H13NO/c1-6(2)7(5-9)3-4-8/h6-7,9H,3,5H2,1-2H3	InChI=1S/C7H13NO/c1-6(2)7(5-9)3-4-8/h6-7,9H,3,5H2,1-2H3/t7-/m1/s1
