16
gdb 11706	5.88461	1.35106	1.23682	3.5878	71.21	-0.252	0.0105	0.2625	986.2946	0.131365	-342.759158	-342.751769	-342.750825	-342.790641	27.85	
C	-0.0646216985	 1.5742803595	 0.087426275	-0.408487
C	 0.051241974	 0.0595173153	 0.0113114031	 0.034802
C	 1.1203489834	-0.5707506999	-0.9595262928	-0.301802
C	 1.7346397101	-1.2948239602	 0.2477277629	 0.245086
N	 2.1428825301	-0.2276464436	 1.20502406	-0.354194
C	 0.739115893	-0.667136118	 1.1807333979	-0.115986
C	 2.3175353714	-2.5933014329	 0.2883232517	 0.168976
N	 2.7887415402	-3.6510057975	 0.308385962	-0.345085
H	 0.9043212033	 2.0205877737	 0.3254471674	 0.141717
H	-0.409555297	 1.9862541411	-0.8666073383	 0.119336
H	-0.7812984652	 1.8761895731	 0.8588906492	 0.11691
H	-0.9241641152	-0.3968667978	-0.1796823944	 0.088339
H	 0.6829199475	-1.2490377414	-1.6929477826	 0.125796
H	 1.801287196	 0.1261837655	-1.4521855111	 0.121178
H	 2.5981307951	-0.680550271	 1.9976813714	 0.248598
H	 0.2772883118	-1.0966495557	 2.0616618787	 0.114815
113.0795	146.9381	229.497	235.7569	303.0324	408.0049	471.1595	555.6115	577.1953	604.874	682.1304	798.2379	853.8029	875.0041	906.5372	950.4768	991.7047	1042.0509	1058.1836	1100.1174	1119.9981	1136.871	1194.4942	1233.1612	1239.1065	1295.9265	1320.672	1375.5221	1392.7414	1413.5728	1476.1926	1492.1123	1503.9016	2343.0227	3035.8494	3067.4166	3079.6562	3098.4482	3124.8171	3143.6528	3192.8812	3479.0011
CC1CC2(NC12)C#N	C[C@H]1C[C@]2(N[C@@H]12)C#N	
InChI=1S/C6H8N2/c1-4-2-6(3-7)5(4)8-6/h4-5,8H,2H2,1H3	InChI=1S/C6H8N2/c1-4-2-6(3-7)5(4)8-6/h4-5,8H,2H2,1H3/t4-,5-,6-/m0/s1
