17
gdb 51639	4.79834	1.00994	0.98484	4.5029	69.61	-0.2683	0.0044	0.2727	1220.3404	0.136768	-458.96529	-458.957847	-458.956902	-458.998122	28.012	
O	-0.0673871087	 0.0668579604	 0.0698522689	-0.271569
C	-0.014464391	 1.2579639129	 0.0283677133	 0.16924
O	 1.1551748147	 1.9341430011	 0.0517980447	-0.197357
C	 1.0791919968	 3.3559849685	 0.0712905079	 0.240987
O	 0.8293968543	 3.8371188485	 1.3840158279	-0.289217
C	 2.0459636369	 4.5779453851	 1.6646770829	 0.104076
C	 2.22998716	 5.3986951864	 0.3652511559	-0.235023
C	 2.4539977042	 3.9627602643	-0.2095898684	-0.106658
C	 3.1590298231	 3.639197368	 1.1498581531	-0.232045
H	-0.8958369195	 1.9226140559	-0.0436868685	 0.086892
H	 0.2782486068	 3.6793234389	-0.6043049537	 0.091509
H	 1.9917491806	 4.995017286	 2.6676020975	 0.092037
H	 1.3711855503	 5.9767482217	 0.0157066838	 0.106716
H	 3.140793165	 5.9988261903	 0.3476135423	 0.112345
H	 2.897514089	 3.7619845051	-1.1823696393	 0.090648
H	 4.1542034995	 4.0811839592	 1.210269181	 0.108533
H	 3.155446158	 2.607524308	 1.5009867509	 0.128888
50.1708	133.3015	138.0386	280.0641	368.1916	422.7681	512.4467	533.3809	686.8061	727.8167	842.0652	844.9416	860.2346	884.0449	929.9171	956.462	984.4616	1008.9875	1040.7475	1042.9817	1054.6518	1078.7407	1101.9089	1106.3906	1142.7683	1177.2577	1216.9558	1247.6278	1255.8649	1278.9852	1306.6511	1354.898	1391.4473	1446.5983	1475.7203	1511.5158	1872.0397	2963.4559	3038.3453	3070.8405	3091.0983	3140.1933	3147.0933	3154.42	3160.9674
O=COC1OC2CC1C2	O=CO[C@H]1O[C@@H]2C[C@H]1C2	
InChI=1S/C6H8O3/c7-3-8-6-4-1-5(2-4)9-6/h3-6H,1-2H2	InChI=1S/C6H8O3/c7-3-8-6-4-1-5(2-4)9-6/h3-6H,1-2H2/t4-,5+,6-/m0/s1
