19
gdb 111264	2.82247	1.35303	1.08417	2.9659	77.92	-0.2164	0.0185	0.2349	1170.6748	0.158333	-419.165516	-419.156424	-419.155479	-419.199427	34.183	
C	 0.0470575212	 1.5815148824	-0.4083697513	-0.387903
C	 0.0791867358	 0.0894384446	-0.0513125053	-0.161885
N	 0.6238690216	-0.8013821978	-1.0621101713	-0.088808
C	 0.1702736037	-0.9588497639	-2.4481846134	-0.114516
C	 0.8310505501	 0.0338718564	-3.3816235531	-0.329507
C	 1.6352862063	-1.1362645438	-2.8728483527	 0.342973
O	 2.2543355642	-1.9867058528	-3.7518096385	-0.448488
C	 1.9829045069	-0.9355755407	-1.4161019144	 0.27724
N	 3.0871346302	-0.9612513336	-0.7999887018	-0.566533
H	 1.052799022	 1.9581683578	-0.6189499575	 0.130141
H	-0.5818779133	 1.7674301391	-1.2835164957	 0.129182
H	-0.3627931306	 2.1580906258	 0.4273077085	 0.11754
H	 0.6768095316	-0.0624941908	 0.8554648357	 0.112381
H	-0.9323411825	-0.2563718904	 0.191250275	 0.113038
H	-0.7006961466	-1.5543603123	-2.689612851	 0.113038
H	 0.5558858025	-0.0793145209	-4.4273544544	 0.128948
H	 1.0453750558	 1.0529894035	-3.0754826606	 0.120597
H	 2.5714913322	-2.748584056	-3.2529522136	 0.298632
H	 2.9665368588	-0.7934717267	 0.2010200355	 0.21393
58.4208	113.139	150.6749	216.4792	235.6597	297.082	312.4555	325.097	417.1894	498.0515	532.6608	586.374	680.3707	747.3516	766.7468	807.7777	849.0466	862.686	913.2693	940.6454	943.6026	975.6752	1018.7983	1055.0771	1094.0074	1097.5009	1167.8666	1200.0454	1213.6491	1246.5947	1334.0234	1358.7262	1364.8448	1386.503	1404.3267	1425.5626	1481.8228	1493.653	1496.2217	1508.0981	1782.2852	3032.0611	3038.4384	3065.3685	3108.16	3117.4757	3120.1752	3199.3327	3207.7084	3454.3246	3797.0623
CCN1C2CC2(O)C1=N	CCN1[C@H]2C[C@@]2(O)[C]1[NH]	
InChI=1S/C6H10N2O/c1-2-8-4-3-6(4,9)5(8)7/h4,7,9H,2-3H2,1H3	InChI=1S/C6H10N2O/c1-2-8-4-3-6(4,9)5(8)7/h4,7,9H,2-3H2,1H3/t4-,6-/m0/s1
