14
gdb 15313	2.95412	1.73668	1.19642	3.888	64.73	-0.2588	0.0005	0.2594	966.9083	0.104783	-382.506658	-382.498749	-382.497805	-382.539344	28.243	
O	 0.3708529632	 0.1001102718	-0.2714123773	-0.268476
C	 0.490600875	 1.2768295783	-0.4173836208	 0.180844
O	 0.9387261549	 2.0842119184	 0.5785190318	-0.187767
C	 0.9730095708	 3.4607457501	 0.3052390553	 0.10888
C	 2.1119629812	 4.2121304361	 0.8984852479	-0.312507
C	 2.0572876808	 4.0184295989	-0.6143184463	-0.229117
C	 2.9713078027	 3.130784942	-1.2662731547	 0.313401
C	 3.7192836468	 2.375834942	-1.8292487447	-0.433759
H	 0.2529571056	 1.8312525699	-1.342701933	 0.090426
H	-0.0072575205	 3.9272557961	 0.2641621444	 0.119899
H	 1.933428626	 5.2055598168	 1.2920486339	 0.131999
H	 2.8458759003	 3.620521991	 1.4318918117	 0.153746
H	 1.7606584366	 4.8866343876	-1.195954091	 0.125635
H	 4.3862814868	 1.709488331	-2.3181060971	 0.206796
70.2099	135.4669	170.5895	179.1124	233.6613	361.8799	419.0948	525.6861	578.1418	608.4997	662.044	686.7195	777.299	797.4443	873.994	1001.9216	1028.8451	1042.8978	1070.9313	1117.4744	1123.6401	1153.9315	1171.8807	1241.0929	1369.3376	1390.9203	1427.6753	1476.3746	1874.2852	2240.1625	2984.2572	3143.4123	3149.7435	3154.2173	3248.3367	3503.3309
O=COC1CC1C#C	O=CO[C@H]1C[C@H]1C#C	
InChI=1S/C6H6O2/c1-2-5-3-6(5)8-4-7/h1,4-6H,3H2	InChI=1S/C6H6O2/c1-2-5-3-6(5)8-4-7/h1,4-6H,3H2/t5-,6+/m1/s1
