16
gdb 15738	3.37115	1.53794	1.15175	1.0066	69.15	-0.2553	-0.0222	0.2331	1028.1466	0.131437	-379.941121	-379.933223	-379.932279	-379.974683	28.319	
N	 0.4412433931	 1.3305149293	-1.5506010104	-0.523466
C	 0.0485473066	 0.5258821165	-0.6401325239	 0.369507
N	-1.3515075283	 0.4413536698	-0.5115734011	-0.320313
C	-2.1624781395	-0.2866822865	 0.3235835712	 0.174232
O	-1.829294482	-1.0652575666	 1.1875013929	-0.302767
C	 0.8775356663	-0.3083381282	 0.2739446205	-0.099778
C	 2.1882242663	-0.8799018315	-0.2388848687	-0.26042
C	 2.2119076487	 0.2342416001	 0.7563233713	-0.260388
H	 1.4575154966	 1.3605525808	-1.6088660842	 0.221908
H	-1.8190468117	 1.0446894188	-1.1758528527	 0.261779
H	-3.2249726561	-0.0667087062	 0.1030627584	 0.092774
H	 0.3156290061	-0.9154171462	 0.9669842022	 0.147344
H	 2.4475408168	-1.880365653	 0.0875644695	 0.127758
H	 2.4571210695	-0.6584863396	-1.2662960479	 0.122029
H	 2.4971667884	 1.223703451	 0.4150141935	 0.12204
H	 2.4878232194	 0.0159604715	 1.7814947896	 0.12776
31.7364	71.0499	188.8588	248.7901	281.0313	307.382	387.7892	526.039	676.6041	729.3632	738.8291	800.29	823.7453	848.6296	855.7065	919.0009	938.8507	1031.8177	1035.4245	1060.6377	1081.3774	1124.182	1150.7317	1201.949	1207.3288	1227.2153	1308.2442	1444.118	1463.5192	1471.4832	1495.1609	1503.3183	1701.2088	1813.5505	2947.6504	3135.4159	3138.4688	3216.6877	3227.9572	3240.9365	3503.3488	3588.6746
N=C(NC=O)C1CC1	N=C(NC=O)C1CC1	
InChI=1S/C5H8N2O/c6-5(7-3-8)4-1-2-4/h3-4H,1-2H2,(H2,6,7,8)	InChI=1S/C5H8N2O/c6-5(7-3-8)4-1-2-4/h3-4H,1-2H2,(H2,6,7,8)
