20
gdb 13378	5.8399	1.0366	0.908	1.1095	78.56	-0.2242	0.0362	0.2604	1318.4256	0.177191	-349.010266	-349.001625	-349.00068	-349.044042	30.879	
C	-0.0764498937	 1.4092384677	-0.1590296669	-0.222287
O	 0.013803427	 0.0079853272	-0.0876884766	-0.226718
C	-1.2421510923	-0.6151649733	 0.0405056113	-0.158013
C	-1.0917005994	-2.0996016244	 0.100376378	 0.300363
C	 0.04106043	-2.7999319677	 0.0441120153	-0.148141
C	-0.1953554237	-4.2842499102	 0.1849959372	-0.247008
C	-1.7315362471	-4.4134317243	 0.0141877641	-0.204137
C	-2.2968919269	-2.997415259	 0.2929105125	-0.300417
H	 0.9398802421	 1.7982977845	-0.2575266994	 0.126806
H	-0.6687339569	 1.738493621	-1.0281178938	 0.102673
H	-0.5344302543	 1.8376332052	 0.7471865446	 0.102583
H	-1.7628181921	-0.253576663	 0.9486295351	 0.089281
H	-1.8985538488	-0.3383310735	-0.807242487	 0.089633
H	 1.0251295005	-2.3585406599	-0.0509503637	 0.099089
H	 0.3573437907	-4.8782067173	-0.5521627983	 0.098823
H	 0.1379232407	-4.6387718967	 1.171409128	 0.101768
H	-1.9585871413	-4.6962154993	-1.0185175328	 0.103804
H	-2.1698450363	-5.1778953279	 0.6607823998	 0.094658
H	-2.684998532	-2.904528849	 1.3181178146	 0.101135
H	-3.1319365662	-2.7415248301	-0.3710993918	 0.096105
75.7477	77.2586	137.6255	145.2755	220.4325	238.9473	349.9567	386.3649	443.0437	632.2723	707.049	808.0552	850.6317	892.7989	900.9541	924.6056	953.2662	1005.9509	1021.1822	1038.6255	1082.1884	1141.7826	1154.8098	1172.4744	1185.1525	1221.1715	1229.4919	1244.3095	1260.432	1275.2565	1317.6099	1330.0463	1351.9634	1429.0126	1478.3881	1484.121	1484.616	1489.834	1497.5437	1507.8266	1521.2232	1728.	2913.9609	2922.9018	2965.9374	2997.7029	3000.2803	3007.6215	3036.4121	3045.2859	3060.0569	3100.15	3113.4994	3216.842
COCC1=CCCC1	COCC1=CCCC1	
InChI=1S/C7H12O/c1-8-6-7-4-2-3-5-7/h4H,2-3,5-6H2,1H3	InChI=1S/C7H12O/c1-8-6-7-4-2-3-5-7/h4H,2-3,5-6H2,1H3
