21
gdb 122858	7.25241	0.47641	0.45428	4.7057	77.65	-0.2449	-0.0093	0.2356	2373.0081	0.178279	-461.357764	-461.346332	-461.345388	-461.396611	38.083	
C	-0.0586935004	 1.4061821505	-0.03762768	-0.227035
O	-0.0182094689	 0.0018472961	-0.0939207803	-0.22851
C	-1.2890129898	-0.5917190325	 0.0451688643	-0.053225
C	-1.1275333548	-2.1035023986	-0.0278358925	-0.190195
C	-2.4621992961	-2.8362525457	 0.1019986202	-0.318547
C	-2.3153543153	-4.3544123063	 0.1339879847	 0.374564
O	-1.262540676	-4.9072043117	 0.3264607109	-0.27542
C	-3.6128286633	-5.1273242989	-0.0932955444	-0.168358
O	-3.3991647588	-6.4955368404	 0.1268610813	-0.393633
H	 0.9653774666	 1.7691268225	-0.1544036858	 0.127645
H	-0.6799800446	 1.8315383725	-0.8425262861	 0.100767
H	-0.4554785458	 1.7670938458	 0.9251341618	 0.101591
H	-1.7470502351	-0.2989750555	 1.0075623842	 0.080354
H	-1.96823915	-0.2338940024	-0.750100565	 0.078323
H	-0.6473142886	-2.3661156751	-0.9762516427	 0.117024
H	-0.4488189022	-2.4367731721	 0.7619082737	 0.130992
H	-2.9729981817	-2.5450126167	 1.0325378317	 0.126549
H	-3.1544210083	-2.5586710998	-0.7048297777	 0.111848
H	-4.3850043982	-4.7007312725	 0.5709152634	 0.103431
H	-3.9394631306	-4.9075554894	-1.1258293472	 0.108848
H	-4.2209086283	-6.9595833099	-0.0571516745	 0.292985
30.1124	44.2262	75.8302	98.101	116.7362	123.6123	213.8222	229.6153	236.4324	255.3394	317.1227	420.7872	467.0262	503.0119	674.2903	734.4419	817.5461	859.7119	957.9194	981.5757	1014.9404	1065.6349	1098.4933	1122.6212	1150.3427	1167.2735	1179.4382	1217.1074	1225.9664	1235.7078	1256.9634	1286.267	1299.276	1313.8024	1383.547	1430.1118	1442.7879	1455.6891	1482.0241	1485.5359	1493.559	1494.4305	1505.6668	1531.8084	1833.0169	2930.6629	2944.465	2954.0642	2965.4937	2966.4389	3003.4846	3006.3292	3037.1275	3060.3515	3108.5181	3112.7959	3836.3913
COCCCC(=O)CO	COCCCC(=O)CO	
InChI=1S/C6H12O3/c1-9-4-2-3-6(8)5-7/h7H,2-5H2,1H3	InChI=1S/C6H12O3/c1-9-4-2-3-6(8)5-7/h7H,2-5H2,1H3
