23
gdb 74708	2.77938	1.44836	1.15632	0.336	91.23	-0.2201	0.0271	0.2471	1182.4446	0.208663	-351.161438	-351.153286	-351.152342	-351.193623	33.426	
C	-0.1501064578	 1.525338523	-0.0058342896	-0.468813
C	 0.0295849078	 0.028353153	-0.0448778351	 0.318902
C	-0.1153949512	-0.6507767508	-1.1883844816	-0.156638
C	 0.0396874286	-2.1346336295	-1.3911288134	-0.040875
C	-0.4575790136	-3.0179857531	-0.2047628109	-0.236932
C	 0.9857575838	-2.9722174637	 0.3746182378	 0.010502
C	 1.4815501148	-2.6405343186	-1.0607166933	-0.215386
C	 1.2346560989	-1.8379405114	 1.3851307778	-0.210582
C	 0.3070278728	-0.6057830144	 1.3085919725	-0.296868
H	 0.7684898509	 2.0263200299	 0.3277167076	 0.118384
H	-0.4228707742	 1.9299172335	-0.9841138531	 0.116053
H	-0.9327317864	 1.8117030135	 0.7097666498	 0.118224
H	-0.3408483291	-0.0784466705	-2.0864834482	 0.069657
H	-0.3436389687	-2.4106705189	-2.3765234931	 0.057159
H	-1.279369737	-2.6351621581	 0.4046059541	 0.094077
H	-0.7175525307	-4.0233829001	-0.5480481148	 0.091291
H	 1.3630992012	-3.9102198921	 0.7924306424	 0.058775
H	 1.7319917419	-3.5461887113	-1.6217563884	 0.089039
H	 2.2950629263	-1.9170340143	-1.1611166536	 0.089021
H	 1.1452288196	-2.2389202219	 2.4023023885	 0.091399
H	 2.2774702531	-1.5111915668	 1.2816539105	 0.096651
H	 0.7257646799	 0.1617082333	 1.9709813638	 0.093684
H	-0.661059091	-0.8616939407	 1.7633675502	 0.113275
121.6176	160.7043	216.7088	307.2174	322.8417	333.2399	365.576	407.6221	474.4597	547.8153	618.3299	721.2049	786.9061	800.1427	827.6062	849.3185	857.486	900.0566	924.4678	957.4315	983.8855	1027.8604	1033.6667	1047.063	1066.4593	1075.7234	1108.0884	1139.9414	1156.5268	1167.3941	1196.0171	1220.4492	1257.5856	1268.7771	1275.8778	1293.7927	1342.8796	1365.7639	1368.7732	1384.63	1405.1245	1412.7548	1467.6695	1478.0042	1483.5391	1488.8029	1491.9501	1506.8605	1727.9894	2999.986	3008.539	3014.227	3039.5386	3042.6935	3050.1852	3051.4953	3053.6598	3060.9507	3070.3164	3102.5627	3108.5577	3109.3686	3135.6847
CC1=CC2CC(C2)CC1	CC1=C[C@@H]2C[C@@H](C2)CC1	
InChI=1S/C9H14/c1-7-2-3-8-5-9(4-7)6-8/h4,8-9H,2-3,5-6H2,1H3	InChI=1S/C9H14/c1-7-2-3-8-5-9(4-7)6-8/h4,8-9H,2-3,5-6H2,1H3/t8-,9+
