12
gdb 16782	3.78903	2.15975	1.49028	1.609	57.3	-0.269	-0.041	0.2281	777.8767	0.085507	-414.678067	-414.671985	-414.671041	-414.70834	23.076	
N	-0.1287048321	 1.2977776162	-0.0533864478	-0.528406
C	-0.0226030585	 0.0374299474	 0.0069737294	 0.415878
N	 1.1146895071	-0.773799203	 0.0935491548	-0.389448
C	 0.8723346995	-2.1404041297	-0.0347854854	 0.44422
O	 1.7075534153	-3.0036392216	-0.1055684966	-0.345403
C	-0.6398813611	-2.275026851	-0.0803925808	-0.103476
O	-1.2390184057	-1.7575302292	 1.1147911312	-0.234008
C	-1.1882193262	-0.910678351	-0.0401415241	-0.018447
H	 0.7792824413	 1.7651768799	-0.0170138692	 0.221377
H	 2.0497626182	-0.4203599247	 0.2329147101	 0.266781
H	-1.1059109586	-3.1375691423	-0.5418454112	 0.135133
H	-2.1322178493	-0.597465521	-0.4686313103	 0.135801
138.3531	212.146	335.1154	383.4886	491.5698	555.9228	615.288	628.3666	722.531	763.8607	860.2326	860.3741	888.244	916.3621	932.6917	1023.4506	1080.2231	1113.6514	1219.7996	1231.0817	1297.8157	1359.1014	1385.5874	1388.3266	1773.2534	1862.7686	3197.0339	3210.2271	3459.2759	3626.9804
N=C1NC(=O)C2OC12	[NH][C]1NC(=O)[C@H]2O[C@@H]12	
InChI=1S/C4H4N2O2/c5-3-1-2(8-1)4(7)6-3/h1-2H,(H2,5,6,7)	InChI=1S/C4H4N2O2/c5-3-1-2(8-1)4(7)6-3/h1-2H,(H2,5,6,7)/t1-,2+/m1/s1
