21
gdb 38526	3.23879	1.55365	1.24902	0.2942	87.53	-0.2267	0.027	0.2537	1070.8887	0.186389	-349.970826	-349.963742	-349.962797	-350.00203	29.873	
C	 0.0200604772	 1.4469662388	-0.1038293033	-0.290191
C	 1.3614525945	 0.7662543344	 0.0119356158	-0.029604
C	 1.9538749682	 0.6316139926	 1.42132433	-0.342055
C	 0.8011704266	 0.0654762823	 2.2003464834	 0.351156
C	 0.2761933119	 0.2322342154	 3.4110791711	-0.240777
C	-1.066725961	-0.4668978101	 3.5231860303	-0.244335
C	-1.4599013034	-0.7048213882	 2.0355776122	-0.235943
C	-0.109733754	-0.7357786688	 1.2857673036	-0.045279
C	 0.083002536	-0.0609845453	-0.0684946006	-0.055953
H	-0.3694220915	 1.9727512718	 0.7632208125	 0.1124
H	-0.2229295619	 1.9124443646	-1.0526268916	 0.105958
H	 2.0429809374	 0.8241775796	-0.8294238876	 0.07859
H	 2.799975025	-0.0693768788	 1.3943577105	 0.106163
H	 2.3280002394	 1.5755263297	 1.8318479025	 0.106546
H	 0.7194447408	 0.7918238793	 4.2279002795	 0.085281
H	-0.97929698	-1.4162427556	 4.0719125323	 0.10131
H	-1.8099477479	 0.1298403967	 4.0643396923	 0.09775
H	-2.0590804812	-1.608292276	 1.8925663188	 0.089295
H	-2.0522242173	 0.1445295525	 1.6776920585	 0.102865
H	 0.2531109749	-1.7727191291	 1.2028897782	 0.070368
H	-0.1612373038	-0.6070655257	-0.9729597583	 0.076455
123.0544	202.2484	266.4415	350.3769	376.0279	452.8041	568.2233	584.7253	653.8601	708.0287	777.1679	814.3949	829.1052	836.1907	874.327	883.8835	917.6911	920.3519	962.2165	981.298	1000.1646	1040.554	1057.6381	1069.2907	1084.6649	1103.7273	1108.2372	1151.5756	1172.7896	1185.012	1198.2878	1222.2006	1258.1581	1278.1688	1289.1334	1314.4211	1321.092	1350.3098	1356.2393	1386.2469	1476.4316	1485.1577	1486.8333	1501.4804	1739.2605	2971.0013	2998.5618	3008.3599	3041.9619	3055.9003	3067.0801	3095.3005	3124.1164	3163.4043	3172.271	3187.3423	3210.4232
C1C2CC3=CCCC3C12	C1[C@H]2CC3=CCC[C@H]3[C@@H]12	
InChI=1S/C9H12/c1-2-6-4-7-5-9(7)8(6)3-1/h2,7-9H,1,3-5H2	InChI=1S/C9H12/c1-2-6-4-7-5-9(7)8(6)3-1/h2,7-9H,1,3-5H2/t7-,8-,9+/m1/s1
