19
gdb 58344	2.09515	1.38063	1.01916	1.5907	73.58	-0.269	-0.0154	0.2536	1245.8036	0.158161	-456.423122	-456.413159	-456.412215	-456.458397	36.085	
C	-0.8889027861	 1.7894428492	 0.5628229482	-0.392995
C	-0.2532580585	 0.4537571843	 0.1625145593	 0.022701
C	 0.8363528333	-0.0070104833	 1.1365495989	-0.392884
N	-1.2808297322	-0.6011241828	-0.050999161	-0.162675
C	-2.0497461321	-1.0001376568	 1.0097334449	 0.189543
O	-2.9285552959	-1.8451193905	 1.0133564155	-0.355891
C	-1.3844817439	-1.1348439021	-1.3865470653	 0.49527
N	-2.3298879267	-2.0820654052	-1.54915721	-0.566648
O	-0.6540514318	-0.7285616102	-2.268714142	-0.394421
H	-0.1217068009	 2.5693013505	 0.584548541	 0.126491
H	-1.655228072	 2.0866133896	-0.1583963757	 0.132764
H	-1.3476553949	 1.752873949	 1.5567480239	 0.117337
H	 0.1949320892	 0.5686801384	-0.8239183477	 0.146172
H	 1.2697349646	-0.9573966606	 0.8130457154	 0.132869
H	 1.6372463049	 0.7377270628	 1.1709003046	 0.126443
H	 0.4591437211	-0.1305820941	 2.1573974594	 0.117263
H	-1.7904240857	-0.4549784822	 1.9307990573	 0.103236
H	-2.894382134	-2.3803882721	-0.763192815	 0.290483
H	-2.4146005084	-2.4782644338	-2.4687305915	 0.264943
45.8521	68.6053	139.2628	219.5566	231.4478	253.011	279.5994	300.6478	353.9462	355.7335	450.472	452.1723	470.3485	597.3123	644.1388	693.7794	765.8217	786.3749	888.6266	935.78	952.7295	1038.2313	1085.7429	1128.605	1143.7642	1156.2253	1212.7745	1283.3248	1347.225	1378.4056	1404.3713	1423.2219	1436.2791	1460.1492	1484.1106	1491.5501	1505.6676	1506.7731	1589.038	1769.5484	1815.0248	3006.5017	3035.9666	3040.1111	3099.0198	3102.3649	3118.7716	3120.8273	3134.5134	3503.585	3717.6954
CC(C)N(C=O)C(N)=O	CC(C)N(C=O)C(=O)N	
InChI=1S/C5H10N2O2/c1-4(2)7(3-8)5(6)9/h3-4H,1-2H3,(H2,6,9)	InChI=1S/C5H10N2O2/c1-4(2)7(3-8)5(6)9/h3-4H,1-2H3,(H2,6,9)
