20
gdb 104805	2.30914	1.52571	1.23182	0.8243	74.35	-0.2564	0.0203	0.2767	1128.8867	0.17025	-440.302926	-440.293648	-440.292704	-440.336994	34.056	
C	-0.0554117207	 1.5532084416	 0.0196718486	-0.387434
C	-0.0948562807	 0.0240164208	 0.0486533801	-0.221586
C	-1.5021128488	-0.562071494	-0.0044726039	 0.456065
C	-1.5670554375	-2.1074071437	 0.1723439735	-0.250668
N	-2.468639744	-2.3563309866	 1.304349202	-0.260512
C	-2.7559986975	-1.2073508219	 1.7562010339	 0.105629
O	-2.2536968423	-0.0969737358	 1.1645960008	-0.261799
O	-2.1023871355	-0.0824289331	-1.1687909065	-0.270074
C	-3.4822435991	-0.3584240449	-1.3497548199	-0.261138
H	 0.9778706167	 1.9098588272	 0.0593354637	 0.109283
H	-0.5180282298	 1.9354724498	-0.8926834573	 0.133376
H	-0.5933658123	 1.9712878442	 0.8748324257	 0.129001
H	 0.4602212446	-0.3892895063	-0.8017562715	 0.111733
H	 0.3849764776	-0.3547582374	 0.9575316323	 0.106059
H	-1.9308568603	-2.5989611803	-0.7348700595	 0.123992
H	-0.5769941116	-2.521574706	 0.3901538785	 0.119912
H	-3.3963790313	-1.0101504559	 2.6095235441	 0.138385
H	-3.6995390631	-1.434101074	-1.3342396352	 0.121024
H	-4.0906330454	 0.1374336965	-0.5855998264	 0.127089
H	-3.7457210691	 0.0392605796	-2.3316435932	 0.131664
87.9378	109.061	130.5303	184.4799	201.8202	217.9237	292.7838	360.0662	388.1692	462.4021	487.4685	581.6008	638.4365	756.155	785.7191	863.721	903.1942	943.6287	962.0389	997.8959	1010.8381	1029.8775	1092.3957	1126.4496	1159.5858	1170.1693	1172.0962	1183.9409	1237.9861	1263.3962	1316.1849	1321.3053	1341.3376	1386.0308	1406.92	1472.8445	1476.348	1483.4552	1494.0104	1498.5666	1511.5752	1515.8209	1703.0952	3017.699	3038.9071	3050.5781	3052.2153	3078.9965	3081.4287	3089.2112	3118.0654	3130.255	3135.7161	3208.6034
CCC1(CN=CO1)OC	CC[C@]1(CN=CO1)OC	
InChI=1S/C6H11NO2/c1-3-6(8-2)4-7-5-9-6/h5H,3-4H2,1-2H3	InChI=1S/C6H11NO2/c1-3-6(8-2)4-7-5-9-6/h5H,3-4H2,1-2H3/t6-/m0/s1
