21
gdb 112592	3.13235	0.96577	0.86512	0.8207	85.77	-0.2456	0.0549	0.3005	1441.1439	0.179598	-387.040999	-387.030954	-387.03001	-387.075942	37.445	
C	-0.3153919849	 1.2916455298	-0.0018750043	-0.241823
O	 0.3123835405	 0.0414314673	-0.1782090195	-0.239726
C	 0.8257265736	-0.4938762883	 1.010847932	 0.172546
C	-0.1580099063	-1.1450012862	 2.0232309703	-0.289646
C	 0.8515719851	-2.3415672458	 2.1710112373	 0.107962
C	 0.2505096738	-3.7505083024	 2.1645693916	-0.446988
C	 1.5177059097	-1.855130361	 0.8328529664	-0.291523
C	 1.7380912334	-2.1595949172	 3.3133540586	 0.328757
C	 2.4682087599	-2.0166468315	 4.2588324909	-0.501698
H	 0.3790184409	 2.0401055496	 0.4114222158	 0.105369
H	-0.6533598932	 1.6284499077	-0.9848067528	 0.126755
H	-1.1865490801	 1.2258555914	 0.6674203886	 0.107887
H	 1.479457548	 0.2359571191	 1.5114995937	 0.074734
H	-0.4187709662	-0.599920763	 2.9314430883	 0.105153
H	-1.0667064263	-1.4749864171	 1.5110475356	 0.104646
H	-0.4129687712	-3.8763174752	 1.3033819647	 0.112974
H	 1.0373258892	-4.5092147664	 2.1084566717	 0.126311
H	-0.3274838975	-3.9317665715	 3.0760692168	 0.125575
H	 1.0871238602	-2.3826387037	-0.0226195088	 0.110768
H	 2.6062698134	-1.8784447792	 0.7726420636	 0.108906
H	 3.1134439481	-1.8907861967	 5.0927256695	 0.193063
58.6204	98.8581	151.9575	170.3841	201.8845	227.1272	264.2236	310.942	359.7854	405.938	442.6834	518.9953	555.5525	603.0963	614.1372	629.1549	713.3399	833.461	874.7171	895.7361	934.3909	996.7154	1009.1657	1026.5849	1079.3832	1129.9395	1144.3729	1168.8197	1184.9485	1195.655	1227.6671	1247.6029	1272.924	1296.8087	1299.649	1391.0334	1408.2096	1463.9968	1480.0775	1486.2997	1489.1087	1491.1254	1498.1331	1509.7447	2227.7538	2972.9388	2990.901	3020.7994	3033.0484	3059.0918	3069.1615	3108.2452	3108.688	3114.2498	3129.4366	3135.5859	3501.772
COC1CC(C)(C1)C#C	CO[C@H]1C[C@@](C)(C1)C#C	
InChI=1S/C8H12O/c1-4-8(2)5-7(6-8)9-3/h1,7H,5-6H2,2-3H3	InChI=1S/C8H12O/c1-4-8(2)5-7(6-8)9-3/h1,7H,5-6H2,2-3H3/t7-,8-
