21
gdb 96271	2.20452	1.58289	1.10277	2.7957	78.36	-0.2639	-0.0012	0.2627	1184.7911	0.183201	-424.275054	-424.266193	-424.265249	-424.308643	33.835	
C	 0.1397518508	 1.5456160471	 0.0854224291	-0.402813
C	 0.0011710819	 0.0349024834	 0.0028816311	 0.118426
C	 0.0937983624	-0.5099406584	-1.4283880702	-0.178715
C	 0.2532638274	-2.0414836477	-1.5449199642	-0.223324
C	 1.5944007327	-2.6036939403	-1.0135642777	-0.188796
C	 1.6437810007	-2.8460026041	 0.5163112428	-0.302225
C	 0.8073237298	-1.8118120176	 1.2326925723	 0.406005
O	-0.0434306703	-2.035945078	 2.0482623146	-0.315907
O	 1.081894741	-0.548685049	 0.7721501741	-0.263137
H	 1.1117576957	 1.8634872963	-0.3043834577	 0.124809
H	-0.6441883787	 2.0320110969	-0.5032692991	 0.118172
H	 0.0558211278	 1.8814901908	 1.121904268	 0.131269
H	-0.9425484214	-0.2759163993	 0.4678157268	 0.100366
H	-0.8054344206	-0.1967413929	-1.9734016167	 0.098369
H	 0.9462552622	-0.0306195967	-1.9278281388	 0.100142
H	-0.5875400753	-2.5470575857	-1.0503637441	 0.110167
H	 0.1714953839	-2.2981032083	-2.6067108616	 0.100559
H	 1.8053174777	-3.5565922449	-1.5097914777	 0.102586
H	 2.3984775744	-1.9185841199	-1.3005968953	 0.109221
H	 1.2541595112	-3.8302686244	 0.7869599576	 0.125603
H	 2.678820947	-2.7898414573	 0.8718482865	 0.129222
62.2943	135.2866	166.0118	229.0965	251.3582	286.8348	342.1643	370.1935	438.9963	462.0166	504.1593	622.9648	680.4131	759.9349	809.1657	839.4443	851.1482	925.4147	935.5367	974.1686	996.0463	1019.0435	1072.3704	1086.3315	1115.8695	1148.5861	1174.8919	1213.9101	1228.08	1269.939	1283.9328	1338.4993	1353.91	1373.0569	1377.0967	1383.5242	1402.0276	1410.6334	1464.5307	1473.9831	1484.5023	1492.5766	1492.8061	1498.4897	1837.3921	3016.9258	3019.6356	3035.0423	3040.9783	3042.9359	3052.951	3063.947	3069.1373	3081.989	3112.6208	3115.0504	3126.2007
CC1CCCCC(=O)O1	C[C@H]1CCCCC(=O)O1	
InChI=1S/C7H12O2/c1-6-4-2-3-5-7(8)9-6/h6H,2-5H2,1H3	InChI=1S/C7H12O2/c1-6-4-2-3-5-7(8)9-6/h6H,2-5H2,1H3/t6-/m0/s1
