20
gdb 111116	3.4434	1.26438	1.16301	1.4201	77.57	-0.2331	0.079	0.3121	1153.5986	0.172503	-403.079496	-403.071872	-403.070927	-403.111596	30.771	
C	 0.0460470112	 1.5482354986	-0.1104816235	-0.383118
C	-0.0133581144	 0.0383637832	 0.1468840853	-0.21549
C	-1.4368580917	-0.5066172719	 0.1220189645	 0.033547
C	-2.0432156422	-0.7397019723	-1.2892952442	 0.047874
O	-1.2429601941	-1.9740176399	-1.3780555275	-0.309542
C	-1.5513484099	-2.0523921973	 0.0617637882	 0.035083
C	-3.0715214229	-2.3341545091	 0.0059063264	-0.049788
N	-3.9307593855	-1.1823889461	 0.3734736511	-0.333196
C	-3.4459023816	-1.3352730646	-1.0201033609	-0.048534
H	 1.076015024	 1.9153910176	-0.0663734922	 0.112239
H	-0.3523268156	 1.8015932653	-1.0991024327	 0.113795
H	-0.5383933781	 2.1023449096	 0.6323656736	 0.114978
H	 0.5949101733	-0.4950637472	-0.589944305	 0.112449
H	 0.4224872589	-0.1769906875	 1.1315403101	 0.090537
H	-2.0751517855	 0.0005897315	 0.8454181853	 0.100995
H	-1.9083426388	-0.0665716362	-2.1355929296	 0.075326
H	-0.9037453673	-2.7330419492	 0.6145635889	 0.073646
H	-3.4592772709	-3.3448695673	 0.0383365306	 0.09925
H	-4.8971442839	-1.5040941423	 0.4125849331	 0.231025
H	-4.1413191149	-1.5272301049	-1.8278990417	 0.098924
94.4068	154.4197	198.0461	287.293	354.5945	382.9863	434.765	576.9087	609.6645	693.0423	752.0054	787.5395	836.4142	853.4782	858.1185	881.7866	904.3474	905.1931	915.4286	941.4566	968.3595	1050.8997	1054.5443	1076.6989	1092.7151	1104.4171	1115.4768	1159.4673	1190.1367	1206.0853	1220.7021	1253.3182	1282.0159	1290.3333	1308.101	1328.9043	1350.0462	1382.7671	1408.8434	1412.5109	1490.7598	1500.1467	1506.4583	3020.6312	3030.1917	3075.2226	3097.7281	3103.0769	3115.5704	3121.4837	3125.1743	3185.3806	3195.5717	3474.5348
CCC1C2OC1C1NC21	CC[C@H]1[C@H]2O[C@@H]1[C@H]1N[C@@H]21	
InChI=1S/C7H11NO/c1-2-3-6-4-5(8-4)7(3)9-6/h3-8H,2H2,1H3	InChI=1S/C7H11NO/c1-2-3-6-4-5(8-4)7(3)9-6/h3-8H,2H2,1H3/t3-,4+,5-,6+,7-
