17
gdb 128411	4.25802	0.93884	0.90753	1.3624	70.55	-0.2335	-0.0091	0.2244	1339.9729	0.137245	-451.321144	-451.312285	-451.311341	-451.356004	31.818	
C	-0.4431220393	 0.5384426091	 1.3583648368	-0.320583
N	 0.1431318662	 0.4114404821	 0.0267028886	-0.266822
C	 1.2904235043	-0.4788035351	-0.0370106001	-0.288364
C	 1.027786363	-1.9151665828	 0.3376637197	 0.426108
N	 1.7280836263	-2.6918439796	 1.1083984025	-0.356175
C	 1.0102510326	-3.8691864843	 1.0545156709	 0.403811
N	 1.3831004568	-4.9617464155	 1.7916135965	-0.584896
N	-0.0660225393	-3.8339088338	 0.3015647536	-0.214837
O	-0.0538129981	-2.5021658037	-0.1790464121	-0.209177
H	 0.2970503066	 0.9755843584	 2.0376442125	 0.126643
H	-1.2951750693	 1.2218000496	 1.3089881554	 0.125195
H	-0.7890307498	-0.4099726792	 1.8008663272	 0.114096
H	-0.5625798442	 0.0996060179	-0.6316968959	 0.233339
H	 1.6909802157	-0.4582049639	-1.0580504743	 0.13444
H	 2.0798453027	-0.1141662135	 0.6270087201	 0.142061
H	 2.3687619243	-5.0010391732	 2.0001197798	 0.267903
H	 0.9864236315	-5.8385382625	 1.4894759086	 0.267259
22.406	86.5193	148.1765	215.7305	237.623	304.1434	338.421	372.8178	419.6958	497.8904	556.0928	632.6821	710.4903	748.55	783.4271	804.1657	923.8457	942.4164	985.8253	1025.2657	1050.8175	1128.0113	1137.8522	1157.9713	1189.1949	1287.5981	1335.03	1362.4436	1442.0585	1456.5093	1466.1231	1492.1048	1496.9798	1521.5935	1576.1776	1629.9449	1659.7063	2972.6497	3036.2952	3063.9103	3096.9177	3111.0856	3533.6387	3586.396	3696.5344
CNCC1=NC(N)=NO1	CNCc1nc(N)no1	
InChI=1S/C4H8N4O/c1-6-2-3-7-4(5)8-9-3/h6H,2H2,1H3,(H2,5,8)	InChI=1S/C4H8N4O/c1-6-2-3-7-4(5)8-9-3/h6H,2H2,1H3,(H2,5,8)
