20
gdb 96490	2.6353	1.49906	1.0903	2.3024	76.98	-0.2528	0.0081	0.2609	1156.2425	0.171567	-440.278867	-440.270328	-440.269384	-440.311739	32.697	
C	-0.0940133999	 1.5616408324	 0.0472204903	-0.401675
C	-0.0577110156	 0.0417302568	-0.0246869462	 0.115886
C	 0.5267802223	-0.4615688164	-1.3502858935	-0.076337
O	 0.4543821546	-1.868996026	-1.4524346159	-0.242577
C	 1.654872965	-2.5943517248	-1.2660716329	-0.068255
C	 2.2987088044	-2.4330749115	 0.1251017253	-0.185816
N	 1.314586611	-2.6840455589	 1.1664762225	-0.201372
C	 0.5798527422	-1.7139283747	 1.4929034099	 0.104389
O	 0.7393179246	-0.4118746816	 1.0837804728	-0.252441
H	 0.9177621223	 1.9724953579	-0.0272882752	 0.128841
H	-0.6977921859	 1.9732195692	-0.7668625838	 0.121284
H	-0.5235563299	 1.8866779872	 0.9975362996	 0.131237
H	-1.0716264027	-0.370812201	 0.0760491557	 0.088192
H	-0.0665940667	-0.0403249681	-2.1726755954	 0.105056
H	 1.5583071976	-0.0976483805	-1.4595256785	 0.098808
H	 1.3726327427	-3.6396639543	-1.420564722	 0.120598
H	 2.400222317	-2.3221766508	-2.0300140875	 0.092251
H	 3.1027918725	-3.1722246704	 0.2054399448	 0.103336
H	 2.7447409746	-1.4353135474	 0.215002735	 0.108005
H	-0.2226767102	-1.852227107	 2.2208012751	 0.11059
115.6192	147.9781	199.908	218.0709	250.4213	294.4016	343.1618	371.3255	443.2025	485.4071	508.9361	614.0534	709.9783	816.699	853.3242	866.9486	917.6223	932.7091	965.5088	1003.3725	1038.3484	1079.4177	1108.4087	1130.6319	1152.8392	1161.7515	1185.9747	1266.9403	1278.5325	1315.0668	1326.7092	1365.0027	1376.9927	1398.1171	1407.6177	1411.8587	1415.8471	1478.993	1485.6896	1487.8734	1499.5603	1501.8506	1730.8558	2983.7469	2999.7908	3010.4844	3029.0637	3045.648	3051.0713	3072.2029	3095.0745	3111.5665	3117.7067	3129.2892
CC1COCCN=CO1	C[C@H]1COCCN=CO1	
InChI=1S/C6H11NO2/c1-6-4-8-3-2-7-5-9-6/h5-6H,2-4H2,1H3/b7-5-	InChI=1S/C6H11NO2/c1-6-4-8-3-2-7-5-9-6/h5-6H,2-4H2,1H3/b7-5-/t6-/m0/s1
