17
gdb 30460	4.8058	1.06945	0.88438	4.6269	83.69	-0.2205	-0.0603	0.1601	1311.2487	0.135234	-418.03332	-418.024549	-418.023605	-418.067343	31.384	
C	-0.0445478959	 1.4409981831	 0.0298830553	-0.315216
N	 0.0306581535	-0.006385702	-0.0194208504	-0.300516
C	-1.0393496811	-0.6747492539	-0.0073266214	 0.447647
O	-2.2850287677	 0.0100926824	 0.0541233864	-0.231524
C	-3.434626692	-0.681388921	 0.0683070561	 0.015467
C	-3.4864027885	-2.0258517957	 0.0265766244	 0.164526
C	-4.7653360587	-2.8120997129	 0.0418665286	-0.496693
C	-2.1924771602	-2.6692128165	-0.0353555874	-0.024687
N	-1.0577053308	-2.0556248645	-0.0515208201	-0.279344
H	 0.9681185872	 1.8501526869	 0.011068322	 0.121207
H	-0.6010879831	 1.8555324667	-0.8221179665	 0.117569
H	-0.5452373878	 1.7983792307	 0.9404182046	 0.117567
H	-4.3009313179	-0.0284432811	 0.1168381019	 0.134481
H	-4.8658635366	-3.4311071592	-0.857106029	 0.139336
H	-4.8104679935	-3.4870138188	 0.9043569002	 0.139345
H	-5.6351779591	-2.151280833	 0.0901996521	 0.130993
H	-2.156314428	-3.7597518511	-0.0718716068	 0.119845
49.6231	99.1282	140.9986	199.9722	219.5475	296.0557	306.031	381.351	458.0867	523.2834	557.9487	637.7149	731.1788	750.8705	766.8206	913.0433	941.3213	992.3051	1021.2176	1056.148	1074.1367	1089.6613	1108.0076	1174.3987	1236.0952	1274.575	1378.6467	1421.6699	1434.2722	1436.652	1479.2779	1483.6731	1496.6455	1498.8328	1595.392	1719.9998	1753.6103	2995.6051	3027.9895	3043.5131	3080.3679	3107.3877	3111.6035	3113.0287	3183.3493
CN=C1OC=C(C)C=N1	C[N]C1=NC=C(CO1)C	
InChI=1S/C6H8N2O/c1-5-3-8-6(7-2)9-4-5/h3-4H,1-2H3	InChI=1S/C6H9N2O/c1-5-3-8-6(7-2)9-4-5/h3H,4H2,1-2H3
