20
gdb 90596	2.44751	1.48215	1.13231	2.5244	79.59	-0.2256	-0.0259	0.1996	1162.5797	0.169936	-403.128046	-403.119133	-403.118189	-403.162041	33.467	
C	-0.926687763	 1.1398418838	 0.1772332922	-0.415725
C	-0.046535973	-0.0798734234	-0.0304192144	 0.082743
C	 1.0894231039	-0.0184535852	-1.0912411351	-0.289071
C	 2.0381850652	-0.5413114278	 0.0204593408	-0.09967
N	 0.9283169525	-0.4753752658	 1.058279434	-0.165695
C	 1.6190328736	 0.6491562618	 1.7802525079	-0.084771
C	 1.9312665552	 0.3410116987	 3.2404363009	-0.388588
C	 2.8061810327	 0.5275871861	 0.8014681249	 0.390108
O	 3.8943906841	 1.0175351204	 0.7292573364	-0.297305
H	-0.3554380509	 2.0719019742	 0.225546472	 0.122386
H	-1.6281079576	 1.2318412779	-0.6587940307	 0.124313
H	-1.5133413591	 1.0463522592	 1.0975993692	 0.128894
H	-0.6934376919	-0.9469233138	-0.2033347233	 0.087378
H	 0.9768626042	-0.6778136137	-1.9536270029	 0.115781
H	 1.329061012	 0.9860422626	-1.4516979465	 0.115073
H	 2.5401044929	-1.4970751921	-0.1524956952	 0.100625
H	 1.1088332958	 1.6161652391	 1.7066072287	 0.095777
H	 2.4283534316	-0.6283764827	 3.3346327437	 0.125651
H	 2.5868968616	 1.112291747	 3.6566446825	 0.128183
H	 1.0087603002	 0.3076689939	 3.8270777148	 0.123913
37.7418	159.0197	166.8868	203.4837	234.9121	246.8259	307.125	373.5583	406.1527	486.5518	603.6872	692.3947	716.2885	749.0912	807.5795	857.4379	889.8449	929.7466	944.338	947.7995	998.2029	1040.7018	1061.3303	1116.5797	1126.0316	1138.0934	1149.3999	1182.819	1194.7748	1249.5817	1254.3413	1282.2037	1308.3354	1329.1652	1384.5355	1400.4458	1407.5524	1483.6344	1484.6	1490.5555	1494.8822	1501.8979	1895.3929	3032.389	3034.0337	3040.3397	3049.781	3060.2765	3074.7399	3101.3701	3106.7148	3116.7869	3120.4695	3120.8033
CC1CC2N1C(C)C2=O	C[C@H]1C[C@@H]2N1[C@@H](C)C2=O	
InChI=1S/C7H11NO/c1-4-3-6-7(9)5(2)8(4)6/h4-6H,3H2,1-2H3	InChI=1S/C7H11NO/c1-4-3-6-7(9)5(2)8(4)6/h4-6H,3H2,1-2H3/t4-,5-,6-/m0/s1
