23
gdb 83023	1.93263	1.64252	1.40274	0.2597	91.31	-0.2145	0.0314	0.2458	1149.9337	0.205291	-351.172286	-351.162818	-351.161874	-351.205624	36.904	
C	-0.1165251755	 1.5558034567	 0.0255231717	-0.421297
C	 0.0510470027	 0.0536071876	 0.0732559102	-0.038044
C	 1.3551981288	-0.6667752365	-0.1926291042	-0.107301
C	 2.6714014602	 0.1022797769	-0.0790571625	-0.279795
C	 2.7081486601	 0.5254150854	 1.3720821661	-0.178481
C	 1.6618435572	 0.0691292204	 2.0702154944	 0.276146
C	 1.3820018721	 0.3034881561	 3.5230923676	-0.503187
C	 0.7290354792	-0.7258017134	 1.1972799017	 0.245104
C	 0.0618568744	-1.9620474888	 1.758014658	-0.490271
H	 0.7135098734	 2.079194699	 0.505636321	 0.123208
H	-0.1782905974	 1.9054527122	-1.0116307885	 0.112201
H	-1.0399860866	 1.8617555682	 0.530188599	 0.11049
H	-0.8083367494	-0.4774672252	-0.3338401403	 0.075002
H	 1.3227989268	-1.5348038683	-0.8426964213	 0.074813
H	 3.5281107249	-0.5340601741	-0.3391539142	 0.102265
H	 2.71664648	 0.9639905847	-0.759774704	 0.10394
H	 3.4901178229	 1.1605659067	 1.7763043156	 0.080783
H	 2.1714790537	 0.8981346942	 3.9905387115	 0.120742
H	 0.4289514596	 0.8290551772	 3.6659470182	 0.125144
H	 1.3002183504	-0.6413221255	 4.0745174263	 0.125573
H	-0.6431347348	-1.7148168232	 2.5606716042	 0.114829
H	-0.5014529454	-2.4864928921	 0.9797255354	 0.113407
H	 0.7971339228	-2.6652825483	 2.1669116541	 0.114729
128.4769	177.7703	187.5996	204.9767	218.9124	240.1889	248.9248	276.3497	346.6126	413.7633	514.641	553.6495	619.1769	642.0822	714.7353	764.1198	815.1341	837.7104	882.9797	931.7912	952.3032	991.1338	1017.5126	1025.7776	1041.1597	1067.4753	1094.0803	1117.4439	1124.3732	1149.3249	1161.1727	1191.172	1251.3777	1254.2933	1316.4246	1353.3124	1365.394	1408.8026	1411.985	1416.4735	1440.3714	1477.9338	1481.351	1484.758	1493.0404	1499.6889	1501.723	1503.953	1705.2735	3006.4188	3016.7456	3020.0036	3027.7498	3028.4008	3063.159	3077.2557	3080.8709	3094.9435	3105.8867	3109.6985	3122.8446	3160.0149	3179.7431
CC1C2CC=C(C)C12C	C[C@H]1[C@H]2CC=C(C)[C@@]12C	
InChI=1S/C9H14/c1-6-4-5-8-7(2)9(6,8)3/h4,7-8H,5H2,1-3H3	InChI=1S/C9H14/c1-6-4-5-8-7(2)9(6,8)3/h4,7-8H,5H2,1-3H3/t7-,8+,9-/m0/s1
