18
gdb 90748	2.93705	1.47317	1.24694	3.8691	71.3	-0.2288	-0.0334	0.1953	1052.5818	0.148253	-439.079345	-439.071316	-439.070372	-439.112104	30.447	
C	 0.4365709393	 1.5036934033	-0.1721474823	-0.422139
C	 0.1279817659	 0.0404937934	 0.0506020387	 0.157747
O	 0.9100395684	-0.8493087007	-0.7954502089	-0.318404
C	 1.2431114767	-1.6989609998	 0.33115484	 0.018444
C	 0.6369672408	-0.6950609918	 1.3265903388	-0.082232
N	 1.7679632922	-0.1512082089	 2.0744275039	-0.311159
C	 3.0342965677	-0.3992741047	 1.3864083259	-0.28426
C	 2.756148906	-1.6526699524	 0.5548511349	 0.418215
O	 3.5658778979	-2.4378702734	 0.1431285031	-0.300043
H	 1.4824281383	 1.7360478411	 0.0459831458	 0.120767
H	 0.2409864044	 1.7714576076	-1.2150532538	 0.138987
H	-0.2022693499	 2.1295036715	 0.4610288642	 0.120675
H	-0.9422369861	-0.1498303819	-0.1160755245	 0.076952
H	 0.8386958345	-2.7100004134	 0.2421184959	 0.095269
H	-0.147917926	-1.0350475307	 2.0061566242	 0.087622
H	 1.6375686613	 0.8096531684	 2.3621850322	 0.227798
H	 3.3613900142	 0.3985714015	 0.6982301665	 0.122346
H	 3.8524212143	-0.5847161392	 2.0892880754	 0.133417
72.9755	142.1349	178.6808	235.4757	242.7315	367.5212	412.4734	495.1	548.194	572.9996	643.977	708.9265	803.744	811.7449	866.2008	894.0815	907.2893	969.6739	996.2808	1028.8757	1061.9134	1097.0011	1147.0328	1152.2861	1182.7772	1200.4632	1228.0869	1242.4425	1283.1693	1299.9973	1314.266	1365.282	1385.8034	1408.8606	1445.7065	1481.466	1490.7814	1499.0852	1863.7713	2961.4457	2995.7763	3037.7795	3071.3076	3074.8327	3090.1619	3106.5532	3120.064	3568.1834
CC1OC2C1NCC2=O	C[C@H]1O[C@@H]2[C@H]1NCC2=O	
InChI=1S/C6H9NO2/c1-3-5-6(9-3)4(8)2-7-5/h3,5-7H,2H2,1H3	InChI=1S/C6H9NO2/c1-3-5-6(9-3)4(8)2-7-5/h3,5-7H,2H2,1H3/t3-,5+,6+/m1/s1
