18
gdb 99915	2.34509	1.3273	1.04911	1.1643	72.09	-0.2572	0.0187	0.2759	1187.0592	0.148205	-435.235902	-435.226545	-435.225601	-435.269995	34.572	
N	-0.0660569076	 1.4829092811	-0.0672101359	-0.539652
C	-0.0332715448	 0.0211983497	-0.0527086462	 0.036208
C	 0.8968669834	-0.4106189339	 1.1142634013	-0.076821
O	 0.4681891066	 0.1105593941	 2.3544285319	-0.421738
C	-1.3713979064	-0.5630021655	 0.2079548752	 0.243427
N	-2.4153710591	-0.9984263652	 0.4511338254	-0.339944
C	 0.5170382239	-0.5437647798	-1.3658891164	 0.017696
C	 0.3016029444	 0.1459903298	-2.658030499	-0.24617
N	 1.6323101811	 0.1406721089	-2.0230731445	-0.32613
H	-0.9048285218	 1.8283085319	-0.520866339	 0.249172
H	-0.085745731	 1.8067088631	 0.8964740819	 0.255933
H	 0.9791591798	-1.5045895906	 1.1278893123	 0.116416
H	 1.8864229611	 0.0119304953	 0.9220189044	 0.139632
H	-0.3376160059	-0.3517570026	 2.614304451	 0.302749
H	 0.5921743792	-1.6291170074	-1.3637889636	 0.104732
H	 0.2183677314	-0.4393138581	-3.5686066103	 0.12728
H	-0.256131854	 1.0778323472	-2.6623467893	 0.112376
H	 1.7557344498	 1.0420636221	-1.560770879	 0.244836
82.4377	110.1694	147.2088	173.2925	216.6727	288.5898	329.8879	349.6633	403.2344	413.763	441.3402	492.2254	572.8769	643.3873	732.6846	848.7945	878.4834	896.1916	926.1883	967.306	978.131	1016.2938	1076.2404	1092.4933	1112.5242	1152.8477	1181.5006	1216.7635	1251.1844	1283.0103	1315.2744	1318.4084	1389.6335	1413.7373	1414.8843	1490.711	1506.9985	1658.9953	2335.8037	3030.2977	3110.0574	3119.0643	3131.5978	3204.6232	3462.8262	3500.0621	3582.6941	3793.4161
NC(CO)(C#N)C1CN1	N[C@@](CO)(C#N)[C@H]1CN1	
InChI=1S/C5H9N3O/c6-2-5(7,3-9)4-1-8-4/h4,8-9H,1,3,7H2	InChI=1S/C5H9N3O/c6-2-5(7,3-9)4-1-8-4/h4,8-9H,1,3,7H2/t4-,5-/m1/s1
