17
gdb 15374	4.63995	1.0245	0.92361	1.9313	67.5	-0.2569	0.0191	0.276	1251.2243	0.140755	-400.966494	-400.957641	-400.956697	-401.001091	30.653	
O	 0.0190034449	 1.1395159437	-0.761338425	-0.422565
C	-0.019798373	 0.0611857195	 0.1651263897	-0.095845
C	-1.403477741	-0.533836538	 0.1142455946	-0.023521
C	-1.7593439327	-1.5144578491	-0.9841901517	-0.312376
C	-1.6288874481	-1.9776438135	 0.4428213638	 0.086062
O	-0.498010867	-2.7255317836	 0.82710073	-0.187811
C	-0.5118810658	-4.0336550197	 0.4862501779	 0.129311
N	 0.439340502	-4.7826471667	 0.8398644021	-0.438224
H	 0.8852598047	 1.5524590548	-0.6962075856	 0.287037
H	 0.725122154	-0.7087376535	-0.0764426209	 0.105765
H	 0.190817126	 0.4090520335	 1.1885523325	 0.093653
H	-2.188324397	 0.1473311843	 0.4292163886	 0.099865
H	-2.7453455824	-1.4763622725	-1.4331583549	 0.119689
H	-0.9587195198	-1.7899612587	-1.6623348893	 0.131014
H	-2.5267633263	-2.2443972896	 0.995300419	 0.106329
H	-1.3964151329	-4.320498748	-0.0970310225	 0.091708
H	 0.2778766343	-5.729262983	 0.5021285417	 0.229909
49.4218	88.5571	90.3339	127.8172	220.199	257.6643	304.7982	363.2172	469.4666	577.4159	619.4529	785.5151	823.8619	838.3185	907.5805	924.0487	1011.7382	1030.5237	1048.6448	1061.0733	1074.3958	1093.9729	1134.5896	1165.9078	1185.3861	1242.1381	1257.8123	1274.8956	1291.4533	1368.7867	1405.7284	1419.7199	1469.0371	1486.5951	1523.9304	1746.9985	2980.3005	3030.5275	3038.0596	3129.2462	3137.4772	3156.7763	3226.612	3517.4831	3826.9856
OCC1CC1OC=N	OC[C@H]1C[C@H]1O[CH][NH]	
InChI=1S/C5H9NO2/c6-3-8-5-1-4(5)2-7/h3-7H,1-2H2	InChI=1S/C5H9NO2/c6-3-8-5-1-4(5)2-7/h3-7H,1-2H2/t4-,5-/m1/s1
