15
gdb 35954	3.53699	1.22747	0.95385	4.319	67.27	-0.2756	-0.0137	0.2619	1153.5194	0.114284	-453.947175	-453.939529	-453.938585	-453.979913	27.825	
N	 0.1659038437	-1.1588766896	 0.3655545732	-0.315465
C	 0.0862608531	-0.0259385781	 0.1573949663	 0.286821
C	-0.0751392866	 1.4235027165	-0.0629628016	-0.121
C	-0.8869688283	 2.0031164121	 1.1148653808	-0.110257
O	-1.2306683591	 3.3516507549	 0.8720834894	-0.214378
C	-0.1973666908	 4.2432637535	 1.1055785358	 0.013189
O	 0.7768105434	 4.3296455284	 0.0666617166	-0.220481
C	 1.4910198846	 3.2404677304	-0.3138787997	 0.135043
N	 1.2205583235	 2.008057627	-0.3509350054	-0.25736
H	-0.6986387828	 1.5472090803	-0.960909804	 0.154944
H	-1.8225644249	 1.4483438467	 1.2182811779	 0.141819
H	-0.3125847585	 1.9063961768	 2.047153819	 0.121521
H	-0.6302723089	 5.2424333346	 1.1565325037	 0.13855
H	 0.3275671186	 3.9931177512	 2.0405547937	 0.107533
H	 2.4608377829	 3.5664334553	-0.6889101957	 0.139519
66.0828	150.3816	163.6398	236.0944	337.3239	388.9381	447.0551	474.3539	545.33	570.935	597.6409	786.3764	836.8503	924.0648	966.2106	990.8395	1002.4067	1059.8677	1085.1343	1107.3126	1162.8701	1222.392	1254.8894	1293.7453	1335.0303	1352.5024	1401.0587	1430.4435	1453.7801	1485.5004	1508.6877	1753.3435	2367.7076	2988.5236	3004.9803	3017.0293	3110.1364	3138.1602	3147.2563
N#CC1COCOC=N1	N#C[C@H]1COCOC=N1	
InChI=1S/C5H6N2O2/c6-1-5-2-8-4-9-3-7-5/h3,5H,2,4H2	InChI=1S/C5H6N2O2/c6-1-5-2-8-4-9-3-7-5/h3,5H,2,4H2/t5-/m0/s1
