20
gdb 110773	2.6604	1.26532	1.10824	3.6332	78.64	-0.2346	0.0308	0.2655	1204.5446	0.172378	-403.187327	-403.178797	-403.177853	-403.220933	32.644	
C	-0.003214603	 1.4870434761	 0.2693094584	-0.371763
C	 0.0009975451	 0.0319823658	-0.214651564	-0.217848
C	-1.3659198739	-0.611291798	-0.1157453665	-0.012761
C	-1.6138439463	-2.1104879251	-0.1243381973	-0.097167
C	-0.482169523	-3.0713612372	 0.2005782011	-0.350094
C	-0.0439990697	-2.7158239958	 1.633298199	 0.385288
O	 0.9057079773	-3.1561408609	 2.240196695	-0.373679
N	-0.9252392435	-1.7650702543	 2.0959365605	-0.292008
C	-1.8800493945	-1.3058048525	 1.132071503	-0.030515
H	 0.9873219964	 1.9403335158	 0.167529876	 0.116149
H	-0.7099373345	 2.0942826959	-0.3068799116	 0.114596
H	-0.2955461645	 1.5508519752	 1.3227749439	 0.113806
H	 0.3371029343	-0.0075429487	-1.2587363098	 0.102978
H	 0.7373994563	-0.5379265408	 0.3606954	 0.116787
H	-2.1424742889	-0.0563779514	-0.6401692223	 0.08576
H	-2.4444880265	-2.4787500942	-0.7139079907	 0.094241
H	-0.8159523573	-4.1134438565	 0.175696664	 0.131699
H	 0.3852432812	-2.9966735069	-0.4616211538	 0.134352
H	-0.7207684738	-1.2741242028	 2.9522038845	 0.250856
H	-2.8821842912	-1.1187160539	 1.5020195305	 0.099322
59.7988	95.7738	151.7923	210.7565	274.8106	302.6942	454.9841	467.2352	508.3363	555.114	600.0774	656.3253	731.9936	751.1106	789.9384	808.1486	855.4173	906.2752	950.1065	984.8563	994.2087	1046.5285	1058.716	1088.5954	1103.6667	1125.535	1148.1096	1189.9414	1227.0889	1250.2118	1281.7645	1300.9125	1336.0425	1361.9624	1384.3044	1405.5692	1413.1689	1446.1585	1466.3525	1484.9315	1498.5115	1505.5158	1828.8044	3027.7817	3032.8573	3060.526	3072.8981	3098.8069	3101.4063	3107.8283	3120.0537	3163.335	3181.483	3635.9026
CCC1C2CC(=O)NC12	CC[C@H]1[C@H]2CC(=O)N[C@@H]12	
InChI=1S/C7H11NO/c1-2-4-5-3-6(9)8-7(4)5/h4-5,7H,2-3H2,1H3,(H,8,9)	InChI=1S/C7H11NO/c1-2-4-5-3-6(9)8-7(4)5/h4-5,7H,2-3H2,1H3,(H,8,9)/t4-,5+,7-/m0/s1
