17
gdb 123867	3.36782	1.5393	1.10381	4.4635	72.85	-0.2869	-0.0378	0.2492	1062.2149	0.139229	-417.999508	-417.992689	-417.991745	-418.030801	27.014	
C	-0.0195181779	 1.5210595895	-0.0391027303	-0.207263
C	 1.4029702327	 2.1070854315	 0.0218160321	-0.207278
C	 2.0935394766	 1.8084959598	 1.3692517889	-0.319303
C	 1.8918544066	 0.3684565103	 1.7247571342	 0.298242
N	 2.5390445582	-0.3237488317	 2.6200991969	-0.177177
O	 1.9766112732	-1.5740518405	 2.5933434916	-0.155977
N	 0.9692856994	-1.651628722	 1.6662060739	-0.177169
C	 0.9052037149	-0.4687594057	 1.1218172338	 0.298233
C	-0.0125994371	-0.0207521287	 0.0274101321	-0.319308
H	-0.6103110774	 1.9193965433	 0.7958215939	 0.110066
H	-0.5197849903	 1.8415387287	-0.9578377628	 0.108065
H	 2.0022024624	 1.6866742439	-0.7960961019	 0.110071
H	 1.3715476267	 3.189145913	-0.1369525397	 0.108064
H	 3.1590648924	 2.0529660542	 1.3350930998	 0.133387
H	 1.6547085908	 2.4360026843	 2.1555373268	 0.131971
H	-1.0198937002	-0.4186412581	 0.180150171	 0.133393
H	 0.342647719	-0.4295038618	-0.9272062002	 0.131985
105.2806	214.8923	309.5135	326.559	383.885	437.9621	497.572	634.7522	662.3307	682.1731	717.8346	829.8116	849.1248	885.8609	915.8278	933.1169	956.0579	974.9711	1049.7424	1069.6343	1103.0589	1156.6263	1180.2774	1233.2436	1264.3262	1277.4926	1350.1613	1358.5615	1369.6271	1379.0722	1426.8721	1475.4213	1477.1081	1492.2624	1498.5333	1531.5863	1630.1264	3024.6774	3028.4895	3032.4298	3036.1617	3083.935	3085.2833	3090.1852	3092.1385
C1CCC2=NON=C2C1	C1CCc2nonc2C1	
InChI=1S/C6H8N2O/c1-2-4-6-5(3-1)7-9-8-6/h1-4H2	InChI=1S/C6H8N2O/c1-2-4-6-5(3-1)7-9-8-6/h1-4H2
