19
gdb 110704	3.1409	1.24703	1.13557	2.5968	80.45	-0.2438	0.0033	0.2471	1164.1923	0.159474	-385.881818	-385.873711	-385.872767	-385.914556	31.474	
C	 0.0676260992	 1.5730881041	 0.1222887353	-0.379154
C	-0.2007221732	 0.0746761716	-0.0576005435	-0.221323
C	 0.6031640929	-0.5312894188	-1.2007729397	 0.045089
C	 2.1666208489	-0.6890552372	-1.0932478207	-0.196889
C	 2.3166793044	-1.6869455033	 0.0398877489	-0.090074
C	 1.3325381718	-2.582212889	-0.1683905782	-0.089243
C	 0.6284891357	-2.0874515566	-1.4188544215	-0.210082
C	 1.9495232751	-1.7679337005	-2.2342036106	 0.423129
O	 2.483378285	-2.1224891565	-3.2301721509	-0.304048
H	 1.1154219718	 1.7593345997	 0.3807370504	 0.118798
H	-0.1523233384	 2.1328004669	-0.7936732303	 0.11546
H	-0.5509692705	 1.989856783	 0.9228479752	 0.11551
H	 0.0190813452	-0.4580616661	 0.8723574187	 0.107255
H	-1.2665086739	-0.0843419971	-0.2654043701	 0.098562
H	 0.3494025016	-0.0275323824	-2.1430559257	 0.084836
H	 2.8600309173	 0.1434418336	-1.1846488454	 0.082304
H	 3.1214003464	-1.7101041393	 0.7603742258	 0.109337
H	 1.1375624124	-3.5157846829	 0.3391804252	 0.109726
H	-0.2106389118	-2.6437697692	-1.8303855629	 0.08081
86.7889	129.8958	171.973	213.9851	281.7652	362.3797	399.5852	501.7593	583.3614	610.6193	699.469	723.8072	771.4903	807.9218	819.4478	842.4105	905.4612	917.311	944.0408	957.6778	976.2059	1001.0279	1060.4163	1087.2315	1096.7196	1122.0748	1136.7447	1169.0852	1175.0551	1250.9369	1252.6644	1292.568	1330.4453	1351.3956	1404.0803	1414.8137	1484.8415	1500.9055	1506.1422	1585.8776	1918.3345	3023.3499	3030.6896	3032.1103	3078.6106	3103.0726	3105.5334	3150.0763	3154.1556	3225.2751	3249.2195
CCC1C2C=CC1C2=O	CC[C@H]1[C@H]2C=C[C@@H]1C2=O	
InChI=1S/C8H10O/c1-2-5-6-3-4-7(5)8(6)9/h3-7H,2H2,1H3	InChI=1S/C8H10O/c1-2-5-6-3-4-7(5)8(6)9/h3-7H,2H2,1H3/t5-,6+,7-
