23
gdb 92084	2.42288	1.49934	1.21482	1.8187	84.13	-0.2557	0.0759	0.3317	1160.8083	0.207198	-388.299128	-388.290368	-388.289424	-388.331881	34.944	
C	-0.173257105	 1.632528881	-0.0627639031	-0.405217
C	-0.0088202813	 0.103853094	-0.0122370548	 0.020742
C	 0.6832720015	-0.4523160495	-1.2777417634	-0.264421
C	 2.1911766053	-0.3348181858	-1.2688827827	 0.071866
O	 2.7553644482	 0.9421944011	-0.9533063164	-0.251856
C	 2.9294258569	-0.1277042007	-0.0108568396	 0.031996
C	 2.1948752992	 0.0080293542	 1.3108394695	-0.229623
C	 0.7175073983	-0.4302066162	 1.2467242754	 0.033841
C	-0.0104373831	-0.09862893	 2.553644546	-0.413093
H	 0.7904202401	 2.1407700637	-0.125748897	 0.143074
H	-0.7522933804	 1.9160166265	-0.9483815609	 0.106839
H	-0.7149418863	 2.0076425768	 0.8107165838	 0.106232
H	-1.0190486294	-0.327013842	 0.0060636349	 0.066605
H	 0.446503652	-1.5201557455	-1.3819484928	 0.097274
H	 0.2860870297	 0.03976597	-2.1744709581	 0.101886
H	 2.7003537281	-0.847505352	-2.0871246226	 0.083062
H	 3.9595163446	-0.4805503362	 0.0462958274	 0.086465
H	 2.7112631416	-0.5929768766	 2.0684456712	 0.096344
H	 2.272901193	 1.050838478	 1.6434357887	 0.113591
H	 0.7198379715	-1.5259416478	 1.1438125879	 0.06614
H	-0.0116532414	 0.9780344945	 2.7524900778	 0.119756
H	-1.0524517771	-0.4351681046	 2.5247639938	 0.109319
H	 0.4744587539	-0.588042223	 3.4053620551	 0.109174
117.9809	168.3667	217.977	229.6841	267.9358	305.8375	331.5103	359.2522	382.4385	456.8012	522.9683	572.9107	698.6473	762.0308	785.7125	818.7939	868.2502	907.3186	922.6766	943.567	969.1746	1023.9954	1031.1673	1054.6777	1073.2632	1099.019	1110.6109	1119.5267	1175.1204	1195.7887	1242.4492	1268.529	1292.3457	1307.8763	1327.2331	1352.7474	1371.9554	1382.2745	1392.3462	1399.9627	1414.2659	1417.9617	1469.3602	1475.4146	1482.9319	1494.8925	1498.0314	1509.5354	1517.3803	2982.4104	3001.8097	3017.7739	3026.3915	3029.9626	3040.5381	3050.6051	3064.3802	3087.9304	3093.1994	3094.8072	3103.263	3105.6403	3140.1125
CC1CC2OC2CC1C	C[C@H]1C[C@H]2O[C@H]2C[C@H]1C	
InChI=1S/C8H14O/c1-5-3-7-8(9-7)4-6(5)2/h5-8H,3-4H2,1-2H3	InChI=1S/C8H14O/c1-5-3-7-8(9-7)4-6(5)2/h5-8H,3-4H2,1-2H3/t5-,6+,7+,8-
