25
gdb 116162	2.96765	0.98802	0.78793	1.3279	89.36	-0.2402	0.0838	0.3241	1562.9931	0.229885	-389.514942	-389.50512	-389.504176	-389.549427	37.647	
C	-0.095566669	 1.5793368286	 0.0787037615	-0.391993
C	 0.0143387096	 0.0521382886	 0.0018864651	-0.183969
C	 0.7400483449	-0.4803009846	-1.2432644062	 0.015321
C	 2.2266574043	-0.0978135265	-1.2661040082	-0.075233
O	 2.8952868232	-0.603828539	-2.4079105118	-0.249951
C	 2.8585881741	-2.017050743	-2.4736812538	-0.069144
C	 1.4255397278	-2.5591878469	-2.5469051215	 0.009013
C	 1.4096426602	-4.0883810882	-2.6044527213	-0.405473
C	 0.6224272317	-2.0095564688	-1.3576605007	-0.205224
H	 0.8842705794	 2.0599356701	 0.1611641689	 0.120085
H	-0.5887781709	 1.9846621481	-0.8118397392	 0.115787
H	-0.682018125	 1.885284561	 0.9506982123	 0.112616
H	 0.5192329342	-0.3266125692	 0.9015821432	 0.092902
H	-0.994682875	-0.3793940593	 0.0219431655	 0.093422
H	 0.2777016394	-0.0328757622	-2.1352986721	 0.072985
H	 2.3626744361	 0.9864858841	-1.2992809685	 0.103189
H	 2.7127802683	-0.4707062377	-0.3451458941	 0.076815
H	 3.4303722271	-2.2964033181	-3.3645595005	 0.100632
H	 3.3708130163	-2.4520984841	-1.5952858916	 0.076267
H	 0.9806512738	-2.1654317271	-3.4713838946	 0.07673
H	 1.8621000152	-4.5228759118	-1.7051566566	 0.113478
H	 0.3852566436	-4.4685098944	-2.6749860856	 0.113903
H	 1.9650991357	-4.4629954698	-3.4711317439	 0.112109
H	 0.9991485769	-2.4676883174	-0.4299303318	 0.087216
H	-0.431328292	-2.3038534823	-1.4410986444	 0.088515
74.2169	124.611	155.7464	189.3833	224.0103	241.125	285.9531	315.4455	360.8873	415.5905	435.4715	448.0305	483.716	581.9187	767.8099	847.0453	862.8276	888.4618	924.9351	932.2518	947.2424	981.9089	1004.4798	1043.7098	1047.6044	1077.4064	1127.3958	1134.6963	1160.5012	1185.478	1195.9221	1214.0178	1270.1548	1290.6004	1307.888	1330.9681	1334.5569	1346.1565	1363.4488	1382.2582	1392.4373	1403.909	1412.8897	1415.3075	1421.7045	1480.4738	1488.916	1490.0724	1497.7423	1500.1011	1501.2039	1502.5374	1508.1611	2930.3662	2937.8378	2990.5474	3000.3752	3010.5786	3014.2979	3025.8478	3033.4619	3041.0243	3048.9437	3072.1804	3086.2811	3091.7904	3097.7071	3099.6029	3105.5446
CCC1COCC(C)C1	CC[C@H]1COC[C@@H](C)C1	
InChI=1S/C8H16O/c1-3-8-4-7(2)5-9-6-8/h7-8H,3-6H2,1-2H3	InChI=1S/C8H16O/c1-3-8-4-7(2)5-9-6-8/h7-8H,3-6H2,1-2H3/t7-,8+/m0/s1
