13
gdb 130230	3.11488	1.54529	1.03699	4.7334	66.38	-0.2433	-0.0557	0.1876	1053.5047	0.089198	-486.033837	-486.026058	-486.025114	-486.066979	28.612	
N	 0.0779824443	 1.3630424832	 0.0947908868	-0.553981
C	-0.0381055177	 0.0010811789	-0.0139977925	 0.500238
N	-1.1719481252	-0.5481953426	-0.2395002142	-0.232639
O	-1.1308717317	-1.9372021248	-0.5355148938	-0.273658
C	-0.0390510889	-2.7041728012	-0.2447461643	 0.368111
N	-0.0687651503	-3.9619834719	-0.3494305301	-0.469135
C	 1.2143003516	-1.9996095261	 0.1586287425	 0.323739
N	 2.2682033104	-2.5966960418	 0.4875645713	-0.454683
O	 1.1650844799	-0.6128448721	 0.1088554416	-0.236308
H	 0.7409174158	 1.6791526819	 0.7884526134	 0.270386
H	-0.812190294	 1.838885296	 0.1245460978	 0.279729
H	-1.0000181795	-4.2675003626	-0.6413432758	 0.239061
H	 3.0090001653	-1.9286856867	 0.7087845874	 0.239142
48.9894	71.1151	254.4722	322.6061	359.6247	390.1431	418.688	487.1211	506.996	571.8488	607.0072	686.8526	698.4595	761.6138	817.4577	876.2312	930.9846	932.0792	975.6351	1066.0619	1118.5469	1176.9723	1238.0929	1354.7866	1418.2554	1621.3392	1722.8958	1742.5762	1778.6601	3469.4064	3480.6114	3567.7147	3679.6692
NC1=NOC(=N)C(=N)O1	NC1=NOC(=C([NH])O1)[NH]	
InChI=1S/C3H4N4O2/c4-1-2(5)9-7-3(6)8-1/h4-5H,(H2,6,7)	InChI=1S/C3H4N4O2/c4-1-2(5)9-7-3(6)8-1/h4-5H,(H2,6,7)
