17
gdb 125550	4.79424	1.25323	1.01513	2.3354	76.03	-0.2104	0.0377	0.2482	1158.7594	0.138519	-418.029542	-418.021862	-418.020918	-418.062025	28.437	
C	-0.1579884226	 1.421547281	-0.0659658783	-0.48695
C	-0.0107518802	-0.0635231657	 0.0392979695	 0.377305
N	-0.1159937304	-0.8244068552	-1.0528193115	-0.362354
N	 0.0232650161	-2.0855220963	-0.5675933216	 0.005322
C	 0.2473429107	-3.3691689144	-1.1891976569	-0.193468
C	 0.2403342162	-4.2521335895	 0.0909454928	-0.105597
O	 0.5005059927	-3.3640828168	 1.2118435578	-0.281585
C	 0.257334662	-2.1152679625	 0.7574871244	 0.510875
C	 0.2308994685	-0.8246762961	 1.2252136955	-0.493708
H	 0.7202938079	 1.9390935024	 0.3352893191	 0.125664
H	-0.281581401	 1.7072844992	-1.1127158228	 0.137904
H	-1.0289641893	 1.779979927	 0.4944021656	 0.126997
H	-0.5501170965	-3.643621285	-1.8839193244	 0.137256
H	 1.2061648719	-3.3976419831	-1.7212178728	 0.130486
H	-0.7404920742	-4.714429519	 0.2428904356	 0.130774
H	 1.0093779533	-5.0252921408	 0.0896497947	 0.134624
H	 0.3550393649	-0.4715434453	 2.2341566835	 0.106453
108.6087	110.6699	142.3001	226.8023	276.4773	355.3488	496.9184	550.3933	662.5746	691.2168	709.8999	753.6325	758.6438	839.6593	874.2076	949.728	979.1153	1003.5895	1024.6061	1062.6131	1127.3278	1150.7146	1166.4037	1204.1015	1246.8171	1289.6664	1340.779	1370.1461	1399.6198	1422.0703	1479.8094	1483.0418	1495.9287	1504.6303	1526.735	1551.6701	1625.2026	3029.2776	3032.8734	3053.474	3083.4424	3097.3684	3131.5213	3132.2579	3280.8672
CC1=NN2CCOC2=C1	Cc1nn2CCOc2c1	
InChI=1S/C6H8N2O/c1-5-4-6-8(7-5)2-3-9-6/h4H,2-3H2,1H3	InChI=1S/C6H8N2O/c1-5-4-6-8(7-5)2-3-9-6/h4H,2-3H2,1H3
