19
gdb 87633	2.83074	1.20864	1.03938	3.7796	76.5	-0.2362	-0.017	0.2192	1210.1068	0.156615	-423.016233	-423.006977	-423.006033	-423.050599	34.587	
C	-0.4861176169	 1.2785942491	-0.0178099735	-0.410596
C	 0.064203028	-0.1411659268	-0.0739425937	-0.160392
C	 1.3746690615	-0.3573840793	-0.857305313	 0.399223
O	 1.7497535142	-0.0160467476	-1.9411030018	-0.297237
C	 2.0460534103	-1.0943657677	 0.3206917841	-0.444328
C	 0.7946568574	-0.7498932728	 1.1458929466	 0.322554
C	 0.7533699764	-0.2252136563	 2.5591712936	-0.390705
C	 0.1455007308	-1.5656915819	 2.209129239	 0.038436
O	-1.2440921737	-1.6866401341	 2.1110604408	-0.419908
H	 0.2623866384	 1.9819468179	 0.3604944678	 0.118851
H	-0.7835188667	 1.6075592255	-1.0177585932	 0.134223
H	-1.3638375206	 1.3276848979	 0.633860682	 0.124463
H	-0.7102545068	-0.8273219129	-0.4405425722	 0.116376
H	 2.2050333865	-2.1618973687	 0.1323529013	 0.13072
H	 2.9931040684	-0.6529529001	 0.6466548582	 0.129912
H	 1.6734572153	-0.2075137495	 3.135503818	 0.113575
H	 0.0642422247	 0.5864394149	 2.7716097273	 0.118016
H	 0.6636476799	-2.4629016752	 2.5512236225	 0.086258
H	-1.6106498672	-1.6827634024	 3.0015537261	 0.29056
36.813	128.8245	193.6738	198.5556	211.5198	236.5683	304.2456	363.1649	432.4906	472.4335	498.3621	517.7392	589.2503	724.2655	751.2155	797.5066	861.1347	884.9808	928.4571	982.62	1019.1135	1038.014	1041.832	1090.8862	1096.5179	1129.7363	1147.9999	1170.3873	1192.1093	1221.4714	1232.3725	1293.6267	1320.7578	1344.6767	1397.5185	1424.1326	1439.8417	1487.1837	1497.213	1497.7124	1892.4986	3032.2261	3037.4078	3044.4252	3087.9402	3096.1616	3108.4471	3114.9068	3120.2311	3209.5621	3805.5207
CC1C(=O)CC11CC1O	C[C@H]1C(=O)C[C@]21C[C@H]2O	
InChI=1S/C7H10O2/c1-4-5(8)2-7(4)3-6(7)9/h4,6,9H,2-3H2,1H3	InChI=1S/C7H10O2/c1-4-5(8)2-7(4)3-6(7)9/h4,6,9H,2-3H2,1H3/t4-,6+,7+/m0/s1
