18
gdb 63282	2.08126	1.71896	1.29585	5.3272	72.23	-0.2577	0.0009	0.2587	1065.9624	0.146049	-439.092094	-439.083265	-439.082321	-439.125254	33.154	
C	-0.2504985157	 1.5562116528	 0.1287921963	-0.430723
C	 0.0037526288	 0.0605812365	 0.0683258006	 0.343292
C	-1.1692289925	-0.7386736081	-0.4737462359	-0.436339
O	 1.2203303578	-0.2146927403	-0.7365633514	-0.309821
C	 1.8782133539	-0.8085407941	 0.3170591531	 0.451909
O	 2.9681505974	-1.2809645625	 0.3274294437	-0.334351
C	 0.7340623698	-0.5649151483	 1.2703659396	 0.064177
C	 0.751629638	-0.1750583834	 2.6985149519	-0.297275
N	 0.2654588999	-1.4993854545	 2.2840881072	-0.350189
H	 0.6330039554	 2.0863915047	 0.4927899535	 0.133708
H	-0.501368282	 1.9416225116	-0.8641616307	 0.135605
H	-1.0890435537	 1.7760836328	 0.7978906495	 0.120824
H	-1.4273961875	-0.3986669314	-1.4808908639	 0.138553
H	-0.9294998258	-1.8041000482	-0.5188011364	 0.139988
H	-2.0516258114	-0.6049922047	 0.1617636879	 0.11888
H	 1.6919209167	-0.1832810617	 3.241521616	 0.146735
H	 0.034751797	 0.5767440045	 3.019554884	 0.12372
H	-0.752441186	-1.5265811657	 2.2860822851	 0.241307
92.8171	177.7805	201.4892	208.5918	225.8616	244.7994	310.9954	336.1662	358.6364	497.1499	564.2409	620.1678	648.7348	726.7266	814.5532	836.9101	896.8968	942.3522	951.3866	977.587	984.1914	1002.2637	1039.3145	1069.4474	1128.45	1201.0019	1225.1019	1250.6115	1264.9308	1308.6905	1404.0798	1414.3088	1425.1623	1474.4573	1482.1329	1497.4682	1500.374	1511.1868	1942.0648	3036.8109	3042.1342	3105.5975	3109.3136	3111.6588	3125.5427	3127.0897	3201.7415	3489.1385
CC1(C)OC(=O)C11CN1	CC1(C)OC(=O)[C@]21CN2	
InChI=1S/C6H9NO2/c1-5(2)6(3-7-6)4(8)9-5/h7H,3H2,1-2H3	InChI=1S/C6H9NO2/c1-5(2)6(3-7-6)4(8)9-5/h7H,3H2,1-2H3/t6-/m0/s1
