23
gdb 115599	2.96247	1.00355	0.94241	1.95	82.46	-0.2418	0.0748	0.3166	1426.5179	0.203131	-425.405433	-425.394877	-425.393932	-425.441069	38.374	
C	-0.121758758	 1.599809042	-0.1801590669	-0.3815
C	 0.0551882768	 0.0886660814	 0.0101296406	-0.208235
C	-1.2786982856	-0.6197110192	 0.143786966	 0.128275
O	-2.090750682	-0.5245569066	-1.0547178226	-0.300473
C	-2.4799840781	-1.9070957432	-0.9554365705	-0.115073
C	-1.4085431427	-2.1670362849	 0.139190828	 0.321997
C	-0.1932743129	-2.9533346298	-0.3381056212	-0.454994
O	-1.8909883568	-2.6057950934	 1.3926415951	-0.285503
C	-2.3731934967	-3.9317912114	 1.4390097974	-0.253209
H	 0.8447802157	 2.0982729538	-0.2989192575	 0.109387
H	-0.7240642815	 1.8047290295	-1.0696173898	 0.138062
H	-0.6291174122	 2.0500715504	 0.6799793787	 0.114883
H	 0.6099607512	-0.3254844238	-0.8385950699	 0.096699
H	 0.646030355	-0.1131632976	 0.9129382687	 0.101365
H	-1.8293625329	-0.2242405602	 1.0102085733	 0.07589
H	-3.508662411	-2.0222508571	-0.5880668614	 0.095526
H	-2.3686740692	-2.4330310728	-1.910708795	 0.097105
H	 0.1949686065	-2.5325214927	-1.2690762312	 0.130601
H	 0.6018601289	-2.9331894793	 0.4132497816	 0.124835
H	-0.4521199129	-3.9979042244	-0.536900245	 0.116819
H	-2.8490046062	-4.0596578381	 2.4143427641	 0.130201
H	-3.1232417449	-4.1248586341	 0.6573113165	 0.106729
H	-1.5727611006	-4.6782494585	 1.3428648509	 0.110612
70.9243	89.1888	103.1125	165.2027	185.2916	209.5814	238.2524	265.2587	313.4094	341.122	358.4982	394.0498	495.1565	563.4897	642.4831	763.9047	820.6369	897.5413	909.7882	921.748	956.7177	980.7303	1024.1718	1055.9086	1088.8953	1115.2383	1143.9413	1167.3939	1179.4953	1183.2552	1204.9395	1230.4301	1265.2686	1280.0751	1302.2197	1332.7253	1363.2995	1405.9852	1407.6709	1417.2376	1473.2572	1477.3438	1487.0348	1491.2635	1498.8155	1506.3186	1508.9426	1510.1472	1514.6786	2985.7824	2994.1505	3006.9071	3028.7746	3036.8099	3037.4728	3044.8463	3060.1247	3074.0713	3105.3248	3109.4304	3113.8658	3120.0079	3124.5154
CCC1OCC1(C)OC	CC[C@H]1OC[C@]1(C)OC	
InChI=1S/C7H14O2/c1-4-6-7(2,8-3)5-9-6/h6H,4-5H2,1-3H3	InChI=1S/C7H14O2/c1-4-6-7(2,8-3)5-9-6/h6H,4-5H2,1-3H3/t6-,7+/m1/s1
