19
gdb 47095	2.46547	1.79683	1.24109	2.2289	74.25	-0.2382	-0.0179	0.2203	1039.3185	0.161613	-423.07097	-423.063369	-423.062424	-423.103742	29.223	
O	-0.0687582455	 0.0355652846	 0.2445269458	-0.320813
C	-0.0936403272	 1.2238748573	 0.0542218609	 0.401254
C	-1.3518050871	 2.0728466927	-0.1593639557	-0.315928
C	-0.8426242595	 3.4753104224	-0.526843168	-0.247984
C	 0.5609381408	 3.5508169189	 0.0855673211	 0.102143
O	 0.4503113784	 3.7933875327	 1.4854801345	-0.267745
C	 1.6188803597	 3.2629915046	 2.1033935979	-0.071246
C	 2.0264761603	 2.0107972684	 1.2844172917	-0.256529
C	 1.1489384668	 2.1341095414	 0.0215849444	-0.125274
H	-2.005139785	 1.6126545557	-0.9045742429	 0.127618
H	-1.9016902705	 2.0779931058	 0.7881209389	 0.14541
H	-0.764167247	 3.588999535	-1.6133375076	 0.105041
H	-1.4770037887	 4.2819135633	-0.1532711814	 0.118923
H	 1.1947156424	 4.3137368985	-0.3899825542	 0.062269
H	 2.4264008966	 4.010774997	 2.0931467406	 0.092661
H	 1.3700748184	 3.0442728402	 3.1449673208	 0.113214
H	 3.0916233541	 2.0221694848	 1.0431518433	 0.106698
H	 1.8153164552	 1.0748855268	 1.8073953335	 0.130269
H	 1.7004630778	 1.9254314798	-0.9006936335	 0.100021
51.6414	109.6586	190.6859	245.9028	336.2679	448.8574	511.4555	573.223	638.4235	684.3155	732.4893	796.5524	807.7188	837.9086	900.0861	930.2234	933.4304	960.6188	1007.1101	1013.8294	1034.6399	1082.7208	1118.246	1144.564	1163.5965	1205.0525	1218.5229	1225.1297	1251.4895	1279.301	1292.2956	1305.9498	1333.0227	1349.1799	1368.5719	1395.2923	1445.3448	1485.7101	1503.8959	1523.6367	1842.0545	2985.9467	2993.5703	3055.2694	3058.6228	3064.0676	3073.6906	3090.4303	3105.9055	3116.352	3117.257
O=C1CCC2OCCC12	O=C1CC[C@H]2OCC[C@@H]12	
InChI=1S/C7H10O2/c8-6-1-2-7-5(6)3-4-9-7/h5,7H,1-4H2	InChI=1S/C7H10O2/c8-6-1-2-7-5(6)3-4-9-7/h5,7H,1-4H2/t5-,7+/m0/s1
