18
gdb 11971	2.82277	2.00543	1.72192	3.0249	67.72	-0.2548	0.0655	0.3203	869.9503	0.151755	-384.906303	-384.898143	-384.897199	-384.938336	31.307	
C	-0.5012801656	 1.4578513232	 0.0688638542	-0.466106
C	 0.0310230065	 0.0360140623	 0.0072835748	 0.3187
O	-0.9876836339	-0.8834853005	-0.3628090448	-0.471835
C	 1.361987346	-0.2338202739	-0.7739073791	-0.27348
C	 1.8227070997	-1.1935676916	 0.3644050987	-0.321254
C	 0.742174655	-0.5602098838	 1.238759646	 0.461814
C	 0.8719858685	 0.0215664783	 2.5760722523	-0.268616
O	 0.0966474792	-1.1614179417	 2.3360770135	-0.264889
H	 0.2693706789	 2.1611919992	 0.398475419	 0.115374
H	-0.8465270696	 1.7828850677	-0.9207019447	 0.107415
H	-1.3504194357	 1.5154469947	 0.7569810665	 0.13318
H	-1.3034482978	-0.6306503811	-1.2374898432	 0.276527
H	 1.2340769471	-0.6735842046	-1.765116021	 0.097424
H	 1.9881494493	 0.6588047041	-0.8512587956	 0.101099
H	 1.588882526	-2.2370291133	 0.1411606985	 0.126644
H	 2.8573918374	-1.1186440383	 0.7050172583	 0.10252
H	 1.7937001623	-0.1277702178	 3.1378917934	 0.112082
H	 0.2981862768	 0.9055586272	 2.8511528832	 0.113403
88.4843	196.1933	216.2603	259.9448	288.8989	303.0421	349.6972	386.434	454.5673	498.7148	599.3288	658.1095	745.0938	859.1075	876.5397	892.0572	909.0332	946.113	966.6818	986.3234	1088.9396	1114.2547	1131.2689	1151.3669	1168.6835	1194.5476	1206.8416	1210.428	1260.5282	1276.9561	1374.4104	1403.8643	1429.2089	1465.7886	1485.1126	1486.5167	1498.2668	1536.6759	3023.3584	3063.0411	3071.8449	3077.5421	3089.3428	3113.0749	3116.8156	3131.8752	3163.869	3797.5601
CC1(O)CCC11CO1	C[C@@]1(O)CC[C@]21CO2	
InChI=1S/C6H10O2/c1-5(7)2-3-6(5)4-8-6/h7H,2-4H2,1H3	InChI=1S/C6H10O2/c1-5(7)2-3-6(5)4-8-6/h7H,2-4H2,1H3/t5-,6-/m1/s1
