20
gdb 102685	3.50529	0.67177	0.58903	4.3151	76.41	-0.2606	0.0308	0.2914	1817.0538	0.169838	-440.292831	-440.282404	-440.281459	-440.329292	36.735	
O	 0.1445857782	 1.4763379	 0.1057016706	-0.427987
C	 0.0827222404	 0.0869415775	-0.1183824189	-0.051805
C	-1.3412697739	-0.4934700015	 0.0027225068	-0.012381
C	-2.2059349344	-0.0914450871	-1.1953911166	-0.100407
O	-2.234287354	 1.3329612041	-1.2917659114	-0.424694
C	-1.3281576227	-2.0274839792	 0.1248890951	-0.206639
C	-0.9029077729	-2.5166343763	 1.5251923187	-0.349348
C	-0.885796771	-3.9746143939	 1.6203876312	 0.259159
N	-0.8796379839	-5.1288293322	 1.6758325019	-0.303596
H	-0.5420461243	 1.8672104103	-0.451097426	 0.290774
H	 0.4883194155	-0.1896995016	-1.1094348015	 0.079931
H	 0.7431294846	-0.3711332497	 0.6267077703	 0.099101
H	-1.7960098698	-0.0593731398	 0.9034992215	 0.093186
H	-1.7854951226	-0.5334852828	-2.1125897614	 0.098382
H	-3.2254460416	-0.4861705298	-1.0719771128	 0.099407
H	-2.6424875715	 1.5804139116	-2.1263347906	 0.297666
H	-2.3246283644	-2.4293345354	-0.0897247303	 0.118665
H	-0.6549755923	-2.4576451935	-0.6262911361	 0.123481
H	 0.0929371907	-2.1432413225	 1.7857939931	 0.160642
H	-1.5910642298	-2.1268817181	 2.2841297864	 0.156462
49.7833	77.6516	94.122	116.0134	167.8699	247.6847	252.0199	269.5369	326.8838	376.6331	396.5183	431.1462	489.2951	557.8757	615.8921	754.6581	854.7282	909.4579	942.496	969.6854	1012.003	1063.583	1074.9313	1096.888	1108.6042	1137.5281	1198.763	1218.9889	1246.5171	1283.7692	1294.9592	1307.9662	1338.7577	1361.9629	1390.6059	1398.9434	1458.7677	1466.3197	1472.2271	1494.1252	1506.4161	1522.2603	2363.0266	2931.8364	2974.5651	3006.9101	3027.5071	3035.3573	3048.5866	3055.6764	3069.7018	3094.2131	3751.3827	3836.7737
OCC(CO)CCC#N	OCC(CO)CCC#N	
InChI=1S/C6H11NO2/c7-3-1-2-6(4-8)5-9/h6,8-9H,1-2,4-5H2	InChI=1S/C6H11NO2/c7-3-1-2-6(4-8)5-9/h6,8-9H,1-2,4-5H2
