17
gdb 109011	3.7062	1.23041	1.17258	2.3244	72.06	-0.2118	-0.0108	0.201	1096.2683	0.136318	-421.785715	-421.778162	-421.777218	-421.817941	29.457	
O	 0.0150455082	 1.4214768762	-0.0359967577	-0.411088
C	-0.0217524103	 0.0078644273	 0.0280438792	-0.200898
C	-1.4311985318	-0.4539554978	 0.0799533567	 0.366498
C	-2.5765353404	 0.2207041305	 0.0905002519	-0.202636
C	-3.6764503145	-0.8687693257	 0.0433935654	-0.041625
O	-3.0477572051	-1.8989092387	 0.826955951	-0.230188
C	-1.8577772814	-1.9496109694	 0.0291010449	-0.110537
C	-2.4737947843	-2.2024353696	-1.3715264622	-0.081671
C	-3.6174325203	-1.5253977024	-1.3611779204	-0.070008
H	 0.9342229929	 1.6990808911	 0.0138963677	 0.289981
H	 0.4729867718	-0.4492109848	-0.8502071055	 0.094534
H	 0.5222297902	-0.3697869125	 0.9124678999	 0.100953
H	-2.7347438132	 1.287429157	 0.0571465936	 0.121089
H	-4.6582319991	-0.6113902132	 0.4372673532	 0.080608
H	-1.1507333933	-2.6873485709	 0.4084620671	 0.076457
H	-2.0080286893	-2.763824838	-2.168379559	 0.108666
H	-4.3412795002	-1.3796555992	-2.1498642859	 0.109865
80.1941	158.3606	180.2904	236.9272	368.9014	443.5286	471.4904	562.5092	649.3416	672.6725	705.2083	781.6027	791.8355	833.8912	863.2892	884.1574	899.3859	906.5745	912.8896	970.3558	1026.3481	1038.6746	1075.8258	1098.755	1165.0985	1190.5862	1215.4967	1237.875	1246.5359	1259.9015	1274.9486	1296.0266	1323.3315	1465.2976	1502.103	1632.8358	1714.4328	2921.6988	2944.6663	3122.7934	3137.6379	3226.4086	3253.3076	3258.1655	3834.4725
OCC1=CC2OC1C=C2	OCC1=C[C@@H]2O[C@H]1C=C2	
InChI=1S/C7H8O2/c8-4-5-3-6-1-2-7(5)9-6/h1-3,6-8H,4H2	InChI=1S/C7H8O2/c8-4-5-3-6-1-2-7(5)9-6/h1-3,6-8H,4H2/t6-,7+/m1/s1
