19
gdb 113672	2.72033	0.94288	0.85462	2.9238	73.16	-0.2678	-0.0398	0.228	1446.3173	0.156247	-460.156128	-460.146274	-460.14533	-460.191798	35.015	
C	 1.6254949571	 0.8531240027	 0.4218000704	-0.379065
C	 0.3147528537	 0.0748811438	 0.2514761159	-0.228553
C	 0.0487316956	-0.2562453143	-1.1963162289	 0.094102
O	 0.8250602773	-1.2836533975	-1.8183293879	-0.247673
C	-0.5823823847	-1.4979061414	-1.6989161666	-0.06073
C	-1.0450738799	-2.6164593143	-0.8130713988	 0.317397
O	-2.2286836193	-2.8340642103	-0.6531483327	-0.327472
C	-0.0136975409	-3.5402108529	-0.1868637218	-0.13597
O	-0.628708428	-4.5139724369	 0.6013035008	-0.422168
H	 2.4747329166	 0.2625665759	 0.0658520007	 0.136913
H	 1.6067046602	 1.7901793007	-0.1448689226	 0.121195
H	 1.7974641787	 1.1004776449	 1.4728251621	 0.122974
H	 0.340461895	-0.8373179613	 0.85376972	 0.11261
H	-0.5290049423	 0.6714767515	 0.6202562444	 0.116888
H	-0.0865414548	 0.6187300335	-1.8368452929	 0.104617
H	-1.1533421985	-1.4282680498	-2.6255493409	 0.123661
H	 0.5659188311	-3.9813108537	-1.0170952563	 0.12742
H	 0.7118231429	-2.9550119952	 0.3951053116	 0.12962
H	-1.5819141296	-4.3822438553	 0.4729755035	 0.294235
58.128	71.7954	88.3493	164.3011	177.0035	223.2491	249.3353	330.8492	387.3599	438.1589	464.0732	510.6337	551.1195	645.8202	757.616	808.1785	830.4806	882.2642	951.8736	984.5569	1027.6468	1050.1654	1085.9127	1119.0848	1140.6172	1172.0856	1211.7099	1230.0825	1280.8935	1293.2971	1315.9012	1345.9543	1381.4722	1411.6919	1452.0524	1466.957	1474.3935	1479.9389	1498.4526	1508.739	1786.2856	2964.886	3028.5043	3039.0704	3040.6899	3078.1122	3093.2283	3111.4108	3114.9367	3121.1773	3683.9086
CCC1OC1C(=O)CO	CC[C@H]1O[C@H]1C(=O)CO	
InChI=1S/C6H10O3/c1-2-5-6(9-5)4(8)3-7/h5-7H,2-3H2,1H3	InChI=1S/C6H10O3/c1-2-5-6(9-5)4(8)3-7/h5-7H,2-3H2,1H3/t5-,6+/m1/s1
