16
gdb 9806	3.34209	1.69179	1.2988	1.1211	60.83	-0.2672	-0.0436	0.2236	944.0571	0.127278	-420.861933	-420.853469	-420.852524	-420.895132	30.399	
C	-0.2943268268	 0.971940001	-1.2946532682	-0.464427
C	-0.0370804522	 0.256138067	 0.0084931793	 0.379806
C	 1.2080631692	-0.4931617419	 0.2218129009	-0.22518
O	 1.0109662323	 0.7932769448	 0.8271131502	-0.275595
C	-1.3024519401	-0.1284561055	 0.7810859749	-0.012776
O	-2.1163420087	-0.9660280546	 0.0049991613	-0.429519
C	-1.0025531252	-0.7745176601	 2.122423117	 0.121069
O	-1.4838050476	-1.8434335589	 2.4163323247	-0.267282
H	 0.6470771212	 1.2029123368	-1.7987711888	 0.126058
H	-0.9110163497	 0.3484528398	-1.9471053831	 0.150367
H	-0.8294216698	 1.9108728144	-1.1153311177	 0.126791
H	 1.234930488	-1.337744675	 0.9098975475	 0.123617
H	 1.9561394296	-0.5227685366	-0.5681811146	 0.123231
H	-1.8344443468	 0.8140526568	 1.0169805512	 0.098332
H	-2.2865224989	-1.7438325084	 0.5614419228	 0.296955
H	-0.3429975744	-0.2122475894	 2.8065783125	 0.128554
55.5841	102.6912	190.4886	214.9813	279.6242	308.1395	343.0224	369.0909	444.2904	456.0926	515.6238	696.1907	771.0018	839.2202	852.4194	922.0214	961.5252	1005.1693	1042.0481	1108.543	1133.2063	1152.5354	1170.4452	1237.9136	1272.5721	1333.8175	1380.2688	1398.5569	1413.9125	1446.0609	1480.458	1496.6967	1536.0551	1806.1802	2922.0175	2990.0734	3042.0048	3084.6899	3111.8933	3135.2725	3171.5604	3674.8199
CC1(CO1)C(O)C=O	C[C@]1(CO1)[C@@H](O)C=O	
InChI=1S/C5H8O3/c1-5(3-8-5)4(7)2-6/h2,4,7H,3H2,1H3	InChI=1S/C5H8O3/c1-5(3-8-5)4(7)2-6/h2,4,7H,3H2,1H3/t4-,5-/m0/s1
