12
gdb 130628	5.12387	1.31171	1.05119	1.214	61.96	-0.2394	-0.0574	0.182	1009.5625	0.078198	-468.801873	-468.795125	-468.794181	-468.833247	25.143	
O	 0.010397579	 0.0130287761	 0.0042854406	-0.337547
C	-0.0192913673	 1.2141758615	 0.0103293363	 0.412816
C	-1.3057786009	 2.1173766807	 0.0328375411	-0.48871
C	-0.693739452	 3.4740086296	 0.0308142958	 0.345208
C	 0.6565245777	 3.3855767775	 0.0114213157	 0.347417
N	 1.0908647629	 2.0623431703	-0.0010395561	-0.436583
N	 1.1782560812	 4.634292534	 0.0102116733	-0.219855
N	 0.2332581305	 5.4812225932	 0.0286521512	-0.033514
O	-1.041482467	 4.745365575	 0.0417359752	-0.224726
H	-1.9224986253	 1.8940535874	-0.8429324194	 0.176058
H	-1.8977289129	 1.8855066171	 0.9233569917	 0.176071
H	 2.039199414	 1.7264579976	-0.0162826953	 0.283365
92.356	180.2669	282.3035	351.1146	410.8688	488.2932	543.4414	555.3755	555.4595	648.5893	719.4702	726.5842	821.2746	856.7763	953.2881	1004.5742	1129.2121	1144.4956	1220.5887	1246.8081	1293.5736	1359.3122	1421.7309	1442.197	1534.3453	1630.8461	1861.1023	3067.925	3108.6852	3674.1046
O=C1CC2=C(N1)N=NO2	O=C1Cc2c(N1)nno2	
InChI=1S/C4H3N3O2/c8-3-1-2-4(5-3)6-7-9-2/h1H2,(H,5,8)	InChI=1S/C4H3N3O2/c8-3-1-2-4(5-3)6-7-9-2/h1H2,(H,5,8)
