21
gdb 73369	2.35407	2.13889	1.54315	1.774	79.93	-0.2341	0.0834	0.3176	961.2422	0.185584	-387.088617	-387.081531	-387.080587	-387.119509	30.25	
C	-0.039032596	 1.4643701398	 0.0043073941	-0.495338
C	 0.0119903642	-0.0525108529	-0.0033531547	 0.326724
C	 0.658616125	-0.7036586956	-1.241958022	-0.250258
C	 0.3474196039	-2.2209377237	-1.0653040189	-0.260569
C	-0.7765882064	-2.220268983	-0.0253355856	-0.024649
C	-0.4231986472	-1.8138096979	 1.4429988107	 0.066013
C	 0.6432763434	-0.7190705849	 1.2661939449	-0.26438
O	-1.6396251075	-1.0036433022	 1.49313202	-0.304787
C	-1.3686318508	-0.7995718435	 0.0861099902	 0.053701
H	 0.9651624359	 1.9011245967	 0.0482105534	 0.11237
H	-0.5274617635	 1.8501224281	-0.8983572788	 0.108486
H	-0.5988304051	 1.8268380631	 0.8729142437	 0.124662
H	 0.1906382411	-0.321459631	-2.1578876619	 0.093105
H	 1.7291336356	-0.4875559248	-1.3142792245	 0.09592
H	 0.0243648645	-2.6806371683	-2.0035195238	 0.101277
H	 1.2207116031	-2.7857779917	-0.7224150057	 0.101798
H	-1.5061956366	-3.0279513611	-0.0710300869	 0.075936
H	-0.3316603302	-2.5289312271	 2.2613117748	 0.073693
H	 1.6566160616	-1.0942516943	 1.0954446583	 0.091579
H	 0.6520267795	-0.0573446044	 2.1354295292	 0.104026
H	-2.2115397745	-0.4156444413	-0.4903652164	 0.070693
216.8893	225.6674	245.2782	312.3098	373.9432	417.9548	509.4997	576.3411	612.2316	691.728	742.3495	784.5203	793.2135	855.4498	879.0806	896.0375	922.409	940.8387	951.3064	968.7498	980.172	1026.3308	1040.2428	1056.1693	1067.9653	1119.8698	1150.7976	1176.8447	1205.3851	1214.7601	1237.0006	1243.2268	1259.3805	1280.1356	1295.5152	1311.4928	1315.6728	1355.2095	1363.2993	1412.5197	1484.7009	1486.779	1495.8107	1499.4363	1509.4914	3021.2905	3026.7445	3046.4625	3057.9411	3073.902	3084.0401	3091.0181	3096.3166	3108.7139	3110.505	3111.9386	3128.8914
CC12CCC3C(C1)OC23	C[C@@]12CC[C@H]3[C@@H](C1)O[C@@H]23	
InChI=1S/C8H12O/c1-8-3-2-5-6(4-8)9-7(5)8/h5-7H,2-4H2,1H3	InChI=1S/C8H12O/c1-8-3-2-5-6(4-8)9-7(5)8/h5-7H,2-4H2,1H3/t5-,6+,7+,8+/m0/s1
