20
gdb 56579	3.40753	0.97762	0.88358	1.6236	79.09	-0.2501	0.0289	0.279	1360.4169	0.171526	-399.309792	-399.29994	-399.298996	-399.344804	35.87	
C	-0.0308692863	 1.6331659133	 0.0959801894	-0.408073
C	-0.0578497962	 0.0951210171	-0.0043533177	-0.162735
C	-1.4364317974	-0.4027961317	-0.0028641779	 0.258215
N	-2.5215324154	-0.8001933368	-0.0414649475	-0.324602
C	 0.693183375	-0.4734517193	-1.2565615089	-0.005596
N	 0.1171426325	-0.0956755729	-2.5434525642	-0.525671
C	 2.1744176409	-0.1058270361	-1.187323096	 0.021887
C	 3.0817334948	-0.408948037	-2.3156247003	-0.247993
N	 2.7410037436	 0.9903499677	-1.9893798444	-0.322591
H	 1.0011696597	 1.991300984	 0.0900134175	 0.156144
H	-0.5652570371	 2.0974630717	-0.7381099704	 0.129258
H	-0.513578105	 1.9663508197	 1.017494997	 0.141354
H	 0.435557535	-0.3179279044	 0.884885354	 0.129237
H	 0.6242876621	-1.5657245121	-1.1883272641	 0.108845
H	-0.7186801973	-0.6395413673	-2.7285818801	 0.253692
H	-0.1684028593	 0.8785762787	-2.5475253423	 0.235747
H	 2.5886392733	-0.1543043481	-0.1813127116	 0.088872
H	 4.1124331672	-0.6913589792	-2.122590868	 0.117125
H	 2.6332097921	-0.8382614831	-3.2066098645	 0.126377
H	 2.0437012777	 1.2924797858	-2.6671916501	 0.230509
63.6826	74.034	129.929	199.1308	209.872	249.3805	257.0163	292.4808	309.4011	358.1297	428.6494	561.7008	621.3449	655.0175	774.762	792.5439	851.8775	866.5268	898.0689	951.6075	987.1801	1007.25	1020.8251	1075.9372	1106.1363	1121.0695	1139.6577	1155.0928	1188.5256	1231.0312	1272.0748	1297.7737	1306.8522	1313.0613	1353.5211	1413.1952	1417.7665	1424.3975	1491.6218	1496.3052	1505.9991	1665.6709	2352.1318	3029.6455	3040.2042	3051.8246	3113.6642	3117.7203	3121.595	3138.8638	3207.1279	3488.7781	3507.6564	3586.0267
CC(C#N)C(N)C1CN1	C[C@@H](C#N)[C@@H](N)[C@H]1CN1	
InChI=1S/C6H11N3/c1-4(2-7)6(8)5-3-9-5/h4-6,9H,3,8H2,1H3	InChI=1S/C6H11N3/c1-4(2-7)6(8)5-3-9-5/h4-6,9H,3,8H2,1H3/t4-,5+,6+/m0/s1
