20
gdb 111657	2.18724	1.59279	1.22713	2.8819	79.29	-0.2272	-0.0217	0.2055	1123.2532	0.171337	-403.151729	-403.143159	-403.142215	-403.185437	32.446	
C	 0.4350698713	 1.2930491634	-0.265960949	-0.377622
C	-0.2744014256	 0.0226298619	 0.196534553	-0.135562
N	 0.4904120018	-0.6220029034	 1.2633591748	-0.080177
C	 0.4596189018	-2.03344149	 1.5516766335	-0.034686
C	-0.0814735043	-3.0091546635	 0.5036355755	-0.247755
C	 0.8022081506	-2.8335801101	-0.7508135363	-0.336877
C	 1.9799600821	-1.9397875919	-0.3364076406	 0.415233
O	 2.9782892819	-1.7530639191	-0.9880892412	-0.330125
C	 1.7222448262	-1.3882120025	 1.0392237571	-0.158234
H	 1.3990657736	 1.0569539427	-0.7273439902	 0.137279
H	-0.1736237044	 1.8232587981	-1.0042917281	 0.114976
H	 0.6172969964	 1.9599950061	 0.581113486	 0.128912
H	-1.2477954251	 0.2762152052	 0.633149802	 0.109584
H	-0.4823693246	-0.6218388418	-0.6696849569	 0.090872
H	 0.3445103109	-2.2916250965	 2.601711385	 0.098575
H	 0.0002326077	-4.0269835339	 0.8960152945	 0.114944
H	-1.1431019454	-2.8337123544	 0.3019902992	 0.113504
H	 1.2058781784	-3.7816830179	-1.1170760365	 0.135288
H	 0.2799947558	-2.3758781308	-1.5981627878	 0.136303
H	 2.5797947608	-1.1093750917	 1.6439802358	 0.10557
55.4634	83.9615	166.9979	217.851	246.568	294.9086	409.2223	447.9108	487.3269	581.6962	612.801	674.367	736.6071	791.3532	810.3254	821.1858	856.1741	930.1691	946.9841	988.1788	1035.246	1039.5305	1080.2406	1101.6144	1125.477	1165.6375	1171.5978	1194.9465	1243.8073	1265.7391	1283.8238	1297.3039	1325.3005	1332.322	1378.3713	1397.9096	1412.5831	1452.2681	1490.8196	1495.9388	1499.3269	1518.5191	1824.3934	3000.1998	3042.9514	3048.1072	3048.7103	3055.7219	3083.6032	3102.7984	3115.2255	3122.8164	3134.6204	3160.8719
CCN1C2CCC(=O)C12	CCN1[C@H]2CCC(=O)[C@@H]12	
InChI=1S/C7H11NO/c1-2-8-5-3-4-6(9)7(5)8/h5,7H,2-4H2,1H3	InChI=1S/C7H11NO/c1-2-8-5-3-4-6(9)7(5)8/h5,7H,2-4H2,1H3/t5-,7-,8?/m0/s1
