19
gdb 60984	2.05622	1.33306	0.92536	3.0534	82.26	-0.243	-0.0193	0.2237	1303.6255	0.155816	-385.854791	-385.844822	-385.843878	-385.890719	35.831	
C	 0.0736802203	 1.3824270983	-0.2500648881	-0.407231
C	 0.0709654534	-0.1134190612	 0.1281080857	-0.090105
C	 0.7289032857	-0.2593693005	 1.4918604638	 0.171196
O	 1.8806221107	-0.5535220465	 1.672821058	-0.248557
C	-1.3396735953	-0.6699832647	 0.1505474288	-0.00346
C	-2.0065226678	-1.1316553428	-1.1119692302	-0.308007
C	-1.6168757187	-2.1572167953	-0.056495345	-0.203582
C	-0.549520314	-3.081302338	-0.3058275087	 0.323898
C	 0.3439317196	-3.8621365538	-0.5042487818	-0.455133
H	 1.0959520646	 1.7656321642	-0.3097332945	 0.134845
H	-0.4116084199	 1.527861478	-1.2194427795	 0.127983
H	-0.4714427722	 1.9799111689	 0.4897236697	 0.119745
H	 0.6864990832	-0.6706579158	-0.5841269853	 0.109432
H	 0.0536082936	-0.0285490539	 2.3519896016	 0.065637
H	-1.990510056	-0.1952948533	 0.8819743975	 0.09441
H	-3.0628615462	-0.9324994902	-1.252693539	 0.121976
H	-1.4187262544	-1.1281385168	-2.0231834806	 0.130648
H	-2.4354208519	-2.5628844668	 0.5310495768	 0.116025
H	 1.1364192954	-4.54795706	-0.6742192392	 0.200279
40.9907	47.6516	104.7993	166.1292	224.0177	228.7201	258.7697	285.5161	384.3327	411.0018	507.5011	532.9433	587.4538	627.325	658.3542	776.8125	806.6369	857.7861	896.9567	930.4928	959.1	991.0282	1017.5859	1073.3696	1098.2847	1127.3722	1135.2016	1155.5069	1189.6423	1230.7995	1278.7322	1304.6581	1376.1103	1399.8945	1423.8137	1429.3471	1486.3006	1496.0801	1499.5825	1838.9311	2236.7252	2832.6596	3033.6	3075.5092	3104.0706	3121.2527	3128.1517	3137.6995	3147.4334	3227.6224	3504.9379
CC(C=O)C1CC1C#C	C[C@@H](C=O)[C@H]1C[C@H]1C#C	
InChI=1S/C8H10O/c1-3-7-4-8(7)6(2)5-9/h1,5-8H,4H2,2H3	InChI=1S/C8H10O/c1-3-7-4-8(7)6(2)5-9/h1,5-8H,4H2,2H3/t6-,7+,8+/m0/s1
