21
gdb 94469	2.82412	1.25958	1.15564	2.25	77.53	-0.2424	0.0716	0.3139	1171.9108	0.183622	-424.216738	-424.208115	-424.207171	-424.250561	32.944	
O	 0.8328425869	 0.8167470719	-0.4162163954	-0.428156
C	 0.222024777	-0.2451788588	 0.2683574697	 0.093335
C	-0.2718325985	-0.0731750268	 1.7266553106	-0.269996
C	-1.4579353183	-1.0114577103	 1.3768739559	-0.278972
C	-1.2058800567	-0.7274067742	-0.1364321922	 0.28053
C	-2.13177352	 0.3478429708	-0.7303744422	-0.298781
C	-3.2178366403	-0.5107363568	-1.3798330946	-0.070471
O	-2.5328366155	-1.6307949081	-1.9223842193	-0.259015
C	-1.3505495484	-1.8680474911	-1.1564090336	-0.140511
H	 0.2855180514	 1.6011689916	-0.3041129956	 0.281394
H	 0.9286966779	-1.0795181965	 0.1977611502	 0.092103
H	 0.4035924544	-0.3618497756	 2.5347318193	 0.103808
H	-0.6103457942	 0.953341672	 1.9058628999	 0.095051
H	-1.2479003405	-2.0531753818	 1.6353173416	 0.103836
H	-2.4417029977	-0.7477049212	 1.7732128065	 0.101084
H	-2.5267283118	 1.0483737215	 0.0113283766	 0.096097
H	-1.5978142343	 0.9163464013	-1.5008915391	 0.108012
H	-3.9615025573	-0.8295191009	-0.6302884166	 0.08697
H	-3.7504010576	-0.0089823961	-2.1934810972	 0.106028
H	-0.4940290219	-1.8932431437	-1.843910731	 0.105001
H	-1.4151469647	-2.8464697072	-0.6602860734	 0.092653
39.7203	122.9275	178.4392	197.2854	246.3711	317.8525	365.4944	389.1813	475.9812	564.5973	631.3747	676.1972	759.8316	796.2826	875.0773	898.3701	913.0932	936.6609	949.9333	971.3227	977.3318	1028.3278	1067.4601	1091.2917	1131.5398	1156.9723	1168.1356	1174.8222	1211.3345	1228.2724	1238.0727	1248.0331	1251.4348	1281.5025	1306.4169	1314.2482	1325.2782	1365.0484	1406.5114	1436.4724	1480.0883	1488.0622	1499.3182	1515.5582	1528.233	2962.2632	2996.9834	3029.701	3035.2913	3044.3687	3053.0412	3056.5612	3077.2308	3091.6387	3102.3787	3115.5	3810.1558
OC1CCC11CCOC1	O[C@H]1CC[C@]21CCOC2	
InChI=1S/C7H12O2/c8-6-1-2-7(6)3-4-9-5-7/h6,8H,1-5H2	InChI=1S/C7H12O2/c8-6-1-2-7(6)3-4-9-5-7/h6,8H,1-5H2/t6-,7-/m0/s1
