15
gdb 99428	1.69512	1.47011	1.2937	1.7457	78.53	-0.262	0.0253	0.2873	1132.0228	0.106555	-383.357212	-383.346813	-383.345869	-383.392367	37.099	
O	-0.008400184	 1.4169458107	 0.0091852307	-0.4086
C	 0.0178435732	 0.010855692	 0.0018328483	-0.081844
C	-1.4585893744	-0.5001426876	 0.0132725638	-0.327495
C	-1.4144997015	-1.9746442219	 0.0050644038	 0.316117
C	-1.3340900695	-3.1719449869	-0.002141076	-0.438409
C	-2.1419863205	-0.0283471354	 1.2315652987	 0.37626
C	-2.6854029899	 0.3426777536	 2.2346186191	-0.466702
C	-2.1651446429	-0.0155638182	-1.1866515658	 0.376274
C	-2.727651167	 0.366123593	-2.1750722214	-0.466687
H	 0.8984924145	 1.7361119844	 0.0051411875	 0.29604
H	 0.4984723543	-0.3961901645	-0.8983031347	 0.110055
H	 0.515420252	-0.4052513615	 0.888494789	 0.110068
H	-1.2838154406	-4.2329120757	-0.0084383833	 0.202016
H	-3.1745634824	 0.6762125085	 3.116290838	 0.201451
H	-3.2335173113	 0.7095035093	-3.0434379079	 0.201456
96.8472	113.1773	115.1113	132.065	139.8723	164.7184	219.9967	333.72	337.2521	458.7785	491.6692	546.5988	548.1583	568.3636	639.9245	640.688	648.3585	650.3876	650.4093	655.2293	674.7933	942.7788	1028.7977	1080.462	1118.9128	1157.2967	1255.9714	1282.1372	1442.0166	1510.5165	2243.4502	2244.6416	2251.5743	2998.0908	3044.4095	3501.0004	3501.855	3502.679	3839.3267
OCC(C#C)(C#C)C#C	OCC(C#C)(C#C)C#C	
InChI=1S/C8H6O/c1-4-8(5-2,6-3)7-9/h1-3,9H,7H2	InChI=1S/C8H6O/c1-4-8(5-2,6-3)7-9/h1-3,9H,7H2
