18
gdb 78336	2.90832	1.36808	1.07102	4.067	78.18	-0.2404	-0.0076	0.2328	1169.1488	0.146974	-401.92193	-401.913652	-401.912707	-401.954674	31.467	
C	-0.1204226983	 1.4240596256	 0.0008427296	-0.41641
C	 0.0478788608	-0.0686906037	-0.1200948935	 0.004218
C	 0.8362644326	-0.6682980236	-1.209810925	-0.148356
N	 1.4296843973	-0.5642711632	 0.2054132277	-0.201473
C	 1.3308719739	-2.0196169141	 0.2888946336	 0.34816
O	 1.6448631543	-2.7497175207	 1.1781346433	-0.316923
C	 0.8252879786	-2.1777795426	-1.1211173181	 0.230618
C	-0.114948329	-3.216290224	-1.6765707668	-0.315857
C	 1.3228395804	-3.2027395125	-2.1072960445	-0.327056
H	 0.7463160706	 1.9469006614	-0.4113916134	 0.133285
H	-1.0172051419	 1.7503646108	-0.5363969695	 0.123189
H	-0.2245159756	 1.7141895806	 1.0503452631	 0.137424
H	-0.7782562821	-0.6588845598	 0.2748751926	 0.105117
H	 1.2764873021	-0.0880782601	-2.0127884191	 0.112272
H	-0.4397499211	-3.99466277	-0.9944860634	 0.137564
H	-0.866855939	-2.8800590252	-2.3823420611	 0.125008
H	 1.5563297121	-2.8544736631	-3.1077718241	 0.127353
H	 1.9872541645	-3.9685605058	-1.7222629814	 0.141867
115.7036	160.8562	186.7006	198.9831	220.7632	262.0345	360.9516	430.4322	503.1801	638.3364	670.7844	745.9888	762.6401	787.6221	826.4572	905.6328	925.9682	946.5355	964.0655	993.2191	1015.211	1031.6094	1062.6924	1084.216	1091.0229	1144.7883	1154.078	1196.4358	1216.2815	1249.5666	1286.1428	1386.6045	1412.3866	1439.5855	1457.7196	1487.3314	1494.6254	1495.6813	1908.0588	3041.4029	3109.1976	3112.0771	3130.627	3133.5205	3135.6517	3182.8946	3216.7225	3231.0051
CC1C2N1C(=O)C21CC1	C[C@H]1[C@H]2N1C(=O)C12CC1	
InChI=1S/C7H9NO/c1-4-5-7(2-3-7)6(9)8(4)5/h4-5H,2-3H2,1H3	InChI=1S/C7H9NO/c1-4-5-7(2-3-7)6(9)8(4)5/h4-5H,2-3H2,1H3/t4-,5+,8?/m0/s1
