20
gdb 30154	3.47101	1.26939	0.9863	2.0344	88.46	-0.1903	0.0557	0.246	1254.2116	0.171593	-366.028982	-366.020178	-366.019234	-366.062994	32.883	
C	-0.3740013778	 1.6179412034	-0.3117795949	-0.398514
C	 0.0418267586	 0.188152254	-0.0160060966	 0.060054
C	 0.7900943068	-0.6202964297	-1.1515068017	-0.409779
C	 1.9314233379	-0.7180951246	-0.1533913482	 0.279266
C	 3.1003784029	-1.2122850053	 0.3828050712	 0.073328
C	 4.1409422068	-2.0769481191	-0.2628470407	-0.500736
C	 3.1112211473	-0.7015108871	 1.7270008658	-0.210135
C	 1.9653283705	 0.0422895061	 1.9628932011	-0.166394
N	 1.2805129052	 0.0323108857	 0.7797170588	 0.011313
H	 0.455275395	 2.1807584191	-0.7505729442	 0.129868
H	-1.2136794475	 1.6282264412	-1.0145614256	 0.123399
H	-0.693170994	 2.1315275655	 0.600927411	 0.125643
H	-0.7909398091	-0.3770065508	 0.4174756649	 0.096726
H	 0.3056172784	-1.5605959206	-1.4295057903	 0.117524
H	 0.9819422214	-0.039788968	-2.059511643	 0.113284
H	 5.0989611197	-1.5546323949	-0.3766151922	 0.121413
H	 4.3394903919	-2.9810020637	 0.3246060684	 0.120975
H	 3.8243153621	-2.3960463738	-1.2603673281	 0.113585
H	 3.9053109306	-0.8552111417	 2.4446823458	 0.085744
H	 1.6355489032	 0.579866644	 2.8369838283	 0.113436
51.4827	74.2142	158.8302	211.9103	252.8803	266.1499	309.1563	421.6734	514.7128	606.2549	621.7019	658.9372	693.955	699.7575	755.9651	790.974	875.7615	914.4437	964.9551	979.6348	1057.5387	1063.2352	1069.6409	1090.4534	1109.2203	1152.7718	1179.7597	1219.6191	1238.2451	1262.4816	1324.1281	1366.8781	1406.7139	1410.6604	1418.4532	1434.9363	1473.6114	1485.0135	1487.127	1492.8875	1497.2747	1504.0509	1632.887	3019.7361	3035.4304	3042.4184	3048.2118	3066.0875	3093.722	3099.9952	3105.8232	3116.65	3225.6521	3265.9596
CC1CC2=C(C)C=CN12	C[C@H]1Cc2c(C)ccn12	
InChI=1S/C8H11N/c1-6-3-4-9-7(2)5-8(6)9/h3-4,7H,5H2,1-2H3	InChI=1S/C8H11N/c1-6-3-4-9-7(2)5-8(6)9/h3-4,7H,5H2,1-2H3/t7-/m0/s1
