18
gdb 27281	3.04071	1.63294	1.0887	2.7224	79.87	-0.1767	0.0528	0.2295	1103.3571	0.149774	-401.982199	-401.974228	-401.973284	-402.01497	29.84	
C	 0.0569682651	 1.5286084657	 0.0105777261	-0.507906
C	 0.022796893	 0.0310903373	-0.0021042798	 0.078719
C	 0.1047410894	-0.8030934234	-1.0851436272	 0.364701
O	 0.3269982923	-0.6794734879	-2.4251852202	-0.284616
C	 0.1177636491	-1.9917541538	-2.9808829116	-0.101622
C	 0.314082598	-2.9905640359	-1.8093148952	-0.202167
N	 0.0141405892	-2.1097970455	-0.70165901	-0.039797
C	-0.0887919383	-2.1661000147	 0.6751506181	-0.155727
C	-0.1047684761	-0.8653672598	 1.1196584296	-0.215867
H	 0.9036877713	 1.9140923865	 0.5914143652	 0.12057
H	 0.1490320408	 1.923113094	-1.0052618509	 0.125461
H	-0.8528943197	 1.9560817864	 0.4490613602	 0.119907
H	-0.9056425144	-2.0548467924	-3.3706101709	 0.119884
H	 0.8258475832	-2.1351144758	-3.7984929564	 0.126021
H	-0.3736136239	-3.8380236803	-1.8757876216	 0.12608
H	 1.3413937897	-3.374373996	-1.7559910238	 0.12315
H	-0.1854487164	-3.1029139829	 1.1979388379	 0.113623
H	-0.2224836624	-0.5603471513	 2.1496593803	 0.089586
85.5556	114.2166	166.5506	228.7354	236.1741	307.9338	496.1949	594.836	596.0153	631.0758	638.7902	688.0464	758.1571	791.3871	800.1876	881.9723	948.1274	979.3837	1017.3323	1063.7647	1069.6803	1097.2448	1136.0748	1184.1065	1208.3838	1238.7077	1254.4084	1310.0964	1347.4382	1379.0239	1417.2021	1418.8006	1480.6353	1486.2829	1501.1052	1511.3418	1515.3882	1535.4606	1675.0899	3015.0769	3019.1135	3030.9836	3063.1237	3086.6302	3106.966	3123.1906	3233.2212	3273.935
CC1=C2OCCN2C=C1	Cc1c2OCCn2cc1	
InChI=1S/C7H9NO/c1-6-2-3-8-4-5-9-7(6)8/h2-3H,4-5H2,1H3	InChI=1S/C7H9NO/c1-6-2-3-8-4-5-9-7(6)8/h2-3H,4-5H2,1H3
