17
gdb 38081	2.46203	1.7926	1.55334	2.712	78.61	-0.2092	-0.0475	0.1617	943.469	0.138274	-384.701605	-384.69455	-384.693605	-384.73294	28.209	
C	 0.1173537839	 1.4571015578	 0.3437452512	-0.249577
C	 1.6409310714	 1.4952358629	-0.0247184842	-0.178575
C	 1.904115568	 1.9947278837	-1.4301500647	-0.088504
C	 1.2628534787	 1.5906776269	-2.5365633225	-0.072081
C	 0.1988547138	 0.5857044861	-2.6329058341	-0.072072
C	-0.3420304969	-0.1265409961	-1.6335147145	-0.088516
O	 2.3531867887	-0.9040085933	 0.2734998673	-0.309421
C	 1.5623017677	-0.0426573539	 0.0254345627	 0.426098
C	 0.0341844615	-0.0218939718	-0.1701137568	-0.178565
H	-0.0307888148	 1.5104753887	 1.4236036672	 0.116415
H	-0.5191933685	 2.1800696185	-0.1654018018	 0.118698
H	 2.3214794049	 1.955590188	 0.6929602452	 0.090729
H	 2.6772821114	 2.7504993946	-1.5277042053	 0.102911
H	 1.5527556634	 2.0492679706	-3.4779808473	 0.094413
H	-0.1823690402	 0.4101396138	-3.6351342254	 0.094413
H	-1.1244680115	-0.840267931	-1.8720099871	 0.102913
H	-0.5277995615	-0.7346896654	 0.4350532801	 0.090722
125.1025	147.2471	270.3518	337.0002	414.2292	431.3576	485.1347	608.2146	655.4473	684.8142	770.5757	790.2496	801.6345	835.0336	850.7377	919.7743	936.0009	945.1466	991.1141	997.5229	1040.2748	1049.9486	1079.2067	1113.9388	1149.178	1219.0436	1220.879	1249.2713	1258.0363	1300.3559	1333.1534	1400.2201	1438.9052	1477.4637	1662.2182	1697.549	1893.0148	3080.2102	3101.8432	3103.6887	3150.286	3152.2654	3163.0563	3178.9979	3185.5311
C1C2C=CC3C4OC23C14	C1[C@@H]2C=CC=C[C@H]1C2=O	
InChI=1S/C8H8O/c1-2-5-7-6-3-4(1)8(5,6)9-7/h1-2,4-7H,3H2	InChI=1S/C8H8O/c9-8-6-3-1-2-4-7(8)5-6/h1-4,6-7H,5H2/t6-,7+
