20
gdb 99216	4.81552	0.68436	0.60907	1.5928	78.05	-0.2461	-0.0107	0.2353	1856.6307	0.167278	-440.317798	-440.306876	-440.305932	-440.356153	36.962	
C	-0.1759728619	 1.5009887437	 0.0073934436	-0.377551
C	 0.1441073018	 0.0083348296	 0.0354785253	-0.284831
C	 0.7794342485	-0.4459064662	 1.3441344569	 0.347781
O	 1.130552336	 0.3237721397	 2.203640602	-0.281603
C	 0.9308079978	-1.9563939353	 1.4785213192	-0.151295
O	 1.6524581914	-2.2541912053	 2.6586039542	-0.2172
C	 1.8118197521	-3.5632318969	 2.9510455001	 0.398816
C	 2.594326202	-3.7105919268	 4.229688242	-0.460417
N	 1.3349213189	-4.4661122786	 2.1958574954	-0.522782
H	 0.7238391077	 2.0928587682	 0.1901182334	 0.136476
H	-0.593460587	 1.7885523316	-0.9613049487	 0.111185
H	-0.8986921788	 1.7607086696	 0.7855171271	 0.129673
H	-0.7527009628	-0.5988278437	-0.1476256974	 0.12075
H	 0.8380434274	-0.2587351182	-0.7744838582	 0.127356
H	-0.0618280337	-2.4255705128	 1.5023905081	 0.140338
H	 1.4360125651	-2.3714161599	 0.5967495283	 0.13298
H	 2.0751844201	-3.202531778	 5.0477693768	 0.152468
H	 2.7299959141	-4.7622179404	 4.4864402383	 0.125812
H	 3.5742411478	-3.2350177991	 4.1265026344	 0.15096
H	 1.5451241535	-5.3898273111	 2.5665772292	 0.221081
26.579	48.9063	54.155	106.0245	109.3735	173.9655	197.8955	243.9335	278.3284	333.7156	467.8108	472.0984	574.3331	603.7232	655.7565	743.7825	828.6254	856.1359	927.9232	945.2404	976.3206	1008.4066	1039.2245	1068.9451	1096.6063	1114.9316	1125.8016	1151.6253	1242.4943	1289.482	1348.2271	1373.1826	1393.6175	1414.9618	1424.2884	1452.5042	1470.3933	1480.3104	1483.6868	1493.4992	1499.2366	1725.9018	1829.4722	3013.6403	3026.0462	3042.5992	3050.9614	3052.9102	3056.7802	3115.3361	3122.6387	3131.6078	3145.7253	3517.083
CCC(=O)COC(C)=N	CCC(=O)CO[C](C)[NH]	
InChI=1S/C6H11NO2/c1-3-6(8)4-9-5(2)7/h7H,3-4H2,1-2H3	InChI=1S/C6H11NO2/c1-3-6(8)4-9-5(2)7/h7H,3-4H2,1-2H3
