17
gdb 126981	3.25785	1.08952	0.82917	4.243	73.72	-0.2301	-0.0186	0.2115	1373.3259	0.133349	-455.129996	-455.120531	-455.119586	-455.16554	32.491	
C	-0.0270688927	 1.4914674044	 0.0517669044	-0.39246
C	 0.0381099011	-0.0216141212	 0.0194842155	-0.063402
O	-1.3231929686	-0.5108376806	 0.0205081245	-0.268334
C	-1.5005354591	-1.8223992442	-0.0052350944	 0.452075
C	-2.6874445596	-2.5189298719	-0.0109033737	 0.114576
C	-4.0932739211	-2.024355548	 0.0093794681	-0.498468
N	-2.3256578416	-3.8367025442	-0.0405193386	-0.138049
N	-1.0903863892	-4.0159070668	-0.0531644143	-0.047548
O	-0.4726051308	-2.6464885134	-0.0295854739	-0.249291
H	 0.9865752939	 1.9021314644	 0.0514722309	 0.131261
H	-0.5571887841	 1.8767329642	-0.8232945527	 0.137142
H	-0.5416464254	 1.8396154172	 0.9513162229	 0.137141
H	 0.5445834541	-0.3898818433	-0.8786590504	 0.131989
H	 0.5593272347	-0.427078564	 0.8928073029	 0.132033
H	-4.6481041762	-2.3481571108	-0.8772533887	 0.141783
H	-4.6357137353	-2.3855593157	 0.8891984268	 0.1418
H	-4.0990822303	-0.9318708461	 0.0325437906	 0.137754
56.2985	65.1291	77.3185	124.8359	240.2571	248.8545	269.541	324.2134	333.2517	416.0784	550.384	645.5524	669.2035	740.63	791.4338	815.0976	913.5112	978.1178	1006.8656	1053.469	1070.0412	1129.9262	1179.4747	1245.1417	1288.0195	1296.6553	1391.2138	1413.1616	1419.6786	1465.7406	1473.4459	1481.1485	1483.9523	1497.148	1498.6936	1520.9838	1656.2129	3038.6008	3046.1993	3050.7955	3089.0489	3093.0295	3126.0499	3126.983	3131.8895
CCOC1=C(C)N=NO1	CCOc1c(C)nno1	
InChI=1S/C5H8N2O2/c1-3-8-5-4(2)6-7-9-5/h3H2,1-2H3	InChI=1S/C5H8N2O2/c1-3-8-5-4(2)6-7-9-5/h3H2,1-2H3
