21
gdb 38409	3.59439	1.32551	1.22016	0.2238	86.42	-0.2346	0.0299	0.2644	1112.5796	0.184486	-349.936789	-349.929294	-349.92835	-349.968548	30.997	
C	-0.1707216293	 1.3241817794	 0.1315007013	-0.291174
C	 1.1488553995	 0.7054282597	-0.2298744819	-0.032763
C	 1.8777573631	 0.2508603361	 1.0403064245	-0.318483
C	 0.6736365453	-0.6895736053	 1.3890959425	 0.370442
C	 0.9802804346	-2.2069647329	 1.2999852999	-0.326487
C	-0.0588940135	-2.8273184832	 2.2025161532	-0.066021
C	-0.6336007538	-1.9163195719	 2.986234608	-0.057827
C	-0.0830106238	-0.533338223	 2.7315779611	-0.329814
C	-0.0485813194	-0.1743665069	 0.1249278529	-0.082334
H	-0.2837161742	 1.8736123048	 1.063972745	 0.103013
H	-0.7348205023	 1.7427434913	-0.6962423788	 0.108022
H	 1.6133353967	 0.8692173146	-1.1946393033	 0.080837
H	 2.7927459815	-0.3133663362	 0.8416441494	 0.098556
H	 2.1071349989	 1.0416390155	 1.7639804085	 0.088228
H	 0.9441179898	-2.5744347921	 0.2673954697	 0.10017
H	 1.9925109128	-2.4307702029	 1.6698847561	 0.099728
H	-0.2603084074	-3.8928301702	 2.2219765079	 0.087396
H	-1.3815508373	-2.121167373	 3.7445937335	 0.087559
H	 0.5983180089	-0.2322602052	 3.5420733284	 0.100397
H	-0.8586782438	 0.2391186684	 2.6807234896	 0.100894
H	-0.6617070563	-0.791293227	-0.5230659476	 0.079663
95.608	162.9	228.2008	345.5762	378.5254	399.5086	445.2537	496.3499	676.7047	731.8702	763.5803	780.0975	791.0133	838.0774	866.5489	921.111	929.8903	951.0248	972.7889	977.4067	980.7509	985.101	998.0486	1033.871	1064.2783	1083.2217	1094.1387	1108.7034	1134.2926	1142.2736	1164.015	1192.6498	1229.8411	1243.4576	1254.4229	1289.371	1308.7289	1335.5247	1359.2386	1367.134	1478.4527	1479.3125	1487.964	1494.4407	1685.7385	2990.5302	2992.0439	3031.8536	3045.5903	3052.8287	3093.6857	3101.7054	3164.9337	3178.5816	3180.5849	3196.2831	3204.3988
C1C2CC3(CC=CC3)C12	C1[C@H]2C[C@]3(CC=CC3)[C@@H]12	
InChI=1S/C9H12/c1-2-4-9(3-1)6-7-5-8(7)9/h1-2,7-8H,3-6H2	InChI=1S/C9H12/c1-2-4-9(3-1)6-7-5-8(7)9/h1-2,7-8H,3-6H2/t7-,8-/m0/s1
