21
gdb 119315	2.3682	1.21679	0.95594	2.6607	80.06	-0.2338	-0.0229	0.211	1340.5611	0.180118	-424.219699	-424.209889	-424.208945	-424.254812	35.663	
C	 0.0638358184	 1.6356888978	 0.0728164541	-0.381707
C	-0.0170279172	 0.1196650702	 0.0238423548	-0.067493
O	 0.7963855025	-0.3207102609	-1.0628801222	-0.29853
C	 0.7651893262	-1.6849086056	-1.3458755715	 0.33192
C	-0.5838615501	-2.3190030983	-1.8516481125	-0.28608
C	 0.1917158542	-2.9756838151	-3.0229823185	-0.221057
C	 1.3793292789	-2.0202430803	-2.7417122059	-0.2739
C	 1.4076090499	-2.5491082242	-0.2770166343	 0.132657
O	 1.9116118523	-2.1461657228	 0.7390703062	-0.268683
H	 1.0969596628	 1.9566932374	 0.2322163183	 0.131567
H	-0.2909838069	 2.073690445	-0.8647069577	 0.119825
H	-0.5496802979	 2.0218640534	 0.8923600056	 0.114144
H	 0.3361514823	-0.3193829788	 0.9627271213	 0.122324
H	-1.0579396827	-0.2036258897	-0.134042572	 0.084227
H	-1.1332262415	-2.9728344113	-1.1699078308	 0.106043
H	-1.2466506787	-1.5203269653	-2.1923704348	 0.121131
H	 0.4408647268	-4.02093597	-2.8220659779	 0.111104
H	-0.265930615	-2.918207424	-4.0120962963	 0.109462
H	 1.3469146048	-1.1152634925	-3.3513570129	 0.126407
H	 2.3915649259	-2.4306465927	-2.7635160258	 0.110607
H	 1.389346095	-3.6397068025	-0.5157427572	 0.076032
56.0642	113.0934	125.6439	138.5555	171.6435	241.8289	258.9155	299.9294	353.1914	385.134	452.3641	530.706	676.3641	782.094	809.8395	824.8042	832.4944	884.733	923.5165	928.5445	943.5726	984.7382	1051.2746	1069.4264	1091.677	1137.7198	1163.8732	1185.7808	1209.9846	1215.661	1245.855	1273.5439	1275.6106	1299.0513	1318.8113	1400.8099	1421.1639	1438.1854	1465.3292	1482.2251	1483.5565	1502.1761	1504.9401	1526.7369	1830.8102	2841.977	2983.2822	3044.3305	3062.828	3066.3588	3069.8848	3071.468	3109.2675	3118.5595	3123.1278	3124.5997	3135.0995
CCOC1(CCC1)C=O	CCOC1(CCC1)C=O	
InChI=1S/C7H12O2/c1-2-9-7(6-8)4-3-5-7/h6H,2-5H2,1H3	InChI=1S/C7H12O2/c1-2-9-7(6-8)4-3-5-7/h6H,2-5H2,1H3
