19
gdb 65731	3.49445	1.11803	1.01258	3.2899	75.27	-0.2427	-0.0192	0.2235	1219.2573	0.157514	-423.003528	-422.994668	-422.993724	-423.037626	33.267	
O	 0.0717412751	 1.4348400393	-0.127989802	-0.485803
C	-0.0106524724	 0.0291159399	 0.0072075433	 0.395642
C	 0.9135799824	-0.5473660039	-1.0761001368	-0.307332
C	 2.3421690743	-0.0918380576	-0.8639003669	 0.153215
O	 3.1990120021	-0.7855609187	-0.3742221044	-0.247996
C	 0.2513893952	-0.6052172242	 1.4263513634	-0.311161
C	-1.113893058	-1.2956808657	 1.3354464014	-0.02567
C	-2.1872335099	-0.2564368032	 1.2263234004	-0.309477
C	-1.4009155073	-0.6167822125	-0.008191718	-0.094556
H	-0.5880994432	 1.8323936683	 0.4491898558	 0.28097
H	 0.8823355025	-1.6390168843	-1.0460308194	 0.121958
H	 0.5567564629	-0.1945098739	-2.0510455729	 0.1142
H	 2.5547124676	 0.9542994335	-1.1680827472	 0.095719
H	 1.1123072491	-1.2758739389	 1.4317271137	 0.130243
H	 0.361776133	 0.1144094357	 2.2443098358	 0.095576
H	-1.3239326554	-2.3166715729	 1.6260508183	 0.092909
H	-3.2104827578	-0.617542675	 1.2286173691	 0.120356
H	-2.0681207436	 0.7064479871	 1.7223894833	 0.094783
H	-1.8893677064	-1.0114432432	-0.8921478369	 0.086427
48.175	82.7294	157.1147	202.6994	248.536	307.7373	361.4868	396.8923	427.9604	514.2747	539.6937	639.1369	757.6509	790.5043	840.6975	878.3517	912.4431	922.1204	950.2819	977.3224	998.7873	1019.6285	1032.4209	1062.6751	1084.3104	1101.503	1115.7924	1142.6151	1164.0726	1203.712	1246.2863	1274.6549	1288.777	1295.9548	1347.6558	1392.9214	1422.7824	1463.5906	1485.0052	1500.3398	1821.5556	2916.3523	3041.2372	3049.6484	3089.859	3116.4973	3124.1422	3171.0342	3190.3543	3203.1042	3817.7729
OC1(CC=O)CC2CC12	O[C@@]1(CC=O)C[C@H]2C[C@@H]12	
InChI=1S/C7H10O2/c8-2-1-7(9)4-5-3-6(5)7/h2,5-6,9H,1,3-4H2	InChI=1S/C7H10O2/c8-2-1-7(9)4-5-3-6(5)7/h2,5-6,9H,1,3-4H2/t5-,6-,7+/m1/s1
