17
gdb 67199	2.89226	1.55081	1.24844	4.7331	76.43	-0.2575	0.0191	0.2766	1032.4724	0.13669	-380.821799	-380.814179	-380.813235	-380.853826	29.371	
C	-0.0694895881	 1.5518744466	-0.0759596716	-0.533029
C	 0.0943461026	 0.0748744389	 0.0148629682	 0.351108
C	 0.6607727358	-0.976537317	-0.8635846276	-0.083587
C	 1.3801239408	-1.6627297714	 0.2926240682	-0.262248
C	 0.3513375441	-0.9465831931	 1.203767378	-0.118392
C	-0.9715793777	-1.6066082632	 0.7501621699	-0.114324
C	-2.1582989022	-1.1170806891	 1.4438218132	 0.296751
N	-3.0817820271	-0.7351772389	 2.0241836727	-0.326167
N	-0.8297132058	-0.9366595437	-0.5895227577	-0.174675
H	 0.854580922	 2.0696416465	 0.2024410759	 0.127769
H	-0.3269208217	 1.8332867275	-1.1014738031	 0.142137
H	-0.8702968045	 1.9013523489	 0.5837476653	 0.146765
H	 0.9355107164	-0.9264097887	-1.9090689952	 0.109683
H	 1.4185817707	-2.7565647381	 0.3302576932	 0.104464
H	 2.3849624202	-1.2529957017	 0.4206559306	 0.11799
H	 0.5571337011	-0.7301115447	 2.2492801995	 0.098727
H	-0.9988638166	-2.702134669	 0.7165435407	 0.117029
103.3308	163.9371	206.9057	245.4423	285.0338	389.1562	467.1186	504.0332	535.5732	614.8161	728.6461	784.4461	833.6963	847.3922	897.4033	912.3288	953.7248	976.305	995.6333	1035.0838	1058.9363	1082.1447	1098.7197	1126.8703	1149.5834	1169.9927	1219.7788	1226.4557	1267.0014	1282.4579	1347.2981	1403.236	1451.21	1479.302	1491.2524	1499.8936	2360.0742	3034.4374	3041.4774	3048.3956	3100.9901	3110.3115	3114.1159	3149.7688	3206.3495
CC12C3CC1C(C#N)N23	C[C@@]12[C@H]3C[C@@H]1[C@@H](C#N)N23	
InChI=1S/C7H8N2/c1-7-4-2-6(7)9(7)5(4)3-8/h4-6H,2H2,1H3	InChI=1S/C7H8N2/c1-7-4-2-6(7)9(7)5(4)3-8/h4-6H,2H2,1H3/t4-,5-,6-,7+,9?/m1/s1
