15
gdb 21313	7.28365	1.18646	1.03356	3.6593	62.78	-0.2547	0.0166	0.2714	1098.7737	0.120708	-395.993461	-395.98588	-395.984936	-396.02665	25.856	
C	-0.0349874415	 1.3227715781	 0.0546681473	-0.229532
O	 0.0158327214	-0.0858488478	-0.0057410407	-0.250023
C	 0.6667329428	-0.5660067721	-1.1606813148	-0.171234
C	 0.6513085265	-2.0594870418	-1.1060894134	 0.360147
N	 1.1626267034	-2.8980546604	-1.9896932704	-0.32967
C	 0.8670602311	-4.1142929648	-1.4497453575	 0.021599
N	 0.212668519	-4.0811544413	-0.3005908659	-0.215598
N	 0.0840569797	-2.7473711341	-0.0983787334	-0.214884
H	 0.9732240122	 1.7631698003	 0.0700662886	 0.115847
H	-0.5853184062	 1.7443193371	-0.7998167961	 0.115784
H	-0.553507552	 1.5891133905	 0.9779729994	 0.135666
H	 0.1614961429	-0.2213879369	-2.0775358893	 0.125426
H	 1.7069272527	-0.2059637586	-1.2136803851	 0.125656
H	 1.1425090791	-5.0476892098	-1.9173812826	 0.124336
H	-0.380838841	-2.3774818384	 0.7141227738	 0.286478
39.0561	76.9319	151.1158	220.4481	261.9165	355.9395	430.955	596.2254	701.0766	709.7747	757.8728	909.8778	981.4794	997.8657	1045.0627	1053.3369	1122.5915	1164.6407	1185.1041	1209.1928	1228.9596	1237.5149	1281.1966	1308.356	1370.3019	1445.154	1481.5308	1485.8862	1498.6716	1509.1806	1522.3306	1594.915	2970.9778	2984.9761	2996.4922	3032.9994	3125.8235	3261.3973	3677.4864
COCC1=NC=NN1	COCc1ncn[nH]1	
InChI=1S/C4H7N3O/c1-8-2-4-5-3-6-7-4/h3H,2H2,1H3,(H,5,6,7)	InChI=1S/C4H7N3O/c1-8-2-4-5-3-6-7-4/h3H,2H2,1H3,(H,5,6,7)
