17
gdb 38890	3.6552	1.61507	1.26021	1.4142	73.8	-0.2178	0.0204	0.2382	984.236	0.138824	-417.967696	-417.960958	-417.960014	-417.998614	27.481	
C	-0.0099713523	 1.5289180624	 0.1092654369	-0.299635
C	 1.3001070473	 0.7885145204	 0.0185182659	 0.070785
O	 2.1497299848	 0.7957557357	 1.1531480636	-0.273166
C	 2.1403040183	-0.4841935134	 1.7437748293	 0.02153
C	 2.271752672	-0.5969639173	 3.2909593813	-0.205364
N	 0.9933638782	-1.3713629182	 3.2722836821	-0.365378
C	 0.7152072151	-0.9355870395	 1.9851542348	 0.400517
N	-0.339240854	-0.6768177435	 1.3339965151	-0.330488
C	-0.0045135759	 0.015389238	 0.103222897	-0.027125
H	-0.2244436922	 2.0008643508	 1.0618908848	 0.122942
H	-0.3677846673	 2.0628493829	-0.7647368613	 0.111451
H	 1.8501145896	 0.8031827855	-0.9202795127	 0.090334
H	 2.7816122602	-1.1918115689	 1.204548905	 0.096413
H	 3.1255174362	-1.1507536657	 3.6870347309	 0.117362
H	 2.187987663	 0.3829893488	 3.770701722	 0.126854
H	 0.3049064304	-1.3321263115	 4.0136215977	 0.245849
H	-0.3559000831	-0.4796618564	-0.7971731926	 0.097119
146.5776	192.3202	335.5978	353.2716	414.2414	479.6798	509.021	544.1801	671.793	733.0106	783.1679	802.7649	808.2421	836.5267	907.367	949.0496	971.6897	1008.6452	1036.4063	1062.8576	1073.3381	1120.9438	1123.7716	1136.5865	1153.3973	1177.7245	1212.5316	1223.9752	1233.2266	1316.1527	1327.8162	1354.3083	1369.3411	1400.6581	1465.1585	1509.9017	1795.3361	3032.2007	3053.8981	3116.7733	3118.3793	3132.0424	3149.0071	3226.0775	3567.6332
C1C2OC3CNC3=NC12	C1[C@H]2O[C@H]3CN[C]3[N][C@@H]12	
InChI=1S/C6H8N2O/c1-3-4(1)9-5-2-7-6(5)8-3/h3-5H,1-2H2,(H,7,8)	InChI=1S/C6H8N2O/c1-3-4(1)9-5-2-7-6(5)8-3/h3-5H,1-2H2,(H,7,8)/t3-,4+,5-/m0/s1
