21
gdb 109815	2.66552	0.99519	0.83062	4.5035	83.51	-0.2306	0.0328	0.2634	1458.7819	0.18119	-383.25516	-383.244881	-383.243936	-383.291247	36.613	
C	 0.799800548	-0.0340214676	-0.1784352211	-0.380666
C	 0.1037803582	-0.8820296477	 0.8938135046	-0.208114
C	-1.3579285147	-1.121488345	 0.5611070497	-0.01289
C	-1.8583333014	-2.2996570974	-0.2202637835	-0.007166
C	-0.9155502884	-3.3783819915	-0.7468160989	-0.378608
C	-1.5637892712	-4.6892456836	-0.8263981754	 0.270389
N	-2.0830324884	-5.719763447	-0.8863122639	-0.306405
N	-2.1912748827	-2.1450406914	 1.1908771572	-0.101824
C	-1.6567191566	-3.0477861503	 2.2003152664	-0.326599
H	 1.8338867211	 0.1855170213	 0.1025697018	 0.119932
H	 0.815698508	-0.547592862	-1.1454922678	 0.118307
H	 0.2826398251	 0.9207070887	-0.3213999983	 0.124185
H	 0.6492703951	-1.8199219149	 1.0321000509	 0.097974
H	 0.1558146493	-0.3618364339	 1.8589255654	 0.110127
H	-1.8981908802	-0.1853218145	 0.4080724796	 0.092794
H	-2.7117890817	-2.1535018086	-0.8815486513	 0.105854
H	-0.5822517648	-3.1004338868	-1.7538035367	 0.157783
H	-0.0145238216	-3.4791106652	-0.1377370137	 0.151658
H	-0.6132179875	-3.3653858369	 2.0611705428	 0.098539
H	-1.7262370725	-2.5564358117	 3.1755757312	 0.129287
H	-2.2802418231	-3.9459920141	 2.2292969409	 0.145441
45.7332	58.8123	121.1501	150.0819	181.2677	213.2022	238.5285	283.8039	300.3279	384.5605	438.0653	514.0998	518.5773	564.2289	728.2901	784.3109	815.6643	841.7099	941.822	969.1032	980.8156	1028.7198	1069.8922	1090.2578	1139.842	1147.5539	1166.6051	1171.2548	1200.949	1233.5305	1281.1681	1309.8333	1342.0888	1356.3965	1399.5789	1414.3968	1440.2269	1454.7608	1467.2032	1491.631	1494.8641	1499.6409	1503.2893	1511.5094	2361.8738	2993.2523	3029.9065	3035.6718	3048.6214	3070.242	3075.0635	3085.2909	3099.7323	3105.8178	3110.583	3111.8833	3115.9112
CCC1C(CC#N)N1C	CC[C@H]1[C@@H](CC#N)N1C	
InChI=1S/C7H12N2/c1-3-6-7(4-5-8)9(6)2/h6-7H,3-4H2,1-2H3	InChI=1S/C7H12N2/c1-3-6-7(4-5-8)9(6)2/h6-7H,3-4H2,1-2H3/t6-,7+,9?/m0/s1
