24
gdb 9424	3.29253	0.93576	0.77372	0.8826	83.09	-0.246	0.0879	0.3338	1592.9635	0.220823	-351.416749	-351.40587	-351.404926	-351.45338	38.319	
C	-0.0076025123	 1.5124566555	 0.0873371278	-0.382441
C	-0.0770181123	-0.0036331659	-0.1099837552	-0.17963
C	 0.8342922707	-0.4885468771	-1.2306051632	-0.038277
O	 0.7028654447	-1.889802339	-1.3412201846	-0.259846
C	 1.3917508923	-2.4888183774	-2.4334827363	 0.158853
C	 2.8909168934	-2.6237828956	-2.1502753346	-0.402729
C	 0.7319660064	-3.8472619351	-2.6821218768	-0.171274
C	-0.7439853681	-3.7443608311	-3.0720041562	-0.384833
H	 1.0075786621	 1.8368256952	 0.3418655544	 0.115311
H	-0.3075847749	 2.0478424067	-0.8204393553	 0.115199
H	-0.6701724837	 1.8348597629	 0.895739485	 0.116313
H	 0.2042334361	-0.5208884337	 0.8145449031	 0.1055
H	-1.1036159142	-0.3117484853	-0.3392376209	 0.104297
H	 0.5586856778	-0.003185753	-2.1833627801	 0.080114
H	 1.8761004643	-0.1994116878	-1.014590219	 0.083212
H	 1.2519129047	-1.8581713249	-3.3296590787	 0.057405
H	 3.4026347961	-3.0841465665	-3.0015907238	 0.112026
H	 3.3580807875	-1.6515014207	-1.9699074762	 0.114175
H	 3.0545035746	-3.2506993164	-1.2677229792	 0.120612
H	 1.2956060212	-4.3665729524	-3.4665402934	 0.090297
H	 0.8368907059	-4.4471135961	-1.7693163864	 0.101507
H	-1.3068092008	-3.2169408169	-2.298182275	 0.130648
H	-0.8677401842	-3.1947382244	-4.0122729823	 0.106477
H	-1.1876823773	-4.735612441	-3.2060614732	 0.107084
47.0488	61.1572	110.5206	125.6126	151.2439	208.254	222.7898	232.3649	251.8112	323.6389	351.4964	432.8982	491.4579	510.1617	764.3674	774.1152	832.7241	901.8049	907.4423	912.5558	976.3433	997.7551	1033.169	1051.406	1116.5953	1122.9033	1144.3361	1169.4347	1190.9629	1204.2139	1268.8374	1300.2555	1315.4687	1330.3119	1333.4593	1375.7553	1394.6968	1404.5771	1405.6927	1411.74	1441.0509	1474.854	1490.7309	1491.8118	1496.1303	1498.8629	1500.5377	1507.7753	1511.5233	1529.3393	2940.314	2950.6312	2978.8086	3026.905	3030.8672	3034.9261	3037.9602	3038.3267	3064.6967	3070.5882	3098.4631	3098.9601	3107.0019	3108.5759	3112.8924	3126.3849
CCCOC(C)CC	CCCO[C@@H](C)CC	
InChI=1S/C7H16O/c1-4-6-8-7(3)5-2/h7H,4-6H2,1-3H3	InChI=1S/C7H16O/c1-4-6-8-7(3)5-2/h7H,4-6H2,1-3H3/t7-/m0/s1
