18
gdb 72827	2.67153	1.55676	1.31019	3.9262	71.45	-0.2291	-0.0336	0.1956	1034.4619	0.147823	-439.078241	-439.070161	-439.069217	-439.110877	30.852	
C	-0.3329493776	 1.5595835229	 0.0285226153	-0.455622
C	 0.0794328535	 0.0994411245	 0.0026149083	 0.252988
C	-1.0240472642	-0.9402774379	 0.3635788154	-0.111776
O	-0.2248350059	-1.4736266516	 1.4442361589	-0.29322
C	 0.835159117	-0.514893511	 1.2043796813	-0.018365
C	 2.0340578941	-1.2559920014	 0.6050512726	 0.424107
O	 2.9870039085	-1.6804768501	 1.1995226565	-0.301388
C	 1.7603442732	-1.3660626098	-0.8968533347	-0.288847
N	 0.9227014771	-0.1960167905	-1.1599463384	-0.351054
H	 0.548234945	 2.2053040279	-0.0102666919	 0.131797
H	-0.9598167265	 1.7961986444	-0.8395409971	 0.117335
H	-0.9081276435	 1.7936599689	 0.9292467561	 0.122922
H	-1.9682145909	-0.5230574167	 0.7342319909	 0.104198
H	-1.2384635816	-1.6928325257	-0.4057128539	 0.09791
H	 1.0765602328	 0.0873424121	 2.0837371085	 0.093302
H	 2.6943694103	-1.3375077299	-1.4642561744	 0.133817
H	 1.2787686682	-2.3416582062	-1.0884545105	 0.119133
H	 0.3890160706	-0.2678679199	-2.0184439228	 0.222763
77.586	155.8776	206.3502	221.7522	273.3029	339.4321	378.4575	464.1473	543.1536	553.4954	618.8018	668.3989	762.3876	806.9958	874.4469	895.3079	929.8706	966.8105	992.2911	1016.5974	1031.4373	1089.8541	1135.8756	1156.5251	1167.1118	1187.1289	1199.3329	1232.0966	1273.6841	1299.9608	1317.4221	1357.0381	1411.4657	1436.3462	1488.6251	1491.3601	1494.2187	1519.5288	1864.5335	2948.3184	3010.9476	3031.811	3060.1278	3086.0297	3088.224	3097.7101	3123.2298	3541.3667
CC12COC1C(=O)CN2	C[C@]12CO[C@H]1C(=O)CN2	
InChI=1S/C6H9NO2/c1-6-3-9-5(6)4(8)2-7-6/h5,7H,2-3H2,1H3	InChI=1S/C6H9NO2/c1-6-3-9-5(6)4(8)2-7-6/h5,7H,2-3H2,1H3/t5-,6-/m0/s1
