18
gdb 8274	5.32611	1.08682	0.99282	4.3933	73.22	-0.2362	0.0234	0.2596	1196.3072	0.153875	-343.97339	-343.965112	-343.964167	-344.006538	29.853	
C	-0.1502392855	 1.5515274553	-0.0594746224	-0.394084
C	-0.0640851338	 0.0311832272	-0.0122710345	 0.009449
C	 1.0966378173	-0.5825815717	-0.8429260311	-0.17938
N	 1.8972758316	-0.6595143574	 0.3958486269	-0.067201
C	 2.7646336947	-1.8023404502	 0.5710572266	-0.288124
C	 3.485384776	-1.7392537383	 1.8484213878	 0.277343
N	 4.0385183928	-1.7011437896	 2.8616008342	-0.304332
C	 0.6789877493	-0.5428527462	 1.2253743375	-0.177011
H	 0.8291246405	 2.0028852058	 0.129055771	 0.13302
H	-0.5001870479	 1.8961536652	-1.0384844035	 0.11625
H	-0.8475365281	 1.9288179617	 0.696024593	 0.11871
H	-1.0413377883	-0.4169659906	-0.2017897026	 0.079174
H	 0.8371057902	-1.5711772562	-1.2563131522	 0.085863
H	 1.5412477059	 0.0291791917	-1.6359176263	 0.106701
H	 2.2254931755	-2.7702847259	 0.5337345744	 0.122446
H	 3.5024697254	-1.8184741835	-0.2403117186	 0.154697
H	 0.7869771199	 0.0997685093	 2.1048638017	 0.11714
H	 0.2760178245	-1.5185158966	 1.541794038	 0.089338
70.0434	85.4638	151.1922	242.6995	282.8458	302.3427	376.4258	392.0928	394.52	507.869	725.2917	814.207	879.7031	893.9954	913.9974	940.6607	970.0118	993.3544	1068.6295	1106.5574	1118.8434	1147.1095	1158.3084	1219.4278	1231.3547	1247.3336	1277.8756	1299.2648	1339.5005	1372.3174	1389.1263	1413.013	1470.9751	1495.2231	1497.041	1506.2875	1529.2036	2366.7887	2905.7124	2964.6347	2975.1958	3031.1847	3054.0934	3056.1971	3071.5476	3084.3294	3097.8247	3111.4909
CC1CN(CC#N)C1	CC1CN(CC#N)C1	
InChI=1S/C6H10N2/c1-6-4-8(5-6)3-2-7/h6H,3-5H2,1H3	InChI=1S/C6H10N2/c1-6-4-8(5-6)3-2-7/h6H,3-5H2,1H3
