18
gdb 29955	3.26726	1.22367	0.90028	6.0399	84.27	-0.2169	-0.0218	0.1951	1268.0833	0.147283	-402.009012	-401.99987	-401.998926	-402.043207	32.643	
C	 0.0079645112	 1.449129937	 0.0297146439	-0.34098
N	 0.0068232208	-0.0003908133	 0.0204782947	-0.041633
C	-0.0197968141	-0.7843873776	-1.1223842203	-0.092672
C	-0.0103520301	-2.0958894077	-0.7487105927	-0.267211
C	 0.0232712897	-2.125713317	 0.6810539411	 0.103455
C	 0.0431477897	-3.3235442926	 1.5021750592	 0.074369
O	 0.033269662	-4.4602389946	 1.0733983027	-0.299772
C	 0.0331271881	-0.8039086208	 1.1271625206	 0.221317
C	 0.0647331397	-0.2325479565	 2.5065323101	-0.507463
H	 0.9119054574	 1.8427067084	 0.5059996312	 0.144208
H	-0.0238986849	 1.8077154527	-0.999869878	 0.147591
H	-0.8644275815	 1.84317828	 0.5610388155	 0.144241
H	-0.0428246196	-0.3186220795	-2.0949386606	 0.124059
H	-0.0251797189	-2.9610289058	-1.3914026839	 0.124924
H	 0.0692631729	-3.1423218597	 2.6012780065	 0.045324
H	 0.947769091	 0.398008208	 2.6685167533	 0.135448
H	-0.8170005334	 0.3865647884	 2.7138814956	 0.135659
H	 0.08895382	-1.0298450494	 3.2503441311	 0.149135
73.6422	106.7144	133.7299	185.9542	189.9742	241.3597	282.5147	304.0984	381.7335	512.1367	623.9056	636.1789	662.5607	731.7511	732.82	800.9086	846.4578	948.5646	1027.6473	1044.0153	1056.8771	1091.2471	1111.8418	1148.617	1191.2955	1261.2501	1371.5338	1402.4587	1416.0798	1439.0328	1453.6591	1475.0069	1476.8472	1482.2464	1490.372	1515.4881	1547.0163	1590.7365	1774.3161	2857.0578	3020.1924	3036.5919	3064.0076	3093.0986	3139.931	3144.357	3253.8963	3278.187
CN1C=CC(C=O)=C1C	Cn1ccc(C=O)c1C	
InChI=1S/C7H9NO/c1-6-7(5-9)3-4-8(6)2/h3-5H,1-2H3	InChI=1S/C7H9NO/c1-6-7(5-9)3-4-8(6)2/h3-5H,1-2H3
