20
gdb 16419	3.35498	2.06127	1.67096	1.4229	73.72	-0.2342	0.0844	0.3185	870.5039	0.179635	-348.995512	-348.988533	-348.987589	-349.026199	28.549	
C	-0.5930862724	 1.3810165605	 0.0464030195	-0.41427
C	 0.0968265779	 0.0156943213	-0.0172094113	 0.014472
C	 1.0687903054	-0.0418229596	-1.2209903137	-0.072566
O	 2.1306255204	-0.9797589772	-1.06704142	-0.278803
C	 2.5691337632	-1.1262067737	 0.276689725	 0.139394
C	 1.4446512251	-1.7650749268	 1.1328240984	-0.241023
C	 0.8903034314	-0.318287932	 1.2632269278	-0.012768
C	 2.363856746	 0.1694366672	 1.1120963203	-0.2601
H	 0.1305848258	 2.1794819272	 0.2477012985	 0.117326
H	-1.0957768224	 1.6192959906	-0.8975392972	 0.114342
H	-1.3465639885	 1.4041160732	 0.8401935339	 0.114438
H	-0.6741084198	-0.7564966018	-0.139925431	 0.074692
H	 0.5450480002	-0.3164184574	-2.1417234716	 0.10471
H	 1.4906496273	 0.9626278053	-1.3793190966	 0.088973
H	 3.55314699	-1.5970509723	 0.2324461656	 0.071677
H	 0.820623574	-2.5160715796	 0.6407845652	 0.092778
H	 1.8214577519	-2.1533094385	 2.0832603423	 0.092464
H	 0.3363104686	-0.0467398635	 2.1658157795	 0.05624
H	 2.9076325398	 0.1095614286	 2.0578683729	 0.100026
H	 2.5688392163	 1.1347867985	 0.6428634624	 0.097998
152.7493	231.244	263.1763	306.82	405.2435	431.8807	456.3432	506.6855	571.7088	768.3746	805.7938	836.7583	881.1957	892.5616	922.3134	926.9915	959.7481	976.885	1027.9352	1040.1322	1064.4713	1071.4128	1117.9523	1135.9071	1160.5533	1177.9117	1198.2604	1241.5304	1257.9363	1276.1989	1280.1558	1323.7582	1344.9926	1355.6509	1374.3666	1410.2035	1421.0225	1470.8824	1496.1569	1497.9128	1499.8329	1524.0095	2979.2306	3012.1851	3025.2163	3050.1082	3060.6685	3070.778	3074.3566	3090.9116	3092.2041	3100.0338	3111.6066	3117.5179
CC1COC2CC1C2	C[C@H]1CO[C@@H]2C[C@H]1C2	
InChI=1S/C7H12O/c1-5-4-8-7-2-6(5)3-7/h5-7H,2-4H2,1H3	InChI=1S/C7H12O/c1-5-4-8-7-2-6(5)3-7/h5-7H,2-4H2,1H3/t5-,6-,7+/m0/s1
