18
gdb 33039	4.67221	0.79532	0.7119	5.3129	74.82	-0.2123	0.0278	0.2401	1586.9085	0.147789	-439.151121	-439.142197	-439.141253	-439.185553	32.383	
C	 0.0530870748	 1.5703969281	 0.0874387417	-0.381532
C	 0.0917854564	 0.0411957557	 0.0572082408	-0.161414
C	 0.6033743554	-0.5089294743	-1.2891256032	-0.312203
C	 0.65431912	-1.9964975964	-1.3552038451	 0.303204
C	-0.0238966298	-2.8773868299	-2.1041516567	-0.123107
O	 0.3588436756	-4.1692130369	-1.8018788522	-0.208385
C	 1.3257680262	-4.1167313699	-0.8157092862	 0.484994
O	 1.8666225917	-5.0736251539	-0.3337339051	-0.402804
N	 1.4955540572	-2.7750705814	-0.5492615382	-0.423022
H	 1.0491967084	 1.9968544238	-0.0748120167	 0.118035
H	-0.6065005918	 1.9649093461	-0.6932411572	 0.119956
H	-0.3137649486	 1.9375689171	 1.0503164355	 0.120769
H	 0.7297598624	-0.3271969224	 0.8704499015	 0.097478
H	-0.9078440301	-0.3661567454	 0.2475143215	 0.112065
H	-0.0446008988	-0.1557370769	-2.0988071857	 0.120004
H	 1.6013785368	-0.0944829899	-1.4914468859	 0.113841
H	-0.7741984236	-2.7568423778	-2.8655435737	 0.149001
H	 2.1561465077	-2.4475171158	 0.132895375	 0.273122
69.5447	82.0399	95.8053	198.7104	244.8696	291.3465	309.3356	376.7124	424.8656	527.4719	620.0575	688.7286	719.5045	745.3957	770.2748	773.583	873.9166	896.8324	927.1112	1009.5742	1043.8521	1090.8102	1103.3117	1112.8844	1182.2054	1237.1755	1255.6183	1309.0534	1326.0598	1347.0697	1387.7929	1414.4291	1426.1947	1475.7881	1491.245	1499.9067	1509.6228	1710.3948	1897.5213	3007.8186	3026.9532	3032.7976	3058.439	3077.3654	3100.7855	3109.3619	3296.6603	3695.1416
CCCC1=COC(=O)N1	CCCc1coc(=O)[nH]1	
InChI=1S/C6H9NO2/c1-2-3-5-4-9-6(8)7-5/h4H,2-3H2,1H3,(H,7,8)	InChI=1S/C6H9NO2/c1-2-3-5-4-9-6(8)7-5/h4H,2-3H2,1H3,(H,7,8)
