19
gdb 80500	2.13861	1.48712	1.25351	4.9341	81.53	-0.2571	0.0105	0.2676	1129.1099	0.158781	-382.039225	-382.030279	-382.029335	-382.072536	33.552	
C	-0.3610936266	 1.4687841297	-0.1231387748	-0.427295
C	 0.0310851614	-0.0034427789	-0.1244457107	-0.02297
C	 1.114271922	-0.5775485889	-1.097631142	-0.283367
C	 1.8153129669	-1.2514371569	 0.097782323	-0.096658
N	 2.2430219146	-0.3293206871	 1.109315739	-0.111262
C	 2.8484320746	 0.9686428939	 0.8458252202	-0.326101
C	 0.8233645083	-0.6106752587	 1.0681025974	 0.162873
C	 0.1972073374	-1.1453681325	 2.2419888511	 0.233361
N	-0.3523457366	-1.5610505925	 3.1715900844	-0.3496
H	 0.4969391109	 2.1383542276	-0.0360346502	 0.122764
H	-0.8888103511	 1.7211420705	-1.0491194491	 0.123663
H	-1.0373213626	 1.6829738821	 0.7112659244	 0.134575
H	-0.8749263382	-0.606637652	-0.2392484657	 0.102168
H	 0.7040486855	-1.2945571927	-1.8102477779	 0.119114
H	 1.7183670517	 0.1497411095	-1.6467344957	 0.112428
H	 2.2062225478	-2.262993712	 0.1175745093	 0.118679
H	 2.557067488	 1.4361586085	-0.1017960718	 0.115023
H	 2.595237577	 1.6481598829	 1.6638785681	 0.139037
H	 3.934563139	 0.8356692374	 0.8387252012	 0.133569
120.93	143.3861	155.4847	180.7436	231.2664	251.6941	291.5758	347.7362	438.2142	519.2579	533.8957	566.6123	634.6568	681.123	760.8926	839.8523	863.9459	943.586	959.2281	1006.2557	1021.3822	1097.1343	1104.0768	1115.8742	1146.5721	1151.0801	1184.408	1205.1826	1237.4233	1272.6231	1278.5761	1373.8105	1404.8514	1419.4711	1453.7675	1479.5646	1489.7797	1498.0235	1502.4616	1509.5874	2348.852	3026.1156	3040.2556	3057.5626	3066.0864	3090.454	3099.7879	3118.8412	3124.3506	3131.831	3176.8409
CC1CC2N(C)C12C#N	C[C@H]1C[C@H]2N(C)[C@@]12C#N	
InChI=1S/C7H10N2/c1-5-3-6-7(5,4-8)9(6)2/h5-6H,3H2,1-2H3	InChI=1S/C7H10N2/c1-5-3-6-7(5,4-8)9(6)2/h5-6H,3H2,1-2H3/t5-,6+,7-,9?/m0/s1
