18
gdb 51455	3.13295	1.25213	1.17197	3.1372	78.41	-0.2336	0.0069	0.2405	1128.7034	0.148627	-401.935795	-401.927915	-401.926971	-401.968793	29.878	
N	-0.2183162101	 1.1649705312	-0.0242287178	-0.441606
C	-0.4103922715	-0.0500209956	-0.3030587039	 0.13364
O	-0.9873967585	-0.8650599579	 0.6081199279	-0.181358
C	-1.0327119531	-2.2296324541	 0.2875682251	 0.098142
C	-2.2599451775	-2.9900810205	 0.6676193312	-0.106497
C	-3.5290563253	-2.1830036389	 0.9564874281	-0.267299
C	-3.8610887464	-1.534182419	-0.3686151533	-0.059215
C	-3.0012593631	-1.8810114277	-1.3282975166	-0.076412
C	-1.928693697	-2.7800056857	-0.8149815168	-0.143182
H	 0.2084813551	 1.637326779	-0.8186120084	 0.228043
H	-0.1616709777	-0.5607084898	-1.2420570055	 0.088625
H	-0.0776886225	-2.7316737955	 0.4282578248	 0.103438
H	-2.1283531697	-3.9515209269	 1.1492003629	 0.093748
H	-4.3402074002	-2.8323338469	 1.3080270321	 0.108896
H	-3.3603341196	-1.4322159938	 1.738270981	 0.134088
H	-4.6864174644	-0.8414322348	-0.4849691275	 0.099859
H	-3.0317336584	-1.5401317985	-2.3565321508	 0.096851
H	-1.5215630701	-3.5650659146	-1.4435548226	 0.090238
65.597	115.9843	137.2258	215.2051	282.4279	380.6257	493.8009	566.8499	657.4696	711.918	751.1941	780.958	792.3112	808.5754	826.1108	925.0074	942.553	953.5175	960.0164	1018.613	1034.9395	1049.0505	1060.5101	1067.4504	1102.7061	1110.0129	1137.6862	1193.1402	1234.6551	1288.9292	1300.5491	1310.8208	1357.6606	1373.8765	1404.722	1421.957	1469.8289	1671.0087	1745.646	3028.248	3040.0274	3060.4237	3122.8824	3161.999	3182.8295	3190.8611	3215.4119	3516.0874
N=COC1C2CC=CC12	[NH][CH]O[C@H]1[C@H]2CC=C[C@@H]12	
InChI=1S/C7H9NO/c8-4-9-7-5-2-1-3-6(5)7/h1-2,4-8H,3H2	InChI=1S/C7H9NO/c8-4-9-7-5-2-1-3-6(5)7/h1-2,4-8H,3H2/t5-,6+,7-/m1/s1
