16
gdb 66907	2.81155	2.00828	1.36336	3.6195	77.11	-0.2427	-0.073	0.1697	928.942	0.124147	-400.678879	-400.67167	-400.670726	-400.710301	28.299	
C	 0.0307407765	 1.5476317699	 0.050619708	-0.484567
C	-0.0897626639	 0.0496685552	 0.0134701324	 0.162468
C	 0.1954818239	-0.6668588353	-1.3447284902	-0.08083
C	 0.1106470126	-2.2306804757	-1.4260103923	-0.281474
C	-0.8994122179	-1.9656633435	-0.329046739	 0.121043
C	-0.604550009	-2.0485166987	 0.9913572625	-0.255985
C	-0.0584183048	-0.7110970315	 1.3355636655	 0.354209
O	 0.4506331975	-0.3191440005	 2.3600627405	-0.343745
N	-1.1663670066	-0.6035922106	-0.7754028991	-0.121919
H	 1.0161677921	 1.8215273666	 0.4380536618	 0.147307
H	-0.1005203976	 1.9941667346	-0.9376145466	 0.126056
H	-0.7196005978	 1.9677110616	 0.7263086737	 0.145776
H	 0.4667876393	-0.0493135637	-2.2007703225	 0.112782
H	-0.2888610764	-2.4756899292	-2.4148172543	 0.140119
H	 0.9574527673	-2.8693374762	-1.1753372826	 0.133586
H	-0.2909245951	-2.9404280029	 1.5178942223	 0.125171
128.7953	149.9337	254.5234	277.1932	399.3333	416.6116	461.2456	577.8251	631.2819	667.5335	722.0066	749.2189	793.1388	834.142	857.0472	876.4864	944.4879	992.3152	1010.2793	1028.8708	1062.4207	1072.07	1094.8578	1125.5133	1208.96	1225.8459	1248.1559	1270.3828	1344.7867	1413.3066	1477.4398	1483.7488	1487.9559	1564.7095	1796.9712	3050.2803	3061.9718	3115.7468	3121.005	3131.9806	3141.318	3222.3182
CC12C3CC(=CC1=O)N23	C[C@@]12[C@H]3C[C]([CH]C1=O)N23	
InChI=1S/C7H7NO/c1-7-5-2-4(8(5)7)3-6(7)9/h3,5H,2H2,1H3	InChI=1S/C7H7NO/c1-7-5-2-4(8(5)7)3-6(7)9/h3,5H,2H2,1H3/t5-,7-,8?/m1/s1
