19
gdb 61247	3.30249	0.84376	0.80453	3.3643	76.57	-0.2582	0.0283	0.2864	1488.0697	0.158034	-419.198791	-419.188849	-419.187905	-419.234487	35.44	
C	 0.504040311	 1.5738635671	-0.4010722465	-0.422923
C	 0.1819521807	 0.1506132559	-0.031123598	 0.079419
O	 1.2814351977	-0.7522386756	 0.1817970982	-0.271258
C	 0.4203263632	-0.4616835219	 1.2840092098	 0.072573
C	 1.040910208	 0.2417517573	 2.4744875509	-0.013506
N	-0.0144218421	 0.573803547	 3.4231024776	-0.518468
C	 2.188406104	-0.6547601983	 3.0339474891	-0.343607
C	 2.8211005246	-0.0456239856	 4.1981698242	 0.250758
N	 3.2826975436	 0.4740354647	 5.122042517	-0.30958
H	 1.3419694487	 1.9687420168	 0.1764084057	 0.131685
H	 0.7698175239	 1.6336028853	-1.4613749959	 0.133282
H	-0.3688194328	 2.2138879412	-0.2356301481	 0.134469
H	-0.622559247	-0.2930398631	-0.6212295974	 0.095119
H	-0.2286002296	-1.2958559661	 1.5698165191	 0.085894
H	 1.4966953202	 1.1804838453	 2.1483077755	 0.105617
H	-0.4285781696	-0.2715620772	 3.8079263307	 0.228403
H	 0.3694795685	 1.0916020643	 4.2082142172	 0.25057
H	 1.7884259752	-1.6353526132	 3.3207400296	 0.141952
H	 2.9349309417	-0.825029964	 2.2512257412	 0.169601
44.6616	72.7386	108.8784	155.4949	198.4224	216.6066	272.3846	347.8381	387.6282	399.7763	409.854	466.2396	524.8517	599.871	784.3633	831.8398	853.8558	872.2745	951.3107	957.1561	993.9185	1026.7711	1050.7177	1098.5929	1128.3071	1166.1419	1172.9413	1202.1776	1246.4685	1283.7523	1306.3448	1354.1187	1384.7206	1413.7785	1428.5823	1464.0685	1470.816	1492.5883	1515.8143	1662.2409	2357.0108	3038.0351	3043.9449	3053.3903	3078.0062	3089.8443	3094.4876	3106.4937	3137.8789	3484.4356	3566.6134
CC1OC1C(N)CC#N	C[C@H]1O[C@H]1[C@@H](N)CC#N	
InChI=1S/C6H10N2O/c1-4-6(9-4)5(8)2-3-7/h4-6H,2,8H2,1H3	InChI=1S/C6H10N2O/c1-4-6(9-4)5(8)2-3-7/h4-6H,2,8H2,1H3/t4-,5+,6-/m1/s1
