15
gdb 49187	3.96804	1.42267	1.26474	3.8194	70.59	-0.2587	-0.0779	0.1809	982.872	0.113984	-416.767665	-416.761077	-416.760133	-416.798896	25.621	
O	-0.899789291	 1.4038760338	-0.1685575072	-0.240312
C	 0.2018853488	 1.0571354305	 0.1719455974	 0.103395
C	 1.3901390245	 1.9503877392	 0.2024907844	 0.240629
N	 2.5566639545	 1.4948385429	 0.4678970032	-0.21954
C	 3.4572793496	 2.6292435444	 0.2353797177	-0.043671
C	 3.4334784962	 2.8681445724	-1.3204395561	-0.237025
C	 2.2827141732	 3.8461042747	-1.0888201899	-0.047195
C	 2.5646750678	 3.9093457593	 0.3669074105	-0.049472
N	 1.27751305	 3.3511033371	-0.0682531113	-0.1725
H	 0.4406893424	 0.0224173916	 0.4901398333	 0.102553
H	 4.4165508377	 2.5364953965	 0.7370786413	 0.094101
H	 4.3223159616	 3.4162072681	-1.6406864463	 0.124655
H	 3.2811601967	 1.9882017931	-1.9507168137	 0.117021
H	 1.905410143	 4.5948183093	-1.7730731336	 0.117781
H	 2.5985208752	 4.7286099571	 1.0753255003	 0.109579
93.1776	190.1771	227.3073	385.3091	456.4266	510.6635	606.1442	704.5961	731.0813	752.7869	818.3271	836.3609	865.2781	906.2663	924.5006	945.504	975.8723	1000.2393	1038.5686	1040.3021	1099.3347	1130.4523	1162.281	1194.0742	1218.2718	1260.8644	1285.6242	1305.8782	1344.838	1393.9369	1483.212	1651.4157	1815.6693	2939.3418	3064.2581	3126.1097	3157.3228	3184.2525	3207.1435
O=CC1=NC2CC3C2N13	O=C[C]1[N][C@H]2C[C@@H]3[C@H]2N13	
InChI=1S/C6H6N2O/c9-2-5-7-3-1-4-6(3)8(4)5/h2-4,6H,1H2	InChI=1S/C6H6N2O/c9-2-5-7-3-1-4-6(3)8(4)5/h2-4,6H,1H2/t3-,4+,6-,8?/m0/s1
