18
gdb 32902	4.32173	0.82274	0.72486	2.1194	75.8	-0.227	0.0099	0.2369	1553.9209	0.147221	-439.125947	-439.116658	-439.115714	-439.161051	32.559	
C	 0.1638196921	 1.3689342829	 0.2198766929	-0.488736
C	 0.0055960718	-0.0862136926	-0.035001843	 0.378615
N	-0.2956358669	-0.6848828181	-1.1430814177	-0.298376
C	-0.3105951268	-2.036382547	-0.8154714156	-0.207322
C	-0.0150267803	-2.1947106329	 0.4966706283	 0.318225
C	 0.1255728143	-3.352559964	 1.4155944455	-0.304791
C	 1.5547430641	-3.5442365575	 1.932836209	-0.068776
O	 1.5377047319	-4.6643112939	 2.8013229314	-0.417398
O	 0.1932720312	-0.9351172679	 1.0122279592	-0.212201
H	 1.171777673	 1.6007855433	 0.5797783944	 0.142642
H	-0.0156872525	 1.9106462574	-0.7089814013	 0.156964
H	-0.5444462031	 1.7167821496	 0.9791794184	 0.144406
H	-0.5369006553	-2.7956922549	-1.5474882219	 0.119097
H	-0.5387966597	-3.2415582414	 2.2812096934	 0.12755
H	-0.1852782587	-4.2588688229	 0.8872688659	 0.127214
H	 2.2340197065	-3.7002487201	 1.080397571	 0.093674
H	 1.8802523558	-2.6313993907	 2.4537484028	 0.100481
H	 2.4255548325	-4.7915545293	 3.1476621174	 0.288733
59.0451	87.6839	99.4112	118.7313	224.377	247.083	272.7851	342.7112	374.0993	413.4899	649.7507	686.6207	695.2431	776.7052	796.2065	855.1775	959.4753	985.2727	1005.9186	1036.8951	1066.1345	1069.8322	1082.7097	1157.2467	1208.792	1231.7975	1238.9147	1253.1594	1303.9716	1340.5979	1365.6543	1414.0551	1455.3197	1476.3343	1476.9878	1482.171	1529.1716	1617.2285	1650.3388	2977.8216	3011.2371	3038.8355	3042.5963	3095.8526	3097.4874	3157.3127	3260.8874	3833.4942
CC1=NC=C(CCO)O1	Cc1ncc(CCO)o1	
InChI=1S/C6H9NO2/c1-5-7-4-6(9-5)2-3-8/h4,8H,2-3H2,1H3	InChI=1S/C6H9NO2/c1-5-7-4-6(9-5)2-3-8/h4,8H,2-3H2,1H3
