16
gdb 128329	2.22936	1.57862	0.93186	1.1093	82.1	-0.1935	0.0066	0.2001	1210.8549	0.124936	-396.918135	-396.909333	-396.908389	-396.95161	32.469	
C	-0.0604136678	 1.4044662915	 0.0812576518	-0.318139
N	 0.1873845496	-0.0199269594	-0.048058462	-0.390791
C	 0.7023301796	-0.7165835407	 1.016721112	 0.33732
N	 1.2819744457	-0.1170477963	 2.0512353743	-0.314041
N	 1.6980144562	-1.1481668983	 2.8401540183	-0.19844
C	 1.389943748	-2.3594822434	 2.3463819857	-0.138204
C	 0.7300199289	-2.1464471586	 1.1451412611	 0.036416
C	 0.1915585845	-3.0813009452	 0.2402295162	 0.202975
C	-0.2943531572	-3.8393051764	-0.5624612862	-0.446767
H	 0.8750610662	 1.9180085125	 0.3174920257	 0.147602
H	-0.4349125006	 1.7854846656	-0.8715837134	 0.118084
H	-0.7830188561	 1.6489403916	 0.8738063434	 0.116169
H	-0.4922771078	-0.5421657739	-0.579561247	 0.24497
H	 2.1753144555	-0.9353351604	 3.6979203734	 0.276267
H	 1.6455959564	-3.2754876074	 2.8543768198	 0.143585
H	-0.706156901	-4.5201200713	-1.2650334233	 0.182994
98.8965	118.5589	147.5875	173.0101	225.6214	327.9747	398.152	411.8172	477.5195	492.9853	525.9688	567.2581	609.9828	636.8737	666.4815	748.0892	777.6948	796.1883	937.4858	1066.9354	1074.9926	1133.9089	1158.6303	1195.3648	1246.2499	1328.3335	1354.0735	1451.206	1477.7462	1482.5753	1495.7523	1517.092	1583.9871	1620.4175	2223.2657	2995.7493	3086.3522	3129.285	3266.9054	3503.3463	3616.2831	3693.9335
CNC1=NNC=C1C#C	CNc1n[nH]cc1C#C	
InChI=1S/C6H7N3/c1-3-5-4-8-9-6(5)7-2/h1,4H,2H3,(H2,7,8,9)	InChI=1S/C6H7N3/c1-3-5-4-8-9-6(5)7-2/h1,4H,2H3,(H2,7,8,9)
