15
gdb 53896	3.10902	0.66362	0.64104	2.1985	74.95	-0.1857	0.0164	0.2021	1727.4754	0.108729	-453.981069	-453.970075	-453.969131	-454.020131	36.719	
N	-0.5997580449	 0.842095611	 0.2818335332	-0.55607
C	-0.2781328604	-0.3881950255	-0.2977665768	 0.387376
N	 0.8376484999	-0.9760198984	 0.2692161687	-0.5756
H	 0.9894735919	-1.9222264893	-0.0550140251	 0.260117
H	 0.8753026546	-0.8985850945	 1.2778897117	 0.262474
C	-0.9985722428	-0.9413395332	-1.3093301382	-0.380571
C	-0.7627676118	-2.2498202437	-1.7753754171	 0.269687
C	-0.545746393	-3.3738822136	-2.1644736987	-0.445489
C	-1.2733660058	 0.3408144153	 3.1979679286	 0.595647
O	-2.2364459559	 0.9877888216	 3.1599845041	-0.290969
O	-0.3104975317	-0.3108977834	 3.2753459871	-0.308423
H	 0.2106661484	 1.4335929907	 0.4241784936	 0.25341
H	-1.3318030247	 1.3381313509	-0.207519553	 0.256644
H	-1.7693533559	-0.3480599798	-1.7897898855	 0.088033
H	-0.3653744378	-4.3577958582	-2.5181383826	 0.183733
21.5698	31.4462	65.6445	87.1117	107.255	148.4429	167.8723	372.9084	379.673	407.2558	441.4067	449.4654	510.5078	588.8143	611.6823	665.2859	666.4472	686.4342	704.8537	752.4258	783.1109	931.2099	1057.0393	1148.3314	1170.513	1313.2064	1376.9565	1456.873	1624.2124	1638.9829	1706.243	2199.5557	2432.5909	3170.4616	3505.9946	3529.7806	3537.2434	3638.0871	3639.6519
NC(=[NH2+])C(C#C)C([O-])=O	NC(=[NH2])[CH]C#C.C(=O)=O	
InChI=1S/C5H6N2O2/c1-2-3(4(6)7)5(8)9/h1,3H,(H3,6,7)(H,8,9)	InChI=1S/C4H6N2.CO2/c1-2-3-4(5)6;2-1-3/h1,3H,5-6H2;
