13
gdb 130499	4.05316	1.71533	1.20526	2.6347	72.45	-0.2655	-0.0638	0.2017	924.7409	0.093337	-415.648902	-415.643226	-415.642282	-415.678896	22.788	
O	-0.0249271992	 1.3221452273	 0.0094321569	-0.247691
N	 1.2993427819	 1.8145822006	-0.0003980797	-0.111409
C	 2.0940192958	 0.783825467	-0.0137451274	-0.056151
C	 1.3616294426	-0.4498799296	-0.0135661597	 0.182121
C	 0.0301034926	-0.0210592507	 0.0014604085	 0.421996
C	-1.0137888184	-0.9387465266	 0.0063022915	-0.243233
C	-0.6146428305	-2.2676008606	-0.0048455599	-0.089814
C	 0.7531088431	-2.6102100104	-0.0197380191	-0.036746
N	 1.7499347891	-1.7304358542	-0.0243417415	-0.337871
H	 3.1635176555	 0.9380483562	-0.0230743645	 0.152861
H	-2.0541809816	-0.6376696745	 0.017859985	 0.133315
H	-1.3553287738	-3.0593076902	-0.0021875343	 0.116479
H	 1.0383864228	-3.6587529044	-0.0282561458	 0.116142
224.2057	259.1397	425.8923	445.1588	547.6459	594.6922	629.1075	646.5087	777.4696	800.4278	829.8905	871.5786	907.6097	914.344	945.9006	956.681	989.3287	1048.4987	1140.2428	1190.3649	1242.9354	1298.5898	1335.8291	1368.3555	1432.9544	1507.3786	1554.6551	1620.6975	1634.5193	3165.653	3197.4001	3214.8481	3251.7636
O1N=CC2=C1C=CC=N2	o1ncc2c1cccn2	
InChI=1S/C6H4N2O/c1-2-6-5(7-3-1)4-8-9-6/h1-4H	InChI=1S/C6H4N2O/c1-2-6-5(7-3-1)4-8-9-6/h1-4H
