20
gdb 99373	2.858	0.75089	0.68541	2.7895	76.25	-0.2348	-0.0283	0.2066	1713.3669	0.167683	-440.299169	-440.288451	-440.287506	-440.337646	36.403	
C	-0.7651431682	 0.3672311987	 0.130794559	-0.393697
C	 0.5669553345	-0.3761557679	-0.0654456491	-0.273603
C	 1.399449824	-0.5207789101	 1.1981072283	 0.385272
O	 2.5552020705	-0.1630853236	 1.252650031	-0.308141
C	 0.7274113548	-1.1308114475	 2.4402717979	-0.28056
N	 1.6568041625	-1.4878382629	 3.4988530848	-0.285509
C	 2.3380574917	-2.7578168977	 3.2690204317	-0.250306
C	 1.4487537615	-3.922908787	 3.6753464132	 0.171745
O	 1.4315508491	-4.9947402771	 3.1286330015	-0.237992
H	-0.6020154316	 1.3747922486	 0.5260006776	 0.131862
H	-1.2850380412	 0.4651290337	-0.8260119929	 0.130592
H	-1.433755859	-0.1618599024	 0.8158661999	 0.129546
H	 0.3629685764	-1.3886041087	-0.4410427819	 0.125319
H	 1.1914968567	 0.1287884788	-0.8070684012	 0.126942
H	 0.0056484447	-0.3906846396	 2.8146054168	 0.133305
H	 0.1300417028	-2.0037470361	 2.149328082	 0.128124
H	 2.3527547052	-0.7508798653	 3.5527717851	 0.235836
H	 2.6996056542	-2.9234787946	 2.24293325	 0.117006
H	 3.2150884749	-2.7984634273	 3.9298077058	 0.131292
H	 0.8020171164	-3.6945886519	 4.5532953603	 0.082965
25.8	39.0857	61.7032	81.6172	115.1235	206.8739	218.8036	243.979	346.2257	380.6698	431.9113	518.5724	539.7608	602.859	731.9313	748.3299	785.9046	831.0786	919.9383	945.9781	1007.2966	1042.0588	1062.1883	1087.2319	1130.9125	1163.919	1197.8026	1245.1611	1273.7775	1282.9245	1332.2846	1351.3918	1359.5169	1403.2236	1413.5151	1451.7428	1466.9251	1470.1631	1503.897	1505.6755	1522.267	1802.3483	1837.3891	2879.8307	2992.3823	3011.6737	3021.9604	3044.0785	3045.7927	3060.4447	3094.9655	3114.8972	3121.4363	3526.9698
CCC(=O)CNCC=O	CCC(=O)CNCC=O	
InChI=1S/C6H11NO2/c1-2-6(9)5-7-3-4-8/h4,7H,2-3,5H2,1H3	InChI=1S/C6H11NO2/c1-2-6(9)5-7-3-4-8/h4,7H,2-3,5H2,1H3
