19
gdb 82722	2.62084	1.84438	1.35564	3.257	78.2	-0.2298	-0.0077	0.2221	994.9574	0.160911	-385.897538	-385.890147	-385.889203	-385.929141	29.833	
C	-0.1247471152	 1.5977520526	 0.0308082981	-0.411771
C	 0.0455772793	 0.0832923281	-0.0277008449	-0.081335
C	 0.819283695	-0.5212307773	-1.2090141444	-0.069959
C	 2.3361500676	-0.1277138787	-1.1709846689	-0.24716
C	 2.6058722372	-1.4356049805	-0.4347069743	-0.055107
C	 1.2314913898	-1.9575290041	-0.7483605339	-0.097398
C	 1.5841942925	-1.6740263453	 0.6943849063	-0.151405
C	 0.7824474876	-0.5109331859	 1.1882557912	 0.40248
O	 0.6833752372	-0.1281336278	 2.3288036268	-0.344119
H	 0.8324799576	 2.1163850736	-0.0811250658	 0.12074
H	-0.795357561	 1.9547212817	-0.7565544186	 0.110668
H	-0.5422694796	 1.881296556	 1.0008943684	 0.139947
H	-0.9497915495	-0.3885073662	-0.0074667785	 0.10102
H	 0.3234829485	-0.4218722019	-2.1736926414	 0.076026
H	 2.7759143521	-0.144916387	-2.1712807374	 0.107855
H	 2.6091887232	 0.8112396718	-0.678645208	 0.103221
H	 3.5457520044	-1.9729752306	-0.3912239732	 0.096316
H	 0.8971935399	-2.9140010481	-1.1271144831	 0.095453
H	 1.8307034033	-2.4735004905	 1.3819060817	 0.10453
114.5821	187.1103	234.7294	240.5542	347.2722	444.2733	497.2308	557.5512	617.7739	660.6538	736.0211	786.1397	804.4849	833.8237	856.058	895.1807	936.0255	954.8332	984.5355	1005.0125	1022.3466	1039.7231	1063.3481	1090.956	1108.4249	1125.1119	1141.9285	1175.7959	1199.7773	1232.2853	1252.8529	1290.7023	1300.1087	1333.0254	1342.6832	1374.206	1408.206	1489.9335	1499.3673	1501.6475	1829.0961	2986.7188	3041.8517	3049.5077	3101.6709	3109.7642	3119.6753	3120.3353	3180.5253	3197.422	3209.0375
CC1C2CC3C2C3C1=O	C[C@H]1[C@H]2C[C@@H]3[C@H]2[C@@H]3C1=O	
InChI=1S/C8H10O/c1-3-4-2-5-6(4)7(5)8(3)9/h3-7H,2H2,1H3	InChI=1S/C8H10O/c1-3-4-2-5-6(4)7(5)8(3)9/h3-7H,2H2,1H3/t3-,4+,5+,6-,7+/m0/s1
