18
gdb 33209	5.85964	0.69439	0.66027	1.9907	75.15	-0.2392	0.0033	0.2426	1692.9283	0.147868	-439.106148	-439.097263	-439.096319	-439.141279	30.806	
C	 0.1039980842	 1.3879881726	-0.0919713951	-0.23057
O	 0.0208922214	-0.0143262829	 0.0027142823	-0.228916
C	 0.6792207903	-0.5275311066	 1.1367453231	-0.048566
C	 0.5143366335	-2.0503893581	 1.1229394758	-0.329912
C	 1.1825463546	-2.7186816183	 2.2688545703	 0.330017
C	 0.7659311575	-3.4160436628	 3.3546662117	-0.19575
N	 1.8639709799	-3.8094852029	 4.1129820303	-0.255198
C	 2.8741035625	-3.3378092699	 3.4623492118	 0.070864
O	 2.5557249507	-2.662653358	 2.3330211191	-0.179758
H	 1.1480246771	 1.7313355459	-0.1654008944	 0.106004
H	-0.4304840517	 1.686782093	-0.9968194784	 0.129293
H	-0.3592635534	 1.8843515965	 0.775431681	 0.105784
H	 1.7491437161	-0.2625232256	 1.122928226	 0.100154
H	 0.2510338355	-0.1090679474	 2.0632013233	 0.092966
H	-0.5517171183	-2.2940225931	 1.1493848143	 0.129384
H	 0.9088772767	-2.4310817983	 0.1735028849	 0.131027
H	-0.2423193791	-3.666970972	 3.6440094445	 0.124338
H	 3.9231797126	-3.4142221619	 3.7015328797	 0.14884
49.8646	76.5493	92.3886	112.1038	226.9839	253.0043	319.5545	341.559	454.7804	663.7182	674.0721	753.8562	797.3473	834.9843	859.8665	940.8843	969.8315	995.0254	1056.2828	1063.3647	1125.5513	1134.6498	1163.0637	1179.8148	1218.5391	1225.4166	1239.8696	1264.0482	1303.3486	1322.8218	1358.4637	1420.0971	1476.3992	1482.0152	1485.3149	1504.8737	1533.6158	1552.1521	1641.5776	2957.8726	2973.7742	2991.6908	3015.644	3043.4685	3100.7212	3116.1218	3263.1108	3276.4421
COCCC1=CN=CO1	COCCc1cnco1	
InChI=1S/C6H9NO2/c1-8-3-2-6-4-7-5-9-6/h4-5H,2-3H2,1H3	InChI=1S/C6H9NO2/c1-8-3-2-6-4-7-5-9-6/h4-5H,2-3H2,1H3
