16
gdb 8302	4.87167	1.21361	1.03915	2.8769	61.55	-0.2637	0.0062	0.2699	1104.5006	0.129435	-420.889992	-420.881902	-420.880958	-420.923387	28.208	
C	 0.369700074	 0.8721197045	 0.3944659213	-0.245166
O	-0.4687361758	 0.3158168685	-0.6053865201	-0.235318
C	 0.2024115313	-0.435297019	-1.584922161	-0.08442
C	 0.5576894125	-1.8461282515	-1.1473699043	 0.119989
C	 1.3264669739	-2.7188033701	-2.1554446147	-0.438776
C	 2.4326896578	-2.6829702133	-1.0996904007	 0.452946
O	 3.5275428152	-3.117340938	-0.951171467	-0.311798
O	 1.7157093405	-1.8954751846	-0.2325654281	-0.250124
H	 0.8480770165	 0.1048481062	 1.0137744993	 0.136275
H	 1.1566554621	 1.4992367387	-0.050934071	 0.108612
H	-0.268121146	 1.4984358382	 1.0222776476	 0.128754
H	-0.485050708	-0.5155009562	-2.4364564569	 0.117188
H	 1.115689474	 0.0764793325	-1.9322764947	 0.095834
H	-0.2981222739	-2.3261114717	-0.6664891608	 0.111288
H	 0.9209645043	-3.7110928249	-2.3564282316	 0.149619
H	 1.5973003416	-2.235655969	-3.0971648173	 0.145099
62.8712	85.7076	125.8795	179.5822	239.5254	362.4732	394.6646	469.5811	522.1543	533.24	731.6573	831.7434	871.0032	934.9975	954.7086	1014.7632	1050.2006	1086.8904	1123.3078	1146.8732	1176.7886	1185.9841	1221.9209	1226.7679	1293.6586	1312.3459	1368.662	1417.6123	1455.3354	1467.2297	1484.3103	1493.7491	1512.1329	1943.5954	2969.6442	2993.7491	3054.2464	3068.3074	3085.3495	3092.8351	3123.5531	3145.9376
COCC1CC(=O)O1	COC[C@H]1CC(=O)O1	
InChI=1S/C5H8O3/c1-7-3-4-2-5(6)8-4/h4H,2-3H2,1H3	InChI=1S/C5H8O3/c1-7-3-4-2-5(6)8-4/h4H,2-3H2,1H3/t4-/m1/s1
