14
gdb 19675	4.86664	1.81077	1.68156	2.3287	63.96	-0.2689	0.0138	0.2826	776.3639	0.109652	-341.536178	-341.530216	-341.529272	-341.566309	23.021	
N	 0.0237956119	-1.2012268333	-0.092608659	-0.329512
C	 0.0132324127	-0.0471463776	-0.0259340386	 0.265854
C	 0.0274615241	 1.4073802087	 0.0713267242	-0.141109
C	-0.0910309699	 2.0988130194	 1.4240911813	-0.057064
C	 1.2693958743	 2.2178891304	 2.0272695371	-0.028693
C	 2.2841792929	 1.595948706	 1.0846132423	-0.247222
C	 1.375226162	 2.1750121409	-0.0131008823	-0.018894
N	 0.8133989354	 3.2216727595	 1.0000193596	-0.16263
H	-0.6926645984	 1.8364513759	-0.630494996	 0.137691
H	-1.0015976026	 2.2802431348	 1.9817312404	 0.115123
H	 1.4009775954	 2.5015843779	 3.0647288226	 0.109192
H	 3.2322692712	 2.1366971094	 1.1258488913	 0.124829
H	 2.4621158252	 0.5171968058	 1.1058299528	 0.129354
H	 1.7570880156	 2.5007414424	-0.9772635458	 0.10308
133.3463	164.6867	383.3118	412.8757	541.5857	563.7254	738.2213	763.939	788.4331	812.2215	834.6645	920.9249	938.4479	982.3851	1010.8117	1028.557	1043.7288	1063.6773	1087.073	1119.9603	1140.9131	1192.7394	1195.7503	1261.6618	1270.8044	1342.4931	1349.1441	1381.0248	1496.4184	2354.4681	3062.8472	3084.4195	3122.1758	3155.6548	3188.2699	3200.4816
N#CC1C2C3CC1N23	N#C[C@H]1[C@H]2[C@H]3C[C@@H]1N23	
InChI=1S/C6H6N2/c7-2-3-4-1-5-6(3)8(4)5/h3-6H,1H2	InChI=1S/C6H6N2/c7-2-3-4-1-5-6(3)8(4)5/h3-6H,1H2/t3-,4+,5-,6+,8?/m1/s1
