21
gdb 96758	2.17317	1.44819	0.97425	2.8713	83.5	-0.2136	0.0352	0.2488	1287.6791	0.180141	-420.393855	-420.382937	-420.381992	-420.430771	37.715	
C	 0.3247200952	 1.3932686636	 0.3624827611	-0.33267
N	 0.24871403	-0.0508027088	 0.2161332616	-0.356268
C	 0.6043996838	-0.6131985648	-0.8604079981	 0.363079
C	 0.4826548429	-2.0833417956	-1.2440409425	 0.021042
O	-0.8018592602	-2.6316061538	-1.104979581	-0.432752
C	 0.9091489208	-1.6333297693	-2.6842939232	 0.003303
C	-0.1486389286	-1.7446769016	-3.7709791965	-0.39032
N	 1.0943735952	-0.286532435	-2.1110046637	-0.09152
C	 1.5768488893	 0.9093426066	-2.7535201177	-0.345175
H	 1.3606589379	 1.7419876722	 0.4844007128	 0.113069
H	-0.1143332443	 1.9402831735	-0.485373248	 0.10554
H	-0.2202344152	 1.6908001361	 1.2631489164	 0.118689
H	 1.237472835	-2.7212422061	-0.7665552424	 0.089219
H	-1.2289077915	-2.1270804979	-0.4011599969	 0.296715
H	 1.857235792	-2.0742725563	-3.0207647425	 0.071363
H	-1.1108800883	-1.3688627174	-3.415873329	 0.127394
H	 0.1461613242	-1.1836362703	-4.6641314325	 0.110468
H	-0.2809945277	-2.7916081991	-4.0599492534	 0.129972
H	 0.8886260812	 1.2691866744	-3.5303252492	 0.12711
H	 1.7014402283	 1.7007016055	-2.0139520543	 0.145958
H	 2.55175839	 0.7256170141	-3.2244397508	 0.125784
35.5306	63.6873	94.5787	147.359	176.0426	196.4174	201.8134	233.7201	248.5126	305.2981	322.3224	426.2065	478.8758	589.1605	630.1997	723.3339	806.491	817.0601	909.2631	1007.6293	1044.912	1072.5245	1073.6325	1108.6605	1124.0797	1145.7561	1161.9106	1183.8473	1203.9054	1268.6473	1282.2568	1370.0665	1373.0385	1378.5907	1405.3389	1411.4117	1437.1912	1457.52	1477.1347	1487.6184	1491.3046	1493.7888	1506.8092	1519.0755	1806.6942	2977.3416	3001.5537	3007.4114	3026.124	3026.6178	3041.0764	3045.3306	3085.2639	3107.5923	3132.0743	3146.3577	3776.6709
CN=C1C(O)C(C)N1C	CN=C1[C@@H](O)[C@@H](C)N1C	
InChI=1S/C6H12N2O/c1-4-5(9)6(7-2)8(4)3/h4-5,9H,1-3H3	InChI=1S/C6H12N2O/c1-4-5(9)6(7-2)8(4)3/h4-5,9H,1-3H3/t4-,5+/m1/s1
