17
gdb 77144	2.97477	1.19737	1.02518	5.8552	71.09	-0.2414	0.0107	0.2521	1192.0101	0.135208	-455.201204	-455.191681	-455.190737	-455.236564	33.217	
C	-0.1220531955	 1.3892028286	 0.0916300027	-0.354437
N	-0.0229647838	-0.0433842554	-0.0349012036	-0.039386
C	-1.0259181208	-1.0947472489	 0.0722295058	-0.099893
C	 0.1502573317	-2.1269823778	 0.0209840048	-0.398745
C	 1.0651297104	-0.8823944686	-0.0565880611	 0.422791
O	 2.2466934576	-0.6726667644	-0.1145635786	-0.367563
C	-1.8006345759	-1.08771678	 1.3912820253	 0.398811
N	-3.004906636	-1.7251933362	 1.3441185682	-0.527083
O	-1.3639437199	-0.5623027793	 2.3956727237	-0.358001
H	 0.893495808	 1.789993408	 0.0550151186	 0.161374
H	-0.7031113155	 1.8256645863	-0.7295349436	 0.121604
H	-0.5819278237	 1.6609724857	 1.0468935043	 0.153255
H	-1.7076629189	-1.1433010611	-0.787032072	 0.081175
H	 0.2844187102	-2.7141638618	 0.9309319221	 0.145306
H	 0.1700528677	-2.7770442371	-0.8549341292	 0.1309
H	-3.3218326693	-2.2150604369	 0.5257327558	 0.262744
H	-3.5170467561	-1.8417232209	 2.2034437169	 0.267147
34.0005	82.2168	131.876	155.0604	195.4118	216.4686	251.3809	298.1534	387.1176	487.4193	555.5466	572.6979	627.3267	698.9146	765.3302	771.4936	822.5579	963.9831	1001.9488	1025.3401	1074.4011	1084.1813	1115.1856	1151.0233	1194.3978	1227.4557	1290.6322	1302.0573	1392.5634	1416.2563	1444.5335	1464.0089	1482.8968	1515.7621	1618.6636	1802.1854	1889.0016	3014.8742	3025.053	3088.4953	3090.6382	3135.8602	3150.4294	3600.2661	3734.5088
CN1C(CC1=O)C(N)=O	CN1[C@@H](CC1=O)C(=O)N	
InChI=1S/C5H8N2O2/c1-7-3(5(6)9)2-4(7)8/h3H,2H2,1H3,(H2,6,9)	InChI=1S/C5H8N2O2/c1-7-3(5(6)9)2-4(7)8/h3H,2H2,1H3,(H2,6,9)/t3-/m0/s1
