19
gdb 78603	3.05404	1.37497	1.12706	1.4002	75.39	-0.2455	0.0627	0.3082	1131.0164	0.158144	-422.949565	-422.94116	-422.940216	-422.981968	33.168	
C	-0.1806599547	 1.5972453624	-0.0101051282	-0.426146
C	-0.0258276061	 0.0846914772	 0.0048608686	-0.001949
C	 1.1990198916	-0.570707118	-0.6787804348	-0.092501
C	 2.1471913005	-0.2709832518	 0.5385351948	-0.111431
C	 2.6161396014	-1.7398411376	 0.5972384504	 0.062498
O	 3.0736232167	-2.2940186511	 1.8079389258	-0.453061
C	 1.1240018607	-1.8299780313	 0.2334444065	 0.365805
O	 0.3534660301	-2.9347598743	-0.0605395873	-0.478627
C	 0.7410804026	-0.5974884473	 1.1616696125	-0.158863
H	 0.7569351561	 2.1076068949	 0.2330941673	 0.112279
H	-0.505253087	 1.9482212951	-0.9961466674	 0.116282
H	-0.934555735	 1.9205910745	 0.7165544409	 0.114295
H	-0.9745341508	-0.4061960143	-0.2399772462	 0.078055
H	 1.4964841077	-0.5670053952	-1.7286647765	 0.072536
H	 2.7291648202	 0.6336956382	 0.6947086445	 0.082286
H	 3.3222168852	-2.05998367	-0.1756440747	 0.085892
H	 2.5537990264	-1.9171137111	 2.5265780446	 0.281566
H	 0.4927424577	-3.5880232795	 0.6343929314	 0.289897
H	 0.4858177267	-0.6188015707	 2.2240852377	 0.061188
165.3762	182.8174	193.414	219.9073	270.709	304.165	311.732	370.6342	422.1397	533.0237	610.686	664.475	744.3255	757.8627	834.4082	855.0198	861.0396	898.7716	944.3598	973.3515	1018.4945	1028.0798	1063.1005	1066.7285	1103.7403	1112.3207	1138.3573	1146.8887	1165.426	1203.6808	1223.6055	1245.4429	1272.7138	1287.7503	1314.3079	1388.5377	1399.2948	1414.5397	1451.4149	1494.9192	1498.4611	3027.2362	3043.2818	3068.9642	3076.5719	3088.5058	3099.8562	3103.0225	3152.5971	3800.267	3800.9504
CC1C2C3C(O)C2(O)C13	C[C@H]1[C@H]2[C@@H]3[C@@H](O)[C@@]2(O)[C@H]13	
InChI=1S/C7H10O2/c1-2-4-3-5(2)7(4,9)6(3)8/h2-6,8-9H,1H3	InChI=1S/C7H10O2/c1-2-4-3-5(2)7(4,9)6(3)8/h2-6,8-9H,1H3/t2-,3-,4-,5+,6-,7-/m1/s1
