20
gdb 76990	2.98166	1.31706	1.08437	2.2076	78.75	-0.2399	-0.0301	0.2098	1176.7806	0.168828	-403.118099	-403.108778	-403.107834	-403.152113	34.495	
C	 0.1361843438	 1.7390946392	 0.1615875939	-0.411513
C	 0.1117304048	 0.2172269001	 0.0988742833	-0.070061
C	 1.0800654832	-0.587428949	-0.8283436214	-0.066038
C	 2.1512756708	 0.1079034419	-1.6339263003	 0.138613
O	 1.9770080715	 1.1091921696	-2.2818459499	-0.24926
N	 1.5880900272	-1.4332730455	 0.3065934655	-0.190646
C	 2.1878861046	-0.4719309429	 1.2649627662	-0.30099
C	 0.7190744012	-0.6024488953	 1.2487532624	 0.358637
C	-0.0741749728	-1.2138588508	 2.3654116129	-0.493614
H	 1.1336408417	 2.1280902877	 0.3826250493	 0.11941
H	-0.1775605363	 2.1733158178	-0.7910713472	 0.138655
H	-0.5446757092	 2.0947349753	 0.9428247532	 0.112615
H	-0.9129204536	-0.1181769513	-0.0876644332	 0.085202
H	 0.5325789842	-1.228182052	-1.5301538053	 0.11462
H	 3.1409273278	-0.4047981938	-1.604729626	 0.092745
H	 2.7264851552	-0.9677894039	 2.0664932336	 0.123693
H	 2.6796782767	 0.4242444491	 0.8908193906	 0.117369
H	-0.3961200212	-0.4448370888	 3.0774123784	 0.125619
H	-0.9698953746	-1.7164517336	 1.9848991352	 0.123709
H	 0.523167115	-1.9503169336	 2.9102691689	 0.131236
68.2331	140.5608	159.1071	177.4184	208.88	224.8247	257.9419	324.5736	368.8766	495.0244	508.9072	625.1246	650.8623	697.8429	741.5247	779.644	873.4484	919.2741	976.1186	983.3665	1018.8904	1056.4252	1062.2882	1098.8525	1107.4092	1124.7245	1139.1548	1170.107	1220.804	1241.6524	1292.678	1332.3797	1360.6528	1397.3114	1406.6191	1415.6258	1426.2028	1482.7923	1490.207	1492.7622	1496.402	1511.053	1822.0814	2865.9359	3029.0161	3035.0191	3038.8344	3060.8139	3090.7648	3099.94	3107.2866	3113.6261	3123.5331	3193.3998
CC1C(C=O)N2CC12C	C[C@H]1[C@@H](C=O)N2C[C@@]12C	
InChI=1S/C7H11NO/c1-5-6(3-9)8-4-7(5,8)2/h3,5-6H,4H2,1-2H3	InChI=1S/C7H11NO/c1-5-6(3-9)8-4-7(5,8)2/h3,5-6H,4H2,1-2H3/t5-,6+,7-,8?/m0/s1
