23
gdb 82222	2.29315	1.9465	1.41395	0.1917	87.6	-0.2522	0.0821	0.3343	1044.1908	0.209312	-351.144567	-351.13701	-351.136066	-351.17591	32.332	
C	-0.0551276468	 1.5809588066	 0.0218967911	-0.3972
C	 0.050787265	 0.0507313475	 0.0132345824	 0.012291
C	 0.7118896615	-0.5043514347	-1.2585689642	-0.026363
C	 2.0917003919	-0.0982712553	-1.7365272067	-0.311893
C	 1.8910655209	-1.433987563	-1.0696397066	-0.018073
C	 2.2728921722	-1.6724257297	 0.3858857951	-0.023719
C	 2.2799918036	-0.3608718886	 1.2202082218	-0.237191
C	 0.7346541657	-0.5036995262	 1.2826357604	 0.002654
C	 0.9659355833	-2.039136307	 1.1567545284	-0.231747
H	 0.9328194116	 2.0527565274	 0.0392556472	 0.112822
H	-0.575496338	 1.9425058416	-0.871069075	 0.110282
H	-0.6084431087	 1.9323641063	 0.8999521928	 0.105801
H	-0.9736351134	-0.3476485981	 0.023483083	 0.06873
H	 0.0128269895	-0.7456376799	-2.0537552477	 0.077975
H	 2.2538145511	-0.0917803693	-2.8094884216	 0.102795
H	 2.6357934447	 0.6795637359	-1.214860388	 0.110739
H	 1.9446552358	-2.317913844	-1.6995047122	 0.07683
H	 3.1384519203	-2.3334935266	 0.4752029138	 0.055929
H	 2.7288400635	-0.5361075518	 2.2019385946	 0.09335
H	 2.7184482449	 0.5467575231	 0.8004393988	 0.089824
H	 0.2254857173	-0.136202883	 2.1783576466	 0.051295
H	 0.214780897	-2.6312386147	 0.6249586394	 0.085578
H	 1.1714898568	-2.4947549463	 2.1294996168	 0.08929
164.4683	212.6398	230.6431	326.673	347.1601	415.3369	427.575	478.2411	566.9992	611.2498	702.2633	766.8883	818.1071	827.6647	842.5271	887.5729	900.2039	919.2145	941.6408	961.047	975.9821	1006.7465	1040.7622	1047.1811	1066.1465	1078.998	1104.4318	1120.1971	1128.8935	1130.3672	1139.7842	1151.8048	1175.9066	1233.3994	1248.3004	1265.1055	1271.1713	1316.9001	1339.6358	1348.6251	1364.4367	1383.6279	1401.705	1412.75	1474.4264	1491.0096	1496.0855	1499.4541	1518.8795	2997.6223	3028.3217	3043.2413	3054.1957	3063.226	3073.5185	3094.5346	3099.6327	3101.9921	3108.1018	3133.3212	3135.2757	3146.8314	3216.5834
CC1C2CC2C2CC1C2	C[C@H]1[C@H]2C[C@H]2[C@H]2C[C@@H]1C2	
InChI=1S/C9H14/c1-5-6-2-7(3-6)9-4-8(5)9/h5-9H,2-4H2,1H3	InChI=1S/C9H14/c1-5-6-2-7(3-6)9-4-8(5)9/h5-9H,2-4H2,1H3/t5-,6-,7+,8-,9+/m1/s1
