21
gdb 113204	2.75252	1.12563	0.98166	1.3363	75.19	-0.2365	0.0627	0.2992	1315.1832	0.179304	-461.332325	-461.321947	-461.321003	-461.367455	38.472	
C	-0.2880647038	 1.0821428691	-0.2529928654	-0.249552
O	 0.4156812922	-0.1040331889	 0.0985215671	-0.255464
C	 0.9749761089	-0.7265747939	-1.023259287	 0.026559
C	 1.4427277519	-2.147767966	-0.8408331314	-0.398844
C	 0.1743464402	-1.8573191667	-1.6152915137	 0.406742
O	-1.0548312285	-2.1307658727	-0.9917213275	-0.494318
C	 0.0573574757	-2.0515538187	-3.1116533345	 0.080967
C	-0.1701227075	-3.5170387026	-3.4936134929	-0.399063
O	-0.9807505256	-1.2162541217	-3.6105549967	-0.442585
H	 0.4011500526	 1.8474802804	-0.6359835099	 0.120766
H	-1.0495428397	 0.8851696764	-1.0188126782	 0.125753
H	-0.7643859106	 1.4538968718	 0.6567280069	 0.130928
H	 1.5381494862	-0.06236396	-1.6786423251	 0.094356
H	 2.3387141497	-2.4599640209	-1.367334154	 0.11752
H	 1.3144702233	-2.5811833977	 0.1454819352	 0.124819
H	-1.0820449067	-1.5765373833	-0.1988760222	 0.291385
H	 0.981768788	-1.6919909297	-3.5800439315	 0.079509
H	-1.0662548644	-3.9042308389	-2.9992421803	 0.127668
H	-0.3032331848	-3.6025291707	-4.5750986381	 0.118169
H	 0.6791321779	-4.1391642334	-3.192679481	 0.111892
H	-1.736338575	-1.3788525519	-3.0314220497	 0.282795
74.072	97.7371	117.1301	169.1241	219.493	245.7534	258.6811	283.7393	306.0504	380.8803	425.2659	453.0827	483.1927	493.0689	557.6476	645.1956	752.0112	802.7086	879.8363	885.647	947.5216	998.5806	1020.4276	1053.7638	1069.9068	1098.6508	1109.6088	1118.3156	1153.5637	1184.5575	1208.221	1244.1327	1260.6698	1317.8546	1349.0703	1368.4849	1400.2461	1417.185	1440.2385	1470.8742	1486.2871	1488.6276	1492.0365	1503.1056	1510.8752	2999.7454	3037.1134	3039.6991	3058.2167	3103.078	3111.8517	3124.4016	3127.0767	3128.7105	3220.8184	3735.1788	3776.446
COC1CC1(O)C(C)O	CO[C@H]1C[C@]1(O)[C@@H](C)O	
InChI=1S/C6H12O3/c1-4(7)6(8)3-5(6)9-2/h4-5,7-8H,3H2,1-2H3	InChI=1S/C6H12O3/c1-4(7)6(8)3-5(6)9-2/h4-5,7-8H,3H2,1-2H3/t4-,5+,6+/m1/s1
