22
gdb 119244	2.09327	1.00972	0.7521	3.3821	83.	-0.2367	-0.0181	0.2186	1580.1005	0.1922	-404.336678	-404.326297	-404.325352	-404.373335	37.088	
C	 2.0170892037	 1.0077914818	-3.3162524091	-0.382336
C	 2.1046613842	-0.3700078722	-2.6516672113	-0.195717
C	 0.7377132527	-0.8613280251	-2.1621317044	-0.241594
C	 0.6929499233	-2.1738844606	-1.3845349658	 0.28829
C	-0.7228910244	-2.6281316519	-1.0422310607	-0.319965
C	-1.3992670166	-1.6834674674	-0.0700552418	 0.159239
O	-2.4952822562	-1.2059864972	-0.2202426601	-0.247276
C	 1.745374684	-3.2107535447	-1.5449052066	-0.283681
N	 1.6512324181	-2.4365975443	-0.291705252	-0.346059
H	 1.3390510954	 0.9879345143	-4.1761854467	 0.120617
H	 1.641371331	 1.7621026699	-2.6166380994	 0.121047
H	 2.9973726051	 1.3391992319	-3.6713503199	 0.115649
H	 2.5231574333	-1.0880178885	-3.3664565022	 0.106834
H	 2.8145116224	-0.3161118058	-1.8153943505	 0.094821
H	 0.2846759193	-0.0792185296	-1.5353671494	 0.11092
H	 0.0692231837	-0.9605524842	-3.0279046223	 0.110584
H	-1.3458257405	-2.7255006766	-1.9366383681	 0.114294
H	-0.6637034517	-3.6065083504	-0.548510405	 0.125248
H	-0.7881628534	-1.4569773596	 0.8321104356	 0.089563
H	 1.4857642554	-4.2624762054	-1.45560036	 0.114419
H	 2.5776988392	-3.0106103198	-2.2119365304	 0.115013
H	 2.3768205321	-1.7243981046	-0.2760066898	 0.230088
52.2199	55.9615	83.7468	104.0983	168.3548	225.0015	249.3676	306.0583	343.2783	364.9277	406.3217	479.9153	547.1123	712.5932	744.1102	804.7202	840.2236	874.1783	903.1672	942.2598	957.9839	983.281	1021.6933	1049.8671	1054.8975	1079.9074	1119.7157	1132.5059	1152.1225	1207.4138	1258.5506	1268.2526	1290.8319	1304.0655	1339.0161	1344.1183	1381.4562	1411.5224	1417.9047	1418.7804	1450.4422	1481.1617	1490.4567	1500.2127	1507.6959	1516.7757	1829.7331	2888.5349	3002.6913	3013.1623	3031.3297	3033.3702	3035.5771	3059.9413	3098.2691	3102.0966	3107.9499	3113.1448	3199.1472	3503.0342
CCCC1(CC=O)CN1	CCC[C@@]1(CC=O)CN1	
InChI=1S/C7H13NO/c1-2-3-7(4-5-9)6-8-7/h5,8H,2-4,6H2,1H3	InChI=1S/C7H13NO/c1-2-3-7(4-5-9)6-8-7/h5,8H,2-4,6H2,1H3/t7-/m1/s1
