14
gdb 125152	2.72855	1.56159	0.99934	2.3022	66.59	-0.275	-0.0687	0.2063	1098.3426	0.099943	-470.026177	-470.017676	-470.016732	-470.059828	30.038	
C	-0.0004654314	 1.513056685	 0.1519179191	-0.505525
C	 0.0244147075	 0.0350089802	-0.0139224591	 0.181662
C	 0.0184522655	-0.7508795326	-1.1295614648	 0.261477
O	 0.0514527177	-2.0365898038	-0.7518813479	-0.243377
N	 0.0775848688	-2.0344252336	 0.6758989635	-0.007165
N	 0.0608662725	-0.8381966694	 1.0575676459	-0.16022
C	-0.016928625	-0.4091059088	-2.5774265618	 0.334534
N	-0.0118340333	-1.4819909525	-3.4090111448	-0.532865
O	-0.0468469025	 0.7487857921	-2.9532119205	-0.355005
H	 0.8923854556	 1.8556851691	 0.6846940199	 0.147807
H	-0.0409436391	 1.990420155	-0.8266739603	 0.17552
H	-0.8701531486	 1.8191537885	 0.7418822931	 0.147702
H	 0.0113935272	-2.4243003421	-3.0587171005	 0.281876
H	-0.0363722147	-1.3159974571	-4.401336892	 0.273578
63.8029	99.3402	179.0047	185.9044	243.57	287.0061	309.9201	417.4102	486.2589	555.1441	647.884	664.2529	672.0497	700.7003	710.8097	803.2547	991.5145	1023.7153	1073.2469	1093.2709	1152.0271	1227.1874	1313.3627	1402.6001	1420.9938	1462.5211	1481.9008	1489.978	1611.0391	1650.9147	1785.4596	3047.203	3102.0812	3166.3979	3605.163	3743.1031
CC1=C(ON=N1)C(N)=O	Cc1c(onn1)C(=O)N	
InChI=1S/C4H5N3O2/c1-2-3(4(5)8)9-7-6-2/h1H3,(H2,5,8)	InChI=1S/C4H5N3O2/c1-2-3(4(5)8)9-7-6-2/h1H3,(H2,5,8)
