20
gdb 67959	2.22709	1.77275	1.28017	3.8467	78.47	-0.2395	0.0373	0.2768	1069.2468	0.172485	-403.201255	-403.193049	-403.192105	-403.233727	32.445	
C	-0.0309093462	 1.5237600829	-0.0254065525	-0.460794
C	-0.0079403956	 0.0042893541	 0.0191211219	 0.35638
C	-1.3846053786	-0.6762654093	-0.1036105013	-0.241956
C	-1.2236930516	-2.0446033518	 0.5863366317	-0.222532
C	-0.2814699902	-1.7543663406	 1.7733860398	-0.219162
C	 0.7056761205	-0.7148127333	 1.2260048998	-0.23139
C	 1.687265603	-1.2730650962	 0.166317712	 0.436355
O	 2.6296734896	-2.0210212788	 0.172080064	-0.377188
N	 1.0334706329	-0.6034856357	-0.8379678522	-0.36241
H	 0.975027405	 1.9332473103	 0.1049153807	 0.123988
H	-0.4201966982	 1.8843385434	-0.9846882768	 0.116997
H	-0.6747827527	 1.9254267563	 0.7635819363	 0.121332
H	-2.124881237	-0.0706373416	 0.4334521678	 0.100227
H	-1.720684836	-0.74925281	-1.1431567378	 0.094705
H	-2.1785070575	-2.4762475824	 0.8968595749	 0.098775
H	-0.7538440545	-2.7585868341	-0.098306507	 0.116621
H	-0.8459137599	-1.3208584043	 2.6072914022	 0.099646
H	 0.2258553265	-2.6477744852	 2.1475520234	 0.120181
H	 1.1699816769	-0.0779936819	 1.9803289625	 0.090044
H	 1.1324088736	-0.6551982119	-1.8425990396	 0.240179
84.9873	179.435	228.453	245.1625	286.8268	338.5162	376.0425	402.9448	510.0554	573.5366	589.3652	619.1229	721.9809	772.0793	827.6989	874.7212	892.8441	913.1993	928.5071	944.8915	995.6142	1032.9831	1057.8713	1103.5625	1114.7256	1139.5968	1174.6203	1214.8751	1233.1212	1266.237	1275.1556	1288.5414	1331.1928	1343.1099	1353.9691	1381.546	1414.8333	1478.6855	1486.7513	1490.3746	1497.7082	1503.4997	1886.36	3028.5633	3034.0525	3037.7645	3052.4973	3079.8613	3094.2036	3095.3536	3104.6656	3108.486	3113.4886	3587.9032
CC12CCCC1C(=O)N2	C[C@]12CCC[C@H]1C(=O)N2	
InChI=1S/C7H11NO/c1-7-4-2-3-5(7)6(9)8-7/h5H,2-4H2,1H3,(H,8,9)	InChI=1S/C7H11NO/c1-7-4-2-3-5(7)6(9)8-7/h5H,2-4H2,1H3,(H,8,9)/t5-,7-/m0/s1
