19
gdb 26260	2.58251	1.43778	1.00818	2.4068	77.89	-0.2207	0.022	0.2427	1198.7821	0.160151	-419.246258	-419.237152	-419.236207	-419.280094	33.551	
C	 0.9491304593	-1.0263847207	-1.0493513744	-0.399584
C	 0.1260797055	-0.4749986603	 0.1144847673	-0.001988
O	 0.26489548	 0.9526507926	 0.2186560768	-0.426517
C	-1.3150700756	-0.8748536795	 0.0387164589	 0.263228
C	-2.061445775	-1.5064253566	-0.9292386473	-0.176612
N	-3.3762983855	-1.616270519	-0.549620318	-0.277347
C	-3.4290559758	-1.0565983154	 0.6382811071	-0.001123
N	-2.2183882352	-0.5880583353	 1.0506887199	-0.051361
C	-1.9284688111	 0.0640172098	 2.3150399214	-0.350427
H	 1.9801750339	-0.6762070077	-0.9622327091	 0.12556
H	 0.9449672127	-2.1201348539	-1.0528510688	 0.127317
H	 0.5486427463	-0.6807977399	-2.0085680532	 0.118296
H	 0.5629711265	-0.8393648443	 1.0534837545	 0.094158
H	-0.1899713061	 1.3335338838	-0.5419290301	 0.279564
H	-1.7196141503	-1.892652962	-1.8776563304	 0.107359
H	-4.3131343759	-0.9525146858	 1.2513894806	 0.124095
H	-1.3841587265	-0.6054914381	 2.9902366466	 0.139313
H	-1.3229910523	 0.9545098565	 2.1385188736	 0.166802
H	-2.8691793049	 0.346830136	 2.7912012747	 0.139265
75.0933	134.201	156.6687	191.9975	211.4544	252.9015	295.4813	346.3934	395.3018	444.0418	514.2928	616.1752	675.6057	708.7388	737.498	819.4318	855.6377	889.177	932.4779	1021.8816	1079.1843	1082.4607	1098.7967	1151.6678	1157.0347	1194.8644	1259.1249	1279.7472	1298.9192	1353.2412	1385.4238	1402.0314	1416.0243	1418.1267	1450.4596	1484.197	1490.3963	1497.2186	1519.7244	1535.3948	1588.2806	3021.2724	3039.4589	3040.3414	3110.7746	3113.0483	3130.6147	3150.3565	3238.516	3246.8208	3790.0498
CC(O)C1=CN=CN1C	C[C@@H](O)c1cncn1C	
InChI=1S/C6H10N2O/c1-5(9)6-3-7-4-8(6)2/h3-5,9H,1-2H3	InChI=1S/C6H10N2O/c1-5(9)6-3-7-4-8(6)2/h3-5,9H,1-2H3/t5-/m1/s1
