15
gdb 18776	4.19961	2.42093	2.1187	0.3206	62.39	-0.2429	0.0606	0.3035	694.6136	0.119801	-362.567109	-362.56128	-362.560336	-362.596749	23.536	
C	-0.0415208327	 1.4387200618	-0.0097237097	-0.523183
C	 0.0636805328	-0.0485907806	 0.0802781039	 0.350714
C	 0.9851897556	-0.9312971785	-0.6887568454	-0.114532
C	 1.0061953599	-2.1575704723	 0.256185553	 0.060259
O	 1.0319964201	-1.6603579784	 1.6144387168	-0.291489
C	-0.2118132233	-1.0041333987	 1.2784506664	 0.005187
C	-0.5381703132	-2.0327411226	 0.1673001167	-0.033716
N	-0.4969876754	-0.9884379072	-0.955283096	-0.220662
H	 0.6948478337	 1.9192429162	 0.6438272909	 0.130648
H	 0.139048396	 1.7740925724	-1.0353215373	 0.135438
H	-1.0378702272	 1.7845564808	 0.285029469	 0.12779
H	 1.6960087865	-0.5951798393	-1.433107259	 0.099651
H	 1.636591445	-3.0248871577	 0.0739571289	 0.092269
H	-0.814569937	-0.6992478644	 2.1317138339	 0.088869
H	-1.2807712508	-2.8268647216	 0.179402508	 0.092758
183.0525	236.8863	279.5866	533.427	573.7723	629.0346	755.9424	766.3906	806.6933	816.5878	848.7612	856.1991	875.9533	923.0149	936.656	966.0545	990.7258	1011.4371	1061.7669	1095.2935	1123.3523	1159.4729	1185.3945	1207.9635	1226.8488	1251.0551	1282.2004	1312.107	1401.1465	1434.2321	1482.7973	1491.8331	3032.0503	3096.5621	3111.1248	3140.0043	3146.7522	3157.0774	3197.2833
CC12C3C4OC1C4N23	C[C@@]12[C@H]3[C@H]4O[C@@H]1[C@H]4N23	
InChI=1S/C6H7NO/c1-6-4-3-2(7(4)6)5(6)8-3/h2-5H,1H3	InChI=1S/C6H7NO/c1-6-4-3-2(7(4)6)5(6)8-3/h2-5H,1H3/t2-,3-,4+,5+,6+,7?/m0/s1
