16
gdb 54296	2.90564	0.71573	0.64752	1.6999	71.19	-0.1793	0.0462	0.2255	1698.6777	0.122048	-471.210889	-471.200135	-471.199191	-471.249855	35.399	
N	-0.8388756481	 0.8024132209	-0.2124790942	-0.564625
C	-0.2319522973	-0.4768907659	-0.2172840932	 0.056048
N	 0.8750021658	-0.5411651511	 0.6496305692	-0.572883
H	 0.6442456436	-0.1530226947	 1.5594476004	 0.256873
H	 1.2062013457	-1.4917414227	 0.7592408882	 0.245402
C	-0.6560087759	-1.4896064786	-0.9574640458	 0.348379
C	-1.4757347973	-2.099371156	-1.9754160145	-0.346968
N	-0.5076885437	-2.8950061025	-1.1288361774	-0.377954
C	-1.9076229434	 1.4164026737	 2.4961291219	 0.592809
O	-2.8490374022	 1.9264558786	 2.0460035481	-0.296295
O	-0.9806752619	 0.9185946684	 2.9961739838	-0.305602
H	-0.1583895815	 1.5302590314	-0.4116110051	 0.244315
H	-1.5979812408	 0.858927368	-0.8796050118	 0.246851
H	-2.5214065166	-2.3402367409	-1.7932255216	 0.12585
H	-1.2276631705	-1.9538162867	-3.0268218682	 0.115461
H	 0.318426374	-3.1164006819	-1.68754113	 0.232338
20.645	31.2083	68.573	86.9056	115.6773	173.97	189.9412	238.2809	337.9709	372.6931	414.2077	539.9746	575.4741	657.505	661.2471	689.4117	830.3123	845.2615	900.5266	934.0944	978.2475	1018.7008	1070.1959	1134.8089	1160.8767	1192.6396	1246.0363	1353.916	1364.5195	1376.0722	1507.1564	1630.5584	1645.1105	1903.3856	2430.7736	3079.3664	3157.734	3415.3187	3494.7311	3507.0442	3610.5348	3611.0586
NC(=[NH2+])C1(CN1)C([O-])=O	[NH2]=C(N)[C]1CN1.C(=O)=O	
InChI=1S/C4H7N3O2/c5-2(6)4(1-7-4)3(8)9/h7H,1H2,(H3,5,6)(H,8,9)	InChI=1S/C3H7N3.CO2/c4-3(5)2-1-6-2;2-1-3/h6H,1,4-5H2;
