19
gdb 94550	2.47815	1.55642	1.28759	1.449	70.48	-0.2523	0.0674	0.3197	1065.5963	0.158149	-460.122242	-460.11351	-460.112566	-460.155635	32.997	
C	 0.1905933415	 1.4959242608	-0.5586740552	-0.471802
C	-0.1013835632	 0.0877482937	-0.0961228608	 0.375159
C	 0.9531117668	-0.9321786456	-0.0165212456	-0.217808
O	 0.4874972551	-0.2754755476	 1.1726858562	-0.301288
C	-1.5434841383	-0.3588517074	-0.2365299206	 0.018997
O	-1.7438048348	-1.7599420287	 0.0304097726	-0.291486
C	-2.4995857838	-1.4932769088	 1.2333382812	-0.108278
C	-2.4708356538	 0.0282458379	 0.9634749163	 0.083056
O	-1.9774636379	 0.8837762423	 1.9512455936	-0.432931
H	 1.2339945596	 1.7533450172	-0.3621097728	 0.130402
H	-0.0001304508	 1.6013400025	-1.6317844053	 0.124407
H	-0.4483292676	 2.2057397109	-0.0239409012	 0.145669
H	 0.6784754476	-1.9799560137	-0.0956488912	 0.137461
H	 1.9678485865	-0.6715259033	-0.3131912751	 0.113162
H	-1.9165513408	-0.0858494805	-1.2325160156	 0.075726
H	-3.4789572621	-1.984258889	 1.2183329362	 0.105058
H	-1.9525355179	-1.7888275214	 2.1370173853	 0.107623
H	-3.4335933851	 0.4372469459	 0.6506813257	 0.101511
H	-1.1126303509	 0.546056905	 2.2199656463	 0.305362
81.2295	104.2647	180.5936	197.2668	244.5543	328.6647	339.8139	384.0967	430.1552	510.8578	545.8672	581.717	720.4833	775.1231	825.9297	862.5906	914.3531	931.3982	964.3024	1013.7136	1020.5262	1050.5403	1057.6183	1101.1535	1131.8957	1153.381	1167.1547	1180.4905	1232.5453	1247.0733	1263.7741	1325.5688	1343.9811	1382.6743	1392.1423	1413.5126	1459.3014	1481.129	1500.2098	1509.5759	1518.0321	3016.5315	3023.3063	3040.6708	3071.2104	3096.9861	3098.5397	3108.8633	3127.9804	3200.9256	3765.1472
CC1(CO1)C1OCC1O	C[C@]1(CO1)[C@H]1OC[C@H]1O	
InChI=1S/C6H10O3/c1-6(3-9-6)5-4(7)2-8-5/h4-5,7H,2-3H2,1H3	InChI=1S/C6H10O3/c1-6(3-9-6)5-4(7)2-8-5/h4-5,7H,2-3H2,1H3/t4-,5+,6+/m1/s1
