21
gdb 119911	2.40213	1.06348	0.92946	1.3455	75.76	-0.2244	0.0727	0.2971	1396.2003	0.178494	-461.331702	-461.320876	-461.319931	-461.367618	39.158	
C	-0.1945637412	 1.4160434342	 0.1011897681	-0.38994
C	-0.331180656	-0.0292254478	-0.34260683	-0.036611
O	-1.2285587997	-0.6879814925	 0.5470919164	-0.265534
C	-1.4361751845	-2.034454497	 0.263913865	 0.011809
C	-2.7192734449	-2.5748752858	 0.845072529	 0.013724
O	-3.5484690343	-1.6900345588	 1.5329224252	-0.431166
C	-2.5572895537	-2.4603967635	-0.6655547644	 0.281503
C	-3.3732582758	-1.4554701592	-1.4395908916	-0.442336
O	-2.250965186	-3.6535424839	-1.3426071937	-0.456496
H	 0.4997111412	 1.9492003543	-0.554817688	 0.120914
H	-1.1626792569	 1.9240992616	 0.0655931547	 0.126972
H	 0.1848708712	 1.4700911226	 1.1255026243	 0.129373
H	-0.7110814529	-0.0926608504	-1.3716266306	 0.104207
H	 0.6439321596	-0.5394409201	-0.319622445	 0.098143
H	-0.5441241594	-2.6608476447	 0.2744125692	 0.098106
H	-2.7020839283	-3.5774481599	 1.2670667962	 0.097654
H	-3.0279343638	-0.8910771267	 1.6877192331	 0.299112
H	-3.4989560482	-0.5312114765	-0.8736138772	 0.127644
H	-2.8946942721	-1.2279683014	-2.3971922502	 0.119427
H	-4.3737152876	-1.8540080952	-1.6465822519	 0.111809
H	-3.0588869165	-4.1777357591	-1.3947882687	 0.281686
65.3711	89.816	107.8125	160.0345	175.9516	236.8874	239.6396	270.0199	300.9316	323.4054	344.6604	397.3308	419.9086	503.3139	557.3271	628.0219	731.218	819.1117	859.1988	879.6205	918.2209	974.2367	1021.5555	1053.5951	1079.6808	1112.3427	1142.8619	1168.9583	1185.1634	1188.634	1224.5475	1296.4071	1298.8941	1319.8938	1333.3672	1378.5045	1402.6215	1409.8568	1425.3211	1458.6709	1483.0146	1484.5503	1499.666	1502.6759	1526.7893	2988.5994	3027.9329	3031.9022	3045.391	3091.5735	3104.2258	3120.1027	3122.7677	3131.2581	3141.3463	3764.4086	3780.8178
CCOC1C(O)C1(C)O	CCO[C@H]1[C@@H](O)[C@]1(C)O	
InChI=1S/C6H12O3/c1-3-9-5-4(7)6(5,2)8/h4-5,7-8H,3H2,1-2H3	InChI=1S/C6H12O3/c1-3-9-5-4(7)6(5,2)8/h4-5,7-8H,3H2,1-2H3/t4-,5+,6+/m1/s1
