16
gdb 35238	3.23164	1.23069	1.06719	3.1561	69.86	-0.2667	0.0198	0.2865	1126.8662	0.124816	-437.878861	-437.870944	-437.869999	-437.912234	28.846	
N	-0.0637145739	-1.0279574164	-0.3276989105	-0.341474
C	-0.0293318636	 0.1210628608	-0.188671664	 0.290597
C	 0.0666520876	 1.5394368997	-0.0199852232	-0.259571
C	 0.531975576	 2.1214886354	 1.3213920243	-0.354511
C	 1.4433883324	 2.1957015322	 0.1589200113	 0.403699
C	 2.7577393434	 1.4250092824	-0.0161814736	-0.175889
O	 3.5521689008	 2.3013907833	-0.8103788787	-0.239658
C	 2.6636469921	 3.2161953941	-1.3971879402	 0.009993
O	 1.640327514	 3.4400593802	-0.4422422402	-0.265277
H	-0.658621691	 2.1276376914	-0.5709332319	 0.144891
H	 0.0454187767	 3.0371200924	 1.6367359813	 0.14711
H	 0.7653396152	 1.4200187721	 2.1143971468	 0.147355
H	 3.2777153028	 1.2543021939	 0.9306993742	 0.128576
H	 2.5988510993	 0.4614104897	-0.5164275526	 0.13752
H	 3.1813714147	 4.1584403996	-1.5892418423	 0.130969
H	 2.2301976134	 2.8115276792	-2.3287105308	 0.095672
45.2208	120.0783	137.0384	234.7738	304.7893	337.5175	422.5267	515.5592	546.9775	600.1288	744.0719	797.6286	811.9626	862.5554	896.4477	944.2828	969.7673	1024.2059	1058.8318	1083.5592	1091.8157	1112.2043	1114.7802	1175.0092	1216.7133	1238.1634	1245.4387	1312.9723	1362.6867	1393.9756	1436.8743	1479.2086	1521.3034	1541.1123	2345.3502	2951.24	3028.2937	3087.1544	3111.6552	3143.8743	3180.8702	3239.324
N#CC1CC11COCO1	N#C[C@H]1C[C@]21COCO2	
InChI=1S/C6H7NO2/c7-2-5-1-6(5)3-8-4-9-6/h5H,1,3-4H2	InChI=1S/C6H7NO2/c7-2-5-1-6(5)3-8-4-9-6/h5H,1,3-4H2/t5-,6-/m1/s1
