23
gdb 96073	2.47929	1.49483	1.07365	1.7024	85.23	-0.253	0.0828	0.3358	1229.6364	0.20641	-388.309862	-388.300844	-388.2999	-388.342987	35.594	
C	-0.009081012	 1.5546688522	 0.065777911	-0.403228
C	 0.0311302948	 0.0224711096	-0.0097083269	 0.002941
C	 0.6951990894	-0.475977569	-1.3037556681	-0.199876
C	 0.8535851531	-1.9992024197	-1.2951354919	-0.216441
C	 1.791879689	-2.4750294887	-0.17445331	-0.262852
C	 1.567174788	-1.7634117666	 1.1567938364	 0.391321
C	 1.7697606971	-2.5996964278	 2.4000994343	-0.469146
O	 2.1544660996	-0.446838505	 1.2334488665	-0.298858
C	 0.7247595467	-0.5529781753	 1.2107262318	 0.009749
H	 1.0064023769	 1.9623349754	 0.1000938912	 0.130817
H	-0.5165124445	 1.9771988356	-0.8075279897	 0.109467
H	-0.5392510481	 1.89744479	 0.9607935506	 0.108835
H	-1.0031602944	-0.3540064137	 0.0114196201	 0.070393
H	 0.0930249179	-0.1590841212	-2.1625983792	 0.088593
H	 1.6779542212	-0.0009392632	-1.4083746293	 0.108346
H	-0.1354889766	-2.4574384969	-1.1589941524	 0.092571
H	 1.2272016465	-2.3534545353	-2.2619427666	 0.093017
H	 1.6795047048	-3.5553672466	-0.030424851	 0.094777
H	 2.8377186465	-2.3077206475	-0.4608494022	 0.112277
H	 2.7706038554	-3.0465794937	 2.4018836875	 0.123642
H	 1.6687342209	-1.987165122	 3.2996320575	 0.124276
H	 1.040380588	-3.4158842705	 2.4461233672	 0.117085
H	 0.2514626497	-0.3083843099	 2.1655179832	 0.072295
101.5962	157.0751	213.0854	227.5792	238.8326	267.2092	357.046	359.8797	381.4791	443.7526	456.4834	575.3482	607.4886	711.6557	770.9549	837.4172	856.5567	880.0324	909.8665	955.8232	985.3059	988.9957	1001.123	1045.261	1073.6045	1081.0361	1109.878	1141.2907	1179.2514	1197.7222	1226.0241	1243.8683	1294.0854	1323.291	1330.9075	1364.4054	1376.2955	1385.7529	1391.3058	1407.6145	1410.8201	1460.0531	1477.9914	1485.6352	1489.4833	1495.4512	1496.8325	1502.0264	1504.3714	2989.1892	3014.3696	3026.5657	3029.9028	3031.2508	3033.98	3063.6377	3069.7482	3071.2964	3077.5678	3091.7139	3098.1743	3107.369	3120.0378
CC1CCCC2(C)OC12	C[C@H]1CCC[C@@]2(C)O[C@@H]12	
InChI=1S/C8H14O/c1-6-4-3-5-8(2)7(6)9-8/h6-7H,3-5H2,1-2H3	InChI=1S/C8H14O/c1-6-4-3-5-8(2)7(6)9-8/h6-7H,3-5H2,1-2H3/t6-,7-,8+/m0/s1
