15
gdb 48421	2.3001	1.63776	1.23011	1.9189	72.73	-0.2395	-0.0455	0.1939	1031.0869	0.11171	-416.78415	-416.775886	-416.774941	-416.817257	30.342	
O	 0.138572342	-0.0395260078	-0.0470331581	-0.250028
C	 0.123440528	 1.1608475909	-0.0205265714	 0.135424
C	 1.3999532818	 2.0256571027	-0.0507624489	-0.001298
C	 1.5550603408	 2.8148683	 1.3128290066	-0.21536
N	 2.5397202506	 2.063438557	 2.0897618334	-0.233527
C	 3.0317083135	 1.1907109138	 1.302301949	 0.06608
N	 2.596174778	 1.1793241725	-0.0203789384	-0.313293
C	 1.3031753468	 2.8984641698	-1.2139258388	 0.265947
C	 1.1494685274	 3.6151450279	-2.1668138228	-0.413757
H	-0.8185059274	 1.7463772475	 0.0269264202	 0.105349
H	 1.9137519351	 3.8303143573	 1.1161932014	 0.135716
H	 0.6033104761	 2.8979430654	 1.8493036646	 0.122498
H	 3.8040162036	 0.4867390623	 1.5982665434	 0.134412
H	 2.470424216	 0.2677528583	-0.4459922911	 0.255226
H	 1.0428432377	 4.2519304524	-3.0105889892	 0.20661
90.2547	96.7692	158.6627	187.0584	266.6464	338.7279	477.1851	485.687	509.0281	520.636	600.1506	625.5525	671.299	742.607	823.2914	850.7668	909.1337	953.8244	976.5323	992.1793	1076.0048	1122.0441	1131.5762	1183.4845	1229.8028	1310.5118	1343.9802	1396.6328	1422.1886	1493.4456	1699.8601	1831.2174	2231.8881	2920.3376	3040.5528	3079.6524	3190.4174	3498.0652	3557.4201
O=CC1(CN=CN1)C#C	O=C[C@]1(C[N][CH]N1)C#C	
InChI=1S/C6H6N2O/c1-2-6(4-9)3-7-5-8-6/h1,4-5H,3H2,(H,7,8)	InChI=1S/C6H6N2O/c1-2-6(4-9)3-7-5-8-6/h1,4-5H,3H2,(H,7,8)/t6-/m1/s1
