17
gdb 98344	3.42101	0.93981	0.83547	4.1535	70.9	-0.2639	0.0166	0.2805	1395.3258	0.134361	-455.189683	-455.1794	-455.178456	-455.22671	33.837	
C	-0.1867461827	 1.3806257057	 0.0086182404	-0.235809
O	-0.0032523201	-0.0396158647	-0.0250213286	-0.260805
C	 0.5982470829	-0.5009389751	-1.1416302113	 0.548068
O	 0.9655244276	 0.207044768	-2.0551708761	-0.423507
N	 0.7267452295	-1.868803259	-1.1200775093	-0.155079
C	 0.3288288494	-2.7270682649	-0.0141900528	-0.35348
C	 1.4039212278	-2.4872603723	-2.2410788947	-0.29988
C	 2.7168566532	-3.0457988203	-1.873017243	 0.266704
N	 3.7351417298	-3.4978641043	-1.5677377057	-0.305615
H	 0.7749143458	 1.8956277727	-0.0485393682	 0.146424
H	-0.8139249235	 1.7094855433	-0.8232828909	 0.143434
H	-0.6753161419	 1.5884723229	 0.9606596816	 0.134495
H	-0.2024109981	-2.138736814	 0.7285213215	 0.168386
H	-0.3313530929	-3.5245751305	-0.3763857893	 0.128615
H	 1.2045260884	-3.1911385566	 0.4551681939	 0.149037
H	 0.7925501679	-3.2982429393	-2.6576929843	 0.151775
H	 1.538253577	-1.7241194116	-3.0106692834	 0.197237
29.713	67.9462	99.1164	100.1259	137.0416	152.7031	230.9604	270.9389	358.1646	364.9293	380.0633	462.0006	588.8747	671.4388	773.699	837.28	911.9863	960.497	1025.565	1086.0091	1161.0473	1183.3262	1193.3096	1217.2494	1250.124	1303.7334	1376.6578	1425.7904	1455.961	1459.4219	1480.9233	1488.1828	1494.4228	1503.9754	1531.4385	1794.4002	2361.1099	3022.7846	3029.0009	3055.4765	3072.3828	3120.9586	3132.7986	3159.9843	3193.999
COC(=O)N(C)CC#N	COC(=O)N(C)CC#N	
InChI=1S/C5H8N2O2/c1-7(4-3-6)5(8)9-2/h4H2,1-2H3	InChI=1S/C5H8N2O2/c1-7(4-3-6)5(8)9-2/h4H2,1-2H3
