18
gdb 12080	3.81598	1.6042	1.48094	2.0738	67.28	-0.2389	0.0616	0.3004	921.1594	0.153504	-384.901002	-384.893188	-384.892244	-384.932712	30.542	
O	-0.0978760789	 1.4439745467	-0.0274408993	-0.436702
C	 0.0409252731	 0.0268446803	 0.0838831893	-0.143437
C	-1.366593707	-0.5443895666	-0.026548584	 0.438259
O	-2.1751600674	 0.036850947	 0.9780927842	-0.494991
C	-2.0667285514	-0.5274298105	-1.4374080057	-0.290353
C	-2.2694093139	-2.0449274786	-1.3257685866	-0.035007
C	-0.9423401362	-2.730535362	-1.1949281527	-0.293406
C	-1.5380202669	-2.0637553437	 0.0178721832	-0.090996
H	 0.7309410244	 1.8570324328	 0.2290091124	 0.294288
H	 0.6940248658	-0.3684494652	-0.7054355081	 0.088348
H	 0.4633539978	-0.2543666783	 1.0597653238	 0.094437
H	-1.9593767727	 0.9788620386	 0.9656177658	 0.282365
H	-2.9954505629	 0.040682704	-1.3720736556	 0.110065
H	-1.4813981455	-0.1779002223	-2.2944689362	 0.087985
H	-3.1644965331	-2.5826377937	-1.6124497168	 0.084781
H	-0.9733864644	-3.8153668147	-1.171870759	 0.112305
H	-0.0606235202	-2.3293980973	-1.6891066093	 0.102686
H	-1.7729894705	-2.6046713265	 0.9263517045	 0.089373
115.7709	164.5497	215.4263	251.5711	311.7941	385.284	436.8678	439.3396	479.1166	504.5354	667.6225	765.9541	791.6206	841.8893	892.836	933.096	951.0179	975.7178	987.5941	1018.5888	1052.4379	1068.6724	1086.9464	1094.7055	1123.6631	1152.4291	1196.1113	1210.8733	1237.8425	1260.9053	1275.8884	1295.2646	1358.4794	1414.9164	1452.3421	1472.3401	1496.1736	1508.3637	2992.1533	3037.0652	3046.5759	3110.0402	3127.2416	3182.6867	3188.3268	3201.3295	3763.9363	3842.7575
OCC1(O)CC2CC12	OC[C@@]1(O)C[C@H]2C[C@@H]12	
InChI=1S/C6H10O2/c7-3-6(8)2-4-1-5(4)6/h4-5,7-8H,1-3H2	InChI=1S/C6H10O2/c7-3-6(8)2-4-1-5(4)6/h4-5,7-8H,1-3H2/t4-,5-,6+/m1/s1
