16
gdb 96738	1.99592	1.28374	0.78884	6.4905	74.88	-0.2713	-0.0419	0.2294	1371.514	0.122792	-434.103948	-434.09429	-434.093346	-434.139602	32.839	
C	-0.0035139257	 1.4798230555	-0.0287837501	-0.35289
N	 0.0483016058	 0.0318302014	 0.0501069964	-0.240961
C	-1.0175159562	-0.645665691	 0.1475304116	 0.411998
C	-0.9532412215	-2.1603059752	 0.2296248265	-0.451086
C	 0.4159454569	-2.6672932821	 0.1825136074	 0.305851
N	 1.4679005073	-3.1411919674	 0.1511088351	-0.306683
N	-2.3046831246	-0.0724198499	 0.18659302	-0.365508
C	-3.5405053527	-0.6774395277	 0.2883712391	 0.162127
O	-3.7538715075	-1.862537315	 0.3665987339	-0.28924
H	 1.013467841	 1.8688453082	-0.1056917314	 0.148334
H	-0.5583701237	 1.8313977581	-0.9122890171	 0.122725
H	-0.4624557299	 1.9319246988	 0.8640037624	 0.122599
H	-1.442364521	-2.5073943775	 1.1453495692	 0.184656
H	-1.5380543549	-2.6051543723	-0.5817509282	 0.184698
H	-2.3245393872	 0.9352921808	 0.1307160935	 0.260259
H	-4.3458228361	 0.081657035	 0.2899941915	 0.103121
49.4861	67.9365	129.6176	130.3671	198.1586	234.1055	262.048	268.122	356.5751	389.6425	452.3477	589.0384	617.9575	638.2729	798.2673	827.4575	940.3172	982.0329	1030.2801	1055.7189	1102.6895	1116.1573	1190.0156	1231.0102	1239.6958	1378.3016	1422.1747	1433.88	1446.7075	1473.6449	1512.9398	1524.315	1753.7891	1821.7361	2378.3896	2956.3111	2973.7697	3025.5199	3068.2038	3097.1867	3117.1905	3618.1051
CN=C(CC#N)NC=O	CN=C(CC#N)NC=O	
InChI=1S/C5H7N3O/c1-7-5(2-3-6)8-4-9/h4H,2H2,1H3,(H,7,8,9)	InChI=1S/C5H7N3O/c1-7-5(2-3-6)8-4-9/h4H,2H2,1H3,(H,7,8,9)
