20
gdb 104277	2.08591	1.42209	1.0853	5.0064	77.05	-0.2324	0.0365	0.2688	1206.7985	0.169479	-440.295827	-440.285915	-440.284971	-440.331134	35.459	
C	-0.1962265527	 1.5847295063	 0.0862654922	-0.437427
C	-0.0189614027	 0.0705216728	-0.0164745703	 0.314601
C	-1.3464417192	-0.6662205095	 0.1510102084	-0.10825
O	-1.9018104343	-0.3036832526	 1.4047320849	-0.418442
C	 0.8083500039	-0.4285161816	-1.2459168037	-0.318083
C	 1.8796377889	-0.9697572728	-0.2565725385	-0.16321
N	 1.0565880622	-0.4726222584	 0.8416664881	-0.05646
C	 1.2330937226	-0.6070965692	 2.1760752818	 0.111704
O	 2.1939521169	-1.1590282844	 2.6786767273	-0.342497
H	 0.7681185751	 2.0910455469	-0.0087401512	 0.119214
H	-0.8553579828	 1.941779469	-0.7127333689	 0.116815
H	-0.6461447914	 1.8597078189	 1.0427963802	 0.14575
H	-2.013259482	-0.3873641255	-0.6818303514	 0.091317
H	-1.1642658365	-1.7491422591	 0.0918362077	 0.092905
H	-2.6544253744	-0.8737358314	 1.5858631691	 0.295276
H	 0.3107906356	-1.1934567781	-1.8454254899	 0.110602
H	 1.1509081184	 0.3714892032	-1.9032303701	 0.115166
H	 2.0145193948	-2.0560872079	-0.2473694495	 0.122623
H	 2.8660419201	-0.4993032935	-0.317122149	 0.123441
H	 0.4032479078	-0.1631716532	 2.7555062628	 0.084953
48.3726	78.3824	124.2133	184.9245	221.4468	231.334	246.7197	308.8767	329.4682	344.7963	395.3973	466.6718	578.1839	690.4432	783.4965	842.3976	887.8145	922.6432	950.8347	984.6408	1000.254	1033.9866	1083.2561	1127.816	1155.3476	1155.8406	1188.8882	1206.2544	1244.5957	1258.5854	1285.8507	1310.8987	1322.8175	1399.3563	1405.4047	1433.9742	1455.1018	1483.8266	1490.7074	1500.0173	1511.8207	1524.3775	1775.7439	2965.5134	2973.9705	3013.4536	3039.9731	3043.2442	3079.8856	3082.7075	3110.0057	3133.5419	3137.1112	3837.6569
CC1(CO)CCN1C=O	C[C@@]1(CO)CCN1C=O	
InChI=1S/C6H11NO2/c1-6(4-8)2-3-7(6)5-9/h5,8H,2-4H2,1H3	InChI=1S/C6H11NO2/c1-6(4-8)2-3-7(6)5-9/h5,8H,2-4H2,1H3/t6-/m0/s1
