19
gdb 81439	3.27276	1.42289	1.31863	0.873	74.09	-0.247	0.075	0.322	1026.9998	0.160215	-422.969895	-422.962279	-422.961335	-423.001265	31.792	
O	 0.1440236305	 1.4517528378	-0.0871564922	-0.463266
C	 0.0826323012	 0.0458362419	-0.0480878425	 0.182095
C	 0.1830022313	-0.6302829377	 1.3538272203	-0.082188
C	-1.3437622642	-0.2820985332	 1.5062972987	-0.258087
C	-1.3388631055	-0.5993729763	-0.0329731441	-0.140506
C	-1.0545547439	-2.1141703428	 0.0306838077	 0.410865
O	-2.1461997758	-2.9697952097	 0.1821381506	-0.468598
C	 0.2899375033	-2.6665854036	-0.3757376616	-0.381592
C	 0.0717175772	-2.1339047147	 1.0351882522	-0.085944
H	-0.4416099607	 1.8167829888	 0.5830036791	 0.280292
H	 0.7814444919	-0.2706148057	-0.820538241	 0.076874
H	 0.9348634567	-0.3121489265	 2.0770176174	 0.065035
H	-1.9467986552	-0.9359895276	 2.1397464933	 0.112965
H	-1.5571008358	 0.7602784449	 1.7636420922	 0.078425
H	-2.1229821181	-0.2604823831	-0.7118564823	 0.059717
H	-2.5122425096	-3.1423899659	-0.6921824981	 0.282384
H	 0.3097884356	-3.7509306374	-0.4260043532	 0.113628
H	 0.9430112948	-2.1882485496	-1.0953644176	 0.118057
H	 0.0730976964	-2.8427283695	 1.8551604609	 0.099845
204.7947	217.2443	264.0414	291.858	327.004	377.8136	414.8967	443.3448	513.2254	546.5846	592.6196	733.8722	804.2642	824.1983	864.6639	874.0658	888.8406	898.9656	952.7828	972.3853	995.413	1031.8017	1040.8368	1063.6607	1071.5465	1083.8914	1099.8308	1116.7236	1193.7491	1207.7818	1226.827	1238.1349	1245.7154	1255.0668	1286.5967	1302.9638	1326.5248	1393.0523	1457.9666	1505.3324	1518.4156	3049.3314	3104.6667	3108.8702	3114.7586	3121.1433	3139.7123	3180.121	3217.2279	3794.0948	3826.9545
OC1C2CC1C1(O)CC21	O[C@H]1[C@H]2C[C@@H]1[C@@]1(O)C[C@@H]21	
InChI=1S/C7H10O2/c8-6-3-1-4(6)7(9)2-5(3)7/h3-6,8-9H,1-2H2	InChI=1S/C7H10O2/c8-6-3-1-4(6)7(9)2-5(3)7/h3-6,8-9H,1-2H2/t3-,4-,5-,6-,7-/m0/s1
