14
gdb 22474	3.37978	0.71697	0.59369	1.4626	83.19	-0.2315	-0.0532	0.1783	1758.2628	0.096795	-436.560839	-436.550807	-436.549863	-436.597453	34.274	
O	-0.0713836086	 1.4524760519	 0.0105295086	-0.405862
C	-0.03550894	 0.0326951255	 0.0028102973	-0.224193
C	-1.3949006473	-0.4908321645	 0.0129077708	 0.152672
C	-2.5038522429	-0.9618776385	 0.0208839228	 0.004227
C	-3.8374674045	-1.4652245528	 0.0308213786	 0.091513
N	-3.9901556533	-2.752719949	 0.0252678223	-0.174647
O	-5.3228061568	-3.1127586183	 0.0360174981	-0.370503
C	-4.9103292516	-0.5235979958	 0.0461877622	 0.349837
C	-5.7975364248	 0.2883538628	 0.0590915842	-0.492284
H	 0.8398614897	 1.7627818859	 0.004450301	 0.293186
H	 0.4854390522	-0.3533280114	-0.8890058675	 0.12478
H	 0.5021247632	-0.3625341965	 0.8805735176	 0.124779
H	-5.277351094	-4.0759340513	 0.0303384449	 0.316289
H	-6.5821236313	 1.0043487119	 0.0705751591	 0.210206
23.4735	64.8525	110.9141	149.5916	196.0778	218.5688	264.0671	287.2766	372.2539	436.6236	442.6675	486.7983	542.2365	622.0209	626.0811	645.6539	697.1811	764.183	944.3781	1021.2491	1053.6248	1079.8055	1242.8421	1247.0909	1299.7424	1404.896	1462.4711	1499.1696	1623.0891	2228.605	2361.9299	2962.0919	2980.453	3500.1894	3804.9916	3820.8534
OCC#CC(=NO)C#C	OCC#CC(=NO)C#C	
InChI=1S/C6H5NO2/c1-2-6(7-9)4-3-5-8/h1,8-9H,5H2	InChI=1S/C6H5NO2/c1-2-6(7-9)4-3-5-8/h1,8-9H,5H2
