23
gdb 85979	3.57007	0.97467	0.94225	1.4836	86.24	-0.2463	0.0719	0.3182	1405.4631	0.204727	-388.272978	-388.263401	-388.262457	-388.307154	37.322	
C	-0.7346850273	 0.8512832772	-1.0171922358	-0.408004
C	 0.3286599053	-0.0890212266	-0.469954028	 0.06107
C	 1.7620459667	-0.0233309681	-1.0705014689	-0.294698
C	 2.3433276967	-0.188084825	 0.3683218281	 0.390431
O	 3.4414750997	 0.6275734892	 0.7226090934	-0.488407
C	 0.9424384252	 0.21245685	 0.9271647117	-0.294692
C	 2.7176937054	-1.6191874139	 0.6907749249	 0.013981
C	 4.1277574399	-2.115144742	 0.5057873949	-0.2777
C	 3.5580322094	-1.9510911077	 1.8958177298	-0.277715
H	-0.387341371	 1.8910236115	-0.9974683252	 0.105753
H	-0.9890919327	 0.6063365434	-2.0545439303	 0.114793
H	-1.6566370578	 0.7984732195	-0.4272456804	 0.114795
H	-0.0434195335	-1.1185030165	-0.5011082034	 0.073693
H	 2.0520480903	-0.7635985594	-1.820631193	 0.09949
H	 1.9800061616	 0.9770152978	-1.4639902304	 0.081144
H	 3.2124591796	 1.5393000382	 0.5206650541	 0.27449
H	 0.9072237861	 1.285657059	 1.1508296848	 0.081151
H	 0.5685542578	-0.336787174	 1.7951136981	 0.099482
H	 1.9279638022	-2.3255727181	 0.450483569	 0.077659
H	 4.2734468807	-3.1176132893	 0.1182557976	 0.101252
H	 4.8695586812	-1.3910073186	 0.1915669588	 0.125381
H	 3.9302722606	-1.1205545929	 2.4832014754	 0.125401
H	 3.3114728839	-2.8406290337	 2.4652734849	 0.101252
73.2638	84.4103	186.72	228.3672	244.7567	266.1908	300.4467	300.5597	361.9735	430.8866	452.3241	515.576	634.0917	704.2479	795.3974	813.3636	816.6367	830.9177	891.5087	913.2211	936.1349	951.7644	970.8667	1028.835	1049.6069	1061.45	1061.7347	1085.0038	1085.9484	1130.9201	1139.5313	1150.3959	1203.625	1215.5802	1216.5112	1224.5365	1232.6675	1282.8872	1282.9622	1350.4373	1373.0984	1411.0398	1445.1354	1459.385	1465.8819	1490.1586	1496.1711	1496.9727	1502.8061	3020.8158	3028.2518	3033.8899	3045.2627	3087.515	3090.3859	3097.6544	3101.6774	3136.7931	3138.1112	3146.1172	3222.8897	3236.4139	3832.0982
CC1CC(O)(C1)C1CC1	C[C@H]1C[C@@](O)(C1)C1CC1	
InChI=1S/C8H14O/c1-6-4-8(9,5-6)7-2-3-7/h6-7,9H,2-5H2,1H3	InChI=1S/C8H14O/c1-6-4-8(9,5-6)7-2-3-7/h6-7,9H,2-5H2,1H3/t6-,8+
