16
gdb 56784	2.95862	1.27997	1.04486	2.4254	68.29	-0.2544	0.0038	0.2582	1131.1069	0.123472	-437.837423	-437.829083	-437.828139	-437.870888	30.623	
O	 0.2431360783	 1.5282896325	-0.092638384	-0.399256
C	 0.0650915766	 0.1249027265	 0.0028750299	-0.137947
C	 0.5404722348	-0.5613321246	-1.2204402115	 0.264206
N	 0.9451949668	-1.0899419888	-2.1648844317	-0.326824
C	 0.7108435479	-0.4611136107	 1.2291945114	 0.253172
C	 2.1734372592	-0.866778551	 1.3384516855	-0.36701
C	 1.1008494741	-1.8678842637	 1.6307328323	 0.061354
O	 0.59778071	-1.7146247516	 2.9563380524	-0.280412
C	 0.1224271324	-0.379280117	 2.6374708518	-0.13938
H	 1.1913310006	 1.705811547	-0.069603605	 0.296284
H	-1.0207966311	-0.0170920186	 0.0585196049	 0.142806
H	 2.6803431021	-1.0034274932	 0.3877364154	 0.144219
H	 2.7881670943	-0.4886473116	 2.1503864971	 0.125956
H	 0.9848061118	-2.8268388034	 1.1397183643	 0.129313
H	 0.5218730997	 0.3824838365	 3.3155144548	 0.117369
H	-0.9733784574	-0.3488017181	 2.6460088623	 0.116149
52.3633	118.5057	174.7279	212.2319	300.7862	310.1604	365.1537	398.8842	455.3183	513.8084	596.8098	745.2338	760.263	865.9946	883.3377	934.6155	965.8709	987.592	1002.3305	1031.5347	1056.2514	1064.7103	1085.4532	1103.7352	1156.1071	1206.2856	1266.495	1277.5668	1309.8491	1350.2958	1403.4118	1417.8521	1478.5434	1514.6207	2355.3892	3027.932	3050.403	3081.4019	3117.9922	3191.1258	3213.7573	3793.233
OC(C#N)C12CC1OC2	O[C@@H](C#N)[C@]12C[C@H]1OC2	
InChI=1S/C6H7NO2/c7-2-4(8)6-1-5(6)9-3-6/h4-5,8H,1,3H2	InChI=1S/C6H7NO2/c7-2-4(8)6-1-5(6)9-3-6/h4-5,8H,1,3H2/t4-,5+,6+/m0/s1
