20
gdb 87847	3.55171	1.28688	1.2135	0.8709	78.64	-0.2348	0.0724	0.3072	1119.015	0.172399	-403.102261	-403.094527	-403.093582	-403.134306	31.088	
C	-0.0626598517	 1.5048548959	-0.0876670445	-0.394986
C	-0.0094545062	 0.0047047082	 0.0637960119	-0.089437
N	 1.3225349235	-0.6330126177	-0.0853802014	-0.398607
C	 0.6363980786	-0.6653283771	 1.2105012228	 0.400239
C	 1.2559403485	-0.0103634999	 2.462030308	-0.301522
C	 0.9279776823	-1.1634300583	 3.4373467718	 0.071855
C	 1.3398486766	-2.4411767111	 2.6712621795	-0.237126
C	 0.1241839794	-1.9569543375	 1.8479054495	-0.020685
O	-0.4675295056	-1.4593791354	 3.0893823991	-0.294706
H	 0.8230554233	 1.969843677	 0.352596399	 0.126569
H	-0.1004637026	 1.7877643526	-1.1449648062	 0.119624
H	-0.9518613315	 1.9135932787	 0.4045363201	 0.119407
H	-0.8527390174	-0.5258400938	-0.3790664601	 0.079968
H	 1.2338104308	-1.5315896887	-0.5569202408	 0.224382
H	 2.3254205591	 0.1829480097	 2.3480406981	 0.111298
H	 0.7508577026	 0.912163912	 2.7578843285	 0.111635
H	 1.1011356641	-1.0209389315	 4.5035828137	 0.082117
H	 2.3229932193	-2.4879848802	 2.1957820018	 0.103965
H	 1.1156040679	-3.346132801	 3.2363513525	 0.111012
H	-0.522636251	-2.613240642	 1.2634223768	 0.074998
109.5867	162.0337	197.3256	241.0172	352.4715	403.2552	452.7321	516.1061	522.755	574.2687	761.7495	802.6198	830.2384	838.8634	866.8841	871.2542	895.468	941.8951	964.6891	983.1097	1022.8151	1031.0244	1042.8014	1067.352	1083.5443	1110.2587	1122.1352	1159.5917	1197.9144	1223.3006	1232.3989	1250.3468	1253.1058	1288.561	1306.3654	1310.9642	1371.1347	1411.2945	1471.3626	1476.2657	1488.2864	1492.8346	1507.3684	3034.9208	3065.6776	3068.3787	3097.2948	3098.5627	3109.9129	3119.03	3124.9756	3127.0275	3146.6162	3472.492
CC1NC11CC2CC1O2	C[C@H]1N[C@]21C[C@@H]1C[C@H]2O1	
InChI=1S/C7H11NO/c1-4-7(8-4)3-5-2-6(7)9-5/h4-6,8H,2-3H2,1H3	InChI=1S/C7H11NO/c1-4-7(8-4)3-5-2-6(7)9-5/h4-6,8H,2-3H2,1H3/t4-,5+,6-,7+/m1/s1
