21
gdb 104791	2.12854	1.59855	1.11418	2.3454	77.48	-0.2387	0.0698	0.3085	1176.1059	0.181618	-424.183885	-424.174779	-424.173835	-424.217604	35.065	
C	 0.7779620254	-0.2924414509	 1.5047631408	-0.391555
C	 0.0683774022	-0.0262309995	 0.1724038769	-0.234969
C	-1.299989259	-0.6888565534	 0.0720104336	 0.378469
C	-2.3757288983	 0.0117743942	 0.9076476933	-0.090925
O	-2.6210467946	 1.3127118343	 0.4145673396	-0.422374
O	-1.8093951944	-0.6874643034	-1.3190422964	-0.349542
C	-2.0471796763	-2.0955759149	-1.2389999717	 0.098171
C	-0.7662439408	-2.8494063443	-1.0854178797	-0.314254
C	-1.4209092089	-2.2175482453	 0.1276725133	-0.176734
H	 1.7691512818	 0.1700410106	 1.5097956684	 0.118669
H	 0.2235682394	 0.1169764227	 2.3551453463	 0.122242
H	 0.9110347661	-1.3660604414	 1.676070379	 0.120322
H	-0.0697026116	 1.0500718684	 0.0231372613	 0.117705
H	 0.6894882871	-0.3828508295	-0.654746508	 0.100266
H	-3.2890175875	-0.6032002738	 0.8982228194	 0.084024
H	-2.0557639879	 0.1174249722	 1.9496460448	 0.106932
H	-2.7950595287	 1.1971961227	-0.5287406063	 0.291793
H	-2.9653335975	-2.4825520153	-1.6649083415	 0.104804
H	-0.8561348909	-3.9309435114	-1.1230478323	 0.117105
H	 0.1498835844	-2.4516378512	-1.5103695605	 0.119914
H	-1.7309365297	-2.7862869606	 0.9944323898	 0.099938
73.9588	120.9958	183.2873	193.1636	218.6971	263.6226	328.2469	373.7599	432.1132	485.8433	516.214	560.7159	679.0537	759.3998	788.1013	809.5967	873.6282	894.7162	935.5174	966.2856	984.8078	999.2257	1022.1038	1034.0365	1050.5263	1066.075	1082.5654	1084.8211	1108.7614	1172.9696	1207.8654	1214.903	1261.4516	1285.1697	1318.7412	1353.1454	1358.881	1397.0934	1410.9503	1434.7574	1474.3969	1492.1128	1495.2075	1508.0633	1508.8004	2984.5237	3036.897	3052.0515	3074.4648	3084.4909	3107.9258	3111.0981	3123.5263	3180.0263	3197.1376	3212.5078	3771.8942
CCC1(CO)OC2CC12	CC[C@@]1(CO)O[C@H]2C[C@@H]12	
InChI=1S/C7H12O2/c1-2-7(4-8)5-3-6(5)9-7/h5-6,8H,2-4H2,1H3	InChI=1S/C7H12O2/c1-2-7(4-8)5-3-6(5)9-7/h5-6,8H,2-4H2,1H3/t5-,6+,7+/m1/s1
