17
gdb 12343	3.13436	2.18951	1.32041	3.4385	70.94	-0.2362	0.0154	0.2516	915.7388	0.143464	-363.909876	-363.902167	-363.901222	-363.942221	28.062	
C	-0.0624057968	 1.4455087828	-0.1026167348	-0.342386
N	 0.0209799848	 0.0012959526	 0.0344232999	-0.106384
C	-1.2506555938	-0.6748922519	 0.2327453794	-0.186564
C	-1.1507784648	-2.1588224214	 0.3737148214	-0.071822
C	 0.0011519126	-2.8151691987	 0.3202521747	-0.058675
C	 1.3080325955	-2.1177126117	 0.1126101197	-0.369212
C	 1.2502735313	-0.6010467622	-0.0334300671	 0.405596
O	 2.28091761	 0.0294767434	-0.2039578836	-0.389489
H	 0.9447207485	 1.8333360857	-0.2426035686	 0.171238
H	-0.6849738894	 1.7167207443	-0.9648953717	 0.119224
H	-0.5087925319	 1.8934021734	 0.7944302816	 0.11919
H	-1.7443531256	-0.2520170962	 1.1242842132	 0.115662
H	-1.9211014024	-0.4287667364	-0.6083938746	 0.115651
H	-2.0914710335	-2.6796589493	 0.5249421669	 0.098343
H	 0.0239609866	-3.8964854778	 0.4279761868	 0.096645
H	 2.0022667772	-2.3237159195	 0.9378236108	 0.141491
H	 1.8210990016	-2.4963029772	-0.7811744039	 0.14149
81.4905	106.5693	142.5159	217.6442	359.8131	385.4356	433.573	516.9131	549.9537	583.6133	694.1851	710.1467	862.3817	944.9604	969.9287	976.6336	1007.4154	1025.9087	1071.7067	1144.5851	1156.8383	1187.8486	1212.2951	1261.5428	1263.5666	1351.1327	1361.2168	1418.9083	1429.5358	1448.3638	1466.3229	1497.8794	1500.5461	1543.4349	1754.1013	1758.9894	2956.4984	2962.0494	3012.4917	3027.1578	3047.8479	3057.9929	3155.6441	3173.1378	3182.4819
CN1CC=CCC1=O	CN1CC=CCC1=O	
InChI=1S/C6H9NO/c1-7-5-3-2-4-6(7)8/h2-3H,4-5H2,1H3	InChI=1S/C6H9NO/c1-7-5-3-2-4-6(7)8/h2-3H,4-5H2,1H3
