18
gdb 133768	1.99451	1.59653	1.2032	2.0672	64.35	-0.2969	0.0852	0.3821	1101.0474	0.143236	-533.459492	-533.450436	-533.449492	-533.493718	33.676	
C	-1.6947110355	-0.8129680394	-0.5082772432	-0.38407
C	-0.2771116399	-0.3633303254	-0.1299557628	-0.277719
C	 0.7991215173	-0.6591433002	-1.1681570688	 0.192431
C	 2.1913393118	-1.0132645149	-0.6966299188	-0.316067
C	 1.318061749	-2.0689484276	-1.3215872107	-0.302973
C	 0.7224578778	 0.1686322217	-2.4249589119	 0.254916
F	 0.7347993131	 1.4848768102	-2.1479969139	-0.08286
F	 1.7508679035	-0.0712336185	-3.2585131967	-0.085124
F	-0.4031859809	-0.0686319626	-3.1255390763	-0.082109
H	-2.072364116	-0.2744329148	-1.3794605258	 0.13431
H	-1.7188014128	-1.8825034198	-0.741789096	 0.117007
H	-2.3822126932	-0.6355374132	 0.3242890717	 0.112617
H	-0.2712499794	 0.7112347575	 0.0857964332	 0.115808
H	 0.0211850325	-0.8623887596	 0.7989075607	 0.099701
H	 3.0347013781	-0.6523663742	-1.2720074984	 0.133161
H	 2.3514218788	-1.0388966259	 0.375261319	 0.118684
H	 0.8766878598	-2.8239482536	-0.6805275936	 0.119848
H	 1.5779505959	-2.4151534796	-2.3146687678	 0.132442
47.4271	96.0333	191.6952	214.8321	243.5419	279.364	310.2094	355.8784	406.6732	482.7083	514.7705	577.844	606.6612	734.3463	776.952	790.0922	869.8003	932.6311	952.794	958.2667	1024.1319	1062.5502	1083.0651	1093.0298	1118.5549	1168.2081	1176.5049	1184.5295	1199.2893	1290.1793	1320.5046	1371.4766	1412.6683	1415.6587	1465.1298	1481.4659	1499.5051	1504.2392	1510.1907	3035.8708	3043.0997	3071.8448	3106.2325	3136.2644	3142.5502	3147.1913	3226.708	3240.2731
CCC1(CC1)C(F)(F)F	CCC1(CC1)C(F)(F)F	
InChI=1S/C6H9F3/c1-2-5(3-4-5)6(7,8)9/h2-4H2,1H3	InChI=1S/C6H9F3/c1-2-5(3-4-5)6(7,8)9/h2-4H2,1H3
