18
gdb 92432	2.69921	1.59686	1.49909	1.8354	71.16	-0.2163	-0.0231	0.1932	978.6919	0.149382	-439.087436	-439.079782	-439.078838	-439.119458	29.838	
C	-0.1850221319	 1.5450954358	-0.0352015644	-0.406268
C	 0.0160005278	 0.0433119054	 0.0425843289	 0.155818
O	 0.8145984531	-0.4132423196	-1.0988035002	-0.308384
C	 1.9193525646	-1.1644329592	-0.5847213377	-0.011048
C	 2.8812593655	-0.1927338335	 0.11104499	-0.18635
N	 2.0934954294	 0.2462071849	 1.3209893862	-0.308394
C	 0.8097006985	-0.4917744699	 1.2469589396	-0.16905
C	 1.2802136649	-1.8268011491	 0.6513084493	 0.432295
O	 1.2247080546	-2.9610510734	 1.0297699121	-0.324538
H	 0.7563820654	 2.0713052242	 0.1328182103	 0.140274
H	-0.5762187431	 1.8116329572	-1.0211287436	 0.127167
H	-0.9068251489	 1.8710722569	 0.7211917923	 0.112894
H	-0.9552810916	-0.4690458194	-0.0030151012	 0.088529
H	 2.3297089498	-1.8097359962	-1.3577316858	 0.100822
H	 3.8210111472	-0.6813628629	 0.3915123255	 0.110655
H	 3.1052837872	 0.6645831886	-0.5312801555	 0.118986
H	 2.5832640095	-0.0178636203	 2.168535061	 0.233262
H	 0.2758691779	-0.5197178194	 2.1940724532	 0.09333
113.3066	145.6301	205.3565	265.2435	283.8248	408.2203	438.7995	509.1676	558.1726	646.4508	719.9789	761.9193	773.2978	833.6932	861.7648	875.0628	924.103	961.9711	999.1535	1029.846	1042.7349	1069.6884	1099.9387	1138.2051	1147.3192	1179.5136	1198.858	1234.6372	1289.3928	1297.0065	1340.2361	1362.5239	1382.3674	1404.9502	1432.0288	1481.8901	1493.6388	1501.6712	1891.7768	3004.0379	3035.2205	3044.4143	3082.2696	3112.4458	3142.3431	3153.526	3158.0297	3535.2783
CC1OC2CNC1C2=O	C[C@H]1O[C@H]2CN[C@@H]1C2=O	
InChI=1S/C6H9NO2/c1-3-5-6(8)4(9-3)2-7-5/h3-5,7H,2H2,1H3	InChI=1S/C6H9NO2/c1-3-5-6(8)4(9-3)2-7-5/h3-5,7H,2H2,1H3/t3-,4+,5+/m1/s1
