25
gdb 60380	3.18028	0.82363	0.73203	0.9052	90.51	-0.2469	0.0818	0.3287	1706.3015	0.226087	-389.485063	-389.473979	-389.473035	-389.521933	40.881	
C	 0.2958954968	 1.327321881	 0.5100168433	-0.39326
C	-0.0403840008	-0.0486581976	-0.0747379362	 0.167541
C	-1.5086240281	-0.1570207289	-0.4723321581	-0.388171
O	 0.7148604464	-0.3294161787	-1.2468330928	-0.26308
C	 2.0815087001	-0.6287717848	-1.0355936549	-0.130707
C	 2.6631900625	-1.1863916793	-2.314493841	 0.370972
C	 2.0281194083	-2.4783081914	-2.7893108744	-0.461391
C	 3.1423234246	-0.1919576655	-3.3436239573	-0.285941
C	 4.1431713609	-0.9790811017	-2.5318055365	-0.31488
H	 1.3433754394	 1.3939822017	 0.817851667	 0.115869
H	 0.1051742178	 2.1093472358	-0.2323300022	 0.120676
H	-0.3211318905	 1.5293953009	 1.3914831219	 0.112649
H	 0.1839502416	-0.8191956111	 0.6837072512	 0.060489
H	-1.7525457575	 0.5943916607	-1.2301463501	 0.121836
H	-1.7182139453	-1.1447869779	-0.8911109124	 0.119235
H	-2.1580789276	 0.0016435332	 0.3937396125	 0.109971
H	 2.6435839144	 0.2684652007	-0.7322517725	 0.078885
H	 2.1813536765	-1.3674570039	-0.2201998877	 0.079177
H	 0.9537868668	-2.3428213053	-2.9426333628	 0.131449
H	 2.4707132141	-2.8147092399	-3.7318708581	 0.107131
H	 2.1642747982	-3.2791172457	-2.051946731	 0.107619
H	 3.0201620101	-0.4454436865	-4.3912076457	 0.108393
H	 3.0246001752	 0.8642385714	-3.1265266125	 0.110777
H	 4.7114101773	-0.4536704602	-1.7708019745	 0.106352
H	 4.6951401987	-1.7717419572	-3.025809655	 0.108406
32.9259	58.6046	109.8214	157.6812	206.2463	216.4923	237.52	255.9487	300.0403	343.0908	365.0299	374.1791	443.0325	464.3192	527.1176	733.6416	782.2458	835.645	872.6876	909.7815	924.5597	937.2232	950.6961	956.8807	960.3425	1014.8619	1048.1515	1076.4527	1087.6827	1104.4488	1129.9772	1151.2022	1174.974	1186.9439	1200.1496	1251.8073	1331.9836	1353.9038	1365.7872	1373.7075	1396.5216	1409.7771	1413.6814	1439.0073	1468.2956	1480.0942	1485.1606	1486.2108	1494.0515	1501.356	1508.5428	1511.7273	1520.1437	2941.2148	2949.1905	2987.6282	3025.4455	3035.5754	3041.985	3088.8905	3106.0025	3111.0842	3113.816	3115.4914	3121.5159	3125.6725	3132.2459	3203.7869	3218.9745
CC(C)OCC1(C)CC1	CC(C)OCC1(C)CC1	
InChI=1S/C8H16O/c1-7(2)9-6-8(3)4-5-8/h7H,4-6H2,1-3H3	InChI=1S/C8H16O/c1-7(2)9-6-8(3)4-5-8/h7H,4-6H2,1-3H3
