17
gdb 39732	3.33173	1.6776	1.64863	2.8616	69.85	-0.2344	0.0879	0.3223	889.1583	0.138318	-421.793309	-421.78707	-421.786126	-421.82369	26.289	
C	 0.0463779304	 1.5069172307	 0.007505753	-0.288505
O	 1.20042077	 0.6488117437	 0.011211611	-0.298567
C	-0.084457546	 0.0524499019	 0.0204874977	 0.547007
C	-0.5251542426	-0.8399619205	 1.1488874361	-0.228053
C	-1.7860934941	-1.5496503312	 0.6333016681	-0.125442
C	-2.0462004706	-1.027548253	-0.7798829092	-0.232313
C	-0.5533868082	-0.8362718782	-1.1361554697	-0.058338
O	 0.0279741093	-2.1063644292	-0.7968952665	-0.258408
C	-0.4410271305	-2.2225810178	 0.5351206704	 0.100029
H	-0.1173365908	 2.0744059213	 0.9225245159	 0.11652
H	-0.1155199751	 2.0635148041	-0.9154114867	 0.114047
H	-0.3334405228	-0.6266063414	 2.1904825049	 0.099262
H	-2.5677062417	-1.8934531919	 1.2964546834	 0.0954
H	-2.5340606631	-1.7664095075	-1.4212201341	 0.110184
H	-2.6060154476	-0.0889353842	-0.8076659413	 0.10589
H	-0.2749722324	-0.5478492388	-2.1462793958	 0.091321
H	-0.1363068143	-3.1223246379	 1.0488050831	 0.109966
157.6348	270.2223	320.7499	418.9861	481.9052	588.3632	599.3279	710.7757	737.1367	796.9526	817.7596	859.4686	890.2983	901.2513	918.1366	952.3737	965.9819	970.2156	991.28	1015.0755	1038.1848	1051.7784	1070.835	1083.9018	1120.272	1150.643	1168.5226	1198.1923	1220.2857	1252.3282	1267.1858	1288.8861	1320.5572	1376.4071	1456.042	1485.9629	1544.7959	3062.2242	3078.3655	3114.204	3163.1715	3167.5109	3211.6373	3223.2153	3235.5027
C1OC11C2C3CC1OC23	C1O[C@]21[C@H]1[C@H]3C[C@@H]2O[C@@H]13	
InChI=1S/C7H8O2/c1-3-5-6(3)9-4(1)7(5)2-8-7/h3-6H,1-2H2	InChI=1S/C7H8O2/c1-3-5-6(3)9-4(1)7(5)2-8-7/h3-6H,1-2H2/t3-,4+,5+,6-,7+/m1/s1
