17
gdb 51527	5.4385	0.69495	0.66702	3.0543	75.15	-0.2519	-0.0385	0.2134	1619.1986	0.134891	-417.997259	-417.988355	-417.987411	-418.032238	31.075	
O	-0.3879214929	 0.0910638894	 0.3459778543	-0.228547
C	-0.1175454641	 1.2095171279	-0.0008782838	 0.156963
C	 1.3001598305	 1.7487771295	-0.1297432351	-0.241579
N	 1.3974059645	 2.7155019515	-1.1992777838	-0.092278
C	 1.5107633924	 2.2367537674	-2.5920491914	-0.183368
C	 2.448113411	 3.4455285373	-2.8811366654	-0.152094
C	 2.629440177	 3.5143405657	-1.3355872343	-0.178291
C	 3.6220022429	 3.2286018642	-3.703893883	 0.269667
N	 4.5612014315	 3.0493724748	-4.3536734376	-0.318838
H	-0.9007429592	 1.9618684662	-0.2457772328	 0.088283
H	 1.5215614782	 2.2636629322	 0.8170492162	 0.13757
H	 2.0017316868	 0.9009745551	-0.2154382601	 0.114166
H	 2.0446514098	 1.2788527163	-2.6846814511	 0.119296
H	 0.5728252251	 2.1860533647	-3.1513448038	 0.127831
H	 1.8859693216	 4.3040603133	-3.253495832	 0.139288
H	 2.5985705148	 4.5032569047	-0.8698866152	 0.125278
H	 3.5390521802	 2.9851557897	-1.015377381	 0.116655
47.378	72.1898	94.0235	170.7525	198.443	272.9215	348.2136	372.7473	456.3132	540.8203	556.1754	632.7928	740.1046	821.3676	898.3914	957.5731	989.5906	1021.868	1057.2813	1072.1825	1116.3805	1129.2014	1149.3715	1185.3078	1226.6681	1240.6436	1255.6489	1294.4419	1332.1933	1347.4726	1369.0119	1405.6444	1455.7046	1504.7371	1529.1558	1842.28	2360.0238	2886.8358	2960.4533	2993.7448	3001.7936	3028.8523	3082.9048	3086.7987	3103.7994
O=CCN1CC(C1)C#N	O=CCN1CC(C1)C#N	
InChI=1S/C6H8N2O/c7-3-6-4-8(5-6)1-2-9/h2,6H,1,4-5H2	InChI=1S/C6H8N2O/c7-3-6-4-8(5-6)1-2-9/h2,6H,1,4-5H2
