14
gdb 28979	3.0815	1.51016	1.01401	2.2892	79.52	-0.2327	-0.0627	0.17	1077.8795	0.103852	-395.806282	-395.798875	-395.797931	-395.838054	28.219	
N	-0.013646507	 1.3873055459	-0.1243030153	-0.608022
C	 0.0158837765	 0.0188246784	-0.0474120347	 0.239225
C	-1.1714244279	-0.7416925314	-0.024075269	-0.035739
N	-1.2119213204	-2.0639114877	 0.0004298882	-0.258835
C	-0.053163678	-2.7391511991	 0.0031905099	-0.01249
C	 1.1784050219	-2.1070132328	-0.0123209413	-0.197943
C	 1.2256029144	-0.7080887556	-0.0345791032	 0.124513
C	 2.463041194	 0.0002488174	-0.0365691882	 0.20955
N	 3.4379075181	 0.6269385293	-0.0303558722	-0.346139
H	 0.8308429252	 1.8915156278	 0.0989222132	 0.275557
H	-0.8672402932	 1.8502520461	 0.1421579064	 0.263422
H	-2.1281094887	-0.2208847541	-0.0277269808	 0.106499
H	-0.1215950697	-3.8220838185	 0.0207519054	 0.116782
H	 2.0998067347	-2.6768424059	-0.0028875983	 0.12362
130.8523	141.6212	230.2921	363.3979	384.9285	407.4754	423.5621	464.7621	512.7303	571.5608	622.5466	629.3014	750.1967	786.7024	847.5413	863.939	933.9246	970.7773	1067.6412	1084.2506	1202.1398	1234.8247	1275.4394	1328.7663	1365.2643	1467.3978	1519.9079	1585.9338	1623.6356	1659.2745	2331.8768	3132.8519	3178.4214	3209.4187	3584.8935	3697.5943
NC1=CN=CC=C1C#N	Nc1cnccc1C#N	
InChI=1S/C6H5N3/c7-3-5-1-2-9-4-6(5)8/h1-2,4H,8H2	InChI=1S/C6H5N3/c7-3-5-1-2-9-4-6(5)8/h1-2,4H,8H2
