18
gdb 27248	3.14211	1.48612	1.0287	3.4562	80.05	-0.1984	0.036	0.2344	1141.7024	0.149501	-401.982686	-401.974375	-401.973431	-402.016635	30.342	
C	-0.0287858831	 1.5202995235	 0.0852538689	-0.501825
C	 0.0138113416	 0.032730896	-0.0433172722	 0.138599
C	 0.0404500988	-0.8031068873	-1.1337564719	 0.18139
C	 0.0354567689	-0.7970350945	-2.6293064364	-0.194006
O	 0.1604712636	-2.1796524727	-2.9990229719	-0.28385
C	 0.095648824	-3.0564457497	-1.8622417622	-0.188542
C	 0.0756761398	-2.1424043938	-0.6801279597	 0.220554
C	 0.0704268504	-2.1264989726	 0.6896312161	-0.253817
N	 0.0319831676	-0.7970386122	 1.062632438	-0.296107
H	 0.8245553106	 1.9123840044	 0.6529617599	 0.127044
H	-0.0019130268	 1.9808125996	-0.904888775	 0.137315
H	-0.941373172	 1.8694590402	 0.5850641823	 0.128124
H	-0.893327494	-0.3875085803	-3.0567528945	 0.099481
H	 0.8734649921	-0.242360197	-3.0749079481	 0.104054
H	-0.8054367151	-3.6848300383	-1.9359916922	 0.101622
H	 0.9663865601	-3.7262040177	-1.8906325189	 0.106422
H	 0.0916274173	-2.9090240891	 1.4305831122	 0.119436
H	 0.0319812462	-0.4723394986	 2.0145114955	 0.254106
39.949	68.3587	160.8752	229.2748	238.9899	287.1168	459.7291	492.9536	583.9206	624.4029	626.1613	655.5116	701.0068	783.5725	845.7214	901.1133	974.4737	1022.2241	1046.9068	1054.6272	1065.3749	1082.7602	1109.3536	1173.4692	1187.9571	1215.9028	1254.8133	1317.0767	1346.9209	1369.0745	1418.0465	1443.3067	1470.8142	1481.2712	1501.8441	1521.3737	1531.3357	1583.0047	1666.7446	2970.4132	2978.3508	3002.7861	3010.039	3014.3305	3057.6826	3121.1686	3261.5833	3669.4793
CC1=C2COCC2=CN1	Cc1c2COCc2c[nH]1	
InChI=1S/C7H9NO/c1-5-7-4-9-3-6(7)2-8-5/h2,8H,3-4H2,1H3	InChI=1S/C7H9NO/c1-5-7-4-9-3-6(7)2-8-5/h2,8H,3-4H2,1H3
