15
gdb 13739	3.34773	1.68522	1.31356	3.2656	68.77	-0.2481	0.0051	0.2532	949.3908	0.116026	-362.626015	-362.617512	-362.616568	-362.65952	29.915	
C	-0.0871358357	 1.3113357492	-0.1448027725	-0.478267
C	-0.0657913862	-0.2009733686	-0.023854041	 0.388288
O	 0.8782750257	-0.8899909733	-0.3255588948	-0.325147
N	-1.2207360866	-0.7378567411	 0.5574593699	-0.086009
C	-2.5872456812	-0.5495449639	 0.1419195094	-0.25227
C	-1.936471767	-1.9189998249	 0.110139393	-0.190077
C	-1.6433449212	-2.5329611938	-1.1565507682	 0.354052
C	-1.4261249755	-3.070113179	-2.2090990369	-0.44776
H	 0.9307439378	 1.6693403673	-0.2981822849	 0.150281
H	-0.6968596928	 1.6080665926	-1.0057710865	 0.141842
H	-0.5229332724	 1.7746385499	 0.7442821107	 0.141057
H	-3.3057995856	-0.31714309	 0.9240622928	 0.130812
H	-2.7770585757	-0.0835071524	-0.8220112862	 0.137266
H	-2.1877738243	-2.6127590316	 0.9095229081	 0.129593
H	-1.2121163293	-3.5413618405	-3.1364870028	 0.206339
66.1085	85.267	107.2871	192.2703	234.4472	246.525	397.9325	500.9431	517.3523	590.3876	618.6429	657.1809	670.735	696.2571	813.9134	925.7017	997.4816	1013.1452	1047.4907	1061.0154	1110.7145	1124.3309	1157.7168	1194.8334	1359.1781	1383.3555	1406.0608	1468.4236	1478.4556	1506.4461	1808.0609	2244.2659	3044.9953	3101.2908	3111.6438	3130.463	3161.9685	3193.4084	3503.7105
CC(=O)N1CC1C#C	CC(=O)N1C[C@H]1C#C	
InChI=1S/C6H7NO/c1-3-6-4-7(6)5(2)8/h1,6H,4H2,2H3	InChI=1S/C6H7NO/c1-3-6-4-7(6)5(2)8/h1,6H,4H2,2H3/t6-,7?/m1/s1
