23
gdb 63658	3.91048	0.76686	0.7385	1.1911	86.41	-0.2439	0.0776	0.3215	1655.4771	0.204051	-388.264301	-388.254265	-388.253321	-388.299634	38.16	
C	-0.0125985193	 1.5514633164	-0.1471668209	-0.446687
C	 0.0718323987	 0.0504306825	 0.0160121968	 0.382179
O	-1.0046269674	-0.6378975846	-0.5781228475	-0.466938
C	 1.4094445407	-0.6556282611	 0.0243316015	-0.348579
C	 0.5524376764	-0.6020763262	 1.279225121	-0.01124
C	 0.9808537765	 0.1603088715	 2.5183682542	-0.251437
C	 1.7997101059	-0.6864168912	 3.4743303607	 0.050948
C	 3.2952875731	-0.7992320522	 3.3213138712	-0.249914
C	 2.7086379817	-0.0396865105	 4.4872686493	-0.282715
H	 0.8193129729	 2.0656008942	 0.3406295139	 0.117082
H	 0.0143420883	 1.8223318122	-1.2102715758	 0.104627
H	-0.9498695312	 1.931970468	 0.2718295118	 0.12494
H	-0.9344663308	-0.5209342011	-1.5324786074	 0.276339
H	 1.4799621822	-1.6009154936	-0.5023063366	 0.107613
H	 2.3100138296	-0.0493163197	-0.0033690716	 0.102225
H	 0.0221129829	-1.5272378279	 1.4917512119	 0.092731
H	 1.5660613306	 1.0447383258	 2.2376479078	 0.086983
H	 0.0902824071	 0.5362805729	 3.0413740592	 0.100352
H	 1.2935513584	-1.5900057496	 3.806693135	 0.08045
H	 3.7677039685	-1.7562712774	 3.5134177879	 0.108595
H	 3.7683662171	-0.2250581057	 2.5314290878	 0.107033
H	 2.7879176919	 1.0428924168	 4.4774704121	 0.106765
H	 2.7779165361	-0.4778212296	 5.4769120775	 0.108648
46.2335	79.8108	115.6019	199.6819	220.3428	244.5835	313.6982	316.3821	363.3946	396.2653	425.9024	454.2864	515.9513	701.2465	772.4482	802.1921	822.2786	852.4777	868.0356	907.9371	919.6173	934.9824	966.2836	991.4422	1027.7845	1051.9056	1059.8434	1077.124	1080.6657	1101.4459	1129.8278	1141.2694	1193.8204	1198.0341	1229.9807	1240.082	1275.8876	1293.604	1322.0734	1363.1895	1407.9597	1414.4669	1429.326	1468.5703	1475.293	1485.5014	1487.9371	1507.6777	1512.173	3005.8769	3023.6613	3047.6437	3085.1366	3119.2078	3123.8648	3126.9053	3129.1805	3133.926	3141.3204	3204.3019	3214.2897	3219.8967	3786.2287
CC1(O)CC1CC1CC1	C[C@@]1(O)C[C@H]1CC1CC1	
InChI=1S/C8H14O/c1-8(9)5-7(8)4-6-2-3-6/h6-7,9H,2-5H2,1H3	InChI=1S/C8H14O/c1-8(9)5-7(8)4-6-2-3-6/h6-7,9H,2-5H2,1H3/t7-,8-/m1/s1
