25
gdb 123259	10.36523	0.37334	0.36613	0.128	89.09	-0.2492	0.0899	0.3391	3023.0028	0.225972	-426.614466	-426.602442	-426.601498	-426.65357	40.574	
C	 0.0093753517	 1.5162748249	-0.0456303548	-0.384211
C	 0.0152232394	-0.0029175212	-0.0205037908	-0.027082
O	 0.6726354606	-0.4717585075	-1.1786382575	-0.244207
C	 0.7334774537	-1.8786695561	-1.2561621344	-0.049368
C	 1.4592499384	-2.2672185339	-2.5373698808	-0.20084
C	 1.5737221431	-3.7843096966	-2.708655981	-0.199413
C	 2.2996728023	-4.1744080881	-3.9888690593	-0.049699
O	 2.3581885038	-5.5822797226	-4.0638619704	-0.230902
C	 3.0143046402	-6.0428654865	-5.2187575893	-0.226883
H	 1.0321142065	 1.9034557596	-0.0661425876	 0.125562
H	-0.5125873832	 1.8832237698	-0.9340104176	 0.125547
H	-0.4943193789	 1.9113587522	 0.841706834	 0.113021
H	 0.5274915708	-0.3726968652	 0.8846666437	 0.082983
H	-1.0167315683	-0.3930321321	 0.0163180257	 0.082979
H	 1.2610446357	-2.2901048105	-0.3774591433	 0.08266
H	-0.2836126005	-2.3089767461	-1.2467467946	 0.082666
H	 0.9235615979	-1.8269158288	-3.3872616477	 0.105505
H	 2.4556088738	-1.8086712062	-2.5249983648	 0.10549
H	 2.1089100236	-4.2245558564	-1.8584381778	 0.106121
H	 0.5773105676	-4.2426847618	-2.7214751499	 0.106135
H	 1.7733681206	-3.7645647104	-4.869171091	 0.083065
H	 3.3179476588	-3.7467170539	-3.9987622322	 0.083064
H	 3.0085961434	-7.1353146403	-5.1869228874	 0.125055
H	 2.506278664	-5.7123167429	-6.1392812811	 0.101376
H	 4.059106015	-5.6949282291	-5.2640389903	 0.101376
39.7469	59.8635	67.0861	91.9225	115.4423	139.7066	162.6859	172.6312	237.155	248.492	251.2735	314.0565	432.2227	487.903	525.1063	755.6196	815.6479	823.8691	896.5791	947.5807	979.1199	1024.2938	1054.385	1062.5196	1096.2143	1149.5017	1163.7723	1170.8262	1172.8717	1182.6652	1202.428	1225.1725	1231.3716	1276.0767	1286.5752	1295.9377	1312.7032	1318.8451	1365.6047	1393.3066	1410.3998	1429.3681	1454.7862	1481.716	1483.8578	1484.9735	1491.8631	1498.7473	1500.8552	1507.2568	1519.075	1533.8536	1540.2299	2938.528	2940.4357	2953.3031	2965.5148	2966.2796	2966.7226	2971.5518	3006.4317	3026.1513	3034.9339	3044.292	3058.1267	3082.6234	3110.9123	3118.4867	3120.3905
CCOCCCCOC	CCOCCCCOC	
InChI=1S/C7H16O2/c1-3-9-7-5-4-6-8-2/h3-7H2,1-2H3	InChI=1S/C7H16O2/c1-3-9-7-5-4-6-8-2/h3-7H2,1-2H3
