21
gdb 59440	2.63446	1.05778	0.9531	3.2308	80.11	-0.2491	-0.028	0.2211	1387.1538	0.178659	-424.233979	-424.223452	-424.222508	-424.27011	37.527	
C	-2.1713936214	 0.3794351264	 1.0476099678	-0.393992
C	-0.9181946169	-0.20278527	 0.37582596	-0.011067
C	-0.1712145498	 0.8548099358	-0.4487934897	-0.395271
C	-0.0046831102	-0.7816796824	 1.4340897783	 0.079118
O	-0.3852420796	-2.0028509696	 2.0480392908	-0.239919
C	 0.8104152352	-2.017778248	 1.2742852633	-0.066653
C	 0.8102205258	-2.8158505899	-0.0054020813	 0.375426
C	 2.1868314252	-3.1662050424	-0.5388635064	-0.489194
O	-0.2099005766	-3.1449593561	-0.5651164596	-0.300025
H	-1.9132881257	 1.2043631946	 1.7227243695	 0.108459
H	-2.8660760796	 0.7687443697	 0.2969101849	 0.114465
H	-2.6910347705	-0.3867761776	 1.6296010043	 0.134516
H	-1.2251416235	-1.0229559708	-0.2785157254	 0.1186
H	 0.1867968813	 1.6751220969	 0.1850883674	 0.112533
H	 0.6954866192	 0.4274992989	-0.9639797202	 0.110954
H	-0.8302835008	 1.2881429005	-1.2070784678	 0.12091
H	 0.4022750285	-0.0456376999	 2.1350018339	 0.091487
H	 1.7294129281	-2.0879384034	 1.8587077806	 0.094721
H	 2.6791940237	-3.8741557338	 0.1385989925	 0.147725
H	 2.096201315	-3.6153057146	-1.5281186917	 0.147253
H	 2.8253922128	-2.2766797245	-0.5864001813	 0.139953
51.2206	60.4175	127.1601	135.8252	179.1425	215.1136	234.7616	260.1523	317.2086	342.0073	369.9404	462.9722	491.4066	611.3481	629.6904	762.9225	845.3201	884.6444	910.2164	933.6867	948.1169	970.0665	988.7611	1017.2368	1080.5006	1115.6934	1148.7592	1183.2853	1192.906	1206.6158	1280.2878	1317.9987	1360.1594	1377.274	1396.8526	1403.6641	1417.8617	1462.2251	1464.9991	1473.8443	1486.9776	1491.6379	1504.0356	1512.3637	1810.4353	3025.1442	3028.8365	3032.7356	3055.8805	3078.1362	3090.5844	3091.7973	3097.2455	3103.1605	3107.9273	3116.6848	3156.3231
CC(C)C1OC1C(C)=O	CC(C)[C@H]1O[C@H]1C(=O)C	
InChI=1S/C7H12O2/c1-4(2)6-7(9-6)5(3)8/h4,6-7H,1-3H3	InChI=1S/C7H12O2/c1-4(2)6-7(9-6)5(3)8/h4,6-7H,1-3H3/t6-,7+/m1/s1
