20
gdb 108432	2.22796	1.65554	1.21183	1.846	78.76	-0.231	-0.0276	0.2034	1119.3947	0.170138	-403.128551	-403.11971	-403.118766	-403.162347	33.129	
C	-0.1271514219	 1.5629176289	-0.0341863907	-0.390797
C	-0.0449353817	 0.0315139226	-0.0733240269	-0.264396
C	 0.7681385501	-0.4679894053	-1.2525973324	 0.237808
C	 0.1818476118	-0.3400320931	-2.6854444496	-0.305239
C	 0.4903403733	-1.8489121476	-2.8585605519	-0.167186
N	 0.9774492245	-1.973191089	-1.443974465	-0.167858
C	 2.4607588884	-1.8227337008	-1.3417601138	-0.30664
C	 2.2977744584	-0.3015328226	-1.167263765	 0.351554
O	 3.0366012765	 0.6224247283	-0.989935325	-0.293699
H	 0.871083405	 2.0057299458	 0.0213280598	 0.146299
H	-0.6190535461	 1.9577424607	-0.9296899182	 0.117093
H	-0.7008696985	 1.8978643582	 0.8346574177	 0.116516
H	 0.4025223026	-0.3449481639	 0.8548235866	 0.104616
H	-1.0482118341	-0.4082674993	-0.1338502688	 0.103504
H	-0.8830926284	-0.0957498169	-2.6843051522	 0.115899
H	 0.6950683865	 0.3494009618	-3.3586631048	 0.12006
H	-0.380386344	-2.482639484	-3.0460168199	 0.113201
H	 1.2538817388	-2.0867776191	-3.6074597364	 0.103917
H	 2.8747067057	-2.3209597693	-0.4578173968	 0.137618
H	 3.0329732933	-2.1444780855	-2.2195302166	 0.127728
69.4483	97.8128	132.4814	197.0033	217.952	289.9539	325.3832	429.338	473.5811	497.5034	614.556	676.7522	740.1323	778.6661	803.4254	829.7617	886.5829	928.7231	954.2303	990.9825	995.8139	1021.6478	1044.2301	1062.2753	1103.6252	1156.4013	1185.2463	1202.5834	1216.4571	1238.9479	1250.5731	1268.8014	1311.7181	1319.0934	1350.0875	1411.841	1449.6198	1478.8198	1490.0613	1498.6983	1511.5045	1512.5203	1888.4776	3024.1044	3031.8709	3038.4626	3038.8385	3058.9506	3067.5107	3080.7393	3087.7523	3104.8156	3121.9422	3123.5411
CCC12CCN1CC2=O	CC[C@]12CCN1CC2=O	
InChI=1S/C7H11NO/c1-2-7-3-4-8(7)5-6(7)9/h2-5H2,1H3	InChI=1S/C7H11NO/c1-2-7-3-4-8(7)5-6(7)9/h2-5H2,1H3/t7-/m1/s1
