23
gdb 81441	3.23041	1.29849	1.20987	0.2459	89.62	-0.2543	0.0962	0.3505	1177.1664	0.207868	-351.135766	-351.12773	-351.126786	-351.167769	33.427	
C	-0.1753752751	 1.5186828213	 0.0105238322	-0.43775
C	 0.0086474684	 0.0060983319	 0.0218839164	 0.057601
C	 1.1315174636	-0.6018302655	-0.8856000201	-0.025623
C	 2.1291670594	-0.274164196	 0.2652804726	-0.240204
C	 0.8959145961	-0.6188623459	 1.1513354905	-0.095476
C	 0.7317554306	-2.1079167822	 0.8585204778	 0.437324
C	 1.253069906	-3.187188192	 1.7607440123	-0.345977
C	-0.2397573446	-2.986580723	 1.5900419569	-0.342437
C	 0.9073159004	-2.1152536451	-0.6813653223	-0.30788
H	 0.7628548186	 2.0685397013	 0.1235629843	 0.116011
H	-0.6349775763	 1.8430391127	-0.9299690173	 0.113184
H	-0.8397287623	 1.8317504619	 0.8238240838	 0.113426
H	-0.9718452052	-0.4720261239	-0.0912831336	 0.060526
H	 1.2934418276	-0.2538906361	-1.9076463784	 0.053028
H	 3.0153751231	-0.9075316375	 0.3665861151	 0.089052
H	 2.4207574487	 0.7752034933	 0.3055157914	 0.095193
H	 0.8159450367	-0.3036717837	 2.1939096146	 0.048234
H	 1.7040907264	-4.0647168875	 1.3072939954	 0.105744
H	 1.6992448683	-2.9006519688	 2.7084597538	 0.10618
H	-0.7938817209	-2.5644292392	 2.4231436537	 0.105841
H	-0.7923595165	-3.7292944946	 1.0227002403	 0.105881
H	 0.0186235371	-2.4801817602	-1.2069444662	 0.094179
H	 1.7656537901	-2.712384201	-1.006718143	 0.093945
127.0874	194.3166	215.1091	247.9028	314.9398	327.0623	431.1902	446.8022	511.9403	546.0529	741.3542	776.8526	780.5984	827.6234	836.1029	867.4852	882.3037	916.901	935.4046	949.6964	975.397	991.8304	1004.9959	1034.7798	1053.7959	1065.0816	1077.0494	1082.6267	1098.8082	1109.8121	1123.6273	1184.5603	1187.5483	1218.1372	1235.2638	1239.4961	1253.3166	1277.017	1289.8427	1304.99	1384.897	1399.7063	1412.7988	1465.4583	1490.3297	1497.3037	1500.1154	1506.3161	1519.2082	3024.5723	3031.8684	3036.6342	3060.4155	3078.9643	3086.387	3090.6065	3095.4266	3110.4562	3115.1804	3119.4593	3134.549	3191.6421	3206.7255
CC1C2CC1C1(CC1)C2	C[C@H]1[C@H]2C[C@@H]1C1(CC1)C2	
InChI=1S/C9H14/c1-6-7-4-8(6)9(5-7)2-3-9/h6-8H,2-5H2,1H3	InChI=1S/C9H14/c1-6-7-4-8(6)9(5-7)2-3-9/h6-8H,2-5H2,1H3/t6-,7-,8-/m0/s1
