15
gdb 51931	4.60286	0.582	0.53754	4.5772	73.6	-0.2712	-0.0073	0.2639	1945.6608	0.109993	-457.716688	-457.707424	-457.70648	-457.753482	30.65	
O	 0.5662041599	 0.3490333097	 0.9397990777	-0.264005
C	 0.6602504361	 1.5181858604	 0.7260398131	 0.182722
O	 0.5923986802	 2.032968206	-0.5214660935	-0.16686
C	 0.7613948761	 3.4572260333	-0.6387803993	-0.253657
C	 2.1604362665	 3.8590354429	-0.654223098	 0.136068
C	 3.3187289541	 4.1889016207	-0.6523637317	 0.069612
C	 4.7094178043	 4.5519478512	-0.666437245	-0.1139
C	 5.1421229534	 5.9614856372	-0.5771529646	-0.158533
O	 5.2651778518	 5.0949041864	 0.541486894	-0.210276
H	 0.7981459829	 2.2914793261	 1.506261858	 0.087123
H	 0.2664991639	 3.7245441833	-1.5761831328	 0.161558
H	 0.2274928555	 3.9673713577	 0.1737980852	 0.147367
H	 5.366399948	 3.851079838	-1.17972436	 0.128303
H	 6.0750850067	 6.2561376133	-1.0554959827	 0.126774
H	 4.3870406806	 6.7401728437	-0.4894629203	 0.127706
28.0832	38.176	92.8345	128.5883	147.6336	216.1389	309.9939	345.7222	460.5542	510.609	550.7511	676.3455	740.655	840.1987	903.3501	980.0271	995.1573	1031.6161	1045.1739	1082.6801	1143.3759	1151.7857	1158.6303	1186.3324	1281.9759	1296.962	1388.3172	1405.2902	1433.8382	1480.6655	1519.6554	1874.3837	2365.0141	2955.4964	3026.6257	3088.5987	3095.761	3121.7121	3182.4639
O=COCC#CC1CO1	O=COCC#C[C@H]1CO1	
InChI=1S/C6H6O3/c7-5-8-3-1-2-6-4-9-6/h5-6H,3-4H2	InChI=1S/C6H6O3/c7-5-8-3-1-2-6-4-9-6/h5-6H,3-4H2/t6-/m0/s1
