18
gdb 74676	3.17008	1.68777	1.50587	1.9005	80.99	-0.2058	0.0067	0.2125	954.3106	0.149863	-364.801065	-364.794161	-364.793217	-364.832034	28.37	
C	 0.0982433826	 1.460578606	 0.0450743651	-0.503068
C	-0.0133667943	-0.0301605703	-0.0044070151	 0.357101
C	-0.0856930937	-0.8237304294	-1.0829963852	-0.185862
C	 0.0023275025	-2.2830603898	-0.659278303	-0.127945
C	 1.498610455	-2.5708558477	-0.7084603138	-0.079409
C	 2.037545775	-2.3151268314	 0.4892766794	-0.070991
C	 0.9730663007	-2.0058186997	 1.4586803023	-0.075611
C	-0.0511463424	-0.8743703155	 1.2091186002	-0.14791
N	-0.3272005763	-2.2641773904	 0.8148083748	-0.107981
H	 1.0617214147	 1.7701365742	 0.4697291946	 0.131354
H	 0.0123715665	 1.9005883427	-0.951667374	 0.126447
H	-0.6808215818	 1.900019281	 0.6799717619	 0.127316
H	-0.0261383561	-0.5019358439	-2.1166650395	 0.094567
H	-0.6356943652	-2.9803836291	-1.2075692206	 0.080711
H	 2.0330111212	-2.7729060776	-1.6291273506	 0.10166
H	 3.0910029742	-2.3195793447	 0.7382812984	 0.099694
H	 1.0754278913	-2.3320929292	 2.4912278993	 0.092333
H	-0.5732562041	-0.5057749952	 2.0905648558	 0.087595
150.7091	175.0477	270.0124	328.9759	387.1224	500.9338	593.8177	617.4501	680.3395	716.7295	763.6138	795.6037	799.374	829.5675	871.9118	916.6443	926.264	930.9422	967.5714	981.3572	1007.2021	1028.4243	1065.3229	1088.5544	1101.4087	1121.9117	1177.7229	1211.4853	1266.466	1282.7747	1291.3809	1328.568	1364.6375	1390.0357	1414.0799	1480.1	1489.6768	1640.9344	1684.5091	3019.8712	3066.9648	3069.0108	3115.0294	3118.1366	3133.2212	3196.4978	3199.5907	3224.5983
CC1=CC2C=CC3C1N23	CC1=C[C@H]2C=C[C@H]3[C@@H]1N23	
InChI=1S/C8H9N/c1-5-4-6-2-3-7-8(5)9(6)7/h2-4,6-8H,1H3	InChI=1S/C8H9N/c1-5-4-6-2-3-7-8(5)9(6)7/h2-4,6-8H,1H3/t6-,7+,8-,9?/m1/s1
