15
gdb 16477	3.03369	2.73568	1.7614	4.2578	64.56	-0.2405	0.0024	0.243	761.9008	0.119055	-362.616243	-362.609534	-362.60859	-362.646982	25.534	
C	 0.0133715277	 1.4868018229	 0.0690516946	-0.513989
C	 0.0009758914	-0.0067290229	-0.0504915764	 0.175851
C	-1.0113141789	-0.9337854005	 0.689587538	-0.122978
C	-1.0228585114	-2.2449442113	-0.0901648426	-0.197389
N	 0.4869394939	-2.1040895525	-0.2496258067	-0.222871
C	 0.4447259015	-1.1048107939	 0.9172648045	-0.066526
C	 0.5366415431	-0.8925780437	-1.1248331175	 0.383224
O	 0.9937430851	-0.7614614321	-2.2156110132	-0.3147
H	 0.9958275914	 1.8902284618	-0.1938363972	 0.142678
H	-0.725363922	 1.9389830615	-0.600362709	 0.140289
H	-0.2224396968	 1.8043254668	 1.0894926053	 0.127263
H	-1.7573581761	-0.4970768585	 1.343919513	 0.104373
H	-1.2506154251	-3.1119740955	 0.5344183045	 0.122497
H	-1.5685590052	-2.3079694082	-1.0378716488	 0.120225
H	 1.1315367414	-1.0777153537	 1.7494544714	 0.122051
132.0138	170.6318	229.1988	255.1066	411.3538	487.3567	623.8844	661.3057	740.7658	787.2489	819.9825	844.855	880.347	888.5855	932.873	942.9209	975.0981	1014.1477	1067.2351	1093.3387	1100.8412	1149.1906	1169.2138	1226.7592	1278.7709	1307.3009	1404.4303	1427.0739	1483.8807	1496.9385	1510.8698	1917.5773	3038.1899	3045.6226	3104.5631	3110.0512	3110.2733	3179.4601	3239.9105
CC12C3CN(C13)C2=O	C[C@]12[C@H]3CN([C@@H]13)C2=O	
InChI=1S/C6H7NO/c1-6-3-2-7(4(3)6)5(6)8/h3-4H,2H2,1H3	InChI=1S/C6H7NO/c1-6-3-2-7(4(3)6)5(6)8/h3-4H,2H2,1H3/t3-,4+,6-/m0/s1
