20
gdb 59125	3.24832	1.38942	1.33006	1.5186	77.9	-0.2183	0.0671	0.2855	1063.6529	0.171392	-403.06235	-403.054223	-403.053279	-403.094818	32.204	
C	 0.4076770269	 1.4865090887	-0.3584622179	-0.401654
C	-0.0085265324	 0.0362138058	-0.0988495742	 0.078255
O	 0.1236642989	-0.7738724124	-1.26540227	-0.424521
C	 0.783502326	-0.5768005905	 1.0547972048	 0.0675
C	 0.9468043634	-2.070844568	 1.2797234107	-0.103426
C	 2.2506117689	-2.4849236652	 0.56910288	-0.075808
C	 2.7919541306	-1.2262802215	-0.0779965037	-0.174471
N	 2.3037043139	-0.4353824326	 1.1296155572	-0.201497
C	 2.2873643486	-1.7838756715	 1.8918880023	-0.035419
H	 1.4628776405	 1.544784637	-0.6366469585	 0.141642
H	-0.1929929302	 1.9218150488	-1.1655675462	 0.099233
H	 0.2576869831	 2.0999175077	 0.5355328644	 0.12203
H	-1.0646222342	 0.0266472094	 0.2230160587	 0.067874
H	-0.3475471225	-0.334360822	-1.9802155057	 0.281011
H	 0.4081885333	-0.1071110057	 1.9716231718	 0.079947
H	 0.2164319754	-2.8105038707	 1.584375005	 0.08427
H	 2.453925072	-3.5269735382	 0.3551374593	 0.085781
H	 3.8852963892	-1.1996186454	-0.0779046065	 0.097526
H	 2.3961420766	-0.9016665163	-1.040513269	 0.117025
H	 2.7364097719	-1.9680647973	 2.8571828675	 0.094702
80.8525	163.4372	206.4158	246.6604	278.1692	336.2452	356.3087	453.8302	512.8208	627.9885	739.7128	777.487	804.644	813.5267	816.3231	854.4074	871.1517	927.5076	944.2026	977.0891	1005.1856	1015.2124	1031.5263	1042.1649	1049.1811	1097.8932	1120.0209	1124.092	1162.8536	1172.6331	1198.601	1246.2242	1260.7904	1285.4219	1308.3622	1357.8037	1368.133	1406.3146	1409.1971	1432.2015	1489.8436	1497.7769	1510.1359	2943.0377	3030.7545	3037.5014	3061.3928	3098.4427	3127.1736	3138.289	3184.1076	3191.1743	3221.6952	3818.4287
CC(O)C1C2C3CN1C23	C[C@@H](O)[C@H]1[C@H]2[C@H]3CN1[C@@H]23	
InChI=1S/C7H11NO/c1-3(9)6-5-4-2-8(6)7(4)5/h3-7,9H,2H2,1H3	InChI=1S/C7H11NO/c1-3(9)6-5-4-2-8(6)7(4)5/h3-7,9H,2H2,1H3/t3-,4-,5-,6+,7-/m1/s1
