16
gdb 125214	3.1855	1.38982	0.97561	1.2556	79.21	-0.2226	-0.04	0.1826	1168.6862	0.125013	-434.058766	-434.050568	-434.049623	-434.091405	31.247	
C	 0.0080813164	 1.4935821848	-0.0303567027	-0.468932
C	-0.0544479237	 0.0021755796	 0.0537720104	 0.405187
C	-1.1502135202	-0.7603956123	-0.1279201858	-0.252514
C	-1.0583298451	-2.1964904221	-0.0779502656	 0.245916
N	-2.0555905685	-2.9619161354	-0.3518388249	-0.537528
C	 0.2998575088	-2.6533245842	 0.3163056412	 0.328079
N	 0.5133956631	-4.0138834873	 0.4367642564	-0.558065
N	 1.3217881121	-1.8880708151	 0.5344034301	-0.174276
O	 1.1606713978	-0.5168953316	 0.3335024754	-0.279243
H	 0.7158206691	 1.8038790876	-0.8059489154	 0.151592
H	-0.9757372534	 1.903097391	-0.2637042765	 0.141404
H	 0.3562940455	 1.9170693481	 0.9173342961	 0.150309
H	-2.1036115412	-0.3066995139	-0.3643772762	 0.116525
H	-1.7847696321	-3.9455142916	-0.3340267362	 0.209762
H	-0.2366963375	-4.5135226368	 0.8953355863	 0.257757
H	 1.4211740689	-4.237366531	 0.8238393574	 0.264026
103.1599	124.3971	182.8552	294.0948	332.0827	348.4737	374.0265	441.7963	463.4223	517.7034	571.1018	578.8478	696.0829	714.653	760.4428	785.1585	862.0575	893.2158	916.4788	1009.8975	1044.8905	1065.589	1133.4655	1166.6859	1193.9602	1313.6583	1366.7036	1413.6771	1458.1661	1469.7891	1485.2669	1607.0561	1632.334	1670.4946	1704.1318	3044.6077	3102.5248	3146.7155	3222.8503	3470.6884	3544.2216	3647.0524
CC1=CC(=N)C(N)=NO1	C[C]1C=C([NH])C(=NO1)N	
InChI=1S/C5H7N3O/c1-3-2-4(6)5(7)8-9-3/h2,6H,1H3,(H2,7,8)	InChI=1S/C5H7N3O/c1-3-2-4(6)5(7)8-9-3/h2,6H,1H3,(H2,7,8)
