19
gdb 34681	4.3173	1.07831	1.07277	1.1001	86.	-0.2402	0.0496	0.2898	1203.0998	0.159621	-348.664774	-348.657125	-348.656181	-348.696617	31.241	
C	-0.0455413992	-1.1039459095	-0.0462976863	-0.399451
C	-0.0005309107	 0.0973298075	 0.0012571732	 0.267499
C	 0.0480691213	 1.5311734023	 0.0546702912	-0.233998
C	 0.5758818807	 2.1521189037	 1.3364023951	-0.065375
C	 1.4257528588	 2.1705449918	 0.0685688858	-0.065377
C	 1.3549781378	 3.7140594281	 0.0248426117	-0.0316
C	 0.1960001987	 4.4150195472	-0.7470890636	-0.242285
C	-0.676026453	 4.39607975	 0.5537165479	-0.242289
C	 0.4877651119	 3.6952534802	 1.3184941356	-0.031598
H	-0.0888790125	-2.1635983726	-0.0907043813	 0.189064
H	-0.7615281476	 2.0175376743	-0.4809579334	 0.110488
H	 0.6790797494	 1.5380345049	 2.2225451177	 0.097731
H	 2.2927995555	 1.5730209399	-0.1847953107	 0.09773
H	 2.3315661491	 4.1982851393	 0.0096814978	 0.071297
H	 0.45298646	 5.4241784193	-1.0772961864	 0.099195
H	-0.2031037361	 3.8710437885	-1.6072317583	 0.104238
H	-0.8973919928	 5.3948512894	 0.9370342261	 0.099194
H	-1.6158869368	 3.8403429013	 0.5002445363	 0.10424
H	 0.8383187655	 4.1659122541	 2.2372003516	 0.071297
129.0465	142.0743	208.6928	267.0371	370.6198	462.4408	487.087	499.2748	579.3218	646.651	668.7832	730.8796	749.0335	809.6126	853.9736	858.1656	876.5343	898.1234	921.01	951.1879	977.3371	1027.3596	1044.7547	1044.8211	1053.916	1089.9388	1109.3476	1143.238	1174.3699	1204.7318	1225.4203	1241.7584	1252.731	1286.593	1289.4351	1289.6169	1325.9514	1394.2422	1474.6077	1491.9563	2237.0166	3057.0389	3062.8135	3094.3022	3104.8501	3107.2849	3120.779	3149.4591	3181.5329	3192.0573	3506.5972
C#CC1C2C1C1CCC21	C#C[C@H]1[C@H]2[C@@H]1[C@H]1CC[C@@H]21	
InChI=1S/C9H10/c1-2-5-8-6-3-4-7(6)9(5)8/h1,5-9H,3-4H2	InChI=1S/C9H10/c1-2-5-8-6-3-4-7(6)9(5)8/h1,5-9H,3-4H2/t5-,6+,7-,8+,9-
