24
gdb 5894	3.94537	0.88969	0.87894	0.9955	82.66	-0.2492	0.0732	0.3224	1494.2921	0.220223	-351.407117	-351.3963	-351.395356	-351.442899	39.045	
C	 0.1444055317	 1.3801938598	 0.0079225197	-0.225901
O	 0.0567231266	-0.0223691829	 0.0013765375	-0.228528
C	-1.2775725809	-0.490498287	 0.0114771555	-0.073057
C	-1.2321034944	-2.0151131115	 0.0029594995	-0.19539
C	-2.591957553	-2.754459141	 0.0120149004	 0.257365
C	-3.4223768078	-2.4026793344	-1.2372077989	-0.400485
C	-2.3009430944	-4.2672105829	 0.0009603312	-0.399995
C	-3.3981599923	-2.4164244529	 1.2807473354	-0.400488
H	 1.2051659288	 1.6437112062	-0.0006783005	 0.124365
H	-0.3387120051	 1.8269004857	-0.8764597481	 0.100097
H	-0.3219321625	 1.8175321582	 0.9058905166	 0.100096
H	-1.801406532	-0.1114965602	 0.9047342042	 0.0837
H	-1.8181171504	-0.1021037021	-0.8676790856	 0.083701
H	-0.6620655579	-2.3246955641	-0.8818224243	 0.098432
H	-0.645301239	-2.3339971576	 0.8733611768	 0.098436
H	-2.8615103462	-2.6095315475	-2.1555655435	 0.109276
H	-4.3419499791	-2.9974511342	-1.268746328	 0.107766
H	-3.7159210773	-1.3483264641	-1.2543590025	 0.110346
H	-1.7168507316	-4.5647624036	 0.8787486344	 0.108618
H	-3.2317227927	-4.8450780953	 0.0067522511	 0.10564
H	-1.7338661916	-4.5550931512	-0.8910941403	 0.108617
H	-3.6912616836	-1.3623680868	 1.315035451	 0.110344
H	-4.3169911643	-3.0116425311	 1.323495923	 0.107768
H	-2.8197331009	-2.6331857295	 2.1858313854	 0.109277
53.8981	74.8936	130.5159	135.891	226.0619	233.1597	258.6693	271.0402	289.1618	305.6242	327.8322	378.3333	408.4526	483.7398	493.6925	753.0841	794.3076	917.6757	931.6853	938.4648	955.0506	987.8501	989.0263	1034.7292	1086.0755	1095.2026	1161.3683	1180.0722	1209.3431	1226.2222	1242.9866	1273.6662	1283.6576	1330.8313	1338.6328	1395.0672	1398.995	1425.663	1431.5793	1479.2789	1480.24	1480.6018	1484.4313	1486.6585	1488.8327	1504.2494	1506.2494	1508.6297	1517.175	1534.234	2953.4235	2967.2641	2982.7391	3004.0071	3020.3177	3022.6989	3023.5515	3032.3771	3064.5029	3088.7893	3088.8522	3092.9347	3096.2283	3096.6712	3100.071	3109.4369
COCCC(C)(C)C	COCCC(C)(C)C	
InChI=1S/C7H16O/c1-7(2,3)5-6-8-4/h5-6H2,1-4H3	InChI=1S/C7H16O/c1-7(2,3)5-6-8-4/h5-6H2,1-4H3
