12
gdb 20314	6.63815	1.31449	1.10462	3.7361	60.99	-0.2747	-0.0413	0.2334	976.9591	0.082517	-377.464262	-377.457256	-377.456311	-377.49617	24.957	
C	-0.2363852162	-1.0459439728	-0.6770245746	-0.427968
C	-0.0684279159	 0.0176955298	-0.1466542334	 0.306922
C	 0.1350467812	 1.3092369902	 0.4976668505	-0.47893
C	 1.4239047846	 1.9631765655	 0.1047074967	 0.417515
C	 2.4435337625	 1.6101650473	-0.7231929465	-0.187401
N	 3.3635949435	 2.6304099083	-0.6750501339	-0.107163
N	 2.9871037278	 3.5434537088	 0.0955350896	-0.008975
O	 1.703289946	 3.1482172676	 0.6391817054	-0.220831
H	-0.3913229921	-1.987904163	-1.1429815635	 0.211041
H	-0.6934537014	 1.9881681218	 0.2559546682	 0.171431
H	 0.1153958838	 1.1953918959	 1.5896523674	 0.171429
H	 2.5797609562	 0.7314756607	-1.3277188358	 0.152931
51.1899	119.3927	241.9073	304.2831	325.8993	453.5465	602.7558	635.1741	654.2714	670.916	701.1312	731.2962	829.3259	955.2805	968.5347	993.4678	1048.5381	1118.2947	1221.3564	1226.048	1310.0824	1398.0567	1453.5234	1467.0982	1607.1328	2251.9868	3022.229	3048.4597	3306.3369	3503.2726
C#CCC1=CN=NO1	C#CCc1cnno1	
InChI=1S/C5H4N2O/c1-2-3-5-4-6-7-8-5/h1,4H,3H2	InChI=1S/C5H4N2O/c1-2-3-5-4-6-7-8-5/h1,4H,3H2
