22
gdb 78051	2.8199	1.18881	1.10111	0.8219	82.68	-0.2239	0.0652	0.2891	1259.6687	0.192259	-404.309142	-404.299349	-404.298405	-404.342887	37.724	
C	-0.4158562871	 1.6033023465	 0.6217371118	-0.402458
C	-0.29532459	 0.1154639563	 0.3443341505	 0.006983
C	 0.7076102045	-0.3037508404	-0.7778622076	 0.127374
O	 1.4037684661	 0.7256970312	-1.4397157748	-0.434247
C	 1.4892103816	-1.0339424731	 0.3174217204	-0.146339
N	 0.5405023536	-0.5567822061	 1.4150027064	-0.185404
C	 0.6774806518	-2.0009753331	 1.094250984	 0.335389
C	-0.4476834014	-2.8253416936	 0.4972344518	-0.46846
C	 1.4124527226	-2.7235395892	 2.2100899662	-0.442593
H	 0.5604820521	 2.0618662938	 0.8097573672	 0.104774
H	-0.8853029432	 2.1216755873	-0.219304312	 0.123835
H	-1.0221682301	 1.7635995353	 1.5178734723	 0.125529
H	-1.2969528892	-0.3176119194	 0.2512592798	 0.070293
H	 0.3030056628	-0.9290961078	-1.5789599911	 0.087006
H	 1.8309808273	 1.279779261	-0.777650102	 0.283001
H	 2.5705345769	-0.9686101205	 0.4227809287	 0.08466
H	-0.9149810548	-2.3732917487	-0.3785329944	 0.125783
H	-0.0619083934	-3.8038476785	 0.1926248427	 0.122581
H	-1.229411007	-2.9987028975	 1.2457185896	 0.123751
H	 0.7135924319	-3.0123021353	 3.0025385433	 0.119424
H	 1.8955498384	-3.6321180802	 1.8345519133	 0.112968
H	 2.1742856566	-2.0775792781	 2.6527017541	 0.126151
112.0834	178.1517	187.6232	201.1097	211.0346	260.5273	262.2173	290.8188	341.3693	346.4852	411.4268	471.8477	494.6607	564.8908	668.1807	778.3556	800.5655	818.8012	871.6366	926.2512	961.8595	977.454	1026.3855	1035.9702	1047.9363	1063.4278	1081.1415	1127.1983	1145.8506	1148.1881	1211.0094	1253.8558	1265.472	1297.764	1304.1275	1366.3543	1401.0319	1408.2672	1411.95	1423.8485	1440.7872	1480.1527	1482.9455	1486.583	1499.5401	1505.1165	1511.1545	3031.8942	3037.6602	3038.4182	3045.0903	3063.5379	3091.7346	3097.9988	3105.3087	3120.5425	3122.7555	3127.4394	3138.5155	3807.6031
CC1C(O)C2N1C2(C)C	C[C@H]1[C@@H](O)[C@H]2N1C2(C)C	
InChI=1S/C7H13NO/c1-4-5(9)6-7(2,3)8(4)6/h4-6,9H,1-3H3	InChI=1S/C7H13NO/c1-4-5(9)6-7(2,3)8(4)6/h4-6,9H,1-3H3/t4-,5+,6+,8?/m0/s1
