18
gdb 80725	3.46767	1.04352	0.96002	5.0592	75.74	-0.2645	0.0399	0.3044	1254.3068	0.148139	-401.929897	-401.921493	-401.920549	-401.963268	31.72	
O	-0.113083434	 1.4695143569	 0.0973384602	-0.418405
C	-0.060327015	 0.0678112377	 0.111135143	 0.108586
C	-0.4809987208	-0.7572082358	 1.286426068	-0.116887
C	-1.637228474	-0.0756607013	 2.0305035484	-0.249428
C	-2.4998786493	-0.1492034973	 0.7296958811	 0.02535
C	-3.152762133	 1.1283865565	 0.173942849	-0.363227
C	-4.2340265388	 1.6077543343	 1.0323250315	 0.254134
N	-5.0818627812	 1.9684344042	 1.7305277964	-0.315066
C	-1.306181979	-0.74167314	-0.0313069264	-0.133342
H	 0.5758691043	 1.8013977936	 0.6833626046	 0.290696
H	 0.7828466446	-0.3469588421	-0.4425167245	 0.095538
H	 0.1443032209	-1.5450443077	 1.6893773478	 0.092937
H	-2.0503337683	-0.6731452676	 2.8437172173	 0.11577
H	-1.4216350498	 0.9289227158	 2.404906176	 0.103933
H	-3.2706064213	-0.914378119	 0.8530159443	 0.097838
H	-2.3986724237	 1.9122910277	 0.0695050392	 0.175096
H	-3.5607899885	 0.9352447054	-0.8254592157	 0.144
H	-1.392277633	-1.5020068614	-0.7993573704	 0.092477
62.1311	113.3986	176.5607	224.034	294.6627	310.7085	372.0481	398.5801	479.0831	523.1118	621.9408	731.1117	743.2635	811.1135	839.7977	876.6468	942.1005	948.8764	984.5561	995.2733	1017.6633	1049.6858	1072.263	1096.1177	1115.3688	1153.5594	1212.0582	1240.4936	1247.3726	1269.6644	1288.3259	1300.3565	1316.2472	1356.8401	1382.6433	1456.3957	1470.463	1491.827	2357.6706	3046.3853	3064.9285	3069.681	3100.0065	3114.607	3128.262	3171.3539	3184.7525	3801.3846
OC1C2CC(CC#N)C12	O[C@H]1[C@H]2C[C@@H](CC#N)[C@@H]12	
InChI=1S/C7H9NO/c8-2-1-4-3-5-6(4)7(5)9/h4-7,9H,1,3H2	InChI=1S/C7H9NO/c8-2-1-4-3-5-6(4)7(5)9/h4-7,9H,1,3H2/t4-,5+,6-,7+/m1/s1
