18
gdb 23387	2.93514	1.38158	1.31115	1.0413	80.41	-0.2323	0.0123	0.2447	1058.4188	0.149269	-401.898841	-401.891348	-401.890404	-401.930602	30.114	
O	-0.1588176317	 1.3479397705	 0.0570254448	-0.401604
N	 0.008620839	-0.0563218554	 0.0065545668	-0.297036
C	-1.1079824386	-0.6449729649	-0.041320917	 0.48271
C	-1.4603381918	-2.1182219814	 0.0129157391	-0.117045
C	-2.7248194433	-1.6423029451	 0.8091877565	-0.230356
C	-2.5848505791	-0.282767011	 0.0399146699	-0.159347
C	-3.1575964188	-0.481994321	-1.357123681	-0.05578
C	-2.832930077	-1.5929523502	-2.0197672198	-0.064743
C	-1.8837857921	-2.5932084421	-1.3975880457	-0.25706
H	 0.752801952	 1.6536033598	 0.1092574879	 0.303409
H	-0.7586243162	-2.8041743726	 0.4895603939	 0.081794
H	-3.6532442442	-2.195681005	 0.6508870162	 0.101038
H	-2.5126760248	-1.5371447883	 1.8751145224	 0.10987
H	-2.8784006682	 0.6497113388	 0.5175287271	 0.087741
H	-3.8128126493	 0.2754152138	-1.7742191026	 0.096128
H	-3.2237364604	-1.800368316	-3.0115152763	 0.091886
H	-0.9929554457	-2.7121321395	-2.0289322687	 0.120548
H	-2.3501051697	-3.5863278105	-1.3368760433	 0.107847
104.8349	176.7269	261.4694	314.7333	346.2668	393.3101	468.1512	485.513	540.3077	619.7286	684.1359	744.2618	785.4037	830.7905	849.9164	889.5545	932.1837	948.8626	957.1278	974.1579	1001.5694	1055.2254	1078.6796	1083.7701	1112.876	1165.9131	1168.748	1192.5285	1245.765	1273.347	1279.1639	1301.0542	1354.8736	1388.0876	1406.629	1472.0223	1486.961	1695.6054	1794.426	3009.2082	3038.127	3063.7271	3101.9686	3128.5852	3136.7496	3165.7093	3191.5131	3821.2406
ON=C1C2CC1C=CC2	ON=C1[C@H]2C[C@@H]1C=CC2	
InChI=1S/C7H9NO/c9-8-7-5-2-1-3-6(7)4-5/h1-2,5-6,9H,3-4H2	InChI=1S/C7H9NO/c9-8-7-5-2-1-3-6(7)4-5/h1-2,5-6,9H,3-4H2/t5-,6+/m0/s1
