15
gdb 22327	2.41682	1.38697	0.88643	5.3706	79.48	-0.203	-0.048	0.155	1226.0736	0.112461	-453.941524	-453.93319	-453.932245	-453.97442	31.488	
N	 0.0434291561	 1.3433408219	 0.128718641	-0.575702
C	-0.0246728726	-0.01620881	 0.0390701528	 0.354566
C	-1.1386664145	-0.7948882918	 0.027637453	-0.295457
C	-0.7777199167	-2.1948516598	-0.0063377152	 0.295633
N	-1.4877197062	-3.2670439558	-0.028520695	-0.238233
O	-2.8522842804	-2.956215072	-0.0095035491	-0.386753
C	 0.7248963475	-2.2852943333	-0.0219068199	 0.34725
O	 1.413468569	-3.2702199047	-0.0539529244	-0.303732
C	 1.2403864523	-0.8337504722	 0.0108788579	-0.427291
H	 0.8936635453	 1.798676667	-0.159997771	 0.261994
H	-0.7977432289	 1.8748389515	-0.033075913	 0.262389
H	-2.1587905834	-0.4398324341	 0.0447037446	 0.108946
H	-3.2604154647	-3.8287300656	-0.0276662213	 0.309595
H	 1.8621183127	-0.6306896134	-0.8699950639	 0.139144
H	 1.8704892946	-0.6703172875	 0.8931378134	 0.147651
94.666	154.0197	186.6356	233.7709	316.7905	368.2409	400.6547	421.8527	440.169	506.717	554.1958	562.1262	608.1809	630.8139	685.3276	838.1146	847.4052	897.6629	965.4045	978.1374	1080.2527	1093.1299	1150.6292	1237.2344	1257.6092	1283.4967	1405.8484	1419.9776	1445.1065	1635.4647	1671.5556	1698.7917	1848.5704	3035.0867	3072.0119	3238.5484	3587.4667	3699.9063	3813.2391
NC1=CC(=NO)C(=O)C1	NC1=CC(=NO)C(=O)C1	
InChI=1S/C5H6N2O2/c6-3-1-4(7-9)5(8)2-3/h1,9H,2,6H2	InChI=1S/C5H6N2O2/c6-3-1-4(7-9)5(8)2-3/h1,9H,2,6H2
