19
gdb 64404	2.22734	1.56853	1.15638	3.657	71.34	-0.2469	-0.0311	0.2158	1116.4573	0.157004	-460.173935	-460.164702	-460.163758	-460.208148	34.267	
C	 0.054044316	 1.5987905373	-0.1324094975	-0.451309
C	 0.1510277104	 0.079059263	-0.0448217962	 0.329975
O	-1.1563575985	-0.503498353	-0.0541208512	-0.470246
C	 1.026752166	-0.5764110927	-1.1327309594	-0.253314
C	 1.3620292682	-1.9212385522	-0.4951390073	-0.073464
O	 1.5864889235	-1.6182654528	 0.8816810729	-0.276421
C	 0.8079188685	-0.4917277316	 1.2569095462	 0.031771
C	 1.7118434134	 0.4752304877	 2.008967023	 0.122026
O	 1.3118903812	 1.3945075512	 2.6748411749	-0.245801
H	 1.0400089862	 2.0700367119	-0.1667218557	 0.124344
H	-0.4810043185	 1.8808664892	-1.0468465436	 0.10301
H	-0.4848995715	 2.0024355313	 0.7274355057	 0.150379
H	-1.6177767658	-0.1762520754	-0.8342843174	 0.27875
H	 0.4958297479	-0.6620755514	-2.0848276695	 0.097151
H	 1.938001051	 0.0103081109	-1.2928353001	 0.106007
H	 0.5223256421	-2.6208582243	-0.6025392941	 0.107743
H	 2.2681773732	-2.3904343555	-0.8867719511	 0.110128
H	-0.0106319296	-0.7795686355	 1.9286082779	 0.121856
H	 2.7947392363	 0.2431286619	 1.8962126326	 0.087415
50.3707	89.4582	208.1854	213.041	257.485	260.5346	298.891	343.3137	366.6073	452.9845	463.7728	519.7594	602.723	661.0255	768.4333	824.9198	920.1596	941.0747	970.4054	983.6013	1003.6215	1040.1183	1065.4851	1113.3706	1125.8377	1180.3305	1187.1567	1207.0173	1242.3256	1289.5039	1306.2459	1329.1514	1363.0772	1386.8419	1399.7212	1415.8407	1475.4435	1487.0084	1491.4244	1517.7285	1830.7236	2887.0096	3017.6338	3032.8775	3035.0846	3047.2419	3095.4211	3102.1798	3107.9089	3135.5646	3801.3328
CC1(O)CCOC1C=O	C[C@@]1(O)CCO[C@H]1C=O	
InChI=1S/C6H10O3/c1-6(8)2-3-9-5(6)4-7/h4-5,8H,2-3H2,1H3	InChI=1S/C6H10O3/c1-6(8)2-3-9-5(6)4-7/h4-5,8H,2-3H2,1H3/t5-,6+/m0/s1
