22
gdb 53507	2.59956	0.93915	0.72538	1.0959	91.38	-0.2284	0.0609	0.2892	1632.8817	0.191671	-367.163562	-367.15274	-367.151796	-367.201975	38.122	
C	-0.0300451333	 1.5185922372	-0.0885263375	-0.49821
C	-0.033544621	 0.0635904352	-0.0205779586	 0.094292
C	-0.0320380559	-1.1392628713	 0.0431191773	 0.042949
C	-0.0113493696	-2.5975950475	 0.0962117158	-0.354016
C	-1.397881595	-3.2742908697	 0.0003000756	 0.059844
C	-1.2415652411	-4.7859048342	-0.1735707855	-0.39303
N	-2.1552508994	-3.0142974459	 1.2236167826	-0.05734
C	-2.9601807239	-1.798256967	 1.2680834338	-0.212302
C	-3.6075694568	-3.1301999458	 1.12669043	-0.230256
H	 0.9711332421	 1.9040042608	-0.3120597606	 0.146277
H	-0.7046896457	 1.8850493368	-0.8704765706	 0.143691
H	-0.3503479144	 1.9649443224	 0.8596041864	 0.14543
H	 0.6135807749	-2.9778775026	-0.7219832803	 0.118785
H	 0.4578546978	-2.9315312675	 1.0302911362	 0.132142
H	-1.9199214002	-2.8634443422	-0.883558539	 0.061362
H	-0.6927818399	-5.0193608076	-1.0910386133	 0.111006
H	-0.7006269633	-5.2139353812	 0.6763807496	 0.1246
H	-2.2196213776	-5.2723874367	-0.2293696504	 0.115124
H	-2.9699112925	-1.2747156135	 2.2196276029	 0.113525
H	-2.9526659478	-1.1519165583	 0.393961534	 0.117082
H	-4.0382779185	-3.369378265	 0.1549066967	 0.105982
H	-4.102686589	-3.6030319364	 1.9701201151	 0.113061
8.8029	49.8727	76.6379	124.8645	197.3762	225.3082	232.6682	265.6455	296.7035	322.8399	386.8785	423.5485	471.4104	547.5279	714.1134	774.3381	816.1044	889.9389	900.7762	926.5072	983.2914	1022.6421	1053.1114	1054.126	1072.2053	1111.2309	1115.9752	1118.4899	1136.9888	1169.0429	1172.9438	1193.2139	1254.1726	1309.3264	1322.5233	1372.4997	1377.2346	1407.527	1415.8814	1460.2716	1479.7074	1480.0101	1489.7485	1491.5554	1501.0201	1518.0875	2370.6453	2926.8104	3019.0797	3024.4666	3039.067	3056.1308	3083.4715	3084.0497	3090.049	3108.2298	3113.0511	3113.1515	3175.7439	3195.3904
CC#CCC(C)N1CC1	CC#CC[C@@H](C)N1CC1	
InChI=1S/C8H13N/c1-3-4-5-8(2)9-6-7-9/h8H,5-7H2,1-2H3	InChI=1S/C8H13N/c1-3-4-5-8(2)9-6-7-9/h8H,5-7H2,1-2H3/t8-/m1/s1
