13
gdb 26845	3.60209	1.13223	0.86145	4.9599	70.8	-0.2064	-0.0506	0.1558	1217.3019	0.088954	-489.924668	-489.916579	-489.915635	-489.957273	29.465	
O	 0.0432496181	 1.3568088497	 0.2460310389	-0.429809
C	 0.0595656426	 0.0275105934	 0.0335887283	 0.323181
C	 0.117395004	-0.7562194426	-1.1112446315	 0.231401
O	 0.1747136155	-0.2598464684	-2.3695053664	-0.451768
N	 0.1087362451	-2.0602301097	-0.8011801336	-0.347681
C	 0.0458248863	-2.125984067	 0.5296061683	 0.236524
N	 0.0148628073	-0.8518088193	 1.0654913819	-0.336767
C	 0.0106567988	-3.2978613369	 1.3813455868	 0.083748
O	 0.0337441146	-4.4498835467	 1.0096331238	-0.276286
H	 0.0825474724	 1.796058048	-0.6116514002	 0.324842
H	 0.2067149405	-1.0150232476	-2.9695251778	 0.312383
H	-0.0323033088	-0.6042913677	 2.0413958524	 0.283203
H	-0.0420731163	-3.0377683053	 2.4669391789	 0.04703
117.6195	172.1804	229.3649	254.6684	265.9723	287.7257	327.3479	401.995	437.7847	532.7494	535.1476	657.0827	676.3543	707.7048	757.8882	863.2795	1004.14	1028.7776	1158.5153	1168.7314	1211.2325	1312.4084	1388.9904	1415.1087	1463.8411	1516.9255	1582.436	1680.1161	1790.5483	2826.6138	3648.5306	3806.8433	3817.8443
OC1=C(O)N=C(N1)C=O	Oc1c(O)nc([nH]1)C=O	
InChI=1S/C4H4N2O3/c7-1-2-5-3(8)4(9)6-2/h1,8-9H,(H,5,6)	InChI=1S/C4H4N2O3/c7-1-2-5-3(8)4(9)6-2/h1,8-9H,(H,5,6)
