16
gdb 43946	3.57805	1.482	1.43811	2.4087	70.81	-0.2565	0.0031	0.2596	943.7009	0.12536	-437.765669	-437.759152	-437.758208	-437.796404	26.893	
N	 0.136907819	 1.3336824806	-0.5257311094	-0.539857
C	 0.0372298232	 0.1657344612	-0.1006376901	 0.339603
O	 1.0683262806	-0.7642067628	 0.2622464962	-0.328771
C	 0.0271675763	-1.5491558446	 0.9392432844	 0.320692
C	-0.8226326714	-2.8660276145	 0.941926069	-0.329679
C	-1.9430734874	-1.7307371888	 1.178435543	 0.045217
O	-1.6559333388	-1.2490350726	 2.4681629948	-0.243943
C	-0.2324763397	-1.0397287238	 2.3742966664	-0.113477
C	-1.0502924479	-0.8960965523	 0.1419041914	-0.106266
H	 1.1123606237	 1.6245083348	-0.6120482311	 0.240448
H	-0.8939264479	-3.3681744802	-0.0207820244	 0.128029
H	-0.6952412215	-3.5723224872	 1.7655581922	 0.116667
H	-3.0078971429	-1.9136554286	 1.048355721	 0.109309
H	 0.2911670796	-1.6135124912	 3.1454055597	 0.114628
H	-0.0034694449	 0.0250778409	 2.4875371666	 0.124403
H	-1.1490737	-1.404455621	-0.8214415595	 0.122999
133.4017	240.7126	360.512	402.4442	443.866	524.0349	538.6811	576.9695	644.1978	711.3364	783.4576	812.478	845.064	876.9597	892.1299	941.6634	960.1538	977.4263	991.6998	1019.4731	1059.2271	1090.7308	1106.0902	1131.0923	1169.3228	1183.845	1206.5617	1221.3322	1244.7647	1287.5406	1359.5975	1378.7894	1489.1257	1522.6368	1819.6485	3042.542	3064.696	3079.8921	3092.63	3150.2278	3171.3156	3478.4438
N=C1OC23CC(OC2)C13	[NH][C]1O[C@@]23C[C@@H](OC2)[C@@H]13	
InChI=1S/C6H7NO2/c7-5-4-3-1-6(4,9-5)2-8-3/h3-4,7H,1-2H2	InChI=1S/C6H7NO2/c7-5-4-3-1-6(4,9-5)2-8-3/h3-4,7H,1-2H2/t3-,4+,6+/m1/s1
