18
gdb 88912	3.39874	0.91116	0.86989	3.0186	80.35	-0.2476	-0.0423	0.2053	1396.8941	0.147357	-398.131029	-398.121544	-398.1206	-398.166062	34.149	
C	-0.3727448001	 1.254876633	 0.511485328	-0.406861
C	 0.08136401	-0.1463647694	 0.1767634727	 0.027437
C	 1.4476340455	-0.3955452259	-0.4186678286	-0.339436
C	 1.1483021767	-0.8510456692	 0.9844364328	 0.043144
N	 1.8062462268	-0.1684437159	 2.0592542351	-0.317205
C	 1.3034582818	-0.2066331794	 3.3310910069	 0.29416
N	 0.1595429092	-0.7066542488	 3.6132457675	-0.515524
C	 2.1846335307	 0.3896572396	 4.3263231868	 0.222009
N	 2.8589564403	 0.8482106194	 5.1462867969	-0.320169
H	 0.4571008944	 1.8623508479	 0.8833149783	 0.116013
H	-0.7826462729	 1.7524353878	-0.3736314489	 0.117593
H	-1.1473558828	 1.2382180459	 1.2841520572	 0.134508
H	-0.7088483009	-0.8064407359	-0.1696036727	 0.094927
H	 1.5727714406	-1.1512862191	-1.1855841883	 0.121425
H	 2.0982679581	 0.4670510495	-0.5288792343	 0.115193
H	 1.0001996274	-1.9141141653	 1.1584996602	 0.10945
H	 2.7884897761	 0.0339190641	 1.962306646	 0.263258
H	-0.047235851	-0.6084639084	 4.6039667546	 0.240079
52.084	67.3943	120.5401	181.1363	209.413	247.3712	315.3345	337.8135	408.0218	414.3305	456.5445	601.0762	611.9524	726.8553	784.1365	815.2838	828.0154	847.4346	908.0623	932.3461	1016.6693	1050.5951	1082.7141	1103.736	1141.5209	1151.4988	1188.2123	1194.4991	1262.4163	1318.8014	1382.7011	1411.7445	1421.7237	1485.7486	1493.9578	1502.4869	1530.2804	1683.6672	2346.5875	3038.6282	3102.9643	3113.0709	3128.4255	3130.3377	3152.5346	3217.6829	3531.5269	3632.465
CC1CC1NC(=N)C#N	C[C@H]1C[C@H]1NC(=N)C#N	
InChI=1S/C6H9N3/c1-4-2-5(4)9-6(8)3-7/h4-5H,2H2,1H3,(H2,8,9)	InChI=1S/C6H9N3/c1-4-2-5(4)9-6(8)3-7/h4-5H,2H2,1H3,(H2,8,9)/t4-,5+/m0/s1
