15
gdb 130621	4.77662	1.25152	1.00399	1.4938	71.18	-0.2382	-0.0285	0.2096	1094.5394	0.115757	-416.8535	-416.846686	-416.845742	-416.885043	26.348	
O	-0.0269220316	 0.0466840075	 0.0048711953	-0.290711
C	-0.0171669774	 1.2450957915	 0.0107397687	 0.412568
C	-1.2999707822	 2.1363064198	 0.0330195743	-0.478001
C	-0.6941475539	 3.4950681773	 0.0311868153	 0.360777
C	 0.6830151702	 3.5172257656	 0.0121555945	 0.208291
C	 1.2564094073	 2.1358545713	-0.0025064467	-0.477278
C	 1.0200856491	 4.8861875336	 0.0140598385	-0.154795
N	-0.0722297567	 5.6507858987	 0.0329264929	-0.220847
N	-1.1103638915	 4.779005237	 0.0431497668	-0.326096
H	-1.9194683745	 1.9018825645	-0.8409318053	 0.146606
H	-1.8947824745	 1.8932930002	 0.9216565843	 0.146607
H	 1.8758593183	 1.8818962095	 0.8663112884	 0.142403
H	 1.8516428947	 1.8904534875	-0.8904943575	 0.142405
H	 1.9919058993	 5.3572338353	 0.0028211463	 0.114393
H	-2.0469606564	 5.1450099107	 0.0579272843	 0.273679
69.4219	228.4894	246.729	345.9708	478.8282	506.7768	507.3041	525.891	655.8521	687.1646	723.4683	736.3621	806.0712	847.4732	886.9905	979.4075	991.9939	1058.4812	1102.265	1133.1215	1179.8268	1182.8638	1216.3392	1222.8594	1262.8288	1334.9457	1408.6881	1433.0095	1451.9088	1468.0447	1549.4944	1600.9187	1861.9671	3032.2228	3035.6962	3062.0189	3067.169	3246.985	3675.5072
O=C1CC2=C(C1)C=NN2	O=C1Cc2c(C1)cn[nH]2	
InChI=1S/C6H6N2O/c9-5-1-4-3-7-8-6(4)2-5/h3H,1-2H2,(H,7,8)	InChI=1S/C6H6N2O/c9-5-1-4-3-7-8-6(4)2-5/h3H,1-2H2,(H,7,8)
