18
gdb 93534	2.98086	1.28922	1.05432	2.2169	67.93	-0.2401	0.0268	0.2669	1142.9158	0.149142	-476.263507	-476.254955	-476.254011	-476.296634	32.646	
O	 0.0239732781	 1.4447034607	 0.0802228921	-0.441357
C	 0.0231550011	 0.035117342	 0.0046038525	 0.129506
C	 0.8001253983	-0.5641526806	 1.1860292267	-0.172974
N	 0.6784417022	-2.0149611516	 1.2280543274	-0.316442
C	-0.4020215061	-2.750813402	 0.8261852388	 0.405375
O	-0.5387766507	-3.9211121758	 1.1294455116	-0.377251
C	-1.3799466894	-2.0479002228	-0.1140345323	-0.34452
C	-1.4003686422	-0.5235843672	-0.0186340998	 0.061842
O	-1.9948911101	-0.0617280869	 1.1969688285	-0.447699
H	-0.6371466141	 1.6727778562	 0.7467132008	 0.291275
H	 0.5187797537	-0.2325105105	-0.9348729804	 0.096348
H	 1.8557916256	-0.29339324	 1.0924547183	 0.118121
H	 0.4202505854	-0.1085614357	 2.1102929271	 0.1174
H	 1.2867687833	-2.5176364593	 1.8594003483	 0.247015
H	-1.1054474807	-2.3431202206	-1.1348722816	 0.134897
H	-2.3715918734	-2.4718070456	 0.069465523	 0.12292
H	-1.9322192396	-0.0962604266	-0.880641212	 0.080528
H	-2.9257896814	-0.3030008538	 1.198446091	 0.295021
78.2292	126.6658	202.3093	258.6737	274.1984	339.7976	360.1679	413.7607	450.2677	453.1943	526.2915	596.9751	637.8501	670.648	748.025	772.8337	888.6357	913.1322	983.6734	1014.9444	1067.1917	1084.634	1107.6084	1142.5534	1196.1145	1214.8704	1252.4161	1288.8308	1293.268	1327.8408	1372.7428	1384.6761	1399.1737	1422.5169	1439.7384	1463.0133	1483.1498	1521.023	1793.0128	2999.9881	3016.8427	3041.6312	3059.8665	3083.9163	3093.6144	3596.8744	3773.8023	3834.529
OC1CNC(=O)CC1O	O[C@H]1CNC(=O)C[C@H]1O	
InChI=1S/C5H9NO3/c7-3-1-5(9)6-2-4(3)8/h3-4,7-8H,1-2H2,(H,6,9)	InChI=1S/C5H9NO3/c7-3-1-5(9)6-2-4(3)8/h3-4,7-8H,1-2H2,(H,6,9)/t3-,4+/m1/s1
