16
gdb 62539	2.36416	1.44578	1.22966	3.3364	71.66	-0.265	-0.004	0.261	1075.1664	0.123008	-434.069281	-434.060173	-434.059228	-434.10301	33.289	
C	-0.1503408355	 1.5706768432	-0.0364935107	-0.426724
C	-0.0200571521	 0.0628169198	 0.0868747521	 0.342562
O	-1.2823609786	-0.4681822591	 0.3150287959	-0.444124
C	 0.8628131173	-0.589398867	-1.090736957	-0.223648
N	 1.9393027117	-0.7102145876	-0.0956239793	-0.327103
C	 1.1209746852	-0.4252427094	 1.0003207709	 0.306567
N	 1.1814371953	-0.5360032735	 2.2542092071	-0.533896
C	 0.3356271603	-1.8609506262	-1.5741112318	 0.299707
N	-0.0751956056	-2.8823043754	-1.9274407832	-0.319568
H	 0.8075172693	 2.029595723	-0.2935838575	 0.129292
H	-0.8862516992	 1.8158206272	-0.8076126952	 0.137451
H	-0.4936640741	 1.979406012	 0.9167459046	 0.152293
H	-1.1974080414	-1.3501390303	 0.6951634926	 0.302004
H	 1.0993570029	 0.0670988807	-1.9324151691	 0.128365
H	 2.6811305711	-1.3964166393	-0.1269074936	 0.255752
H	 2.0550739836	-0.9601495381	 2.5705374438	 0.221069
75.7711	121.1955	152.2899	220.7525	244.7109	262.8474	315.7319	328.4893	383.5426	447.9041	480.7449	558.0221	619.3152	693.9266	702.1274	797.9649	826.1807	856.4825	969.1629	991.7818	1032.2493	1059.8101	1102.7398	1131.9544	1170.0366	1264.02	1299.0628	1331.6835	1362.7982	1388.9566	1413.4864	1481.2033	1493.9797	1806.5081	2352.0066	3050.091	3076.1845	3128.526	3137.0201	3465.3402	3592.4833	3805.2186
CC1(O)C(NC1=N)C#N	C[C@@]1(O)[C@@H](N[C]1[NH])C#N	
InChI=1S/C5H7N3O/c1-5(9)3(2-6)8-4(5)7/h3,9H,1H3,(H2,7,8)	InChI=1S/C5H7N3O/c1-5(9)3(2-6)8-4(5)7/h3,9H,1H3,(H2,7,8)/t3-,5+/m0/s1
