17
gdb 5326	4.62292	1.62121	1.23316	2.8167	71.87	-0.1742	0.0403	0.2145	975.0639	0.143699	-360.069657	-360.061719	-360.060775	-360.101874	29.194	
C	 0.0179448641	 1.3810171387	 0.0319376748	-0.325292
N	 0.2828695805	-0.0402892417	 0.0279916921	-0.148965
C	-0.1858504251	-0.7668419217	 1.1975343396	-0.334227
C	 0.1483401576	-0.6745132035	-1.2014713161	 0.372059
C	-0.0258757264	-0.1093574475	-2.4487210175	-0.220844
N	-0.0231539824	-1.1842597648	-3.3269542611	-0.24232
C	 0.1275302196	-2.3098590927	-2.5897449347	 0.017787
N	 0.2335775384	-2.0447152626	-1.3061615773	-0.332321
H	 0.6452031838	 1.8805095566	-0.7140376442	 0.123019
H	-1.036771436	 1.6296884818	-0.18608802	 0.098589
H	 0.2692289283	 1.7931639979	 1.0130457132	 0.1192
H	-1.2840472266	-0.7389043766	 1.3068770245	 0.096929
H	 0.1232250986	-1.808506067	 1.1179891668	 0.157995
H	 0.2588682113	-0.3277161065	 2.0961525154	 0.11014
H	-0.1469580029	 0.9024729072	-2.790528193	 0.118788
H	-0.1251870115	-1.1308003341	-4.3255720684	 0.262856
H	 0.1538555589	-3.2946848734	-3.0316078943	 0.126605
78.6906	151.802	202.7518	209.4514	254.345	364.2196	375.2913	463.0284	508.3601	612.7052	620.3895	652.7497	741.0872	804.3216	927.1065	949.4496	1013.4179	1082.2691	1092.6509	1129.5911	1147.0448	1177.1527	1222.3644	1226.4914	1290.4188	1363.4219	1366.3692	1439.9082	1463.4176	1482.6042	1484.7438	1495.3344	1502.3385	1516.3011	1535.7706	1622.8622	2939.282	2954.954	3058.2801	3070.2089	3107.9283	3155.387	3250.2013	3294.3074	3675.8225
CN(C)C1=CNC=N1	CN(C)c1c[nH]cn1	
InChI=1S/C5H9N3/c1-8(2)5-3-6-4-7-5/h3-4H,1-2H3,(H,6,7)	InChI=1S/C5H9N3/c1-8(2)5-3-6-4-7-5/h3-4H,1-2H3,(H,6,7)
