17
gdb 16871	3.98081	1.79304	1.35371	3.2947	67.33	-0.2332	-0.0096	0.2236	900.6	0.144175	-363.86914	-363.862273	-363.861329	-363.900502	26.794	
O	-0.0155428508	 0.2258553978	-0.9383510406	-0.312984
C	-0.0513240352	 1.1695863623	-0.1849833835	 0.394112
C	-1.3605597578	 1.8933390883	 0.1353897684	-0.297946
C	-1.2912998299	 2.7598240737	 1.4039679399	-0.234485
C	-0.131714654	 3.7381066284	 1.2957239534	-0.018793
N	 0.9888916992	 3.5538977576	 2.2338278299	-0.333203
C	 1.1620927944	 3.1806935272	 0.8159626153	-0.043597
C	 1.2117005125	 1.6930528746	 0.5052959088	-0.315044
H	-1.5853513089	 2.5270683069	-0.7340547639	 0.128117
H	-2.1562023057	 1.1441741044	 0.1793950696	 0.127642
H	-2.2386129264	 3.2863990682	 1.5550406306	 0.104282
H	-1.1349058311	 2.1287879103	 2.2846221441	 0.121357
H	-0.381154593	 4.7544312011	 1.0002297439	 0.086408
H	 1.4422384775	 4.4459025535	 2.4152905369	 0.23215
H	 1.7929036604	 3.8178416357	 0.2018427077	 0.092522
H	 1.3037100514	 1.1433961832	 1.4515446104	 0.144565
H	 2.0719155476	 1.4167032268	-0.1085809809	 0.124898
58.9435	177.6115	315.5902	372.3652	429.2107	471.1009	478.6808	547.4325	614.3889	714.8719	786.785	827.1569	863.8437	916.3959	931.7723	960.5561	983.9071	997.0928	1050.364	1121.5538	1122.036	1159.0538	1181.0389	1228.2213	1243.9911	1247.8063	1267.374	1305.2405	1332.3593	1353.8385	1397.0352	1442.534	1444.6031	1459.5806	1492.7037	1815.058	3021.8526	3032.2579	3049.6136	3089.5858	3095.8764	3108.2263	3131.3265	3143.6672	3501.1807
O=C1CCC2NC2C1	O=C1CC[C@H]2N[C@H]2C1	
InChI=1S/C6H9NO/c8-4-1-2-5-6(3-4)7-5/h5-7H,1-3H2	InChI=1S/C6H9NO/c8-4-1-2-5-6(3-4)7-5/h5-7H,1-3H2/t5-,6+/m1/s1
