18
gdb 54255	2.59881	1.46948	1.26234	4.724	72.68	-0.2432	-0.0083	0.2349	1065.8297	0.149126	-439.131889	-439.123604	-439.12266	-439.164915	31.795	
N	-0.0906905994	 1.0376985251	-0.0621436064	-0.58604
H	 0.2399520219	 0.0799019823	-0.0006811283	 0.240264
H	 0.6303453888	 2.8048641809	 0.0546451436	 0.304259
H	-0.738637486	 1.0805108841	-0.8446537676	 0.242842
C	-0.7678201781	 1.4243591736	 1.1914978195	 0.102712
C	-2.1996095522	 0.8640334354	 1.4227496695	-0.259288
C	-2.2807954521	 0.5191457004	 2.9297578342	-0.255007
C	-0.8306992362	 0.4152700088	 3.3305530851	-0.054094
C	-0.0111877615	 0.8989124331	 2.4005362184	-0.101309
C	-0.7615575787	 2.9748161807	 1.2672924618	 0.424945
O	 0.2146572012	 3.545149324	 0.5474950481	-0.376144
O	-1.536558659	 3.6042045752	 1.9367306036	-0.345391
H	-2.9698320582	 1.5706390634	 1.1098914679	 0.119888
H	-2.3050944619	-0.0495066121	 0.8279531628	 0.091751
H	-2.7694632769	 1.3243347592	 3.4907100746	 0.138986
H	-2.8462147814	-0.3981914973	 3.1277546772	 0.102106
H	-0.5131278554	 0.0256011783	 4.2915692023	 0.10392
H	 1.067127545	 0.986948205	 2.4717450638	 0.1056
76.5627	93.6222	192.6465	270.2705	300.06	358.2245	371.5256	419.1563	459.368	571.3757	653.1527	731.6833	734.4318	788.4685	800.5144	849.46	858.0319	883.9276	927.135	960.5186	972.062	990.9377	1038.2168	1090.7118	1119.6328	1167.0809	1194.8767	1225.5186	1232.5395	1302.5444	1315.3532	1326.0951	1380.308	1417.5507	1470.8716	1487.8508	1648.1775	1685.2731	1861.4827	3037.1267	3048.2535	3071.5917	3124.1044	3185.4375	3210.2166	3484.1537	3499.1559	3571.6207
[NH3+]C1(CCC=C1)C([O-])=O	N[C@]1(CCC=C1)C(=O)O	
InChI=1S/C6H9NO2/c7-6(5(8)9)3-1-2-4-6/h1,3H,2,4,7H2,(H,8,9)	InChI=1S/C6H9NO2/c7-6(5(8)9)3-1-2-4-6/h1,3H,2,4,7H2,(H,8,9)/t6-/m1/s1
