15
gdb 43123	3.97094	1.56247	1.50178	2.6167	63.79	-0.2405	-0.0244	0.2162	881.2906	0.115006	-457.751314	-457.745246	-457.744302	-457.781725	24.623	
O	 0.0070604882	-0.0090393302	-0.0614303747	-0.316265
C	-0.0184539815	 1.1794196506	 0.0284073168	 0.470583
C	-1.0724648244	 2.3114213888	 0.0379596836	-0.06798
O	-0.8082058831	 2.8983384328	 1.3281642432	-0.282797
C	 0.5999838869	 3.2115750147	 1.1994984799	 0.216361
O	 0.7287720478	 4.5325953185	 0.76813775	-0.24111
C	 0.090346961	 4.5647233196	-0.5220909916	-0.111085
C	-0.068669597	 3.0840380854	-0.8901351179	-0.087588
C	 0.9988157353	 2.3248771951	-0.0091925145	-0.250521
H	-2.1389367624	 2.2016319256	-0.1396593885	 0.104209
H	 1.1095208485	 3.0862753847	 2.152267129	 0.112775
H	-0.8753881927	 5.076542634	-0.449435089	 0.123239
H	 0.731634251	 5.1092590845	-1.2219550066	 0.119238
H	-0.1110592547	 2.8333169191	-1.9483894571	 0.107195
H	 2.0527837571	 2.2281688767	-0.2519104725	 0.103745
146.8359	258.0196	295.7055	494.3451	520.8557	543.4169	638.0621	712.041	740.5262	798.5634	822.4834	854.0799	911.9694	923.7166	956.8186	959.9445	987.9501	1032.4098	1044.1765	1063.8652	1102.9094	1108.4729	1167.6013	1189.968	1202.3892	1231.8003	1249.46	1293.5735	1308.0834	1332.2417	1387.6762	1517.643	1913.0989	3041.4674	3086.3904	3143.0496	3158.002	3167.2779	3174.9929
O=C1C2OC3OCC2C13	O=C1[C@H]2O[C@@H]3OC[C@H]2[C@H]13	
InChI=1S/C6H6O3/c7-4-3-2-1-8-6(3)9-5(2)4/h2-3,5-6H,1H2	InChI=1S/C6H6O3/c7-4-3-2-1-8-6(3)9-5(2)4/h2-3,5-6H,1H2/t2-,3+,5-,6-/m0/s1
