21
gdb 87751	4.32449	0.81988	0.77232	3.0062	85.2	-0.2435	-0.0211	0.2224	1533.826	0.180855	-387.079979	-387.070626	-387.069682	-387.11484	34.761	
C	 0.0518659518	 1.493565249	-0.2036094879	-0.405815
C	 0.0875375665	-0.009564802	-0.0428682268	-0.04736
C	 1.4024977518	-0.7572674574	-0.1025391145	-0.363505
C	 0.6527450032	-0.6568875011	 1.1930576542	 0.374096
C	 1.0569931267	 0.054776576	 2.4906496711	-0.329222
C	 0.0803588088	-0.8887751703	 3.2713536321	-0.053578
C	-0.0132427581	-1.7842585464	 1.9896706064	-0.32852
C	 0.64045127	-1.5484451492	 4.4976517534	 0.160615
O	 0.131642107	-1.5482081327	 5.5892648373	-0.254648
H	 0.935361511	 1.9620270535	 0.2420115651	 0.116471
H	 0.0308935491	 1.7742591552	-1.2622669232	 0.120639
H	-0.83281272	 1.9302254261	 0.2738968393	 0.117034
H	-0.7635908048	-0.5278917942	-0.4807158627	 0.083256
H	 1.4347691254	-1.7197158832	-0.6042411708	 0.109753
H	 2.3101131998	-0.1693141678	-0.2100788079	 0.10888
H	 2.1045887964	-0.1178189832	 2.7630177568	 0.105062
H	 0.8487187055	 1.1238597458	 2.5753198012	 0.113835
H	-0.8655743137	-0.4056954399	 3.5207079151	 0.092768
H	-1.0203845715	-2.08972168	 1.6949899006	 0.11157
H	 0.6143712475	-2.6800202563	 2.0666885266	 0.104716
H	 1.6143911978	-2.0680181017	 4.3193361745	 0.063954
42.7613	69.7856	164.059	193.4426	200.3095	272.7451	317.6493	364.6692	403.9375	415.9862	454.3994	593.5273	746.5598	783.7546	817.8784	866.0074	888.6817	896.4883	914.3145	925.2978	1002.632	1026.0605	1045.0447	1067.7023	1090.1562	1108.1714	1129.8608	1155.8309	1184.354	1213.3281	1225.3283	1241.1445	1245.089	1265.7661	1316.3901	1339.7601	1408.327	1425.9196	1432.5295	1470.9402	1488.7735	1490.2679	1494.4012	1505.9254	1829.9046	2828.3259	3026.6186	3032.5556	3039.168	3087.7861	3091.7386	3095.2239	3100.1033	3111.735	3114.2688	3124.6377	3198.1603
CC1CC11CC(C1)C=O	C[C@H]1C[C@]21C[C@@H](C2)C=O	
InChI=1S/C8H12O/c1-6-2-8(6)3-7(4-8)5-9/h5-7H,2-4H2,1H3	InChI=1S/C8H12O/c1-6-2-8(6)3-7(4-8)5-9/h5-7H,2-4H2,1H3/t6-,7-,8-/m0/s1
