19
gdb 35945	3.3373	1.13493	0.89344	1.0399	83.89	-0.247	0.0094	0.2564	1295.5745	0.159417	-385.850553	-385.841975	-385.841031	-385.88433	32.748	
C	 0.3205876622	-1.2871717849	 0.4835395154	-0.452907
C	 0.1235027185	-0.1274094665	 0.2372996122	 0.306612
C	-0.1162296933	 1.2902966655	-0.0425978432	-0.223219
C	-0.9092783438	 1.928345021	 1.1209868266	-0.193366
C	-1.2923127071	 3.3916012009	 0.9085896752	-0.091448
O	-0.2154999328	 4.2806932111	 1.1245673334	-0.231079
C	 0.6558676538	 4.4626264659	 0.0320388806	-0.133728
C	 1.4841960423	 3.2784365877	-0.4043048348	-0.085469
C	 1.1843321718	 1.9806222687	-0.4272719789	-0.039736
H	 0.4930724339	-2.3134716765	 0.6941592597	 0.194082
H	-0.7678795658	 1.336009658	-0.9322475961	 0.118988
H	-1.8226798008	 1.3404110577	 1.2662435955	 0.106335
H	-0.3254193647	 1.8548514248	 2.0439157919	 0.122302
H	-1.7261793834	 3.5422926183	-0.0950993473	 0.08313
H	-2.0572862347	 3.670275494	 1.6411433799	 0.106504
H	 0.0925018149	 4.841939311	-0.8423400271	 0.098895
H	 1.3308366044	 5.2688968348	 0.3379216971	 0.116695
H	 2.4589295364	 3.560664094	-0.7998754177	 0.093335
H	 1.9354660581	 1.3019228144	-0.8224326426	 0.104076
34.7805	145.9408	155.7298	214.654	310.7328	352.7083	381.1987	423.6505	499.3839	530.5978	543.623	621.5382	643.1873	685.8343	731.9417	831.8545	864.7456	911.7299	941.6936	1000.564	1023.7865	1033.8355	1053.0713	1066.7666	1132.9722	1173.9515	1208.0396	1271.7702	1276.9341	1306.2065	1322.5922	1334.5286	1373.817	1400.2295	1422.7559	1425.9201	1471.8347	1477.9697	1495.5096	1731.4921	2237.1463	2920.9844	2952.472	2960.8845	3041.4996	3065.8031	3069.3537	3094.779	3131.9463	3166.3873	3504.5746
C#CC1CCOCC=C1	C#C[C@H]1CCOCC=C1	
InChI=1S/C8H10O/c1-2-8-4-3-6-9-7-5-8/h1,3-4,8H,5-7H2	InChI=1S/C8H10O/c1-2-8-4-3-6-9-7-5-8/h1,3-4,8H,5-7H2/t8-/m1/s1
