22
gdb 85897	2.62552	1.36225	1.21599	2.2798	80.61	-0.2366	0.0733	0.3099	1159.926	0.194775	-404.343086	-404.334091	-404.333147	-404.376137	35.87	
C	 0.0748209544	 1.5236572015	-0.0749006515	-0.431064
C	-0.0274823128	-0.0053477935	-0.021943422	 0.30271
C	-1.4990928046	-0.4413745039	 0.0854254768	-0.426417
C	 0.6656567012	-0.6832839412	-1.237024189	-0.292993
C	 1.2524004611	-2.0357198061	-0.7438889936	 0.152678
O	 2.436660964	-2.4208534183	-1.417582656	-0.444462
C	 1.4487285452	-1.8231388923	 0.7482019663	-0.081415
N	 2.2121362898	-0.5718753044	 0.991282536	-0.364738
C	 0.7415438839	-0.5943207189	 1.1621562976	-0.055162
H	 1.1228722581	 1.8370683243	-0.0700069472	 0.126521
H	-0.3976307047	 1.9193705828	-0.9806879224	 0.109938
H	-0.4240303046	 1.9839686532	 0.7860036371	 0.102975
H	-2.0751117888	-0.0731293943	-0.7699791302	 0.114654
H	-1.5960155905	-1.5319899887	 0.1112092869	 0.113561
H	-1.9639593128	-0.0440753699	 0.9950888507	 0.108395
H	-0.0161709138	-0.8154194935	-2.0813931538	 0.094869
H	 1.497526751	-0.0645972742	-1.5844778922	 0.103273
H	 0.545320635	-2.8559551991	-0.9087781049	 0.085705
H	 3.1037693964	-1.7706621652	-1.1637106108	 0.284411
H	 1.6032006739	-2.6710410367	 1.4072896957	 0.085926
H	 2.6536801299	-0.6241234265	 1.9056016642	 0.232265
H	 0.3374645287	-0.4782462152	 2.1646057224	 0.078371
88.386	163.0325	224.5371	235.9872	264.8471	304.602	320.6206	358.6162	420.315	448.6738	494.1754	520.9777	601.145	645.5334	781.9695	823.4116	853.2666	892.9663	919.2205	929.0625	939.714	952.8893	968.4216	1021.9367	1029.3557	1077.8488	1090.2048	1115.7113	1134.9202	1164.344	1212.712	1252.226	1258.5018	1267.0968	1288.4965	1324.4543	1341.2894	1369.638	1396.4528	1413.9456	1428.045	1440.2239	1477.7281	1486.2908	1491.7224	1502.8058	1509.6257	3022.526	3027.0264	3053.0059	3060.3472	3086.2015	3091.5182	3098.7461	3105.1625	3109.9676	3141.1696	3169.0359	3505.896	3777.9849
CC1(C)CC(O)C2NC12	CC1(C)C[C@@H](O)[C@H]2N[C@@H]12	
InChI=1S/C7H13NO/c1-7(2)3-4(9)5-6(7)8-5/h4-6,8-9H,3H2,1-2H3	InChI=1S/C7H13NO/c1-7(2)3-4(9)5-6(7)8-5/h4-6,8-9H,3H2,1-2H3/t4-,5-,6-/m1/s1
