14
gdb 13481	2.97536	1.41169	1.24184	1.1953	59.04	-0.1935	0.0466	0.2401	1004.4209	0.105272	-415.883555	-415.874435	-415.873491	-415.919851	29.582	
O	 0.3654089629	-0.0435001236	 1.0134122587	-0.301948
C	 0.4522983697	 0.3253236366	-0.0853306506	 0.598813
O	 0.5751863406	 0.6769988373	-1.1883716102	-0.310107
C	-2.0949036819	 2.4598064329	 0.2458492514	-0.286842
C	-1.9040381388	 3.2204242123	-1.0521799609	-0.172673
N	-2.4222863062	 1.9858175092	-1.7626050999	-0.354125
C	-2.4708440842	 1.3818669702	-0.4748916729	 0.374151
N	-2.7788414491	 0.0497731688	-0.2796654903	-0.593872
H	-3.4871406212	-0.2934151418	-0.9164126661	 0.254391
H	-2.9956451146	-0.1872819488	 0.6789539048	 0.256355
H	-2.1088269384	 2.7320469923	 1.2883783322	 0.09038
H	-2.5396968215	 4.0947563932	-1.2292339021	 0.109021
H	-0.8722747608	 3.4559037554	-1.336924254	 0.107761
H	-1.7392345266	 1.564889716	-2.39161406	 0.228694
35.201	49.5491	58.0921	80.2865	105.5257	260.9926	333.6861	398.5492	568.9892	628.4331	670.6946	685.4597	714.7127	728.0152	855.6614	932.9337	950.2194	1018.1149	1048.4739	1092.4399	1131.1825	1236.259	1243.3376	1308.9867	1375.2785	1415.1762	1501.3171	1620.458	1716.801	2430.0517	3031.0685	3076.5723	3261.9045	3464.4424	3538.8573	3641.1988
[O-]C(=O)C1CNC1=[NH2+]	O=C=O.[CH]1CN[C]1N	
InChI=1S/C4H6N2O2/c5-3-2(1-6-3)4(7)8/h2H,1H2,(H2,5,6)(H,7,8)	InChI=1S/C3H6N2.CO2/c4-3-1-2-5-3;2-1-3/h1,5H,2,4H2;
