20
gdb 109278	2.6632	1.21452	0.89399	3.3326	83.21	-0.2117	0.0014	0.2131	1341.8055	0.172191	-403.214553	-403.205619	-403.204674	-403.248486	33.627	
C	-0.2369273351	 1.547990242	-0.10770411	-0.37559
C	 0.1027486451	 0.0536180854	 0.0376772865	-0.288134
C	 0.8429622009	-0.516306433	-1.1424499745	 0.390535
C	 2.1151499323	-0.9283564348	-1.1208401123	-0.194664
C	 2.7853088949	-1.4224791385	-2.3760570261	-0.269938
C	 1.7611782269	-2.0692547276	-3.3218967149	-0.317203
C	 0.4821566432	-1.2585259896	-3.4783430187	 0.393037
O	-0.1957607683	-1.2401213905	-4.4851583318	-0.364538
N	 0.104540189	-0.5779871356	-2.339313539	-0.382613
H	 0.6738396158	 2.1417758294	-0.2287716608	 0.128566
H	-0.8772935715	 1.7432878909	-0.9743818355	 0.117497
H	-0.7673427866	 1.9088019037	 0.7783164026	 0.121933
H	 0.7174905009	-0.0938704232	 0.9299714999	 0.116411
H	-0.8241404701	-0.515101262	 0.1944477993	 0.109851
H	 2.6754607153	-0.8753953429	-0.1952286708	 0.086217
H	 3.287059307	-0.5866719305	-2.887757662	 0.115407
H	 3.5735321136	-2.1447340343	-2.1401036942	 0.108836
H	 2.1655390182	-2.2474469587	-4.3198502721	 0.127789
H	 1.455229503	-3.043750932	-2.9167720728	 0.129247
H	-0.7921188544	-0.1183485083	-2.3974204029	 0.247353
72.5266	108.6017	132.8389	199.8909	206.6128	299.4684	339.2787	463.8132	481.9083	509.544	534.5176	590.6704	649.2879	684.4766	769.7239	790.6003	801.6965	890.291	921.9144	975.2896	1013.339	1042.0192	1069.5263	1079.4516	1108.168	1179.624	1182.5145	1234.5399	1276.0727	1303.9911	1336.5526	1350.2335	1367.6422	1380.0133	1411.9399	1461.2328	1467.3659	1480.4712	1487.1326	1498.3525	1505.6343	1737.6243	1803.1106	2988.2277	3017.0546	3025.2068	3039.2184	3066.4361	3084.2853	3109.2251	3117.7148	3118.9762	3198.568	3618.5527
CCC1=CCCC(=O)N1	CCC1=CCCC(=O)N1	
InChI=1S/C7H11NO/c1-2-6-4-3-5-7(9)8-6/h4H,2-3,5H2,1H3,(H,8,9)	InChI=1S/C7H11NO/c1-2-6-4-3-5-7(9)8-6/h4H,2-3,5H2,1H3,(H,8,9)
