14
gdb 133238	3.24691	1.47201	1.01936	3.9375	70.82	-0.2343	-0.0495	0.1848	1078.8444	0.101531	-474.161646	-474.153813	-474.152869	-474.19512	27.787	
C	 0.0146149347	 1.4463410711	-0.0204199563	-0.335158
N	 0.0231405289	-0.0114666355	 0.0095380739	-0.091695
N	-0.0363373483	-0.6593138757	-1.1977271809	-0.192384
C	-0.0280224562	-1.944776373	-1.1581165045	 0.019309
C	 0.039668376	-2.7462767886	 0.0718900492	 0.316126
N	 0.0417243179	-4.0211393158	-0.0035496386	-0.530399
N	 0.098306549	-2.0060776392	 1.2664640308	-0.410501
C	 0.0861745169	-0.7400524425	 1.1514339175	 0.430577
F	 0.1389478819	 0.0211025565	 2.2345704619	-0.056683
H	 0.92733488	 1.8519613603	 0.4238384361	 0.153707
H	-0.0421903415	 1.7328702834	-1.0691145023	 0.167286
H	-0.8500201826	 1.8433996948	 0.5177938607	 0.153724
H	-0.0749286468	-2.4613808675	-2.1105520243	 0.151997
H	 0.0924810702	-4.4164872484	 0.9375613768	 0.224093
41.1433	84.5458	187.1204	220.7476	313.5817	366.377	443.035	495.3515	543.3611	587.9746	704.4254	742.0078	751.9074	808.8738	906.0278	956.8409	979.4088	1003.4187	1135.859	1153.0921	1225.0357	1284.7018	1312.4368	1356.4078	1424.3148	1473.3715	1486.1234	1509.4843	1639.8294	1703.9286	1707.5959	3053.6801	3118.931	3175.9141	3204.1365	3465.8106
CN1N=CC(=N)N=C1F	Cn1ncc([NH])nc1F	
InChI=1S/C4H5FN4/c1-9-4(5)8-3(6)2-7-9/h2,6H,1H3	InChI=1S/C4H10FN4/c1-9-4(5)8-3(6)2-7-9/h3-4,6-8H,2H2,1H3
