18
gdb 46113	2.98944	1.10781	0.88077	3.7315	77.94	-0.2393	0.0318	0.2711	1310.0034	0.147996	-401.968808	-401.960089	-401.959145	-402.002827	32.57	
O	 0.2009524582	 0.070770067	-0.1749323824	-0.375513
C	 0.0682071857	 1.2705493437	-0.0892154986	 0.406054
C	-1.104139134	 2.0349901845	 0.536628278	-0.330567
C	-0.8667219578	 3.5034330943	 0.1464414536	-0.240006
C	 0.6466748568	 3.5869212109	-0.1851315192	 0.020499
C	 1.4982315527	 4.1146079284	 0.9980172497	-0.353247
C	 2.9263957962	 4.0630523614	 0.714129964	 0.279924
C	 4.0938962569	 3.9969400565	 0.4345193064	-0.42995
N	 0.9626978925	 2.2142110592	-0.5279528562	-0.291649
H	-2.0540869942	 1.6296438405	 0.1841361015	 0.133459
H	-1.0686466133	 1.8734696284	 1.6195394985	 0.131301
H	-1.4436109621	 3.7544705429	-0.7474557037	 0.117319
H	-1.1481985928	 4.2135232261	 0.9276914413	 0.109311
H	 0.8270066178	 4.2427068133	-1.0437577595	 0.096714
H	 1.197548914	 5.1474140119	 1.2151880392	 0.133363
H	 1.2754370674	 3.5230586076	 1.8953234135	 0.134557
H	 5.1310460412	 3.9503807696	 0.2108749961	 0.201904
H	 1.8857279848	 1.9386206838	-0.8272936022	 0.256526
62.1038	103.6034	108.2378	151.5733	310.7835	347.4187	392.148	468.529	507.789	531.812	585.1728	629.0557	650.4833	654.1024	722.0213	795.3749	844.9898	911.4786	939.8048	945.7846	1000.4518	1024.7393	1074.2221	1104.8645	1172.1868	1213.997	1229.4311	1255.0526	1282.4935	1300.3679	1325.9993	1363.7573	1400.7873	1437.3781	1463.5516	1471.4679	1497.2238	1833.1872	2236.3988	3020.1987	3038.2644	3057.8824	3061.5324	3068.2128	3105.9913	3123.2057	3504.7959	3633.0138
O=C1CCC(CC#C)N1	O=C1CC[C@@H](CC#C)N1	
InChI=1S/C7H9NO/c1-2-3-6-4-5-7(9)8-6/h1,6H,3-5H2,(H,8,9)	InChI=1S/C7H9NO/c1-2-3-6-4-5-7(9)8-6/h1,6H,3-5H2,(H,8,9)/t6-/m1/s1
