17
gdb 34298	3.36675	1.50288	1.33319	1.8161	73.14	-0.2563	0.0271	0.2834	997.0721	0.136834	-421.796573	-421.789273	-421.788329	-421.828104	29.269	
C	 0.0678102114	-1.1335074002	-0.0443236732	-0.336021
C	 0.0252656144	 0.0654237401	-0.0349270483	 0.164526
C	-0.049260458	 1.5122253289	 0.0368528606	 0.358421
C	-0.8312399772	 2.1177895756	 1.231563905	-0.266323
C	-1.1293373246	 3.5396178525	 0.6712437941	-0.228183
C	-0.4474523019	 3.4512243265	-0.7111177016	 0.023731
C	 1.0787903948	 3.4062256023	-0.5223043132	-0.084526
O	 1.2652953203	 2.0950453066	 0.0343592069	-0.311812
O	-0.6925119407	 2.0873188035	-1.0928685035	-0.276298
H	 0.1132106748	-2.1945257626	-0.0678830846	 0.193379
H	-1.7423007007	 1.5485902187	 1.4251698824	 0.118436
H	-0.2145335207	 2.1177355721	 2.1310569103	 0.11948
H	-2.2021541093	 3.7073019691	 0.5574096684	 0.113072
H	-0.7198946073	 4.342540749	 1.288844938	 0.106723
H	-0.812633024	 4.1282261948	-1.481567375	 0.091019
H	 1.6176176065	 3.4829830735	-1.4734935167	 0.110336
H	 1.4517282524	 4.1682371595	 0.1706647805	 0.10404
134.1664	156.013	193.5511	338.7984	397.2516	481.855	520.0586	540.5422	588.0526	647.0892	655.2535	686.8977	784.4992	831.0725	837.3852	854.7079	929.2755	949.4815	956.5618	998.8847	1012.0147	1044.8241	1074.8428	1095.5592	1164.7231	1182.132	1210.3319	1241.005	1287.6227	1314.1877	1320.2495	1344.6284	1369.2087	1478.7833	1498.8072	1523.4251	2259.5324	3029.9693	3069.8025	3076.2295	3083.9968	3115.8585	3140.4669	3141.6426	3501.9664
C#CC12CCC(CO1)O2	C#C[C@@]12CC[C@@H](CO1)O2	
InChI=1S/C7H8O2/c1-2-7-4-3-6(9-7)5-8-7/h1,6H,3-5H2	InChI=1S/C7H8O2/c1-2-7-4-3-6(9-7)5-8-7/h1,6H,3-5H2/t6-,7+/m0/s1
