22
gdb 83883	1.98356	1.82996	1.2667	2.5683	81.73	-0.2123	0.0677	0.28	1108.9163	0.195779	-404.325436	-404.316576	-404.315632	-404.358758	34.499	
C	-0.502647025	 1.384842974	-0.0893797666	-0.316578
N	-0.0242415542	 0.0190445432	 0.0300850013	-0.086476
C	 1.3322647707	-0.3995480409	-0.3169703278	-0.040086
C	 2.4377477632	 0.5816681017	-0.7052294918	-0.225614
C	 3.2797140531	 1.0505507932	 0.4925719948	-0.201967
C	 2.3862348898	 1.5576375602	 1.6280963984	-0.247336
C	 1.4695879218	 0.4444787746	 2.1618139304	 0.118079
O	 0.4092145635	 0.9608890923	 2.9662449135	-0.440769
C	 0.8374459443	-0.4425709634	 1.1033119843	-0.021598
H	 0.2662995218	 2.1692346697	-0.0746427493	 0.097928
H	-1.0502895801	 1.4781722027	-1.0337398201	 0.114074
H	-1.1923407607	 1.5835426264	 0.7340757555	 0.139694
H	 1.3521733384	-1.3370809755	-0.8707327411	 0.085458
H	 3.0851991232	 0.0980296101	-1.4433313022	 0.099599
H	 2.0073582258	 1.4552611512	-1.2110776142	 0.107101
H	 3.8902539658	 0.2135015755	 0.8569372307	 0.097686
H	 3.9795042186	 1.8335671282	 0.1798411717	 0.094091
H	 2.9983120056	 1.9357699093	 2.4572841237	 0.0848
H	 1.7748164321	 2.3980442068	 1.2839144525	 0.110777
H	 2.0969696312	-0.2314452777	 2.7693871325	 0.065316
H	 0.8034345793	 1.4771190282	 3.6773296579	 0.278761
H	 0.5191696617	-1.4002804198	 1.5147705059	 0.08706
69.8352	124.3869	195.3699	231.8619	287.6148	298.1975	323.5776	394.0493	414.9995	447.2668	506.8965	627.9811	659.2599	739.922	761.8154	788.1082	882.7115	906.3411	923.5414	964.6988	1038.8484	1063.2193	1069.7557	1091.2474	1116.1166	1128.0364	1147.2858	1162.3573	1186.115	1193.1874	1220.3176	1257.7943	1280.7839	1340.1516	1356.7316	1361.7859	1368.3437	1381.211	1395.3637	1426.8848	1437.9308	1459.5232	1475.3988	1486.6269	1493.98	1503.7823	1518.3926	2937.1421	3003.5699	3016.0833	3024.6605	3028.5775	3061.57	3063.871	3072.1615	3084.7189	3097.3979	3109.6224	3121.0924	3807.1747
CN1C2CCCC(O)C12	CN1[C@H]2CCC[C@@H](O)[C@@H]12	
InChI=1S/C7H13NO/c1-8-5-3-2-4-6(9)7(5)8/h5-7,9H,2-4H2,1H3	InChI=1S/C7H13NO/c1-8-5-3-2-4-6(9)7(5)8/h5-7,9H,2-4H2,1H3/t5-,6+,7-,8?/m0/s1
