17
gdb 97471	16.73278	0.37061	0.36505	0.1549	127.46	-0.2187	-0.0351	0.1836	2962.0326	0.133619	-347.507847	-347.497224	-347.49628	-347.548229	35.397	
C	 0.044090269	 1.5619918857	 0.0104589782	-0.367522
C	-0.0086094436	 0.0215395339	 0.0019125458	-0.345727
C	-1.3643526413	-0.5044391699	 0.0120897561	 0.177555
C	-2.5016543409	-0.9280228159	 0.0207310992	-0.453231
C	-3.768959258	-1.3981329055	 0.0303724661	 0.348725
C	-4.9125532985	-1.8214941384	 0.0390797805	 0.307935
C	-6.1802494217	-2.2906610317	 0.0487362092	-0.418999
C	-7.3177259845	-2.711566248	 0.0574012882	 0.127873
C	-8.677875692	-3.2154070822	 0.0677595801	-0.517383
H	 1.0833910867	 1.9027595274	 0.0022888397	 0.11932
H	-0.4622423366	 1.9725264088	-0.866864284	 0.13401
H	-0.4449220209	 1.962118609	 0.902295866	 0.13401
H	 0.5194713104	-0.3600963403	-0.8820213191	 0.138795
H	 0.5366296138	-0.3704080745	 0.8707886728	 0.138795
H	-8.6942657792	-4.3113374903	 0.063829743	 0.158695
H	-9.2189697108	-2.8773297551	 0.9589722721	 0.158574
H	-9.234888942	-2.8707454229	-0.8110370838	 0.158574
1.1826	46.291	55.0194	115.0022	139.4963	210.1316	224.0861	297.296	329.5721	378.5362	415.1613	491.314	524.3205	553.5968	649.523	655.1569	782.5762	783.4726	958.4983	1045.8974	1045.9776	1070.854	1099.5023	1107.8153	1280.8334	1330.4673	1383.4111	1408.963	1414.8846	1467.918	1469.9273	1470.0578	1494.3029	1504.9592	2222.2449	2335.8611	2343.1022	3014.6801	3021.7228	3042.6654	3047.2093	3083.9909	3083.9918	3122.0532	3128.5011	1.3449	46.2923	55.0206	115.002	139.4932	210.127	224.0845	297.2951	329.5681	378.5327	415.16	491.3139	524.3197	553.5944	649.5187	655.1532	782.5763	783.4728	958.4982	1045.8966	1045.9767	1070.854	1099.5028	1107.8153	1280.8338	1330.4675	1383.411	1408.9632	1414.8845	1467.9184	1469.9266	1470.0571	1494.3033	1504.9596	2222.245	2335.8608	2343.103	3014.6801	3021.7229	3042.6654	3047.2093	3083.9909	3083.9919	3122.0532	3128.501
CCC#CC#CC#CC	CCC#CC#CC#CC	
InChI=1S/C9H8/c1-3-5-7-9-8-6-4-2/h3H2,1-2H3	InChI=1S/C9H8/c1-3-5-7-9-8-6-4-2/h3H2,1-2H3
