18
gdb 61292	4.09739	0.76488	0.74547	0.4194	73.71	-0.2457	0.004	0.2496	1526.474	0.146559	-435.295491	-435.285502	-435.284558	-435.331171	35.28	
C	 0.3902659596	 1.3656719806	-0.4441032496	-0.347396
N	-0.1357012182	 0.0948930965	 0.0573997232	-0.086862
C	 0.5126166998	-0.3128221259	 1.3001431581	-0.280362
C	 1.9342297934	-0.6182386174	 1.0950861514	 0.273276
N	 3.0541361882	-0.8533222348	 0.9388851755	-0.301549
C	-1.5919584497	 0.115006672	 0.1747404514	-0.252095
C	-2.3242402341	-0.0409417961	-1.168073303	 0.367273
N	-1.6022287052	-0.6810418014	-2.1226069241	-0.501573
O	-3.4661488334	 0.3466602255	-1.3097768715	-0.356503
H	 1.4689914106	 1.2855484819	-0.5997950397	 0.150834
H	-0.0784122076	 1.5974681305	-1.4029419196	 0.143038
H	 0.1954876953	 2.2022321369	 0.2495560364	 0.111733
H	 0.4397955064	 0.44870935	 2.0988330642	 0.137641
H	 0.0251160728	-1.2178404787	 1.6774181006	 0.158015
H	-1.9106911807	-0.7302069693	 0.7955774949	 0.131272
H	-1.9815853503	 1.0283055486	 0.6501340012	 0.122619
H	-0.6594267123	-0.9727342507	-1.9232641346	 0.266452
H	-2.0226985345	-0.8616955984	-3.0184377246	 0.264187
49.8667	65.8831	109.1996	138.0694	221.0895	250.1371	308.0551	319.4372	374.4906	379.5376	394.5648	440.8934	536.6039	563.6924	628.732	701.9873	861.9224	877.8008	950.4148	985.3722	1009.3987	1060.5655	1094.1146	1154.2376	1166.2638	1213.0067	1292.8846	1312.435	1349.2186	1359.8414	1401.3683	1458.3588	1466.6067	1485.5118	1498.9896	1503.7915	1586.553	1813.3749	2366.8774	2937.9587	2960.5361	2993.9456	3064.1943	3073.9848	3089.8233	3134.065	3591.5739	3734.7443
CN(CC#N)CC(N)=O	CN(CC#N)CC(=O)N	
InChI=1S/C5H9N3O/c1-8(3-2-6)4-5(7)9/h3-4H2,1H3,(H2,7,9)	InChI=1S/C5H9N3O/c1-8(3-2-6)4-5(7)9/h3-4H2,1H3,(H2,7,9)
