16
gdb 34759	5.10656	1.20234	1.10847	2.7093	72.64	-0.2575	0.026	0.2834	1065.9405	0.12671	-400.71569	-400.709112	-400.708167	-400.746737	26.137	
N	-0.0722643425	-1.1897952567	-0.1255106874	-0.33542
C	-0.0448320932	-0.0353055479	-0.0645553123	 0.277906
C	-0.0171605223	 1.4169079623	 0.0052407944	-0.179905
C	 0.0203195226	 2.0808733741	 1.4088903316	-0.0913
C	 1.5275773375	 1.6740218665	 1.5622309761	-0.069057
C	 2.2115283717	 2.826842545	 2.2816751577	-0.111853
O	 1.5608940796	 3.954604701	 1.6616685999	-0.279228
C	 0.6787912409	 3.3355951862	 0.7589043301	 0.137762
C	 1.3665837155	 2.1197200871	 0.06680826	-0.091298
H	-0.7352104867	 1.8407158779	-0.7027772298	 0.11797
H	-0.757405048	 2.0463955847	 2.1711762072	 0.095118
H	 1.7993432207	 0.6480584557	 1.8051485986	 0.106965
H	 2.0285813275	 2.836945333	 3.3623256606	 0.1142
H	 3.2919206023	 2.8733855638	 2.1028742784	 0.114199
H	 0.1008965049	 4.0709522371	 0.2004949256	 0.098825
H	 2.1316351493	 2.1297669601	-0.7088975907	 0.095118
130.0938	155.3863	307.1528	365.8808	408.4279	499.9455	575.4109	716.8449	737.3434	751.8835	799.4866	861.0315	926.8711	932.6305	955.7268	971.2535	986.1416	990.5766	1026.7442	1039.4324	1093.8995	1100.8097	1123.9927	1154.1659	1164.7365	1202.2371	1212.4251	1232.9407	1248.0189	1282.6185	1325.1246	1358.3491	1400.2512	1520.7269	2353.2416	3031.0719	3072.0075	3072.2654	3122.7401	3123.9797	3139.4777	3146.0855
N#CC1C2C3COC2C13	N#C[C@H]1[C@H]2[C@@H]3CO[C@H]2[C@H]13	
InChI=1S/C7H7NO/c8-1-3-5-4-2-9-7(5)6(3)4/h3-7H,2H2	InChI=1S/C7H7NO/c8-1-3-5-4-2-9-7(5)6(3)4/h3-7H,2H2/t3-,4-,5-,6+,7+
