17
gdb 108735	3.12123	1.21484	0.93428	0.3939	80.85	-0.2627	-0.0724	0.1903	1251.5807	0.136991	-418.077977	-418.069424	-418.068479	-418.111594	31.504	
C	 0.156615989	 1.5108647452	-0.138506053	-0.382976
C	-0.0639570483	 0.0006396025	 0.0728305594	-0.290611
C	 0.6330650541	-0.5164040369	 1.287741832	 0.212458
C	 0.1504932828	-0.9701058429	 2.4534298929	-0.2673
C	 1.2622954046	-1.3616209012	 3.3459581384	 0.402084
N	 1.1214373421	-1.8295345084	 4.5212969302	-0.523835
N	 2.4265370033	-1.104351894	 2.616200137	-0.40852
C	 2.1361948756	-0.5931131683	 1.3543793082	 0.377851
O	 2.9419685718	-0.2873760449	 0.5059187684	-0.357473
H	 1.2219126489	 1.7301931245	-0.242063822	 0.149225
H	-0.3538617051	 1.8456445732	-1.0460178715	 0.118919
H	-0.2353550562	 2.0861464725	 0.7058013782	 0.120044
H	-1.133825004	-0.2194563151	 0.1460685467	 0.109799
H	 0.3202657972	-0.5352674514	-0.8035318057	 0.128296
H	-0.8806057807	-1.0678713815	 2.7628423836	 0.132251
H	 2.022719065	-2.0321467478	 4.9585053319	 0.218284
H	 3.3666448101	-1.2679042855	 2.937291995	 0.261505
60.4402	128.9311	138.7281	196.0921	255.5397	293.434	366.4967	445.8476	468.1751	548.755	610.8578	654.3942	694.0035	760.342	795.0976	812.6317	873.4602	915.1577	941.612	959.9742	1059.9306	1090.2435	1092.9229	1160.4046	1197.71	1270.7873	1332.0661	1348.4726	1353.5717	1394.3297	1404.7433	1476.7191	1496.4965	1511.1003	1685.749	1743.599	1828.105	3035.0941	3044.4777	3079.7027	3114.556	3133.405	3240.8327	3457.0908	3660.0849
CCC1=CC(=N)NC1=O	CC[C]1C=C([NH])NC1=O	
InChI=1S/C6H8N2O/c1-2-4-3-5(7)8-6(4)9/h3H,2H2,1H3,(H2,7,8,9)	InChI=1S/C6H8N2O/c1-2-4-3-5(7)8-6(4)9/h3H,2H2,1H3,(H2,7,8,9)
