22
gdb 103418	2.42744	1.3735	1.22912	1.7598	81.2	-0.2247	0.0692	0.294	1165.6262	0.193166	-404.299916	-404.290292	-404.289348	-404.333625	36.901	
C	-0.2428517951	 1.5366180835	-0.0358134565	-0.415744
C	 0.0441439359	 0.0481984943	 0.0541590488	 0.029885
N	 0.9245288761	-0.5474921261	-1.0250076785	-0.144748
C	 2.2800724349	 0.0003366901	-0.8340231457	-0.259904
C	 1.8361664984	-1.0725861744	 0.0723680652	-0.076841
C	 0.9347137754	-0.557161803	 1.2000194424	 0.302373
C	 1.5568754371	 0.3690610987	 2.2433594201	-0.460142
C	 0.2106068232	-1.7157301483	 1.8813886071	-0.13206
O	-0.8722516482	-1.1785421564	 2.62914741	-0.42682
H	 0.6552818504	 2.1569777567	 0.0268995969	 0.111943
H	-0.7397975136	 1.7611835639	-0.9855664374	 0.124907
H	-0.9116225888	 1.8370756422	 0.7770734404	 0.127898
H	-0.909011512	-0.4850027963	 0.0124989668	 0.088177
H	 2.9534333893	-0.2766759636	-1.6398419726	 0.118535
H	 2.4166644697	 1.0147944663	-0.4720967858	 0.108904
H	 2.2521806348	-2.0760353758	 0.027132128	 0.084955
H	 2.0466122037	 1.2356342314	 1.7929043525	 0.108438
H	 0.7924273291	 0.7293024799	 2.9369795893	 0.135852
H	 2.3123806482	-0.1700161852	 2.8272883224	 0.109007
H	-0.1466125894	-2.4235459788	 1.1172788835	 0.093978
H	 0.9136666969	-2.2587484151	 2.535164634	 0.081939
H	-1.347913636	-1.9059642842	 3.0398381593	 0.289469
111.5618	140.3621	191.782	203.0334	221.8036	244.5184	251.1435	306.6299	336.637	378.1304	433.6113	518.9061	542.4789	655.5512	731.9491	770.2181	785.5446	874.7021	906.5004	953.7459	990.9632	1008.6143	1049.1595	1055.3859	1072.8116	1098.8511	1112.2615	1115.2653	1149.5554	1170.3087	1204.5363	1213.6189	1232.8492	1270.0987	1281.0005	1314.6155	1370.957	1390.8236	1407.9478	1415.5851	1456.1477	1486.0111	1489.3818	1495.6916	1499.9922	1517.354	1524.0378	2958.2636	2996.5072	3034.2914	3038.7663	3068.478	3100.9814	3105.6391	3112.8281	3120.6273	3126.0508	3137.8049	3201.3381	3835.7107
CC1N2CC2C1(C)CO	C[C@H]1N2C[C@H]2[C@]1(C)CO	
InChI=1S/C7H13NO/c1-5-7(2,4-9)6-3-8(5)6/h5-6,9H,3-4H2,1-2H3	InChI=1S/C7H13NO/c1-5-7(2,4-9)6-3-8(5)6/h5-6,9H,3-4H2,1-2H3/t5-,6+,7-,8?/m1/s1
