23
gdb 122887	4.56759	0.50671	0.46988	1.8661	89.27	-0.2575	0.0578	0.3153	2312.6486	0.202775	-388.259217	-388.247736	-388.246792	-388.296835	40.782	
C	 0.1525465558	 1.5793525388	-0.0056267799	-0.385204
C	 0.0226489321	 0.0427307818	-0.0431323619	-0.163044
C	-1.4460804437	-0.4443153207	 0.0274771111	-0.173637
C	-2.1668592358	-0.0947597847	 1.3343030645	-0.198765
C	-3.5789427501	-0.6855964561	 1.3993864025	-0.168802
C	-4.3116026659	-0.3362977256	 2.6880464651	-0.074236
O	-5.5996885126	-0.93094902	 2.6349669854	-0.42109
C	 0.6745620023	-0.4944193934	-1.2374419618	 0.318779
C	 1.1917057884	-0.9264026355	-2.2334048233	-0.462951
H	 1.2003609018	 1.8787345357	-0.0892282071	 0.125832
H	-0.3953045228	 2.0313297767	-0.8384531701	 0.124405
H	-0.2434052539	 1.9840906775	 0.9295337734	 0.116532
H	 0.5482293457	-0.3615028767	 0.8345090386	 0.102401
H	-1.9960191002	-0.0268001219	-0.8254692068	 0.105204
H	-1.4523622319	-1.5319704397	-0.1075121747	 0.107732
H	-1.5753280888	-0.4630330244	 2.1846307264	 0.093441
H	-2.226424733	 0.9943761429	 1.4519299398	 0.099392
H	-4.1774034324	-0.3266721564	 0.5529902905	 0.106397
H	-3.5365696324	-1.7778469006	 1.3088762535	 0.106362
H	-3.7374220577	-0.7054133138	 3.5541980633	 0.082575
H	-4.382293938	 0.7594535868	 2.7900272345	 0.082388
H	-6.0652591003	-0.7142140132	 3.4478018318	 0.284852
H	 1.6567933835	-1.3134410576	-3.1058154147	 0.191437
55.5858	58.1578	81.6258	133.1842	139.9944	166.6018	204.8508	251.2624	266.8865	278.7615	344.1914	370.3194	495.7511	532.681	553.449	624.9264	632.2008	743.9172	791.3867	827.1251	912.6396	927.0347	1006.332	1018.4095	1025.8898	1061.8464	1075.4963	1099.9269	1123.614	1183.3058	1211.5426	1227.8837	1274.8056	1288.6873	1316.1953	1325.9926	1330.5273	1346.0023	1369.5559	1400.7651	1409.4733	1464.4549	1481.2879	1490.4321	1496.6802	1501.6917	1507.0706	1528.8887	2233.2764	2955.4332	2980.2603	2996.0037	3007.4361	3027.24	3033.9928	3041.033	3045.7741	3068.4358	3082.7636	3116.9542	3123.2471	3505.7809	3830.9429
CC(CCCCO)C#C	C[C@@H](CCCCO)C#C	
InChI=1S/C8H14O/c1-3-8(2)6-4-5-7-9/h1,8-9H,4-7H2,2H3	InChI=1S/C8H14O/c1-3-8(2)6-4-5-7-9/h1,8-9H,4-7H2,2H3/t8-/m1/s1
