18
gdb 122779	5.29721	0.54503	0.49917	3.8247	77.38	-0.2511	-0.0396	0.2115	2080.6744	0.146555	-435.272405	-435.261819	-435.260875	-435.309847	35.679	
O	-0.1569442271	 1.4534981897	-0.0628204852	-0.419015
C	-0.0027402219	 0.0464349341	 0.0116165158	-0.072401
C	-1.3968640724	-0.5675300749	-0.0212625285	-0.206969
C	-1.3625880202	-2.0904978888	 0.0716381474	-0.123859
N	-2.7119069593	-2.6318716333	 0.0360183709	-0.326684
C	-2.9328671061	-3.9745148416	-0.0116118315	 0.302663
N	-1.9826983289	-4.8276381193	-0.1229125033	-0.526225
C	-4.3400663646	-4.3453737476	 0.0534687137	 0.224429
N	-5.4453168279	-4.6804711554	 0.110683947	-0.321441
H	 0.7167892865	 1.8546963696	-0.0493648059	 0.289657
H	 0.5924113984	-0.338443116	-0.832236423	 0.094072
H	 0.5142695842	-0.2525077769	 0.9379720569	 0.092323
H	-1.9757172402	-0.1502518844	 0.812674042	 0.111835
H	-1.8970030022	-0.2590827308	-0.946241804	 0.121631
H	-0.80185036	-2.5246205349	-0.7631873885	 0.137693
H	-0.8485709843	-2.4158493339	 0.9876650656	 0.119781
H	-3.4768305768	-2.0339678936	 0.301463682	 0.263099
H	-2.3465513473	-5.774834092	-0.1841265914	 0.239411
33.1078	58.5883	78.4639	111.9391	150.6906	179.0792	247.1652	264.9329	289.8398	347.4885	360.5188	450.3008	549.8681	613.2443	723.7164	768.9674	821.9425	884.3948	907.3135	1018.555	1060.0822	1072.8564	1111.4348	1166.5158	1178.002	1227.1799	1243.9231	1291.7428	1306.4757	1312.998	1336.8499	1407.1737	1467.1014	1498.8128	1520.4495	1532.4961	1545.4682	1682.885	2347.6521	2963.7847	2989.9233	3005.4878	3029.7364	3062.9279	3085.3285	3535.3652	3653.9511	3833.2909
OCCCNC(=N)C#N	OCCCNC(=N)C#N	
InChI=1S/C5H9N3O/c6-4-5(7)8-2-1-3-9/h9H,1-3H2,(H2,7,8)	InChI=1S/C5H9N3O/c6-4-5(7)8-2-1-3-9/h9H,1-3H2,(H2,7,8)
