21
gdb 108857	2.29462	1.24921	0.89719	2.2506	82.18	-0.2251	0.0252	0.2503	1363.1876	0.180629	-424.235138	-424.225178	-424.224234	-424.270193	36.385	
C	 0.1652968984	 1.5446799911	-0.1707354337	-0.386642
C	-0.0009125769	 0.0441383319	 0.0670996043	 0.094847
O	 0.5496052401	-0.6833242739	-1.0383863504	-0.292909
C	 1.4348881567	-1.707018164	-0.5839820388	 0.045229
C	 2.7515113286	-1.6247344554	-1.3577106837	-0.396011
C	 1.5430928505	-1.4803133224	 0.9079939588	 0.293256
C	 2.4245402623	-2.308664151	 1.7822458393	-0.183486
O	 2.2167234586	-1.9523096916	 3.1368399391	-0.413364
C	 0.7265559835	-0.4962008263	 1.2674195689	-0.213002
H	 1.2256692934	 1.8088560017	-0.2192337379	 0.115849
H	-0.3095726565	 1.8312838903	-1.1134960412	 0.122698
H	-0.3028810081	 2.1160218804	 0.6377932573	 0.11015
H	-1.0803339938	-0.1792488387	 0.1372167462	 0.075736
H	 0.9784086204	-2.6942959855	-0.7835119488	 0.072164
H	 3.2641300035	-0.6818784715	-1.1446467557	 0.118536
H	 3.4143287551	-2.4561251182	-1.093928449	 0.107605
H	 2.5534844273	-1.6765015297	-2.4318812093	 0.126947
H	 2.2045696738	-3.377744461	 1.6079423385	 0.0962
H	 3.4781763295	-2.1620354848	 1.487446869	 0.101188
H	 2.8325420909	-2.4563274957	 3.6761062773	 0.290214
H	 0.5772809426	-0.1318689556	 2.2745672899	 0.114796
73.1607	80.3101	139.3993	166.6324	223.8942	236.5021	241.157	270.5083	341.7979	361.2419	441.9501	478.3453	558.4656	669.4234	712.5918	810.6607	850.7697	857.8919	899.8927	966.5872	1018.8196	1029.7733	1065.8579	1083.2319	1101.1382	1114.6963	1121.8812	1138.5674	1200.0279	1222.5731	1253.8275	1286.3014	1334.7412	1354.6306	1370.258	1377.2749	1398.0976	1399.4242	1468.454	1483.8085	1487.1184	1494.5127	1497.1439	1508.7738	1737.29	2921.8079	2937.9819	2939.1464	2957.0782	3034.8697	3036.7606	3107.225	3110.5183	3119.6005	3120.686	3234.2779	3837.6553
CC1OC(C)C(CO)=C1	C[C@H]1O[C@@H](C)C(=C1)CO	
InChI=1S/C7H12O2/c1-5-3-7(4-8)6(2)9-5/h3,5-6,8H,4H2,1-2H3	InChI=1S/C7H12O2/c1-5-3-7(4-8)6(2)9-5/h3,5-6,8H,4H2,1-2H3/t5-,6+/m1/s1
