14
gdb 18936	3.79883	2.55487	2.04637	1.4654	54.89	-0.239	0.043	0.282	672.5965	0.108934	-419.609711	-419.604305	-419.603361	-419.638986	22.526	
O	 0.0686952299	 1.3585251707	-0.0172006359	-0.446965
C	-0.0104716279	-0.0377420536	-0.0103974369	 0.186477
C	 0.3804055969	-0.6742712351	 1.3481843249	-0.028432
O	-0.5322054885	 0.0538793251	 2.2360753286	-0.310126
C	-1.5667190372	-0.7447633856	 1.6360983366	 0.052229
C	-0.6198430758	-1.9072319864	 1.3256785759	 0.070034
O	-1.1134235033	-2.0795424779	-0.0051575232	-0.288985
C	-1.4315900692	-0.6566487113	 0.0509042728	-0.027902
H	-0.2063767338	 1.638089243	 0.8679921909	 0.289997
H	 0.5402494275	-0.4312039803	-0.8660594791	 0.104229
H	 1.4125810076	-0.6849478873	 1.6898815371	 0.09518
H	-2.5266033066	-0.7513147779	 2.1469831567	 0.105838
H	-0.4360017695	-2.813061029	 1.8992316284	 0.104007
H	-2.20661623	-0.3316382944	-0.6388635768	 0.094419
236.6135	330.0203	490.4656	516.3895	539.7309	607.0369	723.4787	769.4579	806.6738	834.8268	847.1478	876.5672	910.7352	940.2065	954.9082	986.2072	1009.5283	1068.5018	1104.3384	1143.6364	1151.1801	1165.1041	1200.2371	1216.9332	1247.9457	1276.3944	1290.3744	1313.6393	1346.2964	1434.7422	3114.7645	3145.8125	3154.4294	3159.6747	3166.0224	3736.5553
OC1C2OC3C2OC13	O[C@H]1[C@H]2O[C@@H]3[C@H]2O[C@H]13	
InChI=1S/C5H6O3/c6-1-2-4-5(7-2)3(1)8-4/h1-6H	InChI=1S/C5H6O3/c6-1-2-4-5(7-2)3(1)8-4/h1-6H/t2-,3-,4+,5+/m1/s1
