20
gdb 42091	3.59845	1.2348	1.22715	1.3064	78.26	-0.2431	0.0259	0.2689	1119.3618	0.173966	-403.183088	-403.175116	-403.174172	-403.217174	30.005	
C	 0.0723917136	 1.4582585503	 0.3935655742	-0.199304
C	 1.4612156344	 1.9656045619	-0.1010364166	-0.199273
C	 1.9646753626	 0.9023389583	-1.100432391	-0.241567
C	 1.2273374685	-0.3917651103	-0.7066240396	 0.300741
C	-0.1777114233	 0.1306925731	-0.3518371772	-0.241523
C	 1.2738153461	-1.5361788792	-1.7539675457	-0.180804
O	 1.9086623668	-2.6403942111	-1.066596008	-0.224023
C	 2.1758621095	-2.1745819145	 0.17673638	 0.11337
N	 1.8617596768	-0.9905616278	 0.493403524	-0.296009
H	 0.0998726322	 1.2827263811	 1.4713995339	 0.114694
H	-0.7257624359	 2.18164498	 0.2064891231	 0.092984
H	 1.4014465453	 2.9543988918	-0.5637491189	 0.093272
H	 2.1524529259	 2.0476056773	 0.7408269775	 0.114154
H	 1.6771169548	 1.1671776049	-2.1258296	 0.0919
H	 3.0502196117	 0.7730563248	-1.0854569454	 0.100393
H	-0.7467870849	-0.5954955741	 0.2348782067	 0.100214
H	-0.7282150075	 0.3072674654	-1.2846829119	 0.091791
H	 0.2824088069	-1.8642641769	-2.0805500255	 0.11565
H	 1.8763705676	-1.2925921392	-2.634208374	 0.115568
H	 2.6611971187	-2.8956233156	 0.8258346842	 0.137775
21.9939	73.8058	140.1177	246.6129	348.2392	362.1297	430.8337	570.1778	661.1538	677.9749	785.7953	803.0963	807.6271	875.0931	896.6132	916.8118	929.3346	963.8488	968.4876	992.6686	1015.2843	1046.8194	1050.3392	1099.1453	1150.9048	1169.8378	1210.1823	1228.9192	1245.5829	1257.3657	1270.6888	1310.4686	1318.3042	1328.161	1342.9899	1363.5763	1380.9743	1474.8949	1487.3095	1488.1173	1512.4629	1515.355	1706.9335	3022.7288	3028.4561	3045.5965	3057.5373	3068.2447	3084.5453	3091.0147	3091.7121	3099.1611	3116.7738	3209.6051	21.9968	73.8063	140.118	246.613	348.2392	362.1298	430.8337	570.1777	661.1538	677.9749	785.7953	803.0963	807.6272	875.0931	896.6132	916.8118	929.3346	963.849	968.4878	992.6686	1015.2843	1046.8194	1050.3391	1099.1454	1150.9048	1169.8377	1210.1821	1228.9191	1245.5828	1257.3656	1270.6886	1310.4685	1318.3042	1328.161	1342.9898	1363.5762	1380.9743	1474.8947	1487.3093	1488.1172	1512.4628	1515.3549	1706.9334	3022.7288	3028.4561	3045.5965	3057.5373	3068.2447	3084.5454	3091.0147	3091.7121	3099.1611	3116.7738	3209.6051
C1CCC2(C1)COC=N2	C1CCC2(C1)COC=N2	
InChI=1S/C7H11NO/c1-2-4-7(3-1)5-9-6-8-7/h6H,1-5H2	InChI=1S/C7H11NO/c1-2-4-7(3-1)5-9-6-8-7/h6H,1-5H2
