16
gdb 51373	4.39343	1.09516	1.00022	4.1229	70.22	-0.241	0.0274	0.2684	1169.3554	0.124313	-437.819932	-437.812536	-437.811592	-437.85232	28.454	
O	-0.0328688325	-0.0691642197	 0.1759490138	-0.331777
C	-0.0280878093	 1.137992345	 0.0433803449	 0.150804
N	 1.0801120879	 1.9119341218	-0.1005588417	-0.300017
C	 2.3912580049	 1.3428753407	-0.1082449631	 0.078978
C	 3.5522373969	 1.7119221454	-0.9915622304	-0.159679
C	 3.7880801833	 3.244553008	-1.1257888273	 0.023747
O	 2.7610084368	 3.9641217779	-0.4160458998	-0.264837
C	 3.8654333779	 3.4034378451	 0.3203249757	 0.023739
C	 3.6345814641	 1.8809103121	 0.5466864734	-0.159704
H	-0.9533528486	 1.746466229	 0.0260505369	 0.075436
H	 1.0059942786	 2.9099840103	-0.2061437984	 0.267638
H	 2.3018083504	 0.2673653432	 0.0146866411	 0.147253
H	 4.0641346415	 0.9893865846	-1.6147008948	 0.104425
H	 4.2831644411	 3.7588901315	-1.9397356649	 0.119785
H	 4.4375869833	 4.076006232	 0.9467868472	 0.119784
H	 4.2177128736	 1.3045430931	 1.2539056876	 0.104425
55.7402	180.3762	207.4645	251.2028	308.3933	416.677	582.5612	632.5843	661.776	682.3483	723.889	769.7838	792.237	823.1914	869.6353	912.6387	948.7745	961.9691	988.0941	1011.4206	1028.5469	1041.8086	1051.413	1108.1047	1158.1107	1216.0018	1235.6159	1265.2316	1281.6095	1307.6001	1361.8926	1418.5893	1430.9926	1523.2701	1797.8147	2941.822	3171.4978	3185.9604	3196.0226	3196.2735	3209.8579	3658.1179
O=CNC1C2C3OC3C12	O=CN[C@H]1[C@H]2[C@H]3O[C@H]3[C@@H]12	
InChI=1S/C6H7NO2/c8-1-7-4-2-3(4)6-5(2)9-6/h1-6H,(H,7,8)	InChI=1S/C6H7NO2/c8-1-7-4-2-3(4)6-5(2)9-6/h1-6H,(H,7,8)/t2-,3+,4-,5+,6-
