20
gdb 122398	3.95657	0.79811	0.69942	1.6142	78.23	-0.2529	0.0252	0.2781	1638.0272	0.169676	-440.279146	-440.269549	-440.268604	-440.314949	34.199	
C	-0.0543158373	 1.3993563415	-0.1705865878	-0.381588
C	-0.0790766132	-0.0295724263	-0.6845516869	-0.047551
O	 1.2446794622	-0.5481672452	-0.5983965393	-0.247613
C	 1.3717341388	-1.9137800589	-0.9065303888	-0.085664
C	 1.3972975486	-2.2156978184	-2.3947560741	 0.113945
C	 1.5063270413	-3.6992074672	-2.8062564711	-0.382304
C	 0.1431294721	-3.4692040412	-3.423822307	 0.442784
N	-0.6650160204	-4.1745808519	-4.0707252779	-0.538181
O	 0.0679901258	-2.148255984	-3.0271238785	-0.262684
H	 0.2968141097	 1.4309987439	 0.8647633384	 0.124606
H	 0.6156894333	 2.014474306	-0.7781295382	 0.126286
H	-1.0571241415	 1.8348291327	-0.2130647828	 0.116048
H	-0.7576125499	-0.6501249013	-0.0767017881	 0.087546
H	-0.4455462672	-0.0672223759	-1.7184725677	 0.114795
H	 2.3330661727	-2.2371894624	-0.4870170171	 0.113418
H	 0.5761818556	-2.5108401405	-0.4301324853	 0.0943
H	 2.0782578023	-1.5326613394	-2.9101559376	 0.104083
H	 2.2987491938	-3.950686428	-3.5120150071	 0.141793
H	 1.5127238348	-4.4158433416	-1.9815012291	 0.137382
H	-1.5006240114	-3.6445674018	-4.3241319039	 0.228601
53.6557	59.6844	88.6144	105.6568	212.3493	243.3803	289.496	340.9994	413.2794	461.8101	498.7722	542.3547	722.2798	815.0791	823.4733	860.7905	868.0618	884.7937	946.7221	1011.6883	1024.7983	1034.5225	1057.1319	1088.416	1128.9682	1155.1092	1172.9208	1188.1432	1223.3578	1245.9042	1295.9252	1301.2077	1309.31	1373.5743	1398.2547	1415.4512	1437.4724	1464.6114	1472.399	1483.1904	1500.3523	1531.6799	1827.5233	2970.497	2976.9001	3040.2144	3044.7596	3050.5163	3080.874	3083.1367	3119.4505	3121.4704	3140.976	3477.2007
CCOCC1CC(=N)O1	CCOC[C@H]1C[C]([NH])O1	
InChI=1S/C6H11NO2/c1-2-8-4-5-3-6(7)9-5/h5,7H,2-4H2,1H3	InChI=1S/C6H11NO2/c1-2-8-4-5-3-6(7)9-5/h5,7H,2-4H2,1H3/t5-/m1/s1
