15
gdb 54441	3.71302	1.18334	1.00816	3.6665	67.11	-0.2522	-0.0386	0.2136	1136.198	0.11261	-453.95389	-453.945802	-453.944858	-453.986919	30.122	
N	 0.5342315047	 0.2223809767	-0.9981140315	-0.5399
C	-0.0334046286	 0.1668839252	 0.233694211	 0.321309
O	 0.4808995521	 0.5801030888	 1.255651207	-0.363045
C	-1.3818822465	-0.4912626754	 0.2572298172	 0.249476
C	-2.3632675003	-0.4396786371	 1.4357387363	-0.427945
C	-2.6438328303	-1.9434342292	 1.1605063896	 0.415208
O	-3.243076191	-2.7936677112	 1.7486470192	-0.29419
C	-1.6968991131	-1.9643865568	-0.0255951918	-0.201463
N	-2.0466268528	-0.8897469114	-0.9659142611	-0.370271
H	 1.4343180002	 0.6603820327	-1.0973416128	 0.26588
H	 0.0059631114	-0.0530208298	-1.8093448309	 0.275306
H	-1.8706207816	-0.3177510868	 2.4033824647	 0.168734
H	-3.1860736623	 0.2759008607	 1.3513418122	 0.124627
H	-1.0613575344	-2.7688118577	-0.3762939045	 0.127584
H	-3.0394160174	-0.6632705787	-0.9720618449	 0.24869
72.1075	94.3753	187.7239	259.2906	293.335	364.0078	439.2998	457.0063	508.1807	580.4189	621.6478	632.1737	675.42	737.7586	813.1443	850.6661	947.2672	978.3799	1006.5579	1066.268	1082.9605	1101.1773	1104.207	1142.6759	1207.8979	1220.2487	1273.3995	1317.9997	1445.2943	1461.039	1599.6702	1796.0999	1893.6129	3064.7504	3129.0112	3195.6214	3472.6518	3597.9922	3738.7192
NC(=O)C12CC(=O)C1N2	NC(=O)[C@]12CC(=O)[C@H]1N2	
InChI=1S/C5H6N2O2/c6-4(9)5-1-2(8)3(5)7-5/h3,7H,1H2,(H2,6,9)	InChI=1S/C5H6N2O2/c6-4(9)5-1-2(8)3(5)7-5/h3,7H,1H2,(H2,6,9)/t3-,5+/m1/s1
