17
gdb 128742	3.86186	1.2516	0.99818	2.9558	75.98	-0.2418	0.0227	0.2645	1172.1836	0.137707	-417.974915	-417.967097	-417.966152	-418.007906	28.48	
C	-0.0185046451	 1.326138515	 0.2913710593	-0.241131
O	-0.0960202727	 0.0876494189	-0.3854961651	-0.221267
C	-1.2822989882	-0.6014323999	-0.129307349	-0.059722
C	-1.2566249261	-2.0556754592	-0.7374079352	-0.195359
N	-1.4032620548	-2.5115118091	 0.6515080824	 0.084839
N	-1.6574217165	-3.550090312	 1.4490102398	-0.302427
C	-1.8392279867	-2.9358805289	 2.6338238428	 0.015146
C	-1.7365076925	-1.5199106434	 2.5689487103	-0.402171
C	-1.4483431688	-1.3019360456	 1.2323222762	 0.369475
H	 0.9308105661	 1.7865260785	 0.0107690984	 0.135652
H	-0.8421255005	 1.9969554784	 0.0026332372	 0.10954
H	-0.0431968386	 1.1896707156	 1.3820170715	 0.120073
H	-2.1574203513	-0.0074427946	-0.4308550557	 0.090635
H	-2.097239586	-2.3160981927	-1.384813212	 0.135327
H	-0.305356322	-2.3229594382	-1.2018737903	 0.142397
H	-2.0368864657	-3.5371690458	 3.5097704388	 0.112679
H	-1.8538591707	-0.815943387	 3.3754633406	 0.106313
78.3556	106.754	138.7009	204.0529	248.2334	377.1075	441.7536	527.7147	648.5672	672.7056	778.6723	782.8156	801.1488	871.9343	881.2859	951.817	999.2042	1044.0305	1070.6611	1089.6907	1139.6082	1159.3891	1182.3007	1191.7719	1232.5323	1234.2724	1270.8079	1297.7248	1342.8983	1384.4852	1411.0142	1474.1136	1482.4212	1487.5089	1507.0741	1511.072	1550.4574	2982.5582	3000.6186	3037.1978	3070.0852	3127.5987	3134.2752	3241.1955	3278.2284
COC1CN2N=CC=C12	CO[C@H]1Cn2nccc12	
InChI=1S/C6H8N2O/c1-9-6-4-8-5(6)2-3-7-8/h2-3,6H,4H2,1H3	InChI=1S/C6H8N2O/c1-9-6-4-8-5(6)2-3-7-8/h2-3,6H,4H2,1H3/t6-/m0/s1
