19
gdb 74536	4.62095	1.44076	1.2817	0.2525	85.44	-0.2068	0.0128	0.2196	1033.5213	0.160282	-348.653566	-348.646678	-348.645734	-348.68439	28.952	
C	-0.0829735452	 1.5133852953	 0.0100284055	-0.501334
C	-0.0175440674	 0.0234317148	 0.0088420239	 0.347415
C	-0.0738699754	-0.8431549223	-1.0184006852	-0.391118
C	 0.0502068365	-2.179299025	-0.3099404647	 0.326518
C	 0.1263844489	-3.720987022	-0.2203604477	-0.353808
C	 0.2411220291	-3.226749802	 1.2639633222	-0.111279
C	 1.0968125479	-1.9964392473	 0.8426133626	-0.016508
C	 0.1385297214	-0.8515689073	 1.2865807415	-0.200821
C	-0.7809772551	-2.0791925212	 1.0153203813	-0.016501
H	 0.8216223152	 1.9545901657	 0.4490362622	 0.12476
H	-0.1945967352	 1.9111007583	-1.0027456558	 0.122834
H	-0.9262557085	 1.877702174	 0.6115345784	 0.124741
H	-0.1800514741	-0.6378332306	-2.0739343192	 0.101891
H	-0.7778299452	-4.2794497902	-0.4833033723	 0.096159
H	 1.0128268271	-4.2005394191	-0.6479975778	 0.096159
H	 0.3504380105	-3.838344113	 2.1594825993	 0.068373
H	 2.1794389045	-1.9583868981	 0.6976699532	 0.066358
H	 0.2046988797	-0.3415480933	 2.2504245975	 0.049802
H	-1.8710215348	-2.1368830068	 1.0701944152	 0.06636
164.1803	181.1047	266.0169	385.3882	424.3088	453.1183	558.6018	561.9478	734.7466	747.4225	781.3638	788.7531	841.9179	851.5558	854.8951	881.117	918.1583	930.2269	981.5756	992.3079	1016.9559	1042.9297	1064.2898	1073.9559	1099.0115	1121.5623	1137.6662	1162.1103	1169.8073	1180.6166	1200.4719	1219.2841	1245.5146	1279.1619	1304.1396	1308.4622	1413.1173	1477.4175	1486.1618	1504.6058	1654.3213	3010.4012	3037.5018	3052.637	3077.2159	3079.8327	3089.8803	3097.1247	3104.8381	3113.7233	3232.3581
CC1=CC23CC4C2C1C34	CC1=C[C@@]23C[C@H]4[C@@H]2[C@@H]1[C@@H]34	
InChI=1S/C9H10/c1-4-2-9-3-5-7(9)6(4)8(5)9/h2,5-8H,3H2,1H3	InChI=1S/C9H10/c1-4-2-9-3-5-7(9)6(4)8(5)9/h2,5-8H,3H2,1H3/t5-,6+,7+,8-,9+
