21
gdb 38175	2.99155	1.54776	1.21693	0.2025	90.19	-0.212	0.0052	0.2172	1085.6933	0.18469	-349.899784	-349.89207	-349.891125	-349.931323	32.277	
C	-0.0004551254	 1.5055642666	-0.0467883296	-0.319079
C	 1.351238167	 0.8486455681	 0.0451856979	-0.047387
C	 2.100407826	 0.7124955848	 1.3131351835	-0.049331
C	 1.6844241223	 1.2159193334	 2.4827139306	-0.071066
C	 1.6575206	 0.4263316587	 3.7729416198	-0.23974
C	 0.2865952534	-0.4189341017	 3.7896023765	-0.239737
C	-0.4536294771	-0.1022762583	 2.5087214979	-0.071069
C	-0.2112711534	-0.7127388122	 1.341249504	-0.049327
C	-0.0188771564	 0.0039205003	 0.061846702	-0.047389
H	-0.3580233825	 2.1018965472	 0.7832818379	 0.1194
H	-0.270185182	 1.9240502236	-1.0107768944	 0.11359
H	 1.9030608824	 0.7478182977	-0.884490491	 0.089661
H	 2.7776565294	-0.1440588807	 1.3351242687	 0.074667
H	 1.0235360786	 2.079524034	 2.460849616	 0.081987
H	 2.501049216	-0.269838407	 3.8184616061	 0.104907
H	 1.7067915017	 1.0662184307	 4.6591872844	 0.099347
H	 0.5306344743	-1.4847334716	 3.8423487014	 0.104907
H	-0.2915552068	-0.1659527387	 4.6835020423	 0.099346
H	-0.9288016165	 0.8758312657	 2.484614186	 0.081987
H	 0.2502591469	-1.702294088	 1.365862711	 0.074667
H	-0.192951968	-0.5444536726	-0.8589983909	 0.089661
139.2847	233.2584	239.0666	308.2925	320.3266	375.9675	432.2709	486.1703	524.6485	602.0331	623.5557	680.0058	780.0402	796.9748	802.8103	857.499	860.058	869.8101	928.3051	953.3437	988.1109	1015.0981	1033.6247	1065.5051	1082.685	1110.0564	1113.9072	1125.1117	1131.9309	1170.5908	1205.8217	1230.8184	1251.9862	1311.8089	1340.2265	1340.4184	1344.4784	1354.067	1379.8756	1394.4723	1474.3587	1493.3228	1495.8634	1687.9714	1691.2919	3036.8764	3048.4838	3077.8743	3093.581	3097.5498	3100.632	3135.837	3145.1184	3147.5807	3152.2497	3159.0418	3227.6895
C1C2C=CCCC=CC12	C1[C@H]2[CH][CH]CC[CH][CH][C@@H]12	
InChI=1S/C9H12/c1-2-4-6-9-7-8(9)5-3-1/h3-6,8-9H,1-2,7H2/b5-3-,6-4-	InChI=1S/C9H12/c1-2-4-6-9-7-8(9)5-3-1/h3-6,8-9H,1-2,7H2/t8-,9+
