20
gdb 72380	2.75502	2.0292	1.37151	1.6075	83.76	-0.2188	0.0092	0.228	979.965	0.173189	-365.949645	-365.94237	-365.941426	-365.980913	30.29	
C	 0.001897855	 1.5288734671	-0.0910481991	-0.479068
C	 0.0565363275	 0.0098034753	 0.0497436534	 0.35953
C	 0.1279301737	-0.5917733367	-1.3622504372	-0.323171
C	 0.092224436	-2.0875727081	-1.3733359498	-0.079611
C	-0.0141607107	-2.7052509952	-0.2024660252	-0.081125
C	-0.0907562113	-1.8649898461	 1.0243885027	 0.007345
C	 0.8738108123	-0.6584114683	 1.2034272211	-0.118947
C	-0.2176614792	-0.1259867803	 2.1449307756	-0.185229
N	-1.052565754	-0.6315426189	 0.9578941654	-0.193366
H	 0.1455323318	 2.079897407	 0.8380056875	 0.118664
H	 0.777852102	 1.8607677764	-0.7890537909	 0.116276
H	-0.9662514042	 1.8236883982	-0.5112173208	 0.130581
H	-0.7040036269	-0.1863355805	-1.9560558939	 0.117418
H	 1.039962708	-0.2256951409	-1.8558862704	 0.108803
H	 0.1469771211	-2.6151585058	-2.3208196633	 0.092396
H	-0.0538975097	-3.785076846	-0.1045471788	 0.090376
H	-0.2766306614	-2.4529758845	 1.9261175301	 0.065999
H	 1.9617969796	-0.6852215756	 1.3424412861	 0.057232
H	-0.4032995447	-0.6920529381	 3.0618204035	 0.096335
H	-0.3008981548	 0.941549991	 2.3370954239	 0.099563
119.783	185.946	257.871	363.0245	395.7884	466.1018	485.0033	531.1287	582.8295	641.5671	677.2606	735.3292	778.164	796.664	870.4142	906.1349	922.4351	925.8331	956.5484	986.6515	1004.8103	1039.0092	1063.2565	1081.7438	1100.9783	1126.4546	1152.4384	1178.5883	1191.7296	1211.9652	1220.8964	1228.837	1249.2723	1292.9595	1372.3937	1393.4071	1410.6789	1421.8582	1456.3967	1488.4756	1497.7677	1550.1673	1727.0016	3000.3367	3020.8468	3024.0346	3039.5505	3067.136	3080.8777	3095.8586	3133.7227	3156.7407	3165.792	3190.8275
CC12CC=CC3C1CN23	C[C@@]12CC=C[C@H]3[C@@H]1CN23	
InChI=1S/C8H11N/c1-8-4-2-3-7-6(8)5-9(7)8/h2-3,6-7H,4-5H2,1H3	InChI=1S/C8H11N/c1-8-4-2-3-7-6(8)5-9(7)8/h2-3,6-7H,4-5H2,1H3/t6-,7-,8+/m0/s1
