15
gdb 54497	2.67564	1.64788	1.1237	1.4036	67.43	-0.2555	-0.0005	0.255	1034.0934	0.112927	-453.953468	-453.945575	-453.944631	-453.986057	29.832	
N	 0.0657930777	 1.1643273909	-0.549801865	-0.548125
C	 0.0369663567	 0.0173402384	 0.174039803	 0.323431
O	 0.9503325008	-0.3911914488	 0.8688509433	-0.382116
C	-1.24824659	-0.7304281931	 0.0403284574	 0.088576
C	-1.7531108831	-1.6721597303	 1.147577912	-0.331963
C	-1.5100309484	-2.2148131686	-0.1980394683	 0.051967
O	-2.628969192	-1.898131208	-1.0751494819	-0.269
C	-2.333341599	-0.5450572118	-0.9620084299	 0.411183
N	-2.7689029995	 0.450975554	-1.5893861093	-0.58285
H	 0.8851389137	 1.7462629096	-0.4950085906	 0.262914
H	-0.743526099	 1.4682655231	-1.0733463557	 0.286946
H	-0.9760436689	-1.8657369283	 1.8803550686	 0.164668
H	-2.7675868023	-1.5727272104	 1.5189170184	 0.137852
H	-0.8368959585	-3.0005061684	-0.5094191005	 0.14741
H	-3.4810071883	 0.1966597916	-2.2743111316	 0.239107
75.447	151.7782	191.2102	213.8222	351.2486	370.5714	405.678	467.9346	562.3649	620.0326	631.3698	683.5944	733.5801	778.2358	852.4956	856.7929	891.0188	933.983	959.101	1017.3436	1033.4955	1047.3398	1088.6565	1124.3087	1179.55	1230.7367	1291.0761	1334.6411	1425.2273	1473.5253	1629.337	1789.5596	1821.9873	3131.6704	3231.3902	3236.8609	3493.8112	3549.7038	3708.5509
NC(=O)C12CC1OC2=N	NC(=O)[C@]12C[C@H]1O[C]2[NH]	
InChI=1S/C5H6N2O2/c6-3(8)5-1-2(5)9-4(5)7/h2,7H,1H2,(H2,6,8)	InChI=1S/C5H6N2O2/c6-3(8)5-1-2(5)9-4(5)7/h2,7H,1H2,(H2,6,8)/t2-,5+/m1/s1
