16
gdb 125755	4.89693	0.82691	0.77201	2.4064	73.76	-0.2515	-0.0397	0.2118	1466.1699	0.122562	-437.900488	-437.891738	-437.890794	-437.935539	30.359	
C	 0.0327690284	 1.5553582145	 0.1014699631	-0.494443
C	-0.0161696905	 0.0614211596	 0.0887701944	 0.39846
N	-0.2169309241	-0.5816860167	-1.0378046436	-0.197573
O	-0.20336308	-1.9388053936	-0.7092470784	-0.216753
C	 0.0077522654	-2.0712101416	 0.6139884453	 0.423298
C	 0.0125310888	-3.4608914787	 1.1521813823	-0.38886
C	-1.4002035256	-4.036675118	 1.2661971504	 0.158797
O	-1.7980693517	-4.6412714364	 2.2240733646	-0.223889
C	 0.1310129141	-0.843229328	 1.1824323841	-0.418773
H	 0.998942295	 1.911468037	 0.4732954904	 0.140085
H	-0.1188318956	 1.9436296174	-0.9072523407	 0.152777
H	-0.7426355802	 1.9661953041	 0.7560864425	 0.140538
H	 0.5712782021	-4.1117631988	 0.4659179608	 0.154715
H	 0.4877270584	-3.5036135114	 2.1337432027	 0.144938
H	-2.0394264734	-3.8578243895	 0.3748998372	 0.104377
H	 0.303427569	-0.6106369899	 2.2203774348	 0.122305
34.5668	64.4285	120.5787	134.4362	233.8015	264.965	371.168	406.7178	442.0102	612.6136	663.8185	701.1241	738.0007	811.7402	817.2711	931.0052	982.7936	1014.6535	1031.8694	1045.6262	1048.2194	1067.409	1152.7313	1186.6008	1284.1366	1307.5207	1406.5007	1418.5761	1444.2403	1450.3134	1480.9352	1482.3015	1532.0498	1647.4364	1840.5715	2906.6018	3030.6617	3044.1412	3100.7873	3128.4488	3141.7894	3273.1533
CC1=NOC(CC=O)=C1	Cc1noc(CC=O)c1	
InChI=1S/C6H7NO2/c1-5-4-6(2-3-8)9-7-5/h3-4H,2H2,1H3	InChI=1S/C6H7NO2/c1-5-4-6(2-3-8)9-7-5/h3-4H,2H2,1H3
