19
gdb 65893	3.59392	0.75793	0.6985	3.9577	89.11	-0.2606	-0.0575	0.203	1654.1309	0.157365	-385.863968	-385.854207	-385.853263	-385.902135	34.322	
C	-0.0697192699	 1.5523314057	-0.0044619361	-0.443974
C	-0.0242372616	 0.0173260986	-0.0028219318	 0.133247
C	 1.1383994918	-0.5535830982	-0.8977512046	-0.245122
C	 2.0140472452	-0.7175125607	 0.3713505029	-0.216248
C	 0.7414941221	-0.5634960148	 1.2438228291	-0.245133
C	-1.3340002686	-0.5530320208	-0.2491605796	 0.058405
C	-2.4125749172	-1.0623837825	-0.4523511181	 0.034541
C	-3.7106783837	-1.6303552461	-0.697648222	 0.012597
O	-3.9513499798	-2.8167988395	-0.7212550796	-0.233255
H	 0.9270706558	 1.9639714847	 0.1823917973	 0.119379
H	-0.4204358271	 1.9301635896	-0.9694516731	 0.12765
H	-0.7439208192	 1.9224827836	 0.7736231042	 0.127712
H	 0.8671870934	-1.5113817029	-1.3453510383	 0.121419
H	 1.496239375	 0.116157144	-1.6833628703	 0.107472
H	 2.5630643648	-1.6555202933	 0.4686799875	 0.108992
H	 2.7191101941	 0.106403843	 0.505767132	 0.109002
H	 0.7932626969	 0.0983971675	 2.1115624065	 0.107391
H	 0.3294053676	-1.524850322	 1.5556388073	 0.121503
H	-4.5088057394	-0.879224936	-0.8707808833	 0.094424
2.9835	67.7465	100.7988	138.5662	205.6238	250.6541	266.3549	321.2009	337.2556	440.5218	548.4215	553.9987	662.7248	711.7289	795.2841	850.84	880.1051	902.2366	927.7888	949.8992	991.8695	1022.2876	1048.4388	1075.4272	1153.4817	1172.6915	1214.3745	1233.2272	1258.6689	1273.1567	1276.5491	1318.5901	1408.6153	1423.2355	1474.3055	1484.1208	1491.7522	1498.4503	1505.8557	1763.0074	2315.6748	2911.4258	3036.6942	3066.6916	3067.3509	3074.3686	3110.4652	3112.3338	3113.7067	3126.8823	3136.9541
CC1(CCC1)C#CC=O	CC1(CCC1)C#CC=O	
InChI=1S/C8H10O/c1-8(4-2-5-8)6-3-7-9/h7H,2,4-5H2,1H3	InChI=1S/C8H10O/c1-8(4-2-5-8)6-3-7-9/h7H,2,4-5H2,1H3
