18
gdb 98860	3.39098	1.0124	0.92316	3.7503	69.51	-0.2421	-0.0422	0.1999	1307.915	0.146559	-476.198671	-476.189574	-476.18863	-476.233316	33.186	
O	 0.3415304992	 1.3447825471	 0.3648238112	-0.417362
C	 0.0252437471	-0.0030065981	 0.5206682244	-0.136668
C	-1.1346661191	-0.4192958827	-0.3626435352	 0.401138
O	-1.6713555129	 0.4097443152	-1.0734146252	-0.348778
C	-1.5497849519	-1.8731060697	-0.3849713837	-0.166189
N	-3.005384246	-2.1063602358	-0.4100413377	-0.297478
C	-2.8933927044	-3.0986169751	-1.5011608381	-0.199127
C	-1.4688040703	-2.5652322578	-1.8130851997	 0.145739
O	-1.3415267925	-1.7105559293	-2.9049127285	-0.424095
H	-0.2935443392	 1.6805296213	-0.2880356757	 0.296578
H	 0.8845641492	-0.6530894857	 0.2779819634	 0.121515
H	-0.2444420579	-0.2381026624	 1.5655368681	 0.117306
H	-0.9947221042	-2.4447994771	 0.3727524271	 0.069571
H	-3.4111167688	-2.4305296582	 0.4597960644	 0.224979
H	-2.8886528874	-4.1491116017	-1.1785341736	 0.09449
H	-3.6285373791	-2.9729597406	-2.3029403032	 0.114012
H	-0.6877401452	-3.3213996503	-1.9065290188	 0.101134
H	-1.8553726167	-0.9102446292	-2.7210999492	 0.303235
45.6245	83.7768	120.3124	194.2029	219.3134	319.2873	358.2625	395.3018	416.8257	435.7742	486.6334	562.9403	656.5532	737.6018	808.7412	832.4485	916.5959	945.224	983.4349	1013.0034	1033.9838	1065.1562	1107.1589	1134.7915	1144.7943	1156.5644	1194.6592	1239.8524	1253.2698	1294.292	1313.2656	1340.6942	1371.3084	1411.3337	1448.848	1458.2049	1484.3572	1513.3653	1777.8868	2957.1417	2970.1412	2994.5271	3003.1275	3070.8111	3103.5122	3544.1515	3686.9055	3726.2018
OCC(=O)C1NCC1O	OCC(=O)[C@H]1NC[C@H]1O	
InChI=1S/C5H9NO3/c7-2-4(9)5-3(8)1-6-5/h3,5-8H,1-2H2	InChI=1S/C5H9NO3/c7-2-4(9)5-3(8)1-6-5/h3,5-8H,1-2H2/t3-,5+/m1/s1
