18
gdb 35289	3.47577	0.91689	0.82317	3.6987	77.63	-0.2421	0.0134	0.2555	1412.5568	0.148163	-398.075971	-398.067297	-398.066353	-398.110409	31.514	
N	-0.2085357178	-1.1239429209	 0.1742713745	-0.335019
C	-0.0698706868	 0.0235129705	 0.2036350369	 0.329844
C	 0.0845401098	 1.4593416792	 0.2020199313	-0.203134
N	 0.8827732806	 2.0436074496	 1.3000366085	-0.310291
C	 1.4028771471	 2.1161816045	-0.0662788333	 0.003388
C	 2.6553495234	 1.3276907114	-0.3634283354	-0.167002
N	 3.8270375815	 2.1419874453	-0.0656808153	-0.076727
C	 4.333152185	 2.0569554253	 1.3043095591	-0.216564
C	 5.0666635159	 1.4114375582	 0.1817438753	-0.223551
H	-0.8043650855	 1.9880954353	-0.1312108232	 0.134144
H	 0.4674038843	 2.9260010711	 1.5868194423	 0.247763
H	 1.3461118172	 3.075300131	-0.5772836245	 0.110575
H	 2.6314828743	 0.3829320508	 0.2043978268	 0.110221
H	 2.6771922507	 1.073598226	-1.4302572396	 0.115682
H	 4.6919773099	 2.9895507115	 1.7298418407	 0.115899
H	 3.8048844827	 1.4093746209	 1.9999948883	 0.129828
H	 5.0370211353	 0.3245062257	 0.1270784721	 0.115926
H	 5.9671821824	 1.8630720545	-0.2239904043	 0.119019
53.954	81.6717	94.9928	191.4076	232.7544	336.0961	358.5007	386.0181	480.0355	572.5276	613.7128	769.1932	805.9213	830.6328	844.8773	894.3003	912.4708	945.7172	1007.7667	1009.9686	1038.57	1059.9234	1112.0443	1119.5697	1129.9211	1168.6728	1174.896	1204.2036	1230.2885	1249.0177	1298.1011	1321.6007	1358.4279	1408.0928	1466.6226	1480.6386	1494.0063	1523.2535	2359.473	2973.0215	3054.5158	3099.2826	3109.4637	3134.5197	3150.4921	3183.3593	3199.2702	3512.1511
N#CC1NC1CN1CC1	N#C[C@H]1N[C@H]1CN1CC1	
InChI=1S/C6H9N3/c7-3-5-6(8-5)4-9-1-2-9/h5-6,8H,1-2,4H2	InChI=1S/C6H9N3/c7-3-5-6(8-5)4-9-1-2-9/h5-6,8H,1-2,4H2/t5-,6+/m1/s1
