16
gdb 27839	1.9646	1.80388	0.94208	5.7812	78.64	-0.1871	0.0016	0.1886	1178.0531	0.126829	-434.147516	-434.139358	-434.138414	-434.179698	32.357	
N	 0.0388647982	 1.3956552384	 0.1721945146	-0.582086
C	-0.0397477439	 0.015920581	 0.0461702408	 0.461364
C	-1.2156156756	-0.683551315	-0.0104400273	-0.329423
C	-1.165123053	-2.1086151378	-0.0618191869	 0.413997
N	-2.3617561582	-2.7943874259	-0.1688719002	-0.585971
C	 0.0434651564	-2.7727987398	-0.0654591185	-0.389255
C	 1.2895239485	-2.0730549834	-0.0138172957	 0.433282
O	 2.4210394922	-2.5362364341	 0.0024090136	-0.423997
N	 1.1419417559	-0.6556264612	 0.0382351653	-0.427245
H	 0.816137548	 1.8251399273	-0.3112984512	 0.255508
H	-0.8273641589	 1.8732378904	-0.0298744718	 0.259261
H	-2.1615257369	-0.1581696866	-0.0434479932	 0.075907
H	-3.1749959774	-2.3363691422	 0.2123975011	 0.249396
H	-2.3254614187	-3.7785875745	 0.0478898065	 0.254517
H	 0.0935843992	-3.8539959566	-0.1015667889	 0.086576
H	 2.0153103343	-0.1602960099	 0.1499192316	 0.24817
164.2466	193.953	208.2583	278.0429	313.9663	349.1835	374.4175	497.4691	521.6026	523.8646	551.9904	587.0226	596.3814	628.6928	671.7506	693.7768	735.9646	752.3899	817.6991	946.7604	1005.6447	1047.4196	1115.9665	1129.7072	1222.3105	1230.6508	1305.1249	1341.8384	1479.8571	1520.875	1600.3832	1648.2163	1661.0245	1681.6172	1777.0523	3202.3453	3205.3558	3557.4493	3579.5491	3609.1194	3658.2404	3684.3424
NC1=CC(N)=CC(=O)N1	Nc1cc(N)cc(=O)[nH]1	
InChI=1S/C5H7N3O/c6-3-1-4(7)8-5(9)2-3/h1-2H,(H5,6,7,8,9)	InChI=1S/C5H7N3O/c6-3-1-4(7)8-5(9)2-3/h1-2H,(H5,6,7,8,9)
