23
gdb 100868	2.31288	1.01781	0.74481	0.9924	88.19	-0.2557	0.0527	0.3084	1580.8545	0.20238	-388.259825	-388.248378	-388.247434	-388.296493	41.525	
C	 0.0062728449	 1.5934605501	-0.0368618169	-0.390079
C	-0.0101912917	 0.0650852394	 0.0381662034	-0.184508
C	-1.4337162641	-0.5454268227	-0.0041527588	-0.165865
C	-2.1179031413	-0.1397021004	-1.2343810739	 0.334674
C	-2.6479577038	 0.1945512287	-2.2615346746	-0.468865
C	-1.4363176696	-2.0944669789	 0.1561676143	 0.036074
C	-0.7082349988	-2.5599664081	 1.4245033394	-0.415546
C	-2.8702461579	-2.6338543008	 0.1466002327	-0.092019
O	-2.8077094992	-4.0546864253	 0.1572869666	-0.423239
H	 1.0321107513	 1.9716798391	 0.0083987978	 0.111316
H	-0.4479031167	 1.9508724546	-0.9648977095	 0.132407
H	-0.5480229069	 2.0357235684	 0.7988385022	 0.111498
H	 0.5754758303	-0.3568081227	-0.7876690754	 0.104167
H	 0.4741781129	-0.2532267707	 0.9654946956	 0.103286
H	-1.9947145106	-0.1266604657	 0.8464884363	 0.096922
H	-3.1280918064	 0.4910279697	-3.161048639	 0.192694
H	-0.931730309	-2.5230525137	-0.7194635098	 0.090321
H	-1.0863280189	-2.0337442425	 2.3102286347	 0.105151
H	-0.8804856396	-3.6284950769	 1.5683098037	 0.138407
H	 0.3703805871	-2.3955140934	 1.3693226037	 0.115359
H	-3.4082297522	-2.2550335617	 1.0331508534	 0.077655
H	-3.3976792072	-2.2698377576	-0.7442866029	 0.103645
H	-3.7069679126	-4.3931155488	 0.1332810671	 0.286544
52.8682	86.4046	111.541	148.9192	172.0733	190.1314	233.0924	243.5058	262.8109	304.2359	337.4007	353.0773	414.7714	460.2093	541.7699	590.8364	623.2718	630.6408	768.7133	847.9084	870.4388	932.6813	948.5118	964.5365	1036.3359	1060.2592	1071.7246	1112.7451	1133.5297	1139.8859	1169.2186	1233.3109	1264.3265	1282.5424	1293.5677	1336.2964	1351.2728	1363.3299	1376.2382	1406.6676	1413.7401	1458.0328	1486.5689	1495.3354	1497.4864	1508.6449	1512.2423	1523.7452	2225.3129	2951.465	2978.9078	3024.967	3032.315	3034.1846	3037.8998	3041.2957	3086.2127	3100.609	3107.3444	3121.6896	3135.1453	3503.1321	3836.7761
CCC(C#C)C(C)CO	CC[C@@H](C#C)[C@@H](C)CO	
InChI=1S/C8H14O/c1-4-8(5-2)7(3)6-9/h1,7-9H,5-6H2,2-3H3	InChI=1S/C8H14O/c1-4-8(5-2)7(3)6-9/h1,7-9H,5-6H2,2-3H3/t7-,8+/m0/s1
