23
gdb 104074	3.3779	1.01737	0.9791	0.8347	88.13	-0.2276	0.0326	0.2602	1379.7662	0.204106	-388.306943	-388.29699	-388.296046	-388.341354	37.82	
C	-0.2589625733	 1.6326508004	-0.3079442716	-0.247357
O	-0.2152918891	 0.2428221578	-0.0789192805	-0.289375
C	 0.6652393345	-0.5136127308	-0.9082082194	 0.423107
C	 0.2998423923	-0.3884620327	-2.392908228	-0.439937
C	 2.1735648956	-0.1703199908	-0.6806409207	-0.310836
C	 2.8343750084	-1.5224825837	-0.6176772848	-0.164554
C	 1.957101444	-2.5206657091	-0.489416569	 0.335922
C	 2.2544764679	-3.9803589528	-0.3558302002	-0.494105
C	 0.5424069969	-1.9902389283	-0.450294405	-0.355244
H	 0.7351810971	 2.0995420646	-0.2468413888	 0.103599
H	-0.7008013516	 1.8891956954	-1.2810410545	 0.1055
H	-0.8883110903	 2.0596194195	 0.4774558028	 0.123654
H	 0.4778962591	 0.6199720498	-2.7780743209	 0.111486
H	 0.9142295141	-1.0779985821	-2.9800439971	 0.122029
H	-0.7534358559	-0.6416480729	-2.5495887627	 0.117425
H	 2.583669034	 0.4728030225	-1.4686947015	 0.09344
H	 2.2934759201	 0.372916567	 0.2669046735	 0.108969
H	 3.9124632	-1.6477145044	-0.6399241327	 0.080417
H	 3.3293337446	-4.1785358673	-0.3926936489	 0.120971
H	 1.8674432523	-4.3788004244	 0.5910490379	 0.125244
H	 1.7722455801	-4.5593411024	-1.1540254675	 0.12264
H	 0.1338935187	-2.0198125201	 0.5681225989	 0.114542
H	-0.1476952894	-2.5627677352	-1.0825830794	 0.092464
70.2799	111.2245	174.3097	194.829	223.9655	244.3264	295.221	308.2668	346.3181	360.0268	428.0089	445.8128	472.5873	589.7516	643.3815	766.0793	824.271	877.1411	906.1465	915.1215	934.0507	964.7762	991.9906	1035.8172	1039.9199	1102.4167	1115.0366	1142.4388	1172.1746	1184.0634	1195.5454	1204.9345	1240.6563	1275.0443	1294.1007	1331.5858	1352.4967	1397.0281	1414.7697	1475.4232	1477.4809	1479.1542	1481.1111	1489.3712	1489.758	1494.5916	1507.5915	1512.9102	1725.9356	2987.5829	3009.7307	3013.8945	3020.3426	3033.324	3039.415	3045.9405	3051.2474	3059.6862	3105.0359	3107.8944	3109.1621	3112.1264	3177.5005
COC1(C)CC=C(C)C1	CO[C@@]1(C)CC=C(C)C1	
InChI=1S/C8H14O/c1-7-4-5-8(2,6-7)9-3/h4H,5-6H2,1-3H3	InChI=1S/C8H14O/c1-7-4-5-8(2,6-7)9-3/h4H,5-6H2,1-3H3/t8-/m0/s1
