20
gdb 71134	2.75211	1.81964	1.53861	1.8927	76.23	-0.218	0.0672	0.2852	947.3807	0.174467	-403.149489	-403.142294	-403.141349	-403.180564	30.18	
O	 0.0004477294	 1.4067881426	 0.0524412299	-0.494613
C	 0.0103848793	-0.0071568753	 0.0100512087	 0.372419
C	-1.4183817214	-0.5447963238	 0.1984941889	-0.248645
C	-1.1580551404	-1.9691456882	 0.6484071468	-0.046021
C	-0.0298935891	-2.6737569905	-0.0180005346	-0.008364
C	 0.6416007583	-2.1040689487	-1.2575164347	-0.245475
C	 0.5815462495	-0.5523653118	-1.3058997296	-0.26375
N	 0.1780366352	-2.0457664675	 1.3049261962	-0.124686
C	 0.7504552649	-0.6908558019	 1.1854650495	-0.209028
H	 0.8865558816	 1.7186692827	-0.1601712125	 0.273927
H	-1.9280370108	 0.0248496538	 0.9826507132	 0.112576
H	-2.0150078404	-0.4731559765	-0.7160078685	 0.100914
H	-1.9582815344	-2.5337082327	 1.1178109351	 0.085601
H	-0.017379023	-3.7606175929	 0.035927646	 0.085579
H	 1.6826534342	-2.4466745675	-1.2748844419	 0.110535
H	 0.1703268727	-2.5387434237	-2.1457139069	 0.109921
H	-0.037385359	-0.2004297323	-2.1373203764	 0.105664
H	 1.587070839	-0.1405096444	-1.4607814348	 0.084637
H	 1.8353522518	-0.7438003558	 1.0352358423	 0.089997
H	 0.5595587925	-0.1464886057	 2.1163134634	 0.10881
141.9067	257.0472	297.7765	308.1699	416.7667	428.5944	430.5986	470.7412	571.8363	662.1001	679.3559	756.8213	772.6938	819.4318	874.2903	887.6306	935.7293	950.1243	979.2652	996.309	1042.2377	1049.6149	1078.4019	1102.8923	1120.2622	1149.9557	1164.7983	1196.8096	1219.6055	1253.7859	1274.1662	1283.7319	1288.7922	1300.9418	1341.3571	1348.5997	1369.4477	1407.179	1434.6163	1485.3229	1491.6901	1497.2202	1518.5496	3016.9242	3031.0625	3037.7946	3049.4399	3057.9913	3078.368	3083.0167	3093.5242	3121.2068	3150.3136	3805.5013
OC12CC3C(CC1)N3C2	O[C@@]12C[C@H]3[C@@H](CC1)N3C2	
InChI=1S/C7H11NO/c9-7-2-1-5-6(3-7)8(5)4-7/h5-6,9H,1-4H2	InChI=1S/C7H11NO/c9-7-2-1-5-6(3-7)8(5)4-7/h5-6,9H,1-4H2/t5-,6+,7-,8?/m1/s1
