21
gdb 118530	1.55227	1.31549	0.79291	2.1013	80.99	-0.2479	0.0555	0.3034	1505.6237	0.179054	-424.183901	-424.172963	-424.172019	-424.221102	38.755	
C	-0.1240248929	 1.4752426264	 0.0868123898	-0.386615
C	-0.0351130782	-0.0387053658	 0.0040013535	-0.04187
O	-1.3499666071	-0.5678996679	 0.0922038956	-0.264595
C	-1.4347722139	-1.9898121671	 0.0526863902	 0.090058
C	-1.4870282781	-2.5084880063	 1.4947176198	-0.071685
O	-2.5433927818	-1.9006090779	 2.2110326549	-0.420191
C	-2.706865412	-2.3513200888	-0.734160152	-0.35634
C	-2.6593142854	-1.9087252808	-2.1208063166	 0.305506
C	-2.6013514034	-1.5556929874	-3.2682042142	-0.446962
H	 0.8716566075	 1.9192103228	-0.0047287812	 0.117987
H	-0.755317586	 1.8633345113	-0.7171071453	 0.134984
H	-0.554517986	 1.7874592357	 1.0428989503	 0.122621
H	 0.4206046357	-0.3480457437	-0.9489020735	 0.102087
H	 0.5995156861	-0.4312706785	 0.8141586482	 0.090309
H	-0.5598036179	-2.409300314	-0.46356426	 0.079064
H	-1.6600213926	-3.5900281846	 1.5113981943	 0.106368
H	-0.5144854791	-2.3219243952	 1.9787632875	 0.086812
H	-2.4666089444	-0.9560880699	 2.0224759094	 0.287296
H	-2.8471780791	-3.4387329004	-0.6944561596	 0.127629
H	-3.5638141163	-1.9077620265	-0.2159248639	 0.145412
H	-2.564674685	-1.2399006013	-4.281031577	 0.192122
44.3679	58.7495	77.9001	104.4424	160.1486	198.3903	248.2416	265.8007	320.568	346.4056	381.8433	437.3393	498.72	546.1618	612.9457	638.467	667.2888	820.0645	829.2076	893.1838	910.9895	956.0806	991.4113	1054.8902	1093.6798	1102.5023	1123.4617	1150.0035	1186.5556	1224.6686	1241.9562	1284.6845	1299.1868	1355.634	1364.3282	1393.3305	1404.1229	1428.3272	1443.9879	1463.9227	1483.8718	1499.8407	1505.4676	1527.2367	2240.7824	2968.6757	2975.4836	3007.5034	3013.3097	3033.9731	3045.4043	3070.2247	3080.4313	3118.1704	3125.2707	3507.5178	3768.7053
CCOC(CO)CC#C	CCO[C@@H](CO)CC#C	
InChI=1S/C7H12O2/c1-3-5-7(6-8)9-4-2/h1,7-8H,4-6H2,2H3	InChI=1S/C7H12O2/c1-3-5-7(6-8)9-4-2/h1,7-8H,4-6H2,2H3/t7-/m1/s1
