19
gdb 68417	2.54201	1.89142	1.45717	2.3442	75.07	-0.2217	0.0681	0.2898	965.5805	0.159467	-422.986672	-422.979088	-422.978144	-423.018133	31.463	
O	-0.1093101967	 1.3913775612	 0.0289181196	-0.484155
C	 0.0347616494	 0.0126340065	 0.0322464883	 0.286996
C	 0.8673083569	-0.8192388739	-1.0031118111	-0.302903
C	 0.5785937349	-1.9136713921	 0.0559522202	 0.095217
C	 0.7476733401	-0.826547168	 1.1478874201	-0.302897
O	-0.8488328421	-2.0915613511	-0.0240434107	-0.318352
C	-1.2883844622	-0.733527118	-0.0438765998	 0.48271
C	-2.5437278761	-0.3335231652	 0.6525746154	-0.355876
C	-2.4589049542	-0.3283413733	-0.8725140849	-0.355875
H	 0.7631096426	 1.7936763575	 0.0786531076	 0.285924
H	 0.454209112	-0.9632778869	-2.0030894787	 0.10845
H	 1.9188120988	-0.5246675244	-1.0408088588	 0.090314
H	 1.0754520825	-2.8799971422	 0.080301388	 0.087229
H	 1.7883990519	-0.5326304235	 1.3039511251	 0.090313
H	 0.2262853492	-0.9771997615	 2.0948887778	 0.108449
H	-3.1250799676	-1.1222655832	 1.1169981028	 0.119001
H	-2.5604762788	 0.6223978935	 1.1650543366	 0.123228
H	-2.419078934	 0.6310370391	-1.377200202	 0.123227
H	-2.9848722166	-1.1136999044	-1.4038746655	 0.119001
142.5563	219.1306	232.6735	273.9222	381.3572	400.852	461.4689	487.2282	553.4987	553.7547	643.041	724.0864	770.2843	822.6163	847.3942	885.2242	919.3571	925.8266	941.933	980.6713	983.7128	987.2939	1012.7836	1048.9187	1050.9904	1072.7272	1108.4859	1135.5809	1152.7759	1190.9153	1211.7146	1220.1496	1227.6708	1284.51	1329.8936	1342.0631	1433.9835	1442.7277	1466.2041	1498.3023	1518.856	3063.0215	3071.5855	3132.1037	3133.905	3134.9466	3139.0412	3158.6025	3218.1976	3231.7725	3827.8189
OC12CC(C1)OC21CC1	O[C@@]12C[C@@H](C1)OC12CC1	
InChI=1S/C7H10O2/c8-6-3-5(4-6)9-7(6)1-2-7/h5,8H,1-4H2	InChI=1S/C7H10O2/c8-6-3-5(4-6)9-7(6)1-2-7/h5,8H,1-4H2/t5-,6-
