22
gdb 6235	2.42827	1.86246	1.84541	1.2984	77.53	-0.2499	0.0714	0.3213	947.6459	0.197911	-350.207968	-350.198614	-350.19767	-350.240621	36.695	
C	-0.5582693975	 1.4625970652	 0.1261051974	-0.45768
C	-0.0157825644	 0.0386634199	 0.0243259371	 0.296553
C	-1.1082049217	-0.8980111685	-0.5059178571	-0.420864
C	 1.3213087897	-0.151751374	-0.7591371767	-0.256662
C	 1.8086316783	-1.1341719012	 0.3374688152	-0.283627
C	 0.7077438952	-0.5707260771	 1.2850283928	 0.389234
C	 1.2567484734	 0.4482926802	 2.2807502285	-0.451302
O	-0.1075403091	-1.5163543511	 1.9568982163	-0.476194
H	 0.2011031908	 2.1750222156	 0.4613496467	 0.105707
H	-0.9169613926	 1.8019918383	-0.8525154366	 0.110356
H	-1.4039926696	 1.5177119702	 0.8212876332	 0.115849
H	-1.449531844	-0.5497256692	-1.4874193244	 0.099955
H	-0.7528612717	-1.9256860647	-0.6145753344	 0.115067
H	-1.9677728485	-0.9209614654	 0.1696796254	 0.120882
H	 1.2352106096	-0.544384974	-1.7753826583	 0.09431
H	 1.9173580178	 0.765111459	-0.7923204437	 0.092625
H	 1.6048622629	-2.1769707733	 0.084097254	 0.105124
H	 2.8464806338	-1.0466771929	 0.671264048	 0.0856
H	 1.8940314349	 1.1949532084	 1.7980068038	 0.11907
H	 0.4459422077	 0.9666287721	 2.8008253202	 0.123011
H	 1.8733450773	-0.0635132718	 3.0313231106	 0.100792
H	 0.3752135377	-1.8348870658	 2.7269134619	 0.272197
110.5397	204.4415	239.9382	247.5516	250.4901	278.6605	285.1996	326.9458	343.5649	364.9935	400.2632	469.561	494.1094	603.6268	671.0373	753.1409	863.2758	891.2933	900.0858	938.9888	951.9035	961.865	986.2205	1004.1564	1035.3129	1095.6123	1177.9126	1189.1468	1213.1966	1217.8999	1239.4513	1244.7226	1280.8301	1298.1254	1364.2568	1398.005	1401.5694	1419.8193	1474.5196	1480.9636	1481.5311	1490.681	1493.8007	1498.0199	1505.3145	1511.4461	3018.6117	3024.7794	3034.1715	3050.0449	3057.8037	3084.5033	3086.5533	3097.7144	3102.73	3103.8199	3113.9243	3117.7062	3121.9934	3804.7149
CC1(C)CCC1(C)O	CC1(C)CC[C@]1(C)O	
InChI=1S/C7H14O/c1-6(2)4-5-7(6,3)8/h8H,4-5H2,1-3H3	InChI=1S/C7H14O/c1-6(2)4-5-7(6,3)8/h8H,4-5H2,1-3H3/t7-/m0/s1
