27
gdb 58456	2.66593	0.97863	0.96626	0.0602	95.85	-0.2713	0.0776	0.3489	1496.7009	0.250434	-353.565836	-353.554924	-353.55398	-353.601029	42.227	
C	 0.1022568398	 1.4740954746	-0.2047920466	-0.402314
C	 0.0028666274	-0.0323906547	 0.078735004	-0.014893
C	 0.7788687544	-0.4032474117	 1.3515462037	-0.402315
C	-1.452576116	-0.5443881179	 0.093868581	 0.384653
C	-2.3063421547	 0.0715649889	 1.2080725443	-0.459047
C	-2.1889548419	-0.4904166602	-1.2855405547	-0.284764
C	-2.6713345637	-1.9522480915	-1.0746092044	 0.05288
C	-2.6216506323	-2.9120504708	-2.254043227	-0.407132
C	-1.6086782075	-2.1005293912	 0.0491847825	-0.284767
H	 1.1461703031	 1.7716267607	-0.3497038321	 0.108069
H	-0.4511626705	 1.7515938078	-1.1079066967	 0.113502
H	-0.2926119516	 2.0688230602	 0.625879586	 0.113838
H	 0.4914167081	-0.5509683612	-0.7591978237	 0.060902
H	 0.4032175512	 0.1382222783	 2.2263790526	 0.113838
H	 0.7116174201	-1.4747199304	 1.566763263	 0.113501
H	 1.8392189789	-0.151332405	 1.2444214498	 0.108069
H	-2.3751953634	 1.1599604672	 1.1105842384	 0.112431
H	-3.3277489845	-0.3219931055	 1.1773234903	 0.110561
H	-1.9015937247	-0.1542975999	 2.20004716	 0.112431
H	-2.9548903563	 0.2801654749	-1.4141602996	 0.08794
H	-1.4825844087	-0.417386683	-2.1201786474	 0.087727
H	-3.6787863623	-1.9591131132	-0.6448982628	 0.068632
H	-1.623184623	-2.927263721	-2.7064789355	 0.107999
H	-2.8623017201	-3.9360828056	-1.9460229304	 0.111296
H	-3.3353929959	-2.6233705478	-3.0342148093	 0.111296
H	-0.6998674679	-2.5892200676	-0.3198084106	 0.087727
H	-1.9171486479	-2.5992952945	 0.9728054549	 0.08794
79.2311	80.1832	183.8279	220.8093	237.0224	246.7894	249.5786	284.8239	285.4288	306.3955	337.7025	352.5329	436.7326	455.1952	478.967	603.5637	715.3937	834.5294	857.6018	869.3039	903.2383	914.0537	930.4915	932.1985	952.9405	962.1914	967.7995	1044.2115	1082.6819	1098.3109	1121.7722	1136.5936	1172.7449	1195.5717	1209.7987	1226.4448	1237.5962	1283.8154	1290.4713	1312.3068	1355.49	1364.0866	1381.1956	1397.9745	1408.8425	1411.4548	1421.4144	1472.3892	1486.1278	1489.0508	1491.0719	1495.2161	1496.5786	1501.4326	1507.2262	1508.4932	1512.6788	2988.477	3018.7403	3027.6142	3028.6262	3030.7458	3032.742	3037.3841	3039.0126	3083.631	3085.1809	3086.7321	3090.8424	3091.2675	3095.8605	3097.739	3097.953	3101.766	3102.0398
CC(C)C1(C)CC(C)C1	CC(C)[C@@]1(C)C[C@@H](C)C1	
InChI=1S/C9H18/c1-7(2)9(4)5-8(3)6-9/h7-8H,5-6H2,1-4H3	InChI=1S/C9H18/c1-7(2)9(4)5-8(3)6-9/h7-8H,5-6H2,1-4H3/t8-,9+
