21
gdb 121302	4.14229	0.83774	0.72675	1.837	80.46	-0.2455	0.0219	0.2674	1562.9139	0.182856	-424.228504	-424.219284	-424.21834	-424.262994	34.268	
O	 0.1224199418	 1.4211749238	 0.1105145341	-0.419895
C	 0.0722596786	 0.0019029894	 0.0767187532	-0.069982
C	-1.3593249105	-0.5339172447	 0.0059572741	-0.219318
C	-1.4348882094	-2.0563094873	 0.006584327	 0.122842
C	-2.8693724009	-2.5936485536	 0.0873731227	-0.259698
C	-2.8997010948	-4.0646114713	-0.2347685895	-0.068711
C	-1.8705351826	-4.6699064913	-0.8214993691	-0.064865
C	-0.6420182608	-3.9126769189	-1.2425490033	-0.116384
O	-0.8090845391	-2.5090518921	-1.1924947149	-0.265101
H	-0.1963830976	 1.7438754343	-0.7382505238	 0.279992
H	 0.6607544422	-0.4058924098	-0.7559486258	 0.106493
H	 0.5483466899	-0.3308969148	 1.0063445494	 0.10521
H	-1.9309234019	-0.1412765179	 0.8547252099	 0.103351
H	-1.8434167449	-0.1667098201	-0.9093312284	 0.093991
H	-0.8715101331	-2.4494066187	 0.8722088891	 0.06494
H	-3.2696947428	-2.4163373749	 1.093798106	 0.104781
H	-3.5176150211	-2.0350274175	-0.6030034684	 0.110392
H	-3.7895992898	-4.6259748654	 0.0371796786	 0.089712
H	-1.8780954035	-5.7381605853	-1.021038624	 0.090687
H	 0.2218660319	-4.2227005164	-0.6247733377	 0.09588
H	-0.3836307116	-4.1495066776	-2.2819027094	 0.115682
78.6171	86.1662	105.4387	176.7735	224.441	294.1832	323.9076	353.3011	391.719	475.4224	534.2572	555.9939	668.7856	770.3307	806.7302	864.9556	924.0013	939.4747	966.4148	996.7081	1020.7949	1037.6019	1063.4599	1076.3086	1097.2693	1115.5894	1125.3734	1170.8142	1207.5718	1232.5753	1270.0279	1280.4796	1317.8212	1338.1545	1373.3572	1386.0555	1406.8322	1408.3155	1413.8829	1421.7545	1466.7848	1475.4288	1488.3914	1515.7815	1727.9553	2928.4645	2938.9134	3006.8255	3015.3173	3021.1218	3045.6372	3045.9557	3059.2644	3082.754	3152.099	3175.3797	3816.7487
OCCC1CC=CCO1	OCC[C@H]1CC=CCO1	
InChI=1S/C7H12O2/c8-5-4-7-3-1-2-6-9-7/h1-2,7-8H,3-6H2	InChI=1S/C7H12O2/c8-5-4-7-3-1-2-6-9-7/h1-2,7-8H,3-6H2/t7-/m1/s1
