23
gdb 57570	2.52205	1.26808	1.07034	1.6289	84.86	-0.2587	0.0821	0.3409	1263.8682	0.203881	-388.255906	-388.245988	-388.245043	-388.290792	37.715	
C	-0.0827149226	 1.7231698939	-0.0756627535	-0.410009
C	 0.0454325109	 0.1921814578	 0.0618690636	 0.204623
C	 0.8786121602	-0.1551047724	 1.304616594	-0.456214
C	-1.3655969041	-0.4106154206	 0.0954919229	 0.03851
C	-1.7059456655	-1.7321057371	 0.7322058732	-0.271747
C	-2.2430689926	-0.4499297494	 1.3219113202	-0.298576
C	 0.7103296761	-0.3349198441	-1.2107013261	 0.104179
C	 2.1514763642	-0.5475773185	-1.3946741026	-0.200518
O	 1.2618797617	-1.6517345594	-1.2000042791	-0.243124
H	 0.9004681825	 2.197334485	-0.163912069	 0.109333
H	-0.668644072	 1.9956507629	-0.9606851771	 0.109231
H	-0.5888871442	 2.1441191135	 0.7983878549	 0.118409
H	 0.3328762991	 0.0726974954	 2.2240228057	 0.115475
H	 1.1532453335	-1.2123729484	 1.3121153577	 0.138806
H	 1.7995690563	 0.4350881735	 1.3289125704	 0.111368
H	-1.9071832576	-0.2043590035	-0.8262108497	 0.076416
H	-2.3890368972	-2.3921692262	 0.2092292634	 0.109595
H	-0.9325439159	-2.250970697	 1.2860734381	 0.118229
H	-1.8342939149	-0.1234343515	 2.2717806268	 0.110975
H	-3.2962350537	-0.2211716809	 1.1993439799	 0.108489
H	 0.1335657199	-0.1188777346	-2.1142480804	 0.082594
H	 2.5828507474	-0.4664943341	-2.3918504161	 0.111533
H	 2.8456084684	-0.362210414	-0.5779705571	 0.112421
50.485	70.0173	185.0496	209.1889	232.6843	240.3782	257.9374	313.1528	360.1743	384.1505	397.0477	498.636	548.7315	680.385	778.6877	797.7903	831.8494	866.7161	894.3243	933.4988	942.5826	953.5415	962.2284	1009.2327	1048.0384	1058.8865	1078.2743	1086.3475	1104.6425	1146.3517	1155.6234	1175.6557	1191.2102	1198.2742	1209.8439	1242.667	1276.046	1318.3021	1389.5135	1399.3103	1409.3796	1441.5093	1466.525	1486.9645	1491.4527	1502.0392	1506.8484	1517.1121	1529.8916	3027.5482	3046.9769	3067.2841	3087.5747	3093.7087	3105.5001	3109.0939	3113.1189	3127.8885	3134.434	3141.7265	3173.2814	3209.4626	3226.7456
CC(C)(C1CC1)C1CO1	CC(C)(C1CC1)[C@H]1CO1	
InChI=1S/C8H14O/c1-8(2,6-3-4-6)7-5-9-7/h6-7H,3-5H2,1-2H3	InChI=1S/C8H14O/c1-8(2,6-3-4-6)7-5-9-7/h6-7H,3-5H2,1-2H3/t7-/m1/s1
