14
gdb 25237	3.35367	1.6731	1.12452	7.5848	68.93	-0.2375	-0.002	0.2355	989.2376	0.104994	-432.932708	-432.925885	-432.92494	-432.964118	25.828	
O	-0.0339886974	-0.0583397063	 0.0364838518	-0.368959
C	 0.0401184058	 1.1474029761	-0.0024931529	 0.344788
N	-1.0561773937	 2.0188691839	-0.0538195324	-0.35094
C	-0.7406976525	 3.4440272389	 0.0161684359	-0.285606
C	 0.7502160579	 3.3569458285	 0.0098982434	 0.310501
C	 1.2004406156	 2.0707213085	-0.0076705853	 0.148889
N	 2.5728604649	 2.0140305027	-0.0245533036	-0.332263
C	 2.9378296553	 3.2742121593	-0.0196856513	-0.005216
N	 1.8617493699	 4.1462078366	-0.0015939359	-0.384639
H	-1.9836930358	 1.6631110612	 0.1056334645	 0.252981
H	-1.1469268166	 3.9948477053	-0.843672113	 0.130341
H	-1.1400092627	 3.9107768885	 0.9281250291	 0.129408
H	 3.9543111378	 3.6392870285	-0.0265488496	 0.138554
H	 1.9132427515	 5.1514865085	 0.0082747893	 0.27216
103.6356	187.1823	235.835	309.5636	385.8278	515.6083	541.6396	630.3703	648.6073	665.4411	672.9065	780.251	794.1407	813.618	960.9428	1015.433	1051.2756	1065.8796	1102.5383	1142.4723	1178.9315	1274.9713	1294.0951	1369.5528	1392.4781	1418.9168	1470.2511	1503.2279	1527.7351	1601.5596	1837.1957	2996.6196	3020.6706	3252.0231	3659.5287	3666.2455
O=C1NCC2=C1N=CN2	O=C1NCc2c1nc[nH]2	
InChI=1S/C5H5N3O/c9-5-4-3(1-6-5)7-2-8-4/h2H,1H2,(H,6,9)(H,7,8)	InChI=1S/C5H5N3O/c9-5-4-3(1-6-5)7-2-8-4/h2H,1H2,(H,6,9)(H,7,8)
