21
gdb 68568	2.62845	1.83552	1.4761	0.1556	86.63	-0.223	0.0124	0.2354	998.4802	0.185083	-349.977918	-349.970496	-349.969552	-350.008949	31.687	
C	-0.0613401062	 1.5493874923	-0.0191095277	-0.466804
C	 0.0237615787	 0.0256545813	-0.0043419165	 0.263457
C	 0.8253870541	-0.5858564563	-1.1802783747	-0.238316
C	 1.0797223166	-2.0070633548	-0.631371915	-0.11126
C	 1.4206442217	-1.6787123403	 0.8252606495	-0.084716
C	 0.8111618937	-0.546162032	 1.1740632745	-0.090127
C	-0.2490581942	-2.7520925461	-0.6447983478	-0.065961
C	-1.3736927796	-2.0955200472	-0.3549829119	-0.046124
C	-1.3930799529	-0.6210615617	-0.0192857792	-0.271641
H	 0.936546406	 1.9983431881	 0.0260538934	 0.112765
H	-0.553067675	 1.9087175148	-0.9302824464	 0.110153
H	-0.6362314956	 1.9240213178	 0.8361316167	 0.108983
H	 0.2768359405	-0.5856140875	-2.1272369344	 0.088353
H	 1.7686357887	-0.0455362249	-1.312951744	 0.088462
H	 1.8592086869	-2.5591015024	-1.1617167468	 0.059206
H	 1.9807426192	-2.3404592951	 1.4756612616	 0.092159
H	 0.7870853774	-0.1048085571	 2.1647641563	 0.085764
H	-0.2592277117	-3.8161615722	-0.8621624336	 0.082608
H	-2.3293787038	-2.6143391466	-0.338262403	 0.082383
H	-1.8827316105	-0.4704268893	 0.9547633133	 0.099568
H	-2.0250028939	-0.0905560208	-0.747411104	 0.101087
207.8569	238.8134	284.3274	296.1957	338.2629	407.982	433.8651	478.3847	568.1631	604.1273	667.0789	708.5271	760.1168	790.054	856.9067	870.9148	889.6586	914.8745	940.0179	946.7782	956.6534	985.37	991.5903	1014.8091	1029.5326	1094.8252	1123.637	1143.4451	1179.6728	1189.393	1236.7285	1261.7349	1273.1021	1291.9882	1324.6163	1335.7475	1375.2072	1395.1348	1411.4466	1461.4028	1490.2747	1494.2132	1497.996	1661.5419	1700.7429	2988.6291	3012.5746	3020.8311	3040.6094	3077.5806	3084.8376	3091.6215	3096.3635	3144.946	3173.7693	3178.6344	3207.9331
CC12CC(C=C1)C=CC2	C[C@@]12C[C@@H](C=C1)C=CC2	
InChI=1S/C9H12/c1-9-5-2-3-8(7-9)4-6-9/h2-4,6,8H,5,7H2,1H3	InChI=1S/C9H12/c1-9-5-2-3-8(7-9)4-6-9/h2-4,6,8H,5,7H2,1H3/t8-,9+/m1/s1
