16
gdb 5606	3.41635	1.92005	1.32848	2.6846	67.19	-0.2196	0.0174	0.237	912.7328	0.132303	-379.954128	-379.9464	-379.945456	-379.986314	27.969	
C	 0.1635115089	 1.4283968585	 0.0928016349	-0.357591
N	 0.1057736947	-0.0232021085	 0.0474158712	-0.016497
C	 0.1365282585	-0.8072378767	-1.0831581059	-0.12929
C	 0.0272130202	-2.1009742592	-0.6448966556	-0.101847
N	-0.0675336728	-2.1349608409	 0.723580145	-0.304978
C	-0.0256467984	-0.8744963867	 1.1133338627	 0.290807
C	-0.0902606908	-0.4180780643	 2.535818016	-0.184441
O	 1.0721577344	 0.3025256083	 2.9518419414	-0.412545
H	 0.7628375709	 1.7941528789	-0.743797542	 0.140496
H	-0.8367408152	 1.8704485359	 0.0254660237	 0.138955
H	 0.6342517643	 1.7347550719	 1.0275972722	 0.173399
H	 0.2407996898	-0.374403755	-2.0649935862	 0.122628
H	 0.021295705	-3.0047242514	-1.2351777384	 0.106265
H	-0.9237848476	 0.2741451886	 2.6988818973	 0.117324
H	-0.2662011964	-1.3075628469	 3.1520588491	 0.128809
H	 1.8275973346	-0.2824132925	 2.8268481446	 0.288507
91.7534	138.1514	166.0013	207.3505	266.7754	377.0715	393.7071	446.0283	632.9686	665.4239	714.4505	744.7369	778.29	848.1359	931.3217	961.7841	1038.8134	1068.8877	1106.321	1153.7029	1166.9025	1201.7286	1234.1127	1311.4151	1356.2069	1395.0974	1414.9079	1443.5393	1471.565	1494.3207	1501.0817	1515.291	1532.4734	1563.4304	3034.8813	3038.695	3078.4901	3111.5643	3153.8971	3245.325	3271.54	3806.0279
CN1C=CN=C1CO	Cn1ccnc1CO	
InChI=1S/C5H8N2O/c1-7-3-2-6-5(7)4-8/h2-3,8H,4H2,1H3	InChI=1S/C5H8N2O/c1-7-3-2-6-5(7)4-8/h2-3,8H,4H2,1H3
