16
gdb 133787	3.14115	0.85534	0.77373	2.5256	58.64	-0.2759	-0.0485	0.2274	1477.76	0.118081	-569.412293	-569.402601	-569.401657	-569.44899	33.065	
C	-0.0581607016	 1.5837742782	 0.0112215531	-0.388637
C	 0.0196840577	 0.0556142005	 0.0024533017	-0.176138
C	-1.3623981415	-0.5972099643	 0.0115574369	-0.296493
C	-1.318572456	-2.1069481574	 0.0030975857	 0.223793
O	-0.322584644	-2.77888322	-0.0100983242	-0.272055
C	-2.710507203	-2.803611773	 0.0127789569	 0.237421
F	-2.6021301815	-4.122331723	 0.004167269	-0.044669
F	-3.3990548345	-2.4358900216	 1.1057108717	-0.080503
F	-3.4204067806	-2.4234798373	-1.0621000609	-0.080514
H	 0.9417571221	 2.0271247734	 0.0044982813	 0.121593
H	-0.5957258738	 1.9610827372	-0.8657436513	 0.117871
H	-0.5797082811	 1.9517613828	 0.9017152588	 0.117871
H	 0.571555147	-0.2908530019	-0.8778442379	 0.118127
H	 0.5874145506	-0.3000575967	 0.868889513	 0.118108
H	-1.9491063142	-0.2900093874	 0.8886309772	 0.142099
H	-1.9648834358	-0.2807806394	-0.851434081	 0.142127
23.8143	55.8488	90.1351	122.3967	231.1187	246.8125	254.5132	307.8149	364.9922	428.5291	495.0083	572.4781	599.4049	712.5319	749.6119	810.3237	881.9186	904.6741	1025.8089	1051.4889	1103.0499	1128.8234	1178.0674	1233.079	1246.8649	1290.7162	1321.8223	1344.4852	1400.3631	1418.4487	1449.1695	1488.2578	1501.2888	1507.9757	1847.7389	3021.6241	3032.0447	3046.9367	3050.2017	3078.6582	3103.3826	3109.3506
CCCC(=O)C(F)(F)F	CCCC(=O)C(F)(F)F	
InChI=1S/C5H7F3O/c1-2-3-4(9)5(6,7)8/h2-3H2,1H3	InChI=1S/C5H7F3O/c1-2-3-4(9)5(6,7)8/h2-3H2,1H3
