18
gdb 25652	5.40597	0.75082	0.66472	1.8551	98.55	-0.1836	0.0107	0.1943	1707.6178	0.147336	-364.844812	-364.835187	-364.834242	-364.881488	33.834	
C	-0.1260033169	 1.444039312	 0.0388646023	-0.508694
C	-0.0258026536	-0.0064536755	 0.0162311074	 0.172867
C	 0.0689417126	-1.2108875722	-0.0029725939	-0.072505
C	 0.1657926338	-2.6156673447	-0.0249562552	 0.164253
C	 1.2632597743	-3.4604244138	-0.0802508025	-0.260643
C	 0.781512158	-4.7920404098	-0.0779136067	-0.203097
C	-0.5984576376	-4.7487171651	-0.0214125096	 0.295282
C	-1.6120190965	-5.8442665398	 0.005856043	-0.514037
N	-0.9565263858	-3.4268079784	 0.010033595	-0.355841
H	 0.8687617708	 1.9029858978	 0.0618185321	 0.151728
H	-0.6447910132	 1.8289966248	-0.8470675263	 0.145777
H	-0.6709459649	 1.7981448919	 0.921873424	 0.145833
H	 2.2914048608	-3.1365071277	-0.117766548	 0.094714
H	 1.3740715159	-5.6939360735	-0.1135397467	 0.091241
H	-2.2238857586	-5.8195333578	 0.9164135742	 0.128404
H	-2.2982302583	-5.7945961187	-0.8489697443	 0.128344
H	-1.1110980293	-6.814297454	-0.0289250188	 0.138721
H	-1.8981602615	-3.0760801855	 0.052653194	 0.257655
11.0933	85.8847	88.2514	102.5991	213.0171	273.1579	288.8284	354.6907	456.5559	458.9745	493.4262	543.3045	641.1542	667.066	678.2825	786.9084	837.3127	925.221	991.4214	1009.5432	1050.3232	1051.6803	1058.5015	1061.6612	1069.8184	1228.1346	1261.7711	1316.915	1407.1271	1411.6826	1418.1394	1441.5555	1474.1377	1479.2474	1480.1991	1504.8969	1524.8378	1622.3608	2347.2696	3016.3489	3019.6065	3060.3477	3074.0171	3084.8126	3123.6098	3241.6268	3262.5207	3673.0232
CC#CC1=CC=C(C)N1	CC#Cc1ccc(C)[nH]1	
InChI=1S/C8H9N/c1-3-4-8-6-5-7(2)9-8/h5-6,9H,1-2H3	InChI=1S/C8H9N/c1-3-4-8-6-5-7(2)9-8/h5-6,9H,1-2H3
