17
gdb 75130	3.00978	1.2826	0.97551	3.3363	81.96	-0.2368	-0.0458	0.191	1214.7351	0.134379	-384.700828	-384.691914	-384.69097	-384.734953	32.64	
C	-0.1089607535	 1.5494211239	 0.0217219903	-0.491531
C	-0.0222728079	 0.0597105155	-0.0476933477	 0.210797
C	-0.104551552	-0.7526801581	-1.1102772714	-0.154091
C	 0.0638169361	-2.2135358939	-0.7879337182	-0.283344
C	 0.1563338657	-2.2515653931	 0.7609471093	-0.282435
C	 1.2602918279	-3.029596021	 1.2927584906	 0.333123
C	 2.1878278666	-3.6658083627	 1.7156987071	-0.461125
C	 0.2041399137	-0.7480355873	 1.1763353842	 0.326593
O	 0.3698284035	-0.3300656688	 2.2948254381	-0.316861
H	 0.8040344303	 1.9653020295	 0.461105347	 0.147527
H	-0.2586143697	 1.9936245189	-0.9652796131	 0.122172
H	-0.931885147	 1.8584014749	 0.6753488469	 0.143699
H	-0.2632633254	-0.4153686484	-2.1301487298	 0.111381
H	-0.7690706484	-2.8151831009	-1.1684848162	 0.123196
H	 0.9730476438	-2.6155928132	-1.2484403621	 0.137159
H	-0.7849202093	-2.6373379158	 1.1746979582	 0.135491
H	 3.0026583458	-4.2254911194	 2.1030602767	 0.19825
43.3764	112.4997	131.0289	206.9353	240.6277	257.8966	340.9062	404.8491	469.0258	550.3978	564.0577	624.4495	636.2191	671.8518	699.6054	817.3799	839.8961	910.5899	933.5266	1016.2879	1037.494	1045.8572	1069.5323	1084.2734	1167.1552	1207.307	1242.0663	1292.3181	1324.126	1348.1685	1414.8765	1473.7221	1478.7808	1484.8851	1702.098	1819.274	2240.3983	3021.9616	3038.5245	3041.9698	3074.1275	3093.3673	3124.3517	3181.5965	3505.7745
CC1=CCC(C#C)C1=O	CC1=CC[C@@H](C#C)C1=O	
InChI=1S/C8H8O/c1-3-7-5-4-6(2)8(7)9/h1,4,7H,5H2,2H3	InChI=1S/C8H8O/c1-3-7-5-4-6(2)8(7)9/h1,4,7H,5H2,2H3/t7-/m1/s1
