17
gdb 112175	2.43673	1.26109	1.03493	2.7318	64.53	-0.2651	-0.0044	0.2606	1194.2045	0.133454	-496.116562	-496.107081	-496.106137	-496.150949	34.085	
C	-0.2206939432	 1.5842312029	 0.1563861244	-0.460437
C	-0.1141213789	 0.0781891918	-0.0301068932	 0.157601
O	-1.3372689052	-0.5790011823	 0.2270631969	-0.461711
C	 0.5300314329	-0.4960271905	-1.3162286139	 0.104898
C	 1.0855327248	 0.4035724028	-2.4001566048	-0.08418
O	 1.8440004815	-0.3384933378	-3.3336492775	-0.414487
O	 1.6355292106	-1.0622145221	-0.5107553339	-0.27816
C	 1.0941700325	-0.5993803637	 0.6590769469	 0.4261
O	 1.4938164326	-0.754181286	 1.7679787306	-0.332837
H	 0.7160882023	 2.0983871931	-0.0741482162	 0.135517
H	-1.015125473	 1.9863011128	-0.4785710102	 0.138502
H	-0.4668266598	 1.8041786481	 1.200675278	 0.134148
H	-1.5725295361	-0.4196945931	 1.1488086465	 0.294851
H	-0.0576117183	-1.3115211879	-1.7423900849	 0.121303
H	 0.2585605745	 0.859456953	-2.9553169651	 0.125308
H	 1.6791109506	 1.2141324446	-1.9519149619	 0.096092
H	 2.5547571622	-0.7685891258	-2.8440729218	 0.29749
78.1823	108.9138	159.2407	167.794	218.2637	241.9401	294.6182	319.1586	337.5125	399.9676	424.9767	489.3385	629.4164	678.4733	745.3765	769.0092	854.9208	902.697	975.2711	1010.5491	1058.5849	1091.448	1119.819	1148.6797	1176.9218	1212.7035	1228.0723	1296.7084	1347.9778	1377.1159	1405.1387	1409.8958	1433.3107	1487.3129	1490.9874	1495.554	1934.5482	2996.6554	3041.1059	3076.7693	3107.7738	3110.7406	3127.6451	3797.7829	3800.6843
CC1(O)C(CO)OC1=O	C[C@@]1(O)[C@@H](CO)OC1=O	
InChI=1S/C5H8O4/c1-5(8)3(2-6)9-4(5)7/h3,6,8H,2H2,1H3	InChI=1S/C5H8O4/c1-5(8)3(2-6)9-4(5)7/h3,6,8H,2H2,1H3/t3-,5-/m1/s1
