23
gdb 100136	3.4721	0.74562	0.71797	4.4847	87.26	-0.2413	0.0282	0.2694	1690.7247	0.203742	-384.481081	-384.469958	-384.469014	-384.517714	40.43	
C	-0.097510603	 1.4716967005	 0.2298324619	-0.403152
C	 0.0411619227	-0.0241780934	-0.0683253428	-0.190113
C	 0.7735518319	-0.4159952847	-1.3753875156	 0.276388
C	 0.0150153519	 0.1209841684	-2.5994537594	-0.404592
C	 2.221305221	 0.1169483969	-1.370150775	-0.416396
N	 0.7115491859	-1.8978853232	-1.3911607384	-0.316258
C	 1.3735887204	-2.5873841588	-2.4931137689	-0.281346
C	 1.2183595755	-4.0382401598	-2.3463698316	 0.263014
N	 1.1194652275	-5.1822544577	-2.2213487033	-0.301897
H	 0.8733752696	 1.9676607874	 0.3230427045	 0.119447
H	-0.6694243139	 1.9945391885	-0.5425812093	 0.121521
H	-0.627224074	 1.6142388829	 1.1766143401	 0.119893
H	 0.5735733838	-0.4988673805	 0.7680244751	 0.088417
H	-0.9505490295	-0.4886617223	-0.0995879491	 0.111407
H	-0.0537467608	 1.2109393672	-2.5640857512	 0.121065
H	 0.520994913	-0.1299668753	-3.5371614768	 0.110799
H	-0.9969561031	-0.2924506701	-2.6343019182	 0.126407
H	 2.771272695	-0.2540129932	-0.4977572874	 0.109057
H	 2.7678968691	-0.1861626748	-2.2687873601	 0.113042
H	 2.2439435862	 1.2100405491	-1.340579912	 0.121919
H	 1.0781915962	-2.2540931297	-0.5138386923	 0.2236
H	 0.9072761788	-2.2963164651	-3.4404625276	 0.156637
H	 2.4529580257	-2.3821405526	-2.5996495728	 0.13114
42.9563	81.4359	98.8048	112.4263	209.8684	230.6085	247.937	285.6765	307.3131	340.3928	363.5939	388.8912	393.5746	446.4116	498.4713	582.8016	728.8672	749.4659	788.9006	878.1068	920.7301	936.1157	980.7713	992.3239	1013.3429	1030.8255	1067.8454	1076.7672	1125.6521	1206.8913	1226.196	1237.0954	1278.8133	1322.3029	1369.8864	1376.5568	1399.2127	1413.3808	1423.5359	1479.3259	1481.5205	1486.7479	1492.9478	1503.5485	1509.6527	1509.8421	1515.8053	1520.2791	2366.9374	2954.2351	3009.1318	3031.196	3041.7403	3044.9699	3066.326	3069.283	3098.0304	3103.8127	3106.334	3110.115	3115.3429	3126.739	3513.8997
CCC(C)(C)NCC#N	CCC(C)(C)NCC#N	
InChI=1S/C7H14N2/c1-4-7(2,3)9-6-5-8/h9H,4,6H2,1-3H3	InChI=1S/C7H14N2/c1-4-7(2,3)9-6-5-8/h9H,4,6H2,1-3H3
