18
gdb 112958	3.90385	0.91614	0.85868	5.1775	67.92	-0.2459	0.0156	0.2615	1358.8147	0.148075	-476.232022	-476.223138	-476.222193	-476.266618	32.171	
O	 0.5724054255	 1.0221239188	-0.1935472499	-0.412312
C	 0.072118193	-0.2634873136	 0.1410403542	-0.109622
C	-1.4462017927	-0.368224413	 0.0330835467	 0.055635
C	-2.264651892	 0.6912424047	 0.8208267822	-0.277943
C	-2.5947456815	 1.3365596993	-0.5546599829	-0.099253
N	-2.0062067166	 0.1595659458	-1.2481747207	-0.357789
H	-1.292410833	 0.4018756547	-1.9286547694	 0.2383
H	-3.8323286982	-0.0431408794	-1.8118205229	 0.302973
C	-4.0796709399	 1.5270182224	-0.8569461877	 0.423069
O	-4.7258720116	 2.4442707409	-0.4253379585	-0.347285
O	-4.5913532327	 0.5529997682	-1.6219166901	-0.368809
H	 0.4171319794	 1.6143375115	 0.5484386719	 0.293821
H	 0.5312263407	-0.9553028117	-0.5754375555	 0.121668
H	 0.3890030787	-0.5785719996	 1.1467006479	 0.104293
H	-1.7336183081	-1.4097868896	 0.2194746723	 0.087229
H	-3.1336357968	 0.2917027297	 1.3449743973	 0.132767
H	-1.7038731629	 1.322242735	 1.5132825706	 0.104627
H	-2.0743492312	 2.282134866	-0.7247183454	 0.108632
46.5412	85.5556	125.9895	179.9278	202.612	291.4065	325.7897	360.8046	455.9873	598.2898	607.6262	711.5387	756.3471	784.9673	804.4522	874.9179	890.7176	921.8238	989.2267	1001.1315	1017.2517	1053.0467	1074.35	1123.3912	1129.3868	1202.1369	1230.3503	1251.4616	1257.8619	1301.0766	1302.4191	1340.5359	1389.5746	1406.1035	1418.1159	1433.5525	1489.3586	1492.2375	1870.3636	2995.0907	3035.4599	3062.4956	3077.2696	3084.2652	3134.1031	3459.6795	3521.6905	3829.1444
OCC1CC([NH2+]1)C([O-])=O	OC[C@H]1C[C@@H](N1)C(=O)O	
InChI=1S/C5H9NO3/c7-2-3-1-4(6-3)5(8)9/h3-4,6-7H,1-2H2,(H,8,9)	InChI=1S/C5H9NO3/c7-2-3-1-4(6-3)5(8)9/h3-4,6-7H,1-2H2,(H,8,9)/t3-,4-/m1/s1
