20
gdb 61251	3.45574	0.84628	0.77796	4.2814	80.43	-0.2413	0.0357	0.277	1508.6197	0.1703	-399.300464	-399.290452	-399.289508	-399.335906	36.097	
C	 2.7417479225	-0.841057222	 0.1115492679	-0.324179
N	 1.3677296909	-1.249864946	 0.3668405913	-0.089146
C	 1.1268879044	-2.1561588609	 1.4820073545	-0.261391
C	 0.6437615454	-0.7440503682	 1.5318190171	 0.007544
C	 1.2211749575	 0.26848029	 2.5124359475	-0.008817
N	 1.1795048641	 1.6557892302	 2.0483300406	-0.501206
C	 0.450410108	 0.1646468039	 3.8492229905	-0.338893
C	 1.0287279692	 0.9878254147	 4.9082647117	 0.278363
N	 1.4932080223	 1.610897818	 5.7629954894	-0.308683
H	 3.3744180527	-0.7509629647	 1.00832414	 0.107114
H	 3.204889549	-1.5829350422	-0.5461388865	 0.132429
H	 2.7460918714	 0.1188657853	-0.4156095117	 0.123069
H	 0.4413272327	-2.9792113726	 1.2978116445	 0.119782
H	 1.974164002	-2.407916998	 2.1214837266	 0.108476
H	-0.412101811	-0.5616309865	 1.3177879213	 0.08589
H	 2.2685467554	 0.0278927246	 2.718310293	 0.104826
H	 1.8002785476	 1.7775294079	 1.2548227419	 0.238103
H	 0.2449751399	 1.8853630477	 1.7181355351	 0.227308
H	-0.5926812729	 0.4688942753	 3.6958732437	 0.14533
H	 0.428632329	-0.8769060564	 4.1862731816	 0.154078
56.8879	72.4609	110.2456	182.973	218.9151	231.1172	238.7252	328.2549	353.8389	385.3989	396.2915	450.1221	515.8255	600.016	751.6003	823.1171	872.5384	898.1507	909.972	956.8275	987.7935	1034.3841	1071.9649	1115.5449	1126.3356	1134.4066	1150.5473	1159.5977	1180.9656	1203.083	1260.2385	1299.2887	1336.8723	1352.728	1399.4032	1424.3626	1447.5288	1462.3837	1491.2608	1500.1055	1511.9184	1660.9845	2366.4867	2977.5866	3036.5048	3062.6824	3067.4459	3077.7132	3080.0548	3089.8795	3101.4358	3170.2606	3484.979	3572.8704
CN1CC1C(N)CC#N	CN1C[C@H]1[C@@H](N)CC#N	
InChI=1S/C6H11N3/c1-9-4-6(9)5(8)2-3-7/h5-6H,2,4,8H2,1H3	InChI=1S/C6H11N3/c1-9-4-6(9)5(8)2-3-7/h5-6H,2,4,8H2,1H3/t5-,6-,9?/m0/s1
