19
gdb 119919	2.65611	1.02212	0.90318	3.0856	77.3	-0.2576	0.006	0.2636	1357.8363	0.158222	-419.185271	-419.175574	-419.17463	-419.220509	34.8	
C	-0.1580654707	 1.4708851024	-0.0401823348	-0.431404
C	 0.0658627528	-0.0090936023	 0.1705905916	 0.004778
C	 1.4008564147	-0.6627249036	-0.0954506183	-0.180489
C	 2.5200083733	 0.1594154734	-0.4858435008	 0.2976
N	 3.4296839054	 0.8067607888	-0.7894984305	-0.341015
N	 0.8540552575	-0.5685892918	 1.262155098	-0.11693
C	 1.4983733821	 0.283477506	 2.2675517337	-0.161201
C	 0.6534675157	 0.2205377058	 3.5402365624	-0.051522
O	 0.5130348468	-1.104042277	 4.0044148633	-0.418413
H	 0.7619610374	 2.0539662009	 0.0276935374	 0.15332
H	-0.5799448584	 1.6335486848	-1.0365889683	 0.139246
H	-0.873502487	 1.8592709985	 0.6919574104	 0.135849
H	-0.7991628106	-0.6246856694	-0.0718627575	 0.111499
H	 1.4374299064	-1.667922185	-0.508222395	 0.137739
H	 2.486755001	-0.1414867506	 2.4693257116	 0.130163
H	 1.6384139059	 1.3240266738	 1.9480182982	 0.108281
H	 1.1419638893	 0.7963469903	 4.3332771019	 0.111997
H	-0.3278720205	 0.6887103491	 3.3501030544	 0.083655
H	 0.3112348589	-1.6315466642	 3.2207541624	 0.286849
46.4439	102.6766	132.6811	140.6065	168.621	221.3686	276.2226	347.2786	373.917	463.4926	478.6838	520.2138	602.1976	649.5798	715.3799	783.364	839.3347	897.0663	944.0406	978.6285	1039.136	1047.1387	1094.7408	1113.8509	1125.2284	1159.7883	1175.0567	1230.6679	1275.1283	1329.1783	1361.7574	1372.7852	1383.6134	1409.9564	1421.3786	1441.5387	1480.0593	1494.8158	1496.956	1509.3319	2348.5809	2956.2284	3024.6662	3046.5752	3074.3249	3088.8774	3108.7948	3114.1143	3138.3822	3141.7495	3765.3147
CC1C(C#N)N1CCO	C[C@H]1[C@@H](C#N)N1CCO	
InChI=1S/C6H10N2O/c1-5-6(4-7)8(5)2-3-9/h5-6,9H,2-3H2,1H3	InChI=1S/C6H10N2O/c1-5-6(4-7)8(5)2-3-9/h5-6,9H,2-3H2,1H3/t5-,6+,8?/m0/s1
