16
gdb 117741	2.07318	1.21722	1.0057	4.0846	66.6	-0.2821	-0.0619	0.2202	1257.3951	0.120223	-475.015789	-475.005656	-475.004712	-475.051708	34.275	
C	 0.0206575572	 1.3581667583	-0.1054486833	-0.235264
O	-0.0324175371	-0.0550468896	-0.1311579544	-0.259327
C	 0.8605501746	-0.6347779114	-1.0530116042	-0.09396
C	 0.5963262541	-2.144762802	-0.9876275186	 0.113838
O	-0.7688175953	-2.4324275891	-1.185265016	-0.445831
C	 1.3458270321	-2.8902248196	-2.114708608	 0.148323
O	 2.3213750165	-2.4567103468	-2.6582366517	-0.229677
C	 1.0686821868	-2.6974251334	 0.3057091605	 0.258224
N	 1.4446734755	-3.1613976735	 1.2951070599	-0.322284
H	 1.0174408995	 1.714245326	 0.1897729487	 0.124386
H	-0.2302067085	 1.787049094	-1.0865607037	 0.118199
H	-0.7113389179	 1.6936824116	 0.6315065253	 0.141983
H	 0.6597346895	-0.2879057171	-2.077537608	 0.115216
H	 1.9083393563	-0.4145379196	-0.8111473961	 0.131184
H	-1.2554969813	-1.778131045	-0.6638386885	 0.307634
H	 0.8735553382	-3.8575740728	-2.3775969518	 0.127357
61.5649	69.8577	108.3606	131.7583	176.4981	193.4516	229.3883	262.2868	360.2791	370.9629	423.2168	450.0521	499.9026	606.9388	664.587	752.1833	915.4183	979.1712	1007.9332	1061.0062	1146.2273	1154.0978	1173.5891	1190.1144	1229.3989	1263.8412	1374.4047	1394.7252	1415.7357	1479.8427	1487.2727	1497.0677	1516.3207	1848.0794	2349.0114	2949.3768	2990.4694	3000.8478	3047.0134	3053.1535	3131.9509	3754.3886
COCC(O)(C=O)C#N	COC[C@@](O)(C=O)C#N	
InChI=1S/C5H7NO3/c1-9-4-5(8,2-6)3-7/h3,8H,4H2,1H3	InChI=1S/C5H7NO3/c1-9-4-5(8,2-6)3-7/h3,8H,4H2,1H3/t5-/m0/s1
