17
gdb 30493	3.86133	1.1494	0.89124	4.3159	85.57	-0.1874	-0.0228	0.1646	1279.4095	0.136494	-418.040585	-418.031987	-418.031043	-418.073888	32.224	
C	-0.0557767872	 1.4502447095	-0.0130088997	-0.313746
N	 0.0227237891	 0.0021530582	 0.0150047163	-0.334438
C	-1.0502686279	-0.6745883853	 0.0291189002	 0.410223
O	-2.2950739968	-0.0009625346	 0.0164027676	-0.249386
C	-3.4479940457	-0.6890730908	 0.0334289449	 0.084153
C	-3.5235870972	-2.0277698984	 0.061049409	-0.245083
C	-2.2918724552	-2.7888799694	 0.0705641365	 0.349093
N	-2.3806805966	-4.1650000604	 0.1583481238	-0.583508
C	-1.1108242991	-2.1118718538	 0.0490922014	-0.293533
H	 0.957103198	 1.8616334509	-0.0219783338	 0.110894
H	-0.5833510688	 1.8253329467	-0.9019739493	 0.109144
H	-0.5815131861	 1.8593282603	 0.8618646755	 0.109958
H	-4.3088431211	-0.0302916259	 0.0232381483	 0.133072
H	-4.4886363895	-2.517348579	 0.088044821	 0.102284
H	-3.2143745427	-4.5832515703	-0.2249508775	 0.253499
H	-1.5423710324	-4.6784069104	-0.0686608973	 0.256682
H	-0.1555082309	-2.6217297773	 0.0508542231	 0.10069
77.7433	113.2603	167.9726	204.2357	283.9931	345.141	364.8813	404.4712	457.5499	499.8879	544.1073	633.6843	680.3866	715.385	740.0451	770.862	845.6415	853.4074	931.8202	970.1659	1028.7811	1103.9991	1105.9006	1110.2748	1148.1987	1219.7822	1272.3021	1309.8653	1384.3226	1439.3864	1484.5494	1486.6575	1498.3283	1611.7399	1655.1751	1707.2895	1749.3981	2985.91	3029.9359	3094.3243	3198.25	3209.3609	3219.5507	3575.6565	3680.5421
CN=C1OC=CC(N)=C1	C[N]C1=C[C@H](C=CO1)N	
InChI=1S/C6H8N2O/c1-8-6-4-5(7)2-3-9-6/h2-4H,7H2,1H3	InChI=1S/C6H9N2O/c1-8-6-4-5(7)2-3-9-6/h2-5H,7H2,1H3/t5-/m0/s1
