19
gdb 90924	3.20046	1.47597	1.37941	2.4252	75.69	-0.2341	0.0566	0.2906	1009.6672	0.16002	-422.915837	-422.908384	-422.90744	-422.947307	30.631	
O	-0.1261584765	 1.4801120304	-0.0139262126	-0.424423
C	 0.0373145998	 0.0921593335	 0.0264599037	 0.004804
C	 0.4132547328	-0.6472196289	 1.4289033788	-0.354917
C	-0.500751255	-1.7926156388	 0.8820549951	-0.001643
C	-1.9366816954	-2.4430128275	 0.7989908797	-0.003596
C	-2.871811032	-1.5475416809	 1.6134719416	-0.209936
C	-2.3571379933	-0.1937267465	 1.0492553256	-0.243314
C	-1.2461719833	-0.7510887711	 0.124101619	 0.393954
O	-2.0259776153	-1.8328132838	-0.5638397368	-0.377927
H	 0.7175637088	 1.8899062806	-0.2269039451	 0.290115
H	 0.7139473187	-0.2721511216	-0.7556716475	 0.095211
H	 1.4651048174	-0.8937340551	 1.5876853992	 0.102651
H	 0.0332701738	-0.078917694	 2.2773417726	 0.123952
H	 0.0984898525	-2.3591506906	 0.1645118089	 0.094528
H	-2.0812361056	-3.5237229664	 0.7837859084	 0.081332
H	-3.9196773011	-1.7419173118	 1.3760901396	 0.107819
H	-2.7300315161	-1.6590728206	 2.6923452381	 0.09835
H	-3.1003806657	 0.3220312177	 0.4383206851	 0.114354
H	-2.0046889844	 0.5037406955	 1.8098387764	 0.108685
169.7869	183.4417	213.0694	256.6375	370.3128	440.7293	482.3988	514.981	593.3981	645.7779	652.9256	708.8035	804.5548	821.3925	837.6937	852.4729	902.4909	936.3614	950.7899	969.3233	1018.0836	1060.884	1072.3381	1099.4132	1122.6884	1147.6361	1155.4444	1171.9395	1203.17	1227.7309	1237.8544	1247.4451	1260.5234	1287.5873	1309.3148	1333.959	1397.1652	1439.455	1467.8766	1485.0721	1504.1632	3038.8663	3061.9437	3068.5468	3078.6713	3086.0922	3110.8135	3121.525	3133.8993	3155.1194	3828.058
OC1CC2C3CCC12O3	O[C@H]1C[C@H]2[C@H]3CC[C@@]12O3	
InChI=1S/C7H10O2/c8-6-3-4-5-1-2-7(4,6)9-5/h4-6,8H,1-3H2	InChI=1S/C7H10O2/c8-6-3-4-5-1-2-7(4,6)9-5/h4-6,8H,1-3H2/t4-,5+,6-,7-/m0/s1
