17
gdb 53460	3.91649	0.55237	0.49972	2.2003	86.75	-0.248	0.0223	0.2704	2163.7477	0.132889	-384.607785	-384.597494	-384.59655	-384.647394	34.059	
C	-0.0636706685	 1.3890934106	-0.3748733964	-0.495979
C	-0.0500787101	-0.0282807976	-0.0430821516	 0.066732
C	-0.0409578551	-1.1995435127	 0.2297342286	 0.083576
C	-0.0224929906	-2.6252427879	 0.5650206489	-0.500491
C	-1.2938335377	-3.307980585	 0.3154965286	 0.116769
C	-2.3342989503	-3.8743475293	 0.1026232613	 0.08898
C	-3.5800735522	-4.5565054263	-0.1181255266	-0.114814
C	-4.4398123107	-4.2489224397	-1.2786004035	-0.158891
O	-3.6657074053	-5.4402538419	-1.249955383	-0.215446
H	 0.6685965974	 1.6226322395	-1.1554861308	 0.149056
H	-1.0484593261	 1.6996897965	-0.7407245457	 0.150612
H	 0.1745950002	 2.0052999976	 0.4989997917	 0.148665
H	 0.7698185242	-3.1291856403	-0.0064554694	 0.16239
H	 0.2534381789	-2.7530645262	 1.6212133624	 0.158987
H	-4.0650087259	-4.9472341725	 0.7759601168	 0.115769
H	-5.5175251114	-4.380995925	-1.1891337117	 0.118358
H	-4.1121397869	-3.4912958499	-1.9877124396	 0.125728
11.6031	14.5423	50.563	120.5327	144.0291	197.4148	244.0358	307.3823	360.0141	373.7115	441.8835	527.6004	563.7584	735.194	766.8477	834.6041	902.6238	928.5206	994.9638	1053.0555	1054.4208	1083.9159	1141.692	1156.8867	1163.8437	1187.0864	1230.9469	1282.9058	1339.1546	1408.2453	1415.0902	1451.0534	1478.1118	1478.7725	1519.2062	2371.5825	2383.2018	3003.8233	3027.0417	3027.8613	3084.2253	3088.8994	3089.5211	3112.8414	3178.3836	11.5983	14.5379	50.5625	120.5329	144.029	197.4151	244.0361	307.3828	360.0142	373.7121	441.8833	527.6015	563.7584	735.1942	766.8474	834.6044	902.6241	928.5206	994.9644	1053.0557	1054.421	1083.9166	1141.6926	1156.8875	1163.8443	1187.0867	1230.9461	1282.9063	1339.1545	1408.2457	1415.0903	1451.0524	1478.1119	1478.7727	1519.2075	2371.5826	2383.2019	3003.8234	3027.0418	3027.8613	3084.2254	3088.8993	3089.5211	3112.8416	3178.3837
CC#CCC#CC1CO1	CC#CCC#C[C@H]1CO1	
InChI=1S/C8H8O/c1-2-3-4-5-6-8-7-9-8/h8H,4,7H2,1H3	InChI=1S/C8H8O/c1-2-3-4-5-6-8-7-9-8/h8H,4,7H2,1H3/t8-/m0/s1
