16
gdb 47356	2.52843	1.49441	1.21724	4.7219	71.97	-0.2471	0.0175	0.2646	1061.6758	0.124409	-437.859052	-437.850937	-437.849993	-437.892337	30.244	
N	-0.0110315456	 1.2700878058	 0.4957480825	-0.539153
C	 0.0371905873	 0.0977537266	 0.0344733212	 0.47216
O	 1.2058265537	-0.5611852703	-0.1864628502	-0.269409
C	 1.2590894079	-1.7427888086	-0.9972502011	-0.078688
C	 0.0221035941	-2.598293564	-0.8001536017	-0.244014
C	-1.1978661589	-1.7015919028	-1.024593485	-0.059139
O	-1.131044578	-0.5683319666	-0.1450955892	-0.238601
C	-1.3380876057	-1.2791955051	-2.4205521804	 0.347302
C	-1.4464064712	-0.9378373886	-3.5672332909	-0.469988
H	 0.9357385239	 1.6158754298	 0.6385087363	 0.226237
H	 1.3558214048	-1.4473790968	-2.0491045226	 0.129902
H	 2.1713931682	-2.2620507232	-0.6962827462	 0.125557
H	 0.0173270253	-3.4368235004	-1.5011567561	 0.127525
H	-0.0154351465	-2.9919362829	 0.2201313579	 0.126754
H	-2.1118076395	-2.2176797681	-0.7164238515	 0.13124
H	-1.5560577397	-0.6260000749	-4.577125863	 0.212314
61.2446	84.4498	164.3597	215.2305	315.0767	400.1672	441.4439	477.2136	580.8299	595.945	648.2987	683.1583	693.4766	738.6112	785.4674	828.0277	879.7059	919.076	956.3357	994.6163	1055.9084	1100.3073	1104.3537	1162.7061	1238.8362	1251.7687	1294.3866	1329.5185	1375.9134	1390.0085	1439.2263	1470.9465	1514.2945	1760.6092	2237.492	3037.4924	3059.4603	3071.9022	3108.205	3118.1154	3499.3514	3525.6171
N=C1OCCC(O1)C#C	[NH][C]1OCC[C@@H](O1)C#C	
InChI=1S/C6H7NO2/c1-2-5-3-4-8-6(7)9-5/h1,5,7H,3-4H2	InChI=1S/C6H7NO2/c1-2-5-3-4-8-6(7)9-5/h1,5,7H,3-4H2/t5-/m0/s1
