15
gdb 15217	2.5781	2.06916	1.66556	1.3708	69.66	-0.236	-0.0421	0.1939	852.2126	0.11589	-362.597124	-362.58875	-362.587806	-362.629787	29.841	
C	-0.312845269	 1.4390345915	 0.1416691352	-0.326865
N	 0.0336029254	 0.0230256745	 0.0056079991	-0.103642
C	 0.5078087886	-0.515002369	-1.2700980954	-0.105479
C	 0.7649206241	 0.2970725387	-2.493011917	 0.147508
O	 1.0568925242	 1.4685096539	-2.5260305116	-0.261554
C	 1.4260911757	-0.3817855311	-0.0531873342	-0.212233
C	 2.5118832186	 0.556592291	-0.0295673422	 0.382287
C	 3.4403537436	 1.3157374997	 0.0527326881	-0.459389
H	 0.3454433596	 2.1212630835	-0.4009054297	 0.160928
H	-1.3367574187	 1.5699379853	-0.2191564154	 0.126847
H	-0.2928775639	 1.6788513492	 1.2085363169	 0.129061
H	 0.1369037901	-1.5154819072	-1.4875545123	 0.105608
H	 0.6590488724	-0.2921088089	-3.4316452574	 0.08367
H	 1.6320120739	-1.31449152	 0.4698843124	 0.126223
H	 4.2549670753	 1.995350409	 0.1046705533	 0.207029
112.9777	120.6425	149.7704	168.9977	232.8238	275.945	332.6766	393.0917	514.6787	599.9781	632.2221	666.471	690.5925	768.6222	830.1806	868.2816	967.3141	999.8996	1065.6105	1095.2531	1135.8079	1172.0321	1177.0893	1332.5705	1362.7304	1380.9239	1430.4967	1452.3661	1485.7233	1502.6979	1806.2202	2236.6578	2877.8647	3044.3239	3113.4993	3117.1613	3123.5269	3130.4181	3501.838
CN1C(C=O)C1C#C	CN1[C@@H](C=O)[C@H]1C#C	
InChI=1S/C6H7NO/c1-3-5-6(4-8)7(5)2/h1,4-6H,2H3	InChI=1S/C6H7NO/c1-3-5-6(4-8)7(5)2/h1,4-6H,2H3/t5-,6+,7?/m1/s1
