19
gdb 69118	2.35635	1.60536	1.15252	2.7436	76.37	-0.2542	-0.0354	0.2188	1115.6887	0.158292	-423.047379	-423.038804	-423.03786	-423.080366	32.584	
C	-0.0029547502	 1.5132941914	-0.0369375083	-0.483761
C	-0.0636144643	 0.0150250649	 0.1038615634	 0.348911
C	-1.3096815062	-0.7354359077	-0.3509860503	-0.271203
C	-1.1068532388	-2.1819587123	 0.1493027253	-0.224679
C	-0.2365515167	-2.0557699446	 1.4200911053	-0.289695
C	 0.5773124922	-0.800734628	 1.1794131183	 0.250358
O	 1.1426993324	-0.7079242211	-0.1460919971	-0.324874
C	 1.393288933	-0.1922125376	 2.2619789819	 0.085803
O	 1.2840743393	-0.4866201938	 3.4272449414	-0.259879
H	 0.9475990102	 1.9135957912	 0.3204283627	 0.133691
H	-0.1117350418	 1.7924815634	-1.090667871	 0.133487
H	-0.817270053	 1.9883165167	 0.5192607225	 0.131355
H	-2.1851896762	-0.2672268134	 0.1153660375	 0.108304
H	-1.4468150968	-0.6746927743	-1.4357273692	 0.111115
H	-2.0520643268	-2.6953112099	 0.3388072626	 0.103706
H	-0.5657839618	-2.7551946447	-0.6063916231	 0.122018
H	-0.8373709839	-1.9058462966	 2.3232650346	 0.124493
H	 0.3939687722	-2.9325838922	 1.5923720308	 0.116638
H	 2.1301186073	 0.5611139783	 1.9095409528	 0.084212
98.2558	170.2743	179.8097	203.4305	226.8262	271.6758	330.0757	452.9492	454.5677	477.5543	570.7819	640.0075	694.3082	743.4954	798.103	880.7366	890.4736	919.7326	939.2121	1014.9601	1015.3734	1031.9597	1068.5546	1124.2113	1170.7469	1207.9919	1227.414	1246.1138	1263.4712	1322.1148	1340.3594	1356.872	1388.1855	1411.2082	1440.4345	1477.8548	1481.3198	1486.0433	1499.0163	1503.7464	1811.6451	2904.4185	3034.877	3041.7585	3057.252	3072.7836	3081.9169	3097.6801	3102.1505	3122.9105	3134.5943
CC12CCCC1(O2)C=O	C[C@]12CCC[C@]1(O2)C=O	
InChI=1S/C7H10O2/c1-6-3-2-4-7(6,5-8)9-6/h5H,2-4H2,1H3	InChI=1S/C7H10O2/c1-6-3-2-4-7(6,5-8)9-6/h5H,2-4H2,1H3/t6-,7-/m0/s1
