20
gdb 75472	2.50563	1.47858	1.08493	2.1598	80.89	-0.2338	0.0184	0.2522	1176.7637	0.171556	-403.128327	-403.119614	-403.11867	-403.16211	32.424	
C	 0.0048447707	 1.4973040482	-0.0459693649	-0.503252
C	 0.0344674586	 0.0042816856	-0.0001244444	 0.3313
C	 0.1338640469	-0.8607193233	-1.0057106178	-0.21536
C	 0.0877323474	-2.2691153128	-0.4906960817	-0.120322
O	 0.0886352706	-2.1374387106	 0.9319034114	-0.281452
C	-0.0836355827	-0.7691022223	 1.3008787221	-0.007648
C	 0.9339816674	-0.3786800546	 2.3620787356	 0.004539
C	 1.4778175873	-1.3920887477	 3.2934287929	-0.242049
N	 2.3303283467	-0.8089399204	 2.2356096991	-0.323364
H	 0.8538816418	 1.9280716593	 0.4977556922	 0.14549
H	 0.0387853399	 1.8648133147	-1.0744927179	 0.128358
H	-0.9045942135	 1.8902316318	 0.4262025695	 0.128696
H	 0.2130121582	-0.6168529603	-2.0581215977	 0.10131
H	-0.818917486	-2.8034090852	-0.8199593761	 0.105552
H	 0.9504416122	-2.8779705421	-0.7964227137	 0.108985
H	-1.0909383569	-0.6247763763	 1.7346590279	 0.080813
H	 0.8121418328	 0.6427739017	 2.7190228536	 0.088318
H	 1.7468677416	-1.1096014074	 4.307251993	 0.111657
H	 1.1399915383	-2.415289301	 3.1659452282	 0.127363
H	 2.378782839	-1.4806499875	 1.4708702986	 0.231066
68.0958	95.2338	164.7996	180.7568	241.6117	247.3315	296.7689	405.6421	496.6234	563.765	652.77	764.192	781.6177	823.1334	851.026	895.6099	939.5492	951.7115	969.9695	1003.5719	1021.1489	1047.4511	1052.0191	1076.7214	1097.1725	1135.5823	1149.3037	1187.5241	1201.3526	1209.6155	1265.8218	1283.4681	1303.6591	1336.9272	1355.9901	1376.6336	1414.8999	1416.0964	1479.6503	1490.0208	1502.9628	1523.3623	1734.5174	2922.6889	2966.2222	3009.518	3022.8596	3072.5734	3115.0173	3117.4604	3121.9519	3209.51	3210.6043	3480.4111
CC1=CCOC1C1CN1	CC1=CCO[C@H]1[C@H]1CN1	
InChI=1S/C7H11NO/c1-5-2-3-9-7(5)6-4-8-6/h2,6-8H,3-4H2,1H3	InChI=1S/C7H11NO/c1-5-2-3-9-7(5)6-4-8-6/h2,6-8H,3-4H2,1H3/t6-,7-/m1/s1
