22
gdb 16763	4.73332	1.27265	1.12767	0.2439	81.11	-0.2575	0.0807	0.3381	1152.2022	0.202161	-313.076974	-313.068942	-313.067998	-313.109429	31.435	
C	-0.0164865262	 1.5287204906	 0.1201668609	-0.384089
C	-0.0016482812	 0.0012235189	 0.000795883	-0.186181
C	 0.7323104706	-0.5209118826	-1.2370645456	 0.077583
C	 2.2506867761	-0.1990266387	-1.2899645836	-0.241931
C	 2.8719189779	-1.300423643	-2.1507039599	-0.028113
C	 3.1772011357	-2.6166098731	-1.4818392051	-0.275919
C	 1.8812732818	-2.4468494395	-2.2331924135	-0.027947
C	 0.6453239421	-2.0589858029	-1.4213205541	-0.255585
H	 0.9970450286	 1.9358112311	 0.197490113	 0.11776
H	-0.4910380707	 1.9883228655	-0.7543873137	 0.111841
H	-0.571182821	 1.8522766403	 1.0066103016	 0.109516
H	 0.462721309	-0.4335523	 0.8971479412	 0.089526
H	-1.0352087632	-0.3691396316	-0.0143382839	 0.090932
H	 0.2758678581	-0.063259266	-2.1263436167	 0.065597
H	 2.4396278494	 0.792617252	-1.7107798956	 0.09699
H	 2.6785139604	-0.1969063969	-0.2780927344	 0.092073
H	 3.4671437835	-1.0154317712	-3.0110973853	 0.07814
H	 3.9425918224	-3.2451569622	-1.9256858545	 0.103222
H	 3.1399656014	-2.6630042881	-0.3962870867	 0.101257
H	 1.7476985076	-3.0026440808	-3.1545949089	 0.078262
H	 0.6381597658	-2.5624624503	-0.4453520184	 0.092239
H	-0.2808190484	-2.3471446416	-1.9279477097	 0.094829
74.3303	110.3079	198.571	237.0315	295.2766	371.6936	406.1872	433.022	559.1138	665.2915	768.4942	780.306	812.6019	834.2997	867.4393	895.9821	927.3264	959.9851	975.9598	998.2074	1008.8109	1052.2744	1059.4792	1071.7013	1106.9958	1113.3112	1151.2763	1157.0765	1205.8033	1207.7731	1247.3275	1285.0197	1288.0094	1313.2942	1330.9763	1341.905	1368.1751	1381.4886	1391.7314	1412.0536	1482.0531	1485.5658	1490.8357	1500.0536	1505.003	1508.2119	2994.8767	3006.6171	3012.3718	3020.3119	3030.0559	3041.2561	3076.0622	3081.1366	3095.5971	3102.2679	3110.8995	3161.2153	3168.8494	3199.0534
CCC1CC2CC2C1	CC[C@H]1C[C@H]2C[C@H]2C1	
InChI=1S/C8H14/c1-2-6-3-7-5-8(7)4-6/h6-8H,2-5H2,1H3	InChI=1S/C8H14/c1-2-6-3-7-5-8(7)4-6/h6-8H,2-5H2,1H3/t6-,7-,8+
