21
gdb 72926	2.50364	1.9534	1.52845	1.2288	80.82	-0.2523	0.0815	0.3338	967.4541	0.185271	-387.066194	-387.058987	-387.058043	-387.097148	31.025	
O	-0.0691765585	 1.3555120901	-0.0217650738	-0.498187
C	 0.021238559	-0.0520423519	 0.0319907302	 0.453909
C	 0.3685557735	-0.7653676702	-1.310979019	-0.306692
C	-0.9974197415	-1.518888562	-1.257661801	-0.244959
C	-1.3534544312	-0.7932170177	 0.072865341	-0.028872
C	-1.1922553458	-1.5384264099	 1.4127765711	-0.037355
C	 0.2633482003	-2.0891355112	 1.3466357853	-0.242162
C	 0.6307032811	-0.5797390988	 1.3479418303	-0.095534
C	-0.591992108	-0.40147885	 2.3033673448	-0.223244
H	 0.8264490506	 1.7112377181	-0.0139413699	 0.271729
H	 0.4361806199	-0.0501867221	-2.1336570307	 0.100241
H	 1.266764008	-1.3893608984	-1.3103774649	 0.091181
H	-1.6668908373	-1.2754056641	-2.0851880431	 0.099666
H	-0.9289833158	-2.6074148257	-1.1871492164	 0.098188
H	-2.2386315087	-0.1556752419	 0.0407185513	 0.074101
H	-2.0207061557	-2.1621366894	 1.7513091706	 0.056949
H	 0.5568411278	-2.5769893876	 2.2790026264	 0.09579
H	 0.5642158614	-2.7133702332	 0.5023791214	 0.09303
H	 1.6342638406	-0.2326886971	 1.6062556791	 0.047569
H	-1.0888052755	 0.5711943694	 2.3044294703	 0.10433
H	-0.3826584642	-0.7319909563	 3.323270607	 0.090322
190.9443	252.8705	267.9691	295.4987	372.3975	425.5827	496.18	514.2067	585.2617	652.0954	736.7348	796.5246	823.0763	845.059	851.8237	857.8936	892.455	940.6918	954.4268	987.0368	1002.2854	1019.4977	1028.2733	1044.3526	1067.2241	1086.7478	1102.7449	1128.0353	1151.0729	1176.612	1213.5415	1221.7016	1233.8877	1245.4836	1249.2522	1250.142	1276.6412	1292.4504	1307.4497	1330.3361	1376.2588	1469.0421	1483.8438	1496.6296	1529.6015	3055.5332	3063.8624	3064.7048	3066.3656	3084.404	3092.0289	3104.1832	3107.7545	3116.6163	3123.8869	3128.5657	3794.732
OC12CCC1C1CC2C1	O[C@]12CC[C@H]1[C@H]1C[C@@H]2C1	
InChI=1S/C8H12O/c9-8-2-1-7(8)5-3-6(8)4-5/h5-7,9H,1-4H2	InChI=1S/C8H12O/c9-8-2-1-7(8)5-3-6(8)4-5/h5-7,9H,1-4H2/t5-,6+,7-,8-/m0/s1
