15
gdb 20355	6.24069	1.3793	1.24028	5.0873	67.38	-0.238	0.0062	0.2442	961.2041	0.121358	-358.829778	-358.823047	-358.822103	-358.862333	24.795	
C	 0.002730801	 1.5364883046	-0.0652481333	-0.258086
C	 1.3129515531	 0.8070922114	-0.076629951	-0.257911
C	 0.0187818375	 0.0226915472	 0.0386968119	-0.12463
C	-0.3380018988	-0.6381328815	 1.3049549011	 0.38544
C	-0.1608829834	-0.3235247554	 2.6381345568	-0.168331
N	-0.6971640624	-1.3104697961	 3.4082804995	-0.183792
N	-1.2012930219	-2.2290873625	 2.6387797732	-0.121957
N	-0.9871902476	-1.8273143514	 1.3659063658	-0.260626
H	-0.2724161486	 2.0867325654	 0.827333906	 0.130775
H	-0.3566469563	 1.9707288421	-0.9912789551	 0.123525
H	 1.8591050209	 0.7372804887	-1.0105007132	 0.123515
H	 1.9370129991	 0.8562070416	 0.8084014071	 0.130809
H	-0.2904338773	-0.518969552	-0.8499640332	 0.087552
H	 0.3118506955	 0.5391482945	 3.0790387057	 0.117535
H	-1.3069889708	-2.4074874964	 0.6066944785	 0.276182
15.7656	173.2001	176.5588	393.6513	410.5058	573.2642	628.2593	710.1126	725.5472	789.9484	820.3865	833.9098	912.406	914.1026	996.9662	1043.2998	1059.8035	1067.6638	1083.2104	1092.3606	1121.9587	1147.1435	1202.0985	1202.3985	1233.9219	1321.9812	1351.9183	1417.6506	1453.3839	1470.6182	1506.1773	1608.3181	3138.452	3141.6652	3151.7726	3220.9082	3236.3804	3267.3712	3654.8286
C1CC1C1=CN=NN1	C1CC1c1cnn[nH]1	
InChI=1S/C5H7N3/c1-2-4(1)5-3-6-8-7-5/h3-4H,1-2H2,(H,6,7,8)	InChI=1S/C5H7N3/c1-2-4(1)5-3-6-8-7-5/h3-4H,1-2H2,(H,6,7,8)
