20
gdb 41196	2.90243	1.78141	1.60691	0.2154	79.8	-0.1994	0.0648	0.2642	943.8122	0.173299	-403.022086	-403.015168	-403.014224	-403.052828	29.644	
C	-0.1126142669	 1.4926334094	-0.3177405987	-0.286526
C	 1.4594884032	 1.5517691537	 0.0100928793	-0.299347
C	 1.1835170991	 0.2766790133	 0.868177643	 0.400082
C	 1.2878841491	-1.2675868777	 1.0758576858	-0.304935
N	-0.2430007929	-1.3029772468	 0.7883394578	-0.173537
C	-0.9721673186	-0.9365975704	 2.0110672827	-0.174545
C	-0.1557875285	 0.0360501567	 2.8864253439	-0.082602
O	 0.6878346707	 0.8603706051	 2.0918756375	-0.306034
C	 0.0680981463	-0.0450912944	-0.059217587	 0.045882
H	-0.678526826	 2.0319286003	 0.4383531036	 0.128441
H	-0.4360032949	 1.7836656086	-1.3188648949	 0.100705
H	 2.0575630147	 1.3547100554	-0.8816432194	 0.109496
H	 1.8314099762	 2.4331051748	 0.5362515103	 0.11195
H	 1.8105234908	-1.792179692	 0.2751765371	 0.117424
H	 1.5886796649	-1.6717016968	 2.0457816656	 0.109581
H	-1.9258135654	-0.4958227102	 1.7026236131	 0.111861
H	-1.2022526599	-1.8439617185	 2.5818908704	 0.102879
H	-0.8007789759	 0.7083411294	 3.4616604673	 0.104696
H	 0.4499249991	-0.5269144998	 3.6106924476	 0.096169
H	 0.4488998648	-0.4586761701	-0.9974283451	 0.088359
200.5338	207.159	324.5884	352.7446	416.3875	450.5948	512.422	560.1122	619.5553	666.8643	744.1676	754.2032	795.1108	814.8703	834.5283	877.9193	903.1899	916.5917	952.5484	1002.7744	1029.2922	1042.5832	1080.6966	1103.6167	1137.5528	1152.3019	1172.0496	1186.5305	1211.514	1221.7177	1234.7467	1240.3689	1260.0263	1279.3764	1280.2598	1361.764	1396.4239	1420.8504	1467.2716	1478.1908	1491.2215	1492.2382	1525.5241	2993.249	3030.0992	3052.9288	3061.1759	3068.8691	3073.3153	3082.0147	3087.9919	3135.1725	3139.6461	3172.2121
C1CC23CN(CCO2)C13	C1C[C@@]23CN(CCO2)[C@@H]13	
InChI=1S/C7H11NO/c1-2-7-5-8(6(1)7)3-4-9-7/h6H,1-5H2	InChI=1S/C7H11NO/c1-2-7-5-8(6(1)7)3-4-9-7/h6H,1-5H2/t6-,7-/m0/s1
