16
gdb 18690	3.17321	2.37484	1.50331	3.35	64.93	-0.2322	0.017	0.2492	826.3023	0.133505	-379.928775	-379.922064	-379.92112	-379.959818	25.795	
O	 0.0059592644	-0.0438297612	-0.1064444184	-0.373934
C	-0.0122127372	 1.1646102436	 0.024831527	 0.390874
N	-1.1633421982	 1.8850474629	 0.1957282495	-0.320217
C	-1.2099012703	 3.3344813009	 0.0358059425	-0.164427
C	-0.0568036692	 3.9623539843	 0.8102416699	-0.1451
N	 1.2417267897	 3.419207885	 0.3729524998	-0.103269
C	 1.874329292	 2.4553955853	 1.2680006027	-0.236929
C	 1.2455080913	 1.9958298221	-0.0019645912	-0.120754
H	-2.0132817265	 1.3485841398	 0.097568043	 0.2487
H	-1.1549706112	 3.6236455584	-1.0239013587	 0.119536
H	-2.1631947941	 3.7009730687	 0.427052863	 0.118762
H	-0.0467766214	 5.0452065212	 0.6462826013	 0.114309
H	-0.2182911543	 3.7895508679	 1.8824266357	 0.106177
H	 2.9566941638	 2.5120641334	 1.3423073873	 0.123854
H	 1.3636350443	 2.2103533228	 2.1977596992	 0.121384
H	 1.8927118169	 1.7406456852	-0.8368043125	 0.121036
75.9153	212.5853	246.0534	400.4762	420.4686	460.0479	513.8426	567.1339	691.6262	716.685	747.0645	794.6427	885.6006	938.4341	974.3593	1005.3887	1053.2324	1069.7787	1111.2342	1117.0208	1131.8394	1170.1205	1253.5506	1267.8312	1300.0719	1315.1306	1372.2896	1389.674	1405.9281	1464.8983	1492.9066	1513.7251	1515.6665	1798.2838	2998.6429	3015.3405	3068.004	3087.1019	3096.8404	3146.9761	3186.4496	3609.102
O=C1NCCN2CC12	O=C1NCCN2C[C@@H]12	
InChI=1S/C5H8N2O/c8-5-4-3-7(4)2-1-6-5/h4H,1-3H2,(H,6,8)	InChI=1S/C5H8N2O/c8-5-4-3-7(4)2-1-6-5/h4H,1-3H2,(H,6,8)/t4-,7?/m0/s1
