14
gdb 29473	3.43517	1.61692	1.09942	0.8777	68.8	-0.1854	0.0303	0.2157	1004.5277	0.102427	-436.709475	-436.701932	-436.700988	-436.741472	28.312	
O	 0.0956609416	 1.3730124706	-0.1129039788	-0.445447
C	 0.0614794895	 0.0116088229	-0.0103948438	 0.160194
C	 0.016226152	-0.8348614417	-1.0940123939	-0.163518
N	-0.0108766381	-2.1652016522	-0.6350094873	-0.418773
C	 0.0197637329	-2.0997526209	 0.7137932837	 0.43432
C	 0.0643830662	-0.8001818642	 1.171045883	 0.111239
C	 0.090501113	-0.9374478656	 2.6069206445	-0.37021
C	 0.0602657268	-2.2730679648	 2.8587085798	-0.021163
O	 0.0151652451	-3.0251885158	 1.6876109942	-0.220021
H	 0.1253685943	 1.7430425438	 0.7730939722	 0.299048
H	 0.0002735813	-0.6123542667	-2.1466482353	 0.124304
H	-0.0438837172	-2.9862351856	-1.210428333	 0.269807
H	 0.1268702865	-0.1679511263	 3.3628286568	 0.106668
H	 0.063824136	-2.8549627937	 3.7642027379	 0.133551
119.768	152.4049	185.4054	231.397	282.1111	425.0516	539.9941	557.3415	595.8889	616.8134	670.8697	681.9762	697.7058	744.2943	800.7301	803.0404	913.0323	1015.9511	1061.2981	1096.1495	1153.4857	1174.8512	1222.1986	1302.0654	1336.8302	1350.0535	1500.7074	1528.9135	1552.9767	1612.7204	1643.0205	3247.8389	3285.2661	3294.9872	3706.3077	3856.9868
OC1=CNC2=C1C=CO2	Oc1c[nH]c2c1cco2	
InChI=1S/C6H5NO2/c8-5-3-7-6-4(5)1-2-9-6/h1-3,7-8H	InChI=1S/C6H5NO2/c8-5-3-7-6-4(5)1-2-9-6/h1-3,7-8H
