12
gdb 5365	5.68896	1.61653	1.25883	1.0809	63.31	-0.265	-0.0941	0.1709	870.9974	0.086073	-377.581341	-377.57523	-377.574285	-377.611854	21.978	
O	-0.8581511243	 1.1168548092	 0.234759325	-0.244298
C	 0.26330034	 0.8253235189	-0.0987416669	 0.109334
C	 1.4120048571	 1.7838239739	-0.0588321912	 0.225163
N	 2.5944292342	 1.3040763016	-0.4630385371	-0.290563
C	 3.6137987425	 2.1611405273	-0.42557024	 0.073447
N	 3.5759358762	 3.4362902085	-0.0304142018	-0.238922
C	 2.3855357299	 3.8933655937	 0.368648407	 0.026634
C	 1.247633306	 3.0958768138	 0.3755407253	-0.16806
H	 0.5424719645	-0.182956654	-0.4656627034	 0.103127
H	 4.5796981693	 1.7835645254	-0.7517590128	 0.130815
H	 2.3471616004	 4.930870101	 0.6917915976	 0.132369
H	 0.2772522541	 3.4533364606	 0.6964490283	 0.140954
119.1978	213.8402	215.9231	384.9153	457.6389	494.8856	651.8319	702.6985	786.4875	854.2421	875.8262	997.6084	1008.7225	1030.056	1054.2297	1082.5517	1185.4138	1228.9994	1281.5888	1317.3264	1395.8803	1421.8002	1495.1392	1600.8118	1609.837	1814.2563	2943.4131	3163.3933	3171.4432	3221.5605
O=CC1=NC=NC=C1	O=Cc1ncncc1	
InChI=1S/C5H4N2O/c8-3-5-1-2-6-4-7-5/h1-4H	InChI=1S/C5H4N2O/c8-3-5-1-2-6-4-7-5/h1-4H
