23
gdb 77923	2.16862	1.37347	1.29467	1.3122	86.61	-0.247	0.075	0.322	1206.2007	0.2041	-388.240197	-388.229945	-388.229	-388.275435	38.439	
C	 0.5298114672	 1.4670008921	-1.3063799169	-0.451786
C	 0.4017208958	-0.0066177454	-0.9080745057	-0.015115
C	 1.5996485415	-1.0072898091	-0.9212888462	-0.117583
C	 2.0993912563	-0.43516574	 0.4566755766	 0.031559
C	 2.8440371808	 0.880962142	 0.6671641882	-0.455608
C	 0.5576596926	-0.5624439652	 0.557708244	 0.346723
O	-0.1518167613	-0.1940179627	 1.6895145631	-0.475505
C	 0.727409221	-1.9944151659	-0.0730990525	 0.000928
C	-0.4282234658	-2.7982983155	-0.6531923573	-0.463651
H	 1.5591900296	 1.7901161596	-1.465183863	 0.125906
H	-0.0064666609	 1.6440116612	-2.244298137	 0.107803
H	 0.0830952277	 2.125029403	-0.5519828045	 0.121619
H	-0.4890436058	-0.4053665232	-1.3980447817	 0.056885
H	 2.2185541906	-1.2691573166	-1.7786352179	 0.069408
H	 2.6165884396	-1.2102057393	 1.0346893286	 0.062907
H	 3.1764721279	 0.9366521317	 1.7089855739	 0.1181
H	 3.7415963391	 0.931422564	 0.0398951673	 0.111693
H	 2.2479756788	 1.7715231506	 0.4782361061	 0.126036
H	-1.0874050026	-0.3615169107	 1.5318535086	 0.280851
H	 1.3330790449	-2.6521024328	 0.5597604565	 0.063727
H	-1.0762253535	-2.2383261755	-1.3315831983	 0.119406
H	-0.0460365633	-3.661916753	-1.2085363768	 0.120767
H	-1.0567964702	-3.1912634596	 0.1549350649	 0.114929
33.8442	141.2236	144.1237	172.0664	193.1807	210.3199	255.3051	264.1902	346.6089	377.0756	424.5167	475.0177	520.7785	640.5682	647.3132	731.63	782.0449	798.1308	844.5586	872.3003	932.7789	1007.8931	1014.6979	1027.6344	1060.7107	1069.269	1091.981	1132.9809	1136.5576	1153.7503	1166.9974	1180.9553	1200.3932	1234.9726	1247.0638	1286.2428	1361.5632	1398.9722	1408.1789	1409.989	1418.1868	1438.3509	1474.6882	1492.4623	1496.0039	1501.4795	1503.8264	1508.6424	1528.0111	3019.6395	3028.8895	3033.199	3038.1525	3043.1463	3067.4096	3082.8742	3089.082	3089.6854	3115.0642	3122.0619	3131.1414	3165.0207	3803.9634
CC1C2C(C)C1(O)C2C	C[C@H]1[C@H]2[C@@H](C)[C@]1(O)[C@H]2C	
InChI=1S/C8H14O/c1-4-7-5(2)8(4,9)6(7)3/h4-7,9H,1-3H3	InChI=1S/C8H14O/c1-4-7-5(2)8(4,9)6(7)3/h4-7,9H,1-3H3/t4-,5-,6+,7-,8-/m0/s1
