21
gdb 89889	3.61071	1.19988	1.11072	1.5	82.05	-0.2289	0.0735	0.3024	1198.059	0.182104	-387.04252	-387.034264	-387.033319	-387.075266	32.915	
C	 0.7665372671	 1.3733449265	 0.1239361498	-0.393458
C	-0.0361146053	 0.0840871161	-0.0232892948	 0.026641
C	 0.5599602391	-0.9444149649	-1.0344395875	-0.306664
C	 1.1118089118	-1.7552113608	 0.1553652801	 0.472925
C	 0.1931729739	-0.9626709711	 1.1108172513	-0.31339
O	 0.9746046395	-3.2019581711	 0.1428698964	-0.330133
C	 2.3394689494	-3.3495528668	 0.54150284	 0.093877
C	 3.2594605905	-2.8115399236	-0.5077777099	-0.306129
C	 2.600267325	-1.8673681439	 0.4804198681	-0.198511
H	 1.8298493831	 1.1680351179	 0.2931376855	 0.115279
H	 0.6900026006	 1.9906293202	-0.7779211189	 0.114445
H	 0.4056675587	 1.9687841991	 0.969848254	 0.113578
H	-1.0872915065	 0.3266237824	-0.1998632738	 0.070587
H	-0.2141225644	-1.5127659788	-1.5568167324	 0.11142
H	 1.2864653494	-0.5763445934	-1.7649283999	 0.095624
H	 0.6349404109	-0.6066954182	 2.0464118053	 0.094792
H	-0.7054006898	-1.5416709524	 1.338709164	 0.110779
H	 2.5792145617	-4.1121210777	 1.272944014	 0.102127
H	 4.3194159914	-2.9749971902	-0.3370357803	 0.112255
H	 2.9490802929	-2.8299537559	-1.5489367991	 0.116216
H	 3.1521290711	-1.2163743734	 1.145264888	 0.09774
68.9085	157.0846	196.6894	242.737	297.0368	345.8523	369.9704	463.5274	471.4708	524.5594	753.5221	767.8036	794.7517	816.8814	822.4467	886.8205	892.8215	911.9042	940.7556	964.3012	972.0482	1010.4681	1032.5702	1036.4461	1051.1453	1059.9033	1083.7739	1121.9263	1135.6531	1150.8364	1182.4289	1212.3299	1219.9149	1239.0777	1275.4553	1283.2277	1336.0688	1351.241	1368.5137	1412.1434	1459.3421	1471.2245	1482.8734	1496.1315	1499.2941	3024.1625	3050.425	3052.8095	3062.4456	3093.0781	3093.1767	3110.5195	3112.6974	3114.1441	3181.2034	3197.094	3208.7146
CC1CC2(C1)OC1CC21	C[C@H]1C[C@@]2(C1)O[C@H]1C[C@@H]21	
InChI=1S/C8H12O/c1-5-3-8(4-5)6-2-7(6)9-8/h5-7H,2-4H2,1H3	InChI=1S/C8H12O/c1-5-3-8(4-5)6-2-7(6)9-8/h5-7H,2-4H2,1H3/t5-,6-,7+,8-/m1/s1
