17
gdb 64568	3.35425	1.44203	1.27004	1.27	68.82	-0.2567	-0.0402	0.2164	1012.1207	0.136296	-458.954571	-458.947153	-458.946209	-458.986273	29.359	
O	 0.0459441523	 1.4691017052	-0.0307577514	-0.49174
C	 0.0027170787	 0.0890924224	 0.0028258207	 0.350687
C	 0.9390782496	-0.5046134122	-1.0150155932	 0.095442
O	 1.6056566726	 0.2113412044	-1.728819179	-0.288675
C	 0.0596740595	-0.6579697334	 1.38121367	 0.004639
C	-0.9862440849	 0.0970252813	 2.2212024509	-0.223123
C	-2.1320193981	 0.1070965729	 1.1612393826	-0.223122
C	-1.3829632745	-0.6452783932	 0.0466133986	 0.004635
O	-0.7176013812	-1.7253410388	 0.7641896776	-0.299122
H	 0.6900000503	 1.6918288017	-0.7249468272	 0.295657
H	 0.9810423071	-1.6049400225	-1.0708023556	 0.125816
H	 0.9880900792	-0.9907873299	 1.8451442049	 0.089376
H	-1.2405450947	-0.4642108113	 3.1223140093	 0.111063
H	-0.6483893785	 1.0972738955	 2.4974064036	 0.124014
H	-3.0159369344	-0.4486139919	 1.479882984	 0.111064
H	-2.4241419071	 1.1128820381	 0.8546606947	 0.124012
H	-1.9207091159	-0.9651977283	-0.8458192804	 0.089377
110.1957	202.5619	239.548	289.3631	331.214	403.9094	417.4117	545.3346	552.03	567.1415	753.4793	826.2487	826.7624	835.3122	869.8593	882.9596	925.715	939.127	973.5161	1001.4413	1023.3628	1066.1001	1086.6964	1134.5287	1183.9501	1219.5027	1245.524	1251.0522	1269.0617	1296.9813	1319.578	1337.0968	1367.1518	1441.6121	1464.7179	1487.3151	1793.1203	3006.6127	3077.3866	3084.4113	3125.0203	3128.3337	3129.3887	3142.9677	3652.2623
OC1(C=O)C2CCC1O2	O[C@@]1(C=O)[C@H]2CC[C@@H]1O2	
InChI=1S/C6H8O3/c7-3-6(8)4-1-2-5(6)9-4/h3-5,8H,1-2H2	InChI=1S/C6H8O3/c7-3-6(8)4-1-2-5(6)9-4/h3-5,8H,1-2H2/t4-,5+,6+
