16
gdb 43792	2.45399	1.71988	1.18967	2.9351	71.53	-0.2579	0.0007	0.2585	1043.5509	0.123162	-437.834964	-437.827208	-437.826264	-437.867254	29.658	
N	 0.007502759	 1.1568380218	 0.4136454529	-0.549251
C	-0.0129873559	-0.0411867093	 0.0551908615	 0.390535
O	 0.9800891557	-0.8690824885	-0.4523623451	-0.307065
C	 0.0524250903	-1.976985687	-0.599985592	 0.393665
C	 0.0386408747	-2.8558784505	-1.7969600698	-0.32542
C	 0.4620715434	-3.3952732105	-0.4343969998	-0.339463
C	-1.0443802443	-1.137229328	 0.0083062608	 0.203058
C	-2.1610112516	-1.4385183343	 0.9025995924	-0.25683
O	-2.3646427153	-1.0276075687	-0.4582333384	-0.253691
H	 0.9294690179	 1.5769392545	 0.2881131541	 0.235299
H	-0.9296516082	-3.1389222537	-2.1959122725	 0.137705
H	 0.816779966	-2.7022422551	-2.5361296928	 0.137219
H	 1.5185012574	-3.5878073575	-0.2832004061	 0.137576
H	-0.2041316045	-4.0675772121	 0.096261694	 0.12565
H	-2.4078536205	-2.4764756761	 1.1195063423	 0.125606
H	-2.4454214741	-0.7082197549	 1.6571227486	 0.145407
100.9267	171.1204	189.9084	228.2969	259.6884	340.6638	502.7753	520.2254	551.9279	611.2021	693.3264	756.7318	809.6436	860.0196	862.4483	883.1757	922.8013	961.9259	978.9255	991.7525	1030.3618	1052.2305	1074.3816	1106.3289	1124.5922	1164.8754	1184.5934	1191.0864	1275.7062	1377.6123	1448.2569	1460.588	1501.7241	1542.9841	1839.9475	3091.7586	3133.6116	3137.8976	3188.1192	3218.8071	3233.1893	3485.8822
N=C1OC2(CC2)C11CO1	[NH][C]1OC2(CC2)[C@]21CO2	
InChI=1S/C6H7NO2/c7-4-6(3-8-6)5(9-4)1-2-5/h7H,1-3H2	InChI=1S/C6H7NO2/c7-4-6(3-8-6)5(9-4)1-2-5/h7H,1-3H2/t6-/m1/s1
