18
gdb 95531	2.26359	1.62913	1.16139	4.5557	77.76	-0.2647	-0.0056	0.2591	1103.9367	0.148293	-401.97156	-401.963188	-401.962244	-402.004534	31.486	
C	-0.0726739081	 1.5280234669	-0.0771285512	-0.418115
C	 0.0298835471	 0.0144890996	 0.0049402789	 0.114386
O	 0.6644621157	-0.4394839431	-1.1760969614	-0.251904
C	 0.6184468953	-1.8436220823	-1.3359228766	-0.123088
C	 0.9444773967	-2.5958471766	-0.0785530837	-0.054371
C	 1.0527265919	-1.9973441582	 1.1025631088	-0.08269
C	 0.8004987377	-0.5069120301	 1.2492161295	-0.202329
C	 2.0622238359	 0.210578695	 1.4714916365	 0.28816
N	 3.0562506726	 0.7703298466	 1.6578539589	-0.334288
H	 0.9203865302	 1.9756416284	-0.166641925	 0.155526
H	-0.6619368444	 1.8102560243	-0.9528482878	 0.128806
H	-0.5585097516	 1.9318188608	 0.8163159282	 0.119248
H	-0.9800090923	-0.423600179	 0.0743434852	 0.077546
H	-0.3731505104	-2.1591664553	-1.710181229	 0.10448
H	 1.3431348242	-2.0847366664	-2.1221057054	 0.130365
H	 1.0851990155	-3.6689140145	-0.1750549639	 0.107156
H	 1.3188141984	-2.5479483219	 1.9986661361	 0.113158
H	 0.1732256455	-0.331047134	 2.1334958319	 0.127954
79.7515	146.3917	186.8743	215.5387	247.9306	311.1421	388.511	413.0869	469.9815	496.584	574.1828	675.3856	708.9831	765.9798	854.634	896.5789	926.8015	966.7176	992.6033	1007.6982	1039.0456	1063.7707	1123.1048	1134.1523	1172.2026	1213.3869	1268.6785	1280.9535	1300.7437	1365.6506	1375.9113	1402.6366	1408.931	1421.3558	1483.0745	1483.8031	1500.9625	1727.6397	2353.346	2937.6164	2963.0965	3023.9064	3049.9831	3058.7427	3124.035	3134.8851	3165.615	3190.5837
CC1OCC=CC1C#N	C[C@H]1OCC=C[C@H]1C#N	
InChI=1S/C7H9NO/c1-6-7(5-8)3-2-4-9-6/h2-3,6-7H,4H2,1H3	InChI=1S/C7H9NO/c1-6-7(5-8)3-2-4-9-6/h2-3,6-7H,4H2,1H3/t6-,7+/m1/s1
