21
gdb 70891	3.31095	1.4797	1.39442	1.3558	81.05	-0.2243	0.087	0.3113	1053.2147	0.183637	-387.1076	-387.099734	-387.098789	-387.139199	32.498	
C	-0.0322506113	 1.4917177965	 0.0434313569	-0.502767
C	 0.0189183555	-0.0079234202	-0.04334495	 0.297597
C	 0.2091515169	-0.7685670764	-1.351712405	-0.3046
C	 0.0814361127	-2.1913016483	-0.7507422604	 0.365831
C	 0.0362714474	-3.3782142	-1.6782329229	-0.481902
C	 1.1519676539	-2.1547781271	 0.3719012742	-0.255553
C	 0.6242387343	-0.9007780747	 1.0516757071	-0.16178
C	-0.8620640179	-0.9336454681	 0.7654576971	 0.052505
O	-1.1489251267	-2.087549194	 0.002796792	-0.290794
H	 0.9194667296	 1.9454017753	-0.2575694061	 0.116615
H	-0.8155620339	 1.9016365009	-0.6048928423	 0.118538
H	-0.2430720872	 1.8227895216	 1.0660375383	 0.115301
H	-0.5831325441	-0.5622712747	-2.0788568705	 0.096166
H	 1.1834199352	-0.5976433749	-1.8204988298	 0.093524
H	 0.9676042076	-3.4548614813	-2.2471985852	 0.117025
H	-0.0995484509	-4.3045015324	-1.1123041731	 0.125668
H	-0.7933311004	-3.2844143218	-2.3850833263	 0.1255
H	 1.1002897926	-3.0430465181	 1.009073647	 0.099857
H	 2.1667501308	-2.050765649	-0.0234550748	 0.09572
H	 1.0364094957	-0.4936485263	 1.965868583	 0.082017
H	-1.6476318097	-0.625737727	 1.4420030508	 0.095531
196.6148	208.809	214.2063	232.1746	310.1392	331.1366	433.2579	455.3467	550.3771	561.0775	637.0069	676.1315	731.9711	803.1332	849.4694	873.9165	879.7913	888.8037	935.1651	971.1433	985.3172	995.6363	1035.7195	1048.3609	1065.5409	1074.9114	1127.8169	1157.2224	1164.5928	1188.7466	1211.2585	1224.7789	1263.6371	1298.2434	1306.7328	1352.6654	1411.6334	1419.8071	1430.357	1475.3331	1483.3489	1490.4623	1495.0624	1496.4909	1503.0541	3019.6996	3041.193	3043.5269	3052.716	3078.2447	3089.643	3093.2365	3101.1036	3114.9463	3116.277	3196.9248	3213.3789
CC12CC3(C)CC1C2O3	C[C@@]12C[C@@]3(C)C[C@@H]1[C@@H]2O3	
InChI=1S/C8H12O/c1-7-3-5-6(9-7)8(5,2)4-7/h5-6H,3-4H2,1-2H3	InChI=1S/C8H12O/c1-7-3-5-6(9-7)8(5,2)4-7/h5-6H,3-4H2,1-2H3/t5-,6+,7-,8-/m1/s1
