16
gdb 51517	4.77459	0.86711	0.79625	3.1885	74.69	-0.2467	-0.0585	0.1882	1383.6025	0.124817	-437.944098	-437.935865	-437.934921	-437.978407	29.615	
O	-0.0549096258	 0.066069944	-0.7678611825	-0.31555
C	-0.0555798164	 1.1494070519	-0.2249449038	 0.15603
N	 1.0411136503	 1.7611035243	 0.3050654299	-0.288602
C	 2.3715654917	 1.1708559251	 0.2648002238	-0.012547
C	 3.4271582704	 1.9993618941	-0.5019757191	-0.355608
C	 4.610776262	 2.1549630766	 0.4673026945	 0.376606
O	 5.6721485629	 2.672403356	 0.2158625258	-0.31861
C	 4.1935042217	 1.5472353219	 1.756172692	-0.185037
C	 2.9707186143	 1.0186535059	 1.6485738014	-0.065147
H	-0.9676508619	 1.7647776408	-0.1006384142	 0.083317
H	 0.9258227878	 2.6655043808	 0.7365644692	 0.249929
H	 2.2203220495	 0.1887497309	-0.1941732406	 0.144772
H	 3.7586179188	 1.5282502506	-1.4305357163	 0.145879
H	 3.0439084094	 2.9896291107	-0.7666330606	 0.132805
H	 4.8311101422	 1.549383922	 2.6309962518	 0.124451
H	 2.4193801132	 0.5161072643	 2.4362358687	 0.127314
38.631	52.183	171.2327	205.6501	254.3793	374.5051	418.1043	496.8177	539.3206	553.1157	645.526	713.0855	801.54	813.6544	828.7397	883.0387	982.8866	1008.5744	1028.4874	1051.0544	1055.8441	1121.083	1162.7547	1181.4761	1215.4762	1249.6262	1309.4863	1339.7194	1363.9541	1427.9205	1453.3348	1520.0345	1651.2015	1804.3051	1822.3493	2947.6433	3068.4494	3073.9528	3115.4162	3193.5376	3228.7366	3621.644
O=CNC1CC(=O)C=C1	O=CN[C@H]1CC(=O)C=C1	
InChI=1S/C6H7NO2/c8-4-7-5-1-2-6(9)3-5/h1-2,4-5H,3H2,(H,7,8)	InChI=1S/C6H7NO2/c8-4-7-5-1-2-6(9)3-5/h1-2,4-5H,3H2,(H,7,8)/t5-/m1/s1
