19
gdb 64182	2.18645	1.54034	1.36065	0.6673	77.17	-0.2586	0.0205	0.2792	1081.2454	0.155287	-422.979024	-422.96931	-422.968366	-423.012782	37.111	
C	-0.1927593331	 1.6117295929	 0.0216467541	-0.428384
C	-0.073673166	 0.0979283687	-0.0095593407	 0.31725
O	-1.3451883412	-0.4120445001	-0.2842703479	-0.473359
C	 1.1246486217	-0.4206211156	-0.8452340615	-0.125783
O	 1.8987310494	-0.66373822	 0.348498577	-0.304068
C	 0.7323044309	-0.5449763108	 1.2037282677	 0.124225
C	 1.0211119592	 0.2662691126	 2.4586529275	-0.45406
C	 0.192447402	-1.8657179515	 1.5400229098	 0.328449
C	-0.2856138971	-2.9458136441	 1.7728374444	-0.458903
H	 0.781972202	 2.0858091856	 0.1553074531	 0.126599
H	-0.6158910148	 1.9521296613	-0.9282479106	 0.130417
H	-0.8615297118	 1.9327810659	 0.8248457691	 0.127002
H	-1.3405088104	-1.356605501	-0.0787504275	 0.280818
H	 0.8986504867	-1.3483364835	-1.3877335437	 0.099271
H	 1.6211963518	 0.2874381379	-1.516716369	 0.106216
H	 1.449940579	 1.235478578	 2.1987193436	 0.126457
H	 0.1032931993	 0.4193833946	 3.0337700992	 0.133432
H	 1.7348826454	-0.2706104386	 3.0897481599	 0.138276
H	-0.6804332529	-3.9047353224	 2.0047943055	 0.206146
82.3032	141.469	187.23	198.7319	234.9114	277.2235	286.6843	354.1324	376.5182	402.3388	415.1189	464.6342	538.601	582.9523	643.3751	648.5033	660.7981	675.9808	863.8948	892.94	909.7169	930.6401	988.7612	1011.9406	1112.9456	1134.5585	1135.4759	1164.6937	1192.456	1211.7773	1260.6523	1337.4446	1387.4043	1406.3039	1426.1643	1473.373	1480.1311	1495.621	1497.9334	1516.0168	2215.9322	3012.6904	3046.2745	3050.8904	3077.5071	3117.3801	3121.5845	3132.3481	3142.8888	3495.4586	3747.9703
CC1(O)COC1(C)C#C	C[C@@]1(O)CO[C@]1(C)C#C	
InChI=1S/C7H10O2/c1-4-7(3)6(2,8)5-9-7/h1,8H,5H2,2-3H3	InChI=1S/C7H10O2/c1-4-7(3)6(2,8)5-9-7/h1,8H,5H2,2-3H3/t6-,7-/m1/s1
