17
gdb 38002	3.37916	1.86906	1.55058	2.2052	78.47	-0.2246	-0.0167	0.2079	879.3006	0.138869	-380.735072	-380.728841	-380.727896	-380.765287	26.523	
C	-0.1480649811	 1.342890461	 0.0862186738	-0.178091
N	 1.325395726	 1.6170248574	-0.2212807786	-0.169998
C	 2.3238684004	 0.4577774709	 0.0014184715	-0.000455
C	 2.4219558025	-0.8170649093	 0.8270244018	-0.028616
N	 1.7109892053	-1.0722814719	 2.0833730121	-0.331971
C	 1.2852682485	-1.7840899281	 0.8379565177	-0.108917
C	 0.0092686856	-1.1310643538	 0.426985076	-0.126307
C	 0.089164845	-0.0742300125	-0.3915864903	 0.124321
C	 1.3485973974	 0.4029344038	-1.0962025163	-0.129399
H	-0.4656244642	 1.4763317873	 1.12361179	 0.120912
H	-0.698982124	 2.0155062047	-0.578194815	 0.116862
H	 3.2951282556	 0.9013030601	-0.2022788622	 0.100906
H	 3.4274726526	-1.2287066197	 0.7504764115	 0.087241
H	 2.2639038637	-1.6955730847	 2.6691042689	 0.231168
H	 1.4765734896	-2.8506871636	 0.7670125234	 0.094135
H	-0.800451539	-1.1741634638	 1.1526125167	 0.101284
H	 1.5360339761	 0.4443029723	-2.1643892711	 0.096924
176.0014	263.0797	393.8132	438.8579	499.6421	515.3466	576.0316	630.4122	748.7349	767.1113	806.1705	816.7737	842.8849	884.1315	891.752	911.8348	925.7211	948.85	1005.1407	1033.5342	1042.7929	1075.2394	1090.2267	1118.5072	1136.7607	1159.9047	1191.945	1215.1907	1253.7774	1265.5351	1292.2854	1340.2925	1366.0304	1386.8276	1430.9265	1496.7682	1673.6377	3047.3826	3111.3342	3111.8651	3141.3312	3142.8707	3149.7413	3159.1647	3480.0818
C1N2C3C4NC4C=C1C23	C1N2[C@H]3[C@H]4N[C@H]4[CH][C]1[C@@H]23	
InChI=1S/C7H8N2/c1-3-2-9-6(3)7(9)5-4(1)8-5/h1,4-8H,2H2	InChI=1S/C7H8N2/c1-3-2-9-6(3)7(9)5-4(1)8-5/h1,4-8H,2H2/t4-,5-,6+,7-,9?/m0/s1
