18
gdb 16010	4.09951	1.78795	1.44058	1.1812	74.9	-0.2296	0.0224	0.252	907.3923	0.155489	-347.794825	-347.787866	-347.786922	-347.825748	27.669	
C	 0.0293267257	 1.5253466665	 0.0271351063	-0.316548
C	 1.3320389151	 0.7759743996	-0.0192103489	-0.300843
C	 0.0201179286	 0.013214275	-0.0125086588	 0.338837
C	-0.4114517649	-0.733183968	 1.2367351559	-0.167556
O	-0.1404114555	-2.1202219944	 1.1260268196	-0.246754
C	-0.8778417367	-2.7321627076	 0.0842616187	-0.122212
C	-0.8583887015	-1.944517152	-1.1986757817	-0.103276
C	-0.4143785173	-0.6888273824	-1.2431144293	-0.116169
H	-0.2543622383	 2.0055539664	 0.9586657256	 0.113347
H	-0.2941224792	 2.0575886154	-0.8614854732	 0.113285
H	 1.903759037	 0.7935280628	-0.9407202884	 0.114945
H	 1.9373612974	 0.7372318159	 0.8805584553	 0.117344
H	 0.1295706432	-0.3815841464	 2.1205984601	 0.10144
H	-1.4892806677	-0.5695224375	 1.4088431764	 0.087591
H	-0.423116929	-3.7185105335	-0.0665769782	 0.116146
H	-1.9227727593	-2.9109159164	 0.4021533583	 0.094528
H	-1.2168617284	-2.4497126197	-2.0911603183	 0.091017
H	-0.3704263992	-0.1429540938	-2.1828861094	 0.084876
106.8699	234.7648	269.3953	289.2327	371.5936	439.307	477.7539	538.6066	687.3374	727.7575	778.7568	818.4118	890.3565	920.0345	940.2565	950.5554	971.8699	986.8918	1000.8379	1027.5844	1055.9208	1076.0674	1094.0814	1124.1906	1190.0921	1195.1492	1241.1498	1292.4677	1328.1676	1340.6063	1370.59	1411.9214	1436.1528	1467.4548	1485.5308	1494.1115	1503.2995	1715.1184	2923.5343	2957.2467	3049.4151	3076.9493	3123.1224	3130.0042	3145.3243	3173.9625	3202.4687	3219.3914
C1CC11COCC=C1	C1CC21COCC=C2	
InChI=1S/C7H10O/c1-2-7(3-4-7)6-8-5-1/h1-2H,3-6H2	InChI=1S/C7H10O/c1-2-7(3-4-7)6-8-5-1/h1-2H,3-6H2
