15
gdb 18579	3.74863	2.19222	1.72605	0.9417	59.7	-0.2557	0.0082	0.2639	761.6695	0.120782	-399.794577	-399.788157	-399.787213	-399.825351	24.727	
O	 0.5798253529	 1.0438577167	-0.6256888896	-0.430184
C	 0.1288930762	-0.1483254652	-0.0507681645	 0.135028
C	 0.1611042293	-0.3163653833	 1.5071145506	-0.273985
C	-1.3409834307	-0.7311488695	 1.4829805539	-0.01453
N	-2.234425626	 0.2399783452	 2.1321404647	-0.246549
C	-2.5888882475	 1.0381139015	 1.2168603474	 0.106655
O	-2.1575499775	 0.8418582149	-0.0664137556	-0.246517
C	-1.4033319793	-0.3952387548	-0.0383850203	 0.036456
H	-0.117378184	 1.6989063095	-0.4964659566	 0.288493
H	 0.6540588005	-0.9669884777	-0.5526263085	 0.094769
H	 0.8646581567	-1.0617973319	 1.8834745339	 0.10939
H	 0.3196752432	 0.6243541286	 2.0389731746	 0.11399
H	-1.5665892277	-1.7491532737	 1.8008023468	 0.087927
H	-3.2289920609	 1.9045861218	 1.3389040952	 0.147575
H	-1.8350173851	-1.075328662	-0.7746200522	 0.091482
72.3771	220.7083	327.3236	369.0678	393.5978	522.4198	600.0627	647.6986	745.9113	804.8305	847.89	861.9429	912.9499	927.9553	956.166	1013.6875	1043.2577	1058.2493	1081.3379	1110.3309	1159.3216	1185.2855	1241.0977	1268.1295	1276.1094	1295.2489	1314.8793	1333.4112	1350.078	1436.1976	1471.9545	1696.3548	3061.5671	3071.3617	3095.7556	3110.4898	3133.1014	3220.8401	3778.1185
OC1CC2N=COC12	O[C@H]1C[C@H]2N=CO[C@@H]12	
InChI=1S/C5H7NO2/c7-4-1-3-5(4)8-2-6-3/h2-5,7H,1H2	InChI=1S/C5H7NO2/c7-4-1-3-5(4)8-2-6-3/h2-5,7H,1H2/t3-,4+,5-/m1/s1
