16
gdb 94769	3.92602	1.17908	1.04632	4.9755	69.54	-0.2583	0.0092	0.2675	1127.1275	0.124562	-437.873819	-437.865827	-437.864883	-437.906387	30.096	
O	 0.1347151299	 1.255142563	-0.5170027854	-0.423586
C	-0.0106360697	-0.0550027375	 0.0019016144	 0.075582
C	 0.464656445	-0.1692448372	 1.4778231072	-0.138457
O	-0.4346025045	-1.0396302981	 2.1616554427	-0.29161
C	-1.6456564754	-1.0596081528	 1.4499121099	 0.304209
C	-2.312571676	 0.2600868604	 1.1202980051	-0.337005
C	-1.4729144374	-0.4434214654	 0.0796101528	-0.116116
C	-2.4314607488	-2.2405511707	 1.6868756799	 0.242461
N	-3.0856577406	-3.1774195462	 1.8618721668	-0.339577
H	 1.0650587126	 1.4031632673	-0.7141397795	 0.291429
H	 0.5142350114	-0.7827341476	-0.631813462	 0.089091
H	 1.4704579495	-0.5840535359	 1.585558582	 0.119311
H	 0.4499201297	 0.836419931	 1.9184630905	 0.114966
H	-3.3864522617	 0.2479806119	 0.977635829	 0.144022
H	-1.9227505115	 1.1498617009	 1.6006290954	 0.144167
H	-1.9526050124	-0.8687175232	-0.7922511988	 0.121113
100.0106	147.0837	159.6876	242.5251	271.3404	353.6803	417.6642	469.5415	548.8532	563.6656	600.9487	645.7364	718.59	826.9942	879.1867	938.7874	956.8776	980.0735	1018.1301	1047.7436	1055.9416	1079.8355	1106.4733	1143.0208	1220.5092	1231.8146	1244.3924	1272.7193	1341.0552	1357.1009	1392.7759	1437.7723	1477.076	1526.4151	2361.5347	3009.5325	3021.9755	3094.5557	3149.4142	3202.1528	3241.9197	3821.3311
OC1COC2(CC12)C#N	O[C@H]1CO[C@]2(C[C@@H]12)C#N	
InChI=1S/C6H7NO2/c7-3-6-1-4(6)5(8)2-9-6/h4-5,8H,1-2H2	InChI=1S/C6H7NO2/c7-3-6-1-4(6)5(8)2-9-6/h4-5,8H,1-2H2/t4-,5-,6+/m0/s1
