20
gdb 50089	4.00475	0.77008	0.70767	3.1634	82.06	-0.2405	-0.0181	0.2224	1611.2229	0.169918	-403.108756	-403.099645	-403.098701	-403.143653	33.308	
O	-0.064251805	 0.141745925	-0.7049224156	-0.270919
C	-0.0224907362	 1.2051343947	-0.1356318377	 0.165449
C	 1.2007444332	 2.0222879618	 0.0193817205	-0.119132
C	 1.0622322787	 3.5414529838	 0.0715423108	-0.296984
C	 1.4813899462	 2.8100001283	 1.3007548371	 0.008085
C	 0.6012806559	 2.7188500748	 2.5307109532	-0.179229
N	 0.9658763128	 3.7698242246	 3.4748617431	-0.060739
C	 0.2383624362	 5.0303299169	 3.3677667086	-0.216713
C	-0.0229861908	 4.0942459596	 4.4959240562	-0.221113
H	-0.9439519175	 1.652591087	 0.3043863964	 0.062892
H	 2.0631027978	 1.6087470237	-0.492017756	 0.1088
H	 1.787833286	 4.1250597489	-0.4828279951	 0.129726
H	 0.0498270112	 3.9336934496	 0.0370409295	 0.120801
H	 2.5368886192	 2.8623826126	 1.5509657373	 0.112808
H	-0.4667601974	 2.7657047659	 2.2532469116	 0.081242
H	 0.7607610873	 1.755863676	 3.0310540583	 0.116225
H	 0.8251804843	 5.931485551	 3.5194838987	 0.119597
H	-0.533894884	 5.1134355293	 2.6044934567	 0.108223
H	-0.9682728602	 3.553377275	 4.4820316209	 0.110698
H	 0.3703272123	 4.2968480114	 5.4878252255	 0.120284
56.137	78.2222	96.3742	152.8329	247.129	265.5688	349.0617	368.875	424.1096	450.3816	531.4042	766.2419	811.8296	838.044	846.4113	878.2289	902.0828	917.4622	962.2866	1014.0481	1033.5484	1047.2171	1062.2791	1077.5736	1112.7186	1118.4331	1137.0962	1145.9099	1173.1734	1193.1838	1201.6677	1230.3268	1286.1057	1322.8905	1338.0743	1364.2496	1421.4009	1455.2637	1485.227	1490.228	1497.2108	1523.6057	1816.1437	2856.5384	2943.2325	3047.1213	3093.8265	3098.9786	3129.4051	3156.7151	3178.2823	3178.3729	3192.4788	3219.9588
O=CC1CC1CN1CC1	O=C[C@H]1C[C@H]1CN1CC1	
InChI=1S/C7H11NO/c9-5-7-3-6(7)4-8-1-2-8/h5-7H,1-4H2	InChI=1S/C7H11NO/c9-5-7-3-6(7)4-8-1-2-8/h5-7H,1-4H2/t6-,7+/m0/s1
