15
gdb 8398	4.0613	1.76099	1.52975	10.2244	62.82	-0.1945	0.0211	0.2156	840.9219	0.12019	-399.729422	-399.722518	-399.721574	-399.761419	25.651	
O	 0.0251819486	-0.0220161866	-0.0044997936	-0.453855
C	 0.0161858288	 1.2089860979	 0.0067653917	 0.290678
O	 0.8756346892	 2.1106027674	 0.0137127395	-0.498357
C	-1.4161058549	 1.8161975841	 0.0147838468	 0.191708
C	-2.5462062329	 1.9011410856	-1.0606665097	-0.245669
C	-2.9362161656	 2.9275445712	 0.0275924389	-0.047591
C	-2.5429039751	 1.8808080474	 1.0951039388	-0.245682
N	-1.4780433692	 3.392072897	 0.029730394	-0.247618
H	-1.073440641	 3.7999193192	 0.8708662947	 0.294045
H	-1.0759562181	 3.8156609141	-0.8048074474	 0.294046
H	-2.2683584461	 2.2914509842	-2.04273285	 0.125382
H	-3.1796794254	 1.0208767926	-1.1357658093	 0.1475
H	-3.7266087372	 3.6776231361	 0.0358790737	 0.122529
H	-3.1761735735	 0.9992692928	 1.1555307517	 0.147503
H	-2.2620408475	 2.252534917	 2.0835025503	 0.12538
39.3272	152.8422	159.0834	352.2754	449.6717	532.3912	567.6922	636.8104	722.3947	767.6894	805.7224	826.1178	908.1923	937.9905	947.2407	950.5118	955.4014	1058.4697	1068.5488	1091.9872	1119.9321	1127.067	1151.1201	1175.5499	1239.8228	1249.6712	1260.0618	1323.5662	1496.5554	1526.587	1657.1541	1815.4749	3082.2867	3083.5672	3122.8193	3179.1792	3185.369	3466.8127	3564.261
[O-]C(=O)C12CC(C1)[NH2+]2	O=C([O])[C@@]12C[C@@H](C1)[NH2]2	
InChI=1S/C5H7NO2/c7-4(8)5-1-3(2-5)6-5/h3,6H,1-2H2,(H,7,8)	InChI=1S/C5H7NO2/c7-4(8)5-1-3(2-5)6-5/h3H,1-2,6H2/t3-,5+
