19
gdb 9381	5.44239	0.77677	0.70754	3.519	72.99	-0.3002	0.0129	0.3131	1587.1923	0.163815	-365.081091	-365.071363	-365.070419	-365.116299	33.886	
C	 0.0307103675	 1.5808071314	-0.007143217	-0.3808
C	 0.0097576059	 0.0500636444	 0.0097749703	-0.172279
C	-1.409727325	-0.5273906905	 0.0110197727	-0.167039
C	-1.4310743447	-2.0585085113	 0.0327562763	-0.205545
C	-2.8605015257	-2.6268202327	-0.0155114792	-0.025296
O	-3.5844767963	-2.2316132188	-1.1674635872	-0.4058
C	-2.8384371925	-4.1000300926	 0.111907258	 0.25632
N	-2.800576202	-5.253049044	 0.1802185797	-0.31606
H	 1.0553528536	 1.9647356641	-0.011229406	 0.115326
H	-0.4765448797	 1.9736760323	-0.8950881152	 0.116907
H	-0.4761421043	 1.9935829153	 0.8720682195	 0.116502
H	 0.5558728445	-0.3343833271	-0.8618287716	 0.097435
H	 0.5523238591	-0.3154173976	 0.8915831587	 0.098593
H	-1.9580708091	-0.1463999671	 0.883814264	 0.097651
H	-1.957655437	-0.1741815187	-0.8698956348	 0.112303
H	-0.8667723701	-2.4621011647	-0.8189168659	 0.106432
H	-0.937553533	-2.4375759701	 0.9358234859	 0.1208
H	-3.4342238677	-2.2290053261	 0.8297324275	 0.139902
H	-3.1497468834	-2.6106106763	-1.9405245959	 0.294649
58.9218	77.8077	99.1336	144.9343	188.5068	246.0904	246.8261	309.0512	331.9728	380.9557	453.2736	579.9643	593.2249	737.2257	791.4291	862.8968	908.4499	938.5675	986.2954	1027.7495	1067.088	1090.5364	1122.0488	1138.7659	1229.8463	1259.4009	1288.6136	1317.1589	1332.6159	1339.5447	1375.267	1398.2431	1413.3536	1420.2674	1477.8127	1486.1655	1499.0957	1500.0679	1512.8213	2353.807	3010.7433	3014.8463	3024.1105	3031.6126	3042.242	3051.5019	3062.6323	3081.2004	3098.8593	3105.1962	3797.5632
CCCCC(O)C#N	CCCC[C@@H](O)C#N	
InChI=1S/C6H11NO/c1-2-3-4-6(8)5-7/h6,8H,2-4H2,1H3	InChI=1S/C6H11NO/c1-2-3-4-6(8)5-7/h6,8H,2-4H2,1H3/t6-/m1/s1
