19
gdb 62387	3.07907	1.50067	1.27912	1.9415	80.73	-0.251	0.0532	0.3042	1051.5415	0.159023	-385.835866	-385.827748	-385.826804	-385.867967	32.596	
C	-0.1749224133	 1.6021622526	-0.0224033074	-0.486355
C	-0.0018623953	 0.0815869141	 0.0049920433	 0.113578
C	-1.2694890698	-0.5728687282	-0.2887782858	 0.291016
C	-2.3478777827	-1.0425152083	-0.5380354214	-0.433058
C	 1.1941747044	-0.6222721568	-0.7295958088	 0.050566
C	 2.4520453116	 0.1200653185	-0.2378917387	-0.235726
C	 2.1047059106	 0.1083154229	 1.2868241885	-0.235769
C	 0.7606185509	-0.6372327008	 1.174327864	 0.050598
O	 1.0948690549	-1.7055851795	 0.2406425282	-0.294462
H	 0.7531047282	 2.1340866518	 0.1930932738	 0.120275
H	-0.5326718936	 1.9218429069	-1.0056968354	 0.132275
H	-0.924156007	 1.9082616444	 0.7138040074	 0.132275
H	-3.289866994	-1.4812391517	-0.7558831933	 0.188482
H	 1.1256369668	-0.9427005812	-1.7685976955	 0.087572
H	 3.3491364314	-0.4577682468	-0.4678132129	 0.112906
H	 2.567446918	 1.1206508286	-0.6612663213	 0.102671
H	 2.8157152218	-0.4757091533	 1.8741075354	 0.112886
H	 2.0218687037	 1.1022040954	 1.7330022327	 0.102693
H	 0.2501105034	-0.9729092684	 2.0763262271	 0.087577
137.3192	156.7206	174.2698	286.4293	291.9454	345.2906	429.9816	480.9642	515.2979	578.8103	621.8254	634.3368	636.7932	715.7846	822.5973	837.0347	869.0574	898.3714	913.0899	924.0969	954.4036	972.2243	1014.1891	1027.0584	1091.2617	1139.4206	1188.4845	1189.9724	1193.2134	1239.8348	1246.3065	1257.7066	1296.315	1313.5146	1335.4385	1409.5655	1473.1243	1490.1614	1501.3448	1506.5837	2234.0601	3049.1239	3070.2129	3077.4687	3112.0287	3113.5258	3128.222	3130.7438	3134.9487	3139.2193	3503.327
CC1(C#C)C2CCC1O2	C[C@@]1(C#C)[C@H]2CC[C@@H]1O2	
InChI=1S/C8H10O/c1-3-8(2)6-4-5-7(8)9-6/h1,6-7H,4-5H2,2H3	InChI=1S/C8H10O/c1-3-8(2)6-4-5-7(8)9-6/h1,6-7H,4-5H2,2H3/t6-,7+,8-
