14
gdb 18561	3.80879	2.09695	1.66288	2.0904	56.72	-0.2392	-0.0453	0.1939	767.6318	0.107488	-419.671047	-419.664618	-419.663674	-419.702103	23.914	
O	 0.0392210813	-0.0140843751	-0.3495011084	-0.277075
C	 0.0105521851	 1.1438504083	-0.061202597	 0.364566
C	-1.1029140854	 2.1234106375	 0.362364743	-0.381451
C	-0.0115717649	 3.201905047	 0.6228797553	 0.068869
O	 0.3540465803	 3.3965149827	 1.9774913766	-0.252076
C	 1.3015330492	 2.3983220824	 2.3026567677	 0.004876
O	 2.0324141636	 2.1174171739	 1.1251926834	-0.239032
C	 1.1090374686	 2.2563765121	 0.0722503848	-0.022662
H	-1.7890996014	 2.3664834996	-0.4553065135	 0.14054
H	-1.6903971167	 1.8200335255	 1.233333115	 0.144318
H	-0.1653923075	 4.1759136946	 0.1600490506	 0.101054
H	 1.9849196483	 2.7841816808	 3.0627089448	 0.131822
H	 0.798280474	 1.4869434093	 2.6693371814	 0.100857
H	 1.6389754154	 2.5093678713	-0.8481679136	 0.115397
63.7296	182.5087	263.3369	382.3123	418.8252	531.272	602.9868	721.0902	743.5539	767.7002	853.3796	889.9947	949.1128	965.0361	1008.8966	1047.9946	1074.5565	1114.2135	1127.6377	1173.0477	1184.891	1217.0082	1236.885	1249.3614	1318.392	1348.3982	1417.6799	1425.2675	1544.5225	1899.1235	2954.216	3058.8099	3100.5616	3104.8275	3114.4994	3126.1272
O=C1CC2OCOC12	O=C1C[C@H]2OCO[C@@H]12	
InChI=1S/C5H6O3/c6-3-1-4-5(3)8-2-7-4/h4-5H,1-2H2	InChI=1S/C5H6O3/c6-3-1-4-5(3)8-2-7-4/h4-5H,1-2H2/t4-,5+/m1/s1
