16
gdb 65753	2.56288	1.26035	1.11434	5.3126	66.77	-0.2609	0.0031	0.264	1141.5295	0.122473	-475.062724	-475.053739	-475.052794	-475.096752	31.758	
C	 0.0148206351	 1.6370041117	-0.0704653719	-0.444848
C	-0.0384378406	 0.1207453599	-0.0212043754	 0.230076
C	 0.6809984886	-0.6480574486	-1.1697408074	-0.199955
N	 1.6203098452	-1.1449390674	-0.1582418322	-0.330554
C	 1.0089404281	-0.5704065681	 0.9202475551	 0.401502
O	 1.2070740142	-0.5962772647	 2.1059214284	-0.359769
O	-1.3808369305	-0.3493548488	 0.1243741461	-0.239038
C	-1.9436986267	-0.3045682077	 1.3607012938	 0.145724
O	-3.0827742187	-0.615456007	 1.5349503627	-0.270302
H	 1.03147161	 1.9811602655	-0.2808686619	 0.134588
H	-0.6556195922	 2.0113394959	-0.8497166241	 0.141701
H	-0.2941414706	 2.0626416296	 0.8887196355	 0.143811
H	 0.0556217723	-1.4195449613	-1.6250048077	 0.138483
H	 1.1379842176	-0.0200348868	-1.9396846452	 0.12134
H	 2.4029019931	-1.7791251684	-0.2192521551	 0.262329
H	-1.244647595	 0.0184401364	 2.1484767792	 0.124912
83.9783	108.0275	143.905	173.776	218.3056	236.0007	301.875	320.1701	403.7724	454.3252	533.8517	597.4346	730.0594	772.8483	788.4229	903.8138	954.0956	978.8682	1002.5152	1048.5602	1129.8501	1153.6016	1169.6169	1188.9119	1210.3382	1256.0285	1304.3335	1395.8464	1412.1996	1436.5375	1484.6169	1490.1259	1522.6315	1860.4585	1890.9527	3025.5375	3042.5825	3056.6685	3114.4542	3120.134	3122.8074	3616.5371
CC1(CNC1=O)OC=O	C[C@]1(CNC1=O)OC=O	
InChI=1S/C5H7NO3/c1-5(9-3-7)2-6-4(5)8/h3H,2H2,1H3,(H,6,8)	InChI=1S/C5H7NO3/c1-5(9-3-7)2-6-4(5)8/h3H,2H2,1H3,(H,6,8)/t5-/m1/s1
