16
gdb 16319	3.14693	2.05636	1.43765	2.749	65.96	-0.2319	-0.0117	0.2203	885.8853	0.129186	-383.71533	-383.707629	-383.706685	-383.74757	28.192	
C	 0.0396847615	 1.3654298679	 0.2691649304	-0.264251
O	 0.0178342715	 0.0165713464	-0.1908534166	-0.276762
C	-1.2276225032	-0.5473202059	-0.1626450835	 0.340712
C	-1.8364387598	-1.0990368216	 1.1287124176	-0.340213
C	-1.6194359886	-2.0364513089	-0.0135197369	-0.138774
C	-2.7742983808	-1.8707930178	-1.0135858385	-0.353784
C	-2.2980890027	-0.4017948861	-1.2100491664	 0.346658
O	-2.5408971928	 0.4384588888	-2.0294618986	-0.322897
H	 1.0766408753	 1.7003929169	 0.2056541326	 0.131965
H	-0.5900660294	 2.0054992052	-0.3590233396	 0.141977
H	-0.3014799534	 1.4342621095	 1.311217995	 0.111703
H	-1.102513555	-1.1481834386	 1.9271771292	 0.130643
H	-2.8423013352	-0.8377959741	 1.4469030761	 0.119847
H	-0.9394697213	-2.8761055032	 0.0286040833	 0.117325
H	-2.6536570607	-2.4290115459	-1.9462164025	 0.135391
H	-3.7841561455	-2.0266806425	-0.6237183116	 0.120462
73.4206	130.7463	176.1471	212.3574	287.1658	384.0333	431.9032	493.4911	567.9314	660.5707	688.0713	816.6547	848.6448	891.2162	942.32	976.3977	1009.3091	1017.8168	1044.0298	1079.0587	1089.3965	1143.734	1180.3574	1197.9435	1219.033	1252.6151	1289.4942	1371.6865	1457.2477	1477.5293	1486.9834	1500.4403	1507.648	1876.4567	3005.9976	3058.2534	3076.518	3112.4162	3114.6118	3133.3599	3204.9964	3217.934
COC12CC1CC2=O	CO[C@]12C[C@H]1CC2=O	
InChI=1S/C6H8O2/c1-8-6-3-4(6)2-5(6)7/h4H,2-3H2,1H3	InChI=1S/C6H8O2/c1-8-6-3-4(6)2-5(6)7/h4H,2-3H2,1H3/t4-,6-/m1/s1
