21
gdb 121412	3.62125	0.96228	0.87259	1.5176	76.48	-0.2466	0.0856	0.3321	1434.3531	0.18264	-461.350806	-461.341709	-461.340765	-461.385227	33.29	
C	-0.0329585227	 1.4084557176	 0.0097149488	-0.219898
O	 0.0532929236	 0.0054560873	 0.001584744	-0.217748
C	-1.2060036651	-0.6115642488	 0.0102769969	-0.086854
C	-1.0460958584	-2.12160575	 0.0006261657	 0.215688
O	-0.3820503905	-2.5020296788	-1.1774523826	-0.250605
C	-0.2075930446	-3.9098497629	-1.2566361304	-0.075961
C	 0.5415746064	-4.4253185249	-0.026919428	-0.205651
C	-0.1839338477	-3.9231860192	 1.2223458066	-0.075961
O	-0.3597264481	-2.5146142625	 1.1616574241	-0.250605
H	 0.9878892346	 1.7978340118	 0.002069102	 0.127327
H	-0.5665695267	 1.7923216529	-0.8750959364	 0.101276
H	-0.5496622074	 1.7830319167	 0.908433708	 0.101274
H	-1.7809984749	-0.3337662038	 0.9091614555	 0.092269
H	-1.7980058463	-0.3241739658	-0.8744387559	 0.092268
H	-2.0569882106	-2.5829740331	 0.0077931549	 0.045218
H	-1.1916228638	-4.4054718393	-1.3331816135	 0.084595
H	 0.3402536156	-4.1022740092	-2.1826254307	 0.111463
H	 0.5883128767	-5.5200753544	-0.0332554664	 0.096153
H	 1.5642569484	-4.0349551	-0.0345799383	 0.119693
H	-1.1663735645	-4.4197055788	 1.3123234637	 0.084595
H	 0.381467646	-4.1255049649	 2.1355859822	 0.111464
69.1455	94.7831	100.3669	230.7995	230.9649	254.5662	323.5018	332.942	355.1899	481.4528	491.8953	638.4309	723.5806	857.5107	880.3185	885.4512	901.6651	955.8504	986.5647	1035.0813	1074.0106	1086.0057	1107.7545	1149.0353	1172.1627	1185.9709	1194.8977	1237.7424	1238.9628	1259.8969	1288.9075	1307.7448	1371.167	1377.4084	1404.8822	1417.2034	1421.3074	1441.5556	1468.606	1477.0318	1485.1821	1495.5795	1496.728	1506.9257	1520.4918	2874.9081	2949.7636	2957.0554	2957.4312	2970.8254	2997.1191	3005.3888	3043.8669	3090.1474	3092.0859	3099.6175	3114.4316
COCC1OCCCO1	COCC1OCCCO1	
InChI=1S/C6H12O3/c1-7-5-6-8-3-2-4-9-6/h6H,2-5H2,1H3	InChI=1S/C6H12O3/c1-7-5-6-8-3-2-4-9-6/h6H,2-5H2,1H3
