15
gdb 131838	5.04021	0.83498	0.7558	1.6714	64.2	-0.2583	-0.0261	0.2322	1433.8533	0.113492	-487.241539	-487.233172	-487.232228	-487.275714	29.398	
O	 0.1054322917	 1.353054652	-0.083451633	-0.402558
C	 0.0809766626	-0.0573149132	-0.0088350207	-0.077388
C	-1.3640252774	-0.5792603227	-0.0757308311	-0.164902
N	-1.4195035245	-2.0278134472	-0.0099217131	 0.14945
N	-1.7026252231	-2.7853039495	-1.0529051029	-0.12514
N	-1.6120731462	-4.0303544797	-0.6398924077	-0.30289
C	-1.2649277125	-3.9539218776	 0.6635650384	 0.483091
O	-1.0752844381	-5.0164593303	 1.4455808572	-0.396759
N	-1.1302449624	-2.7109145409	 1.1041028401	-0.327506
H	-0.1566994967	 1.7070048127	 0.7722403433	 0.292349
H	 0.6389066982	-0.4292602128	-0.8736771998	 0.133987
H	 0.568479779	-0.4408002354	 0.8968727874	 0.124567
H	-1.9523918038	-0.1799618501	 0.755868816	 0.133012
H	-1.8314898522	-0.288556402	-1.0171398701	 0.160061
H	-1.2323761646	-5.8000641333	 0.903508766	 0.320625
50.1771	90.4409	91.9622	268.3323	300.2688	316.1253	347.4934	409.2156	415.5957	485.5613	687.6148	721.8101	773.9406	791.5151	840.7146	1029.8723	1036.6435	1054.7951	1087.6658	1111.7022	1151.3244	1200.0973	1263.7767	1288.0855	1341.5624	1368.9792	1402.8338	1408.4904	1416.8341	1473.4281	1486.5183	1511.2384	1632.4877	3025.9563	3067.332	3093.4443	3149.2351	3802.7233	3821.5445
OCCN1N=NC(O)=N1	OCCn1nnc(O)n1	
InChI=1S/C3H6N4O2/c8-2-1-7-5-3(9)4-6-7/h8H,1-2H2,(H,5,9)	InChI=1S/C3H6N4O2/c8-2-1-7-5-3(9)4-6-7/h8H,1-2H2,(H,5,9)
