18
gdb 119531	4.34506	0.95899	0.87619	2.2313	71.54	-0.2442	0.0161	0.2603	1326.286	0.147882	-439.074532	-439.066158	-439.065214	-439.108072	31.146	
O	-0.0673139567	 1.4354531921	-0.0455878463	-0.420418
C	 0.0052983266	 0.021544944	-0.1381101833	-0.071353
C	-1.3742614895	-0.5285361395	 0.2172953793	-0.27897
C	-1.4521989635	-2.0233779861	 0.1181891223	 0.405898
C	-1.6630090298	-2.7919345206	-1.158001569	-0.348228
C	-2.6752103991	-2.9164389816	-0.033929707	-0.080871
N	-2.4794534459	-4.0261393435	 0.872362514	-0.257645
C	-1.344950726	-3.8276919234	 1.4114053013	 0.091791
O	-0.6490277049	-2.7060871052	 1.0900893165	-0.250707
H	 0.8095027648	 1.7937444357	-0.210496119	 0.287356
H	 0.2803010179	-0.3027469561	-1.15461218	 0.088774
H	 0.7541252685	-0.3916583277	 0.5536065147	 0.103852
H	-1.6366663873	-0.2078031248	 1.2315190655	 0.119298
H	-2.1134201851	-0.0899234576	-0.4618120745	 0.115208
H	-1.9665928066	-2.2074710039	-2.0199110323	 0.122739
H	-1.032565077	-3.6478227927	-1.3748605971	 0.124393
H	-3.6907870824	-2.5633503093	-0.1671900262	 0.105954
H	-0.8574877339	-4.4748996298	 2.1301937812	 0.142927
72.1614	97.4064	124.0269	257.4772	270.2584	329.9834	340.0559	406.7841	441.8389	611.5992	713.972	750.7021	795.2493	813.9524	887.4059	917.6915	940.1645	946.7023	985.5415	1014.7607	1035.0248	1061.4994	1082.2283	1088.9796	1120.9924	1136.0137	1195.7302	1239.7258	1253.9222	1265.196	1308.3794	1340.2966	1340.8558	1402.7869	1460.4863	1469.3124	1478.5722	1530.099	1667.8306	2972.4127	3011.0386	3044.8511	3090.9437	3129.3045	3182.7169	3223.0508	3229.8123	3832.7989
OCCC12CC1N=CO2	OCC[C@]12C[C@H]1N=CO2	
InChI=1S/C6H9NO2/c8-2-1-6-3-5(6)7-4-9-6/h4-5,8H,1-3H2	InChI=1S/C6H9NO2/c8-2-1-6-3-5(6)7-4-9-6/h4-5,8H,1-3H2/t5-,6+/m1/s1
