23
gdb 112563	2.53302	1.20566	1.07189	2.4282	82.23	-0.2409	0.0751	0.316	1295.0224	0.203379	-425.413471	-425.403076	-425.402132	-425.448241	39.105	
C	-0.1132778051	 1.360287098	 0.1252929956	-0.237867
O	 0.384383192	 0.0526159418	-0.0550151316	-0.259392
C	 0.8197704066	-0.5722600176	 1.1388408055	 0.071889
C	-0.312271727	-1.2599165653	 1.9493601454	-0.302674
C	-0.0025877695	-2.6158081608	 1.2293237159	 0.29953
C	 0.1281458854	-3.8386938436	 2.1316205519	-0.457522
C	-0.9505343235	-2.8906240873	 0.0605916746	-0.44425
C	 1.3594891788	-1.9780452043	 0.7634524313	 0.103926
O	 1.8155381236	-2.1585349778	-0.5462063523	-0.433924
H	 0.6505638566	 2.0201387524	 0.5632982088	 0.111786
H	-0.3910613925	 1.7413813455	-0.8602260171	 0.13019
H	-0.9996926391	 1.3768489935	 0.774935393	 0.113528
H	 1.4934480722	 0.1021248947	 1.6857025068	 0.062326
H	-0.0956108272	-1.2843910517	 3.0213337812	 0.096672
H	-1.3161642929	-0.8519864491	 1.8039543558	 0.100941
H	-0.839227721	-4.1201055211	 2.5642546703	 0.10999
H	 0.5038002761	-4.7018244218	 1.5698841574	 0.119193
H	 0.820945884	-3.6518920504	 2.9599845046	 0.10427
H	-1.0872086153	-2.0029352052	-0.562083795	 0.11685
H	-0.5594867138	-3.6915533811	-0.5746297403	 0.120957
H	-1.9351902075	-3.1975189533	 0.4316035344	 0.103943
H	 2.1654057904	-2.2798018018	 1.4420151249	 0.07569
H	 1.3678025586	-1.4879217337	-1.0782581611	 0.293949
80.0365	106.0211	175.0491	202.0358	214.6546	225.4742	244.4884	275.8722	321.724	352.313	370.5214	405.016	434.8489	514.1359	581.0248	701.3004	771.0056	816.5916	854.8819	909.2506	947.7378	962.4036	984.9235	1021.4472	1031.278	1109.6945	1131.1273	1165.5453	1173.1999	1185.253	1212.2307	1233.68	1234.18	1270.248	1281.0198	1297.9654	1348.3654	1379.161	1400.34	1417.508	1440.6763	1467.5213	1481.1284	1486.2348	1487.2528	1489.5896	1501.5584	1509.6705	1513.925	2985.0783	3000.082	3017.2358	3031.6796	3037.9444	3042.6174	3055.35	3083.5047	3087.6382	3097.9819	3106.9396	3117.9245	3119.807	3768.1369
COC1CC(C)(C)C1O	CO[C@H]1CC(C)(C)[C@H]1O	
InChI=1S/C7H14O2/c1-7(2)4-5(9-3)6(7)8/h5-6,8H,4H2,1-3H3	InChI=1S/C7H14O2/c1-7(2)4-5(9-3)6(7)8/h5-6,8H,4H2,1-3H3/t5-,6-/m0/s1
