18
gdb 70848	2.95553	1.90683	1.45923	0.5561	73.79	-0.241	0.0693	0.3103	947.1064	0.146901	-401.869117	-401.861685	-401.860741	-401.900439	30.038	
C	 0.0182053457	 1.4304508586	-0.1216891803	-0.52176
C	-0.0485418764	-0.0631594248	-0.0534435834	 0.43847
O	 0.4895271159	-0.7704561407	-1.1999768631	-0.355522
C	-0.2866959444	-1.9099780586	-0.7491281492	 0.438481
C	-0.5486637758	-2.9653614851	-1.7774881068	-0.521763
C	 0.2074889842	-2.2436769326	 0.6896879938	-0.107044
C	 0.3850272885	-0.8664269758	 1.2085173847	-0.107056
N	-0.936636083	-1.5610443461	 1.3868934968	-0.186562
C	-1.2923096751	-0.9950358978	 0.0062096115	-0.155595
H	 1.0610888893	 1.7650814782	-0.1388301765	 0.134408
H	-0.4752133036	 1.7999954039	-1.0247677647	 0.132087
H	-0.4695528342	 1.8729154587	 0.7521130062	 0.132888
H	 0.391135687	-3.4299262367	-2.0950323714	 0.134398
H	-1.1947220174	-3.7460192465	-1.3646953576	 0.132895
H	-1.0339023414	-2.5365818537	-2.6585482598	 0.132093
H	 0.6786539786	-3.1354304453	 1.0847477416	 0.097185
H	 1.0079918797	-0.5804943965	 2.0472368967	 0.097187
H	-2.3190650477	-0.7593719692	-0.2678930484	 0.085211
197.6189	201.4445	215.642	242.0247	287.1408	328.3662	557.3451	597.7475	604.0508	611.1853	751.9961	769.4898	792.7422	830.717	856.8735	868.1251	883.1845	888.716	910.5821	952.9546	1004.5211	1027.1085	1062.9422	1098.84	1132.9127	1141.651	1194.4367	1200.6558	1208.7201	1209.0516	1291.6398	1333.787	1388.2362	1412.6881	1436.3049	1478.2487	1480.1831	1489.7738	1492.4632	3038.3592	3038.5991	3107.6766	3107.7184	3120.473	3120.7185	3135.7907	3184.2169	3196.4606
CC12OC3(C)C4C1N4C23	C[C@@]12O[C@@]3(C)[C@H]4[C@@H]1N4[C@@H]23	
InChI=1S/C7H9NO/c1-6-3-4-7(2,9-6)5(6)8(3)4/h3-5H,1-2H3	InChI=1S/C7H9NO/c1-6-3-4-7(2,9-6)5(6)8(3)4/h3-5H,1-2H3/t3-,4+,5-,6+,7-,8?
