23
gdb 120980	3.62692	0.89158	0.84759	1.5278	85.84	-0.2359	0.0809	0.3168	1519.108	0.206042	-388.266219	-388.25703	-388.256085	-388.300861	34.673	
C	-0.0077466707	 1.4736023384	 0.301643305	-0.383237
C	-0.0743185738	-0.0464413399	 0.1358320093	-0.16087
C	-1.5023670179	-0.5635726652	-0.0846648783	-0.195324
C	-1.5560932844	-2.0750258596	-0.2028709654	 0.148419
O	-1.1401849784	-2.7592297546	 1.0143278965	-0.318516
C	-2.2950573012	-3.6221086487	 0.9811750351	 0.132425
C	-3.4378802675	-3.127255121	 1.8957492808	-0.228259
C	-4.0319684682	-2.3248114418	 0.693945957	-0.23494
C	-2.8941430442	-2.848152168	-0.2269726286	-0.116996
H	 1.0204731192	 1.8127788807	 0.4619491771	 0.111611
H	-0.3937567016	 1.9882620406	-0.585682948	 0.110408
H	-0.6042068658	 1.804301729	 1.1593484653	 0.113707
H	 0.5562048962	-0.3536052345	-0.7089602331	 0.09168
H	 0.339873292	-0.5386668167	 1.0229894925	 0.11917
H	-2.1371194632	-0.2361589833	 0.747005538	 0.097226
H	-1.9243427189	-0.1263434932	-1.0007652412	 0.091288
H	-0.9091974063	-2.3950559595	-1.0351343065	 0.0681
H	-2.0236831519	-4.6816194972	 0.9910592843	 0.070787
H	-4.0948159865	-3.9231217634	 2.2575296497	 0.09836
H	-3.0858053733	-2.541596762	 2.7476978634	 0.108741
H	-5.0154743504	-2.6859115332	 0.3848583274	 0.102935
H	-4.097282522	-1.241298205	 0.8152903379	 0.103238
H	-3.1824417413	-3.3015040719	-1.1748100082	 0.070048
61.3906	92.5193	104.5605	134.2862	244.926	263.0178	322.5179	367.2414	426.4991	517.9618	659.9755	726.4677	748.1615	789.2058	820.5681	850.9675	879.5496	902.805	928.4875	942.378	961.7442	1000.6317	1034.1475	1043.0811	1057.8013	1104.7641	1109.0988	1133.5739	1169.2288	1180.8293	1207.8525	1236.929	1254.7831	1258.2614	1273.2465	1287.7496	1310.3539	1320.5554	1328.4516	1348.4473	1384.2351	1410.8627	1418.0386	1462.1414	1473.0855	1490.1988	1494.328	1499.4175	1510.6673	2970.6283	3011.2135	3022.4374	3027.9602	3055.3226	3055.7656	3065.2168	3070.0668	3072.492	3096.7668	3100.7238	3105.1744	3113.8977	3126.2448
CCCC1OC2CCC12	CCC[C@H]1O[C@H]2CC[C@@H]12	
InChI=1S/C8H14O/c1-2-3-7-6-4-5-8(6)9-7/h6-8H,2-5H2,1H3	InChI=1S/C8H14O/c1-2-3-7-6-4-5-8(6)9-7/h6-8H,2-5H2,1H3/t6-,7+,8-/m0/s1
