24
gdb 6473	3.56281	1.24437	1.14051	0.0582	85.35	-0.2738	0.0805	0.3543	1223.7619	0.222323	-314.277944	-314.268337	-314.267393	-314.311713	36.734	
C	 0.1155537901	 1.5180826341	-0.171804683	-0.387964
C	-0.0188017897	 0.0131980812	 0.0896428293	-0.236229
C	-1.4562739142	-0.5190760123	 0.0850172271	 0.37262
C	-2.3035715328	 0.0979209738	 1.2021228227	-0.445895
C	-2.1953957716	-0.4941592006	-1.2937065194	-0.269975
C	-2.6588523046	-1.9589920437	-1.0578797118	 0.060365
C	-2.6056490445	-2.9366594822	-2.2221148211	-0.407255
C	-1.5877112873	-2.0762527733	 0.0622186342	-0.28271
H	 1.1686055888	 1.810456514	-0.2311826079	 0.110347
H	-0.3597338198	 1.7997625809	-1.1180532399	 0.116661
H	-0.3456158455	 2.11452784	 0.6212820398	 0.116722
H	 0.5529906805	-0.5308564618	-0.6735245412	 0.085214
H	 0.4502041585	-0.2345387279	 1.0524987718	 0.088517
H	-2.4120881264	 1.1804042653	 1.0784220439	 0.112778
H	-3.311450962	-0.3300626454	 1.2183935143	 0.110074
H	-1.8508880936	-0.0851917553	 2.1839547033	 0.107965
H	-2.9704804822	 0.2649617909	-1.4346586639	 0.087923
H	-1.4900938722	-0.4264859041	-2.1297000713	 0.087616
H	-3.6632480861	-1.9690191726	-0.6209638913	 0.068506
H	-1.6097220576	-2.9472986705	-2.6804194153	 0.108019
H	-2.832084575	-3.9584663876	-1.896425875	 0.111385
H	-3.3273730837	-2.6689639612	-3.0024139514	 0.111217
H	-0.672826899	-2.5543543454	-0.3048574918	 0.086827
H	-1.88153853	-2.5650773665	 0.9960856679	 0.087274
77.0725	97.2349	195.5844	226.3425	238.3147	249.7617	280.3056	322.9579	345.0936	370.672	427.0677	456.9327	586.6854	725.8568	786.3678	832.3946	867.6472	900.3626	904.8555	909.5099	950.5444	960.6547	1007.9035	1031.0479	1055.3289	1093.3745	1100.99	1134.4195	1187.9755	1214.615	1224.9066	1237.5522	1269.1491	1289.3487	1305.495	1335.7737	1362.6414	1376.8226	1408.031	1410.794	1413.842	1471.8338	1479.187	1491.7764	1495.1319	1496.2243	1497.5758	1500.7799	1507.1635	1509.1904	3004.3766	3019.0031	3023.1071	3031.8796	3033.91	3035.904	3037.857	3040.845	3083.7342	3085.7586	3087.2024	3089.035	3092.8543	3096.5581	3098.768	3106.4533
CCC1(C)CC(C)C1	CC[C@@]1(C)C[C@@H](C)C1	
InChI=1S/C8H16/c1-4-8(3)5-7(2)6-8/h7H,4-6H2,1-3H3	InChI=1S/C8H16/c1-4-8(3)5-7(2)6-8/h7H,4-6H2,1-3H3/t7-,8+
