21
gdb 60326	3.23295	0.70594	0.60775	1.2092	80.43	-0.2501	-0.0933	0.1568	1848.1024	0.178417	-424.258157	-424.247284	-424.24634	-424.295766	37.773	
C	 0.2303276597	 1.3932453108	-0.3049063618	-0.384385
C	-0.029972553	-0.093167459	-0.0194523661	 0.033565
C	 0.734875274	-0.543825695	 1.2323318493	-0.389396
C	-1.5280447592	-0.4119863201	 0.1299172934	-0.17069
C	-2.3546874286	-0.1692676127	-1.1324182503	-0.319263
C	-3.7935468785	-0.604843623	-1.004899214	 0.282499
O	-4.2851180633	-1.1206445204	-0.0271528601	-0.275783
C	-4.7051240711	-0.372695267	-2.2206171763	 0.094633
O	-4.3374437599	 0.1418256513	-3.2434714151	-0.220096
H	 1.303745516	 1.5922866347	-0.3871108883	 0.113892
H	-0.23511542	 1.7251096929	-1.2380357994	 0.114284
H	-0.1610861314	 2.020174389	 0.5056592875	 0.112953
H	 0.3516618573	-0.6726981973	-0.8733028695	 0.07122
H	 0.3904366846	 0.0023984641	 2.1185742184	 0.114119
H	 0.5921174402	-1.6122447431	 1.4246348633	 0.111978
H	 1.8091959032	-0.3609681095	 1.1272294636	 0.110564
H	-1.6472467309	-1.4601111102	 0.4268482011	 0.108498
H	-1.9478513962	 0.1773566811	 0.9552829879	 0.105557
H	-2.361011167	 0.8853166046	-1.4368593055	 0.141513
H	-1.9316102455	-0.6945961062	-2.001272209	 0.137389
H	-5.7429005503	-0.7308795448	-2.0504464892	 0.106949
24.8344	68.0377	99.7083	110.7123	132.7916	209.5775	225.0104	253.0328	255.5	376.5937	409.7197	440.4827	462.6809	511.6125	642.4872	737.3155	800.493	856.0764	908.335	929.8089	960.8687	966.9213	1008.6853	1058.3553	1129.8841	1131.0627	1167.8673	1195.8336	1222.6725	1302.4423	1309.2383	1361.2296	1364.2044	1371.4865	1400.1941	1403.904	1425.258	1437.6543	1482.0074	1489.1906	1496.3236	1506.5091	1511.7387	1802.0167	1825.1119	2920.0026	2992.1092	3018.3626	3024.5262	3027.8003	3033.5655	3049.563	3074.0664	3089.6628	3095.5674	3101.4062	3103.8615
CC(C)CCC(=O)C=O	CC(C)CCC(=O)C=O	
InChI=1S/C7H12O2/c1-6(2)3-4-7(9)5-8/h5-6H,3-4H2,1-2H3	InChI=1S/C7H12O2/c1-6(2)3-4-7(9)5-8/h5-6H,3-4H2,1-2H3
