18
gdb 94748	3.8838	1.15066	1.00728	4.5158	76.91	-0.284	0.0058	0.2898	1203.4629	0.148216	-401.965408	-401.957212	-401.956268	-401.998066	31.216	
C	 0.0524870518	 1.5755238324	 0.0277997058	-0.406692
C	 0.0355958032	 0.0456490337	-0.0020719118	-0.000767
C	 0.8043492767	-0.57186169	-1.2002854213	-0.240274
C	 1.2856244863	-1.965962984	-0.7362160266	-0.299869
C	 1.4375177774	-1.8003779599	 0.7685157203	 0.2902
O	 2.127387925	-0.6004189979	 1.1535918427	-0.282987
C	 0.6948222933	-0.6006908387	 1.2039414799	-0.011453
C	 1.6437271045	-2.9513581131	 1.6139563733	 0.220308
N	 1.799784797	-3.8969964946	 2.2601151165	-0.332946
H	 1.0790402886	 1.9455714311	 0.1135501278	 0.134612
H	-0.3818571722	 1.987474064	-0.8883084915	 0.121993
H	-0.5214685451	 1.9661230646	 0.8742623613	 0.119594
H	-1.0063175145	-0.3037469495	-0.015497447	 0.086142
H	 0.1872681001	-0.6271441737	-2.0997871329	 0.109549
H	 1.6688554016	 0.05490013	-1.4319275957	 0.124321
H	 0.5356898143	-2.741559897	-0.9274195298	 0.12512
H	 2.2172161914	-2.2796523771	-1.2145302609	 0.128332
H	 0.2680697406	-0.5168425503	 2.2003847198	 0.114817
109.1524	142.5526	163.4127	235.5442	262.3441	324.7484	384.3071	448.9485	528.0647	558.7968	595.2755	626.4335	694.8537	822.1996	850.2307	888.9362	930.2382	949.6995	972.8517	995.0416	1033.9698	1060.9568	1133.5877	1143.7192	1186.7393	1211.4185	1227.8827	1285.5385	1315.962	1327.3603	1337.6593	1368.8813	1407.8283	1430.0251	1482.7364	1494.1395	1499.201	1502.2809	2359.8196	3013.7532	3036.1138	3052.2607	3072.1974	3101.1401	3105.0631	3111.2415	3120.8402	3153.1715
CC1CCC2(OC12)C#N	C[C@H]1CC[C@]2(O[C@@H]12)C#N	
InChI=1S/C7H9NO/c1-5-2-3-7(4-8)6(5)9-7/h5-6H,2-3H2,1H3	InChI=1S/C7H9NO/c1-5-2-3-7(4-8)6(5)9-7/h5-6H,2-3H2,1H3/t5-,6-,7-/m0/s1
