16
gdb 100612	3.2452	0.88182	0.72861	2.6768	65.35	-0.2685	-0.0418	0.2266	1489.8866	0.122052	-512.178884	-512.169255	-512.168311	-512.214433	33.257	
O	 0.1778892	 1.3568643731	-0.052327679	-0.414468
C	 0.1282433389	-0.0431502086	 0.0579097261	-0.066255
C	-1.3448243077	-0.5100300584	 0.0876484248	-0.007628
O	-2.0284937645	 0.0379326059	-1.0175166754	-0.441996
C	-1.438564275	-2.0197335194	 0.0508005164	 0.440625
O	-1.8566073989	-2.6351688369	-0.8973453307	-0.359999
O	-0.9616203958	-2.5744612414	 1.1946200222	-0.20059
C	-0.9473416239	-3.9521604606	 1.2996592218	 0.117662
N	-0.4940270458	-4.4459011889	 2.3601229191	-0.408819
H	-0.4108212347	 1.584388713	-0.7837224043	 0.294535
H	 0.638822163	-0.5394520782	-0.7847917786	 0.089943
H	 0.6357201009	-0.3263284447	 0.9838739308	 0.131618
H	-1.8063047063	-0.1415972615	 1.0121530571	 0.125242
H	-2.1810414729	-0.6914271161	-1.6361741532	 0.300592
H	-1.3477047703	-4.4472341957	 0.4155194255	 0.151938
H	-0.5381554668	-5.4632249617	 2.3183244773	 0.2476
57.2024	95.3926	103.3302	110.9917	170.6345	223.767	316.4171	351.9894	370.4136	381.9399	492.6678	506.9163	566.8899	684.5483	805.0091	853.6814	884.1382	964.7201	1002.5996	1066.2289	1069.3615	1093.5909	1129.8816	1207.5706	1223.1627	1251.5999	1276.0805	1321.1572	1385.7802	1389.2008	1431.8272	1441.5592	1503.0889	1750.9756	1817.5232	2962.7275	3045.5997	3101.1682	3146.4559	3510.327	3731.6882	3774.6432
OCC(O)C(=O)OC=N	OC[C@@H](O)C(=O)O[CH][NH]	
InChI=1S/C4H7NO4/c5-2-9-4(8)3(7)1-6/h2-3,5-7H,1H2	InChI=1S/C4H7NO4/c5-2-9-4(8)3(7)1-6/h2-3,5-7H,1H2/t3-/m1/s1
