15
gdb 132272	1.9439	1.73723	0.92265	4.6302	72.86	-0.2196	-0.035	0.1846	1175.7089	0.112908	-461.994979	-461.987237	-461.986293	-462.027364	29.28	
C	-0.0167054609	 1.517187342	 0.0418327821	-0.491748
C	 0.0000691582	 0.0212837355	-0.0622117819	 0.439309
C	-0.050382399	-0.6643717156	-1.2404958973	-0.397164
C	-0.0262885947	-2.0821303116	-1.1809540947	 0.388515
F	-0.0766294928	-2.7291923022	-2.3448768806	-0.070999
C	 0.0437319811	-2.783549287	-0.0197622446	-0.436988
C	 0.0983944419	-2.0875092181	 1.2460904575	 0.450456
O	 0.1627662163	-2.5793340395	 2.3595210433	-0.402197
N	 0.0704876667	-0.6777690499	 1.1059094492	-0.426619
H	 0.888322351	 1.8857130365	 0.5381328737	 0.148757
H	-0.0744730696	 1.9722136106	-0.9478370197	 0.148452
H	-0.8763612627	 1.8596191989	 0.6291207082	 0.148749
H	-0.1067738157	-0.1562119589	-2.1920545517	 0.11667
H	 0.0602366403	-3.8644100177	-0.0090645942	 0.127777
H	 0.1083941899	-0.1846301831	 1.9879216307	 0.257027
122.6932	165.3311	206.2147	224.2321	286.2691	355.4773	492.2975	514.7488	554.4252	557.8512	610.2382	638.0019	704.7319	751.1838	789.7595	860.77	925.1143	991.1836	1033.8848	1050.4726	1063.5428	1166.7247	1207.1852	1244.2908	1311.205	1416.7585	1442.8523	1463.1506	1479.8524	1510.6606	1614.9991	1675.461	1787.0452	3034.576	3088.5128	3143.2021	3236.8893	3240.1654	3598.9868
CC1=CC(F)=CC(=O)N1	Cc1cc(F)cc(=O)[nH]1	
InChI=1S/C6H6FNO/c1-4-2-5(7)3-6(9)8-4/h2-3H,1H3,(H,8,9)	InChI=1S/C6H6FNO/c1-4-2-5(7)3-6(9)8-4/h2-3H,1H3,(H,8,9)
