19
gdb 120428	5.0599	0.7908	0.72352	3.9827	80.21	-0.2392	-0.0491	0.1901	1577.4215	0.158271	-423.055248	-423.046174	-423.04523	-423.090222	32.725	
C	-0.071549206	 1.5131889934	-0.0199364044	-0.384282
C	 0.1033468277	 0.0054456005	 0.0443016648	-0.042634
O	 0.5967397373	-0.4375112748	-1.2081780813	-0.254104
C	 0.7431938116	-1.8422344118	-1.3241056905	 0.088741
C	 0.8874086655	-2.2366021858	-2.8014578062	-0.364028
C	 2.1145353763	-3.156264444	-2.8640404586	 0.376099
O	 2.4788725105	-3.7982055527	-3.8200651987	-0.324809
C	 2.7574732632	-3.0989833529	-1.5262444743	-0.176905
C	 2.0185339667	-2.3691286932	-0.6856479288	-0.071545
H	 0.885306366	 2.001883813	-0.2235462325	 0.129947
H	-0.7706749322	 1.783670229	-0.8160502976	 0.129681
H	-0.4602498644	 1.8919590615	 0.9299436641	 0.11715
H	 0.7960943586	-0.2620759996	 0.8581537336	 0.088445
H	-0.8577220429	-0.4892714763	 0.2635601694	 0.090421
H	-0.1296804535	-2.3353788048	-0.8641085287	 0.080975
H	 0.0091271394	-2.7268808639	-3.2261735347	 0.128757
H	 1.0849235414	-1.336030304	-3.3910236151	 0.150601
H	 3.6940247898	-3.5991168392	-1.3128983504	 0.11937
H	 2.263715095	-2.1616837043	 0.3502460999	 0.118121
53.0756	58.6819	93.0838	191.1986	228.8706	251.8701	342.9995	361.2296	453.0331	494.5201	595.3534	665.8889	742.8878	811.9167	819.7055	831.9295	858.3043	914.6642	976.8601	1006.9632	1043.1861	1057.4231	1103.9523	1128.2795	1155.2818	1173.7443	1186.5708	1204.7431	1255.4697	1296.974	1316.0995	1343.5491	1371.3773	1402.6886	1434.1304	1449.9723	1482.8624	1499.4647	1528.0579	1652.4645	1821.9303	2954.9412	2963.6748	2989.9475	3046.5118	3071.7687	3121.3668	3123.6803	3124.2127	3192.0273	3223.4001
CCOC1CC(=O)C=C1	CCO[C@H]1CC(=O)C=C1	
InChI=1S/C7H10O2/c1-2-9-7-4-3-6(8)5-7/h3-4,7H,2,5H2,1H3	InChI=1S/C7H10O2/c1-2-9-7-4-3-6(8)5-7/h3-4,7H,2,5H2,1H3/t7-/m1/s1
