23
gdb 86387	2.41552	1.42847	1.07938	1.4798	85.02	-0.2511	0.0773	0.3285	1229.5881	0.205771	-388.300805	-388.29139	-388.290446	-388.334254	37.01	
C	-0.0226318782	 1.5619351534	-0.0182403449	-0.402885
C	 0.0395809521	 0.0326395395	 0.0103270358	-0.021679
C	 0.7659693332	-0.586820382	-1.2035088401	-0.290405
C	 1.293258852	-1.9594081656	-0.724260533	 0.12149
O	 2.4918397112	-2.3724002029	-1.3702713915	-0.43835
C	 1.524054529	-1.781268221	 0.7620591409	-0.081273
C	 2.2644121131	-0.5374376689	 1.1954439164	-0.332043
C	 0.7544663395	-0.5647455402	 1.2310915737	 0.359444
C	 0.0376544464	-0.5270476174	 2.5600021285	-0.487917
H	 0.983929903	 1.9943235159	-0.0065736982	 0.115432
H	-0.5305462387	 1.9193234124	-0.9204552923	 0.109483
H	-0.567091892	 1.9582497391	 0.8450980934	 0.112466
H	-0.9914667686	-0.3501477122	 0.0296629701	 0.066094
H	 0.1181637454	-0.6663782886	-2.0821718777	 0.087989
H	 1.6256296133	 0.027351556	-1.4944207262	 0.106568
H	 0.5134559471	-2.7260109851	-0.8639989899	 0.059898
H	 2.2908254944	-2.5178010592	-2.3002761212	 0.278111
H	 1.6013412286	-2.6709069867	 1.3779064882	 0.077641
H	 2.7753525652	-0.5854492855	 2.1513175775	 0.104468
H	 2.7888320133	 0.0500600117	 0.4497788334	 0.113324
H	-0.1136548022	 0.5021775965	 2.9061358358	 0.117308
H	-0.9489412252	-1.0017589436	 2.4932202903	 0.111159
H	 0.607991328	-1.0507087756	 3.333772371	 0.113675
115.3655	136.7049	211.3242	214.2137	235.778	250.668	281.7266	307.2608	399.083	426.3571	468.1114	536.0369	565.8924	604.4938	661.393	815.803	859.2953	877.8043	926.2924	940.8591	945.0833	971.2155	1007.6965	1041.384	1054.0254	1061.0294	1085.1944	1092.6916	1105.752	1148.8009	1153.8249	1195.2266	1244.1021	1265.8787	1270.0121	1315.4266	1337.1743	1358.7726	1369.8623	1405.8219	1408.1147	1423.0292	1432.2872	1486.7481	1488.9911	1494.7677	1499.2338	1502.093	1511.6844	2959.5582	2991.4001	3018.9398	3028.0712	3041.4949	3076.2742	3083.9738	3094.5271	3095.424	3098.5273	3132.8213	3164.3579	3213.105	3814.1728
CC1CC(O)C2CC12C	C[C@H]1C[C@@H](O)[C@H]2C[C@@]12C	
InChI=1S/C8H14O/c1-5-3-7(9)6-4-8(5,6)2/h5-7,9H,3-4H2,1-2H3	InChI=1S/C8H14O/c1-5-3-7(9)6-4-8(5,6)2/h5-7,9H,3-4H2,1-2H3/t5-,6+,7+,8-/m0/s1
