19
gdb 91671	3.25152	1.29057	1.13929	4.7717	79.77	-0.2508	0.0189	0.2697	1133.2825	0.161641	-382.051538	-382.043816	-382.042872	-382.083533	30.559	
C	-0.0834782054	 1.5340316518	 0.0344540741	-0.418947
C	 0.0723748822	 0.0205827888	 0.0184574655	 0.073874
C	 0.9790327806	-0.5736781065	-1.122909083	-0.266308
C	 1.9332880262	-1.3782971533	-0.22561346	-0.020838
C	 0.9467775322	-1.960427796	 0.8157095896	-0.198274
N	 0.729505787	-0.5216398479	 1.2585600952	-0.129112
C	 2.1993315869	-0.3211357729	 0.8901605572	-0.126578
C	 3.1115022498	-0.7212071723	 1.9532661009	 0.289666
N	 3.8684741517	-1.0271678672	 2.7713808846	-0.330796
H	 0.8785525869	 2.0565474709	 0.0496591553	 0.119425
H	-0.6175925553	 1.8643337845	-0.8622082421	 0.12223
H	-0.6536514608	 1.849567242	 0.9124607637	 0.135678
H	-0.9247906832	-0.4284159575	-0.0130522826	 0.087862
H	 0.4288502735	-1.2101778852	-1.8206658439	 0.108432
H	 1.4941737667	 0.2001413613	-1.7000872702	 0.106547
H	 2.7348783422	-1.9512271573	-0.6926098952	 0.085931
H	 0.0465372153	-2.4685643704	 0.4607885187	 0.107218
H	 1.4192602421	-2.5345217776	 1.6137581159	 0.138666
H	 2.4561042613	 0.6927777649	 0.5743090864	 0.115324
134.4865	162.3617	206.8027	238.5952	295.9113	399.1314	461.1183	503.7102	534.2432	537.4895	653.8594	804.483	830.5816	849.7683	864.6493	894.9806	911.4776	941.972	952.0298	1002.7947	1045.7152	1054.4175	1075.9625	1106.0135	1117.0943	1151.3297	1184.5984	1205.0223	1255.8156	1258.6378	1267.0481	1301.7232	1315.4268	1360.7325	1386.3552	1416.9801	1493.158	1495.2468	1503.2915	1523.6446	2358.2385	3038.9479	3055.1111	3057.5512	3070.4199	3087.5865	3102.523	3107.1223	3116.2447	3120.5413	3139.2768
CC1CC2CN1C2C#N	C[C@H]1C[C@@H]2CN1[C@H]2C#N	
InChI=1S/C7H10N2/c1-5-2-6-4-9(5)7(6)3-8/h5-7H,2,4H2,1H3	InChI=1S/C7H10N2/c1-5-2-6-4-9(5)7(6)3-8/h5-7H,2,4H2,1H3/t5-,6+,7-/m0/s1
