16
gdb 27128	2.93402	1.21121	0.91	2.3705	74.67	-0.1933	-0.0211	0.1721	1230.1837	0.123717	-437.92529	-437.916433	-437.915489	-437.96015	31.594	
O	-0.2489902238	 1.4432045462	 0.1588975873	-0.451511
C	-0.0728170758	 0.0899485705	 0.0943220059	 0.24654
C	 0.0498067212	-0.5962314892	-1.096430031	 0.202021
C	 0.0440113068	-0.1194396448	-2.5141014606	-0.385102
C	 1.4037147214	-0.4306814704	-3.116840789	 0.151074
O	 1.628918404	-1.3977046789	-3.8019668713	-0.255463
N	 0.2174446431	-1.9295768174	-0.7639498065	-0.287775
C	 0.1951297234	-2.0852384393	 0.590249745	-0.070078
C	 0.0115294351	-0.8435800722	 1.1624846088	-0.280358
H	-0.372240189	 1.6930896937	 1.0786729766	 0.29851
H	-0.7272465774	-0.6125822122	-3.11740384	 0.12122
H	-0.1339121325	 0.959928604	-2.512847923	 0.138046
H	 2.2160340001	 0.2672036516	-2.8153603625	 0.085686
H	 0.3808222635	-2.6580663997	-1.4378940596	 0.271922
H	 0.309017843	-3.0560784764	 1.0443024791	 0.123468
H	-0.0585398031	-0.6307405256	 2.2187003408	 0.091801
32.7742	61.3477	146.9883	190.1908	223.1485	281.4374	349.6388	453.5409	457.4213	493.3132	632.0766	641.6195	680.1087	711.2382	736.1731	790.4458	874.0887	912.6222	988.7532	1051.12	1081.4753	1091.9737	1155.8526	1188.4895	1250.8534	1286.0668	1321.3859	1331.6245	1416.617	1455.3695	1461.446	1494.3405	1517.8436	1665.0003	1816.0763	2889.2137	3032.9697	3105.4153	3239.3519	3271.6881	3674.5254	3849.7945
OC1=C(CC=O)NC=C1	Oc1c(CC=O)[nH]cc1	
InChI=1S/C6H7NO2/c8-4-2-5-6(9)1-3-7-5/h1,3-4,7,9H,2H2	InChI=1S/C6H7NO2/c8-4-2-5-6(9)1-3-7-5/h1,3-4,7,9H,2H2
