15
gdb 46728	3.26989	1.6909	1.27493	3.5171	64.67	-0.2534	-0.0035	0.25	939.8854	0.114315	-457.729618	-457.72322	-457.722276	-457.760571	25.213	
O	-0.0430888829	-0.0263593987	-0.3225258988	-0.324741
C	-0.0265089732	 1.1216987688	 0.0247465557	 0.404072
O	-1.1676434461	 1.7145113781	 0.4552952148	-0.235556
C	-1.15309525	 3.0878071007	 0.8723799334	-0.113218
C	 0.2051727591	 3.7458624236	 0.7771658972	-0.046792
C	 1.0951404981	 3.457925916	-0.459028469	 0.035478
O	 2.2882555737	 3.7961185478	 0.3378253249	-0.305463
C	 1.4600133757	 2.9465133837	 1.2125032994	 0.035488
C	 1.2123345179	 1.9823221789	 0.0177427373	-0.153326
H	-1.8810598793	 3.6199448	 0.2492986539	 0.130553
H	-1.519494735	 3.1132689563	 1.9050661794	 0.130558
H	 0.193390351	 4.7886652336	 1.0987919063	 0.102024
H	 1.0309363853	 3.8407257456	-1.4770502096	 0.112807
H	 1.8354058371	 2.7131691172	 2.2083232924	 0.112808
H	 2.0812722385	 1.4342167782	-0.3395982772	 0.115307
128.392	169.3477	319.5936	399.8661	468.9048	473.8303	614.5168	694.1557	726.8965	746.8441	831.2691	864.3525	896.8704	907.922	926.4619	973.9767	1000.5182	1027.3704	1062.7626	1122.25	1147.0629	1152.7643	1189.5142	1199.3348	1207.7437	1257.3795	1280.2747	1284.5689	1293.1135	1379.7859	1429.8956	1513.0847	1852.6205	3035.425	3071.9943	3111.2215	3127.057	3131.4579	3158.2881
O=C1OCC2C3OC2C13	O=C1OC[C@@H]2[C@H]3O[C@@H]2[C@@H]13	
InChI=1S/C6H6O3/c7-6-3-4-2(1-8-6)5(3)9-4/h2-5H,1H2	InChI=1S/C6H6O3/c7-6-3-4-2(1-8-6)5(3)9-4/h2-5H,1H2/t2-,3+,4-,5+
