20
gdb 110890	2.52033	1.50917	1.13452	1.91	78.74	-0.2169	-0.0116	0.2053	1148.7795	0.172423	-403.132698	-403.124617	-403.123672	-403.165485	31.395	
C	-0.0720640697	 1.5835819936	 0.0015709975	-0.384996
C	-0.0446970456	 0.0528879588	-0.0212944888	-0.20613
C	 0.7733661438	-0.506322939	-1.1823530952	-0.066953
N	 2.2498688243	-0.2480280303	-1.1083141812	-0.1328
C	 2.7257020451	-1.1442523605	-2.2371452095	-0.18981
C	 2.2657205538	-2.337858728	-1.3493539018	-0.146718
C	 2.7038726712	-1.382348258	-0.2011618963	-0.195563
C	 0.769549367	-2.0515779533	-1.312282472	 0.427861
O	-0.1655097076	-2.8051150632	-1.3493315844	-0.341447
H	 0.9420813507	 1.987213441	 0.0650692844	 0.13602
H	-0.5329955329	 1.9821841382	-0.9089768985	 0.113981
H	-0.6461242608	 1.9536454381	 0.8563491664	 0.111888
H	 0.3449067084	-0.3257968477	 0.9310672139	 0.099913
H	-1.058914943	-0.3522132968	-0.1144765525	 0.121434
H	 0.4002155208	-0.0672196643	-2.1166097885	 0.098196
H	 2.2387896856	-0.9770453422	-3.2020459955	 0.113311
H	 3.8109196801	-1.0778578453	-2.3427902297	 0.118005
H	 2.5820283487	-3.3732403126	-1.4631600697	 0.086693
H	 3.786474782	-1.3382822368	-0.0645456009	 0.119871
H	 2.2070627581	-1.4476571716	 0.7691721323	 0.117243
84.2982	145.3963	153.328	216.4426	303.1802	305.7283	487.4339	501.8275	525.5848	602.4348	683.6741	758.9934	792.9573	824.4813	852.5439	859.0837	882.8896	908.3006	965.7525	1005.4657	1012.9172	1036.0436	1071.8369	1083.9444	1130.1182	1145.4779	1172.5821	1186.4506	1204.2617	1234.9821	1256.165	1257.5946	1288.467	1299.2533	1345.1654	1389.0586	1409.7935	1483.3945	1495.7644	1502.7121	1509.3776	1534.775	1868.2173	3024.9908	3035.9295	3038.61	3056.4299	3068.8601	3072.7333	3103.2014	3119.1554	3121.1061	3128.7917	3136.8647
CCC1N2CC(C2)C1=O	CC[C@H]1N2C[C@@H](C2)C1=O	
InChI=1S/C7H11NO/c1-2-6-7(9)5-3-8(6)4-5/h5-6H,2-4H2,1H3	InChI=1S/C7H11NO/c1-2-6-7(9)5-3-8(6)4-5/h5-6H,2-4H2,1H3/t6-/m1/s1
