16
gdb 67930	2.27204	1.81029	1.26293	5.3692	71.21	-0.2493	-0.0547	0.1946	1017.7659	0.122012	-437.876997	-437.86867	-437.867726	-437.909777	30.746	
C	-0.0552235838	 1.503785545	-0.0405646759	-0.485858
C	 0.0551344535	 0.0087382201	-0.0317669792	 0.311652
C	-0.6940629875	-0.924796246	-0.9896706488	-0.430539
C	-1.0252452042	-1.7404327738	 0.2679149238	 0.438511
O	-1.7500555232	-2.638093912	 0.5422308829	-0.290591
N	-0.3307004634	-0.8249321359	 1.1919125781	-0.215409
C	 1.0923619544	-0.7139226188	 0.7633291498	-0.148847
C	 1.8766918882	-1.8626103897	 0.2230602998	 0.149372
O	 1.398954256	-2.8655009488	-0.2467437018	-0.249164
H	 0.5164049483	 1.9281841555	-0.8731447907	 0.135893
H	-1.0992681618	 1.8117190407	-0.1576182963	 0.139272
H	 0.3255478892	 1.9309255061	 0.8908067594	 0.139685
H	-1.5879661965	-0.4619245867	-1.4165138678	 0.140124
H	-0.1329209452	-1.4324835939	-1.7740369073	 0.149838
H	 1.660276744	-0.087641025	 1.4484044729	 0.116965
H	 2.9770354421	-1.7136239167	 0.2691082412	 0.099097
124.888	130.9096	181.4611	194.5495	231.0637	309.367	318.356	421.7815	495.281	546.8842	612.4208	635.4035	703.7844	783.7649	861.4101	893.3978	943.3173	965.4533	1005.241	1012.1987	1070.9299	1086.1635	1114.1112	1155.8363	1216.9882	1285.0053	1303.7001	1404.9585	1418.0873	1426.5347	1460.9437	1482.074	1489.5838	1814.0787	1936.7226	2902.0428	3036.3626	3079.1874	3101.306	3120.7581	3137.4165	3143.4553
CC12CC(=O)N1C2C=O	C[C@]12CC(=O)N1[C@H]2C=O	
InChI=1S/C6H7NO2/c1-6-2-5(9)7(6)4(6)3-8/h3-4H,2H2,1H3	InChI=1S/C6H7NO2/c1-6-2-5(9)7(6)4(6)3-8/h3-4H,2H2,1H3/t4-,6+,7?/m0/s1
