20
gdb 62496	2.08425	1.42313	1.17896	4.022	81.7	-0.2271	0.0354	0.2624	1173.2841	0.169932	-399.330308	-399.320105	-399.319161	-399.36447	38.56	
C	-0.0742503428	 1.5645679698	-0.0612054612	-0.443057
C	-0.0114996502	 0.0541951801	 0.0203938605	 0.294542
N	-1.1964656345	-0.5630520522	-0.4972575313	-0.564376
C	 1.3703201653	-0.6462626101	-0.1967008229	-0.284581
C	 2.5686920388	 0.1023623665	-0.408419976	 0.296356
N	 3.5303568778	 0.7266152568	-0.5786410425	-0.362634
C	 0.6671904336	-0.6419214014	 1.1717016447	 0.226389
C	 1.2743437766	 0.1366648032	 2.323716838	-0.461247
N	 0.1016189869	-1.9359802102	 1.5017440264	-0.552166
H	 0.8630931605	 2.0448294648	 0.2207603272	 0.140884
H	-0.2968206062	 1.8675983345	-1.0903849522	 0.122619
H	-0.8787983882	 1.9413843405	 0.5769117656	 0.129302
H	-1.2851926431	-0.4034256247	-1.4956187117	 0.230155
H	-1.1757649826	-1.5618503911	-0.3200468771	 0.244721
H	 1.3225704227	-1.5916425833	-0.7260172887	 0.123233
H	 1.7620401981	 1.0607155618	 2.0091574211	 0.143471
H	 0.5014110999	 0.3911919763	 3.0577924557	 0.118838
H	 2.0299181867	-0.4755723288	 2.8288729576	 0.121758
H	 0.8126512699	-2.5296662139	 1.9200535663	 0.236545
H	-0.6316911292	-1.8222576687	 2.1973304704	 0.239247
119.7349	138.824	171.7012	176.751	196.8684	224.6405	273.1547	324.6432	358.7492	387.1843	402.8866	419.2041	451.9947	484.0177	550.1562	612.7426	682.0605	703.4108	838.9152	852.9698	887.2086	954.1453	972.1817	1007.4773	1044.8926	1071.2863	1090.3982	1109.7841	1201.6089	1251.5079	1270.7347	1299.1552	1346.2022	1415.0244	1425.3347	1434.1286	1481.8699	1484.1044	1501.2741	1509.3489	1636.6773	1652.6295	2332.6616	3031.3026	3042.8783	3090.1082	3102.5264	3133.2052	3149.2043	3172.8832	3479.021	3497.5374	3555.5947	3587.2059
CC1(N)C(C#N)C1(C)N	C[C@@]1(N)[C@@H](C#N)[C@]1(C)N	
InChI=1S/C6H11N3/c1-5(8)4(3-7)6(5,2)9/h4H,8-9H2,1-2H3	InChI=1S/C6H11N3/c1-5(8)4(3-7)6(5,2)9/h4H,8-9H2,1-2H3/t4-,5-,6+
