27
gdb 60168	3.10026	0.78558	0.70805	0.0518	97.49	-0.2541	0.0826	0.3367	1796.2912	0.249799	-353.564133	-353.552704	-353.55176	-353.600657	43.043	
C	 0.0101836834	 1.3679104949	 0.5188048323	-0.382292
C	-0.0311684581	-0.0619888183	-0.0379795671	 0.058904
C	-1.4744643723	-0.5821806608	-0.0758653309	-0.389572
C	 0.6161000384	-0.1714210999	-1.4347060127	-0.214535
C	 2.0967658963	 0.1515186012	-1.4675712796	-0.027727
C	 3.1351772236	-0.8729118592	-1.0578354642	-0.32757
C	 3.066869787	-0.4024136715	-2.494362318	 0.332238
C	 2.6004652576	-1.3770029961	-3.5604184798	-0.452856
C	 4.1606259703	 0.534847202	-2.9750505711	-0.44535
H	 1.033697128	 1.7371930504	 0.6306183033	 0.114126
H	-0.5257001046	 2.059954719	-0.1427049754	 0.108102
H	-0.4663176337	 1.4174060112	 1.5036058556	 0.107548
H	 0.5445160848	-0.7061620238	 0.6416968371	 0.07317
H	-2.0917052753	 0.0230835009	-0.7510818636	 0.109682
H	-1.5175978038	-1.6186318024	-0.4275440887	 0.106693
H	-1.9370260405	-0.5450251231	 0.9161424068	 0.107075
H	 0.4512983282	-1.1886762925	-1.8071731151	 0.086725
H	 0.0779855582	 0.4944763283	-2.1257889895	 0.087977
H	 2.3246268015	 1.1716102508	-1.1671759565	 0.0768
H	 3.9718793359	-0.55701351	-0.442783481	 0.101291
H	 2.7846537498	-1.878352437	-0.8415599374	 0.101239
H	 1.8605867285	-2.0878037475	-3.1849411041	 0.11438
H	 2.1559759496	-0.8503672752	-4.4137119261	 0.111614
H	 3.4483822269	-1.9592935546	-3.9404229025	 0.11158
H	 5.04257272	-0.0256152725	-3.3085416165	 0.110431
H	 3.8174943812	 1.1435961051	-3.8205614313	 0.111033
H	 4.481189999	 1.2175241704	-2.181772684	 0.109292
44.7287	78.4906	115.3561	189.53	207.5868	217.4621	236.1807	256.1487	264.7301	311.5323	362.6724	384.8698	403.1316	413.0677	478.4262	492.8769	695.4662	808.6475	834.835	861.3978	888.3551	916.4487	928.3009	950.336	966.6888	968.9044	974.0127	1014.1146	1052.3903	1057.0564	1103.9205	1136.1977	1152.9651	1162.512	1190.0443	1195.5501	1258.1164	1291.3055	1314.6332	1338.027	1368.3135	1374.5618	1399.6351	1411.0226	1420.3677	1424.7149	1431.1938	1476.764	1482.3436	1488.9408	1491.848	1494.3109	1497.6195	1501.995	1505.6492	1512.5161	1514.7608	2995.4981	3008.0115	3016.2568	3021.8808	3023.6339	3027.4223	3059.0175	3073.5429	3077.2148	3085.7593	3091.5552	3095.844	3096.5525	3105.2732	3112.8326	3117.1003	3129.3101	3198.8671
CC(C)CC1CC1(C)C	CC(C)C[C@H]1CC1(C)C	
InChI=1S/C9H18/c1-7(2)5-8-6-9(8,3)4/h7-8H,5-6H2,1-4H3	InChI=1S/C9H18/c1-7(2)5-8-6-9(8,3)4/h7-8H,5-6H2,1-4H3/t8-/m0/s1
