17
gdb 103503	2.90891	1.3525	1.18906	1.5744	63.63	-0.2369	0.0628	0.2996	1075.6721	0.135366	-496.055709	-496.047469	-496.046525	-496.088633	31.181	
O	 0.2161930777	 0.9571998961	 0.7416967842	-0.429368
C	-0.1952107264	 0.4060001842	-0.5115741981	-0.140348
C	-1.4833071187	-0.3523847445	-0.3140097981	 0.319051
O	-2.4892555402	 0.4023737377	 0.2903564759	-0.473301
C	-2.0093072115	-1.3798623692	-1.2799164855	-0.010917
O	-1.0960412299	-1.866365135	-2.241457666	-0.252776
C	-0.4134400397	-2.9264583771	-1.5942429308	 0.019465
O	-0.3013681675	-2.5610182716	-0.2276396636	-0.254288
C	-1.4827574837	-1.8391174854	 0.0539991752	-0.056295
H	 0.5592936031	 0.2299554833	 1.2730711503	 0.293706
H	-0.3709705447	 1.2622339905	-1.1697222176	 0.12465
H	 0.5789576174	-0.2243525545	-0.9558109173	 0.116269
H	-2.0437107575	 0.8971149197	 0.9928011724	 0.290519
H	-3.0574004313	-1.3846303046	-1.5609536597	 0.117781
H	-0.9803883544	-3.8668580274	-1.6931198466	 0.098305
H	 0.5860517435	-3.0260029829	-2.0245584886	 0.124777
H	-2.1066698063	-2.2163204092	 0.8571833439	 0.11277
78.4981	142.7653	174.3568	266.2692	279.8628	313.2739	373.0008	394.0878	498.2806	515.6093	583.4578	727.945	744.8452	784.8955	869.2335	889.6928	947.6194	972.0269	1019.6082	1027.152	1048.1412	1072.4545	1085.8509	1109.9203	1159.5733	1181.8573	1225.72	1233.822	1265.5343	1277.9324	1333.1146	1374.6225	1409.7473	1416.3021	1468.7202	1485.8529	1535.4857	2969.1151	3060.6128	3105.4811	3111.8809	3162.5539	3172.3491	3745.1489	3804.5794
OCC1(O)C2OCOC12	OC[C@@]1(O)[C@H]2OCO[C@@H]12	
InChI=1S/C5H8O4/c6-1-5(7)3-4(5)9-2-8-3/h3-4,6-7H,1-2H2	InChI=1S/C5H8O4/c6-1-5(7)3-4(5)9-2-8-3/h3-4,6-7H,1-2H2/t3-,4+,5+
