21
gdb 58321	3.51228	0.71249	0.61992	1.0895	81.42	-0.2503	0.0583	0.3085	1799.5367	0.178441	-424.192927	-424.181795	-424.180851	-424.22952	40.377	
C	 0.0069768433	 1.5695517694	-0.0059649255	-0.405809
C	 0.0063952541	 0.0440142219	 0.0374786539	 0.10374
O	 0.7318771413	-0.4519235018	 1.1590126563	-0.424362
C	-1.4220825063	-0.5417214667	 0.0032236959	 0.102717
O	-2.149111516	-0.0477319279	-1.1207706143	-0.429306
C	-1.4230993034	-2.0709027321	 0.051408686	-0.196711
C	-2.846899995	-2.6524245932	 0.1502423333	-0.359782
C	-2.8695349249	-4.1090385981	 0.1165408973	 0.293866
C	-2.8605192015	-5.3107710243	 0.0847389359	-0.440745
H	 1.0315868829	 1.9497877968	-0.0302318186	 0.121587
H	-0.5359746708	 1.9335802524	-0.8806184713	 0.133158
H	-0.490549312	 1.9775658328	 0.8839725749	 0.105114
H	 0.549486736	-0.3447017733	-0.8363095425	 0.079048
H	 0.410519712	 0.0099024225	 1.941544781	 0.279962
H	-1.9686434853	-0.1512871457	 0.8747843553	 0.075719
H	-1.7491878049	-0.4240271675	-1.9136501932	 0.281129
H	-0.9348092854	-2.4589825867	-0.8536093714	 0.095642
H	-0.8149303914	-2.4028296828	 0.8962645538	 0.128683
H	-3.3188318688	-2.3009239674	 1.0775987738	 0.126262
H	-3.4544435229	-2.2487490698	-0.6679759271	 0.138478
H	-2.8655515308	-6.3720117986	 0.0589602866	 0.19161
52.1301	81.207	101.7991	107.9197	211.9728	229.692	251.8304	278.1509	319.2042	325.3871	343.4682	391.8844	439.4156	477.2085	506.3171	578.6109	613.6955	633.5265	772.3032	857.0922	909.1131	953.3738	968.9285	1020.3883	1059.2769	1063.6367	1095.0093	1124.6283	1154.7306	1170.3998	1228.9893	1271.3195	1302.5031	1317.1755	1340.6814	1379.8598	1393.064	1397.4466	1411.9001	1416.7991	1475.7277	1489.4633	1493.9647	1496.1287	2238.7208	2996.4677	3007.9761	3016.369	3024.9738	3028.9166	3061.2613	3101.1537	3110.5507	3138.1682	3507.7663	3789.1935	3797.8247
CC(O)C(O)CCC#C	C[C@@H](O)[C@@H](O)CCC#C	
InChI=1S/C7H12O2/c1-3-4-5-7(9)6(2)8/h1,6-9H,4-5H2,2H3	InChI=1S/C7H12O2/c1-3-4-5-7(9)6(2)8/h1,6-9H,4-5H2,2H3/t6-,7+/m1/s1
