23
gdb 39214	2.45323	1.82667	1.35985	0.1274	87.75	-0.2524	0.0816	0.334	1056.0608	0.210405	-351.14279	-351.135509	-351.134565	-351.173907	31.45	
C	-0.0880416388	 1.4829686195	 0.0719033432	-0.323106
C	 1.2892029378	 0.8503232819	 0.0353901248	-0.003486
C	 2.1995591084	 0.8964631502	 1.2618201188	-0.22559
C	 2.5922161637	-0.4609951393	 1.8752184969	-0.203342
C	 1.4177841002	-1.3695555594	 2.299905972	 0.018592
C	 0.7358386173	-2.1408523836	 1.1322137557	-0.217818
C	-0.3276407879	-1.0042782205	 1.050717145	-0.019289
C	 0.0584105175	-0.6367235131	 2.5127964629	-0.248665
C	 0.0456539267	-0.0124888235	-0.0319049368	 0.007677
H	-0.4061068338	 1.9012689814	 1.0223109799	 0.107885
H	-0.4442122195	 2.0343053397	-0.7920309065	 0.104707
H	 1.81961188	 0.9438497257	-0.9085048306	 0.077862
H	 3.1177118816	 1.430612661	 0.9909094557	 0.091261
H	 1.7344438655	 1.5066931396	 2.0437093727	 0.099898
H	 3.2305136584	-1.0182958504	 1.1765046882	 0.091861
H	 3.2168288463	-0.252378138	 2.7531201123	 0.088649
H	 1.7426288059	-2.0017840489	 3.1312954467	 0.059384
H	 1.3323935566	-2.324198543	 0.2330473825	 0.086021
H	 0.3060898749	-3.088194198	 1.4715760049	 0.087535
H	-1.3655897803	-1.3232616862	 0.9090518229	 0.059073
H	-0.5742551672	-1.1812179974	 3.2193066704	 0.092664
H	 0.0649101977	 0.4139855712	 2.8105985901	 0.090439
H	-0.1543059311	-0.417115219	-1.0228596517	 0.07779
185.1972	195.6023	316.892	340.6635	347.3481	393.4499	458.1837	493.8748	612.951	719.9005	729.3687	789.2897	803.4954	837.5075	846.4922	879.4331	912.9568	924.4358	941.5348	954.302	988.4595	1032.5291	1036.7777	1062.4753	1082.1387	1092.1537	1117.403	1130.3158	1145.012	1157.9314	1176.0618	1180.5694	1228.3788	1255.2798	1261.5274	1266.2772	1282.8919	1292.9695	1349.4272	1360.0749	1376.2797	1384.2818	1399.5163	1419.0969	1472.1715	1486.1969	1488.1357	1500.7905	1517.7121	3009.9808	3031.8971	3035.6413	3042.5194	3044.9976	3054.5759	3065.0346	3069.2438	3095.1886	3109.1713	3110.1546	3122.2507	3136.0156	3204.7361
C1C2CCC3CC(C3)C12	C1[C@H]2CC[C@@H]3C[C@@H](C3)[C@@H]12	
InChI=1S/C9H14/c1-2-7-5-9(7)8-3-6(1)4-8/h6-9H,1-5H2	InChI=1S/C9H14/c1-2-7-5-9(7)8-3-6(1)4-8/h6-9H,1-5H2/t6-,7-,8+,9+/m1/s1
