13
gdb 129747	3.28437	1.17767	0.89049	3.5845	63.53	-0.2273	-0.027	0.2003	1201.4309	0.088618	-489.87763	-489.869519	-489.868575	-489.911396	28.224	
N	-0.1060668071	 1.3831036059	 0.3024187544	-0.618125
C	-0.0307786275	 0.0089334567	 0.0565413973	 0.018438
C	-1.0303384314	-0.8753361586	-0.2114003078	 0.459142
O	-2.3446883507	-0.6561728709	-0.4492858063	-0.230553
C	-3.2660580349	-1.3888367624	 0.2744666185	 0.163416
O	-4.4294765984	-1.2749236255	 0.0752526109	-0.236028
O	-0.5664992772	-2.1370062698	-0.296837383	-0.21267
N	 0.8079879291	-2.1094810405	-0.0789319514	-0.139839
C	 1.104827497	-0.8476713652	 0.12838293	 0.013418
H	 0.6418348516	 1.9040355594	-0.1379289866	 0.256403
H	-0.9964822777	 1.7733551113	 0.0194868198	 0.258981
H	-2.7841899683	-2.0499440897	 1.0112215034	 0.128616
H	 2.1325959154	-0.5773217807	 0.3283687808	 0.138801
45.749	117.5331	143.8331	193.977	260.5304	293.738	382.2682	474.8324	516.6481	635.9126	678.4248	692.7574	771.7577	842.1193	900.1137	942.5347	955.1407	1030.3265	1060.0129	1098.2636	1225.7372	1247.477	1309.6601	1410.1646	1451.2871	1513.942	1653.6702	1728.3428	1891.4448	3032.4972	3239.9969	3534.8451	3623.0517
NC1=C(OC=O)ON=C1	Nc1c(OC=O)onc1	
InChI=1S/C4H4N2O3/c5-3-1-6-9-4(3)8-2-7/h1-2H,5H2	InChI=1S/C4H4N2O3/c5-3-1-6-9-4(3)8-2-7/h1-2H,5H2
