17
gdb 71453	3.95572	1.35791	1.20973	2.6841	71.29	-0.2354	-0.0108	0.2246	1024.0809	0.136684	-421.821692	-421.814444	-421.8135	-421.853118	29.264	
O	-0.0418432121	 1.3789608375	-0.0565988366	-0.463973
C	 0.0460694591	 0.000793544	-0.0470312102	 0.398242
C	 0.761650922	-0.8295031745	-1.1109313707	-0.315402
C	-0.2646673285	-1.9926236265	-0.8093940913	-0.149723
C	-1.1034831508	-0.9773761578	 0.0075698094	-0.145194
C	-0.1976754116	-0.8089340022	 1.2194485418	-0.124436
C	 0.585758005	-2.0787766891	 1.4951037199	-0.356784
C	 0.3860562604	-2.9151622393	 0.2127585553	 0.42273
O	 0.6978290599	-4.0665236014	 0.0602358351	-0.324035
H	 0.6863026235	 1.7375880789	 0.4628199426	 0.287082
H	 0.5775647979	-0.4196601597	-2.106278725	 0.12386
H	 1.8309318988	-1.0420779323	-0.9966790653	 0.099668
H	-0.6914357328	-2.5030581993	-1.6687336846	 0.092543
H	-2.1743338266	-0.8309595965	-0.0052031239	 0.102418
H	-0.5912534585	-0.2237428555	 2.0427319969	 0.095573
H	 1.6554766992	-1.9335678441	 1.6832004488	 0.125344
H	 0.1827818154	-2.6318321722	 2.350004288	 0.132084
110.2501	217.4966	275.612	298.6056	370.9772	431.5242	456.8384	507.8564	618.4809	666.4366	674.8496	727.263	763.6947	840.3204	876.8609	912.3379	924.608	963.3359	969.4654	987.4831	1033.3456	1040.0986	1090.883	1159.6063	1173.9372	1179.7884	1196.0807	1222.0992	1249.8329	1266.9159	1277.9356	1302.9935	1323.2052	1447.1509	1458.2113	1502.4569	1849.6355	3035.6819	3046.4074	3085.347	3113.4778	3154.5725	3182.8002	3216.4337	3793.9756
OC12CC3C1C2CC3=O	O[C@]12C[C@@H]3[C@H]1[C@H]2CC3=O	
InChI=1S/C7H8O2/c8-5-1-4-6-3(5)2-7(4,6)9/h3-4,6,9H,1-2H2	InChI=1S/C7H8O2/c8-5-1-4-6-3(5)2-7(4,6)9/h3-4,6,9H,1-2H2/t3-,4+,6-,7-/m0/s1
