16
gdb 19205	2.76627	2.71673	2.68996	2.2208	63.31	-0.2389	0.0054	0.2443	684.0649	0.133825	-383.739249	-383.73344	-383.732496	-383.768844	23.822	
C	 0.0028585564	 1.5369099469	 0.0098695037	-0.055409
O	 1.3484434712	 2.0226758011	 0.004248219	-0.265956
C	 2.2799314324	 0.9485392372	-0.0349157361	 0.16174
O	 2.1476124598	 0.1579138431	 1.13998837	-0.265956
C	 0.8501946193	-0.4402326497	 1.2142300704	-0.055407
C	 0.0180512271	-0.0086292638	-0.0149180794	-0.131217
C	 0.7893347704	-0.4260764848	-1.2429140973	-0.096051
C	 2.0169011568	 0.0932320589	-1.2540818917	-0.065323
H	-0.4907751721	 1.8962229985	 0.9226338023	 0.102249
H	-0.5302788964	 1.9420193197	-0.85937092	 0.099739
H	 3.271844976	 1.396832348	 0.003169082	 0.088865
H	 0.9581784189	-1.5313226669	 1.256472167	 0.099743
H	 0.3647860642	-0.0999257334	 2.1386183288	 0.102246
H	-0.9950010265	-0.4122637949	 0.0351973149	 0.076662
H	 0.3703245232	-1.0709160019	-2.0067243186	 0.098754
H	 2.7675607593	-0.052318218	-2.021201875	 0.105322
171.9817	333.1391	377.5647	434.6609	460.9263	629.1395	657.1371	695.0226	721.7852	835.3624	863.4719	887.749	949.0871	952.4833	956.926	973.8258	986.9654	1057.4619	1069.2525	1079.3618	1123.0168	1162.5437	1218.5707	1222.9964	1279.8386	1327.8091	1330.7041	1344.4011	1388.6968	1389.6974	1410.8522	1510.6147	1523.6369	1679.9244	3005.9371	3007.8244	3045.2828	3048.6025	3096.9753	3131.9965	3186.4216	3212.5398
C1OC2OCC1C=C2	C1O[C@H]2OC[C@@H]1C=C2	
InChI=1S/C6H8O2/c1-2-6-7-3-5(1)4-8-6/h1-2,5-6H,3-4H2	InChI=1S/C6H8O2/c1-2-6-7-3-5(1)4-8-6/h1-2,5-6H,3-4H2/t5-,6+
