19
gdb 52702	3.99078	0.66961	0.63791	4.1552	82.39	-0.238	-0.0119	0.2261	1820.1105	0.15478	-423.020582	-423.009342	-423.008398	-423.059059	37.973	
C	-0.1193624952	 1.4338662631	 0.1500744455	-0.500457
C	-0.1286303963	-0.0168261103	 0.0322924048	 0.1024
C	-0.139440891	-1.2192219538	-0.0431810998	 0.024663
C	-0.1629627544	-2.6724100189	-0.1960817592	-0.04842
O	-1.3456238667	-3.1166157058	-0.8664830788	-0.426864
C	 1.1076304714	-3.1875458283	-0.9169694568	-0.288172
C	 1.1029800904	-4.7171928627	-0.9345183081	 0.391964
C	 0.7061442223	-5.3859481366	-2.2317199101	-0.481236
O	 1.3678542737	-5.3380705165	 0.0690007561	-0.308185
H	 0.4782102759	 1.8971355539	-0.6424840976	 0.150474
H	-1.1338845177	 1.8419216737	 0.0856800293	 0.153827
H	 0.3024298495	 1.7466035589	 1.1113930941	 0.156213
H	-0.1938109898	-3.1523990893	 0.7890618163	 0.13664
H	-1.5405897565	-2.4739496037	-1.5571493127	 0.285136
H	 1.1462620561	-2.7628934733	-1.9251445508	 0.097944
H	 1.9865067924	-2.8531351393	-0.3584775223	 0.132871
H	 1.3775062077	-5.0827152063	-3.0433353956	 0.132149
H	 0.720752664	-6.4707850504	-2.1210045279	 0.138346
H	-0.3006940059	-5.0458986944	-2.4992861864	 0.150707
30.8689	40.5259	63.2145	80.2898	152.296	181.9368	187.0509	271.1696	278.2443	337.1233	359.8297	401.8474	477.1023	539.8563	558.3558	590.5454	769.4218	814.6253	888.7886	928.9485	1010.4903	1046.6073	1051.7123	1055.424	1069.518	1146.559	1179.9666	1229.9296	1280.302	1286.006	1350.1118	1374.6894	1413.2481	1423.6348	1461.8826	1472.924	1476.195	1476.4285	1478.0197	1812.7923	2366.1789	3029.9556	3033.9311	3045.6338	3055.7129	3091.8396	3093.2438	3098.8198	3111.9233	3153.3973	3811.4312
CC#CC(O)CC(C)=O	CC#C[C@@H](O)CC(=O)C	
InChI=1S/C7H10O2/c1-3-4-7(9)5-6(2)8/h7,9H,5H2,1-2H3	InChI=1S/C7H10O2/c1-3-4-7(9)5-6(2)8/h7,9H,5H2,1-2H3/t7-/m1/s1
