21
gdb 81329	2.93319	1.37734	1.25547	1.5243	77.17	-0.2522	0.083	0.3352	1113.743	0.182493	-424.208308	-424.199831	-424.198887	-424.240572	34.334	
C	-0.1084982349	 1.5429737619	 0.0106874722	-0.456309
C	 0.0352487317	 0.0170070846	 0.0126667406	 0.330911
C	-1.3468314952	-0.6450010855	-0.0452493452	-0.442715
C	 0.9966869755	-0.537322728	-1.1071278801	-0.282606
C	 2.0097758578	-1.2469334494	-0.1971368275	 0.026897
O	 1.1463097626	-1.9077824879	 0.7967878118	-0.329067
C	 0.8527651239	-0.5255421726	 1.2121891814	-0.012241
C	 2.3389377013	-0.2007397746	 0.8981179867	 0.185861
O	 3.2530548453	-0.6231510745	 1.8699982049	-0.456708
H	 0.8566996478	 2.0571599751	 0.0179735203	 0.11576
H	-0.6523277174	 1.8756936271	-0.8799945904	 0.118938
H	-0.6749667048	 1.8827854983	 0.8853627662	 0.115797
H	-1.8521722059	-0.4023060036	-0.9868013352	 0.10971
H	-1.2557484528	-1.7312243584	 0.0258969268	 0.132509
H	-1.9861607294	-0.2964318416	 0.7742002268	 0.106881
H	 0.4936568593	-1.2351054254	-1.780694323	 0.107797
H	 1.4567387819	 0.2539284678	-1.7068703538	 0.100209
H	 2.7674834542	-1.9007977421	-0.6303985029	 0.080993
H	 0.4330357871	-0.4443817113	 2.2166008785	 0.076377
H	 2.6234421141	 0.8099483293	 0.6000725939	 0.084267
H	 2.9817859381	-1.5174844293	 2.1175323378	 0.286741
166.9815	193.4084	211.7651	243.2435	285.1667	299.4802	345.3536	412.1328	434.3473	480.8669	517.1081	570.8448	620.3146	782.0751	833.0378	863.2855	883.5316	911.9609	929.6108	937.9815	954.5117	960.6975	976.4524	1029.244	1049.4974	1078.271	1115.5289	1183.2141	1200.3181	1205.6489	1218.7276	1243.4762	1264.2726	1275.8372	1302.3753	1318.339	1336.7501	1397.0036	1420.6242	1451.6337	1485.0926	1488.0757	1488.5112	1503.3062	1513.4878	3025.4168	3030.8283	3056.2106	3085.984	3092.1263	3095.333	3106.3503	3109.1183	3112.4867	3120.5052	3124.828	3762.7804
CC1(C)CC2OC1C2O	CC1(C)C[C@@H]2O[C@H]1[C@H]2O	
InChI=1S/C7H12O2/c1-7(2)3-4-5(8)6(7)9-4/h4-6,8H,3H2,1-2H3	InChI=1S/C7H12O2/c1-7(2)3-4-5(8)6(7)9-4/h4-6,8H,3H2,1-2H3/t4-,5-,6-/m0/s1
