16
gdb 20795	3.17033	1.80275	1.24497	4.0794	67.47	-0.2555	-0.03	0.2255	983.4961	0.129455	-379.920389	-379.912281	-379.911336	-379.953622	28.533	
C	 0.1235611132	 1.5913090693	-0.2804914757	-0.370911
C	-0.0063075276	 0.1019697187	 0.0785269229	-0.296506
C	-1.4257803196	-0.3585117113	 0.1595152653	 0.175275
C	-2.1886993604	-0.7809386908	 1.2092361805	 0.317727
C	-1.927702287	-0.9658354872	 2.6606594275	-0.493136
O	-3.4113145664	-1.0710482135	 0.7514328832	-0.213506
N	-3.3948444944	-0.811033012	-0.6547396955	-0.018914
N	-2.2442963619	-0.4057389264	-0.9522598837	-0.16929
H	 1.1757370802	 1.8792305831	-0.3628302881	 0.116164
H	-0.3652315531	 1.7990911423	-1.2362263132	 0.142716
H	-0.3455584333	 2.2219196129	 0.4810920211	 0.118584
H	 0.5192085391	-0.4989049794	-0.6729344655	 0.126997
H	 0.4885087287	-0.0977810047	 1.0350565728	 0.106512
H	-2.5870569188	-0.3293624894	 3.2596052438	 0.156665
H	-2.1092777305	-2.0029266	 2.9602243949	 0.156851
H	-0.8928135781	-0.7121997318	 2.8979721796	 0.144773
44.6261	112.1721	161.5907	204.2674	247.431	272.2411	374.3592	441.7267	629.9282	663.7869	668.9163	702.9423	747.9279	790.4365	973.1332	998.0214	1028.4393	1055.4974	1065.1874	1088.8619	1193.1212	1238.1235	1303.2173	1356.1868	1385.4078	1409.2935	1424.8062	1465.7685	1474.9204	1477.865	1487.4219	1497.0283	1508.2297	1655.6029	3037.2767	3041.9464	3044.9361	3074.2975	3102.6679	3113.2262	3123.822	3137.3752
CCC1=C(C)ON=N1	CCc1c(C)onn1	
InChI=1S/C5H8N2O/c1-3-5-4(2)8-7-6-5/h3H2,1-2H3	InChI=1S/C5H8N2O/c1-3-5-4(2)8-7-6-5/h3H2,1-2H3
