19
gdb 62614	3.90151	1.47447	1.23708	1.4065	79.3	-0.2151	0.01	0.2251	1036.8003	0.159395	-385.832772	-385.825264	-385.82432	-385.86401	31.349	
C	-0.1597693334	 1.5619613977	-0.0270494233	-0.47977
C	 0.0045672473	 0.0489331136	-0.0123840377	 0.436337
O	-1.2494287106	-0.5730998782	-0.2552898147	-0.483591
C	 1.2373222939	-0.60761365	-0.6972989876	-0.118138
C	 2.1448789547	-0.1814358728	 0.5188767902	-0.077353
C	 3.1341307108	-1.3130146157	 0.7494965151	-0.112051
C	 2.4148580831	-2.4166557374	 0.5432660896	-0.117732
C	 1.0321736902	-1.891853416	 0.1995877004	-0.058307
C	 0.7695784531	-0.6445340642	 1.1346893242	-0.086322
H	 0.767387374	 2.0940948184	 0.1952606533	 0.122519
H	-0.5001623622	 1.8995949076	-1.0147984152	 0.105284
H	-0.9162942348	 1.8630445076	 0.7043724628	 0.126717
H	-1.6274672157	-0.1802890796	-1.0487383055	 0.274258
H	 1.5167689905	-0.5888817055	-1.7555217633	 0.059717
H	 2.4813889276	 0.8484749755	 0.6267681875	 0.060129
H	 4.1749761687	-1.1997996412	 1.0182166363	 0.100711
H	 2.7078273418	-3.4555891904	 0.5987644421	 0.100636
H	 0.2164446336	-2.5737450641	-0.0212068451	 0.080175
H	 0.5029074874	-0.6690360351	 2.195031891	 0.066782
202.3056	222.6332	238.5932	265.4871	305.7673	391.8767	485.3861	522.6382	537.6571	596.1332	676.3878	763.742	774.9263	784.6367	808.5572	899.6723	905.7488	910.399	925.6269	947.2688	958.8019	997.3313	1021.9742	1063.4036	1098.0586	1124.8	1135.1945	1146.8894	1166.3707	1171.6535	1176.7511	1200.2681	1252.5101	1259.8699	1317.9644	1329.0908	1388.5905	1412.4326	1491.9707	1496.282	1639.0773	3022.694	3063.402	3077.5459	3087.7666	3121.7144	3133.2404	3167.8145	3219.5973	3247.121	3810.7002
CC1(O)C2C3C=CC2C13	C[C@@]1(O)[C@H]2[C@@H]3C=C[C@H]2[C@H]13	
InChI=1S/C8H10O/c1-8(9)6-4-2-3-5(6)7(4)8/h2-7,9H,1H3	InChI=1S/C8H10O/c1-8(9)6-4-2-3-5(6)7(4)8/h2-7,9H,1H3/t4-,5+,6-,7+,8-
