18
gdb 120122	3.36475	0.98043	0.90589	3.3276	73.09	-0.2471	-0.0117	0.2354	1347.0379	0.146474	-439.046566	-439.037797	-439.036853	-439.081044	31.53	
C	-0.2557160994	 1.3367511245	-0.3527853457	-0.230036
O	-0.2177719757	-0.0456202837	-0.6280101816	-0.234496
C	 1.0827776637	-0.5830119056	-0.5583186499	-0.089377
C	 0.9528926894	-2.0768794739	-0.7438816826	-0.019455
C	 1.0264434781	-2.8032502182	-2.0185798248	-0.026279
C	 1.9882640361	-2.1799603743	-3.0249438925	-0.383662
C	 3.023342616	-2.264511621	-1.8907412279	 0.398668
O	 4.1769857572	-1.9991674299	-1.7653314391	-0.294125
N	 2.1433030066	-2.9597527562	-0.9598620114	-0.206135
H	 0.1143337802	 1.5604650905	 0.6597554523	 0.110997
H	 0.3452960034	 1.9128886303	-1.0734423247	 0.109058
H	-1.2981576146	 1.6539623627	-0.428017673	 0.132627
H	 1.7387194012	-0.1242361793	-1.3142757451	 0.101776
H	 1.5416174656	-0.3822661072	 0.4244303433	 0.108741
H	 0.2916074531	-2.5212182061	-0.0037560748	 0.120364
H	 0.3825075585	-3.6475518426	-2.2324669988	 0.115932
H	 2.2531692968	-2.8552155404	-3.8426699717	 0.14657
H	 1.7535906738	-1.1953539698	-3.435529462	 0.138832
60.3431	78.6389	92.9529	193.2784	223.1972	274.3308	377.6802	400.1704	476.6105	522.4534	602.4193	674.2125	716.5948	815.2139	857.4896	958.8118	966.092	995.5846	1005.8194	1026.0256	1049.3899	1083.2035	1141.283	1157.8618	1162.5816	1187.3247	1224.4581	1225.7132	1256.874	1265.1556	1348.2655	1404.3026	1455.5012	1465.8157	1484.1357	1487.0394	1505.1279	1528.1213	1915.0934	2965.7835	2977.9003	3002.1748	3022.3864	3073.5319	3120.8845	3126.2324	3145.1433	3195.3228
COCC1C2CC(=O)N12	COC[C@H]1[C@H]2CC(=O)N12	
InChI=1S/C6H9NO2/c1-9-3-5-4-2-6(8)7(4)5/h4-5H,2-3H2,1H3	InChI=1S/C6H9NO2/c1-9-3-5-4-2-6(8)7(4)5/h4-5H,2-3H2,1H3/t4-,5+,7?/m1/s1
