20
gdb 118540	3.25957	0.74683	0.63672	3.7908	76.08	-0.2701	0.02	0.29	1709.3064	0.169272	-440.289175	-440.278515	-440.277571	-440.325829	37.22	
O	-0.1583567	 1.4821667241	-0.0208744094	-0.418767
C	 0.0175682256	 0.0757909804	-0.0743939152	-0.086236
C	-1.3566986922	-0.5581835066	 0.1179881181	-0.18783
C	-1.3438150639	-2.096508154	 0.0910115492	-0.009615
C	-0.8196948633	-2.6925668061	 1.4165539558	-0.073654
O	-0.3133886966	-4.004321417	 1.2954563931	-0.422454
C	-2.7715373987	-2.5973447028	-0.2471072665	-0.360958
C	-2.9204552385	-4.0511124517	-0.2095724986	 0.263123
N	-3.024171374	-5.2018316039	-0.1538038207	-0.318825
H	 0.7023191851	 1.8987027574	-0.1229346679	 0.289481
H	 0.433560308	-0.2401442969	-1.045059927	 0.092096
H	 0.7166309505	-0.2664313099	 0.703943812	 0.096131
H	-1.7791040549	-0.2020916985	 1.0666984091	 0.112047
H	-2.0101797726	-0.1707566544	-0.6725242224	 0.107766
H	-0.6671145609	-2.4441699821	-0.6991816381	 0.101165
H	 0.0185949462	-2.087011403	 1.7741559863	 0.112872
H	-1.6093364272	-2.6230470897	 2.184271485	 0.090761
H	-1.043289321	-4.6111870476	 1.1293023242	 0.300441
H	-3.4891179821	-2.1678346372	 0.4635097281	 0.156056
H	-3.0670237494	-2.2477737204	-1.2422868052	 0.1564
57.5288	65.3336	96.2401	117.7839	149.4613	210.4657	259.0742	265.5778	328.4053	353.9917	392.2859	398.736	416.8776	513.0722	611.339	784.4471	857.3783	871.8629	936.8341	980.9896	1021.5912	1055.9298	1080.983	1091.8756	1099.404	1141.4498	1194.2521	1216.0218	1242.2389	1276.0967	1293.9515	1311.0026	1342.0084	1346.4624	1385.8073	1402.3623	1433.2996	1462.332	1466.1765	1494.7309	1502.0729	1527.58	2350.0422	2961.3553	2967.1242	2997.5169	3025.836	3032.8088	3043.9034	3068.9706	3081.4151	3083.0188	3803.2243	3831.1324
OCCC(CO)CC#N	OCC[C@@H](CO)CC#N	
InChI=1S/C6H11NO2/c7-3-1-6(5-9)2-4-8/h6,8-9H,1-2,4-5H2	InChI=1S/C6H11NO2/c7-3-1-6(5-9)2-4-8/h6,8-9H,1-2,4-5H2/t6-/m0/s1
