21
gdb 88226	3.8863	0.71578	0.65349	0.3008	95.7	-0.2243	0.0513	0.2756	1797.0325	0.181907	-349.908883	-349.899201	-349.898257	-349.945119	35.575	
C	-0.2195050897	 1.5002083004	-0.0507259451	-0.406419
C	-0.0003630962	 0.006787547	-0.0014029295	 0.018268
C	 1.3550354973	-0.58524079	-0.2527080679	-0.286272
C	 0.7639415126	-0.6417594313	 1.1519572995	-0.190083
C	 1.3285795108	 0.1456598738	 2.2086051741	 0.083983
C	 1.7950995837	 0.7975994383	 3.1118888355	 0.069926
C	 2.35988183	 1.5667708547	 4.1822834285	-0.157323
C	 1.7545814235	 2.9090682482	 4.5666109502	-0.2516
C	 1.5977364039	 1.7368672738	 5.4882617448	-0.250535
H	 0.6376954109	 2.0358462742	 0.3660544347	 0.129443
H	-0.3660129389	 1.8388920823	-1.0822477055	 0.113906
H	-1.103811178	 1.7899678377	 0.5272270266	 0.117208
H	-0.8410759075	-0.5850498178	-0.3540653292	 0.086828
H	 1.4338922666	-1.5177448857	-0.8006251967	 0.112572
H	 2.1833671631	 0.0987325192	-0.4013779976	 0.1211
H	 0.3937368247	-1.6162102518	 1.4597914504	 0.103117
H	 3.4400505685	 1.49891141	 4.2803222513	 0.105554
H	 2.440360178	 3.7011967389	 4.8456043742	 0.115528
H	 0.8878133781	 3.2352154884	 4.0044998611	 0.124101
H	 0.6245296898	 1.2654352868	 5.5529706201	 0.124894
H	 2.1747988888	 1.7164264029	 6.4059634204	 0.115803
19.9372	70.3906	95.9067	168.7819	185.9799	217.1528	316.0471	354.8309	433.9755	475.4812	530.5006	583.0889	676.5769	762.6225	789.3711	820.8209	832.6485	861.4547	895.2996	907.9703	937.4195	983.2068	1044.7077	1061.3402	1066.424	1078.9835	1099.0985	1111.7719	1119.0743	1144.3958	1187.0444	1200.0809	1201.41	1218.9428	1250.4484	1364.961	1393.0454	1414.4378	1424.2022	1466.3653	1483.8082	1493.9856	1497.3733	1501.372	2350.0147	3032.1219	3091.6343	3112.8573	3130.62	3134.615	3135.8807	3139.6407	3144.5652	3145.157	3223.9792	3224.5915	3239.6748
CC1CC1C#CC1CC1	C[C@H]1C[C@H]1C#CC1CC1	
InChI=1S/C9H12/c1-7-6-9(7)5-4-8-2-3-8/h7-9H,2-3,6H2,1H3	InChI=1S/C9H12/c1-7-6-9(7)5-4-8-2-3-8/h7-9H,2-3,6H2,1H3/t7-,9+/m0/s1
