18
gdb 97231	2.49286	1.56958	1.00661	0.9541	79.25	-0.2288	-0.0266	0.2022	1178.7347	0.149085	-435.291578	-435.282829	-435.281885	-435.32538	32.363	
C	-0.1964191419	 1.3868175838	 0.0821662345	-0.327596
N	-0.1349082565	-0.0652883312	 0.1149196816	-0.326338
C	 0.6797280834	-0.6297183135	 0.9054895069	 0.389037
O	 1.482252787	 0.0549579798	 1.752189836	-0.264056
C	 2.5226949273	-0.7076045634	 2.3916786685	-0.09803
C	 1.9604616938	-1.9990658741	 2.9555204837	-0.161634
N	 1.2670584053	-2.7840263306	 1.9476340107	-0.312495
C	 0.7199110358	-2.1306869309	 0.9901363173	 0.286094
N	 0.0967855074	-2.7571509131	-0.0524546857	-0.544254
H	 0.7797337308	 1.8614758183	 0.2350895537	 0.125517
H	-0.607439787	 1.7035501264	-0.8797916374	 0.122366
H	-0.8689746867	 1.7560666644	 0.8673632092	 0.130367
H	 3.3075496355	-0.9223259472	 1.6547288986	 0.116858
H	 2.9333408795	-0.0527311099	 3.163666818	 0.119761
H	 2.7819790038	-2.5960880904	 3.369477933	 0.111857
H	 1.2829802274	-1.7791201658	 3.7945127579	 0.111651
H	-0.1418216096	-3.724760334	 0.0964573774	 0.253663
H	-0.552378975	-2.1806035485	-0.5671097538	 0.267232
52.7104	99.9772	195.6873	207.004	220.6487	317.4205	350.3267	443.0099	485.4642	504.901	533.0875	556.7602	588.4048	681.7383	743.8513	791.2834	913.5966	943.4806	996.5872	1051.2699	1082.6385	1109.9726	1115.064	1179.246	1198.8549	1220.627	1255.7315	1293.3881	1372.1884	1393.7005	1431.1129	1439.7861	1485.8663	1487.7028	1495.7256	1502.7602	1594.9963	1716.2896	1746.4817	2994.9386	3014.3933	3024.4894	3050.7913	3070.2474	3106.8693	3107.2247	3571.2549	3701.3368
CN=C1OCCN=C1N	CN=C1OCCN=C1N	
InChI=1S/C5H9N3O/c1-7-5-4(6)8-2-3-9-5/h2-3H2,1H3,(H2,6,8)	InChI=1S/C5H9N3O/c1-7-5-4(6)8-2-3-9-5/h2-3H2,1H3,(H2,6,8)
