20
gdb 56321	4.87865	0.53924	0.527	3.7163	78.56	-0.2475	-0.0211	0.2264	2090.0116	0.168042	-440.334281	-440.323258	-440.322314	-440.373315	36.698	
C	-0.1758513163	 1.3773412511	 0.3825743681	-0.481558
C	-0.2824431241	-0.1388905704	 0.3391125162	 0.40718
O	 0.1444468927	-0.8486268246	 1.2331415677	-0.377804
N	-0.886601767	-0.6548313207	-0.7728476405	-0.309596
C	-1.0906497196	-2.0843865605	-0.9310780329	-0.161226
C	-2.3472094435	-2.5996180513	-0.2150715533	-0.192578
C	-2.5267179475	-4.117613073	-0.3853765468	-0.272173
C	-3.7000086407	-4.6291741413	 0.4182172978	 0.158371
O	-4.6508609811	-5.2093008302	-0.0384568583	-0.237611
H	 0.8640979952	 1.6484984028	 0.5791542138	 0.155339
H	-0.5071292353	 1.869608843	-0.5355123491	 0.110827
H	-0.7734895448	 1.7498511268	 1.2194346821	 0.153189
H	-1.2786841958	-0.0287749673	-1.4555103929	 0.245782
H	-1.1408765384	-2.3088565226	-2.0017826821	 0.105765
H	-0.209738116	-2.5867655821	-0.5208072347	 0.140079
H	-2.2595279221	-2.348991181	 0.8477203882	 0.13276
H	-3.2313692606	-2.0769082224	-0.6000587882	 0.104373
H	-2.6741568644	-4.3956153747	-1.4335199343	 0.118374
H	-1.6237772388	-4.62698673	-0.0178575297	 0.125012
H	-3.6303461121	-4.4145005517	 1.510828739	 0.075496
33.0729	45.0376	52.7881	76.4724	84.9393	110.2227	202.6797	285.1352	302.7462	391.4307	404.0971	461.1501	532.3942	621.0064	654.2153	741.9639	810.1401	870.1661	942.6216	987.7049	994.2354	1033.5644	1052.0129	1099.2442	1111.9269	1153.2098	1212.3448	1257.3067	1267.3508	1307.7138	1343.3454	1356.3524	1396.1065	1410.6587	1429.9129	1465.0452	1468.0323	1470.7546	1486.3055	1498.2106	1534.8868	1775.7862	1836.562	2855.6683	3011.4727	3032.7114	3048.5959	3050.3642	3074.8346	3094.324	3108.4341	3124.7024	3134.5095	3655.6432
CC(=O)NCCCC=O	CC(=O)NCCCC=O	
InChI=1S/C6H11NO2/c1-6(9)7-4-2-3-5-8/h5H,2-4H2,1H3,(H,7,9)	InChI=1S/C6H11NO2/c1-6(9)7-4-2-3-5-8/h5H,2-4H2,1H3,(H,7,9)
