20
gdb 81796	2.06569	1.77933	1.28835	1.0941	79.17	-0.2318	0.0757	0.3075	1085.8199	0.170335	-403.088505	-403.079785	-403.078841	-403.121312	34.267	
C	-0.1290871319	 1.5381745202	 0.0012576224	-0.408056
C	 0.0242922192	 0.0219617531	-0.014402458	-0.077794
C	 1.1555117834	-0.5113074769	-0.91668017	-0.115818
C	 1.2632168743	-2.0131788726	-0.778649598	-0.363126
C	 1.8616432309	-1.1330428461	 0.2839101797	 0.35678
O	 3.2104366594	-1.1259044683	 0.5868497404	-0.460326
C	 0.7809217122	-0.594649307	 1.1934306508	 0.284336
C	 0.9639340187	-0.0036763049	 2.5312366857	-0.311756
N	 0.2708818464	-1.3045600071	 2.3677698049	-0.387988
H	 0.8315858294	 2.0284348877	 0.1888162424	 0.124469
H	-0.511135983	 1.8986035589	-0.9602113357	 0.115402
H	-0.8311688809	 1.8620241443	 0.7771146811	 0.111324
H	-0.9453050117	-0.4541124402	-0.2118121192	 0.067983
H	 1.5812436265	 0.0232019916	-1.7567825141	 0.093819
H	 0.3821906629	-2.6200871642	-0.5808275111	 0.108379
H	 1.9982166817	-2.4737480966	-1.4318635625	 0.112179
H	 3.4356588839	-1.9851984894	 0.9601553845	 0.291406
H	 1.936119983	-0.0634367452	 3.0126028836	 0.121947
H	 0.3782441682	 0.8723579035	 2.797758547	 0.110034
H	-0.7346023526	-1.1669304408	 2.447931666	 0.226804
95.7065	206.2167	217.153	232.1765	247.6197	267.3826	276.6512	400.3232	453.0186	473.5014	511.2747	583.7368	670.1018	787.141	823.2308	845.003	900.0352	905.7777	938.6274	947.0665	981.5211	1003.5128	1008.6181	1017.9456	1055.3237	1077.3984	1104.3178	1125.2129	1150.2378	1203.1729	1237.3548	1247.	1267.4868	1289.1813	1305.8681	1363.7084	1390.5743	1409.7755	1434.1296	1491.2967	1495.3467	1499.8966	1515.4332	3012.213	3028.3558	3092.2374	3103.1153	3104.1997	3107.1053	3190.6314	3192.0564	3200.734	3484.0595	3797.576
CC1C2CC2(O)C11CN1	C[C@H]1[C@@H]2C[C@]2(O)[C@]21CN2	
InChI=1S/C7H11NO/c1-4-5-2-7(5,9)6(4)3-8-6/h4-5,8-9H,2-3H2,1H3	InChI=1S/C7H11NO/c1-4-5-2-7(5,9)6(4)3-8-6/h4-5,8-9H,2-3H2,1H3/t4-,5-,6+,7+/m0/s1
