23
gdb 72738	2.40744	1.65546	1.48148	0.0723	88.93	-0.2438	0.0836	0.3274	1069.4523	0.20664	-351.124186	-351.115833	-351.114889	-351.156718	33.934	
C	-0.0032831277	 1.574391272	-0.0339335572	-0.495286
C	 0.0091575928	 0.0641339836	 0.0589128335	 0.333613
C	 0.926929189	-0.6865393513	-0.9647657483	-0.276196
C	 1.8062954679	-1.238714778	 0.19966779	-0.336026
C	 0.7588781153	-0.7390706931	 1.1943410077	 0.362015
C	 0.8617141163	-0.274547521	 2.6501411578	-0.334489
C	-0.5810020445	-0.8182624741	 2.8990488788	-0.222147
C	-0.5915427096	-1.4811375205	 1.4856944865	-0.057025
C	-1.3203982445	-0.6803393634	 0.3749329974	-0.306608
H	 1.0122890346	 1.9835720179	-0.0903913045	 0.110551
H	-0.5422462646	 1.9074637175	-0.9301155762	 0.114292
H	-0.4983634746	 2.0270563155	 0.8329492322	 0.110904
H	 0.4054409831	-1.4575885374	-1.5386953495	 0.095567
H	 1.4494512108	-0.0335100392	-1.6688054321	 0.095859
H	 2.0263672335	-2.3110412141	 0.2029315315	 0.091495
H	 2.7548899881	-0.6978587962	 0.2877207732	 0.097475
H	 1.6169014532	-0.8317788752	 3.214751865	 0.09781
H	 1.0338915434	 0.7935829913	 2.8190566608	 0.091766
H	-0.6674937555	-1.5174132558	 3.733929478	 0.098843
H	-1.3426104158	-0.0433285408	 3.026597657	 0.095539
H	-0.6773950375	-2.5701084004	 1.4759642062	 0.054724
H	-2.1276615135	-0.0394005716	 0.7469581719	 0.087827
H	-1.71683911	-1.2739927257	-0.4552530195	 0.089496
77.8929	175.6459	189.0448	226.324	323.793	326.2522	381.5589	444.8545	479.8387	583.0432	660.9268	687.419	748.144	792.3046	813.7115	835.3901	846.3287	918.8533	922.2825	942.8647	948.2423	954.8402	1005.2867	1025.22	1033.0877	1112.9027	1122.5243	1162.0337	1172.5516	1191.4345	1211.7248	1212.9481	1227.4603	1236.8603	1248.047	1259.614	1273.0459	1285.423	1300.5801	1313.9672	1329.5651	1406.5242	1471.0276	1473.1762	1480.0146	1488.8544	1490.3728	1495.4355	1497.8001	3012.6342	3028.933	3033.5537	3035.942	3051.7486	3053.6737	3070.3913	3073.97	3076.9361	3077.6897	3081.4693	3084.5379	3106.0265	3109.8425
CC12CCC11CCC1C2	C[C@@]12CC[C@]31CC[C@H]3C2	
InChI=1S/C9H14/c1-8-4-5-9(8)3-2-7(9)6-8/h7H,2-6H2,1H3	InChI=1S/C9H14/c1-8-4-5-9(8)3-2-7(9)6-8/h7H,2-6H2,1H3/t7-,8-,9+/m0/s1
