25
gdb 100779	3.03612	0.89458	0.73355	1.7463	88.96	-0.2611	0.0825	0.3436	1635.0176	0.226666	-389.478829	-389.467788	-389.466844	-389.515427	40.445	
C	 0.2743384763	 1.5329285914	 0.2278785507	-0.392319
C	 0.0264455626	 0.0379427896	-0.0053228859	-0.176672
C	 0.6642671086	-0.5333876732	-1.2881955208	 0.039554
C	 2.1935055576	-0.374236818	-1.2679600257	-0.402666
C	 0.2496226681	-2.0098258633	-1.5270909234	 0.000104
C	-1.2724939306	-2.2125274879	-1.6313784093	-0.41325
C	 0.8897758866	-2.5627447298	-2.7886412012	 0.090578
C	 2.0616168226	-3.4467793033	-2.7845647902	-0.181569
O	 0.7518083537	-3.9707886248	-3.0042917759	-0.246494
H	 1.3290729207	 1.7578714911	 0.4099607296	 0.118545
H	-0.0485886912	 2.1263740607	-0.6353252185	 0.11281
H	-0.2878841207	 1.8850043404	 1.0985372083	 0.112283
H	 0.3944370488	-0.5332002858	 0.8588728436	 0.09109
H	-1.0550690666	-0.1247267617	-0.0386167547	 0.099249
H	 0.2760849321	 0.0524425013	-2.1369475935	 0.066319
H	 2.6341055215	-0.9415576146	-0.4387817712	 0.109488
H	 2.6517486923	-0.7306224164	-2.193794834	 0.116222
H	 2.4841318833	 0.6720191741	-1.1438054505	 0.114994
H	 0.6185530414	-2.6128982903	-0.684922229	 0.070399
H	-1.4876552298	-3.2452358735	-1.9181636067	 0.13515
H	-1.7815104268	-2.015798182	-0.6853058395	 0.116924
H	-1.7066983895	-1.552141449	-2.3917953988	 0.109182
H	 0.7135396263	-1.9680072763	-3.6893744383	 0.087141
H	 2.7297093892	-3.4764530723	-3.6448702596	 0.111478
H	 2.5198921835	-3.7198552263	-1.8346477557	 0.111459
42.0396	76.0769	95.5665	153.2352	203.5444	216.1275	218.458	274.0959	287.0917	325.2806	338.0613	387.4054	427.5679	506.5129	532.8398	773.1424	804.5453	816.899	868.1354	892.0681	951.0375	960.1666	967.4657	991.7306	1004.8454	1045.123	1065.63	1104.2245	1143.0294	1156.5453	1172.013	1176.2163	1185.7347	1198.3758	1258.4323	1292.8418	1308.7285	1324.5272	1346.645	1369.2494	1384.6048	1404.1302	1410.716	1414.7512	1444.598	1483.0785	1495.8377	1496.9369	1500.8846	1506.9867	1509.7861	1515.3331	1528.9969	2973.3691	3003.9648	3015.0102	3032.1412	3032.8959	3033.692	3069.904	3073.5031	3078.5006	3096.6291	3101.8515	3105.62	3110.542	3121.0802	3125.6296	3162.5955
CCC(C)C(C)C1CO1	CC[C@@H](C)[C@@H](C)[C@H]1CO1	
InChI=1S/C8H16O/c1-4-6(2)7(3)8-5-9-8/h6-8H,4-5H2,1-3H3	InChI=1S/C8H16O/c1-4-6(2)7(3)8-5-9-8/h6-8H,4-5H2,1-3H3/t6-,7-,8-/m1/s1
