16
gdb 126098	3.18006	1.55769	1.10423	2.5612	70.4	-0.2563	-0.0197	0.2366	1056.0775	0.125547	-437.872446	-437.865105	-437.86416	-437.904647	27.602	
C	 0.0717288206	 1.5895676402	-0.1073718882	-0.387709
C	-0.0177939849	 0.0768742252	 0.0523299929	 0.003692
O	 0.6301492206	-0.5489700165	-1.0832697659	-0.293607
C	 1.4600421591	-1.656497383	-0.7128427462	-0.183231
C	 1.5823296291	-1.5226033887	 0.7733342912	 0.334429
N	 2.2629413671	-2.094434214	 1.7261293943	-0.238359
O	 1.8304141378	-1.4344338284	 2.8870217114	-0.171387
C	 0.9092911293	-0.4993465774	 2.561348453	-0.095008
C	 0.7095944367	-0.5064783621	 1.2236506849	 0.138967
H	 1.1149678644	 1.9152124866	-0.0876150856	 0.127249
H	-0.3721297583	 1.889784476	-1.0601284577	 0.132763
H	-0.4710546002	 2.0906527713	 0.7005497307	 0.116898
H	-1.0765897231	-0.2259875012	 0.0588132696	 0.096178
H	 0.9904130092	-2.6091703431	-0.9977238534	 0.125983
H	 2.4161156295	-1.5759542996	-1.2411919905	 0.13695
H	 0.5146848931	 0.0653150046	 3.3913724295	 0.156192
71.5141	158.0875	224.6212	235.2365	307.4554	457.4746	482.9651	596.6993	606.8439	654.7094	720.9203	782.7248	834.8052	853.558	884.2367	960.9638	1006.9571	1037.9929	1056.1171	1084.682	1112.6819	1118.4548	1173.9689	1198.1713	1280.1513	1315.5537	1358.4235	1375.2041	1405.1408	1427.1402	1482.9965	1494.1747	1510.9865	1560.347	1676.1277	2975.539	3000.9945	3043.6419	3064.4527	3117.8982	3130.6418	3267.5451
CC1OCC2=NOC=C12	C[C@H]1OCc2nocc12	
InChI=1S/C6H7NO2/c1-4-5-2-9-7-6(5)3-8-4/h2,4H,3H2,1H3	InChI=1S/C6H7NO2/c1-4-5-2-9-7-6(5)3-8-4/h2,4H,3H2,1H3/t4-/m1/s1
