17
gdb 5922	3.44264	1.31972	1.20668	3.7485	72.97	-0.2601	0.0223	0.2824	1074.6257	0.138356	-363.823977	-363.814652	-363.813708	-363.857692	33.762	
C	 0.003124224	 1.5697774665	 0.0107430037	-0.409736
C	 0.0109421993	 0.0304594531	 0.0531489773	 0.151759
C	 0.7829081879	-0.5120269991	 1.2701872737	-0.409727
O	-1.3450998754	-0.4923985627	 0.028583237	-0.223889
C	-2.1827220979	-0.193723134	 1.0395113116	 0.133624
N	-3.3629082593	-0.644636044	 1.0221676932	-0.444095
C	 0.6219713983	-0.4848154829	-1.1769535749	 0.34698
C	 1.1650466083	-0.8827522687	-2.1707550666	-0.461061
H	 1.0244023338	 1.9406263962	-0.1055384734	 0.135818
H	-0.5932539808	 1.9159220893	-0.8360585328	 0.146308
H	-0.4089247734	 1.9896267426	 0.9324863279	 0.1175
H	 0.3790299742	-0.1142509004	 2.2052439593	 0.117513
H	 0.7246105663	-1.6022856542	 1.2923065998	 0.146291
H	 1.8333454992	-0.2189939474	 1.201108856	 0.135815
H	-1.7526844186	 0.4396988764	 1.8230776595	 0.087559
H	-3.8632203738	-0.330795208	 1.851384944	 0.226057
H	 1.6314393079	-1.2432120928	-3.0544611052	 0.203282
75.7208	125.584	133.3928	181.7628	250.352	250.4848	262.3033	340.6206	388.8378	432.0555	482.2265	561.0275	606.1778	633.7686	676.8482	758.6447	815.04	889.9076	925.6604	970.4705	1023.1114	1045.5985	1102.9032	1173.6158	1185.2454	1257.7924	1295.7856	1395.9373	1408.9336	1430.4763	1478.382	1482.185	1496.165	1502.9506	1736.8264	2247.1373	3048.403	3049.9774	3060.1593	3123.5156	3129.2182	3139.8851	3141.5297	3500.9183	3513.8718
CC(C)(OC=N)C#C	CC(C)(O[CH][NH])C#C	
InChI=1S/C6H9NO/c1-4-6(2,3)8-5-7/h1,5,7H,2-3H3	InChI=1S/C6H9NO/c1-4-6(2,3)8-5-7/h1,5,7H,2-3H3
