22
gdb 88598	2.7282	1.12781	0.98719	2.9401	83.66	-0.2209	0.0828	0.3037	1334.4286	0.192797	-404.299358	-404.289523	-404.288579	-404.334345	36.869	
C	-0.1883524581	 1.5202673887	 0.062958779	-0.398188
C	-0.0064589331	 0.0240988558	-0.0551306441	-0.07793
C	 1.3432287001	-0.5774112847	-0.3897947691	 0.102498
O	 2.4661790406	 0.2408565883	-0.4831521181	-0.431593
C	 0.7491986596	-0.794490548	 0.9861880895	-0.040632
N	 1.442037411	-0.0795608304	 2.023577248	-0.107623
C	 0.7956513477	 0.1383654257	 3.3164119958	-0.247452
C	 1.9673168629	-0.7777292476	 3.2036288439	 0.026757
C	 1.8251655328	-2.2686673225	 3.4116432101	-0.415352
H	 0.7374687676	 2.0106180035	 0.3675376737	 0.124727
H	-0.483417002	 1.9425508903	-0.9033830682	 0.117327
H	-0.9658837723	 1.7757250048	 0.7908919621	 0.109079
H	-0.8591450795	-0.5013684104	-0.47924222	 0.079874
H	 1.3877509156	-1.4113186605	-1.0844135806	 0.091874
H	 2.6389685846	 0.5368745018	 0.4246113674	 0.286743
H	 0.3420736354	-1.7738652242	 1.2309900173	 0.075705
H	 0.8964149017	 1.1346400787	 3.7392999667	 0.116534
H	-0.1765108741	-0.3260898548	 3.4730368954	 0.111902
H	 2.9353229673	-0.3861783618	 3.5133483873	 0.094453
H	 0.8079284293	-2.6230419185	 3.2281555424	 0.124578
H	 2.5054440208	-2.8277531677	 2.7599916232	 0.13093
H	 2.0780152521	-2.5178093666	 4.4474142981	 0.125791
43.1066	120.5123	144.9052	169.1187	177.4904	225.0943	262.505	297.0808	399.1351	445.9539	514.4219	530.0557	572.2956	654.0504	748.0918	769.7026	795.7569	829.2295	900.118	915.4064	963.0845	997.6591	1025.857	1038.893	1072.6326	1104.3117	1107.6448	1119.7283	1141.0774	1151.6974	1159.7872	1185.7377	1197.365	1237.4454	1325.593	1344.4447	1372.1593	1394.4375	1403.6048	1418.4284	1422.4182	1460.2393	1492.2192	1496.1631	1498.1544	1502.3654	1508.933	3037.5717	3038.1554	3091.7178	3093.5169	3098.9476	3100.0436	3108.638	3124.7319	3128.0267	3140.9226	3149.309	3179.853	3680.7647
CC1C(O)C1N1CC1C	C[C@H]1[C@@H](O)[C@H]1N1C[C@H]1C	
InChI=1S/C7H13NO/c1-4-3-8(4)6-5(2)7(6)9/h4-7,9H,3H2,1-2H3	InChI=1S/C7H13NO/c1-4-3-8(4)6-5(2)7(6)9/h4-7,9H,3H2,1-2H3/t4-,5-,6+,7-,8?/m1/s1
