20
gdb 120170	3.2272	0.98759	0.88354	1.8621	77.05	-0.2447	0.0678	0.3124	1400.0276	0.169917	-440.186384	-440.1772	-440.176256	-440.221703	33.721	
C	 0.5204539796	 1.344228769	 0.167324066	-0.226043
O	 0.5875218442	-0.0562599462	 0.0547963826	-0.236527
C	 0.1471556336	-0.5258773912	-1.2020486013	-0.111014
C	 0.2991341865	-2.0401075098	-1.1927604814	 0.026897
N	-0.6527530875	-2.8564280485	-2.0959489957	-0.156878
C	 0.2737295776	-2.4622972203	-3.2576606193	-0.246373
C	 1.2657394091	-2.8066519371	-2.1138196463	 0.333837
O	 2.6433014203	-2.7043631197	-2.0600163896	-0.462253
C	 0.3271590554	-4.0150932467	-1.8622604753	-0.230987
H	 1.1543015104	 1.8463427212	-0.581029807	 0.104131
H	-0.5099157075	 1.7155892619	 0.0465036181	 0.1037
H	 0.876684173	 1.6091659236	 1.1657391109	 0.127937
H	-0.9136117898	-0.2675379986	-1.3654632826	 0.102388
H	 0.7308147228	-0.0512968453	-2.0062340323	 0.092351
H	 0.255909838	-2.3800401216	-0.1541552081	 0.089339
H	 0.2112314056	-3.1477295744	-4.1077692424	 0.095701
H	 0.1705999342	-1.4259362772	-3.5821025161	 0.108325
H	 3.0247103604	-3.2731729017	-2.7380145919	 0.282538
H	 0.2799569091	-4.4327479405	-0.8536697179	 0.107031
H	 0.262616405	-4.7907266468	-2.6301182803	 0.0959
20.2664	81.9801	155.628	206.8215	231.4844	246.7797	334.4217	355.1221	394.2021	421.355	609.0048	628.4509	636.3761	770.6402	803.9715	890.4876	932.7671	961.1411	973.3462	999.4191	1014.4294	1076.4087	1094.106	1114.9501	1148.0236	1165.3417	1172.3824	1183.8294	1185.3094	1195.6788	1230.411	1249.6341	1277.3983	1293.1876	1347.2282	1383.2724	1447.6891	1479.3498	1484.3464	1501.0613	1509.3479	1527.8645	1552.9372	2953.01	2969.3121	2992.5897	3010.8606	3053.3674	3061.8166	3076.9731	3114.4294	3126.012	3134.8743	3803.7507
COCC1N2CC1(O)C2	COC[C@H]1N2C[C@]1(O)C2	
InChI=1S/C6H11NO2/c1-9-2-5-6(8)3-7(5)4-6/h5,8H,2-4H2,1H3	InChI=1S/C6H11NO2/c1-9-2-5-6(8)3-7(5)4-6/h5,8H,2-4H2,1H3/t5-/m1/s1
