15
gdb 16474	3.00607	2.73135	1.74835	2.1579	64.89	-0.2337	-0.0057	0.2281	764.6492	0.118925	-362.61611	-362.60941	-362.608466	-362.646783	25.608	
C	-0.0005487389	 1.5224563634	 0.0531091669	-0.507459
C	-0.0447534064	 0.0309666057	 0.0014192985	 0.205012
C	 0.0843966857	-1.0219106479	 1.0846136401	-0.091075
C	-0.4313434127	-2.1028288672	 0.0567028903	-0.212124
C	 1.0045520249	-2.0848029071	-0.4862610236	-0.158423
N	 1.226119538	-0.7523340197	 0.1945330636	-0.174347
C	-1.0425412427	-0.8800618027	-0.6621052056	 0.401173
O	-2.0482677562	-0.6902726498	-1.2855969021	-0.333628
H	 0.6738397576	 1.8616524976	 0.843429183	 0.137188
H	 0.3605342297	 1.9300016296	-0.8963725115	 0.139911
H	-0.9994619033	 1.9279698366	 0.2384839809	 0.138801
H	 0.059991979	-0.9145817881	 2.1602688359	 0.120224
H	-1.0185261889	-2.9985742277	 0.2382200409	 0.098593
H	 1.6701471856	-2.813564243	-0.0181545932	 0.121346
H	 1.1471873185	-2.0856128797	-1.572766084	 0.114808
141.3352	180.3771	230.3811	258.9628	426.2129	463.2967	590.2093	654.6102	739.2319	768.4714	809.4963	824.741	844.4716	893.715	937.4739	983.7453	1017.8195	1029.4269	1066.3339	1093.0944	1141.2966	1153.7844	1179.5962	1216.7245	1250.7222	1308.4871	1390.3535	1432.1814	1480.2622	1490.3945	1509.5989	1879.0227	3042.3546	3044.4084	3110.4659	3110.6265	3126.2461	3164.6335	3217.4502
CC12C3C(CN13)C2=O	C[C@]12[C@H]3[C@H](CN13)C2=O	
InChI=1S/C6H7NO/c1-6-4-3(5(6)8)2-7(4)6/h3-4H,2H2,1H3	InChI=1S/C6H7NO/c1-6-4-3(5(6)8)2-7(4)6/h3-4H,2H2,1H3/t3-,4+,6+,7?/m0/s1
