21
gdb 100190	2.15702	1.30408	1.0665	2.7128	78.32	-0.2412	-0.0178	0.2234	1249.5103	0.179506	-424.213996	-424.203552	-424.202608	-424.250215	37.646	
C	 0.2504496319	 1.6105187367	 0.2347085789	-0.460979
C	 0.0503709078	 0.1074564837	-0.0072769506	 0.132471
C	 0.5155469547	-0.6921730366	 1.2304741476	-0.084094
O	-0.2709057137	-0.2945199438	 2.34636476	-0.431458
C	-1.45636039	-0.1697927137	-0.1491937	 0.167151
O	-1.920936879	-1.1014474147	-0.7537129886	-0.269729
C	 0.7749554691	-0.4526144018	-1.2283378042	 0.004484
C	 1.2138594303	 0.3892972522	-2.3988107601	-0.282728
C	 2.2445182293	-0.2257324095	-1.4847484648	-0.290325
H	 1.3126077841	 1.867818755	 0.2878900622	 0.120072
H	-0.2039732536	 2.2096197807	-0.5600704649	 0.121871
H	-0.2072178536	 1.897417071	 1.1842508854	 0.142604
H	 0.3963834314	-1.765307984	 1.0228682181	 0.102285
H	 1.5845852223	-0.4945871981	 1.4005844665	 0.093464
H	-0.0272795256	-0.838911544	 3.1001758877	 0.29274
H	-2.1149644505	 0.5583504806	 0.3716324819	 0.084694
H	 0.4018454112	-1.4367673908	-1.491839105	 0.106871
H	 1.0862920482	-0.0237689486	-3.3930491656	 0.115251
H	 1.0840850733	 1.4641532638	-2.3479435707	 0.112303
H	 2.7917364337	 0.4442830059	-0.8295556186	 0.110104
H	 2.8339664088	-1.060682434	-1.8476264652	 0.112946
29.521	65.9313	120.8822	172.6052	209.4116	227.7182	242.8744	285.0801	296.8921	328.5015	368.6939	435.1801	514.2744	616.3424	702.1399	788.8721	833.5787	879.1168	899.343	931.0987	946.6408	965.8739	1005.4117	1059.1362	1072.2551	1083.4219	1093.2672	1153.1289	1174.3364	1182.4442	1202.4096	1206.982	1236.5353	1278.888	1301.4223	1389.0699	1408.5149	1427.3797	1447.8586	1468.9294	1496.3971	1502.7709	1510.0207	1516.4624	1826.8026	2896.5428	2981.2803	3022.9051	3043.069	3108.3364	3128.6765	3129.6118	3141.8549	3164.8166	3207.1574	3226.9677	3838.2519
CC(CO)(C=O)C1CC1	C[C@@](CO)(C=O)C1CC1	
InChI=1S/C7H12O2/c1-7(4-8,5-9)6-2-3-6/h4,6,9H,2-3,5H2,1H3	InChI=1S/C7H12O2/c1-7(4-8,5-9)6-2-3-6/h4,6,9H,2-3,5H2,1H3/t7-/m0/s1
