23
gdb 118350	2.19449	0.95106	0.71025	2.6866	87.15	-0.2411	-0.0167	0.2244	1673.6395	0.203463	-388.294555	-388.283891	-388.282947	-388.331677	37.866	
C	-0.0321054128	 1.5384777498	-0.1301898832	-0.381928
C	 0.0071184332	 0.0104992777	-0.0461137336	-0.177505
C	-1.3904396043	-0.6176902635	 0.0135564895	-0.189178
C	-1.3842346481	-2.1571432337	 0.0960115871	-0.090551
C	-0.7877908982	-2.6160184254	 1.4138872276	 0.174395
O	 0.1816303812	-3.3189328459	 1.5377210789	-0.258132
C	-2.7899271877	-2.7310612742	-0.0215192087	 0.008464
C	-3.3654193334	-3.0533167576	-1.3783471442	-0.273246
C	-2.9970237327	-4.1676679567	-0.4306592297	-0.274282
H	 0.9763843889	 1.9603277203	-0.1781864142	 0.115597
H	-0.57606008	 1.8726471446	-1.0207982489	 0.114429
H	-0.5327076389	 1.9712002999	 0.7431937134	 0.114635
H	 0.5453126855	-0.3932056959	-0.913406064	 0.101912
H	 0.5882624984	-0.2939775484	 0.8336437874	 0.109036
H	-1.9391242169	-0.2145044264	 0.8772161865	 0.094939
H	-1.9675184125	-0.3252496283	-0.872331484	 0.104303
H	-0.7553754993	-2.5714436133	-0.7010841744	 0.085934
H	-1.3462897985	-2.2481395313	 2.3098835759	 0.064936
H	-3.4914305148	-2.3367030179	 0.7102752288	 0.086128
H	-4.4160672304	-2.8493068593	-1.5526505005	 0.115313
H	-2.7330525268	-2.8965960364	-2.2461701518	 0.115082
H	-2.1147748308	-4.7565119972	-0.6589292378	 0.124634
H	-3.794884061	-4.729231291	 0.0421606501	 0.115085
47.6148	64.7099	76.1295	102.0383	122.112	203.8334	245.7875	269.7022	303.2958	353.3009	418.2749	447.4306	548.1042	737.006	777.4546	827.4079	841.8711	850.783	902.4391	932.0143	950.9781	983.9829	1003.668	1048.4272	1058.8199	1077.815	1081.3492	1117.9638	1138.3229	1155.9226	1190.0709	1198.7319	1224.3396	1246.2557	1270.2105	1307.4312	1329.995	1345.754	1393.0995	1408.8625	1414.8164	1426.9731	1472.1287	1482.4016	1492.4806	1500.4275	1505.4784	1509.6733	1832.9155	2829.2078	3004.4909	3022.102	3030.213	3040.2206	3045.8804	3063.6065	3096.3945	3104.4977	3129.7495	3131.3368	3137.0293	3209.8108	3224.8234
CCCC(C=O)C1CC1	CCC[C@@H](C=O)C1CC1	
InChI=1S/C8H14O/c1-2-3-8(6-9)7-4-5-7/h6-8H,2-5H2,1H3	InChI=1S/C8H14O/c1-2-3-8(6-9)7-4-5-7/h6-8H,2-5H2,1H3/t8-/m0/s1
