21
gdb 86321	1.91303	1.66622	1.10617	3.308	78.62	-0.2465	-0.0257	0.2207	1196.8114	0.181068	-424.243683	-424.234059	-424.233115	-424.278163	36.091	
C	-0.2049142225	 1.6134107157	 0.2001221152	-0.422699
C	-0.0686288062	 0.0979786058	 0.1663829703	 0.040042
C	 0.7108947593	-0.5562681559	-1.0034026871	-0.277006
C	 1.2734937514	-1.6012686341	-0.0059260903	 0.165886
O	 2.5859903155	-2.0524361038	-0.1320533039	-0.438586
C	 0.8887884426	-0.6488189595	 1.1842377916	-0.202702
C	 2.0269677722	 0.2171586676	 1.668360449	 0.411749
C	 1.9072001105	 0.793433739	 3.0636685681	-0.480113
O	 2.9988193292	 0.4554984196	 0.9713379516	-0.343652
H	 0.770126466	 2.1054288009	 0.1266051416	 0.131436
H	-0.8117675263	 1.9561226684	-0.6449628793	 0.121692
H	-0.695360808	 1.9594119165	 1.1171375632	 0.112918
H	-1.0588394131	-0.359385117	 0.2595195414	 0.082564
H	 0.1408198945	-0.9181784201	-1.8624189133	 0.096713
H	 1.5130506325	 0.0992804107	-1.3550972035	 0.11337
H	 0.6382666761	-2.4917586807	 0.0278989443	 0.089374
H	 3.146344483	-1.266074495	-0.0560066571	 0.294096
H	 0.3811511284	-1.1054523462	 2.0383629481	 0.072454
H	 1.9415902516	-0.0197293912	 3.7985696188	 0.147903
H	 2.7228733511	 1.491724861	 3.2549825935	 0.142575
H	 0.9417187422	 1.2943795283	 3.193169578	 0.141987
63.6541	105.7606	136.9962	162.2131	226.8304	255.3215	290.0989	333.911	405.9792	433.9269	468.1647	547.7364	590.2306	635.1961	669.2891	763.8132	787.3981	873.5427	922.7224	927.7317	967.678	990.7741	1023.804	1077.0419	1080.7907	1124.8646	1137.042	1171.2717	1187.3991	1224.6481	1245.5508	1253.7434	1277.8097	1339.9108	1358.716	1377.8044	1394.86	1412.3647	1459.9298	1466.7789	1473.3469	1482.9905	1497.247	1504.2243	1764.979	3027.9405	3035.2421	3047.3049	3057.0491	3059.3531	3072.203	3091.0606	3097.1709	3105.4617	3117.0302	3152.0162	3721.7164
CC1CC(O)C1C(C)=O	C[C@H]1C[C@@H](O)[C@H]1C(=O)C	
InChI=1S/C7H12O2/c1-4-3-6(9)7(4)5(2)8/h4,6-7,9H,3H2,1-2H3	InChI=1S/C7H12O2/c1-4-3-6(9)7(4)5(2)8/h4,6-7,9H,3H2,1-2H3/t4-,6+,7+/m0/s1
