20
gdb 22286	3.86016	0.89886	0.79261	1.1202	79.29	-0.2456	0.0096	0.2552	1490.1627	0.168428	-440.236614	-440.226621	-440.225677	-440.272492	35.898	
C	-0.4737236869	 1.341294901	 0.1645804774	-0.399344
C	 0.27158563	 0.0286686668	 0.0444899017	 0.175584
C	 0.8599940742	-0.3635783695	-1.3289770032	-0.315535
C	 2.2103211637	-0.3949135155	-0.5909775824	 0.063426
O	 1.6013367828	 0.0960990846	 0.6319665273	-0.314463
C	 2.8780291779	-1.7300184345	-0.3673730557	 0.348031
C	 3.9145423281	-1.8021308206	 0.7181162097	-0.489584
N	 2.5195037486	-2.6906369255	-1.1280366848	-0.171671
O	 3.2290957232	-3.8727152128	-0.8691930051	-0.395167
H	 0.0873754156	 2.1515869586	-0.3114382197	 0.118284
H	-1.4561260975	 1.2669729571	-0.3150111355	 0.116252
H	-0.626588951	 1.6011262775	 1.2168992375	 0.126368
H	-0.3057360347	-0.7794858649	 0.5141590682	 0.078475
H	 0.5406399597	-1.315774388	-1.7475692986	 0.12907
H	 0.7836000103	 0.4215727785	-2.0836332816	 0.10291
H	 2.9646947099	 0.3208802128	-0.9489330039	 0.085111
H	 3.9875660589	-2.813600967	 1.1189144253	 0.150236
H	 4.9008661712	-1.5269829104	 0.3245984749	 0.137081
H	 3.6588808588	-1.1020797596	 1.5165586322	 0.149657
H	 2.8207622372	-4.4909142187	-1.4842737037	 0.30528
45.6821	65.0069	78.1126	154.4095	203.7804	233.5197	308.139	326.9708	341.302	399.7497	460.8621	480.0828	533.7669	650.4182	741.6545	783.7991	884.9239	892.266	918.1538	960.0153	985.4126	1011.0411	1026.2091	1054.8739	1089.9683	1099.2348	1140.6049	1203.5401	1230.4122	1258.9028	1281.3832	1326.7393	1365.4074	1389.8107	1394.3757	1404.0571	1411.0541	1479.3318	1482.6938	1490.3364	1490.8481	1496.5174	1734.8362	2992.4504	3006.8142	3031.9231	3038.7209	3087.0658	3104.2162	3110.9066	3111.3787	3155.1717	3161.6442	3820.9764
CC1CC(O1)C(C)=NO	C[C@H]1C[C@@H](O1)C(=NO)C	
InChI=1S/C6H11NO2/c1-4-3-6(9-4)5(2)7-8/h4,6,8H,3H2,1-2H3	InChI=1S/C6H11NO2/c1-4-3-6(9-4)5(2)7-8/h4,6,8H,3H2,1-2H3/t4-,6+/m0/s1
