19
gdb 57265	2.14674	1.60001	1.22302	1.5621	76.49	-0.2549	0.0316	0.2865	1111.9945	0.154588	-422.969426	-422.959289	-422.958345	-423.003895	38.136	
C	-0.2359889015	 1.5278203831	-0.196773192	-0.41359
C	-0.0151886047	 0.0165219173	-0.0373591485	 0.081879
O	 0.7631876015	-0.1464161362	 1.1548291653	-0.441872
C	-1.3154489036	-0.653647339	 0.1167230616	 0.323619
C	-2.3705683916	-1.1981321316	 0.3049173393	-0.470021
C	 0.779532088	-0.5531774437	-1.238028873	 0.401376
C	 2.1553164089	 0.0430564781	-1.4486155123	-0.470652
C	 0.4921354235	-1.908935362	-1.7349880053	-0.248167
O	 0.0114120148	-0.7490681242	-2.4258372787	-0.274674
H	 0.7230680911	 2.0493842705	-0.1712557292	 0.128442
H	-0.7383098687	 1.7342727413	-1.1444311719	 0.142269
H	-0.8533477804	 1.8969081373	 0.6242256611	 0.133872
H	 0.7548866695	-1.0833483443	 1.3810115434	 0.283946
H	-3.3077385404	-1.6742056287	 0.4586621867	 0.200867
H	 2.7312095596	 0.0100909513	-0.5207967952	 0.136159
H	 2.6904978812	-0.5100235759	-2.2237245939	 0.12153
H	 2.084861115	 1.0858266687	-1.7712046111	 0.131245
H	 1.2813064119	-2.4588435795	-2.2461896523	 0.110329
H	-0.2785783139	-2.5148845926	-1.265284004	 0.123444
52.2085	149.0627	174.4474	188.1972	210.1066	267.4803	302.2895	312.8207	329.7159	364.2227	404.3353	438.0946	485.6123	549.9073	590.1426	638.2525	650.5359	661.04	809.4037	857.2342	930.5252	938.2246	943.2777	1017.0123	1058.078	1107.6485	1137.0641	1143.5805	1171.0164	1179.3059	1285.1046	1352.7655	1385.8522	1404.5552	1412.6355	1478.3451	1486.5903	1494.0166	1508.4626	1521.5505	2230.1832	3052.2712	3060.6296	3090.012	3120.1064	3137.1533	3142.518	3145.5207	3184.5334	3497.9813	3804.8072
CC(O)(C#C)C1(C)CO1	C[C@@](O)(C#C)[C@@]1(C)CO1	
InChI=1S/C7H10O2/c1-4-6(2,8)7(3)5-9-7/h1,8H,5H2,2-3H3	InChI=1S/C7H10O2/c1-4-6(2,8)7(3)5-9-7/h1,8H,5H2,2-3H3/t6-,7-/m1/s1
