12
gdb 125558	5.59829	1.38021	1.11488	1.5923	63.37	-0.2864	-0.0803	0.2061	992.8048	0.078367	-464.932082	-464.925473	-464.924529	-464.963313	24.132	
C	-0.0183507017	 1.4199263092	-0.0285616323	-0.48284
C	 0.0027029977	-0.0667834976	 0.0073376241	 0.361913
N	-0.0654689192	-0.7945731312	-1.1115568274	-0.300349
N	-0.0124291711	-2.0411819349	-0.5795696129	 0.091351
N	-0.0263194213	-3.3064768845	-1.0104929163	-0.033045
N	 0.0524534167	-4.0636944284	-0.0142386932	 0.011093
O	 0.1267799351	-3.241157068	 1.2094793049	-0.244355
C	 0.0804395107	-1.9942391417	 0.7704082252	 0.548345
N	 0.0946380649	-0.7650708748	 1.2067800452	-0.417531
H	 0.8955845927	 1.8222908947	 0.4188586683	 0.155699
H	-0.1022988243	 1.7706403388	-1.0576544099	 0.154027
H	-0.8615876302	 1.8005732385	 0.5555678243	 0.155693
111.7536	150.3581	293.1708	298.6011	370.5377	500.795	589.9917	633.2887	635.9376	684.4498	758.9297	806.2759	861.6463	970.95	1014.5827	1034.0999	1065.2151	1246.4632	1316.8129	1346.999	1404.77	1414.0531	1459.1835	1472.3168	1472.5208	1528.2404	1636.1737	3052.6924	3111.8824	3156.6336
CC1=NN2N=NOC2=N1	Cc1nn2nnoc2n1	
InChI=1S/C3H3N5O/c1-2-4-3-8(5-2)6-7-9-3/h1H3	InChI=1S/C3H3N5O/c1-2-4-3-8(5-2)6-7-9-3/h1H3
