19
gdb 106891	2.84517	1.24841	1.05157	2.4137	76.74	-0.2301	-0.015	0.2151	1206.9455	0.157653	-423.018692	-423.009461	-423.008517	-423.052823	34.108	
C	 0.0786115394	 1.5148736147	 0.228629785	-0.373559
C	-0.0006876679	 0.0210226105	-0.1185037328	-0.305768
C	-1.4122928589	-0.4972134718	-0.0891305131	 0.378308
C	-2.1083656552	-0.9674870467	 1.1367683246	-0.320947
C	-1.9127206285	-1.9771228897	 0.0037281299	-0.265869
C	-2.9281372758	-1.6836185812	-1.0474825799	 0.403238
O	-3.7111906241	-2.3350991772	-1.6830466953	-0.332548
C	-2.4656150919	-0.1993672783	-1.1630034131	-0.078429
O	-3.3654540956	 0.84192341	-0.8627568386	-0.434743
H	 1.1093016138	 1.8764948256	 0.1668182613	 0.113286
H	-0.5333774832	 2.1098270412	-0.4563700612	 0.133972
H	-0.2876598394	 1.701080043	 1.2430645418	 0.122898
H	 0.4286822004	-0.1495522543	-1.1141692514	 0.103075
H	 0.6107036383	-0.5563489363	 0.5858258324	 0.101126
H	-1.4736563779	-1.1577623334	 1.9970375318	 0.123264
H	-3.1023646101	-0.6094904698	 1.3815865541	 0.136454
H	-1.3583117485	-2.8955255198	 0.1536624052	 0.11182
H	-1.9929866558	-0.0598606951	-2.1498234609	 0.087789
H	-4.1244271093	 0.7483859084	-1.4494304498	 0.296632
74.0106	90.912	151.3688	205.0792	209.6407	253.26	293.1867	335.7605	373.3427	489.6411	517.9561	595.73	691.991	736.9316	790.2237	796.5657	842.8089	920.3365	961.3916	968.2957	1001.579	1029.5549	1065.9433	1082.7583	1104.612	1119.1562	1147.5662	1156.8289	1231.3378	1248.6628	1293.647	1327.261	1352.8361	1381.7584	1412.4665	1429.186	1480.7044	1497.9676	1502.083	1507.7364	1877.3643	2968.6588	3020.1171	3039.3155	3055.3149	3111.3545	3113.3941	3129.3024	3194.0182	3214.9255	3805.7362
CCC12CC1C(=O)C2O	CC[C@]12C[C@H]1C(=O)[C@H]2O	
InChI=1S/C7H10O2/c1-2-7-3-4(7)5(8)6(7)9/h4,6,9H,2-3H2,1H3	InChI=1S/C7H10O2/c1-2-7-3-4(7)5(8)6(7)9/h4,6,9H,2-3H2,1H3/t4-,6+,7-/m0/s1
