17
gdb 18482	3.38333	1.62766	1.41541	2.6864	63.65	-0.2417	0.051	0.2927	928.4174	0.142216	-400.93146	-400.923547	-400.922603	-400.963792	29.5	
O	 0.1715477453	 1.2319581748	 0.8863993672	-0.419816
C	 0.1819951761	 0.0414542705	 0.1088024379	-0.109612
C	-1.1953511305	-0.5813118067	 0.0545033442	-0.013876
C	-1.540543581	-1.9907469635	-0.2267896919	-0.106177
C	-0.5575215072	-3.0019566238	 0.3712299991	 0.106398
O	 0.7757137781	-3.04314406	-0.0898166876	-0.422117
C	-0.7526867357	-2.2796018959	 1.7183875094	-0.191414
N	-1.8137267077	-1.3698889869	 1.1484170157	-0.158337
H	-0.1706245177	 1.0052604803	 1.7575528528	 0.288072
H	 0.4642762867	 0.3497413898	-0.9039464006	 0.111275
H	 0.9440909979	-0.6669381421	 0.4468610983	 0.118818
H	-1.9345869262	 0.1233528618	-0.3247825837	 0.105789
H	-2.3554784719	-2.2519634982	-0.8963253096	 0.091456
H	-0.9977320051	-4.0071855414	 0.3868478814	 0.084558
H	 0.7865277921	-3.4443340054	-0.9651662611	 0.285258
H	-1.1905202372	-2.9046094387	 2.4980972562	 0.117016
H	 0.131051334	-1.7763536246	 2.1194732025	 0.11271
78.3059	137.7912	195.6611	240.2668	292.2004	312.0446	388.0094	439.2158	513.0319	609.839	700.6428	759.878	785.3602	892.3361	919.0703	951.624	985.3842	1007.0568	1047.5101	1065.4278	1075.7885	1116.3203	1158.3023	1174.7838	1218.7136	1231.4664	1262.6566	1289.2295	1320.6316	1342.3647	1368.5289	1409.1149	1423.0851	1458.6493	1491.1081	1525.0182	3018.4978	3048.712	3067.0716	3086.2341	3121.4666	3125.3901	3148.8443	3811.4197	3811.5326
OCC1C2C(O)CN12	OC[C@H]1[C@H]2[C@@H](O)CN12	
InChI=1S/C5H9NO2/c7-2-3-5-4(8)1-6(3)5/h3-5,7-8H,1-2H2	InChI=1S/C5H9NO2/c7-2-3-5-4(8)1-6(3)5/h3-5,7-8H,1-2H2/t3-,4-,5-,6?/m0/s1
