17
gdb 50720	2.89024	1.41831	1.02214	4.3423	72.03	-0.2393	-0.0219	0.2174	1133.2607	0.137469	-455.161122	-455.153094	-455.15215	-455.194216	29.599	
N	 0.0155195395	 1.3190696546	 0.1688811643	-0.444621
C	 0.0381151352	 0.0649979803	-0.0114245255	 0.326389
C	 1.302802795	-0.7821087836	-0.1485303613	-0.167198
O	 1.1936069324	-1.8712138714	-1.0430608882	-0.237753
C	 0.0825409461	-2.6878509078	-0.7253130368	-0.079272
C	-1.2015330669	-1.8832595385	-0.8661323782	-0.181617
N	-1.1566240075	-0.6923901712	-0.0108266421	-0.116707
C	-2.2855516712	-0.3547620613	 0.7312332754	 0.162555
O	-2.400413982	 0.5508971504	 1.510438125	-0.281349
H	 0.9671209761	 1.6901667406	 0.1759097287	 0.224457
H	 2.1191102859	-0.1552828564	-0.5139895225	 0.127144
H	 1.5676664705	-1.1444004144	 0.8610563242	 0.118382
H	 0.0918403044	-3.5236662425	-1.4296579595	 0.122041
H	 0.1727621461	-3.0863229963	 0.2987115446	 0.100755
H	-1.3254444207	-1.5893043971	-1.9163213195	 0.129031
H	-2.0670114436	-2.4863606127	-0.5771953662	 0.122886
H	-3.0973557293	-1.0845823528	 0.5307632877	 0.074876
57.6784	124.5831	217.3021	228.3291	267.0184	356.2094	393.4234	452.5702	471.9278	555.5205	610.639	686.4517	775.1571	880.887	895.3894	976.0979	997.9931	1012.0109	1025.4417	1074.0418	1119.0969	1153.2103	1194.0598	1226.5803	1256.8738	1305.8718	1325.8385	1368.7266	1381.7161	1416.5371	1422.3998	1461.1938	1474.8996	1494.1598	1497.5599	1717.6368	1840.6551	2911.2058	2950.9929	2976.4093	3024.4832	3093.3663	3100.6595	3106.8547	3462.4122
N=C1COCCN1C=O	[NH][C]1COCCN1C=O	
InChI=1S/C5H8N2O2/c6-5-3-9-2-1-7(5)4-8/h4,6H,1-3H2	InChI=1S/C5H8N2O2/c6-5-3-9-2-1-7(5)4-8/h4,6H,1-3H2
