17
gdb 75457	2.0991	1.62662	1.37251	2.44	75.62	-0.2273	0.008	0.2353	1043.5857	0.135593	-417.98878	-417.979903	-417.978959	-418.021858	34.136	
N	-0.0113383794	 1.3166756356	 0.0951752993	-0.567374
C	-0.0668902656	-0.0452756141	 0.00521744	 0.355683
N	-1.1245844586	-0.7572970196	-0.0297796196	-0.287079
C	-0.7300109426	-2.1701172378	-0.049378651	-0.161581
C	 0.7632169231	-2.2022495762	-0.45189447	-0.280786
C	 1.2674731029	-0.8144731965	 0.0094707294	 0.146827
O	 2.1563637388	-0.16649477	-0.9036586054	-0.474143
C	 1.8509995017	-0.8460324022	 1.3524812193	 0.320454
C	 2.3650742835	-0.8960858163	 2.4384202358	-0.503228
H	 0.8208969399	 1.7292564673	-0.2994140487	 0.262523
H	-0.8729392904	 1.7994423915	-0.1111201684	 0.257529
H	-0.8850510128	-2.6138183095	 0.9434092504	 0.109029
H	-1.3610987157	-2.7283157189	-0.7482149064	 0.105791
H	 1.3255006361	-3.0313879723	-0.0188244637	 0.104414
H	 0.8669044848	-2.2317752364	-1.540596538	 0.11694
H	 3.0562235483	-0.4116121132	-0.6640628089	 0.289576
H	 2.803312166	-0.9267571513	 3.405623616	 0.205425
87.2538	135.7042	190.3613	251.3699	259.8918	286.2082	350.1405	400.168	464.2582	482.8558	555.93	562.3946	627.3018	638.7781	672.0499	677.4596	701.8597	737.1973	839.4065	939.7617	968.1537	993.5509	1023.4917	1108.3775	1125.5948	1172.9293	1217.9671	1233.7981	1297.0342	1327.7425	1343.6017	1411.7587	1481.8841	1508.1595	1618.6828	1745.9719	2227.1057	3016.0715	3060.2215	3072.1144	3125.4933	3499.6988	3572.8808	3686.7356	3818.9128
NC1=NCCC1(O)C#C	N[C]1[N]CC[C@]1(O)C#C	
InChI=1S/C6H8N2O/c1-2-6(9)3-4-8-5(6)7/h1,9H,3-4H2,(H2,7,8)	InChI=1S/C6H8N2O/c1-2-6(9)3-4-8-5(6)7/h1,9H,3-4H2,(H2,7,8)/t6-/m1/s1
