18
gdb 107887	2.18617	1.9541	1.19612	1.1602	72.04	-0.2209	0.0454	0.2663	1044.4009	0.145996	-438.951234	-438.943071	-438.942127	-438.983927	31.526	
C	-0.8576045081	 1.4180018366	-0.2812414678	-0.351874
N	-0.4766570897	 0.0279308163	-0.0448872394	-0.103919
C	-1.1622436077	-0.6919805213	 1.0612454638	-0.142194
C	 0.0724480203	-1.6152830886	 1.2631349223	 0.087822
O	 0.1458326442	-1.4495165555	 2.7013137386	-0.351704
C	-0.2500646197	-0.1216415284	 2.2395195881	 0.422532
C	-0.447393738	 0.8855153499	 3.3477324131	-0.224401
O	-1.0862972161	 2.0851724686	 2.9508065975	-0.387937
C	 0.6322888798	-0.2110153546	 0.9173173456	-0.125151
H	-0.1343466756	 1.8705390412	-0.9678101515	 0.120809
H	-1.8351271928	 1.4395712403	-0.7753071641	 0.114374
H	-0.9030264723	 2.0306981307	 0.6314976541	 0.123512
H	-2.2229794546	-0.9506924895	 1.0576992419	 0.085615
H	 0.2946626566	-2.5832086479	 0.8191373467	 0.105506
H	-0.993581054	 0.3764484956	 4.15566912	 0.11533
H	 0.5302485095	 1.1736318249	 3.747386972	 0.131571
H	-1.9986996839	 1.8746083172	 2.7260222438	 0.289047
H	 1.6644439921	 0.1009238642	 0.7516551353	 0.091061
71.0787	173.9269	226.9936	233.0785	245.3368	340.0215	354.7276	436.4825	538.3625	545.0988	625.6586	732.9663	738.0467	810.1867	816.9538	864.814	904.428	908.9326	980.1054	1023.9146	1052.3861	1086.1644	1102.4404	1121.3064	1135.0719	1147.4331	1160.7491	1191.4541	1207.6466	1231.4769	1260.8157	1288.7079	1354.0421	1380.8603	1408.9895	1453.3103	1492.0617	1497.7805	1516.8603	2995.8187	3001.3074	3072.178	3081.4365	3094.2948	3100.0904	3112.6533	3151.1692	3815.0341
CN1C2C3OC2(CO)C13	CN1[C@H]2[C@@H]3O[C@@]2(CO)[C@H]13	
InChI=1S/C6H9NO2/c1-7-4-3-5(7)6(4,2-8)9-3/h3-5,8H,2H2,1H3	InChI=1S/C6H9NO2/c1-7-4-3-5(7)6(4,2-8)9-3/h3-5,8H,2H2,1H3/t3-,4-,5+,6+
