18
gdb 73514	3.07046	1.742	1.36324	2.0815	78.25	-0.2166	0.0043	0.2209	973.293	0.148123	-401.872433	-401.865007	-401.864062	-401.903803	30.032	
C	-0.1040168493	 1.6330358854	-0.2252638532	-0.445703
C	-0.0131395676	 0.1339537548	 0.0237330889	 0.392954
O	 0.9937453614	-0.439117186	-0.8058970561	-0.327202
C	 2.1347453305	-0.6855767153	 0.0407891129	-0.126111
C	 1.5458813649	-0.9216173248	 1.4268674445	-0.22506
C	 0.3117587237	-0.428953029	 1.406306702	 0.20337
C	-1.0721585255	-0.9163747514	 1.6560265652	-0.153739
N	-2.0598461627	 0.1268304286	 1.2857857302	-0.328444
C	-1.3778762341	-0.6155829377	 0.2031825704	-0.129883
H	 0.859058216	 2.1067955573	-0.0112599314	 0.115354
H	-0.3416075401	 1.8146639044	-1.278498751	 0.116688
H	-0.8703703747	 2.0909599172	 0.4004031963	 0.143417
H	 2.6461648243	-1.5802341527	-0.3326375787	 0.112878
H	 2.8462435485	 0.1535687904	-0.017166871	 0.102213
H	 1.9838714699	-1.5985040194	 2.1492104487	 0.100877
H	-1.3611047919	-1.7655241052	 2.2620061579	 0.105323
H	-2.9833498846	-0.2888489488	 1.4079048609	 0.235794
H	-1.9130360988	-1.2259621677	-0.5140318365	 0.107276
165.8248	210.3298	222.121	266.84	316.5885	374.9533	438.5813	507.4149	632.1054	689.9051	712.114	775.4904	783.8851	829.5355	856.1493	875.6409	894.2984	915.4203	934.3996	1001.704	1014.2525	1023.7471	1072.2992	1080.1993	1128.8896	1149.4084	1175.1994	1193.3432	1218.4736	1247.3898	1273.7264	1313.9182	1348.5801	1367.9613	1397.0482	1483.7444	1497.2456	1512.0636	1716.8189	2973.4261	3042.9301	3053.908	3105.3739	3151.3311	3190.2368	3202.8654	3211.536	3469.4613
CC12OCC=C1C1NC21	C[C@@]12OC[CH][C]1[C@H]1N[C@@H]21	
InChI=1S/C7H9NO/c1-7-4(2-3-9-7)5-6(7)8-5/h2,5-6,8H,3H2,1H3	InChI=1S/C7H9NO/c1-7-4(2-3-9-7)5-6(7)8-5/h2,5-6,8H,3H2,1H3/t5-,6-,7-/m1/s1
