14
gdb 35837	2.08042	1.6592	1.02678	6.4409	74.12	-0.2723	-0.0663	0.206	1112.9252	0.102607	-395.748692	-395.740718	-395.739773	-395.782145	28.319	
N	 0.0267076571	-1.1505884307	 0.4433262496	-0.313789
C	 0.010747573	-0.022283066	 0.1971067529	 0.3183
C	-0.002509545	 1.4213954746	-0.1234081057	-0.270737
N	-0.7847767907	 2.1896826332	 0.8552115733	-0.290286
C	 0.1452541886	 2.9818781698	 1.6819678663	-0.211179
C	 1.4720219556	 2.8826917599	 0.9813284536	-0.173979
C	 1.4103098721	 2.0172900162	-0.0341348753	 0.222326
C	 2.4560228914	 1.64476871	-0.9158187322	 0.229709
N	 3.2840661731	 1.3335509281	-1.6633086644	-0.320493
H	-0.4203981569	 1.52278413	-1.1314646638	 0.144608
H	-1.4289306883	 2.7968386314	 0.3679462993	 0.243841
H	-0.2007106174	 4.0168379492	 1.7833218908	 0.132231
H	 0.2210182001	 2.5757601599	 2.7016047594	 0.146426
H	 2.3597476571	 3.4185413444	 1.2919956063	 0.143021
48.3438	108.8959	164.5442	199.0117	238.1881	375.4371	473.6476	485.6491	557.3502	582.9022	638.5395	697.159	772.5183	866.5634	883.2141	929.543	945.6335	1005.6665	1051.5143	1115.1392	1165.3091	1212.5135	1262.0812	1286.5842	1332.2646	1368.2589	1462.6373	1497.6015	1686.5789	2343.598	2361.4486	3001.6203	3049.0803	3058.317	3228.454	3583.5903
N#CC1NCC=C1C#N	N#C[C@H]1NCC=C1C#N	
InChI=1S/C6H5N3/c7-3-5-1-2-9-6(5)4-8/h1,6,9H,2H2	InChI=1S/C6H5N3/c7-3-5-1-2-9-6(5)4-8/h1,6,9H,2H2/t6-/m1/s1
