18
gdb 85615	2.21321	1.74623	1.03491	4.1497	74.52	-0.25	0.0022	0.2522	1147.1137	0.148633	-439.127415	-439.118931	-439.117987	-439.16175	31.49	
C	-0.1960224424	 1.4957213967	-0.0375023837	-0.395744
C	 0.0891877072	-0.0025838643	 0.0330757898	 0.063892
O	 0.7842326583	-0.3222651759	-1.1918686911	-0.246431
C	 0.7612006282	-1.6101971371	-1.641938462	 0.403702
O	 0.3908010673	-1.8851193478	-2.7548390273	-0.36473
N	 1.198638189	-2.5405237157	-0.7292750283	-0.341152
C	 2.2021409398	-2.2782446174	 0.300223154	-0.218213
C	 1.7847526827	-1.3153366106	 1.3775199457	-0.061679
C	 0.8689994666	-0.3593692001	 1.2728466947	-0.035255
H	 0.7409664314	 2.0599266098	-0.0549310627	 0.13298
H	-0.7601298425	 1.7274186153	-0.9431448961	 0.13629
H	-0.7779593685	 1.8124212887	 0.8330655852	 0.118026
H	-0.8676888019	-0.5445413975	 0.0279168253	 0.107016
H	 1.2349055991	-3.4620578743	-1.1397741857	 0.255161
H	 2.4169241623	-3.2439883401	 0.7693038522	 0.121719
H	 3.1528456067	-1.94075301	-0.1446407831	 0.130073
H	 2.3146397608	-1.4352927444	 2.3191745546	 0.099624
H	 0.6452777259	 0.2514654947	 2.1442201286	 0.094721
18.5635	123.1105	187.1592	231.7456	274.3711	305.7129	364.236	379.9977	513.6623	552.3136	608.1398	672.8717	730.3651	769.4897	828.4623	839.7852	887.1554	901.638	994.6393	998.7676	1029.6775	1056.5347	1121.8009	1128.0202	1161.7536	1237.3255	1280.5246	1297.9661	1327.2871	1376.0837	1399.9382	1408.2023	1424.5537	1473.9653	1485.4668	1495.5172	1498.7381	1747.3708	1839.9898	2968.9464	2996.9645	3047.2482	3066.2281	3120.7324	3137.382	3147.4087	3169.9419	3614.7073
CC1OC(=O)NCC=C1	C[C@H]1OC(=O)NCC=C1	
InChI=1S/C6H9NO2/c1-5-3-2-4-7-6(8)9-5/h2-3,5H,4H2,1H3,(H,7,8)	InChI=1S/C6H9NO2/c1-5-3-2-4-7-6(8)9-5/h2-3,5H,4H2,1H3,(H,7,8)/t5-/m1/s1
