18
gdb 78823	3.56465	1.34157	1.15155	1.9229	81.79	-0.2297	0.0412	0.2709	1103.6954	0.147013	-364.696639	-364.68876	-364.687816	-364.728745	31.276	
C	-0.0083351611	 1.6029252411	 0.0564860067	-0.426635
C	 0.0925810381	 0.0910648725	-0.0511717359	 0.070921
C	 0.8037050293	-0.6132315996	-1.1972863533	-0.12192
C	 2.2821116404	-0.7385819678	-0.7759473948	-0.077415
C	 1.2446282134	-1.6708019152	-0.2336035411	-0.019313
N	 0.9999530225	-0.6688078945	 0.9205315356	-0.186605
C	 2.3847938806	-0.0945760869	 0.6053082799	-0.194629
C	 3.4089108449	-0.6757814176	 1.4563227827	 0.343336
C	 4.2782071467	-1.141649646	 2.1430564264	-0.432375
H	 0.9087475423	 2.1162833574	-0.2427396673	 0.123258
H	-0.8116891451	 1.9649812124	-0.5938120324	 0.119519
H	-0.2517151132	 1.8944064675	 1.0840129224	 0.132306
H	-0.9011561713	-0.3474638198	 0.090201962	 0.08496
H	 0.5115072689	-0.7292047294	-2.23448571	 0.091672
H	 3.0674727593	-0.943482384	-1.4920524624	 0.099865
H	 1.1382703528	-2.7434606362	-0.1721176762	 0.103686
H	 2.4344051069	 0.99679581	 0.6720551089	 0.095802
H	 5.0376688346	-1.5545675739	 2.7596415389	 0.193567
119.9777	153.2014	173.1934	243.8283	289.0803	394.7155	498.2731	506.9733	561.08	625.8992	643.6283	704.6333	787.2995	801.6246	811.4549	855.1101	871.0886	886.2883	904.6597	957.7155	1015.9318	1021.7961	1034.0825	1040.4867	1061.3851	1099.0754	1136.2335	1151.1123	1170.666	1230.7191	1255.1901	1291.2599	1348.4361	1364.8419	1398.251	1412.5586	1488.7529	1503.5113	2239.6634	3036.3164	3045.6127	3056.721	3101.3815	3120.0408	3180.6766	3199.4837	3232.7331	3504.6715
CC1C2C3C2N1C3C#C	C[C@H]1[C@H]2[C@@H]3[C@H]2N1[C@H]3C#C	
InChI=1S/C8H9N/c1-3-5-7-6-4(2)9(5)8(6)7/h1,4-8H,2H3	InChI=1S/C8H9N/c1-3-5-7-6-4(2)9(5)8(6)7/h1,4-8H,2H3/t4-,5-,6-,7+,8-/m0/s1
