23
gdb 92888	2.95648	1.1543	0.88554	0.4006	95.96	-0.2068	-0.0124	0.1944	1406.8583	0.206571	-351.183016	-351.173667	-351.172723	-351.216936	36.171	
C	 0.0007856977	 1.6065550716	 0.072252514	-0.394591
C	-0.0249216335	 0.0719454972	 0.0464094497	 0.019924
C	 0.3552024226	-0.4296508001	-1.3524150035	-0.248004
C	 0.4723069036	-1.9095953404	-1.5791814323	-0.074252
C	 0.4444115783	-2.9360336047	-0.7167160319	-0.111947
C	 0.3376962214	-2.965840614	 0.7482164569	 0.304364
C	 0.00295956	-4.3242523621	 1.3230496417	-0.481125
C	 0.5503057137	-1.9194534853	 1.5612836239	-0.169453
C	 0.8893310936	-0.5133949541	 1.1472732786	-0.258195
H	 1.0190310138	 1.983998035	-0.0820301149	 0.111723
H	-0.6326436911	 2.0314754375	-0.7137296613	 0.108669
H	-0.3535852696	 1.9923025423	 1.0335418185	 0.110015
H	-1.049210496	-0.2578665867	 0.2605537712	 0.079941
H	-0.378955205	-0.0395725213	-2.0730042732	 0.1035
H	 1.3065997981	 0.0378104572	-1.6551075128	 0.105407
H	 0.588155372	-2.1725066264	-2.6301823858	 0.084763
H	 0.5148657629	-3.9267802519	-1.1650992933	 0.073709
H	 0.7469102217	-5.0733627389	 1.0231217483	 0.121267
H	-0.0348894592	-4.3024397907	 2.414874988	 0.116581
H	-0.9665923896	-4.6834843523	 0.9559655652	 0.123107
H	 0.459096858	-2.0900484446	 2.63184149	 0.075361
H	 1.9337011843	-0.4576596867	 0.8036843016	 0.106601
H	 0.8351149823	 0.1307853795	 2.0319147414	 0.092634
65.492	112.957	186.3051	226.2385	237.2605	299.783	333.8837	339.6196	365.511	407.5486	429.1547	552.3517	615.0862	687.6715	758.1257	810.403	844.0204	868.8249	891.8129	903.0027	936.6445	1003.4305	1016.2658	1025.1273	1070.0039	1079.4944	1101.073	1108.9319	1162.5476	1172.7588	1198.5999	1280.7204	1290.7499	1321.9512	1345.5991	1368.5146	1377.731	1404.1242	1412.7883	1414.8162	1456.0157	1462.9359	1477.6466	1480.076	1495.6738	1498.3623	1499.4173	1690.2287	1724.1258	2975.9908	2991.4818	3005.3504	3017.0478	3023.0479	3031.6637	3055.7637	3064.2451	3089.6809	3099.4424	3112.174	3115.7692	3137.7788	3143.1947
CC1CC=CC(C)=CC1	C[C@H]1CC=CC(=CC1)C	
InChI=1S/C9H14/c1-8-4-3-5-9(2)7-6-8/h3-4,6,9H,5,7H2,1-2H3	InChI=1S/C9H14/c1-8-4-3-5-9(2)7-6-8/h3-4,6,9H,5,7H2,1-2H3/t9-/m0/s1
