18
gdb 8681	2.69506	1.62791	1.30289	3.5812	67.8	-0.2585	0.0286	0.2871	1020.0981	0.152715	-381.128118	-381.118624	-381.11768	-381.161866	34.227	
C	-0.1650795838	 1.6056681939	 0.0117684442	-0.391908
C	-0.0144877203	 0.0829215717	-0.0077365505	-0.206581
C	 0.7687660832	-0.4679104203	-1.2188446893	 0.064043
N	 2.1201154259	 0.1022510333	-1.2570718194	-0.517791
C	 0.7869103364	-2.0235683372	-1.1857309388	-0.088831
O	 1.548374022	-2.5617489588	-2.2465116713	-0.420668
C	 0.085231563	-0.0921466714	-2.4778151969	 0.301675
N	-0.4581543607	 0.1184073228	-3.476257505	-0.352065
H	 0.8097495281	 2.0979378642	-0.0088224566	 0.139036
H	-0.7337585401	 1.9539063809	-0.8555972328	 0.141767
H	-0.6966776381	 1.9229250342	 0.9133617104	 0.116414
H	 0.5135624853	-0.2570746829	 0.8930334381	 0.102158
H	-1.0005772341	-0.3942943341	 0.012155573	 0.116386
H	 2.5530939172	-0.0379764275	-0.3473221151	 0.231116
H	 2.6697996156	-0.4354680877	-1.9236794804	 0.245828
H	 1.2824330491	-2.3345167293	-0.2598164884	 0.111829
H	-0.2399012851	-2.4165616888	-1.175700034	 0.10661
H	 1.0532271765	-2.4325199932	-3.064269607	 0.300981
96.2332	115.7549	157.7487	174.4037	212.517	234.7646	271.9348	310.9998	384.4357	393.8163	428.7928	462.7985	589.4695	637.1856	710.3403	795.4562	876.778	911.7145	968.4401	1002.9011	1044.5275	1069.0646	1098.2988	1142.5789	1181.7613	1247.491	1287.3713	1355.6566	1375.0868	1386.2382	1414.381	1419.1255	1479.24	1491.9174	1494.2113	1508.588	1657.3499	2349.485	3001.762	3022.8621	3048.9578	3068.5161	3079.9581	3116.4998	3132.9603	3474.5901	3555.9279	3793.2638
CCC(N)(CO)C#N	CC[C@@](N)(CO)C#N	
InChI=1S/C5H10N2O/c1-2-5(7,3-6)4-8/h8H,2,4,7H2,1H3	InChI=1S/C5H10N2O/c1-2-5(7,3-6)4-8/h8H,2,4,7H2,1H3/t5-/m0/s1
