21
gdb 40566	3.72045	1.03236	0.88386	1.7495	86.29	-0.2303	0.016	0.2462	1367.1803	0.18434	-387.091785	-387.083475	-387.082531	-387.125069	32.14	
C	 0.2481909608	 1.4748478288	-0.0664393479	-0.195028
O	 1.2051456629	 0.4352310625	-0.2419544499	-0.23665
C	-0.1636299379	 0.0592189249	-0.0086640965	 0.000662
C	-0.4722820781	-0.6712548462	 1.2476043055	 0.318843
C	-1.4669531846	-1.5657670248	 1.2632166146	-0.153019
C	-1.8637101563	-2.3782241952	 2.4669212462	-0.245659
C	-0.7896936266	-2.3504424814	 3.5633210486	-0.195896
C	-0.2531964504	-0.9282411018	 3.756847425	-0.203637
C	 0.3839358072	-0.3981584128	 2.4651109246	-0.293758
H	 0.3452046033	 2.0558172783	 0.848749054	 0.113729
H	 0.0149907325	 2.0561068494	-0.9583913507	 0.11469
H	-0.6663087676	-0.3329986711	-0.8939464369	 0.087496
H	-2.042697401	-1.7280629297	 0.3531685573	 0.075903
H	-2.817978786	-1.9989319278	 2.8638573646	 0.107061
H	-2.0695910041	-3.4116559108	 2.1604088973	 0.10271
H	-1.195658113	-2.7439813158	 4.5011966932	 0.090928
H	 0.0382666145	-3.0108529596	 3.2749815157	 0.100189
H	-1.0804490189	-0.2686526998	 4.0508159275	 0.095757
H	 0.4775307508	-0.8976484451	 4.5721429423	 0.092287
H	 1.3712694643	-0.8530528097	 2.3097927159	 0.122591
H	 0.577341918	 0.6764523875	 2.5608807796	 0.100801
63.6236	107.8776	185.2614	228.5266	276.3052	357.4081	369.9794	465.053	500.3758	555.6204	630.6156	756.2231	812.1376	828.9592	851.0437	866.935	902.4138	925.6029	940.6705	971.2104	1007.5951	1057.8417	1090.895	1096.2331	1101.3091	1145.4184	1158.4919	1168.3671	1185.986	1205.1944	1265.9931	1285.3177	1296.7443	1337.0115	1368.7949	1373.178	1383.2355	1400.6228	1426.8733	1469.7915	1476.741	1490.0103	1499.582	1523.9798	1726.4511	2990.9665	3017.2697	3022.4864	3024.1907	3040.1804	3056.3722	3069.7159	3074.0978	3081.7923	3098.4568	3134.4021	3168.641
C1OC1C1=CCCCC1	C1O[C@H]1C1=CCCCC1	
InChI=1S/C8H12O/c1-2-4-7(5-3-1)8-6-9-8/h4,8H,1-3,5-6H2	InChI=1S/C8H12O/c1-2-4-7(5-3-1)8-6-9-8/h4,8H,1-3,5-6H2/t8-/m1/s1
