17
gdb 69387	3.26908	1.31352	1.0404	5.3082	77.6	-0.2394	-0.0157	0.2237	1162.375	0.135257	-418.003219	-417.994569	-417.993624	-418.036779	31.423	
C	-0.2351453747	 1.5305460162	 0.0943126898	-0.492494
C	 0.0464514455	 0.0615405093	-0.011963172	 0.155386
C	-0.7215820492	-1.0267926418	 0.7459648205	-0.331814
C	 0.7618151445	-0.9075546088	 0.914671839	-0.062246
N	 1.4451508275	-1.5044596544	-0.237005459	-0.101464
C	 1.9686254265	-2.7818187209	-0.3472038432	 0.061065
N	 2.3194594635	-3.2907734181	-1.4554114644	-0.41742
C	 0.8067017022	-0.6141243212	-1.1512993987	 0.396412
O	 0.8941992226	-0.4671906067	-2.3308944262	-0.321341
H	 0.6637949094	 2.122185373	-0.1046004002	 0.137232
H	-0.9978532961	 1.8290788051	-0.6320786614	 0.144782
H	-0.602888319	 1.7907457865	 1.0914600657	 0.123603
H	-1.3366868191	-0.6469883505	 1.5576626508	 0.127159
H	-1.1342021006	-1.8848749858	 0.2237749687	 0.134105
H	 1.2943910062	-0.696047427	 1.8323853619	 0.124927
H	 2.0538551762	-3.2586004021	 0.638919913	 0.093773
H	 2.6911475944	-4.2271563429	-1.3063766545	 0.228335
72.2825	150.9502	159.7555	164.071	180.5692	256.9773	297.9735	458.1963	476.114	527.4471	635.8527	699.9897	748.3205	812.733	831.501	871.1253	935.0414	945.1827	971.9127	990.6832	1059.4874	1064.709	1099.9129	1103.6863	1115.6926	1200.3511	1257.804	1265.8508	1379.5937	1389.473	1419.3869	1426.7112	1483.1979	1488.6711	1497.3398	1717.3487	1907.231	3023.8732	3037.4349	3104.1157	3109.3634	3115.7799	3202.9683	3210.4383	3503.6825
CC12CC1N(C=N)C2=O	C[C@]12C[C@H]1N([CH][NH])C2=O	
InChI=1S/C6H8N2O/c1-6-2-4(6)8(3-7)5(6)9/h3-4,7H,2H2,1H3	InChI=1S/C6H8N2O/c1-6-2-4(6)8(3-7)5(6)9/h3-4,7H,2H2,1H3/t4-,6+/m1/s1
