21
gdb 84239	2.42327	1.91472	1.34612	1.0583	89.09	-0.2048	-0.0272	0.1775	1041.3099	0.182145	-349.861692	-349.85356	-349.852615	-349.893629	33.187	
C	 0.0044508063	 1.5298165051	-0.0953851683	-0.404551
C	-0.0229141171	-0.001114048	-0.0168962354	-0.067733
C	 0.8335825492	-0.6153229262	-1.1239433687	-0.112428
C	 1.5810533754	-1.6178292463	-0.6231848874	 0.034618
C	 2.9918432298	-1.2414300455	-0.1510793025	-0.268059
C	 2.2286596209	-1.0286770653	 1.2102592397	-0.107356
C	 1.1361035439	-1.9807319208	 0.8041010974	-0.157823
C	 0.6837688121	-0.6260076663	 1.2158133875	 0.339005
C	 0.1059267755	-0.3675950639	 2.5901883608	-0.493495
H	 1.0334621549	 1.9036705409	-0.1264904536	 0.117952
H	-0.515059409	 1.889607557	-0.9893353792	 0.115758
H	-0.4879465279	 1.971158461	 0.7771313982	 0.116161
H	-1.0761192951	-0.3240996769	 0.0054773181	 0.073511
H	 1.1904972345	 0.0196561019	-1.9320229308	 0.089196
H	 3.7090238607	-2.0616075394	-0.0246182139	 0.102207
H	 3.4719361527	-0.3942348926	-0.6495557586	 0.09826
H	 2.7393190083	-1.0177471251	 2.1707411388	 0.085104
H	 0.8692353507	-2.9518128335	 1.202179551	 0.083846
H	 0.5842815706	-0.9868311483	 3.3549474096	 0.117539
H	 0.2247852191	 0.6798122852	 2.889014173	 0.121115
H	-0.9668314454	-0.5953366831	 2.6034803041	 0.117173
130.8651	207.1378	219.8285	242.8388	279.1125	334.1801	380.4314	438.0951	534.2366	561.7351	595.5813	664.4113	741.9328	787.2433	824.6356	834.8579	871.9287	897.0677	906.5831	947.2783	987.7242	1024.1931	1033.0046	1044.3847	1063.0655	1082.6497	1088.5415	1114.8323	1119.6687	1158.6526	1204.4303	1236.5024	1246.3746	1280.33	1289.1259	1342.8938	1367.9468	1402.2687	1412.8189	1488.0707	1494.477	1496.6639	1499.2114	1501.5143	1595.865	2965.2825	3020.7742	3023.606	3031.0617	3081.2093	3087.2943	3099.7218	3102.0967	3102.9468	3130.5344	3147.0459	3185.4954
CC1C=C2CC3C2C13C	C[C@H]1[CH][C]2C[C@@H]3[C@H]2[C@]13C	
InChI=1S/C9H12/c1-5-3-6-4-7-8(6)9(5,7)2/h3,5,7-8H,4H2,1-2H3	InChI=1S/C9H12/c1-5-3-6-4-7-8(6)9(5,7)2/h3,5,7-8H,4H2,1-2H3/t5-,7+,8-,9+/m0/s1
