21
gdb 121264	3.929	0.99408	0.8828	1.1667	79.57	-0.2544	0.0907	0.3452	1402.1811	0.182873	-424.219615	-424.210762	-424.209818	-424.253884	32.98	
C	-0.0020784748	 1.5096945661	-0.1088852152	-0.384917
C	-0.083637828	-0.0067211605	-0.1174956258	-0.039364
O	 0.6549983894	-0.4850642604	-1.2364215087	-0.248965
C	 0.768898409	-1.8661667625	-1.298554795	 0.228168
O	-0.5140420571	-2.4438742275	-1.5592205706	-0.282087
C	-0.3532686879	-3.6273243168	-2.3324300056	-0.09159
C	 0.9235998872	-3.4293640626	-3.1310087693	-0.053996
C	 1.0704543861	-2.098141538	-3.8179116245	-0.278635
C	 1.6564869479	-2.3037171802	-2.4448714483	-0.082484
H	 1.037561678	 1.8404868433	-0.0305890206	 0.123143
H	-0.4233182241	 1.9210972824	-1.0305751542	 0.12782
H	-0.5620125521	 1.915350807	 0.7391657004	 0.113694
H	 0.3390342941	-0.4255118474	 0.8107022099	 0.084253
H	-1.1255803098	-0.3439813005	-0.1863733064	 0.111765
H	 1.1481061405	-2.251426461	-0.3322918007	 0.052465
H	-0.2619690708	-4.5139669823	-1.6849136003	 0.092138
H	-1.2538700309	-3.7440199539	-2.9457566179	 0.108795
H	 1.4423680065	-4.3003192562	-3.5131767732	 0.088818
H	 1.7663781111	-2.0389740519	-4.6467775318	 0.10955
H	 0.1989536687	-1.4582268443	-3.9029851831	 0.130469
H	 2.728579527	-2.306467703	-2.2950380291	 0.090962
58.0776	92.0652	107.9125	181.5183	243.3188	281.0751	342.6915	363.6207	443.6004	601.8355	655.1502	732.2955	789.0004	818.5946	835.4543	898.5054	914.1548	925.7934	956.0515	998.7321	1041.5307	1059.3971	1073.3814	1080.0468	1094.2309	1108.4323	1129.1655	1149.7236	1172.5998	1189.7246	1203.8817	1237.6385	1295.7032	1329.2279	1355.2871	1366.0443	1377.3959	1404.9331	1408.547	1448.9034	1483.115	1483.6569	1500.2327	1521.1458	1528.7156	2912.7521	2972.8716	2977.3941	3041.6661	3043.9281	3058.2577	3118.0615	3121.055	3138.0064	3182.3939	3195.7042	3227.5802
CCOC1OCC2CC12	CCO[C@H]1OC[C@H]2C[C@@H]12	
InChI=1S/C7H12O2/c1-2-8-7-6-3-5(6)4-9-7/h5-7H,2-4H2,1H3	InChI=1S/C7H12O2/c1-2-8-7-6-3-5(6)4-9-7/h5-7H,2-4H2,1H3/t5-,6-,7+/m1/s1
