20
gdb 98467	2.35444	1.21898	0.95817	3.9594	75.7	-0.2542	-0.0274	0.2268	1307.9678	0.169136	-440.277172	-440.267329	-440.266385	-440.312184	35.983	
C	 0.74258316	 0.9565440949	 0.1891690181	-0.388031
C	 0.0615441812	-0.3827644951	-0.1202765291	-0.263914
C	-1.4186176497	-0.395989034	 0.2205379055	 0.220032
C	-2.0307514072	-1.6631295958	 0.7435512773	-0.276304
N	-1.8630187454	-0.510749518	 1.6263144696	-0.341908
C	-2.2905380498	 0.4811077977	-0.6306488394	 0.322188
O	-1.9605998902	 0.8003345195	-1.7572836492	-0.346853
C	-3.6078358728	 1.0021143057	-0.071872079	-0.134212
O	-4.3160550243	 1.7066455525	-1.0489218388	-0.424582
H	 1.8085231897	 0.9109944055	-0.0513300542	 0.12011
H	 0.3004249482	 1.7636011853	-0.4010001157	 0.140901
H	 0.6501872651	 1.2198063024	 1.2485139254	 0.113932
H	 0.1700775859	-0.6112731505	-1.1849874557	 0.129363
H	 0.5538285818	-1.1910057449	 0.4342116416	 0.09099
H	-3.0590246769	-1.9198839637	 0.506028223	 0.131684
H	-1.3619205438	-2.5142221767	 0.8432943892	 0.126104
H	-1.0528463908	-0.6371869407	 2.2284168111	 0.239885
H	-4.2062554767	 0.1698792605	 0.3252376114	 0.121294
H	-3.3625580933	 1.6302058341	 0.800225068	 0.128136
H	-3.717181921	 1.7502608812	-1.8118727093	 0.291185
64.2185	87.6275	116.6497	183.1528	199.0212	230.4315	277.0576	334.4766	351.1953	416.7565	459.7766	479.1337	532.0657	594.226	753.7169	790.7012	826.3818	861.597	933.0072	967.7992	985.2323	1021.4539	1031.087	1075.2547	1106.1985	1118.0559	1141.0964	1148.1154	1237.2441	1251.8432	1280.9181	1302.0856	1327.5987	1376.4045	1397.7129	1411.799	1453.1634	1471.2259	1476.2774	1498.0927	1509.1839	1512.3653	1772.169	2985.7625	3019.8702	3032.4787	3039.5531	3084.4368	3108.7556	3109.3584	3123.6592	3196.5768	3499.7669	3678.1802
CCC1(CN1)C(=O)CO	CC[C@]1(CN1)C(=O)CO	
InChI=1S/C6H11NO2/c1-2-6(4-7-6)5(9)3-8/h7-8H,2-4H2,1H3	InChI=1S/C6H11NO2/c1-2-6(4-7-6)5(9)3-8/h7-8H,2-4H2,1H3/t6-/m0/s1
