19
gdb 63011	2.42968	1.77237	1.51987	1.5721	73.95	-0.2238	0.0647	0.2884	973.3695	0.160029	-419.150876	-419.142941	-419.141996	-419.182631	32.318	
C	 0.0704586555	 1.5322752953	 0.0090676738	-0.437479
C	 0.00778215	 0.0081333063	-0.0047127748	 0.387534
O	-1.3395194255	-0.4698374224	 0.0494443395	-0.477064
C	 0.7078269124	-0.626447099	-1.2269404408	-0.108674
N	 2.1372453362	-0.3092959306	-1.3801080421	-0.321713
C	 1.7357186958	-1.5953489471	-0.7691484041	-0.037429
C	 1.7289358308	-1.6046816354	 0.7470476072	-0.043188
N	 2.1169864821	-0.3228126127	 1.3735202255	-0.323782
C	 0.6921495848	-0.6459645271	 1.2080416461	-0.072756
H	 1.1126865194	 1.8559618445	 0.0139281122	 0.162431
H	-0.4166171251	 1.9496880374	-0.8814017722	 0.094187
H	-0.4360625472	 1.9280167997	 0.8947586158	 0.112914
H	-1.850163229	 0.0237345543	-0.6006884176	 0.276252
H	 0.0974463391	-0.7924978171	-2.1110585844	 0.073879
H	 2.4115412211	-0.4744582026	-2.3461898276	 0.228534
H	 1.9379060251	-2.520891795	-1.2970438995	 0.083678
H	 1.9308649282	-2.5347831698	 1.2668306529	 0.083667
H	 2.3829524025	-0.494513585	 2.3405063258	 0.230227
H	 0.0660498639	-0.8176325239	 2.0777826342	 0.08878
153.8383	202.1125	239.1043	252.3682	326.1655	351.2184	372.6445	397.1578	544.3875	551.3053	596.6661	709.826	765.1454	808.1333	844.2616	876.1072	880.9331	890.9013	911.3345	950.53	952.3721	975.6706	1052.2302	1062.6038	1100.2546	1120.0786	1128.7243	1142.3378	1162.5487	1206.468	1213.9945	1237.6345	1252.0572	1319.511	1355.4838	1397.0034	1399.5475	1416.6806	1437.7221	1490.5326	1496.938	3024.0893	3093.0649	3137.3433	3144.8945	3160.6174	3166.2255	3178.9302	3489.0466	3493.8841	3812.0346
CC1(O)C2NC2C2NC12	C[C@@]1(O)[C@H]2N[C@H]2[C@H]2N[C@@H]12	
InChI=1S/C6H10N2O/c1-6(9)4-2(7-4)3-5(6)8-3/h2-5,7-9H,1H3	InChI=1S/C6H10N2O/c1-6(9)4-2(7-4)3-5(6)8-3/h2-5,7-9H,1H3/t2-,3+,4-,5+,6+
