21
gdb 58541	2.1069	1.43421	1.35752	2.0498	78.21	-0.2383	-0.0222	0.2161	1136.5583	0.180138	-424.242055	-424.232139	-424.231195	-424.27673	37.234	
C	 0.1001223792	 1.5461326484	 0.1130603598	-0.429395
C	 0.0012559978	 0.0213088656	 0.0319977701	 0.074419
O	 0.7264625011	-0.5872433349	 1.1014133682	-0.443752
C	-1.4434324142	-0.5162574122	-0.003336768	 0.209354
C	-2.3095674438	 0.1325081071	-1.0899429478	-0.46451
C	-1.5801987942	-2.0804416522	 0.0268681564	-0.286179
C	-2.5250236745	-1.9967076344	 1.2638542774	-0.335665
C	-2.1302947441	-0.5223665696	 1.3826933879	 0.371044
O	-2.1796693605	 0.2854467711	 2.2702724367	-0.322849
H	 1.148759857	 1.8319751985	 0.2328987167	 0.123679
H	-0.2830568038	 2.0299828317	-0.7892727415	 0.11859
H	-0.468500519	 1.9217962358	 0.9702331783	 0.140524
H	 0.507302352	-0.328330431	-0.8778397987	 0.088917
H	 0.4410559972	-0.1609533729	 1.918360625	 0.28906
H	-1.8378448198	 0.014266446	-2.072385613	 0.122967
H	-3.2969429604	-0.337701728	-1.1402034647	 0.118441
H	-2.4590853256	 1.199611955	-0.9068773635	 0.134458
H	-2.008315347	-2.5283542003	-0.8712713261	 0.099422
H	-0.6321656176	-2.5621202321	 0.2666392222	 0.130439
H	-3.5853271385	-2.1193112209	 1.0198416599	 0.130668
H	-2.2965630315	-2.6180842306	 2.1331274547	 0.130368
55.5253	88.2891	137.5558	221.6302	230.3511	239.719	281.0037	351.058	364.1707	404.568	450.19	453.2633	494.1084	552.1869	669.508	714.068	759.312	866.2769	874.9323	920.3428	930.0012	967.2161	1006.8736	1056.4148	1069.7683	1087.2815	1101.4971	1160.4062	1188.3961	1210.2414	1228.9677	1243.4748	1286.1704	1309.6906	1348.4024	1400.1894	1409.2268	1422.7117	1436.571	1482.183	1489.6478	1494.1542	1503.6959	1510.0145	1863.489	3020.7301	3029.9832	3041.7505	3057.2381	3083.6944	3093.4885	3112.8761	3115.4384	3118.5443	3123.6574	3147.9888	3791.456
CC(O)C1(C)CCC1=O	C[C@@H](O)[C@@]1(C)CCC1=O	
InChI=1S/C7H12O2/c1-5(8)7(2)4-3-6(7)9/h5,8H,3-4H2,1-2H3	InChI=1S/C7H12O2/c1-5(8)7(2)4-3-6(7)9/h5,8H,3-4H2,1-2H3/t5-,7-/m1/s1
