20
gdb 105694	2.81536	1.00172	0.83744	3.6777	76.98	-0.248	0.0345	0.2825	1422.5235	0.169373	-440.284978	-440.274989	-440.274045	-440.321623	35.433	
C	 0.8364361064	 0.0900042265	 1.0264343628	-0.254272
O	-0.0474602113	 0.1002939218	-0.0822947077	-0.291744
C	-1.2334946396	-0.6325590899	 0.1041429601	 0.420565
C	-2.2512496301	 0.0662376973	 0.9810354628	-0.225284
N	-2.5707037138	 1.379318137	 0.4434127799	-0.270232
C	-3.8436872304	 1.7958957565	 0.2218263652	 0.154964
O	-4.8455522073	 1.1822323735	 0.5274936677	-0.328353
C	-1.6920702414	-1.3821597609	-1.1075688711	-0.310124
C	-1.147319028	-2.1361603399	 0.0911957158	-0.329478
H	 1.7316702684	 0.6355108427	 0.7194374606	 0.130514
H	 0.408268297	 0.5866921487	 1.9079958618	 0.112011
H	 1.1184270367	-0.9331420153	 1.3083213969	 0.114306
H	-3.1840950212	-0.4990372065	 1.0266963912	 0.145399
H	-1.8758887482	 0.1577148655	 2.0093699877	 0.109001
H	-1.8050229788	 1.9165692793	 0.0666843548	 0.253592
H	-3.8705212678	 2.7877837046	-0.2715097823	 0.073444
H	-2.7559613106	-1.4243255909	-1.3122114152	 0.129047
H	-1.0560987207	-1.3209504603	-1.9827955166	 0.125063
H	-0.1605901682	-2.5742311296	-0.0091002615	 0.120927
H	-1.834619311	-2.7036748801	 0.709295137	 0.120654
17.4551	70.6446	96.5675	159.9984	183.8025	239.1827	268.0571	297.6037	337.8146	378.7901	450.6769	572.5945	574.193	713.8416	768.8444	797.6288	884.2444	923.9007	937.3411	978.0059	1022.5211	1036.1367	1053.2671	1058.2017	1081.8213	1099.9647	1182.4116	1188.5349	1210.1303	1216.1311	1230.8387	1294.3192	1349.2872	1386.0586	1428.1911	1455.1974	1474.7369	1483.615	1498.6955	1504.0001	1509.1003	1523.906	1801.6503	2936.5096	2998.4685	3013.1623	3053.7768	3120.2387	3120.7726	3135.4034	3141.7501	3219.674	3235.7648	3630.6099
COC1(CNC=O)CC1	COC1(CNC=O)CC1	
InChI=1S/C6H11NO2/c1-9-6(2-3-6)4-7-5-8/h5H,2-4H2,1H3,(H,7,8)	InChI=1S/C6H11NO2/c1-9-6(2-3-6)4-7-5-8/h5H,2-4H2,1H3,(H,7,8)
