16
gdb 98516	2.33484	1.47371	0.96631	2.2633	68.35	-0.2568	-0.058	0.1988	1192.4841	0.122093	-475.036666	-475.02743	-475.026485	-475.071622	32.022	
C	-0.2137315797	 1.4708373124	-0.2151403295	-0.339191
N	-0.2457245763	 0.0413708691	-0.4595501922	-0.345155
C	 0.8661077829	-0.6585216091	-0.7760209916	 0.369271
O	 1.9868686084	-0.1942255744	-0.8810510736	-0.384351
C	 0.6373648319	-2.1491973317	-1.0356678082	 0.16456
C	 1.565372958	-2.7880304192	-2.0115258389	-0.188969
O	 1.7280817914	-2.9948396498	-0.6309765058	-0.234802
C	-0.6734701172	-2.844764475	-0.8509820353	 0.134968
O	-1.74497499	-2.3138756911	-0.6718622662	-0.285058
H	 0.8119296263	 1.8118320463	-0.3569616095	 0.170959
H	-0.8708591035	 2.0020558698	-0.9119619251	 0.130349
H	-0.5298961026	 1.7023779793	 0.8077258779	 0.132789
H	-1.1224313226	-0.4637982643	-0.4232961672	 0.273435
H	 1.2325395517	-3.6494269942	-2.590072243	 0.125102
H	 2.290430482	-2.1219528007	-2.4730235	 0.160266
H	-0.5706547007	-3.9491095674	-0.8817100617	 0.115827
58.1223	59.6319	139.6356	148.8126	193.1364	282.3952	324.1047	328.5481	374.732	396.0437	499.775	633.1013	666.8171	759.9026	834.6244	861.5423	902.1751	940.5984	1035.8679	1057.3803	1140.5277	1152.4131	1167.5639	1179.9777	1245.8179	1295.7946	1333.259	1423.9163	1440.0487	1492.2588	1497.3606	1500.493	1597.3628	1779.9589	1809.3443	2930.2134	3033.3182	3086.3135	3086.4804	3158.2087	3197.0847	3548.0827
CNC(=O)C1(CO1)C=O	CNC(=O)[C@]1(CO1)C=O	
InChI=1S/C5H7NO3/c1-6-4(8)5(2-7)3-9-5/h2H,3H2,1H3,(H,6,8)	InChI=1S/C5H7NO3/c1-6-4(8)5(2-7)3-9-5/h2H,3H2,1H3,(H,6,8)/t5-/m1/s1
