20
gdb 89264	2.42286	1.80114	1.31211	0.8394	78.37	-0.2002	0.0725	0.2727	1039.4825	0.170448	-403.071323	-403.063037	-403.062093	-403.103575	33.022	
C	-0.469783305	 1.4524908017	-0.0644270695	-0.32861
N	 0.1057128349	 0.1319265107	 0.0068326766	-0.057689
C	 1.0609129933	-0.3936640086	-0.9912211201	-0.27902
C	 1.846742282	-1.0785701553	 0.170326294	 0.431307
O	 2.08855591	-2.4482248096	 0.1246990067	-0.491747
C	 3.026968389	-0.3256069088	 0.8195512309	-0.08698
C	 2.867490792	 1.1620950285	 0.7668614529	-0.301534
C	 2.0620089033	 0.3938555047	 1.7784507385	-0.062382
C	 0.8648053054	-0.3813990169	 1.1545030315	-0.093567
H	 0.2600958429	 2.280500392	-0.0474015573	 0.097921
H	-1.0624500676	 1.548206344	-0.9814129028	 0.118629
H	-1.15026641	 1.5957907515	 0.7822615767	 0.120164
H	 0.601796613	-1.0964013247	-1.7025483541	 0.083817
H	 1.6220538058	 0.3531932217	-1.5704740199	 0.0941
H	 1.2687858761	-2.8917129262	-0.1194932326	 0.282628
H	 3.9727087336	-0.8097462482	 1.0289830537	 0.094216
H	 3.6981035557	 1.7209753229	 1.187529609	 0.113678
H	 2.4024937044	 1.6552538466	-0.0785132191	 0.113722
H	 2.1782900986	 0.5728275286	 2.8410734858	 0.083417
H	 0.2784527226	-0.9386591945	 1.892501479	 0.067932
145.2349	156.1587	209.5032	246.081	281.4491	311.9608	349.1666	398.7107	470.1611	548.9257	597.9117	645.4677	736.3042	766.2422	843.3511	869.8094	919.8178	944.493	958.4337	983.6375	994.0321	1041.2791	1045.9519	1061.8939	1083.4362	1092.6263	1118.7839	1137.4058	1154.4749	1180.8602	1212.5517	1254.6479	1267.7222	1294.7579	1301.5336	1330.2577	1361.685	1397.0023	1452.4691	1487.4938	1489.7502	1506.3693	1524.8992	2951.4412	2979.6889	3015.1211	3046.2675	3050.3166	3088.3436	3132.9232	3171.6796	3192.2352	3212.0978	3803.3483
CN1CC2(O)C3CC3C12	CN1C[C@@]2(O)[C@H]3C[C@H]3[C@@H]12	
InChI=1S/C7H11NO/c1-8-3-7(9)5-2-4(5)6(7)8/h4-6,9H,2-3H2,1H3	InChI=1S/C7H11NO/c1-8-3-7(9)5-2-4(5)6(7)8/h4-6,9H,2-3H2,1H3/t4-,5+,6-,7-/m1/s1
