20
gdb 70826	2.25111	1.71641	1.48595	1.2905	79.61	-0.2278	0.0741	0.3018	1045.4488	0.16844	-403.063514	-403.054507	-403.053563	-403.096357	34.842	
C	 0.0688469577	 1.4081688973	-0.1379021482	-0.534259
C	 0.0167036889	-0.0783322089	-0.0245065655	 0.458715
O	 0.5715715421	-0.9148983993	-1.0880474902	-0.388726
C	 0.0790428005	-1.8942993472	-0.1204147777	 0.421677
C	 0.2413783709	-3.3517997973	-0.4052689607	-0.53222
C	 0.4638378631	-1.0279607741	 1.1246435678	-0.180544
N	-0.905755862	-1.0213710457	 1.7345409641	-0.378913
C	-1.1905234978	-1.0385174922	 0.2577689847	 0.196725
C	-2.5595903736	-1.042335779	-0.3482151132	-0.53882
H	 1.1034698397	 1.7554562471	-0.2186599882	 0.133072
H	-0.4789805661	 1.74982681	-1.0217293258	 0.130706
H	-0.3838409409	 1.8561506744	 0.7516696385	 0.143062
H	 1.299067008	-3.6083870713	-0.519761889	 0.137493
H	-0.1705705369	-3.9467166681	 0.4170139069	 0.122202
H	-0.2819832163	-3.626823046	-1.3263487964	 0.135243
H	 1.3873606837	-1.0163605793	 1.7056080941	 0.080178
H	-1.113797412	-1.9357613815	 2.1457838235	 0.203886
H	-3.1484495807	-0.1937966559	 0.0143152553	 0.133627
H	-2.4803364493	-0.9730697783	-1.4380809203	 0.136049
H	-3.1036831689	-1.9614489247	-0.1036338995	 0.12085
174.6282	189.8556	197.6637	206.1379	210.9268	218.3396	263.199	266.756	431.6505	529.6942	540.3922	596.1443	690.5043	697.4108	733.678	762.4668	776.3439	832.787	860.231	920.9221	955.129	1027.5053	1059.3512	1073.9804	1105.6643	1122.7	1156.5299	1169.6918	1208.6866	1251.6725	1273.6951	1278.8058	1328.7439	1390.3752	1403.7892	1405.7526	1456.5787	1472.672	1477.1394	1482.1978	1490.1354	1490.9131	1497.0369	3030.4398	3034.7659	3039.3	3096.399	3105.6775	3107.767	3109.251	3109.3671	3110.3732	3120.0751	3394.8311
CC12OC3(C)C1NC23C	C[C@@]12O[C@@]3(C)[C@@H]1N[C@@]23C	
InChI=1S/C7H11NO/c1-5-4-6(2,9-5)7(5,3)8-4/h4,8H,1-3H3	InChI=1S/C7H11NO/c1-5-4-6(2,9-5)7(5,3)8-4/h4,8H,1-3H3/t4-,5-,6+,7+
