14
gdb 19684	5.20942	1.6412	1.53359	3.4231	60.45	-0.2382	-0.0296	0.2086	820.1609	0.106929	-382.468674	-382.462426	-382.461482	-382.499527	23.643	
O	-0.0490824759	-0.0153172872	 0.1896740949	-0.252869
C	-0.023247943	 1.1889731824	 0.1157680226	 0.139962
C	 1.2483717912	 1.9952458581	 0.0254192308	-0.082121
C	 1.4474225656	 2.9813353997	-1.13698763	-0.141471
C	 0.7956948215	 4.2928909295	-0.6637426065	 0.09643
O	 0.1933489689	 4.0503412225	 0.6075818464	-0.286547
C	 1.3804345288	 3.2710395279	 0.9227946615	 0.038669
C	 2.1827309487	 3.9710318851	-0.2340311111	-0.143087
H	-0.9553385302	 1.7914427989	 0.1092518124	 0.093719
H	 2.116003477	 1.3411624947	 0.1390304829	 0.098571
H	 1.6320635966	 2.7541077427	-2.17864575	 0.106002
H	 0.3799544463	 5.0512455109	-1.3128824607	 0.120059
H	 1.6039815502	 3.2212258884	 1.9855910566	 0.101448
H	 3.1376922844	 4.4707199163	-0.30748986	 0.111234
69.051	174.5411	258.8427	423.5936	523.9553	575.4621	757.9816	773.8574	793.2813	809.8979	828.4559	879.9223	921.658	954.3217	988.8502	1022.0152	1030.1605	1052.037	1064.1552	1089.1664	1123.1384	1157.0598	1173.8011	1219.6297	1230.4094	1294.2976	1308.6731	1372.5669	1422.5002	1819.7886	2921.8334	3096.6368	3156.7817	3205.9054	3213.3293	3228.7468
O=CC1C2C3OC1C23	O=C[C@H]1[C@H]2[C@H]3O[C@@H]1[C@@H]23	
InChI=1S/C6H6O2/c7-1-2-3-4-5(2)8-6(3)4/h1-6H	InChI=1S/C6H6O2/c7-1-2-3-4-5(2)8-6(3)4/h1-6H/t2-,3+,4+,5-,6+/m0/s1
