22
gdb 63663	4.25723	0.66712	0.63294	4.3138	88.16	-0.2735	0.0388	0.3124	1816.4176	0.192677	-367.230367	-367.220014	-367.21907	-367.266182	37.785	
C	 0.0029504974	 1.5336876976	-0.1687959638	-0.455067
C	-0.0087170913	 0.0250090913	-0.00219206	 0.322859
C	-1.2100401762	-0.6451658121	-0.6449072747	-0.44709
C	 1.3086350614	-0.7180524899	-0.0381478831	-0.329344
C	 0.533054475	-0.6161108933	 1.2601436916	-0.026097
C	 1.0732029153	 0.1621566377	 2.4403387223	-0.222339
C	 2.0712555091	-0.6866083976	 3.2596608495	-0.331063
C	 2.6141855844	 0.0343957077	 4.408362017	 0.255088
N	 3.0323065021	 0.6228525717	 5.3109331436	-0.306524
H	 0.9020746496	 1.9961836417	 0.2456643506	 0.116628
H	-0.0374101651	 1.7974460823	-1.2319255341	 0.118329
H	-0.8656271547	 1.994458134	 0.3164700874	 0.117549
H	-1.2433514855	-0.4406695227	-1.7215374523	 0.116516
H	-1.1829819871	-1.7313617044	-0.5131312347	 0.111999
H	-2.14723407	-0.278617294	-0.2094343102	 0.116353
H	 1.3567479307	-1.6765308656	-0.5446739194	 0.109505
H	 2.2152022001	-0.1259120607	-0.1263721153	 0.107599
H	 0.0114323723	-1.5252076763	 1.5556122086	 0.080196
H	 1.5797376182	 1.0739184071	 2.1118312085	 0.119548
H	 0.2554406585	 0.479677547	 3.0976929504	 0.120691
H	 1.5844903507	-1.6000799133	 3.6209936846	 0.149764
H	 2.9015409851	-1.0066365281	 2.6201323335	 0.1549
59.0011	76.8929	88.1571	188.454	202.2826	220.9789	234.1038	279.9107	365.1366	382.128	396.5144	431.2963	483.8743	556.9373	695.0974	764.5161	825.6343	882.3463	914.1141	926.576	955.7774	971.406	1006.2471	1015.1855	1043.5024	1061.498	1090.5158	1131.8304	1150.9389	1168.638	1217.1967	1270.5641	1296.2398	1318.5437	1337.28	1369.6797	1412.9036	1426.479	1429.7956	1467.4115	1481.2417	1487.5745	1493.3595	1497.0941	1502.6978	1515.8069	2361.0128	3020.3965	3027.7336	3038.5645	3046.8046	3074.931	3080.1253	3083.5903	3094.4155	3097.9056	3113.3995	3118.8663	3120.4707	3203.6433
CC1(C)CC1CCC#N	CC1(C)C[C@H]1CCC#N	
InChI=1S/C8H13N/c1-8(2)6-7(8)4-3-5-9/h7H,3-4,6H2,1-2H3	InChI=1S/C8H13N/c1-8(2)6-7(8)4-3-5-9/h7H,3-4,6H2,1-2H3/t7-/m1/s1
