21
gdb 72663	2.23018	1.47329	1.42503	0.7532	88.9	-0.2391	0.041	0.2802	1106.8115	0.181355	-349.908461	-349.89933	-349.898386	-349.942543	35.472	
C	-0.3029675705	 1.5204971751	 0.1117992701	-0.493769
C	-0.0136572275	 0.0420093704	 0.0059499151	 0.328588
C	-1.2195891913	-0.9370684015	 0.0137251109	-0.274782
C	-0.5764985253	-1.7627523575	 1.1643485031	-0.282564
C	 0.6562889928	-0.8060636464	 1.1896143086	 0.16041
C	 1.7907790042	-1.2307846417	 0.2056466448	-0.282561
C	 1.1337343292	-0.4083096449	-0.9393782301	-0.274785
C	 1.0402869476	-0.2382389962	 2.4528729457	 0.192078
C	 1.3540292967	 0.2597846357	 3.5039013694	-0.426623
H	 0.613226977	 2.0948345179	 0.2863987604	 0.1188
H	-0.761158109	 1.8926391736	-0.8133296212	 0.11442
H	-0.9917104869	 1.734259768	 0.9362370393	 0.118798
H	-2.1579024458	-0.4572799237	 0.3045535418	 0.10114
H	-1.3891094274	-1.4715944734	-0.925373344	 0.095502
H	-1.1500401402	-1.7365065478	 2.0922763477	 0.113062
H	-0.3332746337	-2.8044516473	 0.9379106558	 0.099225
H	 2.770827493	-0.8553280501	 0.5043545219	 0.113061
H	 1.8680177959	-2.3098034488	 0.0465167333	 0.099225
H	 0.8148166402	-0.9764755992	-1.8179223002	 0.095504
H	 1.7569843585	 0.4223532861	-1.2810908624	 0.10114
H	 1.6338390227	 0.6897863215	 4.43321082	 0.184133
31.8602	119.0117	166.5446	209.6791	246.6266	336.9121	345.3893	357.4733	518.6575	519.7702	547.1221	606.1195	610.4781	624.2324	672.4884	750.287	756.4638	852.3466	901.7435	909.988	948.2136	963.4452	965.4823	996.979	1030.6651	1069.1607	1137.0732	1147.3797	1215.1527	1217.985	1241.8602	1251.3661	1254.9096	1255.5267	1274.2859	1303.8961	1329.8155	1411.0612	1471.5334	1482.0996	1484.8164	1488.2455	1490.5977	1503.9171	2220.6808	3018.5824	3049.2715	3051.9391	3060.4823	3063.1907	3082.8468	3093.0382	3097.7375	3098.3027	3121.9102	3125.8007	3503.311
CC12CCC1(CC2)C#C	C[C@]12CC[C@]1(CC2)C#C	
InChI=1S/C9H12/c1-3-9-6-4-8(9,2)5-7-9/h1H,4-7H2,2H3	InChI=1S/C9H12/c1-3-9-6-4-8(9,2)5-7-9/h1H,4-7H2,2H3/t8-,9+
