20
gdb 93530	2.83515	1.38212	1.0778	3.1291	77.01	-0.2522	0.022	0.2742	1176.9307	0.170978	-440.303076	-440.294145	-440.293201	-440.336587	33.875	
C	-0.1863051051	 1.4766375594	-0.0679934267	-0.419122
C	 0.0674610298	-0.0212424924	 0.0020204191	 0.112883
O	 0.7638571703	-0.4060130953	-1.1754280754	-0.256404
C	 0.839304712	-1.8134609266	-1.2827517252	-0.159736
C	 1.3589487959	-2.4993313185	-0.0340991536	 0.363038
N	 1.9086537826	-3.6352610585	-0.1208877946	-0.511387
O	 1.1071935986	-1.8985798123	 1.161064795	-0.266806
C	 0.8841554309	-0.4668454696	 1.2189846269	 0.113872
C	 2.2284780479	 0.2386393695	 1.372182017	-0.401344
H	 0.7505090808	 2.0255227359	-0.1904734378	 0.135692
H	-0.8261787929	 1.7023097176	-0.9244789579	 0.132429
H	-0.6848845248	 1.8292557259	 0.839998468	 0.120233
H	-0.8989092561	-0.5537828809	 0.0382695179	 0.073718
H	-0.1580197041	-2.2312879256	-1.5030814356	 0.116945
H	 1.4984487898	-2.0528848255	-2.1173758368	 0.145368
H	 2.142975727	-3.9855255877	 0.8106460229	 0.21832
H	 0.2831860518	-0.3306202352	 2.1242481424	 0.092444
H	 2.7930736372	 0.1972555584	 0.4367499779	 0.138302
H	 2.0914726888	 1.2875230212	 1.6496319954	 0.122061
H	 2.8104842696	-0.2497916595	 2.1573459411	 0.129493
75.3959	112.0205	205.1438	215.7932	264.0382	285.31	302.7529	398.158	404.0273	445.7004	505.4708	541.833	633.2792	736.1198	758.5028	849.599	876.7347	906.083	953.7739	992.5371	1014.7139	1033.636	1086.4888	1098.7372	1144.074	1155.6372	1163.0556	1188.2618	1275.1379	1307.7035	1352.5965	1362.3168	1375.035	1395.4005	1409.8098	1415.0929	1419.7097	1477.2383	1483.0352	1490.3406	1497.7823	1508.5106	1752.5165	2951.8415	2964.4538	3049.0472	3051.0174	3057.0574	3123.6873	3123.8212	3132.3503	3134.1864	3134.3056	3459.9188
CC1OCC(=N)OC1C	C[C@H]1OC[C]([NH])O[C@H]1C	
InChI=1S/C6H11NO2/c1-4-5(2)9-6(7)3-8-4/h4-5,7H,3H2,1-2H3	InChI=1S/C6H11NO2/c1-4-5(2)9-6(7)3-8-4/h4-5,7H,3H2,1-2H3/t4-,5+/m1/s1
