19
gdb 83971	2.35204	1.73253	1.29286	3.4385	74.15	-0.2259	-0.0299	0.1961	1044.6961	0.160003	-423.038563	-423.030436	-423.029491	-423.071538	30.861	
C	 0.3062550197	 1.6806510652	 0.0905403776	-0.410013
C	 0.1518269057	 0.1667856947	 0.0146251193	-0.110748
C	 0.6290594247	-0.6642037982	-1.2268478164	-0.085917
C	 1.7899271209	-0.1153587985	-2.0771698809	-0.2326
C	 3.053461798	-0.5687919931	-1.3178070786	-0.098531
O	 2.7038972908	-1.8065396939	-0.6969459246	-0.244054
C	 1.3647714534	-1.6863118993	-0.2894288302	 0.004275
C	 1.0906746513	-0.6902360629	 0.8832501273	 0.354476
O	 1.5550931109	-0.5498895291	 1.9766721774	-0.293993
H	 1.3379419784	 1.9923028686	-0.0998257867	 0.123559
H	-0.3402638573	 2.1850725914	-0.6342678839	 0.121056
H	 0.0384293812	 2.0338288603	 1.0905664393	 0.137771
H	-0.8849517859	-0.1104037698	 0.2475884023	 0.10609
H	-0.182131523	-1.055793506	-1.8394699899	 0.07951
H	 1.7644489218	-0.5824917612	-3.0655981892	 0.113274
H	 1.7573343903	 0.9674418882	-2.2208106763	 0.108846
H	 3.914795025	-0.7535096507	-1.9634356951	 0.115694
H	 3.3453008635	 0.170449517	-0.5562161577	 0.107897
H	 0.9373172407	-2.6833897526	-0.1579498937	 0.103407
60.1444	156.6303	178.4806	202.503	249.649	289.4994	447.0332	507.2788	554.4615	598.967	657.4212	752.1721	762.8295	857.4196	877.1064	881.9849	933.1319	941.9648	979.6979	1001.3179	1044.7541	1071.7213	1115.4139	1132.1524	1138.3605	1162.7667	1210.3465	1227.4825	1232.8357	1262.201	1305.65	1316.9562	1331.3221	1352.7431	1389.5351	1407.0876	1483.4812	1493.1264	1502.975	1522.6147	1886.1369	2989.5623	3023.3766	3039.681	3062.5851	3085.8679	3102.875	3107.5552	3110.0762	3114.1105	3118.2171
CC1C2CCOC2C1=O	C[C@H]1[C@H]2CCO[C@H]2C1=O	
InChI=1S/C7H10O2/c1-4-5-2-3-9-7(5)6(4)8/h4-5,7H,2-3H2,1H3	InChI=1S/C7H10O2/c1-4-5-2-3-9-7(5)6(4)8/h4-5,7H,2-3H2,1H3/t4-,5+,7+/m0/s1
