20
gdb 59444	2.75402	1.16713	0.91068	6.5574	75.88	-0.2409	0.0289	0.2698	1313.1832	0.171153	-440.310973	-440.301749	-440.300804	-440.345248	34.768	
C	-2.2336104673	 0.5584821342	 0.6218725645	-0.393168
C	-1.0041278216	-0.3029731089	 0.3150985507	-0.008327
N	 0.0044320822	 0.376904905	-0.5326375459	-0.518157
H	 0.3905639752	 1.1795867952	-0.0417039302	 0.23761
H	 1.0065104108	-1.063316576	-0.7089705213	 0.326114
H	-0.4230793842	 0.7312233499	-1.3842553405	 0.2423
C	-0.3199914307	-0.7744132462	 1.5834028066	 0.001663
C	-0.6510023446	-2.1182955751	 2.1864721968	-0.290913
C	 0.709060888	-1.8822472186	 1.5809524167	-0.162608
C	 1.16445743	-2.6762341687	 0.3669738579	 0.377275
O	 1.4314059152	-3.847252669	 0.4550178761	-0.337987
O	 1.3035208138	-2.0108063395	-0.7844855672	-0.385756
H	-1.9514810224	 1.4538419785	 1.1880945116	 0.114527
H	-2.7279443872	 0.8825490371	-0.2999968748	 0.113493
H	-2.9616468552	-0.000422883	 1.217952092	 0.13159
H	-1.3250142185	-1.183131779	-0.2553807162	 0.102713
H	-0.1271077871	 0.0320482254	 2.2899061512	 0.081926
H	-0.731116446	-2.2082875388	 3.2636671944	 0.119811
H	-1.3318741023	-2.7595538905	 1.6355418804	 0.128265
H	 1.522614632	-1.7747348121	 2.2929812073	 0.119627
47.3689	112.6374	184.3619	212.1873	248.7753	262.4261	309.292	330.046	398.5539	441.3825	496.3161	545.0737	647.5528	747.3912	770.9196	803.0143	850.1859	896.8504	930.8815	988.6977	994.3646	997.2934	1016.9488	1045.386	1071.7925	1112.5235	1124.4149	1139.3813	1176.5499	1207.5869	1253.053	1274.416	1337.3136	1377.2565	1392.4373	1408.475	1437.1601	1460.5997	1491.9023	1495.4063	1498.3496	1647.5424	1843.0057	3027.1664	3036.0538	3096.0275	3108.5701	3111.5644	3133.6981	3149.8304	3176.9924	3219.2042	3480.2702	3560.9717
CC([NH3+])C1CC1C([O-])=O	C[C@@H](N)[C@H]1C[C@H]1C(=O)O	
InChI=1S/C6H11NO2/c1-3(7)4-2-5(4)6(8)9/h3-5H,2,7H2,1H3,(H,8,9)	InChI=1S/C6H11NO2/c1-3(7)4-2-5(4)6(8)9/h3-5H,2,7H2,1H3,(H,8,9)/t3-,4-,5-/m1/s1
