17
gdb 50853	2.65823	1.04439	0.77667	2.8419	73.59	-0.2544	-0.017	0.2373	1424.7005	0.135957	-455.158455	-455.149528	-455.148584	-455.193151	31.57	
N	-0.0655727582	 0.6304997363	 1.6019007349	-0.45797
C	-0.5444647446	 0.4642509801	 0.4372346984	 0.097273
N	-1.8623296337	 0.0667000184	 0.2732756744	-0.299774
C	-2.4487672571	-0.1280094725	-0.9617897947	 0.397461
O	-1.8611345941	 0.0405020353	-2.0095438464	-0.351566
C	-3.8983813741	-0.6117103403	-0.8908838886	-0.342631
C	-4.786902294	 0.2362635641	-0.0072971015	 0.077793
C	-5.7767196851	-0.3623497666	 0.8968405447	-0.176211
O	-4.5408488546	 0.1493179136	 1.4042039634	-0.233431
H	 0.90914041	 0.9197867242	 1.5417812307	 0.231175
H	-0.0334086307	 0.596288143	-0.5183734766	 0.136735
H	-2.419472788	-0.0580794216	 1.1107619193	 0.283316
H	-4.2779990973	-0.6238219753	-1.9150777118	 0.140192
H	-3.8971093698	-1.6422421668	-0.5160302115	 0.130386
H	-4.9619446289	 1.2541135019	-0.3559746154	 0.11459
H	-6.6609059292	 0.2026409047	 1.185080393	 0.12849
H	-5.8831805905	-1.4454832885	 0.9292330776	 0.124172
66.4146	88.369	105.1693	164.2087	202.216	231.4286	346.4199	353.5785	459.0986	512.2138	608.1537	718.3334	749.1314	800.7703	835.4116	871.4324	927.6912	950.7995	986.5684	1080.6386	1091.3502	1099.4468	1113.896	1157.83	1170.6597	1210.5221	1262.9974	1290.5247	1301.7072	1314.5452	1396.1609	1436.3049	1458.7939	1512.4012	1527.5566	1728.4424	1802.2824	3044.8867	3092.1137	3111.2126	3122.0954	3124.4403	3182.6119	3503.3086	3564.2789
N=CNC(=O)CC1CO1	N=CNC(=O)C[C@H]1CO1	
InChI=1S/C5H8N2O2/c6-3-7-5(8)1-4-2-9-4/h3-4H,1-2H2,(H2,6,7,8)	InChI=1S/C5H8N2O2/c6-3-7-5(8)1-4-2-9-4/h3-4H,1-2H2,(H2,6,7,8)/t4-/m0/s1
