21
gdb 65028	2.64208	1.4453	1.19245	0.6832	77.79	-0.2518	0.0622	0.314	1130.0261	0.181055	-424.188112	-424.178869	-424.177924	-424.222077	35.573	
C	-0.0415819404	 1.4886968259	 0.1848495504	-0.474897
C	-0.0015514834	-0.0218691454	 0.0292154304	 0.337132
C	 1.0823874865	-0.5929419567	-0.8563587377	-0.304881
C	 1.1749562421	-0.7451564929	 0.6440712807	-0.304836
C	-1.3486332084	-0.7318125231	 0.040580884	 0.264038
O	-1.1189406212	-2.1128363004	-0.1146054837	-0.474436
C	-2.3151461201	-0.3145330854	 1.1857713491	-0.129289
O	-3.1099398394	 0.4665294448	 0.2726732148	-0.270783
C	-2.4433810192	-0.104920981	-0.8694997443	-0.12933
H	 0.975866539	 1.8894620562	 0.1634006507	 0.113833
H	-0.6003989801	 1.9748370059	-0.6211175329	 0.122577
H	-0.4934296042	 1.7970262941	 1.1329789527	 0.122637
H	 0.8544033207	-1.4839368981	-1.4275591778	 0.125419
H	 1.7480771886	 0.1086459288	-1.3479272044	 0.10285
H	 1.9041710706	-0.1480485476	 1.1813878099	 0.102856
H	 1.0070777605	-1.7351754489	 1.0488109924	 0.125388
H	-1.969034489	-2.56378809	-0.107761873	 0.282317
H	-2.8748586087	-1.1689624059	 1.5966902505	 0.08403
H	-1.9180777629	 0.2815703475	 2.0134389442	 0.110683
H	-2.1438341103	 0.6503494801	-1.6028946482	 0.110682
H	-3.0600304805	-0.8662962881	-1.3717537779	 0.08401
49.2495	98.9257	190.3454	252.252	279.9242	282.8826	333.7111	352.3534	385.659	389.1637	448.1405	516.8971	597.0054	765.1247	798.0267	853.2415	875.5271	910.7519	923.1917	957.0298	959.5503	1004.9239	1026.1525	1042.2285	1067.1729	1071.1146	1089.5234	1104.8688	1127.4662	1141.2832	1161.4343	1197.3295	1199.6032	1286.841	1289.5897	1321.7528	1367.4088	1417.3193	1428.0391	1458.5932	1485.7766	1493.8855	1504.3773	1513.203	1532.3711	2977.8358	2989.5413	3038.6154	3072.0572	3074.899	3101.9711	3106.4892	3136.6403	3140.3702	3226.0079	3238.3309	3819.7739
CC1(CC1)C1(O)COC1	CC1(CC1)C1(O)COC1	
InChI=1S/C7H12O2/c1-6(2-3-6)7(8)4-9-5-7/h8H,2-5H2,1H3	InChI=1S/C7H12O2/c1-6(2-3-6)7(8)4-9-5-7/h8H,2-5H2,1H3
