19
gdb 59189	3.41014	1.02566	0.99292	2.5212	76.29	-0.2416	0.01	0.2517	1274.7745	0.158413	-422.986213	-422.977529	-422.976585	-423.019789	33.047	
C	 0.045733271	 1.4957978183	 0.1363038185	-0.403747
C	 0.080282452	-0.0333407536	 0.0932676101	 0.073937
O	 0.7526670147	-0.5727708962	 1.2292910674	-0.425072
C	-1.3279009484	-0.6197252697	-0.0062478255	 0.032557
C	-2.122038449	-0.6353068997	-1.3692101824	-0.199181
C	-1.2113473037	-1.8368695802	-1.8039902618	-0.247176
C	-1.5284487074	-2.1539533155	-0.3011128734	-0.186813
C	-2.9564505328	-1.7290107275	-0.6781144643	 0.446567
O	-4.0902489674	-2.059774567	-0.5224507703	-0.324999
H	 1.0571620193	 1.8904403049	 0.2636918909	 0.1281
H	-0.3781382813	 1.9098708771	-0.7840363953	 0.12226
H	-0.5683830869	 1.8483981331	 0.9744396488	 0.109716
H	 0.6977495214	-0.345412498	-0.7526915563	 0.093487
H	 0.2865740129	-0.2727980849	 2.0181063327	 0.277962
H	-1.9154989351	-0.2508222089	 0.844682412	 0.074747
H	-2.4484169744	 0.21322193	-1.9667923816	 0.093032
H	-1.6188049948	-2.5206484521	-2.5507018506	 0.116628
H	-0.1745348598	-1.5914944951	-2.0254208304	 0.117778
H	-1.1816191604	-2.9931309551	 0.2961939715	 0.100217
63.1015	132.121	134.8289	241.3041	278.4269	285.7465	345.3437	411.4821	478.1205	487.7252	516.6322	698.9652	726.2711	780.5803	795.1033	875.5213	896.2044	905.506	960.4395	990.1728	1022.1851	1041.5131	1057.0873	1070.0152	1094.2731	1123.5963	1136.9563	1155.7214	1190.2091	1192.8216	1230.2228	1234.5615	1272.1985	1331.4104	1402.8461	1417.1079	1430.8827	1490.41	1495.9684	1528.9399	1918.4337	3017.5522	3027.5327	3076.2336	3089.0703	3102.0201	3121.7848	3144.162	3158.9201	3163.3663	3793.4766
CC(O)C1C2CC1C2=O	C[C@@H](O)[C@H]1[C@H]2C[C@@H]1C2=O	
InChI=1S/C7H10O2/c1-3(8)6-4-2-5(6)7(4)9/h3-6,8H,2H2,1H3	InChI=1S/C7H10O2/c1-3(8)6-4-2-5(6)7(4)9/h3-6,8H,2H2,1H3/t3-,4-,5+,6+/m1/s1
