19
gdb 61474	2.56018	0.88935	0.82605	2.8922	82.28	-0.267	0.027	0.294	1491.6916	0.157567	-382.050106	-382.039697	-382.038752	-382.08588	37.479	
C	 0.6637666515	-0.2884574	-1.4240046651	-0.401225
C	 0.00134749	 0.0916316255	-0.0856693196	-0.136472
C	-1.4709903653	-0.3759392755	-0.0462106049	-0.176098
C	-2.2220604189	 0.1313237154	 1.1991896379	-0.144548
N	-2.3046964299	 1.5948239571	 1.1900214748	-0.49484
C	-3.5460867485	-0.5192149409	 1.2994506239	 0.25626
N	-4.6021102713	-0.9855441729	 1.3691309654	-0.324035
C	 0.7508814892	-0.4523577082	 1.0464724225	 0.335378
C	 1.3555666963	-0.9206317113	 1.9748322656	-0.492015
H	 1.6993659223	 0.0587432102	-1.4552757322	 0.130415
H	 0.6661208696	-1.3736999527	-1.5638272808	 0.128646
H	 0.1213188648	 0.166055005	-2.2588438731	 0.116789
H	-0.0041183562	 1.1841975611	 0.0070841898	 0.130652
H	-1.985174204	-0.0119072176	-0.9437543556	 0.10817
H	-1.5129762318	-1.4692791249	-0.0712622677	 0.127197
H	-1.6435451264	-0.1621623916	 2.0827968634	 0.146952
H	-2.9543420918	 1.8992228278	 0.4698688988	 0.240973
H	-2.6747273924	 1.9314027894	 2.0734463861	 0.246994
H	 1.9010828027	-1.3229374456	 2.7924899407	 0.200805
49.7398	82.314	118.5829	166.8416	211.3802	222.3515	254.3027	265.5736	306.383	332.0838	411.1179	517.8055	560.0614	575.4236	592.5878	628.0444	647.1364	789.2216	839.9144	889.409	937.7025	947.2662	986.7332	1052.439	1091.4607	1133.8628	1156.8887	1165.7658	1280.1277	1289.0701	1322.02	1369.1471	1372.8784	1399.3396	1410.1099	1476.6646	1492.106	1500.5601	1663.0596	2230.4856	2344.1422	3036.8088	3040.4954	3043.7062	3056.6784	3093.8069	3113.3212	3124.1711	3494.7071	3502.5085	3575.8074
CC(CC(N)C#N)C#C	C[C@@H](C[C@@H](N)C#N)C#C	
InChI=1S/C7H10N2/c1-3-6(2)4-7(9)5-8/h1,6-7H,4,9H2,2H3	InChI=1S/C7H10N2/c1-3-6(2)4-7(9)5-8/h1,6-7H,4,9H2,2H3/t6-,7-/m1/s1
