19
gdb 42727	2.59139	1.8063	1.41185	3.0681	79.83	-0.2317	-0.0037	0.228	989.203	0.161378	-385.888415	-385.881192	-385.880248	-385.919861	29.452	
O	 0.0522705483	 0.0681357209	 0.0273904828	-0.360494
C	-0.0091373875	 1.2710359266	 0.013853529	 0.39408
C	-1.2260948492	 2.1913454258	 0.0059902977	-0.139818
C	-0.7690887191	 3.2620346206	 1.057898331	-0.237474
C	 0.3208193043	 3.5695245744	-0.0131187854	-0.119614
C	-0.7737365577	 3.2377204876	-1.0720703129	-0.237473
C	 1.1249641001	 2.272918915	-0.0000790933	 0.291331
C	 2.4028818722	 2.0066317382	 0.752066208	-0.331561
C	 2.3995823158	 1.9894654016	-0.7515489253	-0.331557
H	-2.2072878738	 1.7220593996	 0.0134878826	 0.0818
H	-1.5038824275	 4.0638715302	 1.1602860683	 0.106297
H	-0.4428201003	 2.914363005	 2.0415732009	 0.106802
H	 0.8748226595	 4.5079474654	-0.0250410827	 0.067014
H	-0.4517463111	 2.8676681327	-2.0489667762	 0.106804
H	-1.5090095045	 4.037048202	-1.1895288765	 0.106298
H	 2.8748589363	 2.8440369017	 1.2556181806	 0.116055
H	 2.4765595473	 1.0554621884	 1.2689968033	 0.132726
H	 2.4710402943	 1.0267388942	-1.2469482827	 0.132727
H	 2.8693042027	 2.8151326702	-1.2761532593	 0.116056
120.7938	204.4443	220.2954	238.9811	413.1604	461.9214	503.4634	569.0354	662.7302	754.2911	781.6858	804.3234	828.4719	849.5825	860.3486	889.291	936.3784	940.4547	974.1711	1009.7003	1014.2089	1021.7562	1060.9464	1068.5233	1072.9675	1086.1909	1101.6167	1147.3733	1196.298	1223.9412	1238.5117	1241.9921	1258.0765	1269.6167	1294.1528	1393.9915	1455.3643	1484.9997	1491.7409	1519.2944	1856.4439	3058.2133	3060.5384	3115.2161	3120.5002	3122.8581	3126.5168	3128.4206	3148.828	3209.8922	3224.263
O=C1C2CC(C2)C11CC1	O=C1[C@H]2C[C@H](C2)C21CC2	
InChI=1S/C8H10O/c9-7-5-3-6(4-5)8(7)1-2-8/h5-6H,1-4H2	InChI=1S/C8H10O/c9-7-5-3-6(4-5)8(7)1-2-8/h5-6H,1-4H2/t5-,6+
