20
gdb 115407	3.80052	0.9304	0.89355	3.4892	79.54	-0.2393	0.0359	0.2752	1422.1528	0.169912	-440.291463	-440.281771	-440.280827	-440.327416	33.953	
C	 0.4266930923	 0.723057913	-0.4599470131	-0.239884
O	-0.1053692555	-0.4948741632	 0.0092932508	-0.24218
C	-1.4969217424	-0.4631791459	 0.2607298661	 0.101746
C	-2.3328289884	-0.6159384748	-1.0247741322	-0.099511
O	-2.445830159	-2.0218706393	-1.2567756488	-0.248796
C	-2.1918470099	-2.7224241346	-0.099697725	 0.452112
C	-1.8645711007	-1.7447754512	 1.0085967585	-0.343474
N	-2.2338743813	-3.9735575156	 0.0159757763	-0.331169
C	-2.5843609474	-4.7966212989	-1.1300433496	-0.332715
H	 1.5043188377	 0.5814467069	-0.5682184658	 0.135608
H	 0.01553019	 1.0179971118	-1.4369559787	 0.106588
H	 0.2440394106	 1.5437342693	 0.2514792598	 0.107598
H	-1.7632904194	 0.4521033717	 0.8079169003	 0.070564
H	-3.3337038298	-0.1815430078	-0.9001129666	 0.106588
H	-1.8602541231	-0.1631418415	-1.8997639113	 0.119511
H	-1.0540352461	-2.1035449707	 1.6416286822	 0.146289
H	-2.7505599909	-1.5873384284	 1.6330135337	 0.126711
H	-2.7885049117	-4.2351789768	-2.0484746437	 0.120616
H	-1.7688666059	-5.5028821695	-1.323990012	 0.12302
H	-3.4674489993	-5.3971108845	-0.8819776909	 0.120777
33.7545	57.6592	103.2927	147.7504	205.4865	221.1944	239.0722	298.3827	360.4264	427.5406	532.2484	577.1654	688.7273	783.0855	818.088	860.8758	878.2861	959.6233	1025.474	1032.4078	1074.6737	1089.16	1132.7057	1137.6276	1152.6005	1179.6326	1185.6896	1206.1383	1215.3549	1265.2699	1275.3512	1321.7083	1378.6523	1401.1149	1438.1783	1455.0793	1479.7037	1491.0877	1495.4529	1496.9323	1505.0665	1511.3072	1810.282	2975.2221	3002.5781	3016.2452	3021.4727	3025.0754	3061.2465	3073.5695	3087.6867	3102.1069	3120.2664	3148.0281
COC1COC(C1)=NC	CO[C@H]1COC(=NC)C1	
InChI=1S/C6H11NO2/c1-7-6-3-5(8-2)4-9-6/h5H,3-4H2,1-2H3	InChI=1S/C6H11NO2/c1-7-6-3-5(8-2)4-9-6/h5H,3-4H2,1-2H3/t5-/m1/s1
