19
gdb 59933	2.24782	0.99123	0.81133	1.6069	83.24	-0.2616	0.0331	0.2947	1479.0038	0.15473	-385.816063	-385.805377	-385.804433	-385.852171	38.939	
C	 0.3176756262	 0.5453184972	 0.7171700802	-0.408022
C	-0.6158751916	 0.1053872552	-0.4120692508	 0.117102
O	-1.3352713795	 1.2172717779	-0.9421513198	-0.440366
C	 0.1146218564	-0.493770352	-1.6158514312	-0.174777
C	 0.8813023978	-1.813016134	-1.3218848045	-0.367732
C	-0.0024064844	-2.867485685	-0.8087871849	 0.354702
C	-0.7317987361	-3.7205497311	-0.3807551924	-0.472692
C	 1.5990533099	-2.2636763835	-2.5192983044	 0.320679
C	 2.1876217472	-2.6040244498	-3.5090271304	-0.425408
H	 0.8435554715	-0.3043291733	 1.1644423762	 0.122879
H	 1.0562726991	 1.2648719169	 0.3487556287	 0.124226
H	-0.2542970366	 1.0254619251	 1.5194888208	 0.106761
H	-1.3182581143	-0.6468375919	-0.0216749312	 0.083289
H	-1.8222841797	 1.6256542161	-0.2195837421	 0.279957
H	-0.6178884032	-0.6804159345	-2.4055278743	 0.126836
H	 0.8310994774	 0.2379508328	-2.002883383	 0.116531
H	 1.6331502041	-1.6029599878	-0.5479574384	 0.136952
H	-1.3711668177	-4.4824716349	-0.008582077	 0.201158
H	 2.7085810438	-2.9161430134	-4.3801095917	 0.197925
38.433	93.9435	117.7254	128.0561	198.011	249.6192	256.6378	274.0933	341.9619	367.3217	397.9931	465.3213	486.7044	563.9784	581.8109	631.1344	635.6029	645.7713	649.8853	813.6138	849.6993	925.1501	960.1304	1008.7989	1051.3148	1087.9698	1108.3256	1134.578	1217.2984	1256.8366	1298.1255	1327.095	1346.9485	1385.2275	1408.8065	1427.4194	1482.9963	1497.0329	1500.8658	2237.9942	2245.3877	2989.1151	3005.676	3028.0191	3058.7697	3092.1466	3109.6377	3112.0923	3503.4503	3505.456	3818.6863
CC(O)CC(C#C)C#C	C[C@@H](O)CC(C#C)C#C	
InChI=1S/C8H10O/c1-4-8(5-2)6-7(3)9/h1-2,7-9H,6H2,3H3	InChI=1S/C8H10O/c1-4-8(5-2)6-7(3)9/h1-2,7-9H,6H2,3H3/t7-/m1/s1
