19
gdb 33378	7.90387	0.48149	0.47262	1.4473	99.27	-0.2389	-0.0079	0.231	2281.2878	0.157338	-348.69235	-348.682584	-348.68164	-348.728005	35.545	
C	-0.0205507735	-3.7774752149	-0.0650487761	-0.558245
C	-0.000610698	-2.571277795	-0.0062649017	 0.28842
C	 0.0209946613	-1.2123130586	 0.0604602792	-0.198476
C	 0.0379279156	-0.0032817836	 0.120926531	 0.340607
C	 0.0871632862	 1.4482173853	 0.1871948665	-0.389763
C	 1.456156951	 2.0318600368	-0.233946745	-0.199219
C	 1.4830573275	 3.541752916	-0.148628636	 0.037079
C	 1.7861010925	 4.225780713	 1.1627137507	-0.256777
C	 2.7879876405	 4.2717992886	 0.0346387745	-0.283604
H	-0.0369931376	-4.8375610358	-0.116636261	 0.187764
H	-0.6994715961	 1.8684599867	-0.4541518595	 0.134608
H	-0.147558257	 1.7775330767	 1.207939295	 0.139674
H	 2.2360385333	 1.6093267322	 0.4100103569	 0.108874
H	 1.6836429711	 1.7027896925	-1.2546561432	 0.113451
H	 0.7493182588	 4.0377514146	-0.7804002517	 0.082909
H	 1.2482857112	 5.1334016195	 1.412960555	 0.113085
H	 2.0192835021	 3.5988051812	 2.0176197142	 0.112197
H	 3.6901022718	 3.6769655662	 0.1345108256	 0.113893
H	 2.9323197893	 5.2100697587	-0.4893033043	 0.113522
45.1244	62.6991	99.3581	160.9264	175.1884	237.5682	337.9977	361.9917	402.6139	467.6872	530.506	532.2206	588.8375	592.5804	725.6731	759.0609	780.6186	822.0707	842.2506	920.624	951.6475	1019.1136	1037.3221	1058.8476	1080.4583	1136.0204	1143.3474	1177.6139	1198.0619	1226.7241	1238.5682	1282.8851	1313.0005	1362.7432	1416.887	1466.0517	1470.0427	1491.1171	1507.8587	2181.3786	2363.4344	3012.5017	3034.9267	3042.339	3076.6059	3128.4874	3128.829	3134.6623	3207.3224	3222.3652	3506.8559
C#CC#CCCC1CC1	C#CC#CCCC1CC1	
InChI=1S/C9H10/c1-2-3-4-5-6-9-7-8-9/h1,9H,5-8H2	InChI=1S/C9H10/c1-2-3-4-5-6-9-7-8-9/h1,9H,5-8H2
