19
gdb 105349	2.0354	1.62995	1.14687	2.0096	74.83	-0.251	-0.0283	0.2227	1139.9752	0.15699	-422.994629	-422.985653	-422.984709	-423.028721	33.058	
C	 0.2377837655	 1.5956127319	 0.3797512552	-0.397055
C	-0.0225367061	 0.117955778	 0.0619544996	-0.253488
C	 0.6432404182	-0.4090368892	-1.2201931692	 0.205312
C	 2.2337951583	-0.4345765911	-1.2438781009	-0.325719
C	 2.1501724478	-1.9568156806	-1.3965816704	 0.047779
O	 1.4268856551	-2.4645292807	-0.2687417536	-0.255605
C	 0.681781711	-1.9458533745	-1.3747686773	-0.014484
C	 0.1264925485	 0.2679563666	-2.4644469904	 0.097586
O	-0.3945800556	-0.3064525299	-3.3891084715	-0.255171
H	 1.3100452018	 1.8133091451	 0.4265948452	 0.121359
H	-0.2058729506	 2.2678044541	-0.3609815968	 0.120769
H	-0.192768559	 1.8540748921	 1.3517260233	 0.123323
H	 0.3478906597	-0.50510452	 0.8820999386	 0.128355
H	-1.103619006	-0.0611446416	-0.0029603363	 0.106951
H	 2.657025228	 0.0684451598	-2.118029652	 0.117878
H	 2.7346533135	-0.0793566721	-0.3400773461	 0.117711
H	 2.84477782	-2.6285254601	-1.8863460488	 0.110978
H	-0.0462488939	-2.589951448	-1.8497975193	 0.119723
H	 0.2709903136	 1.3714324805	-2.4922080592	 0.083796
57.2908	99.8207	159.4594	193.8952	214.904	253.1132	315.5511	351.1836	390.867	531.9438	585.4252	659.3548	780.7227	806.2428	836.2434	865.1859	890.2284	922.5493	958.6581	973.1988	1001.999	1011.2101	1053.0239	1061.1876	1123.7051	1137.933	1172.1637	1222.6698	1230.5074	1252.1166	1271.7605	1326.9229	1364.9042	1390.5516	1413.5243	1429.2692	1467.5973	1492.1836	1502.1088	1508.3351	1812.1624	2878.6166	3026.1794	3038.4319	3058.7335	3077.6283	3105.128	3110.2332	3116.8442	3191.6907	3215.3523
CCC1(CC2OC12)C=O	CC[C@]1(C[C@H]2O[C@@H]12)C=O	
InChI=1S/C7H10O2/c1-2-7(4-8)3-5-6(7)9-5/h4-6H,2-3H2,1H3	InChI=1S/C7H10O2/c1-2-7(4-8)3-5-6(7)9-5/h4-6H,2-3H2,1H3/t5-,6-,7+/m1/s1
