17
gdb 16586	2.79481	2.05749	1.74284	3.6797	69.06	-0.2314	0.0169	0.2483	857.1228	0.141837	-363.857628	-363.849725	-363.848781	-363.889696	29.027	
C	 0.1267538358	 1.5761482718	-0.1904638312	-0.421834
C	 0.1017733738	 0.0645882706	-0.1385372468	-0.015899
C	 0.6646422386	-0.8592076276	-1.184148401	-0.033179
C	 1.3223517286	-0.8048546549	 0.1857431281	-0.25
C	 2.5361603261	-0.2282658507	-0.5453540165	 0.402688
O	 3.6159723067	 0.2066567427	-0.2472586396	-0.368015
N	 1.8987107143	-0.3464635655	-1.7795341601	-0.083519
C	 2.0801448543	 0.468009626	-2.9603036505	-0.347229
H	 1.0543356089	 1.9558462351	-0.6249998463	 0.139819
H	-0.7119539603	 1.9596835932	-0.7815475529	 0.11954
H	 0.0445597927	 1.992789938	 0.8185320263	 0.1293
H	-0.7985688872	-0.3424123135	 0.3226139801	 0.097724
H	 0.1326084781	-1.68595857	-1.638240986	 0.109796
H	 1.3296629057	-1.5457049007	 0.9722296695	 0.114342
H	 3.0801513169	 0.9065211971	-2.9079960462	 0.156972
H	 2.0135195575	-0.1382035191	-3.8697507804	 0.128366
H	 1.3410898895	 1.2773676577	-3.0274553065	 0.121127
136.6853	143.653	145.8028	206.0782	238.7138	282.1763	375.7785	474.0502	598.207	702.6013	721.5746	749.5401	818.7016	839.0788	866.7865	939.9357	987.4421	1018.5197	1049.5636	1079.7233	1082.7919	1127.1176	1152.1994	1198.8275	1246.0229	1267.0104	1279.7314	1375.1615	1413.2039	1429.093	1445.8685	1484.0353	1490.7235	1499.5671	1516.8202	1877.9739	3010.3345	3038.0576	3073.4938	3098.7276	3108.1084	3124.1827	3129.2823	3191.1759	3225.0339
CC1C2C1C(=O)N2C	C[C@H]1[C@@H]2[C@H]1C(=O)N2C	
InChI=1S/C6H9NO/c1-3-4-5(3)7(2)6(4)8/h3-5H,1-2H3	InChI=1S/C6H9NO/c1-3-4-5(3)7(2)6(4)8/h3-5H,1-2H3/t3-,4+,5-/m1/s1
