13
gdb 33440	2.19506	2.0164	1.18443	4.3629	67.31	-0.293	-0.031	0.262	976.4552	0.088806	-415.544718	-415.537409	-415.536465	-415.576592	27.185	
N	-0.0627633696	-1.1940398366	-0.0805816331	-0.318922
C	-0.0624130662	-0.0389514622	-0.0596764394	 0.224797
C	-0.0320544419	 1.4174809221	-0.0049595249	 0.053886
C	-1.0007372217	 2.0199942889	-0.9125211361	 0.257914
N	-1.7774062867	 2.4665242221	-1.6408350766	-0.30888
C	 0.1314032851	 2.1311499894	 1.3974422008	 0.032421
C	 1.5684489879	 1.5769665755	 1.5151263516	-0.254157
C	 1.3641747526	 2.1543087737	 0.0970229664	 0.032421
O	 0.6629632906	 3.3040059917	 0.6875011863	-0.286661
H	-0.6491189921	 2.282589643	 2.1405524843	 0.139602
H	 2.2211137167	 2.1791636561	 2.1445637148	 0.139219
H	 1.7149243502	 0.5032654116	 1.634860617	 0.148758
H	 2.0616286452	 2.3335150748	-0.7189458311	 0.139602
140.5308	148.9171	181.0151	194.5625	403.5515	492.0402	492.3543	530.8944	536.3243	589.3858	648.6921	751.9733	813.6864	892.0649	911.9342	925.0375	1019.8526	1041.1402	1050.5539	1137.338	1170.1598	1181.2519	1192.9748	1208.2309	1242.3585	1279.6513	1490.0287	2360.6541	2370.2304	3097.4832	3150.5889	3153.8737	3181.7854
N#CC1(C#N)C2CC1O2	N#CC1(C#N)[C@H]2C[C@@H]1O2	
InChI=1S/C6H4N2O/c7-2-6(3-8)4-1-5(6)9-4/h4-5H,1H2	InChI=1S/C6H4N2O/c7-2-6(3-8)4-1-5(6)9-4/h4-5H,1H2/t4-,5+
