15
gdb 129380	2.77692	1.47386	0.99801	2.599	69.64	-0.2422	-0.0256	0.2166	1118.1275	0.115208	-450.129304	-450.121399	-450.120455	-450.161746	30.299	
N	-0.0650544825	 1.0862515387	-0.3394565982	-0.525914
C	-0.0907109085	-0.2989372385	-0.3354046114	 0.223557
N	 0.9399580099	-0.9547443699	-0.7275734425	-0.536952
C	-1.3702372564	-0.8848280929	 0.0950912036	 0.068438
C	-2.6307837543	-0.3754221166	 0.0163860078	-0.001841
O	-3.5294229329	-1.2300635768	 0.5001179154	-0.170689
N	-2.8648444953	-2.3828487273	 0.9546337637	-0.223916
C	-1.5930640404	-2.1722161279	 0.6974921896	 0.334108
N	-0.6339863525	-3.1296594741	 0.9534451134	-0.592524
H	 0.8535525023	 1.4632742069	-0.5302843328	 0.257134
H	-0.5510969287	 1.5464788997	 0.4154190193	 0.249001
H	 0.7246037813	-1.9465508755	-0.8110856039	 0.226057
H	-3.0158948069	 0.5518592244	-0.3800190108	 0.163083
H	-0.9492445663	-3.8657353336	 1.5704384153	 0.265992
H	 0.2694865812	-2.7566222766	 1.2097260515	 0.264468
88.069	170.2925	179.6632	290.9014	347.4278	380.247	422.606	448.3042	531.3517	581.5015	607.8988	637.5624	653.4992	713.3016	761.0181	779.1821	870.7192	908.0351	911.0712	931.7576	1093.9344	1137.7301	1160.4188	1181.1907	1218.4353	1300.5309	1440.4817	1463.6354	1546.3274	1611.3045	1629.4071	1655.8584	1706.6229	3261.3275	3504.8608	3553.7157	3557.8128	3659.1029	3673.499
NC(=N)C1=CON=C1N	NC(=N)c1conc1N	
InChI=1S/C4H6N4O/c5-3(6)2-1-9-8-4(2)7/h1H,(H3,5,6)(H2,7,8)	InChI=1S/C4H6N4O/c5-3(6)2-1-9-8-4(2)7/h1H,(H3,5,6)(H2,7,8)
