15
gdb 22870	3.13444	1.28172	0.94147	2.4072	66.53	-0.2653	-0.0237	0.2416	1167.9164	0.111896	-491.044266	-491.035874	-491.03493	-491.077835	30.683	
O	-0.1918342221	 1.3044031111	-0.2901910029	-0.391762
N	-0.0050232485	-0.0838530154	-0.2331139899	-0.193617
C	-1.1028030809	-0.6739888377	-0.0008017713	 0.34308
C	-2.4663871826	-0.0549816629	 0.1853569438	-0.169483
O	-3.3985198168	-1.1538766103	 0.1467827192	-0.24179
C	-2.7537271147	-2.3339675831	-0.038204775	 0.400949
N	-3.2769361277	-3.4413265651	-0.3342626227	-0.55349
C	-1.2505888543	-2.169499355	 0.1339594271	-0.04325
O	-0.5132259937	-2.9307671603	-0.7790489789	-0.420474
H	 0.690481856	 1.6242257999	-0.5084543388	 0.316172
H	-2.5652281337	 0.4671301208	 1.1432653755	 0.147107
H	-2.70602894	 0.6498558445	-0.6162551767	 0.154626
H	-4.2874383028	-3.3739467562	-0.4538945812	 0.234538
H	-1.0017894646	-2.4514894409	 1.1741592173	 0.116328
H	-1.0731303638	-3.6936550994	-0.9861874256	 0.301065
45.627	147.8561	169.7168	213.6063	262.5672	355.3037	370.6403	415.3311	457.9456	516.1057	532.9597	633.9624	680.628	742.9422	846.8525	883.2057	899.8472	986.4848	1001.4977	1023.2306	1104.0974	1140.4884	1197.1141	1214.491	1237.6552	1283.4242	1347.0058	1382.8676	1402.0393	1441.8969	1498.1655	1770.4228	1792.1931	2929.6005	3049.5191	3093.348	3497.6102	3731.7683	3816.7197
ON=C1COC(=N)C1O	ON=C1CO[C]([NH])[C@H]1O	
InChI=1S/C4H6N2O3/c5-4-3(7)2(6-8)1-9-4/h3,5,7-8H,1H2	InChI=1S/C4H6N2O3/c5-4-3(7)2(6-8)1-9-4/h3,5,7-8H,1H2/t3-/m0/s1
