19
gdb 75027	2.70706	1.7386	1.26164	1.6568	83.91	-0.212	-0.0402	0.1717	1046.2938	0.161225	-385.883404	-385.875895	-385.874951	-385.91499	30.259	
C	 0.0698564179	 1.5856637024	 0.052342516	-0.491036
C	-0.0215765309	 0.0878095705	-0.0021844947	 0.312284
C	-0.0819401382	-0.5840538165	-1.1665125318	-0.169274
C	-0.2100719068	-2.0287343593	-1.3590497619	-0.05684
C	-0.2972035492	-2.9709580337	-0.4072919476	-0.095082
C	-0.222043022	-2.6654847323	 1.0661162399	 0.044663
C	-1.2244865301	-1.5898837058	 1.5549307576	-0.271235
C	-0.0329529426	-0.6276893008	 1.3380272131	-0.00163
O	 0.8786902734	-1.7568546686	 1.3640952739	-0.278929
H	 0.9943478328	 1.9060367164	 0.5513511091	 0.132486
H	 0.045323283	 2.0327263356	-0.9445180345	 0.123733
H	-0.7565439935	 2.0127613989	 0.637372541	 0.125778
H	-0.0502337464	 0.0013968928	-2.0828060571	 0.080488
H	-0.2531989418	-2.3510052344	-2.3965797951	 0.089174
H	-0.4082936051	-4.0116591649	-0.6980930574	 0.089221
H	-0.143939324	-3.5791718818	 1.6619366325	 0.074104
H	-2.1322913898	-1.4303688071	 0.9728361791	 0.111415
H	-1.4601014558	-1.7077331245	 2.613413211	 0.11052
H	 0.1928832193	 0.0704353531	 2.150461637	 0.07016
130.9118	196.1078	251.8695	310.3627	321.0666	336.6647	415.77	523.3627	569.9418	609.6933	715.8248	729.8955	822.3056	842.3464	888.2517	898.1689	916.7292	951.4058	966.6759	988.0033	991.078	1038.5652	1064.7818	1086.2044	1096.7245	1131.4105	1177.1364	1223.369	1245.6932	1255.991	1304.6171	1354.3503	1369.2055	1394.1949	1409.7306	1431.0817	1475.0739	1481.8798	1487.5423	1667.5718	1706.9416	3006.1559	3048.7943	3052.7845	3065.8931	3084.6571	3114.282	3140.9227	3147.469	3154.8326	3175.315
CC1=CC=CC2CC1O2	CC1=CC=C[C@@H]2C[C@H]1O2	
InChI=1S/C8H10O/c1-6-3-2-4-7-5-8(6)9-7/h2-4,7-8H,5H2,1H3	InChI=1S/C8H10O/c1-6-3-2-4-7-5-8(6)9-7/h2-4,7-8H,5H2,1H3/t7-,8-/m1/s1
