20
gdb 122592	3.71188	0.77272	0.67335	4.3163	76.28	-0.2369	0.0069	0.2438	1695.7846	0.170616	-440.298447	-440.288835	-440.287891	-440.334128	33.905	
C	-0.2616237333	 1.4985347892	-0.1465850085	-0.381097
C	 0.0935355365	 0.0156713419	-0.0137360341	-0.183754
C	 0.7042905263	-0.5579986435	-1.2906983993	-0.118518
N	 1.0140441742	-1.9827431467	-1.1289897908	-0.314167
C	 1.5780290484	-2.5846526891	-2.3185979326	-0.158569
C	 1.7241373378	-4.11708908	-2.297950708	-0.105317
O	 0.7567304371	-4.2385996536	-3.3915739029	-0.235629
C	 0.5447643691	-2.8853135747	-3.420926698	 0.482592
O	-0.2161644496	-2.2801336745	-4.1048391855	-0.323481
H	 0.6234091663	 2.1021833738	-0.3760109765	 0.115315
H	-0.9891931248	 1.659687812	-0.9492544798	 0.123351
H	-0.6966345497	 1.885092679	 0.7796785041	 0.115861
H	 0.8001498355	-0.1198484546	 0.8173156961	 0.08792
H	-0.7976812634	-0.5687074508	 0.2408445538	 0.113145
H	-0.005397369	-0.4658848935	-2.1198284259	 0.1393
H	 1.5965479463	 0.0322584145	-1.5748032029	 0.076728
H	 1.6675714295	-2.0971713825	-0.3588296278	 0.219428
H	 2.4620977063	-2.0642090654	-2.7270480461	 0.091862
H	 2.6924953202	-4.5260878064	-2.5911592322	 0.124544
H	 1.3444083863	-4.596348915	-1.3937818832	 0.130484
57.3574	74.4141	93.1108	137.6862	169.6393	226.4834	246.0382	310.0425	370.6293	449.1192	521.2782	716.1331	753.7557	762.9262	796.0371	851.9562	898.8241	902.7289	948.5309	973.6401	1036.7411	1070.6881	1088.1307	1125.8657	1149.2712	1162.2613	1173.0941	1191.4093	1239.775	1278.3746	1322.8941	1325.9338	1337.8479	1379.9561	1413.0374	1415.0979	1485.4577	1491.2046	1500.3084	1505.708	1506.9106	1523.9955	1935.2718	2920.2645	2946.7783	3010.7053	3033.4435	3061.9374	3076.8028	3077.3294	3101.2414	3108.0064	3142.845	3493.0498
CCCNC1COC1=O	CCCN[C@H]1COC1=O	
InChI=1S/C6H11NO2/c1-2-3-7-5-4-9-6(5)8/h5,7H,2-4H2,1H3	InChI=1S/C6H11NO2/c1-2-3-7-5-4-9-6(5)8/h5,7H,2-4H2,1H3/t5-/m0/s1
