13
gdb 66405	2.35852	1.57192	1.29579	5.6476	63.12	-0.2721	-0.0314	0.2407	991.6518	0.089094	-452.737406	-452.729666	-452.728722	-452.769821	28.399	
N	-0.0996151582	 1.5055016955	 0.1113354964	-0.598921
C	-0.0446234055	 0.1070980765	-0.0380600396	 0.090863
C	-1.1281024801	-0.9475044045	-0.1126853459	 0.060001
O	-0.3660794272	-1.7412991521	-1.0449162752	-0.250747
C	 0.6268207214	-0.758208346	-1.1035043059	 0.418239
O	 1.5520739181	-0.6982260903	-1.8376458117	-0.304408
C	-0.3694338424	-0.8073577616	 1.1703113288	-0.239846
C	 0.522562321	-1.8185697749	 1.673346389	 0.318404
N	 1.2378576597	-2.621022526	 2.0976933313	-0.325335
H	 0.7325143508	 1.8660769105	 0.5668419417	 0.25976
H	-0.1977971836	 1.9740689374	-0.7832713301	 0.257262
H	-2.1985068688	-0.889326944	-0.2456905225	 0.152543
H	-0.8943119951	-0.2416517203	 1.9361650935	 0.162185
99.2857	133.147	195.2812	261.8113	282.436	338.9601	395.1941	497.1049	531.8207	637.5454	678.2842	737.1564	751.2133	790.0092	849.5343	909.7062	925.5619	944.6378	1013.4794	1038.0454	1087.0643	1200.0622	1249.016	1280.5917	1331.111	1472.4529	1663.6651	1956.6046	2364.0368	3158.4555	3238.6272	3509.148	3586.5872
NC12C(OC1=O)C2C#N	N[C@@]12[C@@H](OC1=O)[C@H]2C#N	
InChI=1S/C5H4N2O2/c6-1-2-3-5(2,7)4(8)9-3/h2-3H,7H2	InChI=1S/C5H4N2O2/c6-1-2-3-5(2,7)4(8)9-3/h2-3H,7H2/t2-,3+,5+/m1/s1
