21
gdb 41910	2.17623	2.0854	1.79278	1.4083	79.85	-0.2351	0.0711	0.3061	934.9058	0.187518	-387.099553	-387.092483	-387.091539	-387.131103	29.133	
C	 0.0101526339	 1.4940364041	 0.2874275141	-0.230881
C	 1.3476546551	 2.1977913006	-0.0697508186	-0.222168
C	 2.2947106865	 1.3703517682	-0.9555277111	 0.095674
C	 2.53451212	-0.0181113614	-0.3518974888	-0.225325
C	 1.2227145633	-0.7742267086	-0.3372865282	-0.055784
C	-0.0370012659	 0.0063584177	-0.0375589451	-0.035364
C	 0.2503538784	-0.4563756179	-1.4501067249	-0.06755
C	 0.6232269782	 0.5665818836	-2.5120357702	-0.084477
O	 1.858262432	 1.2415898253	-2.3056964849	-0.273906
H	-0.1909646716	 1.6272927403	 1.3557054191	 0.098318
H	-0.8201726392	 1.9891354167	-0.2315596726	 0.10338
H	 1.1565349145	 3.1572449942	-0.5596284797	 0.103526
H	 1.8981637804	 2.4238329491	 0.8506340795	 0.09885
H	 3.2439628121	 1.9088967686	-1.0396731059	 0.078369
H	 3.2781748076	-0.5488296682	-0.9567904285	 0.099983
H	 2.9411767915	 0.0784630089	 0.6628893902	 0.090638
H	 1.2669107728	-1.8027809488	 0.0083302458	 0.07706
H	-0.8249674895	-0.5344284695	 0.4791791828	 0.076027
H	-0.3628456024	-1.2689878235	-1.8280549563	 0.081117
H	 0.717373366	 0.0684202461	-3.4837722299	 0.104593
H	-0.1892200938	 1.3066783043	-2.6119773468	 0.087919
67.0346	172.3702	336.535	353.5186	405.0878	447.5463	530.63	563.7826	678.3211	744.0758	762.0577	772.2662	806.963	857.0985	875.4402	906.5909	921.6023	980.6325	1008.9576	1032.4442	1048.9211	1070.6405	1086.6463	1098.1681	1118.6202	1123.5987	1151.4383	1204.7665	1217.1577	1253.6273	1265.5851	1284.6556	1309.2216	1338.0174	1356.8461	1363.8358	1375.5127	1386.2512	1393.1718	1419.6145	1457.6542	1479.769	1488.1125	1502.732	1521.6921	2950.5036	3020.4921	3020.7474	3034.6397	3046.5482	3055.2183	3061.5268	3064.9253	3086.3277	3135.5051	3140.1059	3155.1017
C1CC2CC3C1C3CO2	C1C[C@H]2C[C@H]3[C@@H]1[C@H]3CO2	
InChI=1S/C8H12O/c1-2-6-7-3-5(1)9-4-8(6)7/h5-8H,1-4H2	InChI=1S/C8H12O/c1-2-6-7-3-5(1)9-4-8(6)7/h5-8H,1-4H2/t5-,6+,7-,8+/m0/s1
