21
gdb 76739	2.0258	1.73073	1.14509	1.2882	78.88	-0.2399	0.0657	0.3056	1156.8346	0.179893	-424.200298	-424.190241	-424.189296	-424.234431	37.945	
C	-0.1802622923	 1.5886322705	 0.0508183114	-0.422957
C	 0.0208811009	 0.0788698248	 0.029998244	-0.078965
C	 1.1231286417	-0.5348244281	-0.9233948389	 0.027565
O	 2.0100894637	 0.3576951299	-1.5694120281	-0.42788
C	 1.7553474864	-1.2595808579	 0.2628718076	 0.302778
C	 2.313128762	-2.6528601993	 0.2318431041	-0.507078
C	 2.1777109143	-0.2225692413	 1.2862190617	-0.402266
C	 0.730120091	-0.6185661201	 1.1960572218	 0.341468
O	 0.0661994655	-1.2483081294	 2.2380277355	-0.468475
H	 0.7624278752	 2.1209012738	 0.2029100803	 0.125806
H	-0.61260767	 1.9436888744	-0.8923369571	 0.10389
H	-0.8690391784	 1.8802361425	 0.8513144395	 0.112491
H	-0.9330755879	-0.4257848296	-0.1565143644	 0.073658
H	 0.6848837187	-1.2378874025	-1.6448783772	 0.06388
H	 1.5267703616	 0.8059335092	-2.2708309847	 0.28304
H	 3.2968384412	-2.6809459035	-0.2507614032	 0.12396
H	 2.4254321021	-3.047276798	 1.2467383029	 0.123888
H	 1.6520488161	-3.3334868712	-0.3168910403	 0.114052
H	 2.6932012164	-0.6458220286	 2.1433292309	 0.106432
H	 2.536128191	 0.7532326902	 0.97426246	 0.11922
H	 0.0334677506	-0.6448551658	 2.9877448741	 0.285491
104.8099	163.3966	163.9886	181.3836	211.4994	237.7771	250.4545	268.667	299.4772	328.6745	402.1972	492.9461	498.4303	605.7145	658.4036	684.9957	739.376	806.6976	840.0609	909.9477	968.5127	981.7115	1008.1405	1036.1732	1054.8418	1097.1964	1116.7252	1140.6374	1174.013	1198.9656	1214.6319	1249.5399	1275.4192	1310.9472	1345.6112	1366.1532	1394.8173	1409.9869	1416.3595	1437.0134	1485.4687	1493.2027	1497.4858	1498.7322	1512.4334	2999.8528	3023.4742	3027.3095	3051.4696	3082.1093	3084.0811	3100.0984	3114.625	3121.9849	3207.948	3801.3229	3816.0198
CC1C(O)C2(C)CC12O	C[C@H]1[C@@H](O)[C@@]2(C)C[C@@]12O	
InChI=1S/C7H12O2/c1-4-5(8)6(2)3-7(4,6)9/h4-5,8-9H,3H2,1-2H3	InChI=1S/C7H12O2/c1-4-5(8)6(2)3-7(4,6)9/h4-5,8-9H,3H2,1-2H3/t4-,5+,6+,7+/m0/s1
