21
gdb 32891	5.94304	0.75584	0.68215	1.4983	89.49	-0.1647	0.052	0.2167	1707.83	0.182976	-383.296576	-383.286652	-383.285708	-383.332517	35.767	
C	-0.0093083219	 1.5295088988	-0.0447097371	-0.399216
C	-0.0410253695	 0.0064892697	-0.124982241	-0.101921
N	-1.3688064852	-0.4959761337	 0.1999639537	-0.400749
C	-1.5928555001	-1.8777750672	 0.1111009677	 0.30019
C	-2.8182563787	-2.4983380771	-0.0491268031	-0.218654
N	-2.6150570611	-3.8647154126	-0.0357690947	 0.033281
C	-3.6607492494	-4.8581562738	-0.1083483649	-0.331495
C	-1.2842177408	-4.1143330083	 0.1329761905	-0.086683
C	-0.6160666448	-2.9114672433	 0.223173434	-0.259619
H	 0.9957799572	 1.9071534883	-0.2529548643	 0.116678
H	-0.6895459949	 1.9783073968	-0.7785063844	 0.110765
H	-0.3116775884	 1.8712207938	 0.9496053919	 0.126898
H	 0.3018021013	-0.325108738	-1.121240318	 0.085178
H	 0.6683937379	-0.409056838	 0.6007115587	 0.109952
H	-2.0902365512	 0.0340392158	-0.271663886	 0.218697
H	-3.8082924251	-2.0862466207	-0.1625452347	 0.096421
H	-4.3241616106	-4.6586546318	-0.9564589855	 0.13367
H	-3.2109061529	-5.8430731578	-0.2489198678	 0.136407
H	-4.2654128755	-4.879145565	 0.8064849254	 0.13368
H	-0.9157537256	-5.1274984107	 0.1709647309	 0.108967
H	 0.4484746394	-2.790362275	 0.3429486487	 0.087553
45.439	55.447	78.5549	133.6422	171.0523	258.9409	299.3565	328.1504	338.9715	454.1185	586.69	593.9662	608.1594	673.8786	690.3617	733.2989	763.6453	774.2882	822.1048	923.3498	1000.4796	1017.4399	1066.3026	1084.9152	1111.1466	1148.1141	1149.9837	1164.6917	1223.7979	1279.5047	1292.2022	1356.3409	1387.2038	1404.6939	1420.8196	1432.8653	1456.0166	1480.998	1485.2649	1498.6847	1502.7604	1523.7222	1528.5967	1555.0767	1622.9615	2941.916	3021.8532	3031.0781	3042.1799	3077.7656	3098.7542	3119.3187	3129.5879	3247.8371	3253.4038	3268.1607	3557.3999
CCNC1=CN(C)C=C1	CCNc1cn(C)cc1	
InChI=1S/C7H12N2/c1-3-8-7-4-5-9(2)6-7/h4-6,8H,3H2,1-2H3	InChI=1S/C7H12N2/c1-3-8-7-4-5-9(2)6-7/h4-6,8H,3H2,1-2H3
