16
gdb 78063	3.71994	1.0808	0.89474	4.2815	72.67	-0.2491	-0.0333	0.2158	1265.4229	0.122287	-437.871418	-437.862965	-437.862021	-437.904879	30.434	
C	 0.0528918618	 1.5540008556	-0.0736845919	-0.412502
C	-0.0333101578	 0.0305513052	-0.0298044522	-0.139134
C	 0.6700406755	-0.7326787909	-1.1698548853	-0.062442
C	 1.6888626041	-1.3663976786	-0.2268661658	-0.17893
N	 0.601195065	-2.1393414682	-0.8345774759	-0.086821
C	 0.8618029631	-3.1785980397	-1.7211846139	 0.141801
O	 1.7582455519	-3.9758638827	-1.6120450696	-0.280798
C	 1.0517703211	-0.5872725127	 0.915411532	 0.438026
O	 1.3767331517	-0.3505150413	 2.0391578919	-0.301539
H	 1.0676589897	 1.8912440293	-0.3101585038	 0.125728
H	-0.6271149694	 1.9635513805	-0.8266464006	 0.126231
H	-0.2180152373	 1.9711392412	 0.8996227354	 0.147943
H	-1.0548159053	-0.3107652067	 0.1562618951	 0.114176
H	 0.8516602809	-0.3995894079	-2.1843745004	 0.129281
H	 2.71368913	-1.675444491	-0.3890451307	 0.142446
H	 0.0849497152	-3.2331018021	-2.5067076644	 0.096535
88.3407	113.8384	162.5068	204.8619	216.9137	227.9528	355.356	377.3409	454.1614	621.9995	688.1057	727.2954	783.9317	816.2407	865.0197	891.7793	921.489	1022.2681	1028.3397	1032.7139	1049.2665	1096.9791	1106.9834	1155.3813	1210.683	1233.0572	1254.7707	1334.5655	1385.757	1411.0591	1413.0935	1494.6131	1497.0417	1802.3126	1901.1037	2962.9009	3039.175	3080.7592	3108.5934	3124.1013	3200.8882	3214.2552
CC1C2C(N2C=O)C1=O	C[C@H]1[C@H]2[C@H](N2C=O)C1=O	
InChI=1S/C6H7NO2/c1-3-4-5(6(3)9)7(4)2-8/h2-5H,1H3	InChI=1S/C6H7NO2/c1-3-4-5(6(3)9)7(4)2-8/h2-5H,1H3/t3-,4-,5-,7?/m0/s1
