19
gdb 88700	3.33929	1.0621	0.8835	3.1737	82.04	-0.2544	0.0132	0.2677	1336.56	0.158731	-382.038726	-382.029731	-382.028787	-382.07292	33.273	
C	-0.0144196959	 1.6108414412	-0.0301813368	-0.403821
C	-0.0027937753	 0.0984935232	-0.0345426432	-0.020725
C	 1.2856702481	-0.6640445281	-0.2389349654	-0.307925
C	 0.5987924363	-0.6975956538	 1.1009105125	 0.048009
N	 1.2227518583	 0.0305559684	 2.1758281843	-0.078349
C	 0.628200018	-0.0595172125	 3.4933469045	-0.240932
C	 1.9455522766	-0.7245287732	 3.2097970818	-0.144955
C	 2.0014246936	-2.1659034692	 3.1702485507	 0.286668
N	 2.068996655	-3.3200364379	 3.1284501809	-0.337285
H	 0.8704038714	 2.007832801	 0.4723440145	 0.131551
H	-0.0326942447	 1.9998595403	-1.053811245	 0.117193
H	-0.89713785	 2.0000448318	 0.4894781422	 0.113774
H	-0.8877911293	-0.3569711123	-0.471448062	 0.089889
H	 1.2857293021	-1.5667384999	-0.8388330865	 0.120306
H	 2.1975957269	-0.0791554396	-0.2951647079	 0.120993
H	 0.094288241	-1.6236672931	 1.3798803062	 0.097546
H	 0.6156325183	 0.8524900406	 4.0832668495	 0.133089
H	-0.2292362614	-0.7160885815	 3.6287595165	 0.135975
H	 2.864854161	-0.2589928553	 3.5537502733	 0.138999
50.9619	103.1295	163.0718	189.0867	213.3396	251.1845	325.3506	359.2261	440.2563	510.9173	563.1152	644.1078	735.6052	785.4014	801.9366	851.593	880.5572	913.1158	957.447	997.9687	1026.3549	1054.3352	1074.7245	1087.8659	1113.8948	1123.9353	1142.9932	1148.2719	1186.0074	1197.2251	1232.4956	1325.5698	1367.5327	1384.6071	1415.6284	1422.9348	1484.9271	1496.6334	1503.6255	1507.0899	2350.6296	3034.0253	3088.1904	3090.3682	3101.7964	3122.7928	3137.7588	3143.8525	3150.3775	3194.5871	3226.5069
CC1CC1N1CC1C#N	C[C@H]1C[C@H]1N1C[C@H]1C#N	
InChI=1S/C7H10N2/c1-5-2-7(5)9-4-6(9)3-8/h5-7H,2,4H2,1H3	InChI=1S/C7H10N2/c1-5-2-7(5)9-4-6(9)3-8/h5-7H,2,4H2,1H3/t5-,6+,7+,9?/m0/s1
