20
gdb 70022	3.24276	1.51547	1.34429	1.5963	77.67	-0.2281	0.0809	0.309	1035.2773	0.172855	-403.108174	-403.100535	-403.099591	-403.139916	30.593	
C	 0.0770419637	 1.5331092408	 0.1111657144	-0.494194
C	-0.0802279552	 0.0475903496	-0.0269156398	 0.346677
C	-0.9914375425	-0.7635151831	 0.8067226985	-0.305258
N	 0.4700129769	-0.9314450724	 1.0049549673	-0.18989
C	 1.0036607711	-1.7691596608	-0.1386484789	 0.017113
C	 0.3180442912	-3.084414459	-0.5015637517	-0.108603
O	-0.7748727573	-2.7493538917	-1.3600257194	-0.252621
C	-0.4254256312	-1.5799002133	-2.1057296078	-0.110815
C	 0.5004575737	-0.7622908427	-1.2034089064	-0.110473
H	 1.0983410128	 1.8493952992	-0.1291210294	 0.119494
H	-0.6062005817	 2.062585083	-0.5640395377	 0.120083
H	-0.1441547264	 1.8512344077	 1.1340504946	 0.130021
H	-1.4481268209	-0.256387854	 1.6520795811	 0.113388
H	-1.5832437579	-1.5670213555	 0.3842201159	 0.142996
H	 2.0830300707	-1.8706103081	-0.0229284745	 0.085652
H	 1.0293162952	-3.7447150164	-1.0231135871	 0.095018
H	-0.0874648354	-3.6223765935	 0.3605772509	 0.119915
H	 0.0950260137	-1.8602979555	-3.0354150532	 0.092803
H	-1.3576409132	-1.0714826305	-2.3699038573	 0.110946
H	 1.2722341426	-0.2218130438	-1.7527357595	 0.077748
138.5854	185.6115	234.5373	242.0005	272.8816	344.5039	444.0016	503.2088	595.9134	669.9348	737.1755	739.9068	784.8414	828.922	892.0923	903.0354	917.2307	962.6203	988.8359	999.6076	1042.582	1054.005	1096.9261	1101.9549	1104.9376	1145.7456	1156.1205	1190.5938	1215.4607	1233.9238	1263.0309	1279.7846	1321.1582	1333.5496	1350.7449	1391.815	1397.5311	1422.6293	1482.0741	1492.6702	1498.0703	1506.0886	1513.4724	2973.0289	2979.7487	3023.8914	3080.3	3083.3949	3085.4396	3100.2949	3109.9649	3111.655	3126.2913	3220.2654
CC12CN1C1COCC21	C[C@]12CN1[C@H]1COC[C@@H]21	
InChI=1S/C7H11NO/c1-7-4-8(7)6-3-9-2-5(6)7/h5-6H,2-4H2,1H3	InChI=1S/C7H11NO/c1-7-4-8(7)6-3-9-2-5(6)7/h5-6H,2-4H2,1H3/t5-,6+,7-,8?/m1/s1
