19
gdb 113331	2.47179	1.05548	0.84956	3.4605	77.46	-0.2377	0.0247	0.2624	1398.5105	0.157915	-419.181423	-419.171265	-419.170321	-419.217042	36.137	
C	 0.4141362289	 1.4110298293	 0.2753168605	-0.332696
N	-0.2033112996	 0.1769146589	-0.2031324259	-0.347672
C	 0.514536844	-0.4782499624	-1.2622433334	 0.156142
C	 1.8722571822	-1.1628960179	-1.0541365769	-0.312696
C	 0.6492599842	-1.9933936357	-1.3202284031	-0.08448
C	 0.0685772981	-2.9009755955	-0.2540305469	-0.096898
O	 0.7844484782	-4.1199666503	-0.1466440138	-0.40662
C	 0.3380680086	 0.1818668845	-2.5424257351	 0.288032
N	 0.2165783938	 0.7100385932	-3.5642887071	-0.350912
H	 1.4447295072	 1.2828744944	 0.6447324438	 0.104508
H	 0.4369730916	 2.1426084037	-0.5383857682	 0.148857
H	-0.1981072709	 1.8253106863	 1.0802683115	 0.126476
H	-0.3876565353	-0.4579169449	 0.5606760566	 0.232611
H	 2.6295494523	-1.071648261	-1.8238112556	 0.136322
H	 2.2484220415	-1.1504088803	-0.0361491751	 0.128386
H	 0.5626246619	-2.4028193643	-2.3239448103	 0.109792
H	 0.1480251254	-2.4392500128	 0.7356422736	 0.103917
H	-1.0000246844	-3.0763940728	-0.4497429588	 0.108737
H	 0.6734567223	-4.6055717323	-0.9704653158	 0.288192
61.9875	75.9013	126.4358	143.1284	177.04	207.5164	262.748	284.644	313.8161	370.5529	437.7582	482.6797	576.0539	616.9437	668.6488	693.2641	845.842	885.2651	921.5487	925.1378	1031.8541	1040.7495	1059.2148	1078.0383	1098.3594	1147.1501	1153.9961	1173.5192	1228.8316	1265.5042	1317.2214	1376.3713	1410.055	1429.9027	1461.5077	1471.9526	1484.5761	1495.9161	1504.1312	1520.3246	2350.2038	2973.2315	2993.1286	3068.4306	3076.46	3120.5973	3136.2386	3139.3291	3229.2663	3587.445	3816.1636
CNC1(CC1CO)C#N	CN[C@]1(C[C@H]1CO)C#N	
InChI=1S/C6H10N2O/c1-8-6(4-7)2-5(6)3-9/h5,8-9H,2-3H2,1H3	InChI=1S/C6H10N2O/c1-8-6(4-7)2-5(6)3-9/h5,8-9H,2-3H2,1H3/t5-,6+/m0/s1
