23
gdb 71988	1.83394	1.76306	1.63973	0.474	90.37	-0.2229	0.0826	0.3055	1093.0641	0.204936	-351.126858	-351.117468	-351.116524	-351.160141	36.495	
C	-0.0710885763	 1.4472263641	-0.0532262785	-0.50724
C	 0.0362598782	-0.0497836817	-0.0170776521	 0.252033
C	 0.9439769844	-0.9036685778	-0.9039506124	-0.278963
C	 0.0935582003	-2.1141300325	-0.444197954	-0.110671
C	 0.4229897906	-2.2414901732	 1.0641309387	-0.278966
C	-0.2958188137	-0.9024874196	 1.2373304216	 0.252023
C	-0.7575202995	-0.3152695795	 2.5395901287	-0.507243
C	-1.0654522474	-1.0970220946	-0.0596309827	 0.264279
C	-2.5184981076	-1.0306128051	-0.3991450636	-0.531712
H	 0.8340475453	 1.9230839762	 0.344058754	 0.117445
H	-0.2056600118	 1.8046982913	-1.0809690177	 0.114702
H	-0.9180360952	 1.8163459108	 0.5333876094	 0.115385
H	 0.7865136858	-0.6670344168	-1.9616346421	 0.088105
H	 2.0212305164	-0.9347545938	-0.6948042384	 0.078361
H	-0.009475985	-2.997659361	-1.0720598198	 0.062387
H	-0.1411407358	-3.0491096513	 1.5426627239	 0.088104
H	 1.4812757038	-2.3212859681	 1.3449297008	 0.078364
H	 0.0902493386	 0.0141211353	 3.1530509436	 0.117444
H	-1.4115510144	 0.5502403668	 2.3952744934	 0.115389
H	-1.3183384422	-1.0539556606	 3.124375787	 0.114703
H	-2.9897615107	-0.1589326801	 0.0688125484	 0.119117
H	-2.6803765815	-0.9488632188	-1.4808886888	 0.118476
H	-3.0585163624	-1.9201384901	-0.0524739595	 0.118477
145.0468	162.7529	167.8674	183.8004	184.0826	240.6364	267.2796	339.8491	358.03	441.7167	514.2569	589.6488	618.2282	657.491	707.9749	750.3176	831.8471	875.6061	907.0857	945.8749	947.654	982.2914	1006.5199	1039.1219	1094.4314	1095.4395	1126.1301	1132.0337	1147.1648	1172.4728	1174.9991	1219.512	1222.6924	1250.6592	1265.0573	1316.9296	1356.6339	1409.6657	1413.1443	1422.5085	1458.2832	1478.4024	1484.9439	1492.4585	1493.65	1494.4913	1496.9052	1505.9053	1523.5636	3009.8241	3013.5787	3016.1734	3017.5182	3022.7243	3068.3854	3071.3959	3073.132	3073.8206	3075.3803	3083.4558	3091.9915	3100.8088	3125.2186
CC12CC3CC1(C)C23C	C[C@@]12C[C@H]3C[C@]1(C)[C@@]23C	
InChI=1S/C9H14/c1-7-4-6-5-8(7,2)9(6,7)3/h6H,4-5H2,1-3H3	InChI=1S/C9H14/c1-7-4-6-5-8(7,2)9(6,7)3/h6H,4-5H2,1-3H3/t6-,7+,8-,9+
