21
gdb 121642	3.66045	0.68438	0.60909	1.9192	80.14	-0.2484	-0.0245	0.2238	1878.2205	0.179839	-424.227592	-424.217301	-424.216357	-424.264371	36.036	
C	-0.1701075354	 1.5147884147	-0.4583266102	-0.380011
C	-0.5276992017	 0.0523695445	-0.7368239127	-0.172003
C	-1.3646462049	-0.579052969	 0.3800476917	-0.158944
C	-1.7171192504	-2.0405278215	 0.1068723367	-0.312235
C	-2.512759623	-2.6887961007	 1.224265315	 0.347555
O	-2.7645866887	-2.136647004	 2.2721430507	-0.30862
C	-2.9866628399	-4.1045896619	 1.012888669	-0.004258
C	-3.7986277227	-4.4781897832	-0.1637610912	-0.177155
O	-2.4314930628	-4.8491675306	-0.0734908528	-0.217191
H	 0.4242264942	 1.9430121627	-1.2714412636	 0.111132
H	-1.0713786788	 2.1274386549	-0.34519687	 0.115207
H	 0.4105221682	 1.6102202252	 0.4657678591	 0.116598
H	-1.0740268877	-0.0166279639	-1.6873062712	 0.092247
H	 0.3927718254	-0.5302875643	-0.8762069197	 0.095239
H	-0.8279702715	-0.513482867	 1.3333840019	 0.1122
H	-2.2882009434	-0.0052394946	 0.5237842582	 0.105264
H	-2.2707909245	-2.1464981314	-0.8360641635	 0.120266
H	-0.8146703915	-2.650135259	-0.0411507665	 0.138834
H	-3.1409358414	-4.6570199169	 1.9385310384	 0.118945
H	-4.5181907223	-5.2888704092	-0.0627864615	 0.132112
H	-4.0375845373	-3.7304018648	-0.9179610579	 0.124819
42.5215	72.3256	96.8677	99.3588	131.349	198.0831	245.8696	267.7594	303.1967	392.9211	488.2368	565.1819	575.4634	731.9773	797.3589	798.9016	872.0057	906.2102	913.2406	920.5336	960.4571	1031.1156	1072.0133	1076.8937	1118.1993	1124.8319	1149.6904	1163.9491	1192.4174	1232.668	1262.5547	1297.0804	1307.8929	1327.4092	1373.3974	1392.1662	1403.8693	1415.4185	1438.7905	1484.3051	1495.0811	1500.0114	1511.8605	1523.5895	1799.9099	3010.838	3021.2064	3030.4368	3035.2434	3040.4812	3044.4789	3079.4292	3089.3912	3098.3089	3102.7381	3133.1085	3179.6041
CCCCC(=O)C1CO1	CCCCC(=O)[C@H]1CO1	
InChI=1S/C7H12O2/c1-2-3-4-6(8)7-5-9-7/h7H,2-5H2,1H3	InChI=1S/C7H12O2/c1-2-3-4-6(8)7-5-9-7/h7H,2-5H2,1H3/t7-/m1/s1
