13
gdb 123513	4.11882	1.81354	1.25913	2.1608	76.85	-0.2293	-0.0887	0.1406	894.8639	0.092592	-411.793547	-411.787745	-411.786801	-411.823609	23.257	
C	 0.0027941433	 1.3842218305	 0.0100699102	-0.126017
C	 1.3184905357	 1.8271035308	-0.0005055301	-0.086118
N	 2.1069994519	 0.7219847148	-0.0143789516	 0.0111
N	 3.456170161	 0.6868905517	-0.0278752213	-0.092606
N	 3.9971797615	-0.4746039286	-0.0396021032	-0.167884
C	 3.2095284409	-1.6012954018	-0.0380207485	 0.054339
N	 1.9010515047	-1.642400429	-0.0253625125	-0.29727
C	 1.2941281354	-0.4499419312	-0.0128143733	 0.446778
C	-0.0224255592	-0.0264307332	 0.002427079	-0.28173
H	-0.859766325	 2.0337397539	 0.0221908652	 0.12506
H	 1.7510864073	 2.8135901662	 0.0006756775	 0.14952
H	 3.7616934598	-2.5339698425	-0.0486546696	 0.138863
H	-0.8851453374	-0.6723352815	 0.0073156482	 0.125965
207.8161	225.6811	418.1715	447.4458	592.5234	610.1893	624.665	641.2698	741.7603	754.8793	755.5926	820.0863	868.9293	898.9336	930.4562	937.1746	1048.501	1071.6254	1093.7016	1182.5698	1228.9514	1260.6626	1319.6133	1409.6018	1444.2607	1458.5423	1477.4119	1540.1726	1619.4851	3206.4727	3248.7911	3272.7006	3284.5877
C1=CN2N=NC=NC2=C1	c1cn2nncnc2c1	
InChI=1S/C5H4N4/c1-2-5-6-4-7-8-9(5)3-1/h1-4H	InChI=1S/C5H4N4/c1-2-5-6-4-7-8-9(5)3-1/h1-4H
