16
gdb 17924	3.30319	2.24516	2.15483	1.6715	58.32	-0.251	0.0778	0.3288	727.3522	0.133328	-420.874571	-420.868419	-420.867475	-420.904546	24.859	
O	 0.0655276756	 1.3774218151	 0.1264692827	-0.458346
C	-0.000115228	-0.0196405269	 0.0176631071	 0.140866
C	-1.3688396781	-0.6248925692	-0.4016491208	-0.128493
C	-1.4895605243	-0.030125413	-1.8181105042	-0.097019
O	-0.1126544458	 0.0250009505	-2.2795084779	-0.292443
C	 0.6437753245	-0.6046814524	-1.2474748229	 0.172577
O	 0.3651894065	-1.9822238136	-1.180919774	-0.268351
C	-0.9459869837	-2.0889953201	-0.5677242421	-0.081762
H	 0.1037786408	 1.7265039863	-0.7728708916	 0.293226
H	 0.3909286971	-0.4528919113	 0.9408190045	 0.096418
H	-2.2163163796	-0.4445574601	 0.2577752903	 0.087382
H	-2.0774850582	-0.6588967699	-2.4951817305	 0.112379
H	-1.9101776811	 0.9808628179	-1.8192736229	 0.108298
H	 1.7031661723	-0.4492755453	-1.4434695291	 0.099212
H	-0.8611531414	-2.6179204522	 0.3898785852	 0.105836
H	-1.6057068266	-2.6614559558	-1.2288955138	 0.110222
208.2102	235.7495	320.0077	389.2381	447.4588	483.528	585.2153	630.4559	782.6436	829.8124	860.724	903.1069	910.0397	926.2243	950.9553	971.0516	1010.0359	1047.5124	1081.6102	1111.9633	1134.704	1168.6173	1195.1483	1233.0611	1258.0407	1267.1102	1300.4972	1319.1785	1330.8587	1371.5587	1394.2924	1438.725	1520.0997	1535.6219	3020.374	3037.2298	3065.7339	3080.1008	3098.2202	3137.1181	3152.5261	3779.7813
OC1C2COC1OC2	O[C@H]1[C@H]2CO[C@@H]1OC2	
InChI=1S/C5H8O3/c6-4-3-1-7-5(4)8-2-3/h3-6H,1-2H2	InChI=1S/C5H8O3/c6-4-3-1-7-5(4)8-2-3/h3-6H,1-2H2/t3-,4-,5+/m0/s1
