22
gdb 110510	2.59617	1.43135	1.17887	1.7513	85.24	-0.2295	0.0853	0.3148	1183.7191	0.194264	-367.157719	-367.149002	-367.148058	-367.190846	34.171	
C	 0.0861641403	 1.5421714844	 0.0808232861	-0.379079
C	-0.1397135221	 0.0292186602	-0.028198583	-0.213832
C	 0.6316438014	-0.5792603039	-1.190659134	 0.066688
N	 2.1340236689	-0.5751519936	-1.0994173244	-0.159388
C	 2.4908255274	-1.8992072012	-0.4670839187	-0.038248
C	 1.2275595406	-2.7016444974	-0.1691844741	-0.289663
C	 0.6642661082	-2.100161161	-1.4895548153	 0.268302
C	-0.4147025385	-2.7968889648	-2.275710477	-0.514917
C	 2.1697676063	-1.8210369185	-1.9095774075	-0.10087
H	 1.1513899155	 1.7639237546	 0.192992965	 0.138199
H	-0.2679338403	 2.0611085908	-0.816835168	 0.11159
H	-0.4442038508	 1.9621153897	 0.9408209429	 0.107243
H	 0.153271411	-0.4491220222	 0.912168113	 0.100452
H	-1.2088081032	-0.181899828	-0.1670156348	 0.093469
H	 0.3867306151	-0.0361052517	-2.113056904	 0.069385
H	 3.4570705251	-1.9440027023	 0.0176725994	 0.094679
H	 1.4246923031	-3.77163363	-0.2842090699	 0.101039
H	 0.6769935914	-2.5316345778	 0.7613284841	 0.093481
H	-1.3533435734	-2.8253057523	-1.7095374327	 0.122153
H	-0.6131623446	-2.2827570442	-3.2227661546	 0.118398
H	-0.1386929414	-3.8313618279	-2.5073200968	 0.118571
H	 2.747808	-1.9475802528	-2.8160438756	 0.092348
78.5422	160.0814	188.3806	215.8388	235.7555	266.0904	302.4259	376.6255	512.9491	551.9561	611.6459	697.3476	735.393	787.4948	814.6356	834.8488	848.7389	897.0579	935.2714	956.9489	972.3359	976.5577	1007.7872	1023.0658	1066.9369	1110.1638	1118.7522	1122.596	1160.095	1167.837	1202.083	1210.3142	1228.0349	1266.3299	1290.8496	1319.5795	1340.3364	1353.9658	1408.7091	1412.6214	1422.8784	1479.7128	1489.3439	1493.8395	1498.0495	1504.9019	1508.9045	3016.4485	3019.9736	3023.0763	3035.4696	3046.381	3071.5267	3086.2877	3091.4089	3097.3573	3102.9225	3116.74	3191.2654	3208.6071
CCC1N2C3CC1(C)C23	CC[C@H]1N2[C@H]3C[C@]1(C)[C@@H]23	
InChI=1S/C8H13N/c1-3-6-8(2)4-5-7(8)9(5)6/h5-7H,3-4H2,1-2H3	InChI=1S/C8H13N/c1-3-6-8(2)4-5-7(8)9(5)6/h5-7H,3-4H2,1-2H3/t5-,6+,7-,8-,9?/m0/s1
