19
gdb 91632	2.94967	1.72132	1.5365	1.2936	72.58	-0.2443	0.0849	0.3292	944.7264	0.161686	-423.01182	-423.004938	-423.003994	-423.042716	28.805	
C	-0.193279632	 1.5383368859	-0.0472100411	-0.410806
C	 0.044163192	 0.0373230512	 0.0342917741	 0.155006
O	 0.826139271	-0.4064134843	-1.1052627573	-0.30107
C	 1.898011575	-1.2144577451	-0.5762679696	 0.060791
C	 1.2646694378	-1.8723595727	 0.6564318337	-0.237851
C	 0.8429568753	-0.5108262308	 1.2528699166	-0.118466
C	 2.1743016253	 0.2510303215	 1.2540607362	 0.057974
O	 3.3571603497	-0.5542406211	 1.3544501965	-0.26244
C	 2.8763848993	-0.2082663556	 0.0485358866	 0.038034
H	 0.7447490118	 2.0985340692	-0.0374158612	 0.120947
H	-0.7166511778	 1.779951265	-0.9766586356	 0.129046
H	-0.8149853296	 1.8746573327	 0.7896264197	 0.112417
H	-0.9281801129	-0.4751168268	-0.0029875483	 0.075524
H	 2.2747869968	-1.8556560395	-1.3724923841	 0.07647
H	 0.4132982858	-2.4999425608	 0.3872701191	 0.102501
H	 1.9690096368	-2.4235235768	 1.2754057259	 0.124804
H	 0.2812584211	-0.5226542662	 2.1872799088	 0.071093
H	 2.2611862557	 1.2551732734	 1.6543825904	 0.10327
H	 3.518851839	 0.4181501709	-0.5612799005	 0.102757
160.9195	225.857	272.481	377.8543	389.5277	471.1004	490.0124	559.0398	588.7421	771.4364	803.1954	811.8451	857.0399	870.2803	872.8894	918.1209	926.6207	944.85	974.2139	998.7982	1009.2353	1028.2765	1063.6163	1093.6917	1112.2678	1139.0778	1146.0806	1201.4925	1241.695	1274.4848	1287.8504	1293.2968	1299.9419	1333.8527	1355.7673	1392.5658	1410.6976	1413.9599	1481.5075	1486.9341	1502.7153	2990.5246	3041.4339	3092.2615	3110.0036	3114.3766	3125.6163	3126.8535	3166.9323	3169.0487	3181.1046
CC1OC2CC1C1OC21	C[C@H]1O[C@@H]2C[C@H]1[C@H]1O[C@@H]21	
InChI=1S/C7H10O2/c1-3-4-2-5(8-3)7-6(4)9-7/h3-7H,2H2,1H3	InChI=1S/C7H10O2/c1-3-4-2-5(8-3)7-6(4)9-7/h3-7H,2H2,1H3/t3-,4-,5-,6-,7+/m1/s1
