23
gdb 104855	1.97943	1.32996	1.12872	2.5296	81.33	-0.238	0.0678	0.3058	1270.4138	0.203909	-425.404871	-425.39432	-425.393376	-425.44037	38.62	
C	-1.9969831141	-1.1403867945	 0.0781088787	-0.403381
C	-0.6445760591	-0.4147280564	 0.0824639498	-0.246524
C	 0.2087529565	-0.5261885957	 1.3625223681	 0.270115
C	 1.187036792	 0.6399792262	 1.4414677076	-0.152613
O	 0.4352151254	 1.8387471243	 1.5788596545	-0.423297
C	-0.5465119698	-0.8191792099	 2.6836548958	-0.102185
O	-0.0869433599	-2.1872240118	 2.6966627419	-0.301129
C	 0.8683373178	-1.9141617369	 1.6465113912	 0.123097
C	 0.9441899498	-3.0106719958	 0.6031728541	-0.422331
H	-2.7226801787	-0.6335568552	 0.7210891617	 0.121035
H	-2.4159144053	-1.1522788901	-0.9329463732	 0.109464
H	-1.9218371123	-2.1746249121	 0.4248945327	 0.130733
H	-0.0337292173	-0.7744965929	-0.7558972547	 0.093251
H	-0.8203981683	 0.6489960561	-0.1059920957	 0.11818
H	 1.8585447063	 0.4999332475	 2.30270748	 0.086025
H	 1.8128378913	 0.6629264358	 0.5331600239	 0.084353
H	 1.0473439582	 2.5795166764	 1.6084817824	 0.289812
H	-0.1654363079	-0.2492353116	 3.5417714745	 0.092544
H	-1.6377910081	-0.7582064378	 2.6763329602	 0.10406
H	 1.8725245847	-1.7813190998	 2.0839627204	 0.058897
H	-0.0082999835	-3.1737058508	 0.0956850348	 0.12718
H	 1.7049488524	-2.7715782656	-0.1479903521	 0.1144
H	 1.2359005201	-3.9484581995	 1.0873318235	 0.128314
58.1927	103.7201	133.4737	162.1127	194.3755	210.1213	243.1074	268.382	283.1041	320.5577	367.4848	432.1463	468.9947	541.934	648.4012	755.4249	791.1296	879.28	901.5807	941.7018	968.0558	1011.2286	1027.1445	1051.5463	1057.6079	1077.4121	1105.1204	1127.143	1156.1815	1173.5955	1209.3412	1221.5027	1256.6767	1287.0367	1321.0367	1325.9741	1348.2645	1382.4982	1402.7808	1415.6959	1417.8374	1455.2468	1482.1118	1490.9918	1495.9417	1502.1806	1508.1421	1517.0596	1532.0125	2944.587	2958.1568	2993.8536	3012.4899	3023.9106	3040.1583	3042.8637	3075.415	3085.7952	3102.5539	3106.0825	3117.0924	3136.4619	3833.6549
CCC1(CO)COC1C	CC[C@@]1(CO)CO[C@H]1C	
InChI=1S/C7H14O2/c1-3-7(4-8)5-9-6(7)2/h6,8H,3-5H2,1-2H3	InChI=1S/C7H14O2/c1-3-7(4-8)5-9-6(7)2/h6,8H,3-5H2,1-2H3/t6-,7+/m0/s1
