18
gdb 11510	4.81959	1.14062	0.97983	1.3193	74.88	-0.2428	0.0386	0.2814	1203.7192	0.150731	-347.741015	-347.73211	-347.731166	-347.774987	32.659	
C	-0.4747228385	 1.4480806819	-0.1471095201	-0.394321
C	-0.0570877168	-0.0255107363	-0.0233905569	-0.03846
O	-1.1764738432	-0.9071608164	 0.0822491817	-0.259289
C	-1.7594863991	-0.9513154913	 1.3493152573	 0.159651
C	-2.9738218252	-0.1095737885	 1.6609703393	-0.286586
C	-3.099932323	-1.6030663151	 1.4307348349	-0.297099
C	 0.7310199211	-0.4507424114	-1.1805670104	 0.319286
C	 1.3935605958	-0.7624698899	-2.1325635096	-0.444797
H	 0.4106283732	 2.0802947415	-0.2576938552	 0.126323
H	-1.1119730797	 1.5821113448	-1.024826754	 0.132655
H	-1.0216485477	 1.7643495408	 0.7438375544	 0.126637
H	 0.5677501629	-0.1387200371	 0.8782098261	 0.096186
H	-1.0492927744	-1.1357201459	 2.1567890846	 0.084755
H	-3.0959088846	 0.2801785253	 2.6660335997	 0.111265
H	-3.3383049245	 0.5372750552	 0.8716194378	 0.121218
H	-3.5353351922	-1.9207803718	 0.4902867342	 0.129469
H	-3.3102571684	-2.2520644893	 2.2730932102	 0.115295
H	 1.9771395244	-1.0517201566	-2.9713319141	 0.197812
40.3346	93.8554	139.7347	195.4574	238.0656	290.5463	330.558	385.8945	473.0664	539.5607	549.2581	621.4199	668.8705	756.9479	806.4276	826.8505	837.2855	921.4008	965.8057	1002.5776	1050.8839	1070.7336	1078.641	1096.5072	1122.8259	1141.4051	1193.9251	1201.8326	1241.4919	1340.7857	1351.023	1394.7826	1413.8849	1453.277	1486.064	1493.4407	1498.821	2244.0246	2962.7651	3050.4423	3088.2004	3127.6727	3134.5772	3137.3355	3142.4363	3221.1432	3235.6177	3504.996
CC(OC1CC1)C#C	C[C@@H](OC1CC1)C#C	
InChI=1S/C7H10O/c1-3-6(2)8-7-4-5-7/h1,6-7H,4-5H2,2H3	InChI=1S/C7H10O/c1-3-6(2)8-7-4-5-7/h1,6-7H,4-5H2,2H3/t6-/m1/s1
