16
gdb 79979	3.21503	1.3673	1.23628	2.774	73.46	-0.2219	-0.0221	0.1998	1043.1556	0.125693	-434.051286	-434.043436	-434.042492	-434.083949	29.198	
O	-0.131469481	 1.4040267779	-0.117779925	-0.426273
C	-0.1121805944	 0.018975298	-0.0475965838	 0.094017
C	-0.4865994848	-0.7127275196	 1.2230771167	-0.088919
N	-1.1571766214	 0.0706437774	 2.234353166	-0.282843
C	-2.2747921723	 0.4532644167	 1.7299367043	 0.062157
N	-2.5523288228	-0.0085505138	 0.4533435625	-0.019467
C	-3.6864019733	 0.2706416651	-0.2849958867	 0.090658
N	-4.6337774968	 0.9785691983	 0.1814979708	-0.458381
C	-1.4131088426	-0.7573253343	-0.0080514899	-0.105914
H	-0.0403909678	 1.7480986061	 0.7794663715	 0.300426
H	 0.6807836552	-0.4441155351	-0.6306980888	 0.107734
H	 0.1191993348	-1.5412240387	 1.5708699126	 0.105351
H	-2.9969448592	 1.0935697671	 2.2183053799	 0.170587
H	-3.6508137773	-0.1881191149	-1.2787012502	 0.104391
H	-5.3805416569	 1.0684375422	-0.5029064592	 0.232905
H	-1.6057020893	-1.6171335426	-0.6385131508	 0.113573
70.2287	163.6022	192.519	224.7681	234.8252	279.5988	485.0653	497.9446	608.27	682.6855	714.6891	756.7221	793.7791	804.7873	823.6501	920.2927	961.6518	995.1476	1022.2778	1049.3383	1053.2	1088.1518	1110.5089	1162.9123	1208.5144	1253.0754	1278.9841	1320.5232	1329.5335	1361.1363	1395.6937	1416.5099	1452.1441	1636.1051	1720.7114	3067.3584	3131.8136	3175.0361	3182.6713	3247.4485	3524.2256	3774.791
OC1C2N=CN(C=N)C12	O[C@H]1[C@H]2N=CN([CH][NH])[C@@H]12	
InChI=1S/C5H7N3O/c6-1-8-2-7-3-4(8)5(3)9/h1-6,9H	InChI=1S/C5H7N3O/c6-1-8-2-7-3-4(8)5(3)9/h1-6,9H/t3-,4+,5-/m0/s1
