18
gdb 67848	2.30847	1.66819	1.32779	4.2972	81.25	-0.2451	0.0021	0.2471	1045.2584	0.148405	-364.834263	-364.826181	-364.825237	-364.866626	31.215	
C	 0.0170535553	 1.5391116092	-0.02490023	-0.488273
C	-0.0296436784	 0.0320294913	 0.0547073966	 0.30117
C	-1.3029269764	-0.6971890242	-0.2436487907	-0.140446
C	-1.4506319251	-1.7784458066	 0.5229662333	-0.060075
C	-0.3008122802	-1.9489935708	 1.4924986709	-0.293852
C	 0.6331490839	-0.7950167431	 1.1354497574	-0.098839
C	 1.2492339377	-0.7636822409	-0.2606568653	-0.240508
C	 1.2488417554	-1.9207204576	-1.1087223763	 0.3099
N	 1.2679758743	-2.8582047791	-1.7871652321	-0.356135
H	 0.9900006014	 1.9265469313	 0.2923533932	 0.12104
H	-0.1627486386	 1.8862761392	-1.0482940665	 0.130776
H	-0.7488854042	 1.9840036499	 0.6192931948	 0.129484
H	-1.9845944588	-0.3696042058	-1.0199070044	 0.102312
H	-2.2648334326	-2.4900722125	 0.4556913543	 0.107842
H	-0.6335438229	-1.8756710761	 2.5357182463	 0.115772
H	 0.1816214481	-2.9286289802	 1.3861177445	 0.135074
H	 1.221270249	-0.3270711239	 1.9164031908	 0.098315
H	 2.1534920221	-0.16807839	-0.3462547467	 0.126444
118.0016	139.9937	198.5171	223.3212	271.3832	329.0976	387.7838	444.4771	547.001	612.0944	617.4289	728.958	749.3328	773.855	829.2272	854.9174	926.2948	940.5757	957.9171	966.1163	999.7164	1041.344	1050.2276	1097.6015	1108.2555	1143.6305	1188.4794	1227.5465	1268.9235	1314.4974	1337.2929	1364.8906	1417.6018	1426.9031	1473.9428	1487.0308	1499.2356	1672.37	2348.3785	3025.3863	3030.5509	3056.1144	3094.9523	3105.2305	3153.3585	3179.3123	3194.2954	3218.8105
CC12C=CCC1C2C#N	C[C@]12C=CC[C@H]1[C@H]2C#N	
InChI=1S/C8H9N/c1-8-4-2-3-6(8)7(8)5-9/h2,4,6-7H,3H2,1H3	InChI=1S/C8H9N/c1-8-4-2-3-6(8)7(8)5-9/h2,4,6-7H,3H2,1H3/t6-,7+,8-/m0/s1
