19
gdb 84043	2.70298	1.46769	1.19396	2.6346	70.64	-0.2476	0.0632	0.3108	1081.0812	0.161563	-460.133229	-460.125511	-460.124567	-460.165213	30.691	
O	-0.1116628883	 1.4558287469	-0.0277504007	-0.409969
C	-0.0301958784	 0.0593136398	 0.0138289953	 0.053966
C	-0.4557182264	-0.693327206	 1.2607595771	-0.076321
C	-0.933652036	 0.0433507372	 2.496484736	-0.120873
O	-2.1709249464	-0.4526059152	 2.9956421786	-0.231244
C	-3.3069794158	 0.0465109913	 2.3402767123	 0.016948
O	-3.5378214278	-0.4634249777	 1.0560049532	-0.231462
C	-2.6608902532	 0.0416123244	 0.0534950855	-0.122546
C	-1.3320821778	-0.6918170797	 0.0192440022	-0.054861
H	 0.6623832369	 1.8152778181	 0.4183972171	 0.292479
H	 0.7885495148	-0.3590017243	-0.5710848383	 0.091288
H	 0.0695635546	-1.6224892814	 1.4612832449	 0.089868
H	-0.211487552	-0.0838987052	 3.3092239912	 0.105514
H	-1.0177609095	 1.1199587066	 2.2896726817	 0.095539
H	-4.1615586431	-0.2635173773	 2.9462795122	 0.112173
H	-3.2498647616	 1.1509051065	 2.2948072533	 0.073152
H	-3.1823982176	-0.0935430902	-0.8986884497	 0.108144
H	-2.5024172267	 1.1182743289	 0.1951052029	 0.114614
H	-1.3463518758	-1.6210884228	-0.5417040048	 0.093592
123.5833	176.3735	269.4184	276.8299	324.2663	359.3003	379.5491	457.2539	532.8929	572.4213	609.7067	640.0693	780.954	821.6612	870.0821	942.3671	951.9052	989.7338	992.7359	1025.9239	1058.6706	1068.8295	1119.4187	1140.4595	1177.2431	1185.9364	1198.4645	1242.7715	1280.1649	1290.8401	1313.5783	1347.5996	1358.0783	1384.0678	1409.9907	1414.4749	1449.085	1459.5607	1490.5651	1499.2992	1510.8348	2923.705	3001.9448	3027.2254	3072.1562	3083.0799	3098.6565	3104.3181	3144.7818	3157.9687	3807.2605
OC1C2COCOCC12	O[C@H]1[C@H]2COCOC[C@@H]12	
InChI=1S/C6H10O3/c7-6-4-1-8-3-9-2-5(4)6/h4-7H,1-3H2	InChI=1S/C6H10O3/c7-6-4-1-8-3-9-2-5(4)6/h4-7H,1-3H2/t4-,5+,6-
