13
gdb 123975	3.85681	1.65604	1.16681	3.4453	65.19	-0.2437	-0.0449	0.1988	943.1136	0.092248	-448.897081	-448.8906	-448.889655	-448.928495	24.453	
C	 0.0172319095	 1.4880608453	-0.0599647805	-0.26779
N	 1.3530202666	 2.0669381238	 0.1080833002	-0.250619
C	 2.374216704	 1.3320153256	 0.2738120558	 0.091004
N	 2.4212307059	-0.0607402432	 0.3244542752	-0.427556
C	 1.2368481593	-0.7342489623	 0.1801733999	 0.415388
N	 1.0092155901	-2.0158025179	 0.1886490754	-0.214883
O	-0.360992814	-2.1112835059	 0.000226389	-0.161297
N	-0.9425475866	-0.8734434289	-0.1198990954	-0.165677
C	 0.0248615641	-0.0131192735	-0.0117539757	 0.270875
H	-0.6373373331	 1.898878334	 0.7188434275	 0.150456
H	-0.396081053	 1.844534157	-1.0117333969	 0.150459
H	 3.3509405583	 1.7976117494	 0.3953897591	 0.132802
H	 3.2895106989	-0.5509083435	 0.4607880864	 0.276837
54.9773	242.5377	341.3878	364.1766	424.956	493.7584	539.2073	605.3163	630.9348	741.3049	757.6165	869.1775	896.3887	921.562	940.2227	978.7972	1017.3516	1050.8477	1097.1922	1247.9629	1266.8263	1332.9843	1401.6504	1432.696	1475.4869	1489.2416	1574.2571	1677.4698	1744.3076	3026.2395	3046.6998	3149.7415	3658.8488
C1N=CNC2=NON=C12	C1N=CNc2nonc12	
InChI=1S/C4H4N4O/c1-3-4(6-2-5-1)8-9-7-3/h2H,1H2,(H,5,6,8)	InChI=1S/C4H4N4O/c1-3-4(6-2-5-1)8-9-7-3/h2H,1H2,(H,5,6,8)
