22
gdb 115898	3.13851	1.29767	1.10638	0.3147	81.57	-0.21	0.0819	0.2918	1198.1658	0.196323	-404.31167	-404.303482	-404.302538	-404.344259	32.653	
C	-0.2662862432	 1.7812161627	-0.1751427495	-0.382097
C	 0.0030428087	 0.2752051286	-0.1638364003	-0.193174
C	-1.2302503154	-0.5575343103	 0.1997819704	 0.035488
C	-0.9599654836	-2.0729404179	-0.0148316314	-0.098546
O	-1.7461223521	-2.9157777352	 0.8300207448	-0.277625
C	-2.0805221098	-2.3095775974	 2.0698292738	 0.123481
C	-2.946486062	-1.0607357253	 1.8135956256	-0.18558
N	-1.6702977939	-0.2816081817	 1.5912966146	-0.127976
C	-1.0075409091	-1.2875537758	 2.5077565629	-0.215329
H	 0.6492900715	 2.3459944165	-0.3752124508	 0.106858
H	-0.9968081905	 2.045630891	-0.947962772	 0.108929
H	-0.6695964331	 2.0990383368	 0.7894154712	 0.136715
H	 0.3676089537	-0.0519537573	-1.1468152253	 0.09429
H	 0.8063450854	 0.0453215263	 0.5492745636	 0.096044
H	-2.0618826077	-0.2413270963	-0.4426736897	 0.07851
H	-1.1785945829	-2.3696774155	-1.045068055	 0.109276
H	 0.1063508703	-2.279190872	 0.1606715516	 0.092684
H	-2.4164281793	-3.1087606063	 2.7358676655	 0.074619
H	-3.630586702	-1.0948556863	 0.9615469453	 0.103536
H	-3.465217033	-0.6849709846	 2.7012424497	 0.101238
H	-1.1244517139	-0.9699845717	 3.5472740965	 0.109194
H	 0.0455776921	-1.5026775882	 2.3135433386	 0.109464
95.7008	145.9555	192.5753	253.3824	277.6405	362.7279	413.2374	453.5738	485.8487	512.673	604.0184	747.4119	814.0874	824.369	830.3134	886.7484	926.2135	931.6279	959.1331	961.3039	993.7796	1012.3525	1037.464	1062.6435	1097.7046	1118.4665	1140.4003	1169.5825	1183.0039	1240.7479	1248.9922	1252.041	1267.3666	1299.1921	1304.1597	1310.0752	1357.1715	1376.0987	1392.0064	1402.5337	1410.7116	1478.0586	1484.164	1495.0293	1506.0662	1511.2399	1529.3523	2988.1492	3011.1447	3022.1419	3035.5715	3043.0281	3048.1541	3061.2089	3076.1365	3078.0755	3099.7937	3108.7659	3118.044	3126.8057
CCC1COC2CN1C2	CC[C@H]1CO[C@@H]2CN1C2	
InChI=1S/C7H13NO/c1-2-6-5-9-7-3-8(6)4-7/h6-7H,2-5H2,1H3	InChI=1S/C7H13NO/c1-2-6-5-9-7-3-8(6)4-7/h6-7H,2-5H2,1H3/t6-/m0/s1
