18
gdb 41094	3.03996	1.95534	1.78464	1.7003	73.77	-0.2069	0.0471	0.254	855.9568	0.14957	-401.820204	-401.813805	-401.81286	-401.850454	27.234	
C	-0.0067025914	 1.4497580573	-0.0539390877	-0.160952
C	 1.5406853515	 1.5098922226	 0.0140505253	-0.127596
C	 2.0877144803	 1.31779029	 1.4743198644	-0.308015
C	 1.6306350904	-0.1597951265	 1.3642786454	 0.367448
C	 0.1206769723	-0.4729937973	 1.4787398811	-0.240769
N	-0.0847627621	-0.057845968	 0.0264698026	-0.198596
C	 1.4413546988	-0.0418857365	-0.1192949716	 0.241365
C	 2.4186721665	-1.2215894065	-0.2075236223	-0.20594
O	 2.5895696137	-1.2343327776	 1.2549016894	-0.34073
H	-0.5703167389	 1.9714968559	 0.7271302717	 0.101013
H	-0.3756541315	 1.7669789408	-1.0335530448	 0.114921
H	 2.0480619242	 2.1991875626	-0.661547024	 0.075426
H	 3.1786417365	 1.3746766416	 1.508609944	 0.120167
H	 1.6665192901	 1.9451522819	 2.2656391386	 0.098937
H	-0.0676572232	-1.5435597155	 1.591066119	 0.120509
H	-0.4866821564	 0.0804741692	 2.2027407587	 0.102214
H	 1.9830835158	-2.1574451198	-0.5751106726	 0.123234
H	 3.3669529437	-1.0311880842	-0.7218024672	 0.117364
225.9398	268.5082	314.0976	383.9124	422.9945	486.0898	544.2617	659.0373	696.8011	793.9348	797.6717	805.7722	838.1789	889.9815	915.3946	921.8083	925.3719	959.1618	980.0895	1003.1984	1089.5566	1111.5681	1134.6246	1163.8861	1169.2661	1178.1619	1192.931	1211.8678	1237.1374	1244.4166	1256.763	1291.5871	1300.7096	1312.3688	1330.3177	1469.9308	1476.7709	1494.3499	1498.5952	3028.1825	3036.2359	3042.7573	3051.3548	3080.7525	3091.5223	3102.0993	3108.0535	3115.6351
C1C2CC34CN1C23CO4	C1[C@H]2C[C@@]34CN1[C@@]23CO4	
InChI=1S/C7H9NO/c1-5-2-8-3-6(1)7(5,8)4-9-6/h5H,1-4H2	InChI=1S/C7H9NO/c1-5-2-8-3-6(1)7(5,8)4-9-6/h5H,1-4H2/t5-,6-,7+/m1/s1
