17
gdb 5227	6.98484	1.13282	1.00116	1.5185	72.84	-0.1784	0.0403	0.2187	1175.7651	0.142994	-363.886055	-363.878117	-363.877173	-363.919358	28.884	
C	 0.0920802039	 1.4414229707	 0.0985234874	-0.394396
C	-0.0784869509	-0.0371956306	-0.2311405669	-0.121469
N	-1.3913387354	-0.5099559838	 0.217706329	-0.400564
C	-1.7008485408	-1.8520331065	 0.0900178916	 0.439526
C	-2.8554867828	-2.5216482466	-0.2008409401	-0.303851
C	-2.5415827281	-3.9168340296	-0.0622373901	-0.156961
C	-1.2352570847	-3.9900463214	 0.2835541714	-0.033091
O	-0.7054254245	-2.7243658075	 0.3849728344	-0.179495
H	 1.0794710151	 1.7917908253	-0.2150229926	 0.121947
H	-0.6554333202	 2.0531212722	-0.4203385993	 0.113035
H	-0.0158764147	 1.6140879316	 1.1730602283	 0.131237
H	 0.0699719138	-0.2049748133	-1.3106393684	 0.095067
H	 0.6797030528	-0.6288316538	 0.2879598673	 0.132942
H	-2.1486426044	 0.0702994571	-0.1178313065	 0.235842
H	-3.8002969018	-2.0834199399	-0.4794639981	 0.090885
H	-3.2099734591	-4.7502903293	-0.2135541587	 0.104122
H	-0.5470179582	-4.7946226145	 0.4758587713	 0.125226
42.9977	65.0668	141.3438	256.5318	304.3488	347.4047	430.134	596.2467	623.0033	662.3589	707.6657	742.7983	761.4425	813.7108	831.7071	897.9647	912.794	972.7459	1028.2155	1069.2721	1092.9247	1136.9038	1164.8611	1181.5194	1247.5397	1293.0373	1309.5584	1370.843	1410.3653	1421.8606	1479.7675	1495.2812	1499.9002	1523.3846	1571.4342	1652.4095	2966.695	3033.5572	3087.2108	3108.2072	3123.1598	3249.525	3262.6041	3296.2602	3580.4031
CCNC1=CC=CO1	CCNc1ccco1	
InChI=1S/C6H9NO/c1-2-7-6-4-3-5-8-6/h3-5,7H,2H2,1H3	InChI=1S/C6H9NO/c1-2-7-6-4-3-5-8-6/h3-5,7H,2H2,1H3
