21
gdb 91369	3.24556	1.15669	0.96848	1.4369	86.47	-0.2218	0.019	0.2409	1293.9545	0.182947	-387.07505	-387.066412	-387.065468	-387.108145	33.853	
C	-0.0761716462	 1.5710351386	 0.0678618019	-0.39575
C	 0.060548297	 0.0454858661	 0.0606141396	 0.008678
C	 0.7446285552	-0.5132121063	-1.2354357376	-0.249445
C	 1.4955631528	-1.7726236273	-0.7573383325	-0.049531
C	 3.0515124056	-1.9713904096	-0.7744237386	-0.289543
C	 2.9894114209	-2.2168117534	 0.7896737309	 0.040972
O	 3.9389241824	-1.6230345647	 1.6357432589	-0.42737
C	 1.6532924637	-1.5335483377	 0.7227106341	 0.275768
C	 0.9641542006	-0.4929059025	 1.1740224601	-0.240828
H	 0.9071868249	 2.0511570019	 0.0094709589	 0.114945
H	-0.6704146687	 1.9156577922	-0.785434289	 0.110607
H	-0.5686367544	 1.9242417437	 0.9801801789	 0.111291
H	-0.9498802371	-0.3823426752	 0.1519846125	 0.075703
H	 0.0269806219	-0.7030123689	-2.0397468906	 0.090179
H	 1.4595438339	 0.2336404187	-1.6027226848	 0.096708
H	 0.9777012016	-2.7022384199	-1.0201728207	 0.070484
H	 3.4620860008	-2.7761508129	-1.3906008416	 0.090556
H	 3.5773060238	-1.034457104	-0.9749433843	 0.110931
H	 2.892737494	-3.2956101426	 0.9878711535	 0.074999
H	 4.7067887014	-2.2007502486	 1.6822900963	 0.284634
H	 1.0660362661	-0.0060352779	 2.1371207642	 0.09601
90.4228	121.0258	210.0278	246.1191	251.6946	291.8823	342.1217	389.9414	469.1049	514.7992	575.618	633.9884	660.6614	813.9417	821.0225	855.798	869.6105	892.1168	919.9531	948.0131	989.4268	1002.7492	1050.5556	1068.8665	1091.6197	1129.5281	1145.6481	1156.1172	1177.1737	1205.766	1224.0236	1235.7156	1255.1516	1286.1811	1302.9687	1314.2196	1340.6398	1360.2949	1407.8751	1436.0867	1471.3777	1485.0187	1496.6418	1499.7607	1742.4554	2976.2031	2976.5602	3024.7452	3030.181	3032.3407	3052.4336	3083.6066	3095.1688	3095.908	3121.9257	3198.2422	3823.4736
CC1CC2CC(O)C2=C1	C[C@H]1C[C@H]2C[C@@H](O)[C]2[CH]1	
InChI=1S/C8H12O/c1-5-2-6-4-8(9)7(6)3-5/h3,5-6,8-9H,2,4H2,1H3	InChI=1S/C8H12O/c1-5-2-6-4-8(9)7(6)3-5/h3,5-6,8-9H,2,4H2,1H3/t5-,6-,8+/m0/s1
