21
gdb 39437	2.40148	1.91116	1.32129	1.4148	81.94	-0.2398	0.0896	0.3294	1034.9731	0.185091	-387.070783	-387.063341	-387.062397	-387.102309	30.824	
C	 0.0053779381	 1.4994136333	-0.0055492638	-0.403261
C	 1.2925750702	 0.7135263577	 0.0285239154	 0.049589
O	 2.0027301894	 0.6900578534	 1.2335922899	-0.255781
C	 2.0471979534	-0.6116390127	 1.8131533291	-0.074938
C	 0.6538777446	-1.0437821831	 2.277591159	-0.2319
C	-0.3583926553	-0.9845664057	 1.1271002988	-0.039616
C	-0.3643276107	-2.1099233587	 0.043812775	-0.229268
C	-0.4539857434	-1.0191099345	-1.0642978153	-0.304731
C	-0.0255186167	-0.0014978764	-0.0072374335	 0.329061
H	-0.2723342729	 2.0182240312	 0.9064583305	 0.116337
H	-0.248420682	 2.0203109773	-0.9238810027	 0.108676
H	 1.9254930926	 0.7079668014	-0.8601173087	 0.080351
H	 2.4684783629	-1.3339994429	 1.0960712275	 0.087229
H	 2.7365575815	-0.5411335843	 2.6591025515	 0.105801
H	 0.6927545923	-2.0544830341	 2.7026022658	 0.094702
H	 0.3438934426	-0.3678404253	 3.0832007791	 0.103278
H	-1.3712394328	-0.8302494345	 1.5146590467	 0.069599
H	 0.5862834948	-2.650071654	 0.0090372779	 0.100808
H	-1.1765548832	-2.8381151096	 0.0969665167	 0.096655
H	 0.1883598556	-1.1352381351	-1.9421164951	 0.096051
H	-1.4829365511	-0.8600180234	-1.4035000538	 0.101358
129.4777	180.4282	248.7155	309.7594	372.4736	433.3278	456.7243	484.8989	550.156	633.7991	714.6703	766.2759	807.5749	861.7847	869.1754	895.0739	909.9104	939.9848	981.1389	996.8363	1012.4985	1034.4179	1059.4188	1087.3155	1100.9982	1116.0724	1143.5817	1171.9384	1187.914	1224.5445	1235.7998	1252.7152	1273.9508	1284.5602	1290.1168	1326.4273	1354.9051	1377.0504	1394.1143	1418.9663	1473.7683	1477.0653	1480.7277	1494.877	1504.9641	2980.88	3024.1628	3039.4287	3043.1454	3056.6914	3068.5055	3086.9333	3088.1241	3089.9817	3114.3707	3121.9252	3210.4016
C1C2OCCC3CCC123	C1[C@H]2OCC[C@@H]3CC[C@]123	
InChI=1S/C8H12O/c1-3-8-5-7(8)9-4-2-6(1)8/h6-7H,1-5H2	InChI=1S/C8H12O/c1-3-8-5-7(8)9-4-2-6(1)8/h6-7H,1-5H2/t6-,7+,8+/m0/s1
