16
gdb 7781	3.69695	1.74831	1.24677	3.7739	61.14	-0.2662	0.0064	0.2727	946.3652	0.130974	-420.920282	-420.912865	-420.911921	-420.952207	27.259	
C	 0.0272153297	 1.5450527463	 0.074336225	-0.409112
C	 0.0192271962	 0.0273318886	 0.0428756095	 0.110865
C	 0.5863825149	-0.5619714561	-1.2508947283	-0.338215
C	 0.941491748	-2.0400699064	-1.1559110433	 0.401883
O	 1.095111466	-2.741604645	-2.1160493644	-0.318555
O	 1.1684605015	-2.5403082608	 0.0856638795	-0.228697
C	 0.7337916737	-1.8164280304	 1.2484231732	 0.021112
O	 0.8267440672	-0.4430336557	 1.1250154455	-0.230951
H	 1.0494603506	 1.9210776152	-0.0301316349	 0.132919
H	-0.5763152176	 1.9458482494	-0.7452876396	 0.125969
H	-0.381194827	 1.9106063027	 1.0199203212	 0.13149
H	-1.0097274729	-0.3413194149	 0.1928428922	 0.08039
H	-0.092361534	-0.4343497738	-2.0974347507	 0.138042
H	 1.5193676073	-0.0422822638	-1.5031992193	 0.145094
H	-0.3018605931	-2.1296234228	 1.458077864	 0.102913
H	 1.3952835696	-2.1289791023	 2.0578628102	 0.134851
92.3194	122.5162	219.0981	273.7095	299.4033	420.2023	450.6388	484.9254	522.3241	604.4034	741.8185	807.4748	847.0687	918.805	941.2976	1037.9151	1064.9472	1108.3997	1121.6093	1142.7967	1182.2979	1240.4895	1268.6399	1298.5241	1303.7054	1384.3362	1394.2931	1417.3407	1450.8202	1460.8705	1484.0204	1498.8135	1521.7912	1853.8036	2961.4323	2975.5579	3042.6033	3046.3607	3113.1023	3121.3453	3122.0384	3127.123
CC1CC(=O)OCO1	C[C@H]1CC(=O)OCO1	
InChI=1S/C5H8O3/c1-4-2-5(6)8-3-7-4/h4H,2-3H2,1H3	InChI=1S/C5H8O3/c1-4-2-5(6)8-3-7-4/h4H,2-3H2,1H3/t4-/m0/s1
