17
gdb 52045	2.67005	1.12967	0.90108	4.1878	75.63	-0.2695	0.0102	0.2796	1304.2513	0.135307	-418.001344	-417.992223	-417.991279	-418.036426	32.212	
N	-0.2837541381	 1.1528582739	-0.4007018717	-0.43743
C	-0.5432858691	 0.0650696408	 0.1781903269	 0.132153
O	-0.5175269332	-1.0902902043	-0.5289797375	-0.178779
C	-0.8935451271	-2.2806544272	 0.146047619	-0.172151
C	-2.3690186495	-2.605418909	-0.0339480453	 0.179069
C	-2.8313602115	-3.1164170026	-1.3892450526	-0.276049
C	-2.7707434985	-4.0627710553	-0.2318191928	-0.298418
C	-3.2699250823	-1.7625065146	 0.710442886	 0.233142
N	-3.9692123623	-1.0760149195	 1.3258927447	-0.344598
H	-0.3301035966	 1.9207865415	 0.2656524189	 0.235069
H	-0.7904729155	-0.0763009723	 1.2384266493	 0.102037
H	-0.2969059471	-3.0821084115	-0.2980481751	 0.124504
H	-0.6435839622	-2.2175978192	 1.2126069625	 0.125382
H	-3.8032681683	-2.7898527033	-1.7375817286	 0.149421
H	-2.069753347	-3.1765675025	-2.1581338047	 0.145148
H	-1.9702443645	-4.7935409487	-0.194160007	 0.13375
H	-3.6995051272	-4.3852904562	 0.222358898	 0.14775
46.7688	58.2494	131.4539	156.8899	213.8882	247.7181	273.6437	384.8506	409.7829	565.1105	577.2322	654.5645	704.6931	784.956	818.9566	889.2789	926.2332	940.7808	965.2506	992.0296	1040.2309	1053.4595	1074.8448	1097.6126	1136.6036	1193.3564	1236.8762	1290.4214	1310.2739	1364.5088	1402.6937	1427.0376	1470.1373	1490.2698	1501.1653	1748.9198	2348.8072	3027.708	3039.5202	3097.609	3145.2288	3151.9153	3232.4066	3246.5972	3522.1869
N=COCC1(CC1)C#N	[NH][CH]OCC1(CC1)C#N	
InChI=1S/C6H8N2O/c7-3-6(1-2-6)4-9-5-8/h5,8H,1-2,4H2	InChI=1S/C6H8N2O/c7-3-6(1-2-6)4-9-5-8/h5,8H,1-2,4H2
