21
gdb 112962	2.87187	1.00992	0.9428	2.1137	74.84	-0.2562	0.0555	0.3117	1368.187	0.181326	-461.345457	-461.335652	-461.334707	-461.380605	36.306	
C	-0.0927229763	 1.5018747945	 0.3007493858	-0.405461
C	-0.0739355098	-0.0278242903	 0.2465939008	 0.11163
O	 0.3769772791	-0.58565218	 1.4728622426	-0.435891
C	-1.442718614	-0.5956027082	-0.1210010899	 0.150384
C	-1.6287270721	-2.1265141777	-0.1192098056	-0.341158
C	-2.727199301	-1.8603196145	 0.9267234094	 0.138965
C	-2.606072144	-2.4917529565	 2.2993203664	-0.07882
O	-3.4791515583	-1.8679772405	 3.2217932471	-0.421538
O	-2.3817404662	-0.4437999028	 0.9838069241	-0.347883
H	 0.878887663	 1.8759054896	 0.6324892586	 0.125846
H	-0.3162346694	 1.9302625811	-0.6819990965	 0.113361
H	-0.8575962416	 1.8501115148	 1.0034870964	 0.126097
H	 0.6446001415	-0.3620631679	-0.5129479216	 0.090791
H	-0.3265810597	-0.4076459489	 2.1099567013	 0.280212
H	-1.8284966858	-0.1014688993	-1.0225701167	 0.076002
H	-1.9494227082	-2.5773875181	-1.0582842346	 0.1098
H	-0.7646645987	-2.6612736278	 0.2799957848	 0.126738
H	-3.7527635835	-1.9752403328	 0.5533328164	 0.086895
H	-2.8898483489	-3.5493308307	 2.2518708615	 0.111032
H	-1.5561336909	-2.4395847432	 2.6297225717	 0.091695
H	-3.3114730351	-0.9203245408	 3.1570761479	 0.291305
56.6335	68.4362	125.7223	193.1231	221.7153	248.5126	257.8997	349.2164	404.5862	424.0804	440.2307	484.3869	504.7958	635.4248	686.8756	804.8522	878.7338	901.943	921.7229	958.1223	995.4751	1027.1492	1048.7086	1063.6536	1071.7026	1105.8276	1129.3039	1153.9505	1173.0003	1220.1919	1254.6359	1268.1898	1303.5192	1310.93	1334.982	1351.0879	1383.5924	1400.0246	1404.0022	1426.3858	1435.8239	1483.537	1491.3331	1497.8734	1503.0202	2978.4528	3015.0055	3028.4134	3035.0855	3035.4288	3069.9218	3082.6717	3103.8443	3124.5995	3143.8524	3777.7495	3792.9919
CC(O)C1CC(CO)O1	C[C@@H](O)[C@H]1C[C@@H](CO)O1	
InChI=1S/C6H12O3/c1-4(8)6-2-5(3-7)9-6/h4-8H,2-3H2,1H3	InChI=1S/C6H12O3/c1-4(8)6-2-5(3-7)9-6/h4-8H,2-3H2,1H3/t4-,5+,6-/m1/s1
