16
gdb 115442	3.65314	1.04472	0.92841	2.7929	64.7	-0.2759	0.0064	0.2823	1242.3321	0.12444	-475.018319	-475.009833	-475.008889	-475.052545	30.12	
O	 0.2303641434	 1.2601357288	 0.2060128519	-0.417183
C	-0.0035234353	-0.1077225989	-0.0356228544	-0.064165
C	-1.4940731757	-0.4302437454	-0.0606584092	 0.084567
C	-1.8136180657	-1.9363580295	-0.10922249	-0.152906
O	-2.0839065039	-2.2649591369	 1.2575599604	-0.22372
C	-2.6733113578	-1.1202405847	 1.7950247282	 0.055021
O	-2.0512905523	-0.0057937403	 1.2065951946	-0.273769
C	-4.1440709559	-1.0923078105	 1.5230331409	 0.274768
N	-5.2808851314	-1.0778512009	 1.3197726664	-0.317163
H	-0.2338591417	 1.4794126613	 1.022400636	 0.294973
H	 0.4364393529	-0.3390656915	-1.0120738641	 0.115711
H	 0.4830315439	-0.7504836828	 0.7166374214	 0.097532
H	-1.9903640362	 0.1289605587	-0.8597616799	 0.111499
H	-2.6867376049	-2.1494449481	-0.7371475545	 0.131685
H	-0.9718242836	-2.5507703683	-0.4349720024	 0.135898
H	-2.5087596958	-1.109107881	 2.8762808748	 0.147252
39.467	107.1671	122.9721	189.2347	235.7074	306.6405	370.1739	431.5116	465.5937	537.1286	583.6095	749.9893	802.1327	824.1513	912.1244	922.9913	978.8442	1008.9869	1035.6509	1051.6681	1099.7934	1139.0746	1148.6928	1220.206	1243.9403	1304.0911	1324.3502	1350.9777	1371.5953	1380.584	1404.5942	1436.5679	1497.7429	1512.7285	2356.7064	2974.0057	3037.334	3064.1957	3078.6208	3084.1922	3117.9085	3798.9888
OCC1COC(O1)C#N	OC[C@H]1CO[C@@H](O1)C#N	
InChI=1S/C5H7NO3/c6-1-5-8-3-4(2-7)9-5/h4-5,7H,2-3H2	InChI=1S/C5H7NO3/c6-1-5-8-3-4(2-7)9-5/h4-5,7H,2-3H2/t4-,5-/m0/s1
