17
gdb 23006	2.4436	1.2073	1.01656	1.1231	81.01	-0.2285	-0.0445	0.184	1237.7156	0.133099	-417.891476	-417.882017	-417.881072	-417.926209	34.576	
C	-0.6020408959	 1.3940005831	 0.138199432	-0.321233
N	-0.2046845979	-0.007555639	 0.1985353765	-0.083001
C	 1.1177923424	-0.3406437604	-0.30967411	-0.252424
C	 0.8478462477	-0.4167068098	 1.153612229	-0.074942
C	 1.4760249901	 0.5374124358	 2.1174790924	 0.163952
N	 2.3188266605	 1.4088593834	 1.6790186741	-0.16318
O	 2.778377212	 2.2540831448	 2.6769723263	-0.379444
C	 1.0828079001	 0.4283555006	 3.4839248187	 0.327504
C	 0.7245095956	 0.2856554078	 4.6242613673	-0.450992
H	 0.224809945	 2.1051051888	 0.2754746378	 0.119239
H	-1.0541051469	 1.5755382848	-0.84177413	 0.12395
H	-1.3595076582	 1.5870489121	 0.9043691166	 0.125804
H	 1.191766324	-1.2586468464	-0.8871641944	 0.114442
H	 1.758661816	 0.4722070759	-0.642721595	 0.128597
H	 0.6438376666	-1.3853174273	 1.6025228498	 0.102074
H	 3.4063990829	 2.8119147503	 2.2039543777	 0.311724
H	 0.414246256	 0.1749076956	 5.6342188012	 0.207931
34.6705	123.1904	141.4126	191.6442	226.9713	271.5627	299.4547	343.0933	403.1588	442.1878	480.9864	502.141	621.6295	639.1069	648.5978	714.8583	757.6555	798.3949	872.0915	967.3553	1030.0796	1071.8756	1091.9227	1127.6649	1135.4387	1171.1176	1209.6894	1211.6556	1325.9405	1393.9554	1415.9321	1449.0271	1490.2392	1503.1596	1506.5008	1663.6363	2220.9498	3002.1146	3077.6206	3102.2811	3105.6038	3140.1841	3190.426	3499.2894	3807.2261
CN1CC1C(=NO)C#C	CN1C[C@H]1C(=NO)C#C	
InChI=1S/C6H8N2O/c1-3-5(7-9)6-4-8(6)2/h1,6,9H,4H2,2H3	InChI=1S/C6H8N2O/c1-3-5(7-9)6-4-8(6)2/h1,6,9H,4H2,2H3/t6-,8?/m0/s1
