18
gdb 90205	3.04629	1.74471	1.54419	0.8016	76.02	-0.2087	0.0503	0.259	936.375	0.146958	-401.770905	-401.763694	-401.762749	-401.80205	29.72	
C	-0.5588672831	 1.3499639497	-0.0526559864	-0.37776
C	 0.0410720119	-0.0424620598	 0.0230377081	-0.048406
N	 1.2202454877	-0.2355723543	-0.9192031375	-0.406227
C	 2.1331739137	-0.3712981621	 0.2303323024	 0.210689
C	 2.8721828255	 0.7482718901	 0.9904602986	-0.298957
C	 2.2077417788	-0.0779430643	 2.1190270782	-0.153729
C	 2.4074519175	-1.4468100768	 1.3330105585	 0.043618
O	 1.0404014072	-1.8809240064	 1.4342028003	-0.34316
C	 0.9610369212	-0.4223369834	 1.222704109	 0.28093
H	 0.2024891381	 2.1230852085	 0.0767829019	 0.126686
H	-1.0242779393	 1.5020698133	-1.0315831618	 0.123993
H	-1.3241094377	 1.4785188776	 0.7198450952	 0.120707
H	-0.7347139916	-0.8070383381	-0.0866079785	 0.104098
H	 1.1508630635	-1.0487656105	-1.5215185482	 0.232963
H	 3.9657537848	 0.7490759422	 0.9624378985	 0.099121
H	 2.488732184	 1.7618773579	 0.8534012967	 0.108215
H	 2.2656363264	 0.0625735305	 3.200919193	 0.087925
H	 3.2030982814	-2.1893271942	 1.4560522718	 0.089295
141.2023	216.5944	231.8875	346.9329	388.0331	427.6137	471.6964	532.114	578.3506	621.9284	753.8929	778.5503	788.7692	843.58	863.8522	891.1956	908.3549	949.6409	963.323	984.6474	1015.9478	1041.9043	1080.6577	1090.9942	1118.4739	1138.6639	1143.9599	1149.3434	1204.0706	1234.0641	1261.3059	1268.3469	1298.0087	1330.1305	1365.6196	1410.9114	1482.6123	1492.4858	1517.0598	3039.469	3052.2873	3054.1888	3057.0307	3093.5215	3109.2464	3112.2117	3125.637	3537.0062
CC1NC23CC4C2OC134	C[C@H]1N[C@]23C[C@@H]4[C@H]2O[C@]134	
InChI=1S/C7H9NO/c1-3-7-4-2-6(7,8-3)5(4)9-7/h3-5,8H,2H2,1H3	InChI=1S/C7H9NO/c1-3-7-4-2-6(7,8-3)5(4)9-7/h3-5,8H,2H2,1H3/t3-,4-,5-,6-,7+/m1/s1
