20
gdb 19291	3.16522	1.81653	1.41373	1.0878	74.88	-0.2407	0.0815	0.3222	971.2043	0.176585	-348.966458	-348.958048	-348.957103	-348.999168	31.387	
C	-0.0915501697	 1.3522176797	 0.0065175057	-0.240168
O	 0.2566162665	-0.0084026863	 0.1335130142	-0.240033
C	 0.7067387677	-0.5984198474	-1.0626106205	 0.119791
C	 1.3752146333	-1.9502952584	-0.8712452896	-0.080057
C	 0.3910847573	-2.9587613765	-0.3472871555	-0.278992
C	 0.3522368455	-2.6071439576	-1.8064691985	-0.055616
C	-0.3554889051	-1.2632477797	-2.0351586159	-0.023359
C	-1.841066021	-1.1544604288	-1.7110350218	-0.405509
H	 0.7597952309	 1.9551369851	-0.3472166425	 0.103161
H	-0.9323230721	 1.5086113089	-0.6844884945	 0.107257
H	-0.3847345866	 1.7063763338	 0.9980719679	 0.125274
H	 1.3485773722	 0.1074982107	-1.6083675553	 0.06098
H	 2.4448671041	-2.1073304546	-0.8065787964	 0.082047
H	 0.8185149218	-3.9301118779	-0.1197603375	 0.108272
H	-0.3979572087	-2.652511613	 0.331647703	 0.120629
H	 0.5354440003	-3.3477808142	-2.5755696638	 0.0814
H	-0.1753930123	-0.9098983343	-3.0556462186	 0.06726
H	-2.044403476	-1.372730442	-0.659638463	 0.12569
H	-2.2217477586	-0.1487889858	-1.9188311101	 0.110231
H	-2.4188962794	-1.8581151317	-2.3205446272	 0.111744
103.7379	123.7606	160.7166	179.3973	225.8992	259.1347	333.5662	431.6701	527.4138	565.0273	682.0982	770.7372	801.8667	810.4328	914.2734	933.8171	968.9573	998.1164	1013.0936	1044.6251	1062.5326	1081.8389	1091.9205	1098.9482	1144.2755	1154.2391	1181.1722	1184.9961	1224.5755	1240.5075	1276.6591	1318.8975	1362.2786	1368.1875	1392.1264	1410.1183	1479.9403	1483.452	1489.5187	1494.2122	1502.2648	1512.1813	2975.1338	2996.7511	3027.0597	3033.4086	3050.02	3092.0284	3111.247	3117.7104	3129.3057	3177.6352	3187.3536	3211.0461
COC1C2CC2C1C	CO[C@H]1[C@H]2C[C@H]2[C@H]1C	
InChI=1S/C7H12O/c1-4-5-3-6(5)7(4)8-2/h4-7H,3H2,1-2H3	InChI=1S/C7H12O/c1-4-5-3-6(5)7(4)8-2/h4-7H,3H2,1-2H3/t4-,5+,6+,7-/m1/s1
