18
gdb 44138	4.57366	0.95759	0.86248	3.4464	78.91	-0.2383	-0.0083	0.2301	1342.7271	0.147204	-401.89991	-401.892008	-401.891064	-401.932821	30.25	
O	 0.0586957092	 0.0558539489	-0.0912288801	-0.31523
C	 0.0609603662	 1.2485297379	 0.0254382367	 0.409056
C	-1.0789486502	 2.3015151763	 0.1376089339	-0.372218
C	-0.0036964802	 3.381713201	-0.0532421805	-0.082981
C	 0.9814458954	 3.3006658882	 1.052963364	 0.036818
C	 1.1161864009	 2.3016114385	-0.1002390501	-0.191115
N	 2.0130647304	 4.2984883784	 1.0581078702	-0.083475
C	 1.9823791188	 5.2465978973	 2.1717666234	-0.225696
C	 3.0200407138	 4.1817532025	 2.1120390383	-0.223618
H	-1.7627676058	 2.2001687275	-0.7098451245	 0.135454
H	-1.658057511	 2.3303344634	 1.0658480414	 0.117923
H	-0.0776235328	 4.2520966955	-0.6898794782	 0.113743
H	 0.6540980875	 2.9355465257	 2.0336082149	 0.08255
H	 2.0402257867	 2.26369771	-0.6620790294	 0.115851
H	 2.2272346586	 6.2737184614	 1.9184380775	 0.123798
H	 1.1943710882	 5.1339967087	 2.9140984019	 0.116159
H	 2.9271306927	 3.3545023331	 2.8131686897	 0.119139
H	 4.0376466618	 4.4171694858	 1.815467761	 0.123842
69.4871	128.5823	159.5867	203.3259	347.8007	384.5591	419.8139	514.02	542.9275	644.5431	770.9217	793.9713	832.4868	857.1397	869.1444	894.8674	925.1062	980.9504	996.9766	1010.1888	1039.9476	1045.4157	1088.7438	1114.5669	1120.3322	1122.2895	1134.4036	1155.4982	1176.6655	1206.4818	1216.3108	1254.8287	1295.6308	1325.4375	1419.21	1456.9324	1491.3373	1519.1322	1881.1675	3018.5153	3053.764	3100.194	3104.9185	3111.2611	3184.7137	3199.0971	3209.1556	3222.6898
O=C1CC2C(C12)N1CC1	O=C1C[C@H]2[C@@H]([C@@H]12)N1CC1	
InChI=1S/C7H9NO/c9-5-3-4-6(5)7(4)8-1-2-8/h4,6-7H,1-3H2	InChI=1S/C7H9NO/c9-5-3-4-6(5)7(4)8-1-2-8/h4,6-7H,1-3H2/t4-,6-,7+/m1/s1
