16
gdb 17561	3.27967	2.14981	1.63614	0.3672	64.55	-0.2489	0.08	0.3289	824.8832	0.128789	-383.680637	-383.673328	-383.672383	-383.711937	27.781	
C	-0.0933116827	 1.53115277	 0.0085538335	-0.514849
C	 0.11756798	 0.0554882027	-0.0030559867	 0.327596
O	-0.7603409573	-0.8028599057	 0.7498660189	-0.285688
C	 0.6525756318	-0.9153592569	 0.9746587156	-0.044148
C	 1.2084501521	-1.834586156	-0.1268391305	-0.347305
C	 0.6299539422	-0.8231549282	-1.1446066561	 0.40725
C	 0.1683801213	-0.9541626801	-2.5227837178	-0.264631
O	 1.4107132253	-0.2978685374	-2.2009716091	-0.274365
H	 0.7665990153	 2.0377858882	-0.4390415215	 0.142093
H	-0.9834197232	 1.8012441534	-0.5706732512	 0.13259
H	-0.2309006065	 1.8919900154	 1.031002517	 0.135372
H	 1.010706201	-0.7666325623	 1.9867159902	 0.10759
H	 2.3005211448	-1.8497991451	-0.1757948652	 0.123447
H	 0.8132044388	-2.8526467432	-0.1364985391	 0.115998
H	 0.270746371	-1.9082685913	-3.0372059685	 0.120564
H	-0.618347704	-0.3028713535	-2.9004955595	 0.118485
123.4401	181.346	208.4363	225.1938	339.3063	410.1183	448.5399	500.9061	598.9227	653.8228	767.1456	841.0084	862.0461	875.313	903.137	952.3453	965.3562	1039.0593	1058.8327	1097.9087	1109.7992	1124.042	1153.6233	1165.6394	1213.6615	1260.2021	1262.6196	1398.8401	1431.8276	1453.3661	1474.2158	1486.9943	1493.997	1539.4402	3038.3864	3066.5817	3086.036	3103.0909	3127.2435	3128.0851	3173.4707	3188.3164
CC12OC1CC21CO1	C[C@]12O[C@H]1C[C@]12CO1	
InChI=1S/C6H8O2/c1-5-4(8-5)2-6(5)3-7-6/h4H,2-3H2,1H3	InChI=1S/C6H8O2/c1-5-4(8-5)2-6(5)3-7-6/h4H,2-3H2,1H3/t4-,5-,6+/m0/s1
