12
gdb 129504	3.00838	1.64906	1.06518	5.7454	57.31	-0.2671	-0.0268	0.2403	1004.616	0.077944	-506.010745	-506.002991	-506.002047	-506.043901	27.137	
N	-0.1319408093	 1.3584503164	 0.0101636325	-0.572468
C	 0.0918127356	 0.0225870494	 0.0016092842	 0.511847
O	 1.1611724448	-0.529090363	-0.010070014	-0.341763
N	-1.1321241467	-0.72326131	 0.0087943978	-0.194235
N	-2.3691585877	-0.0895384829	 0.0211793637	-0.246492
C	-3.2055347768	-1.0593871304	 0.023925867	 0.116157
O	-2.6642561225	-2.2902353075	 0.0147465245	-0.206604
C	-1.2625240435	-2.1078510871	 0.0045914973	 0.521162
O	-0.4804242971	-2.9993585918	-0.0054208941	-0.333159
H	 0.6727686361	 1.9592686363	 0.0029012025	 0.278082
H	-1.0633046933	 1.7362413317	 0.0166864346	 0.285571
H	-4.2802643095	-0.9681736411	 0.032717674	 0.181903
52.4993	120.0582	150.3327	209.2783	262.4672	388.135	456.547	565.5959	566.5544	635.9727	672.9656	743.89	761.8877	763.6617	872.5372	909.9061	959.7241	1081.1053	1150.1446	1223.6079	1252.1886	1325.855	1377.359	1594.5627	1657.1267	1846.2836	1951.9655	3279.9125	3620.2333	3761.2223
NC(=O)N1N=COC1=O	NC(=O)n1ncoc1=O	
InChI=1S/C3H3N3O3/c4-2(7)6-3(8)9-1-5-6/h1H,(H2,4,7)	InChI=1S/C3H3N3O3/c4-2(7)6-3(8)9-1-5-6/h1H,(H2,4,7)
