17
gdb 127616	3.34043	1.62422	1.10798	2.5511	81.65	-0.2012	0.0002	0.2014	1063.1511	0.138743	-380.896302	-380.888801	-380.887857	-380.929181	28.251	
C	-0.0173912151	 1.4158222054	-0.0071253292	-0.335634
N	-0.0067781908	-0.0294648105	 0.0388535954	-0.090036
N	-0.0332158695	-0.7432276538	-1.1213208549	-0.271264
C	-0.0156735928	-2.0288258891	-0.7560583572	-0.169446
C	 0.0219436083	-2.1507621116	 0.6465723964	 0.20208
C	 0.0262294819	-0.8467554231	 1.1085837067	 0.364006
C	 0.0652747932	-0.7925368144	 2.6050790535	-0.420106
C	 0.0828976129	-2.2845134699	 2.9302862908	-0.090376
C	 0.0579143267	-3.0347865501	 1.8099747562	-0.199306
H	 0.8812022545	 1.8284455518	 0.4634620981	 0.136839
H	-0.0428407034	 1.7077937933	-1.0562376993	 0.164221
H	-0.8992878049	 1.8169608532	 0.5033586927	 0.136862
H	-0.0311086988	-2.7906214289	-1.5214441157	 0.10935
H	 0.9526480818	-0.2792467503	 2.9990420092	 0.13211
H	-0.8063139122	-0.2899328673	 3.0453323048	 0.132115
H	 0.1119397075	-2.6529459852	 3.9472079679	 0.097535
H	 0.0636188106	-4.1166185994	 1.7771771745	 0.101051
29.2006	155.1413	213.8892	256.7471	292.7459	441.4938	511.2246	619.2175	633.7047	659.5844	677.8816	740.9289	809.7662	863.159	867.3163	928.6622	932.9208	948.69	1005.7959	1073.5174	1132.7	1136.1359	1151.0417	1183.9071	1222.0359	1265.6626	1308.0853	1328.5787	1386.9075	1437.2936	1442.9277	1485.4901	1490.6238	1501.2553	1535.5156	1566.963	1612.4864	3022.9674	3035.0244	3050.014	3091.5512	3165.976	3209.5875	3232.1616	3244.6173
CN1N=CC2=C1CC=C2	Cn1ncc2c1CC=C2	
InChI=1S/C7H8N2/c1-9-7-4-2-3-6(7)5-8-9/h2-3,5H,4H2,1H3	InChI=1S/C7H8N2/c1-9-7-4-2-3-6(7)5-8-9/h2-3,5H,4H2,1H3
