14
gdb 132776	2.46129	1.84329	1.05753	3.6629	68.22	-0.2186	-0.0083	0.2102	1027.8981	0.103576	-474.219489	-474.212052	-474.211108	-474.251167	28.692	
N	-0.0547891604	 1.3532856438	-0.2739555234	-0.573143
C	-0.0242868516	-0.0131263957	-0.114344262	 0.348541
C	-1.2320982317	-0.7158990198	 0.0635900568	 0.067169
N	-2.4638168864	-0.040876811	 0.1457176696	-0.62104
C	-1.0758377049	-2.0845134508	 0.2046518795	 0.299561
F	-2.1768752037	-2.815320563	 0.4061117392	-0.080058
N	 0.0709158234	-2.7295439459	 0.1640363517	-0.322249
C	 1.1399989855	-1.9599097183	-0.0417897955	 0.05072
N	 1.1572576206	-0.6369879896	-0.1781180343	-0.324728
H	 0.8523832143	 1.7896336965	-0.192612964	 0.262068
H	-0.7951168662	 1.8270594824	 0.2254814304	 0.261778
H	-3.2355753161	-0.6886354346	 0.2447216392	 0.25739
H	-2.6274523844	 0.5565945272	-0.6585771469	 0.253958
H	 2.0992929616	-2.4668206614	-0.0949802901	 0.120033
141.3689	229.6674	256.0233	278.0029	321.4007	331.649	508.4984	524.6276	551.3616	556.8581	573.0467	615.3661	694.9322	733.1632	788.6907	835.8114	892.6692	971.5419	1004.7759	1080.0921	1221.9618	1271.463	1333.6913	1336.3266	1360.7309	1491.072	1499.3531	1609.0661	1623.3205	1642.7003	1667.8981	3175.1559	3507.2624	3553.6394	3611.6896	3669.6029
NC1=C(N)C(F)=NC=N1	Nc1c(N)c(F)ncn1	
InChI=1S/C4H5FN4/c5-3-2(6)4(7)9-1-8-3/h1H,6H2,(H2,7,8,9)	InChI=1S/C4H5FN4/c5-3-2(6)4(7)9-1-8-3/h1H,6H2,(H2,7,8,9)
