18
gdb 44477	3.76666	1.60958	1.4944	3.0932	75.74	-0.2509	0.0311	0.282	929.0558	0.152269	-401.959484	-401.953346	-401.952401	-401.989757	26.331	
N	-0.0609121306	 1.248721511	-0.1571719545	-0.561909
C	-0.01300119	 0.0035689369	 0.0293132561	 0.425214
O	 1.1424347206	-0.7421575739	 0.174755501	-0.260021
C	 0.7311765261	-2.0568515824	 0.5433774041	 0.125463
C	-0.0108172828	-2.9356044114	-0.5336090554	-0.071662
C	-0.9080665951	-3.4127137056	 0.6422700802	-0.251848
C	-0.6764196443	-1.9815210543	 1.1753516494	-0.059357
C	-1.15418523	-0.9820990919	 0.0760410942	-0.117949
C	-0.9267767093	-1.8884690936	-1.1904035673	-0.2233
H	 0.8808599019	 1.6446029886	-0.1810885644	 0.221643
H	 1.5284661575	-2.5489661223	 1.0969768503	 0.094333
H	 0.519349603	-3.6331988	-1.180168517	 0.071368
H	-1.9261831617	-3.7274110884	 0.4021980348	 0.103076
H	-0.4261261892	-4.1606197512	 1.2771350285	 0.105232
H	-0.8333858431	-1.6935080853	 2.2141266003	 0.080491
H	-2.1337306682	-0.5226363167	 0.174486794	 0.094551
H	-0.4647138105	-1.3390277879	-2.0132787651	 0.11951
H	-1.8579673344	-2.3324814519	-1.5515876191	 0.105165
153.34	311.4298	371.613	442.6858	470.1056	539.0022	681.5313	726.5895	758.7021	810.0283	826.0992	843.7401	863.3304	886.0036	906.2726	915.0507	955.0734	962.1336	983.2995	1021.6553	1025.7565	1047.693	1076.5953	1086.4584	1108.6453	1169.2325	1192.0224	1198.6456	1226.1924	1247.1424	1251.8094	1271.79	1303.8867	1312.36	1326.6641	1374.6311	1494.0928	1514.2852	1792.1783	3062.6366	3065.8619	3114.0842	3119.6231	3124.9553	3128.4767	3145.851	3161.7876	3467.5264
N=C1OC2C3CC2C1C3	[NH][C]1O[C@@H]2[C@H]3C[C@@H]2[C@@H]1C3	
InChI=1S/C7H9NO/c8-7-5-2-3-1-4(5)6(3)9-7/h3-6,8H,1-2H2	InChI=1S/C7H9NO/c8-7-5-2-3-1-4(5)6(3)9-7/h3-6,8H,1-2H2/t3-,4+,5-,6+/m0/s1
