19
gdb 39102	3.46295	1.61682	1.40782	0.2952	73.66	-0.2426	0.0767	0.3193	958.9017	0.162736	-422.989203	-422.98255	-422.981605	-423.020047	27.651	
C	-0.0896224143	 1.579116414	 0.1927291785	-0.275998
C	 1.4208347632	 1.3740895829	 0.0038903299	 0.072354
O	 1.7834895576	 0.6057270408	 1.1778790864	-0.286873
C	 0.721085327	-0.3904775994	 1.2489926339	-0.164154
C	-0.0624241358	 0.017457836	 0.0126993366	 0.28178
C	-1.1376105916	-0.666705313	-0.7849077897	-0.196244
O	-1.0169768673	-0.0816150679	-2.0868301629	-0.273414
C	 0.3245828008	 0.402564826	-2.3163341491	-0.119001
C	 1.1061214776	 0.244555671	-1.0082765635	-0.043596
H	-0.4152323139	 1.9758107859	 1.1566758562	 0.100084
H	-0.5924493886	 2.0872566735	-0.6286610202	 0.121883
H	 2.1546602024	 2.166087847	-0.1384062301	 0.079769
H	 1.1475479381	-1.3982732062	 1.1896733774	 0.10434
H	 0.1773602919	-0.2832811386	 2.1943677932	 0.103128
H	-0.9756633488	-1.7564565886	-0.8212771561	 0.092246
H	-2.1584887906	-0.4792935225	-0.4374065006	 0.110928
H	 0.7895953403	-0.1897367047	-3.1133021644	 0.103084
H	 0.2483830547	 1.436746926	-2.6712496925	 0.106933
H	 1.8735629073	-0.531301442	-1.0628230329	 0.08275
129.5417	258.8407	305.9426	354.4532	403.647	464.3991	526.5427	653.9842	699.4396	757.0457	823.2215	832.1927	872.7885	892.9788	903.0566	953.2136	957.1081	988.7429	1015.1687	1042.5371	1048.007	1083.4538	1099.8105	1118.7409	1144.4627	1186.8724	1189.4422	1221.4573	1230.7114	1239.9085	1253.7069	1273.3484	1286.7697	1337.0976	1365.3969	1382.4593	1396.7006	1494.0488	1514.561	1526.9925	1533.2287	2971.0916	3024.1037	3026.3814	3053.3764	3067.875	3073.5965	3080.8543	3083.1105	3133.0929	3157.3684
C1C2OCC11COCC21	C1[C@H]2OC[C@]31COC[C@@H]23	
InChI=1S/C7H10O2/c1-6-5-2-8-3-7(1,5)4-9-6/h5-6H,1-4H2	InChI=1S/C7H10O2/c1-6-5-2-8-3-7(1,5)4-9-6/h5-6H,1-4H2/t5-,6+,7-/m0/s1
