15
gdb 129587	4.03706	1.53785	1.29731	2.9866	70.01	-0.2462	-0.0158	0.2304	952.9089	0.115828	-412.930414	-412.923722	-412.922778	-412.961301	26.433	
N	-0.1712878699	 1.4727746817	-0.1540750293	-0.600948
C	-0.0487494245	 0.0794428968	 0.0253164829	 0.210918
C	-0.2481933844	-0.8822672323	-1.1442869358	-0.294296
C	-1.1702292195	-0.9722374252	 0.0435333413	-0.044958
N	-0.468953305	-1.6141931503	 1.1702360974	 0.05021
N	-0.071256667	-2.850029276	 1.5842482234	-0.259315
C	 1.1920187661	-2.5946050531	 1.9168524142	 0.029599
N	 1.6785173858	-1.3386562773	 1.6099702951	-0.340061
C	 0.5896052876	-0.7715635445	 1.135060368	 0.209962
H	-0.3479763614	 1.9506379204	 0.7229408313	 0.245737
H	 0.6663090929	 1.8705041274	-0.5659253194	 0.247547
H	-0.6747431149	-0.4238739791	-2.0322731429	 0.137434
H	 0.4664589526	-1.6772544896	-1.3287679897	 0.146417
H	-2.24331256	-0.8451250211	 0.0328158819	 0.133123
H	 1.7979387417	-3.3366262977	 2.4181987815	 0.128631
155.4842	201.7031	275.2422	308.7239	398.9221	492.0291	524.7072	615.1206	668.9477	730.6837	750.4842	804.4309	862.6548	873.7584	907.7836	946.8769	980.9166	997.3785	1046.7385	1049.6658	1095.8758	1150.2171	1185.4703	1219.9963	1251.7917	1267.7881	1288.0949	1363.2847	1390.9365	1422.5307	1484.5512	1549.6732	1664.3449	3127.5145	3220.0378	3227.7252	3246.0411	3508.8754	3585.8237
NC12CC1N1N=CN=C21	N[C@]12C[C@H]1N1N=C[N][C]21	
InChI=1S/C5H6N4/c6-5-1-3(5)9-4(5)7-2-8-9/h2-3H,1,6H2	InChI=1S/C5H6N4/c6-5-1-3(5)9-4(5)7-2-8-9/h2-3H,1,6H2/t3-,5-/m1/s1
