21
gdb 112567	2.80435	1.26463	1.14539	1.8512	80.34	-0.2381	0.0141	0.2523	1199.6424	0.180827	-424.238115	-424.228586	-424.227642	-424.272351	36.208	
C	 0.3644511868	 1.4211698054	-0.0613463267	-0.419427
C	 0.0398285607	-0.072407276	 0.0619325927	 0.328248
C	-1.4767940891	-0.3127643878	 0.0214795651	-0.405346
O	 0.6510567482	-0.7619658791	-1.0549797016	-0.326585
C	 1.4744292635	-1.845479311	-0.6053711694	 0.03846
C	 2.8346713999	-1.7306615102	-1.3080742426	-0.075328
O	 3.4160629596	-0.459245265	-1.1261379214	-0.420666
C	 1.4955654226	-1.698009236	 0.8921565924	-0.085127
C	 0.6911327156	-0.7130239181	 1.2657071552	-0.117682
H	 1.4448194558	 1.5807532718	-0.0030161765	 0.122933
H	-0.0011876181	 1.8089666494	-1.0171473171	 0.122326
H	-0.1095040109	 1.9920730959	 0.743529806	 0.114617
H	-1.8991559401	 0.0899919758	-0.9041125336	 0.121498
H	-1.6952844498	-1.3829743413	 0.066341329	 0.119725
H	-1.9724976708	 0.1761412346	 0.8667166761	 0.111312
H	 1.0218415383	-2.8088700241	-0.8996015362	 0.076769
H	 3.5275800693	-2.4721811099	-0.895139751	 0.105087
H	 2.6959557588	-1.9617302093	-2.3763159051	 0.091664
H	 2.7320970884	 0.1689381968	-1.3887628953	 0.286708
H	 2.0860832431	-2.3379949351	 1.5357557373	 0.107665
H	 0.489708188	-0.3819445966	 2.2769972228	 0.103148
54.0496	107.6599	175.374	210.4653	232.3953	252.5513	305.2052	330.7232	382.3302	400.3476	468.2572	519.7897	601.2467	676.556	739.9334	799.4875	843.4333	862.8054	872.6248	922.1939	930.845	956.077	975.0789	1009.6809	1041.4415	1075.4718	1090.4433	1132.247	1190.4342	1203.0007	1216.9223	1251.158	1326.8556	1339.0443	1358.3174	1389.323	1405.0743	1410.3432	1425.503	1476.9178	1481.2272	1494.0504	1498.5633	1506.621	1695.7273	2942.5816	2981.3653	3033.7596	3038.7783	3070.6376	3105.4537	3112.4114	3116.9338	3120.316	3201.9439	3226.7676	3785.141
CC1(C)OC(CO)C=C1	CC1(C)O[C@@H](CO)C=C1	
InChI=1S/C7H12O2/c1-7(2)4-3-6(5-8)9-7/h3-4,6,8H,5H2,1-2H3	InChI=1S/C7H12O2/c1-7(2)4-3-6(5-8)9-7/h3-4,6,8H,5H2,1-2H3/t6-/m1/s1
