18
gdb 17412	4.16506	1.55761	1.50943	1.4954	71.84	-0.231	0.0733	0.3043	919.3948	0.153899	-347.748906	-347.74159	-347.740646	-347.780161	29.016	
O	 0.005931814	 1.3625216904	 0.150494883	-0.419772
C	-0.012612049	-0.035484138	 0.0615897828	 0.033022
C	-0.4917430949	-0.7570477516	 1.2898000385	-0.383283
C	-1.3349339623	-0.7513895866	 0.0438894628	 0.354243
C	-2.7378735763	-0.125266161	-0.0902286044	-0.310363
C	-3.1510026555	-1.3400336121	-0.9393737591	-0.034142
C	-2.2464301589	-1.4931243691	-2.1298400508	-0.276679
C	-1.7543781678	-1.9523808212	-0.7828077837	-0.132554
H	-0.2272091805	 1.7167543282	-0.7140882445	 0.284963
H	 0.8166581925	-0.475475518	-0.4945564583	 0.07985
H	 0.0117644892	-1.6749900733	 1.5764989546	 0.110758
H	-0.8171590748	-0.1348536859	 2.1174711634	 0.121224
H	-3.2632544608	-0.0708671633	 0.8666114726	 0.108319
H	-2.8028649071	 0.8530925983	-0.5801923497	 0.086869
H	-4.1129164453	-1.8345944544	-0.8889351459	 0.086763
H	-2.5189365019	-2.2843634264	-2.8214014777	 0.10956
H	-1.8055889476	-0.6192869315	-2.6057085162	 0.096281
H	-1.477760183	-2.9812506344	-0.5846876673	 0.084941
120.0661	165.818	219.7046	294.8147	365.7581	423.8093	463.0506	479.0249	577.2472	746.5219	784.9506	821.3934	834.2039	898.5077	902.5551	926.728	959.2485	969.7298	1007.5105	1027.043	1045.6363	1059.3662	1081.2899	1099.577	1113.273	1145.352	1174.1314	1197.4181	1211.079	1248.2641	1289.8678	1296.4489	1324.7728	1369.8978	1426.4492	1481.4365	1487.415	1497.5071	3034.6147	3085.472	3094.895	3100.9831	3123.8777	3176.0305	3185.2095	3198.8485	3213.0327	3804.1704
OC1CC11CC2CC12	O[C@H]1C[C@]21C[C@H]1C[C@@H]21	
InChI=1S/C7H10O/c8-6-3-7(6)2-4-1-5(4)7/h4-6,8H,1-3H2	InChI=1S/C7H10O/c8-6-3-7(6)2-4-1-5(4)7/h4-6,8H,1-3H2/t4-,5-,6+,7-/m1/s1
