16
gdb 29036	2.50598	1.78609	1.24766	2.0952	82.75	-0.2389	-0.0699	0.169	1020.8957	0.125482	-396.952044	-396.94421	-396.943266	-396.984372	29.348	
C	-0.6117857691	 1.4256818408	 0.0318756391	-0.471006
C	-0.048985574	 0.0396632447	-0.0174505949	 0.311503
N	 0.1694064198	-0.5399790057	-1.1415260235	-0.243204
C	 0.5279652622	-1.8522766601	-1.2979161095	-0.000926
C	 0.1665431855	-2.9040680861	-0.5129268399	-0.115579
C	-0.523286248	-2.7708133939	 0.7421208515	-0.01314
N	-0.5147721763	-1.7601856411	 1.546531753	-0.242922
C	 0.2616910829	-0.6327226317	 1.2906957165	 0.249866
N	 1.1036130754	-0.1048024139	 2.0840731928	-0.50069
H	 0.069259364	 2.0730978673	 0.5933823687	 0.167901
H	-0.763297535	 1.8134477331	-0.9759017415	 0.140952
H	-1.5649794311	 1.4262920669	 0.5736368961	 0.147547
H	 1.0401448974	-2.0517951572	-2.2364604705	 0.12071
H	 0.3181904815	-3.908450742	-0.8965862148	 0.106517
H	-1.1222243879	-3.625257725	 1.0652302218	 0.120036
H	 1.1961469327	-0.6821334661	 2.9247838249	 0.222435
95.5995	155.9748	169.8218	272.4986	288.2967	325.4823	411.484	463.033	522.0724	621.5768	646.8723	735.7771	753.9264	818.6474	892.5598	931.6057	955.2773	971.2165	988.6478	991.9121	1044.7403	1055.5545	1137.6442	1212.5153	1288.1471	1343.3645	1393.2304	1418.7474	1460.1916	1467.5844	1469.9013	1550.0407	1654.7272	1685.0867	1719.3227	3039.2026	3099.5281	3103.7196	3154.1515	3154.4837	3180.7471	3435.1411
CC1=NC=CC=NC1=N	CC1=NC=CC=N[C]1[NH]	
InChI=1S/C6H7N3/c1-5-6(7)9-4-2-3-8-5/h2-4,7H,1H3	InChI=1S/C6H7N3/c1-5-6(7)9-4-2-3-8-5/h2-4,7H,1H3
