23
gdb 119782	4.22037	0.86818	0.84051	0.2729	92.27	-0.2117	0.0242	0.2358	1527.1961	0.207151	-351.133725	-351.125006	-351.124061	-351.167655	34.022	
C	 0.0879297156	 1.5338441656	 0.0801787702	-0.378572
C	 0.1415816528	 0.0044090283	 0.0643445178	-0.157609
C	 0.5583106377	-0.564948278	-1.3068582857	-0.338634
C	 0.6507902513	-2.0535221417	-1.3307404013	 0.375454
C	-0.061718383	-2.9803468896	-1.9820780444	-0.212457
C	 0.5705715204	-4.3079780023	-1.5393158622	-0.057153
C	 0.7300257597	-4.04381591	-0.0024387886	-0.205305
C	 1.6660708944	-2.9071068167	-0.5387440196	-0.108385
C	 2.0907972754	-3.9380294036	-1.6403634377	-0.206348
H	 1.065716449	 1.9669874615	-0.1587685034	 0.113223
H	-0.6289768222	 1.9128273638	-0.6568630108	 0.114034
H	-0.2129984326	 1.9122801913	 1.0620787189	 0.111154
H	 0.8429487341	-0.347534186	 0.8311860395	 0.099612
H	-0.8381429813	-0.4076228642	 0.3348000299	 0.100098
H	-0.1566589465	-0.2315755665	-2.0695007449	 0.098342
H	 1.5303758027	-0.1277608159	-1.5811470888	 0.098257
H	-0.8865162372	-2.8571491577	-2.6706172683	 0.090285
H	 0.1673135882	-5.240056129	-1.9344461884	 0.056021
H	-0.1625362895	-3.7429395041	 0.5514201583	 0.089048
H	 1.268537776	-4.8384609886	 0.5248829637	 0.087959
H	 2.3922614683	-2.3971619499	 0.0952310136	 0.054168
H	 2.7587280543	-4.7219478566	-1.267647498	 0.087964
H	 2.4495018326	-3.5398765903	-2.59272763	 0.088843
68.9767	86.7429	98.0678	240.7401	258.4936	297.0741	351.3337	494.059	519.3724	598.2983	675.0213	744.7868	785.2496	794.0502	831.6357	840.3256	858.7178	879.9715	889.5675	906.0419	934.2202	1003.4439	1012.4002	1039.276	1065.3104	1067.7071	1084.358	1105.1703	1111.3612	1116.8675	1195.1877	1222.2019	1225.5232	1235.3898	1244.2517	1261.3863	1273.6468	1308.2375	1317.2637	1337.9568	1380.391	1411.652	1474.4395	1478.6557	1491.8697	1498.7055	1509.2289	1515.6089	1685.5934	2990.3629	3025.8941	3028.8348	3036.9947	3041.595	3046.8953	3063.5539	3096.4238	3101.6058	3108.0564	3109.0658	3114.2279	3118.0125	3221.3414
CCCC1=CC2CC1C2	CCCC1=C[C@@H]2C[C@H]1C2	
InChI=1S/C9H14/c1-2-3-8-4-7-5-9(8)6-7/h4,7,9H,2-3,5-6H2,1H3	InChI=1S/C9H14/c1-2-3-8-4-7-5-9(8)6-7/h4,7,9H,2-3,5-6H2,1H3/t7-,9+
