15
gdb 33479	2.21189	1.74239	1.18337	1.6772	76.96	-0.2523	0.0229	0.2752	1046.5783	0.109381	-383.369066	-383.360782	-383.359838	-383.401727	31.763	
C	 0.0679404315	-1.2240045617	-0.0420191852	-0.447968
C	 0.0222063204	-0.023910711	-0.0212337335	 0.293663
C	-0.0212116237	 1.4306028911	 0.0188594516	-0.049948
C	-0.2515506705	 2.1020176738	 1.4528426892	-0.306772
C	 1.1158934359	 2.7730707264	 1.3116450994	 0.050708
O	 2.0861333749	 1.7268784786	 1.1567319143	-0.236826
C	 1.3725447686	 2.150638166	 0.0088485471	-0.014924
C	-0.9119050838	 1.9849510221	-0.9926827541	 0.249117
C	-1.6193528223	 2.4782659773	-1.829369822	-0.428712
H	 0.1096759405	-2.2848350813	-0.0655702212	 0.198191
H	-1.0959118356	 2.7912947994	 1.4330286389	 0.131669
H	-0.34388302	 1.3988986965	 2.2816198268	 0.129436
H	 1.4605813624	 3.7137115458	 1.7226493307	 0.113938
H	 1.9248954044	 2.4674400286	-0.8674576543	 0.118879
H	-2.2538883726	 2.8958669285	-2.5716022177	 0.19955
119.9541	123.2839	163.2758	172.3862	303.6832	412.0412	466.6785	481.4527	542.6291	567.6069	591.6181	631.4373	634.12	637.0222	652.6029	786.8272	839.3038	862.5795	899.8653	938.0115	979.1693	1009.1379	1045.8276	1092.6158	1120.9897	1218.6464	1233.3117	1240.7435	1264.1291	1388.0919	1466.0036	2237.2621	2241.566	3088.1732	3156.8386	3192.0545	3207.3215	3501.796	3502.7247
C#CC1(CC2OC12)C#C	C#CC1(C[C@H]2O[C@@H]12)C#C	
InChI=1S/C8H6O/c1-3-8(4-2)5-6-7(8)9-6/h1-2,6-7H,5H2	InChI=1S/C8H6O/c1-3-8(4-2)5-6-7(8)9-6/h1-2,6-7H,5H2/t6-,7-/m1/s1
