20
gdb 8543	3.79459	2.15854	1.78296	0.1776	77.9	-0.2541	0.0902	0.3443	833.4919	0.178897	-311.8377	-311.830941	-311.829997	-311.867967	28.261	
C	 0.0618989115	 1.5364526374	 0.0190124042	-0.497879
C	-0.0195377707	 0.0270546994	 0.0013062233	 0.372361
C	 0.4558027143	-0.7161872652	-1.2787647913	-0.272948
C	-0.6957665197	-1.7416388474	-1.1346830313	-0.026712
C	-0.4329169549	-2.8049928594	-0.0397504662	-0.223396
C	-0.761244979	-1.7638800398	 1.0588731854	-0.026711
C	 0.3790567351	-0.7422514166	 1.2921303927	-0.272952
C	-1.3547724662	-0.816505901	-0.0471062909	-0.088571
H	 1.1065573131	 1.8719013257	 0.0534064979	 0.113584
H	-0.3951198493	 1.9735627366	-0.8762711606	 0.109707
H	-0.4476646543	 1.9556454199	 0.8942755191	 0.109704
H	 0.306902229	-0.0862667799	-2.1624198618	 0.091343
H	 1.4827388646	-1.0990276468	-1.2956773906	 0.084457
H	-1.1906721926	-2.0703424403	-2.0492338371	 0.059404
H	-1.1971056686	-3.5880911795	-0.0705007097	 0.095121
H	 0.5534242754	-3.2821712732	-0.0151469722	 0.084885
H	-1.3096181887	-2.1107448419	 1.9354303366	 0.059404
H	 1.403387517	-1.1259748577	 1.3625111888	 0.084457
H	 0.1773285523	-0.1302732047	 2.1779103268	 0.091343
H	-2.3638959184	-0.4097124556	-0.0731021031	 0.053398
211.7687	223.7609	253.0296	339.2475	374.3403	415.0042	547.6143	619.9558	708.1406	784.0669	824.4369	843.8814	844.2489	879.4205	917.043	932.4143	941.4983	947.1901	981.5	1025.6509	1037.0766	1058.8892	1104.6684	1124.596	1138.5318	1157.1422	1189.5098	1202.9457	1235.685	1238.2388	1249.4761	1250.4372	1290.0162	1312.5798	1312.6133	1350.9439	1411.1462	1476.6545	1478.1707	1490.9042	1491.3208	1497.6982	3012.4625	3024.8281	3028.3257	3032.2404	3074.4053	3074.4995	3078.5003	3080.8174	3085.7168	3093.3793	3096.7164	3131.2463
CC12CC3CC(C1)C23	C[C@@]12C[C@H]3C[C@@H](C1)[C@@H]23	
InChI=1S/C8H12/c1-8-3-5-2-6(4-8)7(5)8/h5-7H,2-4H2,1H3	InChI=1S/C8H12/c1-8-3-5-2-6(4-8)7(5)8/h5-7H,2-4H2,1H3/t5-,6+,7+,8-
