19
gdb 36855	4.41318	0.92916	0.85309	2.3821	75.21	-0.2516	0.0731	0.3247	1375.4271	0.158363	-422.964427	-422.956072	-422.955128	-422.998467	31.178	
C	-0.0683041638	 1.6400578248	-0.3475611887	-0.363982
C	-0.0986122401	 0.1639511203	-0.6863925568	 0.102276
C	-0.5358578624	-0.8512370592	 0.2804172609	-0.172812
O	-1.3888271214	-0.4373384879	-0.7888334327	-0.237834
C	 1.2852868014	 2.0825050851	 0.1176968722	 0.432145
C	 1.9928403397	 1.8028532312	 1.4595987847	-0.287864
C	 2.7841211977	 3.1448424436	 1.2695024661	-0.236162
C	 2.0430299216	 3.3353481317	-0.0603279228	-0.047681
O	 2.3290159865	 2.1852409733	-0.8679358343	-0.292433
H	-0.343671039	 2.2188774921	-1.2366212428	 0.120212
H	-0.8183396177	 1.8435224595	 0.4253925025	 0.110079
H	 0.601627072	-0.142019267	-1.4642979625	 0.110408
H	-0.1566871801	-1.8696286847	 0.2102778067	 0.117467
H	-0.8535842419	-0.54248402	 1.275952754	 0.110773
H	 1.3184883522	 1.8338645981	 2.3191316257	 0.104829
H	 2.5801442653	 0.8824029153	 1.4889417813	 0.109448
H	 2.5243031743	 3.8940870406	 2.0209204684	 0.106648
H	 3.8707010553	 3.0716987373	 1.1853801118	 0.113203
H	 1.7888275204	 4.2514029261	-0.5825473335	 0.10128
54.1558	63.5384	117.4601	241.0665	284.7477	344.987	379.5591	433.9246	493.5681	712.7546	730.1313	772.1965	819.4605	860.9731	869.0334	899.4266	920.2493	930.6023	957.9296	979.0718	1022.8491	1037.4202	1077.5938	1116.5941	1152.3705	1156.0248	1175.3899	1181.578	1211.5616	1216.6259	1240.15	1259.5493	1287.6795	1301.2424	1329.0344	1439.4727	1450.7174	1463.8926	1470.0213	1493.0798	1528.8146	3036.3208	3063.0965	3071.337	3079.5654	3081.4994	3112.5634	3114.9657	3131.4601	3167.5175	3178.4672
C(C1CO1)C12CCC1O2	C([C@H]1CO1)[C@]12CC[C@H]1O2	
InChI=1S/C7H10O2/c1-2-7(6(1)9-7)3-5-4-8-5/h5-6H,1-4H2	InChI=1S/C7H10O2/c1-2-7(6(1)9-7)3-5-4-8-5/h5-6H,1-4H2/t5-,6+,7+/m0/s1
