23
gdb 106625	2.25716	1.60832	1.17973	1.486	84.83	-0.2398	0.0846	0.3244	1183.2048	0.206415	-388.288495	-388.279551	-388.278606	-388.321731	35.264	
C	 0.1915951783	 1.5409889333	 0.1644136696	-0.384235
C	-0.0522735155	 0.0430403789	-0.0609944547	-0.296709
C	 0.6357039661	-0.4982808828	-1.2895704281	 0.43647
C	 0.2534818781	 0.0332657765	-2.695184672	-0.263469
C	 1.3945991047	-0.6605694244	-3.5045446462	-0.226087
C	 2.0599850172	-1.3759053859	-2.3137242513	 0.073854
O	 2.0988470291	-0.319979961	-1.3053459756	-0.341462
C	 0.8732101332	-2.0189771465	-1.5565708899	-0.023731
C	 1.2494211718	-2.8637428744	-0.3495680001	-0.42772
H	 1.263803	 1.75165806	 0.2048134797	 0.139331
H	-0.2403489112	 2.1476373453	-0.637335096	 0.116553
H	-0.2578382276	 1.8681883588	 1.1065063541	 0.110061
H	 0.296469122	-0.5168770014	 0.8137808455	 0.105071
H	-1.1279282467	-0.1573126529	-0.152536886	 0.097367
H	-0.749962299	-0.2767251442	-3.0007834059	 0.094611
H	 0.3095954993	 1.1222474344	-2.7429446919	 0.105511
H	 1.0330054069	-1.3519150208	-4.2708489128	 0.095307
H	 2.0742960854	 0.0547926587	-3.9721216707	 0.104763
H	 3.0148800888	-1.8826979023	-2.4604745407	 0.070422
H	 0.1193137504	-2.5194753449	-2.1749262817	 0.057895
H	 2.018106227	-2.3661050601	 0.247406029	 0.133258
H	 0.3820180497	-3.0516470288	 0.292571292	 0.112679
H	 1.6394050121	-3.8374024257	-0.6656358163	 0.110259
81.5162	159.435	188.7015	236.7102	250.9877	260.5682	292.0868	343.3188	448.1752	453.8983	585.1774	625.5389	710.6195	765.0304	800.6	824.3528	845.4816	894.5894	917.5326	946.6868	950.2435	970.4155	987.7304	1020.4816	1064.7733	1074.5815	1084.2391	1132.1477	1156.3087	1168.853	1199.4887	1233.4701	1240.3725	1269.1319	1284.3139	1300.0348	1313.7823	1329.355	1381.2988	1403.4104	1408.8012	1409.4052	1477.0126	1481.028	1496.8685	1497.3748	1503.0056	1507.4577	1510.0658	3025.6856	3031.9297	3040.1442	3042.958	3058.9319	3066.5518	3068.5125	3090.5467	3104.9508	3109.855	3112.1198	3120.9007	3122.045	3124.1191
CCC12CCC(O1)C2C	CC[C@@]12CC[C@@H](O1)[C@H]2C	
InChI=1S/C8H14O/c1-3-8-5-4-7(9-8)6(8)2/h6-7H,3-5H2,1-2H3	InChI=1S/C8H14O/c1-3-8-5-4-7(9-8)6(8)2/h6-7H,3-5H2,1-2H3/t6-,7-,8+/m1/s1
