17
gdb 77225	3.37263	1.06952	0.91272	2.668	76.07	-0.2489	-0.0276	0.2213	1262.7547	0.133548	-421.788552	-421.779494	-421.778549	-421.822895	33.121	
O	 0.4925099708	 1.2695682981	 0.0646858919	-0.415889
C	 0.0285028019	-0.0324725711	-0.0295307714	 0.131541
C	-1.5200310543	-0.3376090352	 0.0781539891	-0.105718
C	-1.3385765315	-1.4115116803	-1.0161759242	-0.252302
C	 0.0239801592	-0.7639867787	-1.4259820895	-0.238876
C	-0.0761007627	 0.1891056071	-2.5138228082	 0.29956
C	-0.1651687	 1.0428674698	-3.3586532462	-0.449148
C	-1.9946357168	-0.7609442008	 1.4356411345	 0.12806
O	-2.1228616725	-1.9104734648	 1.7819814698	-0.24908
H	 0.2463760099	 1.7283123145	-0.7509766669	 0.287083
H	 0.5797657281	-0.6309833135	 0.7008826884	 0.112215
H	-2.0753680703	 0.5402928891	-0.2665861173	 0.093544
H	-1.2000816221	-2.3976778791	-0.5699573676	 0.134896
H	-2.1009976847	-1.4645096246	-1.7924021533	 0.121706
H	 0.8575100348	-1.4508889003	-1.5947681066	 0.111683
H	-0.2392774638	 1.7584349448	-4.1404176433	 0.206718
H	-2.182527576	 0.0732313051	 2.1484870307	 0.084004
60.0368	79.0942	133.1463	171.8168	229.342	282.399	349.7554	400.0581	432.4238	479.9129	605.9119	632.7404	655.0724	662.7036	716.2371	797.8026	813.0765	886.763	915.8711	983.1983	1010.6034	1066.3468	1088.871	1140.1168	1164.9275	1179.0458	1192.5221	1247.6165	1251.6158	1318.2336	1346.186	1363.1782	1422.2616	1437.4807	1488.6374	1813.6232	2221.3993	2880.7335	3065.4812	3071.9434	3082.1185	3092.908	3153.2254	3499.3278	3734.9097
OC1C(CC1C#C)C=O	O[C@H]1[C@@H](C[C@H]1C#C)C=O	
InChI=1S/C7H8O2/c1-2-5-3-6(4-8)7(5)9/h1,4-7,9H,3H2	InChI=1S/C7H8O2/c1-2-5-3-6(4-8)7(5)9/h1,4-7,9H,3H2/t5-,6+,7-/m1/s1
