17
gdb 126330	2.03535	1.5487	0.93912	5.4838	77.52	-0.2441	-0.0459	0.1981	1234.3177	0.136904	-418.043343	-418.034811	-418.033867	-418.077107	30.741	
C	 0.0450874873	 1.5586427919	 0.1090388453	-0.367633
C	-0.0283116886	 0.0272329092	-0.0252561551	-0.31535
C	 0.685351464	-0.5008570502	-1.2374741148	 0.149461
C	 0.1202878244	-0.8889709661	-2.4331117293	-0.110418
N	 1.1457364624	-1.2666792734	-3.2434145503	-0.173275
N	 2.3438519227	-1.1597316416	-2.6763868356	-0.255938
C	 2.0848927268	-0.6904629999	-1.4469791928	 0.165083
C	 3.1679134206	-0.4412188531	-0.4834641272	 0.092845
O	 4.3475262184	-0.5957994294	-0.6922216127	-0.26304
H	 1.0815065592	 1.8994502279	 0.1945583824	 0.126157
H	-0.3931646897	 2.0486014806	-0.765790266	 0.121123
H	-0.496766601	 1.8963168493	 0.9978155101	 0.117339
H	 0.382122315	-0.4351348461	 0.8796305695	 0.11618
H	-1.0789364606	-0.2805215861	-0.0705791674	 0.106707
H	-0.9070685346	-0.9299432794	-2.7598599342	 0.142457
H	 1.0857308679	-1.6127884533	-4.1876138812	 0.283175
H	 2.8061778358	-0.0823341403	 0.5064796891	 0.065128
65.0556	124.8226	151.8718	177.0824	230.3012	262.0726	321.6351	410.3356	524.5982	581.5768	619.2489	689.5285	736.658	786.3182	800.1122	818.6081	956.5911	970.256	1033.3878	1061.1699	1083.4967	1097.0724	1149.7931	1256.384	1278.9359	1319.2426	1358.1651	1382.8174	1411.0881	1423.0946	1471.8698	1488.0665	1496.1623	1499.2329	1508.6841	1588.7444	1805.8844	2872.5493	3035.5513	3038.653	3067.6839	3111.5797	3113.8414	3258.9692	3654.9133
CCC1=CNN=C1C=O	CCc1c[nH]nc1C=O	
InChI=1S/C6H8N2O/c1-2-5-3-7-8-6(5)4-9/h3-4H,2H2,1H3,(H,7,8)	InChI=1S/C6H8N2O/c1-2-5-3-7-8-6(5)4-9/h3-4H,2H2,1H3,(H,7,8)
