17
gdb 47146	3.38838	1.33048	1.03949	4.1348	76.91	-0.2518	-0.0355	0.2163	1146.391	0.137297	-421.867301	-421.859686	-421.858742	-421.89972	29.014	
O	-0.0815826168	 0.0342481554	-0.3483221942	-0.359845
C	-0.005694762	 1.2202372639	-0.1672640337	 0.40096
O	-1.1153542597	 2.0048305346	-0.0162488448	-0.22225
C	-0.7217904879	 3.3610113302	 0.1841693794	-0.128653
C	 0.7744787475	 3.3401344794	 0.1423115073	-0.233944
C	 1.2046396146	 2.0897807716	-0.0628360966	 0.207118
C	 2.5811894478	 1.5877070773	-0.1758377948	-0.115858
C	 2.9800270733	 0.2203968601	 0.3595129275	-0.269922
C	 2.9424457839	 0.4502776272	-1.119739357	-0.269924
H	-1.1663222086	 3.9800942613	-0.6060152145	 0.134783
H	-1.1210539942	 3.7080157792	 1.1461705369	 0.134822
H	 1.3793691679	 4.2292474311	 0.2649435271	 0.119695
H	 3.331551331	 2.3659196436	-0.0739736672	 0.085768
H	 3.9408050409	 0.1546489254	 0.8574186612	 0.113353
H	 2.1947871782	-0.394740361	 0.7798160394	 0.1453
H	 2.1326162716	-0.0144413725	-1.6673335563	 0.145237
H	 3.8768225525	 0.5460436233	-1.6611241396	 0.11336
78.9384	157.2343	184.8782	219.0651	324.8662	363.8479	493.2939	495.6744	630.5328	742.5992	783.4066	789.9952	797.712	830.4588	836.9217	908.2238	916.5246	959.7885	1025.4832	1026.7077	1066.8815	1091.2082	1095.2507	1129.4651	1134.6319	1199.5217	1200.3536	1204.7929	1244.2133	1349.2554	1371.8473	1398.609	1458.5908	1492.4211	1496.7029	1700.4653	1845.9446	3019.8708	3049.8508	3144.7199	3145.509	3152.3348	3220.105	3237.7336	3249.9924
O=C1OCC=C1C1CC1	O=C1OCC=C1C1CC1	
InChI=1S/C7H8O2/c8-7-6(3-4-9-7)5-1-2-5/h3,5H,1-2,4H2	InChI=1S/C7H8O2/c8-7-6(3-4-9-7)5-1-2-5/h3,5H,1-2,4H2
