15
gdb 17753	3.95487	2.62385	2.15382	0.8041	62.6	-0.2177	0.0664	0.2841	671.2264	0.12027	-362.557541	-362.55192	-362.550975	-362.586769	23.831	
O	-0.0925119677	 1.3675898947	 0.019210824	-0.477578
C	 0.061798179	-0.0067691687	 0.0051552679	 0.367399
C	 1.0465135698	-0.8260261683	 0.8690008854	-0.241096
N	 0.8412032192	-1.9518754263	-0.1122890442	-0.157002
C	-0.636165794	-2.2162569135	-0.0719892242	-0.021233
C	-0.9485718246	-1.4901027331	-1.3466860858	-0.106576
C	-1.2514505995	-0.8237919398	-0.0120186553	-0.115975
C	 0.4831239062	-0.9278727111	-1.2093496915	-0.093501
H	 0.7783575928	 1.7735959246	-0.0494438212	 0.284327
H	 2.0809623809	-0.4702598916	 0.7991574744	 0.095915
H	 0.7937548297	-1.0527989022	 1.9090670008	 0.104484
H	-1.062732398	-3.1121140283	 0.3600832553	 0.094172
H	-1.5780242508	-1.7499491068	-2.1855870914	 0.096841
H	-2.1998155896	-0.5792567228	 0.4454671619	 0.094711
H	 1.2190881267	-0.7067044369	-1.980589166	 0.075113
275.8531	325.5134	363.8932	441.1204	567.3307	608.8489	737.8295	767.4108	786.0468	812.4323	831.2067	855.3044	882.5818	912.3971	927.7158	974.4745	999.095	1029.4877	1042.4435	1052.7263	1079.9637	1092.565	1114.1956	1165.7559	1190.5383	1227.5482	1230.1739	1251.3602	1297.8989	1356.0195	1397.9896	1494.1299	3036.0305	3100.067	3128.3387	3195.4935	3211.8808	3224.5241	3804.2842
OC12CN3C4C(C14)C23	O[C@@]12CN3[C@@H]4[C@@H]([C@H]14)[C@@H]23	
InChI=1S/C6H7NO/c8-6-1-7-4-2(3(4)6)5(6)7/h2-5,8H,1H2	InChI=1S/C6H7NO/c8-6-1-7-4-2(3(4)6)5(6)7/h2-5,8H,1H2/t2-,3+,4-,5+,6+/m1/s1
