19
gdb 24112	4.75468	0.94386	0.84027	0.4476	82.3	-0.2122	0.0225	0.2347	1393.9094	0.160506	-385.9082	-385.900082	-385.899138	-385.942105	30.696	
C	-0.0263066125	 1.4771990618	-0.330901551	-0.344661
C	-0.1302053544	-0.0322869835	-0.1700153409	 0.041494
C	-0.1826745537	-0.6467704509	 1.2036597416	-0.245063
C	-1.4113563439	-0.6524272192	 0.3265560613	-0.280238
C	 1.3694163793	 1.9973873985	-0.2493364968	 0.376173
C	 2.2173251086	 2.5530539469	-1.1581025201	-0.275571
C	 3.4401285565	 2.8344321038	-0.4632597744	-0.1702
C	 3.2423612461	 2.4288139245	 0.8162255886	-0.021062
O	 1.9901037539	 1.9175839261	 0.9651315491	-0.174599
H	-0.4407681883	 1.7795046382	-1.2992921608	 0.112755
H	-0.6438126541	 1.9597101034	 0.4388011708	 0.109803
H	 0.4160730697	-0.592758877	-0.923834636	 0.085838
H	 0.3372978652	-1.5834503603	 1.3706916377	 0.11043
H	-0.1674048476	 0.0252992437	 2.0547817569	 0.116805
H	-2.226367394	 0.0139469293	 0.5909025214	 0.108813
H	-1.7327138108	-1.5920764476	-0.1088800924	 0.110481
H	 1.9979388921	 2.7414706077	-2.1976727415	 0.103223
H	 4.3368422583	 3.2793478393	-0.8651853679	 0.107348
H	 3.8539060993	 2.4331313254	 1.7033258345	 0.128229
41.4899	71.9642	111.5649	284.0124	292.533	339.5177	409.1273	615.2574	650.9862	732.0719	747.9422	772.0582	800.6706	806.2981	841.5514	846.2518	893.8107	903.4789	945.1154	949.3691	994.8351	1035.5836	1057.6826	1076.1161	1102.2642	1130.3919	1141.1592	1183.9851	1196.9998	1221.0542	1233.554	1240.459	1288.3674	1327.5682	1406.6459	1419.397	1464.6249	1473.5119	1507.0442	1541.3547	1635.9641	3016.3369	3068.2584	3128.9715	3136.4123	3144.2839	3207.8631	3223.9701	3248.984	3260.5625	3284.8339
C(C1CC1)C1=CC=CO1	C(C1CC1)c1ccco1	
InChI=1S/C8H10O/c1-2-8(9-5-1)6-7-3-4-7/h1-2,5,7H,3-4,6H2	InChI=1S/C8H10O/c1-2-8(9-5-1)6-7-3-4-7/h1-2,5,7H,3-4,6H2
