17
gdb 76569	3.08443	1.29242	1.2525	3.0028	71.9	-0.21	0.0052	0.2152	1074.5935	0.135276	-458.92866	-458.92055	-458.919606	-458.961283	31.163	
O	-0.2261723752	 1.3612838849	 0.1316149579	-0.433874
C	-0.0157830652	-0.0181566763	 0.0202805602	-0.044638
C	-0.27829311	-0.7904964129	 1.2986146097	 0.030745
O	-0.5800948781	-0.064711092	 2.4379327374	-0.426654
C	-1.2759480997	-0.8649845038	 0.1419045789	 0.354016
O	-2.460923012	-0.0969361935	 0.2403502195	-0.322418
C	-3.5291129368	-0.7941044467	-0.4185472478	-0.131395
C	-2.8945442024	-2.0403566839	-0.9719365496	-0.111317
C	-1.6043260342	-2.0658821526	-0.6443571699	-0.168196
H	-1.1583602891	 1.5094057492	-0.0890605657	 0.302317
H	 0.7873616095	-0.2931354903	-0.6590276181	 0.098083
H	 0.3066648528	-1.6846358688	 1.5006554552	 0.101696
H	-0.5314938003	 0.8666871779	 2.1733607629	 0.290453
H	-4.3250977953	-1.0087211163	 0.3099253057	 0.119724
H	-3.9605686091	-0.1480893062	-1.197358743	 0.112728
H	-3.440196624	-2.7828225309	-1.5387859811	 0.112612
H	-0.8809260406	-2.8325385779	-0.8874229021	 0.116119
90.0436	155.2432	183.3714	233.7539	262.4902	345.8458	415.912	428.0796	561.404	609.7509	615.3941	677.0735	705.9012	778.1796	827.1636	863.7091	882.5123	946.4221	948.7879	1002.9667	1042.3801	1051.3824	1074.7957	1111.3379	1133.4035	1166.7747	1196.7919	1204.5431	1257.0004	1313.3841	1351.6504	1374.907	1386.3111	1394.7949	1455.5574	1518.2951	1671.3723	2987.8811	3009.431	3129.1188	3138.8585	3216.4251	3239.2614	3705.299	3714.1619
OC1C(O)C11OCC=C1	O[C@H]1[C@@H](O)[C@]21OCC=C2	
InChI=1S/C6H8O3/c7-4-5(8)6(4)2-1-3-9-6/h1-2,4-5,7-8H,3H2	InChI=1S/C6H8O3/c7-4-5(8)6(4)2-1-3-9-6/h1-2,4-5,7-8H,3H2/t4-,5+,6-
