13
gdb 132693	3.2912	1.33222	0.94834	3.8499	63.5	-0.2326	-0.0188	0.2138	1098.6386	0.089437	-497.913379	-497.906047	-497.905103	-497.945083	28.018	
O	 0.1028817723	 1.3404801492	 0.2059411482	-0.469684
C	 0.0659745	-0.0219556791	 0.056387927	 0.210064
C	-0.0425676245	-0.6994580256	-1.1422887075	-0.108694
N	-0.0742187598	-2.0385604325	-1.2329794619	-0.330243
C	 0.0039327181	-2.7041908364	-0.1071166877	 0.353171
F	-0.0280051631	-4.0330487532	-0.2027725341	-0.077575
C	 0.1161633626	-2.1490295711	 1.1658495231	-0.382372
C	 0.1480364422	-0.7662768556	 1.2484178736	 0.379383
O	 0.2549472162	-0.1468987017	 2.4405888795	-0.431723
H	 0.0422623347	 1.7681427649	-0.6539628876	 0.309132
H	-0.1075162128	-0.1468543097	-2.0785674275	 0.105567
H	 0.1760334617	-2.7658088861	 2.0525330852	 0.126846
H	 0.2595095125	 0.8063563567	 2.2795780296	 0.316126
152.4788	199.4909	239.1946	300.1678	358.7796	406.3251	454.6918	464.5786	496.5321	542.1638	605.5089	688.2333	754.9828	763.5978	802.581	872.9652	908.0647	990.7863	1158.3805	1179.9368	1220.5586	1312.4464	1318.9092	1361.824	1399.2022	1480.204	1547.8788	1646.1156	1665.0666	3133.1832	3225.5298	3773.075	3834.8505
OC1=CN=C(F)C=C1O	Oc1cnc(F)cc1O	
InChI=1S/C5H4FNO2/c6-5-1-3(8)4(9)2-7-5/h1-2,9H,(H,7,8)	InChI=1S/C5H4FNO2/c6-5-1-3(8)4(9)2-7-5/h1-2,9H,(H,7,8)
