23
gdb 85904	2.61534	1.35904	1.20961	1.7625	84.46	-0.2532	0.0843	0.3375	1196.4364	0.205084	-388.302317	-388.292993	-388.292048	-388.335599	36.661	
C	 0.0710012794	 1.6056006573	 0.0470852873	-0.404568
C	 0.0262498461	 0.0761373658	 0.0337947351	-0.003211
C	 0.7370557313	-0.5639215171	-1.1877236362	-0.265517
C	 1.2501476257	-1.9652934682	-0.740640178	 0.267868
C	 0.1768353499	-3.047096327	-0.9520938635	-0.429483
C	 2.5541503998	-2.3543693719	-1.448058364	-0.436243
C	 1.4518466552	-1.766662193	 0.7590034166	 0.032011
O	 2.1613657229	-0.5670027174	 1.099141308	-0.278262
C	 0.7271592489	-0.5777928466	 1.2125899075	 0.038729
H	 1.1074452256	 1.9553823532	 0.0916563255	 0.130146
H	-0.3897534868	 2.022167433	-0.8545646604	 0.112828
H	-0.4617430689	 2.0141817314	 0.9125285408	 0.109911
H	-1.0234088679	-0.2489632867	 0.062872615	 0.073081
H	 0.0794315835	-0.6306910546	-2.0594985347	 0.091271
H	 1.5890051936	 0.0606485455	-1.4706402912	 0.106132
H	-0.0112441563	-3.1998852554	-2.0199993206	 0.115254
H	 0.4938905727	-4.0075570958	-0.530191135	 0.111721
H	-0.7721949508	-2.7730390199	-0.4793234519	 0.11362
H	 3.3433608816	-1.6307324822	-1.2236063228	 0.128557
H	 2.8988649713	-3.3445342329	-1.1286687981	 0.106803
H	 2.4176249847	-2.3859799793	-2.5346888615	 0.109762
H	 1.6519292357	-2.6227016661	 1.4017213327	 0.083389
H	 0.3436342328	-0.464781902	 2.2245955693	 0.086201
106.0476	162.574	217.5994	222.8753	235.0832	256.4355	288.1315	314.9148	359.1614	398.3269	498.0301	507.506	593.0901	634.9051	795.9324	829.0408	848.6514	871.907	909.5366	926.5277	943.9065	952.001	969.0746	1012.4766	1033.4612	1041.3202	1085.4252	1113.3226	1140.7598	1183.9683	1220.8576	1235.3559	1262.2282	1264.5935	1308.0953	1336.1741	1339.5747	1377.2143	1396.8076	1407.7397	1417.9682	1437.3784	1481.1721	1486.936	1492.3442	1497.7161	1501.4768	1502.6561	1509.3425	3007.0188	3023.3996	3027.7492	3030.8251	3055.0838	3087.0747	3092.8434	3096.1655	3098.1975	3098.897	3107.2834	3108.9842	3121.7827	3138.3805
CC1CC(C)(C)C2OC12	C[C@H]1CC(C)(C)[C@H]2O[C@@H]12	
InChI=1S/C8H14O/c1-5-4-8(2,3)7-6(5)9-7/h5-7H,4H2,1-3H3	InChI=1S/C8H14O/c1-5-4-8(2,3)7-6(5)9-7/h5-7H,4H2,1-3H3/t5-,6-,7-/m0/s1
