19
gdb 127617	3.12506	1.54113	1.06371	2.5825	82.68	-0.2162	0.0288	0.2451	1136.484	0.162815	-382.103173	-382.095186	-382.094242	-382.136334	29.72	
C	 0.0015806337	 1.4203317237	-0.0191792013	-0.331909
N	-0.0285983857	-0.0237387236	 0.0376624982	-0.08898
N	 0.0046026734	-0.7436082379	-1.1146493567	-0.278048
C	 0.0281574008	-2.0241445814	-0.733031016	-0.165167
C	 0.0055744966	-2.1345514521	 0.6697200413	 0.19611
C	-0.0271792047	-0.8357315602	 1.1180994576	 0.37905
C	-0.0141013335	-0.6978419353	 2.6077985166	-0.353202
C	-0.3149967602	-2.1744142837	 3.0335667919	-0.193371
C	 0.0430876449	-3.0997342093	 1.8211237578	-0.350845
H	 1.0245967728	 1.8056027795	 0.0609631103	 0.136716
H	-0.4188167171	 1.7310494775	-0.9758983033	 0.158515
H	-0.5974146362	 1.8366262255	 0.7947810638	 0.135534
H	 0.0459438637	-2.7954204057	-1.4895338723	 0.105255
H	 0.9648707226	-0.3617864977	 2.9754027207	 0.113841
H	-0.7572854351	 0.0018398823	 3.0055095599	 0.10979
H	 0.217316886	-2.4552627637	 3.9458852413	 0.100156
H	-1.3848449765	-2.2650930033	 3.2440827582	 0.112204
H	-0.6627283317	-3.9322354097	 1.734699243	 0.107084
H	 1.0386880562	-3.546318095	 1.9438351889	 0.107268
50.1261	128.117	151.7605	234.8443	253.4752	278.7807	495.2913	563.3629	626.4437	645.9389	671.4352	718.2173	805.0708	839.7794	871.9874	900.5801	905.8716	992.8239	1012.5253	1060.0587	1080.426	1147.1844	1155.5432	1188.2275	1208.2474	1216.9659	1230.9962	1299.5085	1311.5902	1317.0704	1341.4204	1387.8696	1442.2931	1464.2227	1483.9163	1488.6684	1493.9968	1501.4025	1509.7895	1557.7219	1594.9175	3012.845	3015.7231	3033.5933	3049.5183	3059.9474	3067.6378	3102.9031	3104.7399	3154.7051	3237.6419
CN1N=CC2=C1CCC2	Cn1ncc2c1CCC2	
InChI=1S/C7H10N2/c1-9-7-4-2-3-6(7)5-8-9/h5H,2-4H2,1H3	InChI=1S/C7H10N2/c1-9-7-4-2-3-6(7)5-8-9/h5H,2-4H2,1H3
