17
gdb 82001	2.50791	1.44816	1.30575	1.5688	72.5	-0.2668	0.0168	0.2836	1052.502	0.134965	-417.971055	-417.962272	-417.961328	-418.004228	32.663	
C	-0.0820765887	 1.5686674359	-0.0956102813	-0.409261
C	 0.0173204722	 0.0544828032	-0.022903561	-0.064831
C	 0.6975558461	-0.6670001387	-1.1971529922	 0.042716
O	 2.0467126675	-0.1922544612	-1.2675845479	-0.23342
C	 1.7525499976	-1.2277455644	-0.3430390733	-0.000116
C	 1.1466878179	-0.5738675213	 0.9262969836	 0.10127
N	 2.0072670249	 0.3680712698	 1.6176151398	-0.541161
C	 0.5755347473	-1.604343383	 1.8070463845	 0.223734
N	 0.1499971413	-2.4008394296	 2.5307008008	-0.340346
H	 0.8880367677	 2.0040069524	-0.3384984915	 0.155099
H	-0.804986464	 1.860533145	-0.8649378687	 0.120283
H	-0.422842387	 1.990104658	 0.8554790116	 0.116928
H	-0.9476263896	-0.4027717975	 0.2104918367	 0.102939
H	 0.2570574275	-1.0557546558	-2.1073579785	 0.115019
H	 2.3167081683	-2.1513091519	-0.398680764	 0.123271
H	 1.5295269972	 0.7555711103	 2.4262398102	 0.244165
H	 2.8388164238	-0.1018220211	 1.964623811	 0.243709
109.8527	149.9306	176.9224	189.3396	208.8893	243.3001	278.5523	392.6239	480.014	500.1229	561.6844	605.3058	664.0903	758.737	832.8471	852.0868	870.2272	875.0649	922.4811	1002.8996	1011.8574	1043.5887	1064.3259	1094.2042	1151.9417	1194.0861	1240.418	1251.6204	1262.6938	1301.1853	1356.5628	1387.5203	1410.1122	1488.7397	1496.8883	1654.1753	2335.4985	3040.8432	3082.1018	3100.3364	3148.7413	3185.9485	3200.9465	3491.6381	3571.8751
CC1C2OC2C1(N)C#N	C[C@H]1[C@H]2O[C@H]2[C@]1(N)C#N	
InChI=1S/C6H8N2O/c1-3-4-5(9-4)6(3,8)2-7/h3-5H,8H2,1H3	InChI=1S/C6H8N2O/c1-3-4-5(9-4)6(3,8)2-7/h3-5H,8H2,1H3/t3-,4+,5+,6-/m0/s1
