17
gdb 49480	2.48501	1.71746	1.26335	2.8459	72.85	-0.2451	-0.0355	0.2096	1010.5562	0.136722	-421.841645	-421.834242	-421.833298	-421.873813	28.372	
O	-0.6725552763	 0.8781931968	-0.541807023	-0.245166
C	 0.2212902422	 0.9831722132	 0.2602465312	 0.13491
C	 1.365363794	 1.9598711627	 0.1345151244	-0.20248
C	 1.3471566523	 2.9043364818	-1.0797167622	-0.022359
C	 2.409690107	 3.9641434497	-0.6675427949	-0.250838
C	 1.349756814	 4.3332751338	 0.4247362311	-0.124863
C	 0.2821382904	 3.9605771706	-0.6607031853	-0.236084
C	 1.348487754	 3.0595874865	 1.2505413615	 0.424133
O	 1.3340130043	 2.9008424298	 2.4387786534	-0.33184
H	 0.258095716	 0.3521865818	 1.1741552097	 0.101008
H	 2.2998921394	 1.3924392801	 0.2431374979	 0.116896
H	 1.3373490379	 2.4427752953	-2.0646266507	 0.087309
H	 3.3948962158	 3.6210182707	-0.3383910332	 0.105392
H	 2.5145044245	 4.7616221849	-1.4058742375	 0.115019
H	 1.3510974867	 5.2706596511	 0.9761835521	 0.089175
H	 0.1752836761	 4.7583273248	-1.3981168875	 0.114025
H	-0.6985593981	 3.6100156664	-0.3360013368	 0.125765
94.9753	131.4718	185.7761	222.4739	357.1593	458.879	505.0761	559.8818	664.3061	718.701	760.0322	816.0826	838.3238	860.4066	877.5039	896.3505	979.5851	999.0658	1010.0034	1026.7278	1066.1122	1071.84	1098.4211	1102.4354	1158.2738	1188.5137	1222.9279	1238.2155	1242.8704	1281.5206	1303.7808	1330.3401	1418.1244	1491.3237	1525.9562	1812.3986	1870.4949	2905.6506	3026.9922	3057.0269	3079.6519	3123.0164	3141.4836	3142.6621	3151.1263
O=CC1C2CC(C2)C1=O	O=C[C@H]1[C@@H]2C[C@@H](C2)C1=O	
InChI=1S/C7H8O2/c8-3-6-4-1-5(2-4)7(6)9/h3-6H,1-2H2	InChI=1S/C7H8O2/c8-3-6-4-1-5(2-4)7(6)9/h3-6H,1-2H2/t4-,5+,6-/m0/s1
