17
gdb 52127	3.57971	0.91737	0.88992	3.4157	71.75	-0.2569	-0.0002	0.2567	1371.6299	0.136672	-455.1495	-455.140696	-455.139752	-455.185273	29.926	
N	-0.2399808353	 0.6670839322	-0.9712382612	-0.43694
C	-0.6509337868	-0.1910404918	-0.1442751086	 0.122708
O	-0.318375998	-1.4925974148	-0.3136455406	-0.18108
C	-0.872665392	-2.4042526537	 0.6345458677	-0.177497
C	-2.3156893967	-2.700814411	 0.3416182863	 0.399852
N	-3.2995406906	-2.2777005338	 1.025159254	-0.303937
C	-4.5104094926	-2.7941219022	 0.3639510698	-0.186275
C	-3.9838504447	-3.5410314785	-0.8896399003	-0.11185
O	-2.5438670834	-3.4618768482	-0.7561709484	-0.245116
H	-0.5575200089	 1.593741815	-0.6942159604	 0.230903
H	-1.2722350954	-0.0089245809	 0.7417634906	 0.10822
H	-0.2758877318	-3.3144111592	 0.5476446467	 0.142584
H	-0.7995602295	-2.0144628277	 1.6539768572	 0.138258
H	-5.0527742886	-3.4514295705	 1.0519071393	 0.122734
H	-5.1791390495	-1.9660908919	 0.1102165089	 0.124306
H	-4.2645261623	-4.5961286977	-0.9289576224	 0.12529
H	-4.2641116239	-3.0619821153	-1.8318617687	 0.127839
31.2498	55.9616	93.4744	104.9154	172.3682	264.4015	362.5898	372.6719	596.1917	654.0947	752.6044	786.3057	821.5961	831.7919	916.1933	943.3411	970.4725	983.6946	1009.3226	1043.1407	1074.3325	1117.3875	1126.0787	1214.4057	1228.3634	1247.392	1274.18	1324.7596	1341.7382	1385.0309	1410.6987	1429.1648	1485.9884	1500.4569	1525.1254	1735.841	1748.4003	3043.8343	3045.9993	3061.0136	3066.9866	3078.6012	3112.941	3129.2009	3517.9552
N=COCC1=NCCO1	[NH][CH]OCC1=NCCO1	
InChI=1S/C5H8N2O2/c6-4-8-3-5-7-1-2-9-5/h4,6H,1-3H2	InChI=1S/C5H8N2O2/c6-4-8-3-5-7-1-2-9-5/h4,6H,1-3H2
