21
gdb 70616	2.39676	1.82133	1.31286	1.5936	81.62	-0.2274	0.0749	0.3023	1053.0081	0.184441	-383.232246	-383.224154	-383.22321	-383.264346	32.802	
C	-0.3344600428	 1.4052954362	 0.0781871725	-0.504466
C	-0.1132177993	-0.0867831547	 0.0280015266	 0.27521
C	-0.4429467389	-0.9520241101	 1.1970996927	-0.295445
N	 0.9598404553	-0.6495009302	 0.878461139	-0.138837
C	 1.6280449213	-1.7141991763	 0.1007538713	-0.158212
C	 0.7214880875	-2.0752106148	-1.0997084519	-0.325696
C	-0.0981664381	-0.8045455868	-1.3082121915	 0.319923
C	-1.1914819845	-0.6858594812	-2.2997493586	-0.303461
N	 0.1221848741	-0.0662546499	-2.5645667043	-0.361884
H	 0.4495088938	 1.9466943672	-0.4627378637	 0.126589
H	-1.3051022735	 1.6818080879	-0.3503225858	 0.11791
H	-0.3156370287	 1.7538271985	 1.1132015393	 0.132817
H	-0.8059435917	-0.4935791204	 2.1132879259	 0.110477
H	-0.8231059392	-1.9550161018	 1.0193599326	 0.108116
H	 2.5823483486	-1.3059132897	-0.2475507333	 0.112785
H	 1.8476915322	-2.5684705257	 0.7481412322	 0.104498
H	 1.2878207788	-2.3240685831	-1.998760391	 0.120083
H	 0.0704614909	-2.9250343573	-0.8710918372	 0.105302
H	-1.4386958351	-1.5290476781	-2.9398145848	 0.116129
H	-2.0342267033	-0.0403336192	-2.0630048311	 0.109528
H	 0.0637280328	 0.9367660491	-2.4072633491	 0.228636
108.1756	195.2319	229.8451	252.5709	287.1199	367.986	401.2747	441.482	456.3498	549.2072	615.6001	665.1601	771.906	794.3058	811.1746	871.5002	899.5204	936.3184	936.7337	957.352	978.2544	989.6843	1035.0119	1073.8234	1095.7044	1105.4588	1112.0331	1125.1672	1168.0182	1199.8499	1213.704	1251.5735	1265.2029	1304.6276	1330.087	1343.4265	1368.5308	1402.3918	1421.1152	1482.9855	1489.8491	1495.4385	1501.4465	1516.0928	1519.6051	3028.3297	3047.6336	3052.85	3087.8384	3090.6852	3099.2655	3102.7479	3120.0638	3122.202	3181.6214	3184.5942	3504.3458
CC12CN1CCC21CN1	C[C@]12CN1CC[C@]12CN1	
InChI=1S/C7H12N2/c1-6-5-9(6)3-2-7(6)4-8-7/h8H,2-5H2,1H3	InChI=1S/C7H12N2/c1-6-5-9(6)3-2-7(6)4-8-7/h8H,2-5H2,1H3/t6-,7-,9?/m1/s1
