17
gdb 31757	4.85968	0.82417	0.71939	0.134	71.9	-0.2203	0.0119	0.2322	1514.9877	0.135712	-458.975834	-458.966875	-458.965931	-459.010427	32.118	
O	 0.1633868568	 1.2911575904	-0.4710650931	-0.404769
C	-0.0260294807	 0.1090518301	 0.2842005914	-0.162095
C	-1.3471354283	-0.5308470483	-0.0044328304	 0.329547
C	-2.1928362499	-0.4584312434	-1.0675517485	-0.398196
C	-3.3133217303	-1.3050806599	-0.7572819128	 0.216663
C	-4.5283726658	-1.5735625974	-1.5961685941	-0.168768
O	-5.2371778433	-2.7316651212	-1.1850095988	-0.409495
C	-3.0512988434	-1.8227010021	 0.4726435878	-0.116644
O	-1.8588701786	-1.3588446786	 0.9466183843	-0.183112
H	-0.5714991855	 1.8810335028	-0.2704385332	 0.285265
H	 0.8017408174	-0.5538371126	 0.0033457642	 0.131901
H	 0.0603459571	 0.2805532292	 1.3687094567	 0.110345
H	-2.0307869616	 0.1134707155	-1.9679067221	 0.118027
H	-5.2462185859	-0.7487433285	-1.5106956402	 0.127141
H	-4.2427788441	-1.6285258484	-2.6590289713	 0.098743
H	-4.6273684554	-3.474822164	-1.2467846601	 0.282635
H	-3.5909455684	-2.4920140636	 1.1203952601	 0.142813
52.2832	76.0817	128.6495	183.8977	207.5862	298.6169	342.3522	371.076	431.263	454.5215	619.5211	645.7516	692.3628	744.0048	758.155	822.278	959.3054	982.3119	998.686	1009.8099	1065.2557	1081.6922	1151.5693	1153.8666	1189.9277	1207.4416	1230.5279	1281.6236	1334.7314	1384.0545	1403.2758	1426.7067	1439.1376	1501.4686	1502.7499	1575.8197	1651.3613	2974.247	2985.1465	3045.4054	3047.5405	3258.1474	3289.6755	3805.2914	3805.542
OCC1=CC(CO)=CO1	OCc1cc(CO)co1	
InChI=1S/C6H8O3/c7-2-5-1-6(3-8)9-4-5/h1,4,7-8H,2-3H2	InChI=1S/C6H8O3/c7-2-5-1-6(3-8)9-4-5/h1,4,7-8H,2-3H2
