25
gdb 75139	3.0628	1.11592	1.02039	0.1986	94.93	-0.2258	0.036	0.2618	1358.2856	0.228978	-352.394994	-352.38522	-352.384276	-352.428582	38.866	
C	-0.1103881737	 1.5786140955	 0.0487377918	-0.475681
C	-0.0494831551	 0.0768148645	-0.0192000366	 0.334261
C	-0.0196640178	-0.5882286165	-1.1769645003	-0.152502
C	 0.0565904987	-2.0878356974	-1.3052700465	-0.26131
C	 0.4858976496	-2.8040194755	-0.0040194738	 0.275259
C	 0.1241617063	-4.2943110046	-0.0901145543	-0.4228
C	 2.008314835	-2.6688035406	 0.191833752	-0.411432
C	-0.2756505294	-2.1556487423	 1.171534712	-0.212335
C	-0.0069150643	-0.6509563547	 1.3047899495	-0.310568
H	 0.7406495655	 1.9853921008	 0.6112652513	 0.118374
H	-0.104480804	 2.0309606942	-0.946794191	 0.116495
H	-1.014477283	 1.9164734889	 0.572304835	 0.118249
H	-0.0597271152	-0.02625151	-2.1088490233	 0.070462
H	-0.9225782236	-2.4733889532	-1.6289448434	 0.096717
H	 0.7499757963	-2.35312362	-2.1154298969	 0.093614
H	 0.5971854529	-4.7658007566	-0.9591893987	 0.106084
H	 0.4577439025	-4.8343665209	 0.8033170355	 0.105852
H	-0.9585682782	-4.4353161055	-0.1813508901	 0.106045
H	 2.3340270158	-1.6254092463	 0.1570368921	 0.118803
H	 2.3196230731	-3.0898799759	 1.1546312484	 0.104545
H	 2.5467840701	-3.2079489816	-0.5954552897	 0.10615
H	-1.3507753534	-2.3120678874	 1.0132193969	 0.090873
H	-0.0218652489	-2.6662652003	 2.1087053874	 0.084983
H	 0.9699099999	-0.4750853919	 1.7799400855	 0.10448
H	-0.7391056091	-0.2044538527	 1.9912356271	 0.095379
95.5735	175.4887	205.1357	241.0165	249.4749	265.5607	283.8325	322.3992	325.8776	401.0748	412.9419	442.2668	455.0785	537.8301	668.4703	718.9601	774.7867	825.2277	882.9314	899.0676	930.5492	951.8894	966.9477	985.9107	1021.8673	1032.3134	1046.4139	1072.0465	1082.1354	1148.6708	1168.6089	1181.3207	1214.0211	1240.5739	1289.5437	1310.0483	1344.0687	1352.8826	1377.2569	1396.6517	1400.1708	1412.687	1424.1638	1472.4443	1474.1662	1478.9773	1482.7392	1489.9765	1493.1993	1499.138	1503.9205	1514.0094	1742.057	2985.0932	2994.8799	3010.0785	3011.5286	3019.6611	3020.871	3027.6053	3030.5241	3053.9088	3055.2581	3085.7356	3090.1516	3091.2329	3106.5862	3108.7086	3133.6845
CC1=CCC(C)(C)CC1	CC1=CCC(C)(C)CC1	
InChI=1S/C9H16/c1-8-4-6-9(2,3)7-5-8/h4H,5-7H2,1-3H3	InChI=1S/C9H16/c1-8-4-6-9(2,3)7-5-8/h4H,5-7H2,1-3H3
