16
gdb 78150	2.17693	1.79577	1.05846	2.0633	72.93	-0.2641	-0.0171	0.247	1108.3427	0.125822	-434.102914	-434.09519	-434.094246	-434.135142	29.417	
C	-0.046457711	 1.4746784509	 0.0031847371	-0.420738
C	 0.0509977267	-0.0251812127	-0.0743552642	 0.003861
C	 0.7380329623	-0.7089135594	-1.2076563145	-0.106271
N	 1.4018569353	-0.6151865482	 0.1122955875	-0.167507
C	 1.3293229161	-1.9305658049	 0.6852872178	 0.416112
O	 1.6867656433	-2.2401576783	 1.7869628285	-0.346995
N	 0.7764622678	-2.7849712058	-0.2693771258	-0.379118
C	 0.4228717199	-2.1490617111	-1.4594305371	 0.40401
N	-0.0203870694	-2.6180028108	-2.5506767128	-0.544791
H	 0.8153106165	 1.9444798	-0.4769749843	 0.137504
H	-0.9587795718	 1.8221249097	-0.492249234	 0.132306
H	-0.076886297	 1.8017895149	 1.046868839	 0.14102
H	-0.767992206	-0.5737734019	 0.3882174285	 0.115271
H	 1.1541071478	-0.1294355124	-2.0234454431	 0.12994
H	 0.6358241369	-3.7642075209	-0.0742663526	 0.268226
H	-0.1338725772	-3.632005059	-2.51573984	 0.21717
133.3773	161.5921	201.5275	209.8037	276.7512	348.0153	435.7943	541.391	557.7354	632.2583	647.842	702.8621	752.2681	818.6797	846.1656	869.6901	907.3625	972.891	1016.7146	1036.6789	1063.0829	1109.7108	1142.9265	1160.9256	1186.089	1251.1307	1312.3071	1356.4558	1384.6489	1410.8637	1440.0198	1485.1269	1495.091	1770.8582	1879.2475	3043.3399	3112.0451	3119.5505	3136.7462	3191.5028	3468.3234	3640.1103
CC1C2N1C(=O)NC2=N	C[C@H]1[C@H]2N1C(=O)N[C]2[NH]	
InChI=1S/C5H7N3O/c1-2-3-4(6)7-5(9)8(2)3/h2-3H,1H3,(H2,6,7,9)	InChI=1S/C5H7N3O/c1-2-3-4(6)7-5(9)8(2)3/h2-3H,1H3,(H2,6,7,9)/t2-,3+,8?/m0/s1
