21
gdb 64205	2.38897	1.48835	1.3705	2.3034	78.12	-0.2378	0.0643	0.3021	1095.6668	0.18117	-424.202656	-424.193571	-424.192627	-424.236177	35.185	
C	-0.2372720153	 1.4893798532	 0.1809483882	-0.458522
C	-0.0333419139	-0.0136528846	 0.0574611022	 0.266145
O	-1.2622884805	-0.6982146734	-0.061754242	-0.468724
C	 1.0898217143	-0.4184213317	-0.9302424886	-0.128119
O	 1.9746442302	-0.723792258	 0.1650567868	-0.321586
C	 0.9046175856	-0.6533447463	 1.1238257342	 0.431061
C	 1.1800800509	-0.0189943913	 2.5014753324	-0.299865
C	 0.3050016466	-1.1300192638	 3.1447866579	-0.213507
C	 0.4516182346	-1.9521782614	 1.8354854343	-0.283844
H	 0.7165870038	 2.0065359615	 0.3161951146	 0.135693
H	-0.7028609517	 1.8868991787	-0.7301657739	 0.107908
H	-0.8862819505	 1.7265227818	 1.0295664559	 0.126938
H	-1.843564414	-0.1854451301	-0.6324387183	 0.279704
H	 0.834720395	-1.3068794845	-1.5216893899	 0.098561
H	 1.4968404255	 0.3613361758	-1.5849378675	 0.092687
H	 2.2392210516	-0.1379232504	 2.748735681	 0.114272
H	 0.9000431734	 1.0256406063	 2.6578590227	 0.093045
H	 0.6747079101	-1.5836183573	 4.0662182747	 0.098064
H	-0.7246365	-0.8006496772	 3.3057718005	 0.106335
H	-0.4295875023	-2.4577218634	 1.4403881263	 0.117623
H	 1.2907090366	-2.652165244	 1.8813748586	 0.106131
72.5962	103.1285	216.237	230.1774	272.25	281.8256	304.8097	345.132	400.3701	469.653	498.3854	518.6097	664.4149	698.9484	776.893	839.1761	892.5779	907.7618	919.0231	930.0166	967.1742	981.4612	1021.7163	1024.2829	1068.5124	1108.1303	1157.8518	1160.1215	1187.6913	1197.7007	1203.2406	1244.277	1249.0176	1261.9146	1275.7687	1302.2961	1328.1341	1397.0637	1405.5763	1464.4966	1480.0873	1491.1857	1496.0676	1505.3968	1517.8577	3010.6455	3022.0954	3058.2872	3063.4888	3066.8033	3069.1527	3090.3014	3106.443	3119.9531	3121.8101	3141.0749	3815.4691
CC1(O)COC11CCC1	C[C@@]1(O)COC21CCC2	
InChI=1S/C7H12O2/c1-6(8)5-9-7(6)3-2-4-7/h8H,2-5H2,1H3	InChI=1S/C7H12O2/c1-6(8)5-9-7(6)3-2-4-7/h8H,2-5H2,1H3/t6-/m1/s1
