17
gdb 12479	3.2658	2.09946	1.54407	3.9615	65.37	-0.2546	0.0398	0.2943	855.6424	0.144571	-401.010704	-401.003552	-401.002608	-401.042374	26.98	
N	-0.2729464642	 0.9139811013	-0.6831088579	-0.540026
C	 0.0348742498	 0.0380123388	 0.17029786	 0.439503
O	 1.2863375941	-0.4880398387	 0.2923836566	-0.253956
C	 1.526939422	-1.3887867237	 1.3855879918	-0.069379
C	 0.9364492147	-2.7862155006	 1.1288054092	-0.209144
C	-0.3802569134	-2.7292688836	 0.3383111666	-0.226188
C	-1.3956394038	-1.7316369997	 0.8888282334	-0.068412
O	-0.8638289629	-0.4060092196	 1.0819449444	-0.238321
H	 0.5560761534	 1.179283717	-1.2147117343	 0.224951
H	 2.6145124759	-1.4310369887	 1.475407457	 0.11628
H	 1.1198177426	-0.9561068475	 2.3023035162	 0.126657
H	 1.6510123201	-3.4003329757	 0.5712611931	 0.111179
H	 0.7851068851	-3.2780217089	 2.0970642313	 0.106971
H	-0.162007181	-2.4741787545	-0.704461475	 0.131571
H	-0.8519935814	-3.7178375564	 0.3188513101	 0.107505
H	-2.2594305548	-1.6621311156	 0.2163726021	 0.123799
H	-1.7531765061	-2.0314074539	 1.8784980455	 0.11701
78.319	114.6691	257.915	299.7041	344.3798	410.2032	504.0881	593.8305	644.6212	744.0943	800.1999	827.6527	854.3433	879.4802	883.4347	935.3556	1010.3968	1024.7574	1055.4073	1112.2205	1125.3772	1146.9339	1238.6328	1251.817	1285.4917	1299.8692	1314.5993	1377.5668	1389.9731	1414.4654	1431.0711	1482.0637	1490.9819	1503.1264	1512.1557	1761.2266	3031.1411	3036.88	3046.8882	3068.8282	3074.6608	3081.9705	3097.2084	3122.8594	3498.6131
N=C1OCCCCO1	[NH][C]1OCCCCO1	
InChI=1S/C5H9NO2/c6-5-7-3-1-2-4-8-5/h6H,1-4H2	InChI=1S/C5H9NO2/c6-5-7-3-1-2-4-8-5/h6H,1-4H2
