21
gdb 88073	3.16023	1.25864	1.17545	1.5152	81.93	-0.2239	0.0872	0.311	1170.2204	0.183153	-387.064072	-387.055779	-387.054835	-387.096731	32.855	
C	-0.0665526019	 1.535576278	 0.015386573	-0.411044
C	-0.0160997929	 0.0230239973	 0.0630294491	-0.043317
C	 1.2651924288	-0.7223133806	-0.2426785141	-0.353
C	 0.7073865804	-0.7165797961	 1.1602005852	 0.346911
C	 1.4205859122	 0.0114525513	 2.3065015153	-0.172697
O	 1.7636510787	-0.98392488	 3.2723349517	-0.260248
C	 0.9097475686	-2.0847805258	 3.0976922482	 0.12192
C	-0.5799599126	-1.8589753723	 3.0832173944	-0.34186
C	 0.1988925596	-1.9903817057	 1.7796072519	-0.160437
H	 0.8756947462	 1.9822215608	 0.3489108577	 0.116204
H	-0.2524448987	 1.8879055885	-1.0051823896	 0.118516
H	-0.8648670153	 1.9319444023	 0.6528605168	 0.118401
H	-0.9257928434	-0.4596620002	-0.2870658234	 0.083654
H	 1.2102346365	-1.6404764211	-0.8191416737	 0.108384
H	 2.1584319627	-0.1334101079	-0.4317481065	 0.1075
H	 2.3431256528	 0.5144944893	 2.0019329662	 0.10956
H	 0.7621963557	 0.7650220323	 2.7641800114	 0.096899
H	 1.3347852392	-2.9960320037	 3.501226968	 0.100077
H	-1.2087440612	-2.696378627	 3.3669479083	 0.111071
H	-0.9720803613	-0.8882945113	 3.368116199	 0.116428
H	 0.0341559258	-2.8520024281	 1.1430694512	 0.087077
97.8462	149.6633	189.4907	200.0275	277.3605	363.1026	387.1313	422.0558	487.1287	537.0635	698.452	733.6486	784.1274	805.4016	844.4686	882.7708	917.6389	929.0826	951.1972	977.9386	989.9684	1020.2792	1028.089	1053.5761	1059.3747	1083.5408	1096.1067	1116.2676	1131.5493	1162.2549	1185.3574	1199.7383	1233.1173	1252.764	1294.6313	1325.1431	1374.3566	1395.9792	1413.2587	1436.2081	1476.0149	1490.7823	1491.2597	1505.84	1524.7894	2983.4672	3027.5169	3071.7189	3087.4034	3096.093	3116.0082	3129.6674	3132.0355	3171.6294	3185.8275	3200.7599	3216.9793
CC1CC11COC2CC12	C[C@H]1C[C@]21CO[C@H]1C[C@@H]21	
InChI=1S/C8H12O/c1-5-3-8(5)4-9-7-2-6(7)8/h5-7H,2-4H2,1H3	InChI=1S/C8H12O/c1-5-3-8(5)4-9-7-2-6(7)8/h5-7H,2-4H2,1H3/t5-,6+,7-,8+/m0/s1
