17
gdb 9822	3.57503	1.5108	1.18723	4.0101	65.17	-0.255	-0.0272	0.2278	1024.1362	0.140596	-400.988942	-400.980386	-400.979442	-401.022117	31.122	
C	-0.2112486191	 1.421694811	-0.7976792857	-0.468206
C	-0.0844495057	 0.1556805135	 0.0216731688	 0.208748
C	 0.8762584428	-0.9061676569	-0.4302818354	-0.263486
N	 1.1532584241	-0.131038583	 0.7767366122	-0.337736
C	-1.3422127964	-0.2900017221	 0.7087708773	 0.322787
O	-2.4371623478	 0.0576838921	 0.3101755942	-0.339737
C	-1.2520463912	-1.1749158183	 1.9448691495	-0.135118
O	-2.5259103871	-1.5627718235	 2.369251974	-0.424464
H	 0.7172284185	 1.6267084307	-1.3393024601	 0.111542
H	-1.0264808723	 1.3285935552	-1.5186976911	 0.152336
H	-0.4356719719	 2.2806082876	-0.156899036	 0.133989
H	 0.657334578	-1.9573817865	-0.2674790615	 0.132264
H	 1.4312281815	-0.6938996018	-1.3406108704	 0.126151
H	 1.8418849347	 0.5932428145	 0.5883752675	 0.240247
H	-0.6230413411	-2.0523877629	 1.7374382454	 0.120364
H	-0.7123981696	-0.6008509061	 2.7155226577	 0.128874
H	-3.1408592474	-1.0741774534	 1.7985436835	 0.291444
66.3135	104.7808	189.7499	197.581	262.522	318.7903	348.1516	363.4173	438.5045	481.6876	534.7613	581.2862	776.1474	813.514	852.3138	939.0545	976.0589	981.2991	1027.829	1049.9699	1078.4111	1124.8334	1143.1626	1150.2912	1235.1581	1261.9801	1302.4707	1342.4613	1382.7236	1413.304	1455.0871	1475.7895	1479.5879	1500.9659	1513.3432	1775.9256	2987.495	3018.62	3040.7846	3106.5931	3109.8349	3130.294	3196.8463	3504.773	3680.0443
CC1(CN1)C(=O)CO	C[C@]1(CN1)C(=O)CO	
InChI=1S/C5H9NO2/c1-5(3-6-5)4(8)2-7/h6-7H,2-3H2,1H3	InChI=1S/C5H9NO2/c1-5(3-6-5)4(8)2-7/h6-7H,2-3H2,1H3/t5-/m0/s1
