18
gdb 106057	2.70972	1.54314	1.22195	0.8646	70.84	-0.2519	0.0647	0.3166	1054.6628	0.148227	-439.019053	-439.010897	-439.009953	-439.051836	31.144	
O	 0.0569949283	 1.2273975012	-0.5323622372	-0.416797
C	-0.0145166336	 0.0426676875	 0.2454390784	-0.183504
C	-1.415701397	-0.4824232213	 0.3161633259	 0.25681
C	-1.7818192328	-1.9263774441	 0.2413821377	-0.087044
C	-3.2524380373	-2.0836609565	 0.589933386	-0.241295
C	-3.4080619829	-0.7554153237	-0.1728659626	-0.041047
C	-2.676578542	 0.3029629585	 0.6595901904	 0.086009
O	-3.1055043425	 0.442772035	 1.9920549125	-0.439231
N	-2.0715317636	-1.0342338387	-0.9379561437	-0.220646
H	-0.3283966119	 1.0073289633	-1.3890640254	 0.292233
H	 0.6551118303	-0.7393024643	-0.145757371	 0.095517
H	 0.3445930725	 0.3095316608	 1.2461764697	 0.113415
H	-1.0227944825	-2.6989085854	 0.1818667735	 0.095134
H	-3.6967851858	-2.9136970509	 0.0355152198	 0.110844
H	-3.5559356456	-2.1137263731	 1.6388780994	 0.120068
H	-4.3095452236	-0.5148386304	-0.732131139	 0.083766
H	-2.6532434271	 1.2625165005	 0.1296107522	 0.086273
H	-2.721525313	 1.2451132716	 2.3576226235	 0.289497
75.9006	168.4269	188.3646	217.1926	227.8311	326.8905	383.7551	449.4484	530.7055	600.7486	676.4168	732.596	766.4895	794.5979	860.529	886.8857	942.5383	977.869	987.0833	995.3362	1032.1086	1048.964	1067.3805	1130.5745	1134.7459	1175.2277	1193.7603	1211.5618	1231.7264	1261.0033	1273.9557	1303.6474	1330.0826	1382.0866	1410.3763	1434.8321	1449.679	1491.7746	1493.9073	2983.0536	3042.927	3062.3881	3066.4879	3123.4484	3143.169	3175.0146	3789.1574	3831.6619
OCC12C3CC(C1O)N23	OC[C@@]12[C@H]3C[C@@H]([C@H]1O)N23	
InChI=1S/C6H9NO2/c8-2-6-4-1-3(5(6)9)7(4)6/h3-5,8-9H,1-2H2	InChI=1S/C6H9NO2/c8-2-6-4-1-3(5(6)9)7(4)6/h3-5,8-9H,1-2H2/t3-,4+,5+,6+,7?/m0/s1
