20
gdb 76732	1.98425	1.81378	1.23165	2.0023	75.58	-0.2384	0.052	0.2903	1102.2255	0.16926	-440.250322	-440.240763	-440.239819	-440.284026	36.284	
C	 0.0597034819	 1.5743343222	-0.0341332501	-0.49389
C	-0.0392234742	 0.0867984826	 0.094989076	 0.247201
N	 1.0954718598	-0.7705820052	-0.2493578704	-0.412392
C	 0.5250007073	-0.9012817922	 1.0922184739	 0.294359
C	 1.3963306065	-0.7534793168	 2.3013877707	-0.495996
C	-0.7371287014	-1.7669398367	 1.0076809939	-0.01723
O	-1.4564164593	-1.7201607777	 2.2312370707	-0.428044
C	-1.3344698063	-0.743221102	-0.0471493039	 0.052105
O	-2.5133828763	-0.1338307752	 0.4013946689	-0.433239
H	 1.0131592871	 1.9386124563	 0.3578729003	 0.126273
H	-0.0091194481	 1.8785490986	-1.0851575157	 0.12268
H	-0.7589713251	 2.0570786873	 0.5075363854	 0.126009
H	 0.8460105001	-1.5382665867	-0.8740316674	 0.219619
H	 2.0951156924	 0.0765312937	 2.168377627	 0.129772
H	 0.7904281701	-0.5712589675	 3.1933207233	 0.131092
H	 1.9857189744	-1.6621566682	 2.4725059786	 0.119565
H	-0.5878886172	-2.8071885907	 0.685533411	 0.063586
H	-2.1851002309	-2.3473011748	 2.1745548949	 0.296961
H	-1.5228587623	-1.1258538044	-1.0582636335	 0.07098
H	-2.4914047384	-0.2054654928	 1.3677695263	 0.280589
104.7609	161.1469	178.9262	184.6552	210.3441	232.0841	239.4079	315.4108	426.5771	433.5055	479.5809	511.9954	528.7168	571.8761	682.6053	700.1782	790.5754	834.1603	855.506	908.8015	968.9166	1060.7619	1066.5472	1095.3131	1110.0014	1128.8194	1153.336	1181.6281	1208.6979	1214.1547	1251.0226	1269.5523	1315.8684	1335.5705	1394.809	1409.5776	1418.0328	1444.5125	1473.8636	1477.2806	1488.2241	1490.8096	1501.0545	2997.1888	3028.3451	3032.4571	3034.0847	3096.2925	3097.8533	3121.4444	3125.7392	3428.6138	3708.9	3816.6517
CC12NC1(C)C(O)C2O	C[C@@]12N[C@]1(C)[C@@H](O)[C@H]2O	
InChI=1S/C6H11NO2/c1-5-3(8)4(9)6(5,2)7-5/h3-4,7-9H,1-2H3	InChI=1S/C6H11NO2/c1-5-3(8)4(9)6(5,2)7-5/h3-4,7-9H,1-2H3/t3-,4+,5+,6-
