14
gdb 26550	2.39272	1.89211	1.06347	5.7339	66.68	-0.2439	-0.0397	0.2042	1038.6614	0.100655	-473.881708	-473.873652	-473.872708	-473.914706	29.036	
C	-0.0177993865	 1.5427142311	 0.022448177	-0.482932
C	-0.0323399731	 0.0422573798	 0.0207318589	-0.027162
C	-1.1575160509	-0.6882993405	-0.1040614281	 0.406801
O	-2.3892546109	-0.1849510176	-0.2405677539	-0.40072
O	-1.162977402	-2.048269441	-0.104770343	-0.223207
C	 0.0518265779	-2.6657008255	 0.029873226	 0.118584
N	 1.1748117941	-2.1048098436	 0.1544224522	-0.292646
C	 1.237220855	-0.6740300245	 0.1614403369	 0.343183
O	 2.3038188537	-0.111600289	 0.2797242247	-0.337015
H	 0.6156411953	 1.9151100599	-0.7888463412	 0.146964
H	-1.0206395887	 1.957167084	-0.089659403	 0.131783
H	 0.4207759365	 1.915081058	 0.9536476807	 0.146932
H	-3.017421886	-0.9148980342	-0.3103645937	 0.314685
H	-0.0821553744	-3.7432000869	 0.0149411065	 0.154751
77.5972	99.1657	185.6089	260.0733	270.8298	337.9434	369.3598	478.5786	512.3214	521.7315	577.6643	674.2076	690.5596	804.2011	878.4192	921.473	953.6805	1004.7531	1063.7892	1071.625	1175.8595	1276.6875	1287.9837	1396.2799	1411.5623	1420.9221	1477.5643	1487.6878	1667.6385	1755.7439	1789.7322	3046.0217	3098.9093	3144.0278	3190.8838	3801.1409
CC1=C(O)OC=NC1=O	Cc1c(O)ocnc1=O	
InChI=1S/C5H5NO3/c1-3-4(7)6-2-9-5(3)8/h2,8H,1H3	InChI=1S/C5H5NO3/c1-3-4(7)6-2-9-5(3)8/h2,8H,1H3
