17
gdb 16484	3.0302	2.54674	1.70401	1.1652	67.28	-0.2309	0.0646	0.2956	800.4174	0.142474	-363.792148	-363.785086	-363.784142	-363.822886	27.898	
C	-0.0662830292	 1.4790611443	 0.0863886983	-0.505044
C	-0.0773939524	-0.0147469177	 0.0323907237	 0.310768
C	 0.0447181339	-1.0453284136	 1.1066063775	-0.135994
C	-0.4320228159	-2.102295073	 0.0316592555	-0.125218
C	 1.0202368116	-2.0805120053	-0.4556409255	-0.155113
N	 1.2148758708	-0.7512478607	 0.2251474478	-0.184612
C	-1.0502144772	-0.9112920565	-0.7518346601	 0.107845
O	-2.4038070949	-0.6350659399	-0.4703479197	-0.444513
H	 0.5756178669	 1.8347199676	 0.896667249	 0.131911
H	 0.3126821241	 1.8982159536	-0.8522474968	 0.127987
H	-1.0793566855	 1.86341257	 0.2424814012	 0.123302
H	 0.0835195644	-1.0025300054	 2.1876642467	 0.098288
H	-1.0101586526	-3.0118669373	 0.1851641526	 0.077613
H	 1.6680094201	-2.8132392317	 0.032067683	 0.111158
H	 1.2046953599	-2.084860685	-1.5370831573	 0.098489
H	-0.9752798005	-0.9428968126	-1.844189269	 0.083083
H	-2.4931763835	-0.545874847	 0.4866104133	 0.280051
179.9062	216.2451	222.7085	278.9628	328.115	404.2156	447.8102	530.1032	632.7003	741.4237	775.5345	803.8637	837.2182	908.1652	931.3161	943.0199	972.4395	994.9481	1022.5071	1061.3494	1082.0471	1112.9274	1158.4713	1162.4799	1184.7922	1213.2632	1231.5744	1275.1602	1289.2708	1311.0413	1387.4711	1423.045	1445.4473	1481.4768	1492.6279	1511.991	3027.8774	3035.1552	3057.8976	3097.9777	3099.3813	3119.3308	3132.8901	3194.7952	3777.895
CC12C3C(CN13)C2O	C[C@]12[C@H]3[C@H](CN13)[C@H]2O	
InChI=1S/C6H9NO/c1-6-4-3(5(6)8)2-7(4)6/h3-5,8H,2H2,1H3	InChI=1S/C6H9NO/c1-6-4-3(5(6)8)2-7(4)6/h3-5,8H,2H2,1H3/t3-,4+,5+,6+,7?/m0/s1
