23
gdb 60921	2.08531	1.25579	0.93819	2.6935	86.52	-0.2396	-0.0163	0.2233	1371.5827	0.202691	-388.295447	-388.284407	-388.283463	-388.332437	39.197	
C	-1.9711862281	 0.6450181032	 1.7298116647	-0.413379
C	-1.2503511362	-0.4823175977	 0.9680756904	-0.082028
C	-0.9430495914	-0.024841456	-0.4466610986	 0.176956
O	-1.3468963512	-0.5481639662	-1.4528769784	-0.257277
C	 0.05880382	-0.8563128164	 1.6526972427	-0.033573
C	 0.144860044	-1.906540415	 2.747303116	-0.03812
C	-1.0546816869	-2.6823548936	 3.2507423328	-0.408221
C	 0.78794819	-2.1639141577	 1.3996653608	-0.035148
C	 0.2889388178	-3.2170750127	 0.430613191	-0.410253
H	-1.3572760957	 1.5525817517	 1.760578345	 0.119736
H	-2.9260478318	 0.8983684139	 1.2591234084	 0.125301
H	-2.165355181	 0.341562421	 2.7621706455	 0.13007
H	-1.9123034101	-1.3466686215	 0.879179405	 0.090487
H	-0.2786588754	 0.8725302034	-0.494950135	 0.065265
H	 0.7034524447	 0.0090619597	 1.7986592517	 0.080023
H	 0.8441849195	-1.6594026902	 3.5428729347	 0.083277
H	-1.7609706774	-2.9381005991	 2.4577263864	 0.120541
H	-0.7366090424	-3.6214313395	 3.7169320146	 0.11927
H	-1.6032893162	-2.1103643063	 4.007579887	 0.117403
H	 1.8718068125	-2.0733199464	 1.3936468459	 0.08219
H	-0.7988126057	-3.312048321	 0.4236898828	 0.122367
H	 0.5953209902	-2.9801435413	-0.5933398483	 0.130246
H	 0.7033040708	-4.1992528823	 0.6837161249	 0.114867
34.871	58.7904	115.7753	141.7094	165.0198	180.6783	211.8664	245.3054	259.5946	294.7486	356.2292	456.4463	487.8771	543.6124	563.5436	756.6419	771.9406	836.1482	893.4278	941.5935	949.3443	953.7148	1007.9999	1046.6012	1047.0657	1094.5197	1115.0786	1134.3867	1157.3758	1160.8935	1191.3877	1192.5138	1268.34	1271.696	1315.6567	1379.6065	1393.223	1403.9112	1419.2909	1424.5292	1428.6538	1451.3729	1485.0362	1493.4143	1495.928	1497.6591	1499.8819	1513.8713	1832.7674	2834.3572	3032.0223	3032.7503	3037.7798	3084.7347	3086.0908	3094.4611	3101.55	3108.8438	3111.1653	3116.7339	3121.9376	3126.7	3140.4929
CC(C=O)C1C(C)C1C	C[C@@H](C=O)[C@H]1[C@@H](C)[C@H]1C	
InChI=1S/C8H14O/c1-5(4-9)8-6(2)7(8)3/h4-8H,1-3H3	InChI=1S/C8H14O/c1-5(4-9)8-6(2)7(8)3/h4-8H,1-3H3/t5-,6-,7+,8-/m0/s1
