21
gdb 95834	2.77225	1.24158	0.95832	1.0975	74.86	-0.2475	0.063	0.3105	1275.8706	0.182531	-461.349535	-461.340351	-461.339407	-461.383224	34.957	
C	 0.5598916327	 1.4259048783	 0.1465035745	-0.397588
C	-0.2585046597	 0.1602224313	-0.1206151912	 0.127097
C	 0.2471518794	-0.5512098628	-1.3873508943	-0.104717
O	-0.3326560307	-1.8215399811	-1.6035489438	-0.238945
C	 0.3855135591	-2.8865666041	-1.014500811	-0.10944
C	 0.2723847603	-2.9615079575	 0.5147535365	 0.088743
O	 1.1458921325	-3.9690860174	 1.0112210146	-0.428055
C	 0.6734400699	-1.6564216291	 1.211413482	-0.09784
O	-0.3165118674	-0.6633884417	 1.0410021707	-0.260598
H	 1.6084824806	 1.1813156264	 0.3490451526	 0.117589
H	 0.5315013583	 2.1033580675	-0.7140281536	 0.114054
H	 0.1593345662	 1.9545834305	 1.0147594932	 0.128184
H	-1.3051011038	 0.4393779359	-0.2926332946	 0.090848
H	-0.0173036992	 0.0740545138	-2.2479436645	 0.108998
H	 1.3453554002	-0.6325553757	-1.3721794478	 0.090085
H	-0.0158193327	-3.8046554074	-1.460413494	 0.094831
H	 1.4559146752	-2.8280637172	-1.2736822565	 0.094809
H	-0.7731384195	-3.1607730062	 0.7929434912	 0.082135
H	 0.8464074966	-4.8208771525	 0.6787827253	 0.288846
H	 0.7410637185	-1.8540520774	 2.2855737424	 0.116442
H	 1.6693864835	-1.3299242437	 0.8785779582	 0.094521
73.7615	147.7163	217.5537	228.2254	234.8705	272.0495	306.3312	342.2169	371.8584	410.0555	454.0706	501.7948	553.4847	590.6686	801.1216	892.1712	899.1335	922.6156	936.6768	986.2165	1031.0396	1073.4191	1089.297	1110.2585	1128.5142	1156.1593	1180.6128	1200.8772	1241.1413	1265.6955	1300.9589	1329.308	1336.1799	1346.7397	1365.008	1401.3403	1407.15	1410.8339	1419.0445	1444.8455	1484.019	1489.709	1492.353	1497.3041	1509.58	2968.44	2979.2465	2995.9048	3009.2353	3031.9148	3035.6184	3055.1312	3062.483	3083.3041	3100.4953	3123.2879	3822.7988
CC1COCC(O)CO1	C[C@H]1COC[C@@H](O)CO1	
InChI=1S/C6H12O3/c1-5-2-8-3-6(7)4-9-5/h5-7H,2-4H2,1H3	InChI=1S/C6H12O3/c1-5-2-8-3-6(7)4-9-5/h5-7H,2-4H2,1H3/t5-,6+/m0/s1
