15
gdb 69235	2.67356	1.60687	1.18321	1.9979	67.37	-0.2524	-0.0392	0.2131	1013.0915	0.111596	-457.796701	-457.789041	-457.788097	-457.828804	29.542	
O	 0.1313554794	 1.3728678734	-0.1749515022	-0.461655
C	 0.0224006335	 0.0114688472	-0.0533329579	 0.353623
C	-0.4554219249	-0.8039201061	-1.2078449833	-0.345737
C	-1.3249409419	-0.7693783442	 0.0392714445	-0.22463
C	-1.1183299671	-1.8871758479	 1.0094286254	 0.416483
O	-1.9824521894	-2.5069397845	 1.5729841707	-0.313304
C	 0.3962144526	-2.0384164652	 1.2625862076	-0.456567
C	 0.9227430789	-0.6476815281	 0.9444530404	 0.331255
O	 1.8041972653	-0.0401052289	 1.5071848224	-0.336472
H	 0.7523568013	 1.6456326201	 0.5182949871	 0.302965
H	-0.8291790579	-0.2140164273	-2.0375083499	 0.152498
H	 0.0492081792	-1.7204289203	-1.4937803465	 0.133076
H	-2.2848539673	-0.2704927578	-0.0045079186	 0.131036
H	 0.6138538285	-2.3458408076	 2.2860748971	 0.160417
H	 0.8241126599	-2.7862524229	 0.5841227334	 0.157013
103.0051	133.1358	255.1439	304.4902	344.7896	399.9025	437.312	479.4739	516.3025	542.9689	603.1068	669.9557	717.3993	760.7804	839.7293	879.6399	901.4029	965.7815	989.7604	1051.588	1072.2681	1097.6203	1128.4975	1203.6101	1209.6417	1223.3107	1282.543	1388.4257	1423.9878	1438.1423	1491.1234	1804.7479	1853.2624	3051.1554	3134.03	3138.5115	3206.5271	3226.5475	3715.1648
OC12CC1C(=O)CC2=O	O[C@]12C[C@H]1C(=O)CC2=O	
InChI=1S/C6H6O3/c7-4-1-5(8)6(9)2-3(4)6/h3,9H,1-2H2	InChI=1S/C6H6O3/c7-4-1-5(8)6(9)2-3(4)6/h3,9H,1-2H2/t3-,6+/m0/s1
