17
gdb 31091	2.31132	1.45178	0.90177	1.4294	73.45	-0.1689	0.0432	0.2121	1267.8802	0.134796	-455.174539	-455.164738	-455.163794	-455.21156	33.847	
C	-0.0211923774	 1.3891040137	-0.0037719039	-0.231872
O	 0.0070031152	-0.0299162067	 0.0484413603	-0.29642
C	-1.2092964131	-0.6380476194	 0.0518911529	 0.231674
C	-1.3903076685	-1.9931972462	 0.0998028821	 0.267138
O	-0.5534787661	-3.061772877	 0.1532533184	-0.446695
N	-2.7543315811	-2.1770600512	 0.0848269651	-0.341108
C	-3.3371105578	-0.9366442292	 0.0290133446	 0.331863
C	-4.8117378568	-0.7233800576	-0.0025528963	-0.495482
N	-2.4146009015	 0.0067576975	 0.0084219604	-0.381508
H	 1.0218511232	 1.711368543	 0.0007123576	 0.118989
H	-0.5180464588	 1.7451873001	-0.9130660575	 0.127199
H	-0.5456715485	 1.8099315836	 0.8612831802	 0.127135
H	 0.3457551106	-2.7155388002	 0.1548117193	 0.313094
H	-3.2157048641	-3.0709089689	 0.1109510084	 0.267399
H	-5.3087924943	-1.1240920014	 0.8895626702	 0.127319
H	-5.0031314093	 0.349777734	-0.0458998715	 0.153954
H	-5.2805523316	-1.190432434	-0.8775251802	 0.12732
6.4236	77.3431	158.9717	175.9727	192.1618	212.662	262.4512	278.4662	354.5054	362.7364	464.1913	580.6847	608.0604	639.4699	660.0457	697.7936	835.185	992.1181	1034.1274	1058.0599	1074.513	1160.9149	1181.4361	1206.4517	1227.6954	1259.1888	1354.764	1410.0372	1440.3835	1475.6289	1478.3196	1480.2381	1498.796	1506.9442	1532.2192	1573.5936	1699.4288	3018.7699	3023.7235	3063.0484	3085.5112	3131.6712	3143.1944	3664.8234	3825.9368
COC1=C(O)NC(C)=N1	COc1c(O)[nH]c(C)n1	
InChI=1S/C5H8N2O2/c1-3-6-4(8)5(7-3)9-2/h8H,1-2H3,(H,6,7)	InChI=1S/C5H8N2O2/c1-3-6-4(8)5(7-3)9-2/h8H,1-2H3,(H,6,7)
