19
gdb 92666	2.52176	1.74115	1.43916	2.706	70.43	-0.2489	0.0711	0.32	982.5075	0.161258	-460.147081	-460.139491	-460.138546	-460.179017	30.163	
O	 0.2417545797	 1.3707563058	-0.2245196314	-0.435062
C	 0.1015231895	-0.0105236907	-0.0018763293	 0.128457
C	 0.2097628632	-0.4895989594	 1.4797226742	-0.261019
C	-1.3294925884	-0.5647040869	 1.545471877	 0.083707
O	-1.8132961953	 0.6609023269	 2.0989230117	-0.258743
C	-2.9833258344	 1.114144605	 1.4720476349	 0.006485
O	-2.7496390985	 1.4551158906	 0.1312932477	-0.238877
C	-2.4724543422	 0.2882873387	-0.64774641	-0.122031
C	-1.3695467699	-0.5486234274	-0.0142644078	-0.070089
H	-0.4610729655	 1.8241293037	 0.2582409105	 0.289478
H	 0.7835869978	-0.4957726772	-0.7047737428	 0.083045
H	 0.6799919598	-1.4730259606	 1.5663370072	 0.10058
H	 0.6729904139	 0.205286859	 2.1825646857	 0.116295
H	-1.7969377818	-1.4137539181	 2.0601929242	 0.068902
H	-3.7821779644	 0.3520113237	 1.5354783637	 0.080595
H	-3.2888855711	 2.0251086102	 1.9901568797	 0.12098
H	-3.3955932371	-0.3046993533	-0.7468856247	 0.097162
H	-2.1809884945	 0.644003766	-1.639316669	 0.127983
H	-1.3968077807	-1.5694634761	-0.4073832216	 0.08215
101.6837	152.5075	230.6353	335.8781	378.7538	405.5346	412.174	444.6309	476.9551	591.135	710.0839	763.8191	800.0285	835.5874	897.0983	915.766	929.6178	971.7881	1016.7294	1025.1273	1042.1164	1073.1231	1120.0245	1146.2326	1172.3283	1187.7089	1200.9144	1250.8402	1259.959	1282.0432	1294.1176	1304.7463	1331.4341	1352.4253	1362.1361	1399.1026	1438.0702	1450.8062	1465.4878	1484.7106	1510.8153	2933.0879	2979.4643	3018.1721	3063.1488	3064.3435	3081.2156	3097.4467	3115.2448	3131.7729	3775.4514
OC1CC2OCOCC12	O[C@H]1C[C@H]2OCOC[C@@H]12	
InChI=1S/C6H10O3/c7-5-1-6-4(5)2-8-3-9-6/h4-7H,1-3H2	InChI=1S/C6H10O3/c7-5-1-6-4(5)2-8-3-9-6/h4-7H,1-3H2/t4-,5-,6+/m0/s1
