22
gdb 60429	3.30285	0.76935	0.7334	6.3035	79.94	-0.2466	0.0297	0.2763	1655.5437	0.19344	-441.52871	-441.518423	-441.517478	-441.564913	37.3	
C	-0.2304867287	 1.4309486422	 0.4947211136	-0.406346
C	 0.034268485	-0.0072689393	 0.0462527304	 0.071709
C	 0.9684012309	-0.7259071327	 1.0241763893	-0.377386
N	-1.2586509887	-0.7132403954	-0.0581555548	-0.307613
H	-2.1020125198	-1.5389927223	 1.2788520106	 0.298775
H	-1.9384962762	-0.0812254379	-0.4737320636	 0.226184
C	-1.2510356814	-1.9591642459	-0.8406790152	-0.164766
C	-2.6054721355	-2.670854855	-0.7274562242	-0.349871
C	-2.9883481771	-3.1198071757	 0.6897031148	 0.405137
O	-2.6134069728	-2.2922994994	 1.6756893293	-0.375646
O	-3.6030855647	-4.1314859552	 0.9026721965	-0.331964
H	 0.7072350402	 1.9866579789	 0.5782300225	 0.126712
H	-0.8693981534	 1.9613778648	-0.2204527524	 0.112915
H	-0.7258679323	 1.4444059764	 1.4711414361	 0.131761
H	 0.52214473	 0.0218169687	-0.9437369239	 0.069918
H	 1.1875654668	-1.7504418966	 0.7118819372	 0.122875
H	 1.9221073165	-0.1940676336	 1.0912038915	 0.120718
H	 0.5222388624	-0.763330129	 2.0231672864	 0.132431
H	-1.0087226654	-1.7800560855	-1.899991333	 0.102104
H	-0.4657822633	-2.6080925353	-0.441227603	 0.130811
H	-3.4013917639	-2.0050664966	-1.0900366899	 0.124246
H	-2.6270467785	-3.5576748956	-1.3635260983	 0.137297
43.4263	63.0051	93.2586	179.4661	195.1462	229.051	250.5962	292.7897	312.7682	397.6742	427.6368	485.5492	514.8829	578.2568	701.6237	783.635	823.9574	840.0054	901.5278	931.8258	956.3519	962.1867	992.9964	996.9791	1069.4244	1102.5543	1141.2639	1165.9254	1198.2469	1233.6606	1247.9872	1287.4186	1346.7782	1353.192	1374.0211	1397.6752	1409.1182	1421.1122	1459.7773	1477.706	1484.7848	1490.7381	1504.7066	1506.8225	1512.7277	1517.9389	1859.5208	2946.2749	2980.1828	3022.5091	3032.1571	3041.9458	3083.7514	3099.0996	3113.7909	3115.4763	3120.4135	3121.6572	3224.3172	3491.0023
CC(C)[NH2+]CCC([O-])=O	CC(C)NCCC(=O)O	
InChI=1S/C6H13NO2/c1-5(2)7-4-3-6(8)9/h5,7H,3-4H2,1-2H3,(H,8,9)	InChI=1S/C6H13NO2/c1-5(2)7-4-3-6(8)9/h5,7H,3-4H2,1-2H3,(H,8,9)
