13
gdb 5466	3.62433	1.95162	1.26854	2.0927	71.97	-0.1912	0.0036	0.1948	885.1746	0.095669	-361.467209	-361.459902	-361.458957	-361.498403	27.819	
O	 0.0958447249	 1.3552006615	 0.0972361115	-0.441527
C	 0.0578353438	 0.0026659701	 0.0463725683	 0.246212
C	 0.0279047973	-0.7889323884	-1.0994723873	 0.078218
N	-0.0059471405	-2.1077852715	-0.6607584488	-0.318433
C	 0.0028256723	-2.1412938017	 0.6986340193	-0.078704
C	 0.0419176611	-0.8455289694	 1.175944278	-0.222752
C	 0.0297380263	-0.390046855	-2.4422948895	 0.203894
C	 0.0328751653	-0.0010012979	-3.5863598274	-0.458083
H	 0.0989476153	 1.6891172473	-0.8083474041	 0.299243
H	-0.0324976625	-2.9039652455	-1.2723423372	 0.268927
H	-0.0194702811	-3.0784366287	 1.2311585667	 0.125017
H	 0.0575600244	-0.5368101397	 2.2084568718	 0.108607
H	 0.0356329535	 0.3334042089	-4.593804681	 0.189382
126.003	150.7271	304.1646	367.4544	367.853	393.1565	401.1496	480.0689	519.1036	617.1512	634.3097	690.3818	699.1734	722.7416	742.0234	820.9088	909.8317	1077.7079	1093.5358	1162.8722	1256.9519	1266.8264	1364.6375	1458.0868	1487.1036	1549.7781	1607.5111	2206.8735	3258.9387	3276.507	3500.9256	3692.8766	3786.4891
OC1=C(NC=C1)C#C	Oc1c([nH]cc1)C#C	
InChI=1S/C6H5NO/c1-2-5-6(8)3-4-7-5/h1,3-4,7-8H	InChI=1S/C6H5NO/c1-2-5-6(8)3-4-7-5/h1,3-4,7-8H
