12
gdb 23671	4.02734	1.81765	1.2524	0.7288	59.17	-0.2444	-0.021	0.2234	856.3824	0.085481	-422.696556	-422.690613	-422.689669	-422.726638	23.08	
O	 0.092174137	 1.3384346504	 0.0973746261	-0.414568
C	 0.070493987	-0.0075198247	 0.0583112576	 0.468093
N	 0.0804528211	-0.5835096188	-1.140050567	-0.365168
C	 0.0589294797	-1.9209332582	-1.1787649253	 0.013222
C	 0.0272040706	-2.7306891541	-0.0536386363	-0.274561
C	 0.0178522697	-2.0841890688	 1.1800832142	 0.353008
F	-0.0122842748	-2.806773343	 2.2965311945	-0.07099
C	 0.0392300485	-0.706560845	 1.2690695581	-0.37189
H	 0.112035541	 1.62905321	-0.8253077217	 0.300461
H	 0.0676476865	-2.3673802692	-2.1694489055	 0.120923
H	 0.0103539154	-3.810328238	-0.1180469062	 0.115218
H	 0.0322748824	-0.1928781505	 2.2206937516	 0.126252
213.8099	244.3872	342.2418	471.8854	477.3548	522.0333	544.3127	570.1102	670.3984	763.6193	789.9113	828.6984	876.472	980.9654	983.8166	1013.4973	1101.2907	1163.359	1240.3989	1316.4566	1333.7953	1370.547	1494.906	1528.2514	1634.1457	1655.3686	3167.1023	3226.4331	3229.8424	3766.6019
OC1=NC=CC(F)=C1	Oc1nccc(F)c1	
InChI=1S/C5H4FNO/c6-4-1-2-7-5(8)3-4/h1-3H,(H,7,8)	InChI=1S/C5H4FNO/c6-4-1-2-7-5(8)3-4/h1-3H,(H,7,8)
