12
gdb 45610	3.72753	1.27023	0.94739	5.3879	73.52	-0.2354	-0.1045	0.1309	1120.9541	0.076672	-435.504554	-435.496773	-435.495829	-435.536977	28.539	
O	-0.0104780692	-0.0393238036	 0.0057026624	-0.306609
C	-0.0182572276	 1.1595155863	 0.0107652974	 0.373276
N	-1.1325012431	 1.9929201831	 0.0284226975	-0.346409
C	-0.75233906	 3.32479289	 0.0290925213	-0.097779
C	 0.5971801	 3.5043707053	 0.0124562835	 0.005113
C	 1.300390909	 4.7239893421	 0.00894358	 0.244763
C	 1.9338728992	 5.7481002547	 0.0054211476	-0.42
C	 1.2025406077	 2.15265213	-0.0020698262	 0.179285
O	 2.3520269079	 1.8044392358	-0.0175865209	-0.272901
H	-2.0821768098	 1.6591830022	 0.0394103212	 0.280579
H	-1.5120252196	 4.0942833874	 0.0424039655	 0.163025
H	 2.4932284256	 6.6506452666	 0.0022959909	 0.197657
91.5574	130.6906	191.7975	278.956	311.7913	424.3096	446.283	489.9881	496.6353	550.8652	581.2091	637.7283	659.715	689.7094	780.1109	835.9806	921.4887	925.2269	1089.4026	1122.4634	1285.8092	1329.2817	1414.144	1637.5383	1831.8021	1869.4613	2232.9206	3236.9118	3502.4233	3659.0661
O=C1NC=C(C#C)C1=O	O=C1NC=C(C#C)C1=O	
InChI=1S/C6H3NO2/c1-2-4-3-7-6(9)5(4)8/h1,3H,(H,7,8,9)	InChI=1S/C6H3NO2/c1-2-4-3-7-6(9)5(4)8/h1,3H,(H,7,8,9)
