19
gdb 62716	2.73354	1.42754	1.25962	3.6874	82.39	-0.2343	-0.0502	0.184	1094.6888	0.159029	-385.917882	-385.909562	-385.908618	-385.950277	32.605	
C	-0.0964723333	 1.5519340784	 0.0067654598	-0.459635
C	 0.029689871	 0.0417381689	 0.0150734679	 0.315193
C	-1.1998015588	-0.6601998599	-0.535158155	-0.447785
C	 1.3545598204	-0.6842956784	-0.2356749332	-0.136902
C	 2.6181258484	 0.0914894688	-0.0847841577	-0.069352
C	 2.8102562856	 0.5138737277	 1.1740976658	-0.208889
C	 1.6930170409	 0.0466631973	 2.0438183303	 0.390945
O	 1.5738994583	 0.2171457415	 3.2361241955	-0.340128
C	 0.737542191	-0.7117566635	 1.1432195087	-0.214542
H	 0.8099384959	 2.0574166952	 0.341890076	 0.129672
H	-0.328845052	 1.9069965135	-1.003835052	 0.1153
H	-0.9165724263	 1.86352964	 0.6628497779	 0.127483
H	-1.3942729937	-0.3470333163	-1.5673358582	 0.121194
H	-1.0844501612	-1.7481121772	-0.5271524159	 0.117714
H	-2.0861776041	-0.411206904	 0.0590265959	 0.127146
H	 1.3366238537	-1.544737936	-0.8958856227	 0.09555
H	 3.267513593	 0.3077973365	-0.9262673133	 0.116089
H	 3.6196716617	 1.1287593827	 1.5455305921	 0.115997
H	 0.2430335496	-1.5823964653	 1.556616378	 0.104951
121.4305	191.6358	204.6474	218.6494	251.1263	323.8542	354.9417	419.5057	470.3945	487.9136	620.234	644.929	753.354	772.5694	792.6219	860.01	873.9874	899.8413	964.1573	970.3468	985.0489	994.4356	1022.2345	1046.8847	1081.7532	1117.6781	1138.4745	1181.6043	1204.1822	1296.9274	1300.9207	1364.8067	1370.2627	1409.7997	1425.7522	1482.3057	1487.6682	1503.2343	1507.7885	1627.6351	1805.1767	3026.0692	3034.1168	3087.453	3090.9929	3105.708	3136.0296	3164.8655	3189.5308	3191.2549	3228.9392
CC1(C)C2C=CC(=O)C12	CC1(C)[C@H]2C=CC(=O)[C@@H]12	
InChI=1S/C8H10O/c1-8(2)5-3-4-6(9)7(5)8/h3-5,7H,1-2H3	InChI=1S/C8H10O/c1-8(2)5-3-4-6(9)7(5)8/h3-5,7H,1-2H3/t5-,7-/m0/s1
