22
gdb 57773	3.35406	0.71073	0.66455	1.7365	93.94	-0.2259	0.0456	0.2715	1837.3909	0.19219	-367.173627	-367.162843	-367.161899	-367.211149	38.923	
C	-0.0283273772	 1.5748172825	 0.0606200651	-0.372805
C	-0.0291775441	 0.0335937678	 0.0111641083	-0.12955
C	 0.7758199866	-0.5641832724	 1.1825441618	-0.372444
C	-1.3966149769	-0.4881051257	-0.013544199	 0.129882
C	-2.5259677957	-0.9127485913	-0.0252879217	-0.035854
C	-3.8808741163	-1.4086475633	-0.0022013285	 0.179411
C	-4.8851885491	-0.5541873729	 0.7482527154	-0.450936
C	-4.3295308831	-2.2478106031	-1.1563933994	-0.265283
N	-4.0800004516	-2.8750158601	 0.1480603964	-0.347213
H	 0.9983670039	 1.953742077	 0.0351160661	 0.112141
H	-0.5746580234	 1.9961491713	-0.7871699913	 0.123568
H	-0.5027480638	 1.9305019553	 0.9804543125	 0.12423
H	 0.463847384	-0.2702350331	-0.9232023422	 0.103186
H	 1.8071915835	-0.197519428	 1.1606989357	 0.111752
H	 0.3298870625	-0.279478825	 2.1405081616	 0.124441
H	 0.7961833332	-1.6559322682	 1.1302306181	 0.121129
H	-4.9664888761	 0.4377082061	 0.2931472238	 0.121516
H	-5.8668493341	-1.0340685516	 0.7343728523	 0.125786
H	-4.5784943434	-0.4280172429	 1.7908983542	 0.12665
H	-5.3741322042	-2.2142501115	-1.4553303174	 0.118125
H	-3.6252945569	-2.4147776717	-1.9658095754	 0.117025
H	-3.1733491479	-3.3357552093	 0.1358378935	 0.235246
12.1518	76.2918	87.8127	181.9036	196.5343	223.2379	227.718	263.1529	300.6824	348.4206	370.033	485.528	493.9534	530.3886	569.3934	613.4956	781.2076	803.5949	880.976	926.6428	930.2364	963.1565	979.212	1002.7432	1040.0645	1078.7291	1101.827	1119.8185	1125.9515	1148.6202	1195.7476	1269.3806	1325.6823	1335.0704	1338.8736	1363.1829	1395.012	1412.2162	1418.0274	1480.9789	1485.4492	1488.7335	1495.9604	1498.6264	1505.4944	1510.3632	2351.527	3002.5479	3035.9515	3039.5414	3041.4431	3107.0733	3108.4366	3111.0613	3112.1839	3118.2772	3120.8565	3126.6386	3199.0023	3504.6954
CC(C)C#CC1(C)CN1	CC(C)C#C[C@@]1(C)CN1	
InChI=1S/C8H13N/c1-7(2)4-5-8(3)6-9-8/h7,9H,6H2,1-3H3	InChI=1S/C8H13N/c1-7(2)4-5-8(3)6-9-8/h7,9H,6H2,1-3H3/t8-/m0/s1
