16
gdb 29126	3.07783	1.43122	0.98287	2.4755	79.56	-0.1916	-0.0324	0.1592	1156.8689	0.126327	-434.121027	-434.113068	-434.112124	-434.153366	30.677	
C	 0.0400062655	 1.5228122508	 0.2327207281	-0.467826
C	-0.0230759296	 0.0402052918	 0.0197023841	 0.27977
C	-1.1721229929	-0.6739385442	 0.0531768471	-0.073884
N	-1.147169486	-2.0334760713	-0.1531906385	-0.336202
C	 0.004813133	-2.7600050583	-0.4018863381	 0.309501
N	-0.0477034994	-4.0270817654	-0.5844377404	-0.561213
C	 1.1871400233	-1.8767978952	-0.4144081413	 0.347433
O	 2.34391907	-2.5231662325	-0.6516866287	-0.406516
N	 1.182560599	-0.6054322544	-0.2238963139	-0.397753
H	 0.6791613264	 1.7690894062	 1.0882575126	 0.132032
H	 0.4688239455	 2.0268925478	-0.6408747796	 0.132043
H	-0.9537106446	 1.9400244404	 0.4159088556	 0.117562
H	-2.1443224346	-0.2366130145	 0.2364918349	 0.125378
H	-1.9990592119	-2.5740523037	-0.129163294	 0.265452
H	 0.8881464954	-4.3882809302	-0.7524417378	 0.23162
H	 3.0388356209	-1.8495738474	-0.63567263	 0.302604
99.3216	159.6307	214.109	290.1361	320.5779	333.2878	420.8891	483.7216	529.4219	566.43	581.2438	604.2769	652.0368	696.5653	772.3984	811.4852	818.9806	831.351	982.2227	1008.1658	1065.7172	1089.0442	1184.9137	1223.2808	1283.371	1350.3681	1385.4692	1419.596	1451.0029	1471.5073	1472.9613	1496.7811	1624.782	1683.0131	1708.4431	3028.3765	3080.1771	3116.5865	3222.4522	3529.7905	3624.2186	3763.1329
CC1=CNC(=N)C(O)=N1	CC1=NC(=C(NC1)[NH])O	
InChI=1S/C5H7N3O/c1-3-2-7-4(6)5(9)8-3/h2H,1H3,(H2,6,7)(H,8,9)	InChI=1S/C5H8N3O/c1-3-2-7-4(6)5(9)8-3/h6-7H,2H2,1H3,(H,8,9)
