18
gdb 43875	4.77453	1.07712	1.03058	4.0569	76.69	-0.2436	0.0384	0.282	1184.6109	0.148234	-401.942075	-401.93441	-401.933466	-401.974438	30.288	
O	 0.0715054908	-0.0338081117	-0.0082226787	-0.362817
C	-0.0278532569	 1.1629542839	 0.0122339923	 0.438936
C	-1.1782666655	 2.1954562352	 0.0898758105	-0.480427
C	-0.0617242055	 3.2797422558	 0.0401853274	 0.405339
C	 0.0375770911	 4.4013816927	-1.0454170486	-0.310575
C	 0.2286478241	 5.4375477029	 0.070619878	-0.038972
C	-0.9396746753	 5.39152268	 1.0098290034	-0.277115
C	 0.1290051234	 4.3367638044	 1.1311375343	-0.115919
N	 0.8995284311	 2.1779658301	-0.0322972804	-0.384628
H	-1.8559365828	 2.1750745453	-0.7657463748	 0.129126
H	-1.7521860146	 2.1624333549	 1.0179008277	 0.13176
H	 0.9267724778	 4.2606321642	-1.6649261187	 0.109854
H	-0.8293512964	 4.5422870787	-1.6996938283	 0.101828
H	 0.9028086745	 6.2836911694	 0.0315184989	 0.090644
H	-0.9410678362	 6.1358723844	 1.7995663395	 0.116909
H	-1.93079834	 5.1315419919	 0.6436385026	 0.110527
H	 0.6981727277	 4.1903532041	 2.0417443227	 0.090739
H	 1.9083829827	 2.1646286938	-0.0824361677	 0.244791
64.2773	123.3472	246.7241	357.5375	371.1877	392.9677	424.5231	464.5689	547.5245	565.0534	738.2549	772.8015	787.1655	836.8701	854.8445	915.1283	935.6992	965.1935	976.55	977.2303	1028.204	1058.5153	1067.4804	1086.353	1105.1178	1125.896	1148.0825	1182.8748	1190.8201	1223.8592	1244.982	1258.4469	1307.6157	1355.3212	1392.0168	1456.5085	1477.4926	1495.4705	1897.1137	3044.0595	3082.526	3104.6845	3105.7676	3141.1029	3178.3363	3189.7839	3203.1249	3598.1217
O=C1CC2(CC3CC23)N1	O=C1C[C@]2(C[C@H]3C[C@@H]23)N1	
InChI=1S/C7H9NO/c9-6-3-7(8-6)2-4-1-5(4)7/h4-5H,1-3H2,(H,8,9)	InChI=1S/C7H9NO/c9-6-3-7(8-6)2-4-1-5(4)7/h4-5H,1-3H2,(H,8,9)/t4-,5-,7+/m1/s1
