15
gdb 44977	3.55702	1.30433	1.08584	3.219	74.4	-0.2236	0.018	0.2416	1091.9695	0.112045	-416.769795	-416.761892	-416.760947	-416.802142	30.534	
N	-0.1191888456	 1.1613772707	 0.5752741788	-0.586768
C	-0.0451816323	 0.0340996479	 0.0123752397	 0.458506
N	-1.114553183	-0.7321792567	-0.4097404653	-0.401775
C	-0.6941073356	-2.0273197037	-0.8797069209	 0.172759
C	 0.1038115216	-1.9733958446	-2.183894431	-0.351991
C	 0.8172269159	-1.8945924981	-0.8647743646	 0.02772
O	 1.1193258889	-0.6294933742	-0.3308651608	-0.246459
C	-1.4292358716	-3.1810632087	-0.4681398457	 0.239395
C	-2.0676554387	-4.1443147148	-0.1356977408	-0.417215
H	 0.8094334742	 1.5235863391	 0.7754596029	 0.227924
H	-2.0184070108	-0.5906682126	 0.0070112539	 0.26986
H	 0.2126558923	-2.9022872789	-2.7321417968	 0.136188
H	 0.0011601781	-1.0725070785	-2.7781698551	 0.138758
H	 1.4858717313	-2.6761101147	-0.527752826	 0.132125
H	-2.6247418645	-4.9969790122	 0.1655993118	 0.200972
90.1366	150.7405	170.1578	278.3756	333.9112	424.6864	452.088	482.8106	528.328	584.3934	604.4671	682.3964	698.3723	707.3098	768.0807	794.8049	841.1857	889.1999	924.8584	969.5127	1030.4184	1043.5297	1072.8821	1094.8916	1157.6222	1236.3711	1246.7845	1318.7811	1381.749	1420.2429	1464.6291	1795.1628	2240.4488	3138.5301	3201.0014	3240.8923	3500.3553	3539.7483	3682.359
N=C1NC2(CC2O1)C#C	[NH][C]1N[C@]2(C[C@H]2O1)C#C	
InChI=1S/C6H6N2O/c1-2-6-3-4(6)9-5(7)8-6/h1,4H,3H2,(H2,7,8)	InChI=1S/C6H6N2O/c1-2-6-3-4(6)9-5(7)8-6/h1,4H,3H2,(H2,7,8)/t4-,6+/m1/s1
