12
gdb 123519	4.23567	1.80905	1.26764	0.6533	71.14	-0.245	-0.1083	0.1367	872.1763	0.080972	-427.841843	-427.836176	-427.835232	-427.871881	22.116	
C	-0.0268866193	 1.3020655271	 0.0095751101	 0.031491
N	 1.1947284864	 1.8101752717	 0.0009811733	-0.24924
C	 2.0767025169	 0.7707895885	-0.013534418	-0.16234
C	 1.3908820304	-0.4273554432	-0.013844162	 0.397114
N	 1.7000646139	-1.7339745368	-0.0243383716	-0.287675
C	 0.6743734902	-2.5391650913	-0.0189553643	 0.057748
N	-0.6645667842	-2.1777952734	-0.0038361819	-0.156457
N	-0.9990503063	-0.9492117822	 0.0064825224	-0.073545
N	 0.0230835112	-0.0541752813	 0.0016290196	-0.009972
H	-0.9571612531	 1.8470817631	 0.0215755463	 0.163219
H	 3.1445595819	 0.9198778716	-0.0229374261	 0.140813
H	 0.8427684919	-3.6096279938	-0.0267333379	 0.148844
208.1228	216.852	421.4839	438.922	586.2443	615.7701	650.1103	670.3231	753.2286	775.5316	806.5929	857.6741	901.3848	933.1142	934.5315	1058.6465	1140.9027	1189.7672	1227.1071	1244.612	1285.1833	1406.7858	1413.1511	1434.2572	1457.7973	1552.2128	1608.2785	3212.1552	3266.9964	3274.7832
C1=NC=C2N=CN=NN12	c1ncc2ncnnn12	
InChI=1S/C4H3N5/c1-4-6-2-7-8-9(4)3-5-1/h1-3H	InChI=1S/C4H3N5/c1-4-6-2-7-8-9(4)3-5-1/h1-3H
