21
gdb 79742	2.35962	1.76869	1.37285	1.2226	81.55	-0.2304	0.0784	0.3089	1059.1459	0.182771	-387.059463	-387.051136	-387.050192	-387.091682	33.497	
C	-0.015815792	 1.5625074047	 0.0913151505	-0.430276
C	 0.0525457941	 0.0551386437	-0.0578050563	-0.065497
C	 0.6239334148	-0.7809898522	-1.2103514947	-0.147573
C	 1.643826012	-0.309448879	-2.2210314739	-0.065603
C	 2.1690065472	 1.1157606489	-2.2421062463	-0.330519
C	 2.8546882426	 0.0655504338	-1.4077035931	 0.089215
O	 2.5309195993	-0.0442824618	-0.0387413948	-0.301369
C	 1.3118734157	-0.7555969104	 0.1381054589	 0.399666
C	 1.4309763185	-1.8882341624	 1.1201069589	-0.461609
H	 0.9796134467	 2.001922852	 0.1792404064	 0.139945
H	-0.5416782342	 2.0441887814	-0.7395304635	 0.119147
H	-0.560335501	 1.8104542761	 1.008439179	 0.111847
H	-0.8222793158	-0.4427826572	 0.357520357	 0.082072
H	 0.0309462512	-1.6388148833	-1.5084237197	 0.085426
H	 1.7283873423	-0.8989289969	-3.1263854162	 0.089011
H	 2.6896001148	 1.4126338055	-3.1476896148	 0.108798
H	 1.6157513262	 1.9115230464	-1.7682949306	 0.123491
H	 3.8714196536	-0.2404033181	-1.6345584862	 0.094127
H	 1.728052412	-1.5172973445	 2.1071729864	 0.126695
H	 0.4727693945	-2.4047218969	 1.2284354167	 0.113861
H	 2.1822719674	-2.6148257499	 0.7925827864	 0.119145
165.8042	181.6988	203.041	209.1296	246.7478	293.5178	342.4602	417.134	527.8842	574.7853	664.657	672.4032	703.0735	779.056	790.553	797.8942	846.0186	921.9975	947.2082	970.2671	979.2102	1012.4408	1025.6731	1057.0914	1069.1651	1096.2911	1106.3335	1127.8655	1137.3178	1148.4214	1170.6829	1205.0108	1224.0157	1273.3452	1338.2783	1360.7463	1376.2811	1411.6186	1413.3015	1456.3164	1474.8052	1478.4495	1498.4698	1504.5877	1518.6617	3030.6146	3036.698	3089.8328	3094.11	3108.6589	3113.8912	3131.3568	3142.1088	3152.4798	3161.7203	3179.7757	3266.237
CC1C2C3CC3OC12C	C[C@H]1[C@H]2[C@H]3C[C@H]3O[C@@]12C	
InChI=1S/C8H12O/c1-4-7-5-3-6(5)9-8(4,7)2/h4-7H,3H2,1-2H3	InChI=1S/C8H12O/c1-4-7-5-3-6(5)9-8(4,7)2/h4-7H,3H2,1-2H3/t4-,5-,6+,7-,8-/m0/s1
