19
gdb 71914	2.49877	1.94166	1.39301	3.0028	78.87	-0.2318	-0.0125	0.2193	985.9386	0.159924	-385.876451	-385.868806	-385.867862	-385.908272	30.369	
C	-0.0556278468	 1.5556936893	-0.0670387417	-0.495933
C	 0.0110980946	 0.0500876236	 0.0405611544	 0.207229
C	-1.3020118145	-0.7551884818	 0.3008057923	-0.275722
C	-0.5361448358	-1.7680644393	 1.1851187908	-0.034869
C	 0.2765630048	-2.8007932515	 0.3672551878	-0.234474
C	 1.3703941019	-1.7285311557	 0.0819196253	-0.166126
C	 0.7061859733	-0.808207325	 1.1791592777	-0.094752
C	 0.9093082852	-0.7011651304	-0.9551545856	 0.389266
O	 1.2594017995	-0.4493305585	-2.0746159572	-0.325283
H	 0.9443426887	 2.0001183608	-0.1006941191	 0.124326
H	-0.5748457289	 1.8473515932	-0.9865044974	 0.134854
H	-0.5959135959	 1.9897247409	 0.7808724916	 0.113923
H	-1.9822481605	-0.1473968344	 0.9060628404	 0.106024
H	-1.851898368	-1.1345582758	-0.5666333034	 0.103115
H	-1.0397566627	-2.1254388319	 2.0831792666	 0.070994
H	 0.684909449	-3.5769321274	 1.0203380147	 0.110833
H	-0.2056372857	-3.280691902	-0.490166602	 0.105232
H	 2.4129039652	-2.0447721405	 0.0448775797	 0.087667
H	 1.2241214964	-0.3922752039	 2.0388800552	 0.073694
119.4951	174.5214	211.6896	247.4491	282.5621	369.9876	439.6468	542.6414	582.685	681.0573	746.6605	790.3723	818.6011	836.2311	854.7459	889.8878	912.1132	931.3865	959.2505	977.6198	1025.5627	1030.9869	1067.363	1112.825	1118.9951	1147.8983	1150.8583	1192.1344	1208.601	1228.685	1238.9491	1253.9131	1300.945	1311.7038	1337.2074	1406.6749	1478.2951	1485.9801	1489.0972	1493.3068	1870.2424	3029.0204	3038.6674	3046.9275	3089.5818	3098.0159	3098.4553	3101.0526	3107.2027	3114.1823	3156.3827
CC12CC3CC(C13)C2=O	C[C@]12C[C@H]3C[C@H]([C@@H]13)C2=O	
InChI=1S/C8H10O/c1-8-3-4-2-5(6(4)8)7(8)9/h4-6H,2-3H2,1H3	InChI=1S/C8H10O/c1-8-3-4-2-5(6(4)8)7(8)9/h4-6H,2-3H2,1H3/t4-,5-,6+,8+/m1/s1
