21
gdb 108184	3.15479	1.43016	1.31196	1.1858	82.04	-0.2373	0.0204	0.2577	1081.2184	0.184508	-387.089685	-387.081801	-387.080857	-387.121781	31.97	
C	 0.039038156	 1.3692509004	-0.0222778779	-0.260072
O	-0.0360943086	-0.0389389133	 0.0211863509	-0.315223
C	-1.3306784518	-0.5784745277	 0.0418659036	 0.425657
C	-2.2455807958	-0.2516425412	-1.1949877511	-0.257005
C	-3.3072637287	-1.3901788263	-1.1415484227	-0.211235
C	-2.8745065094	-2.2137425131	 0.12092854	-0.068992
C	-1.3372152458	-2.119366893	-0.0031000416	-0.260056
C	-3.1031494698	-1.3135900717	 1.3259434046	-0.077216
C	-2.1912783435	-0.3383156821	 1.2825577611	-0.145423
H	 1.1002750795	 1.6295423781	-0.0130721002	 0.126367
H	-0.4155219166	 1.7821536176	-0.9338535043	 0.109357
H	-0.4416295897	 1.8413012778	 0.846995747	 0.105252
H	-2.6924092747	 0.7428789859	-1.1322193024	 0.095167
H	-1.6459430007	-0.2974132886	-2.1095036325	 0.101244
H	-4.3289972536	-1.0133536403	-1.0529004154	 0.096458
H	-3.2622060238	-2.0158907164	-2.0380251321	 0.098171
H	-3.3115475823	-3.2108912193	 0.175791313	 0.060115
H	-0.9417840797	-2.5170395059	-0.943330052	 0.090144
H	-0.8042305369	-2.5563608205	 0.8435611249	 0.100983
H	-3.9336622758	-1.4059670115	 2.0155705001	 0.092619
H	-2.1183665782	 0.5289327013	 1.926297457	 0.093691
89.647	185.8542	214.1654	250.1589	359.4872	369.4214	421.5288	484.4681	505.3463	611.3614	667.5909	729.1249	775.0437	797.0284	826.4168	870.9878	924.0399	934.0936	941.2589	954.5428	978.3035	1005.7609	1045.5002	1057.358	1104.6928	1119.2517	1145.2738	1174.5163	1184.2248	1206.7803	1219.2488	1239.3781	1253.2093	1260.0765	1304.1131	1308.2612	1326.822	1370.2828	1482.9149	1487.2325	1490.4067	1492.4564	1508.9301	1513.2996	1644.7065	2989.3722	3037.6184	3049.075	3052.5598	3061.5845	3093.7884	3110.1721	3111.9625	3113.6941	3122.6505	3192.4292	3220.3446
COC12CCC(C1)C=C2	CO[C@@]12CC[C@@H](C1)C=C2	
InChI=1S/C8H12O/c1-9-8-4-2-7(6-8)3-5-8/h2,4,7H,3,5-6H2,1H3	InChI=1S/C8H12O/c1-9-8-4-2-7(6-8)3-5-8/h2,4,7H,3,5-6H2,1H3/t7-,8-/m0/s1
