15
gdb 56706	2.77741	1.31438	1.04097	0.8534	69.66	-0.3154	-0.0163	0.2991	1129.8158	0.110979	-416.80655	-416.797643	-416.796699	-416.840538	31.49	
C	-0.4143846299	 1.6039731774	-0.3938842738	-0.405251
C	-0.0253750155	 0.1406617441	-0.095336518	-0.227531
C	-1.2058822596	-0.6558008485	 0.2491199853	 0.283177
N	-2.1355055202	-1.2799897195	 0.5330690302	-0.320335
C	 0.7273756894	-0.4814183094	-1.2813553755	 0.24839
C	 0.4986646322	-1.857770745	-1.7664956662	-0.213059
O	-0.0362839933	-0.7260619619	-2.4562664934	-0.240872
C	 2.0345398691	 0.1176282672	-1.5066430509	 0.269808
N	 3.0722955031	 0.605387146	-1.6488398521	-0.322472
H	 0.4846938595	 2.1915238868	-0.5952452745	 0.155048
H	-1.0708494706	 1.6493901638	-1.2655114493	 0.160822
H	-0.9335312897	 2.0404202638	 0.4614567097	 0.148257
H	 0.6489505383	 0.1166312448	 0.7698826012	 0.153167
H	 1.3070401496	-2.3755681963	-2.277333014	 0.147913
H	-0.2302690223	-2.4763333433	-1.2493397286	 0.162937
52.12	129.4193	166.7295	194.7697	225.0761	239.8048	271.2409	355.2053	420.5769	509.4498	560.5421	567.2939	605.0658	716.4567	840.0745	872.1516	913.3667	960.3276	1025.8412	1093.8977	1116.0688	1135.8582	1179.631	1195.8635	1304.8042	1338.7299	1371.2518	1412.7396	1493.456	1499.9278	1515.8394	2359.8966	2364.9247	3043.1699	3059.2177	3106.983	3140.2526	3146.8804	3209.1021
CC(C#N)C1(CO1)C#N	C[C@@H](C#N)[C@]1(CO1)C#N	
InChI=1S/C6H6N2O/c1-5(2-7)6(3-8)4-9-6/h5H,4H2,1H3	InChI=1S/C6H6N2O/c1-5(2-7)6(3-8)4-9-6/h5H,4H2,1H3/t5-,6+/m0/s1
