14
gdb 123326	4.14648	1.2796	1.06489	5.0472	74.87	-0.256	-0.0011	0.2548	1077.9503	0.101866	-395.648702	-395.641539	-395.640594	-395.680722	26.76	
C	-0.4604316502	-1.3338673678	-0.0937497669	-0.416247
C	-0.2190063583	-0.1587536411	-0.0386304765	 0.345073
C	 0.0452655419	 1.2607476544	 0.0347370087	-0.174951
C	-0.199194142	 1.9926955725	 1.4290291443	-0.393609
C	 1.2878821882	 2.321123542	 1.3870227007	 0.309992
C	 2.5276953788	 2.842994945	 1.6766253122	-0.206235
N	 3.3632550187	 2.4507931953	 0.660480183	-0.177623
N	 2.7270665935	 1.7353514442	-0.2389062865	-0.177813
N	 1.4714665889	 1.6651652445	 0.2327908664	 0.107522
H	-0.6640429336	-2.3753528032	-0.147170951	 0.216342
H	-0.3994118235	 1.7922286169	-0.8109983385	 0.146614
H	-0.8802137965	 2.8431864968	 1.3695294632	 0.143891
H	-0.5138355735	 1.3162330276	 2.2241914538	 0.149459
H	 2.8895799777	 3.4411389429	 2.4950705072	 0.127586
75.8038	135.5046	210.7867	266.3902	366.2568	487.23	543.2818	642.5689	673.1777	682.816	694.9416	722.4401	762.1222	830.0329	858.9928	981.4299	1006.3604	1045.6226	1084.9035	1107.3047	1119.868	1175.3526	1205.5346	1228.5046	1270.1937	1320.1651	1344.6204	1468.6918	1504.5598	1548.1663	2245.774	3079.2221	3088.8395	3147.5596	3288.0508	3500.7191
C#CC1CC2=CN=NN12	C#C[C@H]1Cc2cnnn12	
InChI=1S/C6H5N3/c1-2-5-3-6-4-7-8-9(5)6/h1,4-5H,3H2	InChI=1S/C6H5N3/c1-2-5-3-6-4-7-8-9(5)6/h1,4-5H,3H2/t5-/m0/s1
