23
gdb 87212	3.17216	0.97215	0.88153	2.1299	87.14	-0.231	0.0877	0.3187	1462.0852	0.204839	-384.418908	-384.408836	-384.407892	-384.454171	37.428	
C	 0.3583322682	 0.808239091	-0.6713701585	-0.404532
C	 0.5559284982	-0.3569316715	 0.2687519625	-0.010663
N	 1.744877529	-0.3376662743	 1.1494816645	-0.38361
C	 0.3977256204	-0.303111828	 1.7487496456	 0.294176
C	 0.0378603875	 0.9767466246	 2.4746240293	-0.449678
C	-0.1375438141	-1.5470898693	 2.4572955931	-0.209303
N	 0.4095775378	-2.7877574283	 1.9172788679	-0.0811
C	 1.4600828177	-3.4440110084	 2.6974422685	-0.223586
C	 0.0834245399	-4.0040434698	 2.6512795933	-0.219234
H	 0.6681845608	 1.7526061671	-0.2192051478	 0.122263
H	 0.9542631481	 0.6673610641	-1.579954629	 0.117405
H	-0.6918103321	 0.8954304383	-0.9728300789	 0.110467
H	 0.3162855857	-1.3275717937	-0.1619026741	 0.091463
H	 2.1200730656	-1.2810417981	 1.2082511183	 0.234263
H	 0.4489200312	 1.8509379073	 1.9685827246	 0.128846
H	-1.0495741202	 1.0975734989	 2.547417195	 0.109761
H	 0.4417810679	 0.9652808849	 3.4937448528	 0.113442
H	 0.0555233092	-1.458765433	 3.5427880768	 0.081029
H	-1.2282279615	-1.5770320377	 2.335679357	 0.108777
H	 2.2610221916	-3.9032389358	 2.1248801314	 0.120491
H	 1.7751608604	-2.9679343328	 3.62455274	 0.11773
H	-0.5210847424	-3.9068210895	 3.551618433	 0.111873
H	-0.1390493888	-4.8779161259	 2.0455740448	 0.119721
56.6794	83.2274	150.4064	157.4847	163.9022	211.4545	269.9126	318.1202	351.8056	412.2258	423.872	470.4402	546.6859	707.9403	768.362	775.6483	842.1817	875.0759	898.3359	956.8381	976.5883	987.4874	1029.7169	1034.5794	1050.941	1086.4919	1096.3159	1114.2312	1122.836	1135.0478	1153.5837	1176.8926	1188.8462	1245.4638	1285.9466	1309.3881	1321.5294	1330.1356	1395.6664	1417.2486	1418.8972	1459.2762	1479.8884	1483.5489	1488.1265	1494.7907	1501.6492	1514.1168	1521.8591	2926.5904	3027.4174	3032.4785	3034.2839	3082.7456	3088.6598	3094.7233	3098.9893	3116.89	3133.3538	3142.5704	3177.1583	3191.6229	3504.561
CC1NC1(C)CN1CC1	C[C@H]1N[C@]1(C)CN1CC1	
InChI=1S/C7H14N2/c1-6-7(2,8-6)5-9-3-4-9/h6,8H,3-5H2,1-2H3	InChI=1S/C7H14N2/c1-6-7(2,8-6)5-9-3-4-9/h6,8H,3-5H2,1-2H3/t6-,7-/m1/s1
