12
gdb 127532	4.05961	1.17975	0.91944	3.8277	66.7	-0.2684	-0.0783	0.1901	1157.3534	0.077835	-468.846315	-468.838558	-468.837614	-468.87919	26.735	
C	 0.1170446596	 1.4174287428	-0.0606084196	-0.334548
N	 0.0558469268	-0.0287366087	-0.0247997829	-0.084404
N	 0.137583271	-0.7819679065	-1.1565814831	-0.264175
C	 0.0465646783	-1.9966900895	-0.7255192231	 0.326326
O	-0.0909090191	-2.1082891411	 0.6210255302	-0.220738
C	-0.086956012	-0.7972082685	 1.1106982476	 0.483084
O	-0.1880117417	-0.4878671342	 2.2590735485	-0.377549
C	 0.0785047443	-3.1668002264	-1.5227763372	 0.277855
N	 0.1029709378	-4.1305613102	-2.1615696959	-0.310835
H	 1.0690931931	 1.7463179603	-0.4840435512	 0.161765
H	-0.7057751856	 1.8171749767	-0.6581623165	 0.16175
H	 0.0297986177	 1.7642157153	 0.9696253332	 0.181469
99.6605	114.002	151.6916	187.5879	281.3132	287.4471	465.3492	494.8742	544.5464	629.5692	685.1752	707.4324	749.673	841.4713	951.2049	1047.9471	1052.0821	1158.7525	1276.4985	1351.262	1403.9916	1453.2341	1482.1951	1510.5243	1609.9411	1914.2191	2362.5908	3057.2796	3129.2501	3164.8672
CN1N=C(OC1=O)C#N	Cn1nc(oc1=O)C#N	
InChI=1S/C4H3N3O2/c1-7-4(8)9-3(2-5)6-7/h1H3	InChI=1S/C4H3N3O2/c1-7-4(8)9-3(2-5)6-7/h1H3
