15
gdb 36760	6.45731	0.51761	0.49618	5.173	86.49	-0.2596	-0.0465	0.2131	2071.4407	0.111206	-379.604279	-379.594773	-379.593829	-379.639946	32.897	
C	 0.1147010333	-0.6424806198	 0.7892230929	-0.453913
C	-0.0266929375	 0.3436017894	 0.1152432996	 0.300795
C	-0.1340111756	 1.558512014	-0.7025230342	-0.308771
N	 1.1009922353	 2.3395829142	-0.8290530799	-0.278399
C	 1.610764052	 2.8134053956	 0.4607907034	-0.303989
C	 2.8524029859	 3.5546279337	 0.2958886056	 0.031177
C	 3.8941551866	 4.1512779597	 0.1649569032	 0.111645
C	 5.0700310363	 4.8289886181	 0.0162900849	 0.20661
N	 6.0713599095	 5.4042151189	-0.1097871594	-0.334883
H	 0.2221157034	-1.5192635815	 1.3794168402	 0.207211
H	-0.4641553472	 1.2946570365	-1.7131113391	 0.146189
H	-0.9098562962	 2.2139313817	-0.2867667782	 0.143297
H	 1.8132318042	 1.7699210511	-1.2757134577	 0.236208
H	 0.8560646352	 3.4787345306	 0.9027177751	 0.151953
H	 1.7762847746	 2.0033499779	 1.1929200436	 0.14487
35.9304	73.0587	107.573	154.9141	203.9421	224.8614	309.0873	348.8857	365.999	463.9104	576.5915	578.6932	586.3372	632.7706	672.2754	755.9041	776.1593	921.1718	926.0456	986.1577	1098.893	1121.0156	1175.5142	1224.8989	1297.2386	1356.0046	1385.4586	1462.1072	1485.5489	1498.7999	2226.5821	2268.9758	2405.4341	2954.4197	3027.4215	3030.931	3072.3308	3502.0189	3519.8236
C#CCNCC#CC#N	C#CCNCC#CC#N	
InChI=1S/C7H6N2/c1-2-6-9-7-4-3-5-8/h1,9H,6-7H2	InChI=1S/C7H6N2/c1-2-6-9-7-4-3-5-8/h1,9H,6-7H2
