14
gdb 5091	3.36738	2.00564	1.26687	2.0623	60.39	-0.1718	0.0488	0.2206	890.297	0.107538	-415.870266	-415.862132	-415.861188	-415.902155	30.172	
N	 0.1231433377	 1.4163039918	-0.0539875761	-0.609974
C	 0.0258884176	 0.0133796618	-0.0241557813	 0.24433
C	-1.0662160664	-0.8241486386	-0.0819494643	 0.064292
O	-2.4007932086	-0.4593296963	-0.0346001711	-0.463499
C	-0.58578617	-2.1679880007	-0.0855141961	 0.257503
O	-1.3740117349	-3.2803075842	-0.1065782056	-0.457094
C	 0.7829285997	-2.1244781499	-0.0394501872	-0.196432
N	 1.1406866725	-0.7789163084	 0.0090073812	-0.294844
H	 0.4673104308	 1.791222821	 0.8264293717	 0.244623
H	-0.7993852822	 1.8095820133	-0.2048104136	 0.2471
H	-2.7481823591	-0.4439517515	-0.9337248791	 0.2967
H	-2.2729199639	-2.9819922034	 0.0767105925	 0.292211
H	 1.5177947662	-2.9090660886	-0.0030768912	 0.116882
H	 2.0694056007	-0.4274397663	-0.1416561698	 0.258203
150.2411	179.8003	217.3529	261.4192	278.6593	283.5446	293.5603	420.1898	424.2892	561.604	573.3728	605.8654	643.4894	694.6883	751.9464	775.3739	861.4391	1040.2498	1089.4564	1164.6925	1185.6997	1226.4636	1275.4719	1330.7084	1370.497	1456.0875	1532.5195	1617.5353	1648.6134	1689.8844	3286.9565	3480.3256	3581.1106	3688.8351	3770.2812	3791.5623
NC1=C(O)C(O)=CN1	Nc1c(O)c(O)c[nH]1	
InChI=1S/C4H6N2O2/c5-4-3(8)2(7)1-6-4/h1,6-8H,5H2	InChI=1S/C4H6N2O2/c5-4-3(8)2(7)1-6-4/h1,6-8H,5H2
