21
gdb 38957	2.94179	1.66954	1.39727	1.3722	80.39	-0.2436	0.0787	0.3224	1013.8163	0.186698	-387.101385	-387.09428	-387.093336	-387.132788	29.449	
C	 0.109416181	 1.3344605306	-0.4346081797	-0.289129
C	 1.4201352491	 0.6597778722	-0.1190696899	-0.035341
C	 1.9370891223	 0.7756125259	 1.309936268	-0.247805
C	 0.7922934472	 0.2938408066	 2.212609766	 0.089564
O	 0.009387269	 1.3903746639	 2.6810049153	-0.253412
C	-1.2700106176	 0.8562349589	 2.9920015687	-0.074524
C	-1.5850572529	-0.1628415805	 1.8748062082	-0.2505
C	-0.1813893632	-0.5481054917	 1.336219329	-0.016387
C	 0.1343338485	-0.1397546195	-0.1000187636	-0.046476
H	-0.2944257217	 2.0286985651	 0.2936757401	 0.126426
H	-0.0774954577	 1.6026536839	-1.4691669731	 0.102559
H	 2.1443281377	 0.538613091	-0.9174353108	 0.076705
H	 2.8077827644	 0.1239914881	 1.4429966773	 0.096894
H	 2.2406688938	 1.7899526895	 1.5880570199	 0.113347
H	 1.1614289839	-0.2776392621	 3.0781835891	 0.061659
H	-1.2451734601	 0.3573646151	 3.9749212103	 0.086771
H	-1.9757940885	 1.6889336676	 3.0489829312	 0.105566
H	-2.141013618	-1.022660092	 2.2568556361	 0.097451
H	-2.1840803489	 0.2968206665	 1.0848172493	 0.110872
H	 0.0114933604	-1.6180931891	 1.4575836213	 0.068489
H	-0.0966270784	-0.8443174002	-0.8918664327	 0.077271
103.2941	190.8288	243.9407	325.2006	370.6735	461.1812	566.11	627.3872	682.0318	748.3015	781.7327	811.3859	822.9398	870.2754	875.4243	917.5222	923.5105	951.5801	978.9543	1011.6073	1029.1894	1058.5302	1067.0891	1086.2719	1090.6658	1110.0314	1121.6261	1137.5243	1199.8922	1222.2098	1229.76	1237.1996	1259.9929	1288.4863	1311.5574	1327.9279	1336.3465	1354.7224	1377.6372	1392.7368	1402.5955	1474.448	1485.8477	1493.8329	1516.7452	2965.5665	2975.6212	3043.9596	3057.4363	3066.3762	3086.5713	3090.5299	3111.8736	3130.9475	3157.4286	3167.3798	3220.514
C1C2CC3OCCC3C12	C1[C@H]2C[C@H]3OCC[C@H]3[C@@H]12	
InChI=1S/C8H12O/c1-2-9-8-4-5-3-7(5)6(1)8/h5-8H,1-4H2	InChI=1S/C8H12O/c1-2-9-8-4-5-3-7(5)6(1)8/h5-8H,1-4H2/t5-,6-,7-,8+/m0/s1
