20
gdb 110577	2.97674	1.35538	1.092	2.9453	79.25	-0.2369	0.0746	0.3114	1165.6513	0.170856	-403.049399	-403.041071	-403.040127	-403.082204	32.473	
C	-0.0464212186	 1.5603107877	 0.1142657616	-0.529372
C	 0.0536253476	 0.0633686172	-0.0247636562	 0.298966
C	 0.6225168436	-0.7924853542	-1.1619356774	-0.024722
C	 2.1012651023	-0.8655855523	-1.4915178132	-0.087015
O	 2.3965449442	-2.0939990429	-2.1352984727	-0.42332
N	 0.1664527957	-1.8870550866	-0.1948687467	-0.188373
C	 0.5630475093	-0.9943121375	 1.016685678	-0.052281
C	-0.8111077488	-1.1897355916	 1.6618115771	-0.268385
C	-1.0666484892	-1.0178755361	 0.1636455727	-0.03213
H	 0.9452028787	 2.0257373919	 0.1056471407	 0.126048
H	-0.6249969327	 1.991986256	-0.7098453789	 0.125331
H	-0.5386183991	 1.8405945162	 1.0520688686	 0.12308
H	 0.0326052022	-0.8157613885	-2.0879664171	 0.07302
H	 2.3824951225	-0.0667317585	-2.1868919823	 0.105273
H	 2.709456814	-0.7347215631	-0.5815575109	 0.080882
H	 1.9497695977	-2.7783626642	-1.6212789364	 0.294082
H	 1.551412657	-1.0734811791	 1.4709913145	 0.085764
H	-1.0123914822	-2.1819061118	 2.0738179781	 0.110056
H	-1.1681734747	-0.3968060452	 2.3232606692	 0.100834
H	-1.9895002795	-1.1201428074	-0.4114177886	 0.082261
88.2985	147.5745	195.871	236.0925	239.9347	311.3325	362.4728	438.7718	509.2485	552.4837	621.411	720.4681	757.0696	852.0843	859.1315	865.2765	885.6954	907.856	936.839	1007.8228	1020.3406	1045.2969	1069.3725	1078.0728	1103.622	1124.1913	1143.3456	1167.6182	1182.7937	1211.2257	1225.3913	1231.359	1245.2096	1285.528	1332.8991	1352.1291	1406.0441	1414.9672	1447.8054	1485.7623	1488.0672	1494.6166	1509.1972	2971.0418	3023.4448	3027.0527	3059.3558	3063.1934	3093.898	3094.8016	3095.5005	3106.9409	3124.4371	3776.9457
CC12C(CO)N3C1CC23	C[C@@]12[C@@H](CO)N3[C@@H]1C[C@@H]23	
InChI=1S/C7H11NO/c1-7-4-2-5(7)8(4)6(7)3-9/h4-6,9H,2-3H2,1H3	InChI=1S/C7H11NO/c1-7-4-2-5(7)8(4)6(7)3-9/h4-6,9H,2-3H2,1H3/t4-,5+,6-,7-/m1/s1
