23
gdb 106498	2.38954	1.60848	1.18846	1.0228	85.09	-0.2445	0.088	0.3324	1160.1254	0.20682	-388.280645	-388.271846	-388.270902	-388.313709	34.839	
C	 0.0060976493	 1.3379667609	 0.1441003825	-0.25789
O	 0.0536363269	-0.0593381659	-0.0443085002	-0.310258
C	 0.7161942763	-0.5051663984	-1.1812048778	 0.462088
C	 0.3401787956	-0.0966021116	-2.6428237288	-0.295519
C	 1.7407444797	-0.7057230986	-2.9346367926	-0.019729
C	 2.1864579969	-0.1268414918	-1.5624330226	-0.300174
C	 1.5260661146	-2.1969773356	-2.6037213031	-0.233001
C	 0.7116770047	-2.0487114672	-1.2765067953	 0.003791
C	 1.2860666822	-2.7711121205	-0.0605966053	-0.420484
H	 1.009230281	 1.7755129384	 0.2440666654	 0.10954
H	-0.5162727182	 1.8484619464	-0.67727071	 0.108823
H	-0.5455448475	 1.5134091433	 1.0707564856	 0.125524
H	-0.5378214864	-0.5659798427	-3.0968461011	 0.088079
H	 0.3173236	 0.9846598914	-2.7967110852	 0.092207
H	 2.2807900525	-0.4617563231	-3.8484781177	 0.061288
H	 2.3490287977	 0.9524891383	-1.6033524571	 0.093267
H	 3.0113817033	-0.6113826173	-1.0337709997	 0.091378
H	 0.9716147315	-2.7253063107	-3.3849282921	 0.093207
H	 2.4727832033	-2.7247605401	-2.4478515994	 0.093442
H	-0.3232951218	-2.3801728141	-1.4183724808	 0.069969
H	 2.3280714372	-2.4902659211	 0.1261450033	 0.109851
H	 0.708539478	-2.5335068365	 0.8373588744	 0.126795
H	 1.2596458832	-3.8561158535	-0.2074409526	 0.107806
86.4586	168.9562	189.609	208.0552	218.9597	286.3202	375.6719	410.8683	434.0173	490.2682	538.354	603.9089	644.6272	796.2565	830.7817	847.4454	895.5243	899.8238	943.2542	953.5189	978.9842	998.7747	1014.4253	1069.5012	1075.6083	1105.1413	1108.7847	1141.6518	1161.1131	1167.6012	1182.3473	1204.6989	1223.0813	1251.8677	1261.7575	1267.2505	1281.6277	1321.2101	1335.5986	1382.8261	1406.5976	1481.3315	1484.8451	1491.3239	1494.5751	1499.0181	1501.1062	1508.0636	1527.3617	2992.564	3032.1546	3033.5928	3043.3248	3045.1859	3052.2312	3063.1954	3088.245	3096.7633	3112.276	3113.7961	3115.6042	3119.825	3123.9492
COC12CC(C1)CC2C	CO[C@@]12C[C@@H](C1)C[C@H]2C	
InChI=1S/C8H14O/c1-6-3-7-4-8(6,5-7)9-2/h6-7H,3-5H2,1-2H3	InChI=1S/C8H14O/c1-6-3-7-4-8(6,5-7)9-2/h6-7H,3-5H2,1-2H3/t6-,7-,8-/m1/s1
