18
gdb 41772	3.33242	1.5454	1.13795	2.114	78.79	-0.2377	0.0104	0.2481	1064.2255	0.151116	-401.974159	-401.967021	-401.966077	-402.005904	27.94	
C	-0.0548959219	 1.5441513005	 0.0002419511	-0.255956
C	 1.4537880954	 1.9004754372	 0.0620563407	-0.219055
C	 2.1399450545	 0.6335496009	 0.6302424876	-0.03652
N	 3.4562628777	 0.3712972844	 0.0478063243	-0.281417
C	 3.702358067	-0.8126545082	-0.3257968617	 0.134715
O	 2.9477166394	-1.9380052272	-0.2569252861	-0.232725
C	 1.6581424344	-1.8463513845	 0.3937259772	-0.183679
C	 1.1400603001	-0.455125175	 0.3227073786	 0.308328
C	-0.0439700624	 0.030958258	-0.0397562664	-0.214992
H	-0.5959756713	 1.9081876592	 0.8850150686	 0.108763
H	-0.5575592404	 1.984614729	-0.8677196144	 0.107349
H	 1.8403166503	 2.0662855175	-0.9477256241	 0.115368
H	 1.6639745383	 2.7970253787	 0.6493423751	 0.100582
H	 2.2825359626	 0.7347844973	 1.7178241905	 0.086583
H	 4.655264126	-1.0565453374	-0.7934428887	 0.123779
H	 1.0117507158	-2.5708245753	-0.1076549241	 0.126272
H	 1.7976529822	-2.1708670427	 1.434763763	 0.119882
H	-0.9099377777	-0.5607898023	-0.3195417513	 0.092721
110.3907	116.2713	259.7789	310.9542	357.3009	470.7259	509.6803	568.0376	623.2474	683.6965	806.1629	832.1859	869.4662	875.449	919.1283	929.2356	967.1183	978.2609	999.081	1023.2799	1056.4522	1084.6903	1153.7786	1167.8358	1191.9601	1238.0512	1247.2828	1281.9791	1294.3554	1318.8354	1332.5726	1354.8846	1391.9067	1412.9463	1483.7186	1498.1271	1499.3023	1718.0613	1740.9529	2971.3512	3004.1606	3009.5996	3056.7242	3068.6311	3096.2216	3115.3057	3152.039	3181.0119
C1CC2N=COCC2=C1	C1C[C@@H]2N=COCC2=C1	
InChI=1S/C7H9NO/c1-2-6-4-9-5-8-7(6)3-1/h2,5,7H,1,3-4H2	InChI=1S/C7H9NO/c1-2-6-4-9-5-8-7(6)3-1/h2,5,7H,1,3-4H2/t7-/m0/s1
