14
gdb 8638	2.51533	1.79502	1.39469	4.5927	62.31	-0.3295	-0.0348	0.2946	935.2672	0.104785	-378.732465	-378.723658	-378.722714	-378.76561	30.674	
C	 0.0588357365	 1.5672809	 0.0227587516	-0.407979
C	 0.0061892722	 0.0401858701	-0.0045367138	-0.20654
C	-1.4450232034	-0.5152778864	 0.0286298668	 0.064355
O	-2.1745305441	-0.0649150219	 1.1558077709	-0.423432
C	-2.1920911567	-0.050125354	-1.1603963201	 0.332325
N	-2.7312746789	 0.3273356123	-2.1080828022	-0.317396
C	-1.3946656905	-1.9993657557	 0.0085144549	 0.279227
N	-1.312871284	-3.1501565413	 0.0593402831	-0.314145
H	 1.0987804573	 1.9016641099	 0.056143206	 0.131217
H	-0.4062552706	 1.9954879688	-0.8695899804	 0.152771
H	-0.4594790986	 1.9625380252	 0.8993953098	 0.138646
H	 0.5038706465	-0.3582975335	-0.8944377072	 0.143069
H	 0.522613643	-0.3868886799	 0.8633499761	 0.121938
H	-1.7451385088	-0.4155388537	 1.9461327643	 0.305943
109.3504	132.9644	149.0417	181.7885	229.4596	237.8253	269.2278	323.765	417.405	501.0188	533.9496	576.8533	606.7484	692.7797	794.7666	954.767	992.751	1010.7358	1084.4609	1132.7767	1153.4666	1281.8915	1356.0936	1392.7683	1416.9449	1478.7193	1495.4787	1507.4434	2360.4295	2376.0318	3042.08	3054.5837	3089.3032	3127.0496	3135.6237	3794.8286
CCC(O)(C#N)C#N	CCC(O)(C#N)C#N	
InChI=1S/C5H6N2O/c1-2-5(8,3-6)4-7/h8H,2H2,1H3	InChI=1S/C5H6N2O/c1-2-5(8,3-6)4-7/h8H,2H2,1H3
