19
gdb 98364	4.26088	0.75939	0.68087	3.5525	73.58	-0.2532	-0.0236	0.2296	1634.0337	0.155419	-460.20912	-460.198423	-460.197479	-460.246906	35.773	
C	 0.0318164352	 1.3423490648	-0.2000901796	-0.241417
O	-0.0508179454	-0.0764362006	-0.0076752415	-0.236237
C	-1.2959952039	-0.590169621	-0.0227443154	 0.462978
O	-2.2873833219	 0.0753540027	-0.189044894	-0.359555
C	-1.2649615702	-2.1019704941	 0.1764667632	-0.146431
C	-0.4731740689	-2.4956045967	 1.4371328212	-0.397645
C	-2.6951000494	-2.6678861792	 0.1853268263	-0.270212
C	-2.7076717653	-4.1579677321	-0.0605538136	 0.158512
O	-3.2395111826	-4.9766200539	 0.6431465961	-0.240498
H	 1.093298106	 1.5857354027	-0.1573618211	 0.135741
H	-0.3878406916	 1.6239584759	-1.1690228412	 0.142719
H	-0.5149121583	 1.8694667167	 0.5855393389	 0.143771
H	-0.729052973	-2.5030562003	-0.6965952086	 0.110662
H	-0.4488855912	-3.5837480584	 1.546477418	 0.132632
H	 0.5525441379	-2.1272536024	 1.386973488	 0.138158
H	-0.9446436259	-2.0831874695	 2.3352499604	 0.130586
H	-3.2042301972	-2.453714942	 1.1287096435	 0.127454
H	-3.2686665089	-2.1891691441	-0.6184629551	 0.139986
H	-2.1687364553	-4.4678035085	-0.9892162854	 0.068795
29.2486	52.8168	58.9256	122.8257	145.7886	160.6211	223.6413	251.502	300.8206	328.1549	378.0295	425.0365	539.1184	647.4537	760.1307	784.0674	857.2469	928.2252	958.696	1008.9521	1024.4812	1097.3189	1127.5353	1154.827	1179.4335	1201.1742	1215.2874	1244.942	1276.7813	1328.3186	1372.0526	1412.3457	1429.7461	1459.3029	1473.1966	1482.3251	1494.152	1497.5592	1504.9873	1814.8553	1837.549	2834.7971	3004.2901	3041.3683	3044.7505	3053.8016	3108.5672	3110.9343	3129.302	3142.2909	3161.4804
COC(=O)C(C)CC=O	COC(=O)[C@@H](C)CC=O	
InChI=1S/C6H10O3/c1-5(3-4-7)6(8)9-2/h4-5H,3H2,1-2H3	InChI=1S/C6H10O3/c1-5(3-4-7)6(8)9-2/h4-5H,3H2,1-2H3/t5-/m0/s1
