23
gdb 109995	1.87205	1.41861	1.01525	2.8242	85.78	-0.2456	-0.025	0.2205	1316.1824	0.204079	-388.297519	-388.287298	-388.286354	-388.333275	37.394	
C	 0.378140894	 1.8422988167	-0.2053688856	-0.394272
C	 0.3794974871	 0.3287609929	 0.0434617678	-0.204561
C	 0.7493500751	-0.4757415574	-1.1993314893	 0.035583
C	 0.8000260058	-2.0398214126	-1.1670405737	-0.007559
C	 0.0090879464	-2.7333174439	-0.0603884718	-0.401893
C	 0.1137509438	-2.0567375682	-2.5642762744	-0.25904
C	-0.2365219904	-0.5464420275	-2.4357816304	-0.099972
C	-1.6785165202	-0.2580557191	-2.1068164152	 0.154542
O	-2.2320254871	 0.7903321513	-2.3299315659	-0.258435
H	 1.3629778259	 2.1842599726	-0.543278395	 0.10992
H	-0.3539746039	 2.1169728743	-0.9702681797	 0.145498
H	 0.1309449124	 2.3906559322	 0.7087388287	 0.111951
H	 1.0991852697	 0.0879524579	 0.8372879245	 0.094659
H	-0.6012152779	 0.0195118404	 0.424408802	 0.099456
H	 1.7068326688	-0.1002888634	-1.5775316611	 0.080313
H	 1.8207378601	-2.4346154723	-1.1654257484	 0.070336
H	-1.0365357125	-2.4079820708	-0.0293245639	 0.116112
H	 0.0070810943	-3.8172495729	-0.2189948954	 0.11581
H	 0.4442890182	-2.5412869309	 0.9257333411	 0.118751
H	 0.8027457969	-2.2533314829	-3.3883146404	 0.10744
H	-0.7405810105	-2.734547495	-2.6647156195	 0.099695
H	 0.0445892688	 0.1009069723	-3.2690783442	 0.092483
H	-2.235594975	-1.0949756637	-1.6224799303	 0.073183
37.946	77.2054	129.0202	161.4096	203.2713	238.2211	253.2944	278.8511	296.2114	362.5305	436.9567	455.3183	523.1565	702.2724	778.7941	802.8262	814.2928	869.0307	912.8288	943.4643	956.2581	1000.9936	1020.5501	1029.2379	1050.6563	1090.5247	1116.6709	1147.3965	1178.2416	1186.9179	1225.0395	1258.6706	1264.524	1282.4402	1294.0592	1322.0815	1338.573	1371.1425	1391.1528	1414.0171	1416.6653	1431.7195	1479.7268	1487.4802	1497.0192	1500.8269	1502.1121	1512.4462	1815.8182	2844.9747	3017.6513	3028.7104	3030.3619	3033.7597	3045.8413	3050.8763	3057.46	3087.7081	3094.3092	3099.225	3100.0991	3111.3444	3118.3021
CCC1C(C)CC1C=O	CC[C@H]1[C@@H](C)C[C@H]1C=O	
InChI=1S/C8H14O/c1-3-8-6(2)4-7(8)5-9/h5-8H,3-4H2,1-2H3	InChI=1S/C8H14O/c1-3-8-6(2)4-7(8)5-9/h5-8H,3-4H2,1-2H3/t6-,7-,8-/m0/s1
