19
gdb 33179	5.0546	0.78323	0.71759	3.0733	81.18	-0.1866	0.031	0.2176	1615.3337	0.158974	-419.22801	-419.218566	-419.217622	-419.264161	33.59	
C	 0.0180030649	 1.5020218395	 0.0407099609	-0.378017
C	-0.0179219547	-0.0222922202	 0.1723062197	-0.147845
C	-1.4267410087	-0.6004470097	-0.0226365736	-0.147874
N	-1.4161661857	-2.0537140803	 0.0099997451	-0.39135
C	-1.8758254962	-2.65788369	 1.0179720097	 0.516042
N	-1.9266529254	-4.0271562871	 1.2059697564	-0.372267
C	-2.5437222399	-4.3147672539	 2.4200040769	-0.094532
C	-2.8401098769	-3.1417790703	 2.9871927823	-0.041227
O	-2.4379250346	-2.1058833809	 2.1612506126	-0.22176
H	 1.0320684052	 1.8904195703	 0.1776166949	 0.108643
H	-0.3296307892	 1.8233713096	-0.9478069525	 0.111643
H	-0.6247258315	 1.9822157102	 0.7872745133	 0.111663
H	 0.6522279887	-0.4830746805	-0.5627940932	 0.100331
H	 0.3537976104	-0.3229126899	 1.1598874694	 0.092051
H	-2.1047304174	-0.1644195566	 0.725479142	 0.095902
H	-1.7980652957	-0.288062423	-1.0082241395	 0.090974
H	-1.6481575734	-4.6745076496	 0.4920388933	 0.272973
H	-2.700592848	-5.3213633062	 2.7665320584	 0.148182
H	-3.300091772	-2.8676879114	 3.9194475638	 0.14647
17.4612	79.2258	86.4049	135.8213	228.1615	243.5428	301.3124	319.0329	391.0184	563.387	579.6797	676.0739	713.2381	734.1111	757.8928	782.1247	876.3933	893.3308	899.3562	908.386	1035.661	1046.2639	1082.6887	1124.1828	1127.1385	1146.5313	1171.5475	1212.1739	1274.5824	1321.5951	1327.7512	1381.3625	1394.9815	1411.5173	1418.5632	1488.1953	1499.6106	1500.9429	1515.0118	1663.9405	1807.8666	2990.7982	3022.489	3027.2027	3030.6015	3064.4447	3094.8983	3099.9125	3286.3137	3313.9228	3712.753
CCCN=C1NC=CO1	CCCN=c1[nH]cco1	
InChI=1S/C6H10N2O/c1-2-3-7-6-8-4-5-9-6/h4-5H,2-3H2,1H3,(H,7,8)	InChI=1S/C6H10N2O/c1-2-3-7-6-8-4-5-9-6/h4-5H,2-3H2,1H3,(H,7,8)
