15
gdb 45629	3.87607	1.16836	0.96498	1.3113	68.68	-0.2647	-0.0308	0.2338	1176.747	0.113955	-453.968357	-453.960948	-453.960004	-454.000834	27.328	
O	 0.1061143102	 0.0561429588	 0.1973054199	-0.303634
C	-0.0077319316	 1.236028584	 0.1136772178	 0.405309
C	-1.2156401383	 2.1437850022	-0.0838237275	-0.317731
N	-0.6853579576	 3.5001607561	-0.1065297388	-0.308516
C	 0.5700828048	 3.3854907809	 0.0578311613	 0.431828
O	 1.0837376277	 2.1034199519	 0.1931764954	-0.248039
C	 1.5555573822	 4.4721835026	 0.1074287248	-0.093588
C	 2.733997595	 4.3545119223	 1.0199981523	-0.23294
N	 2.9155168986	 4.259478508	-0.4260692789	-0.312735
H	-1.7333164691	 1.8954279641	-1.0169553752	 0.163484
H	-1.9365379858	 2.0027653711	 0.7291991679	 0.162959
H	 1.1226624145	 5.4451475955	-0.0955764187	 0.126905
H	 3.1212191519	 5.2598644692	 1.4773937148	 0.135832
H	 2.8184175759	 3.4536047819	 1.6197498264	 0.13811
H	 3.0234666316	 3.2830376415	-0.6925515615	 0.252756
88.1828	126.3246	164.4809	215.552	360.8139	409.0826	510.1685	544.4004	620.56	716.4252	742.0219	821.8713	853.3359	886.0506	918.7399	969.9496	986.8026	994.9712	1039.6148	1095.8851	1123.2146	1139.0602	1170.789	1185.5283	1269.8982	1275.1737	1298.9729	1326.9864	1399.94	1445.2549	1503.4098	1729.9525	1925.8657	3051.9783	3084.9587	3122.0165	3184.8821	3214.7756	3502.7355
O=C1CN=C(O1)C1CN1	O=C1CN=C(O1)[C@H]1CN1	
InChI=1S/C5H6N2O2/c8-4-2-7-5(9-4)3-1-6-3/h3,6H,1-2H2	InChI=1S/C5H6N2O2/c8-4-2-7-5(9-4)3-1-6-3/h3,6H,1-2H2/t3-/m1/s1
