23
gdb 101100	3.20493	1.09425	0.96295	1.6549	86.	-0.2307	0.0848	0.3155	1354.3302	0.204503	-388.234916	-388.225394	-388.22445	-388.269605	36.277	
C	-0.090532773	 1.4880250924	-0.0687827296	-0.395913
C	 0.0350429848	-0.0360830773	 0.0137384117	-0.167452
C	 0.7554623524	-0.5524402336	 1.2757580838	-0.130492
C	 0.0222673959	-0.1921751473	 2.5772161032	-0.400839
C	 0.9599920883	-2.0444857919	 1.1897791889	 0.468188
C	 1.5706590881	-2.9123093548	 0.0501599113	-0.273002
C	 0.9048733467	-3.8373047425	 1.0900333942	 0.050826
C	 1.5609303985	-3.0330342194	 2.2315683727	-0.27407
O	-0.2547202301	-2.9200652936	 1.1360346013	-0.35336
H	 0.8905117078	 1.9723047935	 0.0011307517	 0.110493
H	-0.5397233125	 1.7876428704	-1.0208158754	 0.112596
H	-0.718762007	 1.89409564	 0.7295559236	 0.119909
H	-0.9573132453	-0.4996822205	-0.0361018724	 0.115434
H	 0.5810992437	-0.3933616687	-0.867435898	 0.095582
H	 1.7611350982	-0.1059910555	 1.3042650652	 0.075111
H	-0.9673069969	-0.659042563	 2.5993672826	 0.134602
H	 0.5774644583	-0.5440943657	 3.4518846913	 0.114075
H	-0.1026767778	 0.8886817503	 2.6788982767	 0.113253
H	 1.0571626887	-2.8531452953	-0.909962274	 0.106015
H	 2.6595171433	-2.940025889	-0.046738876	 0.090656
H	 0.6933111149	-4.9046734307	 1.0294984179	 0.092289
H	 2.6488289881	-3.0719492303	 2.3350646728	 0.090482
H	 1.0380346252	-3.0779777974	 3.1873645565	 0.105617
55.5907	68.6509	153.0912	184.7109	207.3325	269.2548	294.8535	343.7707	391.9248	454.6723	525.9084	604.8691	664.2178	731.633	779.7025	805.4327	839.8105	898.2761	907.1983	944.3377	967.0484	976.1176	986.9622	997.1606	1033.5943	1066.9436	1086.5264	1100.4862	1136.9562	1141.2906	1170.8181	1185.5314	1216.114	1239.423	1246.165	1272.687	1296.4437	1339.8264	1359.8113	1390.9993	1406.7496	1412.744	1466.4641	1484.3327	1493.5529	1500.3961	1506.4796	1511.1909	1514.0493	2993.9645	3030.4391	3031.7307	3044.0888	3054.8867	3063.5105	3066.8496	3097.2579	3106.82	3111.6241	3120.2192	3121.9408	3143.2786	3147.7782
CCC(C)C12CC(C1)O2	CC[C@@H](C)[C@@]12C[C@@H](C1)O2	
InChI=1S/C8H14O/c1-3-6(2)8-4-7(5-8)9-8/h6-7H,3-5H2,1-2H3	InChI=1S/C8H14O/c1-3-6(2)8-4-7(5-8)9-8/h6-7H,3-5H2,1-2H3/t6-,7-,8+/m1/s1
