16
gdb 124068	4.91306	1.0317	0.97349	3.5622	71.31	-0.2552	-0.0201	0.2352	1206.073	0.125857	-437.854256	-437.846872	-437.845927	-437.887338	26.732	
C	-0.016900392	 1.486272905	-0.1298124427	-0.08259
O	 1.3805978046	 1.5828036095	 0.198740718	-0.267077
C	 1.4425896053	 0.1891984478	 0.5512583363	-0.082573
C	 0.0096581936	-0.0621618686	 0.0037486546	-0.157029
C	-0.9852999242	-0.7222672377	 0.8787778623	 0.438506
C	-1.8354354046	-1.7720728407	 0.703114348	-0.357624
C	-2.5063527024	-1.8717545382	 1.9502701957	 0.037869
N	-2.1021986661	-0.9664992474	 2.8057487049	-0.135712
O	-1.1321103036	-0.231658856	 2.1257611425	-0.2126
H	-0.6521021484	 1.9838849105	 0.6127266191	 0.120403
H	-0.2377079319	 1.8811032228	-1.1272528211	 0.11062
H	 2.2550169143	-0.3342410823	 0.0359824057	 0.110622
H	 1.5355530605	 0.0396617673	 1.6336008417	 0.120384
H	 0.0155745331	-0.5639665276	-0.9645716344	 0.099137
H	-1.9627792503	-2.3787689773	-0.1777071896	 0.121982
H	-3.2709032177	-2.5731706472	 2.253796659	 0.13568
53.8982	84.1329	142.7962	214.0473	378.1506	392.2133	607.7615	647.4852	719.5219	812.7606	823.5706	887.7783	912.536	918.9503	929.7396	944.4257	1003.7936	1007.8029	1045.8429	1045.9559	1055.135	1107.9982	1164.5416	1174.6206	1211.0784	1246.6564	1276.1823	1311.5953	1317.6682	1371.1479	1406.7249	1508.117	1514.7773	1535.6192	1636.6596	3020.3874	3030.6103	3073.3331	3075.8882	3108.8574	3244.0713	3280.028
C1OCC1C1=CC=NO1	C1OCC1c1ccno1	
InChI=1S/C6H7NO2/c1-2-7-9-6(1)5-3-8-4-5/h1-2,5H,3-4H2	InChI=1S/C6H7NO2/c1-2-7-9-6(1)5-3-8-4-5/h1-2,5H,3-4H2
