16
gdb 30377	3.39472	1.34941	1.05106	1.7943	85.27	-0.2337	-0.0902	0.1435	1133.6556	0.125051	-396.927917	-396.919979	-396.919035	-396.960757	29.161	
C	-0.0912818017	 1.4124511994	 0.2884537798	-0.330255
N	-0.0603552661	-0.0384219695	 0.2538503331	-0.281224
C	-1.0733826071	-0.6823583917	-0.1705920608	 0.302504
C	-1.0108971039	-2.1502661288	-0.2621925738	-0.101393
C	-2.0179248767	-2.9923760514	 0.0445936295	 0.004124
N	-3.2701494935	-2.6909986131	 0.5536850191	-0.215664
C	-3.8636078996	-1.5661820311	 0.3747585952	-0.002852
C	-3.4138234439	-0.4348850972	-0.4479117067	-0.015321
N	-2.2212810808	-0.0646376341	-0.713214366	-0.232486
H	 0.9147306062	 1.7895772106	 0.0802777338	 0.123788
H	-0.8057630023	 1.857177474	-0.4144414067	 0.127815
H	-0.3543610486	 1.7515500498	 1.299018467	 0.127258
H	-0.0457425798	-2.565477854	-0.5366923486	 0.127372
H	-1.8348726643	-4.062334104	-0.0124330156	 0.120997
H	-4.8614906628	-1.4652025362	 0.8082178938	 0.12142
H	-4.221929815	 0.1488338271	-0.9010558929	 0.123916
72.1292	105.3384	200.6376	230.6631	311.1764	337.6333	390.7554	422.5848	533.6898	629.7257	645.865	749.4594	800.4154	862.9519	868.7564	919.0497	945.2647	995.8116	1007.1622	1020.8936	1041.3675	1116.2705	1149.7553	1235.7515	1265.1138	1413.227	1418.8755	1427.7299	1438.8509	1487.0153	1492.3187	1591.4906	1652.8515	1704.6241	1714.8216	3009.9371	3066.2446	3070.9576	3094.8558	3102.653	3160.4666	3185.784
CN=C1C=CN=CC=N1	CN=c1ccnccn1	
InChI=1S/C6H7N3/c1-7-6-2-3-8-4-5-9-6/h2-5H,1H3	InChI=1S/C6H7N3/c1-7-6-2-3-8-4-5-9-6/h2-5H,1H3
