18
gdb 103554	2.48666	1.29051	1.04723	2.3419	67.96	-0.248	-0.0013	0.2467	1189.1576	0.146434	-476.241966	-476.232443	-476.231499	-476.276232	34.821	
C	-0.2875646372	 1.6380385866	 0.10575068	-0.442266
C	-0.0821535649	 0.1367956983	 0.1148984179	 0.393185
C	-1.33121441	-0.6505781884	-0.2655393146	-0.103499
O	-1.784136947	-0.3288671201	-1.5644024602	-0.415456
O	 1.0054979212	-0.2518458793	-0.8262149604	-0.300909
C	 1.8154368164	-0.6865034307	 0.1935254923	 0.422471
O	 2.9436171491	-1.0559914228	 0.1196675155	-0.326543
C	 0.753181861	-0.4495959239	 1.2887507302	-0.237354
N	 1.0208516856	 0.3786117121	 2.4386841654	-0.513597
H	 0.6664987435	 2.169337813	 0.1573654827	 0.119013
H	-0.8046231428	 1.9353050347	-0.8090054047	 0.145485
H	-0.8930880449	 1.9320097652	 0.9678695644	 0.140074
H	-1.1196808794	-1.727153552	-0.1687443749	 0.091962
H	-2.145476271	-0.4049654915	 0.4247802142	 0.122804
H	-1.0608236654	-0.5322229445	-2.1694930041	 0.296448
H	 0.3423738565	-1.4053572076	 1.6302847726	 0.115561
H	 1.4654987183	-0.1645599041	 3.1703255504	 0.248922
H	 1.6545832009	 1.1373056853	 2.2101000733	 0.243697
74.271	114.7115	175.8775	195.4764	211.4427	242.9018	259.9616	323.2705	368.4177	397.1226	438.0648	473.4068	604.5466	679.0578	712.6178	808.2265	811.5404	864.1123	924.693	932.0687	971.3976	1055.8774	1078.4679	1125.0467	1166.2915	1179.006	1216.8131	1246.1967	1265.5543	1302.699	1387.9904	1410.0826	1424.6003	1429.6046	1480.1896	1493.0752	1498.0145	1669.9138	1927.5471	2980.9674	3050.6853	3064.9533	3077.2191	3123.3646	3138.3186	3514.3277	3592.8445	3794.1679
CC1(CO)OC(=O)C1N	C[C@@]1(CO)OC(=O)[C@H]1N	
InChI=1S/C5H9NO3/c1-5(2-7)3(6)4(8)9-5/h3,7H,2,6H2,1H3	InChI=1S/C5H9NO3/c1-5(2-7)3(6)4(8)9-5/h3,7H,2,6H2,1H3/t3-,5+/m1/s1
