15
gdb 68728	2.50991	1.67611	1.32012	5.0353	70.4	-0.2619	-0.0036	0.2583	988.3722	0.111873	-416.743548	-416.73585	-416.734906	-416.775681	29.169	
C	-0.0066037655	 1.5278409916	 0.0283165342	-0.49904
C	-0.0766261911	 0.0395327388	 0.0807160964	 0.345827
O	 1.0811255174	-0.737041646	-0.2455200902	-0.305651
C	 0.5027849077	-0.9361696053	 1.0563792788	 0.27227
C	 1.3159042242	-0.7004125136	 2.2066594313	 0.23013
N	 1.9593995889	-0.5304204572	 3.1523852464	-0.345814
C	-0.7162741795	-1.8296720694	 0.914788271	-0.165246
N	-1.8836352766	-0.9918974867	 1.2814764037	-0.32728
C	-1.2905523117	-0.8718483315	-0.0727062182	-0.134682
H	 0.933063017	 1.8829315236	 0.4574478378	 0.153108
H	-0.066803437	 1.8775760313	-1.007796774	 0.139541
H	-0.8416827239	 1.9572789564	 0.5883595162	 0.152777
H	-0.7489659363	-2.9105301687	 0.9217138678	 0.124073
H	-2.7167647879	-1.5775969899	 1.2080172	 0.240664
H	-1.8511572955	-1.0879470735	-0.9725301213	 0.119324
122.8053	139.3492	192.8935	216.1194	305.3043	383.1907	457.4869	546.8289	558.0726	603.6206	630.5981	701.2978	760.941	839.1804	845.4753	869.5196	885.1252	934.9119	1026.5309	1040.9131	1080.4611	1119.6004	1133.0892	1159.7998	1221.2519	1282.351	1329.6604	1339.0457	1406.5947	1456.9777	1482.0715	1489.5315	2358.0312	3044.4868	3113.1179	3137.0113	3206.9206	3220.3588	3465.9131
CC12OC1(C#N)C1NC21	C[C@@]12O[C@]1(C#N)[C@H]1N[C@@H]21	
InChI=1S/C6H6N2O/c1-5-3-4(8-3)6(5,2-7)9-5/h3-4,8H,1H3	InChI=1S/C6H6N2O/c1-5-3-4(8-3)6(5,2-7)9-5/h3-4,8H,1H3/t3-,4+,5+,6-/m1/s1
