19
gdb 119322	2.39051	1.07994	0.88385	2.4324	72.03	-0.2559	-0.0322	0.2237	1355.0923	0.156889	-460.136241	-460.12645	-460.125506	-460.172079	33.96	
O	-0.1278396654	 1.4376020477	 0.0380649515	-0.415311
C	 0.0175780617	 0.0316105905	 0.1323984505	-0.081861
C	-1.3572286559	-0.5844484429	-0.1107438556	-0.271575
C	-1.3669143503	-2.1100729176	-0.0084483373	 0.166946
C	-1.1854693039	-2.7601365953	 1.3804336831	-0.117801
O	-2.4698378006	-3.4146661648	 1.2951787867	-0.266633
C	-2.7780561634	-2.773671471	 0.0502098567	-0.12089
C	-0.52379611	-2.7284244563	-1.1030893676	 0.111113
O	 0.3541270927	-3.5360989877	-0.9412307859	-0.249319
H	 0.7292555723	 1.8429663436	 0.198791186	 0.290374
H	 0.7390245504	-0.3480352947	-0.6097196295	 0.098305
H	 0.3903749983	-0.2688859202	 1.1249767549	 0.09727
H	-2.0630476666	-0.1664110723	 0.6152432925	 0.119908
H	-1.708573939	-0.2755220342	-1.1039351697	 0.114611
H	-0.3603268459	-3.474783281	 1.4510983583	 0.130233
H	-1.1431643172	-2.052085983	 2.217566139	 0.098524
H	-3.603189825	-2.0541440109	 0.1382368852	 0.105528
H	-3.0151822204	-3.4941194759	-0.7433592411	 0.109976
H	-0.7979261217	-2.3769615238	-2.1263239777	 0.080602
64.4879	70.1465	92.5758	106.4588	160.3533	261.8463	272.1712	298.1801	335.6069	365.5303	410.669	617.0359	709.796	792.3326	857.5983	906.4991	946.3383	970.347	989.1725	1018.9822	1045.8594	1051.885	1071.2619	1112.248	1159.7051	1169.9283	1203.5072	1234.536	1251.5198	1292.2788	1310.8931	1329.579	1341.3309	1372.5839	1422.8772	1467.3461	1489.2657	1509.6686	1524.8384	1532.9067	1826.849	2850.3253	2963.4147	2988.147	2999.6338	3021.3354	3029.6357	3045.6954	3078.3846	3090.9909	3831.6674
OCCC1(COC1)C=O	OCCC1(COC1)C=O	
InChI=1S/C6H10O3/c7-2-1-6(3-8)4-9-5-6/h3,7H,1-2,4-5H2	InChI=1S/C6H10O3/c7-2-1-6(3-8)4-9-5-6/h3,7H,1-2,4-5H2
