16
gdb 56089	5.33067	0.528	0.51153	4.4574	79.55	-0.2606	-0.0667	0.1939	2080.8308	0.121089	-437.893935	-437.883496	-437.882552	-437.9325	33.845	
C	-0.0590273931	 1.4543282502	-0.1348090252	-0.484228
C	-0.2453838161	-0.0523089172	-0.0990509048	 0.418001
O	-1.0820173063	-0.5934701205	 0.5986797689	-0.362945
N	 0.5956504771	-0.7612743774	-0.9181095319	-0.310813
C	 0.4781453253	-2.2035657766	-1.0490669201	-0.303613
C	 0.2374259693	-2.6429832065	-2.4176097734	 0.106403
C	 0.0617162052	-3.0230057921	-3.5507516076	 0.007035
C	-0.1660472234	-3.4405675566	-4.9103156958	 0.0241
O	-0.0957992696	-4.5844494922	-5.2962748369	-0.225579
H	-0.9122196296	 1.9016712372	-0.6537678061	 0.158555
H	-0.0626386809	 1.8315957472	 0.8896281968	 0.15933
H	 0.8604848141	 1.7695802891	-0.6344113518	 0.116469
H	 1.2417027561	-0.2747875492	-1.5168679582	 0.253289
H	 1.3725209564	-2.7085011789	-0.6595085455	 0.151053
H	-0.3599559403	-2.4925300385	-0.4036760179	 0.192548
H	-0.4187499242	-2.6103335779	-5.6010128504	 0.100394
29.008	40.9168	48.1642	61.7792	129.985	176.8356	222.8526	265.2195	382.9136	393.8828	429.8777	527.6075	596.0049	624.1959	641.0626	829.6148	888.1832	990.2577	1020.2417	1033.1272	1052.1745	1103.0005	1159.0701	1244.18	1268.2327	1369.3696	1397.8973	1422.2498	1462.4983	1469.1416	1487.233	1524.9125	1768.7672	1785.1004	2328.0048	2918.4346	3015.8026	3051.6603	3071.4068	3123.3059	3143.462	3654.111
CC(=O)NCC#CC=O	CC(=O)NCC#CC=O	
InChI=1S/C6H7NO2/c1-6(9)7-4-2-3-5-8/h5H,4H2,1H3,(H,7,9)	InChI=1S/C6H7NO2/c1-6(9)7-4-2-3-5-8/h5H,4H2,1H3,(H,7,9)
