17
gdb 30492	3.72853	1.2061	0.92172	4.336	83.48	-0.222	-0.0543	0.1676	1263.8064	0.135022	-418.039218	-418.030435	-418.02949	-418.073222	31.505	
C	-0.0532253153	 1.4341170597	 0.0296422579	-0.314165
N	 0.0184862178	-0.0141250528	 0.0397960626	-0.301268
C	-1.049901735	-0.6838939992	 0.0239435151	 0.440735
O	-2.2976862001	 0.0153741573	-0.0035280675	-0.232916
C	-3.4403854362	-0.6779811299	-0.021211554	 0.095211
C	-3.4735052551	-2.0201646796	-0.0140169245	-0.232782
C	-2.1963606128	-2.7012200012	 0.0144257334	 0.318077
C	-2.166667037	-4.2026702983	 0.02411933	-0.478898
N	-1.0694602702	-2.0623405382	 0.0319843656	-0.332914
H	 0.961095767	 1.8395509611	 0.0463391518	 0.120404
H	-0.5633045314	 1.8178427673	-0.8647911268	 0.116765
H	-0.5966688041	 1.8286120758	 0.8993996779	 0.116768
H	-4.3112011935	-0.0305327002	-0.0415366188	 0.141229
H	-4.4113523645	-2.5576250173	-0.0287403281	 0.112954
H	-2.672420704	-4.6013208428	-0.8632043976	 0.138711
H	-1.1362042837	-4.556939241	 0.0453271685	 0.153352
H	-2.7048712519	-4.5905344108	 0.8970240142	 0.138739
62.9555	100.8603	132.8786	156.5373	208.7864	307.1677	327.9031	383.3159	503.1271	509.4569	620.8952	629.6234	704.7722	765.1708	793.1415	806.7765	959.345	964.7258	1004.4714	1011.1606	1053.1862	1108.6668	1109.2315	1132.9546	1208.2083	1280.7084	1292.3128	1399.9269	1437.7	1458.3514	1468.9306	1478.2639	1484.0144	1499.7937	1593.2179	1703.4318	1760.7769	2995.7723	3032.7423	3043.5464	3085.777	3105.9477	3157.809	3190.5543	3232.7552
CN=C1OC=CC(C)=N1	C[N]C1=NC(=CCO1)C	
InChI=1S/C6H8N2O/c1-5-3-4-9-6(7-2)8-5/h3-4H,1-2H3	InChI=1S/C6H9N2O/c1-5-3-4-9-6(7-2)8-5/h3H,4H2,1-2H3
