16
gdb 11907	4.85659	1.47212	1.28695	1.3992	67.06	-0.2539	-0.0032	0.2507	947.6306	0.130566	-383.725265	-383.718068	-383.717124	-383.757234	27.529	
O	-0.0497420522	 1.4765717585	-0.0468732394	-0.430273
C	 0.0783530596	 0.0638339003	 0.0385409584	 0.098208
C	-1.2719636047	-0.7035014388	 0.138255832	-0.351322
C	-1.1661711593	-1.8444404905	-0.8752239888	 0.425625
C	-1.7332483805	-3.1887374642	-0.6797548651	-0.246881
O	-2.3484195343	-2.2634265089	-1.5758235227	-0.279526
C	 0.0645046709	-1.5833834213	-1.6655888666	-0.138778
C	 0.7499661179	-0.5537871223	-1.1688449294	-0.129321
H	-0.4939997314	 1.6756457113	-0.8790478049	 0.276715
H	 0.6819800108	-0.0921234101	 0.9402053636	 0.099183
H	-1.485179597	-1.0517044203	 1.1512400915	 0.111225
H	-2.0870364876	-0.0352851329	-0.1568865896	 0.121952
H	-1.2631441635	-4.0539730257	-1.1474929069	 0.111745
H	-2.2900522328	-3.4031555124	 0.232407922	 0.114366
H	 0.3329976969	-2.18993613	-2.5228946878	 0.109584
H	 1.6886253571	-0.1662763429	-1.5486486862	 0.107499
36.8761	194.7676	296.6321	329.7462	357.3831	411.0408	423.5031	497.4575	594.2345	709.4181	795.4754	817.5355	821.5815	863.3361	918.8441	940.923	980.0287	1002.6568	1048.3093	1077.9012	1122.5933	1128.3346	1163.5525	1166.7934	1231.7119	1257.8597	1290.8841	1316.6392	1341.361	1421.9412	1431.656	1478.5085	1526.9358	1673.7321	3041.8779	3061.4822	3071.3508	3111.2664	3157.3124	3190.485	3214.4841	3793.5336
OC1CC2(CO2)C=C1	O[C@H]1C[C@]2(CO2)C=C1	
InChI=1S/C6H8O2/c7-5-1-2-6(3-5)4-8-6/h1-2,5,7H,3-4H2	InChI=1S/C6H8O2/c7-5-1-2-6(3-5)4-8-6/h1-2,5,7H,3-4H2/t5-,6+/m1/s1
