16
gdb 28357	3.20256	1.43295	0.99646	3.1312	78.99	-0.2075	-0.0268	0.1807	1145.0133	0.125519	-434.125158	-434.116923	-434.115979	-434.157713	31.26	
C	-0.0148382007	 1.5224350065	 0.0164681827	-0.475582
C	-0.0120781147	 0.0235632465	-0.0215464236	 0.203783
C	-0.0465548034	-0.7083429177	-1.1609495936	-0.09038
N	-0.0428713431	-2.0859557166	-1.2229964326	-0.367217
C	-0.0140397216	-2.6884893646	-0.0839263492	 0.493344
N	-0.0656638557	-4.0420489466	 0.0233722846	-0.560608
O	 0.0302620007	-2.0969560946	 1.1282370894	-0.253743
C	 0.0335996996	-0.6894502312	 1.2383049902	 0.320259
N	 0.0761931045	-0.1535902405	 2.3865304091	-0.537848
H	 0.8767674646	 1.9049124193	 0.5246198679	 0.139054
H	-0.0480087627	 1.9354241672	-0.9953920317	 0.113748
H	-0.8748655248	 1.9001746676	 0.5796208885	 0.139462
H	-0.0777524827	-0.2108209905	-2.1266100184	 0.107946
H	 0.1045824454	-4.5540522434	-0.826224306	 0.277494
H	 0.2345048515	-4.4569721263	 0.8894677768	 0.271227
H	 0.1007943833	-0.8587525351	 3.122553626	 0.219062
113.0094	144.7001	174.2895	280.6211	318.0956	334.625	377.3293	409.3493	474.0737	483.6801	544.7271	559.8874	730.2159	739.6126	766.4526	795.1563	841.2287	960.7606	972.7119	978.9848	1036.6879	1074.3028	1091.7537	1192.0167	1260.8486	1306.2236	1395.3862	1416.8988	1439.8106	1469.0736	1491.7873	1596.2319	1648.4468	1677.6218	1750.5111	3034.1063	3088.6755	3116.414	3166.2597	3498.1134	3609.5471	3736.0667
CC1=CN=C(N)OC1=N	CC1=C(OC(=NC1)N)[NH]	
InChI=1S/C5H7N3O/c1-3-2-8-5(7)9-4(3)6/h2,6H,1H3,(H2,7,8)	InChI=1S/C5H8N3O/c1-3-2-8-5(7)9-4(3)6/h6H,2H2,1H3,(H2,7,8)
