15
gdb 42993	3.20516	1.43193	1.0798	6.2094	69.68	-0.2738	-0.0349	0.2389	1065.2093	0.113889	-416.822154	-416.814695	-416.813751	-416.854668	27.743	
O	 0.1240082744	 0.0454537368	-0.3435386278	-0.281893
C	 0.0911598117	 1.2253241096	-0.1769030733	 0.398029
C	-1.2136441195	 2.0757817975	 0.015504083	-0.281392
C	-0.7471438389	 3.5452940299	-0.0813307248	-0.257813
C	 0.7666220237	 3.4615722508	 0.0827159921	-0.017059
C	 1.3432857697	 2.7392323683	 1.2332354494	-0.25292
N	 1.2386489857	 2.0724469309	-0.1010515371	-0.133498
C	-2.2673896231	 1.7131143609	-0.918567175	 0.29104
N	-3.1059797889	 1.4494520746	-1.6682930168	-0.31329
H	-1.5682393775	 1.8370943266	 1.0256411828	 0.161057
H	-0.98290207	 3.9498657938	-1.068375907	 0.148318
H	-1.2227567855	 4.1873901112	 0.6635610407	 0.134729
H	 1.3670764328	 4.2142337126	-0.4178811576	 0.120581
H	 2.3641868702	 2.9284464372	 1.5466939271	 0.148371
H	 0.6832794753	 2.3918330792	 2.0243686043	 0.135741
56.2506	143.5384	193.1622	258.7765	342.1939	417.9006	504.3653	529.6134	585.6847	652.1263	676.9595	776.0204	818.5549	850.3872	928.8855	935.9176	978.5228	1030.3549	1078.8213	1091.9867	1106.7509	1123.8003	1165.7755	1186.8004	1246.1452	1287.2401	1297.8304	1344.2163	1395.1992	1494.3277	1512.8385	1881.0299	2364.8547	3044.205	3074.1208	3118.3305	3119.5927	3166.5696	3211.7718
O=C1C(CC2CN12)C#N	O=C1[C@@H](C[C@H]2CN12)C#N	
InChI=1S/C6H6N2O/c7-2-4-1-5-3-8(5)6(4)9/h4-5H,1,3H2	InChI=1S/C6H6N2O/c7-2-4-1-5-3-8(5)6(4)9/h4-5H,1,3H2/t4-,5-,8?/m0/s1
