22
gdb 116778	3.13057	0.82496	0.7886	2.8564	85.81	-0.2391	0.0243	0.2634	1597.3543	0.191887	-404.327243	-404.31667	-404.315725	-404.363626	37.657	
C	 0.6035390504	 0.3826290196	-0.2349294308	-0.249428
O	-0.5765457615	 0.060028427	 0.4867926743	-0.195149
C	-1.2963486089	-0.9725060577	-0.0102088242	 0.133568
N	-2.3831389469	-1.2919331594	 0.5329996202	-0.237809
C	-3.1632517579	-2.4231625814	 0.0518293028	-0.20242
C	-2.8271675669	-3.0554714384	-1.2948443031	 0.355055
C	-3.1236089768	-2.2005241801	-2.5147767084	-0.458343
C	-1.6688337549	-4.0298676235	-1.3525782101	-0.29309
C	-3.0870150956	-4.5390064476	-1.4189415699	-0.32662
H	 1.0890482146	 1.1913384429	 0.3129403327	 0.144019
H	 1.2902024567	-0.4714912109	-0.2926390054	 0.123266
H	 0.3743824659	 0.727389559	-1.2512345161	 0.123534
H	-0.8345739835	-1.4616162626	-0.8768427251	 0.085129
H	-3.1174516254	-3.1956047199	 0.8320273013	 0.104663
H	-4.2120442459	-2.0960001057	 0.0317212592	 0.108216
H	-2.5785886395	-1.2514065962	-2.497533911	 0.11403
H	-2.8530059944	-2.7230339753	-3.4378666825	 0.110958
H	-4.1920147836	-1.9609081231	-2.5687399245	 0.119739
H	-1.0702251049	-4.0649051792	-2.2573203066	 0.106545
H	-1.106509608	-4.2135414606	-0.4427606931	 0.113757
H	-3.4815960559	-5.0679597799	-0.5574477127	 0.111715
H	-3.4516842273	-4.9099383572	-2.3710736069	 0.108664
43.175	81.7789	106.8979	121.3242	171.2119	197.2827	240.0431	290.7188	323.1911	338.715	359.3524	403.9728	483.7999	623.2783	735.4505	792.4211	867.8077	907.0394	926.7965	954.8479	976.4091	1003.9453	1030.2545	1049.2535	1071.2622	1080.483	1082.1334	1124.5758	1175.3277	1177.9043	1192.4045	1251.5393	1273.235	1316.274	1360.5324	1376.1173	1408.6925	1423.9473	1469.809	1472.6471	1485.3516	1491.7246	1494.3173	1501.3566	1502.63	1511.0079	1777.7221	3003.4877	3006.5337	3027.515	3029.3993	3042.9379	3068.5569	3088.8881	3101.4834	3123.5538	3128.7937	3140.8062	3201.0861	3215.6996
COC=NCC1(C)CC1	COC=NCC1(C)CC1	
InChI=1S/C7H13NO/c1-7(3-4-7)5-8-6-9-2/h6H,3-5H2,1-2H3	InChI=1S/C7H13NO/c1-7(3-4-7)5-8-6-9-2/h6H,3-5H2,1-2H3
