19
gdb 86134	2.44456	1.43762	1.00769	2.7087	70.99	-0.252	-0.0306	0.2214	1183.3206	0.158152	-460.189479	-460.180257	-460.179313	-460.223466	34.631	
C	-0.0700150665	 1.5773654447	 0.0433819407	-0.380567
C	 0.0247797096	 0.0434870653	-0.0133576416	-0.130953
C	 0.7889580001	-0.5161926669	-1.2445576458	 0.113027
O	 0.7312319074	 0.4075710274	-2.3140943481	-0.430098
C	 2.2177413427	-0.8122731442	-0.7320275119	-0.291746
C	 1.9644717271	-1.3802677257	 0.668661661	 0.063694
O	 3.0624315907	-1.3910287467	 1.535351604	-0.443008
C	 0.835567227	-0.4807143804	 1.1714716292	 0.368298
O	 0.716865389	-0.1731778925	 2.3330947711	-0.339614
H	 0.9159624124	 2.0436215399	-0.0326367401	 0.126039
H	-0.6803322219	 1.950992222	-0.779971336	 0.134458
H	-0.5167384212	 1.8750691226	 0.9949117101	 0.132835
H	-0.9899688926	-0.3665141382	 0.0384973916	 0.108134
H	 0.3215014611	-1.4674242796	-1.5448704527	 0.0734
H	 1.2371094794	 0.0460293082	-3.0487198074	 0.286761
H	 2.7746052925	-1.4918948025	-1.382663133	 0.103616
H	 2.7803671656	 0.1244028359	-0.6476119535	 0.122561
H	 1.5374936455	-2.3969618862	 0.5639076339	 0.090772
H	 2.7249515921	-1.0672400332	 2.3844575186	 0.292389
51.4511	129.177	213.8741	226.3215	256.9365	265.1238	289.506	332.2093	400.095	426.0838	485.4625	495.2633	587.2088	606.0424	687.4241	789.1685	828.5786	948.1639	954.5346	1014.8395	1031.608	1051.069	1092.0226	1119.3218	1135.5081	1165.006	1186.1412	1250.8744	1255.8031	1268.6205	1286.16	1323.8099	1363.593	1386.2052	1399.8659	1419.0853	1433.1202	1491.246	1497.0605	1501.7103	1831.9152	2914.0305	2965.7389	3047.9094	3049.2366	3056.4815	3104.0035	3128.2358	3146.2904	3711.681	3819.6876
CC1C(O)CC(O)C1=O	C[C@H]1[C@@H](O)C[C@@H](O)C1=O	
InChI=1S/C6H10O3/c1-3-4(7)2-5(8)6(3)9/h3-5,7-8H,2H2,1H3	InChI=1S/C6H10O3/c1-3-4(7)2-5(8)6(3)9/h3-5,7-8H,2H2,1H3/t3-,4-,5+/m0/s1
