23
gdb 92886	2.43234	1.29828	1.05432	1.3128	87.48	-0.242	0.0241	0.2661	1279.312	0.205245	-388.317684	-388.308124	-388.30718	-388.351214	37.764	
C	 0.0548539174	 1.5933688505	-0.0065634963	-0.403827
C	 0.0356077496	 0.0624418534	-0.0320814593	 0.016926
C	 0.7657465547	-0.4936218428	-1.2659316938	-0.243703
C	 1.0064535881	-1.9768443637	-1.1732731387	-0.082846
C	 0.8966109237	-2.6686280636	-0.0416034827	-0.077091
C	 0.543192993	-2.0662371659	 1.3022748259	 0.331339
C	-0.843071528	-2.5428398481	 1.764524582	-0.426278
O	 1.5217966883	-2.4635639187	 2.2782505775	-0.475447
C	 0.641748406	-0.5338335633	 1.2458018855	-0.213343
H	 1.0798094225	 1.9707813413	 0.0888039301	 0.113967
H	-0.3694309697	 2.0113151318	-0.9260387701	 0.108478
H	-0.5233023439	 1.9843017107	 0.8372601628	 0.11087
H	-1.0127664151	-0.261147055	-0.0979277135	 0.073411
H	 0.1972050429	-0.2631571777	-2.1764754278	 0.099187
H	 1.7314250863	 0.0223099985	-1.3885897086	 0.106479
H	 1.2933558779	-2.4880746067	-2.0898580762	 0.085073
H	 1.0766194676	-3.7433565152	-0.0393347315	 0.070336
H	-0.8960394616	-3.638385856	 1.7627491856	 0.100622
H	-1.035290855	-2.1913502129	 2.783083244	 0.119901
H	-1.6371303159	-2.1778609354	 1.1065466051	 0.120448
H	 1.4559374208	-3.4184584127	 2.3893561744	 0.270469
H	 1.706284109	-0.2756372116	 1.2989469652	 0.105037
H	 0.1666992216	-0.1058410068	 2.1358911704	 0.089992
104.1523	135.3267	235.3094	238.3618	258.0277	265.0787	274.6081	335.07	380.334	398.3336	438.7307	458.473	499.0824	533.2054	677.6554	744.8697	790.9241	862.9365	888.6771	920.4969	933.334	957.1545	982.641	996.4147	1004.7619	1035.6449	1082.3971	1117.3544	1135.0009	1146.3512	1186.8396	1219.7983	1237.1526	1287.5027	1311.5822	1325.5482	1374.3072	1382.1732	1393.8905	1399.5345	1410.7267	1421.0867	1471.7453	1484.4664	1491.3725	1496.1638	1498.475	1501.3656	1724.8104	2983.3691	3003.1115	3023.4334	3024.9275	3031.674	3033.8933	3072.1771	3091.1125	3092.2369	3097.0076	3114.4708	3122.4944	3153.1327	3799.8048
CC1CC=CC(C)(O)C1	C[C@H]1CC=C[C@@](C)(O)C1	
InChI=1S/C8H14O/c1-7-4-3-5-8(2,9)6-7/h3,5,7,9H,4,6H2,1-2H3	InChI=1S/C8H14O/c1-7-4-3-5-8(2,9)6-7/h3,5,7,9H,4,6H2,1-2H3/t7-,8+/m0/s1
