19
gdb 112290	3.02146	1.20509	0.94454	3.0664	75.29	-0.2418	-0.0289	0.2129	1264.9729	0.158986	-423.041441	-423.033006	-423.032062	-423.074802	31.819	
C	 0.1281524318	 1.5047612799	-0.0469239491	-0.387415
C	 0.0128488376	-0.0221934095	-0.029289728	-0.185642
C	-1.4319294323	-0.5302906615	 0.0499571825	-0.006981
C	-2.3284752009	-0.1656638836	-1.1623936971	-0.355224
C	-3.2930752799	-1.3458222344	-1.3380504876	 0.413915
O	-4.3993681849	-1.3121809474	-1.8111836833	-0.314781
C	-2.6320970554	-2.5515717777	-0.7182370644	-0.090391
O	-1.2589293807	-2.6723332517	-1.1441313229	-0.24949
C	-1.5202570884	-2.0518075374	 0.1118727371	 0.033863
H	 1.1755855003	 1.8185729292	-0.0819468398	 0.117859
H	-0.3753124843	 1.9366774842	-0.9179918248	 0.122704
H	-0.3222049815	 1.9465563882	 0.8491793186	 0.115419
H	 0.4807892341	-0.4459461544	-0.9262502775	 0.114524
H	 0.573459687	-0.41892934	 0.8272361297	 0.095996
H	-1.8975615037	-0.137905107	 0.9648243793	 0.083529
H	-2.8912936694	 0.7606239417	-1.0390123541	 0.131493
H	-1.7312884534	-0.071270308	-2.0766142746	 0.14099
H	-3.1761426945	-3.4748086711	-0.5484963608	 0.115196
H	-1.1705870214	-2.5970735793	 0.9857378567	 0.104436
90.1465	103.724	145.7589	202.993	252.7023	322.0547	382.4168	452.2599	478.4102	543.7557	651.4523	671.085	787.9583	818.7977	824.9248	860.2514	875.6752	945.102	956.6582	987.2586	1028.3151	1061.1029	1090.5912	1113.7653	1146.8564	1180.4432	1203.9376	1240.7754	1256.4669	1292.8803	1301.1837	1319.9425	1350.236	1384.6433	1409.356	1415.3081	1453.7668	1488.9524	1501.5811	1507.2919	1847.368	3012.0354	3020.4025	3033.0023	3053.8668	3059.6637	3100.163	3108.1184	3126.7334	3142.8352	3181.9032
CCC1CC(=O)C2OC12	CC[C@H]1CC(=O)[C@H]2O[C@@H]12	
InChI=1S/C7H10O2/c1-2-4-3-5(8)7-6(4)9-7/h4,6-7H,2-3H2,1H3	InChI=1S/C7H10O2/c1-2-4-3-5(8)7-6(4)9-7/h4,6-7H,2-3H2,1H3/t4-,6-,7+/m0/s1
