18
gdb 8837	2.69416	1.53386	1.1024	1.683	69.59	-0.2514	-0.0506	0.2007	1122.4788	0.149835	-384.978302	-384.968527	-384.967583	-385.013699	33.167	
C	-0.1731382988	 1.5871123895	 0.1009363227	-0.381416
C	-0.1687208958	 0.0670578919	 0.2403188554	-0.286709
C	 1.1363556475	-0.4941731573	 0.7696073779	 0.369505
O	 2.1392059499	 0.164465842	 0.9066687141	-0.296874
C	 1.1151749083	-1.9947930893	 1.1514914747	-0.157019
C	 2.5157593839	-2.6052496321	 1.1497278773	-0.413777
C	 0.4614860746	-2.0937153648	 2.5301109921	 0.149374
O	-0.7224816702	-2.015897785	 2.7321509079	-0.241452
H	 0.6410705444	 1.9221840131	-0.5461192171	 0.133561
H	-1.1202751186	 1.9315109221	-0.3228384466	 0.114346
H	-0.037059979	 2.0692851846	 1.0728285575	 0.130316
H	-0.9763294391	-0.2953484394	 0.8890375307	 0.150558
H	-0.3488606841	-0.4190760435	-0.7301068211	 0.125315
H	 0.4379902602	-2.5045943569	 0.4572905328	 0.112511
H	 2.4912958973	-3.6441435892	 1.4922336138	 0.118794
H	 2.946119297	-2.5855363681	 0.1456317089	 0.131586
H	 3.1801693401	-2.0330159765	 1.8017160242	 0.146428
H	 1.1830173524	-2.2254069609	 3.3672007449	 0.094953
58.4946	72.4646	76.1403	161.9838	176.3478	198.6274	226.2935	288.6206	312.6212	398.731	508.536	563.5702	635.4076	760.8302	797.744	891.3229	966.8864	969.495	1017.047	1034.5144	1108.1761	1115.2667	1135.7131	1141.6983	1236.3523	1285.6691	1329.9236	1377.9852	1408.448	1413.622	1419.3483	1454.706	1489.0006	1493.2375	1496.2554	1498.7574	1797.8838	1828.9964	2885.7089	3012.9479	3049.4592	3051.9624	3058.144	3059.128	3121.1679	3121.9554	3129.2045	3133.6849
CCC(=O)C(C)C=O	CCC(=O)[C@@H](C)C=O	
InChI=1S/C6H10O2/c1-3-6(8)5(2)4-7/h4-5H,3H2,1-2H3	InChI=1S/C6H10O2/c1-3-6(8)5(2)4-7/h4-5H,3H2,1-2H3/t5-/m0/s1
