19
gdb 109128	4.21444	0.95715	0.82696	4.6362	78.77	-0.2501	0.0057	0.2558	1406.515	0.159179	-423.077002	-423.068002	-423.067058	-423.112002	32.5	
C	 0.1278638292	 1.5480786811	 0.2509308861	-0.378902
C	 0.0168776464	 0.0491238541	-0.0816730815	-0.27928
C	-1.4002321754	-0.4620066192	-0.1228313889	 0.285879
C	-1.9789407911	-0.964912018	-1.2098325929	-0.173123
C	-3.4047229495	-1.4286488879	-1.202835409	-0.402017
C	-3.9571023344	-1.7579646572	 0.175547194	 0.410708
O	-4.9319168207	-2.439368774	 0.3395426126	-0.326176
O	-3.3075808638	-1.2665236386	 1.2550316309	-0.224199
C	-2.1918583064	-0.3725161133	 1.1540640614	-0.144956
H	 1.1741105192	 1.8672481697	 0.2412115686	 0.121922
H	-0.4186908582	 2.1522712764	-0.4799596238	 0.124133
H	-0.2752826711	 1.7758264323	 1.2430146523	 0.122707
H	 0.4899724586	-0.1457118018	-1.049844455	 0.108703
H	 0.5865946621	-0.5210908444	 0.6656638256	 0.109631
H	-1.4288584285	-1.0407351899	-2.1442780561	 0.094559
H	-4.0675663298	-0.6672654549	-1.6409432338	 0.147509
H	-3.5510380862	-2.3227087281	-1.816087048	 0.14759
H	-1.5580053639	-0.6120784829	 2.0155040077	 0.128404
H	-2.5645121866	 0.6498798865	 1.3117708799	 0.126908
31.8551	70.4941	121.5835	164.3963	222.8996	291.4973	346.9711	420.8239	455.6836	527.0485	549.5941	599.1221	719.9575	772.2793	785.165	843.8167	916.2514	960.4577	981.1639	1003.6547	1016.1006	1077.0305	1106.607	1115.6191	1186.2235	1201.0658	1222.2821	1269.9095	1284.8865	1338.5663	1351.1096	1381.8621	1411.1807	1430.2425	1453.9423	1479.8008	1499.2611	1505.039	1507.3753	1756.2355	1845.8226	3001.7812	3006.542	3009.6395	3038.3301	3057.2225	3068.1277	3084.7169	3108.6834	3112.7828	3158.7799
CCC1=CCC(=O)OC1	CCC1=CCC(=O)OC1	
InChI=1S/C7H10O2/c1-2-6-3-4-7(8)9-5-6/h3H,2,4-5H2,1H3	InChI=1S/C7H10O2/c1-2-6-3-4-7(8)9-5-6/h3H,2,4-5H2,1H3
