19
gdb 69168	2.17281	1.8218	1.26673	3.4724	81.16	-0.235	-0.0053	0.2297	1067.1517	0.158498	-385.875558	-385.867157	-385.866212	-385.908232	32.573	
C	 0.0112338985	 1.5604536963	 0.0844020578	-0.497156
C	 0.0231749956	 0.0628015399	-0.0004605382	 0.261231
C	-0.8938094979	-0.839801466	 0.7498710137	-0.328594
C	 0.6048734198	-0.9578982614	 1.0257532635	-0.245483
C	 1.2682474289	-1.6797041805	-0.1130766066	 0.390927
O	 2.097688611	-2.5450965942	-0.1914208275	-0.340842
C	 0.6472933356	-0.7477133079	-1.1376981256	 0.184252
C	 0.1382921735	-1.0743986934	-2.5154188465	-0.326076
C	 1.3905505622	-0.2558800133	-2.3499872765	-0.330601
H	 1.0017072706	 1.9789840723	-0.1222237347	 0.128716
H	-0.6915288126	 1.9917946775	-0.6387885416	 0.125424
H	-0.2982984046	 1.894915919	 1.0793959046	 0.12501
H	-1.4487971496	-0.3898994046	 1.5683971181	 0.119768
H	-1.4196640863	-1.6449477921	 0.2444508829	 0.12227
H	 1.0093144754	-0.7988843888	 2.0177767505	 0.108193
H	 0.2377749095	-2.1017932367	-2.8500378555	 0.130149
H	-0.7608302201	-0.5696619076	-2.8542193088	 0.11753
H	 1.3411037308	 0.8042023362	-2.576139224	 0.118915
H	 2.3460277496	-0.7260069548	-2.5579861155	 0.136364
102.5842	180.5812	186.765	205.9792	221.1958	280.0153	356.2284	449.2614	495.6963	590.3912	621.6032	682.093	732.9637	774.7517	804.3468	861.201	911.6922	937.3426	946.8749	973.9816	992.9975	1003.3373	1033.1795	1059.4072	1073.1687	1080.875	1105.6293	1119.7842	1192.8954	1195.7069	1241.9498	1254.4819	1368.8561	1394.2164	1424.1534	1456.5876	1484.883	1491.3365	1498.9636	1500.1472	1872.1832	3025.7963	3085.7507	3105.5523	3113.2158	3126.7165	3129.2752	3193.0348	3200.5311	3208.7105	3223.496
CC12CC1C(=O)C21CC1	C[C@]12C[C@H]1C(=O)C12CC1	
InChI=1S/C8H10O/c1-7-4-5(7)6(9)8(7)2-3-8/h5H,2-4H2,1H3	InChI=1S/C8H10O/c1-7-4-5(7)6(9)8(7)2-3-8/h5H,2-4H2,1H3/t5-,7-/m0/s1
