20
gdb 57594	2.00867	1.69007	1.25694	2.102	74.9	-0.2391	-0.0429	0.1961	1103.2945	0.16751	-440.267479	-440.257389	-440.256444	-440.301976	37.578	
C	-0.1981107699	 1.5142589543	 0.0168747275	-0.409601
C	 0.0679365302	 0.0010222389	 0.0230675934	 0.194012
O	 0.9226869304	-0.2499453202	 1.1378577551	-0.457082
C	-1.2813860259	-0.6761759103	 0.3026593689	 0.110817
O	-2.2071960163	-0.7440808034	-0.4678096296	-0.262048
C	 0.7381437352	-0.4872627008	-1.2756259848	 0.288741
C	 2.0686233668	 0.173410781	-1.5896082889	-0.447387
C	 0.5224137594	-1.9080009045	-1.6861999806	-0.303327
N	-0.0710914377	-0.8044864278	-2.4554121954	-0.3582
H	 0.7432322726	 2.0580948901	-0.078900051	 0.137112
H	-0.8599980063	 1.7770330607	-0.8114000635	 0.141231
H	-0.6693213009	 1.8184892729	 0.9560898084	 0.129835
H	 1.2651566595	-1.1468819548	 1.0496792619	 0.283552
H	-1.348844281	-1.0807281067	 1.3375189488	 0.097792
H	 2.7405963092	 0.1388825674	-0.7275776053	 0.120288
H	 2.5426591971	-0.3359736073	-2.4316015609	 0.125886
H	 1.9311065925	 1.2203311986	-1.8762964079	 0.126484
H	 1.3208337902	-2.4488150061	-2.1874007202	 0.116412
H	-0.1405458998	-2.5362519787	-1.0946458187	 0.111742
H	-1.0622735454	-0.7329729432	-2.230576787	 0.253742
68.2464	97.6487	189.0043	201.3531	225.985	257.1796	285.3078	312.557	322.3599	366.0371	378.8581	416.1477	440.6383	515.52	602.8219	657.702	836.155	849.9531	906.289	929.4031	960.5409	975.4045	1001.7875	1030.5221	1078.1654	1095.5734	1111.3796	1132.0748	1177.2152	1220.0154	1287.3351	1321.0177	1358.8259	1363.8264	1387.3873	1401.5824	1414.3132	1476.9702	1483.2365	1493.9484	1508.9423	1512.8854	1812.581	2889.4283	3045.9041	3052.4747	3097.9717	3113.0191	3125.7544	3129.8423	3147.623	3181.1548	3484.203	3796.3796
CC(O)(C=O)C1(C)CN1	C[C@@](O)(C=O)[C@@]1(C)CN1	
InChI=1S/C6H11NO2/c1-5(3-7-5)6(2,9)4-8/h4,7,9H,3H2,1-2H3	InChI=1S/C6H11NO2/c1-5(3-7-5)6(2,9)4-8/h4,7,9H,3H2,1-2H3/t5-,6-/m1/s1
