17
gdb 124799	2.53109	1.45454	0.99831	5.1757	70.68	-0.2184	0.0165	0.2348	1166.9272	0.135633	-455.156861	-455.147576	-455.146632	-455.191312	33.708	
C	 0.071027061	 1.4591016714	-0.2454019509	-0.393525
C	 0.011051896	 0.0087077033	 0.2514379033	 0.058934
O	 0.4370835468	-0.0605049005	 1.6004021736	-0.447682
C	-1.3668588444	-0.5796396847	 0.0914115409	 0.272125
N	-2.063562784	-0.9476523671	 1.1635872844	-0.314213
N	-3.2280169256	-1.4169485753	 0.6938674318	-0.19462
C	-3.3078034614	-1.3666448639	-0.6655428748	-0.149424
C	-2.1104053055	-0.8257434065	-1.0871211973	 0.167401
O	-1.6535077158	-0.5544574471	-2.3417632261	-0.442755
H	 1.0827227617	 1.8502034808	-0.1067707383	 0.119028
H	-0.1891504976	 1.5166018817	-1.3065801012	 0.123416
H	-0.6238660825	 2.0820488354	 0.3258977114	 0.113996
H	 0.7072770067	-0.5869958037	-0.3602315799	 0.084705
H	-0.3113941537	-0.3869560072	 2.1159872968	 0.293336
H	-3.9167629325	-1.7623021997	 1.3387538562	 0.277326
H	-4.1769847896	-1.7078131831	-1.2049357265	 0.131025
H	-2.3228057896	-0.7992408338	-2.9876039534	 0.300926
34.8925	142.6223	178.684	203.3084	215.6452	256.7863	304.7805	326.1193	364.96	409.3288	482.5807	553.9971	631.8617	650.5881	715.3362	742.2506	765.7351	915.2688	953.2313	1037.8248	1075.9225	1100.8209	1110.4203	1158.0573	1221.4963	1255.986	1301.855	1341.4616	1367.6887	1396.1991	1429.158	1437.5553	1479.568	1491.9519	1498.6671	1559.601	1627.8814	2972.8771	3039.5856	3118.6132	3122.1518	3258.279	3686.3456	3759.975	3838.1085
CC(O)C1=NNC=C1O	C[C@@H](O)c1n[nH]cc1O	
InChI=1S/C5H8N2O2/c1-3(8)5-4(9)2-6-7-5/h2-3,8-9H,1H3,(H,6,7)	InChI=1S/C5H8N2O2/c1-3(8)5-4(9)2-6-7-5/h2-3,8-9H,1H3,(H,6,7)/t3-/m1/s1
