21
gdb 105801	2.37851	1.436	1.19626	1.9034	82.19	-0.2216	0.0606	0.2822	1175.3357	0.180702	-387.012467	-387.003348	-387.002404	-387.046273	34.738	
C	 0.1826115565	 1.4750975581	-0.2282883341	-0.371952
C	-0.0396449197	-0.0166996066	 0.060884229	-0.287101
C	 0.6724618941	-0.4847802017	 1.3016551547	 0.295465
C	 2.0968492384	-0.9863794489	 1.3308687254	-0.040756
C	 3.3205984608	-0.491479548	 2.0844565274	-0.435267
C	 0.9851639877	-1.9183964561	 1.7678814087	-0.200809
C	 0.3325063504	-1.5802569097	 3.139883736	 0.021706
O	 1.0028707366	-0.4744134458	 3.7614141783	-0.238605
C	 0.0554394212	-0.2132634034	 2.7188777575	-0.040466
H	 1.243880057	 1.6875989553	-0.39150127	 0.121164
H	-0.3687248134	 1.7916445534	-1.1191884001	 0.111102
H	-0.1527539231	 2.0963878683	 0.6091686299	 0.11744
H	-1.1166608833	-0.2136048003	 0.1582155783	 0.094994
H	 0.3015978355	-0.6133255046	-0.7940371253	 0.098262
H	 2.3680502822	-1.2594080172	 0.3079819695	 0.086171
H	 4.0822001062	-1.2798165728	 2.106431113	 0.109983
H	 3.755882715	 0.3646153194	 1.5555729152	 0.10785
H	 3.097481873	-0.1954866264	 3.1042763427	 0.153505
H	 0.7657977042	-2.8415882866	 1.2440895527	 0.087198
H	-0.214074889	-2.2596060267	 3.7827630833	 0.107353
H	-0.7655312902	 0.4593286705	 2.9404284779	 0.102765
80.7736	109.7318	132.6089	199.6994	214.8616	286.5928	304.3415	352.5931	405.7201	491.8635	583.8387	702.6255	714.3815	754.257	780.4154	817.4939	849.7824	859.7699	926.7955	940.8177	962.142	974.8187	985.8656	1036.9817	1053.0391	1076.0009	1094.4669	1128.6557	1153.2286	1191.7887	1225.1408	1258.2051	1272.4447	1310.3492	1341.3145	1363.9405	1381.56	1405.4075	1409.7142	1465.4472	1480.2637	1494.277	1497.6948	1505.3894	1512.087	3006.3961	3030.0229	3033.5795	3047.5043	3075.4569	3079.5082	3101.059	3108.0013	3173.7144	3178.5162	3194.7319	3201.1262
CCC12C(C)C1C1OC21	CC[C@]12[C@@H](C)[C@H]1[C@H]1O[C@@H]21	
InChI=1S/C8H12O/c1-3-8-4(2)5(8)6-7(8)9-6/h4-7H,3H2,1-2H3	InChI=1S/C8H12O/c1-3-8-4(2)5(8)6-7(8)9-6/h4-7H,3H2,1-2H3/t4-,5-,6+,7+,8-/m0/s1
