23
gdb 85870	1.97873	1.64111	1.26483	1.5042	85.4	-0.2368	0.0823	0.3191	1176.5237	0.203078	-388.278699	-388.26874	-388.267796	-388.312882	38.351	
C	-0.262276592	 1.1550057589	-1.2866075406	-0.405878
C	 0.3057088276	-0.1605573813	-0.7889481349	 0.095832
O	 1.7014330336	-0.329844607	-1.1386903183	-0.358244
C	 2.0981550797	-0.56819864	 0.2472581276	 0.362268
C	 2.5959547017	-1.9994900487	 0.4167827532	-0.425326
C	 3.1361733566	 0.4555629907	 0.6878543205	-0.426909
C	 0.6470609452	-0.3144743168	 0.6927188631	 0.25021
C	 0.1468096408	 0.4979868133	 1.8474122529	-0.331403
C	-0.1462513966	-0.9843344418	 1.7692329363	-0.334221
H	 0.2948634093	 2.0028219754	-0.877943191	 0.119489
H	-0.2051563884	 1.1973822455	-2.3789606356	 0.125329
H	-1.3152603729	 1.2561492119	-0.9998333077	 0.110561
H	-0.2908212093	-0.9968489151	-1.1843708912	 0.069229
H	 3.5014289926	-2.1539347545	-0.1789393942	 0.120466
H	 2.837956129	-2.212707851	 1.4639118159	 0.108835
H	 1.8393596508	-2.7154258096	 0.0851910675	 0.118282
H	 2.7602092803	 1.4726016306	 0.5525125849	 0.11854
H	 3.401422323	 0.3193401715	 1.7421322796	 0.10939
H	 4.0483444509	 0.3429586659	 0.0927404613	 0.121451
H	 0.8647662648	 0.8375411823	 2.5872000337	 0.113826
H	-0.66763853	 1.1934495646	 1.6706199953	 0.113695
H	-1.1602789931	-1.2960857051	 1.5370580823	 0.111663
H	 0.3726036864	-1.6442104696	 2.4574729194	 0.112914
61.5082	188.2694	197.2136	204.5097	215.4972	222.89	234.3461	274.1462	335.0491	381.8756	423.2176	464.0602	548.2038	565.6885	657.0472	767.9024	812.2787	860.8147	902.1852	912.6459	927.5391	937.8169	964.8825	989.783	1002.6137	1050.8022	1073.2075	1079.0973	1084.3451	1132.3872	1171.2243	1186.9967	1211.4945	1235.1701	1284.0571	1301.0578	1375.8503	1395.8219	1401.582	1408.0098	1414.4322	1463.0072	1473.7271	1478.2916	1484.3256	1489.901	1495.1742	1497.9174	1510.0606	2979.543	3030.186	3032.2206	3036.1949	3096.9308	3101.1785	3104.6627	3116.6734	3117.7947	3119.9987	3122.2158	3125.0417	3196.6835	3211.7595
CC1OC(C)(C)C11CC1	C[C@H]1OC(C)(C)C21CC2	
InChI=1S/C8H14O/c1-6-8(4-5-8)7(2,3)9-6/h6H,4-5H2,1-3H3	InChI=1S/C8H14O/c1-6-8(4-5-8)7(2,3)9-6/h6H,4-5H2,1-3H3/t6-/m1/s1
