14
gdb 24180	4.1297	1.75862	1.23338	2.613	78.88	-0.2123	-0.0513	0.161	922.9827	0.105605	-395.799491	-395.793611	-395.792667	-395.829603	23.806	
C	-0.0213920282	 1.3940748478	 0.0101470373	-0.132883
C	 1.2784851923	 1.8576665425	 0.0000915704	-0.118505
N	 2.1031323195	 0.7612072143	-0.0138676465	-0.059676
C	 3.4564487583	 0.6232235067	-0.0277240313	 0.102013
N	 4.0401738748	-0.5343800932	-0.0396804224	-0.279249
C	 3.2147989946	-1.6330683827	-0.0376820957	 0.032718
N	 1.9091790916	-1.629474437	-0.0250201591	-0.305715
C	 1.3062349884	-0.4234746584	-0.0126085926	 0.414427
C	-0.0146206069	-0.0216525532	 0.002358824	-0.284678
H	-0.8986336344	 2.023679508	 0.0220670194	 0.116037
H	 1.6812098942	 2.8575751269	 0.001652042	 0.133173
H	 4.040197411	 1.5407910875	-0.0283685418	 0.142097
H	 3.7188257289	-2.5944983307	-0.0477927621	 0.122774
H	-0.8647990241	-0.6837543083	 0.0069769184	 0.117467
201.6708	225.7916	429.0771	432.3176	592.5266	599.5691	616.2624	641.7784	689.172	756.1026	775.4801	812.066	872.4177	888.1522	913.8058	929.1234	974.1852	1048.8379	1100.1944	1104.3128	1226.07	1257.4197	1266.8453	1349.0666	1404.7302	1418.6009	1451.8923	1488.9221	1514.9458	1585.429	1651.1844	3164.181	3185.0508	3245.2493	3267.8908	3275.0755
C1=CN2C=NC=NC2=C1	c1cn2cncnc2c1	
InChI=1S/C6H5N3/c1-2-6-8-4-7-5-9(6)3-1/h1-5H	InChI=1S/C6H5N3/c1-2-6-8-4-7-5-9(6)3-1/h1-5H
