21
gdb 107784	2.50235	1.58881	1.26881	1.5709	81.78	-0.2412	0.0663	0.3075	1090.4696	0.182655	-387.036697	-387.028127	-387.027183	-387.069574	33.674	
C	-0.0102264846	 1.6030824485	 0.0435721962	-0.424707
C	 0.0915153591	 0.08300703	 0.0423462093	 0.007118
C	 1.1240787222	-0.6530107448	-0.8120592309	-0.078468
C	 2.4149508042	-0.7841404253	 0.0170055446	-0.067491
C	 2.1639843547	-0.1352935912	 1.3753810261	-0.270603
C	 0.7155545009	-0.6915676169	 1.2525357747	 0.34144
C	-0.1036018119	-0.9996812121	 2.47252882	-0.216997
O	-0.3881966922	 0.2333049758	 3.1263422571	-0.420837
C	 1.2713625922	-1.7514620489	 0.2101712423	-0.160862
H	 0.9695783145	 2.0806194515	 0.1320679899	 0.114115
H	-0.4641254482	 1.9592902178	-0.8882678319	 0.10408
H	-0.6301079275	 1.943395681	 0.8785587131	 0.128741
H	-0.8966858912	-0.353279563	-0.1522018189	 0.061776
H	 1.1503512605	-0.7537072353	-1.8904127587	 0.076781
H	 3.3635969707	-0.9787427528	-0.4672900244	 0.080251
H	 2.7115455015	-0.6581748758	 2.1659516844	 0.090884
H	 2.2949293053	 0.9439923972	 1.4975563828	 0.095078
H	-1.0319049983	-1.5162509504	 2.1765429879	 0.083565
H	 0.4539359547	-1.6815550454	 3.1359759457	 0.083511
H	-0.9173072742	 0.0447223084	 3.9069194229	 0.288307
H	 1.2035251677	-2.8273194481	 0.1364300079	 0.084318
89.8622	143.4216	190.4368	240.5447	249.0873	290.4351	326.0861	372.3015	478.9001	560.6099	661.1872	683.259	749.8399	786.2909	797.6618	852.2319	903.7335	929.6316	935.5502	977.2783	996.1908	1012.2474	1019.9689	1032.6899	1061.5173	1088.3849	1111.2736	1123.4114	1142.4795	1169.2429	1177.3311	1201.7559	1238.605	1256.6653	1265.3118	1312.8903	1327.6992	1366.9171	1395.4069	1406.1061	1465.7744	1489.2776	1497.1927	1511.6197	1518.7684	2955.0117	2982.0122	3021.8822	3034.0019	3045.2467	3092.0559	3099.4247	3117.6806	3182.5822	3192.3286	3219.0347	3827.8541
CC1C2C3CC1(CO)C23	C[C@H]1[C@H]2[C@H]3C[C@]1(CO)[C@@H]23	
InChI=1S/C8H12O/c1-4-6-5-2-8(4,3-9)7(5)6/h4-7,9H,2-3H2,1H3	InChI=1S/C8H12O/c1-4-6-5-2-8(4,3-9)7(5)6/h4-7,9H,2-3H2,1H3/t4-,5+,6-,7+,8+/m0/s1
