17
gdb 15653	3.31668	1.75228	1.25596	2.3656	64.08	-0.2484	0.0132	0.2616	960.7602	0.143067	-401.012413	-401.004518	-401.003574	-401.045754	28.656	
C	-0.2914235768	 1.5318548334	-0.1404465717	-0.40287
C	 0.0458007149	 0.052369033	-0.0258763552	 0.087295
O	 1.0637123555	-0.2723969403	-1.0257823782	-0.230482
C	 2.0993485722	-0.798806196	-0.3427156375	 0.120012
N	 2.0213865225	-0.9561860632	 0.9120676228	-0.293334
C	 0.6851053679	-0.4558856118	 1.305087185	-0.017699
C	 0.8659094678	 0.5508942194	 2.447695869	-0.059087
O	 1.5034588385	-0.0682950455	 3.5432423767	-0.424786
H	 0.5823849872	 2.1588939742	 0.0534803034	 0.133285
H	-0.6547536936	 1.7541441404	-1.1472344828	 0.131663
H	-1.0775153062	 1.8008325444	 0.5716731204	 0.128047
H	-0.833782883	-0.5454439595	-0.2819969074	 0.100074
H	 2.9567171135	-1.0560536991	-0.9556691311	 0.143886
H	 0.1127766453	-1.2984888401	 1.7098734909	 0.097783
H	 1.4378058441	 1.4210675265	 2.0892568346	 0.086154
H	-0.105251265	 0.9113124507	 2.8039813816	 0.104635
H	 2.2628970852	-0.5363798365	 3.1721754791	 0.295425
24.2837	125.4299	191.6153	241.7314	290.9965	328.8869	442.155	471.7462	481.03	588.499	724.7621	809.1427	842.3384	873.7779	948.1652	970.1693	1017.8684	1045.3091	1067.8725	1089.7584	1141.7886	1149.5089	1158.2323	1223.6128	1303.2375	1315.209	1327.6041	1357.5004	1382.7329	1389.7762	1412.2739	1441.5292	1484.7116	1499.0905	1507.972	1707.3828	2979.0433	3035.2534	3047.709	3062.6106	3069.4383	3119.4818	3129.573	3210.4048	3768.0082
CC1OC=NC1CO	C[C@H]1OC=N[C@H]1CO	
InChI=1S/C5H9NO2/c1-4-5(2-7)6-3-8-4/h3-5,7H,2H2,1H3	InChI=1S/C5H9NO2/c1-4-5(2-7)6-3-8-4/h3-5,7H,2H2,1H3/t4-,5+/m1/s1
