14
gdb 48337	2.30699	1.47133	1.05924	2.8683	71.52	-0.268	-0.06	0.208	1116.1128	0.097716	-436.6482	-436.639681	-436.638737	-436.681924	30.751	
N	-0.1324211392	 0.9273542019	 0.987077448	-0.529931
C	-0.1053092651	-0.058317129	 0.2202388614	 0.442803
C	-1.1368418237	-1.0062808288	-0.3478424537	-0.413077
C	 0.0752116733	-1.6597131835	-1.050772693	 0.147203
O	 0.9707255228	-0.6579745213	-0.4298125867	-0.285246
C	 0.490174002	-3.032761025	-0.5001271709	 0.122269
O	-0.2184886544	-3.7174233907	 0.1834492519	-0.228487
C	 0.1380657335	-1.654510104	-2.4954639734	 0.276473
C	 0.1967461441	-1.7158530761	-3.6944786411	-0.422309
H	 0.7980825455	 1.3210348954	 1.135239613	 0.236394
H	-1.6256720403	-1.6596399331	 0.3754335111	 0.168772
H	-1.870229274	-0.5465303458	-1.0090996933	 0.152645
H	 1.5236524962	-3.3230737666	-0.7778601454	 0.115
H	 0.2429984693	-1.7494474033	-4.7558420877	 0.217491
67.0526	84.4733	160.1498	180.6061	241.4275	323.7706	422.1674	478.6772	484.0209	507.0698	556.4146	645.3791	681.5149	688.2536	782.2242	865.9167	897.1525	913.1659	955.0113	990.0495	1031.2791	1081.1426	1175.0068	1212.8627	1239.4665	1264.083	1403.8934	1459.2504	1836.351	1844.3192	2234.2163	2936.2638	3103.9466	3166.2617	3483.5674	3496.055
N=C1CC(O1)(C=O)C#C	[NH][C]1C[C@@](O1)(C=O)C#C	
InChI=1S/C6H5NO2/c1-2-6(4-8)3-5(7)9-6/h1,4,7H,3H2	InChI=1S/C6H5NO2/c1-2-6(4-8)3-5(7)9-6/h1,4,7H,3H2/t6-/m1/s1
