19
gdb 122602	4.32304	0.71157	0.64003	1.1078	74.58	-0.2602	-0.0359	0.2243	1756.8458	0.156143	-460.145951	-460.136182	-460.135238	-460.182129	33.692	
C	-0.0101044493	 1.5539463059	-0.1709537337	-0.385259
C	-0.0751217105	 0.038894114	-0.0871320164	-0.030776
O	 0.6335117516	-0.5022303927	-1.1868289456	-0.244118
C	 0.6319604475	-1.9074716733	-1.2116901033	-0.064505
C	 1.4643718767	-2.3738714196	-2.3889416003	-0.001112
O	 2.8982168027	-2.3413961279	-2.1805052969	-0.285977
C	 3.0748508866	-3.7488924618	-2.4369137884	-0.187731
C	 1.5598283955	-3.8911655239	-2.6180298825	 0.325181
O	 0.7870256817	-4.7777172489	-2.8131128608	-0.268521
H	 1.0287011097	 1.894288638	-0.1428218663	 0.131454
H	-0.4615564576	 1.9066035268	-1.102506919	 0.12787
H	-0.547628814	 2.0045892339	 0.668575094	 0.116333
H	 0.3663738602	-0.3173928825	 0.8585905177	 0.090298
H	-1.1224353653	-0.3076413104	-0.1046598871	 0.087922
H	 1.0451582766	-2.323777746	-0.2783523876	 0.095572
H	-0.3909523482	-2.3054890349	-1.3333602436	 0.104388
H	 1.175293518	-1.8074938678	-3.2851834535	 0.119054
H	 3.6718166722	-3.9531005627	-3.3353324941	 0.134194
H	 3.5026381361	-4.2931194564	-1.5854142325	 0.135731
46.0937	71.6375	94.802	117.4773	144.2885	198.9256	245.7827	311.415	386.563	430.4175	515.998	564.5875	693.7706	821.123	822.6471	872.9757	892.0026	973.5848	1011.8037	1046.4969	1069.2911	1085.7914	1114.1777	1135.5945	1151.5077	1168.8036	1188.9137	1235.8496	1260.2319	1291.1924	1297.7047	1339.6988	1387.1448	1407.1128	1446.5904	1480.7208	1483.4242	1496.2963	1501.0868	1532.8269	1922.3858	2949.8389	2960.8584	2983.2339	2990.9932	3014.4593	3026.6733	3046.4251	3062.7308	3121.0578	3124.0176
CCOCC1OCC1=O	CCOC[C@H]1OCC1=O	
InChI=1S/C6H10O3/c1-2-8-4-6-5(7)3-9-6/h6H,2-4H2,1H3	InChI=1S/C6H10O3/c1-2-8-4-6-5(7)3-9-6/h6H,2-4H2,1H3/t6-/m1/s1
