18
gdb 23120	1.87529	1.67329	0.89891	0.7287	79.98	-0.2135	-0.0181	0.1954	1258.8878	0.147083	-439.057152	-439.047996	-439.047051	-439.09152	33.463	
O	-0.0500977146	 1.4745266896	 0.0073924266	-0.424642
C	 0.0348852583	 0.0575424983	 0.0012419584	-0.193063
C	-1.3566442996	-0.5035536055	 0.0114080103	 0.235031
C	-2.4834925656	 0.2270841119	 0.0239807788	-0.131648
C	-3.7377333066	-0.6022237774	 0.0317261081	-0.275849
C	-3.2203429184	-2.0620193187	 0.0226339918	-0.29214
C	-1.7023093201	-1.9350309731	 0.009099783	 0.313296
N	-0.9841578135	-2.9930639117	-0.0016060303	-0.249168
O	 0.398599034	-2.7073672954	-0.0131304057	-0.402947
H	 0.8459658777	 1.8215942654	 0.0014766743	 0.289086
H	 0.5720490696	-0.3131503932	-0.8837837307	 0.112759
H	 0.5876096128	-0.319855067	 0.8737632289	 0.112739
H	-2.4919582495	 1.3093828348	 0.0280392459	 0.121115
H	-4.3548676836	-0.3855476432	 0.9127410869	 0.114084
H	-4.3692831322	-0.379817052	-0.8375838069	 0.114112
H	-3.5494158997	-2.6225262837	 0.9017318136	 0.12638
H	-3.5656781199	-2.6176552332	-0.8532900734	 0.126368
H	 0.7829314309	-3.589600986	-0.0201321897	 0.304488
44.4397	119.2267	196.0981	201.1509	225.7148	262.2265	268.7102	321.4023	390.3537	401.8337	513.9631	641.2325	650.8263	740.7096	802.7448	803.448	871.9166	930.8789	975.1951	1016.1585	1031.4684	1044.3997	1054.3553	1116.2589	1162.7393	1203.844	1237.3872	1253.1621	1254.0568	1288.005	1327.4757	1345.7712	1390.8976	1462.2591	1471.8364	1494.8026	1496.7215	1682.1695	1722.2408	2994.5058	3017.3127	3023.1483	3044.095	3066.289	3103.0812	3225.7635	3826.7799	3842.8678
OCC1=CCCC1=NO	OCC1=CCCC1=NO	
InChI=1S/C6H9NO2/c8-4-5-2-1-3-6(5)7-9/h2,8-9H,1,3-4H2	InChI=1S/C6H9NO2/c8-4-5-2-1-3-6(5)7-9/h2,8-9H,1,3-4H2
