17
gdb 74835	2.64081	1.67441	1.10018	4.2589	76.09	-0.2138	-0.0038	0.21	1088.8247	0.13736	-418.036803	-418.028895	-418.027951	-418.069362	30.211	
C	 0.0267669892	 1.5312620489	 0.0737236281	-0.489657
C	-0.0595099083	 0.0363048412	 0.0258187284	 0.366424
C	-1.1830256456	-0.6665800462	-0.1569760625	-0.202635
C	-1.135162546	-2.1451671377	-0.1365979727	-0.056931
C	-0.5708872629	-2.9527975375	-1.2685945839	-0.2516
N	 0.1870617389	-2.777006598	-0.0254521236	-0.15317
C	 1.3574740846	-1.9850115555	-0.0470708197	 0.415875
O	 2.4580328606	-2.4559774764	-0.2052782543	-0.356197
N	 1.1644922249	-0.6318694093	 0.1874565411	-0.401386
H	 0.6696915217	 1.9177228048	-0.7268166811	 0.136469
H	-0.9623530526	 1.9787147566	-0.0344031517	 0.140778
H	 0.456020066	 1.8667137391	 1.025718342	 0.139255
H	-2.1350347783	-0.1636181363	-0.2677717311	 0.095331
H	-1.8901066423	-2.6371284524	 0.4762453528	 0.106819
H	-0.9207977372	-3.9642816012	-1.4535757934	 0.127845
H	-0.2303908413	-2.4104076148	-2.1464147043	 0.128417
H	 2.0179047587	-0.0957427554	 0.223269626	 0.254362
77.1003	142.4793	190.8549	239.91	301.8658	406.0794	456.6504	502.5681	511.5777	567.7528	602.9184	699.5633	731.7966	771.9895	789.8359	870.807	921.6746	988.8514	1008.9882	1034.9558	1068.2605	1082.3247	1098.2064	1123.1759	1169.4863	1201.9467	1224.3367	1331.5502	1353.031	1400.3765	1415.7095	1465.6763	1476.4369	1497.3786	1503.3942	1744.2145	1824.4971	3024.4917	3074.2517	3103.1551	3110.0776	3138.7862	3202.8703	3210.1553	3632.0282
CC1=CC2CN2C(=O)N1	CC1=C[C@H]2CN2C(=O)N1	
InChI=1S/C6H8N2O/c1-4-2-5-3-8(5)6(9)7-4/h2,5H,3H2,1H3,(H,7,9)	InChI=1S/C6H8N2O/c1-4-2-5-3-8(5)6(9)7-4/h2,5H,3H2,1H3,(H,7,9)/t5-,8?/m0/s1
