15
gdb 34080	3.68737	1.58813	1.37056	1.6218	75.97	-0.2334	-0.0145	0.219	936.6572	0.11201	-383.403129	-383.396334	-383.39539	-383.433969	28.107	
C	-0.0815501691	-1.1742311383	 0.0750442976	-0.304286
C	-0.0375399769	 0.024205871	 0.0008714572	 0.091715
C	 0.0355327359	 1.4558585655	-0.1156304973	 0.295308
O	-0.7708225551	 2.1626748294	 0.9491849612	-0.324113
C	-1.2966354873	 3.003387558	-0.0448419304	 0.097271
C	-0.1752935533	 3.5841094259	-0.9984604102	-0.152925
C	 1.2162559262	 3.3946555309	-0.5337595069	-0.066637
C	 1.3801104924	 2.1444897851	-0.078696788	-0.163537
C	-0.8004857913	 2.2236308819	-1.200959342	-0.209032
H	-0.1240710302	-2.2331928719	 0.1454755952	 0.190748
H	-2.2094252444	 3.5422231254	 0.1755162848	 0.1169
H	-0.4733887989	 4.4084469787	-1.6347108675	 0.094199
H	 1.9484882934	 4.1908227004	-0.4835023039	 0.110256
H	 2.2426151142	 1.7244222924	 0.4191884837	 0.113886
H	-1.2532821754	 1.8263982557	-2.0997187534	 0.110249
147.2924	157.3232	388.7329	402.7321	468.06	513.7552	543.4602	611.5158	636.2606	675.1185	678.7674	715.7182	746.5427	784.5957	805.0047	819.3502	858.3023	922.0047	934.7306	986.642	1017.5784	1047.8612	1059.2482	1090.5456	1118.8542	1127.8335	1204.633	1256.8116	1301.7006	1357.3105	1371.2564	1624.363	2246.2601	3191.3251	3193.9412	3207.3302	3211.395	3241.3734	3501.1106
C#CC12OC3C(C=C1)C23	C#C[C@@]12O[C@H]3[C@@H](C=C1)[C@@H]23	
InChI=1S/C8H6O/c1-2-8-4-3-5-6(8)7(5)9-8/h1,3-7H	InChI=1S/C8H6O/c1-2-8-4-3-5-6(8)7(5)9-8/h1,3-7H/t5-,6+,7-,8+/m0/s1
