17
gdb 18773	4.04351	2.39127	2.10226	1.769	70.4	-0.2119	0.0792	0.2912	728.5601	0.143761	-326.633104	-326.627055	-326.626111	-326.662809	25.063	
C	-0.0080164863	 1.4546819575	 0.0219225806	-0.517986
C	-0.0437368615	-0.0415414135	 0.0329662098	 0.350232
C	 0.4385639844	-1.0472422061	-1.0077998871	-0.168726
C	 1.1589017186	-0.951428203	 0.3074841104	-0.070495
N	 0.5600776089	-2.1882846151	 0.8985032426	-0.158739
C	-0.5238966975	-1.6665187609	 1.8140317717	-0.183377
C	-1.1478878358	-0.9885890624	 0.5804346155	-0.130828
C	-0.4372573577	-2.0877310193	-0.2780512438	-0.003066
H	 0.9359305574	 1.8206520407	-0.3973792326	 0.121265
H	-0.8202452274	 1.8783338233	-0.5798432122	 0.120043
H	-0.0974356144	 1.8617042126	 1.036491576	 0.120694
H	 0.783708233	-0.9369324244	-2.0267920679	 0.09072
H	 2.1540230898	-0.598830237	 0.5484360659	 0.087217
H	-1.1132522361	-2.5081260011	 2.1911745888	 0.104063
H	-0.1743170863	-1.0491550652	 2.6477586859	 0.098408
H	-2.19367524	-0.6943044104	 0.488782305	 0.06421
H	-0.8847055991	-3.0014337057	-0.6641655085	 0.076363
203.3988	226.8836	273.2562	431.3435	554.7832	598.7714	739.9399	762.4498	799.7389	816.9682	835.3109	853.3589	875.8229	891.9432	903.5806	930.9479	967.7185	994.3212	1028.7869	1044.6303	1087.7517	1109.6465	1137.3471	1151.2618	1167.3777	1199.9511	1210.2322	1210.8258	1238.76	1278.9336	1297.1792	1407.2077	1428.3136	1484.4649	1494.584	1500.3913	3018.0098	3042.5633	3076.6893	3087.543	3101.2174	3111.004	3133.5064	3188.1631	3207.0057
CC12C3C1N1CC2C31	C[C@@]12[C@H]3[C@@H]1N1C[C@@H]2[C@@H]31	
InChI=1S/C7H9N/c1-7-3-2-8-5(3)4(7)6(7)8/h3-6H,2H2,1H3	InChI=1S/C7H9N/c1-7-3-2-8-5(3)4(7)6(7)8/h3-6H,2H2,1H3/t3-,4-,5+,6+,7-/m1/s1
