15
gdb 22712	4.25923	0.97978	0.88318	3.5027	76.9	-0.2545	-0.0188	0.2356	1268.8724	0.112317	-416.750013	-416.742039	-416.741095	-416.782705	29.994	
O	-0.1400140788	 1.2994492567	-0.0309653259	-0.387656
N	 0.0154033908	-0.0928863159	 0.0530514949	-0.252597
C	-1.1035003635	-0.6774940691	-0.037637957	 0.454151
C	-2.5635154037	-0.2391953424	-0.0831592957	-0.386251
C	-2.940256278	-1.7351716137	 0.0515613425	 0.199508
C	-2.3323115631	-2.5256334833	-1.0763282666	-0.316028
C	-1.4258630396	-2.1265954078	 0.0614630788	-0.185113
C	-3.9806022315	-2.2418895542	 0.8813366108	 0.196352
N	-4.8302768238	-2.6425009226	 1.5579447729	-0.34236
H	 0.7646388026	 1.6136448721	 0.0740965259	 0.312577
H	-2.8269032313	 0.3562101404	 0.7942782792	 0.155542
H	-2.9206721025	 0.2674629121	-0.983411789	 0.134452
H	-2.5944640637	-3.5777585553	-1.0987627838	 0.149073
H	-2.2300097721	-2.0597512937	-2.0520993208	 0.135348
H	-0.9235332616	-2.8593635833	 0.6788543237	 0.133002
79.0719	144.3991	207.2874	224.044	308.2164	379.7654	435.43	461.1828	518.3165	550.9197	572.1456	593.5458	709.3252	801.6368	839.544	921.5839	955.9718	978.2402	989.9024	1005.1813	1072.7487	1098.4407	1110.2718	1162.3697	1227.3045	1232.1797	1265.4418	1368.878	1416.8042	1467.0405	1491.9113	1793.0799	2348.1433	3068.8443	3124.0013	3125.749	3213.13	3223.2374	3816.396
ON=C1CC2(CC12)C#N	ON=C1C[C@]2(C[C@@H]12)C#N	
InChI=1S/C6H6N2O/c7-3-6-1-4(6)5(2-6)8-9/h4,9H,1-2H2	InChI=1S/C6H6N2O/c7-3-6-1-4(6)5(2-6)8-9/h4,9H,1-2H2/t4-,6+/m0/s1
