19
gdb 47460	3.25122	1.09985	0.88431	3.1757	80.97	-0.2339	-0.0168	0.2171	1327.0185	0.158271	-385.89367	-385.884687	-385.883742	-385.928035	33.515	
O	-0.3117871444	 0.158839923	 0.6984064215	-0.306434
C	-0.2043589787	 1.2731292975	 0.2574955908	 0.399463
C	-1.3569742121	 2.1505621695	-0.2507157453	-0.311699
C	-0.696927492	 3.4626528371	-0.707305899	-0.223202
C	 0.6028436564	 3.5398244616	 0.1230216413	-0.239441
C	 1.098139664	 2.0847113856	 0.1683014848	-0.077709
C	 2.1207556226	 1.7521978721	 1.2707181829	-0.375512
C	 2.8314601941	 0.497053544	 1.0596100894	 0.319531
C	 3.4491507219	-0.5147216429	 0.8640773074	-0.447177
H	-1.9307460206	 1.6295769312	-1.0216364167	 0.130838
H	-2.03914453	 2.3100603642	 0.5934775162	 0.134141
H	-0.4477783154	 3.4097569983	-1.7732068365	 0.108371
H	-1.3380367086	 4.3362441078	-0.5685791717	 0.10618
H	 1.3394286606	 4.2270879664	-0.3010731088	 0.106516
H	 0.3797652281	 3.8863732381	 1.1410341746	 0.104617
H	 1.540915275	 1.8395947485	-0.8084604171	 0.114075
H	 2.8519060698	 2.568857769	 1.327479536	 0.129059
H	 1.6081861573	 1.7284304002	 2.2406654117	 0.134458
H	 3.9733252618	-1.4237927611	 0.7037005785	 0.193925
50.3594	75.0478	126.4753	199.2861	237.75	331.1666	334.6499	412.4693	480.4853	554.8881	598.271	612.5546	613.5935	642.7184	706.0309	813.645	877.2356	917.1152	937.4851	950.1794	967.3923	1016.484	1027.3834	1099.5404	1135.6718	1161.6288	1185.0749	1211.8834	1237.193	1284.4792	1296.7844	1324.6442	1339.5843	1349.179	1364.0177	1448.6154	1464.932	1493.8119	1505.5188	1845.3418	2242.4512	3004.7894	3019.2528	3026.3676	3042.9192	3045.6732	3054.5186	3093.9303	3097.6456	3106.7269	3508.0939
O=C1CCCC1CC#C	O=C1CCC[C@H]1CC#C	
InChI=1S/C8H10O/c1-2-4-7-5-3-6-8(7)9/h1,7H,3-6H2	InChI=1S/C8H10O/c1-2-4-7-5-3-6-8(7)9/h1,7H,3-6H2/t7-/m1/s1
