20
gdb 89086	5.77289	0.59588	0.56491	1.6726	83.61	-0.2479	0.0339	0.2819	1962.3456	0.168112	-403.07068	-403.060371	-403.059427	-403.10727	36.386	
C	 0.0843417534	 1.4783685731	-0.2872551824	-0.39495
C	 0.0355434753	 0.0077038388	 0.057502232	-0.000253
N	 1.3134457179	-0.721309811	 0.0990587005	-0.332462
C	 0.5261852026	-0.5807439785	 1.3342144301	-0.028128
C	 1.1356877944	 0.2210353217	 2.4520631659	-0.045811
O	 1.8378997752	-0.6763546846	 3.2938082	-0.248687
C	 2.4722979021	-0.0173149581	 4.3701708337	-0.202443
C	 3.1520833506	-0.9866573515	 5.2196933739	 0.281517
C	 3.7209524319	-1.7627494201	 5.93790638	-0.415275
H	 0.9700279443	 1.9583024859	 0.134330608	 0.127027
H	 0.1204120457	 1.6130884428	-1.373627198	 0.121856
H	-0.8055113979	 1.9977912411	 0.0851137548	 0.115672
H	-0.8121325382	-0.5166330897	-0.3837954909	 0.082072
H	 1.215462875	-1.6569220646	-0.2844349881	 0.232231
H	-0.0046623866	-1.4603972074	 1.6951418423	 0.091202
H	 1.8166637069	 0.9840518796	 2.0479234996	 0.097689
H	 0.3473807039	 0.7395595722	 3.0261638646	 0.084735
H	 3.2010305128	 0.7224639271	 3.9959008664	 0.119711
H	 1.7348086864	 0.5454328609	 4.969532948	 0.114994
H	 4.2229732742	-2.4548142776	 6.5676740097	 0.199305
34.524	81.5026	83.499	118.1017	151.1671	183.912	265.5657	324.821	335.656	381.0449	469.6871	479.9135	580.0906	606.3746	674.4101	772.4846	849.0436	880.6741	964.0891	968.8467	986.8183	1029.3171	1034.5903	1042.2219	1072.5056	1102.8744	1140.8633	1159.7564	1213.9514	1250.5431	1256.2727	1276.6169	1284.2781	1359.3315	1399.8026	1417.5788	1443.9474	1476.5317	1491.5944	1494.5264	1506.4225	1517.6108	2248.1779	2944.1203	2952.5139	2965.6729	3014.5557	3036.2483	3094.9479	3098.855	3122.6666	3132.5784	3507.1357	3511.7337
CC1NC1COCC#C	C[C@H]1N[C@H]1COCC#C	
InChI=1S/C7H11NO/c1-3-4-9-5-7-6(2)8-7/h1,6-8H,4-5H2,2H3	InChI=1S/C7H11NO/c1-3-4-9-5-7-6(2)8-7/h1,6-8H,4-5H2,2H3/t6-,7+/m1/s1
