19
gdb 98568	4.08337	0.96419	0.79439	4.0749	83.86	-0.1959	-0.0006	0.1953	1439.5679	0.160746	-419.251124	-419.241769	-419.240825	-419.286038	33.319	
C	 0.0420813868	 1.466600663	 0.097773542	-0.332618
N	 0.0777588687	 0.0243207411	-0.0073870223	-0.335578
C	 0.6287174738	-0.6210170945	-1.0890742706	 0.323576
O	 1.135906874	-0.0093713841	-2.0235695548	-0.410025
C	 0.5740890186	-2.0866903609	-1.0330721308	 0.157641
C	 1.0014276473	-2.8724325443	-2.0403217586	-0.056978
N	 0.7664100878	-4.2163401826	-1.8280001359	-0.297111
C	 0.4459022604	-4.3909570564	-0.3986565649	-0.16356
C	-0.0367735933	-2.9816402598	 0.0372479751	-0.349726
H	 0.5690445875	 1.8195569143	 0.9924450394	 0.116296
H	 0.539385149	 1.8637377381	-0.7881095218	 0.170202
H	-0.9865557622	 1.8462481474	 0.1289350748	 0.116837
H	-0.3463758312	-0.5245899048	 0.7203195973	 0.238873
H	 1.4411946003	-2.5308489625	-2.9676179796	 0.141764
H	 1.405862836	-4.8776982887	-2.2437601187	 0.242547
H	-0.3101158413	-5.1673277112	-0.2565116129	 0.113672
H	 1.3435916715	-4.6794230405	 0.1664892016	 0.105992
H	 0.2891651829	-2.7494146666	 1.0570491279	 0.106301
H	-1.1348464064	-2.926058777	 0.0282492428	 0.111895
58.1997	92.9404	107.0075	150.0844	156.0059	232.9873	320.9691	380.6475	418.109	479.8193	490.7257	544.3479	725.8308	754.5574	805.129	858.2872	893.4517	945.6919	957.1623	1006.4641	1030.2154	1074.1824	1140.198	1154.3607	1161.4849	1172.1868	1200.3813	1237.2733	1276.3729	1312.0663	1330.0734	1350.3043	1435.3393	1460.1568	1491.5439	1498.9746	1501.4211	1521.0273	1559.5637	1670.2006	1736.9718	2995.9829	2999.2495	3016.2148	3053.5314	3062.633	3088.1746	3150.1609	3239.7314	3600.6692	3660.2138
CNC(=O)C1=CNCC1	CNC(=O)C1=CNCC1	
InChI=1S/C6H10N2O/c1-7-6(9)5-2-3-8-4-5/h4,8H,2-3H2,1H3,(H,7,9)	InChI=1S/C6H10N2O/c1-7-6(9)5-2-3-8-4-5/h4,8H,2-3H2,1H3,(H,7,9)
