18
gdb 28248	4.51422	1.17117	0.94916	0.8305	79.68	-0.1696	0.0651	0.2347	1215.2088	0.150392	-401.992381	-401.984454	-401.98351	-402.024567	30.789	
O	 0.2701968412	 1.3095694575	 0.2257876344	-0.438052
C	 0.1438547368	-0.0253843562	 0.001043572	 0.394563
C	 0.0978637477	-0.7862589444	-1.1472701533	-0.499473
C	-0.0059255245	-2.141488509	-0.6991855163	 0.325113
C	-0.0200322501	-2.1433597778	 0.664504754	 0.282736
C	-0.2328998038	-3.4804969324	 1.2928459455	-0.34874
C	-0.0086679386	-4.4065461279	 0.0510935183	-0.186953
C	-0.1967942506	-3.5327860947	-1.2335476456	-0.344963
N	 0.0583583385	-0.836803801	 1.1048322888	-0.425331
H	 0.3404220161	 1.7503913315	-0.6259927602	 0.306081
H	 0.1436975946	-0.4094916845	-2.1578578553	 0.083188
H	 0.46221064	-3.7232611249	 2.1061964324	 0.09636
H	-1.2468901666	-3.5950786777	 1.7044462736	 0.100161
H	 1.0178834195	-4.7840583099	 0.0766677556	 0.106416
H	-0.6714929418	-5.2758474456	 0.0638352828	 0.093433
H	-1.198396898	-3.6691041154	-1.6652571854	 0.098682
H	 0.5164866498	-3.8168948143	-2.0159113777	 0.096678
H	 0.1170488397	-0.5032458834	 2.0510628265	 0.260099
120.371	169.6403	213.109	234.8185	286.2893	300.5046	421.7667	496.5461	514.3372	647.0879	657.2703	671.8944	716.0295	723.4062	790.035	851.8241	900.2997	912.4648	996.6289	1024.098	1061.5104	1095.9315	1149.5575	1161.6272	1173.2094	1204.5792	1217.5668	1256.9118	1295.858	1310.0112	1333.6202	1398.675	1484.0894	1485.0004	1499.3293	1513.7424	1521.1849	1576.545	1639.5444	2986.1547	3001.6886	3028.7013	3042.091	3059.628	3100.2969	3237.2325	3681.7845	3850.1117
OC1=CC2=C(CCC2)N1	Oc1cc2c(CCC2)[nH]1	
InChI=1S/C7H9NO/c9-7-4-5-2-1-3-6(5)8-7/h4,8-9H,1-3H2	InChI=1S/C7H9NO/c9-7-4-5-2-1-3-6(5)8-7/h4,8-9H,1-3H2
