16
gdb 77026	2.40005	1.17967	0.94784	5.4368	73.74	-0.2589	0.0087	0.2676	1245.588	0.124671	-396.935095	-396.925986	-396.925042	-396.969814	32.258	
N	 0.0905522372	 1.4915632568	 0.0308714232	-0.510547
C	-0.0004728086	 0.0647366993	-0.0206390146	-0.009997
C	-1.3128351643	-0.6368515777	 0.0877712839	-0.033713
C	-2.6169171394	 0.1390012453	 0.2113227715	-0.368989
C	-3.7821636117	-0.7338075857	 0.067014792	 0.26408
N	-4.6909792723	-1.4393571788	-0.0352832678	-0.295785
C	-0.5490014186	-0.7200075654	-1.2424998124	-0.224991
C	-1.0055241842	 0.0596081901	-2.3504262744	 0.284445
N	-1.3662460441	 0.7561978201	-3.2028494404	-0.338216
H	 1.0181482062	 1.7911959266	-0.2522608169	 0.249705
H	-0.5596143196	 1.937946454	-0.608990224	 0.251184
H	 0.8344069499	-0.417633273	 0.4771482578	 0.123211
H	-1.3094157824	-1.5652996834	 0.6493806694	 0.129641
H	-2.6621865477	 0.6274352597	 1.1913509766	 0.170505
H	-2.6868726231	 0.9302049891	-0.5419945441	 0.170236
H	-0.0956435073	-1.6705326869	-1.5001776997	 0.139232
41.1911	115.844	134.0266	144.9937	206.0887	220.5094	348.8429	384.4569	398.9038	502.4205	558.6621	607.9564	644.4535	722.741	791.1764	866.4645	905.5331	923.9217	944.655	981.7609	1024.9883	1104.5393	1119.6822	1138.3248	1222.5001	1263.7523	1279.0039	1316.6694	1355.8323	1401.5284	1460.8956	1473.2606	1673.1721	2340.1564	2367.3797	3051.3603	3091.8666	3162.1055	3168.9438	3179.891	3504.7537	3579.0976
NC1C(CC#N)C1C#N	N[C@H]1[C@@H](CC#N)[C@H]1C#N	
InChI=1S/C6H7N3/c7-2-1-4-5(3-8)6(4)9/h4-6H,1,9H2	InChI=1S/C6H7N3/c7-2-1-4-5(3-8)6(4)9/h4-6H,1,9H2/t4-,5+,6-/m0/s1
