19
gdb 107760	3.59211	1.48406	1.42355	1.4282	72.69	-0.2375	0.0835	0.3211	1003.6006	0.160542	-423.025913	-423.018597	-423.017653	-423.057614	29.684	
C	-0.0967558561	 1.5532653416	 0.0190836106	-0.380387
C	-0.0781235257	 0.021310734	 0.0087750349	-0.287294
C	-1.454463231	-0.5906041306	 0.0293990642	 0.47188
C	-1.6513606794	-2.1284041761	 0.0224005546	-0.260555
C	-3.1695393245	-2.0579317175	 0.0503285594	-0.184057
C	-3.4562344027	-0.7712777316	 0.8182519884	 0.040394
O	-2.2198826832	-0.1891408596	 1.1738437744	-0.289447
C	-3.4834609531	-0.7609550294	-0.6890484294	 0.040395
O	-2.2606141705	-0.1736696204	-1.0810269246	-0.289444
H	 0.9225694585	 1.9494265905	 0.0035714014	 0.106389
H	-0.6312086609	 1.9377243778	-0.8528269875	 0.134154
H	-0.5998270519	 1.9261949184	 0.914363178	 0.134152
H	 0.4370119798	-0.35139756	-0.8831346797	 0.112442
H	 0.4683865862	-0.3628329542	 0.8768422439	 0.112459
H	-1.2520914708	-2.5857136076	-0.8854097938	 0.110116
H	-1.2196563822	-2.5980518841	 0.9088147113	 0.110115
H	-3.8247284302	-2.9171975234	 0.0562810427	 0.097665
H	-4.2754347939	-0.5805162145	 1.4953886561	 0.110511
H	-4.3265242382	-0.5611406132	-1.3334951148	 0.110511
86.5108	178.7889	202.4494	309.9347	382.6033	445.9719	564.1349	604.1938	645.1383	721.0127	745.7587	755.8553	799.1243	800.3016	829.0928	850.7271	958.2448	981.6686	987.1202	1002.6325	1019.6957	1027.756	1030.3122	1037.5046	1078.4866	1086.5295	1132.8677	1133.7901	1180.2301	1195.9451	1274.981	1276.23	1327.877	1332.2743	1365.592	1408.0275	1421.0501	1471.0306	1477.0568	1494.0897	1511.5825	3047.5202	3051.6423	3073.7087	3085.2506	3122.407	3131.5584	3135.9036	3218.9809	3229.3198	3239.4539
CCC12CC3C(O1)C3O2	CC[C@@]12C[C@H]3[C@@H](O1)[C@H]3O2	
InChI=1S/C7H10O2/c1-2-7-3-4-5(8-7)6(4)9-7/h4-6H,2-3H2,1H3	InChI=1S/C7H10O2/c1-2-7-3-4-5(8-7)6(4)9-7/h4-6H,2-3H2,1H3/t4-,5+,6-,7+
