20
gdb 55823	3.69043	0.97595	0.91867	4.0535	78.81	-0.2342	0.0395	0.2737	1336.3179	0.171525	-403.153607	-403.144651	-403.143707	-403.188365	33.672	
N	 0.2464203413	 0.0875088132	 1.0511909358	-0.509416
C	-0.141066597	 0.0538050464	-0.2576970414	 0.378205
O	 0.2412818858	 0.8685980295	-1.0742979438	-0.36485
C	-1.1404071227	-1.0506469349	-0.6146271501	-0.319529
C	-0.9783625278	-2.3600302229	 0.1343006525	-0.022892
C	-1.5229034116	-2.6670104615	 1.5139166694	-0.075555
C	-2.9071233236	-2.0386989352	 1.7357920912	-0.233271
C	-3.4386202226	-2.8015702795	 0.4794997804	-0.22814
C	-2.0446035123	-3.4118865457	 0.2769096292	-0.08972
H	 0.9274078112	 0.7765287346	 1.3245392361	 0.256697
H	 0.0092718521	-0.6525496654	 1.6884703305	 0.26411
H	-2.1407652939	-0.6314096783	-0.4590434639	 0.127767
H	-1.0409817758	-1.2098491382	-1.6919169451	 0.12913
H	 0.0017545239	-2.8112406202	-0.013369198	 0.095375
H	-0.8815699988	-3.0443245461	 2.3034680237	 0.084397
H	-3.3809837155	-2.3864138586	 2.6558663139	 0.107735
H	-2.9556930095	-0.9450136659	 1.7180134947	 0.102009
H	-4.1864522324	-3.5513186633	 0.7450978894	 0.106983
H	-3.834408339	-2.2003812957	-0.3449838538	 0.102572
H	-1.8561898518	-4.4368341924	-0.0203013208	 0.088392
32.9258	61.6792	153.59	212.7419	236.7203	250.1877	377.7255	427.4519	486.2997	562.0938	572.745	685.8745	712.4931	765.3144	787.405	797.755	872.724	894.8045	931.2443	955.0807	975.5912	1005.6031	1019.3162	1025.8293	1080.2215	1098.1087	1124.2488	1137.9567	1181.6525	1224.044	1238.3928	1251.9943	1262.7768	1304.6955	1306.8711	1349.7243	1356.5152	1445.1262	1461.2603	1484.4637	1503.9099	1606.1284	1800.8007	3045.7436	3051.9419	3056.3752	3097.5178	3099.7093	3117.6114	3123.1498	3159.8054	3180.363	3599.3364	3737.1642
NC(=O)CC1C2CCC12	NC(=O)C[C@H]1[C@H]2CC[C@@H]12	
InChI=1S/C7H11NO/c8-7(9)3-6-4-1-2-5(4)6/h4-6H,1-3H2,(H2,8,9)	InChI=1S/C7H11NO/c8-7(9)3-6-4-1-2-5(4)6/h4-6H,1-3H2,(H2,8,9)/t4-,5+,6-
