19
gdb 56505	2.51025	1.24596	1.04801	0.4671	79.37	-0.3248	0.0038	0.3286	1211.9023	0.157192	-382.112681	-382.102429	-382.101485	-382.14744	37.099	
C	-0.037983997	 1.5681603238	 0.1127152164	-0.421173
C	-0.0190550858	 0.0325473132	-0.0177841971	-0.14176
C	-1.3846011753	-0.498919264	 0.0449384292	 0.279201
N	-2.4651036646	-0.9073826453	 0.0872344551	-0.329131
C	 0.706065935	-0.509380835	-1.3065835682	 0.069733
C	 0.765599258	-2.0531777157	-1.2686615836	-0.422765
C	 0.013865108	-0.0343718562	-2.602494764	-0.420235
C	 2.0843383815	 0.0072505639	-1.2786234404	 0.275366
N	 3.1680532786	 0.4086342211	-1.2547634657	-0.341939
H	 0.9814817978	 1.9577680142	 0.0656000231	 0.157594
H	-0.6310939593	 2.0297291431	-0.6796613215	 0.144035
H	-0.4762339023	 1.8554727222	 1.0711228277	 0.145012
H	 0.5227337755	-0.3778498484	 0.8430912835	 0.142889
H	-0.2472336905	-2.4634875399	-1.2899359792	 0.153321
H	 1.313731839	-2.4336151855	-2.1337995947	 0.140588
H	 1.2674623425	-2.4077016459	-0.3641568592	 0.137084
H	 0.0270242293	 1.0534386896	-2.695364953	 0.140184
H	 0.5236151087	-0.4525432173	-3.4736642514	 0.141109
H	-1.0247045192	-0.376393028	-2.6109778772	 0.150887
64.3646	131.883	172.916	190.1036	208.7502	225.2442	246.5821	270.7256	276.2354	349.9544	371.0447	404.8951	511.3324	567.2703	579.7407	600.8794	714.366	824.8854	895.8904	945.211	953.2895	1019.2996	1044.9001	1080.3206	1110.8716	1178.9547	1214.8291	1236.2242	1325.0934	1339.9388	1402.8704	1413.2465	1426.7206	1483.036	1485.6433	1495.9346	1499.4592	1501.9753	1513.6861	2352.314	2355.8193	3040.9248	3049.154	3055.0875	3059.2791	3126.4341	3130.5349	3134.4487	3134.8355	3138.5321	3143.4586
CC(C#N)C(C)(C)C#N	C[C@@H](C#N)C(C)(C)C#N	
InChI=1S/C7H10N2/c1-6(4-8)7(2,3)5-9/h6H,1-3H3	InChI=1S/C7H10N2/c1-6(4-8)7(2,3)5-9/h6H,1-3H3/t6-/m0/s1
