23
gdb 103943	3.0521	1.11503	1.00105	1.4475	86.32	-0.2214	0.0814	0.3028	1342.0528	0.203763	-388.274299	-388.264573	-388.263629	-388.308801	37.559	
C	-0.4658730442	 1.3543528462	-0.2662774897	-0.390311
C	-0.0265597562	-0.1122723414	-0.2149109949	-0.21262
C	 1.0702230964	-0.4711369997	-1.2204819642	 0.436338
C	 2.3787839864	 0.2734780553	-0.9994511165	-0.442057
C	 1.2106642682	-1.9948765301	-1.4910071275	-0.427526
C	 0.6538160984	-1.6548137846	-2.8651211571	 0.470938
C	 1.0220542734	-2.1742084823	-4.2143412605	-0.33691
C	-0.3945161309	-2.3450681351	-3.6748941005	-0.333885
O	 0.589663604	-0.2568649736	-2.59061654	-0.346212
H	 0.3252250851	 2.0330258482	 0.0667757356	 0.114264
H	-0.7420733374	 1.6288734568	-1.2884152189	 0.13634
H	-1.3340583994	 1.5212178117	 0.378212045	 0.109796
H	 0.3241585624	-0.3742555984	 0.7923034404	 0.091526
H	-0.8914013387	-0.7533096349	-0.4220359459	 0.097687
H	 2.7755333141	 0.0697385414	 0.001451463	 0.112348
H	 3.1225831837	-0.0387414286	-1.7375381077	 0.119029
H	 2.2374283933	 1.3532264943	-1.0998209964	 0.126974
H	 2.237396818	-2.3681446648	-1.484719592	 0.104438
H	 0.5852564638	-2.6391906785	-0.8688339994	 0.104646
H	 1.1682513437	-1.4419958371	-5.001351822	 0.122278
H	 1.6639206298	-3.0472485788	-4.2796851053	 0.110895
H	-0.721665664	-3.334993139	-3.3723687371	 0.110415
H	-1.1688507001	-1.7225486468	-4.1105058184	 0.12161
48.0381	96.9539	184.2093	213.5629	231.1122	275.5525	288.0949	332.6428	368.538	371.593	459.9829	496.5402	548.8963	710.0058	757.0234	785.7113	827.8849	874.8716	880.5336	912.0689	914.3286	921.3938	970.9875	994.4423	1001.7385	1042.422	1048.3648	1066.5289	1068.4287	1139.4041	1153.8093	1187.5931	1197.4847	1250.9365	1261.434	1273.363	1328.4706	1367.5283	1388.7889	1406.3903	1410.0363	1448.807	1472.4339	1485.5848	1488.4068	1495.7973	1505.5923	1507.3661	1510.6292	3019.2637	3036.0286	3042.0692	3059.6157	3062.7398	3105.3934	3108.6128	3114.6515	3118.9063	3121.3975	3124.0569	3126.9789	3207.6361	3222.1157
CCC1(C)CC2(CC2)O1	CC[C@@]1(C)CC2(CC2)O1	
InChI=1S/C8H14O/c1-3-7(2)6-8(9-7)4-5-8/h3-6H2,1-2H3	InChI=1S/C8H14O/c1-3-7(2)6-8(9-7)4-5-8/h3-6H2,1-2H3/t7-/m0/s1
