24
gdb 88954	2.8157	0.97746	0.89594	2.4168	86.06	-0.2199	0.0616	0.2815	1462.2221	0.214331	-405.521348	-405.51053	-405.509586	-405.556751	40.959	
C	-0.3593790886	 1.2811195237	-0.1488790649	-0.314882
N	 0.0786890076	-0.0957776284	 0.0099514014	-0.078221
C	 1.4944953704	-0.3662785771	-0.2099117906	-0.270853
C	 0.9107773372	-0.4913917711	 1.1563915524	 0.022594
C	 1.3294461838	 0.4335833101	 2.2842084844	-0.245728
C	 0.5126115075	 0.2454858546	 3.5856430149	 0.342071
C	 1.0560948257	 1.1715130078	 4.682311467	-0.420383
C	-0.9823944306	 0.4884326816	 3.3689991773	-0.392488
O	 0.6053154858	-1.1189882504	 4.0198138269	-0.455078
H	 0.3892775849	 2.041791564	 0.1274298528	 0.096103
H	-0.6169170843	 1.4417606015	-1.2010446898	 0.12286
H	-1.2601365384	 1.4525463516	 0.4488290238	 0.122251
H	 1.735605605	-1.2464989965	-0.8013531024	 0.109723
H	 2.1478946416	 0.4888975293	-0.3887535212	 0.097974
H	 0.6744853454	-1.4932190586	 1.5085586584	 0.102656
H	 2.383919334	 0.2329175524	 2.524275896	 0.087403
H	 1.2892304159	 1.4823510559	 1.9728075509	 0.096847
H	 0.9463145021	 2.2254945088	 4.4070664763	 0.114247
H	 0.5199046282	 1.0001839482	 5.6200112077	 0.121767
H	 2.1223179244	 0.9843578775	 4.858799087	 0.100637
H	-1.3789553898	-0.1861504827	 2.6064599876	 0.138902
H	-1.5267298632	 0.3081050668	 4.3001249782	 0.118747
H	-1.1664830719	 1.5194631753	 3.0535073553	 0.109078
H	 1.5272943173	-1.2970801144	 4.2362558506	 0.273775
63.6289	89.2589	146.753	193.1207	222.0383	246.901	263.9997	307.0531	316.2095	325.4872	354.4328	387.8542	413.9295	452.8592	497.3312	549.4075	740.0795	765.131	795.1817	884.9798	923.8267	929.4738	941.8085	977.0975	1021.3243	1038.6073	1068.6083	1117.56	1120.2928	1137.6634	1142.6578	1174.7099	1200.6843	1211.6878	1231.5874	1256.6903	1318.297	1334.0602	1376.8215	1402.0973	1416.1257	1425.2871	1446.6148	1465.2021	1481.5086	1486.1759	1491.0743	1498.6464	1503.3016	1508.7144	1513.1666	2966.4722	3000.5818	3024.8683	3046.2295	3063.0878	3074.8105	3080.6225	3092.2744	3100.6646	3113.3261	3120.6745	3127.2358	3132.2115	3162.5345	3797.9831
CN1CC1CC(C)(C)O	CN1C[C@H]1CC(C)(C)O	
InChI=1S/C7H15NO/c1-7(2,9)4-6-5-8(6)3/h6,9H,4-5H2,1-3H3	InChI=1S/C7H15NO/c1-7(2,9)4-6-5-8(6)3/h6,9H,4-5H2,1-3H3/t6-,8?/m1/s1
