21
gdb 107025	2.8726	1.27754	1.05928	1.5389	78.6	-0.2376	0.0667	0.3043	1217.8368	0.180597	-424.183306	-424.173598	-424.172654	-424.217602	36.257	
C	 0.0833644128	 1.2913278332	 0.3482971306	-0.256279
O	-0.0184436058	-0.0090800168	-0.2061555677	-0.284226
C	-1.2862022409	-0.5483280612	-0.1354559261	 0.440132
C	-1.8380290073	-1.1236930187	 1.1391062533	-0.345911
C	-1.6160787427	-2.0304721653	-0.0543018012	-0.150777
C	-2.7441752523	-1.8478246683	-1.0593429445	 0.091202
O	-4.0128130227	-2.1882508279	-0.5376380099	-0.424118
C	-2.3863396141	-0.310635803	-1.18414735	-0.098991
C	-3.4859497767	 0.7132736062	-0.9338311415	-0.419888
H	 1.1341727499	 1.5835420154	 0.285348854	 0.125695
H	-0.520645135	 2.0219206712	-0.2078788911	 0.111116
H	-0.2337084089	 1.3050203162	 1.4003209397	 0.11141
H	-1.0949573383	-1.2435104392	 1.9210095426	 0.113228
H	-2.8434922414	-0.9174263521	 1.490640626	 0.12103
H	-0.9463898742	-2.8795313497	-0.0059122598	 0.092527
H	-2.5530580459	-2.3797661839	-2.0000295524	 0.069172
H	-4.6744946463	-1.9995356416	-1.2108000102	 0.282994
H	-1.9149466256	-0.1320246225	-2.1563661909	 0.074969
H	-3.9736604399	 0.5556336779	 0.0314458197	 0.128061
H	-3.0889325136	 1.7336075736	-0.9519414193	 0.11554
H	-4.2605882612	 0.6535171865	-1.7080963612	 0.103115
78.4794	112.3583	169.8193	175.9408	205.2517	229.6299	277.8978	292.299	337.6607	398.1038	447.7676	535.3274	596.7753	674.982	681.2293	792.7023	863.1916	896.3897	937.9845	965.5982	990.1241	1026.4816	1044.7953	1059.8326	1082.5055	1098.4632	1130.0565	1149.1601	1180.6311	1196.7018	1217.7605	1230.5056	1243.6657	1275.8624	1325.7366	1358.027	1388.0517	1409.4779	1422.447	1474.2685	1488.2351	1493.1481	1495.4636	1503.2384	1506.931	2993.0962	3011.9659	3027.9765	3046.5668	3053.5527	3085.9437	3118.4466	3120.7708	3127.7696	3194.3084	3215.2986	3816.241
COC12CC1C(O)C2C	CO[C@]12C[C@H]1[C@@H](O)[C@H]2C	
InChI=1S/C7H12O2/c1-4-6(8)5-3-7(4,5)9-2/h4-6,8H,3H2,1-2H3	InChI=1S/C7H12O2/c1-4-6(8)5-3-7(4,5)9-2/h4-6,8H,3H2,1-2H3/t4-,5+,6+,7+/m1/s1
