23
gdb 92286	2.45595	1.58831	1.27566	0.3184	89.26	-0.2344	0.027	0.2614	1126.4138	0.208253	-351.165488	-351.157167	-351.156223	-351.19841	33.481	
C	 0.381388674	 1.5896076384	-0.2669279511	-0.413091
C	 0.0939413025	 0.1078156636	-0.069105966	 0.0529
C	 0.8018586281	-0.8987252255	-1.0150436948	-0.245406
C	 1.1574264804	-1.7965338378	 0.2036352104	 0.014014
C	 2.6171527349	-2.2519497466	 0.3096043145	-0.273558
C	 3.5502705077	-1.0948911072	 0.5619491716	-0.058026
C	 3.1809124051	-0.0423375783	 1.2917236323	-0.04866
C	 1.8261386187	 0.047470542	 1.9479834242	-0.274341
C	 0.6947100442	-0.6504727578	 1.1686222103	-0.031237
H	 1.4573913785	 1.7935611622	-0.2680312467	 0.119288
H	-0.0195076111	 1.9322085134	-1.2277425097	 0.110119
H	-0.0773200236	 2.202485739	 0.5176247858	 0.109273
H	-0.9902069934	-0.0485378663	-0.0902491247	 0.064189
H	 0.1905461989	-1.3558944879	-1.7979753754	 0.087222
H	 1.6938906114	-0.4672455607	-1.4801103585	 0.09684
H	 0.4948368323	-2.6642902481	 0.2692110783	 0.060637
H	 2.7180719618	-2.9881246882	 1.1217543582	 0.104088
H	 2.9024548808	-2.7821703913	-0.6076997863	 0.098371
H	 4.5511994313	-1.1440160758	 0.1412909604	 0.080763
H	 3.8813519145	 0.7693020765	 1.4729325983	 0.0811
H	 1.896537116	-0.415525063	 2.9436533849	 0.106414
H	 1.5608101983	 1.0938315948	 2.1377039816	 0.100659
H	-0.0740437413	-0.9589865153	 1.8827981922	 0.058442
52.695	131.5797	231.9348	253.7095	306.7347	350.0076	402.3403	440.1118	497.2963	536.6969	647.211	690.4693	754.8397	770.7513	806.3483	881.1663	894.4311	912.352	921.3997	945.1404	983.6186	999.484	1022.5886	1033.9559	1079.1912	1089.4866	1125.1636	1141.0917	1148.0629	1183.9897	1223.023	1238.4709	1246.4883	1272.9053	1277.4772	1300.5714	1324.9988	1341.1146	1352.0546	1369.555	1388.6154	1406.1844	1419.1804	1475.3271	1478.338	1483.2394	1495.3182	1502.2239	1715.5638	2988.4392	2991.3102	3022.1646	3029.975	3039.2426	3045.2816	3047.6227	3050.9796	3061.699	3084.6735	3094.3031	3100.9846	3143.3655	3167.7749
CC1CC2CC=CCC12	C[C@H]1C[C@H]2CC=CC[C@@H]12	
InChI=1S/C9H14/c1-7-6-8-4-2-3-5-9(7)8/h2-3,7-9H,4-6H2,1H3	InChI=1S/C9H14/c1-7-6-8-4-2-3-5-9(7)8/h2-3,7-9H,4-6H2,1H3/t7-,8+,9-/m0/s1
