16
gdb 20713	5.61394	1.52796	1.21923	3.7167	74.79	-0.2222	-0.0407	0.1815	992.4055	0.130589	-342.821975	-342.814246	-342.813302	-342.854455	27.766	
C	-0.0346343537	 1.4980467629	-0.0174114241	-0.476606
C	-0.0038646854	-0.0055878383	 0.0243387305	 0.352457
N	-0.1063694609	-0.6360467486	-1.147219196	-0.251891
N	-0.0882683597	-1.9668921116	-1.2034722471	-0.251891
C	 0.0326563082	-2.6909305645	-0.0891654327	 0.352458
C	 0.0425332434	-4.1859627486	-0.2576511688	-0.476606
C	 0.1443775561	-2.0855107794	 1.1718437715	-0.145375
C	 0.1257115272	-0.7119825084	 1.2298989035	-0.145375
H	 0.8835177364	 1.9245875323	 0.4016424429	 0.132122
H	-0.1390310542	 1.8319769883	-1.0506334294	 0.148814
H	-0.8718414067	 1.8932148757	 0.5686824527	 0.132193
H	 0.9723177449	-4.6213381322	 0.1250913632	 0.132118
H	-0.7830763484	-4.6516724234	 0.2919546608	 0.132197
H	-0.0538459914	-4.4342378752	-1.3154915209	 0.148814
H	 0.2420504883	-2.6915862228	 2.0670215805	 0.108285
H	 0.207954786	-0.1811659963	 2.1731276936	 0.108285
77.9207	78.8334	131.7146	288.5111	304.4188	395.298	412.1897	495.9678	505.6311	654.8577	750.3109	781.4086	850.0396	851.1684	979.8601	1000.1448	1013.8775	1062.3548	1067.0343	1072.2081	1128.9688	1191.9716	1259.6492	1266.3548	1368.5018	1405.0023	1407.9714	1452.9223	1484.0915	1486.0975	1486.6757	1491.6474	1588.3007	1630.5741	3035.4743	3035.4998	3088.9261	3089.1332	3145.9214	3146.0158	3170.5192	3188.1954
CC1=NN=C(C)C=C1	Cc1nnc(C)cc1	
InChI=1S/C6H8N2/c1-5-3-4-6(2)8-7-5/h3-4H,1-2H3	InChI=1S/C6H8N2/c1-5-3-4-6(2)8-7-5/h3-4H,1-2H3
