17
gdb 31982	3.03656	1.10947	0.85873	2.0608	73.37	-0.1967	0.0224	0.2192	1329.9078	0.134981	-458.973984	-458.964809	-458.963865	-459.009556	32.142	
C	 0.2128776475	 1.4333301745	 0.18329992	-0.245772
O	 0.2205862061	 0.0174152684	 0.0126596777	-0.267459
C	 0.6879655586	-0.7194076596	 1.0239787128	 0.438728
C	 0.6552081474	-2.0662625167	 1.2157496693	-0.306609
C	 1.3415840681	-2.2840248456	 2.4563476747	-0.254618
C	 1.7281631714	-1.0737015318	 2.9328975636	 0.32032
C	 2.4735805875	-0.5991139205	 4.1251222745	-0.176816
O	 3.806600398	-0.1694780006	 3.8485579044	-0.412476
O	 1.3233232597	-0.0895554254	 2.0396411883	-0.234173
H	 1.2294238249	 1.82573172	 0.2868816106	 0.133114
H	-0.2475596879	 1.8363631293	-0.7190100853	 0.140565
H	-0.3731988103	 1.723273047	 1.0617827999	 0.133754
H	 0.2020159045	-2.7925737025	 0.5627811999	 0.112754
H	 1.5210028996	-3.233651205	 2.9370199516	 0.113969
H	 1.9090768173	 0.2030393211	 4.6266950487	 0.097174
H	 2.5636995463	-1.4294596042	 4.8305751562	 0.12424
H	 3.7495623211	 0.5114279218	 3.1704043231	 0.283305
26.0828	63.7461	123.3776	164.7091	190.6282	270.6302	296.7544	346.6111	421.9395	513.4202	607.6707	664.3407	679.1035	754.0899	764.159	840.5607	935.3064	975.2514	991.5271	1026.8699	1032.7098	1071.5908	1176.3853	1180.4861	1200.8071	1236.7103	1250.8758	1308.3822	1366.9297	1396.4011	1418.8228	1478.1796	1485.8743	1486.1835	1502.0236	1621.8197	1670.2468	2977.1054	3032.2957	3098.7236	3099.5846	3150.8412	3252.1982	3279.1497	3818.7975
COC1=CC=C(CO)O1	COc1ccc(CO)o1	
InChI=1S/C6H8O3/c1-8-6-3-2-5(4-7)9-6/h2-3,7H,4H2,1H3	InChI=1S/C6H8O3/c1-8-6-3-2-5(4-7)9-6/h2-3,7H,4H2,1H3
