16
gdb 48291	2.83857	0.90308	0.73875	1.7027	78.63	-0.2365	-0.04	0.1965	1495.8014	0.11985	-400.661579	-400.651567	-400.650622	-400.697452	35.073	
O	-0.0841839905	 0.0357170303	-0.0679115501	-0.236724
C	-0.0041543664	 1.2330757458	-0.0223103231	 0.155153
C	 1.3476552224	 1.9888262454	-0.0264602444	-0.234722
N	 2.5233425942	 1.1378141983	 0.0301891203	-0.283829
C	 2.7203917894	 0.4987061757	 1.3401939074	-0.289438
C	 3.8859217505	-0.3769645531	 1.3211404205	 0.278617
C	 4.8313453377	-1.1173817516	 1.3000458756	-0.418659
C	 1.3403174012	 2.8418183084	-1.2164754287	 0.280361
C	 1.266387686	 3.5030006219	-2.2170466537	-0.389956
H	-0.9018583693	 1.8883703097	 0.0018382304	 0.099669
H	 1.3466802463	 2.6364626968	 0.864713636	 0.127189
H	 2.4495362066	 0.4187747277	-0.683135987	 0.237883
H	 2.8772847467	 1.2959848701	 2.079882527	 0.133175
H	 1.8461825115	-0.0810672824	 1.6761536329	 0.135949
H	 5.6716145324	-1.7664337989	 1.2846760185	 0.199245
H	 1.2318546114	 4.1020613861	-3.0936922715	 0.206088
47.2847	89.516	95.5549	111.3615	183.5152	216.9401	257.3792	337.3879	340.6748	446.8913	474.0846	565.404	611.4472	626.8996	664.9973	670.381	676.095	779.5156	820.5568	949.9278	981.3145	1004.2456	1044.4759	1104.3347	1163.4517	1243.2252	1256.9099	1311.3023	1386.4637	1407.741	1493.9556	1497.9578	1835.249	2235.321	2246.2768	2899.364	2979.8881	2991.301	3023.8516	3502.0378	3506.8551	3526.618
O=CC(NCC#C)C#C	O=C[C@@H](NCC#C)C#C	
InChI=1S/C7H7NO/c1-3-5-8-7(4-2)6-9/h1-2,6-8H,5H2	InChI=1S/C7H7NO/c1-3-5-8-7(4-2)6-9/h1-2,6-8H,5H2/t7-/m0/s1
