17
gdb 34741	3.00375	1.65416	1.46617	1.8359	76.42	-0.2357	0.0444	0.2802	946.8165	0.137086	-384.623272	-384.616214	-384.615269	-384.654588	28.577	
C	-0.1712468123	-1.2722301156	-0.2080222223	-0.444278
C	-0.0838240423	-0.0793341393	-0.0791793723	 0.326568
C	 0.0096796794	 1.360558907	 0.0713865304	-0.2273
C	-0.2270859561	 2.029258653	 1.4360207515	-0.083679
C	 1.0152196001	 1.9494472358	 2.3069864493	-0.070513
C	 2.1002317424	 0.9404423272	 1.9507782978	-0.108659
O	 2.4451203668	 1.2268639698	 0.58640345	-0.251957
C	 1.4340714134	 2.0609263513	 0.0695503622	 0.081022
C	 0.9438020834	 2.9755563208	 1.2173384815	-0.111473
H	-0.2398790537	-2.325605351	-0.3223820675	 0.192966
H	-0.6174593642	 1.8552093904	-0.679042094	 0.102676
H	-1.2002256851	 2.2415388357	 1.8624297833	 0.093265
H	 0.898928868	 2.2597538081	 3.3385741007	 0.09538
H	 2.9942786177	 1.0732165493	 2.5711932181	 0.104004
H	 1.7602853056	-0.0975902991	 2.0374133942	 0.116751
H	 1.7713202652	 2.4819695891	-0.8758936916	 0.090699
H	 1.0340259716	 4.0473815675	 1.3214281486	 0.094529
127.8973	139.3181	246.9963	356.3406	381.961	536.9044	571.9009	621.787	629.7631	671.284	714.8288	771.5019	803.9844	811.8475	829.4444	896.0991	928.1387	968.4831	980.1948	1008.0583	1042.9612	1046.8695	1060.505	1079.7389	1091.4688	1127.8421	1167.5969	1217.7667	1224.7512	1256.8462	1298.401	1328.7752	1336.143	1371.4987	1410.5335	1517.9411	2229.1794	3028.9603	3041.1128	3068.163	3137.046	3180.1948	3191.6054	3217.7651	3503.5827
C#CC1C2C3COC1C23	C#C[C@H]1[C@H]2[C@H]3CO[C@@H]1[C@@H]23	
InChI=1S/C8H8O/c1-2-4-6-5-3-9-8(4)7(5)6/h1,4-8H,3H2	InChI=1S/C8H8O/c1-2-4-6-5-3-9-8(4)7(5)6/h1,4-8H,3H2/t4-,5+,6-,7+,8-/m0/s1
