21
gdb 75394	2.1923	1.5573	0.99224	0.1697	95.84	-0.2078	-0.0204	0.1874	1268.3414	0.182859	-349.988633	-349.979654	-349.97871	-350.021808	34.741	
C	 0.1400488102	 1.4984398502	 0.0434678388	-0.48257
C	 0.0254386	-0.0078549598	-0.0424073526	 0.324942
C	-0.115484788	-0.6257762204	-1.2316170394	-0.17063
C	-0.1101973912	-2.127206419	-1.3685214388	-0.315847
C	-1.3257852336	-2.6744171595	-0.665727118	-0.077785
C	-1.4793070258	-2.5738479858	 0.6650192586	-0.107446
C	-0.5965457228	-1.8542092507	 1.5698246282	 0.266413
C	-0.5482136506	-2.3598087351	 2.9932742925	-0.479706
C	 0.0700945831	-0.7185564131	 1.225902579	-0.231878
H	 1.0682172232	 1.7902320595	 0.5508991472	 0.122384
H	 0.1413286222	 1.9576781786	-0.948227521	 0.118458
H	-0.6841362953	 1.933816986	 0.6209279465	 0.125647
H	-0.2316547061	-0.0288137583	-2.132806949	 0.081007
H	-0.0997448639	-2.421936396	-2.4205295644	 0.096902
H	 0.7962756223	-2.5368327334	-0.9000575317	 0.112632
H	-2.0946226893	-3.1628845958	-1.2588262271	 0.090536
H	-2.334482865	-3.0636488053	 1.1283199627	 0.081893
H	-0.1446693514	-3.3785840001	 3.0395710035	 0.128125
H	 0.0700674687	-1.7209958232	 3.6289020853	 0.119325
H	-1.5540844355	-2.4026981932	 3.4296463721	 0.124879
H	 0.6008399688	-0.2047123955	 2.0274491874	 0.072717
130.9977	143.5658	168.1272	184.5076	259.1099	280.68	316.6697	376.1289	406.5379	426.5914	528.0079	598.9257	633.5911	647.8414	781.0965	832.2284	859.3697	887.9459	913.2008	949.8378	978.4948	1009.3042	1024.3544	1058.6432	1067.5199	1070.2632	1085.0593	1169.0409	1188.9994	1233.9545	1262.9188	1327.5742	1345.843	1394.8489	1409.3078	1411.8816	1442.8179	1472.8849	1479.2626	1480.1414	1492.6	1496.3278	1598.2559	1681.6384	1689.5822	2995.888	3020.1192	3020.712	3068.6556	3069.7606	3092.2211	3112.4432	3114.1682	3121.4938	3132.6593	3155.0687	3166.1533
CC1=CCC=CC(C)=C1	CC1=CCC=CC(=C1)C	
InChI=1S/C9H12/c1-8-5-3-4-6-9(2)7-8/h3,5-7H,4H2,1-2H3	InChI=1S/C9H12/c1-8-5-3-4-6-9(2)7-8/h3,5-7H,4H2,1-2H3
