14
gdb 31214	2.19045	1.768	0.99027	5.9227	70.16	-0.2545	-0.0342	0.2203	1108.5237	0.102561	-432.900509	-432.89244	-432.891496	-432.934316	28.421	
N	-0.7384247022	 0.9617715254	 0.094689981	-0.499726
C	 0.4763038908	 0.196319364	-0.1362737034	-0.283494
C	 0.9350164882	-0.4502028704	 1.128161195	 0.296187
C	 0.4197486298	-0.6381884406	 2.380143964	 0.07117
N	 1.3472452737	-1.3411862698	 3.1586860572	-0.293046
C	 2.3382750631	-1.5339239129	 2.3629552485	 0.067513
O	 2.1704890235	-1.02158595	 1.1152373478	-0.176011
C	-0.8276357263	-0.2253872602	 2.918186894	 0.252177
N	-1.8261231065	 0.1020805881	 3.4023809021	-0.351528
H	-0.5436627571	 1.8172406075	 0.6032307639	 0.245393
H	-1.1687445293	 1.2199997275	-0.7849051651	 0.244007
H	 0.251874241	-0.5915995714	-0.8678556566	 0.14383
H	 1.327324008	 0.7621060264	-0.5546886242	 0.118345
H	 3.2698457133	-2.0410484436	 2.5576324458	 0.165184
29.5868	139.4442	178.7307	206.5372	222.3086	280.7253	418.7255	520.0694	548.6678	608.3917	645.4562	703.807	737.5515	814.1148	845.1297	953.4978	979.2263	1079.6345	1113.1131	1120.1418	1179.5866	1189.9369	1297.2648	1311.4148	1349.939	1438.0173	1490.517	1573.0539	1627.0414	1667.4073	2358.8364	2947.0998	3031.6598	3283.3034	3522.1207	3606.9668
NCC1=C(N=CO1)C#N	NCc1c(nco1)C#N	
InChI=1S/C5H5N3O/c6-1-4-5(2-7)9-3-8-4/h3H,2,7H2	InChI=1S/C5H5N3O/c6-1-4-5(2-7)9-3-8-4/h3H,2,7H2
