21
gdb 115367	3.57822	0.98412	0.88051	2.0164	81.39	-0.2496	0.0064	0.256	1392.6901	0.182806	-424.226684	-424.217457	-424.216513	-424.260833	34.768	
C	-0.0001058437	 1.3951202594	 0.0728784314	-0.241187
O	-0.0010025217	-0.0047708625	-0.0792580324	-0.246653
C	-1.290072794	-0.6057243635	-0.0098699295	 0.102941
C	-1.22286473	-1.9376803834	-0.754905018	-0.23853
C	-2.4916815568	-2.7577824524	-0.5013041454	-0.235778
C	-2.6642071851	-3.0867469756	 0.9900660013	 0.103695
O	-1.8733801196	-4.2116241456	 1.3929323693	-0.438271
C	-2.3518095249	-1.897847438	 1.8644045886	-0.105852
C	-1.7292536692	-0.8042883797	 1.4235686613	-0.06681
H	 1.0334325726	 1.7310000989	-0.0432452881	 0.128531
H	-0.6215267551	 1.8866723334	-0.6924543125	 0.104661
H	-0.3590871501	 1.7180730769	 1.0616950019	 0.105375
H	-2.015818909	 0.0548253627	-0.5195745876	 0.071112
H	-1.0700609615	-1.7561667036	-1.8225526708	 0.10029
H	-0.3383299003	-2.4794943918	-0.3975100224	 0.101002
H	-3.3680087279	-2.191282542	-0.8432550819	 0.095295
H	-2.472235034	-3.6958204089	-1.0633797752	 0.106667
H	-3.6956723212	-3.4141131141	 1.1656733737	 0.085913
H	-0.963595975	-3.906393572	 1.4768268749	 0.279592
H	-2.6140499176	-1.9947267002	 2.9152659874	 0.094863
H	-1.5065444561	 0.0071376222	 2.112424834	 0.093144
65.4973	93.2441	175.3474	190.9607	240.7588	286.9214	313.4226	359.259	401.202	427.3832	478.9739	565.5886	599.9609	723.9134	752.7594	830.2299	860.4189	936.2262	959.3977	991.5551	1006.402	1032.3658	1063.9567	1087.5086	1117.6428	1144.6446	1158.0292	1181.9891	1204.7673	1237.9308	1247.1172	1270.1335	1334.1304	1344.2254	1359.2951	1376.0978	1387.1299	1411.9297	1429.9051	1477.5761	1477.9073	1491.6268	1497.1842	1509.5982	1711.4725	2925.2947	2973.5695	3019.6251	3020.8032	3036.5876	3042.1009	3088.153	3089.7534	3111.3015	3145.7288	3168.5017	3807.4389
COC1CCC(O)C=C1	CO[C@H]1CC[C@@H](O)C=C1	
InChI=1S/C7H12O2/c1-9-7-4-2-6(8)3-5-7/h2,4,6-8H,3,5H2,1H3	InChI=1S/C7H12O2/c1-9-7-4-2-6(8)3-5-7/h2,4,6-8H,3,5H2,1H3/t6-,7+/m0/s1
