16
gdb 56568	2.90472	1.16272	0.85736	3.7568	66.18	-0.2518	-0.0045	0.2473	1261.1533	0.123864	-471.234859	-471.225281	-471.224337	-471.26952	34.752	
N	 0.3557132672	 1.4704090782	-0.1519759472	-0.515649
C	 0.0994532151	 0.0566699674	 0.0249530529	-0.117082
C	 0.5581037079	-0.6995605535	-1.25749767	-0.022159
O	 0.2560043467	-2.093475572	-1.2493334343	-0.416406
C	-0.04002565	-0.0662791868	-2.4451136875	 0.273292
N	-0.5780274662	 0.3790970509	-3.3657154511	-0.315671
C	 0.8424295116	-0.419110454	 1.3010833616	 0.405614
N	 0.9851517901	-1.7576248578	 1.4431993816	-0.521813
O	 1.2225304188	 0.3898226661	 2.1277860804	-0.365754
H	-0.4716011891	 1.9701203477	-0.4502370257	 0.244303
H	 0.6743390713	 1.843580066	 0.7387784743	 0.256621
H	-0.9657794077	-0.1911922221	 0.1766260795	 0.094024
H	 1.6465995943	-0.6214852998	-1.3325008372	 0.157914
H	-0.6904216878	-2.2003916667	-1.4033730264	 0.303729
H	 0.7652666488	-2.3800917527	 0.6797248154	 0.274276
H	 1.5000215889	-2.090577591	 2.2422367437	 0.264763
61.9779	73.0707	138.2186	246.7135	260.2485	285.1171	291.4294	341.3683	350.7501	390.0126	451.1854	488.1503	525.5141	611.3158	616.5572	658.6739	741.9124	840.7221	849.1721	934.6868	1052.9693	1066.326	1126.9991	1140.8548	1207.7294	1232.1698	1281.2139	1336.6399	1358.5613	1395.1713	1414.6349	1614.7675	1634.4745	1798.0183	2357.1186	2946.5201	3087.3495	3495.2909	3556.5447	3608.0965	3704.7355	3797.1815
NC(C(O)C#N)C(N)=O	N[C@@H]([C@@H](O)C#N)C(=O)N	
InChI=1S/C4H7N3O2/c5-1-2(8)3(6)4(7)9/h2-3,8H,6H2,(H2,7,9)	InChI=1S/C4H7N3O2/c5-1-2(8)3(6)4(7)9/h2-3,8H,6H2,(H2,7,9)/t2-,3-/m0/s1
