21
gdb 114802	2.54812	1.29088	1.14175	2.6506	77.94	-0.2436	0.0595	0.3031	1199.128	0.182163	-424.193447	-424.184436	-424.183492	-424.227317	34.333	
C	 0.0587227959	 1.6761142871	 0.0433101559	-0.500667
C	-0.0179800433	 0.166348396	 0.0091000883	 0.269043
C	-1.377173328	-0.507553579	 0.3752641498	-0.295289
C	-0.6467951399	-1.4653700679	 1.3679250872	-0.230687
C	 0.6991100158	-0.8015564946	 1.0022015059	 0.089024
O	 1.3882534968	-1.4747370538	-0.0727541487	-0.332229
C	 0.8255477323	-0.5696075787	-1.0647659605	 0.083566
C	 0.2109980766	-1.354212377	-2.2097747023	-0.080701
O	 1.198001892	-2.1662407703	-2.8220810671	-0.422337
H	 1.0936810715	 2.0264777626	-0.0327428912	 0.122021
H	-0.5043077104	 2.1165232641	-0.7888560387	 0.122228
H	-0.3651148518	 2.0740961833	 0.9716616603	 0.11727
H	-2.0503944615	 0.1912370131	 0.8786129236	 0.103332
H	-1.9330376669	-0.9747862183	-0.4400312559	 0.104836
H	-0.9435927766	-1.3282549784	 2.4110281444	 0.102501
H	-0.6792736055	-2.5303042808	 1.1283944968	 0.110031
H	 1.3807477048	-0.4978545387	 1.8020343797	 0.074094
H	 1.6220856705	 0.0711311183	-1.4702333811	 0.078424
H	-0.6315057892	-1.9630678193	-1.8507217537	 0.085735
H	-0.1679005632	-0.6725217783	-2.9798603746	 0.106076
H	 1.6020011898	-2.6741443993	-2.107828618	 0.293731
64.5786	98.3866	181.4478	206.1364	215.4542	301.9203	317.8125	393.1974	439.6578	469.5737	496.0514	629.3191	670.7571	737.2911	826.8346	860.1359	872.0299	893.2434	949.4845	963.3681	994.4767	1028.6194	1050.4875	1076.2834	1105.0199	1121.9865	1164.2777	1180.3941	1213.9185	1219.6625	1223.0357	1253.8891	1261.8744	1276.6373	1311.2918	1353.2009	1357.7267	1404.9991	1414.2531	1436.5888	1465.8275	1490.0157	1492.8712	1496.5447	1497.6735	2991.947	3003.6457	3021.4025	3058.2318	3063.5608	3068.7514	3072.0363	3084.1162	3096.2057	3108.1691	3126.5354	3787.5867
CC12CCC1OC2CO	C[C@]12CC[C@H]1O[C@H]2CO	
InChI=1S/C7H12O2/c1-7-3-2-5(7)9-6(7)4-8/h5-6,8H,2-4H2,1H3	InChI=1S/C7H12O2/c1-7-3-2-5(7)9-6(7)4-8/h5-6,8H,2-4H2,1H3/t5-,6+,7+/m1/s1
