14
gdb 24804	3.59472	1.21586	0.90855	6.3247	82.61	-0.2204	-0.0475	0.1729	1188.8307	0.102115	-399.574324	-399.566789	-399.565845	-399.606333	28.936	
O	-0.040105431	-0.1009570943	 0.0039776808	-0.399031
C	-0.0434568713	 1.1255880735	 0.0099648046	 0.397044
C	-1.266195606	 1.9335604843	 0.0310391965	-0.247863
C	-1.2230756216	 3.2855805079	 0.0367025525	 0.025173
N	-0.0353068276	 3.9633489948	 0.0229082294	-0.394932
C	 1.1690140678	 3.2873363073	 0.0025562294	 0.271749
C	 1.1857092904	 1.925172973	-0.0040036737	-0.349077
C	 2.3392056814	 4.0966152415	-0.0104478796	 0.235519
C	 3.3134292334	 4.8028930769	-0.0212091499	-0.395115
H	-2.2177774906	 1.4170154886	 0.0421647695	 0.116523
H	-2.1091740044	 3.9092900903	 0.0522129318	 0.135131
H	-0.0218141342	 4.9694590605	 0.0274080894	 0.27177
H	 2.1333301097	 1.4025184109	-0.0200208271	 0.121893
H	 4.185799844	 5.4092045848	-0.0311068936	 0.211218
129.4832	143.3579	163.0631	363.9206	417.005	420.1161	465.822	511.408	522.8758	561.2296	603.8757	666.2024	679.4122	727.5877	736.0741	841.4642	903.9732	904.0756	963.9066	1004.8952	1090.649	1179.1155	1233.232	1241.5788	1356.5489	1423.3305	1518.4715	1623.0697	1657.8249	1730.9458	2234.5581	3199.0787	3221.3516	3223.3252	3498.6213	3661.8489
O=C1C=CNC(=C1)C#C	O=c1cc[nH]c(c1)C#C	
InChI=1S/C7H5NO/c1-2-6-5-7(9)3-4-8-6/h1,3-5H,(H,8,9)	InChI=1S/C7H5NO/c1-2-6-5-7(9)3-4-8-6/h1,3-5H,(H,8,9)
