17
gdb 47051	3.09259	1.51607	1.2355	3.1715	67.51	-0.2641	0.0094	0.2734	1015.782	0.137759	-458.988316	-458.981054	-458.98011	-459.020435	27.81	
O	 0.0739885881	 0.0059904456	 0.3083803088	-0.31675
C	 0.0219380952	 1.1616536367	-0.0051830067	 0.40516
C	-1.2251040975	 2.0205968772	 0.0819627014	-0.348907
C	-1.3347087877	 3.0089361477	-1.0853307742	-0.237006
C	-0.1018590869	 3.8883150545	-1.1145981486	 0.102334
O	 0.0251392592	 4.7130885885	 0.07064427	-0.294227
C	 1.2829082633	 4.10249083	 0.432068871	-0.102466
C	 1.2152904469	 3.1492549037	-0.7769483822	 0.069037
O	 1.1489723134	 1.7555602857	-0.5024351804	-0.236566
H	-2.0766318518	 1.341831845	 0.1427170426	 0.137427
H	-1.1897250286	 2.5857577622	 1.0210636698	 0.149972
H	-1.4167664898	 2.4737477297	-2.0390669135	 0.118038
H	-2.2288507956	 3.6318209474	-0.9816886279	 0.123941
H	-0.0560317757	 4.4987091078	-2.0239162091	 0.084891
H	 2.1101077808	 4.8214917483	 0.4169188085	 0.115024
H	 1.2466668944	 3.6085366538	 1.4100767062	 0.118577
H	 2.0225825821	 3.2547072461	-1.5011769258	 0.111522
85.4351	114.1073	206.5731	330.2085	391.8772	439.2146	470.5842	536.9617	608.6018	708.5442	732.9001	805.9354	849.0376	883.9652	926.2764	952.9488	972.0304	1017.6838	1067.6751	1075.6325	1079.54	1150.3785	1156.5486	1175.3103	1189.3082	1253.3361	1259.0627	1292.3309	1329.4424	1361.5379	1368.5937	1381.1572	1409.8414	1471.0354	1476.7648	1515.0878	1856.4687	3023.8585	3032.7469	3046.5449	3053.9596	3073.2763	3089.1707	3117.9181	3129.9058
O=C1CCC2OCC2O1	O=C1CC[C@H]2OC[C@H]2O1	
InChI=1S/C6H8O3/c7-6-2-1-4-5(9-6)3-8-4/h4-5H,1-3H2	InChI=1S/C6H8O3/c7-6-2-1-4-5(9-6)3-8-4/h4-5H,1-3H2/t4-,5-/m1/s1
