16
gdb 130201	3.11079	1.28971	0.96932	0.2134	71.85	-0.2052	0.0251	0.2303	1174.335	0.126257	-434.058051	-434.04998	-434.049036	-434.091207	29.973	
N	-0.2044828752	 1.419858976	-0.0945410218	-0.592793
C	-0.0393252068	 0.0336762365	-0.0461024734	 0.27397
N	-1.0901832407	-0.7795041304	-0.0784172058	-0.304365
N	-0.5555488991	-2.0173920901	 0.0741089686	-0.196283
C	 0.7888474757	-2.004080005	 0.1829954302	-0.112833
C	 1.1804249799	-0.6807189789	 0.1186892698	 0.173803
C	 2.5533328287	-0.1512617692	 0.2123513216	-0.063925
C	 3.4203588892	-0.374912025	 1.3853682253	-0.169496
O	 3.6117289248	-1.1152950048	 0.179060304	-0.236115
H	 0.4826142053	 1.8853133274	-0.6737242672	 0.244185
H	-1.1382849131	 1.6628132123	-0.4020186889	 0.251027
H	-1.1677843216	-2.8134945131	 0.0646361243	 0.273542
H	 1.3750946047	-2.9030353792	 0.284304747	 0.146363
H	 2.758300814	 0.7446766472	-0.3776423973	 0.084185
H	 4.2081570112	 0.3385560966	 1.6255318202	 0.114418
H	 3.025469453	-0.9432465903	 2.2256730134	 0.114318
53.9708	149.3324	156.5305	243.4923	297.9973	309.9358	410.3218	463.7185	511.5222	626.0833	653.4613	700.9443	755.3187	793.0566	814.2088	855.5214	907.0802	946.1562	1008.86	1063.9868	1093.4169	1103.4387	1145.0831	1168.3973	1189.1174	1237.5981	1277.806	1333.651	1427.3051	1435.3501	1495.2573	1517.5282	1544.6443	1623.4895	1650.8569	3076.8901	3081.9713	3173.7084	3270.8874	3532.3959	3626.5377	3693.6667
NC1=NNC=C1C1CO1	Nc1n[nH]cc1[C@H]1CO1	
InChI=1S/C5H7N3O/c6-5-3(1-7-8-5)4-2-9-4/h1,4H,2H2,(H3,6,7,8)	InChI=1S/C5H7N3O/c6-5-3(1-7-8-5)4-2-9-4/h1,4H,2H2,(H3,6,7,8)/t4-/m1/s1
