14
gdb 129458	2.73778	1.58976	1.00752	0.8981	66.04	-0.2166	-0.0412	0.1754	1081.6472	0.102187	-470.03135	-470.023327	-470.022383	-470.063964	30.03	
N	-0.0543450193	 1.2777774774	-0.0442588757	-0.534514
C	 0.0426352586	-0.0720350429	-0.020801442	 0.365433
O	 1.1050696695	-0.68105813	 0.0060004025	-0.3851
C	-1.2529017248	-0.7992645024	-0.0217259742	 0.256362
N	-2.4090530993	-0.1718242598	 0.0408839157	-0.217017
O	-3.3673441365	-1.1439605715	 0.0623417025	-0.166701
C	-2.7723211099	-2.3628910926	 0.0041105747	-0.001916
C	-1.4149826301	-2.2210033941	-0.052015879	 0.078397
N	-0.4000008195	-3.1496378236	-0.1871833669	-0.616091
H	 0.7890031953	 1.8252673589	-0.0157590593	 0.267069
H	-0.9551485003	 1.7269921881	-0.0413536682	 0.283226
H	-3.4369498746	-3.2106290236	 0.0119743833	 0.146417
H	-0.5577134639	-4.036801325	 0.2663850662	 0.248408
H	 0.5066570949	-2.7441204189	 0.0136724004	 0.276027
74.8884	185.9038	201.5103	256.6491	318.9802	329.9566	369.2898	430.2069	518.4044	574.607	604.3674	661.0882	676.2102	686.822	732.9461	760.4733	817.7182	939.0764	1005.673	1095.679	1120.4635	1133.765	1199.0443	1310.2332	1394.347	1462.563	1513.668	1608.9145	1624.63	1670.4547	1771.5468	3281.3682	3531.0115	3599.1893	3653.4177	3739.7009
NC(=O)C1=NOC=C1N	NC(=O)c1nocc1N	
InChI=1S/C4H5N3O2/c5-2-1-9-7-3(2)4(6)8/h1H,5H2,(H2,6,8)	InChI=1S/C4H5N3O2/c5-2-1-9-7-3(2)4(6)8/h1H,5H2,(H2,6,8)
