20
gdb 106106	3.98092	1.15335	1.09399	1.716	78.45	-0.2382	0.0738	0.312	1193.9371	0.171507	-403.07956	-403.071122	-403.070177	-403.112705	32.456	
C	 0.1864588995	 1.6870419677	-0.140892529	-0.430106
C	 0.0745849909	 0.1710874334	-0.0455286809	 0.030034
C	 0.7548063331	-0.7494373145	-1.0626893081	-0.119907
N	 2.1636386447	-1.0752183229	-0.6190607034	-0.205038
C	 2.3301784238	-0.3618210569	 0.6927728199	-0.1556
C	 0.8611674639	-0.6447931929	 1.0290582762	-0.148416
C	 0.9836386974	-1.8012276966	-0.0457945397	 0.348134
C	 0.8818533024	-3.2872067416	-0.0312624061	-0.221868
O	 1.8717223225	-3.8844882087	 0.7945075542	-0.414382
H	 1.2207351217	 2.0240560885	-0.248176974	 0.123418
H	-0.3688955302	 2.0573755935	-1.0095840138	 0.118758
H	-0.2357491401	 2.1667858507	 0.7492245294	 0.116918
H	-0.9806570428	-0.1199638504	 0.0109029815	 0.079051
H	 0.5643430879	-0.8538613038	-2.1238327355	 0.094676
H	 3.0228255098	-0.9419572522	 1.3072457028	 0.107779
H	 2.6766667799	 0.6750978827	 0.6294363809	 0.095652
H	 0.4935217814	-0.7194293412	 2.0507816291	 0.07545
H	-0.0843122895	-3.6067639003	 0.3738538787	 0.114908
H	 0.945325892	-3.6535553737	-1.0680016596	 0.099312
H	 2.7239914918	-3.6109336311	 0.4365322273	 0.291228
67.7393	122.5847	173.5274	207.6054	281.3816	309.1259	362.2966	429.4701	483.4236	603.7715	656.1613	666.3572	752.7714	780.5004	835.7087	905.7938	921.964	949.7426	961.4416	1007.0218	1009.2334	1035.0879	1072.9491	1073.9212	1088.1559	1111.1992	1138.6836	1157.7431	1186.6547	1207.0735	1233.2678	1247.4779	1292.7557	1312.4521	1366.7003	1387.3775	1407.0199	1413.4528	1451.4507	1486.411	1491.952	1495.7662	1518.5068	2984.3688	3032.6108	3041.8033	3046.4135	3071.7136	3093.2548	3103.7568	3117.1266	3134.4336	3193.4433	3800.4012
CC1C2N3CC1C23CO	C[C@H]1[C@H]2N3C[C@@H]1[C@@]23CO	
InChI=1S/C7H11NO/c1-4-5-2-8-6(4)7(5,8)3-9/h4-6,9H,2-3H2,1H3	InChI=1S/C7H11NO/c1-4-5-2-8-6(4)7(5,8)3-9/h4-6,9H,2-3H2,1H3/t4-,5+,6-,7+,8?/m1/s1
