21
gdb 80629	2.62794	1.55796	1.23267	0.7227	87.57	-0.2532	0.0563	0.3094	1102.3368	0.183625	-349.916568	-349.908337	-349.907393	-349.948894	33.364	
C	-0.1615511017	 1.5423112502	-0.1068346866	-0.410225
C	 0.0610458993	 0.0336619759	-0.0539494783	 0.016888
C	 0.9696301192	-0.5418200143	-1.1639019931	-0.009827
C	 1.1933505237	-2.0001071759	-0.6733506834	-0.244094
C	 1.9878115004	-1.284780709	 0.4539909347	-0.009606
C	 2.4057290856	-0.2566983778	-0.6324998665	-0.23007
C	 0.8570400447	-0.5273521869	 1.2060830193	-0.192456
C	 1.3462239831	 0.4685160158	 2.1457597934	 0.334717
C	 1.7638616119	 1.2794933857	 2.9303236635	-0.473141
H	 0.7799128876	 2.0981278473	-0.1126886104	 0.124761
H	-0.7185512833	 1.8091644046	-1.0115813116	 0.106252
H	-0.736917353	 1.8876675521	 0.7571839331	 0.121274
H	-0.9173854519	-0.4585520384	-0.0906719375	 0.071708
H	 0.6795534642	-0.3171569722	-2.1914000642	 0.057105
H	 0.3153271379	-2.5923322065	-0.3950638185	 0.085647
H	 1.8421521963	-2.5771491597	-1.3361364562	 0.09593
H	 2.7158723068	-1.8022081865	 1.0784777306	 0.067634
H	 3.1784956536	-0.6485468251	-1.2975975999	 0.096157
H	 2.664727232	 0.7550584498	-0.3118536931	 0.103663
H	 0.2298368449	-1.23892688	 1.7550269403	 0.09727
H	 2.1289699384	 1.9937260806	 3.6258476546	 0.190415
111.9652	147.9172	204.5613	222.3531	296.7749	370.3349	450.9181	472.4218	506.1803	568.1419	620.9734	625.8676	680.3979	773.2517	808.3932	833.8317	856.3945	877.4873	900.8366	952.1995	987.8704	1000.7624	1035.4275	1039.9424	1064.8869	1077.6158	1109.8487	1117.0323	1122.8243	1153.0857	1203.153	1225.702	1248.3447	1264.1084	1288.4093	1302.3315	1323.6826	1343.7195	1376.3394	1414.3482	1484.9285	1494.2432	1496.4281	1521.8872	2228.7212	3026.3397	3037.1931	3041.1811	3045.9305	3065.0308	3101.0999	3103.5266	3111.5112	3116.3667	3118.7103	3124.1119	3504.4092
CC1C2CC(C2)C1C#C	C[C@H]1[C@@H]2C[C@@H](C2)[C@H]1C#C	
InChI=1S/C9H12/c1-3-9-6(2)7-4-8(9)5-7/h1,6-9H,4-5H2,2H3	InChI=1S/C9H12/c1-3-9-6(2)7-4-8(9)5-7/h1,6-9H,4-5H2,2H3/t6-,7-,8+,9-/m0/s1
