18
gdb 94982	2.72313	1.76848	1.351	0.7479	71.36	-0.2383	0.0612	0.2995	972.2077	0.149222	-438.976473	-438.969187	-438.968243	-439.008217	29.169	
O	 0.1009761453	 1.373201131	-0.1496344981	-0.425206
C	 0.0398837849	-0.0251346463	-0.0035723762	-0.056809
C	 0.5671007971	-0.539704843	 1.41151112	-0.105425
O	-0.3166023351	-1.5619442153	 1.9407462773	-0.287339
C	-1.1383472641	-1.9409036138	 0.8564367747	 0.100443
C	-2.6855527413	-1.7113101695	 0.6823299199	-0.084649
C	-2.461886856	-0.2280059871	 1.0101332358	-0.257183
C	-1.3160245821	-0.6805608365	 0.0454878042	 0.302988
N	-2.4111489807	-1.3544797226	-0.7883936776	-0.394832
H	-0.5776678041	 1.7600728773	 0.4154509155	 0.286761
H	 0.6616907297	-0.4354711938	-0.805027455	 0.106932
H	 1.5798825437	-0.9481792708	 1.3219489274	 0.113899
H	 0.5929087088	 0.298274611	 2.1160052751	 0.110601
H	-0.7549017837	-2.8314603286	 0.3377188376	 0.066045
H	-3.5245196711	-2.3560619534	 0.9462262729	 0.0879
H	-3.1893133178	 0.4587780289	 0.577074423	 0.109461
H	-2.1823568599	 0.0088825349	 2.0354938989	 0.117518
H	-2.0103021634	-2.1730537427	-1.2626479254	 0.208896
82.36	185.4815	265.441	315.0385	334.8063	433.7828	500.8531	546.1695	586.9316	667.7982	699.6882	757.773	853.3709	885.5381	903.5748	927.1291	962.4593	984.226	1003.4025	1018.8546	1051.3765	1076.3208	1104.0053	1117.5975	1133.6744	1176.8577	1192.3191	1199.6391	1209.8119	1248.7728	1276.9803	1284.8929	1306.4422	1319.8974	1354.0752	1378.0371	1435.3817	1486.6456	1510.2592	3003.0959	3034.3259	3067.1005	3087.0471	3089.9732	3111.9566	3171.8748	3359.9497	3797.8007
OC1COC2C3CC12N3	O[C@H]1CO[C@H]2[C@H]3C[C@@]12N3	
InChI=1S/C6H9NO2/c8-4-2-9-5-3-1-6(4,5)7-3/h3-5,7-8H,1-2H2	InChI=1S/C6H9NO2/c8-4-2-9-5-3-1-6(4,5)7-3/h3-5,7-8H,1-2H2/t3-,4+,5+,6-/m1/s1
