17
gdb 105856	2.0844	1.64995	1.24682	3.9309	68.61	-0.2566	-0.0031	0.2535	1084.1153	0.133659	-458.943356	-458.934444	-458.933499	-458.977289	31.974	
C	-0.4042728807	 1.2467233902	 0.0420726283	-0.263439
O	 0.437341062	 0.1152076414	-0.1760226191	-0.269221
C	 0.8338835752	-0.4965432856	 0.9761031125	 0.209195
C	 1.9828729338	 0.0184379883	 1.877686148	-0.097162
C	 1.905150101	 0.2911866299	 3.3627026945	-0.42689
C	 2.0435219565	-1.3449333557	 1.2686921898	-0.011589
O	 1.2433842775	-2.2684429425	 2.0631281723	-0.264045
C	 0.0796682799	-1.5819132424	 1.7225515047	 0.400566
O	-1.0411241563	-1.8883267833	 1.9626061461	-0.329809
H	 0.114326848	 2.0178038755	 0.6268541399	 0.116291
H	-0.6513587985	 1.6440913532	-0.9436795811	 0.137354
H	-1.325691353	 0.9584122618	 0.5609820633	 0.142265
H	 2.5668994439	 0.7367822793	 1.3017511402	 0.112589
H	 1.3723903698	-0.5057943788	 3.8854573026	 0.150087
H	 2.9115614623	 0.3555683632	 3.789401417	 0.128616
H	 1.3943558408	 1.2380583717	 3.5618210821	 0.126517
H	 2.7928999979	-1.7754498062	 0.619967069	 0.138674
67.47	128.3064	155.3033	171.8931	177.7679	261.209	298.5264	331.6213	438.1437	498.6171	589.2737	664.2776	714.3222	791.2914	807.3443	908.475	921.5146	929.2343	1000.2918	1046.586	1062.9223	1071.9606	1105.3682	1135.7549	1179.9311	1215.9504	1232.751	1277.5813	1343.5496	1416.8128	1443.6881	1486.7185	1489.9238	1497.4902	1503.6261	1507.383	1940.9492	3010.0662	3042.7168	3078.197	3103.6317	3118.2349	3136.7356	3138.8407	3227.2975
COC12C(C)C1OC2=O	CO[C@]12[C@@H](C)[C@H]1OC2=O	
InChI=1S/C6H8O3/c1-3-4-6(3,8-2)5(7)9-4/h3-4H,1-2H3	InChI=1S/C6H8O3/c1-3-4-6(3,8-2)5(7)9-4/h3-4H,1-2H3/t3-,4+,6+/m0/s1
