18
gdb 72570	2.46109	1.93664	1.49564	2.6015	71.61	-0.2598	0.0253	0.2851	939.8305	0.15043	-439.118675	-439.111524	-439.11058	-439.149795	29.591	
O	 0.0927119221	 1.3693310237	 0.0459675222	-0.500943
C	 0.0286166678	-0.0157257357	 0.0420897644	 0.343145
C	 0.704889801	-0.7233172011	 1.2578855723	-0.260942
C	 0.19131478	-2.1875906833	 1.1348336978	-0.224859
C	-0.7115117912	-2.1017678632	-0.1105173856	 0.082379
C	-1.3551386773	-0.7165691929	 0.0136579632	-0.284778
O	 0.1750505226	-1.9299294252	-1.267731847	-0.255099
C	 0.6260119683	-0.6494223386	-1.1980961064	 0.39293
N	 1.3875526926	-0.0397387334	-1.997697024	-0.596263
H	 0.6524942287	 1.6106704988	-0.7085431953	 0.294876
H	 1.7927044038	-0.6379129513	 1.2151393563	 0.117628
H	 0.3639450144	-0.2364474065	 2.1749799484	 0.114039
H	 0.9904657506	-2.9161558962	 0.9830910932	 0.117367
H	-0.3871947042	-2.4989694866	 2.0090031677	 0.109475
H	-1.3465747509	-2.9609491174	-0.3157882265	 0.092397
H	-1.9277661185	-0.5816351076	 0.93403561	 0.111726
H	-1.960567297	-0.439877898	-0.8521902646	 0.117709
H	 1.6824225672	-0.6202383154	-2.7822306761	 0.229212
148.3316	230.7065	291.3822	351.556	399.1109	409.5503	436.3966	512.2711	558.4338	642.1947	716.1811	734.6116	792.203	825.7043	867.0945	881.3167	907.4356	922.6441	944.7638	975.2338	1001.1356	1053.0532	1059.6264	1103.0617	1156.6946	1179.6803	1191.2702	1243.5397	1249.243	1253.0729	1293.039	1326.3757	1345.9016	1397.5939	1435.1832	1482.4529	1487.5244	1510.534	1792.3773	3063.2897	3070.9394	3075.4418	3108.2421	3125.6317	3133.8463	3145.6838	3497.2463	3702.4381
OC12CCC(C1)OC2=N	O[C@@]12CC[C@@H](C1)O[C]2[NH]	
InChI=1S/C6H9NO2/c7-5-6(8)2-1-4(3-6)9-5/h4,7-8H,1-3H2	InChI=1S/C6H9NO2/c7-5-6(8)2-1-4(3-6)9-5/h4,7-8H,1-3H2/t4-,6-/m0/s1
