20
gdb 85438	2.49657	1.46436	1.11999	3.778	79.65	-0.2308	0.0364	0.2672	1156.1083	0.171554	-403.188729	-403.180159	-403.179215	-403.221782	33.532	
C	-0.0737643598	 1.586138286	 0.0110667472	-0.390591
C	-0.0171928057	 0.0531536641	 0.0149029969	-0.065193
C	 0.8603222869	-0.4840933366	-1.1373074632	-0.349137
C	 2.2518508896	-0.6681853013	-0.5205457003	 0.399891
O	 3.302965146	-0.8387064312	-1.0970947832	-0.381062
N	 2.0753754316	-0.6145030744	 0.8379222133	-0.360106
C	 0.7035970278	-0.5006345307	 1.2552111521	 0.394348
C	 0.3558105527	-0.1346718112	 2.6645360134	-0.33317
C	 0.0899588631	-1.5423467651	 2.1594280812	-0.323848
H	 0.9318535999	 2.0151590044	 0.0738506782	 0.129145
H	-0.5384180453	 1.950748427	-0.9105118049	 0.116709
H	-0.6550051475	 1.9689983727	 0.854999126	 0.114606
H	-1.0339216084	-0.3463229885	-0.0358991745	 0.078767
H	 0.5212217442	-1.4644086831	-1.4906287259	 0.12734
H	 0.9090151681	 0.1788944471	-2.0033675303	 0.125279
H	 2.8396625841	-0.8104213311	 1.4650288131	 0.247951
H	 1.1665903219	 0.0067869559	 3.3723086724	 0.115445
H	-0.492471383	 0.5203564457	 2.8335974786	 0.121568
H	-0.9392660607	-1.838841316	 1.9850927412	 0.117474
H	 0.7311202544	-2.3388291536	 2.5226984086	 0.114585
93.3499	98.7564	213.3011	243.9322	268.8389	323.6191	367.7469	439.8689	493.9856	507.3069	542.0473	585.9806	653.7015	757.5413	778.0099	864.7371	876.032	898.4902	932.0621	948.7554	961.0924	984.6287	1036.5679	1053.1375	1077.5947	1093.1818	1106.6802	1186.2956	1205.1825	1231.1324	1257.965	1282.9665	1315.9002	1348.7086	1354.5727	1409.9575	1445.9739	1460.2707	1467.2989	1497.2006	1498.0227	1509.5301	1832.6548	3035.7948	3050.9331	3065.9614	3106.4028	3109.3598	3117.2681	3124.1856	3127.7716	3203.407	3218.7214	3638.9635
CC1CC(=O)NC11CC1	C[C@H]1CC(=O)NC21CC2	
InChI=1S/C7H11NO/c1-5-4-6(9)8-7(5)2-3-7/h5H,2-4H2,1H3,(H,8,9)	InChI=1S/C7H11NO/c1-5-4-6(9)8-7(5)2-3-7/h5H,2-4H2,1H3,(H,8,9)/t5-/m0/s1
