22
gdb 100268	1.85257	1.43646	1.12875	4.7401	77.95	-0.2455	0.0208	0.2663	1250.8674	0.192799	-441.520429	-441.50987	-441.508926	-441.555646	38.833	
C	-0.5162845912	 1.1394796197	 0.4644782169	-0.399764
C	-0.1015545383	-0.3068534918	 0.1718191565	-0.18997
C	 0.6976019984	-0.5275138419	-1.1408076986	 0.092832
C	 2.0120807429	 0.2633922662	-1.1517263425	-0.422918
N	 0.8987765643	-1.986893183	-1.349393023	-0.335035
H	-0.665205481	-1.8417219511	-2.3679649524	 0.296757
H	 1.5452154637	-2.0963902294	-2.1260861532	 0.229956
C	 1.4000202934	-2.7866616071	-0.2285928635	-0.334429
C	-0.2047540699	-0.05294028	-2.3120613678	 0.434011
O	-0.2469857938	 1.0843527936	-2.7026197829	-0.35045
O	-0.9746886127	-1.0240711054	-2.8216366875	-0.37806
H	 0.3533384121	 1.7843228696	 0.6200055978	 0.121164
H	-1.1059858017	 1.568424715	-0.3482265029	 0.151128
H	-1.1163385126	 1.170525161	 1.3787830293	 0.112779
H	 0.5093254672	-0.6706773279	 1.0051957374	 0.10259
H	-0.9931332079	-0.9447374821	 0.1346695133	 0.10816
H	 2.6234462691	 0.0169768739	-0.2778233888	 0.111459
H	 2.5909219204	 0.0359363036	-2.0533872069	 0.113697
H	 1.8173485964	 1.336352437	-1.1554819543	 0.154542
H	 2.297393039	-2.3716476409	 0.2541491321	 0.113787
H	 0.6265557707	-2.9084006412	 0.5324743887	 0.139496
H	 1.6495168414	-3.7822335679	-0.6052523476	 0.128267
73.5834	101.4857	140.3341	192.9782	204.6856	210.364	240.4325	272.461	286.2784	323.6416	389.7549	408.7591	430.5409	524.0646	597.6521	725.2947	753.9968	795.8935	802.004	870.4412	911.3181	956.0528	1006.4263	1026.4482	1066.4603	1097.1929	1124.6764	1156.4094	1180.937	1192.6193	1231.5921	1254.868	1323.6963	1362.886	1406.5655	1420.814	1423.693	1462.3474	1474.1469	1485.1523	1492.8709	1499.0145	1501.1136	1508.2443	1511.9985	1524.1854	1856.445	2996.4973	3028.0421	3039.1739	3049.3601	3069.1781	3089.097	3101.7486	3111.6715	3125.4111	3137.3482	3146.1972	3434.5615	3498.089
CCC(C)([NH2+]C)C([O-])=O	CC[C@@](C)(NC)C(=O)O	
InChI=1S/C6H13NO2/c1-4-6(2,7-3)5(8)9/h7H,4H2,1-3H3,(H,8,9)	InChI=1S/C6H13NO2/c1-4-6(2,7-3)5(8)9/h7H,4H2,1-3H3,(H,8,9)/t6-/m1/s1
