20
gdb 15664	2.79257	1.81177	1.24605	1.2385	75.73	-0.2316	0.0295	0.2611	1024.3867	0.177735	-349.012151	-349.003818	-349.002873	-349.044678	31.742	
C	-0.6772868116	 1.3815220823	-0.0227494223	-0.408145
C	 0.0414198061	 0.0258502245	-0.050468775	-0.029277
C	 1.2037277366	-0.0487561644	-1.0208745927	-0.059054
C	 2.2137496121	-0.7716247993	-0.5424655374	-0.075665
C	 1.9152981901	-1.3072858335	 0.8370592291	-0.260765
C	 0.6833874791	-0.471673749	 1.2861077205	 0.004602
C	 1.1241328779	 0.6656708565	 2.2083712062	-0.087767
O	 1.6805965002	 0.0772953331	 3.3789493709	-0.422771
H	 0.0018509239	 2.2043915495	 0.2213853657	 0.117556
H	-1.1102165989	 1.5975023875	-1.0053716451	 0.110308
H	-1.4960023475	 1.388690125	 0.704423438	 0.114074
H	-0.7076997432	-0.7203659618	-0.3594388691	 0.080148
H	 1.1643047402	 0.4107112587	-2.0034546897	 0.084021
H	 3.1324307751	-0.9957323326	-1.0740216445	 0.086843
H	 1.6791289187	-2.3798056259	 0.7923096285	 0.099333
H	 2.7459243656	-1.2066641401	 1.5423599329	 0.115523
H	-0.023458581	-1.0841183209	 1.8545528926	 0.07308
H	 1.8644325611	 1.2995300508	 1.6944481856	 0.088923
H	 0.2646463571	 1.3004638874	 2.4675499956	 0.084562
H	 2.0170649885	 0.783988732	 3.9370345003	 0.284471
87.4481	145.2597	212.8658	249.1412	260.5906	284.8244	300.0113	400.3252	452.7575	516.03	660.2711	755.7616	757.4601	831.341	858.4891	918.5014	950.2854	970.627	972.2855	1003.2734	1057.2293	1072.8981	1097.5943	1112.7617	1131.0032	1149.7979	1197.4491	1223.6472	1263.6278	1280.924	1309.351	1322.4979	1349.2732	1362.1856	1385.9942	1411.2874	1455.3423	1495.3617	1498.614	1504.2188	1526.1441	1686.52	2967.8805	2972.7049	3008.3812	3010.6572	3031.3069	3062.9856	3078.3135	3094.6816	3103.445	3172.4494	3199.5862	3832.9778
CC1C=CCC1CO	C[C@H]1C=CC[C@H]1CO	
InChI=1S/C7H12O/c1-6-3-2-4-7(6)5-8/h2-3,6-8H,4-5H2,1H3	InChI=1S/C7H12O/c1-6-3-2-4-7(6)5-8/h2-3,6-8H,4-5H2,1H3/t6-,7-/m0/s1
