18
gdb 12146	5.71476	1.36045	1.34887	1.475	73.02	-0.214	0.078	0.2921	993.5674	0.152916	-347.753665	-347.746313	-347.745369	-347.785318	29.068	
C	 0.3492663204	 1.5630613199	 0.0594321813	-0.332174
C	 1.3442746429	 0.4279784871	-0.1676700571	-0.332172
C	-0.0983749989	 0.1413872636	 0.0739501964	 0.457505
C	-0.7789793528	-0.6744084819	 1.1694108154	-0.440763
C	-1.6319302359	-1.1910069978	 0.0142573083	 0.457505
C	-2.1048643686	-2.5687280811	-0.3019253097	-0.332172
C	-3.0998983987	-1.4336673768	-0.074826334	-0.332174
O	-0.9416508111	-0.392013607	-0.9547203848	-0.323545
H	 0.384777676	 2.108222254	 0.9973678969	 0.112965
H	 0.0703383441	 2.1586033749	-0.8032298418	 0.124956
H	 1.7124024729	 0.2853711266	-1.1780175208	 0.124956
H	 2.0600354391	 0.1971278598	 0.6150043092	 0.112965
H	-0.1488090054	-1.4215994742	 1.6577755046	 0.113153
H	-1.3139942842	-0.0924114416	 1.923697558	 0.113153
H	-1.9700546167	-2.9140523822	-1.3213537381	 0.124956
H	-2.0104509797	-3.3394180717	 0.4565651168	 0.112965
H	-3.6857472421	-1.4283596243	 0.8389230621	 0.112965
H	-3.6121669414	-1.0408602073	-0.9465719027	 0.124956
53.3801	223.0313	228.0447	319.3126	365.2384	382.1626	450.6648	477.0003	670.4648	752.9614	758.3074	820.3108	851.581	877.373	900.4355	913.261	915.4647	918.9474	977.8531	1004.9985	1046.0423	1049.4408	1067.2302	1067.2969	1095.358	1166.2149	1182.2532	1185.5306	1186.1164	1228.6295	1285.1378	1351.8147	1404.4449	1448.354	1448.486	1485.6665	1491.5137	1521.6192	3060.5862	3112.4266	3126.0159	3126.2518	3128.8204	3128.8968	3209.6035	3209.8989	3223.9647	3223.965
C1CC11CC2(CC2)O1	C1CC21CC1(CC1)O2	
InChI=1S/C7H10O/c1-2-6(1)5-7(8-6)3-4-7/h1-5H2	InChI=1S/C7H10O/c1-2-6(1)5-7(8-6)3-4-7/h1-5H2
