19
gdb 114452	4.63176	1.22839	1.15093	0.7195	75.66	-0.2458	0.1008	0.3467	1124.611	0.160599	-422.976556	-422.969162	-422.968218	-423.008551	29.02	
C	-0.0335857722	 1.3517483024	-0.1529218922	-0.242012
O	-0.0291478882	-0.0468201695	 0.0712999756	-0.244038
C	-1.2995063248	-0.6177029586	 0.0676649417	 0.216457
O	-1.9176486823	-0.5632343351	-1.226983099	-0.296624
C	-1.985213784	-1.9333097571	-1.5860946284	 0.137062
C	-2.4598068414	-2.7759557551	-0.3661993936	-0.090653
C	-1.5882928025	-3.9507285546	-0.8668450467	-0.262483
C	-0.7163206327	-2.6975333544	-1.1129535151	-0.069462
C	-1.1872480201	-2.1212857729	 0.2676250265	-0.086378
H	 1.0023963271	 1.6902440191	-0.0834730306	 0.125453
H	-0.4315783606	 1.5950960318	-1.1448985233	 0.129073
H	-0.6328072383	 1.8764808657	 0.6068399295	 0.104238
H	-1.9553931067	-0.0929186985	 0.7805348539	 0.065884
H	-2.4053101108	-2.0592235836	-2.5831487201	 0.085286
H	-3.4621164343	-2.80781817	 0.0629250483	 0.073769
H	-1.2299430145	-4.647119759	-0.1050971268	 0.098927
H	-1.9451749339	-4.4889069064	-1.7500414863	 0.093185
H	 0.2877928724	-2.6355463366	-1.5301511149	 0.082833
H	-0.7670761523	-2.4950839576	 1.2002424615	 0.079484
98.5576	138.1603	178.8665	265.3501	365.106	419.6186	466.0897	573.2636	693.7511	748.5192	804.5835	823.1646	887.7802	896.3699	913.8159	948.9652	976.0445	983.7998	999.7856	1019.0239	1045.6672	1074.9074	1082.9276	1118.4506	1121.3008	1149.837	1167.89	1179.8749	1185.5441	1225.8869	1234.495	1245.4501	1260.0712	1273.12	1326.3674	1375.6981	1400.1828	1479.2326	1484.4428	1512.2361	1522.8145	2978.8079	2991.0114	3051.2993	3065.1071	3105.4215	3112.5015	3124.0225	3124.7851	3133.3764	3141.478
COC1OC2C3CC2C13	CO[C@H]1O[C@@H]2[C@H]3C[C@@H]2[C@@H]13	
InChI=1S/C7H10O2/c1-8-7-5-3-2-4(5)6(3)9-7/h3-7H,2H2,1H3	InChI=1S/C7H10O2/c1-8-7-5-3-2-4(5)6(3)9-7/h3-7H,2H2,1H3/t3-,4+,5-,6+,7-/m0/s1
