17
gdb 52971	4.68959	0.90312	0.84362	1.9229	83.6	-0.2134	0.0324	0.2457	1405.1084	0.134045	-384.587824	-384.579341	-384.578396	-384.622871	31.331	
C	-0.0184849923	 1.4715663806	-0.006576509	-0.508001
C	-0.0169233563	 0.0164473468	-0.0167119961	 0.240404
C	-0.0182786508	-1.1902099008	-0.0338942212	-0.187108
C	 0.0114909752	-2.608359102	-0.0166902066	 0.171259
C	-0.351129456	-3.5051169846	-1.1847826207	-0.329877
C	-1.1574434911	-3.6154988089	 0.0737041234	-0.156822
C	-0.3771732288	-4.3727958543	 1.1895487274	 0.026406
O	 0.8974106701	-4.7964291556	 0.6775119657	-0.238031
C	 0.7380446549	-3.4419524382	 1.1061707161	-0.05596
H	 0.7543023692	 1.8608618008	 0.6658856654	 0.148737
H	 0.1784549902	 1.8801321722	-1.0042821101	 0.14787
H	-0.9809901878	 1.8719515415	 0.3322047291	 0.146043
H	-0.8437391178	-2.9853238432	-1.9989520022	 0.125762
H	 0.3208611295	-4.303708346	-1.472351098	 0.140308
H	-2.2103441421	-3.3767369824	 0.1334897873	 0.107694
H	-0.7956458231	-4.9272708423	 2.0197838873	 0.112959
H	 1.4246419471	-3.0475836535	 1.8450038221	 0.108357
12.6283	92.5205	100.6066	256.5451	291.4751	374.7407	410.9455	431.3689	500.4743	525.8647	611.023	754.8204	777.223	796.0764	810.2202	869.0313	917.9019	935.5109	981.0408	985.9309	1019.1809	1044.7484	1051.2572	1053.7553	1069.2574	1104.9943	1177.3965	1213.7419	1246.0146	1276.2186	1369.3879	1400.2836	1417.2998	1465.4905	1475.9115	1479.4951	2356.3537	3021.9312	3079.7444	3083.6215	3146.6993	3190.4855	3204.6422	3214.7369	3240.4377
CC#CC12CC1C1OC21	CC#C[C@]12C[C@H]1[C@H]1O[C@@H]21	
InChI=1S/C8H8O/c1-2-3-8-4-5(8)6-7(8)9-6/h5-7H,4H2,1H3	InChI=1S/C8H8O/c1-2-3-8-4-5(8)6-7(8)9-6/h5-7H,4H2,1H3/t5-,6+,7+,8-/m0/s1
