17
gdb 66962	2.56935	1.74595	1.29749	4.3969	75.82	-0.246	0.0062	0.2522	1003.8112	0.136754	-380.808823	-380.801234	-380.80029	-380.84074	29.404	
C	 0.0289278655	 1.4956048235	 0.107139956	-0.514601
C	-0.0155115879	 0.0036971309	-0.0205979213	 0.321652
C	-1.010627249	-0.8932679457	 0.7498183497	-0.126866
C	-1.0618656918	-2.2142164509	 0.005961282	-0.193905
N	 0.4280436047	-2.0787918959	-0.2710644518	-0.17716
C	 0.4720044062	-1.0729593764	 0.9067124726	-0.087128
C	 0.4722209271	-0.8583625051	-1.1830030029	-0.161844
C	-0.2860967503	-0.9197947693	-2.4314511413	 0.28532
N	-0.8946493778	-0.9445831534	-3.4141968859	-0.332871
H	 1.020166701	 1.8868117635	-0.1465919483	 0.128348
H	-0.7016992905	 1.9698680927	-0.5569723469	 0.141394
H	-0.2001239877	 1.8080668705	 1.1308942984	 0.129813
H	-1.7130742816	-0.4572952502	 1.4491272359	 0.099878
H	-1.2099072279	-3.0675398441	 0.6716475985	 0.119812
H	-1.687976828	-2.3227833865	-0.8845977018	 0.131047
H	 1.1648400524	-1.1079529656	 1.7349171477	 0.110402
H	 1.5210170356	-0.651317058	-1.4164285404	 0.126709
127.254	144.4673	206.2903	252.9694	288.0274	400.2784	432.3603	530.0665	562.1282	634.295	729.7075	799.8142	836.4876	839.7225	870.6726	898.2875	932.0689	969.315	989.3341	992.3589	1036.2096	1078.3905	1093.756	1116.3859	1143.2942	1166.2327	1209.2539	1235.3111	1260.7365	1311.8146	1349.6923	1413.022	1436.2915	1486.1346	1498.4042	1513.9072	2350.3671	3030.6092	3058.5171	3068.6575	3094.3701	3103.2285	3116.707	3194.8902	3226.0037
CC12C3CN(C13)C2C#N	C[C@]12[C@H]3CN([C@@H]13)[C@H]2C#N	
InChI=1S/C7H8N2/c1-7-4-3-9(6(4)7)5(7)2-8/h4-6H,3H2,1H3	InChI=1S/C7H8N2/c1-7-4-3-9(6(4)7)5(7)2-8/h4-6H,3H2,1H3/t4-,5-,6+,7+/m0/s1
