18
gdb 87328	1.77566	1.59654	1.04871	3.4362	80.43	-0.2461	0.0186	0.2648	1214.9978	0.145144	-401.92629	-401.916617	-401.915673	-401.961095	35.355	
C	 0.1857327381	 1.454730649	 0.0222494235	-0.417913
C	 0.1651392753	-0.0558725578	 0.0327939914	-0.04226
C	 1.4303983594	-0.8538046671	 0.0925509591	-0.297071
C	 0.5145778719	-0.8464769751	 1.3046684857	 0.13419
N	 0.9543330627	-0.1019864674	 2.4552225709	-0.34645
C	 2.157439585	-0.2795354392	 3.0835593572	 0.145921
O	 3.0677816708	-0.9732926796	 2.6948871012	-0.308317
C	-0.2670117297	-2.0207057838	 1.5987009896	 0.324594
C	-0.9404840932	-2.9847937748	 1.8514450371	-0.468945
H	 0.9910273101	 1.8459392238	 0.648898161	 0.125612
H	 0.3438052009	 1.8243234361	-0.9964015106	 0.128468
H	-0.7611204424	 1.8719643659	 0.3828601966	 0.118716
H	-0.6470776877	-0.505006396	-0.5307677014	 0.104477
H	 1.4992256485	-1.7847429222	-0.4562974917	 0.132846
H	 2.3687452291	-0.3273589127	 0.2143505854	 0.144419
H	 0.2510338976	 0.4156643255	 2.9616630806	 0.249499
H	 2.2123929351	 0.3322361009	 4.0075774529	 0.074964
H	-1.5190754716	-3.8459567555	 2.0773589516	 0.197252
43.7094	134.2676	148.5517	159.058	193.7595	200.4617	287.0182	325.8234	431.4426	450.8888	535.7539	554.6472	563.8214	585.2414	638.6474	665.9865	767.2927	846.4163	904.7411	919.1971	964.2582	1011.484	1032.742	1078.4846	1086.3536	1126.2203	1181.5677	1189.6469	1248.8256	1305.5439	1398.2097	1419.6181	1435.9763	1484.1498	1494.2232	1499.3685	1508.4109	1817.8565	2232.7303	2921.7147	3033.5351	3092.8589	3117.7671	3157.0409	3159.365	3248.6824	3502.4519	3604.9019
CC1CC1(NC=O)C#C	C[C@H]1C[C@]1(NC=O)C#C	
InChI=1S/C7H9NO/c1-3-7(8-5-9)4-6(7)2/h1,5-6H,4H2,2H3,(H,8,9)	InChI=1S/C7H9NO/c1-3-7(8-5-9)4-6(7)2/h1,5-6H,4H2,2H3,(H,8,9)/t6-,7+/m0/s1
