16
gdb 65017	2.19515	1.49295	1.05926	4.564	68.98	-0.2697	-0.0496	0.2201	1133.8295	0.121289	-437.879686	-437.870443	-437.869499	-437.914374	32.969	
O	-0.5171191989	 1.290507491	-0.3472169153	-0.460418
C	-0.1390082043	-0.0157469736	-0.0054328573	 0.388065
C	-0.2766152268	-0.4648334501	 1.4223469044	-0.328051
C	-1.2529828252	-0.9463988166	 0.3648957447	-0.30749
C	 1.0357258182	-0.5014553743	-0.8866101729	-0.317289
C	 2.2827587162	 0.3461092451	-0.6085279798	 0.156148
O	 3.3543573041	-0.0852893585	-0.289185142	-0.214296
C	 1.3135454322	-1.9275330728	-0.7495130296	 0.306149
N	 1.5027637113	-3.0606361542	-0.6317721354	-0.323833
H	-0.084614503	 1.9067653094	 0.2528066056	 0.293597
H	 0.4429536774	-1.1759570373	 1.8128806194	 0.148129
H	-0.6303006832	 0.2693645836	 2.1381519119	 0.122951
H	-2.2435501042	-0.5074995883	 0.361479933	 0.133182
H	-1.1988921244	-1.983359265	 0.0557790098	 0.148508
H	 0.7386104295	-0.2963213219	-1.9253084478	 0.15774
H	 2.0947091913	 1.4337937937	-0.7273592188	 0.096909
48.3498	74.1693	144.7894	168.0803	222.8118	278.9814	342.0963	355.2959	377.1536	422.1272	481.6192	537.8175	682.8858	732.9884	775.1093	838.4494	900.8863	940.1092	950.6828	1002.126	1021.4558	1060.5559	1085.8161	1092.3118	1190.1998	1199.6748	1255.8835	1306.4678	1322.5109	1357.4687	1409.3609	1452.4976	1494.9389	1844.6387	2368.0961	2914.6931	3019.1285	3136.3591	3149.3716	3224.5513	3244.7166	3812.6678
OC1(CC1)C(C=O)C#N	OC1(CC1)[C@@H](C=O)C#N	
InChI=1S/C6H7NO2/c7-3-5(4-8)6(9)1-2-6/h4-5,9H,1-2H2	InChI=1S/C6H7NO2/c7-3-5(4-8)6(9)1-2-6/h4-5,9H,1-2H2/t5-/m1/s1
