20
gdb 26265	3.46621	1.0728	0.99715	2.6286	87.75	-0.248	-0.0173	0.2308	1296.1392	0.172758	-366.083297	-366.074722	-366.073778	-366.116966	32.44	
C	 0.0279137508	 1.5550092697	-0.0147872117	-0.38401
C	-0.0000727529	 0.0169498547	 0.0399098908	-0.082136
C	 0.7998033651	-0.5107054972	 1.2444758101	-0.384163
C	-1.4216469073	-0.5160784695	 0.0359184372	 0.327552
C	-2.3259992371	-0.2314930549	 1.0635712698	-0.19165
C	-3.6154163257	-0.7481869795	 1.0042874672	 0.012903
N	-4.0677025436	-1.5185411105	 0.0098012876	-0.275428
C	-3.2035656074	-1.7895279694	-0.9707846285	 0.015524
C	-1.8932098561	-1.3200232008	-1.0023347214	-0.226219
H	 1.0598570105	 1.9170246392	-0.0669797955	 0.114936
H	-0.5109440658	 1.9314478797	-0.8892765813	 0.121276
H	-0.4335267673	 1.9928491675	 0.8766167193	 0.11863
H	 0.4846854952	-0.356889472	-0.8704497751	 0.07887
H	 0.3717324841	-0.1612164736	 2.1899003909	 0.118627
H	 0.8102575477	-1.6044239871	 1.2663328328	 0.121278
H	 1.8358247672	-0.1596325652	 1.198749124	 0.114947
H	-2.036452152	 0.3867850256	 1.9069237148	 0.094337
H	-4.324705686	-0.5311828234	 1.8001402976	 0.105523
H	-3.5761919552	-2.4168111458	-1.7778920776	 0.10587
H	-1.2449137941	-1.5810943775	-1.8333447812	 0.093332
40.3747	126.1377	205.5755	225.9914	259.7922	302.072	317.2966	391.3584	457.9343	560.9675	575.3706	681.8608	756.8356	777.9608	848.5026	897.8705	900.439	930.4647	965.6159	989.4805	1000.7794	1010.4904	1071.9661	1095.6238	1114.5146	1121.5853	1174.6982	1237.4326	1251.1338	1284.8807	1337.0608	1344.1284	1385.8853	1397.6535	1419.6843	1447.5506	1486.0924	1489.1626	1501.2688	1507.408	1529.0592	1600.862	1636.9181	3024.4326	3031.6162	3035.4461	3098.9083	3105.363	3109.323	3111.3139	3147.051	3149.4091	3177.8388	3183.6621
CC(C)C1=CC=NC=C1	CC(C)c1ccncc1	
InChI=1S/C8H11N/c1-7(2)8-3-5-9-6-4-8/h3-7H,1-2H3	InChI=1S/C8H11N/c1-7(2)8-3-5-9-6-4-8/h3-7H,1-2H3
