21
gdb 90242	3.38077	1.48573	1.39366	1.3614	83.47	-0.2213	0.0795	0.3008	1045.068	0.183886	-387.007967	-387.000552	-386.999608	-387.039202	31.397	
C	-0.0219632831	 1.5696233988	-0.0398795465	-0.412092
C	 0.0938497937	 0.0558143025	 0.0567145809	 0.157924
O	 1.0288805412	-0.4720568383	-0.909889042	-0.329794
C	 1.9442658542	-1.2670873543	-0.1001606291	 0.417187
C	 2.1761627402	-2.5681521405	-0.9031358393	-0.308907
C	 0.7568294768	-3.0163096179	-0.3310622503	-0.276664
C	 1.0355933629	-2.0103810715	 0.8464015854	-0.001426
C	 0.7104892213	-0.5380323735	 1.3213268702	-0.127521
C	 2.2772501792	-0.2807879891	 1.0495007623	-0.337936
H	 0.9199029016	 2.0692203417	 0.2013278111	 0.117687
H	-0.3059265879	 1.8562393124	-1.0569177823	 0.126209
H	-0.7950114038	 1.936688162	 0.6438462781	 0.110815
H	-0.8954701626	-0.3861862407	-0.1319970403	 0.0684
H	 2.2916239587	-2.4734561897	-1.9847286594	 0.109857
H	 2.9794541592	-3.1836800656	-0.4918790875	 0.106231
H	-0.0505152804	-2.7294228069	-1.0027115211	 0.126359
H	 0.6463768881	-4.0644682341	-0.0460366858	 0.095833
H	 1.6107982045	-2.523363284	 1.6197391535	 0.07977
H	 0.2441874231	-0.3063177926	 2.2798193225	 0.070889
H	 2.8989594804	-0.7093248243	 1.8361458035	 0.105763
H	 2.5991033425	 0.7336110855	 0.803941706	 0.101417
179.0814	200.5647	241.687	306.0734	333.5582	427.4298	491.1186	519.4919	599.3813	641.8195	684.0937	740.2266	793.8506	820.1609	841.9538	855.2813	882.5062	908.6352	915.4035	967.19	1005.4735	1021.9309	1038.3912	1063.662	1082.0653	1105.7454	1112.8141	1138.6663	1166.3491	1179.5425	1203.5864	1209.8379	1221.3238	1230.6568	1266.9806	1279.0233	1329.3544	1367.6815	1398.8125	1411.6755	1468.5689	1479.8057	1484.3321	1492.0223	1499.0441	2989.5044	3039.5866	3068.9518	3071.531	3080.463	3086.1722	3106.8597	3110.8483	3122.5795	3129.8596	3144.8785	3158.5912
CC1OC23CCC2C1C3	C[C@H]1O[C@]23CC[C@@H]2[C@H]1C3	
InChI=1S/C8H12O/c1-5-6-4-8(9-5)3-2-7(6)8/h5-7H,2-4H2,1H3	InChI=1S/C8H12O/c1-5-6-4-8(9-5)3-2-7(6)8/h5-7H,2-4H2,1H3/t5-,6+,7-,8+/m1/s1
