15
gdb 21661	3.43994	1.76526	1.17752	1.7497	63.38	-0.1996	0.0399	0.2394	961.1849	0.120554	-395.989464	-395.981436	-395.980492	-396.022661	28.798	
N	-0.017283877	 1.374019433	 0.1677724082	-0.592436
C	 0.0446043005	-0.0194151876	 0.0464846447	 0.271084
N	-1.0593786463	-0.7591631455	 0.0237596166	-0.307385
N	-0.5986080772	-2.03436946	-0.0127707486	-0.201963
C	 0.7514941175	-2.1090004134	-0.0285371189	-0.099232
C	 1.220948237	-0.8139183451	 0.0127826074	 0.175385
C	 2.641616062	-0.3567064988	 0.0499351844	-0.207604
O	 3.4826688381	-1.4998046537	-0.0030447977	-0.419943
H	 0.5968380832	 1.8528329143	-0.4799078472	 0.241143
H	-0.9673057692	 1.7016399341	 0.038926736	 0.248296
H	-1.2604802775	-2.789211322	-0.0274948467	 0.26967
H	 1.2824738391	-3.0458951539	-0.0590691212	 0.143226
H	 2.8501322408	 0.3211824868	-0.7980042014	 0.085292
H	 2.822572704	 0.2303118603	 0.9664297469	 0.104918
H	 4.3936951351	-1.2030537185	 0.0729485276	 0.289548
27.1771	166.1488	206.0534	248.8092	263.5352	317.2126	323.7846	404.766	519.661	640.087	646.9241	698.7545	774.9183	803.6739	815.2294	949.7316	1051.5494	1064.0599	1069.6762	1104.8639	1196.4522	1222.8734	1242.4209	1249.4773	1328.8408	1440.6475	1465.2962	1490.6473	1519.755	1541.8172	1628.8087	1653.9612	2927.1824	2958.8587	3279.1771	3523.339	3616.2332	3695.9902	3838.9133
NC1=NNC=C1CO	Nc1n[nH]cc1CO	
InChI=1S/C4H7N3O/c5-4-3(2-8)1-6-7-4/h1,8H,2H2,(H3,5,6,7)	InChI=1S/C4H7N3O/c5-4-3(2-8)1-6-7-4/h1,8H,2H2,(H3,5,6,7)
