20
gdb 107461	2.11185	1.70538	1.30557	2.1519	74.7	-0.2272	0.0604	0.2876	1074.8376	0.169914	-440.234461	-440.225269	-440.224325	-440.268022	35.6	
C	 0.021550937	 1.5903472479	 0.0513236066	-0.458722
C	 0.0142721709	 0.072052117	 0.038543114	 0.363668
O	-1.312641587	-0.4461109847	-0.0692404888	-0.49513
C	 1.0351038557	-0.660280658	-0.9160467799	-0.273228
C	 1.6456331548	-1.3241599281	 0.3215251478	-0.122337
N	 2.0874090622	-0.2184245476	 1.2179677267	-0.381335
C	 0.6740466514	-0.6594293226	 1.2293822739	 0.305775
C	-0.1079966684	-1.1365164806	 2.4271368964	-0.195532
O	-1.0382388493	-0.1576581484	 2.8632912859	-0.419587
H	 1.0369303881	 1.9580671346	 0.2101030551	 0.148865
H	-0.3425771434	 1.9877099518	-0.9051189642	 0.098505
H	-0.6175220678	 1.9675128924	 0.8549631205	 0.124792
H	-1.7410031138	-0.0166346767	-0.8175031092	 0.2809
H	 0.5079566274	-1.3670261155	-1.5605761972	 0.103797
H	 1.7088111377	-0.0324000258	-1.5054641516	 0.099781
H	 2.1008161921	-2.3045418238	 0.3944127885	 0.092968
H	 2.5393535828	-0.6483777509	 2.0250649365	 0.226599
H	-0.6204220329	-2.0768710571	 2.1774294225	 0.104154
H	 0.559347477	-1.3410983867	 3.2721014229	 0.104604
H	-1.6654042545	-0.0622687172	 2.1352760337	 0.291462
64.6693	130.5693	202.5987	223.3845	246.3415	308.3499	327.2244	359.0235	441.9335	448.3023	464.956	501.4148	533.5953	639.5507	702.5357	787.9518	850.1	877.451	908.4536	948.4856	957.1565	995.0036	1000.4394	1048.7258	1061.9485	1095.1491	1105.8635	1155.9807	1172.6845	1206.5699	1230.8922	1250.6054	1282.88	1315.4203	1371.2152	1398.0681	1402.1349	1425.3842	1447.6845	1470.7777	1481.8292	1493.4527	1506.0184	2994.4421	3023.9482	3058.5241	3061.2252	3098.8787	3124.6118	3140.7999	3185.0862	3467.8737	3777.5615	3807.9647
CC1(O)CC2NC12CO	C[C@@]1(O)C[C@H]2N[C@@]12CO	
InChI=1S/C6H11NO2/c1-5(9)2-4-6(5,3-8)7-4/h4,7-9H,2-3H2,1H3	InChI=1S/C6H11NO2/c1-5(9)2-4-6(5,3-8)7-4/h4,7-9H,2-3H2,1H3/t4-,5-,6-/m1/s1
