16
gdb 123367	3.5768	1.0487	0.92406	2.7838	75.68	-0.2179	0.0212	0.2391	1262.2933	0.125739	-396.8978	-396.889417	-396.888473	-396.932314	30.634	
C	-0.9238363134	 0.3449581964	 0.8719021939	-0.456906
C	-0.2743511576	 0.7374691647	-0.0603591062	 0.322384
C	 0.5661372382	 1.2055230145	-1.1642052809	-0.338296
N	 1.8479845075	 1.8134491385	-0.7485862026	-0.387807
C	 1.7686813211	 3.0645815592	-0.1154744709	 0.385278
C	 1.8676670024	 3.4750797585	 1.2011872203	-0.28561
C	 1.7410573902	 4.879758843	 1.1437756413	 0.00195
N	 1.5678036185	 5.3200164478	-0.0983714616	-0.230862
N	 1.5960298439	 4.197326088	-0.8480153434	-0.219838
H	-1.5107157046	 0.0071635622	 1.6901324224	 0.204441
H	 0.7961127098	 0.3696943296	-1.8344551143	 0.140058
H	 0.0211162291	 1.942938598	-1.7622658489	 0.143511
H	 2.3566134724	 1.1629083629	-0.1620602799	 0.243692
H	 1.9890858607	 2.8449377787	 2.0669434653	 0.099687
H	 1.7598832219	 5.5865614073	 1.9608143824	 0.108278
H	 1.55336421	 4.2657527805	-1.8509087368	 0.270042
29.4896	52.2503	162.6201	188.7387	326.3608	353.4923	392.6185	505.5128	572.5207	627.702	639.9908	667.7694	684.5089	724.3034	768.4255	790.4834	890.4922	931.3308	936.9237	981.5019	1049.6959	1059.7836	1078.6435	1130.2722	1241.0892	1257.5772	1319.5188	1351.8311	1367.69	1416.6753	1464.4887	1483.5265	1530.9759	1611.8726	2232.5218	3043.841	3082.4495	3240.1128	3270.2673	3504.0731	3558.6843	3670.5195
C#CCNC1=CC=NN1	C#CCNc1ccn[nH]1	
InChI=1S/C6H7N3/c1-2-4-7-6-3-5-8-9-6/h1,3,5H,4H2,(H2,7,8,9)	InChI=1S/C6H7N3/c1-2-4-7-6-3-5-8-9-6/h1,3,5H,4H2,(H2,7,8,9)
