14
gdb 7933	3.54808	1.93917	1.3378	1.6792	60.73	-0.2635	-0.0096	0.2538	879.0754	0.108326	-415.927298	-415.920163	-415.919218	-415.958828	26.276	
C	-0.0339269207	 1.5540094631	-0.0266658668	-0.399156
C	 0.038443601	 0.0353099694	-0.0077218338	-0.026799
O	 0.8195013773	-0.4692411352	-1.1099067925	-0.250967
C	 1.8460239178	-1.2402464523	-0.6533274419	 0.476869
N	 2.7182641022	-1.8426159708	-1.3336323514	-0.572148
N	 1.7825066604	-1.2571618299	 0.7362699697	-0.370987
C	 0.7399819752	-0.5156501892	 1.2373064355	 0.427188
O	 0.4460194138	-0.3314632033	 2.3910290733	-0.360884
H	 0.9685461202	 1.9897490448	 0.0054821116	 0.135928
H	-0.5400184105	 1.9016011113	-0.9302244014	 0.13706
H	-0.5919061617	 1.8942219569	 0.8495874145	 0.151971
H	-0.9653055368	-0.4006698968	-0.075075752	 0.130868
H	 2.5673762306	-1.686999659	-2.3280776463	 0.234482
H	 2.4555778012	-1.7564796189	 1.2955572614	 0.286575
104.2999	140.0094	221.4331	240.3113	369.6564	412.2343	539.7074	582.7376	642.6835	666.3181	716.1739	731.3254	813.6865	824.3407	909.6805	975.2128	1057.7391	1086.4297	1105.4825	1127.1265	1229.9443	1324.7854	1347.5123	1358.6234	1401.0956	1413.3517	1485.5446	1495.7437	1802.7821	1867.9297	3046.4967	3051.6057	3130.9484	3137.6974	3528.7222	3660.3515
CC1OC(=N)NC1=O	C[C@H]1O[C]([NH])NC1=O	
InChI=1S/C4H6N2O2/c1-2-3(7)6-4(5)8-2/h2H,1H3,(H2,5,6,7)	InChI=1S/C4H6N2O2/c1-2-3(7)6-4(5)8-2/h2H,1H3,(H2,5,6,7)/t2-/m1/s1
