19
gdb 74540	3.31338	1.47741	1.34181	2.1541	81.33	-0.2193	0.0114	0.2307	1036.3974	0.159426	-385.764564	-385.757208	-385.756263	-385.795901	30.413	
C	-0.201478602	 1.5149243887	 0.0484940979	-0.517423
C	-0.0550326725	 0.0329201883	 0.0281318491	 0.381803
C	-0.0500973694	-0.8613390122	-0.9628093679	-0.296186
C	 0.1453768202	-2.2023896626	-0.2351853295	 0.383887
C	-0.9356000855	-2.0585958736	 0.914185381	-0.306034
C	 0.1076246997	-0.8627035872	 1.2638357672	-0.189231
C	 1.1939512016	-1.9260656568	 0.7952771073	-0.024474
C	 2.1440660987	-2.3492775665	-0.3676357775	-0.162475
O	 1.0150946191	-3.1195235159	-0.9610862554	-0.357283
H	 0.6630398099	 1.9940259459	 0.5256534407	 0.128688
H	-0.2969750767	 1.9184834302	-0.963376773	 0.12828
H	-1.0842577343	 1.8251476508	 0.6225270177	 0.127722
H	-0.14396314	-0.7414194123	-2.0330345816	 0.099981
H	-1.9494130044	-1.7528611581	 0.6428071193	 0.10202
H	-0.9381881966	-2.8629836928	 1.653736841	 0.109122
H	 0.1182804205	-0.4089451854	 2.2554878664	 0.072288
H	 1.2266730032	-2.7338212789	 1.530967272	 0.089227
H	 2.4618806315	-1.5562306121	-1.0499959207	 0.116636
H	 2.9755535671	-3.0079666696	-0.107249124	 0.113451
148.5468	177.2178	266.7342	319.9391	338.2759	445.5505	503.0214	528.4639	560.7867	608.6569	691.7342	757.2033	780.8911	802.5365	838.5246	860.6418	892.4392	968.3253	978.3468	1003.1219	1008.7302	1040.7506	1059.8827	1066.3106	1091.6204	1107.5227	1140.4128	1163.7531	1172.2256	1196.6917	1218.9171	1229.1304	1290.4411	1308.0066	1398.7784	1412.6442	1477.5823	1486.2269	1487.5409	1490.7287	1700.6107	3014.4633	3053.8407	3055.2227	3059.0542	3068.4728	3108.4391	3111.5286	3124.8547	3132.7786	3231.9127
CC1=CC23CC1C2CO3	CC1=C[C@]23C[C@H]1[C@@H]2CO3	
InChI=1S/C8H10O/c1-5-2-8-3-6(5)7(8)4-9-8/h2,6-7H,3-4H2,1H3	InChI=1S/C8H10O/c1-5-2-8-3-6(5)7(8)4-9-8/h2,6-7H,3-4H2,1H3/t6-,7+,8+/m1/s1
