20
gdb 58528	2.56435	1.45207	1.25859	2.325	74.02	-0.2507	0.0229	0.2736	1104.2233	0.170345	-440.308286	-440.299133	-440.298189	-440.341865	34.836	
C	 0.079010497	 1.5869677104	-0.0999804493	-0.4192
C	 0.062314507	 0.0599318268	 0.0002272335	 0.093458
O	 0.851408129	-0.3846162486	 1.0939826196	-0.436498
C	-1.3503121157	-0.5535076462	 0.0911195782	 0.358334
C	-2.2977361765	-0.0908745309	-1.0105252026	-0.45171
C	-1.3214658197	-2.1029339839	 0.2442358661	-0.228896
N	-2.0511976668	-2.3932242443	 1.4890882818	-0.256308
C	-2.2958241575	-1.267941074	 2.0112665722	 0.098113
O	-1.9146637771	-0.1265466473	 1.3811759657	-0.273911
H	 1.1135602074	 1.935962959	-0.0544883778	 0.127113
H	-0.3614413525	 1.9420790631	-1.0356923145	 0.118871
H	-0.476169418	 2.0347090643	 0.7309697984	 0.126466
H	 0.5420762769	-0.3672861493	-0.8894371435	 0.093045
H	 0.4160729943	-0.0658899281	 1.8939300153	 0.285235
H	-1.875691718	-0.3211278218	-1.9946617749	 0.123034
H	-3.2567437505	-0.6099684017	-0.9237109019	 0.13069
H	-2.4845884905	 0.9836631322	-0.9547774204	 0.131675
H	-1.8030153297	-2.6057741971	-0.6002031001	 0.109773
H	-0.2986980444	-2.4815674399	 0.3324521322	 0.133224
H	-2.8031817446	-1.1077360926	 2.9567874921	 0.137492
85.3067	94.9849	213.0271	222.6566	255.3621	273.813	342.9364	357.3341	382.8259	403.3401	483.2462	505.254	578.8171	643.31	774.0438	850.9142	867.2295	929.6682	937.0953	957.2011	972.8201	986.9108	1024.7527	1078.4063	1099.8213	1123.3182	1153.5614	1200.9978	1222.3203	1265.6241	1303.7608	1326.7839	1340.7757	1361.4801	1400.5867	1408.8313	1422.1173	1482.935	1486.877	1490.1597	1499.3828	1507.2606	1713.6702	3035.0542	3041.0476	3043.1119	3050.4981	3091.1334	3109.6713	3115.7592	3124.8053	3131.3135	3209.1057	3789.8206
CC(O)C1(C)CN=CO1	C[C@@H](O)[C@@]1(C)CN=CO1	
InChI=1S/C6H11NO2/c1-5(8)6(2)3-7-4-9-6/h4-5,8H,3H2,1-2H3	InChI=1S/C6H11NO2/c1-5(8)6(2)3-7-4-9-6/h4-5,8H,3H2,1-2H3/t5-,6-/m1/s1
