19
gdb 117107	3.71731	0.8506	0.73507	4.0574	77.83	-0.2778	0.0112	0.289	1560.857	0.157679	-419.238214	-419.227945	-419.227001	-419.274331	35.814	
C	 0.1990373208	 1.4521213806	-0.1777866197	-0.391781
C	-0.0062239325	-0.0439331192	-0.0399276121	-0.034311
O	 0.6741423126	-0.677910063	-1.1401515945	-0.255192
C	 0.6127122865	-2.019452845	-1.1942434473	 0.426753
N	-0.0141505516	-2.707354374	-0.3380269373	-0.53393
C	 1.4143509904	-2.4888858193	-2.4146901823	-0.241739
C	 2.9200861453	-2.1686605512	-2.2620314195	-0.392564
C	 1.2007849205	-3.9153118837	-2.658839022	 0.280103
N	 1.0420912212	-5.0455140742	-2.8393694695	-0.321618
H	 1.2620658292	 1.7073646997	-0.1427999739	 0.127536
H	-0.2127116546	 1.8189546515	-1.1222661238	 0.129237
H	-0.3060226934	 1.9707660308	 0.6422924695	 0.126244
H	 0.4006990962	-0.4335986665	 0.8984832888	 0.125197
H	-1.0643102379	-0.3218924699	-0.0739590119	 0.126645
H	 0.0425466738	-3.7028440203	-0.5441509728	 0.24608
H	 1.0305477373	-1.9380969697	-3.2818590234	 0.150255
H	 3.3406614862	-2.703143652	-1.4067002311	 0.144761
H	 3.465932285	-2.4651660729	-3.1602631069	 0.140859
H	 3.0423151847	-1.0962736616	-2.1050644603	 0.147467
40.0338	86.0374	110.0261	126.4434	183.2064	222.4429	239.8913	257.4778	287.9184	361.4738	418.0189	467.5351	548.7525	661.1761	726.9362	808.3031	826.1035	874.2688	878.4585	929.1078	1031.533	1041.2614	1085.0565	1120.5354	1129.9885	1137.5473	1183.3002	1274.2007	1291.2882	1313.9992	1361.8946	1399.026	1411.3939	1432.37	1485.9639	1494.3213	1496.5727	1501.5073	1520.4852	1734.4806	2362.6971	3046.3584	3046.8529	3053.7245	3060.3117	3090.593	3121.7283	3125.3928	3136.939	3154.6649	3513.3734
CCOC(=N)C(C)C#N	CCO[C]([NH])[C@@H](C)C#N	
InChI=1S/C6H10N2O/c1-3-9-6(8)5(2)4-7/h5,8H,3H2,1-2H3	InChI=1S/C6H10N2O/c1-3-9-6(8)5(2)4-7/h5,8H,3H2,1-2H3/t5-/m0/s1
