20
gdb 61468	3.97732	0.83132	0.74338	6.4493	75.68	-0.2452	0.0321	0.2773	1530.4397	0.17176	-440.308122	-440.299016	-440.298072	-440.342558	34.23	
N	-0.4672687839	 0.8567857492	-0.1102143347	-0.530168
H	-0.1818469008	-0.7281498022	 0.6558013227	 0.313168
H	 0.38976434	 1.2521808561	-0.4870169294	 0.243814
H	-1.198576963	 0.9904165677	-0.7999976077	 0.250266
C	-0.81746811	 1.4841197109	 1.1789668861	-0.036056
C	 0.1608768202	 0.9729210391	 2.2546380956	-0.32244
C	 0.1305705735	-0.5377167948	 2.5214550486	 0.391297
O	-0.0507818618	-1.3140752911	 1.44413003	-0.372788
O	 0.282609614	-0.9990332075	 3.6221646703	-0.332466
C	-0.874440908	 3.0090999981	 1.1837954452	 0.040293
C	 0.1239907558	 3.8661381225	 0.4476617553	-0.268893
C	-1.3146633261	 3.816609388	-0.0083048735	-0.288409
H	-1.8208743696	 1.112880867	 1.4254063912	 0.106851
H	 1.1847446711	 1.2432584722	 1.9606107674	 0.124156
H	-0.0295327786	 1.4655675036	 3.2098539832	 0.133583
H	-1.191228045	 3.3997455892	 2.1475234814	 0.097688
H	 0.4887383726	 4.763001413	 0.9349442429	 0.123648
H	 0.8647339098	 3.3862316756	-0.1851407367	 0.103723
H	-1.5213981208	 3.2964518719	-0.9381024303	 0.100005
H	-1.9469906993	 4.6806516216	 0.1608067424	 0.122727
66.1992	91.5923	109.6294	170.7591	249.4468	315.0113	342.275	372.4521	420.6745	495.5514	562.003	612.5736	674.8117	773.8999	799.2266	830.8906	873.2469	885.1688	919.6149	933.3887	967.244	992.7329	1025.1561	1049.708	1065.4212	1082.0943	1138.5842	1146.2404	1159.1183	1196.0997	1233.2083	1271.133	1279.526	1305.5253	1362.055	1391.593	1422.2038	1461.7608	1468.9957	1494.1335	1510.1339	1648.2051	1858.2469	3018.761	3033.7684	3119.3395	3129.6022	3134.5356	3141.4329	3207.3919	3222.0915	3276.1478	3496.5588	3586.7758
[NH3+]C(CC([O-])=O)C1CC1	N[C@@H](CC(=O)O)C1CC1	
InChI=1S/C6H11NO2/c7-5(3-6(8)9)4-1-2-4/h4-5H,1-3,7H2,(H,8,9)	InChI=1S/C6H11NO2/c7-5(3-6(8)9)4-1-2-4/h4-5H,1-3,7H2,(H,8,9)/t5-/m0/s1
