19
gdb 121601	4.54693	0.66403	0.58781	1.123	73.95	-0.2423	-0.084	0.1583	1877.6825	0.154407	-460.184817	-460.173843	-460.172899	-460.222932	36.375	
C	-0.0948660687	 1.3684103593	 0.0828069165	-0.228992
O	-0.0013916238	-0.0355412428	 0.0414807785	-0.234026
C	 0.7091450492	-0.5023203312	-1.0831447909	-0.058259
C	 0.7389540903	-2.0210140672	-1.0123831834	-0.311561
C	 1.4770756993	-2.6481508829	-2.1685766572	 0.264985
O	 1.9952902148	-2.0201743585	-3.0647533812	-0.286991
C	 1.5557228195	-4.1964702538	-2.174677513	 0.309226
C	 2.2950149544	-4.8166296734	-3.3337197962	-0.474113
O	 1.0387578108	-4.8237851824	-1.280262017	-0.271623
H	 0.897996068	 1.8431394658	 0.1315419108	 0.105269
H	-0.6220112455	 1.7692721607	-0.7975030346	 0.105269
H	-0.6570952015	 1.6323313675	 0.98170899	 0.128122
H	 0.2287724759	-0.1717628906	-2.0180384271	 0.099118
H	 1.7345495282	-0.0993161722	-1.0967647251	 0.09913
H	 1.1992064036	-2.3591504297	-0.075928286	 0.149488
H	-0.278176661	-2.430357245	-0.9805723702	 0.149469
H	 3.3229567542	-4.4417356354	-3.3664192949	 0.156626
H	 2.2877492891	-5.9022517644	-3.2361438136	 0.142246
H	 1.8325923233	-4.5137498136	-4.2785512352	 0.156618
40.4417	48.3184	81.0021	98.6181	99.7791	123.4128	224.3627	236.1083	289.7418	329.3492	356.043	455.2347	540.6893	585.6625	605.2313	789.1441	790.328	916.6877	984.5069	996.3525	1049.3535	1084.2946	1094.3084	1166.5879	1178.6267	1215.1707	1223.0044	1246.3466	1291.5241	1345.7066	1384.6172	1425.5636	1443.1132	1452.0181	1459.5185	1483.676	1485.8106	1504.7943	1526.7447	1795.5368	1809.5789	2965.3219	2977.4911	2998.95	3014.5321	3048.0903	3049.8247	3076.7298	3110.9397	3115.6836	3162.532
COCCC(=O)C(C)=O	COCCC(=O)C(=O)C	
InChI=1S/C6H10O3/c1-5(7)6(8)3-4-9-2/h3-4H2,1-2H3	InChI=1S/C6H10O3/c1-5(7)6(8)3-4-9-2/h3-4H2,1-2H3
