14
gdb 56948	3.98947	1.05298	0.90838	4.3682	68.88	-0.286	-0.0132	0.2727	1220.0866	0.098187	-436.621165	-436.612331	-436.611387	-436.655166	31.581	
O	-0.3670074633	 1.2900180354	-0.0661895523	-0.395641
C	-0.0745198501	-0.0871886926	-0.0997372105	-0.091879
C	 0.8029909528	-0.4568108941	-1.2194143902	 0.295857
C	 1.5408178991	-0.7522226444	-2.1202478788	-0.430824
C	 0.5590365421	-0.5604177483	 1.2110013451	 0.04335
O	 1.4111740498	 0.3833050616	 1.8516747647	-0.234955
C	 0.2083313047	-0.0034467715	 2.5327559696	-0.103017
C	-0.8055815795	 1.0040762648	 2.7567792107	 0.311664
N	-1.6224695259	 1.7680747724	 3.0468728023	-0.322368
H	 0.447666296	 1.7482598598	 0.1791771601	 0.300127
H	-1.0388907797	-0.5974031627	-0.2171105265	 0.142195
H	 2.1823910612	-1.0083859234	-2.9275678141	 0.209878
H	 0.9384579533	-1.5820065595	 1.1933556024	 0.127426
H	 0.3753027597	-0.6355265274	 3.4038566675	 0.148185
50.2841	107.2847	155.7048	197.7711	248.2057	253.0846	317.879	404.7494	428.1885	548.2234	563.8104	603.465	646.0582	682.3278	708.7877	800.8844	854.5816	914.1786	987.1362	1002.934	1077.9162	1125.2319	1147.2931	1256.0467	1293.1345	1308.3691	1376.8605	1420.8857	1447.876	2236.7193	2363.8211	3041.1812	3119.2497	3131.1791	3500.0951	3777.6591
OC(C#C)C1OC1C#N	O[C@@H](C#C)[C@H]1O[C@H]1C#N	
InChI=1S/C6H5NO2/c1-2-4(8)6-5(3-7)9-6/h1,4-6,8H	InChI=1S/C6H5NO2/c1-2-4(8)6-5(3-7)9-6/h1,4-6,8H/t4-,5-,6+/m0/s1
