24
gdb 113817	3.76163	0.84266	0.7547	1.2281	91.77	-0.2212	0.0887	0.3099	1641.5428	0.216173	-368.374408	-368.364194	-368.36325	-368.410212	38.061	
C	 0.0957465911	 1.4700628411	-0.4267964482	-0.371036
C	-0.0108914708	 0.1055420547	 0.2634158121	-0.190657
C	-1.4192726562	-0.4515474602	 0.2421289062	-0.007398
C	-1.9449506452	-1.176541296	-0.9772167861	-0.313016
C	-1.6955800932	-1.9368568041	 0.3012851493	 0.036076
N	-0.5726550709	-2.8313043782	 0.3247359451	-0.080334
C	-0.3739226691	-3.6604599071	 1.5091506115	-0.255692
C	-0.778873694	-4.2784610366	 0.2123818091	 0.03134
C	-2.1431371071	-4.9070323977	 0.0314578645	-0.410562
H	 1.1203264207	 1.8540381293	-0.3898990161	 0.106695
H	-0.2015010548	 1.4034350237	-1.4787680236	 0.114734
H	-0.5541680293	 2.2112690909	 0.0522749592	 0.107963
H	 0.6623687533	-0.6139928761	-0.2116139278	 0.112491
H	 0.3259501424	 0.1963154986	 1.3047710571	 0.08932
H	-2.1488093334	 0.1626513455	 0.7665527315	 0.076046
H	-2.9679184919	-1.0136528448	-1.298391288	 0.104394
H	-1.239131265	-1.3562008115	-1.7816458531	 0.115311
H	-2.5764387186	-2.2307939323	 0.874869117	 0.069034
H	 0.6457561407	-3.7360138783	 1.8790279122	 0.11011
H	-1.1345332464	-3.6180282262	 2.2890373021	 0.103162
H	 0.0029216068	-4.7597049984	-0.374755761	 0.08696
H	-2.8930529347	-4.4757911206	 0.6989167102	 0.11927
H	-2.4984235018	-4.7901472736	-0.9981455494	 0.125688
H	-2.0885209228	-5.9800271721	 0.2441203463	 0.120102
37.7416	84.7324	109.2987	159.51	205.6396	210.6153	239.6599	285.9226	357.5382	401.1345	438.0396	488.3529	601.4895	730.4641	762.5896	793.3582	797.8819	850.9991	884.7346	907.3071	952.6802	964.9199	999.6325	1028.1088	1042.1497	1060.1564	1075.0585	1102.572	1113.2949	1121.3139	1142.0375	1150.3246	1187.7164	1196.0124	1203.6721	1234.4225	1286.0596	1332.0288	1343.255	1396.4546	1403.8863	1408.8505	1419.8264	1423.553	1481.9866	1491.1395	1493.5716	1498.4263	1498.7785	1508.6676	1511.1034	3019.7097	3028.24	3035.9548	3068.6533	3077.618	3081.5431	3094.8542	3098.8088	3099.2731	3101.4929	3123.626	3125.2701	3130.4605	3167.4943	3217.3429
CCC1CC1N1CC1C	CC[C@H]1C[C@H]1N1C[C@H]1C	
InChI=1S/C8H15N/c1-3-7-4-8(7)9-5-6(9)2/h6-8H,3-5H2,1-2H3	InChI=1S/C8H15N/c1-3-7-4-8(7)9-5-6(9)2/h6-8H,3-5H2,1-2H3/t6-,7+,8-,9?/m1/s1
