20
gdb 55692	2.9752	1.13705	1.0266	6.2311	74.94	-0.2461	0.0266	0.2728	1242.612	0.171218	-440.311588	-440.302589	-440.301645	-440.34591	33.601	
C	-0.6161946372	 1.6700453943	-0.8474628688	-0.459157
C	-0.1022851653	 0.3388143306	-0.3177413882	 0.335222
C	-1.2475388809	-0.660605983	-0.0688966594	-0.366885
C	-2.1873361819	-0.280108022	 1.0802885997	 0.393114
O	-1.563005757	 0.0544349568	 2.2196873164	-0.375522
O	-3.3865421817	-0.3051361016	 0.9903144906	-0.333089
C	 1.1062227625	-0.2879269915	-1.0758857273	-0.301189
C	 1.8755082404	-0.2617858721	 0.2657229974	-0.161236
N	 0.7468974595	 0.4598266527	 0.9339045985	-0.371837
H	 0.9843449375	 1.4298276638	 1.1192997153	 0.231985
H	-0.5859981773	 0.0841039001	 2.0418515014	 0.304957
H	 0.2081879679	 2.3719866485	-1.012196476	 0.111892
H	-1.1354268102	 1.5294998581	-1.8008650053	 0.13474
H	-1.324063819	 2.1261316413	-0.146869226	 0.1461
H	-1.8523355053	-0.7830423273	-0.9699010082	 0.128153
H	-0.8173835054	-1.640021823	 0.1763623135	 0.120565
H	 0.9338943439	-1.2696429114	-1.5216720084	 0.113035
H	 1.5277111526	 0.3740662003	-1.8359668049	 0.109709
H	 2.0493694716	-1.2420561965	 0.7182807739	 0.123513
H	 2.8196770052	 0.2882856119	 0.2669141061	 0.11593
49.9605	98.6654	111.0124	215.9943	237.6102	302.96	341.6705	383.8108	399.5351	475.0837	589.9244	646.6479	734.5498	768.4727	816.8672	874.5522	883.2197	900.9157	933.1293	947.6231	973.8997	986.4997	997.8253	1014.4731	1100.2048	1143.2679	1189.4708	1210.561	1246.0566	1257.7605	1272.8877	1291.0727	1316.7389	1341.0203	1394.9059	1413.2407	1467.5092	1486.8677	1491.2732	1493.6067	1498.7045	1517.6461	1859.7613	3029.1427	3034.6629	3055.9415	3068.6633	3099.5813	3100.3787	3106.4776	3116.7362	3125.3047	3227.87	3513.8358
CC1(CC([O-])=O)CC[NH2+]1	C[C@@]1(CC(=O)O)CCN1	
InChI=1S/C6H11NO2/c1-6(2-3-7-6)4-5(8)9/h7H,2-4H2,1H3,(H,8,9)	InChI=1S/C6H11NO2/c1-6(2-3-7-6)4-5(8)9/h7H,2-4H2,1H3,(H,8,9)/t6-/m0/s1
