18
gdb 82789	3.06662	1.87761	1.76118	2.4647	73.14	-0.231	0.0673	0.2983	860.4656	0.150889	-401.888772	-401.882439	-401.881494	-401.919112	27.043	
O	 0.0391957703	 1.4604095618	-0.0805804143	-0.428859
C	 0.0127997919	 0.0559159541	 0.0317415027	 0.136627
C	 0.2386025276	-0.6176526285	 1.425521521	-0.139262
C	-0.3817577755	 0.2679998402	 2.515238944	-0.146806
N	-1.8384215138	 0.0947211769	 2.4185509197	-0.100033
C	-2.3963555328	-0.0731757609	 1.0703434619	-0.050194
C	-2.1361842497	-1.2510683779	 1.967217552	-0.069946
C	-0.9189202507	-1.6332626851	 1.0786918805	-0.061223
C	-1.374757765	-0.5857711238	 0.0146651313	-0.078413
H	 0.9565852831	 1.749871364	-0.1126003533	 0.283289
H	 0.6474660889	-0.4150337549	-0.7326591695	 0.06453
H	 1.2371615495	-0.9915313687	 1.6587463319	 0.062091
H	-0.0747717035	-0.0479844385	 3.5178373553	 0.096404
H	-0.122158662	 1.3209859017	 2.3813327311	 0.111751
H	-3.3126079377	 0.460227532	 0.8451731563	 0.093813
H	-2.7931539335	-1.8977331886	 2.5370667472	 0.089002
H	-0.685385348	-2.6651165957	 0.8324535125	 0.068748
H	-1.8412899591	-0.8717014681	-0.9289353902	 0.068481
166.8685	275.6629	293.4132	397.9723	540.9709	562.0374	630.1012	652.6221	729.3717	767.9372	793.8599	837.6166	849.7645	860.7732	882.6382	917.0332	945.8187	987.2087	1008.5658	1022.069	1030.7552	1044.0379	1071.4291	1097.768	1140.6573	1164.964	1184.9486	1188.6431	1211.369	1238.0578	1252.8558	1258.138	1277.8004	1313.5503	1325.2772	1347.9712	1369.5137	1431.0441	1492.2019	2993.7374	3047.2069	3091.1584	3100.916	3107.8689	3156.1644	3171.5746	3183.958	3816.8212
OC1C2CN3C4C3C2C14	O[C@H]1[C@H]2CN3[C@@H]4[C@H]3[C@H]2[C@H]14	
InChI=1S/C7H9NO/c9-7-2-1-8-5-3(2)4(7)6(5)8/h2-7,9H,1H2	InChI=1S/C7H9NO/c9-7-2-1-8-5-3(2)4(7)6(5)8/h2-7,9H,1H2/t2-,3+,4-,5+,6-,7-,8?/m0/s1
