20
gdb 83382	2.69657	1.72989	1.55243	0.6705	77.63	-0.2172	0.0585	0.2757	975.2903	0.173213	-403.048144	-403.040926	-403.039982	-403.079217	30.282	
C	-0.0801101422	 1.6388171964	 0.0149592953	-0.455079
C	 0.0676658411	 0.1299524088	 0.0323565143	 0.030741
N	 1.0377780588	-0.5380200785	-0.9284475042	-0.17506
C	 2.3318600805	 0.0666091318	-0.3860758388	-0.163315
C	 2.1922531862	 0.0310434577	 1.2086946999	-0.342208
C	 0.8547411656	-0.6793270994	 1.1342449239	 0.438598
O	 0.0680352394	-1.5191318038	 1.9876840803	-0.362727
C	-0.1494382542	-2.398669595	 0.8241759629	-0.167936
C	 1.0272983845	-1.7112869307	 0.0508626577	-0.027584
H	 0.8307823914	 2.1784333919	 0.2832670259	 0.119231
H	-0.3866033362	 1.9725104617	-0.9823047414	 0.131106
H	-0.8615627101	 1.9377797155	 0.7211965353	 0.126775
H	-0.9160013311	-0.3117667475	-0.1290835169	 0.082831
H	 3.1760972649	-0.533175394	-0.7311260169	 0.111859
H	 2.4433402447	 1.0767253061	-0.7804716137	 0.113909
H	 2.9699709554	-0.5722603669	 1.6813674046	 0.109781
H	 2.1871443228	 1.0258674572	 1.65994224	 0.106153
H	 0.0655218036	-3.4370099546	 1.0881757903	 0.11867
H	-1.1667631071	-2.3207380319	 0.4324573803	 0.121988
H	 1.916904632	-2.3394504446	-0.0139561888	 0.082267
171.1029	252.4478	267.4192	314.5822	350.538	386.8863	449.6173	530.5293	581.951	692.8357	736.162	762.1072	783.1868	833.0361	840.3841	861.0956	899.2854	924.2371	940.7696	1000.708	1035.3314	1043.6557	1072.1418	1116.2775	1129.2411	1135.9031	1146.5758	1174.0918	1206.4209	1214.4236	1239.2338	1249.5336	1277.5377	1319.4276	1337.4853	1358.3218	1405.7685	1428.9156	1485.5797	1492.9024	1510.1702	1511.0689	1521.1945	3039.7166	3056.2591	3069.2411	3083.8257	3091.409	3099.6404	3101.7822	3115.6612	3117.1413	3125.5158	3141.4157
CC1N2CCC11OCC21	C[C@H]1N2CC[C@]31OC[C@@H]23	
InChI=1S/C7H11NO/c1-5-7-2-3-8(5)6(7)4-9-7/h5-6H,2-4H2,1H3	InChI=1S/C7H11NO/c1-5-7-2-3-8(5)6(7)4-9-7/h5-6H,2-4H2,1H3/t5-,6-,7-/m1/s1
