18
gdb 15912	2.53283	2.04522	1.29224	1.7332	63.77	-0.247	0.0563	0.3034	968.0052	0.15282	-422.046207	-422.037693	-422.036748	-422.07913	31.59	
C	 0.1181644043	 1.2497518769	 0.178217452	-0.25074
O	-0.0203521003	-0.1401753098	-0.0732754308	-0.278478
C	 0.6353061704	-0.5813087559	-1.2519847374	 0.028952
C	 2.0042203467	-1.247396206	-0.8977585859	 0.142508
O	 2.6747151343	-0.7603283977	 0.2344752656	-0.434453
C	 1.2787180861	-2.6211087791	-0.8139087241	-0.315363
C	 0.0851053532	-1.9958115424	-1.5961027861	 0.145392
O	-1.2272215839	-2.2715456726	-1.2006674235	-0.438665
H	 1.1704943945	 1.5307731519	 0.3052454823	 0.13105
H	-0.3127461544	 1.8429235283	-0.6404877463	 0.119465
H	-0.4287231824	 1.4645783028	 1.0995947825	 0.130535
H	 0.6045576496	 0.1969864688	-2.0237147859	 0.062902
H	 2.7112759802	-1.1960247637	-1.729813874	 0.091516
H	 2.0173988341	-0.7280226904	 0.9401331674	 0.283608
H	 1.7756853621	-3.4949463052	-1.239452156	 0.103596
H	 0.9852306376	-2.8439896242	 0.2168197594	 0.101942
H	 0.1598012458	-2.196695501	-2.6689812161	 0.088124
H	-1.3919564977	-1.7106736406	-0.430932483	 0.288109
91.5649	103.725	177.6942	212.1053	245.8513	324.8699	390.2335	418.6851	431.0977	458.025	511.9252	634.3759	675.7709	779.7435	839.1548	891.3525	970.7141	1049.8208	1057.6265	1060.9882	1119.1292	1139.2536	1162.2219	1174.4457	1184.8593	1214.6564	1238.9867	1262.3247	1287.185	1314.6121	1348.0758	1370.797	1431.6927	1450.8624	1475.6975	1480.7596	1487.4011	1515.1464	3000.7859	3030.9891	3058.4061	3066.6652	3067.5349	3082.3817	3120.2196	3123.7354	3759.2457	3786.643
COC1C(O)CC1O	CO[C@H]1[C@@H](O)C[C@H]1O	
InChI=1S/C5H10O3/c1-8-5-3(6)2-4(5)7/h3-7H,2H2,1H3	InChI=1S/C5H10O3/c1-8-5-3(6)2-4(5)7/h3-7H,2H2,1H3/t3-,4+,5-
