19
gdb 22097	3.00022	0.91454	0.81689	6.4774	80.22	-0.2346	-0.077	0.1576	1469.2284	0.156814	-456.275403	-456.26541	-456.264466	-456.310828	35.044	
C	 0.6898879087	 1.6298316735	 0.0255817778	-0.329929
N	 0.1439498998	 0.2741428167	 0.0223667896	-0.075021
H	-1.6084121985	 0.3684677877	 1.2913951582	 0.257992
C	 0.370716728	-0.3885370627	-1.2567257107	-0.323126
C	 0.6246948859	-0.5129776084	 1.1581018439	-0.23693
C	-0.1085849808	-0.1617260821	 2.4369308748	 0.161586
C	 0.522365072	-0.3358535521	 3.7416774362	 0.089111
O	 0.0118290371	-0.1588892865	 4.825229655	-0.263881
N	-1.3536308634	 0.2681392375	 2.2938489437	 0.078571
O	-2.2004270827	 0.5858432644	 3.1471277293	-0.392833
H	 1.7821453019	 1.6415164484	-0.1384609579	 0.108222
H	 0.2176817998	 2.2192407549	-0.7652254195	 0.129946
H	 0.4842727673	 2.1145107068	 0.9833973199	 0.136407
H	 1.4423863352	-0.521619452	-1.4888110799	 0.105668
H	-0.1054721971	-1.373110862	-1.2577408004	 0.127964
H	-0.0755488888	 0.2074897729	-2.0580237847	 0.129462
H	 0.4704724619	-1.573044055	 0.9172001623	 0.125165
H	 1.7108631754	-0.395243368	 1.3253079281	 0.106597
H	 1.5857962682	-0.6604893542	 3.6524187843	 0.065029
54.9544	81.1378	135.8303	178.3495	208.0203	241.7591	251.5247	296.6429	334.215	362.2062	388.4756	409.7677	470.831	508.2634	745.6824	853.3859	936.5125	969.5522	1020.9159	1048.6129	1056.7868	1064.542	1122.0354	1173.2059	1195.4269	1212.2529	1299.9055	1313.4728	1382.49	1427.5258	1443.7811	1445.2562	1471.1268	1482.6294	1490.6445	1494.1269	1501.3714	1509.9973	1513.9485	1639.6723	1786.0459	2849.5513	2939.081	2949.6143	2957.1837	3023.4756	3071.688	3078.5369	3115.2282	3122.9317	3203.4145
C[NH+](C)CC(C=O)=N[O-]	CN(C)C[C](C=O)N[O]	
InChI=1S/C5H10N2O2/c1-7(2)3-5(4-8)6-9/h4,9H,3H2,1-2H3	InChI=1S/C5H10N2O2/c1-7(2)3-5(4-8)6-9/h4,6H,3H2,1-2H3
