17
gdb 52275	3.40109	1.00179	0.80652	4.0043	71.88	-0.2601	0.0109	0.271	1367.9343	0.135848	-455.130255	-455.121387	-455.120443	-455.165511	30.905	
N	-0.3635211667	 1.1467041602	 0.1053689841	-0.442169
C	-0.5653973656	-0.0616281317	 0.4031609413	 0.124208
O	-0.5275134888	-0.9954777961	-0.5804596465	-0.186075
C	-0.747147788	-2.3471237382	-0.2078917781	-0.111474
C	-2.2329728006	-2.6942999527	-0.0985036905	-0.14114
C	-2.6103323552	-4.1837516824	 0.0656903575	-0.107623
O	-3.270264879	-3.8840892264	 1.3347809646	-0.247512
C	-2.9064269548	-2.5573927496	 1.2580749097	 0.434907
N	-3.0663495109	-1.6193477687	 2.0744472061	-0.540106
H	-0.4241697233	 1.7196448224	 0.9447673999	 0.230965
H	-0.7878516376	-0.4704290274	 1.3940531626	 0.117101
H	-0.2972569757	-2.9418363467	-1.0085494128	 0.127744
H	-0.222943459	-2.5883855495	 0.7262124887	 0.117426
H	-2.7779285443	-2.1883117603	-0.8988097159	 0.133003
H	-3.3148630735	-4.594455872	-0.6600321055	 0.131777
H	-1.7748346664	-4.8733306143	 0.2179431722	 0.124809
H	-3.5590215305	-1.9289401866	 2.9137787227	 0.234159
35.5262	71.1093	109.1716	131.0931	192.3169	280.6382	330.3612	376.0532	459.1113	642.0448	658.123	750.0617	804.246	824.5413	866.5235	900.5355	965.7868	972.8773	1013.3442	1040.1819	1052.3812	1078.0077	1133.1728	1147.8191	1163.2664	1219.955	1237.2558	1263.1106	1296.3782	1347.8546	1380.1335	1408.5009	1434.9888	1496.9879	1515.9329	1744.6488	1820.3175	3021.1506	3059.9616	3080.197	3086.1736	3097.9435	3124.7271	3479.3403	3516.7364
N=COCC1COC1=N	[NH][CH]OC[C@H]1CO[C]1[NH]	
InChI=1S/C5H8N2O2/c6-3-8-1-4-2-9-5(4)7/h3-4,6-7H,1-2H2	InChI=1S/C5H8N2O2/c6-3-8-1-4-2-9-5(4)7/h3-4,6-7H,1-2H2/t4-/m0/s1
