18
gdb 44854	3.22219	1.66175	1.48684	3.8754	74.3	-0.2332	-0.0141	0.2191	935.7635	0.150802	-401.946091	-401.939598	-401.938654	-401.976737	27.443	
O	 0.0087312162	 0.0352731349	 0.0481821691	-0.321718
C	-0.0046332222	 1.2340901465	 0.0357186483	 0.457328
C	-1.2494267309	 2.155133536	 0.0533693938	-0.326526
C	-0.6009541261	 3.5611444651	-0.0148618398	-0.050489
C	 0.5905021434	 3.2781251537	-0.9601446901	-0.272563
C	 1.1996891242	 2.1985476143	-0.0393928248	-0.090829
N	 1.2306754262	 2.7640239699	 1.3431311305	-0.107353
C	 1.4849350554	 4.2150009957	 1.4268691823	-0.269876
C	 0.0883859485	 3.7258671343	 1.3401184283	-0.001765
H	-1.8742104896	 1.9371985966	-0.8194085312	 0.125727
H	-1.8530519403	 1.9789734765	 0.9482678938	 0.129469
H	-1.2729328945	 4.3690862989	-0.3058853068	 0.076582
H	 0.2702595966	 2.8678566958	-1.9221566092	 0.111207
H	 1.2360853531	 4.1329673639	-1.1593394309	 0.111361
H	 2.1412409921	 1.7286627335	-0.317293102	 0.087859
H	 1.8640184329	 4.51706157	 2.3985531226	 0.125032
H	 1.9398247578	 4.741107397	 0.594757286	 0.118316
H	-0.5395097929	 3.7254648773	 2.2275100802	 0.098235
126.1449	275.3158	343.4795	437.2261	481.2714	507.0863	536.4493	599.8971	685.4329	731.0886	761.9274	808.1671	814.5972	881.3346	906.5826	926.5818	946.0659	970.264	992.4147	1000.0712	1055.5603	1075.1717	1099.0202	1109.342	1142.0517	1152.6287	1166.0331	1197.9467	1234.5253	1247.1019	1271.2964	1290.7557	1295.8621	1312.8211	1377.8763	1454.2993	1489.1469	1532.6078	1871.1351	3053.7046	3072.6871	3102.5656	3109.248	3122.7609	3133.5542	3140.5332	3143.9322	3208.8834
O=C1CC2CC1N1CC21	O=C1C[C@@H]2C[C@H]1N1C[C@@H]21	
InChI=1S/C7H9NO/c9-7-2-4-1-5(7)8-3-6(4)8/h4-6H,1-3H2	InChI=1S/C7H9NO/c9-7-2-4-1-5(7)8-3-6(4)8/h4-6H,1-3H2/t4-,5+,6-,8?/m0/s1
