22
gdb 106965	3.38937	1.04989	0.98286	2.6559	82.43	-0.2413	0.0692	0.3106	1342.2362	0.192818	-404.320321	-404.310627	-404.309683	-404.354484	37.267	
C	 0.0438304265	 1.5237579815	-0.3607417101	-0.378684
C	 0.0200266292	 0.0660384117	 0.1181575179	-0.277845
C	-1.3754657685	-0.4779798346	 0.2308710269	 0.37349
C	-2.4115400292	-0.1084858691	 1.3081512588	-0.372417
C	-2.9507857522	-1.5869037046	 1.2386422456	 0.388222
C	-2.76481394	-2.3840674602	 2.5224537845	-0.448021
O	-4.2638451913	-1.7408199643	 0.7178946082	-0.474038
C	-1.9036203266	-1.8847990694	 0.1567352678	-0.132959
N	-2.0470015842	-0.9700859238	-0.9693845946	-0.368386
H	 1.0696247065	 1.8961870619	-0.4396227014	 0.110911
H	-0.4270708187	 1.6123731849	-1.3445991238	 0.129021
H	-0.496192256	 2.1795428949	 0.3310772819	 0.113243
H	 0.580226113	-0.5624110747	-0.5825531344	 0.109313
H	 0.5193200163	-0.0134343294	 1.0926383497	 0.091102
H	-1.9717412409	 0.1318309154	 2.2806224794	 0.099335
H	-3.1278812543	 0.6730144398	 1.0336027166	 0.089892
H	-3.419032858	-2.0046794762	 3.3168802577	 0.106709
H	-3.0102112435	-3.4366495474	 2.3497947825	 0.126813
H	-1.7331627586	-2.32236281	 2.8824044548	 0.121423
H	-4.8881857104	-1.4291777295	 1.3821340171	 0.27713
H	-1.3970400384	-2.8323565588	 0.0031686103	 0.082559
H	-3.0094741906	-0.6484607485	-1.0584024053	 0.233187
72.9764	100.5937	177.246	222.256	253.3656	254.2502	293.1345	327.492	346.4427	399.8062	440.8443	454.5712	567.2679	618.149	693.8137	781.2483	814.0397	848.5134	912.7289	919.069	944.8356	965.3197	972.8616	1009.9236	1036.7913	1068.5928	1113.5013	1118.703	1145.4487	1157.3802	1200.6128	1227.6122	1239.1446	1261.7966	1280.0845	1326.8397	1347.6313	1371.7372	1405.8887	1408.021	1445.5355	1473.3668	1482.0136	1489.0106	1495.7244	1499.1604	1509.2767	3022.689	3024.671	3033.9372	3039.0172	3069.9604	3092.2292	3095.7262	3102.5862	3112.0736	3113.0582	3162.4887	3471.4068	3802.9224
CCC12CC(C)(O)C1N2	CC[C@]12C[C@@](C)(O)[C@H]1N2	
InChI=1S/C7H13NO/c1-3-7-4-6(2,9)5(7)8-7/h5,8-9H,3-4H2,1-2H3	InChI=1S/C7H13NO/c1-3-7-4-6(2,9)5(7)8-7/h5,8-9H,3-4H2,1-2H3/t5-,6-,7+/m1/s1
