20
gdb 88284	3.71398	0.9474	0.89574	3.7087	82.54	-0.2378	-0.019	0.2188	1402.6742	0.17043	-403.13107	-403.121856	-403.120912	-403.165969	33.985	
C	 0.2098355525	 1.5132466702	-0.6315753855	-0.403762
C	-0.0485292796	 0.1179363834	-0.1210991109	 0.012814
N	 1.1019795922	-0.7611789506	 0.0354909518	-0.311296
C	 0.3712217994	-0.3563527281	 1.2503252877	-0.158974
C	 1.0743424426	 0.5460440516	 2.2232443156	 0.413786
O	 2.0233849845	 1.237553585	 1.909820888	-0.34351
C	 0.5138939848	 0.5692700025	 3.607057832	-0.112269
C	 1.5054263827	 0.7533958594	 4.7499212702	-0.247341
C	 0.6085882534	 1.8801983451	 4.3748232706	-0.248171
H	 1.1381771797	 1.9056990516	-0.215305792	 0.166095
H	 0.2933694958	 1.4994595443	-1.7236253324	 0.118384
H	-0.6152913325	 2.1823503552	-0.3648107352	 0.111443
H	-0.9758966194	-0.3341935462	-0.4744099024	 0.087241
H	 0.8646764751	-1.7224355745	-0.1950590163	 0.235168
H	-0.288578185	-1.0889852289	 1.7105644435	 0.082972
H	-0.3498253041	-0.057954628	 3.7964161602	 0.084002
H	 1.3110658425	 0.205430366	 5.6646541456	 0.116913
H	 2.5456979003	 0.8233495778	 4.4536443285	 0.141047
H	 1.0488084374	 2.7056695805	 3.8274842926	 0.139222
H	-0.2209570424	 2.1324666139	 5.0252323982	 0.116237
42.0458	58.0586	165.738	181.4855	228.4392	259.1774	292.8174	349.0273	384.9104	442.0748	661.6267	728.6912	782.6635	792.8963	827.4673	828.6978	843.3331	885.6881	917.9877	948.8034	999.6854	1019.3666	1056.5116	1078.7409	1093.8076	1096.2038	1109.8309	1126.706	1150.5443	1190.545	1210.6933	1222.651	1241.6573	1259.6768	1387.945	1401.2626	1432.8016	1452.098	1460.7265	1483.2962	1494.749	1500.1357	1776.8961	3037.7193	3096.2941	3096.7976	3125.4433	3140.6645	3142.1903	3154.2938	3172.7569	3228.7938	3243.3473	3503.7443
CC1NC1C(=O)C1CC1	C[C@H]1N[C@H]1C(=O)C1CC1	
InChI=1S/C7H11NO/c1-4-6(8-4)7(9)5-2-3-5/h4-6,8H,2-3H2,1H3	InChI=1S/C7H11NO/c1-4-6(8-4)7(9)5-2-3-5/h4-6,8H,2-3H2,1H3/t4-,6-/m1/s1
