16
gdb 97087	3.27933	1.07628	0.87893	1.5218	69.36	-0.2559	-0.0487	0.2072	1297.893	0.122109	-475.028932	-475.01983	-475.018886	-475.064526	30.578	
C	 0.0810143384	 1.3603327138	-0.175355538	-0.3387
N	-0.0570593641	-0.0812612094	-0.3035980013	-0.311229
C	-1.1136954231	-0.6526345958	 0.0477361657	 0.398535
C	-1.4027506776	-2.134447941	-0.0414934866	-0.184694
O	-2.6573590409	-2.2971542912	 0.6110655398	-0.258782
C	-3.2442288302	-1.0266032864	 0.7745232621	 0.112956
O	-2.2295610726	-0.0532806697	 0.595407383	-0.244588
C	-4.3263199492	-0.814172953	-0.2903900226	 0.148943
O	-5.479438164	-0.6058452578	-0.0331603516	-0.219951
H	 0.8950933039	 1.5780683495	 0.5247947233	 0.13517
H	 0.3777822466	 1.773660736	-1.1450206668	 0.133282
H	-0.8249477589	 1.8715874498	 0.1677993846	 0.12793
H	-1.4463329945	-2.4663812618	-1.0861594257	 0.139578
H	-0.6444870216	-2.7236734682	 0.4808847366	 0.150868
H	-3.6781121964	-0.9360670891	 1.7754806035	 0.12252
H	-3.9447679357	-0.8850848359	-1.3340886758	 0.088161
55.7865	64.8619	72.1954	90.9374	217.1645	231.9361	320.6469	360.7541	432.3775	483.3032	579.059	681.5191	790.7426	848.8219	956.1713	1008.0386	1026.8859	1040.6919	1058.0266	1084.4638	1107.1014	1134.2682	1169.3844	1200.3627	1227.3565	1320.2297	1334.6849	1367.4964	1414.1899	1441.5081	1494.0998	1496.8218	1510.8863	1832.8954	1849.6789	2884.1802	3023.2772	3032.8104	3074.7721	3087.5336	3095.2372	3096.526
CN=C1COC(O1)C=O	CN=C1CO[C@@H](O1)C=O	
InChI=1S/C5H7NO3/c1-6-4-3-8-5(2-7)9-4/h2,5H,3H2,1H3	InChI=1S/C5H7NO3/c1-6-4-3-8-5(2-7)9-4/h2,5H,3H2,1H3/t5-/m0/s1
