19
gdb 64958	2.80193	1.3031	1.14667	3.1893	76.73	-0.24	0.0022	0.2421	1162.8226	0.158631	-419.176843	-419.1677	-419.166756	-419.211394	33.348	
C	-0.09569362	 1.5017687555	-0.1719580087	-0.471576
C	-0.0588360454	-0.0029038908	-0.0158217653	 0.225721
C	 0.7736070848	-0.8314677499	-0.913925044	-0.268264
N	 1.1729412084	-0.6556237261	 0.4980851108	-0.351283
C	-1.2973269286	-0.6653741347	 0.5642821388	 0.342815
O	-1.8331789085	-1.6302160597	 0.0679200553	-0.339542
N	-1.7930995327	-0.0304234059	 1.7023515231	-0.091624
C	-1.0853621226	-0.0003954369	 2.976377959	-0.233221
C	-2.3547447135	-0.7800738103	 2.801627787	-0.22134
H	 0.8429923113	 1.8616173659	-0.6068099291	 0.112438
H	-0.9122179346	 1.8075546768	-0.8343938597	 0.137352
H	-0.2459613919	 2.0008846581	 0.7896512343	 0.133878
H	 0.435455299	-1.8291588202	-1.1705734858	 0.142815
H	 1.3496982819	-0.3199503325	-1.6802648119	 0.110159
H	 1.9129873759	 0.0411363754	 0.5637030001	 0.227999
H	-0.1551162107	-0.5573123937	 3.0380434397	 0.152829
H	-1.0992638397	 0.9490900922	 3.5048684037	 0.122631
H	-3.2829395457	-0.393902057	 3.212312019	 0.125999
H	-2.2871276175	-1.8624125465	 2.7382067936	 0.142214
37.2384	92.1188	170.9881	177.776	207.8567	282.2445	303.8695	323.4786	357.6567	487.0053	540.3936	677.3539	776.161	805.9041	822.2468	852.4574	924.8067	938.6677	964.6556	979.1641	1002.4521	1047.9691	1053.487	1107.6048	1126.7473	1135.3938	1138.6955	1157.3125	1177.5725	1179.7206	1271.2527	1327.416	1366.1541	1403.422	1417.9092	1480.7834	1496.6336	1497.1696	1508.0241	1521.7239	1790.2265	3032.0237	3099.9155	3109.559	3112.2367	3119.0117	3120.1513	3200.7615	3213.6441	3217.5745	3476.2191
CC1(CN1)C(=O)N1CC1	C[C@]1(CN1)C(=O)N1CC1	
InChI=1S/C6H10N2O/c1-6(4-7-6)5(9)8-2-3-8/h7H,2-4H2,1H3	InChI=1S/C6H10N2O/c1-6(4-7-6)5(9)8-2-3-8/h7H,2-4H2,1H3/t6-/m0/s1
