16
gdb 61327	5.14561	0.6015	0.55412	4.174	84.35	-0.272	-0.0462	0.2258	1866.7357	0.121786	-400.753032	-400.743328	-400.742384	-400.788877	33.174	
C	-0.1111554377	 1.6709429838	-0.1937054036	-0.40766
C	 0.1253322137	 0.1722992592	 0.060771507	-0.082007
C	-1.1790451991	-0.640609786	 0.2079341092	-0.385521
C	-1.95324798	-0.261489748	 1.375603267	 0.03489
C	-2.5814103794	 0.0637240974	 2.355780295	 0.10718
C	-3.2947749905	 0.4281316774	 3.4610562266	 0.202534
N	-3.8998691301	 0.7411405629	 4.4022320253	-0.336577
C	 0.9890215026	-0.4122152109	-1.0424067954	 0.149655
O	 0.7016163842	-1.3768554189	-1.7025328033	-0.236074
H	 0.8378066296	 2.2045307384	-0.3032221764	 0.131386
H	-0.6953815238	 1.8259143087	-1.1068051763	 0.13503
H	-0.6560776817	 2.1189848116	 0.640505021	 0.148831
H	 0.7127927558	 0.076662979	 0.9862174856	 0.120819
H	-1.7895250362	-0.5148238573	-0.6948923521	 0.157896
H	-0.9369940125	-1.7083023241	 0.2541660403	 0.165565
H	 1.9432770952	 0.1370710667	-1.2094075898	 0.094054
41.0689	68.8845	111.9024	154.8332	191.9462	219.1504	232.5471	335.5254	366.7144	389.9421	480.8313	578.5957	582.7183	616.6079	774.3861	805.0369	873.5627	921.5461	933.6458	1078.0401	1102.4375	1155.9672	1175.6097	1244.7698	1282.5044	1316.0504	1365.7618	1405.5861	1422.5847	1450.8241	1497.3012	1502.1098	1829.3723	2265.2128	2400.771	2879.9296	3007.4235	3039.399	3041.8859	3076.5386	3111.0729	3127.3962
CC(CC#CC#N)C=O	C[C@@H](CC#CC#N)C=O	
InChI=1S/C7H7NO/c1-7(6-9)4-2-3-5-8/h6-7H,4H2,1H3	InChI=1S/C7H7NO/c1-7(6-9)4-2-3-5-8/h6-7H,4H2,1H3/t7-/m0/s1
