13
gdb 24742	3.70239	1.23348	0.92523	5.4679	76.98	-0.2512	-0.0887	0.1625	1151.8345	0.091224	-415.675486	-415.668099	-415.667155	-415.707876	26.797	
O	-0.0647932268	-0.0452603135	 0.0036185768	-0.344127
C	-0.0671262967	 1.1743751467	 0.0067708016	 0.213323
C	 1.2043849106	 1.9272864855	 0.0000919077	 0.234741
N	 2.2061344427	 2.5043480087	-0.0052210141	-0.328997
C	-1.2552555376	 1.9857567348	 0.016942819	 0.25247
C	-1.4654513983	 3.3635432317	 0.0219905834	-0.229651
C	-2.8553751574	 3.5737165178	 0.0317966488	-0.145067
C	-3.4616865453	 2.3233546735	 0.0327299609	-0.054428
N	-2.4915781683	 1.3791761692	 0.0238541329	-0.291678
H	-0.6878721085	 4.1117643895	 0.0186877822	 0.14019
H	-3.3691892923	 4.5219204166	 0.0376398842	 0.121008
H	-4.5058015529	 2.0520438242	 0.0390702281	 0.144933
H	-2.6043545093	 0.3777611053	 0.0221108884	 0.287283
94.9729	115.9647	167.5962	237.0558	325.6939	467.9929	486.4356	581.1157	626.9322	656.8627	668.4892	771.7405	779.3635	849.5514	890.0266	898.8585	933.5822	1039.5294	1077.0022	1124.1905	1145.7608	1282.6976	1342.5555	1433.8571	1458.1278	1491.7071	1583.9048	1720.4842	2342.4443	3252.9176	3262.2789	3275.4388	3657.5712
O=C(C#N)C1=CC=CN1	O=C(C#N)c1ccc[nH]1	
InChI=1S/C6H4N2O/c7-4-6(9)5-2-1-3-8-5/h1-3,8H	InChI=1S/C6H4N2O/c7-4-6(9)5-2-1-3-8-5/h1-3,8H
