15
gdb 23536	2.02364	1.79787	1.06745	2.2615	75.77	-0.236	0.0001	0.2361	1097.3678	0.110935	-416.66844	-416.660216	-416.659272	-416.701314	31.125	
O	-0.0653493721	 1.2807258896	 0.0273620328	-0.384597
N	 0.0627617827	-0.1109129147	-0.0918154419	-0.263032
C	-1.0525967781	-0.6895212009	 0.0391580985	 0.481124
C	-1.4299026989	-2.1203379844	-0.1155284682	-0.171613
N	-2.2472193481	-2.4594212317	 1.095855233	-0.31722
C	-2.8797145062	-1.7497366174	-0.0217533186	-0.053704
C	-2.53427289	-0.2447563812	 0.1467081512	-0.300679
C	-3.0136683617	 0.4521114429	 1.3223951174	 0.363033
C	-3.4355373233	 1.0306589209	 2.2870320094	-0.454242
H	 0.8436658197	 1.5797288982	-0.0832562499	 0.310171
H	-0.9291470662	-2.8880988793	-0.688961008	 0.115659
H	-2.4936223737	-3.4458701156	 1.0067050018	 0.237811
H	-3.7300043658	-2.1521617865	-0.556048781	 0.111633
H	-2.783238584	 0.3144853524	-0.7633787849	 0.129962
H	-3.7945521143	 1.5367355578	 3.1484996282	 0.195696
91.006	124.5454	161.1775	218.1778	315.6834	361.8238	423.7145	437.2198	504.9586	602.6241	622.2403	629.605	636.8483	701.1098	795.5307	823.3828	867.3738	885.5284	965.1237	988.1393	1009.8285	1058.9046	1083.9499	1104.449	1133.2011	1174.2385	1258.9218	1312.9929	1328.8252	1356.3877	1421.417	1793.7641	2242.5734	3043.5982	3205.503	3220.6542	3466.3884	3505.4998	3817.7443
ON=C1C2NC2C1C#C	ON=C1[C@H]2N[C@H]2[C@H]1C#C	
InChI=1S/C6H6N2O/c1-2-3-4-6(7-4)5(3)8-9/h1,3-4,6-7,9H	InChI=1S/C6H6N2O/c1-2-3-4-6(7-4)5(3)8-9/h1,3-4,6-7,9H/t3-,4+,6+/m1/s1
