23
gdb 113942	4.77685	0.74584	0.70922	2.8712	87.	-0.2308	0.0852	0.316	1698.6994	0.20599	-384.410755	-384.400917	-384.399973	-384.446526	36.125	
C	 0.0135683441	-2.8290897054	 0.0309844302	-0.383466
C	-0.1316419238	-1.7267667999	 1.0870118548	-0.201152
C	-1.2061417324	-0.7265833103	 0.7091490092	 0.032674
C	-2.6127373796	-0.8915028944	 1.1704094563	-0.2556
N	-1.791320744	 0.2135712383	 1.6662725817	-0.11274
C	-1.3572301079	 0.1937390033	 3.0608971193	-0.165951
C	-2.0046302695	 1.3203111348	 3.8513876563	 0.01219
C	-2.188528936	 2.6637925767	 3.2581362828	-0.227558
N	-3.3557078208	 1.7974140573	 3.5266865487	-0.322995
H	 0.8119352227	-3.5278159052	 0.2976110923	 0.116224
H	-0.9150510655	-3.3995234702	-0.0732131573	 0.121367
H	 0.2547452995	-2.4061784416	-0.9502668949	 0.119517
H	-0.3575735884	-2.1756052154	 2.0598843285	 0.101407
H	 0.8266342141	-1.2026189862	 1.2004598959	 0.10415
H	-1.0520455091	-0.2789382685	-0.2735265539	 0.088229
H	-3.4507720239	-0.6201647644	 0.5331979884	 0.114904
H	-2.8147477611	-1.7135755086	 1.8573287285	 0.110264
H	-1.5807380489	-0.7650651295	 3.5558328572	 0.092231
H	-0.267771684	 0.3233816575	 3.0974566919	 0.10903
H	-1.8140311438	 1.2545719997	 4.9214820317	 0.084161
H	-2.1200345963	 3.5504841647	 3.8821423755	 0.108157
H	-1.8856299428	 2.7921804295	 2.2234280367	 0.118659
H	-3.6338014027	 1.3790392578	 2.6408261602	 0.2363
35.8812	88.4836	102.7429	117.5888	192.4556	219.4105	276.9184	325.8385	364.5192	445.5639	487.3135	596.51	753.4882	772.2491	799.5135	832.5553	859.2157	901.6186	924.7101	953.8022	961.5493	996.3595	1006.7794	1046.7216	1063.634	1092.6501	1115.3562	1121.3081	1150.1578	1155.7253	1171.7963	1189.044	1209.5705	1269.0215	1282.7968	1299.1018	1306.3405	1332.1728	1348.5207	1383.4172	1410.2988	1420.8437	1430.7161	1483.485	1486.5879	1498.4064	1499.9544	1507.7455	1514.3624	2964.9079	3021.3602	3035.0905	3037.5063	3067.3508	3082.6585	3093.778	3106.2259	3109.923	3112.0491	3119.0339	3169.9011	3204.1321	3490.2335
CCC1CN1CC1CN1	CC[C@H]1CN1C[C@H]1CN1	
InChI=1S/C7H14N2/c1-2-7-5-9(7)4-6-3-8-6/h6-8H,2-5H2,1H3	InChI=1S/C7H14N2/c1-2-7-5-9(7)4-6-3-8-6/h6-8H,2-5H2,1H3/t6-,7+,9?/m1/s1
