27
gdb 123248	10.23618	0.35143	0.34558	0.9563	95.49	-0.2494	0.0887	0.3381	3233.7744	0.249992	-390.696184	-390.683954	-390.68301	-390.735225	42.216	
C	-0.0575092716	 1.5832714982	 0.0789969447	-0.379178
C	-0.0090616118	 0.0539191973	 0.0238534594	-0.162736
C	 0.6998412071	-0.4834545109	-1.2241417158	-0.159566
C	 0.7526139893	-2.0133173852	-1.2871040651	-0.177185
C	 1.4618782738	-2.5492705136	-2.5356136315	-0.183915
C	 1.5108110516	-4.0793029974	-2.5915970601	-0.196546
C	 2.2160697764	-4.6037645656	-3.8345646509	-0.049581
O	 2.2123290818	-6.0149264268	-3.7986488145	-0.230089
C	 2.8464933143	-6.5926531954	-4.9118216966	-0.22613
H	 0.9512263442	 2.0113734632	 0.0794780786	 0.112402
H	-0.5882451124	 1.9938648212	-0.787347211	 0.112402
H	-0.5689146	 1.9361896735	 0.9801198869	 0.10998
H	 0.496778803	-0.3296606634	 0.9199332649	 0.093459
H	-1.0307838828	-0.3470360677	 0.0597300843	 0.093459
H	 0.1942769756	-0.0994061985	-2.1215011022	 0.089794
H	 1.7225424493	-0.0821093164	-1.2608318771	 0.089794
H	 1.2584272506	-2.3972693562	-0.3902999257	 0.092706
H	-0.2697450569	-2.4145629221	-1.2510035387	 0.092705
H	 0.9555260508	-2.1650345652	-3.4321846693	 0.092651
H	 2.4842716949	-2.1476394032	-2.5711393007	 0.092655
H	 2.0257678172	-4.4727552214	-1.7066000787	 0.103579
H	 0.4940261465	-4.4901605834	-2.5681705751	 0.103576
H	 1.7079376184	-4.2428200544	-4.7467313382	 0.080419
H	 3.2529289205	-4.2248316018	-3.8776220959	 0.080413
H	 2.3523246756	-6.3145056161	-5.857093775	 0.100287
H	 3.9053981987	-6.2946535452	-4.9825474857	 0.100287
H	 2.7940206958	-7.6779856135	-4.7940591909	 0.124358
42.3449	63.3468	68.7738	96.941	120.8386	149.9272	164.469	165.1747	239.0343	243.49	243.9951	300.526	410.9421	462.6414	513.0521	734.2117	744.3981	780.5878	847.3071	897.872	935.73	973.4459	1004.5975	1024.5126	1043.5375	1055.6561	1071.3996	1077.3068	1137.7685	1166.3771	1175.9513	1205.3808	1221.5893	1229.3782	1256.8537	1271.788	1307.058	1308.5644	1319.6874	1334.9882	1339.8755	1360.3943	1396.8504	1403.075	1413.339	1428.335	1481.6357	1484.5055	1485.015	1485.4042	1490.6269	1497.8934	1499.2405	1504.2949	1509.7	1516.7184	1533.8256	2937.2742	2962.0743	2964.5395	3000.2703	3002.0514	3004.1506	3009.519	3017.6542	3021.3713	3028.3459	3028.4285	3031.4683	3044.152	3059.5981	3076.3622	3094.5057	3099.9323	3110.1284
CCCCCCCOC	CCCCCCCOC	
InChI=1S/C8H18O/c1-3-4-5-6-7-8-9-2/h3-8H2,1-2H3	InChI=1S/C8H18O/c1-3-4-5-6-7-8-9-2/h3-8H2,1-2H3
