20
gdb 89261	2.41129	1.88024	1.34962	2.8586	78.54	-0.2262	0.0745	0.3007	1032.728	0.170383	-403.078283	-403.070071	-403.069127	-403.110382	32.812	
C	-0.1892879633	 1.5424001858	-0.120781572	-0.417507
C	 0.0891086648	 0.0631556454	 0.0481079383	 0.147352
O	 1.1615552819	-0.4500897047	-0.8010471283	-0.347741
C	 1.7672176932	-1.1564836294	 0.3018432324	 0.481347
C	 1.9546087617	-2.630602251	 0.0553375198	-0.483137
C	 2.9316044225	-0.4175223644	 1.0295388705	-0.124011
N	 2.6526496004	 1.0301320634	 0.9921217395	-0.31976
C	 1.9546384483	 0.1862570058	 1.989584073	-0.063027
C	 0.7677561975	-0.5333427043	 1.3083843625	-0.169549
H	 0.7042118756	 2.1327768806	 0.0752673493	 0.151775
H	-0.5310189796	 1.7394251991	-1.1425108056	 0.118196
H	-0.9895652766	 1.8480556486	 0.5631877975	 0.103844
H	-0.8280769939	-0.5049679491	-0.169715516	 0.067774
H	 2.6592054931	-2.7863288835	-0.7697137101	 0.129736
H	 2.3562945806	-3.128319685	 0.9444361615	 0.116261
H	 1.0061606196	-3.1041617795	-0.2136286665	 0.124019
H	 3.9415276118	-0.7820514676	 1.1819723836	 0.086246
H	 3.4207308364	 1.4887394897	 1.4820639885	 0.230325
H	 2.0570325932	 0.3890299782	 3.0486727412	 0.092686
H	 0.1641855328	-1.1496002081	 1.9743259608	 0.075169
168.0352	201.2128	210.9187	218.7925	236.3201	283.0214	347.7949	425.0116	515.0335	553.3027	649.6592	696.3226	763.7565	793.4072	831.3287	865.2566	875.0053	892.914	931.346	943.1918	961.9854	1006.2224	1047.8199	1070.8473	1094.2965	1107.3018	1136.3453	1149.8898	1158.5494	1185.1128	1232.3002	1274.0138	1307.0253	1320.2466	1341.486	1371.0453	1394.8332	1404.8407	1411.2518	1478.128	1481.577	1488.0058	1509.142	2976.7764	3029.8628	3036.7906	3094.9422	3097.0978	3112.5768	3114.7052	3168.1163	3169.0165	3188.2288	3467.6905
CC1OC2(C)C3NC3C12	C[C@H]1O[C@@]2(C)[C@H]3N[C@H]3[C@@H]12	
InChI=1S/C7H11NO/c1-3-4-5-6(8-5)7(4,2)9-3/h3-6,8H,1-2H3	InChI=1S/C7H11NO/c1-3-4-5-6(8-5)7(4,2)9-3/h3-6,8H,1-2H3/t3-,4-,5+,6+,7-/m1/s1
