18
gdb 9948	3.15127	1.51566	1.36378	2.4532	71.14	-0.2439	-0.0276	0.2163	1003.5535	0.151111	-384.947107	-384.938006	-384.937061	-384.98058	32.813	
C	-0.0355299824	 1.534296133	 0.1647035119	-0.406845
C	 0.0200483432	 0.0357839767	-0.0340521012	-0.095042
C	 0.6663136017	-0.6183397094	-1.2261475781	-0.095
C	 1.3251476568	 0.1569377364	-2.3455089601	-0.406709
C	 1.3634374189	-0.6807082036	 0.1365026666	 0.336565
O	 2.5007748095	 0.0898957013	 0.3298549946	-0.471781
C	 1.3941250888	-1.9627715753	 0.8570341005	 0.09683
O	 2.3376897985	-2.2870776747	 1.5471712719	-0.29858
H	 0.9066685074	 2.0134964167	-0.1040077499	 0.143912
H	-0.8363393358	 1.9757035599	-0.4380245738	 0.119822
H	-0.2357724679	 1.7714669069	 1.2142261541	 0.124796
H	-0.8369383399	-0.498557025	 0.370476175	 0.089956
H	 0.2008520024	-1.5489465728	-1.5438272797	 0.08995
H	 1.912540734	 0.9943406767	-1.9669857044	 0.143798
H	 2.0039762103	-0.4910349266	-2.9086915391	 0.124843
H	 0.5744468502	 0.5438055312	-3.0427871991	 0.119798
H	 3.0555675319	-0.4418031437	 0.9235028417	 0.297285
H	 0.5051415424	-2.6147559276	 0.7326794191	 0.086401
85.5572	132.6517	144.1916	189.2074	196.4196	242.5713	306.1693	314.9388	413.3574	423.7338	512.3029	590.9932	603.7452	736.169	781.1434	858.4282	961.7579	987.4654	1036.1262	1044.8451	1046.9793	1054.6284	1133.7956	1135.9474	1185.6868	1230.9347	1336.706	1360.3515	1368.5955	1401.9316	1415.1975	1422.9514	1475.0152	1484.0842	1493.4337	1500.8539	1513.0261	1780.3335	2923.3804	3040.6711	3043.277	3099.0107	3100.3038	3116.4088	3126.9822	3141.3988	3150.2892	3685.898
CC1C(C)C1(O)C=O	C[C@H]1[C@@H](C)[C@]1(O)C=O	
InChI=1S/C6H10O2/c1-4-5(2)6(4,8)3-7/h3-5,8H,1-2H3	InChI=1S/C6H10O2/c1-4-5(2)6(4,8)3-7/h3-5,8H,1-2H3/t4-,5+,6-
