16
gdb 44863	3.37872	1.66537	1.51422	2.5993	66.09	-0.2445	0.0132	0.2578	888.7126	0.127824	-437.900155	-437.893959	-437.893015	-437.930516	25.968	
O	 0.004320035	-0.0000930167	 0.0873676591	-0.375424
C	 0.0064931936	 1.2027365507	-0.0093433254	 0.413387
N	-1.1019288811	 2.0373729098	-0.0771744807	-0.299196
C	-0.6475356598	 3.4361404736	 0.0326613655	-0.070618
C	 0.6249363646	 3.3488067113	-0.8355639318	-0.220903
C	 1.2128723297	 2.1772857815	-0.01931883	-0.189712
C	 1.157449042	 2.7534240246	 1.4143335154	 0.04934
O	 1.2460396082	 4.1825922211	 1.5179164373	-0.254837
C	-0.0521338755	 3.579788857	 1.4532313831	 0.044823
H	-1.9870455913	 1.7167893075	 0.2856974987	 0.25156
H	-1.4147702411	 4.148695215	-0.2669412078	 0.086214
H	 0.3895882695	 3.0744942674	-1.8643841023	 0.114974
H	 1.2348374127	 4.248349918	-0.8016854238	 0.132604
H	 2.1484253524	 1.7227317359	-0.3358399392	 0.092973
H	 1.5335035499	 2.1872174349	 2.2595438979	 0.118648
H	-0.6856721586	 3.6934661184	 2.327869954	 0.106167
153.6799	321.7401	382.1702	446.183	477.6215	494.7728	545.8424	612.4154	718.1495	763.8937	807.7657	830.696	864.858	877.8159	907.6862	936.5077	960.2897	974.4704	996.166	1017.6333	1037.114	1103.6903	1140.4361	1175.1039	1198.2563	1234.8462	1259.3501	1270.5928	1283.9699	1318.4193	1338.4595	1377.7914	1418.397	1486.5939	1847.5405	3101.8802	3127.7938	3153.8506	3161.9661	3172.6009	3182.4086	3626.6786
O=C1NC2CC1C1OC21	O=C1N[C@@H]2C[C@H]1[C@H]1O[C@@H]21	
InChI=1S/C6H7NO2/c8-6-2-1-3(7-6)5-4(2)9-5/h2-5H,1H2,(H,7,8)	InChI=1S/C6H7NO2/c8-6-2-1-3(7-6)5-4(2)9-5/h2-5H,1H2,(H,7,8)/t2-,3+,4+,5-/m0/s1
