20
gdb 119173	2.70246	1.09881	0.89644	2.0411	75.59	-0.243	0.0726	0.3156	1371.2309	0.169763	-440.217225	-440.207727	-440.206783	-440.252342	34.043	
C	-0.2098564403	 1.3569512256	 0.8621245433	-0.224625
O	-0.2417145385	-0.0501379718	 0.9331769931	-0.238465
C	 0.8843383316	-0.6566301186	 0.3387556372	-0.129418
C	 0.7968375607	-2.1483612035	 0.5917488729	 0.359321
C	 0.117659586	-2.9976631391	-0.3959778321	-0.213239
O	 1.5506209397	-2.9412513015	-0.3322001867	-0.286455
C	 0.9032467837	-2.5609528052	 2.0317527324	-0.054529
C	 1.3027295638	-3.9362917399	 2.4009002987	-0.249331
N	 2.24032856	-2.8145131053	 2.6059492622	-0.330648
H	-0.1969911117	 1.711631116	-0.1803481698	 0.106638
H	-1.1135677606	 1.7283116489	 1.3506877435	 0.130754
H	 0.6709916099	 1.7705234976	 1.3770929241	 0.110897
H	 0.9185015167	-0.4689714466	-0.7461067823	 0.09549
H	 1.8161122975	-0.2595117591	 0.7758732046	 0.0989
H	-0.3216847904	-3.9396358445	-0.0754396115	 0.119279
H	-0.3229230355	-2.5473273011	-1.2839281708	 0.119149
H	 0.2436890217	-2.0013526985	 2.6891017869	 0.10705
H	 0.9143189499	-4.3845555284	 3.310692703	 0.116837
H	 1.5167093555	-4.6308688038	 1.5941007401	 0.12359
H	 2.9180214002	-2.8329460813	 1.8449126414	 0.238805
59.462	89.1038	95.8744	154.8832	210.0979	237.1616	252.1212	345.7186	356.4492	416.6039	498.6034	608.0919	703.757	838.3773	859.3916	896.8254	924.9775	934.1763	976.2897	994.4067	1028.7055	1061.7323	1115.5507	1127.3871	1155.5239	1158.666	1167.2739	1182.9001	1196.8674	1221.4409	1234.2288	1254.5016	1280.1251	1305.64	1388.5811	1427.1594	1434.6038	1481.7968	1487.2354	1499.7321	1503.2966	1518.9738	1528.0838	2959.9271	2976.7429	3000.667	3021.9115	3091.3532	3115.6684	3118.9579	3153.509	3183.9454	3204.7798	3477.6712
COCC1(CO1)C1CN1	COC[C@]1(CO1)[C@H]1CN1	
InChI=1S/C6H11NO2/c1-8-3-6(4-9-6)5-2-7-5/h5,7H,2-4H2,1H3	InChI=1S/C6H11NO2/c1-8-3-6(4-9-6)5-2-7-5/h5,7H,2-4H2,1H3/t5-,6+/m1/s1
