15
gdb 52387	3.69102	0.86586	0.7425	2.3852	63.85	-0.2465	-0.1131	0.1334	1442.0437	0.107491	-494.899039	-494.889433	-494.888489	-494.93541	31.818	
O	 0.3848510441	 0.4070953776	-1.1567450083	-0.241593
C	 0.3598771627	 1.5564465579	-0.8067274068	 0.157039
C	 1.4834316882	 2.1996385702	 0.0015666334	-0.163955
O	 1.369419302	 3.6113314631	 0.0562597422	-0.228593
C	 2.2645876791	 4.3345717698	-0.7362242241	-0.18526
C	 2.0213351583	 4.2114641202	-2.2314730335	 0.271741
O	 1.2196031109	 3.4620074867	-2.7359492968	-0.262265
C	 2.8779399137	 5.1039712067	-3.1389234083	 0.087403
O	 3.6995505004	 5.8717850984	-2.7120876122	-0.212207
H	-0.4976972282	 2.2329276662	-1.0009085023	 0.095973
H	 1.4028585087	 1.8245559823	 1.0312881155	 0.141015
H	 2.4518674756	 1.86689786	-0.392389389	 0.12494
H	 2.1744628317	 5.3908223341	-0.4577772324	 0.158092
H	 3.3166077448	 4.0613924968	-0.5434134198	 0.136881
H	 2.6594849279	 4.96696493	-4.2183116677	 0.120787
33.2346	56.2609	92.147	134.2992	165.1454	189.3586	252.4248	345.995	386.0936	444.1124	515.5941	531.7725	637.4834	724.9434	812.008	883.8599	985.1458	1033.6369	1060.8915	1108.2818	1153.6039	1200.9992	1267.3453	1302.9218	1349.4271	1362.0003	1394.3378	1400.617	1439.1404	1463.7858	1812.2905	1820.4604	1839.2925	2928.8821	2934.0459	2971.5179	3012.5888	3063.1022	3073.9037
O=CCOCC(=O)C=O	O=CCOCC(=O)C=O	
InChI=1S/C5H6O4/c6-1-2-9-4-5(8)3-7/h1,3H,2,4H2	InChI=1S/C5H6O4/c6-1-2-9-4-5(8)3-7/h1,3H,2,4H2
