19
gdb 108653	1.97086	1.68345	0.98014	4.88	79.74	-0.2614	-0.0309	0.2304	1235.5978	0.15867	-423.097289	-423.088036	-423.087092	-423.131703	33.368	
C	-0.2541042901	 1.6141964502	-0.0720245524	-0.379717
C	 0.0323271991	 0.1055964917	 0.0383638263	-0.296287
C	 0.7823759568	-0.427105411	-1.1426187929	 0.057947
C	 2.0406131953	-0.8706434959	-1.2706203763	 0.172558
C	 3.1292221006	-0.9899119149	-0.2571625693	-0.499676
C	 2.2562355082	-1.2820507368	-2.7034757629	-0.166511
O	 1.0228851018	-1.03631529	-3.3695757673	-0.231276
C	 0.1197570066	-0.5285599068	-2.4692787463	 0.413791
O	-1.0045594278	-0.241632145	-2.7782252646	-0.357424
H	 0.6758983619	 2.1901159679	-0.1130863899	 0.112518
H	-0.830199914	 1.8250334716	-0.9760758265	 0.151532
H	-0.8304402178	 1.9594414847	 0.7913719376	 0.115123
H	 0.5839152457	-0.1061944891	 0.9602298783	 0.099941
H	-0.9231022859	-0.427957748	 0.1072741633	 0.126992
H	 3.485340156	-2.0247981244	-0.1830443041	 0.140032
H	 3.99611402	-0.3796597148	-0.5394656996	 0.140971
H	 2.7998496798	-0.6715133897	 0.7339559033	 0.14108
H	 3.051145424	-0.7022860387	-3.1913612639	 0.129173
H	 2.51153508	-2.3457932712	-2.7999009228	 0.129233
58.8723	119.9095	131.3089	179.2901	207.0571	238.3523	278.979	301.0998	377.238	517.3463	541.5573	577.9324	663.2179	751.8085	775.5742	801.4949	918.9656	951.4269	961.6834	998.2526	1067.7904	1082.5051	1088.1836	1102.6593	1146.6356	1198.8507	1205.4304	1290.7652	1339.0029	1354.9775	1378.045	1405.1975	1416.9435	1473.9197	1479.8937	1486.7143	1496.5852	1497.3487	1511.7357	1734.2159	1855.8065	3014.6374	3026.1417	3036.132	3041.8741	3046.2473	3072.7108	3075.83	3110.2226	3127.2035	3132.3792
CCC1=C(C)COC1=O	CCC1=C(C)COC1=O	
InChI=1S/C7H10O2/c1-3-6-5(2)4-9-7(6)8/h3-4H2,1-2H3	InChI=1S/C7H10O2/c1-3-6-5(2)4-9-7(6)8/h3-4H2,1-2H3
