21
gdb 72697	2.53167	1.97614	1.61208	1.4496	81.85	-0.2347	0.0837	0.3184	953.6758	0.184093	-387.032876	-387.025602	-387.024658	-387.063793	31.458	
C	-0.1344002531	 1.4848960163	 0.0686382283	-0.445255
C	 0.0321790976	-0.0300343023	 0.117127318	 0.445181
C	 1.2359478658	-0.4648088313	-0.8028845281	-0.314427
C	 2.1174165748	-0.4512109087	 0.5114080248	-0.358157
C	 0.793141567	-0.6739397643	 1.2737999826	 0.277261
C	-0.1700295577	-0.3927906398	 2.4637387206	-0.359765
C	-1.0865500031	-1.301900204	 1.545147934	 0.098527
C	 0.1783429692	-2.1162629477	 1.256906172	-0.25408
O	-1.2784629389	-0.6182925435	 0.2775661374	-0.349313
H	 0.8276911138	 2.0065475694	 0.0844895841	 0.111823
H	-0.6404024092	 1.7497800789	-0.8663503464	 0.125214
H	-0.7503472551	 1.8550658131	 0.8908656885	 0.118116
H	 1.140291027	-1.464080243	-1.2260691993	 0.115284
H	 1.5131701375	 0.2354909694	-1.5938652849	 0.09639
H	 2.8800310885	-1.2251432167	 0.6164683985	 0.10384
H	 2.5775296684	 0.5255675367	 0.678779231	 0.111176
H	 0.0652759476	-0.9032595554	 3.3996439641	 0.101156
H	-0.4687508866	 0.6384601387	 2.6556160869	 0.101953
H	-2.0337746804	-1.7187633502	 1.8832897938	 0.08087
H	 0.1803735502	-2.6992566363	 0.3350271613	 0.099742
H	 0.539997807	-2.7118453592	 2.0983370928	 0.094466
189.733	255.5342	275.267	312.8981	382.5202	430.4174	492.2917	523.3085	548.342	595.4216	681.9478	739.4813	800.002	834.5877	847.4701	868.9417	883.1601	900.0852	924.598	943.2211	950.9941	980.6804	990.5934	1029.2029	1089.2966	1106.1514	1136.232	1163.355	1168.3394	1176.3336	1187.8747	1217.5583	1229.0426	1232.7913	1244.7856	1275.5604	1285.92	1313.9007	1404.6207	1468.3697	1483.257	1487.4323	1491.022	1500.371	1521.0721	3037.7529	3068.3936	3069.0484	3077.0895	3081.0136	3100.3466	3120.4676	3124.3659	3134.4613	3139.7571	3140.6447	3150.3701
CC12CCC11CC(C1)O2	C[C@@]12CC[C@]31C[C@H](C3)O2	
InChI=1S/C8H12O/c1-7-2-3-8(7)4-6(5-8)9-7/h6H,2-5H2,1H3	InChI=1S/C8H12O/c1-7-2-3-8(7)4-6(5-8)9-7/h6H,2-5H2,1H3/t6-,7-,8+/m1/s1
