18
gdb 23289	3.98152	1.08575	1.03545	0.7234	75.89	-0.2337	0.0179	0.2516	1189.2528	0.148385	-439.027378	-439.019508	-439.018564	-439.059482	31.417	
O	-0.1908515039	 1.2898389642	-0.0134586067	-0.397638
N	-0.0012373037	-0.1105799144	-0.0016168961	-0.291807
C	-1.1173764776	-0.7133340811	 0.0220358303	 0.466289
C	-2.5479666177	-0.1833864428	 0.0229224238	-0.316421
C	-3.2648088439	-1.5506274724	 0.0159343915	-0.050205
C	-2.4538708498	-2.3522747247	 1.0785610223	-0.236735
C	-1.3009278401	-2.2019268812	 0.0262469882	-0.154729
C	-2.4474883516	-2.3220922603	-1.0551884945	 0.14847
O	-2.9588070386	-3.6171086515	-1.2548416424	-0.445178
H	 0.7157656634	 1.613831338	-0.0228489365	 0.304083
H	-2.7646328472	 0.4164018405	 0.912097139	 0.126223
H	-2.7528592291	 0.4354987398	-0.8565995311	 0.123755
H	-4.3537338602	-1.5552818485	-0.0081448559	 0.07468
H	-2.303940166	-1.8994910338	 2.0617185636	 0.097855
H	-2.7897633304	-3.3835643554	 1.1669970588	 0.121762
H	-0.4106291682	-2.8282809896	 0.0132598263	 0.072888
H	-2.2685670305	-1.8103556708	-2.0111295366	 0.069597
H	-2.314184095	-4.1186567358	-1.763965714	 0.287114
101.207	201.2728	269.4254	301.2639	314.4044	339.4993	393.4807	436.421	446.2293	568.4028	580.8643	661.5646	796.7571	833.6375	841.7213	883.4141	906.1202	941.2524	962.5327	981.214	1010.5467	1034.7028	1079.7188	1086.237	1106.1585	1157.9219	1186.7066	1207.7164	1224.2466	1236.5788	1261.7884	1277.1394	1304.4575	1323.5889	1404.5239	1427.5444	1469.8706	1499.6975	1780.4789	3002.4254	3054.1063	3074.4196	3094.7468	3127.4407	3137.897	3161.9966	3817.2501	3822.8509
ON=C1CC2CC1C2O	ON=C1C[C@@H]2C[C@H]1[C@H]2O	
InChI=1S/C6H9NO2/c8-6-3-1-4(6)5(2-3)7-9/h3-4,6,8-9H,1-2H2	InChI=1S/C6H9NO2/c8-6-3-1-4(6)5(2-3)7-9/h3-4,6,8-9H,1-2H2/t3-,4+,6-/m0/s1
