14
gdb 10999	4.27004	1.81247	1.5251	4.1794	63.39	-0.2408	-0.0559	0.1849	818.9935	0.107248	-382.548032	-382.541356	-382.540411	-382.578574	26.042	
O	-0.0683765803	 1.4245727001	 0.0499681529	-0.462859
C	-0.0266517056	 0.0345969683	 0.0485925179	 0.366367
C	-0.3887117087	-0.7530721501	-1.1918674238	-0.33546
C	-1.2885215588	-0.7737610888	 0.0454992971	-0.207036
C	-1.0643204564	-1.9220385469	 1.0100226813	 0.396413
O	-1.8677885849	-2.7661754506	 1.3274664219	-0.329612
C	 0.3429042598	-1.7893558627	 1.4971290886	-0.196729
C	 0.9012500306	-0.6839198972	 0.9884778119	-0.13581
H	 0.641169046	 1.750217998	-0.5145347014	 0.289372
H	-0.7744764532	-0.1840321344	-2.0321879259	 0.127059
H	 0.1853028453	-1.6371037962	-1.4483541387	 0.127242
H	-2.2672446947	-0.3191944893	-0.0275939341	 0.122583
H	 0.800265707	-2.5167130815	 2.1547213304	 0.121455
H	 1.9097166841	-0.3297192388	 1.1743820119	 0.117018
142.1888	251.1201	272.5998	328.8795	384.346	430.9257	490.7759	586.802	659.7836	736.8364	750.8372	802.0009	840.0157	910.6158	933.0599	956.5684	975.9935	993.6827	1051.7652	1065.4259	1104.2269	1163.6497	1209.692	1261.2284	1307.8551	1348.532	1404.2211	1475.8711	1634.7236	1819.0591	3124.8632	3190.1602	3213.9311	3222.4539	3231.6603	3799.8646
OC12CC1C(=O)C=C2	O[C@]12C[C@H]1C(=O)C=C2	
InChI=1S/C6H6O2/c7-5-1-2-6(8)3-4(5)6/h1-2,4,8H,3H2	InChI=1S/C6H6O2/c7-5-1-2-6(8)3-4(5)6/h1-2,4,8H,3H2/t4-,6+/m0/s1
