15
gdb 44288	3.9604	1.80639	1.59007	3.746	68.45	-0.2517	0.005	0.2568	835.453	0.115946	-416.751965	-416.746283	-416.745339	-416.78189	23.879	
N	-0.0558505618	 1.3045019246	 0.0937198463	-0.545074
C	-0.0126042347	 0.0472517208	 0.0190784582	 0.448154
O	 1.1335385645	-0.7166429376	-0.0703921278	-0.258345
C	 0.7134596114	-2.0794337684	-0.165643817	 0.088376
C	-0.0655720159	-2.4075037886	-1.4404253488	-0.08049
C	-1.2187513354	-2.9433424076	-0.6767130539	-0.065163
C	-0.6424738433	-2.2367499113	 0.5865778471	-0.116224
C	-1.1749205133	-0.908117832	 0.0166161269	-0.081807
N	-1.338369551	-1.6120062754	-1.3347677288	-0.144097
H	 0.8857757674	 1.7013834497	 0.0616752867	 0.225745
H	 1.5372776109	-2.7391725298	 0.0978704534	 0.103254
H	 0.2973330394	-2.6304365186	-2.4344001783	 0.112072
H	-1.8931251674	-3.7695098818	-0.847410475	 0.114325
H	-0.6929176617	-2.5245238408	 1.6333170408	 0.091367
H	-2.120626129	-0.4956299533	 0.3562094002	 0.107907
153.7814	346.9596	403.1459	498.4161	614.0415	652.4279	695.584	766.8748	810.2366	820.825	854.2439	888.9728	892.7327	912.3735	914.6349	946.3187	962.8634	993.203	998.8517	1021.9078	1038.7168	1078.7554	1141.3327	1151.633	1193.4777	1223.1724	1230.7418	1248.5161	1281.6289	1293.4481	1326.7681	1369.3677	1788.2751	3147.9449	3155.735	3169.9607	3211.4474	3231.2636	3463.8759
N=C1OC2C3C4C2C1N34	[NH][C]1O[C@@H]2[C@H]3[C@H]4[C@@H]2[C@@H]1N34	
InChI=1S/C6H6N2O/c7-6-3-1-2-4(8(2)3)5(1)9-6/h1-5,7H	InChI=1S/C6H6N2O/c7-6-3-1-2-4(8(2)3)5(1)9-6/h1-5,7H/t1-,2-,3+,4-,5+,8?/m1/s1
