18
gdb 69613	3.25397	1.27935	1.19892	2.017	84.33	-0.2167	0.0259	0.2426	1122.3557	0.145685	-364.697028	-364.688726	-364.687782	-364.729384	33.122	
C	 0.1235434652	 1.4575060168	 0.0686048632	-0.480462
C	-0.08709405	-0.0225748741	-0.0447774355	 0.336846
C	-0.9960259108	-0.8104728082	 0.8147920641	-0.302563
N	 0.4672588667	-0.9821530367	 0.9769523674	-0.209447
C	 1.03790798	-1.8094786189	-0.1750498718	 0.175987
C	 0.0769214734	-2.2537321623	-1.256845356	-0.353311
C	 0.511350641	-0.8218637935	-1.219718379	-0.179882
C	 2.3259549827	-2.3813387223	-0.0027888038	 0.21409
C	 3.4180320401	-2.8650414213	 0.1460001441	-0.376659
H	 1.1604872932	 1.7223941911	-0.1654655507	 0.128823
H	-0.5298524736	 1.9985271491	-0.6261354989	 0.12167
H	-0.0933593973	 1.8014827951	 1.0834937746	 0.130445
H	-1.4255222303	-0.2923520326	 1.6679978166	 0.124029
H	-1.6179752882	-1.6142342333	 0.4396499818	 0.12017
H	 0.5703497516	-2.8422246449	-2.0234045486	 0.134801
H	-0.9387351089	-2.5737471566	-1.05479191	 0.120397
H	 1.0644750994	-0.3528687799	-2.0226739248	 0.107735
H	 4.3819393358	-3.2887660074	 0.2812114774	 0.187329
105.3875	152.9017	197.4382	251.9152	302.3101	377.5033	464.8475	477.9376	494.0951	515.6526	555.6786	589.9994	618.0161	668.152	740.4214	787.1272	810.2787	873.1873	913.7474	943.1181	974.0992	993.4325	1009.796	1038.3833	1067.3987	1100.177	1110.8773	1124.8011	1168.8034	1205.9407	1312.9591	1350.715	1381.7882	1419.9588	1473.4666	1482.6806	1494.0981	1527.5611	2231.8789	3027.5524	3088.9417	3116.4141	3126.5453	3141.7592	3203.1688	3210.9821	3220.4327	3504.1938
CC12CN1C1(CC21)C#C	C[C@]12CN1[C@]1(C[C@@H]21)C#C	
InChI=1S/C8H9N/c1-3-8-4-6(8)7(2)5-9(7)8/h1,6H,4-5H2,2H3	InChI=1S/C8H9N/c1-3-8-4-6(8)7(2)5-9(7)8/h1,6H,4-5H2,2H3/t6-,7+,8-,9?/m0/s1
