18
gdb 74748	3.38829	1.56676	1.42351	3.3613	74.37	-0.214	0.0053	0.2193	973.3364	0.149872	-401.908524	-401.901609	-401.900665	-401.939537	28.51	
C	 0.008608885	 1.4859897412	 0.0500312328	-0.508943
C	-0.0435745857	-0.0029659226	-0.0221297042	 0.344911
C	-0.0578732427	-0.8204760792	-1.083130222	-0.206308
C	-0.003254428	-2.259061719	-0.5272205041	-0.121414
N	-0.7326958201	-2.1408296739	 0.7581452741	-0.268489
C	 0.009773439	-0.9441710468	 1.2122353391	-0.177419
C	 1.4579718225	-1.5060517496	 1.1715062542	 0.066612
O	 1.5829131255	-2.9226762361	 1.3313410802	-0.239621
C	 1.4489874358	-2.3860107041	 0.0113695137	 0.071882
H	 0.9314634158	 1.8294466409	 0.5353910987	 0.131137
H	-0.0361579044	 1.94070373	-0.9434498967	 0.128673
H	-0.8205248758	 1.8867267589	 0.6471275027	 0.128629
H	-0.0201030289	-0.5453206549	-2.1295508295	 0.097488
H	-0.3620241786	-3.0613007856	-1.1715243812	 0.072321
H	-1.6884551363	-1.858959087	 0.5502879685	 0.212176
H	-0.3343552123	-0.5345050639	 2.1626881401	 0.069827
H	 2.3028545998	-0.8988885352	 1.480571142	 0.099604
H	 2.2859588594	-2.522274883	-0.6658807185	 0.098933
159.5582	175.7216	261.0823	374.4886	386.8516	494.1731	520.4042	567.4086	644.315	743.6486	796.7836	810.0994	827.2672	864.4158	873.3606	895.3353	902.4972	930.2204	972.6808	1003.5295	1010.9663	1052.4957	1057.8539	1068.4332	1093.0356	1167.5103	1195.9334	1218.8041	1232.8617	1273.2616	1283.5924	1285.957	1325.5131	1393.6133	1412.8543	1418.0544	1478.5618	1485.4448	1678.9388	3014.8486	3059.398	3107.8749	3110.9483	3121.1651	3160.9274	3174.3373	3212.1002	3487.0599
CC1=CC2NC1C1OC21	CC1=C[C@@H]2N[C@H]1[C@H]1O[C@@H]21	
InChI=1S/C7H9NO/c1-3-2-4-6-7(9-6)5(3)8-4/h2,4-8H,1H3	InChI=1S/C7H9NO/c1-3-2-4-6-7(9-6)5(3)8-4/h2,4-8H,1H3/t4-,5+,6-,7+/m0/s1
