18
gdb 54986	3.27073	1.10085	1.05771	2.1152	73.81	-0.2293	0.0282	0.2575	1213.6198	0.146996	-439.087891	-439.078946	-439.078002	-439.1221	32.807	
N	-0.0030247178	 1.2491637512	 0.3359725287	-0.538273
C	-0.0111533642	 0.0431221915	-0.3080648751	 0.425573
O	 0.9611089092	-0.3745322995	-0.9175752738	-0.388819
C	-1.2678388623	-0.7463525898	-0.1708882815	-0.226709
C	-1.6013690857	-1.7451390706	-1.2834645524	-0.358312
C	-1.1362138202	-2.2480839351	 0.0236761366	 0.477799
C	 0.086621356	-3.0642361218	 0.4176501838	-0.339572
C	-0.8883690714	-3.7352774158	 1.4097092836	-0.081053
O	-1.9956549322	-2.9291518602	 0.9287393827	-0.309322
H	 0.8013282185	 1.8415131098	 0.2091395272	 0.259205
H	-0.838101906	 1.6505370957	 0.7245140793	 0.257902
H	-2.1077970273	-0.2915844442	 0.3447205677	 0.088495
H	-2.6495789617	-1.86955679	-1.5313920419	 0.123707
H	-0.8990013721	-1.7723344567	-2.1100002333	 0.141682
H	 0.4721091582	-3.7143353946	-0.368930314	 0.120578
H	 0.9108570094	-2.4996017407	 0.8513561585	 0.130996
H	-1.0761026351	-4.8028813792	 1.2549686247	 0.109155
H	-0.6897050751	-3.5514394601	 2.4714736191	 0.106969
62.7646	90.0018	136.9626	163.3722	184.0169	307.2815	332.6009	396.744	466.0103	536.5045	585.1801	627.4792	749.7521	784.2096	808.3438	858.2718	878.562	898.4999	953.2983	965.888	1011.5233	1038.6642	1059.0129	1071.6681	1111.6292	1118.6024	1162.4307	1193.5913	1206.5006	1245.0096	1273.1223	1351.8798	1376.1952	1422.4109	1468.0058	1491.2217	1532.0301	1617.6851	1769.6405	3031.3747	3076.8542	3093.8955	3132.4703	3150.7753	3159.8187	3231.9124	3602.036	3738.0577
NC(=O)C1CC11CCO1	NC(=O)[C@H]1C[C@]21CCO2	
InChI=1S/C6H9NO2/c7-5(8)4-3-6(4)1-2-9-6/h4H,1-3H2,(H2,7,8)	InChI=1S/C6H9NO2/c7-5(8)4-3-6(4)1-2-9-6/h4H,1-3H2,(H2,7,8)/t4-,6+/m1/s1
