17
gdb 57001	3.00985	1.1926	0.9566	2.1547	71.81	-0.2502	0.0044	0.2546	1210.7578	0.136287	-417.957764	-417.949393	-417.948449	-417.991295	30.933	
O	-0.1810275905	 1.3621759458	 0.0065884966	-0.408057
C	 0.019223541	-0.0354829874	-0.0954807871	-0.035369
C	 0.784159386	-0.387418366	-1.3111351843	 0.256713
N	 1.4220572624	-0.6484944919	-2.2388412621	-0.315678
C	 0.7026873968	-0.6174726937	 1.1477742602	-0.016806
C	-0.0364011827	-0.5494204686	 2.5101380814	-0.197136
N	 0.1478995216	-2.0275459846	 2.7482038514	-0.121938
C	-0.5910215652	-2.6891111948	 1.6626127043	-0.236395
C	 0.7398425449	-2.1311446892	 1.346752976	-0.049313
H	 0.6819360086	 1.7901430055	 0.0544703012	 0.296014
H	-0.9843427635	-0.460171134	-0.198373152	 0.137479
H	 1.7068048267	-0.1891038705	 1.2246297302	 0.095697
H	 0.4893968449	 0.0280729172	 3.2711481742	 0.121231
H	-1.0846856968	-0.2343747951	 2.4822704229	 0.115973
H	-0.6519435897	-3.7658558718	 1.785681397	 0.131724
H	-1.5016830969	-2.2288209334	 1.2839646401	 0.113936
H	 1.5953542423	-2.7629320874	 1.1347728204	 0.111926
58.6342	118.3196	147.9908	209.6926	265.6011	318.6606	394.2778	415.7163	482.5737	538.0634	607.3685	742.1755	755.6375	791.0475	853.2246	935.3549	961.89	982.3183	1005.5316	1053.9802	1068.8361	1079.5959	1109.1277	1123.3083	1148.7558	1197.024	1212.8755	1252.5207	1266.4789	1292.9207	1306.5388	1372.7533	1388.5159	1419.3952	1493.6383	1510.5953	2352.5612	3053.3634	3057.5877	3077.2193	3103.591	3126.502	3173.2952	3199.0696	3798.8215
OC(C#N)C1CN2CC12	O[C@@H](C#N)[C@H]1CN2C[C@@H]12	
InChI=1S/C6H8N2O/c7-1-6(9)4-2-8-3-5(4)8/h4-6,9H,2-3H2	InChI=1S/C6H8N2O/c7-1-6(9)4-2-8-3-5(4)8/h4-6,9H,2-3H2/t4-,5-,6-,8?/m0/s1
