16
gdb 21212	3.27657	1.92035	1.22749	2.1758	68.14	-0.178	0.0437	0.2218	960.9366	0.132705	-376.107465	-376.099174	-376.09823	-376.140099	29.899	
C	-0.0091777446	 1.4406404765	 0.0888175922	-0.310107
N	 0.1351085237	 0.0004858009	-0.0596568927	-0.385217
C	 0.6883589317	-0.7027099819	 1.002410074	 0.397337
N	 1.3260814591	-0.1199471474	 2.012531334	-0.319775
N	 1.7462370178	-1.1564833911	 2.7803036884	-0.211484
C	 1.3857988571	-2.3686810821	 2.2813069345	-0.098057
C	 0.6926966473	-2.1212355836	 1.1163892947	 0.082858
N	 0.0388560782	-2.9907319971	 0.2123036259	-0.624646
H	 0.9784306979	 1.8903487404	 0.2187295481	 0.142766
H	-0.4606010271	 1.8471280545	-0.8197804321	 0.110405
H	-0.6198385816	 1.7329180856	 0.9562475975	 0.112882
H	-0.6993665063	-0.4590900104	-0.4020176864	 0.236777
H	 2.2281174449	-0.9597435828	 3.6378939989	 0.267034
H	 1.6418154606	-3.2917942876	 2.7776448849	 0.11819
H	 0.0831252865	-3.9556894462	 0.5165143853	 0.237517
H	 0.4505556947	-2.9380620777	-0.7150923672	 0.243521
82.774	164.3753	176.9401	189.8592	237.0568	280.9696	306.8574	385.5354	531.7373	599.7073	631.5426	675.8523	734.1636	750.2872	798.79	847.986	937.5678	1061.3722	1075.3061	1127.3504	1149.4747	1158.9648	1220.1391	1264.7024	1335.8948	1411.0355	1451.8989	1480.0201	1483.484	1498.7758	1517.7733	1584.9788	1634.0384	1661.4843	2992.2565	3083.1803	3125.2164	3253.7089	3490.9512	3559.2209	3592.8047	3704.8508
CNC1=NNC=C1N	CNc1n[nH]cc1N	
InChI=1S/C4H8N4/c1-6-4-3(5)2-7-8-4/h2H,5H2,1H3,(H2,6,7,8)	InChI=1S/C4H8N4/c1-6-4-3(5)2-7-8-4/h2H,5H2,1H3,(H2,6,7,8)
