17
gdb 11119	6.73871	0.98792	0.92647	4.9825	69.39	-0.2798	0.029	0.3088	1216.8873	0.142449	-363.862245	-363.854018	-363.853073	-363.895355	29.573	
O	 0.3334815255	 1.1294425383	-0.6330784943	-0.419227
C	 0.122846099	-0.2044834582	-0.2016625262	-0.083386
C	-1.3047762642	-0.3039973701	 0.3098850953	 0.016179
C	-2.3811234751	-0.1723239874	-0.8033831672	-0.230305
C	-2.5350653014	-1.7287837389	-0.8029032339	-0.129384
C	-1.7745545615	-1.763976381	 0.5634476476	-0.25621
C	-3.8761774843	-2.28392848	-0.8484431017	 0.261012
N	-4.9497454424	-2.7139887237	-0.8665126097	-0.327457
H	 1.2296400667	 1.2027599692	-0.9739256949	 0.290562
H	 0.2788847074	-0.9197693625	-1.0276562898	 0.082889
H	 0.8195481737	-0.4846590781	 0.60508812	 0.091689
H	-1.4244974058	 0.3829160878	 1.1505642589	 0.089183
H	-3.2892403314	 0.3213468886	-0.4536093192	 0.124995
H	-2.0641549772	 0.2862228701	-1.7409891568	 0.125397
H	-1.9405226868	-2.1865470093	-1.5978535027	 0.122872
H	-1.0041712879	-2.5325839589	 0.6642811717	 0.11259
H	-2.4627542542	-1.8426621659	 1.4065475729	 0.128603
61.8159	106.2014	155.9495	224.8335	243.5442	265.3639	354.5884	458.52	541.3454	550.5217	632.5713	812.1446	835.658	875.04	922.7474	949.3549	986.2461	1032.2975	1069.0016	1091.1083	1097.6645	1134.1188	1191.709	1218.9721	1243.1717	1250.9685	1275.6458	1282.0178	1289.5797	1347.6777	1370.9358	1461.0081	1476.9731	1497.0786	1519.9963	2351.8897	2951.2476	2983.4004	3068.4912	3074.298	3080.6441	3087.7025	3130.3609	3142.1344	3831.514
OCC1CC(C1)C#N	OC[C@H]1C[C@@H](C1)C#N	
InChI=1S/C6H9NO/c7-3-5-1-6(2-5)4-8/h5-6,8H,1-2,4H2	InChI=1S/C6H9NO/c7-3-5-1-6(2-5)4-8/h5-6,8H,1-2,4H2/t5-,6-
