21
gdb 78049	2.96194	1.15232	1.08878	1.4336	78.9	-0.2426	0.0616	0.3042	1241.9583	0.18119	-424.193942	-424.184577	-424.183633	-424.227253	36.547	
C	-0.0169731142	 1.5170394596	 0.0459654971	-0.461113
C	 0.0756255215	-0.0003225617	 0.0648434608	 0.313445
C	-1.1486492857	-0.668544425	-0.5451033663	-0.448644
C	 1.3593092408	-0.7540114806	-0.185607322	-0.099719
C	 0.6914180253	-0.7811020414	 1.2004286008	-0.143559
C	 1.9001321102	-0.0574990662	 1.8195287929	 0.096073
O	 2.6324288343	-0.808452312	 2.7521810193	-0.442541
C	 2.5802177494	-0.0401802384	 0.3868723682	 0.042363
O	 3.6968254458	-0.9157551994	 0.337000908	-0.436637
H	 0.8596474784	 2.0122435543	 0.4690884781	 0.119687
H	-0.1341704196	 1.8795964438	-0.9819127562	 0.11497
H	-0.8909239359	 1.8545137079	 0.6150134835	 0.116825
H	-1.2852434725	-0.3588166702	-1.587583409	 0.115381
H	-1.061626813	-1.759247282	-0.5273443786	 0.11646
H	-2.0561405147	-0.3949533226	 0.0049166195	 0.116625
H	 1.43237113	-1.5312823214	-0.9380191811	 0.087718
H	 0.1617430365	-1.5888058479	 1.693903994	 0.084114
H	 1.6974281234	 0.9111280281	 2.2867373365	 0.075588
H	 3.082139268	-1.4948873703	 2.2381626026	 0.278061
H	 2.840649668	 0.9369107955	-0.0410463427	 0.063686
H	 4.4468648239	-0.45310317	 0.7269558644	 0.291216
126.5018	183.5306	193.3332	210.5535	230.5842	267.1944	299.5411	308.0089	336.373	413.825	471.7374	485.2088	572.5008	599.5684	690.7347	796.5706	859.1127	867.8211	892.7254	947.4978	957.6595	972.7046	1027.7302	1033.945	1043.4964	1055.9934	1100.7367	1123.6023	1155.9667	1192.7098	1204.9161	1238.7105	1247.7398	1293.1426	1305.6479	1319.7382	1404.4072	1411.5124	1423.515	1429.7622	1454.0112	1483.3592	1492.5772	1503.0969	1514.5034	3007.3322	3023.9472	3029.6193	3059.2777	3082.4403	3086.7676	3102.6736	3118.3745	3166.8502	3177.7717	3726.9477	3807.0351
CC1(C)C2C1C(O)C2O	CC1(C)[C@@H]2[C@H]1[C@@H](O)[C@H]2O	
InChI=1S/C7H12O2/c1-7(2)3-4(7)6(9)5(3)8/h3-6,8-9H,1-2H3	InChI=1S/C7H12O2/c1-7(2)3-4(7)6(9)5(3)8/h3-6,8-9H,1-2H3/t3-,4+,5+,6-
