23
gdb 75407	2.24727	1.53368	1.06817	0.2943	93.14	-0.2197	0.0261	0.2458	1236.3923	0.207424	-351.169878	-351.160888	-351.159944	-351.203378	35.312	
C	-0.1256134261	 1.5755019586	-0.0419207622	-0.475186
C	 0.0625661226	 0.0801055196	-0.0487247089	 0.33044
C	 0.1593455756	-0.6020879464	-1.1940586736	-0.151697
C	 0.4002721225	-2.0858462523	-1.3852268042	-0.304157
C	-0.3658448132	-3.1293550471	-0.6021658268	-0.024906
C	-1.4036591341	-3.0343447524	 0.2320198079	-0.065941
C	-2.1321209944	-1.7937127995	 0.6879290947	-0.239383
C	-1.3621901033	-0.9891257285	 1.7575905176	-0.186449
C	 0.0622828724	-0.5930243387	 1.3051478547	-0.290319
H	 0.7011086894	 2.0722292871	 0.4828104725	 0.120213
H	-0.1818994235	 1.9853431066	-1.0539459314	 0.116631
H	-1.0424815934	 1.8607667091	 0.4907242086	 0.121075
H	 0.1208048114	-0.0324883139	-2.1211816623	 0.073313
H	 0.2573560097	-2.3165471056	-2.4507942342	 0.112702
H	 1.4719268744	-2.2904021876	-1.2209863036	 0.118626
H	 0.0184243518	-4.1330923295	-0.7859170599	 0.078378
H	-1.756255278	-3.9675395567	 0.6683946924	 0.077801
H	-2.3346096991	-1.1394584016	-0.164266206	 0.112327
H	-3.1063895449	-2.0790366071	 1.0992029459	 0.089744
H	-1.941573214	-0.0903705024	 2.0025361962	 0.092926
H	-1.2859496175	-1.5731419786	 2.6824095628	 0.09429
H	 0.6840779041	-1.492206865	 1.2795675401	 0.110112
H	 0.5006832376	 0.0739139718	 2.0570482497	 0.089463
55.7259	165.5864	196.1107	238.408	245.7374	267.5704	313.0225	376.663	405.0739	473.2768	553.1772	597.9721	693.8228	723.8092	776.2823	797.6148	852.1416	854.347	867.0733	944.2222	955.2525	987.3389	1015.0428	1034.2678	1049.8746	1064.5933	1086.6754	1103.7953	1162.6294	1193.6361	1227.2864	1254.4595	1291.3028	1300.039	1331.7192	1355.049	1369.2896	1377.9142	1393.7172	1412.4093	1433.4971	1463.1644	1476.04	1485.1054	1489.7762	1497.0323	1498.4928	1728.8325	1736.7525	2963.8067	3009.3388	3010.9448	3021.5618	3036.4595	3047.4729	3055.0408	3059.949	3087.7189	3090.7711	3107.8765	3111.4535	3132.253	3141.4134
CC1=CCC=CCCC1	CC1=CCC=CCCC1	
InChI=1S/C9H14/c1-9-7-5-3-2-4-6-8-9/h2-3,7H,4-6,8H2,1H3/b3-2-,9-7-	InChI=1S/C9H14/c1-9-7-5-3-2-4-6-8-9/h2-3,7H,4-6,8H2,1H3/b3-2-,9-7-
