18
gdb 51694	4.52466	0.81994	0.72256	2.761	75.32	-0.247	-0.0268	0.2202	1516.774	0.147067	-439.116298	-439.107527	-439.106583	-439.151259	31.565	
N	 0.0528916631	 1.2634239567	 0.008535925	-0.439235
C	 0.0475113027	 0.0028953725	 0.0470434587	 0.120127
O	-1.1214109103	-0.6680581189	 0.0117767658	-0.186369
C	-1.0687234295	-2.0886304634	-0.0789932768	 0.110417
C	-2.2977688744	-2.6934840948	 0.6210247522	-0.245258
C	-2.4263360294	-4.0976472667	 0.0141741474	-0.324133
C	-1.8363194874	-3.9787640886	-1.3982809301	 0.399388
O	-1.8922388553	-4.8171114173	-2.2576716377	-0.304501
C	-1.1549518793	-2.6106440711	-1.5193156312	-0.339388
H	 1.0081932265	 1.6091449754	 0.0690614633	 0.231003
H	 0.9263879452	-0.6533138103	 0.1235781368	 0.085604
H	-0.1475111018	-2.4488657108	 0.4001865083	 0.089699
H	-2.2001774201	-2.6859379508	 1.7084465224	 0.115202
H	-3.166568846	-2.0790975371	 0.3621841007	 0.130114
H	-1.8199342136	-4.8334993455	 0.5584899281	 0.136122
H	-3.444576048	-4.4915403296	-0.0189124197	 0.13854
H	-1.8167110983	-1.9508563614	-2.0957109375	 0.152711
H	-0.2055947441	-2.6768424783	-2.0549025258	 0.129956
38.0966	72.7649	107.6735	125.3853	248.3807	343.6443	379.7614	459.9845	494.4045	526.041	572.4704	682.4504	737.21	806.1446	818.8684	884.3218	928.5834	949.4733	989.7309	1013.6513	1042.5465	1096.3882	1134.5226	1142.9058	1160.3774	1201.5296	1237.442	1254.8723	1286.4941	1306.4134	1320.8928	1342.8879	1391.9261	1431.0046	1447.333	1452.363	1502.049	1747.0411	1853.9392	3002.4431	3017.3783	3036.8588	3042.1399	3060.6874	3109.2602	3115.6541	3118.041	3520.5147
N=COC1CCC(=O)C1	[NH][CH]O[C@H]1CCC(=O)C1	
InChI=1S/C6H9NO2/c7-4-9-6-2-1-5(8)3-6/h4,6-7H,1-3H2	InChI=1S/C6H9NO2/c7-4-9-6-2-1-5(8)3-6/h4,6-7H,1-3H2/t6-/m0/s1
