22
gdb 6839	3.17352	1.39188	1.26092	1.7721	77.76	-0.238	0.0795	0.3175	1126.3272	0.198354	-350.204559	-350.195027	-350.194083	-350.238635	35.194	
C	-0.1111024576	 1.6483399081	-0.0276479419	-0.382488
C	-0.1050590077	 0.1559701739	 0.324184109	-0.203435
C	-1.4172992766	-0.5297472922	-0.0366022169	-0.058139
C	-1.726161734	-0.7967415032	-1.5238751579	-0.085078
O	-2.0141095503	-2.183433518	-1.2706376665	-0.325105
C	-1.5927447242	-2.0753863961	 0.1232307267	 0.409468
C	-0.3271138351	-2.8953865938	 0.3529682337	-0.426679
C	-2.716230838	-2.5069571553	 1.0561315458	-0.427416
H	 0.8398625843	 2.1219252579	 0.2343295885	 0.113983
H	-0.2740630201	 1.8035272544	-1.0999715785	 0.119532
H	-0.9073441458	 2.1780496691	 0.5069672145	 0.115817
H	 0.7283281194	-0.3340564809	-0.192982674	 0.098602
H	 0.0862631653	 0.0362906641	 1.3985487216	 0.097081
H	-2.2425268366	-0.0036389906	 0.4555791984	 0.06957
H	-2.5837708223	-0.2705314997	-1.9592255096	 0.097716
H	-0.8625769645	-0.6729213792	-2.1941797417	 0.089381
H	 0.4585091943	-2.6270877281	-0.3575402642	 0.117566
H	 0.0599446042	-2.7552771294	 1.3679129423	 0.111763
H	-0.550789184	-3.9584803915	 0.2180695544	 0.120348
H	-2.9326897251	-3.5728359547	 0.928947124	 0.120525
H	-2.4383319412	-2.3377415345	 2.1026652976	 0.111341
H	-3.6306742142	-1.9458018805	 0.8443114449	 0.115645
65.0627	92.5192	159.7112	195.825	225.4004	239.152	282.1823	309.2835	347.8058	387.9321	462.6537	493.5299	640.2387	759.3807	796.778	859.9798	917.1404	936.1834	955.6569	963.9002	991.92	998.644	1029.8879	1065.7639	1135.1535	1148.8497	1171.5169	1176.1436	1224.9503	1267.037	1280.1584	1306.5216	1331.7082	1356.9172	1397.5725	1403.5663	1411.6678	1414.9184	1471.2413	1483.3044	1485.1617	1493.7567	1500.288	1505.4729	1506.7644	1527.4726	2988.3577	3020.6452	3028.7973	3029.9437	3034.194	3038.1559	3049.77	3062.9012	3097.1073	3097.7218	3104.3117	3106.1276	3112.484	3120.2088
CCC1COC1(C)C	CC[C@H]1COC1(C)C	
InChI=1S/C7H14O/c1-4-6-5-8-7(6,2)3/h6H,4-5H2,1-3H3	InChI=1S/C7H14O/c1-4-6-5-8-7(6,2)3/h6H,4-5H2,1-3H3/t6-/m0/s1
