19
gdb 121461	3.51116	0.83145	0.70066	3.507	76.7	-0.2373	0.0144	0.2517	1593.7841	0.158589	-456.319284	-456.309437	-456.308493	-456.355501	34.738	
O	-0.4594401034	 1.5600123263	 0.0854300385	-0.421961
C	 0.0151382875	 0.2318002302	 0.1302043789	-0.043937
C	-1.1024890038	-0.758120891	-0.2053026779	-0.173286
N	-1.6795562767	-0.372752717	-1.490011097	-0.373714
C	-2.3298894978	-1.2266290196	-2.1543978307	 0.406265
N	-2.6864898552	-2.5592214605	-2.0176489241	-0.354146
C	-3.6818395655	-2.5090051595	-3.1089847473	-0.177111
C	-3.1332692803	-1.0893489292	-3.4478844592	 0.026232
O	-4.0976824811	-0.069548603	-3.4460981792	-0.432216
H	-0.9617687641	 1.6113308779	-0.739167441	 0.284947
H	 0.8507266501	 0.0788530697	-0.5729388832	 0.083252
H	 0.3926484189	 0.0512944533	 1.1425249751	 0.098222
H	-0.7052199289	-1.7853722608	-0.2117732749	 0.086429
H	-1.8733831185	-0.7002718107	 0.5772349209	 0.106338
H	-2.7588755677	-3.0848217009	-1.1589092719	 0.251144
H	-3.5553608207	-3.2881244513	-3.8648059311	 0.115171
H	-4.7217157411	-2.463899464	-2.7727841985	 0.125188
H	-2.5154602529	-1.0661838633	-4.355070422	 0.09606
H	-3.7074257089	 0.6792328633	-2.9796970655	 0.297122
27.4869	80.5556	112.0814	135.3907	168.508	204.9007	249.65	340.3695	397.6558	465.2888	490.3235	509.0314	529.616	708.3293	766.4317	840.7836	901.6632	910.5865	937.0634	993.9627	1052.2978	1062.1722	1091.896	1112.1721	1146.4599	1176.1601	1192.0837	1211.7424	1226.7145	1261.9024	1296.0593	1355.0397	1365.2659	1376.1518	1386.847	1399.6822	1444.551	1471.6897	1508.4048	1515.9429	1818.7669	2965.5925	2974.1979	3021.1088	3021.9092	3054.0361	3070.1105	3112.323	3605.9307	3752.1368	3793.6682
OCCN=C1NCC1O	OCCN=C1NC[C@H]1O	
InChI=1S/C5H10N2O2/c8-2-1-6-5-4(9)3-7-5/h4,8-9H,1-3H2,(H,6,7)	InChI=1S/C5H10N2O2/c8-2-1-6-5-4(9)3-7-5/h4,8-9H,1-3H2,(H,6,7)/t4-/m1/s1
