21
gdb 73809	2.3973	1.67991	1.17705	1.8267	84.77	-0.2121	0.0198	0.2319	1143.077	0.180765	-387.068267	-387.059037	-387.058092	-387.101565	35.348	
C	 0.0033187145	 1.4788325717	 0.1098031669	-0.519671
C	 0.0121484717	-0.0058799041	 0.0063996839	 0.242493
C	-0.0199253745	-0.8476292226	-1.0350528075	 0.196242
C	-0.0774716428	-0.6254523609	-2.5059527265	-0.520702
C	 0.0236316797	-2.2283804172	-0.319493536	 0.321714
C	 0.1974376745	-3.4987764983	-1.1030253642	-0.511607
C	-1.0425509051	-2.0152854028	 0.8033093803	-0.257075
C	 0.0690877691	-1.0014582443	 1.1862612106	-0.033941
O	 1.0497195432	-1.9797155684	 0.7113008782	-0.316559
H	 0.904011926	 1.849780248	 0.6160617184	 0.131358
H	-0.0460636967	 1.9529817616	-0.8748856144	 0.124117
H	-0.853264574	 1.837645638	 0.6954704621	 0.125918
H	-0.0885558397	 0.4407083283	-2.7506439278	 0.124789
H	 0.7831061696	-1.0763437226	-3.0168814085	 0.130391
H	-0.9742041396	-1.0774361668	-2.9503367078	 0.125101
H	 1.1294694956	-3.4739888789	-1.677077544	 0.130374
H	 0.2299780974	-4.3630578868	-0.4345309618	 0.128478
H	-0.6318940826	-3.634504188	-1.8049765088	 0.120736
H	-2.030335637	-1.6379790292	 0.5281589997	 0.089058
H	-1.1019497893	-2.8636100805	 1.4911994206	 0.09741
H	 0.24393176	-0.6370625964	 2.1987424266	 0.071376
148.5318	153.0391	176.4977	182.3485	201.692	229.295	239.1691	327.2075	396.9369	504.81	551.7237	582.522	611.6053	673.8723	707.3958	801.3515	832.6907	855.9633	910.3176	940.0338	964.1609	1026.971	1038.3067	1052.3383	1069.6152	1107.6623	1118.7659	1159.8533	1162.3423	1218.8676	1237.5377	1254.5896	1320.8826	1328.373	1410.2839	1413.0582	1420.1693	1475.4723	1476.9365	1478.352	1484.1246	1487.4204	1489.9337	1494.8554	1736.176	3010.6732	3012.2246	3038.3496	3050.5416	3053.9381	3055.3351	3100.4712	3102.4414	3106.1519	3118.5434	3120.9325	3123.0239
CC1=C(C)C2(C)CC1O2	CC1=C(C)[C@]2(C)C[C@H]1O2	
InChI=1S/C8H12O/c1-5-6(2)8(3)4-7(5)9-8/h7H,4H2,1-3H3	InChI=1S/C8H12O/c1-5-6(2)8(3)4-7(5)9-8/h7H,4H2,1-3H3/t7-,8+/m1/s1
