13
gdb 21673	5.58581	1.63585	1.26734	4.3843	66.5	-0.2215	-0.0654	0.1561	889.1603	0.096821	-394.765435	-394.758706	-394.757762	-394.79626	25.707	
N	 0.0264972726	 1.3801387702	 0.1789428828	-0.559624
C	 0.0047150541	 0.0101346551	-0.0391106638	 0.388952
N	-1.1521671073	-0.5543349263	-0.1644335733	-0.17424
O	-1.1595469636	-1.91986531	-0.5065749214	-0.289545
C	-0.0189707617	-2.6811461991	-0.6297740665	 0.408768
N	-0.0840654767	-3.9235112307	-0.8981196702	-0.533916
C	 1.2498574031	-1.9963079693	-0.4493360094	-0.111783
C	 1.2716583391	-0.6878075539	-0.1707296572	-0.1388
H	 0.7383712621	 1.696457753	 0.8226033057	 0.256895
H	-0.8861935246	 1.7591410245	 0.3965920319	 0.264407
H	-1.0576422039	-4.2194283087	-0.9884674882	 0.226731
H	 2.1417062484	-2.5995343834	-0.5623015887	 0.141603
H	 2.1957627583	-0.1330594014	-0.0505795115	 0.120553
89.1772	280.8997	295.5433	336.4151	378.4793	451.0384	481.9058	537.9913	625.3881	679.6523	750.6286	782.8004	808.8524	843.5897	875.897	944.2521	989.0831	1013.6618	1088.2512	1160.8986	1178.5626	1309.291	1361.9341	1464.9051	1615.5473	1642.2706	1684.4211	1732.7644	3190.1436	3226.8409	3476.4736	3548.6142	3653.3285
NC1=NOC(=N)C=C1	NC1=NOC(=C[CH]1)[NH]	
InChI=1S/C4H5N3O/c5-3-1-2-4(6)8-7-3/h1-2,6H,(H2,5,7)	InChI=1S/C4H5N3O/c5-3-1-2-4(6)8-7-3/h1-2,6H,(H2,5,7)
