17
gdb 75638	1.97116	1.83107	1.16483	3.63	70.12	-0.2302	-0.0114	0.2188	1083.3282	0.132644	-458.941513	-458.932158	-458.931214	-458.975271	34.394	
C	-0.0911784544	 1.6322268073	 0.0076573321	-0.423814
C	 0.0551464709	 0.1165671305	 0.0115702633	-0.149572
C	 1.1014599524	-0.5806484448	-0.9110491304	 0.348835
O	 1.2086286137	-0.6460822734	-2.1043899787	-0.33153
C	 1.7515071177	-1.2922788283	 0.2352469077	 0.183752
O	 2.2556017298	-2.571571915	 0.2488601043	-0.44973
C	 2.1396201795	-0.2657054089	 1.3224924786	-0.428914
C	 0.7018568892	-0.6196097421	 1.1887631831	 0.366803
O	-0.1020039986	-1.146781	 2.1683037748	-0.449156
H	 0.8457076482	 2.1350128398	 0.2670196899	 0.116887
H	-0.3870437582	 1.9744968174	-0.9885950134	 0.137591
H	-0.8564423055	 1.9574710338	 0.718982385	 0.128401
H	-0.9078687784	-0.3628753551	-0.2077197196	 0.116529
H	 3.1707474885	-2.5508193445	-0.0544917113	 0.298289
H	 2.6508754339	-0.7655938068	 2.1431565513	 0.11766
H	 2.5392122504	 0.7174411669	 1.0865038121	 0.124098
H	 0.4465485311	-1.5853157069	 2.8279284912	 0.293872
94.4197	152.0217	179.6982	193.0075	212.6494	221.8167	247.462	292.6528	399.3374	422.8538	484.1157	544.8853	632.3871	654.238	709.435	746.2189	775.8301	870.9901	920.1309	968.2875	1028.1916	1070.17	1080.843	1109.5312	1135.4109	1155.1942	1191.1255	1259.9633	1331.7007	1352.2006	1402.0282	1416.3939	1423.7577	1492.5585	1499.9538	1511.0669	1873.9537	3036.1122	3038.6964	3096.7164	3107.261	3112.0355	3179.6358	3785.8428	3811.3067
CC1C(=O)C2(O)CC12O	C[C@H]1C(=O)[C@@]2(O)C[C@@]12O	
InChI=1S/C6H8O3/c1-3-4(7)6(9)2-5(3,6)8/h3,8-9H,2H2,1H3	InChI=1S/C6H8O3/c1-3-4(7)6(9)2-5(3,6)8/h3,8-9H,2H2,1H3/t3-,5+,6-/m0/s1
