21
gdb 110393	5.58633	0.97117	0.95831	1.1563	83.98	-0.2095	0.0744	0.2839	1343.0557	0.18159	-383.143031	-383.134559	-383.133615	-383.175983	33.028	
C	-0.0581286001	 1.71922934	 0.069481688	-0.378305
C	-0.131589697	 0.1942583908	 0.0372636188	-0.119381
N	 0.6492438869	-0.3900927453	 1.1287391639	-0.122595
C	 2.118502074	-0.5188044206	 0.8913002122	-0.031974
C	 2.2200928997	-1.7517570341	 1.8255574743	-0.026555
C	 0.8591843216	-1.8637915709	 1.0522004501	-0.046023
C	 2.0381688407	-1.7984815873	-0.0135743911	-0.042729
N	 3.0396436293	-2.5071913847	 0.8349699433	-0.120277
C	 2.9077323515	-3.960037449	 0.8828297236	-0.322968
H	 0.9653834429	 2.0707764103	-0.099575194	 0.115062
H	-0.691920969	 2.1556610648	-0.7085362075	 0.111072
H	-0.3868052967	 2.0965369404	 1.0419167953	 0.126302
H	-1.1716712361	-0.1272891715	 0.175451229	 0.097617
H	 0.1840829252	-0.173458743	-0.9559426396	 0.077894
H	 2.8106614299	 0.3192417171	 0.8156177358	 0.090577
H	 2.3898619068	-1.7663965279	 2.9022428665	 0.08854
H	 0.0378233569	-2.5734842949	 1.1610626651	 0.083997
H	 2.0206600408	-1.8987732591	-1.0996845787	 0.084479
H	 3.3226192422	-4.3891755253	-0.0352645162	 0.119456
H	 3.4917989557	-4.3475833429	 1.72411948	 0.120446
H	 1.8704792948	-4.3211064069	 0.9909579113	 0.095365
78.5425	140.9849	192.1248	222.5949	233.9038	285.4062	329.1517	425.8533	523.1411	585.9187	722.6174	752.1797	781.8008	797.2537	804.0713	833.5901	837.2347	907.1396	927.5392	973.6755	983.6831	1039.7874	1086.7184	1097.0925	1103.9092	1130.2092	1146.5933	1153.2801	1160.4328	1172.594	1179.8201	1188.1877	1207.6119	1219.4688	1300.2182	1309.0791	1333.9339	1388.0729	1409.978	1449.1319	1490.2458	1492.0075	1492.688	1497.3079	1511.261	2939.163	2958.8467	3035.8172	3039.3042	3061.6552	3097.9541	3098.4543	3103.3262	3107.672	3117.5955	3118.8573	3132.2072
CCN1C2C3C1C2N3C	CCN1[C@H]2[C@H]3[C@@H]1[C@@H]2N3C	
InChI=1S/C7H12N2/c1-3-9-6-4-7(9)5(6)8(4)2/h4-7H,3H2,1-2H3	InChI=1S/C7H12N2/c1-3-9-6-4-7(9)5(6)8(4)2/h4-7H,3H2,1-2H3/t4-,5+,6-,7+
