18
gdb 85294	2.45007	1.67151	1.21789	5.2865	71.61	-0.2705	0.0172	0.2877	1067.3663	0.14721	-439.117245	-439.10884	-439.107896	-439.150073	31.672	
C	-0.0924471015	 1.5753937896	 0.0105753791	-0.405865
C	 0.0939787005	 0.0667593034	 0.0295176788	 0.065257
O	 0.9265004536	-0.343871464	-1.0680981679	-0.245113
C	 1.8681321327	-1.2503664218	-0.6661971646	 0.446127
O	 2.6138132134	-1.7880462799	-1.423028321	-0.339048
N	 1.8170369194	-1.4489697014	 0.7532043193	-0.210131
C	 2.2057003794	-0.1898568079	 1.4552575419	-0.302815
C	 0.7783065913	-0.531242858	 1.2602741887	 0.304971
C	-0.0892720017	-0.9989709335	 2.4000433465	-0.483115
H	 0.8635104013	 2.0936796905	 0.1218675971	 0.128897
H	-0.5493291567	 1.8906987325	-0.9309115417	 0.140607
H	-0.7514423651	 1.8807832689	 0.8294272435	 0.126861
H	-0.8801384308	-0.4242996577	-0.0979203863	 0.097216
H	 2.6699283064	-0.3528278304	 2.4224599273	 0.134709
H	 2.6577850328	 0.5950312803	 0.8554056853	 0.140047
H	-0.591652618	-0.1506597359	 2.8776168409	 0.128305
H	-0.8568768358	-1.6947892701	 2.0458849319	 0.133121
H	 0.5103800488	-1.5102837047	 3.1566150112	 0.139971
112.1826	145.6788	180.2008	201.812	239.7632	289.2656	335.2729	393.4569	510.4458	542.1311	601.9047	695.1792	702.4444	793.4751	813.8527	839.8891	922.5595	947.2467	965.8045	1024.9193	1050.1374	1077.334	1106.4864	1129.5353	1133.797	1141.8302	1175.3214	1287.6734	1351.1505	1382.1367	1404.928	1412.5274	1424.7219	1484.6437	1486.6541	1491.7163	1494.6629	1512.9805	1904.0673	3017.3151	3037.3117	3046.9639	3101.3977	3117.9724	3119.965	3126.6265	3130.0624	3210.1051
CC1OC(=O)N2CC12C	C[C@H]1OC(=O)N2C[C@@]12C	
InChI=1S/C6H9NO2/c1-4-6(2)3-7(6)5(8)9-4/h4H,3H2,1-2H3	InChI=1S/C6H9NO2/c1-4-6(2)3-7(6)5(8)9-4/h4H,3H2,1-2H3/t4-,6+,7?/m1/s1
