19
gdb 41095	2.8798	1.93044	1.79351	1.6277	77.63	-0.225	0.0596	0.2846	881.3329	0.161487	-385.793198	-385.786697	-385.785753	-385.823528	27.882	
C	 0.0133844591	 1.4513560285	 0.0838768883	-0.209378
C	 1.5657617558	 1.538797929	-0.0341925933	-0.123888
C	 2.0395386403	 1.3614800277	-1.5122669418	-0.297401
C	 1.6757278074	-0.1490096994	-1.4114339477	 0.185731
C	 2.7578783529	-1.1942300982	-1.0703491264	-0.160125
O	 2.5460947666	-0.9935844753	 0.3718178661	-0.329171
C	 1.5447881555	-0.0265592537	 0.0978697945	 0.399945
C	-0.0184844107	-0.1028248063	-0.0384498067	-0.123887
C	 0.1793957482	-0.5660187379	-1.5172667376	-0.2974
H	-0.2988099509	 1.750028897	 1.0878655044	 0.108303
H	-0.5678892613	 2.0142272282	-0.6536736	 0.0934
H	 2.0671794518	 2.2595500766	 0.6123898299	 0.070058
H	 1.5237436709	 1.9559339831	-2.2726935694	 0.097141
H	 3.1173490915	 1.5114546797	-1.628818226	 0.104041
H	 2.5420802616	-2.2293885699	-1.3610589207	 0.105696
H	 3.7854575273	-0.9409841773	-1.3577190191	 0.105696
H	-0.7226206384	-0.6312896544	 0.6048925468	 0.070058
H	-0.4310527569	-0.0696462749	-2.2779481041	 0.097141
H	 0.0681449393	-1.6481632825	-1.6370096471	 0.10404
214.2339	265.8972	330.5256	368.6654	396.946	467.4004	539.7966	664.689	693.8216	790.4495	806.7884	812.8153	867.0281	898.372	901.8578	925.0683	950.2932	951.5575	982.669	1000.0216	1042.3126	1069.0032	1076.6732	1101.3382	1141.9451	1147.1234	1164.2297	1181.8421	1220.864	1227.9287	1249.151	1266.1775	1285.3635	1285.9249	1298.824	1310.9294	1341.8279	1468.9086	1470.7877	1488.5207	1509.9901	3012.883	3040.8192	3042.9617	3046.467	3065.7483	3093.2863	3095.349	3097.8102	3100.4387	3110.1996
C1C2CC34COC23C1C4	C1[C@@H]2C[C@@]34CO[C@@]23[C@@H]1C4	
InChI=1S/C8H10O/c1-5-2-7-3-6(1)8(5,7)9-4-7/h5-6H,1-4H2	InChI=1S/C8H10O/c1-5-2-7-3-6(1)8(5,7)9-4-7/h5-6H,1-4H2/t5-,6+,7-,8-
