18
gdb 77453	1.9043	1.57274	1.49182	2.5928	74.57	-0.2526	0.0191	0.2717	1073.2025	0.145166	-439.061502	-439.052181	-439.051237	-439.095033	34.623	
C	 0.0391915409	 1.5897847183	-0.0081588949	-0.424126
C	 0.1184103272	 0.0801676121	-0.0164777668	-0.139345
C	 0.7048782062	-0.750236255	-1.1205254989	 0.379606
C	 0.069326736	-1.7967196592	-1.9691588785	-0.49135
O	 1.8373174612	-0.0165184792	-1.6960801709	-0.304277
C	 2.5350767426	-0.1202250637	-0.4930589904	 0.375562
N	 3.7143330875	 0.1857039486	-0.2029026614	-0.566648
C	 1.3884337501	-0.7598745897	 0.2300244795	 0.178493
O	 1.4689123133	-1.7691358591	 1.1576210861	-0.443621
H	 0.8770111517	 2.0317810355	-0.5512432072	 0.142619
H	-0.8860840968	 1.9287893918	-0.4861208654	 0.122691
H	 0.0484358066	 1.9786263434	 1.0151346555	 0.121429
H	-0.7245390958	-0.4311188005	 0.4485673326	 0.102363
H	-0.4670294641	-1.3452955346	-2.8106025894	 0.136653
H	 0.823168248	-2.4819035486	-2.3676192445	 0.141401
H	-0.6471161276	-2.3720687884	-1.376475952	 0.138473
H	 4.2058123369	 0.5769034357	-1.0084876861	 0.230042
H	 1.6049321961	-1.3758891274	 2.0271433325	 0.300037
126.7848	163.8038	176.772	186.9686	196.0117	231.0298	244.4863	286.6	361.7969	431.1421	513.9224	578.5811	632.6491	658.5623	719.6685	780.8611	802.1778	870.1227	884.6216	938.4831	973.2597	1007.3182	1099.2165	1109.7092	1123.2317	1134.8741	1179.2755	1234.2178	1287.5837	1328.825	1374.3891	1413.2496	1417.4619	1473.0045	1489.2743	1492.9268	1498.4689	1532.6178	1833.1834	3038.9736	3039.7006	3097.3553	3105.9496	3118.1122	3124.4763	3136.6687	3476.2155	3795.9219
CC1C2(C)OC(=N)C12O	C[C@H]1[C@@]2(C)O[C]([NH])[C@@]12O	
InChI=1S/C6H9NO2/c1-3-5(2)6(3,8)4(7)9-5/h3,7-8H,1-2H3	InChI=1S/C6H9NO2/c1-3-5(2)6(3,8)4(7)9-5/h3,7-8H,1-2H3/t3-,5+,6-/m0/s1
