16
gdb 22869	3.08403	1.25557	0.92824	3.7006	68.23	-0.2652	-0.0224	0.2428	1198.4632	0.123309	-475.028412	-475.0198	-475.018856	-475.062225	31.162	
C	-0.1586233644	 1.5860516981	 0.0275768549	-0.390103
C	 0.0381091907	 0.0663743801	 0.037878674	-0.272506
C	 0.8789257545	-0.4298556468	-1.1422923356	 0.457999
O	 0.7567880616	-0.1350133966	-2.2937742825	-0.334872
O	 1.8340784372	-1.30254568	-0.7131451166	-0.227308
C	 1.8340256108	-1.4502749363	 0.7114140434	-0.166799
C	 0.7699004682	-0.5072163498	 1.217451599	 0.368523
N	 0.5217404951	-0.2026644418	 2.4247168722	-0.207512
O	 1.3752343579	-0.8967809132	 3.2966528721	-0.391701
H	 0.7981823226	 2.1041281827	 0.1364804061	 0.128537
H	-0.6110667942	 1.890042942	-0.9189219248	 0.14467
H	-0.806156167	 1.8869752147	 0.8535660917	 0.137694
H	-0.9430822103	-0.41867411	-0.0624681797	 0.13945
H	 1.6202936254	-2.4934155935	 0.9701674208	 0.147349
H	 2.823902446	-1.1989756519	 1.1045704249	 0.152206
H	 1.1045920558	-0.5679824978	 4.1607215401	 0.314373
45.616	162.6993	175.6783	199.6013	218.6336	243.5358	350.7487	412.1744	443.4995	526.607	546.9479	650.8652	692.2732	725.2535	800.1905	840.2061	984.1743	992.1594	1025.0026	1074.3607	1087.9752	1102.2973	1162.355	1204.5689	1245.6495	1265.9704	1320.3968	1364.9624	1401.3173	1419.1815	1493.2244	1497.0159	1498.5123	1768.5386	1888.137	3016.1372	3046.2594	3054.1841	3088.5352	3129.2145	3143.0994	3818.7053
CC1C(=O)OCC1=NO	C[C@H]1C(=O)OCC1=NO	
InChI=1S/C5H7NO3/c1-3-4(6-8)2-9-5(3)7/h3,8H,2H2,1H3	InChI=1S/C5H7NO3/c1-3-4(6-8)2-9-5(3)7/h3,8H,2H2,1H3/t3-/m1/s1
