15
gdb 22858	2.27274	1.73936	0.99131	2.9987	75.01	-0.2088	-0.0659	0.1429	1125.9676	0.112152	-453.949163	-453.940647	-453.939703	-453.982256	31.179	
C	-0.0247211769	 1.490262162	 0.1013736456	-0.497615
C	-0.0083697085	-0.0009165887	 0.031232664	 0.200844
C	-0.024944945	-0.7906809303	-1.0622861946	-0.113171
N	-0.0004258141	-2.1492840911	-0.7255329879	-0.362524
C	 0.0347716245	-2.3277147257	 0.6499014887	 0.381184
O	 0.0617548233	-3.3845828871	 1.2336157544	-0.345525
C	 0.0300944378	-0.8989446009	 1.1824994495	 0.19326
N	 0.0539404674	-0.4757292723	 2.3964193352	-0.225042
O	 0.0885631165	-1.4826483021	 3.3335889941	-0.338632
H	 0.8630904543	 1.8741980954	 0.6162524732	 0.136266
H	-0.0563685994	 1.9292054424	-0.8997045612	 0.118702
H	-0.8933936533	 1.852610806	 0.6624198413	 0.136309
H	-0.053484172	-0.4974960933	-2.1020882493	 0.135529
H	-0.0061021922	-2.9194834687	-1.371613074	 0.26432
H	 0.1024437476	-0.9929174755	 4.1646396212	 0.316095
94.7697	147.9853	189.9376	204.2479	249.1531	269.0855	325.057	433.7656	450.6792	528.8067	546.7667	586.6119	597.0873	730.9377	772.9112	812.038	844.2344	978.1484	1031.8493	1069.3775	1085.9599	1096.4195	1154.7241	1328.24	1338.2688	1400.2815	1420.6322	1438.7034	1473.6665	1496.9722	1678.4469	1688.8724	1828.8067	3030.1846	3080.9177	3112.5958	3239.0705	3678.5886	3794.2558
CC1=CNC(=O)C1=NO	CC1=CNC(=O)C1=NO	
InChI=1S/C5H6N2O2/c1-3-2-6-5(8)4(3)7-9/h2,9H,1H3,(H,6,7,8)	InChI=1S/C5H6N2O2/c1-3-2-6-5(8)4(3)7-9/h2,9H,1H3,(H,6,7,8)
