17
gdb 65180	2.9594	1.24435	1.07148	5.6437	74.2	-0.2486	0.0124	0.261	1158.5463	0.135542	-417.971057	-417.962561	-417.961617	-418.004382	32.188	
O	 0.1539781711	 1.3592130919	 0.1118594079	-0.460868
C	 0.093392996	-0.029054003	 0.0288216324	 0.446951
C	 1.1751394452	-0.6758690248	-0.7763374565	-0.305882
C	 1.1648335128	-0.8381977435	 0.7311673702	-0.326508
C	-1.2999059983	-0.5791599928	-0.0100007452	-0.092048
N	-2.2994449427	 0.2060586789	 0.7156547579	-0.345605
C	-2.4311458074	 0.0719556256	-0.7505006408	-0.191345
C	-2.3045709055	 1.266304339	-1.551717047	 0.338658
N	-2.2718510774	 2.1910603586	-2.244195467	-0.33467
H	-0.4905366508	 1.6250016407	 0.7824133169	 0.29571
H	 0.9252229179	-1.5311843516	-1.3949908923	 0.115107
H	 1.9105141885	-0.0049383586	-1.2044481485	 0.138241
H	 1.8923706026	-0.2693894207	 1.2979640696	 0.12735
H	 0.9126973004	-1.80788693	 1.1482998176	 0.108408
H	-1.3622086566	-1.6644445914	 0.0456960633	 0.100471
H	-2.9845614659	-0.3749642175	 1.1894978686	 0.251347
H	-3.19773547	-0.6019141011	-1.125517397	 0.134682
60.5715	116.6682	194.7406	237.9691	255.9042	322.1027	353.9571	438.6931	472.248	516.8679	584.4551	628.6761	727.6784	769.0228	826.8026	853.5749	897.3242	922.0183	943.6192	963.7758	982.2517	999.3307	1051.9114	1076.7658	1080.8951	1166.3402	1189.8686	1208.235	1230.0563	1237.9694	1334.8535	1370.2941	1422.5163	1451.9538	1461.2619	1510.5873	2362.7801	3126.0764	3131.3472	3138.6494	3142.5563	3220.9639	3234.8745	3523.8664	3753.1896
OC1(CC1)C1NC1C#N	OC1(CC1)[C@H]1N[C@H]1C#N	
InChI=1S/C6H8N2O/c7-3-4-5(8-4)6(9)1-2-6/h4-5,8-9H,1-2H2	InChI=1S/C6H8N2O/c7-3-4-5(8-4)6(9)1-2-6/h4-5,8-9H,1-2H2/t4-,5-/m0/s1
