17
gdb 91072	3.07635	1.6221	1.59695	2.1479	66.87	-0.2429	0.0625	0.3055	925.2679	0.135836	-458.918216	-458.910947	-458.910003	-458.950201	28.178	
C	 0.5464747308	 1.3943554188	 0.0297734801	-0.401261
C	 0.0208795566	-0.0259226157	 0.0058510134	 0.237809
O	 0.4993694297	-0.7253102033	-1.144729027	-0.274891
C	 1.1370098035	-1.9064132128	-0.7482015956	 0.047116
C	 2.6854919667	-1.8934109196	-0.6671230725	-0.012431
O	 3.0551810838	-0.7440586525	 0.0912796552	-0.222504
C	 2.6417960212	-1.9025652679	 0.8122293605	-0.012438
C	 1.0912421495	-1.9157723637	 0.8016794827	 0.047132
O	 0.4310077771	-0.7392409364	 1.1741217987	-0.27488
H	 1.6369499197	 1.3752438582	 0.0624509448	 0.147904
H	 0.2137697665	 1.926043448	-0.8661894103	 0.119859
H	 0.1602723284	 1.9161505352	 0.9099409937	 0.11983
H	-1.0802254834	-0.0372725634	-0.0266467828	 0.078763
H	 0.7232452389	-2.7806635826	-1.259831635	 0.088541
H	 3.4159146588	-2.2967972803	-1.3582287403	 0.111465
H	 3.3302854889	-2.31474333	 1.5402093053	 0.111464
H	 0.6482374935	-2.7959344818	 1.2774277792	 0.088522
68.2235	145.1451	244.0434	266.8622	342.9308	465.4733	468.0833	655.7905	662.2419	711.3926	773.8177	820.7476	849.1274	881.7297	885.2278	897.4647	918.789	950.2533	1010.9341	1034.2359	1084.5468	1091.4312	1103.9518	1138.4267	1176.1163	1204.0912	1229.8144	1235.8148	1266.6375	1328.39	1345.6811	1374.1159	1377.3844	1394.9822	1423.1251	1483.257	1493.5026	2974.6315	3051.3286	3059.2456	3070.4348	3123.8678	3155.2072	3185.6985	3200.7763
CC1OC2C3OC3C2O1	C[C@H]1O[C@H]2[C@H]3O[C@H]3[C@H]2O1	
InChI=1S/C6H8O3/c1-2-7-3-4(8-2)6-5(3)9-6/h2-6H,1H3	InChI=1S/C6H8O3/c1-2-7-3-4(8-2)6-5(3)9-6/h2-6H,1H3/t2-,3+,4-,5+,6-
