20
gdb 8386	4.93079	1.25212	1.15776	1.1181	77.13	-0.2126	0.0758	0.2883	1127.0785	0.176715	-345.13384	-345.125381	-345.124437	-345.166517	31.752	
C	-0.0206367231	 1.5349296658	-0.1474958944	-0.390984
C	-0.0061792773	 0.0348616881	 0.0088893185	-0.068971
N	 1.3073604719	-0.6367111766	-0.1446569898	-0.387283
C	 0.6402622899	-0.6506556076	 1.1473255831	 0.34134
C	 1.2086859056	-0.0892698833	 2.4511585632	-0.233435
N	 0.3636893067	-1.0632072351	 3.1811824707	-0.070178
C	 0.9356062546	-1.7426009403	 4.32119755	-0.316522
C	 0.1241520079	-1.8470163498	 1.9499800757	-0.251531
H	 0.8789666724	 1.9760407886	 0.2899042209	 0.126865
H	-0.052080481	 1.8165572902	-1.2054603705	 0.119763
H	-0.8967557282	 1.9701659241	 0.3455084478	 0.117404
H	-0.8684880877	-0.4792825597	-0.4162588319	 0.081188
H	 1.2021310762	-1.5358741404	-0.6094892125	 0.226813
H	 2.2898763349	-0.2848738877	 2.540062196	 0.090109
H	 1.0131270832	 0.9602097436	 2.6976418469	 0.103064
H	 1.1342363717	-1.0214456506	 5.1211635471	 0.12084
H	 0.2269536974	-2.4831328231	 4.7076045342	 0.118889
H	 1.8842035517	-2.2650941427	 4.0891088789	 0.088653
H	-0.9137006093	-2.1680219931	 1.8001934252	 0.101831
H	 0.7866072324	-2.7259193405	 1.8543806409	 0.082144
78.9749	163.3502	188.535	205.7605	235.9793	293.1592	336.2753	401.4292	449.344	469.2412	524.8363	729.2384	786.0202	848.9194	930.5116	941.7551	962.2672	988.1984	1017.4999	1052.1919	1072.331	1098.412	1115.7113	1128.7943	1146.3782	1190.9383	1213.3667	1218.7875	1237.2506	1270.2933	1304.6711	1325.976	1371.5022	1413.545	1451.5271	1478.2734	1485.5853	1491.4459	1496.7443	1497.8729	1514.2899	1524.4802	2916.2617	2942.453	2971.8541	3033.7598	3040.0912	3053.9917	3055.9701	3096.426	3096.645	3099.1768	3122.9531	3487.7323
CC1NC11CN(C)C1	C[C@H]1NC21CN(C)C2	
InChI=1S/C6H12N2/c1-5-6(7-5)3-8(2)4-6/h5,7H,3-4H2,1-2H3	InChI=1S/C6H12N2/c1-5-6(7-5)3-8(2)4-6/h5,7H,3-4H2,1-2H3/t5-/m1/s1
