15
gdb 97524	5.144	0.60227	0.54443	4.3966	77.97	-0.252	-0.0482	0.2038	1924.3183	0.111098	-453.924886	-453.914963	-453.914019	-453.96211	32.912	
O	-0.0241434829	 1.5144187323	 0.1357696158	-0.395213
C	-0.0036558339	 0.1384195286	-0.2054595809	-0.212059
C	-1.3196363974	-0.4986182535	-0.1474000079	 0.174688
C	-2.4076369403	-1.013513979	-0.0675282305	-0.098643
C	-3.6939555761	-1.6929711391	 0.018347377	 0.288244
O	-3.7992888016	-2.8875583336	 0.146126469	-0.298328
N	-4.7544702868	-0.7912971841	-0.0671315508	-0.322061
C	-6.1242829669	-1.0414440301	-0.0105329821	 0.08305
N	-6.6375468946	-2.1868093627	 0.1562049824	-0.395129
H	-0.344611579	 1.5873609093	 1.0409769977	 0.292068
H	 0.3797117386	 0.0863386242	-1.2305612397	 0.155847
H	 0.6982539008	-0.4299348502	 0.4241165466	 0.135364
H	-4.4875538856	 0.1720084449	-0.1992213824	 0.263607
H	-6.681066596	-0.1030617492	-0.1295819373	 0.096865
H	-7.6534441583	-2.1078381179	 0.1626780531	 0.2317
24.1054	52.8706	63.9648	132.1194	175.8679	199.1588	243.3801	298.211	351.6527	392.6249	540.6103	575.8491	578.7243	654.3694	754.0434	825.2648	909.9866	958.1016	980.1131	1057.1316	1064.9077	1117.1794	1211.2697	1211.8444	1259.6525	1367.0738	1410.1173	1431.5486	1479.6199	1531.6032	1733.8064	1804.1951	2338.5617	2990.9013	3032.2921	3068.7882	3497.2695	3631.7749	3815.6116
OCC#CC(=O)NC=N	OCC#CC(=O)NC=N	
InChI=1S/C5H6N2O2/c6-4-7-5(9)2-1-3-8/h4,8H,3H2,(H2,6,7,9)	InChI=1S/C5H6N2O2/c6-4-7-5(9)2-1-3-8/h4,8H,3H2,(H2,6,7,9)
