16
gdb 46762	2.74037	1.93572	1.32864	0.7567	69.2	-0.2366	0.0101	0.2467	936.6345	0.128626	-434.097091	-434.090282	-434.089338	-434.128657	26.325	
N	-0.0352597001	 1.0647043476	 0.6350787448	-0.554778
C	 0.0082197237	-0.0483715916	 0.0401563682	 0.416716
O	 1.1118887896	-0.6111318545	-0.5132947935	-0.235813
C	 0.8270873537	-1.9111782361	-1.0664119266	-0.101362
C	-0.5593047222	-2.3183134281	-0.5458510382	-0.010005
N	-0.5061660128	-3.1415745914	 0.6769179644	-0.253457
C	-1.1738243469	-2.5050234674	 1.5626536233	 0.059573
N	-1.7931420482	-1.3217947386	 1.1850128032	-0.290463
C	-1.1924540116	-0.9757286642	-0.1052864197	-0.113829
H	 0.8834769157	 1.5101580483	 0.6538482253	 0.226893
H	 0.8527546955	-1.8338158855	-2.1586975402	 0.114595
H	 1.6028645902	-2.6022105585	-0.7313057291	 0.138458
H	-1.1242005924	-2.8500457118	-1.316965882	 0.097507
H	-1.3161679195	-2.8709462235	 2.5755371814	 0.13166
H	-1.8433899754	-0.5685315073	 1.860424619	 0.259093
H	-1.9277393591	-0.5535471475	-0.7928715502	 0.115211
86.9969	139.3694	241.2214	338.6197	460.9998	522.3233	566.6691	618.7389	672.5217	736.415	800.8444	859.2029	877.0163	893.0661	913.8838	956.013	966.3813	988.2443	1050.0205	1061.8663	1094.4154	1118.6274	1128.6754	1230.3673	1236.4757	1269.0643	1282.8867	1317.0072	1332.4968	1351.3707	1406.158	1419.3703	1511.3321	1676.4949	1771.4201	3045.4165	3066.822	3094.7076	3120.528	3188.0527	3476.4882	3571.7507
N=C1OCC2N=CNC12	[NH][C]1OC[C@H]2[N][CH]N[C@@H]12	
InChI=1S/C5H7N3O/c6-5-4-3(1-9-5)7-2-8-4/h2-4,6H,1H2,(H,7,8)	InChI=1S/C5H7N3O/c6-5-4-3(1-9-5)7-2-8-4/h2-4,6H,1H2,(H,7,8)/t3-,4-/m1/s1
