20
gdb 88695	3.32492	0.97328	0.82421	1.6137	86.89	-0.2397	0.0383	0.278	1439.6951	0.169603	-365.936879	-365.927468	-365.926524	-365.971652	35.433	
C	-0.1050162623	 1.5764173815	-0.0645998737	-0.406264
C	 0.0214176573	 0.0697221263	 0.0007277459	 0.003413
C	 1.333224382	-0.6185286715	-0.2844187489	-0.30731
C	 0.7567504145	-0.6482638381	 1.1135761694	 0.008661
C	 1.4339634604	 0.085521582	 2.2212319356	-0.02057
N	 0.7551390451	 0.1126550922	 3.5220248821	-0.334481
C	 2.0363706846	-0.6257313445	 3.3996592291	-0.260453
C	 1.99798775	-2.0543765167	 3.5489740592	 0.390644
C	 2.0024707698	-3.2506540032	 3.6706131015	-0.449024
H	 0.8193430238	 2.0801426176	 0.2341658178	 0.109614
H	-0.3331864275	 1.9012455137	-1.0857267988	 0.117037
H	-0.9071524541	 1.9386185052	 0.5879069386	 0.121814
H	-0.8635747055	-0.454320661	-0.35153033	 0.086319
H	 1.3418749254	-1.536540361	-0.8613312327	 0.112348
H	 2.1990657965	 0.0160082075	-0.452250258	 0.105214
H	 0.3212903395	-1.5880502968	 1.436202836	 0.100236
H	 1.9714640509	 0.9844426863	 1.9236722039	 0.084762
H	 0.9187192114	 0.995975117	 3.9984521913	 0.234341
H	 2.9202751099	-0.1581952331	 3.8295775232	 0.106914
H	 1.9952624783	-4.3064415333	 3.7826252083	 0.196787
37.6668	93.6238	145.5221	204.7604	209.1762	243.9144	313.4458	360.1547	416.8454	498.957	555.2498	601.2397	622.6135	657.8686	767.7472	778.994	832.0466	856.4866	864.5386	913.6038	936.1757	973.2442	983.9749	1037.3186	1062.5347	1071.8563	1110.2459	1140.1778	1149.7501	1194.3945	1199.2288	1223.8791	1234.2656	1275.9231	1334.0423	1400.2334	1411.2802	1421.8832	1474.7031	1494.1976	1495.4693	1509.9529	2239.0802	3029.5857	3089.5123	3096.6986	3113.9468	3123.006	3125.1135	3136.0985	3169.002	3209.7721	3501.0982	3504.879
CC1CC1C1NC1C#C	C[C@H]1C[C@H]1[C@H]1N[C@H]1C#C	
InChI=1S/C8H11N/c1-3-7-8(9-7)6-4-5(6)2/h1,5-9H,4H2,2H3	InChI=1S/C8H11N/c1-3-7-8(9-7)6-4-5(6)2/h1,5-9H,4H2,2H3/t5-,6+,7-,8+/m0/s1
