14
gdb 128048	7.08854	0.79058	0.71552	1.8031	68.86	-0.2702	-0.0379	0.2323	1502.9472	0.100464	-469.990549	-469.982492	-469.981548	-470.02474	27.523	
C	-0.035573144	 1.3775442007	 0.0796423672	-0.321216
N	 0.2397584672	-0.0451446392	 0.1207572918	-0.184332
C	 0.5444404226	-0.6066014828	-0.9533742456	 0.10972
O	 0.7741864496	-1.9685796498	-0.9312354082	-0.219767
C	 1.2636198871	-2.544846011	-2.0315256196	 0.481366
N	 1.7113180735	-1.9050661271	-3.0855570723	-0.223212
O	 2.1010920922	-2.956880315	-3.9313408336	-0.155685
C	 1.8439802228	-4.0824610949	-3.2673070607	 0.121418
N	 1.3278943343	-3.9131442546	-2.0926310197	-0.317685
H	 0.6450939403	 1.8933713868	 0.7649032077	 0.140373
H	 0.0638023921	 1.8262704758	-0.9202935927	 0.109712
H	-1.0526080165	 1.5558605268	 0.4444002701	 0.140024
H	 0.6418458529	-0.1545942629	-1.9438859847	 0.142594
H	 2.0843092359	-5.0124858927	-3.7612922197	 0.176688
36.4335	71.1107	129.72	207.5886	288.3047	325.7376	361.5896	408.5273	564.3232	616.7216	772.2902	808.6423	911.3213	939.3151	970.0336	978.5759	1028.493	1067.4409	1137.1226	1141.1278	1154.9187	1182.7752	1310.7337	1381.7335	1400.6698	1447.393	1480.4015	1502.558	1546.3737	1612.2188	1788.3272	2987.9776	3075.2702	3094.0572	3099.2919	3269.5955
CN=COC1=NOC=N1	CN=COc1nocn1	
InChI=1S/C4H5N3O2/c1-5-2-8-4-6-3-9-7-4/h2-3H,1H3	InChI=1S/C4H5N3O2/c1-5-2-8-4-6-3-9-7-4/h2-3H,1H3
