15
gdb 21191	7.05405	1.31162	1.12358	2.9722	64.88	-0.2281	0.0167	0.2447	1047.6664	0.1192	-395.997447	-395.989418	-395.988474	-396.030097	27.909	
C	 0.0862979794	 1.4408713995	-0.0061477487	-0.332966
N	 0.0031195888	-0.0078302412	 0.0632739931	-0.391334
C	 0.6062758398	-0.726716197	 1.032616169	 0.532789
N	 0.7702996849	-2.0252990296	 1.070818489	-0.414508
C	 1.38811712	-2.1861704625	 2.287695373	 0.370581
C	 1.7938196981	-3.5181622881	 2.8187775082	-0.486403
N	 1.604849047	-1.0876706085	 2.9633530001	-0.19768
O	 1.0732922924	-0.0784088944	 2.1045249442	-0.219539
H	 1.0788877842	 1.7966896891	-0.3118656181	 0.135579
H	-0.6535817253	 1.7997262462	-0.7240379464	 0.137126
H	-0.1451286691	 1.868247864	 0.9715620791	 0.162639
H	-0.1763003846	-0.5241603972	-0.7822712449	 0.268586
H	 2.4914854341	-4.0033050044	 2.1295075206	 0.144069
H	 2.2686582157	-3.4090544122	 3.7948386008	 0.14621
H	 0.9199465546	-4.1698270937	 2.9127705508	 0.144849
87.3881	113.9852	141.3641	192.5695	214.4956	321.7687	359.3728	445.4903	525.4487	659.8937	668.2032	761.4216	772.5163	893.3916	997.3455	1020.3981	1047.1865	1069.8394	1102.3293	1154.6155	1188.7205	1360.3878	1394.0723	1431.321	1441.1931	1473.2461	1475.3375	1483.4179	1492.376	1516.0267	1598.5741	1686.7842	3019.4729	3050.7471	3103.7901	3110.5473	3143.8712	3149.8364	3653.867
CNC1=NC(C)=NO1	CNc1nc(C)no1	
InChI=1S/C4H7N3O/c1-3-6-4(5-2)8-7-3/h1-2H3,(H,5,6,7)	InChI=1S/C4H7N3O/c1-3-6-4(5-2)8-7-3/h1-2H3,(H,5,6,7)
