13
gdb 5217	8.25636	1.21609	1.06003	2.9297	69.23	-0.2003	-0.0142	0.1861	1039.2127	0.096969	-394.823206	-394.815873	-394.814929	-394.855573	25.439	
N	-0.0993081785	 1.3528539679	-0.0301055528	-0.492705
C	-0.0687184027	 0.0048685884	-0.0052086819	 0.138676
N	-1.1495493003	-0.6932391183	-0.0078061667	-0.361028
C	-1.0057192068	-2.0531616157	-0.0084500688	 0.469961
N	 0.0635636232	-2.8048446052	-0.0230829396	-0.348728
C	-0.4260330037	-4.100564546	-0.013286549	-0.113672
C	-1.7784314122	-4.0696537468	 0.0060831255	-0.051178
O	-2.1665216259	-2.7571902367	 0.0092278527	-0.180415
H	 0.7418146909	 1.8914334141	 0.0634480225	 0.271716
H	-0.9880619104	 1.8246914669	 0.0141333877	 0.272429
H	 0.9302847539	-0.4392315571	 0.0034045974	 0.14275
H	 0.229992594	-4.9570952161	-0.021757094	 0.115116
H	-2.5630751017	-4.8055154253	 0.018039797	 0.137079
56.5401	116.1367	159.8135	168.9072	364.5484	439.4232	489.3366	618.1053	626.7731	723.1856	777.8705	795.9619	857.9644	934.9203	970.473	1038.0389	1095.5635	1110.5266	1152.3122	1184.4637	1263.5645	1317.8172	1361.646	1438.3656	1549.1528	1582.0569	1626.0464	1720.2118	3102.5299	3254.9309	3301.3806	3611.9871	3753.932
NC=NC1=NC=CO1	NC=Nc1ncco1	
InChI=1S/C4H5N3O/c5-3-7-4-6-1-2-8-4/h1-3H,(H2,5,6,7)	InChI=1S/C4H5N3O/c5-3-7-4-6-1-2-8-4/h1-3H,(H2,5,6,7)
