18
gdb 30953	2.37908	1.40477	0.93302	3.2936	78.26	-0.1839	0.0361	0.22	1266.6497	0.147347	-435.291508	-435.281966	-435.281022	-435.32613	34.343	
C	-0.4863757574	 1.1967958014	-0.0952799987	-0.328335
N	 0.4542772392	 0.1028429683	 0.1846413746	-0.385884
C	 0.8120979699	-0.6831718517	-0.8961747679	 0.202212
C	 0.6024620628	-1.9812532625	-1.1607306766	 0.293863
C	-0.0782854376	-3.0257430392	-0.3525604694	-0.504784
N	 1.1645957161	-2.2274286788	-2.4147957503	-0.396106
C	 1.7329718794	-1.0778530013	-2.9235248869	 0.456641
N	 2.3344731453	-0.9690052616	-4.0358053294	-0.612066
O	 1.5106750496	-0.1012917228	-1.9823885338	-0.247028
H	-0.1070995884	 1.9285545621	-0.8215921351	 0.124365
H	-1.4150418203	 0.7730747899	-0.4874777216	 0.131532
H	-0.7141229335	 1.7152152905	 0.8402347623	 0.120885
H	 1.2662046138	 0.4517329019	 0.6841380845	 0.235366
H	-0.9428522141	-3.4451402417	-0.8809782042	 0.134168
H	 0.597149237	-3.8572201513	-0.117381843	 0.1333
H	-0.4235144188	-2.5846249139	 0.5839716466	 0.154537
H	 1.2125258683	-3.1069754198	-2.8960880707	 0.268284
H	 2.6587361286	-0.0154592494	-4.1722767705	 0.219049
67.2865	103.0055	140.6214	166.7929	197.0811	239.4212	252.2493	299.9872	355.1021	453.6568	544.3567	617.3407	617.9723	643.317	713.9282	750.7255	754.9452	821.3031	951.5521	992.0542	1023.0195	1044.7774	1070.3366	1089.3533	1147.8196	1170.5164	1256.2345	1298.55	1353.4122	1408.6777	1441.9701	1457.2123	1473.0792	1481.4545	1489.3686	1495.5589	1519.8731	1771.076	1803.0412	3008.8344	3024.2827	3071.2636	3084.6903	3120.226	3140.9828	3505.9978	3540.2055	3703.2144
CNC1=C(C)NC(=N)O1	CNC1=C(C)N[C@H]([NH])O1	
InChI=1S/C5H9N3O/c1-3-4(7-2)9-5(6)8-3/h7H,1-2H3,(H2,6,8)	InChI=1S/C5H10N3O/c1-3-4(7-2)9-5(6)8-3/h5-8H,1-2H3/t5-/m0/s1
