16
gdb 20238	3.38748	3.14571	2.61097	0.1844	65.42	-0.2108	0.0868	0.2976	635.9615	0.135282	-342.751679	-342.746651	-342.745706	-342.780418	21.748	
C	-0.0171692346	 1.4797429247	 0.1765498078	-0.184925
C	 1.4189846958	 1.9407795471	 0.0084902393	-0.045063
C	 2.2869140705	 0.7270973705	-0.0121653962	-0.060642
C	 1.3554771	-0.4629669829	-0.0720812659	-0.060642
C	 0.6064588865	-0.3474203865	-1.3575284331	-0.045063
C	 1.2333062047	 0.7789131769	-2.1586336272	-0.184925
N	 2.0956361022	 1.5396020791	-1.2353416275	-0.118914
N	-0.0408990765	 0.0296750159	-0.0907815182	-0.118914
H	-0.3602292234	 1.6545270114	 1.2023768422	 0.112826
H	-0.7149819373	 1.9928064031	-0.4956669871	 0.112515
H	 1.734046649	 2.8960029374	 0.421829001	 0.091612
H	 3.2805785773	 0.6594035403	 0.414299512	 0.092591
H	 1.5708334425	-1.3891603865	 0.4471596597	 0.092591
H	 0.1629907792	-1.197088931	-1.8713027106	 0.091612
H	 1.8523450019	 0.3772599738	-2.9685880942	 0.112826
H	 0.4926056422	 1.4483938568	-2.6116351519	 0.112515
312.0579	433.8267	454.7171	632.7734	716.6074	729.0836	753.4637	778.9964	789.6553	794.6198	884.4363	916.8092	942.8681	957.4677	969.7083	1010.8289	1035.8256	1048.2173	1073.6304	1085.9989	1111.2899	1118.3482	1219.5256	1232.4317	1248.6799	1257.1901	1303.1017	1303.888	1314.919	1331.1509	1354.7269	1415.3228	1487.5447	1508.2689	3033.8389	3038.3015	3071.093	3073.1205	3132.7972	3134.6544	3178.9606	3191.0368
C1C2C3C4C(CN23)N14	C1[C@H]2[C@H]3[C@@H]4[C@H](CN23)N14	
InChI=1S/C6H8N2/c1-3-5-6-4(7(1)6)2-8(3)5/h3-6H,1-2H2	InChI=1S/C6H8N2/c1-3-5-6-4(7(1)6)2-8(3)5/h3-6H,1-2H2/t3-,4-,5-,6-,7?,8?/m0/s1
