18
gdb 31518	3.28119	1.03623	0.83682	1.2555	76.68	-0.1681	0.0551	0.2232	1385.0563	0.146717	-439.116601	-439.106975	-439.106031	-439.151132	35.386	
C	 0.0734370334	 1.5072470215	-0.2856701752	-0.363613
C	-0.0150860934	 0.0271787722	 0.1314376368	-0.298205
C	-1.4076399677	-0.5137198553	 0.1792649328	 0.322749
C	-2.1980199216	-0.8921879499	 1.2403177249	-0.357397
C	-3.4607272742	-1.3070636748	 0.715896089	 0.1522
O	-4.5625706968	-1.8345465623	 1.3619205984	-0.464177
C	-3.3971835076	-1.1739071345	-0.6474824355	 0.307587
O	-4.3023976356	-1.4452129022	-1.6207741243	-0.445583
N	-2.1576389189	-0.6995700312	-0.9742744424	-0.360701
H	 1.1135384066	 1.8490236097	-0.3017942376	 0.110141
H	-0.3444678711	 1.6664663827	-1.2854936264	 0.10794
H	-0.4868130814	 2.1394797403	 0.4095966371	 0.122215
H	 0.6045463897	-0.5737617794	-0.5498653724	 0.099488
H	 0.4253323794	-0.096734957	 1.1260557703	 0.112891
H	-1.9058948834	-0.8786694379	 2.2797159637	 0.089988
H	-4.8789948849	-1.19268448	 2.0060784974	 0.294528
H	-5.0815160671	-1.7962526212	-1.1725976651	 0.308427
H	-1.8480277253	-0.5330807806	-1.9158662715	 0.261523
48.5729	116.169	194.2051	205.6998	245.6224	264.8741	268.7753	305.2403	348.9109	369.4861	410.1687	514.1906	580.3688	657.8812	664.9055	682.0126	767.096	784.7946	816.7002	947.8977	1015.8469	1063.1978	1081.531	1139.0383	1162.8626	1190.4707	1246.8228	1278.968	1303.2862	1352.1054	1396.5489	1406.457	1433.8448	1478.3304	1495.8663	1503.7066	1556.7788	1573.5384	1692.208	2999.7961	3031.7697	3070.7588	3100.2201	3111.4877	3240.9153	3681.8045	3796.1956	3803.5719
CCC1=CC(O)=C(O)N1	CCc1cc(O)c(O)[nH]1	
InChI=1S/C6H9NO2/c1-2-4-3-5(8)6(9)7-4/h3,7-9H,2H2,1H3	InChI=1S/C6H9NO2/c1-2-4-3-5(8)6(9)7-4/h3,7-9H,2H2,1H3
