15
gdb 18492	6.11529	1.24996	1.16778	5.4442	65.04	-0.2549	0.0327	0.2876	1008.4045	0.119032	-362.628836	-362.621779	-362.620835	-362.6606	26.125	
N	 0.0557907848	-1.1259689921	-0.5188419366	-0.301195
C	 0.0132412731	 0.0002679027	-0.2652986204	 0.26607
C	-0.0309504962	 1.4218827791	 0.0703926275	-0.356618
C	 1.349338768	 2.0828345011	 0.0152345245	 0.140478
O	 1.9177576693	 2.1312933133	-1.3188330305	-0.293522
C	 2.1695186411	 3.5337984209	-1.1692985685	 0.118416
C	 0.8900930788	 4.2913704552	-1.0596943038	-0.301318
C	 1.4611233182	 3.5982042819	 0.1654299482	-0.159461
H	-0.7185389112	 1.9284936738	-0.613125402	 0.154942
H	-0.4337394806	 1.5313263398	 1.0844757029	 0.155226
H	 2.0394170331	 1.5567823332	 0.6853793273	 0.106409
H	 3.1211256025	 3.91799921	-1.5151147052	 0.115615
H	 0.9865858669	 5.372272154	-1.0312883324	 0.124631
H	 0.0021995849	 3.9254722289	-1.5667980275	 0.121322
H	 1.7148790773	 4.1220200081	 1.0763426467	 0.109005
66.2202	123.3095	212.0443	308.1122	389.3649	444.7431	492.7621	542.1053	723.7354	770.9159	818.3688	848.1108	941.3116	948.9077	970.1765	997.1124	1019.5077	1043.3274	1051.0842	1074.6167	1085.9818	1103.9543	1199.2811	1229.9429	1261.3092	1278.4334	1321.2918	1368.2132	1396.2645	1448.884	1475.4146	2365.9719	3039.3366	3048.3299	3102.1884	3122.0987	3192.5638	3207.2814	3216.3291
N#CCC1OC2CC12	N#CC[C@H]1O[C@H]2C[C@@H]12	
InChI=1S/C6H7NO/c7-2-1-5-4-3-6(4)8-5/h4-6H,1,3H2	InChI=1S/C6H7NO/c7-2-1-5-4-3-6(4)8-5/h4-6H,1,3H2/t4-,5+,6-/m0/s1
