19
gdb 73403	2.67533	2.00368	1.51281	1.2947	73.88	-0.2175	0.0931	0.3106	931.3176	0.161079	-423.00814	-423.001066	-423.000122	-423.039155	29.097	
C	 0.028116032	 1.5438873423	-0.1172212066	-0.503006
C	 0.0302383074	 0.0504630783	 0.0333807142	 0.456315
O	 0.45394356	-0.5968846308	-1.1648454801	-0.323667
C	 0.3623830022	-1.9945009521	-0.8223644453	-0.105085
C	-0.1273827799	-1.9022205546	 0.6142999051	-0.102464
C	 0.723590535	-0.727940807	 1.214087533	-0.133928
C	-0.0809723773	-0.307349439	 2.4350528647	-0.107255
O	-1.4227936394	-0.3380120935	 1.8938566718	-0.283141
C	-1.1946213481	-0.7651932497	 0.5584006039	 0.064504
H	 1.0443691005	 1.9270788183	-0.2524690167	 0.125689
H	-0.5612313661	 1.831010063	-0.9933104354	 0.131471
H	-0.4142499562	 2.0151542313	 0.7640859816	 0.13397
H	-0.3431594193	-2.5012331377	-1.492626998	 0.10286
H	 1.3449065034	-2.4724413063	-0.9225857616	 0.102424
H	-0.3076320132	-2.821968093	 1.1702734846	 0.07597
H	 1.8095038326	-0.7852294986	 1.2931216869	 0.07407
H	-0.0016790638	-1.005582541	 3.2775521799	 0.103413
H	 0.1572284859	 0.7013940853	 2.7929819796	 0.103795
H	-2.1339613958	-0.8472753451	 0.0123038983	 0.084068
183.6886	231.4231	252.9016	296.0504	341.0318	408.1557	429.47	609.0468	646.9702	685.1396	698.1944	772.5857	901.7078	913.2797	933.0126	944.1117	955.161	966.7366	999.9904	1009.683	1024.8882	1032.2795	1082.9763	1100.0596	1144.346	1156.7169	1172.6606	1194.4928	1221.4691	1235.9372	1248.3091	1267.7211	1317.9283	1329.3825	1364.1343	1392.6138	1417.4794	1480.9432	1493.2615	1528.8656	1529.7181	3014.6489	3017.9155	3043.1481	3050.278	3054.4153	3109.9539	3117.2293	3123.2874	3126.3264	3133.6566
CC12OCC3C1COC23	C[C@@]12OC[C@H]3[C@@H]1CO[C@@H]23	
InChI=1S/C7H10O2/c1-7-5-3-8-6(7)4(5)2-9-7/h4-6H,2-3H2,1H3	InChI=1S/C7H10O2/c1-7-5-3-8-6(7)4(5)2-9-7/h4-6H,2-3H2,1H3/t4-,5-,6+,7+/m0/s1
