21
gdb 95819	2.73262	1.31081	1.08517	2.187	81.43	-0.2428	0.0178	0.2605	1219.7233	0.182664	-424.22521	-424.216237	-424.215292	-424.258759	34.395	
C	-0.7741617325	 1.2082985262	 1.106765308	-0.390992
C	-0.0503407901	-0.1282218306	 0.8548374558	 0.060359
O	 0.1311299644	-0.3532857503	-0.5377828718	-0.241971
C	 1.2237100236	 0.2701900712	-1.1504639599	 0.001738
O	 2.3937978881	-0.4925059758	-1.0666758001	-0.241971
C	 3.1965076281	-0.3279985781	 0.0958952139	 0.06036
C	 4.1070871233	 0.9079577449	-0.0342132121	-0.390992
C	 2.4726003779	-0.3248819773	 1.4168829595	-0.076352
C	 1.1774774675	-0.24519381	 1.7196145864	-0.076354
H	-0.1455911431	 2.0603259494	 0.8302600818	 0.119192
H	-1.6930848866	 1.2438105094	 0.5158170302	 0.125078
H	-1.0341828344	 1.3156033179	 2.1644567132	 0.116167
H	-0.735713704	-0.9313287378	 1.1585287119	 0.098683
H	 0.9784425974	 0.325342167	-2.2142655026	 0.113094
H	 1.3781479442	 1.2865007185	-0.7572826507	 0.079881
H	 3.8469798015	-1.2132996052	 0.0873362398	 0.098683
H	 3.5248418886	 1.834486145	-0.0276936292	 0.119192
H	 4.8180494856	 0.9555183147	 0.7965135656	 0.116167
H	 4.6676768162	 0.8524359585	-0.9709934845	 0.125078
H	 3.1661643702	-0.3776859042	 2.2558487794	 0.092481
H	 0.9249045643	-0.2397823532	 2.7797373953	 0.092481
63.8129	140.6715	205.9569	235.908	236.1345	272.0649	339.6711	351.464	381.4191	431.0631	543.226	588.5174	642.3469	724.0519	784.9711	802.1539	830.5418	897.4755	938.9925	988.1142	1010.6806	1018.385	1077.4114	1083.9155	1088.8945	1092.6784	1157.0552	1169.7854	1207.1604	1295.3633	1326.4688	1334.0107	1334.3413	1389.187	1395.3893	1396.237	1402.2757	1425.7052	1449.1396	1485.5212	1489.3832	1495.123	1495.5159	1503.0876	1745.3886	2985.612	3012.0287	3012.6836	3040.0756	3040.8485	3095.3515	3109.6155	3111.6521	3117.2828	3123.9629	3124.3253	3140.0175
CC1OCOC(C)C=C1	C[C@H]1OCO[C@@H](C)C=C1	
InChI=1S/C7H12O2/c1-6-3-4-7(2)9-5-8-6/h3-4,6-7H,5H2,1-2H3	InChI=1S/C7H12O2/c1-6-3-4-7(2)9-5-8-6/h3-4,6-7H,5H2,1-2H3/t6-,7+
