17
gdb 54556	3.09134	1.59905	1.21687	1.6823	72.96	-0.2444	-0.0288	0.2156	1029.5475	0.134031	-421.750668	-421.74272	-421.741775	-421.784044	29.783	
C	-0.1052102836	 1.4257291243	-0.4005016264	-0.487495
C	-0.0368429931	 0.0040457168	 0.1031595126	 0.251535
O	 0.9775529298	-0.5313486181	 0.4925749127	-0.306734
C	-1.3286778624	-0.7562638902	 0.1053109003	 0.390864
O	-2.5680819375	-0.1387394488	-0.3560263579	-0.364784
C	-2.9493450964	-1.493646017	 0.0332187899	 0.063814
C	-1.6511673559	-2.1675994027	-0.5073406032	-0.119944
C	-1.3762833562	-2.8887137935	 0.8288543937	-0.274114
C	-2.0093951497	-1.5544613899	 1.2759996389	-0.119926
H	 0.8842758158	 1.8818981208	-0.3614706471	 0.139662
H	-0.4953583957	 1.4389913761	-1.4240579635	 0.15458
H	-0.8173010275	 1.9993879182	 0.2028499663	 0.154648
H	-3.9917234534	-1.7908912902	-0.0739765207	 0.101667
H	-1.44967059	-2.4744752099	-1.5332710845	 0.092051
H	-1.96175949	-3.7917179575	 1.0216937527	 0.099156
H	-0.327734015	-3.0340956214	 1.0894809683	 0.132967
H	-2.2143006891	-1.1658300871	 2.273136768	 0.092053
33.6979	122.8657	152.7804	194.661	302.1829	416.8501	481.6983	524.9624	579.4695	614.9371	734.4033	773.5019	820.1373	852.4459	888.025	895.9832	906.8917	942.9322	1007.8759	1011.4317	1045.0636	1062.2543	1071.8662	1109.8569	1148.0209	1150.7768	1168.3102	1177.4106	1243.0306	1251.7521	1288.6391	1355.7431	1385.9308	1454.8166	1461.8828	1509.0569	1798.5704	3041.7626	3064.27	3102.2175	3121.4488	3126.09	3136.9229	3140.3312	3159.1064
CC(=O)C12OC3C1CC23	CC(=O)[C@@]12O[C@H]3[C@@H]1C[C@@H]23	
InChI=1S/C7H8O2/c1-3(8)7-4-2-5(7)6(4)9-7/h4-6H,2H2,1H3	InChI=1S/C7H8O2/c1-3(8)7-4-2-5(7)6(4)9-7/h4-6H,2H2,1H3/t4-,5+,6-,7+
