21
gdb 81484	3.02516	1.48627	1.40275	1.5997	80.6	-0.2436	0.0733	0.3169	1037.163	0.185571	-387.057311	-387.050038	-387.049094	-387.088501	30.812	
O	 0.0297029803	 1.4930264731	-0.1583321054	-0.462646
C	-0.0104464236	 0.0861527075	-0.0871363986	 0.18436
C	 0.2218976624	-0.5621177426	 1.3150049729	-0.078848
C	-1.2932522143	-0.2666485325	 1.5798446437	-0.262668
C	-1.4170302922	-0.5793562113	 0.0501315502	-0.078866
C	-1.0951859959	-2.0839509366	 0.0581483053	 0.004099
C	-0.2100448035	-2.6958404818	-1.0678097101	-0.246851
C	 1.0253906676	-2.6828444012	-0.1143459822	-0.246851
C	 0.1524464011	-2.0708263868	 1.0210265168	 0.004099
H	-0.5155972344	 1.8626450334	 0.5427226482	 0.278399
H	 0.6268787401	-0.2433016677	-0.9084323127	 0.078446
H	 1.0117931645	-0.1980237455	 1.9739143956	 0.060564
H	-1.8240030589	-0.9222997624	 2.2764791744	 0.094642
H	-1.5093112701	 0.7716624843	 1.8456667853	 0.083289
H	-2.2592997176	-0.2324397051	-0.5506137118	 0.060561
H	-1.9578203499	-2.6869625003	 0.3503084396	 0.064852
H	-0.5219580954	-3.6996124775	-1.3657684575	 0.096974
H	-0.1189025799	-2.0920471003	-1.9749342622	 0.10231
H	 1.4058515843	-3.6793349671	 0.1220519989	 0.096974
H	 1.8717927024	-2.071112763	-0.4385926975	 0.10231
H	 0.0963384729	-2.6653596665	 1.9356306972	 0.064851
198.6945	208.9765	217.2848	334.5536	364.7233	365.2226	481.169	544.2478	593.4327	745.3239	748.2912	801.7638	829.4757	853.4589	853.7166	875.9939	919.5974	925.5159	950.9423	992.5328	1009.1626	1025.3274	1038.0956	1048.4383	1072.4266	1087.076	1110.011	1143.7486	1162.0643	1206.4029	1225.2638	1240.3996	1241.1882	1252.9681	1253.4	1262.9392	1279.0642	1282.8495	1316.6159	1328.5222	1338.3667	1460.4077	1480.0592	1498.1866	1520.0434	3053.8643	3055.061	3060.2436	3068.5026	3079.7065	3096.7823	3098.0587	3102.4479	3102.8768	3110.274	3117.0279	3823.6086
OC1C2CC1C1CCC21	O[C@H]1[C@H]2C[C@@H]1[C@H]1CC[C@@H]21	
InChI=1S/C8H12O/c9-8-6-3-7(8)5-2-1-4(5)6/h4-9H,1-3H2	InChI=1S/C8H12O/c9-8-6-3-7(8)5-2-1-4(5)6/h4-9H,1-3H2/t4-,5+,6+,7-,8+
