19
gdb 80694	2.17736	1.38803	1.22143	4.2603	76.43	-0.2286	-0.0156	0.213	1143.9585	0.157463	-423.003518	-422.994332	-422.993387	-423.037709	33.998	
C	-0.0711278899	 1.5089733168	-0.0499251507	-0.493658
C	 0.0072491897	 0.0090582754	 0.011255073	 0.28014
C	-0.8562041261	-0.816783662	 0.9071991213	 0.054625
O	-1.6661205142	-1.8423316461	 0.3986132436	-0.418045
C	 0.6275256356	-0.9483246661	 1.0732567906	-0.166331
C	 1.198509929	-1.8343609322	-0.0379252489	-0.264132
C	 0.6534401751	-0.8372620934	-1.1151647498	-0.113716
C	-0.2252538525	-1.3531623081	-2.2311354284	 0.133204
O	-0.0597658765	-1.0647599615	-3.3921610161	-0.261319
H	 0.8989514803	 1.9468937525	-0.3094844	 0.123126
H	-0.7945078667	 1.8335181065	-0.8073544763	 0.134142
H	-0.3838615886	 1.9306456847	 0.9106406412	 0.119745
H	-1.3359018141	-0.2236391487	 1.6874179238	 0.090625
H	-1.7325879947	-2.5317473128	 1.0687304126	 0.288114
H	 1.1260812403	-0.7112908709	 2.0066795731	 0.08824
H	 2.287815742	-1.8855520141	-0.0481463415	 0.114182
H	 0.7963924967	-2.8511273083	-0.0792581352	 0.101048
H	 1.4713323853	-0.2771784965	-1.5758474251	 0.090753
H	-1.0487363406	-2.021832445	-1.9119741773	 0.099256
43.4438	130.967	184.2332	207.1833	224.333	267.8859	304.1687	307.3279	352.3275	446.3991	509.3891	577.9551	630.416	767.7397	777.7196	844.8035	891.0491	933.8858	967.1094	1000.4277	1010.6693	1066.2105	1075.2747	1093.8882	1112.5637	1160.4836	1172.3754	1218.8312	1236.9772	1266.7877	1286.6886	1297.2191	1319.1911	1348.1035	1416.9839	1424.5232	1468.6191	1484.4965	1491.8068	1504.0413	1812.9894	2949.5486	3024.7844	3056.751	3078.5733	3085.974	3092.3294	3101.7105	3123.9469	3171.4165	3795.882
CC12C(O)C1CC2C=O	C[C@]12[C@@H](O)[C@H]1C[C@H]2C=O	
InChI=1S/C7H10O2/c1-7-4(3-8)2-5(7)6(7)9/h3-6,9H,2H2,1H3	InChI=1S/C7H10O2/c1-7-4(3-8)2-5(7)6(7)9/h3-6,9H,2H2,1H3/t4-,5+,6-,7+/m0/s1
