19
gdb 47548	2.65989	1.51095	1.04559	4.0115	75.64	-0.2364	0.0311	0.2675	1137.4509	0.162983	-419.221224	-419.213396	-419.212452	-419.253798	30.5	
O	-0.0245019073	-0.0769975598	 0.3016686356	-0.367829
C	-0.0487177738	 1.1246738646	 0.0967394199	 0.368319
C	-1.3679006065	 1.8437405073	-0.1875056226	-0.308349
C	-1.3656647775	 2.7271118875	-1.4180139261	-0.031235
N	-1.9715763586	 4.0674114589	-1.2701659272	-0.344273
C	-0.5155585002	 3.9402515282	-1.4469907937	-0.008487
C	 0.3669138464	 4.238385542	-0.2537482455	-0.222415
C	 1.506057336	 3.2249288352	-0.1347474739	-0.143658
N	 1.1148724871	 1.8519260666	 0.187801035	-0.299793
H	-2.1208226357	 1.057374832	-0.2666913702	 0.126776
H	-1.6291304891	 2.4544160404	 0.6821934213	 0.132091
H	-1.519839344	 2.2087978805	-2.3616580314	 0.092897
H	-2.4059006213	 4.3539571261	-2.1437014122	 0.23292
H	-0.0976287308	 4.2256731901	-2.4111095579	 0.084737
H	 0.8133203455	 5.2346209805	-0.3496884174	 0.105365
H	-0.2345919727	 4.2527257186	 0.6586175278	 0.122967
H	 2.0791619391	 3.2307662826	-1.0753784223	 0.105752
H	 2.1959236935	 3.559384194	 0.6494981362	 0.112354
H	 1.8897263999	 1.2339214346	 0.3882913847	 0.24186
88.059	103.2025	223.6636	293.0279	325.2337	360.5835	458.3504	498.3869	523.6185	589.8096	651.3559	700.0443	780.0549	830.7469	834.295	904.4609	913.2565	956.9651	979.4749	990.7814	1024.2542	1063.1025	1127.3532	1141.0829	1158.9344	1182.8461	1245.4445	1256.3464	1267.8095	1286.9973	1314.6944	1346.545	1360.2426	1406.5299	1416.5357	1469.1588	1474.8856	1495.1771	1500.5622	1529.5468	1770.1621	2977.1479	3036.3529	3050.9901	3066.359	3100.506	3118.0471	3119.6978	3137.882	3503.6659	3587.1382
O=C1CC2NC2CCN1	O=C1C[C@H]2N[C@H]2CCN1	
InChI=1S/C6H10N2O/c9-6-3-5-4(8-5)1-2-7-6/h4-5,8H,1-3H2,(H,7,9)	InChI=1S/C6H10N2O/c9-6-3-5-4(8-5)1-2-7-6/h4-5,8H,1-3H2,(H,7,9)/t4-,5+/m0/s1
