19
gdb 105667	1.82448	1.51747	1.22307	2.8511	71.28	-0.2416	-0.0321	0.2095	1158.0933	0.156817	-460.146585	-460.136846	-460.135902	-460.181985	34.591	
C	-0.4801021328	 1.1827564119	-0.1928898326	-0.426624
C	 0.2382584658	-0.1560531832	-0.098257007	-0.099861
C	 1.7048479519	-0.2303792707	-0.5759329084	-0.082096
O	 2.1525860863	-0.7717621576	 0.6951442569	-0.345215
C	 0.8081916747	-0.6508147638	 1.2548704429	 0.288017
C	 0.8669615374	 0.2896660892	 2.4617406376	-0.122952
O	 1.8641710837	-0.1542012966	 3.3608211698	-0.421526
C	 0.3535004049	-2.0435514583	 1.6751613849	 0.132503
O	-0.643714223	-2.5792906377	 1.2635861568	-0.251658
H	 0.1258527878	 2.0098116349	 0.1898737774	 0.121388
H	-0.7177096436	 1.407575682	-1.2379236146	 0.125336
H	-1.4241632142	 1.1665933132	 0.3608903487	 0.131073
H	-0.3842307332	-0.9394987371	-0.53559182	 0.110674
H	 1.9226873177	-0.9153109285	-1.4017347505	 0.115739
H	 2.1712067974	 0.7412871216	-0.7798480159	 0.105907
H	 1.0634526277	 1.3160498267	 2.1193699093	 0.094469
H	-0.0845261372	 0.292529583	 3.0046679939	 0.123322
H	 2.669428677	-0.242497663	 2.834162548	 0.296404
H	 1.0374277018	-2.540471106	 2.3924042128	 0.105101
44.2681	70.2283	119.7646	178.192	189.8226	222.0813	262.556	309.43	361.7926	403.2701	486.7143	504.1915	609.7327	700.1985	750.2092	869.9621	901.5978	919.6594	974.676	998.307	1011.1615	1064.5845	1088.2787	1116.6788	1145.3343	1165.0662	1200.0946	1212.3674	1233.7616	1291.3619	1336.7183	1378.9357	1403.0958	1405.2457	1418.0049	1427.2794	1493.0054	1500.2421	1502.262	1522.7788	1826.8982	2936.8229	2996.2978	3023.7475	3035.9914	3073.552	3074.7237	3088.5588	3102.5684	3111.6933	3771.0069
CC1COC1(CO)C=O	C[C@H]1CO[C@]1(CO)C=O	
InChI=1S/C6H10O3/c1-5-2-9-6(5,3-7)4-8/h3,5,8H,2,4H2,1H3	InChI=1S/C6H10O3/c1-5-2-9-6(5,3-7)4-8/h3,5,8H,2,4H2,1H3/t5-,6-/m0/s1
