17
gdb 38106	2.60146	2.27605	1.65713	2.271	75.78	-0.2249	-0.0078	0.2171	853.6731	0.138384	-384.634959	-384.628756	-384.627812	-384.664965	26.982	
C	 0.0105656843	 1.5192061206	-0.0146327725	-0.256837
C	 1.5427410158	 1.713591122	-0.0161710895	-0.105834
C	 1.9267486547	 0.6500005137	 1.0537250233	-0.075749
C	 1.0115708757	-0.3293769774	 1.0921141895	-0.191082
C	 0.0890851019	-0.0039523302	-0.0610327593	 0.346047
O	-0.8208906697	-0.7068597394	-0.8830824676	-0.321736
C	 0.568262372	-0.5650361695	-1.3258099823	 0.015351
C	 1.3067095181	 0.4225362192	-2.1679325324	-0.158094
C	 1.9357780802	 1.3870131142	-1.4696095467	-0.042324
H	-0.4551550361	 1.8566708366	 0.9161680008	 0.096645
H	-0.4920435734	 1.9581299435	-0.8755145604	 0.107936
H	 1.8916125349	 2.7121441829	 0.2538382686	 0.068796
H	 2.8262251088	 0.713643619	 1.6527865868	 0.104336
H	 1.0155223821	-1.2257510948	 1.697347358	 0.113207
H	 1.0606129433	-1.5377040762	-1.2774580389	 0.104937
H	 1.5224156715	 0.2368396789	-3.2164687758	 0.094043
H	 2.6666210158	 2.0298157968	-1.9533450915	 0.10036
258.5675	316.8051	373.506	449.1845	459.9323	502.7328	559.9988	611.8535	681.1017	710.7702	720.2693	790.6301	836.6736	871.7604	890.9693	919.3132	935.7132	943.1769	961.5811	982.1455	998.9783	1048.2845	1081.1807	1112.5119	1143.3579	1184.9742	1196.0371	1223.5708	1287.4853	1306.8619	1321.0741	1345.549	1381.865	1457.689	1494.1205	1607.9347	1630.1651	3059.2523	3087.7513	3088.9571	3143.9499	3151.5833	3174.3048	3205.6928	3233.749
C1C2C=CC11OC1C=C2	C1[C@H]2C=C[C@]31O[C@H]3[CH][CH]2	
InChI=1S/C8H8O/c1-2-7-8(9-7)4-3-6(1)5-8/h1-4,6-7H,5H2	InChI=1S/C8H8O/c1-2-7-8(9-7)4-3-6(1)5-8/h1-4,6-7H,5H2/t6-,7+,8-/m1/s1
