20
gdb 95022	2.57213	1.87305	1.44542	1.393	77.02	-0.2303	0.0766	0.307	983.0441	0.173168	-403.103946	-403.09647	-403.095526	-403.135506	30.232	
C	-0.2167710674	 1.5410345105	-0.0848344572	-0.408438
C	-0.019239317	 0.0390907592	 0.0335125429	 0.119081
O	 0.6294795797	-0.4585142589	-1.1471919667	-0.266868
C	 1.1786701218	-1.743546395	-0.8468702701	-0.113979
C	 1.5939770603	-1.6935709466	 0.6286973966	-0.055184
C	 2.8790900034	-0.9507914326	 1.0241191151	-0.040248
C	 2.9826731128	 0.3850917413	 0.4107282049	-0.252578
N	 2.1143167937	 0.2309467585	 1.6031484648	-0.157232
C	 0.8309168876	-0.4732337669	 1.1997441601	 0.002735
H	 0.7373881608	 2.0720980411	-0.0876333387	 0.135537
H	-0.75152728	 1.7776447841	-1.0085578364	 0.126805
H	-0.8087249347	 1.9070500807	 0.759447477	 0.120625
H	-1.0072655817	-0.448084243	 0.1229676169	 0.06697
H	 0.4210405709	-2.5275981922	-1.0041863644	 0.093179
H	 2.0078391521	-1.9175083653	-1.5389791773	 0.111052
H	 1.4540343895	-2.6401085446	 1.150527568	 0.080167
H	 3.6993638233	-1.405103386	 1.5713582684	 0.092839
H	 3.8736238205	 0.9594868617	 0.6479496012	 0.116985
H	 2.5532374963	 0.5809807582	-0.5634583545	 0.144495
H	 0.241861228	-0.642691464	 2.1019823893	 0.08406
156.2546	191.2889	204.6807	236.7256	314.3973	391.0625	468.5025	536.4327	614.8459	711.3648	740.9186	757.1981	796.677	838.2528	864.1814	899.7791	930.2737	958.4676	990.8221	1020.0436	1052.532	1064.5504	1070.7001	1103.0078	1130.8046	1137.6831	1143.1655	1175.5841	1197.7515	1222.904	1250.2369	1257.0357	1326.0117	1330.466	1343.0201	1368.6376	1379.6809	1394.1125	1414.2521	1488.7038	1495.7295	1502.1332	1509.3882	2932.442	2977.6505	3051.7898	3083.7118	3099.7417	3114.387	3120.2242	3129.0812	3137.6433	3156.0488	3229.0257
CC1OCC2C3CN3C12	C[C@H]1OC[C@H]2[C@H]3CN3[C@@H]12	
InChI=1S/C7H11NO/c1-4-7-5(3-9-4)6-2-8(6)7/h4-7H,2-3H2,1H3	InChI=1S/C7H11NO/c1-4-7-5(3-9-4)6-2-8(6)7/h4-7H,2-3H2,1H3/t4-,5+,6-,7+,8?/m1/s1
