21
gdb 104743	2.61337	1.1407	0.92995	5.	83.77	-0.268	0.0166	0.2846	1347.1348	0.18156	-383.267911	-383.257777	-383.256833	-383.303166	36.901	
C	 0.8138989451	-0.4116608671	 1.3993643917	-0.386455
C	 0.1367266892	 0.0827372	 0.1177741731	-0.261901
C	 0.7625736565	-0.3786638362	-1.2010662221	 0.336748
C	 0.6004253933	 0.5901221394	-2.3673524892	-0.267007
C	 1.4763279968	 1.8452391033	-2.2500707929	-0.382933
N	 2.0133215105	-1.1417509371	-1.1126033267	-0.336833
C	 0.7921378353	-1.8384258285	-1.5669608104	-0.245178
C	 0.2555293936	-2.8775945582	-0.7218520361	 0.336404
N	-0.2169547852	-3.7130507688	-0.0765423979	-0.34635
H	 0.7896602556	-1.499684047	 1.4852231409	 0.149406
H	 1.8601429895	-0.0989483338	 1.4345567904	 0.125668
H	 0.2980184434	 0.0049195853	 2.2698730481	 0.10914
H	-0.9197712711	-0.2140336084	 0.1111082692	 0.11718
H	 0.1357682367	 1.1786055699	 0.1225249904	 0.102393
H	 0.8422461455	 0.0719541486	-3.3038594417	 0.097058
H	-0.4548466728	 0.8806826555	-2.4409263161	 0.114662
H	 1.2331424469	 2.4328135509	-1.3602429828	 0.13116
H	 2.5388750548	 1.5857776621	-2.1947349166	 0.120634
H	 1.336316513	 2.4913609275	-3.1213511622	 0.123172
H	 2.6131613799	-0.9630742376	-1.9154185144	 0.23805
H	 0.6989523234	-2.0713273098	-2.624890055	 0.124982
60.4842	92.4899	127.1248	140.534	208.7912	224.9184	255.267	271.2023	339.3222	366.3249	431.5457	486.9175	573.0289	610.0721	687.4407	773.1651	789.1709	833.2989	901.358	922.5276	951.5801	984.2276	1049.4085	1052.3441	1071.3206	1098.7097	1120.2412	1140.5726	1211.0072	1243.5375	1270.953	1308.0458	1350.5201	1377.021	1389.6817	1415.0859	1418.8263	1440.793	1479.1163	1484.9883	1495.952	1502.1781	1505.5046	1507.0224	2354.3606	3020.8214	3029.472	3040.7569	3051.863	3058.602	3061.1362	3108.1175	3116.6051	3120.3841	3138.3492	3141.1031	3490.2591
CCC1(CC)NC1C#N	CCC1(CC)N[C@H]1C#N	
InChI=1S/C7H12N2/c1-3-7(4-2)6(5-8)9-7/h6,9H,3-4H2,1-2H3	InChI=1S/C7H12N2/c1-3-7(4-2)6(5-8)9-7/h6,9H,3-4H2,1-2H3/t6-/m0/s1
