16
gdb 48814	3.08576	1.44008	1.16332	3.0617	69.99	-0.2535	-0.0316	0.2219	1043.6429	0.124959	-437.88961	-437.882059	-437.881115	-437.922003	28.3	
O	-0.2869272319	 0.1368548739	 0.3933187097	-0.260399
C	-0.0632782242	 1.2703706201	 0.0487395725	 0.109148
C	 1.2881079308	 1.8768105688	-0.0524610587	 0.148735
C	 1.3749057322	 3.3923291759	 0.1534995592	-0.361024
C	 1.4959928824	 2.8339663829	-1.2184263495	 0.087452
O	 2.7273391966	 2.8348845829	-1.8844920075	-0.223236
C	 3.7141677706	 2.0243121559	-1.4005159158	 0.123762
N	 3.6926231331	 1.2131783778	-0.4385563668	-0.258477
C	 2.473195666	 1.0046797843	 0.3284996425	-0.242838
H	-0.8940884856	 1.9617599292	-0.2295147241	 0.071055
H	 0.4669905239	 3.9288270897	 0.4097987902	 0.1321
H	 2.2772382252	 3.7529741566	 0.6352768587	 0.145653
H	 0.6889372482	 2.9853302849	-1.9270182458	 0.122686
H	 4.6128200509	 2.1706159632	-1.9947882021	 0.132944
H	 2.7183955155	 1.1271205834	 1.390676515	 0.122873
H	 2.1703176463	-0.0410491095	 0.2105308124	 0.149566
84.6007	112.7717	218.3022	243.2856	337.9176	408.1574	464.6998	497.8539	532.5218	615.3471	746.2811	773.238	855.1987	898.1852	920.4715	949.0902	975.1932	1004.6001	1036.6998	1052.5314	1059.168	1073.6872	1130.5526	1194.0888	1241.0656	1291.599	1322.0483	1360.5875	1398.8909	1423.9054	1439.5805	1473.9141	1488.3947	1752.7203	1815.7992	2847.434	3030.6246	3075.0551	3132.6977	3170.4452	3175.3048	3226.2473
O=CC12CC1OC=NC2	O=C[C@]12C[C@H]1OC=NC2	
InChI=1S/C6H7NO2/c8-3-6-1-5(6)9-4-7-2-6/h3-5H,1-2H2	InChI=1S/C6H7NO2/c8-3-6-1-5(6)9-4-7-2-6/h3-5H,1-2H2/t5-,6-/m1/s1
