15
gdb 98519	2.34037	1.45971	1.04254	0.4723	63.3	-0.2633	-0.0466	0.2166	1147.158	0.109052	-494.904136	-494.894885	-494.893941	-494.93939	31.213	
C	-0.1196943925	 1.398575931	-0.0247394983	-0.243839
O	-0.1330411862	-0.0303768529	-0.1710941017	-0.220502
C	 0.6989020367	-0.5216742439	-1.0908653453	 0.428936
O	 1.4495692748	 0.1336942495	-1.7672886805	-0.367938
C	 0.6236927165	-2.0365585108	-1.1322874111	 0.162681
C	 1.6560542866	-2.7455969355	-1.9190226343	-0.197269
O	 1.7449475144	-2.6823081333	-0.5052743497	-0.253298
C	-0.6843566468	-2.7473734825	-0.9368515315	 0.105213
O	-1.764181546	-2.2646897621	-1.1453341379	-0.240901
H	 0.8724217236	 1.7403917715	 0.2793507384	 0.147375
H	-0.3889342078	 1.8789725772	-0.9681114674	 0.149515
H	-0.8577507466	 1.6210478165	 0.7447005784	 0.14413
H	 1.4286625176	-3.727321266	-2.3315035342	 0.129858
H	 2.361820728	-2.1289071478	-2.4692099598	 0.159545
H	-0.5437598721	-3.7993207311	-0.6021173151	 0.096495
33.4843	112.0118	122.4408	131.0433	172.1482	233.1409	289.6116	332.3627	336.9282	459.3713	501.0475	600.8389	773.9892	839.9616	880.4877	901.8742	917.9861	1014.0928	1047.0204	1139.9323	1161.516	1177.8273	1196.7817	1236.7504	1309.9996	1348.5098	1421.2329	1475.4962	1482.3644	1493.7934	1507.2863	1821.5522	1838.0407	2893.1185	3057.7091	3096.8282	3135.5784	3170.549	3203.602
COC(=O)C1(CO1)C=O	COC(=O)[C@]1(CO1)C=O	
InChI=1S/C5H6O4/c1-8-4(7)5(2-6)3-9-5/h2H,3H2,1H3	InChI=1S/C5H6O4/c1-8-4(7)5(2-6)3-9-5/h2H,3H2,1H3/t5-/m1/s1
