19
gdb 38770	3.05862	1.57923	1.17199	2.1367	79.89	-0.2467	0.006	0.2528	1061.5471	0.161722	-385.864786	-385.857646	-385.856702	-385.896024	29.451	
C	-0.0000429492	 1.5444490731	-0.0120516509	-0.304466
C	 1.3026960697	 0.7823492231	-0.0050912703	-0.008762
C	 2.1720232973	 0.7778875202	 1.2408640762	-0.275576
C	 2.6829915546	-0.6168024104	 1.5492166148	 0.061414
O	 2.6009809197	-1.056691491	 2.9085140632	-0.266092
C	 1.7377007152	-1.6740086517	 1.9299981705	 0.016522
C	 0.2725570364	-1.4399905227	 2.0539107327	-0.090165
C	-0.4755967809	-0.7141808721	 1.2191133868	-0.068062
C	-0.006002841	 0.0270046783	 0.0154422386	-0.058599
H	-0.272531975	 2.0639048996	 0.9013587109	 0.116088
H	-0.3163636876	 2.0423463522	-0.922075009	 0.11148
H	 1.8469892553	 0.7509854964	-0.9452899971	 0.083417
H	 3.0079445602	 1.4775393614	 1.1272963369	 0.100749
H	 1.593088523	 1.1131913851	 2.1049968995	 0.119505
H	 3.6001475822	-0.9196877601	 1.0409599267	 0.085845
H	 2.0174913881	-2.7093625776	 1.722431433	 0.09334
H	-0.2086016836	-1.9428922926	 2.8910961106	 0.095918
H	-1.5475673517	-0.6619316289	 1.409494177	 0.092627
H	-0.3037760226	-0.4342611124	-0.9247989001	 0.094816
144.0221	215.8212	294.1759	329.8966	345.9357	398.8956	441.5247	559.366	604.4172	728.879	767.01	806.9926	808.0855	827.2286	846.1364	860.235	940.4349	972.8496	1000.3657	1015.8476	1032.0289	1040.1127	1063.0548	1091.797	1115.4247	1130.934	1148.6043	1171.309	1216.8495	1242.9192	1252.4653	1291.2001	1319.6647	1373.645	1388.2511	1416.1084	1432.5836	1480.9437	1486.1484	1494.2399	1714.4994	3043.8679	3075.1032	3089.9115	3104.6334	3111.5958	3120.3629	3128.025	3140.1628	3148.1829	3215.0866
C1C2CC3OC3C=CC12	C1[C@H]2C[C@H]3O[C@H]3C=C[C@@H]12	
InChI=1S/C8H10O/c1-2-7-8(9-7)4-6-3-5(1)6/h1-2,5-8H,3-4H2	InChI=1S/C8H10O/c1-2-7-8(9-7)4-6-3-5(1)6/h1-2,5-8H,3-4H2/t5-,6-,7-,8+/m0/s1
