21
gdb 95838	2.43208	1.31424	1.08447	0.8426	83.92	-0.2413	0.0512	0.2925	1228.123	0.182634	-387.075477	-387.066506	-387.065562	-387.108768	34.999	
C	 0.044766363	 1.5703403275	 0.0795245004	-0.401728
C	 0.0435156023	 0.0497060251	 0.0372037813	 0.145181
C	 0.6507500645	-0.5105989599	-1.2551801027	-0.2083
C	 0.7369816514	-2.0575593517	-1.2166337626	-0.181091
C	 1.4440391996	-2.4840996971	 0.0934776008	-0.211493
C	 0.7895230474	-1.8107775794	 1.2998656177	-0.072313
O	 0.7820447525	-0.3990091098	 1.1710397553	-0.26355
C	-0.5825209816	-2.6762625539	-1.3464147404	 0.35036
C	-1.6675049343	-3.184376797	-1.4534561292	-0.50149
H	 1.0667294281	 1.9546643186	 0.0008964335	 0.120522
H	-0.5461948713	 1.980139578	-0.7450501156	 0.11309
H	-0.3804763789	 1.9229806868	 1.0229288886	 0.122889
H	-0.9935412232	-0.3181908398	 0.120592403	 0.075829
H	 0.0620661614	-0.1859616766	-2.1188778336	 0.104134
H	 1.6649436084	-0.1088927352	-1.3688103233	 0.098474
H	 1.344590834	-2.3917744897	-2.0667953858	 0.102255
H	 1.4187569287	-3.572382855	 0.2065473126	 0.105009
H	 2.4937100171	-2.1741559299	 0.0370875121	 0.102731
H	-0.2387740777	-2.187968291	 1.4240575073	 0.098976
H	 1.3434278881	-2.0318308995	 2.2169788101	 0.103866
H	-2.6230611394	-3.6363546405	-1.5543739396	 0.196648
100.5866	117.8299	192.2656	217.8644	262.6364	303.3365	328.824	382.8974	420.1588	484.1621	530.1131	572.5924	625.4928	633.0708	685.3282	778.5092	830.5038	866.4405	875.4855	923.8076	965.5391	987.4783	1036.2876	1097.9276	1104.2824	1111.4497	1140.2616	1158.6596	1209.668	1258.4704	1259.9406	1304.6419	1333.334	1348.0655	1373.1475	1382.1307	1398.9125	1411.033	1420.0641	1464.8012	1477.6237	1484.2579	1496.6474	1503.2117	2229.1395	2959.0518	2978.3822	3020.4111	3034.0393	3040.9163	3043.6982	3083.2053	3087.4728	3092.06	3114.0166	3121.2186	3503.7208
CC1CC(CCO1)C#C	C[C@H]1C[C@@H](CCO1)C#C	
InChI=1S/C8H12O/c1-3-8-4-5-9-7(2)6-8/h1,7-8H,4-6H2,2H3	InChI=1S/C8H12O/c1-3-8-4-5-9-7(2)6-8/h1,7-8H,4-6H2,2H3/t7-,8+/m0/s1
