18
gdb 12496	3.37086	1.88565	1.36488	3.902	67.9	-0.2321	0.0628	0.2949	924.0904	0.157966	-381.170326	-381.16287	-381.161926	-381.202008	28.546	
O	-0.0311882047	-0.074005393	 0.1844760814	-0.415555
C	-0.0136328039	 1.1415580242	 0.0750925383	 0.405159
N	-1.1688580984	 1.8892719032	 0.1984232276	-0.322605
C	-1.493120022	 3.2298369096	-0.2970997798	-0.159771
C	-0.5537848137	 3.7502779071	-1.3905785888	-0.190373
C	 0.8203407262	 4.193286482	-0.8598164487	-0.180841
C	 1.3582316101	 3.228762105	 0.2057611698	-0.169808
N	 1.1599029505	 1.8332188665	-0.1662882334	-0.32296
H	-1.9537824452	 1.2788536873	 0.3607924426	 0.247503
H	-2.5097303046	 3.1795468258	-0.7012784525	 0.110206
H	-1.5270290802	 3.95242414	 0.5325249441	 0.103651
H	-0.4287602238	 2.9667275198	-2.1444876793	 0.121685
H	-1.0403423141	 4.5943983469	-1.8908777111	 0.101005
H	 1.5245722136	 4.2603509061	-1.696209122	 0.103011
H	 0.752254614	 5.195596872	-0.4193208326	 0.096586
H	 2.4291714126	 3.3898448413	 0.3556568503	 0.109476
H	 0.8737050869	 3.4329483853	 1.1703460609	 0.116313
H	 1.9537794368	 1.216264071	-0.1015092968	 0.247316
106.9006	119.8295	261.7572	273.6953	340.0149	377.7692	490.6892	497.9192	561.0571	590.3484	675.0659	768.5077	778.8339	820.9677	884.5514	908.4778	960.7469	1012.8876	1070.0073	1098.9282	1142.5139	1178.141	1221.9061	1257.788	1290.1487	1300.1024	1345.6284	1382.7968	1385.3148	1410.7305	1436.9382	1451.0774	1471.8866	1481.0487	1494.1389	1507.4801	1528.3615	1790.2141	2982.881	3010.6488	3030.3454	3044.4913	3060.4808	3070.0473	3089.9097	3094.7474	3638.6472	3641.5924
O=C1NCCCCN1	O=C1NCCCCN1	
InChI=1S/C5H10N2O/c8-5-6-3-1-2-4-7-5/h1-4H2,(H2,6,7,8)	InChI=1S/C5H10N2O/c8-5-6-3-1-2-4-7-5/h1-4H2,(H2,6,7,8)
