17
gdb 66295	2.01852	1.6902	1.33689	2.2655	69.12	-0.2532	-0.0589	0.1943	1040.8269	0.133829	-458.990802	-458.981937	-458.980993	-459.024746	31.671	
C	-0.0761459384	 1.715419857	 0.285016414	-0.450597
C	 0.0432787591	 0.1986759753	 0.0681911133	 0.039938
C	 0.7777122706	-0.2654001559	-1.192475682	-0.124429
O	 1.4106629326	-1.4995836948	-0.8455032304	-0.250628
C	 1.8529135303	-1.4093044483	 0.4897395503	-0.181356
C	 0.8949004836	-0.4441529716	 1.1839043105	 0.339043
O	 0.8081435606	-0.2122730553	 2.3598137275	-0.307935
C	-1.3621615786	-0.410024722	 0.165905937	 0.143394
O	-1.9029556655	-1.0318475272	-0.7070245025	-0.235469
H	 0.9105437497	 2.1854540506	 0.246039623	 0.133936
H	-0.7073056889	 2.1754085427	-0.4810618768	 0.134666
H	-0.5072131291	 1.9225532016	 1.2682079599	 0.148894
H	 0.0973549888	-0.47031587	-2.0202659623	 0.141101
H	 1.5238348776	 0.4820595904	-1.5033662842	 0.093509
H	 1.840049095	-2.3998892048	 0.9536656681	 0.146892
H	 2.8773425293	-1.0050815751	 0.5703701607	 0.122482
H	-1.8625781968	-0.2032200726	 1.136533124	 0.106561
68.6315	94.5202	169.5865	180.9782	195.8197	264.7947	299.0593	334.6291	457.573	548.1821	567.8252	602.0707	659.4416	776.039	850.6563	923.2749	952.9769	965.6359	995.0032	1031.044	1092.8027	1107.121	1159.1507	1190.9057	1218.6409	1238.7424	1274.2555	1326.1776	1383.0662	1397.5908	1422.9777	1474.5437	1490.9901	1496.6497	1502.893	1820.8141	1858.3089	2904.5572	2959.0762	2987.5642	3042.884	3089.0162	3116.7481	3125.0485	3125.7843
CC1(COCC1=O)C=O	C[C@]1(COCC1=O)C=O	
InChI=1S/C6H8O3/c1-6(3-7)4-9-2-5(6)8/h3H,2,4H2,1H3	InChI=1S/C6H8O3/c1-6(3-7)4-9-2-5(6)8/h3H,2,4H2,1H3/t6-/m1/s1
