23
gdb 60274	3.43218	0.99114	0.8453	0.7114	82.6	-0.2523	0.0884	0.3407	1470.5737	0.205408	-425.446156	-425.436329	-425.435385	-425.481927	36.219	
C	 0.1530790218	 1.5518249249	 0.2072119598	-0.388195
C	 0.0324956375	 0.0437303574	-0.0225075392	 0.150544
C	-1.3919058817	-0.3785849102	-0.3689501948	-0.385707
O	 0.8617227596	-0.3916503759	-1.1065838323	-0.271583
C	 2.1892743678	-0.7117230456	-0.7900891808	 0.228322
C	 2.8094569641	-1.4145998793	-2.0197375016	-0.265919
C	 3.9835065462	-0.5028479133	-2.4294508442	-0.208128
C	 3.6078478437	 0.8211282541	-1.7573888691	-0.089897
O	 2.9952223361	 0.4276385885	-0.5306831621	-0.249273
H	 1.1818702056	 1.8234051063	 0.4472906984	 0.137584
H	-0.1474096065	 2.0940995502	-0.6957225668	 0.113097
H	-0.4998453674	 1.86589534	 1.0287113317	 0.103737
H	 0.3521754991	-0.484296125	 0.8905332446	 0.066742
H	-1.7165608934	 0.1089584161	-1.2938652843	 0.121259
H	-1.4497268585	-1.4605895902	-0.5150032329	 0.115215
H	-2.0840813766	-0.0952352453	 0.4298121505	 0.110887
H	 2.2136156926	-1.3077284201	 0.1328353423	 0.06824
H	 3.1277198918	-2.431536143	-1.7820412961	 0.106921
H	 2.0461383385	-1.4715366815	-2.7984675688	 0.122079
H	 4.9270273705	-0.8734488523	-2.0177420442	 0.107302
H	 4.0979363466	-0.4135508153	-3.5124716865	 0.102563
H	 4.4600683313	 1.4603764502	-1.5145166407	 0.105562
H	 2.9022081713	 1.3950112596	-2.3758646032	 0.098647
39.954	48.713	110.6427	195.2722	212.7236	225.8812	266.2537	311.9963	354.5709	433.5085	485.8408	588.4329	612.1893	729.9271	808.1289	860.3815	874.6272	927.1368	929.879	931.4643	942.1054	950.7441	957.9586	1040.4102	1058.8103	1090.2313	1140.6662	1150.5433	1165.8669	1202.4961	1212.3114	1230.2716	1258.9331	1307.6074	1321.0806	1352.1058	1361.9633	1364.2341	1392.0382	1397.558	1413.5084	1425.6762	1479.2867	1482.8696	1488.9146	1493.2369	1497.8234	1514.8597	1519.0284	2970.3323	2999.3143	3007.3417	3035.4461	3041.0382	3057.365	3078.3376	3098.061	3100.7031	3107.2293	3113.1008	3118.8467	3129.6583	3146.116
CC(C)OC1CCCO1	CC(C)O[C@H]1CCCO1	
InChI=1S/C7H14O2/c1-6(2)9-7-4-3-5-8-7/h6-7H,3-5H2,1-2H3	InChI=1S/C7H14O2/c1-6(2)9-7-4-3-5-8-7/h6-7H,3-5H2,1-2H3/t7-/m0/s1
