19
gdb 76706	3.36638	0.80063	0.76729	2.7891	77.79	-0.2367	0.0449	0.2815	1540.305	0.156713	-422.963389	-422.953487	-422.952543	-422.998811	36.457	
O	-0.1470359239	 1.2793153758	-0.2700604716	-0.427707
C	-0.1180695952	-0.1065872632	-0.1034779216	 0.085943
C	-0.3889417819	-0.6434703651	 1.2822505246	 0.003212
O	-0.7126824877	 0.3257267013	 2.2507446688	-0.42238
C	-1.4097918632	-0.8548995184	 0.1879778731	-0.096844
C	-2.741366916	-0.1328679554	 0.1872588619	-0.204615
C	-3.2078494171	 0.1908973759	-1.2496918047	-0.346909
C	-4.5208384863	 0.8223271847	-1.2890590976	 0.290999
C	-5.6053422902	 1.3413498906	-1.2917000523	-0.440335
H	-0.3804060423	 1.6481157889	 0.593499326	 0.285643
H	 0.6361123589	-0.5733489588	-0.7298070493	 0.099271
H	 0.1571065457	-1.5039515481	 1.6630040611	 0.094091
H	 0.0992194984	 0.5581431489	 2.7148743929	 0.298069
H	-1.4480464213	-1.8724466831	-0.1951991839	 0.088994
H	-3.4962388018	-0.7482942583	 0.6882080098	 0.110643
H	-2.6760260983	 0.7957215552	 0.7574244502	 0.11995
H	-2.46322685	 0.8466307904	-1.7154825586	 0.150459
H	-3.2282086047	-0.7305792382	-1.8465755208	 0.121644
H	-6.5618076132	 1.8013776368	-1.3081704479	 0.189873
55.7848	73.6701	92.2763	175.9951	214.4541	266.6359	286.5045	301.1211	355.1955	478.4329	502.7098	545.0894	610.73	614.271	632.7372	657.4207	755.8721	774.3573	798.0462	913.5609	961.4894	991.2385	1028.6046	1062.8978	1069.3878	1119.7796	1123.1861	1152.7095	1202.5798	1235.0996	1267.9546	1281.5769	1310.1072	1327.8808	1356.3513	1390.0526	1411.4145	1471.6978	1477.8463	1495.4053	2237.4726	3020.7452	3052.0553	3068.4424	3112.9392	3119.1591	3132.2079	3156.0882	3508.2634	3736.3364	3803.4112
OC1C(O)C1CCC#C	O[C@H]1[C@@H](O)[C@H]1CCC#C	
InChI=1S/C7H10O2/c1-2-3-4-5-6(8)7(5)9/h1,5-9H,3-4H2	InChI=1S/C7H10O2/c1-2-3-4-5-6(8)7(5)9/h1,5-9H,3-4H2/t5-,6+,7-
