16
gdb 50251	2.59112	1.66493	1.24325	3.8411	68.92	-0.2472	-0.0381	0.2091	1007.2533	0.123711	-437.877597	-437.869847	-437.868903	-437.910543	28.537	
O	-0.4977874754	 0.602277924	-0.5486782969	-0.234919
C	 0.2974326485	 0.838708841	 0.3239894987	 0.143698
C	 1.3725922885	 1.8985860239	 0.1937588843	-0.057915
C	 1.201893363	 3.0096037652	-0.8757309686	-0.278056
C	 1.4302304979	 4.0492127302	 0.2579465209	 0.026089
C	 0.2112127146	 4.7051646111	 0.9419584816	-0.378157
C	 0.1491467474	 3.3998575912	 1.7670477845	 0.394933
O	-0.6560349509	 2.8555796718	 2.4636453499	-0.31765
N	 1.4129744618	 2.9399693667	 1.2876375123	-0.166629
H	 0.3095210743	 0.2748105084	 1.278943895	 0.110655
H	 2.3403323195	 1.3822780648	 0.1514140507	 0.118147
H	 1.9373393174	 3.0145539283	-1.6806982799	 0.120582
H	 0.1982628525	 3.0170153872	-1.3076506749	 0.136979
H	 2.3489174382	 4.6341038373	 0.2001596556	 0.094698
H	 0.4347395902	 5.6059788289	 1.5188268274	 0.141832
H	-0.6770191576	 4.8796972401	 0.3312803995	 0.145712
66.3225	90.0239	160.4909	231.1639	338.2866	357.9084	464.0258	542.2628	577.9092	646.3768	737.9054	768.7623	850.5141	869.5854	888.0867	924.7779	975.5606	1007.4921	1044.4932	1069.4437	1088.6544	1107.4208	1134.6401	1169.6706	1209.7136	1224.4812	1254.6589	1270.2216	1327.8146	1359.9107	1414.0697	1441.8247	1485.4414	1824.1855	1884.51	2931.3388	3028.5114	3075.8352	3079.1788	3103.7274	3134.7854	3140.9789
O=CC1CC2CC(=O)N12	O=C[C@H]1C[C@H]2CC(=O)N12	
InChI=1S/C6H7NO2/c8-3-5-1-4-2-6(9)7(4)5/h3-5H,1-2H2	InChI=1S/C6H7NO2/c8-3-5-1-4-2-6(9)7(4)5/h3-5H,1-2H2/t4-,5+/m0/s1
