21
gdb 37470	2.8127	1.65735	1.38765	1.4153	80.63	-0.2352	0.0814	0.3166	1022.3722	0.186357	-387.061871	-387.054694	-387.05375	-387.093265	29.829	
C	-0.03129012	 1.4460038088	-0.0939224417	-0.285559
C	 1.31614993	 0.7905587886	 0.0512843371	-0.06494
C	 0.0373918184	-0.0435995702	 0.0977165936	-0.061947
C	 0.432661036	-0.759843085	-1.1996654594	-0.026517
C	-0.4932837254	-0.7162109012	-2.419159595	-0.109113
O	-0.3439756058	 0.4711629972	-3.1864929036	-0.236773
C	 0.9896285552	 0.6234421617	-3.6450362932	-0.072391
C	 1.9288707831	 1.0294524022	-2.5037402705	-0.234072
C	 1.7445410514	 0.1239446027	-1.2685555792	-0.015058
H	-0.3621753413	 2.002959754	 0.777051523	 0.105483
H	-0.3542980039	 1.8616066692	-1.0427557826	 0.126514
H	 1.9881932506	 1.0491953961	 0.8610404298	 0.081018
H	-0.4248140922	-0.5306108822	 0.9485271845	 0.07934
H	 0.6966208371	-1.8003390914	-0.9901989027	 0.071391
H	-0.297835721	-1.5867740511	-3.0689774625	 0.082314
H	-1.5445413019	-0.753802054	-2.1153063915	 0.106571
H	 1.3303029446	-0.3154677814	-4.1147518703	 0.08093
H	 0.9651583896	 1.3937148603	-4.4218086482	 0.10369
H	 2.9649961969	 1.0093259032	-2.8605409308	 0.090117
H	 1.7075413755	 2.0667310187	-2.2315148367	 0.107956
H	 2.622673443	-0.5094567361	-1.1252959801	 0.071046
128.2329	149.9366	280.1337	346.8494	390.6778	451.1384	497.7357	536.8633	638.7943	715.7513	746.8501	793.0457	798.0493	862.8852	897.3626	922.423	940.7738	960.7524	989.891	1023.7704	1038.3626	1063.414	1069.8741	1072.0555	1099.5379	1113.6966	1130.536	1137.3351	1176.2636	1204.1433	1241.9831	1264.3671	1273.6596	1301.016	1327.9268	1344.1103	1345.0264	1366.142	1375.1621	1392.8271	1423.6052	1483.9448	1488.2553	1495.1149	1503.2814	2950.6761	2958.7427	3034.6696	3055.9415	3068.3011	3071.7403	3079.1622	3086.7561	3128.3471	3169.2777	3180.6029	3213.3443
C1C2C1C1COCCC21	C1[C@H]2[C@@H]1[C@H]1COCC[C@@H]21	
InChI=1S/C8H12O/c1-2-9-4-8-5(1)6-3-7(6)8/h5-8H,1-4H2	InChI=1S/C8H12O/c1-2-9-4-8-5(1)6-3-7(6)8/h5-8H,1-4H2/t5-,6+,7+,8-/m0/s1
