18
gdb 91984	2.3709	1.70547	1.11209	5.3526	76.74	-0.2252	0.0306	0.2559	1097.1133	0.149091	-398.107107	-398.098968	-398.098024	-398.139839	30.688	
C	-0.0935787342	 1.4960308455	 0.0935065378	-0.331547
N	-0.0590391386	 0.0525935538	 0.1768395349	-0.055068
C	-1.3375973485	-0.6343324702	 0.0007886083	-0.159313
C	-1.1001099432	-2.0123933597	 0.5814029737	-0.053331
N	 0.1571221722	-2.6330005976	 0.1203092587	-0.31142
C	 0.1188703029	-1.9414136722	 1.4178004189	-0.067477
C	 0.6215847487	-0.5032883959	 1.3444489809	-0.111092
C	 2.0836292648	-0.3850446604	 1.2196118262	 0.309118
N	 3.2327368587	-0.281810603	 1.1618708984	-0.334019
H	 0.9242055018	 1.8946350915	 0.1427183348	 0.142916
H	-0.5240951403	 1.7959422715	-0.8666545532	 0.128644
H	-0.6901463702	 1.9672291008	 0.8983298889	 0.093239
H	-2.1642037924	-0.1541657693	 0.558431938	 0.084247
H	-1.610225229	-0.6474719917	-1.0610087437	 0.118514
H	-1.9463917075	-2.6355826491	 0.8473255355	 0.100622
H	 0.1178554814	-3.6364797789	 0.2828548703	 0.239189
H	 0.2487194792	-2.4917962143	 2.3418699872	 0.108139
H	 0.3380181143	-0.0023814208	 2.2915755544	 0.098639
95.4177	141.9644	158.7167	232.1358	308.7552	333.0597	347.8323	401.1327	501.7136	547.5507	663.7188	678.0899	814.7009	863.6858	871.1436	879.3837	957.078	984.0842	1015.414	1039.7751	1070.5692	1097.4117	1136.1383	1146.9327	1167.8457	1196.5354	1229.2041	1262.3082	1272.2913	1309.7713	1350.0864	1364.0019	1392.2759	1433.2243	1463.4958	1489.3311	1503.6964	1514.1526	2361.5524	2900.2824	2920.5797	2927.5924	3048.5837	3067.1365	3111.611	3177.2893	3190.5015	3503.5974
CN1CC2NC2C1C#N	CN1C[C@H]2N[C@H]2[C@H]1C#N	
InChI=1S/C6H9N3/c1-9-3-4-6(8-4)5(9)2-7/h4-6,8H,3H2,1H3	InChI=1S/C6H9N3/c1-9-3-4-6(8-4)5(9)2-7/h4-6,8H,3H2,1H3/t4-,5-,6-/m1/s1
