15
gdb 25613	4.65594	0.88581	0.79058	4.1367	67.82	-0.2356	0.0069	0.2426	1372.2697	0.113846	-453.999801	-453.991754	-453.99081	-454.034378	28.087	
O	 0.3638703163	 0.1473976145	-0.3965356807	-0.275401
C	 0.4008355147	 1.3405146749	-0.3743949521	 0.17395
O	 0.8082297246	 2.0357438635	 0.7053767254	-0.17225
C	 0.8958185384	 3.460371354	 0.5717110078	-0.206103
C	 2.2900473741	 3.8793504684	 0.2282571838	 0.264322
C	 3.4269987625	 3.1147099116	 0.1978947005	-0.174738
N	 4.4316175059	 3.9859317203	-0.1634978684	-0.231397
C	 3.86584558	 5.2130883303	-0.330159943	 0.014182
N	 2.5730531654	 5.1852919495	-0.10212111	-0.309226
H	 0.0981736073	 1.9941568724	-1.2158244676	 0.083266
H	 0.1892296835	 3.8219847306	-0.1867147135	 0.129242
H	 0.5788117822	 3.8727202946	 1.5343390235	 0.142432
H	 3.6081808406	 2.0728289914	 0.3972412203	 0.153449
H	 5.4021067233	 3.751438721	-0.2883091582	 0.272232
H	 4.4401638511	 6.0803685331	-0.619449938	 0.136039
32.4705	47.6695	137.9124	219.3738	248.2633	358.95	407.5839	535.1294	651.6908	682.7452	686.7601	724.3047	753.6533	827.1486	950.9902	986.2139	1009.01	1042.733	1064.1471	1097.9437	1136.2747	1159.1034	1241.7314	1263.3891	1300.577	1352.6781	1401.531	1430.287	1457.7976	1498.2546	1526.8766	1604.869	1866.6952	2948.8275	3025.4359	3081.3855	3254.1627	3290.6483	3667.4298
O=COCC1=CNC=N1	O=COCc1c[nH]cn1	
InChI=1S/C5H6N2O2/c8-4-9-2-5-1-6-3-7-5/h1,3-4H,2H2,(H,6,7)	InChI=1S/C5H6N2O2/c8-4-9-2-5-1-6-3-7-5/h1,3-4H,2H2,(H,6,7)
