19
gdb 68208	3.8205	1.08706	1.0155	2.2258	75.81	-0.246	-0.0233	0.2227	1204.4339	0.159602	-423.02463	-423.01655	-423.015606	-423.057447	31.569	
O	-0.1418473374	 1.4043316131	 0.0166349183	-0.482862
C	-0.0240645807	 0.0186093242	 0.0250042218	 0.430818
C	 0.3436332329	-0.8105148067	 1.2979385253	-0.299107
C	-0.3649825833	-1.9401541519	 0.4956497763	-0.048709
C	-1.315825419	-0.8300919209	-0.0383872058	-0.260123
C	 0.5656118245	-2.150910402	-0.7370735662	-0.053501
C	 0.8617958707	-0.6452474478	-1.0545954018	-0.31806
C	 1.795263013	-2.9726196685	-0.4458711315	 0.145499
O	 2.0586129243	-4.0216107619	-0.9771492075	-0.25351
H	 0.7403457768	 1.7892475057	-0.0235181567	 0.280828
H	 1.3965120695	-0.9234361647	 1.5701506228	 0.090282
H	-0.2390770978	-0.4950653207	 2.1654632521	 0.108931
H	-0.7483920355	-2.8362961182	 0.9797702832	 0.080648
H	-2.0477832487	-0.5142006313	 0.7075301337	 0.109263
H	-1.7931025031	-0.9752042007	-1.0115219775	 0.096482
H	 0.0307004746	-2.6474565752	-1.5504408798	 0.09328
H	 0.5635855451	-0.3678173841	-2.0684479935	 0.116056
H	 1.9203617812	-0.3867173446	-0.92764955	 0.094906
H	 2.4777235731	-2.5412638437	 0.3235636968	 0.06888
61.4747	136.0873	235.2533	251.3534	342.693	370.6298	399.0425	425.6045	462.6982	529.5898	628.1429	685.9109	820.8302	838.1473	868.7624	897.4553	914.9499	956.2171	965.8378	995.6496	1005.4325	1022.6447	1061.1534	1104.5462	1126.0997	1141.0827	1155.8642	1209.6824	1214.4424	1236.3454	1243.9769	1260.1897	1301.7146	1316.5211	1326.4062	1388.1305	1435.985	1486.175	1491.9383	1529.0196	1827.3015	2855.1717	3031.7185	3058.0655	3063.2637	3080.176	3103.0544	3124.8312	3129.0693	3136.0643	3804.8618
OC12CC(C1)C(C2)C=O	O[C@@]12C[C@@H](C1)[C@@H](C2)C=O	
InChI=1S/C7H10O2/c8-4-6-3-7(9)1-5(6)2-7/h4-6,9H,1-3H2	InChI=1S/C7H10O2/c8-4-6-3-7(9)1-5(6)2-7/h4-6,9H,1-3H2/t5-,6-,7-/m0/s1
