20
gdb 117548	2.0912	1.1365	0.77593	3.9849	76.89	-0.2828	0.0222	0.3051	1496.6204	0.167262	-440.290848	-440.279756	-440.278812	-440.327834	38.243	
C	-0.0361141373	 1.4898863998	-0.0378780872	-0.388454
C	-0.1529918874	-0.0215632976	-0.1067216106	-0.052033
O	 0.8092282486	-0.4972097562	-1.0454324451	-0.250011
C	 0.8364687465	-1.8926537813	-1.2004029671	-0.002748
C	-0.3983721027	-2.3835565683	-1.8564919623	 0.287346
N	-1.385993846	-2.7151029334	-2.3558726899	-0.335016
C	 2.0788675265	-2.2646702886	-2.0317077634	 0.095377
C	 3.361425817	-1.7528956695	-1.3832833613	-0.408279
O	 2.0454741137	-3.6811739482	-2.1108051813	-0.429161
H	 0.9674279759	 1.7871413788	 0.2793364512	 0.1273
H	-0.2352166713	 1.9347707655	-1.0165867953	 0.13484
H	-0.7596695456	 1.889667469	 0.6783839127	 0.123564
H	 0.0384581734	-0.4775179597	 0.8776086235	 0.095524
H	-1.1622990469	-0.3219044545	-0.4215505235	 0.120901
H	 0.9168843425	-2.4025467986	-0.2259910929	 0.117604
H	 1.9570671782	-1.8100507326	-3.0257105448	 0.095156
H	 3.4932782104	-2.2048177153	-0.394944641	 0.124083
H	 4.2260366831	-2.0218445877	-1.9990994	 0.110856
H	 3.3356331801	-0.6663622083	-1.2782791306	 0.13988
H	 2.6901430113	-3.9645390231	-2.7654830413	 0.293272
53.1714	72.048	89.3079	137.3228	145.6005	183.4421	216.171	240.4977	270.4749	308.7446	328.667	415.7899	428.2778	478.1148	545.6439	642.6494	823.7691	866.5066	892.8959	911.7185	995.279	1043.3452	1086.1516	1116.1034	1127.7756	1146.4679	1158.5765	1187.6843	1245.8659	1301.7301	1310.8702	1346.0185	1380.351	1401.1078	1404.0498	1418.6605	1437.884	1483.5312	1488.1804	1498.8609	1500.4143	1526.941	2356.0233	2974.0534	2981.0627	3004.8639	3027.9087	3039.3856	3047.6511	3106.9097	3122.7006	3125.8994	3138.2932	3838.0398
CCOC(C#N)C(C)O	CCO[C@@H](C#N)[C@@H](C)O	
InChI=1S/C6H11NO2/c1-3-9-6(4-7)5(2)8/h5-6,8H,3H2,1-2H3	InChI=1S/C6H11NO2/c1-3-9-6(4-7)5(2)8/h5-6,8H,3H2,1-2H3/t5-,6+/m1/s1
