18
gdb 92584	2.9535	1.56772	1.26373	3.1444	72.17	-0.2382	0.0267	0.265	1020.5074	0.149711	-439.07717	-439.069517	-439.068573	-439.109405	29.577	
O	-0.036232588	 1.4661172636	 0.006289413	-0.415223
C	-0.0098516512	 0.066196189	 0.0313280917	 0.1541
C	 0.3386570465	-0.6752445535	 1.3494255189	-0.295534
C	-0.817308607	-1.6670036834	 1.0380139052	-0.03496
C	-1.7828866208	-2.04052628	 2.1436133849	-0.09923
O	-2.4645517127	-0.8955442772	 2.6770620831	-0.224373
C	-2.8337835185	 0.0472922028	 1.7725901617	 0.122514
N	-2.4486589439	 0.2207517654	 0.5817441045	-0.239517
C	-1.4096206502	-0.6280642524	 0.0352981844	-0.039066
H	 0.8729117676	 1.7819661313	-0.001506257	 0.283421
H	 0.5835215473	-0.3418912683	-0.801006169	 0.065462
H	 1.3451688634	-1.086345098	 1.4571630325	 0.092859
H	 0.1067457606	-0.0491364748	 2.2155797377	 0.120016
H	-0.461651264	-2.5737802048	 0.5406798606	 0.076714
H	-2.5405526271	-2.7373378053	 1.7597600101	 0.11219
H	-1.2834279567	-2.5098605502	 2.9958047394	 0.118105
H	-3.5642359176	 0.7189235158	 2.2211038558	 0.12288
H	-1.7415884578	-0.9994562901	-0.9380397775	 0.079638
79.6131	168.3935	223.8318	227.7942	313.5545	387.7469	459.4547	479.5134	570.7163	613.4358	680.9071	775.5448	836.5587	850.1365	887.6751	926.6794	941.6193	969.1227	991.3804	1051.8474	1089.281	1113.1791	1131.6536	1146.5683	1175.5615	1220.2074	1233.3406	1238.4882	1268.0147	1297.9132	1322.9497	1350.1917	1356.0257	1402.7717	1417.394	1434.2576	1486.6975	1500.779	1729.5367	2980.707	3014.3595	3059.1252	3060.5845	3072.149	3087.8746	3119.5218	3152.7126	3818.0606
OC1CC2COC=NC12	O[C@H]1C[C@H]2COC=N[C@@H]12	
InChI=1S/C6H9NO2/c8-5-1-4-2-9-3-7-6(4)5/h3-6,8H,1-2H2	InChI=1S/C6H9NO2/c8-5-1-4-2-9-3-7-6(4)5/h3-6,8H,1-2H2/t4-,5-,6+/m0/s1
