18
gdb 24615	4.80861	0.96306	0.90852	3.1084	77.98	-0.2065	0.0366	0.2431	1300.4365	0.150091	-401.957085	-401.949223	-401.948279	-401.990929	29.313	
C	 0.0223990358	 1.4848373735	-0.2070786441	-0.078852
O	 1.4264844198	 1.5867865077	 0.099457289	-0.27586
C	 1.4772382041	 0.2086077489	 0.5164210817	-0.078866
C	 0.0243225103	-0.0499248032	 0.0318887563	-0.150209
C	-0.9703653544	-0.6540014155	 0.9664265655	 0.277238
C	-1.2569980418	-0.249807266	 2.2567488012	-0.184433
N	-2.230458983	-1.0764350422	 2.7549072628	-0.232392
C	-2.5796988345	-2.0084316705	 1.812401585	-0.0704
C	-1.8156951081	-1.7711306293	 0.694637072	-0.262696
H	-0.5984000619	 2.0445225508	 0.5055943332	 0.093348
H	-0.2042871005	 1.8263690953	-1.2240926614	 0.099517
H	 2.2739806872	-0.3476488942	 0.0083574057	 0.099518
H	 1.6075111013	 0.109464961	 1.602581536	 0.093348
H	 0.0139543856	-0.5975298813	-0.9132053595	 0.075786
H	-0.8513475213	 0.5509536392	 2.8545763249	 0.121767
H	-2.6278102971	-1.0077022937	 3.6751132685	 0.262173
H	-3.3333751512	-2.7516505019	 2.0163034678	 0.119418
H	-1.8494093903	-2.3319757185	-0.2275960646	 0.091592
34.3816	63.7904	149.2678	220.5212	373.817	389.6564	487.9255	605.3745	641.4662	671.4747	693.2399	772.788	825.7827	830.7881	887.6112	903.9028	909.4243	980.5677	1012.8218	1037.2054	1043.266	1093.7762	1095.6581	1100.6566	1157.2312	1162.8641	1168.0685	1240.0212	1258.6571	1302.3271	1305.3989	1357.816	1379.141	1429.0925	1466.2483	1514.222	1524.0164	1540.2997	1600.8152	2999.4916	3011.2783	3049.4836	3053.607	3083.8968	3239.6635	3257.831	3269.9867	3685.6542
C1OCC1C1=CNC=C1	C1OCC1c1c[nH]cc1	
InChI=1S/C7H9NO/c1-2-8-3-6(1)7-4-9-5-7/h1-3,7-8H,4-5H2	InChI=1S/C7H9NO/c1-2-8-3-6(1)7-4-9-5-7/h1-3,7-8H,4-5H2
