15
gdb 31333	2.0404	1.71908	0.95302	2.1078	71.45	-0.2452	-0.0551	0.1901	1153.0712	0.114168	-453.995109	-453.98706	-453.986116	-454.028251	28.981	
O	 0.3570632486	 0.9804520466	 0.7180532613	-0.404016
C	-0.0182038698	 0.056545962	-0.2924430665	-0.173172
C	-1.3967181353	-0.5072988734	-0.1049774135	 0.17075
C	-2.1102605218	-0.6898694425	 1.0745170074	 0.149701
N	-3.3064993549	-1.2573655501	 0.6761656528	-0.279306
C	-3.267653681	-1.3894358933	-0.6640659027	 0.0256
N	-2.1302364635	-0.9430438783	-1.1730731365	-0.314369
C	-1.8629077427	-0.4396819417	 2.482735735	 0.053764
O	-2.6783104897	-0.7161134376	 3.3451181878	-0.316201
H	-0.2327695843	 1.739249834	 0.6537388321	 0.286893
H	 0.0448261583	 0.488443613	-1.3005823816	 0.122009
H	 0.7266499829	-0.7464897212	-0.244529914	 0.136399
H	-4.0409576385	-1.5004761406	 1.3233500415	 0.286008
H	-4.0851680031	-1.8061793338	-1.2337267927	 0.146908
H	-0.8862951151	 0.0193912568	 2.7137617396	 0.109031
72.6809	150.2738	161.1219	205.3	254.6346	324.3904	364.2661	415.1113	546.3862	618.1256	668.274	695.1	731.2158	825.1994	857.5367	960.2156	976.9361	1050.0058	1074.7738	1101.1108	1149.5018	1200.8208	1269.1166	1284.5575	1366.7766	1391.8378	1404.4526	1414.1792	1458.4695	1493.9978	1512.8696	1586.8657	1749.8886	2993.04	3016.485	3061.6727	3253.412	3644.0221	3809.5096
OCC1=C(NC=N1)C=O	OCc1c([nH]cn1)C=O	
InChI=1S/C5H6N2O2/c8-1-4-5(2-9)7-3-6-4/h1,3,9H,2H2,(H,6,7)	InChI=1S/C5H6N2O2/c8-1-4-5(2-9)7-3-6-4/h1,3,9H,2H2,(H,6,7)
