15
gdb 80261	2.29907	2.08971	1.5853	3.5703	64.32	-0.2559	-0.0293	0.2266	877.5696	0.114531	-457.79271	-457.786101	-457.785157	-457.8235	26.841	
O	 0.1262632716	 1.3621792772	-0.0983438264	-0.440941
C	 0.0176481429	-0.021958855	-0.0047716583	 0.163303
C	 0.2996237678	-0.640596977	 1.3883629965	 0.00532
O	-0.8052448969	-0.0427824539	 2.1616241463	-0.262745
C	-1.9084288851	-0.0712561811	 1.3441406195	 0.435454
O	-2.9883347861	 0.3092590286	 1.6844685872	-0.343281
C	-1.4312602997	-0.6418205604	-0.0008100176	-0.251031
C	-1.0741556089	-2.0906528322	 0.2901166738	-0.086854
C	-0.0268749277	-2.0927608497	 1.1236690089	-0.082015
H	-0.2719815981	 1.7603479723	 0.6862408306	 0.300029
H	 0.6332520974	-0.4535394615	-0.794512127	 0.112203
H	 1.2271248448	-0.3831631693	 1.8934660887	 0.099858
H	-2.1001047292	-0.431175967	-0.8305043305	 0.103352
H	-1.6210987366	-2.9381751931	-0.0998258395	 0.126448
H	 0.4789715137	-2.938959548	 1.5664383776	 0.120899
143.5771	243.5595	324.4226	392.3942	420.6942	462.0008	517.6429	578.5228	657.3138	702.877	744.9083	783.6199	842.6901	868.3842	895.312	922.617	945.366	962.6491	979.5909	998.2806	1073.0663	1125.5492	1144.1733	1163.2133	1228.9225	1245.0766	1270.6771	1298.738	1341.064	1345.6401	1430.2387	1629.8856	1892.0165	3123.2899	3161.2014	3168.4235	3221.1166	3245.0653	3779.4276
OC1C2OC(=O)C1C=C2	O[C@H]1[C@H]2OC(=O)[C@@H]1C=C2	
InChI=1S/C6H6O3/c7-5-3-1-2-4(5)9-6(3)8/h1-5,7H	InChI=1S/C6H6O3/c7-5-3-1-2-4(5)9-6(3)8/h1-5,7H/t3-,4+,5-/m1/s1
