14
gdb 14005	4.51929	1.43855	1.25475	4.3207	62.8	-0.267	0.0029	0.2698	941.6687	0.10752	-378.67347	-378.66634	-378.665395	-378.705321	25.587	
N	-0.0981582441	-1.1544370856	 0.0465978584	-0.327001
C	-0.0620384357	 0.0009419171	 0.0616884289	 0.333203
C	 0.0010039132	 1.4419034726	 0.0336553837	-0.269042
N	 0.6117665765	 2.1027904398	 1.2142069891	-0.344126
C	 1.3082979163	 2.15139874	-0.0486656711	 0.281712
C	 2.7081304936	 1.6163501059	-0.3194779574	-0.13145
O	 2.9730292028	 2.7431051417	-1.1906969063	-0.269233
C	 1.6920905943	 3.3438565809	-0.9214260015	-0.145721
H	-0.8523198008	 1.9164272801	-0.4444134949	 0.137812
H	 0.1245947915	 2.9751348745	 1.4099032371	 0.248704
H	 3.3649852006	 1.6017704514	 0.5577992368	 0.123752
H	 2.7694835502	 0.6582890433	-0.8470628881	 0.13138
H	 1.1007100664	 3.4981413865	-1.8322232013	 0.117821
H	 1.7838299454	 4.2968117718	-0.3815678333	 0.112189
84.7835	126.6064	159.6997	304.3039	356.8775	365.1556	497.6768	567.7348	629.5514	805.3298	855.4781	895.8702	927.754	952.536	993.335	1015.704	1030.5335	1060.3134	1123.5244	1145.2693	1160.6709	1194.2322	1256.8102	1302.6515	1326.8444	1377.6763	1480.9402	1501.6786	1526.5398	2360.858	3001.4319	3032.4471	3052.4562	3083.5379	3144.809	3494.0375
N#CC1NC11COC1	N#C[C@H]1NC21COC2	
InChI=1S/C5H6N2O/c6-1-4-5(7-4)2-8-3-5/h4,7H,2-3H2	InChI=1S/C5H6N2O/c6-1-4-5(7-4)2-8-3-5/h4,7H,2-3H2/t4-/m1/s1
