21
gdb 57625	3.06508	0.9343	0.89639	2.7267	82.91	-0.2559	0.038	0.2939	1410.7258	0.181879	-383.264205	-383.254279	-383.253334	-383.299033	36.772	
C	 0.1759918145	 1.5554898125	 0.0760358486	-0.410557
C	-0.0142551757	 0.0225930409	 0.026565714	 0.081964
C	 0.6717431198	-0.6379704171	 1.2438306792	-0.417683
C	-1.5236347261	-0.362290309	-0.0640242279	-0.231877
C	-2.366590974	 0.0654845359	 1.1169659861	 0.010083
C	-3.6041562544	-0.6795314204	 1.4562731881	-0.251089
N	-2.4329426891	-0.7421341455	 2.3490971006	-0.312478
C	 0.6301371063	-0.4808722247	-1.1993685228	 0.266345
N	 1.1277382264	-0.8814463614	-2.1629460492	-0.342776
H	 1.2381810085	 1.8114283176	 0.0455982724	 0.136003
H	-0.3162324518	 2.0426301225	-0.7702656372	 0.13197
H	-0.2424103192	 1.9571797514	 1.0023629888	 0.13204
H	 0.2122136062	-0.2821430548	 2.1691095748	 0.148709
H	 0.5807256747	-1.7275255519	 1.2041198184	 0.126098
H	 1.7363684758	-0.3908722827	 1.2664827975	 0.134079
H	-1.9340203324	 0.0832654645	-0.9785325337	 0.122978
H	-1.6015410523	-1.4496323446	-0.1870841383	 0.10849
H	-2.3673081494	 1.1340455932	 1.3203619088	 0.09875
H	-4.4637186433	-0.1537781304	 1.8614424827	 0.123533
H	-3.8497238587	-1.5540709034	 0.8587542066	 0.115815
H	-1.9483655958	-1.6254180328	 2.2067570526	 0.229602
61.4393	110.1147	128.4875	190.2561	209.3899	251.6905	283.258	317.9093	319.6493	367.1851	399.3428	471.4506	580.2472	584.2742	722.6083	794.264	827.1911	878.8327	905.4903	938.7973	952.1168	975.5832	987.7502	1042.363	1052.6819	1099.2428	1127.0186	1168.029	1218.0818	1225.0844	1229.0457	1262.5434	1289.1329	1320.5394	1347.7871	1399.8565	1422.1838	1431.9977	1471.4952	1485.285	1491.051	1505.6676	1511.0109	1513.6332	2351.1778	3024.7655	3044.7492	3048.5676	3065.5486	3108.9539	3117.4992	3123.5053	3124.0175	3131.9983	3134.4429	3194.9352	3494.4728
CC(C)(CC1CN1)C#N	CC(C)(C[C@H]1CN1)C#N	
InChI=1S/C7H12N2/c1-7(2,5-8)3-6-4-9-6/h6,9H,3-4H2,1-2H3	InChI=1S/C7H12N2/c1-7(2,5-8)3-6-4-9-6/h6,9H,3-4H2,1-2H3/t6-/m0/s1
