16
gdb 18237	4.8119	1.63589	1.34147	3.2542	68.41	-0.237	0.0205	0.2575	927.3358	0.132002	-379.904123	-379.896913	-379.895969	-379.935859	26.516	
C	 0.1154289152	 1.406065594	 0.0926386502	-0.329392
N	 0.2017990713	-0.045496136	 0.0775610765	-0.342914
C	 0.5213675379	-0.6304696306	-0.9901886223	 0.510364
O	 0.8321643631	-0.0132306463	-2.1797098932	-0.262518
C	 0.8464958136	-0.9537471565	-3.2678896753	-0.08248
C	 0.8002492185	-2.3281682237	-2.6319241485	-0.059795
N	 1.9242486961	-2.5271650894	-1.7066214815	-0.329926
C	 0.5956829363	-2.1038495946	-1.1815425818	-0.168771
H	 1.0322861293	 1.8248357396	 0.5259338437	 0.128019
H	-0.0239705445	 1.8525010533	-0.8990154078	 0.119851
H	-0.7121830604	 1.7056387412	 0.7431614144	 0.118607
H	-0.029702303	-0.7793362086	-3.9039393744	 0.112384
H	 1.7574917407	-0.783096792	-3.848613404	 0.126622
H	 0.3647214761	-3.1635458692	-3.1678435485	 0.105292
H	 2.0323386462	-3.5224235168	-1.521379193	 0.239593
H	 0.031095634	-2.7547103045	-0.5278787044	 0.115065
86.6324	122.3374	199.6608	241.4202	331.2829	411.8004	460.454	655.9016	704.9244	758.8094	821.4991	836.7601	870.6994	895.2427	963.0167	1011.9221	1039.3229	1051.2257	1088.8088	1113.1701	1126.7718	1160.6886	1171.2751	1209.0821	1232.8218	1259.973	1366.1438	1399.1346	1414.6371	1438.9812	1491.1263	1497.6771	1505.4613	1806.087	3014.095	3033.7567	3072.2243	3092.3943	3092.6711	3182.2488	3215.8656	3494.2242
CN=C1OCC2NC12	CN=C1OC[C@H]2N[C@@H]12	
InChI=1S/C5H8N2O/c1-6-5-4-3(7-4)2-8-5/h3-4,7H,2H2,1H3	InChI=1S/C5H8N2O/c1-6-5-4-3(7-4)2-8-5/h3-4,7H,2H2,1H3/t3-,4-/m1/s1
