20
gdb 95221	2.50707	1.64791	1.18214	3.7834	73.37	-0.2444	0.058	0.3025	1077.5752	0.174222	-440.27513	-440.267336	-440.266392	-440.307109	31.956	
O	 0.0530175818	 1.4640091661	 0.0349604188	-0.449079
C	 0.0949304393	 0.0518458591	-0.0007104895	 0.13369
C	 0.8741567444	-0.5300542189	 1.1864471223	-0.236089
C	 1.0416988129	-2.0484404911	 1.0464827902	-0.223196
C	-0.2739750762	-2.7464324408	 0.767630002	-0.003801
N	-1.4254245767	-2.3637738395	 1.6031358502	-0.351757
C	-1.4192372874	-2.008293013	 0.1672142248	-0.078024
C	-1.3471581513	-0.498718464	-0.0662290139	 0.092941
O	-2.1569479449	 0.1868970797	 0.8864873473	-0.451492
H	-0.7127905866	 1.6732567508	 0.5891529734	 0.284089
H	 0.6112686965	-0.2275706902	-0.9300378777	 0.072719
H	 1.8504174836	-0.0402127984	 1.2400963704	 0.103424
H	 0.3464081888	-0.2915358321	 2.1166319044	 0.10279
H	 1.7217380231	-2.2697419489	 0.2129175002	 0.102894
H	 1.5016427188	-2.4741228447	 1.946116447	 0.103481
H	-0.1923153911	-3.8019951099	 0.5137470892	 0.086253
H	-2.0326519029	-3.1589017022	 1.7750573277	 0.23943
H	-2.0952523928	-2.5591234866	-0.4808396052	 0.091103
H	-1.7633078062	-0.2554210974	-1.0492087325	 0.085696
H	-2.1041327931	-0.3552605877	 1.689307761	 0.294928
96.6299	205.3664	283.2015	305.5341	347.1679	364.97	420.0981	467.2766	482.489	580.8463	627.2401	653.924	696.0938	766.6574	798.4358	847.4229	891.5235	929.8211	952.0788	968.0477	1018.0422	1032.9209	1067.2174	1099.6434	1116.9912	1138.574	1162.643	1170.757	1212.0472	1239.4176	1252.8949	1292.6738	1302.4676	1333.9156	1347.1933	1374.7273	1391.5788	1404.351	1444.326	1449.0787	1456.0064	1482.0771	1497.4238	3008.6385	3020.0454	3047.3256	3058.1525	3061.8373	3096.106	3118.5392	3144.247	3522.7336	3691.5834	3733.5438
OC1CCC2NC2C1O	O[C@H]1CC[C@H]2N[C@H]2[C@H]1O	
InChI=1S/C6H11NO2/c8-4-2-1-3-5(7-3)6(4)9/h3-9H,1-2H2	InChI=1S/C6H11NO2/c8-4-2-1-3-5(7-3)6(4)9/h3-9H,1-2H2/t3-,4+,5-,6+/m1/s1
