14
gdb 48652	2.58726	1.38648	1.13333	3.4133	69.98	-0.2726	-0.0615	0.2111	1072.5557	0.099663	-436.657782	-436.649923	-436.648979	-436.690568	28.449	
O	-0.0060837033	-0.0512678974	 0.0018896421	-0.242992
C	 0.0349868392	 1.1431987005	-0.1321909971	 0.079104
C	 1.2785055195	 1.9397374822	-0.0668699659	 0.33511
C	 1.344134079	 3.3878444003	 0.327972821	-0.370092
C	 1.8173095755	 3.0178405477	-1.0564269856	 0.055629
C	 3.1142313751	 2.2064648356	-0.9492871352	-0.128829
O	 2.5410159642	 1.3208282691	 0.046073578	-0.292686
C	 1.2543060053	 3.5425435604	-2.2521140638	 0.218855
N	 0.8083717594	 3.9738301779	-3.2295307768	-0.335096
H	-0.8720115043	 1.7608917452	-0.313628026	 0.095622
H	 0.3976026218	 3.9176607132	 0.3519976126	 0.157528
H	 2.0691155834	 3.6760878309	 1.0830492254	 0.148493
H	 3.3470907687	 1.6566631442	-1.8648175742	 0.147038
H	 3.9965303964	 2.7384739401	-0.5806848845	 0.132315
81.6561	140.3759	163.0387	226.5564	256.5108	368.3842	414.4104	505.0762	516.9698	558.3294	624.6667	751.655	792.0015	805.466	936.9131	965.083	993.9058	1023.658	1037.3022	1083.9072	1113.5854	1158.3489	1234.438	1265.5448	1352.5208	1369.9217	1434.1094	1472.5572	1514.3741	1820.7636	2347.1443	2893.1695	3052.5822	3115.3211	3128.6222	3227.9965
O=CC12CC1(CO2)C#N	O=C[C@]12C[C@]1(CO2)C#N	
InChI=1S/C6H5NO2/c7-2-5-1-6(5,3-8)9-4-5/h3H,1,4H2	InChI=1S/C6H5NO2/c7-2-5-1-6(5,3-8)9-4-5/h3H,1,4H2/t5-,6-/m1/s1
