20
gdb 14304	3.43575	1.6967	1.60458	1.3035	74.38	-0.2323	0.0828	0.3152	938.1309	0.177647	-349.002232	-348.994309	-348.993365	-349.034268	30.57	
C	-0.0257727756	 1.5931125014	 0.0433673327	-0.414267
C	 0.0495803217	 0.085315897	-0.0238752903	-0.032537
C	 0.6669175456	-0.6838729714	-1.1863412045	-0.093139
C	 1.6178818532	 0.0415777881	-2.136437079	-0.265753
C	 2.9338694706	 0.1116829556	-1.3272107662	 0.169819
C	 3.802038123	 1.3326220542	-1.5706551249	-0.407355
O	 2.5266020173	 0.092214259	 0.053218294	-0.272924
C	 1.3476894596	-0.6636956883	 0.1577772156	 0.069701
H	 0.9460499771	 2.047586398	-0.158983546	 0.130868
H	-0.7535201603	 1.9940857455	-0.6707611626	 0.112155
H	-0.3313774575	 1.9133519206	 1.0450204711	 0.116858
H	-0.8115060597	-0.4226981264	 0.4058973249	 0.080874
H	 0.1511630485	-1.5676199819	-1.543145366	 0.085135
H	 1.7501626443	-0.5109426493	-3.0706754452	 0.10125
H	 1.2665508458	 1.0464917367	-2.3969002264	 0.10127
H	 3.5213150296	-0.7999615726	-1.5262613753	 0.067549
H	 3.2360248796	 2.2536727885	-1.3990285741	 0.122312
H	 4.6669297327	 1.3307721012	-0.9015364052	 0.126455
H	 4.1667300255	 1.3380187721	-2.6027913356	 0.114733
H	 1.4202694391	-1.5272701679	 0.8128648628	 0.086995
92.2645	146.4892	198.2756	236.9789	263.2148	315.4429	446.6853	467.6004	559.2994	611.5303	720.1284	761.725	780.8519	829.8587	891.6684	908.4388	925.4178	986.7521	997.5457	1041.8516	1049.3829	1092.4383	1117.6387	1132.7828	1144.0994	1151.4615	1158.4736	1217.2097	1228.9771	1289.5718	1321.8661	1350.6495	1370.5633	1386.9591	1409.5769	1415.5723	1427.197	1484.4931	1488.8174	1495.8112	1498.4015	1506.3834	2960.0862	3034.7845	3038.2974	3042.7014	3090.5159	3091.9686	3110.6462	3118.1722	3119.4036	3133.4575	3142.9947	3174.5212
CC1C2CC(C)OC12	C[C@H]1[C@H]2C[C@@H](C)O[C@@H]12	
InChI=1S/C7H12O/c1-4-3-6-5(2)7(6)8-4/h4-7H,3H2,1-2H3	InChI=1S/C7H12O/c1-4-3-6-5(2)7(6)8-4/h4-7H,3H2,1-2H3/t4-,5+,6-,7+/m1/s1
