22
gdb 115063	3.05433	1.2437	0.97872	1.338	87.14	-0.224	0.0181	0.242	1283.9355	0.19628	-367.207561	-367.198981	-367.198037	-367.240768	33.7	
C	-0.1539784226	 1.4932678499	-0.1247596795	-0.392249
C	-0.0390174882	-0.0262567776	 0.0320671623	-0.174092
C	 0.7643770306	-0.4893106549	 1.2609404307	 0.027203
C	 0.1345913841	-0.011194337	 2.5912821344	-0.266501
C	 0.696114641	-0.6995812896	 3.8086034867	-0.090045
C	 1.1597367508	-1.9491466686	 3.7747859758	-0.014775
C	 1.1623294952	-2.7284176045	 2.5131735805	-0.095803
N	-0.1358177728	-2.8190399616	 1.7785207443	-0.338477
C	 0.9537239244	-1.9958074187	 1.235699344	-0.03427
H	 0.8354233535	 1.963808726	-0.1617568108	 0.111168
H	-0.6782428863	 1.7518379578	-1.0501549355	 0.110633
H	-0.7069763242	 1.9483384322	 0.7025037718	 0.120233
H	-1.0398208315	-0.4736891898	 0.0849652237	 0.106815
H	 0.4327383419	-0.4413522102	-0.8686825836	 0.085065
H	 1.7735438975	-0.0544100523	 1.1957246243	 0.06972
H	 0.2642199529	 1.0717914527	 2.6869325582	 0.098998
H	-0.9492764167	-0.1855071793	 2.5505455225	 0.125418
H	 0.6863912216	-0.14836656	 4.7451827273	 0.086041
H	 1.5456547175	-2.4276867571	 4.6701219251	 0.082817
H	 1.7952653257	-3.6114191229	 2.4893745431	 0.079037
H	-0.1806381226	-3.7059589913	 1.2824237018	 0.227198
H	 1.4785919481	-2.3715759631	 0.3579710529	 0.075865
79.6986	110.3907	184.461	232.9336	257.6201	312.956	353.2213	432.5994	499.7841	513.159	634.3083	712.874	716.4084	780.9294	816.0101	850.7099	887.8613	910.0062	928.9704	941.5572	977.378	984.4199	987.8389	1047.004	1066.8153	1098.9835	1129.4672	1139.893	1163.5886	1187.1912	1205.6572	1245.2671	1263.5111	1286.0515	1324.2835	1336.6293	1361.3111	1375.4516	1397.9861	1410.3753	1428.3076	1456.8215	1473.4073	1488.5527	1500.3947	1508.1395	1713.9004	2987.5598	3013.3915	3018.1224	3030.5016	3050.7435	3067.1697	3095.9917	3105.7604	3107.5324	3139.7167	3153.9134	3178.2764	3493.1419
CCC1CC=CC2NC12	CC[C@H]1CC=C[C@H]2N[C@@H]12	
InChI=1S/C8H13N/c1-2-6-4-3-5-7-8(6)9-7/h3,5-9H,2,4H2,1H3	InChI=1S/C8H13N/c1-2-6-4-3-5-7-8(6)9-7/h3,5-9H,2,4H2,1H3/t6-,7+,8-/m0/s1
