19
gdb 64720	3.97804	1.08632	1.03704	1.2166	80.74	-0.2514	0.0415	0.2929	1216.0388	0.15764	-385.827618	-385.818891	-385.817947	-385.860788	34.241	
O	-0.0809007962	 1.4257330798	-0.0671385005	-0.482605
C	-0.0232670793	 0.019773732	 0.0121488159	 0.408852
C	 0.9041897106	-0.5467249942	-1.0843686963	-0.407524
C	 2.2569066941	-0.0142953395	-0.9686362776	 0.265553
C	 3.3457769606	 0.4778740739	-0.8283059781	-0.42841
C	 0.2471559805	-0.6141159021	 1.4289328191	-0.300346
C	-1.1235485459	-1.294124945	 1.3485592724	-0.037259
C	-2.1940672321	-0.2520233778	 1.2074746271	-0.29392
C	-1.4011490419	-0.6381862515	-0.0090474333	-0.069695
H	 0.8278953771	 1.7530170648	-0.0658788367	 0.280759
H	 0.9181809605	-1.6411562961	-1.028133267	 0.132293
H	 0.4844538059	-0.2786737862	-2.0621191486	 0.135515
H	 4.3206886726	 0.8863339515	-0.7252898378	 0.199731
H	 1.0972218756	-1.3000859608	 1.4307790662	 0.1042
H	 0.3690086223	 0.109109872	 2.2406682697	 0.097537
H	-1.3410302746	-2.3087111266	 1.6572732179	 0.084336
H	-3.2147549674	-0.6206294901	 1.2180515718	 0.109864
H	-2.064113341	 0.7323560327	 1.6475380468	 0.122354
H	-1.8698827211	-1.0509977669	-0.895320631	 0.078764
75.779	112.6383	157.3747	253.3529	333.2101	358.8543	380.4107	406.608	426.5092	441.3827	560.5297	624.8911	653.8048	688.7314	766.5628	793.1336	841.8618	883.9681	902.0771	948.7974	959.3294	973.8656	992.4917	1014.2792	1060.613	1083.7031	1087.2747	1107.5716	1142.3696	1192.7756	1215.1055	1241.4861	1273.2593	1287.4165	1301.856	1357.7008	1406.1104	1461.5223	1477.8552	1494.1829	2230.1892	3028.8026	3053.2537	3069.7472	3111.3139	3121.4579	3169.7057	3190.8964	3210.0059	3504.0613	3765.3983
OC1(CC#C)CC2CC12	O[C@@]1(CC#C)C[C@H]2C[C@@H]12	
InChI=1S/C8H10O/c1-2-3-8(9)5-6-4-7(6)8/h1,6-7,9H,3-5H2	InChI=1S/C8H10O/c1-2-3-8(9)5-6-4-7(6)8/h1,6-7,9H,3-5H2/t6-,7-,8+/m1/s1
