18
gdb 81623	4.25756	0.91661	0.83238	1.5114	75.89	-0.2532	0.0167	0.2699	1406.748	0.146352	-439.007847	-438.99932	-438.998376	-439.042121	31.333	
C	-0.089379971	 1.5682803293	-0.0328785816	-0.436426
C	-0.0572285432	 0.0525758709	-0.002393402	 0.030667
C	 1.1511230362	-0.6858958094	-0.6478607232	-0.016343
O	 2.0179053145	-0.2204793394	 0.4575744614	-0.309841
C	 0.7637287498	-0.6599613855	 1.1134965166	-0.02101
C	 0.858267455	-1.9287439989	 0.2405055389	 0.161762
O	-0.3184152039	-2.6778982083	 0.0513117755	-0.200029
C	-0.1870038637	-3.9244204323	-0.4517962979	 0.126095
N	-1.2138048503	-4.5981003645	-0.7358144873	-0.440163
H	 0.8987953569	 1.981338567	 0.1799648883	 0.137349
H	-0.4142791451	 1.9281721377	-1.0148235627	 0.119407
H	-0.7971542819	 1.955164106	 0.7077421676	 0.119986
H	-1.0289303956	-0.4018036594	-0.2078766697	 0.105657
H	 1.5524117272	-0.6296667368	-1.660307599	 0.096882
H	 0.7029224697	-0.5716632246	 2.1983798314	 0.099418
H	 1.7317618726	-2.5538693563	 0.4421509464	 0.103303
H	 0.8589399254	-4.243150431	-0.5574148794	 0.091112
H	-0.9422002025	-5.5163529645	-1.0809126934	 0.232175
33.0763	104.6412	134.0948	223.9859	263.2015	280.8424	343.5517	404.009	459.9016	660.5691	704.1791	754.9993	794.0365	803.726	824.0685	888.0858	907.1609	946.9298	1023.494	1042.231	1045.1992	1065.6055	1095.5129	1122.8141	1143.9747	1147.6485	1165.0729	1201.2423	1223.8495	1260.3918	1268.8863	1299.9057	1372.9707	1397.9508	1414.879	1426.3484	1495.1119	1505.4493	1748.1149	3026.3448	3039.4293	3088.1285	3096.0821	3097.4203	3116.4307	3124.7183	3135.186	3519.6839
CC1C2OC1C2OC=N	C[C@H]1[C@H]2O[C@@H]1[C@H]2O[CH][NH]	
InChI=1S/C6H9NO2/c1-3-4-6(8-2-7)5(3)9-4/h2-7H,1H3	InChI=1S/C6H9NO2/c1-3-4-6(8-2-7)5(3)9-4/h2-7H,1H3/t3-,4+,5-,6-
