20
gdb 106006	3.1149	1.58923	1.42301	1.666	80.77	-0.2248	0.0835	0.3083	1017.9029	0.172371	-365.938588	-365.931165	-365.930221	-365.970419	29.964	
C	-0.0252666807	 1.5781039069	 0.0403130229	-0.384453
C	-0.0655412212	 0.0478817775	-0.0568934682	-0.331926
C	 0.6929425543	-0.4793192966	-1.2344885395	 0.436387
C	 2.2334011507	-0.3585277669	-1.536978109	-0.128418
C	 2.4123196528	-1.8651436217	-1.2241661546	-0.249414
C	 0.9218255868	-1.9813139017	-1.6308092049	-0.143656
C	 0.8078629135	-1.4221102097	-3.0609044733	-0.040213
C	 1.7427123468	-0.2637260094	-2.9933738758	-0.03917
N	 0.2901602517	-0.0683426486	-2.6652597833	-0.214517
H	 0.9979111312	 1.9389459861	 0.1886546385	 0.114099
H	-0.4107248445	 2.0292705551	-0.8783453818	 0.141937
H	-0.631198532	 1.9337979092	 0.8786275934	 0.111379
H	 0.3382999128	-0.405320936	 0.8585154485	 0.100116
H	-1.1070995349	-0.2905837816	-0.1385126898	 0.107428
H	 2.8864619883	 0.416791103	-1.1409310128	 0.07172
H	 3.1534442844	-2.4308089231	-1.796720583	 0.094673
H	 2.5549810886	-2.0422930843	-0.1531208211	 0.09971
H	 0.2784283501	-2.8039372048	-1.3238782564	 0.070684
H	 0.4878268941	-1.9111060919	-3.9728350961	 0.092011
H	 2.203410987	 0.2147963083	-3.8489166438	 0.091623
92.8379	155.1539	184.4454	277.9243	346.0728	442.8009	550.9619	597.085	728.2554	749.0621	765.4876	816.5525	819.2401	835.5816	852.0366	894.5476	938.3536	946.5023	952.5976	969.4634	986.0029	1002.1432	1037.3896	1067.8482	1073.9933	1109.3814	1126.3558	1145.949	1150.9744	1178.3229	1227.8413	1234.2304	1265.6213	1289.6329	1302.4068	1332.5856	1349.2874	1391.0198	1407.0133	1469.7775	1483.9342	1496.0243	1508.547	3013.304	3039.1904	3043.7824	3047.7979	3101.2425	3106.2837	3119.8259	3131.8673	3133.5306	3181.0627	3192.8287
CCC12C3CC1C1C3N21	CC[C@@]12[C@H]3C[C@@H]1[C@@H]1[C@H]3N21	
InChI=1S/C8H11N/c1-2-8-4-3-5(8)7-6(4)9(7)8/h4-7H,2-3H2,1H3	InChI=1S/C8H11N/c1-2-8-4-3-5(8)7-6(4)9(7)8/h4-7H,2-3H2,1H3/t4-,5+,6-,7+,8+,9?
