18
gdb 87894	2.65631	1.5551	1.15484	4.7162	80.37	-0.2123	-0.0258	0.1865	1097.4595	0.148256	-401.976649	-401.968451	-401.967507	-402.009204	31.658	
C	-0.036926164	 1.530747719	-0.0158497619	-0.425113
C	 0.0301438962	 0.0220917064	 0.0413670405	-0.031008
C	 1.3110518813	-0.7106295029	-0.2320344256	-0.324938
C	 0.7467523277	-0.693466188	 1.1707670378	 0.22416
N	 1.3839433054	-0.0213157101	 2.27408423	-0.364066
C	 1.084783527	-0.7300290668	 3.4135408815	-0.012837
C	 0.4291078301	-1.8954149521	 3.1743477539	-0.278122
C	 0.1552569516	-1.9672362537	 1.7442826349	 0.360994
O	-0.405189135	-2.8212320312	 1.079840998	-0.386058
H	 0.9177503759	 1.9946253177	 0.2574685033	 0.11018
H	-0.2724001895	 1.8641608019	-1.031807215	 0.134074
H	-0.8110729219	 1.9263716046	 0.6506070554	 0.126489
H	-0.8744082479	-0.4985457771	-0.2642523505	 0.117601
H	 1.2624266055	-1.6682537787	-0.7397825248	 0.141617
H	 2.2054445579	-0.12172257	-0.4079286853	 0.114564
H	 1.4104942935	 0.9861993731	 2.3099629702	 0.250395
H	 1.4052427371	-0.3333342004	 4.3692674088	 0.130713
H	 0.158541359	-2.6443363016	 3.9016044189	 0.111354
110.5946	140.6643	194.1396	206.8139	277.0791	339.5813	406.0176	452.2212	490.7282	572.7974	584.2975	702.8098	720.1899	782.9065	817.1019	836.3005	900.7518	923.3973	930.962	945.821	1023.1835	1055.4432	1075.6404	1090.2523	1125.434	1148.9726	1163.4401	1192.1894	1276.3569	1297.7993	1368.1088	1403.3877	1417.3506	1444.9264	1472.5693	1494.4555	1506.9605	1604.1787	1778.7397	3027.2195	3089.0104	3096.9238	3126.7372	3143.245	3212.6493	3223.9029	3264.7746	3617.8346
CC1CC11NC=CC1=O	C[C@H]1C[C@]21NC=CC2=O	
InChI=1S/C7H9NO/c1-5-4-7(5)6(9)2-3-8-7/h2-3,5,8H,4H2,1H3	InChI=1S/C7H9NO/c1-5-4-7(5)6(9)2-3-8-7/h2-3,5,8H,4H2,1H3/t5-,7+/m0/s1
