15
gdb 34887	2.31807	1.74776	1.20809	4.577	69.56	-0.2588	0.0206	0.2793	1014.865	0.112767	-416.740508	-416.73307	-416.732126	-416.772634	28.171	
N	-0.1894193693	-1.2088116145	-0.0335523654	-0.334151
C	-0.0959888136	-0.057325632	 0.003367966	 0.297668
C	 0.0284059156	 1.3909023237	 0.0295835561	-0.257195
C	-0.2451547638	 2.1316541578	 1.3583146952	-0.056692
N	 0.7906083404	 1.6881647277	 2.3072230287	-0.321502
C	 1.1026967655	 2.7675135071	 1.3340889184	-0.174605
C	 1.4544315481	 2.0330305159	 0.0547140459	 0.484068
C	 2.7237227979	 1.5675216003	-0.4856825938	-0.256849
O	 1.9821116129	 2.6555387041	-1.0857894829	-0.278253
H	-0.5335226163	 1.8343335422	-0.7974213127	 0.144044
H	-1.200291063	 2.5196782524	 1.6850114104	 0.118679
H	 0.5952672055	 2.1301746437	 3.2049572193	 0.24379
H	 1.4239698307	 3.7535069946	 1.6422360638	 0.120904
H	 3.6541915309	 1.8525337468	 0.0005404862	 0.129094
H	 2.7539014587	 0.6517603103	-1.0720693453	 0.140999
101.7789	131.4899	185.6142	296.1436	333.9719	386.2331	488.7178	506.1799	570.3792	654.5142	755.4523	828.9858	840.0198	868.598	899.7606	912.941	965.4769	981.2713	1039.0019	1044.1866	1090.001	1109.0113	1118.6786	1144.561	1160.4346	1183.5176	1261.2132	1306.8956	1339.7994	1359.8181	1451.5208	1539.9502	2358.7842	3084.772	3098.7306	3192.2964	3206.5984	3218.5075	3483.1306
N#CC1C2NC2C11CO1	N#C[C@H]1[C@H]2N[C@H]2[C@]21CO2	
InChI=1S/C6H6N2O/c7-1-3-4-5(8-4)6(3)2-9-6/h3-5,8H,2H2	InChI=1S/C6H6N2O/c7-1-3-4-5(8-4)6(3)2-9-6/h3-5,8H,2H2/t3-,4+,5+,6+/m0/s1
