19
gdb 44950	2.53613	1.72522	1.53014	1.8419	73.58	-0.2359	-0.0182	0.2176	961.8388	0.162323	-423.064611	-423.057571	-423.056627	-423.095854	28.945	
O	-0.0053785902	-0.0058598603	 0.022713669	-0.331336
C	-0.025850722	 1.1967778298	-0.006415087	 0.415674
C	-1.2789823093	 2.0883830335	-0.0533009142	-0.350983
C	-0.7204356788	 3.5191765924	 0.0643555033	 0.110981
C	 0.6358816759	 3.403279768	-0.6627078234	-0.239676
C	 1.1926777685	 2.1342555527	 0.0075466262	-0.115536
C	 1.5125286748	 2.4936463148	 1.4806329874	-0.227915
C	 0.2507292312	 3.0085015667	 2.1940999414	-0.081337
O	-0.5062276174	 3.9279028363	 1.4143128191	-0.269702
H	-1.7678832125	 1.9505561247	-1.0247629515	 0.132076
H	-2.0033133218	 1.8168868647	 0.7185179997	 0.136251
H	-1.3847756549	 4.274184684	-0.359505459	 0.084383
H	 0.4913906717	 3.2662079404	-1.7399828966	 0.100483
H	 1.2573493421	 4.2873665646	-0.5020545231	 0.107635
H	 2.0524008723	 1.6740538725	-0.4819176828	 0.086586
H	 1.8982474532	 1.6214998551	 2.0187167823	 0.116078
H	 2.292694755	 3.2629635623	 1.4850041633	 0.108642
H	-0.3780623457	 2.1525655863	 2.4852625668	 0.10417
H	 0.5106986478	 3.5413123716	 3.1127354492	 0.113527
110.0144	241.171	274.6672	368.3672	403.3481	438.2516	470.0002	523.2426	601.2447	649.9299	746.3845	793.789	816.4768	841.3518	882.517	891.8013	920.2882	957.5355	998.2609	1031.4572	1042.8093	1077.9166	1091.7375	1136.1506	1156.4327	1184.1667	1220.9431	1231.6234	1260.3436	1281.7865	1306.9666	1322.8123	1332.4854	1366.1716	1381.4236	1418.1407	1436.8032	1475.1598	1490.3487	1513.664	1850.087	2983.1047	3037.0788	3045.9022	3051.7097	3084.7297	3091.5964	3098.5893	3102.3502	3106.5608	3111.9072
O=C1CC2CC1CCO2	O=C1C[C@@H]2C[C@H]1CCO2	
InChI=1S/C7H10O2/c8-7-4-6-3-5(7)1-2-9-6/h5-6H,1-4H2	InChI=1S/C7H10O2/c8-7-4-6-3-5(7)1-2-9-6/h5-6H,1-4H2/t5-,6+/m1/s1
