21
gdb 59314	2.86598	1.1064	0.86893	3.6489	79.28	-0.2342	-0.0158	0.2183	1363.5867	0.179771	-424.239157	-424.229059	-424.228115	-424.274471	37.238	
C	-0.0329831258	 1.6531409061	 0.0143028151	-0.410219
C	 0.0416863015	 0.1477895548	 0.2756911038	 0.114955
O	 0.289225466	-0.1227670163	 1.6554196956	-0.438736
C	-1.2597396626	-0.5623478398	-0.0651989213	 0.02984
C	-1.672611857	-0.620024818	-1.567899175	-0.386976
C	-1.9256307599	-2.1263640018	-1.3885737012	 0.404136
O	-2.4322026201	-2.967080599	-2.0740533188	-0.300361
C	-1.3134355701	-2.1327276341	 0.0237228301	-0.125219
C	 0.0028492374	-2.9086750609	 0.1290971139	-0.405169
H	 0.9127466333	 2.1402324646	 0.2792602883	 0.106091
H	-0.2277996707	 1.8655627651	-1.0416018573	 0.122636
H	-0.8292651296	 2.1047278556	 0.6145617254	 0.125936
H	 0.8525679748	-0.2765754846	-0.3399976405	 0.063142
H	 1.0889867935	 0.346801526	 1.9132534982	 0.28174
H	-2.0535179159	-0.124408249	 0.547436223	 0.083616
H	-2.5275090122	-0.0224029295	-1.8934730423	 0.128615
H	-0.8417435898	-0.4345367478	-2.2595949238	 0.126757
H	-2.0114340653	-2.5005577199	 0.7827927523	 0.100191
H	 0.7010583355	-2.6400085113	-0.6707518919	 0.112427
H	 0.4877285355	-2.7032844134	 1.0859944469	 0.138608
H	-0.1913149384	-3.9817429269	 0.0470322297	 0.127989
38.9938	94.6955	146.8536	202.5876	223.7124	236.4326	254.6125	291.2934	326.1173	364.1133	416.8272	476.8798	513.8373	547.7182	689.4463	732.1013	787.1984	879.3559	889.295	950.5811	985.2661	991.8903	1033.1513	1066.9244	1087.6573	1120.8836	1127.6064	1140.6517	1164.5635	1204.4017	1243.3329	1269.9369	1274.1113	1320.3718	1337.3835	1371.2982	1401.2852	1405.3778	1432.7993	1438.9117	1492.1812	1494.7018	1499.1472	1504.4806	1888.4694	2957.0027	3027.3139	3038.9758	3041.477	3052.3183	3066.1824	3093.7483	3105.4001	3108.4368	3113.1926	3131.8566	3815.0576
CC(O)C1CC(=O)C1C	C[C@@H](O)[C@H]1CC(=O)[C@H]1C	
InChI=1S/C7H12O2/c1-4-6(5(2)8)3-7(4)9/h4-6,8H,3H2,1-2H3	InChI=1S/C7H12O2/c1-4-6(5(2)8)3-7(4)9/h4-6,8H,3H2,1-2H3/t4-,5+,6-/m0/s1
