16
gdb 75990	1.88679	1.7877	1.15919	3.7923	69.19	-0.2589	-0.0483	0.2106	1084.8435	0.122406	-437.902572	-437.893414	-437.89247	-437.936791	32.461	
C	 0.1270417888	 1.6409564633	 0.092200589	-0.415977
C	 0.1260342849	 0.1225023402	 0.0163070368	-0.10567
C	 0.8377272504	-0.6440324365	-1.1636944451	-0.278404
C	 1.9295800718	 0.0935261604	-1.7707291447	 0.295233
N	 2.8325312703	 0.6658628203	-2.2125412119	-0.324059
C	 1.3828519745	-1.7107318595	-0.1055373115	 0.062755
O	 2.6396873181	-2.2703105308	-0.2164161409	-0.404232
C	 1.0584251481	-0.6505917174	 0.9696262941	 0.337164
O	 1.5363956412	-0.393319462	 2.0340757959	-0.28532
H	 1.1332074532	 2.0435968248	-0.0497987508	 0.150716
H	-0.5277306574	 2.0771240086	-0.6673550572	 0.131194
H	-0.2281751643	 1.9583545289	 1.0765087891	 0.142852
H	-0.8924209352	-0.2726036895	 0.1067877284	 0.120617
H	 0.1820005899	-1.0511644153	-1.9338213027	 0.131851
H	 0.6590548933	-2.5314359656	-0.0557809059	 0.134561
H	 3.3047823527	-1.5797466601	-0.1059369128	 0.306718
66.8786	118.9953	155.2803	162.1169	169.5893	213.1793	331.4349	344.0644	381.3279	503.9031	533.5438	567.5602	647.7642	757.6612	763.293	802.9033	893.0925	947.2354	983.1317	1041.7195	1060.081	1123.6607	1154.1392	1172.1633	1221.1976	1239.7993	1298.2677	1323.4285	1358.0143	1413.5817	1430.5603	1491.9452	1494.6426	1894.362	2350.1469	3048.3984	3049.6054	3065.1541	3114.1399	3121.4289	3128.8936	3791.8833
CC1C(C#N)C(O)C1=O	C[C@H]1[C@@H](C#N)[C@@H](O)C1=O	
InChI=1S/C6H7NO2/c1-3-4(2-7)6(9)5(3)8/h3-4,6,9H,1H3	InChI=1S/C6H7NO2/c1-3-4(2-7)6(9)5(3)8/h3-4,6,9H,1H3/t3-,4+,6+/m0/s1
