23
gdb 58198	2.64482	1.00373	0.86799	1.7526	87.9	-0.2543	0.0507	0.305	1469.509	0.201656	-388.263062	-388.251544	-388.250599	-388.299489	42.296	
C	-0.0845412153	 1.554331388	 0.1415129363	-0.40889
C	-0.0744845801	 0.0250783135	-0.0035378206	 0.026039
C	-1.5066253761	-0.5271706385	-0.0484367254	-0.39668
C	 0.7076575858	-0.4562150409	-1.2491728402	 0.145812
O	 0.0927425099	-0.0060624018	-2.4498855471	-0.43201
C	 2.2221797598	-0.1054152397	-1.2413522348	-0.221656
C	 2.9638893838	-0.6364282704	 0.0037247471	-0.400032
C	 2.8634888236	-0.6019389492	-2.4589950882	 0.342327
C	 3.4192447516	-1.0311007602	-3.4345708426	-0.461097
H	 0.9204939307	 1.9732153793	 0.2563573129	 0.114292
H	-0.554248873	 2.0299916676	-0.7272121417	 0.112104
H	-0.6631489167	 1.8514344264	 1.0214245953	 0.118191
H	 0.419815303	-0.3998008061	 0.8786852941	 0.075562
H	-2.0256489043	-0.1731944088	-0.9434330506	 0.130614
H	-1.5080587205	-1.6220830312	-0.0738566594	 0.109717
H	-2.0759572742	-0.2104553638	 0.831208675	 0.104746
H	 0.6283603859	-1.5495202206	-1.2943321654	 0.091756
H	 0.3113271567	 0.9237169979	-2.5715664403	 0.281161
H	 2.3082602924	 0.9916542077	-1.2426833617	 0.096612
H	 4.0355219551	-0.4442911507	-0.0868350154	 0.129499
H	 2.6065465858	-0.1538577352	 0.91661162	 0.121299
H	 2.8241044014	-1.7172426593	 0.1038725665	 0.128659
H	 3.8955784547	-1.4023309939	-4.3077685538	 0.191975
48.3538	79.2099	128.0108	189.6215	199.804	210.065	232.6252	241.7291	271.2464	287.1172	295.1812	357.938	413.816	441.7954	504.8823	565.4192	621.7569	628.2457	632.9251	808.6273	843.9329	902.3318	925.3482	965.289	974.5011	1025.853	1043.3121	1081.1981	1110.2063	1136.6918	1155.7378	1201.7188	1251.4681	1295.3663	1325.6572	1342.4201	1363.9714	1378.3161	1396.558	1405.7251	1417.4282	1425.4988	1486.6765	1492.8663	1496.3845	1500.0085	1507.3074	1514.824	2235.5745	2991.7133	3027.7675	3030.5372	3034.8841	3040.5592	3047.7837	3095.2662	3098.5646	3102.8872	3119.2827	3119.7956	3127.6442	3505.8896	3813.5023
CC(C)C(O)C(C)C#C	CC(C)[C@@H](O)[C@@H](C)C#C	
InChI=1S/C8H14O/c1-5-7(4)8(9)6(2)3/h1,6-9H,2-4H3	InChI=1S/C8H14O/c1-5-7(4)8(9)6(2)3/h1,6-9H,2-4H3/t7-,8+/m0/s1
