18
gdb 22730	3.03432	1.15085	0.93427	1.5225	77.2	-0.249	-0.0046	0.2443	1264.8227	0.145977	-439.009978	-439.001057	-439.000113	-439.043686	33.732	
O	-0.0757069402	 1.2865305705	 0.0246573417	-0.387829
N	 0.0217554383	-0.1127444545	 0.1098496861	-0.22944
C	-1.1196613373	-0.6571573323	 0.0552688853	 0.346022
C	-2.544262459	-0.2040429203	-0.2164233397	-0.403959
C	-2.833601229	-1.6643184842	-0.6156775808	 0.311491
C	-4.1246014614	-2.4156887586	-0.6600704219	-0.334297
C	-3.3631911326	-2.1337400288	-1.937600489	-0.313949
C	-1.4739701943	-2.1364097195	-0.0323741021	 0.003413
O	-0.6579419614	-3.0067743285	-0.7651803822	-0.417054
H	 0.8480093081	 1.5575459858	 0.065709251	 0.308307
H	-3.0715461723	 0.1338620907	 0.6823662242	 0.125131
H	-2.6488146252	 0.5621003785	-0.9896642498	 0.129661
H	-4.1331166817	-3.43524588	-0.2869833774	 0.119312
H	-5.0431016326	-1.8654490927	-0.4815949074	 0.114336
H	-3.7662146113	-1.3960394976	-2.624081026	 0.11373
H	-2.8459602664	-2.9629759535	-2.4098972058	 0.121948
H	-1.596593062	-2.5942987778	 0.9567775814	 0.107849
H	-0.3249714094	-2.5220329273	-1.5288855977	 0.285328
57.0609	148.2079	182.892	210.5776	259.2399	283.2684	332.6485	354.8145	405.3219	476.9821	502.4592	553.572	682.64	752.7189	785.0663	818.4067	856.3763	890.6131	949.4312	982.8011	988.3642	1024.5131	1052.8862	1081.764	1107.9152	1115.3529	1163.0745	1191.6331	1195.034	1235.5758	1255.3541	1296.2638	1376.2025	1403.9209	1427.6042	1462.113	1468.116	1502.1565	1780.3356	3038.1527	3046.7521	3096.5522	3121.9304	3125.8793	3201.5708	3216.9863	3802.4198	3812.9358
ON=C1CC2(CC2)C1O	ON=C1CC2(CC2)[C@H]1O	
InChI=1S/C6H9NO2/c8-5-4(7-9)3-6(5)1-2-6/h5,8-9H,1-3H2	InChI=1S/C6H9NO2/c8-5-4(7-9)3-6(5)1-2-6/h5,8-9H,1-3H2/t5-/m0/s1
