19
gdb 14778	7.31079	0.63571	0.61634	3.3912	70.92	-0.2515	0.0323	0.2838	1797.0223	0.164146	-402.213643	-402.203812	-402.202868	-402.250212	32.697	
C	 0.0229967494	 1.3302141591	-0.1982376915	-0.229394
O	-0.031865284	-0.0758494342	-0.202852676	-0.230808
C	-1.3129199637	-0.5762791715	 0.1058025171	-0.046157
C	-1.2610311066	-2.0976167483	 0.0516049739	-0.203662
C	-2.6031369367	-2.735754187	 0.4233450491	-0.161063
N	-2.5633487768	-4.1884792297	 0.3762028394	-0.275901
C	-3.2933680424	-4.9261023931	-0.503173931	 0.154342
O	-4.0751198608	-4.480524111	-1.316226909	-0.321552
H	 1.0471767397	 1.6188697889	-0.4465825225	 0.12787
H	-0.6604115219	 1.7691834409	-0.9425032715	 0.105478
H	-0.2342332913	 1.7470479077	 0.7888581978	 0.102575
H	-1.62723864	-0.2357998316	 1.1089895922	 0.082702
H	-2.0610627954	-0.192318163	-0.6096781317	 0.092122
H	-0.9706320508	-2.4133440276	-0.955859437	 0.122723
H	-0.4748821836	-2.4430013097	 0.7347031006	 0.101025
H	-2.9127560915	-2.4095828235	 1.4251754429	 0.108276
H	-3.385464361	-2.4359303113	-0.2782209387	 0.152466
H	-1.9285866777	-4.6760595329	 0.9886346088	 0.245921
H	-3.0938405147	-6.0103894222	-0.3889193429	 0.073036
27.4599	59.2945	96.2159	115.0308	133.2495	224.44	234.5652	266.7516	353.7466	387.5927	509.703	539.5464	740.7779	788.9055	891.6341	964.2541	1008.0348	1030.1511	1055.6502	1084.2112	1160.9257	1166.0345	1186.1509	1209.9014	1228.9088	1240.2793	1299.4634	1307.8783	1324.2521	1402.8067	1430.0491	1431.7318	1482.1453	1485.6614	1488.2189	1499.3135	1507.1619	1533.1604	1536.8245	1807.4402	2933.1257	2938.1774	2965.4465	2969.3583	3011.1162	3016.772	3033.5178	3084.5029	3113.9364	3114.9728	3631.279
COCCCNC=O	COCCCNC=O	
InChI=1S/C5H11NO2/c1-8-4-2-3-6-5-7/h5H,2-4H2,1H3,(H,6,7)	InChI=1S/C5H11NO2/c1-8-4-2-3-6-5-7/h5H,2-4H2,1H3,(H,6,7)
