21
gdb 41761	2.48187	2.01655	1.53633	0.2623	85.31	-0.2335	0.0343	0.2678	967.1623	0.187481	-349.969647	-349.962845	-349.961901	-350.000485	29.151	
C	 0.0788554944	 1.6548189881	 0.0393916618	-0.232854
C	 1.5726145071	 1.9501244696	-0.2236327556	-0.190506
C	 2.3199018812	 0.7712713128	 0.4699424373	-0.075576
C	 2.5322301195	 1.0827414664	 1.931199301	-0.059745
C	 1.6898457289	 0.7267559463	 2.8981871773	-0.048187
C	 0.4519135963	-0.098363325	 2.6741878255	-0.290846
C	 0.3272421047	-0.6742836206	 1.2718815606	-0.029539
C	-0.0080543968	 0.125719765	 0.0280080605	-0.046597
C	 1.3884528089	-0.4268889282	 0.2274340397	-0.077901
H	-0.2400698809	 2.0760887244	 0.9997903348	 0.103245
H	-0.5653866828	 2.0948519644	-0.7267280803	 0.095283
H	 1.7644499196	 1.9085229223	-1.3024091547	 0.091282
H	 1.8958881331	 2.9326042878	 0.1354174317	 0.088857
H	 3.290770121	 0.6011562122	-0.0058645942	 0.068558
H	 3.3994235417	 1.6933616515	 2.1731153452	 0.079309
H	 1.8830150955	 1.0332443043	 3.9237905295	 0.080262
H	 0.4483606866	-0.9262616603	 3.3961486023	 0.105288
H	-0.4381261556	 0.4976068827	 2.9275895692	 0.109151
H	-0.0949617178	-1.6755937179	 1.2585435634	 0.079311
H	-0.6881743624	-0.3391677548	-0.677515379	 0.075356
H	 1.7683525279	-1.2584360409	-0.3549897259	 0.075848
132.0937	220.3268	277.4732	437.3167	457.1496	483.1733	553.1555	631.1123	686.2209	715.7661	745.6491	769.916	837.4051	844.588	876.7941	907.075	945.1474	951.4833	953.8104	994.611	1004.3139	1015.6396	1048.7955	1054.1397	1061.4677	1110.6894	1121.1528	1180.3577	1198.4595	1202.9316	1211.0138	1232.2893	1270.5968	1304.8326	1328.2607	1339.607	1350.1145	1362.1397	1368.9687	1414.3256	1433.0334	1473.8045	1487.5395	1506.0487	1728.7769	2991.2954	3020.9978	3028.8034	3039.936	3053.4681	3079.0663	3090.8422	3133.4182	3137.0254	3158.2459	3161.2406	3170.9481
C1CC2C=CCC3C1C23	C1C[C@H]2C=CC[C@H]3[C@@H]1[C@@H]23	
InChI=1S/C9H12/c1-2-6-4-5-8-7(3-1)9(6)8/h1-2,6-9H,3-5H2	InChI=1S/C9H12/c1-2-6-4-5-8-7(3-1)9(6)8/h1-2,6-9H,3-5H2/t6-,7+,8-,9+/m1/s1
