21
gdb 102021	2.38187	1.02233	0.80306	1.7166	80.67	-0.2501	-0.0512	0.1988	1522.9171	0.178338	-424.266102	-424.255059	-424.254115	-424.303406	37.986	
C	 0.0746269633	 1.6431015753	 0.0606023344	-0.399254
C	 0.0760159723	 0.1131549911	-0.0092683447	-0.192361
C	-1.3318008218	-0.4900739195	 0.0451959968	-0.155574
C	-2.143186474	-0.1524744742	-1.204250587	 0.152814
O	-3.3447820274	-0.0968128613	-1.2464865047	-0.245792
C	-1.3018908406	-2.0347135509	 0.131047702	 0.353373
O	-0.3525060198	-2.6606794893	-0.2759067509	-0.297891
C	-2.5341507231	-2.6807893069	 0.7354014872	-0.286316
C	-2.575157915	-4.1980114428	 0.5736536305	-0.381748
H	 1.0946448805	 2.0361462809	 0.0203671015	 0.123073
H	-0.4835168723	 2.0891103079	-0.7704063624	 0.121138
H	-0.3837162074	 1.9982469437	 0.990123217	 0.120853
H	 0.5674831685	-0.2309795587	-0.9257931627	 0.12203
H	 0.6682195641	-0.3004804476	 0.813129844	 0.112246
H	-1.9074777644	-0.1153760925	 0.8992669853	 0.105604
H	-1.5243653704	 0.0064709537	-2.1159434022	 0.095161
H	-2.5481538053	-2.3969018335	 1.7982618874	 0.126115
H	-3.4164993047	-2.1915786585	 0.3032933531	 0.147924
H	-2.6072207325	-4.4781087034	-0.4828721827	 0.130095
H	-1.6848755914	-4.6604100757	 1.0065196896	 0.134098
H	-3.4588587086	-4.6135985778	 1.0652177285	 0.114411
51.4381	64.2893	76.7773	102.1828	148.4231	184.3895	208.8418	235.0695	257.2582	316.5729	329.3239	405.137	523.7784	564.1844	655.5957	762.7172	793.362	805.9855	902.7695	952.3048	979.1228	1018.1576	1023.1683	1054.0398	1104.819	1116.6221	1138.5198	1155.1177	1232.0303	1267.8694	1285.883	1330.0807	1373.6793	1377.1901	1413.3392	1414.71	1415.8379	1455.0032	1485.7327	1493.3941	1499.2278	1500.4	1503.8532	1795.9898	1828.5184	2881.4686	3012.9017	3030.9559	3049.2617	3051.9889	3054.8429	3057.2411	3078.2524	3101.689	3109.0192	3121.5785	3129.5823
CCC(C=O)C(=O)CC	CC[C@@H](C=O)C(=O)CC	
InChI=1S/C7H12O2/c1-3-6(5-8)7(9)4-2/h5-6H,3-4H2,1-2H3	InChI=1S/C7H12O2/c1-3-6(5-8)7(9)4-2/h5-6H,3-4H2,1-2H3/t6-/m0/s1
