15
gdb 5310	4.62674	1.40818	1.37762	1.8274	62.48	-0.2455	-0.0031	0.2424	941.1805	0.119345	-399.828219	-399.820703	-399.819759	-399.860484	27.124	
C	-0.1749715671	 1.5743659912	-0.0649913274	-0.403537
C	 0.0457234407	 0.0602774144	 0.0353496712	 0.00444
O	-1.1853272459	-0.6328097154	 0.2315748497	-0.423201
C	 0.7985374313	-0.4846311499	-1.1350399043	 0.354136
C	 1.96819412	-1.1421108729	-1.3199523331	-0.206861
N	 2.1450071801	-1.4155088481	-2.6730609429	-0.25583
C	 1.0899021785	-0.9240559068	-3.230163058	 0.07366
O	 0.2193647916	-0.3362388669	-2.3747841494	-0.195237
H	 0.7792585498	 2.1086866208	-0.1019370591	 0.124814
H	-0.7358742349	 1.8221911999	-0.9721689051	 0.12313
H	-0.7427273797	 1.9193521555	 0.8027049852	 0.128503
H	 0.6396800557	-0.1613802897	 0.9280676282	 0.109469
H	-1.7144669605	-0.5127202277	-0.5650901806	 0.286071
H	 2.6955896658	-1.4398227774	-0.5815692241	 0.128963
H	 0.8181217446	-0.9238462971	-4.2740833703	 0.15148
58.0795	136.1198	190.0315	254.029	301.3287	345.2357	418.4491	507.2444	665.7961	676.6473	728.7141	836.6492	866.1963	898.7561	938.6439	971.0718	1012.5087	1078.8459	1097.2905	1120.1363	1130.3088	1238.5446	1246.9943	1290.3114	1332.3874	1363.7926	1401.1715	1416.7397	1489.8605	1493.5464	1550.1943	1637.841	3039.3469	3066.2609	3113.0287	3127.4528	3265.672	3277.0631	3803.9858
CC(O)C1=CN=CO1	C[C@@H](O)c1cnco1	
InChI=1S/C5H7NO2/c1-4(7)5-2-6-3-8-5/h2-4,7H,1H3	InChI=1S/C5H7NO2/c1-4(7)5-2-6-3-8-5/h2-4,7H,1H3/t4-/m1/s1
