15
gdb 124124	3.72433	0.96169	0.76799	2.7604	80.65	-0.2057	0.0231	0.2288	1428.2804	0.113144	-416.811089	-416.802307	-416.801363	-416.846152	31.	
C	 0.0471993372	 1.4770985006	 0.0217672481	-0.5098
C	 0.0254070274	 0.0224335544	-0.0043141858	 0.184277
C	-0.0150786945	-1.1852239343	-0.0298189814	-0.167338
C	-0.0106691666	-2.5952570506	-0.0504888093	 0.028437
C	 1.114142662	-3.3916791866	 0.1365360043	 0.327787
O	 2.3980237999	-3.0788850308	 0.3684826691	-0.423664
N	 0.7205817147	-4.6746838724	 0.0474936493	-0.252538
N	-0.6175179999	-4.7959327014	-0.1911590732	-0.228122
C	-1.0508058637	-3.548449098	-0.2489691608	-0.119862
H	 0.7034556396	 1.8868429491	-0.7547829134	 0.146968
H	-0.9562560045	 1.8822922387	-0.149675427	 0.154898
H	 0.3948737282	 1.8601734098	 0.988189666	 0.14697
H	 2.4572097254	-2.114433787	 0.3937267676	 0.314634
H	 1.2941286898	-5.4959604231	 0.136389162	 0.281414
H	-2.095835665	-3.3459706583	-0.4307861255	 0.115937
21.9263	77.742	107.8355	256.7067	258.6175	307.6865	389.4713	390.49	463.7718	477.4098	488.2145	570.9572	671.2655	719.9666	727.3885	884.3212	932.381	1000.9649	1049.8738	1053.5764	1092.4542	1180.154	1211.7014	1265.5075	1358.3798	1401.0598	1416.1275	1466.249	1474.3753	1479.5466	1601.0952	1626.5353	2348.3434	3022.0017	3077.951	3087.0135	3249.8608	3680.3083	3775.223
CC#CC1=C(O)NN=C1	CC#Cc1c(O)[nH]nc1	
InChI=1S/C6H6N2O/c1-2-3-5-4-7-8-6(5)9/h4H,1H3,(H2,7,8,9)	InChI=1S/C6H6N2O/c1-2-3-5-4-7-8-6(5)9/h4H,1H3,(H2,7,8,9)
