19
gdb 114387	3.47221	1.07986	0.99932	2.1208	71.42	-0.2335	0.0619	0.2954	1240.7841	0.157342	-460.102899	-460.093831	-460.092887	-460.136467	34.665	
C	 0.4506202981	 1.7817547865	-0.6316686667	-0.462035
C	 0.4343185778	 0.2888336935	-0.4104713459	 0.37017
O	-0.6620513369	-0.3743040596	-0.9963540574	-0.460702
C	 1.6718531501	-0.5617843438	-0.3839781564	 0.012804
O	 2.7623332012	 0.1054509475	 0.2631958309	-0.318534
C	 2.0489438959	 0.0420757851	 1.5438072611	 0.116298
C	 2.1197822644	 1.3434544779	 2.3210655521	-0.094148
O	 3.4710473217	 1.6928017326	 2.5666164711	-0.420275
C	 0.7923902409	-0.4738204598	 0.8554616876	-0.212284
H	 1.4166294004	 2.2099310665	-0.3617208542	 0.136897
H	 0.2837874922	 1.9920545246	-1.6957992855	 0.103821
H	-0.3398115778	 2.2828074636	-0.0645498674	 0.126719
H	-0.600476696	-0.254029712	-1.9509283009	 0.284639
H	 1.8933807348	-1.3738264433	-1.0680229283	 0.107294
H	 2.5110103384	-0.7511687884	 2.1464137572	 0.097175
H	 1.581888712	 2.1470021599	 1.8024651671	 0.093809
H	 1.6443258202	 1.203216869	 3.2985702157	 0.112251
H	 3.9111206819	 1.7002220373	 1.7084296856	 0.295114
H	 0.0985488007	-1.1977532373	 1.2595832943	 0.110986
76.0302	125.5883	183.8956	236.0169	271.9698	279.9888	321.5021	394.1967	404.127	416.7641	458.853	521.7889	573.4779	669.6574	757.3468	821.5676	860.5707	902.6372	963.0836	990.3442	1008.7901	1026.9094	1032.3921	1062.6498	1083.7851	1100.6988	1134.8282	1185.3013	1214.2987	1233.2145	1269.9287	1296.4304	1312.3115	1348.073	1399.4465	1410.2422	1428.1514	1440.1245	1488.2163	1495.2342	1509.3902	3017.07	3026.2147	3029.6946	3074.8488	3090.1243	3145.1604	3171.6757	3214.0056	3790.414	3796.1534
CC1(O)C2OC(CO)C12	C[C@@]1(O)[C@H]2O[C@@H](CO)[C@@H]12	
InChI=1S/C6H10O3/c1-6(8)4-3(2-7)9-5(4)6/h3-5,7-8H,2H2,1H3	InChI=1S/C6H10O3/c1-6(8)4-3(2-7)9-5(4)6/h3-5,7-8H,2H2,1H3/t3-,4+,5-,6-/m0/s1
