25
gdb 60101	3.40259	0.9167	0.86341	0.2443	93.11	-0.2407	0.0806	0.3213	1522.1298	0.228664	-352.340062	-352.330206	-352.329262	-352.374864	38.025	
C	-0.0215640008	 1.5990181859	 0.153701345	-0.379029
C	 0.0322251753	 0.0676268136	 0.0751399146	 0.05149
C	 0.7689448274	-0.5146666272	 1.2885320299	-0.389905
C	-1.3700611908	-0.5646084613	-0.0586101143	-0.316765
C	-2.107508175	-0.204916076	-1.3208744123	 0.399111
C	-3.0570983835	 0.9584383581	-1.4427913575	-0.311781
C	-3.5786287299	-0.4288774947	-1.7008348563	-0.119264
C	-3.1761010979	-0.8835771327	-3.1070416276	-0.220561
C	-1.6763178913	-0.6472393487	-2.7321727304	-0.281893
H	 0.9853723737	 2.0224206012	 0.2339788909	 0.105783
H	-0.5005787299	 2.0334707787	-0.7275671439	 0.121092
H	-0.5877591795	 1.9246084123	 1.0352346121	 0.106201
H	 0.6022171146	-0.2037358642	-0.8253398955	 0.073856
H	 0.2376432639	-0.2773463368	 2.2183405435	 0.109777
H	 0.8513407569	-1.6048682914	 1.2225919676	 0.107291
H	 1.7812533725	-0.1054694402	 1.3727415301	 0.107204
H	-1.2593385403	-1.6574869129	-0.0112175848	 0.086979
H	-1.9763489094	-0.2815194306	 0.8136270161	 0.086956
H	-3.3655191551	 1.4020305877	-0.5009870876	 0.105978
H	-2.967835642	 1.6726441428	-2.2601725745	 0.096742
H	-4.3773072036	-0.8535229046	-1.102943301	 0.079663
H	-3.3916307971	-1.9368205405	-3.3005339583	 0.100038
H	-3.578401398	-0.2901817091	-3.9354187971	 0.092459
H	-1.1267123108	 0.0924439396	-3.3243325705	 0.090385
H	-1.1027392193	-1.578242329	-2.7255551182	 0.098194
58.9683	84.456	125.4749	212.5243	230.3169	248.598	307.6206	334.8637	340.0815	410.4584	429.2844	442.9374	677.778	730.8116	785.2697	804.0259	856.5092	875.4077	896.2974	928.818	934.9452	951.1834	959.0556	969.1257	971.9301	1020.6882	1027.2366	1066.3603	1087.5357	1122.5852	1144.3679	1159.7783	1191.9817	1219.7765	1224.4156	1240.9754	1265.3862	1279.3466	1316.7707	1323.6392	1370.7692	1372.9804	1401.1093	1406.5827	1422.7688	1474.4738	1482.07	1486.605	1487.882	1495.7209	1504.8679	1509.265	1513.781	2994.3292	2997.7538	3021.7611	3027.29	3034.2068	3035.6006	3043.9914	3084.8385	3085.5674	3090.8914	3092.7143	3096.7184	3106.5775	3113.7256	3169.622	3189.8942
CC(C)CC12CC1CC2	CC(C)C[C@]12C[C@H]1CC2	
InChI=1S/C9H16/c1-7(2)5-9-4-3-8(9)6-9/h7-8H,3-6H2,1-2H3	InChI=1S/C9H16/c1-7(2)5-9-4-3-8(9)6-9/h7-8H,3-6H2,1-2H3/t8-,9-/m1/s1
