20
gdb 94925	2.09519	1.69884	1.47582	2.0112	79.59	-0.2353	-0.0332	0.2021	1041.8304	0.171673	-403.140735	-403.132257	-403.131313	-403.173825	32.137	
C	 0.0636166718	 1.5604057151	-0.1517268307	-0.410547
C	 0.0183179989	 0.0345361248	-0.0301912487	 0.022778
C	 0.5657028553	-0.734243926	-1.2598931476	-0.248375
C	 1.2514597251	-1.9904172023	-0.6742564511	-0.158772
N	 1.4732812502	-1.7824337357	 0.778214567	-0.119035
C	 2.3029312867	-0.6277179847	 1.18035649	-0.100614
C	 3.2451633465	 0.1598457691	 0.3434519757	 0.14668
O	 3.3729261235	 0.1500705351	-0.859196746	-0.277905
C	 0.789579484	-0.5524120766	 1.1469877672	-0.047046
H	 1.0816082234	 1.911296574	-0.3452330277	 0.129282
H	-0.5679120843	 1.9016602471	-0.9781976007	 0.119667
H	-0.297337176	 2.0448022994	 0.7618784933	 0.112412
H	-1.0267515989	-0.2594203052	 0.1372174842	 0.081515
H	-0.2352977726	-0.9973495278	-1.9561230829	 0.095262
H	 1.2928103472	-0.1254589434	-1.7961154322	 0.137701
H	 0.6011890075	-2.8683372784	-0.7458477015	 0.108554
H	 2.1930591271	-2.226369887	-1.1723726179	 0.127328
H	 2.715899711	-0.7600930109	 2.1806008073	 0.102906
H	 3.9128647745	 0.793868517	 0.9714095317	 0.080982
H	 0.3028440491	-0.5353068434	 2.1202951506	 0.097228
77.3241	135.9908	173.5746	217.8305	244.6042	265.857	350.3129	359.0708	514.7815	622.8081	668.1504	698.4947	739.872	820.4713	836.2192	861.9791	906.187	947.4176	969.9334	986.6929	996.3823	1049.7501	1078.6921	1097.8951	1119.1531	1149.9351	1174.1921	1220.7127	1254.3114	1294.6315	1315.5855	1333.1669	1339.7209	1364.8496	1384.4059	1402.1622	1415.3024	1439.1214	1487.3985	1496.7948	1501.6201	1504.5889	1802.2761	2864.2688	3009.2883	3034.7135	3051.2403	3071.5856	3098.81	3104.0313	3113.0239	3119.5475	3125.4914	3143.6022
CC1CCN2C(C=O)C12	C[C@H]1CCN2[C@@H](C=O)[C@@H]12	
InChI=1S/C7H11NO/c1-5-2-3-8-6(4-9)7(5)8/h4-7H,2-3H2,1H3	InChI=1S/C7H11NO/c1-5-2-3-8-6(4-9)7(5)8/h4-7H,2-3H2,1H3/t5-,6-,7+,8?/m0/s1
