18
gdb 81469	2.37168	1.98747	1.69	3.0585	70.32	-0.2169	0.0534	0.2703	899.9612	0.149824	-439.02498	-439.01785	-439.016905	-439.056134	28.969	
O	 0.020718612	 1.4961213838	-0.0689909123	-0.420825
C	 0.0102444337	 0.0942757144	 0.0146451777	 0.093873
C	 0.2200787946	-0.6604248458	 1.3456862174	 0.028413
C	-0.4932224584	 0.0090782376	 2.5284910149	-0.167019
N	-1.9452397347	 0.1718665499	 2.3169115576	-0.093603
C	-2.4381356458	 1.2552666748	 1.4645336929	-0.263421
C	-2.4053354547	-0.1461757709	 0.9562363749	-0.017114
C	-1.32990978	-0.6781322399	 0.0341588431	 0.026952
O	-0.6238895104	-1.7155247189	 0.8015150204	-0.292811
H	 0.9080153613	 1.7812447376	-0.3054455651	 0.292989
H	 0.6459888455	-0.3540730363	-0.7565124995	 0.093566
H	 1.217076819	-1.0227737136	 1.6135101334	 0.07283
H	-0.3660497381	-0.6278304105	 3.4110646745	 0.113743
H	-0.0242127712	 0.9760721713	 2.7465764918	 0.104627
H	-3.392363935	 1.6683365194	 1.7831766872	 0.107395
H	-1.7356615672	 1.9696103192	 1.0554522303	 0.146907
H	-3.3302969798	-0.7196312082	 0.9188334578	 0.093979
H	-1.7269548609	-1.0615305239	-0.908575467	 0.079517
175.687	191.8563	245.1245	281.7133	388.5167	422.9232	454.834	586.9403	609.7536	628.2597	716.9601	785.9958	827.3386	867.8752	881.1639	892.3133	943.0042	984.9661	1011.0993	1049.9196	1067.0293	1082.7652	1124.4517	1134.219	1157.3532	1184.7124	1190.1962	1217.1414	1239.6673	1269.6101	1309.4989	1319.6972	1339.2321	1359.9045	1385.0761	1399.3273	1451.9845	1479.1414	1512.5521	3028.9402	3043.9238	3067.2298	3071.6224	3085.4946	3112.2349	3119.2929	3233.6878	3832.9799
OC1C2CN3CC3C1O2	O[C@H]1[C@H]2CN3C[C@H]3[C@@H]1O2	
InChI=1S/C6H9NO2/c8-5-4-2-7-1-3(7)6(5)9-4/h3-6,8H,1-2H2	InChI=1S/C6H9NO2/c8-5-4-2-7-1-3(7)6(5)9-4/h3-6,8H,1-2H2/t3-,4+,5-,6-,7?/m0/s1
