15
gdb 10157	2.50294	1.47732	0.97968	2.8803	63.01	-0.2758	-0.0551	0.2206	1150.0846	0.11604	-399.802494	-399.793456	-399.792511	-399.83733	29.646	
C	-0.0801010069	 1.3447196261	-0.0911863675	-0.233731
O	-0.01825392	-0.0634221929	-0.0096004115	-0.235653
C	 0.563612649	-0.6505823596	-1.1439096913	-0.0541
C	 0.6282259606	-2.1617800568	-0.8932252952	-0.262489
C	 1.0217108645	-2.9521287668	-2.1522189073	 0.157673
O	 1.045770048	-2.4687216347	-3.2497583473	-0.224399
C	 1.520775233	-2.5185187815	 0.2098874707	 0.27334
N	 2.2538242286	-2.8316329609	 1.0461832369	-0.307464
H	 0.9226707734	 1.788822857	-0.1790832185	 0.116176
H	-0.6831672801	 1.6748941686	-0.9506306206	 0.111683
H	-0.547023869	 1.7000631689	 0.829478415	 0.138228
H	-0.0318598552	-0.471577468	-2.0503981403	 0.119551
H	 1.5752176216	-0.2580649593	-1.329605574	 0.114849
H	-0.3819783192	-2.5029837788	-0.6186025717	 0.16555
H	 1.2663868017	-4.0180427413	-1.9674483773	 0.120786
64.7016	76.463	93.3626	146.262	173.2868	225.4962	257.3074	311.181	399.5671	513.1441	576.3696	640.9473	798.1908	892.4358	983.389	1050.5498	1087.6496	1124.6819	1165.1333	1184.8768	1226.2177	1241.8175	1251.1041	1319.7456	1406.5629	1424.9725	1481.7219	1486.2539	1502.5986	1525.4318	1839.1086	2361.6569	2930.8859	2979.3185	2991.1282	3009.4724	3030.0001	3034.661	3127.9522
COCC(C=O)C#N	COC[C@@H](C=O)C#N	
InChI=1S/C5H7NO2/c1-8-4-5(2-6)3-7/h3,5H,4H2,1H3	InChI=1S/C5H7NO2/c1-8-4-5(2-6)3-7/h3,5H,4H2,1H3/t5-/m1/s1
