14
gdb 29153	3.18523	1.39905	0.97269	3.3654	70.82	-0.1965	-0.0382	0.1584	1113.37	0.101444	-473.877726	-473.869993	-473.869049	-473.9096	30.139	
N	-0.0025922418	 1.3803589451	 0.1373700098	-0.57463
C	-0.0770582499	 0.0145156972	 0.0490616796	 0.160783
C	-1.2134439487	-0.7366005242	 0.0301837411	-0.23566
C	-1.1194725639	-2.1616719613	-0.0021796659	 0.283214
O	-2.3032502435	-2.8411417688	-0.0118114249	-0.437754
C	 0.0959644816	-2.7481150774	-0.0189545374	-0.095802
O	 1.2422881277	-2.0022078837	-0.0152293507	-0.206359
C	 1.241374838	-0.6422465337	 0.0082693474	 0.425765
O	 2.2901948363	-0.0364538591	-0.0142693412	-0.379034
H	 0.9088936973	 1.7549373202	-0.0847618216	 0.273063
H	-0.7959337552	 1.9237071638	-0.1601053315	 0.256385
H	-2.1995413822	-0.2851986708	 0.04764395	 0.108728
H	-2.1293654276	-3.788201553	-0.0329612694	 0.301143
H	 0.2975854219	-3.8101424042	-0.0399482654	 0.120157
124.2396	202.2278	305.6193	321.116	366.1336	374.9756	388.0098	442.2117	477.0486	503.1651	521.9341	604.1996	614.2692	683.1909	732.3107	787.5564	825.3116	873.468	998.5979	1093.8513	1146.2937	1181.6758	1207.3616	1267.2526	1343.7354	1406.852	1497.6087	1593.3491	1645.0789	1700.5743	1793.1781	3190.1282	3225.3556	3571.3023	3698.8554	3820.8876
NC1=CC(O)=COC1=O	Nc1cc(O)coc1=O	
InChI=1S/C5H5NO3/c6-4-1-3(7)2-9-5(4)8/h1-2,7H,6H2	InChI=1S/C5H5NO3/c6-4-1-3(7)2-9-5(4)8/h1-2,7H,6H2
