18
gdb 8902	3.67697	1.16366	1.06154	2.2396	69.66	-0.256	0.0459	0.3019	1162.9916	0.150937	-384.897766	-384.888216	-384.887271	-384.932007	34.753	
C	-0.1317000113	 1.6237057848	 0.0379094885	-0.418435
C	-0.0214139313	 0.0844815524	-0.0256924287	-0.180531
C	-1.3509234887	-0.5226593824	 0.0028966582	 0.32877
C	-2.4484657443	-1.011729581	 0.0239043269	-0.456189
C	 0.7900531109	-0.4324674233	-1.2437039933	 0.09914
O	 0.2929719335	 0.048149102	-2.491357537	-0.438759
C	 2.2930514796	-0.1449697038	-1.1551896129	-0.07746
O	 2.9573546897	-0.6565944861	-2.2898330111	-0.424885
H	 0.8534332586	 2.0976906802	 0.064113041	 0.12375
H	-0.6915106763	 2.0121381635	-0.8188279823	 0.127382
H	-0.6758534979	 1.9223847243	 0.93664223	 0.139009
H	 0.5233099493	-0.2517057061	 0.8680808703	 0.112166
H	-3.4145687843	-1.4519998759	 0.041589805	 0.196716
H	 0.6630264983	-1.5179533917	-1.3020032931	 0.111857
H	 0.3130129892	 1.0119540986	-2.4704689244	 0.286025
H	 2.4657144184	 0.9408974726	-1.0494704603	 0.076839
H	 2.7224814132	-0.6318162842	-0.2722360822	 0.108581
H	 2.3729150336	-0.4666356337	-3.0356913042	 0.286024
52.9272	110.0325	138.9487	197.1104	223.7781	261.9858	289.9397	333.8806	361.2087	412.3517	490.3231	513.2234	557.1689	625.9122	641.85	667.1807	814.2702	869.0975	937.9588	996.0973	1051.3568	1075.3591	1099.9833	1107.2654	1141.0142	1205.8012	1276.0049	1280.4415	1332.1446	1344.4564	1384.4178	1403.8533	1430.5218	1442.6594	1490.4362	1508.3499	1508.4292	2237.9055	2945.4691	3007.8649	3043.5865	3060.1166	3075.8399	3114.3659	3127.4627	3505.0429	3762.5066	3795.9799
CC(C#C)C(O)CO	C[C@@H](C#C)[C@@H](O)CO	
InChI=1S/C6H10O2/c1-3-5(2)6(8)4-7/h1,5-8H,4H2,2H3	InChI=1S/C6H10O2/c1-3-5(2)6(8)4-7/h1,5-8H,4H2,2H3/t5-,6-/m0/s1
