20
gdb 64387	2.27615	1.51764	1.16485	2.9354	78.49	-0.2641	0.0277	0.2918	1137.6838	0.170611	-403.18288	-403.173566	-403.172622	-403.216851	34.628	
C	 0.252635024	 1.5095701867	-0.2137599758	-0.435812
C	 0.0188159101	 0.0088013135	 0.0067717613	 0.359908
C	-1.4666042716	-0.3075670178	 0.1343794662	-0.432407
O	 0.5265400877	-0.7541240166	-1.0883374331	-0.284493
C	 1.9309379651	-0.93944943	-0.9397698944	-0.088312
C	 2.2584396002	-0.764702515	 0.5644292406	-0.269959
C	 0.8596979933	-0.5609899192	 1.196266203	-0.163499
C	 0.8594675762	 0.2571974903	 2.4007772716	 0.277436
N	 0.8486876645	 0.9121645819	 3.3536441671	-0.33801
H	 1.3167950018	 1.7482417776	-0.2996508919	 0.118479
H	-0.2386097339	 1.8172935935	-1.1405684929	 0.127845
H	-0.1563962617	 2.097879307	 0.6118896025	 0.140844
H	-2.0052375074	 0.0439272307	-0.7498395162	 0.129742
H	-1.6209747023	-1.3865370642	 0.2219092599	 0.122353
H	-1.8914579708	 0.1843946899	 1.0141926311	 0.132283
H	 2.1685533829	-1.9412717496	-1.3096066156	 0.115046
H	 2.487624872	-0.2149161571	-1.5487824833	 0.105393
H	 2.7675300292	-1.6310363526	 0.9901071072	 0.126084
H	 2.8915960056	 0.1074822825	 0.7392560268	 0.131049
H	 0.4334802353	-1.5366073612	 1.4532719959	 0.126029
75.0816	121.5626	141.519	201.5366	215.9601	241.106	298.6553	342.6149	385.8172	441.2807	513.1303	556.3827	586.103	690.4599	731.5828	843.3001	854.0053	924.6558	945.8745	972.796	1004.2085	1011.1635	1062.0214	1077.0228	1087.5677	1174.8415	1190.8134	1227.9453	1251.9372	1263.3792	1293.5768	1315.9296	1354.7382	1387.0065	1402.2076	1419.1352	1475.9766	1483.4723	1495.9405	1498.4366	1508.3304	1532.725	2354.4261	3013.7429	3043.4575	3048.1343	3054.3515	3075.0188	3080.6686	3116.9168	3120.7923	3122.3589	3128.4264	3129.3776
CC1(C)OCCC1C#N	CC1(C)OCC[C@H]1C#N	
InChI=1S/C7H11NO/c1-7(2)6(5-8)3-4-9-7/h6H,3-4H2,1-2H3	InChI=1S/C7H11NO/c1-7(2)6(5-8)3-4-9-7/h6H,3-4H2,1-2H3/t6-/m0/s1
