15
gdb 65859	3.64008	1.11251	1.0864	5.0476	67.3	-0.2674	0.0064	0.2738	1132.239	0.110892	-457.766642	-457.758305	-457.757361	-457.799604	31.24	
O	-0.3071584573	 1.2800983217	 0.0756733334	-0.452836
C	-0.0161849765	-0.1073879776	-0.058803741	 0.148835
C	 0.6215243532	-0.6627889758	 1.245681387	-0.104731
O	-0.4657812846	-0.9051193401	 2.1372422425	-0.215332
C	-1.6433396827	-1.0213881884	 1.4549178163	 0.423402
O	-2.6770202283	-1.2656750184	 1.9985982008	-0.327826
C	-1.3756438201	-0.8170995148	-0.0322523047	-0.370213
C	 0.811353402	-0.3717831798	-1.2333093522	 0.269687
C	 1.5223964838	-0.5599934335	-2.1837949567	-0.430499
H	 0.5207395124	 1.7689132412	 0.0082683137	 0.289374
H	 1.1641190866	-1.5962048971	 1.0603631729	 0.124858
H	 1.2938609239	 0.065158092	 1.7052949886	 0.125861
H	-2.159854894	-0.2238598961	-0.5006749319	 0.162074
H	-1.3276716358	-1.7943658144	-0.5206219744	 0.149457
H	 2.1397243874	-0.7308339189	-3.0316478145	 0.207888
82.2386	139.753	169.961	194.8056	304.4024	377.6353	392.0973	434.963	487.9432	550.2569	578.9871	599.0081	647.6178	680.7739	696.4058	817.6647	846.1341	916.594	947.4867	1056.3366	1073.9287	1092.5837	1126.7751	1170.8217	1205.734	1259.5045	1282.8372	1354.666	1401.0841	1445.8083	1502.1792	1897.0955	2236.5275	3047.048	3082.9935	3113.3162	3156.1912	3497.464	3808.2832
OC1(COC(=O)C1)C#C	O[C@]1(COC(=O)C1)C#C	
InChI=1S/C6H6O3/c1-2-6(8)3-5(7)9-4-6/h1,8H,3-4H2	InChI=1S/C6H6O3/c1-2-6(8)3-5(7)9-4-6/h1,8H,3-4H2/t6-/m1/s1
