21
gdb 72885	2.91143	1.41595	1.16517	1.8287	82.47	-0.2553	0.0712	0.3265	1144.6766	0.181946	-387.050303	-387.041835	-387.040891	-387.083639	33.246	
C	-0.4508352898	 1.5565684321	 0.0098844554	-0.493445
C	-0.0086518306	 0.1103633612	 0.0087668093	 0.381598
C	-1.0928489733	-0.9943022888	 0.1523636395	-0.276831
C	-0.2443556333	-1.7047272995	 1.2491254581	-0.225249
C	 0.8093099045	-0.5648406867	 1.1888123325	-0.179106
C	 1.9369665005	-0.8355252308	 0.2002516857	 0.479289
C	 3.3835809202	-0.8184201013	 0.4220184518	-0.273111
O	 2.6820662766	-2.043219849	 0.1656914087	-0.273515
C	 1.133943115	-0.2817514098	-0.9839464897	-0.388256
H	 0.4052080121	 2.2383596709	 0.0722708677	 0.112468
H	-0.9998773491	 1.7994088421	-0.9085772286	 0.117341
H	-1.1125348222	 1.7711594726	 0.8565322646	 0.113312
H	-2.038631444	-0.6030990055	 0.5387471194	 0.09658
H	-1.3089989079	-1.5700741116	-0.7524376292	 0.095638
H	-0.749257246	-1.7878965309	 2.2135729026	 0.099711
H	 0.1531725904	-2.6874426854	 0.9850662406	 0.117486
H	 1.0603119025	-0.0585948553	 2.123011984	 0.061377
H	 4.0508019473	-0.4873851135	-0.3738998685	 0.111492
H	 3.777253468	-0.7092693415	 1.4324418708	 0.112231
H	 0.8618991929	-1.0293478721	-1.7348153325	 0.10879
H	 1.6036454861	 0.5667871328	-1.4905233725	 0.102198
35.8508	175.5007	220.864	241.215	272.6517	303.3974	363.5757	380.5368	481.1821	525.4454	626.894	717.8629	749.3869	815.6893	840.1963	865.5918	893.3453	901.0314	937.7429	954.1224	959.3563	996.6924	1015.98	1065.542	1120.1419	1130.92	1132.4696	1153.1464	1168.7727	1201.9598	1215.6726	1239.9036	1242.3468	1247.7018	1274.5835	1286.5006	1336.052	1408.5051	1431.7075	1470.9879	1479.2236	1490.2591	1491.6906	1498.5738	1532.746	3015.224	3045.2906	3047.8315	3067.9698	3072.2663	3078.1942	3085.782	3086.9519	3092.3015	3099.9157	3122.0577	3157.9041
CC12CCC1C1(CO1)C2	C[C@]12CC[C@H]1[C@]1(CO1)C2	
InChI=1S/C8H12O/c1-7-3-2-6(7)8(4-7)5-9-8/h6H,2-5H2,1H3	InChI=1S/C8H12O/c1-7-3-2-6(7)8(4-7)5-9-8/h6H,2-5H2,1H3/t6-,7-,8-/m1/s1
