17
gdb 108695	2.19655	1.30693	0.85878	2.3477	74.9	-0.2482	-0.0699	0.1783	1296.4686	0.134734	-458.967197	-458.958101	-458.957156	-459.002146	31.523	
O	 0.8617569447	-0.7983846399	 0.9131395805	-0.405196
C	 0.060050734	-0.0150206045	 0.0372369263	-0.180732
C	-1.3688822204	-0.4696949187	 0.0277910482	 0.156411
C	-2.5053297051	 0.2351903382	 0.1598107462	 0.093384
C	-3.691563679	-0.6893272672	 0.0479092303	-0.153975
O	-3.1342505968	-1.9972839529	-0.0669545446	-0.266875
C	-1.7212962027	-1.9207366176	-0.1715194758	-0.135062
C	-2.6610047953	 1.6739843614	 0.3663368755	 0.065596
O	-3.7413733566	 2.2198349387	 0.4438742355	-0.265177
H	 0.5530659077	-0.6442253201	 1.8124354066	 0.291347
H	 0.1381873984	 1.0559935806	 0.2640140576	 0.110875
H	 0.493059091	-0.1649896124	-0.9596632694	 0.134819
H	-4.3447435602	-0.6381327729	 0.9289293386	 0.124873
H	-4.3112880258	-0.4506694506	-0.8292812611	 0.12032
H	-1.3769976082	-2.2765916734	-1.1584501028	 0.112332
H	-1.2482645506	-2.5667845673	 0.5806151706	 0.125093
H	-1.7209605952	 2.2586336386	 0.4564681176	 0.071966
55.2417	81.0122	126.4183	149.2804	185.5664	240.7721	286.0111	353.2823	387.1406	504.6296	542.0654	661.7649	707.3208	846.7551	910.2094	947.9518	984.1848	1019.1501	1032.9703	1065.5573	1076.8661	1106.0897	1166.2598	1187.2156	1214.9574	1235.8959	1287.5493	1371.9201	1387.7972	1390.878	1409.0671	1425.9585	1490.6138	1509.1923	1523.5368	1704.073	1773.3951	2899.5449	2954.547	2996.1646	3019.066	3021.2345	3032.829	3058.5624	3810.8248
OCC1=C(COC1)C=O	OCC1=C(COC1)C=O	
InChI=1S/C6H8O3/c7-1-5-3-9-4-6(5)2-8/h1,8H,2-4H2	InChI=1S/C6H8O3/c7-1-5-3-9-4-6(5)2-8/h1,8H,2-4H2
