16
gdb 48091	3.68851	1.17511	1.02593	1.8501	72.4	-0.2473	-0.1	0.1473	1157.0537	0.123439	-437.846487	-437.838505	-437.837561	-437.879771	29.139	
O	-0.7109530222	 1.802029554	-1.4682782714	-0.21921
C	 0.1231098267	 1.1866358493	-0.8590697942	 0.102424
C	 1.089045349	 1.8048167632	 0.167157429	 0.280569
O	 1.885180787	 1.0510013384	 0.6935284231	-0.314704
C	 0.9232148006	 3.2553838892	 0.4039280784	-0.119322
C	 0.9658988045	 3.896661847	 1.7589074486	-0.036086
C	 1.9668511918	 3.249820397	 2.7117384863	-0.250291
C	 3.0287155147	 3.5523419528	 1.6258259824	-0.149001
N	 2.0059411368	 4.2288450749	 0.7372006639	-0.148187
H	 0.284696025	 0.0936738975	-0.971214879	 0.110515
H	 0.2119270547	 3.7059996017	-0.2802563882	 0.130864
H	 0.1785748532	 4.594413679	 2.0293156992	 0.110618
H	 2.1039589951	 3.8277154837	 3.6272903212	 0.116337
H	 1.7976294916	 2.2018066394	 2.9638109053	 0.129766
H	 3.7589557539	 4.3068269955	 1.9234960961	 0.118218
H	 3.5350397374	 2.7035278874	 1.1692100593	 0.13749
48.3039	128.1252	176.3929	197.3094	249.5853	337.7703	386.1823	546.5775	604.4995	619.0119	738.4548	769.4255	789.3136	796.1229	862.3665	932.1075	954.4237	1010.2082	1030.8938	1049.429	1078.7873	1112.5166	1149.4852	1185.1454	1216.2486	1233.2116	1267.7283	1287.2205	1352.6553	1362.7958	1431.2018	1474.9652	1494.9423	1767.4162	1824.2488	2926.0935	3079.799	3087.4998	3132.2407	3154.6935	3157.7294	3180.2872
O=CC(=O)C1C2CCN12	O=CC(=O)[C@H]1[C@H]2CCN12	
InChI=1S/C6H7NO2/c8-3-5(9)6-4-1-2-7(4)6/h3-4,6H,1-2H2	InChI=1S/C6H7NO2/c8-3-5(9)6-4-1-2-7(4)6/h3-4,6H,1-2H2/t4-,6-,7?/m1/s1
