17
gdb 47510	2.8349	1.40041	1.06104	1.7036	67.97	-0.2458	-0.0278	0.218	1117.3166	0.135484	-458.955541	-458.947709	-458.946765	-458.98854	29.694	
O	 0.1674204366	 0.609275583	-1.1720952414	-0.296533
C	 0.0192915066	 1.3092599043	-0.2014914478	 0.340813
C	-1.3231948927	 1.9712150473	 0.1239225561	-0.180934
O	-1.2691138094	 2.762772135	 1.2921725282	-0.236434
C	-0.2450621853	 3.7384126739	 1.2078541287	-0.161015
C	 1.140458664	 3.0906174243	 1.1833372341	 0.390828
C	 2.3344276823	 3.9148619787	 0.9617351247	-0.234594
O	 2.0151811742	 3.4171718912	 2.2658662441	-0.272022
C	 1.110660747	 1.6123602747	 0.8123429855	-0.376
H	-1.6410608523	 2.5585021955	-0.7537558838	 0.122914
H	-2.0724028493	 1.1911797581	 0.2906572752	 0.146511
H	-0.3917416401	 4.3602809943	 0.3091910153	 0.10002
H	-0.3289511238	 4.375797412	 2.0909982436	 0.135956
H	 3.2145333817	 3.4770592465	 0.4923672062	 0.1209
H	 2.2337581131	 4.9932254186	 0.8373952046	 0.117363
H	 0.8565437994	 1.0560744556	 1.7256156285	 0.151865
H	 2.0731234782	 1.250449577	 0.4479587682	 0.130362
53.6428	89.1763	285.8323	312.0254	346.5692	376.1268	402.0672	453.6031	473.8756	535.0264	582.5175	745.7532	794.6375	822.506	900.9439	917.8707	948.25	982.5163	1003.8148	1091.8719	1128.0526	1133.0366	1161.7152	1167.5494	1212.294	1245.8792	1274.0887	1284.2362	1311.38	1343.8629	1370.3224	1426.2385	1450.8263	1453.4832	1487.1091	1530.8899	1833.4333	2968.5431	2978.1521	3025.6071	3076.3917	3090.4778	3109.05	3126.4025	3163.0395
O=C1COCC2(CO2)C1	O=C1COC[C@]2(CO2)C1	
InChI=1S/C6H8O3/c7-5-1-6(4-9-6)3-8-2-5/h1-4H2	InChI=1S/C6H8O3/c7-5-1-6(4-9-6)3-8-2-5/h1-4H2/t6-/m0/s1
