16
gdb 128318	5.32406	0.90009	0.77712	3.1027	78.27	-0.2069	-0.0595	0.1474	1409.1694	0.125633	-434.096313	-434.087812	-434.086868	-434.129839	30.488	
C	 0.050818989	 1.371696745	 0.1835743332	-0.325926
N	-0.1718446842	-0.0268541142	-0.1317309705	-0.371323
C	 0.5453411342	-0.6078378405	-1.1585857442	 0.430256
N	 0.7068109588	-1.9411482736	-1.1954803637	-0.303964
N	 1.3860298854	-2.1704470598	-2.3279575571	-0.238618
C	 1.6759492664	-1.0403788054	-3.0155079942	 0.312306
C	 2.4164794377	-1.0905256888	-4.2672606883	 0.081141
O	 2.8128431008	-2.1232123766	-4.7686249477	-0.296922
C	 1.143397379	 0.0123593037	-2.2784183282	-0.400819
H	 1.1001032834	 1.6120368566	 0.4166217535	 0.115165
H	-0.2623442882	 2.0012838549	-0.6561305378	 0.133828
H	-0.5668483693	 1.6431822501	 1.0423323742	 0.130216
H	-0.2568445445	-0.6373271953	 0.6677777991	 0.246085
H	 1.6428824629	-3.1062783378	-2.5965142194	 0.288374
H	 2.5981140756	-0.1040770414	-4.7410294715	 0.085048
H	 1.1847876929	 1.0599461133	-2.5257991374	 0.115153
84.1729	110.185	149.0576	180.5698	230.867	268.1073	353.1232	438.7618	489.3604	551.9151	579.7302	676.3732	714.3141	732.5883	790.4969	793.1861	988.2557	1027.9045	1049.2324	1087.5382	1152.6803	1161.5064	1193.5466	1226.1483	1309.4583	1371.3879	1403.4271	1457.0323	1477.9477	1488.513	1502.8486	1520.4208	1554.1401	1615.9364	1773.0898	2922.6068	2980.2642	3066.5052	3123.1439	3274.4222	3606.4042	3669.1883
CNC1=NNC(C=O)=C1	CNc1n[nH]c(C=O)c1	
InChI=1S/C5H7N3O/c1-6-5-2-4(3-9)7-8-5/h2-3H,1H3,(H2,6,7,8)	InChI=1S/C5H7N3O/c1-6-5-2-4(3-9)7-8-5/h2-3H,1H3,(H2,6,7,8)
