18
gdb 11311	5.11925	1.21863	1.03463	3.4963	77.51	-0.2467	-0.0532	0.1935	1141.2469	0.153961	-347.841369	-347.833415	-347.832471	-347.873832	29.311	
C	-0.0611402115	 1.5759712435	 0.0040324651	-0.400308
C	 0.0381489958	 0.0462579441	 0.0168097788	-0.00707
C	 0.7891395131	-0.5587117319	-1.2030835332	-0.227714
C	 1.5362981142	-1.8046807902	-0.6664490452	-0.315213
C	 1.6230954323	-1.5264715811	 0.8183742899	 0.235461
C	 2.4631679441	-2.2869231615	 1.7447948749	 0.068741
O	 3.1723255914	-3.2144442645	 1.4194181361	-0.271634
C	 0.8070768844	-0.5263128006	 1.1823643145	-0.147094
H	 0.9347442967	 2.031627401	-0.0115551436	 0.120322
H	-0.6030253436	 1.9214695264	-0.882168105	 0.120917
H	-0.5906617325	 1.950781892	 0.8861527207	 0.115964
H	-0.9869221736	-0.3561580688	 0.0596153271	 0.091645
H	 0.1203339692	-0.7857547869	-2.036974608	 0.101913
H	 1.5178920935	 0.1762129379	-1.5637650787	 0.105578
H	 0.9743217096	-2.7308997883	-0.8428609688	 0.117165
H	 2.5194500032	-1.9528336318	-1.1215122313	 0.122731
H	 2.4110834383	-1.9467850076	 2.8039448644	 0.063988
H	 0.6790583656	-0.1749570516	 2.2025107622	 0.104607
87.2855	127.4567	175.6619	217.7809	250.7509	323.4011	402.6281	451.612	528.1965	594.78	721.7817	806.347	850.4336	879.9618	902.3752	930.5442	965.0734	993.4805	1035.4659	1052.909	1105.2681	1125.2224	1182.4327	1202.7528	1247.3221	1280.012	1307.0843	1319.5761	1345.7661	1372.9538	1409.2565	1422.2195	1484.1982	1496.8853	1499.1209	1502.0371	1679.2721	1782.6056	2872.9211	2972.1039	3029.6868	3030.9469	3042.6331	3087.6427	3099.4188	3102.8997	3104.5563	3176.3394
CC1CCC(C=O)=C1	C[C@H]1CCC(=C1)C=O	
InChI=1S/C7H10O/c1-6-2-3-7(4-6)5-8/h4-6H,2-3H2,1H3	InChI=1S/C7H10O/c1-6-2-3-7(4-6)5-8/h4-6H,2-3H2,1H3/t6-/m0/s1
