19
gdb 13004	2.67959	2.42338	1.527	1.5975	77.01	-0.2218	0.0275	0.2493	902.8402	0.165946	-327.923378	-327.915582	-327.914638	-327.954841	30.465	
C	-0.0553153252	 1.49493371	 0.028007215	-0.504888
C	-0.0496687984	-0.0004711014	-0.0171618238	 0.321332
C	 0.0151128995	-0.7820480007	-1.0996799582	-0.176445
C	 0.0275479218	-2.2588380615	-0.7654242884	-0.260731
C	 0.0253170598	-2.2561614784	 0.7581835482	-0.084484
N	 1.2173312058	-1.6101151464	 1.358844704	-0.369577
C	-0.0625700013	-0.8478904906	 1.2309370337	 0.239376
C	-0.7962514576	-0.4018223924	 2.4687521596	-0.499584
H	 0.8171346866	 1.8767890231	 0.5736824451	 0.131067
H	-0.0398116352	 1.9234598238	-0.977728969	 0.122861
H	-0.9420959167	 1.8821880046	 0.5453767095	 0.121452
H	 0.0951928751	-0.4170985188	-2.1185154951	 0.083869
H	-0.8520338491	-2.7801686507	-1.1670094829	 0.100032
H	 0.9123277255	-2.7661208604	-1.1694472044	 0.115348
H	-0.4481548046	-3.0674911361	 1.3020523615	 0.080116
H	 1.2970043702	-1.9402293186	 2.3209243394	 0.217314
H	-0.324796902	 0.4794691954	 2.9191936631	 0.124691
H	-1.8363637359	-0.1420010151	 2.2425413832	 0.125051
H	-0.8072365883	-1.1957769358	 3.2228197295	 0.113203
154.1264	187.1093	221.1891	245.0449	268.1969	299.5188	391.9964	450.4717	548.7089	608.5774	647.0755	734.0331	813.9949	820.6407	846.7361	902.0463	939.8818	962.2726	1014.781	1029.3731	1049.8849	1062.9979	1077.9107	1111.5578	1140.0422	1185.8955	1200.3938	1262.0199	1311.2578	1331.9458	1374.604	1409.9429	1415.6923	1429.256	1468.4974	1478.805	1483.3296	1491.3853	1502.4586	1710.4648	3014.7873	3016.5522	3024.1043	3052.2208	3062.4983	3085.1568	3096.4838	3109.7721	3157.459	3184.0097	3454.8076
CC1=CCC2NC12C	CC1=CC[C@H]2N[C@@]12C	
InChI=1S/C7H11N/c1-5-3-4-6-7(5,2)8-6/h3,6,8H,4H2,1-2H3	InChI=1S/C7H11N/c1-5-3-4-6-7(5,2)8-6/h3,6,8H,4H2,1-2H3/t6-,7+/m1/s1
