16
gdb 34013	3.10686	1.42033	1.19039	3.6354	75.29	-0.2582	-0.0164	0.2417	1047.9304	0.125468	-400.745921	-400.738425	-400.73748	-400.777901	28.788	
N	 0.0021136475	-1.1272781231	-0.1056831261	-0.344787
C	-0.0116033358	 0.0287633813	-0.0540036195	 0.232579
C	-0.0341140725	 1.4671495361	 0.0063027444	 0.100913
C	 0.4954759819	 2.2166075193	-1.2269913185	-0.327262
C	 1.3051807025	 2.1947335801	 0.0300971605	 0.071078
O	 1.3770027227	 3.3783064066	 0.7563452757	-0.256727
C	 0.6480471507	 3.397339652	 1.9811981743	-0.132077
C	-0.7761979751	 2.9363548259	 1.811428007	-0.071128
C	-1.10192995	 2.0597157253	 0.8656770476	-0.147552
H	 0.8200753071	 1.6184025683	-2.0703325845	 0.140231
H	-0.0055574109	 3.1476118729	-1.4632053358	 0.140828
H	 2.2069757942	 1.5870559653	 0.063297039	 0.118665
H	 1.1585786425	 2.7900189597	 2.7469352992	 0.118387
H	 0.6816069419	 4.4371187802	 2.318485575	 0.128554
H	-1.5258946716	 3.3523860355	 2.4770744059	 0.111896
H	-2.1221905052	 1.7257259844	 0.7094025058	 0.116403
113.632	148.6398	190.0556	234.8656	398.2329	427.2072	488.9274	509.0549	553.9321	583.2908	652.0556	720.6862	802.2411	857.3978	907.9652	923.1397	942.5033	987.6404	1004.4345	1042.7318	1055.4176	1067.3429	1116.4101	1187.9219	1196.0474	1238.5771	1267.3666	1299.2963	1361.7435	1409.0735	1415.093	1463.7297	1492.8206	1713.5113	2347.629	2972.3729	3086.842	3130.7505	3146.2238	3174.5413	3195.4866	3247.3593
N#CC12CC1OCC=C2	N#C[C@]12C[C@H]1OCC=C2	
InChI=1S/C7H7NO/c8-5-7-2-1-3-9-6(7)4-7/h1-2,6H,3-4H2	InChI=1S/C7H7NO/c8-5-7-2-1-3-9-6(7)4-7/h1-2,6H,3-4H2/t6-,7+/m1/s1
