19
gdb 63224	2.26446	1.57235	1.16694	1.6101	82.26	-0.2465	0.0167	0.2632	1121.9442	0.157151	-385.868794	-385.85955	-385.858605	-385.902318	35.64	
C	 0.3797058959	 1.4737319482	-0.39335074	-0.442678
C	 0.0220515636	 0.0268076387	-0.0404755652	 0.347339
O	-1.333785414	-0.0491423443	 0.4041497311	-0.473725
C	 0.3133688764	-0.9174791277	-1.1928057682	-0.110273
C	 1.3653672716	-1.6984854435	-0.9677363857	-0.081464
C	 1.9848166789	-1.4423436973	 0.3832766882	-0.277034
C	 0.8935235667	-0.5981614565	 1.1045900124	-0.191767
C	 1.4100270708	 0.3353642963	 2.0918903554	 0.329509
C	 1.8538106721	 1.0994595352	 2.9077772693	-0.478282
H	 1.4376416129	 1.5699598617	-0.652866829	 0.126669
H	-0.2055657427	 1.8061775797	-1.2596394923	 0.100615
H	 0.1682603626	 2.1330485301	 0.4523093547	 0.13627
H	-1.8686658279	 0.5094477122	-0.1693076689	 0.275747
H	-0.2815524616	-0.89411963	-2.1001925333	 0.089422
H	 1.771690565	-2.4227842186	-1.6654726108	 0.097709
H	 2.2224194756	-2.3575994007	 0.935323469	 0.114471
H	 2.9223495832	-0.8791575951	 0.2940540518	 0.119392
H	 0.2105500382	-1.2940976418	 1.6046572493	 0.125976
H	 2.2396914726	 1.7701681134	 3.634735662	 0.192104
69.5181	144.9228	189.7321	221.9707	242.6323	261.328	325.4877	377.5139	380.3699	493.6342	511.7847	548.8313	596.5589	618.7408	634.0225	706.0778	755.4118	772.0769	892.072	949.2761	964.7076	975.086	995.2432	1017.2253	1056.9278	1099.0879	1109.2441	1143.5387	1175.8625	1205.5734	1290.3175	1296.8999	1342.726	1352.9616	1374.8665	1404.5107	1486.1827	1487.3371	1491.703	1690.5263	2233.6589	3026.9408	3029.9341	3045.5645	3072.5855	3098.9853	3127.5802	3174.8328	3200.8345	3504.4666	3813.4882
CC1(O)C=CCC1C#C	C[C@@]1(O)C=CC[C@H]1C#C	
InChI=1S/C8H10O/c1-3-7-5-4-6-8(7,2)9/h1,4,6-7,9H,5H2,2H3	InChI=1S/C8H10O/c1-3-7-5-4-6-8(7,2)9/h1,4,6-7,9H,5H2,2H3/t7-,8-/m1/s1
