23
gdb 77375	2.37372	1.6124	1.31407	0.261	89.56	-0.2357	0.0909	0.3266	1134.807	0.204921	-351.124309	-351.115168	-351.114224	-351.157193	36.366	
C	 0.000511241	 1.6201962697	 0.0626387024	-0.431388
C	 0.1003313251	 0.0994237034	-0.0011419964	-0.057814
C	 0.793096649	-0.6034245004	-1.1722018223	 0.354771
C	 0.3182801306	-0.68312331	-2.5933601142	-0.511087
C	 2.2843286495	-0.7264989297	-0.8018831378	-0.110708
C	 2.4870706236	-0.1235198525	 0.5838916686	-0.282519
C	 1.0797597026	-0.6964960784	 0.9262649931	 0.314448
C	 0.700214116	-1.0336525527	 2.3445993068	-0.508871
C	 1.2714005382	-1.7195268036	-0.2757591172	-0.189973
H	 0.963233042	 2.1061010043	-0.1194905628	 0.11712
H	-0.7014629753	 1.9924387061	-0.6920670761	 0.11244
H	-0.3663061595	 1.9530808975	 1.040562162	 0.110954
H	-0.900639849	-0.3374640925	 0.1171477718	 0.058547
H	 0.3696991874	 0.2929588368	-3.0906489379	 0.117858
H	 0.9292264267	-1.3806528944	-3.1770563804	 0.116151
H	-0.7207222364	-1.0291401005	-2.64747367	 0.114243
H	 3.0268113868	-0.8928364973	-1.5730013611	 0.076498
H	 3.2663970388	-0.6607604283	 1.1343025938	 0.091287
H	 2.6507788654	 0.954808672	 0.6910621204	 0.083107
H	 0.6324528468	-0.1265571703	 2.9577808746	 0.116716
H	-0.2717831252	-1.5376651089	 2.3898214464	 0.113672
H	 1.4413837408	-1.6921366156	 2.811040354	 0.114151
H	 1.1998586252	-2.7954558046	-0.3554428978	 0.080398
159.8192	183.4325	194.3553	204.773	212.0547	245.2603	277.2031	336.0877	354.0618	488.3381	558.956	570.6121	624.9525	697.6519	765.0062	789.7473	825.5633	864.3828	879.8913	890.1482	958.0475	974.9978	1001.7907	1018.1536	1046.963	1064.5764	1092.9309	1110.8308	1119.888	1142.1115	1156.0191	1179.9902	1210.8691	1236.3882	1251.4105	1297.6519	1333.1606	1382.3354	1404.4402	1411.1369	1414.7152	1436.9696	1486.9771	1488.1013	1492.2022	1493.3237	1495.4619	1500.2923	1513.0344	3010.796	3017.6586	3019.3957	3027.2838	3032.869	3075.6197	3079.4914	3082.0154	3086.3832	3087.7171	3089.6313	3109.2676	3184.6126	3210.1957
CC1C2(C)C3CC1(C)C23	C[C@H]1[C@@]2(C)[C@H]3C[C@]1(C)[C@@H]23	
InChI=1S/C9H14/c1-5-8(2)4-6-7(8)9(5,6)3/h5-7H,4H2,1-3H3	InChI=1S/C9H14/c1-5-8(2)4-6-7(8)9(5,6)3/h5-7H,4H2,1-3H3/t5-,6+,7+,8+,9+/m1/s1
