14
gdb 128354	4.98931	1.0879	0.89863	4.9658	69.32	-0.2373	-0.0965	0.1407	1219.6018	0.100621	-469.998158	-469.989996	-469.989052	-470.031338	28.98	
C	 0.1001158582	 1.4485032644	 0.1996230179	-0.318492
N	-0.0108822988	 0.019263796	-0.00594946	-0.340156
C	-1.2142719647	-0.6073616411	-0.0805956846	 0.497261
N	-2.3016392244	 0.1084796799	-0.1006160203	-0.190575
O	-3.5035877946	-0.6133237371	-0.2678402915	-0.244394
C	-3.5368623289	-1.9665002639	-0.3636051685	 0.427885
O	-4.5791917656	-2.5495576149	-0.5124203972	-0.332012
C	-2.2192714119	-2.6292408712	-0.2632384336	-0.095571
N	-1.113520507	-2.0012417662	-0.134085621	-0.254951
H	 1.1540025553	 1.7281597447	 0.1580786818	 0.131353
H	-0.441388479	 1.9794955674	-0.588175936	 0.158356
H	-0.3210595697	 1.7638267824	 1.1631253888	 0.139036
H	 0.7584300531	-0.5815117997	 0.2388848699	 0.263038
H	-2.2240733121	-3.7169083809	-0.3037239555	 0.159221
67.9739	133.7193	148.0221	190.4587	293.3336	320.8562	394.8147	411.3755	500.1923	535.557	603.5988	629.5139	785.459	790.401	819.6238	949.1372	983.3564	1030.2756	1109.9264	1156.304	1191.3854	1239.4436	1314.7718	1370.4408	1456.7528	1475.5315	1509.5457	1548.7897	1603.4642	1699.2139	1827.7223	3021.2315	3092.3146	3141.2431	3161.92	3659.8393
CNC1=NOC(=O)C=N1	CNc1noc(=O)cn1	
InChI=1S/C4H5N3O2/c1-5-4-6-2-3(8)9-7-4/h2H,1H3,(H,5,7)	InChI=1S/C4H5N3O2/c1-5-4-6-2-3(8)9-7-4/h2H,1H3,(H,5,7)
