13
gdb 45387	2.31904	1.83948	1.28246	4.8883	64.66	-0.2897	-0.0426	0.2471	961.2871	0.089261	-452.710307	-452.703078	-452.702134	-452.742268	26.575	
N	-0.009979686	 1.2314058255	-0.4660883913	-0.524676
C	 0.0317050817	 0.0543748825	-0.0603462845	 0.414107
O	 1.0479086813	-0.697538692	 0.5177807405	-0.26656
C	 0.2291664693	-1.8941589244	 0.5720982221	 0.009154
C	-0.6006136754	-1.9870792399	 1.8536070937	-0.107234
O	-1.649231157	-1.1576220861	 1.2767294961	-0.308771
C	-0.9762912005	-1.0936251231	 0.0043746183	 0.200283
C	-1.802697086	-1.4155766977	-1.1376521248	 0.247324
N	-2.4427727618	-1.6946701128	-2.0576613803	-0.322281
H	 0.8703988379	 1.7280227516	-0.32143889	 0.24714
H	 0.7148135608	-2.7579876879	 0.1262221988	 0.136618
H	-0.9782712828	-2.989813217	 2.0788219147	 0.135902
H	-0.1468774415	-1.5361478187	 2.7399191967	 0.138993
124.8563	126.6447	180.7656	257.0385	351.7978	403.5226	506.9038	550.7497	617.4031	639.6739	718.3282	844.2845	868.759	895.0483	957.2363	981.7055	1001.284	1002.5852	1061.3623	1090.9492	1150.7769	1166.9674	1204.4529	1280.9538	1328.6983	1346.9385	1499.1922	1838.5506	2366.7705	3049.7573	3114.6727	3163.4184	3488.9365
N=C1OC2COC12C#N	[NH][C]1O[C@H]2CO[C@@]12C#N	
InChI=1S/C5H4N2O2/c6-2-5-3(1-8-5)9-4(5)7/h3,7H,1H2	InChI=1S/C5H4N2O2/c6-2-5-3(1-8-5)9-4(5)7/h3,7H,1H2/t3-,5+/m0/s1
