17
gdb 17782	6.92726	1.06965	1.04334	1.7626	79.2	-0.2252	0.0328	0.258	1185.2288	0.142456	-326.618558	-326.610803	-326.609859	-326.654128	27.956	
C	 0.0480464732	 1.5446889858	-0.0801529023	-0.502913
C	 0.027957956	 0.0908230931	-0.0173432027	 0.142023
C	 0.0064061929	-1.1131938356	 0.0302705432	 0.046687
C	 0.025383015	-2.5590182988	 0.0587237279	-0.170107
C	 0.0171164083	-3.3488345124	 1.4001507054	-0.059339
C	-1.4572775567	-2.9092425423	 1.5049856884	-0.17499
N	-1.3492083086	-3.3040824355	 0.0166498112	-0.146996
C	-0.5409267584	-4.5031764435	 0.5473174317	-0.167459
H	 1.0751933802	 1.9256673733	-0.0959235019	 0.150413
H	-0.4536981829	 1.90826204	-0.983687507	 0.153141
H	-0.4579819474	 1.9895131456	 0.7835891551	 0.149569
H	 0.701386554	-2.9499610475	-0.7089809599	 0.094443
H	 0.7942490242	-3.3654798301	 2.1719938042	 0.06884
H	-2.1414797032	-3.5492629919	 2.0678877125	 0.099048
H	-1.6726333851	-1.8513562092	 1.6610715107	 0.11695
H	 0.1106792887	-4.9598633333	-0.20327014	 0.099444
H	-1.1631538001	-5.2508871276	 1.0444095033	 0.101247
2.3786	104.499	105.9017	291.1973	302.3435	447.9672	460.3413	496.4612	604.4441	750.1042	784.4731	829.8447	860.2246	902.0853	908.0798	943.2071	1026.4481	1050.9338	1053.9654	1069.9011	1082.7661	1118.5638	1143.3115	1164.0098	1200.6895	1213.6979	1230.545	1242.8619	1280.8928	1388.6814	1413.9491	1476.456	1477.9464	1511.0127	1547.5581	2363.4996	3027.736	3039.5463	3048.1921	3055.8014	3069.4627	3089.0197	3089.8172	3121.3217	3138.9821
CC#CC1C2CN1C2	CC#C[C@H]1[C@H]2CN1C2	
InChI=1S/C7H9N/c1-2-3-7-6-4-8(7)5-6/h6-7H,4-5H2,1H3	InChI=1S/C7H9N/c1-2-3-7-6-4-8(7)5-6/h6-7H,4-5H2,1H3/t7-/m0/s1
