21
gdb 100468	4.32199	0.59391	0.5466	1.4422	90.7	-0.2289	0.0542	0.2831	2057.3362	0.180716	-387.049626	-387.039005	-387.038061	-387.08717	37.625	
C	-0.1038097358	 1.5340360752	 0.0159356422	-0.381047
C	 0.0440428817	 0.0007222067	-0.0293660318	-0.138927
C	 0.7717002812	-0.4572457309	-1.3046203422	-0.066726
O	-0.0098047531	-0.0517759487	-2.4178466816	-0.420532
C	 0.727288622	-0.5169676158	 1.1547941921	 0.048632
C	 1.3102183293	-0.9350757966	 2.1246118432	 0.077416
C	 1.9985513048	-1.4304802157	 3.2820858176	-0.156124
C	 1.2182788782	-2.0341602078	 4.4397591682	-0.250944
C	 2.0504413198	-2.924078448	 3.564911619	-0.25173
H	 0.8793036338	 2.0113201868	 0.0819532975	 0.116006
H	-0.6021686795	 1.8844948315	-0.8902123591	 0.132339
H	-0.6873943625	 1.8405898696	 0.8876140604	 0.118143
H	-0.9627513287	-0.4377898336	-0.073913571	 0.109386
H	 1.7759358367	-0.0061334322	-1.3281730859	 0.092176
H	 0.8963170256	-1.5494935855	-1.2771212615	 0.094036
H	 0.4665663167	-0.2810144878	-3.2205711511	 0.288512
H	 2.8876743813	-0.8714310558	 3.5601027852	 0.106803
H	 1.5689207207	-1.8161079617	 5.4422484257	 0.116569
H	 0.1409537796	-2.0792523617	 4.3351873751	 0.125547
H	 1.538574156	-3.5740554868	 2.8654674966	 0.124337
H	 2.977300772	-3.3231768214	 3.9614361714	 0.116128
17.1148	72.2111	79.2982	135.3968	187.6986	196.3462	222.8337	238.2862	303.1713	393.3976	448.2789	492.9595	506.3892	555.0777	708.8261	793.6512	820.715	845.8298	896.7146	911.7196	930.0702	1002.3662	1061.9116	1066.4551	1076.513	1079.3293	1111.0802	1119.0982	1152.6444	1190.9719	1200.8113	1227.5323	1238.8742	1261.4817	1327.502	1344.9139	1392.0925	1396.9524	1450.4252	1466.5289	1492.8996	1497.8985	1500.515	1520.4211	2357.8861	2977.9735	3005.3372	3022.6678	3044.9086	3115.5247	3138.1309	3139.8207	3140.0355	3145.8232	3224.609	3239.7586	3837.4504
CC(CO)C#CC1CC1	C[C@@H](CO)C#CC1CC1	
InChI=1S/C8H12O/c1-7(6-9)2-3-8-4-5-8/h7-9H,4-6H2,1H3	InChI=1S/C8H12O/c1-7(6-9)2-3-8-4-5-8/h7-9H,4-6H2,1H3/t7-/m1/s1
