22
gdb 102324	1.89641	1.1627	0.84619	3.0204	80.61	-0.2344	0.0351	0.2695	1479.4222	0.192075	-441.515656	-441.504686	-441.503742	-441.552507	38.945	
C	 0.0861379479	 1.5058373068	 0.1030118717	-0.373601
C	-0.1119817505	-0.0021222349	-0.0786329618	-0.170273
N	 0.5907320186	-0.5486727216	-1.235293673	-0.028366
C	 2.0291376959	-0.7756829998	-1.1771495911	-0.169089
C	 2.4044510798	-2.1763323779	-0.6864873867	 0.121334
C	 3.9073271441	-2.4264671492	-0.8022989685	-0.400894
O	 1.9660196408	-2.2642898143	 0.6708815317	-0.432104
C	-0.0699697737	-0.8799383023	-2.3767318817	 0.14509
O	 0.4441122625	-1.3529486653	-3.3724335	-0.358503
H	 1.1415270887	 1.7603699727	 0.241514101	 0.124833
H	-0.2832739248	 2.0572639037	-0.7670921558	 0.123148
H	-0.4571466974	 1.8531244983	 0.9876534479	 0.119098
H	 0.2189918362	-0.5469571852	 0.8092942739	 0.140305
H	-1.1776293869	-0.2186786826	-0.2104828922	 0.111508
H	 2.4263731067	-0.636951468	-2.1851654485	 0.135474
H	 2.4816864914	-0.0331404002	-0.5120507701	 0.108229
H	 1.8623982427	-2.9035983122	-1.3079784912	 0.093027
H	 4.2346763468	-2.3785330834	-1.8457087835	 0.127317
H	 4.4679634392	-1.6860425937	-0.2222741444	 0.122187
H	 4.1631452786	-3.4202497043	-0.4186398868	 0.107671
H	 2.09354772	-3.1702050608	 0.9685278583	 0.284136
H	-1.1554962465	-0.6684532457	-2.3040434994	 0.069475
44.0286	69.5846	79.9514	129.0908	218.6109	219.38	237.0489	266.6828	297.4993	317.412	338.0881	398.5818	433.3908	463.123	536.8391	644.9996	796.2444	836.6422	873.8557	920.4076	951.0876	978.5903	1031.0083	1066.8166	1094.6133	1121.0258	1128.2142	1134.8918	1190.7122	1272.8976	1288.7157	1337.0834	1351.7455	1386.0463	1403.1835	1407.1577	1409.8963	1425.6891	1434.1536	1447.0279	1466.2027	1491.7849	1493.6499	1495.6454	1499.1686	1508.0256	1781.6683	2931.0603	3005.866	3030.7474	3037.2967	3050.41	3056.5386	3096.2059	3098.8469	3109.4896	3111.2676	3119.5389	3121.8154	3823.8067
CCN(CC(C)O)C=O	CCN(C[C@@H](C)O)C=O	
InChI=1S/C6H13NO2/c1-3-7(5-8)4-6(2)9/h5-6,9H,3-4H2,1-2H3	InChI=1S/C6H13NO2/c1-3-7(5-8)4-6(2)9/h5-6,9H,3-4H2,1-2H3/t6-/m1/s1
