24
gdb 109782	1.89791	1.38912	0.94527	0.9791	90.91	-0.23	0.0832	0.3132	1387.5114	0.216419	-368.372185	-368.361937	-368.360993	-368.407712	37.942	
C	-0.6401456493	 2.2886652743	 0.2286478128	-0.376334
C	-0.8548979487	 1.2659829994	-0.8938842394	-0.189817
C	-1.7947253736	 0.1490057804	-0.4839436493	-0.040336
C	-1.8881169476	-1.1696195342	-1.2292629024	-0.06912
C	-1.0453697888	-1.4822372568	-2.448154692	-0.405298
C	-1.2898089583	-1.1258121568	 0.1607328388	 0.028661
N	 0.1300294001	-1.3074299653	 0.2937048407	-0.058353
C	 0.667530066	-1.2931771389	 1.6502916181	-0.219718
C	 0.5733773	-2.5665469451	 0.8833738685	-0.224192
H	 0.0211970129	 3.0991335079	-0.0942005832	 0.106631
H	-1.588604386	 2.7389173035	 0.5433656268	 0.108155
H	-0.1896909814	 1.8172011277	 1.1081581186	 0.119154
H	-1.2647433926	 1.7760258365	-1.775774985	 0.089547
H	 0.1100960798	 0.8482796248	-1.1910022692	 0.113746
H	-2.7393568293	 0.5112014435	-0.0816811525	 0.073581
H	-2.8889604961	-1.5930113006	-1.2739266426	 0.077314
H	-0.00984606	-1.1659797438	-2.3144824952	 0.135242
H	-1.0372186945	-2.5604752189	-2.6431447322	 0.10968
H	-1.4454554596	-0.9888298151	-3.3409825222	 0.110598
H	-1.8932665954	-1.5446861234	 0.9723425748	 0.061473
H	 1.6238423372	-0.7935032755	 1.7775982737	 0.11512
H	-0.0325520192	-1.1552842551	 2.4728177534	 0.109711
H	-0.1901688146	-3.2781530685	 1.1934710905	 0.109478
H	 1.4592889692	-3.01289705	 0.4404089487	 0.115077
61.9337	83.0203	132.6361	146.3847	162.8248	200.3876	237.416	272.6051	323.6715	349.3911	488.1859	534.0037	598.1509	747.4311	756.254	789.3054	815.2122	840.9136	895.8732	922.415	962.745	981.4224	1002.5737	1037.483	1043.4552	1069.2272	1109.9366	1117.807	1120.9307	1124.4769	1129.621	1157.7003	1175.1181	1191.826	1212.5567	1250.5891	1300.7765	1325.636	1340.1644	1377.7403	1400.7033	1410.053	1416.4339	1453.3054	1481.29	1491.5105	1496.6038	1498.7213	1505.4147	1507.1455	1519.0187	3019.9538	3029.1023	3032.539	3033.7165	3084.0678	3084.4404	3092.9548	3097.4022	3101.1555	3105.021	3115.9033	3124.9471	3141.9342	3174.5873	3189.3935
CCC1C(C)C1N1CC1	CC[C@H]1[C@@H](C)[C@H]1N1CC1	
InChI=1S/C8H15N/c1-3-7-6(2)8(7)9-4-5-9/h6-8H,3-5H2,1-2H3	InChI=1S/C8H15N/c1-3-7-6(2)8(7)9-4-5-9/h6-8H,3-5H2,1-2H3/t6-,7+,8-/m1/s1
