16
gdb 96968	3.34472	1.18231	0.95333	1.9842	74.42	-0.2572	-0.0414	0.2159	1222.5477	0.122285	-437.859399	-437.850787	-437.849843	-437.893156	30.581	
C	 0.0081908914	 1.5135779093	-0.1766091848	-0.343865
N	-0.0339762009	 0.0625054321	-0.062127215	-0.339492
C	 0.5885034984	-0.6418494006	-0.8806654955	 0.433115
O	 1.3624611403	-0.2760514534	-2.0022125075	-0.279652
C	 1.4765215192	-1.6577004162	-2.3862909805	 0.069625
C	 2.2075994541	-2.4331455895	-1.3764732874	-0.332933
C	 0.7230627379	-2.1086582501	-1.1154168041	 0.045883
C	-0.2975803626	-3.159325001	-0.9612840419	 0.068079
O	-0.1264994521	-4.3133636605	-1.2796850203	-0.274937
H	 0.5569419458	 1.8765619651	-1.0527776864	 0.132184
H	-1.0171265418	 1.8954964238	-0.214779695	 0.134085
H	 0.4704809664	 1.9268261924	 0.7262051715	 0.135653
H	 1.2810514262	-1.9143790983	-3.4184493326	 0.145487
H	 2.3515588286	-3.4869380089	-1.5942603306	 0.162301
H	 2.9645088263	-1.9497757582	-0.7679232186	 0.142163
H	-1.2587693272	-2.8041099558	-0.5371166812	 0.102304
94.8245	110.249	112.5664	176.9424	213.9651	236.0442	328.2792	381.8793	465.994	598.9206	682.4321	710.806	747.8666	787.5215	887.9874	915.3949	950.7127	1007.9026	1028.7466	1058.2393	1071.094	1081.1645	1098.0083	1133.1271	1168.0695	1255.1179	1288.1512	1372.2389	1430.9312	1440.5791	1468.2522	1491.9352	1497.6039	1796.0337	1860.8819	2928.2985	3023.1702	3091.4121	3096.4778	3131.3891	3222.1448	3233.5078
CN=C1OC2CC12C=O	CN=C1O[C@H]2C[C@@]12C=O	
InChI=1S/C6H7NO2/c1-7-5-6(3-8)2-4(6)9-5/h3-4H,2H2,1H3	InChI=1S/C6H7NO2/c1-7-5-6(3-8)2-4(6)9-5/h3-4H,2H2,1H3/t4-,6-/m0/s1
