16
gdb 66967	2.61601	1.71581	1.2926	6.6072	72.45	-0.2223	0.0287	0.251	985.9945	0.125805	-396.855907	-396.848269	-396.847325	-396.888006	29.549	
N	 0.085904495	 1.4224745885	-0.0981495267	-0.622448
C	 0.0654336479	 0.0127772287	-0.0333202507	 0.336393
C	-0.1223545225	-0.8864957168	-1.2554192191	-0.060227
N	 0.6081176505	-2.1414300175	-0.9781719437	-0.310689
C	 0.0075889464	-2.0380562338	 0.3963348526	-0.059291
C	-1.0818696838	-1.0088777462	-0.1013472398	-0.183857
C	 0.8119421529	-0.8485516435	 1.0037078194	-0.166946
C	 2.2687197841	-0.91058092	 1.0089003361	 0.288215
N	 3.4236895802	-0.9420149288	 1.0404315913	-0.338308
H	 0.0495931185	 1.7872324271	-1.0398944886	 0.243744
H	-0.6273428053	 1.8665960413	 0.4663215253	 0.239913
H	-0.2491953831	-0.4759063826	-2.2498537664	 0.100735
H	 0.1163259623	-2.8901219614	-1.4653245948	 0.221939
H	-0.1421567721	-2.954945887	 0.9595612506	 0.093899
H	-2.1513002813	-0.9010975837	 0.0200405801	 0.100477
H	 0.4494176904	-0.6117024643	 2.0079866644	 0.116449
117.596	135.5141	147.2681	289.6246	339.5892	397.1321	464.1269	543.2183	570.9334	653.8511	695.5694	740.7382	775.9218	818.3498	830.467	893.9257	929.2398	936.6093	953.2638	980.7458	1017.1615	1050.1124	1082.5823	1116.3199	1145.1672	1157.0542	1175.6606	1241.8388	1282.1505	1311.8072	1341.2494	1372.9062	1437.6412	1654.3072	2355.9589	3078.3853	3162.1106	3189.7782	3208.2972	3461.992	3537.988	3627.7834
NC12C3NC(C13)C2C#N	N[C@]12[C@H]3N[C@H]([C@@H]13)[C@H]2C#N	
InChI=1S/C6H7N3/c7-1-2-4-3-5(9-4)6(2,3)8/h2-5,9H,8H2	InChI=1S/C6H7N3/c7-1-2-4-3-5(9-4)6(2,3)8/h2-5,9H,8H2/t2-,3-,4+,5+,6+/m1/s1
