21
gdb 94680	2.41205	1.60556	1.18477	2.2416	77.5	-0.2305	0.0623	0.2929	1121.168	0.181893	-424.227896	-424.218823	-424.217879	-424.260741	36.128	
C	-0.0507122334	 1.5628201701	 0.0077115423	-0.413041
C	 0.0415720553	 0.0367622721	 0.015007241	-0.011937
C	 0.7727788041	-0.5671787488	-1.2118302748	-0.243381
C	 1.3111205296	-1.9450910741	-0.7545534743	-0.268976
C	 1.554856068	-1.7711207718	 0.7325614509	 0.411876
O	 1.6028302524	-2.9196859657	 1.515200251	-0.490835
C	 2.3086299313	-0.5299630146	 1.1887021187	-0.428113
C	 0.7901477035	-0.5654962365	 1.1971187127	 0.310704
O	 0.1245448727	-0.6888839678	 2.4239179538	-0.485676
H	 0.9466632943	 2.0170454738	 0.0006240588	 0.112844
H	-0.5892428731	 1.9247214665	-0.8743265479	 0.114569
H	-0.5825362547	 1.9303477152	 0.892257888	 0.10866
H	-0.9748666776	-0.3778287583	 0.0619962605	 0.079633
H	 0.1156171216	-0.6458644538	-2.0817761774	 0.101356
H	 1.6022240042	 0.086840231	-1.5040068692	 0.101508
H	 0.5526556623	-2.7260900461	-0.8803276897	 0.106477
H	 2.1999587602	-2.2556992405	-1.312797626	 0.100808
H	 1.0485929653	-2.7423086292	 2.2878432918	 0.286799
H	 2.7834862341	-0.6299956392	 2.1591885309	 0.108847
H	 2.8402683218	 0.1004694504	 0.4828024534	 0.108387
H	 0.3400627581	 0.0705697575	 2.9743643455	 0.28949
126.6277	208.4213	217.8007	224.1946	245.7663	264.5775	314.3998	362.5479	405.4749	446.2204	463.3077	505.1572	586.752	599.1811	688.8107	740.1413	839.9715	860.2203	895.9646	923.7388	944.3579	971.5443	980.4295	1016.1576	1045.649	1100.9273	1116.247	1135.2807	1195.763	1206.5916	1216.4868	1252.7368	1299.3836	1306.4078	1326.4222	1342.2063	1378.2329	1396.9017	1407.979	1413.3236	1478.7763	1491.4252	1497.2054	1501.8657	1511.2069	3011.8814	3026.0167	3040.9969	3043.6142	3081.7734	3092.3286	3095.9896	3099.3524	3123.2117	3215.065	3745.2269	3813.538
CC1CCC2(O)CC12O	C[C@H]1CC[C@@]2(O)C[C@@]12O	
InChI=1S/C7H12O2/c1-5-2-3-6(8)4-7(5,6)9/h5,8-9H,2-4H2,1H3	InChI=1S/C7H12O2/c1-5-2-3-6(8)4-7(5,6)9/h5,8-9H,2-4H2,1H3/t5-,6+,7+/m0/s1
