23
gdb 73288	2.75797	1.76098	1.26765	0.1184	89.61	-0.2717	0.0958	0.3675	1091.1319	0.207056	-351.135607	-351.127404	-351.12646	-351.16747	34.114	
C	 0.033509457	 1.5213827568	-0.0599565802	-0.500809
C	 0.033223937	 0.0079110756	 0.0074994589	 0.381976
C	 0.4477913056	-0.7149261461	-1.2791892901	-0.288058
C	 0.3262945279	-2.1855278932	-0.8288880125	-0.288051
C	-0.1324465098	-1.9980398987	 0.6217448749	 0.381963
C	-0.3623574034	-3.2724555169	 1.4079744282	-0.500808
C	 0.6439208001	-0.7717554869	 1.2309416157	-0.126648
C	-0.6084500779	-0.4125281183	 2.0661185192	-0.269228
C	-1.1480223199	-0.796335523	 0.6673471775	-0.126537
H	 1.0322960832	 1.8944442963	-0.3156032654	 0.113933
H	-0.6518701237	 1.8713929704	-0.8408918394	 0.113955
H	-0.2656363292	 1.9951231919	 0.878498482	 0.115653
H	-0.2171814533	-0.4659996817	-2.1137707995	 0.090992
H	 1.4643123797	-0.44299482	-1.5848315736	 0.090994
H	-0.4062425393	-2.753471796	-1.4132789776	 0.090993
H	 1.2753007561	-2.730477275	-0.8844968511	 0.090995
H	 0.5564992157	-3.8691554561	 1.4498985004	 0.113936
H	-0.6863584442	-3.0925265785	 2.436207023	 0.115653
H	-1.1271975765	-3.8904906814	 0.9230385112	 0.113952
H	 1.6897521476	-0.7598954156	 1.5517689466	 0.054261
H	-0.8606952416	-1.0740077657	 2.8969904276	 0.088315
H	-0.7200881867	 0.6282674882	 2.3756633013	 0.088321
H	-2.1891562343	-0.8130977061	 0.3317824932	 0.054245
194.9698	196.206	206.7824	211.9269	299.9646	372.0877	379.0265	379.4832	470.2931	568.3676	649.3027	679.6482	702.8272	714.1324	815.6615	829.2394	882.1781	905.69	924.8558	931.1169	1000.1957	1000.3526	1006.0563	1031.598	1061.0571	1072.2926	1108.5678	1112.1774	1120.5492	1161.8249	1192.3345	1202.6081	1202.6287	1251.0288	1252.3131	1252.8705	1268.3963	1278.8698	1338.2376	1352.8215	1417.1136	1418.3571	1484.7172	1491.1004	1492.606	1494.7555	1499.0993	1509.8893	1529.9932	3025.8174	3026.5833	3030.5778	3040.7132	3060.367	3061.1824	3062.5676	3078.9986	3079.2525	3080.6624	3082.3416	3107.1119	3110.9321	3121.785
CC12CCC3(C)C1CC23	C[C@@]12CC[C@@]3(C)[C@@H]1C[C@@H]23	
InChI=1S/C9H14/c1-8-3-4-9(2)6(8)5-7(8)9/h6-7H,3-5H2,1-2H3	InChI=1S/C9H14/c1-8-3-4-9(2)6(8)5-7(8)9/h6-7H,3-5H2,1-2H3/t6-,7+,8-,9+
