21
gdb 56155	3.45293	0.90414	0.76686	1.1105	80.63	-0.2465	0.0257	0.2721	1538.4095	0.181122	-420.394713	-420.384576	-420.383632	-420.430461	36.664	
C	 0.4263870749	 0.5573776353	 1.4528309361	-0.445268
C	 0.162954141	-0.2115219541	 0.1901103204	 0.418364
N	 0.8818007904	-0.0760137528	-0.8441107047	-0.515561
O	-0.921266113	-1.0257353019	 0.3618218505	-0.251525
C	-1.3428411645	-1.8373648055	-0.727424464	-0.165789
C	-2.5644859915	-2.6384220001	-0.3146649133	 0.308066
C	-3.140642491	-3.4679310057	-1.4417494009	-0.451206
C	-2.6875887699	-3.0929138342	 1.0919775357	-0.268321
N	-3.551663083	-2.0086091947	 0.5732429574	-0.350127
H	 1.2934624236	 1.2009102217	 1.3129693578	 0.151101
H	-0.4453645859	 1.164511125	 1.7163861477	 0.138762
H	 0.6065567317	-0.1306537341	 2.2846751281	 0.139252
H	 0.5815388558	-0.662900718	-1.6206080779	 0.220877
H	-1.5897208561	-1.2002486046	-1.5896792017	 0.114462
H	-0.5315422539	-2.5143682495	-1.0306282531	 0.117035
H	-2.4180581668	-4.2106786651	-1.7986797827	 0.115634
H	-4.0355955818	-3.9917308044	-1.0994704196	 0.135551
H	-3.4263092499	-2.8359665454	-2.2905642139	 0.120155
H	-3.2027311894	-4.0240563867	 1.3119008362	 0.113434
H	-1.8974608653	-2.8262446394	 1.7863655332	 0.119844
H	-3.1779170855	-1.1212710359	 0.9036521388	 0.23526
52.6869	67.3862	128.6592	142.0719	180.3258	193.7811	268.0382	302.701	348.527	402.7666	422.3974	512.86	557.5657	599.1278	724.0644	835.7843	870.3019	897.2925	916.1019	936.4613	977.7688	992.2313	1023.7552	1030.8813	1076.1554	1087.0544	1097.3604	1128.6479	1131.499	1156.4741	1263.3675	1286.804	1306.0359	1335.1662	1381.8874	1404.8439	1418.7056	1430.0376	1474.4668	1478.9983	1485.7565	1494.7964	1507.5616	1516.8648	1740.0966	2988.5081	3028.0108	3030.0477	3050.823	3089.4941	3108.6359	3115.0519	3128.7566	3171.0894	3206.017	3496.4869	3504.1939
CC(=N)OCC1(C)CN1	C[C]([NH])OC[C@@]1(C)CN1	
InChI=1S/C6H12N2O/c1-5(7)9-4-6(2)3-8-6/h7-8H,3-4H2,1-2H3	InChI=1S/C6H12N2O/c1-5(7)9-4-6(2)3-8-6/h7-8H,3-4H2,1-2H3/t6-/m1/s1
