25
gdb 101483	2.61166	1.10336	0.95063	1.0825	88.89	-0.2485	0.0794	0.328	1416.8623	0.229381	-389.504771	-389.494573	-389.493629	-389.540766	37.778	
C	-0.1027952328	 1.3327834264	 0.0643675103	-0.232036
O	-0.2005945538	-0.056238297	-0.1354984526	-0.244631
C	 0.6502338034	-0.5857717194	-1.1487902266	 0.117662
C	 2.1134015369	-0.643113166	-0.6977258256	-0.40796
C	 0.0888670525	-1.9623097034	-1.5307241143	 0.035375
C	 0.0464527811	-2.97043478	-0.3467899972	-0.210288
C	-1.2554683175	-3.7644876286	-0.5425779145	-0.201933
C	-2.2293153652	-2.7034530815	-1.0749173701	-0.185923
C	-1.3749660795	-1.8919467328	-2.0680084574	-0.220394
H	 0.868121609	 1.6365409298	 0.48232209	 0.105376
H	-0.2622242193	 1.8909197311	-0.8720571187	 0.100938
H	-0.8848123578	 1.6119327084	 0.7755965882	 0.124527
H	 0.5829696587	 0.0680327542	-2.0362953733	 0.05818
H	 2.2205244358	-1.2675461431	 0.1939042654	 0.125993
H	 2.7382088821	-1.0646055583	-1.4918477144	 0.113539
H	 2.5035847932	 0.3520599303	-0.4659717205	 0.112251
H	 0.74232537	-2.353492083	-2.3186523943	 0.062038
H	 0.9336860063	-3.608543453	-0.3048410533	 0.085042
H	-0.0067747774	-2.4159725206	 0.5956189249	 0.113922
H	-1.1117700402	-4.5516758716	-1.2944053404	 0.08892
H	-1.6002256266	-4.2509341344	 0.3750555192	 0.088297
H	-3.1287374511	-3.1271527863	-1.5315687839	 0.083992
H	-2.5490150972	-2.0562419441	-0.2503409838	 0.104992
H	-1.7233881524	-0.8602302318	-2.1610537489	 0.09477
H	-1.4276088483	-2.3431775654	-3.0648099082	 0.087351
33.6402	75.306	93.1877	183.5871	206.0908	213.1358	250.3699	272.7611	339.7409	361.6064	481.4758	535.2111	618.9014	623.0702	748.6162	835.9875	860.7578	869.3338	912.8837	919.9419	951.381	968.9014	1016.279	1030.9536	1036.5049	1058.6455	1122.0081	1136.7097	1163.1511	1171.5843	1183.5229	1193.2542	1226.8921	1243.5645	1261.9881	1307.6645	1320.0445	1334.8631	1338.0435	1347.7895	1368.5251	1375.1376	1391.1124	1403.8604	1476.6807	1482.2857	1483.4642	1488.8126	1491.9765	1494.3031	1504.3632	1510.5125	1514.6293	2941.7219	2973.3609	3020.7091	3021.5913	3026.915	3039.7677	3040.7726	3045.5109	3049.868	3079.1675	3085.244	3095.2729	3100.8151	3104.9911	3107.8239	3118.2954	33.6399	75.3022	93.1868	183.586	206.0907	213.1357	250.3695	272.7611	339.7407	361.6062	481.4756	535.2111	618.9014	623.0703	748.6162	835.9874	860.7574	869.3338	912.8838	919.9419	951.381	968.9013	1016.2788	1030.9536	1036.5047	1058.6454	1122.0076	1136.7095	1163.151	1171.5842	1183.5235	1193.2542	1226.8923	1243.5644	1261.988	1307.6644	1320.0446	1334.8629	1338.0435	1347.7895	1368.5252	1375.1377	1391.1124	1403.8604	1476.6811	1482.2859	1483.4643	1488.8127	1491.9765	1494.3033	1504.3634	1510.5127	1514.6297	2941.7217	2973.3607	3020.7091	3021.5911	3026.915	3039.7678	3040.7725	3045.511	3049.8681	3079.1675	3085.244	3095.2729	3100.8151	3104.991	3107.8239	3118.2954
COC(C)C1CCCC1	CO[C@@H](C)C1CCCC1	
InChI=1S/C8H16O/c1-7(9-2)8-5-3-4-6-8/h7-8H,3-6H2,1-2H3	InChI=1S/C8H16O/c1-7(9-2)8-5-3-4-6-8/h7-8H,3-6H2,1-2H3/t7-/m0/s1
