13
gdb 16088	4.67851	1.80577	1.5418	2.667	63.79	-0.2482	-0.0087	0.2394	796.4796	0.097504	-357.647539	-357.641126	-357.640181	-357.677936	24.427	
N	-0.042925432	-1.1400149986	-0.0031389923	-0.340887
C	-0.0222997249	 0.0174417947	 0.0012936983	 0.206341
C	-0.0006993316	 1.4456542085	 0.0112401692	 0.21153
C	 0.4052502014	 2.2629837701	-1.1948585709	-0.317502
C	 1.2821579963	 2.3566276335	 0.0231973923	-0.041458
N	 1.0277479954	 3.3890127363	 0.9778473604	-0.229583
C	-0.1546715084	 3.2073127927	 1.4423861032	 0.050452
N	-0.867973951	 2.135930229	 0.9361508946	-0.352592
H	 0.8058760685	 1.7060410467	-2.0336905492	 0.143752
H	-0.2303264984	 3.1046662389	-1.448957332	 0.13664
H	 2.2892675857	 1.9584676294	-0.019694718	 0.1248
H	-0.6236901963	 3.858657724	 2.1716992564	 0.142286
H	-1.5169863649	 1.6149609448	 1.5059326481	 0.266221
149.5833	167.9168	342.6998	379.3142	412.6982	478.6704	565.0657	569.5579	641.7495	692.6478	784.5918	865.2501	925.867	931.7141	964.1159	1040.6873	1068.3228	1087.0692	1123.4615	1135.7357	1236.091	1262.0561	1336.748	1356.3162	1434.4815	1466.4719	1644.6175	2346.0763	3136.8471	3183.3076	3207.6791	3235.48	3626.5789
N#CC12CC1N=CN2	N#C[C@]12C[C@H]1N=CN2	
InChI=1S/C5H5N3/c6-2-5-1-4(5)7-3-8-5/h3-4H,1H2,(H,7,8)	InChI=1S/C5H5N3/c6-2-5-1-4(5)7-3-8-5/h3-4H,1H2,(H,7,8)/t4-,5-/m1/s1
