17
gdb 52817	2.97449	1.08287	0.92154	1.3762	77.52	-0.2385	0.0368	0.2753	1320.9793	0.133031	-421.753429	-421.744165	-421.743221	-421.789073	33.252	
C	-0.0168570651	 1.5056091053	-0.0567756986	-0.499983
C	 0.0192639598	 0.0521085625	 0.0031594036	 0.018255
C	 0.0446201785	-1.1505995405	 0.0707237474	 0.079606
C	 0.0781027633	-2.6038979916	 0.0922571908	 0.21373
O	 1.0343762487	-3.136347074	-0.8128205717	-0.464759
C	 0.2633245564	-3.3353353515	 1.4755801592	-0.293874
C	-1.0882636642	-4.0193459334	 1.2482065048	 0.035171
O	-2.0688540161	-2.9784095612	 1.1146148129	-0.238581
C	-1.2971457869	-3.3289651793	-0.0296242911	-0.041944
H	 0.9846219368	 1.9220868491	-0.2108397948	 0.150671
H	-0.6539104771	 1.8562185673	-0.8761823503	 0.149845
H	-0.4121986835	 1.9265870194	 0.8740875167	 0.155583
H	 0.9747510429	-2.6248247598	-1.62720267	 0.282326
H	 1.118685779	-4.0100527464	 1.4101309623	 0.127088
H	 0.3315836517	-2.7035788991	 2.3620830862	 0.116863
H	-1.4356597952	-4.9856084797	 1.5927139474	 0.107545
H	-1.813486039	-3.617122897	-0.9388354648	 0.102458
17.2848	80.1859	107.0718	175.7463	268.91	276.0032	328.5547	361.6545	407.9694	451.5313	509.5755	548.671	614.9177	781.7665	846.4437	858.9437	886.4354	956.591	967.5089	980.2412	1016.3612	1047.8214	1051.3483	1054.2925	1107.3547	1142.5083	1219.9459	1233.9749	1246.6997	1268.1524	1367.8165	1390.7228	1413.7269	1460.7448	1476.2703	1477.6615	2364.3212	3028.5123	3082.4342	3089.6441	3091.6548	3149.7978	3177.4156	3199.8188	3808.7051
CC#CC1(O)CC2OC12	CC#C[C@@]1(O)C[C@H]2O[C@@H]12	
InChI=1S/C7H8O2/c1-2-3-7(8)4-5-6(7)9-5/h5-6,8H,4H2,1H3	InChI=1S/C7H8O2/c1-2-3-7(8)4-5-6(7)9-5/h5-6,8H,4H2,1H3/t5-,6-,7-/m1/s1
