14
gdb 42534	5.93117	1.09127	1.03039	3.241	73.8	-0.2551	-0.0307	0.2244	1109.6201	0.099779	-399.418148	-399.411073	-399.410129	-399.449736	27.329	
O	-0.0366185487	-0.0905927826	 0.0272973913	-0.317965
C	-0.0391929452	 1.0992194924	 0.0122558905	 0.497751
C	-1.0018868847	 2.2780823518	 0.043716704	-0.17593
C	-0.0357752803	 3.0479038087	 1.0066415429	-0.059048
C	-0.0650769724	 4.2464972553	 0.0523061751	-0.177971
C	 1.0673816802	 5.1416358838	-0.020051085	 0.329215
C	 2.0091446139	 5.8877529136	-0.0675880028	-0.414917
N	-0.0592895366	 3.0545768593	-0.9381420664	-0.157722
C	 0.9152331532	 2.2853970611	 0.0218483014	-0.173653
H	-2.0837387805	 2.3676418625	-0.032898238	 0.11052
H	-0.0208477492	 3.0203442694	 2.0992470054	 0.098007
H	-1.0076048346	 4.8020151475	 0.0015529655	 0.11353
H	 2.8399273277	 6.5481151557	-0.1158173594	 0.206325
H	 1.9927049472	 2.3832099314	-0.0795965145	 0.121858
116.4529	128.2599	195.5104	313.2218	461.6015	492.2657	531.1398	637.8914	662.4799	675.9989	684.856	761.2167	796.1882	816.2538	824.4057	894.7648	920.6976	1002.1547	1017.7571	1046.3079	1062.2685	1122.7535	1126.3926	1148.1985	1177.2282	1196.7626	1235.2469	1262.5087	1377.3284	1930.2045	2233.824	3053.3271	3075.2056	3148.1594	3168.9725	3500.2723
O=C1C2C3C(C#C)N2C13	O=C1[C@H]2[C@@H]3[C@@H](C#C)N2[C@H]13	
InChI=1S/C7H5NO/c1-2-3-4-5-7(9)6(4)8(3)5/h1,3-6H	InChI=1S/C7H5NO/c1-2-3-4-5-7(9)6(4)8(3)5/h1,3-6H/t3-,4-,5+,6-/m1/s1
