13
gdb 131045	4.52825	1.19443	0.94513	5.1705	70.88	-0.2394	-0.0781	0.1614	1137.3318	0.090935	-448.956573	-448.949382	-448.948438	-448.989248	25.536	
O	-0.4455417206	 0.0903610715	 0.0042512834	-0.25041
C	-0.1123728939	 1.2423684144	 0.0085458749	 0.162751
N	 1.1833905233	 1.7433922785	 0.0001096491	-0.373123
C	 2.4070205215	 1.0910633247	-0.0140566878	 0.514917
N	 3.4627040198	 1.9251358029	-0.0156287707	-0.302327
C	 4.6389592527	 1.3238617987	-0.0301354109	-0.003631
C	 4.7278452422	-0.0689157352	-0.0423659839	 0.005508
N	 3.6348759015	-0.8265844392	-0.040360512	-0.146778
N	 2.4423149031	-0.2461297216	-0.026158241	-0.231433
H	-0.82911448	 2.0880184183	 0.0201218962	 0.088631
H	 1.2793759068	 2.7493426515	 0.0067720684	 0.266273
H	 5.5248418116	 1.9546019912	-0.0318472786	 0.135534
H	 5.6779939822	-0.5908925357	-0.0540337571	 0.134087
43.2721	151.3111	167.3544	265.6118	356.4167	390.8211	562.1026	566.9971	647.5175	657.5192	822.9912	834.7105	879.1453	886.8359	1006.4396	1025.0182	1028.2238	1076.7127	1120.3623	1142.5566	1197.6635	1314.7982	1416.52	1426.6044	1461.1571	1530.8738	1573.1734	1610.3074	1849.0547	2932.9489	3160.0259	3202.6789	3608.3208
O=CNC1=NC=CN=N1	O=CNc1nccnn1	
InChI=1S/C4H4N4O/c9-3-6-4-5-1-2-7-8-4/h1-3H,(H,5,6,8,9)	InChI=1S/C4H4N4O/c9-3-6-4-5-1-2-7-8-4/h1-3H,(H,5,6,8,9)
