13
gdb 129194	5.87731	0.98185	0.84177	3.6667	65.53	-0.2173	-0.0264	0.191	1255.3105	0.089693	-486.087407	-486.079413	-486.078469	-486.120873	28.255	
N	 0.0817341449	 1.3211326981	-0.0935218437	-0.593369
C	 0.0180025791	 0.0643704299	-0.0208570237	 0.465801
N	-1.0871736824	-0.7414747232	 0.0605477745	-0.281115
N	-0.7714798135	-2.096716918	 0.0121613871	-0.270729
C	 0.5087611628	-2.0846525496	 0.014199937	 0.548724
N	 1.4069895747	-3.128341172	 0.0201545685	-0.419861
C	 1.1109070766	-4.4824783127	 0.0256832784	 0.153595
O	 0.0076805066	-4.9555594367	 0.0206047779	-0.253787
O	 1.0867352665	-0.8471113879	 0.0169444281	-0.24777
H	 1.041074401	 1.651557411	-0.1248622777	 0.233378
H	-2.0199186112	-0.4508618888	-0.1731719969	 0.291059
H	 2.3779207975	-2.8536061492	 0.0206505914	 0.276606
H	 2.0446841773	-5.0760070209	 0.0354286792	 0.097468
38.8735	142.4178	150.2494	201.53	291.2683	324.3142	393.6954	492.4459	528.8503	615.6966	680.0444	704.0554	735.4871	767.8933	873.2343	925.6139	981.3782	1014.0008	1053.8178	1103.1694	1143.5061	1268.0697	1328.6416	1385.2054	1437.1308	1559.1661	1718.6713	1824.2099	1841.3423	2958.1525	3559.0069	3629.9123	3699.5069
N=C1NN=C(NC=O)O1	[NH][C@@H]1NN=C(NC=O)O1	
InChI=1S/C3H4N4O2/c4-2-6-7-3(9-2)5-1-8/h1H,(H2,4,6)(H,5,7,8)	InChI=1S/C3H5N4O2/c4-2-6-7-3(9-2)5-1-8/h1-2,4,6H,(H,5,7,8)/t2-/m1/s1
