20
gdb 104500	2.57646	1.17087	0.94156	2.0268	81.04	-0.2425	0.0436	0.2861	1317.108	0.168354	-403.085692	-403.075368	-403.074424	-403.121374	37.659	
C	 0.1004519274	 1.2793555509	-0.4270204118	-0.406868
C	 0.1372232369	-0.1244921041	 0.1322644026	-0.038946
N	 1.4534882488	-0.7664982799	 0.2942018862	-0.368299
C	 0.6262490901	-0.5081483476	 1.4894773285	 0.263108
C	 1.1997821212	 0.515935247	 2.4506045614	-0.104276
O	 2.0363665664	-0.073868089	 3.4305554392	-0.415393
C	-0.0256479779	-1.7188608586	 2.175612373	-0.428158
C	 0.9296052739	-2.7719299214	 2.5133856042	 0.323115
C	 1.7165423469	-3.6546158074	 2.7316788787	-0.470867
H	 0.9521485224	 1.8722657798	-0.0893084579	 0.131575
H	 0.1325193852	 1.2471390822	-1.521404567	 0.123386
H	-0.8216901063	 1.7930940973	-0.1343154934	 0.118158
H	-0.6639046206	-0.7597452632	-0.247303511	 0.080032
H	 1.4175423916	-1.7531699055	 0.0479618651	 0.232875
H	 1.731916405	 1.2897413002	 1.8830020479	 0.094766
H	 0.3890758258	 1.0018366923	 3.0069874167	 0.104585
H	 2.695463994	-0.602077768	 2.9661391465	 0.291567
H	-0.5431282053	-1.3865145072	 3.0832575006	 0.142126
H	-0.7937533137	-2.1435046142	 1.517609524	 0.128733
H	 2.406710058	-4.4300332035	 2.9552362166	 0.198783
50.1484	62.0685	121.8772	155.3359	202.3506	233.5244	260.522	330.8746	344.4323	388.4626	403.0228	456.6104	511.5854	561.195	619.8737	647.4169	738.0344	847.461	868.2541	919.6661	929.3292	967.5551	995.905	1027.6405	1061.3334	1091.6844	1104.4383	1129.5468	1202.6753	1229.8802	1240.13	1285.0472	1331.501	1362.7093	1387.9955	1411.8253	1434.1942	1459.9707	1461.9141	1489.4183	1498.4712	1502.868	2233.3414	3017.7027	3024.8215	3038.0365	3062.0645	3065.3261	3092.7548	3096.3144	3138.1004	3492.6924	3505.252	3803.8363
CC1NC1(CO)CC#C	C[C@H]1N[C@]1(CO)CC#C	
InChI=1S/C7H11NO/c1-3-4-7(5-9)6(2)8-7/h1,6,8-9H,4-5H2,2H3	InChI=1S/C7H11NO/c1-3-4-7(5-9)6(2)8-7/h1,6,8-9H,4-5H2,2H3/t6-,7+/m1/s1
