20
gdb 26136	2.46323	1.39028	1.09003	0.1892	83.09	-0.2094	0.0264	0.2358	1216.509	0.169993	-403.170626	-403.161053	-403.160108	-403.205452	34.781	
C	 0.2170881433	 1.0328336315	-0.4877132439	-0.33036
N	 0.0295091036	-0.1254265541	 0.385189476	-0.169354
C	 0.5379649452	 0.0934412265	 1.7388378347	-0.330373
C	-1.2332863353	-0.7067574479	 0.3218867263	 0.28746
C	-1.6465460176	-1.9240282919	-0.1320807865	 0.204884
C	-0.7745759628	-2.9939379486	-0.708522547	-0.507417
C	-3.0716953155	-1.953453016	 0.0603673402	-0.278626
C	-3.4120674924	-0.7613305189	 0.6120774041	-0.009526
O	-2.317105444	 0.0191715064	 0.7838317776	-0.185792
H	 1.2838471153	 1.2753239913	-0.5413133145	 0.115431
H	-0.1331954699	 0.7892320222	-1.4935694972	 0.127088
H	-0.3216020229	 1.9287826855	-0.1383795177	 0.110548
H	 0.0254529638	 0.9151695322	 2.2651831338	 0.110532
H	 0.4160136199	-0.8210763026	 2.3241262367	 0.127096
H	 1.6054730156	 0.3334433344	 1.6890143197	 0.115433
H	-0.8345631232	-3.9210390778	-0.126674762	 0.123967
H	-1.0651032172	-3.2418608557	-1.7360416788	 0.123972
H	 0.2667710523	-2.6629317588	-0.7180391295	 0.132411
H	-3.7432860678	-2.7624447054	-0.1841588592	 0.104072
H	-4.3501515807	-0.3334862324	 0.9273598669	 0.128556
35.5896	145.0665	148.2884	155.7178	221.4761	228.9825	249.0619	274.2583	368.1424	430.9185	499.5528	606.7099	630.0679	687.0698	723.0742	759.1207	824.2699	899.0742	953.2392	981.9896	1045.8772	1060.5325	1068.5373	1108.9997	1116.7016	1166.4617	1176.8348	1194.3746	1227.5498	1282.0866	1333.4868	1406.9143	1434.5692	1438.4791	1468.1041	1478.3329	1491.1003	1492.2651	1495.374	1501.3414	1518.3198	1548.4391	1687.3229	2971.697	2976.7887	3026.888	3063.3887	3064.3761	3074.7718	3117.2249	3119.6525	3121.1367	3244.4785	3274.0284
CN(C)C1=C(C)C=CO1	CN(C)c1c(C)cco1	
InChI=1S/C7H11NO/c1-6-4-5-9-7(6)8(2)3/h4-5H,1-3H3	InChI=1S/C7H11NO/c1-6-4-5-9-7(6)8(2)3/h4-5H,1-3H3
