20
gdb 113244	4.74358	0.77825	0.75022	3.2241	80.41	-0.2707	0.0254	0.2961	1571.714	0.168943	-403.156079	-403.146028	-403.145084	-403.191481	36.565	
C	 0.4376675758	 1.4775251494	 0.1820961302	-0.374266
C	-0.158880436	 0.1031688119	-0.1409325988	-0.197633
C	 0.4972062145	-0.547576036	-1.3419862866	-0.048529
C	 1.8082008278	-1.3059137066	-1.1948554331	-0.34523
C	 0.5267995981	-2.0400784257	-1.503847508	 0.388836
O	-0.0828002801	-2.782063527	-0.488641202	-0.464143
C	 0.3149351376	-2.6359712411	-2.8941181709	-0.38725
C	 0.8988263652	-3.9758418764	-2.9855562386	 0.247442
N	 1.3653209979	-5.0332221184	-3.0015224981	-0.307545
H	 1.507035745	 1.4014129515	 0.4051731188	 0.11817
H	 0.3242442635	 2.1694244081	-0.6599179168	 0.112547
H	-0.056428706	 1.925824821	 1.0494336382	 0.114559
H	-0.0650347489	-0.5641665652	 0.720611494	 0.114955
H	-1.2349907704	 0.2042376446	-0.3306984986	 0.100916
H	 0.3889601398	 0.014010231	-2.2682848122	 0.084268
H	 2.5679395454	-1.2135547995	-1.9637951048	 0.115798
H	 2.1937434274	-1.4246702664	-0.1875008906	 0.121134
H	 0.4240555358	-3.5936517596	-0.3639417489	 0.297637
H	-0.7584487129	-2.7075140007	-3.1033043613	 0.159177
H	 0.7619503006	-1.9972255949	-3.6624154221	 0.149159
57.0092	67.6264	111.9043	163.7324	191.2913	251.0552	292.5264	346.4992	352.3336	391.5742	403.5679	441.059	480.1065	647.9213	721.4871	783.5598	824.2603	889.2585	893.1661	946.4971	953.4864	971.0579	991.8936	1048.8704	1058.2167	1100.5044	1127.167	1192.5254	1200.4873	1241.2187	1290.7745	1301.3699	1314.7638	1341.3874	1381.6497	1409.137	1427.8348	1453.8682	1486.9641	1495.9056	1497.8337	1508.3043	2358.0963	3030.5584	3031.8507	3047.6265	3080.8026	3094.6622	3102.6862	3106.6733	3123.3278	3129.4136	3218.0894	3782.0585
CCC1CC1(O)CC#N	CC[C@H]1C[C@]1(O)CC#N	
InChI=1S/C7H11NO/c1-2-6-5-7(6,9)3-4-8/h6,9H,2-3,5H2,1H3	InChI=1S/C7H11NO/c1-2-6-5-7(6,9)3-4-8/h6,9H,2-3,5H2,1H3/t6-,7+/m0/s1
