21
gdb 61679	4.4877	0.78253	0.69367	2.8202	80.23	-0.2516	-0.0267	0.2249	1632.0713	0.179903	-424.219303	-424.209442	-424.208497	-424.25537	35.304	
C	 0.0011383321	 1.4078242686	-0.0332341303	-0.398261
C	 0.0800191696	-0.116015236	-0.1242550255	 0.027174
O	 0.5792922002	-0.7522930672	 1.0353081923	-0.269288
C	 1.9737729481	-0.7183508299	 1.216448029	 0.175731
C	 2.6273890067	 0.4542899384	 2.0024364922	-0.242522
C	 3.5245358115	-0.5989689298	 2.7090166163	-0.221945
C	 2.5000079925	-1.6902392888	 2.2910009436	-0.250042
C	-1.2881325557	-0.7430382449	-0.3825430729	 0.146937
O	-2.152180013	-0.2356015124	-1.0472649181	-0.245521
H	 0.9961975219	 1.8584919422	-0.0260231677	 0.119946
H	-0.5567243361	 1.7896370731	-0.8918780505	 0.141497
H	-0.5242264124	 1.701845337	 0.8798392635	 0.129395
H	 0.7029015086	-0.3957758306	-0.995839571	 0.094617
H	 2.4804277576	-0.8732897385	 0.2513076037	 0.06681
H	 3.1105371599	 1.2550128903	 1.4373473915	 0.095553
H	 1.8998539405	 0.8889516126	 2.6934952373	 0.111252
H	 4.4855437327	-0.7240545633	 2.2029323312	 0.105703
H	 3.7095489673	-0.466813848	 3.7762320185	 0.105006
H	 1.7344739882	-1.8348038625	 3.058514221	 0.115616
H	 2.868820384	-2.6652432982	 1.9655133165	 0.099513
H	-1.4083510942	-1.7396021222	 0.0958202094	 0.092831
39.0435	64.8962	85.0298	127.7433	205.7069	230.9969	257.938	304.8013	355.3471	452.7281	466.4108	617.1369	645.3076	770.3996	784.9882	832.5057	903.8655	912.2896	924.7297	941.4427	943.4105	993.2586	1055.0041	1104.4775	1119.7314	1138.0505	1163.8847	1182.9626	1192.5803	1245.6224	1248.5726	1257.5928	1274.3647	1298.235	1325.7661	1333.2896	1383.2816	1400.6839	1418.7321	1471.7998	1486.3669	1487.6422	1496.6282	1510.4293	1840.4407	2903.2831	2923.9841	2981.5473	3050.8109	3058.5179	3064.0704	3068.731	3109.6955	3117.1658	3127.8921	3130.282	3136.0463
CC(OC1CCC1)C=O	C[C@@H](OC1CCC1)C=O	
InChI=1S/C7H12O2/c1-6(5-8)9-7-3-2-4-7/h5-7H,2-4H2,1H3	InChI=1S/C7H12O2/c1-6(5-8)9-7-3-2-4-7/h5-7H,2-4H2,1H3/t6-/m1/s1
