17
gdb 32249	2.6714	1.57397	0.99741	2.9245	80.81	-0.1952	0.0002	0.1954	1154.1136	0.138201	-418.065608	-418.057564	-418.05662	-418.098049	31.028	
C	 0.0915004761	 1.3784613916	 0.0222977529	-0.249562
O	-0.0010154356	-0.0324033383	-0.0166577777	-0.281644
C	-1.2493964099	-0.5877425854	-0.0118814562	 0.322349
C	-2.4488267882	 0.0959399475	 0.0259505547	-0.221174
C	-3.6447904908	-0.6369809175	 0.0351023978	-0.137825
C	-3.569202779	-2.0164392794	 0.0168084418	-0.018286
N	-2.412217533	-2.6952599373	-0.0148390146	-0.337086
C	-1.2770052076	-2.0071922216	-0.0391495719	 0.298328
N	-0.0914334058	-2.704910186	-0.1337263785	-0.562936
H	 1.1562101109	 1.6171809332	 0.0141414415	 0.135987
H	-0.3879703453	 1.8364992805	-0.852378895	 0.128038
H	-0.3644505624	 1.7874418414	 0.9334307891	 0.125896
H	-2.4719407496	 1.1784483555	 0.0487157536	 0.100096
H	-4.6026212711	-0.1313628483	 0.0629523255	 0.089746
H	-4.4712166628	-2.6225646528	 0.0314343208	 0.098092
H	-0.1629873036	-3.674762248	 0.1331642845	 0.252539
H	 0.7316416878	-2.2209323253	 0.1877417519	 0.257442
89.8972	168.0853	228.4996	247.963	323.2305	343.1169	423.1059	464.4995	518.269	529.6059	554.0752	592.9023	596.1882	773.5242	780.4161	809.7138	886.1545	918.0409	956.4832	1036.9207	1081.4535	1100.226	1162.4958	1178.9264	1212.4426	1246.8737	1314.0165	1332.3203	1381.0338	1472.4748	1489.5531	1494.2487	1507.102	1516.4256	1606.2314	1621.6964	1650.225	3004.6994	3063.9394	3134.7121	3158.7571	3195.1606	3210.337	3583.1444	3704.2531
COC1=CC=CN=C1N	COc1cccnc1N	
InChI=1S/C6H8N2O/c1-9-5-3-2-4-8-6(5)7/h2-4H,1H3,(H2,7,8)	InChI=1S/C6H8N2O/c1-9-5-3-2-4-8-6(5)7/h2-4H,1H3,(H2,7,8)
