21
gdb 79564	2.26025	1.70916	1.27454	1.3168	82.63	-0.1969	0.0768	0.2737	1100.1975	0.180931	-387.018587	-387.009474	-387.008529	-387.051556	35.904	
C	 0.0148546139	 1.5611901951	 0.0824042437	-0.491527
C	-0.0041982761	 0.0589224272	 0.0354324179	 0.299908
C	-0.9362938851	-0.7634939981	 0.890738873	-0.357957
C	 0.5588489965	-0.938189562	 1.0298999367	-0.109071
C	 1.232542536	-1.7413897236	-0.1065893231	-0.177939
C	 0.3471952887	-2.1895994113	-1.2377078748	 0.032405
O	-0.9360514909	-2.7543960225	-1.1681504188	-0.419182
C	 0.6657454426	-0.7319530031	-1.1455081167	 0.246324
C	 1.3726561918	-0.0040137522	-2.2576113031	-0.490516
H	 1.0062138377	 1.9728861656	-0.1368117537	 0.114026
H	-0.6908324517	 1.9970567099	-0.6359634141	 0.118617
H	-0.2737961434	 1.9123821684	 1.0784512039	 0.115681
H	-1.3756378048	-0.1898605642	 1.7038209978	 0.097354
H	-1.5720827029	-1.5319992884	 0.4789582647	 0.134683
H	 1.0773995006	-0.7292023164	 1.9576199607	 0.082565
H	 2.2498483186	-2.1077559407	-0.0195981246	 0.079683
H	 0.9514560046	-2.6489689015	-2.026179434	 0.083676
H	-0.8506084506	-3.6125263423	-0.7378303828	 0.284066
H	 0.6586149642	 0.5070934667	-2.9154032224	 0.123006
H	 2.0680357484	 0.7513704431	-1.8762276707	 0.118772
H	 1.9489711418	-0.7010385093	-2.8739533495	 0.115425
115.3953	178.5403	193.353	218.0059	261.7818	277.4289	297.8638	329.1949	369.8358	434.3121	511.2134	575.2672	594.3196	641.1936	745.3763	777.4549	860.2035	877.8128	902.1651	916.7242	964.0048	971.0139	989.4881	1015.9857	1042.2852	1092.6536	1098.4674	1104.9033	1116.4609	1155.6663	1198.1784	1261.4266	1272.7899	1285.1422	1307.8332	1351.4148	1382.621	1412.653	1420.3609	1476.245	1478.367	1489.3472	1492.5151	1498.2246	1505.4782	3015.9863	3022.4324	3049.7345	3072.2373	3081.9698	3094.1585	3099.9916	3124.1714	3162.3855	3183.2829	3254.8546	3797.2508
CC12CC1C1C(O)C21C	C[C@]12C[C@H]1[C@H]1[C@@H](O)[C@@]21C	
InChI=1S/C8H12O/c1-7-3-4(7)5-6(9)8(5,7)2/h4-6,9H,3H2,1-2H3	InChI=1S/C8H12O/c1-7-3-4(7)5-6(9)8(5,7)2/h4-6,9H,3H2,1-2H3/t4-,5-,6+,7-,8-/m0/s1
