18
gdb 119214	2.35024	1.21898	0.92683	4.6154	74.42	-0.251	0.0261	0.2771	1292.1729	0.146218	-439.067815	-439.05831	-439.057366	-439.102306	34.256	
C	-0.9513414994	 1.3800458527	 0.5141738264	-0.239643
O	-1.1773010655	-0.0140335763	 0.616929972	-0.257948
C	-0.6495450894	-0.7410306789	-0.4798231402	-0.143449
C	-0.9090815333	-2.2304328787	-0.2758645029	 0.069131
C	-0.9982211439	-2.7932229575	 1.1487416958	-0.356669
C	-2.2450799752	-2.6994106902	 0.324654667	 0.125038
O	-3.267149793	-1.8066698077	 0.5827331822	-0.423305
C	-0.3129359714	-3.0488702588	-1.2941215115	 0.226618
N	 0.1623405258	-3.7035335261	-2.1224221411	-0.341463
H	-1.3798266531	 1.8427740572	 1.4050915406	 0.141388
H	 0.1240202835	 1.6020661514	 0.4729542323	 0.124768
H	-1.4323441587	 1.8006064581	-0.3800703885	 0.124365
H	-1.1183066636	-0.4079167893	-1.4186593717	 0.122798
H	 0.4325644799	-0.5583373038	-0.5636838463	 0.122173
H	-0.5606455668	-3.7671794912	 1.3346146494	 0.137773
H	-0.8629015338	-2.0609080427	 1.9362482881	 0.140895
H	-2.6410610255	-3.6248486604	-0.0795769219	 0.13101
H	-2.8599767968	-0.9656065578	 0.8381852801	 0.296519
94.267	101.2856	129.1276	166.7956	199.0479	224.1328	259.2103	338.9907	405.1146	441.9314	485.389	531.7509	561.1846	572.6412	725.705	801.9377	869.3131	935.7766	985.5444	1031.6182	1058.4575	1086.1997	1118.046	1140.0027	1175.7719	1188.802	1213.5676	1244.9541	1273.8388	1296.4409	1361.7406	1426.313	1455.7223	1482.9533	1484.8413	1488.114	1502.8537	1527.4036	2342.9021	2979.1455	2997.2282	3014.6126	3052.0645	3132.6249	3144.3838	3178.0641	3240.8427	3713.6517
COCC1(CC1O)C#N	COC[C@]1(C[C@H]1O)C#N	
InChI=1S/C6H9NO2/c1-9-4-6(3-7)2-5(6)8/h5,8H,2,4H2,1H3	InChI=1S/C6H9NO2/c1-9-4-6(3-7)2-5(6)8/h5,8H,2,4H2,1H3/t5-,6+/m1/s1
