17
gdb 75951	2.29068	1.62817	1.1711	3.0768	70.96	-0.2422	-0.0265	0.2157	1075.1829	0.136956	-455.169236	-455.16075	-455.159806	-455.202454	32.043	
N	 0.0653418895	 1.3776831843	-0.0956778979	-0.546291
C	-0.0384565045	-0.0073329546	 0.0106299005	 0.297445
N	-1.1804104207	-0.5656793404	 0.0006977748	-0.279123
C	-1.2902382299	-2.0142712967	-0.0319013337	-0.166252
C	-0.0138927054	-2.7777859808	-0.4677913302	-0.31524
C	 1.1585567992	-2.1908625734	 0.2717414331	 0.3973
O	 1.8672073705	-2.7762915311	 1.0526539246	-0.310386
C	 1.32674287	-0.6967090486	-0.020711999	-0.028408
O	 1.9003791582	-0.5781207648	-1.3212582233	-0.440578
H	 0.7913156864	 1.8052475665	 0.4635392411	 0.2547
H	-0.8279289409	 1.8456384678	-0.0087081879	 0.257214
H	-1.5962885912	-2.3559674101	 0.9665167273	 0.123154
H	-2.1149381434	-2.2765174792	-0.7037004165	 0.11716
H	-0.0988739823	-3.8472552754	-0.266410514	 0.119066
H	 0.1464804868	-2.6170641082	-1.5398059031	 0.137206
H	 1.9933136924	-0.2694619403	 0.7437044875	 0.084763
H	 1.6463005853	 0.2870480048	-1.6646530833	 0.298269
57.4	130.4312	240.6334	245.8889	260.6778	326.131	350.9823	431.1884	451.7574	496.4569	517.704	600.5847	653.6409	714.1203	768.7543	786.0556	884.5856	895.6003	954.7283	1013.46	1031.986	1082.2782	1151.5439	1179.8699	1222.5556	1248.7647	1256.3427	1306.9773	1315.6309	1358.5477	1382.4495	1410.0414	1462.5281	1497.113	1624.6299	1752.6203	1837.4971	2991.6846	3016.13	3047.5524	3060.8931	3125.9647	3538.6283	3647.661	3786.0452
NC1=NCCC(=O)C1O	NC1=NCCC(=O)[C@H]1O	
InChI=1S/C5H8N2O2/c6-5-4(9)3(8)1-2-7-5/h4,9H,1-2H2,(H2,6,7)	InChI=1S/C5H8N2O2/c6-5-4(9)3(8)1-2-7-5/h4,9H,1-2H2,(H2,6,7)/t4-/m1/s1
