16
gdb 45281	2.83256	1.77942	1.28211	3.8918	69.53	-0.2282	-0.0343	0.1938	967.4054	0.124781	-437.826683	-437.819616	-437.818672	-437.858252	27.661	
O	-0.0231406279	-0.0102089194	-0.0663342833	-0.300228
C	 0.0118676059	 1.1821294067	 0.0146969542	 0.318647
C	-1.0769546057	 2.295070847	 0.059020876	-0.339852
C	 0.0129850054	 3.3642420419	-0.2301543156	-0.099333
N	 0.4774167138	 4.0780125474	 0.9860987597	-0.320657
C	 1.5303296752	 3.070575554	 1.2091460105	-0.103996
C	 2.8642949467	 3.1493586421	 0.417771117	-0.107115
O	 2.3897492734	 2.2190345525	-0.5952392206	-0.32146
C	 1.1007324206	 2.2334293262	-0.0417820068	 0.346881
H	-1.8097503853	 2.1692261576	-0.7427395599	 0.139109
H	-1.5936281812	 2.408458888	 1.0142616909	 0.138506
H	-0.0981966924	 3.9393590181	-1.1492439762	 0.09068
H	 0.8219357704	 5.0188437882	 0.8255126255	 0.224456
H	 1.6023751405	 2.6791323301	 2.2253136741	 0.104162
H	 3.0934315531	 4.1355247047	-0.0037400375	 0.106676
H	 3.7442899476	 2.7517699949	 0.9333538421	 0.123523
107.047	147.966	266.9873	294.7118	408.5406	446.5689	493.0732	564.329	639.3632	684.6243	748.8682	824.5639	848.5697	876.6391	901.4624	966.7139	979.5095	993.3757	1029.0832	1052.328	1068.3516	1108.9036	1119.7581	1130.6444	1171.4981	1177.0203	1219.813	1271.1063	1306.6108	1323.4014	1348.7703	1385.2408	1423.9912	1508.4852	1884.1822	3024.9904	3069.5409	3081.892	3099.3926	3115.7401	3133.6708	3525.2346
O=C1CC2NC3COC123	O=C1C[C@H]2N[C@@H]3CO[C@]123	
InChI=1S/C6H7NO2/c8-5-1-3-6(5)4(7-3)2-9-6/h3-4,7H,1-2H2	InChI=1S/C6H7NO2/c8-5-1-3-6(5)4(7-3)2-9-6/h3-4,7H,1-2H2/t3-,4-,6-/m1/s1
