16
gdb 28891	2.33978	1.82632	1.03233	4.3085	74.87	-0.2219	-0.0057	0.2162	1098.5621	0.124959	-437.953087	-437.944858	-437.943913	-437.985494	31.245	
C	 0.0359572069	 1.502091283	-0.0435567665	-0.540683
C	 0.0267071065	-0.0043704381	-0.0168196218	 0.166928
C	 0.1108017248	-0.7484657382	-1.1923727905	 0.18925
O	 0.2068974809	-0.2080459434	-2.4445411203	-0.458069
C	 0.0998489525	-2.1457598303	-1.1335508748	 0.273865
O	 0.1799876592	-2.9015058422	-2.2595630507	-0.443547
C	 0.004077046	-2.7468540435	 0.116421678	-0.069488
N	-0.0776973304	-2.0566455556	 1.2563585537	-0.284454
C	-0.0655801975	-0.727443053	 1.1759082977	-0.072223
H	 0.9601952613	 1.9028227446	-0.4808660289	 0.13234
H	-0.8061506912	 1.9112972945	-0.6175709323	 0.132115
H	-0.0406497335	 1.9039720403	 0.969387418	 0.14506
H	 0.2064287635	 0.7524077977	-2.3893529845	 0.307348
H	 0.2393774732	-2.3024004823	-3.0140886058	 0.309162
H	-0.0056782893	-3.8318116957	 0.1787029957	 0.114876
H	-0.1332030129	-0.1850647979	 2.1170244028	 0.097519
139.9016	150.6369	231.2137	271.6051	276.9969	305.9817	310.2111	417.0077	488.1016	504.9745	535.3125	599.2989	608.9251	686.4528	770.9259	844.8699	903.9924	950.8961	970.0751	1039.0566	1059.7432	1177.9376	1218.7028	1225.9068	1290.9394	1324.8828	1344.6782	1381.1725	1414.316	1475.6834	1488.041	1503.7301	1533.2116	1628.2035	1657.5836	3008.2887	3054.0857	3117.9974	3142.8694	3166.4751	3791.2228	3838.5659
CC1=C(O)C(O)=CN=C1	Cc1c(O)c(O)cnc1	
InChI=1S/C6H7NO2/c1-4-2-7-3-5(8)6(4)9/h2-3,8H,1H3,(H,7,9)	InChI=1S/C6H7NO2/c1-4-2-7-3-5(8)6(4)9/h2-3,8H,1H3,(H,7,9)
