18
gdb 77322	2.39306	1.33013	1.19878	2.4935	77.3	-0.2411	-0.0216	0.2196	1140.6866	0.146884	-401.93371	-401.924796	-401.923852	-401.9675	33.335	
C	 0.034869013	 1.5656555601	 0.0370141588	-0.415584
C	-0.0361648467	 0.0319846872	-0.0313767443	-0.079782
C	 0.7356037902	-0.5567470333	-1.2379550455	-0.205509
N	 2.1082575305	-0.6956550592	-0.6988323091	-0.302675
C	 1.9874671833	-1.2238391896	 0.6591931028	-0.27928
C	 0.6969587999	-0.5817540353	 1.1711681989	 0.41846
O	 0.3237744886	-0.5494751793	 2.3133414795	-0.316054
C	 0.1598654648	-1.8264676366	-1.7005865772	 0.33039
C	-0.2737523221	-2.8868479238	-2.0680688107	-0.462102
H	 1.0708017542	 1.909040622	-0.0383302433	 0.137394
H	-0.5376504607	 2.0148894916	-0.7799064549	 0.121841
H	-0.3794532802	 1.9169917273	 0.9855554677	 0.138805
H	-1.0786145883	-0.2928438967	-0.0169619059	 0.114248
H	 0.7550321626	 0.1504828036	-2.0744406989	 0.108596
H	 2.6765515221	-1.284846101	-1.295580462	 0.231491
H	 1.8626112555	-2.318654707	 0.7196307805	 0.124412
H	 2.8391941925	-0.9465708304	 1.2868253708	 0.133691
H	-0.6658766092	-3.8163530995	-2.4005536572	 0.201657
57.4349	127.0438	142.1349	222.1746	240.8879	243.3734	324.9537	447.3984	474.0963	509.3036	577.4091	626.5479	637.893	653.1585	694.5704	760.9189	822.6164	891.6887	944.6713	963.5249	993.2332	1034.6566	1071.3126	1102.4273	1133.2539	1168.2916	1197.5471	1220.8654	1281.0393	1301.3266	1339.3439	1353.7684	1399.2091	1440.3327	1479.4311	1495.0358	1503.6163	1856.7501	2223.1151	2962.9847	3040.8273	3043.618	3083.6088	3092.1192	3116.2546	3126.5452	3500.4468	3551.8828
CC1C(NCC1=O)C#C	C[C@H]1[C@@H](NCC1=O)C#C	
InChI=1S/C7H9NO/c1-3-6-5(2)7(9)4-8-6/h1,5-6,8H,4H2,2H3	InChI=1S/C7H9NO/c1-3-6-5(2)7(9)4-8-6/h1,5-6,8H,4H2,2H3/t5-,6-/m0/s1
