20
gdb 32906	4.00378	0.83908	0.72756	1.4558	84.77	-0.1764	0.0413	0.2178	1607.0273	0.171045	-403.188601	-403.179081	-403.178137	-403.223574	34.963	
C	 0.1887844144	 1.4899543975	 0.1652405077	-0.381066
C	 0.1609533503	-0.036965962	 0.0710559053	-0.155182
C	 0.5491274023	-0.553855671	-1.3284345945	-0.303887
C	 0.5506287684	-2.0358686847	-1.4490656287	 0.351613
C	-0.1797688705	-2.9362780096	-2.1519551079	-0.253867
C	 0.3035120449	-4.2473716618	-1.8083535668	-0.258837
C	 1.3093074533	-4.0396793191	-0.9139346812	 0.358132
N	 2.2208966342	-4.8748107791	-0.2777342752	-0.595865
O	 1.4801639426	-2.7164419402	-0.6799982968	-0.212863
H	 1.186917314	 1.8830469186	-0.0587469968	 0.114299
H	-0.5108734685	 1.944717363	-0.5453016672	 0.112748
H	-0.0862205057	 1.8325689211	 1.1676104116	 0.111205
H	 0.8463215871	-0.4692566371	 0.8090947395	 0.105597
H	-0.8385987976	-0.4116573322	 0.3224604237	 0.098443
H	-0.1500642676	-0.1596084739	-2.0747351535	 0.107537
H	 1.5394688718	-0.1540050058	-1.5902910208	 0.107221
H	-0.9793039216	-2.700982182	-2.837939586	 0.097826
H	-0.0467290435	-5.1981640543	-2.1764790595	 0.091395
H	 1.8922753613	-5.8290137449	-0.2206803047	 0.253054
H	 2.4789695105	-4.5356274725	 0.6409596318	 0.2525
59.475	82.8145	99.091	172.3187	237.7115	246.5667	285.9952	309.8133	373.2735	440.8831	628.6346	648.3049	682.183	719.7559	742.2715	744.7106	774.5506	815.8284	868.6669	893.8509	971.7753	1002.8922	1026.2743	1042.7164	1096.2089	1109.496	1109.8557	1227.4145	1237.2798	1272.3213	1299.3876	1311.397	1327.1162	1383.6053	1411.4909	1441.8684	1470.0871	1492.2058	1498.5593	1508.9692	1611.5473	1646.3292	1673.5145	3001.3264	3027.4231	3033.5581	3056.1591	3074.3043	3097.1336	3101.678	3246.4675	3263.5141	3539.0481	3640.6607
CCCC1=CC=C(N)O1	CCCc1ccc(N)o1	
InChI=1S/C7H11NO/c1-2-3-6-4-5-7(8)9-6/h4-5H,2-3,8H2,1H3	InChI=1S/C7H11NO/c1-2-3-6-4-5-7(8)9-6/h4-5H,2-3,8H2,1H3
