23
gdb 116140	2.49929	1.16084	0.84054	1.1	89.97	-0.2304	0.0265	0.257	1455.7178	0.205896	-388.307916	-388.298269	-388.297325	-388.342424	36.269	
C	 0.0025774848	 1.4051086107	 0.0551041341	-0.238079
O	-0.0101855665	 0.007314768	-0.1015348911	-0.245906
C	-1.3076781108	-0.5846624386	-0.0315138877	 0.102333
C	-1.232670899	-1.9246952336	-0.7607849773	-0.221922
C	-2.4869416696	-2.7581944769	-0.4866217837	-0.222076
C	-2.6288349933	-3.0600108884	 1.0113523108	-0.27691
C	-2.3388704714	-1.8598832575	 1.885509035	 0.316268
C	-2.7280040849	-1.9910667291	 3.3331149658	-0.473266
C	-1.7598972502	-0.7587753694	 1.3991401399	-0.164955
H	 1.0364979704	 1.7353946225	-0.0759689607	 0.124228
H	-0.6268717404	 1.9052790399	-0.6987474814	 0.100418
H	-0.3385188723	 1.7285617705	 1.0502637829	 0.10402
H	-2.016355296	 0.0778946532	-0.5622265052	 0.063064
H	-1.0926311381	-1.7525777282	-1.8324001893	 0.093759
H	-0.3415455842	-2.4517986723	-0.3990051908	 0.107485
H	-3.3718616152	-2.2067308868	-0.8307600349	 0.09812
H	-2.459518613	-3.691124067	-1.0594115185	 0.093777
H	-3.6363046583	-3.4383833951	 1.2306016878	 0.097028
H	-1.9465606059	-3.8753797217	 1.2974300291	 0.107029
H	-2.2403384921	-2.8606120616	 3.7932143754	 0.122315
H	-2.4547721048	-1.1037714347	 3.9103048863	 0.11856
H	-3.8087991455	-2.1510272963	 3.4404331005	 0.120281
H	-1.5767503637	 0.0820894124	 2.0647552929	 0.074429
78.6846	102.3203	144.0651	182.5537	207.7693	240.5212	276.6526	341.7373	393.4455	428.285	444.0403	485.1711	554.4318	619.7484	787.3576	830.2238	867.8802	898.2117	925.6574	951.2427	989.3299	1031.958	1045.4196	1067.8694	1095.8356	1135.6174	1143.3958	1158.9942	1181.6751	1194.1733	1214.8825	1239.2278	1276.8992	1330.5882	1342.986	1359.7779	1373.7263	1388.742	1403.4756	1412.9461	1474.5284	1477.3788	1479.6643	1488.639	1491.7291	1493.2817	1500.2942	1510.1099	1736.1262	2920.8768	2969.5967	2991.436	3012.9804	3015.0425	3017.5392	3033.4795	3037.8269	3058.3989	3071.3524	3085.9745	3106.264	3110.2945	3147.7575
COC1CCCC(C)=C1	CO[C@H]1CCCC(=C1)C	
InChI=1S/C8H14O/c1-7-4-3-5-8(6-7)9-2/h6,8H,3-5H2,1-2H3	InChI=1S/C8H14O/c1-7-4-3-5-8(6-7)9-2/h6,8H,3-5H2,1-2H3/t8-/m0/s1
