27
gdb 122516	4.29875	0.53863	0.51215	0.1145	97.99	-0.2607	0.0919	0.3525	2336.7618	0.250848	-353.56036	-353.548888	-353.547944	-353.598285	41.51	
C	 0.383969391	 1.5816686358	 0.2318882479	-0.379463
C	-0.0167418536	 0.128204955	-0.0350987017	-0.164665
C	 0.7579558553	-0.5086333497	-1.193395682	-0.15002
C	 0.3533576428	-1.9626113934	-1.472878356	-0.209683
C	 1.1243497075	-2.5731574257	-2.626594275	-0.010726
C	 2.4679972483	-3.232405469	-2.4088025504	-0.291863
C	 1.2780874536	-4.063164249	-2.8330597428	 0.003871
C	 0.675735367	-5.1038893078	-1.9096076831	-0.192587
C	 1.3902312543	-6.4572553042	-2.0069263759	-0.372392
H	 1.4472175615	 1.6591114475	 0.4853614758	 0.112627
H	 0.2102026553	 2.2083191835	-0.6501540251	 0.112387
H	-0.1876663609	 2.0097243316	 1.0614755207	 0.109289
H	 0.1380321022	-0.4674826577	 0.8745308288	 0.092165
H	-1.0929525368	 0.0779988422	-0.2484805119	 0.09256
H	 0.6076682671	 0.0903210397	-2.1026792471	 0.088754
H	 1.8349216673	-0.468629878	-0.9812954265	 0.094788
H	 0.5031310744	-2.5558469931	-0.5627557563	 0.091402
H	-0.7242787081	-2.0015681105	-1.6864941811	 0.091229
H	 1.0373420688	-1.9978873212	-3.5466548404	 0.075588
H	 3.2703473379	-3.0520834585	-3.1161249118	 0.104183
H	 2.8032405996	-3.3400131665	-1.38047956	 0.103068
H	 1.2839277976	-4.3750855183	-3.8761092703	 0.074809
H	 0.7107234676	-4.7520200653	-0.8725489491	 0.094421
H	-0.3878973502	-5.2358078091	-2.1498093293	 0.093966
H	 1.3431208765	-6.8560038429	-3.026454436	 0.11188
H	 2.4477769467	-6.3629773462	-1.7387228921	 0.116999
H	 0.9363324073	-7.1964595695	-1.3392087693	 0.107413
38.3297	70.3417	79.2827	94.0615	131.1612	170.9256	220.178	242.0251	260.9569	280.778	362.1114	409.6401	438.2426	564.011	733.2158	753.1502	788.7146	796.3772	824.5924	864.5208	903.4065	907.2847	950.8495	973.2918	989.7484	1023.2595	1048.1162	1061.5264	1068.6984	1089.1177	1117.7237	1132.2985	1150.4246	1199.3853	1200.7877	1244.3042	1253.0086	1275.7224	1294.9645	1317.2456	1330.3388	1338.1255	1355.5534	1395.2399	1403.6935	1410.8675	1413.6618	1434.2237	1478.3283	1483.5065	1485.6384	1496.6727	1498.3512	1499.0745	1500.5426	1507.7522	1512.2259	3002.9304	3005.1752	3014.6475	3016.959	3027.7519	3029.1842	3030.1309	3043.1173	3056.7624	3065.4746	3094.2103	3097.2883	3099.4318	3103.2065	3111.1662	3118.3109	3123.6102	3202.5662
CCCCC1CC1CC	CCCC[C@H]1C[C@H]1CC	
InChI=1S/C9H18/c1-3-5-6-9-7-8(9)4-2/h8-9H,3-7H2,1-2H3	InChI=1S/C9H18/c1-3-5-6-9-7-8(9)4-2/h8-9H,3-7H2,1-2H3/t8-,9+/m1/s1
