14
gdb 45453	2.82986	1.74421	1.23602	4.9316	64.09	-0.2552	-0.083	0.1722	963.7966	0.101644	-473.814333	-473.807278	-473.806334	-473.846406	26.119	
N	 0.019226804	 1.1766560272	 0.4331997065	-0.49172
C	 0.0223722621	-0.0060932423	-0.0003924581	 0.308322
O	 1.1037579837	-0.674093351	-0.5047718517	-0.250079
C	 0.7861408076	-2.0257336571	-0.874089111	 0.032763
C	 1.0598598186	-3.0465893222	 0.238687302	-0.092339
O	-0.348457344	-3.0938759172	 0.5818861428	-0.280761
C	-0.697700073	-2.2611646871	-0.5523672452	-0.017897
C	-1.2041809377	-0.9030229456	-0.0754378833	 0.340992
O	-2.3289094089	-0.5916093366	 0.1936765734	-0.265012
H	 0.9512261396	 1.5933849773	 0.3780234796	 0.236334
H	 1.1833857381	-2.2132133075	-1.8705219634	 0.116168
H	 1.4186943387	-4.0211939125	-0.111892725	 0.120021
H	 1.6845251892	-2.6870917677	 1.0617240024	 0.131291
H	-1.353081188	-2.7592922579	-1.270028959	 0.111918
78.3148	112.8978	215.6498	328.7094	377.7711	427.4548	501.4551	616.8535	645.3012	723.7866	808.6005	849.1946	888.2903	899.0361	910.3073	974.5567	1009.6494	1028.4536	1068.6644	1077.0264	1151.6798	1177.7954	1238.7465	1261.3207	1282.9639	1286.8254	1344.9596	1374.4835	1504.619	1759.6544	1867.7762	3034.5958	3094.7439	3097.9975	3128.5591	3467.7025
N=C1OC2COC2C1=O	[NH][C]1O[C@H]2CO[C@H]2C1=O	
InChI=1S/C5H5NO3/c6-5-3(7)4-2(9-5)1-8-4/h2,4,6H,1H2	InChI=1S/C5H5NO3/c6-5-3(7)4-2(9-5)1-8-4/h2,4,6H,1H2/t2-,4+/m0/s1
