18
gdb 13082	4.03932	1.2956	1.07171	2.0058	73.37	-0.2532	0.0597	0.3129	1109.4117	0.152453	-347.7568	-347.748252	-347.747308	-347.789897	31.843	
O	 0.2437803106	 1.1842535708	-0.5653248558	-0.428414
C	 0.0773285851	-0.0671489918	 0.0613545757	 0.122951
C	-0.1162715146	-0.1317572448	 1.6008670487	-0.261973
C	-1.2630891468	-1.1537476503	 1.3601871087	-0.223575
C	-1.330623188	-0.6935650925	-0.1253266615	-0.0141
C	-2.4296492109	 0.3457589411	-0.4108758821	-0.358675
C	-3.7626686936	-0.2447434662	-0.3846482378	 0.293599
C	-4.850225712	-0.7568178321	-0.3551210687	-0.441188
H	 1.1174377848	 1.5222905401	-0.3453596798	 0.285402
H	 0.8534704807	-0.7757260217	-0.2628596275	 0.06868
H	 0.7348669319	-0.4468206227	 2.2094839655	 0.092749
H	-0.4899176739	 0.8230080255	 1.9812601572	 0.108094
H	-0.9263675209	-2.188642645	 1.4573421351	 0.102997
H	-2.1763372583	-1.0309830774	 1.9458624351	 0.112722
H	-1.3961783381	-1.4896388632	-0.8709789331	 0.078729
H	-2.3744348672	 1.1626088929	 0.3185484343	 0.130525
H	-2.2420652545	 0.8078991881	-1.3865664236	 0.141392
H	-5.8172422742	-1.1941761608	-0.3358386804	 0.190086
72.6656	126.4399	130.3431	219.4687	237.2685	331.4984	353.6411	399.8337	504.4774	541.8557	615.0372	633.9533	654.8541	760.8001	839.5223	878.8849	916.6831	942.8845	952.1994	970.895	1046.6837	1093.0732	1109.5834	1155.6486	1193.9095	1197.2923	1231.997	1256.3455	1265.2887	1286.006	1320.1874	1334.7771	1378.3823	1420.0747	1466.5327	1481.0409	1499.062	2236.0857	2989.421	3037.7551	3059.0925	3063.0718	3070.4025	3081.606	3108.3554	3125.2556	3508.336	3820.6281
OC1CCC1CC#C	O[C@H]1CC[C@H]1CC#C	
InChI=1S/C7H10O/c1-2-3-6-4-5-7(6)8/h1,6-8H,3-5H2	InChI=1S/C7H10O/c1-2-3-6-4-5-7(6)8/h1,6-8H,3-5H2/t6-,7+/m1/s1
