21
gdb 73847	2.3166	1.6455	1.05621	0.6146	95.49	-0.2053	-0.0236	0.1817	1199.8643	0.182997	-349.986146	-349.977121	-349.976176	-350.01964	34.567	
C	 0.3960066104	 1.5146972692	 0.0849025017	-0.487458
C	 0.2263238249	 0.0258523812	-0.0555701829	 0.195004
C	-0.1248234466	-0.613094915	-1.2000228936	 0.23173
C	-0.2558097622	 0.0932350321	-2.5365007157	-0.49235
C	-0.4428756365	-2.0322295816	-1.2445560302	-0.143596
C	-1.0466146369	-2.7821150154	-0.2838802054	-0.1052
C	-1.4441937839	-2.3172946551	 1.0229661578	-0.058141
C	-0.8011820882	-1.3496247786	 1.7020360788	-0.084285
C	 0.4999286159	-0.7878464143	 1.1951329873	-0.347737
H	-0.1916101394	 1.8823035879	 0.9351645376	 0.129442
H	 1.4419168994	 1.7722469008	 0.3025625155	 0.12417
H	 0.081701059	 2.0764409231	-0.7952191928	 0.12193
H	 0.287142565	 1.0388622162	-2.5759092624	 0.120729
H	 0.1385763639	-0.5441780588	-3.3358676392	 0.121385
H	-1.304313508	 0.2967908968	-2.7879855794	 0.127701
H	-0.31343306	-2.5048918823	-2.2173437539	 0.078603
H	-1.3482754255	-3.790847792	-0.5580271462	 0.085214
H	-2.3252888662	-2.7805002258	 1.4618505559	 0.086582
H	-1.2107146101	-0.9714097485	 2.6348122622	 0.088572
H	 1.1802930915	-1.6152981389	 0.9527775912	 0.114753
H	 0.9835438436	-0.1689041811	 1.9558177037	 0.09295
94.5334	121.4557	138.9794	160.347	270.9835	325.7438	368.2993	369.8544	408.6839	447.1283	514.6732	605.2884	641.8991	689.5243	760.4868	819.7292	824.1552	925.1508	937.9578	973.6439	989.2772	998.7437	1011.369	1030.7881	1043.6925	1067.7603	1113.1207	1161.0324	1209.6062	1248.449	1271.511	1279.8506	1330.1212	1400.1344	1405.377	1416.3117	1471.4669	1476.3255	1478.5403	1479.8938	1494.1355	1504.4724	1579.6442	1672.1919	1678.3545	3006.9192	3012.1443	3024.902	3059.201	3075.0784	3084.9914	3121.9014	3125.2743	3138.3467	3141.2705	3154.369	3171.2907
CC1=C(C)C=CC=CC1	CC1=C(C)C=CC=CC1	
InChI=1S/C9H12/c1-8-6-4-3-5-7-9(8)2/h3-6H,7H2,1-2H3	InChI=1S/C9H12/c1-8-6-4-3-5-7-9(8)2/h3-6H,7H2,1-2H3
