18
gdb 68555	2.4263	1.90924	1.54935	2.1121	76.15	-0.2322	0.0093	0.2415	939.2255	0.14813	-401.87862	-401.871068	-401.870124	-401.910041	30.911	
O	-0.149752608	 1.399849042	 0.0640661254	-0.49642
C	-0.0166722994	 0.017458092	 0.0100623233	 0.275873
C	 0.3516680553	-0.7913638705	-1.2892271094	-0.27855
C	-0.3324812881	-1.9465436769	-0.4776317275	-0.16907
C	 0.5942388032	-2.0276271467	 0.7403254969	-0.080041
C	 0.801885232	-0.7469324893	 1.0644922056	-0.1664
C	-1.3086245903	-0.8342346395	 0.0163516697	 0.4286
C	-2.5018417804	-0.7734828812	 0.8646063322	-0.350099
N	-2.5627122687	-0.4740995277	-0.5977954999	-0.40393
H	 0.720775659	 1.8020868449	-0.0214911585	 0.28484
H	-0.2300794957	-0.4774975636	-2.1602774344	 0.109026
H	 1.4121780205	-0.9114390357	-1.5236617194	 0.086803
H	-0.686080852	-2.8574130352	-0.9538275136	 0.076884
H	 0.9384103154	-2.9297485532	 1.2260551632	 0.104125
H	 1.3468769254	-0.3041373092	 1.8867488658	 0.100867
H	-3.0236236001	-1.6793293011	 1.1605600373	 0.117939
H	-2.5887844779	 0.054806544	 1.563356901	 0.118889
H	-2.5989902102	 0.5335173167	-0.7440770978	 0.240664
175.3002	198.4366	203.7775	259.3892	365.9018	400.144	428.2028	535.8026	592.5641	597.4539	651.6007	715.8041	719.2753	835.5975	867.074	900.8504	912.6721	922.7132	924.5187	948.0678	979.5581	1007.1043	1033.1488	1045.1107	1084.0541	1100.3559	1129.5012	1154.3715	1200.1524	1236.787	1245.8368	1257.9715	1270.402	1311.5068	1355.5687	1435.0442	1484.9159	1522.4266	1620.856	3054.9781	3107.1478	3128.2093	3154.7111	3192.7018	3215.0079	3241.8677	3481.3719	3815.7284
OC12CC(C=C1)C21CN1	O[C@@]12C[C@@H](C=C1)[C@]12CN1	
InChI=1S/C7H9NO/c9-6-2-1-5(3-6)7(6)4-8-7/h1-2,5,8-9H,3-4H2	InChI=1S/C7H9NO/c9-6-2-1-5(3-6)7(6)4-8-7/h1-2,5,8-9H,3-4H2/t5-,6-,7+/m1/s1
