17
gdb 56422	3.72584	0.59973	0.54587	2.2905	84.62	-0.2504	-0.0301	0.2203	1977.6451	0.131377	-384.635297	-384.624784	-384.62384	-384.67403	35.801	
C	-0.0019973946	 1.4672213104	-0.2277545332	-0.377442
C	 0.0082302487	-0.0516849168	 0.0807544495	-0.321087
C	 0.8261094286	-0.3458108571	 1.263130761	 0.343903
C	 1.5117424285	-0.5631174911	 2.2249197768	-0.467552
C	-1.3560182899	-0.5727256585	 0.2286027363	 0.127524
C	-2.4879432662	-0.9646796287	 0.3448346414	 0.021509
C	-3.8349592395	-1.5038372196	 0.4606144092	-0.414574
C	-3.9313203377	-2.9422820282	-0.0550765179	 0.171399
O	-4.8747566322	-3.3687359074	-0.6624594978	-0.229997
H	 1.0205567013	 1.824174288	-0.3720647043	 0.130017
H	-0.5808765788	 1.6587955034	-1.1344610888	 0.128548
H	-0.4526304511	 2.0185055049	 0.6002788211	 0.139043
H	 0.4705816625	-0.5594765858	-0.7782775875	 0.138891
H	 2.1129918152	-0.7653077009	 3.0765719763	 0.200948
H	-4.1419373873	-1.5272593788	 1.5177668478	 0.157741
H	-4.5760791246	-0.8992267207	-0.0721545464	 0.154737
H	-3.0521977029	-3.575401433	 0.1932305565	 0.096392
6.8957	49.826	80.7435	105.4086	177.7435	192.6822	227.933	271.0984	358.5147	421.3314	462.0168	488.6058	553.6254	568.2088	633.4193	647.8292	718.3204	772.9334	874.8172	1000.003	1033.0387	1042.4057	1071.3136	1090.7664	1181.7456	1211.652	1287.9037	1299.2819	1326.9577	1403.4567	1414.9245	1440.9395	1488.9408	1496.7861	1841.0503	2241.7898	2371.2149	2903.2569	2998.4284	3001.2093	3052.1333	3079.7818	3133.491	3138.9726	3504.5196
CC(C#C)C#CCC=O	C[C@@H](C#C)C#CCC=O	
InChI=1S/C8H8O/c1-3-8(2)6-4-5-7-9/h1,7-8H,5H2,2H3	InChI=1S/C8H8O/c1-3-8(2)6-4-5-7-9/h1,7-8H,5H2,2H3/t8-/m0/s1
