15
gdb 125832	3.15263	1.40057	1.04268	3.4486	67.06	-0.2866	-0.0438	0.2428	1096.8892	0.112033	-453.886515	-453.878696	-453.877752	-453.919492	28.136	
C	 1.0758291463	 0.973173369	 0.5675325734	-0.507618
C	 0.2149866589	-0.1930472291	 0.2089995453	 0.248534
N	 0.2035747487	-0.7041178183	-0.9926739161	-0.12769
O	-0.6951321225	-1.7354079708	-0.9655872712	-0.154054
N	-1.2609380414	-1.8626070341	 0.2669304147	-0.157787
C	-0.7162415558	-0.9360039249	 1.0095161375	 0.281763
C	-1.1140656099	-0.7757864936	 2.4226142362	-0.021423
C	-0.1453034226	-0.4894621598	 3.4950413302	-0.183572
O	-0.9905621372	 0.5370660906	 2.9807612258	-0.226558
H	 1.9115019135	 0.663282685	 1.2045089093	 0.142247
H	 1.4885447704	 1.4218936958	-0.337381779	 0.154704
H	 0.4984388019	 1.716823736	 1.1203073443	 0.165914
H	-2.0277238661	-1.3046911391	 2.68548256	 0.127129
H	-0.3698788834	-0.8202214556	 4.5074606152	 0.134451
H	 0.9121148694	-0.3918793609	 3.2578866644	 0.123961
63.699	141.1351	170.5243	184.0096	280.084	322.2346	429.3699	459.9383	642.8915	663.5363	684.0189	752.2324	859.4773	902.2413	925.7841	944.1738	996.394	1018.981	1071.6315	1077.4466	1096.9437	1154.8217	1170.5688	1247.0306	1281.9939	1400.5557	1413.3154	1430.7674	1477.2162	1491.8346	1520.1132	1536.3877	1625.2096	3048.7207	3094.3367	3115.8325	3141.8878	3154.0547	3185.3608
CC1=NON=C1C1CO1	Cc1nonc1[C@H]1CO1	
InChI=1S/C5H6N2O2/c1-3-5(4-2-8-4)7-9-6-3/h4H,2H2,1H3	InChI=1S/C5H6N2O2/c1-3-5(4-2-8-4)7-9-6-3/h4H,2H2,1H3/t4-/m1/s1
