18
gdb 61938	2.13281	1.13295	0.83428	3.1968	77.96	-0.2668	0.012	0.2788	1393.4076	0.144258	-401.918814	-401.908583	-401.907639	-401.955247	35.956	
C	 1.29055796	 1.4657844045	 0.2373246286	-0.399365
C	 0.6545060713	 0.0812814709	 0.2561927634	 0.109962
C	 0.7117192506	-0.5904157077	-1.1323896052	-0.344826
C	 0.0393203893	-1.8828860906	-1.1977460058	 0.293418
C	-0.5258948772	-2.9427171771	-1.2563492894	-0.436242
O	 1.3830823277	-0.7115962549	 1.2040217139	-0.248508
C	 0.607483563	-1.5216242173	 2.0525710663	-0.203754
C	-0.1434295391	-0.7370415388	 3.0547693167	 0.252924
N	-0.735079387	-0.1094887982	 3.8237951147	-0.307703
H	 2.3470758063	 1.3945162645	-0.039759585	 0.129285
H	 0.7849910236	 2.1175384399	-0.4813760555	 0.119715
H	 1.2253943394	 1.9216967233	 1.2278365785	 0.138859
H	-0.3932788401	 0.1623692291	 0.5725913151	 0.10254
H	 0.2654245867	 0.0892537436	-1.8691270217	 0.134385
H	 1.7670655453	-0.7067911103	-1.4081352431	 0.141375
H	-1.0219142878	-3.8796058758	-1.3209962172	 0.202056
H	-0.0998684126	-2.1486360476	 1.4959063708	 0.15753
H	 1.3027172604	-2.1841288677	 2.5773798849	 0.158349
28.9994	73.9108	83.2048	138.7842	203.081	222.7495	296.1009	330.6652	349.8756	365.9376	379.7342	463.4561	539.7597	619.8568	623.1985	644.1554	806.6708	891.5571	898.9323	904.649	983.4265	1034.3117	1065.2737	1116.0625	1138.4051	1143.6991	1245.0274	1292.6904	1305.5727	1369.9453	1379.5009	1406.7435	1416.2581	1456.3576	1478.3409	1486.1661	1498.5644	2234.9555	2355.6351	3023.668	3028.913	3040.1029	3044.8165	3066.5726	3093.4045	3117.3028	3131.361	3503.3995
CC(CC#C)OCC#N	C[C@@H](CC#C)OCC#N	
InChI=1S/C7H9NO/c1-3-4-7(2)9-6-5-8/h1,7H,4,6H2,2H3	InChI=1S/C7H9NO/c1-3-4-7(2)9-6-5-8/h1,7H,4,6H2,2H3/t7-/m0/s1
