18
gdb 55944	4.05127	1.01056	0.90789	16.2069	75.39	-0.152	-0.0191	0.133	1274.862	0.147319	-438.998187	-438.989934	-438.98899	-439.032356	31.078	
O	-0.1468848237	 0.1172143923	 0.6215478634	-0.469583
C	 0.0161370973	 1.2370582087	 0.0851928055	 0.367392
O	 1.019927178	 1.901134104	-0.1713545775	-0.453476
C	-1.3634062833	 1.9524568842	-0.3221523891	-0.398947
C	-2.5267842171	 0.9938252427	-0.1660524061	 0.040608
C	-2.7643017162	 0.3439754439	 1.246574805	-0.223489
C	-4.1735718364	 0.9427526937	 1.2580875299	-0.054945
N	-3.9975763064	 2.4356780146	 1.1127723516	-0.261184
H	-4.8204395474	 3.0114421964	 1.2432991714	 0.314609
H	-3.1130072347	 2.8667444143	 1.3844111518	 0.313272
C	-3.9719491861	 1.5404487678	-0.0969290195	-0.07351
H	-1.4597144016	 2.841500767	 0.3251196296	 0.061459
H	-1.2913155348	 2.3308227564	-1.3463446916	 0.108184
H	-2.4780225245	 0.2098608344	-0.9227332514	 0.126238
H	-2.7857644626	-0.7431699836	 1.2048569246	 0.158748
H	-2.0856936976	 0.6433542423	 2.0433731052	 0.15834
H	-5.0799852356	 0.645067071	 1.7734743312	 0.1437
H	-4.6818949572	 1.8014672	-0.8730326639	 0.142585
31.623	67.8319	160.1229	221.1896	284.9982	364.9588	444.2584	497.3766	594.0619	645.5468	666.8915	748.1897	766.1353	816.3778	842.3383	870.1908	903.8229	931.8401	949.4785	975.6345	990.0306	1006.3814	1050.3979	1078.0301	1116.077	1132.3623	1165.1147	1189.5453	1203.0028	1215.2849	1254.7628	1292.4076	1310.1411	1323.5743	1344.7223	1458.5905	1463.156	1610.8413	1793.6447	2953.5162	3080.8993	3113.5236	3124.7957	3181.1962	3185.1739	3202.0983	3431.5834	3611.7099
[O-]C(=O)CC1CC2[NH2+]C12	[O]C(=O)C[C@H]1C[C@H]2[NH2][C@@H]12	
InChI=1S/C6H9NO2/c8-5(9)2-3-1-4-6(3)7-4/h3-4,6-7H,1-2H2,(H,8,9)	InChI=1S/C6H9NO2/c8-5(9)2-3-1-4-6(3)7-4/h3-4,6H,1-2,7H2/t3-,4-,6+/m1/s1
