16
gdb 23247	3.17057	1.4684	1.10543	3.5098	73.83	-0.242	-0.0551	0.187	1067.3816	0.125504	-434.004865	-433.997258	-433.996314	-434.037232	29.359	
O	-0.0754912983	 1.3375384261	-0.2902502851	-0.377476
N	 0.0368107804	-0.0366510709	-0.0827355299	-0.215555
C	-1.0887215712	-0.6242976106	 0.0609284335	 0.319223
C	-1.1427454737	-2.1208575391	 0.2805853573	-0.317502
C	-2.5959787965	-2.3547967433	 0.6665084887	-0.029782
C	-3.1542357637	-1.6240168635	 1.8248795486	-0.25005
N	-3.3934480124	-1.1267821444	 0.4462345638	-0.110751
C	-2.4884723059	-0.0752616592	 0.0859808713	 0.283367
N	-2.9178276511	 1.0924246532	-0.1542966344	-0.506958
H	 0.8441848516	 1.6115725004	-0.373741271	 0.317036
H	-0.9096205375	-2.6485833293	-0.6509571171	 0.136873
H	-0.4264425329	-2.4588242971	 1.0342753206	 0.135992
H	-3.069320314	-3.2754747315	 0.3407785833	 0.105712
H	-4.0439571984	-1.9888487775	 2.3275707681	 0.133951
H	-2.4734142659	-1.0550371742	 2.4543743028	 0.127534
H	-2.1387779206	 1.7014604511	-0.3958043606	 0.248388
52.4775	206.7706	259.7264	275.6522	336.2102	363.7923	435.3992	485.9982	489.6603	647.8881	681.3052	709.9373	774.2446	805.7457	849.6936	907.6621	927.0739	943.4346	1006.2783	1024.7482	1071.3768	1085.3186	1111.7514	1165.0466	1185.2625	1200.8216	1260.4701	1303.2633	1350.5326	1387.584	1407.4682	1475.1653	1505.5184	1698.7924	1735.4484	3047.7213	3093.7258	3109.4665	3160.4033	3203.222	3531.1693	3816.7379
ON=C1CC2CN2C1=N	ON=C1C[C@H]2CN2[C]1[NH]	
InChI=1S/C5H7N3O/c6-5-4(7-9)1-3-2-8(3)5/h3,6,9H,1-2H2	InChI=1S/C5H7N3O/c6-5-4(7-9)1-3-2-8(3)5/h3,6,9H,1-2H2/t3-,8?/m0/s1
