25
gdb 103832	2.57402	1.02634	0.8592	1.3522	89.69	-0.251	0.0762	0.3272	1513.8101	0.226685	-389.488804	-389.477718	-389.476774	-389.524745	41.696	
C	 0.2254714503	 1.5539620126	 0.2082751881	-0.383855
C	-0.1611648772	 0.1107402231	-0.1431344359	-0.258956
C	 0.6232252259	-0.4742547406	-1.3120995937	 0.361747
C	 0.4029042827	 0.2167823772	-2.6473133433	-0.461409
C	 2.0053949973	-1.025633464	-1.0359534387	-0.345949
C	 0.8659969437	-1.9692536955	-1.362041284	-0.06701
C	 0.3155329249	-2.9738642133	-0.3462436097	 0.096217
C	 0.617335108	-4.4121244154	-0.7770395625	-0.403816
O	 0.7704468815	-2.7455220467	 0.9867840787	-0.41692
H	 1.2935372119	 1.6288291967	 0.4402826109	 0.113329
H	 0.0141611326	 2.2496028559	-0.6100450179	 0.112506
H	-0.3311922555	 1.9007872364	 1.0845932445	 0.109073
H	-0.0171409015	-0.521835885	 0.7364910396	 0.127757
H	-1.2336182351	 0.0734754824	-0.3816781657	 0.085442
H	 0.7201691183	 1.2647660055	-2.6186206533	 0.116997
H	 0.968402583	-0.2736819794	-3.4461005283	 0.107563
H	-0.6568607281	 0.1988788924	-2.9298917761	 0.111007
H	 2.7886381384	-0.8829103538	-1.7734913579	 0.102136
H	 2.3492965608	-0.9902531889	-0.0070331353	 0.103089
H	 0.8889617778	-2.3801874232	-2.3691649003	 0.074987
H	-0.7724888971	-2.8517389666	-0.2748206125	 0.092234
H	 1.6983262829	-4.5639384422	-0.8883084608	 0.109708
H	 0.2440464262	-5.1158438412	-0.0282549751	 0.120663
H	 0.1487571328	-4.6442182844	-1.7388437112	 0.116369
H	 1.7214411353	-2.9023084817	 0.9943615905	 0.277088
49.0607	93.4879	134.1437	167.2083	216.1318	226.2625	254.7856	267.8199	309.7787	316.3634	329.0851	374.0992	396.5411	452.8643	576.6719	588.0761	687.5015	766.0478	795.5022	874.2309	898.833	915.5594	941.6095	976.1237	1017.5667	1021.646	1052.7804	1062.5885	1070.6447	1081.4022	1093.0015	1129.8247	1145.2248	1188.7352	1253.5923	1290.2723	1318.8015	1327.6473	1347.8898	1385.5734	1400.9983	1405.5703	1411.3518	1422.8304	1430.3617	1481.5839	1486.6487	1492.8124	1494.938	1497.5739	1500.4067	1508.2213	1512.3005	3007.9744	3022.1348	3024.1663	3032.0894	3033.4897	3082.6617	3088.8072	3094.5689	3096.5673	3100.0147	3110.5136	3117.2823	3122.3339	3125.9263	3206.8132	3797.4403
CCC1(C)CC1C(C)O	CC[C@@]1(C)C[C@H]1[C@@H](C)O	
InChI=1S/C8H16O/c1-4-8(3)5-7(8)6(2)9/h6-7,9H,4-5H2,1-3H3	InChI=1S/C8H16O/c1-4-8(3)5-7(8)6(2)9/h6-7,9H,4-5H2,1-3H3/t6-,7+,8+/m1/s1
