16
gdb 31113	3.54782	1.12315	0.87493	1.9593	67.81	-0.1631	0.0577	0.2208	1253.6561	0.12443	-475.045498	-475.036668	-475.035724	-475.078768	33.08	
O	 0.7822530191	-0.1464814626	 0.5690494668	-0.421559
C	-0.1547641962	 0.3398184496	-0.4159755197	-0.199618
C	-1.5167182014	-0.2377060085	-0.2005731909	 0.113001
C	-1.7326762591	-1.4937259758	 0.3055913477	 0.321847
O	-0.876254528	-2.4466835608	 0.7420744759	-0.444116
N	-3.0847784345	-1.7331191411	 0.3480937645	-0.359774
C	-3.7416148678	-0.6226223778	-0.133303532	 0.387476
O	-5.1007201593	-0.6776886809	-0.1614769725	-0.438758
C	-2.8197015668	 0.3248196043	-0.4801450572	-0.432618
H	 0.4676384662	 0.1700098032	 1.4242015075	 0.2868
H	-0.1842865354	 1.4385854743	-0.411227068	 0.103829
H	 0.2889481213	 0.037592185	-1.3728671754	 0.120793
H	-0.0064499338	-2.0118263613	 0.7557988648	 0.302426
H	-3.5243134322	-2.559574004	 0.7146009354	 0.269842
H	-5.4243770133	 0.1440759751	-0.5418734457	 0.305366
H	-3.0272233988	 1.2997783314	-0.8944593311	 0.085064
86.5568	178.9148	191.0584	209.6968	237.928	316.1916	322.8595	368.4093	396.3485	440.8058	510.5091	618.9548	636.3064	665.5961	676.4295	707.0685	724.2381	811.2071	971.0663	1005.3867	1029.842	1143.566	1169.7664	1172.1098	1204.2247	1233.5493	1295.7539	1369.7374	1387.1421	1411.376	1506.5672	1511.6737	1555.1238	1624.4759	1660.6294	3001.5659	3039.3371	3239.7446	3659.6661	3685.3164	3790.8687	3850.9906
OCC1=C(O)NC(O)=C1	OCc1c(O)[nH]c(O)c1	
InChI=1S/C5H7NO3/c7-2-3-1-4(8)6-5(3)9/h1,6-9H,2H2	InChI=1S/C5H7NO3/c7-2-3-1-4(8)6-5(3)9/h1,6-9H,2H2
