16
gdb 27407	2.53508	1.64922	1.08543	3.1775	82.14	-0.2451	-0.0818	0.1633	1099.8913	0.125628	-396.946671	-396.938796	-396.937851	-396.979167	29.361	
C	 0.0464332732	 1.4832255028	 0.1709698488	-0.489727
C	-0.0765986327	-0.0120176243	 0.0112861399	 0.260136
C	-1.26760896	-0.6418440238	 0.0842601	-0.154686
C	-1.4818028751	-2.0813329379	-0.1656996571	 0.288601
N	-2.4949428238	-2.4480919101	-0.8468077525	-0.500154
N	-0.6232026374	-2.9778941288	 0.4931576041	-0.251976
C	 0.6489089977	-2.8502786439	 0.4986187396	 0.068865
N	 1.4796317465	-1.9520744509	-0.1563264356	-0.234267
C	 1.1497110538	-0.7234478111	-0.3478551865	-0.010361
H	 0.4857765048	 1.9380233094	-0.7247221316	 0.141207
H	-0.9270811655	 1.9450810161	 0.3462539642	 0.138825
H	 0.7023745975	 1.7388337155	 1.0112213482	 0.142538
H	-2.170607557	-0.0623401763	 0.2588271191	 0.128507
H	-2.5237262182	-3.4705471619	-0.8868984935	 0.222775
H	 1.2137894686	-3.5988733969	 1.056449606	 0.129452
H	 1.9128732176	-0.1064867476	-0.8327593631	 0.120265
94.4543	138.3473	175.9179	267.8681	301.1043	350.9646	399.1263	443.8586	479.5637	611.8104	648.5242	651.4171	817.3964	845.9849	900.8261	921.0667	942.5223	987.3842	1013.7109	1021.6733	1073.8956	1082.3734	1105.5046	1182.262	1333.2974	1365.2829	1415.295	1434.9318	1441.2038	1480.1368	1489.5234	1600.5436	1672.8085	1682.4647	1715.3301	3030.2627	3078.4326	3082.7179	3123.354	3130.9092	3167.1406	3443.1275
CC1=CC(=N)N=CN=C1	CC1=C[C]([NH])N=CN=C1	
InChI=1S/C6H7N3/c1-5-2-6(7)9-4-8-3-5/h2-4,7H,1H3	InChI=1S/C6H7N3/c1-5-2-6(7)9-4-8-3-5/h2-4,7H,1H3
