19
gdb 69772	3.03451	1.62382	1.44421	2.7557	73.35	-0.2371	0.0743	0.3114	971.4118	0.161184	-422.994324	-422.987202	-422.986258	-423.025298	30.094	
O	-0.052412238	 1.3520542273	 0.0871741643	-0.466405
C	 0.0248910892	-0.0463626601	-0.0089395365	 0.424986
C	-0.4960621033	-0.6622382172	-1.2853400647	-0.368665
C	-1.2944398089	-0.7649712536	 0.0052467221	-0.078224
C	-1.2756485137	-2.0191002041	 0.8653390843	 0.075395
C	-0.0713690983	-2.9452566909	 0.5955726651	-0.259498
C	 0.6235844769	-1.9541483764	 1.5465395186	 0.102769
C	 1.1352273816	-0.6931262015	 0.8282305015	-0.311295
O	-0.667913617	-1.6576662646	 2.149415211	-0.294461
H	 0.6681755762	 1.7232911454	-0.4339343716	 0.278807
H	-0.8724675907	 0.038863763	-2.0224314527	 0.112128
H	-0.0254893274	-1.5443695048	-1.703526797	 0.109782
H	-2.1824577559	-0.1472270241	 0.0816586469	 0.100956
H	-2.2628180436	-2.4686468187	 0.9917959062	 0.077258
H	-0.2158846923	-3.9158380717	 1.07203708	 0.111738
H	 0.3059242156	-3.082455671	-0.4184113358	 0.097921
H	 1.3447246981	-2.3349036816	 2.2745773912	 0.075234
H	 2.0287896801	-0.9267027903	 0.2341603457	 0.091614
H	 1.4222175013	 0.0393807349	 1.5887221913	 0.11996
175.8068	240.1255	296.7336	367.8622	389.8417	414.039	463.1223	481.8099	547.3537	593.	712.5785	789.4521	844.2998	859.595	878.5128	894.8983	902.2555	943.328	945.6354	991.2465	1011.3511	1020.2235	1048.6311	1054.8415	1093.1771	1104.8801	1126.1207	1171.4697	1223.207	1248.7529	1255.2327	1272.9003	1300.0125	1326.0985	1349.8135	1350.6894	1379.052	1406.5917	1470.6383	1483.4608	1504.8085	3020.9549	3072.1918	3081.2121	3088.2863	3090.7113	3134.9302	3139.7922	3173.6387	3224.5024	3791.8368
OC12CC1C1CC(C2)O1	O[C@]12C[C@H]1[C@H]1C[C@@H](C2)O1	
InChI=1S/C7H10O2/c8-7-2-4-1-6(9-4)5(7)3-7/h4-6,8H,1-3H2	InChI=1S/C7H10O2/c8-7-2-4-1-6(9-4)5(7)3-7/h4-6,8H,1-3H2/t4-,5-,6+,7+/m0/s1
