21
gdb 73560	2.72311	1.61036	1.29447	1.3133	83.98	-0.232	0.0201	0.2521	1074.4454	0.184624	-387.117349	-387.109249	-387.108305	-387.149646	32.611	
O	 0.0049979612	 1.4253480932	 0.05755153	-0.496063
C	 0.0808407222	-0.0112518172	 0.0063591437	 0.35193
C	 0.6326205291	-0.5573163914	 1.3343629225	-0.283733
C	-0.5627472511	-0.375754287	 2.3046515142	-0.197044
C	-1.8449400065	-0.6143207143	 1.4438129159	-0.342073
C	-1.3430126373	-0.5275062295	 0.0273611501	 0.391545
C	-1.7466073881	-0.9065941365	-1.1811857629	-0.2478
C	-0.6561198849	-0.7111025066	-2.2178005467	-0.247165
C	 0.6190190816	-0.5075518488	-1.3502834297	-0.290572
H	 0.9020002114	 1.7551711241	 0.1813695578	 0.271412
H	 0.8782416227	-1.6196495605	 1.2201689992	 0.097266
H	 1.5384742691	-0.0441724637	 1.6767922082	 0.081236
H	-0.5063397018	-1.0458691283	 3.1662136408	 0.09267
H	-0.5636102601	 0.6486139507	 2.6858055788	 0.110746
H	-2.2931697493	-1.5939173188	 1.6431857875	 0.109682
H	-2.6146388236	 0.1321071525	 1.6659728639	 0.116982
H	-2.7186847264	-1.3206201986	-1.4291791905	 0.087154
H	-0.5631780647	-1.57057679	-2.8914057732	 0.09783
H	-0.8606751846	 0.1598365045	-2.8546594906	 0.112636
H	 1.3312126398	 0.1952851668	-1.7922190579	 0.086323
H	 1.1306009412	-1.4674820609	-1.2238014211	 0.097036
90.1811	171.7718	212.5874	258.0026	301.7774	341.4368	374.8633	472.1674	557.5853	578.9783	654.6162	671.2476	732.5315	809.2533	828.976	863.0556	881.2201	907.3183	918.9931	952.8709	987.1959	994.586	1005.0963	1032.092	1085.7085	1117.8039	1156.8344	1163.9463	1203.5289	1212.5786	1231.2604	1238.1702	1270.4095	1300.1938	1314.88	1330.7062	1335.022	1344.6622	1396.3326	1472.0473	1474.1582	1481.9573	1492.8903	1498.6088	1739.1723	3019.1873	3029.9127	3040.0455	3044.4325	3058.8583	3062.0748	3070.6599	3073.6248	3095.8605	3111.0147	3181.8736	3793.8517
OC12CCCC1=CCC2	O[C@@]12CCCC1=CCC2	
InChI=1S/C8H12O/c9-8-5-1-3-7(8)4-2-6-8/h3,9H,1-2,4-6H2	InChI=1S/C8H12O/c9-8-5-1-3-7(8)4-2-6-8/h3,9H,1-2,4-6H2/t8-/m0/s1
