19
gdb 66086	2.25344	1.33732	1.1392	2.4019	76.41	-0.2519	-0.034	0.2178	1169.9036	0.156172	-423.036567	-423.027005	-423.026061	-423.07168	34.05	
C	-0.1722601594	 1.6803164721	 0.3728567145	-0.465006
C	-0.0994855095	 0.1721251161	 0.1217721765	 0.217864
C	 0.9576154797	-0.2511324612	-0.9351441665	-0.26011
C	 1.9378500145	-0.6578987645	 0.1961901321	-0.253856
C	 0.7366845902	-0.64650023	 1.1850303732	-0.116513
C	 0.9399726889	-0.1382459664	 2.5851035883	 0.138036
O	 0.1868565312	 0.5913388312	 3.1799666915	-0.247828
C	-1.4875828468	-0.3987363318	-0.0629557936	 0.096575
O	-1.803152641	-1.1857093307	-0.9196827153	-0.254172
H	 0.819448491	 2.0948281599	 0.5774275569	 0.120844
H	-0.5666448894	 2.1858280857	-0.5154006347	 0.12214
H	-0.80833701	 1.9152075299	 1.2289027446	 0.14901
H	 0.601331087	-1.1063278254	-1.5129039486	 0.131469
H	 1.2904536664	 0.5317766754	-1.6196473976	 0.105785
H	 2.4742578929	-1.6015762638	 0.0832451877	 0.112928
H	 2.662444936	 0.1287551316	 0.4256638307	 0.112559
H	 0.3348742203	-1.6648531835	 1.2812565259	 0.120454
H	 1.874977142	-0.5109813998	 3.067126321	 0.082129
H	-2.2262037439	-0.0518385947	 0.6960339334	 0.087692
54.9912	67.2294	108.4186	172.335	215.5937	247.5535	272.6481	306.5736	356.9663	374.7417	507.2338	617.1489	672.6394	737.6186	793.164	878.122	906.5603	928.6127	949.5734	963.2809	990.0024	1024.5596	1080.0207	1125.5712	1149.9077	1182.3205	1231.0555	1232.3766	1256.1219	1268.263	1293.8072	1332.6123	1407.5855	1414.9143	1425.4225	1483.9934	1491.757	1496.4044	1502.2906	1816.3888	1823.0419	2851.0489	2870.5898	3017.7726	3037.1093	3060.9052	3073.0296	3101.9151	3114.3952	3131.3917	3134.1335
CC1(CCC1C=O)C=O	C[C@]1(CC[C@H]1C=O)C=O	
InChI=1S/C7H10O2/c1-7(5-9)3-2-6(7)4-8/h4-6H,2-3H2,1H3	InChI=1S/C7H10O2/c1-7(5-9)3-2-6(7)4-8/h4-6H,2-3H2,1H3/t6-,7-/m0/s1
