16
gdb 127552	4.04371	1.10657	0.87837	3.6003	74.45	-0.2514	-0.0472	0.2043	1280.1177	0.124264	-434.099828	-434.090984	-434.09004	-434.135023	30.135	
C	-0.0430095723	 1.4209033741	 0.0426139492	-0.313207
N	-0.0235698719	-0.0290497036	 0.018079379	 0.160821
N	 0.0309486583	-0.710663659	-1.1287601834	-0.233643
C	 0.0768897097	-1.9794963571	-0.7346362403	-0.110729
C	 0.0498556719	-2.0184675395	 0.6716393356	 0.211372
N	-0.0124069006	-0.7548387718	 1.1202956773	-0.301743
C	 0.0764509478	-3.2037180447	 1.5560222931	 0.307037
C	 0.0293588071	-2.9590478994	 3.0491346315	-0.484238
O	 0.1344991998	-4.3161606588	 1.0727040037	-0.305893
H	 0.947316275	 1.8179529008	-0.1970167907	 0.157803
H	-0.7624255915	 1.7802691959	-0.6943251042	 0.163516
H	-0.3341203799	 1.7324877332	 1.0444440987	 0.166053
H	 0.1208809709	-2.7936351278	-1.4387339771	 0.151196
H	-0.8795369199	-2.4101121187	 3.3156496197	 0.147118
H	 0.0581121358	-3.9155645305	 3.5715414927	 0.137346
H	 0.8726927398	-2.333510723	 3.3587679552	 0.147192
30.1662	68.5333	119.5692	153.0661	155.8957	259.4664	355.2751	370.5803	515.1073	573.4293	627.0461	683.6398	732.6944	744.9747	914.2405	952.6702	1007.403	1032.6824	1047.8307	1072.4618	1137.4904	1148.9453	1233.6262	1323.276	1365.7195	1383.0119	1419.97	1448.4642	1452.3486	1460.6548	1469.9907	1480.4607	1501.5864	1537.6114	1782.1544	3047.083	3061.7949	3109.8292	3137.6472	3158.427	3181.0439	3287.8563
CN1N=CC(=N1)C(C)=O	Cn1ncc(n1)C(=O)C	
InChI=1S/C5H7N3O/c1-4(9)5-3-6-8(2)7-5/h3H,1-2H3	InChI=1S/C5H7N3O/c1-4(9)5-3-6-8(2)7-5/h3H,1-2H3
