19
gdb 60948	3.48917	1.04975	0.95407	2.6849	76.32	-0.2549	-0.0337	0.2212	1277.6184	0.158692	-422.99804	-422.989521	-422.988577	-423.031878	32.064	
O	 0.9270371987	 0.1243686779	-0.931704493	-0.437211
C	-0.0864423522	-0.0182985406	 0.0294405511	 0.019924
C	-1.1846153204	-0.9212362544	-0.4939636325	 0.138282
O	-1.1328291264	-1.4205403739	-1.5927038129	-0.266993
C	 0.4658937801	-0.5838994771	 1.3300575358	-0.019557
C	 1.2410016649	 0.2136087166	 2.3431601859	-0.067351
C	 0.6816447028	 1.6315895661	 2.5054882525	-0.234174
C	-0.7047122212	 1.0226715373	 2.8948004473	-0.230916
C	-0.1259788625	-0.3877369377	 2.7026028315	-0.084617
H	 0.6282554072	-0.3866571421	-1.700653137	 0.29254
H	-0.5641758063	 0.9561368475	 0.2290393492	 0.092491
H	-2.0353408732	-1.1042841151	 0.1930492857	 0.101605
H	 0.8831326446	-1.5796589389	 1.1920362066	 0.096779
H	 2.2289960687	-0.1059706843	 2.651297829	 0.091352
H	 1.1392176255	 2.1719431456	 3.3363090155	 0.107311
H	 0.7210380855	 2.2714340663	 1.6182391044	 0.110601
H	-0.9533987019	 1.2214610047	 3.9393289475	 0.108047
H	-1.5711319353	 1.2961942406	 2.2836358896	 0.09427
H	-0.3518088284	-1.2375907787	 3.3361871737	 0.087616
48.3604	97.9698	158.1279	195.306	282.1144	313.2618	369.8026	443.3228	488.2462	498.9338	738.5623	760.0197	775.4774	795.4807	801.0325	849.2943	931.3236	942.1045	962.5923	986.9225	1017.0558	1023.2008	1043.3405	1080.1039	1120.3756	1141.0095	1154.7632	1199.4055	1222.5754	1244.5338	1263.1284	1268.9151	1305.4746	1311.7481	1354.7904	1391.7142	1421.7355	1449.2703	1486.5682	1507.0174	1810.0136	2933.9679	2970.0694	3044.8763	3055.9684	3098.4422	3117.0639	3130.3264	3172.9632	3188.6822	3690.2252
OC(C=O)C1C2CCC12	O[C@@H](C=O)[C@H]1[C@H]2CC[C@@H]12	
InChI=1S/C7H10O2/c8-3-6(9)7-4-1-2-5(4)7/h3-7,9H,1-2H2	InChI=1S/C7H10O2/c8-3-6(9)7-4-1-2-5(4)7/h3-7,9H,1-2H2/t4-,5+,6-,7-/m0/s1
