18
gdb 52284	4.08405	0.73832	0.65431	2.6688	76.03	-0.2473	-0.0322	0.2151	1655.2542	0.146322	-439.114775	-439.105377	-439.104433	-439.151253	31.973	
O	-0.8939924977	 0.9204633266	 0.5152410414	-0.22977
C	 0.027572745	 0.9849639473	-0.2559951527	 0.156718
C	 1.2489663995	 1.8579867389	-0.0716535996	-0.278068
C	 1.3803422314	 2.8854832214	-1.2168520146	-0.186448
N	 2.5989814962	 3.649494495	-1.1571804279	-0.068504
C	 3.0709364624	 4.7124862042	-0.2621103426	-0.17519
C	 4.3516209431	 4.7894307253	-1.1422791201	-0.369874
C	 3.6993007929	 3.6694274201	-1.9854395053	 0.404989
O	 3.9722005461	 3.0335585364	-2.9692152308	-0.367791
H	 0.0302630183	 0.3869018615	-1.1973657055	 0.080923
H	 1.1840239846	 2.3512121905	 0.9019626388	 0.124337
H	 2.137404594	 1.2130940888	-0.0850080601	 0.132877
H	 1.3892291688	 2.3734944947	-2.18526914	 0.145946
H	 0.5149933632	 3.5610129719	-1.2061023221	 0.124922
H	 2.4414656813	 5.6091647401	-0.2709597644	 0.115463
H	 3.2309911295	 4.3919756279	 0.7725670718	 0.116229
H	 4.4969624177	 5.7276852364	-1.680078166	 0.137164
H	 5.2817432538	 4.500452673	-0.6502933805	 0.136077
40.994	56.5994	67.1157	79.626	185.2935	246.5986	269.3854	317.2301	496.7654	528.1496	565.0437	736.5797	765.1634	795.4785	821.5647	860.4473	944.0141	979.0058	1019.4795	1044.8412	1081.7429	1088.0263	1151.9378	1161.2237	1186.2167	1208.2544	1254.1036	1273.5098	1296.2462	1346.2474	1394.8413	1421.2934	1431.6553	1462.3412	1465.1311	1484.0491	1530.9717	1836.1374	1877.4597	2860.4064	3018.0154	3034.2777	3034.849	3078.3833	3081.0413	3090.5627	3111.1251	3148.3043
O=CCCN1CCC1=O	O=CCCN1CCC1=O	
InChI=1S/C6H9NO2/c8-5-1-3-7-4-2-6(7)9/h5H,1-4H2	InChI=1S/C6H9NO2/c8-5-1-3-7-4-2-6(7)9/h5H,1-4H2
