18
gdb 106455	2.2341	1.61713	1.12933	5.1547	74.31	-0.2291	0.0205	0.2497	1108.5843	0.147025	-439.028709	-439.020231	-439.019287	-439.062001	31.54	
O	-0.1697037605	 1.3959036924	 0.1392611218	-0.41366
C	-0.0492752372	-0.0118242135	 0.0050457414	-0.226679
C	-1.427679867	-0.5980724768	 0.0206798339	 0.340908
C	-2.6699781576	-0.2433243103	-0.8571728058	-0.255635
C	-3.1374782483	-1.2833770307	 0.2059139547	-0.021872
C	-1.8437969335	-2.0930873723	-0.0918127333	-0.269553
N	-2.3331072986	-0.545421281	 1.2431672488	-0.104809
C	-2.7729507689	 0.5853540472	 1.894369645	 0.126277
O	-3.9227042662	 0.7804195035	 2.2254788888	-0.321727
H	 0.7131731882	 1.7738626329	 0.1920892095	 0.296395
H	 0.4385417899	-0.2910794732	-0.9424815382	 0.101792
H	 0.5356956393	-0.4522160513	 0.8269100172	 0.105808
H	-3.0639310117	 0.7670460949	-0.747934708	 0.129733
H	-2.6475771038	-0.5724360434	-1.8996995307	 0.098244
H	-4.1404433618	-1.6450002124	 0.4164612384	 0.113736
H	-1.7675382608	-2.5438555407	-1.082374707	 0.10358
H	-1.4932798821	-2.7481754221	 0.7065263763	 0.111871
H	-1.9374695594	 1.2581362069	 2.162635737	 0.085592
94.5431	126.1805	132.1001	214.5196	239.6334	280.6364	326.323	404.7842	497.2582	566.0881	664.2303	678.3576	759.3285	812.0128	861.9416	919.8455	958.1857	966.8019	1006.0696	1027.0079	1038.3722	1071.8053	1083.2485	1104.1674	1142.8243	1155.8693	1211.0676	1212.9858	1220.2548	1257.3122	1271.1688	1323.4599	1331.3257	1416.5316	1469.3859	1481.4064	1504.166	1527.9962	1780.9716	2968.4705	2974.9234	3010.2267	3062.2495	3080.101	3150.0307	3156.9797	3162.2037	3831.3013
OCC12CC(C1)N2C=O	OC[C@@]12C[C@@H](C1)N2C=O	
InChI=1S/C6H9NO2/c8-3-6-1-5(2-6)7(6)4-9/h4-5,8H,1-3H2	InChI=1S/C6H9NO2/c8-3-6-1-5(2-6)7(6)4-9/h4-5,8H,1-3H2/t5-,6+
