21
gdb 101272	2.55784	0.96132	0.87878	1.6702	85.07	-0.2593	0.0205	0.2798	1467.8207	0.179098	-387.04288	-387.032458	-387.031514	-387.078813	37.915	
C	-0.2358506375	 1.528463876	-0.1383182122	-0.393245
C	-0.0866659669	 0.0069279129	-0.228677098	-0.170288
C	 1.0685973631	-0.4664497721	-1.1329747794	-0.007785
C	 2.4570239476	-0.0854274837	-0.5981904051	-0.405361
C	 0.9886486862	-1.9671011286	-1.3096123491	 0.075662
O	-0.0696122331	-2.4845045758	-2.1126844494	-0.254013
C	 1.2779450311	-2.6578396675	-2.5876326861	-0.16379
C	 1.6626532503	-1.9515398948	-3.7804243854	 0.341469
C	 2.013416002	-1.3934090037	-4.7859902119	-0.43309
H	 0.6354713128	 2.0022926497	 0.3244804983	 0.116616
H	-0.3669669717	 1.9706362101	-1.1322189801	 0.117378
H	-1.1106439416	 1.7971662533	 0.4618360549	 0.114215
H	 0.0494430219	-0.4109246803	 0.7786244942	 0.089737
H	-1.0165991913	-0.4228652483	-0.6182874143	 0.115349
H	 0.9360433095	-0.0149181846	-2.1235486889	 0.090146
H	 2.6384399394	-0.5354220512	 0.3853744542	 0.112577
H	 3.2452781703	-0.4276139394	-1.2759141263	 0.123581
H	 2.5586116358	 0.9975047871	-0.4911708537	 0.121598
H	 1.1728056941	-2.5483538944	-0.4013943776	 0.091137
H	 1.6304956714	-3.6880531557	-2.537429939	 0.114827
H	 2.3135647667	-0.8964614688	-5.6754416353	 0.203279
45.4156	78.2467	102.9895	164.2285	207.9681	219.849	234.486	265.7195	304.7909	400.7511	411.0779	488.0552	558.771	604.5356	626.4912	668.8965	770.7785	805.0077	837.5687	853.7749	937.3733	976.7383	983.7241	1002.3853	1048.5901	1074.9072	1129.9412	1159.3083	1185.0828	1190.178	1277.7479	1285.8679	1304.3215	1353.9236	1376.4964	1390.3834	1406.1613	1412.2628	1459.0614	1485.5173	1495.2989	1500.9506	1505.815	1509.6741	2238.0581	3011.5235	3028.9562	3033.4481	3040.0427	3061.6312	3069.7348	3097.408	3100.4272	3104.0669	3109.5841	3116.784	3502.0233
CCC(C)C1OC1C#C	CC[C@@H](C)[C@H]1O[C@H]1C#C	
InChI=1S/C8H12O/c1-4-6(3)8-7(5-2)9-8/h2,6-8H,4H2,1,3H3	InChI=1S/C8H12O/c1-4-6(3)8-7(5-2)9-8/h2,6-8H,4H2,1,3H3/t6-,7+,8-/m1/s1
