20
gdb 66216	4.33269	0.68464	0.65772	3.8934	80.61	-0.2637	0.0328	0.2965	1736.1114	0.168848	-403.146644	-403.136703	-403.135759	-403.182581	35.707	
C	 0.1141443514	 1.5963293605	 0.3725921223	-0.458892
C	-0.0180444624	 0.1242648286	 0.0505415362	 0.447682
C	 1.1504857487	-0.6446381234	-0.5177688364	-0.317153
C	 0.672018553	-0.897315161	 0.8999118735	-0.310355
O	-1.2999841737	-0.2799594477	-0.3699822159	-0.290299
C	-1.6764176708	 0.1645690707	-1.6556072609	-0.071975
C	-2.9935216887	-0.5499384197	-1.9862227446	-0.337586
C	-3.51851086	-0.1598767069	-3.290628978	 0.24671
N	-3.9185763806	 0.1604125528	-4.3261409766	-0.302634
H	 1.1044320472	 1.8102319279	 0.783797209	 0.122568
H	-0.0142664747	 2.2237042324	-0.5159334148	 0.122291
H	-0.635955249	 1.8935035106	 1.1129144638	 0.127458
H	 0.9336795365	-1.4109143301	-1.2535408851	 0.117466
H	 2.0915452637	-0.1264980903	-0.6672876156	 0.116406
H	 1.2823021072	-0.5519032563	 1.7270167432	 0.114742
H	 0.1329598014	-1.8194346793	 1.0826465991	 0.123908
H	-1.829205443	 1.2523207022	-1.6833374228	 0.114553
H	-0.909770799	-0.0855031718	-2.4023614558	 0.112479
H	-2.8353553529	-1.6331348	-1.9658587491	 0.159629
H	-3.7331446945	-0.3186446192	-1.2125917117	 0.163003
47.0375	56.8957	96.3095	143.0176	217.0208	233.0825	279.4606	322.835	395.7368	399.5754	407.3842	481.5616	572.0259	718.4036	776.1341	796.8345	860.2815	914.5066	931.915	946.8866	981.1528	1034.5653	1056.4977	1066.2741	1079.033	1094.4633	1112.2396	1137.9245	1188.912	1227.1958	1284.2261	1298.7339	1303.3056	1341.9104	1414.7327	1425.025	1452.4227	1471.2409	1486.1511	1491.1375	1506.79	1528.7213	2366.0522	3000.0489	3033.3511	3038.5691	3057.0848	3098.1677	3100.4469	3116.5966	3134.2718	3139.9772	3218.2081	3233.443
CC1(CC1)OCCC#N	CC1(CC1)OCCC#N	
InChI=1S/C7H11NO/c1-7(3-4-7)9-6-2-5-8/h2-4,6H2,1H3	InChI=1S/C7H11NO/c1-7(3-4-7)9-6-2-5-8/h2-4,6H2,1H3
