21
gdb 40671	3.97919	1.05735	0.96127	1.7062	82.93	-0.2552	0.0772	0.3324	1313.898	0.182429	-387.049938	-387.041372	-387.040428	-387.083583	32.958	
C	-0.3744776186	 0.9767157584	-0.4073109357	-0.264854
C	 1.0001191617	 1.0464351028	 0.2063663514	-0.264662
C	 0.342377805	-0.2932935206	-0.0304511922	-0.019499
C	-0.1047194948	-1.1084655202	 1.141633626	-0.07741
O	-0.9442270089	-0.4539664718	 2.1099829517	-0.292959
C	-1.4921011126	-1.5323350144	 1.3672740051	 0.458188
C	-2.6992612609	-1.4502392139	 0.429020841	-0.304371
C	-2.9845019917	-2.9437510064	 0.7748977324	-0.21485
C	-2.0026475246	-2.8378503097	 1.9814193191	-0.309842
H	-1.2070449538	 1.2747800791	 0.2187151407	 0.129969
H	-0.4856493149	 1.2080097596	-1.460766019	 0.106564
H	 1.8388542243	 1.3256474313	-0.4213632938	 0.109431
H	 1.0664257541	 1.3893920883	 1.2330580606	 0.124722
H	 0.7490568963	-0.8914995536	-0.8421787387	 0.085667
H	 0.6783107873	-1.7228803015	 1.5938356748	 0.086343
H	-3.4660449525	-0.7776722822	 0.825382639	 0.11129
H	-2.5100019191	-1.1941810248	-0.615279198	 0.109282
H	-4.0183564296	-3.2033180724	 1.0076844662	 0.104086
H	-2.6187006197	-3.6235485072	 0.0019984948	 0.106502
H	-1.2812540153	-3.6456303591	 2.1283025192	 0.102601
H	-2.5230973219	-2.6533393317	 2.9261059454	 0.113801
66.6688	98.5345	137.9546	161.2686	274.7883	301.2276	376.5525	481.4293	568.5951	590.2003	715.9788	760.0529	789.4772	797.1863	832.4277	855.807	879.163	911.7384	920.3855	928.3304	978.9622	1020.3038	1044.2556	1062.6407	1077.1016	1090.9878	1119.2699	1130.8657	1146.9014	1175.1533	1201.1944	1207.8359	1218.6538	1230.6248	1244.2543	1266.8357	1276.3978	1350.6656	1396.9162	1458.8869	1468.7463	1480.6763	1485.1937	1501.2214	1516.0887	3054.8403	3060.2468	3071.4094	3073.0842	3104.6985	3114.284	3131.5885	3134.856	3136.5898	3142.9516	3219.2236	3234.8034
C1CC1C1OC11CCC1	C1CC1[C@H]1OC21CCC2	
InChI=1S/C8H12O/c1-4-8(5-1)7(9-8)6-2-3-6/h6-7H,1-5H2	InChI=1S/C8H12O/c1-4-8(5-1)7(9-8)6-2-3-6/h6-7H,1-5H2/t7-/m1/s1
