20
gdb 69966	2.47708	1.8705	1.36344	2.2118	78.07	-0.211	0.066	0.277	1016.2987	0.170374	-403.08142	-403.07314	-403.072196	-403.113469	33.495	
C	 0.1395018432	 1.5322564054	 0.0667740527	-0.487538
C	-0.0409712347	 0.0468932334	-0.0434803092	 0.306672
C	-0.9529158911	-0.739078549	 0.8045411072	-0.299716
N	 0.5029677351	-0.9317983707	 0.9989707839	-0.184916
C	 1.0460301537	-1.7892603611	-0.1326377645	-0.04553
C	 0.1642636876	-2.905374987	-0.7550766691	-0.242144
C	-0.3383562497	-1.9041508245	-1.8482733159	-0.31394
C	 0.5427583226	-0.7891571659	-1.2082463348	 0.367335
O	 1.3511333056	-0.0002018885	-2.0268478409	-0.482471
H	 1.139464716	 1.8302846814	-0.2571569979	 0.137333
H	-0.5891129928	 2.0620317609	-0.5578209506	 0.119316
H	-0.0039096347	 1.8494899843	 1.103845868	 0.122682
H	-1.4063973503	-0.2239587629	 1.647184404	 0.117525
H	-1.5710291167	-1.5361230672	 0.4044932476	 0.111919
H	 2.1007253354	-2.004470887	 0.0409456422	 0.079688
H	 0.7591427253	-3.7260459631	-1.1632435757	 0.102195
H	-0.5969841058	-3.3377983087	-0.1022879019	 0.112629
H	 0.0036178397	-2.1633842974	-2.8556134059	 0.092925
H	-1.4136731913	-1.7113750559	-1.8951220252	 0.10539
H	 1.809462223	-0.5736692863	-2.649470294	 0.280645
149.7113	172.3515	243.0582	258.5784	268.2754	330.802	379.6636	412.1206	441.0245	509.5019	599.2804	623.3166	701.2003	726.1513	758.3458	821.7013	881.8275	891.5696	937.3179	944.0037	986.2969	1020.5173	1059.2111	1071.2401	1091.2075	1109.2263	1129.1769	1138.7052	1146.7587	1204.7482	1221.4078	1250.0654	1264.1815	1288.8626	1297.7898	1369.39	1396.8379	1414.6496	1472.9834	1475.5675	1484.4794	1496.9649	1520.3021	3034.5928	3045.1268	3067.2268	3095.3322	3100.3187	3105.3109	3118.8533	3120.3485	3126.8602	3196.8566	3814.5502
CC12CN1C1CCC21O	C[C@]12CN1[C@H]1CC[C@@]21O	
InChI=1S/C7H11NO/c1-6-4-8(6)5-2-3-7(5,6)9/h5,9H,2-4H2,1H3	InChI=1S/C7H11NO/c1-6-4-8(6)5-2-3-7(5,6)9/h5,9H,2-4H2,1H3/t5-,6+,7-,8?/m0/s1
