21
gdb 75206	3.45698	1.32574	1.14191	1.2866	83.97	-0.2251	0.0272	0.2523	1148.6381	0.18336	-387.099828	-387.091587	-387.090643	-387.131865	33.703	
C	-0.0092584767	 1.5015563576	 0.0447860307	-0.501898
C	-0.0008285667	 0.0033948074	-0.0147513182	 0.352754
C	-0.0073340143	-0.7112166327	-1.1436723529	-0.172374
C	-0.003672113	-2.2213085906	-1.0756215966	-0.317147
C	 0.0147996338	-2.6949691304	 0.3875416684	 0.416868
O	-0.0537849314	-4.0928750003	 0.5110448879	-0.490479
C	-1.0458106064	-1.9222024869	 1.2036419488	-0.250605
C	 0.0164532554	-0.7818043032	 1.2870044549	-0.119954
C	 1.0966147937	-1.9022248731	 1.1837593594	-0.276361
H	 0.8712465872	 1.8815057813	 0.5794365703	 0.123793
H	-0.019933255	 1.9467860851	-0.9538938758	 0.119443
H	-0.8855533143	 1.8710613061	 0.5934447734	 0.124422
H	-0.020257786	-0.2353560531	-2.1205771519	 0.078739
H	-0.8855014555	-2.6427404012	-1.5782859675	 0.109466
H	 0.8734430351	-2.6279569891	-1.6050576275	 0.08932
H	 0.5781413181	-4.483219498	-0.1028612007	 0.272522
H	-2.0049178362	-1.6990532414	 0.7301914394	 0.093132
H	-1.2010533729	-2.4065767841	 2.1709857549	 0.102728
H	 0.0175037332	-0.1430185935	 2.1709846154	 0.060494
H	 1.2806695444	-2.3837496332	 2.1476151812	 0.098576
H	 2.0408542674	-1.6564063264	 0.6904507763	 0.086562
135.4133	201.5442	244.3538	283.5458	303.4486	339.9494	364.2528	414.7553	421.9467	471.9272	582.8793	624.0311	667.3759	763.1654	812.9256	851.8582	881.36	901.9088	939.6284	947.314	957.3409	1007.9795	1045.7465	1052.4383	1065.1926	1082.2307	1116.6177	1149.5668	1159.225	1179.286	1216.2998	1234.6573	1248.8316	1261.8934	1305.551	1349.3574	1370.6	1387.9227	1413.5977	1469.9652	1476.6159	1478.1079	1489.6354	1507.1245	1727.6942	2975.1824	3011.8602	3022.5941	3051.023	3056.5758	3060.1137	3098.1996	3108.7874	3115.5512	3121.581	3160.1264	3796.9691
CC1=CCC2(O)CC1C2	CC1=CC[C@]2(O)C[C@H]1C2	
InChI=1S/C8H12O/c1-6-2-3-8(9)4-7(6)5-8/h2,7,9H,3-5H2,1H3	InChI=1S/C8H12O/c1-6-2-3-8(9)4-7(6)5-8/h2,7,9H,3-5H2,1H3/t7-,8-
