18
gdb 77820	2.35897	1.51286	1.30262	4.5215	72.06	-0.2372	0.0271	0.2644	1061.5004	0.147977	-439.115124	-439.106565	-439.105621	-439.147919	32.733	
C	-0.1136964784	 1.5371033117	 0.0058336747	-0.424458
C	 0.065155364	 0.0349394803	 0.0460220499	-0.07984
C	 1.3801191618	-0.6954503568	-0.2489198651	-0.236616
C	 2.660766062	 0.0896113274	-0.1388766583	 0.417933
O	 3.4931437081	 0.2779530141	-0.9983648508	-0.383678
N	 2.7246605551	 0.5589663148	 1.1547358759	-0.313734
C	 1.7201143057	 0.0287062317	 2.0585812002	-0.247672
C	 0.7654991024	-0.731714312	 1.129390713	 0.365216
O	 0.2182202871	-1.9106941161	 1.6308054264	-0.462297
H	 0.754457639	 2.0674465221	 0.4035036137	 0.135521
H	-0.266585765	 1.877332988	-1.0233256371	 0.1318
H	-0.9912521252	 1.8382826433	 0.5888992985	 0.114601
H	-0.7790470584	-0.5222655321	-0.3555902092	 0.098406
H	 1.365056511	-1.5401993386	-0.9242199714	 0.117423
H	 3.5434206718	 1.0553032424	 1.4682123049	 0.251325
H	 2.1432582636	-0.6836507948	 2.778355877	 0.122211
H	 1.2180424955	 0.8273272992	 2.620620937	 0.106469
H	-0.6131436704	-1.6970537946	 2.0677062008	 0.287388
107.1031	183.0141	199.8521	213.3897	225.2675	282.3246	349.7162	435.3225	443.2695	499.438	528.9187	564.8927	664.1902	705.1497	777.9074	799.2563	893.1899	936.2799	973.7124	1001.4041	1047.9487	1068.1255	1080.7762	1124.4992	1128.5506	1190.3196	1216.2219	1236.7551	1297.8925	1314.6953	1336.9265	1346.1721	1418.5238	1434.4306	1467.1584	1499.0384	1503.2857	1528.1329	1828.2119	3008.3619	3036.7627	3044.1281	3094.9077	3120.8957	3137.1999	3214.	3643.9969	3802.6668
CC1C2C(=O)NCC12O	C[C@H]1[C@H]2C(=O)NC[C@@]12O	
InChI=1S/C6H9NO2/c1-3-4-5(8)7-2-6(3,4)9/h3-4,9H,2H2,1H3,(H,7,8)	InChI=1S/C6H9NO2/c1-3-4-5(8)7-2-6(3,4)9/h3-4,9H,2H2,1H3,(H,7,8)/t3-,4-,6+/m0/s1
