19
gdb 92033	2.84446	1.60003	1.21189	2.4242	73.94	-0.2327	0.0614	0.2941	1045.4296	0.162693	-419.157864	-419.150456	-419.149511	-419.189452	30.351	
O	-0.0128976853	 1.4252819827	 0.0306861115	-0.439107
C	 0.0386073792	 0.0042538389	-0.0354234338	 0.134297
C	 0.8612497865	-0.5686280548	 1.1362559339	-0.23884
C	 0.8400215034	-2.0903901438	 1.1968372166	-0.060336
N	 0.0208541013	-2.6977253334	 2.2670508895	-0.322433
C	-0.4331736396	-2.7856619426	 0.8703258306	-0.019799
C	-1.6079160653	-1.9578016564	 0.4196650105	-0.035011
N	-1.995900118	-0.7830339315	 1.2182665696	-0.334638
C	-1.3596428769	-0.5824806021	-0.0963908801	-0.062428
H	-0.4923142958	 1.6421955351	 0.8392941478	 0.282336
H	 0.5435284297	-0.2132696841	-0.9853191059	 0.083711
H	 1.8851650471	-0.1939894427	 1.0522493028	 0.099795
H	 0.4381037154	-0.1829211666	 2.0682769332	 0.124867
H	 1.7633511655	-2.5984404462	 0.9289580039	 0.082283
H	 0.4239587398	-3.5887545047	 2.5466399003	 0.228071
H	-0.3678700589	-3.7526306534	 0.3759609927	 0.078115
H	-2.4122249535	-2.5219757677	-0.0468932061	 0.080082
H	-3.0007385989	-0.6472111215	 1.1566924552	 0.233708
H	-1.9705646959	-0.2165392652	-0.9184989523	 0.085325
116.6371	202.4577	251.7132	341.5921	387.5575	401.6593	414.205	486.076	572.5407	606.9096	685.354	754.1542	821.5236	851.6162	852.8943	899.8864	915.5301	930.1055	973.3039	986.1994	1012.6039	1053.6084	1071.0659	1102.9637	1119.6951	1152.5398	1173.7329	1189.4779	1205.1347	1236.7305	1250.2578	1269.4396	1286.3848	1333.7365	1370.4717	1385.1033	1405.0062	1435.5935	1455.4879	1464.0272	1476.0564	3031.8098	3057.8482	3105.3157	3117.177	3128.7982	3133.7517	3140.3094	3495.6995	3513.4641	3788.5745
OC1CC2NC2C2NC12	O[C@H]1C[C@H]2N[C@H]2[C@H]2N[C@@H]12	
InChI=1S/C6H10N2O/c9-3-1-2-4(7-2)6-5(3)8-6/h2-9H,1H2	InChI=1S/C6H10N2O/c9-3-1-2-4(7-2)6-5(3)8-6/h2-9H,1H2/t2-,3+,4-,5+,6-/m1/s1
