21
gdb 91192	3.02592	1.4759	1.13244	1.0203	84.3	-0.239	0.021	0.2599	1142.135	0.184141	-387.08916	-387.081062	-387.080117	-387.121626	32.057	
C	-0.0541017967	 1.595219023	-0.0396073245	-0.407779
C	 0.0625240397	 0.0809395767	 0.0179325027	 0.021726
C	 1.031937949	-0.6530782627	-0.9548655232	-0.258428
C	 1.3942549776	-1.6256517369	 0.2161586264	-0.044557
C	 2.8103956307	-2.018913159	 0.4805766908	-0.081613
C	 3.4942850717	-1.4611079947	 1.4777562991	-0.078149
C	 2.8975737726	-0.3628414441	 2.3191738503	-0.118775
O	 1.8175651224	 0.2965674116	 1.6823384524	-0.26462
C	 0.8137968002	-0.5800925948	 1.2055792567	 0.095939
H	 0.922021626	 2.0642437079	 0.1049677258	 0.130579
H	-0.4514282526	 1.9138116717	-1.0096452807	 0.107716
H	-0.7269876416	 1.9744939124	 0.7373778976	 0.111542
H	-0.9305326873	-0.3780759134	-0.0501330195	 0.070185
H	 0.606038219	-1.0894971761	-1.8612821663	 0.092489
H	 1.8842158294	-0.0247075395	-1.2256737955	 0.107052
H	 0.7502422732	-2.5115563371	 0.176067276	 0.07687
H	 3.2629603862	-2.7817598295	-0.1486956384	 0.088042
H	 4.5101677926	-1.7663128269	 1.7132602786	 0.090898
H	 2.5850911	-0.7583712262	 3.3033511691	 0.096025
H	 3.6448756668	 0.4141704084	 2.5164150458	 0.114142
H	 0.2130026713	-0.9608365607	 2.045131277	 0.050719
91.5255	166.167	192.9791	225.8904	277.8203	342.7661	442.773	464.7919	526.8167	529.0748	651.3396	713.7023	765.4786	839.8317	852.4132	898.9744	926.2911	935.8897	949.4338	990.9085	999.3423	1028.0369	1050.3401	1088.9887	1108.455	1132.5507	1138.4748	1177.1346	1206.9893	1236.3852	1257.654	1265.8776	1278.5198	1296.227	1336.6294	1357.3044	1381.12	1398.8437	1408.5489	1415.7729	1484.2166	1488.6919	1490.6495	1500.534	1716.4409	2935.7148	2981.3872	3031.0347	3037.4936	3042.7726	3056.0075	3061.5462	3091.5964	3118.076	3124.5548	3146.1158	3173.5233
CC1CC2C=CCOC12	C[C@H]1C[C@H]2C=CCO[C@@H]12	
InChI=1S/C8H12O/c1-6-5-7-3-2-4-9-8(6)7/h2-3,6-8H,4-5H2,1H3	InChI=1S/C8H12O/c1-6-5-7-3-2-4-9-8(6)7/h2-3,6-8H,4-5H2,1H3/t6-,7+,8-/m0/s1
