16
gdb 28334	4.82094	1.22511	0.99336	2.171	71.96	-0.1719	0.0548	0.2266	1134.2374	0.126296	-437.905065	-437.897502	-437.896558	-437.937037	28.855	
O	 0.0140601422	 1.3429926706	-0.1055430003	-0.446072
C	 0.0513037679	-0.0198680862	-0.0500231285	 0.352349
C	 0.1250376059	-0.8271173966	-1.1602484258	-0.251279
N	 0.2484094679	-2.1298963111	-0.6743433416	-0.042441
C	-0.0018018263	-3.4666316703	-1.1702052454	-0.1986
C	 0.3172666645	-4.2676109735	 0.1169550272	-0.101559
O	 0.0851076983	-3.3580706447	 1.2136018021	-0.276872
C	 0.1666553472	-2.1110987561	 0.6817809086	 0.45967
C	 0.0660751646	-0.8249121822	 1.1426527983	-0.503905
H	-0.0595853125	 1.680675957	 0.7911885777	 0.29627
H	 0.2117112802	-0.5863471438	-2.2047737419	 0.115141
H	-1.0439192482	-3.5920583847	-1.4946201138	 0.12231
H	 0.6587030384	-3.7413663545	-1.9971572661	 0.126097
H	-0.3194715936	-5.141766071	 0.2587492106	 0.128235
H	 1.369458405	-4.5751024513	 0.1298097605	 0.122572
H	 0.0144198986	-0.4917917917	 2.1663565884	 0.098081
113.2195	176.9663	191.2928	251.5556	311.2611	331.5346	506.8209	543.9242	590.5898	648.2753	663.4921	701.3287	709.0104	749.3443	845.7502	887.5897	950.3316	993.4126	1020.7318	1116.9641	1141.077	1159.297	1172.9963	1208.9638	1241.2423	1265.9164	1313.9261	1375.2349	1382.0111	1432.6639	1491.5373	1513.3766	1534.3888	1590.087	1657.9622	3008.1817	3037.9944	3085.4705	3127.2201	3258.2471	3287.979	3848.4219
OC1=CN2CCOC2=C1	Oc1cn2CCOc2c1	
InChI=1S/C6H7NO2/c8-5-3-6-7(4-5)1-2-9-6/h3-4,8H,1-2H2	InChI=1S/C6H7NO2/c8-5-3-6-7(4-5)1-2-9-6/h3-4,8H,1-2H2
