20
gdb 9402	6.35697	0.73942	0.69538	2.2294	73.42	-0.2721	-0.0363	0.2358	1635.7153	0.174455	-386.159165	-386.149402	-386.148458	-386.194476	34.192	
C	-0.054684033	 1.5642977372	 0.0915720263	-0.379777
C	-0.0367403458	 0.0355331344	 0.0085080227	-0.169015
C	 0.7103151164	-0.4868464794	-1.2228294547	-0.158352
C	 0.7319681957	-2.0158820234	-1.3101930416	-0.207518
C	 1.5394334317	-2.520892263	-2.5203161466	 0.046983
O	 2.8762443469	-2.102052114	-2.4618098088	-0.433005
C	 1.4660673724	-4.0300578474	-2.611730783	 0.136595
O	 2.4577031289	-4.71953743	-2.6130522264	-0.261765
H	 0.9624362873	 1.9688208471	 0.1357109715	 0.117414
H	-0.5458483663	 2.0028105046	-0.7842698375	 0.113672
H	-0.5901808546	 1.9099444228	 0.9812397903	 0.11165
H	 0.4287007744	-0.3753232789	 0.9141742272	 0.097154
H	-1.0674310977	-0.3440247006	-0.000721268	 0.09175
H	 0.2470446555	-0.0797011933	-2.1326970886	 0.090477
H	 1.7436932681	-0.1225813458	-1.2136759665	 0.122429
H	 1.1781015445	-2.4353671196	-0.3993447333	 0.107904
H	-0.2937481139	-2.4039716722	-1.3766227287	 0.092942
H	 1.0572952289	-2.1310276509	-3.4375408103	 0.090322
H	 3.4054584747	-2.9146051561	-2.4967251427	 0.293838
H	 0.4494033058	-4.4704781815	-2.6715618512	 0.096304
59.744	79.1616	88.3186	139.3483	166.9403	242.4509	284.41	295.6946	332.0015	416.4554	441.3722	504.6394	737.5895	749.6898	796.2243	841.0698	899.0141	914.5141	969.8049	1009.4537	1037.0402	1070.5871	1111.1201	1145.9216	1183.9152	1239.8778	1251.3316	1288.7897	1313.596	1330.8264	1346.9805	1368.4646	1394.1653	1406.2015	1414.1981	1439.3033	1472.8495	1486.8424	1498.618	1499.4421	1512.5352	1811.9653	2917.9383	2934.5675	3008.1652	3010.2224	3017.0627	3030.155	3040.9057	3054.1642	3079.8492	3097.3565	3102.8638	3691.3158
CCCCC(O)C=O	CCCC[C@@H](O)C=O	
InChI=1S/C6H12O2/c1-2-3-4-6(8)5-7/h5-6,8H,2-4H2,1H3	InChI=1S/C6H12O2/c1-2-3-4-6(8)5-7/h5-6,8H,2-4H2,1H3/t6-/m1/s1
