16
gdb 25735	2.71116	1.56475	0.99953	3.3314	77.18	-0.1869	-0.0083	0.1786	1122.2692	0.127029	-434.141591	-434.13341	-434.132466	-434.174001	31.936	
N	-0.068249531	 1.3774126188	 0.040372025	-0.560461
C	 0.036976323	-0.0106787995	-0.0498349041	 0.304624
O	 1.1282577496	-0.5560062799	-0.1998970384	-0.395317
C	-1.2011750143	-0.753201517	-0.0090518908	 0.160487
C	-1.349838697	-2.1384039807	 0.080876038	 0.253276
N	-0.3133742966	-3.0358417406	 0.2273574736	-0.60876
C	-2.7461305297	-2.4137263315	 0.0872699642	-0.228497
C	-3.4021443693	-1.205248495	-0.0087914849	-0.061886
N	-2.48415717	-0.2006562019	-0.0292868136	-0.353444
H	 0.8329694526	 1.8212725281	 0.1545345133	 0.253363
H	-0.7721812103	 1.7350641747	 0.6705976565	 0.244741
H	 0.5784935655	-2.6466237487	-0.0548985974	 0.269865
H	-0.4905649642	-3.9665255095	-0.1176831637	 0.242333
H	-3.2100866362	-3.3848428536	 0.1685139915	 0.094679
H	-4.4585451209	-0.9925952371	-0.0631350409	 0.124624
H	-2.6786615112	 0.7367600133	-0.3367542284	 0.260375
107.951	160.9517	184.9439	304.437	330.0321	384.4002	395.3921	448.0526	479.7314	516.8281	579.1921	633.0193	634.2899	675.6998	709.1331	728.04	744.7526	804.1883	823.4476	909.0944	1041.1982	1091.2356	1095.133	1140.8935	1184.646	1257.2106	1333.7259	1384.8545	1461.416	1497.2608	1527.114	1594.1198	1619.0936	1653.2003	1737.9186	3243.7626	3263.8498	3530.5541	3551.5846	3659.9109	3663.5484	3673.3506
NC(=O)C1=C(N)C=CN1	NC(=O)c1c(N)cc[nH]1	
InChI=1S/C5H7N3O/c6-3-1-2-8-4(3)5(7)9/h1-2,8H,6H2,(H2,7,9)	InChI=1S/C5H7N3O/c6-3-1-2-8-4(3)5(7)9/h1-2,8H,6H2,(H2,7,9)
