15
gdb 76028	2.65683	1.2316	1.08718	3.8963	72.36	-0.2585	-0.0154	0.2431	1135.0693	0.112955	-412.984272	-412.975229	-412.974285	-413.017901	32.87	
N	-0.1460525164	 1.4740124527	 0.0032085148	-0.507891
C	-0.0627575131	 0.0472132985	-0.0027315116	-0.055619
C	-0.481559768	-0.6879343607	 1.2560605617	-0.265878
C	-0.9508153367	 0.0425033149	 2.3937318584	 0.307562
N	-1.3413554748	 0.6237630174	 3.3148394877	-0.330649
C	-1.3923317366	-0.699313931	-0.0194611734	 0.135253
N	-2.5860102839	 0.0677347495	-0.1076225954	-0.557676
C	-1.41953533	-1.9706460038	-0.7080923082	 0.293527
N	-1.4180178398	-2.997339411	-1.2399718651	-0.333224
H	 0.472212427	 1.8856606267	 0.6933074615	 0.260308
H	 0.0777926555	 1.8605941811	-0.9063108194	 0.256379
H	 0.7465937113	-0.4351963252	-0.5488711073	 0.12235
H	 0.0550249875	-1.6018197912	 1.4854519044	 0.157346
H	-3.2883681434	-0.2377853815	 0.5569999469	 0.255174
H	-2.3633025087	 1.0448463836	 0.062470835	 0.263041
105.2518	120.5883	156.7005	171.4258	200.6881	281.4014	342.1926	367.6509	395.234	485.1557	499.0389	572.8498	616.5448	625.3101	709.1373	748.3131	846.794	852.4714	869.909	996.1188	1015.5509	1079.2795	1121.4818	1210.8573	1258.8035	1302.5312	1325.5297	1360.7584	1436.6684	1641.2836	1653.8245	2352.3114	2356.2762	3113.5144	3181.5654	3495.7805	3521.3943	3586.0979	3605.1604
NC1C(C#N)C1(N)C#N	N[C@H]1[C@@H](C#N)[C@]1(N)C#N	
InChI=1S/C5H6N4/c6-1-3-4(8)5(3,9)2-7/h3-4H,8-9H2	InChI=1S/C5H6N4/c6-1-3-4(8)5(3,9)2-7/h3-4H,8-9H2/t3-,4+,5-/m1/s1
