17
gdb 19105	4.51256	2.15055	2.10559	2.0135	69.07	-0.2266	0.0782	0.3049	733.8042	0.144227	-326.642375	-326.636435	-326.635491	-326.672076	24.536	
C	-0.0634162434	 1.6233289625	 0.0127334819	-0.419065
C	 0.0282110777	 0.106738116	 0.0173769748	 0.020122
C	 1.0691503887	-0.627992444	-0.8745587266	-0.089305
C	 2.4680157434	-0.2542594484	-0.3402052525	-0.043125
C	 2.2267174868	-0.2643154134	 1.1307769555	-0.043126
C	 0.7312745252	-0.6420986577	 1.185225918	-0.089302
C	 1.1832742381	-1.7619510794	 0.1940476726	 0.016709
N	 2.6791207872	-1.5202838275	 0.4410863225	-0.182421
H	 0.9207679829	 2.0744520719	 0.1772625356	 0.119454
H	-0.4473470041	 1.9946169557	-0.9437461967	 0.115727
H	-0.733594907	 1.982666179	 0.8013070097	 0.115727
H	-0.9577746254	-0.3468994588	-0.1474621513	 0.07249
H	 0.932340769	-0.7888461516	-1.9421147595	 0.070021
H	 3.2868263228	 0.2556738035	-0.8325078653	 0.09349
H	 2.8442296036	 0.2372335391	 1.8656047999	 0.093489
H	 0.2609488871	-0.816877638	 2.1508930277	 0.070021
H	 0.7859774274	-2.7717049689	 0.1219618636	 0.079091
193.3912	212.0203	260.9778	538.1874	578.6322	689.6308	753.1599	788.4666	799.6107	813.3888	840.5975	849.1363	883.183	912.4107	923.386	926.0008	993.4877	1029.0373	1037.222	1049.1101	1063.3825	1096.8016	1134.2794	1143.7069	1173.2284	1189.2965	1213.4018	1225.0527	1241.2668	1276.0418	1321.8543	1340.0598	1381.5596	1405.5148	1492.685	1497.2424	3026.8917	3029.6222	3093.2987	3100.3904	3131.4422	3134.508	3146.9529	3183.6693	3195.364
CC1C2C3C4C1C2N34	C[C@H]1[C@H]2[C@H]3[C@H]4[C@@H]1[C@@H]2N34	
InChI=1S/C7H9N/c1-2-3-5-4(2)7-6(3)8(5)7/h2-7H,1H3	InChI=1S/C7H9N/c1-2-3-5-4(2)7-6(3)8(5)7/h2-7H,1H3/t2-,3+,4-,5+,6-,7+,8?
