21
gdb 107341	3.3535	1.2657	1.06265	1.6704	83.34	-0.2353	0.004	0.2393	1215.3624	0.183302	-387.098619	-387.090059	-387.089114	-387.131703	33.38	
C	-0.4850299117	 1.3894378341	 0.1221888152	-0.38216
C	 0.2677208492	 0.0732787999	-0.1149285041	-0.260168
C	 0.9281156524	-0.4712371142	 1.138105107	 0.40648
C	 2.1263054979	 0.2904597267	 1.6830306404	-0.286367
C	 2.6624491826	-0.2911719265	 3.0059411367	-0.263505
C	 2.7967968633	-1.79052334	 2.9573745179	-0.087143
C	 1.9686292948	-2.540390294	 2.2285407561	-0.03464
C	 0.8799010508	-1.9184822456	 1.4357477992	-0.060089
O	 0.0173801888	-0.9746914675	 2.1228334398	-0.301833
H	 0.1895075622	 2.2015121782	 0.4110904755	 0.116695
H	-1.0092691806	 1.7044238965	-0.7848540017	 0.112662
H	-1.2257599802	 1.2652068179	 0.9176884663	 0.134604
H	-0.4348149998	-0.6795079514	-0.4887339808	 0.102292
H	 1.0309749508	 0.2089528529	-0.8919165549	 0.097328
H	 2.9136399328	 0.2552156481	 0.9182879209	 0.104958
H	 1.8733894295	 1.3465107105	 1.824373289	 0.105974
H	 3.6255283539	 0.1723898823	 3.2445945061	 0.099178
H	 1.9788532335	-0.0189775261	 3.81958093	 0.131724
H	 3.5790111958	-2.2554765602	 3.5509324332	 0.093151
H	 2.0639763214	-3.6213613301	 2.1954993377	 0.087232
H	 0.3399508227	-2.5680465014	 0.7486580804	 0.083629
71.1698	138.2219	198.9098	207.1632	256.0774	327.0896	385.3888	391.4075	462.1853	534.0941	619.1365	674.6463	706.8828	752.4143	778.1413	836.9385	881.8234	892.3684	962.4891	969.9618	982.6467	988.7623	1036.8753	1057.9264	1072.4052	1101.3954	1106.9766	1182.8502	1210.3575	1223.1963	1264.272	1289.9922	1329.9557	1349.8204	1371.2395	1388.5943	1406.6856	1418.4052	1456.1807	1473.2872	1476.7487	1487.4678	1499.8854	1507.9847	1707.9279	3021.8171	3028.3941	3031.546	3040.638	3067.3111	3068.5121	3075.0631	3108.4461	3116.7498	3120.4147	3159.3492	3183.5878
CCC12CCC=CC1O2	CC[C@]12CCC=C[C@H]1O2	
InChI=1S/C8H12O/c1-2-8-6-4-3-5-7(8)9-8/h3,5,7H,2,4,6H2,1H3	InChI=1S/C8H12O/c1-2-8-6-4-3-5-7(8)9-8/h3,5,7H,2,4,6H2,1H3/t7-,8+/m1/s1
