21
gdb 77380	2.52715	1.64663	1.32889	1.6492	82.01	-0.2213	0.0879	0.3092	1086.1052	0.180515	-387.044052	-387.035068	-387.034124	-387.07688	35.101	
C	 0.0287122456	 1.597434752	 0.0752035252	-0.425832
C	 0.0510475374	 0.0788085017	-0.020122737	-0.061798
C	 0.7652312083	-0.6197359681	-1.1858656136	 0.283761
C	 0.3674571753	-0.6589154904	-2.6308624441	-0.512675
C	 2.2204922344	-0.7535949359	-0.6959262957	 0.048672
O	 2.3347690375	-0.1246723776	 0.5783975201	-0.32769
C	 1.0332877644	-0.7240466928	 0.8929521148	 0.410803
C	 0.814810792	-0.9700462004	 2.3529090684	-0.511737
C	 1.2117688268	-1.7669278582	-0.2791598518	-0.261534
H	 1.0466294297	 1.9938257637	 0.0514791142	 0.132825
H	-0.5347117327	 2.0355467683	-0.7559407166	 0.109283
H	-0.4479649252	 1.9302132258	 1.0042813324	 0.109094
H	-0.9547402352	-0.3458609166	 0.0855986354	 0.06582
H	 0.4081417116	 0.3392542363	-3.081960386	 0.124613
H	 1.0350737741	-1.3078265791	-3.2087803992	 0.118343
H	-0.6523838031	-1.0408972763	-2.7565557583	 0.118924
H	 3.0889288185	-0.8048537215	-1.3402443238	 0.101605
H	 0.8326982503	-0.0229473859	 2.9031140035	 0.132887
H	-0.155794356	-1.4470840873	 2.5203987861	 0.121296
H	 1.5981371249	-1.6156673673	 2.7600528419	 0.130849
H	 1.1452765711	-2.8440634405	-0.3540370358	 0.092491
172.0503	186.4744	193.4579	197.2142	204.2238	229.1213	258.5125	343.6755	368.1868	553.9552	577.7158	585.5132	667.3831	730.831	759.161	818.4165	821.0867	841.0847	887.1211	896.062	970.7625	1005.0654	1023.6186	1038.4041	1060.6	1114.6746	1118.972	1131.0923	1142.9937	1161.5563	1192.6912	1255.4007	1286.4912	1335.605	1368.9798	1399.6925	1406.6813	1415.6241	1435.9832	1477.2198	1486.2617	1489.1393	1494.155	1498.5237	1503.677	3020.2165	3030.0638	3035.4221	3038.8777	3080.7877	3087.1427	3089.2536	3106.2522	3116.178	3125.8242	3193.7958	3207.8494
CC1C2(C)C3OC1(C)C23	C[C@H]1[C@@]2(C)[C@H]3O[C@]1(C)[C@@H]23	
InChI=1S/C8H12O/c1-4-7(2)5-6(7)9-8(4,5)3/h4-6H,1-3H3	InChI=1S/C8H12O/c1-4-7(2)5-6(7)9-8(4,5)3/h4-6H,1-3H3/t4-,5+,6-,7+,8-/m0/s1
