19
gdb 91640	2.84243	1.73352	1.51509	2.925	72.39	-0.2496	0.0703	0.3199	941.4397	0.162259	-423.016161	-423.009264	-423.00832	-423.047084	29.02	
O	-0.0284747654	 1.4249709281	-0.0840006048	-0.44248
C	 0.0003660019	 0.0093329702	 0.0154559281	 0.145469
C	 0.6312294352	-0.5419195051	 1.3444884902	-0.256894
C	-0.5224236986	-1.3742661529	 1.9680839298	-0.065347
C	-1.2071019465	-1.9253524529	 0.6963511694	-0.229063
C	-1.4480654509	-0.5387007619	 0.0627082224	-0.093367
C	-2.128639046	 0.2167061509	 1.2094544535	 0.072147
O	-2.9065750203	-0.5962892881	 2.1033875871	-0.271551
C	-1.5390688555	-0.3297185301	 2.4364003059	 0.054066
H	 0.8785742573	 1.7445683033	-0.0945945915	 0.283334
H	 0.5229104864	-0.4150405433	-0.8537752921	 0.067026
H	 1.5071834547	-1.1659193876	 1.1442741932	 0.095197
H	 0.9464661055	 0.286301399	 1.9878630234	 0.096207
H	-0.2109535168	-2.1066335132	 2.714528913	 0.063485
H	-0.5375278553	-2.5495780536	 0.0983512411	 0.089285
H	-2.1287440045	-2.4668692812	 0.9007749628	 0.121776
H	-1.963399682	-0.5139088758	-0.8980341446	 0.067337
H	-2.4477085076	 1.2458044077	 1.1012813531	 0.109399
H	-1.3708070217	 0.2569388265	 3.3350836099	 0.093972
145.0576	266.9847	275.7696	352.5809	416.5466	444.0728	483.854	561.0768	588.398	755.7441	790.681	810.7431	839.7413	868.2848	899.1607	917.2246	931.0712	946.9716	963.7841	990.4788	1001.8587	1019.7171	1062.3974	1082.3096	1114.4475	1148.7104	1179.0945	1184.4009	1214.1345	1232.9324	1253.3287	1289.1892	1298.0001	1306.4649	1330.5367	1341.3763	1358.7	1418.3834	1425.6489	1478.8143	1496.373	2988.6363	3044.8415	3071.8913	3090.7047	3100.5992	3110.2034	3152.8459	3155.3465	3197.3453	3826.0953
OC1CC2CC1C1OC21	O[C@H]1C[C@@H]2C[C@H]1[C@H]1O[C@@H]21	
InChI=1S/C7H10O2/c8-5-2-3-1-4(5)7-6(3)9-7/h3-8H,1-2H2	InChI=1S/C7H10O2/c8-5-2-3-1-4(5)7-6(3)9-7/h3-8H,1-2H2/t3-,4+,5-,6-,7+/m0/s1
