18
gdb 71828	2.56094	2.12178	1.42292	2.4274	74.85	-0.2236	-0.0018	0.2217	940.2322	0.148768	-398.071695	-398.063981	-398.063037	-398.103236	30.981	
C	 0.1005234416	 1.4393477732	-0.1349746244	-0.494953
C	 0.0219145897	-0.0610324637	-0.0409744585	 0.31089
N	-0.0716699827	-0.7823871146	-1.3108655246	-0.234488
C	-0.5433303759	-1.9201136634	-0.9963886954	 0.001246
N	-0.7681000723	-2.1719566087	 0.4144492328	-0.183243
C	 0.6786263604	-2.2836324943	 0.9373448305	-0.210933
C	 0.7147032204	-0.7842379382	 1.1445483138	 0.275979
N	 1.6593281038	-0.1442545749	 1.9869285591	-0.61519
C	-0.8110685257	-0.7719207594	 0.9789410537	-0.149264
H	 1.0545689285	 1.7621567684	-0.5652229663	 0.134141
H	-0.6984117308	 1.8096310187	-0.783785417	 0.136341
H	-0.0184213481	 1.9137221096	 0.8437505581	 0.112436
H	-0.7010680263	-2.7286098607	-1.70348745	 0.122153
H	 0.6691120468	-2.8323869575	 1.8824888127	 0.113906
H	 1.3886618815	-2.7516221984	 0.2452059599	 0.112698
H	 1.7101063027	 0.8552921801	 1.838097361	 0.239098
H	 1.4761873457	-0.3137543826	 2.9702290426	 0.236745
H	-1.6499123595	-0.4024570136	 1.5582850319	 0.092438
174.6236	186.8654	208.2388	259.4503	332.763	369.8876	386.8551	450.0005	569.9845	615.6666	641.5033	714.8842	773.4253	782.5979	834.0575	860.2807	862.3185	909.0268	936.0267	979.2704	987.245	996.6269	1053.7465	1077.7719	1105.5655	1150.038	1173.8225	1206.5356	1249.8167	1271.7556	1311.5279	1365.5354	1405.9168	1419.5277	1489.2892	1499.1317	1505.8538	1653.7318	1660.2337	3033.1986	3036.8776	3098.8807	3103.2493	3112.9771	3171.7473	3193.6541	3513.7072	3605.8361
CC12N=CN3CC1(N)C23	C[C@@]12[N][CH]N3C[C@]1(N)[C@@H]23	
InChI=1S/C6H9N3/c1-5-4-6(5,7)2-9(4)3-8-5/h3-4H,2,7H2,1H3	InChI=1S/C6H9N3/c1-5-4-6(5,7)2-9(4)3-8-5/h3-4H,2,7H2,1H3/t4-,5+,6+/m1/s1
