17
gdb 12642	3.48219	1.94645	1.27832	3.5978	72.3	-0.235	-0.0174	0.2176	955.6552	0.14223	-363.922949	-363.91468	-363.913735	-363.955684	29.365	
C	-0.0277241615	 1.4021684583	 0.008873564	-0.341777
N	-0.0224794104	-0.0381937626	-0.0005578681	-0.087566
C	-1.2110300811	-0.8574438085	 0.0035880042	-0.218392
C	-0.6525496788	-2.2557887805	-0.0070553431	-0.204022
C	 0.6828826437	-2.2282208505	-0.0155532789	 0.220096
C	 1.681128678	-3.3352366845	-0.0274886593	-0.484396
C	 1.1280517559	-0.7962255603	-0.0111047533	 0.355108
O	 2.2690789087	-0.372655571	-0.0157992296	-0.402309
H	 1.0140097344	 1.7296943171	 0.0023458633	 0.165097
H	-0.5367502337	 1.810507563	-0.8736268208	 0.120135
H	-0.5219048363	 1.7991464679	 0.9049462241	 0.12011
H	-1.8334862396	-0.6694400708	 0.8924658122	 0.119972
H	-1.8456536616	-0.660771874	-0.8747278081	 0.119996
H	-1.2885140592	-3.1319067612	-0.007464061	 0.11003
H	 1.1993801821	-4.316002738	-0.0303577138	 0.118724
H	 2.3301006284	-3.2570363903	-0.9065007539	 0.144605
H	 2.3399330612	-3.267078534	 0.8450337419	 0.144589
102.11	113.6675	151.5744	178.5916	242.5868	273.09	299.5898	416.739	525.6164	561.8065	694.7004	748.2388	770.7066	834.0846	951.653	975.0439	1010.0961	1038.5988	1067.1286	1087.2925	1148.3024	1197.1885	1202.591	1273.8222	1313.879	1340.2706	1413.9227	1424.4431	1447.0532	1471.3339	1483.3952	1492.3877	1494.6911	1528.7695	1713.4927	1794.7442	2982.1008	3000.1707	3008.744	3037.6368	3054.3541	3091.6111	3123.7049	3135.3058	3214.8432
CN1CC=C(C)C1=O	CN1CC=C(C)C1=O	
InChI=1S/C6H9NO/c1-5-3-4-7(2)6(5)8/h3H,4H2,1-2H3	InChI=1S/C6H9NO/c1-5-3-4-7(2)6(5)8/h3H,4H2,1-2H3
