17
gdb 72100	2.91802	1.8146	1.65315	0.8158	66.53	-0.2249	0.0738	0.2987	896.7978	0.13715	-458.93931	-458.932329	-458.931385	-458.970455	27.791	
C	-0.0108171346	 1.5205660466	-0.0300498089	-0.487919
C	-0.0685356544	 0.0263817473	 0.0149058716	 0.351276
O	 0.8785159763	-0.6158922178	-0.825296152	-0.286455
C	 0.4548246552	-1.968785332	-0.845537565	 0.114691
C	 0.8855388452	-2.6394271174	 0.4538881381	-0.062732
O	 0.3446058395	-1.9287959226	 1.5710821301	-0.277845
C	-0.435866538	-0.8221557298	 1.2195624591	 0.01352
C	-1.29351911	-0.8715674672	-0.0317881782	-0.043974
O	-0.9656244286	-1.9409910088	-0.8941658851	-0.257245
H	 0.9543974995	 1.8859404569	 0.3353767248	 0.134943
H	-0.151637711	 1.8805245981	-1.0543625707	 0.133986
H	-0.7964864005	 1.9502031913	 0.5978017461	 0.123817
H	 0.8431225818	-2.4639670884	-1.7375252721	 0.103496
H	 0.5227140369	-3.6748088996	 0.4773075935	 0.109596
H	 1.980502148	-2.6429753054	 0.5279593146	 0.108638
H	-0.8252097884	-0.3294512867	 2.1042169005	 0.110899
H	-2.3288620069	-0.5616302046	-0.0986747663	 0.111309
156.9306	193.067	221.7725	288.1658	396.0887	402.5761	549.8858	607.4587	647.4225	713.1734	734.8537	783.7311	865.5386	882.8932	886.9875	901.1961	972.0682	1011.0818	1024.1781	1039.836	1075.4772	1101.7411	1120.9978	1144.8569	1187.35	1231.0895	1234.1001	1263.3653	1302.0731	1354.8694	1356.9461	1396.701	1414.8189	1459.0628	1476.6139	1500.6533	1505.3985	3013.4008	3036.3927	3055.247	3103.5283	3108.7147	3116.3681	3168.9907	3194.1194
CC12OC3COC1C2O3	C[C@@]12O[C@H]3CO[C@@H]1[C@@H]2O3	
InChI=1S/C6H8O3/c1-6-4-5(6)8-3(9-6)2-7-4/h3-5H,2H2,1H3	InChI=1S/C6H8O3/c1-6-4-5(6)8-3(9-6)2-7-4/h3-5H,2H2,1H3/t3-,4+,5-,6+/m0/s1
