18
gdb 117464	5.6032	0.60552	0.55213	1.5538	71.67	-0.268	-0.0421	0.2258	1949.7222	0.143929	-476.234293	-476.223896	-476.222952	-476.27187	34.552	
C	-0.2848200712	 1.5023778666	 0.0936473376	-0.39119
C	-0.022454321	 0.0092875695	 0.0584607145	-0.028127
O	-1.3008487144	-0.6487858892	-0.0017168515	-0.245792
C	-1.2760127175	-1.9806495247	-0.0388518079	 0.509026
N	-0.2087340813	-2.6645158444	-0.0238722571	-0.60424
O	-2.5706782075	-2.3854427213	-0.0920965901	-0.238202
C	-2.8183906384	-3.7763747084	-0.1403090348	-0.174336
C	-4.3262463553	-3.9696969353	-0.1977259358	 0.138659
O	-4.8416701385	-5.05309441	-0.2418463742	-0.230187
H	 0.6655644524	 2.0421373159	 0.1398908626	 0.123055
H	-0.8228210408	 1.8260355452	-0.8016962566	 0.130651
H	-0.8796269932	 1.7742486563	 0.9700762	 0.130657
H	 0.569342696	-0.2856151702	-0.8137791561	 0.123839
H	 0.5129248941	-0.3370775392	 0.9480507342	 0.123894
H	-0.3737359235	-3.664441031	-0.0573335043	 0.227537
H	-2.3645936947	-4.2384687556	-1.0281176319	 0.147234
H	-2.4252166388	-4.2895743418	 0.7482518732	 0.147291
H	-4.9050054963	-3.021683712	-0.195510882	 0.110232
44.4049	50.4925	64.9199	99.6977	117.9345	145.1502	222.9459	254.1866	322.6509	383.9483	428.7046	599.5608	691.2404	724.282	745.9348	780.5388	811.0028	893.4383	975.2282	1041.7393	1059.2989	1109.1953	1114.1351	1136.3224	1178.5374	1184.6001	1236.2336	1290.8981	1318.9465	1365.7569	1401.2786	1409.195	1430.4431	1483.3789	1484.4268	1496.743	1521.8402	1733.116	1848.4623	2918.2541	3005.3561	3047.1545	3048.6844	3052.0121	3090.1236	3122.4553	3127.3073	3565.4089
CCOC(=N)OCC=O	CCO[C]([NH])OCC=O	
InChI=1S/C5H9NO3/c1-2-8-5(6)9-4-3-7/h3,6H,2,4H2,1H3	InChI=1S/C5H9NO3/c1-2-8-5(6)9-4-3-7/h3,6H,2,4H2,1H3
