16
gdb 29831	3.77349	1.10754	0.8625	7.2775	77.55	-0.2161	-0.0277	0.1884	1283.3501	0.125275	-434.11781	-434.109195	-434.108251	-434.151213	31.02	
C	-0.0422668195	 1.447320444	 0.0237999402	-0.353105
N	-0.0032522818	-0.0015358204	-0.001987938	-0.029214
C	 0.0154385821	-0.8193875137	-1.1053797609	-0.175517
C	-0.000479658	-2.1088779553	-0.6237143632	 0.162295
C	-0.0007293291	-3.3102517339	-1.451428167	 0.078237
O	-0.0210181448	-4.4526399185	-1.0548828962	-0.278701
N	-0.0084585804	-2.1024201465	 0.7621783348	-0.358689
C	-0.0087370361	-0.8387550966	 1.0941167457	 0.38377
N	-0.1041730321	-0.3282138029	 2.3843871921	-0.601207
H	 0.9602240067	 1.8798802384	 0.1213320279	 0.142124
H	-0.4922399092	 1.8161788459	-0.8996629088	 0.15207
H	-0.6534418025	 1.7730366108	 0.8689283673	 0.162818
H	 0.0380726608	-0.4216402438	-2.1072115901	 0.141659
H	 0.0202507358	-3.0798226621	-2.5433408522	 0.050521
H	-0.1169615767	-1.0932351271	 3.0478735239	 0.270029
H	 0.6307663148	 0.3259082617	 2.6274399745	 0.25291
101.7232	114.625	168.8447	204.0979	225.6182	275.5985	287.4065	373.2295	425.8019	514.4869	647.7531	657.9081	706.7925	737.3377	748.7716	807.3783	850.6819	1009.9692	1026.8304	1072.8216	1142.9999	1153.4316	1175.475	1263.9095	1351.6354	1400.7558	1416.8846	1443.9378	1488.0814	1508.1776	1513.6325	1571.8378	1597.9439	1659.7721	1801.1526	2843.3283	3033.4307	3106.498	3142.7872	3266.5	3526.6809	3622.7466
CN1C=C(C=O)N=C1N	Cn1cc(C=O)nc1N	
InChI=1S/C5H7N3O/c1-8-2-4(3-9)7-5(8)6/h2-3H,1H3,(H2,6,7)	InChI=1S/C5H7N3O/c1-8-2-4(3-9)7-5(8)6/h2-3H,1H3,(H2,6,7)
