18
gdb 31486	3.15662	1.13277	0.84677	3.2379	76.31	-0.2271	0.0069	0.2339	1356.6339	0.146246	-439.13356	-439.123901	-439.122957	-439.168643	33.667	
C	 0.0782968571	 1.462041607	 0.4707792126	-0.497212
C	-0.0117254747	 0.0197781112	 0.1341816585	 0.249962
C	-0.9998715509	-0.82173309	-0.2628373525	 0.176971
C	-2.4455297706	-0.5561084799	-0.5144952647	-0.494687
N	-0.4561582564	-2.1007706838	-0.4275668159	-0.378914
C	 0.7939643318	-1.9696010397	-0.1306161878	 0.351789
C	 1.8114711855	-3.0655480645	-0.1533517106	-0.141529
O	 1.224290651	-4.2799943718	-0.5466376835	-0.421855
O	 1.1542054989	-0.7197470951	 0.2215722324	-0.212396
H	 0.7800854754	 1.9863353309	-0.1877540596	 0.142668
H	-0.9019170606	 1.9315963129	 0.36389421	 0.140395
H	 0.4178647239	 1.6147125455	 1.5015283098	 0.142669
H	-2.7135620952	-0.8013326384	-1.5477370804	 0.140093
H	-3.0749121497	-1.1716542787	 0.1370822446	 0.140088
H	-2.6951899307	 0.4929169917	-0.3374427258	 0.123175
H	 2.6269745535	-2.7892876984	-0.8403253229	 0.118872
H	 2.2650557561	-3.1602795737	 0.8459538702	 0.11886
H	 0.2884333258	-4.0932200551	-0.7060818145	 0.30105
50.79	114.8995	138.9785	152.3251	171.5466	223.5335	252.8595	256.2959	339.213	365.3828	490.0198	634.8954	656.6245	679.7689	689.1261	794.3905	973.0854	999.7776	1033.8754	1043.396	1063.0909	1069.7999	1109.9158	1154.4844	1223.921	1239.0626	1279.8264	1337.8201	1361.8763	1420.9924	1424.5846	1471.0781	1475.5124	1480.2068	1491.7924	1492.8328	1513.9059	1626.7405	1690.8292	2980.2245	2994.0803	3031.5762	3037.4587	3081.7151	3091.6118	3121.9086	3131.5843	3735.3556
CC1=C(C)N=C(CO)O1	Cc1c(C)nc(CO)o1	
InChI=1S/C6H9NO2/c1-4-5(2)9-6(3-8)7-4/h8H,3H2,1-2H3	InChI=1S/C6H9NO2/c1-4-5(2)9-6(3-8)7-4/h8H,3H2,1-2H3
