18
gdb 92922	2.44145	1.44439	1.05861	3.9711	77.72	-0.2708	-0.0065	0.2643	1168.9697	0.148112	-401.971314	-401.962903	-401.961959	-402.004427	31.658	
C	 0.0142770342	 1.5448572303	 0.0441041186	-0.407932
C	 0.0261895639	 0.0298401381	-0.0626325096	 0.122338
C	 0.8036945848	-0.4972131421	-1.2722397662	-0.257133
C	 1.0668856755	-1.9722300228	-1.1366576536	-0.073299
C	 0.9286732064	-2.6103579873	 0.0207534996	-0.065779
C	 0.5581300682	-1.8631088931	 1.2838281467	-0.072801
O	 0.6236111497	-0.4631702045	 1.1472584085	-0.25759
C	-0.7834503397	-2.2924951692	 1.7629163794	 0.269282
N	-1.8272134747	-2.6252557067	 2.1309612968	-0.326932
H	 1.0339566007	 1.9278436365	 0.1507399601	 0.127216
H	-0.4306261642	 1.9852180431	-0.8531869909	 0.120296
H	-0.5664049278	 1.8627301016	 0.9134889289	 0.13311
H	-1.0075568026	-0.3452153418	-0.1173575596	 0.092629
H	 0.2333807026	-0.299447501	-2.1881607825	 0.115702
H	 1.7525138638	 0.0477819737	-1.3774803192	 0.11869
H	 1.3774836313	-2.5177044372	-2.0235293143	 0.105388
H	 1.0843474604	-3.6795692173	 0.1191590913	 0.116033
H	 1.2721294876	-2.1148878202	 2.078558196	 0.140781
87.5403	110.9966	184.7696	221.6942	271.501	310.641	381.4217	455.3939	464.6606	476.5055	560.6406	628.1392	714.1812	789.9912	840.0813	903.7569	922.2322	935.213	976.4462	994.9873	1008.4199	1074.2685	1114.5512	1133.2217	1160.5961	1213.3421	1237.9055	1293.1624	1326.043	1356.6716	1382.4546	1396.5721	1404.6806	1418.5701	1465.4799	1484.024	1500.2555	1727.0063	2349.6897	2987.0007	3013.2896	3033.1645	3044.8095	3055.8702	3117.8191	3127.8198	3163.4601	3192.8396
CC1CC=CC(O1)C#N	C[C@H]1CC=C[C@@H](O1)C#N	
InChI=1S/C7H9NO/c1-6-3-2-4-7(5-8)9-6/h2,4,6-7H,3H2,1H3	InChI=1S/C7H9NO/c1-6-3-2-4-7(5-8)9-6/h2,4,6-7H,3H2,1H3/t6-,7+/m0/s1
