23
gdb 114099	2.98525	1.11017	0.95012	1.1867	85.48	-0.2424	0.0774	0.3198	1359.1504	0.205181	-388.270421	-388.260928	-388.259984	-388.304767	36.544	
C	 0.0781696188	 1.5297173604	-0.1665686408	-0.377652
C	 0.0583533541	 0.0067980136	 0.0077058534	-0.202312
C	-1.3540481773	-0.5614061682	 0.0706511888	 0.063306
C	-2.2446371659	-0.5489141176	-1.2152661101	-0.322305
C	-2.7001130054	-2.0099869208	-0.8994008675	 0.43001
O	-4.0443756131	-2.1833746167	-0.5469019089	-0.487916
C	-1.9918202213	-3.109342133	-1.7231629044	-0.289847
C	-0.7809551151	-3.0223440092	-0.7431179967	-0.233235
C	-1.5960295347	-2.0879374092	 0.2051381109	-0.097358
H	 1.1021099279	 1.9133276293	-0.2138874441	 0.109988
H	-0.4319839017	 1.8298541118	-1.0885215826	 0.117179
H	-0.4275631462	 2.0294639282	 0.6671589387	 0.113336
H	 0.6116979594	-0.4564542586	-0.8186914939	 0.092668
H	 0.5966463318	-0.2651716079	 0.9257166268	 0.09344
H	-1.8986450582	-0.059844659	 0.8795833959	 0.073748
H	-3.0581790274	 0.1806181867	-1.2150077776	 0.096086
H	-1.6838480627	-0.4510871281	-2.1510140828	 0.089458
H	-4.5866312662	-1.9663846176	-1.3138257104	 0.27354
H	-2.5249703357	-4.059505694	-1.6303266682	 0.102801
H	-1.8040727583	-2.9069040253	-2.7824759915	 0.085157
H	-0.4920830946	-3.9750440635	-0.2953729897	 0.104256
H	 0.1158523752	-2.5686943981	-1.1706782206	 0.1002
H	-1.7969273034	-2.4852798133	 1.2007743755	 0.065452
59.0021	97.8614	157.2986	206.0387	225.0805	255.4447	303.831	353.7865	370.1728	416.6727	496.4735	611.1096	618.036	745.8706	763.8295	783.3019	854.4791	880.4765	909.0294	910.7269	946.2053	953.7489	999.9138	1029.967	1041.8048	1043.6776	1110.6245	1116.4793	1146.4195	1178.4071	1197.5466	1220.0602	1233.4763	1243.7872	1266.6872	1269.9227	1290.8401	1305.1692	1318.7955	1342.6872	1363.9773	1394.5395	1412.4045	1465.4956	1476.145	1484.1284	1495.7524	1499.4204	1506.6248	3015.3849	3025.3013	3030.0539	3040.5294	3044.01	3052.1514	3071.7151	3095.8915	3096.4974	3101.1098	3101.2958	3103.9465	3123.3335	3789.8055
CCC1CC2(O)CCC12	CC[C@H]1C[C@@]2(O)CC[C@@H]12	
InChI=1S/C8H14O/c1-2-6-5-8(9)4-3-7(6)8/h6-7,9H,2-5H2,1H3	InChI=1S/C8H14O/c1-2-6-5-8(9)4-3-7(6)8/h6-7,9H,2-5H2,1H3/t6-,7-,8-/m0/s1
