23
gdb 64262	2.54431	1.56231	1.51543	1.2224	84.52	-0.241	0.0794	0.3205	1063.0882	0.206854	-388.291057	-388.282601	-388.281657	-388.323327	34.667	
C	-0.2011484915	 1.5963621221	 0.0648501406	-0.421697
C	 0.0131351273	 0.0749831433	 0.0349277527	 0.375511
C	-1.3422854211	-0.6312001411	-0.0786964255	-0.409922
O	 0.724819901	-0.2896310661	-1.1648191614	-0.306352
C	 2.1418464956	-0.385922788	-1.0770821912	-0.07584
C	 2.6043662623	-0.8742843725	 0.3001139872	-0.023213
C	 1.4915083794	-1.7805933482	 0.896091145	-0.233281
C	 0.7852824894	-0.4429815397	 1.2707212417	-0.028238
C	 2.2052506456	 0.1822487782	 1.3591000389	-0.245194
H	 0.7424332016	 2.1422705864	-0.0020038443	 0.115143
H	-0.822498223	 1.8988324298	-0.78295457	 0.117774
H	-0.7059851949	 1.9040155743	 0.9871997508	 0.108495
H	-1.810249051	-0.3805625448	-1.03476406	 0.120848
H	-1.2274893899	-1.7170969147	-0.03085086	 0.115548
H	-2.0114268691	-0.3159620608	 0.7280349483	 0.107163
H	 2.4342970574	-1.0943912207	-1.8610349212	 0.101248
H	 2.6197620688	 0.5807689912	-1.3091907948	 0.083894
H	 3.6373407018	-1.2297842253	 0.2660893923	 0.059898
H	 0.9759640906	-2.468563505	 0.2227059161	 0.102912
H	 1.8361397002	-2.3168070407	 1.7834596483	 0.093021
H	 0.1482790047	-0.409489779	 2.1583081027	 0.058532
H	 2.6653029373	-0.0175194826	 2.3308391487	 0.093518
H	 2.3429752873	 1.2379206638	 1.111423875	 0.090234
110.5453	198.883	220.822	248.5606	311.2891	345.4778	373.922	397.6391	421.6823	489.8933	504.0018	599.1145	701.2604	812.9766	828.4721	860.3608	880.0091	896.0928	923.899	930.2581	954.5521	971.3889	1003.4692	1038.7987	1046.3924	1071.0917	1081.9148	1114.5106	1138.9706	1164.7406	1205.2151	1222.1679	1235.0683	1246.9133	1251.3686	1276.7383	1300.3398	1342.4762	1353.2386	1395.8964	1400.241	1415.5423	1471.002	1477.7235	1486.5001	1493.834	1499.6183	1513.5486	1518.737	2960.6752	3036.6901	3043.3979	3047.467	3052.8282	3061.8677	3073.2597	3080.3659	3102.7977	3106.1837	3115.5274	3120.5459	3123.8645	3125.8122
CC1(C)OCC2CC1C2	CC1(C)OC[C@@H]2C[C@H]1C2	
InChI=1S/C8H14O/c1-8(2)7-3-6(4-7)5-9-8/h6-7H,3-5H2,1-2H3	InChI=1S/C8H14O/c1-8(2)7-3-6(4-7)5-9-8/h6-7H,3-5H2,1-2H3/t6-,7+
