18
gdb 117604	2.19747	1.14899	0.94556	4.6354	79.18	-0.2464	0.0044	0.2507	1335.0782	0.145841	-398.077622	-398.067279	-398.066335	-398.112865	37.108	
C	 0.0632953667	 1.4753059543	-0.067540881	-0.319503
N	-0.0524325219	 0.0262484552	 0.0589534071	-0.296161
C	 0.5917702505	-0.5139347796	 1.2417555722	-0.155124
C	 0.6965061962	-2.0717822419	 1.1198659182	-0.125507
N	 1.3581148316	-2.5048172656	-0.1194011871	-0.519685
C	 1.4044360181	-2.6004342514	 2.2887827904	 0.342857
C	 2.015547272	-2.9879149744	 3.2462023704	-0.425588
C	-0.6926388005	-2.6037233566	 1.1077714209	 0.323992
N	-1.7958108576	-2.9458413094	 1.0845674497	-0.349322
H	 1.1164575075	 1.7487581927	-0.1942050927	 0.126548
H	-0.4774986971	 1.8044401013	-0.9589342482	 0.129786
H	-0.3270389038	 2.0349933799	 0.7989883127	 0.106217
H	-1.032438774	-0.2406580617	 0.0559211796	 0.240525
H	 1.6176540516	-0.1326050439	 1.2891591331	 0.114802
H	 0.0967005185	-0.2547616353	 2.1921930373	 0.109951
H	 1.0785994707	-1.843161852	-0.8429293832	 0.246784
H	 2.3620754543	-2.4191972702	 0.0068845292	 0.238508
H	 2.5458340471	-3.3497105416	 4.0929245615	 0.210919
79.4494	108.8585	123.0039	135.0587	186.9809	222.6766	252.9174	275.4432	305.3502	350.5744	426.4071	479.6602	508.5081	570.7233	617.1016	655.2978	677.2457	740.0963	803.7953	874.6754	953.214	973.091	1022.3823	1055.4233	1118.9733	1146.7906	1186.8319	1217.9193	1296.9776	1333.3556	1378.8928	1459.1247	1488.686	1490.6535	1504.8727	1520.1212	1645.6426	2248.9596	2357.5148	2964.6073	2969.9829	3063.6962	3070.0448	3112.129	3462.9223	3499.4106	3513.7816	3566.9882
CNCC(N)(C#C)C#N	CNC[C@@](N)(C#C)C#N	
InChI=1S/C6H9N3/c1-3-6(8,4-7)5-9-2/h1,9H,5,8H2,2H3	InChI=1S/C6H9N3/c1-3-6(8,4-7)5-9-2/h1,9H,5,8H2,2H3/t6-/m1/s1
