21
gdb 103954	3.24345	1.16149	1.04579	1.5376	77.86	-0.2483	0.0605	0.3088	1220.6192	0.181576	-424.186327	-424.177059	-424.176115	-424.219649	36.148	
C	-0.1698993956	 1.6331835863	 0.0146091713	-0.465411
C	-0.039032334	 0.1106966912	 0.0360274138	 0.311048
C	-1.415631062	-0.5463343074	-0.141221606	-0.104289
O	-2.0707285703	-0.17395478	-1.3432911572	-0.422517
C	 1.0118461618	-0.5532012594	-0.9275592407	-0.295138
C	 1.6439137	-1.2820236025	 0.2642465321	-0.084972
C	 2.1623399255	-0.3094307703	 1.259870761	 0.095814
O	 2.794656654	 0.8637189432	 0.828248394	-0.421047
C	 0.6782277879	-0.5472442478	 1.2326303885	-0.164246
H	 0.8086036103	 2.1147766816	-0.0089670201	 0.115798
H	-0.7407022479	 1.9489247622	-0.8636630762	 0.124514
H	-0.7102107676	 1.9857207356	 0.9018736217	 0.103354
H	-1.3134214505	-1.6406425156	-0.064150939	 0.083831
H	-2.0827148703	-0.2228212727	 0.6666458827	 0.103571
H	-1.5341315539	-0.486348143	-2.0792701719	 0.283085
H	 0.561251571	-1.2345968492	-1.6557254798	 0.082063
H	 1.6789694941	 0.1327574524	-1.4542551347	 0.115071
H	 1.9578629399	-2.3190572912	 0.2624756359	 0.08641
H	 2.6486582444	-0.7815404018	 2.115469828	 0.08889
H	 2.6323976809	 1.547455193	 1.4866662754	 0.286928
H	 0.1608522722	-0.9324424045	 2.1067815612	 0.077245
123.6525	146.2989	166.362	229.0295	259.2601	279.8196	299.1001	339.2239	366.6104	377.7725	460.5465	508.7634	638.2764	666.5331	728.1199	795.6587	845.7904	867.9385	931.4358	939.8366	967.6034	998.1025	1000.5603	1020.1537	1034.267	1069.2788	1081.9035	1136.7361	1162.0784	1175.3122	1216.9192	1242.0357	1252.4283	1286.9002	1295.2905	1301.8295	1358.1224	1379.5033	1400.4403	1419.6638	1455.8177	1482.4102	1494.2305	1502.1031	1509.1641	2975.7462	3030.3305	3049.4213	3057.6117	3087.1105	3097.8873	3106.576	3139.0753	3146.9762	3179.6678	3809.0105	3810.4391
CC1(CO)CC2C(O)C12	C[C@@]1(CO)C[C@H]2[C@@H](O)[C@@H]12	
InChI=1S/C7H12O2/c1-7(3-8)2-4-5(7)6(4)9/h4-6,8-9H,2-3H2,1H3	InChI=1S/C7H12O2/c1-7(3-8)2-4-5(7)6(4)9/h4-6,8-9H,2-3H2,1H3/t4-,5+,6-,7+/m1/s1
