19
gdb 73445	2.26248	1.88429	1.56162	1.9458	74.45	-0.2336	0.0635	0.2971	969.8692	0.159623	-422.99558	-422.987618	-422.986674	-423.027423	31.711	
C	-0.0369635478	 1.5174387482	-0.0660224669	-0.525928
C	-0.0025508445	 0.0236982361	 0.01490683	 0.295742
C	 0.4336689742	-1.0635516423	-0.9773238829	-0.197579
C	 1.2242920031	-1.7914616643	 0.1083247896	-0.25708
C	 0.4724480458	-0.9095000336	 1.1594559665	 0.024132
O	-0.6788976853	-1.5668027002	 1.6789969326	-0.263569
C	-1.5534411014	-1.8047821111	 0.5723749007	-0.151173
C	-1.0237302454	-0.914761401	-0.5524253105	 0.321078
O	-1.9239806317	-0.4026432226	-1.4825529831	-0.475691
H	 0.9677942227	 1.9530637324	-0.0397020491	 0.115769
H	-0.5221580084	 1.8313152615	-0.9950711673	 0.135715
H	-0.6081454722	 1.9417424927	 0.7679137262	 0.126253
H	 0.7073234251	-0.9418889546	-2.0202637281	 0.081495
H	 1.1091940593	-2.8749385576	 0.2191807099	 0.095239
H	 2.2886530989	-1.5433196631	 0.062029087	 0.10309
H	 1.0440572428	-0.5064129522	 1.9946068152	 0.084574
H	-1.5597283414	-2.8737728458	 0.3142802342	 0.088913
H	-2.5734246275	-1.5070200456	 0.8411997109	 0.110408
H	-2.0277717864	-1.0459257768	-2.1914018648	 0.288615
186.2383	192.7105	212.2413	222.5008	272.4648	337.2036	373.4751	420.9637	502.8192	571.4111	646.7143	672.9871	716.095	780.1793	846.4284	900.2754	916.3836	944.6074	973.2894	981.0998	1043.9654	1059.652	1073.2407	1124.569	1126.0247	1144.55	1185.563	1196.1976	1218.2722	1235.8432	1264.3326	1289.4096	1311.9998	1349.1854	1377.946	1414.325	1470.6857	1490.7089	1491.3943	1498.0615	1527.553	2993.7887	3026.3525	3040.153	3056.3348	3084.3966	3094.4157	3108.1651	3126.4086	3167.4481	3805.3475
CC12C3CC1OCC23O	C[C@@]12[C@H]3C[C@@H]1OC[C@@]23O	
InChI=1S/C7H10O2/c1-6-4-2-5(6)9-3-7(4,6)8/h4-5,8H,2-3H2,1H3	InChI=1S/C7H10O2/c1-6-4-2-5(6)9-3-7(4,6)8/h4-5,8H,2-3H2,1H3/t4-,5+,6-,7+/m1/s1
