20
gdb 92564	2.53477	1.77896	1.67713	2.8132	76.51	-0.2196	0.0619	0.2814	945.1697	0.174713	-403.134837	-403.12766	-403.126716	-403.166271	29.629	
O	-0.0323708783	 1.3922401536	-0.2297675098	-0.426357
C	 0.0481195525	-0.0211850565	-0.0535236477	 0.094004
C	 0.7667960778	-0.4841045641	 1.2459089338	-0.249247
C	-0.3173326393	-1.0574413268	 2.1928240313	-0.044575
C	-0.9589321642	 0.034070755	 3.073832434	-0.20785
C	-1.9034125478	 0.7654779782	 2.0957486164	-0.169666
N	-2.3050685142	-0.2447114724	 1.0844415528	-0.10278
C	-1.3494790773	-0.6177443469	 0.024821776	-0.028505
C	-1.4806863175	-1.4446491547	 1.2558554119	-0.06459
H	 0.8622579145	 1.7265284396	-0.3470943681	 0.283022
H	 0.5509025447	-0.459617335	-0.9285481908	 0.067019
H	 1.4857633057	-1.2705802795	 0.9943397127	 0.098684
H	 1.3313811649	 0.3382728096	 1.6994215484	 0.090414
H	 0.0635765359	-1.8937195743	 2.7830048087	 0.067148
H	-1.5390603476	-0.4323715844	 3.8776080582	 0.097801
H	-0.222176336	 0.69613798	 3.5392422964	 0.093754
H	-2.8098774217	 1.1214317187	 2.5940658728	 0.098819
H	-1.4207584727	 1.6159560015	 1.6127784527	 0.132594
H	-1.8314547371	-0.87628162	-0.9144328422	 0.087743
H	-1.9702074022	-2.4126550414	 1.3077926524	 0.082567
86.8479	217.0241	291.289	323.8201	361.3166	411.4075	511.9335	583.5234	654.2516	705.9183	758.7745	784.9	805.7933	840.2994	867.3474	895.6016	927.8736	941.7927	953.4392	1002.4691	1013.1517	1048.4087	1074.4205	1092.8896	1105.7242	1123.5623	1185.9954	1207.3605	1229.5928	1233.4484	1260.6715	1268.9324	1298.4298	1312.5496	1329.3794	1338.7684	1359.1332	1362.028	1401.5462	1431.0323	1475.7722	1493.8042	1515.5818	2978.4952	3037.1332	3040.0268	3060.6643	3077.2109	3084.8512	3089.5031	3129.2501	3135.7463	3150.621	3818.9152
OC1CC2CCN3C1C23	O[C@H]1C[C@H]2CCN3[C@@H]1[C@@H]23	
InChI=1S/C7H11NO/c9-5-3-4-1-2-8-6(4)7(5)8/h4-7,9H,1-3H2	InChI=1S/C7H11NO/c9-5-3-4-1-2-8-6(4)7(5)8/h4-7,9H,1-3H2/t4-,5+,6-,7+,8?/m1/s1
