19
gdb 103355	2.67792	1.61491	1.30365	2.891	74.62	-0.2317	-0.0013	0.2304	1032.1727	0.15851	-422.965264	-422.956933	-422.955988	-422.997979	32.687	
C	-0.092900464	 1.5144522493	 0.0319146581	-0.45983
C	-0.0683584419	-0.0143040043	 0.0139591818	 0.34693
C	-1.4480964742	-0.5567040627	-0.3365585383	-0.158647
O	-1.71224045	-0.1852643216	-1.6875349359	-0.426386
C	 1.2142789262	-0.6103943571	-0.6963577787	-0.00614
O	 1.9746857964	-0.2095944792	 0.4931464055	-0.289577
C	 0.7691338016	-0.6557879775	 1.1926418757	-0.041804
C	 0.7642307544	-2.1535316355	 0.8427150818	-0.091493
C	 1.0723232225	-2.1196774774	-0.4564157425	-0.081494
H	 0.9014159495	 1.9225351051	 0.2121049993	 0.134084
H	-0.4730645395	 1.889154446	-0.9220852371	 0.133771
H	-0.7658775602	 1.8756096548	 0.8188626903	 0.105205
H	-1.4876989768	-1.6448533945	-0.2163598194	 0.088997
H	-2.1897283956	-0.1134395642	 0.3482107502	 0.081268
H	-2.5968010262	-0.4867572225	-1.9130964554	 0.288685
H	 1.605300867	-0.2303301364	-1.6387192278	 0.081616
H	 0.6960749878	-0.3276038613	 2.2296429696	 0.074993
H	 0.5474197387	-2.9817598824	 1.5009785135	 0.108929
H	 1.1781894342	-2.9114537184	-1.1829111007	 0.110893
70.2728	165.8681	213.4147	239.1271	281.9163	298.1071	386.602	412.7574	508.6407	560.343	624.0664	655.7944	731.4929	787.5116	828.5974	858.0045	878.8477	908.7354	909.3867	939.5188	956.5193	967.3041	1001.2406	1060.7262	1109.9149	1133.2351	1154.5508	1166.6354	1229.6841	1235.5519	1236.5946	1264.8761	1298.5404	1305.1633	1315.495	1393.2151	1456.5239	1496.1431	1501.353	1523.7165	1611.4718	2968.0072	3036.0075	3051.3076	3105.1977	3122.2884	3140.2088	3153.0954	3231.5668	3258.8848	3834.0029
CC1(CO)C2OC1C=C2	C[C@@]1(CO)[C@H]2O[C@@H]1C=C2	
InChI=1S/C7H10O2/c1-7(4-8)5-2-3-6(7)9-5/h2-3,5-6,8H,4H2,1H3	InChI=1S/C7H10O2/c1-7(4-8)5-2-3-6(7)9-5/h2-3,5-6,8H,4H2,1H3/t5-,6+,7+
