14
gdb 20389	4.90468	2.06435	1.48824	4.1989	63.64	-0.2036	0.0109	0.2145	793.9513	0.11082	-378.706255	-378.700313	-378.699368	-378.736277	22.941	
C	-0.00137243	 1.4348427954	 0.0705566183	-0.164615
C	 1.4835405503	 1.9289495659	-0.0869771878	-0.359349
C	 2.2254588699	 0.6245035228	 0.0132925286	 0.130383
C	 1.3262097929	-0.3901076654	-0.0841067175	 0.47259
N	 0.0122551677	-0.0217654624	-0.2665639458	-0.405635
O	 1.8792106291	-1.5886951786	-0.0676120275	-0.241141
N	 3.2986365477	-1.3794882471	 0.0515649359	-0.170591
C	 3.4515520389	-0.0684977382	 0.0813726769	-0.120278
H	-0.3338242031	 1.579242959	 1.1061459026	 0.115651
H	-0.6912052606	 1.9657986436	-0.5887953819	 0.122329
H	 1.627877066	 2.4140752357	-1.0602291807	 0.122069
H	 1.7307855548	 2.6668783963	 0.6813741793	 0.119019
H	-0.6963040928	-0.5864826416	 0.1827637354	 0.252234
H	 4.461458109	 0.3101164946	 0.1667984943	 0.127335
148.8336	228.8971	287.9261	437.3248	541.0165	613.843	643.779	710.792	729.1038	812.0913	817.4666	858.6212	912.0632	931.4978	970.2457	1017.1036	1075.3694	1151.2695	1189.8878	1202.8272	1244.4446	1293.7239	1312.2667	1364.2729	1415.4061	1447.9785	1497.7063	1517.1099	1568.6172	1659.2133	3023.4239	3026.2049	3078.1859	3104.0127	3232.2626	3579.4437
C1CC2=C(N1)ON=C2	C1Cc2c(N1)onc2	
InChI=1S/C5H6N2O/c1-2-6-5-4(1)3-7-8-5/h3,6H,1-2H2	InChI=1S/C5H6N2O/c1-2-6-5-4(1)3-7-8-5/h3,6H,1-2H2
