22
gdb 110530	3.19418	1.22716	1.09023	1.58	86.14	-0.2291	0.0994	0.3285	1248.7188	0.194547	-367.160531	-367.151763	-367.150819	-367.19379	34.042	
C	-0.0618907025	 1.5203270947	-0.0572283087	-0.378571
C	 0.0616379574	-0.0009221743	 0.0882315121	-0.213442
C	 0.7158871265	-0.6387283812	-1.1284511025	 0.103446
C	 0.8806556075	-2.164029897	-1.2924233098	-0.161196
C	-0.5668833597	-2.710968403	-1.1974448549	-0.250469
C	-0.8356688962	-1.8941383395	-2.4583875201	-0.089581
N	-0.0475426951	-0.5990358878	-2.4266892228	-0.198968
C	 0.6001182926	-1.8789443155	-2.829901732	 0.36457
C	 1.3604228661	-2.1035408121	-4.091691567	-0.531538
H	 0.9236205537	 1.9905310822	-0.1479746484	 0.110806
H	-0.6342966495	 1.774870503	-0.9540114982	 0.137437
H	-0.5647864959	 1.9630481844	 0.8078360585	 0.107173
H	 0.6599920951	-0.2482729242	 0.9757937394	 0.092691
H	-0.9317057814	-0.4314093122	 0.2517717755	 0.100307
H	 1.671936036	-0.1390161202	-1.3291712022	 0.071056
H	 1.7150091201	-2.7103775659	-0.8541724445	 0.065801
H	-0.5990513759	-3.7794350181	-1.4277667003	 0.10252
H	-1.141801558	-2.5183324316	-0.2868357861	 0.094534
H	-1.7090866702	-1.8925640827	-3.0978659354	 0.092044
H	 2.3519906241	-1.6385443136	-4.0500425239	 0.124478
H	 1.4986137929	-3.1723700795	-4.289011362	 0.121857
H	 0.8191495125	-1.665436546	-4.9360208868	 0.135046
86.7615	136.9681	161.3161	206.5805	238.1868	278.5396	298.1951	376.566	486.0352	566.3401	629.918	686.8942	709.0079	793.7986	820.6531	839.9474	893.8944	901.4309	949.2918	969.3691	988.6664	998.2479	1027.995	1056.9843	1073.3369	1099.4166	1116.688	1119.1481	1134.4533	1167.9548	1185.1583	1224.8109	1242.3926	1276.1617	1292.0448	1307.1381	1343.1701	1398.7625	1409.5481	1418.505	1453.075	1479.9461	1481.0774	1492.4104	1498.3966	1507.6044	1509.5104	3019.6358	3025.2758	3027.1751	3035.1498	3050.9563	3072.1672	3086.7245	3100.5142	3104.1466	3106.4977	3115.5861	3121.2678	3198.7876
CCC1C2CC3N1C23C	CC[C@H]1[C@H]2C[C@H]3N1[C@@]23C	
InChI=1S/C8H13N/c1-3-6-5-4-7-8(5,2)9(6)7/h5-7H,3-4H2,1-2H3	InChI=1S/C8H13N/c1-3-6-5-4-7-8(5,2)9(6)7/h5-7H,3-4H2,1-2H3/t5-,6+,7-,8+,9?/m1/s1
