19
gdb 61772	3.63802	0.78981	0.73921	3.0236	78.56	-0.2506	-0.024	0.2266	1546.0561	0.15448	-422.997069	-422.986305	-422.985361	-423.033765	37.762	
C	-0.0199170363	 1.6584730256	-0.0583335498	-0.415162
C	-0.0004378493	 0.1271494568	 0.0245941752	 0.004457
C	 0.7577797144	-0.3627723948	 1.2756949183	-0.28243
C	 2.2306123251	-0.0293624001	 1.209917923	 0.155
O	 2.8415460522	 0.5948724379	 2.0380307528	-0.239464
C	-1.4303263742	-0.4768519457	 0.012516023	-0.061784
O	-2.1890047313	-0.0809422727	 1.1520357978	-0.422636
C	-2.1361816871	-0.1810800067	-1.2371588586	 0.288022
C	-2.7193803785	 0.0931605451	-2.252310119	-0.429186
H	 0.9953387688	 2.0644084102	-0.0843222502	 0.131882
H	-0.5439292138	 1.9969975389	-0.9562129438	 0.130802
H	-0.5160800969	 2.088297896	 0.8184714454	 0.121976
H	 0.505991175	-0.2687897722	-0.8666296489	 0.089326
H	 0.3292052244	 0.0587605653	 2.1877443929	 0.13474
H	 0.6802596879	-1.458575962	 1.3370853742	 0.11428
H	 2.7430631741	-0.4197629543	 0.2972353714	 0.068489
H	-1.3330755963	-1.5660146235	 0.1069018388	 0.115903
H	-2.5649198432	 0.7865598107	 0.9690062763	 0.292087
H	-3.2405450149	 0.3180205157	-3.1503415789	 0.203697
52.1221	57.061	78.1857	131.9578	189.6597	215.0433	225.9748	274.9939	289.8438	316.7295	365.888	448.6235	536.3683	566.4414	632.1223	666.7793	674.9682	785.7522	829.1709	912.1715	954.6312	993.1419	1005.8258	1035.4686	1106.2952	1127.749	1153.6704	1222.0535	1250.1685	1280.7153	1309.5509	1356.4432	1372.7955	1413.0827	1418.6212	1431.0824	1463.6663	1496.0162	1506.2279	1836.1605	2230.6419	2838.3977	3007.8337	3015.37	3030.0297	3040.1247	3106.4686	3116.1631	3120.8838	3500.4227	3819.3942
CC(CC=O)C(O)C#C	C[C@@H](CC=O)[C@@H](O)C#C	
InChI=1S/C7H10O2/c1-3-7(9)6(2)4-5-8/h1,5-7,9H,4H2,2H3	InChI=1S/C7H10O2/c1-3-7(9)6(2)4-5-8/h1,5-7,9H,4H2,2H3/t6-,7-/m0/s1
