18
gdb 23137	1.82472	1.70169	0.96524	1.5292	71.21	-0.2536	-0.0115	0.2422	1206.481	0.147423	-476.176472	-476.16765	-476.166705	-476.210278	32.601	
O	 0.143821094	 1.4209280936	 0.0762456922	-0.424964
C	 0.0834734771	 0.0151823169	 0.0429828906	-0.055335
C	-1.3695036776	-0.5030054411	-0.0054052075	-0.131589
C	-1.4729977962	-2.0415329713	-0.0195094351	-0.104735
O	-1.5673539077	-2.4441559202	 1.3442233295	-0.250945
C	-2.3479712328	-1.4759751146	 2.024698971	-0.159074
C	-2.0913487874	-0.1840465771	 1.2846735733	 0.362232
N	-2.3461306079	 1.0073574542	 1.6525523903	-0.231949
O	-2.9642306719	 1.0259943217	 2.9153506115	-0.39003
H	-0.4797460883	 1.7196929625	 0.753459812	 0.289893
H	 0.6083416074	-0.3021841964	-0.8650710241	 0.107753
H	 0.599986558	-0.444903325	 0.9017088736	 0.094585
H	-1.8656730067	-0.0432035164	-0.864524073	 0.106764
H	-2.3625773618	-2.3641574829	-0.5822263191	 0.098158
H	-0.5949758619	-2.5318429055	-0.4486713276	 0.117593
H	-3.4236259915	-1.7199911949	 2.0000231233	 0.118199
H	-2.0387875343	-1.4315816462	 3.0724103394	 0.142551
H	-3.1206682305	 1.9656422928	 3.0587685399	 0.310894
68.3452	134.1659	164.5419	188.7373	228.8763	271.3127	352.3032	386.3648	440.8333	471.4137	526.0294	547.3208	672.9294	744.6008	808.9797	884.2089	947.0076	978.4966	993.8377	998.4837	1051.3559	1095.3278	1111.5224	1128.9882	1191.9503	1217.9625	1230.4524	1254.9858	1270.954	1323.5078	1335.2729	1377.5207	1382.2488	1413.2988	1450.4361	1488.6822	1514.1008	1516.0215	1755.8032	2966.2058	2969.1527	2985.2899	3059.5894	3079.8773	3091.8061	3094.0057	3726.864	3819.137
OCC1COCC1=NO	OC[C@H]1COCC1=NO	
InChI=1S/C5H9NO3/c7-1-4-2-9-3-5(4)6-8/h4,7-8H,1-3H2	InChI=1S/C5H9NO3/c7-1-4-2-9-3-5(4)6-8/h4,7-8H,1-3H2/t4-/m0/s1
