17
gdb 45083	2.8412	1.85354	1.31305	2.6648	73.75	-0.2345	0.0105	0.245	964.4289	0.138004	-417.96517	-417.958189	-417.957245	-417.996565	28.145	
N	-0.009525616	 1.0627711813	-0.8718912663	-0.516633
C	-0.0928890659	 0.1002133899	-0.0559879007	 0.385313
O	 0.9041835471	-0.1771704696	 0.8501944509	-0.257766
C	 1.1672317076	-1.5233349661	 1.1829870433	 0.080586
C	 0.6540135104	-2.0395392402	 2.496186918	-0.32285
C	 0.0022110666	-2.4714111971	 1.2016151098	-0.010119
N	-1.2905722837	-2.0106463608	 0.7477671015	-0.105989
C	-1.9652893454	-0.8904589414	 1.3738012875	-0.255186
C	-1.3229252756	-0.7289453596	 0.0293105061	-0.074712
H	 0.897833634	 1.5238309586	-0.7780759542	 0.222553
H	 2.1364424415	-1.8448889395	 0.8138558024	 0.109738
H	 1.2485310061	-2.7750613922	 3.0263857329	 0.123832
H	 0.1359476639	-1.3341161087	 3.1348534532	 0.131619
H	 0.1940465777	-3.4908259916	 0.8813459807	 0.111219
H	-3.0458075832	-0.9814774876	 1.4392244763	 0.129604
H	-1.5004975198	-0.3724904163	 2.2082829396	 0.127489
H	-1.9349392554	-0.6963820691	-0.8649561211	 0.121302
86.0495	221.3538	250.4218	366.8908	423.1873	465.9412	496.7753	546.2963	672.9197	690.3003	726.4432	797.8398	813.4428	856.7355	891.0736	920.1339	942.3147	975.3959	1021.2547	1040.3599	1067.2548	1079.7556	1110.1554	1118.4587	1126.4567	1142.0281	1158.9943	1172.9111	1238.6111	1304.2427	1327.2647	1373.1695	1383.4216	1405.0265	1471.9579	1508.5493	1751.4125	3111.0346	3143.7704	3145.3809	3155.1613	3178.978	3197.5774	3233.0778	3466.9304
N=C1OC2CC2N2CC12	[NH][C]1O[C@H]2C[C@H]2N2C[C@@H]12	
InChI=1S/C6H8N2O/c7-6-4-2-8(4)3-1-5(3)9-6/h3-5,7H,1-2H2	InChI=1S/C6H8N2O/c7-6-4-2-8(4)3-1-5(3)9-6/h3-5,7H,1-2H2/t3-,4+,5+,8?/m1/s1
