19
gdb 122105	2.76592	1.06118	0.85959	1.7205	72.83	-0.2375	0.0163	0.2538	1350.2083	0.15905	-456.329392	-456.319488	-456.318544	-456.364384	35.805	
O	-0.9741388932	 1.6378693274	-0.8336584364	-0.42079
C	-0.4030589575	 0.5500210792	-0.1383311339	-0.073918
C	-1.4028069701	-0.5272287565	 0.3022899902	-0.156087
N	-2.0041435182	-1.2975052646	-0.7922699428	-0.286683
C	-3.3774366559	-0.9943806554	-1.1627624035	-0.134774
C	-3.636971547	 0.4126783219	-1.7662583615	-0.099223
O	-2.7617545024	 0.6830409133	-2.849851924	-0.419617
C	-3.8243294544	-2.0002714024	-2.1442990172	 0.262062
N	-4.1637816774	-2.7276788068	-2.975835024	-0.316389
H	-1.2527317086	 1.3399231084	-1.710772317	 0.30122
H	 0.3975953635	 0.0710198652	-0.7277042996	 0.089145
H	 0.0719066573	 0.9666608935	 0.7574030893	 0.111098
H	-0.8735017774	-1.2176425218	 0.9749927906	 0.105871
H	-2.1985356594	-0.0591364138	 0.892860781	 0.110648
H	-1.4141378774	-1.2911707338	-1.6159812317	 0.223964
H	-4.0093135373	-1.0964302037	-0.2704912193	 0.135277
H	-4.6903355825	 0.506349183	-2.0622013059	 0.117909
H	-3.4117001281	 1.1666401247	-1.0099575083	 0.145236
H	-2.983461964	 0.1010490524	-3.5862884661	 0.305049
68.0735	112.0245	134.0745	156.1688	177.9175	235.4466	249.3664	306.9134	363.528	375.594	458.7962	489.0615	558.088	623.7248	664.3647	706.0398	833.6166	862.7092	882.1613	918.7177	1008.8598	1064.6468	1087.6667	1095.2775	1134.7151	1164.217	1202.6788	1236.6548	1281.901	1302.4622	1332.0562	1375.2495	1390.0121	1410.167	1419.8595	1430.8033	1486.1199	1492.7586	1498.7904	1517.2769	2355.4717	2961.2805	3000.2162	3021.2026	3033.6513	3061.1427	3070.1551	3126.2907	3544.796	3736.8875	3795.2465
OCCNC(CO)C#N	OCCN[C@@H](CO)C#N	
InChI=1S/C5H10N2O2/c6-3-5(4-9)7-1-2-8/h5,7-9H,1-2,4H2	InChI=1S/C5H10N2O2/c6-3-5(4-9)7-1-2-8/h5,7-9H,1-2,4H2/t5-/m1/s1
