14
gdb 98914	7.76966	0.57554	0.53943	6.4546	76.62	-0.2889	-0.0433	0.2457	1904.9338	0.098853	-436.702438	-436.69291	-436.691966	-436.738801	31.372	
C	 0.1967853244	 1.3461277964	 0.0048202247	-0.244138
O	-0.0196313016	-0.0749356567	-0.0011971245	-0.231371
C	-1.3058815175	-0.4594169171	 0.0132247144	 0.475966
O	-2.2485861295	 0.2818646607	 0.029798969	-0.331483
C	-1.3637546454	-1.990542082	 0.0055550018	-0.539553
C	-2.7130655942	-2.5192417232	 0.0148731719	 0.137712
C	-3.8258919809	-2.9848207005	 0.0223452839	 0.049298
C	-5.0864211774	-3.5096144761	 0.0307774313	 0.21406
N	-6.1561477868	-3.9620069303	 0.0378782164	-0.334743
H	 1.278041498	 1.4787519115	-0.006407209	 0.142316
H	-0.257089393	 1.8047224916	-0.8766734833	 0.149749
H	-0.2374650342	 1.7942734515	 0.9014239075	 0.149795
H	-0.8159198086	-2.3479815328	-0.8750217583	 0.181159
H	-0.8006695033	-2.356832983	 0.8728394843	 0.181234
22.4286	62.5489	107.5586	143.6101	165.1418	188.9432	269.8229	356.5552	367.4813	411.4485	570.2648	578.3555	593.9958	696.1449	762.0615	897.4581	950.4579	1016.2077	1172.0271	1179.2231	1204.6419	1210.4459	1226.3593	1348.9109	1434.5626	1474.1535	1481.8194	1496.4102	1843.9259	2274.7883	2411.4375	3038.8722	3057.7599	3071.5446	3135.977	3168.0724
COC(=O)CC#CC#N	COC(=O)CC#CC#N	
InChI=1S/C6H5NO2/c1-9-6(8)4-2-3-5-7/h4H2,1H3	InChI=1S/C6H5NO2/c1-9-6(8)4-2-3-5-7/h4H2,1H3
