19
gdb 112740	2.30502	1.32835	1.00914	2.4913	71.44	-0.2538	0.0611	0.3149	1231.906	0.157287	-460.117672	-460.108486	-460.107542	-460.15203	33.731	
C	 0.3701365735	 1.4090011832	-0.2904640341	-0.409371
C	 0.1225959441	-0.0369443785	 0.085872692	 0.08338
O	 0.9029954236	-0.9738719997	-0.7110206698	-0.337621
C	 1.4575296297	-1.628800891	 0.4642068348	 0.0331
C	 2.9750894799	-1.63936688	 0.3864109199	-0.071512
O	 3.4039543853	-2.300369871	-0.786731391	-0.417763
C	 0.7564353079	-0.6080684754	 1.3551829989	 0.334731
C	 1.1574526903	 0.0245461079	 2.6109597243	-0.260586
O	 0.060255917	-0.9026941887	 2.5420652877	-0.263992
H	 1.4277953644	 1.6672848899	-0.1854854016	 0.121448
H	 0.0723796292	 1.5852770033	-1.3286094881	 0.134099
H	-0.2208711092	 2.0745217468	 0.347917086	 0.124742
H	-0.9467395016	-0.2804488902	 0.0216669763	 0.095332
H	 1.0662281556	-2.6491018485	 0.5668742933	 0.098198
H	 3.3494879777	-0.6036297928	 0.4278680195	 0.082023
H	 3.3962609817	-2.1856915513	 1.2378359787	 0.111203
H	 2.9279069417	-1.8832285525	-1.515388666	 0.295221
H	 2.0356462774	-0.3333578572	 3.1462249476	 0.124732
H	 0.8811478118	 1.0588112958	 2.8100643915	 0.122634
58.0042	105.1363	140.5967	195.8823	217.1643	259.6538	289.7914	368.2712	440.3291	460.0907	490.9678	532.1703	594.4413	776.1658	847.9735	869.5438	900.5385	920.7429	971.2577	1032.9973	1068.2853	1081.703	1094.7908	1115.8715	1124.674	1141.8143	1163.7513	1182.5221	1215.2216	1268.7562	1296.1979	1333.1114	1376.097	1397.3445	1408.8836	1433.9506	1448.8452	1486.8478	1492.2381	1498.1214	1542.0925	2972.5096	3015.2341	3032.2498	3036.8262	3070.1558	3085.3629	3108.8871	3118.2322	3172.4626	3786.3547
CC1OC(CO)C11CO1	C[C@H]1O[C@@H](CO)[C@]21CO2	
InChI=1S/C6H10O3/c1-4-6(3-8-6)5(2-7)9-4/h4-5,7H,2-3H2,1H3	InChI=1S/C6H10O3/c1-4-6(3-8-6)5(2-7)9-4/h4-5,7H,2-3H2,1H3/t4-,5+,6-/m1/s1
