18
gdb 41454	2.83332	2.20117	1.67016	0.7223	75.26	-0.2234	0.0382	0.2616	860.5573	0.149251	-401.791531	-401.785118	-401.784174	-401.821785	27.474	
C	 0.0687341614	 1.5219542068	-0.1840546126	-0.199117
O	 1.530404369	 1.4437565425	 0.0649510884	-0.346682
C	 1.2977586187	 0.2174613936	 0.8338458801	 0.373763
C	 1.076278311	 0.3371256665	 2.3340587413	-0.303551
C	-0.0305546237	-0.7443308129	 2.439671424	-0.16089
N	-0.2173939201	-1.2338891719	 1.0434827275	-0.197855
C	 1.2300814038	-1.3221366483	 0.4450255787	-0.087962
C	 0.6664007522	-0.9508885781	-0.9172620228	-0.252317
C	 0.011418088	 0.0021842616	 0.1055978585	 0.194404
H	-0.4154821851	 2.1831837998	 0.5416248863	 0.119547
H	-0.1502230729	 1.8401024389	-1.2065875321	 0.125728
H	 1.9718205046	 0.1037313755	 2.9162893027	 0.10702
H	 0.7355506976	 1.3347454124	 2.6239475673	 0.106813
H	 0.2483648561	-1.597260312	 3.0647634358	 0.110915
H	-0.979138615	-0.3492337852	 2.8125716971	 0.111105
H	 1.8603625145	-2.1670433859	 0.7412298574	 0.078544
H	 1.3558376639	-0.4831346508	-1.6192323489	 0.114956
H	 0.0068560859	-1.6846978824	-1.3809403888	 0.105581
210.1936	278.1896	352.2921	372.3874	438.7346	474.9094	536.3132	677.7326	685.2175	743.2359	820.4137	826.728	832.8676	857.9078	873.3479	936.0202	948.6959	954.8319	960.9253	1020.4254	1056.6994	1079.9593	1094.9329	1131.25	1139.1266	1156.3918	1180.0078	1193.4259	1211.6287	1247.7037	1256.2993	1275.4509	1278.1209	1302.0422	1329.1241	1487.2272	1487.7175	1494.4453	1514.103	3044.2841	3055.2223	3056.8862	3064.9853	3091.0224	3093.3875	3111.9016	3114.6024	3164.4393
C1OC23CCN4C2CC134	C1O[C@]23CCN4[C@H]2C[C@]134	
InChI=1S/C7H9NO/c1-2-8-5-3-6(8)4-9-7(1,5)6/h5H,1-4H2	InChI=1S/C7H9NO/c1-2-8-5-3-6(8)4-9-7(1,5)6/h5H,1-4H2/t5-,6-,7+/m0/s1
