22
gdb 113734	2.5063	1.08274	0.89486	1.0273	88.77	-0.2182	0.0498	0.268	1432.04	0.191596	-367.149018	-367.138576	-367.137632	-367.184664	38.545	
C	-0.0719148041	 1.7076821837	 0.3379080631	-0.372962
C	 0.24912145	 0.282653718	-0.1065836983	-0.131177
N	 0.8426867797	-0.4626981405	 1.0025009395	-0.091387
C	-0.0399875062	-1.1949478269	 1.9065753029	-0.264325
C	 0.8786389267	-1.920652616	 0.9847273469	 0.010401
C	 0.3910164081	-2.7968137254	-0.1841650201	-0.17099
C	 0.8028736176	-4.2652529844	 0.0703265779	-0.395956
C	-1.044377359	-2.7303847149	-0.4548034605	 0.335997
C	-2.2248376349	-2.7379691773	-0.6868821585	-0.477957
H	 0.8253691988	 2.2030129112	 0.7195569204	 0.123578
H	-0.4680495907	 2.2932855139	-0.497504529	 0.10876
H	-0.821963016	 1.7066749812	 1.1357657052	 0.117066
H	-0.6561524356	-0.1944632413	-0.5087503058	 0.105047
H	 0.9887595077	 0.3075154648	-0.9167865755	 0.097213
H	 0.1854605056	-1.1142054878	 2.9672417688	 0.107345
H	-1.1002311997	-1.2358069337	 1.6633049517	 0.120962
H	 1.8063740767	-2.3146667653	 1.3992424029	 0.08872
H	 0.9183867371	-2.4595209069	-1.0884584974	 0.114075
H	 0.4969537924	-4.901531035	-0.7632793789	 0.127241
H	 1.8882795512	-4.3395049141	 0.1860418024	 0.118643
H	 0.3303824277	-4.6432939184	 0.9814155408	 0.132156
H	-3.2664721629	-2.725737605	-0.8933381285	 0.197549
48.2318	84.0739	123.9487	162.2144	206.3102	222.4866	239.3755	289.3571	306.818	338.5047	412.0756	515.9829	568.3225	617.1871	629.4342	636.1105	722.3507	771.927	815.573	877.1567	921.5281	961.8563	993.0611	1032.8092	1056.3245	1077.0191	1100.4272	1114.0671	1121.2814	1145.8563	1190.9291	1203.2088	1301.3436	1314.1149	1321.1795	1353.423	1387.7295	1396.8758	1409.2757	1414.1707	1488.2033	1493.19	1494.1144	1499.512	1505.232	1520.2751	2227.8145	2997.24	3001.6924	3037.5599	3043.6289	3044.2341	3093.2461	3098.2934	3106.4611	3118.0945	3118.4401	3128.7557	3178.4403	3502.4999
CCN1CC1C(C)C#C	CCN1C[C@H]1[C@@H](C)C#C	
InChI=1S/C8H13N/c1-4-7(3)8-6-9(8)5-2/h1,7-8H,5-6H2,2-3H3	InChI=1S/C8H13N/c1-4-7(3)8-6-9(8)5-2/h1,7-8H,5-6H2,2-3H3/t7-,8-,9?/m0/s1
