20
gdb 106988	2.96468	1.2737	1.0157	1.8356	80.27	-0.2362	-0.0195	0.2167	1249.3853	0.169503	-403.134332	-403.124946	-403.124001	-403.168636	34.534	
C	-0.2721782121	 1.4751666245	 0.1762343949	-0.384103
C	 0.1202699103	-0.0079081131	 0.1041904563	-0.298574
C	 0.7358853951	-0.3540462557	-1.2213220085	 0.225445
C	-0.0197701163	-0.8190520737	-2.4238497748	-0.285648
N	 0.902747168	-1.7653010189	-1.8003985109	-0.180064
C	 2.2848736992	-1.4036861224	-2.3057164178	-0.055072
C	 2.6153314474	-1.6338866721	-3.7692493433	-0.417598
C	 2.1243946812	 0.000123963	-1.675946502	 0.340389
O	 2.8755249566	 0.902065762	-1.4301470744	-0.31852
H	 0.6011744127	 2.1119429861	 0.0100983621	 0.146726
H	-1.0208025322	 1.7237126667	-0.5830785736	 0.11665
H	-0.6913841747	 1.7174866128	 1.1569114991	 0.116545
H	 0.835805123	-0.2389675689	 0.902348855	 0.113006
H	-0.7538837119	-0.6480055047	 0.2685440413	 0.111729
H	-1.0660823242	-1.0627962312	-2.2607822224	 0.131658
H	 0.1941338824	-0.4100968715	-3.4073742601	 0.121579
H	 3.0030403284	-1.9466859092	-1.6787425731	 0.117955
H	 1.9394733557	-1.1053546491	-4.4462415863	 0.123329
H	 3.6307708151	-1.2804851313	-3.9722755545	 0.140565
H	 2.5719023963	-2.7015522833	-4.006358357	 0.134002
66.0676	99.8056	172.2582	182.1355	189.1742	220.3537	264.5146	338.2185	363.2065	471.4814	532.1725	637.9479	670.8928	728.3369	760.7842	791.5879	827.9153	862.8161	918.6029	971.7913	995.7888	1066.9224	1077.2501	1096.4667	1098.6941	1128.8138	1133.0404	1166.4661	1235.4509	1259.1774	1324.3087	1330.8054	1353.098	1383.2745	1405.2836	1412.0137	1483.8528	1487.3139	1494.4929	1498.0353	1510.0201	1512.073	1877.795	3032.5959	3040.1278	3040.7355	3043.8993	3070.383	3110.009	3110.9288	3113.7484	3121.4235	3122.6872	3196.3326
CCC12CN1C(C)C2=O	CC[C@]12CN1[C@@H](C)C2=O	
InChI=1S/C7H11NO/c1-3-7-4-8(7)5(2)6(7)9/h5H,3-4H2,1-2H3	InChI=1S/C7H11NO/c1-3-7-4-8(7)5(2)6(7)9/h5H,3-4H2,1-2H3/t5-,7+,8?/m0/s1
