19
gdb 80628	2.73152	1.59661	1.26398	3.4097	78.92	-0.2447	0.031	0.2757	1042.3256	0.161746	-382.05454	-382.046812	-382.045868	-382.086598	30.437	
C	-0.1367367978	 1.5471648655	 0.1004511587	-0.414181
C	 0.0608681745	 0.040487633	 0.053866512	 0.037539
C	 0.9821783223	-0.5364601873	-1.1236796555	-0.185298
C	 1.6188091995	 0.4650561129	-1.9669503041	 0.276216
N	 2.1286175425	 1.265071847	-2.629047978	-0.338902
C	 1.9746691777	-1.3088185199	-0.2188184205	-0.031468
C	 0.9932603401	-1.9279937941	 0.803500569	-0.189371
N	 0.7426233915	-0.5056733086	 1.2623819437	-0.119362
C	 2.203997086	-0.2785857102	 0.9115200889	-0.192615
H	 0.8079933015	 2.0943293329	 0.1505972696	 0.136861
H	-0.6653772976	 1.891614763	-0.7931197457	 0.130888
H	-0.7321766021	 1.8074848095	 0.979391922	 0.130873
H	-0.9195558442	-0.4402844387	-0.0125880407	 0.090686
H	 0.4155653385	-1.2132414792	-1.7700866229	 0.120427
H	 2.7740667889	-1.8596731238	-0.7159378535	 0.085552
H	 0.1086463803	-2.4624085367	 0.4435979984	 0.103706
H	 1.4865660271	-2.4996917445	 1.5918948813	 0.116557
H	 2.8392798919	-0.6479204228	 1.7183895365	 0.117819
H	 2.4824063893	 0.7449318219	 0.6538073208	 0.124073
118.2544	147.1155	192.3754	248.6618	308.1278	395.9064	477.7169	499.2058	534.7595	593.5317	699.376	765.2746	803.3695	837.1713	859.6924	888.3216	893.4376	948.7011	999.4905	1020.2142	1041.2145	1060.3465	1087.364	1098.8256	1122.4858	1160.1999	1185.8766	1207.6012	1231.6584	1244.681	1274.4268	1296.1745	1318.2704	1342.7804	1385.7916	1416.8961	1484.2441	1491.9739	1504.1671	1533.8406	2347.287	3049.9506	3052.4134	3057.158	3070.5727	3078.1757	3111.6269	3120.5735	3123.6451	3128.3422	3138.9016
CC1C(C#N)C2CN1C2	C[C@H]1[C@@H](C#N)[C@@H]2CN1C2	
InChI=1S/C7H10N2/c1-5-7(2-8)6-3-9(5)4-6/h5-7H,3-4H2,1H3	InChI=1S/C7H10N2/c1-5-7(2-8)6-3-9(5)4-6/h5-7H,3-4H2,1H3/t5-,7+/m0/s1
