21
gdb 39111	3.68337	1.14039	1.06319	1.504	83.12	-0.2279	0.0793	0.3072	1236.9361	0.183419	-387.037857	-387.029739	-387.028795	-387.070892	31.749	
C	 0.0096976783	 1.5176398906	 0.1175201996	-0.339341
C	 1.3474703871	 0.8257013552	-0.0661762237	-0.193895
C	 1.6770379899	 0.0595706473	 1.2060616909	-0.086961
O	 0.3773429127	-0.5911314118	 1.202504439	-0.32522
C	 0.0543700669	 0.0288553187	-0.0574928001	 0.485162
C	-0.6887781023	-0.7887539549	-1.0525727494	-0.081049
C	-0.1948889717	-2.2335128178	-1.3593259428	-0.231466
C	-1.6752829232	-2.6986939851	-1.3753137228	-0.213652
C	-2.0549800091	-1.4024656229	-0.6110201654	-0.229156
H	-0.2655184647	 1.9385380628	 1.0813392007	 0.111539
H	-0.3292353198	 2.0814314714	-0.7463410711	 0.112208
H	 2.0316539292	 1.0560498314	-0.8717232334	 0.0984
H	 2.4771116546	-0.6792843236	 1.0833990999	 0.106979
H	 1.8464927886	 0.6392773248	 2.1218325459	 0.102104
H	-0.805462745	-0.2079265672	-1.9734833001	 0.068616
H	 0.4024695554	-2.3844315765	-2.2618133739	 0.090379
H	 0.3459124854	-2.6371238641	-0.499568462	 0.115304
H	-2.0876961467	-2.7069052966	-2.3886849329	 0.09797
H	-1.9104320548	-3.6526417717	-0.8982012351	 0.09734
H	-2.0723290806	-1.5612872923	 0.470474326	 0.120955
H	-2.9650070602	-0.8751398576	-0.9064792194	 0.093785
73.7615	114.6035	131.1966	228.2493	306.4627	354.0527	417.3261	502.3728	574.4841	708.6959	754.4696	777.4488	819.3473	852.6425	892.0668	919.7346	934.7995	951.5125	953.5246	971.6579	979.8167	994.9571	1014.5856	1021.3158	1049.1363	1071.1093	1100.355	1131.8579	1166.6586	1194.5493	1203.9796	1245.6078	1250.2537	1258.6536	1274.406	1280.6333	1284.089	1323.9558	1344.7091	1428.6521	1474.9693	1485.6411	1487.7583	1511.0537	1517.8579	3018.9976	3053.1817	3055.3806	3059.9265	3065.0066	3067.3322	3101.2473	3109.7017	3115.8249	3126.0745	3197.8041	3206.3723
C1C2COC12C1CCC1	C1[C@H]2CO[C@@]12C1CCC1	
InChI=1S/C8H12O/c1-2-6(3-1)8-4-7(8)5-9-8/h6-7H,1-5H2	InChI=1S/C8H12O/c1-2-6(3-1)8-4-7(8)5-9-8/h6-7H,1-5H2/t7-,8+/m0/s1
