23
gdb 122195	3.5474	0.79979	0.76676	1.4161	82.91	-0.2422	0.0791	0.3213	1640.798	0.203346	-425.409867	-425.399313	-425.398368	-425.446433	37.639	
C	-1.2340636554	 0.8610844068	 0.3982742848	-0.385695
C	 0.0334774159	 0.0931283949	 0.0644242156	-0.02182
O	 0.4540904236	-0.6082264024	 1.2175739164	-0.251907
C	 1.6231813935	-1.3712986184	 1.0179322912	-0.095022
C	 1.9737278712	-2.0791569609	 2.3247060424	 0.408069
C	 2.2891307299	-1.0993600502	 3.4409523046	-0.438046
C	 1.0395219239	-3.2647199603	 2.674920915	-0.316565
C	 2.2537968307	-4.1457653471	 2.3271756061	-0.070248
O	 3.0826162202	-2.9903673686	 2.0760776831	-0.328163
H	-1.049934536	 1.5719826621	 1.2087957415	 0.126544
H	-1.5857711094	 1.4154159003	-0.4769518195	 0.115345
H	-2.025000666	 0.1760849091	 0.71680299	 0.125715
H	-0.1479466832	-0.6135606919	-0.7631195353	 0.085789
H	 0.8276269725	 0.7813852717	-0.2709272143	 0.087568
H	 1.472064559	-2.1218010903	 0.2246855349	 0.083782
H	 2.468415043	-0.7329446831	 0.7091046664	 0.090288
H	 1.4373085282	-0.434198598	 3.6072663889	 0.133155
H	 2.5182654999	-1.6298667308	 4.3692626802	 0.111644
H	 3.1579365329	-0.4889471101	 3.1721956345	 0.119094
H	 0.7261624693	-3.3005492108	 3.7194913313	 0.107325
H	 0.163256188	-3.368788152	 2.0339033303	 0.111961
H	 2.6526283032	-4.763398194	 3.1406204438	 0.101855
H	 2.144563755	-4.7725594962	 1.4332115381	 0.099332
49.5907	69.6711	85.5451	115.4667	149.031	217.0167	246.1654	276.951	316.71	338.3807	377.8332	464.4521	501.859	693.2477	782.7066	820.572	863.9876	880.072	900.3042	960.9141	972.431	993.8727	1013.7434	1028.655	1042.491	1126.2688	1153.9064	1162.3049	1166.2721	1181.1335	1207.0859	1212.4568	1246.4954	1285.146	1297.3051	1313.8934	1354.4263	1378.3525	1400.1915	1405.3224	1446.6121	1482.8439	1483.6984	1489.9158	1492.9687	1499.2609	1512.9754	1531.2484	1534.9686	2950.974	2962.9336	2980.5665	2991.2599	3014.5614	3038.6222	3044.8235	3052.9628	3082.0119	3109.2935	3119.4171	3121.1543	3126.1977	3136.9057
CCOCC1(C)CCO1	CCOC[C@@]1(C)CCO1	
InChI=1S/C7H14O2/c1-3-8-6-7(2)4-5-9-7/h3-6H2,1-2H3	InChI=1S/C7H14O2/c1-3-8-6-7(2)4-5-9-7/h3-6H2,1-2H3/t7-/m1/s1
