21
gdb 76829	2.3603	1.54448	1.24557	2.927	81.73	-0.2346	-0.0179	0.2166	1118.8304	0.181854	-387.090079	-387.081207	-387.080263	-387.123869	34.197	
C	-0.8584450737	 1.2113613426	-0.0363015578	-0.413764
C	-0.0926201721	-0.1040167481	 0.0344311255	 0.015915
C	 1.0787424125	-0.3848375616	-0.9800647028	-0.002635
C	 1.5081311951	 0.6923116554	-1.9699724019	-0.408236
C	 2.0332451503	-0.7085511039	 0.2232085488	-0.172846
C	 0.8683981599	-0.3670924298	 1.2308003171	-0.048345
C	 1.6782306109	 0.8462811304	 1.7706667847	-0.366273
C	 2.793278493	 0.506955689	 0.7621884832	 0.418977
O	 3.8629338619	 0.9891769756	 0.520896727	-0.308948
H	-0.20107402	 2.0855858838	-0.0269167827	 0.119226
H	-1.4574559118	 1.2649152326	-0.9517534584	 0.117508
H	-1.5448395557	 1.3045822934	 0.8128229971	 0.116098
H	-0.8177815081	-0.9221528652	-0.0234962859	 0.075296
H	 0.8780901472	-1.3047421966	-1.5368383312	 0.081652
H	 1.7321405441	 1.6464267539	-1.4843703046	 0.124679
H	 2.4126935555	 0.3834199196	-2.5040934525	 0.126665
H	 0.7246009049	 0.8710539841	-2.7141111821	 0.1131
H	 2.5801675028	-1.6517008994	 0.1802961207	 0.084545
H	 0.5254812758	-1.0722834135	 1.9872415021	 0.071372
H	 1.2411557646	 1.8458599583	 1.7002267833	 0.124289
H	 2.0270907028	 0.7047072492	 2.7996674905	 0.131725
38.0331	125.5163	214.7074	220.9925	242.8806	270.1348	353.138	417.5776	429.8704	510.7102	536.3811	571.6403	710.8611	726.973	775.3921	838.261	862.013	889.4187	945.9268	969.1928	1005.8036	1017.2847	1045.7238	1077.5755	1093.3168	1110.5165	1128.6363	1165.8322	1179.0378	1189.9962	1213.697	1233.6405	1273.5196	1305.9826	1322.3385	1361.5593	1366.8838	1411.123	1418.506	1436.5723	1487.6221	1493.1071	1503.3358	1507.8987	1879.4886	3031.0147	3036.3119	3037.6731	3051.483	3057.5657	3093.1523	3099.0473	3100.213	3102.9006	3107.8785	3112.212	3116.4343
CC1C(C)C2C1CC2=O	C[C@H]1[C@@H](C)[C@@H]2[C@H]1CC2=O	
InChI=1S/C8H12O/c1-4-5(2)8-6(4)3-7(8)9/h4-6,8H,3H2,1-2H3	InChI=1S/C8H12O/c1-4-5(2)8-6(4)3-7(8)9/h4-6,8H,3H2,1-2H3/t4-,5+,6-,8+/m0/s1
