18
gdb 36296	3.53114	1.17227	1.1064	1.7058	82.21	-0.2292	0.0035	0.2327	1161.7088	0.147499	-364.747784	-364.739781	-364.738837	-364.780704	31.203	
C	 0.0510326002	-1.0771057243	 0.5218382419	-0.443937
C	 0.0300796507	 0.0379270825	 0.0752165257	 0.324975
C	-0.0172914848	 1.3992356557	-0.4504949031	-0.314408
N	 1.2597052707	 2.0820349447	-0.2523910942	-0.094682
C	 1.3409351186	 3.5360874133	-0.2773946424	-0.039411
C	 0.0866319413	 4.3906312808	-0.0709429979	-0.283718
C	-0.3812103429	 4.0148384208	 1.3192005223	-0.083057
C	 0.4609453159	 3.1641663404	 1.9136847633	-0.072959
C	 1.5810945222	 2.7799759854	 1.0052568897	-0.062397
H	 0.0742521179	-2.065515351	 0.9087372797	 0.194852
H	-0.1984026575	 1.3709041568	-1.5323878853	 0.131994
H	-0.8761914452	 1.9186233334	 0.0024179428	 0.12164
H	 2.1475666307	 3.9367059077	-0.8845045229	 0.0935
H	 0.3386601101	 5.456377944	-0.1387792669	 0.115882
H	-0.6828865734	 4.2115466001	-0.8338478453	 0.115816
H	-1.3079977167	 4.3854576783	 1.7434898833	 0.100345
H	 0.347023895	 2.7552586171	 2.9105227239	 0.102257
H	 2.564961517	 2.5569441944	 1.4064396954	 0.093308
46.2553	123.7664	224.0919	249.6641	337.8978	356.2032	449.0979	512.6071	554.5863	606.0734	652.9498	702.9172	734.4997	783.4841	799.0499	849.2023	911.995	932.0414	954.6392	959.9972	989.9564	997.4896	1024.1263	1037.3514	1069.7716	1116.4685	1136.3055	1183.7145	1265.8686	1294.6744	1301.4035	1309.7644	1359.1127	1377.0216	1390.6265	1467.3886	1478.57	1661.7224	2242.8449	2978.645	3022.2966	3039.7265	3048.4422	3145.3611	3156.643	3186.4089	3214.2821	3507.5171
C#CCN1C2CC=CC12	C#CCN1[C@H]2CC=C[C@@H]12	
InChI=1S/C8H9N/c1-2-6-9-7-4-3-5-8(7)9/h1,3-4,7-8H,5-6H2	InChI=1S/C8H9N/c1-2-6-9-7-4-3-5-8(7)9/h1,3-4,7-8H,5-6H2/t7-,8+,9?/m1/s1
