20
gdb 104585	2.15017	1.33214	0.97425	2.9625	74.82	-0.2409	0.0283	0.2692	1277.0929	0.169545	-440.309346	-440.299433	-440.298489	-440.345369	36.177	
C	 0.9740418462	-0.9773394627	-0.2236111823	-0.389466
C	-0.1833185285	-0.4139957931	 0.6104406544	-0.254681
C	-1.551168265	-0.640880065	-0.0076785834	 0.41306
C	-1.8486770616	 0.0674867199	-1.320904153	-0.367103
C	-1.8627961086	 1.5943521141	-1.1750488628	 0.377258
N	-2.8222062904	 2.0536169463	-0.3194982119	-0.508048
O	-1.1060296879	 2.3218215158	-1.787607575	-0.36344
C	-2.3171224779	-1.8476959044	 0.3414056848	-0.237014
O	-2.6444251069	-0.5862125983	 0.9363798824	-0.290239
H	 1.9224799843	-0.8492103717	 0.305622666	 0.121973
H	 0.8416040514	-2.0468570008	-0.4195034362	 0.115093
H	 1.0641002654	-0.4646017648	-1.1855878968	 0.138531
H	-0.190016149	-0.8683167883	 1.606692478	 0.107666
H	-0.038430165	 0.6630301008	 0.7590063043	 0.121672
H	-1.096035692	-0.1758531886	-2.0726296864	 0.131793
H	-2.8240710634	-0.2625336282	-1.6928775879	 0.117876
H	-3.2899683898	 1.4110610647	 0.3017496933	 0.2745
H	-2.8133231129	 3.0350784931	-0.0927449654	 0.256397
H	-3.0553625094	-2.2430294548	-0.354699558	 0.11641
H	-1.8899435291	-2.5793522141	 1.0257860959	 0.117763
32.4479	44.973	107.33	170.36	215.2231	249.5893	340.6872	348.7793	376.3616	422.8276	450.3244	506.3027	549.7182	600.8062	685.3962	764.1245	792.3743	834.1832	877.4635	911.9039	946.1497	956.3802	1006.3377	1072.6026	1106.9706	1127.338	1134.3039	1164.6288	1193.3127	1253.5682	1291.2894	1308.3306	1361.0642	1363.7647	1412.5935	1419.4709	1468.3187	1484.9187	1501.9472	1510.9975	1528.0134	1623.1942	1803.8869	3036.0069	3040.5262	3058.5754	3076.4319	3083.6285	3108.3511	3117.7498	3129.6414	3170.3263	3570.7422	3709.3321
CCC1(CC(N)=O)CO1	CC[C@@]1(CC(=O)N)CO1	
InChI=1S/C6H11NO2/c1-2-6(4-9-6)3-5(7)8/h2-4H2,1H3,(H2,7,8)	InChI=1S/C6H11NO2/c1-2-6(4-9-6)3-5(7)8/h2-4H2,1H3,(H2,7,8)/t6-/m1/s1
