22
gdb 88669	4.14547	0.81983	0.74574	0.7891	83.46	-0.223	0.0766	0.2997	1570.7939	0.193601	-404.299647	-404.290191	-404.289247	-404.334375	35.751	
C	 2.8148938078	-0.6751018357	 0.2890915835	-0.312048
N	 1.5376523311	-1.3331955039	 0.5192353488	-0.085623
C	 1.4674271543	-2.3307121465	 1.5791513121	-0.262177
C	 0.7569614579	-1.0245207234	 1.7200442582	 0.00661
C	 1.1687260344	-0.0121169026	 2.7562409715	 0.027579
C	 0.7599811131	 1.477738391	 2.5518876899	-0.287852
C	 0.4834923779	 1.5551772494	 4.0758285225	 0.171768
O	-0.5627150161	 2.3489669707	 4.570893	-0.431879
C	 0.375146998	 0.0073511785	 4.0968158438	-0.292316
H	 3.444224047	-0.5596567305	 1.1854247544	 0.09906
H	 3.3816678233	-1.2623369436	-0.4406851499	 0.123392
H	 2.640989328	 0.3177553555	-0.138313556	 0.123443
H	 0.92642366	-3.2449155944	 1.3473058925	 0.111953
H	 2.3518613367	-2.474773104	 2.2009751023	 0.101102
H	-0.3162286862	-1.0140163978	 1.520675473	 0.077773
H	 2.2392249494	-0.082582978	 2.9655020336	 0.072607
H	 1.4834694018	 2.1688719078	 2.1133730742	 0.102017
H	-0.1782662482	 1.5451652874	 1.9870238552	 0.092214
H	 1.3775683156	 1.8852343657	 4.6138808719	 0.093026
H	-1.3706619346	 2.0968285534	 4.1112979469	 0.275508
H	-0.6640918392	-0.305213903	 3.9352664183	 0.09128
H	 0.776234918	-0.537377986	 4.9543774033	 0.102564
50.7152	83.5508	132.9165	202.2548	224.8719	297.3647	328.4757	354.834	393.7662	409.2446	455.8298	524.1125	620.0539	741.5109	780.3975	808.5047	883.8401	915.462	929.1338	970.0065	1018.9641	1032.9678	1045.5085	1064.068	1090.5386	1111.4148	1128.1341	1137.4542	1156.4082	1166.2558	1203.3665	1213.3746	1227.2086	1249.8478	1262.0815	1290.0218	1311.9435	1334.6488	1342.6252	1427.9249	1445.4474	1450.4061	1469.9871	1488.7022	1498.2827	1501.8572	1512.0761	2978.6132	3029.873	3035.4654	3062.9189	3065.7191	3069.1364	3078.1931	3085.2187	3099.6649	3104.4281	3111.7789	3165.718	3805.7918
CN1CC1C1CC(O)C1	CN1C[C@H]1[C@H]1C[C@@H](O)C1	
InChI=1S/C7H13NO/c1-8-4-7(8)5-2-6(9)3-5/h5-7,9H,2-4H2,1H3	InChI=1S/C7H13NO/c1-8-4-7(8)5-2-6(9)3-5/h5-7,9H,2-4H2,1H3/t5-,6+,7-,8?/m0/s1
