23
gdb 121960	5.91773	0.53013	0.50774	1.725	89.34	-0.2542	0.0493	0.3036	2219.4789	0.20223	-388.265107	-388.253651	-388.252707	-388.302558	40.959	
C	-0.0144786857	 1.5754852393	 0.1239117427	-0.379737
C	 0.0090319822	 0.0468439898	 0.0396626251	-0.165833
C	 0.6913879469	-0.4730019565	-1.2298369618	-0.163208
C	 0.715002578	-2.0013591328	-1.3256378537	-0.200035
C	 1.4524262641	-2.5201232076	-2.5668869183	 0.125199
O	 2.7945194333	-2.059444745	-2.6194003602	-0.418913
C	 1.3786496368	-4.06190168	-2.65750368	-0.391707
C	 2.0093948746	-4.6084664373	-3.8513939276	 0.313291
C	 2.5196503989	-5.0555219288	-4.8431460929	-0.436981
H	 1.0007739923	 1.9872286114	 0.1123047084	 0.11498
H	-0.5549711382	 2.0099620473	-0.7244023368	 0.114194
H	-0.5033214979	 1.9189102306	 1.0410048954	 0.110147
H	 0.5234305163	-0.360636728	 0.920502953	 0.091508
H	-1.0183635899	-0.3387652398	 0.0859934696	 0.092135
H	 0.1778550315	-0.0651117007	-2.11169065	 0.09242
H	 1.7206352403	-0.0997661163	-1.2810214221	 0.107994
H	 1.1961773131	-2.4222666267	-0.4290311225	 0.0823
H	-0.3116567166	-2.3913885735	-1.330733699	 0.093995
H	 0.9851554012	-2.1011326314	-3.466052788	 0.099679
H	 3.2722453305	-2.449902154	-1.8785614551	 0.277514
H	 1.848701811	-4.4895222829	-1.7594352863	 0.117315
H	 0.3259131246	-4.3702263433	-2.6211718494	 0.130511
H	 2.9756345429	-5.4476302739	-5.7179617506	 0.193231
47.157	65.7181	81.6439	102.6463	153.6699	164.8889	250.5626	266.7686	277.9307	303.3048	346.2082	381.3471	437.822	482.2895	591.9094	617.1336	636.0718	736.7325	792.6525	859.4224	897.7198	908.2543	952.1902	983.2345	1024.4738	1041.9183	1070.3827	1093.2005	1121.0654	1144.9682	1194.0409	1232.7125	1259.8356	1301.4085	1307.6275	1328.5845	1356.2686	1362.3214	1381.8997	1399.1583	1414.3549	1422.7502	1462.7362	1479.8445	1485.8455	1499.8758	1500.6011	1513.3193	2241.5378	2989.0671	3000.9827	3008.0958	3017.2796	3029.9248	3034.2018	3037.7163	3041.2352	3057.8213	3074.9536	3097.0286	3101.6047	3508.2671	3792.4496
CCCCC(O)CC#C	CCCC[C@@H](O)CC#C	
InChI=1S/C8H14O/c1-3-5-7-8(9)6-4-2/h2,8-9H,3,5-7H2,1H3	InChI=1S/C8H14O/c1-3-5-7-8(9)6-4-2/h2,8-9H,3,5-7H2,1H3/t8-/m0/s1
