13
gdb 27864	2.12681	1.99954	1.03061	2.9572	65.59	-0.2345	-0.0256	0.2089	1052.7456	0.091293	-486.13437	-486.12676	-486.125816	-486.166731	28.105	
N	 0.0429407643	 1.2852373021	 0.0074767577	-0.559246
C	-0.0391702571	-0.0514129832	 0.0006394575	 0.536809
N	-1.1953557532	-0.6562393327	 0.0037765615	-0.39101
C	-1.0806564305	-2.0081741049	-0.0042343314	 0.433701
O	-2.2536467801	-2.6402383779	-0.0014153944	-0.377595
N	 0.0083334699	-2.7273723459	-0.0142833152	-0.427783
C	 1.2055230871	-2.0674896622	-0.0171879441	 0.424558
N	 2.3823760153	-2.5234680875	-0.0265541831	-0.5367
O	 1.1524432217	-0.6421761597	-0.0091503095	-0.220872
H	 0.9398966463	 1.7374696516	 0.0052744022	 0.28712
H	-0.8077975363	 1.8195020729	 0.0153738629	 0.288687
H	-2.0482428604	-3.5864319439	-0.0078258646	 0.310264
H	 2.332076303	-3.5405407189	-0.0321137697	 0.232067
108.4002	150.4507	181.5486	197.4915	338.6787	382.5145	546.3256	556.8922	567.4382	582.5198	615.2725	677.9999	728.6692	746.6459	803.5455	850.0348	864.4654	976.0204	1068.7492	1080.9167	1182.5804	1246.7013	1289.1656	1447.4023	1514.7662	1579.7057	1641.7076	1682.4496	1774.7977	3524.3726	3629.7309	3766.9208	3768.2312
NC1=NC(O)=NC(=N)O1	NC1=N[C@@H](O)N=C([NH])O1	
InChI=1S/C3H4N4O2/c4-1-6-3(8)7-2(5)9-1/h(H4,4,5,6,7,8)	InChI=1S/C3H5N4O2/c4-1-6-3(8)7-2(5)9-1/h3-4,8H,(H2,5,7)/t3-/m0/s1
