13
gdb 10798	5.08041	1.61268	1.27357	2.5961	54.55	-0.2621	-0.0457	0.2164	875.0924	0.096543	-435.791971	-435.785149	-435.784205	-435.823577	24.574	
O	 0.0302565517	 0.0455993828	 0.574553675	-0.283636
C	-0.0099995737	 1.1363761439	 0.0690198707	 0.378489
C	-1.3076877167	 1.8276204215	-0.3280418842	-0.274404
N	-1.0735178415	 3.2473366972	-0.5460673904	-0.367641
C	-0.020118923	 3.6977396026	-1.3120655021	 0.449312
O	-0.0065865152	 4.7343080814	-1.9188054506	-0.367722
O	 1.0538879736	 2.8545698955	-1.3296197695	-0.232993
C	 1.2313971319	 1.9650487051	-0.2274133362	-0.179532
H	-1.6999829018	 1.3157563579	-1.2212491001	 0.149499
H	-2.0368867516	 1.6869674348	 0.4739675793	 0.154974
H	-1.8861362691	 3.8403559661	-0.6270537127	 0.266082
H	 1.4946472441	 2.5292621474	 0.6790059291	 0.148385
H	 2.0657076612	 1.3089430438	-0.4790182882	 0.159189
60.0881	162.1894	190.7065	382.7646	417.1675	446.08	512.5044	584.479	614.8455	735.5182	769.7955	788.4516	843.868	942.8033	1040.2387	1071.0792	1127.5273	1206.6863	1231.1827	1246.3027	1287.1786	1351.2314	1390.2103	1454.1743	1467.6502	1488.6915	1846.7798	1866.2556	2985.8481	3013.648	3098.4838	3132.2491	3620.9572
O=C1CNC(=O)OC1	O=C1CNC(=O)OC1	
InChI=1S/C4H5NO3/c6-3-1-5-4(7)8-2-3/h1-2H2,(H,5,7)	InChI=1S/C4H5NO3/c6-3-1-5-4(7)8-2-3/h1-2H2,(H,5,7)
