17
gdb 11382	4.31713	1.41016	1.12714	4.3518	71.2	-0.2412	-0.0263	0.215	1058.1231	0.143072	-363.917673	-363.909881	-363.908937	-363.950011	28.907	
C	 0.0639608546	 1.5767017535	 0.0125105576	-0.390941
C	 0.0340123219	 0.0474878871	 0.0750020538	-0.170238
C	-1.3885998352	-0.5379650438	 0.0053673991	-0.015197
N	-2.0653600997	-0.286374542	-1.2521073157	-0.32905
C	-2.5270188031	-1.4328976104	-1.8704566611	 0.397718
O	-3.1827455163	-1.4878905422	-2.8888849789	-0.384825
C	-2.0393062655	-2.5508255571	-1.0054977341	-0.197188
C	-1.4125601498	-2.0479224175	 0.0579469018	-0.072375
H	 1.0878958254	 1.9515334782	 0.0985193649	 0.123138
H	-0.3400693095	 1.9448718756	-0.9362163087	 0.120569
H	-0.5225038948	 2.0207184954	 0.8249192431	 0.117086
H	 0.6225029351	-0.3775502856	-0.7456878178	 0.112579
H	 0.4946571877	-0.2924894065	 1.0109427118	 0.100554
H	-1.9701085669	-0.1294681731	 0.8491759687	 0.095769
H	-2.383702362	 0.6209895782	-1.5468992744	 0.252199
H	-2.2128624413	-3.5873574095	-1.2568675814	 0.123193
H	-0.9458725906	-2.5937903604	 0.8684020712	 0.117008
89.1974	108.791	176.9379	226.3325	300.3238	399.4602	421.9834	475.8461	512.2404	662.7182	703.7462	747.9231	818.7787	840.4568	886.0771	926.8039	970.9915	977.742	1031.8221	1059.2787	1092.838	1131.4296	1141.4788	1219.1257	1281.1926	1286.7732	1333.0274	1369.7623	1380.1258	1407.1692	1417.6551	1479.3205	1498.71	1507.2826	1655.6301	1822.9883	2962.7138	3029.8958	3032.856	3072.3597	3102.3702	3109.2781	3211.0741	3248.7416	3670.3069
CCC1NC(=O)C=C1	CC[C@H]1NC(=O)C=C1	
InChI=1S/C6H9NO/c1-2-5-3-4-6(8)7-5/h3-5H,2H2,1H3,(H,7,8)	InChI=1S/C6H9NO/c1-2-5-3-4-6(8)7-5/h3-5H,2H2,1H3,(H,7,8)/t5-/m1/s1
