20
gdb 13724	6.16885	0.81605	0.76831	2.4266	73.42	-0.2526	0.0865	0.3391	1544.5653	0.174344	-386.115427	-386.105795	-386.104851	-386.150751	33.397	
C	-0.1491661982	 1.5438260448	-0.2492308817	-0.384745
C	-0.0247026681	 0.0515694948	 0.0061551493	-0.025018
O	-1.3224194806	-0.5036563388	 0.0715937083	-0.245205
C	-1.3221652756	-1.8916749093	 0.3196627914	-0.081948
C	-2.7540277742	-2.356611059	 0.3623237673	 0.051936
O	-3.3489365975	-2.8079931789	-0.858723325	-0.256396
C	-3.1712453445	-3.7577843795	 0.1967528195	 0.076457
C	-2.2368291907	-4.9165383482	-0.0508105441	-0.420765
H	 0.8414286339	 2.0048081014	-0.3063623795	 0.113974
H	-0.674247186	 1.7285256554	-1.1905267073	 0.130556
H	-0.710967055	 2.025210248	 0.5562432975	 0.12627
H	 0.5554998073	-0.4321405486	-0.7980677635	 0.086906
H	 0.5172769453	-0.1369414246	 0.9493525697	 0.082894
H	-0.7694960541	-2.4290707004	-0.4649016626	 0.09543
H	-0.8316003873	-2.1096154583	 1.2859302562	 0.085483
H	-3.395028609	-1.6999504546	 0.9530451918	 0.09548
H	-4.1065690744	-4.0400733523	 0.6857851532	 0.087427
H	-1.3139732608	-4.6007721101	-0.5408489622	 0.127798
H	-1.9814638396	-5.4085601016	 0.8941552788	 0.12221
H	-2.722577041	-5.6596230602	-0.6918663372	 0.131256
46.9594	79.8721	104.7551	132.0112	167.2591	214.5238	248.6963	303.2455	385.9656	419.2986	481.1442	547.623	766.9113	822.6359	839.4121	905.776	918.8057	988.6015	1024.3019	1043.0759	1090.9417	1118.9589	1150.8696	1159.9733	1175.7304	1185.6382	1195.0773	1267.9716	1296.8537	1306.1234	1356.0297	1396.7452	1407.8877	1415.279	1445.0303	1473.4034	1483.7383	1489.9883	1498.3303	1502.7574	1515.9922	1534.6612	2939.5168	2952.2632	2974.5979	3009.7817	3039.3571	3045.635	3077.0625	3099.1398	3102.9324	3119.7884	3123.1458	3136.2514
CCOCC1OC1C	CCOC[C@H]1O[C@H]1C	
InChI=1S/C6H12O2/c1-3-7-4-6-5(2)8-6/h5-6H,3-4H2,1-2H3	InChI=1S/C6H12O2/c1-3-7-4-6-5(2)8-6/h5-6H,3-4H2,1-2H3/t5-,6+/m0/s1
