20
gdb 16498	3.50612	2.23333	1.89173	0.1784	77.71	-0.241	0.0968	0.3378	817.6008	0.179828	-311.835904	-311.829332	-311.828388	-311.865989	28.042	
C	 0.0125425674	 1.4653893529	-0.0008021464	-0.478501
C	-0.0099649499	-0.0431559878	-0.0124255762	 0.376446
C	-0.8846760717	-0.8090034097	 0.9542801924	-0.367869
C	 0.6196664051	-0.9266524919	 1.0524415811	-0.065524
C	 1.3742987568	-1.9401278839	 0.1669155108	-0.034729
C	 0.3713582124	-2.2798709992	-0.9688479824	-0.235219
C	 0.5144303902	-0.7666912849	-1.2782761749	-0.080577
C	 2.0210196956	-0.9633502418	-0.8771288789	-0.212201
H	 0.9658300149	 1.8556516887	-0.3766224273	 0.113407
H	-0.7835695101	 1.8822532241	-0.630052236	 0.113867
H	-0.129943696	 1.8578852619	 1.0113919907	 0.111828
H	-1.3504157892	-0.2025868088	 1.7262711851	 0.101396
H	-1.5025201251	-1.6439246822	 0.6460263249	 0.107984
H	 1.1315104205	-0.5100601833	 1.9136870845	 0.079486
H	 1.9507861455	-2.7171732211	 0.6702721881	 0.05686
H	 0.8413408171	-2.8902978693	-1.7429203607	 0.093841
H	-0.6061678253	-2.6997070167	-0.7299781456	 0.090797
H	 0.2219261333	-0.3491029522	-2.2431626486	 0.053907
H	 2.5620856774	-0.0957322474	-0.4890784181	 0.087539
H	 2.612974371	-1.4710674676	-1.6441099023	 0.087262
207.1781	219.9658	287.8899	384.2309	452.2396	513.7232	543.789	584.7952	699.7729	783.6137	818.5355	837.8887	847.3712	886.8411	892.0965	927.6692	962.2536	975.8277	998.8408	1024.5731	1035.9635	1051.5123	1062.1531	1082.9335	1093.3944	1103.513	1129.5124	1140.9057	1218.9145	1229.3387	1241.5695	1248.0141	1279.9957	1296.9274	1310.5597	1386.8235	1420.1089	1480.5953	1488.2951	1501.245	1502.7133	1539.2938	3017.1486	3048.6205	3072.8998	3075.7762	3092.4061	3099.0621	3104.9141	3110.6639	3122.8115	3130.9238	3162.5921	3204.2418
CC12CC1C1CC2C1	C[C@]12C[C@H]1[C@H]1C[C@@H]2C1	
InChI=1S/C8H12/c1-8-4-7(8)5-2-6(8)3-5/h5-7H,2-4H2,1H3	InChI=1S/C8H12/c1-8-4-7(8)5-2-6(8)3-5/h5-7H,2-4H2,1H3/t5-,6+,7-,8+/m0/s1
