16
gdb 65469	3.5416	0.87568	0.85854	2.0001	71.02	-0.2491	-0.0454	0.2037	1368.2493	0.122202	-475.038729	-475.029784	-475.02884	-475.073362	32.195	
O	-0.062674347	 1.362748919	 0.0825042445	-0.472907
C	 0.0063993554	-0.0239353828	 0.0544719961	 0.314347
C	-0.4665844974	-0.7698213366	 1.2861855193	-0.355975
C	-1.3356919166	-0.7725494648	 0.0626660683	-0.018304
N	-2.4824503935	 0.0656446007	-0.0288518806	-0.280597
C	-3.7002360769	-0.4164532274	-0.4032334523	 0.15544
O	-3.9573872588	-1.5874937352	-0.5807283545	-0.320564
C	 1.084223835	-0.5498928424	-0.8034837003	 0.093308
O	 1.7802148471	 0.1923322001	-1.4612669226	-0.287314
H	 0.5716813979	 1.6537508845	-0.5939937332	 0.303398
H	 0.0404164647	-1.688578397	 1.5620541168	 0.13475
H	-0.7600746324	-0.1306579326	 2.1112492141	 0.144163
H	-1.4429648328	-1.6949891416	-0.4965331825	 0.140177
H	-2.3149844495	 1.0622859944	-0.0151627059	 0.265396
H	-4.4418473729	 0.3968364669	-0.5217684886	 0.083262
H	 1.2027182576	-1.6511984951	-0.8273695287	 0.101421
33.0187	108.9477	142.0294	211.0673	240.4374	280.4584	328.9179	355.8059	442.4036	470.3172	540.313	579.1099	624.3871	738.1567	800.9045	848.4195	897.2121	920.7011	1018.6452	1027.9397	1049.717	1057.4118	1074.9368	1130.726	1211.2595	1251.1348	1336.9343	1345.6615	1385.8627	1427.7598	1443.3269	1478.3131	1529.1823	1783.8929	1804.7022	2942.9901	2950.5599	3132.96	3186.667	3232.2432	3598.2755	3676.7232
OC1(CC1NC=O)C=O	O[C@]1(C[C@H]1NC=O)C=O	
InChI=1S/C5H7NO3/c7-2-5(9)1-4(5)6-3-8/h2-4,9H,1H2,(H,6,8)	InChI=1S/C5H7NO3/c7-2-5(9)1-4(5)6-3-8/h2-4,9H,1H2,(H,6,8)/t4-,5-/m1/s1
