15
gdb 30089	2.53765	1.85344	1.07829	4.6618	71.96	-0.214	-0.0461	0.1679	1047.4767	0.113712	-453.988126	-453.980202	-453.979258	-454.020915	29.061	
C	-0.3733986238	 1.4075011245	 0.0155787331	-0.329563
N	-0.0153923818	-0.0033207346	-0.0260245325	-0.112616
C	 0.05381828	-0.7049662535	-1.2173991243	-0.062979
C	 0.3819842856	-1.9964056671	-1.2535255186	-0.03109
O	 0.6715176339	-2.7094451754	-0.1103617555	-0.210375
C	 0.6296014321	-2.1063970518	 1.1056340814	 0.394563
O	 0.882807869	-2.7347703446	 2.0951564039	-0.321739
C	 0.2582167683	-0.6356148317	 1.1708720904	 0.225371
N	 0.199653141	-0.0056665502	 2.2790289305	-0.528614
H	 0.433910321	 1.9895558554	 0.4690218761	 0.156779
H	-0.5577909776	 1.7568692163	-1.000932752	 0.128552
H	-1.267971337	 1.552997926	 0.6277156936	 0.156796
H	-0.1711676679	-0.1564454038	-2.1204447771	 0.140806
H	 0.4529654627	-2.5967465383	-2.1457950056	 0.147684
H	 0.4360154843	-0.6545885612	 3.0301364166	 0.246426
83.8051	119.0321	154.1949	209.4433	329.4284	369.6564	469.9898	496.6182	525.0078	544.1583	590.3978	716.0364	716.1585	789.9785	853.081	857.7781	893.3157	988.5417	1061.2854	1113.3592	1153.0101	1153.6356	1213.7287	1267.8236	1347.9287	1429.7287	1435.6562	1466.0631	1472.6441	1515.9003	1690.5835	1727.005	1842.3202	3048.2032	3109.503	3149.5961	3240.531	3275.3608	3493.4346
CN1C=COC(=O)C1=N	CN1C=COC(=O)[C]1[NH]	
InChI=1S/C5H6N2O2/c1-7-2-3-9-5(8)4(7)6/h2-3,6H,1H3	InChI=1S/C5H6N2O2/c1-7-2-3-9-5(8)4(7)6/h2-3,6H,1H3
