12
gdb 42332	3.08653	0.89325	0.72597	3.9019	75.18	-0.2931	-0.1132	0.18	1439.6249	0.075876	-435.447239	-435.438904	-435.43796	-435.481502	28.209	
O	 0.3532740961	 0.3984738	-2.0926117402	-0.263782
C	 0.0606546182	 1.2707749415	-1.3070794628	 0.210714
C	 1.0769926216	 1.9233557875	-0.4885795204	 0.108606
C	 1.9693653998	 2.4141614673	 0.1640222683	 0.023647
C	 2.9668854135	 2.9749827017	 0.9076948738	 0.224119
N	 3.813103362	 3.4515044092	 1.544648031	-0.315707
C	-1.3486115874	 1.7407883541	-1.1171716044	-0.014321
C	-1.8839972273	 1.9717528361	 0.2425347791	-0.185155
O	-1.5225886193	 3.0560335615	-0.5967825887	-0.209485
H	-2.0226011958	 1.4365859829	-1.9149161233	 0.136505
H	-2.9507187145	 1.8266445041	 0.4015637308	 0.144642
H	-1.243946417	 1.8150474841	 1.1085137168	 0.140217
63.3547	78.7117	115.1521	187.5765	245.1413	289.6929	340.6186	424.2497	559.731	577.8016	590.6838	649.932	752.6671	880.7508	883.9671	938.9197	1050.9791	1091.4133	1155.4951	1162.7856	1247.6606	1271.6548	1384.6852	1516.8132	1765.56	2252.6999	2386.8863	3095.9443	3152.021	3191.9879
O=C(C#CC#N)C1CO1	O=C(C#CC#N)[C@H]1CO1	
InChI=1S/C6H3NO2/c7-3-1-2-5(8)6-4-9-6/h6H,4H2	InChI=1S/C6H3NO2/c7-3-1-2-5(8)6-4-9-6/h6H,4H2/t6-/m1/s1
