18
gdb 70412	2.30893	1.56197	1.40769	2.5314	72.35	-0.239	-0.0421	0.1969	1031.9941	0.145014	-439.044793	-439.035781	-439.034837	-439.078342	33.587	
C	 0.1395137357	 1.5159486316	 0.0890264347	-0.513151
C	 0.009965878	 0.0259682941	-0.0292506609	 0.33369
C	-0.9068175665	-0.798456908	 0.7863917493	-0.283992
N	 0.5436451103	-0.9477015936	 1.0140410246	-0.159603
C	 1.0184291075	-1.832234597	-0.1004408607	-0.223979
C	 0.5356203565	-0.8364248524	-1.1924735435	 0.208164
O	-0.4860134502	-1.2148825032	-2.094206819	-0.478148
C	 1.6679932723	-0.1690969303	-1.9621168779	 0.09107
O	 2.8222354588	-0.1462953162	-1.6223362266	-0.240606
H	 1.1604480219	 1.8496588717	-0.1215021354	 0.139629
H	-0.5402671656	 2.0210485947	-0.6067567356	 0.130201
H	-0.114526652	 1.8352080612	 1.1034250667	 0.13477
H	-1.4148102929	-0.2933246751	 1.6023988726	 0.122355
H	-1.462525412	-1.6135593428	 0.3307933722	 0.124832
H	 2.1056092968	-1.91713283	-0.0769307483	 0.136809
H	 0.5482132636	-2.8204008861	-0.1212513779	 0.103948
H	-0.1377230093	-1.8882962475	-2.6900237418	 0.285149
H	 1.321025767	 0.306518589	-2.9078889324	 0.088861
70.175	125.7317	181.2701	206.2257	250.8656	284.0243	287.0653	349.4857	413.84	451.5407	484.5793	595.3262	623.1723	708.0841	755.9254	835.8835	869.2407	924.6881	942.0831	977.4495	1038.7104	1059.9763	1095.0919	1114.3458	1127.0183	1165.1029	1196.9196	1225.0772	1249.5588	1294.8845	1348.6478	1366.2767	1397.9813	1418.7163	1475.122	1484.1505	1495.2822	1508.4031	1827.6476	2878.8091	3033.3913	3051.5408	3099.2778	3114.2175	3117.8111	3135.8475	3205.2025	3792.2322
CC12CN1CC2(O)C=O	C[C@]12CN1C[C@]2(O)C=O	
InChI=1S/C6H9NO2/c1-5-2-7(5)3-6(5,9)4-8/h4,9H,2-3H2,1H3	InChI=1S/C6H9NO2/c1-5-2-7(5)3-6(5,9)4-8/h4,9H,2-3H2,1H3/t5-,6+,7?/m1/s1
