20
gdb 115038	2.44145	1.2666	0.89334	4.0138	83.89	-0.21	-0.0007	0.2093	1329.4617	0.171443	-403.192704	-403.183678	-403.182734	-403.226965	33.186	
C	 0.7330319827	-0.3237585882	-1.3335428275	-0.387898
C	 0.0339160182	-0.0592244336	 0.0028896124	-0.184018
C	-1.4595272213	-0.4211625807	-0.0151646484	 0.021597
C	-1.7207312728	-1.959696348	-0.0407003233	-0.286837
C	-2.3035538226	-2.2456876381	 1.3248304378	-0.157614
C	-2.5272076927	-1.107248909	 1.9794996507	 0.009825
N	-2.1349167233	 0.011483381	 1.2307314355	-0.051922
C	-2.3930665262	 1.3021218425	 1.5851114847	 0.134862
O	-2.9466121998	 1.6450480023	 2.6099673086	-0.335929
H	 1.789419817	-0.0459079881	-1.2804729044	 0.123168
H	 0.6843670167	-1.3791262944	-1.6201933245	 0.122812
H	 0.2753678118	 0.2597708498	-2.1402793476	 0.118799
H	 0.5194592881	-0.622120519	 0.8097019571	 0.111864
H	 0.1352729503	 1.001313995	 0.260793237	 0.104582
H	-1.9356805734	 0.0729439439	-0.8691701357	 0.093901
H	-2.4123566598	-2.2443219241	-0.8433118929	 0.11667
H	-0.7910132009	-2.5104489883	-0.2234739724	 0.114231
H	-2.5196375719	-3.2360405661	 1.6979664465	 0.107593
H	-2.9553746859	-0.9302905955	 2.95454337	 0.153142
H	-2.0387773943	 2.0189155186	 0.8189307362	 0.071171
68.6723	100.1382	114.6188	201.0029	237.0906	254.4123	289.4808	372.9324	398.2121	500.0604	535.6765	735.2445	748.0266	796.8301	810.8089	846.7435	907.2324	945.344	954.7356	967.8025	985.5638	1022.4722	1057.5762	1103.4654	1111.4195	1126.2051	1213.8469	1231.3023	1277.035	1296.0259	1309.7468	1333.5169	1343.8216	1386.3578	1414.0236	1438.4876	1442.9907	1482.3937	1495.9035	1499.9671	1505.7101	1687.2917	1785.865	2940.2953	3021.1961	3030.6906	3035.0539	3042.6151	3055.7661	3069.6194	3102.5234	3112.1182	3239.0325	3269.699
CCC1CC=CN1C=O	CC[C@H]1CC=CN1C=O	
InChI=1S/C7H11NO/c1-2-7-4-3-5-8(7)6-9/h3,5-7H,2,4H2,1H3	InChI=1S/C7H11NO/c1-2-7-4-3-5-8(7)6-9/h3,5-7H,2,4H2,1H3/t7-/m0/s1
