18
gdb 56519	2.5877	1.2411	1.06097	5.3464	78.17	-0.2512	0.0155	0.2667	1191.0771	0.145696	-398.091094	-398.080711	-398.079767	-398.125723	38.301	
C	-0.0652791944	 1.5702820969	 0.1167077214	-0.41304
C	 0.0112667348	 0.035624112	 0.0420706231	 0.088291
N	 0.6637501676	-0.4617548248	 1.2564732312	-0.525
C	-1.3545944373	-0.5246462639	 0.014160996	 0.312038
N	-2.4115915712	-0.9900175089	 0.0093669068	-0.343987
C	 0.7315950281	-0.4340459077	-1.2832779915	-0.199085
N	 0.0356402468	 0.07955495	-2.4659160795	-0.493302
C	 2.1586203358	-0.0902595142	-1.2303196811	 0.308321
C	 3.3189065671	 0.2297066413	-1.2155024384	-0.442874
H	 0.9466644911	 1.986112201	 0.0969703061	 0.127999
H	-0.6353225821	 1.9742310187	-0.7218305332	 0.141687
H	-0.5479778056	 1.8653102763	 1.0496059772	 0.149491
H	 0.6904341279	-1.4778508644	 1.2540361064	 0.23838
H	 1.6282245795	-0.1396795653	 1.2605576651	 0.23983
H	 0.6385890205	-1.5263453398	-1.3030235182	 0.120288
H	 0.3531690625	 1.0208471329	-2.674770767	 0.240253
H	 0.2638140944	-0.4869654995	-3.2759869662	 0.245023
H	 4.3472299445	 0.4973299294	-1.2142716283	 0.205688
75.952	126.8868	168.0843	195.181	217.8728	220.574	265.7894	272.6666	289.3343	348.0583	387.5334	426.0224	497.597	562.4942	578.3113	623.204	642.1788	658.9003	741.7408	840.7283	849.2429	898.4215	974.7032	1001.5148	1042.178	1108.064	1152.9951	1176.3641	1241.718	1283.3931	1368.3979	1393.1602	1404.0378	1492.2016	1498.7545	1655.3357	1666.0926	2218.7317	2364.0396	3040.6283	3054.2789	3133.0271	3151.6345	3483.3519	3498.0179	3508.4398	3568.1244	3586.9897
CC(N)(C#N)C(N)C#C	C[C@@](N)(C#N)[C@@H](N)C#C	
InChI=1S/C6H9N3/c1-3-5(8)6(2,9)4-7/h1,5H,8-9H2,2H3	InChI=1S/C6H9N3/c1-3-5(8)6(2,9)4-7/h1,5H,8-9H2,2H3/t5-,6+/m0/s1
