18
gdb 37293	3.18258	1.76964	1.65451	2.5954	73.27	-0.2227	0.0449	0.2676	889.9865	0.150107	-401.826762	-401.820373	-401.819429	-401.857215	26.904	
C	 0.0163099683	 1.3745433383	-0.2307294225	-0.253655
C	 1.3120740734	 0.6692379987	-0.113939536	-0.065693
C	 1.6918469944	 0.0780608317	 1.259357034	-0.046404
C	 1.4642249382	 0.7675782087	 2.6442183435	-0.097371
C	 0.8297569584	 2.1637358815	 2.7159161718	-0.109082
O	-0.5111463777	 1.6094250348	 2.6083112501	-0.288768
C	-0.0070293764	 0.2566549939	 2.6326015203	 0.095242
C	 0.2806064032	-0.5275324911	 1.2862339833	-0.000136
N	-0.0257781513	-0.0955106047	-0.1379061687	-0.157075
H	-0.4210117422	 1.9676476046	 0.555100304	 0.162078
H	-0.2248495739	 1.7033689152	-1.23898563	 0.115563
H	 1.9831311837	 0.6143215994	-0.9663011801	 0.095643
H	 2.5650437402	-0.5715324951	 1.2029084137	 0.081561
H	 2.1827395749	 0.5021240222	 3.4188653362	 0.080987
H	 0.9596055559	 2.6695900276	 3.6794241266	 0.110734
H	 1.0613619177	 2.8630504517	 1.905451433	 0.111459
H	-0.477531039	-0.3328306788	 3.4251494891	 0.082853
H	 0.117906932	-1.6015070885	 1.3897313316	 0.082063
182.9543	241.1657	265.8474	374.3295	476.9289	612.5567	658.6096	674.7624	685.8568	758.755	781.2343	828.5817	843.7267	907.8975	924.8505	951.6506	971.1326	992.0729	1005.7261	1026.6662	1065.3854	1068.4671	1105.31	1133.0747	1140.3047	1155.7836	1171.224	1192.4786	1219.2805	1223.8083	1241.4536	1276.6462	1296.8699	1309.3131	1329.8574	1361.1905	1374.216	1503.0672	1516.8521	3028.8091	3059.259	3075.9529	3093.6483	3106.257	3120.343	3126.3203	3150.7395	3278.1317
C1C2C3C4COC4C3N12	C1[C@H]2[C@H]3[C@H]4CO[C@H]4[C@H]3N12	
InChI=1S/C7H9NO/c1-4-5-3-2-9-7(3)6(5)8(1)4/h3-7H,1-2H2	InChI=1S/C7H9NO/c1-4-5-3-2-9-7(3)6(5)8(1)4/h3-7H,1-2H2/t3-,4+,5-,6+,7-,8?/m1/s1
