19
gdb 126512	3.1555	0.98557	0.79688	4.328	78.89	-0.2081	0.0073	0.2154	1460.1213	0.160605	-415.396335	-415.386955	-415.386011	-415.431625	33.679	
C	-0.1484616154	 1.643475264	 0.0772441278	-0.379989
C	-0.1077573475	 0.1144277775	 0.0417702371	-0.157742
C	 0.7515491165	-0.4816037828	 1.1765082749	-0.32621
C	 0.8344900858	-1.9713026844	 1.1681550601	 0.300447
C	 1.7656231995	-2.8531678895	 0.6521638209	 0.219145
N	 2.9794629024	-2.5713092239	 0.0134982278	-0.60074
N	 1.3747449483	-4.1284938155	 0.9237320358	-0.251424
N	 0.2470930556	-4.1002197188	 1.5850587564	-0.13077
N	-0.0874784291	-2.8103086827	 1.7197654838	-0.233035
H	 0.8566821534	 2.0684789075	-0.0198966436	 0.119202
H	-0.760098638	 2.0436482219	-0.7367759258	 0.118177
H	-0.5698905433	 2.007318367	 1.0209842739	 0.116834
H	-1.1258396429	-0.2885177643	 0.1105879524	 0.098935
H	 0.286346412	-0.2280044717	-0.9228012332	 0.101722
H	 1.7725142756	-0.0882575961	 1.1026167621	 0.126315
H	 0.3613585724	-0.134426722	 2.1425757473	 0.107481
H	 2.869801668	-1.9981157549	-0.8140647146	 0.24487
H	 3.4371349789	-3.437869369	-0.2448187992	 0.25297
H	-0.935181782	-2.5728998323	 2.2100948459	 0.273814
35.0154	81.217	108.7206	185.2424	232.166	247.7686	288.4577	309.3411	385.4276	451.3118	554.7663	670.3513	714.8643	735.0125	744.3637	772.0952	826.4638	869.2247	896.6378	1009.8983	1041.7204	1075.5918	1106.3874	1110.8743	1116.6797	1230.0707	1240.7106	1284.0968	1314.9973	1329.4391	1359.7078	1380.002	1391.3625	1412.8899	1478.8893	1491.2127	1498.0884	1509.0697	1522.2957	1646.2863	1647.7278	3014.8216	3027.5129	3031.635	3049.2828	3070.8559	3098.3477	3107.1657	3526.4841	3612.8916	3652.1135
CCCC1=C(N)N=NN1	CCCc1c(N)nn[nH]1	
InChI=1S/C5H10N4/c1-2-3-4-5(6)8-9-7-4/h2-3H2,1H3,(H3,6,7,8,9)	InChI=1S/C5H10N4/c1-2-3-4-5(6)8-9-7-4/h2-3H2,1H3,(H3,6,7,8,9)
