27
gdb 117846	1.63126	1.23116	0.96617	0.9687	92.58	-0.244	0.0785	0.3225	1510.5978	0.248648	-390.702527	-390.69039	-390.689446	-390.739903	44.356	
C	 0.1027681792	 1.5549170126	 0.1557873708	-0.380827
C	-0.0518661765	 0.0446692715	 0.0536516389	-0.045223
O	 0.6756628716	-0.5322684183	 1.1209303021	-0.290149
C	 0.7477531104	-1.96508882	 1.2130960095	 0.377003
C	-0.6506122265	-2.6054301586	 1.1849304144	-0.436357
C	 1.5955233421	-2.5479500599	 0.0549724234	-0.200626
C	 2.9929941497	-1.9415519831	-0.1054334584	-0.393025
C	 1.4407266353	-2.2114387013	 2.5697397106	-0.18493
C	 0.6649226684	-1.7165369388	 3.7945837319	-0.394008
H	 1.1551158008	 1.8415499726	 0.0728634552	 0.12354
H	-0.4574961895	 2.0517254574	-0.6422877161	 0.110439
H	-0.2722431612	 1.9126531645	 1.1190611739	 0.123894
H	-1.1166177592	-0.2264069498	 0.1086016718	 0.088247
H	 0.3217942634	-0.3050840893	-0.92087309	 0.085975
H	-1.0992737998	-2.5549516405	 0.1885085992	 0.111718
H	-0.5846655568	-3.6626203052	 1.4606614152	 0.113311
H	-1.3256050313	-2.1112144755	 1.8880412804	 0.122379
H	 1.6706614427	-3.6321670797	 0.2042843905	 0.092048
H	 1.0391845478	-2.4198624707	-0.881457457	 0.09083
H	 3.463560468	-2.2988452925	-1.0266282995	 0.106033
H	 2.9395413139	-0.8503439575	-0.1491433614	 0.127256
H	 3.6550363004	-2.2080031029	 0.7235666581	 0.117218
H	 1.6464053064	-3.285023771	 2.6617694953	 0.086161
H	 2.4105515371	-1.7051275598	 2.542358034	 0.103529
H	-0.2566765506	-2.2838693012	 3.9575924935	 0.109983
H	 1.2736912875	-1.8166649529	 4.6985900422	 0.105842
H	 0.3999493566	-0.66290554	 3.6767147116	 0.129736
56.6343	69.1596	97.7672	128.4929	166.3382	198.4898	228.221	235.879	251.405	262.8304	300.3469	341.9264	356.4599	366.5914	459.6255	500.5446	553.4371	710.2037	776.3944	776.8855	823.9694	863.3982	893.5534	952.493	990.1163	1007.0947	1009.1874	1041.336	1079.9039	1087.9899	1099.9794	1145.9152	1184.1213	1191.7069	1206.9979	1237.8071	1298.6408	1312.0048	1327.6451	1373.588	1375.8532	1397.9403	1402.477	1404.5707	1406.9815	1424.1446	1473.575	1482.5809	1484.3251	1489.633	1496.1859	1498.7822	1502.7606	1506.4999	1510.6489	1514.8794	1531.129	2979.575	3008.6374	3026.4484	3032.6383	3040.964	3042.4443	3042.9888	3044.8128	3056.0652	3077.9386	3103.1968	3106.7996	3107.8739	3116.4044	3119.1739	3120.2342	3122.9692	3126.6099
CCOC(C)(CC)CC	CCOC(C)(CC)CC	
InChI=1S/C8H18O/c1-5-8(4,6-2)9-7-3/h5-7H2,1-4H3	InChI=1S/C8H18O/c1-5-8(4,6-2)9-7-3/h5-7H2,1-4H3
