20
gdb 79585	2.15036	1.70656	1.53115	1.7664	78.97	-0.2287	0.0684	0.2971	1033.1601	0.169302	-403.082493	-403.07348	-403.072536	-403.115393	34.85	
C	-0.1264212658	 1.507487625	-0.0389071754	-0.320335
N	 0.1042721308	 0.0746259986	 0.1013122724	-0.138275
C	 1.3991135803	-0.5258098537	-0.1573916309	-0.101974
C	 2.5729152839	 0.3181934527	 0.3015192798	-0.139644
C	 3.2837776955	-0.3778596863	 1.4457335593	-0.352146
C	 1.9819658396	 0.3399348127	 1.7051628923	 0.342012
O	 1.89820408	 1.4469673306	 2.5373144846	-0.468435
C	 0.7973176989	-0.5047585703	 1.2409054991	 0.256876
C	 0.1272997616	-1.5807518111	 2.0468310523	-0.499236
H	 0.701771638	 2.1411344643	 0.300641028	 0.12518
H	-0.3265695229	 1.7249562878	-1.0933237811	 0.114563
H	-1.0182050229	 1.7752449025	 0.5361749187	 0.119319
H	 1.453217261	-1.366719632	-0.8416340846	 0.091447
H	 3.0286326407	 1.143328529	-0.2318893914	 0.098963
H	 3.3483046109	-1.4626665359	 1.4755346995	 0.106988
H	 4.1638994631	 0.1386585154	 1.8200592094	 0.110871
H	 2.0646460387	 1.1610947593	 3.4417450591	 0.287196
H	-0.5102974776	-1.1450382023	 2.82570243	 0.120219
H	-0.506294259	-2.2000531496	 1.4074137918	 0.132843
H	 0.8647401652	-2.2229741266	 2.5409364071	 0.11357
157.0056	176.7951	184.5939	199.1382	224.1331	239.8089	247.5285	353.851	411.5475	436.8351	541.1087	618.0011	630.1102	684.5382	739.588	823.9725	852.7292	900.7615	940.9206	960.8438	970.2205	998.26	1032.276	1062.183	1086.0585	1112.5683	1129.0597	1157.9147	1179.3391	1185.0238	1226.9204	1262.6431	1277.0467	1306.7579	1382.5327	1394.1151	1423.8328	1454.8116	1484.1401	1490.1456	1490.9848	1495.436	1502.098	3019.5282	3026.386	3083.2493	3084.6102	3101.6312	3104.6924	3121.2944	3161.7247	3186.4743	3195.2282	3801.935
CN1C2C3CC3(O)C12C	CN1[C@H]2[C@@H]3C[C@]3(O)[C@@]12C	
InChI=1S/C7H11NO/c1-6-5(8(6)2)4-3-7(4,6)9/h4-5,9H,3H2,1-2H3	InChI=1S/C7H11NO/c1-6-5(8(6)2)4-3-7(4,6)9/h4-5,9H,3H2,1-2H3/t4-,5-,6-,7+,8?/m0/s1
