21
gdb 70867	2.66981	1.62204	1.20316	1.576	83.22	-0.2177	0.0896	0.3074	1126.3622	0.180256	-387.049791	-387.040746	-387.039802	-387.08261	35.482	
C	-0.106006236	 1.5219024964	-0.0227931028	-0.507691
C	 0.0146604224	 0.0275156422	-0.0320003328	 0.242803
C	 0.9201073215	-0.8252339865	-0.9248534206	-0.314241
C	 0.0856557107	-2.0320854433	-0.419103	 0.427463
C	 0.0289659298	-3.3635753522	-1.0997507048	-0.505339
O	 0.4591394204	-2.099785052	 0.994358765	-0.362326
C	-0.2885582639	-0.8920572834	 1.1756064606	 0.442233
C	-0.6200833345	-0.4672167258	 2.5658348455	-0.508986
C	-1.0904364332	-1.0360269849	-0.0767497365	-0.310905
H	 0.8196048993	 1.9927375292	 0.3291532024	 0.122609
H	-0.3140054	 1.9101331417	-1.0267452114	 0.118954
H	-0.9170101502	 1.8590292918	 0.6313321692	 0.117538
H	 0.7375814114	-0.6171803877	-1.9838617302	 0.093029
H	 1.9960034959	-0.8601377636	-0.7196966866	 0.090432
H	 1.0162168636	-3.8381614242	-1.0780341351	 0.131072
H	-0.6808329708	-4.0271588308	-0.5975852406	 0.128797
H	-0.2750508222	-3.249809333	-2.1447355687	 0.120171
H	 0.2929906117	-0.2618951333	 3.1353884329	 0.130768
H	-1.2293813057	 0.4406983222	 2.5603671757	 0.124485
H	-1.1782005235	-1.2510859345	 3.087472892	 0.130233
H	-2.1480000369	-0.9983861883	-0.304391823	 0.088899
174.6878	185.522	198.606	202.4982	207.9741	244.9676	261.6251	344.1881	404.4187	466.0773	526.1563	580.6031	623.9949	658.7366	753.3868	780.4481	828.815	873.2814	888.5355	924.9129	934.2413	964.8992	1009.3807	1027.4486	1066.8671	1109.4744	1123.1482	1134.6511	1171.3868	1185.243	1209.4008	1235.7442	1332.8161	1356.4393	1402.0148	1415.2514	1418.0096	1453.6055	1473.0425	1479.3266	1486.0497	1489.9256	1491.1063	1493.9484	1509.8797	3020.1498	3032.0103	3035.7322	3037.1303	3077.639	3091.3417	3093.2788	3098.3606	3105.9755	3116.5516	3119.1475	3193.2162
CC12CC3(C)OC1(C)C23	C[C@@]12C[C@@]3(C)O[C@]1(C)[C@@H]23	
InChI=1S/C8H12O/c1-6-4-7(2)5(6)8(6,3)9-7/h5H,4H2,1-3H3	InChI=1S/C8H12O/c1-6-4-7(2)5(6)8(6,3)9-7/h5H,4H2,1-3H3/t5-,6-,7+,8+/m0/s1
