22
gdb 86570	2.78243	1.05553	0.93491	3.2738	83.01	-0.241	0.0298	0.2709	1380.0325	0.193309	-404.386469	-404.376077	-404.375133	-404.422589	37.867	
C	-0.2697356259	 1.5186635245	-0.0759962566	-0.394459
C	-0.0867798587	 0.006006466	 0.0209451549	-0.009985
C	 0.9596157856	-0.5661819711	-0.9771208035	-0.240692
C	 2.0153216776	-0.6028375001	 0.1646722262	-0.098138
C	 0.8323919286	-0.5017107865	 1.1810001963	 0.046156
C	 1.0192548666	 0.3112686818	 2.452122193	-0.422026
C	 2.8603830007	-1.8577695733	 0.2606349756	 0.398195
N	 4.19796213	-1.6617715081	 0.4544152718	-0.531321
O	 2.3732160019	-2.9725616959	 0.1922178593	-0.374189
H	 0.6891463893	 2.0494991701	-0.0801590174	 0.109383
H	-0.7907731785	 1.780795169	-1.0033499522	 0.113523
H	-0.8609342295	 1.9088966195	 0.7592757593	 0.113852
H	-1.068700641	-0.4759335652	-0.0143563362	 0.06711
H	 0.7203931873	-1.5834257267	-1.2937498414	 0.125282
H	 1.1996050698	 0.0428979369	-1.852810539	 0.090619
H	 2.6299389481	 0.3032248309	 0.1811086853	 0.050787
H	 0.5380341274	-1.5253957456	 1.4323126812	 0.098171
H	 1.3338772036	 1.338317242	 2.2395290815	 0.110233
H	 0.0897745945	 0.361814017	 3.0303712884	 0.117231
H	 1.7810940529	-0.1435391861	 3.0953332951	 0.11622
H	 4.6135521017	-0.7476994766	 0.4509958603	 0.25631
H	 4.7984610779	-2.4691327925	 0.4973606482	 0.257738
28.099	79.5124	134.9314	154.3893	197.1976	229.6634	233.2918	260.2665	302.5633	368.1004	408.8178	503.1561	579.6508	614.0739	654.4154	726.1736	793.7217	810.5364	877.4538	907.5252	930.8723	983.6591	996.2079	1038.7176	1058.8036	1078.3313	1110.1536	1130.1811	1159.8491	1210.1786	1240.0632	1248.3852	1259.7024	1281.4279	1304.5643	1362.9996	1375.8829	1406.9098	1413.6913	1417.7957	1482.6275	1490.6207	1490.8888	1502.8228	1503.2701	1614.6911	1785.0285	3023.786	3027.1743	3042.7933	3048.5786	3060.7471	3065.5555	3088.8845	3090.0725	3094.9755	3099.4303	3125.7106	3601.658	3741.7876
CC1CC(C1C)C(N)=O	C[C@H]1C[C@@H]([C@H]1C)C(=O)N	
InChI=1S/C7H13NO/c1-4-3-6(5(4)2)7(8)9/h4-6H,3H2,1-2H3,(H2,8,9)	InChI=1S/C7H13NO/c1-4-3-6(5(4)2)7(8)9/h4-6H,3H2,1-2H3,(H2,8,9)/t4-,5-,6-/m0/s1
