14
gdb 15032	2.70929	1.78009	1.21667	1.678	62.35	-0.2697	-0.0597	0.21	960.4533	0.106321	-378.704083	-378.696092	-378.695148	-378.737578	27.27	
O	-0.2233939465	 0.1649533605	 0.2859112522	-0.224543
C	-0.0452308004	 1.2958989402	-0.0667296337	 0.168481
C	 1.3575632659	 1.9384339775	-0.0954200392	-0.247747
C	 1.4993378279	 2.7917421289	-1.2716644888	 0.258228
N	 1.5702845364	 3.488585893	-2.1913337785	-0.315873
C	 1.5570530676	 2.718411132	 1.2139226911	 0.003199
C	 2.5161129726	 3.8437876825	 1.3139719392	-0.252049
N	 1.0641258857	 4.0874286057	 1.3860964032	-0.311685
H	-0.876087098	 1.9728826814	-0.3527799796	 0.116305
H	 2.0828216984	 1.1184973367	-0.13902118	 0.15674
H	 1.4028621785	 2.0797765167	 2.0804219913	 0.126647
H	 3.0569374824	 4.001694022	 2.2420499957	 0.134044
H	 3.0458304504	 4.1440849934	 0.4143492051	 0.140254
H	 0.741891789	 4.4693609295	 0.498543142	 0.247999
46.9131	86.1317	141.7268	178.2872	222.8479	355.8678	397.1677	472.7299	533.6578	628.7055	765.486	843.537	920.8843	956.3683	962.7541	988.3176	1033.9916	1091.5655	1126.9275	1150.8337	1189.5915	1231.184	1261.505	1303.6086	1308.6563	1396.9667	1415.6231	1510.1055	1844.1141	2355.0487	2928.3285	3064.1544	3118.7762	3141.1722	3207.886	3488.1009
O=CC(C#N)C1CN1	O=C[C@@H](C#N)[C@H]1CN1	
InChI=1S/C5H6N2O/c6-1-4(3-8)5-2-7-5/h3-5,7H,2H2	InChI=1S/C5H6N2O/c6-1-4(3-8)5-2-7-5/h3-5,7H,2H2/t4-,5-/m1/s1
