19
gdb 35978	3.16381	1.15289	0.9183	3.6104	76.37	-0.233	0.0311	0.2641	1262.9183	0.162005	-419.207201	-419.198733	-419.197788	-419.240594	31.696	
N	 0.4983678482	-1.1802418386	 0.8581312795	-0.318821
C	 0.2613516587	-0.1143619625	 0.477876179	 0.261471
C	-0.0251487724	 1.2499995459	 0.0343359512	-0.172887
C	-0.9940464727	 1.9595474983	 1.0350579786	-0.177036
N	-1.522058021	 3.2240276112	 0.5643060608	-0.272101
C	-0.6860023255	 4.414319914	 0.6854843095	-0.167014
C	 0.8296608205	 4.2173572442	 0.4794246044	-0.091477
O	 1.1366957542	 3.3386920583	-0.5905877593	-0.239381
C	 1.3113625847	 1.9976349846	-0.2029746674	-0.087215
H	-0.5493918065	 1.183282307	-0.9282743324	 0.124501
H	-1.8269428224	 1.2742932853	 1.228157085	 0.126444
H	-0.4883252906	 2.1101588905	 1.9952939368	 0.123837
H	-1.8577616051	 3.128717227	-0.3853245027	 0.22399
H	-1.0619291898	 5.1399394206	-0.0422003234	 0.113322
H	-0.8247152457	 4.8698811154	 1.6771985743	 0.106269
H	 1.2914069131	 5.184672585	 0.2499954169	 0.11077
H	 1.296999134	 3.8483892413	 1.4041321032	 0.096443
H	 1.9263042978	 1.9323485151	 0.7078479822	 0.110451
H	 1.8587142705	 1.5043411173	-1.0113715562	 0.128434
76.3394	118.4415	147.2171	211.4071	301.0052	307.0928	363.0096	420.1577	502.0383	523.5425	542.619	613.6168	664.0757	828.0053	851.4774	863.3853	904.5976	987.4398	990.4654	1043.2119	1074.3823	1082.8335	1127.712	1176.2484	1204.3367	1250.7468	1272.7723	1300.1458	1303.8845	1347.6746	1351.5464	1364.8662	1400.1616	1409.283	1426.2535	1486.4529	1486.5278	1491.8945	1508.0166	1516.6365	2351.1893	2987.0346	2991.939	3004.7592	3026.7484	3037.514	3057.1028	3081.3558	3084.1513	3090.0034	3558.6252
N#CC1CNCCOC1	N#C[C@H]1CNCCOC1	
InChI=1S/C6H10N2O/c7-3-6-4-8-1-2-9-5-6/h6,8H,1-2,4-5H2	InChI=1S/C6H10N2O/c7-3-6-4-8-1-2-9-5-6/h6,8H,1-2,4-5H2/t6-/m0/s1
