14
gdb 9227	7.24963	0.84774	0.81067	1.2276	55.96	-0.2739	-0.0457	0.2282	1333.2197	0.103492	-456.841829	-456.832881	-456.831937	-456.87873	28.959	
O	 0.218855288	 1.1550764231	-0.5217207759	-0.416405
C	 0.0273512867	-0.0540315816	 0.1531103654	-0.143222
C	-1.4129146182	-0.514907715	 0.0465808218	 0.415078
O	-2.2629001802	 0.1167534863	-0.5316243012	-0.358126
O	-1.6105452357	-1.6887251685	 0.6734924646	-0.236864
C	-2.9351764981	-2.235837478	 0.653129101	-0.175959
C	-2.9419515779	-3.5357130704	-0.1341929748	 0.144459
O	-3.8168884896	-4.3520869993	-0.0409897169	-0.220905
H	-0.6483656022	 1.4101391274	-0.8677937577	 0.299665
H	 0.672751225	-0.8463884974	-0.2539054997	 0.131028
H	 0.2758838883	 0.0343327807	 1.2218197793	 0.131436
H	-3.2469348762	-2.4210096273	 1.6837658638	 0.155271
H	-3.6235988396	-1.524005816	 0.1859240572	 0.177791
H	-2.0713249302	-3.660882994	-0.8160039169	 0.096755
7.1	65.948	72.911	90.0076	219.0746	308.2364	333.9874	343.4764	396.9386	564.6762	585.7432	683.0118	748.2213	911.5471	1032.3964	1038.4705	1044.4055	1117.2157	1133.8033	1230.1951	1244.7331	1273.8235	1314.0768	1353.1382	1408.8786	1449.7859	1465.7743	1495.7467	1815.3765	1846.7064	2892.707	2996.8925	3019.386	3062.5797	3124.3799	3736.4014
OCC(=O)OCC=O	OCC(=O)OCC=O	
InChI=1S/C4H6O4/c5-1-2-8-4(7)3-6/h1,6H,2-3H2	InChI=1S/C4H6O4/c5-1-2-8-4(7)3-6/h1,6H,2-3H2
