21
gdb 113890	2.86362	0.90245	0.82312	1.786	80.14	-0.2629	0.0164	0.2793	1536.6044	0.179798	-424.256207	-424.245766	-424.244822	-424.293823	36.547	
C	 0.0497002722	 1.2806865142	-0.1299752326	-0.374133
C	 0.4771748122	-0.1911507858	-0.1188074606	-0.199069
C	 0.8325411456	-0.6868251504	 1.2676005601	-0.010902
C	-0.2530754866	-1.1855232431	 2.2075792177	-0.337719
C	 0.7410575485	-2.1420029569	 1.6317524078	 0.120534
O	 0.2218259408	-3.0530783733	 0.6771274801	-0.244628
C	 1.1352096231	-3.8158896848	 0.0257168702	 0.428747
C	 0.4454829647	-4.7400344661	-0.9486291215	-0.480939
O	 2.3208834568	-3.7568299438	 0.2223482082	-0.347315
H	 0.84838689	 1.927903764	 0.248653969	 0.114841
H	-0.1957282538	 1.6133581806	-1.14334558	 0.111456
H	-0.8312731643	 1.4395665035	 0.5006483778	 0.117497
H	-0.3246161267	-0.8136870022	-0.5305549321	 0.101171
H	 1.3422452452	-0.3282646713	-0.780465947	 0.105525
H	 1.6591661457	-0.1565600542	 1.7353028675	 0.0898
H	-0.2006074869	-0.9564935409	 3.2660216061	 0.116414
H	-1.2596079961	-1.2383305458	 1.805032234	 0.122634
H	 1.5116728587	-2.5800553459	 2.2540352848	 0.118571
H	-0.2562661044	-5.3889751251	-0.4170513104	 0.150642
H	-0.1336640348	-4.1595549466	-1.6723122807	 0.148751
H	 1.1910094599	-5.342719856	-1.4656597986	 0.148122
21.7028	50.1326	81.288	86.9326	158.6496	197.4237	229.1084	287.6764	339.7033	404.5955	440.1583	565.8191	615.1416	656.7378	764.0966	791.9248	820.3579	835.328	909.2077	963.8956	980.9816	1008.1198	1047.2841	1052.7029	1063.3476	1086.7616	1110.2113	1134.9792	1170.0014	1195.5453	1237.5849	1259.3875	1293.7278	1340.4816	1385.5648	1399.7916	1410.4867	1421.7161	1469.3749	1476.0164	1483.7772	1493.7729	1498.2537	1508.8178	1829.8915	3024.6734	3031.5396	3056.797	3065.4164	3100.3014	3104.5476	3121.4182	3131.4277	3132.4982	3168.9043	3186.2796	3219.9328
CCC1CC1OC(C)=O	CC[C@H]1C[C@H]1OC(=O)C	
InChI=1S/C7H12O2/c1-3-6-4-7(6)9-5(2)8/h6-7H,3-4H2,1-2H3	InChI=1S/C7H12O2/c1-3-6-4-7(6)9-5(2)8/h6-7H,3-4H2,1-2H3/t6-,7+/m0/s1
