19
gdb 131809	5.45892	0.65265	0.62628	1.3794	78.18	-0.24	0.0276	0.2676	1772.8707	0.160688	-419.225721	-419.216567	-419.215623	-419.261283	32.709	
O	 0.0153394879	 1.3569273399	-0.4358468975	-0.4226
C	 0.0100673779	 0.0318028277	 0.0744529412	-0.072145
C	-1.3778355234	-0.5531934122	-0.1480657794	-0.159944
C	-1.492486703	-2.0044924172	 0.3487800982	-0.314682
C	-2.8541319325	-2.5938837242	 0.1324598962	 0.347538
N	-3.6672999426	-2.8158759296	 1.164957447	-0.290751
N	-4.7898702831	-3.3192738083	 0.6139215103	-0.181388
C	-4.7178516771	-3.4267171999	-0.7340317358	-0.017626
C	-3.4707272976	-2.9634592129	-1.0895815183	-0.277599
H	 0.8850800196	 1.7355098479	-0.2787982302	 0.284016
H	 0.7630238075	-0.5937249138	-0.4341698516	 0.080531
H	 0.2513151417	 0.0172308265	 1.1502091055	 0.084948
H	-2.1146920394	 0.0736319862	 0.3660654897	 0.114461
H	-1.6118689303	-0.4997580409	-1.2176494768	 0.105814
H	-0.7404004491	-2.6211490805	-0.1608198456	 0.101657
H	-1.2700001248	-2.0501508989	 1.4200405289	 0.115277
H	-5.5555006524	-3.5725117462	 1.2142314589	 0.273006
H	-5.5367196689	-3.8173567242	-1.3175084341	 0.129912
H	-3.0607851604	-2.9018111394	-2.0848510465	 0.099576
29.7805	82.5215	93.4047	121.9589	250.7446	260.6592	322.9547	340.9078	466.4597	497.1752	660.7265	698.9937	749.0767	762.1304	776.9131	842.0328	868.0284	946.6948	988.1501	1022.8518	1035.6714	1069.0813	1078.1802	1084.741	1117.3176	1198.2205	1217.8265	1232.7243	1286.4402	1300.7894	1311.7828	1316.259	1376.9469	1409.585	1464.7561	1472.767	1483.0651	1492.5345	1500.6973	1528.3527	1576.7544	2954.8568	2980.5849	3020.0727	3041.5029	3071.1134	3093.0703	3253.2372	3272.2396	3680.342	3830.0518
OCCCC1=NNC=C1	OCCCc1n[nH]cc1	
InChI=1S/C6H10N2O/c9-5-1-2-6-3-4-7-8-6/h3-4,9H,1-2,5H2,(H,7,8)	InChI=1S/C6H10N2O/c9-5-1-2-6-3-4-7-8-6/h3-4,9H,1-2,5H2,(H,7,8)
