14
gdb 27449	2.48496	1.76799	1.12826	5.425	74.74	-0.2352	-0.0725	0.1627	1025.1105	0.102611	-432.906652	-432.899133	-432.898189	-432.938623	28.415	
N	-0.0261970332	 1.3334693519	 0.2186052458	-0.530187
C	-0.0371934377	-0.0071794798	-0.0434628605	 0.353062
N	-1.1945679996	-0.5964010332	-0.101543544	-0.332879
C	-1.3776338192	-1.9308781619	-0.3684134311	 0.319188
O	-2.2509321507	-2.3756457251	-1.0827247747	-0.329742
C	-0.5071193221	-2.8832864911	 0.4109627321	-0.056817
N	 0.7721485502	-2.8995639674	 0.420643873	-0.195439
C	 1.5490425565	-1.921551619	-0.1615171753	 0.008925
C	 1.2594992124	-0.6102623422	-0.3233610957	-0.145069
H	 0.8127052845	 1.7709828893	 0.5580558159	 0.265199
H	-0.9061303512	 1.7466423424	 0.4844784524	 0.270337
H	-1.0331300886	-3.6659760328	 0.9610730062	 0.140527
H	 2.5516211209	-2.2613167638	-0.4097864604	 0.125767
H	 2.0594980776	 0.0567115126	-0.6323180736	 0.107128
102.2907	156.8351	254.4378	300.2485	338.9451	392.6168	418.5272	472.1432	532.9823	564.3982	605.8239	687.3186	731.4569	808.5294	847.0788	886.8842	934.0488	958.1395	999.1757	1055.5261	1111.3619	1255.3234	1304.5883	1355.8569	1376.2716	1475.3462	1576.7979	1625.9255	1674.1212	1686.486	1776.203	3116.028	3155.5173	3174.6267	3599.4933	3729.6518
NC1=NC(=O)C=NC=C1	Nc1nc(=O)cncc1	
InChI=1S/C5H5N3O/c6-4-1-2-7-3-5(9)8-4/h1-3H,(H2,6,8,9)	InChI=1S/C5H5N3O/c6-4-1-2-7-3-5(9)8-4/h1-3H,(H2,6,8,9)
