24
gdb 117704	3.65367	0.77521	0.75227	3.7026	86.81	-0.2447	0.0327	0.2774	1659.4337	0.215175	-405.591014	-405.579764	-405.57882	-405.627188	41.163	
C	 0.050379683	 1.6701710607	 0.1330706734	-0.38018
C	-0.0072243097	 0.1457564563	-0.0113320337	-0.184558
C	 0.6886443161	-0.5695876859	 1.1519127979	-0.209795
C	 0.6929714682	-2.1153834467	 1.1130110168	 0.272884
C	-0.7368625521	-2.6844005164	 1.1606176552	-0.410785
C	 1.4437125507	-2.645864121	-0.1220615083	-0.410765
N	 1.4196390997	-2.5289667802	 2.3358663114	-0.299898
C	 1.6744899647	-3.8004785016	 2.7315214888	 0.160067
O	 1.3500743825	-4.8165930044	 2.1482640235	-0.33738
H	 1.0857656445	 2.027485886	 0.1617551035	 0.115089
H	-0.4497485417	 2.166282914	-0.7041137708	 0.115229
H	-0.4385887689	 2.0003491514	 1.0563292522	 0.115088
H	-1.0543400793	-0.1713957979	-0.0713663513	 0.105848
H	 0.4585841873	-0.1444127006	-0.9597359206	 0.105866
H	 1.7326836059	-0.2277739324	 1.2002306641	 0.092474
H	 0.2139059831	-0.254415573	 2.092400005	 0.092419
H	-1.2875829898	-2.4319821058	 0.2503328079	 0.113072
H	-0.7003620845	-3.771044481	 1.2510440149	 0.154984
H	-1.2850408939	-2.2813201795	 2.0184783942	 0.104919
H	 2.4489663247	-2.2154627504	-0.1778348527	 0.104954
H	 1.5333858806	-3.731573174	-0.0631391081	 0.154987
H	 0.9090649666	-2.3928966577	-1.0417280418	 0.113069
H	 1.7591548344	-1.7956437516	 2.9386010444	 0.239885
H	 2.2369613879	-3.8183824482	 3.688619484	 0.072528
72.6169	79.6609	121.8884	131.382	204.4361	231.1297	240.9124	261.2122	271.0646	312.6113	324.5649	347.9696	413.235	439.0124	496.743	535.3885	729.0537	752.3617	829.1853	870.6199	871.9767	939.1116	945.1721	1000.3695	1009.605	1029.6843	1055.8048	1082.0257	1112.4424	1195.2288	1213.8507	1226.36	1275.8821	1293.8671	1324.7231	1350.9328	1393.2375	1395.7735	1411.0642	1417.5385	1436.0217	1477.8361	1483.4826	1489.6507	1495.1404	1499.0003	1503.442	1511.3654	1521.6306	1527.7667	1795.6011	2910.4152	2993.9273	3029.5813	3029.9816	3038.2522	3039.8692	3046.0826	3072.0711	3099.926	3105.1486	3109.1752	3113.4371	3143.3413	3146.7501	3622.2709
CCCC(C)(C)NC=O	CCCC(C)(C)NC=O	
InChI=1S/C7H15NO/c1-4-5-7(2,3)8-6-9/h6H,4-5H2,1-3H3,(H,8,9)	InChI=1S/C7H15NO/c1-4-5-7(2,3)8-6-9/h6H,4-5H2,1-3H3,(H,8,9)
