20
gdb 22541	2.2578	1.0917	0.82034	0.3544	84.44	-0.2465	0.0088	0.2553	1460.1627	0.166533	-403.082964	-403.071951	-403.071006	-403.119755	39.23	
C	-0.0657983381	 1.5848773603	 0.0218430129	-0.399914
C	-0.0222109815	 0.0559781431	 0.035460927	-0.166264
C	 0.6991603703	-0.5350001659	-1.1960871091	-0.227052
C	 2.10334876	-0.1155900384	-1.2585320237	 0.349738
C	 3.2580832491	 0.2175612058	-1.2954858902	-0.49865
C	 0.6186095961	-2.0553312373	-1.301620631	 0.355795
C	 1.1785696119	-2.7298456289	-2.524132414	-0.468602
N	 0.0559628676	-2.6734733866	-0.3380106785	-0.162914
O	 0.0255572291	-4.0591035369	-0.5609882534	-0.40367
H	 0.9412493694	 2.0121296274	 0.0139379893	 0.12986
H	-0.5955959139	 1.9610499911	-0.8609500874	 0.110306
H	-0.5868096539	 1.9629279012	 0.9065047689	 0.113349
H	 0.4748100391	-0.3054133094	 0.9402958784	 0.11721
H	-1.0356121791	-0.3546692811	 0.0572354294	 0.109746
H	 0.2030214524	-0.1375919893	-2.0970726444	 0.113503
H	 4.2765192726	 0.5162458197	-1.3313155896	 0.198822
H	 1.8897440057	-3.5093600798	-2.2358160355	 0.151238
H	 0.3769759425	-3.2283669186	-3.0798072742	 0.143248
H	 1.6806866395	-2.0148040659	-3.177078548	 0.128498
H	-0.406364569	-4.3818003306	 0.236909673	 0.30575
43.8928	60.6654	100.7278	131.7535	163.473	179.1344	256.3718	285.4147	304.8978	348.2038	391.7458	400.7467	465.9844	542.4494	554.7098	618.9647	643.8393	697.8595	759.2523	827.4096	897.3527	957.6426	990.7521	1027.0043	1038.37	1062.6082	1118.8558	1130.0453	1222.0732	1269.9264	1293.5286	1335.6192	1366.7561	1395.2405	1401.3961	1413.0581	1470.9423	1481.7186	1484.3231	1498.0716	1508.1779	1732.23	2230.0217	2969.7872	3033.0254	3045.2268	3061.9304	3090.1352	3103.8703	3107.0963	3118.1662	3143.9792	3503.2192	3819.8713
CCC(C#C)C(C)=NO	CC[C@@H](C#C)C(=NO)C	
InChI=1S/C7H11NO/c1-4-7(5-2)6(3)8-9/h1,7,9H,5H2,2-3H3	InChI=1S/C7H11NO/c1-4-7(5-2)6(3)8-9/h1,7,9H,5H2,2-3H3/t7-/m1/s1
