21
gdb 67558	2.8025	1.95319	1.45496	0.2298	85.29	-0.2475	0.1007	0.3482	977.1947	0.18498	-349.900203	-349.893219	-349.892275	-349.930925	30.329	
C	 0.0349536557	 1.5189998784	-0.0500340343	-0.508372
C	 0.0465858208	 0.0059884903	 0.0067396095	 0.384629
C	 0.4665021284	-0.7229106979	-1.2731080583	-0.10625
C	 1.7095616852	-1.5821315263	-1.2290264997	-0.304641
C	 0.368090363	-2.1657916485	-0.8496203696	-0.068382
C	-0.0895729803	-1.995269434	 0.5910130973	-0.013271
C	 0.6399877116	-0.7732873215	 1.2390447597	-0.105388
C	-0.6359932567	-0.4731845375	 2.0594008452	-0.268662
C	-1.1429981972	-0.8273094048	 0.6465692197	-0.089792
H	 1.03556432	 1.9027412931	-0.2793070039	 0.118888
H	-0.637471377	 1.8718776733	-0.8407277719	 0.114546
H	-0.2899418094	 1.9761675733	 0.8888246999	 0.11557
H	 0.096178055	-0.3657209049	-2.2280847217	 0.076469
H	 2.1206001035	-1.8900755136	-2.1855846554	 0.104386
H	 2.4600158624	-1.4114966663	-0.4646198293	 0.109062
H	-0.085110867	-2.9276659778	-1.4733683118	 0.081002
H	-0.2580547565	-2.8814825753	 1.2055614853	 0.059959
H	 1.6713821051	-0.7413841763	 1.5967094889	 0.063933
H	-0.8743476572	-1.1855776496	 2.8543069683	 0.086743
H	-0.780198111	 0.5511119862	 2.4098401813	 0.089602
H	-2.1760565786	-0.8645142802	 0.2915776207	 0.059972
208.5795	225.5819	294.7015	326.3846	367.3245	448.573	518.7819	611.3045	666.3996	682.2643	753.5743	809.1466	821.9657	827.1337	885.7458	899.2864	912.1026	919.5667	943.8134	997.0392	1003.904	1026.2454	1042.9399	1063.8388	1071.3924	1075.3219	1097.1675	1103.7627	1120.3134	1158.3226	1179.7493	1188.4347	1200.1643	1214.9247	1235.1979	1249.7927	1279.3102	1322.8307	1331.4425	1381.0287	1413.6698	1488.0378	1491.1399	1494.343	1526.8584	3027.3071	3053.4985	3077.3997	3083.0954	3083.9485	3100.8449	3103.8445	3112.966	3127.2924	3162.4264	3175.9045	3209.0821
CC12C3CC3C3C1CC23	C[C@@]12[C@H]3C[C@H]3[C@H]3[C@@H]1C[C@@H]23	
InChI=1S/C9H12/c1-9-5-2-4(5)8-6(9)3-7(8)9/h4-8H,2-3H2,1H3	InChI=1S/C9H12/c1-9-5-2-4(5)8-6(9)3-7(8)9/h4-8H,2-3H2,1H3/t4-,5+,6-,7+,8-,9+/m1/s1
