16
gdb 30899	3.10109	1.22063	0.9131	3.0652	69.98	-0.18	0.0299	0.2099	1231.5017	0.125618	-471.232925	-471.224104	-471.22316	-471.266458	32.818	
N	 0.0407370408	 1.3067849925	 0.2345125457	-0.589
C	-0.0226152815	-0.0552389595	 0.0899719056	 0.447684
N	-1.0947793006	-0.7836555719	-0.0286417032	-0.378871
C	-0.6031293777	-2.0831147621	-0.0448722943	 0.208675
N	-1.462784638	-3.1677156719	-0.104917448	-0.601776
C	 0.7541021099	-2.0770856921	 0.0487018569	 0.192206
C	 1.7884170567	-3.1396691046	 0.0291318307	-0.187634
O	 1.5316169441	-4.1141666678	-0.9908409167	-0.414741
O	 1.1365608293	-0.7264179349	 0.1371444063	-0.220874
H	 0.8898511637	 1.7332241458	-0.1054199381	 0.263511
H	-0.8006649532	 1.776359798	-0.0642333342	 0.270119
H	-2.3393889689	-2.9441628842	-0.5553658268	 0.249733
H	-1.0251540245	-3.9911793715	-0.4968942648	 0.252859
H	 2.7802805115	-2.6772755334	-0.0827213642	 0.107663
H	 1.8085530649	-3.726212115	 0.9561205494	 0.12338
H	 1.4500513135	-3.6294176074	-1.8201233644	 0.277065
64.947	128.1261	202.7241	233.5983	285.5057	322.1371	323.799	363.5759	384.6735	437.681	519.4754	575.1563	640.8583	663.5465	713.4321	734.5801	776.4119	831.2624	951.1408	1003.6435	1038.8353	1065.391	1141.1154	1150.8134	1227.6496	1289.9668	1360.7306	1409.098	1417.2665	1466.3464	1502.0439	1598.8487	1628.9545	1677.062	1706.3051	2998.1995	3040.6375	3547.0535	3579.5782	3652.5938	3689.959	3794.9935
NC1=NC(N)=C(CO)O1	Nc1nc(N)c(CO)o1	
InChI=1S/C4H7N3O2/c5-3-2(1-8)9-4(6)7-3/h8H,1,5H2,(H2,6,7)	InChI=1S/C4H7N3O2/c5-3-2(1-8)9-4(6)7-3/h8H,1,5H2,(H2,6,7)
