16
gdb 75313	2.46078	1.69843	1.16034	4.2587	75.36	-0.2589	-0.0244	0.2344	1058.1957	0.123895	-400.756115	-400.748151	-400.747207	-400.788501	29.996	
C	-0.0682464753	 1.5027597652	 0.0525194413	-0.508598
C	-0.040280437	 0.0111376336	-0.0268042135	 0.258242
C	 0.0641111444	-0.7724593823	-1.1057489408	-0.172833
C	 0.0477536312	-2.2508093124	-0.7820755907	-0.298172
C	-0.0049858882	-2.2721403385	 0.7388578265	-0.023382
O	 1.1091663151	-1.6609710936	 1.3847687647	-0.282149
C	-0.0854904781	-0.8647741185	 1.1979318958	 0.231978
C	-0.757162341	-0.4439052485	 2.4015805894	 0.216904
N	-1.3117517593	-0.0683133334	 3.3437392654	-0.339972
H	 0.7936382684	 1.885582374	 0.6122156961	 0.144626
H	-0.0564843274	 1.9494629345	-0.9444214249	 0.1315
H	-0.9641559824	 1.8545904553	 0.5772069151	 0.149092
H	 0.1897777357	-0.4044416837	-2.1179498949	 0.107986
H	-0.8247238461	-2.7593183379	-1.2108020569	 0.125647
H	 0.9375218105	-2.7721420244	-1.1549773815	 0.136817
H	-0.4660114903	-3.0911318796	 1.283050279	 0.122316
124.2154	140.5023	180.8643	215.6196	291.2913	322.7788	397.0918	494.0791	546.1834	570.3934	620.386	631.393	745.9798	815.6059	837.2826	890.2455	943.912	963.8402	991.6938	1035.6721	1067.8872	1073.0992	1121.1283	1187.4911	1229.9141	1285.3985	1317.1152	1331.8084	1404.0418	1419.8883	1460.5789	1477.6039	1487.7152	1705.2024	2359.5563	3028.7662	3033.5383	3068.3543	3079.6687	3123.2737	3165.1363	3197.5547
CC1=CCC2OC12C#N	CC1=CC[C@H]2O[C@@]12C#N	
InChI=1S/C7H7NO/c1-5-2-3-6-7(5,4-8)9-6/h2,6H,3H2,1H3	InChI=1S/C7H7NO/c1-5-2-3-6-7(5,4-8)9-6/h2,6H,3H2,1H3/t6-,7+/m1/s1
