23
gdb 120163	3.17252	1.00919	0.89936	0.7677	87.8	-0.2457	0.0979	0.3436	1446.6242	0.204942	-388.246253	-388.236765	-388.235821	-388.280919	35.887	
C	-0.0365117068	 1.5065113135	-0.0011353635	-0.385489
C	-0.1095812192	 0.0199383086	 0.3034133596	-0.041104
O	-1.260190263	-0.5127540861	-0.3287170376	-0.272971
C	-1.3994070351	-1.8958936472	-0.178378025	 0.164115
C	-2.0661702322	-2.4897474045	 1.1041753529	-0.101049
C	-3.4002489382	-1.861914525	 0.6095408967	-0.256675
C	-2.7471572681	-2.4885014695	-0.669170239	 0.290862
C	-3.2793581661	-2.4746265729	-2.0767232808	-0.517262
C	-2.4021866635	-3.7229147968	 0.2220973417	-0.261105
H	 0.8459836079	 1.9500202015	 0.4697019977	 0.113497
H	 0.0231010917	 1.6739766502	-1.0803399337	 0.125865
H	-0.9258560539	 2.0197450358	 0.3756872734	 0.126052
H	 0.7934236958	-0.4952969052	-0.0649145195	 0.085834
H	-0.1563150529	-0.1503298378	 1.3907861571	 0.09009
H	-0.490447331	-2.4157042748	-0.5205662467	 0.052038
H	-1.6730589496	-2.5005275377	 2.121100473	 0.066256
H	-4.3192886542	-2.3398264635	 0.9610717714	 0.081243
H	-3.4708179254	-0.7745502258	 0.6337690129	 0.103336
H	-3.3631379047	-1.44762784	-2.4472459089	 0.128816
H	-2.6166855773	-3.0240924751	-2.7547574176	 0.115
H	-4.2714405908	-2.9359511261	-2.129252958	 0.116169
H	-1.5657640887	-4.3504146399	-0.1028379539	 0.084583
H	-3.2514050247	-4.3274629816	 0.5492036578	 0.091897
64.5943	76.8953	123.3632	194.4078	232.1164	245.651	287.2076	344.4242	360.3613	446.9722	552.5317	617.3435	645.3098	762.1872	814.0628	822.1394	895.1146	905.6995	907.2349	914.9616	963.0075	1015.0635	1020.3508	1028.5362	1066.394	1087.3795	1098.9237	1142.2585	1159.2628	1171.8039	1185.3701	1191.1556	1203.8095	1228.1946	1232.3385	1255.0142	1296.6135	1336.6626	1385.9858	1405.2335	1409.1357	1443.2314	1483.4514	1488.1165	1491.2374	1492.3715	1500.0955	1527.3907	1537.7205	2960.8984	2979.4107	2992.147	3027.2045	3043.8669	3044.3281	3058.0882	3092.8136	3100.159	3107.8505	3113.4999	3118.602	3120.8553	3140.804
CCOC1C2CC1(C)C2	CCO[C@H]1[C@H]2C[C@]1(C)C2	
InChI=1S/C8H14O/c1-3-9-7-6-4-8(7,2)5-6/h6-7H,3-5H2,1-2H3	InChI=1S/C8H14O/c1-3-9-7-6-4-8(7,2)5-6/h6-7H,3-5H2,1-2H3/t6-,7-,8+/m0/s1
