15
gdb 21221	7.05291	1.29641	1.11249	1.7744	64.44	-0.2234	-0.0009	0.2225	1055.5687	0.119079	-395.99501	-395.986925	-395.985981	-396.028029	27.874	
C	-0.0025777428	 1.4206436943	-0.0644636067	-0.323733
N	-0.0296734774	-0.0302236989	-0.0273713533	-0.376155
C	-1.2174950101	-0.6911119627	 0.0325819475	 0.440054
N	-2.3650796037	-0.1101005823	 0.3130020121	-0.229179
O	-3.2642157399	-1.2067038898	 0.315790225	-0.206592
C	-2.5475299705	-2.2929522597	 0.0214735565	 0.427381
C	-3.2550437526	-3.5987080789	-0.0505409385	-0.494077
N	-1.2846414069	-2.0569230761	-0.1676101304	-0.376015
H	 1.0356303763	 1.7561188449	-0.0240840826	 0.125964
H	-0.4799166734	 1.8350595007	-0.9632848116	 0.127275
H	-0.5311195312	 1.8158994051	 0.8068588966	 0.156676
H	 0.6859165273	-0.5263463006	-0.5337631566	 0.255907
H	-4.0483414421	-3.5655551067	-0.8032426665	 0.156057
H	-2.542771804	-4.381830222	-0.3089169391	 0.159338
H	-3.721350109	-3.8358772973	 0.9104470776	 0.157099
60.712	100.6839	138.602	184.3971	237.1319	320.5759	368.0746	449.7313	501.4657	655.3322	684.354	764.1841	774.9755	917.9958	999.2683	1021.0351	1057.195	1068.5832	1134.5186	1156.8222	1182.4464	1305.4131	1356.2524	1409.2728	1457.2422	1475.8841	1476.972	1482.0399	1509.1869	1530.0601	1628.9634	1652.7538	3009.0389	3053.5426	3091.6716	3112.5259	3134.7542	3163.4688	3642.4169
CNC1=NOC(C)=N1	CNc1noc(C)n1	
InChI=1S/C4H7N3O/c1-3-6-4(5-2)7-8-3/h1-2H3,(H,5,7)	InChI=1S/C4H7N3O/c1-3-6-4(5-2)7-8-3/h1-2H3,(H,5,7)
