13
gdb 7240	4.89786	1.34037	1.05237	1.6981	57.54	-0.2607	-0.0564	0.2043	1022.3411	0.09648	-431.991629	-431.983893	-431.982949	-432.024012	27.453	
N	-0.1278065007	 1.3996862118	 0.0552428134	-0.521817
C	-0.0362978204	 0.0608047916	 0.0024650033	 0.403675
O	 0.9971414793	-0.5912284054	-0.0227810912	-0.388605
C	-1.3930295758	-0.6374771985	-0.0263617128	 0.29664
N	-2.467169448	 0.0390835218	-0.0010650671	-0.523098
N	-1.2204048106	-2.0173839314	-0.0800885957	-0.335861
C	-2.2167651809	-2.9571700138	-0.1177830097	 0.165221
O	-3.4034218979	-2.7139274954	-0.1093811196	-0.300091
H	 0.7068215243	 1.9595167646	 0.0784770265	 0.271556
H	-1.0463766236	 1.8162311312	 0.0715525554	 0.287776
H	-3.2861588093	-0.570397031	-0.0257431107	 0.260998
H	-0.2443842948	-2.2969315757	-0.0897243721	 0.279039
H	-1.8118439614	-3.9849196597	-0.1571189099	 0.104567
84.7143	111.7222	190.7728	261.766	290.4566	347.7326	373.7882	483.5411	521.4551	574.4571	666.2007	727.6249	746.0545	827.1568	927.6941	971.9981	1030.9514	1043.8396	1102.8795	1179.9835	1292.3613	1405.8181	1433.8548	1528.5607	1592.2635	1721.779	1788.1204	1811.8571	2970.8432	3479.9839	3538.9331	3585.4358	3735.4129
NC(=O)C(=N)NC=O	NC(=O)C(=N)NC=O	
InChI=1S/C3H5N3O2/c4-2(3(5)8)6-1-7/h1H,(H2,5,8)(H2,4,6,7)	InChI=1S/C3H5N3O2/c4-2(3(5)8)6-1-7/h1H,(H2,5,8)(H2,4,6,7)
