16
gdb 125060	3.11358	1.39111	1.03191	3.7704	71.37	-0.2424	-0.0029	0.2395	1120.7664	0.125255	-434.048127	-434.040147	-434.039203	-434.081275	28.953	
C	-1.0614278309	 1.0150060753	-0.4577349064	-0.524363
C	-0.1752113894	-0.1555100518	-0.1898110594	 0.240912
C	 0.6803888844	-0.9008063552	-0.9790677843	 0.231575
N	 1.2723390207	-1.8605309241	-0.2068920457	-0.267532
N	 0.8320532903	-1.7665675316	 1.0116054464	-0.118167
N	-0.042086796	-0.7410361829	 1.027497972	-0.222023
C	 1.0152751924	-0.7920231042	-2.413072467	-0.013243
C	 0.000232341	-0.7510801888	-3.4806425669	-0.180796
O	 0.6898677281	 0.4347728205	-3.0813661648	-0.233761
H	-0.8993208706	 1.8143804566	 0.2734907019	 0.137013
H	-0.8411052517	 1.4092999673	-1.4499569139	 0.17759
H	-2.1218917537	 0.7400276071	-0.4171301839	 0.138359
H	-0.4860186623	-0.4878462507	 1.8965003115	 0.277886
H	 1.991971043	-1.203070676	-2.663639597	 0.116615
H	 0.2475402857	-1.1223982016	-4.4739149572	 0.125107
H	-1.0542155511	-0.7924170501	-3.2124896153	 0.114829
56.4356	141.4219	170.8759	189.6023	258.3375	322.7435	408.3438	454.58	582.0607	678.6389	685.8569	704.4876	754.0111	854.9624	908.3927	993.4261	1002.7347	1029.3053	1068.3671	1085.2395	1096.89	1149.8946	1172.6249	1216.0422	1252.3332	1279.1177	1288.2226	1373.9979	1413.0111	1416.0901	1481.8188	1500.5868	1511.7362	1535.2673	1631.5652	3031.8786	3083.673	3086.2675	3129.3853	3153.8617	3177.7646	3648.6258
CC1=C(N=NN1)C1CO1	Cc1c(nn[nH]1)[C@H]1CO1	
InChI=1S/C5H7N3O/c1-3-5(4-2-9-4)7-8-6-3/h4H,2H2,1H3,(H,6,7,8)	InChI=1S/C5H7N3O/c1-3-5(4-2-9-4)7-8-6-3/h4H,2H2,1H3,(H,6,7,8)/t4-/m1/s1
