19
gdb 64526	2.94964	1.59778	1.21608	2.5168	80.	-0.2414	-0.022	0.2193	1057.6106	0.158217	-385.823357	-385.815408	-385.814463	-385.855718	30.925	
C	 0.0145252857	 1.6867252062	-0.2291155166	-0.483011
C	-0.0177436457	 0.1649677686	-0.1025841403	 0.218447
C	-1.3577607069	-0.3763350118	-0.5356415244	 0.101023
O	-1.979378143	-1.2400602391	 0.0330434584	-0.259586
C	 1.2026063617	-0.6367463051	-0.6694853809	-0.086299
C	 2.0893197441	-0.2988188842	 0.5797767234	-0.055026
C	 2.4621616056	-1.7766385243	 0.7988573038	-0.28121
C	 0.9933557923	-1.8189434104	 0.3394387848	-0.034613
C	 0.6326921072	-0.5098124542	 1.1276314418	-0.068507
H	 1.0097422015	 2.0840439448	-0.0152652552	 0.127007
H	-0.2596354877	 2.0040826338	-1.2419354931	 0.120793
H	-0.6906819257	 2.1571475387	 0.4653045901	 0.126602
H	-1.7574331153	 0.0863600812	-1.4706840788	 0.066594
H	 1.5392270665	-0.7122648294	-1.7053802209	 0.07302
H	 2.709847553	 0.5881297473	 0.7093390491	 0.074248
H	 3.2068848113	-2.2039748973	 0.1195310878	 0.093249
H	 2.6624212868	-2.0833821201	 1.8303867365	 0.09612
H	 0.3366827659	-2.6747424721	 0.1991159058	 0.094742
H	 0.3184576028	-0.4567484225	 2.1706167987	 0.076408
91.0012	177.7028	186.9168	220.9533	273.0833	303.9977	407.2701	454.5166	581.2743	687.6958	748.9202	823.981	832.7555	850.6772	863.5876	885.161	923.3109	932.5177	965.5809	996.2574	999.1853	1027.3412	1067.3642	1086.2263	1128.5898	1141.5378	1148.3625	1156.8393	1172.9144	1190.2562	1201.8511	1236.789	1248.6058	1306.016	1316.5807	1408.6394	1429.4342	1491.8639	1497.7844	1509.864	1816.9578	2837.1207	3029.5353	3037.8801	3087.7203	3092.1233	3094.6628	3104.0427	3112.7069	3119.3621	3143.8698
CC1(C=O)C2C3CC2C13	C[C@@]1(C=O)[C@H]2[C@@H]3C[C@H]2[C@H]13	
InChI=1S/C8H10O/c1-8(3-9)6-4-2-5(6)7(4)8/h3-7H,2H2,1H3	InChI=1S/C8H10O/c1-8(3-9)6-4-2-5(6)7(4)8/h3-7H,2H2,1H3/t4-,5+,6-,7+,8-
