19
gdb 106177	2.73059	1.60197	1.41635	0.9983	74.17	-0.2233	0.0893	0.3126	1014.1816	0.160117	-422.979938	-422.972166	-422.971222	-423.012289	30.129	
C	 0.0727810464	 1.3309937949	-0.1875576764	-0.26032
O	-0.0191394173	-0.0356982093	 0.1897048464	-0.286983
C	-1.2903538913	-0.539714549	 0.1115599177	 0.434426
C	-1.7521946379	-1.9604190752	-0.0873740146	-0.1594
C	-2.7208686805	-1.8550215503	 1.0931004235	-0.24951
C	-2.5060199471	-0.3034166979	 1.0584292403	 0.001629
O	-3.5033049338	 0.3618427882	 0.2984837722	-0.265512
C	-3.4406267167	-0.1824314677	-1.0301737387	-0.103166
C	-2.0822113403	-0.8652644032	-1.1203999439	-0.160035
H	 1.1212471909	 1.6180998131	-0.0841484574	 0.128394
H	-0.2440245222	 1.4789659682	-1.2289518868	 0.112459
H	-0.540902273	 1.9716657597	 0.4595670411	 0.122549
H	-1.1701036588	-2.8264340618	-0.3787511502	 0.09327
H	-3.752751681	-2.1947601172	 0.9609165388	 0.099079
H	-2.3025193831	-2.3038829404	 1.998155064	 0.10645
H	-2.3718699271	 0.2191477673	 2.004442327	 0.087767
H	-4.2788299463	-0.8743728095	-1.1929421194	 0.098276
H	-3.5371925092	 0.6403757075	-1.7479961187	 0.104703
H	-1.5662741018	-0.9398000474	-2.070081655	 0.095925
87.2602	145.7276	168.4531	239.0603	332.6496	367.6684	429.5526	488.872	586.0516	670.5059	718.5317	753.0589	825.1041	862.1754	915.2298	933.4327	952.0194	996.6964	1002.1707	1027.657	1044.6081	1073.0233	1088.7546	1113.1515	1150.3429	1160.8493	1173.3783	1178.567	1216.9899	1220.4971	1238.5929	1274.1914	1301.5831	1327.3287	1374.2264	1436.5575	1484.3796	1487.5941	1502.5304	1507.2982	1527.3615	2999.2937	2999.8985	3048.8163	3051.3153	3056.182	3103.3801	3125.8023	3132.9952	3185.3469	3196.6408
COC12C3CC1OCC23	CO[C@@]12[C@H]3C[C@@H]1OC[C@@H]23	
InChI=1S/C7H10O2/c1-8-7-4-2-6(7)9-3-5(4)7/h4-6H,2-3H2,1H3	InChI=1S/C7H10O2/c1-8-7-4-2-6(7)9-3-5(4)7/h4-6H,2-3H2,1H3/t4-,5+,6-,7+/m0/s1
