16
gdb 8278	5.4502	1.09208	0.99875	3.4963	65.91	-0.2477	0.0171	0.2649	1140.7294	0.130464	-379.896354	-379.888449	-379.887505	-379.929147	28.507	
O	 0.1216442491	 1.4603087382	-0.0283338463	-0.431874
C	 0.0835946853	 0.0572098369	-0.0318734844	 0.148046
C	 0.2350209454	-0.6168015431	 1.3598856387	-0.208796
N	-1.2409976363	-0.7037246312	 1.4217508131	-0.08894
C	-1.8270987912	-1.8572902377	 2.0691442967	-0.288891
C	-3.2933490297	-1.8039652045	 2.0348444391	 0.277136
N	-4.4469198101	-1.7701964544	 1.9914687405	-0.300863
C	-1.3354128747	-0.573004997	-0.0507928861	-0.207717
H	-0.5016773942	 1.770191536	 0.6390063451	 0.291715
H	 0.7744005732	-0.2693901133	-0.8090562374	 0.100678
H	 0.7301615898	-1.5996163455	 1.2948265627	 0.09225
H	 0.701147718	-0.0255694144	 2.1547584057	 0.113433
H	-1.5099802814	-2.8165232116	 1.6144503874	 0.126964
H	-1.5068050181	-1.8802325258	 3.1175858656	 0.157488
H	-2.1580794376	 0.0513721492	-0.4113037026	 0.123632
H	-1.3553606774	-1.5425999418	-0.5740627578	 0.09574
75.7183	86.3169	150.4391	298.1635	305.8705	382.6494	392.6096	414.7903	438.5066	513.1123	737.2167	842.0058	858.5187	927.8488	936.6254	989.8239	1004.1697	1016.7588	1094.6689	1128.8704	1141.7614	1180.3033	1222.3078	1237.1657	1266.2367	1289.7435	1322.5185	1330.2718	1386.9207	1442.5752	1470.7675	1493.8552	1521.2046	2367.8046	2914.7653	2969.0507	2980.282	3057.8106	3073.1229	3085.6897	3120.8696	3797.3356
OC1CN(CC#N)C1	OC1CN(CC#N)C1	
InChI=1S/C5H8N2O/c6-1-2-7-3-5(8)4-7/h5,8H,2-4H2	InChI=1S/C5H8N2O/c6-1-2-7-3-5(8)4-7/h5,8H,2-4H2
