15
gdb 79674	2.74471	1.5408	1.20625	4.3281	71.01	-0.2475	-0.0042	0.2433	1018.9333	0.11245	-416.716067	-416.708456	-416.707512	-416.748006	29.204	
O	 0.095268919	 1.4351357765	-0.1595737588	-0.411576
C	-0.0378766946	 0.0596566882	 0.0209150829	 0.035486
C	-0.4716725084	-0.6975718939	 1.2415879141	-0.099176
N	-1.5888721469	-0.2070746727	 2.113130937	-0.143903
C	-2.1000586165	 1.1169392044	 1.6568134955	-0.253425
C	-2.4533571653	-0.0947101088	 0.8953366576	-0.083381
C	-1.359447877	-0.6498788717	-0.0477466711	 0.122058
C	-1.6319206129	-1.665428599	-1.0073916845	 0.20729
N	-1.8625015327	-2.4921823326	-1.7849732741	-0.344804
H	 0.938767	 1.7031029527	 0.2236994865	 0.298909
H	 0.7136832522	-0.5233547889	-0.5170540019	 0.127083
H	 0.1016852977	-1.5329537199	 1.6256998962	 0.130712
H	-2.8612571855	 1.4829514632	 2.3400694319	 0.132503
H	-1.4317175884	 1.8570850909	 1.246273175	 0.158992
H	-3.4424841706	-0.5385763584	 0.8822513737	 0.123232
137.3914	157.2009	198.9793	264.1586	283.4344	422.2578	447.8171	483.4713	535.5338	589.8545	659.7356	689.593	754.5437	797.0427	853.4148	901.3811	964.036	1004.6329	1019.4794	1049.3827	1093.8262	1117.7771	1128.5482	1148.0772	1208.9964	1235.1099	1264.7335	1283.6203	1324.2922	1366.4982	1472.6618	1500.1806	2341.7337	3082.0262	3139.433	3178.845	3189.4267	3275.8505	3794.8254
OC1C2N3CC3C12C#N	O[C@H]1[C@H]2N3C[C@H]3[C@@]12C#N	
InChI=1S/C6H6N2O/c7-2-6-3-1-8(3)4(6)5(6)9/h3-5,9H,1H2	InChI=1S/C6H6N2O/c7-2-6-3-1-8(3)4(6)5(6)9/h3-5,9H,1H2/t3-,4+,5-,6+,8?/m0/s1
