16
gdb 112384	3.28958	1.2111	0.92106	1.7539	67.18	-0.2508	-0.0261	0.2248	1216.5137	0.124364	-475.091845	-475.083408	-475.082463	-475.125839	30.199	
C	-0.0322276457	 1.4163213464	 0.0886965778	-0.249247
O	-0.0105301363	 0.0146601306	-0.147005439	-0.242642
C	-1.2572502613	-0.6186668464	-0.0190208073	 0.002349
C	-1.1952462114	-2.032635111	-0.6106098608	-0.377202
C	-1.7816310407	-2.9574426385	 0.4505642611	 0.417044
O	-2.0270644968	-4.1314295495	 0.3639097125	-0.336098
N	-1.9808019374	-2.1817529565	 1.5925838063	-0.351493
C	-1.6622927492	-0.8390669961	 1.4586973208	 0.407478
O	-1.7011235437	-0.0180902561	 2.3406132711	-0.344662
H	 0.980569746	 1.776691078	-0.1034122876	 0.130988
H	-0.727565323	 1.9188800232	-0.6009608204	 0.10693
H	-0.3202731816	 1.649793281	 1.1178162644	 0.149351
H	-2.0502721978	-0.015452264	-0.4899034754	 0.101295
H	-1.7305366533	-2.1528221319	-1.5535947832	 0.146575
H	-0.1505364867	-2.3098785928	-0.780049825	 0.165193
H	-2.3087508312	-2.5794268364	 2.4624940548	 0.27414
41.3186	120.4022	135.874	186.3696	248.1886	316.6964	367.7371	415.9122	540.6975	557.5312	626.9843	651.9331	685.3638	729.6083	827.5244	880.5616	949.3517	1026.3313	1055.5986	1155.2646	1169.4468	1180.9243	1186.213	1239.4451	1263.3755	1305.0723	1334.0993	1360.2059	1378.9268	1454.2881	1476.9835	1483.8998	1516.8491	1833.0035	1878.9844	2976.3836	2991.329	3078.7993	3086.8178	3133.4787	3133.6857	3608.1086
COC1CC(=O)NC1=O	CO[C@H]1CC(=O)NC1=O	
InChI=1S/C5H7NO3/c1-9-3-2-4(7)6-5(3)8/h3H,2H2,1H3,(H,6,7,8)	InChI=1S/C5H7NO3/c1-9-3-2-4(7)6-5(3)8/h3H,2H2,1H3,(H,6,7,8)/t3-/m0/s1
