16
gdb 50941	1.74078	1.66083	0.90345	1.2257	66.39	-0.2636	-0.0487	0.215	1227.4745	0.122398	-475.026466	-475.017513	-475.016569	-475.061201	31.021	
O	 0.8600496557	 0.406712955	 1.4943550473	-0.32372
C	 0.3915309009	 1.0713242743	 0.5933554191	 0.155116
N	 1.1000267691	 1.5588572063	-0.4594160787	-0.283437
C	 2.4795273232	 1.2022691145	-0.6873303531	-0.094455
C	 2.8165840615	 1.428326767	-2.1515336568	 0.149436
O	 2.0271505437	 1.8585723408	-2.9549537615	-0.256125
C	 3.4556958376	 1.994876606	 0.1806350477	 0.068704
C	 3.9465438526	 1.4435890362	 1.4448277179	-0.165212
O	 4.7677364262	 1.4451980855	 0.2676067622	-0.238774
H	-0.6762813374	 1.3581196233	 0.5436636684	 0.088137
H	 0.621753358	 1.9741918635	-1.2481920519	 0.264758
H	 2.6465637267	 0.1391367225	-0.4619709631	 0.130881
H	 3.8619235182	 1.1852528653	-2.4227158751	 0.126196
H	 3.4108831268	 3.076949083	 0.0514140816	 0.10629
H	 4.2706919881	 2.1207520614	 2.2321678318	 0.125003
H	 3.5770760992	 0.4743794254	 1.7679558641	 0.1472
60.2133	82.4591	116.9442	171.9655	188.7499	251.2963	291.2331	356.9633	410.4028	476.4323	603.8728	696.5079	788.4339	823.5633	868.5058	908.5832	953.9128	1029.7523	1038.5485	1086.5871	1114.9669	1137.1669	1152.1678	1173.0117	1225.7474	1266.459	1285.3799	1315.539	1403.5645	1426.8955	1430.4125	1508.42	1529.2054	1793.6805	1823.4139	2955.0945	2959.4467	3018.2435	3103.1346	3110.124	3205.4238	3583.9614
O=CNC(C=O)C1CO1	O=CN[C@@H](C=O)[C@H]1CO1	
InChI=1S/C5H7NO3/c7-1-4(6-3-8)5-2-9-5/h1,3-5H,2H2,(H,6,8)	InChI=1S/C5H7NO3/c7-1-4(6-3-8)5-2-9-5/h1,3-5H,2H2,(H,6,8)/t4-,5+/m0/s1
