16
gdb 33809	2.1848	1.60078	1.13221	4.1267	82.69	-0.2517	-0.009	0.2426	1102.0334	0.123868	-363.57125	-363.563066	-363.562122	-363.603973	31.196	
C	 0.0738274169	-1.204110261	-0.0279393277	-0.397279
C	 0.0419504814	-0.0013635729	-0.0121019445	 0.204592
C	-0.008865207	 1.4174444359	 0.035392257	 0.133201
C	 0.2711692391	 2.2877701007	-1.1603475059	-0.353675
C	 1.1786840708	 2.4496223343	 0.0317374704	 0.147677
C	 0.4742521369	 3.2676555865	 1.1260244871	-0.284342
C	-0.706679617	 2.248395122	 1.1295111532	-0.282631
C	 2.5780687279	 2.1935656891	-0.030968241	 0.211893
N	 3.7177187299	 1.9906299567	-0.0612261781	-0.348018
H	 0.1093277619	-2.2653284603	-0.0476477096	 0.198023
H	 0.7083197757	 1.77398135	-2.0085145866	 0.152022
H	-0.4123120791	 3.095300129	-1.4129559033	 0.125103
H	 1.0255105299	 3.2688079218	 2.0666089017	 0.13344
H	 0.2413905599	 4.2990303099	 0.8477650945	 0.116351
H	-1.6936177187	 2.6306391936	 0.855268366	 0.113173
H	-0.7835621786	 1.7065448447	 2.0723285867	 0.130467
87.1575	141.6439	174.85	202.5162	294.4594	393.8989	431.2952	495.2647	532.2717	568.261	598.7822	632.1613	658.7449	664.5465	739.9768	785.8141	808.7532	939.5465	947.8739	984.0672	1019.1084	1101.0571	1114.1669	1125.3131	1214.4958	1218.6058	1247.8412	1253.4081	1320.3344	1379.2518	1480.7171	1483.6649	1509.0064	2234.9194	2342.5515	3064.991	3071.1395	3114.0533	3126.2841	3142.6902	3224.4064	3501.8012
C#CC12CC1(CC2)C#N	C#C[C@]12C[C@]1(CC2)C#N	
InChI=1S/C8H7N/c1-2-7-3-4-8(7,5-7)6-9/h1H,3-5H2	InChI=1S/C8H7N/c1-2-7-3-4-8(7,5-7)6-9/h1H,3-5H2/t7-,8+/m0/s1
