20
gdb 107872	2.50064	1.61603	1.13914	2.6671	79.52	-0.2261	0.0654	0.2915	1128.2213	0.170585	-403.047035	-403.038607	-403.037663	-403.07983	32.808	
C	-0.2627688957	 1.3776264934	-0.2905164729	-0.422458
C	-0.0049746741	-0.1162868962	-0.308984257	 0.059053
C	 1.1558686747	-0.7085993371	-1.1163659065	-0.149314
C	 2.149738712	-0.2640420104	-0.0015998427	-0.008998
C	 2.760360488	-1.6512594202	 0.1790403155	-0.312128
C	 1.2650100595	-1.8814844231	-0.0786040606	 0.347729
C	 0.5326098789	-3.1974438817	-0.0281728162	-0.207532
O	-0.8038423906	-3.1562566567	-0.5077406355	-0.402071
N	 0.8875211948	-0.6569801772	 0.8168855466	-0.199324
H	 0.6614883681	 1.9621539142	-0.2603125478	 0.114282
H	-0.821147164	 1.679970695	-1.18335554	 0.114591
H	-0.8617029489	 1.6471196054	 0.5856302079	 0.128668
H	-0.9443748369	-0.6726193459	-0.3572964355	 0.086788
H	 1.3355996801	-0.7465864557	-2.1986816515	 0.054979
H	 2.6169547328	 0.7114114532	 0.1308930467	 0.08392
H	 3.4536669263	-1.995068495	-0.5934068641	 0.09517
H	 3.1181256357	-1.8924923937	 1.1840563046	 0.10745
H	 1.1283005547	-3.9487033186	-0.572143398	 0.094048
H	 0.4694489683	-3.5261082292	 1.0148161076	 0.128715
H	-0.7707873438	-2.9578195906	-1.4491523906	 0.286433
92.4877	158.7518	195.8278	222.4342	259.2088	299.0752	341.1092	412.6488	448.7467	514.4764	677.5068	695.8864	735.4247	814.5783	834.7469	854.069	885.834	935.1224	971.3617	1021.1649	1039.8236	1043.1373	1058.4245	1064.1423	1092.7205	1110.5098	1138.5808	1158.2897	1169.9602	1213.0008	1229.0659	1249.6943	1271.8387	1282.5138	1317.3841	1383.2284	1400.5181	1411.4739	1421.9093	1483.7721	1491.5896	1494.116	1494.4412	2973.5238	3013.9837	3034.3529	3051.355	3074.369	3078.1875	3098.9312	3109.9956	3115.9007	3119.6822	3817.1423
CC1C2C3CC2(CO)N13	C[C@H]1[C@H]2[C@@H]3C[C@@]2(CO)N13	
InChI=1S/C7H11NO/c1-4-6-5-2-7(6,3-9)8(4)5/h4-6,9H,2-3H2,1H3	InChI=1S/C7H11NO/c1-4-6-5-2-7(6,3-9)8(4)5/h4-6,9H,2-3H2,1H3/t4-,5-,6-,7-/m0/s1
