19
gdb 77388	2.18183	1.98167	1.25254	2.6023	75.38	-0.2469	0.0628	0.3097	1040.0175	0.157658	-422.952999	-422.944377	-422.943433	-422.985472	33.777	
C	 0.0015974912	 1.4466159764	-0.0089733352	-0.524814
C	 0.0380382842	-0.053546133	-0.0563885694	 0.322403
C	 0.5455799423	-0.9624438045	-1.2043807687	 0.051392
O	 1.8900346748	-0.8988324502	-1.6053932955	-0.44798
C	 0.0995873784	-1.9488403889	-0.1254204466	 0.35631
O	 0.1776172995	-3.3190296909	-0.2406229697	-0.469075
C	 0.5995648965	-1.022479883	 1.057985422	-0.186708
C	-0.7665640639	-1.0897560328	 1.7698010265	-0.291327
C	-1.133065312	-1.0498060255	 0.2720891983	-0.150027
H	 1.0040751573	 1.8606592462	-0.1619971046	 0.126914
H	-0.6456155005	 1.8482935407	-0.7963573192	 0.123437
H	-0.3719986339	 1.8136521468	 0.953065256	 0.120272
H	-0.0512370748	-0.9483301366	-2.1226297043	 0.082398
H	 2.4459357724	-1.0591668066	-0.8349603036	 0.283052
H	-0.1599580971	-3.7230426379	 0.5671386107	 0.286533
H	 1.5965360714	-0.9928953539	 1.503175725	 0.065862
H	-1.0005915551	-2.0097911429	 2.3178131735	 0.081112
H	-1.0522610579	-0.2214372665	 2.3711817537	 0.098341
H	-2.1142526528	-1.0558184272	-0.2051787389	 0.071904
175.5269	188.5517	209.5005	223.3546	252.7719	270.1616	280.4651	309.4384	415.2493	554.7979	562.8782	595.1759	661.2546	745.4527	785.3763	856.1184	883.8812	905.6389	925.7143	953.8963	1001.4063	1029.7666	1066.6793	1096.7584	1103.1322	1119.2995	1130.5491	1158.2868	1163.0311	1198.1339	1235.8065	1251.1746	1287.6093	1298.8654	1354.199	1383.3265	1412.7389	1474.5059	1485.2861	1493.7632	1518.5459	3026.8731	3031.1364	3063.5442	3084.1987	3087.6039	3092.9934	3095.5204	3103.9138	3794.3973	3805.4616
CC12C(O)C3(O)C1CC23	C[C@@]12[C@@H](O)[C@@]3(O)[C@@H]1C[C@@H]23	
InChI=1S/C7H10O2/c1-6-3-2-4(6)7(3,9)5(6)8/h3-5,8-9H,2H2,1H3	InChI=1S/C7H10O2/c1-6-3-2-4(6)7(3,9)5(6)8/h3-5,8-9H,2H2,1H3/t3-,4+,5-,6-,7-/m1/s1
