17
gdb 113037	4.0675	0.99517	0.93388	1.6039	74.45	-0.2544	-0.0118	0.2425	1263.6656	0.137302	-418.011029	-418.002657	-418.001713	-418.044559	30.946	
O	 0.032393334	 1.4764976623	 0.2078709482	-0.416424
C	 0.1150286716	 0.0906456	-0.0187503835	-0.056959
C	-1.2796867272	-0.5511343077	-0.1058899431	-0.056273
N	-2.0546935987	-0.196850223	 1.1058250646	-0.329149
C	-3.4505647369	 0.0866387259	 0.7331782081	-0.15054
C	-3.3490924915	 0.3508671972	-0.7574085843	-0.081461
C	-2.1529992094	-0.0062359285	-1.2064729128	-0.029615
C	-4.3710561416	-1.035741846	 1.0212899648	 0.253573
N	-5.0702536829	-1.9224585295	 1.269737271	-0.320525
H	-0.6315379946	 1.5738187206	 0.904952576	 0.283202
H	 0.6529211195	-0.0616564372	-0.9613242198	 0.107754
H	 0.6890869129	-0.4209195494	 0.7726301408	 0.084581
H	-1.1508384431	-1.6403285905	-0.2289843014	 0.089131
H	-1.9827618783	-0.8892111916	 1.8405307459	 0.242037
H	-3.8296918808	 0.9588213758	 1.2831236031	 0.132916
H	-4.177796293	 0.7513448988	-1.324939157	 0.126542
H	-1.8109410399	 0.0666976829	-2.2310913506	 0.121211
62.7671	102.4949	156.0599	178.5567	285.7614	309.4437	391.6129	465.5651	521.8811	556.8576	646.9479	668.075	734.356	812.7341	852.1958	875.7461	923.7775	934.6866	968.7957	994.3253	1003.2207	1080.6619	1098.9751	1132.344	1143.678	1214.8721	1249.7397	1302.6283	1332.0692	1337.9998	1353.1018	1390.6655	1434.7719	1447.1981	1507.8067	1693.8956	2345.7671	2948.4795	2965.4988	3010.2312	3065.3575	3214.6082	3241.6543	3571.0188	3739.6319
OCC1NC(C=C1)C#N	OC[C@H]1N[C@@H](C=C1)C#N	
InChI=1S/C6H8N2O/c7-3-5-1-2-6(4-9)8-5/h1-2,5-6,8-9H,4H2	InChI=1S/C6H8N2O/c7-3-5-1-2-6(4-9)8-5/h1-2,5-6,8-9H,4H2/t5-,6-/m0/s1
