21
gdb 79988	2.11519	1.63747	1.51363	1.2124	82.81	-0.225	0.0119	0.2369	1067.1849	0.181667	-387.060596	-387.051728	-387.050784	-387.093192	35.434	
C	-0.2425898907	 1.5050754628	 1.1969711598	-0.436917
C	-0.0857802054	 0.06637626	 0.7357741716	 0.024596
C	 0.9353447729	-0.3546679114	-0.3895537051	-0.115885
C	 2.2646716937	 0.0896606836	 0.2311109483	-0.083855
C	 2.1564069782	-0.3084933948	 1.5017674314	-0.172489
C	 0.7662717017	-0.9665576257	 1.5408064603	 0.355422
O	 0.2549083951	-1.4624040375	 2.7382871497	-0.494866
C	 0.8483946948	-1.8187115728	 0.2022341944	-0.011161
C	-0.3196899002	-2.7231705066	-0.1650139604	-0.432781
H	 0.7209263461	 1.9763317997	 1.4052068841	 0.116726
H	-0.7575287683	 2.1006463159	 0.4349044715	 0.108312
H	-0.8470160069	 1.5460798505	 2.1095178918	 0.121407
H	-1.0747963677	-0.3492094552	 0.5267236033	 0.074649
H	 0.7476191345	-0.1477870338	-1.442313343	 0.058446
H	 3.0760824785	 0.5965917322	-0.2721581499	 0.099998
H	 2.8406071655	-0.2149750449	 2.3344717753	 0.095059
H	 0.921444625	-2.0233978742	 3.1487109219	 0.278937
H	 1.7865681849	-2.3734819036	 0.1030425572	 0.060238
H	-1.2896538564	-2.2211327578	-0.154324821	 0.122391
H	-0.1743884529	-3.1449036465	-1.1657030626	 0.113444
H	-0.3787431125	-3.5603302798	 0.5395250214	 0.11833
160.6312	190.2297	202.104	216.5548	242.2745	250.0994	306.5581	372.67	397.9568	511.0377	547.3487	604.3178	638.3035	678.7361	726.5695	750.1634	802.4524	877.8539	899.3118	903.117	912.6398	984.528	1036.5018	1044.5537	1047.046	1078.3926	1090.4544	1120.0573	1145.0954	1164.714	1199.1188	1226.5326	1250.387	1265.6037	1331.0506	1344.2847	1377.3693	1400.3081	1405.0647	1425.7866	1492.2735	1493.7512	1499.4161	1502.5472	1624.0435	3033.295	3033.9105	3053.7453	3076.1947	3090.3508	3092.4187	3119.5584	3123.5841	3125.918	3208.9508	3237.0972	3807.9141
CC1C2C=CC1(O)C2C	C[C@H]1[C@H]2C=C[C@]1(O)[C@H]2C	
InChI=1S/C8H12O/c1-5-7-3-4-8(5,9)6(7)2/h3-7,9H,1-2H3	InChI=1S/C8H12O/c1-5-7-3-4-8(5,9)6(7)2/h3-7,9H,1-2H3/t5-,6-,7-,8-/m0/s1
