15
gdb 11738	4.6762	1.47702	1.28186	1.3817	63.4	-0.2642	0.0147	0.2789	943.357	0.118579	-399.762927	-399.755578	-399.754634	-399.79482	27.417	
O	 0.018779736	 1.4160162319	 0.1775546762	-0.405811
C	-0.0127154623	 0.0323822824	-0.1259097836	-0.176865
C	-1.3811371038	-0.5460637051	 0.0262931844	 0.439898
C	-2.0987231409	-1.0207977483	 1.2349387107	-0.323618
C	-1.9446019283	-1.9524333574	 0.0226253913	-0.266592
C	-2.8324547105	-1.4428022127	-1.062298914	 0.450639
N	-3.656569989	-1.9545774896	-1.8534375603	-0.553781
O	-2.3748134088	-0.1240555249	-0.9624722029	-0.316385
H	-0.5637069463	 1.8603990211	-0.4483761431	 0.296476
H	 0.3533844999	-0.1671855724	-1.1439863758	 0.106993
H	 0.666589617	-0.4583213136	 0.5781130007	 0.122098
H	-1.4751958791	-1.2949913818	 2.0805034125	 0.132411
H	-3.0702923748	-0.6086270707	 1.4866588338	 0.135719
H	-1.4703597769	-2.9213013016	 0.072819207	 0.127655
H	-4.0383494723	-1.2571151373	-2.4943617168	 0.231163
73.7833	125.1892	203.1838	319.1669	364.6537	406.6126	443.9208	455.8113	633.512	704.8038	755.0916	849.6622	874.3015	889.266	904.7551	970.4842	980.0815	992.918	1007.9782	1062.7511	1076.688	1085.553	1135.5627	1214.1603	1233.3391	1304.6836	1383.2346	1391.4612	1436.3549	1485.5427	1494.7536	1834.1058	2998.4427	3086.3806	3127.8874	3220.0047	3233.4826	3480.9288	3809.485
OCC12CC1C(=N)O2	OC[C@]12C[C@H]1[C]([NH])O2	
InChI=1S/C5H7NO2/c6-4-3-1-5(3,2-7)8-4/h3,6-7H,1-2H2	InChI=1S/C5H7NO2/c6-4-3-1-5(3,2-7)8-4/h3,6-7H,1-2H2/t3-,5+/m0/s1
