13
gdb 130599	3.08984	1.54563	1.03026	5.0357	78.63	-0.2309	-0.0569	0.174	1060.038	0.090186	-415.598381	-415.591001	-415.590057	-415.630318	27.939	
O	 0.0382360295	-0.0562123879	 0.0024962505	-0.365675
C	-0.0183274686	 1.1630241431	 0.0100999788	 0.323787
C	-1.2453213364	 1.9412289349	 0.0300782877	-0.24584
C	-1.1897742062	 3.2945771299	 0.0360808629	 0.046059
N	 0.008790952	 3.93664795	 0.0232897266	-0.22984
N	 1.2012500848	 3.3325508698	 0.004190432	-0.236088
C	 1.2088583744	 2.0216145685	-0.0025225181	 0.002322
C	 2.4786592058	 1.3807804348	-0.0228383459	 0.314445
C	 3.5377686482	 0.8108538866	-0.0399371514	-0.368321
H	-2.1935686332	 1.4196465454	 0.0400270962	 0.127884
H	-2.0610060449	 3.9399100589	 0.0508954735	 0.143174
H	 0.0625289482	 4.9423831942	 0.0275983633	 0.285911
H	 4.4708895763	 0.303938322	-0.0549524862	 0.202182
96.3706	142.2656	205.9202	379.0263	387.3163	451.6575	465.6163	547.4154	574.7684	592.7616	610.3431	629.3106	655.5335	696.9785	786.1965	861.1759	900.4725	964.6943	1046.5759	1102.5436	1170.4035	1297.7139	1311.5086	1417.9329	1508.2923	1583.143	1646.1884	1748.8832	2233.3235	3196.0553	3226.018	3503.2215	3647.6341
O=C1C=CNN=C1C#C	O=c1cc[nH]nc1C#C	
InChI=1S/C6H4N2O/c1-2-5-6(9)3-4-7-8-5/h1,3-4H,(H,7,9)	InChI=1S/C6H4N2O/c1-2-5-6(9)3-4-7-8-5/h1,3-4H,(H,7,9)
