23
gdb 65802	3.73505	0.77575	0.74368	0.8899	91.97	-0.2548	0.0598	0.3146	1639.6469	0.204006	-351.119381	-351.109256	-351.108312	-351.154674	38.308	
C	 0.0465327242	 1.6020396325	 0.1160558111	-0.449315
C	 0.000279123	 0.0738564366	 0.0206229478	 0.365522
C	-1.4169848127	-0.45267078	-0.2220788731	-0.251854
C	-2.0448501848	-0.0034221781	-1.5602109272	-0.369921
C	-3.3459151256	-0.6146256805	-1.8027521845	 0.297339
C	-4.4166186413	-1.1330985228	-1.9763783108	-0.437263
C	 1.119475105	-0.4886562168	-0.9195740953	-0.249214
C	 2.0045198324	-0.7621779192	 0.3255808544	-0.214475
C	 0.7486891594	-0.5936986461	 1.221509535	-0.266696
H	 1.0567218194	 1.9513261092	 0.3541317735	 0.113056
H	-0.2466037414	 2.079938899	-0.8247699061	 0.114476
H	-0.6240073052	 1.9661728643	 0.9032063212	 0.112539
H	-1.3993706416	-1.548500868	-0.2041747325	 0.101679
H	-2.0734485049	-0.1414000666	 0.6005786472	 0.103644
H	-2.1525682725	 1.087492834	-1.5794757315	 0.131243
H	-1.3650641994	-0.2565987102	-2.3846500331	 0.131433
H	-5.3634305302	-1.5838905534	-2.1413438903	 0.191094
H	 0.8099759789	-1.4147129397	-1.4142954281	 0.095983
H	 1.5169563357	 0.1907671312	-1.6788882954	 0.092266
H	 2.5174573305	-1.7254828787	 0.3670350219	 0.097516
H	 2.7457007215	 0.0238627826	 0.49139564	 0.102959
H	 0.8527828093	 0.0064790178	 2.1299150131	 0.092474
H	 0.3036668004	-1.5555901272	 1.4933460829	 0.095514
57.5112	90.46	104.0782	141.5677	216.6172	254.8873	313.6352	336.5461	360.7725	370.7243	425.3091	494.0148	614.6871	632.3645	655.5687	721.6307	765.2985	793.878	864.9515	900.2571	923.8375	945.4711	954.2848	974.2413	986.0411	1006.3277	1026.1585	1068.3215	1152.2687	1166.416	1206.869	1215.4636	1236.4334	1257.2579	1274.2671	1285.2764	1298.9159	1308.6698	1341.4018	1378.7079	1412.9308	1470.6253	1474.7131	1481.4965	1490.9901	1497.1662	1503.3756	1508.1246	2237.8254	3017.4573	3024.4097	3027.8288	3044.0906	3048.7564	3050.8328	3063.5218	3072.9423	3090.0676	3091.3235	3094.9193	3097.3674	3118.1126	3507.9758
CC1(CCC#C)CCC1	CC1(CCC#C)CCC1	
InChI=1S/C9H14/c1-3-4-6-9(2)7-5-8-9/h1H,4-8H2,2H3	InChI=1S/C9H14/c1-3-4-6-9(2)7-5-8-9/h1H,4-8H2,2H3
