13
gdb 42802	3.36841	1.29966	1.16327	3.683	72.29	-0.2663	-0.0699	0.1963	1030.9361	0.090614	-415.590153	-415.583308	-415.582364	-415.62171	25.957	
O	 0.0533670845	 0.0304787577	-0.1979778476	-0.267522
C	 0.0167251418	 1.1991095523	-0.0750777273	 0.459365
C	-1.0556555559	 2.3860951926	 0.0831672181	-0.172203
N	-0.0304193919	 2.9160205508	 1.0296564447	-0.2794
C	 0.9938812299	 2.4538682006	 0.0582390355	-0.23639
C	 0.5951915684	 3.1232935113	-1.2588494481	 0.218317
C	-0.7614635122	 3.0689773239	-1.2312860845	-0.179324
C	 1.4681230585	 3.5382356596	-2.2861877565	 0.189808
N	 2.2147334616	 3.8870170145	-3.1013480695	-0.335771
H	-2.0766182042	 2.2509856565	 0.4289447424	 0.11106
H	-0.0621244092	 3.9367291752	 1.0911915559	 0.226078
H	 2.0373248815	 2.4071114217	 0.3570261789	 0.117467
H	-1.4620178928	 3.3186356733	-2.014652942	 0.148517
100.2587	167.6456	204.9229	363.2963	467.0425	520.8288	529.4976	567.8525	571.3219	652.655	766.0907	808.7737	833.406	869.7414	894.3524	953.5917	975.2841	1031.7638	1051.1192	1080.164	1169.1271	1176.4362	1236.3726	1268.482	1284.5122	1313.4527	1594.1967	1961.759	2335.1166	3171.5701	3174.7459	3249.9529	3429.723
O=C1C2NC1C(=C2)C#N	O=C1[C@H]2N[C@@H]1C(=C2)C#N	
InChI=1S/C6H4N2O/c7-2-3-1-4-6(9)5(3)8-4/h1,4-5,8H	InChI=1S/C6H4N2O/c7-2-3-1-4-6(9)5(3)8-4/h1,4-5,8H/t4-,5+/m0/s1
