19
gdb 88019	2.91357	1.29292	1.13192	2.8492	76.1	-0.221	0.072	0.293	1152.7309	0.157581	-422.962554	-422.953955	-422.953011	-422.995778	33.139	
O	-0.0884244202	 1.3450471246	-0.1281158417	-0.420589
C	-0.050876063	-0.0398347507	 0.0539352971	 0.034489
C	-0.6112939037	-0.6457424737	 1.3232607017	-0.397363
C	-1.3708816641	-0.7288274628	 0.029041926	 0.19439
C	-2.7112805405	-0.1046260585	-0.3387306331	-0.136998
O	-3.0544766891	-1.2718566613	-1.130739044	-0.321869
C	-1.8293727566	-1.918494053	-0.7774782038	 0.414219
C	-1.0993171919	-2.8075828977	-1.7268339163	-0.339706
C	-1.7664081368	-3.3799861767	-0.4799664853	-0.336416
H	 0.5937733387	 1.7390381048	 0.4256811359	 0.290463
H	 0.7929636254	-0.547350534	-0.4160434768	 0.088288
H	-0.1483373464	-1.5463602778	 1.715713214	 0.114364
H	-0.9915848439	 0.0396673788	 2.0748806712	 0.117662
H	-3.4141571441	 0.0423612814	 0.4899321959	 0.102887
H	-2.6564072941	 0.8045303989	-0.9458384564	 0.121827
H	-1.5764337202	-2.9998525201	-2.6818389475	 0.126387
H	-0.0154610911	-2.7587812754	-1.7632337786	 0.111945
H	-1.1380016541	-3.7191157938	 0.3378996738	 0.110717
H	-2.6796226443	-3.9488707331	-0.6178970322	 0.125303
74.458	132.661	163.9897	221.4793	264.2538	302.8115	353.1189	432.5794	468.3536	528.3685	551.58	626.4186	755.0211	816.1024	858.3781	875.7999	877.6653	916.4004	956.6593	970.9709	999.064	1026.62	1029.9593	1046.0095	1061.7447	1084.2917	1101.3656	1147.3995	1157.707	1184.9678	1189.6421	1232.6596	1284.5859	1312.5682	1354.0069	1391.0797	1435.6756	1446.7089	1484.6705	1517.9908	1529.4681	3024.4426	3080.2968	3087.7905	3117.8634	3124.1911	3127.0229	3207.5923	3208.1181	3222.3743	3805.1205
OC1CC11COC11CC1	O[C@H]1C[C@]21COC12CC1	
InChI=1S/C7H10O2/c8-5-3-6(5)4-9-7(6)1-2-7/h5,8H,1-4H2	InChI=1S/C7H10O2/c8-5-3-6(5)4-9-7(6)1-2-7/h5,8H,1-4H2/t5-,6+/m0/s1
