14
gdb 46977	2.98743	1.8225	1.28914	4.7311	60.85	-0.2628	-0.0119	0.2509	919.2137	0.103628	-473.873166	-473.866578	-473.865634	-473.904855	24.442	
O	 0.0014009358	 0.0093735724	 0.0340137304	-0.319867
C	 0.0135331874	 1.1978411498	 0.1197738784	 0.447557
O	-1.1056211664	 1.9286432449	 0.386436009	-0.217925
C	-0.8783311762	 3.3396803095	 0.3016138038	-0.108471
C	 0.6373181435	 3.5559334212	 0.1851230525	 0.052843
O	 1.2182720104	 3.9926547683	 1.436568579	-0.224284
C	 2.0403145954	 2.9865259157	 1.8274204961	 0.117919
N	 2.1485019527	 1.9424951686	 1.1167775382	-0.244325
C	 1.2218255393	 2.141747597	-0.011611151	-0.171877
H	-1.4064136483	 3.7232413623	-0.5771745047	 0.127751
H	-1.2807354144	 3.8157551711	 1.1984180745	 0.142927
H	 0.8963388498	 4.2942950286	-0.5745094605	 0.114319
H	 2.568263936	 3.172804261	 2.7553955497	 0.157452
H	 1.726932385	 1.9602128994	-0.9620693054	 0.125981
71.8151	132.4225	232.1612	361.1769	463.8131	535.9963	594.3882	684.3253	728.8662	790.6228	859.7812	883.9549	897.3204	946.7024	968.1811	993.4453	1027.3545	1078.2478	1089.5368	1113.3982	1174.0695	1240.541	1250.9166	1268.3059	1293.7661	1327.665	1368.5353	1401.1723	1510.0782	1695.1511	1897.4641	3055.2161	3096.7286	3108.271	3118.2718	3227.6977
O=C1OCC2OC=NC12	O=C1OC[C@H]2OC=N[C@@H]12	
InChI=1S/C5H5NO3/c7-5-4-3(1-8-5)9-2-6-4/h2-4H,1H2	InChI=1S/C5H5NO3/c7-5-4-3(1-8-5)9-2-6-4/h2-4H,1H2/t3-,4-/m1/s1
