18
gdb 116588	3.65453	0.94866	0.79238	2.4764	76.99	-0.2604	-0.0085	0.2519	1456.3674	0.147276	-439.148943	-439.13997	-439.139026	-439.184674	31.721	
C	 0.004411212	 1.5307300212	 0.0804456152	-0.361734
C	 0.1244797917	 0.0062479361	 0.0271709537	-0.151272
N	 0.8658267492	-0.3968089407	-1.1626154877	-0.305733
C	 1.8920908105	-1.1078469047	-1.0820056477	 0.423073
C	 2.7607780004	-1.5652772036	-2.2363537082	-0.323443
C	 3.6836177807	-2.6150254092	-1.6092820123	-0.361895
C	 3.4885933466	-2.4454668347	-0.1097174522	 0.422252
O	 4.0956877664	-2.9385297774	 0.7891044087	-0.311147
O	 2.4246837143	-1.5975037842	 0.1133354641	-0.219025
H	 0.9888029757	 1.9953344876	 0.1938413775	 0.119203
H	-0.447376323	 1.9138714988	-0.838728416	 0.126355
H	-0.6159258051	 1.8350266126	 0.9290024213	 0.11389
H	 0.5712573235	-0.3742689416	 0.9531332485	 0.117119
H	-0.8791052225	-0.4290685012	-0.0576302743	 0.112168
H	 2.1410148915	-1.9397948131	-3.0517670089	 0.147136
H	 3.3215672494	-0.7084594453	-2.6219275719	 0.146812
H	 3.3997019873	-3.6399586815	-1.868207945	 0.154873
H	 4.7407828014	-2.5024278989	-1.8548812948	 0.151368
23.8502	49.7564	128.6445	143.021	180.899	265.1144	380.2072	444.7385	532.2546	548.2582	601.058	635.9407	686.3874	804.377	814.6753	821.5208	905.5573	941.8437	1015.1356	1032.8092	1057.6229	1090.0774	1116.0864	1156.9045	1164.3396	1222.2509	1260.971	1295.1837	1302.0236	1320.9511	1382.4368	1405.6345	1460.3286	1481.9353	1489.0496	1494.3127	1511.8643	1811.192	1914.1474	3021.8416	3040.5117	3061.4349	3069.3444	3070.8446	3112.1079	3121.4512	3122.4996	3133.0915
CCN=C1CCC(=O)O1	CCN=C1CCC(=O)O1	
InChI=1S/C6H9NO2/c1-2-7-5-3-4-6(8)9-5/h2-4H2,1H3	InChI=1S/C6H9NO2/c1-2-7-5-3-4-6(8)9-5/h2-4H2,1H3
