19
gdb 37087	2.14682	2.0149	1.31157	1.4486	79.85	-0.2253	0.0692	0.2945	1026.3704	0.160158	-381.969907	-381.962237	-381.961293	-382.001803	31.003	
C	-0.0488377083	 1.5108479189	 0.0955086928	-0.314767
C	 1.2649500168	 0.7738193226	-0.0510892958	-0.344522
C	-0.0291929547	 0.0177248642	 0.0030067579	 0.343771
C	-0.4359518947	-1.0007237374	 1.0545776582	-0.173213
N	-1.9061072152	-1.1818090827	 0.9178579554	-0.34959
C	-0.9821313913	-1.907034801	 0.0043639379	-0.145839
C	-0.5897512862	-0.9168455256	-1.0786074703	 0.32357
C	-1.2087469684	-0.6082796567	-2.3794650146	-0.299163
N	 0.0848593293	-1.3305148577	-2.3011407405	-0.377302
H	-0.2878112407	 1.9604075871	 1.0534596409	 0.11857
H	-0.4147021546	 2.0693857013	-0.7604697186	 0.113394
H	 1.7848184324	 0.8404888354	-1.0028342396	 0.10686
H	 1.9276311071	 0.7168810514	 0.8066034853	 0.116913
H	 0.0810855556	-1.2368001969	 1.9765213269	 0.094937
H	-2.1876595587	-1.8512531301	 1.6354662811	 0.227491
H	-0.9711279084	-2.9868892085	-0.0674660275	 0.101804
H	-2.0420222303	-1.1992673257	-2.7491332356	 0.120568
H	-1.2077783683	 0.428262231	-2.7091914571	 0.10926
H	 0.8568640187	-0.7008900096	-2.5106720569	 0.227258
106.9894	197.1746	204.4151	250.7651	305.9154	358.1039	512.6005	524.1584	592.3014	604.1814	766.9482	827.048	828.9686	834.8127	871.3097	883.8759	904.3152	927.4871	950.3885	964.2206	975.4921	987.7275	1018.2852	1049.4837	1055.7834	1072.9929	1093.3404	1111.6287	1129.8901	1183.0421	1191.6323	1223.8017	1251.6076	1286.0206	1306.0265	1338.3262	1398.3988	1445.6	1463.677	1503.8212	1521.6844	3102.8922	3116.0265	3127.5452	3186.5921	3187.922	3195.2856	3205.2058	3214.1768	3457.6429	3483.6598
C1CC11C2NC2C11CN1	C1CC21[C@H]1N[C@H]1[C@]12CN1	
InChI=1S/C7H10N2/c1-2-6(1)4-5(9-4)7(6)3-8-7/h4-5,8-9H,1-3H2	InChI=1S/C7H10N2/c1-2-6(1)4-5(9-4)7(6)3-8-7/h4-5,8-9H,1-3H2/t4-,5+,7-/m0/s1
