18
gdb 88218	3.63351	0.70377	0.65729	3.7762	86.58	-0.2535	-0.0482	0.2052	1747.3271	0.145067	-401.915916	-401.905847	-401.904903	-401.952804	34.79	
C	 1.3659960615	 1.0811195251	-0.4731112452	-0.39793
C	 0.2827715185	 0.0984369088	-0.1105406544	 0.020569
N	 0.7026895139	-1.1748034444	 0.4699492414	-0.316505
C	-0.0735357658	-0.2285552409	 1.3150359723	-0.267954
C	 0.5979429563	 0.3718680292	 2.4284045347	 0.127224
C	 1.1233996574	 0.901945376	 3.3791086465	 0.070136
C	 1.7607840258	 1.5255512958	 4.5217392819	 0.243814
C	 3.2763054753	 1.5365363262	 4.4945701923	-0.477351
O	 1.1138049884	 2.0018442057	 5.4311453225	-0.278936
H	 2.1667320859	 1.0615697501	 0.268873518	 0.13813
H	 1.7949029221	 0.8297981524	-1.4486063708	 0.125604
H	 0.9638689028	 2.0978258154	-0.528502827	 0.124867
H	-0.5670062733	 0.077347712	-0.7922261266	 0.095608
H	 0.0897225562	-1.930369909	 0.1739780058	 0.240061
H	-1.1190106667	-0.4680326364	 1.4966038335	 0.117827
H	 3.6590636	 0.5127772778	 4.4241692526	 0.148641
H	 3.6326144946	 2.0720142219	 3.607858043	 0.144526
H	 3.6538659573	 2.0174245142	 5.3981454198	 0.141669
25.1509	67.0859	83.7312	117.3961	171.8377	183.6777	238.579	342.0664	357.1072	405.111	532.8244	564.3071	596.8054	618.2941	698.0016	769.7265	835.6514	899.2452	957.458	980.3326	1002.9187	1041.8343	1042.5062	1088.5101	1145.5595	1192.1019	1228.1396	1244.3154	1278.2874	1380.7242	1393.4953	1420.1747	1452.4452	1460.7929	1468.5274	1487.0036	1495.8933	1763.6905	2321.9708	3039.471	3041.8685	3103.9228	3105.5861	3108.7873	3130.4155	3139.4038	3151.2933	3503.0489
CC1NC1C#CC(C)=O	C[C@H]1N[C@H]1C#CC(=O)C	
InChI=1S/C7H9NO/c1-5(9)3-4-7-6(2)8-7/h6-8H,1-2H3	InChI=1S/C7H9NO/c1-5(9)3-4-7-6(2)8-7/h6-8H,1-2H3/t6-,7+/m1/s1
