16
gdb 34338	3.04259	1.61674	1.32263	3.0632	74.96	-0.2382	0.0121	0.2503	978.5362	0.123984	-400.625569	-400.618316	-400.617371	-400.657016	29.121	
C	-0.0332190638	-1.1810117779	-0.0344683888	-0.375634
C	 0.0014384539	 0.0210904495	-0.0292573663	 0.217137
C	 0.0428620484	 1.4602048303	 0.0057243277	 0.300664
O	-0.4194755604	 2.122736557	-1.1879592617	-0.326553
C	 0.7782734106	 2.942720994	-1.2600826453	-0.092595
C	 1.3512692295	 2.3090043869	 0.025341426	-0.163523
C	 0.9083195506	 2.9073334394	 1.3796257218	-0.053001
N	-0.389529765	 3.5779106775	 1.1592206223	-0.325946
C	-0.3579776548	 2.1171609485	 1.3677179786	-0.128904
H	-0.065337705	-2.2424901965	-0.0517342769	 0.193989
H	 1.3506239552	 2.7159886618	-2.1665857517	 0.102169
H	 0.5427875867	 4.0080939225	-1.2086453751	 0.121327
H	 2.3312924028	 1.8388347637	-0.0026500863	 0.098721
H	 1.5498899288	 3.1830539419	 2.2066082528	 0.098336
H	-0.6745651387	 3.996559803	 2.0436597457	 0.235405
H	-0.9170227488	 1.6476059885	 2.1676057673	 0.098407
134.5645	148.2849	246.3962	309.5307	401.7129	471.3287	516.4702	526.5699	614.195	632.6489	671.9899	710.5505	793.9054	813.7763	839.776	898.2295	923.9028	964.7722	983.0332	1003.9373	1011.0824	1036.7897	1058.8202	1085.1828	1113.0422	1137.8023	1166.6498	1227.065	1244.7943	1303.332	1327.6639	1336.9399	1371.0372	1500.1942	2233.2758	3035.34	3107.462	3147.2403	3188.1229	3201.9768	3482.7569	3500.5636
C#CC12OCC1C1NC21	C#C[C@]12OC[C@H]1[C@H]1N[C@@H]21	
InChI=1S/C7H7NO/c1-2-7-4(3-9-7)5-6(7)8-5/h1,4-6,8H,3H2	InChI=1S/C7H7NO/c1-2-7-4(3-9-7)5-6(7)8-5/h1,4-6,8H,3H2/t4-,5+,6+,7-/m0/s1
