19
gdb 107496	2.06031	1.87721	1.27019	2.087	75.24	-0.2261	0.0682	0.2943	1056.2524	0.160043	-419.123558	-419.115313	-419.114369	-419.156274	32.097	
O	 0.1011779143	 1.3646963295	 0.3158626233	-0.410267
C	 0.0246002713	-6.8884*^-6	-0.0731013602	-0.183473
C	-1.359539253	-0.5668261689	 0.0489978879	 0.22455
C	-1.8745533011	-1.6469288759	-0.8218915193	-0.291059
N	-2.4503305122	-0.2994210283	-0.9894143932	-0.174375
C	-3.4439159829	-0.1555010244	 0.1427613568	-0.240866
C	-2.3333555694	-0.3139594787	 1.1844743452	 0.300224
C	-2.276335358	-0.783299413	 2.5867122087	-0.318842
N	-2.148094019	 0.6498573248	 2.2578997668	-0.364744
H	-0.5354511078	 1.8485414212	-0.2229233584	 0.295747
H	 0.3817461738	-0.1475200962	-1.1035238517	 0.105831
H	 0.7134867718	-0.5367771293	 0.5903443134	 0.117069
H	-1.2598580093	-1.9572174428	-1.6623780064	 0.120723
H	-2.4920391361	-2.4353509927	-0.3963782403	 0.114929
H	-3.8789576062	 0.8458097434	 0.1468733372	 0.123526
H	-4.2405242805	-0.9061531608	 0.1176320184	 0.106951
H	-3.1879661853	-1.0500736476	 3.1152682736	 0.118738
H	-1.3938761588	-1.3365424082	 2.9018781872	 0.109689
H	-1.1791372714	 0.9580177664	 2.2832455709	 0.245649
85.1078	148.2995	178.0844	218.666	300.7091	385.1989	402.7499	433.5278	462.1282	534.8729	583.7967	658.231	736.9328	827.7933	853.8008	879.6864	913.4251	952.5909	968.0589	985.177	999.4563	1049.049	1067.0476	1088.9957	1107.4023	1122.9499	1134.3998	1191.5278	1200.0487	1227.6366	1262.1296	1277.743	1308.8468	1354.4761	1389.6643	1427.5648	1433.6545	1487.2109	1489.7223	1507.2907	1517.2817	2994.5113	3048.7853	3057.9738	3096.7569	3100.2281	3118.8402	3180.6645	3189.4947	3509.8536	3800.7174
OCC12CN1CC21CN1	OC[C@]12CN1C[C@]12CN1	
InChI=1S/C6H10N2O/c9-4-6-3-8(6)2-5(6)1-7-5/h7,9H,1-4H2	InChI=1S/C6H10N2O/c9-4-6-3-8(6)2-5(6)1-7-5/h7,9H,1-4H2/t5-,6-,8?/m0/s1
