16
gdb 71528	2.59358	1.56576	1.43322	1.5618	76.27	-0.2393	0.0036	0.243	992.6211	0.122245	-400.603004	-400.595142	-400.594198	-400.635109	30.673	
C	 0.0235781602	 1.4788807386	-0.0663035863	-0.533487
C	 0.0460951313	-0.0153644006	-0.0633324853	 0.236658
N	 0.6855854673	-0.871500713	-1.1152604761	-0.370516
C	 0.1127436975	-1.8803425381	-0.174587636	-0.136086
C	 0.4593625657	-1.014506129	 1.0641341982	 0.042645
O	-0.8647576579	-1.0931950732	 1.6625806397	-0.358826
C	-1.1502933198	-1.0266224255	 0.2302029398	 0.418515
C	-2.4865769378	-1.0419201618	-0.2645923953	 0.064455
C	-3.5959469938	-1.0395408259	-0.7304756115	-0.389067
H	 1.0403732174	 1.8782680439	-0.1304349737	 0.138523
H	-0.551448843	 1.8626525483	-0.9155255249	 0.131143
H	-0.4416777952	 1.8420330385	 0.8552076727	 0.143674
H	 0.1384607828	-0.8412573703	-1.979510661	 0.215472
H	 0.1861096292	-2.9589317074	-0.3108507506	 0.09961
H	 1.3339397556	-1.0260885695	 1.7105772523	 0.105431
H	-4.5798675295	-1.041647025	-1.1310312021	 0.191855
115.6604	138.4283	215.8502	239.9915	290.4741	386.8526	475.654	529.8766	535.5135	615.8082	617.987	692.4706	700.8871	757.8021	787.6881	821.9396	840.5121	875.9011	925.3762	956.5908	1004.1971	1055.6823	1096.7209	1122.89	1138.1205	1180.0688	1231.6959	1271.7437	1283.3846	1321.6203	1368.7001	1412.8357	1481.5572	1487.0875	2229.6961	3036.738	3106.1409	3117.2625	3128.0436	3156.1406	3409.2627	3498.6147
CC12NC3C1OC23C#C	C[C@@]12N[C@H]3[C@@H]1O[C@@]23C#C	
InChI=1S/C7H7NO/c1-3-7-4-5(9-7)6(7,2)8-4/h1,4-5,8H,2H3	InChI=1S/C7H7NO/c1-3-7-4-5(9-7)6(7,2)8-4/h1,4-5,8H,2H3/t4-,5-,6+,7+/m0/s1
