18
gdb 12633	3.30152	1.82981	1.34614	1.3668	68.22	-0.2577	0.0011	0.2588	930.9706	0.153999	-384.943979	-384.935955	-384.935011	-384.976076	31.079	
C	-0.0627859428	 1.517545258	 0.0079390743	-0.422665
C	 0.0149409631	-0.0123007353	 0.0047513241	-0.061225
C	 0.8790982167	-0.5561903629	-1.1830639139	 0.094387
O	 0.9469429029	 0.2747401599	-2.3326700844	-0.428892
C	 2.2157895214	-0.8417099588	-0.5398676821	-0.119834
C	 2.1395210646	-0.8483530886	 0.789250339	-0.119834
C	 0.7378671494	-0.5684942685	 1.2781386663	 0.094387
O	 0.6732901399	 0.2508987288	 2.4361833536	-0.428892
H	 0.931604535	 1.9803478324	 0.0673139219	 0.096189
H	-0.5403803902	 1.8763969029	-0.9065900118	 0.130267
H	-0.6420609865	 1.8675384566	 0.8653652161	 0.130266
H	-1.004171587	-0.4045144696	-0.0556891033	 0.076083
H	 0.4391289799	-1.487371708	-1.5619136705	 0.098541
H	 1.4391720969	 1.0672934385	-2.0943891343	 0.278488
H	 3.0957022413	-1.0580100528	-1.1364628062	 0.102852
H	 2.9455398276	-1.0710896177	 1.4803943548	 0.102852
H	 0.2579841158	-1.5031540469	 1.5948754863	 0.098541
H	 1.1890880721	 1.0455077021	 2.26368083	 0.278488
65.3208	226.7864	265.6447	274.4544	297.9292	342.1581	343.5076	383.3368	458.7431	490.6723	621.5939	673.3841	751.8462	766.5805	827.2586	838.4992	964.9381	983.6473	1024.8525	1047.9359	1052.098	1077.6768	1102.8726	1136.4522	1158.939	1229.9871	1258.5727	1266.2096	1301.333	1302.7375	1364.7756	1366.2153	1398.0581	1428.9544	1436.4889	1501.2684	1515.5199	1678.0081	3017.6222	3023.9894	3026.3051	3065.7675	3100.2892	3132.2351	3179.2631	3204.4383	3811.1309	3811.5419
CC1C(O)C=CC1O	C[C@H]1[C@@H](O)C=C[C@H]1O	
InChI=1S/C6H10O2/c1-4-5(7)2-3-6(4)8/h2-8H,1H3	InChI=1S/C6H10O2/c1-4-5(7)2-3-6(4)8/h2-8H,1H3/t4-,5-,6+
