17
gdb 13372	6.15624	1.11358	0.99247	1.3228	68.07	-0.2527	0.022	0.2747	1190.9532	0.142344	-401.008313	-401.000207	-400.999263	-401.042	28.276	
C	-0.5157949628	 1.2452985399	-0.1328137682	-0.36196
C	 0.8308115687	 0.634722405	 0.2542387122	-0.139765
N	 1.5750581859	 0.2545918838	-0.9421370557	-0.323314
C	 2.2334551524	-0.8128201475	-0.961041931	 0.402811
C	 3.0234570598	-1.362421411	-2.1322539895	-0.18801
O	 3.8126605833	-2.3936035129	-1.5550461641	-0.236964
C	 3.0999864527	-2.831599973	-0.4308886168	 0.022805
O	 2.3798034622	-1.7082105482	 0.0705605716	-0.242051
H	-0.3726126912	 2.0986408149	-0.8017812086	 0.12377
H	-1.1402660644	 0.5119893023	-0.6526738091	 0.115285
H	-1.0557900874	 1.5847760295	 0.7567792112	 0.107286
H	 1.4252488309	 1.3839345492	 0.7945567064	 0.109133
H	 0.6851258071	-0.2101907541	 0.9398398014	 0.10543
H	 2.3447993018	-1.753260317	-2.9056427141	 0.123861
H	 3.6778653272	-0.6134515678	-2.5803961107	 0.147978
H	 2.3808246627	-3.6277972749	-0.6858346046	 0.102372
H	 3.8018386511	-3.179522258	 0.3313382395	 0.131334
31.3496	112.5563	153.4665	188.0801	216.1313	275.4261	368.506	471.0271	595.0624	703.1966	749.861	804.0993	847.2828	923.2472	981.0139	1008.6116	1043.5275	1075.7973	1100.3237	1119.7146	1141.5385	1168.0161	1201.8938	1233.5546	1238.5516	1301.0557	1346.4065	1384.9631	1408.9849	1436.7075	1487.651	1490.735	1499.8132	1508.4856	1543.834	1822.0205	2967.1772	2996.3785	3007.6972	3038.4184	3042.7456	3097.9569	3108.9934	3118.1278	3121.6128
CCN=C1COCO1	CCN=C1COCO1	
InChI=1S/C5H9NO2/c1-2-6-5-3-7-4-8-5/h2-4H2,1H3	InChI=1S/C5H9NO2/c1-2-6-5-3-7-4-8-5/h2-4H2,1H3
