14
gdb 131732	4.9864	1.04368	0.86768	3.0326	68.55	-0.2479	-0.0808	0.1671	1237.5481	0.101812	-470.019532	-470.011675	-470.010731	-470.052501	28.28	
O	 0.0550301774	 1.4364094836	 0.0091578672	-0.397273
C	-0.0005047951	 0.0327458266	 0.0018361858	-0.148511
C	-1.4310807173	-0.4375182105	 0.012636824	 0.363981
N	-2.4012213489	 0.424286324	 0.0222044233	-0.206546
N	-3.6415339236	-0.0949030381	 0.0314692433	-0.263901
C	-3.98904967	-1.4387324744	 0.0317519156	 0.409395
O	-5.1415575509	-1.8266109499	 0.0401613951	-0.379894
C	-2.7826338093	-2.2799909662	 0.0197789039	-0.087716
N	-1.579675575	-1.8105443888	 0.0110067785	-0.249179
H	 0.9811134226	 1.6942855749	-0.0053805346	 0.295764
H	 0.4837672958	-0.4053720452	-0.8869530032	 0.116946
H	 0.5001234234	-0.415338308	 0.876486177	 0.116962
H	-4.3931981012	 0.5833461177	 0.0390090388	 0.282106
H	-2.9370543179	-3.3575062959	 0.0186511155	 0.147867
64.1641	113.3583	193.419	221.1108	306.946	387.0396	393.242	466.2845	517.3913	557.3967	630.8015	742.7531	772.8858	789.5084	831.8473	968.3953	997.7284	1042.5497	1119.0068	1203.3532	1224.548	1244.5219	1260.5325	1303.1955	1377.7561	1432.4473	1479.9032	1504.3709	1568.3724	1652.0064	1796.8367	2963.8206	2983.0164	3157.7684	3583.3234	3838.8229
OCC1=NNC(=O)C=N1	OCc1n[nH]c(=O)cn1	
InChI=1S/C4H5N3O2/c8-2-3-5-1-4(9)7-6-3/h1,8H,2H2,(H,7,9)	InChI=1S/C4H5N3O2/c8-2-3-5-1-4(9)7-6-3/h1,8H,2H2,(H,7,9)
