18
gdb 60031	1.99018	1.07558	0.82648	3.1717	73.47	-0.2789	-0.0487	0.2303	1435.9842	0.144466	-439.108602	-439.09841	-439.097466	-439.144766	35.514	
C	-0.0501002503	 1.5450350156	 0.2202252549	-0.411611
C	 0.0228156857	 0.0344307388	 0.0139337372	 0.11938
O	 0.7998726363	-0.5997285351	 1.0297675864	-0.426282
C	-1.371399867	-0.6021483229	-0.0734563417	-0.212568
C	-1.2984133373	-2.1265371915	-0.2784297911	-0.237078
C	-2.5794387925	-2.8624641806	 0.1482020519	 0.152947
O	-3.3944334426	-2.3875486169	 0.8897004416	-0.231459
C	-0.9343319054	-2.505499323	-1.6425092176	 0.26082
N	-0.6737562303	-2.8057286462	-2.7278976357	-0.31564
H	 0.9560919935	 1.9647560638	 0.2978147898	 0.132986
H	-0.5671880511	 2.0332294608	-0.6115371511	 0.127665
H	-0.5975881167	 1.7866539788	 1.1401430839	 0.113025
H	 0.5685682644	-0.1751440745	-0.9140732768	 0.112426
H	 0.4636503305	-0.3060859288	 1.8845643877	 0.282423
H	-1.9233832636	-0.4260096814	 0.856137846	 0.123023
H	-1.9503407932	-0.1433400744	-0.8813030985	 0.122676
H	-0.506747292	-2.5063245058	 0.3885487041	 0.171504
H	-2.6797826085	-3.8898356369	-0.2584539909	 0.115763
48.6818	78.727	82.1659	149.1673	165.7055	242.2566	258.6109	281.3736	337.5711	350.1951	462.9645	467.211	520.7346	573.1491	626.7356	791.6137	837.6223	877.2633	946.2486	980.4962	1025.4184	1076.6868	1090.2539	1120.7188	1161.3434	1191.7589	1239.3765	1304.2742	1324.2115	1345.4372	1387.1356	1407.0541	1418.5836	1424.5172	1478.6606	1493.0739	1496.2353	1838.1281	2356.3498	2925.7411	2993.6822	3026.068	3041.5392	3053.3016	3094.9098	3103.652	3124.6573	3791.8667
CC(O)CC(C=O)C#N	C[C@@H](O)C[C@@H](C=O)C#N	
InChI=1S/C6H9NO2/c1-5(9)2-6(3-7)4-8/h4-6,9H,2H2,1H3	InChI=1S/C6H9NO2/c1-5(9)2-6(3-7)4-8/h4-6,9H,2H2,1H3/t5-,6-/m1/s1
