22
gdb 102663	3.1873	0.82565	0.69126	2.4417	78.74	-0.2466	0.06	0.3066	1638.0381	0.193991	-441.444164	-441.433992	-441.433047	-441.47986	37.2	
O	 0.0284893818	 1.3493870804	-0.2060707058	-0.424871
C	-0.016265677	-0.0686125759	-0.0202916309	-0.094512
C	-1.4796350067	-0.5181200292	-0.0182105381	-0.01413
C	-2.192972817	-0.1290280075	-1.3272131054	-0.054371
O	-2.4227114695	 1.2557601287	-1.4636158558	-0.433866
C	-1.5998698489	-2.0355259333	 0.2253445924	-0.235141
C	-0.9958778577	-2.5197170312	 1.5262318725	 0.023045
C	-0.6160411247	-3.9408412802	 1.7068330744	-0.250973
N	 0.4274393943	-2.9002746663	 1.6195501129	-0.315671
H	 0.9471626617	 1.6225975678	-0.2801878616	 0.294323
H	 0.5184837412	-0.5789132285	-0.8392316267	 0.083179
H	 0.4731823844	-0.343301758	 0.9224874094	 0.122623
H	-1.9905472466	 0.0108183232	 0.7976381035	 0.092998
H	-1.6133707679	-0.5324168051	-2.1791058643	 0.070843
H	-3.177346318	-0.6112946891	-1.3604972229	 0.09655
H	-1.5859019946	 1.6887951061	-1.2481879529	 0.288941
H	-2.6659825975	-2.2966270505	 0.2123628569	 0.111981
H	-1.1422014774	-2.5876510101	-0.609091346	 0.089362
H	-1.3393761334	-1.9791717295	 2.407495525	 0.094998
H	-0.7092778405	-4.4161191585	 2.67902057	 0.119949
H	-0.74985457	-4.6121177392	 0.8617659107	 0.110461
H	 0.833910484	-2.917365554	 0.6863623527	 0.224281
60.4105	90.2748	103.9377	130.1653	191.75	250.779	272.841	287.9977	333.6593	385.2711	418.1804	442.1263	543.3593	583.4379	788.3269	816.6709	843.8208	912.4736	919.9778	941.1982	966.0299	1025.1573	1044.5783	1060.7007	1090.1224	1106.6532	1123.6279	1130.0801	1159.1888	1176.2348	1230.4216	1249.3715	1255.2734	1273.5323	1279.878	1301.7854	1318.5649	1353.8809	1372.7891	1395.7664	1429.6711	1460.4827	1472.7865	1479.4057	1508.0296	1513.5239	1525.9734	2923.573	2960.9239	2999.5606	3025.0462	3042.2849	3044.2508	3053.5545	3106.3281	3115.3193	3191.4357	3483.6965	3749.1037	3836.7808
OCC(CO)CC1CN1	OCC(CO)C[C@H]1CN1	
InChI=1S/C6H13NO2/c8-3-5(4-9)1-6-2-7-6/h5-9H,1-4H2	InChI=1S/C6H13NO2/c8-3-5(4-9)1-6-2-7-6/h5-9H,1-4H2/t6-/m0/s1
