19
gdb 84523	2.19038	1.71313	1.39209	0.8305	85.85	-0.2225	0.014	0.2365	1045.4942	0.159206	-348.718788	-348.710515	-348.70957	-348.751163	32.849	
C	-0.4065590987	 1.5035773151	 0.0327347739	-0.405545
C	-0.0481042441	 0.0100422427	 0.0102877431	-0.038701
C	 0.6581817713	-0.4702282608	-1.2452107483	-0.069454
C	 1.7200559065	-1.2316035631	-0.9754285655	-0.088513
C	 1.9600344802	-1.3310007949	 0.4936699875	-0.106179
C	 2.3450304257	-0.0176644213	 1.1890129168	-0.216429
C	 2.9078435001	 1.0963335052	 0.4840021466	 0.349834
C	 3.435088441	 2.0280290435	-0.0661961057	-0.463137
C	 0.8881217975	-0.4705035918	 1.1243495895	-0.081378
H	 0.4860821115	 2.126029858	-0.0528071879	 0.143097
H	-1.0797084698	 1.750220138	-0.7952237424	 0.108225
H	-0.9186033533	 1.7629841802	 0.964957612	 0.111025
H	-0.9904883146	-0.5515678074	 0.1107138255	 0.084283
H	 0.3167645843	-0.1957003837	-2.2372872487	 0.093027
H	 2.371321829	-1.6932788703	-1.7080030528	 0.096686
H	 2.3195407825	-2.2533906359	 0.9364509572	 0.091491
H	 2.7782067842	-0.1611899462	 2.176446218	 0.112298
H	 3.8878851343	 2.8503504011	-0.5613197601	 0.190896
H	 0.4477239324	-0.7396391084	 2.0776015815	 0.088474
123.3248	130.5193	211.1248	230.4784	250.5743	341.6987	394.5356	486.9983	570.247	587.0052	616.7738	643.5711	712.6679	730.5773	759.7271	779.8719	802.3481	866.8588	910.478	957.3162	966.7948	1002.1295	1019.4568	1039.0388	1050.0404	1106.1488	1110.0738	1128.6479	1149.4499	1199.7124	1300.7788	1305.0435	1331.4039	1357.1953	1378.2532	1398.6314	1412.3854	1496.6318	1506.5323	1667.9813	2229.9501	2971.6226	3038.1606	3097.9876	3127.7848	3138.072	3165.0584	3176.4169	3186.4368	3212.5596	3506.1642
CC1C=CC2C(C#C)C12	C[C@H]1C=C[C@H]2[C@@H](C#C)[C@@H]12	
InChI=1S/C9H10/c1-3-7-8-5-4-6(2)9(7)8/h1,4-9H,2H3	InChI=1S/C9H10/c1-3-7-8-5-4-6(2)9(7)8/h1,4-9H,2H3/t6-,7+,8-,9+/m0/s1
