19
gdb 80875	2.24673	1.91882	1.55036	2.6406	73.59	-0.2468	0.0687	0.3156	963.071	0.159511	-422.979813	-422.972063	-422.971118	-423.011423	31.509	
C	-0.035790659	 1.5031113942	 0.051366635	-0.513066
C	-0.0160490881	-0.0067035769	-0.007594212	 0.25363
C	 0.4438212383	-0.8149007612	-1.2590824108	-0.2664
C	-0.3144638064	-1.9854560394	-0.5759955837	-0.155983
C	 0.4779400249	-2.1703138558	 0.7344716936	 0.05557
O	 1.8016633491	-1.6043435665	 0.7455611003	-0.26434
C	 0.6866905734	-0.7841416843	 1.1374931213	 0.020079
C	-1.3230354441	-0.8641732976	-0.1162517745	 0.121406
O	-2.0624058868	-1.000459683	 1.0706997506	-0.441101
H	 0.9797090393	 1.9126067625	 0.0211044369	 0.124416
H	-0.5935965754	 1.9270422094	-0.7902489052	 0.111931
H	-0.5093871179	 1.8521950126	 0.975778971	 0.12538
H	-0.0523795924	-0.4729858695	-2.169373518	 0.091713
H	 1.5127910838	-0.9352777084	-1.4131296566	 0.1256
H	-0.6319924531	-2.8727434605	-1.1230694875	 0.05942
H	 0.3031896154	-2.996362789	 1.4135425818	 0.099476
H	 0.6893506494	-0.4204658947	 2.1588579191	 0.1004
H	-1.9594860204	-0.5263911174	-0.9456312518	 0.065922
H	-2.8736845396	-1.4784335745	 0.8744399502	 0.285945
190.7577	210.531	224.709	244.7488	274.9993	308.7508	452.6297	478.4795	544.65	590.7187	660.4238	748.3058	785.2856	813.143	824.8616	840.81	888.832	892.4386	941.2141	976.0418	982.0599	1007.2813	1069.9787	1078.8148	1117.7505	1130.6101	1150.3023	1194.1162	1209.2221	1235.4446	1241.8964	1257.0475	1274.8281	1303.4085	1339.3278	1405.7526	1411.2934	1435.7529	1491.9221	1493.9039	1496.5962	3008.76	3027.4394	3087.9749	3094.1039	3096.5239	3117.814	3173.7348	3175.8018	3189.3142	3826.2694
CC12CC(C3OC13)C2O	C[C@@]12C[C@@H]([C@H]3O[C@@H]13)[C@H]2O	
InChI=1S/C7H10O2/c1-7-2-3(5(7)8)4-6(7)9-4/h3-6,8H,2H2,1H3	InChI=1S/C7H10O2/c1-7-2-3(5(7)8)4-6(7)9-4/h3-6,8H,2H2,1H3/t3-,4+,5+,6+,7-/m0/s1
