18
gdb 97564	3.04089	0.78181	0.66144	2.4619	77.83	-0.2419	0.0201	0.262	1675.7633	0.14544	-439.088467	-439.077749	-439.076805	-439.12625	37.051	
C	 0.7878265536	 1.8880344614	 0.0495816166	-0.380945
C	 0.0558630979	 0.530749976	 0.0114157245	-0.302009
C	 0.4348760006	-0.2816290883	-1.1399741926	 0.048219
C	 0.7508876617	-0.9709897502	-2.0782280379	 0.08194
C	 1.1952131519	-1.8282710982	-3.1780020814	-0.203114
O	 2.1953019217	-2.7602799597	-2.7856442854	-0.401086
C	 0.2244926433	-0.1878870236	 1.3785928188	 0.442058
N	 0.5280804415	-1.5073182972	 1.3234594351	-0.537766
O	 0.0627864371	 0.424294096	 2.4158229774	-0.368804
H	 1.8713384525	 1.7413641056	 0.0700823423	 0.12387
H	 0.537262089	 2.4817702545	-0.832492574	 0.12043
H	 0.4902431528	 2.4248891813	 0.9513547956	 0.149777
H	-1.0226129434	 0.7334458825	-0.0510423801	 0.139116
H	 0.3593383475	-2.4309845915	-3.5496362156	 0.143803
H	 1.5337548946	-1.2035589471	-4.0192345059	 0.122989
H	 2.9361468856	-2.255543314	-2.4335410257	 0.288347
H	 0.6826774225	-1.9738886787	 0.4455121419	 0.271499
H	 0.6313612693	-2.0104710688	 2.1888411165	 0.261676
27.1122	34.9805	67.174	117.5984	219.5679	232.3182	260.9314	272.0875	303.6054	354.7984	404.6336	406.5298	504.685	549.8403	593.0439	626.716	712.9206	776.9586	814.0968	973.8032	993.0254	1042.897	1073.7824	1087.2549	1104.0092	1177.6844	1212.3922	1275.0011	1320.4141	1344.398	1364.2361	1399.364	1415.752	1491.5697	1493.0912	1500.4676	1605.3147	1799.5049	2349.6613	2984.8225	3015.4202	3053.615	3066.055	3126.1284	3152.345	3594.337	3731.2217	3813.7067
CC(C#CCO)C(N)=O	C[C@@H](C#CCO)C(=O)N	
InChI=1S/C6H9NO2/c1-5(6(7)9)3-2-4-8/h5,8H,4H2,1H3,(H2,7,9)	InChI=1S/C6H9NO2/c1-5(6(7)9)3-2-4-8/h5,8H,4H2,1H3,(H2,7,9)/t5-/m0/s1
