20
gdb 61649	3.66287	0.79548	0.75014	2.6134	77.29	-0.228	-0.0411	0.1868	1562.2053	0.168413	-440.254675	-440.244851	-440.243907	-440.290238	35.452	
C	-0.390873938	 1.2991020883	 0.0545393111	-0.316725
N	 0.0810280083	-0.075447075	 0.0808669778	-0.075846
C	 1.4716842644	-0.3181165744	-0.2837504036	-0.266421
C	 1.0112260295	-0.533477697	 1.1178777539	 0.02861
C	 1.5187891711	 0.3392717661	 2.2484738134	-0.252626
C	 0.5798048939	 0.2986854416	 3.474352348	 0.053361
O	 0.4484737256	-1.0049861285	 3.9714271169	-0.432939
C	 1.0896354522	 1.2262272708	 4.5572485436	 0.135402
O	 1.3503113814	 0.8279669638	 5.666852272	-0.258385
H	 0.3647651656	 2.0576512734	 0.3164907419	 0.094988
H	-0.7425297389	 1.5244218611	-0.9574861429	 0.128397
H	-1.2414116676	 1.4089393964	 0.7359443512	 0.122206
H	 1.6592299872	-1.1576641254	-0.948480315	 0.116146
H	 2.1065583939	 0.5507345963	-0.4637575245	 0.100445
H	 0.8093296689	-1.5530802546	 1.438062635	 0.114787
H	 2.5014771552	-0.0322364317	 2.5645085851	 0.117599
H	 1.6555509919	 1.3755199663	 1.9217637827	 0.098707
H	-0.4068759489	 0.6901286678	 3.165599402	 0.099459
H	 0.7356635432	-0.9623031393	 4.8973023119	 0.295238
H	 1.2160355111	 2.2918683341	 4.2751010795	 0.097596
54.9575	63.0548	101.6526	149.7667	216.8185	279.1363	302.0617	320.3632	346.0556	394.3575	433.3084	494.6775	528.7023	743.4233	751.209	777.0907	841.3347	891.3979	933.554	976.8416	1036.1189	1060.5633	1076.8403	1118.728	1135.0611	1142.7654	1167.8979	1186.0083	1205.3319	1248.1455	1252.8876	1310.2758	1337.1782	1359.3573	1396.7775	1424.1573	1437.6475	1447.4491	1466.1176	1489.5166	1507.676	1518.217	1813.1396	2922.497	2948.754	2967.8404	3033.9125	3060.5337	3078.4381	3081.6625	3096.4788	3137.019	3168.1506	3691.866
CN1CC1CC(O)C=O	CN1C[C@H]1C[C@@H](O)C=O	
InChI=1S/C6H11NO2/c1-7-3-5(7)2-6(9)4-8/h4-6,9H,2-3H2,1H3	InChI=1S/C6H11NO2/c1-7-3-5(7)2-6(9)4-8/h4-6,9H,2-3H2,1H3/t5-,6-,7?/m1/s1
