18
gdb 91570	2.79611	1.30312	1.0563	3.762	75.79	-0.2641	0.0251	0.2891	1161.2257	0.14763	-401.934017	-401.925442	-401.924497	-401.967726	32.122	
O	 0.0988889429	 1.4000942815	 0.0545465666	-0.429381
C	 0.0414028687	-0.0052274211	 0.0909931198	 0.054542
C	 0.2117908749	-0.6023235816	 1.5191256055	-0.240561
C	-1.1554202676	-1.2834457794	 1.3733482989	-0.133662
C	-2.2078741504	-0.2370124975	 1.121003784	-0.318148
C	-1.337566268	-0.6798279894	-0.0206776192	 0.358304
C	-1.8749992216	-1.275843191	-1.3015950213	-0.464544
C	-2.0987128922	-0.2268217132	-2.3019105888	 0.262944
N	-2.2299453948	 0.6341644749	-3.0621552876	-0.316001
H	-0.172398807	 1.6925829007	-0.8232109326	 0.294316
H	 0.7532827646	-0.4530984741	-0.6180366185	 0.069894
H	 1.0548746965	-1.2917989132	 1.5903631464	 0.107769
H	 0.2855887188	 0.1426598524	 2.3158951335	 0.114396
H	-1.4065484832	-2.2810841863	 1.7126720883	 0.092772
H	-3.2308017231	-0.5994481144	 1.0870911879	 0.11279
H	-2.0952333402	 0.7635755175	 1.5286690446	 0.129649
H	-1.1702466453	-2.0029059973	-1.7248477273	 0.151905
H	-2.815579093	-1.8095545986	-1.1266631204	 0.153013
52.6096	87.0147	162.6445	253.7235	284.1255	330.3088	376.9069	390.2654	427.1404	484.6012	556.374	675.3014	743.8286	828.3299	855.3713	898.3169	920.4002	932.7522	953.2353	986.0092	1031.0926	1034.0191	1076.7267	1090.6856	1123.0328	1165.3346	1186.1025	1227.4685	1251.7153	1267.0033	1287.0378	1315.6456	1335.5303	1406.7864	1412.2347	1458.7994	1478.0602	1503.2217	2355.4064	2988.4399	3031.1732	3065.568	3076.2471	3120.4175	3123.3068	3185.9959	3207.3171	3798.6365
OC1CC2CC12CC#N	O[C@H]1C[C@H]2C[C@@]12CC#N	
InChI=1S/C7H9NO/c8-2-1-7-4-5(7)3-6(7)9/h5-6,9H,1,3-4H2	InChI=1S/C7H9NO/c8-2-1-7-4-5(7)3-6(7)9/h5-6,9H,1,3-4H2/t5-,6-,7+/m0/s1
