14
gdb 10444	2.85918	1.77241	1.27442	1.9035	68.69	-0.2626	0.0194	0.282	954.9912	0.103447	-345.305657	-345.297435	-345.29649	-345.338436	30.076	
C	-0.1588750946	-1.1326117814	 0.4148623748	-0.441974
C	-0.0732485535	 0.0247036208	 0.1062314127	 0.32173
C	 0.0303923397	 1.4300511019	-0.2669195913	-0.437042
C	 1.4463553641	 1.9918140916	-0.1316225361	 0.202105
C	 1.6238840006	 3.4015720098	 0.2739446368	-0.213814
O	 1.8325782162	 2.3445666815	 1.2048146905	-0.249721
C	 2.4624505281	 1.3563548226	-0.9364789248	 0.317763
C	 3.2870123612	 0.8248601609	-1.6299080989	-0.431285
H	-0.2310049293	-2.1554820336	 0.6903876441	 0.200214
H	-0.3005021543	 1.5653230222	-1.304358672	 0.142369
H	-0.6313847072	 2.0335588892	 0.36436696	 0.140673
H	 2.5176262587	 3.9350957087	-0.0426332073	 0.128423
H	 0.7415680845	 4.0171885643	 0.447292211	 0.117835
H	 4.021408756	 0.3490989216	-2.2320616695	 0.202726
60.5872	114.3016	175.4892	222.9086	330.4254	334.1556	357.4269	457.0186	550.0505	573.8718	624.1892	626.8954	650.3518	669.6412	725.0295	828.6473	896.736	952.398	960.9829	997.6053	1132.1655	1164.0329	1197.4698	1266.8722	1319.6871	1384.8852	1451.8516	1520.2816	2242.8541	2246.1222	3029.6442	3072.3083	3083.6831	3178.7383	3501.5142	3507.2027
C#CCC1(CO1)C#C	C#CC[C@]1(CO1)C#C	
InChI=1S/C7H6O/c1-3-5-7(4-2)6-8-7/h1-2H,5-6H2	InChI=1S/C7H6O/c1-3-5-7(4-2)6-8-7/h1-2H,5-6H2/t7-/m0/s1
