23
gdb 116138	2.48414	1.14257	0.82959	1.2712	89.54	-0.2339	0.0252	0.259	1473.9651	0.205854	-388.308887	-388.299248	-388.298303	-388.343333	36.336	
C	 0.1540360274	 1.5412370342	-0.1440324683	-0.388555
C	 0.030744797	 0.0210304486	-0.0035755567	-0.179009
C	-1.420972739	-0.4937658708	 0.0632215567	-0.032474
C	-1.4602308361	-2.0181096519	-0.0959098718	-0.101919
O	-2.7560629303	-2.5359795002	 0.1401544042	-0.248409
C	-3.172888493	-2.3530763858	 1.4765915857	-0.148543
C	-2.8974440278	-0.9723584347	 2.0236447599	 0.265311
C	-3.5466244659	-0.6462802232	 3.3390521923	-0.476664
C	-2.1156746623	-0.1254791125	 1.351758621	-0.145128
H	 1.2035776979	 1.8443504679	-0.209611633	 0.113227
H	-0.3522830512	 1.8954903759	-1.0487466021	 0.116253
H	-0.2854467525	 2.0688094463	 0.7084165396	 0.120303
H	 0.528338405	-0.4549379154	-0.8591966463	 0.09375
H	 0.5711416426	-0.3148788683	 0.8909568592	 0.096819
H	-1.970986851	-0.0501718653	-0.7816091903	 0.082379
H	-1.1931295642	-2.314394719	-1.1149088217	 0.102945
H	-0.7305411224	-2.4780577982	 0.5934908972	 0.081808
H	-4.2513795273	-2.5558407307	 1.4896927995	 0.11097
H	-2.7035069629	-3.1080908553	 2.1368394389	 0.090853
H	-3.2520626591	-1.36264913	 4.1173114494	 0.123574
H	-3.2730933546	 0.3549865095	 3.6818902857	 0.12295
H	-4.6409607582	-0.6966454912	 3.2685466684	 0.124005
H	-1.9485907421	 0.8737750301	 1.7486680121	 0.075553
79.2358	110.1727	147.431	185.8619	203.9701	248.7649	292.2439	330.3916	376.3317	405.9031	462.2161	484.3627	544.5411	618.4494	781.2659	842.2849	873.5885	902.8261	941.6599	958.4042	989.9427	1011.7421	1040.2771	1041.6249	1079.6767	1096.0191	1134.3976	1146.6086	1165.8009	1201.1598	1250.926	1273.4767	1299.2916	1316.9867	1341.0032	1367.5901	1380.8862	1398.4675	1412.5426	1413.9276	1423.7813	1478.5968	1482.9899	1485.5877	1491.4233	1499.174	1502.2731	1507.67	1740.2123	2917.6114	2952.6918	2980.0426	3012.4037	3013.5399	3033.8351	3039.3074	3047.5226	3058.5215	3078.4463	3100.6583	3104.3094	3111.7128	3144.7552
CCC1COCC(C)=C1	CC[C@H]1COCC(=C1)C	
InChI=1S/C8H14O/c1-3-8-4-7(2)5-9-6-8/h4,8H,3,5-6H2,1-2H3	InChI=1S/C8H14O/c1-3-8-4-7(2)5-9-6-8/h4,8H,3,5-6H2,1-2H3/t8-/m1/s1
