17
gdb 126344	2.84086	1.39479	1.00535	0.6941	79.74	-0.2358	-0.0549	0.1809	1173.8946	0.136706	-417.990763	-417.98262	-417.981675	-418.023744	30.463	
C	-0.1813431494	 1.5036963727	 0.026581439	-0.376123
C	 0.0700507483	-0.0143409339	 0.0066230021	-0.282977
C	 0.7473399925	-0.486137861	-1.2507582133	 0.187777
C	 2.0325908252	-0.8833421637	-1.2672046794	 0.016735
O	 2.723191635	-1.3124300361	-2.3505304102	-0.240189
N	 2.0944090441	-1.3732067735	-3.5846584989	-0.064557
C	 0.8616550552	-1.0147532257	-3.6243646421	-0.008897
C	 0.0257242706	-0.5386168847	-2.5146951614	 0.201161
N	-1.2121657642	-0.204024883	-2.617098092	-0.527325
H	 0.7600177563	 2.0586942562	-0.0385131606	 0.111527
H	-0.8165211729	 1.7964269276	-0.8118895874	 0.150289
H	-0.6823856214	 1.792856742	 0.9552973757	 0.114617
H	 0.6750856452	-0.3035217886	 0.873497686	 0.097209
H	-0.8913379733	-0.5331170189	 0.0907140859	 0.130051
H	 2.6738822582	-0.9056603634	-0.3927610379	 0.141062
H	 0.4219136965	-1.0874128306	-4.6179758223	 0.136024
H	-1.5397092657	-0.3185698155	-3.5786561431	 0.213616
88.0541	102.8159	182.5977	210.0118	299.7473	350.8428	416.8086	434.0214	505.0768	549.2271	606.4625	744.7934	765.7241	788.946	858.2439	862.337	889.548	914.6255	957.7199	976.7412	1067.329	1085.3989	1122.8286	1154.8072	1237.7053	1287.6167	1318.918	1346.4671	1365.1925	1400.8583	1454.5685	1473.7238	1495.1189	1512.5518	1626.8806	1660.5248	1693.9933	3034.6458	3042.0812	3077.1371	3108.8873	3138.5242	3152.0088	3201.1759	3443.6982
CCC1=CON=CC1=N	CCC1=C(C=NO[CH]1)[NH]	
InChI=1S/C6H8N2O/c1-2-5-4-9-8-3-6(5)7/h3-4,7H,2H2,1H3	InChI=1S/C6H8N2O/c1-2-5-4-9-8-3-6(5)7/h3-4,7H,2H2,1H3
