23
gdb 118769	2.9545	0.90875	0.79819	0.4818	82.66	-0.2465	0.0683	0.3148	1540.0893	0.202337	-425.411567	-425.400406	-425.399461	-425.447542	41.186	
C	-0.0630031706	 1.5027732075	-0.0642664567	-0.438909
C	-0.0291358645	-0.0134431008	 0.0178920952	 0.282882
C	-1.2230721869	-0.6722023694	-0.6506624357	-0.454298
C	 1.3279277671	-0.6944170376	-0.0894399038	-0.397328
C	 0.6075254211	-0.6418771188	 1.2419887678	 0.359632
O	 1.0890593595	 0.2831468472	 2.1944590282	-0.470348
C	 0.0661827974	-1.9071237668	 1.8835507371	-0.260485
C	 1.1373681432	-2.6982419369	 2.642030949	-0.063599
O	 0.6375536137	-3.9049051762	 3.1957653982	-0.419649
H	 0.7722716014	 1.952977066	 0.4722714545	 0.126194
H	-0.0272106882	 1.827257623	-1.1106260787	 0.107445
H	-0.9887166088	 1.8951168011	 0.3727992334	 0.112437
H	-1.3109665363	-0.3227515728	-1.6858915551	 0.115767
H	-1.1458137139	-1.7613956192	-0.6824771108	 0.115587
H	-2.1572638681	-0.415313836	-0.1374239382	 0.116353
H	 1.3895285531	-1.6468707628	-0.6074909559	 0.10713
H	 2.2006761853	-0.0595183254	-0.2081688863	 0.10526
H	 1.9886360616	 0.0315638108	 2.4261269436	 0.283417
H	-0.7350489504	-1.6290209989	 2.5827793487	 0.092562
H	-0.3738680278	-2.5700858734	 1.1342548438	 0.10616
H	 1.9365371929	-2.9973540735	 1.9544649114	 0.111529
H	 1.5924858471	-2.0655804233	 3.4201461484	 0.081151
H	-0.0413109477	-3.6725718637	 3.8374939218	 0.281111
74.8835	87.0597	112.3194	175.306	178.4209	206.6964	253.0019	281.1632	294.5117	306.3799	359.4693	369.5198	395.6504	444.9221	479.423	546.1257	704.7794	765.1427	790.2325	893.4109	918.37	926.9685	970.4843	979.4401	1023.5876	1040.7625	1044.4666	1052.443	1080.5405	1146.0444	1154.7901	1195.9381	1227.6003	1297.5148	1300.7058	1314.7705	1331.9089	1389.8531	1403.2818	1406.8289	1418.333	1423.597	1470.6952	1480.8422	1486.1765	1490.1366	1504.3165	1513.6278	1517.5708	2978.7684	3012.2959	3024.9819	3030.3303	3064.8884	3079.9747	3083.4995	3099.425	3116.4236	3119.8614	3144.0896	3205.4354	3811.5667	3813.9813
CC1(C)CC1(O)CCO	CC1(C)C[C@]1(O)CCO	
InChI=1S/C7H14O2/c1-6(2)5-7(6,9)3-4-8/h8-9H,3-5H2,1-2H3	InChI=1S/C7H14O2/c1-6(2)5-7(6,9)3-4-8/h8-9H,3-5H2,1-2H3/t7-/m1/s1
