18
gdb 65691	2.59142	1.18732	1.04024	3.796	79.94	-0.2399	0.022	0.2619	1225.2385	0.145127	-401.93001	-401.920409	-401.919465	-401.964527	35.384	
C	 0.0678689227	 1.5287997207	-0.3374670134	-0.451771
C	 0.0210549301	 0.0488838689	-0.0215439671	 0.331202
C	 1.2599112034	-0.7947026156	-0.1171394631	-0.349601
C	 0.6762415904	-0.4809034462	 1.2544111014	-0.212757
C	 1.3647737076	 0.3918478285	 2.1571389974	 0.335684
C	 1.9485359592	 1.1130302837	 2.9227570349	-0.447003
N	-1.1984164685	-0.621176238	-0.3990843952	-0.329982
C	-2.3934851051	-0.4111000767	 0.2248981283	 0.151745
O	-2.5549094261	 0.2730879867	 1.210572501	-0.317203
H	 1.0045477358	 1.9709869056	 0.0082202477	 0.132216
H	-0.019655752	 1.6934902386	-1.4168092099	 0.109127
H	-0.7579775141	 2.0387034335	 0.164880572	 0.15584
H	 1.1652369525	-1.8160529473	-0.4699418602	 0.116521
H	 2.1836326771	-0.2978532923	-0.3889909668	 0.131801
H	 0.1339252538	-1.2931583061	 1.7267542784	 0.125675
H	 2.4518863013	 1.7533105425	 3.6036897748	 0.196287
H	-1.2091471604	-1.1276744828	-1.2717596944	 0.246819
H	-3.2158817878	-0.9627254837	-0.2752209359	 0.0754
56.8642	102.1009	141.7218	190.9976	218.446	229.6237	309.6037	352.6425	403.5123	418.4071	521.4611	525.5466	542.4493	590.002	655.6636	692.1488	784.3152	823.7242	903.5565	937.7645	955.1807	1014.01	1032.698	1072.9087	1093.1065	1110.8287	1134.1627	1181.7858	1275.8759	1318.6755	1387.1168	1413.9108	1431.6837	1471.6961	1485.1114	1505.084	1505.3039	1810.6578	2237.8253	2923.6608	3041.4917	3114.4796	3136.3827	3138.6494	3165.2803	3231.3391	3505.5866	3608.5546
CC1(CC1C#C)NC=O	C[C@]1(C[C@H]1C#C)NC=O	
InChI=1S/C7H9NO/c1-3-6-4-7(6,2)8-5-9/h1,5-6H,4H2,2H3,(H,8,9)	InChI=1S/C7H9NO/c1-3-6-4-7(6,2)8-5-9/h1,5-6H,4H2,2H3,(H,8,9)/t6-,7-/m1/s1
