16
gdb 35932	2.49807	1.53748	1.32092	1.3125	70.8	-0.2492	0.0077	0.2569	1017.6777	0.124631	-437.840967	-437.832961	-437.832017	-437.873736	29.85	
C	 0.0059327536	-1.2484686172	-0.3719388722	-0.470411
C	 0.0172829746	-0.0623973508	-0.1782762224	 0.32583
C	-0.0049825395	 1.3873291769	 0.0430090457	-0.081364
C	-0.8350085555	 1.7913944559	 1.276135022	-0.162456
N	-0.3939462075	 1.3593761726	 2.5870042236	-0.24332
C	 0.7962077454	 1.4233083747	 2.9957002322	 0.122751
O	 1.9517355691	 1.7799217585	 2.3663013126	-0.224895
C	 2.1714975838	 1.4016329494	 1.0091208943	 0.012181
O	 1.3015540767	 1.9683754477	 0.0860941395	-0.224355
H	-0.0067911872	-2.2968067764	-0.5440056983	 0.207259
H	-0.4767745062	 1.8592976948	-0.8266131603	 0.12527
H	-0.8808188808	 2.8891444132	 1.276865907	 0.126261
H	-1.8559323436	 1.4258438105	 1.1230569012	 0.120472
H	 1.007453841	 1.2171304294	 4.0451797744	 0.123409
H	 3.1662123582	 1.7817806291	 0.7752518082	 0.12823
H	 2.1440896081	 0.3061449218	 0.9489770828	 0.115139
88.6229	105.4099	170.9241	231.1286	327.0983	371.8466	380.8535	479.9964	528.1467	588.8071	629.3913	684.0371	704.5216	797.8523	812.2482	892.705	931.6902	972.8052	988.446	1034.7483	1060.0772	1097.897	1164.1903	1203.7494	1270.9026	1312.5628	1333.5919	1370.1069	1387.1601	1425.4798	1454.7945	1471.1004	1501.47	1759.1188	2231.8955	3017.6545	3028.9771	3048.2623	3071.6876	3135.9065	3138.6912	3500.0551
C#CC1CN=COCO1	C#C[C@H]1CN=COCO1	
InChI=1S/C6H7NO2/c1-2-6-3-7-4-8-5-9-6/h1,4,6H,3,5H2	InChI=1S/C6H7NO2/c1-2-6-3-7-4-8-5-9-6/h1,4,6H,3,5H2/t6-/m0/s1
