18
gdb 114412	2.98812	1.23382	1.22376	4.0553	72.63	-0.2377	-0.0002	0.2375	1125.6224	0.147431	-439.060054	-439.051813	-439.050869	-439.093354	30.531	
C	 0.1960038515	 1.2162692594	 0.2449368186	-0.242039
O	-0.2149276989	-0.0701812132	-0.1719956016	-0.235997
C	 0.5069956707	-0.563827479	-1.265072347	 0.109911
C	 1.9282401795	-1.1463742732	-0.9490455467	-0.225542
N	 1.4162315875	-2.5308265366	-1.2136820763	-0.142606
C	 0.070104947	-2.0064656979	-1.6467448589	-0.020975
C	-0.6252734139	-2.8758640634	-0.5795444986	-0.378553
C	 0.8098406046	-3.1827309202	-0.095594004	 0.386118
O	 1.3056671756	-3.6648765428	 0.8785772352	-0.313648
H	 1.2417773015	 1.2244297882	 0.5841019419	 0.115846
H	 0.0868660347	 1.9534242608	-0.5648819032	 0.111386
H	-0.4466180828	 1.5043794006	 1.0793250183	 0.136914
H	 0.4909518886	 0.1537417263	-2.0984835785	 0.072924
H	 2.7099929015	-0.858902228	-1.656419575	 0.117396
H	 2.2866251786	-1.0073750411	 0.0743972558	 0.133798
H	-0.2067299487	-2.161519641	-2.6902729297	 0.086691
H	-1.2211475969	-2.3446324968	 0.1632669958	 0.155484
H	-1.1890484199	-3.7259145922	-0.9704000062	 0.132892
61.0047	123.3183	182.9283	188.1606	225.2092	318.998	422.4628	455.0591	513.6092	533.4283	682.8201	735.013	813.1812	822.8663	871.3974	952.0328	976.3625	996.755	1008.8544	1055.4621	1077.5906	1104.1592	1126.4536	1167.4317	1182.9934	1188.5756	1213.3961	1233.557	1245.3594	1268.3975	1294.0924	1339.0341	1384.1259	1433.7057	1482.3546	1488.2395	1489.2463	1508.0049	1894.1109	2983.4198	2994.6517	3036.4736	3059.7474	3081.9432	3103.9121	3118.6796	3126.0814	3149.9686
COC1CN2C1CC2=O	CO[C@H]1CN2[C@H]1CC2=O	
InChI=1S/C6H9NO2/c1-9-5-3-7-4(5)2-6(7)8/h4-5H,2-3H2,1H3	InChI=1S/C6H9NO2/c1-9-5-3-7-4(5)2-6(7)8/h4-5H,2-3H2,1H3/t4-,5-/m0/s1
