14
gdb 27574	3.51089	1.26308	0.93425	3.5276	77.67	-0.2725	-0.0846	0.1879	1175.8279	0.102286	-395.80292	-395.795166	-395.794222	-395.836373	27.477	
C	-0.0204554646	 1.4901926124	-0.0015136499	-0.463917
C	 0.0108701964	-0.0106135123	-0.008482154	 0.353069
N	-0.0474473707	-0.6264465974	-1.1931930612	-0.323646
C	-0.0165544006	-1.9650691401	-1.1741708131	 0.217391
C	 0.0712614222	-2.7001592671	 0.0043049308	-0.178798
C	 0.1258218067	-1.9532630173	 1.177215113	 0.017826
N	 0.0967804383	-0.6242145954	 1.1846016949	-0.271189
C	-0.0789370089	-2.6402036509	-2.4465108174	 0.246948
N	-0.1271267949	-3.213655554	-3.4492324069	-0.31422
H	 0.8928312306	 1.8813740411	 0.4577840801	 0.149429
H	-0.1128285648	 1.8746059864	-1.016882609	 0.146453
H	-0.8583237383	 1.8447748663	 0.6064318416	 0.149179
H	 0.0949721165	-3.7819550952	 0.0027442726	 0.137805
H	 0.1952665321	-2.4450284665	 2.1447593286	 0.133671
32.2231	138.6323	151.4507	181.9632	357.9595	392.6547	453.9682	476.0716	579.4496	587.4926	659.9632	741.1686	804.8272	874.1513	930.0135	1006.2075	1010.1309	1016.1501	1068.912	1126.4491	1233.3529	1258.1405	1317.4581	1392.6159	1418.9873	1463.9801	1477.1778	1481.8033	1593.0877	1605.2833	2356.8065	3051.3521	3109.6009	3160.8923	3163.0464	3224.976
CC1=NC(=CC=N1)C#N	Cc1nc(ccn1)C#N	
InChI=1S/C6H5N3/c1-5-8-3-2-6(4-7)9-5/h2-3H,1H3	InChI=1S/C6H5N3/c1-5-8-3-2-6(4-7)9-5/h2-3H,1H3
