22
gdb 18291	2.86191	1.88377	1.64399	0.0779	80.78	-0.2533	0.0775	0.3308	948.1634	0.203328	-313.078245	-313.070445	-313.0695	-313.109995	31.01	
C	-0.3891008586	 1.4622402277	-0.1300955348	-0.416226
C	-0.0532973138	-0.0070986654	 0.0011607212	-0.007556
C	 1.3055978224	-0.601015558	-0.3249213449	-0.048812
C	 2.5107629774	 0.2664682167	-0.6862151321	-0.217364
C	 3.4145550099	 0.551693785	 0.52376258	-0.179306
C	 2.6112306318	 1.1651865906	 1.6750103059	-0.197688
C	 1.5143497771	 0.2061172817	 2.1829607694	-0.212878
C	 0.7922984257	-0.5976858477	 1.1063109844	-0.036426
H	 0.4406183026	 2.118961531	 0.1378354564	 0.120295
H	-0.6779187496	 1.7048552212	-1.1595630704	 0.114015
H	-1.2332385283	 1.7255978578	 0.5173341504	 0.114374
H	-0.8867814384	-0.6427268879	-0.2911795466	 0.075276
H	 1.2784820888	-1.5591107813	-0.8354455161	 0.075262
H	 3.088635419	-0.2350760118	-1.4691860729	 0.09238
H	 2.1874253555	 1.2215291779	-1.1199106183	 0.095897
H	 3.8782257571	-0.3850837378	 0.8618727461	 0.090726
H	 4.2317588132	 1.2211159014	 0.2318240146	 0.08625
H	 3.2732300621	 1.4185849632	 2.5107140423	 0.089291
H	 2.1745687404	 2.114193636	 1.3407177904	 0.098305
H	 1.9940491079	-0.5196987976	 2.852098452	 0.09667
H	 0.794396106	 0.7540865389	 2.8042361915	 0.092838
H	 0.4334306116	-1.5551831418	 1.4751483016	 0.074676
118.5141	141.8785	190.9992	236.2109	313.4873	408.0662	441.1105	471.1373	526.7782	649.0425	724.5517	752.5392	784.0727	818.653	867.3961	922.6934	932.8126	945.1381	960.4888	1018.4267	1050.5831	1074.5238	1085.8104	1116.4784	1132.5165	1145.4735	1156.0711	1197.8656	1202.0672	1266.2249	1284.7016	1300.0938	1346.4766	1365.4047	1368.5581	1377.9455	1388.4111	1388.5886	1419.527	1446.9314	1483.901	1485.6807	1489.1158	1501.6501	1503.145	1510.5816	3012.7272	3013.3339	3021.3409	3026.8835	3030.5386	3042.6556	3061.5721	3065.1509	3070.8238	3080.5109	3110.2006	3125.2209	3132.2833	3144.9174
CC1C2CCCCC12	C[C@H]1[C@H]2CCCC[C@@H]12	
InChI=1S/C8H14/c1-6-7-4-2-3-5-8(6)7/h6-8H,2-5H2,1H3	InChI=1S/C8H14/c1-6-7-4-2-3-5-8(6)7/h6-8H,2-5H2,1H3/t6-,7+,8-
