12
gdb 20494	5.06099	2.07997	1.50393	2.6132	55.58	-0.277	-0.0559	0.2211	754.2624	0.08538	-414.599648	-414.593813	-414.592869	-414.630142	21.169	
C	-0.0545720971	 1.5001509377	 0.0981458269	-0.174719
O	 1.2060271521	 1.9234919202	-0.4527233306	-0.280522
C	 2.1361105326	 0.8406702484	-0.6377287567	-0.174719
C	 1.2998411994	-0.3769789606	-0.4180852113	 0.297554
N	 1.3712091429	-1.6693135293	-0.4874166125	-0.191703
O	 0.1153720979	-2.0987063181	-0.0949407735	-0.153071
N	-0.720109913	-1.0397451022	 0.2150803976	-0.191703
C	 0.012370868	 0.0105997138	 0.0143902058	 0.297554
H	-0.1585782279	 1.8509062844	 1.1339210058	 0.138466
H	-0.8628952789	 1.9372481143	-0.4972754976	 0.147199
H	 2.5574042628	 0.9076047546	-1.6461920636	 0.147199
H	 2.9586415738	 0.912502033	 0.0868122656	 0.138466
69.0158	244.8364	267.4049	455.6912	613.4316	617.7164	682.3718	713.7852	830.8648	846.4176	877.6089	905.1245	1009.6781	1054.95	1064.0039	1067.9451	1180.4678	1202.688	1213.1486	1333.326	1366.6931	1422.1453	1504.6924	1514.0221	1572.1307	1675.661	3012.875	3017.2514	3069.2031	3072.1238
C1OCC2=NON=C12	C1OCc2nonc12	
InChI=1S/C4H4N2O2/c1-3-4(2-7-1)6-8-5-3/h1-2H2	InChI=1S/C4H4N2O2/c1-3-4(2-7-1)6-8-5-3/h1-2H2
