15
gdb 19343	4.19665	1.83741	1.53084	2.8675	66.78	-0.2225	-0.0176	0.2049	828.4938	0.118864	-362.586934	-362.580378	-362.579434	-362.617577	25.626	
O	-0.1285098652	 0.0210237995	-0.0032704437	-0.28641
C	 0.0021650368	 1.225724535	-0.0321915213	 0.060025
C	 1.2804670286	 1.9184673381	 0.0410991672	 0.262331
C	 1.4231191617	 3.3941183471	 0.3745253764	-0.338322
C	 1.7855292832	 2.9739363485	-1.0012376409	-0.100683
C	 3.1212936842	 2.1871536381	-1.0726044568	-0.045955
N	 3.727000122	 2.1479558036	 0.282035397	-0.343534
C	 2.6477296632	 1.2001072164	-0.0833417716	-0.1232
H	-0.877967786	 1.9022803967	-0.1372843457	 0.06083
H	 0.4784610898	 3.9224802104	 0.462051196	 0.122811
H	 2.1917605715	 3.6822622056	 1.07985697	 0.158641
H	 1.2386670786	 3.2891777215	-1.8800026009	 0.112791
H	 3.7140510227	 2.0528656402	-1.9670049661	 0.104964
H	 4.6089801089	 1.6436788284	 0.2004391483	 0.23773
H	 2.7706219601	 0.1274432907	-0.0409268579	 0.117981
120.3099	180.9435	262.8905	391.1128	420.6053	484.2049	593.2891	670.5259	727.2862	744.802	828.2136	841.8602	862.016	906.1204	932.2817	953.0077	968.5503	1013.0928	1049.5588	1061.9196	1098.4823	1107.6537	1131.9286	1209.3472	1235.2671	1278.4986	1333.0683	1341.2457	1392.0192	1433.4278	1458.6078	1783.6486	2857.5914	3138.3719	3202.9137	3211.6583	3228.1254	3236.7815	3484.0565
O=CC12CC1C1NC21	O=C[C@]12C[C@H]1[C@H]1N[C@@H]21	
InChI=1S/C6H7NO/c8-2-6-1-3(6)4-5(6)7-4/h2-5,7H,1H2	InChI=1S/C6H7NO/c8-2-6-1-3(6)4-5(6)7-4/h2-5,7H,1H2/t3-,4+,5+,6+/m0/s1
