16
gdb 49006	3.20776	1.3306	1.09926	1.3959	70.61	-0.2571	-0.0453	0.2118	1085.9696	0.124137	-437.900847	-437.893008	-437.892064	-437.933515	29.294	
O	-0.7254591692	 0.9426886734	 0.7015066141	-0.249906
C	 0.1943877396	 0.8583834943	-0.0729343157	 0.091348
C	 1.3852142837	 1.7689885027	-0.068224117	 0.269536
C	 1.5559987624	 2.8031326532	 1.0754492055	-0.285015
C	 1.7182770541	 3.9495819253	 0.035529638	-0.22735
C	 1.5322512432	 2.9372900115	-1.1347142536	-0.251155
C	 2.8462538694	 2.2364071595	-1.5301417369	 0.434539
O	 3.7618729364	 2.4754384261	-2.2653912542	-0.34677
N	 2.6092182672	 1.2015998488	-0.6357131185	-0.387688
H	 0.2153506595	 0.0967067752	-0.883951573	 0.087121
H	 0.6466114952	 2.8803681362	 1.6731390969	 0.140379
H	 2.4051203857	 2.6152356609	 1.7351487783	 0.108638
H	 0.9172745381	 4.688619172	 0.0820853113	 0.124476
H	 2.674871218	 4.4753289809	 0.0282947801	 0.127521
H	 0.801889421	 3.1459772921	-1.9140576755	 0.113038
H	 3.2822137856	 0.5818993079	-0.2021185198	 0.251287
97.7139	99.5391	185.9869	239.8873	281.3075	377.0461	438.3894	489.8306	519.6693	650.0838	714.3649	735.9935	755.1858	795.7284	877.9608	913.6667	955.4835	980.6016	994.2144	1070.125	1075.2793	1120.4309	1138.8535	1209.7993	1214.7671	1233.5553	1260.8235	1278.3868	1303.4235	1350.9573	1410.4825	1473.1372	1490.853	1818.5753	1899.4855	2890.7072	3078.3513	3082.5811	3126.4059	3141.6123	3146.7519	3571.9446
O=CC12CCC1C(=O)N2	O=C[C@]12CC[C@H]1C(=O)N2	
InChI=1S/C6H7NO2/c8-3-6-2-1-4(6)5(9)7-6/h3-4H,1-2H2,(H,7,9)	InChI=1S/C6H7NO2/c8-3-6-2-1-4(6)5(9)7-6/h3-4H,1-2H2,(H,7,9)/t4-,6+/m0/s1
