16
gdb 54225	2.28096	1.48681	1.33399	2.1284	66.14	-0.2455	-0.0321	0.2135	1045.272	0.121574	-475.055416	-475.045954	-475.04501	-475.090183	33.255	
C	 0.0188328328	 1.498142878	 0.137861837	-0.490341
C	 0.0833238731	 0.0059415005	-0.0877759025	 0.355317
O	 1.118060878	-0.608402259	-0.2049714769	-0.302087
C	-1.2701676635	-0.7200594639	-0.0985706357	 0.158851
O	-2.2892793368	 0.066126091	-0.6620039909	-0.476698
C	-1.1878082922	-2.2119984768	-0.5405856438	-0.201005
N	-1.4107554001	-2.5701195228	 0.8723923545	-0.321923
C	-1.6236323898	-1.302762234	 1.314051189	 0.359996
O	-2.0088757924	-0.8036184814	 2.3390171335	-0.364564
H	 1.0284950998	 1.9037600381	 0.2033456382	 0.140456
H	-0.5372801637	 1.9772144415	-0.6726467417	 0.156869
H	-0.5315676524	 1.7030620059	 1.0639835441	 0.153785
H	-2.9125482297	 0.2940522948	 0.0380884671	 0.302416
H	-2.008546639	-2.4959628097	-1.203403309	 0.123424
H	-0.218274319	-2.5210749915	-0.9312051281	 0.143853
H	-1.5253400252	-3.4599030909	 1.3350687851	 0.26165
49.496	103.3722	126.5268	152.7969	184.6968	239.1044	267.9771	331.6354	411.5663	451.0724	483.7133	554.2047	617.3867	659.683	733.9159	787.5259	889.2393	908.2965	973.4868	989.6052	1056.5207	1101.6619	1159.419	1181.8114	1222.7251	1261.7186	1290.3313	1346.7973	1378.4255	1390.4218	1460.8573	1466.1096	1505.2989	1807.8912	1889.0204	3040.9644	3071.6133	3110.4721	3147.1568	3161.231	3611.1038	3788.0631
CC(=O)C1(O)CNC1=O	CC(=O)[C@@]1(O)CNC1=O	
InChI=1S/C5H7NO3/c1-3(7)5(9)2-6-4(5)8/h9H,2H2,1H3,(H,6,8)	InChI=1S/C5H7NO3/c1-3(7)5(9)2-6-4(5)8/h9H,2H2,1H3,(H,6,8)/t5-/m0/s1
