19
gdb 74877	2.75087	1.69454	1.2087	2.4892	81.88	-0.2263	0.0147	0.241	1065.05	0.161915	-382.029607	-382.022082	-382.021138	-382.061311	30.379	
C	-0.0133110049	 1.5071334186	 0.0778653202	-0.487172
C	-0.0026215734	 0.0056916231	-0.0033590149	 0.367606
C	-0.0054294071	-0.6550678869	-1.1693994941	-0.140837
C	 0.0073126435	-2.1298185202	-1.2776572671	-0.086402
N	 1.2513997152	-2.8444365629	-0.8790930752	-0.318404
C	 0.0619511208	-2.9422582814	-0.0253606198	-0.046108
C	 0.0615709713	-2.2196078536	 1.2931712827	-0.034219
N	 1.247510949	-1.4428990738	 1.672760628	-0.3174
C	 0.0015818564	-0.7273255796	 1.290799496	-0.156623
H	 0.8911384407	 1.8780763483	 0.5764484395	 0.134084
H	-0.0670936173	 1.9639891114	-0.9138894478	 0.120046
H	-0.8664900118	 1.8679927137	 0.6670475288	 0.118625
H	-0.0216014427	-0.0920111995	-2.0999254277	 0.080131
H	-0.5361681055	-2.5424747667	-2.1250105386	 0.080658
H	 1.3328722747	-3.6961359778	-1.430515274	 0.226763
H	-0.4876957174	-3.8803476186	-0.0220722277	 0.076899
H	-0.4858622528	-2.7277001274	 2.0834756798	 0.077082
H	 1.3332826782	-1.4418120303	 2.6868666223	 0.227937
H	-0.5456969469	-0.2420648164	 2.0973881297	 0.077334
127.6545	181.0181	213.9074	271.6043	323.6985	438.539	457.8842	523.2169	561.6062	644.5756	719.6926	738.915	829.6504	839.1078	848.3201	870.2025	907.8755	927.8758	932.0811	978.4564	1001.6542	1039.2025	1066.7646	1090.6117	1111.1469	1148.3781	1157.365	1193.9266	1204.0662	1216.7458	1251.1188	1260.8736	1340.67	1398.4079	1412.5197	1427.0584	1448.4134	1466.407	1478.1396	1492.4242	1716.2967	3015.0807	3062.8907	3110.3811	3113.5423	3120.2193	3126.5789	3141.8212	3149.6157	3486.2957	3487.8325
CC1=CC2NC2C2NC12	CC1=C[C@H]2N[C@H]2[C@H]2N[C@@H]12	
InChI=1S/C7H10N2/c1-3-2-4-6(8-4)7-5(3)9-7/h2,4-9H,1H3	InChI=1S/C7H10N2/c1-3-2-4-6(8-4)7-5(3)9-7/h2,4-9H,1H3/t4-,5+,6-,7+/m1/s1
