18
gdb 57022	2.46672	1.31332	0.90587	6.0393	76.85	-0.2534	-0.0327	0.2207	1271.3649	0.146287	-401.974997	-401.965803	-401.964859	-402.009634	33.05	
C	 0.004084245	 1.6107132848	 0.1258723092	-0.396375
C	 0.0197900494	 0.0720661322	 0.0217614781	-0.164538
C	 0.7635161025	-0.4993574619	 1.1504636617	 0.286896
N	 1.3479280023	-0.9071481376	 2.0600342233	-0.321508
C	-1.3975375709	-0.5188414344	-0.0441324027	-0.083087
C	-2.3321471266	-0.1506261256	-1.2413760849	-0.266097
C	-2.7456951628	-1.6467508141	-1.388444594	-0.336549
C	-1.5597700116	-1.9931281929	-0.4754778566	 0.388583
O	-0.9074571951	-2.9763076485	-0.2883224193	-0.280207
H	 1.0216432566	 2.0077331352	 0.1512707791	 0.142685
H	-0.514129059	 2.0386402181	-0.7361846979	 0.129318
H	-0.5113019022	 1.9315811562	 1.0353992872	 0.138803
H	 0.5530094991	-0.2146584503	-0.894096007	 0.129234
H	-1.9111727134	-0.358366092	 0.9114401176	 0.120297
H	-3.1314803076	 0.5589900288	-1.0280695878	 0.118776
H	-1.7664164421	 0.2015659812	-2.108096242	 0.118456
H	-3.7019657519	-1.8761731171	-0.9074416866	 0.139507
H	-2.7381328817	-2.0955384321	-2.3840023572	 0.135807
50.9219	97.9445	118.019	181.6964	213.7272	232.2257	294.1923	340.8354	428.4113	515.4299	543.153	588.8731	692.766	732.3615	768.9446	858.5454	914.4232	927.7631	972.7623	992.5977	1039.1942	1079.8347	1096.8954	1104.9352	1165.6474	1193.8726	1227.4761	1237.4361	1259.0573	1284.0098	1323.0916	1361.8415	1411.7421	1444.4876	1492.1175	1494.7642	1497.8232	1895.2426	2359.9604	3026.378	3047.8579	3050.4248	3063.0075	3072.4168	3121.1187	3126.7048	3130.9702	3138.7575
CC(C#N)C1CCC1=O	C[C@@H](C#N)[C@H]1CCC1=O	
InChI=1S/C7H9NO/c1-5(4-8)6-2-3-7(6)9/h5-6H,2-3H2,1H3	InChI=1S/C7H9NO/c1-5(4-8)6-2-3-7(6)9/h5-6H,2-3H2,1H3/t5-,6+/m0/s1
