21
gdb 47923	1.9883	1.77596	1.20714	3.7454	78.92	-0.2303	0.0002	0.2304	1122.5247	0.184055	-424.252561	-424.244129	-424.243185	-424.28543	32.829	
O	 0.0009967436	-0.0553836559	 0.1037137404	-0.326193
C	-0.0037471028	 1.1513608323	 0.022566329	 0.409107
C	-1.3135347432	 1.938058986	 0.02186466	-0.285933
C	-1.3896821889	 3.121178108	-0.954552094	-0.23192
C	-1.2104028337	 2.6982402366	-2.4168358458	-0.063823
O	-0.0683573537	 1.8896743208	-2.630879864	-0.238491
C	 1.1970117317	 2.5239294839	-2.4920193811	-0.075026
C	 1.9984091913	 1.8466322021	-1.3827406289	-0.188714
C	 1.3166141698	 1.9278081857	-0.0024682259	-0.290239
H	-2.1178824775	 1.2188034305	-0.1596728465	 0.121643
H	-1.4479887262	 2.3180094599	 1.0450257481	 0.117146
H	-2.363018519	 3.6163680679	-0.8550306516	 0.104826
H	-0.6425151459	 3.8783344694	-0.6904868443	 0.10308
H	-2.0579301073	 2.0795649848	-2.7316385738	 0.114148
H	-1.188143891	 3.5873836749	-3.0663425054	 0.09135
H	 1.7309097438	 2.4352527821	-3.4476945978	 0.104307
H	 1.0776787262	 3.5967028576	-2.284240227	 0.090704
H	 2.1337528424	 0.7905988733	-1.640111807	 0.13143
H	 2.9947979854	 2.3015029075	-1.331917507	 0.095807
H	 1.1740823224	 2.9747439855	 0.2876872354	 0.093749
H	 1.9682022426	 1.458552067	 0.7406497473	 0.123041
96.4028	132.143	210.2508	226.1	257.0969	320.4989	389.1811	417.0821	475.2427	512.2731	539.0449	602.6106	728.2221	816.0458	850.0465	874.2157	882.1955	910.4283	925.1085	988.8626	1014.6887	1043.2231	1061.8736	1125.3025	1126.9213	1175.1449	1198.5904	1231.9831	1245.9134	1253.6389	1298.0028	1311.9059	1345.606	1354.6124	1378.8162	1380.5894	1401.73	1415.8573	1456.1689	1472.8854	1479.7838	1489.9531	1494.996	1510.0789	1804.5605	2982.1756	2998.9714	3013.692	3032.2598	3035.9407	3042.3219	3044.6227	3060.1682	3076.991	3085.8474	3093.3162	3098.6672
O=C1CCCOCCC1	O=C1CCCOCCC1	
InChI=1S/C7H12O2/c8-7-3-1-5-9-6-2-4-7/h1-6H2	InChI=1S/C7H12O2/c8-7-3-1-5-9-6-2-4-7/h1-6H2
