20
gdb 33159	3.02438	1.06107	0.84367	1.9776	82.45	-0.193	0.0462	0.2392	1387.9141	0.171159	-403.181106	-403.171612	-403.170668	-403.215967	34.573	
C	 0.0273990745	 1.5174033936	 0.0147628484	-0.506227
C	 0.0025036455	 0.024729758	-0.039602075	 0.289992
C	-0.02978407	-0.8187327807	-1.1290670908	-0.232495
C	-0.0249151592	-2.1571873521	-0.6495703401	-0.166327
C	 0.0106831828	-2.0925868466	 0.7210285183	-0.110708
N	 0.0314697754	-0.7661228355	 1.0942807152	-0.029416
C	-0.0068419552	-0.302621647	 2.4659170376	-0.172803
C	-1.4342651818	-0.1592699512	 2.9992607344	-0.071219
O	-1.3263846382	 0.28555983	 4.3393782126	-0.414524
H	 0.9258277531	 1.9060276993	 0.5112708638	 0.128313
H	 0.0200974114	 1.9145882548	-1.0029054561	 0.133703
H	-0.8387793289	 1.9419095145	 0.538380329	 0.123938
H	-0.0424757697	-0.4994176923	-2.1606490626	 0.085786
H	-0.0333434674	-3.0598439785	-1.2410287544	 0.089909
H	 0.0324094336	-2.8684996149	 1.4704115774	 0.108676
H	 0.539252465	-1.00998474	 3.0968022183	 0.126358
H	 0.5037163833	 0.660773678	 2.5438170275	 0.127451
H	-1.9911423888	 0.5543497734	 2.3727983327	 0.098279
H	-1.945680843	-1.1311976925	 2.9260540518	 0.098733
H	-2.2115956223	 0.3721244896	 4.7038223721	 0.292582
68.0201	89.1408	98.8004	152.4211	234.6276	235.5175	280.3092	316.6569	372.9477	427.1751	625.4108	638.6885	659.986	708.5066	768.1314	778.4654	804.8472	831.7132	902.1998	991.2985	1007.9104	1040.6921	1062.2353	1084.6199	1087.913	1118.3173	1189.6453	1222.9706	1245.732	1265.6438	1305.8988	1330.5413	1371.0657	1414.086	1420.0155	1459.1805	1460.3781	1480.9285	1488.9841	1493.14	1527.4039	1531.8548	1600.265	2979.515	3010.8992	3012.9139	3053.2093	3063.8416	3112.7907	3119.9646	3235.0557	3246.0405	3263.5944	3837.9708
CC1=CC=CN1CCO	Cc1cccn1CCO	
InChI=1S/C7H11NO/c1-7-3-2-4-8(7)5-6-9/h2-4,9H,5-6H2,1H3	InChI=1S/C7H11NO/c1-7-3-2-4-8(7)5-6-9/h2-4,9H,5-6H2,1H3
