20
gdb 10863	3.50524	1.64453	1.41836	0.1834	71.07	-0.2314	0.0894	0.3208	982.5417	0.177483	-386.147848	-386.1397	-386.138755	-386.179937	31.234	
C	-0.0988188232	 1.5327751425	 0.0421254431	-0.408665
C	-0.0020188928	 0.0173908326	-0.0077886463	 0.129936
C	 0.7101717841	-0.4946731153	-1.2603740253	-0.085562
O	 0.8963405456	-1.9011942665	-1.2168489156	-0.272395
C	 1.5627819441	-2.3564052227	-0.0357514216	 0.121629
C	 3.052896822	-2.0023366095	-0.0305443438	-0.404223
C	 0.8212939679	-1.8240380672	 1.1942289082	-0.087953
O	 0.7142980242	-0.410444878	 1.1492896834	-0.265117
H	 0.8985502051	 1.9827262605	 0.0171398758	 0.12426
H	-0.6740869522	 1.9119639195	-0.8080442456	 0.116713
H	-0.5921891492	 1.8493287497	 0.9646828319	 0.127981
H	-1.0119951422	-0.4282488251	 0.0185555838	 0.067741
H	 0.1098319778	-0.2960176606	-2.154039092	 0.105563
H	 1.6712806579	 0.0315195366	-1.3712860971	 0.090388
H	 1.4536746254	-3.4467028925	-0.0668950548	 0.081096
H	 3.2123737317	-0.9380075572	 0.1594693129	 0.128965
H	 3.5682290425	-2.5619627402	 0.7568619623	 0.113638
H	 3.5052608113	-2.2634660588	-0.9910176374	 0.122204
H	-0.1824526716	-2.2770926794	 1.2371509654	 0.090188
H	 1.3562702918	-2.0724077683	 2.1161808327	 0.103613
106.8869	193.3712	206.5271	233.0574	259.988	302.4357	373.056	413.1246	469.4602	493.2116	524.1405	725.5046	791.4945	830.9746	886.2461	924.2165	940.3621	955.8115	1003.5448	1066.0291	1116.011	1134.7608	1140.3188	1160.5248	1172.8463	1178.4696	1283.9143	1298.1263	1334.185	1351.0624	1374.2689	1381.0691	1395.4861	1410.6507	1417.1009	1421.1918	1481.138	1482.4691	1489.936	1492.6005	1500.83	1508.2097	2950.6555	2975.8231	2987.3035	3041.6139	3042.637	3045.5653	3077.8512	3081.1549	3112.1982	3114.9164	3123.2086	3128.3054
CC1COC(C)CO1	C[C@H]1CO[C@@H](C)CO1	
InChI=1S/C6H12O2/c1-5-3-8-6(2)4-7-5/h5-6H,3-4H2,1-2H3	InChI=1S/C6H12O2/c1-5-3-8-6(2)4-7-5/h5-6H,3-4H2,1-2H3/t5-,6-/m0/s1
