16
gdb 70135	2.44858	2.00745	1.24923	3.222	71.12	-0.2274	-0.021	0.2064	983.5013	0.125199	-437.920638	-437.913019	-437.912075	-437.952485	29.594	
C	-0.0895756702	 1.5022203946	 0.0228720712	-0.467879
C	 0.0829808502	 0.0065333536	 0.0022786782	 0.233703
O	-0.7279039937	-0.7382625011	 0.9202923273	-0.28393
C	 0.6997410854	-0.75118	 1.1300731294	-0.052142
C	 1.3887617885	-2.0225485027	 0.8533214837	-0.140955
C	 1.3023336633	-2.5527198401	-0.3727845945	 0.019652
N	 0.666675928	-1.8993044152	-1.4199809725	-0.371203
C	 0.1597737593	-0.6128746227	-1.3745279906	 0.42444
O	-0.1859610094	-0.0304903125	-2.3830442808	-0.359333
H	 0.7633970852	 1.9990739667	-0.4485313355	 0.131517
H	-0.9861457305	 1.782323006	-0.535643018	 0.149184
H	-0.184409064	 1.8519509179	 1.0533170657	 0.123564
H	 1.013012072	-0.1789079605	 2.001310844	 0.096255
H	 1.9197968704	-2.5384747907	 1.6416908195	 0.107439
H	 1.7365839365	-3.509988699	-0.6344677965	 0.130288
H	 0.6984525489	-2.2985384143	-2.3465095507	 0.2594
114.1465	178.2982	233.4089	265.9255	310.5315	385.9671	468.4328	494.8248	539.6131	590.5891	639.0614	665.5666	725.5953	765.8108	812.0941	864.4926	888.534	934.0838	981.6134	1026.6788	1077.45	1095.1841	1130.857	1169.0129	1230.4442	1305.221	1351.0254	1410.5491	1425.1323	1433.7351	1474.5345	1482.4617	1493.1004	1705.1898	1790.1793	3051.6162	3123.1831	3130.3014	3137.4504	3204.5105	3228.2124	3621.3262
CC12OC1C=CNC2=O	C[C@]12O[C@H]1C=CNC2=O	
InChI=1S/C6H7NO2/c1-6-4(9-6)2-3-7-5(6)8/h2-4H,1H3,(H,7,8)	InChI=1S/C6H7NO2/c1-6-4(9-6)2-3-7-5(6)8/h2-4H,1H3,(H,7,8)/t4-,6-/m0/s1
