17
gdb 128481	2.97817	1.30873	0.9579	2.1813	71.49	-0.2132	0.0382	0.2514	1207.1287	0.135412	-455.158691	-455.149212	-455.148268	-455.193713	33.372	
C	-0.5489800947	 0.7819097209	 0.1555426165	-0.254382
O	 0.815379836	 0.4104777308	-0.0572547555	-0.269308
C	 1.0270790313	-0.4633935812	-1.0657397369	 0.375745
C	 0.6722343662	-1.7901323304	-1.2401140932	-0.005204
C	-0.1116264287	-2.6907044341	-0.3390409546	-0.521317
C	 1.2796091021	-2.1048220645	-2.4801317361	 0.367807
O	 1.21201981	-3.3173843797	-3.0729413016	-0.430435
N	 1.9480627359	-1.1013018995	-3.0248342215	-0.344844
N	 1.761909166	-0.0825891204	-2.1381957782	-0.277322
H	-0.9678478345	 1.2570789813	-0.7393479399	 0.125445
H	-1.1626891555	-0.0842617778	 0.4238426237	 0.13349
H	-0.5465755815	 1.4945710451	 0.9821268357	 0.137549
H	-1.179134668	-2.7195030218	-0.5919070328	 0.124599
H	 0.2603397143	-3.7169740525	-0.4096432222	 0.13964
H	-0.0253148011	-2.3752309541	 0.7053586636	 0.125587
H	 1.7412525997	-3.2651169112	-3.8789016241	 0.300284
H	 2.2284631125	 0.797539399	-2.2698668229	 0.272663
31.2943	126.9266	133.7506	157.9498	216.2155	231.5907	293.0991	313.5715	358.4272	414.3766	490.2484	538.1655	595.4184	690.073	712.7134	746.9972	798.8613	951.9046	1039.2163	1066.9278	1110.7498	1171.3938	1176.3543	1216.1953	1237.4157	1270.4744	1307.6933	1418.0964	1451.2226	1467.1882	1486.0385	1490.3637	1498.8184	1503.9953	1557.9477	1564.1486	1660.1846	3019.9566	3022.8621	3077.849	3092.5236	3110.4105	3138.5486	3688.7404	3792.1552
COC1=C(C)C(O)=NN1	COc1c(C)c(O)n[nH]1	
InChI=1S/C5H8N2O2/c1-3-4(8)6-7-5(3)9-2/h1-2H3,(H2,6,7,8)	InChI=1S/C5H8N2O2/c1-3-4(8)6-7-5(3)9-2/h1-2H3,(H2,6,7,8)
