13
gdb 24942	5.05348	1.32298	1.05566	2.3335	64.89	-0.2137	-0.0108	0.2029	1023.8204	0.091166	-452.795377	-452.78858	-452.787636	-452.826916	25.401	
O	 0.0274845491	 0.0268335907	-0.0145551059	-0.338132
C	-0.0234703139	 1.2267864489	 0.026420832	 0.409812
C	-1.3001418193	 2.1314972468	 0.0290590987	-0.483386
C	-0.6958653849	 3.4998358932	-0.0055543173	 0.199638
C	 0.64322646	 3.3767566221	 0.0079331662	 0.423032
N	 1.1037874655	 2.0757817267	 0.0706572266	-0.45624
O	 1.2401177481	 4.5755204883	 0.0396849059	-0.204041
C	 0.1419626153	 5.4365676672	 0.0371639018	 0.024127
N	-1.0106424171	 4.8497569738	 0.0187552814	-0.323788
H	-1.9193566196	 1.8621486401	-0.8326244294	 0.157644
H	-1.8844722513	 1.9105845723	 0.9290390618	 0.158509
H	 2.040675455	 1.739482077	-0.079866785	 0.277216
H	 0.3777761132	 6.4869868629	 0.0370369832	 0.155609
97.8625	121.9681	281.3069	352.152	389.2208	542.674	545.7038	562.4465	641.679	710.1284	727.2699	748.4779	812.8185	844.7128	927.5122	960.35	1022.4613	1085.2819	1147.423	1189.6241	1223.6174	1273.1478	1303.9123	1378.2521	1448.5597	1516.4821	1534.9423	1663.7853	1857.4933	3053.5984	3090.0139	3300.3233	3662.1669	97.8609	121.9687	281.3067	352.1523	389.2209	542.6739	545.7039	562.4464	641.6787	710.1282	727.2699	748.477	812.8184	844.7127	927.5125	960.3505	1022.4621	1085.2818	1147.4243	1189.6238	1223.618	1273.1471	1303.9115	1378.2515	1448.5609	1516.4812	1534.9425	1663.7852	1857.4927	3053.5984	3090.0137	3300.3232	3662.1672
O=C1CC2=C(N1)OC=N2	O=C1Cc2c(N1)ocn2	
InChI=1S/C5H4N2O2/c8-4-1-3-5(7-4)9-2-6-3/h2H,1H2,(H,7,8)	InChI=1S/C5H4N2O2/c8-4-1-3-5(7-4)9-2-6-3/h2H,1H2,(H,7,8)
