16
gdb 18687	3.01712	2.58937	1.55362	4.6413	64.88	-0.2409	0.0449	0.2858	809.8862	0.133809	-379.941996	-379.935365	-379.934421	-379.972704	25.74	
O	-0.0507592044	-0.0332071905	 0.2816851952	-0.384016
C	-0.0427585268	 1.1646949397	 0.0923225625	 0.389319
N	-1.1812377789	 1.9044018871	-0.1270294094	-0.316317
C	-1.2534191954	 3.3518619605	 0.0360976258	-0.14592
C	-0.167680071	 3.8040559595	 1.0262555097	-0.24295
C	 1.162193907	 3.2903027491	 0.5091571198	-0.006793
C	 1.9242586468	 2.2014538545	 1.195443621	-0.248786
N	 1.1477710136	 1.9195246088	-0.0041561274	-0.113522
H	-2.029101641	 1.3628900923	-0.0774278927	 0.252676
H	-1.1154762722	 3.8648961227	-0.926057584	 0.116303
H	-2.2512216546	 3.6136098385	 0.4007872387	 0.113804
H	-0.1562743378	 4.8937617442	 1.1165102786	 0.111816
H	-0.3918878121	 3.3880012252	 2.014270389	 0.115096
H	 1.7188139561	 3.9802189697	-0.1225378272	 0.101239
H	 3.0024913478	 2.1359955715	 1.081566145	 0.127007
H	 1.5391665627	 1.8272928172	 2.1409978154	 0.131046
113.0369	206.2312	253.1645	398.6257	444.5845	468.932	489.9887	549.8925	682.1754	715.6617	784.871	813.7684	911.8954	924.7729	965.8899	984.3359	1021.0302	1085.7316	1114.2452	1131.6309	1155.9571	1170.3561	1224.1846	1257.053	1271.0762	1342.2049	1352.8522	1404.6216	1422.936	1451.0713	1480.5524	1510.2908	1517.0235	1808.7684	3004.9978	3047.6672	3079.1146	3097.9904	3109.1747	3124.088	3197.8275	3645.0567
O=C1NCCC2CN12	O=C1NCC[C@H]2CN12	
InChI=1S/C5H8N2O/c8-5-6-2-1-4-3-7(4)5/h4H,1-3H2,(H,6,8)	InChI=1S/C5H8N2O/c8-5-6-2-1-4-3-7(4)5/h4H,1-3H2,(H,6,8)/t4-,7?/m0/s1
