17
gdb 55904	3.6844	0.88109	0.75797	6.0732	71.12	-0.2472	0.0066	0.2537	1458.3635	0.13443	-455.172788	-455.163161	-455.162216	-455.20908	33.261	
N	-0.0395727452	 1.281704282	-0.0144390069	-0.525183
C	-0.0150562634	-0.0649074055	-0.2258585943	 0.428224
O	 0.8939777871	-0.6209315575	-0.8112610068	-0.354579
C	-1.2066296889	-0.8282775159	 0.3621564835	-0.356647
C	-1.1758425079	-2.2745435547	-0.0612570239	 0.024406
C	-2.4162767382	-3.1114654185	-0.2012598321	-0.263424
N	-1.7297952336	-2.5932229758	-1.3634953758	-0.067815
C	-1.0923310513	-3.3910699687	-2.3044512487	 0.131211
O	-1.5377376856	-4.4202571922	-2.7482053664	-0.287638
H	 0.6905930608	 1.8403191217	-0.425386357	 0.264725
H	-0.8382537854	 1.7484083215	 0.3781571786	 0.26043
H	-1.1699013095	-0.750370403	 1.4564652527	 0.131937
H	-2.143728627	-0.3615592212	 0.0381673731	 0.124499
H	-0.2660689839	-2.8042718334	 0.2110039977	 0.120986
H	-2.3395501614	-4.1797314281	-0.0164165399	 0.138935
H	-3.3887799403	-2.6746758621	 0.0104577925	 0.121575
H	-0.1466946365	-2.9298207388	-2.6428422063	 0.108357
25.6423	55.7701	110.7427	124.0513	188.0922	220.0556	308.9101	327.2977	370.5228	460.4162	497.7598	608.8481	631.1383	658.552	821.5311	830.0149	895.4714	932.6576	991.5919	1038.7212	1073.9236	1087.6656	1121.1822	1132.6825	1135.9045	1193.0747	1239.4631	1273.5658	1333.828	1388.6126	1407.303	1445.0278	1462.8436	1514.4131	1619.7068	1796.5189	1802.7472	2979.5803	3031.6364	3076.6155	3110.2133	3147.1417	3198.5926	3601.607	3736.4535
NC(=O)CC1CN1C=O	NC(=O)C[C@H]1CN1C=O	
InChI=1S/C5H8N2O2/c6-5(9)1-4-2-7(4)3-8/h3-4H,1-2H2,(H2,6,9)	InChI=1S/C5H8N2O2/c6-5(9)1-4-2-7(4)3-8/h3-4H,1-2H2,(H2,6,9)/t4-,7?/m0/s1
