19
gdb 6041	3.00456	1.51562	1.34425	5.0249	66.84	-0.2458	0.0246	0.2704	1022.325	0.164367	-402.244102	-402.23479	-402.233846	-402.277911	34.202	
C	-0.1657885068	 1.5944631658	 0.1277376336	-0.404202
C	-0.0003471315	 0.0770014821	 0.0112423855	-0.195125
C	 0.7476138334	-0.4107715978	-1.2488553352	 0.104744
C	 0.0492748391	 0.0159474901	-2.5514177521	-0.421952
N	 2.1597766019	 0.0329934483	-1.300443761	-0.560747
H	 2.5196873343	 0.2091197761	-0.3671101987	 0.242904
H	 2.5144934267	-1.7430782279	-1.708692376	 0.304596
H	 2.2593115653	 0.8929222778	-1.8279593873	 0.243385
C	 0.7416080294	-1.9659951303	-1.2451039746	 0.439875
O	-0.2387833523	-2.6153324715	-0.9900347824	-0.357178
O	 1.9122685787	-2.513358771	-1.5890728789	-0.377258
H	 0.7967007632	 2.1149849865	 0.0657499769	 0.101013
H	-0.8155397575	 1.9995349727	-0.6536008411	 0.124698
H	-0.6151603685	 1.8532828471	 1.0908207861	 0.124584
H	 0.5444401959	-0.2968963047	 0.8891198888	 0.097652
H	-0.9734732418	-0.4202859374	 0.0339229418	 0.134584
H	-0.0100869596	 1.1059349243	-2.6273878935	 0.117064
H	 0.598653635	-0.3580120677	-3.42108926	 0.130177
H	-0.962417545	-0.3932875425	-2.5840362218	 0.151185
58.3996	99.0039	186.9442	218.9897	247.2966	279.7017	283.6253	325.7682	358.3539	384.7956	423.1166	538.4613	627.3634	739.8318	767.2867	789.2429	831.6086	892.5046	924.9874	959.65	996.9689	1015.0674	1063.6215	1099.8198	1159.6992	1214.4017	1229.4717	1300.1011	1332.0759	1368.6934	1402.0354	1414.4686	1431.9247	1484.1279	1490.957	1500.1416	1505.5608	1512.7265	1652.4154	1858.9915	3017.0858	3034.8986	3042.7602	3089.6843	3107.4445	3108.589	3115.2865	3137.4964	3433.9614	3503.744	3587.6105
CCC(C)([NH3+])C([O-])=O	CC[C@@](C)(N)C(=O)O	
InChI=1S/C5H11NO2/c1-3-5(2,6)4(7)8/h3,6H2,1-2H3,(H,7,8)	InChI=1S/C5H11NO2/c1-3-5(2,6)4(7)8/h3,6H2,1-2H3,(H,7,8)/t5-/m1/s1
