23
gdb 115375	3.07702	1.0505	0.92577	2.5732	81.5	-0.2537	0.0754	0.3291	1375.3477	0.207167	-425.441671	-425.432436	-425.431492	-425.475428	35.805	
C	-0.1626617421	 1.5320551384	 0.1075818358	-0.388993
C	 0.0505913306	 0.0132234554	 0.0416952494	 0.019995
C	 0.7360314314	-0.4433833848	-1.2638792861	-0.224131
C	 2.227566992	-0.0696347774	-1.2878220495	-0.211537
C	 2.9156882959	-0.5340250563	-0.003497139	 0.115351
C	 4.3548246898	-0.0537278	 0.1419884144	-0.069415
O	 4.9244072141	-0.488121699	 1.3589737517	-0.427672
O	 2.2320139726	-0.0330125533	 1.1478558087	-0.278673
C	 0.8880462787	-0.4846542509	 1.2289987759	-0.077046
H	 0.7901220333	 2.0658349606	 0.1606510886	 0.127974
H	-0.7085036349	 1.893492481	-0.7699474325	 0.10968
H	-0.7408571329	 1.8050410014	 0.9968038317	 0.111399
H	-0.9302573075	-0.4760349103	 0.1045103014	 0.069516
H	 0.6436950817	-1.534400508	-1.3476737661	 0.093822
H	 0.2217026286	-0.0187199528	-2.1330431996	 0.094589
H	 2.7196941689	-0.5256689017	-2.1546199086	 0.097539
H	 2.3493494962	 1.0156884919	-1.385109275	 0.104815
H	 2.9085521089	-1.6377626636	 0.040282934	 0.067821
H	 4.9664501502	-0.4623236802	-0.6694363605	 0.104024
H	 4.3716070387	 1.0457232718	 0.057067428	 0.085639
H	 4.2648618758	-0.2867462042	 2.0341474027	 0.288247
H	 0.4964649124	-0.1049123365	 2.1781305279	 0.101579
H	 0.8681597476	-1.5868833816	 1.2685585567	 0.085477
86.0419	127.0617	183.3244	202.8625	226.2807	256.7908	360.212	373.8062	408.6427	456.1651	475.2188	488.3023	538.7251	686.6059	771.2969	813.8579	875.113	896.7125	935.9004	972.4986	983.5544	1001.984	1042.0054	1076.7945	1093.7113	1098.5472	1111.1035	1157.2055	1170.8772	1217.0908	1224.4662	1252.4691	1292.2015	1309.5762	1340.5935	1363.1466	1369.1352	1380.408	1390.9533	1395.6383	1403.0759	1425.3368	1445.8292	1479.164	1489.5898	1490.9872	1500.1302	1505.8582	1509.4965	2947.1862	2964.7095	2970.5806	3012.5533	3026.0156	3032.8326	3036.9179	3062.9867	3071.86	3074.0191	3079.2829	3098.1233	3117.3603	3785.1652
CC1CCC(CO)OC1	C[C@H]1CC[C@@H](CO)OC1	
InChI=1S/C7H14O2/c1-6-2-3-7(4-8)9-5-6/h6-8H,2-5H2,1H3	InChI=1S/C7H14O2/c1-6-2-3-7(4-8)9-5-6/h6-8H,2-5H2,1H3/t6-,7-/m0/s1
