16
gdb 39738	4.02259	1.58675	1.36674	1.2933	74.63	-0.2419	-0.0559	0.186	940.3764	0.125688	-396.786939	-396.780429	-396.779485	-396.817574	26.573	
C	-0.1971964234	 1.4437418022	-0.225875163	-0.308668
N	 1.1240343211	 0.87837214	 0.1613418105	-0.364355
C	-0.0015381787	 0.0038468282	-0.0417834091	 0.353563
C	-0.3669087365	-1.0654454172	 1.0292194977	-0.120258
C	-1.291944322	-2.2371802017	 0.641781414	-0.064065
C	-2.1787320337	-2.2348134807	-0.6100752956	-0.189796
N	-1.4459734656	-1.2664396902	-1.4683327214	-0.176561
C	-0.2866438344	-1.185034643	-0.9407156965	 0.007686
N	 0.075289112	-2.1740105284	 0.1265385474	-0.129201
H	-0.67575642	 2.0404336523	 0.5451867362	 0.129943
H	-0.3437089086	 1.7986069724	-1.2423550469	 0.134626
H	 1.767029203	 0.8477205208	-0.6247404678	 0.249806
H	 0.0384060516	-0.995194521	 2.0367303493	 0.120823
H	-1.4827209082	-2.9580694087	 1.4345316446	 0.104772
H	-2.2499456905	-3.2526962154	-1.0189272013	 0.125077
H	-3.194133836	-1.8509524396	-0.4729631481	 0.126609
150.4949	244.1862	278.6346	360.2785	446.5225	476.8095	567.1035	690.3284	729.0654	744.1108	814.0232	850.2361	868.5515	877.4978	922.3466	941.5858	961.0922	968.6855	989.9857	1006.3619	1056.7154	1060.4079	1097.315	1131.1324	1148.2592	1196.6598	1213.5151	1245.339	1253.0201	1304.2701	1335.2335	1421.996	1484.424	1515.1435	1608.2614	3011.5695	3082.2918	3114.1421	3134.8172	3145.7111	3201.9248	3520.434
C1NC11C2C3CN=C1N23	C1N[C@]21[C@H]1[C@H]3C[N][C]2N13	
InChI=1S/C6H7N3/c1-3-4-6(2-8-6)5(7-1)9(3)4/h3-4,8H,1-2H2	InChI=1S/C6H7N3/c1-3-4-6(2-8-6)5(7-1)9(3)4/h3-4,8H,1-2H2/t3-,4-,6-,9?/m1/s1
