15
gdb 32067	4.01191	1.1667	0.90897	1.0248	71.76	-0.244	-0.0641	0.1799	1202.1137	0.115048	-450.167799	-450.159993	-450.159049	-450.200923	28.451	
O	 0.1307248355	 1.3946897731	-0.0726776271	-0.413707
C	 0.0526549351	 0.003117436	-0.0939708136	-0.131804
C	-1.3798109831	-0.4800243395	-0.0325021491	 0.399895
N	-2.3300899173	 0.4112173552	 0.0294151496	-0.354757
C	-3.6034784107	-0.1103798925	 0.0820350834	 0.067774
N	-3.9545538234	-1.3553377075	 0.0773776817	-0.288723
C	-2.9476263008	-2.3165367428	 0.0118847349	 0.415631
N	-3.0835786575	-3.5798825386	-0.0037412717	-0.556736
N	-1.6310319712	-1.7977315145	-0.0437241034	-0.334863
H	-0.7871862382	 1.7097722856	-0.0228775389	 0.301079
H	 0.5134572408	-0.405869425	-1.0086571918	 0.125646
H	 0.599763951	-0.4373797632	 0.7562972909	 0.125632
H	-4.3974798883	 0.632447193	 0.1336203676	 0.133242
H	-4.0756912387	-3.806096461	 0.0404022509	 0.233153
H	-0.8870589633	-2.4818531085	-0.0916949334	 0.27854
50.6756	117.5611	171.7682	212.8029	377.4686	378.8982	423.2666	478.8978	574.4593	583.982	664.0671	708.7961	777.0741	809.5816	863.3678	905.6125	1013.104	1019.2072	1041.4875	1061.309	1135.5363	1204.1242	1255.0092	1269.622	1307.1532	1327.781	1422.9228	1463.5358	1499.2611	1512.5777	1583.5773	1659.9857	1746.6216	2969.1368	2984.616	3156.3084	3517.2333	3589.5039	3662.4279
OCC1=NC=NC(=N)N1	OC[C@H]1N=CN=C([NH])N1	
InChI=1S/C4H6N4O/c5-4-7-2-6-3(1-9)8-4/h2,9H,1H2,(H2,5,6,7,8)	InChI=1S/C4H7N4O/c5-4-7-2-6-3(1-9)8-4/h2-3,5,9H,1H2,(H,6,7,8)/t3-/m0/s1
