17
gdb 71519	2.54042	1.56881	1.45392	1.9925	79.83	-0.2343	0.0135	0.2477	1006.6415	0.133812	-384.568975	-384.561026	-384.560082	-384.601083	31.331	
C	-0.0078391752	 1.4872351188	-0.0237279067	-0.523421
C	 0.0619293746	-0.00887713	-0.0901511834	 0.250826
C	 0.625058914	-0.9499203801	-1.1805294487	-0.325417
C	 0.0921976726	-1.9394421772	-0.125166324	-0.141583
C	 0.4688404449	-0.9980073206	 1.0544411683	 0.007262
O	-0.8510193147	-1.0241682387	 1.673378701	-0.362949
C	-1.1221872237	-1.0117311187	 0.2329517009	 0.409633
C	-2.4600715973	-1.0197879836	-0.2619889728	 0.085295
C	-3.5774526486	-1.0141903903	-0.7072417986	-0.374863
H	 0.9922721842	 1.9315568179	-0.0693169125	 0.123071
H	-0.5942667766	 1.8915498464	-0.8553925903	 0.129378
H	-0.4810777471	 1.798041613	 0.9132946441	 0.13911
H	 0.1097367802	-0.9409461171	-2.1448002969	 0.10899
H	 1.7090229127	-0.9305432807	-1.3250873705	 0.099675
H	 0.0825300081	-3.0285777512	-0.1180841667	 0.091879
H	 1.346270176	-0.9996419545	 1.6993071537	 0.095505
H	-4.567143624	-1.0134227835	-1.0928738171	 0.18761
116.9905	140.0601	220.8221	242.0711	292.0868	364.5985	480.4953	517.6125	532.3786	577.5781	612.2088	691.4516	692.8788	740.5472	782.6937	822.2717	849.808	897.9702	922.332	940.0242	994.7389	1025.2523	1045.9523	1104.9322	1142.2637	1155.8752	1169.954	1200.2671	1231.4271	1261.8957	1316.1902	1350.9032	1408.6421	1487.5926	1488.7526	1513.816	2233.6944	3031.5456	3052.7738	3098.2992	3107.4548	3109.7517	3127.8615	3140.0925	3500.058
CC12CC3C1OC23C#C	C[C@@]12C[C@H]3[C@@H]1O[C@@]23C#C	
InChI=1S/C8H8O/c1-3-8-5-4-7(8,2)6(5)9-8/h1,5-6H,4H2,2H3	InChI=1S/C8H8O/c1-3-8-5-4-7(8,2)6(5)9-8/h1,5-6H,4H2,2H3/t5-,6-,7+,8+/m0/s1
