21
gdb 91389	2.41505	1.65546	1.467	2.5098	77.13	-0.2517	0.075	0.3267	1030.4839	0.184642	-424.23225	-424.224351	-424.223407	-424.264153	32.278	
C	 0.5535324283	 1.6693742854	-0.1331547849	-0.431689
C	 0.3552269636	 0.1733045185	-0.0202035213	 0.158794
O	 1.2035001941	-0.5998467118	-0.9241536892	-0.334948
C	 1.4249083435	-1.6090186141	 0.1089966614	 0.128079
C	 2.901539222	-1.8303798658	 0.3990474031	-0.265444
C	 3.3379555142	-0.5088197443	 1.063916752	 0.133188
O	 3.6612851822	 0.477804575	 0.0932354389	-0.445007
C	 2.112660132	-0.1296367635	 1.9372742085	-0.248017
C	 0.8636725806	-0.644714957	 1.1906178463	-0.094335
H	 1.5869679004	 1.9576178621	 0.0709311101	 0.142694
H	 0.2921067541	 2.0036864066	-1.1426198622	 0.126996
H	-0.1040968667	 2.1881815317	 0.5728874569	 0.11837
H	-0.6964293517	-0.0737395838	-0.2282573796	 0.076501
H	 0.8548460055	-2.5186060961	-0.1081352234	 0.071591
H	 3.0061396692	-2.6718506852	 1.0950126469	 0.101207
H	 3.4880057815	-2.0532367697	-0.4968001184	 0.11551
H	 4.2352314675	-0.6256638692	 1.6785644884	 0.077395
H	 3.0199470539	 0.371666612	-0.6235737723	 0.289364
H	 2.1855764304	-0.6469004703	 2.9010231421	 0.097336
H	 2.0950535302	 0.9427011914	 2.1467262857	 0.111347
H	 0.0868951851	-1.0126476317	 1.8621920008	 0.071068
139.4443	180.1997	212.7849	257.542	360.1773	370.1515	395.8462	429.9221	516.0572	588.3632	605.4144	741.401	784.5331	814.6145	825.2013	844.7965	891.1968	899.9263	933.6619	958.0064	970.5865	1008.7704	1048.0922	1073.3009	1097.4077	1118.3372	1139.964	1172.9834	1200.0458	1225.3	1240.8684	1267.8399	1292.0044	1320.9837	1332.0963	1351.6291	1355.675	1365.7067	1399.1062	1419.235	1460.0688	1461.965	1481.8812	1488.6557	1512.2455	2988.847	3034.9842	3037.9433	3040.4048	3052.0912	3071.8394	3098.5459	3101.0426	3102.6779	3104.4814	3133.2486	3728.3522
CC1OC2CC(O)CC12	C[C@H]1O[C@H]2C[C@@H](O)C[C@@H]12	
InChI=1S/C7H12O2/c1-4-6-2-5(8)3-7(6)9-4/h4-8H,2-3H2,1H3	InChI=1S/C7H12O2/c1-4-6-2-5(8)3-7(6)9-4/h4-8H,2-3H2,1H3/t4-,5+,6+,7+/m1/s1
