18
gdb 47449	2.75941	1.46084	1.08079	4.0483	72.07	-0.2492	0.0074	0.2566	1128.8811	0.148975	-439.094592	-439.086631	-439.085687	-439.127694	29.64	
O	 0.3777815361	-0.0313174475	-0.5060826835	-0.348273
C	 0.208464925	 1.1385524014	-0.3187905839	 0.466824
O	-1.0159833659	 1.6879785196	-0.1293352714	-0.220521
C	-0.9091049997	 3.1005291083	 0.1328816837	-0.072182
C	 0.462331221	 3.5158465595	-0.4185781543	-0.25277
C	 1.281556658	 2.2383044974	-0.2270237281	-0.117983
N	 1.8494244242	 2.1791065701	 1.1179929877	-0.081429
C	 2.8562180671	 1.1441596857	 1.342350059	-0.212663
C	 3.2523640991	 2.5754092616	 1.2459286293	-0.23216
H	-1.7513981748	 3.5918022871	-0.3575606223	 0.123448
H	-0.9772439547	 3.2577607437	 1.2135827582	 0.131356
H	 0.3867563233	 3.7582441444	-1.4828490923	 0.115956
H	 0.8861013981	 4.3731388099	 0.1074532908	 0.120186
H	 2.0338214654	 2.0748667163	-1.0128344226	 0.085658
H	 2.8079492314	 0.6497782829	 2.3075679603	 0.125118
H	 3.1030895653	 0.4915586016	 0.5088984713	 0.133806
H	 3.7750946695	 2.8903334534	 0.3443188094	 0.113889
H	 3.4997795814	 3.1431757947	 2.1378382785	 0.12174
81.9305	89.1576	168.5706	200.3954	291.5734	316.4603	404.1505	520.994	655.0455	683.7227	702.2509	771.4621	820.0152	879.0278	897.9365	918.6448	940.5426	992.0025	1030.0181	1042.7137	1072.1025	1099.1899	1113.9098	1121.4325	1170.4514	1184.3114	1195.1606	1218.1868	1242.3083	1289.9598	1311.6662	1342.999	1354.4805	1404.8571	1481.328	1494.5332	1518.5058	1521.1793	1879.5425	2990.6498	3061.2247	3064.3784	3099.4291	3116.4629	3116.8254	3128.8244	3186.5802	3205.3045
O=C1OCCC1N1CC1	O=C1OCC[C@H]1N1CC1	
InChI=1S/C6H9NO2/c8-6-5(1-4-9-6)7-2-3-7/h5H,1-4H2	InChI=1S/C6H9NO2/c8-6-5(1-4-9-6)7-2-3-7/h5H,1-4H2/t5-/m1/s1
