19
gdb 87269	2.33556	1.37034	1.0322	1.1532	78.29	-0.2509	-0.0349	0.2159	1220.9695	0.156076	-423.054241	-423.044498	-423.043554	-423.088886	35.47	
C	-0.0416676365	 1.4969248756	 0.1876524014	-0.429817
C	 0.0948527074	-0.0027943346	 0.0940799149	 0.001708
C	 1.3388972884	-0.6686757962	-0.3172025148	-0.296968
C	 0.9147873813	-0.8314129173	 1.1555958068	 0.075466
C	 1.7010643482	-0.0754999721	 2.1601454074	 0.077776
O	 2.4375980696	 0.8517756115	 1.9056767872	-0.277329
C	 0.2853923954	-2.149939405	 1.5049876188	 0.329737
C	 0.3992311041	-2.6720880793	 2.9264747381	-0.499705
O	-0.3045492929	-2.7898995624	 0.6580713122	-0.31856
H	 0.8907821637	 1.9687429254	 0.5000760149	 0.158718
H	-0.31337481	 1.8920266632	-0.7974759495	 0.12848
H	-0.832152029	 1.7829605902	 0.8888239404	 0.121466
H	-0.8126947087	-0.5438376363	-0.1581634836	 0.125948
H	 1.270145505	-1.5782179505	-0.9018948632	 0.144152
H	 2.2251467952	-0.0576568156	-0.450833325	 0.143998
H	 1.5738269008	-0.4050264067	 3.2118266525	 0.07787
H	-0.0675105323	-1.9826870808	 3.6387240187	 0.145128
H	-0.0989807133	-3.6403676589	 2.9800788631	 0.146812
H	 1.4476064436	-2.7816992303	 3.2248108397	 0.145117
49.4386	134.8274	167.0313	194.1265	212.1563	221.331	238.8354	290.0046	366.1567	385.2662	434.5519	471.5459	596.5198	611.4718	697.1007	724.84	867.2081	911.0964	930.4473	956.5121	1013.2345	1045.9879	1056.2232	1064.4086	1089.7881	1133.3323	1181.2108	1212.4926	1285.0957	1309.5277	1380.9164	1390.0347	1421.5896	1447.3195	1464.4993	1470.3133	1479.0663	1498.5827	1504.044	1768.7339	1797.65	2916.5696	3037.4931	3039.7611	3096.8484	3099.1547	3139.9362	3143.1178	3154.4442	3164.7042	3242.8407
CC1CC1(C=O)C(C)=O	C[C@H]1C[C@]1(C=O)C(=O)C	
InChI=1S/C7H10O2/c1-5-3-7(5,4-8)6(2)9/h4-5H,3H2,1-2H3	InChI=1S/C7H10O2/c1-5-3-7(5,4-8)6(2)9/h4-5H,3H2,1-2H3/t5-,7+/m0/s1
