14
gdb 130973	5.36859	0.81084	0.7568	3.9462	67.96	-0.2312	-0.0466	0.1845	1414.0516	0.098419	-469.979536	-469.970712	-469.969768	-470.015303	29.713	
O	-0.3106357329	 0.7051866472	 0.6770620243	-0.220092
C	 0.3403530276	 1.5988316621	 0.2089525671	 0.1511
C	 1.3947807903	 1.3946307913	-0.8791211225	-0.258676
N	 1.5211997758	 2.5285450928	-1.772088271	-0.391433
C	 2.3750091708	 3.5592475127	-1.5598708867	 0.517853
C	 2.5434429096	 4.7411078692	-2.2691240604	-0.250577
N	 3.5515433014	 5.4090077902	-1.6523554046	-0.054128
N	 4.033768317	 4.8346078778	-0.6741515161	-0.0427
O	 3.2180025461	 3.4949135085	-0.5608234328	-0.266187
H	 0.2235109265	 2.6564972157	 0.5371533717	 0.096536
H	 2.3598242732	 1.2331333031	-0.3867159844	 0.177505
H	 1.1507926832	 0.4896428574	-1.4419720369	 0.145776
H	 0.8242951205	 2.6528096539	-2.4872510281	 0.268105
H	 2.0320777509	 5.119321578	-3.1362312097	 0.126918
26.0448	47.8689	79.5409	144.0963	253.1924	296.0402	350.0667	390.616	425.733	571.64	650.6247	699.8065	702.8647	745.2	776.6477	932.6683	1013.0835	1036.2131	1090.9949	1127.6559	1156.5379	1256.1802	1322.1856	1336.4819	1391.5578	1411.3132	1441.1802	1503.4828	1535.1767	1635.7716	1843.3323	2886.3621	3058.5877	3114.6034	3293.4217	3654.3483
O=CCNC1=CN=NO1	O=CCNc1cnno1	
InChI=1S/C4H5N3O2/c8-2-1-5-4-3-6-7-9-4/h2-3,5H,1H2	InChI=1S/C4H5N3O2/c8-2-1-5-4-3-6-7-9-4/h2-3,5H,1H2
