19
gdb 22489	2.42854	0.98306	0.88436	2.9574	76.75	-0.2582	-0.008	0.2502	1410.5336	0.157014	-456.299804	-456.289425	-456.288481	-456.33677	35.964	
C	 2.0193416218	-0.5236155136	 0.3531399165	-0.387519
C	 0.5460704543	-0.3417997335	-0.061393646	-0.265753
C	 0.3655101856	-0.2475531428	-1.5550652299	 0.344765
C	-0.115841139	-1.4519963854	-2.3230718233	-0.175134
O	 0.7359554613	-2.5849079226	-2.1133556738	-0.185
C	 1.8442289737	-2.6487212923	-2.8825435156	 0.139432
N	 2.7227371402	-3.52197398	-2.6434809522	-0.446832
N	 0.5911329165	 0.7869310537	-2.2732819973	-0.163218
O	 1.0162464965	 1.8784050703	-1.5072476075	-0.390479
H	 2.4326806864	-1.4483855466	-0.0574858724	 0.149683
H	 2.6222068531	 0.3165310665	 0.0006959191	 0.134359
H	 2.0995421385	-0.5697669864	 1.4432042165	 0.116165
H	-0.0462191642	-1.1820907282	 0.3137646	 0.109385
H	 0.1544199828	 0.5752135974	 0.3901370805	 0.127867
H	-1.0977268368	-1.770531065	-1.9595443832	 0.128218
H	-0.195342417	-1.2051969223	-3.3870561444	 0.124846
H	 1.862040869	-1.9026488605	-3.6883196724	 0.099514
H	 3.4714826336	-3.4567496867	-3.3300887846	 0.230068
H	 1.1180646838	 2.5684077279	-2.1715852999	 0.309631
40.7257	51.2528	74.3561	96.1129	182.8925	213.0103	275.1547	289.7638	313.1201	395.4013	401.8761	445.4553	599.9705	625.0908	686.691	791.9816	804.8416	824.4757	949.7078	972.3748	992.2595	1036.2865	1043.6131	1083.4683	1109.162	1118.3637	1232.6748	1255.0679	1299.2048	1323.9308	1353.1156	1386.5893	1405.1308	1413.4358	1426.0086	1480.4267	1490.1194	1500.5857	1510.8587	1725.8156	1744.8598	3030.5011	3045.814	3048.2366	3049.1512	3092.9572	3099.1626	3119.45	3136.2783	3516.6496	3817.6432
CCC(COC=N)=NO	CCC(=NO)CO[CH][NH]	
InChI=1S/C5H10N2O2/c1-2-5(7-8)3-9-4-6/h4,6,8H,2-3H2,1H3	InChI=1S/C5H10N2O2/c1-2-5(7-8)3-9-4-6/h4,6,8H,2-3H2,1H3
