17
gdb 51213	3.79833	1.19838	1.06729	4.0653	73.77	-0.2771	0.0022	0.2793	1137.6745	0.135657	-421.771456	-421.763994	-421.76305	-421.804236	28.279	
O	 0.0743380463	 0.0466192277	-0.1104019044	-0.270062
C	 0.0570005333	 1.2381844599	-0.1692492294	 0.146638
O	 1.1021340523	 1.9996616155	 0.2256989843	-0.24589
C	 0.9501842243	 3.3937062439	 0.166790275	 0.435321
C	 0.2745856387	 4.320643158	 1.1868595311	-0.319079
C	 0.8730853079	 5.2478693121	 0.1037878357	-0.050975
C	 2.1492308706	 4.3520631795	-0.0814378231	-0.085035
C	 1.978684349	 4.2978431249	-1.6138778814	-0.270341
C	 0.5336597817	 4.2677588816	-1.0723372166	-0.103921
H	-0.7894203451	 1.8368561673	-0.5518145606	 0.082921
H	-0.816912621	 4.278753711	 1.2532687364	 0.101247
H	 0.7286222692	 4.3687602228	 2.1806472161	 0.108585
H	 0.846627484	 6.3329075475	 0.0452425414	 0.092042
H	 3.0555746459	 4.3974093303	 0.5225631406	 0.086471
H	 2.2714307712	 5.1922092537	-2.1709161937	 0.099864
H	 2.3368606812	 3.3952497081	-2.1161325641	 0.110484
H	-0.4143091495	 4.2262381162	-1.6102186674	 0.081731
45.6519	127.9104	169.0727	286.2903	363.5227	434.0587	468.9356	489.4337	714.9591	773.7316	799.8015	861.9495	867.302	895.0751	921.5849	933.0426	992.069	995.8536	1021.8751	1047.0806	1051.8103	1096.4407	1109.2193	1120.8465	1149.865	1160.0184	1171.2119	1193.4873	1208.4206	1238.8753	1249.0835	1268.4874	1326.9139	1424.4049	1507.904	1509.6305	1867.8718	2976.7375	3047.8937	3054.2151	3106.4356	3110.893	3113.4298	3118.3316	3154.7418
O=COC12CC3C1CC23	O=CO[C@@]12C[C@H]3[C@@H]1C[C@@H]23	
InChI=1S/C7H8O2/c8-3-9-7-2-4-5(7)1-6(4)7/h3-6H,1-2H2	InChI=1S/C7H8O2/c8-3-9-7-2-4-5(7)1-6(4)7/h3-6H,1-2H2/t4-,5-,6+,7-
