17
gdb 6700	7.28433	0.72987	0.68448	3.8713	77.48	-0.2303	-0.0602	0.1701	1607.0917	0.139215	-363.820561	-363.811058	-363.810114	-363.85588	31.972	
C	-0.0423919973	 1.4802143081	 0.0341410063	-0.314274
N	 0.0347886082	 0.0275988918	 0.0232839864	-0.048882
C	 0.8331482456	-0.4783313117	 1.1307384446	-0.322469
C	-1.2996241014	-0.5624527354	-0.0140163807	-0.309705
C	-1.293198445	-2.0005884142	-0.2555547131	 0.066926
C	-1.3263338502	-3.1925126287	-0.4498590792	 0.084862
C	-1.3215943258	-4.6118596734	-0.6880262108	 0.01762
O	-2.3151442008	-5.2906426812	-0.8144184457	-0.22958
H	 0.9678548972	 1.8976823268	-0.0012799581	 0.125278
H	-0.5866360609	 1.832627221	-0.8478771477	 0.121745
H	-0.5459745361	 1.8850449028	 0.9332811493	 0.095289
H	 0.4132928767	-0.2164213255	 2.1211854569	 0.093982
H	 0.9067989017	-1.5669914809	 1.0687553639	 0.132323
H	 1.8429447112	-0.0625827943	 1.0697889202	 0.124082
H	-1.8754509383	-0.371396023	 0.9162336195	 0.118646
H	-1.8662426158	-0.0815406623	-0.8217254099	 0.144712
H	-0.3066200388	-5.05505206	-0.7499662418	 0.099444
45.0022	70.7454	77.0664	184.6871	191.6064	250.4894	257.0419	330.5733	356.7845	397.1589	409.1694	506.3057	628.6746	836.6384	856.3239	981.3562	1021.5976	1048.0854	1067.9879	1120.615	1157.1747	1174.5819	1205.7844	1295.0152	1304.0794	1388.1544	1422.3362	1442.3815	1458.7828	1477.9627	1481.7357	1497.8896	1498.4259	1512.0757	1767.5653	2328.1972	2883.0158	2916.8436	2919.6533	2929.2116	3039.0769	3063.8266	3074.9031	3110.366	3121.4909
CN(C)CC#CC=O	CN(C)CC#CC=O	
InChI=1S/C6H9NO/c1-7(2)5-3-4-6-8/h6H,5H2,1-2H3	InChI=1S/C6H9NO/c1-7(2)5-3-4-6-8/h6H,5H2,1-2H3
