19
gdb 87260	3.73106	0.86582	0.81852	5.2004	73.49	-0.2702	0.0093	0.2794	1463.1445	0.155752	-460.173254	-460.163177	-460.162233	-460.209017	35.281	
C	 0.6146129054	 1.1636454094	-0.3878753153	-0.426749
C	 0.2719201753	-0.1910837513	 0.1755818838	 0.029576
O	 1.3549345561	-1.0394214801	 0.5836817437	-0.293107
C	 0.4281724142	-0.5884409109	 1.5889899769	 0.370476
C	 0.9839288402	 0.3266198015	 2.6557476384	-0.471255
C	-0.4653590544	-1.7035034624	 2.0969553614	-0.158281
O	 0.2336392989	-2.5420493987	 3.0261391919	-0.183369
C	 0.9349781954	-3.577835172	 2.5108657606	 0.178717
O	 1.5970111109	-4.2993134081	 3.1927203756	-0.273595
H	 1.3687750808	 1.6793771155	 0.2083280638	 0.132556
H	 1.0029551321	 1.0552373746	-1.405726385	 0.137347
H	-0.2824943205	 1.7900586392	-0.437894092	 0.126478
H	-0.4952911916	-0.7213890232	-0.3947984081	 0.085626
H	 0.1803552127	 0.9068369622	 3.1224326381	 0.123323
H	 1.4669380582	-0.2666833897	 3.4369274117	 0.153146
H	 1.7215795163	 1.0156761497	 2.2440977155	 0.133501
H	-1.3216902056	-1.3040798801	 2.6474487674	 0.126897
H	-0.835639774	-2.2999878837	 1.2556384732	 0.116283
H	 0.8141171697	-3.6759414221	 1.4169936184	 0.092429
52.2608	69.0318	139.1003	152.1964	160.3182	188.4519	254.2575	287.2773	334.834	389.5527	396.4066	479.6354	549.3225	673.0759	722.8972	802.562	888.3492	937.5692	967.0314	1005.8764	1028.3649	1044.9433	1080.1958	1107.2895	1138.9991	1145.3395	1182.404	1266.2447	1303.1857	1361.6184	1397.5885	1411.5175	1419.3421	1434.0058	1461.0996	1475.4129	1487.8972	1488.849	1498.8098	1521.1434	1867.6705	2981.9211	3041.5948	3042.9862	3047.1929	3070.0488	3103.4606	3103.787	3113.8559	3138.2676	3152.0845
CC1OC1(C)COC=O	C[C@H]1O[C@]1(C)COC=O	
InChI=1S/C6H10O3/c1-5-6(2,9-5)3-8-4-7/h4-5H,3H2,1-2H3	InChI=1S/C6H10O3/c1-5-6(2,9-5)3-8-4-7/h4-5H,3H2,1-2H3/t5-,6-/m1/s1
