13
gdb 130745	3.50667	1.61503	1.11353	5.1937	64.77	-0.2693	-0.0213	0.248	979.3521	0.093159	-452.793891	-452.787571	-452.786627	-452.824746	24.066	
O	-0.1016621212	-0.0387323797	 0.0059478757	-0.338028
C	 0.021711371	 1.1493851787	 0.0103579272	 0.399159
O	-1.0948810016	 1.9937256855	 0.0285819873	-0.253421
C	-0.7327314365	 3.3817616507	 0.0297026577	-0.18654
C	 0.7597463902	 3.3284167491	 0.0092213868	 0.341871
C	 1.1931253172	 2.0287177799	-0.0022906275	 0.014225
C	 2.604857278	 2.1109274381	-0.0217986265	-0.155248
N	 2.997574168	 3.3789476312	-0.0211445814	-0.204336
N	 1.845697342	 4.1148522338	-0.0020245712	-0.332484
H	-1.1683957113	 3.8662980837	-0.8518870258	 0.144826
H	-1.1443022875	 3.8585482035	 0.9269536272	 0.144796
H	 3.3411861203	 1.3222599702	-0.0355523121	 0.141574
H	 1.9178722814	 5.1185438453	 0.0014397826	 0.283606
168.5536	202.0274	245.9922	316.164	523.3231	541.746	631.8553	647.0653	660.5786	678.9618	773.8779	775.6733	903.3133	974.8882	1004.2862	1024.3503	1035.9023	1077.9163	1141.3758	1196.1507	1230.0373	1312.0497	1368.2334	1421.8239	1470.583	1498.6042	1547.9869	1592.9266	1890.5868	3032.9815	3069.1596	3262.9167	3670.3604
O=C1OCC2=C1C=NN2	O=C1OCc2c1cn[nH]2	
InChI=1S/C5H4N2O2/c8-5-3-1-6-7-4(3)2-9-5/h1H,2H2,(H,6,7)	InChI=1S/C5H4N2O2/c8-5-3-1-6-7-4(3)2-9-5/h1H,2H2,(H,6,7)
