18
gdb 17178	3.86743	1.97153	1.64742	1.0965	72.18	-0.2457	0.0979	0.3436	851.5181	0.154057	-347.719704	-347.712678	-347.711734	-347.750895	27.378	
C	-0.0202938227	 1.3562712596	 0.0484158722	-0.262858
O	-0.0817483495	-0.0543371387	-0.05988503	-0.293942
C	-1.3607948592	-0.5592974025	-0.0612731923	 0.462444
C	-2.5042730552	-0.3360906347	-1.0771156555	-0.330439
C	-3.0493223015	-1.3587237633	-0.0579136016	-0.048103
C	-1.6639102579	-2.0784305911	 0.0985762552	-0.0962
C	-1.7096227555	-1.9893168725	 1.6382886976	-0.268281
C	-2.3553178818	-0.6705158058	 1.1651021072	-0.108526
H	 1.0363500373	 1.6318781246	 0.0414792488	 0.1287
H	-0.5231516542	 1.8498476892	-0.7947196625	 0.114317
H	-0.4772279099	 1.7094374625	 0.9835674874	 0.111517
H	-2.9863586859	 0.6468139937	-1.08812081	 0.090209
H	-2.3330447974	-0.6987470291	-2.0958440908	 0.094241
H	-4.0213146784	-1.8465831393	-0.0376044232	 0.078764
H	-1.2801469327	-2.8716578837	-0.5446830552	 0.071594
H	-2.3652174243	-2.6998161239	 2.1513356267	 0.088547
H	-0.7477175639	-1.9097467023	 2.1520342404	 0.10116
H	-2.7686955573	 0.1524553572	 1.7503686356	 0.066856
86.8436	178.4312	210.8427	303.7784	368.1251	450.4943	486.8591	625.0647	728.6114	776.2	862.0125	865.1181	890.9657	907.0987	920.8947	981.2219	991.2291	1024.5284	1043.6324	1085.723	1087.6997	1111.2387	1121.7008	1144.4179	1158.4927	1181.8696	1184.406	1207.3446	1225.5177	1240.5461	1252.6897	1285.1644	1340.8633	1483.1136	1489.2695	1504.5959	1506.2673	1511.9909	2993.7641	3036.8508	3046.0909	3048.0276	3096.6957	3098.55	3105.0282	3106.326	3123.3093	3143.5187
COC12CC3C1CC23	CO[C@@]12C[C@H]3[C@@H]1C[C@@H]23	
InChI=1S/C7H10O/c1-8-7-3-4-5(7)2-6(4)7/h4-6H,2-3H2,1H3	InChI=1S/C7H10O/c1-8-7-3-4-5(7)2-6(4)7/h4-6H,2-3H2,1H3/t4-,5-,6+,7-
