18
gdb 30348	3.01503	1.5784	1.08472	2.0075	78.47	-0.1855	0.0443	0.2298	1102.3606	0.150174	-401.978584	-401.970803	-401.969859	-402.010764	30.331	
C	-0.0481468251	 1.5777813309	-0.067745922	-0.396093
C	-0.001245879	 0.0515428428	 0.0501146212	-0.161375
C	 0.8033052346	-0.6191418716	-1.1143056266	-0.098956
O	 1.5333650021	-1.7512154618	-0.5846100983	-0.292787
C	 1.5947071978	-1.5413174241	 0.7616228242	 0.31814
C	 2.2627257674	-2.1059704859	 1.8150741091	-0.241779
N	 1.8129174549	-1.4159513895	 2.9357833826	-0.242727
C	 0.9026833406	-0.4446754351	 2.5880206735	-0.24175
C	 0.7524595349	-0.5090041145	 1.2241425606	 0.214259
H	 0.9618240552	 1.9997176813	-0.0472387478	 0.119175
H	-0.5318721786	 1.8890759504	-1.0004032078	 0.11198
H	-0.6135299524	 2.0165032243	 0.7602260061	 0.117098
H	-1.0325337854	-0.3289036528	 0.0422678553	 0.086317
H	 0.1711885068	-0.9833276024	-1.927585536	 0.110483
H	 1.5287602446	 0.0974286607	-1.5244407796	 0.101149
H	 2.9828037081	-2.9017407885	 1.891077827	 0.120379
H	 2.1544778695	-1.5698131132	 3.8671747958	 0.258416
H	 0.4576160141	 0.1877202391	 3.3392475229	 0.118071
95.4029	156.6649	220.9103	260.0893	301.9778	376.882	438.3874	500.6108	603.2095	610.3677	639.5637	660.4586	730.4646	733.8943	739.7231	897.3174	929.394	943.5855	987.1269	1030.3322	1058.0103	1104.8899	1112.2745	1143.1728	1171.5837	1227.3631	1253.2368	1307.4231	1319.8801	1354.2804	1385.4176	1409.4771	1444.4579	1467.787	1494.1501	1498.4297	1508.1742	1572.4948	1658.1759	2993.1591	3006.9839	3029.9403	3096.8183	3099.8888	3107.9203	3259.0172	3281.8766	3696.2054
CC1COC2=CNC=C12	C[C@H]1COc2c[nH]cc12	
InChI=1S/C7H9NO/c1-5-4-9-7-3-8-2-6(5)7/h2-3,5,8H,4H2,1H3	InChI=1S/C7H9NO/c1-5-4-9-7-3-8-2-6(5)7/h2-3,5,8H,4H2,1H3/t5-/m0/s1
