18
gdb 71056	2.41469	2.16315	1.34413	3.6459	78.64	-0.22	-0.0436	0.1764	966.3986	0.14719	-397.988767	-397.980808	-397.979864	-398.020414	32.065	
C	-0.0860000362	 1.4776446479	-0.0651169632	-0.499947
C	-0.0718230465	-0.018339489	-0.005770534	 0.318981
N	-0.3295986303	-0.7901999362	-1.3499621119	-0.380336
C	-0.3842252373	-1.8843702167	-0.3725827212	 0.130007
N	 0.6410454696	-2.6374738488	-0.3012440769	-0.160018
C	 1.2939175342	-2.2395301181	 0.9649766552	-0.233913
C	 0.673940608	-0.8357583541	 1.2065089697	 0.244565
N	 1.0615111598	-0.0045277173	 2.3025147811	-0.583624
C	-0.7670031431	-0.9989780628	 0.8564405768	-0.246546
H	 0.6663361608	 1.8391392933	-0.7731565906	 0.136274
H	-1.0646604769	 1.8498045241	-0.3908505236	 0.117424
H	 0.131949049	 1.8803594168	 0.9264486653	 0.151815
H	-1.2779233258	-0.4699429435	-1.5810423875	 0.217166
H	 1.1106984831	-2.8895681093	 1.8363976707	 0.098192
H	 2.3742185131	-2.2335025805	 0.7765931847	 0.11643
H	 0.8512542162	-0.4511645905	 3.1906491438	 0.235724
H	 2.0596892974	 0.1815704636	 2.2832678961	 0.237832
H	-1.6616318251	-0.967686029	 1.4674595256	 0.099972
178.0789	197.896	245.5352	276.466	288.0559	344.7482	370.1291	427.4646	470.1471	571.3753	583.2979	630.5886	687.4057	727.7482	793.3505	825.7619	837.1264	935.4037	976.76	985.2903	997.4653	1014.3423	1054.3631	1090.4711	1131.0746	1147.1583	1151.9593	1173.1133	1244.5373	1255.8791	1288.79	1335.7223	1385.3228	1400.619	1479.8775	1486.2492	1491.1838	1619.3161	1652.6937	2968.8255	3029.0115	3052.3503	3092.5426	3133.9114	3174.6191	3353.9577	3487.0997	3563.7716
CC12NC3=NCC1(N)C23	C[C@@]12N[C]3[N]C[C@]1(N)[C@@H]23	
InChI=1S/C6H9N3/c1-5-3-4(9-5)8-2-6(3,5)7/h3H,2,7H2,1H3,(H,8,9)	InChI=1S/C6H9N3/c1-5-3-4(9-5)8-2-6(3,5)7/h3H,2,7H2,1H3,(H,8,9)/t3-,5+,6+/m1/s1
