21
gdb 84730	2.27125	1.5769	1.24051	0.6226	94.61	-0.2038	-0.0296	0.1742	1143.4318	0.18372	-349.984534	-349.975845	-349.974901	-350.017263	34.169	
C	-0.3541315889	 1.4960192637	 0.0464393972	-0.386801
C	-0.0135212728	-0.0082133519	-0.0012705682	-0.123359
C	 0.7386664649	-0.4029020769	-1.2526356807	-0.104456
C	 1.986424631	-0.0067749363	-1.5693178371	-0.05083
C	 2.9145279747	 0.6944238027	-0.7167518879	-0.116736
C	 2.9228744073	 0.6618525249	 0.6405252289	-0.091664
C	 2.0195712324	-0.0701657607	 1.4935122003	-0.137847
C	 0.7561353196	-0.4702646487	 1.2269558102	 0.273071
C	 0.0078778352	-1.3618490628	 2.1805772024	-0.481114
H	 0.5518499995	 2.1051918329	 0.0419581333	 0.134734
H	-0.9600836024	 1.7758676379	-0.8215063949	 0.108095
H	-0.9217537995	 1.7317665169	 0.9530206593	 0.106519
H	-0.9660727674	-0.5500962773	-0.0095165307	 0.070283
H	 0.2034142253	-1.0264495468	-1.9650561628	 0.087649
H	 2.3598783748	-0.2651630901	-2.5588084927	 0.086487
H	 3.7389294845	 1.2014443522	-1.212414978	 0.085732
H	 3.7567792906	 1.1457666731	 1.1444615034	 0.0862
H	 2.4305484837	-0.3504041307	 2.4624693672	 0.07854
H	 0.6034812582	-1.6126683394	 3.0621114885	 0.120895
H	-0.9255270108	-0.8903780278	 2.5163423522	 0.124435
H	-0.2815140998	-2.300584095	 1.6904873102	 0.130167
106.0747	177.9058	201.2849	236.417	249.1969	288.5179	342.6846	382.9461	408.1258	464.8937	556.029	617.3746	685.5461	731.1042	777.3153	825.2553	869.8998	887.4916	910.7835	949.414	980.5187	997.9318	1008.6497	1032.6713	1052.5875	1074.5678	1099.7492	1142.3383	1169.8473	1247.4111	1257.4332	1357.5995	1359.9044	1378.6934	1396.2467	1408.589	1421.4598	1472.2494	1477.3632	1488.2034	1489.9473	1501.2683	1596.4306	1679.5645	1684.5614	3010.2217	3030.7879	3036.3213	3055.8272	3098.8209	3110.7446	3126.9159	3130.4218	3134.6698	3143.5284	3155.774	3165.4926
CC1C=CC=CC=C1C	C[C@H]1C=CC=CC=C1C	
InChI=1S/C9H12/c1-8-6-4-3-5-7-9(8)2/h3-8H,1-2H3	InChI=1S/C9H12/c1-8-6-4-3-5-7-9(8)2/h3-8H,1-2H3/t8-/m0/s1
