20
gdb 113318	2.47873	1.05099	0.84328	4.3177	81.53	-0.2466	0.0225	0.2691	1444.1758	0.171006	-399.314111	-399.303975	-399.303031	-399.349603	36.369	
C	 0.3596290861	 1.4855352395	 0.148964203	-0.382042
C	-0.241184443	 0.1058020262	-0.147603815	-0.19799
C	 0.4458920286	-0.5514328229	-1.324085157	-0.041355
N	 1.6980449672	-1.2727715608	-1.0746083732	-0.36178
C	 0.5210171518	-2.0346555279	-1.5617364265	 0.156827
C	-0.0156666036	-3.0864245987	-0.6055252624	-0.227191
N	 0.8903347743	-4.2317627208	-0.6057589024	-0.502858
C	 0.5383167267	-2.4373275184	-2.9540317796	 0.263671
N	 0.5507837183	-2.7275687071	-4.073731436	-0.345033
H	 1.4243373269	 1.399702732	 0.3868283169	 0.13185
H	 0.2588668694	 2.1567556933	-0.7108653618	 0.118701
H	-0.1415659902	 1.9557841752	 0.9997176087	 0.11909
H	-0.1500461943	-0.5292492838	 0.7374841978	 0.111454
H	-1.3112182052	 0.2013401505	-0.3697488472	 0.108642
H	 0.4036806549	 0.0381609563	-2.2396749411	 0.105692
H	 2.3660537751	-1.1282486364	-1.8272400056	 0.251334
H	-0.1579464247	-2.6184009371	 0.3784333345	 0.097995
H	-0.998953882	-3.4186347902	-0.9567428039	 0.120541
H	 1.773002063	-3.9566048481	-0.1849569375	 0.238954
H	 0.5105462907	-4.9815700206	-0.0378815516	 0.233498
64.1105	83.744	132.6982	141.5877	168.0908	223.072	244.7126	280.9459	325.149	365.8365	434.7445	490.6129	589.9892	645.9853	681.7862	770.1546	827.919	857.2874	897.4887	929.3414	959.8651	1009.5999	1054.2734	1077.398	1088.2116	1111.0106	1127.7064	1191.7896	1237.2332	1269.351	1304.0233	1331.7751	1340.4505	1349.2153	1409.0926	1430.693	1463.9578	1476.1518	1497.4329	1498.748	1507.5842	1653.6522	2349.0349	3002.3214	3036.4894	3038.1336	3067.9419	3088.26	3106.94	3115.3941	3119.1165	3499.4093	3512.2256	3583.0336
CCC1NC1(CN)C#N	CC[C@H]1N[C@]1(CN)C#N	
InChI=1S/C6H11N3/c1-2-5-6(3-7,4-8)9-5/h5,9H,2-3,7H2,1H3	InChI=1S/C6H11N3/c1-2-5-6(3-7,4-8)9-5/h5,9H,2-3,7H2,1H3/t5-,6-/m1/s1
