19
gdb 111040	2.39062	1.30449	1.00062	2.3204	76.78	-0.2489	-0.0406	0.2083	1249.6939	0.156913	-422.963956	-422.954905	-422.953961	-422.999035	32.787	
C	 0.0518112935	 1.5523416824	 0.0824060921	-0.377148
C	 0.0958928968	 0.0212570511	 0.1771118728	-0.234651
C	-1.2900271487	-0.5954891975	 0.0892224914	 0.017506
C	-2.0782268404	-0.8158589753	-1.2369137245	 0.027317
C	-1.136047678	-1.9741474069	-1.6379904752	-0.266694
C	-1.5408975074	-2.1272396456	-0.1453144319	 0.296479
O	-2.9318900408	-1.7987744723	-0.5210935049	-0.341464
C	-1.3060950895	-3.2568858996	 0.801691522	 0.028251
O	-0.2050448488	-3.6382314668	 1.1098693127	-0.251266
H	 1.0529710377	 1.9802940788	 0.18745151	 0.119829
H	-0.3520598701	 1.8810065718	-0.8812146108	 0.118004
H	-0.5789148525	 1.9805180642	 0.8688007213	 0.120722
H	 0.7584961213	-0.3751428082	-0.5981655525	 0.105819
H	 0.5408331536	-0.2749193508	 1.1348444619	 0.118631
H	-1.9518552574	-0.2180449922	 0.8747388862	 0.088539
H	-2.5905616929	-0.0921520133	-1.8706768883	 0.100565
H	-1.5810381439	-2.7172623877	-2.2999946288	 0.116487
H	-0.0947004578	-1.7608548777	-1.8777451295	 0.114666
H	-2.2343387847	-3.7095901943	 1.2148805361	 0.098408
38.0994	59.4717	110.4678	208.7358	216.9946	222.02	331.8989	408.9359	448.757	549.4418	593.2947	683.3005	745.9168	770.7985	823.2105	865.6846	912.7403	927.0692	963.7626	998.0524	1014.9663	1023.0144	1088.3891	1096.074	1108.6715	1160.1769	1175.6368	1211.554	1225.6572	1242.5565	1280.3469	1295.7964	1339.8943	1403.0973	1406.3051	1414.613	1479.9373	1496.6252	1500.2174	1509.3405	1818.7897	2894.7293	3033.4393	3038.8378	3066.238	3079.6336	3091.3956	3104.7639	3110.0748	3121.233	3166.1325
CCC1C2CC1(O2)C=O	CC[C@H]1[C@H]2C[C@@]1(O2)C=O	
InChI=1S/C7H10O2/c1-2-5-6-3-7(5,4-8)9-6/h4-6H,2-3H2,1H3	InChI=1S/C7H10O2/c1-2-5-6-3-7(5,4-8)9-6/h4-6H,2-3H2,1H3/t5-,6+,7+/m0/s1
