19
gdb 9356	3.09128	1.26674	1.09309	3.2399	69.	-0.2327	0.0382	0.2709	1179.9166	0.16395	-402.225037	-402.215242	-402.214297	-402.26074	33.461	
C	 1.005049762	 0.7323576319	-1.0379717621	-0.388465
C	 0.317400274	-0.2029735779	-0.0469939599	-0.055925
O	 0.5287248397	-1.5874528783	-0.3045194833	-0.250202
C	-0.1661415651	-2.1083984326	-1.4236667895	-0.183873
C	 0.718537496	-2.4018620347	-2.6420572053	 0.365651
O	 0.2217381176	-2.6934580819	-3.7162387813	-0.383111
N	 2.0489796122	-2.3432009458	-2.3869104093	-0.291812
C	 3.0540417846	-2.6470718447	-3.3827722506	-0.331734
H	 2.0867127617	 0.5689743521	-1.0475451135	 0.120001
H	 0.6292271704	 0.5928610736	-2.0560158056	 0.134909
H	 0.8192513476	 1.7731224154	-0.7524268732	 0.120177
H	 0.7081402958	-0.0381939638	 0.9622121809	 0.111939
H	-0.7631251652	 0.0035725015	-0.0185289037	 0.100882
H	-0.6249163276	-3.0593146045	-1.1251073023	 0.135607
H	-0.9762818582	-1.4471706027	-1.7523956735	 0.124418
H	 2.3101581003	-2.1065025177	-1.4424384816	 0.254518
H	 3.7177572413	-1.7924403281	-3.555701153	 0.123516
H	 3.6647487154	-3.5071716092	-3.0854332289	 0.12534
H	 2.5318017475	-2.8862664126	-4.3104474744	 0.168165
47.0497	63.0718	99.5271	115.7271	150.4373	212.8459	239.7004	319.3133	371.4624	428.2707	511.9004	547.186	635.1969	671.051	802.421	853.5503	874.193	1001.1955	1027.8258	1087.5503	1105.4488	1141.5461	1155.9797	1177.5255	1200.296	1259.7351	1282.5504	1331.5593	1368.6826	1401.2841	1417.3398	1439.3653	1468.1357	1487.3357	1489.9157	1495.5851	1500.5344	1509.0876	1568.7173	1786.3508	2995.6221	3025.5954	3026.9096	3039.4643	3072.7939	3074.9624	3076.5533	3109.9322	3119.2517	3147.2465	3630.9087
CCOCC(=O)NC	CCOCC(=O)NC	
InChI=1S/C5H11NO2/c1-3-8-4-5(7)6-2/h3-4H2,1-2H3,(H,6,7)	InChI=1S/C5H11NO2/c1-3-8-4-5(7)6-2/h3-4H2,1-2H3,(H,6,7)
