18
gdb 37958	3.09632	1.82448	1.4394	1.0358	76.47	-0.2369	-0.0194	0.2174	927.7506	0.150161	-401.856324	-401.849525	-401.848581	-401.887132	28.049	
C	-0.1060526453	 1.3992081869	 0.0569213086	-0.215668
N	 1.3973628261	 1.6179315202	-0.0739942526	-0.167468
C	 2.1974507072	 0.4747662573	 0.532029257	-0.018544
C	 1.8110851409	-0.3976330658	 1.7320844108	-0.089778
O	 1.6899993931	-1.7934757096	 1.4508868925	-0.276142
C	 0.7797633415	-2.2191778494	 0.406909517	-0.091584
C	-0.3011226333	-1.191784993	 0.2107492053	-0.193961
C	 0.0831150279	-0.0449259977	-0.3411039017	 0.199262
C	 1.5072529606	 0.2791665543	-0.7515334688	-0.120812
H	-0.5414722238	 1.5976904193	 1.0424217286	 0.113036
H	-0.5765520657	 2.0496958697	-0.6860821986	 0.125115
H	 3.2479569448	 0.7473117585	 0.4806530049	 0.105871
H	 2.6093407983	-0.3536571892	 2.4779552206	 0.112789
H	 0.9054610195	-0.0100962301	 2.2136765073	 0.102488
H	 1.3452585093	-2.3706020279	-0.5216410321	 0.106872
H	 0.4010238027	-3.1918289975	 0.7323975175	 0.108657
H	-1.2188717221	-1.2611722474	 0.7890349595	 0.099394
H	 1.9763713983	 0.1454837415	-1.7205353259	 0.100473
157.5599	255.8062	273.0029	331.7715	423.7281	433.8566	472.8896	609.3867	686.7993	708.209	757.033	777.164	823.2873	881.5056	890.294	923.1587	946.0331	976.4622	1008.3599	1042.0085	1060.7091	1067.9768	1071.4975	1109.5169	1141.7881	1157.4844	1227.4175	1253.1588	1272.8863	1288.2406	1294.5207	1344.0469	1381.6635	1394.9562	1401.0141	1490.8081	1504.715	1509.1671	1735.8074	3015.2308	3028.9401	3041.0561	3085.7096	3088.9447	3092.4827	3148.3687	3161.4599	3164.9924
C1N2C3COCC=C1C23	C1N2[C@H]3COC[CH][C]1[C@@H]23	
InChI=1S/C7H9NO/c1-2-9-4-6-7-5(1)3-8(6)7/h1,6-7H,2-4H2	InChI=1S/C7H9NO/c1-2-9-4-6-7-5(1)3-8(6)7/h1,6-7H,2-4H2/t6-,7+,8?/m0/s1
