21
gdb 106113	2.57606	1.40904	1.16655	1.9109	81.75	-0.2226	0.0818	0.3044	1182.708	0.181875	-387.030776	-387.022093	-387.021148	-387.064108	33.481	
C	 0.2269960975	 1.6055360164	-0.2703605611	-0.371437
C	-0.0212332726	 0.10701785	-0.0502159132	-0.341903
C	 0.6231183549	-0.4217366491	 1.1922247824	 0.323146
C	 2.0297703873	-0.7002812209	 1.601286903	 0.017508
O	 1.9909378137	 0.054680576	 2.8125897924	-0.296381
C	 0.5437386134	-0.0727304373	 2.739721528	 0.008017
C	 0.2867063559	-1.5747076424	 3.0468169218	 0.012128
C	-1.1843808108	-1.968951836	 3.0869048381	-0.41157
C	 0.9765283843	-1.8212747773	 1.7020362058	-0.18662
H	 1.297544696	 1.8183522874	-0.3489742407	 0.124145
H	-0.2586091123	 1.9532030291	-1.1872682365	 0.111317
H	-0.1677367284	 2.1961522347	 0.5627427341	 0.120058
H	-1.1017723731	-0.0875819607	-0.0211739512	 0.102925
H	 0.3618556855	-0.4628753069	-0.9070914218	 0.103754
H	 2.9574842805	-0.7638989259	 1.0468417976	 0.103315
H	 0.0067104998	 0.7345694937	 3.2367583122	 0.079776
H	 0.8130125195	-1.9314978777	 3.9402425291	 0.070943
H	-1.7264891354	-1.5809453688	 2.21753088	 0.115488
H	-1.3013870067	-3.0576289169	 3.0899671247	 0.11801
H	-1.6693458974	-1.5808623358	 3.9896021761	 0.114103
H	 1.0470755885	-2.7413527717	 1.1333011193	 0.083277
77.481	121.2555	169.4394	219.0969	231.8779	276.2989	325.4967	392.8557	497.7286	564.4307	598.1013	741.5015	769.7145	789.8021	826.4954	874.5983	890.9559	916.3362	934.6756	966.4189	983.2449	1017.7722	1026.3977	1026.7714	1077.6962	1092.4645	1104.9268	1123.5099	1156.0713	1179.1631	1209.8582	1224.25	1275.5964	1293.2769	1305.1532	1356.9698	1371.1843	1409.8295	1411.3779	1458.9165	1477.36	1493.6931	1496.9935	1500.5509	1506.0921	3010.6778	3027.1242	3035.0618	3037.0653	3041.6797	3092.9794	3098.1231	3105.9605	3111.1549	3126.5408	3182.2715	3201.6777
CCC12C3OC1C(C)C23	CC[C@@]12[C@H]3O[C@@H]1[C@@H](C)[C@@H]23	
InChI=1S/C8H12O/c1-3-8-5-4(2)6(8)9-7(5)8/h4-7H,3H2,1-2H3	InChI=1S/C8H12O/c1-3-8-5-4(2)6(8)9-7(5)8/h4-7H,3H2,1-2H3/t4-,5+,6+,7-,8-/m0/s1
