20
gdb 38160	2.41126	2.14536	1.43489	1.7889	83.71	-0.236	0.0135	0.2496	963.1669	0.174289	-365.960245	-365.953325	-365.952381	-365.991003	29.696	
C	-0.0111070316	 1.5454154403	-0.0672964183	-0.257731
C	 1.523137346	 1.3355865689	 0.0411495861	 0.000559
C	 1.2145733205	 0.0320463093	 0.8694101303	-0.312757
C	-0.0685890173	 0.0278877621	 0.027778896	 0.343592
N	-1.2289015959	-0.7784191268	-0.3221600361	-0.452894
C	-0.019273956	-0.8081204754	-1.1890300889	-0.076649
C	 0.2029431305	-0.11994295	-2.4844669689	-0.109564
C	 1.2410572372	 0.7242873401	-2.5375707619	-0.036551
C	 2.149620661	 1.1279282994	-1.3745515412	-0.262151
H	-0.4228886093	 2.0115723423	 0.833439609	 0.090993
H	-0.4115070472	 2.032340058	-0.9560830506	 0.104392
H	 2.0962585391	 2.0942319352	 0.5788557995	 0.066376
H	 1.8897003683	-0.8235955583	 0.7769374723	 0.091636
H	 1.0698840522	 0.2793256773	 1.9265507459	 0.0949
H	-1.2817053231	-1.6495388401	 0.2013352278	 0.229204
H	 0.5808589616	-1.7147081049	-1.0807758768	 0.090091
H	-0.3859342702	-0.3471749947	-3.3690880964	 0.090752
H	 1.4966637178	 1.1802535515	-3.4921632139	 0.087377
H	 2.6183166005	 2.0776506063	-1.6567970609	 0.106703
H	 2.9827499058	 0.4125238796	-1.301691923	 0.11172
155.9232	299.1764	339.7081	359.2983	392.697	412.5897	484.6229	520.5929	595.625	719.2543	726.5052	775.8569	824.0078	856.8058	873.1833	875.088	928.901	943.0055	972.0097	979.4281	992.9246	1008.5682	1040.5503	1077.7543	1100.2058	1133.2777	1145.7784	1165.4695	1196.6799	1207.1104	1229.1095	1240.5729	1258.0991	1293.2141	1315.8925	1351.8862	1375.409	1401.2607	1470.5612	1479.1305	1482.1886	1512.3413	1677.033	2996.8367	3038.0475	3049.2327	3056.7094	3062.4641	3080.9869	3096.9679	3135.122	3138.7909	3167.2278	3492.3349
C1C2CC11NC1C=CC2	C1[C@H]2C[C@]31N[C@H]3C=CC2	
InChI=1S/C8H11N/c1-2-6-4-8(5-6)7(3-1)9-8/h1,3,6-7,9H,2,4-5H2	InChI=1S/C8H11N/c1-2-6-4-8(5-6)7(3-1)9-8/h1,3,6-7,9H,2,4-5H2/t6-,7-,8-/m0/s1
