17
gdb 95196	2.14435	1.86416	1.38777	2.1	68.16	-0.2412	-0.0413	0.1999	986.1065	0.136316	-458.963326	-458.955343	-458.954399	-458.995905	30.203	
O	 0.0359541349	 1.3736985403	-0.0522784193	-0.425938
C	-0.0192901579	-0.0421954432	 0.0477700525	 0.029077
C	-1.4932694763	-0.451387161	 0.0818012687	-0.238561
C	-2.2486040378	-0.0567991201	-1.2005360045	-0.226136
C	-1.4897915016	-0.3774688943	-2.4786073119	 0.037726
O	-0.5206327317	 0.5769225157	-2.8903350928	-0.230331
C	-0.0393417339	-0.7009253955	-2.4568167106	-0.053547
C	 0.6740649442	-0.7364697365	-1.1368649274	 0.357023
O	 1.7185199699	-1.3347912231	-1.005322199	-0.317756
H	 0.9564064066	 1.6379110017	-0.1523626228	 0.295135
H	 0.4948826776	-0.3967371591	 0.952380412	 0.087131
H	-1.5376106969	-1.5385021586	 0.2209782177	 0.111757
H	-1.9679402632	 0.0043251091	 0.9565881143	 0.116833
H	-3.2181891141	-0.5643858957	-1.2216040564	 0.105068
H	-2.4470400633	 1.0191849437	-1.1983735551	 0.140968
H	-2.0687964791	-0.79329634	-3.3035258099	 0.103854
H	 0.4091027826	-1.3226666232	-3.2298217955	 0.107696
78.6091	152.3907	184.8464	271.1334	294.3743	337.825	387.3022	443.2272	483.5372	541.3457	646.0783	733.6524	781.1439	830.9691	873.133	878.7975	943.0734	963.1605	1020.0247	1037.5028	1072.4096	1104.1582	1140.4487	1185.7971	1216.6233	1265.6796	1278.6027	1283.6751	1345.1644	1361.4896	1369.6563	1384.8141	1410.2356	1434.9073	1472.1852	1482.6215	1803.6607	3005.7392	3038.182	3053.2042	3082.3226	3098.863	3109.715	3136.0005	3817.645
OC1CCC2OC2C1=O	O[C@H]1CC[C@H]2O[C@H]2C1=O	
InChI=1S/C6H8O3/c7-3-1-2-4-6(9-4)5(3)8/h3-4,6-7H,1-2H2	InChI=1S/C6H8O3/c7-3-1-2-4-6(9-4)5(3)8/h3-4,6-7H,1-2H2/t3-,4+,6+/m0/s1
