21
gdb 82972	2.52555	1.88406	1.54242	1.5202	80.64	-0.2355	0.077	0.3125	979.6743	0.184996	-387.075514	-387.068025	-387.067081	-387.107316	30.332	
C	-0.2596099649	 1.5840581834	 0.0376208989	-0.409775
C	 0.031227439	 0.0938409895	-0.0222871516	 0.017893
C	 0.7218564428	-0.5457316725	-1.2595255352	-0.053262
C	 1.9898954292	 0.1799332621	-1.7921805202	-0.246097
C	 2.88965827	-0.5958919087	-0.7795279986	-0.035674
C	 3.3444803016	 0.176732647	 0.4514055684	-0.084712
O	 2.1730597995	 0.4240881952	 1.2280308479	-0.270785
C	 1.1477270306	-0.5061856022	 0.8932766841	 0.086457
C	 1.6388488257	-1.3786602148	-0.2949080186	-0.06909
H	 0.6608602082	 2.1703055382	-0.0177753588	 0.12538
H	-0.9154513584	 1.8896297578	-0.7852613827	 0.107215
H	-0.7565229173	 1.8482363937	 0.9774960799	 0.114034
H	-0.8881251319	-0.4737397241	 0.1667507346	 0.068041
H	 0.0699261654	-0.990878378	-2.0121580658	 0.060741
H	 2.2112717109	-0.091300897	-2.8272558986	 0.100531
H	 2.0043553187	 1.2712596617	-1.7166511994	 0.098196
H	 3.6964872985	-1.1740808525	-1.2332276778	 0.07062
H	 4.0696159493	-0.4132400348	 1.0344311981	 0.087849
H	 3.8051591616	 1.1425933911	 0.2134575118	 0.102512
H	 0.8065597492	-1.0039690458	 1.8061553211	 0.069282
H	 1.6485479823	-2.4634100291	-0.2052072575	 0.060645
96.683	170.2367	212.2814	239.3032	342.7365	409.9278	538.0736	589.618	621.6325	713.3346	752.4584	795.4188	819.6223	867.34	875.6235	897.1227	923.7086	944.549	962.6416	979.5329	1010.7728	1039.9386	1076.4954	1104.2939	1126.853	1137.5862	1149.5197	1163.642	1178.7989	1208.4721	1225.2397	1243.0591	1254.3702	1281.6968	1293.3772	1310.0172	1334.7	1343.7804	1362.134	1390.7154	1406.628	1478.5925	1486.8562	1501.461	1516.1462	2975.1207	3025.6407	3033.3224	3053.2449	3053.5667	3055.9285	3089.0247	3092.0804	3092.98	3107.9982	3120.2209	3127.5991
CC1C2CC3COC1C23	C[C@H]1[C@H]2C[C@H]3CO[C@@H]1[C@@H]23	
InChI=1S/C8H12O/c1-4-6-2-5-3-9-8(4)7(5)6/h4-8H,2-3H2,1H3	InChI=1S/C8H12O/c1-4-6-2-5-3-9-8(4)7(5)6/h4-8H,2-3H2,1H3/t4-,5-,6+,7+,8-/m0/s1
