17
gdb 45867	1.95951	1.7342	1.3215	2.5531	78.81	-0.2396	-0.0226	0.217	1054.1384	0.135449	-384.687158	-384.678846	-384.677901	-384.720255	31.466	
O	 0.0236835493	-0.0251566459	 0.0423452903	-0.310345
C	-0.0207026883	 1.1782117831	 0.0104793019	 0.402481
C	-1.3190703929	 1.9665362018	-0.0397789424	-0.357371
C	-1.2277808539	 3.1737193951	-0.9394648545	-0.043778
C	-0.0961889999	 3.59350675	-1.5014782169	-0.050946
C	 1.2383282157	 2.9284502641	-1.2930559303	-0.27833
C	 1.2596119921	 2.0392888965	-0.0182690162	-0.257781
C	 1.3456964168	 2.8368987486	 1.2005063322	 0.332575
C	 1.4045925468	 3.4828061139	 2.2128898571	-0.48545
H	-2.11643672	 1.2849609594	-0.3536077367	 0.133445
H	-1.5646933839	 2.2794451057	 0.9859834693	 0.147907
H	-2.1575784904	 3.7037815739	-1.1280029947	 0.097022
H	-0.1111325379	 4.4604526358	-2.1564900317	 0.09514
H	 1.4889189456	 2.3042230746	-2.1618709614	 0.124903
H	 2.033135705	 3.677938793	-1.2165192998	 0.124152
H	 2.1035417019	 1.3438606559	-0.0607251146	 0.123928
H	 1.4669722239	 4.0527028546	 3.1068735585	 0.202449
82.3992	100.0391	134.2443	210.0712	344.9688	383.9301	427.3205	452.6555	533.088	578.0812	598.5954	631.2939	637.5534	686.8047	726.4763	856.8795	894.6122	937.4817	941.5461	976.1434	1002.7716	1039.6933	1057.8331	1121.6432	1185.4994	1215.9979	1236.1428	1252.7553	1317.7454	1333.8002	1367.601	1411.2613	1442.5104	1476.9091	1729.0742	1831.5501	2231.4501	3010.3259	3015.5237	3065.7881	3067.2237	3076.74	3152.9795	3175.4572	3502.878
O=C1CC=CCC1C#C	O=C1CC=CC[C@H]1C#C	
InChI=1S/C8H8O/c1-2-7-5-3-4-6-8(7)9/h1,3-4,7H,5-6H2	InChI=1S/C8H8O/c1-2-7-5-3-4-6-8(7)9/h1,3-4,7H,5-6H2/t7-/m1/s1
