21
gdb 101496	2.70969	0.88303	0.7567	2.5236	85.29	-0.2458	-0.06	0.1858	1585.7901	0.180111	-420.435085	-420.424375	-420.423431	-420.471231	38.623	
C	 0.7501863946	 1.6607501118	 0.7046659658	-0.386328
C	 0.4115650093	 0.2382441064	 0.2559732218	-0.160273
C	-1.0923732002	 0.012691912	 0.0418123456	 0.043208
C	-1.3781713405	-1.3965956048	-0.5053148603	-0.393395
N	-1.7847573608	 0.1965687128	 1.3113884812	-0.262446
C	-3.0151611973	 0.5507013324	 1.3221099609	 0.260727
N	-3.8833927221	 0.7820638597	 0.290006149	-0.553932
C	-3.6310555221	 0.7289714092	 2.6784257384	 0.141543
O	-4.7556641132	 1.1370399831	 2.8447974594	-0.270555
H	 1.824757747	 1.7782729884	 0.8744980838	 0.109898
H	 0.4511458632	 2.3971778419	-0.0507337999	 0.104076
H	 0.2288050941	 1.9031500337	 1.6349892149	 0.129241
H	 0.9377490382	 0.0035008937	-0.6775745691	 0.086083
H	 0.7570849351	-0.4813732617	 1.0081178548	 0.102588
H	-1.4339546156	 0.75158784	-0.708277843	 0.048644
H	-2.4479318578	-1.5468187193	-0.6772964056	 0.119554
H	-0.850503198	-1.5559303115	-1.4509578839	 0.113554
H	-1.0411840094	-2.1518696326	 0.2110657519	 0.128447
H	-3.5306458513	 0.9521757599	-0.6361839362	 0.262088
H	-4.7408118442	 1.2473215715	 0.5509489766	 0.26981
H	-2.9448213787	 0.4663519836	 3.5046797838	 0.107468
50.1089	75.5125	121.3991	152.9355	199.4933	225.4618	237.8657	253.4513	312.0736	368.4539	378.0301	421.5492	462.0446	512.8613	532.8417	652.9705	701.2713	780.7578	835.4973	902.0053	942.0724	983.1385	1007.3903	1027.3832	1035.0511	1112.6626	1131.7768	1156.7164	1198.2608	1294.1615	1310.4753	1354.3676	1367.5003	1372.9785	1398.679	1404.6258	1408.3268	1475.1495	1490.5399	1497.9715	1502.1275	1509.1748	1605.5114	1721.858	1805.3699	2906.2748	2977.2429	3025.2703	3030.754	3038.1434	3064.4328	3096.7954	3111.0828	3115.2892	3117.0427	3577.7393	3709.5029
CCC(C)N=C(N)C=O	CC[C@@H](C)N=C(N)C=O	
InChI=1S/C6H12N2O/c1-3-5(2)8-6(7)4-9/h4-5H,3H2,1-2H3,(H2,7,8)	InChI=1S/C6H12N2O/c1-3-5(2)8-6(7)4-9/h4-5H,3H2,1-2H3,(H2,7,8)/t5-/m1/s1
