20
gdb 116968	12.57214	0.39541	0.38794	4.4625	91.17	-0.2589	0.0261	0.2851	2747.9735	0.169196	-366.015125	-366.004259	-366.003314	-366.054389	36.732	
C	-0.003529772	 1.5833463883	 0.0103008825	-0.381951
C	 0.0131428103	 0.0537871198	 0.0020393412	-0.154305
C	-1.4078480863	-0.5471698448	 0.0130143001	-0.336821
C	-1.4143765849	-2.0058189711	 0.0053135701	 0.082873
C	-1.3769303928	-3.209815728	-0.0016179667	 0.061964
C	-1.3799874333	-4.666562612	-0.0094578723	-0.351569
C	-2.8236780328	-5.2346874332	 0.0005231254	-0.323571
C	-2.8410924328	-6.6953025472	-0.0071419856	 0.255109
N	-2.8330671733	-7.8508003144	-0.0133585305	-0.302449
H	 1.0125872453	 1.9885185342	 0.0023307012	 0.117299
H	-0.5271807346	 1.9802609479	-0.8665446796	 0.11703
H	-0.5095800389	 1.9709026439	 0.9015489844	 0.11703
H	 0.5453428758	-0.3137566252	-0.8822955345	 0.110474
H	 0.5628157938	-0.323036168	 0.8716571153	 0.110475
H	-1.9483990287	-0.1821336138	 0.8968287303	 0.126894
H	-1.9658704392	-0.1728304525	-0.8559263354	 0.126898
H	-0.8550884599	-5.0471826296	-0.8933525971	 0.149289
H	-0.8392534833	-5.05664406	 0.8606610461	 0.149292
H	-3.3566101308	-4.8756262582	 0.8866824172	 0.163021
H	-3.3724836216	-4.866200436	-0.871972132	 0.163017
7.0126	53.606	53.7141	89.7035	136.6082	184.8071	229.0674	241.4339	309.6547	383.2277	409.0843	463.1109	491.3577	542.0751	743.4685	766.8438	801.2323	872.9886	895.673	951.3375	1006.7301	1035.4067	1042.2065	1107.9604	1122.6982	1166.1043	1198.3816	1259.0462	1284.8266	1306.8642	1306.9033	1322.0528	1369.6135	1381.3121	1413.4739	1468.1603	1474.2423	1482.672	1491.8947	1499.0527	1508.8759	2363.0917	2369.2411	3009.7477	3030.2247	3034.2461	3036.6844	3042.0444	3059.3084	3065.2163	3074.0686	3100.8926	3102.0374	3107.0495
CCCC#CCCC#N	CCCC#CCCC#N	
InChI=1S/C8H11N/c1-2-3-4-5-6-7-8-9/h2-3,6-7H2,1H3	InChI=1S/C8H11N/c1-2-3-4-5-6-7-8-9/h2-3,6-7H2,1H3
