18
gdb 30144	3.82697	1.06819	1.02813	1.1334	78.65	-0.216	0.0125	0.2285	1221.4211	0.148511	-401.937775	-401.929729	-401.928785	-401.971005	30.367	
C	-0.2533205291	 1.5179558669	-0.1811749428	-0.312296
N	-0.1418675845	 0.0840640992	 0.0430182961	-0.084576
C	 1.1320867758	-0.5501463624	-0.2543034109	-0.258544
C	 0.6854077769	-0.410690654	 1.1637610745	-0.118632
C	 1.3764341072	 0.4751676113	 2.1285742321	 0.263769
C	 1.0898827432	 0.544019553	 3.4604203393	-0.101564
O	 1.896187748	 1.4353334102	 4.0916899259	-0.141252
C	 2.7210317714	 1.9545100865	 3.1457844438	 0.00371
C	 2.456875778	 1.4093464946	 1.9317327448	-0.300354
H	 0.6745357536	 2.0844477518	-0.0131231854	 0.104984
H	-0.5715372372	 1.6814759047	-1.2157821666	 0.12184
H	-1.0233171711	 1.9268078012	 0.4805511396	 0.124523
H	 1.0869156951	-1.5157338303	-0.7523426263	 0.114149
H	 1.9565107225	 0.0841427661	-0.578808064	 0.105426
H	 0.2377812326	-1.2839490303	 1.6342187839	 0.088737
H	 0.3730436286	 0.0339753093	 4.0830854364	 0.138474
H	 3.4323847962	 2.6850463388	 3.4937568519	 0.138134
H	 2.975610443	 1.6265624535	 1.0117673479	 0.113471
48.3258	123.5943	174.3334	207.7974	289.7419	356.3685	431.5656	482.6669	621.357	627.1191	695.9704	733.5656	757.2378	799.6822	834.4806	867.3539	891.948	957.577	995.4531	1033.2293	1060.401	1090.1182	1113.9336	1128.9484	1135.9049	1166.3889	1205.0259	1207.7867	1253.1756	1287.3787	1334.9929	1386.3106	1420.9267	1450.5515	1490.3753	1496.3254	1509.6428	1536.6649	1623.4198	2993.346	3071.4576	3086.8819	3103.5326	3119.1097	3169.7664	3257.6354	3272.9464	3286.5288
CN1CC1C1=COC=C1	CN1C[C@H]1c1cocc1	
InChI=1S/C7H9NO/c1-8-4-7(8)6-2-3-9-5-6/h2-3,5,7H,4H2,1H3	InChI=1S/C7H9NO/c1-8-4-7(8)6-2-3-9-5-6/h2-3,5,7H,4H2,1H3/t7-,8?/m0/s1
