22
gdb 123093	6.79814	0.46765	0.44362	2.4794	80.58	-0.2635	0.06	0.3235	2464.5578	0.192712	-441.544129	-441.532984	-441.53204	-441.582272	38.641	
C	-0.0490058326	 1.5150190606	 0.0944028523	-0.380539
C	 0.0026505277	-0.0122942814	 0.0046604625	-0.164768
C	 0.7158399839	-0.5169306871	-1.2545172718	-0.162499
C	 0.7681506725	-2.0456528787	-1.3456766884	-0.204536
C	 1.4794664867	-2.5228248735	-2.6013453845	-0.05465
O	 1.472555364	-3.9601047314	-2.5884292778	-0.261922
C	 2.071832079	-4.548040445	-3.651751416	 0.4906
N	 1.9544841795	-5.9083051259	-3.5576196681	-0.563327
O	 2.6018944352	-3.95474602	-4.5617924286	-0.39776
H	 0.9585994143	 1.9453272557	 0.1075909646	 0.114468
H	-0.5791113653	 1.944417748	-0.7630264922	 0.114719
H	-0.563316168	 1.8447896907	 1.0024278557	 0.112121
H	 0.5081446381	-0.415851094	 0.8918936189	 0.095557
H	-1.0178488191	-0.4167035869	 0.0278289015	 0.096064
H	 0.2105763402	-0.1136222295	-2.1430214847	 0.097209
H	 1.737343218	-0.1126926279	-1.2786948151	 0.096639
H	 1.2813373004	-2.4562931125	-0.4672375872	 0.102587
H	-0.2486268993	-2.457259927	-1.3340344925	 0.104644
H	 0.9793186694	-2.1688971901	-3.5092224671	 0.118825
H	 2.5149152616	-2.1676512422	-2.6401362678	 0.117376
H	 1.7089530657	-6.3104005629	-2.6689280501	 0.262291
H	 2.5465372081	-6.4442763589	-4.1683523336	 0.266901
30.1645	51.4686	78.4102	103.4891	126.149	183.3434	201.7492	246.4917	260.4774	352.7042	360.5688	455.1753	491.6147	536.3259	672.6634	736.6624	767.6509	786.3188	855.1483	892.6548	935.089	983.6233	1024.9305	1056.1256	1068.6111	1099.2415	1118.2413	1146.5556	1195.2542	1241.8868	1271.5857	1294.9358	1317.2467	1333.6939	1340.4096	1362.3931	1401.3667	1413.7154	1432.1947	1485.2906	1489.5566	1499.893	1500.3922	1511.7906	1523.7514	1612.0822	1833.0321	3004.7085	3015.5562	3027.2116	3028.983	3029.3644	3042.9669	3049.4134	3064.8498	3091.7029	3096.1095	3101.6655	3613.4498	3742.6945
CCCCCOC(N)=O	CCCCCOC(=O)N	
InChI=1S/C6H13NO2/c1-2-3-4-5-9-6(7)8/h2-5H2,1H3,(H2,7,8)	InChI=1S/C6H13NO2/c1-2-3-4-5-9-6(7)8/h2-5H2,1H3,(H2,7,8)
