17
gdb 72365	2.47972	1.71511	1.44567	4.2056	72.01	-0.2647	-0.0096	0.2551	977.3617	0.13672	-421.871487	-421.863861	-421.862917	-421.903507	29.281	
C	 0.0729497527	 1.5780480905	-0.0947333544	-0.477677
C	-0.0425057398	 0.0691568663	 0.0660590119	 0.099337
C	-1.4860963082	-0.4901004742	 0.0364793923	-0.334454
C	-1.5038717765	-1.502615985	 1.1569968579	-0.053061
C	-0.3538880813	-1.5672964277	 1.8308109257	-0.090323
C	 0.6618304676	-0.6304052129	 1.2585560289	 0.056327
O	 1.5981560988	-1.2970030591	 0.3157707029	-0.268407
C	 0.9704919653	-0.7363902496	-0.7644138397	 0.43731
O	 1.2286799001	-0.8868666736	-1.9164415493	-0.336759
H	 1.1092233762	 1.915794042	 0.0036320021	 0.130821
H	-0.2846101365	 1.8821733992	-1.0833626603	 0.141928
H	-0.5297409913	 2.0945461494	 0.6595539859	 0.124143
H	-2.2195080648	 0.3090474545	 0.2056650243	 0.116337
H	-1.738021764	-0.9374816483	-0.9321643396	 0.136139
H	-2.3806870622	-2.1055634962	 1.3685364684	 0.110804
H	-0.1451779203	-2.2217825862	 2.6682447979	 0.111103
H	 1.2377463543	-0.0336439991	 1.9680660251	 0.096433
105.2401	179.1379	209.6952	242.4251	282.9191	309.8299	445.5084	529.6544	639.3433	672.7848	720.678	742.5878	797.5198	822.4165	873.005	917.1023	938.9222	962.0133	980.8669	991.0879	1018.043	1104.5994	1118.7731	1134.9918	1175.9531	1204.3309	1244.3714	1284.3529	1318.1948	1353.315	1373.9192	1411.1382	1479.425	1491.5627	1494.9124	1674.855	1925.5245	3024.0325	3034.4299	3061.6769	3101.0546	3105.4205	3110.7634	3187.3452	3217.3142
CC12CC=CC1OC2=O	C[C@]12CC=C[C@H]1OC2=O	
InChI=1S/C7H8O2/c1-7-4-2-3-5(7)9-6(7)8/h2-3,5H,4H2,1H3	InChI=1S/C7H8O2/c1-7-4-2-3-5(7)9-6(7)8/h2-3,5H,4H2,1H3/t5-,7+/m1/s1
