16
gdb 11550	5.93697	1.00461	0.96577	2.4207	61.98	-0.2695	0.0122	0.2817	1227.1614	0.128604	-420.883948	-420.875335	-420.874391	-420.918719	29.064	
C	 0.0454341153	 1.2531682607	 0.3666465546	-0.240966
O	-0.1041980214	-0.1585084876	 0.1594880895	-0.229902
C	-1.3387860164	-0.5588001492	-0.1960339697	 0.456112
O	-2.2752183915	 0.1875656369	-0.3322753377	-0.35892
C	-1.38033228	-2.0583100943	-0.432061458	-0.364605
C	-2.7302601298	-2.6422325931	-0.0905516392	 0.114119
C	-2.8855216558	-4.0581734879	 0.2565978569	-0.185662
O	-2.9166720213	-3.0482713784	 1.2667369254	-0.231737
H	 1.0884058189	 1.4025367894	 0.645352777	 0.134527
H	-0.1905892115	 1.8039316251	-0.547324901	 0.140829
H	-0.6181083654	 1.5957696123	 1.1642551204	 0.14559
H	-1.168567109	-2.2185973011	-1.4980003282	 0.138795
H	-0.5889272689	-2.5510990262	 0.1367866086	 0.134961
H	-3.5779848004	-2.1094117068	-0.5179946106	 0.116139
H	-3.8319579712	-4.5617172138	 0.0652200328	 0.118212
H	-2.0110523217	-4.708185336	 0.2727363492	 0.112508
29.6729	66.6167	121.965	141.4164	189.2777	290.2478	346.7488	381.7008	452.5542	596.2277	718.4716	805.352	862.1639	894.0933	957.2407	972.6853	1024.0395	1095.7464	1121.4836	1158.8376	1168.1689	1179.1076	1193.6183	1214.7392	1251.7374	1299.1826	1343.3533	1442.1933	1450.2692	1473.8971	1482.1584	1497.0565	1532.6651	1820.8276	3031.9805	3053.8204	3081.4695	3113.2812	3129.44	3135.84	3161.4948	3167.848
COC(=O)CC1CO1	COC(=O)C[C@H]1CO1	
InChI=1S/C5H8O3/c1-7-5(6)2-4-3-8-4/h4H,2-3H2,1H3	InChI=1S/C5H8O3/c1-7-5(6)2-4-3-8-4/h4H,2-3H2,1H3/t4-/m0/s1
