16
gdb 83146	2.08764	1.87133	1.47722	2.9598	64.1	-0.2469	-0.0025	0.2444	958.3598	0.125096	-475.036831	-475.028753	-475.027809	-475.069154	30.694	
N	-0.0284893313	 1.4578176099	-0.1750953037	-0.585236
C	-0.0530674956	 0.0378304996	-0.036576482	 0.090878
C	-0.5175578984	-0.8092515606	-1.2139497633	 0.113933
O	 0.1423214845	-1.9340039203	-1.6960626104	-0.424128
C	-1.3396470319	-0.7945774746	 0.0340667219	-0.163292
C	-1.0373286546	-1.9235603241	 0.9997520902	-0.125298
O	 0.3857225107	-1.8802697641	 1.2517368355	-0.244741
C	 0.9163130268	-0.6736933255	 0.8612213427	 0.374679
O	 1.9996707913	-0.3078774516	 1.2128363272	-0.339274
H	-0.0608997699	 1.906135157	 0.7366963724	 0.238664
H	 0.848633167	 1.7436519429	-0.6019444715	 0.248694
H	-0.8908430769	-0.2105563577	-2.0370945628	 0.131691
H	 0.570261936	-2.3987950878	-0.9668853328	 0.30259
H	-2.3156257683	-0.3260695703	 0.0507724822	 0.115855
H	-1.5606355155	-1.8039444358	 1.9535741558	 0.131019
H	-1.2689694838	-2.9119534872	 0.5911565486	 0.133966
126.3515	180.0924	195.8689	221.8165	275.3367	292.0628	358.3542	450.0856	496.1025	553.5761	600.9914	704.6815	709.2502	802.7641	823.5302	866.4193	885.6405	931.6732	988.5616	1036.6136	1055.66	1075.7117	1091.051	1158.1626	1230.139	1242.6107	1272.4788	1290.0382	1327.4488	1367.7095	1404.1334	1470.5066	1520.0686	1666.0916	1878.0248	3049.3912	3093.1656	3187.694	3197.9504	3486.7984	3557.9181	3788.3819
NC12C(O)C1COC2=O	N[C@]12[C@@H](O)[C@H]1COC2=O	
InChI=1S/C5H7NO3/c6-5-2(3(5)7)1-9-4(5)8/h2-3,7H,1,6H2	InChI=1S/C5H7NO3/c6-5-2(3(5)7)1-9-4(5)8/h2-3,7H,1,6H2/t2-,3+,5+/m1/s1
