21
gdb 100740	2.11617	1.26307	1.00032	3.5793	75.67	-0.2564	-0.0192	0.2372	1314.1073	0.178072	-461.375564	-461.364529	-461.363585	-461.412036	38.92	
C	 0.031961752	 1.4859928782	 0.2009778895	-0.235972
O	 0.3037271724	 0.1193363269	-0.0099124296	-0.254292
C	 0.7082111762	-0.6061857159	 1.1440175811	 0.120761
C	-0.4000466914	-0.7516507879	 2.186407874	-0.406353
C	 1.1791499355	-1.9847646923	 0.6354848358	 0.019223
O	 0.1055410291	-2.8096642445	 0.2849714517	-0.436618
C	 2.1259657708	-1.8358010093	-0.5651057252	 0.39082
C	 3.3671936198	-0.9910792921	-0.4127094883	-0.485258
O	 1.8507215045	-2.4111712081	-1.5954474398	-0.322353
H	 0.8701340724	 1.9955732391	 0.7032257546	 0.099559
H	-0.1141344268	 1.9370694137	-0.7836261064	 0.131739
H	-0.8767620425	 1.648993245	 0.7960428697	 0.115317
H	 1.574730409	-0.0977733199	 1.6031852473	 0.059006
H	-0.0427659232	-1.3444087895	 3.0344013767	 0.117427
H	-0.7162470437	 0.220843652	 2.5724039233	 0.11214
H	-1.2562708289	-1.2632298695	 1.7432296003	 0.150665
H	 1.7582516698	-2.4499881364	 1.4528653107	 0.085752
H	 0.2303055612	-2.9893015728	-0.6621060379	 0.294565
H	 3.8514695128	-1.1562907973	 0.5544268486	 0.135098
H	 4.0624915608	-1.207867932	-1.2246593844	 0.146584
H	 3.0790800402	 0.0644014025	-0.4640982617	 0.162192
66.5122	77.6606	87.6961	133.3671	153.4031	194.8395	220.1	247.6366	292.6174	336.4391	361.7825	420.2151	430.141	485.3402	532.8725	613.7158	719.4308	777.7746	849.1329	934.4171	972.1494	993.5261	1025.5707	1083.8772	1123.8182	1141.4657	1178.1193	1182.555	1202.7534	1225.3716	1275.0589	1352.4983	1354.5237	1378.2181	1381.7519	1400.6289	1444.6177	1466.8414	1474.9765	1476.749	1482.1962	1492.2418	1502.388	1513.1891	1802.7972	2941.9412	2956.9797	2974.6846	3035.3372	3045.225	3050.3803	3111.7498	3112.1423	3114.6305	3146.8277	3151.7062	3660.0483
COC(C)C(O)C(C)=O	CO[C@@H](C)[C@@H](O)C(=O)C	
InChI=1S/C6H12O3/c1-4(7)6(8)5(2)9-3/h5-6,8H,1-3H3	InChI=1S/C6H12O3/c1-4(7)6(8)5(2)9-3/h5-6,8H,1-3H3/t5-,6-/m0/s1
