20
gdb 32977	3.15053	1.0125	0.82015	0.9079	82.82	-0.1955	0.0428	0.2383	1416.8297	0.171354	-403.179203	-403.16962	-403.168676	-403.214659	34.469	
C	 0.0302646519	 1.4164056652	 0.0912719045	-0.34524
N	 0.0351029053	-0.0312721693	 0.0507408078	-0.027536
C	-0.0160498744	-0.7808293512	-1.1010128319	-0.109241
C	-0.0600014587	-2.1097090245	-0.7547097073	-0.16168
C	-0.0396377574	-2.1687595893	 0.663802844	-0.232951
C	 0.0154454776	-0.8760326467	 1.1444613593	 0.277661
C	 0.1035419572	-0.3781819541	 2.5524715259	-0.338635
C	 1.5501315581	-0.159688149	 3.036192471	-0.053508
O	 1.6142044671	 0.3692822152	 4.3496412828	-0.414808
H	 0.8914536939	 1.8056075557	 0.6434246951	 0.141024
H	 0.0793563501	 1.7965877595	-0.9303622117	 0.140317
H	-0.8827260582	 1.8021489354	 0.5582536278	 0.139714
H	-0.0232796272	-0.2968063321	-2.0650509781	 0.109916
H	-0.1029096738	-2.9417158917	-1.4404977707	 0.091168
H	-0.0650208885	-3.0582895638	 1.2760747665	 0.085002
H	-0.4469978744	 0.560586228	 2.6862729645	 0.106756
H	-0.375719582	-1.1138829944	 3.2101587067	 0.101947
H	 2.1088476205	-1.1033117037	 2.9452090699	 0.096951
H	 2.0555372409	 0.5722371628	 2.397086379	 0.11125
H	 1.2501629622	-0.2891463321	 4.9500372848	 0.281894
53.1717	68.8642	95.8852	115.1173	196.9009	274.9776	300.5972	340.3818	361.8193	427.3837	618.5114	649.2462	686.2956	709.599	760.1988	774.999	792.3704	833.4274	904.0232	1002.5688	1019.3836	1045.6829	1071.9501	1075.8038	1113.5042	1142.6241	1148.7903	1205.8409	1265.6183	1295.2361	1316.1873	1339.2291	1388.4666	1398.5823	1415.8992	1450.9092	1471.3097	1479.3273	1483.6544	1509.5514	1512.6769	1529.5912	1592.4076	2993.6703	3025.5088	3032.2891	3059.0278	3080.6595	3087.9903	3136.7906	3234.2519	3247.0652	3265.5	3814.4943
CN1C=CC=C1CCO	Cn1cccc1CCO	
InChI=1S/C7H11NO/c1-8-5-2-3-7(8)4-6-9/h2-3,5,9H,4,6H2,1H3	InChI=1S/C7H11NO/c1-8-5-2-3-7(8)4-6-9/h2-3,5,9H,4,6H2,1H3
