15
gdb 9728	3.44947	1.72697	1.58211	2.9818	60.99	-0.2866	0.0112	0.2978	859.6673	0.118828	-399.809046	-399.80147	-399.800526	-399.84131	27.206	
C	-0.0699285062	 1.5891618839	 0.0566092228	-0.425842
C	 0.012307487	 0.0634209986	-0.0134466099	 0.214792
C	 0.8546898125	-0.4645457441	-1.2257947861	-0.154885
O	 2.0986655129	-0.7896698243	-0.6377273395	-0.225615
C	 1.7628670936	-1.2656162586	 0.6384341834	 0.010779
O	 0.7414106872	-0.410166895	 1.1212268563	-0.270085
C	-1.3394805238	-0.5328116776	-0.0213246648	 0.260989
N	-2.3991306766	-0.9927119788	-0.0474709721	-0.333192
H	 0.9420063755	 1.9972716737	-0.0054714529	 0.139433
H	-0.673267888	 1.9848664939	-0.7649557426	 0.136368
H	-0.5188685544	 1.8979648976	 1.003086867	 0.15009
H	 0.3802267684	-1.3467067315	-1.6756926865	 0.12438
H	 1.0129384474	 0.2974545509	-1.9903158701	 0.135646
H	 1.4000534784	-2.3070390434	 0.5909799226	 0.102834
H	 2.6320986563	-1.1890831953	 1.2953438625	 0.134307
52.9925	174.4171	184.2559	252.3617	278.7692	346.6502	386.9417	514.7285	566.5136	610.2066	735.1068	789.6557	905.1156	922.5107	964.1818	983.9809	1045.6032	1111.3632	1142.6231	1171.7976	1182.9005	1217.2764	1233.2566	1281.5426	1360.816	1403.7749	1426.5249	1480.3822	1490.3775	1510.3417	1540.5281	2355.7466	2957.8422	3019.7512	3050.6061	3111.2431	3124.2295	3132.2873	3140.2605
CC1(COCO1)C#N	C[C@]1(COCO1)C#N	
InChI=1S/C5H7NO2/c1-5(2-6)3-7-4-8-5/h3-4H2,1H3	InChI=1S/C5H7NO2/c1-5(2-6)3-7-4-8-5/h3-4H2,1H3/t5-/m1/s1
