19
gdb 18719	3.08524	2.2303	1.49636	1.2763	70.72	-0.2177	0.0784	0.2961	886.8608	0.16726	-365.032826	-365.025521	-365.024577	-365.064059	28.639	
C	-0.0139507439	 1.5533839541	-0.0181176907	-0.395552
C	 0.0274702578	 0.0282285849	-0.0229728295	 0.052201
C	 0.5792187327	-0.5416899478	-1.3354765541	-0.102358
O	 0.6946218607	-1.9495530068	-1.2503749775	-0.238881
C	 1.7094211403	-2.3264629778	-0.3355142541	-0.106844
C	 1.5628098628	-1.662651597	 1.0364082468	-0.026892
C	 2.1762003046	-0.3229094278	 1.2711274026	-0.252346
N	 0.7268789448	-0.4640787656	 1.175035373	-0.08819
H	 0.9879334598	 1.9788805898	-0.1416185728	 0.114402
H	-0.6420793797	 1.9273747087	-0.8329650039	 0.114958
H	-0.4216922967	 1.9180988765	 0.9284249578	 0.12946
H	-0.9965189578	-0.3558083013	 0.071910305	 0.08954
H	-0.1142285273	-0.330414797	-2.1552225103	 0.109511
H	 1.5523824393	-0.088018123	-1.5952374271	 0.080963
H	 1.6332642519	-3.4118507746	-0.2324540664	 0.113904
H	 2.698200289	-2.0993710184	-0.7689794311	 0.090991
H	 1.479509986	-2.3507983565	 1.8750849279	 0.093901
H	 2.5499825136	-0.0443640633	 2.2530997659	 0.113705
H	 2.7285949421	 0.113538723	 0.4403459783	 0.107524
113.1247	218.23	226.6569	291.5234	312.1656	397.2285	445.4613	486.5149	538.3519	694.3237	705.3207	812.4088	878.0596	912.8496	946.9934	950.5201	959.4229	1003.3272	1077.2865	1095.4572	1114.4887	1132.2097	1146.544	1159.3746	1171.983	1177.1363	1253.0593	1313.6303	1325.2929	1336.8787	1374.875	1384.2866	1399.4012	1408.4911	1419.9257	1487.9466	1492.9023	1497.9763	1500.2632	1515.3248	2947.974	2957.4775	3021.5455	3036.2776	3079.8526	3089.3111	3090.641	3103.25	3118.8741	3121.7082	3174.4072
CC1COCC2CN12	C[C@H]1COC[C@H]2CN12	
InChI=1S/C6H11NO/c1-5-3-8-4-6-2-7(5)6/h5-6H,2-4H2,1H3	InChI=1S/C6H11NO/c1-5-3-8-4-6-2-7(5)6/h5-6H,2-4H2,1H3/t5-,6+,7?/m0/s1
