16
gdb 99251	4.05009	0.82436	0.82068	2.2775	62.2	-0.2485	-0.0141	0.2343	1430.9294	0.121541	-512.201587	-512.191628	-512.190684	-512.238091	34.118	
N	-0.1190381508	 1.0290059307	 0.217785036	-0.563005
C	-0.3164659051	-0.3143345988	 0.3382989218	 0.516468
O	-0.2151472033	-0.9593698774	 1.3553919011	-0.405678
O	-0.5921997052	-0.8525700596	-0.8836738881	-0.241435
C	-0.8885198794	-2.2361332415	-0.8436299637	-0.183854
C	-2.2708598436	-2.5073079349	-0.2380144379	 0.387
O	-3.0990717996	-1.6452586018	-0.1182241952	-0.27916
C	-2.4862858809	-3.9522824106	 0.1899508004	-0.184587
O	-3.8477379619	-4.1786856266	 0.4363467589	-0.393415
H	-0.1167201453	 1.5480284441	 1.0794109133	 0.272125
H	-0.4799090599	 1.4894922239	-0.6011955683	 0.270207
H	-0.886568643	-2.5738841537	-1.8853905123	 0.138466
H	-0.1191207915	-2.7866369264	-0.2926571807	 0.138304
H	-2.0754353397	-4.6163318163	-0.5920304396	 0.101513
H	-1.8566296608	-4.0981114202	 1.0852944742	 0.131774
H	-3.9391427501	-5.0491876409	 0.8340812403	 0.295279
28.4139	69.2383	82.4056	102.2209	213.9374	218.0654	299.4495	324.1911	357.9424	413.2349	449.6552	482.2721	527.3979	657.3222	699.6729	783.6954	818.0004	874.8618	919.4213	1016.6555	1081.428	1119.7086	1149.1516	1161.7274	1231.4289	1260.7551	1301.23	1357.6626	1402.7118	1443.6795	1456.9122	1494.2763	1615.6076	1835.3058	1851.2199	2944.0933	2972.4386	3049.1979	3098.9224	3610.106	3736.4069	3838.2164
NC(=O)OCC(=O)CO	NC(=O)OCC(=O)CO	
InChI=1S/C4H7NO4/c5-4(8)9-2-3(7)1-6/h6H,1-2H2,(H2,5,8)	InChI=1S/C4H7NO4/c5-4(8)9-2-3(7)1-6/h6H,1-2H2,(H2,5,8)
