20
gdb 107210	3.8273	1.26664	1.13322	1.0938	78.2	-0.2341	0.0736	0.3077	1141.0211	0.172042	-403.103416	-403.095441	-403.094497	-403.135687	31.764	
C	 0.3467309174	 1.3248743858	-0.2153607932	-0.250315
O	-0.1492480386	 0.0513590542	 0.1520765939	-0.282108
C	 0.5190386687	-0.5213455338	 1.2331698066	 0.428655
C	 1.8726751537	-1.1366158381	 0.9934360289	-0.346275
C	 0.6706569124	-2.0220537084	 1.2812812467	-0.116371
C	 0.4447556698	-2.4543420721	 2.7126036678	-0.049861
N	 1.4360225078	-1.9266565185	 3.678011583	-0.33803
C	 0.1290807935	-1.2536968736	 3.5347472738	-0.0349
C	 0.1446911513	-0.0192503509	 2.6400650922	-0.297318
H	 1.4178817916	 1.2879295619	-0.4592252598	 0.108694
H	-0.210816168	 1.6420868567	-1.1000017294	 0.122956
H	 0.1982590688	 2.0693443509	 0.5802458826	 0.106965
H	 2.2168824631	-1.1298692616	-0.0354422947	 0.106517
H	 2.6401906872	-1.0630185125	 1.7540247303	 0.136332
H	 0.2753419388	-2.638263221	 0.483086465	 0.090598
H	-0.0066567386	-3.4212260207	 2.9054535194	 0.083727
H	 1.4281477901	-2.4994433032	 4.5181946578	 0.228629
H	-0.5639595332	-1.2894175306	 4.3694742043	 0.085523
H	 0.818850773	 0.7543938147	 3.0213732409	 0.107877
H	-0.8637078887	 0.405033321	 2.5838362139	 0.108706
106.6585	149.906	184.5133	273.0448	301.2504	369.2959	410.5671	413.9533	556.1246	632.2149	679.6946	706.9652	803.1893	820.1005	866.7209	873.7435	920.364	923.6503	951.9675	982.8714	1002.6067	1054.2652	1058.7825	1064.37	1076.5546	1107.7725	1133.6313	1168.434	1183.1179	1202.8602	1206.8458	1228.3512	1260.463	1272.4843	1314.5701	1368.1015	1381.8388	1415.3041	1462.3609	1474.0252	1485.7787	1491.0322	1508.724	2989.0849	3039.808	3045.0926	3088.654	3114.8779	3136.5441	3155.2934	3171.5173	3192.2706	3234.8208	3500.8403
COC12CC1C1NC1C2	CO[C@]12C[C@H]1[C@H]1N[C@H]1C2	
InChI=1S/C7H11NO/c1-9-7-2-4(7)6-5(3-7)8-6/h4-6,8H,2-3H2,1H3	InChI=1S/C7H11NO/c1-9-7-2-4(7)6-5(3-7)8-6/h4-6,8H,2-3H2,1H3/t4-,5-,6+,7-/m0/s1
