17
gdb 73756	2.53779	1.55291	1.04467	3.7076	81.52	-0.2379	-0.0448	0.1931	1132.7061	0.136866	-380.877509	-380.869482	-380.868538	-380.910083	30.203	
C	 0.0326266286	 1.5016883039	 0.0829025231	-0.511071
C	 0.0002106596	 0.0135342888	 0.0127408753	 0.194252
C	-0.0166959397	-0.7697164283	-1.0826005374	 0.144679
C	-0.0451038554	-0.3184564034	-2.4272864589	 0.190555
N	-0.073532654	 0.0363079406	-3.530312412	-0.348182
C	 0.0187019408	-2.217531146	-0.6996211946	-0.142575
C	 1.2358324992	-2.6418441859	 0.0468780805	-0.235757
N	 0.0196046995	-2.2669029832	 0.7776249531	-0.098279
C	-0.0117867636	-0.8676973579	 1.2461361755	-0.244358
H	 0.9508789988	 1.8483567341	 0.5730279452	 0.142545
H	-0.0194509734	 1.9552777848	-0.9092398688	 0.156484
H	-0.8034341714	 1.8790068918	 0.6847248128	 0.142007
H	-0.5956467165	-2.9307686755	-1.2407233972	 0.114824
H	 1.4933685753	-3.6944678647	 0.1203345705	 0.126522
H	 2.081041131	-1.9562825007	 0.0453438714	 0.116121
H	 0.834950433	-0.661507817	 1.9136038081	 0.12532
H	-0.9241249817	-0.6992698912	 1.8353166033	 0.126914
131.9953	140.6164	155.9662	175.5317	304.1284	355.1573	419.3146	451.0762	507.5363	564.4458	628.2691	686.4051	725.5028	814.0799	840.7624	924.9154	948.4348	988.8001	1026.6271	1063.9706	1088.855	1110.9288	1126.4261	1155.0822	1191.6157	1213.5182	1252.5105	1268.8204	1348.4834	1368.922	1414.1368	1477.6725	1478.9931	1480.6588	1499.0816	1686.1005	2334.3762	3007.6104	3024.6588	3044.4467	3072.2516	3099.6736	3128.2103	3157.9995	3192.6061
CC1=C(C#N)C2CN2C1	CC1=C(C#N)[C@H]2CN2C1	
InChI=1S/C7H8N2/c1-5-3-9-4-7(9)6(5)2-8/h7H,3-4H2,1H3	InChI=1S/C7H8N2/c1-5-3-9-4-7(9)6(5)2-8/h7H,3-4H2,1H3/t7-,9?/m1/s1
