18
gdb 100364	2.31146	1.28767	1.11221	2.0768	74.62	-0.2505	0.0211	0.2716	1180.4691	0.144084	-439.066154	-439.055617	-439.054673	-439.101577	37.48	
C	 0.0715872914	 1.5577505396	 0.0316109126	-0.424753
C	 0.0474834045	 0.0133227167	 0.0253123686	 0.057615
C	 0.8276654993	-0.518941586	 1.250784184	-0.090181
O	 0.7610298028	-1.9323240174	 1.2440838532	-0.427822
N	-1.3440945999	-0.4828320807	 0.0477771566	-0.285396
C	-2.2207958874	-0.2790355712	 1.0628854812	 0.16528
O	-2.0440588665	 0.4360645338	 2.0300917115	-0.339499
C	 0.6591427302	-0.4853814337	-1.2114160372	 0.335476
C	 1.1561342986	-0.8688774876	-2.2353580161	-0.463315
H	 1.1046186682	 1.9142845003	 0.0096339869	 0.124029
H	-0.4453604359	 1.9399469096	-0.8510075817	 0.128739
H	-0.4270654255	 1.9280856789	 0.9280143553	 0.158492
H	 1.8649103384	-0.1604212611	 1.1749049029	 0.094936
H	 0.3668212108	-0.0932144935	 2.148465364	 0.129637
H	 0.999875367	-2.247178691	 2.1199007167	 0.293584
H	-1.5641916443	-1.2119988609	-0.6117473776	 0.259404
H	-3.1617060532	-0.8423007621	 0.9005875834	 0.082283
H	 1.6052255615	-1.2167313838	-3.1328765342	 0.201491
65.0864	108.8152	129.4914	145.0131	174.8238	228.876	232.0487	239.194	279.7476	373.7224	391.5488	446.1343	508.0528	543.7631	618.9523	626.1461	671.2013	683.124	835.8662	895.5472	944.5039	1025.7033	1030.6181	1085.989	1115.3457	1177.1618	1193.1747	1224.6423	1289.2539	1303.9874	1396.9593	1430.5845	1447.0934	1480.12	1503.218	1514.387	1518.1653	1791.4092	2241.4394	2931.5176	2994.1954	3058.1789	3075.0257	3133.5957	3157.9907	3500.8359	3638.6836	3844.4566
CC(CO)(NC=O)C#C	C[C@@](CO)(NC=O)C#C	
InChI=1S/C6H9NO2/c1-3-6(2,4-8)7-5-9/h1,5,8H,4H2,2H3,(H,7,9)	InChI=1S/C6H9NO2/c1-3-6(2,4-8)7-5-9/h1,5,8H,4H2,2H3,(H,7,9)/t6-/m1/s1
