19
gdb 61947	5.54313	0.61709	0.58608	3.4921	83.49	-0.2423	0.0179	0.2602	1842.5793	0.156815	-382.030897	-382.020556	-382.019612	-382.067238	36.337	
C	-0.1045794016	 1.5512658105	-0.0206661395	-0.345134
N	-0.0277030067	 0.0949468413	 0.0486528532	-0.066465
C	 0.6852287588	-0.3892120012	 1.2286777994	-0.133174
C	 2.2056104186	-0.152961404	 1.1284217015	-0.368482
C	 2.9159476179	-0.7345920759	 2.2597235481	 0.294793
C	 3.4725559216	-1.2267790528	 3.2042756702	-0.434368
C	-1.3470118792	-0.516409351	-0.0532522735	-0.281348
C	-1.9678795543	-0.2717327681	-1.3614619205	 0.275139
N	-2.4710121505	-0.0776282035	-2.3828122589	-0.306467
H	 0.8987716601	 1.9805805058	-0.0479137232	 0.132145
H	-0.6157307568	 1.8492183563	-0.9394519579	 0.151958
H	-0.6459621117	 1.9899954697	 0.8381944468	 0.101208
H	 0.3058757744	 0.0647272919	 2.1625525808	 0.098555
H	 0.518846274	-1.4676451376	 1.3106080106	 0.11695
H	 2.5632280012	-0.5871822721	 0.1875215996	 0.145094
H	 2.4236292416	 0.9199385518	 1.0790959461	 0.135778
H	 3.9799034337	-1.6560245345	 4.0324224559	 0.198701
H	-1.2490102315	-1.5998889596	 0.0728678302	 0.155274
H	-2.0539958796	-0.1670463772	 0.7247326509	 0.129842
47.4822	52.3249	104.1313	121.839	162.0537	238.89	283.086	336.723	343.3985	376.7616	394.4294	419.1335	495.6143	611.0884	624.103	651.1519	783.5723	864.8969	936.4748	974.0815	998.3784	1042.066	1059.9869	1063.0338	1149.1029	1173.6911	1206.8436	1265.3095	1299.6882	1311.0551	1338.9725	1376.8451	1420.59	1464.2604	1471.2408	1479.2267	1495.5292	1502.2567	1507.2036	2241.4043	2366.3745	2916.4467	2937.8947	2942.8443	3036.5775	3063.5732	3069.1414	3083.3617	3091.1025	3132.0559	3506.7415
CN(CCC#C)CC#N	CN(CCC#C)CC#N	
InChI=1S/C7H10N2/c1-3-4-6-9(2)7-5-8/h1H,4,6-7H2,2H3	InChI=1S/C7H10N2/c1-3-4-6-9(2)7-5-8/h1H,4,6-7H2,2H3
