15
gdb 43044	2.58938	2.31063	1.68044	3.2079	67.83	-0.2229	-0.0311	0.1918	820.9186	0.114906	-420.607905	-420.601966	-420.601022	-420.638014	24.825	
O	-0.006658085	 0.0578177454	 0.0774041084	-0.327203
C	-0.0303345881	 1.2513254678	 0.0161270671	 0.476886
C	-1.2099980154	 2.2414141487	 0.0096871846	-0.063159
O	-0.8252383438	 2.963937201	 1.2248009812	-0.303368
C	 0.2411169671	 3.5005663133	 0.3923573742	 0.100521
C	-0.6610346758	 3.4362393198	-0.8645290329	-0.085382
C	 0.2538728647	 3.0900501013	-2.0101612737	-0.102707
C	 1.3353567541	 2.4753344644	-1.5120148369	-0.091485
C	 1.1398898839	 2.287217517	-0.0177697681	-0.223409
H	-2.2290609928	 1.8648979074	-0.0101445533	 0.103879
H	 0.709853192	 4.4060559905	 0.7769325519	 0.098083
H	-1.3868421112	 4.2390215668	-0.9846064379	 0.09198
H	 0.0484049142	 3.2971186759	-3.0521533894	 0.112237
H	 2.1636576345	 2.0556204639	-2.0680353918	 0.118789
H	 2.0075277715	 2.0402306567	 0.5890369067	 0.094338
160.777	309.7186	384.6782	479.0585	503.4727	585.0258	660.8098	720.9144	739.6829	778.8129	806.0705	850.1098	863.5811	876.9472	921.946	942.3824	949.3091	968.9915	994.088	1014.9987	1080.1963	1119.1245	1132.2798	1161.307	1189.1749	1228.1314	1241.0628	1264.8713	1293.1719	1317.6686	1357.9376	1633.7664	1887.8985	3123.6821	3133.5176	3153.1805	3168.7169	3208.6706	3232.107
O=C1C2OC3C2C=CC13	O=C1[C@H]2O[C@@H]3[C@H]2C=C[C@H]13	
InChI=1S/C7H6O2/c8-5-3-1-2-4-6(3)9-7(4)5/h1-4,6-7H	InChI=1S/C7H6O2/c8-5-3-1-2-4-6(3)9-7(4)5/h1-4,6-7H/t3-,4-,6+,7+/m1/s1
