17
gdb 48959	3.16943	1.65505	1.40987	3.5824	72.4	-0.2304	-0.0359	0.1945	943.8608	0.138224	-417.944625	-417.937784	-417.936839	-417.976082	27.244	
O	-0.1405593697	 0.0786579512	-0.2855391809	-0.236652
C	-0.0169649433	 1.2249232237	 0.0644528466	 0.046412
C	 1.256513446	 1.995530116	 0.012858958	 0.273732
N	 1.5410022949	 3.0679429678	 1.0057419686	-0.374287
C	 2.5783973395	 3.5011030429	 0.0021956101	-0.053482
C	 3.5958442749	 2.3621057829	 0.1917710359	-0.202143
C	 2.6293377237	 1.2856985658	-0.3558104938	-0.052962
N	 2.3968867804	 1.6942479276	-1.7738235026	-0.298655
C	 1.7256206405	 2.8575642842	-1.2034896854	-0.069975
H	-0.8865937184	 1.8073596308	 0.450629054	 0.067643
H	 0.7604325939	 3.7258134204	 0.9626306716	 0.216815
H	 2.9086501046	 4.5381620049	 0.031096016	 0.075581
H	 4.4995971045	 2.4403765588	-0.4191783476	 0.093478
H	 3.8620361639	 2.2499955522	 1.2439359542	 0.119994
H	 2.7998313402	 0.2296394611	-0.1594357043	 0.096281
H	 3.2525947789	 1.8941924193	-2.2921968782	 0.21203
H	 1.0854996257	 3.4885779102	-1.8217413722	 0.086188
83.6342	172.2071	213.4706	430.8842	448.0554	492.0862	523.5484	656.8739	694.8704	745.319	810.2135	829.9211	848.4173	897.7378	917.3681	937.1508	960.7558	992.1137	999.5729	1021.4798	1032.8352	1073.017	1088.9202	1131.5649	1141.3291	1171.118	1217.0474	1233.1379	1250.878	1267.642	1293.8922	1328.7355	1342.035	1367.6642	1429.1105	1479.3615	1819.2681	2853.6467	3063.8167	3110.0011	3130.8392	3134.8627	3151.3794	3438.2968	3447.0469
O=CC12NC3CC1NC23	O=C[C@@]12N[C@H]3C[C@@H]1N[C@@H]23	
InChI=1S/C6H8N2O/c9-2-6-4-1-3(8-6)5(6)7-4/h2-5,7-8H,1H2	InChI=1S/C6H8N2O/c9-2-6-4-1-3(8-6)5(6)7-4/h2-5,7-8H,1H2/t3-,4-,5+,6+/m0/s1
