17
gdb 7068	2.10081	1.86531	1.04548	3.3572	72.25	-0.2532	0.0281	0.2813	1120.299	0.139226	-363.830593	-363.82133	-363.820385	-363.86507	32.622	
C	 0.0774542893	 1.7599836751	 0.1089150079	-0.39671
C	-0.0412587812	 0.2504618059	-0.0585909937	 0.107947
C	 0.5628575353	-0.5113995614	 1.140669881	-0.343404
C	 0.6068540258	-1.9545586951	 0.9473502556	 0.285936
C	 0.6446061368	-3.1415172143	 0.7618961849	-0.429139
O	-1.4328086667	-0.0548732802	-0.1719248285	-0.19031
C	-1.8094170193	-1.0183122107	-1.0379119861	 0.133089
N	-3.024651482	-1.3482714561	-1.1187204325	-0.447329
H	 1.1273423416	 2.0587047079	 0.1799384888	 0.11999
H	-0.3746040916	 2.270884282	-0.7444743616	 0.132271
H	-0.4407994405	 2.0861967429	 1.0156191957	 0.135871
H	 0.4750182725	-0.0658669339	-0.9748354803	 0.093697
H	 1.5765527435	-0.1319917692	 1.3196282811	 0.132057
H	-0.0297411141	-0.2678445155	 2.0308053168	 0.146961
H	 0.6736198724	-4.1929660888	 0.6160514831	 0.200593
H	-0.9774593667	-1.4297197936	-1.6234646346	 0.091739
H	-3.1385076852	-2.069430475	-1.8278445477	 0.226742
60.1313	74.3998	129.6506	145.7988	209.9999	257.9334	307.152	343.8471	377.463	487.5948	538.2495	590.2128	623.087	649.5961	812.9076	861.1001	897.2283	922.2387	983.8585	1035.152	1065.6063	1113.0325	1136.8099	1148.7598	1244.0938	1298.8645	1305.3708	1373.4123	1380.4521	1412.5928	1429.8795	1456.2581	1485.6808	1498.3433	1742.2497	2239.3628	3015.7982	3029.47	3038.7433	3046.9995	3069.5252	3120.9471	3129.7749	3505.4663	3518.062
CC(CC#C)OC=N	C[C@@H](CC#C)O[CH][NH]	
InChI=1S/C6H9NO/c1-3-4-6(2)8-5-7/h1,5-7H,4H2,2H3	InChI=1S/C6H9NO/c1-3-4-6(2)8-5-7/h1,5-7H,4H2,2H3/t6-/m0/s1
