18
gdb 76430	3.04372	1.06427	0.96897	5.5025	72.45	-0.2546	0.0322	0.2868	1274.4413	0.14513	-439.079841	-439.069929	-439.068985	-439.114716	35.804	
C	-0.0599060301	 1.4423001659	-0.2238259062	-0.419427
C	 0.0482843998	-0.0478253382	 0.0060299274	-0.132169
C	 1.3963595104	-0.7568503081	 0.002905088	 0.001255
O	 2.5815768499	-0.0127970901	-0.0476749609	-0.426427
C	 0.6440544721	-0.5910853184	 1.2967119023	 0.402366
O	 1.1755102037	 0.3133840173	 2.2117413504	-0.467563
C	-0.0035414409	-1.7805966827	 1.985234137	-0.399686
C	 0.967449755	-2.6088313937	 2.7036398825	 0.271505
N	 1.7384596362	-3.2686152891	 3.2555212601	-0.308321
H	 0.7114135099	 1.9844555366	 0.3260022213	 0.130501
H	 0.028468315	 1.6898758505	-1.2877614049	 0.114008
H	-1.0294389176	 1.8138611485	 0.1214976056	 0.130724
H	-0.7599182692	-0.6361106197	-0.4225849742	 0.08834
H	 1.4661302689	-1.7456009257	-0.4483625645	 0.101593
H	 2.6038182863	 0.4934828187	-0.8662229092	 0.301719
H	 2.073231499	 0.5146267148	 1.911503626	 0.30287
H	-0.7540448071	-1.4182999923	 2.6971699036	 0.162139
H	-0.5263745611	-2.4066106842	 1.2547291158	 0.146573
59.4323	102.3084	129.5331	190.7668	214.8405	248.9369	266.6989	278.5486	347.3336	387.0892	410.7698	445.9827	543.8577	606.7292	636.0313	734.2904	839.9895	855.3195	916.2831	952.3512	999.1399	1023.4358	1065.8607	1099.7378	1140.8148	1164.259	1202.6892	1223.7322	1278.6295	1331.2444	1340.279	1366.5272	1390.8909	1422.1397	1450.4349	1463.3046	1494.6555	1505.5206	2365.5476	3037.3507	3047.087	3090.3736	3096.409	3110.929	3128.8227	3142.8612	3741.3846	3813.4784
CC1C(O)C1(O)CC#N	C[C@H]1[C@@H](O)[C@]1(O)CC#N	
InChI=1S/C6H9NO2/c1-4-5(8)6(4,9)2-3-7/h4-5,8-9H,2H2,1H3	InChI=1S/C6H9NO2/c1-4-5(8)6(4,9)2-3-7/h4-5,8-9H,2H2,1H3/t4-,5+,6-/m0/s1
