23
gdb 112624	3.53528	0.83901	0.79797	1.7171	82.75	-0.2419	0.0761	0.3179	1560.0944	0.203417	-425.405576	-425.395091	-425.394146	-425.441058	38.76	
C	 0.0739405707	 1.2611277694	 0.2477068757	-0.251673
O	-0.0793526241	-0.101665989	-0.0802426252	-0.28527
C	 0.5969265614	-0.5327894115	-1.2476072377	 0.435477
C	 0.0507965305	 0.1271721469	-2.5128542531	-0.44956
C	 2.1601103977	-0.5457851213	-1.1756990016	-0.314952
C	 2.1317381265	-2.0123946627	-1.6867976763	 0.052237
C	 3.0673769571	-3.0030705719	-1.0275240487	-0.096071
O	 2.7825953193	-4.2916114106	-1.5538341214	-0.422734
C	 0.6233136544	-2.07890761	-1.3260585918	-0.278381
H	 1.1329279435	 1.5548759445	 0.3067747461	 0.103792
H	-0.4292395891	 1.9299785685	-0.4649616319	 0.106119
H	-0.3804381595	 1.4033299734	 1.2316750761	 0.124182
H	 0.253311368	 1.2026540193	-2.5342357129	 0.113011
H	 0.5123592026	-0.310451274	-3.4033596368	 0.119354
H	-1.0314748493	-0.0244448717	-2.5782461634	 0.121514
H	 2.7089950777	 0.1901781524	-1.768862054	 0.092378
H	 2.4941052881	-0.4908928768	-0.1347113492	 0.099736
H	 2.2799003944	-2.059294909	-2.7700343793	 0.077807
H	 4.1140718478	-2.7136201874	-1.2221023684	 0.082023
H	 2.9177809216	-2.975933431	 0.0647784205	 0.080785
H	 3.3436094904	-4.9314515281	-1.1061508187	 0.286038
H	 0.4630021505	-2.5050917107	-0.332208243	 0.105803
H	-0.05446319	-2.5575824388	-2.035912975	 0.098386
64.8338	91.806	114.8947	187.6696	197.7626	235.2524	261.32	268.4417	307.1022	334.1019	396.4612	425.3497	461.4342	490.4567	625.0838	739.4859	835.2952	869.1723	909.2566	911.861	942.0466	950.4694	1026.7643	1053.6114	1075.643	1092.9731	1110.2949	1172.7994	1175.0672	1182.3532	1201.1425	1225.8662	1234.9235	1245.3972	1266.1826	1289.3111	1298.4179	1302.9734	1372.8603	1402.5814	1461.8255	1465.3597	1475.4527	1484.2764	1484.5688	1493.8735	1505.9833	1511.6282	1520.2203	2951.8085	2979.3304	2983.5269	3029.7637	3036.938	3047.8782	3062.019	3065.4651	3103.6512	3105.6913	3108.1852	3110.3699	3123.2566	3830.0966
COC1(C)CC(CO)C1	CO[C@@]1(C)C[C@@H](CO)C1	
InChI=1S/C7H14O2/c1-7(9-2)3-6(4-7)5-8/h6,8H,3-5H2,1-2H3	InChI=1S/C7H14O2/c1-7(9-2)3-6(4-7)5-8/h6,8H,3-5H2,1-2H3/t6-,7+
