23
gdb 81007	2.50306	1.48616	1.2053	1.5471	85.	-0.2381	0.0904	0.3285	1180.8655	0.205498	-388.290945	-388.281839	-388.280895	-388.323861	36.193	
C	-0.0897793112	 1.5710626141	-0.0005824599	-0.427858
C	-0.0726661154	 0.0502742594	 0.0190255644	-0.013711
C	 1.1299415528	-0.6073717122	-0.7008423271	 0.055188
O	 1.9439602748	-0.3466605872	 0.4840896965	-0.33877
C	 0.6894399801	-0.6116434797	 1.2082341619	 0.417183
C	 0.6577411021	-0.1114879831	 2.6248442971	-0.500768
C	 0.4978450885	-2.1237991581	 0.9352324029	-0.28141
C	 0.8892676529	-2.1301856382	-0.580282898	 0.036982
C	-0.1310427918	-2.7357353577	-1.5412737244	-0.419037
H	 0.9061242559	 1.9719818286	 0.2041148522	 0.133832
H	-0.4142692583	 1.9426648339	-0.9786085101	 0.110851
H	-0.7831679192	 1.9705623566	 0.7477390866	 0.111472
H	-1.0645020879	-0.3581731386	-0.2016202449	 0.059396
H	 1.5545428263	-0.2133948474	-1.6261862503	 0.067454
H	 0.8087699795	 0.9703333177	 2.6709810693	 0.126901
H	-0.3051840562	-0.3477964637	 3.0900736745	 0.119323
H	 1.4455506	-0.592619198	 3.2138736957	 0.128138
H	 1.1677464788	-2.7285541239	 1.5514381865	 0.099194
H	-0.5308408244	-2.4540690195	 1.1131787083	 0.091382
H	 1.8515560255	-2.6336395544	-0.7147450118	 0.077618
H	-1.1137200269	-2.2613652415	-1.4494388718	 0.11497
H	 0.1937359897	-2.6296272905	-2.5825979755	 0.11337
H	-0.2638019657	-3.8049697964	-1.3460348521	 0.1183
161.8356	190.1028	194.8343	211.226	229.6783	236.7838	278.9137	357.826	372.1139	426.0882	500.4602	579.382	619.7867	681.6518	779.2119	825.2359	833.8816	871.4804	896.9925	912.7966	928.6864	973.2741	1019.4938	1043.1006	1053.3303	1076.7739	1101.8771	1116.5903	1157.3219	1176.7217	1199.6071	1222.1483	1237.3838	1264.7484	1275.6213	1317.4468	1336.8616	1365.273	1394.6446	1404.6511	1414.5858	1416.7552	1478.9876	1487.1934	1490.7626	1498.2707	1499.3023	1500.9547	1507.2533	3028.6977	3031.4116	3037.341	3045.7067	3051.3584	3055.0804	3089.1902	3092.1951	3099.3994	3102.3031	3103.9033	3106.4203	3117.4414	3122.6571
CC1C2OC1(C)CC2C	C[C@H]1[C@H]2O[C@]1(C)C[C@H]2C	
InChI=1S/C8H14O/c1-5-4-8(3)6(2)7(5)9-8/h5-7H,4H2,1-3H3	InChI=1S/C8H14O/c1-5-4-8(3)6(2)7(5)9-8/h5-7H,4H2,1-3H3/t5-,6+,7+,8-/m1/s1
