18
gdb 111027	2.02157	1.73785	1.11503	3.4161	78.19	-0.2658	0.0223	0.2881	1126.0967	0.148141	-401.905427	-401.897163	-401.896219	-401.938533	30.936	
C	-0.5119249688	 1.0893835375	-0.1645448454	-0.259411
O	 0.5192916807	 0.1477112243	 0.0847178684	-0.254801
C	 0.9413635131	-0.530446599	-1.0462992038	 0.156561
C	 1.9392177676	-1.6886868599	-0.8129263943	-0.118156
C	 0.7606047644	-2.5186695279	-0.2164791766	-0.255435
C	 0.1843742337	-1.8460954803	-1.5052345639	 0.180911
C	 1.5196321477	-2.2248816813	-2.2126126795	-0.260336
C	-1.1473760453	-1.9578213198	-2.0383646873	 0.150595
N	-2.2212323706	-2.0308394475	-2.4638053827	-0.361073
H	-0.2021020578	 1.8290101241	-0.9171087146	 0.114589
H	-1.4325351323	 0.6013202162	-0.5095104307	 0.138171
H	-0.7094105107	 1.6022343064	 0.7786559116	 0.135443
H	 1.1754400369	 0.1606505609	-1.868939503	 0.077164
H	 2.9496439716	-1.6006219798	-0.4185693585	 0.0923
H	 0.8599990734	-3.6050740941	-0.2582583914	 0.107175
H	 0.3472120556	-2.1727382896	 0.7288447457	 0.12887
H	 1.7974477503	-1.6283936281	-3.0851343149	 0.110255
H	 1.6700457506	-3.2913922422	-2.384252599	 0.117179
86.3874	118.911	176.7435	179.5212	231.7667	341.9873	406.8473	508.265	515.144	551.348	571.379	639.5421	782.1707	833.3877	897.3467	936.9336	949.5521	973.3221	1012.3172	1057.0689	1061.352	1089.4964	1132.9415	1154.5864	1160.6042	1183.1867	1191.9454	1218.04	1236.3061	1245.21	1255.5296	1270.4814	1410.7571	1483.1829	1491.2591	1494.3567	1507.554	1533.9024	2342.2682	2994.7251	3006.8662	3057.908	3068.6018	3083.5925	3130.3058	3139.7374	3142.6842	3168.9465
COC1C2CC1(C2)C#N	CO[C@H]1[C@H]2C[C@@]1(C2)C#N	
InChI=1S/C7H9NO/c1-9-6-5-2-7(6,3-5)4-8/h5-6H,2-3H2,1H3	InChI=1S/C7H9NO/c1-9-6-5-2-7(6,3-5)4-8/h5-6H,2-3H2,1H3/t5-,6-,7+/m0/s1
