17
gdb 54872	3.50731	1.35503	1.05944	3.0105	76.42	-0.2041	0.0086	0.2126	1116.422	0.137959	-418.039315	-418.031585	-418.030641	-418.071715	30.341	
N	-0.0255285281	 1.3613952655	 0.0491616945	-0.569161
C	 0.035307541	-0.0265610154	 0.0462961863	 0.446079
O	 1.0730742541	-0.6409470305	 0.2049191015	-0.391613
N	-1.1824349655	-0.6648470969	-0.11375957	-0.108429
C	-2.4766554441	-0.135980861	 0.0193135391	-0.025825
C	-3.3991084704	-1.1000953126	 0.1503765776	-0.16625
C	-2.7487941573	-2.4361047485	 0.0725716803	-0.106969
C	-2.0241314027	-2.7576672968	-1.2274586684	-0.303037
C	-1.2670193129	-2.1092612927	-0.1040997108	 0.018777
H	 0.8958310066	 1.7688556568	-0.0123654068	 0.262649
H	-0.7032425953	 1.804180492	-0.5525647613	 0.252556
H	-2.6249629276	 0.9332986813	 0.0111069082	 0.123624
H	-4.4566031556	-0.9336858418	 0.2928376803	 0.105421
H	-3.0976140245	-3.2526779029	 0.6949573883	 0.096304
H	-1.7907728423	-3.799760934	-1.4152173203	 0.119142
H	-2.2667361177	-2.1723020023	-2.1075266961	 0.115328
H	-0.4465057276	-2.6097792702	 0.3894564877	 0.131405
87.5345	95.6077	219.9777	329.2403	370.8	407.458	445.8677	539.5626	572.8112	596.3193	651.8735	716.9016	746.7017	757.9463	775.3158	821.5425	868.356	889.1012	936.8939	1007.3286	1043.8807	1053.6623	1067.4534	1092.3255	1102.4387	1136.6236	1183.071	1199.5612	1285.6292	1303.0925	1362.6748	1402.4821	1445.0821	1471.6941	1625.4132	1648.2747	1790.6603	3132.9005	3167.4762	3220.4325	3229.1485	3235.2744	3258.1905	3576.027	3686.2217
NC(=O)N1C=CC2CC12	NC(=O)N1C=C[C@H]2C[C@@H]12	
InChI=1S/C6H8N2O/c7-6(9)8-2-1-4-3-5(4)8/h1-2,4-5H,3H2,(H2,7,9)	InChI=1S/C6H8N2O/c7-6(9)8-2-1-4-3-5(4)8/h1-2,4-5H,3H2,(H2,7,9)/t4-,5+/m0/s1
