20
gdb 107078	3.4324	0.98891	0.8932	4.2332	83.96	-0.2686	0.0323	0.3009	1374.6036	0.171089	-366.008667	-365.999764	-365.99882	-366.042595	33.494	
C	 0.0566527571	 1.55301908	 0.279242929	-0.37563
C	 0.0264428231	 0.0602759795	-0.0772626935	-0.300653
C	-1.3661914831	-0.5078454118	-0.1040346513	 0.403701
C	-2.0809544095	-1.0109282254	 1.1212032135	-0.341319
C	-1.8478992347	-1.9588227488	-0.0238895135	-0.115892
C	-2.9088498425	-1.7012041753	-1.1127762341	-0.148764
C	-2.4041138673	-0.2107775801	-1.2000255778	-0.310538
C	-2.7179287181	-2.4590651937	-2.3388643975	 0.262496
N	-2.5572465985	-3.0634598814	-3.3115924301	-0.327826
H	 1.0816214947	 1.9354995323	 0.2813854434	 0.116805
H	-0.5167666729	 2.1448508567	-0.4422991463	 0.120111
H	-0.3733676522	 1.7298981373	 1.2704219955	 0.119875
H	 0.4999651392	-0.0927082167	-1.0559318326	 0.105322
H	 0.6281293571	-0.5037886292	 0.6462661361	 0.100667
H	-1.4497070074	-1.1818581949	 1.987698498	 0.118417
H	-3.0881870203	-0.6781637462	 1.3650527561	 0.107082
H	-1.2812013684	-2.8760177326	 0.0764904684	 0.107489
H	-3.9446637526	-1.8278798532	-0.7797822186	 0.119342
H	-3.1534367979	 0.5553774977	-0.9805275901	 0.108367
H	-1.9507276961	-0.0000137644	-2.1702945446	 0.130948
67.9137	88.2468	176.753	185.5633	213.559	302.3968	345.7601	393.7777	421.0675	498.31	556.974	644.93	741.4551	786.1315	808.4932	854.8569	879.0293	932.4725	955.4758	992.5908	1000.601	1027.1714	1043.1892	1062.9916	1081.3415	1092.565	1130.69	1151.7246	1210.7216	1231.1216	1251.1678	1265.7022	1329.5272	1334.4548	1360.9794	1404.689	1413.5202	1480.0381	1480.723	1498.0698	1503.8862	1507.1099	2354.2382	3018.1036	3034.6623	3048.2708	3052.6406	3058.0799	3100.7444	3102.7543	3109.5362	3122.9845	3190.2349	3199.3161
CCC12CC1C(C2)C#N	CC[C@]12C[C@H]1[C@@H](C2)C#N	
InChI=1S/C8H11N/c1-2-8-3-6(5-9)7(8)4-8/h6-7H,2-4H2,1H3	InChI=1S/C8H11N/c1-2-8-3-6(5-9)7(8)4-8/h6-7H,2-4H2,1H3/t6-,7-,8-/m0/s1
