20
gdb 22852	2.66032	1.32668	0.90485	1.4145	89.56	-0.2064	-0.0144	0.1919	1299.3064	0.169749	-403.144019	-403.134287	-403.133343	-403.179522	35.668	
C	-0.0424450385	 1.4918018495	 0.1244837564	-0.492786
C	 0.0015339149	 0.0058485581	-0.0340459466	 0.235711
C	-0.0081221411	-0.7144331734	-1.1779983343	 0.137205
C	-0.0661612041	-0.1730314791	-2.5780388165	-0.494326
C	 0.0478327104	-2.150871489	-0.8478870232	 0.333192
C	 0.1019741504	-2.3064083529	 0.6652741953	-0.295605
C	 0.0645633234	-0.8604139518	 1.2020921543	-0.312227
N	 0.0576867812	-3.2106090115	-1.565485382	-0.250382
O	 0.0050445401	-2.9523929378	-2.9509243798	-0.402513
H	 0.840310603	 1.8476302472	 0.6719300579	 0.130001
H	-0.0871132029	 2.0253115411	-0.8264805005	 0.129539
H	-0.9138173598	 1.7903620568	 0.7221012125	 0.130021
H	 0.8013578379	-0.4959656175	-3.1598362866	 0.139744
H	-0.9448720534	-0.5497244969	-3.1083893351	 0.139867
H	-0.0998195154	 0.9188334663	-2.5836324142	 0.106844
H	-0.741804295	-2.9035908345	 1.0209087724	 0.123598
H	 1.0109542065	-2.8353814121	 0.9640286883	 0.123653
H	 0.9471435485	-0.6152041974	 1.8076016613	 0.107891
H	-0.8013710727	-0.6773950758	 1.8521303527	 0.108092
H	 0.0209762564	-3.8434406292	-3.3138546422	 0.302483
17.6498	127.0323	137.5612	185.5902	232.375	244.7648	282.8382	327.2952	369.0798	379.6504	467.704	486.1757	577.0382	649.1904	658.0208	720.7059	823.1572	873.5392	964.4885	968.4967	976.0915	1024.3949	1067.8925	1069.3167	1100.999	1131.0881	1170.9	1204.6957	1241.4783	1288.6709	1318.2008	1355.5741	1392.7796	1414.9042	1423.6502	1472.9365	1476.3108	1480.1441	1481.0786	1489.0471	1496.2696	1689.1657	1720.2412	3012.0099	3018.4218	3034.3233	3051.6949	3057.8137	3065.2523	3101.521	3111.527	3123.2355	3131.595	3825.6343
CC1=C(C)C(CC1)=NO	CC1=C(C)C(=NO)CC1	
InChI=1S/C7H11NO/c1-5-3-4-7(8-9)6(5)2/h9H,3-4H2,1-2H3	InChI=1S/C7H11NO/c1-5-3-4-7(8-9)6(5)2/h9H,3-4H2,1-2H3
