18
gdb 74360	3.91764	0.87679	0.7497	3.3921	74.55	-0.2425	-0.0199	0.2225	1483.91	0.146475	-439.120359	-439.111118	-439.110174	-439.156078	31.887	
C	 0.1522944374	 1.4675928378	 0.2115920855	-0.471911
C	 0.0170302441	-0.005989921	 0.0390543697	 0.410061
N	-1.03900246	-0.6944343571	 0.204302837	-0.317066
C	-0.6861757989	-2.0966155981	-0.0737473083	-0.003529
C	-1.5955861265	-2.6979277884	-1.1597038547	-0.284967
C	-3.0524714955	-2.7295547457	-0.7423516545	 0.156506
O	-3.7346736082	-3.723078482	-0.7526667276	-0.243806
C	 0.8134544246	-2.037205154	-0.4795821786	-0.128359
O	 1.1619338695	-0.6457566768	-0.3288122083	-0.25049
H	 0.9037406491	 1.6895203216	 0.9756831116	 0.149294
H	 0.4921172368	 1.9280690685	-0.7212359546	 0.147847
H	-0.8062446765	 1.8934378385	 0.5051467091	 0.154158
H	-0.8154945564	-2.6787080868	 0.847048818	 0.099903
H	-1.5143122639	-2.0743901166	-2.0612528547	 0.119673
H	-1.2856835643	-3.7169284706	-1.4111077382	 0.118658
H	-3.4583196262	-1.7497858706	-0.4153951723	 0.103275
H	 1.4659881185	-2.6294359202	 0.1665960833	 0.123611
H	 0.9869976766	-2.3261585586	-1.5215150724	 0.117141
43.893	56.2458	86.2585	143.1129	170.6531	213.6179	321.0809	353.3174	439.3566	506.4724	625.5849	662.6825	731.6464	817.2979	869.6648	918.6376	960.5161	992.7719	1010.2791	1027.4335	1066.3198	1089.6301	1104.3831	1136.7711	1209.5922	1235.8392	1262.231	1286.7178	1326.3313	1371.4349	1383.4273	1415.3675	1421.2518	1457.1249	1475.0168	1475.7884	1519.2336	1737.9056	1828.6399	2925.5695	3013.9144	3027.6092	3045.9434	3052.7597	3095.7865	3100.8503	3110.6066	3168.5715
CC1=NC(CC=O)CO1	CC1=N[C@@H](CC=O)CO1	
InChI=1S/C6H9NO2/c1-5-7-6(2-3-8)4-9-5/h3,6H,2,4H2,1H3	InChI=1S/C6H9NO2/c1-5-7-6(2-3-8)4-9-5/h3,6H,2,4H2,1H3/t6-/m0/s1
