17
gdb 77193	3.34616	1.05022	0.89605	2.1447	77.68	-0.3179	-0.0015	0.3163	1278.5796	0.136342	-380.897542	-380.888757	-380.887812	-380.931431	31.765	
C	-0.0404728062	 1.6073841451	-0.0441708945	-0.42703
C	 0.1384832044	 0.1019554171	-0.0184543697	 0.019345
C	 1.166221132	-0.5557613821	-0.9983471159	-0.14372
C	 1.5394376387	-1.5687469822	 0.1244568065	-0.244562
C	 0.898938093	-0.5982901576	 1.1692414377	-0.197638
C	 1.8730912399	 0.2548467218	 1.8335859333	 0.283566
N	 2.6519748529	 0.9399394681	 2.3449119216	-0.325217
C	 0.6700701711	-1.0726012647	-2.2608846452	 0.265414
N	 0.2508916809	-1.4932872989	-3.2530078481	-0.317848
H	 0.9116141589	 2.126432828	 0.1002328843	 0.145525
H	-0.462924924	 1.9220643786	-1.0037250695	 0.138012
H	-0.7238253836	 1.9333635242	 0.7463565156	 0.134713
H	-0.8246215599	-0.4037709168	-0.1295311162	 0.112555
H	 1.9979504193	 0.1297378851	-1.1880740635	 0.13972
H	 0.9616871819	-2.4905529446	 0.0462132381	 0.139874
H	 2.5959172469	-1.805452255	 0.244013828	 0.144001
H	 0.2616251338	-1.0634913761	 1.9238331075	 0.13329
59.7808	122.8343	150.056	186.8697	235.0528	247.2616	304.5019	399.236	467.4594	521.2788	558.5376	607.702	659.742	781.3288	808.2804	886.1432	936.62	975.3688	988.7634	1052.5657	1080.1754	1112.0155	1140.9869	1162.9978	1198.8739	1237.5417	1264.6257	1266.1057	1326.8258	1360.0662	1381.0579	1419.6645	1486.1836	1494.4299	1495.5194	2352.1801	2355.5557	3039.9273	3065.1304	3078.3527	3091.6255	3098.6882	3109.7849	3119.2966	3160.0143
CC1C(CC1C#N)C#N	C[C@H]1[C@@H](C[C@H]1C#N)C#N	
InChI=1S/C7H8N2/c1-5-6(3-8)2-7(5)4-9/h5-7H,2H2,1H3	InChI=1S/C7H8N2/c1-5-6(3-8)2-7(5)4-9/h5-7H,2H2,1H3/t6-,7-/m0/s1
