17
gdb 47840	2.58097	1.59228	1.0954	4.2099	70.25	-0.2576	-0.0234	0.2342	1082.7661	0.13726	-458.982089	-458.974376	-458.973432	-459.01454	29.374	
O	 0.091277141	 0.0680230098	-0.4900833148	-0.30756
C	-0.0043355539	 1.1589307955	-0.0029052539	 0.41804
C	-1.3384869496	 1.9006971093	 0.1071660351	-0.390489
C	-1.4566612777	 2.9116211408	-1.0090628226	-0.049793
C	-0.961962682	 4.1476279622	-0.9629764464	-0.049274
C	-0.2391270611	 4.7253059982	 0.2286198118	-0.138154
O	 1.0643142826	 4.167814947	 0.4492278025	-0.221908
C	 1.1441649423	 2.9990608549	 1.1848436166	 0.021172
O	 1.1245382594	 1.7924254519	 0.4134530686	-0.222085
H	-2.1140901159	 1.1390375852	 0.0246790113	 0.138426
H	-1.4376773393	 2.3849867676	 1.0834819861	 0.118403
H	-1.9270587498	 2.555277546	-1.9209916443	 0.116016
H	-1.0535343631	 4.7866645705	-1.8364908422	 0.104482
H	-0.0662479597	 5.7940106386	 0.0841444086	 0.122954
H	-0.8387618862	 4.6110832121	 1.1444724169	 0.106536
H	 2.1362833545	 2.9845919762	 1.6396388325	 0.134941
H	 0.3746978684	 2.9564370741	 1.9681121243	 0.098293
81.5389	148.2307	194.69	276.8564	310.2813	402.9155	458.124	478.0394	498.4455	607.6752	626.1818	726.8003	732.7639	848.6578	892.7399	942.7262	966.5945	1001.2097	1008.2808	1034.4834	1056.3105	1088.4483	1153.4767	1190.4673	1255.85	1282.5843	1289.0469	1297.5101	1339.8711	1394.215	1417.8414	1453.1515	1476.1354	1489.0792	1512.9524	1716.574	1846.2949	2988.6301	3007.4603	3059.3665	3101.5265	3118.0161	3131.5121	3162.3356	3184.1006
O=C1CC=CCOCO1	O=C1CC=CCOCO1	
InChI=1S/C6H8O3/c7-6-3-1-2-4-8-5-9-6/h1-2H,3-5H2/b2-1-	InChI=1S/C6H8O3/c7-6-3-1-2-4-8-5-9-6/h1-2H,3-5H2/b2-1-
