19
gdb 93551	2.96655	1.29199	0.96543	3.128	77.95	-0.2276	-0.0214	0.2062	1231.401	0.158626	-423.040099	-423.031326	-423.030382	-423.074681	32.631	
C	 0.1612108078	 1.6235459316	-0.099923507	-0.406787
C	-0.0333475139	 0.114722447	-0.0047735672	 0.085379
O	 0.609404541	-0.4530818036	-1.147486049	-0.244895
C	 0.1249937414	-1.703367094	-1.5806512038	-0.173833
C	 0.4971995971	-2.8968532546	-0.6898236547	 0.381816
O	 1.0716330356	-3.8517505641	-1.1566827381	-0.28876
C	 0.0422544624	-2.8816047366	 0.7687593893	-0.361893
C	 0.5577999065	-1.7352213355	 1.6131959146	-0.092177
C	 0.5149270954	-0.4439777922	 1.2952697075	-0.033496
H	 1.2281348333	 1.866083942	-0.0798977705	 0.133158
H	-0.2626326153	 2.0056226527	-1.0312284025	 0.123411
H	-0.3245831761	 2.1259161156	 0.7420388843	 0.11797
H	-1.1126086743	-0.1135396798	-0.0670785025	 0.074256
H	-0.9765025241	-1.6843335172	-1.6786530085	 0.096568
H	 0.5569490699	-1.8892408455	-2.5664636191	 0.129851
H	-1.0593299971	-2.8566188521	 0.7604861714	 0.130045
H	 0.3379594228	-3.8405823896	 1.1979529444	 0.13003
H	 0.9899984908	-2.0235440457	 2.5674466486	 0.106163
H	 0.9087712269	 0.2824007315	 2.0019751829	 0.093193
25.1293	67.5891	216.5907	231.6114	263.1366	334.6056	339.8633	370.0132	448.7805	486.2813	537.8324	648.6903	669.1186	720.4741	830.1497	857.2049	879.8043	902.7005	984.6969	989.3226	1035.962	1043.0533	1108.7577	1136.5016	1154.8741	1186.8891	1239.3552	1255.1864	1292.7486	1320.4037	1330.3255	1364.9086	1386.6216	1406.7999	1415.3689	1457.9544	1471.8582	1485.2624	1496.9995	1720.8896	1813.2645	2934.2892	2938.2608	2989.3763	3044.4739	3110.2673	3113.5203	3117.1788	3130.8173	3149.4812	3173.6842
CC1OCC(=O)CC=C1	C[C@H]1OCC(=O)CC=C1	
InChI=1S/C7H10O2/c1-6-3-2-4-7(8)5-9-6/h2-3,6H,4-5H2,1H3	InChI=1S/C7H10O2/c1-6-3-2-4-7(8)5-9-6/h2-3,6H,4-5H2,1H3/t6-/m1/s1
