17
gdb 43368	2.86906	1.56518	1.19487	4.2021	73.97	-0.2452	-0.0551	0.1901	1039.0349	0.13685	-421.836395	-421.828735	-421.82779	-421.869376	28.503	
O	-0.0639584989	 0.0062506761	 0.0052840048	-0.340331
C	-0.084196457	 1.2163791351	 0.0120370304	 0.322762
C	-1.2666383057	 2.1031194012	 0.0328077141	-0.176205
C	-0.8777626185	 3.3836511917	 0.034436748	-0.057067
C	 0.6220271397	 3.5483989709	 0.0150251285	-0.367038
C	 1.1645124784	 2.1108970481	-0.0001152651	 0.167633
C	 2.2692506038	 1.7086801684	 1.0121987176	-0.105835
O	 3.2286604479	 1.472108811	-0.0316882904	-0.269268
C	 2.2412118408	 1.719808261	-1.0464391592	-0.10583
H	-2.2802679752	 1.724424246	 0.0444946474	 0.122727
H	-1.5443266113	 4.2396298595	 0.0480666084	 0.121048
H	 0.9416077644	 4.1250435092	-0.8623053911	 0.125452
H	 0.9653087592	 4.1155234592	 0.889605081	 0.125453
H	 2.5894647515	 2.5014406754	 1.6997938196	 0.098908
H	 2.0426128048	 0.7947719487	 1.574207254	 0.119342
H	 1.9992215909	 0.811996839	-1.6119176377	 0.11934
H	 2.5426931051	 2.5200059396	-1.7338885202	 0.098909
52.1762	83.1634	207.1897	285.8466	287.7296	376.8005	415.7979	554.2988	667.5361	682.2122	754.9464	827.1832	841.6651	884.0589	905.4233	960.9822	977.2472	987.7697	1001.871	1053.0878	1074.3066	1082.7235	1126.3392	1164.1324	1170.6804	1208.3517	1211.4967	1250.6355	1315.412	1332.6351	1363.314	1374.7648	1469.4524	1496.5377	1523.1863	1648.6341	1807.4979	3004.8894	3015.1937	3023.715	3049.9249	3064.1967	3064.3107	3190.6763	3230.1171
O=C1C=CCC11COC1	O=C1C=CCC21COC2	
InChI=1S/C7H8O2/c8-6-2-1-3-7(6)4-9-5-7/h1-2H,3-5H2	InChI=1S/C7H8O2/c8-6-2-1-3-7(6)4-9-5-7/h1-2H,3-5H2
