23
gdb 89447	2.30324	1.67239	1.21799	0.1275	90.25	-0.2327	0.0267	0.2594	1152.0197	0.206615	-351.170263	-351.161589	-351.160645	-351.203001	34.927	
C	-0.9902939427	 1.0092809884	-0.0109658727	-0.413371
C	 0.0361106386	-0.1134447974	-0.0002046063	 0.050401
C	 1.3054308067	 0.030142339	-0.8864034701	-0.289079
C	 2.1930807628	-0.515468047	 0.2782135875	 0.367984
C	 2.6580788763	-1.951284515	 0.080901326	-0.478879
C	 3.3029481533	 0.4508550972	 0.7532466751	-0.327628
C	 2.5906869274	 1.3447041309	 1.7408581858	-0.06918
C	 1.3477284768	 0.9374403	 2.0047646186	-0.076665
C	 0.9682078129	-0.3024685328	 1.2430724235	-0.112295
H	-0.5222681284	 1.972263238	 0.2192084232	 0.116107
H	-1.4657575083	 1.095078322	-0.9946576507	 0.110463
H	-1.7832632566	 0.8370492379	 0.7260345763	 0.108849
H	-0.4634557405	-1.06447583	-0.2165024811	 0.066057
H	 1.3216903127	-0.5449195407	-1.816886093	 0.089488
H	 1.5294204877	 1.0748256641	-1.1235928485	 0.093493
H	 3.4235642245	-2.0140557072	-0.7019564076	 0.111804
H	 3.0895698478	-2.3585737178	 1.0025084939	 0.111609
H	 1.8298956802	-2.6045468465	-0.2161418392	 0.110351
H	 4.1382855424	-0.0802875458	 1.2331348589	 0.095983
H	 3.7404611904	 1.0113145308	-0.0839656147	 0.098894
H	 3.0691819172	 2.2079864224	 2.1924135402	 0.087891
H	 0.6735327491	 1.4266965791	 2.700549856	 0.088616
H	 0.6871417	-1.1276501697	 1.9087119187	 0.059108
86.1522	187.8916	228.342	240.59	256.8128	292.5049	322.7738	398.9018	413.4579	499.813	581.5784	607.7679	739.2531	766.4286	784.394	843.5599	886.0749	904.3852	916.8544	935.3664	966.0713	970.9882	977.945	985.7159	1011.6951	1099.5768	1104.5479	1127.6418	1130.4896	1158.6358	1184.5331	1210.1494	1235.0029	1263.886	1266.7237	1276.0782	1308.4768	1349.1687	1360.1967	1380.737	1408.056	1412.0816	1481.0455	1486.182	1493.74	1494.5682	1497.6531	1500.9227	1676.6564	2995.7762	3016.7372	3021.2649	3022.8714	3028.8901	3037.7319	3044.9341	3081.4848	3085.9427	3086.8424	3094.3405	3099.7776	3169.5585	3195.1499
CC1CC2(C)CC=CC12	C[C@H]1C[C@@]2(C)CC=C[C@@H]12	
InChI=1S/C9H14/c1-7-6-9(2)5-3-4-8(7)9/h3-4,7-8H,5-6H2,1-2H3	InChI=1S/C9H14/c1-7-6-9(2)5-3-4-8(7)9/h3-4,7-8H,5-6H2,1-2H3/t7-,8-,9+/m0/s1
