19
gdb 88046	2.31653	1.37037	1.0916	1.2098	82.14	-0.248	0.0466	0.2946	1188.3796	0.157459	-385.824384	-385.815319	-385.814374	-385.858062	34.716	
O	-0.2542592034	 1.466175122	-0.1472435407	-0.422163
C	-0.1134864333	 0.0792456272	-0.0362600427	 0.04191
C	-0.4985517286	-0.6145177962	 1.2524597751	-0.403931
C	-1.380427618	-0.7055143894	 0.0373564977	 0.337299
C	-2.76935989	-0.1112819641	-0.2075895208	-0.29951
C	-2.9366202543	-1.1113377569	-1.3870270609	-0.225454
C	-1.7220883747	-1.9364124598	-0.8358618154	-0.248044
C	-0.7324776399	-2.4419122964	-1.764581845	 0.315843
C	 0.1008169345	-2.8419367866	-2.5351123759	-0.448646
H	 0.4529135757	 1.8787120008	 0.3590219108	 0.288639
H	 0.7036830459	-0.3529288799	-0.6140041864	 0.097746
H	 0.0687348565	-1.489733219	 1.5551685226	 0.113963
H	-0.8487847557	 0.0129771916	 2.0667536616	 0.112311
H	-3.4660035741	-0.3081566748	 0.6133301025	 0.100175
H	-2.7941673799	 0.9520755358	-0.4496409887	 0.123925
H	-3.8837055251	-1.6475890306	-1.4681969333	 0.103177
H	-2.6966835211	-0.6569087334	-2.3498358562	 0.119516
H	-2.0835908673	-2.753082231	-0.1994139813	 0.100178
H	 0.8267383527	-3.2026151296	-3.2208399729	 0.193067
78.6186	111.3183	152.5799	208.5084	239.8673	268.4755	327.1168	427.7302	476.5352	493.5586	558.5394	564.7249	613.6789	630.1396	708.517	778.3219	818.4998	874.076	896.1802	942.5021	945.318	1007.0986	1030.1669	1050.923	1088.8579	1100.0593	1110.0554	1166.1774	1191.0874	1224.3797	1236.5468	1262.0419	1266.0636	1293.7029	1341.8823	1347.2635	1423.0791	1478.9677	1493.2233	1499.1318	2229.0993	3030.1496	3054.8639	3076.5799	3103.8083	3116.8803	3121.0859	3138.3796	3206.637	3503.954	3809.7743
OC1CC11CCC1C#C	O[C@H]1C[C@]21CC[C@H]2C#C	
InChI=1S/C8H10O/c1-2-6-3-4-8(6)5-7(8)9/h1,6-7,9H,3-5H2	InChI=1S/C8H10O/c1-2-6-3-4-8(6)5-7(8)9/h1,6-7,9H,3-5H2/t6-,7+,8-/m1/s1
