21
gdb 73011	2.74727	1.46716	1.22042	1.5453	83.07	-0.2226	0.079	0.3015	1127.7472	0.182224	-387.04061	-387.032048	-387.031104	-387.073705	33.132	
C	 0.1285043468	 1.4874423953	-0.0819634441	-0.494027
C	 0.068364373	 0.0060230444	 0.0938220943	 0.391999
O	-0.5434896448	-0.7522154558	-0.9658423241	-0.320177
C	-1.1784152037	-1.6289720941	 0.0039425508	-0.094174
C	-0.4738887467	-0.9342882468	 1.1604081549	-0.279539
C	 1.00587358	-0.8806964874	 0.8553199722	 0.318497
C	 1.9511216682	-1.9386987258	 0.2713073885	-0.295692
C	 3.1254048898	-1.2135569691	 0.9951628807	-0.204623
C	 2.0970173574	-0.3742151966	 1.8111296698	-0.314045
H	 0.7515002454	 1.7443432557	-0.9468377113	 0.129984
H	-0.8700419635	 1.9023483279	-0.2511150912	 0.127822
H	 0.5585985955	 1.9679149209	 0.8007478088	 0.126072
H	-2.2653174382	-1.4876266519	-0.0062973144	 0.104583
H	-0.9424572244	-2.6853626352	-0.174030417	 0.101901
H	-0.8842675495	-0.7353178204	 2.1428065219	 0.090844
H	 1.7668431378	-2.943727055	 0.6650383773	 0.09662
H	 1.9926199945	-1.9927805756	-0.8186974998	 0.111822
H	 3.806316922	-1.8412896289	 1.573490177	 0.098203
H	 3.7172807443	-0.5971383798	 0.3142973978	 0.105044
H	 2.2671013881	 0.7050807771	 1.8567028431	 0.098252
H	 1.9668623881	-0.7434630887	 2.833734115	 0.100632
75.4579	159.7227	185.1194	190.2709	222.5463	268.873	339.2382	452.2098	480.7145	564.6992	655.5983	712.8843	756.3167	801.1861	847.9448	879.869	921.9755	924.7657	938.0484	963.6424	968.8347	988.9548	1038.2519	1068.5569	1114.5066	1125.4434	1132.5903	1154.3861	1181.2751	1191.1207	1211.2322	1235.6275	1252.2217	1265.636	1284.9052	1286.6776	1335.7512	1404.5107	1465.4542	1472.5549	1480.2665	1483.2702	1501.4758	1506.1779	1518.6099	3017.443	3031.2862	3041.5458	3046.7721	3064.1114	3066.0696	3086.988	3093.539	3103.6456	3119.6577	3122.8073	3184.0217
CC12OCC1C21CCC1	C[C@]12OC[C@H]1C12CCC1	
InChI=1S/C8H12O/c1-7-6(5-9-7)8(7)3-2-4-8/h6H,2-5H2,1H3	InChI=1S/C8H12O/c1-7-6(5-9-7)8(7)3-2-4-8/h6H,2-5H2,1H3/t6-,7+/m1/s1
