18
gdb 34846	3.7015	1.28707	1.19439	4.2601	80.8	-0.2525	-0.0037	0.2488	1076.7568	0.150728	-364.827079	-364.819944	-364.819	-364.85846	28.777	
N	-0.0103471865	-1.1410142069	-0.0316827629	-0.334033
C	-0.0056545011	 0.0156902489	-0.0093207045	 0.269147
C	 0.0046540923	 1.4679704177	 0.0167979316	-0.15733
C	-0.1436810942	 2.0749452046	 1.4606599373	-0.023487
C	 1.4000020528	 1.9394448644	 1.5916298582	-0.23208
C	 1.4475680667	 2.1052695064	 0.043138013	-0.057676
C	 1.2899825318	 3.5736537236	-0.2897557084	-0.072786
C	 0.335171426	 4.2612047203	 0.337630114	-0.061255
C	-0.5483263081	 3.5540572427	 1.3411790105	-0.273266
H	-0.6708188045	 1.8531899365	-0.7511649607	 0.116073
H	-0.7743949779	 1.5316576657	 2.1657010683	 0.087552
H	 1.9306120577	 2.6850756932	 2.1868615537	 0.103893
H	 1.6867440581	 0.933269214	 1.9048521129	 0.125102
H	 2.2334560295	 1.6054391618	-0.5215621902	 0.085672
H	 1.949356546	 4.0285693676	-1.0214055466	 0.096955
H	 0.1685458419	 5.3177555417	 0.1513530708	 0.096939
H	-1.6042034484	 3.6389235329	 1.0486528734	 0.11436
H	-0.471388652	 4.0376410047	 2.3249792996	 0.11622
140.8292	148.4516	278.74	316.7846	392.7471	471.0272	496.188	507.5723	550.5946	697.8081	715.6328	838.4128	857.5077	867.0743	895.6808	920.5945	942.9295	960.7773	979.2216	998.8714	1045.7757	1072.8501	1091.7768	1101.9757	1124.4159	1171.8659	1191.5958	1220.7726	1257.8952	1277.794	1291.2108	1310.3434	1346.7063	1368.0616	1398.0637	1470.7664	1494.5431	1699.5894	2347.6434	3007.7721	3033.2382	3069.1717	3079.9579	3100.2833	3119.394	3130.0821	3168.4969	3192.2791
N#CC1C2CC1C=CC2	N#C[C@H]1[C@H]2C[C@@H]1C=CC2	
InChI=1S/C8H9N/c9-5-8-6-2-1-3-7(8)4-6/h1-2,6-8H,3-4H2	InChI=1S/C8H9N/c9-5-8-6-2-1-3-7(8)4-6/h1-2,6-8H,3-4H2/t6-,7+,8+/m0/s1
