19
gdb 95874	2.75582	1.27734	1.10769	2.841	71.67	-0.2464	-0.0315	0.2149	1172.5585	0.158807	-460.174668	-460.166086	-460.165142	-460.207978	32.075	
C	-0.0265997056	 1.5279160809	 0.060755657	-0.404423
C	 0.0331685148	 0.0099570359	 0.0484890482	 0.128817
C	 0.6507327068	-0.5607579765	-1.2355092785	-0.240149
C	 0.8829820104	-2.0816305139	-1.0854499762	-0.005448
O	 1.5105297489	-2.3933903928	 0.137216185	-0.239153
C	 0.8835641419	-1.7985665863	 1.2577001135	 0.006051
O	 0.8248508441	-0.4017613648	 1.1623654488	-0.248501
C	-0.4015299803	-2.8672333961	-1.3326518056	 0.15499
O	-0.9413946453	-3.5971085283	-0.5449012455	-0.241353
H	 0.9779631169	 1.9491481469	-0.0432313553	 0.128467
H	-0.6469061389	 1.8958828373	-0.762088452	 0.116099
H	-0.4509553861	 1.8820193398	 1.0038425393	 0.129898
H	-0.9852124871	-0.3998488739	 0.172117346	 0.075768
H	 0.0121129224	-0.3503418453	-2.1010766296	 0.10473
H	 1.6180061911	-0.0778368243	-1.4064439373	 0.119682
H	 1.5739275986	-2.4095730935	-1.875680292	 0.110249
H	-0.1253039506	-2.2171201959	 1.3858660225	 0.108375
H	 1.5113428474	-2.0385762829	 2.1174272289	 0.119598
H	-0.8134816693	-2.7111160462	-2.3594615072	 0.076304
77.7658	153.6818	162.1686	218.6976	246.415	301.522	342.0099	344.3456	433.0035	489.7169	550.8994	689.5365	748.2578	788.5568	827.2047	891.1946	901.9977	977.0284	980.3095	1015.9028	1071.8269	1078.3442	1132.9728	1145.8099	1177.9829	1221.3195	1254.9276	1270.2847	1303.8932	1330.578	1373.5539	1380.3885	1398.3015	1413.5226	1414.1605	1445.5897	1470.4505	1483.0456	1499.7484	1517.5522	1840.4817	2838.5253	2947.2313	3004.6103	3010.4036	3041.3103	3045.4267	3091.9068	3117.6573	3122.2659	3124.1009
CC1CC(OCO1)C=O	C[C@H]1C[C@@H](OCO1)C=O	
InChI=1S/C6H10O3/c1-5-2-6(3-7)9-4-8-5/h3,5-6H,2,4H2,1H3	InChI=1S/C6H10O3/c1-5-2-6(3-7)9-4-8-5/h3,5-6H,2,4H2,1H3/t5-,6+/m0/s1
