15
gdb 73941	3.12893	1.31516	0.93673	1.8172	79.14	-0.2657	-0.0769	0.1888	1172.4754	0.113157	-416.858255	-416.849993	-416.849049	-416.891407	29.622	
C	 0.0465296218	 1.5309253116	 0.0066859516	-0.503596
C	-0.0084293741	 0.0457137259	 0.0053909667	 0.130206
C	-1.0642493588	-0.7847171139	-0.0676784512	 0.076739
C	-0.5852082444	-2.2171184282	-0.0314574332	-0.186102
O	 0.8335729797	-2.1111885581	 0.0684477717	-0.247206
C	 1.2048075953	-0.7910673943	 0.0924076941	 0.382545
N	 2.3889342566	-0.3554682264	 0.1752280435	-0.538162
C	-2.4321089449	-0.4340052574	-0.1647617163	 0.215772
N	-3.5573734439	-0.1694246877	-0.2445901919	-0.329043
H	 0.6602422274	 1.8831625913	-0.828757191	 0.161945
H	-0.9494446712	 1.9718827754	-0.0638765238	 0.146741
H	 0.5378298707	 1.8861565429	 0.9183349198	 0.161954
H	-0.9723189143	-2.7694187143	 0.8332679941	 0.147355
H	-0.8472204059	-2.7724274826	-0.9400947099	 0.147355
H	 3.062211656	-1.1210944842	 0.2240300256	 0.233499
105.8521	118.9616	135.6208	194.6252	248.7624	267.6518	390.7435	446.7487	499.0872	599.7779	603.1527	638.4483	726.8178	758.5078	876.2452	899.7065	1004.4009	1028.3043	1060.6078	1080.8468	1102.6742	1170.8626	1199.1274	1225.5601	1364.3253	1391.2385	1418.3227	1468.1603	1474.0135	1505.33	1696.9021	1755.7789	2338.329	3029.3247	3045.7794	3065.7679	3102.3632	3141.0917	3490.449
CC1=C(COC1=N)C#N	CC1=C(OC[C]1C#N)[NH]	
InChI=1S/C6H6N2O/c1-4-5(2-7)3-9-6(4)8/h8H,3H2,1H3	InChI=1S/C6H6N2O/c1-4-5(2-7)3-9-6(4)8/h8H,3H2,1H3
