17
gdb 70218	3.51505	1.32033	1.13146	3.8132	67.97	-0.2643	0.0112	0.2754	1074.7431	0.136379	-458.987253	-458.979429	-458.978485	-459.019459	30.447	
O	-0.0997480565	 1.4234134998	-0.3055071795	-0.459078
C	-0.0814646599	 0.0452212283	-0.0760358106	 0.363753
C	-0.4471469904	-0.9110765564	-1.1804643586	-0.362713
C	-1.3940852041	-0.6596295793	-0.0161088153	-0.07564
C	-1.5512205462	-1.6859427855	 1.0873347265	-0.361619
C	-0.2718667718	-2.4397251872	 1.4249393106	 0.403286
O	-0.2495720137	-3.5792427829	 1.7976953874	-0.321045
O	 0.9045272557	-1.7715219123	 1.2747555358	-0.223031
C	 0.9221640632	-0.3700634871	 0.9834529148	-0.141518
H	 0.6549834876	 1.6462976058	-0.8624490189	 0.288471
H	-0.7230398146	-0.4653465381	-2.1292452037	 0.121003
H	 0.0684818474	-1.8630945129	-1.2514017775	 0.135724
H	-2.2736843417	-0.0644549852	-0.2368008924	 0.108001
H	-1.8843093149	-1.1858266467	 2.0075564289	 0.139429
H	-2.3034881854	-2.4427458942	 0.8525909449	 0.14283
H	 1.9480902624	-0.1599590951	 0.6640024637	 0.118443
H	 0.730792873	 0.205506389	 1.8987412738	 0.123703
87.4742	182.8683	228.4565	302.2664	326.4337	360.5099	389.5464	458.8397	487.7454	529.8489	601.3118	696.2692	734.0374	769.4536	838.7691	911.7084	926.9529	948.8751	1030.8736	1045.8517	1066.216	1085.9166	1097.8531	1125.7602	1185.2474	1220.8471	1239.434	1273.4645	1307.4172	1331.1035	1352.1859	1407.4007	1428.4955	1464.8391	1499.4302	1517.4218	1853.1399	3021.5375	3024.053	3076.3578	3102.8643	3135.5203	3170.8845	3227.6015	3790.5477
OC12CC1CC(=O)OC2	O[C@]12C[C@H]1CC(=O)OC2	
InChI=1S/C6H8O3/c7-5-1-4-2-6(4,8)3-9-5/h4,8H,1-3H2	InChI=1S/C6H8O3/c7-5-1-4-2-6(4,8)3-9-5/h4,8H,1-3H2/t4-,6+/m1/s1
