18
gdb 109158	3.40136	1.14444	0.87027	2.4106	76.35	-0.2356	-0.0171	0.2185	1309.2366	0.147319	-439.130166	-439.120865	-439.119921	-439.164608	32.896	
C	-0.0154445777	 1.3913681096	 0.0084799644	-0.342255
N	-0.0211838873	-0.0492725979	-0.0002703412	-0.094315
C	-1.2154633658	-0.8628306406	 0.0036401927	-0.221273
C	-0.6684478612	-2.2655700317	-0.0070172437	-0.201112
C	 0.6652584545	-2.2351527553	-0.0154520299	 0.197149
C	 1.6454163024	-3.3555190337	-0.0273784549	-0.168431
O	 0.9441425112	-4.5858594699	-0.0293489698	-0.423884
C	 1.1247163088	-0.8136412573	-0.0112097703	 0.360999
O	 2.2705125893	-0.3998965266	-0.0159978146	-0.409632
H	 1.028874609	 1.7104743899	 0.0022884542	 0.164919
H	-0.5206062818	 1.8031643444	-0.8745661884	 0.120846
H	-0.5067069361	 1.7924791384	 0.9042324903	 0.120833
H	-1.8362611042	-0.6700788934	 0.8923574859	 0.121898
H	-1.8481033599	-0.661221199	-0.8746885234	 0.121908
H	-1.2941808324	-3.1464739456	-0.0075080396	 0.129913
H	 2.2960531365	-3.248927725	-0.9108819461	 0.115154
H	 2.3070482542	-3.2580321843	 0.8489854277	 0.115159
H	 1.5909324305	-5.2967762521	-0.0370120732	 0.292124
66.5445	119.7183	151.8331	161.4692	174.8416	238.2485	274.2298	297.6633	342.7661	414.8604	521.5508	642.9591	709.4579	744.0835	798.157	839.2424	961.586	971.2975	1009.1835	1041.5038	1064.8869	1109.1206	1147.8234	1188.5989	1195.3186	1223.1237	1239.0594	1272.384	1310.4974	1334.5619	1425.1014	1449.3253	1468.7808	1492.8423	1493.8723	1501.5522	1528.5651	1717.5969	1789.8305	2969.8419	2984.943	2986.5904	3003.932	3009.7482	3055.5154	3135.7473	3244.4451	3840.856
CN1CC=C(CO)C1=O	CN1CC=C(CO)C1=O	
InChI=1S/C6H9NO2/c1-7-3-2-5(4-8)6(7)9/h2,8H,3-4H2,1H3	InChI=1S/C6H9NO2/c1-7-3-2-5(4-8)6(7)9/h2,8H,3-4H2,1H3
