21
gdb 121153	3.29428	0.8933	0.77086	1.6845	79.42	-0.2516	0.0733	0.3249	1552.0716	0.180847	-424.188353	-424.178862	-424.177917	-424.223435	34.516	
C	 0.1152823383	 1.5423932522	-0.0474622691	-0.383962
C	-0.0163828125	 0.0334277181	 0.1715068333	-0.163405
C	-1.3793237726	-0.5183546415	-0.2652710474	-0.193714
C	-1.5155629781	-2.0073930978	-0.0064427009	 0.053677
O	-1.4564767763	-2.3415455581	 1.4096888742	-0.300264
C	-2.6975212472	-3.0783501868	 1.3638244494	-0.150019
C	-2.8950992606	-2.6635591792	-0.0886717597	 0.355913
C	-4.0927261196	-2.3198766769	-0.8504655186	-0.257382
O	-3.3330118409	-3.5108422983	-1.124718122	-0.260984
H	 1.0953482241	 1.9067254638	 0.2755874436	 0.11401
H	-0.0050923417	 1.8039434359	-1.1049189584	 0.111901
H	-0.6461403632	 2.0921835658	 0.516940053	 0.11469
H	 0.7770801834	-0.4903831412	-0.3776554891	 0.095623
H	 0.1325224078	-0.2058514845	 1.2302725429	 0.120739
H	-2.1825206444	 0.0092405902	 0.2650399394	 0.094438
H	-1.5308352384	-0.3377259345	-1.3387621759	 0.097115
H	-0.7567221421	-2.5724790749	-0.5680446331	 0.085867
H	-2.5516996885	-4.1573995676	 1.5021735638	 0.114173
H	-3.426915893	-2.7100448557	 2.0948534756	 0.109768
H	-5.0771595837	-2.4854669354	-0.4144166194	 0.119885
H	-4.0481588806	-1.5517818238	-1.6210675914	 0.121929
67.1021	90.7101	106.4866	112.8136	243.2792	246.7976	282.1457	323.527	338.8377	463.2312	525.1209	579.2828	747.0368	818.368	841.2232	874.3447	894.2617	916.289	945.9897	948.0233	1015.075	1047.383	1061.5979	1098.1658	1122.0664	1124.348	1150.0776	1156.9863	1170.2445	1193.5562	1253.0417	1265.45	1300.8707	1324.602	1335.7127	1378.7037	1403.1902	1413.3546	1454.5798	1472.5863	1493.5871	1499.5903	1509.6261	1514.0873	1544.5129	2995.89	3009.892	3015.9394	3023.3761	3028.8462	3051.1624	3062.7481	3071.5825	3083.8206	3097.7648	3102.724	3170.8939
CCCC1OCC11CO1	CCC[C@H]1OC[C@]21CO2	
InChI=1S/C7H12O2/c1-2-3-6-7(4-8-6)5-9-7/h6H,2-5H2,1H3	InChI=1S/C7H12O2/c1-2-3-6-7(4-8-6)5-9-7/h6H,2-5H2,1H3/t6-,7-/m1/s1
