25
gdb 109886	2.60193	1.26063	1.05973	0.1145	91.59	-0.2567	0.0732	0.33	1306.9823	0.229698	-352.335913	-352.326394	-352.32545	-352.370338	36.949	
C	 0.9601592379	 1.7365962797	-0.1061768392	-0.385687
C	 0.5872517481	 0.2551792191	-0.2420746207	-0.193449
C	 0.786564871	-0.5414171739	 1.0458217505	 0.03278
C	-0.2529829049	-0.4672266307	 2.2330630579	-0.001157
C	-1.590829239	 0.2322237162	 2.0134175103	-0.414349
C	-0.2466831886	-2.0314115884	 2.3196545445	-0.024816
C	-1.373152915	-2.7869916135	 1.5746213999	-0.22269
C	-0.5598803521	-2.6886703165	 0.2493626373	-0.230522
C	 0.6472258033	-2.0856639124	 1.0304473504	-0.049186
H	 2.01271767	 1.8526838758	 0.1760207421	 0.112367
H	 0.8066382787	 2.2744045699	-1.0472441387	 0.109229
H	 0.3588014401	 2.2345010626	 0.6613819296	 0.118761
H	-0.4485757141	 0.1729477932	-0.590950297	 0.094332
H	 1.2041179987	-0.1996398712	-1.0292673347	 0.091838
H	 1.7789866255	-0.2910597372	 1.4407297808	 0.062576
H	 0.2094895347	-0.0328603309	 3.1248261051	 0.06726
H	-2.1024929733	-0.1028415412	 1.1061733653	 0.117274
H	-2.2657298537	 0.0451799794	 2.8565236623	 0.112517
H	-1.4606910035	 1.316491669	 1.9326797324	 0.113781
H	 0.0694573277	-2.4387369148	 3.2817027875	 0.054862
H	-1.4692208523	-3.8187749289	 1.9239328149	 0.09511
H	-2.3701783976	-2.3384678495	 1.5846639585	 0.092786
H	-0.3516163152	-3.6511298602	-0.2242540934	 0.096793
H	-0.9896544661	-2.033332013	-0.512677345	 0.09544
H	 1.5745706197	-2.6590028729	 0.9716307993	 0.054149
48.3031	105.0307	158.8048	196.1544	223.2487	259.7363	284.6157	293.579	418.947	474.1529	503.6923	623.0342	706.7105	735.375	757.9733	801.27	836.6704	857.0676	872.3246	940.7659	950.3751	971.3368	998.9197	1023.6488	1035.5867	1051.2599	1072.4824	1102.9891	1118.3063	1142.821	1178.3749	1181.5346	1205.8305	1233.0469	1241.0401	1265.4433	1272.5437	1287.5211	1301.5869	1314.1744	1324.6158	1344.0753	1366.2021	1393.652	1407.8586	1412.8679	1475.8948	1484.0822	1490.808	1495.6658	1499.3529	1507.2537	1511.5505	3012.741	3015.3625	3029.2941	3031.1179	3044.661	3052.7227	3055.0997	3061.4571	3074.3402	3088.6003	3089.8922	3093.4208	3097.4115	3101.6175	3104.3229	3113.4984
CCC1C(C)C2CCC12	CC[C@H]1[C@@H](C)[C@H]2CC[C@@H]12	
InChI=1S/C9H16/c1-3-7-6(2)8-4-5-9(7)8/h6-9H,3-5H2,1-2H3	InChI=1S/C9H16/c1-3-7-6(2)8-4-5-9(7)8/h6-9H,3-5H2,1-2H3/t6-,7+,8-,9+/m1/s1
