21
gdb 88157	2.52264	1.41323	1.21199	2.3513	79.22	-0.2233	0.0676	0.2909	1154.917	0.182139	-424.217155	-424.208066	-424.207122	-424.251238	34.718	
C	 0.1320945953	 1.5409025066	 0.1212208432	-0.408905
C	 0.0390981223	 0.0332372481	 0.0704210824	-0.049982
C	 1.2541949422	-0.802295399	-0.2992493958	-0.376408
C	 0.7315246844	-0.8106630862	 1.1066109921	 0.455617
O	 1.5430977249	-0.1715721618	 2.0762893954	-0.297396
C	 1.1501667123	-0.6514425138	 3.3568738697	-0.081707
C	 0.7734016883	-2.1136193257	 3.10606694	-0.241215
C	 0.0407514423	-2.0099709763	 1.7547365486	 0.004211
O	-1.3413195076	-1.6975297601	 1.915667855	-0.432948
H	 1.076006451	 1.8572840875	 0.5721130426	 0.128829
H	 0.0652737966	 1.9743102284	-0.8826359264	 0.110153
H	-0.6804792332	 1.9623446236	 0.7229271137	 0.117085
H	-0.9192878084	-0.3582581143	-0.257816299	 0.094578
H	 1.1245191564	-1.6864790671	-0.9155575433	 0.104993
H	 2.1898917585	-0.2737139957	-0.4526525863	 0.115282
H	 1.9921822899	-0.5140678682	 4.0397397527	 0.105819
H	 0.2849165382	-0.0899758728	 3.7396015479	 0.101235
H	 1.6782008365	-2.7208093606	 2.9984074174	 0.108111
H	 0.145854818	-2.552322921	 3.88649954	 0.091548
H	 0.1564073757	-2.9180244193	 1.1489100006	 0.069308
H	-1.7711676437	-2.4665625422	 2.3039502394	 0.281793
37.2025	147.1159	178.6118	185.7629	228.1323	289.0979	311.5617	381.9195	421.2049	460.4939	544.3142	564.7992	648.3812	782.3414	806.8851	858.6637	881.1463	891.9799	922.5836	956.1058	985.5725	995.9502	1033.5966	1049.4741	1067.6307	1115.7897	1129.803	1135.8091	1181.2327	1189.1064	1217.786	1222.4727	1257.4723	1292.4074	1321.118	1342.0194	1391.2472	1399.7901	1413.1803	1435.1348	1471.849	1482.4302	1494.4793	1505.935	1515.5774	2995.9205	3013.1888	3032.7012	3053.1311	3090.1986	3096.5252	3107.9243	3118.2828	3120.4588	3154.5188	3209.5408	3812.0159
CC1CC11OCCC1O	C[C@H]1C[C@]21OCC[C@H]2O	
InChI=1S/C7H12O2/c1-5-4-7(5)6(8)2-3-9-7/h5-6,8H,2-4H2,1H3	InChI=1S/C7H12O2/c1-5-4-7(5)6(8)2-3-9-7/h5-6,8H,2-4H2,1H3/t5-,6+,7+/m0/s1
