18
gdb 103676	4.08605	0.87651	0.83874	6.0572	73.25	-0.2708	0.0313	0.3021	1383.0937	0.146787	-439.085852	-439.076727	-439.075783	-439.11983	34.025	
O	-0.1811606656	 1.4906959479	-0.0117800028	-0.433949
C	-0.0022850124	 0.0842755664	 0.1185929779	-0.142536
C	-1.3898483266	-0.5325079199	-0.0153023818	 0.43761
O	-2.2434455135	 0.0058718153	 0.959895291	-0.485348
C	-1.9205121062	-0.5465588639	-1.4843605762	-0.293224
C	-1.4609978648	-2.0357065523	-1.5909576235	-0.143389
C	-1.3773574211	-2.0778121534	-0.0313117584	-0.294721
C	-2.3451511308	-2.9792537703	-2.2513192496	 0.271407
N	-3.0598470202	-3.7263975159	-2.7694477291	-0.327369
H	 0.624477658	 1.9355909685	 0.2653890999	 0.299173
H	 0.6792094393	-0.3070427785	-0.6517318794	 0.093767
H	 0.405834144	-0.1759248561	 1.1060426848	 0.103252
H	-2.0451306339	 0.9512215795	 0.9980438239	 0.287106
H	-3.0083183502	-0.4649554382	-1.488365011	 0.132338
H	-1.4909697633	 0.1604601768	-2.1954722844	 0.120431
H	-0.4682391404	-2.1128237716	-2.0421992098	 0.121233
H	-0.5204871347	-2.5933888375	 0.4084414934	 0.112273
H	-2.2991536476	-2.4598597966	 0.409994925	 0.141946
68.1899	106.8516	161.4287	227.9863	238.1497	263.239	333.2042	361.4322	420.4396	462.1555	482.366	549.6804	571.702	621.4057	742.1917	835.0394	862.9146	926.7859	948.81	990.9221	1039.8993	1046.5627	1066.6304	1093.9419	1139.3872	1156.1989	1219.8189	1227.8104	1240.3396	1255.4584	1279.6598	1320.9566	1353.698	1405.3726	1452.1614	1467.8385	1493.385	1507.8251	2353.8119	2982.9061	3024.5048	3072.8571	3074.9262	3084.6351	3141.1917	3149.8826	3762.5818	3842.6955
OCC1(O)CC(C1)C#N	OC[C@@]1(O)C[C@@H](C1)C#N	
InChI=1S/C6H9NO2/c7-3-5-1-6(9,2-5)4-8/h5,8-9H,1-2,4H2	InChI=1S/C6H9NO2/c7-3-5-1-6(9,2-5)4-8/h5,8-9H,1-2,4H2/t5-,6+
