20
gdb 19875	3.17502	2.05147	1.84867	0.2294	76.92	-0.2353	0.0764	0.3117	854.0542	0.179828	-311.844442	-311.837485	-311.836541	-311.875096	28.707	
C	-0.2749534	 1.5567995962	-0.1109049642	-0.425326
C	 0.0234097105	 0.0751541061	 0.0368342233	-0.000986
C	 1.320084225	-0.6065120688	-0.3403762217	-0.067049
C	 2.6419211505	 0.1767081295	-0.3512994163	-0.253025
C	 3.0199294793	 0.4640366132	 1.1107807642	-0.026251
C	 2.22308194	 1.4454160181	 1.9350480473	-0.302442
C	 1.8867536207	-0.0270057807	 1.9900611774	-0.028058
C	 0.8322266391	-0.6533439956	 1.1001635767	-0.063539
H	 0.6149394577	 2.159101693	-0.305054582	 0.125548
H	-0.9454637329	 1.7054322226	-0.9642409624	 0.1104
H	-0.7750705055	 1.9681986225	 0.7724128045	 0.12161
H	-0.8403222883	-0.5236554838	-0.2482443712	 0.080865
H	 1.2639008207	-1.4764868802	-0.9872989172	 0.076099
H	 3.4175161808	-0.4479620157	-0.8055692059	 0.101551
H	 2.5909253341	 1.0887632758	-0.9588670844	 0.100721
H	 4.0555599276	 0.3081495914	 1.3947197384	 0.079021
H	 2.7254828441	 1.8559013444	 2.8059156984	 0.10343
H	 1.549015958	 2.1438458864	 1.4627134162	 0.11314
H	 2.0886585977	-0.5498286532	 2.9185248171	 0.077833
H	 0.3769327409	-1.5555727511	 1.495351792	 0.076458
158.7858	188.4546	256.2171	290.9857	379.723	462.0234	598.9424	657.5119	678.8805	697.7868	738.7659	795.1576	820.1161	846.1571	886.2113	928.8076	949.5185	989.4209	1011.5136	1036.0501	1061.214	1067.8332	1072.4023	1091.5865	1109.9164	1119.5243	1133.1971	1146.9461	1201.3332	1224.7469	1256.194	1301.3809	1318.8959	1360.1318	1374.3899	1385.7707	1423.8953	1438.2027	1483.2275	1493.9599	1508.6735	1518.0149	3030.5988	3034.8179	3071.8107	3086.8413	3104.3479	3122.7895	3139.9593	3144.2501	3153.2404	3156.7145	3171.2343	3256.4857
CC1C2CC3CC3C12	C[C@H]1[C@H]2C[C@H]3C[C@H]3[C@@H]12	
InChI=1S/C8H12/c1-4-6-2-5-3-7(5)8(4)6/h4-8H,2-3H2,1H3	InChI=1S/C8H12/c1-4-6-2-5-3-7(5)8(4)6/h4-8H,2-3H2,1H3/t4-,5-,6+,7+,8-/m0/s1
