19
gdb 59450	2.59341	1.36926	1.13044	3.0914	72.94	-0.2446	0.0321	0.2767	1153.9706	0.159108	-456.361709	-456.352413	-456.351469	-456.395531	35.154	
C	-0.258703517	 1.5496261698	 0.2445706032	-0.418709
C	-0.1233785068	 0.0244330479	 0.2054812084	 0.109337
O	 0.5112149006	-0.4897734919	 1.3599763024	-0.443293
C	-1.4664271794	-0.6575149953	-0.0602340229	-0.001551
C	-1.6653129399	-2.1082644944	 0.251816593	-0.272862
N	-2.3723421552	-1.0702510819	 0.9953650243	-0.123425
C	-2.2153134391	-0.836229707	 2.35999868	 0.42318
N	-2.6426518712	-1.8817715726	 3.1342758652	-0.52224
O	-1.7845938617	 0.203874106	 2.8409816444	-0.409076
H	 0.7255300609	 2.0032555983	 0.3904919543	 0.119937
H	-0.6779733911	 1.9320476268	-0.6921985577	 0.106658
H	-0.9131531461	 1.8475093233	 1.067891118	 0.149877
H	 0.5267221714	-0.2502080753	-0.6369997137	 0.089801
H	 0.0440740704	-0.101906227	 2.1165273369	 0.300415
H	-1.9889864843	-0.2600460241	-0.9300661699	 0.097689
H	-2.2724250826	-2.7375693864	-0.3939158162	 0.116402
H	-0.8442786481	-2.5980921179	 0.7683872256	 0.146989
H	-3.2451244853	-2.5792829327	 2.7303032183	 0.263857
H	-2.7616303654	-1.6788187658	 4.1131037863	 0.267014
72.3422	117.6545	190.1349	204.9139	247.6188	264.9649	278.4256	381.7727	393.9046	453.6852	484.9755	528.9754	565.9688	657.0381	689.8243	738.7615	762.0373	797.4077	911.0799	965.2477	994.8411	1040.5744	1059.2136	1094.3301	1109.5503	1114.1638	1134.1786	1170.7415	1176.4447	1288.352	1327.6445	1348.7548	1388.0044	1399.833	1437.6328	1448.0497	1491.1754	1499.6908	1509.4757	1613.3418	1753.8375	3013.211	3038.466	3104.778	3108.3957	3114.6427	3132.1515	3202.8127	3601.3793	3689.3739	3728.6505
CC(O)C1CN1C(N)=O	C[C@@H](O)[C@H]1CN1C(=O)N	
InChI=1S/C5H10N2O2/c1-3(8)4-2-7(4)5(6)9/h3-4,8H,2H2,1H3,(H2,6,9)	InChI=1S/C5H10N2O2/c1-3(8)4-2-7(4)5(6)9/h3-4,8H,2H2,1H3,(H2,6,9)/t3-,4-,7?/m1/s1
