23
gdb 106229	2.42857	1.36983	1.16865	0.1568	90.75	-0.2213	0.0238	0.2451	1228.261	0.206046	-351.164608	-351.1554	-351.154456	-351.198179	35.907	
C	 0.2418899846	 1.5113392499	 0.2299244327	-0.375342
C	-0.1183047687	 0.0555565394	-0.0949315	-0.27719
C	 0.5844059473	-0.4808833139	-1.3265751393	 0.325734
C	 0.1823095042	 0.0158253291	-2.6797372519	-0.142603
C	 0.1952966564	-0.9481119482	-3.6033938501	-0.076369
C	 0.6008649468	-2.2843842263	-3.0184295619	-0.282516
C	 0.8902247613	-1.9616969853	-1.55127749	-0.133155
C	 2.0132274059	-1.0080168635	-1.2081149503	-0.035316
C	 3.1521019259	-0.6662678535	-2.1420735123	-0.420604
H	 1.318855878	 1.6210315792	 0.3951222096	 0.116487
H	-0.0372705005	 2.1858964916	-0.5863923928	 0.115646
H	-0.2747773144	 1.854450131	 1.1318287637	 0.108994
H	 0.1378915564	-0.5788446469	 0.7628204344	 0.092063
H	-1.204865766	-0.0331917981	-0.2268903565	 0.094497
H	-0.0743770119	 1.0530898855	-2.8669297732	 0.088589
H	-0.0230178794	-0.8125046229	-4.6571772015	 0.089722
H	-0.2017298705	-3.0276735589	-3.1147735827	 0.105066
H	 1.4713541439	-2.7095232586	-3.5369388806	 0.107372
H	 0.6107077416	-2.695067659	-0.8021559135	 0.0763
H	 2.3319917416	-1.0981555943	-0.1702926203	 0.075883
H	 2.8065270912	-0.4799332979	-3.1614973918	 0.123086
H	 3.6781456139	 0.2326069374	-1.8016596036	 0.112009
H	 3.8828855425	-1.4826387257	-2.1775932485	 0.111649
77.63	147.9938	184.153	207.0842	221.7735	230.0208	309.0158	334.9719	383.4321	513.0813	524.0233	626.7564	713.1291	731.7842	760.6633	783.0241	841.4787	861.2093	911.1061	945.0773	959.8745	968.974	984.3697	1004.4268	1038.069	1049.0025	1092.5172	1103.5736	1123.364	1129.2721	1158.9845	1192.3692	1239.6371	1251.538	1306.1255	1312.55	1353.5883	1361.668	1383.8566	1408.8317	1412.78	1441.2296	1478.6091	1483.2884	1498.8493	1499.649	1502.623	1506.528	1669.1411	3011.0165	3013.6291	3029.0198	3032.8268	3034.1018	3047.463	3082.7524	3100.3984	3103.2049	3104.5008	3124.1128	3159.0207	3176.6972	3202.2264
CCC12C=CCC1C2C	CC[C@]12C=CC[C@H]1[C@H]2C	
InChI=1S/C9H14/c1-3-9-6-4-5-8(9)7(9)2/h4,6-8H,3,5H2,1-2H3	InChI=1S/C9H14/c1-3-9-6-4-5-8(9)7(9)2/h4,6-8H,3,5H2,1-2H3/t7-,8+,9-/m1/s1
