20
gdb 93872	2.11823	1.55834	1.1282	3.5088	77.75	-0.2739	0.0238	0.2977	1162.7455	0.17168	-403.183727	-403.174506	-403.173562	-403.217868	34.326	
C	-0.376888359	 1.5116242095	 0.024122074	-0.421643
C	-0.001774647	 0.03275285	 0.0542129547	 0.028611
C	 0.7556473377	-0.4672395412	-1.2046447428	-0.222399
C	 1.6390561679	-1.6556825673	-0.7436217152	-0.245607
C	 1.3682811031	-1.8318280995	 0.7689178958	 0.140309
O	 2.4151387442	-2.3973803456	 1.5125598434	-0.435269
C	 0.9029880929	-0.4140637837	 1.2310821409	-0.205242
C	 2.0730312407	 0.4450128508	 1.4101627252	 0.273258
N	 3.0330906132	 1.0792246709	 1.5316278041	-0.341736
H	 0.5151836532	 2.142970681	-0.0409259508	 0.140478
H	-1.0064338266	 1.7282095894	-0.8448923572	 0.12047
H	-0.933568368	 1.8047745641	 0.9202031372	 0.118824
H	-0.9207422317	-0.5576574638	 0.161632973	 0.086945
H	 0.0543478895	-0.7439498092	-1.9960799721	 0.106491
H	 1.3783763911	 0.3396576104	-1.6036532126	 0.117164
H	 1.4386275859	-2.581041714	-1.288153925	 0.11198
H	 2.7011226174	-1.4287063798	-0.8853909301	 0.111896
H	 0.5155937033	-2.5018766936	 0.9213401786	 0.101187
H	 3.1898671722	-1.827652237	 1.4268250997	 0.291952
H	 0.3641280699	-0.4594070914	 2.1819960589	 0.122331
68.631	100.2502	129.0223	170.7591	235.3886	272.9028	357.2352	394.5695	409.1541	433.0486	471.688	573.9054	628.181	664.4976	795.7491	839.3258	850.187	899.5106	953.5582	981.589	1004.3821	1028.4094	1055.0925	1116.6725	1135.1565	1162.2635	1183.0322	1198.8031	1249.061	1277.0528	1304.4574	1308.4134	1321.7677	1352.0845	1369.0562	1384.6427	1418.0949	1439.6686	1485.5711	1497.7165	1499.6596	1507.9712	2343.0875	3019.8905	3034.2618	3046.8961	3055.634	3060.4245	3076.9067	3090.8214	3102.8924	3108.2918	3112.9023	3778.4441
CC1CCC(O)C1C#N	C[C@H]1CC[C@@H](O)[C@H]1C#N	
InChI=1S/C7H11NO/c1-5-2-3-7(9)6(5)4-8/h5-7,9H,2-3H2,1H3	InChI=1S/C7H11NO/c1-5-2-3-7(9)6(5)4-8/h5-7,9H,2-3H2,1H3/t5-,6-,7+/m0/s1
