17
gdb 31879	3.90926	0.95275	0.80652	5.0396	86.18	-0.2229	-0.0198	0.2031	1408.5366	0.137668	-380.938586	-380.930016	-380.929072	-380.972713	31.281	
C	-0.281699454	 1.5240659611	 0.1743462965	-0.369835
C	 0.1128039004	 0.0468115099	-0.0078201623	-0.308925
C	 0.8760858231	-0.5195580615	 1.1481583282	 0.311965
C	 2.2101045361	-0.8747309207	 1.2650669417	-0.214113
C	 2.4298505061	-1.3358856784	 2.5812759106	-0.220909
C	 1.2200930833	-1.2552069234	 3.2513101386	 0.203483
N	 0.2889932538	-0.7545900275	 2.3597767768	-0.354491
C	 0.8743867427	-1.5902718065	 4.5760740352	 0.196454
N	 0.5734973799	-1.8606818857	 5.6633959378	-0.352859
H	 0.605044192	 2.1492787522	 0.3122268842	 0.131738
H	-0.8272778257	 1.8881757212	-0.7011996687	 0.122072
H	-0.9246166689	 1.6625325726	 1.0496407091	 0.11584
H	-0.7901510836	-0.5516447412	-0.1876732428	 0.113799
H	 0.7322534114	-0.0591797916	-0.9034271286	 0.123708
H	 2.9425838393	-0.8063117874	 0.4754009077	 0.106847
H	 3.3536711791	-1.6922460264	 3.0084825567	 0.121134
H	-0.6805407951	-0.6005367467	 2.5812163893	 0.274092
37.5611	110.692	143.4721	188.1378	221.0909	335.028	383.6027	503.2235	517.9424	543.5853	575.1666	650.9756	667.5589	709.2416	784.6704	801.3478	864.4465	949.5243	997.3272	1020.5349	1066.8272	1075.6826	1084.6436	1201.8599	1256.3006	1285.3664	1314.7167	1352.3113	1408.6461	1424.6766	1452.6775	1484.7698	1496.674	1501.5912	1515.2821	1611.6309	2330.6529	3021.9982	3038.7411	3081.6277	3110.0371	3119.6284	3249.7589	3269.4969	3668.7043
CCC1=CC=C(N1)C#N	CCc1ccc([nH]1)C#N	
InChI=1S/C7H8N2/c1-2-6-3-4-7(5-8)9-6/h3-4,9H,2H2,1H3	InChI=1S/C7H8N2/c1-2-6-3-4-7(5-8)9-6/h3-4,9H,2H2,1H3
