20
gdb 59776	3.3069	1.10791	1.01618	2.1611	76.26	-0.2494	0.0155	0.2649	1256.5628	0.172139	-440.304574	-440.295833	-440.294889	-440.338038	33.218	
C	 0.0539942869	 1.5370880066	-0.1582191544	-0.409816
C	 0.02267002	 0.0294469598	 0.093812321	 0.137239
O	 0.7019946872	-0.3146250427	 1.2934095091	-0.441831
C	-1.4175006026	-0.5274816474	 0.1305696714	 0.035847
C	-1.4509938668	-2.058394001	 0.0835934925	-0.246999
C	-2.861124202	-2.5373497816	 0.3961624461	-0.081113
O	-3.3445840886	-1.9811963092	 1.6338702079	-0.222506
C	-2.8800703149	-0.7585427801	 1.9602158374	 0.132869
N	-2.0515861647	-0.0190473755	 1.3523016599	-0.295116
H	 1.0826485148	 1.9020143929	-0.0982090108	 0.118548
H	-0.3439036672	 1.780396519	-1.1496724204	 0.10437
H	-0.5498392658	 2.0596123899	 0.5897569034	 0.131863
H	 0.5690242127	-0.4849312212	-0.7065689327	 0.076508
H	 0.1462074544	 0.0248285459	 2.0082268412	 0.282384
H	-1.9625749941	-0.120694693	-0.7334160852	 0.080037
H	-1.1460573051	-2.4342671524	-0.8987710169	 0.104364
H	-0.7444868801	-2.4466265612	 0.8244491776	 0.129152
H	-3.5602115816	-2.2462206004	-0.3980917565	 0.114335
H	-2.9162825795	-3.6213477749	 0.5207827308	 0.122513
H	-3.3315272829	-0.4329758735	 2.8963965785	 0.127354
88.2239	93.4521	193.2875	228.1557	257.1669	284.9902	323.0113	428.6979	446.7483	485.631	527.1295	548.0593	678.8919	778.9579	836.1737	859.5266	896.5612	935.3481	970.6019	977.9351	1021.5559	1037.0131	1072.6008	1080.7872	1131.0223	1155.8549	1188.631	1235.2535	1265.0433	1283.7775	1313.3323	1344.6486	1359.8606	1381.4593	1398.1119	1404.7796	1418.7086	1432.3705	1484.7566	1490.9739	1502.0311	1510.5569	1725.1315	2999.6294	3028.4305	3033.2279	3037.0999	3048.7053	3095.1639	3104.9752	3107.3453	3124.7236	3152.1283	3752.0988
CC(O)C1CCOC=N1	C[C@@H](O)[C@H]1CCOC=N1	
InChI=1S/C6H11NO2/c1-5(8)6-2-3-9-4-7-6/h4-6,8H,2-3H2,1H3	InChI=1S/C6H11NO2/c1-5(8)6-2-3-9-4-7-6/h4-6,8H,2-3H2,1H3/t5-,6-/m1/s1
