21
gdb 89369	2.94808	1.54181	1.37539	1.4677	81.64	-0.2421	0.0133	0.2554	1060.3344	0.183524	-387.103115	-387.09507	-387.094125	-387.134977	32.979	
C	-0.198422552	 1.5485111786	 0.0288462513	-0.416044
C	 0.0532814544	 0.0431650087	-0.0110318357	 0.048253
C	 0.9304273531	-0.4665325234	-1.1936207957	-0.273319
C	 2.020978344	-1.3079563312	-0.4401836368	 0.36337
C	 2.6890465803	-2.4180425589	-1.215419543	-0.490507
O	 1.2455740748	-1.8221408402	 0.6606171104	-0.277767
C	 0.8561323767	-0.5554689957	 1.1995448543	-0.008394
C	 2.1900773266	 0.1747055386	 1.2939232944	-0.085722
C	 2.9105409013	-0.2867930911	 0.2727295788	-0.116991
H	 0.7421402396	 2.1083613343	 0.0299705245	 0.117099
H	-0.7769477545	 1.8715259545	-0.8429010194	 0.11584
H	-0.764342746	 1.8352231301	 0.9228423025	 0.109819
H	-0.9075253003	-0.4804463788	-0.032149144	 0.078146
H	 0.359231418	-1.1101240436	-1.8684166736	 0.097997
H	 1.3669429007	 0.3441776387	-1.7837366821	 0.093792
H	 3.2514171384	-2.009448087	-2.0609471633	 0.116944
H	 3.3811155387	-2.9733430961	-0.5760051782	 0.128153
H	 1.9420397048	-3.1156080608	-1.6053827128	 0.124845
H	 0.2847914144	-0.6825855513	 2.1192620289	 0.072356
H	 2.4309171025	 0.9685926758	 1.9877977563	 0.103064
H	 3.8828535644	 0.0369300988	-0.075479197	 0.099066
141.4699	206.9094	228.9801	246.0143	294.0475	334.701	391.6754	462.3594	485.8808	581.0443	633.3177	682.2339	732.5412	777.8471	815.825	860.426	877.971	884.8398	913.0182	919.7612	933.5303	944.643	1019.9704	1044.7203	1063.8466	1099.2696	1122.638	1144.5006	1172.1694	1201.2089	1233.7068	1249.4724	1291.0404	1299.3841	1343.3931	1352.678	1367.6627	1409.5852	1415.251	1481.7854	1490.2616	1496.2551	1498.8424	1502.8969	1644.9672	3027.9728	3040.8993	3047.9296	3056.7471	3090.6012	3100.5363	3105.7444	3113.084	3117.7966	3118.1231	3208.4963	3235.4511
CC1CC2(C)OC1C=C2	C[C@H]1C[C@]2(C)O[C@H]1C=C2	
InChI=1S/C8H12O/c1-6-5-8(2)4-3-7(6)9-8/h3-4,6-7H,5H2,1-2H3	InChI=1S/C8H12O/c1-6-5-8(2)4-3-7(6)9-8/h3-4,6-7H,5H2,1-2H3/t6-,7-,8+/m0/s1
