15
gdb 35142	4.66882	0.97819	0.88649	2.9556	77.64	-0.2526	-0.0157	0.2369	1266.7573	0.112691	-379.636931	-379.628726	-379.627782	-379.670205	30.331	
C	 0.0441387593	-1.3021380205	 0.1033334519	-0.451567
C	 0.0406501656	-0.1023490239	 0.0451666414	 0.351017
C	 0.0376288991	 1.3582569442	-0.0666521314	-0.213223
N	-0.6422364631	 2.0014752555	 1.077336807	-0.29882
C	 0.0802115435	 3.2238701891	 1.4492010904	-0.154937
C	 1.4469356241	 3.007735407	 0.8279093195	-0.073985
C	 1.4196754771	 1.9795006907	-0.0077949348	-0.049624
C	-0.5480034573	 4.462935451	 0.935277422	 0.253773
N	-1.069930802	 5.4129920839	 0.5327065201	-0.323207
H	 0.0456475593	-2.3623151284	 0.1677882459	 0.202696
H	-0.4276629186	 1.618579032	-1.0342335257	 0.117804
H	-1.6290213536	 2.1527684274	 0.9159699344	 0.243561
H	 0.1357319402	 3.3230351957	 2.5422596504	 0.135598
H	 2.2859544762	 3.6534983229	 1.0480495537	 0.130248
H	 2.2412855802	 1.5994016134	-0.5995220347	 0.130666
55.9353	110.2147	167.6163	195.0948	275.2804	376.7996	466.6563	507.2731	508.6926	578.8407	629.055	640.8008	665.6376	732.4387	815.5828	826.4063	903.717	919.247	967.3202	978.8513	1026.2771	1060.3035	1130.1179	1140.5471	1237.1965	1311.031	1323.2287	1334.1696	1359.872	1443.2318	1695.4672	2240.5179	2344.1562	2935.7146	3006.6046	3223.1607	3246.6835	3502.5413	3583.4589
C#CC1NC(C=C1)C#N	C#C[C@H]1N[C@@H](C=C1)C#N	
InChI=1S/C7H6N2/c1-2-6-3-4-7(5-8)9-6/h1,3-4,6-7,9H	InChI=1S/C7H6N2/c1-2-6-3-4-7(5-8)9-6/h1,3-4,6-7,9H/t6-,7+/m1/s1
