17
gdb 11343	4.37911	1.36517	1.06128	6.3245	75.49	-0.2124	-0.0036	0.2088	1093.7948	0.142623	-363.91276	-363.904286	-363.903341	-363.947152	29.614	
C	-0.059558781	 1.4367688462	-0.091347467	-0.32378
N	 0.0350762589	-0.0025241804	 0.0328140931	-0.357506
C	 0.6523688373	-0.6184384231	 1.0626110646	 0.421049
C	 1.2743588292	-0.0493404415	 2.1310131593	-0.348579
C	 1.8126483579	-1.0704450921	 3.016696184	 0.40307
O	 2.4235532802	-0.9197712999	 4.0554719413	-0.370889
C	 1.4698759429	-2.4465025223	 2.4006828162	-0.329232
C	 0.7008174419	-2.1331796222	 1.1056825958	-0.328452
H	 0.9347416342	 1.8973784488	-0.1418657708	 0.140561
H	-0.6025586642	 1.684381939	-1.0050825055	 0.131206
H	-0.5942353467	 1.8746311135	 0.7605500014	 0.140586
H	-0.3789279649	-0.5722198102	-0.6842757206	 0.249475
H	 1.3760362074	 1.0080276496	 2.3304654848	 0.089468
H	 2.3933274341	-3.0043637901	 2.2224654915	 0.125096
H	 0.8802762528	-3.0271944273	 3.1154606771	 0.1251
H	-0.3148955874	-2.5470689924	 1.1038385282	 0.116421
H	 1.1992345974	-2.5240345458	 0.2102492566	 0.116408
22.9696	94.4854	115.3578	186.2257	186.3524	288.6122	425.0156	490.5874	542.945	576.769	608.7172	647.5723	832.0282	837.731	851.6536	912.7139	1005.4447	1016.7721	1065.161	1157.0688	1158.496	1170.5514	1198.88	1237.689	1248.823	1290.5191	1314.8478	1341.3372	1458.7097	1462.4287	1477.5522	1489.7404	1515.5941	1550.0577	1661.7781	1795.1013	3016.2325	3028.3156	3057.6744	3065.2598	3067.3606	3108.4811	3133.0595	3231.4422	3660.2747
CNC1=CC(=O)CC1	CNC1=CC(=O)CC1	
InChI=1S/C6H9NO/c1-7-5-2-3-6(8)4-5/h4,7H,2-3H2,1H3	InChI=1S/C6H9NO/c1-7-5-2-3-6(8)4-5/h4,7H,2-3H2,1H3
