14
gdb 26809	3.9418	1.0794	0.8512	5.1943	75.62	-0.206	-0.0127	0.1933	1251.1114	0.103062	-432.914273	-432.906175	-432.905231	-432.946802	30.274	
N	-0.2386103317	 1.4274782392	-0.01030999	-0.631205
C	-0.0099224846	 0.0208453482	-0.0166641182	 0.095717
C	-1.0812353969	-0.8549837295	-0.0950671383	 0.406869
O	-2.3893211928	-0.5782579545	-0.1713053497	-0.427373
N	-0.6264568196	-2.1276237979	-0.0855663383	-0.387977
C	 0.7680442495	-2.1036147826	 0.0003255088	 0.215311
C	 1.16058555	-0.7760498152	 0.0436160795	-0.320702
C	 1.5242682144	-3.2876057186	 0.0295857836	 0.197963
N	 2.1376305691	-4.273340132	 0.0529552529	-0.358306
H	 0.2106576733	 1.8905018701	-0.7942774911	 0.247396
H	 0.1110971688	 1.866953978	 0.8355029404	 0.247397
H	-2.439061713	 0.3914020345	-0.1602386473	 0.311307
H	-1.1972452325	-2.9546212067	-0.1324871047	 0.284638
H	 2.1821946359	-0.4353552329	 0.1112141825	 0.118965
119.7238	147.4431	212.5771	244.9367	265.7915	312.2597	445.2839	458.2563	505.8519	518.3336	559.8214	604.2879	653.9763	669.6293	707.7036	826.7643	833.6736	852.8997	999.8711	1160.8287	1179.6697	1212.6541	1241.9849	1255.1285	1384.0175	1422.765	1513.4146	1598.5365	1631.8393	1678.7045	2322.5892	3257.2519	3493.7197	3557.8839	3677.84	3710.864
NC1=C(O)NC(=C1)C#N	Nc1c(O)[nH]c(c1)C#N	
InChI=1S/C5H5N3O/c6-2-3-1-4(7)5(9)8-3/h1,8-9H,7H2	InChI=1S/C5H5N3O/c6-2-3-1-4(7)5(9)8-3/h1,8-9H,7H2
