19
gdb 27539	4.93964	0.92749	0.82358	1.6197	83.64	-0.1804	0.0564	0.2368	1413.7292	0.161198	-382.088191	-382.079452	-382.078507	-382.122291	33.121	
N	 0.0701288267	 1.4005069927	 0.0634733966	-0.608694
C	-0.0082588832	-0.0068714395	-0.0198875402	 0.298866
C	-1.0572838514	-0.8964691558	 0.0231613837	-0.326991
C	-0.5256846758	-2.2107605903	-0.1850784207	 0.291952
C	 0.8337083879	-2.0682084021	-0.3427011376	-0.19336
N	 1.1379152533	-0.7282088105	-0.2395742769	-0.270303
C	-1.3045382841	-3.472479144	-0.222555535	-0.115322
C	-0.6639298924	-4.8009534108	 0.0940204128	-0.267278
C	-1.66434726	-4.2089049502	 1.0533973321	-0.249534
H	-0.8394366994	 1.8136706833	-0.1029151063	 0.245488
H	 0.382344854	 1.7141086115	 0.9787137278	 0.241501
H	-2.091029339	-0.6456512081	 0.2101171283	 0.077513
H	 1.6018568855	-2.8013677649	-0.5264155362	 0.111189
H	 2.0355290469	-0.3091801458	-0.4091825082	 0.255381
H	-2.0754083824	-3.5035308543	-0.9897710735	 0.084239
H	-0.9569236063	-5.6644071859	-0.4928906646	 0.104582
H	 0.3771943784	-4.802521937	 0.3966571019	 0.107228
H	-1.2867327502	-3.8012273191	 1.9844923934	 0.11041
H	-2.6458738986	-4.665174999	 1.1249182425	 0.103132
36.5533	120.3194	129.401	169.0505	257.8519	345.1869	383.4268	448.0141	491.8354	575.3972	642.8428	678.8149	702.9699	718.0605	782.2982	797.6351	827.2134	835.7165	896.4587	925.1432	984.6635	1005.7674	1055.4073	1078.4332	1090.6593	1124.8017	1132.1626	1149.815	1181.0367	1198.593	1227.7662	1270.9105	1301.4319	1393.4401	1427.4338	1465.2703	1473.2906	1501.1886	1562.8039	1629.2907	1656.9702	3117.843	3130.2345	3137.1935	3210.666	3225.6044	3236.9577	3265.1278	3484.7945	3592.285	3681.7251
NC1=CC(=CN1)C1CC1	Nc1cc(c[nH]1)C1CC1	
InChI=1S/C7H10N2/c8-7-3-6(4-9-7)5-1-2-5/h3-5,9H,1-2,8H2	InChI=1S/C7H10N2/c8-7-3-6(4-9-7)5-1-2-5/h3-5,9H,1-2,8H2
