16
gdb 49696	2.06108	1.72768	1.0483	3.4137	79.28	-0.2386	-0.0085	0.2301	1128.9027	0.12268	-400.688319	-400.680026	-400.679082	-400.721339	30.944	
O	 0.1025182419	 0.2511981361	 0.5169743031	-0.291607
C	 0.1081209709	 1.3989341771	 0.1445144159	 0.139224
N	 1.1539131865	 1.9983342749	-0.5439417475	-0.122641
C	 2.539152975	 1.8282464807	-0.1720947464	-0.087623
C	 3.3934262713	 2.3002571198	-1.3535822432	-0.239958
C	 2.694001065	 3.7019363754	-1.2752745643	-0.294764
C	 1.8679889217	 3.1968654642	-0.0741915359	 0.185077
C	 1.4343042755	 3.939778412	 1.0566814982	 0.202626
C	 1.0718416932	 4.6002917926	 1.994961335	-0.403689
H	-0.7591993583	 2.0770199304	 0.2381814703	 0.095697
H	 2.7930116344	 1.1403284775	 0.6247291409	 0.132968
H	 4.4552535706	 2.3555530112	-1.1080550213	 0.117961
H	 3.2596988144	 1.7316754569	-2.2758265348	 0.122905
H	 3.3832074025	 4.4989053503	-0.9929156385	 0.125616
H	 2.101983994	 4.0123111054	-2.1379097983	 0.118563
H	 0.7551372415	 5.1739554454	 2.8309503868	 0.199644
88.0667	143.5951	153.6157	199.4653	254.8417	296.7377	394.356	496.3681	539.3134	571.2353	603.7554	661.0782	677.7911	737.1725	794.0171	834.4093	921.0116	941.494	964.0778	1021.3596	1040.1261	1070.5133	1079.3071	1139.4397	1217.3806	1227.2219	1264.4498	1272.2178	1308.9493	1410.0735	1418.5657	1468.1528	1488.8891	1793.37	2234.1435	2976.2533	3076.9248	3083.6808	3130.2882	3147.5878	3208.7128	3500.1798
O=CN1C2CCC12C#C	O=CN1[C@H]2CC[C@@]12C#C	
InChI=1S/C7H7NO/c1-2-7-4-3-6(7)8(7)5-9/h1,5-6H,3-4H2	InChI=1S/C7H7NO/c1-2-7-4-3-6(7)8(7)5-9/h1,5-6H,3-4H2/t6-,7+,8?/m0/s1
