16
gdb 58403	2.12388	1.18958	0.79802	4.9725	67.43	-0.2978	-0.0235	0.2743	1366.363	0.120684	-475.044268	-475.03423	-475.033286	-475.080536	34.053	
C	 0.0088803499	 1.5371759029	 0.0998403323	-0.430347
C	 0.0326734472	 0.0134324389	 0.0762924544	 0.118543
O	-1.2524987547	-0.5615092017	 0.1912624175	-0.414588
C	 0.7155314178	-0.5231447733	-1.2076984686	-0.074661
O	 2.0615106918	-0.0386653211	-1.2283719569	-0.183582
C	 2.656530642	 0.1194226652	-2.4402951427	 0.180641
O	 3.7698277303	 0.5238816774	-2.5477500682	-0.250367
C	 0.703779814	-1.9939934332	-1.2532176365	 0.305465
N	 0.7209348469	-3.147052301	-1.3113050284	-0.303628
H	 1.019168923	 1.949145808	 0.0548417205	 0.154726
H	-0.5591790281	 1.9314659777	-0.7530064743	 0.11208
H	-0.4713256303	 1.8797077764	 1.0195750347	 0.142791
H	 0.6060974629	-0.3647380646	 0.9287441031	 0.130631
H	-1.8609523169	-0.0739546745	-0.3755151107	 0.289225
H	 0.1661818292	-0.1482467479	-2.0833807111	 0.124783
H	 1.9958457949	-0.1559585993	-3.2836356749	 0.098289
36.3057	62.5677	123.5949	139.7544	169.246	231.2285	267.3969	293.8619	322.6941	362.5046	411.8239	455.2076	527.8545	552.1056	726.7305	874.2672	916.4572	991.8147	1036.7317	1061.7539	1067.4265	1113.0159	1147.4625	1169.6646	1255.5038	1317.6508	1346.6597	1378.2299	1402.4973	1416.4898	1431.9529	1490.0772	1496.3811	1881.9217	2366.2787	2967.0341	3010.0455	3025.6708	3073.1516	3110.5889	3142.4499	3799.99
CC(O)C(OC=O)C#N	C[C@@H](O)[C@@H](OC=O)C#N	
InChI=1S/C5H7NO3/c1-4(8)5(2-6)9-3-7/h3-5,8H,1H3	InChI=1S/C5H7NO3/c1-4(8)5(2-6)9-3-7/h3-5,8H,1H3/t4-,5+/m1/s1
