14
gdb 49837	2.32453	1.36112	0.93729	3.3189	68.39	-0.2765	-0.0634	0.2131	1175.9518	0.09867	-436.704793	-436.696312	-436.695368	-436.739235	29.401	
O	 0.6174355141	-0.3086681465	-0.3312535485	-0.237807
C	 0.3083991404	 0.784376814	 0.0614985149	 0.154247
C	 1.2294037503	 1.9817218854	 0.0212180977	-0.099036
C	 0.6703068121	 3.2320790114	-0.7364622251	-0.365334
C	 1.0965735115	 4.1032363099	 0.4435889876	 0.416755
O	 1.2629767394	 5.2653267507	 0.6210759575	-0.252136
C	 1.3820953109	 2.8407126266	 1.3393187004	-0.300198
C	 0.3901839931	 2.6229598873	 2.3770949967	 0.281199
N	-0.421456675	 2.4650796874	 3.1857748216	-0.310119
H	-0.7054522458	 0.9938668945	 0.468405405	 0.107022
H	 2.2049216866	 1.6656276827	-0.3483662145	 0.123692
H	 1.09323068	 3.4734553841	-1.713108933	 0.158914
H	-0.4237335565	 3.2122940439	-0.8214708006	 0.160015
H	 2.3846965589	 2.8323225386	 1.7751086204	 0.162785
46.3374	69.5378	126.9086	150.3491	287.7272	318.0286	394.8858	428.5808	445.8752	532.9819	559.8402	730.4257	748.3223	812.9888	885.4316	948.0944	1030.581	1035.8365	1056.6809	1092.7657	1115.8126	1185.4485	1221.5358	1242.4449	1282.6277	1308.0891	1429.6129	1435.0716	1834.6548	1922.6183	2350.3289	2896.7644	3043.7332	3088.4337	3119.7508	3131.8723
O=CC1CC(=O)C1C#N	O=C[C@H]1CC(=O)[C@H]1C#N	
InChI=1S/C6H5NO2/c7-2-5-4(3-8)1-6(5)9/h3-5H,1H2	InChI=1S/C6H5NO2/c7-2-5-4(3-8)1-6(5)9/h3-5H,1H2/t4-,5+/m1/s1
