20
gdb 40278	3.033	1.35856	1.05386	1.511	83.31	-0.2263	0.0097	0.2359	1174.5232	0.173205	-403.120478	-403.112505	-403.111561	-403.153136	31.41	
C	-0.5551990891	 1.5180892337	-0.0031567561	-0.285313
N	 0.8951750302	 1.3579731739	 0.1574125765	-0.34874
C	 0.027276625	 0.1451955682	 0.0422465015	 0.316556
C	-0.1063150631	-0.6309662415	 1.337587374	-0.263995
C	 0.8459878074	-1.8168215372	 1.4824413088	-0.096391
O	 0.4155259641	-2.9280341543	 0.7144090754	-0.237815
C	 0.8673926436	-2.9609180612	-0.6162281315	-0.13842
C	 0.4758182291	-1.8267969923	-1.5270259422	-0.083865
C	 0.1247386264	-0.5668850111	-1.257460797	-0.122223
H	-1.0711162839	 1.904444971	 0.8721064465	 0.117157
H	-0.9452481849	 1.8805306385	-0.9510391908	 0.111711
H	 1.3612776909	 1.5274784428	-0.7316866142	 0.228392
H	 0.061207217	 0.0693357272	 2.1627164458	 0.104414
H	-1.1276774516	-1.0193090921	 1.4307700558	 0.108624
H	 1.8770794662	-1.5319161398	 1.2216021665	 0.09728
H	 0.8478624149	-2.1564146221	 2.5235938554	 0.104657
H	 1.9711558304	-3.0534674206	-0.6450201849	 0.098906
H	 0.4735333065	-3.8962854336	-1.0312683674	 0.116589
H	 0.5455989781	-2.0992567756	-2.5797693106	 0.091554
H	-0.068273817	 0.0762635561	-2.1161537815	 0.080922
61.4775	148.1715	235.5408	303.0728	314.1358	346.9919	419.0722	428.6099	489.9089	566.6636	656.0636	726.2919	776.0483	842.3175	850.8954	878.3245	923.1024	949.0994	985.0572	987.5028	1001.0397	1026.7061	1040.1363	1088.7692	1105.8847	1140.3759	1174.714	1228.7456	1253.202	1265.4732	1283.3542	1320.6647	1337.583	1355.4529	1394.5066	1413.4814	1419.653	1444.9663	1461.1226	1476.2776	1499.7084	1509.8432	1730.0556	2911.3294	2990.2094	3034.5832	3050.5153	3070.2791	3085.2953	3101.9211	3111.9081	3138.3599	3186.4611	3487.4767
C1NC11CCOCC=C1	C1N[C@]21CCOCC=C2	
InChI=1S/C7H11NO/c1-2-7(6-8-7)3-5-9-4-1/h1-2,8H,3-6H2	InChI=1S/C7H11NO/c1-2-7(6-8-7)3-5-9-4-1/h1-2,8H,3-6H2/t7-/m0/s1
