17
gdb 6259	4.21275	1.06968	0.94792	3.6157	70.11	-0.2952	-0.0851	0.2101	1241.6736	0.139462	-363.895049	-363.885828	-363.884884	-363.929465	32.138	
C	-0.0248721162	 1.5114297333	-0.0204665977	-0.401294
C	 0.0465597617	-0.0140459704	 0.1261470796	 0.033452
C	 0.7054614164	-0.4145401727	 1.4537113071	-0.393231
C	-1.3557918716	-0.6242568952	-0.0136188761	-0.299677
C	-1.3758522177	-2.1194559356	-0.2282775796	 0.28496
O	-0.4126418476	-2.8258707554	-0.3859547274	-0.264654
C	-2.7358586062	-2.7123758226	-0.2617544814	 0.229694
N	-3.8016688807	-3.1603544764	-0.28438307	-0.294899
H	 0.973262775	 1.9536198794	 0.0543255936	 0.121123
H	-0.4506166847	 1.8051431006	-0.9857710604	 0.114706
H	-0.643700996	 1.9568019791	 0.7675707187	 0.117033
H	 0.6585227088	-0.4143536882	-0.6909919095	 0.099546
H	 0.7958233864	-1.4994706654	 1.5451529865	 0.135887
H	 1.7100432637	 0.0128868904	 1.528372312	 0.119478
H	 0.1238841006	-0.0429643154	 2.3061746613	 0.111959
H	-1.9835602233	-0.3996915896	 0.8608778055	 0.14146
H	-1.8975960587	-0.1867248358	-0.8659367021	 0.144456
45.8793	93.4114	122.6223	210.1795	229.2055	253.017	273.0128	332.922	345.5104	417.3165	479.3099	579.0656	608.3651	816.7483	841.9297	890.4163	931.9031	963.5295	972.6656	1062.4602	1119.4566	1162.6648	1194.8818	1245.1809	1316.0121	1361.1535	1390.3965	1400.5262	1420.6593	1434.8137	1488.6521	1494.2424	1505.3541	1513.2539	1798.8978	2336.2002	3006.5565	3026.4096	3029.4794	3033.6351	3046.5187	3092.034	3099.0997	3106.0808	3125.2164
CC(C)CC(=O)C#N	CC(C)CC(=O)C#N	
InChI=1S/C6H9NO/c1-5(2)3-6(8)4-7/h5H,3H2,1-2H3	InChI=1S/C6H9NO/c1-5(2)3-6(8)4-7/h5H,3H2,1-2H3
