21
gdb 41850	2.32697	1.95451	1.56762	1.2989	81.78	-0.2376	0.0246	0.2622	978.7466	0.186867	-387.118718	-387.111599	-387.110655	-387.149808	30.023	
C	-0.0131535963	 1.5427625332	-0.1408138502	-0.204524
C	 1.4334249503	 2.0568564172	-0.0433185207	-0.204885
C	 2.1981813411	 1.4596811543	 1.1530861172	 0.097987
C	 1.7660897546	 1.9785029643	 2.5423461383	-0.266928
C	 0.6163713331	 1.194075579	 3.1169275219	-0.063762
C	 0.1520041853	 0.0949839508	 2.528719889	-0.058168
C	 0.7625857606	-0.4154040195	 1.2472001247	 0.055527
C	-0.0502387583	 0.0142932384	 0.007449024	-0.202867
O	 2.1114717071	 0.0337623231	 1.1125788184	-0.272358
H	-0.6275390827	 1.9997027691	 0.6424358461	 0.105213
H	-0.4521238328	 1.8424532512	-1.0985006436	 0.092247
H	 1.9768375441	 1.763203974	-0.9498921709	 0.099198
H	 1.4583396627	 3.1517079849	 0.0035741776	 0.089087
H	 3.2628896212	 1.6765681801	 1.0192949996	 0.0764
H	 2.6179349192	 1.9255283083	 3.2344038548	 0.112105
H	 1.5049237454	 3.0430551706	 2.4777930467	 0.103528
H	 0.1865137204	 1.5497350892	 4.0501726064	 0.086295
H	-0.6895177944	-0.4568260114	 2.9387814308	 0.08595
H	 0.8306594293	-1.5086234602	 1.2804761417	 0.080091
H	-1.0816953129	-0.3478657051	 0.0860618143	 0.090774
H	 0.3991780332	-0.4623617413	-0.8719503659	 0.099089
136.255	228.1822	293.1666	349.5711	406.0126	428.4143	476.5415	508.736	607.9149	664.1513	721.8646	775.2391	812.0583	852.8437	860.6436	882.9812	908.4521	949.5443	959.1216	996.195	997.1544	1040.9542	1055.4154	1078.2308	1088.4484	1124.6146	1169.0844	1183.4079	1219.1713	1233.5234	1285.0244	1310.8195	1329.7676	1348.9576	1355.8549	1371.3099	1382.5653	1389.6109	1408.155	1417.5322	1466.4802	1473.7613	1481.182	1498.3594	1723.921	3008.5431	3022.7419	3026.7873	3037.7107	3040.0825	3045.364	3054.4108	3064.1943	3070.307	3085.1141	3146.7451	3172.1463
C1CC2CC=CC(C1)O2	C1C[C@H]2CC=C[C@@H](C1)O2	
InChI=1S/C8H12O/c1-3-7-5-2-6-8(4-1)9-7/h1,3,7-8H,2,4-6H2	InChI=1S/C8H12O/c1-3-7-5-2-6-8(4-1)9-7/h1,3,7-8H,2,4-6H2/t7-,8+/m0/s1
