12
gdb 5648	5.53283	2.20975	1.57908	3.4901	61.74	-0.199	-0.0097	0.1893	722.028	0.087572	-377.547085	-377.541632	-377.540687	-377.576374	21.566	
N	-0.0296388416	 1.3815706237	 0.0100284175	-0.436264
C	 1.2954205946	 1.7925660092	-0.000423343	 0.013364
N	 2.1757130771	 0.8329501711	-0.014263837	-0.347441
C	 1.4021662896	-0.3244230782	-0.0133127133	 0.221043
C	 1.4780671006	-1.6876971179	-0.0217241804	-0.111051
O	 0.2127870712	-2.1923739845	-0.0124026883	-0.15185
C	-0.6964011001	-1.1645492096	 0.0021889553	-0.132734
C	 0.0047758417	-0.0003892977	 0.0020766147	 0.266686
H	-0.8338483617	 1.9828546132	 0.0227364513	 0.267767
H	 1.5362803449	 2.847635826	 0.0032124992	 0.135312
H	 2.275163703	-2.4099333269	-0.0335231149	 0.14119
H	-1.7323894692	-1.4510239583	 0.0106497289	 0.133978
259.0648	303.1601	363.9571	495.7173	591.1818	628.7436	644.9612	709.2464	710.6488	740.1316	771.6877	881.6422	928.0378	953.0484	1040.5096	1077.7548	1146.3146	1175.4687	1242.451	1306.5673	1319.0722	1365.8223	1430.7334	1548.5352	1589.3589	1703.8874	3231.6648	3292.2058	3298.0369	3689.8636
N1C=NC2=COC=C12	[nH]1cnc2cocc12	
InChI=1S/C5H4N2O/c1-4-5(2-8-1)7-3-6-4/h1-3H,(H,6,7)	InChI=1S/C5H4N2O/c1-4-5(2-8-1)7-3-6-4/h1-3H,(H,6,7)
