21
gdb 58333	2.69927	0.80991	0.71611	2.0135	76.15	-0.262	-0.0336	0.2284	1641.6218	0.177643	-461.364017	-461.352828	-461.351884	-461.40177	38.784	
C	 0.1902205456	 1.4866102262	-0.0828199143	-0.407149
C	 0.0379701859	-0.0196592233	 0.1359448793	 0.140065
O	 0.5523970916	-0.4196648181	 1.3989472897	-0.438657
C	-1.4207761171	-0.4913764693	-0.0122234489	 0.127368
C	-1.5371688734	-2.0143496191	-0.003908787	-0.410679
O	-2.1153491698	 0.1027242017	 1.0894595095	-0.28184
C	-3.5163972382	 0.1129031673	 1.0078933629	-0.151124
C	-4.0512071292	 0.99768688	 2.1224858282	 0.141161
O	-5.2209575153	 1.1360062837	 2.3587602776	-0.234074
H	 1.2285767896	 1.7823213791	 0.0857954441	 0.124956
H	-0.0900264312	 1.7680093899	-1.1038554306	 0.108786
H	-0.4483293611	 2.0409549168	 0.6113008401	 0.119441
H	 0.6399019544	-0.5557010519	-0.6073027889	 0.085593
H	-0.0711286776	-0.0895031847	 2.0573586313	 0.285754
H	-1.8340480252	-0.0877764981	-0.9508056149	 0.068336
H	-1.0272308855	-2.4327037689	-0.8774180724	 0.120922
H	-1.0664909914	-2.4167417675	 0.8961859642	 0.139959
H	-2.5791625343	-2.3439858565	-0.0415991292	 0.114768
H	-3.8652413976	 0.5228423568	 0.0446336652	 0.124028
H	-3.961782605	-0.8877468709	 1.1131193423	 0.130394
H	-3.2550148052	 1.516587277	 2.7014161518	 0.091994
45.1834	48.8921	84.3721	89.646	138.2156	213.3234	226.8464	241.8168	275.1873	319.3885	371.2591	396.2599	472.0257	506.4611	520.1087	678.9862	739.6531	786.3589	889.6114	941.4477	993.7609	1015.9032	1044.3106	1083.7708	1100.1754	1113.2981	1138.2142	1154.0378	1179.881	1238.4836	1293.7634	1331.1724	1342.4821	1379.7461	1382.9671	1396.5247	1403.6259	1411.7418	1430.8387	1479.1602	1487.7336	1493.7922	1497.5198	1500.7145	1846.3065	2892.5447	2967.713	2975.4417	3013.8358	3037.7018	3043.6796	3048.9791	3108.5538	3112.0618	3127.2045	3135.2475	3788.2512
CC(O)C(C)OCC=O	C[C@@H](O)[C@@H](C)OCC=O	
InChI=1S/C6H12O3/c1-5(8)6(2)9-4-3-7/h3,5-6,8H,4H2,1-2H3	InChI=1S/C6H12O3/c1-5(8)6(2)9-4-3-7/h3,5-6,8H,4H2,1-2H3/t5-,6-/m1/s1
