15
gdb 51769	2.44524	1.24071	0.89484	2.6245	68.55	-0.2719	-0.0073	0.2645	1247.0003	0.109856	-457.715229	-457.706397	-457.705453	-457.750632	30.423	
O	-0.1612323094	 0.0672450093	-0.3054348754	-0.262316
C	-0.0719271104	 1.2538197605	-0.2555224302	 0.171714
O	 1.0270462535	 1.8818759016	 0.2234602058	-0.1785
C	 1.0531661104	 3.2919589087	 0.2022849453	 0.073933
C	 1.9336953572	 3.9140627273	 1.292762663	-0.101558
O	 2.7136645344	 4.6305786506	 0.3122340947	-0.269036
C	 2.0471813028	 3.9728373505	-0.7957003109	-0.127164
C	 2.8989112574	 3.0914665484	-1.5704283813	 0.358153
C	 3.5906913074	 2.3587861306	-2.2245769591	-0.429003
H	-0.8624196494	 1.9604266901	-0.5754228863	 0.082766
H	 0.0391053954	 3.696814585	 0.136008855	 0.107663
H	 1.4406256758	 4.5867723622	 2.0016197726	 0.117301
H	 2.5271601824	 3.1688302959	 1.8343565608	 0.131924
H	 1.5737711326	 4.714156084	-1.4517076038	 0.113248
H	 4.2054477097	 1.7080961951	-2.7968489702	 0.210875
28.1635	57.8588	122.3096	154.0581	206.4452	260.7702	336.871	404.2037	517.0716	547.7573	636.9097	657.9722	688.5254	815.8648	843.3407	920.1391	978.69	1018.6332	1041.3323	1057.7692	1090.2202	1140.266	1168.5599	1182.884	1241.0721	1263.8968	1341.9131	1353.9483	1393.8783	1445.1412	1516.3945	1877.8998	2238.992	2949.488	3024.9632	3036.7932	3067.126	3092.1282	3500.7727
O=COC1COC1C#C	O=CO[C@H]1CO[C@H]1C#C	
InChI=1S/C6H6O3/c1-2-5-6(3-8-5)9-4-7/h1,4-6H,3H2	InChI=1S/C6H6O3/c1-2-5-6(3-8-5)9-4-7/h1,4-6H,3H2/t5-,6-/m0/s1
