16
gdb 79442	2.52233	2.12057	1.51155	1.9218	67.6	-0.2243	-0.0149	0.2094	884.9428	0.125802	-437.834818	-437.828001	-437.827056	-437.865869	27.248	
O	 0.0214005177	 1.5007131061	 0.0364268846	-0.427939
C	 0.0297358767	 0.1035382272	-0.0112668971	 0.128761
C	-1.3337132149	-0.5763613117	-0.1108533467	-0.025964
C	-2.0095881337	-0.2581042428	-1.5026757089	-0.180215
C	-1.8680826848	-1.7786496666	-1.759867385	-0.17878
N	-0.6670272525	-1.7461877425	-0.8380784319	-0.159627
C	 0.2516124833	-0.6301355513	-1.3700764052	-0.196244
C	-0.7340080009	 0.1651427417	-2.234427351	 0.469713
O	-0.5613945687	 0.8536151142	-3.1984890921	-0.337256
H	 0.9249237188	 1.824746094	-0.0391916291	 0.295765
H	 0.6257096355	-0.3552846601	 0.7869722359	 0.096699
H	-1.9750856224	-0.7870619458	 0.744943216	 0.090198
H	-2.9154866777	 0.3232493285	-1.656326561	 0.091597
H	-2.6451091171	-2.3883001432	-1.2920663405	 0.121084
H	-1.6865390915	-2.12546565	-2.7821543373	 0.120674
H	 1.2255815521	-0.9032626879	-1.7696043206	 0.091534
142.1878	191.9518	252.1133	302.5155	433.8763	465.2226	520.0478	635.8591	695.7389	754.0145	766.9175	793.8144	832.497	854.4931	893.9901	933.7203	967.3333	987.2387	1001.852	1047.5551	1123.5824	1124.837	1137.8858	1164.2363	1173.1435	1193.9959	1198.7427	1215.0832	1241.4928	1271.3287	1311.5384	1327.2472	1425.4489	1512.4855	1891.1699	3037.567	3049.8326	3111.2558	3116.8112	3150.2746	3151.9613	3817.9308
OC1C2C3CN2C1C3=O	O[C@H]1[C@H]2[C@@H]3CN2[C@H]1C3=O	
InChI=1S/C6H7NO2/c8-5-2-1-7-3(2)6(9)4(5)7/h2-4,6,9H,1H2	InChI=1S/C6H7NO2/c8-5-2-1-7-3(2)6(9)4(5)7/h2-4,6,9H,1H2/t2-,3+,4-,6-/m0/s1
