16
gdb 9934	3.13376	1.53362	1.42586	4.3914	66.27	-0.2459	0.0232	0.2691	951.0857	0.129644	-379.909128	-379.900405	-379.899461	-379.941929	31.797	
C	-0.0045776939	 1.5359215872	 0.0149224319	-0.416279
C	 0.0669359653	 0.0268877845	 0.0237897826	-0.081502
C	 1.3435538954	-0.7065322435	-0.2242270358	 0.060168
O	 2.4876588036	 0.0612160536	-0.42948708	-0.413661
C	 0.7535921711	-0.716677768	 1.1968666854	 0.078948
N	 1.4963667296	-0.0317723111	 2.217607657	-0.569834
C	 0.124674162	-1.9430435983	 1.6270145823	 0.282359
N	-0.4023088693	-2.9251127207	 1.9392796674	-0.349253
H	 0.8982001288	 1.9883639601	 0.4275321788	 0.127403
H	-0.1196489366	 1.9044866541	-1.0091172622	 0.134606
H	-0.8642803113	 1.8855002774	 0.5955206718	 0.126639
H	-0.8166965328	-0.473396124	-0.3618547401	 0.113847
H	 1.3022907376	-1.6392284711	-0.7816918815	 0.118361
H	 3.2570286639	-0.5089128896	-0.3203009787	 0.303794
H	 2.2670260267	 0.4726091047	 1.7919169529	 0.241899
H	 0.91929429	 0.6332116448	 2.7212437582	 0.242504
127.234	132.9915	164.9686	197.0305	223.2854	254.6223	300.6036	398.1847	431.838	468.758	573.5912	584.1699	593.0626	703.9029	783.8564	839.2013	859.1328	986.7787	1023.3219	1048.2056	1085.8196	1135.2761	1171.7245	1222.2188	1269.2723	1291.8091	1315.8729	1371.6564	1414.6418	1469.5492	1491.7608	1502.8935	1651.9764	2344.0951	3044.7489	3104.0874	3133.1632	3136.5959	3157.5511	3505.2983	3587.6889	3804.8008
CC1C(O)C1(N)C#N	C[C@H]1[C@@H](O)[C@]1(N)C#N	
InChI=1S/C5H8N2O/c1-3-4(8)5(3,7)2-6/h3-4,8H,7H2,1H3	InChI=1S/C5H8N2O/c1-3-4(8)5(3,7)2-6/h3-4,8H,7H2,1H3/t3-,4+,5-/m0/s1
