23
gdb 119589	3.96576	0.91226	0.83511	0.1485	91.41	-0.2227	0.025	0.2477	1507.6557	0.206462	-351.163606	-351.154554	-351.15361	-351.19754	35.176	
C	-0.0544410903	 1.628822343	-0.1535620629	-0.380891
C	-0.0409557847	 0.0992908519	-0.2179045897	-0.158357
C	-1.3657676885	-0.5301477841	 0.238025913	-0.288358
C	-1.379899158	-2.0431972854	 0.1759054588	 0.357
C	-1.6420114864	-2.7554530554	-1.1409339705	-0.31626
C	-2.6428744043	-2.8748148321	-0.0184675963	-0.107383
C	-2.5592530917	-4.0926505027	 0.9005853226	-0.276675
C	-1.1786309832	-3.9719869538	 1.5131248853	-0.081265
C	-0.5600046059	-2.8513567939	 1.1352650531	-0.139251
H	 0.8989737021	 2.0520526608	-0.4850743305	 0.109894
H	-0.842910688	 2.0451635666	-0.790813368	 0.112045
H	-0.2377720821	 1.9807829979	 0.8678923104	 0.113157
H	 0.1763472439	-0.2279941428	-1.2424409893	 0.098169
H	 0.7797317084	-0.2832763044	 0.4022482784	 0.096162
H	-1.5886966831	-0.2033046174	 1.2633438184	 0.093004
H	-2.1787861608	-0.1406957753	-0.3890731463	 0.0894
H	-1.9340412278	-2.1427037071	-1.9890899057	 0.102614
H	-1.0277035219	-3.6138713708	-1.3941928614	 0.106342
H	-3.6011395373	-2.3843321061	-0.1489195292	 0.080396
H	-3.3418115865	-4.0724579534	 1.6715378417	 0.104422
H	-2.6894861461	-5.0381382425	 0.3574755412	 0.106884
H	-0.7584293842	-4.733186951	 2.1611220611	 0.089503
H	 0.4327886866	-2.5491314922	 1.4507364757	 0.089448
79.1941	88.3704	122.648	242.1624	263.4457	271.2411	317.4018	352.0398	422.7079	488.1237	670.473	725.1528	743.1794	749.5434	770.6441	840.6386	864.2092	888.2845	916.4182	922.5307	941.9158	956.4913	974.9403	1014.3789	1033.8002	1050.5959	1065.2522	1086.5627	1109.3249	1129.9353	1136.5725	1193.2738	1239.8165	1255.7522	1286.1787	1310.2629	1320.6869	1331.4654	1365.7752	1391.3387	1407.6826	1413.0995	1472.0481	1480.3723	1487.4973	1493.7045	1499.6614	1510.6079	1670.1757	3004.0624	3009.9944	3023.0958	3028.166	3034.5767	3036.684	3059.1076	3094.5962	3100.4511	3114.1951	3166.5003	3179.7106	3202.2204	3205.2888
CCCC12CC1CC=C2	CCC[C@]12C[C@H]1CC=C2	
InChI=1S/C9H14/c1-2-5-9-6-3-4-8(9)7-9/h3,6,8H,2,4-5,7H2,1H3	InChI=1S/C9H14/c1-2-5-9-6-3-4-8(9)7-9/h3,6,8H,2,4-5,7H2,1H3/t8-,9+/m1/s1
