23
gdb 95497	2.16432	1.43924	0.91817	1.1538	88.57	-0.2404	0.0209	0.2612	1348.3652	0.205925	-388.30121	-388.29179	-388.290846	-388.335693	36.163	
C	-0.2803847877	 1.4574973425	 0.0709225177	-0.395479
C	 0.0308417628	-0.0365479962	 0.0340423561	 0.109201
C	 0.5262481697	-0.4836663504	-1.3459454166	-0.171537
C	 0.4907135345	-1.9947398442	-1.6221920631	-0.042401
C	 1.0109249647	-2.2817150942	-3.0420440958	-0.401877
C	 1.2014952084	-2.8767361299	-0.6200732906	-0.032246
C	 1.4294473301	-2.7018569721	 0.6818061099	-0.086768
C	 1.0689722246	-1.5507901128	 1.5862774839	-0.130784
O	 1.0297523834	-0.262167995	 1.0221573129	-0.247532
H	 0.6080580744	 2.036614307	-0.2010799642	 0.123084
H	-1.0833807189	 1.7067038573	-0.6290426875	 0.109808
H	-0.5862333281	 1.7559720047	 1.0769717549	 0.118131
H	-0.880308954	-0.5993687809	 0.3030960438	 0.059531
H	-0.0779637801	 0.0105014351	-2.1172600838	 0.086892
H	 1.5521943227	-0.1106553969	-1.457109868	 0.103169
H	-0.5696179051	-2.3000426181	-1.6029625344	 0.08564
H	 2.0677873517	-2.0069088618	-3.1324994689	 0.120408
H	 0.9195205688	-3.3438226936	-3.2912640961	 0.111546
H	 0.4501240919	-1.7115402534	-3.7893746967	 0.109832
H	 1.5279229666	-3.8283736658	-1.0391825391	 0.080736
H	 1.9070351125	-3.5234187064	 1.2151390446	 0.085116
H	 0.103061452	-1.7804043909	 2.0775416128	 0.094518
H	 1.812591925	-1.488428734	 2.388985848	 0.111014
33.5038	133.1326	193.0263	221.6478	237.503	284.5278	309.1303	344.5582	371.8034	390.7895	476.7019	512.609	546.2367	707.3383	738.6782	831.7504	835.6162	886.1606	906.0153	957.318	972.3301	1005.0132	1020.6595	1031.95	1063.5121	1092.0121	1124.6747	1151.7597	1177.3375	1191.5571	1231.7161	1281.5792	1296.9266	1308.1315	1334.8239	1364.2751	1383.218	1392.0015	1407.6883	1408.2771	1416.4653	1437.0016	1468.6166	1477.5972	1486.549	1498.3749	1500.3632	1501.544	1734.8223	2913.0323	2947.0232	2954.9802	3018.3854	3029.968	3041.0204	3054.8814	3063.6117	3098.4155	3103.1511	3113.2255	3113.3335	3122.254	3138.5689
CC1CC(C)C=CCO1	C[C@H]1C[C@@H](C)C=CCO1	
InChI=1S/C8H14O/c1-7-4-3-5-9-8(2)6-7/h3-4,7-8H,5-6H2,1-2H3	InChI=1S/C8H14O/c1-7-4-3-5-9-8(2)6-7/h3-4,7-8H,5-6H2,1-2H3/t7-,8-/m0/s1
