15
gdb 56457	2.02175	1.29353	1.01065	2.5889	72.28	-0.2608	-0.045	0.2158	1219.2901	0.107786	-420.562193	-420.552448	-420.551504	-420.59817	34.69	
O	-0.5621688648	 0.3652469416	-0.7656173629	-0.411981
C	 0.3377004152	-0.4572662177	-0.075330193	-0.113119
C	 1.7248150655	-0.3015348565	-0.5343903217	 0.323326
C	 2.8626492322	-0.1618917235	-0.8952612735	-0.475999
C	 0.2831626293	-0.1399216672	 1.438000558	 0.377428
O	-0.3797367204	 0.7944552403	 1.8144683926	-0.307389
C	 1.1054518783	-0.9954090968	 2.403009499	-0.438751
C	 0.9434357514	-2.4282144618	 2.1984080526	 0.295112
C	 0.7910530945	-3.607510087	 2.0279892495	-0.440507
H	-0.8301143066	 1.0447228507	-0.1254624538	 0.296683
H	 0.0432039492	-1.5094211837	-0.1995407045	 0.140196
H	 3.8625413962	-0.0437030894	-1.2342967399	 0.208142
H	 2.1576650696	-0.7153525718	 2.259080841	 0.174411
H	 0.8213935512	-0.70117555	 3.4177154052	 0.162372
H	 0.6637066091	-4.6517851272	 1.8812396113	 0.210074
19.3318	69.3952	124.5018	137.7706	232.1766	282.6711	327.1006	362.0078	395.2803	413.6603	502.6289	539.8398	575.7333	631.6882	632.2751	654.9945	679.1904	681.1597	817.9475	931.9307	975.0281	984.4787	1098.0925	1154.0499	1199.0696	1265.1277	1305.4698	1335.6498	1431.4371	1442.7127	1817.3285	2230.2044	2242.935	3011.6301	3030.8668	3092.0568	3500.334	3503.27	3681.7334
OC(C#C)C(=O)CC#C	O[C@@H](C#C)C(=O)CC#C	
InChI=1S/C7H6O2/c1-3-5-7(9)6(8)4-2/h1-2,6,8H,5H2	InChI=1S/C7H6O2/c1-3-5-7(9)6(8)4-2/h1-2,6,8H,5H2/t6-/m0/s1
