21
gdb 115646	2.96015	1.12266	0.95025	0.37	78.32	-0.2498	0.0581	0.3079	1322.3659	0.181813	-424.186085	-424.176904	-424.17596	-424.220868	33.324	
C	 0.3231988586	 1.6302169857	 0.1082019314	-0.385866
C	 0.0454454467	 0.1246395075	 0.0511558887	-0.194524
C	 0.5139104767	-0.4902428827	-1.2563685157	 0.094377
O	 1.9485648236	-0.3737763563	-1.4366081288	-0.29723
C	 2.0906334875	-1.7969654979	-1.6024048872	-0.132012
C	 0.587879237	-2.029513824	-1.388467866	 0.204378
C	 0.0343368543	-3.0176410447	-0.3449076425	-0.134352
O	-0.7523579789	-3.7028890837	-1.3397940639	-0.273876
C	-0.2816049577	-2.8219885626	-2.3786862111	-0.133269
H	 1.3903548855	 1.825162502	-0.0286268193	 0.140141
H	-0.2201821604	 2.1624559877	-0.6802389097	 0.114898
H	 0.0170841566	 2.0518455349	 1.0698894179	 0.112957
H	 0.5513401809	-0.379317893	 0.8840607566	 0.098762
H	-1.0294448099	-0.0689701741	 0.1649738861	 0.100243
H	-0.0148367616	-0.0204547687	-2.1009657783	 0.0699
H	 2.4651580338	-2.0628763301	-2.6003737966	 0.101335
H	 2.753395724	-2.2376714873	-0.8459015528	 0.103078
H	 0.7835646849	-3.6761850265	 0.1148850841	 0.101036
H	-0.5903034482	-2.5849549632	 0.4461351117	 0.106053
H	-1.1003026856	-2.2560128455	-2.8437369801	 0.102233
H	 0.2681136022	-3.3612340076	-3.1619535843	 0.101738
63.0486	73.6808	107.1153	155.2345	217.1252	252.8052	286.6762	340.0075	438.0007	478.9522	530.5163	762.1763	831.3201	857.0527	879.7641	896.5356	932.4481	963.969	974.5587	992.1117	1029.1455	1041.8768	1058.3934	1105.8621	1121.511	1151.4705	1158.9247	1160.8015	1197.6322	1225.8914	1247.3695	1276.7121	1295.2406	1309.2189	1332.6544	1370.3196	1388.5468	1402.6432	1409.0113	1473.9504	1497.454	1506.198	1508.8125	1520.673	1532.8949	2973.2426	2993.8589	2999.1919	3009.0336	3018.7916	3037.7765	3038.0344	3042.237	3051.4568	3059.131	3105.1952	3122.2165
CCC1OCC11COC1	CC[C@H]1OCC21COC2	
InChI=1S/C7H12O2/c1-2-6-7(5-9-6)3-8-4-7/h6H,2-5H2,1H3	InChI=1S/C7H12O2/c1-2-6-7(5-9-6)3-8-4-7/h6H,2-5H2,1H3/t6-/m1/s1
