21
gdb 115517	2.26418	1.2006	0.8758	2.8236	74.53	-0.2517	0.0684	0.3201	1364.0127	0.18315	-461.364516	-461.355123	-461.354179	-461.399529	34.813	
O	 0.0695503634	 1.1503584844	 0.7339983232	-0.4215
C	-0.0387817611	-0.1990127558	 0.3365865927	-0.057745
C	-1.4537111192	-0.5330797032	-0.135263276	 0.113634
C	-1.6979230127	-2.0377204873	-0.3511806554	-0.262724
C	-2.3730039543	-2.477245558	 0.9594845185	-0.24415
C	-3.1654753444	-1.2289229016	 1.3478911437	 0.128165
C	-3.4208572227	-1.0360865905	 2.8349625928	-0.066033
O	-4.1122087216	 0.1680317324	 3.0988923843	-0.422648
O	-2.3681841308	-0.1212241216	 0.8996763459	-0.320784
H	-0.6776376918	 1.3060404173	 1.3242067417	 0.284354
H	 0.6707398073	-0.3523986259	-0.4842644106	 0.106208
H	 0.2417974305	-0.8858318232	 1.1540423265	 0.07764
H	-1.6759120674	 0.0569460909	-1.0328039023	 0.084898
H	-2.3699442269	-2.1981293808	-1.1991510015	 0.111726
H	-0.7706585696	-2.5799681264	-0.5566038024	 0.1108
H	-3.0075705535	-3.3582165908	 0.8398676229	 0.110025
H	-1.6238885991	-2.7006414697	 1.7277335595	 0.108577
H	-4.1314517465	-1.2024648679	 0.8194483293	 0.078436
H	-4.0476100164	-1.8507806005	 3.2138005675	 0.107996
H	-2.455175396	-1.0756863394	 3.3661548242	 0.083912
H	-3.6269159272	 0.8642276678	 2.6418271457	 0.289212
44.4886	96.1665	112.1462	159.1582	221.6235	251.3157	382.0995	399.6432	426.7104	447.3977	471.5478	488.0007	599.8364	703.0845	804.1088	835.5447	902.6426	940.7494	953.1677	993.0803	1029.8078	1040.9663	1069.9529	1091.318	1105.0665	1117.9152	1143.5168	1193.0272	1213.7376	1232.2925	1232.9786	1293.9269	1319.8336	1334.5794	1350.8085	1360.9433	1370.9791	1391.0735	1410.2536	1436.2762	1443.6617	1486.8672	1495.4403	1499.1354	1505.8555	2954.1361	2965.7146	2985.5481	3030.0899	3047.0833	3058.1186	3069.4287	3072.8022	3099.5654	3113.5947	3790.0368	3804.6494
OCC1CCC(CO)O1	OC[C@H]1CC[C@@H](CO)O1	
InChI=1S/C6H12O3/c7-3-5-1-2-6(4-8)9-5/h5-8H,1-4H2	InChI=1S/C6H12O3/c7-3-5-1-2-6(4-8)9-5/h5-8H,1-4H2/t5-,6+
