18
gdb 76455	2.23401	1.35429	1.21422	1.26	81.83	-0.2362	-0.0415	0.1947	1154.3004	0.143348	-401.890809	-401.880884	-401.87994	-401.925007	36.203	
C	 0.0123346689	 1.607687414	 0.3082960698	-0.439295
C	 0.0888267881	 0.1026481959	 0.202127186	-0.01715
N	 1.2662085195	-0.632020843	-0.1556056611	-0.122729
C	 2.5345456913	 0.0332471687	-0.447165902	-0.335313
C	 0.7892778637	-0.7959595558	 1.2437048539	-0.025689
C	 1.4836396292	-0.1548267542	 2.4069903936	 0.100051
O	 2.1091958017	 0.8805139932	 2.3847903061	-0.275289
C	 0.2179734162	-2.0839780244	 1.5520169101	 0.261205
C	-0.2670494837	-3.1431192614	 1.8492897727	-0.389564
H	 0.8461961688	 2.0320886172	 0.8654350186	 0.165038
H	-0.0019063659	 2.0430443477	-0.6972725441	 0.129464
H	-0.9203789913	 1.8941564974	 0.8036959113	 0.129664
H	-0.8202136079	-0.3587947561	-0.1843388986	 0.111925
H	 2.7837473311	 0.8704211771	 0.2094753243	 0.150976
H	 3.3313887324	-0.7127806689	-0.3797968004	 0.132543
H	 2.487028768	 0.382446993	-1.4832705222	 0.128198
H	 1.3811802796	-0.7417290546	 3.3433318331	 0.098381
H	-0.69034168	-4.0855675058	 2.0952123287	 0.197583
126.6139	144.1057	151.1109	164.2342	181.9292	216.3013	222.0858	266.8716	351.0612	370.3167	496.8173	508.2674	541.877	564.9131	602.7639	663.2248	707.0185	743.912	810.8837	964.9328	1020.7703	1043.2904	1078.5496	1112.1459	1133.1259	1157.3148	1186.6569	1231.5705	1353.7295	1389.0964	1414.9269	1431.0186	1449.3791	1478.2557	1494.9721	1498.8399	1519.7241	1789.3491	2236.9312	2917.9028	3038.7902	3042.9941	3100.569	3103.7734	3111.3609	3120.6907	3165.9712	3501.5064
CC1N(C)C1(C=O)C#C	C[C@H]1N(C)[C@]1(C=O)C#C	
InChI=1S/C7H9NO/c1-4-7(5-9)6(2)8(7)3/h1,5-6H,2-3H3	InChI=1S/C7H9NO/c1-4-7(5-9)6(2)8(7)3/h1,5-6H,2-3H3/t6-,7+,8?/m1/s1
