18
gdb 99951	2.31458	1.23709	1.05181	3.3947	73.26	-0.2793	-0.09	0.1893	1231.6002	0.143608	-439.109764	-439.099233	-439.098289	-439.145921	37.033	
C	 0.2886250311	 1.4163720139	 0.2621758821	-0.396606
C	 0.1873204727	-0.0765762792	-0.0662974938	-0.22392
C	 0.6024998923	-0.4317273382	-1.5160970733	 0.230166
C	-0.2966539445	 0.1960267984	-2.5787030356	-0.413478
O	 1.9312601169	-0.015335991	-1.8016259157	-0.452873
C	 0.5274180775	-1.9649714197	-1.6356625953	 0.293251
O	-0.4183313249	-2.5968740444	-2.0238455462	-0.27715
C	 1.7596396928	-2.6638849315	-1.1826169697	 0.221968
N	 2.7044577993	-3.2009526151	-0.7865585445	-0.30776
H	 1.2802941655	 1.8056614427	 0.0171202954	 0.131447
H	-0.4494173491	 2.0034812591	-0.290690177	 0.129873
H	 0.1106322216	 1.579284255	 1.3286911599	 0.124293
H	 0.8301501348	-0.6438533384	 0.6219863627	 0.109401
H	-0.8332368246	-0.4393792571	 0.1003866199	 0.12342
H	-0.2853311509	 1.2828618671	-2.483865545	 0.132664
H	 0.0694203852	-0.0643616704	-3.5747008365	 0.138435
H	-1.3195577846	-0.170192485	-2.4779135387	 0.140517
H	 2.5116150888	-0.2716284161	-1.0746520087	 0.296352
27.0672	85.4517	140.0279	156.8091	191.1235	233.7088	268.8732	275.7867	306.797	342.9055	354.0568	393.2799	430.8479	495.9332	642.8665	683.4485	742.3745	790.8842	837.1888	940.6097	1002.9551	1009.9461	1065.8831	1072.4117	1133.2265	1198.1859	1212.3246	1294.1294	1367.099	1385.0548	1408.5973	1416.8139	1476.2929	1484.9494	1493.0099	1503.6064	1509.4461	1803.9675	2331.4118	3010.2372	3050.0196	3065.2203	3067.9808	3119.2318	3126.3443	3140.0793	3155.7351	3792.262
CCC(C)(O)C(=O)C#N	CC[C@@](C)(O)C(=O)C#N	
InChI=1S/C6H9NO2/c1-3-6(2,9)5(8)4-7/h9H,3H2,1-2H3	InChI=1S/C6H9NO2/c1-3-6(2,9)5(8)4-7/h9H,3H2,1-2H3/t6-/m1/s1
