19
gdb 86038	2.77122	1.16966	0.99176	0.9262	77.22	-0.2507	0.0439	0.2946	1245.4727	0.15657	-422.979507	-422.970112	-422.969167	-423.013405	36.238	
O	-0.9590372911	 1.1110082459	 0.7706219279	-0.430683
C	-0.14947289	 0.1531338868	 0.1035693622	 0.115952
C	 0.5465443518	-0.8562411725	 1.0604880369	-0.308001
C	-0.6304722596	-1.838506349	 0.841775246	 0.425652
O	-0.191202993	-3.154612889	 0.6106879011	-0.484462
C	-1.6740637478	-1.7938304744	 1.9790757108	-0.404261
C	-2.8172065005	-2.6487865901	 1.6799914439	 0.264447
C	-3.7157928743	-3.3898937429	 1.3774782816	-0.432669
C	-1.0459103959	-0.9966770588	-0.4080861232	-0.282228
H	-0.3759847317	 1.7032863115	 1.2569280345	 0.283008
H	 0.4958971435	 0.6392949864	-0.6378371112	 0.0701
H	 1.4608962511	-1.2700855968	 0.6285544015	 0.113825
H	 0.7452707163	-0.5179324721	 2.0820815232	 0.091336
H	-0.9758686133	-3.7142408014	 0.5410904273	 0.279667
H	-1.1930129277	-2.1319231093	 2.9056410419	 0.129494
H	-1.9944123833	-0.7579723103	 2.1295633942	 0.149853
H	-4.5330102544	-4.0242283612	 1.1374406948	 0.198906
H	-2.1026175526	-0.7553465257	-0.540511918	 0.113293
H	-0.6484394275	-1.451421537	-1.3177463052	 0.10677
72.2203	113.6777	136.5984	241.343	309.3945	335.5645	347.9099	369.975	392.9516	411.6724	423.8019	446.6184	535.233	622.7327	652.4871	708.0322	817.1046	827.6868	852.1152	908.3971	932.3565	950.9912	975.8084	994.1758	1055.5854	1068.9772	1135.1499	1171.425	1194.5665	1239.3988	1246.6848	1260.7672	1304.5627	1309.6465	1324.0695	1400.2535	1414.6462	1451.0755	1470.5178	1478.8461	2228.016	3022.1821	3029.715	3053.1956	3073.3368	3086.838	3118.9174	3135.8239	3504.254	3758.8391	3810.1118
OC1CC(O)(CC#C)C1	O[C@H]1C[C@@](O)(CC#C)C1	
InChI=1S/C7H10O2/c1-2-3-7(9)4-6(8)5-7/h1,6,8-9H,3-5H2	InChI=1S/C7H10O2/c1-2-3-7(9)4-6(8)5-7/h1,6,8-9H,3-5H2/t6-,7-
