18
gdb 42978	2.72981	1.73687	1.30269	2.6559	76.25	-0.2124	-0.0119	0.2005	1005.4145	0.149229	-401.940311	-401.932868	-401.931923	-401.972091	29.922	
O	 0.067069453	 0.0848401647	 0.3239533903	-0.354431
C	 0.0020401048	 1.2725181898	 0.1019060339	 0.385583
C	-1.2169815359	 2.0939628047	-0.1493116275	-0.182463
C	-1.3380488648	 3.3207218435	 0.7659507961	-0.288305
C	-0.6902870932	 3.4686785582	-0.5609648783	-0.010463
N	 0.7700986321	 3.4768571886	-0.5768282997	-0.367924
C	 1.1838506446	 2.2117407314	 0.0146449175	 0.203212
C	 2.1970371364	 2.1675688502	 1.1507195793	-0.275419
C	 2.5618239643	 1.6573493098	-0.2105880572	-0.324562
H	-2.1114303841	 1.6177388092	-0.5285709356	 0.108026
H	-2.3418720589	 3.7124541239	 0.8826235406	 0.126188
H	-0.7260886012	 3.3653606062	 1.6603866205	 0.134279
H	-1.166182258	 4.0577785033	-1.334969996	 0.102427
H	 1.0695692314	 3.4899926477	-1.5476653022	 0.226175
H	 2.596530785	 3.1261746692	 1.4603712124	 0.125942
H	 2.0240779727	 1.443036144	 1.9388732485	 0.13181
H	 2.6187617414	 0.5837289378	-0.354968044	 0.140852
H	 3.2387558904	 2.2527420278	-0.8141475685	 0.119073
89.9273	199.5067	235.2905	247.4474	375.2901	426.3085	448.8859	565.2267	619.3891	689.1857	751.2148	775.2339	782.7636	813.8894	825.1647	884.5583	908.6898	947.5973	953.0423	976.9804	1016.2481	1027.4296	1057.2428	1062.6958	1088.3577	1091.0628	1125.7902	1149.5542	1195.2041	1203.879	1286.7365	1300.5741	1346.8491	1373.0363	1441.5442	1450.9347	1478.4917	1490.0065	1816.6783	3130.9413	3137.4362	3137.895	3190.8774	3203.4373	3221.3675	3228.4957	3239.0014	3496.5303
O=C1C2CC2NC11CC1	O=C1[C@H]2C[C@H]2NC21CC2	
InChI=1S/C7H9NO/c9-6-4-3-5(4)8-7(6)1-2-7/h4-5,8H,1-3H2	InChI=1S/C7H9NO/c9-6-4-3-5(4)8-7(6)1-2-7/h4-5,8H,1-3H2/t4-,5+/m0/s1
