21
gdb 110069	1.60135	1.41623	0.94444	2.8061	81.54	-0.2402	-0.0182	0.222	1363.5394	0.179153	-424.22853	-424.218103	-424.217159	-424.263911	38.186	
C	 3.1009391538	 0.663550232	 0.5991143301	-0.373983
C	 1.7973445323	-0.1326102324	 0.4695636284	-0.219662
C	 1.5804390578	-0.6724035616	-0.9311605813	-0.049758
C	 2.2982237816	-1.9273659029	-1.4740138885	-0.194677
C	 3.1750302772	-2.7682149535	-0.639030415	 0.154377
O	 4.1145355574	-3.3983547815	-1.0688150142	-0.280596
C	 0.7659234318	-1.8672416874	-1.2645392437	 0.357638
C	 0.0745732891	-2.7229356482	-0.2267157941	-0.459083
O	 0.0233614984	-1.7148449704	-2.4426365083	-0.453726
H	 3.9725064399	 0.0345910072	 0.3904643167	 0.128905
H	 3.1227790101	 1.5017527096	-0.1054538184	 0.12019
H	 3.2131621537	 1.0711281763	 1.6081512016	 0.115758
H	 1.7880244777	-0.9395411087	 1.2090166664	 0.100796
H	 0.9463864204	 0.5134536224	 0.7206281676	 0.108373
H	 1.5129002098	 0.1033900368	-1.6900368791	 0.110005
H	 2.608282821	-1.8805994007	-2.5125061412	 0.108071
H	 2.9248196136	-2.8063265077	 0.4446679728	 0.062082
H	 0.6362803569	-2.7962065651	 0.7062472448	 0.126354
H	-0.9115912045	-2.3032040733	-0.0049979232	 0.134359
H	-0.0681086874	-3.7424983832	-0.6042136694	 0.119696
H	-0.1120256606	-2.5891627379	-2.8263438719	 0.284885
60.0821	100.878	142.6499	190.2327	197.0696	219.3903	255.0111	276.0172	304.8612	343.7272	396.7337	437.2863	462.1664	527.7329	534.3891	669.8899	774.5977	827.2679	901.5817	942.5607	967.5328	1000.7756	1036.269	1055.0282	1057.2354	1088.6368	1118.3791	1140.8726	1175.1665	1227.2087	1269.0362	1293.7881	1302.5264	1338.5532	1383.8007	1413.9225	1418.3492	1438.9022	1461.1747	1486.9258	1489.2749	1497.4401	1505.521	1517.0871	1796.8675	2872.0166	3028.3062	3034.2411	3035.4452	3069.3033	3096.2322	3104.921	3109.9233	3135.2433	3143.7098	3176.6833	3788.633
CCC1C(C=O)C1(C)O	CC[C@H]1[C@@H](C=O)[C@]1(C)O	
InChI=1S/C7H12O2/c1-3-5-6(4-8)7(5,2)9/h4-6,9H,3H2,1-2H3	InChI=1S/C7H12O2/c1-3-5-6(4-8)7(5,2)9/h4-6,9H,3H2,1-2H3/t5-,6+,7+/m0/s1
