21
gdb 101550	3.28449	0.75116	0.6783	1.1421	80.16	-0.2501	-0.0941	0.156	1722.7095	0.178568	-424.257283	-424.246459	-424.245514	-424.294386	37.763	
C	 0.0054047733	 1.4145818229	 0.2778664927	-0.392496
C	 0.1700195369	-0.0892965446	 0.0376924808	-0.176008
C	 0.8157841907	-0.458721379	-1.3111090183	 0.044357
C	 2.2490325803	 0.0768805475	-1.4460071847	-0.400105
C	 0.782426173	-1.9810424384	-1.5062604117	-0.314446
C	 1.0332081673	-2.4470823633	-2.9196759798	 0.279408
O	 1.1088315244	-1.7342694589	-3.8948601895	-0.279687
C	 1.1805644412	-3.9621946526	-3.1395710103	 0.097288
O	 1.156483962	-4.7732127147	-2.252150646	-0.219375
H	 0.9689373464	 1.9282975615	 0.3432550094	 0.120802
H	-0.5678369276	 1.8832821862	-0.5299579994	 0.116124
H	-0.5284065861	 1.6011758059	 1.2148097417	 0.114162
H	 0.7625425201	-0.5283787293	 0.8526975825	 0.094406
H	-0.8174876227	-0.5658170779	 0.0929566465	 0.091762
H	 0.2127141168	-0.0131679881	-2.1132281863	 0.089334
H	 2.8906886388	-0.3203358077	-0.6496733733	 0.108636
H	 2.6828865436	-0.2049110897	-2.4085748625	 0.129518
H	 2.2763904147	 1.1677582423	-1.3823912906	 0.119337
H	 1.4935360736	-2.4957304765	-0.8461547558	 0.136274
H	-0.1959664704	-2.3961881458	-1.2198126664	 0.133729
H	 1.3174505937	-4.2254648799	-4.210167119	 0.10698
35.225	69.8648	102.509	123.691	130.754	211.0641	216.7006	258.4337	277.6974	339.236	414.9959	438.2745	463.0117	515.9309	641.7538	776.3788	807.7365	821.8307	862.3433	935.8259	973.6379	985.5298	1026.6975	1049.8194	1125.3507	1130.086	1167.4068	1193.3461	1233.7168	1289.2773	1313.5083	1363.2769	1371.6629	1375.1797	1393.964	1410.8162	1414.3343	1433.1318	1484.2911	1497.3438	1498.5957	1507.1863	1517.7343	1799.3811	1825.5154	2919.8696	3005.7398	3010.8072	3020.4451	3032.0061	3035.2179	3042.3354	3052.6588	3100.139	3103.1534	3111.4499	3124.3542
CCC(C)CC(=O)C=O	CC[C@@H](C)CC(=O)C=O	
InChI=1S/C7H12O2/c1-3-6(2)4-7(9)5-8/h5-6H,3-4H2,1-2H3	InChI=1S/C7H12O2/c1-3-6(2)4-7(9)5-8/h5-6H,3-4H2,1-2H3/t6-/m1/s1
