17
gdb 39230	2.63595	2.30314	1.63376	2.0197	71.47	-0.2143	0.0003	0.2146	855.501	0.137893	-421.770948	-421.764575	-421.763631	-421.801222	27.119	
C	-0.0195215886	 1.4678658835	 0.1351342661	-0.424821
C	 1.330138788	 0.7931142862	-0.0127846236	 0.071412
O	 2.1518819268	 0.4234171659	 1.0531308034	-0.242137
C	 2.3063021477	-1.0078718719	 1.0655649966	-0.092382
C	 0.9184904519	-1.7374575577	 0.8957126918	-0.007183
O	-0.0553034605	-0.7295564395	 1.1611450849	-0.252123
C	 0.0430518853	-0.0105611536	-0.0540631843	 0.354748
C	-0.0193373803	-1.0746094983	-1.1183987681	-0.17126
C	 0.5697814105	-2.131316608	-0.5550861974	-0.105605
H	-0.3517379484	 1.7893567996	 1.1160323306	 0.140808
H	-0.3184843949	 2.1062063739	-0.6896292752	 0.123438
H	 1.8533157392	 0.9685704909	-0.9533182218	 0.082275
H	 3.0138228455	-1.3231286055	 0.285313924	 0.095253
H	 2.737722754	-1.2416585977	 2.0414483033	 0.115613
H	 0.8100791723	-2.549713284	 1.6173334678	 0.088466
H	-0.3699290271	-0.9511408107	-2.1331492208	 0.115211
H	 0.7983040487	-3.087927093	-1.0046192373	 0.108287
211.4263	268.0311	343.3651	395.0578	453.4319	491.6968	589.195	623.3255	690.6463	710.5679	794.0281	812.39	847.2133	859.6625	870.3598	888.4713	914.1392	933.1217	1012.0363	1031.0011	1039.832	1058.7522	1064.3424	1105.4201	1120.5497	1174.4216	1196.8896	1250.3657	1284.0172	1314.4327	1331.9395	1345.44	1375.2984	1412.7061	1465.8222	1499.8164	1629.0249	3000.2271	3088.7015	3093.7146	3105.3967	3135.1493	3220.409	3229.2762	3246.8962
C1C2OCC3OC12C=C3	C1[C@H]2OC[C@H]3O[C@@]12C=C3	
InChI=1S/C7H8O2/c1-2-7-3-6(7)8-4-5(1)9-7/h1-2,5-6H,3-4H2	InChI=1S/C7H8O2/c1-2-7-3-6(7)8-4-5(1)9-7/h1-2,5-6H,3-4H2/t5-,6+,7-/m0/s1
