13
gdb 44271	3.23042	1.52021	1.2272	2.6103	57.82	-0.2654	-0.0661	0.1994	959.7963	0.089303	-493.722563	-493.71563	-493.714685	-493.754526	25.356	
O	-0.228185774	 0.355594407	 0.7094160546	-0.295243
C	-0.0371587668	 1.3874670411	 0.1626380516	 0.421839
O	-0.9724998919	 2.2082462498	-0.4443814622	-0.251849
C	 0.0395295157	 3.213621013	-0.7922448005	-0.031953
C	 1.1414595439	 2.3496306787	-0.1582434781	-0.070263
O	 1.7050322497	 3.0342041245	 0.9388598926	-0.251204
C	 0.792853505	 4.0348045925	 1.3836064543	-0.208531
C	-0.0645656246	 4.4068454667	 0.1675054815	 0.388851
O	-0.6789235787	 5.4215784283	-0.0025350641	-0.274674
H	 0.0242361586	 3.4589477998	-1.8519288531	 0.128069
H	 1.9387588064	 1.9307492772	-0.771512955	 0.137871
H	 0.1440740447	 3.6651443292	 2.1926067592	 0.150252
H	 1.3586440219	 4.8915642423	 1.7549869993	 0.156836
82.9335	124.2171	235.1833	253.1382	424.3168	464.1526	532.5776	634.4324	641.6226	733.3433	788.9335	807.4186	887.348	922.9554	948.6275	983.6833	1024.5644	1083.1595	1116.7282	1169.9798	1208.7665	1226.8606	1239.1264	1284.5228	1318.5249	1358.2338	1479.6277	1872.2812	1954.1506	2999.3729	3116.4613	3129.8841	3152.1958
O=C1OC2C1OCC2=O	O=C1O[C@@H]2[C@H]1OCC2=O	
InChI=1S/C5H4O4/c6-2-1-8-4-3(2)9-5(4)7/h3-4H,1H2	InChI=1S/C5H4O4/c6-2-1-8-4-3(2)9-5(4)7/h3-4H,1H2/t3-,4+/m0/s1
