23
gdb 94040	4.62537	0.7875	0.70799	0.7776	91.54	-0.2568	0.058	0.3149	1650.8061	0.20554	-351.147866	-351.138004	-351.13706	-351.183259	37.1	
C	-0.1877130334	 1.5455437983	 0.0175679732	-0.408863
C	 0.0573434857	 0.038092388	 0.0163518739	 0.049739
C	 0.8596894161	-0.4744101022	-1.20666879	-0.215283
C	 1.6336236005	-1.7333108936	-0.7243232501	-0.212994
C	 1.2781801176	-1.9032054925	 0.7745384257	 0.043371
C	 2.4009080987	-2.5199208598	 1.6286480462	-0.383807
C	 2.7508875057	-3.8797926604	 1.2324709932	 0.305352
C	 3.0185869045	-5.001450111	 0.8921935267	-0.448981
C	 0.8633311503	-0.4905170851	 1.2144248402	-0.223783
H	 0.7612174922	 2.0949922719	 0.0222448926	 0.110532
H	-0.7470784573	 1.8583056179	-0.8708158696	 0.111897
H	-0.759867052	 1.8599133541	 0.8971927328	 0.109957
H	-0.916837157	-0.470733498	 0.0257185673	 0.069664
H	 0.2069221485	-0.6831074801	-2.0592942201	 0.095497
H	 1.5611740878	 0.3009042768	-1.5357389438	 0.094036
H	 1.3870498885	-2.6292933351	-1.2986215684	 0.106805
H	 2.7136437966	-1.5844485066	-0.8348381156	 0.097596
H	 0.4003387163	-2.5568576397	 0.8557392628	 0.080382
H	 3.292355531	-1.8805097877	 1.5643809421	 0.123844
H	 2.1002853897	-2.5184170031	 2.6847280423	 0.125425
H	 3.2642417356	-5.9913888412	 0.5978677954	 0.191646
H	 1.7575450832	 0.1329653315	 1.3642858619	 0.08726
H	 0.2985521813	-0.4800980524	 2.1526843914	 0.090705
47.779	64.0459	94.5949	161.8488	233.3736	256.4317	340.0533	353.6828	394.9437	412.0564	447.0713	560.436	614.6563	622.1249	637.5118	782.0319	835.4883	841.2636	895.2341	924.1995	925.0222	961.1402	993.9722	1002.0514	1030.3219	1062.9525	1082.0149	1130.6339	1156.121	1179.9002	1217.5203	1251.429	1265.555	1289.0176	1301.3359	1311.2414	1330.4663	1352.0052	1359.3709	1383.5368	1387.5747	1410.8964	1468.85	1488.2995	1490.433	1497.3941	1499.4498	1514.1758	2236.2898	2995.0924	3004.3415	3007.6137	3021.6569	3023.4747	3033.4889	3043.7053	3050.1422	3072.6024	3077.0954	3090.2718	3093.4943	3103.6757	3507.3596
CC1CCC(CC#C)C1	C[C@H]1CC[C@@H](CC#C)C1	
InChI=1S/C9H14/c1-3-4-9-6-5-8(2)7-9/h1,8-9H,4-7H2,2H3	InChI=1S/C9H14/c1-3-4-9-6-5-8(2)7-9/h1,8-9H,4-7H2,2H3/t8-,9+/m0/s1
