20
gdb 108080	2.64591	1.4194	1.19827	2.4986	79.43	-0.2178	0.068	0.2858	1131.7067	0.170844	-403.069844	-403.061153	-403.060209	-403.103154	33.067	
C	-0.127942816	 1.4889562473	-0.0775595554	-0.528286
C	-0.0776598051	 0.0019323644	-0.0283712011	 0.315395
C	-0.0528394255	-1.1106253029	-1.0381977101	-0.165761
C	 1.2453774367	-1.6021269189	-0.4294628903	-0.183266
N	 0.9068260229	-0.8379930109	 0.8378486401	-0.207633
C	-0.3029374828	-1.6102011115	 1.3270673652	-0.228528
C	-1.0809700108	-1.1118285962	 0.1231569016	 0.303287
C	-2.5517232442	-1.0895420757	-0.1274040881	-0.218133
O	-2.9721335132	-2.3992689328	-0.4966289145	-0.418482
H	 0.8235193226	 1.9034162137	-0.4287004831	 0.131321
H	-0.9134558171	 1.8242511064	-0.7630427983	 0.12392
H	-0.3341055033	 1.914865757	 0.9106039144	 0.128445
H	-0.3852040485	-1.0946464322	-2.0693232456	 0.08854
H	 1.4079001603	-2.675964995	-0.2826989926	 0.097972
H	 2.1294286405	-1.1586445184	-0.8958512032	 0.104995
H	-0.1335879413	-2.6841061867	 1.4617448913	 0.100279
H	-0.6584570878	-1.1745801994	 2.2660146693	 0.098681
H	-3.0767854892	-0.7505094997	 0.7804785067	 0.088153
H	-2.7787354792	-0.3597240797	-0.9229951034	 0.08329
H	-3.932622949	-2.3982682189	-0.552456123	 0.285812
76.352	124.1245	192.1756	206.2341	252.6128	258.6535	309.5635	379.7372	472.3192	520.1277	598.3613	699.3861	720.2677	791.8989	847.2813	858.7645	910.6638	925.0883	953.53	967.3309	1002.2807	1052.8878	1073.945	1082.7307	1123.6681	1137.891	1153.3735	1175.6688	1185.474	1222.6798	1246.2216	1261.679	1282.1843	1301.6319	1351.7959	1406.8942	1449.5817	1476.0931	1488.218	1499.47	1505.7286	1511.5957	1527.602	2952.8312	2980.817	3026.1483	3031.0144	3039.5537	3087.4481	3089.2645	3094.6813	3099.0635	3186.0564	3821.3992
CC12C3CN1CC23CO	C[C@@]12[C@H]3CN1C[C@@]23CO	
InChI=1S/C7H11NO/c1-6-5-2-8(6)3-7(5,6)4-9/h5,9H,2-4H2,1H3	InChI=1S/C7H11NO/c1-6-5-2-8(6)3-7(5,6)4-9/h5,9H,2-4H2,1H3/t5-,6+,7+/m1/s1
