15
gdb 51449	3.05016	1.18546	0.97393	5.0456	68.64	-0.2375	-0.0337	0.2038	1183.5488	0.112715	-453.930203	-453.922243	-453.921299	-453.963694	28.783	
O	-0.1498414835	 0.0531161134	-0.4793925686	-0.319679
C	-0.0599727734	 1.217845737	-0.1572145013	 0.158689
N	 1.1023181713	 1.8500403047	 0.1713483383	-0.276429
C	 2.3716811197	 1.1887671924	 0.1738955165	-0.093364
C	 3.5331729127	 1.845141747	-0.5902323663	-0.059127
N	 3.7276954889	 3.1426972866	 0.0650603712	-0.349768
C	 4.3929587079	 1.9151116705	 0.6396751476	-0.197571
C	 3.2920943508	 1.2687585699	 1.4532587379	 0.440528
O	 3.1897504207	 0.8612627267	 2.5689480083	-0.294632
H	-0.9293127348	 1.9002120706	-0.0955203991	 0.083129
H	 1.0892647199	 2.831312269	 0.4030427283	 0.263979
H	 2.2077472764	 0.1412786376	-0.092803695	 0.149721
H	 3.8426782266	 1.6577248584	-1.6097957114	 0.120004
H	 4.4569533643	 3.6516005647	-0.434136451	 0.247735
H	 5.4674114924	 1.8711194916	 0.7544975745	 0.126786
50.2135	107.0091	171.2031	197.7445	240.4451	321.5324	496.3305	547.7616	579.7222	621.8584	691.5843	770.4687	807.8677	830.6264	868.49	907.5966	988.8078	991.2787	1031.3276	1045.7851	1088.9615	1095.9116	1107.3878	1177.3156	1215.657	1271.2362	1307.4665	1330.4787	1354.1613	1427.6142	1521.1693	1803.6227	1909.7412	2952.2672	3102.7284	3208.9001	3221.6981	3477.8943	3634.0926
O=CNC1C2NC2C1=O	O=CN[C@H]1[C@H]2N[C@H]2C1=O	
InChI=1S/C5H6N2O2/c8-1-6-3-2-4(7-2)5(3)9/h1-4,7H,(H,6,8)	InChI=1S/C5H6N2O2/c8-1-6-3-2-4(7-2)5(3)9/h1-4,7H,(H,6,8)/t2-,3+,4-/m1/s1
