17
gdb 123841	3.54588	1.52829	1.10877	2.9438	73.76	-0.2341	0.0193	0.2533	1051.2103	0.140444	-418.033227	-418.026343	-418.025399	-418.064478	27.321	
C	-0.0263349918	 1.3949557773	 0.0198703571	-0.07594
C	 1.4015378146	 1.9699253567	 0.0359716938	-0.344345
C	 2.1813853578	 1.2876708095	-1.0471628016	 0.193123
C	 3.3704214124	 1.5568750823	-1.6924491851	-0.17362
N	 3.5502396302	 0.5533250025	-2.5891747375	-0.185221
N	 2.5590951304	-0.3623928134	-2.5753540763	-0.312197
C	 1.7313009067	 0.0854660632	-1.6381486017	 0.274884
C	 0.4391134593	-0.5619826217	-1.2351465349	-0.184016
O	-0.0188743666	-0.024363027	-0.0015945695	-0.24798
H	-0.5740049862	 1.6817681896	 0.9217068294	 0.107028
H	-0.5756798537	 1.7859996703	-0.852647182	 0.090181
H	 1.3643817509	 3.0573764048	-0.0995535812	 0.103443
H	 1.8513939367	 1.7854850615	 1.0198291158	 0.117083
H	 4.0851576522	 2.3585354552	-1.5899528948	 0.132241
H	 4.3186166354	 0.4275573749	-3.2253048006	 0.273462
H	-0.3248446693	-0.4210138169	-2.0189596782	 0.103297
H	 0.5590406312	-1.6381245589	-1.0809504428	 0.128576
114.1651	215.3351	300.5928	335.4379	381.3823	461.7003	489.4674	522.9616	652.8242	685.976	702.1238	748.1981	780.643	863.518	942.3203	967.1955	981.671	1026.8516	1072.846	1088.9485	1120.3507	1162.632	1214.6332	1222.0398	1237.4109	1293.5455	1316.5711	1355.8475	1368.4375	1403.6728	1430.339	1476.319	1477.6146	1488.0501	1498.5081	1515.4456	1612.9308	2956.967	2969.9284	3021.1269	3059.7603	3084.808	3090.5005	3256.3983	3679.9127
C1CC2=CNN=C2CO1	C1Cc2c[nH]nc2CO1	
InChI=1S/C6H8N2O/c1-2-9-4-6-5(1)3-7-8-6/h3H,1-2,4H2,(H,7,8)	InChI=1S/C6H8N2O/c1-2-9-4-6-5(1)3-7-8-6/h3H,1-2,4H2,(H,7,8)
