16
gdb 69013	2.75811	1.39598	1.16714	2.4732	79.43	-0.2495	-0.0026	0.247	1096.3888	0.122015	-400.691947	-400.683386	-400.682442	-400.724992	32.289	
C	-0.0375418343	 1.5807459401	 0.037923217	-0.48671
C	 0.0191909787	 0.0848789596	-0.0071524685	 0.103973
C	-0.9021989326	-0.8464072473	 0.7781118719	-0.368314
C	 0.5786137871	-0.9629781494	 0.9645695279	 0.262826
O	 1.1137251485	-1.7409823835	-0.1525724001	-0.303156
C	 0.7018785181	-0.7507591113	-1.044040235	 0.405229
N	 0.9148753207	-0.6230842172	-2.2710106407	-0.554238
C	 1.3290162222	-0.8568692217	 2.1590384989	 0.226171
C	 1.9588469512	-0.7610916278	 3.1792835153	-0.408778
H	 0.9286989213	 2.0175827345	-0.2289893463	 0.142004
H	-0.7846829354	 1.9581554887	-0.667652773	 0.144083
H	-0.3102248704	 1.9289726761	 1.0383441622	 0.128921
H	-1.4411577884	-0.3591017205	 1.5847299986	 0.138005
H	-1.427454552	-1.6595127364	 0.2867311531	 0.134721
H	 1.4677392326	-1.3996653684	-2.6376956237	 0.233703
H	 2.5190746128	-0.6804047357	 4.0780743625	 0.201558
106.2517	117.2475	146.2124	200.2538	260.1151	304.0609	408.7822	448.5973	510.8326	543.5607	580.9414	614.4608	656.1957	699.2605	704.2032	739.2845	844.5476	870.001	898.7193	959.091	978.655	990.4942	1072.6195	1089.779	1109.686	1191.1756	1223.2425	1352.6521	1389.2789	1423.1952	1479.5327	1484.7164	1496.1238	1834.5254	2238.4739	3041.2668	3107.8688	3119.2343	3123.4727	3219.2639	3480.1615	3500.5431
CC12CC1(OC2=N)C#C	C[C@]12C[C@]1(O[C]2[NH])C#C	
InChI=1S/C7H7NO/c1-3-7-4-6(7,2)5(8)9-7/h1,8H,4H2,2H3	InChI=1S/C7H7NO/c1-3-7-4-6(7,2)5(8)9-7/h1,8H,4H2,2H3/t6-,7-/m1/s1
