19
gdb 109747	2.66602	1.09643	1.00676	3.3549	73.74	-0.2265	0.0097	0.2362	1274.3918	0.157789	-456.333871	-456.323565	-456.322621	-456.36951	36.597	
C	-1.9981007389	 0.3542967951	-0.6462119916	-0.337697
N	-0.7509879577	-0.4006943644	-0.5356058519	-0.106511
C	 0.3775667403	-0.1389885527	-1.4130515467	-0.030797
C	 0.3796867398	 0.8920455201	-2.5250373546	-0.107244
O	-0.1472675941	 0.3371861734	-3.7262007637	-0.421483
C	 0.4504935406	 0.2025930298	 0.054101514	-0.142903
C	 0.4967173489	 1.6308005873	 0.5266198969	 0.42855
N	 1.2251982477	 1.8022335349	 1.6683578196	-0.533458
O	-0.0550935878	 2.5692224471	-0.0269071691	-0.380096
H	-1.8817681077	 1.4234688264	-0.8440854159	 0.152893
H	-2.599751111	-0.108216105	-1.4364793873	 0.113086
H	-2.5492923164	 0.240411231	 0.2925159491	 0.125097
H	 0.8987686165	-1.0509721278	-1.7068808155	 0.100725
H	-0.1325282094	 1.8097415234	-2.227610587	 0.134481
H	 1.41787836	 1.1564157494	-2.753604632	 0.11248
H	-1.0924081592	 0.2097280713	-3.5983518965	 0.284359
H	 0.9981426774	-0.4890468559	 0.6940326715	 0.081064
H	 1.637787759	 1.0377392518	 2.1717121778	 0.263466
H	 1.2882579618	 2.7302318448	 2.0532011128	 0.263986
61.3965	74.0484	132.8045	140.6263	171.4702	219.568	247.0523	289.8842	304.1924	345.8782	407.5759	471.4867	527.9709	592.6289	660.9144	726.1143	785.5278	810.6893	848.2923	989.1899	1008.0438	1058.1738	1079.041	1084.1543	1124.868	1143.404	1166.9908	1175.025	1227.7998	1291.8005	1344.9131	1353.4597	1405.376	1425.3007	1440.9291	1453.498	1485.7768	1502.7431	1527.4089	1614.6034	1769.2928	3028.1079	3054.225	3090.8868	3094.919	3099.4252	3108.0807	3118.309	3609.2266	3747.0092	3821.2042
CN1C(CO)C1C(N)=O	CN1[C@@H](CO)[C@H]1C(=O)N	
InChI=1S/C5H10N2O2/c1-7-3(2-8)4(7)5(6)9/h3-4,8H,2H2,1H3,(H2,6,9)	InChI=1S/C5H10N2O2/c1-7-3(2-8)4(7)5(6)9/h3-4,8H,2H2,1H3,(H2,6,9)/t3-,4-,7?/m0/s1
