18
gdb 92076	2.85885	1.49536	1.10127	2.0103	71.24	-0.2335	-0.0317	0.2018	1093.5166	0.148444	-439.077165	-439.069244	-439.0683	-439.110195	30.569	
O	 0.1509588557	 1.3253211199	 0.363835578	-0.442523
C	-0.0119688696	-0.0222751954	 0.0339476305	 0.061565
C	-1.4897383723	-0.3837637837	-0.2144072592	-0.270928
C	-1.6298146452	-1.8586676843	-0.5687618434	-0.014547
C	-1.8355303163	-2.2714416285	-1.9840924728	-0.242977
N	-0.5640130138	-2.5480952576	-1.3243397724	-0.09609
C	 0.6193368154	-1.7937642901	-1.7444524109	-0.258001
C	 0.7558991596	-0.3681580501	-1.2295149018	 0.346046
O	 1.4485104641	 0.464364155	-1.7747751351	-0.333668
H	 0.7849670706	 1.6729251789	-0.2848129579	 0.292935
H	 0.3717213161	-0.6725321033	 0.8402403278	 0.097678
H	-2.0666950908	-0.1494343123	 0.6837001063	 0.124428
H	-1.8680654749	 0.2643986359	-1.0119842748	 0.117114
H	-2.049235497	-2.4845063747	 0.2156602754	 0.101848
H	-2.4293230185	-3.146425551	-2.2355165787	 0.120651
H	-1.8735885098	-1.4713841285	-2.7234578707	 0.112371
H	 1.5046806754	-2.3249470088	-1.3632964603	 0.145673
H	 0.7150786314	-1.7832535715	-2.83476937	 0.138425
39.8433	116.6177	282.0113	299.0214	340.6493	385.8418	420.6065	451.429	474.4954	528.9411	596.4674	692.6692	738.1713	809.5584	826.7259	899.1796	925.0252	986.9473	1028.3314	1041.2493	1088.2413	1123.8263	1128.3889	1141.6399	1162.5833	1188.1184	1202.4923	1254.2827	1279.531	1307.7556	1329.9077	1339.1325	1370.0952	1404.5309	1439.9049	1457.5251	1495.4403	1514.3661	1800.012	2950.9789	3001.6735	3051.372	3080.1529	3084.9822	3100.0591	3129.4717	3174.06	3675.1301
OC1CC2CN2CC1=O	O[C@H]1C[C@H]2CN2CC1=O	
InChI=1S/C6H9NO2/c8-5-1-4-2-7(4)3-6(5)9/h4-5,8H,1-3H2	InChI=1S/C6H9NO2/c8-5-1-4-2-7(4)3-6(5)9/h4-5,8H,1-3H2/t4-,5-,7?/m0/s1
