18
gdb 72075	2.92154	1.62724	1.45992	2.562	74.89	-0.213	-0.011	0.202	972.4954	0.150189	-401.963858	-401.956725	-401.955781	-401.995123	28.986	
C	-0.021807071	 1.4719518299	 0.0320180573	-0.49961
C	 0.0162371771	-0.0290061336	-0.0265166891	 0.323801
C	 0.2576515105	-0.7948082919	-1.3358962953	-0.260819
C	 0.2303147273	-2.2080044317	-0.7195695393	-0.160944
N	 1.2142012209	-2.0562238251	 0.3811979761	-0.30426
C	 0.6057253593	-0.8930702292	 1.0385617646	-0.059027
C	-0.9165462632	-0.9115632393	 0.8376326422	-0.260921
C	-1.1388533676	-2.1437008162	 0.0161382668	 0.449553
O	-2.0885539658	-2.8759378104	-0.0657375293	-0.34313
H	 0.9118690261	 1.8971849774	-0.3539853103	 0.127075
H	-0.8451507919	 1.8722075159	-0.5695444096	 0.126845
H	-0.153491906	 1.8301106613	 1.057785776	 0.121999
H	-0.5337823405	-0.6439291461	-2.0762140554	 0.110856
H	 1.2281057109	-0.5546274291	-1.7800115856	 0.111026
H	 0.3999250956	-3.0666238364	-1.3636974192	 0.089324
H	 1.1685685309	-2.8693000799	 0.9942946899	 0.224075
H	 1.0665090567	-0.5058148856	 1.937715021	 0.102151
H	-1.6338227495	-0.5104396599	 1.5386240795	 0.102005
134.2313	207.09	235.3604	288.5335	404.2689	458.1531	501.8815	550.0302	608.7648	660.4041	735.536	797.8493	825.2037	871.8213	873.264	902.5027	919.5807	941.0165	969.5502	1011.9126	1016.8748	1042.5367	1073.5826	1097.9068	1120.7215	1150.212	1174.8318	1226.135	1241.3631	1265.9626	1289.7772	1317.2073	1378.8425	1420.1875	1433.0497	1486.9804	1489.4577	1500.5477	1864.7762	3027.1166	3053.1339	3089.0452	3101.614	3105.4281	3164.0013	3203.7898	3229.9636	3463.3112
CC12CC3NC1C2C3=O	C[C@@]12C[C@H]3N[C@@H]1[C@@H]2C3=O	
InChI=1S/C7H9NO/c1-7-2-3-5(9)4(7)6(7)8-3/h3-4,6,8H,2H2,1H3	InChI=1S/C7H9NO/c1-7-2-3-5(9)4(7)6(7)8-3/h3-4,6,8H,2H2,1H3/t3-,4+,6-,7+/m1/s1
