18
gdb 32537	2.61268	1.17391	0.81823	0.9712	74.99	-0.193	0.0594	0.2525	1353.0336	0.147384	-439.102288	-439.092632	-439.091688	-439.138594	34.066	
O	-0.0351449647	 1.4274880425	 0.0081794299	-0.418588
C	 0.0094699434	 0.0077784859	 0.0012398702	-0.198342
C	-1.3899785534	-0.5205085811	 0.0118952423	 0.175839
C	-2.5393809899	 0.234078864	 0.0230594566	-0.154732
N	-3.6066920858	-0.6275473787	 0.0301772661	-0.258913
C	-3.1600302894	-1.9244862575	 0.0234365611	-0.154732
C	-1.7853692187	-1.8956433614	 0.0121172295	 0.175839
C	-0.8802437536	-3.086565407	 0.0017144131	-0.198342
O	-1.6721149567	-4.2657579845	 0.0094060055	-0.418588
H	 0.8690427631	 1.7529724157	 0.0016467734	 0.286625
H	 0.5486016368	-0.3631753977	-0.8888221973	 0.08949
H	 0.5650701951	-0.3714659667	 0.8775638304	 0.089453
H	-2.6681356947	 1.3027229873	 0.0266896054	 0.131081
H	-4.571650635	-0.3500930403	 0.039267158	 0.257262
H	-3.8367278359	-2.7615382245	 0.0274170233	 0.131081
H	-0.2266848971	-3.0590173934	-0.8885578558	 0.089493
H	-0.2077963953	-3.0599527354	 0.8778228542	 0.08945
H	-1.0788949082	-5.021792317	 0.0030551442	 0.286625
18.985	48.5776	135.5436	208.7026	210.4404	231.7568	240.4891	283.7585	349.4548	458.1265	542.7731	636.5352	640.4387	646.5395	717.0785	761.0512	773.845	920.26	1040.1251	1046.3447	1057.9378	1072.176	1089.008	1116.4784	1179.3736	1215.1171	1224.7597	1242.6067	1246.7134	1271.0708	1330.4372	1395.0296	1461.7316	1476.1391	1476.4476	1518.4569	1519.8321	1567.071	1629.702	2930.8728	2935.6706	2940.992	2942.7959	3285.2275	3287.8874	3692.1325	3838.7142	3838.8969
OCC1=CNC=C1CO	OCc1c[nH]cc1CO	
InChI=1S/C6H9NO2/c8-3-5-1-7-2-6(5)4-9/h1-2,7-9H,3-4H2	InChI=1S/C6H9NO2/c8-3-5-1-7-2-6(5)4-9/h1-2,7-9H,3-4H2
