20
gdb 116117	2.70628	1.15245	0.84962	4.2974	77.16	-0.2521	0.0256	0.2777	1351.12	0.172173	-440.301343	-440.292422	-440.291478	-440.335265	33.321	
O	-0.0551444164	 1.4399068022	 0.0073099755	-0.420845
C	 0.0389572515	 0.0245615937	 0.0115267132	-0.097592
C	-1.3751554077	-0.5457259144	 0.0091148886	 0.014234
C	-1.3808363516	-2.0751623919	-0.0607752195	-0.229335
C	-2.8173760888	-2.5806231439	-0.0732232039	-0.080346
O	-3.6007814797	-2.0985788466	 1.0270064313	-0.254066
C	-3.5179030785	-0.7744446171	 1.3731861272	 0.362545
N	-4.5083683636	-0.1651178509	 1.8732649354	-0.499385
C	-2.1653478858	-0.1129826551	 1.2531064279	-0.255489
H	 0.831437781	 1.8049704121	 0.0766398762	 0.290187
H	 0.5830005914	-0.3418324713	-0.8744267652	 0.085325
H	 0.578624719	-0.3383525089	 0.9026631747	 0.084888
H	-1.8814581293	-0.1520798124	-0.8836098071	 0.08972
H	-0.8717391609	-2.4373645065	-0.9616514114	 0.102381
H	-0.8504756941	-2.4923540853	 0.8052578688	 0.106208
H	-3.3101622172	-2.2835600613	-1.0104264936	 0.106605
H	-2.8620817841	-3.670183943	-0.0012234637	 0.116703
H	-5.3160342514	-0.7919549165	 1.9059850809	 0.215144
H	-1.5876667166	-0.3968923842	 2.1455672251	 0.115729
H	-2.3030351772	 0.9666433112	 1.2903504397	 0.147389
91.0478	107.7956	126.2694	192.9702	234.8573	265.4885	350.9629	407.5648	450.041	478.6127	493.9319	564.2395	655.2398	802.5519	854.1999	894.2026	906.5561	930.7488	977.1225	988.6176	1033.1436	1074.8812	1096.2616	1111.9133	1130.3153	1146.4193	1196.5384	1230.2838	1249.333	1285.7893	1289.0551	1302.3574	1323.7526	1339.9168	1382.6046	1397.6994	1431.2109	1460.5547	1468.9683	1484.6558	1511.1374	1519.5133	1748.5478	2954.2643	2982.5368	3001.0529	3002.8502	3016.1513	3026.5205	3071.0731	3096.2877	3146.5902	3453.9196	3836.0604
OCC1CCOC(=N)C1	OC[C@H]1CCO[C]([NH])C1	
InChI=1S/C6H11NO2/c7-6-3-5(4-8)1-2-9-6/h5,7-8H,1-4H2	InChI=1S/C6H11NO2/c7-6-3-5(4-8)1-2-9-6/h5,7-8H,1-4H2/t5-/m0/s1
