20
gdb 103388	2.36424	1.44449	1.32346	3.7261	78.23	-0.2398	-0.01	0.2299	1114.1478	0.169889	-403.136503	-403.127376	-403.126432	-403.170085	34.356	
C	-0.2027952925	 1.5141863711	 0.0628093243	-0.392146
C	 0.1051474811	 0.0110070132	 0.0875065375	-0.239272
C	 0.7392852279	-0.5204327352	-1.2060810331	 0.171642
C	 2.116280763	 0.0996644726	-1.4872565365	-0.449769
C	 0.7519261306	-2.0445090423	-1.435272925	-0.068319
C	-0.5904273318	-2.6120773239	-1.610340588	-0.265
N	 0.0280897976	-1.9171683155	-2.7826945085	-0.17626
C	-0.1178766202	-0.4976792644	-2.4946345948	 0.37445
O	-0.6549274378	 0.3456761105	-3.1442331579	-0.312357
H	 0.7093211689	 2.1160428929	 0.0161329859	 0.119846
H	-0.8189405926	 1.7724209869	-0.8029900153	 0.147221
H	-0.7427252907	 1.8066726122	 0.9681482028	 0.114433
H	 0.7815671151	-0.2201445359	 0.9214136227	 0.099597
H	-0.8217900306	-0.5371641293	 0.2886748919	 0.098721
H	 2.7870975162	-0.0657208074	-0.6367644932	 0.119754
H	 2.5760250149	-0.34366539	-2.3757474065	 0.13302
H	 2.0346014792	 1.1757705465	-1.655239512	 0.141467
H	 1.6403661902	-2.6625704397	-1.3721589648	 0.108795
H	-0.68063542	-3.6813915815	-1.7720330997	 0.140046
H	-1.4556113585	-2.1564944108	-1.1364270898	 0.13413
87.593	121.798	174.6944	211.3133	228.6905	243.7163	296.4533	310.5702	382.0782	473.8817	505.7146	659.3424	681.4343	749.7058	768.9542	794.5285	833.9709	899.8615	933.7632	980.3458	1014.1864	1022.4179	1032.7493	1053.2179	1075.504	1115.3299	1147.7355	1183.1027	1201.6577	1222.6814	1257.6884	1309.3924	1357.9119	1370.9237	1408.3372	1416.4103	1480.9769	1493.173	1497.9386	1505.3139	1510.2193	1514.573	1903.042	3018.3555	3034.9477	3045.4713	3062.8042	3102.7139	3111.604	3120.3081	3123.3805	3129.3636	3182.1547	3208.7008
CCC1(C)C2CN2C1=O	CC[C@@]1(C)[C@H]2CN2C1=O	
InChI=1S/C7H11NO/c1-3-7(2)5-4-8(5)6(7)9/h5H,3-4H2,1-2H3	InChI=1S/C7H11NO/c1-3-7(2)5-4-8(5)6(7)9/h5H,3-4H2,1-2H3/t5-,7+,8?/m1/s1
