17
gdb 50330	3.20635	1.54108	1.38808	3.9837	70.42	-0.2381	-0.0284	0.2097	963.0556	0.137721	-417.953549	-417.946482	-417.945538	-417.985813	27.484	
O	-0.9487991576	 1.2782588726	 0.3425632635	-0.250064
C	 0.1160502911	 0.7593664665	 0.1361612495	 0.171231
C	 1.4226098998	 1.5436807073	 0.0102182744	-0.13444
N	 2.5593918295	 0.6836978894	-0.3804210782	-0.296799
C	 2.8819545976	 1.0973711397	-1.7493236429	-0.057332
C	 1.6405193948	 0.8932205942	-2.6467791007	-0.149948
N	 1.2151114373	 2.3254749838	-2.483446454	-0.143749
C	 2.5676106812	 2.6199202909	-1.8789952217	-0.060982
C	 1.3600085282	 2.6682198885	-1.0392960351	-0.022859
H	 0.2380950736	-0.3426598412	 0.040875701	 0.089484
H	 1.5931298792	 1.9930590953	 0.9968780909	 0.111347
H	 3.3524983985	 0.8698651544	 0.225025669	 0.224793
H	 3.8386112606	 0.6988690879	-2.0841598505	 0.080913
H	 1.8913047843	 0.7288992939	-3.6969957658	 0.118043
H	 0.9094766708	 0.1414759338	-2.3280566101	 0.106906
H	 3.1942909534	 3.4484236269	-2.1877257825	 0.098549
H	 0.8726999477	 3.5997832961	-0.7805214767	 0.114906
39.2024	162.5158	195.177	373.9469	412.7181	467.403	578.8007	644.9275	687.6679	757.6377	769.6231	841.5885	844.9437	851.545	880.9736	916.8834	971.4197	980.3266	1006.9468	1043.3366	1050.4136	1076.5231	1100.6838	1128.3956	1174.4316	1191.9554	1219.5104	1247.8563	1265.3846	1279.7545	1300.0963	1343.7519	1371.9942	1392.1079	1450.3573	1506.2054	1831.8022	2888.2804	3031.2914	3041.0394	3108.9809	3127.5821	3179.9566	3201.0182	3515.7385
O=CC1NC2CN3C2C13	O=C[C@H]1N[C@H]2CN3[C@H]2[C@H]13	
InChI=1S/C6H8N2O/c9-2-4-6-5-3(7-4)1-8(5)6/h2-7H,1H2	InChI=1S/C6H8N2O/c9-2-4-6-5-3(7-4)1-8(5)6/h2-7H,1H2/t3-,4+,5+,6-,8?/m0/s1
