16
gdb 45382	2.24196	1.77126	1.25043	2.6732	76.66	-0.263	0.0136	0.2766	1032.7062	0.12384	-400.697299	-400.68943	-400.688486	-400.729709	30.227	
N	-0.0628921672	 1.2407245795	-0.4543973353	-0.541902
C	-0.0142821418	 0.0564981836	-0.0554611477	 0.390636
O	 1.0020421571	-0.6540474962	 0.5563900137	-0.270337
C	 0.2077726314	-1.876256564	 0.5982451885	 0.063424
C	-0.5458754322	-2.0269317103	 1.9296635129	-0.237134
C	-1.7371401797	-1.207020444	 1.3485826602	-0.283442
C	-1.000611927	-1.1033898649	-0.041236206	 0.059723
C	-1.7059081566	-1.4589610533	-1.2382226426	 0.178692
C	-2.3059241413	-1.7798720203	-2.2292968237	-0.394703
H	 0.8141022082	 1.7334215476	-0.2776408762	 0.23199
H	 0.7320735348	-2.7122044843	 0.1380001579	 0.106405
H	-0.8096044437	-3.0629609463	 2.1538768038	 0.118336
H	-0.0214159433	-1.5997598418	 2.7860661379	 0.124191
H	-2.6618886145	-1.7786622244	 1.2702214549	 0.129702
H	-1.9505740129	-0.2436748787	 1.8131531609	 0.12885
H	-2.8299767814	-2.047252392	-3.1134724992	 0.195569
108.3323	123.727	164.152	218.0187	341.2223	385.6945	488.2459	521.0993	610.2307	623.1735	632.4534	643.0413	708.98	747.917	831.4562	864.6124	873.818	910.6103	956.2331	982.6107	996.1938	1037.1797	1094.0888	1115.4386	1181.6508	1218.7284	1221.8123	1240.6438	1273.4197	1314.7508	1350.6161	1466.721	1486.553	1824.8858	2240.4979	3075.1969	3089.8222	3127.6738	3134.7465	3152.1403	3479.8963	3501.2702
N=C1OC2CCC12C#C	[NH][C]1O[C@H]2CC[C@@]12C#C	
InChI=1S/C7H7NO/c1-2-7-4-3-5(7)9-6(7)8/h1,5,8H,3-4H2	InChI=1S/C7H7NO/c1-2-7-4-3-5(7)9-6(7)8/h1,5,8H,3-4H2/t5-,7+/m0/s1
