23
gdb 118149	4.1916	0.74962	0.72031	1.5529	82.61	-0.2519	0.0723	0.3242	1707.6482	0.204978	-425.415431	-425.405278	-425.404333	-425.451316	36.952	
C	 0.0053674731	 1.5754510863	 0.0792975678	-0.38213
C	-0.0022776142	 0.0452944011	 0.1143603249	-0.164977
C	-1.3992533914	-0.5515712391	-0.0801147762	-0.185038
C	-1.4223870354	-2.0845191688	 0.0036525408	 0.095407
O	-0.8887271481	-2.5565007305	 1.2338178398	-0.438962
C	-2.8329137589	-2.6380521019	-0.1842084532	 0.13626
C	-3.0432366984	-4.1603001052	-0.0393479602	-0.295201
C	-4.0185432728	-3.7774192282	 1.088438663	-0.065148
O	-3.6363036533	-2.383088091	 1.0041236094	-0.311562
H	 1.0158187529	 1.9721238406	 0.2200217905	 0.110428
H	-0.3705248413	 1.9555139588	-0.8775821182	 0.10989
H	-0.6285063616	 1.9930416646	 0.8697476004	 0.113097
H	 0.6671786749	-0.3438579441	-0.6648445927	 0.089302
H	 0.4016045486	-0.3125742852	 1.0670179368	 0.111707
H	-2.0871110189	-0.1516500055	 0.6778266701	 0.104325
H	-1.8038645935	-0.2459396867	-1.0549795034	 0.087411
H	-0.7800690994	-2.5038283209	-0.7832681312	 0.083026
H	-1.5727799331	-2.3654667055	 1.8903131043	 0.28379
H	-3.3039823382	-2.2006733057	-1.0750146407	 0.071871
H	-3.4676763131	-4.6781034454	-0.900019787	 0.106873
H	-2.1482791639	-4.6770720006	 0.3088526259	 0.127099
H	-5.080329692	-3.9132196089	 0.8480478618	 0.104771
H	-3.8207337621	-4.1955087884	 2.0813454572	 0.10776
61.7951	80.8089	90.1669	126.0875	143.8422	247.6104	263.8105	282.9024	313.5954	367.9616	489.9919	537.2416	668.1765	727.9797	749.6807	822.8924	853.4791	874.9069	897.8471	953.5883	962.1679	986.5402	1018.7957	1031.4902	1051.5242	1097.3973	1102.8165	1133.7725	1148.8077	1176.0676	1222.067	1239.431	1245.2393	1266.4736	1290.5866	1305.3973	1334.985	1341.861	1360.6098	1390.6689	1394.9406	1411.6394	1431.7043	1479.9605	1483.3235	1494.0279	1499.8455	1511.0224	1530.5536	3003.9287	3011.701	3018.1556	3018.6312	3022.1506	3026.9766	3047.9793	3067.9816	3072.8706	3088.3422	3096.6768	3099.9248	3148.8271	3752.8077
CCCC(O)C1CCO1	CCC[C@@H](O)[C@H]1CCO1	
InChI=1S/C7H14O2/c1-2-3-6(8)7-4-5-9-7/h6-8H,2-5H2,1H3	InChI=1S/C7H14O2/c1-2-3-6(8)7-4-5-9-7/h6-8H,2-5H2,1H3/t6-,7-/m1/s1
