21
gdb 69595	3.29337	1.28573	1.17512	1.791	82.53	-0.2496	0.0943	0.3438	1165.5855	0.182818	-387.08474	-387.076415	-387.075471	-387.117187	33.314	
C	 0.0518162691	 1.4958120236	-0.0762590163	-0.484235
C	-0.0648832464	 0.0050857706	 0.081720935	 0.416422
C	-1.3247038978	-0.7286164931	-0.3646845323	-0.277615
C	-1.1554184846	-2.165194609	 0.1884957252	-0.311286
C	-0.256281339	-2.007702064	 1.4185125082	 0.382391
C	-0.7600028248	-2.249999004	 2.8226317742	-0.318286
C	 0.2590295123	-3.178959358	 2.2067736419	-0.319935
C	 0.5680716021	-0.7862229465	 1.1478263785	-0.098313
O	 1.1318101226	-0.7570951388	-0.1772326335	-0.309345
H	 0.9994463997	 1.8543428433	 0.3334425035	 0.128105
H	 0.0123530127	 1.7768544865	-1.1347253509	 0.125604
H	-0.7695579592	 2.0081975752	 0.43601185	 0.119562
H	-2.1951680247	-0.2316681987	 0.0808184139	 0.100371
H	-1.4559559529	-0.7085500021	-1.451391646	 0.103168
H	-2.1109200216	-2.6412391973	 0.4246809972	 0.0949
H	-0.649170806	-2.7864249924	-0.5552560315	 0.118375
H	-0.4311918477	-1.5812529899	 3.6122067685	 0.109689
H	-1.7773808318	-2.6085486507	 2.940117884	 0.111193
H	-0.0679314929	-4.1702477381	 1.9096551134	 0.112533
H	 1.2777394681	-3.1415494615	 2.5785183528	 0.114119
H	 1.184267603	-0.346023025	 1.9298211742	 0.082583
107.7849	176.3317	193.4756	225.2139	312.4148	329.4943	370.011	390.2756	469.9837	552.4811	585.9335	702.5477	764.1154	779.0007	848.2643	856.951	897.0829	913.2991	935.5624	944.5382	977.9743	983.1582	1014.4467	1028.1917	1058.1103	1075.0048	1085.0478	1115.9499	1187.2968	1191.767	1212.8596	1232.3654	1265.57	1306.2202	1319.8814	1338.7033	1379.809	1413.0385	1455.9221	1466.1191	1478.168	1488.5251	1492.6481	1500.0879	1505.8713	3031.1658	3036.2074	3059.0088	3078.9625	3094.0242	3104.1375	3120.8177	3122.0244	3127.2094	3130.4149	3200.569	3215.7375
CC12CCC3(CC3)C1O2	C[C@]12CCC3(CC3)[C@H]1O2	
InChI=1S/C8H12O/c1-7-2-3-8(4-5-8)6(7)9-7/h6H,2-5H2,1H3	InChI=1S/C8H12O/c1-7-2-3-8(4-5-8)6(7)9-7/h6H,2-5H2,1H3/t6-,7-/m0/s1
