20
gdb 101205	3.64983	0.84464	0.73317	4.1864	76.54	-0.2473	0.0355	0.2828	1536.4241	0.169618	-440.306025	-440.296156	-440.295212	-440.341221	35.846	
C	 0.0051180188	 1.6568324861	 0.2006626046	-0.399282
C	 0.0152046327	 0.1320143013	 0.0328665315	 0.021291
C	 0.8012002206	-0.540884316	 1.1601274078	-0.08129
O	 2.1364137152	-0.0635191013	 1.1152388796	-0.419233
C	-1.4091902768	-0.4181594375	-0.037870246	 0.05245
C	-2.2303963149	-0.1164531555	-1.328501038	-0.410226
C	-2.3267583931	-1.6520598809	-1.4970707484	 0.428456
O	-2.86871336	-2.4108930119	-2.2535264019	-0.356778
N	-1.5383183955	-1.8455236735	-0.3858434196	-0.333072
H	 1.0262501859	 2.0330466307	 0.2835550093	 0.141545
H	-0.4789673577	 2.1498328955	-0.647656242	 0.115596
H	-0.5359679823	 1.9464867899	 1.1099028939	 0.109354
H	 0.5216257734	-0.1236318292	-0.9074400117	 0.087581
H	 0.3264479146	-0.3086265563	 2.1291628016	 0.082357
H	 0.7723034265	-1.6343296577	 1.0300641434	 0.080342
H	 2.6286379018	-0.4686904174	 1.8347706386	 0.289196
H	-1.9567449404	-0.1614403991	 0.8792902213	 0.080222
H	-3.1926714882	 0.3753914409	-1.1788176486	 0.132153
H	-1.6773717189	 0.3896158181	-2.1221426556	 0.132129
H	-1.3459685217	-2.6870408263	 0.1375394001	 0.247209
63.0876	84.5959	118.7856	155.5771	221.7367	247.9447	266.336	307.0405	384.5421	393.3137	401.8894	504.7056	533.3856	568.0615	760.0555	811.9358	877.5778	929.6749	945.8204	955.8295	986.3195	1027.5809	1075.945	1084.7938	1111.2937	1163.2067	1170.3905	1188.818	1203.2493	1243.2692	1267.5613	1281.7133	1309.386	1359.4898	1381.6086	1399.211	1409.9577	1458.0489	1461.3381	1494.39	1506.0833	1520.7482	1897.245	2951.3006	2987.5237	3007.5995	3027.7427	3035.7428	3086.8523	3097.763	3137.7076	3145.5729	3606.9634	3835.222
CC(CO)C1CC(=O)N1	C[C@@H](CO)[C@H]1CC(=O)N1	
InChI=1S/C6H11NO2/c1-4(3-8)5-2-6(9)7-5/h4-5,8H,2-3H2,1H3,(H,7,9)	InChI=1S/C6H11NO2/c1-4(3-8)5-2-6(9)7-5/h4-5,8H,2-3H2,1H3,(H,7,9)/t4-,5+/m0/s1
