17
gdb 85197	2.63524	1.19843	0.88672	5.6962	73.93	-0.2752	0.0092	0.2844	1281.427	0.135567	-418.025031	-418.016123	-418.015179	-418.059487	31.861	
C	-0.3023539406	 1.5015370657	-0.0548583681	-0.407032
C	 0.0929721816	 0.0416723281	-0.0128044767	 0.113444
O	 1.3031172353	-0.2195247177	-0.804947167	-0.265503
C	 1.9822582265	-0.699195134	 0.2949155333	 0.434214
N	 3.1629953767	-1.0924213771	 0.4278999848	-0.527037
C	 0.805817044	-0.5438130461	 1.2406905529	-0.156114
C	 1.005930933	 0.3496107252	 2.4740465929	-0.364748
C	 1.6646846052	-0.3545786942	 3.5727061183	 0.278551
N	 2.1573539901	-0.9124261041	 4.4558807227	-0.297
H	 0.5101992016	 2.1516170306	 0.2806660958	 0.131201
H	-0.5606904329	 1.7854927172	-1.0789063987	 0.142226
H	-1.1798538365	 1.6797860117	 0.5755395055	 0.129683
H	-0.7191596702	-0.5934076795	-0.3790155982	 0.10397
H	 3.6822139185	-1.0414352944	-0.4499666158	 0.233745
H	 0.3897594918	-1.5063593468	 1.546504466	 0.131053
H	 1.5979023381	 1.2350457305	 2.2227791259	 0.162453
H	 0.0334576579	 0.704047185	 2.8358082964	 0.156896
57.1236	78.7129	122.3578	209.234	216.3515	241.1094	355.5588	386.4189	452.0023	492.7488	499.7905	657.7719	728.4797	812.7481	853.8849	871.721	890.6259	945.273	996.7701	1014.8165	1039.8224	1070.3827	1134.6247	1157.0853	1197.5256	1227.201	1255.4439	1311.0039	1344.5595	1379.281	1387.6022	1414.9649	1461.8006	1484.9782	1498.4247	1829.6164	2368.8806	3041.8105	3046.4855	3064.0181	3086.4094	3099.6919	3114.7172	3125.1446	3481.9209
CC1OC(=N)C1CC#N	C[C@H]1O[C]([NH])[C@H]1CC#N	
InChI=1S/C6H8N2O/c1-4-5(2-3-7)6(8)9-4/h4-5,8H,2H2,1H3	InChI=1S/C6H8N2O/c1-4-5(2-3-7)6(8)9-4/h4-5,8H,2H2,1H3/t4-,5+/m1/s1
