16
gdb 37794	2.65553	2.29559	1.77456	2.3437	67.05	-0.2308	0.0141	0.2449	815.3817	0.128202	-437.887161	-437.881131	-437.880187	-437.917372	24.957	
C	-0.0137188245	 1.5679457358	 0.0770006287	-0.27347
C	 1.4281512385	 2.0359484597	 0.0253483482	-0.126569
C	 2.243163326	 0.8076997215	 0.3031762135	 0.067676
O	 1.3898391462	-0.2983090333	 0.4901318089	-0.236474
C	 0.1154567592	 0.0321947622	 0.007024494	 0.165532
O	-0.0716125077	-0.4580962926	-1.3263782386	-0.227592
C	 0.7598537388	 0.0167756399	-2.2940977476	 0.120027
N	 1.7479072782	 0.8004857916	-2.2490385636	-0.26174
C	 2.2831758551	 1.4162822875	-1.084907462	-0.020647
H	-0.4752718466	 1.8666503427	 1.0234764619	 0.118276
H	-0.6382764283	 1.9372751765	-0.7395642912	 0.130115
H	 1.6907258353	 3.0105095984	 0.4198466234	 0.097433
H	 3.1184118021	 0.7661853312	 0.9399163878	 0.109549
H	-0.6277057619	-0.5147362126	 0.5876706302	 0.108567
H	 0.4504256539	-0.3977765276	-3.2518903584	 0.126764
H	 3.1895895758	 1.9736107988	-1.3027715552	 0.102553
159.1622	271.0788	356.3097	456.3294	500.5635	581.3359	635.6476	728.7135	745.1148	766.6185	805.0631	812.8445	861.5366	933.9528	957.4357	959.5258	993.6987	1013.3877	1046.2843	1061.8068	1071.8586	1092.5217	1105.4632	1175.8928	1201.716	1208.6502	1286.1104	1311.5066	1357.2132	1369.6047	1399.8081	1413.1665	1431.0061	1487.4723	1753.2635	3058.9102	3111.6194	3120.4069	3146.3516	3157.5626	3175.8123	3191.741
C1C2C3OC1OC=NC23	C1[C@H]2[C@H]3O[C@@H]1OC=N[C@@H]23	
InChI=1S/C6H7NO2/c1-3-5-6(3)9-4(1)8-2-7-5/h2-6H,1H2	InChI=1S/C6H7NO2/c1-3-5-6(3)9-4(1)8-2-7-5/h2-6H,1H2/t3-,4+,5+,6-/m1/s1
