17
gdb 13825	4.40386	1.45872	1.12318	4.3721	74.93	-0.1996	-0.0225	0.1771	1044.1559	0.142902	-363.898487	-363.890498	-363.889554	-363.931095	29.007	
C	-0.0894799053	 1.5115572392	 0.0349791362	-0.487704
C	-0.0786568819	-0.0113846785	 0.0544493887	 0.275832
O	-0.1474249381	-0.6252782952	 1.1099979918	-0.347677
C	 0.0062914336	-0.6858736094	-1.2366173931	 0.169248
C	 0.0626949595	-2.0312526624	-1.3777181284	-0.060049
N	 0.2173597706	-2.4371601783	-2.6774022531	-0.283649
C	-0.059492584	-1.287881469	-3.558978033	-0.163372
C	 0.1390071899	-0.0656501159	-2.6226490612	-0.334454
H	 0.8131828872	 1.9018104356	-0.4498824232	 0.127739
H	-0.9453170202	 1.8875334525	-0.5380155274	 0.127814
H	-0.1453139577	 1.8854772885	 1.0578166992	 0.133877
H	 0.0383941485	-2.7556641072	-0.5742280388	 0.145249
H	-0.1097081095	-3.3509325862	-2.9515203603	 0.24799
H	 0.6117214025	-1.2847106017	-4.421440604	 0.11616
H	-1.0931246306	-1.3309714152	-3.9301914807	 0.108474
H	-0.5906592073	 0.7218529564	-2.8320673856	 0.11148
H	 1.1340171728	 0.3766953566	-2.7684461273	 0.113043
88.1581	128.6113	136.873	184.6846	236.7501	368.0814	458.7702	481.4179	517.7002	604.8302	615.8567	741.9996	853.5267	880.5993	942.4798	955.605	966.0211	1003.3143	1035.8915	1073.3736	1094.861	1152.2747	1197.3141	1231.6979	1279.1765	1316.44	1335.0655	1356.8031	1388.9112	1463.8265	1469.7966	1478.8689	1496.0173	1521.7466	1635.5855	1742.2744	3000.9349	3008.7192	3029.1293	3073.686	3086.801	3089.9106	3149.8819	3234.4712	3617.9709
CC(=O)C1=CNCC1	CC(=O)C1=CNCC1	
InChI=1S/C6H9NO/c1-5(8)6-2-3-7-4-6/h4,7H,2-3H2,1H3	InChI=1S/C6H9NO/c1-5(8)6-2-3-7-4-6/h4,7H,2-3H2,1H3
