21
gdb 38938	2.99368	1.79501	1.5624	1.2412	80.9	-0.2437	0.0916	0.3353	949.867	0.187836	-387.087531	-387.081084	-387.08014	-387.117901	28.137	
C	-0.0561470551	 1.5938868976	 0.0633490365	-0.234555
C	 1.4936993328	 1.4534010316	 0.0081542502	-0.036584
C	 1.7645925419	 0.8161311526	 1.3873988257	-0.221314
C	 0.7355166535	-0.3612652617	 1.3055582315	-0.018853
C	 1.4570883224	-1.6974133579	 1.0944976774	-0.090433
O	 2.5395628521	-1.5573911732	 0.1874443508	-0.245262
C	 2.1740431751	-0.9703615273	-1.0524363685	-0.118899
C	 1.2321192038	 0.220045776	-0.9282602998	 0.005443
C	-0.0019865029	 0.047748877	 0.0048638288	-0.033388
H	-0.4892539992	 2.0653374497	 0.951068766	 0.085319
H	-0.4830571407	 2.0295318763	-0.8437178814	 0.092613
H	 2.1361665495	 2.278540239	-0.3013229046	 0.056501
H	 2.7890448786	 0.4619625308	 1.5087301634	 0.110834
H	 1.5371561428	 1.5148177603	 2.1977957235	 0.088281
H	 0.0702191245	-0.4208683476	 2.1718144669	 0.061297
H	 1.9026204712	-2.0617257176	 2.025648582	 0.104136
H	 0.745254806	-2.4626931472	 0.7382130182	 0.081726
H	 3.1153757248	-0.6887161322	-1.5374786027	 0.105876
H	 1.6850699927	-1.7249970944	-1.6948119919	 0.084918
H	 0.937720041	 0.5548275835	-1.9279866956	 0.068302
H	-0.8619726947	-0.5596278253	-0.2833615464	 0.054042
221.2338	264.5852	344.2913	364.4645	435.2116	465.4158	568.7698	688.6564	719.2135	798.6946	814.7812	828.9089	846.7294	861.2031	912.6125	928.7025	963.7784	971.7228	990.8897	1017.499	1026.1945	1054.106	1069.1795	1097.8747	1108.0002	1111.3552	1165.3266	1174.0388	1197.4537	1217.4025	1233.9404	1265.3186	1269.5518	1285.134	1297.6552	1317.4638	1338.7	1342.1033	1371.046	1389.0738	1423.677	1489.3714	1492.8599	1501.832	1511.2558	2942.1423	2954.649	3045.5667	3054.5557	3057.8529	3063.3226	3064.587	3075.325	3096.3136	3106.1104	3110.5144	3122.3403
C1C2CC3COCC2C13	C1[C@H]2C[C@@H]3COC[C@H]2[C@H]13	
InChI=1S/C8H12O/c1-5-2-7-6(1)3-9-4-8(5)7/h5-8H,1-4H2	InChI=1S/C8H12O/c1-5-2-7-6(1)3-9-4-8(5)7/h5-8H,1-4H2/t5-,6-,7-,8-/m1/s1
