18
gdb 104597	2.1842	1.46724	1.01415	3.7615	68.17	-0.2511	0.0092	0.2603	1183.3035	0.146929	-476.233117	-476.223864	-476.22292	-476.267851	34.095	
N	-1.2949862981	 1.0580943444	-0.5010566034	-0.501669
C	-0.7323618457	 0.1715365805	 0.3598735483	 0.404815
O	 0.40007813	 0.3173429737	 0.8018351083	-0.374496
C	-1.5971609788	-1.0276877031	 0.7317414191	-0.381689
C	-1.1833537715	-2.2675908596	-0.0533762372	 0.39769
C	 0.3016296972	-2.6301078844	 0.0101343108	-0.14606
O	 0.849024987	-2.4436740954	 1.2950445653	-0.426414
C	-2.199065039	-3.2843453439	-0.3528631154	-0.234355
O	-1.7519041442	-2.3726510015	-1.3662314982	-0.281286
H	-0.7071655623	 1.7877588091	-0.8732865494	 0.266204
H	-2.1355285664	 0.8248920144	-1.0018798505	 0.272112
H	-1.442924356	-1.2201343251	 1.7963480361	 0.149147
H	-2.657891965	-0.8289464889	 0.558488998	 0.107445
H	 0.4303902035	-3.6825906032	-0.2615638627	 0.107261
H	 0.8263853583	-2.0308993307	-0.7486917071	 0.106689
H	 0.9600866516	-1.4837935043	 1.3984740816	 0.301859
H	-1.8945721995	-4.3204803884	-0.4918714467	 0.121223
H	-3.2278490011	-3.1451941035	-0.0216361969	 0.111524
41.781	69.9459	161.6199	188.9189	228.605	339.72	347.7924	360.9506	405.5631	438.3032	483.9821	546.9782	599.0279	677.3688	704.8166	803.2424	835.4324	877.6612	920.472	936.3466	963.609	1050.2787	1095.2726	1101.5942	1128.5099	1160.7502	1189.3786	1221.3685	1275.5402	1296.4124	1380.5528	1392.8034	1428.5393	1463.3915	1472.3249	1495.1023	1531.4938	1624.3565	1765.5997	2997.8419	3066.0267	3077.2414	3081.1528	3122.7356	3168.4893	3591.5003	3658.7534	3725.1106
NC(=O)CC1(CO)CO1	NC(=O)C[C@@]1(CO)CO1	
InChI=1S/C5H9NO3/c6-4(8)1-5(2-7)3-9-5/h7H,1-3H2,(H2,6,8)	InChI=1S/C5H9NO3/c6-4(8)1-5(2-7)3-9-5/h7H,1-3H2,(H2,6,8)/t5-/m1/s1
