19
gdb 77373	2.48029	1.64806	1.35772	1.3127	74.97	-0.2404	0.07	0.3105	1032.6563	0.158016	-422.975256	-422.966737	-422.965793	-423.007515	33.867	
C	 0.0062659156	 1.5620365724	 0.0844631852	-0.512774
C	 0.0380929076	 0.0564850327	 0.0769238709	 0.267429
C	-1.2593322621	-0.7921635955	 0.2237907676	-0.268438
C	-0.3551885656	-1.8818919333	 0.7900373984	-0.138854
C	 0.7322438937	-0.8860007692	 1.146291567	-0.194918
C	 0.9655001387	-1.8366393425	 0.001924335	 0.385577
O	 1.8573108665	-2.8883343299	-0.0042273006	-0.467632
C	 0.8543901049	-0.7225003416	-1.0132526439	 0.014742
O	 0.2491288809	-1.057047608	-2.2440331021	-0.444072
H	 1.0167245833	 1.9861135088	 0.0772057415	 0.116069
H	-0.5228690243	 1.9424079595	-0.7984383503	 0.11378
H	-0.5123551965	 1.9473013515	 0.9688592051	 0.120542
H	-1.9213522141	-0.3749998803	 0.9892441368	 0.089888
H	-1.8190701495	-0.9979493105	-0.6939203639	 0.097823
H	-0.6180765423	-2.7801966914	 1.3343507411	 0.08528
H	 1.2993460678	-0.7052079779	 2.0468730456	 0.095661
H	 1.4951682681	-3.5811110483	-0.5679036597	 0.290587
H	 1.835066161	-0.2474029358	-1.1601722486	 0.066457
H	 0.3404132965	-0.3109229909	-2.8445384551	 0.282854
175.2841	204.3259	226.3033	243.5808	263.1281	271.7276	305.8072	353.0865	394.5424	517.6641	569.1712	607.9561	640.9427	732.7039	800.6879	819.2496	844.9771	908.1539	929.8792	942.5393	954.4657	1003.9981	1015.5353	1073.0255	1116.0808	1126.3572	1137.2514	1147.5899	1191.0184	1230.911	1240.0209	1246.7811	1299.5425	1314.3521	1359.3783	1405.6253	1415.3754	1473.6205	1487.6375	1493.0134	1496.6841	3005.725	3018.5884	3041.2769	3080.4733	3092.0962	3097.2241	3195.3204	3234.1264	3794.0919	3822.0977
CC12CC3C1C3(O)C2O	C[C@]12C[C@@H]3[C@H]1[C@]3(O)[C@H]2O	
InChI=1S/C7H10O2/c1-6-2-3-4(6)7(3,9)5(6)8/h3-5,8-9H,2H2,1H3	InChI=1S/C7H10O2/c1-6-2-3-4(6)7(3,9)5(6)8/h3-5,8-9H,2H2,1H3/t3-,4-,5+,6+,7+/m1/s1
