17
gdb 61911	3.56581	0.74462	0.66406	4.9998	69.97	-0.2792	0.	0.2792	1621.4498	0.134773	-455.197443	-455.187553	-455.186608	-455.23331	34.751	
N	 0.0790171115	 1.2743126699	-0.0975492125	-0.518133
C	 0.061196363	-0.0760635567	-0.0148355149	 0.38646
O	 1.0681243737	-0.7600449313	 0.0642735823	-0.370759
C	-1.3194845623	-0.7574416461	-0.0021883146	 0.021978
O	-1.127442812	-2.1394395342	-0.1296591713	-0.433608
C	-2.0837510177	-0.427991689	 1.2945835412	-0.197384
C	-3.4018716487	-1.222124235	 1.361995052	-0.335918
C	-4.1494412955	-0.9556112581	 2.5874168571	 0.253969
N	-4.7294155591	-0.7268044689	 3.560460397	-0.305233
H	 0.9682705454	 1.7467476529	-0.1208844183	 0.274384
H	-0.7579601713	 1.8142665309	-0.2308427618	 0.26983
H	-1.902885411	-0.3904138851	-0.8628509075	 0.087398
H	-0.1647918546	-2.2617940701	-0.0432474894	 0.298268
H	-1.4576718875	-0.6895518008	 2.1539072775	 0.134479
H	-2.291852891	 0.64563878	 1.3564058208	 0.107681
H	-4.0398135971	-0.9774207795	 0.5041295841	 0.147418
H	-3.1775119057	-2.2906064691	 1.2952829585	 0.179168
49.5675	80.317	99.8836	103.2604	220.7334	242.0345	262.3408	333.0849	397.2968	414.888	483.9372	513.9922	529.6024	579.6914	653.7246	729.7948	775.7854	850.9561	941.7822	962.2857	1040.4052	1080.1802	1094.6097	1143.7535	1202.183	1242.3783	1285.4331	1314.6325	1356.8657	1368.0996	1388.0035	1462.8683	1468.5387	1485.0638	1623.1444	1789.0554	2362.5614	2970.2833	3042.0622	3049.4634	3089.6643	3107.971	3603.0128	3627.26	3736.1752
NC(=O)C(O)CCC#N	NC(=O)[C@@H](O)CCC#N	
InChI=1S/C5H8N2O2/c6-3-1-2-4(8)5(7)9/h4,8H,1-2H2,(H2,7,9)	InChI=1S/C5H8N2O2/c6-3-1-2-4(8)5(7)9/h4,8H,1-2H2,(H2,7,9)/t4-/m0/s1
