17
gdb 23608	3.21332	1.11491	0.95039	2.5495	72.69	-0.2364	0.0004	0.2368	1246.7652	0.135083	-455.040844	-455.032246	-455.031302	-455.074858	31.287	
O	-0.2069549111	 1.3010121049	-0.2201302481	-0.389432
N	-0.0014368384	-0.0640819205	 0.0432011076	-0.235065
C	-1.0875526396	-0.7047263889	-0.0105018322	 0.426394
C	-2.549310887	-0.4249276746	-0.2703653947	-0.261967
N	-2.8117051772	-1.8927613546	-0.1532990306	-0.318039
C	-1.3889829712	-2.1800763617	 0.202082066	-0.131224
C	-0.6921041942	-3.154589652	-0.7234108232	 0.090311
C	-1.4461059686	-4.1224281998	-1.5284438646	-0.169742
O	-0.8819056344	-2.9484862537	-2.1177800861	-0.230142
H	 0.6872498676	 1.6557218371	-0.1700112349	 0.309407
H	-3.021878099	 0.2057221502	 0.4930537555	 0.12084
H	-2.7874432836	-0.016759711	-1.2582377015	 0.141038
H	-3.4559591928	-2.1212069868	 0.5942843989	 0.225022
H	-1.2317815223	-2.5056536958	 1.2404658674	 0.088122
H	 0.3337365834	-3.3906344976	-0.4359179554	 0.099338
H	-0.9791437505	-5.0632644902	-1.8165797367	 0.110895
H	-2.5315143712	-4.119125665	-1.4627138773	 0.124244
62.7872	84.1022	126.2279	204.7859	249.4973	287.3782	358.5549	383.9312	477.1968	589.9398	620.9913	685.4004	779.066	800.1586	882.0021	905.9431	938.3401	973.4253	988.4375	1010.0573	1041.0238	1087.2571	1100.0188	1125.3086	1161.6785	1170.3762	1178.9743	1235.3089	1287.1612	1297.3452	1344.6694	1381.51	1409.5932	1420.7943	1485.2181	1512.1372	1804.8393	3001.4368	3025.5023	3072.75	3088.8218	3102.3023	3187.3998	3547.6753	3817.1352
ON=C1CNC1C1CO1	ON=C1CN[C@H]1[C@H]1CO1	
InChI=1S/C5H8N2O2/c8-7-3-1-6-5(3)4-2-9-4/h4-6,8H,1-2H2	InChI=1S/C5H8N2O2/c8-7-3-1-6-5(3)4-2-9-4/h4-6,8H,1-2H2/t4-,5-/m1/s1
