17
gdb 51321	4.43405	0.93909	0.80299	3.8994	71.77	-0.229	-0.0207	0.2083	1376.4913	0.137253	-455.17107	-455.162797	-455.161853	-455.204673	29.927	
O	 0.0919010968	-0.0719974508	 0.0045842842	-0.257376
C	 0.0276652232	 1.1063748846	 0.1641740549	 0.174532
O	 1.0681299548	 1.9238449283	-0.2015611608	-0.22646
C	 0.9053974572	 3.2936427386	-0.138173421	 0.411787
N	-0.2399006442	 3.8183926665	-0.1653484718	-0.292699
C	-0.3326423358	 5.2753885007	-0.0597011664	-0.155902
C	 0.9500463423	 5.9491736915	 0.4432000041	-0.179727
N	 2.1507938967	 5.4351262579	-0.2204157231	-0.283942
C	 2.2465563108	 3.9887416853	-0.0605134536	-0.275162
H	-0.8057995175	 1.6639197681	 0.6099587847	 0.126858
H	-0.6051935646	 5.6614248661	-1.0519568401	 0.113714
H	-1.1782462778	 5.5106218999	 0.597871847	 0.115762
H	 0.8958387423	 7.0329157494	 0.3007071968	 0.111144
H	 1.0632434014	 5.7710729584	 1.5205364582	 0.114073
H	 2.1049680281	 5.6577163659	-1.2101842625	 0.22422
H	 2.7036682076	 3.7448307179	 0.9097103464	 0.138
H	 2.9104210086	 3.5668788218	-0.8212950069	 0.141176
66.7728	103.2174	146.4083	184.7279	261.9246	335.2993	369.3356	470.048	501.3524	544.6645	573.5754	755.0704	799.7719	851.7642	895.5073	930.4493	978.5338	998.8796	1045.3446	1072.7511	1119.2	1139.9226	1156.511	1202.3496	1216.059	1268.6727	1325.6268	1359.1126	1371.1701	1391.5167	1403.1222	1462.2542	1479.6985	1486.5186	1492.9673	1760.6574	1870.4829	3009.0587	3012.1836	3025.837	3052.2814	3073.3141	3085.3027	3087.3091	3510.5296
O=COC1=NCCNC1	O=COC1=NCCNC1	
InChI=1S/C5H8N2O2/c8-4-9-5-3-6-1-2-7-5/h4,6H,1-3H2	InChI=1S/C5H8N2O2/c8-4-9-5-3-6-1-2-7-5/h4,6H,1-3H2
