16
gdb 29561	2.36623	1.82545	1.0317	5.5385	79.93	-0.1635	0.0042	0.1676	1088.7518	0.126509	-434.097942	-434.089624	-434.088679	-434.130198	32.551	
N	 0.0657358457	 1.3619093268	-0.0427331389	-0.590195
C	-0.0093206928	-0.0237650926	 0.0172520309	 0.238705
C	-1.175989764	-0.7250870858	 0.0344984549	-0.089622
N	-1.1794297991	-2.0978464162	 0.1460179253	-0.336041
C	-0.0095282764	-2.7990613441	 0.2582197954	-0.120506
C	 1.18751272	-2.1545678389	 0.242552871	 0.239281
O	 2.3930307514	-2.7984814673	 0.3342739002	-0.447566
C	 1.2807287949	-0.7120731433	 0.1071002827	 0.217874
N	 2.3679873721	-0.0096300429	 0.0511687857	-0.598808
H	 1.0143735081	 1.6466625056	-0.2664385301	 0.264234
H	-0.6387344762	 1.8198249255	-0.6010719285	 0.235277
H	-2.1473620528	-0.2524626123	-0.0314288176	 0.109129
H	-2.0544000937	-2.5886178193	 0.1743635225	 0.261467
H	-0.100195034	-3.8750248626	 0.352893921	 0.106567
H	 2.2504865577	-3.7481961742	 0.3926236675	 0.293619
H	 3.1839229091	-0.6163530083	 0.116266728	 0.216584
116.5892	239.6732	248.1511	260.5771	317.8598	333.2302	349.4459	355.7246	477.5083	510.9562	520.0061	527.9127	570.2998	683.5789	706.78	772.562	788.364	812.548	834.1963	879.021	994.4137	1070.4842	1148.1479	1182.6571	1250.4146	1268.6965	1327.507	1360.5302	1436.694	1462.0549	1561.7832	1602.2634	1628.405	1670.1455	1690.5642	3190.7105	3211.5197	3494.4728	3506.3638	3645.4961	3691.8672	3830.9456
NC1=CNC=C(O)C1=N	NC1=CNCC(=C1[NH])O	
InChI=1S/C5H7N3O/c6-3-1-8-2-4(9)5(3)7/h1-2,9H,6H2,(H2,7,8)	InChI=1S/C5H8N3O/c6-3-1-8-2-4(9)5(3)7/h1,7-9H,2,6H2
