14
gdb 36180	3.83946	1.22522	1.13388	3.685	65.09	-0.2641	0.0183	0.2825	1057.0449	0.099389	-436.575162	-436.567987	-436.567043	-436.607454	26.885	
N	-0.0000163833	-1.1745010797	-0.0416097903	-0.297898
C	 0.0247918164	-0.0212157112	-0.0950215265	 0.268189
C	 0.0619769777	 1.4399095644	-0.1477199341	-0.491318
C	 1.4594111	 1.9888560911	-0.0545138491	 0.439641
O	 2.417692893	 1.7404517785	-1.1149135561	-0.335994
C	 3.1826330852	 2.5554498848	-0.1794931588	 0.036231
C	 1.9679761104	 3.4437194713	 0.2357595295	-0.013473
O	 2.136054629	 3.2191848326	 1.6602176744	-0.320235
C	 2.5250034864	 1.9369114375	 1.0927100619	 0.004275
H	-0.4060570384	 1.7817599764	-1.0775734811	 0.1725
H	-0.5215215579	 1.845925846	 0.6868031964	 0.17691
H	 4.2154881364	 2.8047831716	-0.4133236261	 0.119704
H	 1.6235061184	 4.4146628282	-0.118722656	 0.115042
H	 2.8359581968	 1.1271067285	 1.7506789159	 0.126426
63.2747	110.8327	224.1418	298.6499	386.6411	437.3263	530.6303	588.2135	698.2421	754.4785	774.3848	779.4609	833.8516	853.4046	897.221	933.8389	952.557	958.7848	1045.9496	1055.9155	1104.7985	1130.965	1163.1342	1171.0031	1219.3055	1266.1735	1290.5206	1325.4155	1394.585	1443.5514	2370.0981	3046.5795	3090.2766	3132.0315	3141.9719	3158.4456
N#CCC12OC3C1OC23	N#CC[C@@]12O[C@H]3[C@@H]1O[C@@H]23	
InChI=1S/C6H5NO2/c7-2-1-6-4-3(9-6)5(6)8-4/h3-5H,1H2	InChI=1S/C6H5NO2/c7-2-1-6-4-3(9-6)5(6)8-4/h3-5H,1H2/t3-,4-,5+,6+
