15
gdb 125703	3.13238	1.46448	1.0042	3.2727	73.99	-0.2427	-0.0443	0.1983	1122.7841	0.11337	-450.121909	-450.113851	-450.112907	-450.154817	29.891	
C	-0.1552121267	 1.4939169767	 0.0147357363	-0.481687
C	-0.0067586711	 0.0035500502	-0.0413516231	 0.444828
N	 0.2914796851	-0.5214537877	-1.1766731795	-0.176225
O	 0.4252672285	-1.9391349738	-1.1964763029	-0.292193
C	 0.254431982	-2.7254913811	-0.0962442859	 0.366334
N	 0.380482207	-3.9832495189	-0.1473936198	-0.513297
C	-0.0920066044	-2.0730684432	 1.2049994438	 0.32177
N	-0.2807021252	-2.6696488775	 2.3077563828	-0.513128
N	-0.1991843038	-0.6953670152	 1.1208271627	-0.386824
H	 0.5602162216	 1.9263418143	 0.722529329	 0.147865
H	 0.0251682588	 1.9111564229	-0.9751872415	 0.170906
H	-1.1636916672	 1.7689387015	 0.3420502222	 0.147878
H	 0.616755478	-4.2911901201	-1.0915437776	 0.239151
H	-0.1565845933	-3.6722185053	 2.1597733054	 0.254336
H	-0.4318873695	-0.211848473	 1.9761571581	 0.270286
77.129	107.3638	164.3496	292.9819	295.7921	354.0249	418.4902	468.7444	520.4945	567.323	571.5886	634.5371	674.4246	773.7408	793.5399	878.9954	906.6755	917.5936	1014.2888	1066.2916	1069.0043	1088.1915	1143.0458	1257.1266	1304.48	1410.3872	1435.0936	1474.096	1479.6671	1517.1429	1702.2663	1738.8603	1743.8218	3041.2154	3099.319	3166.3234	3488.2318	3491.2254	3615.6545
CC1=NOC(=N)C(=N)N1	CC1=NOC(=C([NH])N1)[NH]	
InChI=1S/C4H6N4O/c1-2-7-3(5)4(6)9-8-2/h6H,1H3,(H2,5,7,8)	InChI=1S/C4H6N4O/c1-2-7-3(5)4(6)9-8-2/h6H,1H3,(H2,5,7,8)
