16
gdb 102364	1.85408	1.37595	1.34484	3.5285	65.68	-0.2718	-0.0574	0.2145	1114.99	0.119949	-475.011878	-475.001568	-475.000624	-475.047849	34.682	
C	-0.0970423768	 1.2603185586	 0.2293077081	-0.267001
O	-0.0159900582	-0.1530104679	 0.053637047	-0.26482
C	 0.6110742709	-0.5871032042	-1.1303260268	 0.08526
C	 0.680364761	-2.136299083	-1.020505599	-0.115769
O	 1.2332841169	-2.7290764279	-2.1647772839	-0.40522
C	-0.2600555891	-0.227384108	-2.353357791	 0.144743
O	 0.1225341121	 0.3168798034	-3.3476563705	-0.217165
C	 1.9822819922	-0.0592483027	-1.2822956331	 0.269884
N	 3.0753000934	 0.3041198275	-1.3711275622	-0.334118
H	 0.9007179844	 1.7107386689	 0.2906508603	 0.147416
H	-0.6559493751	 1.7424874112	-0.5830984537	 0.131117
H	-0.6255452039	 1.4166571263	 1.1705934639	 0.147219
H	 1.215206376	-2.3790229633	-0.0932731658	 0.129384
H	-0.3458378438	-2.5034152916	-0.9263744941	 0.135674
H	 2.1702829461	-2.5056428786	-2.2093167937	 0.306867
H	-1.3179843262	-0.5324682588	-2.1947177854	 0.106529
55.0516	83.2019	105.2805	137.1594	153.9051	186.8652	194.1531	284.2631	316.8953	383.3885	409.6781	428.5198	458.2571	634.9128	641.8972	711.1467	896.1782	949.1091	1036.9217	1095.3709	1106.8843	1133.0204	1148.5754	1183.4351	1230.5992	1265.9247	1370.0757	1393.1398	1411.5067	1480.5545	1488.9381	1501.1698	1506.596	1852.5392	2354.978	2900.2949	3012.3894	3026.8308	3078.0813	3099.5674	3143.7545	3800.3996
COC(CO)(C=O)C#N	CO[C@@](CO)(C=O)C#N	
InChI=1S/C5H7NO3/c1-9-5(2-6,3-7)4-8/h3,8H,4H2,1H3	InChI=1S/C5H7NO3/c1-9-5(2-6,3-7)4-8/h3,8H,4H2,1H3/t5-/m1/s1
