18
gdb 33015	5.03491	0.90019	0.77106	3.4465	81.79	-0.2476	-0.0176	0.23	1457.6374	0.149146	-401.994812	-401.986436	-401.985492	-402.029185	30.059	
C	-0.3019823095	 1.4404414009	-0.4961028287	-0.228195
O	-0.3528063343	 0.0419338239	-0.6520404383	-0.230021
C	-0.9667189396	-0.6077428075	 0.4314613598	-0.145924
C	-0.9910804697	-2.0994942674	 0.2067746387	 0.253886
C	-0.4601447252	-2.6862313669	-0.938535724	-0.187604
C	-0.5211975872	-4.0716573808	-1.0719617351	 0.009546
N	-1.0610404021	-4.8891992266	-0.1654722896	-0.271872
C	-1.567944352	-4.3149519421	 0.9305782437	 0.011477
C	-1.558288703	-2.9449064102	 1.1616976959	-0.191796
H	 0.1886458987	 1.8490121176	-1.3822243248	 0.132977
H	-1.3092422681	 1.8776839557	-0.4119263018	 0.108604
H	 0.2741692089	 1.7299803438	 0.3966772798	 0.108603
H	-0.4304777918	-0.3855564937	 1.3715105591	 0.105644
H	-1.9989710923	-0.2393162226	 0.5704854441	 0.10563
H	-0.0099102039	-2.0716532163	-1.7068482149	 0.117139
H	-0.1114450293	-4.5479396405	-1.9601573258	 0.10631
H	-2.0060458829	-4.9876732779	 1.6645284769	 0.105727
H	-1.9883542567	-2.5454507193	 2.0755734352	 0.089867
30.8547	75.7137	151.4796	208.1414	229.5424	340.9534	389.3324	391.3388	498.3126	609.2033	681.2745	753.8207	824.0676	837.5508	903.5404	986.7687	1002.4871	1004.956	1010.264	1046.3217	1092.8231	1109.4602	1163.492	1185.4136	1221.6185	1234.666	1251.2359	1262.2786	1296.3442	1352.9946	1411.3002	1445.1988	1478.6644	1485.8766	1497.0298	1520.5957	1530.0814	1606.0454	1640.8007	2938.7956	2956.9867	2973.7218	3018.68	3120.6714	3147.9699	3150.4263	3173.6993	3224.5841
COCC1=CC=NC=C1	COCc1ccncc1	
InChI=1S/C7H9NO/c1-9-6-7-2-4-8-5-3-7/h2-5H,6H2,1H3	InChI=1S/C7H9NO/c1-9-6-7-2-4-8-5-3-7/h2-5H,6H2,1H3
