23
gdb 106523	2.94222	1.31932	1.13944	1.21	84.73	-0.26	0.0736	0.3337	1187.7304	0.208526	-388.290794	-388.28238	-388.281436	-388.3234	33.994	
O	-0.0045870444	 1.4121299936	-0.2329137324	-0.424997
C	 0.0110123948	 0.0212825104	 0.0668697331	-0.176295
C	-1.4096379271	-0.4996759397	 0.0046498187	 0.367224
C	-2.1292239372	-0.5304506696	-1.3804023321	-0.253875
C	-2.8516093151	-1.8094228454	-0.86464797	-0.010207
C	-1.6130490835	-2.0408157613	 0.0433861175	-0.267047
C	-4.0630732438	-1.442227433	 0.0096209491	-0.198998
C	-3.8190976703	-0.102112425	 0.7434601025	-0.209843
C	-2.3268276956	 0.1401427682	 1.0681171276	-0.242322
H	 0.8927306794	 1.7477569965	-0.153338559	 0.286955
H	 0.633793576	-0.5300349173	-0.6568635886	 0.076007
H	 0.4308032503	-0.1640563608	 1.0706059647	 0.079255
H	-2.7278920894	 0.3322353487	-1.6817078871	 0.09458
H	-1.4210045372	-0.7664457885	-2.1799479406	 0.087756
H	-3.0982699078	-2.5887635837	-1.589925063	 0.054297
H	-0.8126940301	-2.5702714401	-0.4842150661	 0.084693
H	-1.7737282616	-2.5088839629	 1.0205696369	 0.08235
H	-4.9695783171	-1.3628410723	-0.6017516016	 0.089225
H	-4.2414774175	-2.2554443688	 0.7246634313	 0.091496
H	-4.1653529578	 0.7114617895	 0.0977390726	 0.105107
H	-4.4269173882	-0.0389929898	 1.6515472817	 0.089166
H	-2.0665626991	-0.2837834815	 2.0472636804	 0.085478
H	-2.1290201078	 1.2146691829	 1.1247690742	 0.109998
101.1965	158.2204	212.8995	242.658	278.4257	322.9433	399.203	419.5705	440.3288	500.4303	573.4139	669.148	766.7449	815.2092	846.7449	862.2694	883.7049	918.9563	926.9767	941.8241	975.7413	1009.5948	1032.8616	1054.9365	1064.8315	1073.17	1114.7492	1122.1434	1174.9285	1194.0476	1215.4592	1223.6864	1235.4147	1251.235	1258.7072	1293.5732	1308.8141	1318.558	1334.9593	1364.3106	1370.1202	1384.7258	1458.2521	1477.2694	1494.6274	1495.7661	1499.4485	1514.1458	1524.9076	2949.579	2980.0469	3014.913	3019.2338	3030.6247	3040.2583	3055.1802	3056.116	3072.6652	3075.8093	3084.2972	3088.9928	3109.6538	3833.2581
OCC12CC(C1)CCC2	OC[C@@]12C[C@@H](C1)CCC2	
InChI=1S/C8H14O/c9-6-8-3-1-2-7(4-8)5-8/h7,9H,1-6H2	InChI=1S/C8H14O/c9-6-8-3-1-2-7(4-8)5-8/h7,9H,1-6H2/t7-,8-
