13
gdb 8651	2.60213	1.8153	1.40381	2.89	60.19	-0.2869	-0.0119	0.2749	904.7175	0.092783	-398.556112	-398.54769	-398.546746	-398.588783	30.349	
O	 0.0512374444	 1.3306317134	-0.3034257445	-0.422356
C	 0.0488389578	-0.0507606169	-0.010478141	-0.105778
C	-1.4185930473	-0.5804334636	-0.0183282051	 0.008749
O	-2.0415135218	-0.1882816112	-1.2217733557	-0.428283
C	-1.4368493206	-2.0356512352	 0.1068867222	 0.340528
C	-1.390237426	-3.2286158638	 0.225101056	-0.406908
C	-2.1179441913	 0.0444840792	 1.1431587586	 0.249414
N	-2.603903444	 0.6047775451	 2.0294708826	-0.335276
H	-0.2293929562	 1.8112527728	 0.4851271473	 0.308963
H	 0.5781526052	-0.5522180143	-0.8238181833	 0.145075
H	 0.5347421015	-0.2880588142	 0.9422855443	 0.130479
H	-1.7041912329	 0.7035123095	-1.4015490508	 0.300138
H	-1.3710137888	-4.2864331208	 0.3258581494	 0.215256
111.6552	128.1755	148.2904	190.0285	252.9426	323.8352	396.1831	444.1977	489.6648	502.6962	547.1417	574.446	620.917	663.6795	693.1042	733.2994	916.0011	1012.7007	1081.166	1087.1202	1126.3836	1238.7899	1367.2276	1402.1945	1413.9273	1485.592	2252.431	2348.8064	3047.8539	3124.2308	3498.6919	3712.9488	3790.9199
OCC(O)(C#C)C#N	OC[C@@](O)(C#C)C#N	
InChI=1S/C5H5NO2/c1-2-5(8,3-6)4-7/h1,7-8H,4H2	InChI=1S/C5H5NO2/c1-2-5(8,3-6)4-7/h1,7-8H,4H2/t5-/m1/s1
