19
gdb 8459	3.94353	1.77184	1.58523	0.6886	70.47	-0.2257	0.0683	0.294	887.0205	0.167128	-365.030785	-365.0236	-365.022656	-365.061545	29.412	
C	-0.1028892443	 1.5185975551	 0.0063447696	-0.414077
C	 0.0831497027	 0.0086252936	 0.0103808578	 0.081324
C	 0.9925910258	-0.5804496635	-1.1181432483	-0.271094
C	 1.9684641066	-1.3368787902	-0.2065303771	 0.391886
O	 2.9514996627	-2.0426867003	-0.8910665449	-0.480302
C	 0.9956952039	-1.9317271125	 0.8535289826	-0.238652
N	 0.7666344786	-0.4912467949	 1.2605437801	-0.133763
C	 2.2233115475	-0.2747733422	 0.899368277	-0.245235
H	 0.8518313969	 2.0536814781	 0.0107314283	 0.11603
H	-0.648846695	 1.829057013	-0.8905527634	 0.115807
H	-0.6727189697	 1.8338681411	 0.8852762537	 0.125919
H	-0.9059234622	-0.4603363058	-0.0093569489	 0.07706
H	 0.4659746046	-1.2502303267	-1.8030877274	 0.101803
H	 1.5023474766	 0.1857496715	-1.709981746	 0.101695
H	 3.521970806	-2.4740848545	-0.2463594156	 0.280661
H	 0.1031828349	-2.4719940124	 0.5238778704	 0.098625
H	 1.497114735	-2.4775366044	 1.658129088	 0.094657
H	 2.8617978792	-0.6278801833	 1.7141584067	 0.096388
H	 2.5039817602	 0.7426111084	 0.6174043475	 0.101267
178.3094	220.4119	270.6037	317.256	363.0657	397.2245	449.1141	499.1788	546.3238	608.9929	659.8864	796.8985	841.2712	857.8558	867.1155	924.4997	945.9597	962.6837	981.5645	1019.1054	1057.7031	1086.8153	1123.2332	1129.1521	1172.6553	1206.1112	1211.2649	1213.1351	1230.7813	1253.0372	1315.9949	1331.625	1387.4792	1397.3266	1412.7927	1485.5929	1495.4835	1501.0957	1502.9515	1535.1759	3037.901	3043.1078	3046.9267	3054.7792	3060.8722	3102.3198	3104.099	3108.3473	3114.4916	3120.6146	3810.4021
CC1CC2(O)CN1C2	C[C@H]1C[C@]2(O)CN1C2	
InChI=1S/C6H11NO/c1-5-2-6(8)3-7(5)4-6/h5,8H,2-4H2,1H3	InChI=1S/C6H11NO/c1-5-2-6(8)3-7(5)4-6/h5,8H,2-4H2,1H3/t5-/m0/s1
