17
gdb 27053	3.01473	1.36275	0.97284	1.3115	79.53	-0.1891	0.027	0.2161	1181.8131	0.138524	-414.235727	-414.227268	-414.226324	-414.269301	31.289	
C	 1.0379349752	 0.9081734551	-0.5267336666	-0.525669
C	 0.2378299504	-0.3116856448	-0.217699359	 0.24406
C	-0.4841637879	-1.2286820639	-0.9534127772	 0.264286
N	-0.7240638714	-1.36965383	-2.3279471322	-0.371675
C	 0.0794871346	-1.0915568742	-3.3965961692	 0.074068
N	 1.2032439151	-0.4869813659	-3.3289472791	-0.45983
N	-1.1248205937	-2.136190206	-0.1401543426	-0.321562
C	-0.7968000237	-1.798083025	 1.0843450994	 0.00984
N	 0.0218454717	-0.7161836517	 1.0929684962	-0.284834
H	 1.3991420782	 0.8499076793	-1.5545713849	 0.190263
H	 0.4454919972	 1.8253437358	-0.4107639992	 0.119074
H	 1.9024438267	 0.9893564919	 0.1435152436	 0.108998
H	-1.4921925073	-1.9983479486	-2.5043557031	 0.255294
H	-0.3798591702	-1.4468323118	-4.3271294483	 0.087612
H	 1.5979653773	-0.3860429832	-4.2603639563	 0.218856
H	-1.1151357497	-2.2985432712	 1.9861296075	 0.129
H	 0.4215559377	-0.2725395759	 1.902994881	 0.262222
42.0435	138.788	197.1688	219.6292	239.602	289.487	363.1029	429.2646	509.6065	535.5721	596.5887	659.1679	692.9071	725.1132	788.6097	792.0005	831.2113	956.8358	996.227	1034.4322	1071.2534	1111.2533	1139.0371	1172.473	1242.3155	1270.3415	1295.5078	1379.8346	1416.0269	1417.7654	1471.1988	1488.6381	1505.9516	1518.4008	1576.6826	1651.0558	1724.4257	3009.3095	3043.1358	3059.064	3135.0903	3254.676	3518.572	3633.5112	3662.1763
CC1=C(NC=N)N=CN1	Cc1c(NC=N)nc[nH]1	
InChI=1S/C5H8N4/c1-4-5(7-2-6)9-3-8-4/h2-3H,1H3,(H2,6,7)(H,8,9)	InChI=1S/C5H8N4/c1-4-5(7-2-6)9-3-8-4/h2-3H,1H3,(H2,6,7)(H,8,9)
