18
gdb 62522	1.81818	1.51392	1.04478	5.0431	76.06	-0.2539	-0.0408	0.2131	1217.4911	0.144034	-439.094018	-439.08428	-439.083336	-439.128703	34.604	
C	 0.4748705452	 1.3730001977	 0.4013132374	-0.456738
C	 0.0684291951	-0.0503936327	 0.063363576	 0.265453
C	-1.3704802308	-0.3904672203	 0.4000086308	-0.438767
C	 0.6945220991	-0.7787035681	-1.1342956472	-0.160706
C	 1.7006480505	-0.1144476904	-2.0197258598	 0.165065
O	 1.6541227754	-0.2103122894	-3.2199913458	-0.25627
N	 1.0193537863	-1.1248102145	 0.2342459714	-0.091215
C	 2.2720630327	-1.1302626205	 0.8162123031	 0.141494
O	 3.2898882655	-1.478739699	 0.2689096382	-0.292997
H	 1.5277681128	 1.5722937466	 0.192655461	 0.135613
H	-0.1290401351	 2.0843708291	-0.1701899604	 0.14212
H	 0.2971812938	 1.5701784596	 1.4638231824	 0.134484
H	-2.0563661776	 0.2556149611	-0.156779152	 0.133005
H	-1.5936213542	-1.4317682527	 0.1584452227	 0.138281
H	-1.5569712493	-0.2385006766	 1.4687862422	 0.129925
H	 0.0678212321	-1.4906803582	-1.6670865948	 0.119762
H	 2.4873837449	 0.4772874383	-1.5126984084	 0.098994
H	 2.2204466234	-0.85235509	 1.8860027731	 0.092499
74.5273	106.1963	148.3513	178.8992	207.24	227.5776	247.0779	287.8589	339.2708	392.0252	436.3218	451.3691	506.0524	634.1851	678.4847	868.8815	953.1266	965.1979	991.7246	1019.3474	1022.7352	1034.5971	1089.1378	1124.6875	1142.4407	1225.0221	1276.4691	1311.215	1403.764	1412.2567	1415.5339	1423.6826	1452.8941	1475.7282	1486.267	1496.4015	1512.2656	1791.1591	1818.1316	2940.0798	2956.9854	3037.7387	3044.1517	3102.3578	3106.9652	3132.0255	3133.6266	3141.7287
CC1(C)C(C=O)N1C=O	CC1(C)[C@@H](C=O)N1C=O	
InChI=1S/C6H9NO2/c1-6(2)5(3-8)7(6)4-9/h3-5H,1-2H3	InChI=1S/C6H9NO2/c1-6(2)5(3-8)7(6)4-9/h3-5H,1-2H3/t5-,7?/m1/s1
