20
gdb 62848	2.81696	1.57744	1.36424	3.0868	80.08	-0.2518	0.0323	0.2841	1040.8934	0.171708	-403.146822	-403.138652	-403.137708	-403.178995	32.713	
C	-0.1326171725	 1.5151835008	 0.0154493282	-0.467394
C	-0.0264410848	-0.0120814001	 0.0135168847	 0.321445
C	-1.4179590433	-0.6050623291	-0.2073711928	-0.46176
C	 1.1545674557	-0.6150829541	-0.8179646185	 0.055327
C	 2.1233878379	-0.2192643177	 0.315036342	-0.258619
C	 0.8741895627	-0.6231032624	 1.1769768288	-0.159258
C	 0.8177667257	-2.0790619249	 0.794326196	 0.44382
N	 0.6400188987	-3.1005845408	 1.5083559247	-0.583165
O	 1.0105889009	-2.0482958005	-0.5770352764	-0.263492
H	 0.8067213532	 2.0344044295	 0.2096453107	 0.119009
H	-0.5116442967	 1.8664740286	-0.9508933091	 0.121644
H	-0.8494454645	 1.8353450566	 0.779166432	 0.125727
H	-1.8565236385	-0.207954145	-1.1296620338	 0.113747
H	-1.4066690273	-1.6927234459	-0.2814330884	 0.140847
H	-2.083563882	-0.3277309348	 0.6171371695	 0.121173
H	 1.3198520558	-0.4421758168	-1.8803247958	 0.086115
H	 3.0180935741	-0.8362056644	 0.4155831413	 0.11713
H	 2.3798904931	 0.83568091	 0.3638435915	 0.114711
H	 0.7517004872	-0.3791581554	 2.2290714694	 0.091613
H	 0.6625404046	-3.9467092136	 0.9349733559	 0.221381
147.7824	154.3454	193.129	205.3692	318.1682	360.194	398.1543	445.1867	500.1028	520.2933	625.2951	653.1569	732.961	795.2843	848.1765	864.0988	884.9239	894.8002	932.3109	955.994	964.1195	993.4308	1011.5973	1018.6773	1076.1216	1087.7031	1115.581	1184.5548	1190.1482	1217.006	1227.8208	1237.8698	1280.2364	1301.02	1347.24	1407.87	1426.6475	1480.6788	1484.3105	1497.5825	1509.1118	1517.4706	1806.469	3034.0794	3039.9158	3090.0098	3092.9947	3095.639	3130.1767	3136.3315	3144.0796	3159.9004	3173.8474	3461.0702
CC1(C)C2CC1C(=N)O2	CC1(C)[C@H]2C[C@@H]1[C]([NH])O2	
InChI=1S/C7H11NO/c1-7(2)4-3-5(7)9-6(4)8/h4-5,8H,3H2,1-2H3	InChI=1S/C7H11NO/c1-7(2)4-3-5(7)9-6(4)8/h4-5,8H,3H2,1-2H3/t4-,5-/m1/s1
