23
gdb 119901	2.57049	0.85946	0.79118	1.713	82.72	-0.2397	0.0755	0.3152	1586.1711	0.202626	-425.409258	-425.398036	-425.397092	-425.44565	40.847	
C	-1.6998289458	 0.7814438477	-1.3697001281	-0.416158
C	-0.7879091554	-0.2832579412	-0.7978564231	-0.081281
C	 0.6214005917	-0.5635363513	-1.3233181851	-0.063758
C	 1.260022309	 0.1887867551	-2.4712583678	-0.209124
C	 0.9439741339	-0.4450804441	-3.822609053	-0.066297
O	 1.6050164146	 0.3146644918	-4.823734645	-0.423152
C	 0.4314069858	 0.0153282963	 0.0515632933	 0.356329
C	 0.8496718455	 1.4248087683	 0.4067669078	-0.449489
O	 0.7188867102	-0.9148798827	 1.0732066091	-0.465865
H	-1.1561637592	 1.663857444	-1.7158787617	 0.119129
H	-2.2668472487	 0.3933552757	-2.2235301587	 0.117501
H	-2.4264521212	 1.1196536718	-0.6219612614	 0.114161
H	-1.3121779094	-1.1801485726	-0.4765417869	 0.082471
H	 0.8937311263	-1.6161102413	-1.2904508396	 0.091194
H	 0.9386291794	 1.2341098404	-2.5055519069	 0.102488
H	 2.3499751205	 0.2067217886	-2.3474105749	 0.109256
H	 1.2834397651	-1.4938379833	-3.8274151168	 0.084612
H	-0.1462089402	-0.4560705305	-3.9821131988	 0.087796
H	 1.4199194983	-0.0866716252	-5.6775523435	 0.284446
H	 0.6720013423	 2.1356720767	-0.4025952532	 0.11948
H	 0.2943037546	 1.7804555774	 1.284030672	 0.104137
H	 1.915551091	 1.4473852488	 0.6548055443	 0.127591
H	 0.1550976817	-0.7048033005	 1.826502298	 0.274534
59.204	85.2602	110.9438	163.4415	191.2831	213.5385	236.415	259.1218	269.7803	282.8674	317.7681	373.3139	418.8456	476.7714	495.9944	576.2832	692.8906	787.3818	799.7992	870.0559	935.8679	983.3339	1006.7487	1024.8592	1042.4825	1071.4499	1085.3578	1094.7103	1131.3239	1157.5954	1172.5369	1216.7024	1238.7169	1250.7286	1290.4988	1308.5775	1319.6829	1345.532	1382.9608	1414.9986	1424.921	1457.2862	1461.2423	1481.4146	1492.195	1494.8258	1502.1247	1519.199	1527.1723	2962.5118	2989.4192	3024.9143	3029.7232	3036.4969	3081.0461	3084.9413	3088.3647	3111.7033	3129.185	3130.3018	3141.4969	3785.1127	3831.3046
CC1C(CCO)C1(C)O	C[C@H]1[C@@H](CCO)[C@]1(C)O	
InChI=1S/C7H14O2/c1-5-6(3-4-8)7(5,2)9/h5-6,8-9H,3-4H2,1-2H3	InChI=1S/C7H14O2/c1-5-6(3-4-8)7(5,2)9/h5-6,8-9H,3-4H2,1-2H3/t5-,6+,7+/m0/s1
