19
gdb 17379	3.85215	1.5271	1.26715	2.4382	71.1	-0.2249	0.0724	0.2973	1010.0486	0.165394	-365.013109	-365.004985	-365.004041	-365.04549	31.027	
C	 0.0886761209	 1.4843640692	-0.08984477	-0.407174
C	 0.0315368183	-0.0324098083	 0.0904286383	 0.127639
O	 0.6439417173	-0.4312873625	 1.3189230669	-0.437842
C	-1.3871254758	-0.5856503485	 0.0059014057	 0.013835
C	-2.1725309302	-0.5276465285	-1.3605461666	-0.256069
C	-2.3040518037	-2.0531774097	-1.2991232093	-0.042381
N	-0.9155702491	-2.5746315617	-1.2891592969	-0.329362
C	-1.5401232963	-2.1144298463	-0.0242493721	-0.059601
H	 1.1201019735	 1.8370977305	-0.0033201837	 0.122774
H	-0.3004995012	 1.7870322966	-1.0671933546	 0.11936
H	-0.5108961116	 1.9917920517	 0.6777269913	 0.098819
H	 0.6303595037	-0.5196385564	-0.6855236875	 0.108618
H	 0.1854893157	 0.0261778018	 2.0328923146	 0.270508
H	-1.9993232577	-0.1524514082	 0.8068729228	 0.057634
H	-3.1225620627	 0.0036506332	-1.2755735101	 0.100664
H	-1.618667209	-0.1521973122	-2.2252797272	 0.105624
H	-3.1229167865	-2.6654205954	-1.6561821017	 0.090399
H	-0.9739105078	-3.5925253633	-1.2926932113	 0.227337
H	-1.6318521676	-2.7859390521	 0.8199214014	 0.08922
84.3058	145.0448	175.6704	233.6014	282.5138	332.9448	384.3914	412.296	468.3188	575.1488	694.2845	793.4349	813.387	837.6998	897.8237	919.1355	953.4174	959.5839	987.8041	1011.2081	1030.6581	1067.673	1095.694	1105.6116	1118.1535	1147.9625	1182.1582	1207.0198	1250.1	1259.6462	1300.998	1321.9283	1327.2087	1382.5205	1396.8185	1400.7734	1426.5921	1476.3965	1490.94	1494.4045	3017.9253	3026.1083	3061.5864	3070.3627	3093.2763	3116.0904	3120.4173	3184.576	3199.5554	3473.907	3790.4967
CC(O)C1CC2NC12	C[C@@H](O)[C@H]1C[C@H]2N[C@@H]12	
InChI=1S/C6H11NO/c1-3(8)4-2-5-6(4)7-5/h3-8H,2H2,1H3	InChI=1S/C6H11NO/c1-3(8)4-2-5-6(4)7-5/h3-8H,2H2,1H3/t3-,4-,5-,6+/m1/s1
