16
gdb 55664	2.56621	1.11052	0.80008	6.0908	73.38	-0.2404	-0.0157	0.2246	1361.0111	0.120584	-437.891154	-437.881074	-437.88013	-437.927112	35.06	
N	-0.0294403394	 1.3307309585	-0.4344286488	-0.531032
C	 0.0516634972	 0.0589121454	 0.0391702631	 0.416613
O	 1.083410722	-0.4155191444	 0.4799205656	-0.340705
C	-1.2469471947	-0.7388329419	 0.014444604	-0.337704
C	-0.9671497448	-2.2522358427	-0.0629019963	-0.235041
C	-0.1005619189	-2.7466689809	 1.1184840439	 0.193359
O	 0.6842479385	-3.6466524402	 1.0279346433	-0.250339
C	-2.218080136	-3.0043061984	-0.0418491505	 0.294784
C	-3.2541499456	-3.6107732977	 0.0211512278	-0.429981
H	 0.7924554286	 1.9113067897	-0.394101601	 0.268231
H	-0.8808704419	 1.7181635088	-0.800286991	 0.264514
H	-1.7968396988	-0.5189076965	 0.9385388487	 0.146224
H	-1.8958436543	-0.4341550594	-0.8119114045	 0.124398
H	-0.4049375948	-2.4889932637	-0.9725905327	 0.13393
H	-0.3260196549	-2.244359445	 2.0834012125	 0.081421
H	-4.1611676521	-4.1620190817	 0.057789086	 0.201329
40.2317	82.9345	117.1205	121.3621	180.6815	200.0678	233.6161	298.0324	380.1483	440.2831	472.8788	514.3848	581.1056	617.0975	637.9828	644.1764	693.1469	850.6009	865.4807	935.8971	1028.0077	1043.0467	1080.8038	1102.5492	1192.8676	1247.4142	1289.6474	1332.4134	1404.5663	1414.1247	1464.3364	1620.4426	1785.4501	1845.3445	2232.5866	2900.0077	3038.0496	3060.7397	3091.1822	3504.0477	3603.9282	3741.2853
NC(=O)CC(C=O)C#C	NC(=O)C[C@@H](C=O)C#C	
InChI=1S/C6H7NO2/c1-2-5(4-8)3-6(7)9/h1,4-5H,3H2,(H2,7,9)	InChI=1S/C6H7NO2/c1-2-5(4-8)3-6(7)9/h1,4-5H,3H2,(H2,7,9)/t5-/m0/s1
