23
gdb 116038	2.40129	1.3382	0.98499	1.0972	87.78	-0.2377	0.03	0.2677	1305.5031	0.206313	-388.30271	-388.293202	-388.292258	-388.336915	36.028	
C	 0.0305109891	 1.3915561656	 0.0716012703	-0.239824
O	-0.0456499445	-0.0101338448	-0.0242198768	-0.253258
C	 0.6485359302	-0.5706723642	-1.1290256795	 0.136736
C	 2.161728929	-0.6697633082	-0.8961313553	-0.229532
C	 2.8632475869	-1.1938745058	-2.1589080148	-0.258566
C	 2.1209997358	-2.3508165498	-2.774380794	-0.052031
C	 0.8728939669	-2.6836705482	-2.4465938705	-0.063638
C	 0.0363989394	-1.954242418	-1.4223229061	-0.048117
C	-0.1750437472	-2.8108192903	-0.1584625875	-0.384755
H	 1.0521724954	 1.7523292458	 0.2616804212	 0.105432
H	-0.3405825952	 1.8818824514	-0.8426290367	 0.10198
H	-0.6011357611	 1.6920515628	 0.9116762852	 0.124887
H	 0.4789103426	 0.0649549527	-2.0157924306	 0.059914
H	 2.5712808073	 0.3055814033	-0.615127011	 0.091223
H	 2.3478212121	-1.3475043026	-0.0557324476	 0.107871
H	 2.95979822	-0.3860849133	-2.9002561705	 0.10675
H	 3.8925003021	-1.4920902996	-1.9227709663	 0.103418
H	 2.6504376105	-2.9280094034	-3.529272094	 0.081975
H	 0.4032394535	-3.5423835121	-2.9222515318	 0.082092
H	-0.9582813068	-1.7782013318	-1.8549247138	 0.077223
H	 0.7742624104	-3.0352019345	 0.3373386562	 0.113994
H	-0.8217806571	-2.2926897118	 0.5521189873	 0.130989
H	-0.6399714892	-3.765837113	-0.4241278132	 0.105237
77.9528	107.8294	154.9274	185.5609	226.4144	242.3931	279.4523	333.6186	376.5703	451.7812	483.0416	491.3177	599.7037	714.3778	750.8789	800.0885	869.0315	885.9223	929.0344	992.867	1007.3302	1015.7109	1027.8603	1052.2234	1086.8719	1109.2656	1139.3162	1147.6784	1177.6907	1189.1985	1224.4548	1228.4118	1258.3395	1320.0978	1332.083	1352.9595	1367.5254	1377.5197	1397.8211	1404.083	1423.208	1475.5506	1479.0089	1489.0955	1489.7625	1501.3769	1504.6063	1511.7356	1723.0774	2942.9312	2973.4013	2994.5573	3005.3897	3020.5249	3034.9473	3041.9666	3050.1601	3086.4247	3105.4254	3107.8747	3135.1758	3135.9337	3159.7824
COC1CCC=CC1C	CO[C@H]1CCC=C[C@H]1C	
InChI=1S/C8H14O/c1-7-5-3-4-6-8(7)9-2/h3,5,7-8H,4,6H2,1-2H3	InChI=1S/C8H14O/c1-7-5-3-4-6-8(7)9-2/h3,5,7-8H,4,6H2,1-2H3/t7-,8+/m1/s1
