21
gdb 95783	2.1841	1.62382	1.00178	1.3636	78.59	-0.2409	-0.0162	0.2247	1226.8646	0.182448	-424.26292	-424.253652	-424.252708	-424.29681	34.675	
C	-0.1160262541	 1.5406365485	-0.0285692874	-0.40163
C	 0.0586783546	 0.0249941261	 0.0235926175	-0.096574
C	 0.7673768376	-0.5306192772	-1.2345606164	-0.090212
O	 0.9403437986	-1.9305554362	-1.1741694172	-0.238945
C	 1.7627687866	-2.3178115198	-0.0938751735	-0.090212
C	 1.1496041834	-1.9337262679	 1.2737567875	-0.096574
C	 2.0425537159	-2.3350192229	 2.445089294	-0.40163
C	 0.8353219674	-0.4392639773	 1.2539870056	 0.36631
O	 1.2031416984	 0.3197181274	 2.12216877	-0.315149
H	 0.8529428407	 2.0447803042	-0.0924517196	 0.127126
H	-0.715831877	 1.8328949683	-0.8960639456	 0.109949
H	-0.6093058594	 1.9048169434	 0.875002991	 0.13431
H	-0.9225799935	-0.4689348694	 0.0650233905	 0.100755
H	 0.1691542064	-0.3266428955	-2.1270980062	 0.115005
H	 1.7412891909	-0.0258281768	-1.3570357317	 0.095163
H	 1.882370492	-3.4026636239	-0.1638108846	 0.115005
H	 2.7629682007	-1.8602177542	-0.186225644	 0.095163
H	 0.1853038597	-2.4581026282	 1.3346213758	 0.100755
H	 3.0149215727	-1.8369776452	 2.3851025452	 0.127126
H	 1.5896174724	-2.043275585	 3.394894229	 0.13431
H	 2.2080334761	-3.4168024784	 2.45458359	 0.109949
79.053	132.0359	167.7703	175.3755	229.4996	276.3703	304.2126	342.1019	369.1042	423.4727	426.4442	560.4543	591.4085	716.7462	764.8215	877.8444	895.5033	926.7319	968.5877	982.8712	986.8381	1034.2733	1119.4273	1135.7241	1139.6837	1144.8728	1157.9149	1182.5856	1234.164	1292.5368	1303.2532	1328.654	1341.9914	1352.9299	1399.867	1410.5481	1414.2734	1420.0334	1488.8865	1489.6876	1492.8473	1494.1015	1497.5976	1509.8477	1804.0607	2957.816	2962.6863	3010.15	3019.1754	3044.9617	3045.4182	3085.2739	3087.9079	3112.1851	3112.6317	3130.0359	3130.2732
CC1COCC(C)C1=O	C[C@H]1COC[C@@H](C)C1=O	
InChI=1S/C7H12O2/c1-5-3-9-4-6(2)7(5)8/h5-6H,3-4H2,1-2H3	InChI=1S/C7H12O2/c1-5-3-9-4-6(2)7(5)8/h5-6H,3-4H2,1-2H3/t5-,6+
