18
gdb 81812	2.17583	1.65987	1.16295	4.0883	76.29	-0.271	0.0223	0.2933	1102.8734	0.147071	-401.938587	-401.929812	-401.928868	-401.971851	32.978	
C	-0.0366803381	 1.527085321	 0.0340702116	-0.500543
C	 0.0317552527	 0.0280734786	 0.0134693969	 0.359347
C	-0.8382490621	-0.8701631187	 0.8432294751	-0.335481
C	 0.6553240161	-0.958338167	 1.0126249583	-0.109201
C	 1.2500387119	-1.7905569252	-0.1114679314	 0.110094
O	 0.8043107163	-3.1173352856	-0.1221759646	-0.413755
C	 0.6212797576	-0.7743457046	-1.1651778618	-0.290335
C	-0.2865489449	-1.328897926	-2.1558729278	 0.287677
N	-0.9956419903	-1.8031778053	-2.9370326928	-0.339457
H	 0.9183493624	 1.978192578	-0.2588553879	 0.118974
H	-0.8057517346	 1.8964292603	-0.6542127793	 0.135831
H	-0.2869509458	 1.8913403144	 1.035337429	 0.126641
H	-1.3585040565	-0.3699020616	 1.6535734567	 0.11736
H	-1.3854971409	-1.6959689401	 0.399895986	 0.14365
H	 1.1461277825	-0.7542647784	 1.9559560959	 0.09518
H	 2.3446265424	-1.7275659125	-0.1514762712	 0.083065
H	 1.0995965573	-3.5427520548	-0.9347827378	 0.294743
H	 1.4115210339	-0.2177756025	-1.6771564849	 0.11621
100.1775	114.484	171.2761	210.5539	238.5343	298.5954	336.5047	370.9294	395.2754	526.0139	541.9433	560.1689	715.5446	736.3237	793.5383	830.5073	899.1376	953.5263	976.0776	996.0934	1038.8477	1044.6817	1071.8653	1093.8616	1107.326	1120.2553	1170.4465	1224.717	1253.2974	1270.558	1320.2876	1336.4814	1400.9202	1422.3667	1429.6018	1485.3063	1496.7134	1504.051	2348.1258	3020.8366	3024.7504	3071.8175	3084.719	3102.3369	3130.7931	3191.8921	3216.0745	3808.6674
CC12CC1C(O)C2C#N	C[C@]12C[C@H]1[C@@H](O)[C@H]2C#N	
InChI=1S/C7H9NO/c1-7-2-4(7)6(9)5(7)3-8/h4-6,9H,2H2,1H3	InChI=1S/C7H9NO/c1-7-2-4(7)6(9)5(7)3-8/h4-6,9H,2H2,1H3/t4-,5+,6+,7-/m0/s1
