20
gdb 56595	2.91476	0.96704	0.9137	4.3187	79.57	-0.2432	0.021	0.2641	1378.6828	0.171416	-399.310308	-399.300419	-399.299475	-399.345311	36.556	
N	 0.0019670118	 1.4128999237	 0.2854005558	-0.505309
C	 0.043789609	-0.0074086887	-0.0631305376	-0.13439
C	-1.3040454153	-0.5760474298	 0.0975169412	 0.291169
N	-2.362940834	-1.0362326897	 0.1517644098	-0.325524
C	 0.5701061297	-0.36770258	-1.5011166886	 0.002095
N	-0.2336785275	 0.1706915941	-2.5933640316	-0.516227
C	 2.0136209796	 0.0625659234	-1.6527550996	 0.02591
C	 3.126275047	-0.7938651055	-1.0969599582	-0.276093
C	 2.9259359949	-0.6817783337	-2.5877173789	-0.269764
H	 0.9434842212	 1.7907460893	 0.2904086261	 0.241479
H	-0.5349144989	 1.9290432451	-0.4056346057	 0.229316
H	 0.6975803154	-0.5035627169	 0.664593041	 0.132089
H	 0.5295996945	-1.4624199015	-1.5777096142	 0.094968
H	-1.2102930695	-0.0903821552	-2.4881114925	 0.244263
H	-0.1876466953	 1.1851651841	-2.613747369	 0.219428
H	 2.1661779074	 1.1387945331	-1.601370739	 0.073229
H	 3.98323567	-0.3027834358	-0.6496411206	 0.115385
H	 2.8559521558	-1.7310278373	-0.6205972872	 0.116433
H	 2.5121148284	-1.5356752871	-3.1126510999	 0.12531
H	 3.6466625757	-0.1124848716	-3.1635252613	 0.116231
58.8902	84.4677	129.8354	182.2558	225.2725	240.8515	287.2115	312.3854	314.7445	376.6912	459.5317	486.5914	586.2747	678.6659	767.6311	799.4584	826.2606	848.0476	854.805	871.6079	943.9601	958.4047	981.3417	1059.0087	1070.0964	1083.3291	1110.1282	1130.2184	1141.5268	1194.1873	1198.2622	1227.4897	1255.8831	1286.2532	1310.1626	1378.638	1411.6279	1438.5436	1471.668	1507.1128	1647.1817	1656.2305	2355.248	3020.2995	3044.0534	3122.3815	3130.4722	3140.3976	3210.173	3227.4747	3484.6632	3494.6371	3572.1052	3588.2235
NC(C#N)C(N)C1CC1	N[C@@H](C#N)[C@@H](N)C1CC1	
InChI=1S/C6H11N3/c7-3-5(8)6(9)4-1-2-4/h4-6H,1-2,8-9H2	InChI=1S/C6H11N3/c7-3-5(8)6(9)4-1-2-4/h4-6H,1-2,8-9H2/t5-,6-/m0/s1
