17
gdb 85099	1.97152	1.60312	1.23323	3.0677	76.12	-0.2444	0.0137	0.258	1105.7275	0.134303	-417.988591	-417.979059	-417.978115	-418.022633	35.17	
C	-0.0955284406	 1.5671375392	-0.060736195	-0.396474
C	-0.0063022798	 0.0535245966	-0.0050378805	 0.044046
N	 1.0040028089	-0.555312298	-0.887264384	-0.336817
C	 1.7811591486	-1.0966460067	 0.0896758474	 0.421155
O	 2.8273894527	-1.685026318	 0.1068793757	-0.365748
C	 0.7981111577	-0.5894124046	 1.2066168969	-0.041799
N	 1.4841374863	 0.352725553	 2.0817190638	-0.563309
C	 0.0717734714	-1.6440479995	 1.8960871167	 0.302635
C	-0.5329089018	-2.4981441787	 2.4897309906	-0.481114
H	 0.8734569248	 2.0209965903	 0.1531115606	 0.143184
H	-0.438453833	 1.8921152189	-1.0491371959	 0.113412
H	-0.8173344663	 1.9311540466	 0.6774723065	 0.12357
H	-0.9915236224	-0.4068279332	-0.1291179613	 0.092409
H	 1.1485478341	-0.4965689967	-1.8847814358	 0.252622
H	 0.9614886349	 0.4773383404	 2.9430661404	 0.237656
H	 2.3846768077	-0.044355784	 2.336119984	 0.253223
H	-1.0537965632	-3.2620750456	 3.0123274198	 0.20135
80.4085	115.0556	153.636	204.0031	223.2818	230.4004	272.8556	330.1894	392.9291	440.9347	492.1583	532.6156	614.7198	626.2367	645.9071	665.9361	721.4219	770.6027	829.606	892.526	907.0586	1020.3845	1075.4634	1096.8068	1156.6034	1207.2458	1215.9728	1266.3222	1308.1378	1384.7523	1390.8976	1411.4305	1486.1774	1492.0197	1653.5013	1902.3261	2224.6963	3038.591	3057.4796	3101.7466	3144.9987	3493.1703	3500.3808	3572.2702	3608.1865
CC1NC(=O)C1(N)C#C	C[C@H]1NC(=O)[C@]1(N)C#C	
InChI=1S/C6H8N2O/c1-3-6(7)4(2)8-5(6)9/h1,4H,7H2,2H3,(H,8,9)	InChI=1S/C6H8N2O/c1-3-6(7)4(2)8-5(6)9/h1,4H,7H2,2H3,(H,8,9)/t4-,6+/m1/s1
