18
gdb 83120	2.22106	1.7351	1.44544	1.1396	71.33	-0.234	0.0241	0.2581	1000.7585	0.147907	-439.075285	-439.066969	-439.066025	-439.107889	31.764	
C	 0.1169561258	 1.5510590717	-0.0424259993	-0.427481
C	 0.0904597732	 0.0428098993	 0.0710131984	-0.076703
C	 1.3200178146	-0.8226592629	-0.1367199483	-0.003053
O	 2.5741583253	-0.2206469911	-0.3795177359	-0.215251
C	 3.1881989767	 0.38014712	 0.6705293143	 0.123837
N	 2.8029677629	 0.5302600866	 1.8631383437	-0.265737
C	 1.5194876115	-0.0127947983	 2.2928802711	-0.23593
C	 0.6929341128	-0.7169580804	 1.2265724383	 0.316213
O	-0.0993614239	-1.7819121213	 1.6776176364	-0.464744
H	 1.0101745943	 1.9895818604	 0.40781237	 0.140155
H	 0.0882074522	 1.8594513969	-1.0924382881	 0.126459
H	-0.7545143595	 1.9859260365	 0.4573193009	 0.12606
H	-0.8147235208	-0.4268050086	-0.3048579765	 0.104762
H	 1.2240184192	-1.7418701285	-0.7029027597	 0.112014
H	 4.1477132202	 0.7767085436	 0.3446487857	 0.126018
H	 1.720175954	-0.742183482	 3.0887810404	 0.111148
H	 0.949570873	 0.7936777794	 2.7726067999	 0.12091
H	 0.4854223385	-2.4675236012	 2.0216270386	 0.281324
112.5208	156.6608	171.2912	210.536	268.0673	344.2125	370.5596	456.3168	475.4021	497.6176	528.999	594.0905	703.5048	794.3869	843.3458	919.9185	945.3999	952.0742	984.9852	1009.5566	1024.0227	1045.9127	1099.8887	1130.4688	1149.3214	1182.8014	1231.0752	1245.4742	1298.4809	1333.3169	1351.8461	1366.2993	1413.6307	1421.8062	1458.825	1487.2607	1498.5262	1507.6148	1742.3868	3014.0212	3037.241	3041.8857	3100.6247	3123.5221	3150.6438	3163.3049	3181.2191	3783.0182
CC1C2OC=NCC12O	C[C@H]1[C@H]2OC=NC[C@@]12O	
InChI=1S/C6H9NO2/c1-4-5-6(4,8)2-7-3-9-5/h3-5,8H,2H2,1H3	InChI=1S/C6H9NO2/c1-4-5-6(4,8)2-7-3-9-5/h3-5,8H,2H2,1H3/t4-,5+,6+/m0/s1
