15
gdb 20959	7.66499	1.1636	1.02316	1.4479	63.41	-0.2312	0.0026	0.2338	1113.1949	0.120431	-395.980664	-395.973179	-395.972235	-396.013071	26.446	
C	-0.0022679195	 1.4806576893	-0.0197858896	-0.393185
C	 0.0024026555	-0.0354678166	-0.0002606132	-0.041471
O	 0.6770360731	-0.4823038389	-1.1856977906	-0.272626
C	 0.7799311851	-1.805944721	-1.3427679207	 0.393789
N	 0.3057161121	-2.7092265151	-0.4874389001	-0.307907
N	 0.647580393	-3.8635224354	-1.0707900712	-0.083713
N	 1.2965073108	-3.7790945723	-2.2191084232	-0.188447
C	 1.3984863718	-2.4672307251	-2.4242866978	-0.144217
H	 1.0187579455	 1.8720854817	-0.030981913	 0.13086
H	-0.5250854982	 1.8560576218	-0.9038526818	 0.130865
H	-0.5098417083	 1.8623795037	 0.8709399746	 0.121956
H	 0.5236015705	-0.429523338	 0.8803589005	 0.117629
H	-1.0145667936	-0.4454291267	 0.0109984854	 0.117627
H	 0.4202673218	-4.7495753503	-0.6526284027	 0.291178
H	 1.8861490205	-2.0610560269	-3.2942263065	 0.127661
66.8487	96.5656	162.4601	250.4717	352.4602	354.2212	418.4072	462.9337	704.1116	736.485	757.6351	814.2467	851.2359	916.7572	983.4001	1026.4971	1076.4204	1131.8104	1167.5027	1183.6125	1203.3681	1259.777	1292.55	1381.9021	1391.4698	1412.4169	1430.2176	1484.8756	1498.1628	1512.7075	1524.4179	1598.7417	3028.4372	3047.3401	3065.575	3122.505	3125.8935	3284.5573	3684.1501
CCOC1=NNN=C1	CCOc1n[nH]nc1	
InChI=1S/C4H7N3O/c1-2-8-4-3-5-7-6-4/h3H,2H2,1H3,(H,5,6,7)	InChI=1S/C4H7N3O/c1-2-8-4-3-5-7-6-4/h3H,2H2,1H3,(H,5,6,7)
