21
gdb 107822	3.24282	1.45652	1.26682	1.5272	80.65	-0.2206	0.0844	0.3049	1092.6124	0.18374	-387.069622	-387.061698	-387.060754	-387.10183	31.931	
C	-0.2498996428	 1.5006193184	 0.1219754865	-0.388625
C	 0.1015464257	 0.015441901	-0.0198447573	-0.273078
C	 0.9002377215	-0.5297684297	 1.1433406148	 0.444347
C	 2.2867159549	 0.0496775802	 1.4373088183	-0.241414
C	 2.8194512029	-0.8499357005	 2.5883124924	-0.234107
C	 1.915316555	-2.0826690613	 2.5480902077	-0.0897
C	 0.4244600549	-1.8236723144	 2.6484712478	 0.09723
O	 0.1371714325	-0.4473353306	 2.4130190105	-0.345654
C	 1.0401373173	-2.0652629356	 1.3098515782	-0.212673
H	 0.6443063078	 2.1315692685	 0.109852406	 0.116012
H	-0.8969060695	 1.8254745419	-0.6980259485	 0.110671
H	-0.7767982844	 1.6783528336	 1.06364421	 0.139456
H	-0.8193643314	-0.5727847075	-0.1043519881	 0.104762
H	 0.6729574527	-0.1570492951	-0.9416316156	 0.094886
H	 2.9185681018	-0.0315271202	 0.5445608809	 0.094487
H	 2.2337169295	 1.1038274233	 1.7213729965	 0.106445
H	 3.8669256831	-1.1248457022	 2.4353152764	 0.097141
H	 2.7522629197	-0.3393268417	 3.5535095184	 0.109282
H	 2.2681838534	-3.0369850615	 2.9241188315	 0.08471
H	-0.2711818169	-2.394284456	 3.2532005885	 0.096699
H	 0.9153256824	-2.8368681006	 0.562503715	 0.089123
93.9948	162.2839	208.8313	224.5222	321.6868	360.25	410.4171	491.9038	595.0192	675.9942	742.8779	757.4492	776.8786	803.6858	816.2662	849.9245	876.2393	923.5251	946.6328	977.5303	997.9129	1017.2801	1029.7501	1042.2981	1059.4306	1068.6295	1091.3474	1122.4398	1179.41	1195.9921	1216.3601	1231.6978	1268.1499	1288.1032	1303.2006	1329.571	1348.3587	1381.0909	1401.3302	1410.3478	1473.8006	1476.8013	1498.3767	1501.3588	1509.6987	3022.1429	3035.3777	3042.8552	3054.6799	3063.0795	3087.7071	3104.2773	3110.6047	3120.9884	3170.2022	3177.9712	3204.1837
CCC12CCC3C(O1)C23	CC[C@@]12CC[C@H]3[C@@H](O1)[C@@H]23	
InChI=1S/C8H12O/c1-2-8-4-3-5-6(8)7(5)9-8/h5-7H,2-4H2,1H3	InChI=1S/C8H12O/c1-2-8-4-3-5-6(8)7(5)9-8/h5-7H,2-4H2,1H3/t5-,6+,7-,8+/m1/s1
