18
gdb 79322	3.60132	1.22256	1.15452	3.1015	78.09	-0.2477	-0.0297	0.218	1129.6919	0.147616	-401.894388	-401.886479	-401.885535	-401.926973	30.046	
C	 0.087029095	 1.6567397529	-0.0548682843	-0.431494
C	 0.0898924954	 0.1357734606	 0.0198055332	 0.02556
C	 0.7478834381	-0.7125934743	-1.0776372025	-0.099449
N	 2.1799051851	-0.9606316351	-0.7820096611	-0.183973
C	 2.4337866524	-0.2609235124	 0.5288699976	-0.157007
C	 1.0223239497	-0.637458904	 1.0050174966	-0.163731
C	 1.1174341529	-1.770962697	-0.0757626421	 0.295468
C	 1.0240141092	-3.2270386784	-0.141382941	 0.00497
O	 0.6273862212	-3.9348080119	 0.7544031826	-0.271415
H	 1.0824217453	 2.0704908056	-0.2354299142	 0.12486
H	-0.5616307742	 1.9975304318	-0.8689050938	 0.124039
H	-0.2963539278	 2.0891271803	 0.8757469001	 0.123457
H	-0.9316939039	-0.2344866924	 0.1557999879	 0.092881
H	 0.4432154601	-0.8508977387	-2.1077474228	 0.110618
H	 3.2221405815	-0.8055550994	 1.0521370888	 0.122808
H	 2.7046902994	 0.7957710574	 0.4431353928	 0.105669
H	 0.7615627686	-0.7518205521	 2.053854052	 0.094127
H	 1.3564828721	-3.6382134029	-1.1208945597	 0.082612
87.6498	139.7653	173.5563	228.6701	266.9439	309.9615	449.3854	511.053	575.2324	653.0136	699.5975	752.2083	797.0333	809.4769	902.0989	922.2301	952.142	996.9524	1011.5404	1028.0778	1044.2173	1073.6659	1087.629	1117.6453	1150.7182	1163.0634	1186.4791	1206.5585	1252.4539	1291.1734	1316.9865	1367.4936	1394.9385	1413.1787	1432.5492	1491.8149	1495.4959	1520.1799	1797.4996	2883.4788	3036.3123	3055.2799	3058.1983	3098.1438	3116.3663	3122.9619	3156.8674	3197.8078
CC1C2N3CC1C23C=O	C[C@H]1[C@H]2N3C[C@@H]1[C@@]23C=O	
InChI=1S/C7H9NO/c1-4-5-2-8-6(4)7(5,8)3-9/h3-6H,2H2,1H3	InChI=1S/C7H9NO/c1-4-5-2-8-6(4)7(5,8)3-9/h3-6H,2H2,1H3/t4-,5+,6-,7+,8?/m1/s1
