21
gdb 92491	2.79466	1.3319	1.11987	2.8522	77.43	-0.2415	0.0664	0.3079	1172.7867	0.182862	-424.22451	-424.215849	-424.214905	-424.257751	33.793	
C	-0.2730742531	 1.4490586817	 0.2299424013	-0.453818
C	 0.0633461479	-0.0113050234	-0.0044299021	 0.451216
C	-1.1313130157	-0.8929012779	-0.4144092157	-0.277779
C	-1.3484565795	-1.8303791211	 0.7819622026	 0.142123
O	-2.0767055091	-2.9729543064	 0.3719056308	-0.433704
C	 0.0806150702	-2.1230135667	 1.2915495076	-0.276644
C	 0.8232200478	-0.7888219969	 1.1181267979	-0.111662
C	 2.0105348561	-0.7486445402	 0.1374757777	-0.092205
O	 1.2091572818	-0.1448436501	-0.8970320891	-0.330952
H	 0.5921297238	 1.9928893442	 0.6211518578	 0.115791
H	-0.5768216717	 1.922181103	-0.7098229079	 0.127887
H	-1.0983720592	 1.5496086965	 0.9439781208	 0.112483
H	-2.029626224	-0.324326933	-0.6678328391	 0.096801
H	-0.8512437905	-1.4946027882	-1.2842261476	 0.122423
H	-1.9029797317	-1.2876817473	 1.5666257595	 0.062409
H	-2.2542504612	-3.5119612903	 1.1490043879	 0.281493
H	 0.0947177297	-2.4977633129	 2.3198120802	 0.089544
H	 0.5111258581	-2.9009717579	 0.6502467069	 0.109361
H	 0.9713175989	-0.252637352	 2.0573431283	 0.071717
H	 2.842010737	-0.0977620489	 0.4378901591	 0.095778
H	 2.4157908444	-1.7221721723	-0.1661617371	 0.097739
69.8935	110.6776	236.6536	264.2431	270.9575	303.1296	345.6741	393.6839	449.456	452.0169	516.3032	581.385	696.6294	799.5788	868.7656	876.6271	889.9347	897.4719	955.5239	969.4524	1017.6849	1020.2139	1042.9847	1077.8735	1092.0405	1125.1657	1158.337	1167.8206	1185.4174	1219.5272	1233.1251	1254.6095	1278.1916	1291.3622	1318.4662	1341.043	1357.5151	1377.3036	1404.8663	1433.99	1480.3719	1486.6265	1489.9734	1500.6136	1526.1949	2949.0275	3005.0847	3028.5226	3036.7619	3046.424	3060.8729	3077.6744	3096.0048	3098.9702	3107.1226	3112.3392	3819.023
CC12CC(O)CC1CO2	C[C@]12C[C@@H](O)C[C@H]1CO2	
InChI=1S/C7H12O2/c1-7-3-6(8)2-5(7)4-9-7/h5-6,8H,2-4H2,1H3	InChI=1S/C7H12O2/c1-7-3-6(8)2-5(7)4-9-7/h5-6,8H,2-4H2,1H3/t5-,6-,7-/m0/s1
