15
gdb 127318	3.43334	1.65385	1.1241	5.1617	74.36	-0.217	-0.0118	0.2052	1015.987	0.115064	-416.806931	-416.799795	-416.798851	-416.839086	26.696	
C	-0.0181897255	 1.4793601047	-0.0169493141	-0.34899
N	-0.007171431	 0.0329940038	 0.005906038	-0.146496
C	-0.0365722141	-0.8010649702	-1.0937370967	-0.059451
C	-0.0154417575	-2.1339101008	-0.7178915824	-0.364233
C	 0.0292968337	-2.0908416464	 0.6943580003	 0.409436
C	 0.0338385796	-0.7759508571	 1.1173106087	 0.187882
C	 0.0786621343	-0.8607955505	 2.5257356955	-0.102553
N	 0.0993595732	-2.1198734871	 2.9154660043	-0.148242
O	 0.0681285672	-2.9189301298	 1.7512113584	-0.241457
H	 0.883894363	 1.8872886196	 0.4515233172	 0.14477
H	-0.0532186967	 1.8175726286	-1.0539190774	 0.145871
H	-0.8947358225	 1.8746589524	 0.5074980962	 0.144765
H	-0.0709370183	-0.3735343603	-2.0845782232	 0.129102
H	-0.0305170231	-2.9848853373	-1.3777721106	 0.121077
H	 0.0973729376	-0.0910730694	 3.2835280558	 0.128519
53.0087	155.4232	229.743	259.8855	355.8052	520.0429	585.9866	609.916	619.1017	690.9239	717.1391	752.6709	802.3637	816.4219	870.9592	879.8761	966.7891	1030.3389	1100.3615	1127.8266	1152.752	1198.82	1267.2705	1289.3771	1374.7749	1433.214	1450.7103	1480.7949	1481.6868	1498.315	1525.0325	1565.386	1613.3135	3032.0619	3088.086	3138.6582	3246.0416	3248.3246	3277.8756
CN1C=CC2=C1C=NO2	Cn1ccc2c1cno2	
InChI=1S/C6H6N2O/c1-8-3-2-6-5(8)4-7-9-6/h2-4H,1H3	InChI=1S/C6H6N2O/c1-8-3-2-6-5(8)4-7-9-6/h2-4H,1H3
