16
gdb 57034	2.54012	1.33041	0.91539	1.969	71.59	-0.2647	0.0193	0.2841	1217.6528	0.122489	-437.834732	-437.825726	-437.824781	-437.869036	32.522	
O	-0.0226450509	 1.4404076611	-0.0014629071	-0.419811
C	 0.055159829	 0.017257086	-0.0486207974	-0.068001
C	 0.7402913919	-0.4538058434	-1.250431989	 0.305511
C	 1.3477078332	-0.7931888757	-2.2298796788	-0.431019
C	 0.7201326759	-0.5171886951	 1.2319093885	-0.1423
C	-0.0170692154	-0.1892115615	 2.5450043668	-0.104246
O	-0.2329944041	-1.6165847802	 2.7864034512	-0.253316
C	 0.4224471949	-1.9563198336	 1.6199928415	 0.426184
N	 0.6489723553	-3.0752666846	 1.1049210902	-0.532867
H	 0.8296216108	 1.7880227784	-0.2873342903	 0.289188
H	-0.9870359555	-0.3246880412	-0.065380212	 0.127308
H	 1.8675542563	-1.1159411991	-3.0982566822	 0.206947
H	 1.7853990477	-0.2749257436	 1.2290565953	 0.110849
H	 0.5814109158	 0.2562636871	 3.3421231826	 0.122075
H	-0.9646849485	 0.3424429894	 2.4350801347	 0.133463
H	 0.2674971737	-3.831535014	 1.6762408459	 0.230035
59.236	96.2508	129.0349	187.2431	209.4402	277.9547	299.0058	369.6836	472.9258	507.3061	574.7098	642.1038	651.7667	681.0625	751.0747	851.561	873.0407	943.9115	959.3976	974.226	1008.552	1055.8915	1086.953	1123.5058	1154.9725	1209.1369	1233.4274	1255.673	1281.1027	1355.7092	1378.2575	1415.6811	1517.6863	1823.7032	2239.341	3037.834	3071.0176	3091.6257	3131.9266	3474.7263	3502.7084	3806.1803
OC(C#C)C1COC1=N	O[C@@H](C#C)[C@H]1CO[C]1[NH]	
InChI=1S/C6H7NO2/c1-2-5(8)4-3-9-6(4)7/h1,4-5,7-8H,3H2	InChI=1S/C6H7NO2/c1-2-5(8)4-3-9-6(4)7/h1,4-5,7-8H,3H2/t4-,5+/m1/s1
