18
gdb 80959	3.06284	1.28441	1.06931	3.6837	74.61	-0.2344	0.0161	0.2504	1149.6117	0.146168	-439.038254	-439.029583	-439.028639	-439.071352	32.621	
C	-0.0532756818	 1.4499064821	 0.0534259227	-0.525436
C	 0.0066314083	-0.0474134209	 0.0915210201	 0.280604
C	 0.3579188285	-1.0655024616	-1.0472846553	-0.268692
C	-0.0701218206	-1.9139840471	 0.1842426778	-0.083327
C	 0.8014543892	-0.958737718	 1.073427919	 0.117999
O	 2.1884136756	-0.923513006	 0.9166025076	-0.431416
N	-1.1737810769	-0.9357184286	 0.4483259002	-0.10143
C	-2.4108866119	-0.9600169471	-0.1379037076	 0.126626
O	-3.0161266921	-1.9632078481	-0.4493192847	-0.320944
H	 0.9520141817	 1.8488460164	-0.1128224461	 0.14524
H	-0.698050835	 1.8067274054	-0.7555769967	 0.132116
H	-0.429298546	 1.848716502	 1.0006562854	 0.135071
H	-0.3272315071	-1.0860400644	-1.8962965957	 0.113503
H	 1.4053420534	-1.1199161988	-1.3439757511	 0.120586
H	-0.2312442036	-2.9865486183	 0.2632594462	 0.10809
H	 0.4779397814	-0.8914216011	 2.1180171581	 0.085334
H	 2.5788394252	-1.5900027468	 1.4900218397	 0.294723
H	-2.8503081383	 0.0559884911	-0.2120406796	 0.071352
102.4132	148.1763	193.4975	209.1505	245.5966	261.8958	325.7306	341.9678	396.3646	507.8685	602.4016	630.6159	681.6778	762.117	811.7763	860.853	898.1235	926.6474	987.823	1019.3778	1031.2018	1057.7133	1075.5287	1138.2746	1157.1529	1183.0812	1200.4327	1210.0225	1234.6215	1290.6823	1323.2051	1358.2339	1409.5876	1418.3513	1433.5808	1484.4701	1488.6541	1501.856	1783.8232	2920.4897	3039.8388	3053.1832	3082.	3111.5833	3116.0537	3154.9574	3159.2931	3828.3339
CC12CC(C1O)N2C=O	C[C@@]12C[C@@H]([C@H]1O)N2C=O	
InChI=1S/C6H9NO2/c1-6-2-4(5(6)9)7(6)3-8/h3-5,9H,2H2,1H3	InChI=1S/C6H9NO2/c1-6-2-4(5(6)9)7(6)3-8/h3-5,9H,2H2,1H3/t4-,5+,6+/m0/s1
