16
gdb 18437	2.96305	2.12121	1.60252	3.3238	68.31	-0.2564	0.0085	0.2649	843.5682	0.131485	-342.750243	-342.742994	-342.74205	-342.781535	27.312	
C	-0.2337250921	 1.5748676599	-0.0170502467	-0.431839
C	 0.0236951316	 0.0742533535	 0.0276081418	 0.013646
C	 1.1049858927	-0.6020698539	-0.8657064717	-0.200588
N	 1.6855847121	-1.3555293073	 0.3123142631	-0.13849
C	 2.2224128316	-0.3343286232	 1.246139542	-0.155633
C	 2.8834643904	 0.8620438003	 0.7899666006	 0.313468
N	 3.4492239701	 1.8056387368	 0.4315277266	-0.349405
C	 0.7528736375	-0.5688581308	 1.2087691518	-0.052653
H	 0.6838119675	 2.1548581582	 0.1006564255	 0.153202
H	-0.6865452049	 1.8534955836	-0.9744958803	 0.122489
H	-0.9293861527	 1.8711588032	 0.7754280269	 0.121019
H	-0.922293708	-0.4587207008	-0.1085353898	 0.096552
H	 0.7127074208	-1.3138063816	-1.5925820726	 0.122162
H	 1.8246762807	 0.0576910961	-1.357990533	 0.134744
H	 2.7384705523	-0.8020888359	 2.080554368	 0.143507
H	 0.2741768503	-1.025380698	 2.0706726277	 0.10782
137.7094	157.4876	213.4767	232.9048	307.0966	409.5337	452.121	574.2669	605.6832	712.797	744.7396	766.7762	869.2024	895.2608	926.5692	962.2803	980.8816	1054.3765	1066.194	1103.567	1135.2615	1160.3135	1203.9616	1225.3486	1271.025	1292.7821	1350.7946	1382.7445	1404.0339	1420.8698	1497.4441	1503.4061	1506.2411	2347.43	3039.0046	3058.6336	3069.92	3098.5465	3132.8752	3137.8024	3146.9704	3156.8587
CC1CN2C(C#N)C12	C[C@H]1CN2[C@@H](C#N)[C@@H]12	
InChI=1S/C6H8N2/c1-4-3-8-5(2-7)6(4)8/h4-6H,3H2,1H3	InChI=1S/C6H8N2/c1-4-3-8-5(2-7)6(4)8/h4-6H,3H2,1H3/t4-,5-,6+,8?/m0/s1
