16
gdb 8803	5.10386	1.2189	0.99623	1.7371	64.4	-0.2253	-0.0358	0.1894	1160.1545	0.129371	-417.095271	-417.085776	-417.084832	-417.130813	31.348	
C	-0.0369924151	 1.4068706753	 0.0181277771	-0.308545
N	-0.002673747	-0.030195206	-0.1195632933	-0.289966
C	 0.6437292817	-0.6360217573	-1.145971745	 0.232807
N	 1.2404992233	 0.0135330776	-2.0750301311	-0.54108
C	 0.5569936575	-2.1501488119	-1.0345812629	 0.43316
O	 0.0015727935	-2.7259545337	-0.1287547563	-0.380825
O	 1.1692771533	-2.7621272399	-2.0532964899	-0.231228
C	 1.1371185738	-4.1961696688	-2.0220632261	-0.244658
H	 0.970441604	 1.8207489901	 0.1472490855	 0.136787
H	-0.4675643313	 1.8713071964	-0.8756359674	 0.143079
H	-0.6450996902	 1.6669596695	 0.8864786215	 0.120968
H	-0.405334513	-0.632988226	 0.5775953363	 0.263699
H	 1.64578766	-0.6382696246	-2.742228214	 0.228954
H	 0.1051210886	-4.5546095511	-2.0388961393	 0.147627
H	 1.6725814111	-4.523089475	-2.9126497757	 0.14175
H	 1.6265752297	-4.5686515945	-1.1190091392	 0.147471
30.9296	73.6908	107.5459	123.9754	167.3359	170.125	279.5431	350.2743	391.7106	400.7672	509.8755	521.3413	750.6286	807.5488	864.2428	871.5694	979.8186	1066.3386	1162.2476	1179.6195	1190.984	1193.7865	1213.3806	1272.2157	1343.5999	1456.2832	1472.0641	1475.5107	1482.6291	1495.5026	1514.7415	1565.9029	1712.1866	1801.0032	3025.6483	3056.154	3076.4009	3132.8456	3133.2501	3167.573	3530.1347	3666.1725
CNC(=N)C(=O)OC	CNC(=N)C(=O)OC	
InChI=1S/C4H8N2O2/c1-6-3(5)4(7)8-2/h1-2H3,(H2,5,6)	InChI=1S/C4H8N2O2/c1-6-3(5)4(7)8-2/h1-2H3,(H2,5,6)
