21
gdb 84219	2.87641	1.524	1.28747	1.1107	90.09	-0.2037	-0.0267	0.1771	1097.312	0.182135	-349.862835	-349.854627	-349.853683	-349.89496	33.187	
C	-0.1050513095	 1.5342379206	-0.3018791635	-0.396968
C	-0.0539795329	 0.027861746	-0.0230777198	-0.018688
C	 0.7411094065	-0.7023741135	-1.1101292244	-0.111206
C	 1.5756706611	-1.5954207165	-0.5436951607	 0.040208
C	 2.9956399395	-1.1118528134	-0.2398442902	-0.30658
C	 2.3469241364	-0.7671258354	 1.1610694516	 0.319988
C	 3.1904989288	-0.5373827907	 2.390088951	-0.484871
C	 0.7944056238	-0.3989444144	 1.1966395662	-0.09615
C	 1.2632003817	-1.7879537022	 0.952309495	-0.162146
H	 0.8968974474	 1.934545478	-0.4903286489	 0.116353
H	-0.7299442726	 1.7574714672	-1.1728422347	 0.114963
H	-0.5229857804	 2.0688479407	 0.5578167246	 0.113499
H	-1.0835430929	-0.3290673503	 0.1343167372	 0.077175
H	 0.9992757235	-0.1711972753	-2.0236822323	 0.089113
H	 3.7614374283	-1.8813845648	-0.0780169221	 0.09795
H	 3.3950584486	-0.3119136649	-0.87121476	 0.095368
H	 3.6656278802	 0.4502262016	 2.3715383482	 0.120427
H	 2.5924591927	-0.6016266372	 3.3047060076	 0.119839
H	 3.9872136028	-1.2874426698	 2.4604798953	 0.116989
H	 0.4726230045	-0.099464024	 2.1938403254	 0.070631
H	 1.0429716123	-2.7048039518	 1.4848723548	 0.084106
129.4809	190.8734	200.6204	222.5165	293.0576	328.4925	375.7701	432.4099	520.5379	549.7584	618.6854	674.6851	720.3577	787.2456	848.5442	858.9139	883.1277	891.9273	921.1223	941.2888	998.4632	1007.2636	1022.4783	1049.5183	1053.5675	1071.4774	1110.4776	1119.3733	1138.0615	1186.1448	1200.5054	1231.5916	1253.2092	1268.9443	1294.6397	1336.9672	1392.0129	1405.3974	1408.8549	1484.2932	1491.7184	1495.2872	1496.6195	1503.6303	1594.9968	2974.4547	3012.4248	3021.5767	3028.6943	3079.1982	3081.4922	3096.4154	3098.1504	3101.072	3117.398	3146.92	3185.3901
CC1C=C2CC3(C)C1C23	C[C@H]1[CH][C]2C[C@@]3(C)[C@@H]1[C@@H]23	
InChI=1S/C9H12/c1-5-3-6-4-9(2)7(5)8(6)9/h3,5,7-8H,4H2,1-2H3	InChI=1S/C9H12/c1-5-3-6-4-9(2)7(5)8(6)9/h3,5,7-8H,4H2,1-2H3/t5-,7-,8+,9-/m0/s1
