18
gdb 5221	6.44529	1.06719	0.97414	0.452	74.95	-0.2117	0.0237	0.2354	1233.	0.154526	-347.844401	-347.836471	-347.835527	-347.877396	29.037	
C	-0.1664653191	 1.554023985	 0.0679572215	-0.382105
C	-0.0771277105	 0.0272069566	 0.0289556871	-0.157349
C	 0.8429681186	-0.5411774124	 1.1270046465	-0.300172
C	 0.9280750205	-2.0279918719	 1.1274150509	 0.372255
C	 1.9327266233	-2.9144475811	 0.8861539519	-0.277039
C	 1.3704071479	-4.226079704	 1.0317305155	-0.168924
C	 0.0651530548	-4.0383501416	 1.3497011789	-0.021878
O	-0.2223984468	-2.7091921347	 1.4123430099	-0.180591
H	 0.8178511917	 2.0142571179	-0.0745993969	 0.113437
H	-0.8272978038	 1.9329457151	-0.7176408616	 0.113808
H	-0.5578465921	 1.9040051146	 1.0297865457	 0.115304
H	-1.0752061881	-0.4097098001	 0.1450270815	 0.112374
H	 0.2920666376	-0.3029893074	-0.9494101501	 0.101134
H	 1.8569008726	-0.1445153469	 1.0045829737	 0.109598
H	 0.4866449208	-0.1917577574	 2.1059415411	 0.112305
H	 2.9524655829	-2.6645960726	 0.6371703663	 0.10253
H	 1.8739584894	-5.17304426	 0.9161707578	 0.107314
H	-0.7563240095	-4.7042710091	 1.5561685601	 0.127998
61.206	92.3607	116.8696	245.0939	301.0724	324.7975	374.5718	615.122	656.1685	735.0011	743.273	752.8131	802.7538	844.4076	870.4046	894.857	903.1492	952.7777	1030.0967	1043.6902	1077.1713	1111.0609	1123.6322	1183.9468	1232.2611	1238.7158	1277.8157	1310.7628	1327.4619	1383.3804	1413.3574	1418.2054	1473.1784	1493.4302	1499.8071	1509.7737	1543.1246	1637.96	3012.4401	3028.7151	3036.6642	3060.2496	3078.3156	3099.4779	3103.7035	3248.6884	3260.335	3285.0727
CCCC1=CC=CO1	CCCc1ccco1	
InChI=1S/C7H10O/c1-2-4-7-5-3-6-8-7/h3,5-6H,2,4H2,1H3	InChI=1S/C7H10O/c1-2-4-7-5-3-6-8-7/h3,5-6H,2,4H2,1H3
