15
gdb 123679	4.07021	1.56001	1.22294	2.301	70.16	-0.23	0.0086	0.2386	961.2755	0.11669	-416.802998	-416.796796	-416.795852	-416.833494	25.	
C	-0.0490783408	 1.5545076439	-0.012371567	-0.398412
C	 1.4536019514	 1.8933104423	-0.0234535522	 0.069195
O	 2.1881287235	 1.4514951867	 1.1194904288	-0.246413
C	 2.2640022077	 0.6518914677	-0.0820019967	-0.152196
C	 1.2597585166	-0.4328137313	-0.0805735215	 0.401059
C	-0.0304442321	 0.0454116569	-0.0040943569	 0.206101
C	-0.8317737787	-1.1076793204	 0.0783923116	-0.153959
N	-0.0864291475	-2.2174916456	 0.0359768828	-0.224463
N	 1.1919043647	-1.7798014198	-0.0502764563	-0.342896
H	-0.537114354	 1.9918169199	 0.8656358422	 0.131861
H	-0.5380813266	 1.9751115479	-0.8992531871	 0.117106
H	 1.7942433262	 2.8321440667	-0.4528757762	 0.10128
H	 3.2438263657	 0.5811668863	-0.542653355	 0.105199
H	-1.905409763	-1.2015832712	 0.1509127523	 0.112073
H	 1.9332734268	-2.4586992999	-0.0801490989	 0.274464
154.7694	242.5528	352.4477	419.3544	449.6194	509.7869	606.5341	683.0835	708.2108	739.1141	778.6086	849.913	852.4559	882.9361	902.8605	977.7469	987.3496	1024.5249	1087.3535	1104.9022	1151.1167	1189.3777	1227.6961	1246.6852	1262.9901	1294.1529	1336.4281	1381.8009	1407.5766	1446.1435	1474.0537	1552.4325	1589.5122	3035.4486	3073.9358	3145.9805	3171.8367	3244.7719	3674.9203
C1C2OC2C2=C1C=NN2	C1[C@H]2O[C@H]2c2c1cn[nH]2	
InChI=1S/C6H6N2O/c1-3-2-7-8-5(3)6-4(1)9-6/h2,4,6H,1H2,(H,7,8)	InChI=1S/C6H6N2O/c1-3-2-7-8-5(3)6-4(1)9-6/h2,4,6H,1H2,(H,7,8)/t4-,6-/m1/s1
