17
gdb 51868	4.66375	0.88512	0.7791	3.5868	72.98	-0.2648	-0.0054	0.2594	1410.3177	0.135895	-458.982244	-458.973993	-458.973049	-459.016262	29.772	
O	 0.0582179753	-0.0249537737	 0.2985580755	-0.272794
C	 0.0637157761	 1.1683706952	 0.3022269609	 0.17064
O	 0.9923955991	 1.8957807997	-0.3486616441	-0.189913
C	 0.9295381951	 3.3315325321	-0.2487539973	 0.051161
C	 2.1088159431	 3.8161466897	 0.603276856	-0.107054
O	 2.2300192634	 5.2200065091	 0.5117754474	-0.246307
C	 2.5725030376	 5.6611710999	-0.7900620243	-0.116522
C	 1.7892421462	 4.9765557449	-1.8743073148	-0.080071
C	 1.0223987817	 3.917822479	-1.6293403349	-0.07058
H	-0.683521968	 1.7972579486	 0.8259292835	 0.079752
H	-0.0202316934	 3.6101485028	 0.2303157541	 0.102397
H	 1.9571182508	 3.5795424945	 1.6599424986	 0.115322
H	 3.0197785506	 3.3025585044	 0.2594812809	 0.112349
H	 2.3865135731	 6.7412411045	-0.8034237271	 0.125995
H	 3.6536011695	 5.5212992168	-0.9728582648	 0.109998
H	 1.8840573876	 5.382756314	-2.8775778389	 0.107073
H	 0.4525323922	 3.4253998784	-2.4112111007	 0.108555
39.3794	87.442	147.8568	237.1707	287.2703	343.5875	357.9564	404.041	491.3423	564.0249	642.2754	739.299	809.5393	899.0311	925.843	985.845	994.8347	1029.6259	1043.9417	1055.9589	1081.6409	1109.1873	1147.4172	1189.789	1213.5335	1243.5051	1301.5117	1338.1723	1344.3088	1370.3108	1405.7148	1417.8581	1437.3196	1483.9012	1500.9649	1725.0128	1867.6744	2939.768	2945.3662	2992.8141	3003.8091	3057.3531	3095.0959	3164.9335	3187.7657
O=COC1COCC=C1	O=CO[C@H]1COCC=C1	
InChI=1S/C6H8O3/c7-5-9-6-2-1-3-8-4-6/h1-2,5-6H,3-4H2	InChI=1S/C6H8O3/c7-5-9-6-2-1-3-8-4-6/h1-2,5-6H,3-4H2/t6-/m1/s1
