15
gdb 124091	5.14636	1.07532	1.02239	2.4577	66.57	-0.267	-0.0355	0.2315	1144.8276	0.11504	-450.07885	-450.071711	-450.070767	-450.111946	25.156	
C	-0.0089165712	 1.484356833	-0.1421615678	-0.084953
O	 1.4030262603	 1.5544153019	 0.1346414815	-0.266398
C	 1.4473060601	 0.1713831298	 0.5351113924	-0.08496
C	 0.0052803158	-0.0515928606	 0.0265466612	 0.010298
N	-0.9525831949	-0.6459940264	 0.9337991995	 0.119152
N	-1.7249347389	-1.6761580932	 0.5971514723	-0.239521
C	-2.4122199865	-1.8603090951	 1.716722138	 0.076189
N	-2.0741566459	-0.9842268116	 2.6898032782	-0.200387
N	-1.1441115554	-0.2178988462	 2.1762506772	-0.123322
H	-0.6103607193	 1.9985412013	 0.615855679	 0.13357
H	-0.2573631604	 1.8606131049	-1.1396572499	 0.120136
H	 2.23531567	-0.3868624644	 0.0196556075	 0.120133
H	 1.548109078	 0.0524132649	 1.6197286962	 0.133583
H	-0.0714859702	-0.6148598128	-0.9003548522	 0.134064
H	-3.1591753113	-2.6284374256	 1.833061987	 0.152413
39.8395	89.0443	142.6807	242.2823	397.9123	407.1752	616.8439	710.2644	731.4861	846.0697	884.7149	902.7906	934.5267	1026.5442	1032.1627	1033.4043	1039.8084	1059.1363	1106.7068	1155.2293	1158.226	1169.9153	1214.708	1255.4623	1264.0668	1309.6345	1320.3592	1365.0006	1393.4075	1423.7361	1494.0425	1503.863	1530.0553	3030.8902	3040.6642	3089.6162	3090.0156	3155.2969	3289.1737
C1OCC1N1N=CN=N1	C1OCC1n1ncnn1	
InChI=1S/C4H6N4O/c1-4(2-9-1)8-6-3-5-7-8/h3-4H,1-2H2	InChI=1S/C4H6N4O/c1-4(2-9-1)8-6-3-5-7-8/h3-4H,1-2H2
