19
gdb 88720	3.24193	1.01034	0.84017	1.5415	82.88	-0.2356	0.053	0.2886	1379.4105	0.15741	-385.82057	-385.811334	-385.81039	-385.855078	35.066	
O	-0.1418457145	 1.4842458931	-0.0084330052	-0.417012
C	-0.0470954424	 0.0884712769	-0.0555311532	 0.08621
C	-0.4931986855	-0.7223583581	 1.1353537107	-0.335759
C	-1.3404766685	-0.6743209881	-0.1241419414	-0.025778
C	-2.6427934383	 0.0558985979	-0.1263884216	 0.005442
C	-3.5386709386	 0.0263114137	-1.3297067391	-0.304613
C	-3.9654021654	-0.7082917862	-0.0645584272	-0.209046
C	-3.9901446802	-2.1409090385	-0.0380809084	 0.341119
C	-4.0160013843	-3.3439147421	-0.009056887	-0.478879
H	 0.5351217776	 1.8054743113	 0.5959957526	 0.288459
H	 0.7887406801	-0.2890519974	-0.644799082	 0.085274
H	 0.0314294427	-1.638682544	 1.3824743346	 0.112205
H	-0.8598928488	-0.1618316177	 1.9895353255	 0.112914
H	-1.3286589501	-1.5706264441	-0.7361956822	 0.096714
H	-2.6299170262	 0.985091919	 0.4322043688	 0.099581
H	-4.0868053573	 0.9219449421	-1.5994551224	 0.117753
H	-3.2373197986	-0.5907756463	-2.1689048373	 0.124324
H	-4.7514444343	-0.2340196522	 0.5161283819	 0.109425
H	-4.0427471874	-4.4047187394	 0.0160786029	 0.191669
39.4212	94.3972	159.2347	189.4736	234.4338	301.6726	325.7135	373.8891	454.9811	515.6231	535.6772	572.23	636.7218	648.6573	757.5847	776.93	806.9985	839.0273	864.096	913.552	978.9279	985.7019	1023.03	1029.0939	1057.8979	1070.5126	1121.1214	1129.1341	1141.0112	1173.5688	1200.2723	1228.0976	1247.4998	1298.0773	1314.9319	1376.6133	1413.9597	1449.2037	1483.3657	1498.1403	2232.843	3095.2211	3129.0193	3136.7553	3143.8953	3158.8078	3177.6445	3218.7408	3227.0783	3505.9802	3808.5272
OC1CC1C1CC1C#C	O[C@H]1C[C@H]1[C@H]1C[C@H]1C#C	
InChI=1S/C8H10O/c1-2-5-3-6(5)7-4-8(7)9/h1,5-9H,3-4H2	InChI=1S/C8H10O/c1-2-5-3-6(5)7-4-8(7)9/h1,5-9H,3-4H2/t5-,6+,7+,8+/m1/s1
