19
gdb 106435	2.66361	1.29649	1.03655	4.5777	80.36	-0.2502	0.0042	0.2543	1211.8925	0.159921	-382.009686	-382.001226	-382.000282	-382.043031	31.954	
C	 0.0486154731	 1.5426640477	 0.0419616014	-0.384226
C	-0.0386829464	 0.0146205677	-0.0525013537	-0.3218
C	-1.4590166459	-0.4948914659	-0.0285111002	 0.320449
C	-2.5445815105	-0.3868129444	 1.0727730926	-0.21068
N	-3.283145211	-1.2009444057	-0.0067040983	-0.143675
C	-2.6406124656	-0.2027592177	-0.9915666405	-0.228301
C	-1.9489529049	-1.9751419438	-0.1121340751	-0.165877
C	-1.7309117951	-2.7454216632	-1.328141134	 0.288228
N	-1.5203133152	-3.3630477356	-2.2826908483	-0.332682
H	 1.0896643277	 1.8758416743	 0.0169220181	 0.124043
H	-0.4751397498	 2.0215588319	-0.7917654511	 0.124605
H	-0.3971248669	 1.9105133773	 0.9720774673	 0.121231
H	 0.4425353025	-0.3315073773	-0.9758278968	 0.11985
H	 0.5168420975	-0.4437036906	 0.7758212956	 0.106258
H	-2.3941685075	-0.9328633364	 2.0085656539	 0.107263
H	-2.9983648075	 0.5904643251	 1.2484648062	 0.11298
H	-3.0986118508	 0.7877659868	-0.9502544374	 0.110717
H	-2.5819857825	-0.5731267384	-2.017109599	 0.134029
H	-1.7623644413	-2.6069092419	 0.7609785595	 0.117588
73.0952	114.9361	183.764	195.121	214.9512	324.9931	367.1974	462.3854	519.3274	561.162	609.5239	651.4961	757.0355	793.3949	824.6952	890.7684	905.7921	949.9104	957.5412	986.9285	1020.2893	1041.7225	1075.398	1092.3443	1133.1058	1162.653	1176.9343	1190.1304	1199.8717	1253.6219	1306.1407	1317.4028	1370.1397	1387.899	1413.6645	1481.5108	1501.1658	1506.2039	1514.0013	1553.4663	2351.5285	3022.8419	3037.6471	3055.2379	3057.4484	3069.0598	3075.9708	3105.1622	3114.455	3128.7419	3137.613
CCC12CN(C1)C2C#N	CC[C@@]12CN(C1)[C@H]2C#N	
InChI=1S/C7H10N2/c1-2-7-4-9(5-7)6(7)3-8/h6H,2,4-5H2,1H3	InChI=1S/C7H10N2/c1-2-7-4-9(5-7)6(7)3-8/h6H,2,4-5H2,1H3/t6-/m0/s1
