16
gdb 14251	3.95998	1.69588	1.56972	3.712	64.77	-0.2339	-0.0331	0.2008	867.7288	0.129697	-383.721572	-383.714358	-383.713413	-383.753268	27.108	
C	-0.7434078907	 1.3425165002	 0.0436842796	-0.410906
C	-0.0031054421	 0.0237079808	 0.0133668088	 0.161951
O	 1.130556	 0.0245743298	-0.9046974967	-0.309703
C	 1.987999746	-0.6026268249	 0.0754338418	-0.001862
C	 0.8963198655	-0.4350955944	 1.1819191509	-0.113278
C	 1.7451434866	 0.6664480718	 1.8750002965	-0.373497
C	 2.8303833481	 0.4828558712	 0.7880032658	 0.413369
O	 3.9020513421	 0.9710845391	 0.591888854	-0.28466
H	-0.084750706	 2.1729302915	 0.3102594276	 0.127928
H	-1.165531767	 1.5533895121	-0.9438279175	 0.135627
H	-1.5680639161	 1.2996875261	 0.7633717915	 0.121747
H	-0.6937472356	-0.7810959692	-0.2768680779	 0.082144
H	 2.4473721039	-1.5313646991	-0.2731394646	 0.092769
H	 0.5388640254	-1.248958428	 1.8086926979	 0.087189
H	 1.3172129951	 1.6658706227	 1.9795796322	 0.133232
H	 2.1255880848	 0.3563427304	 2.8540954702	 0.137948
61.7668	172.7716	223.6448	263.2878	358.9811	417.9916	501.4797	526.4786	589.9792	735.9195	772.1068	814.0042	885.6158	898.1383	939.1605	987.9967	997.1968	1066.8756	1070.0596	1094.2148	1116.464	1151.3577	1167.0368	1201.7893	1235.6315	1267.4196	1309.0317	1327.5664	1387.4773	1411.7151	1434.4552	1480.1754	1499.1405	1898.5006	2996.497	3039.6528	3060.1996	3080.2222	3108.9951	3117.0436	3123.7554	3138.8129
CC1OC2C1CC2=O	C[C@H]1O[C@@H]2[C@H]1CC2=O	
InChI=1S/C6H8O2/c1-3-4-2-5(7)6(4)8-3/h3-4,6H,2H2,1H3	InChI=1S/C6H8O2/c1-3-4-2-5(7)6(4)8-3/h3-4,6H,2H2,1H3/t3-,4+,6-/m1/s1
