21
gdb 109652	1.84981	1.33616	1.05492	2.7076	80.85	-0.2432	-0.0223	0.2208	1300.9367	0.178993	-424.231825	-424.221172	-424.220227	-424.267613	38.202	
C	-0.2478995624	 1.5077900904	 0.2363852848	-0.378637
C	-0.1147213602	 0.0518389246	-0.2250649247	-0.200189
C	-1.4125240717	-0.7156699988	-0.0855844727	-0.035813
C	-1.5013053291	-2.2110546931	-0.0169100864	-0.091853
C	-0.2950017634	-3.1209323756	-0.0848146697	-0.430921
C	-1.77007913	-1.383235101	 1.2449501867	 0.240251
O	-0.8039023176	-1.3188877699	 2.2539302735	-0.46561
C	-3.1752619307	-1.2604064993	 1.7096427569	 0.105531
O	-4.1430789489	-1.2998468688	 0.9861061799	-0.275965
H	 0.6890286365	 2.0537755621	 0.0895199366	 0.110971
H	-1.0311606973	 2.0322034947	-0.3218252385	 0.115534
H	-0.5037420653	 1.5562385219	 1.2993582339	 0.130056
H	 0.1950720469	 0.0233450263	-1.2778309315	 0.099082
H	 0.6758445691	-0.4372467328	 0.3493382495	 0.112125
H	-2.2722344773	-0.2392501628	-0.5517754497	 0.107507
H	-2.4131990027	-2.6239091528	-0.4408234491	 0.111059
H	 0.5493177581	-2.7293330719	 0.4865855653	 0.128628
H	-0.5357953553	-4.1152804157	 0.3071539504	 0.11913
H	 0.0339889648	-3.2494545292	-1.1212873222	 0.130003
H	-0.6996487423	-2.1954509181	 2.6393340501	 0.292528
H	-3.2664299714	-1.1184875703	 2.8103346368	 0.076585
59.9097	95.7694	125.3758	156.3694	193.0032	201.422	205.3977	247.3732	299.5951	305.4297	336.9191	459.3549	518.5819	554.5748	650.0672	712.8241	724.737	782.8895	833.8126	954.0968	996.021	1010.5656	1050.2267	1053.1166	1077.9009	1096.025	1133.1721	1142.8867	1187.6203	1240.7994	1259.1426	1299.3741	1322.1222	1342.4352	1387.733	1405.7266	1411.5127	1420.2703	1441.0215	1478.3755	1497.5035	1498.4835	1502.954	1506.7751	1803.7074	2880.9312	3025.6714	3034.2968	3036.6843	3087.7043	3092.1809	3106.5691	3111.6543	3123.9443	3135.9285	3149.847	3800.501
CCC1C(C)C1(O)C=O	CC[C@H]1[C@@H](C)[C@]1(O)C=O	
InChI=1S/C7H12O2/c1-3-6-5(2)7(6,9)4-8/h4-6,9H,3H2,1-2H3	InChI=1S/C7H12O2/c1-3-6-5(2)7(6,9)4-8/h4-6,9H,3H2,1-2H3/t5-,6+,7-/m1/s1
