16
gdb 25722	2.72264	1.57129	1.00255	4.8072	76.93	-0.2094	-0.0356	0.1737	1126.7553	0.124669	-437.958187	-437.949858	-437.948914	-437.99146	30.8	
C	 0.0497320757	 1.4731051727	 0.0067577837	-0.504758
C	 0.0213192035	-0.0435317679	 0.0367126522	 0.342611
O	 1.0751999955	-0.6952899204	 0.0683923658	-0.403082
C	-1.231835927	-0.7314598965	 0.0296277166	 0.061188
C	-1.3715117458	-2.1279209711	 0.0564193115	 0.348325
O	-0.3513596134	-2.9875550373	 0.091733144	-0.424097
C	-2.7486802752	-2.4367627275	 0.039333033	-0.263912
C	-3.4195730163	-1.2261505532	 0.0025888878	-0.053199
N	-2.5218082046	-0.207806791	-0.0035310314	-0.348865
H	 1.0863907617	 1.8110839296	-0.0013974827	 0.150042
H	-0.4610585235	 1.8566533522	-0.8840148642	 0.133586
H	-0.4563827137	 1.8891031159	 0.8856781697	 0.135185
H	 0.4551445066	-2.4225600055	 0.0937985893	 0.313266
H	-3.1929739966	-3.4184951892	 0.0520715561	 0.11411
H	-4.4800197056	-1.0280833073	-0.0195800821	 0.132961
H	-2.7535880413	 0.7688810866	-0.0266436393	 0.26664
68.6271	108.1823	170.6337	187.4715	319.1211	324.1624	366.3241	473.0988	505.7154	566.7574	635.6896	644.8798	713.7695	717.6806	770.8125	785.8532	841.563	900.4076	948.9555	1039.7875	1070.9146	1082.7134	1154.8782	1193.6811	1304.6121	1325.8687	1374.0745	1429.8576	1470.1816	1478.5139	1482.0183	1501.8307	1543.7776	1613.4057	1686.6521	3030.7238	3090.9214	3152.5022	3254.8075	3275.2914	3422.857	3693.6149
CC(=O)C1=C(O)C=CN1	CC(=O)c1c(O)cc[nH]1	
InChI=1S/C6H7NO2/c1-4(8)6-5(9)2-3-7-6/h2-3,7,9H,1H3	InChI=1S/C6H7NO2/c1-4(8)6-5(9)2-3-7-6/h2-3,7,9H,1H3
