20
gdb 99517	2.11207	1.32265	0.98986	2.7039	74.97	-0.2732	0.0213	0.2944	1271.1559	0.168002	-440.301584	-440.290979	-440.290034	-440.33677	38.957	
C	-0.0272297951	 1.5533479005	-0.0107229299	-0.435955
C	-0.0148978633	 0.0191517926	 0.0173913039	 0.327235
C	 0.6382065241	-0.4842673742	 1.3073921886	-0.413664
O	-1.3454992498	-0.4910516997	 0.0356866247	-0.457175
C	 0.739392108	-0.5413959871	-1.2386255434	-0.163469
C	 0.8692649302	-2.088016426	-1.2575425171	-0.082485
O	 1.4679087347	-2.5618660634	-2.4433899625	-0.419253
C	 0.0318483627	-0.1322780447	-2.4550712956	 0.251376
N	-0.5693122966	 0.1478349533	-3.4031720286	-0.340996
H	 0.9868699596	 1.9611817512	 0.0483533191	 0.121289
H	-0.4878633896	 1.9307145618	-0.9295980227	 0.135301
H	-0.6013594643	 1.9274987259	 0.841048216	 0.130379
H	 0.1604237362	-0.004557488	 2.1652985099	 0.129884
H	 0.5124282051	-1.5632613563	 1.4179962944	 0.1362
H	 1.7057688538	-0.2468097223	 1.3285008805	 0.118486
H	-1.8359131149	-0.086178983	-0.689891243	 0.292584
H	 1.7474791914	-0.1123846871	-1.2781793342	 0.127874
H	 1.5300968212	-2.3950245088	-0.444394955	 0.12272
H	-0.1215105192	-2.5247922495	-1.080195879	 0.122231
H	 0.8551348658	-2.4132152152	-3.1724575661	 0.297437
70.0679	104.2137	138.5096	178.2108	215.2196	229.3287	265.0636	320.395	338.5489	352.9377	371.2672	379.99	407.8524	451.4354	492.3762	595.3771	600.1051	805.855	837.5774	911.9391	939.2806	969.8207	998.5338	1046.2188	1051.7769	1083.7789	1146.8397	1177.9583	1208.1815	1224.5488	1285.6411	1331.4738	1377.163	1384.1011	1407.2522	1420.3213	1425.0448	1477.2136	1490.6149	1497.7899	1510.1184	1515.0512	2342.5027	3031.1335	3037.0398	3050.6459	3053.9483	3107.8955	3114.9384	3120.0294	3126.4328	3135.1493	3787.969	3801.556
CC(C)(O)C(CO)C#N	CC(C)(O)[C@@H](CO)C#N	
InChI=1S/C6H11NO2/c1-6(2,9)5(3-7)4-8/h5,8-9H,4H2,1-2H3	InChI=1S/C6H11NO2/c1-6(2,9)5(3-7)4-8/h5,8-9H,4H2,1-2H3/t5-/m1/s1
