21
gdb 95373	2.62851	1.57939	1.13996	1.8705	76.6	-0.2415	0.0707	0.3123	1123.3516	0.185246	-424.238379	-424.230356	-424.229412	-424.271122	31.182	
C	-0.5703543474	 1.443387852	-0.0147902848	-0.417721
C	 0.0802849451	 0.0605475695	-0.04564821	 0.004635
C	 1.1143344661	-0.1454237225	-1.1616902551	-0.094123
O	 1.8434056006	-1.3098892249	-0.7961394891	-0.268354
C	 1.9043599033	-1.3900618605	 0.6284819629	 0.086025
C	 3.2651731239	-0.9367560091	 1.2101958004	-0.102986
O	 2.9743515195	-0.0088630557	 2.2451414266	-0.245925
C	 1.8194472006	 0.7028154321	 1.8291496908	-0.10078
C	 0.8934860032	-0.3567531641	 1.1973418275	-0.062377
H	 0.1696736692	 2.2416692533	 0.1001307918	 0.121728
H	-1.1178699837	 1.6344749551	-0.9437066761	 0.119118
H	-1.2846039392	 1.5270095767	 0.8104384284	 0.119863
H	-0.7057914519	-0.6913073021	-0.1878445674	 0.083268
H	 0.6685995189	-0.3209175535	-2.1454001796	 0.107868
H	 1.7786563093	 0.731572224	-1.2436007457	 0.085376
H	 1.6712085225	-2.4227442616	 0.902389984	 0.084368
H	 3.8517092266	-1.7490610454	 1.6465820475	 0.107556
H	 3.852029006	-0.4723688412	 0.4018373017	 0.097082
H	 1.3933540625	 1.1957984911	 2.7061879923	 0.109824
H	 2.0922131697	 1.4810542777	 1.097243149	 0.087222
H	 0.2605397851	-0.7969285609	 1.9708899551	 0.078335
67.4518	170.6882	206.3387	228.2473	245.4501	326.3881	414.0924	480.9844	564.0419	594.6364	649.9334	721.2327	829.4911	863.1893	904.7271	954.1855	959.9951	973.5746	996.6034	1016.2668	1021.0001	1060.487	1084.7072	1115.2814	1139.9633	1158.1276	1179.0045	1218.5015	1234.6196	1254.1022	1283.0161	1285.9424	1318.5993	1329.5008	1349.9686	1361.5536	1379.8533	1399.6781	1401.8447	1419.7438	1500.2334	1503.1653	1504.6168	1514.2291	1526.4186	2956.1324	2969.976	2984.8973	3027.1616	3036.1234	3061.1493	3078.072	3082.5522	3096.1724	3099.9876	3101.8176	3107.8789
CC1COC2COCC12	C[C@H]1CO[C@H]2COC[C@@H]12	
InChI=1S/C7H12O2/c1-5-2-9-7-4-8-3-6(5)7/h5-7H,2-4H2,1H3	InChI=1S/C7H12O2/c1-5-2-9-7-4-8-3-6(5)7/h5-7H,2-4H2,1H3/t5-,6-,7-/m0/s1
