19
gdb 41180	3.0425	1.74984	1.56762	1.8159	80.87	-0.2303	-0.0019	0.2283	940.3628	0.161139	-385.78453	-385.777822	-385.776878	-385.815049	28.959	
C	 0.0423897711	 1.6420493735	-0.2812356049	-0.295465
C	 1.5936973112	 1.3646883924	 0.049009146	-0.32994
C	 1.0187322934	 0.2633304181	 0.9936886273	 0.370968
O	 1.006339731	-1.2260230552	 1.1979560452	-0.369553
C	-0.4690218027	-1.1064594739	 0.9920955333	-0.016073
C	-1.1377987884	-0.7932685401	 2.3268925726	-0.254425
C	-0.4001145402	 0.3461301841	 2.9823156369	-0.069311
C	 0.6453399583	 0.8600234753	 2.3382647522	-0.086272
C	-0.1291355917	 0.1177388579	 0.0625468651	 0.015837
H	-0.3983051792	 2.3321207656	 0.4383803188	 0.123328
H	-0.1979569621	 1.9539901477	-1.2993553029	 0.105256
H	 2.1062517631	 0.9720133812	-0.8307637939	 0.120098
H	 2.1778685046	 2.17379284	 0.4981729127	 0.099258
H	-0.8678495851	-2.0015125086	 0.5084619373	 0.080413
H	-2.1981011683	-0.5526828158	 2.1718081407	 0.11071
H	-1.1134248166	-1.6829297959	 2.9704239856	 0.119289
H	-0.7195979096	 0.6974989473	 3.9590122152	 0.094159
H	 1.2361801504	 1.6805494223	 2.7350723372	 0.086159
H	 0.2669499907	-0.3857820759	-0.8257937244	 0.095566
201.005	244.8652	333.4139	394.9366	428.6174	493.9491	532.4464	563.6238	629.2466	710.098	717.7274	758.1271	771.0687	840.4391	859.8771	872.4568	916.2827	933.6331	961.1866	987.7672	1002.5486	1032.9972	1070.098	1096.8362	1123.1039	1140.1402	1163.2813	1173.8397	1206.5934	1224.6396	1240.653	1251.7092	1275.4484	1307.0343	1360.3261	1403.0549	1448.8441	1463.5404	1480.2755	1489.9839	1699.2308	3015.0117	3030.9601	3043.8922	3054.2047	3079.8002	3082.75	3129.8276	3151.7932	3156.9348	3181.7623
C1CC23OC(CC=C2)C13	C1C[C@@]23O[C@@H](CC=C2)[C@@H]13	
InChI=1S/C8H10O/c1-2-7-6-3-5-8(6,4-1)9-7/h1,4,6-7H,2-3,5H2	InChI=1S/C8H10O/c1-2-7-6-3-5-8(6,4-1)9-7/h1,4,6-7H,2-3,5H2/t6-,7+,8+/m1/s1
