17
gdb 24316	2.76937	2.41002	1.48917	2.1857	79.15	-0.1866	-0.0097	0.177	871.0707	0.140234	-380.813353	-380.807129	-380.806185	-380.843609	26.151	
C	-0.1331763969	 1.5026717313	-0.0926204605	-0.322791
C	 1.4210165783	 1.7311595454	 0.1161754074	-0.01084
C	 2.1595884859	 1.7090281793	 1.498605923	-0.19394
N	 3.0261715906	 0.464808022	 1.484933509	-0.352733
C	 2.232083308	-0.4284387717	 0.696230397	 0.077829
C	 1.3729251882	-1.4754041572	 1.0067562662	-0.156944
C	 0.0967475901	-1.191652158	 0.3969915052	-0.176299
C	 0.2282414332	 0.0024884181	-0.297799964	 0.055312
N	 1.5777168102	 0.3194606808	-0.2501370553	 0.077051
H	-0.7486575455	 1.6713307033	 0.7938511075	 0.127513
H	-0.5558652561	 2.0504310711	-0.9376886859	 0.120283
H	 1.8792050437	 2.435100032	-0.5854933317	 0.088605
H	 2.7705424712	 2.5961470683	 1.6833460444	 0.110653
H	 1.4448810183	 1.604869322	 2.3211316244	 0.127128
H	 3.9235550127	 0.6764934232	 1.0575345155	 0.233207
H	 1.5836994585	-2.3107857268	 1.6588605622	 0.10132
H	-0.8035055104	-1.7675373931	 0.5595004057	 0.094646
166.5174	290.7546	316.057	386.5875	541.9798	602.6847	623.8454	654.3437	718.4469	732.0498	780.0629	800.5998	828.693	857.2023	863.5288	912.2866	928.7868	992.234	1008.1617	1030.8291	1040.0186	1100.9504	1139.9482	1198.5702	1213.7182	1236.5544	1249.849	1263.9771	1311.7318	1329.2807	1353.0518	1367.4016	1399.8663	1442.82	1469.9713	1488.424	1543.4218	3051.3808	3053.7199	3066.5116	3112.0742	3121.7132	3228.1376	3244.857	3491.9344
C1C2CNC3=CC=C1N23	C1[C@H]2CN[C]3C=C[C]1N23	
InChI=1S/C7H8N2/c1-2-7-8-4-6-3-5(1)9(6)7/h1-2,6,8H,3-4H2	InChI=1S/C7H8N2/c1-2-7-8-4-6-3-5(1)9(6)7/h1-2,6,8H,3-4H2/t6-/m0/s1
