16
gdb 9048	5.18382	1.0632	0.92006	4.2585	70.98	-0.2515	0.0137	0.2652	1203.3896	0.128732	-342.747807	-342.738739	-342.737795	-342.782604	31.99	
C	 1.0026722732	 1.2411794537	-0.6542617048	-0.395784
C	 0.1669171607	 0.0340821406	-0.1780534478	-0.104941
N	 0.3665464108	-1.2283179287	-0.8897336665	-0.26976
C	-0.3244050867	-1.3856661722	-2.1677887375	-0.325387
C	 0.1941481753	-0.6247048983	-3.3142297313	 0.308374
C	 0.6419295298	-0.0303850914	-4.2592001987	-0.45254
C	 0.4149965125	-0.2010202942	 1.2588866768	 0.284904
N	 0.6335883119	-0.36273228	 2.3817225717	-0.319501
H	 2.0710048995	 1.0234573936	-0.5618529992	 0.131113
H	 0.7789252391	 1.4588998362	-1.6994231941	 0.145327
H	 0.7820055592	 2.12418035	-0.0475929685	 0.135532
H	-0.8973446427	 0.2842609569	-0.2738042567	 0.132839
H	 1.3553408872	-1.4332246999	-0.9833496332	 0.233792
H	-0.3032250435	-2.4519789283	-2.4234226544	 0.147159
H	-1.3812543996	-1.1372383707	-2.0110308394	 0.14332
H	 1.0327633132	 0.4991221426	-5.0931292064	 0.205552
17.3858	97.5835	167.7064	199.753	218.3507	245.1391	323.051	364.1664	370.6478	523.2967	565.2417	596.0899	627.2051	667.0267	705.2657	820.3362	903.4119	918.9509	969.4894	1056.1964	1095.1112	1135.4824	1167.1741	1276.3461	1318.1724	1357.2684	1376.4169	1406.4183	1459.9054	1485.5718	1493.4095	1508.1435	2225.7434	2360.1747	3028.7443	3036.8885	3048.1393	3062.2804	3119.0488	3150.5067	3500.5958	3539.0491
CC(NCC#C)C#N	C[C@@H](NCC#C)C#N	
InChI=1S/C6H8N2/c1-3-4-8-6(2)5-7/h1,6,8H,4H2,2H3	InChI=1S/C6H8N2/c1-3-4-8-6(2)5-7/h1,6,8H,4H2,2H3/t6-/m1/s1
