15
gdb 125346	3.31663	1.79472	1.17303	2.696	73.19	-0.2023	0.0057	0.208	986.1949	0.116104	-413.022611	-413.015536	-413.014592	-413.054042	26.888	
C	-0.0150996776	 1.4965913655	 0.109840293	-0.494684
C	-0.0105932638	 0.0139753922	-0.0028807553	 0.250657
C	-0.0396603428	-0.858671618	-1.0724081457	-0.16529
N	-0.020578657	-2.1995289109	-0.7026679948	-0.4104
C	 0.0200539952	-2.1164987762	 0.6015119575	 0.490168
N	 0.0596317216	-2.9083114113	 1.7291291477	-0.40743
C	 0.0890008584	-2.0465282618	 2.8008555489	 0.051344
N	 0.0714920251	-0.7838699027	 2.4580339683	-0.256734
N	 0.028594537	-0.8415442793	 1.0872792894	-0.013901
H	 0.8813277129	 1.8721659169	 0.6173481208	 0.135473
H	-0.0486513895	 1.9399579425	-0.8881784175	 0.134813
H	-0.8821268053	 1.8626583794	 0.6723969695	 0.135462
H	-0.074155068	-0.583165276	-2.1163953111	 0.106202
H	 0.0657572516	-3.9121273401	 1.7551013124	 0.288249
H	 0.1230573122	-2.3883517902	 3.8225340869	 0.156072
134.5776	181.9023	228.2331	234.029	364.3719	407.2854	542.6517	624.3345	625.7973	642.7776	725.4529	739.1314	810.9885	818.2457	838.1625	961.3338	1003.6342	1068.0406	1095.6935	1115.942	1172.5209	1216.9594	1268.0627	1294.9048	1343.4689	1420.231	1428.3643	1438.64	1474.9058	1497.7544	1555.4409	1590.6937	1655.884	3024.6564	3071.0207	3122.9414	3242.0006	3281.4941	3701.0514
CC1=CN=C2NC=NN12	Cc1cnc2[nH]cnn12	
InChI=1S/C5H6N4/c1-4-2-6-5-7-3-8-9(4)5/h2-3H,1H3,(H,6,7,8)	InChI=1S/C5H6N4/c1-4-2-6-5-7-3-8-9(4)5/h2-3H,1H3,(H,6,7,8)
