21
gdb 95454	2.98217	1.23217	1.01827	1.3857	86.35	-0.225	0.0191	0.2441	1254.7119	0.183764	-387.092266	-387.083566	-387.082621	-387.125824	33.666	
O	 0.0871411823	 1.4017543347	 0.2562657972	-0.426197
C	 0.043372877	 0.0080561913	-0.0813695703	 0.014462
C	 0.8102012899	-0.893604242	 0.9165848757	-0.233211
C	-0.2678625464	-1.5445244083	 1.8167256645	-0.259746
C	-1.5325892886	-1.3412189401	 1.0221445998	-0.191418
C	-1.3779547136	-0.5368796659	-0.0375397043	 0.333857
C	-2.4345282545	-0.1583456956	-0.9967184945	-0.104245
C	-2.4901017769	 1.2240935563	-1.6264733995	-0.277155
C	-2.1395369178	 0.0378428607	-2.4748332874	-0.274688
H	-0.4607231023	 1.5200302957	 1.0406702203	 0.276236
H	 0.4922376681	-0.0309740032	-1.0788483446	 0.083821
H	 1.3465015996	-1.6714533379	 0.3642204584	 0.104782
H	 1.5528305011	-0.3084317468	 1.4643131369	 0.104208
H	-0.0604333518	-2.604204677	 2.0058872456	 0.105587
H	-0.33528314	-1.0726920723	 2.8071873019	 0.102911
H	-2.4736378006	-1.8052385645	 1.3022080711	 0.085623
H	-3.398650122	-0.6091572014	-0.7788888629	 0.078286
H	-3.4686638988	 1.6753858095	-1.7494992934	 0.10831
H	-1.6961918102	 1.911444649	-1.3619213609	 0.139705
H	-1.113470099	-0.0667947158	-2.8087388582	 0.116757
H	-2.8741474055	-0.3347859664	-3.1801778854	 0.112114
67.1678	101.8707	175.5249	185.6232	267.3626	324.5361	361.426	399.1145	415.2454	582.7066	657.0637	722.4335	778.8189	792.7769	826.9095	844.5484	849.2385	900.1286	924.1364	938.9985	947.3599	1001.9778	1030.5698	1057.3833	1065.9866	1066.5001	1085.6925	1135.0154	1161.7096	1181.2467	1206.5458	1218.8646	1243.2287	1267.1697	1273.3691	1315.9782	1325.38	1362.773	1399.3182	1427.424	1470.0912	1476.4435	1499.1395	1500.7224	1700.4564	3007.5131	3044.1274	3053.8363	3066.9926	3108.6812	3135.9154	3138.5168	3144.7647	3174.555	3217.4962	3238.6161	3795.9797
OC1CCC=C1C1CC1	O[C@H]1CCC=C1C1CC1	
InChI=1S/C8H12O/c9-8-3-1-2-7(8)6-4-5-6/h2,6,8-9H,1,3-5H2	InChI=1S/C8H12O/c9-8-3-1-2-7(8)6-4-5-6/h2,6,8-9H,1,3-5H2/t8-/m0/s1
