21
gdb 88394	2.12702	1.38789	1.15121	2.344	78.67	-0.2456	-0.0222	0.2235	1208.4429	0.178462	-424.222474	-424.21199	-424.211046	-424.258025	37.884	
C	-1.6281110421	-1.0773778021	 2.2932260729	-0.443586
C	-0.6970340358	-1.0355508536	 1.1089131371	 0.068758
O	-0.5212388557	 0.2153983117	 0.4217373791	-0.269104
C	 0.6207535821	-0.3795687864	 1.0471984528	 0.045154
C	 1.3389724023	 0.3839385249	 2.1601002477	 0.115523
C	 2.0335082426	-0.5996865215	 3.1089883767	-0.412466
C	 2.3744794638	 1.3226042321	 1.4859907232	-0.427715
C	 0.4050923591	 1.3217111333	 2.9199027026	 0.138235
O	 0.3701798668	 1.4227970977	 4.1209495016	-0.270074
H	-1.4480356122	-0.2748912613	 3.0090797618	 0.150572
H	-2.6659130052	-1.0012481417	 1.9520606427	 0.133517
H	-1.5197438284	-2.0333076779	 2.8168915865	 0.127667
H	-0.8316261721	-1.8734723171	 0.4204917854	 0.092092
H	 1.3295085976	-0.8077237361	 0.3317452614	 0.086448
H	 2.7275028464	-1.24189668	 2.5569665933	 0.11034
H	 2.5955418964	-0.0612643083	 3.8755373599	 0.133432
H	 1.3060024455	-1.2368146856	 3.6186105313	 0.126482
H	 1.8867091054	 2.0312052296	 0.8091716346	 0.136109
H	 2.9345186818	 1.8883509495	 2.2364313973	 0.130589
H	 3.0872193723	 0.7326418309	 0.9009262251	 0.124531
H	-0.2206977506	 1.9645430319	 2.2673221771	 0.103495
44.2118	90.5201	160.0122	171.812	197.0604	221.8767	244.7578	261.5747	296.9512	333.3125	359.0925	392.1487	484.0267	550.0658	623.4178	757.005	778.0714	834.7558	908.316	932.7956	954.7404	983.4392	1013.8995	1038.3507	1051.8315	1095.8755	1165.2841	1175.1852	1185.8525	1239.2988	1257.647	1326.2828	1391.2581	1398.9295	1408.3167	1422.1836	1432.2819	1467.6659	1480.4614	1484.2572	1489.0955	1500.4132	1507.0684	1510.5254	1818.142	2926.3807	3033.5485	3042.7514	3043.35	3053.6907	3079.3443	3100.8262	3107.1828	3112.9896	3114.6129	3128.9446	3151.8631
CC1OC1C(C)(C)C=O	C[C@H]1O[C@H]1C(C)(C)C=O	
InChI=1S/C7H12O2/c1-5-6(9-5)7(2,3)4-8/h4-6H,1-3H3	InChI=1S/C7H12O2/c1-5-6(9-5)7(2,3)4-8/h4-6H,1-3H3/t5-,6-/m1/s1
