20
gdb 83603	2.23744	1.69521	1.24676	3.5054	80.52	-0.2328	0.0367	0.2695	1108.0318	0.170698	-403.16703	-403.157924	-403.15698	-403.200709	33.572	
C	-0.0370427459	 1.4066212283	 0.1828617492	-0.3496
N	-0.0393881304	-0.0071044737	-0.0993191735	-0.067681
C	-1.1115785965	-1.0008704647	-0.0660866958	-0.047698
C	-1.5357691692	-1.4476090841	 1.3615306442	-0.234285
C	-0.4060836252	-2.5198154846	 1.3612297127	-0.278739
C	 0.0037895451	-2.1080814474	-0.0931670412	 0.188117
C	 0.1807167519	-3.1711704292	-1.1502374166	-0.495598
C	 0.9920543104	-0.9217265341	-0.0666097399	 0.364098
O	 2.1874767918	-0.7834387778	 0.0023172371	-0.386018
H	 1.0049122374	 1.7315785356	 0.2370742861	 0.160586
H	-0.5447710464	 1.9739289264	-0.6054672553	 0.1279
H	-0.5254283729	 1.6301728455	 1.1404318595	 0.124589
H	-1.8770310556	-0.8811497433	-0.8360704931	 0.078472
H	-1.47263416	-0.6696730441	 2.1265027102	 0.105218
H	-2.5385410359	-1.8804060029	 1.3926079723	 0.107293
H	 0.3788856488	-2.4091313956	 2.1123999122	 0.116995
H	-0.7866377028	-3.5429726221	 1.4114831327	 0.107364
H	-0.6530002175	-3.8814565407	-1.1478566579	 0.11457
H	 0.2543940217	-2.7324242549	-2.1507527071	 0.125349
H	 1.1029971912	-3.7331390667	-0.9668709759	 0.139066
104.1862	129.3618	149.4271	182.3345	190.3438	232.2045	261.052	298.0478	393.2394	518.0339	595.4871	671.4157	717.0117	753.2059	802.1411	851.1298	876.2813	918.28	951.9399	972.5312	1001.3631	1036.6593	1104.3297	1126.6404	1145.6654	1154.1661	1195.7128	1218.2768	1237.5992	1267.7243	1282.9272	1304.369	1340.0278	1399.581	1413.0457	1445.5248	1473.6689	1483.9525	1488.2181	1490.2319	1495.2313	1515.3297	1864.6608	3012.0017	3028.6763	3060.9996	3066.9691	3067.0622	3084.2143	3096.5806	3100.3167	3106.6548	3124.5326	3127.3609
CN1C2CCC2(C)C1=O	CN1[C@@H]2CC[C@]2(C)C1=O	
InChI=1S/C7H11NO/c1-7-4-3-5(7)8(2)6(7)9/h5H,3-4H2,1-2H3	InChI=1S/C7H11NO/c1-7-4-3-5(7)8(2)6(7)9/h5H,3-4H2,1-2H3/t5-,7+/m1/s1
