23
gdb 117707	2.18037	0.99641	0.82431	3.3861	83.23	-0.2385	-0.0158	0.2227	1535.2791	0.200867	-425.439803	-425.42833	-425.427386	-425.477448	40.643	
C	 0.1167026242	 1.556886847	-0.1881867027	-0.379374
C	 0.0837659735	 0.05234152	 0.0322642698	-0.049264
O	 0.6633758886	-0.5579702467	-1.1080078166	-0.289971
C	 0.6862565767	-1.9900607633	-1.1855924662	 0.339448
C	 1.3884226294	-2.6212267557	 0.0283079017	-0.424438
C	-0.7338014551	-2.5543384323	-1.3463871795	-0.418479
C	 1.4930396517	-2.2637077391	-2.4749837156	-0.285893
C	 2.9131834437	-1.7419680195	-2.4275116898	 0.15031
O	 3.8843554883	-2.3899998071	-2.7294475231	-0.25118
H	 1.1458117602	 1.9019896666	-0.3228039447	 0.126473
H	-0.4537096795	 1.82655307	-1.081456708	 0.125265
H	-0.3148359454	 2.0775008552	 0.6719713553	 0.11481
H	 0.6415982385	-0.2071961358	 0.9438252731	 0.092324
H	-0.9535913992	-0.2834509602	 0.1771616488	 0.089634
H	 0.7950346306	-2.5142951785	 0.9404627923	 0.118454
H	 1.5429463208	-3.6909433816	-0.1413282531	 0.125666
H	 2.3668396221	-2.1617788656	 0.1986033552	 0.12908
H	-1.2431061045	-2.0679859823	-2.1834069254	 0.121285
H	-0.6979013259	-3.630511449	-1.5409021046	 0.119641
H	-1.3322729117	-2.4047081027	-0.4431383983	 0.117597
H	 1.5203093011	-3.332401053	-2.7026756223	 0.113405
H	 0.9835059741	-1.7444938561	-3.298009702	 0.123728
H	 3.0030172279	-0.6860394203	-2.0975807242	 0.09148
37.8136	58.5994	78.5525	104.2821	169.7872	220.3818	238.4163	256.0489	258.7881	326.5707	331.7518	345.7979	424.7876	454.7569	487.9893	563.895	733.2447	798.3079	823.365	897.5971	914.7855	922.0823	973.1654	987.314	1044.1747	1066.2709	1097.5808	1144.1166	1175.2436	1183.2176	1195.6796	1244.5508	1284.9488	1299.1238	1322.7131	1394.7062	1398.5677	1411.394	1417.9536	1427.1254	1447.6247	1478.9274	1483.6245	1490.2581	1496.1521	1502.0661	1508.2556	1531.2452	1825.7183	2920.2031	2987.3372	3017.2037	3026.6941	3040.098	3044.4157	3044.5519	3106.9618	3110.3834	3115.2475	3116.9654	3119.2178	3119.6808	3122.0635
CCOC(C)(C)CC=O	CCOC(C)(C)CC=O	
InChI=1S/C7H14O2/c1-4-9-7(2,3)5-6-8/h6H,4-5H2,1-3H3	InChI=1S/C7H14O2/c1-4-9-7(2,3)5-6-8/h6H,4-5H2,1-3H3
