18
gdb 125944	2.94812	1.5548	1.07094	3.5587	77.49	-0.2385	-0.0055	0.233	1114.4832	0.150037	-401.956244	-401.948759	-401.947815	-401.988298	28.944	
C	-0.054904557	 1.606378063	-0.0593200806	-0.394359
C	-0.0000885131	 0.0787086534	 0.0369809764	-0.127348
C	 0.7538909407	-0.5875354824	-1.1737412704	-0.211067
C	 1.557549505	-1.8195220373	-0.6379101626	-0.363065
C	 1.5999468944	-1.4817589735	 0.8140079595	 0.381051
C	 0.77851105	-0.4769134348	 1.1994649608	 0.181622
C	 0.9877046675	-0.4183387172	 2.6005368602	-0.139182
N	 1.8677636727	-1.3121947425	 3.0016820141	-0.144667
O	 2.2632563532	-2.0098731779	 1.8406697823	-0.229574
H	 0.9537166013	 2.0327725108	-0.0743584883	 0.119879
H	-0.5714250527	 1.9210873172	-0.9722311738	 0.116287
H	-0.5908971571	 2.0386583405	 0.7917893109	 0.117598
H	-1.0326102128	-0.2967067128	 0.0707033385	 0.08727
H	 0.0712453653	-0.8605136177	-1.9821584517	 0.106699
H	 1.460902264	 0.1425074214	-1.5813579569	 0.113636
H	 1.0288993235	-2.7655192464	-0.8094795626	 0.128041
H	 2.5436510888	-1.9146640902	-1.1019466757	 0.128126
H	 0.5522182961	 0.2316227564	 3.34713152	 0.129052
99.1452	162.1661	225.9407	238.0405	284.6386	427.9496	466.2582	557.068	635.2387	637.0649	695.6064	731.9529	818.6352	866.5045	896.0463	910.7913	947.3075	967.4776	981.1759	1029.9287	1100.6609	1102.8146	1135.898	1184.3663	1202.6291	1224.4568	1282.9696	1301.5055	1316.1669	1357.0654	1372.7297	1408.5897	1417.2813	1481.9773	1494.2141	1498.5278	1499.8357	1509.3022	1653.3404	2996.6926	3029.9015	3031.1948	3051.2143	3081.2532	3100.5358	3101.6567	3107.27	3235.851
CC1CCC2=C1C=NO2	C[C@H]1CCc2c1cno2	
InChI=1S/C7H9NO/c1-5-2-3-7-6(5)4-8-9-7/h4-5H,2-3H2,1H3	InChI=1S/C7H9NO/c1-5-2-3-7-6(5)4-8-9-7/h4-5H,2-3H2,1H3/t5-/m0/s1
