17
gdb 50585	3.80102	1.19901	0.9988	2.3946	68.34	-0.2409	-0.0372	0.2037	1160.4082	0.135127	-458.934126	-458.926176	-458.925231	-458.967216	29.614	
O	-0.9465709874	 1.1560158553	 0.2331030298	-0.248237
C	 0.1871355156	 0.8782463185	-0.0582082826	 0.138761
C	 1.3442640638	 1.8550524683	 0.0584746241	 0.01456
C	 1.3763892761	 2.5454227648	 1.4209095134	-0.094464
O	 2.4342961043	 3.4876784244	 1.4806824276	-0.257368
C	 3.6463191678	 3.0655701512	 0.9252319556	 0.09693
C	 4.379098176	 1.8201023539	 1.365938389	-0.346802
C	 3.7022478936	 1.8743798842	 0.0080292621	 0.055204
O	 2.5341905441	 1.1117597054	-0.153508482	-0.275425
H	 0.4835977506	-0.1231718065	-0.4385889601	 0.102083
H	 1.2205217219	 2.6270827446	-0.7204251422	 0.109644
H	 0.4487298291	 3.0964112514	 1.5862909809	 0.13802
H	 1.4769035962	 1.7854416308	 2.2103357622	 0.10542
H	 4.2443004269	 3.9337960142	 0.6702541598	 0.112478
H	 5.4615564013	 1.8568148213	 1.4202297818	 0.118872
H	 3.9065192242	 1.172924878	 2.0960407977	 0.12857
H	 4.3069873458	 1.9106966702	-0.8947721671	 0.101753
60.1138	111.9518	177.2386	204.6455	313.8245	383.693	435.1866	472.9925	508.8235	584.305	725.6187	747.4288	799.3066	836.8576	875.3699	929.0926	989.007	1014.6969	1048.5882	1072.1661	1095.0967	1109.0452	1118.742	1129.1887	1169.8538	1192.9156	1254.2214	1269.2907	1300.1379	1335.5659	1365.2451	1388.9544	1405.6513	1418.8335	1472.429	1501.1077	1836.2839	2908.4026	2963.8258	2998.9477	3120.2737	3129.4494	3139.131	3169.8898	3230.6163
O=CC1COC2CC2O1	O=C[C@H]1CO[C@H]2C[C@H]2O1	
InChI=1S/C6H8O3/c7-2-4-3-8-5-1-6(5)9-4/h2,4-6H,1,3H2	InChI=1S/C6H8O3/c7-2-4-3-8-5-1-6(5)9-4/h2,4-6H,1,3H2/t4-,5-,6+/m0/s1
