17
gdb 128428	3.5605	1.09489	0.86452	3.6389	71.75	-0.2213	-0.0047	0.2166	1308.4052	0.137155	-455.124042	-455.115775	-455.114831	-455.157243	30.624	
C	-0.2318601355	 1.461697703	-0.2667069747	-0.317447
N	-0.1723534292	 0.0006878214	-0.3020297091	-0.308153
H	-0.1939184526	-0.3590315177	 0.6482390045	 0.238753
H	-1.4447648432	-1.2479161414	-1.1798265111	 0.292377
C	 1.0326663659	-0.5166814296	-0.9717197587	-0.266183
C	 0.9111961161	-2.0010896015	-1.1256905204	 0.26207
N	 1.9335731903	-2.8187597693	-1.0484340375	-0.20743
O	 1.4245567697	-4.0829200267	-1.2838227598	-0.170009
C	 0.0876128453	-4.0012122465	-1.4806591478	-0.02548
C	-0.3056490476	-2.7026352037	-1.3932327384	 0.153541
O	-1.5350856811	-2.1627727979	-1.5206760679	-0.440196
H	 0.6555862504	 1.9249466585	 0.1926651107	 0.113172
H	-0.3218765861	 1.8453657485	-1.2878931789	 0.136351
H	-1.1165928491	 1.7767153492	 0.2923490453	 0.131558
H	 1.0742510841	-0.0481715394	-1.9640224384	 0.134227
H	 1.9704801188	-0.2585664189	-0.4575294959	 0.124844
H	-0.4297176563	-4.9271933681	-1.6671373718	 0.148004
79.7118	125.965	162.6677	247.6411	266.0706	309.8145	347.8891	397.6295	471.1852	603.4579	678.2205	699.5154	727.8433	778.2838	787.363	876.6669	920.25	948.4344	980.8149	1000.5126	1123.4329	1129.7637	1157.2152	1180.0114	1213.0527	1275.6836	1287.4526	1369.1747	1380.8733	1459.251	1479.0412	1491.3145	1495.1364	1505.2201	1516.1593	1537.1767	1700.3548	2983.2528	2996.7451	3039.5293	3075.8914	3119.6507	3283.4915	3490.2661	3505.1131
C[NH2+]CC1=NOC=C1[O-]	CNCc1nocc1O	
InChI=1S/C5H8N2O2/c1-6-2-4-5(8)3-9-7-4/h3,6,8H,2H2,1H3	InChI=1S/C5H8N2O2/c1-6-2-4-5(8)3-9-7-4/h3,6,8H,2H2,1H3
