17
gdb 10802	4.72595	1.51236	1.20046	3.5102	72.55	-0.2472	0.0118	0.2589	1005.7081	0.142756	-363.887757	-363.879931	-363.878987	-363.920521	28.595	
C	 0.0257407458	 1.5579104906	 0.0483009122	-0.482766
C	-0.0203911779	 0.060033334	-0.0451020281	 0.28829
C	 0.0065381307	-0.6294188261	-1.18220264	-0.163677
C	-0.1046994845	-2.1272874099	-1.1872900919	-0.338216
C	 0.3891983565	-2.7673393404	 0.0907001159	 0.389955
N	 0.8272090887	-3.9560093797	 0.0904570273	-0.515473
O	 0.3548718146	-2.0305216836	 1.2342609196	-0.248546
C	-0.1419057589	-0.6886114642	 1.2546879172	-0.150903
H	 0.9098093691	 1.8962378072	 0.6033503161	 0.130953
H	 0.0479170062	 2.0157011697	-0.9437205966	 0.129571
H	-0.8487396087	 1.9522917897	 0.582229298	 0.128073
H	 0.0802571509	-0.1209495314	-2.1395332667	 0.092753
H	-1.1543427807	-2.4245560414	-1.336153833	 0.138119
H	 0.4486744474	-2.5814862286	-2.0118964492	 0.144761
H	 1.1041416573	-4.2258976767	 1.0367105675	 0.215233
H	 0.4265109305	-0.1858750507	 2.0452179105	 0.122468
H	-1.192744237	-0.7082486385	 1.5850967212	 0.119405
48.1456	93.7914	180.8146	241.6783	305.954	426.647	428.7794	451.0528	526.4409	584.7713	735.2391	774.6439	820.0379	894.7931	920.7715	945.487	984.1609	1002.6885	1045.546	1078.8672	1092.1869	1154.3961	1188.6967	1210.9993	1262.0031	1299.5751	1335.0097	1373.6458	1415.667	1434.1288	1464.747	1479.3351	1491.0322	1504.5024	1744.9111	1759.5962	2979.5491	2994.9285	3016.6786	3057.6163	3063.0731	3105.1323	3117.1967	3165.8188	3461.7707
CC1=CCC(=N)OC1	CC1=CC[C]([NH])OC1	
InChI=1S/C6H9NO/c1-5-2-3-6(7)8-4-5/h2,7H,3-4H2,1H3	InChI=1S/C6H9NO/c1-5-2-3-6(7)8-4-5/h2,7H,3-4H2,1H3
