16
gdb 132571	3.14041	1.32504	0.93812	1.7754	77.25	-0.2113	-0.0107	0.2005	1192.7572	0.124544	-442.099524	-442.091206	-442.090262	-442.133083	31.02	
C	-0.0261010497	 1.5123754119	-1.3986*^-6	-0.465921
C	-0.0145768012	 0.0057249611	 0.0213746373	 0.32154
N	-0.1968903234	-0.6199259486	-1.148367308	-0.320774
C	-0.2049021227	-1.9500517725	-1.1718231653	-0.065671
C	-0.0341203347	-2.7682207725	-0.048328762	 0.140122
N	-0.1081756297	-4.158225713	-0.0886952265	-0.600554
C	 0.1628182965	-2.0882706463	 1.1536645097	 0.277346
F	 0.3530560924	-2.8150661381	 2.265705766	-0.087483
C	 0.1745459822	-0.7092532002	 1.2077636659	-0.304309
H	 0.2165004206	 1.9322569232	 0.9794695921	 0.115043
H	 0.6948673867	 1.8900738433	-0.7314285504	 0.137485
H	-1.0110992579	 1.8861217792	-0.2998964167	 0.13744
H	-0.3565994663	-2.4186733138	-2.1435304835	 0.098698
H	 0.1525070049	-4.5665809608	-0.9746726369	 0.252835
H	 0.3507090297	-4.6152839696	 0.686127842	 0.256279
H	 0.3322308225	-0.2121457434	 2.157567035	 0.107925
32.6254	138.2147	226.7047	276.961	295.7564	300.5969	367.4697	448.4337	457.7799	520.456	570.292	614.5872	646.3161	754.591	762.2358	811.5637	882.0444	929.1496	953.6322	1018.9839	1058.0873	1101.2036	1162.6835	1257.9404	1306.6777	1331.0877	1359.703	1409.7761	1429.0775	1475.9487	1494.1484	1537.5665	1617.0187	1636.1217	1666.0891	3038.2136	3097.5022	3122.1038	3130.1297	3202.2146	3563.0797	3663.896
CC1=NC=C(N)C(F)=C1	Cc1ncc(N)c(F)c1	
InChI=1S/C6H7FN2/c1-4-2-5(7)6(8)3-9-4/h2-3H,8H2,1H3	InChI=1S/C6H7FN2/c1-4-2-5(7)6(8)3-9-4/h2-3H,8H2,1H3
