20
gdb 9925	2.87499	1.48516	1.37509	1.0401	82.57	-0.2319	0.0583	0.2902	1059.3836	0.174149	-311.833739	-311.824018	-311.823074	-311.867396	35.951	
C	-0.2212116244	 1.0051029455	-1.8023437181	-0.416606
C	-0.0185461648	-0.1976912424	-0.9064414589	-0.047262
C	 1.324011604	-0.6256228839	-0.3677014578	-0.047259
C	 2.6191108934	 0.0997713931	-0.6625688552	-0.416604
C	 0.2658405068	-0.0729215925	 0.596157364	 0.104832
C	 0.4362173197	 1.2902275597	 1.2544033486	-0.458982
C	-0.3829375565	-1.0376385509	 1.4466994642	 0.281452
C	-0.926263524	-1.8326697326	 2.1692623028	-0.464249
H	 0.4583598067	 1.8296134868	-1.5767546818	 0.116897
H	-0.0607533106	 0.7288560796	-2.8506004091	 0.120755
H	-1.2439584127	 1.3877494442	-1.7158232841	 0.123331
H	-0.6856133955	-1.0205485854	-1.1478732229	 0.093898
H	 1.4515886483	-1.7017688255	-0.2902683691	 0.093898
H	 2.4951906281	 1.1804435641	-0.7590933396	 0.116896
H	 3.3546954392	-0.0782766839	 0.1293460556	 0.12333
H	 3.0520792308	-0.2631458089	-1.6015740489	 0.120754
H	 0.9282953517	 2.0120810244	 0.6008863914	 0.113462
H	-0.538116212	 1.7016641002	 1.5357658084	 0.127158
H	 1.0344974896	 1.2005867893	 2.1664335304	 0.127156
H	-1.4049231679	-2.537046111	 2.8028523	 0.187143
128.9145	135.6015	156.1837	157.7404	161.2414	229.066	242.4858	302.6775	379.7941	418.2566	521.1478	535.0295	545.1574	572.8842	637.1667	661.6103	772.7701	791.518	935.3215	955.7316	1020.8665	1031.4683	1036.8012	1095.1625	1114.3144	1136.7073	1156.6215	1186.5389	1260.8471	1302.7287	1374.6452	1408.9229	1419.4321	1428.3863	1445.4116	1479.1527	1492.3849	1493.5237	1501.4718	1503.9609	1520.7809	2227.7152	3033.064	3035.3527	3044.6642	3087.8484	3089.3722	3103.3138	3115.2356	3120.6073	3137.0041	3141.0021	3152.7285	3504.1134
CC1C(C)C1(C)C#C	C[C@H]1[C@@H](C)[C@]1(C)C#C	
InChI=1S/C8H12/c1-5-8(4)6(2)7(8)3/h1,6-7H,2-4H3	InChI=1S/C8H12/c1-5-8(4)6(2)7(8)3/h1,6-7H,2-4H3/t6-,7+,8+
