24
gdb 100915	1.78208	1.1275	1.0472	3.8807	86.47	-0.2351	0.032	0.2671	1426.6619	0.2154	-405.585554	-405.574219	-405.573274	-405.622979	40.3	
C	 0.0287643789	 1.5572648819	 0.0626406685	-0.390287
C	 0.077759392	 0.028631028	 0.0214782809	-0.164405
C	 0.6432638509	-0.547402168	-1.2917863562	 0.022172
C	 0.8136735181	-2.0726711782	-1.2184187014	-0.397353
N	-0.1284598971	-0.1243434733	-2.4751120337	-0.037589
C	 0.5108964294	 0.7052914879	-3.4957521182	-0.161548
C	 1.4244756627	-0.0831558458	-4.4385658745	-0.378571
C	-1.4149473552	-0.5246030123	-2.6685543055	 0.147606
O	-2.1052032834	-0.2465646662	-3.6311969779	-0.355534
H	 1.0290897087	 1.9897022371	-0.0537913935	 0.112564
H	-0.6042373696	 1.9565867188	-0.7353288027	 0.132226
H	-0.3748387077	 1.9097847106	 1.0163225484	 0.117931
H	 0.701641168	-0.3436474219	 0.8433659725	 0.099237
H	-0.9250057942	-0.3812406697	 0.1941125559	 0.103207
H	 1.638598812	-0.1120977393	-1.4361463647	 0.090261
H	-0.1379103705	-2.5763607633	-1.0224559771	 0.124973
H	 1.2166524469	-2.4653043686	-2.1557841391	 0.125687
H	 1.5013582846	-2.3379479036	-0.4092615015	 0.118577
H	-0.2952931184	 1.1715184117	-4.0651293705	 0.144489
H	 1.0752440292	 1.4988348432	-2.992878485	 0.103572
H	 2.241418825	-0.572728752	-3.8978672279	 0.114164
H	 0.8537612685	-0.8501716186	-4.9693078601	 0.138023
H	 1.8703255797	 0.5875055345	-5.1801410545	 0.118246
H	-1.7936480686	-1.1463822329	-1.835729382	 0.072353
40.1117	47.2575	81.5211	131.1767	205.3809	213.7944	223.1363	239.0006	258.4685	292.1601	349.3368	365.0684	403.9195	502.9441	530.4418	628.2529	757.6035	800.5417	823.1389	846.8701	957.2143	980.3156	1004.4847	1027.9969	1035.1517	1079.0188	1107.5139	1124.7527	1138.5843	1178.4229	1235.3113	1271.978	1311.9438	1321.6	1357.2584	1377.8716	1394.7353	1408.0132	1410.1335	1412.2395	1442.4968	1465.1119	1481.7071	1484.8071	1493.8521	1495.6833	1498.8804	1500.9359	1504.3324	1508.4357	1781.3692	2950.6758	3025.5116	3034.2724	3034.4778	3036.0922	3040.6233	3043.2372	3062.7843	3098.1189	3101.4338	3109.6017	3114.2266	3117.0677	3120.2783	3128.8125
CCC(C)N(CC)C=O	CC[C@@H](C)N(CC)C=O	
InChI=1S/C7H15NO/c1-4-7(3)8(5-2)6-9/h6-7H,4-5H2,1-3H3	InChI=1S/C7H15NO/c1-4-7(3)8(5-2)6-9/h6-7H,4-5H2,1-3H3/t7-/m1/s1
