16
gdb 27173	3.14388	1.39418	1.04574	2.1281	74.02	-0.1918	0.0101	0.2019	1123.7499	0.125931	-434.058924	-434.051083	-434.050139	-434.091691	29.416	
N	 0.126286334	 1.4320967732	 0.1007779232	-0.598714
C	 0.0422647923	 0.0490616573	 0.0115369213	 0.195307
C	-1.0488924214	-0.7391596078	-0.187473965	 0.31138
O	-0.5882753847	-2.0523200624	-0.2910851453	-0.189258
C	 0.7423151185	-1.9463904495	-0.129765945	 0.068835
N	 1.1817464333	-0.7426017443	 0.0505851529	-0.301248
N	-2.3954128147	-0.430275267	-0.2897759347	-0.195888
C	-3.2293042728	-1.1123418895	-1.2907996232	-0.226622
C	-3.4020836639	-1.39956854	 0.1594495641	-0.227345
H	 0.8820781438	 1.7311725016	 0.7025055307	 0.252363
H	-0.7519632003	 1.8581106911	 0.3650337756	 0.252361
H	 1.3138336132	-2.8611525276	-0.1607346334	 0.14482
H	-3.9371961379	-0.4746102177	-1.8117812181	 0.124367
H	-2.7539350377	-1.877086477	-1.8981284188	 0.132826
H	-3.0455125152	-2.3580750705	 0.5245093624	 0.13406
H	-4.2389985867	-0.9738662499	 0.7054288133	 0.122757
63.1626	156.4961	166.0861	246.3361	297.0993	320.6239	452.7574	523.1364	581.934	654.3959	679.9679	723.9944	769.4786	817.1394	820.3058	844.9867	909.9789	954.1164	1026.3068	1035.6069	1090.9564	1122.7837	1128.7218	1161.6259	1180.8543	1202.107	1225.3081	1320.0344	1353.9059	1431.3838	1486.0161	1510.9607	1556.3325	1626.6336	1726.1913	3113.891	3117.4928	3200.3345	3215.4459	3267.9598	3546.3039	3648.2129
NC1=C(OC=N1)N1CC1	Nc1c(ocn1)N1CC1	
InChI=1S/C5H7N3O/c6-4-5(8-1-2-8)9-3-7-4/h3H,1-2,6H2	InChI=1S/C5H7N3O/c6-4-5(8-1-2-8)9-3-7-4/h3H,1-2,6H2
