17
gdb 54483	3.33414	1.4144	1.13934	2.8383	73.42	-0.2351	-0.0017	0.2334	1069.1824	0.137982	-418.032604	-418.024875	-418.023931	-418.064781	30.382	
N	 0.5787442466	 0.1339368148	-0.9735210301	-0.539232
C	-0.074543238	 0.1949476307	 0.2158662127	 0.345521
O	 0.3461888096	 0.7729434516	 1.2028172467	-0.375884
C	-1.3829292905	-0.5548759918	 0.2403027539	 0.217399
C	-2.3912001215	-0.1955679133	 1.3281225033	-0.344876
C	-3.1006729857	-1.5001325867	 1.6081983896	-0.085257
C	-2.5674344514	-2.5186380663	 0.9258343199	-0.084405
C	-1.4788466729	-2.0459229437	 0.0220108542	-0.089043
N	-1.8661075593	-1.0944537756	-1.0395580789	-0.388145
H	 1.4238742175	 0.6681827845	-1.0835180193	 0.258318
H	 0.0870198632	-0.2242937897	-1.7771251407	 0.27185
H	-1.8470249748	 0.1817892227	 2.2012271962	 0.152552
H	-3.07730789	 0.6029223353	 1.0171822932	 0.113796
H	-3.9503294643	-1.5686223871	 2.2779093617	 0.105184
H	-2.8746070466	-3.5561237024	 0.9806524585	 0.104978
H	-0.6203605883	-2.6669591361	-0.2108499638	 0.105503
H	-2.8808253835	-1.0309511968	-1.0979303573	 0.231742
80.3155	162.1468	212.4168	334.3017	345.5263	369.9341	410.7703	507.4244	526.803	626.8518	642.189	725.7903	734.1964	754.7325	794.1632	880.7925	900.5318	946.4177	954.5921	991.8762	1000.4751	1031.8004	1098.6804	1101.7357	1134.9632	1151.6115	1175.096	1238.7186	1294.928	1304.1209	1351.0972	1367.5098	1431.2449	1469.408	1590.029	1657.4421	1788.8639	3030.9879	3074.4698	3170.7735	3192.389	3216.9086	3479.5519	3583.7565	3728.5763
NC(=O)C12CC=CC1N2	NC(=O)[C@]12CC=C[C@H]1N2	
InChI=1S/C6H8N2O/c7-5(9)6-3-1-2-4(6)8-6/h1-2,4,8H,3H2,(H2,7,9)	InChI=1S/C6H8N2O/c7-5(9)6-3-1-2-4(6)8-6/h1-2,4,8H,3H2,(H2,7,9)/t4-,6+/m1/s1
