16
gdb 19459	4.00343	1.8277	1.69923	3.0246	67.95	-0.253	0.018	0.271	811.712	0.134259	-342.773361	-342.76704	-342.766096	-342.803771	24.918	
N	-0.1138682506	-1.2428770196	-0.1414641589	-0.334921
C	-0.0794984405	-0.0880379935	-0.0837850373	 0.268
C	-0.0108978367	 1.3616853468	 0.0148908121	-0.153015
C	-0.0701501509	 2.0872133138	 1.4029289118	-0.018583
C	 1.0327163616	 1.3935591635	 2.2189024468	-0.20333
C	 2.157019314	 1.4144273404	 1.1307698693	-0.203329
C	 1.3641795701	 2.1138265193	 0.0147369033	-0.018582
N	 0.7127372749	 3.2272110221	 0.7983396264	-0.3203
H	-0.7055139437	 1.8186607964	-0.6940496178	 0.117653
H	-1.0193480191	 2.3126881666	 1.8875046782	 0.085188
H	 1.2892057838	 1.9798364039	 3.1022923391	 0.116211
H	 0.752673698	 0.384636409	 2.5283208027	 0.123137
H	 3.020206354	 2.0119680632	 1.4269775864	 0.116212
H	 2.4946571906	 0.4169692034	 0.84238444	 0.123137
H	 1.874939877	 2.3663905494	-0.9136834969	 0.085189
H	 0.0900392973	 3.7309356154	 0.1646002147	 0.217334
142.7825	157.4845	315.1495	394.2099	512.48	513.7025	549.9745	710.9982	806.5881	842.3581	844.3039	859.0938	862.6291	918.7588	970.0772	984.7849	993.8709	1005.7606	1079.6907	1088.157	1119.312	1150.8128	1174.5953	1210.1114	1247.2029	1253.2914	1293.0739	1297.172	1339.9673	1368.0724	1370.375	1480.6244	1502.5061	2345.8677	3079.5913	3085.9	3088.7096	3126.8123	3129.8996	3133.2616	3142.1629	3440.5723
N#CC1C2CCC1N2	N#C[C@H]1[C@H]2CC[C@@H]1N2	
InChI=1S/C6H8N2/c7-3-4-5-1-2-6(4)8-5/h4-6,8H,1-2H2	InChI=1S/C6H8N2/c7-3-4-5-1-2-6(4)8-5/h4-6,8H,1-2H2/t4-,5+,6-
