18
gdb 111671	2.26293	1.65809	1.26139	3.5852	72.5	-0.2612	0.0164	0.2776	1052.4397	0.149586	-439.084755	-439.076737	-439.075792	-439.117812	30.463	
O	 0.0599723053	 1.2171644638	 0.633328062	-0.424422
C	 0.0386855246	 0.039327991	-0.155092786	-0.091746
C	-1.330863175	-0.6121806266	-0.1428593798	-0.046167
C	-1.5955853836	-2.0938397052	-0.1671454677	-0.106244
C	-0.4580254056	-3.0418708658	 0.1705229138	-0.113206
O	 0.0309071461	-2.6520556195	 1.4677209902	-0.242114
C	-0.8044432034	-1.7437626878	 2.0639521086	 0.409362
N	-0.6665327514	-1.3137146228	 3.245668118	-0.556297
C	-1.8553972913	-1.3158008265	 1.1024548402	-0.142342
H	-0.1267459462	 0.9544022702	 1.5429518278	 0.295029
H	 0.2878169899	 0.353153161	-1.1742298168	 0.10894
H	 0.8152172326	-0.6683999996	 0.1656637253	 0.105425
H	-2.0926233868	-0.0162088858	-0.6378701981	 0.106927
H	-2.4056655042	-2.4766110084	-0.7759198124	 0.105535
H	-0.8161404845	-4.0761817763	 0.2263827898	 0.122166
H	 0.3843781637	-3.0030202913	-0.5270739115	 0.123996
H	 0.1207946395	-1.7746154664	 3.7050716926	 0.225062
H	-2.8344880896	-1.075249074	 1.4922597141	 0.120096
58.255	112.4459	191.918	211.886	283.041	415.3312	437.8958	466.6298	494.7313	653.0918	693.0042	756.6548	794.5037	815.3756	867.3199	893.1565	919.1906	975.4558	988.543	1003.1695	1019.3862	1066.9912	1081.3911	1098.2194	1114.2317	1134.9113	1191.3117	1229.5633	1249.8389	1273.9232	1340.86	1350.2511	1375.7344	1409.9311	1427.8987	1448.1855	1507.4381	1521.4948	1766.7405	3013.5518	3038.2617	3072.2885	3082.0279	3152.1655	3186.3889	3218.0243	3474.1275	3784.1144
OCC1C2COC(=N)C12	OC[C@H]1[C@H]2CO[C]([NH])[C@@H]12	
InChI=1S/C6H9NO2/c7-6-5-3(1-8)4(5)2-9-6/h3-5,7-8H,1-2H2	InChI=1S/C6H9NO2/c7-6-5-3(1-8)4(5)2-9-6/h3-5,7-8H,1-2H2/t3-,4+,5-/m0/s1
