18
gdb 108943	3.37555	1.14449	0.92805	3.003	74.7	-0.2367	0.0181	0.2548	1270.6336	0.147631	-439.085734	-439.077147	-439.076202	-439.119569	31.555	
O	 0.0725623412	 1.3642905953	 0.2790923708	-0.421899
C	 0.0004942637	-0.0116122809	 0.0133218561	-0.130634
C	-1.4174640097	-0.4925459579	-0.0124941246	 0.374186
N	-2.4250407168	 0.2574630819	 0.1835017774	-0.373549
C	-3.590475615	-0.5923153386	 0.0718190484	 0.337958
C	-4.7834730403	-0.3283614932	 0.9484687776	-0.313803
C	-4.8511397046	-0.0394133314	-0.5340202023	-0.313573
C	-3.0533464785	-1.9998629744	-0.2267361794	-0.176902
O	-1.6179423682	-1.8091749278	-0.2615466542	-0.25836
H	-0.8409101721	 1.6670173702	 0.3820589075	 0.297839
H	 0.4667115927	-0.2509467043	-0.9551550056	 0.121151
H	 0.5500711739	-0.5889900767	 0.77304674	 0.12116
H	-5.3288644459	-1.1853808869	 1.3315179841	 0.114868
H	-4.7170863759	 0.5126469991	 1.6287705164	 0.129646
H	-4.8301813316	 0.9963055982	-0.8523783354	 0.129626
H	-5.4425516975	-0.699576115	-1.1609579435	 0.114858
H	-3.2828919465	-2.7329024842	 0.553143732	 0.123651
H	-3.3702871888	-2.3959351433	-1.1966444052	 0.123779
68.8289	83.1291	161.6846	166.593	277.2345	298.1234	330.29	436.4653	453.9297	512.0578	627.4761	702.3658	777.35	843.6358	861.4314	933.3799	940.4294	968.1227	1000.1517	1017.9654	1041.0104	1057.1671	1070.8585	1094.217	1112.9684	1191.6017	1210.3856	1222.1772	1243.4917	1267.2157	1316.6666	1369.5766	1393.3074	1455.6625	1478.9982	1499.6739	1506.232	1520.7725	1731.4604	2987.5101	3003.7078	3041.5333	3086.283	3128.8958	3132.3314	3217.1437	3231.092	3729.9879
OCC1=NC2(CC2)CO1	OCC1=NC2(CC2)CO1	
InChI=1S/C6H9NO2/c8-3-5-7-6(1-2-6)4-9-5/h8H,1-4H2	InChI=1S/C6H9NO2/c8-3-5-7-6(1-2-6)4-9-5/h8H,1-4H2
