14
gdb 45338	2.61171	1.84381	1.2332	4.9402	62.83	-0.2786	-0.0183	0.2603	959.5915	0.102496	-473.857421	-473.850566	-473.849621	-473.889166	25.698	
N	-0.0813599934	 1.2324357988	-0.4865939092	-0.520166
C	-0.0343561301	 0.0593029113	-0.0656120446	 0.439603
O	 1.0017668789	-0.6789048468	 0.4850509988	-0.265714
C	 0.1746976892	-1.8854445977	 0.5255363586	 0.088521
C	-0.183713717	-2.3073580258	 1.9444619768	-0.106178
O	-1.3600421503	-1.5724863197	 2.3083977751	-0.219866
C	-1.9527036699	-0.9672849299	 1.2382510406	 0.453567
O	-3.014612038	-0.4313139473	 1.3067041553	-0.319808
C	-1.0338659921	-1.0862896232	 0.0206420203	-0.325574
H	 0.8148108759	 1.7118402856	-0.3893087166	 0.2404
H	 0.6061204109	-2.6721387029	-0.0928438394	 0.116364
H	-0.4084124305	-3.3781838548	 1.9987943853	 0.129358
H	 0.6127863679	-2.0677122388	 2.6530028453	 0.146791
H	-1.5713711014	-1.3508673786	-0.8864091365	 0.142702
99.4868	149.0711	166.5423	345.4312	445.5691	460.0152	553.0743	632.8551	716.0885	720.5599	808.8008	847.727	863.9953	884.6944	922.221	976.5343	996.1032	1005.4157	1065.2679	1086.7474	1155.8684	1186.6447	1208.2101	1233.0268	1239.4391	1301.8615	1348.9213	1399.0609	1502.1529	1833.151	1900.0496	3049.3575	3113.2065	3124.0353	3161.1032	3488.3414
N=C1OC2COC(=O)C12	[NH][C]1O[C@H]2COC(=O)[C@@H]12	
InChI=1S/C5H5NO3/c6-4-3-2(9-4)1-8-5(3)7/h2-3,6H,1H2	InChI=1S/C5H5NO3/c6-4-3-2(9-4)1-8-5(3)7/h2-3,6H,1H2/t2-,3+/m0/s1
