16
gdb 29597	3.29402	1.26035	0.97204	2.2183	76.77	-0.1883	0.0396	0.2279	1175.1228	0.124038	-400.744784	-400.73626	-400.735316	-400.777874	32.586	
O	-0.5073954552	 1.2197257808	 0.1970564188	-0.45551
C	-0.190605609	-0.1009597343	 0.0801798886	 0.234646
C	 0.0177055422	-0.7555807638	-1.1115014842	-0.164725
N	 0.3474118586	-2.0589667479	-0.8037327571	-0.244036
C	 0.3372734271	-2.239494636	 0.5496763032	-0.168997
C	 0.0148511289	-1.0362576352	 1.1414130088	 0.155222
C	-0.0592440672	-0.742247858	 2.6180368878	-0.473097
C	-1.2072656534	 0.0925799015	 2.9808919985	 0.281273
C	-2.139531245	 0.8078329971	 3.2416742322	-0.443943
H	-0.9498910506	 1.347074972	 1.0470389204	 0.294138
H	-0.0441747269	-0.4037808238	-2.126932153	 0.119806
H	 0.5464333638	-2.7736954532	-1.479498304	 0.262094
H	 0.5626528063	-3.1971067676	 0.9915843737	 0.116682
H	-0.1068890652	-1.6824749013	 3.1802081668	 0.139314
H	 0.8536319272	-0.2336849235	 2.961383659	 0.143985
H	-2.9726476315	 1.4156452432	 3.4959688205	 0.203146
62.5002	119.9326	231.641	254.8989	318.3505	337.914	391.4394	410.0049	447.9751	465.6974	621.8111	625.8437	631.6099	648.8998	677.3922	714.7981	742.0991	762.9132	901.2487	935.6545	950.9621	1076.5491	1119.8934	1183.1644	1218.1305	1239.8646	1287.9319	1339.0451	1362.7338	1442.2055	1462.6647	1482.6564	1567.0407	1653.9398	2226.4897	2996.9523	3051.5206	3257.0413	3280.9981	3501.7013	3700.6458	3741.7972
OC1=CNC=C1CC#C	Oc1c[nH]cc1CC#C	
InChI=1S/C7H7NO/c1-2-3-6-4-8-5-7(6)9/h1,4-5,8-9H,3H2	InChI=1S/C7H7NO/c1-2-3-6-4-8-5-7(6)9/h1,4-5,8-9H,3H2
