17
gdb 73064	2.87799	1.23646	1.13506	4.8614	69.46	-0.2522	0.0102	0.2625	1142.1382	0.134176	-458.93879	-458.930301	-458.929357	-458.972209	30.929	
C	 0.0519971941	 1.4128375883	-0.1553717211	-0.489992
C	 0.2258964269	-0.0616802549	 0.0062445862	 0.404876
O	-0.8199203812	-0.9096285012	-0.4695074453	-0.313448
C	-0.6360950895	-1.8114582662	 0.6593136518	-0.093073
C	 0.5466722752	-1.0008857867	 1.1733836994	-0.232193
C	 1.5212170299	-0.8256739357	 0.0419430794	 0.038552
O	 1.7984118686	-1.9165583109	-0.804518157	-0.196121
C	 1.5835241217	-1.7399842464	-2.1320772891	 0.186073
O	 1.7889927298	-2.6045214067	-2.9270711317	-0.275917
H	 0.9049285253	 1.9512384445	 0.2670890567	 0.130093
H	-0.0244860844	 1.6735196211	-1.2169673921	 0.140435
H	-0.860256223	 1.7530504898	 0.3435888662	 0.137881
H	-1.5098755304	-1.7774345014	 1.3163895925	 0.11875
H	-0.4363406597	-2.8381695806	 0.3391383892	 0.131556
H	 0.7999106623	-0.8146307558	 2.2084176123	 0.109431
H	 2.4035239998	-0.2398708879	 0.2875720715	 0.114804
H	 1.2177211146	-0.7273026394	-2.3734047088	 0.088293
77.4211	124.4972	177.9194	195.8745	242.4588	250.6125	318.3818	353.0746	482.7435	557.6867	634.2416	754.6561	781.6373	809.8689	900.1286	933.9781	975.5592	992.9289	994.7803	1039.9711	1056.1013	1100.8942	1110.0712	1127.7225	1163.8382	1183.2882	1207.5638	1273.6464	1326.5027	1342.8987	1409.2836	1415.8177	1463.7825	1473.6535	1498.0535	1512.1561	1870.5094	2995.4594	3036.1518	3050.9242	3102.3801	3106.3683	3121.2056	3145.0369	3204.7484
CC12OCC1C2OC=O	C[C@]12OC[C@H]1[C@H]2OC=O	
InChI=1S/C6H8O3/c1-6-4(2-9-6)5(6)8-3-7/h3-5H,2H2,1H3	InChI=1S/C6H8O3/c1-6-4(2-9-6)5(6)8-3-7/h3-5H,2H2,1H3/t4-,5+,6-/m0/s1
