21
gdb 91711	2.53398	1.50626	1.41232	3.0933	80.91	-0.2296	-0.0065	0.2231	1063.8597	0.185244	-387.139226	-387.131525	-387.130581	-387.171202	31.469	
C	-0.2384763058	 1.5527866995	-0.0085033013	-0.422335
C	 0.0353985484	 0.0491504079	 0.0021736977	 0.058968
C	 0.7719899024	-0.4867311923	-1.2719223462	-0.245796
C	 1.93065649	-1.3568751277	-0.6964734875	-0.108524
C	 1.3024138378	-1.8866004059	 0.6119801797	-0.243167
C	 0.9307741797	-0.4849124177	 1.1539240292	-0.02816
C	 2.3080582797	 0.2104441441	 1.136749385	-0.332962
C	 2.9438667401	-0.3524564847	-0.1489433487	 0.425207
O	 4.007428536	-0.0467692736	-0.621576901	-0.335344
H	 0.6742408866	 2.1371122828	-0.1639394402	 0.121224
H	-0.9290898404	 1.8128577045	-0.8176458489	 0.117152
H	-0.6924496918	 1.8818201598	 0.9327162696	 0.113376
H	-0.9302155713	-0.4630836678	 0.0871862754	 0.07289
H	 0.1129925921	-1.1023247312	-1.8906170057	 0.105166
H	 1.1476049013	 0.3221624963	-1.9062637718	 0.112849
H	 2.362148857	-2.0695162772	-1.3980321221	 0.077645
H	 0.4308209586	-2.5246183941	 0.438356544	 0.099089
H	 2.0124062436	-2.4253778092	 1.2474041803	 0.099828
H	 0.4397010083	-0.4675269654	 2.1289330798	 0.062664
H	 2.2938928576	 1.302587608	 1.1296657258	 0.124541
H	 2.9173585401	-0.0975724862	 1.9948880367	 0.125687
87.4995	180.0097	247.1104	291.6664	355.3773	416.3808	460.1977	473.8829	498.5531	596.0483	689.1852	721.2181	788.4837	797.5546	870.2858	903.5154	920.2105	933.9219	940.5803	951.6344	983.7186	1009.5575	1063.3443	1063.8893	1097.7975	1127.0387	1136.826	1167.6497	1184.3469	1207.8558	1250.6419	1264.3553	1284.2747	1302.7159	1318.4212	1331.2986	1359.4193	1380.1467	1414.4821	1452.3591	1494.1271	1499.7221	1506.4336	1511.3935	1853.5682	3024.7926	3030.7726	3046.1225	3049.5889	3052.0867	3091.7552	3092.1842	3095.9782	3098.4902	3101.4897	3111.1358	3129.4701
CC1CC2CC1CC2=O	C[C@H]1C[C@@H]2C[C@H]1CC2=O	
InChI=1S/C8H12O/c1-5-2-7-3-6(5)4-8(7)9/h5-7H,2-4H2,1H3	InChI=1S/C8H12O/c1-5-2-7-3-6(5)4-8(7)9/h5-7H,2-4H2,1H3/t5-,6-,7+/m0/s1
