17
gdb 83147	2.15936	1.77755	1.38635	1.7323	68.69	-0.2354	-0.0221	0.2133	996.2129	0.135593	-458.97423	-458.966066	-458.965121	-459.006606	31.686	
O	 0.0237368245	 1.3949480031	 0.1872616481	-0.411813
C	-0.0038274317	 0.0082586771	 0.0170506406	 0.02007
C	-1.3196007819	-0.695341046	 0.0315576735	-0.159911
C	-2.5632455975	 0.1634053066	-0.2268951015	-0.223795
C	-2.3187567494	 0.8962135525	-1.567373264	-0.328854
C	-1.2413572548	 0.0773330604	-2.2579536729	 0.348496
O	-1.059943289	-0.0686540124	-3.4478456775	-0.358679
C	-0.4634759842	-0.6950763391	-1.2489339413	 0.272622
O	 0.2693061628	-1.7593406049	-1.7380053083	-0.475054
H	 0.8100289327	 1.7369986461	-0.2520171897	 0.295253
H	 0.8154077581	-0.5333212625	 0.4914342725	 0.11145
H	-1.4142928902	-1.5903658021	 0.6362221596	 0.108812
H	-3.4356460737	-0.4915298771	-0.3113842145	 0.11436
H	-2.7504088637	 0.8579048848	 0.5962637642	 0.121328
H	-3.2050482214	 0.9701599223	-2.2003198996	 0.127858
H	-1.9300907055	 1.9064509883	-1.40413154	 0.143133
H	 0.176727415	-1.6974107772	-2.7023686893	 0.294725
99.3015	185.9446	219.802	248.9122	290.5463	340.5648	369.3931	414.951	478.9545	535.6284	577.9708	635.7982	668.9072	688.9821	797.8399	845.1064	888.7252	928.7173	956.5526	1025.7276	1059.003	1067.7753	1088.0289	1126.0389	1184.3865	1218.9822	1237.4322	1251.2694	1291.1135	1328.9161	1336.1023	1363.0142	1414.5499	1447.406	1473.5497	1501.9554	1804.2908	3057.2803	3065.9942	3098.4912	3103.2803	3124.6779	3178.1309	3694.1107	3804.4912
OC1C2CCC(=O)C12O	O[C@H]1[C@H]2CCC(=O)[C@@]12O	
InChI=1S/C6H8O3/c7-4-2-1-3-5(8)6(3,4)9/h3,5,8-9H,1-2H2	InChI=1S/C6H8O3/c7-4-2-1-3-5(8)6(3,4)9/h3,5,8-9H,1-2H2/t3-,5+,6-/m1/s1
