17
gdb 24629	4.27364	1.32997	1.10345	0.9309	81.86	-0.1984	0.0415	0.2399	1090.957	0.138701	-380.83936	-380.832215	-380.831271	-380.871185	28.055	
C	 0.1357738479	 1.5432911474	-0.0538154124	-0.299991
N	 1.3244643812	 0.6653109771	-0.010796473	-0.358106
C	-0.0060094993	 0.0732880836	 0.0122841691	 0.153551
C	-0.5226985738	-0.8480706883	 1.1626844642	-0.234196
N	-1.0665161278	-1.6936293327	 0.082258847	 0.00064
C	-1.8343577549	-2.7202233666	-0.3821684055	-0.157283
C	-1.863241654	-2.5656018704	-1.7622228176	-0.120987
C	-1.1174951841	-1.4012194791	-2.1306738718	-0.360426
C	-0.6439798008	-0.8941392732	-0.9396817241	 0.321753
H	-0.0118023523	 2.1518017812	 0.8345913364	 0.122733
H	-0.1295917957	 2.0312387156	-0.9882330165	 0.121528
H	 1.7366288691	 0.5666065985	-0.9353338858	 0.239796
H	 0.2602863576	-1.3263555059	 1.7566559957	 0.134397
H	-1.2872246179	-0.4142687745	 1.8136791766	 0.127926
H	-2.2693270752	-3.470611353	 0.2572062314	 0.119808
H	-2.3657469077	-3.232960994	-2.4470595868	 0.093867
H	-0.9709110723	-1.0210437556	-3.129050527	 0.094991
76.962	138.1634	233.1487	295.0742	438.5271	512.6364	518.3766	601.2339	691.7832	704.9774	735.4692	759.8009	808.2653	824.1454	850.1217	904.2818	948.8367	969.8814	1002.554	1024.4273	1052.293	1067.942	1093.0282	1132.3786	1140.3354	1222.0461	1245.3755	1253.3704	1261.811	1291.2686	1386.294	1412.9816	1464.4975	1468.054	1513.6502	1515.2227	1587.6281	3054.3202	3104.5667	3113.1092	3190.4171	3237.3947	3259.1729	3272.6933	3504.0343
C1NC11CN2C=CC=C12	C1N[C@]21Cn1cccc21	
InChI=1S/C7H8N2/c1-2-6-7(4-8-7)5-9(6)3-1/h1-3,8H,4-5H2	InChI=1S/C7H8N2/c1-2-6-7(4-8-7)5-9(6)3-1/h1-3,8H,4-5H2/t7-/m1/s1
