23
gdb 101585	3.72604	0.71926	0.67056	3.4278	83.32	-0.2373	-0.0066	0.2307	1809.7262	0.202184	-425.457697	-425.446234	-425.44529	-425.495517	40.392	
C	-0.4365676028	 1.5453298538	 0.4427570453	-0.381787
C	 0.0782902223	 0.1472918708	 0.0905971422	-0.197116
C	 0.759133681	-0.5568716169	 1.2692749263	 0.147219
O	-0.1165611311	-0.6718569336	 2.3916597256	-0.431997
C	 1.3364185718	-1.9324905671	 0.8742662834	-0.3112
C	 2.1792781005	-2.5103601341	 2.0095741105	 0.39338
O	 3.3138510345	-2.1264118863	 2.1860535379	-0.315004
C	 1.5125180331	-3.531780069	 2.9130729342	-0.284698
C	 2.4071846518	-4.0352360091	 4.0413715721	-0.37708
H	 0.3900688349	 2.2074472561	 0.7217373985	 0.12087
H	-0.9579356066	 1.9988394426	-0.4052620169	 0.112269
H	-1.1258299333	 1.5041711876	 1.2901868947	 0.125538
H	-0.7519787056	-0.483036951	-0.2628444701	 0.085531
H	 0.789350517	 0.2056721484	-0.7421303883	 0.104154
H	 1.5885518717	 0.0629375018	 1.630361827	 0.111516
H	-0.9257345042	-1.0991289685	 2.0871806498	 0.277631
H	 0.5149176972	-2.6059230331	 0.5995005087	 0.087145
H	 1.9894551519	-1.8087449961	 0.0048588623	 0.121773
H	 0.6042557882	-3.0483471533	 3.2987018373	 0.13092
H	 1.1553950074	-4.3589449756	 2.2828885309	 0.112897
H	 3.3052413024	-4.5151350051	 3.6434406455	 0.127817
H	 2.7364597526	-3.2069037179	 4.6736800034	 0.133622
H	 1.8758510753	-4.7587609343	 4.6661401599	 0.106599
36.1742	62.834	71.8105	114.7585	135.9868	197.7907	215.4614	244.0629	250.8861	311.0197	325.3451	413.9972	446.0976	462.1336	561.3128	637.9782	761.9307	777.0152	811.0397	864.6923	922.0613	969.9575	996.2318	1008.0583	1042.1825	1065.5868	1091.2994	1108.0301	1123.0194	1144.4606	1218.5543	1263.2891	1267.511	1290.3101	1337.5096	1354.9772	1375.1678	1379.3367	1407.617	1413.6451	1423.4966	1452.5173	1466.343	1482.5665	1493.0698	1495.4972	1497.7907	1508.2288	1804.4255	2995.8942	3013.1474	3028.9773	3040.2017	3047.2446	3048.5666	3050.4552	3059.1102	3096.1131	3106.3179	3120.2676	3121.708	3126.7115	3788.9085
CCC(O)CC(=O)CC	CC[C@@H](O)CC(=O)CC	
InChI=1S/C7H14O2/c1-3-6(8)5-7(9)4-2/h6,8H,3-5H2,1-2H3	InChI=1S/C7H14O2/c1-3-6(8)5-7(9)4-2/h6,8H,3-5H2,1-2H3/t6-/m1/s1
