16
gdb 74768	4.17496	1.14514	1.06585	5.132	74.92	-0.251	-0.0249	0.2261	1148.4242	0.124314	-400.716499	-400.70882	-400.707876	-400.748699	29.173	
C	 0.024126582	 1.4592046599	 0.0596396405	-0.518055
C	-0.0008690746	-0.0252175318	-0.0212051872	 0.351257
C	-0.0182681413	-0.8884213614	-1.0424912599	-0.210612
C	-0.0360892223	-2.2389342024	-0.3138799866	 0.026022
O	-0.9963203178	-1.9942109722	 0.7638491111	-0.273588
C	-0.0114290852	-1.0010768888	 1.1786512585	-0.03459
C	 1.1085148914	-2.0192553792	 0.7463748607	-0.166142
C	 1.3294987511	-3.1242985873	 1.667388089	 0.278023
N	 1.5405210537	-3.9983247164	 2.3939253396	-0.318595
H	 0.9115989922	 1.8150974027	 0.5978783348	 0.136302
H	 0.0268081115	 1.9127417264	-0.9348693668	 0.136786
H	-0.8470323852	 1.8401210927	 0.6068881963	 0.142579
H	-0.0151968463	-0.7227682911	-2.1094544647	 0.119324
H	-0.175272137	-3.1747588532	-0.8503786006	 0.105949
H	-0.1229716516	-0.6369308272	 2.1985639583	 0.102409
H	 2.0557633694	-1.6121221406	 0.388422407	 0.12293
122.9598	143.2737	167.3309	212.8683	300.0306	413.5817	471.0886	518.7596	564.1539	590.2966	674.3606	782.2212	810.3461	851.0111	863.9157	908.1824	923.1713	932.8234	1012.287	1025.3606	1061.6729	1065.6004	1132.3923	1169.6957	1196.9864	1217.0786	1232.0239	1290.0521	1295.3287	1339.9891	1415.2476	1477.5483	1483.7408	1687.9143	2355.9706	3021.1541	3068.6194	3102.1092	3115.6265	3146.1193	3157.8459	3246.7124
CC1=CC2OC1C2C#N	CC1=C[C@@H]2O[C@H]1[C@H]2C#N	
InChI=1S/C7H7NO/c1-4-2-6-5(3-8)7(4)9-6/h2,5-7H,1H3	InChI=1S/C7H7NO/c1-4-2-6-5(3-8)7(4)9-6/h2,5-7H,1H3/t5-,6-,7+/m0/s1
