17
gdb 97527	2.53666	0.78733	0.63678	0.9453	88.85	-0.2532	0.0324	0.2857	1775.2307	0.131613	-347.44837	-347.437858	-347.436914	-347.48542	36.903	
C	-0.5324852861	 1.4035838556	 0.1222068144	-0.366577
C	 0.3605371017	 0.1829464594	-0.1646366888	-0.315983
C	 1.0113975702	-0.3450072182	 1.0295828347	 0.098192
C	 1.5416134469	-0.7683123788	 2.022557675	 0.089554
C	 2.1868184507	-1.2827594108	 3.2416959144	-0.535181
C	 1.8862196323	-2.7088269338	 3.4568863209	 0.351875
C	 1.6312002937	-3.8652064054	 3.6496536507	-0.442522
C	 3.639543038	-1.0380245727	 3.2341637848	 0.351997
C	 4.8203403584	-0.8258518964	 3.2446167671	-0.44283
H	 0.052249555	 2.2202119739	 0.5541075342	 0.129881
H	-0.9949180422	 1.7617359133	-0.8022018428	 0.116417
H	-1.3269794423	 1.1471019737	 0.8281804192	 0.129374
H	-0.2381625416	-0.6112576954	-0.6284568371	 0.133723
H	 1.1271241997	 0.4522009571	-0.9023069379	 0.133866
H	 1.7694225031	-0.7304580566	 4.0990534201	 0.163864
H	 1.4097117743	-4.8910788817	 3.8117944236	 0.202182
H	 5.8665282184	-0.6434798731	 3.2458681474	 0.202167
22.4381	75.5206	88.7237	121.347	168.2005	201.0439	281.1504	300.5497	328.8695	376.3949	480.5316	531.1093	548.7844	557.688	638.2562	638.6942	653.1375	654.9777	776.3203	785.8891	886.2198	980.9273	1023.9344	1079.8204	1104.7299	1165.9052	1277.9292	1278.8388	1286.3223	1350.9195	1410.0114	1474.0187	1495.0925	1505.6127	2245.6872	2250.823	2376.5527	2975.3587	3023.4134	3045.5039	3051.3755	3119.2085	3124.4484	3504.0315	3504.9282
CCC#CC(C#C)C#C	CCC#CC(C#C)C#C	
InChI=1S/C9H8/c1-4-7-8-9(5-2)6-3/h2-3,9H,4H2,1H3	InChI=1S/C9H8/c1-4-7-8-9(5-2)6-3/h2-3,9H,4H2,1H3
