14
gdb 20408	4.8988	2.13188	1.52513	1.8443	63.06	-0.2049	0.0036	0.2085	777.7902	0.111965	-374.897228	-374.891167	-374.890223	-374.927264	23.221	
C	 0.0235305855	 1.4175311661	 0.0996185401	-0.168066
C	 1.496700444	 1.9293162062	-0.0788593011	-0.345127
C	 2.2371946977	 0.6305283776	-0.0009706493	 0.29716
N	 3.4685046895	 0.1548164934	 0.1007381984	-0.308251
N	 3.2671448548	-1.1654890546	 0.0354559493	-0.113672
N	 1.9859960979	-1.5914682796	-0.0920621604	-0.341129
C	 1.3419487507	-0.4368640001	-0.1234445772	 0.363775
N	 0.0298658592	-0.0183752867	-0.3077819212	-0.39827
H	-0.2721416714	 1.5216157221	 1.1526511825	 0.109073
H	-0.6868696195	 1.9801232102	-0.510588333	 0.1169
H	 1.6283241161	 2.4087780304	-1.0560831745	 0.129641
H	 1.7627147055	 2.6620472286	 0.6865737327	 0.126838
H	 4.0219890683	-1.8188720476	 0.1533963574	 0.286423
H	-0.6935065383	-0.5840320758	 0.1146969763	 0.244706
159.221	242.8806	293.3684	347.6865	473.1776	550.2563	659.3194	677.1676	724.0648	752.6895	826.165	861.5254	934.4372	980.6605	1025.2128	1074.9372	1135.174	1152.3154	1184.222	1203.3442	1243.4791	1299.2324	1321.0681	1388.4774	1447.1384	1472.6075	1489.8173	1515.1247	1562.8654	1633.7213	3006.6118	3037.4367	3092.5692	3102.0089	3584.2899	3692.8938
C1CC2=NNN=C2N1	C1Cc2n[nH]nc2N1	
InChI=1S/C4H6N4/c1-2-5-4-3(1)6-8-7-4/h1-2H2,(H2,5,6,7,8)	InChI=1S/C4H6N4/c1-2-5-4-3(1)6-8-7-4/h1-2H2,(H2,5,6,7,8)
