19
gdb 97997	9.18662	0.41648	0.40275	3.3084	83.8	-0.2525	-0.0284	0.224	2640.5729	0.154771	-422.993263	-422.982165	-422.981221	-423.032478	36.164	
C	 0.013517168	 1.5576606443	 0.0076917316	-0.366165
C	-0.0051974923	 0.0208550512	-0.0916299891	-0.316405
C	-1.3547459957	-0.532245897	-0.0576895574	 0.170564
C	-2.4750771446	-0.9712653439	-0.0265754348	-0.027992
C	-3.8368018366	-1.482917467	 0.0068114375	-0.208083
O	-3.8245980085	-2.8965296321	 0.1402428009	-0.245166
C	-5.1140455708	-3.4503633679	 0.1780883917	-0.132887
C	-4.9746664972	-4.9571534855	 0.3137421064	 0.139679
O	-5.9108697855	-5.7078350233	 0.3796600739	-0.238292
H	 1.0426377282	 1.927033089	-0.0218697044	 0.117779
H	-0.5383472578	 2.0075458578	-0.821940912	 0.129258
H	-0.446910428	 1.8926646493	 0.9409628546	 0.129589
H	 0.49487475	-0.2932102214	-1.0165108706	 0.13211
H	 0.5819194306	-0.4068360069	 0.7308440938	 0.133441
H	-4.3919915005	-1.0305922657	 0.8465199911	 0.118509
H	-4.3730062295	-1.1970872043	-0.9144634269	 0.118429
H	-5.7068228623	-3.0711777974	 1.0284447488	 0.122136
H	-5.6900732463	-3.2293869079	-0.7372925056	 0.121994
H	-3.9189628512	-5.3044832611	 0.3461305206	 0.101501
21.7022	47.755	55.5631	85.2631	90.9271	142.2575	181.1524	212.5954	263.6148	365.9095	384.9766	446.4086	525.745	581.7829	743.3821	772.6959	788.1485	966.3351	1000.9912	1028.8415	1075.8831	1079.1622	1106.0528	1116.3098	1149.5161	1178.507	1232.7469	1258.1182	1285.2902	1341.1176	1350.2038	1397.176	1409.1891	1429.0084	1478.0365	1480.5363	1495.2129	1506.316	1507.248	1845.0257	2375.0252	2905.155	2949.5736	2958.8475	2968.9537	2985.2159	3023.5678	3046.2672	3051.7563	3120.4536	3125.2755
CCC#CCOCC=O	CCC#CCOCC=O	
InChI=1S/C7H10O2/c1-2-3-4-6-9-7-5-8/h5H,2,6-7H2,1H3	InChI=1S/C7H10O2/c1-2-3-4-6-9-7-5-8/h5H,2,6-7H2,1H3
