17
gdb 79656	2.71709	1.53255	1.19395	4.8002	77.56	-0.2416	-0.0063	0.2353	1065.7392	0.13591	-380.785931	-380.77798	-380.777036	-380.818295	30.624	
C	-0.046138371	 1.6078586542	-0.0237714768	-0.444596
C	 0.0772494263	 0.0939328536	 0.09586594	-0.014562
N	 1.1729766462	-0.7848198002	-0.3556414993	-0.17984
C	 2.5513849628	-0.3263803995	 0.0830245869	-0.002499
C	 2.7030070328	 0.901532668	 0.9435121934	-0.309509
C	 2.2025516155	-0.3765796555	 1.5488963983	-0.113663
C	 0.7672088262	-0.7555093169	 1.1183143952	 0.118601
C	 0.1022260829	-1.8635243457	 1.7383348534	 0.239364
N	-0.4329966808	-2.7354414045	 2.2797030337	-0.339442
H	 0.6878601335	 2.0185328148	-0.7206048012	 0.148369
H	-1.0378466269	 1.8470092712	-0.4156234837	 0.132141
H	 0.0570134967	 2.1178089535	 0.9366452943	 0.145889
H	-0.8438694566	-0.4030257138	-0.206364198	 0.12868
H	 3.3770872646	-0.7699309051	-0.4561489797	 0.118852
H	 3.7457230644	 1.0904381876	 1.1863217448	 0.128913
H	 2.1156970768	 1.8009298272	 0.857914866	 0.125267
H	 2.6959963465	-0.8988674289	 2.3562458526	 0.118034
113.18	136.8867	163.71	245.8366	289.2184	395.6586	421.2363	483.687	543.6469	566.1271	646.2586	697.4907	735.5745	754.4311	842.3257	877.1262	929.1887	945.8303	964.3944	1032.8089	1056.2052	1069.0501	1077.9664	1104.7034	1109.2044	1143.2734	1184.6802	1211.343	1289.3301	1319.2953	1353.1776	1409.0412	1448.7633	1482.802	1502.1322	1511.2746	2342.2147	3053.5037	3107.6089	3127.1324	3131.277	3143.5183	3206.3208	3219.4532	3269.8207
CC1N2C3CC3C12C#N	C[C@H]1N2[C@H]3C[C@H]3[C@@]12C#N	
InChI=1S/C7H8N2/c1-4-7(3-8)5-2-6(5)9(4)7/h4-6H,2H2,1H3	InChI=1S/C7H8N2/c1-4-7(3-8)5-2-6(5)9(4)7/h4-6H,2H2,1H3/t4-,5-,6+,7-,9?/m1/s1
