19
gdb 74445	2.85251	1.54061	1.29691	2.3717	76.14	-0.2345	0.0104	0.245	1049.8691	0.159819	-423.02737	-423.019435	-423.018491	-423.05924	31.934	
C	-0.0215008235	 1.5022293987	 0.0544475794	-0.514228
C	-0.0743509363	 0.0146089745	-0.0374290066	 0.361875
C	-0.0155659442	-0.7897558352	-1.1073759084	-0.29401
C	 0.0818282795	-2.223213493	-0.6036658147	 0.350085
O	-0.1048023359	-3.2686733929	-1.5139137066	-0.494766
C	 1.4684819847	-2.327001164	 0.0962525397	-0.084351
O	 1.3457042343	-1.4576837888	 1.2246526932	-0.278494
C	-0.013404063	-0.9223616303	 1.1689989209	-0.000926
C	-0.8082393866	-2.1325708395	 0.6710911418	-0.284192
H	 0.8859764262	 1.8249771834	 0.5802133054	 0.140502
H	-0.0244520405	 1.9688870951	-0.934569699	 0.124984
H	-0.8713405938	 1.899763515	 0.6235489478	 0.125509
H	 0.1044110644	-0.5083124448	-2.1475870866	 0.096074
H	-0.9498534125	-3.1339639414	-1.9549452984	 0.279612
H	 1.6550375435	-3.3565369672	 0.4259078048	 0.104357
H	 2.2875164713	-2.0017662864	-0.5542636886	 0.098874
H	-0.2409090146	-0.4980797103	 2.1462346832	 0.072125
H	-1.8522818756	-1.9117982694	 0.440934271	 0.093519
H	-0.7274992474	-3.0034009636	 1.3270739416	 0.103452
153.655	179.8627	245.3881	270.1848	295.5986	327.0122	406.1377	457.1787	497.8993	553.9003	569.9504	641.78	717.5178	817.82	826.689	859.0259	886.8283	941.0346	955.551	973.2302	1021.396	1028.7595	1053.2309	1069.522	1107.2752	1127.7557	1149.223	1207.5403	1220.9007	1251.9396	1286.4258	1288.7658	1333.8151	1357.6902	1378.2223	1410.6617	1479.0038	1485.5558	1487.5119	1523.8704	1689.9522	3018.0824	3022.01	3065.4564	3066.3596	3070.5384	3108.5536	3128.276	3129.7548	3193.8282	3814.4403
CC1=CC2(O)COC1C2	CC1=C[C@@]2(O)CO[C@@H]1C2	
InChI=1S/C7H10O2/c1-5-2-7(8)3-6(5)9-4-7/h2,6,8H,3-4H2,1H3	InChI=1S/C7H10O2/c1-5-2-7(8)3-6(5)9-4-7/h2,6,8H,3-4H2,1H3/t6-,7+/m1/s1
