14
gdb 35025	3.10859	1.30843	1.11148	2.387	72.13	-0.2852	-0.0335	0.2518	1071.1235	0.101797	-395.701773	-395.694158	-395.693214	-395.734077	27.995	
N	 0.0078465551	-1.1700728705	 0.049044627	-0.328672
C	 0.034547804	-0.0144211214	 0.0228325238	 0.321471
C	 0.0691227153	 1.4266981439	 0.0046142451	-0.201471
N	 0.4697031922	 2.2301013357	 1.1798780447	-0.155786
C	 1.5295574495	 1.4410597213	 1.9201759927	-0.165891
C	 2.4811292004	 1.435712849	 0.6964195599	-0.314579
C	 1.3653518806	 2.1718170154	-0.0515007052	 0.194646
C	 1.5509325209	 3.2722400658	-0.950463093	 0.220316
N	 1.728658603	 4.1453932913	-1.687558596	-0.321747
H	-0.7601120331	 1.8843841618	-0.5263724183	 0.167401
H	 1.8882299434	 2.0413045488	 2.7556051023	 0.140301
H	 1.1740973419	 0.4754146015	 2.2847933805	 0.149633
H	 3.3628842052	 2.0599119352	 0.8379619839	 0.147121
H	 2.7771831716	 0.4730116022	 0.2763825825	 0.147256
111.2107	138.4717	178.363	198.4751	322.0638	382.7585	493.7515	517.4844	547.4126	582.3415	628.0285	778.5737	788.7839	801.7077	866.6149	964.271	976.1811	1003.0971	1075.409	1098.1183	1172.8863	1218.4245	1219.4786	1260.7596	1288.5138	1311.2101	1404.287	1486.7875	1507.2526	2353.2994	2357.0882	3087.3052	3091.2905	3143.5979	3158.8156	3169.7963
N#CC1N2CCC12C#N	N#C[C@H]1N2CC[C@@]12C#N	
InChI=1S/C6H5N3/c7-3-5-6(4-8)1-2-9(5)6/h5H,1-2H2	InChI=1S/C6H5N3/c7-3-5-6(4-8)1-2-9(5)6/h5H,1-2H2/t5-,6-,9?/m1/s1
