25
gdb 116189	2.10362	1.33226	1.02689	1.3011	87.83	-0.2558	0.0696	0.3254	1339.089	0.228697	-389.517749	-389.507413	-389.506468	-389.552668	39.591	
C	-0.1976148788	 1.7020378577	-0.3566468346	-0.389832
C	-0.2235515586	 0.1736605021	-0.2458271959	-0.206132
C	 0.7761598332	-0.5196809128	-1.1738385459	 0.061532
C	 2.2671489916	-0.3107315671	-0.832271858	-0.227059
C	 3.0205509529	-1.5380760513	-1.4281422106	-0.21836
C	 1.9250470313	-2.4448137523	-2.03208758	-0.251946
C	 0.6232804835	-2.0550648306	-1.2976995356	 0.35885
C	 0.5014033202	-2.7759440724	 0.0509498127	-0.437805
O	-0.5451796683	-2.2978116376	-2.0806189439	-0.483654
H	 0.7802170894	 2.1100777282	-0.0793875763	 0.11427
H	-0.4128855081	 2.0264419215	-1.3810116167	 0.114213
H	-0.9443912585	 2.1592066457	 0.300253064	 0.108531
H	-0.0252863287	-0.1147654618	 0.7947864537	 0.08782
H	-1.2286691248	-0.1921572729	-0.4876014121	 0.107242
H	 0.597495881	-0.1462636719	-2.1920803358	 0.074852
H	 2.6442677592	 0.6357867985	-1.2279045256	 0.099
H	 2.4023434762	-0.2654392295	 0.254890699	 0.093363
H	 3.7545804931	-1.2430938306	-2.1825864965	 0.099144
H	 3.5766681285	-2.0640766828	-0.6463287866	 0.098092
H	 1.7785667907	-2.2241058953	-3.0945522619	 0.101883
H	 2.1577636806	-3.5118310809	-1.9473882149	 0.080085
H	 1.3557528998	-2.5715284727	 0.7039539888	 0.118511
H	-0.4110370306	-2.4784364392	 0.5733569721	 0.124864
H	 0.4657532958	-3.861314374	-0.1051010173	 0.100649
H	-0.6998001906	-3.2479234279	-2.0990196822	 0.271886
76.9973	94.9507	133.2724	180.4662	221.0445	247.5695	277.3764	289.9131	310.4122	345.643	395.4329	483.4808	509.6776	560.2018	625.3719	726.0377	775.059	802.6517	842.1721	912.661	925.0235	939.3443	962.6394	984.5329	1022.8709	1026.3227	1046.2952	1073.3652	1101.9277	1134.0215	1169.3775	1199.4337	1216.2879	1234.5631	1253.2437	1283.8128	1304.9826	1320.5901	1328.537	1337.8856	1362.9248	1384.3744	1401.5654	1408.9337	1412.4537	1484.4948	1487.3756	1489.5331	1499.6202	1500.5684	1504.6551	1508.0144	1517.757	3002.8851	3018.5692	3026.1761	3029.911	3034.7516	3038.951	3055.8507	3057.6881	3074.1401	3085.0822	3090.8855	3097.1401	3100.1391	3103.1968	3122.7194	3810.4547
CCC1CCCC1(C)O	CC[C@H]1CCC[C@]1(C)O	
InChI=1S/C8H16O/c1-3-7-5-4-6-8(7,2)9/h7,9H,3-6H2,1-2H3	InChI=1S/C8H16O/c1-3-7-5-4-6-8(7,2)9/h7,9H,3-6H2,1-2H3/t7-,8-/m0/s1
