20
gdb 12278	2.90929	1.56696	1.27361	2.7841	70.48	-0.2436	0.07	0.3136	1052.2952	0.176228	-386.125976	-386.117001	-386.116057	-386.159749	32.966	
C	 0.4737461026	 1.3417172514	-0.3806522894	-0.400634
C	 0.1081863211	-0.0664288321	 0.0507953704	 0.152903
O	 0.7897008317	-1.0782573518	-0.7375181719	-0.32801
C	 1.4258743659	-1.6487300085	 0.435973515	 0.115815
C	 2.9369875352	-1.5861456943	 0.2690851057	-0.06786
O	 3.3114521395	-2.2649530968	-0.9148764403	-0.423857
C	 0.691262021	-0.6524173608	 1.3709630083	-0.079807
C	 1.4853872244	 0.2388728578	 2.3190945417	-0.415551
H	 1.5509139242	 1.5195388172	-0.3209867462	 0.119784
H	 0.1627562978	 1.5001019426	-1.4181597674	 0.127934
H	-0.0382344116	 2.0828142219	 0.2428535354	 0.116772
H	-0.9786128302	-0.2000984734	-0.0322772972	 0.076976
H	 1.1275235369	-2.6980044912	 0.5578797373	 0.080598
H	 3.276000309	-0.5390171664	 0.2489209016	 0.080122
H	 3.4404354786	-2.086971399	 1.1037027269	 0.104555
H	 2.7432688195	-1.9056120782	-1.6082691231	 0.292131
H	-0.0881721354	-1.1638905211	 1.9418513934	 0.08281
H	 2.2774427091	 0.7979788238	 1.8150478161	 0.123971
H	 0.8261936156	 0.9655076518	 2.80568427	 0.119455
H	 1.9522648152	-0.3577457528	 3.1098938036	 0.121894
48.3865	110.2863	171.7765	210.2569	217.6982	268.0766	287.3452	386.8288	449.1277	477.6887	492.8351	508.4982	743.5916	772.0126	832.7693	889.9388	937.8932	1000.7927	1003.3301	1036.8751	1044.998	1081.452	1092.0783	1152.7751	1167.0965	1183.0527	1215.8503	1254.0193	1290.3691	1319.3475	1346.7108	1378.4674	1381.1747	1402.7187	1412.8429	1421.1903	1439.5926	1481.9977	1489.0136	1499.1028	1502.6164	1509.1817	2983.5316	3007.6059	3020.6038	3036.1249	3039.8386	3066.7448	3070.0054	3096.9879	3105.9022	3115.9043	3124.0668	3776.1815
CC1OC(CO)C1C	C[C@H]1O[C@@H](CO)[C@H]1C	
InChI=1S/C6H12O2/c1-4-5(2)8-6(4)3-7/h4-7H,3H2,1-2H3	InChI=1S/C6H12O2/c1-4-5(2)8-6(4)3-7/h4-7H,3H2,1-2H3/t4-,5+,6-/m0/s1
