19
gdb 82784	3.10731	1.90049	1.77456	0.6343	76.99	-0.2003	0.0724	0.2728	876.1816	0.162419	-381.9975	-381.991006	-381.990062	-382.027983	27.501	
C	-0.2890349939	 1.5058682484	 0.0018359837	-0.336582
N	 0.0684888317	 0.1017303717	 0.0094350734	-0.063358
C	 1.0592423884	-0.4615177579	-0.9547427634	-0.037433
C	 2.2869213093	 0.4370569967	-1.1204928407	-0.167723
N	 3.0502620629	 0.3329661059	 0.1378069045	-0.109661
C	 2.9151029111	-1.0182794333	 0.6506025822	-0.076631
C	 2.272708646	 0.1302751922	 1.3776539884	-0.069671
C	 0.8463336646	-0.4612560243	 1.1124013005	-0.020572
C	 1.5167528301	-1.4784202656	 0.1604344475	-0.074094
H	 0.5512707868	 2.1999616919	 0.1739726812	 0.104211
H	-0.7518561228	 1.7642447488	-0.9567389502	 0.11942
H	-1.0321945779	 1.6852967732	 0.7871452258	 0.119274
H	 0.6224196156	-0.8238924137	-1.8899732539	 0.068966
H	 2.9364542958	 0.0814294937	-1.9286015077	 0.103717
H	 2.0328436048	 1.4797346196	-1.3301041013	 0.10924
H	 3.7877469798	-1.6192633512	 0.8755277262	 0.091614
H	 2.6020445202	 0.6759654545	 2.2553172232	 0.090624
H	 0.3038593739	-0.7422671154	 2.0195605517	 0.070227
H	 1.2248183737	-2.522037785	 0.103464949	 0.078431
162.9992	214.6572	296.4734	394.4204	472.1952	575.1545	603.1187	670.2737	725.559	759.03	790.1416	819.5107	853.6382	862.2089	892.4229	918.1423	943.3672	965.3973	983.7196	1008.7226	1039.3613	1054.1608	1071.3019	1113.4539	1153.8973	1174.4929	1196.216	1200.4246	1226.818	1235.3201	1244.173	1250.8756	1275.4862	1295.9623	1320.0824	1330.54	1366.3684	1448.6264	1483.9021	1493.6337	1519.6408	2960.8812	3039.9043	3051.9921	3061.3548	3066.2399	3091.6315	3095.1028	3163.0529	3169.6658	3188.0898
CN1C2CN3C4C3C1C24	CN1[C@H]2CN3[C@H]4[C@@H]3[C@@H]1[C@@H]24	
InChI=1S/C7H10N2/c1-8-3-2-9-6-4(3)5(8)7(6)9/h3-7H,2H2,1H3	InChI=1S/C7H10N2/c1-8-3-2-9-6-4(3)5(8)7(6)9/h3-7H,2H2,1H3/t3-,4+,5-,6+,7-,9?/m0/s1
