20
gdb 121617	3.21325	0.78403	0.71866	1.0023	72.6	-0.2488	0.007	0.2558	1645.9574	0.1691	-477.446817	-477.435991	-477.435047	-477.484253	37.522	
C	-0.1187336309	 1.443358075	-0.2222775425	-0.375703
C	-0.0708851433	-0.080146121	-0.0229097819	-0.08602
N	 0.7899171191	-0.4119376434	 1.1044272106	-0.494087
C	-1.4978818872	-0.617007263	 0.1328581546	 0.430214
O	-1.9885184638	-0.9828151781	 1.17084748	-0.359235
O	-2.1594651349	-0.6105290875	-1.0446329692	-0.262165
C	-3.5269323196	-1.073323935	-1.0152103204	-0.076632
C	-4.0486557295	-0.9487349223	-2.4349862209	-0.069207
O	-3.3272196915	-1.7575563512	-3.3421517406	-0.417415
H	 0.8965430605	 1.8212843367	-0.359587545	 0.134728
H	-0.7256410948	 1.7083289829	-1.0911681328	 0.12603
H	-0.5483356915	 1.9314199593	 0.6595797698	 0.123902
H	 0.3516142946	-0.5322793185	-0.9275692618	 0.101771
H	 0.3184538244	-0.1291845891	 1.9611160775	 0.235482
H	 0.8766872928	-1.4221291192	 1.1782712675	 0.231682
H	-3.5432580888	-2.1132171378	-0.6761795173	 0.129904
H	-4.1053824141	-0.4666575761	-0.3113523776	 0.121736
H	-5.0889097793	-1.2890737062	-2.4631359934	 0.118241
H	-4.0348608504	 0.1108357297	-2.7357012149	 0.096855
H	-2.4016013715	-1.5025782852	-3.2620779015	 0.289917
30.2302	55.1031	79.6846	120.6483	182.7583	209.0754	235.572	262.4168	298.6108	322.4893	363.6858	397.7281	470.2841	511.7371	672.7809	757.381	843.1159	873.3622	909.3518	922.1434	950.9262	1016.5863	1030.7759	1086.9797	1097.2398	1125.844	1168.5596	1197.0109	1233.7582	1263.6234	1281.121	1329.9434	1386.995	1394.3529	1396.6674	1414.6085	1434.1682	1490.1279	1495.2386	1498.2412	1498.9794	1673.11	1818.5878	2985.9001	3041.2648	3049.73	3054.637	3083.0531	3109.3371	3115.958	3139.8801	3481.9034	3552.0144	3811.1098
CC(N)C(=O)OCCO	C[C@@H](N)C(=O)OCCO	
InChI=1S/C5H11NO3/c1-4(6)5(8)9-3-2-7/h4,7H,2-3,6H2,1H3	InChI=1S/C5H11NO3/c1-4(6)5(8)9-3-2-7/h4,7H,2-3,6H2,1H3/t4-/m1/s1
