17
gdb 30793	2.34062	1.36073	0.90972	2.1364	73.06	-0.2041	0.0231	0.2272	1267.355	0.135945	-455.184059	-455.174814	-455.173869	-455.218353	33.411	
C	-0.1464363931	 1.5747949817	 0.198152803	-0.494309
C	-0.0477038392	 0.0972275854	 0.0284006596	 0.178745
C	 0.0228500796	-0.6377330409	-1.1069355332	 0.225918
C	 0.063245287	-0.3716554329	-2.5649022974	-0.187449
O	 1.3425742769	-0.5847186683	-3.1617987239	-0.411683
O	 0.1044427312	-1.9809657903	-0.7214757402	-0.229219
C	 0.0768002853	-1.9371055892	 0.6253208589	 0.442878
N	 0.0802219483	-3.1408437964	 1.282412507	-0.588601
N	-0.0131663642	-0.7508956265	 1.1406354525	-0.383739
H	 0.6923666238	 1.9502542221	 0.7938650585	 0.138961
H	-0.1407829368	 2.0907123125	-0.7648690443	 0.124593
H	-1.0651272746	 1.8441392272	 0.7304577023	 0.137387
H	-0.7040713923	-0.972638433	-3.0778276729	 0.102063
H	-0.1783039968	 0.6805665472	-2.736470785	 0.125374
H	 1.5889968391	-1.4981876087	-2.9839489543	 0.284265
H	 0.5624090664	-3.8873161035	 0.8042355253	 0.263043
H	 0.3266450495	-3.0562775364	 2.2572435742	 0.271773
59.4783	121.6525	143.4568	206.3187	232.8234	264.258	292.7835	316.5988	339.8562	452.1149	505.9072	582.2226	631.4316	645.455	718.5274	758.1616	830.0582	931.7425	988.0262	1019.2106	1030.2937	1064.8635	1104.1311	1138.2677	1224.2169	1246.7469	1321.5142	1369.5735	1416.375	1418.3715	1446.6338	1472.4347	1483.6073	1492.3099	1603.545	1680.2722	1698.1111	2980.8695	3037.2859	3091.3654	3100.6623	3125.1121	3579.0027	3688.208	3818.9355
CC1=C(CO)OC(N)=N1	Cc1c(CO)oc(N)n1	
InChI=1S/C5H8N2O2/c1-3-4(2-8)9-5(6)7-3/h8H,2H2,1H3,(H2,6,7)	InChI=1S/C5H8N2O2/c1-3-4(2-8)9-5(6)7-3/h8H,2H2,1H3,(H2,6,7)
