23
gdb 59434	2.56487	1.07062	0.94237	2.4691	87.38	-0.2398	-0.0105	0.2293	1417.1115	0.203136	-388.315371	-388.304703	-388.303758	-388.35135	38.996	
C	 0.1370181204	 1.4918107329	 0.1102937847	-0.388705
C	-0.2366098707	 0.0113014919	-0.0619359285	 0.014045
C	-1.746918313	-0.1569373411	-0.2772091417	-0.389149
C	 0.5490462809	-0.5880337188	-1.2153431091	 0.028787
C	 1.9473483659	-1.0784336561	-1.0600116282	-0.305495
C	 0.8484887344	-2.0916460009	-1.3389835353	-0.144732
C	 0.4592828581	-3.0414109602	-0.2563182238	 0.391635
C	-0.194074911	-4.3338033992	-0.7143439483	-0.48571
O	 0.6508254026	-2.8103095306	 0.9214034816	-0.327782
H	 1.209818748	 1.6122849507	 0.2900011113	 0.115
H	-0.1194055433	 2.0724107616	-0.7844788525	 0.106185
H	-0.3996264067	 1.9335859642	 0.9562094207	 0.110616
H	 0.0425624229	-0.5236649762	 0.8506166673	 0.111239
H	-2.0737168414	 0.3440042926	-1.1969908418	 0.105775
H	-2.0242115391	-1.2130028686	-0.3553580504	 0.109658
H	-2.3124104261	 0.2761353027	 0.5542249659	 0.112207
H	 0.3163717107	-0.1334289614	-2.177477741	 0.085549
H	 2.6727449067	-0.895061476	-1.8446997968	 0.113118
H	 2.3482446828	-1.1176861926	-0.0522093671	 0.137272
H	 0.7848841259	-2.4942393238	-2.3445828327	 0.08302
H	 0.4974579247	-4.8994723402	-1.3498362145	 0.139204
H	-0.4731834578	-4.9370686498	 0.1500450125	 0.139432
H	-1.0800024849	-4.1201410314	-1.3231206321	 0.13883
56.5762	66.296	128.0321	139.093	184.2291	221.1448	236.0509	254.7157	321.4954	332.479	360.6362	460.2565	475.3758	599.0318	640.3999	752.0016	762.252	849.7082	886.3035	919.1162	935.7291	947.5546	970.6084	985.3106	1014.7098	1048.9954	1079.7475	1119.7418	1132.2951	1143.5317	1184.8092	1186.625	1207.654	1246.8365	1319.6483	1363.3358	1374.9393	1398.9611	1405.6911	1418.3066	1432.7068	1463.7041	1474.4997	1478.5932	1486.0393	1491.7259	1502.7855	1509.5089	1782.7205	3021.5685	3025.4743	3032.7088	3066.7576	3085.9422	3092.2756	3096.5651	3101.6408	3104.9816	3115.886	3131.8337	3152.6803	3160.9223	3224.4374
CC(C)C1CC1C(C)=O	CC(C)[C@H]1C[C@H]1C(=O)C	
InChI=1S/C8H14O/c1-5(2)7-4-8(7)6(3)9/h5,7-8H,4H2,1-3H3	InChI=1S/C8H14O/c1-5(2)7-4-8(7)6(3)9/h5,7-8H,4H2,1-3H3/t7-,8+/m1/s1
