13
gdb 15500	3.87373	1.99669	1.32849	6.4455	62.18	-0.2501	-0.0559	0.1942	848.8313	0.096204	-398.66107	-398.654296	-398.653352	-398.692332	24.248	
O	-0.1796727774	 0.0205604904	 0.0019853315	-0.268144
C	-0.0271819226	 1.2114159102	 0.0097430766	 0.164352
N	 1.1844576971	 1.8867142358	 0.0022467979	-0.143987
C	 1.2488277278	 3.3436552094	 0.0129565584	-0.226414
C	 2.7250421649	 3.6148981701	-0.0007728861	-0.082131
C	 3.4156416215	 2.4750560989	-0.0171424365	-0.174797
C	 2.490041267	 1.3116832639	-0.0161099256	 0.424139
O	 2.7547975206	 0.1397914732	-0.0283627578	-0.32997
H	-0.8726315599	 1.9315017678	 0.0241905866	 0.077667
H	 0.7482505841	 3.7780865323	-0.8630017103	 0.143941
H	 0.7672294481	 3.7642461628	 0.9061384043	 0.143934
H	 3.1207940044	 4.6219817489	 0.0028101449	 0.133396
H	 4.4872373744	 2.3381288762	-0.0298043739	 0.138016
91.2305	203.4698	211.8107	222.1163	362.2133	473.2881	487.915	676.7128	707.4346	770.5166	801.5145	829.508	978.0259	979.2298	1014.9447	1036.5213	1086.256	1145.1299	1199.6669	1210.9905	1273.4796	1358.2364	1381.1757	1455.9083	1492.1977	1664.2343	1801.0328	1875.8377	2906.5378	3012.797	3041.2861	3223.2779	3254.1853
O=CN1CC=CC1=O	O=CN1CC=CC1=O	
InChI=1S/C5H5NO2/c7-4-6-3-1-2-5(6)8/h1-2,4H,3H2	InChI=1S/C5H5NO2/c7-4-6-3-1-2-5(6)8/h1-2,4H,3H2
