23
gdb 73020	2.7461	1.18095	1.01148	0.2542	90.72	-0.2379	0.0922	0.3301	1323.2024	0.206217	-351.117312	-351.108352	-351.107408	-351.151147	35.094	
C	-0.0029572586	 1.5388285595	 0.0366691362	-0.496658
C	-0.0265416023	 0.0370809996	 0.0001014211	 0.335729
C	-0.8591774489	-0.7815893878	-1.0029741554	-0.286462
C	-1.196118997	-1.8100013616	 0.1241194287	-0.22742
C	-0.3533468651	-0.9868961274	 1.1046843805	-0.124722
C	 1.0613640358	-0.8173049029	 0.6035404556	-0.05443
C	 1.8630418918	-1.8632755067	-0.1079890871	 0.011421
C	 3.3035836815	-1.5885352528	-0.4699078676	-0.271815
C	 2.9760652596	-2.5794127286	 0.6194859486	-0.269967
H	 0.5540719159	 1.9498066174	-0.8148731005	 0.117656
H	-1.0162691349	 1.9566632636	-0.0012194034	 0.11169
H	 0.475951764	 1.9076373398	 0.9501204316	 0.113882
H	-1.746869604	-0.2392512006	-1.3391115636	 0.096816
H	-0.3333364464	-1.1549318375	-1.8881469405	 0.092511
H	-2.2590334259	-1.807186181	 0.3753269902	 0.098764
H	-0.8862981224	-2.8480508384	-0.0357812244	 0.095044
H	-0.6061501695	-0.810292006	 2.1448370854	 0.074196
H	 1.6660343183	-0.2452738226	 1.3079839913	 0.07105
H	 1.3120550206	-2.4664183235	-0.8215286368	 0.082366
H	 3.682107876	-1.9644870914	-1.4142268981	 0.107406
H	 3.7235188563	-0.6320057577	-0.1751780418	 0.107727
H	 3.1746114116	-2.2883419514	 1.6460815432	 0.107981
H	 3.1295031035	-3.6347847121	 0.422197677	 0.107235
49.5972	138.2576	168.6844	206.2324	225.161	287.2944	328.9014	345.9901	476.7925	502.9187	614.4586	750.7378	759.5465	790.3113	809.6753	829.5453	860.0226	903.828	926.0729	947.4774	952.5384	961.2151	982.5904	1010.3259	1057.2338	1060.0703	1073.8127	1089.1178	1118.7193	1134.3977	1142.402	1186.3771	1198.2638	1221.4847	1230.1679	1237.1416	1246.6929	1266.7854	1303.6162	1323.4717	1382.749	1415.1635	1469.5389	1482.5719	1483.4087	1486.9995	1498.1054	1506.9142	1513.722	3013.8209	3040.1516	3048.235	3069.8132	3086.4754	3088.7038	3102.5738	3106.8125	3125.6927	3130.4152	3161.9248	3165.2016	3202.9524	3218.987
CC12CCC1C2C1CC1	C[C@]12CC[C@H]1[C@H]2C1CC1	
InChI=1S/C9H14/c1-9-5-4-7(9)8(9)6-2-3-6/h6-8H,2-5H2,1H3	InChI=1S/C9H14/c1-9-5-4-7(9)8(9)6-2-3-6/h6-8H,2-5H2,1H3/t7-,8+,9-/m0/s1
