19
gdb 84102	2.62741	1.59999	1.13883	2.1995	77.22	-0.2281	0.0191	0.2472	1120.8773	0.159289	-419.216327	-419.207556	-419.206612	-419.249085	33.997	
C	-0.0185659532	 1.5860468184	 0.0532257844	-0.384856
C	 0.0544929037	 0.0596364211	-0.0131165151	 0.017606
N	 0.7949036779	-0.3857170736	-1.2091507587	-0.311396
C	 1.7087256471	-1.208985552	-0.8531345489	 0.331657
N	 2.4976397262	-1.9091866114	-1.7349857974	-0.578199
C	 1.8313320481	-1.4356107376	 0.6380958	 0.320568
C	 2.4020769701	-2.6852335921	 1.2427281433	-0.502001
O	 2.1443369801	-0.1813893432	 1.2876862338	-0.292146
C	 0.7688492224	-0.5767033138	 1.1780648566	-0.042808
H	 0.9841321211	 2.0004637008	 0.1859502942	 0.130973
H	-0.4391545701	 1.9812203133	-0.8746485119	 0.123942
H	-0.6466486403	 1.9131098607	 0.8884096829	 0.105563
H	-0.966708832	-0.3451424367	-0.0670181022	 0.07857
H	 2.445111457	-1.5737850486	-2.6870782268	 0.258069
H	 3.4359440965	-2.1202207073	-1.4301261948	 0.253734
H	 3.469255299	-2.78537401	 1.0124406593	 0.122485
H	 2.2998492528	-2.6598000371	 2.3300543877	 0.137698
H	 1.8907766144	-3.5726284188	 0.8573774671	 0.137353
H	 0.2630563893	-0.7765981021	 2.1196272465	 0.093188
140.4737	163.5653	191.3682	233.493	239.1116	272.7191	297.942	412.6171	430.9303	471.5048	540.2332	561.1502	624.1868	681.3585	713.7034	761.7085	825.0981	862.6939	891.0581	925.6888	999.8922	1026.3246	1063.1368	1103.3438	1110.2555	1138.0868	1179.916	1206.0923	1287.5248	1313.9095	1341.4112	1398.7861	1409.6409	1419.3712	1448.5739	1484.0135	1488.0126	1495.4772	1501.5392	1626.7577	1714.1997	2998.5764	3034.3223	3042.316	3097.1183	3114.6345	3129.401	3131.2269	3142.9753	3560.7342	3671.5273
CC1N=C(N)C2(C)OC12	C[C@H]1N=C(N)[C@@]2(C)O[C@@H]12	
InChI=1S/C6H10N2O/c1-3-4-6(2,9-4)5(7)8-3/h3-4H,1-2H3,(H2,7,8)	InChI=1S/C6H10N2O/c1-3-4-6(2,9-4)5(7)8-3/h3-4H,1-2H3,(H2,7,8)/t3-,4+,6+/m1/s1
