21
gdb 109153	3.672	1.02774	0.98389	1.568	80.12	-0.2138	0.0632	0.277	1337.7899	0.182441	-420.435257	-420.425654	-420.42471	-420.469388	35.892	
C	 0.0107322328	 1.3225381974	-0.2477100302	-0.232323
O	-0.05184123	-0.0818139355	 0.0137381549	-0.264357
C	-1.2851807335	-0.5819000265	 0.1257300672	 0.479352
N	-2.3802347043	 0.06712103	 0.0134602813	-0.373284
C	-3.4354272461	-0.9282850882	 0.2349416984	-0.191055
C	-2.751025748	-2.3357197853	 0.1530332872	 0.284939
C	-3.2625076798	-3.3122519884	 1.2120102796	-0.426123
C	-2.8810261007	-2.9296618182	-1.257850941	-0.424219
N	-1.3513249963	-1.9349696527	 0.4258346245	-0.38825
H	 1.0719807835	 1.5647317898	-0.3150101662	 0.126767
H	-0.4995122155	 1.5635292471	-1.1842400648	 0.138412
H	-0.4621157677	 1.8854612961	 0.5613060218	 0.140908
H	-3.8890348172	-0.7767015665	 1.224276155	 0.097573
H	-4.2354373191	-0.8250029829	-0.5063486057	 0.098864
H	-4.3308540336	-3.5080828965	 1.0700706301	 0.115541
H	-2.7384565501	-4.2728523586	 1.1553516192	 0.108815
H	-3.1143852786	-2.902469491	 2.2145125381	 0.12213
H	-2.5478993782	-2.2093893093	-2.0116854905	 0.125723
H	-2.2812000683	-3.8416661097	-1.3602988507	 0.107521
H	-3.922314081	-3.1908390295	-1.4737619376	 0.118938
H	-0.6132754784	-2.5119930217	 0.0439245693	 0.234129
75.2755	128.5298	153.221	210.0771	234.0371	240.3423	275.5594	310.6645	345.0298	378.0464	450.7611	509.2145	568.7963	646.1866	708.623	748.065	829.6234	908.7834	925.68	958.1301	975.1173	998.0552	1036.6351	1051.1479	1103.6319	1169.348	1183.3806	1218.3697	1218.7899	1232.8319	1263.7519	1309.1316	1356.0335	1398.2122	1417.6747	1440.4875	1475.9353	1481.3866	1485.4998	1493.514	1501.2872	1502.8063	1505.8545	1511.4736	1715.9604	3005.1416	3024.4091	3032.392	3047.312	3056.8131	3091.0213	3097.2313	3107.3775	3118.47	3121.1015	3151.7357	3578.4687
COC1=NCC(C)(C)N1	CO[C]1[N]CC(C)(C)N1	
InChI=1S/C6H12N2O/c1-6(2)4-7-5(8-6)9-3/h4H2,1-3H3,(H,7,8)	InChI=1S/C6H12N2O/c1-6(2)4-7-5(8-6)9-3/h4H2,1-3H3,(H,7,8)
