16
gdb 53279	2.48884	1.04489	0.87251	3.3721	74.4	-0.2474	0.003	0.2504	1374.5528	0.121745	-437.872833	-437.862962	-437.862018	-437.909844	33.851	
C	 0.2931386788	 1.5038310299	-0.5295639235	-0.502044
C	 0.1445739939	 0.0875185813	-0.2348896325	 0.115599
C	 0.011762982	-1.0852172237	 0.0052229258	 0.085861
C	-0.0814228589	-2.4900872083	 0.2839105315	-0.160128
O	-0.9692586764	-2.9207315959	 1.3360039713	-0.248684
C	-1.2907319161	-3.3059880077	 0.00147684	-0.030305
C	-2.5269289777	-2.7174784012	-0.6420189059	 0.365034
N	-3.1697897936	-1.803208109	 0.1241656923	-0.519463
O	-2.8793366873	-3.0805776353	-1.7472323292	-0.364015
H	 1.3023795915	 1.7253937126	-0.8926496223	 0.157791
H	-0.4178288483	 1.8263922092	-1.2976762755	 0.157875
H	 0.1207194771	 2.1124851822	 0.3647553249	 0.155676
H	 0.8673113632	-3.0260943242	 0.2820550816	 0.125162
H	-1.1430414322	-4.3568577565	-0.240970621	 0.123995
H	-2.790676304	-1.5412305894	 1.0185093136	 0.273803
H	-3.9656579821	-1.3194216941	-0.255560681	 0.263842
15.7561	57.2348	75.5059	133.1886	193.7745	249.673	280.8194	334.8706	340.5066	470.2089	485.2635	507.3876	576.4163	621.2007	727.5474	756.7156	848.2626	888.5836	937.424	1050.4719	1051.6786	1064.4026	1094.1587	1118.5372	1176.0986	1267.3669	1340.6459	1390.9857	1413.0311	1427.2191	1474.1125	1475.9999	1600.6538	1807.0006	2371.0615	3030.6442	3093.4389	3095.471	3112.9516	3139.3902	3602.1238	3742.3037
CC#CC1OC1C(N)=O	CC#C[C@H]1O[C@H]1C(=O)N	
InChI=1S/C6H7NO2/c1-2-3-4-5(9-4)6(7)8/h4-5H,1H3,(H2,7,8)	InChI=1S/C6H7NO2/c1-2-3-4-5(9-4)6(7)8/h4-5H,1H3,(H2,7,8)/t4-,5-/m1/s1
