22
gdb 60562	2.85857	1.08788	0.90987	1.843	82.85	-0.2261	0.0767	0.3028	1366.5095	0.1929	-404.295981	-404.286299	-404.285355	-404.330561	36.67	
C	-0.0275875775	 1.5428149482	 0.3081470283	-0.396681
C	 0.0223106414	 0.0461836715	-0.0104687581	 0.037093
C	 0.7757748652	-0.2109838124	-1.3023822662	 0.004713
C	 0.4263569451	-1.3816088591	-2.2028853204	-0.344573
C	 0.1301464689	 0.0333590192	-2.6332889291	 0.083524
O	-1.1920826068	 0.4974965814	-2.6166334775	-0.417278
N	 0.7064249193	-0.6554074011	 1.0817917644	-0.060908
C	-0.0980763811	-0.9727124977	 2.2552039901	-0.224871
C	 0.3332250204	-2.0445087038	 1.3157770185	-0.219141
H	 0.9851260129	 1.9485867946	 0.3979343699	 0.115935
H	-0.5557810186	 2.0763760618	-0.4856613863	 0.133125
H	-0.5475137831	 1.7225699875	 1.2544516875	 0.107296
H	-1.0122378249	-0.3204760076	-0.1271371692	 0.059619
H	 1.8296881764	 0.0445950692	-1.2342428289	 0.093375
H	 1.2223223047	-1.9296984477	-2.6953347653	 0.109779
H	-0.4307352299	-1.9826176965	-1.9161610017	 0.10984
H	 0.7490069607	 0.465419011	-3.4197085341	 0.084957
H	-1.6601083376	 0.0887366043	-3.3519204945	 0.288136
H	 0.3901362071	-0.844743015	 3.2173406269	 0.112427
H	-1.1531257855	-0.7011210883	 2.2411075942	 0.106959
H	-0.436941556	-2.4832311391	 0.6836422939	 0.10513
H	 1.1446409888	-2.7188769006	 1.5749681277	 0.111544
64.0523	100.4448	133.8547	198.5475	230.9288	247.8818	296.131	323.526	339.5259	423.4933	433.4839	516.2991	582.137	756.7764	773.8488	835.4144	839.2047	858.0641	913.0577	960.7336	978.8602	1005.6276	1018.4351	1029.2187	1058.2694	1093.6022	1112.0134	1115.9662	1126.5536	1135.2434	1171.4967	1177.9648	1192.8298	1211.1989	1237.6718	1291.7994	1315.6952	1317.637	1356.7645	1399.4017	1409.1131	1429.0012	1485.1248	1492.7839	1495.5	1500.0385	1520.9509	2949.8961	3038.9801	3089.0488	3095.933	3098.9186	3105.984	3127.4057	3129.3424	3148.3712	3172.149	3187.3415	3215.9118	3807.7164
CC(C1CC1O)N1CC1	C[C@@H]([C@H]1C[C@H]1O)N1CC1	
InChI=1S/C7H13NO/c1-5(8-2-3-8)6-4-7(6)9/h5-7,9H,2-4H2,1H3	InChI=1S/C7H13NO/c1-5(8-2-3-8)6-4-7(6)9/h5-7,9H,2-4H2,1H3/t5-,6+,7+/m0/s1
