14
gdb 28645	5.8525	1.02953	0.88028	4.8761	80.14	-0.2723	-0.0823	0.1899	1242.3167	0.102293	-395.796663	-395.788954	-395.78801	-395.829675	27.456	
C	-0.0492399333	 1.507770032	 0.0036119819	-0.474484
C	-0.0086935041	 0.0075617855	 0.0160788428	 0.326824
N	-0.2752011329	-0.6312327288	-1.130533832	-0.289195
C	-0.2374683597	-1.9591036743	-1.1119966224	-0.046638
C	 0.067478534	-2.6714543792	 0.0536509973	 0.198391
N	 0.3361076449	-2.0466944221	 1.2074436734	-0.290169
C	 0.2954145558	-0.7202910819	 1.1767468993	-0.06086
C	 0.0986606143	-4.1075274441	 0.03462173	 0.241589
N	 0.1131755606	-5.2627124778	-0.0235841506	-0.317555
H	 0.1824433967	 1.925727172	 0.9856751241	 0.133012
H	 0.6676737635	 1.8995009128	-0.7247708231	 0.155126
H	-1.0400224938	 1.8568478114	-0.3037302339	 0.155126
H	-0.4529265388	-2.4818382679	-2.0396133097	 0.142535
H	 0.5122595719	-0.2054407474	 2.1091830606	 0.126298
53.9743	93.0151	154.2239	251.4629	345.5854	414.0196	446.0161	456.4021	566.2143	595.015	663.8271	705.893	795.3272	869.3534	933.1433	978.6607	1008.4575	1046.2132	1061.7795	1235.1888	1244.5936	1276.3214	1332.6898	1349.5213	1411.3072	1473.105	1482.9797	1508.0976	1565.1178	1607.1757	2351.6612	3045.356	3107.0023	3133.4645	3164.3036	3174.8989
CC1=NC=C(N=C1)C#N	Cc1ncc(nc1)C#N	
InChI=1S/C6H5N3/c1-5-3-9-6(2-7)4-8-5/h3-4H,1H3	InChI=1S/C6H5N3/c1-5-3-9-6(2-7)4-8-5/h3-4H,1H3
