12
gdb 130895	7.38074	0.87014	0.77838	0.9757	72.47	-0.2701	-0.0741	0.196	1316.9324	0.079198	-431.706184	-431.698839	-431.697895	-431.738541	25.887	
O	-0.017560529	-0.0503635771	-0.0037267033	-0.244416
C	 0.0192506159	 1.1533714205	 0.006139537	 0.098763
C	 1.2524904178	 1.9665277816	-0.0001256618	 0.250337
N	 2.4751943482	 1.4114689417	-0.0178564363	-0.228265
N	 3.3120693494	 2.4363007216	-0.0181253561	-0.251089
C	 2.6839117236	 3.653755798	-0.0011726212	 0.314103
C	 1.3291862297	 3.3766325406	 0.0111924415	-0.384695
C	 3.3988937681	 4.8739703739	 0.001467854	 0.23323
N	 3.9982747851	 5.8644905355	 0.0034226125	-0.323192
H	-0.9084525391	 1.7672503737	 0.0209035461	 0.082774
H	 4.3072017195	 2.2681727888	-0.0302569496	 0.302458
H	 0.5236211208	 4.0921627612	 0.0259803171	 0.149992
84.1694	131.0655	176.9991	231.712	291.0893	424.9021	507.8288	561.3548	608.1497	632.5881	688.3696	718.9217	793.3839	858.5717	1008.2878	1034.7886	1039.9196	1145.3339	1247.3548	1283.3429	1394.6349	1421.5769	1438.51	1480.0112	1583.1132	1819.5797	2351.8208	2888.8283	3279.4781	3638.0137
O=CC1=NNC(=C1)C#N	O=Cc1n[nH]c(c1)C#N	
InChI=1S/C5H3N3O/c6-2-4-1-5(3-9)8-7-4/h1,3H,(H,7,8)	InChI=1S/C5H3N3O/c6-2-4-1-5(3-9)8-7-4/h1,3H,(H,7,8)
