21
gdb 117332	4.2273	0.6665	0.6248	0.5963	76.48	-0.2664	0.0186	0.2851	1856.6997	0.179056	-461.405979	-461.394847	-461.393903	-461.443659	38.489	
C	-0.2327212336	 1.5234206096	 0.0850679377	-0.392603
C	-0.0087522983	 0.0201890008	 0.0155405582	 0.146975
C	 0.7291334691	-0.5411472447	 1.2264682711	-0.396509
O	-1.330876473	-0.5788657415	-0.0712481081	-0.261339
C	-1.4235704626	-1.7824634228	-0.6661651876	 0.444447
O	-0.4847473591	-2.3911142733	-1.122511413	-0.367249
C	-2.8581658979	-2.2607861254	-0.6883071372	-0.309266
C	-3.00356932	-3.6303473114	-1.335964412	-0.068442
O	-4.3833941307	-3.9625639359	-1.2960059148	-0.423755
H	 0.7284312626	 2.0447338613	 0.1212696313	 0.120091
H	-0.7836874941	 1.8755466857	-0.7911165827	 0.124109
H	-0.8028190103	 1.7901414953	 0.9804901135	 0.125362
H	 0.5311909529	-0.248633705	-0.8967180574	 0.108568
H	 0.8692622905	-1.6193279322	 1.1241627459	 0.140566
H	 1.7152041251	-0.0742702625	 1.3141190626	 0.118546
H	 0.1700772288	-0.3392862376	 2.1458253265	 0.120413
H	-3.2417338559	-2.2828446439	 0.3376805037	 0.138917
H	-3.4703646301	-1.5234193584	-1.2193949406	 0.139293
H	-2.6216408437	-3.5941189616	-2.3660083493	 0.10263
H	-2.3913304176	-4.3634377969	-0.7916160074	 0.101505
H	-4.4932076321	-4.8266926497	-1.7027761302	 0.287741
36.9831	58.2339	74.5719	113.0046	128.3945	211.8987	233.4798	263.8923	269.7894	285.3549	374.2463	406.4299	434.5287	483.552	595.5537	725.7095	808.7182	829.1211	909.9129	934.0584	949.8392	969.4038	1043.1606	1074.96	1090.6395	1140.5583	1161.9782	1202.4346	1205.0669	1210.0244	1263.911	1301.3947	1348.6208	1368.2295	1394.1404	1402.1334	1418.2661	1457.4326	1471.4013	1481.204	1485.9576	1495.7161	1511.0483	1524.3147	1801.9439	2996.4108	3026.0137	3040.3239	3044.5017	3053.4602	3073.8466	3090.7542	3109.627	3120.1221	3121.6756	3134.3594	3834.1154
CC(C)OC(=O)CCO	CC(C)OC(=O)CCO	
InChI=1S/C6H12O3/c1-5(2)9-6(8)3-4-7/h5,7H,3-4H2,1-2H3	InChI=1S/C6H12O3/c1-5(2)9-6(8)3-4-7/h5,7H,3-4H2,1-2H3
