15
gdb 29843	4.03697	1.10997	0.87542	3.2307	78.98	-0.2012	0.0061	0.2073	1258.9755	0.11219	-416.819954	-416.811223	-416.810278	-416.854349	31.577	
C	-0.0190405969	 1.4881893244	 0.0116464945	-0.348197
N	 0.0134210593	 0.0387113724	-0.0179231241	-0.045081
C	 0.0007721765	-0.7785813649	-1.1359835686	-0.222499
C	 0.0490462167	-2.0674894788	-0.6659768586	 0.135946
N	 0.0907110176	-2.0663273497	 0.7291174915	-0.427681
C	 0.0681044191	-0.8040072513	 1.050451369	 0.429503
O	 0.0929797946	-0.2947692394	 2.2940632234	-0.434921
C	 0.0563199353	-3.2577912915	-1.4290046431	 0.24352
C	 0.062111893	-4.2668467779	-2.0862698476	-0.426303
H	 0.8640475017	 1.9068265522	-0.4808160331	 0.145905
H	-0.9163903539	 1.8637225899	-0.4890757772	 0.145921
H	-0.0315938767	 1.8139436132	 1.0514755542	 0.168192
H	-0.0404175191	-0.3771126472	-2.1340535045	 0.134394
H	 0.1275850523	-1.051321512	 2.8930027254	 0.317447
H	 0.0672949004	-5.1589158394	-2.6613767814	 0.183854
23.7648	118.4569	143.2537	191.3518	285.1722	311.48	400.1043	424.1285	465.5716	533.061	543.1082	592.929	658.9439	667.8354	668.1265	731.4036	737.1421	834.2395	1004.2194	1074.3955	1153.9408	1171.7424	1195.7388	1271.4329	1320.7915	1375.1186	1454.6848	1490.7868	1509.1721	1551.2668	1589.7881	1615.6833	2234.4908	3043.547	3102.9678	3161.4393	3282.3684	3506.1488	3806.1331
CN1C=C(N=C1O)C#C	Cn1cc(nc1O)C#C	
InChI=1S/C6H6N2O/c1-3-5-4-8(2)6(9)7-5/h1,4H,2H3,(H,7,9)	InChI=1S/C6H6N2O/c1-3-5-4-8(2)6(9)7-5/h1,4H,2H3,(H,7,9)
