13
gdb 128608	2.28993	1.594	0.9455	6.2177	67.44	-0.2613	-0.0611	0.2002	1145.0875	0.089249	-452.72697	-452.719195	-452.71825	-452.759828	27.473	
C	 0.0556278304	 1.3312069548	 0.0073530939	-0.262434
O	 0.0053684384	-0.0913631719	 0.0029714856	-0.249877
C	-1.2212459211	-0.6235497705	 0.0105324199	 0.174557
C	-2.4687033991	-0.0738612739	 0.0221207963	-0.066461
O	-3.3915466036	-1.063285665	 0.0257408887	-0.149937
N	-2.7763684752	-2.2834406228	 0.0166425018	-0.17777
C	-1.4799467484	-2.030616461	 0.0074992248	 0.20226
C	-0.5199268925	-3.0794279129	-0.0036558377	 0.264033
N	 0.2886358487	-3.9056392956	-0.0128500817	-0.327682
H	 1.1110875579	 1.6017885205	 0.0000318764	 0.157047
H	-0.437061558	 1.7409586055	-0.8832437003	 0.135155
H	-0.4230846181	 1.7349543799	 0.908256201	 0.135154
H	-2.8491229294	 0.9327440029	 0.0286549611	 0.165955
94.3351	121.5227	172.1709	216.864	238.3962	352.7462	415.8833	526.1193	549.6035	608.8443	627.3909	727.9314	741.5685	774.87	928.1183	995.1774	1059.6937	1136.6441	1179.7628	1214.0178	1236.3626	1308.7991	1419.4927	1466.6448	1489.4364	1500.4042	1509.2791	1658.28	2366.4004	3012.4769	3076.3223	3157.4184	3292.81
COC1=CON=C1C#N	COc1conc1C#N	
InChI=1S/C5H4N2O2/c1-8-5-3-9-7-4(5)2-6/h3H,1H3	InChI=1S/C5H4N2O2/c1-8-5-3-9-7-4(5)2-6/h3H,1H3
