18
gdb 24430	3.38776	1.55823	1.1112	1.4884	78.05	-0.186	0.0293	0.2152	1072.9391	0.15178	-401.985105	-401.978083	-401.977139	-402.016393	28.499	
C	-0.0102089776	 1.5083083439	-0.0105945042	-0.205581
C	 1.4341056396	 2.05033316	 0.0136722608	-0.164224
N	 2.208382411	 1.6660129074	 1.2017428105	-0.400246
C	 1.9336303858	 0.3535340207	 1.6273487137	 0.198981
C	 0.9714012408	-0.4350221538	 1.0722646149	 0.315573
C	-0.0262946643	-0.0360962503	 0.0461515041	-0.332987
O	 1.0061323797	-1.6830597525	 1.6289335907	-0.200106
C	 1.9951743148	-1.6648562864	 2.5632709324	-0.01533
C	 2.6053156036	-0.4514966949	 2.609400337	-0.293967
H	-0.5594223766	 1.9085448873	 0.8500911195	 0.101568
H	-0.5192486834	 1.8613453555	-0.9131609235	 0.098399
H	 1.9661927746	 1.6733831126	-0.870565456	 0.111397
H	 1.4354562496	 3.1418629497	-0.0550138298	 0.100645
H	 2.122233396	 2.3421903962	 1.9511891696	 0.227338
H	-1.0275405108	-0.399936234	 0.3049512807	 0.11395
H	 0.2105701805	-0.4579696131	-0.941131205	 0.110915
H	 2.1450940558	-2.5859392885	 3.1020118096	 0.128574
H	 3.4283488008	-0.1655693499	 3.245553135	 0.1051
116.3821	208.3293	299.504	322.7618	385.3551	452.336	509.2519	605.2728	612.2757	687.5258	692.4677	729.1031	759.6618	811.5708	859.1061	877.5062	907.1784	934.613	987.4882	1054.9939	1070.2615	1101.7525	1152.7547	1161.8453	1198.8492	1216.0691	1262.098	1293.0044	1300.8035	1351.5902	1363.5856	1395.5494	1434.3436	1472.8419	1479.7808	1496.5309	1500.6937	1540.7125	1676.1316	2999.0874	3013.7611	3033.5955	3055.3521	3084.0531	3087.8883	3252.4717	3281.9508	3533.5886
C1CNC2=C(C1)OC=C2	C1CNc2c(C1)occ2	
InChI=1S/C7H9NO/c1-2-7-6(8-4-1)3-5-9-7/h3,5,8H,1-2,4H2	InChI=1S/C7H9NO/c1-2-7-6(8-4-1)3-5-9-7/h3,5,8H,1-2,4H2
