18
gdb 85536	2.56634	1.63521	1.18709	4.7695	71.16	-0.2537	0.0194	0.2731	1059.6073	0.14906	-439.102217	-439.094315	-439.093371	-439.134888	30.408	
C	 0.5291907182	 1.3045234083	-0.3073954285	-0.389908
C	-0.0713291106	-0.0069545663	 0.1857626133	 0.122014
O	-0.189605803	-0.9429963253	-0.9203711825	-0.241529
C	 0.8006555921	-1.7955498907	-1.2680206989	 0.408562
O	 0.6835992354	-2.4603518585	-2.2622910842	-0.328888
C	 2.0230840064	-1.8710930288	-0.3609680377	-0.357776
C	 1.7102720233	-1.6137992329	 1.1010388775	-0.038199
N	 2.0504167872	-0.276223346	 1.6056743207	-0.327946
C	 0.6369548375	-0.6296753207	 1.3829632857	-0.064477
H	 1.5824997376	 1.1888522935	-0.5692470582	 0.138288
H	-0.0254705844	 1.6572551069	-1.1802191233	 0.129365
H	 0.4678188143	 2.0603522591	 0.4813725278	 0.122913
H	-1.1168291364	 0.1630655684	 0.4573332589	 0.101375
H	 2.4691274049	-2.8532573478	-0.5234756301	 0.138849
H	 2.7463859038	-1.1257354236	-0.7111630132	 0.150601
H	 1.8173978225	-2.4584184493	 1.7754656543	 0.101653
H	 2.2609910451	-0.3137358249	 2.5993379941	 0.237678
H	 0.0133849959	-0.7913666911	 2.2572062245	 0.097427
78.4974	101.4867	221.1603	248.4966	353.4921	405.2481	430.5051	454.2051	516.063	548.8469	627.8247	714.9291	782.7642	834.0246	842.4415	896.8989	926.2005	942.2763	997.0579	1000.023	1061.7561	1087.1244	1112.7688	1137.291	1154.9101	1196.3204	1230.0218	1247.8176	1268.2697	1319.8025	1367.8094	1394.8962	1407.4105	1412.2036	1456.0819	1456.5285	1486.1861	1490.3981	1840.1711	3052.6498	3054.5971	3067.8438	3124.589	3125.1588	3144.6841	3145.7819	3154.8505	3509.3743
CC1OC(=O)CC2NC12	C[C@H]1OC(=O)C[C@H]2N[C@@H]12	
InChI=1S/C6H9NO2/c1-3-6-4(7-6)2-5(8)9-3/h3-4,6-7H,2H2,1H3	InChI=1S/C6H9NO2/c1-3-6-4(7-6)2-5(8)9-3/h3-4,6-7H,2H2,1H3/t3-,4-,6+/m1/s1
