14
gdb 61108	2.48892	1.25492	1.03565	4.7462	73.92	-0.2766	-0.0179	0.2587	1168.629	0.09591	-399.470832	-399.460953	-399.460009	-399.505627	34.963	
O	-0.0723614535	 1.4455323329	-0.0016985384	-0.422461
C	-0.0167973586	 0.0284586086	-0.004788942	 0.008553
C	 0.6718719364	-0.5123805266	-1.3044976925	-0.380682
C	 0.0417822254	-0.0330063128	-2.522741725	 0.319659
C	-0.4812785505	 0.3579538769	-3.5301092709	-0.429341
C	 0.7060680608	-0.4841293681	 1.1677220287	 0.306896
C	 1.358415907	-0.8688555727	 2.0994795027	-0.426482
C	-1.4203534279	-0.4437281828	 0.0406442024	 0.327476
N	-2.4999449006	-0.8500390163	 0.0719303699	-0.328785
H	 0.7961091481	 1.7683457396	 0.2655818066	 0.298593
H	 1.7203927197	-0.1956275395	-1.2569501037	 0.141511
H	 0.6696591823	-1.6072976656	-1.266614796	 0.159789
H	-0.9512707016	 0.7011567478	-4.4186401884	 0.207016
H	 1.913488693	-1.2147923314	 2.9375293268	 0.218258
68.8898	107.4682	127.3242	150.8414	189.5113	193.8114	271.4256	336.3213	355.4033	445.5649	483.3197	521.3925	568.1823	622.616	633.9302	668.8388	670.792	694.2259	736.102	898.2955	965.9591	1050.8878	1051.3108	1095.8429	1230.3888	1323.9185	1390.2603	1458.5883	2239.5767	2248.7878	2373.8893	3037.9212	3079.6414	3495.1899	3504.5624	3808.4695
OC(CC#C)(C#C)C#N	O[C@@](CC#C)(C#C)C#N	
InChI=1S/C7H5NO/c1-3-5-7(9,4-2)6-8/h1-2,9H,5H2	InChI=1S/C7H5NO/c1-3-5-7(9,4-2)6-8/h1-2,9H,5H2/t7-/m1/s1
