16
gdb 5595	3.47564	1.83231	1.26371	1.7468	67.86	-0.1803	0.0477	0.228	934.8397	0.132729	-379.947449	-379.9397	-379.938756	-379.97931	29.432	
N	-0.265467821	 1.1349366094	-0.6742291017	-0.616923
C	-0.1706014733	-0.1662631512	-0.1483181459	 0.214207
C	-1.1467496596	-1.0486675651	 0.2799438111	 0.189836
C	-2.6042791386	-0.7230715173	 0.3804418156	-0.191722
O	-3.1032578796	-0.0448099952	-0.7831202058	-0.415136
C	-0.4830457264	-2.2720568017	 0.6066493758	-0.256895
C	 0.8590600235	-2.0961413719	 0.3852382098	-0.093345
N	 1.0367898047	-0.8096404187	-0.0817319843	-0.269353
H	-1.2412784265	 1.333875122	-0.8725355422	 0.255379
H	 0.0876060227	 1.8433894514	-0.0374761758	 0.238842
H	-3.181240596	-1.6384465166	 0.5782048423	 0.096195
H	-2.8157677459	-0.0298403281	 1.204111909	 0.109406
H	-2.8651993968	-0.5910307475	-1.5408751427	 0.280259
H	-0.9507539574	-3.1698328709	 0.9834896021	 0.08833
H	 1.697887628	-2.7589714784	 0.5191071722	 0.114053
H	 1.8954690421	-0.4232302201	-0.4343632994	 0.256868
88.223	173.5122	232.9661	256.0699	292.9576	386.519	415.8245	456.109	491.6544	629.3095	649.718	678.3629	712.0308	750.5293	818.0947	874.89	915.8556	964.7666	1020.4718	1073.4535	1092.8315	1154.7269	1192.5325	1234.0313	1270.3828	1334.8576	1366.5308	1408.9934	1429.6521	1507.3503	1515.7313	1520.0712	1616.9714	1663.2913	2994.8181	3040.3163	3236.8344	3273.5298	3482.9577	3570.2258	3675.492	3797.8629
NC1=C(CO)C=CN1	Nc1c(CO)cc[nH]1	
InChI=1S/C5H8N2O/c6-5-4(3-8)1-2-7-5/h1-2,7-8H,3,6H2	InChI=1S/C5H8N2O/c6-5-4(3-8)1-2-7-5/h1-2,7-8H,3,6H2
