16
gdb 79420	2.69997	1.69959	1.29815	2.2668	71.29	-0.2372	-0.037	0.2002	975.4252	0.123953	-437.739255	-437.731801	-437.730857	-437.771176	29.005	
O	 0.16706565	 1.4766176223	 0.205621146	-0.406137
C	 0.0606955707	 0.0840855363	 0.0798591131	-0.050573
C	-1.3546422167	-0.5796760405	 0.1100946399	-0.045586
C	-2.7745381163	-0.2297685009	-0.4708210329	-0.071085
C	-2.1051896841	 0.6585000915	-1.521990573	-0.221527
C	-1.3053946133	-0.691021839	-1.4245122137	 0.144486
N	-2.6699075946	-1.3917162752	-1.5017247307	-0.400666
C	 0.2263974206	-0.5545138499	-1.4085209912	 0.280608
O	 1.1731307031	-0.8803596835	-2.0505910257	-0.281223
H	 1.0727642213	 1.7273695842	-0.0100820499	 0.299727
H	 0.7394988432	-0.4346627635	 0.7724356177	 0.104679
H	-1.3148939798	-1.5290420418	 0.6520967417	 0.083194
H	-3.7129959281	-0.0844893289	 0.0695373462	 0.091827
H	-2.6474726337	 0.7728336712	-2.4599017595	 0.117552
H	-1.6104811339	 1.5609866006	-1.1773850913	 0.142301
H	-2.5926036783	-2.2794178829	-0.9924425866	 0.212425
86.0856	199.9216	225.5148	282.8061	292.2272	375.7771	502.7782	546.2713	583.4552	615.0679	705.7545	780.2014	792.8127	833.2338	851.3391	902.6247	949.5783	981.0906	1001.8307	1053.2369	1068.739	1123.3998	1143.8812	1146.1787	1166.4066	1190.3135	1201.0502	1209.0812	1256.3361	1270.4498	1282.6346	1357.8286	1406.3864	1502.7142	1886.4536	2995.0477	3063.9948	3083.9057	3109.8636	3207.8109	3377.8104	3797.1028
OC1C2C3CC2(N3)C1=O	O[C@H]1[C@H]2[C@H]3C[C@@]2(N3)C1=O	
InChI=1S/C6H7NO2/c8-4-3-2-1-6(3,7-2)5(4)9/h2-4,7-8H,1H2	InChI=1S/C6H7NO2/c8-4-3-2-1-6(3,7-2)5(4)9/h2-4,7-8H,1H2/t2-,3-,4+,6+/m1/s1
