21
gdb 92427	2.46344	1.54011	1.42844	2.8493	80.83	-0.2273	-0.0047	0.2225	1062.2787	0.185486	-387.131806	-387.123912	-387.122968	-387.164088	31.561	
C	-0.281606557	 1.5341579991	 0.0006653295	-0.419617
C	 0.0320240265	 0.0394612014	 0.0221337924	 0.041411
C	 0.7791902185	-0.4826120086	-1.2628636385	-0.241947
C	 1.9485264591	-1.3321971497	-0.7091415787	-0.110617
C	 3.0137803528	-0.3721976335	-0.1309695568	-0.222273
C	 2.3210156553	 0.2309627331	 1.1457505534	-0.229519
C	 0.9385293052	-0.4610696494	 1.1811421315	-0.126004
C	 1.3190715366	-1.8322203868	 0.6007035677	 0.417618
O	 1.1653794074	-2.9409114483	 1.0304249081	-0.332547
H	 0.6199018209	 2.1429422113	-0.1229059936	 0.117736
H	-0.9481669719	 1.7692537316	-0.8363646057	 0.117789
H	-0.7795805019	 1.8529304727	 0.9225604096	 0.116263
H	-0.9196889678	-0.4982646718	 0.1093968477	 0.084428
H	 0.1121808906	-1.077738718	-1.8922817215	 0.107501
H	 1.1522438316	 0.3467926034	-1.8733482878	 0.098888
H	 2.3279315999	-2.1046781096	-1.3759020663	 0.077994
H	 3.9246287146	-0.9143638705	 0.1378904206	 0.108976
H	 3.2919614872	 0.3978978439	-0.8560431038	 0.101793
H	 2.8878132147	-0.0121584288	 2.0486300119	 0.110681
H	 2.2420468783	 1.3190853319	 1.101779197	 0.106223
H	 0.4552746995	-0.4860045234	 2.1570953335	 0.075223
89.2193	141.3282	228.916	276.768	283.5226	372.5903	426.9708	500.4282	520.0833	626.8622	696.5596	753.1039	777.4629	826.5686	853.2562	866.3014	881.5901	921.8198	958.6567	976.3841	1012.4232	1018.7459	1067.9074	1086.7123	1114.1336	1127.8709	1152.301	1171.2137	1195.7531	1233.0017	1253.1269	1269.4299	1279.0115	1309.3092	1326.8256	1340.0027	1349.3004	1380.0498	1413.6459	1486.0613	1491.7278	1497.1221	1505.0415	1516.8653	1878.9771	3024.184	3030.599	3042.8208	3051.0909	3065.7564	3089.0611	3092.0211	3095.374	3102.3077	3112.5482	3125.2671	3132.8297
CC1CC2CCC1C2=O	C[C@H]1C[C@H]2CC[C@@H]1C2=O	
InChI=1S/C8H12O/c1-5-4-6-2-3-7(5)8(6)9/h5-7H,2-4H2,1H3	InChI=1S/C8H12O/c1-5-4-6-2-3-7(5)8(6)9/h5-7H,2-4H2,1H3/t5-,6+,7-/m0/s1
