15
gdb 124243	2.66943	1.52646	0.98292	1.1526	70.28	-0.264	-0.0586	0.2054	1140.1826	0.109964	-453.960839	-453.952034	-453.95109	-453.994997	30.603	
C	-0.0009247015	 1.5226170599	-0.0639246694	-0.480854
C	 0.0012485542	 0.0142146088	 0.050668	 0.308397
O	 0.0044405357	-0.5610467535	 1.1228388819	-0.317598
C	-0.0007187555	-0.7481782225	-1.2117743795	 0.074408
C	 0.0005228371	-2.1093148814	-1.4239318267	 0.350661
C	 0.0028138262	-3.2665752418	-0.4949443501	-0.503657
O	-0.0012143674	-2.3299687388	-2.7254720895	-0.213712
N	-0.0042921581	-1.0094752209	-3.3717254053	-0.013366
N	-0.0036598828	-0.1609091658	-2.4609376382	-0.161799
H	 0.872632071	 1.8647543029	-0.6281595613	 0.153727
H	-0.8811316766	 1.8623458888	-0.6193124946	 0.153713
H	 0.0032800718	 1.9557651688	 0.9363176805	 0.142097
H	-0.8870904878	-3.8832609496	-0.6572168532	 0.160676
H	 0.8778142412	-3.8979696099	-0.6790973199	 0.160341
H	 0.0170958124	-2.901251295	 0.5308361253	 0.186966
69.7386	88.9794	123.2915	185.5129	186.0654	271.077	288.6483	398.1331	469.0952	557.6671	580.2194	640.1104	670.2974	693.1787	740.3913	952.8495	992.4177	1027.929	1045.635	1070.9135	1110.053	1212.063	1307.1864	1383.0936	1390.586	1410.2895	1457.0998	1469.144	1469.3431	1489.0057	1506.4329	1591.406	1772.2018	3047.4886	3048.6662	3106.6156	3109.4616	3161.648	3174.646
CC(=O)C1=C(C)ON=N1	CC(=O)c1c(C)onn1	
InChI=1S/C5H6N2O2/c1-3(8)5-4(2)9-7-6-5/h1-2H3	InChI=1S/C5H6N2O2/c1-3(8)5-4(2)9-7-6-5/h1-2H3
