20
gdb 10180	3.14054	1.07028	0.83462	1.5397	77.61	-0.2583	0.0464	0.3047	1398.3117	0.174668	-348.97391	-348.963939	-348.962995	-349.009054	35.661	
C	 0.0720000821	 1.6310114946	 0.0288940462	-0.385336
C	-0.0212123867	 0.1025332282	 0.0082085109	-0.177139
C	 0.633233207	-0.5050429915	-1.2386760058	-0.175176
C	 0.6632406643	-2.0509045143	-1.2543223364	-0.186393
C	-0.7488427697	-2.6806915483	-1.3438149698	-0.052306
O	-0.7141659896	-4.0902327298	-1.3640919057	-0.42259
C	 1.472671925	-2.5515413318	-2.3650083166	 0.290125
C	 2.092116522	-2.984201422	-3.3018825545	-0.453168
H	 1.1157333286	 1.9640135266	 0.0160894131	 0.116759
H	-0.424688946	 2.0697562454	-0.8435336638	 0.116834
H	-0.4000381824	 2.0462598597	 0.924479352	 0.11466
H	 0.4613230075	-0.3070229187	 0.905558771	 0.099434
H	-1.0749990392	-0.1943794083	 0.0661648028	 0.105084
H	 0.1196815744	-0.1509446143	-2.1419134917	 0.105149
H	 1.664782405	-0.1424446901	-1.3150440028	 0.108389
H	 1.1155147929	-2.4047148169	-0.3173017821	 0.11103
H	-1.3308563669	-2.4042650998	-0.4606824783	 0.110951
H	-1.2619131691	-2.2702118568	-2.2289576985	 0.090531
H	-0.1419105111	-4.3471382948	-2.0976058128	 0.284623
H	 2.6654517918	-3.352343367	-4.1166284372	 0.198539
66.7408	83.7133	116.6926	126.6548	177.4741	242.5588	268.6338	287.9729	330.8987	416.9112	457.3361	529.9066	590.055	625.7366	651.9838	739.7006	810.6528	866.3095	905.71	986.4523	1016.6566	1048.9629	1074.1179	1089.9922	1126.2404	1156.3691	1213.1808	1250.7525	1296.924	1313.2937	1337.9834	1356.4042	1380.9746	1397.2796	1414.5677	1433.3885	1484.3217	1493.5582	1499.2835	1506.8092	1511.1352	2224.7227	2971.1607	3014.002	3017.7247	3028.631	3032.6516	3047.3406	3072.741	3094.4584	3099.3028	3104.9827	3501.5169	3776.8086
CCCC(CO)C#C	CCC[C@@H](CO)C#C	
InChI=1S/C7H12O/c1-3-5-7(4-2)6-8/h2,7-8H,3,5-6H2,1H3	InChI=1S/C7H12O/c1-3-5-7(4-2)6-8/h2,7-8H,3,5-6H2,1H3/t7-/m0/s1
