18
gdb 69469	5.7479	0.82827	0.78717	5.0264	76.08	-0.2511	0.0224	0.2735	1471.3664	0.145618	-439.043889	-439.034948	-439.034004	-439.078744	32.246	
C	 0.0517706906	 1.5438611488	 0.0161467094	-0.500369
C	-0.0883775669	 0.0593186984	 0.0853841124	 0.413507
C	-1.3606741114	-0.7983995723	-0.0556753883	-0.336903
C	-0.6970148546	-1.8232660211	 0.9324847405	 0.133663
O	-0.5031449049	-3.1523941611	 0.4933316421	-0.187035
C	-1.4005771659	-4.0749915399	 0.8932190521	 0.127286
N	-1.3325565267	-5.2565890935	 0.4571093946	-0.438894
C	 0.5617173575	-0.959739983	 0.9407973643	-0.07857
O	 0.9729449788	-0.7621495099	-0.4146721553	-0.27058
H	 1.0615744914	 1.8459543249	 0.3054623894	 0.138694
H	-0.1324748333	 1.9017057564	-1.0029612665	 0.137065
H	-0.6681043838	 2.0342964385	 0.679165928	 0.125698
H	-2.2721517276	-0.349232994	 0.3454919621	 0.10674
H	-1.5336858783	-1.1755768344	-1.0651363871	 0.127105
H	-1.194137999	-1.8099085698	 1.9103276219	 0.089039
H	-2.1385908137	-3.6851498528	 1.6095768862	 0.080783
H	-2.0680266496	-5.8227889024	 0.87483763	 0.228626
H	 1.3225344074	-0.8810251427	 1.7092641543	 0.104144
31.8162	87.0631	99.1674	200.1415	220.0784	294.8706	315.6911	404.7698	414.1782	509.1509	637.3622	674.1445	747.0284	818.3727	836.7763	872.8747	905.6345	964.6038	969.4286	1014.8177	1032.0426	1044.4692	1060.697	1093.0076	1151.2397	1168.1802	1206.9387	1209.8022	1270.7581	1288.0887	1293.1232	1383.5675	1405.1712	1428.159	1451.8997	1474.4149	1485.6475	1496.3476	1747.4139	3007.0204	3032.2642	3036.4151	3072.2703	3098.7211	3124.0276	3136.668	3184.1426	3518.4289
CC12CC(OC=N)C1O2	C[C@]12C[C@@H](O[CH][NH])[C@H]1O2	
InChI=1S/C6H9NO2/c1-6-2-4(8-3-7)5(6)9-6/h3-5,7H,2H2,1H3	InChI=1S/C6H9NO2/c1-6-2-4(8-3-7)5(6)9-6/h3-5,7H,2H2,1H3/t4-,5-,6+/m1/s1
