19
gdb 75059	2.27833	1.83328	1.11849	2.8406	82.76	-0.2298	-0.0129	0.2168	1109.7534	0.158848	-385.924524	-385.916081	-385.915136	-385.957408	32.573	
C	-0.0287193932	 1.5159452501	 0.0084520652	-0.505149
C	-0.0094265529	 0.0204282196	-0.0067789135	 0.24876
C	-0.0244901348	-0.7664265285	-1.0915119831	-0.20095
C	 0.0027318585	-2.2336838883	-0.7583735832	-0.386625
C	 0.0392994463	-2.2404096536	 0.7765984583	 0.340192
O	 0.0688218955	-3.2112273513	 1.4933046235	-0.333276
C	 0.030633094	-0.8069868873	 1.2320873182	 0.167385
C	 0.8007026181	-0.4610212807	 2.501863015	-0.298862
C	-0.688621716	-0.4811394161	 2.5365532869	-0.298842
H	 0.858953407	 1.9248184643	 0.5068752631	 0.12996
H	-0.0590391187	 1.9182843292	-1.0074650118	 0.129742
H	-0.9011316111	 1.9017578122	 0.5502933977	 0.129924
H	-0.0533950214	-0.3971214131	-2.1103851992	 0.092234
H	-0.8758465615	-2.7879943567	-1.1136757469	 0.13535
H	 0.8777192649	-2.7649238387	-1.1553226936	 0.13532
H	 1.3295158028	-1.2879223991	 2.9635287379	 0.138222
H	 1.3104745712	 0.4955362282	 2.5294861917	 0.119185
H	-1.2222286403	 0.4613010401	 2.5885111123	 0.119197
H	-1.1728352084	-1.3217585204	 3.0217742816	 0.138235
73.0708	168.4593	233.2276	233.3341	242.6787	255.1607	295.8891	485.7586	531.1272	536.5332	626.8324	631.6546	687.8164	785.6124	798.3092	832.5745	834.2052	953.5787	963.7607	974.1772	986.9233	1032.9621	1061.2839	1067.961	1088.4976	1088.6864	1146.4701	1149.2672	1204.8596	1276.8232	1278.3389	1313.5347	1392.2246	1415.7811	1443.6157	1449.3476	1482.1978	1482.5383	1491.1156	1697.6143	1832.9536	3022.0862	3024.557	3051.2504	3069.433	3113.4813	3134.6313	3135.2694	3193.012	3220.6467	3235.0693
CC1=CCC(=O)C11CC1	CC1=CCC(=O)C21CC2	
InChI=1S/C8H10O/c1-6-2-3-7(9)8(6)4-5-8/h2H,3-5H2,1H3	InChI=1S/C8H10O/c1-6-2-3-7(9)8(6)4-5-8/h2H,3-5H2,1H3
