14
gdb 47384	2.65551	1.44623	1.16485	4.506	62.45	-0.2787	-0.0193	0.2594	1042.3291	0.101234	-473.850432	-473.842739	-473.841795	-473.883364	27.588	
O	-0.0635425312	 0.1105566755	 0.6956943755	-0.297035
C	-0.0642240032	 1.1541863433	 0.1136142907	 0.391381
C	-1.347378729	 1.937275156	-0.1453316534	-0.215458
O	-1.2363807161	 3.0477762307	-1.0129818817	-0.230551
C	-0.0733464309	 3.7902207108	-0.7471438142	-0.11635
C	 1.1495162456	 2.9209565959	-1.0393702706	-0.030614
O	 1.1236379749	 1.7062188935	-0.2722852374	-0.225248
C	 1.2488102752	 2.5967576025	-2.472804501	 0.289917
N	 1.3392683444	 2.3646493369	-3.6001171309	-0.300856
H	-2.07505977	 1.2493751833	-0.5797980985	 0.169576
H	-1.7243070257	 2.2439846679	 0.8437713563	 0.142029
H	-0.082219847	 4.6664126826	-1.3989936198	 0.150562
H	-0.0300471202	 4.1236614133	 0.3018390818	 0.118971
H	 2.0668848032	 3.4374446079	-0.7382395269	 0.153676
73.9784	88.8058	170.8359	248.4164	342.5742	408.9703	424.997	474.9975	535.6367	581.3337	619.681	775.583	784.7591	880.0767	947.7099	987.6639	1016.4734	1061.6125	1131.4596	1155.1001	1206.931	1254.0956	1304.5289	1332.3106	1365.9416	1374.8596	1408.7495	1464.3819	1486.7481	1871.2337	2367.5722	2987.8278	2991.7889	3068.7515	3116.6084	3123.5884
O=C1COCC(O1)C#N	O=C1COC[C@@H](O1)C#N	
InChI=1S/C5H5NO3/c6-1-4-2-8-3-5(7)9-4/h4H,2-3H2	InChI=1S/C5H5NO3/c6-1-4-2-8-3-5(7)9-4/h4H,2-3H2/t4-/m0/s1
