12
gdb 131962	2.80008	1.64218	1.04174	2.8074	59.68	-0.3187	-0.1169	0.2018	1029.0731	0.07613	-505.812511	-505.805057	-505.804113	-505.845418	25.952	
C	-0.0378015996	 1.5458445589	-0.0752967775	-0.488088
C	-0.0157677032	 0.0610617348	 0.0360648399	 0.308473
N	-0.0335587828	-0.7242648811	-1.0090789664	-0.118385
O	-0.0039308885	-2.0150663224	-0.5223839426	-0.133018
N	 0.0322883072	-2.0446478354	 0.8220777293	-0.096644
C	 0.0256212777	-0.7918445274	 1.1804472757	 0.335049
N	 0.0582589792	-0.4131455829	 2.5837959554	 0.386431
O	 0.0868107578	-1.2986634837	 3.4159090748	-0.318413
O	 0.0532692464	 0.7943406289	 2.8001880794	-0.365676
H	 0.8488998593	 1.9772446757	 0.3954400064	 0.165954
H	-0.0723118533	 1.8326350762	-1.1270554865	 0.158464
H	-0.9057816702	 1.9552333484	 0.4471148321	 0.165852
45.4733	155.5513	201.7849	216.9292	294.684	329.092	434.3904	539.2872	646.596	670.0351	691.4362	803.9744	848.7918	901.565	947.548	1030.8628	1071.6544	1091.1942	1201.4519	1397.8714	1413.713	1434.6347	1471.6734	1472.9265	1487.8787	1605.4347	1659.6666	3063.7889	3129.2592	3157.8882
CC1=NON=C1N(=O)=O	Cc1nonc1N(=O)=O	
InChI=1S/C3H3N3O3/c1-2-3(6(7)8)5-9-4-2/h1H3	InChI=1S/C3H3N3O3/c1-2-3(6(7)8)5-9-4-2/h1H3
