19
gdb 77658	2.1357	1.42927	1.25752	4.6223	78.83	-0.2417	-0.0256	0.2161	1144.0293	0.156806	-423.001145	-422.991925	-422.990981	-423.034906	33.908	
C	 0.0384892571	 1.5560801193	 0.022118839	-0.423527
C	 0.0750934353	 0.0472827041	-0.0811095676	-0.131677
C	 0.6445783773	-0.7469203158	-1.2234312297	 0.188046
C	-0.0866089844	-1.8343924328	-1.955652724	-0.495044
C	 1.9397545213	-0.0906057322	-1.7057007497	-0.136976
O	 2.4815488869	-0.0265220442	-0.3610998756	-0.306535
C	 1.3621583448	-0.7356355532	 0.1478270391	 0.330255
C	 1.5183983678	-1.7917171239	 1.1522885241	 0.063896
O	 2.5563309069	-2.1094290032	 1.6790689337	-0.267368
H	 1.0099300764	 1.9900549052	-0.2232897705	 0.144922
H	-0.7151035959	 1.9783567077	-0.6508269009	 0.120808
H	-0.2118355397	 1.8621325068	 1.0424689531	 0.128214
H	-0.7873305557	-0.4591603073	 0.3510174486	 0.097574
H	-0.6436548598	-1.4194871384	-2.8045766691	 0.131328
H	 0.602633943	-2.590695088	-2.3455365479	 0.13147
H	-0.8097312991	-2.3373568544	-1.3068276113	 0.129302
H	 2.5464265318	-0.7570536425	-2.3289780418	 0.118421
H	 1.8687197097	 0.8963251096	-2.1764413243	 0.110593
H	 0.5536665864	-2.2947019869	 1.398490195	 0.066299
87.7782	159.7549	169.4711	183.0127	216.4306	245.4431	251.9154	293.123	341.1123	464.6875	512.0473	586.5883	617.08	725.6774	769.8982	807.4911	925.8758	966.6037	990.0308	1005.2371	1029.9074	1040.4479	1087.1383	1111.2276	1120.5373	1145.3141	1167.5972	1256.6907	1278.2321	1296.4661	1357.4255	1409.097	1418.4835	1425.2522	1474.8994	1485.9412	1492.2012	1497.0143	1504.8869	1521.6264	1807.9216	2852.4457	3025.4781	3030.2399	3041.865	3079.4295	3086.57	3102.5358	3107.7599	3118.9684	3136.8465
CC1C2(C)COC12C=O	C[C@H]1[C@@]2(C)CO[C@@]12C=O	
InChI=1S/C7H10O2/c1-5-6(2)4-9-7(5,6)3-8/h3,5H,4H2,1-2H3	InChI=1S/C7H10O2/c1-5-6(2)4-9-7(5,6)3-8/h3,5H,4H2,1-2H3/t5-,6+,7-/m0/s1
