23
gdb 101840	3.65076	0.80371	0.69711	1.4036	83.39	-0.2466	0.0843	0.331	1688.8426	0.203072	-425.4013	-425.390656	-425.389712	-425.438278	38.17	
C	 0.1202887425	 1.2788178904	-0.6808889329	-0.384715
C	-0.086550927	-0.1018734462	-0.0551116567	-0.167873
C	-1.5436436838	-0.4002987389	 0.3057757579	 0.143287
C	-1.7294103694	-1.8272188318	 0.8237167553	-0.416138
O	-1.9283398908	 0.5808535298	 1.2741873738	-0.260461
C	-3.3034143109	 0.8776244251	 1.3848819264	-0.096437
C	-3.9988095766	 0.1370418574	 2.5047140771	 0.079628
C	-5.4581087247	-0.024142711	 2.5134192696	-0.181552
O	-4.6026326238	-1.1245238768	 2.2028115981	-0.223213
H	 1.1772933945	 1.4598564872	-0.8987387575	 0.107769
H	-0.4334937258	 1.3741507254	-1.6221037491	 0.106343
H	-0.2296385994	 2.0626947032	-0.0047086552	 0.128453
H	 0.2622205644	-0.8836773293	-0.7402530372	 0.092408
H	 0.5153699378	-0.1940115589	 0.8577187493	 0.101854
H	-2.1665324846	-0.2601433256	-0.5944285303	 0.062837
H	-1.1367686445	-1.9793968213	 1.7320323904	 0.114619
H	-2.7759083876	-2.0346829334	 1.0555423297	 0.150794
H	-1.3945608905	-2.5489015188	 0.0708869846	 0.106219
H	-3.3733447357	 1.9539109826	 1.5957144206	 0.105457
H	-3.8350893541	 0.683171355	 0.4415041686	 0.096243
H	-3.4731048139	 0.1606552987	 3.4599265553	 0.101852
H	-5.9904892097	-0.094643991	 3.4605653089	 0.118139
H	-6.0469894563	 0.358115588	 1.6799775133	 0.114485
24.0566	77.027	102.4925	111.8303	182.9385	226.3624	230.4158	257.8876	308.926	378.4421	395.1317	430.7633	484.8216	554.5017	756.3849	787.9237	826.7403	863.6722	888.7138	946.762	977.281	995.8164	1001.4115	1035.6602	1093.5826	1113.966	1131.5111	1136.659	1159.8602	1161.0618	1181.5481	1202.8082	1284.9395	1293.7367	1313.802	1330.4404	1372.9697	1389.5873	1396.7149	1406.1936	1408.9399	1447.3487	1473.7169	1475.201	1492.1293	1496.7461	1508.3877	1511.1117	1531.8874	2954.4544	2990.4668	3027.6627	3034.1899	3037.8126	3038.1825	3065.5034	3082.9276	3097.7641	3103.7098	3113.0918	3124.0491	3138.6528	3168.9465
CCC(C)OCC1CO1	CC[C@@H](C)OC[C@H]1CO1	
InChI=1S/C7H14O2/c1-3-6(2)8-4-7-5-9-7/h6-7H,3-5H2,1-2H3	InChI=1S/C7H14O2/c1-3-6(2)8-4-7-5-9-7/h6-7H,3-5H2,1-2H3/t6-,7+/m1/s1
