21
gdb 112719	3.23486	0.95786	0.81152	1.0802	74.31	-0.2514	0.064	0.3154	1432.3189	0.182445	-461.365273	-461.355491	-461.354547	-461.40079	36.134	
O	-0.2014505074	 1.4764445924	 0.1596289105	-0.424215
C	 0.0190725028	 0.0828824572	-0.0117246208	-0.096451
C	-1.3350239447	-0.6054217859	-0.0485945848	 0.03418
C	-2.2323247021	-0.1594616934	-1.2269868927	-0.215574
C	-3.1820727673	-1.3368838131	-1.5213773498	 0.073093
O	-3.0309970371	-1.7133220087	-2.8928597919	-0.441313
C	-2.7112649431	-2.5016457756	-0.5899723343	 0.121181
O	-2.8738391778	-3.7723042354	-1.1835939529	-0.446029
C	-1.2681898758	-2.1300533116	-0.2123225248	-0.268415
H	 0.6509739021	 1.9210281746	 0.1498351731	 0.286809
H	 0.5585924776	-0.1223636042	-0.9518257102	 0.083387
H	 0.6256329445	-0.3271564465	 0.8121090154	 0.084117
H	-1.8443834894	-0.3736378274	 0.8966581264	 0.080496
H	-2.7566137855	 0.7754759325	-1.024495339	 0.110762
H	-1.621056428	-0.0005811456	-2.1222895305	 0.113615
H	-4.2312270029	-1.0819187911	-1.3275909901	 0.066698
H	-3.753441772	-2.3166697029	-3.0989289747	 0.284316
H	-3.3308055974	-2.5142605136	 0.3139061216	 0.087013
H	-2.4381039435	-3.7105717096	-2.0432652122	 0.273034
H	-0.6014578249	-2.389469647	-1.0471649479	 0.09348
H	-0.9120793981	-2.6602393249	 0.6748689795	 0.099817
33.0343	85.118	126.2553	153.8131	210.6003	265.4932	294.074	344.4325	393.6572	425.622	443.4227	549.5368	585.1802	588.9275	660.2617	798.4228	852.2	889.1975	937.3349	972.4941	1014.4446	1037.574	1048.3579	1077.1477	1100.5564	1109.8519	1137.0774	1160.7221	1206.257	1229.7675	1254.3747	1264.9938	1281.2199	1293.4256	1308.3987	1327.8672	1350.8146	1358.9759	1385.2009	1422.7685	1439.1848	1461.2099	1477.4984	1492.5523	1520.5094	2954.6928	2983.3358	3010.1387	3016.1769	3022.0829	3050.3551	3054.3557	3095.754	3120.4786	3769.4691	3805.72	3831.6708
OCC1CC(O)C(O)C1	OC[C@H]1C[C@@H](O)[C@@H](O)C1	
InChI=1S/C6H12O3/c7-3-4-1-5(8)6(9)2-4/h4-9H,1-3H2	InChI=1S/C6H12O3/c7-3-4-1-5(8)6(9)2-4/h4-9H,1-3H2/t4-,5+,6-
