24
gdb 12559	2.81181	1.70502	1.18139	0.0944	84.53	-0.2948	0.0802	0.375	1124.7006	0.226425	-314.296451	-314.287991	-314.287047	-314.328909	33.413	
C	 0.0624319372	 1.6212285842	 0.0168660861	-0.398272
C	-0.0099375434	 0.0866542359	 0.0091788511	 0.050466
C	 0.6385353218	-0.4716374466	-1.2766356275	-0.180207
C	 0.1206712096	-1.8319863686	-1.7822255131	-0.198708
C	-0.1520401386	-2.9150744564	-0.7189778956	-0.178598
C	 0.8204702546	-2.9539182089	 0.4720167543	-0.182351
C	 0.4607237798	-1.9584737962	 1.5876012647	-0.19681
C	 0.6686983699	-0.4691681577	 1.277741316	-0.169098
H	 1.1044933063	 1.9627686305	-0.015231587	 0.110635
H	-0.451368505	 2.0480184122	-0.8508732062	 0.106817
H	-0.3950143597	 2.0402771945	 0.9193516843	 0.106246
H	-1.0727013797	-0.1970869441	 0.0244454403	 0.064691
H	 0.5094150044	 0.2528644986	-2.0899778013	 0.085038
H	 1.7224453159	-0.5296362254	-1.1093368154	 0.090001
H	-0.8042339982	-1.6741700874	-2.351143054	 0.091999
H	 0.8498174195	-2.2160760774	-2.5066817338	 0.091773
H	-1.1673350564	-2.7904806023	-0.3205916793	 0.091735
H	-0.1541122178	-3.8885449171	-1.2231577145	 0.087738
H	 0.8040570255	-3.9616800602	 0.9040668314	 0.088766
H	 1.851863882	-2.7900758348	 0.1311488418	 0.089141
H	-0.5908135939	-2.1235157728	 1.862352726	 0.089949
H	 1.0449515975	-2.2000610414	 2.484435172	 0.086953
H	 1.7464087814	-0.2638982097	 1.1985266938	 0.087516
H	 0.3195451473	 0.104697021	 2.1459719461	 0.084578
102.4356	153.038	189.1216	236.2326	291.6053	323.1945	353.6991	366.0537	439.9192	500.3507	540.7404	737.099	760.1959	814.732	843.0615	855.7756	893.2824	951.4622	959.4198	979.4629	1019.9968	1039.7196	1058.9897	1079.5743	1091.7155	1136.8818	1161.0632	1209.633	1226.8381	1233.4522	1277.7104	1304.0633	1312.0722	1336.5646	1344.4748	1372.7761	1380.622	1386.3175	1388.4745	1401.8097	1403.9338	1418.5737	1477.8792	1482.4201	1487.4836	1491.847	1499.5294	1500.9893	1502.1581	1509.036	2990.8013	2999.8436	3003.4401	3010.1396	3012.6961	3015.3162	3021.2776	3024.0519	3037.3552	3040.0907	3047.8397	3051.3354	3057.2571	3065.448	3087.7602	3096.8091
CC1CCCCCC1	CC1CCCCCC1	
InChI=1S/C8H16/c1-8-6-4-2-3-5-7-8/h8H,2-7H2,1H3	InChI=1S/C8H16/c1-8-6-4-2-3-5-7-8/h8H,2-7H2,1H3
