19
gdb 23433	3.24685	1.01025	0.93498	1.228	80.5	-0.2273	0.0022	0.2295	1338.8881	0.158347	-419.116669	-419.107744	-419.1068	-419.150576	33.526	
C	 0.1562842275	 1.2023930109	 1.0719996237	-0.374625
C	 0.0973837896	 0.0104954071	 0.1083968474	-0.226462
C	-1.266939728	-0.6477699348	 0.0948942453	 0.027015
C	-1.5507466646	-2.0740190948	-0.2264548957	-0.16842
N	-1.826896569	-1.4817340633	 1.1741167048	-0.149752
C	-0.7034909073	-2.3387783621	 1.717644411	-0.265337
C	-0.5209562337	-2.9688569166	 0.3539404365	 0.435521
N	 0.0445956159	-3.9950036945	-0.1273849282	-0.261457
O	 0.8711073787	-4.6016253738	 0.838087458	-0.393133
H	 1.1364466087	 1.6868191175	 1.037460044	 0.116909
H	-0.5986200661	 1.9539264009	 0.8171209119	 0.120239
H	-0.0303124742	 0.8876522876	 2.103771264	 0.1273
H	 0.3076602883	 0.349617708	-0.9135150673	 0.108532
H	 0.8831855167	-0.7110951252	 0.3483696173	 0.114813
H	-2.0489263052	 0.0196366913	-0.2686847569	 0.10145
H	-2.3413337448	-2.3778812169	-0.9037767542	 0.112336
H	 0.1307253008	-1.7909121786	 2.1626543915	 0.126007
H	-1.0957738713	-3.0490330958	 2.4499931797	 0.14052
H	 1.208196918	-5.3686549072	 0.3630901774	 0.308544
70.6333	88.1697	183.1858	209.4251	222.6802	295.2252	315.0445	379.1171	466.6484	500.2954	529.3527	586.4629	702.3467	719.0281	780.5935	811.266	878.911	903.7618	965.6559	995.7572	997.8335	1012.1601	1034.463	1069.9258	1119.6981	1129.7279	1175.1157	1198.9307	1253.3994	1260.319	1288.0663	1323.3289	1343.352	1412.9175	1417.1337	1440.6911	1472.5076	1495.1583	1498.11	1508.0607	1791.1247	3035.7201	3038.0798	3065.6059	3081.1834	3102.6785	3111.2948	3112.0354	3116.2902	3177.876	3819.879
CCC1C2N1CC2=NO	CC[C@H]1[C@@H]2N1CC2=NO	
InChI=1S/C6H10N2O/c1-2-5-6-4(7-9)3-8(5)6/h5-6,9H,2-3H2,1H3	InChI=1S/C6H10N2O/c1-2-5-6-4(7-9)3-8(5)6/h5-6,9H,2-3H2,1H3/t5-,6+,8?/m0/s1
