20
gdb 117560	2.72862	0.94643	0.77351	3.994	79.57	-0.2808	0.0306	0.3114	1534.8295	0.169542	-403.14588	-403.135952	-403.135008	-403.181637	35.011	
C	-0.0590967002	 1.5964298247	-0.1945062881	-0.383285
C	-0.0481145781	 0.0698145915	-0.0786630061	-0.188554
C	 0.7135094549	-0.5984346276	-1.2264730874	-0.167462
C	 0.763783348	-2.1433089311	-1.1388985897	-0.195294
C	-0.5833468254	-2.7218415831	-1.170116888	 0.303065
N	-1.64556567	-3.1769316791	-1.1849645451	-0.344111
C	 1.6486137368	-2.7147298427	-2.2426347084	 0.080736
C	 1.3582565104	-3.9449353523	-2.9863998298	-0.190323
O	 1.1410271398	-2.6525369865	-3.5679294786	-0.226653
H	 0.9578640624	 2.0042153768	-0.1872565874	 0.114944
H	-0.5386002702	 1.9184469737	-1.1251064521	 0.122623
H	-0.6063891414	 2.050691285	 0.6366016955	 0.119245
H	 0.4052156724	-0.2240765267	 0.8775542978	 0.096734
H	-1.0778805196	-0.3057427352	-0.0583481207	 0.126754
H	 0.2703877977	-0.325141157	-2.1903379021	 0.132534
H	 1.7501579372	-0.2389520363	-1.2426506121	 0.102688
H	 1.2126435784	-2.4263648275	-0.1762193692	 0.127492
H	 2.6908701205	-2.4053613582	-2.1434546434	 0.102829
H	 2.1817141531	-4.5142648721	-3.4140135548	 0.121369
H	 0.4549326131	-4.5084299564	-2.7650474602	 0.14467
60.8245	83.6119	94.3755	128.2558	161.4215	218.6497	246.8621	285.7933	334.0613	407.695	441.2341	592.322	654.736	747.2673	782.8296	836.1935	885.2548	911.9134	924.9399	967.4397	1018.783	1053.2575	1085.9558	1090.5848	1131.6293	1145.6481	1168.7287	1176.3107	1244.537	1278.2556	1294.3918	1326.5637	1334.8513	1358.536	1394.365	1414.9326	1428.7273	1485.3606	1494.4327	1499.9451	1510.863	1527.7059	2357.8396	3017.3493	3018.5886	3028.9368	3033.2379	3059.2986	3083.6874	3091.7964	3098.6355	3101.2649	3108.6899	3190.8963
CCCC(C#N)C1CO1	CCC[C@@H](C#N)[C@H]1CO1	
InChI=1S/C7H11NO/c1-2-3-6(4-8)7-5-9-7/h6-7H,2-3,5H2,1H3	InChI=1S/C7H11NO/c1-2-3-6(4-8)7-5-9-7/h6-7H,2-3,5H2,1H3/t6-,7+/m0/s1
