18
gdb 23614	1.92114	1.56349	0.97019	1.8696	77.07	-0.236	-0.0123	0.2237	1226.831	0.14824	-435.158444	-435.149631	-435.148687	-435.192702	32.464	
O	 0.0664898274	 1.4545624344	 0.1220243314	-0.391256
N	 0.1712183781	 0.0696021376	-0.0524148755	-0.190772
C	-0.9677852751	-0.5040552412	-0.1919889505	 0.344635
C	-0.95456893	-1.9915469851	-0.3153518855	-0.094082
C	 0.2389837275	-2.7886570891	 0.0398097905	-0.235194
N	-0.9424157367	-2.8233467814	 0.9207269037	-0.322222
C	-2.276683575	 0.1985791004	-0.1588045175	-0.081833
C	-3.3863460298	-0.2066260149	-1.0756135438	-0.24471
N	-3.4789298614	-0.4977752832	 0.3522889844	-0.320668
H	 0.9877718101	 1.7161824513	 0.2209835153	 0.30974
H	-1.6229522533	-2.3941398544	-1.0729032513	 0.101802
H	 0.4342045189	-3.7134424132	-0.4947734696	 0.121066
H	 1.1169821181	-2.2448133239	 0.3690475289	 0.137237
H	-0.7682983101	-2.2104857044	 1.7158923648	 0.237525
H	-2.2172702688	 1.238785843	 0.1337465199	 0.124932
H	-4.0636593255	 0.5617212354	-1.4376004432	 0.129256
H	-3.2113859024	-1.0191357657	-1.7751830321	 0.121252
H	-3.264728282	-1.4777067654	 0.52812503	 0.253293
52.8757	79.4846	165.3805	189.7461	235.647	281.1531	341.9576	383.973	435.9345	531.3287	588.8838	686.0007	731.5971	815.8068	832.293	867.5829	912.431	952.4754	968.97	977.3626	987.0268	1044.8756	1087.2885	1114.509	1139.2113	1150.6875	1172.3555	1200.5117	1252.7345	1261.7098	1282.6266	1303.2218	1305.3615	1365.6307	1412.6184	1446.2445	1504.4248	1512.7968	1703.9298	3112.9926	3125.9288	3133.4119	3194.7896	3205.3425	3222.2471	3480.9964	3492.0519	3823.571
ON=C(C1CN1)C1CN1	ON=C([C@H]1CN1)[C@H]1CN1	
InChI=1S/C5H9N3O/c9-8-5(3-1-6-3)4-2-7-4/h3-4,6-7,9H,1-2H2	InChI=1S/C5H9N3O/c9-8-5(3-1-6-3)4-2-7-4/h3-4,6-7,9H,1-2H2/t3-,4-/m1/s1
