18
gdb 73434	2.96022	1.95742	1.43918	1.5907	73.45	-0.2151	0.0633	0.2784	920.4022	0.149599	-401.873656	-401.866746	-401.865802	-401.904564	28.812	
O	-0.125683455	 1.3228251686	-0.091778467	-0.476926
C	 0.0260654552	-0.0712161326	-0.0405478141	 0.405448
C	 1.2029386637	-0.6169749768	-0.8114628681	-0.295245
C	 1.4281404273	-2.1066713366	-0.4907333917	-0.240194
C	 0.2159235133	-2.7525124027	 0.1380486631	-0.011626
C	-1.1807052284	-2.2670923206	 0.0344703399	-0.071533
C	-1.3187348317	-0.7390397393	-0.0357679732	-0.129042
C	-0.5039532611	-0.687549001	 1.2388853011	-0.10353
N	-0.4383136802	-2.1988684437	 1.3506261631	-0.173477
H	 0.6086080598	 1.7160360932	 0.3936979165	 0.282414
H	 1.0186246262	-0.4618789897	-1.8805201145	 0.11113
H	 2.0992799528	-0.0356227326	-0.5631302996	 0.090948
H	 1.7025856776	-2.6602390942	-1.3947742322	 0.10914
H	 2.2650089776	-2.2260426963	 0.2078904492	 0.112361
H	 0.3015743382	-3.832947468	 0.242203721	 0.095306
H	-2.0275005127	-2.9360219342	-0.0866373326	 0.095497
H	-2.2210277962	-0.2059374154	-0.3010205987	 0.101446
H	-0.6470835964	-0.113500138	 2.1459990979	 0.097883
124.8094	259.8946	307.2404	363.6434	397.8848	479.9871	493.348	501.9603	652.4658	691.6381	711.2378	777.7915	810.7937	836.7081	899.8309	906.57	912.9622	948.1352	981.2894	1009.6822	1039.7972	1055.1352	1067.5422	1093.9301	1105.6229	1147.6463	1208.8144	1219.1668	1235.8037	1247.2698	1284.1113	1313.6699	1334.5771	1347.4924	1385.5442	1432.2173	1445.1353	1485.1254	1503.4476	3021.224	3033.9509	3054.9473	3076.8852	3121.205	3150.502	3185.8223	3213.514	3788.4564
OC12CCC3C4C1C2N34	O[C@]12CC[C@@H]3[C@@H]4[C@H]1[C@H]2N34	
InChI=1S/C7H9NO/c9-7-2-1-3-5-4(7)6(7)8(3)5/h3-6,9H,1-2H2	InChI=1S/C7H9NO/c9-7-2-1-3-5-4(7)6(7)8(3)5/h3-6,9H,1-2H2/t3-,4+,5-,6-,7-,8?/m1/s1
