20
gdb 119959	2.14217	1.27622	1.10041	4.7413	77.82	-0.2383	0.0244	0.2627	1249.605	0.168633	-440.265982	-440.255837	-440.254893	-440.301545	35.301	
C	-0.8263143464	 1.0922554958	-0.7503087232	-0.233042
O	-1.2212971684	-0.2597580521	-0.6673773002	-0.217272
C	-0.9315239884	-0.8450867255	 0.577207122	-0.098105
C	-1.2973859587	-2.3178121173	 0.6000483577	-0.058028
C	-2.5905314898	-2.9073450774	 0.0759413042	-0.000638
C	-3.6984085958	-2.1002739825	-0.5610526016	-0.419616
N	-1.3244376048	-3.1334330302	-0.5915445221	-0.072013
C	-0.9735191512	-2.8294898931	-1.8895836304	 0.164903
O	-1.6642865414	-3.0493182834	-2.8561037933	-0.315193
H	-1.0767201577	 1.4407320098	-1.7540997603	 0.141167
H	-1.3533984707	 1.7142745706	-0.0111911452	 0.111522
H	 0.2566196248	 1.2057654212	-0.5896437251	 0.111865
H	 0.1451476076	-0.7460298669	 0.7998411684	 0.10106
H	-1.4711750213	-0.3306514719	 1.3917364386	 0.103937
H	-0.8588684578	-2.8119716373	 1.4685481892	 0.099485
H	-2.9427675028	-3.7891554807	 0.6127288082	 0.097652
H	-3.3217319505	-1.183344491	-1.0112632876	 0.151968
H	-4.1888418538	-2.691861969	-1.3387880185	 0.144577
H	-4.4453239456	-1.8434058366	 0.1978561643	 0.110968
H	 0.0612563928	-2.4451542924	-1.956419795	 0.074805
72.3642	86.7332	108.6133	138.6921	180.0373	200.2649	229.946	244.6156	290.5276	356.4383	385.5339	490.31	583.1865	714.4504	755.5729	817.0977	899.697	968.8988	1013.479	1028.4401	1054.624	1080.1049	1119.8987	1148.4422	1169.3947	1176.9781	1189.2416	1196.3545	1232.1641	1278.4893	1382.9615	1385.6075	1414.6346	1420.2374	1430.6262	1463.4703	1481.4753	1486.6157	1495.501	1500.6995	1502.0098	1526.0644	1792.027	2946.6005	2956.1188	2970.4936	2980.8948	3029.011	3046.8552	3088.2758	3098.4461	3111.9195	3129.0076	3171.1823
COCC1C(C)N1C=O	COC[C@H]1[C@@H](C)N1C=O	
InChI=1S/C6H11NO2/c1-5-6(3-9-2)7(5)4-8/h4-6H,3H2,1-2H3	InChI=1S/C6H11NO2/c1-5-6(3-9-2)7(5)4-8/h4-6H,3H2,1-2H3/t5-,6+,7?/m1/s1
