16
gdb 11073	2.62204	2.2453	1.69036	2.5659	61.18	-0.2211	0.0442	0.2653	833.1316	0.128403	-420.819529	-420.81153	-420.810585	-420.851256	30.224	
C	 0.0514143567	 1.5495326215	-0.0262263569	-0.49213
C	 0.0703662906	 0.0632076181	 0.0641693191	 0.362391
O	 0.581826451	-0.7009241639	-1.0445862608	-0.316868
C	 1.22402647	-1.6489842561	-0.1500645816	-0.146134
C	 0.5867136157	-0.9699092895	 1.0481650939	 0.188536
O	 1.1398575663	-0.7859949709	 2.3066187818	-0.45484
C	-0.9090175568	-0.7997012865	 0.8325129625	-0.001823
O	-1.5672872354	-0.1853034591	 1.8994577662	-0.436693
H	 1.0603092612	 1.9664126901	-0.0988614994	 0.126654
H	-0.5124262512	 1.8577657879	-0.913804393	 0.135103
H	-0.4473150597	 1.961938844	 0.8539972332	 0.139443
H	 0.9441793534	-2.6862630101	-0.3702341249	 0.103215
H	 2.3152121862	-1.5387545905	-0.1780993114	 0.113765
H	 1.0807258631	-1.6202591267	 2.7899122347	 0.295567
H	-1.5100082153	-1.5466517016	 0.3141033561	 0.097094
H	-0.9493288059	-0.1700225066	 2.6429325105	 0.286719
156.6966	184.782	211.3712	243.827	273.126	292.8983	349.6607	426.2632	466.3476	489.7388	565.8537	680.6942	714.0634	733.3307	884.9303	929.0914	984.4791	1012.7131	1055.4377	1097.7153	1131.2361	1149.3511	1164.7352	1210.8344	1271.0763	1280.8338	1311.8469	1348.7686	1388.0058	1408.6842	1473.6018	1481.9331	1502.3732	1522.8055	3015.281	3037.6078	3066.2749	3100.5432	3106.9746	3131.921	3743.8208	3760.9538
CC12OCC1(O)C2O	C[C@@]12OC[C@]1(O)[C@H]2O	
InChI=1S/C5H8O3/c1-4-3(6)5(4,7)2-8-4/h3,6-7H,2H2,1H3	InChI=1S/C5H8O3/c1-4-3(6)5(4,7)2-8-4/h3,6-7H,2H2,1H3/t3-,4-,5-/m0/s1
