23
gdb 122338	2.49511	0.95201	0.94838	1.8543	82.79	-0.2427	0.0647	0.3074	1452.6863	0.203689	-425.40249	-425.391684	-425.39074	-425.438949	38.833	
C	 0.2613957235	 1.4344154935	 0.5037117986	-0.413187
C	 0.2173967296	-0.0200132253	 0.0802579896	-0.052835
C	 0.7428996582	-0.484357716	-1.2728630513	-0.064622
C	 1.3293937769	 0.4730777325	-2.2880870874	-0.398857
C	 1.4825676336	-0.854011083	-0.019385179	 0.101104
O	 2.7253410289	-0.2526974841	 0.1812925573	-0.2649
C	 3.1282294829	-0.2097780543	 1.5444250071	-0.066977
C	 4.4054709855	 0.6136414466	 1.5946848932	-0.069257
O	 4.2019939978	 1.9173984299	 1.0824679375	-0.419326
H	 1.2647430791	 1.8570957676	 0.4152839392	 0.128873
H	-0.4201135264	 2.0481643908	-0.0955751202	 0.115271
H	-0.0405977941	 1.5378150523	 1.55128283	 0.116044
H	-0.6583445714	-0.5572529112	 0.4360893004	 0.080718
H	 0.1845410869	-1.3019162409	-1.7225114311	 0.083808
H	 1.9257942816	 1.2566756433	-1.8181214602	 0.119377
H	 1.9808288559	-0.0583716973	-2.9899750452	 0.11935
H	 0.536971822	 0.9562261837	-2.8697899872	 0.116062
H	 1.4450645431	-1.8899541447	 0.3211635187	 0.079169
H	 2.3471976301	 0.2609048302	 2.1571886177	 0.10353
H	 3.3046952572	-1.2274730341	 1.9283542234	 0.08883
H	 4.733926412	 0.7227106216	 2.6332573686	 0.109368
H	 5.1988499209	 0.0860175845	 1.0423867624	 0.094837
H	 3.8466963565	 1.7956489445	 0.1947841279	 0.293621
55.8887	65.9342	113.645	138.544	158.4473	182.3423	213.5183	247.4657	284.5835	317.0484	427.0092	462.4095	497.1134	571.2544	622.8213	749.4571	776.6619	844.324	899.346	913.9484	957.8845	969.0898	1030.3611	1049.3937	1072.922	1101.5331	1117.8843	1135.4514	1139.4741	1159.6664	1181.1538	1190.4019	1238.6894	1260.3577	1266.001	1359.5671	1369.1507	1390.7151	1407.009	1414.5077	1420.8617	1433.0815	1458.0247	1487.3969	1491.6845	1496.3027	1504.2469	1509.6065	1510.1681	2977.2433	2987.2435	3033.6011	3035.4896	3038.6453	3081.6432	3083.3891	3088.1801	3092.413	3116.6642	3126.2472	3133.5379	3144.455	3806.1862
CC1C(C)C1OCCO	C[C@H]1[C@@H](C)[C@H]1OCCO	
InChI=1S/C7H14O2/c1-5-6(2)7(5)9-4-3-8/h5-8H,3-4H2,1-2H3	InChI=1S/C7H14O2/c1-5-6(2)7(5)9-4-3-8/h5-8H,3-4H2,1-2H3/t5-,6+,7-
