18
gdb 107770	2.75663	1.63647	1.27313	4.1593	74.49	-0.243	0.0044	0.2474	1037.0072	0.147583	-401.914311	-401.90636	-401.905416	-401.946893	30.428	
C	-0.0501610186	 1.5406748405	 0.0688902693	-0.390294
C	-0.0545975202	 0.0058121541	 0.0247786737	-0.312631
C	 0.6524882189	-0.530906952	-1.192298625	 0.171536
C	 0.1629034601	-0.28719053	-2.6572698602	-0.286479
C	 0.9365758337	-1.5596082233	-3.0120695983	-0.032985
C	 0.9410432925	-2.0331901901	-1.6261556407	-0.114239
N	 2.2521876886	-1.5735324015	-2.2686681433	-0.205741
C	 2.1619808321	-0.4144711107	-1.3847768376	 0.424432
O	 3.0439559665	 0.2098464265	-0.8818631028	-0.331067
H	 0.9745660305	 1.9215187128	 0.0720218989	 0.150665
H	-0.5685456548	 1.9651529433	-0.7972945845	 0.118401
H	-0.5542074064	 1.9027563201	 0.9692316422	 0.11771
H	 0.4370891023	-0.3872480418	 0.92298203	 0.114314
H	-1.085614132	-0.3692533625	 0.0424645158	 0.101984
H	-0.9142970774	-0.4474734911	-2.7550475222	 0.116424
H	 0.4484886095	 0.6547661697	-3.1363330346	 0.115764
H	 0.9319756336	-2.1222010671	-3.9364150786	 0.116566
H	 0.8695072212	-2.988391777	-1.1275551322	 0.12564
80.86	137.1329	184.8875	202.4729	281.5129	364.3112	410.2594	486.0558	635.5603	673.167	688.3399	760.1581	781.6504	816.643	858.1599	876.2245	889.4225	937.7901	968.3173	977.5585	1012.903	1030.2842	1056.2073	1105.0549	1118.0049	1162.8225	1198.0368	1217.4782	1249.4273	1301.7475	1320.1857	1347.2188	1379.8257	1410.8636	1486.78	1497.9445	1499.7901	1512.657	1906.313	3023.6698	3041.187	3048.8469	3058.4617	3107.8008	3109.164	3126.5883	3204.3875	3237.114
CCC12CC3C1N3C2=O	CC[C@]12C[C@@H]3[C@H]1N3C2=O	
InChI=1S/C7H9NO/c1-2-7-3-4-5(7)8(4)6(7)9/h4-5H,2-3H2,1H3	InChI=1S/C7H9NO/c1-2-7-3-4-5(7)8(4)6(7)9/h4-5H,2-3H2,1H3/t4-,5-,7+,8?/m1/s1
