18
gdb 35110	3.17173	1.39594	1.08983	1.9321	82.97	-0.2388	0.0231	0.2619	1123.9594	0.148955	-364.763053	-364.755196	-364.754252	-364.795414	31.012	
C	-0.5066394979	-1.0138050006	-1.0866099602	-0.477316
C	-0.2610975021	 0.0128653705	-0.5122095928	 0.335933
C	 0.0341148115	 1.2718983649	 0.1770055714	-0.212344
C	-0.5250899381	 1.2873088817	 1.5866275724	-0.044418
C	 0.1026048462	 1.8072491424	 2.6370559604	-0.061277
C	 1.4659860197	 2.4396888286	 2.5989889882	-0.266281
C	 2.2172024747	 2.1704102426	 1.3117341876	-0.03632
N	 2.4011033385	 0.7521071784	 0.9610105615	-0.318711
C	 1.527306335	 1.5890101672	 0.1316593426	-0.040719
H	-0.7196408431	-1.925501591	-1.5872218343	 0.193019
H	-0.4712384363	 2.0735967718	-0.3865906988	 0.11351
H	-1.5121423919	 0.8496718075	 1.7001192054	 0.098631
H	-0.392031137	 1.7910875093	 3.6051840138	 0.089609
H	 1.3679385022	 3.5268858666	 2.7346100861	 0.109584
H	 2.0628740962	 2.0869813784	 3.450945211	 0.114282
H	 3.0461521097	 2.8466921438	 1.1118021109	 0.08225
H	 3.2932420889	 0.6089900204	 0.4966742095	 0.231852
H	 1.8874246338	 1.8696381875	-0.8554507747	 0.088717
78.1939	133.8907	195.6655	317.9808	350.7575	381.227	451.3524	506.9369	542.0266	613.5299	641.0552	648.7831	697.3363	779.0446	825.5818	859.7741	874.2463	917.5148	937.5338	987.7035	1003.1535	1018.8745	1039.1811	1076.7883	1118.7214	1169.9461	1184.5366	1224.5139	1236.5408	1275.0367	1289.4828	1321.717	1366.5765	1385.5025	1427.6495	1465.7067	1469.663	1733.0895	2236.1354	2966.0325	3001.9327	3031.3839	3118.929	3133.2555	3151.2122	3180.8997	3504.7044	3512.5528
C#CC1C=CCC2NC12	C#C[C@H]1C=CC[C@H]2N[C@@H]12	
InChI=1S/C8H9N/c1-2-6-4-3-5-7-8(6)9-7/h1,3-4,6-9H,5H2	InChI=1S/C8H9N/c1-2-6-4-3-5-7-8(6)9-7/h1,3-4,6-9H,5H2/t6-,7+,8-/m0/s1
