20
gdb 76975	2.44738	1.26659	1.08783	1.4964	82.39	-0.2274	-0.0338	0.1936	1226.4074	0.169428	-403.108332	-403.099015	-403.09807	-403.142675	34.2	
C	-0.6805361216	 1.2022748293	 0.3634975213	-0.328915
N	-0.0413609754	-0.1070581738	 0.247022555	-0.106878
C	 1.1784028423	-0.2905153763	-0.5606361528	-0.134814
C	 1.9175784082	 0.8165666058	-1.2133700089	 0.151705
O	 1.9810229349	 1.9683267416	-0.8388190939	-0.280822
C	 1.1672517428	-0.4179771854	 0.9622518994	-0.01611
C	 1.8839951142	 0.5334522421	 1.8628317249	 0.002257
C	 1.6903369342	 0.3978579035	 3.35827671	-0.271775
C	 3.0006749136	 0.0045779633	 2.7322984141	-0.274874
H	 0.0027947384	 2.0555347582	 0.3395496863	 0.14852
H	-1.3922204038	 1.3066267255	-0.4608665198	 0.123507
H	-1.2441217555	 1.2137897597	 1.3011980331	 0.12603
H	 1.1804060086	-1.2079591888	-1.1469060002	 0.095486
H	 2.445532062	 0.4989854247	-2.1405360064	 0.082209
H	 1.19519707	-1.4496351598	 1.3191622579	 0.0949
H	 2.0110301632	 1.535921984	 1.4758759667	 0.124559
H	 1.6460986409	 1.3069382509	 3.9472119258	 0.117978
H	 1.0423203506	-0.3958813924	 3.7154225764	 0.115587
H	 3.2341930814	-1.053735796	 2.6714944581	 0.112715
H	 3.8644811308	 0.6405952537	 2.8881418731	 0.118736
62.3601	129.5746	140.8007	175.214	184.42	237.4878	267.0892	306.7555	378.8584	448.5802	536.8011	687.5164	766.9618	773.5783	819.3444	842.6435	864.2298	923.1141	928.9452	981.3423	1000.1488	1047.7874	1062.5864	1075.9012	1081.9989	1140.584	1149.5859	1158.6163	1170.9314	1201.2382	1219.8833	1227.8031	1312.2007	1348.3882	1382.4836	1430.6018	1444.434	1458.5448	1470.3309	1483.7313	1505.1915	1515.214	1786.2629	2877.1524	3037.3664	3078.9467	3108.0925	3114.6909	3120.7204	3130.4566	3135.0001	3201.5835	3209.9997	3226.4129
CN1C(C=O)C1C1CC1	CN1[C@@H](C=O)[C@H]1C1CC1	
InChI=1S/C7H11NO/c1-8-6(4-9)7(8)5-2-3-5/h4-7H,2-3H2,1H3	InChI=1S/C7H11NO/c1-8-6(4-9)7(8)5-2-3-5/h4-7H,2-3H2,1H3/t6-,7+,8?/m0/s1
