19
gdb 110379	3.76334	1.07687	1.02432	2.6235	74.39	-0.2491	0.0602	0.3093	1226.2886	0.159996	-422.951207	-422.943379	-422.942435	-422.983699	30.585	
O	 0.0131854219	 1.3014903818	 0.3042530953	-0.41882
C	-0.0525996178	-0.0286604083	-0.1829387938	-0.093203
C	-1.4441218942	-0.6152265894	-0.0861065034	-0.048318
C	-1.5508988272	-2.1132127671	-0.0327655324	-0.098173
C	-1.8145916603	-1.2621730053	 1.2234639284	-0.079488
C	-3.2854550245	-1.7330034155	 1.2070055115	 0.095893
O	-4.2266880202	-0.9181839176	 0.4639612533	-0.297637
C	-4.1057878863	-1.7732692045	-0.7054396475	-0.109477
C	-3.0137901656	-2.6198118481	-0.0207844386	-0.082254
H	-0.3654677331	 1.3025370359	 1.1897135012	 0.282789
H	 0.2616145883	 0.0264489144	-1.2307372525	 0.113323
H	 0.6652958238	-0.6851477898	 0.3375239661	 0.081125
H	-2.2022270825	-0.0294163868	-0.5967584896	 0.111859
H	-0.6952095067	-2.7418736223	-0.2501900054	 0.089729
H	-1.2061433777	-1.1508120805	 2.114926704	 0.080807
H	-3.6927144864	-2.0975800747	 2.1529080919	 0.079924
H	-5.04076496	-2.3155897502	-0.8919429306	 0.10328
H	-3.826724324	-1.213835298	-1.6056609149	 0.105728
H	-3.1328272776	-3.701529284	 0.003637407	 0.082912
97.9047	134.8296	194.7679	227.9745	319.0136	362.2392	423.0093	446.4131	573.5987	700.4636	759.0643	796.2814	839.9733	866.263	874.1537	927.9625	950.3373	970.2703	982.706	996.6021	1023.6945	1047.6165	1066.7112	1068.3775	1110.6307	1117.9764	1159.0187	1168.9471	1191.3229	1216.1391	1226.0286	1263.1738	1279.175	1291.7235	1325.1573	1348.678	1368.3962	1419.1466	1435.9938	1507.4983	1519.5128	2960.1377	3018.19	3064.8352	3067.5939	3081.9594	3128.3844	3159.9965	3161.3289	3178.7625	3810.2167
OCC1C2C1C1OCC21	OC[C@H]1[C@H]2[C@@H]1[C@H]1OC[C@@H]21	
InChI=1S/C7H10O2/c8-1-3-5-4-2-9-7(4)6(3)5/h3-8H,1-2H2	InChI=1S/C7H10O2/c8-1-3-5-4-2-9-7(4)6(3)5/h3-8H,1-2H2/t3-,4-,5+,6+,7-/m0/s1
