16
gdb 32120	3.65843	1.18668	0.90186	3.6757	78.45	-0.2058	-0.0258	0.18	1243.1039	0.12617	-434.128136	-434.119985	-434.119041	-434.161073	30.267	
C	 0.0785987885	 1.398708641	-0.0481464451	-0.324435
N	-0.059423174	-0.0355237701	 0.0606124392	-0.351144
C	-1.2551222988	-0.6921656539	 0.0276077643	 0.394223
C	-2.5000769299	-0.0338513163	 0.0817897874	-0.108637
N	-3.6417913655	-0.7165567301	 0.0728861325	-0.216893
C	-3.5865510568	-2.042512419	 0.0082637906	-0.108026
C	-2.3446036706	-2.6877293066	-0.0527405462	 0.402091
O	-2.3042155983	-4.0330356483	-0.1248869275	-0.416293
N	-1.1944177685	-2.0338620847	-0.0460418983	-0.429956
H	 1.1402117523	 1.6511747289	-0.0268023331	 0.133338
H	-0.3521506532	 1.7977347146	-0.9775730008	 0.129382
H	-0.4022285987	 1.9090159372	 0.7947431191	 0.139153
H	 0.7430711071	-0.6156459979	-0.1204789264	 0.247697
H	-2.5674997582	 1.0469051367	 0.1335405962	 0.099745
H	-4.5116839597	-2.6076515682	-0.0001028085	 0.113855
H	-1.3684368659	-4.2755006934	-0.1557115935	 0.2959
72.4595	146.4746	205.6046	213.8772	248.2814	357.988	400.1792	480.5287	501.5561	533.8529	575.4456	607.4766	701.0774	744.7421	780.2352	852.1959	892.5081	992.4103	1010.5938	1099.0068	1159.5094	1173.8164	1209.8269	1224.2651	1287.2598	1331.3122	1381.8582	1437.6443	1467.5822	1483.9851	1496.3479	1523.2945	1573.9485	1598.7673	1635.9884	3000.3547	3056.9572	3129.8779	3185.4227	3192.3498	3646.8005	3768.4187
CNC1=CN=CC(O)=N1	CNc1cncc(O)n1	
InChI=1S/C5H7N3O/c1-6-4-2-7-3-5(9)8-4/h2-3H,1H3,(H2,6,8,9)	InChI=1S/C5H7N3O/c1-6-4-2-7-3-5(9)8-4/h2-3H,1H3,(H2,6,8,9)
