14
gdb 124271	4.19378	1.12057	0.8897	4.2886	66.69	-0.2525	-0.0804	0.1721	1227.2652	0.100384	-470.026698	-470.018368	-470.017424	-470.060255	29.633	
C	-1.2134465693	 0.682595537	 0.2389179869	-0.480883
C	 0.1814096691	 0.2896017752	-0.1836091128	 0.300524
O	 1.1927327105	 0.7244389702	 0.311852133	-0.275341
C	 0.2571729816	-0.7103304382	-1.2987215112	 0.348173
N	-0.7388424535	-1.2688500464	-1.9257222396	-0.351689
C	-0.0864317524	-2.0761393962	-2.8280403334	 0.4125
N	-0.7647366518	-2.8198462689	-3.752405557	-0.588826
N	 1.2298596535	-2.0256642577	-2.7558345105	-0.18946
O	 1.4548276535	-1.0994035343	-1.7303833569	-0.182122
H	-1.7582701905	 1.1105445533	-0.6085429356	 0.158927
H	-1.7765965499	-0.2010244704	 0.5552888805	 0.156646
H	-1.1505546354	 1.4046012156	 1.053129399	 0.147234
H	-1.7041032221	-3.0687052999	-3.4849102468	 0.271509
H	-0.2371687432	-3.5652540993	-4.1803198854	 0.272809
56.8754	121.349	151.0073	161.0112	315.6257	353.0137	359.8539	396.7304	528.3552	540.2689	542.1984	623.5047	715.2478	758.485	784.4245	935.7773	972.5171	1028.4903	1044.6325	1045.2794	1123.4054	1166.6342	1339.4225	1389.7477	1431.6055	1456.32	1464.8196	1559.7065	1614.3442	1656.7318	1807.9585	3049.8871	3113.1083	3163.385	3590.5378	3701.3916
CC(=O)C1=NC(N)=NO1	CC(=O)c1nc(N)no1	
InChI=1S/C4H5N3O2/c1-2(8)3-6-4(5)7-9-3/h1H3,(H2,5,7)	InChI=1S/C4H5N3O2/c1-2(8)3-6-4(5)7-9-3/h1H3,(H2,5,7)
