23
gdb 94543	2.28618	1.45554	1.14349	1.7331	81.57	-0.2366	0.062	0.2987	1213.4884	0.203178	-425.415144	-425.40472	-425.403776	-425.449679	39.388	
C	-1.0892033275	 1.1754597244	 0.1280295285	-0.426352
C	-0.198176932	-0.0525081906	 0.0033307133	-0.026622
C	 1.1014842413	 0.041376594	-0.8208516602	-0.079659
O	 1.8441834471	-0.6638782672	 0.1950128669	-0.296635
C	 0.7523670137	-0.5613817783	 1.135424536	 0.126463
C	 1.120773089	 0.3201715537	 2.3395413755	 0.32397
C	-0.0343085193	 0.367337126	 3.3511630559	-0.425757
C	 2.3932108527	-0.2436356672	 2.9884384884	-0.422915
O	 1.388500034	 1.6309160423	 1.8265992176	-0.461293
H	-0.5376930431	 2.0279193462	 0.5253770338	 0.145205
H	-1.4879678423	 1.4420127797	-0.8578697181	 0.107726
H	-1.9493485542	 0.9833431347	 0.7784600058	 0.111097
H	-0.7981113592	-0.8987761393	-0.3459551669	 0.079433
H	 1.1227742296	-0.4826794624	-1.7832908262	 0.093531
H	 1.4742374475	 1.0651150588	-0.9512781104	 0.104823
H	 0.4857653946	-1.5523031798	 1.5282108037	 0.06684
H	-0.2834753895	-0.6338154552	 3.717899784	 0.11462
H	 0.2503240526	 0.9753240304	 4.2172966856	 0.105313
H	-0.9299178424	 0.8091393968	 2.9092896189	 0.127032
H	 3.195085589	-0.287054317	 2.2492754845	 0.147336
H	 2.7075905597	 0.3945611185	 3.8233532665	 0.096062
H	 2.2271171664	-1.2493859855	 3.3875877799	 0.113483
H	 1.8042483424	 2.142850677	 2.5276595468	 0.276297
94.3915	115.9402	187.5021	206.3278	216.1969	239.0559	252.4138	265.1685	282.1803	328.9413	363.5692	397.1878	411.5467	524.1993	575.1652	690.9679	787.4096	844.5118	892.7207	922.0004	936.886	946.2163	964.3637	1010.9632	1015.4835	1044.5331	1076.9667	1147.2937	1155.9165	1166.7765	1180.2529	1201.5923	1216.833	1279.9149	1289.4724	1345.4757	1352.3933	1389.1327	1394.0322	1399.2504	1411.7491	1417.1508	1479.809	1482.7836	1494.8056	1499.9517	1510.6585	1514.3142	1520.2868	3002.3429	3016.3	3025.9124	3031.8452	3035.6488	3048.0609	3069.4055	3085.5077	3089.6968	3098.814	3132.0055	3140.397	3150.7204	3815.4543
CC1COC1C(C)(C)O	C[C@H]1CO[C@H]1C(C)(C)O	
InChI=1S/C7H14O2/c1-5-4-9-6(5)7(2,3)8/h5-6,8H,4H2,1-3H3	InChI=1S/C7H14O2/c1-5-4-9-6(5)7(2,3)8/h5-6,8H,4H2,1-3H3/t5-,6+/m0/s1
