19
gdb 47040	2.69491	1.58402	1.33546	4.437	73.95	-0.2574	0.0166	0.274	1027.2211	0.161779	-423.063978	-423.056464	-423.05552	-423.09637	29.378	
O	-0.2110688559	 0.6100965979	 1.1034333594	-0.329216
C	-0.1283711065	 1.3390263206	 0.15348572	 0.415462
C	-1.2772829289	 1.6791442388	-0.7818128713	-0.363408
C	-1.347662948	 3.1781193767	-1.0931318737	-0.010617
C	-1.4905176572	 4.1303367657	 0.1324884767	-0.23026
C	-0.0864549749	 4.732180009	-0.1639494599	-0.231146
C	 0.0594237847	 3.787088502	-1.3934373121	-0.01803
C	 1.1612786929	 2.7446965799	-1.316396985	-0.100352
O	 1.0601649223	 1.9372589586	-0.1293510296	-0.225125
H	-1.1309614373	 1.1174230338	-1.7145976062	 0.126232
H	-2.1945537214	 1.3080782956	-0.3198329512	 0.132453
H	-2.0903562173	 3.3542246218	-1.8746497717	 0.076548
H	-2.3175519448	 4.8391935481	 0.0551993953	 0.103055
H	-1.5728138173	 3.6163760608	 1.094023161	 0.119912
H	-0.0868609086	 5.7951200881	-0.413615408	 0.103795
H	 0.6547058214	 4.5623248981	 0.6203599816	 0.118414
H	 0.1348399652	 4.3062857409	-2.3529066364	 0.0769
H	 1.143051953	 2.0920760863	-2.1999180296	 0.110259
H	 2.1519486987	 3.2037296273	-1.2591709693	 0.125127
66.1533	110.2137	217.5684	330.1696	346.4368	423.9957	489.4561	519.9273	611.0706	695.5832	743.1743	749.0168	788.6892	827.4545	861.4053	891.5329	956.7843	985.9393	994.0631	1022.8702	1063.3404	1088.3075	1117.8404	1132.8764	1159.4402	1218.103	1233.7488	1236.5619	1262.0029	1273.2879	1286.6797	1304.4082	1318.8568	1346.5309	1370.1876	1413.162	1466.6734	1477.0893	1497.8644	1508.3741	1851.4261	3013.8187	3024.8522	3061.8545	3063.6585	3069.399	3078.6858	3094.0403	3107.8325	3112.805	3127.4433
O=C1CC2CCC2CO1	O=C1C[C@H]2CC[C@H]2CO1	
InChI=1S/C7H10O2/c8-7-3-5-1-2-6(5)4-9-7/h5-6H,1-4H2	InChI=1S/C7H10O2/c8-7-3-5-1-2-6(5)4-9-7/h5-6H,1-4H2/t5-,6+/m1/s1
