17
gdb 73110	2.77991	1.59816	1.29211	5.2643	67.59	-0.2886	0.0449	0.3335	1017.9939	0.136215	-459.017209	-459.009486	-459.008542	-459.050051	29.228	
C	-0.0867588155	 1.5287646135	 0.0864586222	-0.461401
C	 0.0456354363	 0.0246747799	 0.03054616	 0.384144
C	-1.2174320937	-0.8544311102	 0.2516294036	-0.281649
C	-0.4693578023	-1.6436936736	 1.3723283613	-0.251331
C	 0.7795075979	-0.7539522956	 1.1590933706	 0.047644
O	 1.8686978892	-1.3986999106	 0.5087149924	-0.253044
C	 1.8173825668	-1.1718335775	-0.8332396517	 0.478712
O	 2.5831679846	-1.6239458494	-1.6218106967	-0.368831
O	 0.7754355957	-0.3574171302	-1.1458190602	-0.282094
H	 0.8976868588	 2.0051962795	 0.0573283478	 0.135912
H	-0.6721747669	 1.8931854724	-0.7631388641	 0.141334
H	-0.5946581231	 1.831549729	 1.0072200024	 0.12383
H	-2.0885775022	-0.2926001835	 0.5952321131	 0.113635
H	-1.496801275	-1.4339889345	-0.6294811951	 0.126922
H	-0.9119968412	-1.5601083985	 2.3667483607	 0.116451
H	-0.280816257	-2.6973167433	 1.1596935238	 0.129401
H	 1.1617451974	-0.2011918972	 2.0189447498	 0.100363
45.3509	126.4721	217.2267	256.0904	312.5235	385.8071	423.8061	524.0968	602.9229	681.7756	701.0549	750.0123	774.2111	831.8816	899.7261	906.7818	927.0317	949.1812	981.063	999.1038	1075.5898	1112.8413	1153.703	1189.2474	1200.8421	1225.8733	1229.2004	1265.8137	1278.36	1330.1136	1374.6123	1412.6546	1467.2867	1482.6065	1483.7461	1490.1659	1924.0587	3039.9493	3075.6642	3080.2766	3098.9223	3115.453	3117.7438	3127.1786	3143.6186
CC12CCC1OC(=O)O2	C[C@]12CC[C@H]1OC(=O)O2	
InChI=1S/C6H8O3/c1-6-3-2-4(6)8-5(7)9-6/h4H,2-3H2,1H3	InChI=1S/C6H8O3/c1-6-3-2-4(6)8-5(7)9-6/h4H,2-3H2,1H3/t4-,6+/m1/s1
