23
gdb 60430	4.29015	0.59508	0.54959	1.6398	84.09	-0.2445	-0.0106	0.2338	2093.8385	0.201034	-425.452885	-425.441162	-425.440217	-425.491973	40.311	
C	 0.0241292955	 1.4756412323	 0.1262901299	-0.394125
C	-0.0405846354	-0.0492667957	-0.0038871325	 0.161486
C	-1.4694009768	-0.5475989989	-0.1921791501	-0.387231
O	 0.6986536254	-0.5222918958	-1.1255793928	-0.264957
C	 2.1028136144	-0.4877308565	-0.9794082818	-0.060363
C	 2.7046127297	-1.1928547745	-2.1866448692	-0.310914
C	 4.2240669685	-1.2277248742	-2.1668379023	 0.377338
C	 4.8966936161	-1.9275963103	-3.3346897879	-0.472518
O	 4.8627465435	-0.7261414037	-1.2685513193	-0.293783
H	 1.047369944	 1.8281758976	 0.2824811125	 0.120421
H	-0.3689314853	 1.9489787949	-0.7795165875	 0.119383
H	-0.5745779047	 1.8109518706	 0.9792124349	 0.113799
H	 0.3798323542	-0.5015747899	 0.910916988	 0.063848
H	-1.9023507613	-0.121721514	-1.1031051913	 0.120961
H	-1.4846903866	-1.6368008033	-0.2838190325	 0.118022
H	-2.0961110519	-0.257942934	 0.6564109073	 0.111429
H	 2.4862575378	 0.5403164745	-0.9228782447	 0.103889
H	 2.4130371102	-0.9932846802	-0.0518479159	 0.098196
H	 2.3230854368	-2.2202107181	-2.2524998346	 0.126716
H	 2.3719167267	-0.7029487147	-3.1113613679	 0.128629
H	 4.6038170285	-1.4602231427	-4.281504077	 0.138412
H	 5.9802292478	-1.8804685731	-3.2203245143	 0.142375
H	 4.5766255231	-2.9743900103	-3.3864563308	 0.138988
24.4017	50.8636	63.5414	95.2199	116.1	138.1396	204.7521	224.6345	257.6692	267.4506	381.7135	400.9679	477.1692	481.4701	498.638	600.4281	762.6892	808.3496	859.66	923.6936	928.2161	937.9619	943.3634	955.3399	1091.258	1111.9957	1122.6432	1151.0457	1173.3139	1182.039	1202.3468	1220.6906	1302.6712	1332.7888	1364.4222	1373.0121	1385.4736	1397.1765	1413.2942	1436.3033	1456.0038	1467.0329	1477.0825	1479.8863	1485.5456	1494.9711	1509.7954	1522.4976	1806.3507	2952.4029	2987.1909	3023.5374	3028.0897	3037.3135	3038.6781	3042.3462	3062.9063	3097.9509	3107.2049	3113.997	3115.8912	3122.0061	3152.2372
CC(C)OCCC(C)=O	CC(C)OCCC(=O)C	
InChI=1S/C7H14O2/c1-6(2)9-5-4-7(3)8/h6H,4-5H2,1-3H3	InChI=1S/C7H14O2/c1-6(2)9-5-4-7(3)8/h6H,4-5H2,1-3H3
