19
gdb 112643	2.06514	1.52319	0.96844	1.841	72.5	-0.2251	0.0513	0.2763	1235.2945	0.160107	-456.368247	-456.359077	-456.358133	-456.402425	34.399	
C	-0.0804637652	 1.5523333499	-0.1480256757	-0.394959
C	 0.0702060131	 0.0368859077	-0.0091339632	 0.014586
N	 0.8067792447	-0.5456404827	-1.1410892896	-0.350928
C	 1.6500226583	-1.3574109296	-0.6415019057	 0.461195
N	 2.5695341448	-2.1123507666	-1.3190519586	-0.578744
O	 1.7164027906	-1.5020897459	 0.7143518599	-0.279555
C	 0.841056669	-0.467868742	 1.2526036733	 0.054617
C	 1.7339792645	 0.53031776	 1.9828339227	-0.068308
O	 2.4631312746	-0.1009854499	 3.0176684481	-0.425702
H	 0.8901306849	 2.0533614318	-0.194139982	 0.122059
H	-0.6117615726	 1.7741902908	-1.0770051578	 0.129013
H	-0.6556311	 1.9746343153	 0.6826203266	 0.11045
H	-0.9410574105	-0.3944868015	 0.0013996094	 0.081177
H	 2.3511588578	-2.2450679128	-2.2942184416	 0.268972
H	 2.8815712128	-2.9424594808	-0.8396029268	 0.262063
H	 0.1890564045	-0.9579448856	 1.9807719888	 0.094215
H	 2.4042708192	 1.0231222801	 1.2620664199	 0.098113
H	 1.1212639962	 1.3047598151	 2.4544913103	 0.114168
H	 2.9296540833	-0.8379483633	 2.6068481818	 0.287569
47.8528	124.4977	168.7226	200.596	247.6957	282.234	352.8438	378.5173	426.2523	442.7021	481.1303	506.9659	553.249	684.5387	718.064	740.9836	835.6621	892.0941	947.1605	967.2668	1006.7823	1036.3931	1082.4755	1087.7828	1138.9741	1146.5231	1183.3019	1223.244	1290.0444	1314.3622	1341.5259	1378.5807	1391.3349	1408.5801	1423.3449	1438.2625	1487.7219	1495.5688	1506.0203	1620.4253	1762.5496	2987.1834	2991.0356	3041.899	3074.12	3089.1521	3113.6182	3124.4281	3590.9955	3703.3249	3800.2891
CC1N=C(N)OC1CO	C[C@H]1[N][C](N)O[C@H]1CO	
InChI=1S/C5H10N2O2/c1-3-4(2-8)9-5(6)7-3/h3-4,8H,2H2,1H3,(H2,6,7)	InChI=1S/C5H10N2O2/c1-3-4(2-8)9-5(6)7-3/h3-4,8H,2H2,1H3,(H2,6,7)/t3-,4+/m1/s1
