18
gdb 126806	3.38542	1.08252	0.87831	1.6378	76.03	-0.2227	0.0058	0.2285	1349.6489	0.148349	-435.269088	-435.260088	-435.259144	-435.304236	31.605	
C	-0.1326894008	 1.5027569466	 0.1847934413	-0.377757
C	 0.079374239	-0.0062848766	 0.0606182403	-0.126742
N	 0.7677080872	-0.5706583421	 1.2089948822	 0.142205
N	 2.0614710146	-0.8506524985	 1.1958783538	-0.221519
C	 2.3218862549	-1.2624837786	 2.4371945838	-0.155603
C	 1.1237445938	-1.2012075547	 3.1708748628	 0.393077
O	 0.9660559511	-1.5397565212	 4.4570707933	-0.264088
C	-0.3526455389	-1.3948065522	 4.978261702	-0.236483
N	 0.1474838076	-0.7567728028	 2.3823750128	-0.345661
H	 0.8262451113	 2.0229558069	 0.2600008034	 0.135436
H	-0.662871002	 1.8786578673	-0.6954206966	 0.121646
H	-0.7264309755	 1.735009197	 1.0725280326	 0.140387
H	-0.8781002067	-0.5257948179	-0.0355423507	 0.130852
H	 0.6969838359	-0.2502023798	-0.8056283252	 0.139953
H	 3.3051572306	-1.5792491061	 2.7412772443	 0.126245
H	-1.061859331	-2.0248556192	 4.4311246412	 0.134062
H	-0.2988331639	-1.7079882395	 6.0215655895	 0.130841
H	-0.6878132071	-0.3542655388	 4.9133720991	 0.133148
26.7247	98.9833	108.8944	182.1052	188.0074	239.5035	330.5676	373.3351	418.9108	511.6931	631.9448	674.5123	726.529	759.6709	797.8047	838.2475	969.5088	1012.1438	1033.3554	1074.6836	1102.7852	1117.8362	1181.3428	1199.9291	1221.1329	1273.5872	1369.4469	1387.8291	1392.636	1406.4986	1420.9382	1458.0005	1475.0923	1478.2737	1481.3513	1489.1376	1502.8483	1506.1463	1598.6061	3031.0685	3046.5179	3070.1413	3096.9433	3119.1667	3121.6577	3141.9633	3146.3062	3283.272
CCN1N=CC(OC)=N1	CCn1ncc(OC)n1	
InChI=1S/C5H9N3O/c1-3-8-6-4-5(7-8)9-2/h4H,3H2,1-2H3	InChI=1S/C5H9N3O/c1-3-8-6-4-5(7-8)9-2/h4H,3H2,1-2H3
