14
gdb 34273	3.85597	1.51906	1.22517	3.2298	74.55	-0.2286	-0.0678	0.1608	963.0909	0.098297	-399.370237	-399.363052	-399.362107	-399.401523	28.484	
C	 0.0814894974	-1.1423687173	 0.1683782535	-0.374705
C	 0.0001112506	 0.0514539098	 0.0335305337	 0.170957
C	-0.1104777083	 1.4665843754	-0.0950100084	 0.118301
C	-1.3756786558	 2.229740259	 0.4096444921	-0.228841
N	-0.9984311532	 3.666695825	 0.2055221612	-0.215422
C	-0.0161081755	 3.5598844046	-0.5814300295	 0.23666
O	 1.3084440651	 3.7623007471	-0.1388954473	-0.259653
C	 1.3357140717	 2.2916656085	-0.3051764642	 0.046709
C	 0.3031870891	 2.2221075467	-1.3231020583	-0.234979
H	 0.1514379511	-2.195866565	 0.2834082628	 0.195593
H	-2.2754627746	 1.886975119	-0.121059293	 0.123579
H	-1.5431216083	 2.1192317698	 1.4844530509	 0.145253
H	 2.2961751641	 1.8105527926	-0.1683148077	 0.146753
H	 0.2900759066	 1.9739546947	-2.3761398057	 0.129794
140.4728	151.3745	257.5899	343.2198	425.7524	485.4585	507.9835	548.4	557.855	602.7502	618.067	659.5299	728.4468	785.9289	827.3519	844.1677	916.2032	947.8121	987.7373	1011.9114	1030.023	1098.8932	1114.7542	1164.5098	1195.8663	1212.511	1295.2903	1347.5168	1479.4764	1629.1188	2224.6136	3003.5837	3093.6488	3197.3734	3211.1685	3501.061
C#CC12CN=C3OC1C23	C#C[C@@]12C[N][C]3O[C@@H]1[C@@H]23	
InChI=1S/C7H5NO/c1-2-7-3-8-6-4(7)5(7)9-6/h1,4-5H,3H2	InChI=1S/C7H5NO/c1-2-7-3-8-6-4(7)5(7)9-6/h1,4-5H,3H2/t4-,5-,7+/m1/s1
