14
gdb 16221	3.18898	2.34988	1.53408	4.4088	57.44	-0.2637	-0.0124	0.2513	801.7501	0.107852	-419.694568	-419.68787	-419.686926	-419.725761	24.585	
O	 0.0412135999	-0.0059697268	 0.3206953335	-0.340313
C	 0.0331218777	 1.1891416366	 0.2869245971	 0.41626
O	-1.1000944149	 1.9329846297	 0.3435338146	-0.22575
C	-0.8189087594	 3.3370273962	 0.1643222249	-0.086963
C	 0.6855593162	 3.5182646067	 0.4441533739	-0.340641
C	 1.2196479317	 2.1289656309	 0.1808980056	 0.271818
C	 2.5821892252	 1.6341676371	 0.3819614168	-0.236766
O	 2.0831586757	 1.8844148467	-0.9329248571	-0.255124
H	-1.0822818377	 3.6091596675	-0.8628924141	 0.132078
H	-1.4614156987	 3.88982304	 0.851498877	 0.13161
H	 1.1513372225	 4.2675657536	-0.1977223584	 0.137674
H	 0.8505756899	 3.8001948754	 1.4885290969	 0.129485
H	 3.3465741951	 2.3263274462	 0.7323815336	 0.121791
H	 2.7243526269	 0.5848820403	 0.6315724157	 0.14484
81.733	174.3433	264.2535	268.2257	355.6538	480.0092	574.6907	681.4305	719.6745	746.2611	801.4421	883.8349	908.0852	951.1686	989.5695	1051.9989	1093.1644	1106.1677	1132.465	1172.6579	1212.3942	1239.0052	1267.4744	1304.7453	1393.5089	1435.0121	1477.3781	1516.7128	1525.565	1887.2351	3055.7005	3062.1547	3090.0275	3117.6664	3131.4678	3188.5968
O=C1OCCC11CO1	O=C1OCC[C@]21CO2	
InChI=1S/C5H6O3/c6-4-5(3-8-5)1-2-7-4/h1-3H2	InChI=1S/C5H6O3/c6-4-5(3-8-5)1-2-7-4/h1-3H2/t5-/m1/s1
