16
gdb 31326	2.71214	1.29245	0.88215	5.8437	79.98	-0.2095	-0.0406	0.1689	1261.8992	0.124281	-437.917962	-437.90941	-437.908466	-437.951541	30.634	
C	 0.0508998377	 1.4826992912	-0.0359043242	-0.330433
N	-0.1232507686	 0.04963226	 0.1045457277	-0.39506
C	 0.5561245911	-0.660982962	 1.056880965	 0.230522
C	 0.7083035713	-2.0435384447	 1.1460022129	 0.192087
O	 1.4267278163	-2.3445208043	 2.2859541612	-0.161453
C	 1.7158063836	-1.1861476496	 2.8861427417	 0.015515
C	 1.2237917817	-0.1158266683	 2.2004686794	-0.263326
C	 0.264377293	-3.1049765487	 0.2915525138	 0.058803
O	 0.4492253403	-4.2959909336	 0.4516248662	-0.306929
H	 1.0874802946	 1.7739810047	-0.2609175295	 0.12589
H	-0.5911590852	 1.8367774034	-0.8448160118	 0.135998
H	-0.2585356808	 1.9961189612	 0.8803471743	 0.14054
H	-0.3461089185	-0.4480023634	-0.741619109	 0.251407
H	 2.2837238163	-1.2567289939	 3.8009396333	 0.1478
H	 1.324205048	 0.9217717859	 2.4728998472	 0.119235
H	-0.3039952408	-2.728459548	-0.5938741083	 0.039404
81.7286	148.3332	154.2071	162.5688	227.9813	244.5876	352.251	366.5176	454.1591	572.1211	615.9139	689.436	704.4067	776.5738	802.817	846.4993	903.2364	1002.7945	1032.2764	1097.7342	1114.5437	1153.4054	1197.7706	1226.7909	1280.0747	1343.8471	1403.9701	1460.8811	1469.3923	1487.1767	1510.2868	1519.8898	1545.3114	1645.3982	1767.1589	2817.398	2995.2783	3072.1229	3128.6078	3258.6651	3279.9959	3639.02
CNC1=C(OC=C1)C=O	CNc1c(occ1)C=O	
InChI=1S/C6H7NO2/c1-7-5-2-3-9-6(5)4-8/h2-4,7H,1H3	InChI=1S/C6H7NO2/c1-7-5-2-3-9-6(5)4-8/h2-4,7H,1H3
