21
gdb 9343	6.78636	0.72657	0.68688	3.3546	77.41	-0.241	0.0384	0.2794	1711.304	0.18729	-366.30932	-366.298908	-366.297964	-366.346193	35.442	
C	 0.0415826964	 1.5380609969	 0.1294440493	-0.379967
C	 0.0105944107	 0.0158762604	-0.0326467466	-0.168845
C	-1.4105127553	-0.5543247913	-0.0220681449	-0.143835
C	-1.4514846801	-2.0777897102	-0.1811246829	-0.318929
C	-2.8770843458	-2.6000818216	-0.346968174	 0.414779
O	-3.7161657263	-2.0035720106	-1.000191341	-0.377563
N	-3.1301873354	-3.7904736292	 0.2736507787	-0.312503
C	-4.4114270264	-4.4621483115	 0.185155748	-0.332668
H	 1.0665238586	 1.9217132888	 0.1132537287	 0.109651
H	-0.5130477117	 2.0314638084	-0.6761492389	 0.117942
H	-0.4139436108	 1.8442204277	 1.077776155	 0.113657
H	 0.5052475622	-0.2632384756	-0.9728010052	 0.094032
H	 0.6008455633	-0.4495608968	 0.7685438816	 0.089262
H	-1.9121946258	-0.2739120143	 0.9135779042	 0.095076
H	-2.005271528	-0.1135167775	-0.8286292016	 0.126023
H	-0.8990756739	-2.3646412951	-1.0865259228	 0.125638
H	-0.9475256083	-2.5712333783	 0.6592731078	 0.087804
H	-2.3902448498	-4.2258692454	 0.797880085	 0.242588
H	-4.8593196542	-4.6011619951	 1.1755842529	 0.123066
H	-5.065236917	-3.8293080508	-0.4160462705	 0.171773
H	-4.3194557722	-5.4420992191	-0.2972527529	 0.123019
27.4298	74.5554	84.3655	99.5762	129.7388	169.4651	245.1221	270.9072	299.7499	357.5792	441.5514	478.5711	629.5886	718.5001	739.6298	803.0947	883.9482	920.8301	935.7641	1015.2094	1060.5112	1077.6156	1120.2908	1130.5341	1155.4363	1171.2293	1221.5741	1243.7817	1284.7343	1317.8352	1331.3025	1374.1677	1398.7067	1413.7205	1437.1305	1465.3923	1486.1198	1492.3323	1498.186	1499.5016	1500.8174	1512.5693	1557.8972	1776.0565	3007.6132	3013.5873	3023.9429	3024.692	3029.8465	3038.6278	3051.8162	3075.0733	3087.5128	3097.8749	3101.5668	3152.918	3653.1434
CCCCC(=O)NC	CCCCC(=O)NC	
InChI=1S/C6H13NO/c1-3-4-5-6(8)7-2/h3-5H2,1-2H3,(H,7,8)	InChI=1S/C6H13NO/c1-3-4-5-6(8)7-2/h3-5H2,1-2H3,(H,7,8)
