18
gdb 31055	2.49496	1.30285	0.87736	1.9733	78.46	-0.1597	0.0503	0.21	1312.3623	0.148497	-435.277586	-435.268106	-435.267162	-435.311736	35.083	
C	 0.0597614106	 1.4199667829	 0.192409292	-0.321814
N	-0.0489435793	 0.0958506532	-0.4019656045	-0.394378
C	-1.2260641523	-0.621724597	-0.1933967018	 0.300052
C	-1.3106535476	-1.9655516113	 0.0115621959	 0.157851
N	-0.3183043068	-2.9346257782	 0.1134754468	-0.607578
O	-2.6681970388	-2.3295644039	 0.0857964289	-0.206133
C	-3.3804186366	-1.1960265934	-0.0479137419	 0.383815
N	-4.7613188738	-1.3554836223	-0.0584329662	-0.595746
C	-2.5738933961	-0.1096015546	-0.2213773135	-0.364279
H	 1.0419381035	 1.8366821485	-0.0469491766	 0.11849
H	-0.6922911534	 2.0865856333	-0.2410598996	 0.127871
H	-0.0678346514	 1.4343222321	 1.287392018	 0.102945
H	 0.7519688334	-0.4896653163	-0.1994269384	 0.233404
H	-0.3409460579	-3.4489603205	 0.9888415478	 0.236329
H	-0.3212286727	-3.6070908873	-0.6483430688	 0.238836
H	-5.0641275655	-2.1232555684	 0.5278567582	 0.250821
H	-5.2523949919	-0.5064833735	 0.1859685891	 0.251369
H	-2.8911742634	 0.9105857666	-0.3623920053	 0.088146
72.7421	145.1244	176.7525	193.5132	200.5465	231.3983	281.4999	322.2857	349.1997	398.8003	542.492	580.3805	637.7367	657.6505	685.9843	713.967	722.4473	756.9336	778.5618	842.1297	1015.3604	1025.0608	1090.4835	1108.8663	1152.4435	1165.8946	1208.3748	1217.4898	1255.2064	1397.1772	1452.4295	1477.9559	1492.5033	1499.2183	1519.2337	1611.7502	1651.0897	1667.9563	1729.1951	2966.5947	3069.6995	3110.8638	3262.0717	3472.3443	3529.9013	3541.6724	3558.7885	3642.7861
CNC1=C(N)OC(N)=C1	CNc1c(N)oc(N)c1	
InChI=1S/C5H9N3O/c1-8-3-2-4(6)9-5(3)7/h2,8H,6-7H2,1H3	InChI=1S/C5H9N3O/c1-8-3-2-4(6)9-5(3)7/h2,8H,6-7H2,1H3
