18
gdb 47666	2.29354	1.77854	1.21372	3.3748	73.27	-0.2492	-0.0062	0.2429	1051.3433	0.150284	-439.121805	-439.113976	-439.113032	-439.154163	30.276	
O	-0.0478496987	 0.1625629525	-0.6306812501	-0.37552
C	-0.1088824999	 1.2645769851	-0.1475797212	 0.447216
N	-1.244449274	 1.876589505	 0.3209156315	-0.319897
C	-1.3512598795	 3.3416383752	 0.2023250382	-0.221541
C	-1.2640424129	 3.8127714776	-1.2361768607	-0.054295
C	-0.1505925374	 4.0218568417	-1.9459376151	-0.044348
C	 1.2866586005	 3.8972822801	-1.4859862602	-0.253985
C	 1.7134427199	 2.473111897	-1.0949652514	-0.085855
O	 0.9788383975	 2.0731392665	 0.0645425607	-0.251862
H	-2.0782684827	 1.3471144562	 0.1076728987	 0.250815
H	-2.3089521906	 3.6316672895	 0.6421599773	 0.111614
H	-0.5607028465	 3.7835491974	 0.8107886011	 0.137548
H	-2.2169648964	 3.9304816791	-1.7485138329	 0.090146
H	-0.2798753644	 4.3042619482	-2.9886925126	 0.096119
H	 1.9555666621	 4.2520023854	-2.2775612411	 0.106237
H	 1.4668259303	 4.5397765504	-0.6150272018	 0.124536
H	 1.551554449	 1.7525799501	-1.9027482884	 0.128573
H	 2.7727297337	 2.4591162231	-0.822652722	 0.114497
90.146	156.0031	196.6303	274.1784	319.6116	327.4808	429.021	509.5828	538.56	607.3879	638.7569	699.284	743.492	802.6978	827.4362	867.7332	915.4227	930.7452	1004.636	1010.0134	1036.8489	1077.6443	1097.4285	1117.942	1227.8881	1258.3286	1281.2501	1289.7064	1310.1126	1350.849	1378.5794	1399.8732	1429.1629	1449.4721	1473.2321	1489.3425	1507.2469	1708.6928	1837.5365	3030.5611	3051.1658	3072.5652	3077.2775	3105.6231	3119.6648	3136.3227	3158.3802	3605.6866
O=C1NCC=CCCO1	O=C1NCC=CCCO1	
InChI=1S/C6H9NO2/c8-6-7-4-2-1-3-5-9-6/h1-2H,3-5H2,(H,7,8)/b2-1-	InChI=1S/C6H9NO2/c8-6-7-4-2-1-3-5-9-6/h1-2H,3-5H2,(H,7,8)/b2-1-
