21
gdb 90354	2.86245	1.40419	1.1458	1.3109	85.04	-0.2351	0.0221	0.2572	1150.3185	0.184839	-387.091239	-387.083273	-387.082329	-387.123453	32.336	
O	 0.1724167184	 1.433212096	 0.0142184356	-0.427291
C	 0.0677644687	 0.0278460422	 0.017244686	 0.105298
C	 0.2205443393	-0.6168490369	 1.442332664	-0.351732
C	-1.2945261407	-0.6143719893	 1.49118423	 0.307197
C	-2.2501100645	-0.2937242951	 2.3543124304	-0.233214
C	-3.6522029642	 0.0007320584	 1.8685036328	-0.229615
C	-3.8317867547	-0.1940581739	 0.3462290312	-0.202885
C	-2.6129761836	 0.2757240271	-0.4756378652	-0.233116
C	-1.4051034777	-0.5303856582	-0.0172978071	-0.056552
H	-0.3594177722	 1.7695889544	 0.7454487922	 0.281147
H	 0.7444793602	-0.324976849	-0.7639356829	 0.084783
H	 0.6482932901	-1.624120215	 1.3852449541	 0.109651
H	 0.7758683228	-0.0357009189	 2.184138661	 0.105938
H	-2.0440992305	-0.1744256226	 3.4162562703	 0.081066
H	-4.3825734395	-0.6188700954	 2.4055663931	 0.104464
H	-3.9008581082	 1.0369772841	 2.1435060993	 0.103187
H	-3.9963217659	-1.2592909655	 0.1397069597	 0.100031
H	-4.7374774992	 0.3275289426	 0.019156978	 0.092884
H	-2.8065216639	 0.1568444374	-1.546928225	 0.093675
H	-2.4287242872	 1.3435833277	-0.304689435	 0.090459
H	-1.3949273473	-1.52537978	-0.4817021125	 0.074625
88.4998	186.7537	243.0659	276.6636	330.8556	369.4318	412.8644	425.9026	496.5398	542.5675	613.9868	752.8636	769.0392	796.2316	840.0285	852.9001	875.4072	909.1987	945.4765	956.3889	982.6284	1030.7286	1069.0335	1081.9242	1091.861	1114.1838	1142.1116	1172.0837	1179.6451	1195.6873	1240.9485	1260.7623	1265.4094	1305.408	1316.5131	1352.371	1365.0117	1373.173	1378.4751	1432.2837	1468.8746	1477.4777	1491.1828	1498.3721	1769.4503	2994.1025	3013.2016	3019.4969	3031.173	3034.9771	3038.6868	3070.8454	3076.613	3090.3952	3097.4808	3143.9284	3783.985
OC1CC2=CCCCC12	O[C@H]1C[C]2[CH]CCC[C@@H]12	
InChI=1S/C8H12O/c9-8-5-6-3-1-2-4-7(6)8/h3,7-9H,1-2,4-5H2	InChI=1S/C8H12O/c9-8-5-6-3-1-2-4-7(6)8/h3,7-9H,1-2,4-5H2/t7-,8+/m1/s1
