19
gdb 90440	2.49499	1.58362	1.34722	2.3799	71.	-0.2361	0.0444	0.2805	1041.513	0.158772	-460.116831	-460.108254	-460.10731	-460.149977	32.957	
C	 0.113554107	 1.5409929293	-0.3230269385	-0.417035
C	 0.1330237071	 0.0643257639	 0.0096671513	 0.170432
O	 0.931724147	-0.753206748	-0.8982618652	-0.315735
C	 1.3543639868	-1.6050748005	 0.1834137708	 0.096517
C	 2.8144454511	-1.3706797192	 0.5955520106	 0.068038
O	 3.6793542914	-1.0528234043	-0.4713661331	-0.418444
C	 2.356765208	-0.1498152739	 1.4749589954	 0.074603
O	 2.8458956289	 1.0781770249	 1.0069732644	-0.428444
C	 0.8556488204	-0.5486337253	 1.2210308393	-0.158621
H	 1.105927959	 1.9844052891	-0.2811000453	 0.139813
H	-0.3098301882	 1.6823916477	-1.3231286987	 0.121043
H	-0.5306366855	 2.066678247	 0.3905742313	 0.114991
H	-0.9025498224	-0.3134776112	-0.0065643445	 0.071246
H	 0.9850858499	-2.6302859842	 0.0827075935	 0.071114
H	 3.1958236977	-2.2023468649	 1.2017096486	 0.073709
H	 4.5860781703	-1.109632185	-0.1529043107	 0.295466
H	 2.6218773589	-0.238383607	 2.533983843	 0.080249
H	 3.1891755067	 0.8952799834	 0.1189726704	 0.290915
H	 0.2687647758	-0.7799548919	 2.1093973175	 0.070144
57.5763	180.0595	219.7184	230.0754	251.4159	271.5395	282.3849	412.2653	525.4723	530.0948	560.2681	618.1667	678.7383	739.7626	798.719	847.385	880.0348	911.7589	933.4911	991.3849	1047.7003	1057.9571	1103.8302	1128.6249	1146.3655	1157.6718	1163.77	1201.1186	1213.5228	1230.9651	1282.7529	1289.5616	1315.6731	1344.6886	1360.7155	1400.3973	1418.7654	1431.8243	1449.3362	1484.429	1498.3125	2958.4225	3017.941	3042.3714	3044.2649	3059.416	3100.1497	3115.6376	3178.2196	3707.291	3821.033
CC1OC2C(O)C(O)C12	C[C@H]1O[C@H]2[C@@H](O)[C@@H](O)[C@@H]12	
InChI=1S/C6H10O3/c1-2-3-4(7)5(8)6(3)9-2/h2-8H,1H3	InChI=1S/C6H10O3/c1-2-3-4(7)5(8)6(3)9-2/h2-8H,1H3/t2-,3-,4+,5+,6-/m1/s1
