20
gdb 115535	2.59178	1.06387	1.0405	4.5313	79.41	-0.2737	0.0104	0.2841	1314.3321	0.169253	-403.151831	-403.141947	-403.141003	-403.187559	35.433	
C	 0.0468849011	 1.6381340993	-0.0382932911	-0.387602
C	-0.1897598291	 0.1306843697	-0.1891675069	-0.207694
C	 0.7429721316	-0.4894910435	-1.2230895204	-0.071724
C	 2.2168069884	-0.7007706312	-0.8132913704	-0.08567
O	 2.101872503	-2.1365254161	-0.9453038085	-0.300493
C	 0.7361937248	-2.0499855517	-1.4080002806	 0.238926
C	-0.2013150084	-2.9115698039	-0.5703386048	-0.43689
C	 0.6448629784	-2.4415458372	-2.8283698193	 0.262264
N	 0.561304949	-2.729517831	-3.9447225207	-0.340146
H	 1.0757734365	 1.8516924253	 0.2712077215	 0.122706
H	-0.1316029642	 2.1631049344	-0.9827449386	 0.124321
H	-0.6207628949	 2.0661927405	 0.7147618727	 0.122368
H	-0.0499839251	-0.3580987325	 0.7821822426	 0.106173
H	-1.2311230261	-0.0489740514	-0.4828668083	 0.109723
H	 0.6329055851	 0.0322175281	-2.1765147884	 0.101723
H	 2.967262158	-0.2891428079	-1.4968039352	 0.117491
H	 2.4689981414	-0.4132833227	 0.214500784	 0.10822
H	-0.1311297693	-2.6305677888	 0.4817835688	 0.130927
H	-1.236958274	-2.8046981068	-0.9054783892	 0.137519
H	 0.0866712639	-3.9616121824	-0.6687409873	 0.147858
25.4381	89.1449	137.5339	182.5562	189.9017	225.2592	240.7166	289.8432	363.2712	391.4117	427.6147	550.8603	588.3519	636.7023	771.0834	819.8565	885.8783	902.9584	915.2411	970.2505	976.2812	1023.3847	1055.6932	1111.388	1128.1396	1151.4987	1168.7569	1200.1852	1215.741	1271.1854	1300.8673	1333.0268	1357.0094	1397.3714	1406.0514	1414.3332	1474.6976	1486.2046	1492.2748	1501.1269	1506.0202	1526.2652	2349.4071	3024.3126	3027.8557	3034.8414	3052.3524	3060.3465	3069.4755	3088.5704	3102.9877	3111.8065	3126.4238	3143.7244
CCC1COC1(C)C#N	CC[C@H]1CO[C@]1(C)C#N	
InChI=1S/C7H11NO/c1-3-6-4-9-7(6,2)5-8/h6H,3-4H2,1-2H3	InChI=1S/C7H11NO/c1-3-6-4-9-7(6,2)5-8/h6H,3-4H2,1-2H3/t6-,7+/m0/s1
