13
gdb 24514	4.14966	1.73512	1.22352	3.1658	71.57	-0.2482	-0.0485	0.1997	913.6391	0.094001	-415.684991	-415.679348	-415.678403	-415.714958	22.537	
O	-0.0675424383	 1.2968143381	 0.0096938323	-0.193125
C	 1.2106087493	 1.7996420253	 0.0002958994	 0.017016
C	 2.1548498328	 0.8304156629	-0.0140636017	-0.342032
C	 1.4257342144	-0.4108136305	-0.0139285386	 0.191527
C	 0.0645741384	-0.0528233816	 0.0009960026	 0.416433
N	-0.9625983322	-0.872645194	 0.006277507	-0.333644
C	-0.5929206633	-2.1592888975	-0.0042961442	 0.055963
N	 0.6523018273	-2.6528470712	-0.0188959423	-0.25823
C	 1.6646881848	-1.7831567619	-0.0237499315	-0.089921
H	 1.2721072722	 2.875841588	 0.0056443464	 0.154981
H	 3.2229954987	 0.9785150783	-0.0234392192	 0.132181
H	-1.3987550483	-2.8875730129	-0.000684872	 0.125697
H	 2.6707374444	-2.1958266731	-0.0356154781	 0.123154
231.6545	243.6292	426.9153	446.592	567.6968	601.9687	627.8353	656.1436	773.3614	793.7878	836.7796	860.5749	887.8565	916.5062	947.0891	996.8181	1058.9047	1135.4496	1162.4362	1197.9427	1281.8938	1308.4103	1322.8877	1372.8166	1423.9768	1477.4911	1571.495	1607.1661	1642.0694	3158.0698	3179.9821	3259.9253	3285.4814
O1C=CC2=C1N=CN=C2	o1ccc2c1ncnc2	
InChI=1S/C6H4N2O/c1-2-9-6-5(1)3-7-4-8-6/h1-4H	InChI=1S/C6H4N2O/c1-2-9-6-5(1)3-7-4-8-6/h1-4H
