18
gdb 36533	3.95419	1.01199	0.85312	4.9321	72.59	-0.2772	0.0363	0.3135	1329.4384	0.148945	-439.107498	-439.099296	-439.098352	-439.140835	30.536	
N	 0.0405483073	-1.2249949252	-0.2796792783	-0.306684
C	 0.0524966637	-0.0705345482	-0.2487404966	 0.266331
C	 0.0602019683	 1.3872483069	-0.1880133709	-0.371135
C	 1.4747508983	 1.9645778385	-0.1269182789	 0.219064
O	 2.1171723376	 1.6583681689	-1.3328117455	-0.245506
C	 3.4378703015	 2.1929378377	-1.374654179	-0.080602
C	 3.3989687816	 3.7067690045	-1.1577943074	-0.209162
C	 2.6050031684	 3.9978763276	 0.1172322479	-0.084916
O	 1.3366540958	 3.3474097858	 0.0729092181	-0.252712
H	-0.4359409551	 1.7983355587	-1.0723961468	 0.168244
H	-0.4923645266	 1.7212354076	 0.6946697211	 0.162791
H	 2.0454737416	 1.5272868822	 0.7153455988	 0.073421
H	 4.0571640114	 1.7106718508	-0.600320299	 0.098417
H	 3.8465256869	 1.9258941753	-2.3515916833	 0.121628
H	 4.4138211577	 4.1112054429	-1.0779308858	 0.105753
H	 2.9053648456	 4.1835070668	-2.0107782723	 0.119634
H	 3.1656259265	 3.6523481538	 1.0018544182	 0.096331
H	 2.3990278796	 5.0635380955	 0.2403936397	 0.119103
62.2134	102.3997	178.6745	256.1406	304.5447	336.0029	390.1988	412.2702	477.5022	527.3935	570.9668	654.1725	828.188	871.3847	899.2368	925.022	958.137	977.8989	1025.1585	1054.4449	1069.3091	1095.9247	1160.8483	1173.2278	1235.3968	1240.6065	1264.0512	1304.5893	1319.1058	1370.5087	1376.8283	1411.4522	1417.3667	1423.4568	1453.2554	1468.5376	1497.3916	1507.3182	2370.7721	2919.1285	2970.8346	2978.7164	3047.1266	3068.6076	3095.4543	3103.0632	3107.7299	3116.8739
N#CCC1OCCCO1	N#CCC1OCCCO1	
InChI=1S/C6H9NO2/c7-3-2-6-8-4-1-5-9-6/h6H,1-2,4-5H2	InChI=1S/C6H9NO2/c7-3-2-6-8-4-1-5-9-6/h6H,1-2,4-5H2
