20
gdb 122411	6.36186	0.5783	0.5474	3.5661	77.59	-0.2305	-0.0232	0.2073	1955.7492	0.168698	-440.2639	-440.254049	-440.253105	-440.299868	34.829	
O	-0.0404445377	 1.4453454536	-0.0335223132	-0.419493
C	 0.0541428596	 0.0300769618	 0.0014506432	-0.073071
C	-1.3627631828	-0.5288079646	 0.0048585362	-0.172591
C	-1.3964982007	-2.0547608516	 0.0771155236	-0.151876
N	-2.7557990975	-2.5634611589	 0.0468991198	-0.082176
C	-3.608412349	-2.34543729	 1.2408182805	-0.290976
C	-4.043634334	-3.8137001511	 1.1257849976	 0.393093
O	-4.89104063	-4.4912159579	 1.6214844223	-0.278749
C	-2.9341465945	-4.033221244	 0.0870474499	-0.287288
H	 0.8504447728	 1.8069872906	-0.0401337963	 0.28655
H	 0.6049996122	-0.3553759098	-0.8725115873	 0.085755
H	 0.5936890812	-0.3112596679	 0.9005813881	 0.08484
H	-1.8995164119	-0.0994832543	 0.8595089181	 0.110266
H	-1.8855677633	-0.1959476083	-0.8977837639	 0.11864
H	-0.8644148382	-2.4779286931	-0.7841431416	 0.105921
H	-0.8554018873	-2.3989656694	 0.9835510983	 0.073345
H	-3.0496979188	-2.1689690424	 2.1762228399	 0.115466
H	-4.382512478	-1.5781511227	 1.1406222074	 0.135742
H	-3.2124294681	-4.5022367399	-0.8626451073	 0.132332
H	-2.084959024	-4.5861257399	 0.5238725847	 0.11427
53.4608	67.8656	85.1171	128.6305	157.0305	264.0871	274.3685	297.5737	357.5026	429.4872	458.3915	516.9173	667.0959	767.6592	772.7691	774.7481	885.2586	952.9195	1006.4652	1039.4563	1046.7649	1064.8349	1081.9665	1091.5776	1105.6405	1155.5149	1178.4499	1211.5173	1230.8064	1238.4428	1266.0643	1300.1142	1309.4678	1322.6325	1324.9564	1413.9285	1456.4504	1464.9853	1478.007	1494.3973	1507.8704	1529.91	1921.7927	2882.3517	2956.678	2960.9062	2970.3996	2981.2177	3034.9031	3044.996	3068.4161	3074.7475	3091.1655	3831.2239
OCCCN1CC(=O)C1	OCCCN1CC(=O)C1	
InChI=1S/C6H11NO2/c8-3-1-2-7-4-6(9)5-7/h8H,1-5H2	InChI=1S/C6H11NO2/c8-3-1-2-7-4-6(9)5-7/h8H,1-5H2
