18
gdb 80097	2.3291	1.84673	1.47749	2.6893	71.73	-0.2361	0.0095	0.2456	970.7586	0.148603	-439.07756	-439.069626	-439.068681	-439.109686	31.051	
C	 0.1205095861	 1.5271187072	-0.0773952209	-0.399659
C	 0.0345017797	 0.0120239511	 0.0354178349	 0.096709
O	 0.545839643	-0.526101503	-1.2188316495	-0.266046
C	 0.8547347478	-1.8596900156	-1.2298634544	 0.074219
N	 1.2122523572	-2.574659153	-0.2517229433	-0.220163
C	 1.352526475	-1.9545516758	 1.0230142631	-0.067916
C	 2.2710729459	-0.7343456839	 1.168920359	 0.116696
O	 3.0693656669	-0.2536853146	 0.1389824996	-0.422385
C	 0.7806131511	-0.5551619923	 1.2253876055	-0.142004
H	 1.1640747632	 1.8482350318	-0.1316982465	 0.137857
H	-0.4072492881	 1.8763864154	-0.9688792262	 0.129001
H	-0.3363172623	 1.9903556214	 0.8021390535	 0.123585
H	-1.0171771694	-0.2993415502	 0.0997602525	 0.097738
H	 0.7844744527	-2.2653121763	-2.2362323362	 0.130508
H	 1.3353016449	-2.6575501794	 1.8487583037	 0.099132
H	 2.8105300643	-0.6677997338	 2.1084645716	 0.113736
H	 2.5381338146	-0.1713721161	-0.6612671427	 0.303728
H	 0.3271441073	-0.3105697428	 2.1824945064	 0.095265
108.2165	174.7583	209.2848	242.0145	299.1213	381.8452	427.5682	436.8863	452.5223	577.2278	661.1793	722.5716	731.444	775.8891	805.1321	866.5376	889.2612	942.1114	974.8281	1010.9865	1039.193	1074.6659	1098.6498	1116.8021	1139.4737	1155.217	1161.6591	1227.5196	1322.8341	1350.61	1353.0083	1381.7782	1390.8786	1401.3931	1412.4675	1465.8181	1488.2238	1498.2875	1718.467	3008.6425	3047.5011	3122.2676	3131.5143	3138.7874	3158.2479	3168.5689	3172.3496	3795.0105
CC1OC=NC2C(O)C12	C[C@H]1OC=N[C@H]2[C@@H](O)[C@@H]12	
InChI=1S/C6H9NO2/c1-3-4-5(6(4)8)7-2-9-3/h2-6,8H,1H3	InChI=1S/C6H9NO2/c1-3-4-5(6(4)8)7-2-9-3/h2-6,8H,1H3/t3-,4+,5-,6+/m1/s1
