19
gdb 84227	2.60486	1.70925	1.34924	1.9792	82.25	-0.2184	-0.0397	0.1787	1021.4557	0.158952	-385.789837	-385.781857	-385.780913	-385.821846	31.875	
C	-0.2188184041	 1.6042820793	-0.2209301664	-0.514342
C	-0.1460686391	 0.1256745112	 0.012878894	 0.294881
C	 0.5051829569	-0.9749952433	-0.7742516757	-0.124386
C	 1.5537588365	-1.2496298734	 0.3728019886	-0.268035
C	 0.4451182989	-0.6323542385	 1.2241740874	 0.021062
C	-0.449988932	-1.4614473887	 1.7969973556	-0.170888
C	-1.651507202	-1.6059758638	 0.8557806063	 0.09728
O	-2.9032344606	-1.0242141498	 1.1847272492	-0.430899
C	-1.0394691559	-0.9864419428	-0.4211203251	-0.124169
H	 0.7573153986	 2.0824823336	-0.0814625485	 0.12359
H	-0.5542964023	 1.817187771	-1.2411079854	 0.124045
H	-0.9213809707	 2.0884189301	 0.4676220628	 0.117892
H	 0.7840865191	-0.9257737402	-1.8253443493	 0.090396
H	 1.8511012622	-2.2729104685	 0.6178050684	 0.104211
H	 2.4376352497	-0.6321615739	 0.177764502	 0.108907
H	-0.1514490727	-2.3016651238	 2.4179332298	 0.094883
H	-1.8650183336	-2.6773277612	 0.7614766693	 0.095735
H	-2.7447069339	-0.0909373693	 1.3632756077	 0.27626
H	-1.6736436652	-0.8776885979	-1.2998055108	 0.083577
121.4452	192.9974	207.7388	247.3404	279.6802	351.6991	371.8903	471.4248	531.4033	576.3829	660.093	723.6429	745.0517	808.7967	848.5627	862.8053	870.0526	924.0567	932.1026	973.6475	991.3155	1018.7587	1050.2454	1053.42	1072.0878	1081.106	1135.5	1176.6481	1197.5135	1233.6433	1258.3219	1267.034	1280.9198	1298.063	1412.073	1420.5736	1444.5205	1485.6251	1496.6703	1500.5625	1593.3126	3022.2038	3034.1469	3045.0513	3079.5475	3098.2824	3098.6089	3123.046	3133.1766	3162.1349	3806.9224
CC12C3CC1=CC(O)C23	C[C@@]12[C@H]3C[C]1[CH][C@@H](O)[C@@H]23	
InChI=1S/C8H10O/c1-8-4-2-5(8)7(8)6(9)3-4/h3,5-7,9H,2H2,1H3	InChI=1S/C8H10O/c1-8-4-2-5(8)7(8)6(9)3-4/h3,5-7,9H,2H2,1H3/t5-,6+,7-,8-/m0/s1
