16
gdb 124323	4.2977	1.09903	0.88084	2.8407	76.51	-0.2122	-0.0345	0.1777	1267.1157	0.12501	-434.114408	-434.105869	-434.104925	-434.147849	31.156	
C	-0.1018033594	 1.5006806259	 0.0226275075	-0.48455
C	 0.0470703427	-0.000093455	 0.0023186196	 0.427377
O	 1.1002384696	-0.5919687391	-0.0055634242	-0.32225
N	-1.1596437453	-0.7279672667	-0.0072936931	-0.027697
C	-1.2706107347	-2.1031066927	-0.0219537987	-0.090455
C	-2.613395589	-2.3849878247	-0.0235123589	 0.155146
N	-3.2566560646	-3.6212918673	-0.1121964081	-0.605024
C	-3.2448266207	-1.1028495216	-0.0074513576	-0.026472
N	-2.3703604361	-0.1155137221	 0.0061214193	-0.255962
H	 0.8958293694	 1.9384574938	 0.0263251075	 0.141789
H	-0.6660534513	 1.8431210829	-0.8481398459	 0.159686
H	-0.6622179679	 1.8200201072	 0.9045791824	 0.158645
H	-0.3901600566	-2.7216341889	-0.0328354067	 0.15193
H	-2.6847582009	-4.3981746685	 0.1897771552	 0.250754
H	-4.1464858382	-3.6445450687	 0.3672854438	 0.249911
H	-4.304849227	-0.8883669344	-0.0063176122	 0.117173
84.9715	112.3071	138.9852	187.7403	218.107	338.3832	346.7056	408.8872	545.079	574.6078	615.7874	630.7479	668.7346	706.5576	738.3273	791.344	877.2576	941.767	1001.341	1017.5562	1056.4548	1087.8172	1116.937	1227.8083	1259.9572	1317.3772	1386.0557	1412.855	1453.6827	1459.6053	1468.4215	1470.9611	1643.6437	1669.9973	1811.3325	3065.539	3133.0191	3170.6615	3231.2762	3294.2889	3549.7353	3640.4765
CC(=O)N1C=C(N)C=N1	CC(=O)n1cc(N)cn1	
InChI=1S/C5H7N3O/c1-4(9)8-3-5(6)2-7-8/h2-3H,6H2,1H3	InChI=1S/C5H7N3O/c1-4(9)8-3-5(6)2-7-8/h2-3H,6H2,1H3
