21
gdb 51663	3.76358	0.91459	0.87459	2.8473	83.01	-0.2461	-0.0187	0.2274	1405.7574	0.18252	-387.072643	-387.063942	-387.062998	-387.107337	32.446	
O	-0.6859882042	 1.082321701	 0.7814533653	-0.240105
C	 0.0437154746	 1.1149264223	-0.1758879028	 0.164001
C	 1.3742871092	 1.8291407632	-0.2327169758	-0.301121
C	 1.3575737425	 2.9394873872	-1.2889507294	 0.027653
C	 0.5376667881	 4.2396048	-1.0175124654	-0.256902
C	 1.7353394144	 5.0982400574	-1.5212334868	-0.004531
C	 2.6177868633	 5.6983570961	-0.4034337334	-0.218766
C	 3.377572311	 4.3417109629	-0.2843381082	-0.232845
C	 2.6240269162	 3.8004815124	-1.5375290113	-0.048606
H	-0.2436310475	 0.6103099483	-1.1296321014	 0.067936
H	 1.5995620672	 2.2167036325	 0.7645498548	 0.118663
H	 2.1430760313	 1.0900899177	-0.5023739016	 0.113202
H	 1.0434854892	 2.5065450823	-2.2466400691	 0.075312
H	-0.3893113865	 4.332450463	-1.587730278	 0.103869
H	 0.3003785998	 4.4020230295	 0.0388889227	 0.105983
H	 1.5481310027	 5.7020866525	-2.4100215522	 0.063592
H	 3.2638376881	 6.5036820954	-0.7635344819	 0.099937
H	 2.0929619487	 6.0543590726	 0.4883343766	 0.096623
H	 4.4594414087	 4.4169556185	-0.4138035191	 0.10378
H	 3.1936893525	 3.7877009002	 0.6396508175	 0.101627
H	 3.257078111	 3.5114642449	-2.3784894605	 0.0607
45.3941	72.2205	79.4522	167.985	272.6159	335.1956	365.0033	438.1668	534.061	616.6908	729.3444	745.5627	765.4703	827.4995	841.8158	885.2604	898.3154	920.984	954.7566	982.3072	1004.8907	1027.504	1054.1303	1092.5579	1104.9246	1136.2794	1141.8698	1187.7813	1207.1556	1226.7099	1232.9893	1253.759	1262.1347	1268.3817	1290.8809	1300.6345	1307.4917	1333.2786	1378.57	1428.6941	1462.077	1478.5173	1486.7094	1500.1452	1833.2597	2843.5921	3009.589	3023.8803	3047.9412	3051.1274	3064.9771	3081.1853	3092.5667	3095.2258	3099.8215	3109.2506	3118.5322
O=CCC1CC2CCC12	O=CC[C@H]1C[C@H]2CC[C@@H]12	
InChI=1S/C8H12O/c9-4-3-7-5-6-1-2-8(6)7/h4,6-8H,1-3,5H2	InChI=1S/C8H12O/c9-4-3-7-5-6-1-2-8(6)7/h4,6-8H,1-3,5H2/t6-,7+,8-/m1/s1
