21
gdb 65042	2.15201	1.68542	1.11967	0.6965	88.45	-0.2333	0.0524	0.2857	1167.6088	0.180595	-349.896294	-349.88688	-349.885935	-349.931255	36.954	
C	 0.0321590447	 1.5209501479	 0.0100132487	-0.483925
C	 0.008583245	 0.0024225568	 0.002153896	 0.285963
C	 1.1202917533	-0.6785405	-0.7653486033	-0.303833
C	 1.1323149269	-0.6862851258	 0.7448288942	-0.303902
C	-1.3626632879	-0.6660527184	 0.0093708647	 0.128855
C	-2.5265638121	-0.0353118068	 0.770455765	-0.297761
C	-2.5371669356	-0.0293051078	-0.7301239665	-0.29773
C	-1.3557277853	-2.1084172413	 0.0034653299	 0.228014
C	-1.3636892359	-3.3120891645	-0.0014186955	-0.446119
H	 1.0674851601	 1.8733282321	 0.0028764264	 0.117706
H	-0.4586142859	 1.9494986274	-0.8702826698	 0.119275
H	-0.4431597959	 1.9399160241	 0.9033021901	 0.119313
H	 0.896675439	-1.613687671	-1.2652571635	 0.124226
H	 1.8313061834	-0.0469091178	-1.2873925342	 0.103008
H	 1.8515577031	-0.0598892027	 1.2618882822	 0.102995
H	 0.9166998471	-1.6265173296	 1.2386592656	 0.124259
H	-3.1967444926	-0.7099372671	 1.2892869555	 0.125836
H	-2.3427442479	 0.899883339	 1.285099114	 0.119088
H	-2.3605359889	 0.9099672107	-1.2398486344	 0.119094
H	-3.214633293	-0.6998037734	-1.2448254131	 0.125845
H	-1.3719128719	-4.3737015418	-0.0057334021	 0.189795
11.5846	153.1813	198.0126	218.5916	275.3974	279.2816	346.5828	363.8156	377.556	453.1975	538.0573	565.5519	568.7553	588.994	651.3104	772.122	789.9723	813.5543	863.4999	868.1877	919.6146	935.8545	955.2677	975.9079	981.8308	1042.3223	1061.369	1073.2715	1082.905	1084.4197	1118.7349	1191.8185	1195.0488	1203.1862	1263.1038	1339.021	1352.8412	1417.9018	1461.2938	1465.6232	1492.1135	1502.2986	1503.9639	1507.804	2227.8447	3032.3109	3092.5056	3104.7802	3133.0928	3136.3299	3148.2296	3151.1955	3216.1958	3228.4052	3229.6267	3243.6259	3503.2142
CC1(CC1)C1(CC1)C#C	CC1(CC1)C1(CC1)C#C	
InChI=1S/C9H12/c1-3-9(6-7-9)8(2)4-5-8/h1H,4-7H2,2H3	InChI=1S/C9H12/c1-3-9(6-7-9)8(2)4-5-8/h1H,4-7H2,2H3
