20
gdb 66094	2.50864	1.48337	1.31074	3.9456	81.74	-0.285	0.0423	0.3273	1086.1245	0.172542	-366.0379	-366.029594	-366.02865	-366.070365	32.742	
C	-0.0412560246	 1.5383405324	-0.0054543855	-0.430552
C	 0.021871542	 0.0001267074	-0.0019717858	 0.108796
C	 0.8200527118	-0.5804084906	-1.2136023314	-0.262669
C	 1.3687990233	-1.9418667686	-0.7372224491	-0.227641
C	 1.5628394226	-1.7802411881	 0.7643581091	-0.020906
C	 2.2484453222	-0.5241417453	 1.2419931922	-0.319547
C	 0.7409965769	-0.5968431228	 1.2188349361	-0.029344
C	-1.3491663744	-0.537828178	-0.0253422145	 0.265505
N	-2.42621635	-0.9581849633	-0.0438803035	-0.349844
H	 0.9715242469	 1.9460857933	 0.0555261877	 0.123149
H	-0.5135763649	 1.9112847818	-0.918832096	 0.131905
H	-0.6142334404	 1.910074762	 0.8483129256	 0.133333
H	 0.2001872622	-0.659226781	-2.10876815	 0.121604
H	 1.6353720733	 0.1100511808	-1.4483325826	 0.10937
H	 0.6329591369	-2.7322045735	-0.9218988209	 0.121474
H	 2.2860653886	-2.2194596331	-1.2667151006	 0.10393
H	 1.6357583439	-2.6724039157	 1.375550483	 0.090873
H	 2.7153471376	-0.553336444	 2.2201634881	 0.118249
H	 2.7722875987	 0.1033720895	 0.5282660537	 0.112206
H	 0.2043100674	-0.6004564132	 2.1603100644	 0.100108
113.0812	152.6245	209.0513	230.1683	267.7562	313.0779	371.1683	435.2259	480.4455	553.9483	620.4513	650.7126	705.3802	801.4645	824.5301	841.4644	895.6743	904.3139	953.6535	959.2198	1006.2702	1031.1141	1049.4442	1069.5929	1084.5014	1114.5239	1131.0909	1159.0564	1188.6966	1206.5752	1243.4815	1246.4395	1317.8348	1332.2325	1359.6245	1389.5736	1411.4774	1484.2991	1487.3916	1492.5162	1496.6578	1512.0552	2348.5045	3043.1195	3043.5858	3061.2573	3083.332	3116.426	3118.9822	3121.8954	3132.1429	3173.5637	3181.9052	3214.7198
CC1(CCC2CC12)C#N	C[C@]1(CC[C@H]2C[C@@H]12)C#N	
InChI=1S/C8H11N/c1-8(5-9)3-2-6-4-7(6)8/h6-7H,2-4H2,1H3	InChI=1S/C8H11N/c1-8(5-9)3-2-6-4-7(6)8/h6-7H,2-4H2,1H3/t6-,7+,8-/m0/s1
