19
gdb 49231	3.27363	1.34247	1.12231	3.5225	83.36	-0.2472	-0.0529	0.1943	1122.2007	0.161554	-385.908348	-385.901043	-385.900099	-385.940072	29.316	
O	-0.1006369565	-0.0099234019	 0.0163501349	-0.278459
C	-0.0066829758	 1.1977247578	 0.0313116458	 0.062389
C	 1.2589744053	 1.9416193797	 0.0011162354	 0.256432
C	 1.2653322433	 3.284882567	 0.0208098866	-0.141296
C	 2.5811412667	 4.0171302538	-0.0112867929	-0.260617
C	 3.7487431935	 3.0143868862	-0.0642447908	-0.019364
C	 3.4668753127	 1.9231235736	-1.1391737379	-0.220656
C	 2.5908044707	 1.2260254595	-0.0529296467	-0.121256
C	 3.536482482	 1.8915475037	 0.9940318209	-0.220656
H	-0.9131318137	 1.8441693752	 0.0704694866	 0.064805
H	 0.3380880282	 3.8526153512	 0.0594579478	 0.101318
H	 2.6090525409	 4.6930908736	-0.8781688057	 0.116939
H	 2.6661750386	 4.6671891463	 0.8715357741	 0.116939
H	 4.7116371611	 3.5295475574	-0.0880423618	 0.064175
H	 2.9793147599	 2.2223763037	-2.071005666	 0.094172
H	 4.3666113584	 1.3446101119	-1.3631963841	 0.101078
H	 2.469630696	 0.1439097256	-0.0649947142	 0.088808
H	 4.4483428075	 1.3075260081	 1.1417413877	 0.101078
H	 3.1109819312	 2.1626577376	 1.9640981003	 0.094171
99.5146	199.9868	219.2907	334.0085	356.8927	406.5882	425.3414	583.1276	593.7561	681.6676	761.0532	816.5647	823.4567	830.9842	874.7173	913.5903	938.5752	946.8934	981.5116	1028.3952	1044.8883	1071.7877	1089.0602	1095.4139	1129.8154	1136.2376	1195.1216	1208.6087	1253.1372	1264.2159	1289.2342	1289.3208	1337.8595	1367.9023	1388.3927	1425.0993	1460.3629	1479.8536	1508.8711	1685.0805	1784.5334	2868.3814	3002.6403	3026.379	3051.7705	3056.1026	3080.8845	3110.674	3113.0502	3129.4317	3154.0456
O=CC1=CCC2CC1C2	O=CC1=CC[C@@H]2C[C@H]1C2	
InChI=1S/C8H10O/c9-5-7-2-1-6-3-8(7)4-6/h2,5-6,8H,1,3-4H2	InChI=1S/C8H10O/c9-5-7-2-1-6-3-8(7)4-6/h2,5-6,8H,1,3-4H2/t6-,8+
