20
gdb 114785	3.09407	1.37591	1.24599	1.5233	76.41	-0.2349	0.0677	0.3026	1083.2939	0.173806	-403.110236	-403.102598	-403.101654	-403.142438	30.409	
O	 0.6980394476	-0.2427903305	 1.3122862939	-0.422232
C	 0.0272621839	 0.1664756189	 0.1306013069	-0.08415
C	-1.3495994091	-0.4907739383	-0.0211112332	-0.011869
C	-2.1046748226	-0.1208033998	-1.3293434455	-0.250527
C	-2.1184222813	-1.4254873664	-2.1237334559	 0.016363
C	-0.6998962953	-1.9047788234	-2.522307532	-0.250762
C	-0.7397598948	-2.7416532086	-1.2513489161	-0.049198
C	-1.3125335695	-2.015518303	-0.0811190631	-0.055712
N	-2.237754722	-2.5600733384	-1.0975753894	-0.15188
H	 0.927730999	-1.1716777935	 1.2081317941	 0.286076
H	-0.0905122915	 1.2521047576	 0.2165404648	 0.110148
H	 0.643887989	-0.0234869009	-0.7607533985	 0.08992
H	-1.9393274667	-0.1991756579	 0.8545917307	 0.086831
H	-3.1260322549	 0.2013430586	-1.1059086529	 0.110066
H	-1.6185119964	 0.6878551551	-1.8864084308	 0.101881
H	-2.8856512321	-1.4811508789	-2.8954801797	 0.079493
H	-0.7260078644	-2.5447278847	-3.4074237047	 0.113187
H	 0.0899498667	-1.1581300232	-2.6500235773	 0.097257
H	-0.2814748563	-3.7200132236	-1.1346064964	 0.090262
H	-1.3319303793	-2.5674603991	 0.8541927151	 0.094845
82.6437	154.558	191.6415	319.4408	337.0411	369.9699	394.7171	543.5028	639.2947	674.2255	753.5732	800.8283	810.0764	839.184	849.6282	873.5516	951.6093	983.7186	997.9326	1025.0699	1030.8967	1046.4435	1072.5852	1080.0267	1097.8656	1114.0156	1152.0244	1180.5522	1198.8775	1214.643	1256.0659	1261.7002	1288.6835	1314.3622	1325.0581	1357.9583	1373.6786	1392.8483	1406.5908	1419.4087	1484.0366	1497.9522	1507.1797	2992.7622	3040.942	3046.6856	3049.4087	3072.4821	3088.8255	3102.0115	3117.5087	3141.6219	3155.7788	3818.1823
OCC1CC2CC3C1N23	OC[C@H]1C[C@H]2C[C@H]3[C@@H]1N23	
InChI=1S/C7H11NO/c9-3-4-1-5-2-6-7(4)8(5)6/h4-7,9H,1-3H2	InChI=1S/C7H11NO/c9-3-4-1-5-2-6-7(4)8(5)6/h4-7,9H,1-3H2/t4-,5+,6+,7-,8?/m1/s1
