20
gdb 82380	2.23971	2.107	1.24209	1.6338	79.51	-0.1981	0.0922	0.2902	1045.0181	0.17163	-403.096571	-403.088741	-403.087797	-403.128538	31.445	
C	 0.0220127002	 1.3776697288	-0.0533805023	-0.326971
N	-0.0898846899	-0.0466777448	 0.1604080324	-0.043782
C	-1.4013987696	-0.6123129191	 0.0386748433	-0.019236
C	-1.6973402397	-1.4328349393	-1.2061748965	-0.320417
C	-1.3830341942	-2.1142781864	 0.0963242126	 0.089253
O	-0.1138668218	-2.6945206892	 0.2438562078	-0.252803
C	 0.6267043011	-2.0953568497	 1.2742878965	 0.089253
C	 1.9070601477	-1.398899472	 0.9064645358	-0.320417
C	 0.6649228781	-0.5928589292	 1.2498039225	-0.019236
H	 1.0784134589	 1.660480345	-0.1061460201	 0.122184
H	-0.451965021	 1.6460718688	-1.0031457699	 0.122184
H	-0.4507953638	 1.9825587874	 0.7435650703	 0.0924
H	-2.2290633334	-0.0869898681	 0.522232943	 0.073386
H	-2.7170320688	-1.4832954098	-1.572675403	 0.10771
H	-0.9188601375	-1.4506607621	-1.959493699	 0.124219
H	-2.1789347778	-2.6365406383	 0.6237735048	 0.088479
H	 0.5626476574	-2.6107291353	 2.2306909153	 0.088479
H	 2.7256408071	-1.4320528048	 1.6174264462	 0.10771
H	 2.1842559023	-1.4214444207	-0.1406708123	 0.124219
H	 0.6399937447	-0.059977691	 2.2038675727	 0.073386
120.6732	181.5233	211.1496	241.2157	329.7134	349.5416	439.8389	484.81	493.8611	559.5578	707.0451	749.3997	794.2827	824.7279	831.0644	846.0223	942.5763	995.4616	996.9158	1029.4712	1047.4009	1058.1585	1065.7806	1090.3109	1104.5194	1127.4048	1134.0291	1146.9408	1161.021	1172.9933	1205.1712	1236.1998	1250.0001	1308.2683	1342.567	1377.1713	1392.9684	1412.5853	1454.9536	1457.7121	1478.5843	1498.4391	1510.3422	2926.4008	3050.7772	3052.4048	3060.3409	3101.5465	3114.4355	3119.7433	3137.7569	3138.182	3236.2522	3236.6035
CN1C2CC2OC2CC12	CN1[C@H]2C[C@H]2O[C@H]2C[C@@H]12	
InChI=1S/C7H11NO/c1-8-4-2-6(4)9-7-3-5(7)8/h4-7H,2-3H2,1H3	InChI=1S/C7H11NO/c1-8-4-2-6(4)9-7-3-5(7)8/h4-7H,2-3H2,1H3/t4-,5+,6+,7-
