20
gdb 59895	4.599	0.68861	0.65073	5.5838	80.62	-0.2702	-0.0345	0.2357	1757.7014	0.167621	-403.19175	-403.181126	-403.180182	-403.228891	37.094	
C	-0.1032049057	 1.7207975964	 0.2972303008	-0.392408
C	 0.0007112487	 0.2075539774	 0.0629867318	 0.04533
C	 0.7409055843	-0.4842787835	 1.214608145	-0.39794
C	-1.3841999994	-0.4240902861	-0.140635894	-0.300108
C	-2.066510213	-0.0487247908	-1.4461767896	 0.381547
O	-1.5043251293	 0.4773542861	-2.3708550702	-0.268664
C	-3.5673253229	-0.410186521	-1.5095707606	-0.455179
C	-4.1518896502	-0.2670596014	-2.8363099064	 0.287464
N	-4.6319840612	-0.1656475728	-3.8812496158	-0.294067
H	 0.8906745003	 2.1640774545	 0.4134948249	 0.118283
H	-0.5946421964	 2.2208705384	-0.5411195149	 0.133719
H	-0.6701830671	 1.9384593209	 1.2110163437	 0.106392
H	 0.5649250343	 0.0474767801	-0.8630421545	 0.101731
H	 0.2019045348	-0.3635488452	 2.1621432724	 0.112302
H	 0.857547278	-1.5579569932	 1.031727605	 0.111642
H	 1.7397291502	-0.0570184186	 1.3471306663	 0.119021
H	-1.3072446258	-1.5223719274	-0.1430239759	 0.129391
H	-2.0550358625	-0.1867939559	 0.6973948919	 0.114902
H	-3.7150212587	-1.4337399601	-1.1455610313	 0.169297
H	-4.0997772984	 0.239374392	-0.8027046288	 0.177345
31.3644	44.8611	87.1606	113.0369	193.9445	224.6216	255.3634	278.1052	344.3579	370.4283	397.2978	419.4449	441.4698	468.9531	705.538	780.7777	827.2376	869.6062	922.9614	931.627	955.4081	972.2772	984.3889	1052.8235	1111.0858	1157.9221	1195.407	1211.4727	1265.743	1305.6454	1329.1165	1363.095	1391.6811	1402.8477	1423.1182	1434.7597	1447.4741	1488.0878	1493.9494	1505.8173	1512.8497	1829.4162	2375.3851	3001.0013	3023.834	3027.7926	3031.0723	3039.1229	3049.9051	3076.3101	3088.8945	3096.4246	3103.4863	3121.5437
CC(C)CC(=O)CC#N	CC(C)CC(=O)CC#N	
InChI=1S/C7H11NO/c1-6(2)5-7(9)3-4-8/h6H,3,5H2,1-2H3	InChI=1S/C7H11NO/c1-6(2)5-7(9)3-4-8/h6H,3,5H2,1-2H3
