17
gdb 76275	2.38338	1.64053	1.11168	2.5285	69.84	-0.2598	-0.0173	0.2425	1091.3956	0.136635	-455.196205	-455.187593	-455.186649	-455.229575	31.886	
C	 0.1969134204	 1.663491339	 0.1665650094	-0.382657
C	-0.0147703977	 0.1480042718	 0.0267191251	-0.101997
C	 0.7433284504	-0.4787757773	-1.169188607	-0.12753
N	 0.9821207109	 0.3666342191	-2.3225879508	-0.525827
C	 2.0607559704	-0.901149658	-0.5285783541	 0.441656
O	 3.1117484302	-1.0938900905	-1.0600368544	-0.32593
O	 1.869872205	-1.0572313841	 0.8219201834	-0.218098
C	 0.6066449192	-0.5871270428	 1.195367743	 0.408873
N	 0.1214336357	-0.7444659221	 2.3416054125	-0.515428
H	 1.2597963902	 1.9135473604	 0.2400210182	 0.129187
H	-0.199491907	 2.1801549239	-0.7088813401	 0.134309
H	-0.3079883166	 2.0238221231	 1.0657847215	 0.136302
H	-1.0842679549	-0.0695087597	-0.0007198265	 0.109253
H	 0.2427255457	-1.4310386468	-1.4203679374	 0.110978
H	 1.8766923203	 0.1114056521	-2.7320942627	 0.251762
H	 0.2714790317	 0.225229603	-3.0305693042	 0.23797
H	 0.7608215262	-1.2575643711	 2.9506577642	 0.237177
66.4165	141.7455	199.389	220.3481	250.1449	255.1049	279.4552	373.0667	486.529	547.3076	620.1248	636.0639	685.94	739.1509	790.7189	868.9809	881.7894	901.3919	916.0845	1001.6962	1064.4903	1098.4106	1104.4383	1134.1816	1159.4479	1207.365	1270.4018	1315.8845	1331.3915	1354.8705	1398.048	1410.0987	1487.4682	1493.5298	1653.6906	1794.0683	1906.6208	2941.4425	3051.6088	3092.2252	3125.1469	3146.3777	3480.0287	3503.0381	3590.1043
CC1C(N)C(=O)OC1=N	C[C@H]1[C@@H](N)C(=O)O[C]1[NH]	
InChI=1S/C5H8N2O2/c1-2-3(6)5(8)9-4(2)7/h2-3,7H,6H2,1H3	InChI=1S/C5H8N2O2/c1-2-3(6)5(8)9-4(2)7/h2-3,7H,6H2,1H3/t2-,3+/m0/s1
