23
gdb 91943	2.00937	1.72751	1.43701	1.35	83.9	-0.2237	0.0811	0.3048	1102.0246	0.205302	-388.287159	-388.278014	-388.27707	-388.32013	36.718	
C	 0.6467331695	 1.4059442527	-0.4507514283	-0.407651
C	 0.066536304	 0.1140070824	 0.126085657	 0.08734
O	 0.0207183325	-0.9004959931	-0.8947582484	-0.275498
C	 0.9284390147	-1.9253965745	-0.5974588889	 0.110771
C	 2.3868423088	-1.5734367852	-0.442335499	-0.357083
C	 1.4912441541	-1.7423922858	 0.7745197098	-0.077591
C	 0.7900877969	-0.5213464556	 1.3721532363	 0.264021
C	 1.7513901052	 0.4292545595	 2.0987174366	-0.426637
C	-0.2803273525	-1.0246277886	 2.3609344648	-0.432021
H	 1.7021322525	 1.316802463	-0.7194219469	 0.118301
H	 0.0922401828	 1.6665107741	-1.3566903005	 0.124528
H	 0.5425903096	 2.2321521449	 0.2595685204	 0.112245
H	-0.9783344929	 0.3205999505	 0.3910646005	 0.078116
H	 0.6235802569	-2.8783893657	-1.0148368268	 0.095388
H	 3.112570979	-2.3601512462	-0.6220382194	 0.110116
H	 2.7198183592	-0.5851592262	-0.7363739749	 0.114499
H	 1.6749783176	-2.5829541794	 1.4353093785	 0.082207
H	 2.5592032213	 0.7741199227	 1.4485585997	 0.114284
H	 1.2303027541	 1.3101294676	 2.4894834953	 0.111019
H	 2.2103231702	-0.083218101	 2.9508868644	 0.111053
H	 0.1772497463	-1.5694511861	 3.1939054729	 0.108764
H	-0.8493615571	-0.188834772	 2.7823814021	 0.109931
H	-0.9858059926	-1.697274638	 1.8626598647	 0.123898
89.8032	200.5505	227.2508	256.0865	260.973	288.3903	303.9535	330.2975	374.6192	428.44	446.5093	504.2505	593.9467	698.3679	727.1249	773.6765	816.3762	875.0733	888.0297	942.0629	955.5852	983.8047	996.7929	1025.3093	1031.9554	1054.1786	1063.6836	1085.1975	1105.402	1122.2992	1158.1711	1202.6716	1211.5222	1236.3705	1250.3328	1309.7107	1371.9337	1382.6565	1396.1512	1401.4571	1407.5589	1426.2754	1477.5455	1482.1632	1486.6479	1491.8764	1497.927	1510.4451	1511.8203	3012.5759	3025.6351	3033.4083	3045.0062	3090.2588	3095.6726	3103.099	3114.1565	3115.2443	3124.7489	3135.3231	3158.3716	3176.0161	3224.3032
CC1OC2CC2C1(C)C	C[C@H]1O[C@H]2C[C@H]2C1(C)C	
InChI=1S/C8H14O/c1-5-8(2,3)6-4-7(6)9-5/h5-7H,4H2,1-3H3	InChI=1S/C8H14O/c1-5-8(2,3)6-4-7(6)9-5/h5-7H,4H2,1-3H3/t5-,6-,7+/m1/s1
