18
gdb 55393	3.40438	1.22015	0.94558	3.1496	73.66	-0.2414	0.0166	0.258	1217.4222	0.148489	-439.127345	-439.118806	-439.117862	-439.161141	32.012	
N	 0.6539076708	 0.0360209367	 0.8022499292	-0.520413
C	-0.1724213418	 0.3220472487	-0.2324970707	 0.366224
O	 0.0242036008	 1.2004754502	-1.0517404489	-0.378654
C	-1.4329928349	-0.5446884856	-0.3075446607	 0.024448
C	-1.6460619643	-1.1051231947	-1.7179716911	-0.246115
C	-2.7539850389	-2.1231654134	-1.6947011721	-0.075287
C	-3.186908188	-2.6610321188	-0.557067222	-0.065114
C	-2.5669383017	-2.3255783625	 0.7707719726	-0.123468
O	-1.3559830987	-1.5966708572	 0.6471282978	-0.27697
H	 1.5157399575	 0.5470374665	 0.8917836022	 0.259785
H	 0.4480400339	-0.7422199272	 1.4050096496	 0.27281
H	-2.2812066699	 0.1147574785	-0.0595483106	 0.099507
H	-1.8745079457	-0.2783900275	-2.3969975764	 0.132901
H	-0.714412934	-1.5545237744	-2.0874440204	 0.119245
H	-3.2015897108	-2.4064802532	-2.6433633856	 0.094784
H	-4.0092206916	-3.3710414328	-0.5404879333	 0.094376
H	-3.2856981325	-1.7679251105	 1.3985702582	 0.102675
H	-2.3122040502	-3.2404142129	 1.3190277422	 0.119267
37.6874	117.943	182.7327	207.2881	277.3941	329.1289	392.7563	416.6321	483.3499	528.2131	564.7966	619.7184	667.7471	726.7116	783.2574	877.6236	926.7477	952.3926	978.9479	994.7397	1039.0993	1049.2786	1080.0155	1109.7966	1117.0682	1206.5585	1207.55	1261.0929	1293.0492	1347.2791	1366.4204	1388.5135	1399.544	1414.3724	1468.4949	1490.1534	1593.3652	1726.1579	1799.3935	2940.9982	2971.9437	3023.5132	3050.1706	3088.8387	3155.7887	3178.2204	3602.365	3744.177
NC(=O)C1CC=CCO1	NC(=O)[C@H]1CC=CCO1	
InChI=1S/C6H9NO2/c7-6(8)5-3-1-2-4-9-5/h1-2,5H,3-4H2,(H2,7,8)	InChI=1S/C6H9NO2/c7-6(8)5-3-1-2-4-9-5/h1-2,5H,3-4H2,(H2,7,8)/t5-/m1/s1
