23
gdb 121727	6.53991	0.48154	0.45604	3.6983	83.82	-0.2419	-0.007	0.2349	2430.9942	0.202283	-425.451436	-425.43974	-425.438796	-425.490587	39.864	
C	-0.10730417	 1.6182286168	 0.0120278932	-0.386864
C	 0.0108316489	 0.0923282727	 0.0024394882	-0.158059
C	-1.3494204984	-0.6050948607	 0.011923115	-0.277592
C	-1.2667345418	-2.1272525953	 0.0027314666	 0.362161
O	-0.2072980171	-2.7116002277	-0.0106359952	-0.294353
C	-2.59819214	-2.872283405	 0.0113363107	-0.304781
C	-2.452324595	-4.3923586499	 0.0020672268	-0.159308
C	-3.7975659322	-5.1052779954	 0.0108553512	-0.077581
O	-3.5499349275	-6.5021640913	 0.001145262	-0.419436
H	 0.8797310916	 2.0905817557	 0.0049671015	 0.115672
H	-0.6557394347	 1.9825614438	-0.8641965598	 0.111772
H	-0.6384266005	 1.9727974395	 0.902802241	 0.111773
H	 0.5737486557	-0.2380465899	-0.876987432	 0.112129
H	 0.590842179	-0.2476866775	 0.866956141	 0.11214
H	-1.938333526	-0.3030150637	 0.8903698602	 0.115402
H	-1.955431221	-0.2933935665	-0.8514015504	 0.115389
H	-3.1667652207	-2.5341947698	 0.8899054019	 0.117067
H	-3.182993185	-2.5251631632	-0.8529496044	 0.11709
H	-1.8851664629	-4.70706276	-0.879395908	 0.120777
H	-1.8689044373	-4.7161841559	 0.8695042151	 0.120751
H	-4.3726388816	-4.8084210817	 0.9044229935	 0.080395
H	-4.3891855207	-4.7990359401	-0.8686376089	 0.080393
H	-4.3961273429	-6.9586636347	 0.0071145207	 0.285061
29.4876	43.8583	75.2191	83.2381	99.7609	131.5071	186.9393	241.9249	264.369	271.7274	324.2279	359.5883	471.3656	496.3205	678.8307	701.0354	755.4145	820.0356	864.1178	893.9821	905.0836	1004.2286	1030.7403	1039.7359	1051.058	1071.9059	1097.2257	1140.123	1149.6526	1207.7238	1238.3992	1251.8965	1299.3737	1300.5851	1309.5146	1325.1617	1328.5114	1385.738	1396.1832	1413.6976	1447.0301	1460.005	1466.6959	1487.242	1493.3943	1499.8958	1508.2536	1527.994	1806.3812	2950.3951	2973.7712	3002.4626	3012.256	3027.2823	3027.299	3038.7931	3050.2418	3061.6528	3074.7395	3099.7416	3102.934	3104.0078	3830.1338
CCCC(=O)CCCO	CCCC(=O)CCCO	
InChI=1S/C7H14O2/c1-2-4-7(9)5-3-6-8/h8H,2-6H2,1H3	InChI=1S/C7H14O2/c1-2-4-7(9)5-3-6-8/h8H,2-6H2,1H3
