20
gdb 95552	2.36944	1.63204	1.20237	1.4086	79.6	-0.2236	0.0109	0.2345	1094.3336	0.173484	-403.122246	-403.11412	-403.113176	-403.154665	32.307	
O	 0.1355800092	 1.4096584335	-0.1046811909	-0.433269
C	 0.0458782479	-0.0127475915	-0.018070909	 0.119366
C	 0.6616250225	-0.4913973599	 1.3076808136	-0.205397
C	 0.6032758237	-2.0084487038	 1.6501596299	-0.25997
C	 0.4028047746	-2.9683066954	 0.4997250343	-0.098126
C	-0.6151289345	-2.9497094533	-0.3644870607	-0.012836
C	-1.6890865812	-1.9285512248	-0.4459345141	-0.064714
N	-2.1008804464	-1.1873180685	 0.7720747205	-0.345453
C	-1.3790446983	-0.4733925049	-0.2879459294	-0.071599
H	-0.3268944179	 1.7727039127	 0.6589766487	 0.275014
H	 0.6670239293	-0.3694657592	-0.8484231521	 0.09675
H	 1.7021621693	-0.1511394575	 1.2923865933	 0.104779
H	 0.1678719722	 0.0574485427	 2.1191254842	 0.090391
H	 1.5251191525	-2.2758790234	 2.1755142529	 0.092453
H	-0.2147010192	-2.1628763641	 2.3582740951	 0.138071
H	 1.1312837072	-3.7692968048	 0.4012832509	 0.087667
H	-0.6592624944	-3.7166649283	-1.1339418617	 0.082719
H	-2.4798300399	-2.1640433747	-1.153934137	 0.082547
H	-3.0960897571	-0.9874487101	 0.7244717982	 0.232586
H	-1.9331391292	 0.2211159052	-0.9166710767	 0.08902
106.3604	130.885	243.3925	274.2144	304.8928	338.8133	370.1749	391.6338	530.9982	572.1266	605.6536	707.4514	747.3632	789.6804	826.5223	856.859	871.6683	900.2951	962.0911	972.7299	989.0431	1033.9605	1040.5501	1078.1009	1086.5442	1130.3665	1167.1822	1194.3099	1224.3952	1234.9489	1253.9017	1276.8415	1304.1479	1334.931	1353.7144	1384.2438	1399.6979	1421.0726	1432.4562	1460.1571	1471.7945	1494.9305	1716.2533	3025.3338	3041.3186	3053.5276	3071.81	3097.9625	3123.5718	3133.121	3145.9178	3167.787	3505.9351	3796.857
OC1CCC=CC2NC12	O[C@H]1CCC=C[C@H]2N[C@@H]12	
InChI=1S/C7H11NO/c9-6-4-2-1-3-5-7(6)8-5/h1,3,5-9H,2,4H2	InChI=1S/C7H11NO/c9-6-4-2-1-3-5-7(6)8-5/h1,3,5-9H,2,4H2/t5-,6+,7-/m1/s1
