16
gdb 67404	2.72387	1.58471	1.29367	5.0417	74.54	-0.2514	-0.0049	0.2465	1013.5753	0.124148	-400.698048	-400.690437	-400.689493	-400.730075	29.103	
C	-0.0830227033	 1.5522359642	-0.0868240339	-0.529895
C	 0.0187184517	 0.0662423811	-0.0090539856	 0.217165
C	 0.6191891605	-1.0055291791	-0.9038820704	-0.202374
C	 1.3576764179	-1.655167623	 0.263436041	-0.238314
C	 0.2735479167	-0.9887708731	 1.1472732205	 0.010649
O	-0.9435211873	-1.7127596042	 0.7997029309	-0.326715
C	-0.874919273	-1.056251921	-0.4608180957	 0.355391
C	-1.9726853357	-1.0734164518	-1.3664638535	 0.190881
N	-2.8518002012	-1.0592380426	-2.1189656332	-0.347275
H	 0.8783386197	 2.0274161925	 0.1364055493	 0.132994
H	-0.3819959878	 1.8602152453	-1.0938705251	 0.144598
H	-0.8264298653	 1.9375460451	 0.6183595036	 0.141579
H	 0.8938318266	-0.9351411507	-1.948571224	 0.115772
H	 1.4245788177	-2.7448545074	 0.3176101123	 0.116997
H	 2.3386179385	-1.1960122168	 0.4088847942	 0.116058
H	 0.3795579543	-0.8154851184	 2.2152078698	 0.10249
114.8941	158.5044	199.2266	226.5581	276.2518	428.6303	490.4944	530.7049	546.7983	580.6261	670.0332	751.3335	780.26	832.3776	895.357	920.1552	933.654	954.8245	999.1547	1053.165	1075.6649	1103.8447	1120.1181	1147.5553	1171.7091	1221.2363	1258.4869	1268.1741	1312.258	1411.8759	1459.6835	1481.4858	1485.7476	1494.6428	2348.8659	3032.2182	3061.6673	3097.6835	3106.9932	3124.0017	3159.6814	3207.8764
CC12C3CC1OC23C#N	C[C@@]12[C@H]3C[C@@H]1O[C@@]23C#N	
InChI=1S/C7H7NO/c1-6-4-2-5(6)9-7(4,6)3-8/h4-5H,2H2,1H3	InChI=1S/C7H7NO/c1-6-4-2-5(6)9-7(4,6)3-8/h4-5H,2H2,1H3/t4-,5+,6-,7-/m1/s1
