20
gdb 87364	2.13415	1.58362	1.07711	3.7507	80.83	-0.241	0.0362	0.2772	1189.1761	0.170055	-403.167329	-403.157943	-403.156999	-403.201378	35.003	
C	-0.6691018761	 1.1373614656	-0.0097406039	-0.409423
C	-0.3886817413	-0.3245898676	 0.2596537531	-0.056578
C	 0.9116669854	-0.9455551506	-0.1787458647	-0.348468
C	 0.6104184988	-0.7864118073	 1.2876279223	 0.157321
C	 1.4085129129	-0.0767479177	 2.4107431436	-0.023189
C	 0.8816322629	 1.223266009	 3.0009110331	-0.393637
N	 1.1176502265	-1.2755965899	 3.222941719	-0.365836
C	 0.4349724106	-1.9557303173	 2.2374880035	 0.412246
O	-0.0668980676	-3.0484675927	 2.1826202891	-0.381869
H	 0.2443586883	 1.7382071666	 0.0402372083	 0.114704
H	-1.0915955377	 1.2642571368	-1.0123090329	 0.123043
H	-1.3836543455	 1.5529928607	 0.7081298832	 0.122658
H	-1.25930359	-0.9729427622	 0.1891069392	 0.107522
H	 0.9097230197	-1.9556115453	-0.575239826	 0.132348
H	 1.6592878414	-0.2854893664	-0.6090149806	 0.11298
H	 2.475761741	 0.0150704573	 2.1719053252	 0.086488
H	-0.1928507928	 1.1566823026	 3.1926782813	 0.126157
H	 1.385921207	 1.4432705245	 3.9482216212	 0.11589
H	 1.0664564685	 2.0645010932	 2.3263761826	 0.121694
H	 1.4883184082	-1.5850076795	 4.1088845936	 0.245949
71.9601	117.9586	156.6715	203.1221	225.7919	264.8487	280.0068	312.44	357.6719	396.1513	502.0268	580.6559	619.1405	714.5451	741.0738	825.2889	834.771	894.9254	906.4339	937.7398	1011.6048	1054.889	1065.2763	1075.9278	1103.361	1129.7072	1134.4649	1164.889	1185.3577	1195.579	1280.5816	1324.56	1374.4569	1389.6644	1410.9615	1413.7931	1432.5628	1482.8127	1484.4866	1495.9162	1499.1985	1507.7355	1886.6588	3021.0673	3031.9595	3037.5537	3094.9519	3100.8591	3103.6744	3121.2603	3123.0779	3137.2123	3210.7518	3615.575
CC1CC11C(C)NC1=O	C[C@H]1C[C@]21[C@@H](C)NC2=O	
InChI=1S/C7H11NO/c1-4-3-7(4)5(2)8-6(7)9/h4-5H,3H2,1-2H3,(H,8,9)	InChI=1S/C7H11NO/c1-4-3-7(4)5(2)8-6(7)9/h4-5H,3H2,1-2H3,(H,8,9)/t4-,5+,7-/m0/s1
