20
gdb 117131	2.42174	1.04995	0.78782	1.4394	78.47	-0.2489	-0.0439	0.205	1503.3382	0.168216	-440.338566	-440.327847	-440.326902	-440.37595	36.89	
C	 0.3745157519	 1.3781493664	-0.3337210331	-0.373746
C	 0.0116515357	-0.0955576185	-0.1470219791	-0.143391
N	 0.7930320721	-0.7273110436	 0.9058863768	-0.314511
C	 0.228014596	-1.3490314343	 1.969367944	 0.405267
O	-0.9684279271	-1.4042816724	 2.1875990092	-0.371696
C	 1.2458651952	-1.964913806	 2.9726913093	-0.198138
C	 0.5347479683	-2.735850851	 4.0830334372	-0.400838
C	 2.3105887955	-2.8048950765	 2.2844898358	 0.147501
O	 3.0314054241	-2.4118536497	 1.3974088968	-0.260892
H	 1.4317241099	 1.4982136009	-0.5941219545	 0.116794
H	-0.2201138376	 1.8168776808	-1.1410851263	 0.120122
H	 0.1841371161	 1.9449149768	 0.5823099931	 0.127706
H	-1.0359820743	-0.2065244211	 0.1394757307	 0.147872
H	 0.1567614562	-0.6406836042	-1.0888338157	 0.109775
H	 1.7877303312	-0.8572913522	 0.7740859386	 0.260273
H	 1.7894535943	-1.1075780528	 3.395452625	 0.136281
H	-0.0071008187	-3.5944306103	 3.6763369766	 0.135158
H	 1.2547033871	-3.09735242	 4.8239663652	 0.110422
H	-0.1961543023	-2.0987962861	 4.5811519183	 0.146395
H	 2.4007784366	-3.8468629463	 2.661392622	 0.099647
30.5075	56.9804	90.0584	101.2118	160.0747	167.2468	235.1586	277.9855	326.035	334.7304	362.1248	455.5525	533.0941	619.1441	650.0552	716.9625	781.7644	876.6922	904.8009	917.2907	951.1036	1046.7641	1072.9711	1109.4597	1138.7147	1150.4708	1183.4079	1238.7471	1248.6452	1309.9681	1319.0564	1391.4497	1410.6279	1413.0305	1424.986	1487.9767	1491.6574	1492.4951	1493.1816	1506.2367	1572.5733	1782.4875	1803.1086	2898.8746	3016.0555	3021.8359	3035.9256	3049.1533	3098.6712	3116.178	3116.2937	3127.3314	3152.1447	3569.2956
CCNC(=O)C(C)C=O	CCNC(=O)[C@@H](C)C=O	
InChI=1S/C6H11NO2/c1-3-7-6(9)5(2)4-8/h4-5H,3H2,1-2H3,(H,7,9)	InChI=1S/C6H11NO2/c1-3-7-6(9)5(2)4-8/h4-5H,3H2,1-2H3,(H,7,9)/t5-/m0/s1
