20
gdb 95140	2.53888	1.56526	1.32533	3.3446	79.12	-0.2072	-0.0112	0.196	1067.4895	0.172744	-403.141048	-403.133118	-403.132174	-403.17324	31.315	
C	-0.039256825	 1.4815968414	 0.0043812579	-0.324098
N	 0.0375343167	 0.0318064263	 0.0550766056	-0.061876
C	-1.2783128029	-0.5871477566	-0.1462818076	-0.144545
C	-1.2911484187	-2.0801942959	 0.2426984332	-0.239291
C	-0.3683530116	-2.3397598224	 1.4629697412	-0.140999
C	-0.2835134368	-1.0446854769	 2.3367623138	-0.26818
C	 0.7110824484	-0.4861332865	 1.2547530634	-0.103349
C	 1.0461452506	-1.9734769941	 0.9968988963	 0.451062
O	 2.0269042093	-2.5836496197	 0.6888808828	-0.322776
H	 0.9626376023	 1.9116398264	 0.0907102007	 0.123676
H	-0.4541122872	 1.7883931778	-0.9617406861	 0.121529
H	-0.6759501591	 1.9202600446	 0.7967067457	 0.092113
H	-2.0474190201	-0.0617054876	 0.4484491583	 0.084888
H	-1.5688727043	-0.4627868139	-1.1953242412	 0.107744
H	-2.3187490523	-2.3733509061	 0.480268432	 0.108519
H	-0.9625590075	-2.707386011	-0.5925253476	 0.124175
H	-0.5423760759	-3.3128302601	 1.925139484	 0.084692
H	-1.2087387694	-0.4924767208	 2.508278398	 0.108494
H	 0.2186592117	-1.2234490726	 3.2902008315	 0.112762
H	 1.5164497922	 0.1853091177	 1.554638868	 0.085459
120.4753	137.2691	230.6119	246.2496	323.7737	365.1704	406.991	432.5796	494.8398	530.0829	647.4492	757.3312	783.5466	813.6389	826.9328	887.1359	927.9407	938.9947	1025.0962	1029.7647	1052.9774	1074.055	1086.9993	1127.0757	1134.3947	1150.1175	1170.479	1181.2331	1222.1655	1248.481	1265.0535	1281.6944	1303.0417	1342.9713	1366.8947	1405.2218	1462.0819	1483.9949	1487.9386	1495.9091	1504.0587	1532.2335	1898.6698	2921.7706	2931.7889	3042.5138	3054.2597	3059.2526	3073.9232	3086.287	3102.5899	3104.8974	3112.1083	3132.8045
CN1CCC2CC1C2=O	CN1CC[C@@H]2C[C@H]1C2=O	
InChI=1S/C7H11NO/c1-8-3-2-5-4-6(8)7(5)9/h5-6H,2-4H2,1H3	InChI=1S/C7H11NO/c1-8-3-2-5-4-6(8)7(5)9/h5-6H,2-4H2,1H3/t5-,6+/m1/s1
