16
gdb 30701	4.22762	0.94181	0.88437	2.9479	66.12	-0.2481	-0.0128	0.2354	1298.8102	0.125214	-475.042053	-475.033871	-475.032927	-475.075689	29.913	
O	 0.0782648267	 1.4257564905	-0.0653713834	-0.42324
C	 0.0389637846	 0.0462301503	 0.2157063762	-0.061698
C	-1.3839189626	-0.5012147309	 0.0007604827	-0.027732
O	-1.8294660105	-0.1137911523	-1.297945024	-0.443271
C	-1.4455426923	-1.9882161141	 0.1574022892	 0.265259
C	-1.8121861839	-2.7817346614	 1.1909007573	-0.130521
O	-1.6491691969	-4.086027192	 0.8062674241	-0.137999
C	-1.1926175455	-4.0075200581	-0.4598422744	 0.081753
N	-1.046970766	-2.8029372074	-0.9036095967	-0.323694
H	-0.419771319	 1.5283812998	-0.8875798209	 0.287366
H	 0.735321442	-0.525535046	-0.4209381107	 0.089979
H	 0.3457361091	-0.092645859	 1.2581709167	 0.104932
H	-2.0558803122	-0.0127096123	 0.7145004955	 0.099703
H	-1.5113652691	-0.7946192802	-1.9067372519	 0.299563
H	-2.1850955706	-2.6156716682	 2.1863510671	 0.158758
H	-1.0005829236	-4.9390352488	-0.9684796867	 0.160844
50.7941	115.4239	121.7516	229.1228	294.4607	367.0564	402.9601	435.4735	535.1757	538.3997	640.7958	721.1559	777.8138	792.4981	851.884	886.7792	939.0698	985.9972	1071.5924	1075.0175	1094.6888	1097.758	1139.248	1203.8838	1231.1437	1268.101	1286.7799	1313.585	1353.8453	1382.3819	1432.6308	1440.0293	1504.5357	1558.6879	1631.5166	2965.3217	3058.1109	3074.3992	3278.0235	3298.0003	3755.1678	3761.3441
OCC(O)C1=COC=N1	OC[C@@H](O)c1cocn1	
InChI=1S/C5H7NO3/c7-1-5(8)4-2-9-3-6-4/h2-3,5,7-8H,1H2	InChI=1S/C5H7NO3/c7-1-5(8)4-2-9-3-6-4/h2-3,5,7-8H,1H2/t5-/m1/s1
