17
gdb 126056	3.02276	1.62389	1.1145	4.4412	74.4	-0.2245	-0.0014	0.2231	1063.3272	0.1393	-414.175264	-414.167765	-414.16682	-414.207325	28.624	
C	 0.0531718949	 1.5936615782	-0.034439909	-0.366642
C	 0.0102185175	 0.0686921443	 0.0700178044	-0.092647
N	 0.7010331423	-0.5773793906	-1.0910538293	-0.323101
C	 1.5232664553	-1.7473072627	-0.685282587	-0.284532
C	 1.6221676967	-1.5091390208	 0.7825243543	 0.334616
C	 0.7903734911	-0.5167852175	 1.2073282963	 0.313678
N	 0.912660197	-0.3562388057	 2.5479071956	-0.298307
N	 1.795880856	-1.2164305369	 2.9799213611	-0.124221
N	 2.2371847053	-1.9304545223	 1.9024695393	-0.330694
H	 1.0881689075	 1.9386960887	-0.1008525165	 0.122137
H	-0.4820094771	 1.9338718578	-0.9264717347	 0.108313
H	-0.4162671495	 2.0480326575	 0.8437418141	 0.126874
H	-1.0445059242	-0.2478118703	 0.1336097068	 0.081432
H	 0.047288958	-0.8215544477	-1.8230105864	 0.222513
H	 1.0475445546	-2.71715355	-0.9068074889	 0.109668
H	 2.492239057	-1.7384568054	-1.2022099464	 0.12207
H	 2.9348551876	-2.6417666364	 2.0483378462	 0.278843
97.1898	161.413	221.8523	229.185	290.6283	443.1601	474.9833	547.0962	552.7199	660.0835	685.3105	709.0432	747.4477	779.8251	931.2227	984.3065	1002.1082	1027.6621	1047.594	1064.8866	1093.5441	1111.0598	1178.0263	1188.959	1223.5835	1267.9502	1334.9093	1366.0731	1371.6062	1404.456	1421.5353	1436.5824	1489.3983	1493.4285	1518.8334	1540.1905	1616.7457	2949.7858	2958.3873	3014.2729	3038.4194	3109.84	3125.4223	3570.7509	3664.2604
CC1NCC2=C1N=NN2	C[C@H]1NCc2c1nn[nH]2	
InChI=1S/C5H8N4/c1-3-5-4(2-6-3)7-9-8-5/h3,6H,2H2,1H3,(H,7,8,9)	InChI=1S/C5H8N4/c1-3-5-4(2-6-3)7-9-8-5/h3,6H,2H2,1H3,(H,7,8,9)/t3-/m1/s1
