21
gdb 41153	2.81124	1.86051	1.40977	1.4865	81.14	-0.2279	0.0768	0.3048	994.2372	0.185783	-387.071897	-387.06485	-387.063906	-387.10289	30.003	
C	-0.0173161174	 1.5759808773	 0.0999559012	-0.255266
C	 1.5334195334	 1.5782621752	-0.108950201	-0.33511
C	 1.3912752187	 0.1783488649	-0.7112384636	 0.450653
C	 2.2040615976	-1.1124684181	-0.8102913731	-0.331247
C	 1.29334387	-1.2932833943	-2.0530918557	 0.094708
C	-0.1061070675	-1.8546831287	-1.7086208208	-0.226049
C	-0.9333086454	-0.7742828694	-0.9538478997	-0.222898
C	 0.006138779	 0.022876366	-0.0422499785	-0.006244
O	 1.1927682876	 0.1591012637	-2.1578912685	-0.324962
H	-0.3989936924	 1.9919957498	 1.0346510827	 0.09499
H	-0.5341077624	 2.0507534907	-0.7377342906	 0.113443
H	 1.9676169137	 2.3399452603	-0.7602359107	 0.109745
H	 2.0791596431	 1.5598466775	 0.8388680028	 0.10544
H	 3.2466665685	-0.9557166668	-1.0973737804	 0.103668
H	 2.129974525	-1.8284524712	 0.012511537	 0.090758
H	 1.7277222591	-1.7388824653	-2.9510614662	 0.074218
H	-0.6307938171	-2.1460789254	-2.6242708752	 0.101079
H	 0.0041560334	-2.7649126784	-1.1066749176	 0.097284
H	-1.3681430268	-0.0977956584	-1.6941015778	 0.111404
H	-1.7643698009	-1.2321639072	-0.4090846861	 0.088893
H	 0.1107634905	-0.4461292124	 0.9429824919	 0.065494
151.0359	207.3033	318.251	355.4963	385.7458	434.5683	520.7948	523.0569	625.213	694.1011	752.5736	784.4451	810.2372	854.0048	878.0556	903.5794	919.0768	932.8078	949.9238	969.1215	984.4213	1026.1414	1067.2746	1089.3343	1112.9916	1119.2575	1169.9762	1195.6934	1202.5715	1216.8078	1235.9587	1247.8497	1255.5978	1279.8478	1289.9292	1315.4958	1340.8269	1349.9828	1361.3223	1372.065	1465.3997	1479.729	1483.9699	1493.9061	1497.6598	3032.2453	3035.7915	3055.239	3056.5255	3060.9907	3067.0409	3070.7587	3084.7805	3102.1834	3113.2989	3119.0238	3127.9954
C1CC23CC(CCC12)O3	C1C[C@@]23C[C@@H](CC[C@H]12)O3	
InChI=1S/C8H12O/c1-2-7-5-8(9-7)4-3-6(1)8/h6-7H,1-5H2	InChI=1S/C8H12O/c1-2-7-5-8(9-7)4-3-6(1)8/h6-7H,1-5H2/t6-,7-,8-/m1/s1
