18
gdb 89338	1.92929	1.83627	1.14988	5.6121	78.82	-0.2226	0.0114	0.234	1114.5717	0.147477	-398.089897	-398.081043	-398.080099	-398.123055	33.506	
C	-0.211479336	 1.4308891797	 0.0417653246	-0.34083
N	 0.143656821	 0.0225615625	-0.0039099635	-0.121952
C	 1.2828748293	-0.4088123636	-0.8613409435	-0.232105
C	 1.9325532459	-1.1181724149	 0.3396662332	 0.239889
N	 2.5186185225	-2.4022201609	 0.3997239668	-0.583325
C	 2.1760058175	-0.1192307731	 1.432386568	-0.358173
C	 0.7504554025	-0.5822246359	 1.1798420173	 0.188739
C	-0.0454675393	-1.217178044	 2.1815026208	 0.239879
N	-0.6938626544	-1.7296285733	 2.9919890668	-0.35697
H	 0.6255801355	 2.103001698	 0.2991016077	 0.097727
H	-0.6019930402	 1.7330211467	-0.9346735912	 0.127744
H	-1.0052297804	 1.5756398395	 0.7806088174	 0.139731
H	 0.9554894863	-1.0846305249	-1.6596566702	 0.111267
H	 1.8732046532	 0.4066961018	-1.3001951305	 0.100689
H	 2.0623571755	-3.0610062288	-0.2217486132	 0.241874
H	 3.5072797507	-2.3774645175	 0.174195365	 0.241035
H	 2.6323127981	-0.538095648	 2.3225158237	 0.145581
H	 2.4537310521	 0.9062113666	 1.2052539807	 0.119199
107.132	145.8995	164.0053	210.4488	231.8112	281.2392	362.0872	389.9944	404.0288	461.2457	543.0044	570.4486	617.3207	656.3115	750.4106	773.7182	842.2113	859.2016	957.3173	971.7719	1010.0657	1065.7095	1081.0226	1113.3265	1153.067	1164.8284	1217.9419	1235.4368	1268.6349	1305.3424	1329.7341	1408.9631	1448.8591	1479.9255	1486.8887	1499.3699	1511.5819	1659.2871	2344.6881	2953.94	3008.6426	3060.7061	3070.8153	3113.0719	3123.4737	3223.2778	3507.4329	3589.1536
CN1CC2(N)CC12C#N	CN1C[C@@]2(N)C[C@@]12C#N	
InChI=1S/C6H9N3/c1-9-4-5(8)2-6(5,9)3-7/h2,4,8H2,1H3	InChI=1S/C6H9N3/c1-9-4-5(8)2-6(5,9)3-7/h2,4,8H2,1H3/t5-,6-/m0/s1
