21
gdb 92558	2.64117	1.69218	1.5914	1.4857	80.68	-0.2369	0.0795	0.3164	993.2916	0.185519	-387.100518	-387.093078	-387.092134	-387.132211	30.475	
C	-0.2124646285	 1.5597329303	 0.0379561845	-0.401516
C	 0.0051782533	 0.0498159782	 0.0193119216	 0.130017
O	 0.5930510198	-0.3473753582	-1.2220492587	-0.29857
C	 1.6767431654	-1.2710343427	-1.0268418932	 0.097529
C	 2.9888705647	-0.5203389486	-1.291540149	-0.198944
C	 3.167796816	 0.3528551358	-0.022847166	-0.240733
C	 2.4108584586	-0.4063251318	 1.0747935156	-0.05292
C	 0.8927430231	-0.5340607607	 1.1021562829	-0.069333
C	 1.7213070504	-1.6112088005	 0.4708258165	-0.105181
H	 0.7336383432	 2.1047851132	 0.0042437106	 0.122027
H	-0.816658548	 1.8633280186	-0.8217749666	 0.123417
H	-0.7459705589	 1.8509600632	 0.9489681546	 0.109727
H	-0.9817365478	-0.4361887057	 0.1085729975	 0.066083
H	 1.5223806655	-2.1373761055	-1.6774646893	 0.07017
H	 3.8115589058	-1.2409668033	-1.3698587617	 0.0911
H	 2.9475020232	 0.0536939988	-2.220796627	 0.101509
H	 4.2223439772	 0.4535833379	 0.2499205156	 0.097091
H	 2.7864423401	 1.3657034898	-0.176365822	 0.109442
H	 2.8860866569	-0.494464776	 2.0460992901	 0.081823
H	 0.4405840727	-0.691707939	 2.0761158376	 0.083864
H	 1.8009282074	-2.6293536739	 0.8295673164	 0.083398
97.4428	181.4977	216.873	279.1077	359.1635	394.391	523.8182	601.6745	661.7504	683.7138	746.6534	782.7225	806.2315	824.2678	846.3659	894.8251	917.5891	948.1273	955.4003	981.5954	1015.7953	1025.2616	1045.9136	1065.0247	1090.3448	1107.6557	1121.9413	1136.0932	1169.5595	1186.0098	1221.7206	1285.4432	1288.386	1310.5627	1323.6874	1340.709	1354.8546	1362.9685	1396.4473	1404.9064	1415.1434	1475.7281	1485.2397	1494.3049	1505.7448	2945.5203	3036.5911	3042.6392	3059.1905	3063.7372	3090.5516	3106.7488	3110.1471	3130.7192	3156.8912	3166.2871	3191.7162
CC1OC2CCC3C1C23	C[C@H]1O[C@H]2CC[C@H]3[C@@H]1[C@@H]23	
InChI=1S/C8H12O/c1-4-7-5-2-3-6(9-4)8(5)7/h4-8H,2-3H2,1H3	InChI=1S/C8H12O/c1-4-7-5-2-3-6(9-4)8(5)7/h4-8H,2-3H2,1H3/t4-,5+,6+,7-,8-/m1/s1
