14
gdb 123477	5.21729	0.96938	0.92601	5.8713	63.29	-0.2978	-0.0476	0.2502	1229.1451	0.101285	-466.10014	-466.0927	-466.091756	-466.13408	25.56	
C	-0.0721725811	 1.564607108	 0.1521689911	-0.186007
C	-0.1346261422	 0.0631707408	 0.3191099507	 0.078926
C	-1.2946693232	-0.6899604381	-0.1711387346	-0.172952
O	-0.0527390798	-0.7030891905	-0.8754605428	-0.211556
N	 1.300927278	 2.0346161145	-0.0036231991	 0.166831
N	 2.1797193734	 2.0817675931	 0.9856157425	-0.123156
N	 3.2765088807	 2.5145467798	 0.4427511531	-0.07936
N	 3.0609777486	 2.7282418919	-0.8699169231	-0.080735
N	 1.8304288235	 2.4277433531	-1.1519699337	-0.106395
H	-0.6068838219	 1.8753305964	-0.7459488954	 0.165807
H	-0.4924317961	 2.0684195234	 1.0265053998	 0.159175
H	 0.4384428283	-0.3294601118	 1.1585649558	 0.129864
H	-1.5707346326	-1.621811994	 0.3180071157	 0.133785
H	-2.1087936656	-0.1647401565	-0.66888234	 0.125774
32.271	58.835	118.8719	267.4308	332.7393	370.3542	456.9301	716.6627	765.0478	776.1002	802.896	870.8075	940.0036	966.6321	978.0208	1066.7168	1099.232	1106.5858	1144.5318	1160.812	1165.8437	1181.2384	1253.441	1289.0981	1294.2964	1359.9977	1395.3153	1416.7551	1445.9166	1460.3715	1532.448	3081.7113	3091.2579	3123.4378	3154.8213	3181.5672
C(C1CO1)N1N=NN=N1	C([C@H]1CO1)n1nnnn1	
InChI=1S/C3H5N5O/c1(3-2-9-3)8-6-4-5-7-8/h3H,1-2H2	InChI=1S/C3H5N5O/c1(3-2-9-3)8-6-4-5-7-8/h3H,1-2H2/t3-/m0/s1
