14
gdb 125477	5.3759	1.29671	1.05157	6.6119	71.01	-0.2308	-0.0297	0.201	1067.3267	0.102896	-432.871496	-432.864428	-432.863484	-432.90312	26.596	
C	-0.0196777671	 1.4787312398	 0.0202844567	-0.504197
C	-0.0026168914	-0.0108543192	-0.0330059197	 0.340995
N	-0.0522701025	-0.7201638327	-1.1331085281	-0.36652
C	-0.0096262752	-2.0294543649	-0.6863552328	 0.412047
N	-0.0235330609	-3.2195799385	-1.2450624016	-0.257285
O	 0.0482577188	-4.0879691609	-0.1517247143	-0.174901
C	 0.1025657809	-3.4065501506	 1.0247191937	-0.058642
C	 0.068361706	-2.0854859102	 0.7358894577	 0.208129
N	 0.070881542	-0.7648000977	 1.1356575472	-0.476557
H	 0.8910895361	 1.8686984378	 0.4882008864	 0.144098
H	-0.0890198067	 1.8677548323	-0.9950869796	 0.170884
H	-0.8741009999	 1.8448143794	 0.6002216299	 0.143604
H	 0.1594274625	-4.0115247296	 1.9137060564	 0.148314
H	 0.1177556173	-0.3980001652	 2.0697335881	 0.270032
89.7733	151.7476	294.1779	299.6102	357.7597	379.8303	540.3452	573.8338	582.6988	665.4909	751.9958	760.8914	785.0924	837.4629	904.9664	962.453	979.2508	1024.7717	1060.8775	1091.5791	1201.5135	1240.4314	1298.8708	1394.5668	1412.6455	1428.0414	1480.4285	1481.8223	1545.909	1607.2546	1719.9014	3039.1737	3092.7411	3163.3514	3281.1172	3683.7391
CC1=NC2=NOC=C2N1	Cc1nc2nocc2[nH]1	
InChI=1S/C5H5N3O/c1-3-6-4-2-9-8-5(4)7-3/h2H,1H3,(H,6,7,8)	InChI=1S/C5H5N3O/c1-3-6-4-2-9-8-5(4)7-3/h2H,1H3,(H,6,7,8)
