19
gdb 10923	3.29608	1.86022	1.5081	2.6938	71.29	-0.2316	0.0734	0.305	925.6881	0.165275	-365.02769	-365.019439	-365.018495	-365.05979	31.625	
C	-0.1664308341	 1.5704946623	-0.0346085014	-0.404424
C	-0.0131409062	 0.0575142589	-0.0459032955	-0.016721
C	 0.756576118	-0.6024962308	-1.1944221051	-0.116168
N	 2.1668332941	-0.1325690807	-1.0760398836	-0.394838
C	 1.6977808285	-1.2901547937	-0.2678336082	 0.318062
C	 2.3744883815	-2.6240386136	-0.3152554385	-0.519289
C	 1.0388363746	-0.6043088262	 0.9458693334	 0.082047
O	 1.8654839467	 0.2381549247	 1.6993533699	-0.435185
H	 0.7847446465	 2.0619333386	-0.253767489	 0.124523
H	-0.8949411213	 1.8958352883	-0.7852665756	 0.106864
H	-0.5100852315	 1.9191220526	 0.9441717076	 0.121213
H	-0.9843273804	-0.4310334369	 0.0864346626	 0.069277
H	 0.3760418161	-0.935432599	-2.153576185	 0.08863
H	 2.6856162201	-0.5043708222	-1.8703550131	 0.226881
H	 2.5975165267	-2.9206207359	-1.3464183188	 0.115706
H	 3.3178798566	-2.6065300542	 0.2426111632	 0.134587
H	 1.7414066521	-3.4005568776	 0.1272099305	 0.12748
H	 0.5681709287	-1.303398112	 1.6416616046	 0.081463
H	 2.4090150034	 0.7038678574	 1.048293132	 0.289892
120.8585	176.5594	195.6335	218.5858	236.8772	259.4065	340.118	466.0616	529.664	554.7139	596.5559	677.0621	701.8837	797.5585	848.4105	873.2431	898.0105	967.4161	992.6113	1010.469	1063.9055	1070.5317	1107.2244	1131.2248	1139.012	1148.3524	1205.6656	1239.7436	1269.665	1313.9116	1336.9012	1376.0166	1403.1966	1409.362	1433.5825	1465.7068	1481.6937	1487.9451	1497.7259	1503.7826	3023.2985	3036.9495	3049.2616	3083.7765	3087.9677	3094.1143	3100.7351	3122.3598	3176.5762	3480.6473	3744.6045
CC1C2NC2(C)C1O	C[C@H]1[C@H]2N[C@@]2(C)[C@H]1O	
InChI=1S/C6H11NO/c1-3-4-6(2,7-4)5(3)8/h3-5,7-8H,1-2H3	InChI=1S/C6H11NO/c1-3-4-6(2,7-4)5(3)8/h3-5,7-8H,1-2H3/t3-,4+,5-,6+/m0/s1
