15
gdb 49453	3.35783	1.28618	1.13992	2.3721	71.48	-0.2428	-0.0375	0.2054	1061.91	0.112185	-420.613319	-420.605953	-420.605009	-420.64563	27.771	
O	 0.0691288723	-0.1197888126	-0.4642135079	-0.249362
C	 0.0073505212	 1.0419407075	-0.1451309681	 0.13096
C	 1.226367775	 1.9287909565	-0.0598646384	-0.076435
C	 1.2096302047	 3.3271731869	-0.7806008935	-0.20309
C	 0.0970373641	 4.0607410118	-0.0479443187	-0.093237
C	 0.2585181324	 3.7149947884	 1.2415976044	-0.093201
C	 1.4622664105	 2.7856180083	 1.2383814689	-0.203105
C	 2.3584528928	 3.6660677784	 0.2643779483	 0.428788
O	 3.3902282386	 4.2411383546	 0.2894922793	-0.287359
H	-0.9598328599	 1.5195648789	 0.1036557314	 0.092199
H	 2.1058996901	 1.336985239	-0.3286159731	 0.11196
H	 1.3221820096	 3.4299815901	-1.8567010283	 0.099952
H	-0.5705155229	 4.7882249927	-0.4858526725	 0.120985
H	-0.2441044577	 4.0891266751	 2.1213830153	 0.120987
H	 1.8255501293	 2.3510578046	 2.1659591429	 0.099957
71.5656	125.6101	216.3006	241.0032	391.8099	433.2993	481.4591	574.8503	591.5848	702.0015	755.001	795.0484	814.0486	864.4196	904.6263	939.411	948.2594	950.4234	998.987	1049.5955	1100.2288	1104.1367	1132.0132	1153.0188	1155.2622	1244.7955	1248.9287	1317.5148	1331.1758	1427.0363	1591.8121	1815.2897	1930.0067	2945.3829	3086.212	3161.9728	3163.5045	3231.1589	3254.6461
O=CC1C2C=CC1C2=O	O=C[C@H]1[C@H]2C=C[C@@H]1C2=O	
InChI=1S/C7H6O2/c8-3-6-4-1-2-5(6)7(4)9/h1-6H	InChI=1S/C7H6O2/c8-3-6-4-1-2-5(6)7(4)9/h1-6H/t4-,5+,6+
