20
gdb 118018	3.55854	0.80406	0.68597	4.7498	77.27	-0.2492	0.0309	0.2802	1632.4204	0.170178	-436.448965	-436.438096	-436.437151	-436.485476	37.911	
C	-0.0390144675	 1.3773996117	-0.0476421304	-0.22884
O	 0.0531007181	-0.0276662762	-0.0397784252	-0.240508
C	 0.595223266	-0.5420218936	 1.1580113201	-0.064248
C	 0.6307846596	-2.0684591129	 1.0115403963	 0.009285
N	 1.3639816299	-2.5366124733	-0.1608192309	-0.504665
C	 1.2260769957	-2.733192368	 2.2715482641	-0.137984
N	 0.5314544817	-2.290875508	 3.4843597397	-0.503303
C	 1.2372392012	-4.2059188103	 2.129651985	 0.284541
N	 1.2109988573	-5.3616843157	 2.1239116933	-0.328536
H	 0.9496997609	 1.8514354472	 0.0568859835	 0.105726
H	-0.4724955073	 1.671548638	-1.0065411076	 0.129476
H	-0.6837357891	 1.748527598	 0.7639974602	 0.108672
H	 1.6197887238	-0.1567594328	 1.3176220588	 0.074182
H	-0.0065162396	-0.2417664886	 2.0265078926	 0.108184
H	-0.4051575792	-2.4152850613	 0.900942386	 0.102209
H	 0.943165151	-2.1183886614	-0.9851017378	 0.246691
H	 2.3189814334	-2.1843242583	-0.1305941156	 0.222913
H	 2.2719468172	-2.4090541049	 2.3585328054	 0.124325
H	-0.416104236	-2.660056401	 3.4861916506	 0.244258
H	 0.9875411329	-2.6807557986	 4.303666042	 0.247622
50.5764	90.1442	95.5192	121.6091	188.4781	228.3265	237.4228	249.7815	264.2162	291.4567	356.4743	388.7757	446.5817	470.6039	604.4831	613.1609	851.0332	891.6453	901.3352	945.8202	985.8641	1011.1451	1107.563	1112.1255	1130.6057	1153.4191	1172.1934	1186.4051	1226.4244	1242.0642	1282.8557	1319.8031	1350.9475	1394.2046	1407.3874	1421.583	1480.5372	1485.2348	1502.8406	1523.5382	1664.2329	1667.9968	2348.9674	2934.032	2974.0305	3018.6708	3019.2908	3028.998	3041.6871	3115.3963	3474.8087	3492.0177	3564.6034	3570.4288
COCC(N)C(N)C#N	COC[C@@H](N)[C@@H](N)C#N	
InChI=1S/C5H11N3O/c1-9-3-5(8)4(7)2-6/h4-5H,3,7-8H2,1H3	InChI=1S/C5H11N3O/c1-9-3-5(8)4(7)2-6/h4-5H,3,7-8H2,1H3/t4-,5+/m0/s1
