14
gdb 133060	4.99489	0.99675	0.83526	2.9916	67.01	-0.2592	-0.054	0.2052	1255.9083	0.101156	-478.012436	-478.004761	-478.003817	-478.045427	27.677	
O	-0.0051747442	 1.4263959052	 0.0084267377	-0.415715
C	-0.0043968142	 0.0124779322	 0.0032563677	-0.151978
C	-1.4280526619	-0.4844941391	 0.0142903406	 0.283909
N	-1.5906107063	-1.8146204351	 0.0122428952	-0.279876
C	-2.8334213422	-2.2776807454	 0.0216489806	-0.143766
C	-3.9135298043	-1.3930822193	 0.0331417279	 0.310685
F	-5.1481023815	-1.8825558261	 0.0424906815	-0.065592
N	-3.7828586686	-0.0902394027	 0.0354337481	-0.290922
C	-2.5258291196	 0.3732840822	 0.0259069775	-0.054513
H	 0.9061975372	 1.730407483	 0.0012636719	 0.297777
H	 0.4999024681	-0.3959981196	-0.886579549	 0.116245
H	 0.5158635346	-0.4025491482	 0.8807629683	 0.116262
H	-2.9901092124	-3.3521134858	 0.0202425601	 0.131333
H	-2.3901004947	 1.4477212786	 0.0275517621	 0.14615
52.1804	124.1002	203.3103	214.988	352.7215	381.5056	440.4388	477.94	548.1419	551.45	653.7998	756.0428	783.014	896.2286	919.3597	964.8603	1042.1102	1045.5895	1100.8583	1200.045	1240.1403	1241.4706	1270.848	1304.2945	1331.0401	1384.3587	1454.3398	1503.8357	1520.6364	1600.449	1622.5405	2976.4099	3001.4128	3177.6183	3215.7864	3848.5301
OCC1=NC=C(F)N=C1	OCc1ncc(F)nc1	
InChI=1S/C5H5FN2O/c6-5-2-7-4(3-9)1-8-5/h1-2,9H,3H2	InChI=1S/C5H5FN2O/c6-5-2-7-4(3-9)1-8-5/h1-2,9H,3H2
