15
gdb 32258	2.68969	1.60839	1.01301	1.8726	71.53	-0.2326	-0.0224	0.2102	1107.4055	0.114596	-453.995686	-453.988118	-453.987174	-454.027919	28.207	
C	-0.0342342407	 1.425333483	-0.0645885614	-0.251324
O	-0.0213466764	 0.0088241045	 0.0093176522	-0.255756
C	 0.6137699449	-0.5532580242	 1.0617756024	 0.250811
C	 1.2647991921	 0.1024355667	 2.0946689727	-0.103449
N	 1.8723116204	-0.5478246798	 3.1055908995	-0.263466
C	 1.816444604	-1.8673273398	 3.0640752986	 0.05713
N	 1.2187570253	-2.6107546469	 2.1210797844	-0.344127
C	 0.6267074577	-1.9647204203	 1.1354279339	 0.367694
O	 0.016468983	-2.6677528978	 0.1705501861	-0.39903
H	 0.9823385614	 1.8327783718	-0.1339455263	 0.131153
H	-0.5866884526	 1.6742234493	-0.9711994995	 0.144378
H	-0.539694632	 1.8678251514	 0.8031407394	 0.131153
H	 1.3089782173	 1.1862453084	 2.1259999016	 0.113887
H	 2.2999393359	-2.412932119	 3.8696558227	 0.117745
H	 0.1388733999	-3.5995712674	 0.4041038438	 0.303201
96.6919	161.2026	218.9147	250.7729	326.7621	344.1307	460.1419	526.4314	545.7639	580.2067	615.0681	626.0029	784.9989	803.049	907.1984	928.4	978.5584	1055.3915	1143.7588	1177.6837	1185.0186	1217.6365	1272.894	1339.3502	1351.8045	1364.3492	1442.4682	1483.1294	1491.7009	1505.2524	1528.0222	1609.2322	1645.1108	3008.6939	3070.312	3143.9293	3173.5609	3182.4819	3755.8081
COC1=CN=CN=C1O	COc1cncnc1O	
InChI=1S/C5H6N2O2/c1-9-4-2-6-3-7-5(4)8/h2-3H,1H3,(H,6,7,8)	InChI=1S/C5H6N2O2/c1-9-4-2-6-3-7-5(4)8/h2-3H,1H3,(H,6,7,8)
