18
gdb 34380	2.57323	1.67181	1.33313	1.4278	83.14	-0.222	0.0096	0.2317	1025.9412	0.148229	-364.758473	-364.750736	-364.749792	-364.79045	30.805	
C	-0.0266105796	-1.1910796147	-0.0720549198	-0.430125
C	-0.0190679831	 0.0106807484	-0.028478332	 0.285052
C	-0.04704545	 1.4673332107	 0.0163607631	 0.110777
C	-0.3527855348	 2.1993351792	-1.3282053244	-0.289563
C	 0.8560505401	 3.1023569148	-0.9993956919	-0.170048
N	 1.2891708128	 2.1678709608	 0.0757830742	-0.11489
C	 1.4318906599	 2.7666225697	 1.4109689217	-0.234046
C	 0.0433404987	 2.6948576468	 2.0125048223	-0.073716
C	-0.777188345	 1.9852840764	 1.242348669	-0.140875
H	-0.0191133601	-2.2522915105	-0.1098551281	 0.191545
H	-0.2007212312	 1.554050835	-2.19404254	 0.120586
H	-1.329153204	 2.6806566284	-1.3957724603	 0.11043
H	 1.6015239892	 3.2361423355	-1.7888289398	 0.106895
H	 0.5614318486	 4.0909559868	-0.6226282458	 0.095498
H	 2.1597387599	 2.2148251061	 2.0230650562	 0.114851
H	 1.8101079878	 3.7931540008	 1.321242257	 0.108442
H	-0.2155087983	 3.1417665151	 2.9657634066	 0.102489
H	-1.8113375608	 1.7377598807	 1.4475897517	 0.106697
116.3618	151.7796	174.5619	249.4828	359.5264	445.4805	514.4447	527.4128	540.02	610.9825	648.5921	685.6774	731.0996	758.9675	790.4839	816.006	918.4625	939.3506	946.9276	966.4413	969.1	1001.5318	1062.9068	1105.6936	1118.6716	1142.3737	1187.3254	1197.3155	1215.0642	1249.8072	1261.5618	1319.3831	1329.9299	1345.8407	1481.9283	1492.9061	1519.657	1672.3045	2229.6832	3000.1198	3011.7249	3039.9064	3072.7129	3085.5262	3144.7789	3193.0191	3221.0851	3501.2208
C#CC12CCN1CC=C2	C#C[C@]12CCN1CC=C2	
InChI=1S/C8H9N/c1-2-8-4-3-6-9(8)7-5-8/h1,3-4H,5-7H2	InChI=1S/C8H9N/c1-2-8-4-3-6-9(8)7-5-8/h1,3-4H,5-7H2/t8-/m0/s1
