17
gdb 81280	2.85155	1.59577	1.27638	3.6485	73.86	-0.2319	-0.0603	0.1715	1021.1407	0.136806	-421.82846	-421.821086	-421.820141	-421.860061	29.031	
C	-0.0846810058	 1.5228062587	 0.0083696686	-0.430033
C	-0.0276777684	 0.0036553776	-0.0145591975	-0.00312
C	 1.182839531	-0.6019244519	-0.794992577	 0.025439
O	 1.9939067545	-0.4917207005	 0.4115680831	-0.292564
C	 0.7616365902	-0.6235067379	 1.1740078664	-0.044329
C	 0.4352756865	-2.1186050938	 1.2959356045	 0.409621
O	 0.0449994195	-2.641116568	 2.3160465076	-0.333385
C	 0.6025107306	-2.8237495028	-0.0048481166	-0.177479
C	 0.9346456907	-2.0700538216	-1.0627438743	-0.045654
H	 0.8988229287	 1.9440654566	 0.2348884696	 0.138541
H	-0.4135780552	 1.9150779446	-0.9598910093	 0.120531
H	-0.7923661443	 1.8728080637	 0.7670368271	 0.126697
H	-1.0021486608	-0.4369210971	-0.2392386216	 0.089297
H	 1.6088028284	-0.0544596561	-1.6388269749	 0.084583
H	 0.7868059923	-0.1239361303	 2.144598419	 0.094946
H	 0.4095543552	-3.8900307592	-0.0439456823	 0.119446
H	 1.0141675768	-2.4662285622	-2.0702032025	 0.117463
129.1725	205.3934	240.5325	253.3502	349.6338	412.4462	432.3695	474.653	518.3746	683.7584	712.5423	794.8429	813.3837	844.2736	884.4631	905.0699	952.6139	962.7443	998.3173	1029.8275	1054.7944	1075.7934	1125.8903	1141.023	1191.5495	1226.2786	1242.103	1260.1941	1280.694	1329.1419	1379.1493	1381.5567	1406.3205	1491.9999	1501.3544	1652.4606	1803.6438	3034.8782	3078.4408	3089.7635	3099.6165	3103.7526	3119.965	3177.5642	3205.3851
CC1C2OC1C(=O)C=C2	C[C@H]1[C@H]2O[C@@H]1C(=O)C=C2	
InChI=1S/C7H8O2/c1-4-6-3-2-5(8)7(4)9-6/h2-4,6-7H,1H3	InChI=1S/C7H8O2/c1-4-6-3-2-5(8)7(4)9-6/h2-4,6-7H,1H3/t4-,6-,7-/m0/s1
