17
gdb 49104	2.27546	1.3494	0.86351	1.4833	81.19	-0.2604	-0.1003	0.1601	1280.178	0.135366	-421.868753	-421.860184	-421.85924	-421.902534	30.544	
O	 0.0214997053	-0.0605756482	-0.0345669907	-0.254899
C	 0.0084194043	 1.1501078539	 0.0157554486	 0.065483
C	 1.240064396	 1.9555979368	 0.039189858	 0.147666
C	 1.334623563	 3.3071955999	 0.0508679347	 0.147663
C	 2.775226188	 3.7608133392	 0.028340894	-0.304093
C	 3.5621717901	 2.4695217009	 0.3605247084	-0.228319
C	 2.6035045166	 1.3062781145	 0.0071342105	-0.304093
C	 0.2271523965	 4.276604585	 0.0427692537	 0.065481
O	 0.4087291059	 5.4743594278	 0.0132516997	-0.254898
H	-0.9507893453	 1.7043833087	 0.0490806859	 0.083289
H	 3.0177543931	 4.1513815366	-0.9692031169	 0.129758
H	 2.9575551352	 4.5835759562	 0.724823233	 0.133664
H	 4.5146460721	 2.4074669114	-0.1697232745	 0.110933
H	 3.7857242591	 2.4446277795	 1.4315948321	 0.115654
H	 2.6686656266	 0.4542911547	 0.6891475762	 0.133664
H	 2.7904916012	 0.9029566585	-0.9972686454	 0.129758
H	-0.7999247978	 3.8607882347	 0.0677179525	 0.083289
93.9825	122.0215	134.9827	178.9702	187.5752	226.0802	333.9318	424.2483	499.2106	526.6382	625.7283	707.2284	765.2532	850.3747	878.467	926.5204	977.8717	987.4658	1020.114	1030.2363	1066.1495	1147.756	1202.0696	1210.1866	1230.376	1268.5431	1322.1201	1327.6582	1375.9778	1415.6358	1433.424	1473.8285	1476.7623	1503.2082	1663.9071	1771.3242	1775.1003	2912.2852	2941.2812	3024.579	3025.8053	3057.061	3091.1351	3092.4938	3113.3086
O=CC1=C(CCC1)C=O	O=CC1=C(CCC1)C=O	
InChI=1S/C7H8O2/c8-4-6-2-1-3-7(6)5-9/h4-5H,1-3H2	InChI=1S/C7H8O2/c8-4-6-2-1-3-7(6)5-9/h4-5H,1-3H2
