15
gdb 45893	2.45204	2.10612	1.2819	3.1236	66.16	-0.2717	-0.0151	0.2566	939.1169	0.11452	-453.95394	-453.946929	-453.945985	-453.98553	26.623	
O	-0.2068396428	 0.3761133754	 0.9689325866	-0.32585
C	-0.0600646098	 1.239902322	 0.1560390078	 0.429125
O	-1.0903250437	 1.5184379695	-0.7374045611	-0.229351
C	-1.3960510081	 2.7548390106	-1.2553542321	 0.153915
N	-1.0353004419	 3.9145436905	-0.9248293512	-0.244835
C	-0.0801173628	 4.1052530091	 0.1659740273	-0.202641
C	 1.2085281764	 3.3676966242	-0.1101509072	-0.017846
C	 1.8828171033	 2.5472627073	 0.946671352	-0.250885
N	 1.1168102548	 1.9140628407	-0.1139577677	-0.111771
H	-2.1200414905	 2.6103211872	-2.0536130942	 0.143595
H	 0.1068517268	 5.1771146498	 0.2739106304	 0.123951
H	-0.5083891808	 3.7532549401	 1.1163190205	 0.127234
H	 1.8138676659	 3.7740171656	-0.9171523162	 0.120854
H	 2.9555018186	 2.3871738734	 0.9050449025	 0.138878
H	 1.4483810746	 2.5320014445	 1.9425321627	 0.145627
112.2928	142.9861	245.709	307.5831	387.3361	412.1488	507.5018	553.2151	605.9942	706.5208	762.4626	851.8017	853.3212	928.6672	958.9823	963.7014	987.3232	1013.0768	1097.6413	1104.7792	1118.1201	1143.9136	1162.5622	1180.7467	1257.2829	1351.9312	1355.7751	1417.6684	1429.0223	1495.0848	1511.2117	1741.9116	1860.2022	3003.6417	3084.7813	3120.9151	3141.4321	3176.3927	3212.7559
O=C1OC=NCC2CN12	O=C1OC=NC[C@H]2CN12	
InChI=1S/C5H6N2O2/c8-5-7-2-4(7)1-6-3-9-5/h3-4H,1-2H2	InChI=1S/C5H6N2O2/c8-5-7-2-4(7)1-6-3-9-5/h3-4H,1-2H2/t4-,7?/m0/s1
