18
gdb 13027	2.66184	2.4891	1.62131	2.255	67.39	-0.2506	0.0863	0.3369	859.9635	0.153077	-384.937387	-384.929603	-384.928659	-384.969068	29.512	
C	 0.118749102	 1.5383129924	-0.0508090186	-0.405866
C	 0.0271825976	 0.0213605595	 0.0165068564	 0.089964
O	 0.7033771342	-0.5204588006	-1.1212062998	-0.274186
C	 1.318526275	-1.7572718282	-0.7874264685	-0.107675
C	 1.5182471566	-1.7158015669	 0.7095408826	-0.042767
O	 2.1325289044	-0.4988514912	 1.1539846283	-0.293254
C	 0.7001924708	-0.6166314277	 1.2288255561	 0.389168
C	 0.0728922908	-0.5456349437	 2.5919615346	-0.495084
H	 1.1626645025	 1.8489288593	 0.0385117423	 0.138466
H	-0.2740457983	 1.8963793496	-1.0058489611	 0.12704
H	-0.4633477295	 1.999310178	 0.7535902403	 0.110885
H	-1.0310243044	-0.2948059467	 0.0124546605	 0.064512
H	 0.6809861184	-2.6182597071	-1.0501881982	 0.091677
H	 2.2532147701	-1.8320518116	-1.3533775831	 0.117608
H	 1.7551124308	-2.6142812841	 1.2738740227	 0.096483
H	 0.0102787288	 0.4916759289	 2.9382337911	 0.133521
H	-0.9422729922	-0.9557377563	 2.5752958931	 0.125524
H	 0.6669831823	-1.1080278236	 3.3160359914	 0.133984
125.6584	184.8457	221.3204	226.5045	246.5711	300.247	389.3762	446.7258	546.3735	587.6522	683.9158	773.3306	822.2201	875.6691	892.4892	934.1263	978.281	1015.3011	1054.8001	1059.9108	1111.2103	1119.4812	1130.1137	1146.6227	1228.8481	1252.3811	1291.024	1338.3842	1374.5651	1379.4494	1404.539	1413.9619	1465.0529	1483.2507	1490.9179	1497.3243	1502.2157	1507.2181	2945.8945	2968.4001	3037.5299	3045.2385	3068.1429	3099.1105	3116.9577	3126.6348	3133.5326	3149.7795
CC1OCC2OC12C	C[C@H]1OC[C@H]2O[C@@]12C	
InChI=1S/C6H10O2/c1-4-6(2)5(8-6)3-7-4/h4-5H,3H2,1-2H3	InChI=1S/C6H10O2/c1-4-6(2)5(8-6)3-7-4/h4-5H,3H2,1-2H3/t4-,5-,6+/m1/s1
