23
gdb 93086	2.21019	1.44325	1.04221	0.2693	93.97	-0.2271	0.0274	0.2545	1283.4854	0.206413	-351.173678	-351.16422	-351.163276	-351.208196	36.21	
C	 0.0867987925	 1.6077535619	 0.0975564901	-0.380403
C	-0.0210694042	 0.0726912514	-0.003810946	-0.020933
C	 0.4795437557	-0.4516174622	-1.3646554438	-0.268034
C	 1.928576769	-0.1899643595	-1.6835812192	-0.067705
C	 2.9810186852	-0.3524918671	-0.8846955681	-0.036953
C	 3.0630177344	-0.8508721295	 0.5306270035	-0.329663
C	 1.8542268147	-0.995574408	 1.4278555348	 0.294475
C	 2.2070648693	-1.6381500209	 2.7512732382	-0.456559
C	 0.5974185432	-0.603518984	 1.1976515032	-0.15638
H	 1.1292441769	 1.9295403794	 0.0231071939	 0.123614
H	-0.479355812	 2.091688368	-0.7066147779	 0.104053
H	-0.3097253113	 1.9663292194	 1.0525675339	 0.109105
H	-1.0920055786	-0.1699729325	 0.0313160924	 0.070141
H	 0.2825809038	-1.5312603618	-1.4131939916	 0.108477
H	-0.1384403088	-0.0004517092	-2.150172292	 0.092347
H	 2.1296291125	 0.1563599685	-2.6955136246	 0.080213
H	 3.9612986406	-0.132287028	-1.3062051615	 0.080805
H	 3.5806581198	-1.8256861179	 0.5035080501	 0.115689
H	 3.7818086623	-0.2108668267	 1.0693741586	 0.115692
H	 2.599167336	-2.6536973666	 2.6078339564	 0.118264
H	 2.9938946181	-1.0746609461	 3.2702520471	 0.117068
H	 1.3419440817	-1.7006503296	 3.4156169694	 0.117779
H	-0.1064768908	-0.7640024291	 2.014066933	 0.068906
34.6075	122.0765	150.6178	196.1279	239.6171	301.995	332.6869	359.9335	387.0504	409.818	461.9712	486.6414	643.7999	676.4471	773.4897	807.1923	846.3468	853.1653	887.6044	938.5401	957.801	989.9262	1005.0019	1011.9645	1050.2752	1069.2148	1078.1088	1101.4927	1142.9502	1172.9771	1258.9075	1262.7278	1268.4509	1323.223	1353.9606	1374.2288	1393.5729	1406.6019	1413.2531	1421.8113	1438.9566	1450.8121	1478.987	1479.3657	1493.1551	1497.3037	1502.8106	1742.0199	1749.387	2960.7774	2974.1079	2998.4402	3010.8015	3014.8927	3029.9058	3048.76	3054.0634	3096.1748	3112.1348	3116.4062	3120.1527	3121.0875	3148.1566
CC1CC=CCC(C)=C1	C[C@H]1CC=CCC(=C1)C	
InChI=1S/C9H14/c1-8-5-3-4-6-9(2)7-8/h3-4,7-8H,5-6H2,1-2H3	InChI=1S/C9H14/c1-8-5-3-4-6-9(2)7-8/h3-4,7-8H,5-6H2,1-2H3/t8-/m0/s1
