18
gdb 93342	2.19288	1.73499	1.0958	2.0534	76.45	-0.233	0.0052	0.2382	1119.7215	0.149417	-435.301918	-435.293382	-435.292437	-435.33527	31.534	
C	 0.6912142215	 1.6562584525	 0.2668475522	-0.404357
C	 0.2006081106	 0.207877767	 0.2041963025	 0.016195
C	 0.620396583	-0.5412902991	-1.0742783749	-0.11765
O	 1.7828230647	-1.3040154365	-0.7023822563	-0.256617
C	 1.8128868673	-1.4629013747	 0.6491129143	 0.485249
N	 2.5945094056	-2.2089967105	 1.3046627623	-0.593178
N	 0.8351348732	-0.6453867203	 1.2069689971	-0.103996
C	 0.5222772905	-0.6354000032	 2.547177065	 0.081299
N	-0.3775198793	 0.1433354148	 3.0033189242	-0.478027
H	 1.7726273122	 1.7087298945	 0.1036037677	 0.125337
H	 0.1953519184	 2.2535902052	-0.505170141	 0.117971
H	 0.4575500812	 2.0865554971	 1.2421343434	 0.157781
H	-0.8821347923	 0.1809861468	 0.3507459875	 0.1175
H	-0.1559733435	-1.2309679763	-1.4233639164	 0.122011
H	 0.902085322	 0.128314576	-1.8890806196	 0.127428
H	 3.1939136155	-2.7377392301	 0.6761117918	 0.23052
H	 1.1246988621	-1.3554889483	 3.1058903532	 0.143513
H	-0.482909883	 0.002609755	 4.0057680172	 0.229021
84.9405	123.3472	156.1142	206.2285	238.6101	253.8228	334.8237	420.7009	435.0402	594.0887	671.5377	710.5955	729.5492	768.0198	789.4589	823.9227	888.8123	957.045	972.6377	1042.2374	1066.3182	1074.8925	1123.0786	1154.6271	1168.2965	1188.4147	1247.636	1275.4528	1361.958	1371.0202	1383.5459	1402.3628	1410.1391	1457.2798	1489.2669	1505.4629	1520.2344	1709.3071	1779.1071	3039.5135	3043.5208	3080.2619	3110.6074	3113.3462	3116.5763	3143.6473	3511.7394	3537.4439
CC1COC(=N)N1C=N	C[C@H]1CO[C]([NH])N1[CH][NH]	
InChI=1S/C5H9N3O/c1-4-2-9-5(7)8(4)3-6/h3-4,6-7H,2H2,1H3	InChI=1S/C5H9N3O/c1-4-2-9-5(7)8(4)3-6/h3-4,6-7H,2H2,1H3/t4-/m0/s1
