16
gdb 126483	2.70006	1.51474	0.98194	0.7284	74.84	-0.2633	-0.0561	0.2072	1161.8185	0.124635	-434.056761	-434.04865	-434.047706	-434.090074	29.676	
C	 0.0982590547	 1.5327455104	-0.0476204305	-0.387156
C	-0.0435927582	 0.0118641091	-0.0643625331	-0.25102
C	-1.4501113945	-0.5112033859	 0.0319985374	 0.337743
N	-2.3986321935	 0.3519830194	 0.1210259826	-0.1536
O	-3.7143854545	-0.1624024383	 0.210892911	-0.221774
C	-3.891784153	-1.4895863958	 0.1983721777	 0.162283
N	-3.0077442535	-2.4029481811	 0.113200717	-0.320741
C	-1.6754706099	-1.9755738958	 0.0201869722	 0.287826
N	-0.676449361	-2.7631178507	-0.0712371645	-0.504489
H	 1.1544496976	 1.8052210571	-0.1223682344	 0.11503
H	-0.4358652312	 1.9936520416	-0.8825134367	 0.132186
H	-0.3034240359	 1.9620578942	 0.873842217	 0.132247
H	 0.3942222979	-0.4205909875	-0.9723117913	 0.143352
H	 0.5238133976	-0.4514472605	 0.752066072	 0.143277
H	-4.9520535883	-1.7230410386	 0.2744895616	 0.154927
H	-1.0126579844	-3.7292229176	-0.0646717682	 0.229909
67.4512	80.8016	195.8832	211.2925	293.1353	343.1823	416.0672	482.5278	497.4277	545.6502	595.5264	734.4901	742.1385	825.1894	871.5231	913.9257	931.5542	983.7632	985.1046	1044.1944	1090.2657	1102.934	1172.6647	1202.5596	1273.5528	1353.2733	1390.5684	1417.7611	1436.0645	1451.0728	1494.5767	1500.6996	1644.4369	1678.3082	1706.5275	3043.5857	3051.39	3065.7738	3122.9892	3125.8294	3167.3384	3455.4786
CCC1=NOC=NC1=N	CCC1=NOC=N[C]1[NH]	
InChI=1S/C5H7N3O/c1-2-4-5(6)7-3-9-8-4/h3,6H,2H2,1H3	InChI=1S/C5H7N3O/c1-2-4-5(6)7-3-9-8-4/h3,6H,2H2,1H3
