22
gdb 88829	2.96533	1.1384	0.9058	2.4464	83.3	-0.2246	0.0721	0.2966	1363.2002	0.193381	-404.294422	-404.284801	-404.283857	-404.329811	35.212	
C	-2.1679468261	-0.2044422004	 1.9782977237	-0.405361
C	-1.3907207994	-1.5144010472	 2.0244368835	-0.059256
C	-0.8604269149	-2.0399685556	 0.6716606186	-0.075283
O	 0.508911958	-1.8218596698	 1.0645041896	-0.298896
C	 0.1181380725	-1.4744732105	 2.4171546258	 0.128513
C	 0.7330149946	-0.184249949	 2.8776658335	 0.00167
C	 0.9178579743	 0.079199752	 4.3386960059	-0.261603
N	 2.0692668368	-0.1092257084	 3.474225327	-0.084483
C	 2.8689774375	-1.3154932646	 3.6408741453	-0.315324
H	-1.6631816858	 0.5458825512	 1.3618040881	 0.125498
H	-3.1619207955	-0.3691477548	 1.5486769139	 0.116184
H	-2.3038252907	 0.2172441658	 2.9793543652	 0.12238
H	-1.9529068538	-2.2565243477	 2.5972509571	 0.077257
H	-1.0659722063	-3.0988070345	 0.466150143	 0.095776
H	-1.1317403537	-1.4484867228	-0.212025055	 0.09967
H	 0.3785601348	-2.2867361297	 3.1081658037	 0.065951
H	 0.523375466	 0.6598718164	 2.2241669325	 0.090468
H	 0.7698961006	 1.0768454995	 4.7442769023	 0.114779
H	 0.6557744053	-0.7301071717	 5.0217720285	 0.102159
H	 2.3261545852	-2.1742105269	 4.0649257398	 0.100516
H	 3.2779675193	-1.6126718444	 2.670805027	 0.13829
H	 3.7024814514	-1.0858212669	 4.312311561	 0.121099
38.9989	61.9931	120.6057	182.0662	224.4473	243.0867	257.5657	353.8261	370.9312	416.8721	453.9428	536.9653	749.4689	761.5808	844.6905	875.7535	894.3932	920.5355	930.9826	1008.9514	1018.5335	1033.5371	1046.3449	1088.6326	1113.7285	1124.9551	1129.2307	1155.0721	1163.5595	1189.6212	1200.2285	1211.3364	1263.2813	1278.2277	1313.9673	1340.2768	1349.6594	1377.7559	1414.2664	1443.3079	1448.7529	1487.972	1496.2113	1501.2818	1502.6979	1512.5707	1526.8503	2977.4293	3003.5225	3014.2135	3033.8415	3045.2333	3068.9884	3070.0256	3078.0086	3099.0116	3108.3065	3110.8242	3127.6666	3167.9603
CC1COC1C1CN1C	C[C@H]1CO[C@H]1[C@H]1CN1C	
InChI=1S/C7H13NO/c1-5-4-9-7(5)6-3-8(6)2/h5-7H,3-4H2,1-2H3	InChI=1S/C7H13NO/c1-5-4-9-7(5)6-3-8(6)2/h5-7H,3-4H2,1-2H3/t5-,6+,7+,8?/m0/s1
