21
gdb 26652	2.20364	1.53245	0.92382	0.8051	88.25	-0.1795	0.058	0.2375	1310.39	0.181388	-383.323602	-383.31266	-383.311716	-383.360237	38.509	
C	 0.0328608782	 1.5164398034	 0.1237220117	-0.506144
C	 0.0320215151	 0.029863868	-0.025647649	 0.21655
C	-0.0086815857	-0.7830580729	-1.143155584	 0.12062
C	-0.0659029576	-0.3533842969	-2.5783589951	-0.509378
C	 0.0144720289	-2.1444606338	-0.6909090747	 0.186784
C	-0.0133753045	-3.3697969652	-1.5511454051	-0.509287
C	 0.0678865697	-2.1146730523	 0.6864650075	 0.13579
N	 0.1091111856	-3.1142115015	 1.6911167288	-0.616573
N	 0.0777612637	-0.7944891753	 1.073435599	-0.31357
H	 0.9364309967	 1.8813290438	 0.629418815	 0.121871
H	-0.0092595877	 2.0003460701	-0.8542740247	 0.133301
H	-0.8286196397	 1.8749507908	 0.7021844471	 0.121821
H	 0.7935744282	-0.7252278663	-3.1509158117	 0.117807
H	-0.9647565493	-0.7310224874	-3.0825587815	 0.117847
H	-0.0733137114	 0.7357019117	-2.6775559139	 0.114407
H	 0.838128781	-3.409436297	-2.2424399407	 0.119219
H	 0.0197969185	-4.2774269987	-0.9396813359	 0.099341
H	-0.9200517652	-3.4229052104	-2.1673533514	 0.119169
H	 0.9358974514	-3.6975719124	 1.6113962687	 0.240105
H	-0.6955377559	-3.7307132096	 1.6435705325	 0.240322
H	 0.1108522499	-0.5066648081	 2.0364160874	 0.249999
40.3403	65.0859	116.5783	125.5343	151.7489	181.242	237.0246	278.9332	280.5874	286.0494	335.9697	492.0304	522.7018	570.0722	607.0353	651.8873	678.3194	720.7771	800.1967	840.5329	964.1808	995.2269	1048.3199	1057.4673	1072.8164	1099.9102	1162.7072	1205.852	1213.2915	1226.3577	1338.4558	1409.1794	1410.5312	1427.9036	1460.7084	1475.8421	1478.6346	1481.453	1488.3227	1493.2889	1502.7971	1504.7537	1570.2263	1643.4071	1667.4847	3010.1446	3010.7124	3013.8366	3050.4389	3052.8636	3053.8266	3090.1894	3102.0515	3125.3685	3496.2768	3558.6661	3674.1658
CC1=C(C)C(C)=C(N)N1	Cc1c(C)c(C)c(N)[nH]1	
InChI=1S/C7H12N2/c1-4-5(2)7(8)9-6(4)3/h9H,8H2,1-3H3	InChI=1S/C7H12N2/c1-4-5(2)7(8)9-6(4)3/h9H,8H2,1-3H3
