15
gdb 72056	2.51976	1.66262	1.29386	4.7496	71.33	-0.2429	0.0086	0.2515	989.5092	0.113583	-416.745743	-416.738388	-416.737444	-416.77748	28.631	
N	-0.2180843386	 1.3577347143	-0.0033028551	-0.598693
C	 0.0209093101	-0.028424322	-0.0610268317	 0.208136
C	 0.9620470649	-0.8986616409	-0.9178472975	-0.293551
C	 0.1379559488	-2.092555562	-0.3834983636	 0.008753
O	 0.4476340328	-2.1132344021	 1.040031881	-0.283313
C	-0.2992814867	-0.9122108558	 1.1454480724	 0.021207
C	-1.0815855727	-1.1218610552	-0.126905609	 0.210659
C	-2.4451116636	-1.0915550708	-0.4805576036	 0.123923
N	-3.5611424574	-1.0700414583	-0.7922378688	-0.36702
H	 0.5068318671	 1.8514375403	 0.5058907006	 0.245342
H	-0.3142856667	 1.7754181557	-0.9221636191	 0.246349
H	 0.7932490994	-0.7307806612	-1.9846605732	 0.115794
H	 2.0313278687	-0.9086734245	-0.6854388409	 0.110065
H	 0.11164502	-3.0743021102	-0.8472481839	 0.114814
H	-0.6130041162	-0.5463871075	 2.1135176524	 0.137536
113.783	151.0581	240.8899	327.3526	345.9549	425.6991	480.1983	518.5336	575.2271	607.5432	640.1313	743.3427	759.0857	794.3761	843.1553	918.3209	936.0886	964.5695	1004.9332	1027.9668	1055.3745	1105.0931	1122.6318	1175.2205	1215.8334	1233.16	1274.4346	1299.6389	1353.2975	1443.4189	1491.588	1658.286	2337.4891	3052.8631	3118.9637	3173.2476	3226.6727	3510.817	3591.0994
NC12CC3OC1C23C#N	N[C@@]12C[C@H]3O[C@@H]1[C@@]23C#N	
InChI=1S/C6H6N2O/c7-2-5-3-1-6(5,8)4(5)9-3/h3-4H,1,8H2	InChI=1S/C6H6N2O/c7-2-5-3-1-6(5,8)4(5)9-3/h3-4H,1,8H2/t3-,4-,5+,6+/m1/s1
