19
gdb 50539	2.89457	1.1036	0.8397	3.2158	78.36	-0.2422	0.0185	0.2608	1355.4974	0.160191	-419.185421	-419.17663	-419.175686	-419.220204	31.394	
O	 0.1590767898	-0.1494201424	 0.3905281694	-0.32841
C	 0.1227268323	 1.0638906924	 0.3756323287	 0.125758
N	 1.1280718822	 1.8528542814	-0.0683696842	-0.038156
C	 2.4971757404	 1.4923828615	-0.4399674594	-0.164522
C	 2.8371170695	 3.0098103817	-0.4687773449	-0.274926
C	 1.3800719515	 3.3008732931	 0.0183238484	 0.005416
C	 0.5157972767	 4.1660357535	-0.8614173703	 0.019616
C	-0.6732339353	 4.8573197348	-0.3014524878	-0.246447
N	 0.524574783	 5.625843516	-0.6789489595	-0.317033
H	-0.7510844453	 1.6561884824	 0.7168777711	 0.068712
H	 3.0113666688	 0.908075037	 0.3298438015	 0.12625
H	 2.5729270559	 0.9600054404	-1.3924088927	 0.127515
H	 3.6242206259	 3.3264356531	 0.2153095958	 0.119157
H	 3.0464100513	 3.4049524726	-1.4639037616	 0.124921
H	 1.3368333095	 3.678473546	 1.0509169522	 0.078063
H	 0.4907640511	 3.8554861989	-1.9045275802	 0.099044
H	-1.5443741651	 5.0302397604	-0.9261490644	 0.128838
H	-0.8925994602	 4.7180178957	 0.7545693175	 0.114343
H	 1.055799738	 5.8688281015	 0.1552160605	 0.231861
52.6067	70.3127	94.0935	177.4786	216.6832	305.72	317.4052	367.4687	406.2632	604.7523	752.2712	801.2786	819.8944	865.6652	896.9255	924.8948	952.6747	968.7021	973.3655	1035.0302	1043.1501	1087.9782	1133.7034	1153.7919	1162.4931	1178.748	1204.8758	1233.3914	1253.2274	1264.9691	1268.9979	1289.7621	1318.5216	1333.3409	1393.3762	1437.2066	1438.3954	1489.7082	1511.0196	1524.7427	1790.5881	2923.3882	2986.7983	3048.2247	3089.529	3092.3901	3107.7846	3125.1394	3148.0683	3195.6744	3483.3666
O=CN1CCC1C1CN1	O=CN1CC[C@H]1[C@H]1CN1	
InChI=1S/C6H10N2O/c9-4-8-2-1-6(8)5-3-7-5/h4-7H,1-3H2	InChI=1S/C6H10N2O/c9-4-8-2-1-6(8)5-3-7-5/h4-7H,1-3H2/t5-,6+/m1/s1
