22
gdb 119650	3.68565	1.04702	0.95205	1.532	87.	-0.2254	0.0923	0.3177	1356.6467	0.194409	-367.12419	-367.115638	-367.114694	-367.157789	33.173	
C	 0.0560627681	 1.5101663699	 0.0553109951	-0.382541
C	-0.0074668448	-0.0168289768	-0.021704508	-0.16142
C	 0.6643047144	-0.5792976097	-1.2824272082	-0.338047
C	 0.6485570461	-2.0814677547	-1.3375854978	 0.39866
C	-0.549507712	-3.0447698848	-1.2816220526	-0.303581
C	 0.6962544028	-3.9272768923	-1.2458076515	-0.00202
C	 1.5012248043	-3.0405956909	-2.238201439	-0.116494
C	 2.6354161307	-2.9746286608	-1.2236237591	-0.193395
N	 1.4299542882	-2.9507870371	-0.2887391694	-0.188774
H	 1.0932103869	 1.8638759102	 0.0649320851	 0.113743
H	-0.4416203665	 1.9737955748	-0.8041668236	 0.111248
H	-0.4302856793	 1.8833452804	 0.9619333127	 0.112098
H	 0.4733082566	-0.4601550118	 0.8576159462	 0.120363
H	-1.0546670093	-0.3429377693	 0.0058375301	 0.097621
H	 0.1633654575	-0.1906508794	-2.1800568132	 0.0989
H	 1.7028844874	-0.2255066486	-1.3349290887	 0.099078
H	-1.1506121825	-3.0217969879	-0.3683831156	 0.106087
H	-1.1742003179	-3.1052953366	-2.1770976089	 0.094438
H	 0.7885741688	-5.0046371756	-1.0970684532	 0.079391
H	 1.5173994201	-3.0961294969	-3.3327511484	 0.05981
H	 3.2617598012	-3.8639891152	-1.0958738549	 0.097012
H	 3.2505102289	-2.0701834569	-1.178018207	 0.097824
74.0209	79.9184	132.1931	243.092	282.313	317.1312	344.4878	435.2274	470.8873	663.4251	709.9931	740.0212	768.5709	828.4643	852.2027	878.2735	887.7098	904.2166	923.9607	940.002	983.5884	1025.1832	1036.5272	1045.9073	1073.6778	1080.7389	1109.1657	1143.8368	1157.1471	1171.7495	1174.0358	1216.9892	1239.908	1259.1912	1271.2173	1284.0617	1308.8532	1331.364	1342.7025	1395.7605	1412.0327	1471.276	1492.5403	1494.7352	1499.3008	1510.0045	1521.3074	3007.8201	3026.9103	3029.3671	3030.4465	3040.3229	3043.4295	3052.3106	3069.1503	3092.6272	3096.4249	3100.1895	3101.4922	3116.1775
CCCC12CC3C1CN23	CCC[C@@]12C[C@H]3[C@@H]1CN23	
InChI=1S/C8H13N/c1-2-3-8-4-7-6(8)5-9(7)8/h6-7H,2-5H2,1H3	InChI=1S/C8H13N/c1-2-3-8-4-7-6(8)5-9(7)8/h6-7H,2-5H2,1H3/t6-,7-,8+/m0/s1
