13
gdb 133334	2.408	1.88034	1.05672	3.8728	69.24	-0.2031	-0.0497	0.1534	1011.1499	0.089853	-490.179842	-490.172254	-490.17131	-490.211768	28.829	
N	 0.0469544037	 1.4124976716	 0.1488458013	-0.600465
C	-0.0188101676	 0.0492298911	 0.0509848747	 0.096647
C	-1.1364035204	-0.7050614498	 0.026404523	 0.337769
F	-2.3764757749	-0.2199548937	 0.0389980246	-0.060296
N	-1.0526422534	-2.072270036	-0.0162166791	-0.303562
N	 0.1040241643	-2.7535879317	-0.0400791797	-0.050827
N	 1.1964745686	-2.1041297489	-0.0327657703	-0.284153
C	 1.242442421	-0.6934656426	 0.0008304871	 0.3631
N	 2.3413013598	-0.0315336137	-0.0176083877	-0.551928
H	 0.9675228024	 1.7656295344	-0.0818855628	 0.279756
H	-0.7392876495	 1.9507156145	-0.177634803	 0.258443
H	-1.8852344207	-2.6408515052	-0.025621905	 0.289676
H	 3.1307516168	-0.6763221898	-0.061827813	 0.225841
113.6325	190.0809	264.4694	293.4375	339.7372	403.6516	407.601	491.2589	526.8309	535.3874	565.4122	579.7207	618.081	703.0705	773.1608	866.2253	932.9343	986.8841	1062.1742	1118.0799	1259.2494	1299.5844	1322.2889	1370.1807	1477.6006	1546.7061	1607.7628	1674.6183	1753.7162	3486.5095	3542.8323	3644.9991	3683.0514
NC1=C(F)NN=NC1=N	Nc1c(F)[nH]nnc1[NH]	
InChI=1S/C3H4FN5/c4-2-1(5)3(6)8-9-7-2/h(H2,5,9)(H2,6,7,8)	InChI=1S/C3H9FN5/c4-2-1(5)3(6)8-9-7-2/h1-3,6-9H,5H2
