21
gdb 96067	2.60995	1.49264	1.15606	2.0352	77.87	-0.241	0.0778	0.3189	1138.5346	0.183416	-424.219228	-424.210558	-424.209614	-424.252071	34.091	
C	-0.0538694013	 1.5190302955	 0.0596333913	-0.474752
C	-0.0008503957	 0.0080460494	 0.0097978771	 0.319139
C	-0.8895785091	-0.8044635575	 0.9127689988	-0.339729
C	 0.6089514277	-0.7645779333	 1.1617987774	-0.090827
C	 1.4511981124	-2.012252783	 0.9140280222	 0.100771
O	 0.9699623391	-3.1376247062	 1.6410360869	-0.434854
C	 1.5985760057	-2.3046608397	-0.5891811595	-0.109621
O	 0.4388841119	-1.9773975144	-1.3388097235	-0.245927
C	 0.2366529419	-0.5771461685	-1.3739949255	-0.148131
H	 0.8830793195	 1.9632896189	-0.2966936533	 0.118096
H	-0.8656340407	 1.9079740051	-0.5669159659	 0.119036
H	-0.2244866844	 1.8748876455	 1.0802279029	 0.118631
H	-1.5302111591	-0.287033602	 1.6185843839	 0.109412
H	-1.3191165259	-1.7088042504	 0.491974927	 0.117929
H	 0.9107490814	-0.1819842179	 2.0270481574	 0.08626
H	 2.458168707	-1.8439363848	 1.3128978344	 0.084554
H	 0.0157340881	-3.1734072935	 1.5155899047	 0.281446
H	 2.4631471705	-1.7481918828	-0.989580809	 0.082067
H	 1.7766209343	-3.3739628206	-0.7280217853	 0.115223
H	-0.6324208636	-0.4055634364	-2.0189772869	 0.106617
H	 1.1075183504	-0.0834016336	-1.8416252351	 0.084661
93.4581	172.2037	217.4936	234.8784	278.4154	298.5911	356.3179	363.6794	427.5883	466.4648	468.3936	560.1643	713.0173	751.5813	776.7984	865.0638	901.1624	928.1674	949.176	957.6688	985.5011	1041.4296	1056.5417	1076.3047	1082.1551	1110.8036	1138.7354	1150.0292	1163.2903	1242.5868	1262.1093	1289.3428	1321.5341	1333.1553	1348.7425	1374.466	1404.9602	1418.8068	1425.1645	1435.1821	1477.1333	1488.8974	1491.2282	1496.7674	1506.2262	2945.1096	2960.721	3021.2773	3044.1201	3060.3326	3079.6538	3101.1689	3101.5604	3124.7952	3146.9444	3211.2786	3811.7665
CC12CC1C(O)COC2	C[C@]12C[C@H]1[C@@H](O)COC2	
InChI=1S/C7H12O2/c1-7-2-5(7)6(8)3-9-4-7/h5-6,8H,2-4H2,1H3	InChI=1S/C7H12O2/c1-7-2-5(7)6(8)3-9-4-7/h5-6,8H,2-4H2,1H3/t5-,6-,7+/m0/s1
