25
gdb 112909	1.81504	1.4757	0.93172	1.4699	89.17	-0.2372	0.0826	0.3199	1406.0828	0.228507	-389.518887	-389.508586	-389.507641	-389.554287	38.849	
C	 0.4448263629	 1.4450910986	 0.2880432938	-0.382742
C	 0.4358522292	-0.0845940941	 0.2211577739	-0.175607
C	 0.5951568402	-0.6051104986	-1.2112143472	 0.134878
O	 1.8062906802	-0.0790561203	-1.7730902536	-0.292688
C	 2.7117759288	-1.127818189	-2.1341206813	 0.158325
C	 4.1334912546	-0.6806085641	-1.8319944978	-0.398591
C	 2.2206914384	-2.3590828429	-1.3703928384	-0.23871
C	 0.6996330438	-2.1459067646	-1.3667959331	-0.005043
C	-0.0785400857	-2.9925825421	-0.3607778463	-0.418281
H	 1.3721089732	 1.8393681802	-0.1345008072	 0.133796
H	-0.3893152329	 1.8686372303	-0.283137339	 0.108992
H	 0.355399884	 1.7971008047	 1.3202920502	 0.10415
H	 1.2439670685	-0.486373982	 0.8454565954	 0.089855
H	-0.5050716729	-0.4682291875	 0.634236265	 0.090723
H	-0.245418784	-0.2220382646	-1.8091806941	 0.064585
H	 2.6191685992	-1.3168172041	-3.2174250708	 0.061786
H	 4.258772132	-0.4998089618	-0.7597103461	 0.115429
H	 4.8525497676	-1.4446464883	-2.1455212138	 0.109793
H	 4.3649883091	 0.2462477875	-2.3645627717	 0.123575
H	 2.5219765693	-3.2985147184	-1.8419970717	 0.096388
H	 2.6147369806	-2.3542460512	-0.34602521	 0.095922
H	 0.3309802284	-2.3900372033	-2.371896668	 0.075425
H	 0.2801151195	-2.8412402381	 0.6619277201	 0.119516
H	-1.1480339341	-2.7568220269	-0.3798311082	 0.115866
H	 0.0269693801	-4.0571081791	-0.5941129799	 0.112659
41.7884	113.6589	127.0036	189.149	218.8924	231.2723	248.9492	275.6928	313.6797	370.015	440.4348	455.1875	497.5275	554.5037	660.7943	760.7797	835.5559	846.1077	888.7687	918.9653	928.463	967.7374	989.6387	998.7598	1050.7423	1064.1263	1087.5138	1107.738	1142.3728	1155.0067	1179.8685	1187.374	1213.1787	1280.55	1292.1056	1312.4153	1344.9306	1351.9687	1370.6672	1387.94	1392.4395	1403.3015	1407.8443	1412.8604	1417.2901	1475.3168	1483.3751	1489.9031	1496.2442	1497.66	1500.3091	1505.3644	1510.9425	2947.6704	2980.68	3013.4063	3022.0759	3029.5047	3033.9085	3034.6744	3036.7995	3062.5007	3093.9286	3096.1337	3098.4023	3107.9486	3109.0435	3114.8907	3126.7624
CCC1OC(C)CC1C	CC[C@H]1O[C@@H](C)C[C@H]1C	
InChI=1S/C8H16O/c1-4-8-6(2)5-7(3)9-8/h6-8H,4-5H2,1-3H3	InChI=1S/C8H16O/c1-4-8-6(2)5-7(3)9-8/h6-8H,4-5H2,1-3H3/t6-,7+,8-/m1/s1
