12
gdb 21371	5.58004	2.23738	1.59703	5.0688	60.61	-0.218	0.0107	0.2287	715.3793	0.088518	-373.720124	-373.71446	-373.713515	-373.749627	21.779	
N	-0.049707848	 1.3551362627	 0.0104583459	-0.413457
C	 1.2843812479	 1.7733856521	-0.0005563093	-0.006735
N	 2.1475848222	 0.7934718844	-0.0145017666	-0.337424
C	 1.3643125847	-0.3490893036	-0.0129648747	 0.211162
C	 0.0202879804	-0.0106905594	 0.0021878279	 0.456612
N	-0.7090460269	-1.1452004109	 0.0038166415	-0.361146
N	 0.1232666143	-2.2392312576	-0.0106192368	-0.224864
C	 1.3655454767	-1.7665454371	-0.0203993745	-0.119953
H	-0.8604156745	 1.9486592521	 0.0217370133	 0.270717
H	 1.5241470491	 2.8269150725	 0.002735388	 0.1334
H	-1.7015573297	-1.2934150608	 0.0115615904	 0.272708
H	 2.1926347438	-2.4599932444	-0.0322846849	 0.11898
217.5183	283.404	331.493	399.4938	479.7314	640.0259	658.6201	706.2579	761.8339	764.995	808.7011	881.7991	943.0045	978.4467	1048.9388	1057.0395	1171.7173	1235.7796	1293.0297	1335.0941	1372.5397	1421.0146	1470.4321	1520.871	1548.4824	1642.452	3247.05	3254.7802	3682.0905	3698.3274
N1C=NC2=C1NN=C2	[nH]1cnc2c1[nH]nc2	
InChI=1S/C4H4N4/c1-3-4(8-7-1)6-2-5-3/h1-2H,(H2,5,6,7,8)	InChI=1S/C4H4N4/c1-3-4(8-7-1)6-2-5-3/h1-2H,(H2,5,6,7,8)
