20
gdb 86567	2.94478	1.16735	0.90654	4.6579	77.39	-0.233	0.0309	0.2639	1313.5684	0.168654	-440.305421	-440.295145	-440.2942	-440.341471	36.133	
C	-0.3527362682	 1.3964424132	 0.105348107	-0.394501
C	 0.0168468942	-0.0727030066	-0.0305080403	 0.036119
C	 0.8284889665	-0.5096135341	-1.2918841297	 0.080517
O	 1.13449344	 0.5743769053	-2.1318286138	-0.419335
C	 1.9673590398	-0.9823685448	-0.3333640567	-0.213168
N	 1.1511001935	-0.5227522508	 0.790212116	-0.072183
C	 1.1658081176	-0.7780181611	 2.1262627388	 0.363879
C	 2.4296690022	-1.4487343359	 2.6426621898	-0.487355
O	 0.2246306999	-0.4796725744	 2.8436939711	-0.373769
H	 0.5083883837	 2.0392033186	-0.088596301	 0.12464
H	-1.1416807394	 1.6554578958	-0.6071399456	 0.117905
H	-0.7172870512	 1.5788128718	 1.1186976454	 0.145913
H	-0.8695341671	-0.6957953722	 0.1392659924	 0.090165
H	 0.3611514827	-1.3294065527	-1.8494966351	 0.078935
H	 1.6160694935	 0.2431152203	-2.8958726205	 0.290198
H	 2.1732531738	-2.0597890186	-0.3377655593	 0.106703
H	 2.9064233182	-0.4322149158	-0.4681660295	 0.111705
H	 3.3297528716	-0.9240226608	 2.307255769	 0.132671
H	 2.3955301611	-1.46069365	 3.7317018504	 0.146724
H	 2.4953404375	-2.4802164173	 2.2783456618	 0.134237
48.3807	77.2279	97.5893	122.7304	156.8439	219.8048	242.5548	251.4704	322.0421	399.462	439.7185	523.4612	573.0286	599.8469	657.7859	787.6517	811.4331	894.1573	938.4234	1000.5614	1023.53	1045.6414	1052.41	1116.6013	1134.6481	1152.2081	1186.3557	1192.6266	1233.8415	1281.9927	1302.5454	1324.2763	1376.7474	1377.8245	1398.1584	1423.857	1449.7726	1472.1283	1482.9987	1486.9274	1498.4488	1505.5082	1759.8335	3012.1061	3024.7244	3039.3844	3040.0445	3052.0527	3062.1066	3101.6574	3125.9769	3142.719	3160.2357	3826.354
CC1C(O)CN1C(C)=O	C[C@H]1[C@@H](O)CN1C(=O)C	
InChI=1S/C6H11NO2/c1-4-6(9)3-7(4)5(2)8/h4,6,9H,3H2,1-2H3	InChI=1S/C6H11NO2/c1-4-6(9)3-7(4)5(2)8/h4,6,9H,3H2,1-2H3/t4-,6-/m0/s1
