15
gdb 13446	3.41736	1.78659	1.50366	2.9624	58.36	-0.2368	-0.0016	0.2352	861.7983	0.118404	-436.898992	-436.891432	-436.890488	-436.931202	27.958	
O	-0.8755134823	 1.4614806056	 0.1587877155	-0.430262
C	-0.3595124826	 0.1948735144	-0.0694794498	 0.002143
C	-0.3102455477	-0.6825324515	 1.1614988823	 0.068848
O	-0.8429347111	-0.133454441	 2.3164752191	-0.424082
C	-1.2568481683	-1.0281917631	 0.0250635131	 0.027503
O	-2.6443073338	-0.9836636419	 0.3165112412	-0.193885
C	-3.488766233	-0.2092146016	-0.3628151318	 0.154216
N	-3.1625969908	 0.7496360644	-1.1284825199	-0.486945
H	-1.6644851575	 1.5284589773	-0.4220951625	 0.310205
H	 0.4425227846	 0.1375049621	-0.8049865956	 0.096057
H	 0.537678441	-1.3357270558	 1.344405638	 0.10269
H	-1.065643962	 0.7824232773	 2.0849412544	 0.29448
H	-1.020543003	-1.8718001774	-0.617640197	 0.109523
H	-4.5119066691	-0.521360369	-0.1363871439	 0.12756
H	-3.9863135044	 1.1956190401	-1.5224755431	 0.24195
52.6143	168.7465	235.9013	252.1329	286.0547	303.8871	476.6941	527.7952	629.4068	655.2156	732.6323	754.2502	780.5188	819.9757	832.5148	916.3428	1036.5908	1043.8594	1074.6499	1086.4948	1112.0202	1144.7754	1184.2432	1247.8225	1325.3409	1343.6916	1362.7408	1391.26	1410.1069	1450.7141	1464.0275	1705.921	3100.9998	3103.018	3141.188	3155.7817	3439.1386	3535.218	3689.1225
OC1C(O)C1OC=N	O[C@H]1[C@@H](O)[C@H]1O[CH][NH]	
InChI=1S/C4H7NO3/c5-1-8-4-2(6)3(4)7/h1-7H	InChI=1S/C4H7NO3/c5-1-8-4-2(6)3(4)7/h1-7H/t2-,3+,4-
