17
gdb 120366	3.10287	1.25222	0.93575	3.2721	70.11	-0.2482	-0.0237	0.2245	1216.4289	0.136372	-455.174659	-455.165986	-455.165042	-455.208921	30.858	
C	 1.2202240857	 0.8070514065	-0.1846260326	-0.252502
O	-0.026460255	 0.1702261835	 0.044869909	-0.23153
C	-0.5301338014	-0.5813575739	-1.0261565987	-0.082317
C	-0.0239692092	-2.0484179069	-1.0644852784	-0.123944
N	-1.0243336802	-2.9199817179	-1.7000935517	-0.2402
C	-0.4136700703	-3.5514253299	-2.6250001419	 0.063913
N	 0.9399213926	-3.2674205437	-2.758064144	-0.330642
C	 1.2905942505	-2.2933807821	-1.8277969837	 0.407631
O	 2.3849689905	-1.7982188156	-1.7022554925	-0.356717
H	 2.0322178691	 0.0873276709	-0.3320091012	 0.148034
H	 1.1716773386	 1.4644167661	-1.0665024456	 0.100632
H	 1.4225564192	 1.4189707976	 0.6978472606	 0.121079
H	-1.6130951016	-0.6446307646	-0.8874270478	 0.129089
H	-0.3378070179	-0.087742292	-1.9911715581	 0.093971
H	 0.1119832702	-2.356128979	-0.0201053242	 0.139118
H	-0.8804753884	-4.2743174512	-3.2863559721	 0.143937
H	 1.5698659677	-3.6307693777	-3.4551659071	 0.270449
48.0612	90.5806	132.894	198.2339	205.8997	266.9778	346.9994	446.2878	479.964	498.672	582.1742	681.4516	710.1671	815.0985	885.3364	937.5523	946.0873	1010.3314	1027.1799	1070.0255	1081.5962	1153.4992	1186.4607	1191.0522	1217.3548	1237.0939	1270.7513	1336.7478	1351.4904	1393.1249	1402.4149	1476.0289	1489.7953	1498.5633	1519.7118	1679.1653	1838.9185	2984.8799	2991.1842	3045.5294	3076.223	3091.117	3122.7826	3193.971	3651.1493
COCC1N=CNC1=O	COC[C@H]1N=CNC1=O	
InChI=1S/C5H8N2O2/c1-9-2-4-5(8)7-3-6-4/h3-4H,2H2,1H3,(H,6,7,8)	InChI=1S/C5H8N2O2/c1-9-2-4-5(8)7-3-6-4/h3-4H,2H2,1H3,(H,6,7,8)/t4-/m1/s1
