19
gdb 90626	3.32277	1.17465	1.08822	2.1366	82.76	-0.2376	0.0493	0.2869	1185.6087	0.157413	-385.822817	-385.813776	-385.812832	-385.855935	35.144	
C	-0.0255494132	 1.5600825705	-0.0672950579	-0.471459
C	 0.0677213514	 0.0411877787	 0.0280055046	 0.137045
C	-1.1077652743	-0.630204505	-0.4790646357	 0.254837
C	-2.0977589567	-1.1613720021	-0.9093777689	-0.435832
C	 1.3409622967	-0.7536591902	-0.2072107234	-0.080774
C	 2.5732548176	 0.0031181264	 0.2953827572	-0.315044
C	 1.9560494006	-0.0432652445	 1.7403584601	 0.095697
O	 1.7362104553	 1.1519567738	 2.4579337697	-0.425857
C	 0.7061227028	-0.7160818893	 1.1883357306	-0.095253
H	 0.8177105453	 2.0519278908	 0.4144625704	 0.136985
H	-0.0786206564	 1.8705936929	-1.1159342436	 0.116242
H	-0.9354598045	 1.9055571523	 0.4319431757	 0.127749
H	-2.9713801666	-1.6311785273	-1.2875738247	 0.187275
H	 1.3528241464	-1.5762681095	-0.9102418815	 0.099254
H	 3.4982833186	-0.5724763689	 0.2160685259	 0.103579
H	 2.7386918848	 0.9974490273	-0.1275741239	 0.104899
H	 2.5140481411	-0.7634885684	 2.3536829068	 0.079422
H	 2.5779912577	 1.4438583132	 2.8223640924	 0.284836
H	 0.1408480234	-1.482032411	 1.7042680963	 0.096402
126.9328	137.0747	156.6354	203.319	257.5504	289.8658	311.7772	392.1113	426.9148	524.5722	525.6899	561.635	583.9418	646.1222	648.5791	694.7406	812.8172	845.7589	884.4644	942.3351	986.9301	1004.1845	1012.1395	1024.7273	1062.7094	1095.7297	1111.1609	1153.9723	1189.1918	1224.0817	1247.8432	1264.7666	1281.3175	1322.9702	1384.2032	1416.8886	1427.073	1479.9977	1489.2174	1506.1156	2232.3129	3006.0183	3045.3063	3060.9386	3106.4773	3112.5318	3165.1618	3188.5838	3201.3422	3504.4134	3815.3782
CC1(C#C)C2CC(O)C12	C[C@@]1(C#C)[C@H]2C[C@@H](O)[C@@H]12	
InChI=1S/C8H10O/c1-3-8(2)5-4-6(9)7(5)8/h1,5-7,9H,4H2,2H3	InChI=1S/C8H10O/c1-3-8(2)5-4-6(9)7(5)8/h1,5-7,9H,4H2,2H3/t5-,6+,7-,8+/m0/s1
