18
gdb 73381	2.82359	1.70985	1.39036	4.3565	75.07	-0.2356	0.0008	0.2365	985.2407	0.1488	-401.952192	-401.944733	-401.943789	-401.983795	29.628	
C	-0.019928618	 1.4714640941	 0.0498184711	-0.476555
C	-0.0440494988	-0.0338583156	 0.0699249729	 0.337864
C	-1.3026962762	-0.7725824495	-0.3977243426	-0.292502
C	-1.2399315629	-2.1484746695	 0.311051462	-0.21866
C	 0.2434842802	-2.274002634	 0.7088164482	-0.198885
C	 0.6867666507	-0.834479654	 1.0561138668	-0.090598
N	 1.2938299627	-0.6418993246	-0.3475042333	-0.235725
C	 1.0938019044	-2.0630248174	-0.5491999289	 0.42162
O	 1.5641707295	-2.7634866892	-1.3918912714	-0.317559
H	 0.9431244871	 1.8488760179	 0.4002196569	 0.137047
H	-0.1807069471	 1.8454878896	-0.9662784168	 0.134163
H	-0.8123686812	 1.8738192848	 0.6901477904	 0.120937
H	-2.1951984714	-0.2062269549	-0.1163112082	 0.10966
H	-1.3114593561	-0.8667542858	-1.488797284	 0.125804
H	-1.8659886683	-2.1545932232	 1.2090829295	 0.110362
H	-1.5604251319	-2.9741700738	-0.3293715682	 0.122478
H	 0.4992820886	-3.1090486633	 1.3591420545	 0.098647
H	 1.2242783487	-0.4906335615	 1.9299486911	 0.111903
132.2854	204.1441	209.9139	241.648	310.8828	408.7757	493.0384	523.2221	580.2656	622.8617	717.2826	768.9297	825.9976	845.5333	864.1215	881.558	908.0436	945.8823	981.6619	1015.1116	1023.0322	1037.3762	1056.8348	1115.4079	1156.3305	1188.6705	1221.9145	1230.12	1258.3249	1270.3728	1312.6338	1345.6892	1406.0277	1421.8999	1483.8633	1488.0483	1495.0405	1503.1103	1905.5917	3038.1441	3049.0826	3053.93	3089.4424	3103.1566	3109.1265	3130.3717	3134.4442	3206.5584
CC12CCC3C1N2C3=O	C[C@]12CC[C@@H]3[C@H]1N2C3=O	
InChI=1S/C7H9NO/c1-7-3-2-4-5(7)8(7)6(4)9/h4-5H,2-3H2,1H3	InChI=1S/C7H9NO/c1-7-3-2-4-5(7)8(7)6(4)9/h4-5H,2-3H2,1H3/t4-,5-,7+,8?/m1/s1
