18
gdb 24083	6.50731	0.70619	0.66757	2.6411	85.24	-0.2054	0.0441	0.2495	1645.4202	0.148069	-364.817645	-364.808825	-364.807881	-364.85214	32.856	
C	 0.0025472538	-1.2518104394	 0.0268047894	-0.449893
C	-0.0220209327	-0.0505447452	 0.0741702923	 0.298597
C	-0.0100766389	 1.4060777952	 0.1225743451	-0.337112
C	 1.4015837951	 2.0086603342	-0.1049449385	-0.318777
C	 1.4066159484	 3.5073337183	-0.0402657031	 0.286303
C	 1.5044019525	 4.3726340791	-1.1084619568	-0.187708
N	 1.4428159413	 5.6566829727	-0.6283677958	-0.230406
C	 1.3075254895	 5.6340747197	 0.7358551799	-0.073254
C	 1.2805484241	 4.3177709817	 1.1298790135	-0.242953
H	 0.009147648	-2.3126223887	-0.0113017443	 0.190253
H	-0.6951178752	 1.8097545013	-0.6330330666	 0.129367
H	-0.3949819051	 1.7473870668	 1.0913396735	 0.131518
H	 2.0796627975	 1.5882065048	 0.6463161952	 0.113532
H	 1.7711524683	 1.6718787019	-1.0789208566	 0.108028
H	 1.6177490615	 4.175970494	-2.163032967	 0.114643
H	 1.5040673689	 6.4870384518	-1.1901736558	 0.261063
H	 1.2484373525	 6.5482041829	 1.3044075084	 0.117179
H	 1.1888806705	 3.965294529	 2.1466486972	 0.089621
50.8287	61.4595	95.7326	184.9881	305.3651	357.0079	365.8251	467.2471	476.5896	613.1511	634.3161	640.2377	657.914	687.1729	725.7999	763.0298	775.4018	830.4163	905.3971	963.237	971.7725	1013.3002	1015.4699	1084.6663	1094.4104	1160.6054	1171.7022	1272.8148	1279.9473	1304.1741	1315.0601	1368.7446	1415.972	1465.6058	1470.8694	1490.9029	1523.2749	1609.802	2235.7453	3026.1584	3040.2464	3055.6992	3086.2543	3238.1825	3256.305	3268.8084	3508.2583	3688.9675
C#CCCC1=CNC=C1	C#CCCc1c[nH]cc1	
InChI=1S/C8H9N/c1-2-3-4-8-5-6-9-7-8/h1,5-7,9H,3-4H2	InChI=1S/C8H9N/c1-2-3-4-8-5-6-9-7-8/h1,5-7,9H,3-4H2
