19
gdb 61610	3.25523	0.87463	0.7809	5.8104	77.05	-0.2235	0.0324	0.2559	1484.2649	0.157931	-419.182899	-419.173118	-419.172174	-419.21819	35.764	
C	 0.6301198307	 1.4740110407	-0.3620448803	-0.394367
C	 0.0914056796	 0.0584612945	-0.0558002206	-0.091501
N	 0.3375205001	-0.9702205633	-1.0583288258	-0.296574
C	-0.4451425598	-0.9193771712	-2.2530673586	 0.027693
C	-0.1674068954	 0.0266974093	-3.4275124058	-0.34676
C	 0.1679086407	-1.4443231843	-3.5147562729	 0.075052
O	 1.5079939239	-1.8346180232	-3.4059870353	-0.420236
C	 0.6354648836	-0.4055951288	 1.2352572903	 0.276079
N	 1.0814903328	-0.7401549695	 2.2470574894	-0.321632
H	 1.7147220241	 1.4478967684	-0.5031756741	 0.129505
H	 0.1636606226	 1.8601057016	-1.2701393059	 0.134166
H	 0.4089877517	 2.158459343	 0.4620425751	 0.135775
H	-0.9972349826	 0.125408769	 0.0708853708	 0.129624
H	 1.3214972334	-1.0904983389	-1.2680331327	 0.240599
H	-1.4903682256	-1.1720430342	-2.0887853363	 0.103903
H	-1.0019199307	 0.4120868414	-4.0042845649	 0.114228
H	 0.6789133392	 0.6982935776	-3.3330865841	 0.113472
H	-0.441228667	-2.0819036624	-4.1536532956	 0.096632
H	 1.9699264285	-1.5510943299	-4.2014776927	 0.294343
39.6498	93.9958	112.3625	199.031	234.5199	249.2034	287.2467	297.7306	345.3627	401.6287	489.9763	525.6811	562.9052	623.687	683.0124	742.7976	825.5983	843.8162	904.8395	937.8861	988.495	1010.3351	1045.0958	1074.603	1088.0963	1131.4844	1170.1824	1175.412	1203.4733	1255.1459	1296.0775	1326.8315	1331.2446	1383.0362	1396.7426	1418.3151	1470.8776	1488.7169	1493.7246	1515.968	2361.4057	3029.227	3046.9159	3109.4736	3119.6347	3127.0131	3130.8549	3140.527	3222.2442	3557.7535	3814.0722
CC(NC1CC1O)C#N	C[C@@H](N[C@H]1C[C@H]1O)C#N	
InChI=1S/C6H10N2O/c1-4(3-7)8-5-2-6(5)9/h4-6,8-9H,2H2,1H3	InChI=1S/C6H10N2O/c1-4(3-7)8-5-2-6(5)9/h4-6,8-9H,2H2,1H3/t4-,5+,6-/m1/s1
