20
gdb 93024	2.2311	1.92246	1.25565	2.3219	79.13	-0.2291	0.0205	0.2496	1061.9734	0.171541	-403.159027	-403.150575	-403.14963	-403.191674	32.972	
C	 0.1055777471	 1.5403376708	-0.1073995626	-0.399665
C	 0.0049341177	 0.0302013208	 0.0606194568	 0.070055
O	 0.4457335921	-0.538338349	-1.195476884	-0.248109
C	 0.8556126708	-1.8299425775	-1.2046278491	 0.108195
N	 1.2801637193	-2.5274400765	-0.2385821484	-0.258576
C	 1.3810823674	-1.8858419921	 1.0357613314	-0.031309
C	 2.2616151934	-0.6538291989	 1.1700668035	-0.338207
C	 0.7620607128	-0.5240790572	 1.2596462245	 0.296994
C	 0.1350024311	-0.2210582215	 2.6050306622	-0.475577
H	 1.1515051168	 1.8460095754	-0.2015641719	 0.127566
H	-0.4318053539	 1.8557477475	-1.0055127568	 0.127766
H	-0.3310164632	 2.0528168116	 0.7540043801	 0.121949
H	-1.0511894486	-0.255288822	 0.1778464129	 0.084793
H	 0.8079684243	-2.2374717981	-2.2124281632	 0.121474
H	 1.3834025647	-2.5847831841	 1.8663849356	 0.090828
H	 2.8398235356	-0.5328218197	 2.0799974844	 0.112388
H	 2.763311673	-0.3175220234	 0.2687843511	 0.125624
H	 0.1645552377	 0.8487548448	 2.8403609412	 0.121407
H	-0.9122057471	-0.5439345657	 2.6376339446	 0.120611
H	 0.6691740989	-0.7457147451	 3.4029497077	 0.121793
86.9774	183.8641	226.033	230.4474	261.9433	284.0788	363.9583	387.4547	451.7907	512.2831	569.9746	590.5758	689.7506	811.7213	839.7581	873.1786	881.7386	911.0803	941.9102	969.8638	1021.785	1036.7148	1059.4343	1089.2392	1100.1426	1132.3167	1132.9378	1157.7912	1174.823	1257.9461	1337.3218	1363.7653	1372.6782	1402.2886	1408.8091	1415.8331	1418.9643	1481.5693	1486.5833	1491.9188	1495.4812	1505.5428	1721.7397	2989.5435	3025.0211	3048.4003	3085.2669	3102.299	3125.2704	3126.9603	3129.2906	3152.1	3161.9698	3217.7822
CC1OC=NC2CC12C	C[C@H]1OC=N[C@H]2C[C@@]12C	
InChI=1S/C7H11NO/c1-5-7(2)3-6(7)8-4-9-5/h4-6H,3H2,1-2H3	InChI=1S/C7H11NO/c1-5-7(2)3-6(7)8-4-9-5/h4-6H,3H2,1-2H3/t5-,6+,7+/m1/s1
