16
gdb 20537	4.50947	1.38882	1.38278	4.1087	66.85	-0.2678	-0.0334	0.2344	968.7739	0.129818	-379.91328	-379.905475	-379.904531	-379.94583	28.148	
C	-0.0336336792	 1.5551339205	 0.0224122987	-0.388044
C	-0.0023443975	 0.0149769417	 0.039080467	-0.095167
C	 0.7448621099	-0.5207877987	 1.2751669329	-0.38803
C	-1.3861048546	-0.5491744125	-0.0359671102	 0.440947
C	-2.0273748203	-1.3372782364	-0.9435955297	-0.229491
N	-3.3053107778	-1.5358032836	-0.4795622576	-0.107847
N	-3.4821593983	-0.9440950195	 0.6118436501	-0.013221
O	-2.2449221476	-0.2783524297	 0.9474552335	-0.22864
H	 0.9859804041	 1.9509981115	 0.0376680563	 0.120835
H	-0.5352780594	 1.9333231649	-0.872818687	 0.126552
H	-0.5644879724	 1.9403703568	 0.8976729699	 0.139442
H	 0.5191986194	-0.3322556882	-0.8603808782	 0.09853
H	 0.2426614271	-0.2092760921	 2.1955142745	 0.139431
H	 0.793850987	-1.6133392134	 1.2679644025	 0.126551
H	 1.7669609443	-0.1315055295	 1.2932386122	 0.120832
H	-1.6799758947	-1.7648874219	-1.8682254949	 0.137319
52.5508	141.653	190.2801	226.9296	263.885	316.4183	394.1801	465.1602	601.1676	671.5556	698.4916	750.6318	822.016	881.4268	935.2347	968.5969	988.0118	1033.587	1084.0376	1119.7761	1123.0763	1183.6448	1252.9085	1319.412	1333.2849	1392.916	1397.9767	1421.9779	1462.7513	1487.5557	1490.683	1501.0731	1511.7123	1602.597	3041.3147	3042.351	3044.4552	3115.5177	3118.3066	3119.5269	3124.5556	3290.4065
CC(C)C1=CN=NO1	CC(C)c1cnno1	
InChI=1S/C5H8N2O/c1-4(2)5-3-6-7-8-5/h3-4H,1-2H3	InChI=1S/C5H8N2O/c1-4(2)5-3-6-7-8-5/h3-4H,1-2H3
