22
gdb 94833	3.56317	1.15024	1.00538	2.6109	82.76	-0.2339	0.0736	0.3075	1275.3196	0.195783	-404.338989	-404.330443	-404.329499	-404.371795	33.912	
C	 0.0483082283	 1.5296487362	 0.0743710745	-0.40276
C	 0.0158568254	 0.0109109828	-0.0120599508	 0.155761
C	 0.6716970148	-0.535460966	-1.2880120884	-0.200138
C	 0.6889724206	-2.0725842858	-1.2660959957	-0.304974
C	 1.2817143165	-2.5677531721	 0.0405322588	 0.342128
C	 1.8171218969	-3.9442708463	 0.1445359839	-0.301
N	 2.7359106289	-2.7874609274	 0.149417509	-0.344128
C	 0.6523395076	-1.8967882173	 1.2459030233	-0.123635
O	 0.6862353264	-0.4839592552	 1.1417278953	-0.258197
H	 1.0821807953	 1.8882751173	 0.0589649771	 0.124857
H	-0.488609735	 1.9766775258	-0.7677473705	 0.110554
H	-0.4161547232	 1.8674634789	 1.004506753	 0.122948
H	-1.0357190583	-0.3332224666	 0.0127906537	 0.056017
H	 0.1340969697	-0.1687016243	-2.1696403247	 0.092405
H	 1.6969367968	-0.1488907819	-1.3426120178	 0.104229
H	-0.3405941166	-2.4460405438	-1.3577763979	 0.101627
H	 1.2473860097	-2.4771320981	-2.118933556	 0.087678
H	 1.7637632184	-4.4876302987	 1.0848489167	 0.114908
H	 1.7704140086	-4.5746032452	-0.7407010634	 0.106421
H	 3.1718001826	-2.6941948946	-0.7657572766	 0.224411
H	-0.390938368	-2.2441764705	 1.354890837	 0.078331
H	 1.2043836046	-2.1554320273	 2.1525160194	 0.112556
88.1896	186.7977	211.7198	231.3377	261.9915	317.8255	357.5425	405.9712	437.6265	486.8339	493.7854	603.4233	726.3765	800.6006	840.5538	871.8095	910.2275	921.9494	937.436	960.6573	981.303	1018.0194	1031.1134	1056.313	1094.2698	1116.9804	1130.1992	1149.6126	1167.8998	1218.2325	1229.7957	1265.7264	1283.8213	1326.1979	1338.3377	1359.3699	1375.2135	1388.0391	1398.5729	1410.6988	1433.8636	1472.7936	1478.1865	1483.9657	1486.976	1501.1772	1513.8702	2920.2554	2946.2624	3008.0996	3027.3793	3042.2687	3053.0609	3076.2643	3098.121	3102.3847	3115.6886	3121.7255	3180.3945	3483.4834
CC1CCC2(CN2)CO1	C[C@H]1CC[C@]2(CN2)CO1	
InChI=1S/C7H13NO/c1-6-2-3-7(4-8-7)5-9-6/h6,8H,2-5H2,1H3	InChI=1S/C7H13NO/c1-6-2-3-7(4-8-7)5-9-6/h6,8H,2-5H2,1H3/t6-,7-/m0/s1
