22
gdb 120818	3.90488	0.6236	0.57325	3.1482	84.52	-0.2378	-0.0217	0.216	1978.8887	0.191532	-404.327767	-404.317264	-404.31632	-404.364865	36.833	
C	 3.1248574024	 0.1548535702	-4.0812324163	-0.382603
C	 2.4084513362	-1.0654915484	-3.4977991476	-0.16665
C	 2.3059476692	-1.0253508852	-1.9664371851	-0.196438
C	 1.5636681642	-2.2273652143	-1.4177647956	 0.018239
C	 2.2870743685	-3.4630659678	-0.9986526648	-0.257457
N	 1.603968492	-2.6295043171	-0.0104789405	-0.108813
C	 2.4155964761	-1.8898499623	 0.9400219429	-0.230028
C	 2.4598952953	-2.6343165148	 2.2669511367	 0.157934
O	 3.3567472964	-2.5413596906	 3.0631165394	-0.240469
H	 2.6035009128	 1.0829137774	-3.8214996312	 0.116186
H	 4.1487211752	 0.2338576402	-3.69919342	 0.116096
H	 3.1806443753	 0.0989074847	-5.1726017436	 0.11519
H	 1.3997141535	-1.1385692891	-3.9246303098	 0.099934
H	 2.9319537896	-1.9820043749	-3.7975804506	 0.102394
H	 3.312987594	-0.9673876146	-1.5382595534	 0.09847
H	 1.785576001	-0.1056952687	-1.6640236797	 0.100464
H	 0.5713177693	-2.3564470397	-1.8509457899	 0.091663
H	 1.8645433027	-4.4502253508	-1.1655961209	 0.118235
H	 3.3762840094	-3.425442626	-1.0234446875	 0.111082
H	 3.4494452488	-1.6792504426	 0.6294824909	 0.115087
H	 1.9313088697	-0.9221657543	 1.1394137451	 0.132234
H	 1.5668781085	-3.2725614711	 2.4482496116	 0.089248
50.8377	67.7727	82.0753	91.5592	104.0903	203.7714	247.8557	278.252	301.0861	381.799	455.8971	503.8489	550.2646	721.3622	748.9234	792.2883	861.3638	885.6538	902.7491	939.0934	995.2121	1034.9549	1050.7286	1058.1882	1101.071	1113.7151	1122.4805	1156.4842	1173.5354	1191.9915	1249.1936	1266.0391	1303.5727	1323.1926	1329.6932	1345.3054	1385.4582	1402.1793	1415.0296	1428.9905	1455.1405	1482.7385	1493.4233	1500.7558	1509.236	1512.8885	1838.7448	2895.8154	2988.3614	3010.3869	3021.8453	3030.9248	3032.6533	3047.3031	3068.0958	3087.7858	3096.7654	3100.8921	3104.728	3176.9532
CCCC1CN1CC=O	CCC[C@H]1CN1CC=O	
InChI=1S/C7H13NO/c1-2-3-7-6-8(7)4-5-9/h5,7H,2-4,6H2,1H3	InChI=1S/C7H13NO/c1-2-3-7-6-8(7)4-5-9/h5,7H,2-4,6H2,1H3/t7-,8?/m0/s1
