19
gdb 80559	2.83074	1.33366	1.20466	2.7181	76.33	-0.2321	0.0036	0.2357	1107.1418	0.160301	-423.012312	-423.004123	-423.003178	-423.044883	32.467	
O	-0.1365560171	 1.467813119	 0.0825691364	-0.417034
C	-0.0516526701	 0.0788202406	 0.0407839176	 0.116057
C	-1.3000062622	-0.7799623229	 0.0134829105	-0.114315
C	-2.6553615957	-0.0827842439	-0.0396860827	-0.239561
C	-3.256252306	-0.0110635847	-1.4488952638	 0.08637
O	-4.3207302838	 0.9348599957	-1.3872474584	-0.433327
C	-2.2199800081	 0.3759878516	-2.4832611557	-0.097358
C	-0.931839398	 0.0373382144	-2.3852741548	-0.099779
C	-0.4015699971	-0.7003014052	-1.2132785793	-0.13599
H	-0.5598946162	 1.7679171862	-0.7319184524	 0.285748
H	 0.7909021862	-0.2666551578	 0.6314020501	 0.102352
H	-1.2605962297	-1.7050926698	 0.5791963815	 0.084924
H	-3.3644586475	-0.5783139159	 0.628295994	 0.105091
H	-2.5539148914	 0.9488686967	 0.3160460092	 0.124327
H	-3.657474931	-1.0032832979	-1.7204176708	 0.076914
H	-4.7999376474	 0.903921174	-2.2213183328	 0.280642
H	-2.5839894346	 0.9212577623	-3.3519167722	 0.086708
H	-0.2300176565	 0.3120849714	-3.1698889785	 0.096305
H	 0.2304344563	-1.554542134	-1.440254578	 0.091927
76.465	162.2581	237.5619	263.2005	325.4314	349.1165	372.5602	435.9391	489.741	516.4996	584.3172	648.9176	734.8334	740.1502	777.3902	815.141	886.4274	923.4808	976.5771	994.3508	1008.0769	1036.6773	1067.7497	1082.8086	1100.802	1118.029	1123.8029	1189.0112	1205.215	1223.1431	1276.6013	1319.5309	1332.2477	1337.0815	1371.0225	1375.7523	1406.1818	1424.8596	1448.8707	1498.1533	1697.7599	2938.9233	3046.477	3095.7764	3133.9755	3139.455	3152.1651	3159.7108	3165.8463	3760.6649	3817.3198
OC1C2CC(O)C=CC12	O[C@H]1[C@H]2C[C@@H](O)C=C[C@@H]12	
InChI=1S/C7H10O2/c8-4-1-2-5-6(3-4)7(5)9/h1-2,4-9H,3H2	InChI=1S/C7H10O2/c8-4-1-2-5-6(3-4)7(5)9/h1-2,4-9H,3H2/t4-,5+,6-,7+/m0/s1
