15
gdb 125641	3.53273	1.59316	1.10553	1.4118	72.71	-0.2126	0.0133	0.2259	1034.4648	0.115114	-416.831141	-416.823943	-416.822998	-416.862685	27.54	
C	-0.0173821584	 1.510458187	-0.1043056167	-0.498077
C	-0.0068495717	 0.0233919982	 0.0426525147	 0.193652
N	-0.0343365796	-0.7556462566	-1.038868942	-0.286492
N	-0.0162799073	-2.0545234032	-0.5919318334	-0.365909
C	 0.0226815735	-2.0620134658	 0.7515014982	 0.467459
C	 0.0306711366	-0.7697443597	 1.2256016701	 0.158771
C	 0.0720382316	-0.9262824782	 2.6603016143	-0.371735
C	 0.084154189	-2.2643291578	 2.8896235866	-0.012522
O	 0.0535946812	-3.0051952747	 1.7036129361	-0.221839
H	 0.8778169318	 1.9610293369	 0.3388662996	 0.128609
H	-0.053006033	 1.7779571134	-1.162254806	 0.142572
H	-0.8850151469	 1.9542075068	 0.3967186343	 0.128513
H	-0.0307576279	-2.8094607388	-1.2534407679	 0.27886
H	 0.0905798522	-0.1656424978	 3.425073893	 0.118584
H	 0.1121711488	-2.8629269296	 3.7842223591	 0.139553
125.3241	185.4504	240.744	255.7467	310.5917	421.6607	517.6314	588.0191	611.7545	655.5906	692.769	706.9368	764.6462	819.9163	824.5581	911.8927	993.0071	1007.6555	1064.1837	1092.7481	1105.0078	1169.6276	1206.1197	1329.2369	1345.845	1412.5014	1440.0988	1482.061	1495.0822	1514.6653	1536.1253	1588.5851	1615.2412	3033.0564	3083.3242	3134.2611	3255.7624	3292.4974	3699.0739
CC1=NNC2=C1C=CO2	Cc1n[nH]c2c1cco2	
InChI=1S/C6H6N2O/c1-4-5-2-3-9-6(5)8-7-4/h2-3H,1H3,(H,7,8)	InChI=1S/C6H6N2O/c1-4-5-2-3-9-6(5)8-7-4/h2-3H,1H3,(H,7,8)
