21
gdb 119063	2.76421	0.981	0.82469	1.9405	74.88	-0.2276	0.0727	0.3003	1445.2387	0.179678	-461.320205	-461.30969	-461.308746	-461.35588	38.177	
C	 0.5960040143	 0.2871031404	 1.0373805594	-0.266455
O	-0.0243797573	-0.1055873433	-0.1833235871	-0.302098
C	-1.2507537373	-0.7844177099	-0.0138546526	 0.380733
C	-2.3697596749	-0.00801215	 0.6434802447	-0.270288
C	-2.7647579465	 1.2396852069	-0.1417248682	-0.068213
O	-3.8231355079	 1.8717156845	 0.5631535357	-0.422857
C	-1.5524109497	-1.7193621214	-1.1662240628	-0.391037
C	-1.0943899855	-2.2779224085	 0.1635766703	 0.077193
O	 0.1849265765	-2.8181829385	 0.2976101429	-0.435582
H	 1.5928110696	 0.6504670478	 0.7758978556	 0.127644
H	 0.0482439645	 1.0991029783	 1.5319980189	 0.120079
H	 0.6870972425	-0.5572124352	 1.7315485114	 0.129694
H	-3.2457318712	-0.6593115461	 0.7360370205	 0.110439
H	-2.1002832672	 0.2875390038	 1.6641591216	 0.108587
H	-1.8936258519	 1.9040112021	-0.2432826991	 0.096732
H	-3.0732919919	 0.9514944609	-1.1589153922	 0.090361
H	-4.0683873877	 2.6686815478	 0.0844559031	 0.285613
H	-2.5855349588	-1.8471117111	-1.4718455519	 0.114329
H	-0.8293757669	-1.7362038561	-1.9751835233	 0.11994
H	-1.8063856684	-2.8169008929	 0.7800275748	 0.106258
H	 0.7900191658	-2.1808904596	-0.102901682	 0.288929
69.9952	89.6909	120.5309	133.9877	183.6185	241.2332	267.7511	280.0533	306.0605	324.8375	383.8546	421.5434	459.1829	491.68	677.6524	729.4506	796.9884	838.5363	895.4544	914.8461	975.6045	1023.4462	1039.5764	1059.8871	1085.783	1087.5722	1094.0958	1157.4537	1181.7827	1201.0401	1212.7793	1246.0403	1262.9084	1285.6673	1321.8944	1336.5699	1363.4136	1432.7312	1458.86	1474.3796	1482.0711	1485.6679	1502.1955	1511.6127	1529.501	2975.9538	3006.6432	3009.9341	3041.843	3072.1702	3082.4108	3119.139	3128.0478	3166.7254	3220.1369	3775.873	3831.0727
COC1(CCO)CC1O	CO[C@@]1(CCO)C[C@H]1O	
InChI=1S/C6H12O3/c1-9-6(2-3-7)4-5(6)8/h5,7-8H,2-4H2,1H3	InChI=1S/C6H12O3/c1-9-6(2-3-7)4-5(6)8/h5,7-8H,2-4H2,1H3/t5-,6+/m1/s1
