17
gdb 127306	3.03578	1.43348	0.98559	5.2637	81.61	-0.2198	-0.031	0.1888	1175.8314	0.136278	-418.046688	-418.038026	-418.037081	-418.081036	31.217	
C	 0.0142659198	 1.4761513238	 0.0570155694	-0.316043
N	-0.0317307082	 0.0223347326	-0.0008156491	 0.001786
C	-1.1881356031	-0.6757353783	-0.1226603217	 0.047425
C	-1.1993610866	-2.0337121996	-0.1734496591	-0.267282
C	 0.0448663479	-2.7640589039	-0.0966854674	 0.310876
O	 0.1628377292	-3.9862215634	-0.1317327616	-0.389475
C	 1.2283239996	-1.8765537489	 0.0343897292	 0.221428
C	 2.5734587853	-2.5266698291	 0.1224498922	-0.454282
N	 1.1760653528	-0.5759702269	 0.0777954692	-0.273403
H	 0.6144665918	 1.8653252584	-0.7695398449	 0.154098
H	-0.9998426776	 1.8707547918	-0.0150953992	 0.139948
H	 0.4632536783	 1.8000160202	 0.9996085609	 0.154014
H	-2.0895191187	-0.0755237396	-0.175648326	 0.134375
H	-2.1310996908	-2.5761709939	-0.2709611998	 0.117901
H	 2.7480528051	-3.1466152922	-0.7630628859	 0.146648
H	 3.3604522011	-1.7772741711	 0.2154775956	 0.125336
H	 2.6032312941	-3.2105484999	 0.9770668181	 0.146649
26.8505	108.2629	140.954	187.7981	277.5973	306.4569	345.565	455.6415	470.4327	510.0688	521.3629	597.302	697.8506	760.0995	793.0857	854.3164	950.9211	959.7587	1000.6914	1050.8772	1084.9343	1140.9026	1152.9336	1172.534	1288.3744	1330.8521	1368.7825	1408.2193	1456.7647	1464.6402	1465.547	1472.5426	1482.2033	1521.8125	1597.4351	1645.804	1726.5197	3044.438	3051.1953	3098.0008	3118.312	3149.135	3151.2571	3190.9563	3219.3246
CN1C=CC(=O)C(C)=N1	Cn1ccc(=O)c(C)n1	
InChI=1S/C6H8N2O/c1-5-6(9)3-4-8(2)7-5/h3-4H,1-2H3	InChI=1S/C6H8N2O/c1-5-6(9)3-4-8(2)7-5/h3-4H,1-2H3
