19
gdb 71007	2.95948	1.59646	1.44172	2.5438	75.54	-0.2453	0.0571	0.3024	981.7909	0.159941	-422.91891	-422.911409	-422.910464	-422.950434	30.732	
O	-0.0420746276	 1.4331311919	-0.0586154242	-0.479085
C	 0.0196686794	 0.0507305575	-0.0255483719	 0.345486
C	 0.266331073	-0.7713400919	 1.3837210942	-0.389894
C	-0.4469512233	-1.8818605421	 0.5591523042	 0.232419
C	-1.7228252686	-2.7314446889	 0.2961953832	-0.204596
O	-2.1034591306	-1.7627615648	-0.756617804	-0.327041
C	-1.3002046207	-0.7865082289	 0.0106225247	 0.108723
C	 0.6023709317	-2.1350731189	-0.5662418107	-0.229082
C	 0.9510638249	-0.6822822372	-0.9863561542	-0.279291
H	 0.7951728802	 1.7777750835	-0.3849834373	 0.286692
H	 1.3088555815	-0.9237133748	 1.67829377	 0.096519
H	-0.3141783314	-0.3443502403	 2.2011903457	 0.116858
H	-1.5916795019	-3.7367246586	-0.113433562	 0.111813
H	-2.4630295238	-2.7321670359	 1.104349714	 0.108685
H	-1.9723088438	-0.3293501172	 0.7473045693	 0.08628
H	 1.4646628725	-2.6803572052	-0.1709638198	 0.095173
H	 0.1811538947	-2.705494823	-1.3943131263	 0.115958
H	 0.7046880281	-0.4666206964	-2.0300105393	 0.113284
H	 2.0009255256	-0.4173358388	-0.8187385157	 0.091098
120.1134	218.791	256.5935	298.1016	327.9312	386.9787	461.963	491.6022	585.6423	592.2037	659.2115	763.9122	789.1158	836.4637	850.9279	854.6549	915.6293	931.6832	973.3224	978.7318	993.8805	1006.8729	1044.6866	1087.2621	1129.8334	1142.1736	1153.4804	1193.0213	1216.694	1225.3701	1238.2794	1265.4837	1291.8776	1306.4437	1334.3096	1380.8693	1415.9032	1478.9711	1485.6017	1507.1927	1512.2809	3025.4974	3034.3702	3038.6127	3057.1691	3060.6274	3087.8849	3102.5533	3129.2566	3147.3164	3818.6661
OC12CC3(COC13)CC2	O[C@@]12C[C@]3(CO[C@H]13)CC2	
InChI=1S/C7H10O2/c8-7-2-1-6(3-7)4-9-5(6)7/h5,8H,1-4H2	InChI=1S/C7H10O2/c8-7-2-1-6(3-7)4-9-5(6)7/h5,8H,1-4H2/t5-,6-,7-/m0/s1
