23
gdb 59646	3.50865	0.95846	0.91334	1.9409	81.81	-0.2484	0.08	0.3284	1432.9313	0.205534	-425.444954	-425.435096	-425.434152	-425.479799	37.071	
C	 0.0248766541	 1.5595599575	-0.1759994729	-0.40497
C	 0.026062135	 0.060368768	 0.1302609522	 0.122827
O	 0.6014565024	-0.2094758884	 1.4006083477	-0.439258
C	-1.3850570348	-0.544114958	 0.0658427182	 0.125693
C	-1.4434580797	-2.0680670202	 0.193427949	-0.254919
C	-2.7948120379	-2.3001073699	 0.8869180672	 0.013884
C	-2.9486631038	-3.6461390311	 1.5906868033	-0.412361
C	-2.8510032773	-1.0877712733	 1.8284056588	-0.07417
O	-2.1247361536	-0.0338148227	 1.1923594228	-0.297439
H	 1.0325975556	 1.9664551724	-0.0595945808	 0.119337
H	-0.3138098553	 1.7531968324	-1.1997179992	 0.107327
H	-0.6469182501	 2.0866079616	 0.509083861	 0.126894
H	 0.6566518361	-0.4615515273	-0.6004239546	 0.082059
H	-0.0584267461	 0.0928100775	 2.0388341755	 0.282311
H	-1.8812139138	-0.2131961808	-0.8595545685	 0.064256
H	-1.3620744505	-2.571676804	-0.7734148909	 0.098607
H	-0.6221197522	-2.4086649918	 0.8340277884	 0.115846
H	-3.5925112102	-2.1929504881	 0.1400653556	 0.077503
H	-2.1559496971	-3.7919719165	 2.3331843771	 0.11985
H	-3.911275509	-3.7196344806	 2.1082831316	 0.11618
H	-2.8941848787	-4.4735743123	 0.876319084	 0.118944
H	-3.8724749969	-0.7432280163	 2.0252614136	 0.103099
H	-2.3819639265	-1.3281167081	 2.7950948409	 0.088501
65.3191	81.1188	127.6202	201.5034	230.7788	250.182	273.2028	285.9212	353.049	426.9352	453.798	497.3187	552.7868	644.555	653.3959	822.7325	866.704	892.8978	909.8496	950.6149	952.459	965.1669	1017.5889	1052.0503	1068.7519	1079.9633	1107.7479	1142.655	1167.6051	1173.8173	1200.776	1263.3072	1272.3375	1289.8174	1335.3858	1337.3462	1357.195	1361.932	1396.3491	1398.9362	1407.6362	1414.7042	1432.0017	1490.1347	1491.9027	1497.5809	1498.6457	1499.9356	1528.5404	2979.618	2983.1287	3015.922	3029.213	3034.6784	3036.4944	3048.1736	3057.1748	3095.1956	3101.4344	3104.7791	3106.2226	3122.7855	3761.7086
CC(O)C1CC(C)CO1	C[C@@H](O)[C@H]1C[C@@H](C)CO1	
InChI=1S/C7H14O2/c1-5-3-7(6(2)8)9-4-5/h5-8H,3-4H2,1-2H3	InChI=1S/C7H14O2/c1-5-3-7(6(2)8)9-4-5/h5-8H,3-4H2,1-2H3/t5-,6-,7-/m1/s1
