12
gdb 24957	5.37721	1.37138	1.09271	3.7903	61.32	-0.2018	0.0135	0.2153	982.169	0.080425	-468.857352	-468.850659	-468.849715	-468.888852	24.908	
O	 0.0244235825	 0.000425379	 0.0024926592	-0.370314
C	-0.0437611307	 1.1929431927	 0.0101143926	 0.457726
N	-1.1462328883	 2.0269556123	 0.0298208346	-0.497268
C	-0.7104180328	 3.3567925158	 0.0314653325	 0.321866
C	 0.6364981322	 3.2909419045	 0.0126267068	 0.388861
N	 1.0953648406	 4.5756377825	 0.0133258454	-0.396555
C	-0.0537681575	 5.3525833187	 0.0331786923	-0.012628
N	-1.16881266	 4.6351769663	 0.0447548675	-0.343616
O	 1.1202971845	 2.0245909335	-0.0012095481	-0.260998
H	-2.0814843625	 1.6601498057	 0.0409404047	 0.285384
H	 2.0460085734	 4.9034355475	 0.0021768738	 0.285085
H	-0.0010906015	 6.4289876614	 0.0383250687	 0.142457
67.3176	165.9399	343.712	361.0584	385.266	459.3528	590.1152	593.6075	643.3903	706.9439	743.5565	749.1296	775.4715	825.8897	860.2033	974.3947	1068.4304	1082.726	1223.4913	1281.5739	1289.98	1372.0523	1451.0399	1490.6793	1565.2618	1663.7437	1916.1039	3277.3097	3678.6755	3696.0894
O=C1NC2=C(NC=N2)O1	O=c1[nH]c2c([nH]cn2)o1	
InChI=1S/C4H3N3O2/c8-4-7-2-3(9-4)6-1-5-2/h1H,(H,5,6)(H,7,8)	InChI=1S/C4H3N3O2/c8-4-7-2-3(9-4)6-1-5-2/h1H,(H,5,6)(H,7,8)
