16
gdb 34921	2.9252	1.6996	1.35602	5.3354	71.5	-0.2467	0.0263	0.273	949.303	0.126951	-396.883755	-396.876853	-396.875909	-396.9151	27.297	
N	-0.0640726736	-1.1763948493	 0.0086624313	-0.331475
C	-0.0283483041	-0.0217610336	 0.0170168856	 0.310778
C	-0.0047051118	 1.4428850727	 0.019350662	-0.142351
C	-0.7474307867	 2.0638008048	 1.2115539613	-0.048933
N	-0.182957065	 1.6969439384	 2.5142777019	-0.324092
C	 0.208035976	 2.9767670637	 1.8908585319	-0.047926
C	 1.5166460403	 2.9232711717	 1.1367640753	-0.02527
C	 2.2569350335	 1.6363863916	 1.1222398744	-0.247294
N	 1.3803542455	 1.9891797027	-0.0090561546	-0.113872
H	-0.4926530708	 1.7838315526	-0.9017647412	 0.134908
H	-1.8084024974	 2.2709665988	 1.1152242016	 0.108016
H	-0.869182371	 1.851168368	 3.2483418384	 0.243833
H	-0.1093604788	 3.9116787867	 2.3383907979	 0.101347
H	 2.0122657007	 3.8674330891	 0.9324410527	 0.099592
H	 3.3111997742	 1.6192591052	 0.8625495382	 0.121263
H	 1.9286956091	 0.8743950568	 1.8202477033	 0.161477
114.737	141.5191	298.9839	316.6925	406.9394	513.3151	529.2329	562.0766	696.9867	713.53	759.5673	810.3363	857.4211	860.1389	880.2457	891.5224	969.2519	1019.7503	1027.4853	1043.5503	1068.9872	1099.1569	1122.0562	1141.8275	1163.7517	1168.7604	1233.3094	1260.9538	1297.4271	1337.3735	1355.4919	1382.1035	1421.926	1495.9066	2363.1122	3039.6358	3124.0055	3155.6509	3162.9324	3183.9329	3222.914	3510.5057
N#CC1C2NC2C2CN12	N#C[C@H]1[C@H]2N[C@H]2[C@H]2CN12	
InChI=1S/C6H7N3/c7-1-3-5-6(8-5)4-2-9(3)4/h3-6,8H,2H2	InChI=1S/C6H7N3/c7-1-3-5-6(8-5)4-2-9(3)4/h3-6,8H,2H2/t3-,4+,5+,6-,9?/m0/s1
