18
gdb 108919	3.33301	1.21421	1.00253	2.9633	72.72	-0.2498	0.014	0.2638	1213.4885	0.146965	-439.086669	-439.078064	-439.077119	-439.119962	32.202	
C	-0.0505830786	 1.5062846798	-0.0398823507	-0.469886
C	 0.0743385825	 0.0071219746	-0.0312104664	 0.326998
C	-0.7970468801	-0.8806856448	 0.8400152651	-0.352548
C	 0.6895600267	-0.85737301	 1.0591479229	 0.01715
O	 1.4433680725	-1.8563942916	 0.3808236874	-0.242179
C	 1.2257803007	-1.623930654	-0.9386101956	 0.365534
C	 1.8507729188	-2.5657525523	-1.9208880005	-0.132286
O	 1.6074972049	-2.1599904401	-3.2418781648	-0.421145
N	 0.5082604538	-0.6225606272	-1.265728072	-0.376532
H	 0.8839144371	 1.9741549636	-0.3645616173	 0.128475
H	-0.8429492341	 1.8195505754	-0.7271421974	 0.134481
H	-0.2973531178	 1.8826530768	 0.9570925468	 0.116485
H	-1.3912013267	-0.3854856418	 1.6008413906	 0.122309
H	-1.2508955039	-1.7612407429	 0.39765205	 0.126066
H	 1.1530889095	-0.5342996947	 1.9822249674	 0.116316
H	 2.9318664911	-2.6140508922	-1.7203432061	 0.122782
H	 1.4552630158	-3.5774623086	-1.7368046132	 0.119956
H	 1.0307835778	-1.3846092101	-3.1839371864	 0.298023
76.93	149.6046	175.2443	194.1855	238.1286	288.1827	335.2094	418.4058	427.1109	483.7126	603.151	642.7379	710.3645	771.2788	816.7875	872.0242	950.1147	963.5861	980.0162	1014.67	1039.3247	1043.3243	1101.0857	1105.9626	1119.2083	1127.3706	1227.6198	1241.0838	1266.4928	1300.99	1352.537	1384.5301	1422.0494	1467.9256	1480.1346	1480.8869	1499.3809	1506.6642	1705.459	2983.9427	3006.5701	3038.1479	3106.5579	3114.4461	3129.1299	3198.7969	3222.6883	3726.5195
CC12CC1OC(CO)=N2	C[C@]12C[C@H]1OC(=N2)CO	
InChI=1S/C6H9NO2/c1-6-2-4(6)9-5(3-8)7-6/h4,8H,2-3H2,1H3	InChI=1S/C6H9NO2/c1-6-2-4(6)9-5(3-8)7-6/h4,8H,2-3H2,1H3/t4-,6+/m1/s1
