21
gdb 89115	5.52948	0.52672	0.51103	3.2582	81.35	-0.2492	-0.0207	0.2286	2140.0152	0.179479	-424.222393	-424.211964	-424.21102	-424.259708	36.086	
C	 0.2829609556	 1.4388173074	-0.3809001407	-0.419916
C	-0.0595869769	 0.0512100602	 0.0971318502	 0.077613
O	 1.0193036315	-0.8742257911	 0.2793189693	-0.265398
C	 0.252573707	-0.4932240219	 1.4300990047	 0.062533
C	 0.9814858089	 0.2421288239	 2.5289460785	-0.227704
C	 1.9277518702	-0.6892827975	 3.3006503096	-0.183659
C	 2.6810741909	 0.0309616943	 4.4313683625	-0.276742
C	 3.6793264343	-0.8781576127	 5.1107154599	 0.159051
O	 3.7093749597	-1.1153653158	 6.2905391309	-0.237035
H	 1.1486566586	 1.8510805191	 0.1407090622	 0.127663
H	 0.5135519822	 1.4192167777	-1.4511790936	 0.132098
H	-0.5684157012	 2.1127066585	-0.2355168809	 0.123429
H	-0.9217497682	-0.3900078737	-0.4088680622	 0.087698
H	-0.4007044661	-1.2914203743	 1.7937235489	 0.086665
H	 1.5547637278	 1.0763936322	 2.1129681695	 0.103754
H	 0.2415114382	 0.6724639281	 3.2169471831	 0.10458
H	 1.356518501	-1.5266084417	 3.721271372	 0.111336
H	 2.6441863327	-1.1252753963	 2.5939752862	 0.123684
H	 3.2426246224	 0.8763914768	 4.0063249433	 0.118285
H	 1.9966174502	 0.4258387027	 5.1882799285	 0.120141
H	 4.4181074311	-1.3429984759	 4.4150599482	 0.071925
39.3487	51.8688	93.0884	98.1801	121.4438	172.5351	233.5802	263.7787	343.5064	395.8824	470.1108	521.374	541.1924	737.644	766.9801	813.5085	827.1713	903.6449	934.5537	985.1602	1003.5753	1045.6419	1048.6663	1075.0798	1119.1343	1139.2649	1173.9198	1176.9604	1204.2203	1250.6371	1288.7585	1305.5121	1330.0508	1333.3592	1383.9025	1404.767	1421.6135	1431.4248	1463.722	1469.1121	1473.5707	1492.2345	1501.6599	1514.093	1836.7783	2850.8777	3006.7791	3022.5416	3029.8925	3040.078	3060.6645	3064.1728	3080.2482	3089.2524	3098.3046	3100.1545	3136.9582
CC1OC1CCCC=O	C[C@H]1O[C@H]1CCCC=O	
InChI=1S/C7H12O2/c1-6-7(9-6)4-2-3-5-8/h5-7H,2-4H2,1H3	InChI=1S/C7H12O2/c1-6-7(9-6)4-2-3-5-8/h5-7H,2-4H2,1H3/t6-,7+/m1/s1
