16
gdb 64705	4.78654	0.81839	0.79832	1.5533	71.34	-0.2573	-0.0312	0.226	1404.2405	0.12181	-437.892088	-437.882934	-437.88199	-437.926607	32.708	
O	-0.0914001277	 1.5020568733	-0.1755646167	-0.460608
C	 0.0125475332	 0.1129075528	-0.0998956663	 0.399191
C	 1.1340888679	-0.4662326507	-0.9601482827	-0.386306
C	 2.4331577725	 0.0484982836	-0.5236672323	 0.248667
N	 3.4299969693	 0.4940765167	-0.1453104921	-0.299
C	-0.3869193899	-0.5658291739	 1.1677730117	-0.348631
C	-1.3017326082	-0.6362576394	-0.062908479	-0.172295
C	-2.5855312424	 0.1154192467	-0.0369624763	 0.1718
O	-3.596588027	-0.2816828692	-0.5599663315	-0.264171
H	 0.6578725448	 1.8874585386	 0.2958166251	 0.303992
H	 1.1415769727	-1.5592943364	-0.907186002	 0.157113
H	 0.9744330981	-0.1828373316	-2.0060938739	 0.170389
H	 0.1087412405	-1.47964203	 1.4747858148	 0.136905
H	-0.7176072482	 0.0752037146	 1.9781517109	 0.138047
H	-1.3569217263	-1.5787346041	-0.5971814351	 0.113389
H	-2.5507019793	 1.077440719	 0.5143131853	 0.091518
54.7798	88.4061	113.0826	182.3284	239.0641	324.1282	347.8556	375.8363	393.7694	412.9263	450.9503	490.8638	611.9951	752.919	851.0236	885.5735	891.5034	947.4786	965.4708	1011.827	1037.9577	1060.0341	1078.2651	1172.456	1195.2473	1221.251	1302.2455	1317.8363	1336.2393	1399.8203	1437.7631	1453.8466	1482.1281	1818.8574	2360.8791	2924.7346	3053.8466	3100.7203	3136.9014	3176.478	3229.9283	3779.3065
OC1(CC#N)CC1C=O	O[C@@]1(CC#N)C[C@H]1C=O	
InChI=1S/C6H7NO2/c7-2-1-6(9)3-5(6)4-8/h4-5,9H,1,3H2	InChI=1S/C6H7NO2/c7-2-1-6(9)3-5(6)4-8/h4-5,9H,1,3H2/t5-,6-/m0/s1
