17
gdb 112382	2.62596	1.3262	1.0374	1.8747	69.35	-0.2393	-0.0468	0.1925	1170.5619	0.133557	-458.995908	-458.986972	-458.986028	-459.030712	31.84	
C	 0.2433811252	 1.2716011634	-0.1859509638	-0.246435
O	 0.0211329754	-0.111905273	 0.0403552824	-0.255349
C	 0.5131855581	-0.5831417853	 1.2888803889	 0.012126
C	 0.0031221424	-2.0077787368	 1.4657399399	-0.350369
C	 1.002747814	-2.8973241993	 0.7133595613	 0.402533
O	 0.7968631639	-4.0221692747	 0.3459634473	-0.299373
C	 2.3082412785	-2.1176895954	 0.5269851096	-0.431819
C	 2.0454020872	-0.7429896782	 1.1321792055	 0.386813
O	 2.8631792054	 0.0973887231	 1.4033104424	-0.310239
H	 1.3103608072	 1.5257454195	-0.1877879899	 0.135281
H	-0.1852793598	 1.4993818164	-1.1640562894	 0.134636
H	-0.2580515417	 1.8808641777	 0.5798516421	 0.115087
H	 0.2575593917	 0.1062191442	 2.1032165892	 0.087203
H	 0.030213897	-2.2971536831	 2.5240952761	 0.139563
H	-1.0154338112	-2.1478502509	 1.099263489	 0.146982
H	 3.15624056	-2.6186437747	 1.0028394996	 0.16136
H	 2.5470081968	-2.033603263	-0.5392058903	 0.172
41.2929	64.6748	117.99	166.402	242.6963	286.1739	391.0435	392.1499	438.9702	503.9563	546.4978	588.6927	685.3364	753.4422	803.1768	816.1447	899.0784	980.2211	1016.1292	1111.7241	1118.9493	1134.9895	1165.3889	1187.4901	1197.3561	1225.7361	1236.9835	1273.1775	1304.7488	1359.4946	1396.8913	1432.0504	1477.8455	1487.1091	1512.2991	1834.5075	1870.49	2998.5524	3031.59	3047.4379	3060.2045	3064.0576	3106.6711	3126.2307	3128.5785
COC1CC(=O)CC1=O	CO[C@H]1CC(=O)CC1=O	
InChI=1S/C6H8O3/c1-9-6-3-4(7)2-5(6)8/h6H,2-3H2,1H3	InChI=1S/C6H8O3/c1-9-6-3-4(7)2-5(6)8/h6H,2-3H2,1H3/t6-/m0/s1
