13
gdb 133229	3.12459	1.48281	1.01202	6.6661	65.34	-0.2531	-0.057	0.1961	1072.049	0.089454	-494.050784	-494.043267	-494.042323	-494.083356	26.871	
C	 0.0624050535	 1.4435540421	 0.0426752769	-0.319181
N	 0.0055516004	-0.01133619	 0.0035364624	-0.009263
C	-1.126469316	-0.7171528805	-0.2157955804	 0.127619
N	-1.2179535383	-2.0074457306	-0.2576997034	-0.337734
C	-0.0595272694	-2.756972805	-0.0619417905	 0.293986
O	-0.012824987	-3.9654359535	-0.0764144049	-0.336096
C	 1.1501647597	-1.9210471649	 0.1732122101	 0.231399
F	 2.2842534897	-2.5544684487	 0.3659461499	-0.025456
N	 1.1933921013	-0.640407006	 0.2062564573	-0.249503
H	 0.7409570477	 1.8103427154	-0.7312023918	 0.163277
H	-0.9382540755	 1.8404271787	-0.1315066597	 0.151434
H	 0.4224382733	 1.7758438635	 1.0193279113	 0.163255
H	-2.0172898994	-0.1094911203	-0.3653037172	 0.146264
77.0693	118.4091	185.88	306.8513	340.4839	352.3704	446.0948	484.0351	552.7154	564.0441	628.5312	686.6982	814.1231	845.4904	970.1752	1022.7792	1053.323	1146.4043	1154.7742	1280.4048	1353.1286	1398.5732	1453.0093	1471.1105	1471.4622	1520.0651	1619.7765	1657.8164	1797.0323	3056.6469	3128.5002	3148.153	3159.6336
CN1C=NC(=O)C(F)=N1	Cn1cnc(=O)c(F)n1	
InChI=1S/C4H4FN3O/c1-8-2-6-4(9)3(5)7-8/h2H,1H3	InChI=1S/C4H4FN3O/c1-8-2-6-4(9)3(5)7-8/h2H,1H3
