21
gdb 80405	2.95677	1.43404	1.27482	0.8601	78.01	-0.2403	0.0829	0.3232	1112.4436	0.180431	-424.222252	-424.212978	-424.212033	-424.255944	35.397	
C	 0.0119339447	 1.6467893361	 0.0788441221	-0.415418
C	 0.0500160618	 0.1385688616	 0.0803644259	-0.065686
C	 1.3079949179	-0.664604702	-0.1987080536	 0.02524
O	 2.5355992003	 0.0129398873	-0.0826398456	-0.291324
C	 2.8853370921	-0.012180322	 1.3093361856	 0.445201
C	 3.6677251246	-1.2860579318	 1.6359148268	-0.408524
C	 3.6472002632	 1.2545273722	 1.6529378496	-0.430293
O	 1.629624996	-0.0084026837	 2.005085121	-0.291329
C	 0.711333049	-0.6783925523	 1.1762043079	 0.025297
H	 0.9326367234	 2.0672224089	 0.4834857345	 0.14029
H	-0.1159308217	 2.0297276696	-0.9388810036	 0.117896
H	-0.822469659	 2.0135130058	 0.6855162948	 0.117881
H	-0.8455315117	-0.3402725183	-0.313034413	 0.08578
H	 1.3103444073	-1.5073037995	-0.8823704841	 0.096886
H	 4.6040282987	-1.3115848007	 1.0718881421	 0.122086
H	 3.8953001368	-1.3282658681	 2.7044944405	 0.122093
H	 3.0790290284	-2.1684383631	 1.3713361501	 0.120083
H	 3.0514871956	 2.134237028	 1.4033354417	 0.132674
H	 3.8767853246	 1.2740381103	 2.7211994598	 0.127143
H	 4.5841879058	 1.2906716858	 1.0916890299	 0.127137
H	 0.2195448322	-1.5325705542	 1.6301682474	 0.096887
84.3287	120.3965	150.7	181.9097	233.2811	249.0493	318.7743	342.5016	377.6965	494.2788	508.588	589.2108	673.8067	746.0179	764.9924	780.4295	802.9522	865.6605	902.977	920.5937	969.8845	1000.2469	1008.7658	1027.2992	1072.4131	1096.7459	1113.9682	1137.2486	1148.8531	1177.6402	1212.6699	1221.5708	1286.7109	1329.7798	1352.6927	1396.796	1413.6631	1415.6753	1424.034	1472.9504	1476.2452	1488.9404	1492.8443	1498.2094	1498.9174	3042.1955	3046.1131	3058.8089	3097.2682	3119.5865	3123.8175	3124.873	3135.4429	3143.7968	3151.03	3151.7029	3162.2962
CC1C2OC(C)(C)OC12	C[C@H]1[C@H]2OC(C)(C)O[C@@H]12	
InChI=1S/C7H12O2/c1-4-5-6(4)9-7(2,3)8-5/h4-6H,1-3H3	InChI=1S/C7H12O2/c1-4-5-6(4)9-7(2,3)8-5/h4-6H,1-3H3/t4-,5+,6-
