14
gdb 127628	3.59407	1.67839	1.15248	4.8677	69.86	-0.2457	-0.0213	0.2245	979.4295	0.103888	-429.023614	-429.016443	-429.015499	-429.056134	26.022	
C	 0.0359480442	 1.4445899227	-0.0407203695	-0.347117
N	 0.0212934377	 0.0020765131	 0.0349652199	-0.118531
N	-0.0329336256	-0.7558074623	-1.1186478416	-0.254021
C	-0.0371773145	-2.0296085764	-0.756231449	-0.103366
C	 0.0143744478	-2.1363587532	 0.6590052078	 0.210206
C	 0.0493014439	-0.8208387023	 1.1012106257	 0.508205
N	 0.0986400422	-0.8969158468	 2.4459286448	-0.374893
N	 0.0935872118	-2.2391504645	 2.8141311103	-0.112546
N	 0.0435722087	-2.9650804394	 1.7483442652	-0.280159
H	 0.9475181366	 1.8543383879	 0.4073775854	 0.141004
H	 0.0070567969	 1.7094055034	-1.0971051657	 0.173816
H	-0.8365763315	 1.8761244228	 0.4615406095	 0.141135
H	-0.0760890146	-2.7983417692	-1.5123479956	 0.134624
H	 0.1348503363	-0.195441126	 3.1648724827	 0.281642
35.3307	145.8855	253.479	266.3508	336.029	401.7099	532.826	622.7307	630.0418	683.8618	707.3886	774.773	855.8535	873.6083	907.356	980.0175	1021.8436	1143.35	1153.1483	1230.8801	1249.3406	1276.9194	1331.6515	1397.1063	1434.4171	1444.8576	1486.3714	1499.9834	1501.9616	1521.5267	1665.6191	3032.3941	3089.6956	3165.1935	3260.9034	3687.2356
CN1N=CC2=C1NN=N2	Cn1ncc2c1[nH]nn2	
InChI=1S/C4H5N5/c1-9-4-3(2-5-9)6-8-7-4/h2H,1H3,(H,6,7,8)	InChI=1S/C4H5N5/c1-9-4-3(2-5-9)6-8-7-4/h2H,1H3,(H,6,7,8)
