15
gdb 64627	2.96849	1.44222	1.35062	2.9372	71.63	-0.2539	-0.0199	0.234	993.5162	0.110568	-420.557991	-420.549972	-420.549028	-420.590295	30.804	
O	-0.0711718252	 1.4476963143	-0.0022421198	-0.449196
C	 0.0124103025	 0.0266887808	 0.0148401415	 0.181008
C	 0.6410632282	-0.5190619919	 1.3034674629	-0.140832
C	-0.1785898246	-1.3363438884	 1.9627405197	-0.081686
C	-1.4964513234	-1.425999144	 1.2584535914	-0.008205
O	-2.1713195817	-0.1456125249	 1.1998233438	-0.24639
C	-1.4118380023	-0.5645488607	 0.0755972431	 0.0103
C	 0.7260680653	-0.474367909	-1.1634855704	 0.287427
C	 1.3278114624	-0.8610855669	-2.130293981	-0.483179
H	 0.7846737149	 1.7873628666	-0.2851991871	 0.287449
H	 1.6307277943	-0.2039850141	 1.6126071047	 0.109628
H	 0.0327744257	-1.830022778	 2.9031768177	 0.113119
H	-2.1443916209	-2.2934322998	 1.3279460076	 0.104955
H	-1.955612719	-0.7242342576	-0.8500335514	 0.110285
H	 1.8556185337	-1.2086346065	-2.9842719727	 0.205315
113.5191	137.4586	192.9657	228.717	268.2268	404.1481	453.3455	487.494	505.4626	582.4112	639.3876	644.4643	669.845	747.0055	772.7548	829.1712	847.2566	874.9209	953.3539	981.2823	1033.1226	1041.7573	1100.3236	1104.1121	1114.5041	1153.7678	1252.4975	1288.5226	1345.9726	1378.7602	1418.7861	1667.227	2227.205	3164.7775	3177.5693	3196.9326	3221.6788	3498.0581	3814.7968
OC1(C=CC2OC12)C#C	O[C@]1(C=C[C@H]2O[C@@H]12)C#C	
InChI=1S/C7H6O2/c1-2-7(8)4-3-5-6(7)9-5/h1,3-6,8H	InChI=1S/C7H6O2/c1-2-7(8)4-3-5-6(7)9-5/h1,3-6,8H/t5-,6-,7+/m1/s1
