16
gdb 64841	3.40559	1.16302	1.15261	3.4148	74.83	-0.2493	-0.0607	0.1887	1124.222	0.122822	-437.917157	-437.908768	-437.907823	-437.950453	30.853	
C	 0.0437115855	 1.6641953288	-0.0894018838	-0.425776
C	 0.049868625	 0.1381207954	-0.07315487	 0.210576
O	 0.8364825738	-0.3798426945	-1.1514822262	-0.242569
C	 1.8015530518	-1.2354883807	-0.680550598	 0.369189
N	 2.5874140886	-1.8042316208	-1.4925888213	-0.52048
C	 1.6691852529	-1.2781485694	 0.7890032238	-0.188774
C	 0.6684006418	-0.4800476472	 1.1584194544	-0.11549
C	-1.3731909955	-0.4352318306	-0.2282053446	 0.127809
O	-2.3585320046	 0.0899601112	 0.2120437403	-0.238736
H	 1.0435885932	 2.0516466295	 0.1178910165	 0.130929
H	-0.2795554077	 2.0224777796	-1.069841843	 0.144408
H	-0.6576378845	 2.0334962401	 0.6619666755	 0.14511
H	 3.2390087995	-2.4033579467	-0.9895521022	 0.225385
H	 2.3193057029	-1.8658139862	 1.4222047589	 0.130422
H	 0.2995649837	-0.2781945291	 2.1551834656	 0.14056
H	-1.3924630564	-1.4040557895	-0.7715316758	 0.107439
76.1275	91.9597	194.619	210.2264	252.3902	311.805	344.6144	424.0853	487.3019	509.7076	691.8238	712.1885	722.4726	794.0069	838.5507	855.4052	899.3785	941.5773	967.5207	980.0133	998.4261	1052.6399	1083.9194	1176.8463	1181.6261	1203.9978	1319.2982	1362.0329	1385.0395	1403.1226	1480.6625	1491.1113	1649.371	1749.0899	1835.8623	2914.3936	3056.1584	3136.485	3144.6705	3222.9115	3245.9663	3513.3534
CC1(OC(=N)C=C1)C=O	C[C@]1(OC(=C[CH]1)[NH])C=O	
InChI=1S/C6H7NO2/c1-6(4-8)3-2-5(7)9-6/h2-4,7H,1H3	InChI=1S/C6H7NO2/c1-6(4-8)3-2-5(7)9-6/h2-4,7H,1H3/t6-/m1/s1
