19
gdb 105679	1.92522	1.57032	1.18864	2.719	72.4	-0.2496	-0.0408	0.2089	1153.8533	0.155651	-460.138178	-460.128298	-460.127354	-460.173518	34.664	
C	 0.0155051124	 1.3505364967	 0.3942206231	-0.263258
O	-0.2915746118	 0.0138511583	 0.0347148493	-0.285154
C	 0.3739460142	-0.4448711954	-1.113319481	 0.225686
C	 1.90537839	-0.6399779609	-1.051971225	-0.127157
O	 1.7822655805	-2.0692493168	-1.1718131195	-0.287655
C	 0.3423827755	-2.0084963669	-1.234070206	 0.104858
C	-0.3333922508	-2.7811530449	-0.1209650411	-0.394464
C	-0.1627424866	 0.2446138154	-2.3562663588	 0.099306
O	 0.4590172234	 0.4095650552	-3.3735405734	-0.244718
H	 1.0774713481	 1.4706840827	 0.6479082476	 0.120608
H	-0.2324019691	 2.0630426513	-0.4058588493	 0.118909
H	-0.586683119	 1.5861429802	 1.2737805207	 0.139922
H	 2.4463988895	-0.198131038	-1.8946269224	 0.125806
H	 2.3670305476	-0.3438822259	-0.1031126418	 0.104867
H	-0.0120519897	-2.3515355792	-2.2153310149	 0.088548
H	-0.0334021062	-2.4027588019	 0.8574638571	 0.132471
H	-1.4220952527	-2.7082156416	-0.2050712353	 0.121787
H	-0.0490872061	-3.8350739334	-0.1992090556	 0.128577
H	-1.2268772791	 0.5593869451	-2.2547391937	 0.09106
49.3714	81.2775	135.555	171.7629	184.7037	212.7039	251.4612	256.6095	305.6298	391.984	446.9621	495.7861	586.7603	684.1534	788.8778	888.0199	896.6137	921.7429	1010.5739	1032.38	1077.9125	1089.0524	1106.897	1143.658	1169.5666	1183.4751	1206.7237	1221.7978	1243.9244	1298.7057	1354.9095	1372.7364	1397.4803	1404.1541	1480.0958	1482.8865	1486.0356	1490.2347	1500.3504	1508.1814	1829.4809	2873.3272	2992.7576	3012.5831	3030.9301	3046.4037	3047.6841	3089.8102	3114.7974	3129.091	3144.3196
COC1(COC1C)C=O	CO[C@]1(CO[C@H]1C)C=O	
InChI=1S/C6H10O3/c1-5-6(3-7,8-2)4-9-5/h3,5H,4H2,1-2H3	InChI=1S/C6H10O3/c1-5-6(3-7,8-2)4-9-5/h3,5H,4H2,1-2H3/t5-,6-/m0/s1
