20
gdb 62832	2.57354	1.81427	1.46762	0.6522	80.18	-0.2304	0.0354	0.2658	989.834	0.169642	-402.979153	-402.971012	-402.970068	-403.011051	33.05	
C	-0.1485429876	 1.3861043815	 0.5738795214	-0.464344
C	-0.0145515098	-0.0222743358	-0.0075111219	 0.355264
C	-1.3982786144	-0.5591579556	-0.370694328	-0.466403
C	 1.1311502704	-0.2731315452	-1.0098206954	-0.118089
N	 2.1365587197	 0.0246286882	 0.1321578136	-0.401073
C	 1.0653088389	-0.9535195633	 0.6916371115	 0.193192
C	 0.6024412208	-2.2290056578	 1.4230235856	-0.194662
O	 0.266872966	-2.7801042436	 0.0890622965	-0.305462
C	 1.2031788127	-1.7970922921	-0.5119332897	 0.065546
H	 0.8110160649	 1.7923500114	 0.8898419304	 0.14328
H	-0.5842575785	 2.0622291425	-0.1707945685	 0.109333
H	-0.8298712241	 1.3740807384	 1.4324025286	 0.107724
H	-1.9180831397	 0.1865938717	-0.9832251936	 0.10752
H	-1.3766329408	-1.5021257531	-0.912818687	 0.14026
H	-2.0036820675	-0.7050040729	 0.5313972174	 0.112466
H	 1.3018940285	 0.1703265716	-1.9965075775	 0.080445
H	 2.9955912678	-0.5100323803	-0.0364435127	 0.213451
H	 1.3879415528	-2.8239752553	 1.9029097963	 0.116886
H	-0.2796686038	-2.1555581061	 2.0651739588	 0.122817
H	 2.1508717435	-2.2977815341	-0.7363120559	 0.081851
165.4598	177.6522	202.3839	255.4366	303.4065	360.7097	391.1789	410.7376	460.3958	545.3716	589.2685	646.9738	699.9269	775.6071	821.3676	837.2183	874.6985	886.4642	899.3605	958.1835	969.6271	1006.7181	1016.5183	1059.9323	1105.4515	1123.5007	1130.5104	1158.6868	1175.812	1209.8947	1247.8825	1268.5073	1274.7674	1292.2111	1309.5322	1361.6083	1398.5607	1425.2722	1482.8968	1485.4043	1494.6851	1509.1624	1514.1989	3028.9087	3032.1276	3035.6669	3047.811	3061.8012	3079.7086	3085.7101	3104.0076	3157.6362	3166.0648	3381.5804
CC1(C)C2NC11COC21	CC1(C)[C@H]2N[C@]31CO[C@@H]23	
InChI=1S/C7H11NO/c1-6(2)4-5-7(6,8-4)3-9-5/h4-5,8H,3H2,1-2H3	InChI=1S/C7H11NO/c1-6(2)4-5-7(6,8-4)3-9-5/h4-5,8H,3H2,1-2H3/t4-,5-,7+/m0/s1
