17
gdb 42411	3.24245	1.0252	0.87867	1.9743	70.23	-0.2674	-0.0072	0.2601	1343.0792	0.134179	-458.946388	-458.93765	-458.936706	-458.982019	30.874	
O	 0.0269699268	 0.1772414715	 1.0105950951	-0.365742
C	-0.0454966277	 1.0096300961	 0.1421476877	 0.429717
O	 0.9963817767	 1.5080317795	-0.5471004226	-0.241453
C	 2.2802865378	 1.0143882788	-0.1989751479	 0.14796
C	 3.4026465094	 1.522112027	-1.0402050778	-0.296625
C	 3.2521649783	 1.9877842818	 0.3961958961	-0.281995
C	-1.3461401984	 1.6247423932	-0.2869658724	-0.034501
C	-1.4529337419	 3.069741276	-0.5694388152	-0.165594
O	-1.460359704	 2.1154928197	-1.6190316635	-0.210845
H	 2.2588516772	-0.0096899492	 0.1493719899	 0.130802
H	 4.2034653186	 0.8368317901	-1.2932020202	 0.124569
H	 3.1465509655	 2.2311771322	-1.8189107513	 0.132755
H	 2.8999727923	 3.0012027038	 0.5508315458	 0.124142
H	 3.9440508587	 1.6247823325	 1.1476611812	 0.125742
H	-2.2092200896	 1.0888217305	 0.1001260409	 0.123706
H	-2.3994853701	 3.5713373952	-0.3746200897	 0.127319
H	-0.5594954296	 3.6868196914	-0.5060146361	 0.130044
18.8431	71.5183	95.3121	131.6618	259.1833	284.5419	363.9181	426.1199	482.9272	610.3374	751.216	758.5828	814.7097	846.2627	853.0685	888.4186	921.4766	965.818	987.5809	1039.1376	1060.3362	1075.403	1097.9496	1120.469	1157.5486	1168.6988	1176.1198	1192.6172	1237.0192	1263.4949	1306.9917	1387.4304	1407.0626	1455.6343	1497.927	1515.3142	1817.9157	3092.9832	3140.723	3144.0356	3154.2932	3189.0927	3204.7407	3224.5084	3238.8229
O=C(OC1CC1)C1CO1	O=C(OC1CC1)[C@H]1CO1	
InChI=1S/C6H8O3/c7-6(5-3-8-5)9-4-1-2-4/h4-5H,1-3H2	InChI=1S/C6H8O3/c7-6(5-3-8-5)9-4-1-2-4/h4-5H,1-3H2/t5-/m1/s1
