20
gdb 100827	3.38091	0.78097	0.75562	3.2392	72.81	-0.2518	0.028	0.2798	1564.0222	0.169273	-477.441932	-477.431475	-477.430531	-477.478189	37.438	
C	 0.0318289746	 1.6761832293	-0.0059509102	-0.415089
C	 0.0096051453	 0.1400030089	-0.0436911344	 0.030597
N	 0.6570480785	-0.4240824479	 1.1352576581	-0.279659
C	 1.9988688759	-0.5992326282	 1.2255118543	 0.155564
O	 2.7944310045	-0.3228250209	 0.3504333255	-0.333152
C	-1.3918769746	-0.4837168518	-0.1383206919	 0.070375
O	-2.1516149285	-0.2585729478	 1.060847988	-0.451512
C	-2.2198503021	-0.0608225833	-1.3508751257	-0.076047
O	-3.4479640837	-0.7564212003	-1.3800171004	-0.420734
H	 1.0657532213	 2.0138834621	 0.0920066028	 0.155111
H	-0.3816259095	 2.1088852917	-0.9215133207	 0.127191
H	-0.5292894692	 2.0698935063	 0.8497911007	 0.102621
H	 0.5929244665	-0.1894365534	-0.9098233007	 0.120549
H	 0.0643310783	-0.6400016722	 1.9226610038	 0.253682
H	 2.2965914407	-1.0365143552	 2.1992932328	 0.077618
H	-1.2766260916	-1.5722957471	-0.1758261017	 0.109716
H	-2.2932726217	 0.6923362472	 1.1456589255	 0.288066
H	-2.3809083563	 1.0312151291	-1.3337566007	 0.081535
H	-1.685462748	-0.2980277374	-2.2772384522	 0.117382
H	-3.7766109503	-0.749795239	-0.472257593	 0.286186
35.1189	75.3019	127.6666	143.1239	208.4811	230.4236	259.4843	273.0491	312.6648	366.0314	388.056	463.4289	483.4322	524.6227	587.6262	635.8515	783.612	854.2142	883.4112	947.7642	1005.8163	1032.7236	1047.5975	1076.7069	1102.0613	1136.1222	1151.0961	1202.9565	1211.4414	1283.139	1300.05	1335.3584	1380.7986	1387.6528	1408.7533	1425.2704	1431.1474	1438.3373	1482.6652	1505.499	1509.8923	1517.7663	1796.0148	2936.7489	2953.9087	3033.3966	3061.199	3064.8479	3077.0608	3105.3224	3132.784	3622.0637	3778.2975	3784.4685
CC(NC=O)C(O)CO	C[C@@H](NC=O)[C@@H](O)CO	
InChI=1S/C5H11NO3/c1-4(6-3-8)5(9)2-7/h3-5,7,9H,2H2,1H3,(H,6,8)	InChI=1S/C5H11NO3/c1-4(6-3-8)5(9)2-7/h3-5,7,9H,2H2,1H3,(H,6,8)/t4-,5+/m1/s1
