21
gdb 93275	2.21235	1.63168	1.20441	4.2599	77.35	-0.2586	0.0175	0.276	1131.1886	0.181877	-424.288926	-424.279484	-424.27854	-424.322535	35.719	
C	-0.5396653632	 1.3704742727	-0.0362394752	-0.424842
C	 0.0826179775	-0.0231302797	-0.061145223	-0.018206
C	 1.2183043268	-0.1788342331	-1.0834223867	-0.103703
O	 2.0000933983	-1.2971748496	-0.6352002674	-0.22705
C	 1.7645560122	-1.5477790661	 0.6811618166	 0.444096
O	 2.3173602193	-2.4307353161	 1.2718301486	-0.356525
C	 0.7481535942	-0.5388366885	 1.2394348523	 0.108678
C	 1.5535119537	 0.5427630499	 1.9918823631	-0.432971
C	-0.2202147458	-1.2357914162	 2.1985337238	-0.436247
H	 0.202969236	 2.1441743489	 0.1807263016	 0.124075
H	-0.9924340393	 1.6080464776	-1.0047924474	 0.121476
H	-1.328881759	 1.4384076343	 0.7189605853	 0.125877
H	-0.6986715696	-0.7467756475	-0.3275703766	 0.086294
H	 0.8686802405	-0.3979818296	-2.0949977209	 0.122852
H	 1.8608679834	 0.7100344053	-1.1229305471	 0.11119
H	 2.2501223145	 1.0758623247	 1.3369655688	 0.121163
H	 0.8815546071	 1.2788495838	 2.4428061331	 0.120875
H	 2.1373075705	 0.0777567004	 2.7909366697	 0.140705
H	 0.3336269699	-1.7159195461	 3.0094114507	 0.140426
H	-0.9205087648	-0.5156732513	 2.6345355248	 0.112161
H	-0.800393102	-2.0095581738	 1.6862062558	 0.119676
87.6336	187.4951	199.3488	210.7183	220.7152	262.7821	273.9851	286.0982	297.7698	362.3052	464.7021	544.992	573.6577	657.0621	715.5041	758.1459	815.1124	905.4749	948.6873	959.6103	965.6237	1018.2702	1057.4415	1072.9092	1101.7751	1124.8796	1155.4084	1195.4993	1240.4342	1248.8545	1270.9454	1351.6852	1362.9207	1395.8319	1403.5218	1410.6862	1425.4088	1479.9733	1488.1223	1496.4147	1499.2369	1507.3785	1509.8028	1524.2119	1873.6612	3015.9381	3027.8263	3035.4682	3036.3947	3040.4887	3099.264	3101.3973	3104.3412	3107.6535	3111.7174	3118.7628	3122.9459
CC1COC(=O)C1(C)C	C[C@H]1COC(=O)C1(C)C	
InChI=1S/C7H12O2/c1-5-4-9-6(8)7(5,2)3/h5H,4H2,1-3H3	InChI=1S/C7H12O2/c1-5-4-9-6(8)7(5,2)3/h5H,4H2,1-3H3/t5-/m0/s1
