17
gdb 44814	2.81351	1.50726	1.17971	4.0343	72.08	-0.2603	0.0015	0.2617	1068.4619	0.135879	-421.807781	-421.800038	-421.799094	-421.840642	29.472	
O	 0.5009670096	 0.1686385708	 0.6959292039	-0.340011
C	 0.3110534339	 1.2985946715	 0.3772812261	 0.441094
O	-0.9078845728	 1.9144658128	 0.1313134768	-0.263879
C	-0.2116869718	 3.109425666	-0.3303025767	 0.041644
C	 0.535514603	 3.6932207415	 0.8102527734	-0.345428
C	 1.135048479	 2.5136782108	 0.0176865206	 0.136611
C	 2.475675112	 2.5137182166	-0.6180322625	-0.115943
C	 3.5240519078	 1.5211123485	-0.1639542232	-0.268854
C	 2.9038776906	 1.3871036868	-1.5298836011	-0.277699
H	-0.5868948226	 3.5835578826	-1.2256740245	 0.133759
H	 1.0454243144	 4.6348507344	 0.6249332356	 0.130899
H	 0.1611383469	 3.5597871037	 1.8204933756	 0.138449
H	 2.8374340974	 3.5045611353	-0.8773002104	 0.08529
H	 4.5488839647	 1.8657894731	-0.0856345984	 0.113727
H	 3.2268648256	 0.7955043334	 0.5842697082	 0.142925
H	 2.2117138515	 0.5665688811	-1.6822517049	 0.133254
H	 3.4979760509	 1.641397681	-2.4004392184	 0.114162
51.457	138.9619	164.9833	208.7512	345.9368	439.375	454.5353	480.9048	656.1379	695.7592	776.5424	791.0417	825.8167	844.8699	870.8627	906.3102	923.0723	945.9141	951.3201	1023.3077	1038.0718	1067.0961	1068.2123	1077.3829	1092.282	1114.1031	1131.2011	1200.9762	1217.0223	1232.2035	1288.1118	1354.0742	1440.8881	1465.3607	1487.232	1505.2467	1926.2944	3118.7002	3137.9724	3141.0421	3145.8159	3210.5454	3220.9148	3230.9202	3236.5741
O=C1OC2CC12C1CC1	O=C1O[C@H]2C[C@@]12C1CC1	
InChI=1S/C7H8O2/c8-6-7(4-1-2-4)3-5(7)9-6/h4-5H,1-3H2	InChI=1S/C7H8O2/c8-6-7(4-1-2-4)3-5(7)9-6/h4-5H,1-3H2/t5-,7-/m0/s1
