16
gdb 26719	3.32502	1.20398	0.88883	6.1972	76.65	-0.2044	-0.0236	0.1808	1247.8575	0.123629	-437.937837	-437.928769	-437.927825	-437.972163	32.216	
C	 0.0420458452	 1.5119304436	 0.0408740226	-0.512553
C	 0.0438154936	 0.0232456947	-0.0449578272	 0.194702
C	 0.0237992673	-0.8343843971	-1.1215963814	 0.146414
O	-0.0041268643	-0.5373037176	-2.4501226555	-0.441968
C	 0.0369337758	-2.1831350342	-0.6371432603	 0.116666
C	 0.0239438089	-3.412404004	-1.4141171805	 0.064871
O	 0.0363735401	-4.5308537757	-0.9370291676	-0.303723
C	 0.0650908377	-2.0970516561	 0.7476566333	-0.142221
N	 0.0689217215	-0.7875051061	 1.087075101	-0.302262
H	 0.9366646841	 1.9052522186	 0.5402937543	 0.136442
H	 0.0208451408	 1.9549853009	-0.9600465319	 0.120145
H	-0.8335531072	 1.9011193007	 0.5759706456	 0.136447
H	-0.0087367281	 0.418107591	-2.5642578652	 0.2954
H	 0.0010592177	-3.2626316129	-2.5142912853	 0.073382
H	 0.08197276	-2.886449121	 1.480453685	 0.152087
H	 0.0874448668	-0.4378824347	 2.0300262431	 0.266171
46.0495	106.5842	163.5685	195.3534	217.1233	266.8659	286.3523	342.6939	377.2386	478.0662	510.9411	639.4175	658.7779	700.7104	741.5077	784.2031	820.529	956.8509	1017.5359	1046.1605	1058.325	1125.938	1227.5652	1245.3789	1267.1313	1364.067	1413.587	1434.6697	1470.0722	1471.654	1499.85	1509.8354	1552.749	1651.8883	1772.8468	2906.6398	3011.4217	3056.8166	3091.8081	3280.1564	3669.9	3828.1132
CC1=C(O)C(C=O)=CN1	Cc1c(O)c(C=O)c[nH]1	
InChI=1S/C6H7NO2/c1-4-6(9)5(3-8)2-7-4/h2-3,7,9H,1H3	InChI=1S/C6H7NO2/c1-4-6(9)5(3-8)2-7-4/h2-3,7,9H,1H3
