12
gdb 129325	2.6343	1.92963	1.28977	3.2518	67.97	-0.2839	-0.1222	0.1617	912.616	0.076276	-464.902388	-464.895059	-464.894115	-464.934419	26.888	
N	-0.0558546842	 1.3582614623	-0.3376947476	-0.453605
C	-0.0624098223	 0.2033899268	 0.1584098317	 0.38657
O	 0.9603723558	-0.2668375447	 0.9552422738	-0.289242
N	 1.3496419568	-1.726180671	 0.7901396553	 0.022672
N	 0.5547470847	-2.5253399026	 1.2308799078	-0.027579
C	-0.7368241203	-2.1921593489	 1.7462407169	 0.078438
N	-1.5837942159	-1.4459334556	 1.1777429594	-0.197325
C	-1.2484053934	-0.7119996705	 0.0200333652	 0.25842
N	-1.9165148732	-0.7490210049	-1.0562374271	-0.431852
H	 0.8369256251	 1.8254871351	-0.1654526253	 0.245725
H	-0.9916903523	-2.7677634954	 2.6324949728	 0.168177
H	-2.7099674107	-1.3879663605	-0.951792503	 0.239601
74.554	150.8064	267.7573	305.0379	315.7645	364.0968	428.8095	519.0621	578.8929	633.8212	688.3067	747.7827	804.6946	865.7126	907.8264	939.865	945.9988	974.6193	1007.8729	1060.9032	1232.1178	1335.2196	1390.4044	1656.0725	1713.4686	1726.1135	1747.1515	3176.4936	3445.5341	3476.4718
N=C1ON=NC=NC1=N	[NH][C]1ON=NC=N[C]1[NH]	
InChI=1S/C3H3N5O/c4-2-3(5)9-8-7-1-6-2/h1,4-5H	InChI=1S/C3H3N5O/c4-2-3(5)9-8-7-1-6-2/h1,4-5H
