17
gdb 33938	3.26762	1.44971	1.2686	2.3692	78.75	-0.228	0.0342	0.2621	1029.1092	0.136924	-380.782513	-380.775166	-380.774221	-380.813987	29.879	
C	 0.1098222636	-1.1664378157	 0.0788318511	-0.366621
C	 0.0675895169	 0.0343096908	 0.0289416119	 0.19053
C	-0.0332299571	 1.4654539182	-0.0184814368	 0.149355
C	 0.2666210696	 2.2518647305	-1.2563966544	-0.272252
N	 1.2180317341	 2.2791960184	-0.1449828729	-0.143994
C	 1.112061512	 3.4234855217	 0.7914167783	-0.173408
C	-0.2235553854	 3.3345583187	 1.5186006578	-0.034464
N	-1.3960664529	 3.4829566466	 0.6341248839	-0.338579
C	-0.9325330785	 2.1334698404	 1.0102561018	-0.120709
H	 0.1645890599	-2.2261193057	 0.1155344616	 0.187842
H	 0.626940247	 1.7258232271	-2.1359811197	 0.117858
H	-0.3628585919	 3.1173597204	-1.4366251614	 0.142828
H	 1.9293032097	 3.3355688135	 1.5151733266	 0.114741
H	 1.2355525036	 4.3673126197	 0.2508447791	 0.11895
H	-0.2948753873	 3.6564188828	 2.5533809964	 0.094629
H	-2.2166175822	 3.7254491237	 1.1841878426	 0.23562
H	-1.5515844711	 1.502228939	 1.6361165443	 0.097673
133.6224	147.9637	272.9954	310.0135	416.3539	471.6673	497.165	516.2642	586.549	603.1896	653.9183	704.9226	731.1346	799.1425	808.4261	862.5445	876.4471	894.3862	936.97	969.4621	999.7449	1052.8684	1083.9836	1129.4687	1137.1944	1157.046	1177.3207	1208.1675	1232.0649	1251.7825	1319.1919	1346.8169	1368.299	1422.8484	1482.5945	1496.1843	2238.7667	3044.5556	3088.2801	3113.2071	3153.6247	3191.8221	3212.1257	3498.6996	3502.8775
C#CC12CN1CC1NC21	C#C[C@]12CN1C[C@H]1N[C@@H]21	
InChI=1S/C7H8N2/c1-2-7-4-9(7)3-5-6(7)8-5/h1,5-6,8H,3-4H2	InChI=1S/C7H8N2/c1-2-7-4-9(7)3-5-6(7)8-5/h1,5-6,8H,3-4H2/t5-,6-,7-,9?/m1/s1
