18
gdb 78703	5.30971	1.09973	1.09084	2.0268	77.	-0.2356	0.0751	0.3108	1147.0326	0.148262	-401.831039	-401.823742	-401.822798	-401.862513	29.568	
O	-0.0042423592	 1.4842428834	-0.0871929186	-0.442252
C	 0.0479428353	 0.0776196286	-0.0303247279	 0.094546
C	 0.0443016319	-0.6071617288	 1.3521567315	-0.082801
C	-1.4806897696	-0.2813414331	 1.5735843203	-0.164526
C	-1.3241915979	-0.594563094	 0.0360133138	-0.050389
C	-0.7307635535	-1.8489870501	 0.7787213015	-0.154544
C	-1.7793624759	-1.7435739266	 1.8795671273	 0.426785
C	-2.0649111619	-2.4803645888	 3.1194853459	-0.34215
N	-3.0329527944	-2.4643613709	 1.9828809896	-0.395542
H	 0.8910613628	 1.8247767338	 0.0039306425	 0.282861
H	 0.7527220914	-0.3330127403	-0.7683581352	 0.063476
H	 0.8135115078	-0.6334235023	 2.1256102222	 0.070181
H	-1.8920196654	 0.6269658442	 2.0111614096	 0.080455
H	-2.1231139213	-0.6032488509	-0.705053468	 0.080829
H	-0.292977107	-2.7301459854	 0.3108322663	 0.07743
H	-1.613238895	-3.4503086462	 3.3111137889	 0.117474
H	-2.3083293257	-1.9124916134	 4.0146631293	 0.109959
H	-3.7992631624	-1.8272552294	 2.1896171509	 0.228208
141.8806	164.2234	265.6408	273.8895	342.1651	371.3401	468.138	593.1795	618.1282	743.4569	814.6085	830.5625	836.8438	861.544	890.3648	912.7622	925.559	937.3538	962.8047	976.1573	1015.6879	1035.0932	1088.0517	1100.5013	1109.0975	1129.6966	1136.9409	1152.2629	1160.9435	1172.0021	1200.8467	1230.8188	1259.188	1265.6083	1293.7598	1318.8719	1432.5133	1456.8217	1530.1442	2994.7335	3099.5648	3100.8645	3116.8417	3124.6776	3133.5387	3182.822	3487.2017	3819.9247
OC1C2C3C1C2C31CN1	O[C@H]1[C@H]2[C@H]3[C@@H]1[C@@H]2[C@]13CN1	
InChI=1S/C7H9NO/c9-6-2-4-3(6)5(2)7(4)1-8-7/h2-6,8-9H,1H2	InChI=1S/C7H9NO/c9-6-2-4-3(6)5(2)7(4)1-8-7/h2-6,8-9H,1H2/t2-,3+,4-,5+,6-,7-/m1/s1
