13
gdb 25535	4.78877	0.9723	0.81954	3.0353	64.3	-0.2191	-0.0052	0.2139	1291.2266	0.08899	-489.92065	-489.912678	-489.911734	-489.954375	28.023	
N	 0.0044040278	 1.2409298409	 0.2216308432	-0.416338
C	-0.023823277	 0.0131466207	-0.0352261136	 0.108664
O	-1.0765960023	-0.7243526524	 0.4543688909	-0.214884
C	-1.0973030072	-2.0435819208	 0.2106297667	 0.428042
C	-2.1215308142	-2.859563709	-0.0548697381	-0.230031
N	-1.5616486451	-4.1478102967	-0.1096642219	-0.367337
C	-0.2104562335	-4.103891388	 0.1054138076	 0.497775
O	 0.6144175588	-4.9717578821	 0.121330512	-0.387518
O	 0.0767584821	-2.7475708156	 0.3190101223	-0.246535
H	 0.8279643678	 1.6682044831	-0.1974071417	 0.245028
H	 0.6909776541	-0.5837609075	-0.6055484105	 0.135186
H	-3.1666761563	-2.6563437921	-0.1968719259	 0.164605
H	-2.047983125	-5.0097447904	-0.280730451	 0.283343
48.6256	87.9264	131.3797	191.6835	299.4194	400.3948	439.51	457.1812	570.875	623.6151	702.3652	720.0966	758.2193	811.9187	827.231	916.0147	965.3513	1042.7744	1044.9094	1073.0055	1141.5616	1250.3929	1323.3161	1351.9324	1402.8677	1416.2767	1725.8102	1776.7892	1916.5135	3109.7014	3309.4154	3525.1697	3699.9458
N=COC1=CNC(=O)O1	[NH][CH]Oc1c[nH]c(=O)o1	
InChI=1S/C4H4N2O3/c5-2-8-3-1-6-4(7)9-3/h1-2,5H,(H,6,7)	InChI=1S/C4H4N2O3/c5-2-8-3-1-6-4(7)9-3/h1-2,5H,(H,6,7)
