16
gdb 127691	3.0805	1.51431	1.04558	5.9639	78.33	-0.2396	-0.0636	0.176	1113.4004	0.124224	-430.22682	-430.2184	-430.217456	-430.26021	30.481	
C	 0.0597551669	 1.4259917397	-0.0501971751	-0.331057
N	 0.0296586459	-0.0246010527	 0.0583206408	-0.074739
N	-0.3511203999	-0.6658957863	-1.1085452415	-0.059241
N	-0.4017554516	-1.9124492695	-1.1214168937	-0.208814
C	 0.0092310913	-2.6611801165	 0.0404860944	 0.386978
N	 0.3434533233	-3.8825625407	-0.0678080937	-0.489211
N	-0.0104860514	-2.0115210517	 1.2704482299	-0.297725
C	 0.0237564229	-0.7249324874	 1.2469869079	 0.40828
C	 0.030284051	 0.0548997264	 2.5292508656	-0.490675
H	 0.9901504184	 1.8227450527	 0.3637112681	 0.148361
H	 0.0071290286	 1.6641703219	-1.1124167119	 0.169254
H	-0.7880168201	 1.8929141637	 0.4617121003	 0.145104
H	 0.2553081376	-4.1579387803	-1.0480018886	 0.228516
H	-0.0006346131	-0.6548478378	 3.3550059459	 0.17029
H	 0.934027943	 0.6673394912	 2.6160852041	 0.14806
H	-0.8311116825	 0.7279492874	 2.5935979477	 0.146619
62.7058	115.4251	168.7148	204.044	223.5138	315.5557	357.1529	452.7954	516.8035	531.3625	575.8516	603.0431	718.6178	784.4341	804.5341	879.6003	912.2745	938.2301	1028.9944	1059.1638	1106.4148	1149.7223	1195.3456	1253.9028	1301.1229	1387.168	1409.915	1452.3813	1469.8798	1476.3839	1494.8438	1505.9376	1572.1987	1683.5994	1722.3783	3040.3361	3044.7035	3100.9421	3109.6551	3160.0203	3166.1894	3472.0788
CN1N=NC(=N)N=C1C	CN1N=N[C@H]([NH])N=C1C	
InChI=1S/C4H7N5/c1-3-6-4(5)7-8-9(3)2/h5H,1-2H3	InChI=1S/C4H8N5/c1-3-6-4(5)7-8-9(3)2/h4-5H,1-2H3/t4-/m1/s1
