20
gdb 118661	3.05272	0.77659	0.64743	5.1922	77.78	-0.268	0.0381	0.306	1763.5401	0.168075	-440.271894	-440.260905	-440.259961	-440.309443	36.517	
C	 0.0088695313	 1.3495232918	 0.0924956239	-0.232178
O	-0.0477694127	-0.0552458031	-0.0163701577	-0.228449
C	 0.6671591153	-0.552422346	-1.1162632921	-0.063463
C	 0.6240606357	-2.08617561	-1.0546492505	-0.183727
C	 1.2208730696	-2.7230014991	-2.3181070531	-0.063462
O	 0.985259424	-4.1046713889	-2.2585027034	-0.228449
C	 1.5814157157	-4.8150000256	-3.3207966122	-0.232177
C	 1.3107976328	-2.575451135	 0.1453952799	 0.298865
N	 1.8770127049	-2.9487960119	 1.080432089	-0.328541
H	 1.043219191	 1.7052287299	 0.2142888919	 0.113513
H	-0.4267421704	 1.8444129959	-0.7896008061	 0.106398
H	-0.5685554169	 1.6278061821	 0.9763950137	 0.138052
H	 0.2156729851	-0.2177336387	-2.0656379347	 0.09505
H	 1.7118225958	-0.2009147401	-1.1023231416	 0.104557
H	-0.4266491802	-2.3906590946	-0.9888283173	 0.146441
H	 0.7411736336	-2.2778081648	-3.2062838289	 0.095052
H	 2.3000248244	-2.5066884262	-2.3790445915	 0.104557
H	 1.1895570915	-4.4915215731	-4.2978205284	 0.106397
H	 2.6750176715	-4.6915992582	-3.3275994743	 0.113513
H	 1.3442737581	-5.8708580144	-3.1756522467	 0.138051
55.4653	76.7243	81.1222	82.2059	119.6295	171.0314	225.6734	227.5206	256.1355	280.3606	322.0216	408.9407	449.789	575.195	649.7886	806.9031	951.9044	966.892	1004.4951	1102.2159	1102.8104	1114.0124	1160.1404	1176.9063	1182.6118	1187.1418	1216.0533	1241.6926	1249.1097	1261.7607	1281.3178	1375.6652	1412.5333	1424.7814	1479.8754	1482.105	1486.543	1486.6229	1499.9169	1502.5662	1524.9741	1530.6615	2364.6951	2951.9436	2960.2058	2977.188	2978.6223	2988.2436	2995.5211	3024.8226	3024.9323	3064.2157	3126.0735	3126.1707
COCC(COC)C#N	COCC(COC)C#N	
InChI=1S/C6H11NO2/c1-8-4-6(3-7)5-9-2/h6H,4-5H2,1-2H3	InChI=1S/C6H11NO2/c1-8-4-6(3-7)5-9-2/h6H,4-5H2,1-2H3
