21
gdb 114320	2.28907	1.34283	1.14305	1.7347	78.46	-0.2299	0.0655	0.2954	1224.2165	0.180862	-424.187865	-424.17836	-424.177415	-424.221842	35.921	
C	-0.1984989119	 1.5182736215	 0.0932549061	-0.380495
C	 0.2075478631	 0.0581928901	-0.1345064322	-0.217566
C	 0.7337975902	-0.598391622	 1.129905776	 0.105947
O	-0.2294224532	-0.6658642662	 2.238339397	-0.331277
C	 0.1240063979	-2.0376325579	 2.4755030644	-0.02176
C	-0.3463179043	-2.8417336898	 1.3165939673	 0.07328
O	-1.5149602391	-2.5167663243	 0.6294548085	-0.433996
C	 0.9868797244	-2.105552172	 1.2113243396	 0.183723
C	 2.29624686	-2.7745946778	 0.91236187	-0.503054
H	 0.6519471617	 2.1186545626	 0.4353382962	 0.113549
H	-0.5784084732	 1.9700922689	-0.827629601	 0.113842
H	-0.9813657751	 1.5884127172	 0.8543129995	 0.132052
H	-0.6306075492	-0.5236283011	-0.5267289614	 0.118184
H	 1.0057701053	 0.0032118631	-0.886968138	 0.099808
H	 1.6137508708	-0.0486720551	 1.4966352972	 0.078315
H	 0.2638280832	-2.3503301671	 3.5050591782	 0.101171
H	-0.2214790929	-3.9178934493	 1.4111838584	 0.104431
H	-1.8214691769	-1.6854347584	 1.0172455412	 0.29263
H	 2.489265207	-2.8028533278	-0.1666972589	 0.12813
H	 3.1335268605	-2.2511146158	 1.3886670299	 0.119664
H	 2.3041105117	-3.8085397988	 1.271799322	 0.123422
87.514	144.1678	172.826	181.5804	212.9501	237.7627	252.7885	284.3553	382.1586	447.642	468.0515	558.5754	615.2754	658.0835	764.664	787.1609	825.0378	881.8401	906.3126	932.9612	973.4422	986.4978	1023.7521	1042.2525	1075.5315	1111.7979	1115.0356	1164.6764	1171.0566	1240.7335	1241.9584	1283.5489	1289.5616	1304.6643	1342.8552	1391.2939	1409.0368	1418.8807	1419.2636	1472.5421	1487.5808	1490.5441	1497.3417	1498.5809	1509.7392	2988.9699	3021.1531	3028.6167	3035.1907	3079.2882	3090.8883	3096.8301	3110.8656	3115.5945	3144.4335	3165.9798	3747.7529
CCC1OC2C(O)C12C	CC[C@H]1O[C@H]2[C@@H](O)[C@@]12C	
InChI=1S/C7H12O2/c1-3-4-7(2)5(8)6(7)9-4/h4-6,8H,3H2,1-2H3	InChI=1S/C7H12O2/c1-3-4-7(2)5(8)6(7)9-4/h4-6,8H,3H2,1-2H3/t4-,5-,6+,7-/m1/s1
