17
gdb 75971	2.20433	1.92856	1.06666	3.3329	70.28	-0.2568	-0.0086	0.2482	1085.5389	0.138152	-455.236516	-455.228107	-455.227163	-455.270051	30.56	
C	-0.0014391902	 1.4509995332	 0.021065068	-0.339994
N	-0.0215949388	-0.0133350089	-0.0280435003	-0.188985
C	-1.2489591589	-0.6715942475	-0.0835320466	 0.413278
O	-2.301540261	-0.0744886029	-0.1464463541	-0.35375
C	-1.1783657357	-2.1883314948	-0.0184690011	-0.306375
C	 0.1063303068	-2.7315895969	-0.6301705316	-0.184664
N	 1.2233773978	-2.0148580618	-0.0401897684	-0.35737
C	 1.2338737945	-0.6492855728	 0.079424551	 0.474085
O	 2.2443444977	-0.0064031125	 0.2766795203	-0.391626
H	 0.652833458	 1.840113311	-0.760743084	 0.143747
H	-1.0226568345	 1.7945377297	-0.1264380084	 0.161651
H	 0.3787328361	 1.7930967882	 0.9861963345	 0.14534
H	-1.232796431	-2.4720697992	 1.0397877882	 0.143254
H	-2.0672041757	-2.5800644824	-0.5149369579	 0.140253
H	 0.2170909689	-3.7968331899	-0.4116550567	 0.124524
H	 0.0827472228	-2.6194253108	-1.725174042	 0.117875
H	 2.1514220132	-2.4010276217	-0.119384251	 0.258758
67.0605	105.0029	125.2968	199.1458	266.2465	346.2458	395.0152	455.3227	483.5919	540.9538	581.1334	621.9046	687.7114	733.0271	775.2217	905.7914	957.8341	970.5216	1078.5245	1102.1314	1135.5834	1160.8661	1207.7972	1226.7693	1251.3865	1319.4007	1351.8863	1394.0673	1411.5828	1450.2185	1457.398	1478.3632	1493.5745	1510.0861	1523.8157	1780.352	1816.6392	2985.3961	3045.5813	3068.1905	3088.5672	3130.2046	3132.8274	3188.3808	3635.0684
CN1C(=O)CCNC1=O	CN1C(=O)CCNC1=O	
InChI=1S/C5H8N2O2/c1-7-4(8)2-3-6-5(7)9/h2-3H2,1H3,(H,6,9)	InChI=1S/C5H8N2O2/c1-7-4(8)2-3-6-5(7)9/h2-3H2,1H3,(H,6,9)
