15
gdb 26738	3.36618	1.29574	0.94134	4.5196	71.96	-0.2017	-0.0383	0.1634	1163.8751	0.114278	-450.172317	-450.163878	-450.162934	-450.205183	30.966	
N	 0.0404916455	 1.4000548566	 0.2063552179	-0.595684
C	-0.0260446847	 0.0176314069	 0.0779969409	 0.271835
C	-1.1322116279	-0.7874777043	 0.0204690204	 0.155974
N	-2.5182176212	-0.5606007485	 0.0365410168	-0.61985
N	-0.6098083181	-2.1029491754	-0.0242546791	-0.074742
C	-1.3301747121	-3.295014215	-0.076886082	 0.174649
O	-0.8148004091	-4.3832470594	-0.1184142263	-0.298838
C	 0.757655527	-1.9795686546	 0.0050874019	 0.027609
N	 1.1384997649	-0.7326729388	 0.0678909989	-0.320753
H	 0.949272524	 1.754089105	-0.0610250855	 0.257279
H	-0.7007855415	 1.8961151949	-0.2691730071	 0.2401
H	-2.8759521995	-0.1349724041	-0.8116683425	 0.245672
H	-2.8197534438	-0.0104979742	 0.8325438158	 0.252538
H	-2.4150321565	-3.1090442697	-0.0731808045	 0.122192
H	 1.3962134731	-2.8479371894	-0.0276870356	 0.162018
109.629	179.4954	197.268	203.9799	257.726	284.5396	300.171	337.0388	409.8446	554.1149	626.1415	651.6986	684.9318	708.7054	763.0001	800.2255	853.3965	856.9683	1025.5618	1055.2857	1109.3175	1203.0651	1241.5341	1254.9934	1319.1814	1411.6754	1428.1908	1436.2809	1529.7953	1631.2459	1654.5079	1687.498	1814.9482	3032.611	3274.9106	3502.5849	3548.1938	3573.475	3648.4118
NC1=C(N)N(C=O)C=N1	Nc1c(N)n(C=O)cn1	
InChI=1S/C4H6N4O/c5-3-4(6)8(2-9)1-7-3/h1-2H,5-6H2	InChI=1S/C4H6N4O/c5-3-4(6)8(2-9)1-7-3/h1-2H,5-6H2
