19
gdb 53038	3.43278	0.91007	0.82138	1.4266	87.96	-0.2188	0.0428	0.2616	1484.5218	0.157983	-385.837164	-385.82766	-385.826716	-385.872588	34.516	
C	-0.0176429698	 1.4965434623	 0.0141508198	-0.50862
C	-0.0026311145	 0.0415218314	-0.0067681041	 0.254375
C	 0.0127091106	-1.164628282	-0.0200292862	-0.20474
C	 0.04406265	-2.5876970391	-0.0589481463	 0.183591
C	 0.7706617543	-3.4305483388	-1.1278358307	-0.28801
C	-0.4046630621	-4.4532502204	-1.1305896325	-0.223074
C	-1.1273282796	-3.6355598686	-0.0566682592	-0.177849
C	-0.2486925481	-3.4430184818	 1.1401111656	 0.050525
O	 0.6979724566	-4.3880996124	 1.548085409	-0.420394
H	 0.7851258411	 1.908349633	-0.6079674042	 0.147952
H	-0.9652725799	 1.8951904246	-0.3661848074	 0.144727
H	 0.121364568	 1.8848022316	 1.029563948	 0.146198
H	 0.8594089265	-2.894159648	-2.0733592859	 0.109923
H	 1.7503060522	-3.8078978854	-0.828214847	 0.113093
H	-0.9422055013	-4.4657013963	-2.0803228328	 0.104442
H	-0.154544271	-5.4811452904	-0.852763407	 0.094872
H	-2.1937175741	-3.4444738165	-0.0150841284	 0.09227
H	-0.7161740506	-2.8894442677	 1.9544695844	 0.093099
H	 0.2248700718	-5.1485882055	 1.9027773349	 0.28762
26.6814	88.566	100.5218	223.8162	233.0937	254.7781	278.8694	300.1795	403.0957	442.5593	505.9387	539.6598	605.2412	756.909	790.7291	796.0433	854.5664	940.7735	952.8313	988.8944	1007.738	1033.3799	1051.8471	1054.1877	1097.6722	1130.3294	1137.5003	1221.0641	1225.1564	1247.7811	1272.0074	1297.2711	1314.9306	1345.6441	1414.3	1460.2311	1475.4236	1477.0424	1479.5295	1503.5849	2359.5762	3022.1974	3057.8729	3077.6509	3079.9256	3083.3831	3108.7655	3110.7858	3137.3051	3177.4038	3801.0999
CC#CC12CCC1C2O	CC#C[C@]12CC[C@H]1[C@H]2O	
InChI=1S/C8H10O/c1-2-4-8-5-3-6(8)7(8)9/h6-7,9H,3,5H2,1H3	InChI=1S/C8H10O/c1-2-4-8-5-3-6(8)7(8)9/h6-7,9H,3,5H2,1H3/t6-,7+,8-/m0/s1
