15
gdb 28824	3.07298	1.50961	1.19806	1.6377	77.28	-0.249	-0.0775	0.1715	1038.0099	0.113646	-413.00544	-412.997687	-412.996743	-413.037873	28.499	
C	-0.5287243074	 1.2577361686	 0.2164886255	-0.447657
C	 0.0353656748	-0.1017926591	-0.0682438396	 0.362305
N	-0.1444151118	-0.6320011374	-1.2371692256	-0.274329
C	 0.2235366884	-1.9228808462	-1.5294560454	 0.065604
N	 0.2179769043	-2.9725548195	-0.7811509702	-0.255008
C	-0.0246214566	-2.8692792219	 0.5908289776	 0.289825
N	-0.7902500556	-3.5975921284	 1.2945074021	-0.497952
C	 0.8555556684	-1.850116318	 1.242103964	-0.001876
N	 0.8360549176	-0.6087468372	 0.9427319283	-0.205441
H	-1.0949930021	 1.2361071087	 1.1537900771	 0.149466
H	 0.2843460366	 1.9776257736	 0.3554134042	 0.156041
H	-1.1716473311	 1.5782824112	-0.6025505887	 0.147753
H	 0.4697703101	-2.0765264303	-2.5803157174	 0.131886
H	-1.3061302427	-4.2431946251	 0.6895138767	 0.229424
H	 1.5669950473	-2.191904919	 1.9957846913	 0.149957
86.7416	128.16	184.794	276.1702	318.317	346.5175	374.8886	447.5603	531.3334	610.952	678.4658	757.3193	774.3349	859.7073	882.7562	939.5269	967.8462	990.9778	1007.8468	1056.5897	1066.3272	1204.1082	1264.129	1327.1474	1381.3026	1403.5733	1430.6528	1463.9019	1472.3048	1570.3127	1644.362	1689.8763	1734.4959	3046.4667	3104.4512	3122.3356	3135.403	3165.0237	3437.702
CC1=NC=NC(=N)C=N1	CC1=NC=N[C]([NH])C=N1	
InChI=1S/C5H6N4/c1-4-7-2-5(6)9-3-8-4/h2-3,6H,1H3	InChI=1S/C5H6N4/c1-4-7-2-5(6)9-3-8-4/h2-3,6H,1H3
