18
gdb 51522	4.41437	0.74172	0.70586	3.0718	77.49	-0.2601	-0.033	0.2271	1572.4433	0.146771	-401.963275	-401.954223	-401.953278	-401.998692	31.934	
O	-0.6369576755	 0.9937277312	 0.9242234433	-0.233901
C	 0.0148442437	 1.0071278293	-0.0872891169	 0.161837
C	 1.3560401236	 1.691377495	-0.2426661465	-0.302505
C	 1.313556993	 2.7777886824	-1.317491909	 0.033949
C	 0.5302561232	 4.0883558481	-1.0239774146	-0.23975
C	 1.6870823072	 4.8995966376	-1.6983671992	-0.161383
C	 2.5911890484	 3.6287656723	-1.5544389669	-0.253608
C	 1.4167144829	 5.2694360074	-3.079510645	 0.27197
N	 1.1999371245	 5.5504849221	-4.1802509507	-0.324056
H	-0.353830568	 0.506707669	-1.0137784097	 0.077147
H	 1.6532134368	 2.1029863531	 0.727157584	 0.118651
H	 2.0915160075	 0.927952912	-0.5354432643	 0.123437
H	 0.9748443892	 2.3483209028	-2.2668137249	 0.099789
H	-0.4665935974	 4.1980165952	-1.4523512166	 0.131679
H	 0.4850757713	 4.3065888134	 0.04618497	 0.123603
H	 2.0246808443	 5.7860304472	-1.1570025007	 0.126974
H	 3.2062175448	 3.7027000493	-0.6537641511	 0.116864
H	 3.2264375407	 3.3716988826	-2.4029528013	 0.129302
43.9421	52.5127	91.9019	152.6919	220.6389	237.1535	351.8807	381.1058	498.7475	507.6223	567.8559	681.0252	789.7107	807.109	827.704	898.3444	930.9881	941.4375	987.2499	1008.0009	1056.539	1100.9116	1116.8399	1140.7552	1179.4403	1189.02	1246.9493	1257.3321	1268.8979	1287.1745	1308.5747	1345.5523	1387.2665	1429.7848	1463.2405	1474.6701	1497.2971	1836.3285	2352.3081	2856.3445	3012.7884	3046.4609	3069.0049	3072.5957	3089.1402	3090.6909	3134.4583	3137.1836
O=CCC1CC(C1)C#N	O=CC[C@H]1C[C@@H](C1)C#N	
InChI=1S/C7H9NO/c8-5-7-3-6(4-7)1-2-9/h2,6-7H,1,3-4H2	InChI=1S/C7H9NO/c8-5-7-3-6(4-7)1-2-9/h2,6-7H,1,3-4H2/t6-,7-
