17
gdb 32459	2.97997	1.27383	0.94292	3.0963	71.89	-0.2036	0.0225	0.226	1214.7274	0.13731	-455.15566	-455.146776	-455.145832	-455.189041	33.287	
N	-0.138402676	 1.2804789154	-0.3754505653	-0.603267
C	-0.0642441498	-0.06865652	-0.0271373225	 0.234326
C	-1.0186599467	-1.0379071002	-0.0680375519	 0.094603
N	-2.3445086083	-0.9323744173	-0.5435735897	-0.627716
C	-0.3962385441	-2.2655651748	 0.3552074328	 0.204587
C	-1.08783614	-3.5938487347	 0.3958961403	-0.183919
O	-1.6773802034	-3.9290041268	-0.8531061366	-0.425634
C	 0.89454976	-1.9381102723	 0.6231082455	-0.130211
O	 1.1287766271	-0.6192797266	 0.3992367869	-0.177038
H	 0.0880193221	 1.8974823215	 0.3987987137	 0.246402
H	 0.4725796313	 1.519637512	-1.1510637857	 0.247666
H	-2.5257143185	 0.0154445612	-0.8590868779	 0.251159
H	-3.0254670425	-1.1607070282	 0.1747833854	 0.247508
H	-0.3745093436	-4.3893289403	 0.634679728	 0.110651
H	-1.8481460844	-3.6001102714	 1.197124946	 0.082065
H	-2.1349148522	-3.1368806391	-1.1669039738	 0.294598
H	 1.7373868089	-2.5160436085	 0.9672557346	 0.134221
95.12	122.9666	198.5518	216.5212	261.0468	289.9215	306.6788	315.4084	436.7387	495.3538	510.6788	602.5038	624.0143	702.2974	725.2941	756.5781	785.7098	805.1998	881.9805	987.0855	999.4293	1050.0818	1131.6626	1168.7882	1202.9225	1211.8629	1234.3623	1304.7918	1309.6294	1366.2733	1453.5619	1461.2266	1509.6117	1607.9897	1641.6022	1658.0961	1728.0173	2937.6977	3070.207	3264.6635	3486.0978	3490.1447	3548.682	3575.4551	3739.6405
NC1=C(N)C(CO)=CO1	Nc1c(N)c(CO)co1	
InChI=1S/C5H8N2O2/c6-4-3(1-8)2-9-5(4)7/h2,8H,1,6-7H2	InChI=1S/C5H8N2O2/c6-4-3(1-8)2-9-5(4)7/h2,8H,1,6-7H2
