17
gdb 49199	4.06247	1.17837	1.05261	2.6465	75.3	-0.2247	-0.0686	0.1561	1149.4834	0.137565	-418.01832	-418.010688	-418.009744	-418.050937	28.806	
O	-0.839416351	 1.1533520302	-0.1501086266	-0.264188
C	 0.2750218225	 0.8702165714	 0.2200042256	 0.115411
C	 1.4151971381	 1.8187443637	 0.1343794906	 0.2669
N	 2.6138886898	 1.4663062226	 0.4398598057	-0.291264
C	 3.4630555929	 2.634104926	 0.1552247748	 0.00387
C	 4.2471858544	 2.5286678052	-1.1810103395	-0.215831
C	 3.2054563219	 3.4721478018	-1.8644833817	-0.235836
C	 2.5167020425	 3.7119070111	-0.4867211123	-0.005489
N	 1.2037834993	 3.1191794091	-0.2660722851	-0.342566
H	 0.545748241	-0.1193988805	 0.6336521991	 0.110183
H	 4.0464438888	 2.8979310757	 1.0412465395	 0.086721
H	 5.2529379084	 2.9526888128	-1.126774637	 0.106585
H	 4.3139183929	 1.5153492172	-1.5817929093	 0.114698
H	 3.6217141622	 4.366103082	-2.334870343	 0.105875
H	 2.5557087734	 2.9734461335	-2.5883124738	 0.10445
H	 2.5644022098	 4.7370776481	-0.1138718162	 0.08473
H	 0.3937201833	 3.3384146303	-0.8257365608	 0.25575
81.853	92.9116	193.35	220.9508	391.0245	403.3324	454.3794	503.7324	641.2293	667.7941	718.2291	752.1163	779.9666	847.7545	907.5758	918.9793	950.9243	978.5757	1009.333	1033.0377	1070.0007	1101.7711	1140.1028	1194.194	1219.5275	1246.0935	1254.4173	1272.4925	1296.1653	1313.5663	1341.2083	1384.1679	1463.8038	1473.0365	1486.7831	1660.0828	1802.2514	2968.1832	3060.5754	3064.1758	3071.2672	3084.5717	3109.9351	3129.6648	3629.1667
O=CC1=NC2CCC2N1	O=C[C]1[N][C@H]2CC[C@H]2N1	
InChI=1S/C6H8N2O/c9-3-6-7-4-1-2-5(4)8-6/h3-5H,1-2H2,(H,7,8)	InChI=1S/C6H8N2O/c9-3-6-7-4-1-2-5(4)8-6/h3-5H,1-2H2,(H,7,8)/t4-,5+
