16
gdb 44599	3.00123	1.94061	1.54368	3.7448	68.13	-0.2538	0.0111	0.2649	874.4227	0.127415	-437.880349	-437.874005	-437.873061	-437.911101	25.651	
N	-0.0690409397	 1.2582073981	 0.1586426317	-0.534462
C	-0.021517806	 0.0165934841	-0.0371895417	 0.416047
O	 1.1320827598	-0.7180766226	-0.2191991606	-0.241791
C	 0.7904590296	-2.0002887748	-0.723146617	 0.068508
C	 0.0437257296	-2.9552981068	 0.1774796259	-0.111476
C	-0.4000325414	-2.4385710629	 1.5418480534	-0.105393
O	-1.3885719486	-1.4362510183	 1.2920287323	-0.25384
C	-1.2047487448	-0.9500388206	-0.0379704645	-0.0133
C	-0.6917972454	-2.1339111991	-0.864092563	-0.11993
H	 0.8692682865	 1.6636386876	 0.1608412353	 0.226292
H	 1.5070624505	-2.3593616073	-1.4508422058	 0.11458
H	 0.2051564674	-4.0176376471	 0.0375754229	 0.103313
H	-0.8611699917	-3.2277654262	 2.1430127655	 0.116056
H	 0.4406419021	-2.0135555997	 2.1066307973	 0.114848
H	-2.1299450643	-0.4808713056	-0.3662036373	 0.112835
H	-1.2138850735	-2.5258340389	-1.7255484944	 0.107711
114.396	225.1436	272.1246	406.5613	500.5285	587.899	700.3275	722.0945	732.9862	778.3208	790.1904	806.2727	864.0696	898.1783	934.3611	940.9258	964.98	997.4641	1025.1277	1050.1556	1055.0866	1072.7622	1096.6426	1131.9649	1153.134	1234.8864	1251.9148	1263.7134	1291.1641	1323.3339	1343.6221	1369.3273	1412.6916	1519.291	1789.7138	3015.6153	3080.4672	3148.7693	3185.1618	3197.3208	3214.5307	3465.511
N=C1OC2C3COC1C23	[NH][C]1O[C@H]2[C@H]3CO[C@@H]1[C@@H]23	
InChI=1S/C6H7NO2/c7-6-5-3-2(1-8-5)4(3)9-6/h2-5,7H,1H2	InChI=1S/C6H7NO2/c7-6-5-3-2(1-8-5)4(3)9-6/h2-5,7H,1H2/t2-,3+,4-,5+/m0/s1
