19
gdb 81228	2.54445	1.8763	1.45851	0.8385	74.94	-0.2328	0.0599	0.2927	961.747	0.161	-422.953435	-422.946343	-422.945399	-422.984382	29.938	
O	-0.0585568073	 1.4188619123	-0.0836742161	-0.444116
C	 0.0225178669	 0.0149278984	 0.0111188325	 0.107842
C	 0.0056220035	-0.6241781602	 1.4241254601	 0.047455
C	-1.5134677988	-0.2026952072	 1.4928018349	-0.355717
C	-1.4024095837	-0.621815912	-0.0039233824	 0.272254
C	-2.0727210358	-0.9589742516	-1.3561759419	-0.356198
C	-1.1015692107	-2.2073774105	-1.4156352151	-0.292913
C	-1.0324269508	-2.0792381137	 0.1427692952	 0.143785
O	 0.0675482202	-2.0298547108	 1.0713702681	-0.302215
H	 0.8157877122	 1.7785006545	 0.0962312818	 0.286641
H	 0.7822618445	-0.3957721174	-0.6635425267	 0.069981
H	 0.7239764703	-0.4034995051	 2.2130295225	 0.079054
H	-2.1809375783	-0.7909251951	 2.1261839982	 0.098331
H	-1.6134995191	 0.8645701393	 1.6810152999	 0.12092
H	-3.1163455873	-1.2688255739	-1.2578787782	 0.111797
H	-1.9929779989	-0.2119766173	-2.1474590041	 0.115965
H	-1.5076530481	-3.1403102479	-1.8105332757	 0.101519
H	-0.1663948513	-1.9765307782	-1.9263138077	 0.118272
H	-1.8321906673	-2.6924650435	 0.5766589147	 0.077344
202.4239	234.7642	305.0981	309.3048	369.7098	423.4951	454.0076	534.7452	569.9039	639.2445	681.7644	782.1772	818.0128	825.7229	879.4136	891.4008	909.4316	944.4823	967.0993	999.2763	1033.7143	1076.6668	1079.9057	1098.5986	1138.9846	1154.886	1172.3602	1191.4582	1203.3118	1215.1743	1232.0389	1245.446	1257.0766	1270.2511	1299.6896	1314.2358	1392.5279	1416.4662	1480.0579	1484.3533	1494.68	3018.821	3037.4496	3069.1711	3080.7987	3084.9252	3125.2023	3131.6887	3147.4616	3164.7203	3817.2238
OC1C2CC11CCC1O2	O[C@H]1[C@H]2C[C@]31CC[C@H]3O2	
InChI=1S/C7H10O2/c8-6-4-3-7(6)2-1-5(7)9-4/h4-6,8H,1-3H2	InChI=1S/C7H10O2/c8-6-4-3-7(6)2-1-5(7)9-4/h4-6,8H,1-3H2/t4-,5-,6+,7-/m1/s1
