19
gdb 50593	3.11416	1.26756	1.03765	1.6498	75.15	-0.2483	-0.0267	0.2215	1166.1361	0.16048	-423.030316	-423.022409	-423.021465	-423.063428	29.829	
O	 0.1459277356	-0.120285238	-0.1995121087	-0.249289
C	 0.0687085914	 1.0794533324	-0.1224488892	 0.144371
C	 1.2496130359	 2.0192496377	-0.0879505216	-0.068747
C	 1.2144291983	 3.0920620874	-1.205387373	-0.245423
C	 2.2120385698	 4.1587356495	-0.7148859587	-0.226486
C	 1.9897989486	 4.2098507966	 0.792982645	 0.132514
O	 0.7727850589	 4.9079541505	 1.1488686824	-0.294103
C	 0.1675706324	 3.7046067232	 1.6593183636	-0.088487
C	 1.3744335913	 2.8433471091	 1.2172453044	-0.101228
H	-0.9257449322	 1.5816693615	-0.0797413073	 0.072534
H	 2.1482913545	 1.4025735184	-0.1950201536	 0.09595
H	 1.4662760329	 2.6784265097	-2.1847299154	 0.112721
H	 0.2105007373	 3.5262093901	-1.2793413002	 0.117908
H	 3.2417887504	 3.8413969522	-0.91927511	 0.102978
H	 2.0623303172	 5.138096763	-1.177424748	 0.116324
H	 2.8472056136	 4.5894952235	 1.3589662517	 0.076062
H	 0.0254646255	 3.7484365842	 2.7464823607	 0.106499
H	-0.802086303	 3.5045324726	 1.1890404233	 0.104898
H	 1.8593169015	 2.2842679965	 2.0171017248	 0.091006
62.0747	98.6868	173.0491	241.3481	303.9299	371.1024	405.2192	447.8981	616.0566	629.0445	790.4992	824.5172	849.7298	885.1757	905.8619	930.7277	957.4104	984.5904	1025.7136	1032.2414	1035.9824	1065.0456	1111.3626	1124.9392	1163.0796	1184.3428	1198.3183	1223.3789	1270.345	1289.4832	1298.1163	1324.8141	1335.3539	1352.0371	1356.1009	1372.6667	1433.2178	1469.2329	1493.906	1528.074	1827.6792	2859.2327	3016.5456	3035.3271	3044.4499	3053.133	3058.7233	3058.9897	3100.6644	3108.448	3114.7115
O=CC1CCC2OCC12	O=C[C@H]1CC[C@H]2OC[C@@H]12	
InChI=1S/C7H10O2/c8-3-5-1-2-7-6(5)4-9-7/h3,5-7H,1-2,4H2	InChI=1S/C7H10O2/c8-3-5-1-2-7-6(5)4-9-7/h3,5-7H,1-2,4H2/t5-,6+,7-/m1/s1
