20
gdb 107849	3.47456	1.43264	1.36284	1.2726	78.01	-0.2133	0.0818	0.2951	1038.5078	0.172752	-403.075486	-403.068029	-403.067085	-403.107396	30.072	
C	-0.0215566293	 1.3215985226	 0.0591287201	-0.265874
O	-0.0605722602	-0.0858324676	-0.0730097549	-0.300531
C	 0.6424135179	-0.5752779008	-1.1618383413	 0.424342
C	 2.1899996093	-0.4504841235	-1.3245632626	-0.310275
C	 1.9826301371	-1.6887441673	-2.1967920647	 0.006923
C	 0.791838776	-2.1495904535	-1.3187886395	-0.1078
C	 0.0967851442	-2.5475133861	-2.6132279107	-0.189787
N	 0.8736353298	-1.4229606523	-3.2762478097	-0.153704
C	 0.2110039972	-0.255806686	-2.6145859125	-0.224227
H	 1.0086326914	 1.6912779712	 0.1644045724	 0.113044
H	-0.4876867908	 1.8293134975	-0.7974222762	 0.113072
H	-0.5803414312	 1.5730264077	 0.9631886182	 0.129727
H	 2.6135058127	 0.4616803227	-1.7545479041	 0.097192
H	 2.7228037261	-0.7291694011	-0.4106401619	 0.10676
H	 2.7801837472	-2.3302297231	-2.5640140014	 0.082415
H	 0.874725055	-2.7383118009	-0.4052572465	 0.07429
H	 0.4405509642	-3.513038852	-2.9955018873	 0.105784
H	-0.9908511903	-2.4772525133	-2.7140447478	 0.100386
H	-0.8689173549	-0.2780519817	-2.7806589787	 0.102673
H	 0.6108420985	 0.6882521877	-2.9937516908	 0.09559
75.5839	184.5556	203.0643	308.3675	367.3646	438.7979	479.2235	516.4636	614.2338	651.9113	723.3239	793.5453	828.0917	851.9724	879.7341	905.7541	947.0826	979.4787	981.3529	1008.938	1027.104	1048.8661	1064.1435	1119.2999	1130.6813	1165.0731	1179.4603	1183.2685	1191.6964	1198.2778	1218.1517	1237.8679	1252.2036	1258.8739	1287.4334	1295.4549	1349.3131	1480.8391	1488.9322	1490.1675	1505.5708	1507.7441	1529.0457	2988.6409	3038.2223	3043.7408	3049.5939	3059.4626	3098.8393	3107.7589	3112.7573	3116.7251	3120.6738	3144.7771
COC12CC3C1CN3C2	CO[C@@]12C[C@H]3[C@@H]1CN3C2	
InChI=1S/C7H11NO/c1-9-7-2-6-5(7)3-8(6)4-7/h5-6H,2-4H2,1H3	InChI=1S/C7H11NO/c1-9-7-2-6-5(7)3-8(6)4-7/h5-6H,2-4H2,1H3/t5-,6-,7+/m0/s1
