21
gdb 63550	3.18722	1.28355	1.06211	1.7191	83.57	-0.2413	0.0266	0.2679	1213.5095	0.181089	-387.099852	-387.090804	-387.089859	-387.13329	34.976	
C	-0.0628099402	 1.521485919	 0.0178838227	-0.4582
C	-0.0804027388	 0.0092594469	 0.1114420738	 0.321463
C	-1.2462794619	-0.6473660688	-0.5995304733	-0.458201
O	 1.1947626966	-0.6264080995	-0.100056738	-0.325088
C	 0.616306998	-0.6842871713	 1.2126290615	 0.360009
C	 1.3822433373	 0.0362507583	 2.3350415927	-0.342619
C	 1.5814829271	-1.0425994639	 3.3686641968	-0.068835
C	 0.9625919138	-2.1767852226	 3.0459222176	-0.068831
C	 0.2282421143	-2.0785600309	 1.733262797	-0.342624
H	 0.8232682633	 1.9424488584	 0.4955690706	 0.127617
H	-0.0628853067	 1.8332633631	-1.0324083867	 0.122557
H	-0.9528658274	 1.9509961105	 0.4912653467	 0.117227
H	-1.256332714	-0.354274952	-1.655145654	 0.122566
H	-1.18390283	-1.7356230924	-0.551291245	 0.127612
H	-2.1985297966	-0.3316483948	-0.1587372416	 0.117223
H	 2.3258867559	 0.4395677621	 1.9499487132	 0.122705
H	 0.8189754135	 0.8867315242	 2.7430738685	 0.108623
H	 2.1616075703	-0.880365617	 4.2701679155	 0.092736
H	 0.960664976	-3.0812111148	 3.6439045218	 0.092735
H	-0.856840118	-2.1843765906	 1.8691844486	 0.108622
H	 0.5317957574	-2.8482795139	 1.0143660415	 0.122703
74.2804	154.8739	173.886	198.3731	206.8584	298.6568	358.1741	386.5274	438.7958	440.5406	485.456	537.9918	676.1272	714.4352	774.6058	790.5949	870.7408	932.9839	936.9918	946.7164	960.5264	980.6095	985.3158	1001.3396	1040.2291	1119.5313	1133.0416	1145.1534	1149.8568	1178.2731	1215.2817	1248.6889	1287.527	1309.2134	1370.8736	1407.3448	1417.1719	1452.9518	1469.9048	1475.0564	1476.7673	1487.8011	1503.4455	1519.7547	1692.3356	3011.0933	3012.917	3032.3958	3037.8746	3057.4744	3057.7817	3090.5471	3096.0644	3136.6954	3137.9251	3183.8084	3208.7005
CC1(C)OC11CC=CC1	CC1(C)O[C@]21CC=CC2	
InChI=1S/C8H12O/c1-7(2)8(9-7)5-3-4-6-8/h3-4H,5-6H2,1-2H3	InChI=1S/C8H12O/c1-7(2)8(9-7)5-3-4-6-8/h3-4H,5-6H2,1-2H3
