16
gdb 5746	4.83445	1.84693	1.43748	3.9941	70.86	-0.2137	0.0427	0.2564	868.9411	0.132853	-342.794216	-342.787452	-342.786508	-342.825408	25.568	
C	-0.41964445	 1.5995280185	-0.2581229046	-0.397942
C	 0.0124232128	 0.1650746613	-0.0188328005	 0.052442
C	 0.8037336883	-0.5748262316	-1.1771492972	-0.39462
C	 1.9227188294	-0.6719444647	-0.1575977262	 0.380296
N	 3.0872138373	-1.1309050174	 0.2317272626	-0.37121
C	 3.1400375275	-0.71304444	 1.5550913273	-0.089221
C	 2.0028542876	-0.0293814702	 1.9465362595	-0.183712
N	 1.2439266322	-0.0068656407	 0.7986332916	 0.013524
H	 0.4087548625	 2.1952044581	-0.6527257338	 0.133971
H	-1.2430735909	 1.6264981258	-0.9789771248	 0.12962
H	-0.7683648448	 2.0648759799	 0.6690903273	 0.130004
H	-0.8138128006	-0.4355398476	 0.3746425588	 0.105626
H	 0.3624983861	-1.5218288817	-1.4972131977	 0.131038
H	 1.0000074744	 0.0468826671	-2.0547936358	 0.127246
H	 4.008444412	-0.9219031765	 2.162525218	 0.105199
H	 1.7181013961	 0.4311149196	 2.8768159653	 0.12774
64.5013	189.0893	235.6463	289.6928	419.1464	488.6858	621.0931	692.8967	697.608	715.1339	741.8726	834.9803	847.9282	914.7793	958.5485	1013.109	1061.6915	1074.634	1099.1242	1129.3192	1144.7744	1177.9603	1218.3647	1248.1622	1275.5667	1363.5762	1397.3795	1412.782	1421.7269	1472.7938	1487.2905	1489.1064	1497.2445	1580.857	3038.7992	3058.8385	3065.1156	3110.185	3115.2783	3120.4285	3243.5375	3286.5026
CC1CC2=NC=CN12	C[C@H]1Cc2nccn12	
InChI=1S/C6H8N2/c1-5-4-6-7-2-3-8(5)6/h2-3,5H,4H2,1H3	InChI=1S/C6H8N2/c1-5-4-6-7-2-3-8(5)6/h2-3,5H,4H2,1H3/t5-/m0/s1
