16
gdb 46955	2.79236	2.02889	1.51834	5.5115	67.61	-0.2627	0.0195	0.2823	879.3043	0.126809	-437.879087	-437.872539	-437.871595	-437.910163	25.892	
O	-0.071435807	 0.0972271277	 0.4996238817	-0.335724
C	-0.0596760497	 1.1985098452	 0.0307992538	 0.437855
O	-1.1943136476	 1.7285987935	-0.4937873426	-0.244566
C	-1.3710300996	 3.1499091896	-0.63193706	-0.071259
C	-0.2364655847	 3.9401270516	-0.0105959581	-0.077234
C	 0.1542571394	 3.6170100688	 1.4790968936	-0.270953
C	 1.4451166296	 2.9602188927	 0.961520393	-0.046377
C	 1.1161153306	 3.3658221571	-0.4452809129	-0.052615
N	 1.1288601182	 1.9652193647	-0.0624098442	-0.149882
H	-1.4504462609	 3.3747585973	-1.7026286557	 0.121144
H	-2.3342704625	 3.3808158651	-0.1639968851	 0.124452
H	-0.3723163196	 5.0067907813	-0.1964019	 0.094853
H	 0.3522842822	 4.5300462086	 2.0440528428	 0.116873
H	-0.5197375857	 2.9789146344	 2.0583019355	 0.128931
H	 2.3993278005	 2.8880679913	 1.467804474	 0.115058
H	 1.7533850766	 3.6811110809	-1.2629021057	 0.109444
101.1999	163.2596	317.2973	359.2205	501.9403	513.6071	546.5053	675.8495	717.7891	797.8801	832.345	842.3895	854.9402	895.7656	907.5997	969.9113	983.475	1013.7088	1054.7631	1070.5389	1090.0488	1107.8553	1128.827	1165.6583	1203.9708	1242.6178	1253.3051	1281.5748	1298.7173	1336.8004	1373.4261	1427.0621	1492.5532	1511.1838	1855.8291	3029.1985	3061.8599	3072.5574	3100.8557	3121.9627	3184.9055	3202.0297
O=C1OCC2CC3C2N13	O=C1OC[C@H]2C[C@@H]3[C@H]2N13	
InChI=1S/C6H7NO2/c8-6-7-4-1-3(2-9-6)5(4)7/h3-5H,1-2H2	InChI=1S/C6H7NO2/c8-6-7-4-1-3(2-9-6)5(4)7/h3-5H,1-2H2/t3-,4-,5+,7?/m1/s1
