25
gdb 113380	1.93983	1.11272	0.81076	1.4481	90.17	-0.247	0.0758	0.3228	1572.4296	0.226999	-389.482585	-389.471262	-389.470318	-389.519395	41.239	
C	 0.9222156099	 1.4840673515	 0.0218122989	-0.370879
C	 0.2370149916	 0.1139432426	-0.0606583911	-0.212205
C	 0.7800807993	-0.7246451736	-1.2006058472	-0.016855
C	 1.995896742	-1.6106115669	-1.0304384114	-0.330042
C	 0.6432397165	-2.2297901594	-1.3043643406	 0.31028
C	-0.041651018	-3.0263781144	-0.2008693709	-0.257226
C	 0.509018349	-4.4469424197	-0.0043892698	-0.380759
C	 0.3951781443	-2.8017718561	-2.6921981601	-0.144015
O	 1.0488595808	-2.0071618645	-3.672235428	-0.418879
H	 2.0001400461	 1.3734484992	 0.1797953303	 0.117498
H	 0.7817090509	 2.0511962288	-0.9048851195	 0.113456
H	 0.518718172	 2.0826983225	 0.8448059613	 0.105011
H	 0.3663938974	-0.40520901	 0.8954514684	 0.09245
H	-0.844868094	 0.25640377	-0.1872147672	 0.091882
H	 0.735125062	-0.2229111048	-2.1634176382	 0.097158
H	 2.7353209848	-1.6213078195	-1.8226655124	 0.117534
H	 2.4007030663	-1.7236329152	-0.0280727572	 0.095499
H	 0.0530266588	-2.4864472674	 0.7455745961	 0.098456
H	-1.1198149931	-3.0805035688	-0.408450313	 0.090761
H	 0.0241927481	-4.9352328135	 0.8469362766	 0.10902
H	 0.3424391509	-5.0808500902	-0.8807869692	 0.114629
H	 1.5866645427	-4.4250173586	 0.1888811612	 0.119292
H	 0.7636912919	-3.8384500349	-2.735377671	 0.086666
H	-0.692692286	-2.8339142124	-2.8766982908	 0.082063
H	 0.9156143159	-2.4211275847	-4.5288517552	 0.289205
50.5431	76.0042	110.7187	137.2844	170.9902	204.7998	221.9558	233.0897	258.3076	301.2669	312.9181	360.1827	440.4637	520.1304	563.9126	682.2846	763.0054	784.6854	809.3694	888.3016	906.3521	947.725	967.0627	999.7041	1024.7247	1051.0277	1068.7485	1073.8224	1092.6196	1116.2447	1130.1945	1143.9319	1198.0036	1219.5915	1249.3467	1277.7922	1301.1382	1309.5586	1332.5726	1356.4654	1376.5509	1406.3382	1409.6744	1432.3371	1459.8348	1479.5143	1485.3237	1496.3959	1497.7399	1501.49	1507.344	1509.6849	1521.0752	2948.3441	2987.2196	3009.2389	3014.6086	3030.3345	3035.7303	3054.2129	3078.491	3098.9317	3102.4254	3102.7474	3108.2515	3120.5825	3149.2001	3215.4354	3845.3253
CCC1CC1(CC)CO	CC[C@H]1C[C@]1(CC)CO	
InChI=1S/C8H16O/c1-3-7-5-8(7,4-2)6-9/h7,9H,3-6H2,1-2H3	InChI=1S/C8H16O/c1-3-7-5-8(7,4-2)6-9/h7,9H,3-6H2,1-2H3/t7-,8+/m0/s1
