15
gdb 12174	3.23695	1.64717	1.23869	3.8327	63.09	-0.2548	-0.0404	0.2144	966.8812	0.117403	-399.830907	-399.822839	-399.821895	-399.863839	28.288	
C	-0.0975487607	 1.5735515373	 0.0320384043	-0.411755
C	 0.0021561435	 0.0564539301	-0.0079598707	-0.166329
C	 0.7734858102	-0.6157858199	-1.2066995305	-0.063918
N	 1.7523772186	-1.0940880629	-0.239271511	-0.320828
C	 1.0972955151	-0.6064821088	 0.8721007579	 0.438229
O	 1.3147756604	-0.6790685035	 2.0489212393	-0.349175
C	 0.0048647674	-1.6837281481	-1.9443484091	 0.149578
O	 0.1811019607	-2.8656018385	-1.798462902	-0.243365
H	 0.8707108922	 2.0386736894	-0.1784252775	 0.130441
H	-0.8236519309	 1.9472330994	-0.6965238651	 0.124358
H	-0.4176177082	 1.8977448549	 1.0265839715	 0.146841
H	-0.9711863087	-0.4105288732	 0.1732547444	 0.116215
H	 1.1653576337	 0.1123210576	-1.9303482684	 0.103821
H	 2.3959167467	-1.8681071108	-0.322534818	 0.262207
H	-0.7587286199	-1.288362873	-2.652422345	 0.083681
73.4651	95.8656	190.7352	220.0018	240.6649	260.192	343.6994	425.0992	510.5182	679.9207	697.2037	768.034	808.1782	831.2432	942.5454	979.6739	1066.8901	1089.6673	1102.0756	1123.8467	1171.2639	1205.8241	1252.2249	1334.7789	1351.1323	1381.7028	1411.0798	1416.8026	1494.3769	1496.0727	1830.918	1902.7083	2876.9144	3015.9763	3038.859	3067.0455	3109.7142	3116.8729	3610.3018
CC1C(NC1=O)C=O	C[C@H]1[C@@H](NC1=O)C=O	
InChI=1S/C5H7NO2/c1-3-4(2-7)6-5(3)8/h2-4H,1H3,(H,6,8)	InChI=1S/C5H7NO2/c1-3-4(2-7)6-5(3)8/h2-4H,1H3,(H,6,8)/t3-,4-/m0/s1
