21
gdb 114960	5.24744	0.76859	0.6919	1.0951	82.05	-0.2265	0.0328	0.2594	1644.6271	0.181427	-424.222795	-424.212948	-424.212004	-424.258206	35.417	
C	 0.109743556	 1.2926656664	 0.1584977243	-0.235582
O	-0.1913923621	-0.0486694533	-0.1453973823	-0.242865
C	 0.5796800144	-0.5793109786	-1.2033641907	 0.148835
C	 2.0759345022	-0.8412959452	-0.8656250144	-0.288085
C	 2.3578870038	-2.1434669701	-1.5724952917	-0.155617
C	 1.2416521565	-2.7493896152	-1.9794456953	 0.308136
C	 1.1331182753	-4.0658077198	-2.6755202623	-0.176699
O	 2.421818024	-4.6197633149	-2.8683046763	-0.41428
C	 0.0098778695	-1.9540178922	-1.6121357286	-0.346081
H	 1.1402769499	 1.4178858362	 0.5231370309	 0.106699
H	-0.0253635569	 1.9481151726	-0.7171178867	 0.101088
H	-0.579158962	 1.6104397643	 0.9452853355	 0.124181
H	 0.529794707	 0.1055254169	-2.0659372799	 0.065257
H	 2.7345331504	-0.0262072418	-1.1863361597	 0.097985
H	 2.1984697523	-0.9400501645	 0.2228304541	 0.110648
H	 3.3533018989	-2.5494300721	-1.7004225809	 0.104922
H	 0.4909147293	-4.7380870901	-2.0776467601	 0.094484
H	 0.6084741482	-3.9233091583	-3.6378770048	 0.092672
H	 2.3204582141	-5.4604843981	-3.322747358	 0.289017
H	-0.5159566483	-2.3975543545	-0.7552655115	 0.117196
H	-0.7212487826	-1.8775151276	-2.4253972515	 0.098089
44.1283	96.5627	106.6663	167.6378	209.9093	218.6491	243.9848	277.244	333.6162	438.4827	454.5961	511.765	601.0257	670.006	832.2587	851.4517	888.6455	922.6875	990.8641	1007.7646	1019.3459	1059.7062	1074.6123	1092.7308	1145.0624	1158.3798	1179.9678	1182.2164	1195.6652	1215.9325	1245.6775	1255.9091	1286.8897	1294.8354	1327.2727	1359.119	1392.1632	1468.1316	1479.5988	1482.3329	1487.0387	1495.2587	1506.8713	1510.3871	1727.8097	2933.6352	2944.2344	2958.5832	2971.913	3003.9688	3016.1701	3019.8657	3053.5046	3056.6088	3110.0206	3217.4217	3840.6155
COC1CC=C(CO)C1	CO[C@H]1CC=C(CO)C1	
InChI=1S/C7H12O2/c1-9-7-3-2-6(4-7)5-8/h2,7-8H,3-5H2,1H3	InChI=1S/C7H12O2/c1-9-7-3-2-6(4-7)5-8/h2,7-8H,3-5H2,1H3/t7-/m0/s1
