23
gdb 113076	3.74134	0.89537	0.80215	1.8192	82.76	-0.2478	0.0699	0.3177	1540.9412	0.204259	-425.40955	-425.399201	-425.398257	-425.445244	37.908	
C	-0.1172804967	 1.4337450778	 0.1701013529	-0.3818
C	-0.0766580218	-0.0930446845	 0.0510315455	-0.182923
C	 0.6452956316	-0.5753180294	-1.1991836508	 0.016248
C	 2.1751669678	-0.3099966738	-1.3427690462	-0.287608
C	 2.3312312573	-1.7222856749	-1.9368736734	 0.103323
O	 3.4223556823	-2.4486050398	-1.420083755	-0.251439
C	 3.6329783627	-3.6905254271	-2.0727939709	-0.252084
C	 0.9304560237	-2.1044629453	-1.3491625497	 0.07807
O	 1.0656576539	-2.7925493548	-0.1244179134	-0.442918
H	 0.8921434913	 1.8585704361	 0.2039566066	 0.115674
H	-0.6362926361	 1.8869425445	-0.6823416014	 0.109425
H	-0.6379820548	 1.7467188331	 1.0805707966	 0.11103
H	 0.4120617751	-0.5299136735	 0.9283640325	 0.104046
H	-1.1001573143	-0.4900598766	 0.0479138447	 0.094241
H	 0.1204904945	-0.2224846673	-2.095756254	 0.062702
H	 2.5072725063	 0.5320710105	-1.9529356522	 0.100151
H	 2.6680771438	-0.2566764539	-0.3672893242	 0.110227
H	 2.3430815927	-1.7292552069	-3.0349634833	 0.069609
H	 3.8321072431	-3.5448299498	-3.1441647129	 0.114693
H	 4.5061809563	-4.1543044026	-1.6083435964	 0.131486
H	 2.7697768051	-4.3605786036	-1.962308789	 0.124846
H	 0.2406947706	-2.6633132056	-1.9915785549	 0.063567
H	 2.0166648257	-2.8783961428	 0.0329743191	 0.289436
55.4726	84.4506	102.8077	156.5311	185.7999	215.4869	261.4108	286.4502	292.5406	397.0824	414.2828	452.3752	516.964	629.2606	701.3583	756.0279	786.0489	855.7769	915.7394	947.7782	953.9028	980.1815	1028.1737	1051.1308	1110.0219	1121.199	1145.574	1158.3871	1173.8598	1184.3072	1211.722	1242.5299	1249.9728	1256.5777	1284.0781	1287.7459	1331.214	1358.2352	1368.2967	1396.1528	1409.8163	1421.0445	1478.0384	1483.7839	1489.1917	1491.0015	1498.854	1507.5628	1507.942	2993.5567	3012.2791	3022.4328	3025.9233	3027.3922	3040.9712	3051.7341	3060.3966	3069.7274	3095.942	3099.5277	3119.0889	3121.4307	3724.8869
CCC1CC(OC)C1O	CC[C@H]1C[C@@H](OC)[C@H]1O	
InChI=1S/C7H14O2/c1-3-5-4-6(9-2)7(5)8/h5-8H,3-4H2,1-2H3	InChI=1S/C7H14O2/c1-3-5-4-6(9-2)7(5)8/h5-8H,3-4H2,1-2H3/t5-,6+,7-/m0/s1
