16
gdb 43815	2.07487	1.71924	1.05312	3.7643	76.64	-0.2453	0.0228	0.2681	1125.7836	0.122488	-400.714561	-400.706045	-400.705101	-400.747876	32.091	
O	-0.1132954191	 0.0290440533	 0.0718185945	-0.354309
C	-0.0688866973	 1.2249120752	 0.0375206705	 0.453142
N	-1.0222649807	 2.20513486	-0.059933258	-0.394733
C	-0.1065836501	 3.3263046458	 0.0183544985	 0.433971
C	-0.2052431193	 4.6237066619	-0.7127352825	-0.333535
C	-0.2863255319	 4.5750959052	 0.8099461038	-0.324547
C	 1.0701895872	 2.3170079831	 0.0637013969	-0.470852
C	 1.9425062784	 2.3441955541	 1.212828669	 0.356755
C	 2.6604320459	 2.3797654653	 2.176418674	-0.461538
H	-2.0293486953	 2.1512152263	-0.0973702808	 0.255914
H	 0.6915386621	 5.0281278349	-1.1706889754	 0.127911
H	-1.1188888097	 4.8343096607	-1.2595809233	 0.12
H	-1.2527501409	 4.7563193126	 1.2689566167	 0.119489
H	 0.5608625074	 4.929975401	 1.3874136213	 0.136077
H	 1.6382610506	 2.2962992957	-0.87179938	 0.13363
H	 3.2970227628	 2.393782755	 3.0262598848	 0.202625
70.834	114.47	138.4504	250.8825	283.603	337.802	389.9933	423.1393	513.1184	518.981	573.4517	618.1217	645.1979	697.3824	764.4717	797.589	863.9904	889.1104	919.2175	969.9227	1003.7862	1054.5635	1076.6537	1077.4768	1126.9812	1157.8792	1183.3729	1260.625	1306.2461	1318.2731	1428.2611	1458.8782	1512.7411	1911.2048	2238.7121	3065.591	3126.9706	3130.79	3207.6938	3222.2812	3503.2936	3614.2232
O=C1NC2(CC2)C1C#C	O=C1NC2(CC2)[C@H]1C#C	
InChI=1S/C7H7NO/c1-2-5-6(9)8-7(5)3-4-7/h1,5H,3-4H2,(H,8,9)	InChI=1S/C7H7NO/c1-2-5-6(9)8-7(5)3-4-7/h1,5H,3-4H2,(H,8,9)/t5-/m0/s1
