19
gdb 119619	4.17467	1.00034	0.92589	1.4873	71.8	-0.2273	0.0789	0.3063	1322.4349	0.15835	-460.120714	-460.111957	-460.111013	-460.154662	31.95	
C	-0.3713439336	 1.3424368065	 0.8295049384	-0.222561
O	-0.1771352942	-0.0355791699	 1.045898557	-0.239739
C	 0.8429026508	-0.5805000117	 0.2397117884	-0.154466
C	 0.930409435	-2.053399318	 0.5301402041	 0.382161
C	-0.2716000744	-2.9293281706	 0.8226674874	-0.393952
C	 0.8137189149	-2.7076058623	 1.8648825919	 0.046372
O	 1.8616838626	-3.6438562195	 1.9529494701	-0.256432
C	 2.3486126302	-3.8211234404	 0.6373406904	 0.006736
O	 2.0343250013	-2.6558418746	-0.1078967279	-0.305496
H	-0.6568780986	 1.5541653798	-0.212602972	 0.108623
H	-1.1786519854	 1.6652309755	 1.4909059027	 0.129983
H	 0.5346872424	 1.9229120385	 1.0625658202	 0.108997
H	 0.6269209627	-0.41447174	-0.8295069135	 0.097951
H	 1.8168457939	-0.1109669852	 0.4557087781	 0.100311
H	-1.2013531121	-2.4008514513	 0.9992491012	 0.134674
H	-0.3682318715	-3.893997874	 0.3370607918	 0.118982
H	 0.6206018518	-2.1982859225	 2.7991848353	 0.121606
H	 3.435100083	-3.9530034541	 0.6646824491	 0.121127
H	 1.8780563213	-4.7022643163	 0.1714803372	 0.095125
73.1936	88.2368	143.3815	198.4659	232.1042	245.134	329.3415	384.5561	420.9305	480.4712	682.387	734.6455	740.5068	836.4633	867.6054	938.15	964.3101	996.753	1012.3531	1019.6391	1069.3107	1084.6233	1110.83	1149.7038	1156.5225	1165.8764	1187.7028	1213.3383	1220.5604	1241.0226	1252.2974	1290.7242	1394.3685	1422.6533	1442.0554	1476.8476	1484.144	1486.6967	1504.9696	1528.9134	1549.7998	2955.9255	2964.03	2977.371	2988.3557	3022.5295	3071.7164	3118.4055	3140.7114	3211.9121	3235.2096
COCC12CC1OCO2	COC[C@]12C[C@H]1OCO2	
InChI=1S/C6H10O3/c1-7-3-6-2-5(6)8-4-9-6/h5H,2-4H2,1H3	InChI=1S/C6H10O3/c1-7-3-6-2-5(6)8-4-9-6/h5H,2-4H2,1H3/t5-,6-/m1/s1
