18
gdb 63320	2.63922	1.58809	1.32869	5.127	71.34	-0.2727	0.0175	0.2903	1033.3734	0.147101	-439.115389	-439.107166	-439.106222	-439.147879	31.662	
C	-0.0872813214	 1.5971427712	-0.0073963959	-0.420694
C	 0.0270424034	 0.0768044165	 0.0490726661	 0.337086
C	-1.3361423417	-0.6026540503	-0.095566136	-0.422186
O	 0.8658202067	-0.3610203434	-1.049572471	-0.259548
C	 1.8154339242	-1.2516292126	-0.6395606359	 0.431618
O	 2.5567512161	-1.8051993615	-1.3896021018	-0.340721
N	 1.7843894363	-1.4175908815	 0.7873360398	-0.172631
C	 2.1984701968	-0.14986251	 1.4538058693	-0.275233
C	 0.7682936599	-0.4690454768	 1.2701967845	-0.05154
H	 0.8962352394	 2.0697357047	 0.043713902	 0.126289
H	-0.5710735163	 1.9086964589	-0.9371061217	 0.136115
H	-0.6893514794	 1.959915611	 0.8312243958	 0.125256
H	-1.7886634805	-0.3384953831	-1.0547253349	 0.135921
H	-1.2332590832	-1.690572136	-0.0491814418	 0.13638
H	-2.0095108316	-0.2833929984	 0.7061876779	 0.121972
H	 2.6642883436	-0.2934339312	 2.4227892064	 0.139116
H	 2.6537706984	 0.6151129459	 0.8314674889	 0.142544
H	 0.1704402294	-0.7970414135	 2.1147418384	 0.110259
96.3014	188.3915	197.2531	242.7612	262.4607	331.0588	344.339	380.9197	505.8058	520.717	601.4326	680.4133	762.869	781.1034	816.5137	867.9385	935.1981	940.8382	944.4752	1000.4577	1003.8309	1029.7326	1081.7373	1102.38	1127.0587	1168.7941	1204.913	1224.3008	1274.1494	1286.8038	1387.9246	1402.3328	1421.8652	1474.4038	1481.9035	1495.639	1503.0274	1509.0009	1902.395	3041.6625	3048.5817	3115.2192	3120.6819	3123.2941	3127.9591	3130.6453	3162.2591	3216.1152
CC1(C)OC(=O)N2CC12	CC1(C)OC(=O)N2C[C@@H]12	
InChI=1S/C6H9NO2/c1-6(2)4-3-7(4)5(8)9-6/h4H,3H2,1-2H3	InChI=1S/C6H9NO2/c1-6(2)4-3-7(4)5(8)9-6/h4H,3H2,1-2H3/t4-,7?/m0/s1
