20
gdb 79800	2.69809	1.69614	1.37436	0.9884	85.53	-0.2059	-0.0387	0.1672	1042.1562	0.170175	-365.89897	-365.89081	-365.889866	-365.931008	32.62	
C	 0.3578264766	 1.6189293111	 0.1877734773	-0.413762
C	 0.0273745696	 0.1407466917	 0.1085243789	-0.01699
C	 0.6023588836	-0.796399146	-1.0443658087	-0.118806
N	 1.8969752889	-1.6084212602	-0.8713416317	-0.160663
C	 2.8948461189	-1.2441557311	 0.1737598714	-0.18373
C	 2.0498503335	-0.6183098955	 1.2800571016	-0.122651
C	 0.7610324829	-0.8848858213	 0.9935134137	-0.033155
C	 0.697190441	-1.9532136103	-0.1329264665	 0.314765
C	 0.0531070983	-3.303687848	-0.1153616124	-0.519243
H	 1.4368679382	 1.7936263102	 0.1450921001	 0.116314
H	-0.1099595624	 2.1558204768	-0.6445919583	 0.117819
H	-0.0198555178	 2.0583078064	 1.1173313242	 0.123746
H	-1.0611420914	 0.0006910915	 0.0661383799	 0.08537
H	 0.2449956887	-0.7782052401	-2.0702179837	 0.100606
H	 3.4636112211	-2.1547560556	 0.4042956847	 0.115228
H	 3.609534004	-0.4936521636	-0.1853025325	 0.115621
H	 2.3780879551	 0.296541091	 1.7643969439	 0.100175
H	-0.9936969715	-3.2354373024	 0.1994466003	 0.122608
H	 0.0888089438	-3.7516694853	-1.1123281757	 0.131501
H	 0.5649318389	-3.9777693492	 0.5806092235	 0.125246
149.7057	194.2441	212.2751	219.4093	242.2696	299.0789	373.5471	482.7506	545.5763	560.8373	605.1556	673.5056	734.9117	779.6677	807.0261	853.6505	874.2298	887.0366	932.6586	947.58	970.9683	1014.3611	1032.1928	1058.5029	1072.5319	1123.0904	1140.8884	1167.9922	1189.8854	1212.9652	1230.9417	1277.3347	1304.0184	1368.9011	1399.627	1408.7115	1440.6894	1474.6429	1484.4785	1488.7871	1494.0945	1495.8864	1585.4188	3011.5132	3014.6671	3031.2505	3032.8528	3058.8685	3091.6737	3096.4352	3110.186	3115.1943	3154.499	3169.097
CC1C2N3CC=C1C23C	C[C@H]1[C@H]2N3C[CH][C]1[C@@]23C	
InChI=1S/C8H11N/c1-5-6-3-4-9-7(5)8(6,9)2/h3,5,7H,4H2,1-2H3	InChI=1S/C8H11N/c1-5-6-3-4-9-7(5)8(6,9)2/h3,5,7H,4H2,1-2H3/t5-,7-,8+,9?/m1/s1
