21
gdb 88670	4.13126	0.80861	0.74135	2.8001	79.54	-0.2488	0.0771	0.3259	1558.131	0.181717	-424.191062	-424.181727	-424.180783	-424.225711	35.535	
O	-0.021736062	 1.4787146474	 0.2569512356	-0.417708
C	 0.0026476477	 0.0902734264	 0.0828718253	 0.097174
C	-0.5440592202	-0.8038667622	 1.1671894582	-0.342872
C	-1.322172095	-0.5897411119	-0.1207782794	-0.030469
C	-2.6038738311	 0.1969818952	-0.1180184281	 0.046783
C	-3.1989732197	 0.6617142834	-1.4796113669	-0.28668
C	-4.6076003004	 0.3690943154	-0.900902729	 0.17097
O	-5.629319572	-0.1254951888	-1.7292404958	-0.434129
C	-3.9425465084	-0.5488109038	 0.1586413412	-0.290455
H	 0.6352101804	 1.7050464505	 0.9231879079	 0.288066
H	 0.8496392355	-0.2775630794	-0.4965386489	 0.083938
H	-0.07201744	-1.7632122343	 1.3498650075	 0.108937
H	-0.9273314351	-0.3086673941	 2.0539829075	 0.112762
H	-1.3122180917	-1.422353154	-0.8212399056	 0.076164
H	-2.5011865641	 1.0554669473	 0.5498546653	 0.081808
H	-2.972978163	 1.6695940854	-1.8338323835	 0.106175
H	-2.9564569322	-0.054499055	-2.2752227283	 0.08307
H	-5.0249679256	 1.2639106743	-0.4288254473	 0.091682
H	-5.2936548698	-0.9105642913	-2.1747163422	 0.273324
H	-3.8953294536	-1.5822550352	-0.2071377154	 0.084115
H	-4.3449247196	-0.5551628454	 1.1744768218	 0.097345
49.6952	78.9403	137.303	199.8667	276.4909	294.3759	336.1055	358.1252	412.4043	427.7252	457.4534	554.4524	632.2146	750.3456	795.7537	810.8542	843.801	907.2306	919.9652	961.4941	996.4884	1012.2193	1029.8454	1047.6371	1066.58	1075.8745	1102.1009	1134.0818	1155.7709	1174.3076	1208.726	1221.7822	1242.1976	1252.4556	1261.7248	1291.2892	1298.9198	1317.7031	1334.0062	1410.3312	1428.6343	1444.7918	1469.3868	1488.1323	1498.4244	3026.5477	3032.6529	3065.9764	3079.9036	3094.3027	3102.9163	3112.3428	3125.4195	3128.5352	3215.0784	3804.2113	3808.7872
OC1CC1C1CC(O)C1	O[C@H]1C[C@H]1[C@H]1C[C@@H](O)C1	
InChI=1S/C7H12O2/c8-5-1-4(2-5)6-3-7(6)9/h4-9H,1-3H2	InChI=1S/C7H12O2/c8-5-1-4(2-5)6-3-7(6)9/h4-9H,1-3H2/t4-,5+,6-,7-/m0/s1
