17
gdb 29956	3.37856	1.22736	0.90731	6.124	81.46	-0.1998	-0.0156	0.1842	1239.3384	0.136503	-418.056838	-418.047953	-418.047009	-418.090376	32.373	
C	-0.0564623126	 1.4655310987	 0.0224839688	-0.35185
N	-0.0026239208	 0.0190857468	-0.0041689291	-0.030284
C	 0.032722691	-0.7733182313	-1.1512846797	-0.095236
C	 0.0352988612	-2.0801965384	-0.7744280708	-0.265354
C	 0.0228121791	-2.1176009308	 0.6607941563	 0.136916
C	 0.0635697919	-3.2905819127	 1.4997473819	 0.066432
O	 0.0837149389	-4.4426453805	 1.1113271985	-0.307845
C	 0.0003754795	-0.7885160461	 1.0940265247	 0.231965
N	-0.1012457894	-0.2337683688	 2.369864533	-0.608385
H	 0.9383355567	 1.9130945686	 0.1398661803	 0.135431
H	-0.4880830627	 1.8255771529	-0.9131716468	 0.148048
H	-0.689493569	 1.7906415755	 0.8520945344	 0.157421
H	 0.0510702186	-0.3067125466	-2.1229913555	 0.122559
H	 0.052567173	-2.9455733358	-1.4168308959	 0.124089
H	 0.0855337999	-3.0762808826	 2.5982251116	 0.020443
H	-0.1544839074	-0.9430757779	 3.0884073059	 0.261642
H	 0.6400109322	 0.4199426892	 2.5965605521	 0.254008
104.0717	110.8842	173.9482	196.3344	221.6009	252.0044	298.7843	323.8942	390.4373	521.7725	618.2319	658.0165	663.6139	715.8716	735.7827	769.186	816.7873	841.3793	986.3906	1023.6893	1047.067	1101.1078	1151.1311	1191.3435	1215.5923	1275.6811	1362.2518	1410.6027	1443.8277	1449.339	1489.2375	1510.9052	1534.6837	1559.7317	1584.2549	1657.491	1771.3891	2794.1618	3024.3891	3098.6957	3140.0648	3257.8637	3278.9935	3520.5565	3624.9238
CN1C=CC(C=O)=C1N	Cn1ccc(C=O)c1N	
InChI=1S/C6H8N2O/c1-8-3-2-5(4-9)6(8)7/h2-4H,7H2,1H3	InChI=1S/C6H8N2O/c1-8-3-2-5(4-9)6(8)7/h2-4H,7H2,1H3
