13
gdb 5371	5.48666	1.65325	1.28043	3.3437	65.77	-0.2488	-0.0442	0.2045	893.8139	0.096568	-394.797835	-394.790996	-394.790052	-394.829466	24.161	
C	-0.1282257596	 1.4326694513	-0.0104736573	-0.330321
N	-0.0892212214	-0.0120391131	-0.0737408292	-0.272104
C	 0.6119101967	-0.5940863357	-0.9542217782	 0.389393
N	 1.3979194615	 0.0844287291	-1.9279696094	-0.288307
C	 2.0529048257	-0.6125904716	-2.7526266756	 0.130497
O	 2.0871498475	-1.9779578984	-2.80972258	-0.186549
C	 1.3135837986	-2.5893103233	-1.850654588	 0.121873
N	 0.6155265236	-2.010524536	-0.973471018	-0.26084
H	 0.4810494251	 1.9420955769	-0.7643489847	 0.12832
H	-1.170836595	 1.757792375	-0.1100289665	 0.128737
H	 0.197621097	 1.7466109124	 0.9884762338	 0.12873
H	 2.6782992775	-0.1790633849	-3.5284762623	 0.154515
H	 1.3765172529	-3.6694594617	-1.9403986645	 0.156055
65.055	117.612	242.4966	260.4671	422.288	470.3533	494.4859	588.7964	679.6429	788.1783	798.7567	919.2856	955.5479	966.3072	1002.5446	1055.7678	1093.3868	1130.1028	1156.1899	1252.1893	1396.7688	1413.0932	1430.7354	1486.9787	1493.5328	1650.8242	1733.9294	1765.0707	3016.3385	3070.5559	3094.7613	3181.0171	3195.2208
CN=C1N=COC=N1	CN=c1ncocn1	
InChI=1S/C4H5N3O/c1-5-4-6-2-8-3-7-4/h2-3H,1H3	InChI=1S/C4H5N3O/c1-5-4-6-2-8-3-7-4/h2-3H,1H3
