24
gdb 58272	2.9188	0.83421	0.75189	3.3421	86.17	-0.2432	0.0354	0.2785	1647.9067	0.214809	-405.599876	-405.588145	-405.587201	-405.63824	41.992	
C	 0.108467565	 1.525707893	-0.169555059	-0.398904
C	 0.0137633623	 0.0060851681	 0.0452716812	 0.035324
C	 0.6355286992	-0.3447296479	 1.4074652482	-0.396121
C	-1.4403852247	-0.5161597962	-0.0924828991	 0.071146
C	-2.1305582402	-0.0335541124	-1.3785559298	-0.415564
C	-1.5069180805	-2.0520933828	-0.0250961647	-0.326575
C	-2.9263706702	-2.5776614181	 0.1897384811	 0.408228
N	-3.1575203629	-3.8270725041	-0.3140997246	-0.522744
O	-3.7865612288	-1.9509800992	 0.7787766275	-0.36282
H	 1.134132243	 1.8720376778	-0.0055505096	 0.106604
H	-0.1801167293	 1.8233123316	-1.1803263501	 0.114902
H	-0.5374247712	 2.062145315	 0.5362656311	 0.113797
H	 0.617724523	-0.4778977245	-0.7381052291	 0.062365
H	 0.0469391603	 0.0866143777	 2.2259581132	 0.117509
H	 0.7064481366	-1.4218598247	 1.5814296981	 0.108688
H	 1.6501201701	 0.0600862102	 1.4818949627	 0.109336
H	-2.0207004078	-0.1406177467	 0.7598605067	 0.096901
H	-3.1298341624	-0.4692898559	-1.461098368	 0.129068
H	-2.2496608896	 1.0520054277	-1.3966024312	 0.117035
H	-1.5568250449	-0.3232738939	-2.2682932878	 0.101349
H	-1.0720028816	-2.4938758037	-0.9313829595	 0.092806
H	-0.9165288398	-2.4313876862	 0.8166687332	 0.123856
H	-2.4296598487	-4.3788813298	-0.7322259274	 0.255674
H	-4.038970217	-4.2670403649	-0.1055085233	 0.258139
25.1956	41.9941	63.4245	152.4019	153.7715	195.8922	215.905	236.762	273.352	343.2798	362.6072	368.0744	413.5319	454.3764	508.0758	521.0961	612.8638	664.7391	800.6162	855.624	880.0664	910.0713	925.9871	959.7268	967.8885	991.819	1072.8565	1077.4607	1119.3103	1160.1369	1178.7695	1191.6368	1235.8901	1271.4889	1312.3652	1342.2799	1355.9603	1376.5144	1398.5115	1403.8285	1412.4848	1424.0705	1459.3344	1486.4935	1493.1881	1496.2343	1505.3358	1509.9686	1523.436	1615.3193	1793.0619	2980.9168	3020.464	3024.7221	3027.3998	3032.7185	3040.1054	3071.2643	3089.3709	3096.5715	3102.8861	3107.9531	3114.5095	3126.2115	3601.22	3738.9955
CC(C)C(C)CC(N)=O	CC(C)[C@@H](C)CC(=O)N	
InChI=1S/C7H15NO/c1-5(2)6(3)4-7(8)9/h5-6H,4H2,1-3H3,(H2,8,9)	InChI=1S/C7H15NO/c1-5(2)6(3)4-7(8)9/h5-6H,4H2,1-3H3,(H2,8,9)/t6-/m0/s1
