18
gdb 114717	2.68093	1.43932	1.11687	3.9058	72.39	-0.2412	0.0078	0.2491	1133.324	0.148279	-439.106083	-439.097776	-439.096831	-439.139648	30.6	
C	-0.1208983944	 1.5918340697	-0.1413744177	-0.378867
C	 0.119896558	 0.0827465213	-0.0383990701	-0.156561
N	 0.7429095611	-0.4891320904	-1.2178628974	-0.095505
C	 0.0295726664	-0.6960555474	-2.4705421349	-0.202251
C	 1.1124792023	-1.1769397827	-3.4217267499	 0.036779
O	 2.1596117671	-0.2265428156	-3.5948489018	-0.245344
C	 2.3594786246	-1.3053604494	-2.661076993	-0.101329
C	 2.0591315179	-0.8819354503	-1.236817534	 0.438692
O	 2.8211497935	-0.8921281	-0.2924269772	-0.398093
H	 0.8225106768	 2.1221261774	-0.2978029786	 0.139185
H	-0.7947445929	 1.8412211585	-0.9672796547	 0.117458
H	-0.5760844902	 1.9627753149	 0.7821207797	 0.121502
H	 0.7957147656	-0.1379115333	 0.7919344246	 0.146898
H	-0.826504078	-0.4407670238	 0.151501163	 0.102211
H	-0.7589947736	-1.4538723621	-2.3579307549	 0.113297
H	-0.4364869125	 0.2282396966	-2.8333853113	 0.127334
H	 0.8628636649	-1.7863283641	-4.2843370529	 0.112893
H	 3.1712485434	-1.9922128792	-2.8708699089	 0.121698
55.5457	90.3619	169.7801	213.2787	270.4296	322.0199	383.9557	401.2453	483.0951	634.8187	656.4219	772.6339	788.2536	802.6201	845.4663	874.5828	933.2631	950.2911	983.7535	1055.7199	1073.6164	1091.2095	1115.6931	1159.3058	1219.7745	1245.1548	1259.4584	1277.766	1317.405	1349.9204	1393.3261	1411.1315	1416.8479	1450.9966	1483.5875	1493.3224	1501.4084	1514.6927	1810.1016	3003.6268	3019.3315	3040.4449	3049.4435	3097.2165	3114.6779	3124.6044	3170.3905	3194.8485
CCN1CC2OC2C1=O	CCN1C[C@H]2O[C@H]2C1=O	
InChI=1S/C6H9NO2/c1-2-7-3-4-5(9-4)6(7)8/h4-5H,2-3H2,1H3	InChI=1S/C6H9NO2/c1-2-7-3-4-5(9-4)6(7)8/h4-5H,2-3H2,1H3/t4-,5-/m1/s1
