18
gdb 41924	2.36797	2.22025	1.83608	1.3033	69.82	-0.2213	0.0789	0.3001	856.9324	0.151547	-439.060025	-439.053349	-439.052405	-439.091102	26.766	
C	 0.0735789856	 1.4913568344	 0.2952242286	-0.099588
O	 1.1491374816	 2.1767612784	-0.335435003	-0.270848
C	 2.1887372885	 1.3894293168	-0.877006125	 0.183157
C	 2.341576565	 0.0482548856	-0.1613545452	-0.193869
N	 1.1278320644	-0.7742022188	-0.2752600883	-0.127948
C	-0.086260788	 0.0434806168	-0.1151277805	-0.043376
C	 0.3027816469	-0.457764367	-1.4609682657	-0.057203
C	 0.8173929552	 0.4457734282	-2.5727265263	-0.099561
O	 2.0024380841	 1.1645026479	-2.2562676891	-0.253831
H	 0.2067824742	 1.530864706	 1.388115966	 0.105939
H	-0.8406340096	 2.0514451481	 0.063367646	 0.116624
H	 3.0980773617	 1.9937284139	-0.8141760019	 0.095353
H	 3.1822587725	-0.4929287171	-0.6050058983	 0.119263
H	 2.556551464	 0.2000538541	 0.902344622	 0.112434
H	-0.9011582233	-0.4587637095	 0.4055045793	 0.092376
H	-0.2466617016	-1.3189480718	-1.8368255902	 0.096928
H	 1.05906575	-0.166804348	-3.4478657103	 0.116299
H	 0.0237476388	 1.146604912	-2.8732150881	 0.107852
106.1486	154.5997	334.7726	405.7589	437.8213	447.5461	564.8142	596.6853	713.4652	732.3945	803.3087	815.4054	859.1592	882.4091	913.3944	969.5825	1014.2467	1026.7568	1053.5153	1095.4456	1104.3376	1122.9968	1131.227	1150.6114	1190.6419	1261.9004	1268.2514	1272.9361	1299.6999	1344.8124	1368.6795	1376.8693	1387.9453	1409.0904	1421.8698	1459.594	1487.697	1513.7815	1518.7291	2976.9724	2986.6792	3041.2091	3042.4531	3059.1085	3077.1393	3092.8127	3105.7295	3120.5532
C1OC2CN3C1C3CO2	C1O[C@H]2CN3[C@@H]1[C@H]3CO2	
InChI=1S/C6H9NO2/c1-6-8-2-4-5(3-9-6)7(1)4/h4-6H,1-3H2	InChI=1S/C6H9NO2/c1-6-8-2-4-5(3-9-6)7(1)4/h4-6H,1-3H2/t4-,5+,6+,7?
