16
gdb 29635	2.45931	1.92767	1.09547	5.145	73.07	-0.2591	-0.0584	0.2007	1053.2244	0.12538	-434.143509	-434.135262	-434.134318	-434.177058	29.566	
C	-0.0206632445	 1.4632913757	 0.0170201274	-0.361933
N	 0.0002220092	-0.0009705265	 0.0371657118	-0.161493
C	-0.021741139	-0.6783073682	-1.2385212433	 0.448918
O	-0.0557450015	-0.0312605802	-2.2594097298	-0.375845
N	-0.0007002569	-2.0550849201	-1.1774276106	-0.307083
C	 0.0358822678	-2.6147054314	-0.0040464593	 0.074894
N	 0.0572407398	-2.0171955718	 1.2182305995	-0.320086
C	 0.0383080945	-0.705886209	 1.1941819032	 0.420256
C	 0.0598200153	 0.034898138	 2.4984173636	-0.493662
H	 0.8759045953	 1.8703358899	 0.4917412474	 0.143249
H	-0.0490266589	 1.7590754024	-1.0295166155	 0.192436
H	-0.9054025349	 1.8455364641	 0.532823129	 0.143293
H	 0.0517476035	-3.7036771824	 0.0194760515	 0.129259
H	 0.0889380472	-0.6946584456	 3.3059091872	 0.164822
H	 0.9345391333	 0.6899137554	 2.5682408227	 0.151512
H	-0.8275006401	 0.6666448896	 2.6106059852	 0.151466
46.0055	100.7602	169.1454	197.7668	260.1537	339.8335	390.5288	458.637	522.558	558.525	574.041	646.4206	717.6017	819.8382	853.253	941.4316	1014.4723	1024.6755	1050.7436	1066.4362	1149.4647	1175.8101	1202.1791	1281.0895	1384.9338	1409.6764	1427.543	1457.7575	1472.5455	1477.9602	1496.2833	1512.3822	1555.9131	1645.727	1813.1245	3045.6407	3053.1432	3102.5816	3118.5264	3146.6572	3171.3961	3182.1003
CN1C(=O)N=CN=C1C	Cn1c(=O)ncnc1C	
InChI=1S/C5H7N3O/c1-4-6-3-7-5(9)8(4)2/h3H,1-2H3	InChI=1S/C5H7N3O/c1-4-6-3-7-5(9)8(4)2/h3H,1-2H3
