18
gdb 95272	2.72198	1.80599	1.29452	1.0556	70.44	-0.2584	0.0157	0.2741	994.7527	0.150412	-439.118022	-439.110659	-439.109715	-439.149951	28.433	
C	-0.0861581946	 1.5736321856	-0.0340602268	-0.402795
C	 0.0789480391	 0.0571425982	-0.0033627422	 0.009995
C	 0.9425559442	-0.5245994101	-1.1296838627	-0.110361
O	 1.3211709599	-1.8296121981	-0.6708246177	-0.243959
C	 1.4920452134	-1.7896906832	 0.7069350953	 0.200229
O	 2.8860740985	-1.5786707016	 1.0676955026	-0.232127
C	 2.9407150367	-0.3353095594	 1.5971429881	 0.108283
N	 1.8771683091	 0.3384787394	 1.7525937632	-0.264311
C	 0.786906174	-0.5123304999	 1.2505025624	-0.078625
H	 0.8817771537	 2.0720528743	 0.0556798008	 0.137041
H	-0.5614034589	 1.8933879095	-0.96733212	 0.111284
H	-0.7119824788	 1.9165018812	 0.7951351088	 0.122709
H	-0.9063450424	-0.4212525801	-0.0626578583	 0.083686
H	 0.4082420473	-0.6534867295	-2.0734913199	 0.115829
H	 1.8331302623	 0.0936333899	-1.31248328	 0.106714
H	 1.2089928012	-2.7581822894	 1.1203134976	 0.102891
H	 3.937799671	-0.0039034109	 1.8677438652	 0.142053
H	 0.0816537941	-0.7097149459	 2.0617003037	 0.091463
92.6952	183.1612	208.3126	234.25	307.8651	437.5805	492.0083	537.6581	602.8696	650.5214	829.4272	848.7802	870.6318	887.4883	935.1617	948.4315	966.3941	978.0415	980.9992	997.306	1067.1047	1104.3823	1146.8173	1165.215	1176.9109	1231.6063	1272.1419	1294.1032	1307.8568	1331.3105	1339.1431	1360.7821	1383.1112	1403.7345	1415.5564	1493.1424	1499.1987	1522.325	1695.6369	3006.8916	3032.1946	3041.9045	3076.3711	3105.5158	3106.8898	3116.	3129.8777	3208.1215
CC1COC2OC=NC12	C[C@H]1CO[C@H]2OC=N[C@@H]12	
InChI=1S/C6H9NO2/c1-4-2-8-6-5(4)7-3-9-6/h3-6H,2H2,1H3	InChI=1S/C6H9NO2/c1-4-2-8-6-5(4)7-3-9-6/h3-6H,2H2,1H3/t4-,5-,6-/m0/s1
