21
gdb 55861	3.43657	0.88632	0.79394	3.8289	80.48	-0.2286	0.0421	0.2707	1508.8212	0.180466	-420.422546	-420.412188	-420.411244	-420.45835	38.053	
C	 0.2497111924	 1.1871580968	-0.6843832746	-0.455077
C	-0.0854431241	-0.0832536148	 0.0747988992	 0.342099
C	-1.5438860926	-0.489911957	-0.005586791	-0.43685
C	 0.9601872827	-1.1393994628	 0.2199474103	-0.296172
N	 0.536802857	-0.3531179729	 1.3806877948	-0.128734
C	 1.4879149613	 0.5849113235	 1.9635524731	-0.252861
C	 2.0827255358	 0.0796895898	 3.2866379931	 0.379115
N	 1.3816763276	-0.9283664913	 3.861261918	-0.506581
O	 3.0793278586	 0.588320013	 3.7628121484	-0.368968
H	 1.31321714	 1.4315024128	-0.6466538766	 0.12452
H	-0.0291170569	 1.0768261918	-1.7375118137	 0.124226
H	-0.3111815155	 2.0402144576	-0.285156008	 0.123272
H	-1.8349906149	-0.6944048752	-1.041936701	 0.116725
H	-1.7288722642	-1.3860379506	 0.5914757494	 0.119984
H	-2.1917176312	 0.3091449641	 0.3726160548	 0.118365
H	 0.6897787546	-2.1925724827	 0.2306037164	 0.111468
H	 1.9469212074	-0.9310720596	-0.1917855829	 0.113526
H	 2.3389161421	 0.8360177618	 1.3172158895	 0.119845
H	 0.9698292604	 1.5242614828	 2.1925004551	 0.132561
H	 0.5752328533	-1.2957520664	 3.3824126251	 0.262971
H	 1.6925626562	-1.3066841208	 4.7394838607	 0.256565
49.0366	54.743	130.9898	190.6006	202.2621	227.724	262.5439	295.4837	349.7506	374.6636	427.8478	467.4138	503.9052	543.065	565.4108	699.711	709.5219	816.705	875.4129	899.4037	913.9731	960.7114	1001.8856	1019.9219	1031.5188	1094.721	1107.7224	1129.664	1142.8627	1203.7236	1259.1976	1288.5115	1341.6538	1360.9268	1385.1092	1410.9692	1423.5156	1463.2476	1479.4072	1487.4554	1498.0064	1505.0389	1516.0661	1580.2386	1806.9998	3012.7157	3029.1413	3035.9018	3063.4895	3088.148	3090.0231	3094.5745	3121.571	3127.3918	3172.9762	3585.8983	3734.5206
CC1(C)CN1CC(N)=O	CC1(C)CN1CC(=O)N	
InChI=1S/C6H12N2O/c1-6(2)4-8(6)3-5(7)9/h3-4H2,1-2H3,(H2,7,9)	InChI=1S/C6H12N2O/c1-6(2)4-8(6)3-5(7)9/h3-4H2,1-2H3,(H2,7,9)
