14
gdb 61321	6.6441	0.59105	0.55497	1.0347	81.16	-0.283	-0.0615	0.2215	1820.7161	0.100574	-395.718785	-395.709507	-395.708563	-395.753816	31.993	
N	-0.0808148297	 1.5021693223	 0.0970513981	-0.495029
C	 0.0178849353	 0.0531827141	 0.0337265568	-0.12516
C	 0.6783976606	-0.5418158591	-1.2591479795	-0.382784
C	-0.0433251194	-0.1468420048	-2.4537856642	 0.023946
C	-0.6705494631	 0.2023851953	-3.4258140385	 0.111129
C	-1.370936641	 0.5903239256	-4.5322323046	 0.210402
N	-1.967978704	 0.9240187192	-5.4709072456	-0.326578
C	 0.7642412115	-0.4433678637	 1.2001730476	 0.300685
N	 1.3801146441	-0.8510204731	 2.0879307617	-0.303983
H	 0.836944087	 1.9327011479	 0.03644044	 0.246553
H	-0.6364709037	 1.8432779925	-0.6810043381	 0.25217
H	-0.9992749943	-0.3506966844	 0.0990550073	 0.155427
H	 1.7176268964	-0.1962957001	-1.3188253037	 0.16289
H	 0.7106966405	-1.6357410217	-1.1862619574	 0.17033
48.6958	64.6366	157.8541	163.6643	202.8597	245.4287	313.8092	354.6759	368.3292	461.7869	538.5609	573.3445	580.0853	582.4571	735.8504	826.3175	840.4806	914.5132	1002.8506	1122.0144	1173.7512	1175.7254	1251.1003	1291.4129	1342.4306	1415.4132	1455.8013	1658.3741	2267.0463	2367.6607	2402.342	3032.52	3050.7246	3076.1452	3500.3126	3588.1071
NC(CC#CC#N)C#N	N[C@@H](CC#CC#N)C#N	
InChI=1S/C6H5N3/c7-4-2-1-3-6(9)5-8/h6H,3,9H2	InChI=1S/C6H5N3/c7-4-2-1-3-6(9)5-8/h6H,3,9H2/t6-/m0/s1
