17
gdb 51551	5.41669	0.7561	0.72438	1.1938	70.13	-0.2568	-0.0335	0.2233	1524.3381	0.133224	-458.92013	-458.911306	-458.910362	-458.955163	30.766	
O	-0.6407098404	 0.3699081451	 0.2816123835	-0.232295
C	-0.0366788933	 1.4061590152	 0.1892911048	 0.160869
C	 1.3700516886	 1.5314185046	-0.3716440207	-0.311249
C	 1.453490748	 2.6017561303	-1.4383755689	-0.055435
O	 1.353177016	 3.9678692762	-0.9799302969	-0.274389
C	 2.576606136	 3.5335189503	-1.5306151547	 0.357333
C	 3.9301404013	 3.5719593346	-0.8273790506	-0.153157
O	 4.544774644	 4.0740801387	-2.0344446364	-0.272624
C	 3.2782840451	 4.170397328	-2.7250078116	-0.156304
H	-0.4811805436	 2.369914765	 0.5211329045	 0.09922
H	 2.0357867631	 1.8032706663	 0.457993819	 0.129126
H	 1.6800175604	 0.5585101894	-0.7648938781	 0.130906
H	 0.8811683826	 2.4035478457	-2.3460616257	 0.111596
H	 3.9857504703	 4.2884139828	 0.001966078	 0.118766
H	 4.3563670516	 2.6114563094	-0.512604138	 0.112851
H	 3.2732367375	 3.6069848077	-3.6653717009	 0.114756
H	 2.9817715727	 5.2096660708	-2.9150497072	 0.120032
49.2807	61.2557	101.8789	140.5823	193.6983	269.4214	375.8107	407.3688	477.3113	512.9043	592.5101	806.667	819.5648	845.372	906.158	943.0213	974.3856	1015.7369	1023.8517	1054.7933	1091.2169	1113.6897	1129.3319	1143.3575	1168.8575	1189.9316	1227.8902	1292.5149	1301.599	1325.9064	1376.1061	1421.9711	1443.9355	1498.5601	1518.966	1530.3185	1836.0692	2899.3982	3010.9649	3022.7938	3030.749	3061.2251	3068.0298	3095.1337	3108.3507
O=CCC1OC11COC1	O=CC[C@H]1OC21COC2	
InChI=1S/C6H8O3/c7-2-1-5-6(9-5)3-8-4-6/h2,5H,1,3-4H2	InChI=1S/C6H8O3/c7-2-1-5-6(9-5)3-8-4-6/h2,5H,1,3-4H2/t5-/m1/s1
