17
gdb 55989	3.08832	1.16422	0.92918	3.2111	70.61	-0.2361	0.0125	0.2485	1243.6871	0.136606	-455.202213	-455.193407	-455.192463	-455.236962	31.592	
N	 0.3254104052	 0.1886472123	 0.9373491523	-0.515459
C	-0.1656648133	 0.194711709	-0.3265147556	 0.37566
O	 0.1801727844	 0.9706148373	-1.195945568	-0.357381
C	-1.2665026709	-0.8559729491	-0.5873572815	-0.287365
N	-0.9430363184	-2.2033768986	-0.1627711204	-0.072426
C	-0.6980306985	-3.4456525534	-0.9113859363	-0.16828
C	-0.4938816109	-4.1463445763	 0.4628345984	-0.364662
C	-0.7492120312	-2.7543368867	 1.0712340395	 0.426423
O	-0.7588446002	-2.2590594773	 2.1779403759	-0.400528
H	 1.0296332647	 0.8696120959	 1.1704145818	 0.258374
H	-0.0078199615	-0.4599190654	 1.6421438525	 0.286938
H	-2.1831861135	-0.5252294869	-0.0814763661	 0.143863
H	-1.4533627329	-0.8604004743	-1.6611325338	 0.146267
H	-1.5601797559	-3.7866473169	-1.4929895411	 0.120725
H	 0.1877436585	-3.4080564888	-1.5528480045	 0.127424
H	-1.2428775577	-4.8960492106	 0.7226093262	 0.140082
H	 0.5050819322	-4.5430279804	 0.6503786805	 0.140346
45.8826	50.3103	136.4319	191.3166	223.0104	280.2003	386.7811	431.4384	488.794	536.6781	573.5385	605.7804	716.3963	778.1598	801.4981	822.8914	871.6236	944.8363	948.5835	1050.5181	1063.3547	1107.5516	1149.9679	1158.3769	1184.5495	1212.4128	1262.9551	1328.5571	1345.1384	1371.3548	1421.581	1463.0203	1470.1478	1529.7197	1642.1574	1805.4437	1836.13	3026.9046	3045.2181	3091.5754	3092.641	3141.2306	3149.4932	3492.0382	3686.7787
NC(=O)CN1CCC1=O	NC(=O)CN1CCC1=O	
InChI=1S/C5H8N2O2/c6-4(8)3-7-2-1-5(7)9/h1-3H2,(H2,6,8)	InChI=1S/C5H8N2O2/c6-4(8)3-7-2-1-5(7)9/h1-3H2,(H2,6,8)
