17
gdb 11243	6.04262	1.24614	1.0533	4.4375	72.49	-0.2332	0.0117	0.2449	1099.986	0.14252	-363.905923	-363.897966	-363.897022	-363.938724	28.464	
C	-0.0858567966	 1.469763363	 0.0631693043	-0.489901
C	-0.0299017071	-0.0219538775	-0.001436682	 0.321408
C	-0.0567483388	-0.8071596985	-1.0780837672	-0.186903
C	 0.0199258543	-2.265684001	-0.7272804946	-0.193279
N	 0.097087084	-2.2207067394	 0.7348421261	-0.057147
C	 0.0709271524	-0.8551091896	 1.2561402668	-0.253378
C	 0.182788599	-3.3429882154	 1.4849779461	 0.143741
O	 0.2038395593	-4.4725595009	 1.0369034233	-0.342215
H	 0.8046281507	 1.8802118883	 0.5557076131	 0.131531
H	-0.1550308085	 1.9094411341	-0.9347675227	 0.13188
H	-0.9505626119	 1.8103900897	 0.6465416808	 0.131592
H	-0.1255265002	-0.464135993	-2.1032978706	 0.102254
H	-0.8567436021	-2.8397080368	-1.0575825317	 0.129228
H	 0.898470831	-2.7702782816	-1.152324337	 0.129253
H	 0.9781926049	-0.6157132687	 1.8318567017	 0.118118
H	-0.7854465532	-0.6857645229	 1.9268519086	 0.118105
H	 0.2326648428	-3.1201524397	 2.570657615	 0.065714
44.6071	170.4582	195.2036	199.7998	233.0352	321.0661	335.819	446.6264	478.7309	650.0257	770.6815	810.8367	872.925	895.127	972.7887	996.7755	1033.483	1036.8324	1037.3667	1089.6616	1179.8837	1190.4852	1203.9463	1242.5623	1296.7088	1341.0612	1360.2016	1410.6271	1418.2145	1448.2967	1478.7609	1488.8358	1512.5847	1521.0344	1733.7314	1793.5946	2920.9126	2978.3252	2996.6501	3008.4135	3020.8703	3026.5625	3066.7893	3118.6933	3209.4935
CC1=CCN(C1)C=O	CC1=CCN(C1)C=O	
InChI=1S/C6H9NO/c1-6-2-3-7(4-6)5-8/h2,5H,3-4H2,1H3	InChI=1S/C6H9NO/c1-6-2-3-7(4-6)5-8/h2,5H,3-4H2,1H3
