15
gdb 45327	2.97885	1.6689	1.33245	3.7375	65.2	-0.2379	-0.0038	0.2341	945.065	0.115714	-453.975566	-453.968593	-453.967648	-454.007427	26.221	
O	 0.2264201348	 0.0619642549	-0.6230221767	-0.324092
C	 0.1204312608	 1.1401300707	-0.134644413	 0.450258
O	-0.9344626105	 1.6626367382	 0.5558608776	-0.250527
C	-0.2328169805	 2.9403476833	 0.7957362858	 0.112891
C	-0.0011978267	 3.2250584697	 2.2721853784	-0.185411
N	 1.0683824825	 2.4767999189	 2.9196715801	-0.243122
C	 2.0413997008	 2.0983100831	 2.1937434592	 0.080538
N	 2.1847631788	 2.2742112315	 0.8247478669	-0.296535
C	 0.9907214919	 2.4111671392	 0.0206073917	-0.203731
H	-0.7864156991	 3.7434824108	 0.3043565603	 0.106855
H	 0.2224293327	 4.2983672158	 2.3662489981	 0.120715
H	-0.9360167857	 3.0558500678	 2.8169622129	 0.132029
H	 2.8956838752	 1.6113132441	 2.6650596224	 0.119909
H	 2.9167228575	 1.7256302771	 0.3963317856	 0.257216
H	 1.2141494773	 2.9080794151	-0.9255791492	 0.123006
85.6509	117.6327	217.1449	320.7527	441.4521	487.8318	542.1435	585.2015	614.7961	717.3871	749.6149	815.9424	863.2168	917.7461	928.7981	955.5538	1005.9883	1024.4672	1047.027	1091.2952	1143.192	1182.7533	1241.3874	1254.4636	1314.9674	1327.4569	1359.6011	1392.1232	1424.8026	1466.5728	1496.7897	1738.8736	1938.0445	3002.4676	3068.7314	3085.8053	3097.1614	3129.2733	3598.6549
O=C1OC2CN=CNC12	O=C1O[C@H]2CN=CN[C@@H]12	
InChI=1S/C5H6N2O2/c8-5-4-3(9-5)1-6-2-7-4/h2-4H,1H2,(H,6,7)	InChI=1S/C5H6N2O2/c8-5-4-3(9-5)1-6-2-7-4/h2-4H,1H2,(H,6,7)/t3-,4+/m0/s1
