21
gdb 117225	4.09114	0.80341	0.76843	2.7935	83.21	-0.2216	0.018	0.2396	1604.7754	0.18175	-420.411884	-420.401692	-420.400748	-420.44817	36.512	
C	 0.0790022823	 1.2534862344	-0.0635218543	-0.373768
C	 0.1869132035	-0.1898876663	 0.4313192571	-0.144532
N	-1.1067137044	-0.8449160224	 0.5385711029	-0.332928
C	-1.4592447875	-1.9288744754	-0.212189404	 0.435497
O	-0.7014113041	-2.459673923	-1.0122295135	-0.391918
C	-2.8606918074	-2.4163814146	 0.0443998839	-0.123162
C	-3.5066998496	-3.2603759065	-1.0081978863	-0.235782
N	-3.1542141789	-3.8405421282	 0.269419813	-0.086292
C	-2.067911232	-4.8181149501	 0.3161117804	-0.325361
H	 1.0713051185	 1.7119425522	-0.1184751828	 0.12218
H	-0.3738517568	 1.2904116327	-1.0584703439	 0.132017
H	-0.5321132554	 1.8632124778	 0.6114414369	 0.11124
H	 0.7717378435	-0.7971678994	-0.2624099514	 0.152724
H	 0.6924601082	-0.2183427039	 1.4051898094	 0.107069
H	-1.7817393144	-0.4683192308	 1.1842396644	 0.244351
H	-3.4828338276	-1.7534158502	 0.6444299727	 0.077904
H	-4.5691416427	-3.1470177558	-1.2093405132	 0.111943
H	-2.8780911665	-3.4884717818	-1.8667470798	 0.134943
H	-1.2536619895	-4.6150798222	-0.3874897013	 0.14832
H	-1.6603323054	-4.8423308658	 1.3319776703	 0.116363
H	-2.4978308538	-5.8015918108	 0.1023032694	 0.119192
32.2169	56.0397	97.9	174.7654	188.2774	237.6822	250.7617	315.1691	360.6792	382.6294	405.1044	462.613	486.7524	682.6252	725.6005	776.477	810.2799	870.383	900.299	925.6327	1012.977	1042.245	1066.4324	1100.1227	1122.6457	1124.9526	1133.11	1168.5141	1177.2765	1213.6985	1228.3644	1315.7035	1336.4184	1385.8698	1409.9211	1414.7392	1443.1522	1487.1007	1488.6347	1493.0863	1495.5421	1503.5562	1513.8935	1547.4656	1754.8242	3023.2638	3026.591	3034.2465	3095.2334	3096.7196	3100.3191	3103.4152	3105.8601	3117.4348	3127.8671	3187.9508	3637.8081
CCNC(=O)C1CN1C	CCNC(=O)[C@H]1CN1C	
InChI=1S/C6H12N2O/c1-3-7-6(9)5-4-8(5)2/h5H,3-4H2,1-2H3,(H,7,9)	InChI=1S/C6H12N2O/c1-3-7-6(9)5-4-8(5)2/h5H,3-4H2,1-2H3,(H,7,9)/t5-,8?/m1/s1
