17
gdb 24418	3.52985	1.54806	1.11694	3.1374	74.07	-0.2128	0.0302	0.243	1045.6885	0.140306	-418.049696	-418.042771	-418.041827	-418.080996	27.339	
C	 0.002986822	 1.4127693612	 0.0062389744	-0.078954
C	 1.4447300409	 1.9522027644	 0.0058082982	-0.329785
C	 2.193467778	 1.2243138904	-1.0637509278	 0.244906
C	 1.7103140705	 0.0677505277	-1.6097370605	 0.241319
C	 0.4269516545	-0.5884248744	-1.2123770122	-0.190068
O	-0.039851625	-0.0123920171	-0.0042266084	-0.245607
N	 2.6345134199	-0.3041187043	-2.560823324	-0.343672
C	 3.626865465	 0.6397345454	-2.5341373396	-0.007951
N	 3.3928229579	 1.5760918714	-1.6441973418	-0.327224
H	-0.5343501316	 1.7148709237	 0.9089229905	 0.109575
H	-0.5411909324	 1.8110749542	-0.8654146441	 0.091548
H	 1.4367364387	 3.0328468994	-0.1768074755	 0.113276
H	 1.9066394165	 1.7971586631	 0.9891253103	 0.116238
H	-0.3359314878	-0.4912825853	-2.0068475005	 0.098293
H	 0.5496610917	-1.6596064835	-1.0099628414	 0.116937
H	 2.6014444666	-1.1165844986	-3.1535088262	 0.263436
H	 4.4853797746	 0.5837201523	-3.1867072116	 0.127735
113.3762	213.5034	276.0434	328.3523	374.6503	460.4495	491.0743	523.2099	656.8156	682.2214	717.0487	748.0184	797.1696	857.1582	938.818	963.1105	980.9896	1029.1119	1084.248	1105.7857	1114.8403	1160.7116	1208.8294	1232.2046	1253.1437	1274.0841	1315.9172	1346.6357	1378.2347	1391.0937	1423.9422	1466.3328	1477.1402	1492.0165	1502.3513	1523.3304	1635.7778	2929.5314	2976.6553	3025.4302	3040.4106	3068.9119	3094.4874	3251.3918	3662.7862
C1CC2=C(CO1)NC=N2	C1Cc2c(CO1)[nH]cn2	
InChI=1S/C6H8N2O/c1-2-9-3-6-5(1)7-4-8-6/h4H,1-3H2,(H,7,8)	InChI=1S/C6H8N2O/c1-2-9-3-6-5(1)7-4-8-6/h4H,1-3H2,(H,7,8)
