23
gdb 58312	2.30259	1.02447	0.84795	0.9469	87.39	-0.2592	0.0342	0.2934	1501.5934	0.201736	-388.255622	-388.244377	-388.243433	-388.292465	41.047	
C	 0.0328555081	 1.2247132289	 0.598194848	-0.400702
C	-0.0628975452	-0.1435840999	-0.0916505698	 0.034066
C	 0.923761624	-1.1360440322	 0.5385715026	-0.392335
C	-1.4966613691	-0.7034989928	-0.0694790194	 0.146712
C	-2.5402353848	 0.2403182743	-0.6716259083	-0.409108
O	-1.4622722048	-1.9293059472	-0.8157080179	-0.249903
C	-2.4574360496	-2.8745527611	-0.4836833515	-0.22447
C	-2.2961554959	-3.4653777766	 0.8495395008	 0.316924
C	-2.1613072215	-3.9472808006	 1.942598333	-0.468641
H	 1.0728135029	 1.5652682004	 0.6201785727	 0.113069
H	-0.5540304737	 1.993347513	 0.0883857619	 0.114166
H	-0.3148002937	 1.1678587517	 1.6370447407	 0.112067
H	 0.205003873	-0.0181734065	-1.1503749147	 0.077422
H	 0.8576612248	-2.1132577954	 0.0576753087	 0.129948
H	 1.9516004386	-0.7703971354	 0.446336802	 0.10305
H	 0.7131471085	-1.2700699085	 1.606510812	 0.108254
H	-1.7642157854	-0.9308307449	 0.9742962166	 0.07781
H	-2.6738678656	 1.1328061213	-0.0549138332	 0.120325
H	-2.240760124	 0.5512249026	-1.6778333116	 0.120903
H	-3.5155054261	-0.2502503646	-0.7459585482	 0.112685
H	-3.468549325	-2.4458791571	-0.56539195	 0.118122
H	-2.3857713461	-3.6606593696	-1.2433850869	 0.138246
H	-2.0426604195	-4.3791198698	 2.9056159125	 0.20139
38.7531	56.7308	94.2088	185.5683	208.8608	213.0357	227.9554	271.9525	294.0777	333.9383	355.0604	375.4451	427.3292	445.6956	503.4665	607.7267	616.7165	680.6231	799.0067	860.1883	922.3898	928.7637	931.0166	963.3414	988.1515	1030.3353	1047.1034	1105.7728	1123.4517	1154.4229	1191.6164	1213.3839	1286.1663	1323.29	1344.1149	1368.2787	1389.2531	1397.1308	1401.6165	1407.5324	1420.7982	1477.4713	1487.7441	1489.1978	1494.0685	1500.1145	1505.9962	1518.4478	2231.5874	2982.3987	2988.735	3010.6583	3027.7938	3033.0847	3040.4483	3064.0887	3089.7629	3096.2988	3106.0304	3110.6776	3121.9801	3136.4192	3504.5281
CC(C)C(C)OCC#C	CC(C)[C@@H](C)OCC#C	
InChI=1S/C8H14O/c1-5-6-9-8(4)7(2)3/h1,7-8H,6H2,2-4H3	InChI=1S/C8H14O/c1-5-6-9-8(4)7(2)3/h1,7-8H,6H2,2-4H3/t8-/m1/s1
