23
gdb 58430	2.76407	1.29556	1.2489	1.3602	85.44	-0.2562	0.0699	0.3261	1185.3971	0.205195	-388.241875	-388.232616	-388.231671	-388.275435	36.773	
C	 0.0310954656	 1.5322394371	-0.0839986041	-0.419039
C	 0.064713296	-0.0062996195	-0.1011886219	-0.035718
C	 0.7790502881	-0.5293162946	-1.3567181292	-0.387746
C	 0.722886851	-0.5639210356	 1.1748778985	 0.482976
O	 2.0586801411	-0.0881708348	 1.2628533143	-0.498647
C	-0.0858653415	-0.6380586857	 2.5257443225	-0.128788
C	-0.8652146462	-1.8445101564	 1.9250805538	-0.239175
C	 0.6232497492	-2.0797555536	 1.5343672422	-0.09502
C	 0.9674518716	-1.6838479104	 3.0052632474	-0.229757
H	 1.0368235672	 1.9624483904	-0.1623560149	 0.109595
H	-0.5394402672	 1.9126318364	-0.9368199984	 0.117655
H	-0.438170279	 1.9183781601	 0.8275848369	 0.113885
H	-0.9746682936	-0.3427954698	-0.1396320152	 0.0761
H	 1.8401577278	-0.2659858767	-1.3316860346	 0.125965
H	 0.7066129618	-1.6190855813	-1.4302662366	 0.112637
H	 0.3379720584	-0.1028385389	-2.2636447692	 0.103098
H	 2.0301883455	 0.8704919336	 1.3379243849	 0.279113
H	-0.5001392422	 0.1940909798	 3.0996479411	 0.061496
H	-1.2649952072	-2.5480975781	 2.6587880359	 0.093124
H	-1.5932790704	-1.6626577901	 1.135008007	 0.093589
H	 1.0340948458	-2.9134429228	 0.9625647514	 0.069231
H	 1.9750198217	-1.3241786028	 3.196439678	 0.111657
H	 0.6221192563	-2.3805577162	 3.7729607304	 0.083768
57.8783	157.4329	212.1503	229.3591	257.076	267.9561	299.9624	334.2407	404.2618	463.8184	478.8571	550.9199	590.7212	685.5254	790.3135	802.858	877.897	896.0021	900.1866	908.0649	927.2024	967.097	993.2031	1008.4592	1014.4045	1047.2851	1066.5806	1084.7018	1108.1145	1129.5837	1139.709	1182.1635	1188.8894	1195.9919	1220.2983	1231.34	1246.7991	1259.3526	1316.1621	1342.6595	1388.3475	1396.28	1414.4963	1487.3462	1494.1166	1498.3676	1508.9901	1516.3629	1540.6291	3023.1431	3036.2186	3058.8696	3069.7414	3073.0924	3084.3166	3090.2905	3098.7678	3101.7506	3102.8302	3118.7789	3137.8905	3171.5817	3822.6599
CC(C)C1(O)C2CC1C2	CC(C)[C@@]1(O)[C@H]2C[C@@H]1C2	
InChI=1S/C8H14O/c1-5(2)8(9)6-3-7(8)4-6/h5-7,9H,3-4H2,1-2H3	InChI=1S/C8H14O/c1-5(2)8(9)6-3-7(8)4-6/h5-7,9H,3-4H2,1-2H3/t6-,7+,8-
