20
gdb 121027	3.16426	1.02767	0.83669	2.1459	76.27	-0.2455	0.0239	0.2693	1415.0659	0.170464	-440.288024	-440.278553	-440.277609	-440.323814	33.492	
C	-0.0832149136	 1.4067415318	 0.2217154617	-0.229682
O	-0.1261104095	 0.0095636797	 0.0555136156	-0.230903
C	 0.6799090704	-0.4409965698	-1.0066350954	-0.072791
C	 0.5125863037	-1.9441785711	-1.1242035705	 0.077066
O	-0.831935096	-2.2390867222	-1.5971090171	-0.226359
C	-0.6732348343	-3.1157134532	-2.6127730061	 0.115786
N	 0.4864577025	-3.4617557686	-2.9850584398	-0.271814
C	 1.4334566748	-2.7026821965	-2.1393686015	-0.001922
C	 2.3499853166	-1.8506101391	-3.0220366739	-0.391288
H	 0.9371185964	 1.7624211604	 0.4379506688	 0.102842
H	-0.4479905326	 1.9361089792	-0.672547487	 0.107122
H	-0.7298049335	 1.6542283303	 1.0667399539	 0.130934
H	 0.3940202748	 0.0468701819	-1.9521943949	 0.097197
H	 1.7402290157	-0.2027704005	-0.8168907511	 0.090207
H	 0.5912960474	-2.3725087627	-0.1197829129	 0.102641
H	-1.6028588882	-3.4651925601	-3.0492944249	 0.138925
H	 2.0573005693	-3.4206422905	-1.595828908	 0.092437
H	 1.7828811823	-1.1124546	-3.596815386	 0.121645
H	 3.1083425046	-1.3282599928	-2.4308573613	 0.114183
H	 2.8618062394	-2.5022546062	-3.7344557395	 0.133771
25.027	80.2273	105.8408	143.1043	235.0305	248.1978	282.5313	318.7551	351.1869	420.9806	526.9433	575.538	727.7526	827.3932	852.793	863.1863	942.4626	968.3159	988.3926	1033.6894	1066.2709	1094.2898	1130.4154	1140.0853	1162.5233	1168.5098	1187.6636	1228.2806	1271.1524	1299.4101	1308.4346	1329.4871	1371.8186	1379.0387	1406.8718	1433.0689	1477.9485	1486.4927	1488.9312	1496.9375	1500.1143	1520.3478	1708.4225	2957.8104	2971.8322	2997.1284	3014.0003	3035.5805	3043.2189	3063.0863	3115.0554	3117.8954	3124.5985	3211.0682
COCC1OC=NC1C	COC[C@H]1OC=N[C@H]1C	
InChI=1S/C6H11NO2/c1-5-6(3-8-2)9-4-7-5/h4-6H,3H2,1-2H3	InChI=1S/C6H11NO2/c1-5-6(3-8-2)9-4-7-5/h4-6H,3H2,1-2H3/t5-,6+/m0/s1
