20
gdb 17518	4.36491	1.65724	1.54178	0.312	77.79	-0.2415	0.0819	0.3234	928.4846	0.17814	-311.825934	-311.818645	-311.817701	-311.85728	29.233	
C	 0.0347559295	 1.5383051751	 0.0281010179	-0.380979
C	 0.0248874187	 0.0047924361	-0.0149407287	-0.305943
C	-1.3674851117	-0.5762706005	 0.0024899752	 0.356253
C	-2.294072393	-0.4355019755	 1.2510523912	-0.267758
C	-2.9583285303	-1.7239929949	 0.7777786144	-0.06063
C	-2.9956266882	-1.6804014143	-0.7584843942	-0.060605
C	-2.3535740418	-0.3660899632	-1.1894624933	-0.267771
C	-1.7488712978	-2.1213065383	-0.0320609335	-0.145707
H	 1.0576672707	 1.9264782934	 0.0141649613	 0.111446
H	-0.4946655865	 1.9628122672	-0.8315297212	 0.120025
H	-0.4516780669	 1.9129621019	 0.9350050365	 0.120022
H	 0.5492388963	-0.3406147675	-0.915981976	 0.093887
H	 0.5918701069	-0.3901298397	 0.8386941843	 0.093884
H	-1.7365595017	-0.5937703222	 2.1798402145	 0.091569
H	-2.8980795178	 0.4761503806	 1.3356833165	 0.083682
H	-3.6252170407	-2.3749883095	 1.3287625217	 0.080281
H	-3.689300755	-2.3000573004	-1.3125255366	 0.080282
H	-2.9598084582	 0.5480093144	-1.1926234423	 0.0837
H	-1.8421535209	-0.4704804689	-2.1517836067	 0.091561
H	-1.1657573717	-3.030136954	-0.072012011	 0.082802
82.5658	172.6993	215.622	321.9064	350.3334	438.9558	447.4407	616.9763	718.1949	744.1111	774.7851	796.4138	801.327	883.4741	910.4135	919.4837	955.2952	982.044	987.388	1009.4147	1012.6066	1028.7772	1043.2082	1069.8488	1115.7853	1122.5156	1146.9403	1171.3707	1198.8837	1239.8473	1247.3804	1282.6751	1312.0381	1323.2144	1367.2839	1377.8555	1408.8691	1484.2745	1491.2249	1500.9478	1506.7175	1510.4515	3010.2198	3018.3681	3026.3362	3034.4314	3040.5108	3080.2523	3083.1947	3101.2413	3105.1811	3188.4917	3195.052	3219.5585
CCC12CC3C(C1)C23	CC[C@@]12C[C@H]3[C@@H](C1)[C@@H]23	
InChI=1S/C8H12/c1-2-8-3-5-6(4-8)7(5)8/h5-7H,2-4H2,1H3	InChI=1S/C8H12/c1-2-8-3-5-6(4-8)7(5)8/h5-7H,2-4H2,1H3/t5-,6+,7-,8+
