18
gdb 68279	2.25307	1.68304	1.48901	0.9429	72.17	-0.2545	-0.0396	0.2149	995.7445	0.145767	-439.010966	-439.002298	-439.001353	-439.044195	32.735	
C	 0.0383977538	 1.6115604353	-0.1824861837	-0.495873
C	 0.1145927465	 0.0931048932	-0.0432142553	 0.217703
C	-1.2430407935	-0.4361812894	-0.4598007225	 0.073686
O	-2.0839563637	-0.7712885685	 0.3407894238	-0.262554
N	 1.3334612589	-0.6248774056	-0.6842719983	-0.189478
C	 2.1182587337	-0.1721825873	 0.5709443995	-0.219976
C	 0.7780599262	-0.6307331064	 1.1630268781	 0.340099
O	 0.4107559337	-0.5975504907	 2.4887908508	-0.465613
C	 0.9404607602	-1.8321460366	 0.1826246267	-0.250456
H	-0.2682412308	 1.8834045885	-1.1987451561	 0.134462
H	-0.709151563	 2.0070223768	 0.5125259454	 0.143393
H	 0.98552632	 2.1119031727	 0.0193693574	 0.138417
H	-1.4493939559	-0.4418647487	-1.5536608909	 0.097864
H	 2.9924803251	-0.7984679905	 0.7597400836	 0.111964
H	 2.3859426295	 0.8826347482	 0.591011241	 0.108383
H	-0.5328540197	-0.8013461371	 2.5243427222	 0.293937
H	 0.0532650222	-2.3667763264	-0.1617829918	 0.11703
H	 1.771151567	-2.5181195975	 0.35823692	 0.107013
90.805	114.6154	127.2948	198.2841	304.5234	346.8025	362.6906	388.0355	430.7676	489.8576	580.5371	615.6091	659.3832	751.4198	782.8452	817.024	894.2446	925.8046	970.1947	978.6324	985.5888	1043.2262	1062.5618	1104.9093	1132.8124	1165.7267	1182.2614	1204.4711	1241.8424	1243.6059	1326.3754	1380.8183	1400.6449	1407.7269	1485.146	1489.284	1525.5116	1564.0622	1804.8841	2884.0055	3041.2516	3070.6594	3085.4739	3102.6667	3137.1994	3140.5074	3160.1671	3781.449
CC1(C=O)N2CC1(O)C2	C[C@@]1(C=O)N2C[C@]1(O)C2	
InChI=1S/C6H9NO2/c1-5(4-8)6(9)2-7(5)3-6/h4,9H,2-3H2,1H3	InChI=1S/C6H9NO2/c1-5(4-8)6(9)2-7(5)3-6/h4,9H,2-3H2,1H3/t5-/m0/s1
