16
gdb 53805	2.95766	1.33379	1.01077	2.4626	67.94	-0.2396	-0.0732	0.1664	1152.407	0.122845	-475.057488	-475.048731	-475.047787	-475.091283	32.953	
N	-0.5356448068	 0.4810132361	-2.2144673104	-0.510116
C	-0.4693857106	-0.8067353793	-1.8362890832	 0.352985
O	 0.1432240635	-1.6855395346	-2.4296688327	-0.380397
C	-1.3044749944	-1.0792572023	-0.5570488877	 0.213677
O	-2.0501968789	-0.2073838546	-0.153025836	-0.3374
C	-1.2163551357	-2.4353957175	 0.0430755524	 0.324253
O	-0.1254719608	-3.2353025967	-0.2585811416	-0.474057
C	-1.8071279433	-2.6198529657	 1.4176877666	-0.29309
C	-2.589492721	-3.1145908719	 0.2430226805	-0.297014
H	-0.0905328177	 0.7789149059	-3.0662350577	 0.27453
H	-1.147215307	 1.0967987963	-1.701329685	 0.285791
H	 0.1038652216	-3.0557924144	-1.1873208407	 0.303105
H	-1.2907300945	-3.3501912528	 2.0293187152	 0.13551
H	-2.1539833831	-1.7263848949	 1.9228111468	 0.138016
H	-3.4738793377	-2.5654620264	-0.058776074	 0.130583
H	-2.5850574436	-4.1777696573	 0.0340486576	 0.133624
58.3671	66.7221	228.4099	236.5491	309.4633	335.9278	371.3995	396.981	430.4227	486.9558	524.269	584.8302	618.7365	662.5428	678.1311	762.2843	796.2073	846.0783	876.7178	949.4352	997.9748	1044.5506	1073.0091	1090.8574	1103.8555	1206.6871	1261.8134	1320.3354	1390.7811	1439.9711	1447.2448	1482.7642	1585.16	1758.6336	1782.9911	3141.5009	3147.143	3237.0315	3251.2244	3587.5862	3621.2118	3729.9338
NC(=O)C(=O)C1(O)CC1	NC(=O)C(=O)C1(O)CC1	
InChI=1S/C5H7NO3/c6-4(8)3(7)5(9)1-2-5/h9H,1-2H2,(H2,6,8)	InChI=1S/C5H7NO3/c6-4(8)3(7)5(9)1-2-5/h9H,1-2H2,(H2,6,8)
