20
gdb 77939	2.23279	1.7428	1.11934	3.5666	76.44	-0.2202	0.0683	0.2885	1125.0758	0.168737	-440.193252	-440.184059	-440.183115	-440.22702	35.717	
C	 0.4185996119	 1.4605226771	 0.0961608691	-0.332401
N	 0.2667060514	 0.0046212112	 0.0624673127	-0.139631
C	-0.9646349016	-0.738423143	 0.5485067616	-0.177688
C	-0.0614471375	-2.0160227125	 0.407693355	 0.202953
O	 0.3417846671	-2.3995769362	-0.8579968822	-0.453596
C	 0.778573189	-0.9124609191	 1.1552020946	-0.151888
C	-0.4766882075	-0.6446787806	 2.041786276	 0.456648
C	-0.666935748	 0.6291979904	 2.8533414468	-0.485664
O	-0.7670162539	-1.7501292804	 2.8845938835	-0.469608
H	 1.0044505285	 1.8229470102	 0.9481979922	 0.121902
H	 0.9386692902	 1.7811564621	-0.8140994873	 0.118153
H	-0.5529146106	 1.966703824	 0.1101569368	 0.123141
H	-1.951389728	-0.543681804	 0.1208006727	 0.073267
H	-0.3492456423	-2.8888008314	 0.9822314994	 0.114221
H	 0.5750395616	-1.5580663559	-1.2851218421	 0.276493
H	 1.8314218372	-0.9305114148	 1.4446357449	 0.079685
H	-1.6950536187	 0.6567258674	 3.2391329728	 0.107774
H	 0.0062097791	 0.6190581973	 3.7165120803	 0.130605
H	-0.5124250754	 1.5516430477	 2.3015660149	 0.12745
H	-1.5774622725	-1.5562006692	 3.3664175982	 0.278185
41.8389	185.7072	201.9582	237.1208	260.7279	289.3722	300.4005	357.7476	374.8978	429.0176	463.0317	562.827	635.4305	658.3807	691.0642	768.8533	776.3778	799.368	859.5921	889.1601	948.0398	1039.6941	1067.4159	1097.3672	1109.4581	1118.6841	1124.7162	1143.3645	1171.7267	1182.7946	1198.5508	1225.1403	1236.7406	1273.8642	1309.1166	1383.6825	1417.1947	1439.9401	1458.6839	1488.0796	1494.4901	1499.9313	1527.5011	3011.7588	3022.3054	3063.0958	3084.6639	3087.8643	3089.1875	3098.5653	3191.8163	3199.0173	3667.5949	3812.047
CN1C2C(O)C1C2(C)O	CN1[C@H]2[C@@H](O)[C@@H]1[C@]2(C)O	
InChI=1S/C6H11NO2/c1-6(9)4-3(8)5(6)7(4)2/h3-5,8-9H,1-2H3	InChI=1S/C6H11NO2/c1-6(9)4-3(8)5(6)7(4)2/h3-5,8-9H,1-2H3/t3-,4+,5-,6-
