17
gdb 99558	2.34269	1.2051	0.95354	2.3064	76.64	-0.2647	0.0255	0.2903	1278.4894	0.131228	-421.731124	-421.720795	-421.719851	-421.766546	36.862	
C	-0.7742642686	 1.002650218	 0.0490093093	-0.238581
O	 0.4473516304	 0.3212395205	-0.1617735102	-0.244958
C	 0.9755916733	-0.3164990911	 0.9885702423	-0.105866
C	 0.1324434404	-1.4225090432	 1.45431798	 0.349054
C	-0.5629392243	-2.3199208135	 1.8480762436	-0.45157
C	 2.3837552034	-0.8143010857	 0.5588751955	-0.088812
O	 2.2885129015	-1.6224437589	-0.5940323614	-0.409907
C	 3.2924983725	 0.325935477	 0.376347689	 0.335923
C	 4.0414437966	 1.2537028989	 0.2280274383	-0.450932
H	-0.660780231	 1.7991793895	 0.7988460176	 0.112911
H	-1.054133158	 1.4503773727	-0.9067256648	 0.133784
H	-1.5670894412	 0.3180292907	 0.3762940867	 0.126497
H	 1.0967129045	 0.4138971527	 1.8040926333	 0.107062
H	-1.1708023183	-3.1200156318	 2.1928811145	 0.202712
H	 2.7701261576	-1.4596385559	 1.3548305443	 0.128014
H	 1.7709852056	-1.1137271126	-1.2319294862	 0.296514
H	 4.7090541957	 2.0686521928	 0.0929828081	 0.198155
64.3351	88.1349	123.6205	159.3495	184.144	194.4677	238.4823	279.4392	343.2292	391.0364	421.1055	483.3731	566.3159	585.5972	634.6103	636.5571	670.2319	681.7485	729.2818	877.1489	934.2524	1013.1188	1023.8881	1088.3139	1147.8675	1183.892	1203.6884	1273.4676	1294.1943	1341.6642	1360.8762	1432.2402	1479.7639	1484.9699	1510.042	2232.693	2236.376	2983.3491	2995.1591	3058.149	3063.2733	3127.6097	3501.0693	3502.9235	3777.588
COC(C#C)C(O)C#C	CO[C@@H](C#C)[C@@H](O)C#C	
InChI=1S/C7H8O2/c1-4-6(8)7(5-2)9-3/h1-2,6-8H,3H3	InChI=1S/C7H8O2/c1-4-6(8)7(5-2)9-3/h1-2,6-8H,3H3/t6-,7-/m0/s1
