20
gdb 122331	5.72591	0.67754	0.61751	1.1619	77.74	-0.2414	0.0299	0.2713	1815.8277	0.170715	-440.29519	-440.285495	-440.284551	-440.331489	33.068	
C	-0.16450975	 1.3398765853	 0.0819229477	-0.22752
O	-0.0033007923	-0.0567071779	 0.0318120644	-0.234075
C	 0.6485831108	-0.4868080479	-1.1441509736	-0.049799
C	 0.7597998123	-2.0037692375	-1.0745473609	-0.322054
C	 1.4357063774	-2.5947680532	-2.2674973797	 0.42787
N	 1.8929983572	-1.961771811	-3.2695940361	-0.318342
C	 2.4628253179	-2.9663804238	-4.1791716412	-0.186286
C	 2.2243118642	-4.3223461754	-3.4641780149	-0.110911
O	 1.5539906843	-3.9525373794	-2.2390103394	-0.259347
H	 0.8038980942	 1.8648344848	 0.060154157	 0.103911
H	-0.7721583962	 1.7122757034	-0.7582838121	 0.103914
H	-0.6741090051	 1.5781071678	 1.0188311292	 0.125025
H	 0.0852299646	-0.1853031441	-2.0405290466	 0.102626
H	 1.6480687011	-0.0334965712	-1.2296990829	 0.102572
H	 1.3092180701	-2.2975646812	-0.1725207104	 0.136429
H	-0.2375912847	-2.4476755528	-0.9745508782	 0.136441
H	 1.9668344061	-2.9133209002	-5.154146476	 0.116226
H	 3.5256679791	-2.7611273784	-4.3454970815	 0.11622
H	 1.5729618385	-5.0026436319	-4.0200983607	 0.11854
H	 3.1466400005	-4.8499143057	-3.2052220641	 0.11856
43.7802	70.5103	92.4101	108.2222	114.6289	220.3505	244.3217	283.3435	326.3145	493.0081	598.9958	732.3503	762.9084	804.8655	830.9821	926.0176	973.2491	988.9829	1004.8612	1035.1693	1086.3398	1089.1773	1125.3316	1163.3136	1182.186	1191.7492	1214.5376	1226.2017	1236.0647	1246.0226	1295.4104	1312.7495	1355.8399	1393.3977	1437.5886	1472.924	1482.9902	1484.6129	1504.3039	1505.6722	1527.1451	1528.1775	1740.7276	2966.5588	2985.554	3010.1676	3013.6993	3039.8735	3045.6934	3054.8845	3067.0946	3079.8447	3101.6366	3112.2759
COCCC1=NCCO1	COCCC1=NCCO1	
InChI=1S/C6H11NO2/c1-8-4-2-6-7-3-5-9-6/h2-5H2,1H3	InChI=1S/C6H11NO2/c1-8-4-2-6-7-3-5-9-6/h2-5H2,1H3
