19
gdb 89237	3.01902	1.58522	1.25294	1.6977	73.95	-0.2377	0.0672	0.3049	1041.2882	0.159799	-422.974178	-422.96669	-422.965746	-423.005749	30.764	
C	-0.1631600857	 1.5429590065	-0.0055237211	-0.401525
C	 0.0131947869	 0.0235064341	-0.0030122078	-0.002109
C	 0.9117821217	-0.5201438673	-1.1616774052	-0.311685
C	 1.9800524939	-1.2345513139	-0.35815884	 0.461087
O	 2.981868211	-1.865516525	-1.0618817074	-0.492507
C	 1.3339803844	-1.9207533353	 0.8979670816	-0.035793
O	 2.5673512303	-1.6720462906	 1.6704293744	-0.344361
C	 2.3130537243	-0.4150347891	 0.9385705066	-0.023667
C	 0.7886529727	-0.5064959845	 1.2091673121	-0.039504
H	 0.8053718458	 2.0544828795	 0.0335765902	 0.116219
H	-0.6789431524	 1.8779077549	-0.9113012981	 0.118348
H	-0.7504373272	 1.8759165581	 0.8569595737	 0.115578
H	-0.9767925481	-0.4456559636	-0.0406277912	 0.076539
H	 0.3839003723	-1.2044484439	-1.8321025823	 0.109285
H	 1.3371295184	 0.2814011308	-1.7741514927	 0.107943
H	 3.5607075242	-2.2595243821	-0.3926745789	 0.286976
H	 0.8572437655	-2.8965783583	 1.0015267596	 0.089182
H	 3.0114174172	 0.408402015	 1.0926116884	 0.089711
H	 0.4336548248	-0.3026606954	 2.2184456983	 0.080283
117.996	229.4517	242.9335	294.6382	350.5027	405.912	449.0267	505.6074	543.8978	653.0181	688.673	703.7765	753.0044	813.1549	851.2573	889.0587	898.6723	913.3457	943.3483	956.3358	1020.821	1045.3712	1055.5238	1115.0462	1122.7108	1137.6911	1157.663	1174.9999	1194.0737	1224.2893	1228.7429	1271.6592	1293.7293	1323.666	1364.3866	1375.8363	1413.0969	1427.8561	1495.8339	1499.0611	1503.5649	3027.1332	3032.7593	3052.4321	3092.3407	3097.8464	3100.0981	3107.642	3112.5532	3137.3952	3734.2815
CC1CC2(O)C3OC2C13	C[C@H]1C[C@]2(O)[C@H]3O[C@@H]2[C@@H]13	
InChI=1S/C7H10O2/c1-3-2-7(8)5-4(3)6(7)9-5/h3-6,8H,2H2,1H3	InChI=1S/C7H10O2/c1-3-2-7(8)5-4(3)6(7)9-5/h3-6,8H,2H2,1H3/t3-,4-,5-,6+,7-/m0/s1
