18
gdb 103141	2.36517	1.49249	1.14993	2.0094	69.39	-0.2614	0.0131	0.2745	1120.3056	0.146522	-476.221278	-476.212139	-476.211195	-476.254979	34.054	
C	-0.2506879489	 1.5303757524	 0.0546168755	-0.400399
C	 0.1026783473	 0.0650808279	-0.0194432404	 0.080586
O	 1.3736577497	-0.1721733547	-0.7464676102	-0.272494
C	 1.9529198542	-0.7425344543	 0.353753881	 0.403309
N	 3.0757732345	-1.2774055355	 0.5392311631	-0.574086
C	 0.7192242099	-0.6011069297	 1.2387362298	 0.2381
O	 0.8264031152	 0.2589773057	 2.3387039645	-0.469297
C	 0.2093233565	-1.9726844338	 1.6805227602	-0.130738
O	 1.1089857915	-2.4829903111	 2.6519537488	-0.430436
H	 0.5405998879	 2.096361849	 0.5491727203	 0.146288
H	-0.4084761779	 1.9302546824	-0.9510410941	 0.128966
H	-1.1734284145	 1.6596643952	 0.6283814207	 0.133337
H	-0.6849026715	-0.5243708519	-0.4993436551	 0.094681
H	 3.6665924033	-1.2492859375	-0.2933693727	 0.231029
H	 1.1574111969	-0.2914621137	 3.0629768027	 0.294967
H	-0.7643110745	-1.8722719958	 2.1715110558	 0.118329
H	 0.1007209561	-2.6472039333	 0.8188946411	 0.101725
H	 1.9756074645	-2.5506101114	 2.2211901891	 0.306133
93.8348	121.5793	157.3084	200.8609	220.9797	269.7027	289.151	340.953	448.858	454.7948	478.1674	568.2461	611.714	694.8745	746.0586	760.096	848.5246	867.6523	922.1985	988.0851	1026.219	1039.0401	1063.2486	1079.2653	1131.2955	1149.1832	1210.4158	1231.1885	1277.5122	1330.1049	1366.9927	1376.9349	1412.0488	1429.8994	1444.2134	1483.1138	1489.5497	1496.0162	1810.1112	3001.8483	3050.0403	3062.895	3080.5729	3119.8649	3146.0015	3473.9654	3705.9202	3744.7558
CC1OC(=N)C1(O)CO	C[C@H]1O[C]([NH])[C@]1(O)CO	
InChI=1S/C5H9NO3/c1-3-5(8,2-7)4(6)9-3/h3,6-8H,2H2,1H3	InChI=1S/C5H9NO3/c1-3-5(8,2-7)4(6)9-3/h3,6-8H,2H2,1H3/t3-,5+/m1/s1
