16
gdb 32344	4.89344	1.03944	0.86681	4.8857	79.67	-0.1893	-0.0563	0.133	1285.2022	0.126079	-434.114427	-434.106208	-434.105263	-434.147801	30.216	
C	-0.0305912778	 1.4645429109	 0.0906337689	-0.316166
N	-0.0053398612	 0.0497137623	-0.2569108835	-0.368447
C	-1.1622865881	-0.7128745712	-0.1033472894	 0.370146
C	-1.1443626678	-2.0741878342	 0.0450725218	-0.102012
N	-2.3334218686	-2.7528697138	 0.1058067997	-0.32625
C	-3.5908907345	-2.1579500622	 0.0408007655	 0.378855
O	-4.6264083887	-2.8036568976	 0.1010009783	-0.403481
C	-3.4720885062	-0.7062738365	-0.0965482357	-0.106781
N	-2.3559105171	-0.0452937219	-0.1624834941	-0.269
H	 0.9531318283	 1.8875923269	-0.1266233556	 0.119332
H	-0.7736578706	 1.9795454106	-0.5192311753	 0.155055
H	-0.2727177007	 1.6550586657	 1.1471649962	 0.111961
H	 0.8264668207	-0.4260339002	 0.0596264233	 0.233453
H	-0.2394348739	-2.6651431217	 0.1101402914	 0.123151
H	-2.3377095733	-3.7581118929	 0.2117041581	 0.266435
H	-4.4066318507	-0.1518033042	-0.1418403695	 0.133748
54.469	99.6869	163.0406	215.5863	324.8693	391.1369	395.7168	439.4944	497.1352	530.8321	624.6959	641.3911	717.9126	775.8552	801.2928	810.5129	841.4574	945.1617	982.6022	1070.9903	1142.243	1150.4571	1187.4557	1223.7308	1314.3598	1336.206	1406.5161	1447.366	1470.7177	1490.6588	1501.4332	1524.7496	1567.2439	1672.7496	1778.3396	2990.0729	3095.6599	3144.9329	3162.4043	3203.5627	3602.3061	3605.4043
CNC1=CNC(=O)C=N1	CNc1c[nH]c(=O)cn1	
InChI=1S/C5H7N3O/c1-6-4-2-8-5(9)3-7-4/h2-3H,1H3,(H,6,7)(H,8,9)	InChI=1S/C5H7N3O/c1-6-4-2-8-5(9)3-7-4/h2-3H,1H3,(H,6,7)(H,8,9)
