17
gdb 42055	2.43315	1.83582	1.17989	0.1383	83.34	-0.2211	-0.0568	0.1643	1031.4202	0.137675	-384.634897	-384.627244	-384.6263	-384.666619	29.995	
C	 0.0356281915	 1.4666540213	-0.099929793	-0.111489
O	 1.3248423129	 2.0840329679	-0.0917092024	-0.261123
C	 2.0914079214	 2.0694916779	 1.1147120233	-0.111496
C	 1.5694721467	 2.8971959454	 2.2827680495	-0.082012
C	 0.74222641	 2.4145270632	 3.2309841534	-0.166872
C	 0.214040277	 1.1115661638	 3.027385782	 0.044582
C	-0.0102047862	 0.099945119	 2.3961523147	 0.044576
C	-0.1141725662	-0.690342504	 1.2202397149	-0.16687
C	-0.012353928	-0.0500326268	 0.0386925731	-0.082022
H	-0.608510386	 1.914184678	 0.6654660737	 0.118792
H	-0.3709943266	 1.7395499334	-1.0785484719	 0.107943
H	 2.2539698016	 1.0398928382	 1.4531256999	 0.118794
H	 3.0596249225	 2.4753639396	 0.8059520511	 0.107942
H	 1.9263440071	 3.9203865931	 2.3685928607	 0.104979
H	 0.4428956014	 3.0186236633	 4.0814799678	 0.114647
H	-0.2084706414	-1.770288469	 1.2721996923	 0.114648
H	-0.0071059576	-0.6355805145	-0.877139469	 0.104979
150.116	208.0491	229.5833	233.2937	314.9152	355.8235	427.5532	441.1966	570.962	582.543	651.5557	658.5091	739.5203	776.7211	834.4404	891.0597	914.6791	964.4519	981.5791	982.9743	1027.6151	1090.463	1094.526	1175.4106	1221.4463	1239.6567	1292.0135	1330.5966	1385.6747	1389.8657	1414.6879	1419.3775	1493.8001	1493.9482	1626.2686	1626.8235	2275.8313	3034.0072	3039.2501	3083.6721	3085.3698	3159.1918	3159.342	3181.5429	3182.4773
C1OCC=CC#CC=C1	C1OCC=CC#CC=C1	
InChI=1S/C8H8O/c1-2-4-6-8-9-7-5-3-1/h3-6H,7-8H2/b5-3-,6-4-	InChI=1S/C8H8O/c1-2-4-6-8-9-7-5-3-1/h3-6H,7-8H2/b5-3-,6-4-
