15
gdb 44558	3.71438	1.53211	1.45379	5.3616	63.26	-0.2886	0.043	0.3317	913.1665	0.114868	-457.782366	-457.776059	-457.775114	-457.813251	25.019	
O	 0.0020983663	-0.0154476782	-0.0409583909	-0.366443
C	-0.0136926459	 1.1718326821	-0.0074969144	 0.486081
O	-1.1507807678	 1.9266602299	 0.0305593533	-0.252083
C	-0.8119603291	 3.3117507225	 0.0732552627	 0.06178
C	-0.8088437489	 4.0126448638	 1.4341134251	-0.066365
C	-0.0076375508	 3.2376555787	 2.4357758868	-0.311773
C	 0.7435871676	 4.0339006323	 1.4122888556	-0.066365
C	 0.7276351922	 3.3328388845	 0.0516063827	 0.06178
O	 1.102920075	 1.9575283999	-0.0011332202	-0.252083
H	-1.3405984093	 3.8369161822	-0.7220477295	 0.108766
H	-1.4968778302	 4.7968438647	 1.7211399186	 0.103726
H	 0.0004729383	 3.6675567123	 3.4316092374	 0.129708
H	 0.0071539862	 2.1527337172	 2.4312729477	 0.15078
H	 1.4176928505	 4.8367492782	 1.6801669276	 0.103726
H	 1.2191289259	 3.8719766	-0.7580407124	 0.108766
121.1708	155.988	315.6588	412.4252	542.8516	566.0633	664.8126	727.3955	760.3092	773.9427	779.6311	843.5692	873.9227	916.3295	935.7518	986.0333	986.1918	1010.2509	1021.2462	1061.2177	1092.4665	1107.4938	1111.7674	1121.3408	1185.7245	1242.4705	1268.4116	1315.2695	1352.9539	1368.2696	1372.7683	1505.2437	1925.4084	3112.551	3121.6807	3137.927	3198.8803	3206.0559	3219.9114
O=C1OC2C3CC3C2O1	O=C1O[C@H]2[C@H]3C[C@H]3[C@H]2O1	
InChI=1S/C6H6O3/c7-6-8-4-2-1-3(2)5(4)9-6/h2-5H,1H2	InChI=1S/C6H6O3/c7-6-8-4-2-1-3(2)5(4)9-6/h2-5H,1H2/t2-,3+,4-,5+
