22
gdb 99169	4.31102	0.73006	0.72457	3.2552	84.32	-0.2412	0.0369	0.2781	1700.3358	0.194021	-404.376483	-404.36628	-404.365336	-404.413948	36.06	
C	 0.4124632046	 1.4197281249	 0.2014301623	-0.332932
N	 0.3892045747	-0.0119578882	-0.0234419272	-0.31379
C	 0.503318161	-0.5651122844	-1.2667780005	 0.42484
O	 0.6567041074	 0.1013206398	-2.2764135227	-0.380207
C	 0.4048481403	-2.0899032255	-1.3076459618	-0.35733
C	 1.3764666051	-2.6963876017	-2.3108994245	 0.085982
C	 2.8910089256	-2.7666104643	-1.9636943516	-0.220011
C	 2.9394436429	-4.1570479597	-2.6528054748	-0.207736
C	 1.3951198089	-4.2371061143	-2.5095419775	-0.244919
H	 1.2312786401	 1.7057062908	 0.8711314238	 0.123412
H	 0.5622960359	 1.8951588542	-0.7685921696	 0.171792
H	-0.5310748266	 1.7748190734	 0.6316978743	 0.123366
H	 0.2671436104	-0.6244051617	 0.7651468127	 0.242984
H	 0.5590256355	-2.5239618806	-0.3113741818	 0.083345
H	-0.624884862	-2.3355492337	-1.6021886735	 0.125923
H	 1.2426683964	-2.1859655117	-3.2682594655	 0.099556
H	 3.5369865041	-1.9750988136	-2.3496593199	 0.104777
H	 3.0500831911	-2.8501407609	-0.882407383	 0.087808
H	 3.2437223854	-4.0776719764	-3.700272256	 0.104228
H	 3.5347732481	-4.9405467201	-2.1782025546	 0.092869
H	 1.1059101647	-4.7626534356	-1.592566605	 0.091149
H	 0.8193281464	-4.6515084005	-3.3412444837	 0.094891
16.9695	53.5494	83.6751	101.3631	159.2576	165.3411	288.7497	313.9466	369.7332	430.1031	454.9929	603.0477	645.4545	719.8125	771.556	795.5044	877.3738	896.6945	906.9423	932.7556	967.4761	975.5515	1052.3937	1062.3984	1109.2401	1142.6355	1154.1444	1171.9875	1197.8064	1205.3333	1242.6674	1254.885	1257.3021	1266.6987	1276.7707	1302.9406	1338.8814	1395.9021	1436.7867	1461.0839	1479.2148	1486.0557	1492.33	1500.7793	1510.0485	1558.395	1774.5679	3012.0498	3025.2555	3037.9099	3041.9515	3049.3099	3058.748	3076.0055	3078.5736	3096.2454	3102.957	3117.8054	3153.3595	3654.3105
CNC(=O)CC1CCC1	CNC(=O)CC1CCC1	
InChI=1S/C7H13NO/c1-8-7(9)5-6-3-2-4-6/h6H,2-5H2,1H3,(H,8,9)	InChI=1S/C7H13NO/c1-8-7(9)5-6-3-2-4-6/h6H,2-5H2,1H3,(H,8,9)
