16
gdb 46868	2.50351	1.77834	1.22994	6.2371	70.28	-0.2373	-0.0532	0.1841	1004.6428	0.126452	-437.926094	-437.918665	-437.917721	-437.958171	28.541	
O	-0.0136252824	-0.0350946661	-0.2514053805	-0.33812
C	-0.0238309459	 1.1641629521	-0.0830003363	 0.281854
N	-1.1775992702	 1.89875075	 0.0065701313	-0.320432
C	-1.272611313	 3.3518463691	-0.0034952889	-0.185672
C	-0.1465065458	 3.9903030439	 0.782305207	-0.030458
C	 0.3323990826	 3.3756897582	 2.0520366448	-0.301623
C	 1.1970920152	 3.2740704961	 0.7949329262	-0.137084
C	 1.2873883589	 1.9768366438	 0.0789925083	 0.326395
O	 2.3148758675	 1.5452092221	-0.3822725385	-0.299544
H	-2.0191414169	 1.3646053432	-0.1614993524	 0.253965
H	-1.2664950678	 3.7436618646	-1.031605539	 0.123082
H	-2.237115623	 3.6281349399	 0.4374623199	 0.125614
H	-0.1083439379	 5.0713151159	 0.6978342712	 0.109132
H	 0.7073748641	 4.0273601788	 2.8320885912	 0.133879
H	-0.1506386403	 2.4722955181	 2.4062498546	 0.143361
H	 2.1100877449	 3.8572472902	 0.7657091111	 0.115652
77.316	149.5458	247.1952	314.2838	341.3693	426.7615	465.3773	484.8761	564.7876	612.4674	669.9464	744.4502	766.1525	818.3129	861.0031	919.8676	954.96	982.0166	1050.6496	1077.51	1080.4933	1124.6969	1132.3146	1205.0013	1206.3977	1273.2417	1329.0285	1354.5318	1374.1698	1417.1574	1475.4531	1489.9531	1519.0765	1802.4691	1812.8539	2991.2733	3055.8493	3147.6009	3167.3138	3186.5618	3237.028	3594.805
O=C1NCC2CC2C1=O	O=C1NC[C@H]2C[C@H]2C1=O	
InChI=1S/C6H7NO2/c8-5-4-1-3(4)2-7-6(5)9/h3-4H,1-2H2,(H,7,9)	InChI=1S/C6H7NO2/c8-5-4-1-3(4)2-7-6(5)9/h3-4H,1-2H2,(H,7,9)/t3-,4-/m1/s1
