17
gdb 40583	4.39134	1.18135	1.11507	2.8583	70.93	-0.2383	0.0665	0.3048	1108.7394	0.136277	-421.723789	-421.716812	-421.715868	-421.755717	27.363	
C	-0.2749612972	 1.0990009587	-0.5368645969	-0.18219
O	 0.6057021496	 1.6864633235	 0.4187478549	-0.238527
C	 0.6014426906	 0.2569266596	 0.2879717602	 0.059368
C	 0.0754934545	-0.5108376433	 1.4668856949	-0.007406
C	-0.3133024568	-1.9877185797	 1.3264233669	-0.146181
C	 0.9956223024	-2.7601002196	 1.5726072756	 0.09362
O	 2.0458855569	-1.8080861935	 1.7398519692	-0.289261
C	 1.0956199593	-1.031216272	 2.5262221962	 0.040513
C	 0.1907273953	-2.3007258893	 2.7354659477	-0.150855
H	-1.3362972233	 1.1665585128	-0.2979164396	 0.107817
H	-0.0248424236	 1.2794520303	-1.5816218081	 0.114164
H	 1.5020791043	-0.1534152291	-0.1657766168	 0.107521
H	-0.7226557989	 0.0507574712	 1.9615431286	 0.085535
H	-1.1587241017	-2.4186656606	 0.8054133787	 0.09371
H	 1.2266188946	-3.7391866298	 1.1752733551	 0.113035
H	 1.5651969843	-0.3886536682	 3.2669990003	 0.094797
H	-0.2577098303	-2.787956921	 3.5890836329	 0.104341
70.4502	158.853	172.2563	324.8353	422.1372	515.764	620.0227	760.2349	771.7117	790.3167	796.7163	829.2755	859.1892	866.3423	902.6036	926.7314	970.7627	990.0463	993.9091	1026.8955	1031.3486	1062.5074	1076.0329	1106.2137	1148.2489	1156.4802	1166.8737	1171.4323	1187.7593	1223.9276	1228.5795	1280.9165	1297.5385	1318.609	1372.1917	1453.8596	1530.637	3072.9786	3077.5466	3132.4884	3155.8648	3163.3007	3198.188	3210.0194	3225.9225
C1OC1C1C2C3OC1C23	C1O[C@H]1[C@H]1[C@H]2[C@H]3O[C@@H]1[C@@H]23	
InChI=1S/C7H8O2/c1-2(8-1)3-4-5-6(3)9-7(4)5/h2-7H,1H2	InChI=1S/C7H8O2/c1-2(8-1)3-4-5-6(3)9-7(4)5/h2-7H,1H2/t2-,3+,4-,5-,6+,7-/m1/s1
