19
gdb 36372	4.71205	0.75335	0.69449	4.7404	81.49	-0.2594	0.0373	0.2967	1613.1282	0.159642	-382.044558	-382.035554	-382.03461	-382.07966	32.802	
N	 0.1514096387	-1.1049543738	-0.8450673759	-0.305556
C	 0.0720360331	-0.0346164504	-0.4170732685	 0.258808
C	-0.0022874842	 1.317385648	 0.1377263577	-0.340703
C	 1.3563029383	 2.0028249078	 0.1447561854	-0.022018
N	 1.7256471942	 2.7354153053	-1.0700622863	-0.334668
C	 1.5142331217	 3.4843006714	 0.1793301714	-0.035116
C	 0.3830599295	 4.4599905679	 0.2226115029	 0.033944
C	 0.0864275545	 5.2014918991	 1.5051947798	-0.271146
C	 0.6774994963	 5.9369909358	 0.3307651053	-0.276086
H	-0.7114965332	 1.9001451075	-0.4558126651	 0.159116
H	-0.4000468536	 1.253548784	 1.1574730047	 0.152782
H	 2.1310351784	 1.4230181718	 0.6430717574	 0.102016
H	 2.7124088232	 2.6253922701	-1.2834278277	 0.239439
H	 2.4038726521	 3.8306423589	 0.70732097	 0.084443
H	-0.4673102199	 4.191455255	-0.3950834529	 0.091106
H	-0.9503411207	 5.3844104132	 1.7640094544	 0.117387
H	 0.7287171643	 5.0111194375	 2.3590545469	 0.113324
H	 1.7175170756	 6.2407273585	 0.3936456399	 0.113822
H	 0.0473695716	 6.6249181225	-0.2211335493	 0.119106
41.3198	57.1978	104.2987	165.5275	235.2529	292.9229	367.4151	385.1286	433.0584	518.0753	575.7294	754.2426	811.8462	822.4694	828.1269	881.8356	909.7555	929.147	953.4239	966.155	999.0432	1019.0154	1057.5378	1074.4657	1080.1234	1124.9319	1156.1046	1196.1692	1198.6296	1224.2387	1248.5113	1263.1386	1277.6662	1313.1099	1338.3061	1427.049	1452.1418	1470.1688	1488.0864	1511.3208	2362.8695	3048.7143	3092.9858	3103.8893	3127.1207	3131.1006	3135.6888	3164.8117	3210.1101	3225.518	3519.262
N#CCC1NC1C1CC1	N#CC[C@H]1N[C@H]1C1CC1	
InChI=1S/C7H10N2/c8-4-3-6-7(9-6)5-1-2-5/h5-7,9H,1-3H2	InChI=1S/C7H10N2/c8-4-3-6-7(9-6)5-1-2-5/h5-7,9H,1-3H2/t6-,7+/m1/s1
