18
gdb 56345	4.59107	0.569	0.55706	3.3713	70.07	-0.2586	-0.0383	0.2203	1926.8554	0.146066	-476.254331	-476.244534	-476.24359	-476.291241	33.383	
O	-0.6641376831	 0.0072157781	 0.5616029704	-0.361756
C	-0.314858078	 1.294440617	 0.4071426673	 0.423324
O	 0.5664666845	 1.8193219351	 1.0285911242	-0.325318
C	-1.1357451316	 2.0182981568	-0.6732277785	-0.312562
N	-2.3688771328	 1.292223384	-0.9796956755	-0.320287
H	-2.614005055	 1.4017656306	-1.9570937133	 0.237965
H	-1.4047289402	-0.1320273983	-0.0661484614	 0.30107
C	-3.5067222113	 1.6690969423	-0.136144204	-0.148622
C	-4.7527065205	 0.8571708369	-0.5058672241	-0.289312
C	-5.8978798838	 1.1134327866	 0.4514040779	 0.157329
O	-6.9948368714	 1.4807830755	 0.1232015299	-0.226196
H	-1.2939357889	 3.0536199316	-0.3440850054	 0.133957
H	-0.5095627909	 2.0569667453	-1.5707410691	 0.144462
H	-3.2303532526	 1.4688128728	 0.9067027933	 0.130408
H	-3.7279911734	 2.747061389	-0.2036679398	 0.115905
H	-5.0939175053	 1.0820224392	-1.5212622396	 0.124456
H	-4.5009096111	-0.2112761932	-0.4542809303	 0.132621
H	-5.6494770246	 0.9298477608	 1.5228575281	 0.082556
46.2437	51.2756	75.6307	88.8353	129.8767	194.3381	312.246	331.9738	368.9855	502.9399	555.9213	563.2272	660.3	762.6491	791.7168	847.2864	865.9869	877.9803	948.0777	1017.3073	1040.6183	1107.3617	1134.4565	1137.9842	1202.1778	1222.0397	1253.0101	1290.5955	1314.855	1356.5427	1391.9432	1419.2198	1428.4758	1466.6834	1468.6959	1484.5981	1518.174	1840.6312	1883.0081	2862.6664	2971.2029	3023.4508	3026.0856	3046.9761	3085.9777	3095.4021	3510.9539	3538.8485
[O-]C(=O)C[NH2+]CCC=O	OC(=O)CNCCC=O	
InChI=1S/C5H9NO3/c7-3-1-2-6-4-5(8)9/h3,6H,1-2,4H2,(H,8,9)	InChI=1S/C5H9NO3/c7-3-1-2-6-4-5(8)9/h3,6H,1-2,4H2,(H,8,9)
