21
gdb 116882	3.50009	0.55778	0.49676	2.8131	90.83	-0.2417	-0.025	0.2166	2256.638	0.179008	-387.085005	-387.07371	-387.072766	-387.123983	38.382	
C	-0.007741262	 1.5991129503	 0.011816691	-0.382262
C	 0.0102966587	 0.0695030445	 0.0201052501	-0.154188
C	-1.4100544919	-0.5321695289	-0.001624762	-0.336037
C	-1.4208319613	-1.9908531411	 0.0093781473	 0.007769
C	-1.4022838509	-3.1957822662	 0.0385121208	 0.113636
C	-1.3772832558	-4.6549175828	 0.0148050632	-0.212202
C	-2.8007040338	-5.262261896	 0.0015341029	-0.396652
C	-0.6305904467	-5.1276585874	-1.2358206721	 0.173915
O	 0.2469030009	-5.9476201264	-1.2323333828	-0.244073
H	 1.0078073121	 2.0055628933	 0.026801272	 0.117035
H	-0.5083191758	 1.9863610813	-0.8827047841	 0.116338
H	-0.5379303931	 1.9952062753	 0.8851395052	 0.116409
H	 0.5671588019	-0.3067499724	-0.8451945417	 0.110467
H	 0.5361273138	-0.2977688863	 0.9083266088	 0.111088
H	-1.9762168035	-0.1570322779	 0.8618340354	 0.1278
H	-1.944448776	-0.1688174676	-0.8898972489	 0.126637
H	-0.8251405485	-5.0464387888	 0.8765287559	 0.121243
H	-2.7478075868	-6.3543861581	 0.0238415696	 0.131502
H	-3.362059404	-4.9171143417	 0.8728484805	 0.136924
H	-3.3456879074	-4.9538730218	-0.8957121846	 0.130536
H	-0.9887926599	-4.6512643114	-2.1762755365	 0.084118
20.6804	42.6805	71.2293	86.4868	137.2699	166.8001	225.8408	240.8579	281.3042	323.7195	333.2111	407.874	468.7001	521.8925	546.4208	742.3871	782.1018	871.7875	881.387	896.4424	932.7312	1036.5408	1053.8919	1085.1212	1108.3352	1121.7097	1127.1247	1177.8692	1259.561	1270.4109	1306.1772	1322.7453	1326.7491	1381.0548	1398.147	1412.3409	1417.1437	1472.2865	1491.8938	1492.1389	1497.7045	1498.9495	1508.6665	1838.7984	2359.3481	2881.3259	3010.0392	3030.1386	3036.9138	3042.9642	3043.7667	3051.0317	3074.5492	3101.0535	3107.2793	3120.2527	3129.592
CCCC#CC(C)C=O	CCCC#C[C@@H](C)C=O	
InChI=1S/C8H12O/c1-3-4-5-6-8(2)7-9/h7-8H,3-4H2,1-2H3	InChI=1S/C8H12O/c1-3-4-5-6-8(2)7-9/h7-8H,3-4H2,1-2H3/t8-/m1/s1
