21
gdb 33167	3.03757	1.05398	0.84081	4.2061	85.15	-0.2094	0.036	0.2454	1434.8293	0.183488	-383.322161	-383.312644	-383.3117	-383.357207	34.421	
C	-0.072398677	 1.5545363902	-0.0112030657	-0.380507
C	-0.0212737403	 0.0250362201	-0.0143099034	-0.173107
C	 0.7483274394	-0.529475281	 1.1921132389	-0.165921
N	 0.8047630269	-1.9815176224	 1.2273038799	-0.036025
C	-0.0877194577	-2.8024154647	 1.8599221398	-0.007772
N	 0.1818559357	-4.0730344887	 1.6777635571	-0.277316
C	 1.3040149679	-4.0822278781	 0.8831392001	-0.162276
C	 1.7150926088	-2.8068690263	 0.5849869497	 0.266845
C	 2.8709424777	-2.3025448549	-0.2107598347	-0.509672
H	 0.933774371	 1.9872178934	-0.0424130158	 0.118978
H	-0.6226308613	 1.9313092331	-0.8778688389	 0.123291
H	-0.5683970468	 1.9351465925	 0.8885336489	 0.119832
H	-1.035692197	-0.3900253795	-0.0033060618	 0.113601
H	 0.4490708288	-0.3340672374	-0.9368668112	 0.112523
H	 1.7717401784	-0.1396168083	 1.1981430709	 0.11956
H	 0.2768297682	-0.1926725073	 2.1216395827	 0.121334
H	-0.9054714025	-2.4027467882	 2.4429475121	 0.118073
H	 1.7670367235	-5.006950578	 0.5706357272	 0.100343
H	 2.5624210997	-1.7146530669	-1.084099026	 0.128845
H	 3.5451718295	-1.6727679124	 0.3834329488	 0.129105
H	 3.4543362871	-3.150849045	-0.5765135388	 0.140266
61.0695	80.5098	100.1742	151.9883	229.3505	241.7863	263.5196	295.6753	372.5429	415.8396	642.3215	667.7725	681.3238	747.7689	761.5591	802.3392	836.0476	879.5957	901.1075	933.4495	1006.1415	1042.2554	1064.9127	1114.0462	1123.9389	1148.8278	1207.7251	1248.9544	1270.0496	1295.8133	1319.4929	1331.1817	1401.2468	1402.0549	1415.21	1419.2506	1422.421	1479.3293	1482.889	1486.6439	1493.8955	1500.0472	1510.7195	1534.2982	1602.12	3015.7218	3032.0365	3035.4839	3047.3379	3059.0741	3065.1317	3087.9656	3103.5127	3111.3465	3120.0167	3235.0451	3239.935
CCCN1C=NC=C1C	CCCn1cncc1C	
InChI=1S/C7H12N2/c1-3-4-9-6-8-5-7(9)2/h5-6H,3-4H2,1-2H3	InChI=1S/C7H12N2/c1-3-4-9-6-8-5-7(9)2/h5-6H,3-4H2,1-2H3
