21
gdb 78278	3.30968	1.24018	1.07813	2.1548	85.25	-0.1843	0.0718	0.2561	1237.4409	0.179931	-383.151944	-383.142859	-383.141915	-383.184872	35.531	
C	-0.2360887665	 1.2166202798	-0.1168228932	-0.319865
N	 0.0861879742	-0.1998576863	 0.0351770699	-0.074445
C	 1.5271971681	-0.4699518766	-0.1105143485	-0.060612
C	 0.8972125074	-0.4648368754	 1.2348539398	-0.10873
C	 1.1857563902	-2.0070482836	 1.3809400788	 0.337014
C	 1.5856867616	-2.6212932507	 2.6862956008	-0.514918
C	 1.7874681849	-2.0023521786	 0.0177142886	-0.142368
N	 0.5066345805	-2.6972482549	 0.2691782868	-0.112395
C	 0.6220125694	-4.1505440332	 0.2582371342	-0.325551
H	 0.5477249213	 1.9051278473	 0.2464825639	 0.090607
H	-0.411450611	 1.4287280628	-1.1762283895	 0.123825
H	-1.1583504442	 1.4307798559	 0.4325666656	 0.123673
H	 2.1902257498	 0.2524046167	-0.5701274161	 0.089757
H	 0.9694275471	 0.2629007524	 2.0348027821	 0.086251
H	 0.7315310205	-2.6661614629	 3.3736403235	 0.126716
H	 1.976253306	-3.6342693678	 2.5653957862	 0.127281
H	 2.3649607627	-2.0210757056	 3.1690910239	 0.124035
H	 2.643680847	-2.5408523416	-0.370383725	 0.087813
H	 1.6018037764	-4.5499367534	 0.5708166049	 0.093352
H	-0.1430737129	-4.5772491812	 0.914849832	 0.122944
H	 0.4286776875	-4.501669683	-0.7604475785	 0.125616
161.9273	173.5092	185.2402	218.0657	243.8673	264.5805	296.853	313.3371	360.6379	405.1094	453.7974	571.359	657.607	760.0636	783.9879	822.3724	831.3275	848.0284	849.7157	913.5985	939.0697	980.4611	1014.6425	1084.9712	1114.9046	1123.6879	1132.9416	1142.4056	1158.4287	1164.0122	1199.1507	1210.0515	1272.343	1286.7921	1331.5094	1402.6115	1430.7729	1450.8414	1456.7602	1481.7581	1488.0884	1491.0855	1496.5757	1500.103	1510.4375	2942.0482	2954.0072	3023.4057	3062.0473	3063.5234	3078.2881	3100.6095	3102.9259	3119.6387	3176.0072	3183.2887	3195.6137
CN1C2C1C1(C)C2N1C	CN1[C@H]2[C@@H]1[C@]1(C)[C@H]2N1C	
InChI=1S/C7H12N2/c1-7-5-4(8(5)2)6(7)9(7)3/h4-6H,1-3H3	InChI=1S/C7H12N2/c1-7-5-4(8(5)2)6(7)9(7)3/h4-6H,1-3H3/t4-,5+,6-,7+,8?,9?/m0/s1
