18
gdb 39246	2.73584	2.1959	1.57893	3.8012	73.71	-0.2393	0.0037	0.243	879.7478	0.151505	-401.932719	-401.926377	-401.925433	-401.963217	26.555	
C	 0.0411161654	 1.3913147229	-0.4743377327	-0.218449
C	 1.2681925172	 2.076548874	 0.2040519502	-0.237701
C	 2.1725402607	 0.9545595618	 0.826982421	-0.046287
C	 2.3298426346	 1.1194855017	 2.3850904193	-0.172939
N	 0.9577057557	 0.8357404439	 2.9290877135	-0.29117
C	 0.4684923656	 0.1028847639	 2.0235546721	 0.385724
O	-0.7851689768	-0.0194469257	 1.4810591421	-0.287592
C	-0.1103549291	-0.0069556484	 0.1343300687	 0.076129
C	 1.253058135	-0.271566839	 0.8017383091	-0.162285
H	-0.8750457437	 1.980955235	-0.3881064802	 0.124773
H	 0.2339802776	 1.2475416483	-1.5440163861	 0.110699
H	 1.825070704	 2.675140069	-0.5207896186	 0.103037
H	 0.9310499965	 2.7591694587	 0.987144254	 0.131441
H	 3.1266553173	 0.8455089693	 0.3057359778	 0.068785
H	 3.0904351386	 0.4415950549	 2.7950624613	 0.104734
H	 2.6040987957	 2.1391011325	 2.6707343478	 0.115722
H	-0.5806424785	-0.7545446278	-0.5033343977	 0.097751
H	 1.6820550242	-1.2705110148	 0.7478204983	 0.09763
133.879	262.3998	343.8649	370.4207	492.2787	577.0089	624.696	680.7138	718.6032	747.1633	804.6093	822.7177	851.5084	891.3048	901.6279	920.6764	954.2103	975.7887	984.608	1011.9978	1039.8337	1076.0102	1119.9416	1160.4395	1184.9043	1207.0074	1223.6171	1232.8531	1267.5036	1282.5524	1301.1266	1316.375	1343.7985	1349.03	1354.3362	1469.3488	1491.1143	1495.4563	1737.6153	3020.1163	3043.0611	3069.2986	3080.8774	3088.0673	3100.7159	3117.9062	3123.8689	3136.1063
C1CC2CN=C3OC1C23	C1C[C@H]2C[N][C]3O[C@@H]1[C@@H]23	
InChI=1S/C7H9NO/c1-2-5-6-4(1)3-8-7(6)9-5/h4-6H,1-3H2	InChI=1S/C7H9NO/c1-2-5-6-4(1)3-8-7(6)9-5/h4-6H,1-3H2/t4-,5-,6+/m0/s1
