17
gdb 126430	2.9372	1.26739	0.94614	2.1835	71.03	-0.2057	0.0402	0.2459	1229.6446	0.135841	-455.160856	-455.151627	-455.150683	-455.194818	33.754	
C	 0.1011670255	 1.5593167736	 0.0983255676	-0.376047
C	-0.1042930415	 0.0502178177	-0.1172934857	-0.291201
C	 0.688300591	-0.4881072016	-1.2685298337	 0.275343
N	 0.089893218	-0.9825127166	-2.3502080193	-0.31117
N	 1.1070510199	-1.348616979	-3.1799119162	-0.270586
C	 2.3206903035	-1.1102074308	-2.6419318126	 0.401221
O	 3.4580978191	-1.3981894566	-3.3054261193	-0.435825
C	 2.0984024469	-0.5538469707	-1.4003611229	 0.00333
O	 3.1070120492	-0.1065894231	-0.5711514772	-0.458303
H	 1.1564293629	 1.787865743	 0.2747583719	 0.126568
H	-0.2203196023	 2.1227313987	-0.7826909695	 0.125046
H	-0.4750272898	 1.9127093301	 0.9591499972	 0.108415
H	 0.1679255695	-0.4843921311	 0.8033801459	 0.090852
H	-1.1596873366	-0.1686381427	-0.3050373679	 0.121717
H	 0.9046242031	-1.7454628779	-4.0806570995	 0.276935
H	 4.1882329557	-1.1089980895	-2.7435161852	 0.313394
H	 3.0727510859	-0.5971487435	 0.2571832863	 0.300309
63.6266	121.6793	189.8038	230.3241	241.4542	245.5953	297.6039	337.6926	374.498	389.8337	466.2418	536.3839	582.7816	683.9921	723.025	731.7738	783.8223	806.3723	968.7907	1042.4664	1084.1342	1093.0071	1142.1907	1184.0599	1226.2412	1275.0615	1307.7144	1350.746	1392.1678	1407.9195	1439.2611	1479.9808	1497.0814	1503.6184	1523.7269	1594.8395	1674.3639	3010.0333	3039.0549	3083.3389	3109.9999	3118.0252	3686.313	3792.6272	3794.137
CCC1=NNC(O)=C1O	CCc1n[nH]c(O)c1O	
InChI=1S/C5H8N2O2/c1-2-3-4(8)5(9)7-6-3/h8H,2H2,1H3,(H2,6,7,9)	InChI=1S/C5H8N2O2/c1-2-3-4(8)5(9)7-6-3/h8H,2H2,1H3,(H2,6,7,9)
