18
gdb 106569	2.63902	1.53018	1.23573	1.4176	77.42	-0.2462	-0.0009	0.2454	1077.4676	0.147676	-401.92426	-401.916068	-401.915124	-401.957213	31.189	
C	 0.0438983527	 1.5717198804	-0.089360751	-0.380029
C	-0.0366154218	 0.0436894654	 0.022450779	-0.317215
C	 0.6663152463	-0.5053333552	 1.2378726128	 0.169202
N	 2.1579821857	-0.2684408997	 1.423628493	-0.318691
C	 2.0935663888	-1.381894963	 2.4410343739	-0.18651
C	 1.1162085648	-0.7954394976	 3.4310274381	-0.065378
C	 0.1873964057	-0.2225410988	 2.647905658	-0.097196
C	 1.0587111422	-2.0408509142	 1.4299268641	 0.375962
O	 0.8733541037	-3.07566781	 0.8800370636	-0.316727
H	 1.0840051866	 1.9074172494	-0.1271202866	 0.133617
H	-0.4631773726	 1.9214766535	-0.9933092217	 0.115439
H	-0.4263563479	 2.0574718976	 0.7713479046	 0.1216
H	-1.0843737128	-0.2781830791	 0.0612082826	 0.115252
H	 0.3875295342	-0.4225369485	-0.8753438328	 0.107949
H	 2.6471188915	-0.6129362045	 0.5909250097	 0.22184
H	 3.01996159	-1.8466340587	 2.7691403233	 0.090325
H	 1.1434400408	-0.9182984685	 4.5033253072	 0.117106
H	-0.7483079878	 0.2486266315	 2.9118827419	 0.113453
73.745	131.323	157.7428	194.4173	273.313	329.5881	428.7778	512.5526	544.6768	623.2762	663.8122	741.1783	766.622	787.2481	801.2415	871.4432	884.2849	907.8316	936.7508	964.1335	982.7366	997.3015	1069.4061	1094.0435	1096.2842	1133.7557	1168.3755	1228.8269	1280.6028	1293.2254	1314.4725	1372.7128	1398.1027	1414.748	1483.7947	1495.9481	1506.6462	1594.119	1891.3552	3030.7094	3042.1276	3062.5868	3110.729	3119.065	3160.4437	3230.5349	3256.0454	3399.5057
CCC12NC(C=C1)C2=O	CC[C@@]12N[C@@H](C=C1)C2=O	
InChI=1S/C7H9NO/c1-2-7-4-3-5(8-7)6(7)9/h3-5,8H,2H2,1H3	InChI=1S/C7H9NO/c1-2-7-4-3-5(8-7)6(7)9/h3-5,8H,2H2,1H3/t5-,7+/m0/s1
