18
gdb 9092	4.68038	0.81487	0.73223	1.1905	70.43	-0.2512	-0.0363	0.215	1487.2598	0.150099	-384.962007	-384.952321	-384.951377	-384.998321	32.317	
C	 0.1070977497	 1.5386395884	 0.1427375745	-0.410825
C	 0.0375608399	 0.0116970268	-0.0266560672	-0.059503
C	-1.4059084941	-0.5377736508	 0.0204344124	-0.209758
C	-2.1141242157	-0.3138237857	 1.3686572738	-0.282395
C	-3.4403456447	-1.0412702405	 1.4203024173	 0.159572
O	-4.5030193855	-0.521160726	 1.6383479715	-0.232017
C	 0.6495999252	-0.3704726461	-1.3622174764	 0.158381
O	 1.5642395381	-1.1373321346	-1.5127213434	-0.245138
H	 1.1415426234	 1.8909775938	 0.0895328909	 0.133444
H	-0.4641513287	 2.0481456175	-0.6416891243	 0.125413
H	-0.2996458212	 1.8494624783	 1.1082038769	 0.13321
H	 0.6358549288	-0.4812413657	 0.7478331717	 0.097172
H	-1.9987621845	-0.0774146759	-0.7808616799	 0.116616
H	-1.3784383258	-1.6143304222	-0.191843074	 0.117765
H	-1.4843098178	-0.7170664007	 2.1752087578	 0.123296
H	-2.2967931838	 0.7438835464	 1.5715288462	 0.1284
H	-3.3672931198	-2.1382827872	 1.2292565301	 0.075045
H	 0.1672248065	 0.1271002544	-2.238597328	 0.071325
42.8149	51.4704	69.9317	100.0335	168.41	216.3222	280.3329	315.9485	363.7337	377.8438	525.3082	563.1243	767.1449	839.5942	871.1827	915.3813	961.6938	985.5424	1026.4117	1054.7387	1129.2507	1156.5208	1159.4174	1218.2343	1254.0917	1303.0777	1315.6642	1361.3343	1381.7637	1407.7175	1428.8279	1429.6215	1464.7772	1489.8785	1497.7854	1505.0403	1836.7253	1839.1204	2839.0992	2853.2071	3011.0198	3019.2861	3036.7599	3047.6679	3062.6716	3105.5196	3111.7485	3122.9005
CC(CCC=O)C=O	C[C@@H](CCC=O)C=O	
InChI=1S/C6H10O2/c1-6(5-8)3-2-4-7/h4-6H,2-3H2,1H3	InChI=1S/C6H10O2/c1-6(5-8)3-2-4-7/h4-6H,2-3H2,1H3/t6-/m0/s1
