19
gdb 37301	2.8249	2.11352	1.78029	0.386	80.96	-0.2165	0.0173	0.2338	863.443	0.16331	-348.725631	-348.719564	-348.71862	-348.755559	27.152	
C	-0.019971697	 1.5447007743	 0.065838969	-0.297194
C	 1.2902390562	 0.8091029391	-0.0050224728	-0.01934
C	-0.0107586932	 0.0295231992	 0.0002162236	-0.044592
C	-0.1090934792	-0.6960491569	-1.3819742855	-0.110265
C	-0.842940265	 0.2027907543	-2.3654439588	-0.080824
C	 0.0241613461	 0.9712837566	-3.0288611234	-0.088626
C	 1.4335330007	 0.564816887	-2.7368045458	-0.08785
C	 2.0089369634	 0.4757991881	-1.2983649845	-0.064696
C	 1.3471268269	-0.7107507806	-1.9393978562	-0.07518
H	-0.2743674349	 1.9827703467	 1.0266694196	 0.101201
H	-0.3578862969	 2.1183007	-0.7866288921	 0.120058
H	 1.926408901	 0.8327906846	 0.8748637071	 0.076563
H	-0.3375119474	-0.5172800713	 0.8786136859	 0.078879
H	-0.5520467228	-1.6869702141	-1.2632434591	 0.066938
H	-1.9198752941	 0.3276554415	-2.3512768329	 0.09217
H	-0.2296694211	 1.7874365657	-3.6956952632	 0.091459
H	 2.182887271	 0.6840044307	-3.5132870823	 0.080201
H	 3.0923813045	 0.5310250141	-1.2637491215	 0.081931
H	 1.849136522	-1.6316892491	-2.212893167	 0.079169
202.2376	284.6825	443.9416	458.5352	584.0721	633.9862	676.4068	687.9675	730.499	767.6296	777.8952	797.1543	815.0418	827.3438	878.0928	924.6776	929.7059	944.8977	976.5643	992.7866	1005.0819	1020.7455	1032.1459	1063.93	1083.8703	1097.2112	1099.4298	1110.2112	1129.7788	1145.1355	1210.9135	1241.2425	1268.2319	1281.6282	1307.384	1356.5514	1364.3104	1377.1961	1399.4524	1481.9702	1657.1679	3084.8445	3129.2726	3138.8269	3150.1651	3156.9698	3160.2988	3173.9946	3184.0126	3209.656	3229.246
C1C2C1C1C=CC3C2C13	C1[C@H]2[C@@H]1[C@H]1C=C[C@H]3[C@@H]2[C@@H]13	
InChI=1S/C9H10/c1-2-5-8-4(1)6-3-7(6)9(5)8/h1-2,4-9H,3H2	InChI=1S/C9H10/c1-2-5-8-4(1)6-3-7(6)9(5)8/h1-2,4-9H,3H2/t4-,5-,6+,7+,8+,9+/m1/s1
