14
gdb 49046	2.19474	1.85891	1.34055	3.4415	63.51	-0.2646	-0.0554	0.2092	964.4233	0.099484	-473.785639	-473.777924	-473.77698	-473.818788	27.517	
N	 0.1709478629	 1.0893290475	-0.6227107941	-0.53562
C	 0.0607480383	-0.0583890338	-0.1462488442	 0.424111
O	 1.0060320323	-0.9515212329	 0.342198537	-0.268935
C	-0.0038983233	-1.9622925278	 0.606025362	 0.017834
C	-0.6509532806	-1.8129892128	 1.9871167148	-0.109252
O	-1.6272618981	-0.8663411857	 1.4712657825	-0.321667
C	-1.1159707307	-0.9950574593	 0.1308802578	 0.216697
C	-2.1706216955	-1.2387856691	-0.9149323755	 0.078196
O	-1.9125449693	-1.6187416999	-2.0257956575	-0.237556
H	 1.1399371489	 1.4122059332	-0.6329803013	 0.240915
H	 0.2509360744	-2.9298468693	 0.1813286696	 0.129748
H	-1.143114463	-2.7159945676	 2.3643443166	 0.126446
H	-0.0057289857	-1.3786649467	 2.7559989947	 0.133815
H	-3.2068297208	-1.0556880757	-0.5594166826	 0.105268
45.721	128.1744	163.2983	193.2408	264.7969	374.9924	464.7196	512.6186	638.103	687.7523	739.6967	837.7818	845.6763	870.2376	909.1904	973.5842	990.1908	1008.6235	1062.1462	1077.5807	1117.16	1151.8484	1169.8116	1218.0886	1286.0582	1326.6533	1346.7072	1398.4444	1500.1412	1818.8663	1841.9821	2916.1094	3042.2974	3105.4066	3158.7893	3481.9259
N=C1OC2COC12C=O	[NH][C]1O[C@H]2CO[C@@]12C=O	
InChI=1S/C5H5NO3/c6-4-5(2-7)3(9-4)1-8-5/h2-3,6H,1H2	InChI=1S/C5H5NO3/c6-4-5(2-7)3(9-4)1-8-5/h2-3,6H,1H2/t3-,5+/m0/s1
