14
gdb 125476	5.42287	1.32774	1.07374	3.6437	70.82	-0.2345	-0.0214	0.2131	1049.5673	0.104578	-429.064753	-429.057712	-429.056768	-429.096254	26.408	
C	-0.0216310192	 1.4552356915	 0.0329379242	-0.502091
C	-0.0031200115	-0.033446431	-0.038561407	 0.334874
N	-0.0578294407	-0.7346479551	-1.1479874124	-0.370714
C	-0.0110815618	-2.0404975667	-0.7047951373	 0.339675
N	-0.0206841459	-3.2816152882	-1.1941963879	-0.316896
N	 0.057051028	-4.0067290278	-0.0722679585	-0.104436
N	 0.1173597265	-3.3625209168	 1.1161558561	-0.348251
C	 0.0727827077	-2.1083842994	 0.6944189254	 0.391819
N	 0.0777851109	-0.8053425049	 1.1256454938	-0.43877
H	 0.8890955067	 1.8445438918	 0.50213496	 0.1407
H	-0.0931840388	 1.8543044395	-0.9787694938	 0.167092
H	-0.8757188274	 1.8172328809	 0.616501222	 0.140408
H	 0.0708061486	-5.0122117276	-0.1062775806	 0.293092
H	 0.1278417869	-0.4556654961	 2.066629276	 0.273498
98.542	158.356	295.4998	322.9436	361.9048	405.0028	428.0816	552.5976	583.3365	670.017	678.523	783.0359	808.1893	862.8119	956.6204	983.4087	1019.2938	1060.4633	1140.687	1182.5334	1207.2552	1258.9974	1382.7242	1408.3108	1448.0033	1472.7359	1480.3197	1483.0266	1519.8615	1586.4114	1659.6224	3035.1142	3086.8848	3158.7673	3679.1	3685.3756
CC1=NC2=NNN=C2N1	Cc1nc2n[nH]nc2[nH]1	
InChI=1S/C4H5N5/c1-2-5-3-4(6-2)8-9-7-3/h1H3,(H2,5,6,7,8,9)	InChI=1S/C4H5N5/c1-2-5-3-4(6-2)8-9-7-3/h1H3,(H2,5,6,7,8,9)
