17
gdb 77271	2.8816	0.98198	0.89629	3.5678	76.17	-0.2423	-0.0196	0.2227	1331.7946	0.132343	-421.780383	-421.770696	-421.769752	-421.815846	34.368	
O	-0.1207201411	 1.2506063709	 0.1825498664	-0.419899
C	-0.1184451954	-0.1295504616	 0.0090337392	 0.102443
C	-1.438930142	-0.8449099701	-0.08098249	-0.08051
C	-2.7410165313	-0.0812906769	 0.0505170428	-0.298735
C	-3.0363807297	 0.2523590963	 1.5005009331	 0.158628
O	-4.0553149058	-0.0355047492	 2.074055924	-0.241558
C	-0.5575304902	-0.7093559294	-1.3325669553	-0.276027
C	-0.8856460931	 0.2163779792	-2.3720273348	 0.300347
C	-1.1167937547	 1.0456002432	-3.2148229116	-0.437897
H	 0.0268167505	 1.6681597616	-0.675988816	 0.295718
H	 0.7064037724	-0.6306649457	 0.5110405503	 0.107494
H	-1.4571320617	-1.849559862	 0.3320189885	 0.108874
H	-2.6618280678	 0.8661762014	-0.494645664	 0.133614
H	-3.5803794419	-0.6470242868	-0.3628195293	 0.122274
H	-2.2175091504	 0.8039719188	 2.0124956283	 0.093843
H	-0.0529489742	-1.6131701279	-1.6595095497	 0.124261
H	-1.3453662437	 1.7455769183	-3.980431852	 0.207129
57.3596	63.3955	110.9229	122.8606	199.2363	219.6269	279.7489	333.4444	383.3012	486.1403	568.5223	598.5174	614.2564	645.9518	666.0159	761.5473	781.5554	828.1482	886.6814	976.8003	1024.7631	1026.2821	1078.7532	1118.2948	1128.1593	1156.6492	1229.0995	1245.843	1291.9105	1353.0876	1362.0849	1383.146	1420.8084	1424.1677	1456.7325	1833.0364	2225.5923	2897.6193	3050.299	3108.4851	3126.5353	3149.208	3160.4359	3500.3953	3756.5044
OC1C(CC=O)C1C#C	O[C@H]1[C@@H](CC=O)[C@H]1C#C	
InChI=1S/C7H8O2/c1-2-5-6(3-4-8)7(5)9/h1,4-7,9H,3H2	InChI=1S/C7H8O2/c1-2-5-6(3-4-8)7(5)9/h1,4-7,9H,3H2/t5-,6+,7-/m1/s1
