20
gdb 91233	2.48012	1.59625	1.34198	3.6807	78.24	-0.2381	0.0169	0.255	1057.3262	0.173131	-403.184221	-403.176195	-403.17525	-403.216952	31.175	
C	 0.8854901383	 1.2804159817	 0.2049683381	-0.402276
C	 0.0297574402	 0.0205060765	 0.0165592729	 0.019194
C	 0.440771191	-0.801953716	-1.2458627125	-0.253011
C	 1.2766027789	-2.0007605261	-0.7342580248	 0.029669
C	 2.828548742	-1.9183589169	-0.6780823684	-0.396254
C	 2.6266148087	-1.625604749	 0.8256901049	 0.402642
O	 3.3110429894	-1.252246244	 1.7381443791	-0.352201
N	 1.2527506184	-1.8825434043	 0.7451375369	-0.088032
C	 0.2073060572	-0.9761011314	 1.2011483091	-0.208063
H	 1.9421186065	 1.0340974821	 0.3556575819	 0.13743
H	 0.8157932748	 1.9358512786	-0.6693580437	 0.114077
H	 0.5558551143	 1.8513840088	 1.0789778111	 0.119326
H	-1.0191238903	 0.3233259622	-0.0627655822	 0.076532
H	-0.4454660688	-1.1684344168	-1.7713495534	 0.106516
H	 0.9979473881	-0.1843528757	-1.9564144309	 0.108094
H	 0.886654464	-2.9550780104	-1.0976965586	 0.083032
H	 3.3708530734	-2.8361200502	-0.9146030855	 0.130869
H	 3.2783794739	-1.0837811956	-1.2206724204	 0.13115
H	 0.5196804288	-0.4888275328	 2.1280067395	 0.134212
H	-0.713489979	-1.5358769207	 1.3991034572	 0.107095
77.0615	102.2881	206.4971	249.0248	335.5639	357.8191	371.7327	467.6791	552.8569	630.0218	682.3218	704.3755	787.5188	806.5724	840.4905	873.1335	912.6744	945.997	984.9689	1005.7276	1041.367	1048.82	1071.7586	1101.0027	1133.3439	1168.103	1195.4453	1215.7138	1236.4476	1256.9586	1282.5994	1312.3385	1326.7313	1356.0978	1365.0436	1373.0791	1418.2859	1456.5204	1489.4717	1497.015	1498.8911	1506.2349	1877.1634	3032.0667	3037.5978	3049.3365	3058.7621	3066.7962	3078.6812	3096.6876	3101.6768	3105.4266	3111.7935	3134.1127
CC1CC2CC(=O)N2C1	C[C@H]1C[C@H]2CC(=O)N2C1	
InChI=1S/C7H11NO/c1-5-2-6-3-7(9)8(6)4-5/h5-6H,2-4H2,1H3	InChI=1S/C7H11NO/c1-5-2-6-3-7(9)8(6)4-5/h5-6H,2-4H2,1H3/t5-,6-/m0/s1
