18
gdb 83057	2.70003	1.49006	1.23876	1.8327	84.49	-0.2196	0.0034	0.223	1083.4095	0.146858	-364.758305	-364.750056	-364.749112	-364.790603	32.531	
C	-0.168500111	 1.5655661877	 0.0321720268	-0.428951
C	 0.0114195127	 0.0682629592	 0.0811305542	-0.011828
N	 1.2466788222	-0.6307377611	-0.288877783	-0.156189
C	 2.4798714038	 0.1902454277	-0.3016707224	-0.216671
C	 2.7249097001	 0.6133666578	 1.128465268	-0.089084
C	 1.7824714945	 0.1204537122	 1.9298543811	-0.144992
C	 0.7895154917	-0.6738334079	 1.1445034047	 0.100015
C	 0.2921140426	-1.9055318201	 1.6934406964	 0.208625
C	-0.1398831705	-2.914808381	 2.1842356505	-0.38612
H	 0.6235166673	 2.107987994	 0.5512006873	 0.128865
H	-0.1948707845	 1.9062388075	-1.0095236659	 0.126606
H	-1.1252710906	 1.8364863174	 0.4897592332	 0.127393
H	-0.8554248316	-0.4775257134	-0.2892198082	 0.099299
H	 3.3043377644	-0.415216895	-0.6991632117	 0.121121
H	 2.3618815261	 1.0458720178	-0.980235298	 0.115957
H	 3.547262749	 1.2526545088	 1.4284844836	 0.105772
H	 1.7078597742	 0.2423078238	 3.0024629111	 0.111002
H	-0.5124511604	-3.8152872254	 2.6056696123	 0.18918
133.1946	155.657	189.3206	236.3598	247.6054	362.6494	417.0091	497.342	519.0811	558.6031	590.5282	600.1746	652.5772	712.8649	741.9182	760.1276	818.6941	863.3186	926.1851	955.1598	980.6636	1011.4947	1029.87	1059.0215	1122.6183	1134.023	1160.7069	1208.4273	1230.4466	1308.2194	1338.5344	1357.787	1401.0988	1420.8945	1486.7254	1496.7857	1503.9261	1671.6001	2236.8384	3015.7708	3036.2116	3041.3773	3094.5253	3110.9161	3137.0618	3196.5399	3229.8109	3503.0908
CC1N2CC=CC12C#C	C[C@H]1N2CC=C[C@@]12C#C	
InChI=1S/C8H9N/c1-3-8-5-4-6-9(8)7(8)2/h1,4-5,7H,6H2,2H3	InChI=1S/C8H9N/c1-3-8-5-4-6-9(8)7(8)2/h1,4-5,7H,6H2,2H3/t7-,8+,9?/m1/s1
