16
gdb 17867	3.22129	2.18444	2.06957	2.8367	69.02	-0.2239	-0.0065	0.2174	757.9197	0.132778	-346.617241	-346.611044	-346.6101	-346.647303	25.001	
O	 0.0301233459	 0.0328355153	 0.030906476	-0.322835
C	 0.0026071698	 1.2271075062	-0.0042161633	 0.439997
C	-1.1082778756	 2.2934626794	 0.0546467561	-0.144272
C	-0.0479702499	 3.1540110823	 0.820075502	-0.235815
C	 1.0571838522	 2.3542640913	 0.057940241	-0.177517
C	 1.1370022678	 2.8997798742	-1.3612347989	-0.059982
C	 0.0030081173	 3.1636092658	-2.0130945902	-0.06545
C	-1.3306398585	 2.8671791799	-1.3656188987	-0.257197
H	-2.0454054844	 2.0300483577	 0.548112888	 0.086663
H	-0.0671881922	 4.2300189072	 0.6374217196	 0.107745
H	-0.0492694041	 2.9456621073	 1.8922357493	 0.112162
H	 2.0250669777	 2.166297901	 0.5205488154	 0.083582
H	 2.1125095568	 3.0541923496	-1.8101047206	 0.100458
H	 0.0087960581	 3.5747325658	-3.0181092849	 0.09633
H	-1.8890924447	 2.1387653149	-1.9690613669	 0.124556
H	-1.9580374663	 3.7683502919	-1.3218273039	 0.111575
146.0606	233.736	353.5869	436.4144	474.0621	483.6575	572.2507	686.2709	735.1017	795.6294	829.4517	848.1516	897.1636	930.4681	946.0532	974.9925	1000.2464	1019.4588	1055.775	1083.6633	1104.0102	1125.851	1160.5565	1188.6947	1234.88	1264.0463	1272.5387	1295.2116	1360.5506	1388.2594	1479.3532	1490.5675	1694.0304	1894.3243	3006.606	3034.5892	3068.2757	3100.4435	3124.9346	3132.9318	3167.6317	3192.1361
O=C1C2CC1C=CC2	O=C1[C@H]2C[C@@H]1C=CC2	
InChI=1S/C7H8O/c8-7-5-2-1-3-6(7)4-5/h1-2,5-6H,3-4H2	InChI=1S/C7H8O/c8-7-5-2-1-3-6(7)4-5/h1-2,5-6H,3-4H2/t5-,6+/m0/s1
