17
gdb 80713	2.44558	1.96404	1.56071	2.2784	71.61	-0.2306	-0.0272	0.2035	909.7747	0.137985	-421.845906	-421.838877	-421.837933	-421.877081	28.541	
O	 0.0834698152	 1.3789534964	 0.2356685058	-0.448455
C	-0.0160285612	-0.0089877118	 0.0498571577	 0.076366
C	-1.462105064	-0.5419276804	-0.1081752979	-0.105746
C	-1.1531089241	-1.9423968224	-0.7009844737	-0.237873
C	-0.4220105737	-1.39131465	-1.94898921	-0.163526
C	-1.4398061705	-0.3451168422	-2.4192652957	-0.092553
C	-2.0456065416	 0.1529150674	-1.3366226748	-0.052762
C	 0.6143720946	-0.4660721647	-1.2878894048	 0.387199
O	 1.6592953632	-0.0525735878	-1.7217511326	-0.347514
H	 0.9005293404	 1.6526792325	-0.2029253514	 0.292588
H	 0.490088541	-0.5522642383	 0.8668527378	 0.087289
H	-2.0589663633	-0.5097792685	 0.8024898515	 0.077135
H	-0.5204741884	-2.5605900356	-0.0549301767	 0.103432
H	-2.0580378235	-2.4931767904	-0.965863058	 0.113002
H	-0.0296941972	-2.0773345701	-2.6964678226	 0.085985
H	-1.5195539738	-0.00568812	-3.4432247112	 0.113036
H	-2.7533718529	 0.9698021458	-1.3003758235	 0.112397
120.9976	219.4268	243.3685	370.9788	418.0561	441.8838	485.1777	522.8423	641.1218	660.9851	736.8682	751.9044	790.4731	860.5638	907.041	923.0909	927.1079	940.7211	948.5821	985.6762	1006.5747	1085.0176	1120.009	1149.085	1159.2111	1180.2747	1193.3076	1234.8473	1271.5124	1281.5784	1316.1784	1341.5106	1362.0305	1404.1305	1492.2494	1635.9792	1843.6201	2950.2128	3052.1213	3117.904	3122.8476	3145.2153	3214.6648	3238.9734	3752.3109
OC1C2CC(C=C2)C1=O	O[C@H]1[C@@H]2C[C@@H](C=C2)C1=O	
InChI=1S/C7H8O2/c8-6-4-1-2-5(3-4)7(6)9/h1-2,4-6,8H,3H2	InChI=1S/C7H8O2/c8-6-4-1-2-5(3-4)7(6)9/h1-2,4-6,8H,3H2/t4-,5+,6-/m0/s1
