19
gdb 89616	3.85436	1.11045	0.94695	2.2593	77.33	-0.2489	-0.0265	0.2224	1282.025	0.156577	-423.017613	-423.008387	-423.007443	-423.051835	33.856	
C	-0.0495602013	 1.5714562563	 0.1229127871	-0.406113
C	 0.0692993154	 0.0617638779	 0.2721886083	 0.003521
C	 0.5799896684	-0.7792590633	-0.9571487665	-0.323361
C	 1.7428803298	-1.2750636174	-0.0942101255	 0.332472
O	 2.4644127375	-0.1222309147	 0.3767188243	-0.2757
C	 1.2746186934	-0.4699329634	 1.0701813393	-0.052135
C	 2.4110462294	-2.6029750195	-0.1184335959	 0.272137
C	 3.6706214878	-2.7562221944	 0.7072640769	-0.485115
O	 1.9391657055	-3.5004202628	-0.7834812277	-0.306771
H	 0.8993076825	 1.9965039818	-0.2163498269	 0.134337
H	-0.8215162089	 1.8307498295	-0.6088863257	 0.119886
H	-0.3172830037	 2.045582232	 1.0734567026	 0.116099
H	-0.857771548	-0.3694604778	 0.6621041224	 0.086052
H	-0.0975979239	-1.5841438995	-1.2428241607	 0.132627
H	 0.8808490191	-0.2138760496	-1.8421171857	 0.111493
H	 1.3624339206	-0.6687589519	 2.1336108203	 0.107247
H	 3.5197356373	-2.4021498737	 1.7317792381	 0.138647
H	 3.9747878364	-3.8033948578	 0.7098669527	 0.139281
H	 4.4671398928	-2.1379550615	 0.2800390926	 0.155398
74.2825	105.4811	119.9455	147.9927	232.7087	238.8224	295.0634	372.715	409.948	493.6571	560.5493	614.3846	630.4319	712.8828	802.6911	857.3179	884.4258	896.1264	927.411	950.1938	998.9075	1040.8457	1049.8299	1089.6911	1113.5454	1121.4622	1184.8236	1222.5945	1228.6784	1265.6947	1310.8444	1357.8953	1382.9621	1401.0783	1425.2941	1456.7179	1470.4889	1475.0015	1493.8669	1502.4735	1789.9125	3034.2178	3046.2254	3063.4638	3078.0757	3098.582	3108.2505	3117.9746	3146.3363	3155.9421	3170.7656
CC1CC2(OC12)C(C)=O	C[C@H]1C[C@]2(O[C@@H]12)C(=O)C	
InChI=1S/C7H10O2/c1-4-3-7(5(2)8)6(4)9-7/h4,6H,3H2,1-2H3	InChI=1S/C7H10O2/c1-4-3-7(5(2)8)6(4)9-7/h4,6H,3H2,1-2H3/t4-,6-,7-/m0/s1
