22
gdb 103233	2.46685	1.63459	1.21232	1.3382	85.35	-0.2126	0.0645	0.2771	1131.3512	0.193676	-367.118046	-367.10926	-367.108315	-367.150868	35.142	
C	 0.8105683742	 0.7396625882	 0.0275090914	-0.372567
C	 0.0802863066	-0.4959537115	-0.5154743339	-0.298909
C	-1.3106470879	-0.7003598255	 0.0930634105	 0.338611
C	-2.3796839208	 0.0080570453	-0.7340784422	-0.432837
C	-1.8474769829	-1.8804243712	 0.813566024	-0.086539
C	-0.9904563263	-2.6075832447	 1.866905378	-0.091392
C	 0.3796917098	-2.0260609779	 2.1073349882	-0.308986
C	-0.8351781299	-1.2638793689	 2.5450112658	 0.00429
N	-1.709633506	-0.5539566683	 1.5327623214	-0.200047
H	 1.7493463585	 0.9033670032	-0.5105077278	 0.110511
H	 0.1982599276	 1.6395526213	-0.0874711621	 0.122222
H	 1.0410566194	 0.6357083855	 1.0911817928	 0.131453
H	-0.0716098976	-0.3644432342	-1.5935436151	 0.096791
H	 0.7019515149	-1.3872729585	-0.426828917	 0.112881
H	-2.4578828725	-0.4479303893	-1.7270686009	 0.112094
H	-3.3526319247	-0.0429684674	-0.2409191888	 0.127724
H	-2.1241253612	 1.0649581968	-0.8636721569	 0.120706
H	-2.8399775828	-2.2638188179	 0.5847718118	 0.08693
H	-1.2973840715	-3.5546512312	 2.2907086933	 0.094348
H	 0.8789017803	-2.5012735526	 2.9488002377	 0.114491
H	 1.0640577839	-1.7086755324	 1.3377186848	 0.116725
H	-0.998197081	-0.9742240488	 3.575663605	 0.1015
107.752	143.6872	204.6545	231.9809	243.8055	309.8793	332.0659	365.592	411.4304	542.4745	597.7477	636.9609	695.2909	716.8845	756.2351	795.0596	843.8317	879.4828	900.804	961.4003	965.4017	1001.139	1020.5891	1025.1705	1035.5651	1051.9706	1061.7616	1079.3425	1084.0371	1103.1515	1131.3675	1187.6198	1213.4643	1274.5705	1285.0331	1301.3419	1347.7661	1361.198	1403.2048	1414.3069	1416.5557	1481.0899	1488.6226	1495.4453	1499.0663	1505.0289	1532.7821	3031.6218	3037.9993	3042.3622	3096.6832	3098.5267	3113.249	3119.643	3121.0183	3129.3572	3135.6634	3182.5478	3198.2187	3263.3209
CCC1(C)C2C3CC3N12	CC[C@@]1(C)[C@H]2[C@H]3C[C@H]3N12	
InChI=1S/C8H13N/c1-3-8(2)7-5-4-6(5)9(7)8/h5-7H,3-4H2,1-2H3	InChI=1S/C8H13N/c1-3-8(2)7-5-4-6(5)9(7)8/h5-7H,3-4H2,1-2H3/t5-,6+,7+,8-,9?/m0/s1
