16
gdb 30520	2.63008	1.62485	1.01066	4.8293	79.05	-0.2062	-0.0259	0.1803	1132.4119	0.124503	-434.074133	-434.065548	-434.064604	-434.108421	30.969	
C	-0.1771895968	 1.4162771011	 0.1238489469	-0.319227
N	-0.1811953684	-0.0359805118	 0.1287544442	-0.244197
C	 0.6509805041	-0.6406854289	 0.853849839	 0.371538
O	 1.5504935818	 0.0668292541	 1.629790253	-0.258106
C	 2.4648125502	-0.5732324939	 2.4259470406	 0.001624
C	 2.5323484527	-1.9000482984	 2.4920726116	-0.076741
N	 1.6597724269	-2.677693048	 1.7402089504	-0.381906
C	 0.6925128129	-2.1481319453	 0.8986094498	 0.300168
N	-0.1292361886	-2.8171749471	 0.1900203044	-0.48934
H	 0.7887579227	 1.819047769	-0.2081595281	 0.123884
H	-0.9562322316	 1.7722187613	-0.5534198501	 0.123617
H	-0.3662642401	 1.82676947	 1.1244824068	 0.12388
H	 3.097010481	 0.1109997416	 2.9699703174	 0.135964
H	 3.2474978978	-2.4166340433	 3.1148414826	 0.134567
H	 1.7198014098	-3.6810508105	 1.7981022489	 0.25244
H	 0.0100332259	-3.8223739999	 0.3165472127	 0.201834
35.8357	75.8122	143.141	205.2997	207.5951	366.3797	402.1009	511.4699	521.6599	529.4069	543.9541	575.1175	725.003	736.5819	766.2033	838.7062	849.648	922.3062	1022.7543	1054.2545	1077.2452	1101.8312	1141.9742	1164.9027	1182.7364	1259.9577	1395.0816	1413.9942	1434.6956	1473.3124	1482.6249	1497.6212	1713.9317	1739.9345	1761.2039	3005.9705	3057.5333	3114.1177	3241.9328	3266.497	3443.3551	3646.6074
CN=C1OC=CNC1=N	C[N]C1=C(NC=CO1)[NH]	
InChI=1S/C5H7N3O/c1-7-5-4(6)8-2-3-9-5/h2-3H,1H3,(H2,6,8)	InChI=1S/C5H7N3O/c1-7-5-4(6)8-2-3-9-5/h2-3H,1H3,(H2,6,8)
