16
gdb 97014	3.10058	1.15499	0.85044	0.6004	76.04	-0.2381	-0.0856	0.1525	1299.4337	0.123739	-434.097077	-434.088304	-434.087359	-434.131285	30.722	
C	-0.1879184968	 1.4381147108	 0.3399668119	-0.341646
N	 0.00560638	 0.0229954511	 0.0610864974	-0.323244
C	 0.620606189	-0.6670608021	 0.9235443863	 0.405606
C	 0.9393795632	-2.160850169	 0.8487699523	-0.267235
N	 1.6631894489	-2.4969599489	 2.0829442681	-0.281282
C	 1.743437401	-1.3985258494	 2.7413277791	 0.284683
N	 1.17129742	-0.2867885233	 2.1543257793	-0.392971
C	 2.4056628658	-1.284867007	 4.0637353408	 0.114457
O	 2.4679281813	-0.2392256243	 4.664536701	-0.264119
H	 0.7671196335	 1.974508933	 0.4508085077	 0.113161
H	-0.7324220891	 1.900579047	-0.4863702996	 0.131502
H	-0.7718200633	 1.6052921437	 1.2582646704	 0.112976
H	 0.0287339692	-2.7647449118	 0.7684757024	 0.154832
H	 1.5537957602	-2.3995034539	-0.0264217898	 0.154831
H	 1.1715880815	 0.6270201262	 2.5745505708	 0.278742
H	 2.8285435356	-2.2346513323	 4.4398042918	 0.119709
71.9866	100.6807	131.5922	135.3673	223.6946	248.9021	300.3849	438.6064	459.7176	525.2705	561.392	663.737	668.407	768.5204	884.5096	967.5639	983.9514	1024.5589	1034.7184	1036.7658	1108.0228	1156.9074	1174.8715	1207.6651	1256.4186	1301.2131	1382.8567	1437.2035	1445.3563	1462.4651	1495.8286	1508.5001	1670.9227	1786.272	1803.2039	2973.3711	2977.4198	3021.5552	3049.4277	3080.3357	3107.3124	3677.862
CN=C1CN=C(N1)C=O	CN=C1CN=C(N1)C=O	
InChI=1S/C5H7N3O/c1-6-4-2-7-5(3-9)8-4/h3H,2H2,1H3,(H,6,7,8)	InChI=1S/C5H7N3O/c1-6-4-2-7-5(3-9)8-4/h3H,2H2,1H3,(H,6,7,8)
