20
gdb 47911	2.32676	1.5645	1.07791	3.9425	77.25	-0.2535	0.0184	0.2719	1160.7123	0.173128	-440.281549	-440.27321	-440.272265	-440.314772	31.927	
N	-0.1251575621	 1.1209796923	-1.0091326264	-0.495726
C	-0.0328416477	 0.1179493066	-0.2393542337	 0.380998
C	-1.2924621237	-0.6778230928	 0.0800024219	-0.163539
O	-1.7627755528	-0.4940174504	 1.3997104262	-0.240556
C	-1.2778833167	-1.3495378907	 2.4227331042	-0.071742
C	 0.0560109016	-0.891169656	 3.0363953127	-0.199699
C	 1.3320320091	-1.4942454697	 2.4280542551	-0.207507
C	 1.3874600522	-1.5053968031	 0.9031958453	-0.078872
O	 1.1585418804	-0.2101441524	 0.3384001212	-0.247358
H	 0.7942515004	 1.5551444552	-1.1246040701	 0.216685
H	-2.0586810247	-0.2739269741	-0.5830559285	 0.142642
H	-1.1750925621	-1.7472089611	-0.1496753292	 0.100608
H	-2.0552539506	-1.3197445266	 3.1927238957	 0.113394
H	-1.2201023725	-2.3897703353	 2.0619617978	 0.08519
H	 0.0808181235	 0.2006831567	 2.95936984	 0.127347
H	 0.0500217945	-1.1250522771	 4.1071546351	 0.100322
H	 2.2001919916	-0.9487273038	 2.8147876791	 0.112651
H	 1.4485834359	-2.5355501007	 2.7574858956	 0.101453
H	 2.386417977	-1.8023693191	 0.5683111221	 0.11674
H	 0.6842286769	-2.2332958679	 0.4903758558	 0.106969
59.0229	136.9301	183.7296	227.6324	296.5138	324.6964	397.0185	436.5624	489.1493	500.0136	565.0172	668.4084	759.7599	802.8956	806.791	880.862	935.5103	966.6239	976.6327	1007.5758	1015.5687	1050.9491	1098.5799	1137.4768	1152.0795	1163.7891	1217.451	1267.5591	1279.6013	1318.0283	1323.0322	1355.1609	1379.2093	1395.9022	1397.3316	1415.4772	1424.1231	1474.9971	1480.3627	1485.9098	1493.1434	1522.8613	1734.0438	2972.406	2995.9009	3021.1584	3040.2302	3056.5255	3063.7763	3074.1233	3089.468	3102.1464	3124.9678	3449.5711
N=C1COCCCCO1	[NH][C]1COCCCCO1	
InChI=1S/C6H11NO2/c7-6-5-8-3-1-2-4-9-6/h7H,1-5H2	InChI=1S/C6H11NO2/c7-6-5-8-3-1-2-4-9-6/h7H,1-5H2
