24
gdb 102167	2.04406	1.08185	0.8864	4.0443	89.27	-0.3019	0.0339	0.3358	1480.5705	0.21585	-368.443183	-368.432069	-368.431125	-368.479507	40.512	
C	-0.0928699643	 1.5741774059	-0.1792868283	-0.395281
C	 0.1107530034	 0.0589667073	-0.0797839625	-0.188268
C	 0.9223215866	-0.3954225871	 1.1543619127	 0.021396
C	 0.6333286135	-1.9028615344	 1.3857984927	-0.362274
C	 1.225548976	-2.4937163514	 2.584258529	 0.275643
N	 1.6774594767	-2.976054152	 3.5328566904	-0.322166
C	 2.4324387825	-0.035288186	 1.0282855333	 0.04499
C	 3.1055721507	 0.1972257191	 2.3905117695	-0.417236
C	 3.2353133495	-1.0374797183	 0.1833276717	-0.406207
H	 0.8534975907	 2.1167693225	-0.2631677968	 0.125488
H	-0.6919017973	 1.8260733297	-1.059694431	 0.118297
H	-0.6185756454	 1.9583905035	 0.7017110918	 0.119309
H	-0.876134777	-0.4201548266	-0.0529693189	 0.093494
H	 0.5979330812	-0.3106580938	-0.9916711239	 0.102487
H	 0.5256747777	 0.1425949863	 2.0252483027	 0.086004
H	-0.4508633759	-2.0463573593	 1.4570334847	 0.147823
H	 0.964088368	-2.4876841106	 0.5201408744	 0.151382
H	 2.4648899133	 0.9244902931	 0.4980346888	 0.077862
H	 3.1328207889	-0.7123291104	 2.9957846633	 0.15197
H	 4.1377410422	 0.5363808464	 2.2524460736	 0.109008
H	 2.5772634999	 0.9662341645	 2.9641619205	 0.109172
H	 2.7670580648	-1.2318042024	-0.7877845092	 0.110493
H	 4.2386861985	-0.6467771649	-0.0120859219	 0.117954
H	 3.358278416	-1.9954177909	 0.6998201436	 0.128659
58.1472	70.884	115.2417	139.2761	206.3507	229.469	244.2416	261.1879	281.0743	287.1049	370.407	386.724	406.1323	467.017	489.0692	591.3376	729.1378	802.4201	889.1481	902.0706	927.7807	936.1968	968.7485	989.5488	1007.1496	1053.3313	1066.5918	1117.9948	1138.77	1182.2139	1206.2256	1234.7726	1280.9223	1304.1282	1337.9271	1348.5946	1376.2067	1384.616	1394.7147	1405.8596	1416.8001	1429.6613	1463.818	1488.1937	1489.8334	1500.7931	1501.8513	1505.7291	1510.7344	1515.202	2355.6222	3014.4805	3020.287	3024.8039	3031.1117	3036.3746	3037.6178	3044.7224	3050.938	3082.6569	3095.8065	3097.8482	3102.805	3103.8011	3109.5092	3127.3419
CCC(CC#N)C(C)C	CC[C@@H](CC#N)C(C)C	
InChI=1S/C8H15N/c1-4-8(5-6-9)7(2)3/h7-8H,4-5H2,1-3H3	InChI=1S/C8H15N/c1-4-8(5-6-9)7(2)3/h7-8H,4-5H2,1-3H3/t8-/m0/s1
