16
gdb 23410	3.76941	1.25751	1.03517	1.0396	75.67	-0.2307	-0.0404	0.1903	1120.0279	0.125457	-437.833899	-437.826501	-437.825557	-437.865952	28.369	
O	-0.1272598746	 1.349271007	-0.1249471349	-0.392437
N	-0.0027131982	-0.0494120829	-0.1292713927	-0.24092
C	-1.1312748067	-0.6224828432	 0.054679338	 0.377394
C	-2.4636885276	-0.0454408094	 0.2678444304	-0.143567
C	-3.3701981294	-1.0088613123	 0.4917350583	-0.088733
C	-2.7500086229	-2.3809050742	 0.4511082309	 0.075834
O	-2.9921193842	-3.0850576921	-0.7966054117	-0.291602
C	-1.6437196414	-2.8284589168	-1.2454345001	-0.080295
C	-1.2671590192	-2.1236222683	 0.0845623228	-0.177479
H	 0.7816214896	 1.6342821765	-0.2652978542	 0.308248
H	-2.6484956462	 1.0190766078	 0.2341698582	 0.128549
H	-4.4300492214	-0.8512003837	 0.6551101905	 0.11632
H	-2.9952814981	-3.0106495753	 1.3129482362	 0.08591
H	-1.1025924574	-3.7606380221	-1.4416504391	 0.110246
H	-1.6117744965	-2.1939831421	-2.1385569207	 0.111493
H	-0.4931778458	-2.6207272991	 0.666652128	 0.101039
87.2651	176.7267	227.2796	252.1756	333.0816	397.6209	440.1146	486.462	675.1546	685.1533	731.6571	802.3959	830.7623	873.0876	892.5694	936.1819	981.52	989.3841	999.7549	1007.0287	1039.5934	1056.3736	1115.0996	1159.2921	1209.0301	1239.5164	1262.2693	1298.9647	1328.3866	1343.195	1367.7738	1410.375	1520.2845	1634.4473	1725.7602	3026.2148	3051.0149	3074.2771	3131.0472	3203.1499	3244.6395	3823.1572
ON=C1C=CC2OCC12	ON=C1C=C[C@H]2OC[C@@H]12	
InChI=1S/C6H7NO2/c8-7-5-1-2-6-4(5)3-9-6/h1-2,4,6,8H,3H2	InChI=1S/C6H7NO2/c8-7-5-1-2-6-4(5)3-9-6/h1-2,4,6,8H,3H2/t4-,6+/m0/s1
