22
gdb 87823	2.71182	1.35145	1.1585	1.6284	86.98	-0.2162	0.0816	0.2978	1199.8642	0.193626	-367.161782	-367.152701	-367.151757	-367.195031	35.561	
C	-0.1442381279	 1.4815971061	 0.0124257475	-0.405762
C	 0.0353014803	-0.0199272361	 0.0370633603	-0.048597
C	 1.4034153872	-0.6390540119	-0.173149414	-0.37446
C	 0.7410728052	-0.6949759898	 1.1737504628	 0.365776
C	 1.2908616928	-0.0884701687	 2.4899309976	-0.315987
C	 0.8362353582	-1.3746590477	 3.1930333964	-0.102108
N	-0.6308980658	-1.4807349722	 2.9648248725	-0.374618
C	 0.3220947236	-1.9559781595	 1.9203389649	 0.253997
C	 0.2923754668	-3.3576633674	 1.3970590899	-0.515172
H	 0.7198011941	 1.9909744192	 0.4518694054	 0.112937
H	-0.2596902676	 1.8513795061	-1.0126942092	 0.1124
H	-1.0306517557	 1.7833094412	 0.5809100965	 0.12338
H	-0.7978404278	-0.57727399	-0.3863586762	 0.078885
H	 1.4749909396	-1.551757233	-0.7571955837	 0.104608
H	 2.251498918	 0.0297820297	-0.2926381985	 0.104603
H	 2.3771845716	 0.0348769072	 2.4777531056	 0.099322
H	 0.816983344	 0.8291920005	 2.8492147788	 0.105478
H	 1.2989599769	-1.862590271	 4.0427983557	 0.087789
H	-0.9421884148	-2.3110384575	 3.4717930413	 0.217142
H	-0.5480080571	-3.5111906191	 0.7089897916	 0.126466
H	 1.214625178	-3.5966692321	 0.8571662217	 0.127387
H	 0.1862155303	-4.0784711742	 2.2152241331	 0.116533
114.088	131.1386	180.2689	209.2155	219.9081	250.9437	312.5641	403.9094	417.8464	475.0055	484.0392	575.8354	649.5894	750.6215	794.3036	846.405	869.7798	892.1034	902.4012	917.1849	948.3202	1002.8574	1017.6497	1026.9724	1037.7894	1064.6359	1100.5238	1117.8386	1120.9684	1137.0283	1170.5185	1187.6555	1193.5989	1233.8279	1301.5379	1312.6465	1351.9772	1401.0489	1410.2965	1424.5819	1444.8383	1477.217	1483.0584	1492.0788	1494.0713	1499.1553	1509.0047	3021.3196	3026.1118	3052.794	3081.4716	3088.3394	3094.6322	3096.6973	3107.8023	3112.4897	3127.2337	3181.7646	3195.3167	3447.1865
CC1CC11CC2NC12C	C[C@H]1C[C@]21C[C@H]1N[C@@]21C	
InChI=1S/C8H13N/c1-5-3-8(5)4-6-7(8,2)9-6/h5-6,9H,3-4H2,1-2H3	InChI=1S/C8H13N/c1-5-3-8(5)4-6-7(8,2)9-6/h5-6,9H,3-4H2,1-2H3/t5-,6+,7+,8+/m0/s1
