17
gdb 48388	2.29506	1.65701	1.19842	2.3863	78.8	-0.243	-0.0295	0.2135	1067.5964	0.133987	-384.63087	-384.62245	-384.621506	-384.66389	31.964	
O	-0.1821732436	 0.1133738987	-0.3548720696	-0.254914
C	-0.0071704543	 1.2287587048	 0.0619414816	 0.120423
C	 1.3288946165	 1.9600263904	 0.0226543667	 0.038346
C	 2.5649441195	 1.1542869213	-0.52018651	-0.294908
C	 2.6545799826	 2.1093682899	-1.7166205305	-0.023359
C	 1.3748850519	 2.0987930493	-2.4987400381	-0.296923
C	 1.4436104153	 2.8979832639	-1.2247271615	-0.095654
C	 1.5515135939	 2.6465332153	 1.2803097752	 0.231803
C	 1.6966719121	 3.2081101641	 2.3339188186	-0.411086
H	-0.8415738786	 1.8359980128	 0.4757503658	 0.090965
H	 3.4108218138	 1.2269485606	 0.1630894783	 0.123022
H	 2.3577906998	 0.1060598976	-0.7467929681	 0.126898
H	 3.5769603126	 2.4978221646	-2.1287995044	 0.093781
H	 1.3743377872	 2.7020134826	-3.4008170915	 0.117754
H	 0.7718023128	 1.1973755354	-2.560142601	 0.133591
H	 1.2748734867	 3.9659258997	-1.1809502113	 0.102093
H	 1.8407095217	 3.7027690592	 3.2626688196	 0.198168
84.2188	128.0968	158.2538	194.0199	243.2351	342.4496	437.0401	469.8321	501.4015	532.7277	622.5775	637.802	651.3082	757.699	793.7966	841.9026	894.0154	928.0322	937.6307	972.8809	985.8442	1046.7188	1067.8924	1082.287	1098.1455	1139.8149	1154.5796	1208.062	1222.4189	1253.8839	1288.7945	1350.3436	1415.132	1476.9736	1494.2943	1821.5029	2231.3065	2896.902	3079.2647	3122.5685	3143.5883	3191.2915	3199.9398	3212.9544	3500.2564
O=CC1(CC2CC12)C#C	O=C[C@]1(C[C@H]2C[C@@H]12)C#C	
InChI=1S/C8H8O/c1-2-8(5-9)4-6-3-7(6)8/h1,5-7H,3-4H2	InChI=1S/C8H8O/c1-2-8(5-9)4-6-3-7(6)8/h1,5-7H,3-4H2/t6-,7-,8-/m1/s1
