18
gdb 56550	2.8127	1.03244	0.96405	4.9358	72.79	-0.2856	-0.0485	0.2371	1296.0488	0.144442	-439.122257	-439.112047	-439.111102	-439.157944	35.841	
C	 0.1590536552	 1.460359441	-0.057973002	-0.399829
C	-0.0399846508	-0.0608068198	 0.0714109903	-0.176733
C	 0.6598454787	-0.5794061223	 1.2508187144	 0.288023
N	 1.2267144471	-0.9925637204	 2.1689614328	-0.317802
C	-1.5485589528	-0.4510023693	 0.1479444259	 0.03676
O	-2.1707668254	 0.1985548121	 1.2128161397	-0.42453
C	-2.2797681348	-0.1263267557	-1.1648014218	 0.362669
C	-1.8109068435	-0.7754254319	-2.444637419	-0.48863
O	-3.2244536666	 0.6318015739	-1.12354335	-0.311543
H	 1.2214380147	 1.7120659461	-0.067505011	 0.140692
H	-0.2912572321	 1.8265872976	-0.9855064395	 0.126438
H	-0.3174233678	 1.96779524	 0.782120835	 0.161412
H	 0.3986505704	-0.5673252573	-0.7972756956	 0.125423
H	-1.6024745219	-1.5441436911	 0.2823635518	 0.111325
H	-2.897395389	 0.7069877299	 0.8141039548	 0.299026
H	-1.5370757669	-1.8227846573	-2.2867408116	 0.149094
H	-2.5928588468	-0.6987865509	-3.2010256085	 0.159123
H	-0.9184196578	-0.2578515047	-2.8163194357	 0.159082
57.686	74.5628	120.4572	135.7809	178.9611	204.9048	249.0444	271.2197	338.7007	407.8275	428.9962	481.1487	530.9687	571.2061	618.3784	697.763	801.0244	831.7519	932.3226	974.7624	994.048	1021.5254	1105.2996	1120.5976	1156.6265	1208.7786	1268.7624	1289.9622	1334.9863	1363.0139	1387.4811	1409.7413	1436.8586	1463.6382	1474.937	1488.6841	1503.3268	1799.3907	2360.6136	2973.3288	3038.0565	3042.9927	3054.0621	3105.0245	3127.3192	3152.8852	3154.7123	3658.5584
CC(C#N)C(O)C(C)=O	C[C@@H](C#N)[C@@H](O)C(=O)C	
InChI=1S/C6H9NO2/c1-4(3-7)6(9)5(2)8/h4,6,9H,1-2H3	InChI=1S/C6H9NO2/c1-4(3-7)6(9)5(2)8/h4,6,9H,1-2H3/t4-,6+/m0/s1
