18
gdb 80799	1.92097	1.70212	1.21462	5.4088	78.22	-0.2484	0.0116	0.26	1109.3091	0.148515	-398.065595	-398.05694	-398.055995	-398.098668	32.827	
C	-0.0636767323	 1.5781672443	-0.0483625409	-0.43819
C	 0.0036272443	 0.0632836091	-0.0099532483	 0.014221
C	 1.244289099	-0.6900939907	-0.5807054322	-0.095867
N	 2.0282544765	-0.1413587876	 0.5971334916	-0.336261
C	 0.7258413688	-0.6553491044	 1.1832311616	 0.215303
C	 0.4176137401	-0.5696031833	 2.5895548513	 0.16002
N	 0.1549084253	-0.5169860443	 3.7144159383	-0.348937
C	 0.8505853571	-1.9424503432	 0.2921159983	 0.021771
N	-0.2676279794	-2.8150429542	 0.0853835026	-0.536757
H	 0.8964885464	 2.0221649387	 0.2156177037	 0.152101
H	-0.3456558819	 1.9176585547	-1.050950942	 0.117279
H	-0.8247675717	 1.9447699839	 0.6483023717	 0.129423
H	-0.9615850978	-0.3777890793	-0.268944344	 0.072508
H	 1.6449191444	-0.6521860789	-1.5942668398	 0.089394
H	 2.7849353578	-0.7885200316	 0.8424964932	 0.216891
H	 1.7185199781	-2.5462727616	 0.5760378913	 0.087408
H	-1.0398782187	-2.3750650308	-0.4000584276	 0.238984
H	 0.004841984	-3.6358508208	-0.4420485088	 0.240709
117.9124	128.8465	164.8992	208.6226	241.4247	264.3361	360.7174	370.3645	521.3437	527.631	553.0376	607.2386	652.2832	747.3042	791.0955	809.2188	832.4023	896.0207	919.8095	956.7064	1046.5609	1057.6472	1103.962	1142.6006	1149.7343	1178.2531	1200.5182	1220.5482	1229.7092	1263.8596	1271.0206	1296.4441	1399.6761	1422.4451	1454.1792	1491.8159	1504.4699	1660.2147	2350.512	3040.2735	3063.7227	3082.8743	3097.287	3115.0883	3151.553	3383.3253	3529.4251	3611.5523
CC1C2NC1(C#N)C2N	C[C@H]1[C@H]2N[C@]1(C#N)[C@H]2N	
InChI=1S/C6H9N3/c1-3-4-5(8)6(3,2-7)9-4/h3-5,9H,8H2,1H3	InChI=1S/C6H9N3/c1-3-4-5(8)6(3,2-7)9-4/h3-5,9H,8H2,1H3/t3-,4+,5-,6-/m0/s1
