19
gdb 75012	3.31468	1.34644	1.16874	2.0329	76.49	-0.2477	0.0147	0.2624	1116.3541	0.160989	-423.048449	-423.040645	-423.039701	-423.081075	29.882	
C	-0.0779668747	 1.5096333704	-0.0010620703	-0.488398
C	 0.0218885632	 0.0174662918	-0.0356534482	 0.320506
C	-0.1071745906	-0.7774459799	-1.1013617641	-0.204863
C	 0.0505979474	-2.237794543	-0.7704533589	 0.041876
O	 1.1618270224	-2.872563758	-1.4121399144	-0.25064
C	 2.260779658	-2.620419151	-0.5760277808	 0.014143
O	 1.7874731416	-2.6868349266	 0.7538679049	-0.262014
C	 0.4329088343	-2.239085383	 0.744029204	 0.074012
C	 0.2669816615	-0.7815174301	 1.227788925	-0.320512
H	 0.8442228358	 1.9537721404	 0.3941506611	 0.130608
H	-0.263080947	 1.9283634588	-0.9935750608	 0.126872
H	-0.8874117641	 1.8346458071	 0.6649110783	 0.128638
H	-0.2985499085	-0.4392387993	-2.1138923411	 0.093652
H	-0.829917514	-2.8380985822	-1.0179787056	 0.088373
H	 3.0123600468	-3.4002557283	-0.7296632559	 0.116241
H	 2.6956791165	-1.6266948933	-0.7816887353	 0.082242
H	-0.1461785619	-2.9455872303	 1.343697376	 0.085289
H	 1.1586898302	-0.4515778137	 1.7733469091	 0.117858
H	-0.5774234768	-0.6841246197	 1.9234640271	 0.106117
74.3202	124.535	180.9868	250.2874	291.3456	408.7991	410.8267	486.2745	601.8929	607.6306	738.738	818.2574	831.5216	875.7345	881.0359	904.2715	963.2492	992.968	1000.3577	1022.0686	1045.8961	1055.4495	1084.983	1104.91	1173.7107	1181.4326	1202.4106	1230.6385	1270.263	1286.9134	1302.6106	1345.6137	1355.9083	1372.982	1413.5481	1428.1514	1472.2161	1478.8432	1486.3458	1540.6912	1717.1007	2948.1174	3016.8425	3021.3841	3060.3241	3062.7643	3067.347	3078.8765	3086.454	3115.0877	3192.957
CC1=CC2OCOC2C1	CC1=C[C@H]2OCO[C@H]2C1	
InChI=1S/C7H10O2/c1-5-2-6-7(3-5)9-4-8-6/h2,6-7H,3-4H2,1H3	InChI=1S/C7H10O2/c1-5-2-6-7(3-5)9-4-8-6/h2,6-7H,3-4H2,1H3/t6-,7+/m1/s1
