20
gdb 126945	5.72561	0.79073	0.70849	1.3909	85.53	-0.1851	0.0354	0.2206	1641.5101	0.171945	-399.350414	-399.340814	-399.33987	-399.38593	34.182	
C	 0.0498361378	 1.5256200178	-0.0716511079	-0.396493
C	-0.1369752489	 0.0164945612	-0.1920960496	-0.109542
N	 0.9050694764	-0.5621936406	-1.0275935329	-0.382142
C	 0.8909351965	-1.9272832412	-1.2739155429	 0.427085
N	 1.4393737559	-2.4117901301	-2.3899551307	-0.38182
N	 1.3111100218	-3.7594601237	-2.2796093752	 0.064657
C	 1.8088646846	-4.6067297374	-3.3353686926	-0.312463
C	 0.6894198638	-4.1204170636	-1.137289908	-0.020707
C	 0.3917685068	-2.9637028152	-0.4451628077	-0.323653
H	 1.0348386007	 1.7624914746	 0.3409406001	 0.129225
H	-0.0338661517	 2.0119223207	-1.0504999945	 0.115919
H	-0.7151074371	 1.9580629143	 0.5793304895	 0.118414
H	-0.0696143682	-0.4380527094	 0.8035177741	 0.110789
H	-1.1488919992	-0.2078809285	-0.5713735933	 0.090677
H	 1.0836306707	-0.0382902613	-1.8746298846	 0.232629
H	 2.8840535851	-4.4560759867	-3.4715352542	 0.143927
H	 1.6235261509	-5.6491110351	-3.0695733395	 0.132659
H	 1.303817392	-4.3813190009	-4.2798273574	 0.141853
H	 0.5055684823	-5.1572524376	-0.9009754063	 0.122516
H	-0.1012089201	-2.8845492273	 0.5088375635	 0.09647
54.7573	68.8161	73.128	130.3979	183.2166	255.3982	309.3646	337.1519	345.5564	475.9592	598.5037	611.4952	710.66	720.4087	745.9487	772.4681	809.0704	820.0726	929.8021	1008.3555	1022.3039	1058.838	1084.9942	1093.964	1151.6961	1152.8978	1190.6702	1267.0144	1294.5957	1325.5156	1348.3505	1400.6356	1418.1282	1456.1522	1457.8849	1470.6019	1483.6497	1495.1825	1501.1906	1522.0017	1528.852	1545.4702	1609.9782	2951.7065	3034.1476	3039.6673	3044.5006	3099.6155	3102.3769	3121.1622	3139.6734	3250.3974	3278.8864	3571.9612
CCNC1=NN(C)C=C1	CCNc1nn(C)cc1	
InChI=1S/C6H11N3/c1-3-7-6-4-5-9(2)8-6/h4-5H,3H2,1-2H3,(H,7,8)	InChI=1S/C6H11N3/c1-3-7-6-4-5-9(2)8-6/h4-5H,3H2,1-2H3,(H,7,8)
