20
gdb 92964	2.75829	1.3173	1.11741	3.4918	79.82	-0.2354	0.0258	0.2613	1171.9538	0.171226	-403.199161	-403.189848	-403.188904	-403.233582	34.681	
C	-0.505013633	 1.3965899803	 0.1128831887	-0.389555
C	-0.1882816384	-0.1040707824	 0.1381139983	-0.00425
C	 0.4576854959	-0.5572441017	-1.2033972512	-0.260136
C	 1.9362533803	-0.5486570097	-0.9016283449	-0.08748
C	 2.1771165803	-0.4945604365	 0.405278549	-0.03587
C	 0.8985789617	-0.4848771816	 1.2093134896	-0.151099
C	 0.9495851848	 0.4440122946	 2.4211052472	 0.393376
N	 0.0042303453	 0.1866412898	 3.3768397712	-0.524103
O	 1.7633539658	 1.3391282821	 2.5404807597	-0.363145
H	 0.4023137904	 1.9853446523	-0.0509786709	 0.141526
H	-1.2109314423	 1.6186886558	-0.6936978557	 0.106101
H	-0.954703572	 1.7314928588	 1.0522527214	 0.114103
H	-1.1151302329	-0.6556036839	 0.3277922814	 0.060829
H	 0.1238505973	-1.5641303005	-1.4925565397	 0.100932
H	 0.1839820072	 0.1071321842	-2.0317596655	 0.10133
H	 2.6935348634	-0.6062668782	-1.6755573294	 0.093311
H	 3.1502709415	-0.4804551409	 0.8789131753	 0.106662
H	 0.6883469967	-1.500841997	 1.578933257	 0.082996
H	-0.7225639976	-0.4932703775	 3.237852657	 0.256081
H	-0.0742762043	 0.825615912	 4.1511099215	 0.258391
51.7391	83.8786	163.6521	169.9659	203.0818	260.5896	344.5639	358.2298	411.1366	422.7149	559.9721	625.8061	663.1549	735.3198	745.3444	772.8138	836.4205	873.1696	933.4978	936.7915	970.9649	991.1787	1031.9432	1058.3761	1088.9819	1093.3101	1110.0999	1137.5885	1217.1702	1240.4402	1257.8652	1284.8262	1316.6765	1357.6121	1376.0949	1390.4907	1412.2419	1486.7988	1497.6629	1504.4708	1614.9157	1689.0226	1793.7635	2973.7462	3002.8515	3037.834	3044.6926	3049.4522	3105.2861	3118.6469	3190.9499	3225.4823	3599.7735	3736.5212
CC1CC=CC1C(N)=O	C[C@H]1CC=C[C@H]1C(=O)N	
InChI=1S/C7H11NO/c1-5-3-2-4-6(5)7(8)9/h2,4-6H,3H2,1H3,(H2,8,9)	InChI=1S/C7H11NO/c1-5-3-2-4-6(5)7(8)9/h2,4-6H,3H2,1H3,(H2,8,9)/t5-,6+/m0/s1
