18
gdb 47432	2.59357	1.49423	1.17049	2.903	71.22	-0.224	-0.0226	0.2015	1091.4189	0.148661	-439.075874	-439.067823	-439.066878	-439.109013	30.227	
O	-0.0541218254	 0.0137414878	 0.3255775232	-0.316564
C	-0.0027495859	 1.1915889562	 0.0882192943	 0.409608
C	-1.1716804767	 2.1677511766	-0.0442796911	-0.328312
C	-0.4891667834	 3.5448649385	 0.0137634046	-0.179566
N	 0.8838738702	 3.3546835235	-0.5129025593	-0.297884
C	 1.2985046877	 2.0023493588	-0.1324137013	-0.169554
C	 2.1309825336	 1.973194096	 1.1427093314	 0.104888
C	 2.9519308652	 3.1129060214	 1.5573116893	-0.177543
O	 1.7009399521	 2.8310884906	 2.1999306581	-0.23784
H	-1.6441776772	 1.9945487897	-1.0200165356	 0.127422
H	-1.9249004	 1.981381576	 0.7244634918	 0.136084
H	-1.0061604141	 4.3138984624	-0.5635038092	 0.106331
H	-0.4131568161	 3.8872810888	 1.0490423788	 0.140207
H	 0.8650380431	 3.422212762	-1.5241279722	 0.224445
H	 1.8868299564	 1.5226275877	-0.9228627043	 0.104064
H	 2.4089794281	 0.9678501109	 1.4602835977	 0.110566
H	 3.8353195616	 2.943867522	 2.1710306393	 0.114092
H	 2.9517279706	 4.0043932313	 0.9359631744	 0.129556
77.9992	90.5559	175.9693	183.9718	270.9685	354.687	456.3608	532.5977	557.0949	638.8685	674.9246	747.2372	809.4292	835.6464	849.792	903.5322	922.4526	956.43	974.6131	1008.7051	1052.8239	1101.4085	1132.9085	1140.0241	1163.6907	1173.9062	1189.5947	1220.8821	1243.7	1280.552	1290.6953	1349.1455	1371.8478	1413.0602	1446.4228	1465.536	1501.1564	1514.8241	1847.7803	3034.2782	3051.8146	3071.4055	3094.7909	3110.6699	3115.9182	3123.4111	3196.9326	3533.6527
O=C1CCNC1C1CO1	O=C1CCN[C@H]1[C@H]1CO1	
InChI=1S/C6H9NO2/c8-4-1-2-7-6(4)5-3-9-5/h5-7H,1-3H2	InChI=1S/C6H9NO2/c8-4-1-2-7-6(4)5-3-9-5/h5-7H,1-3H2/t5-,6-/m1/s1
