15
gdb 49170	2.96033	1.41746	1.03627	4.3893	74.22	-0.2447	-0.0855	0.1592	1105.0217	0.112878	-420.655693	-420.648255	-420.647311	-420.687867	27.82	
O	-0.9065465971	 1.1531530222	 0.3882493058	-0.270863
C	 0.2229979196	 0.8302366853	 0.0926520742	 0.074813
C	 1.356444343	 1.7697722247	 0.0258991239	 0.069233
C	 1.3138625964	 3.099001332	 0.2535945511	-0.134557
C	 2.6568689933	 3.726349785	 0.1727715986	-0.086608
C	 3.6398441496	 3.2081719419	 1.2112206097	-0.275519
C	 3.608781285	 2.6060497426	-0.1796127711	-0.155301
C	 2.7536487849	 1.3651261934	-0.3319372493	 0.342464
O	 3.1190535121	 0.2719924509	-0.694465025	-0.327187
H	 0.48335894	-0.2173474535	-0.1573790542	 0.101488
H	 0.4109053446	 3.6449120091	 0.5035571997	 0.149143
H	 2.77148705	 4.7365108594	-0.199722902	 0.115725
H	 4.4925845706	 3.83569988	 1.4476762483	 0.135959
H	 3.2450053839	 2.6351924898	 2.0429797144	 0.13889
H	 4.4668294143	 2.7361961772	-0.8257306542	 0.12232
107.1768	162.3692	172.9681	219.7779	354.8028	370.8321	427.755	551.9898	615.7299	699.9803	788.3867	816.628	833.0696	846.526	895.6554	926.5045	948.5753	983.8224	1047.5353	1056.8375	1073.5808	1094.8328	1114.9841	1180.5487	1219.0317	1306.978	1319.5261	1342.7429	1430.3377	1480.6506	1637.6594	1787.4712	1816.1834	2942.9726	3134.2231	3193.277	3207.5609	3209.7258	3228.5867
O=CC1=CC2CC2C1=O	O=CC1=C[C@H]2C[C@H]2C1=O	
InChI=1S/C7H6O2/c8-3-5-1-4-2-6(4)7(5)9/h1,3-4,6H,2H2	InChI=1S/C7H6O2/c8-3-5-1-4-2-6(4)7(5)9/h1,3-4,6H,2H2/t4-,6+/m0/s1
