17
gdb 105608	2.2239	1.39014	1.32673	4.6204	70.63	-0.2504	-0.0575	0.193	1081.9172	0.13344	-458.972078	-458.963	-458.962056	-459.006539	32.446	
O	 0.2167857478	 1.1677796933	 0.3728222862	-0.409303
C	 0.025230968	-0.1824000575	 0.054113014	-0.109868
C	-1.4657082238	-0.5615554596	-0.1227868745	 0.055038
C	-1.7471346633	-2.0935654579	-0.0350431957	-0.303415
C	-2.2804650613	-1.9496228657	 1.421726095	-0.334627
C	-2.2582746292	-0.4304230578	 1.2269322413	 0.378668
O	-2.7240694674	 0.4989848582	 1.8077043899	-0.267075
C	-2.09258584	 0.1829143677	-1.270122479	 0.125139
O	-1.6713531345	 1.222524703	-1.722931351	-0.265692
H	-0.1817582535	 1.6743079652	-0.3482458133	 0.301572
H	 0.5533748849	-0.4764554679	-0.8684726632	 0.100857
H	 0.4538958337	-0.770072513	 0.8736453588	 0.108606
H	-2.518287712	-2.4211902551	-0.7372746256	 0.119321
H	-0.8671843662	-2.7260073979	-0.1647577083	 0.121201
H	-3.2616880226	-2.3727153064	 1.6512329906	 0.140086
H	-1.5761715259	-2.2789917331	 2.1920435135	 0.146061
H	-3.0130576545	-0.2797582157	-1.6889563086	 0.093431
68.0211	72.6191	111.7315	165.5314	233.3034	257.4584	292.2963	399.012	462.4544	495.6275	536.6366	568.541	692.5631	735.3544	780.1398	865.3379	915.6758	939.3098	963.9288	1031.5193	1065.6718	1086.3919	1110.6112	1123.6256	1195.5708	1221.4079	1235.8796	1254.8526	1287.823	1378.1599	1426.0099	1439.6653	1446.5072	1489.0604	1502.1586	1786.8458	1898.4187	2890.766	2963.9027	3059.8545	3063.0672	3069.0077	3112.55	3127.9682	3750.3814
OCC1(CCC1=O)C=O	OC[C@]1(CCC1=O)C=O	
InChI=1S/C6H8O3/c7-3-6(4-8)2-1-5(6)9/h3,8H,1-2,4H2	InChI=1S/C6H8O3/c7-3-6(4-8)2-1-5(6)9/h3,8H,1-2,4H2/t6-/m0/s1
