18
gdb 14209	2.71531	2.41789	1.81015	2.0144	71.48	-0.2205	0.0805	0.301	835.6887	0.153193	-347.74642	-347.738942	-347.737998	-347.777648	29.005	
C	-0.1206955523	 1.4624420666	 0.0126573938	-0.50887
C	 0.0178695832	-0.0291839712	-0.0399838696	 0.242189
C	 0.9608651931	-0.8700287283	-0.9034239286	-0.283058
C	 0.134335977	-2.0814419812	-0.4081249181	 0.024208
O	 0.4543688495	-2.1612270914	 1.0098970811	-0.298442
C	-0.3001345011	-0.958623309	 1.1542290263	 0.002445
C	-1.0763966896	-1.1050732247	-0.1129297512	 0.245193
C	-2.5249154659	-1.0907901147	-0.4759057261	-0.533132
H	 0.7935125912	 1.931029138	 0.3954409025	 0.125364
H	-0.3216355288	 1.8856089344	-0.978451746	 0.118968
H	-0.9434115399	 1.7633922459	 0.6713000684	 0.116798
H	 0.8028283667	-0.6762020723	-1.968632939	 0.096291
H	 2.0313070625	-0.8858575677	-0.6709362179	 0.095148
H	 0.1244304773	-3.0483719232	-0.908019963	 0.082193
H	-0.5700356693	-0.618080034	 2.1464879976	 0.09934
H	-3.0267860674	-0.2279546194	-0.024449507	 0.124792
H	-2.6703702451	-1.0242753406	-1.560475725	 0.12155
H	-3.0366698612	-1.9936553974	-0.1237544181	 0.129022
167.4274	191.6378	194.7235	224.2929	285.1876	326.8801	449.5895	550.1963	604.7997	637.6587	738.545	771.4365	824.5513	887.7781	920.6613	923.4562	946.1906	978.806	1010.8601	1033.4046	1093.8266	1112.6733	1139.1172	1155.6941	1172.9553	1201.6852	1228.3502	1238.696	1295.7574	1343.513	1410.434	1417.2434	1460.2122	1482.9406	1486.8759	1490.6158	1495.1873	1506.9356	3018.5789	3021.2743	3037.6304	3079.4653	3080.6507	3084.734	3091.4241	3098.2888	3137.2264	3194.0066
CC12CC3OC1C23C	C[C@@]12C[C@H]3O[C@@H]1[C@@]23C	
InChI=1S/C7H10O/c1-6-3-4-7(6,2)5(6)8-4/h4-5H,3H2,1-2H3	InChI=1S/C7H10O/c1-6-3-4-7(6,2)5(6)8-4/h4-5H,3H2,1-2H3/t4-,5+,6-,7+/m1/s1
