19
gdb 72992	2.66255	1.41156	1.14243	2.9613	77.04	-0.2433	-0.0159	0.2274	1127.1025	0.157322	-423.007327	-422.998276	-422.997332	-423.040715	34.267	
C	-0.0426960237	 1.5508105073	 0.0618812019	-0.4748
C	 0.03806375	 0.0399082697	 0.1070256286	 0.136162
C	-1.1696625074	-0.6519291806	-0.4257777643	 0.117415
O	-2.1594890592	-0.0757950787	-0.8118898099	-0.281319
C	 1.3082393395	-0.7836467563	-0.1921559716	-0.152591
C	 2.5602132615	-0.0445863087	 0.2939355709	-0.241308
C	 1.9767390583	-0.0522641658	 1.7445731686	-0.303731
C	 0.7353606928	-0.7767814876	 1.2019884701	 0.348464
O	 0.1183803736	-1.8265398679	 1.8599006081	-0.451582
H	 0.8444130189	 2.0298424939	 0.4789794049	 0.11549
H	-0.1652893381	 1.8956789569	-0.9691349827	 0.132961
H	-0.9155938969	 1.9001564318	 0.6207540841	 0.130774
H	-1.1043343901	-1.7600408059	-0.4521564082	 0.084174
H	 1.2853485139	-1.5637179887	-0.9440303452	 0.103062
H	 3.4614304471	-0.6546118272	 0.2077141105	 0.115051
H	 2.7544302032	 0.9310998284	-0.1580832818	 0.109729
H	 2.5429721326	-0.7103065511	 2.4071212283	 0.118464
H	 1.8229592228	 0.9091342892	 2.2424056568	 0.101728
H	-0.5201795789	-1.4667863388	 2.486420371	 0.291855
96.1596	124.4017	176.023	230.2076	252.9668	293.0236	301.7334	327.7624	383.5093	420.4249	493.0953	544.9854	654.2132	689.5568	756.1864	803.9877	903.348	926.0301	944.0978	968.0205	1002.7222	1020.4246	1056.5037	1085.3609	1105.1956	1131.4271	1188.7615	1211.7832	1225.9223	1237.1649	1286.1356	1299.6896	1308.0858	1416.0302	1425.8156	1447.4768	1470.8408	1493.1628	1495.4701	1507.3854	1806.3895	2910.2863	3051.9423	3058.9607	3068.419	3109.1417	3110.6362	3125.8051	3138.9217	3182.5084	3788.2969
CC1(C=O)C2CCC12O	C[C@@]1(C=O)[C@H]2CC[C@@]12O	
InChI=1S/C7H10O2/c1-6(4-8)5-2-3-7(5,6)9/h4-5,9H,2-3H2,1H3	InChI=1S/C7H10O2/c1-6(4-8)5-2-3-7(5,6)9/h4-5,9H,2-3H2,1H3/t5-,6-,7+/m1/s1
