14
gdb 98137	3.20325	0.99816	0.76469	1.44	63.19	-0.2851	-0.0771	0.208	1406.11	0.09815	-511.001619	-510.992155	-510.991211	-511.038821	30.772	
C	-0.5105993778	 1.1242557626	-0.8983632369	-0.247205
O	-0.0672122501	-0.2102233344	-1.2005489447	-0.20952
C	 1.0014666189	-0.6177796185	-0.5185365323	 0.352654
O	 1.6057198433	 0.016365044	 0.3010047648	-0.328508
C	 1.4222506125	-2.0534268887	-0.8901968769	 0.37125
O	 2.3620841861	-2.5917333163	-0.3840105301	-0.309085
O	 0.6062818811	-2.5921493013	-1.8331362846	-0.188004
C	 0.8753272178	-3.878876874	-2.2553514283	 0.119447
N	 0.1176166963	-4.3717325021	-3.1262889993	-0.410688
H	-0.7776922082	 1.2042279369	 0.157928318	 0.151391
H	 0.27961217	 1.845065052	-1.1208928935	 0.151339
H	-1.3797360614	 1.2939892935	-1.5319827969	 0.148485
H	 1.7420462751	-4.3157760072	-1.7599253208	 0.152171
H	 0.4186316466	-5.3189067366	-3.3523892485	 0.246274
8.791	102.3525	105.827	123.375	126.6332	171.6676	262.7487	338.4192	398.3874	443.8673	532.4582	571.6367	797.2893	829.9429	855.2539	906.0433	993.5841	1020.2458	1071.2181	1163.0338	1177.5892	1218.7445	1249.7734	1316.157	1390.1045	1472.9024	1482.628	1492.318	1748.4915	1833.7591	1855.5587	3058.2933	3136.1786	3144.4379	3174.421	3508.5637
COC(=O)C(=O)OC=N	COC(=O)C(=O)O[CH][NH]	
InChI=1S/C4H5NO4/c1-8-3(6)4(7)9-2-5/h2,5H,1H3	InChI=1S/C4H5NO4/c1-8-3(6)4(7)9-2-5/h2,5H,1H3
