21
gdb 70296	3.47319	1.272	1.14838	1.7383	82.02	-0.249	0.0961	0.3451	1169.8619	0.182643	-387.084032	-387.075741	-387.074797	-387.116511	33.223	
C	-0.0234842381	 1.4918236951	-0.0221810132	-0.484774
C	-0.0795061447	-0.0071372303	 0.0834649995	 0.420793
C	-1.3087890393	-0.7752581989	-0.3857076937	-0.364973
C	-1.0883748751	-2.1964828929	 0.1412845474	 0.394089
C	-2.1530206053	-3.2539116432	 0.0374920086	-0.336814
C	-0.9152511931	-3.3391023465	-0.8235770026	-0.290006
C	-0.1759892298	-2.0884604226	 1.3684826713	-0.331064
C	 0.5928453417	-0.8059563867	 1.1213572235	-0.00729
O	 1.1442631757	-0.7113428907	-0.2007275683	-0.299147
H	 0.9066729056	 1.8733761854	 0.4063405121	 0.128434
H	-0.069065744	 1.808706045	-1.0701051728	 0.125988
H	-0.8674985479	 1.9520399809	 0.5027263291	 0.119152
H	-2.2030536796	-0.3160959922	 0.0578155637	 0.097622
H	-1.4303445367	-0.7438914544	-1.4740723841	 0.103552
H	-2.2578821187	-3.9575483295	 0.8574375511	 0.107053
H	-3.0920890018	-2.9894221065	-0.4385556074	 0.107024
H	-1.0126392243	-3.1305758432	-1.8840330227	 0.109557
H	-0.1772771044	-4.098824169	-0.5874238113	 0.109768
H	-0.7540508392	-1.9832626866	 2.2969692147	 0.099443
H	 0.4765943926	-2.9601591977	 1.4837920906	 0.106901
H	 1.1928969063	-0.3557336953	 1.9095067844	 0.084693
89.4814	177.1455	204.3077	244.6531	307.2431	369.8724	379.0584	398.3792	422.8271	524.2799	611.9725	706.0087	775.3673	796.1755	845.6628	865.6232	887.5322	909.0982	926.4693	970.2771	982.4062	983.3683	1003.4312	1038.6287	1059.035	1078.1354	1091.1357	1121.2426	1184.3195	1188.9737	1207.6589	1237.1657	1261.8545	1293.3393	1317.136	1322.0966	1380.6481	1412.404	1456.0915	1468.1537	1476.7154	1484.0502	1489.0682	1501.6643	1507.3339	3013.6263	3017.014	3033.7269	3066.5668	3071.7591	3094.4948	3120.8478	3120.9037	3127.2007	3134.4082	3198.1922	3214.5685
CC12CC3(CC3)CC1O2	C[C@]12CC3(CC3)C[C@H]1O2	
InChI=1S/C8H12O/c1-7-5-8(2-3-8)4-6(7)9-7/h6H,2-5H2,1H3	InChI=1S/C8H12O/c1-7-5-8(2-3-8)4-6(7)9-7/h6H,2-5H2,1H3/t6-,7+/m1/s1
