25
gdb 112722	2.31513	1.117	0.94786	1.2898	88.92	-0.2591	0.076	0.335	1418.8777	0.22691	-389.487558	-389.476717	-389.475772	-389.522759	41.091	
C	-0.1023590167	 1.5761766066	-0.0920344417	-0.41962
C	 0.0806923596	 0.0677041546	-0.0049040385	 0.021725
C	 1.1344281444	-0.6287951738	-0.9053578527	-0.253534
C	 1.4149134607	-1.6180336165	 0.2524731585	 0.030333
C	 2.8274279835	-2.1212011853	 0.4725526151	-0.114358
O	 3.1435964637	-2.9872993175	-0.6116480708	-0.423611
C	 0.7576804661	-0.599705979	 1.2504140491	 0.286761
C	 1.7726140397	 0.315796074	 1.9449050675	-0.440296
C	-0.1971282392	-1.1996458537	 2.2798631351	-0.453905
H	 0.8451529345	 2.1105880011	 0.0303950966	 0.111272
H	-0.5129820705	 1.8570465691	-1.0685179749	 0.113082
H	-0.7955116442	 1.9448111918	 0.6730014026	 0.110734
H	-0.8917974845	-0.4164959888	-0.1574664442	 0.064798
H	 0.799657098	-1.0433369684	-1.8584598492	 0.097729
H	 1.9962289148	 0.0206192978	-1.0971728739	 0.090356
H	 0.7634497177	-2.4940799199	 0.1540529275	 0.073333
H	 3.5335368427	-1.277723536	 0.51814294	 0.079847
H	 2.8919565808	-2.6544085946	 1.4363796848	 0.080778
H	 4.0546322589	-3.2770179405	-0.5078276406	 0.284108
H	 2.4742653733	 0.7769018626	 1.2435175584	 0.113113
H	 1.2613455634	 1.1253102406	 2.4772576345	 0.111393
H	 2.3598238249	-0.2405083772	 2.6840946116	 0.109537
H	 0.3428020825	-1.788657931	 3.0312138321	 0.1084
H	-0.7480842866	-0.4154344953	 2.8133012287	 0.109067
H	-0.9305817774	-1.8586520507	 1.8033206344	 0.108956
78.4592	106.2854	164.3082	195.9151	211.8732	237.1275	250.4353	265.6237	293.5013	314.3779	323.0231	368.3044	436.9508	465.9133	522.9526	583.7327	714.178	792.6231	875.56	881.857	922.6893	951.4733	958.7104	985.1858	1003.5696	1036.0679	1070.0616	1074.6373	1139.8999	1140.5669	1171.2661	1189.9241	1195.0107	1247.913	1254.254	1263.2725	1270.0421	1284.3771	1325.1587	1360.0235	1388.687	1401.2719	1408.7877	1420.5504	1460.9876	1483.9037	1485.6818	1492.53	1494.8487	1496.7366	1506.4728	1510.6828	1522.2514	2953.9592	2990.8894	3015.4794	3021.1194	3024.6759	3029.9642	3039.2327	3046.7202	3077.5518	3085.3078	3089.6732	3091.377	3097.294	3102.3961	3108.4611	3827.4081
CC1CC(CO)C1(C)C	C[C@H]1C[C@@H](CO)C1(C)C	
InChI=1S/C8H16O/c1-6-4-7(5-9)8(6,2)3/h6-7,9H,4-5H2,1-3H3	InChI=1S/C8H16O/c1-6-4-7(5-9)8(6,2)3/h6-7,9H,4-5H2,1-3H3/t6-,7-/m0/s1
