19
gdb 51184	4.1633	1.0083	0.92379	4.1696	76.05	-0.2671	0.0069	0.2741	1296.8536	0.159947	-423.052338	-423.044185	-423.043241	-423.085348	31.055	
O	 0.0276189173	 0.0165045587	-0.4707974987	-0.274369
C	 0.0816124277	 1.2077694569	-0.4111331869	 0.149558
O	 1.0858745879	 1.8580405521	 0.2163375643	-0.23559
C	 1.0010957084	 3.2686674354	 0.2660631298	 0.435032
C	 1.1363221384	 4.0642346784	-1.005975187	-0.352073
C	 2.2408883759	 4.0867611722	 0.0356968453	-0.087036
C	 2.2495649349	 5.2213158072	 1.0497414977	-0.217699
C	 0.7891246569	 5.302307703	 1.5604793412	-0.22909
C	 0.2322623422	 3.8668343636	 1.4327957538	-0.273456
H	-0.6594952066	 1.8960755962	-0.8577556335	 0.08346
H	 1.3505557237	 3.5004547813	-1.9072055856	 0.126301
H	 0.5103216102	 4.9368967209	-1.16313697	 0.118893
H	 3.1695915404	 3.5911245954	-0.2219543671	 0.103304
H	 2.929659578	 4.9618145899	 1.8693315899	 0.109362
H	 2.5945308864	 6.1726093241	 0.6320818579	 0.104065
H	 0.7254245474	 5.6812711294	 2.5831413342	 0.108116
H	 0.2074030042	 5.9874119461	 0.9361152203	 0.109792
H	-0.854543676	 3.8455412689	 1.2982925504	 0.102037
H	 0.4656139625	 3.2725198102	 2.3238055739	 0.119392
75.7491	136.6717	154.1418	235.1952	276.5891	353.3398	373.9833	429.1002	513.7013	621.416	641.7651	757.5066	811.3327	856.4509	887.1826	900.7311	942.289	966.3928	983.1524	1001.449	1047.7881	1057.3399	1068.0304	1075.869	1122.3583	1161.2298	1195.9909	1199.4967	1241.3627	1259.5217	1284.9066	1321.2193	1335.6988	1349.3559	1395.2743	1422.4547	1479.9534	1492.5338	1494.9275	1516.6046	1866.1485	2970.5086	3037.9274	3039.7798	3055.262	3078.8209	3080.7058	3107.3847	3130.1775	3184.0916	3217.6922
O=COC12CC1CCC2	O=CO[C@]12C[C@H]1CCC2	
InChI=1S/C7H10O2/c8-5-9-7-3-1-2-6(7)4-7/h5-6H,1-4H2	InChI=1S/C7H10O2/c8-5-9-7-3-1-2-6(7)4-7/h5-6H,1-4H2/t6-,7-/m1/s1
