18
gdb 31964	4.48132	0.88561	0.77819	1.907	75.68	-0.2304	0.0047	0.2351	1479.0187	0.147635	-439.122449	-439.113327	-439.112383	-439.157503	32.289	
C	-0.067055152	 1.6119074215	-0.226379328	-0.379308
C	 0.0554333781	 0.0916270498	-0.0257029621	-0.28879
C	 0.7502583451	-0.5944376041	-1.1504898287	 0.378471
N	 1.8787585488	-1.2292180973	-1.1435151477	-0.30086
C	 2.0568196708	-1.649730118	-2.458221491	-0.20025
C	 1.0047879943	-1.2405669395	-3.2066199456	 0.273495
C	 0.6228031732	-1.3959838965	-4.6423656702	-0.169916
O	 1.3450796414	-2.4426659056	-5.261825137	-0.40242
O	 0.1509497378	-0.5616573547	-2.3769213263	-0.212353
H	 0.9204039809	 2.0758595005	-0.3055399287	 0.131009
H	-0.624763083	 1.842114669	-1.1383026869	 0.131291
H	-0.5917372731	 2.0668262095	 0.6184504473	 0.119895
H	 0.6224716996	-0.134235579	 0.8803926042	 0.136691
H	-0.9447223168	-0.3419838147	 0.0972285649	 0.121469
H	 2.9257677151	-2.2065563891	-2.7686564633	 0.128236
H	-0.4678827724	-1.5337788065	-4.7152888748	 0.11081
H	 0.8637884368	-0.4910440167	-5.2134688462	 0.135028
H	 1.1642470755	-3.2502784686	-4.7684636402	 0.287501
44.1204	60.4049	127.6348	174.157	203.2472	236.6858	335.2938	350.7847	412.5347	459.1161	640.9426	663.2376	720.7267	745.683	795.9838	859.8963	957.9213	983.4425	987.5974	1014.669	1070.0797	1086.769	1093.006	1151.1511	1189.9681	1230.0021	1239.1423	1285.6406	1329.3262	1357.0636	1392.2866	1408.9819	1430.3719	1473.6065	1497.499	1502.2603	1506.809	1611.1112	1641.3379	2979.4482	3035.5275	3044.5525	3047.1724	3104.2143	3117.9992	3127.1034	3272.8892	3805.0693
CCC1=NC=C(CO)O1	CCc1ncc(CO)o1	
InChI=1S/C6H9NO2/c1-2-6-7-3-5(4-8)9-6/h3,8H,2,4H2,1H3	InChI=1S/C6H9NO2/c1-2-6-7-3-5(4-8)9-6/h3,8H,2,4H2,1H3
