17
gdb 75783	2.60046	1.27195	1.17407	4.176	70.93	-0.247	-0.035	0.212	1126.8853	0.133203	-455.138867	-455.129261	-455.128317	-455.174309	34.217	
C	-0.082337847	 1.6783542517	-0.022468519	-0.441726
C	-0.011088973	 0.155304963	-0.0301416999	 0.194527
N	 1.1364666883	-0.4356457529	-0.7746322761	-0.382764
C	 1.8180095094	-0.7809578357	 0.3895224728	 0.348475
N	 2.9958074482	-1.0849606468	 0.7319584804	-0.552861
C	 0.6041874264	-0.4907547349	 1.2675775556	 0.0145
O	 0.855416912	 0.3638539669	 2.3465228209	-0.42616
C	-1.3260547684	-0.4447689685	-0.495337694	 0.125032
O	-2.2303748082	-0.73881799	 0.2402625164	-0.241546
H	 0.859863411	 2.0977779008	 0.3373858041	 0.135064
H	-0.2870622951	 2.0672505536	-1.0261556129	 0.1173
H	-0.8802472532	 2.0105809294	 0.6467091085	 0.156691
H	 1.5685652516	-0.0365949375	-1.59862162	 0.240635
H	 3.6478519312	-1.0912799323	-0.053705579	 0.217271
H	 0.0390571186	-1.3739955163	 1.5843065699	 0.115251
H	 1.7976078793	 0.2865786415	 2.5435393688	 0.303064
H	-1.3914920811	-0.597536162	-1.5981609364	 0.077247
21.0497	85.4093	166.2167	197.2225	224.6426	237.5435	268.0471	291.8506	359.8167	400.6004	489.8531	534.3933	551.7463	687.6414	725.8161	807.2445	849.169	902.4349	932.0383	943.3806	991.7057	1052.4368	1125.7747	1141.276	1167.0107	1206.6785	1247.0584	1321.4352	1331.9606	1373.5864	1390.7787	1402.6678	1416.9689	1482.291	1489.2023	1800.1623	1837.071	2860.7046	3039.3456	3054.8735	3114.1586	3135.7846	3467.2496	3566.1275	3777.1307
CC1(NC(=N)C1O)C=O	C[C@]1(N[C]([NH])[C@H]1O)C=O	
InChI=1S/C5H8N2O2/c1-5(2-8)3(9)4(6)7-5/h2-3,9H,1H3,(H2,6,7)	InChI=1S/C5H8N2O2/c1-5(2-8)3(9)4(6)7-5/h2-3,9H,1H3,(H2,6,7)/t3-,5+/m1/s1
