19
gdb 39173	2.20864	1.76641	1.58601	2.6429	79.94	-0.2312	-0.0151	0.2161	985.7852	0.161578	-385.905994	-385.898503	-385.897559	-385.937767	29.877	
C	 0.0998927059	 1.435299259	 0.3985318926	-0.239216
C	 1.6127292869	 1.5194403673	 0.0228729768	-0.124344
C	 1.8749245286	 2.1377086794	-1.370138077	-0.210985
C	 1.5747405275	 1.2343963206	-2.5883849112	-0.264908
C	 0.2408868446	 0.5228194978	-2.6414583653	-0.057564
C	-0.3997205102	-0.0553471789	-1.6229679176	-0.061395
O	 2.4021786658	-0.8780727101	 0.1223989211	-0.311617
C	 1.5835853625	-0.0194036199	-0.0248090145	 0.40564
C	 0.0398680042	-0.0203152033	-0.1803140059	-0.169402
H	-0.0550193693	 1.4541113978	 1.4801153133	 0.107931
H	-0.5581081681	 2.1603343372	-0.0827477219	 0.105183
H	 2.2811605447	 1.959524856	 0.7669101223	 0.089383
H	 1.2945843565	 3.0642465776	-1.4469936891	 0.108567
H	 2.930356428	 2.4226361512	-1.4309204037	 0.110645
H	 1.6889325073	 1.8421434921	-3.4921582472	 0.101954
H	 2.3659508813	 0.4724380906	-2.6506190445	 0.136266
H	-0.1995412849	 0.432272105	-3.6316445635	 0.092102
H	-1.3276952701	-0.5840310559	-1.8231760491	 0.092888
H	-0.4873501613	-0.7706484234	 0.4125140242	 0.088873
117.5346	152.5686	197.2335	326.6278	329.901	424.7916	448.3953	501.2985	608.427	681.4472	731.3484	755.2637	779.8922	832.7781	863.7084	881.6239	911.7011	940.1578	989.0019	1006.5752	1056.3517	1062.9922	1064.519	1092.4851	1129.9977	1152.5564	1193.3125	1226.7865	1239.6702	1256.8253	1272.5689	1306.3039	1325.0553	1364.4284	1380.2938	1413.977	1475.2088	1481.0827	1490.7662	1708.0968	1888.4506	3003.3212	3033.7198	3063.7386	3064.9379	3076.3703	3085.3162	3090.6757	3130.1298	3144.8968	3169.4459
C1C2CCC3C4OC23C14	C1[C@@H]2CCC=C[C@H]1C2=O	
InChI=1S/C8H10O/c1-2-5-7-6-3-4(1)8(5,6)9-7/h4-7H,1-3H2	InChI=1S/C8H10O/c9-8-6-3-1-2-4-7(8)5-6/h1,3,6-7H,2,4-5H2/t6-,7+/m1/s1
