18
gdb 90191	4.23032	1.55694	1.39379	1.8434	75.13	-0.2127	0.0698	0.2826	954.8535	0.148524	-401.812007	-401.80528	-401.804335	-401.84278	27.997	
C	 0.0253098339	 1.4694596375	-0.1332429357	-0.324157
N	-0.0336723269	 0.0312620175	 0.0720152031	-0.082136
C	-1.4188047224	-0.4902172329	 0.3504546786	-0.288184
C	-1.0280565712	-1.2728780953	 1.5818939544	 0.44696
O	-1.4631610577	-2.1826264923	 2.6153227102	-0.395281
C	 0.0044958853	-1.9199796768	 2.8613821151	-0.00973
C	 0.3673267553	-1.9307534512	 1.3609427932	-0.096361
C	 0.7955872755	-0.4661049904	 1.2159622535	-0.059293
C	-0.0851829383	-0.4233784025	 2.4876615329	-0.106271
H	 1.0664030858	 1.7668906743	-0.2965511103	 0.120719
H	-0.5408738437	 1.7409865433	-1.0298996788	 0.123361
H	-0.3708368532	 2.0652104297	 0.7098082863	 0.094467
H	-2.1302933743	 0.3190626216	 0.5539129663	 0.106312
H	-1.7904514295	-1.0992346316	-0.4791362983	 0.118562
H	 0.4356693337	-2.4307283141	 3.7199451149	 0.098765
H	 0.5600957333	-2.7846801638	 0.7149972959	 0.090185
H	 1.8269339514	-0.1202075827	 1.1580156895	 0.075504
H	-0.4034451469	 0.4013630097	 3.1229368192	 0.086579
133.6434	232.1995	297.4561	367.5271	434.4725	464.7564	546.3414	619.5651	689.002	743.2893	756.4669	802.1506	809.1839	864.553	887.4569	933.0556	935.3255	953.0278	986.9759	1023.5307	1075.5521	1087.949	1095.5018	1125.7943	1152.5871	1160.0662	1169.6036	1182.1379	1197.0103	1235.701	1250.7787	1256.8337	1316.8611	1342.2388	1353.4471	1455.1156	1488.0553	1506.3753	1519.354	2935.4386	3027.0644	3058.8907	3078.0761	3100.1754	3120.2889	3132.0591	3139.3896	3152.1257
CN1CC23OC4C2C1C34	CN1C[C@@]23O[C@H]4[C@@H]2[C@@H]1[C@@H]34	
InChI=1S/C7H9NO/c1-8-2-7-3-5(8)4(7)6(3)9-7/h3-6H,2H2,1H3	InChI=1S/C7H9NO/c1-8-2-7-3-5(8)4(7)6(3)9-7/h3-6H,2H2,1H3/t3-,4+,5+,6-,7+
