17
gdb 55225	3.20054	1.2333	1.02589	5.2241	70.09	-0.2345	-0.0344	0.2	1179.5034	0.136091	-455.182806	-455.174114	-455.17317	-455.217133	31.248	
C	 0.1611241492	 1.291288938	-0.3555379955	-0.487397
C	-0.0240671521	-0.1127771777	 0.1858921672	 0.381872
O	 0.8664505703	-0.7244778132	 0.7254306939	-0.292036
C	-1.4311014254	-0.7313211855	 0.0714962904	-0.116966
C	-2.0009810556	-0.8401199309	-1.361649897	-0.107314
O	-1.7033121896	-2.1761910887	-1.7618081925	-0.241672
C	-1.4077969821	-2.9334832539	-0.6543953516	 0.460763
N	-1.1388361135	-4.1660673416	-0.6510668432	-0.581787
N	-1.4684548657	-2.1191630716	 0.4734340397	-0.320971
H	 0.3560977662	 1.243628356	-1.4334446373	 0.15857
H	-0.7331752456	 1.905692606	-0.212689041	 0.135254
H	 1.0217386518	 1.7581946825	 0.1252456348	 0.156208
H	-2.0933249191	-0.1085044352	 0.6893858156	 0.112375
H	-3.086269986	-0.68977251	-1.3635596461	 0.126922
H	-1.5465316629	-0.1493774773	-2.0751904485	 0.123313
H	-1.1840948752	-4.5426373877	-1.594948477	 0.224964
H	-0.8207691648	-2.3866112194	 1.2027456381	 0.267901
55.4746	78.1559	111.2265	145.2613	238.8681	308.1637	367.3615	458.9886	534.0954	539.9115	614.6884	719.0202	725.015	754.621	793.9607	815.9639	917.684	961.306	972.524	987.9439	1032.8394	1086.4472	1118.0052	1152.6766	1195.534	1234.3484	1257.4039	1312.4521	1359.83	1384.4061	1411.3068	1430.3968	1464.9199	1476.7136	1522.885	1794.8619	1817.4349	3005.4299	3039.4316	3044.547	3102.4559	3108.4666	3151.6616	3530.9877	3601.514
CC(=O)C1COC(=N)N1	CC(=O)[C@H]1CO[C]([NH])N1	
InChI=1S/C5H8N2O2/c1-3(8)4-2-9-5(6)7-4/h4H,2H2,1H3,(H2,6,7)	InChI=1S/C5H8N2O2/c1-3(8)4-2-9-5(6)7-4/h4H,2H2,1H3,(H2,6,7)/t4-/m1/s1
