12
gdb 125192	3.50157	1.65752	1.13293	4.413	65.33	-0.2718	-0.0888	0.1829	969.581	0.076563	-468.741042	-468.733843	-468.732899	-468.773291	25.63	
C	 0.051435233	 1.522896421	 0.0245884207	-0.497515
C	-0.0651464585	 0.0466806166	-0.0574887342	 0.357658
C	-1.0816442259	-0.8555009708	 0.0867677397	 0.069356
N	-2.4153885521	-1.0479776144	 0.3458343642	-0.156532
N	-2.7323454892	-2.2246043483	 0.3276227155	-0.000857
O	-1.3921100824	-3.0866239732	-0.0072104918	-0.295747
C	-0.5017246602	-2.1342373857	-0.1220845707	 0.507626
N	 0.7829408697	-2.078771299	-0.3810791211	-0.272742
O	 1.0350074292	-0.6618217774	-0.332656663	-0.212978
H	 0.7657472149	 1.8080704619	 0.8032532575	 0.170642
H	 0.4123973872	 1.932355083	-0.923936585	 0.170604
H	-0.9194376958	 1.9638682364	 0.2554890883	 0.160486
55.4108	187.1392	203.4971	265.2669	271.6848	390.3945	584.1902	606.4182	606.7194	622.7246	699.2591	782.8578	789.8085	852.1543	921.8994	1003.9236	1057.9977	1156.4732	1257.8162	1319.2024	1409.0205	1416.815	1469.9941	1479.04	1586.5838	1600.2443	1703.721	3048.7222	3110.0229	3148.404
CC1=C2N=NOC2=NO1	Cc1c2nnoc2no1	
InChI=1S/C4H3N3O2/c1-2-3-4(6-8-2)9-7-5-3/h1H3	InChI=1S/C4H3N3O2/c1-2-3-4(6-8-2)9-7-5-3/h1H3
