19
gdb 70518	2.63604	1.62862	1.22231	1.7666	82.92	-0.2294	-0.0299	0.1995	1074.998	0.159957	-385.888606	-385.88064	-385.879695	-385.920673	31.622	
C	 0.2443479618	 1.5577899232	 0.0186066991	-0.464569
C	 0.0912884581	 0.0500314142	 0.0344201415	 0.381369
O	-0.8735831798	-0.4271063684	 1.0030854831	-0.299546
C	 0.5120642162	-0.7245594834	 1.2100646709	-0.006751
C	 0.9186678016	-2.1857457441	 1.0898980614	-0.297528
C	 2.0808186617	-2.4070794661	 0.1551264621	-0.08053
C	 2.0532275597	-2.0721900163	-1.1424213931	-0.074887
C	 0.9288884664	-1.4403562855	-1.8310835533	-0.074298
C	 0.0413205058	-0.5733927955	-1.3201475769	-0.15574
H	 1.1896020995	 1.8479756501	-0.4514028193	 0.126206
H	-0.5698438639	 2.0184063608	-0.5517189784	 0.124178
H	 0.2149070555	 1.9553765265	 1.0362112265	 0.126696
H	 0.9635436262	-0.1744260926	 2.0368460369	 0.0859
H	 1.1349565153	-2.5951487359	 2.0808289288	 0.102883
H	 0.0396860825	-2.7179177154	 0.7049139253	 0.1343
H	 2.9661769626	-2.8956753778	 0.5526230565	 0.094026
H	 2.9060689999	-2.3311547089	-1.7662164513	 0.090547
H	 0.8202849027	-1.7043920853	-2.8821078955	 0.093765
H	-0.7388322518	-0.1839774096	-1.9722229441	 0.093978
119.4219	175.0993	215.3857	253.1038	337.679	366.5033	386.282	417.4084	477.7314	576.7212	627.0814	701.7849	716.1599	796.0659	819.5521	848.9775	907.0962	926.8141	956.2743	995.9249	1009.3015	1019.6632	1036.4989	1071.4933	1095.4213	1112.5123	1210.8044	1228.5273	1242.4147	1247.2496	1332.6978	1349.2759	1406.5117	1411.0838	1451.6243	1462.6608	1472.1108	1487.1138	1504.6195	1671.6676	1703.6242	3031.9488	3034.6945	3082.1929	3099.7972	3102.1402	3123.3743	3125.7024	3142.5377	3151.2509	3171.4056
CC12OC1CC=CC=C2	C[C@]12O[C@H]1CC=CC=C2	
InChI=1S/C8H10O/c1-8-6-4-2-3-5-7(8)9-8/h2-4,6-7H,5H2,1H3	InChI=1S/C8H10O/c1-8-6-4-2-3-5-7(8)9-8/h2-4,6-7H,5H2,1H3/t7-,8+/m0/s1
