23
gdb 114121	4.05055	0.88657	0.81863	0.8721	86.55	-0.239	0.0894	0.3283	1528.7143	0.20454	-388.255281	-388.245458	-388.244513	-388.290096	36.749	
C	 0.0838370673	 1.5269163884	 0.0461461807	-0.377974
C	 0.0446362308	 0.000153162	 0.169925179	-0.190022
C	-1.3624109886	-0.5727759751	 0.0262469398	 0.048315
C	-2.073998791	-0.518094932	-1.3766222357	-0.331663
C	-2.2621639357	-2.0406521446	-1.2964342253	 0.462781
C	-0.9372743186	-2.7414035293	-1.1890798245	-0.342348
C	-1.5530654872	-2.0993891613	 0.041644938	-0.177066
O	-3.4192951387	-2.7006714676	-1.6523598347	-0.282216
C	-3.5282014507	-2.9269032148	-3.0470647314	-0.256476
H	 1.1032389243	 1.9105515183	 0.1532325832	 0.110707
H	-0.2946092501	 1.8563522108	-0.9277506914	 0.117112
H	-0.5335285417	 2.0024282542	 0.8166795573	 0.11269
H	 0.7063591267	-0.445149559	-0.583347391	 0.093124
H	 0.4504815448	-0.3002078424	 1.1450238627	 0.094814
H	-2.0135114003	-0.1116647718	 0.7770449766	 0.073121
H	-3.0224030239	 0.0225167668	-1.342920681	 0.106823
H	-1.4792614794	-0.1445811024	-2.2174957448	 0.089096
H	-1.0108655937	-3.8243854596	-1.1972934873	 0.113114
H	-0.0350442956	-2.346004964	-1.6494798162	 0.10139
H	-1.7934437222	-2.6933583284	 0.9153512947	 0.089199
H	-4.4618684384	-3.4695281476	-3.2117029245	 0.12514
H	-3.5614167014	-1.9838825097	-3.6113273623	 0.110543
H	-2.6884213767	-3.5282915111	-3.4227679718	 0.109796
75.3514	95.4843	125.7648	147.7215	191.6719	223.2088	275.1558	328.5618	382.1632	412.2512	431.7418	531.5793	632.8665	693.1779	772.5551	820.0355	876.5083	902.3365	936.5399	942.6606	969.7054	987.2905	1021.1481	1022.6438	1063.1151	1075.9029	1092.8299	1115.6497	1134.7842	1181.4401	1188.4603	1205.9173	1234.5673	1235.9257	1265.3474	1288.9764	1294.9621	1343.6836	1375.4769	1400.3858	1411.4311	1472.9722	1480.0774	1486.1453	1488.1383	1498.76	1505.5831	1506.9104	1510.3952	2989.7947	3018.3479	3028.8703	3035.7193	3039.2678	3043.0906	3054.7922	3095.2647	3101.188	3108.5227	3109.6335	3119.1466	3181.1059	3201.8905
CCC1CC2(CC12)OC	CC[C@H]1C[C@]2(C[C@@H]12)OC	
InChI=1S/C8H14O/c1-3-6-4-8(9-2)5-7(6)8/h6-7H,3-5H2,1-2H3	InChI=1S/C8H14O/c1-3-6-4-8(9-2)5-7(6)8/h6-7H,3-5H2,1-2H3/t6-,7-,8+/m0/s1
