15
gdb 46130	3.32434	1.10737	0.90002	7.1255	65.64	-0.279	0.0188	0.2979	1231.7877	0.114254	-454.009149	-454.001166	-454.000222	-454.042637	28.553	
O	 0.1401005885	 0.0397762803	-0.0602793533	-0.374494
C	 0.0481129778	 1.2308559929	-0.0155382751	 0.477185
N	-1.0527591437	 1.9960159825	 0.3112063222	-0.363959
C	-0.859150112	 3.3857990679	-0.0456214898	-0.208331
C	 0.6866689107	 3.4408704543	-0.0708539334	 0.11018
C	 1.2719356706	 3.9632952567	 1.2543757431	-0.35541
C	 2.7322566462	 3.9691042257	 1.264608379	 0.272063
N	 3.8867435507	 3.9966839939	 1.2669486185	-0.291941
O	 1.092154375	 2.0863682939	-0.2806121836	-0.236839
H	-1.9541644166	 1.5495844982	 0.265676614	 0.269173
H	-1.2825875815	 3.6373287243	-1.026782733	 0.125282
H	-1.2831661774	 4.0672513803	 0.6983575769	 0.125616
H	 1.0665919848	 4.0359379858	-0.9035088067	 0.124945
H	 0.917617936	 4.9866685262	 1.4241441027	 0.156733
H	 0.9037257808	 3.346105307	 2.0813358686	 0.169795
59.4873	109.1195	132.9048	180.6924	322.1857	384.8522	403.0226	493.5343	518.632	552.4656	702.2633	764.0942	772.9506	858.3564	915.6862	944.7759	956.1905	1023.1784	1065.0952	1096.0247	1122.0697	1211.3602	1219.961	1253.7497	1282.9971	1330.8754	1388.3603	1397.6101	1438.6247	1458.4694	1532.4462	1907.1486	2370.4631	3015.9148	3045.0352	3072.8297	3086.252	3103.869	3658.174
O=C1NCC(CC#N)O1	O=C1NC[C@@H](CC#N)O1	
InChI=1S/C5H6N2O2/c6-2-1-4-3-7-5(8)9-4/h4H,1,3H2,(H,7,8)	InChI=1S/C5H6N2O2/c6-2-1-4-3-7-5(8)9-4/h4H,1,3H2,(H,7,8)/t4-/m1/s1
