20
gdb 86458	1.92985	1.67196	0.94047	4.4757	76.89	-0.2313	0.0155	0.2468	1267.484	0.170768	-440.320258	-440.311256	-440.310312	-440.353972	33.608	
C	-0.0184191215	 1.4894798738	 0.1042545116	-0.399269
C	-0.0520875943	-0.015505974	-0.1050611199	 0.131221
C	 0.8220553974	-0.4925135884	-1.2543679863	-0.16697
N	 0.7993511052	-1.9432901027	-1.2909426912	-0.07943
C	 1.4081931582	-2.5001474158	-2.48674603	-0.318853
C	 1.4001189616	-2.4797428292	-0.0822782742	-0.292772
C	 0.925838357	-1.8317162158	 1.2130495136	 0.403957
O	 1.1175597367	-2.347811562	 2.2801578212	-0.327539
O	 0.3474440134	-0.6139452811	 1.1514740804	-0.23738
H	 1.0034527903	 1.8318573071	 0.2931088079	 0.129429
H	-0.4029107228	 2.004850702	-0.7811977863	 0.120245
H	-0.6364868014	 1.7652764509	 0.9618707675	 0.138493
H	-1.0790066822	-0.3493675066	-0.2979853898	 0.101237
H	 0.4107317362	-0.1018856	-2.190913784	 0.111716
H	 1.8477619643	-0.0837909121	-1.1468529261	 0.08402
H	 2.4839692723	-2.2570628496	-2.5787157714	 0.097596
H	 1.3099086782	-3.5902205819	-2.4761029239	 0.126753
H	 0.8943546122	-2.1204791374	-3.3750193012	 0.122371
H	 1.1933678555	-3.5498651777	 0.0034308551	 0.142698
H	 2.5049199237	-2.3701721795	-0.079122533	 0.112477
100.4046	103.1312	155.683	229.1301	247.8063	266.7206	321.3503	362.5881	420.4708	460.7182	473.5613	529.9045	577.8996	634.4083	818.9215	895.1382	909.5438	955.3911	1001.7229	1009.7857	1070.7748	1094.0693	1129.832	1159.5351	1179.0219	1181.0839	1217.002	1262.8164	1290.8995	1311.922	1342.6066	1379.1093	1394.0776	1412.9595	1418.53	1457.4374	1473.2261	1483.8272	1486.5142	1498.032	1502.8312	1505.1872	1845.704	2891.5301	2900.1673	2930.1981	3035.1963	3045.2753	3063.4601	3072.9404	3091.2711	3108.2657	3118.6436	3130.1173
CC1CN(C)CC(=O)O1	C[C@H]1CN(C)CC(=O)O1	
InChI=1S/C6H11NO2/c1-5-3-7(2)4-6(8)9-5/h5H,3-4H2,1-2H3	InChI=1S/C6H11NO2/c1-5-3-7(2)4-6(8)9-5/h5H,3-4H2,1-2H3/t5-/m0/s1
