19
gdb 93582	4.11241	1.0905	0.9297	1.4373	78.82	-0.2278	0.041	0.2689	1301.0806	0.160321	-419.201751	-419.193181	-419.192237	-419.236008	31.187	
C	-0.0767754153	 1.3629711214	 0.0635085808	-0.383744
C	 0.0695167627	-0.1588468778	 0.0796498534	 0.030444
C	 0.8518980075	-0.7241702058	-1.1438347664	-0.118201
O	 1.9977401674	-1.3813371585	-0.565609085	-0.257457
C	 1.8622734604	-1.2278452466	 0.7793098532	 0.456507
N	 0.8482406186	-0.6121000346	 1.2421893922	-0.344564
N	 2.9261822873	-1.7332898208	 1.5016473035	-0.137205
C	 2.6741766368	-2.3305270863	 2.8011309758	-0.211864
C	 3.0862219058	-3.180523896	 1.6439810872	-0.228252
H	 0.9057396925	 1.8430313173	 0.004778369	 0.119916
H	-0.6736750899	 1.6893873935	-0.7954357351	 0.107875
H	-0.5682714509	 1.706658006	 0.9774096364	 0.128672
H	-0.9317123696	-0.604482656	 0.1327853238	 0.080775
H	 0.2875544363	-1.4612431011	-1.7225585434	 0.112519
H	 1.2106309324	 0.0582523376	-1.8204300029	 0.113907
H	 3.3955838264	-2.0762945157	 3.5712755696	 0.126272
H	 1.6390202262	-2.3778442004	 3.1248290626	 0.143944
H	 2.3294056755	-3.8159511908	 1.1924448854	 0.131543
H	 4.10580751	-3.5428558955	 1.55928143	 0.128912
45.6293	71.4468	128.6089	200.2141	242.311	263.8111	344.5613	468.4978	512.6204	574.801	708.8313	752.1092	815.583	846.4234	878.2688	932.0212	935.5351	942.5397	980.9572	1040.0395	1045.1214	1094.6318	1120.0761	1128.0124	1136.0084	1161.122	1172.4801	1183.9024	1226.2765	1231.3201	1306.5593	1353.2735	1377.1055	1404.1742	1428.0959	1487.7443	1495.8136	1496.3891	1521.736	1524.1013	1718.9718	3016.4295	3031.5055	3045.0518	3090.6012	3101.7958	3117.9545	3121.2091	3125.7134	3204.802	3220.0281
CC1COC(=N1)N1CC1	C[C@H]1COC(=N1)N1CC1	
InChI=1S/C6H10N2O/c1-5-4-9-6(7-5)8-2-3-8/h5H,2-4H2,1H3	InChI=1S/C6H10N2O/c1-5-4-9-6(7-5)8-2-3-8/h5H,2-4H2,1H3/t5-/m0/s1
