18
gdb 93369	2.71537	1.60186	1.22229	4.9763	71.41	-0.2515	-0.0023	0.2492	1048.7843	0.149353	-439.097205	-439.08931	-439.088366	-439.129774	30.232	
C	-0.0058425446	 1.6149781085	-0.0186743964	-0.386255
C	 0.031942451	 0.0822824016	 0.0135982628	-0.014304
C	 0.6850138089	-0.5149408344	-1.235235263	-0.086543
O	 2.1158000466	-0.3451907354	-1.271716821	-0.232942
C	 2.8488708536	-0.8487473539	-0.2473702045	 0.459466
O	 4.0113593215	-1.1037545951	-0.398187827	-0.332706
C	 2.139345069	-0.9962563844	 1.070850334	-0.183532
N	 1.8917971468	 0.3044669235	 1.7367422428	-0.315027
C	 0.7540529787	-0.4759156046	 1.2445150169	-0.054493
H	 1.0021541129	 2.0261540431	-0.0973263915	 0.150996
H	-0.5967176127	 1.9636982574	-0.8716697408	 0.109425
H	-0.4568056024	 2.0140455803	 0.8944948924	 0.115323
H	-0.9978083184	-0.2955778695	 0.0315615133	 0.082974
H	 0.4617423427	-1.586945496	-1.3067980097	 0.110407
H	 0.3246239316	-0.0318699661	-2.1465775123	 0.123411
H	 2.5005052634	-1.823177437	 1.6727300206	 0.11634
H	 2.0004418843	 0.1927927044	 2.7411544402	 0.243359
H	 0.1337757271	-0.9761233622	 1.9840744431	 0.094101
66.422	182.2952	210.4637	220.8395	288.5092	353.5665	399.6501	467.3194	524.9136	590.7416	731.8856	739.0236	793.3315	802.4591	865.7331	898.5017	930.5396	958.5916	967.6674	1013.9815	1047.7698	1087.3846	1138.4504	1147.9428	1163.8723	1191.4008	1239.3757	1257.0982	1292.1384	1337.351	1360.3895	1390.8878	1406.5069	1419.0726	1444.4974	1490.4572	1498.3772	1508.5357	1853.9775	3021.4006	3036.162	3045.0932	3104.1089	3109.984	3135.0142	3140.615	3173.6555	3510.3322
CC1COC(=O)C2NC12	C[C@H]1COC(=O)[C@H]2N[C@@H]12	
InChI=1S/C6H9NO2/c1-3-2-9-6(8)5-4(3)7-5/h3-5,7H,2H2,1H3	InChI=1S/C6H9NO2/c1-3-2-9-6(8)5-4(3)7-5/h3-5,7H,2H2,1H3/t3-,4-,5-/m0/s1
