18
gdb 65428	3.87949	0.97082	0.89957	2.9807	79.18	-0.2413	-0.0231	0.2183	1314.0167	0.143775	-401.890669	-401.880896	-401.879952	-401.925475	35.28	
C	 0.7616109037	 1.1866405765	 0.0118453801	-0.486747
C	-0.0446705632	-0.0752372657	 0.2185800325	 0.207792
C	 0.6209882399	-1.3893763986	 0.5414259128	-0.285272
N	-0.2103967173	-0.7398099981	 1.5277759462	-0.125701
C	 0.3624302793	-0.158998084	 2.7523615301	-0.286409
C	 1.819302853	-0.0423111728	 2.8473958889	 0.301409
C	 3.0168100641	 0.0156454046	 2.9437225617	-0.456772
C	-1.3081180554	-0.1680499346	-0.5838377456	 0.145596
O	-1.6154598564	 0.5981107728	-1.461490616	-0.26192
H	 1.7221844036	 1.1483036653	 0.5252158111	 0.137677
H	 0.9324198279	 1.3329443899	-1.0577896254	 0.143332
H	 0.2071466916	 2.0616482858	 0.367208361	 0.129759
H	 0.2376568901	-2.3247080984	 0.1391663491	 0.119826
H	 1.7011943079	-1.345827374	 0.6625743854	 0.135451
H	-0.099575644	 0.8231922851	 2.9041353515	 0.146162
H	 0.0177270392	-0.7898136566	 3.5810910635	 0.149746
H	 4.0731580408	 0.0816836178	 3.0351350855	 0.206651
H	-1.9528750346	-1.0265964249	-0.2923503223	 0.07942
68.2168	81.8005	139.5595	145.2511	200.3682	258.254	272.7606	326.2137	355.5695	401.2112	432.756	557.2395	606.5588	620.0811	672.1293	729.1775	759.8073	877.5347	912.6974	947.6414	987.473	996.4132	1028.7082	1099.5031	1115.6979	1132.1012	1164.6532	1273.6582	1319.021	1336.7021	1371.5729	1406.1228	1425.3355	1467.1927	1486.7865	1497.1435	1502.2915	1824.5295	2226.7963	2894.7884	3029.6601	3049.565	3064.9806	3094.2897	3111.7008	3156.0467	3181.5188	3501.0004
CC1(CN1CC#C)C=O	C[C@]1(CN1CC#C)C=O	
InChI=1S/C7H9NO/c1-3-4-8-5-7(8,2)6-9/h1,6H,4-5H2,2H3	InChI=1S/C7H9NO/c1-3-4-8-5-7(8,2)6-9/h1,6H,4-5H2,2H3/t7-,8?/m0/s1
