19
gdb 51562	2.78427	1.15359	0.92849	2.7531	78.64	-0.2217	0.0144	0.2361	1297.6316	0.158508	-419.139215	-419.130222	-419.129278	-419.17403	32.634	
N	 0.0134176972	 0.8713911723	-0.9249077504	-0.441383
C	-0.1481205675	-0.22579091	-0.3256084458	 0.132737
O	-0.9479587601	-1.1735390322	-0.8681366467	-0.189928
C	-1.0732370657	-2.367096083	-0.1311932198	 0.074962
C	-2.0436366269	-2.4257485715	 1.027279745	-0.338212
C	-2.3542354937	-3.1648447985	-0.2501958865	 0.008079
N	-3.5217203238	-2.8668084083	-1.0269501116	-0.086069
C	-3.8718791358	-1.5181567623	-1.4606421174	-0.233299
C	-3.3925334748	-2.5322822769	-2.4433307959	-0.216526
H	 0.6433599643	 1.4687831874	-0.3935117036	 0.232053
H	 0.2983537918	-0.5320442448	 0.629282117	 0.094644
H	-0.1421195653	-2.9264325401	-0.0632703784	 0.105146
H	-1.7791568598	-2.9753844308	 1.9238338183	 0.120438
H	-2.6203230244	-1.5224721865	 1.1989906857	 0.134089
H	-2.185470185	-4.2388083166	-0.2234668664	 0.105209
H	-4.9316804943	-1.286734133	-1.3902332683	 0.111858
H	-3.2003761975	-0.6953309866	-1.2448486473	 0.144399
H	-2.3924535135	-2.3816235415	-2.841803577	 0.128642
H	-4.0891398552	-3.0342324073	-3.1094734707	 0.113159
61.445	69.0016	92.1907	147.2767	208.9181	266.5737	323.1517	402.6258	490.4377	574.5003	648.4245	693.4654	813.5437	818.7429	828.1411	840.8886	898.7525	931.573	996.9064	1031.5812	1044.0696	1046.8347	1068.0779	1095.8535	1107.1964	1130.3429	1134.0274	1157.3984	1170.2715	1179.8838	1185.0669	1244.3334	1283.3244	1362.8713	1377.8561	1406.468	1416.3368	1478.0952	1486.6658	1514.7849	1746.8781	3038.0202	3105.61	3116.3249	3117.5502	3132.439	3135.4511	3193.0668	3220.9647	3223.2471	3519.4921
N=COC1CC1N1CC1	[NH][CH]O[C@H]1C[C@H]1N1CC1	
InChI=1S/C6H10N2O/c7-4-9-6-3-5(6)8-1-2-8/h4-7H,1-3H2	InChI=1S/C6H10N2O/c7-4-9-6-3-5(6)8-1-2-8/h4-7H,1-3H2/t5-,6+/m1/s1
