14
gdb 25433	2.61982	1.32838	0.88144	4.2783	73.9	-0.2465	-0.0601	0.1864	1204.93	0.1018	-436.7485	-436.740752	-436.739808	-436.781225	27.788	
O	-0.0219487112	-0.0307965538	-0.0020468937	-0.281111
C	 0.0002446356	 1.1817700536	 0.0071703378	 0.07172
C	 1.2280668376	 1.9780893616	 2.3884*^-6	 0.065226
C	 2.4982650977	 1.4354491137	-0.0180825425	-0.113841
N	 3.3937699086	 2.4656953979	-0.0199069728	-0.244523
C	 2.7439819973	 3.6660459042	-0.0034459641	-0.113839
C	 1.386102405	 3.4127035069	 0.0096389738	 0.065228
C	 0.3610509527	 4.4570283365	 0.0292076398	 0.071721
O	 0.6033456767	 5.6453646878	 0.0361428119	-0.281112
H	-0.9456809524	 1.7635147603	 0.0219416733	 0.07345
H	 2.808668868	 0.4038270626	-0.0295240769	 0.166574
H	 4.3946976103	 2.3555123445	-0.0318002066	 0.280483
H	 3.2715020006	 4.6054317766	-0.0019425443	 0.166574
H	-0.6888459866	 4.0950020376	 0.0377962559	 0.07345
113.4865	154.2782	160.9882	202.8337	233.8205	298.2795	419.3617	545.7493	590.9733	661.7819	668.455	753.4934	794.2076	828.6008	835.9504	920.6397	1031.4976	1041.2632	1090.9701	1097.1939	1182.0809	1278.2513	1338.7028	1368.5545	1425.9718	1456.0883	1476.3652	1546.5349	1575.9336	1780.7296	1780.9607	2891.2994	2913.6881	3281.8081	3284.0776	3660.127
O=CC1=CNC=C1C=O	O=Cc1c[nH]cc1C=O	
InChI=1S/C6H5NO2/c8-3-5-1-7-2-6(5)4-9/h1-4,7H	InChI=1S/C6H5NO2/c8-3-5-1-7-2-6(5)4-9/h1-4,7H
