17
gdb 83140	2.13564	1.76587	1.38487	1.4187	69.05	-0.2427	-0.0357	0.2071	1008.7941	0.134174	-458.95936	-458.950751	-458.949807	-458.992534	31.936	
C	 0.0615809874	 1.5788144831	-0.14821538	-0.427108
C	 0.0845538971	 0.075332344	 0.0129014689	-0.097552
C	 1.304264844	-0.7788921886	-0.1789587828	-0.001965
O	 2.5454699596	-0.1029035947	-0.1690776632	-0.259872
C	 2.8507656822	 0.3539736991	 1.142832174	-0.191056
C	 1.713124941	-0.0987961158	 2.0497309957	 0.297852
O	 1.7113003547	-0.1381876885	 3.2589964902	-0.340687
C	 0.6570826215	-0.70291747	 1.196949256	 0.281947
O	-0.120167961	-1.6763284914	 1.7992346193	-0.471231
H	 1.0383970028	 2.0298318789	 0.0376547189	 0.131079
H	-0.2220653705	 1.8399924514	-1.1731372056	 0.130065
H	-0.6652296792	 2.0383600801	 0.5286314881	 0.130852
H	-0.8249846535	-0.4299392703	-0.3082865738	 0.115758
H	 1.2972529795	-1.6683717347	-0.7991140862	 0.121275
H	 3.7888439745	-0.0964158337	 1.4896625732	 0.145475
H	 2.9711785018	 1.4448970505	 1.1641121068	 0.13693
H	 0.0967815083	-1.6328649195	 2.7427776707	 0.298237
91.626	127.3293	168.449	197.0125	248.7469	270.0018	339.8517	384.983	468.4464	550.5521	577.4847	631.8622	644.4241	702.7196	803.7312	898.7321	906.3057	974.5194	1012.042	1015.7029	1044.8018	1089.052	1109.8142	1124.0701	1151.4168	1203.2339	1221.8794	1292.3472	1333.3576	1354.6189	1399.9554	1416.7013	1456.245	1480.1778	1489.9945	1504.4336	1817.3805	3022.1823	3043.0787	3060.1797	3101.5384	3124.2907	3138.9491	3179.1089	3722.0677
CC1C2OCC(=O)C12O	C[C@H]1[C@H]2OCC(=O)[C@@]12O	
InChI=1S/C6H8O3/c1-3-5-6(3,8)4(7)2-9-5/h3,5,8H,2H2,1H3	InChI=1S/C6H8O3/c1-3-5-6(3,8)4(7)2-9-5/h3,5,8H,2H2,1H3/t3-,5+,6-/m0/s1
