22
gdb 102752	2.3027	1.0927	0.83156	3.7171	84.04	-0.2376	0.0316	0.2692	1477.3088	0.193836	-404.363635	-404.353617	-404.352673	-404.399636	36.187	
C	-0.0510074754	 1.388643892	 0.1871102257	-0.372992
C	-0.113708264	-0.1054530137	-0.1481457899	-0.167018
N	 0.7061306573	-0.4894664453	-1.288202223	-0.023665
C	 2.1573326083	-0.6028143175	-1.1320729057	-0.207363
C	 2.6075596423	-1.9299483715	-0.5574328845	 0.018639
C	 2.7040510335	-3.1338241293	-1.4601316629	-0.254108
C	 3.9597599543	-2.4749181606	-0.9468788575	-0.271691
C	 0.1451714183	-0.7699012462	-2.4958859372	 0.155918
O	 0.7478440555	-1.1034354075	-3.4975217678	-0.353688
H	 0.9678981107	 1.7076272334	 0.4259080206	 0.127349
H	-0.4051645552	 1.9896750754	-0.6556649174	 0.12821
H	-0.6801948947	 1.6071441969	 1.055794172	 0.12053
H	 0.1876820606	-0.6993442437	 0.7235782895	 0.114062
H	-1.1477873245	-0.3879905962	-0.3720608798	 0.118749
H	 2.5878083198	-0.4696460994	-2.1276502851	 0.136435
H	 2.504283768	 0.2240969267	-0.5020135442	 0.103781
H	 2.2966066781	-2.1162917952	 0.4674439802	 0.07796
H	 2.4315175845	-4.1015609426	-1.0536598607	 0.107237
H	 2.4392156025	-2.9891062702	-2.501099176	 0.146368
H	 4.5546894699	-1.8998478384	-1.6491850867	 0.114785
H	 4.5432660564	-2.987613568	-0.1902916871	 0.110141
H	-0.9570102862	-0.6532422191	-2.4747438825	 0.070361
47.0726	67.5898	87.6448	126.0973	206.4366	229.6222	280.7246	310.1702	340.4355	390.3594	427.8251	525.346	646.9464	777.8849	790.1477	809.1195	828.5759	858.6359	922.012	957.71	976.1294	1009.2136	1034.2533	1061.2795	1086.4232	1092.389	1120.5237	1133.4908	1152.5662	1199.7949	1223.8055	1240.7964	1282.2414	1325.7849	1364.4562	1393.7917	1410.8581	1425.0176	1434.1927	1455.0406	1471.629	1476.6733	1489.8147	1495.2197	1506.2127	1508.7048	1782.8548	2928.0962	3028.0286	3038.3851	3043.2173	3072.4023	3105.2163	3112.5328	3119.1152	3131.2929	3136.2856	3141.9272	3211.6958	3232.4872
CCN(CC1CC1)C=O	CCN(CC1CC1)C=O	
InChI=1S/C7H13NO/c1-2-8(6-9)5-7-3-4-7/h6-7H,2-5H2,1H3	InChI=1S/C7H13NO/c1-2-8(6-9)5-7-3-4-7/h6-7H,2-5H2,1H3
