19
gdb 83265	1.87592	1.82754	1.55023	1.009	70.23	-0.2316	0.0677	0.2993	1012.8561	0.158934	-460.146001	-460.137442	-460.136497	-460.178468	33.612	
C	 0.0305400901	 1.5632362213	-0.0905692593	-0.425788
C	 0.0689996002	 0.0462337896	 0.0030107235	 0.068416
O	 0.8264875809	-0.4810321668	-1.0966346736	-0.288728
C	 1.2420007515	-1.8098774631	-0.7440524913	-0.116113
C	 1.4944481621	-1.7651722948	 0.7502502601	-0.173087
C	 2.2546392028	-0.5506222983	 1.2459480351	 0.052078
O	 3.0581041738	 0.2463534913	 0.4277692236	-0.433567
C	 0.7465980993	-0.5374798609	 1.2418151549	 0.298875
O	 0.0072187001	-0.5755729664	 2.4226555344	-0.467652
H	 1.0354469027	 1.9862035787	-0.0131773026	 0.13355
H	-0.4181448047	 1.880914462	-1.0357253829	 0.129067
H	-0.5798096189	 1.9649726233	 0.7248042921	 0.116816
H	-0.9583941571	-0.3531285592	-0.0256650929	 0.082754
H	 0.4573029195	-2.5415956501	-0.9860114409	 0.108194
H	 2.1275225754	-2.036837641	-1.3459450361	 0.118431
H	 1.5123645138	-2.685544018	 1.3220718118	 0.101432
H	 2.705658004	-0.6608084526	 2.2274706908	 0.109146
H	 2.6231017319	 0.2900757043	-0.4353380998	 0.297424
H	 0.1423806725	 0.2573091508	 2.8875414232	 0.288753
143.6677	208.0238	219.6655	234.5243	249.8762	266.7612	319.5478	365.2119	434.7406	533.3532	555.6789	568.1526	588.1815	707.7282	740.764	820.6242	870.7241	915.2141	921.4177	981.1878	1035.5476	1048.4313	1083.9056	1092.763	1110.048	1134.4024	1159.188	1200.7236	1242.0587	1266.9828	1304.8534	1326.621	1333.8523	1357.2784	1389.3067	1409.0062	1416.8307	1477.4319	1491.2717	1499.906	1517.6744	2968.5798	3000.2219	3043.7297	3077.7492	3113.2876	3129.6903	3163.1194	3186.4355	3736.6477	3801.5064
CC1OCC2C(O)C12O	C[C@H]1OC[C@H]2[C@@H](O)[C@@]12O	
InChI=1S/C6H10O3/c1-3-6(8)4(2-9-3)5(6)7/h3-5,7-8H,2H2,1H3	InChI=1S/C6H10O3/c1-3-6(8)4(2-9-3)5(6)7/h3-5,7-8H,2H2,1H3/t3-,4+,5-,6-/m1/s1
