18
gdb 90312	2.55818	1.71945	1.12593	1.8844	80.04	-0.2201	0.0007	0.2208	1092.508	0.149315	-398.132979	-398.124943	-398.123999	-398.166262	30.303	
C	-0.4008992711	 1.5518036914	-0.3892289184	-0.397156
C	-0.0258204964	 0.1094373673	-0.0963272522	 0.03652
C	 1.2763721673	-0.4531091572	-0.8030703905	-0.389717
C	 1.8766558579	-0.4775242602	 0.5956125939	 0.402257
N	 2.9241499718	-0.571204414	 1.3134628966	-0.362101
C	 2.4107210182	-0.2017625322	 2.6605441363	-0.274285
C	 0.9187041174	 0.2362953551	 2.5095044062	 0.307668
N	 0.0777881073	 0.7584996252	 3.3044509824	-0.542802
N	 0.6907406819	-0.1097741011	 1.1873833875	-0.063959
H	 0.4759430947	 2.2047103749	-0.3348580026	 0.127091
H	-0.83289043	 1.6324092744	-1.3918030354	 0.12576
H	-1.1383922195	 1.9087677754	 0.3348447844	 0.15294
H	-0.8958229679	-0.5469058126	-0.1893670213	 0.104285
H	 1.1577533098	-1.4304681532	-1.2740615757	 0.139752
H	 1.758247784	 0.2340330428	-1.5008776031	 0.139625
H	 2.4830610817	-1.0558766492	 3.34432103	 0.139113
H	 3.0128667283	 0.6088261747	 3.0844598118	 0.135474
H	 0.5017555248	 0.9169100585	 4.2180569902	 0.219535
37.5389	112.8116	216.8015	235.6142	280.8117	364.4783	412.3106	492.7943	544.2802	621.8599	655.7226	692.4018	750.2075	823.9621	834.0433	899.7678	912.8009	970.2252	978.5154	1043.7312	1065.6646	1093.4407	1095.7155	1181.4206	1184.7462	1190.8159	1225.6062	1251.4698	1275.7113	1363.3274	1369.769	1388.1159	1412.0837	1455.3121	1464.1788	1487.5001	1496.4941	1733.4027	1748.468	3039.5263	3041.3262	3065.126	3081.372	3086.3972	3113.4804	3122.8675	3142.8092	3485.1002
CC1CC2=NCC(=N)N12	C[C@H]1CC2=NC[C]([NH])N12	
InChI=1S/C6H9N3/c1-4-2-6-8-3-5(7)9(4)6/h4,7H,2-3H2,1H3	InChI=1S/C6H9N3/c1-4-2-6-8-3-5(7)9(4)6/h4,7H,2-3H2,1H3/t4-/m0/s1
