21
gdb 106549	1.91888	1.60119	1.15088	2.1721	78.94	-0.2418	0.0784	0.3202	1195.8223	0.180835	-424.161342	-424.15191	-424.150966	-424.19522	35.843	
C	-0.1441145045	 1.5467182899	 0.8039361892	-0.431368
C	-0.1216997138	 0.0598168575	 0.4986228107	-0.031951
C	 1.0998791207	-0.5374776488	-0.2549101083	 0.013657
O	 1.9336241847	-0.2959890433	 0.9486495912	-0.360273
C	 0.6598217763	-0.9031268706	 1.4461462303	 0.359885
C	 0.5963747394	-1.1177549301	 2.9303743745	-0.19304
O	 1.6767317149	-1.9196277474	 3.3702279914	-0.416855
C	 0.7887715789	-1.9536192127	 0.3002663841	 0.017962
C	-0.3596673649	-2.82659923	-0.1773840201	-0.450423
H	 0.839798648	 1.8871251691	 1.131882271	 0.137068
H	-0.4322665487	 2.1182511076	-0.0851013737	 0.114645
H	-0.8740033504	 1.7763665968	 1.5878688444	 0.114676
H	-1.0987693389	-0.3017756471	 0.169490767	 0.069923
H	 1.5276132771	-0.2465735126	-1.2158382316	 0.088741
H	 0.5800116542	-0.1404985687	 3.4393535566	 0.098749
H	-0.3278732083	-1.6449324332	 3.1924208216	 0.114086
H	 2.4683102929	-1.5571055545	 2.9541012604	 0.2958
H	 1.7082698212	-2.5325256629	 0.4146517832	 0.084495
H	-1.3004809204	-2.2855121894	-0.305507199	 0.120274
H	-0.1102457035	-3.2884256069	-1.1387918733	 0.123843
H	-0.5370739748	-3.6382300326	 0.5362845605	 0.130106
85.7326	146.6614	173.3046	195.5104	215.6933	232.0686	246.5894	359.0663	388.9041	408.1377	459.0071	586.6082	622.0296	678.196	719.1425	781.1179	793.3521	855.6588	917.3867	930.2146	1011.0273	1028.0431	1063.1858	1066.8184	1086.2743	1098.9434	1129.1219	1160.5325	1172.4082	1209.7986	1219.0435	1234.7846	1241.7227	1311.427	1365.3401	1385.9716	1403.7142	1412.9581	1422.3674	1445.1498	1493.0075	1494.6407	1495.4383	1503.1357	1506.4692	2977.6053	3035.8826	3037.4328	3067.4419	3078.9359	3085.6489	3091.0855	3095.9391	3105.1551	3120.5125	3136.8144	3789.0448
CC1C2OC1(CO)C2C	C[C@H]1[C@H]2O[C@]1(CO)[C@H]2C	
InChI=1S/C7H12O2/c1-4-6-5(2)7(4,3-8)9-6/h4-6,8H,3H2,1-2H3	InChI=1S/C7H12O2/c1-4-6-5(2)7(4,3-8)9-6/h4-6,8H,3H2,1-2H3/t4-,5-,6-,7+/m0/s1
