23
gdb 75212	2.58376	1.48482	1.19376	0.1851	91.06	-0.224	0.0336	0.2576	1180.3326	0.206347	-351.174995	-351.166123	-351.165179	-351.207985	35.225	
C	 0.4859203601	 1.4207561116	-0.0587490549	-0.494081
C	 0.0916561077	-0.0236138169	-0.0958410164	 0.32577
C	-0.0285990538	-0.7970328844	-1.1796963151	-0.167151
C	-0.4754343173	-2.2051108007	-0.8713969927	-0.329078
C	-0.4350052947	-2.2631636403	 0.6732367693	 0.370894
C	-1.5840362231	-3.0403228374	 1.2992028967	-0.477844
C	 0.9661751825	-2.6030043498	 1.2818742119	-0.262733
C	 0.9875362829	-1.2357328969	 2.0174676716	-0.22441
C	-0.2368315464	-0.7845502496	 1.1661349866	-0.144276
H	 1.3720278287	 1.5775905613	 0.5693297898	 0.124174
H	 0.70690878	 1.8066204449	-1.0578258786	 0.120489
H	-0.3125003922	 2.0369227959	 0.3750388076	 0.122098
H	 0.1518865811	-0.4549224933	-2.1946855144	 0.078981
H	-1.484097633	-2.398625526	-1.2663715516	 0.093625
H	 0.1767108487	-2.9660265527	-1.3215791869	 0.096509
H	-1.5618645739	-4.0925613843	 0.9909181126	 0.111732
H	-1.5358228616	-3.0170711549	 2.3938697666	 0.108991
H	-2.5533197991	-2.6255097371	 0.9991952468	 0.111339
H	 1.0041002398	-3.4936685425	 1.9153144542	 0.091502
H	 1.7450590494	-2.6902350824	 0.5198310333	 0.097539
H	 0.7480829062	-1.3211174755	 3.0810274299	 0.095842
H	 1.8987142795	-0.6392691311	 1.9192495618	 0.092574
H	-1.0525072816	-0.316001488	 1.7310175219	 0.057511
87.1328	177.1032	196.6075	240.6733	248.9789	255.658	322.3654	346.9548	411.9977	525.9098	537.0229	621.7373	690.5461	738.4959	805.859	832.0858	874.5089	880.075	930.2623	946.2867	968.7382	976.3505	980.1448	1014.18	1034.6807	1051.8594	1107.0345	1121.1482	1165.4048	1174.5895	1197.5096	1226.5172	1234.4346	1266.3014	1272.0226	1282.4433	1292.7406	1338.6665	1359.0392	1411.065	1413.2101	1474.634	1480.0961	1487.1817	1490.4974	1492.5345	1494.2375	1499.4408	1714.598	2990.7334	3014.6876	3016.1044	3021.7545	3024.2565	3049.4264	3056.8539	3060.4218	3081.3271	3085.7849	3092.4347	3107.0551	3111.8679	3171.5972
CC1=CCC2(C)CCC12	CC1=CC[C@@]2(C)CC[C@@H]12	
InChI=1S/C9H14/c1-7-3-5-9(2)6-4-8(7)9/h3,8H,4-6H2,1-2H3	InChI=1S/C9H14/c1-7-3-5-9(2)6-4-8(7)9/h3,8H,4-6H2,1-2H3/t8-,9-/m0/s1
