20
gdb 93426	3.10359	1.21947	0.9185	3.9773	84.48	-0.222	-0.0472	0.1748	1283.7442	0.171813	-403.161358	-403.152719	-403.151775	-403.195057	32.646	
C	-0.0766909942	 1.5016036785	-0.1481445779	-0.320097
N	-0.019352033	 0.0524194107	-0.0236912094	-0.063471
C	-1.3389326372	-0.5666550632	 0.0879778393	-0.185267
C	-1.4096343858	-1.9118321029	-0.6353528171	-0.288003
C	-0.6471683797	-3.0864095787	-0.0395665686	 0.355704
O	-1.0160983403	-4.2217846123	-0.2811540353	-0.329734
C	 0.5359632626	-2.8987563832	 0.8308800231	-0.147536
C	 1.1456287705	-1.7880433879	 1.2640543014	-0.0428
C	 0.9002891584	-0.3304947656	 1.0273997723	-0.197032
H	 0.9298252358	 1.8965341815	-0.3213004147	 0.120111
H	-0.6964563478	 1.7764979924	-1.0060741653	 0.122847
H	-0.485926449	 2.0070110711	 0.7476758729	 0.094838
H	-1.6585707798	-0.6686323418	 1.1408090509	 0.092531
H	-2.0637780454	 0.1011522239	-0.386735157	 0.105885
H	-2.4483637339	-2.2431734915	-0.7317527991	 0.12007
H	-1.0270401451	-1.7681992106	-1.6538359286	 0.132828
H	 0.924051467	-3.8558652497	 1.170179864	 0.104164
H	 1.9816630183	-1.9391594466	 1.9468421926	 0.110014
H	 1.8746173504	 0.128678654	 0.8075054194	 0.119997
H	 0.6042456184	 0.098556142	 2.0132553973	 0.094951
43.7097	124.0929	186.2196	232.5715	303.8938	334.5489	343.0319	375.9422	406.0981	506.7788	516.0646	633.2592	669.1413	744.2865	805.8739	847.5202	922.2111	941.2251	995.2677	1007.8532	1044.7768	1069.4963	1098.0095	1148.6097	1159.7992	1203.4242	1233.537	1245.3342	1291.1707	1317.5781	1336.6183	1370.8468	1395.0395	1420.1842	1425.0842	1442.2654	1456.5046	1473.1541	1490.554	1505.8918	1508.981	1705.9901	1750.049	2833.0055	2924.2012	2945.0263	3014.4295	3036.5883	3061.0899	3075.2854	3090.6512	3108.2475	3128.4824	3167.5167
CN1CCC(=O)C=CC1	CN1CCC(=O)C=CC1	
InChI=1S/C7H11NO/c1-8-5-2-3-7(9)4-6-8/h2-3H,4-6H2,1H3	InChI=1S/C7H11NO/c1-8-5-2-3-7(9)4-6-8/h2-3H,4-6H2,1H3
