16
gdb 79558	2.51144	1.78326	1.259	4.068	73.48	-0.2745	0.0196	0.2941	992.0347	0.125016	-400.712525	-400.704957	-400.704012	-400.744497	29.354	
O	-0.0598291826	 1.4181786623	 0.2444490645	-0.420731
C	-0.1003681349	 0.0316234311	 0.1242322425	 0.110289
C	-0.4827640884	-0.7938768185	 1.3098189522	-0.106978
C	-1.574309166	-0.130524248	 2.1113191263	-0.090176
C	-2.8510718852	-0.9126152502	 2.0646813638	-0.331396
C	-2.4744037235	-0.0871517111	 0.8492373876	 0.223549
C	-3.2661095721	 1.0067145674	 0.3829819676	 0.204119
N	-3.899664368	 1.886476411	-0.0234982322	-0.357328
C	-1.3847554427	-0.7533263701	 0.0412519644	-0.221523
H	-0.3912230994	 1.8089228839	-0.5714406977	 0.298611
H	 0.7064187402	-0.4000002167	-0.4713691177	 0.097545
H	 0.1283484685	-1.6166710603	 1.6618851773	 0.104879
H	-1.432664879	 0.6909974245	 2.8014388495	 0.125423
H	-2.8357410232	-1.9954005549	 1.9825898074	 0.122615
H	-3.6683436596	-0.5119649515	 2.6561539472	 0.139045
H	-1.549735694	-1.5286108288	-0.6983894328	 0.102056
101.5949	154.2108	222.0923	271.4986	295.8732	391.8066	503.0425	521.392	572.8072	586.9651	689.7799	749.6092	778.5008	825.8093	839.816	917.2763	964.1748	981.73	1005.0476	1024.0471	1051.7511	1061.5919	1088.2786	1099.4097	1112.152	1206.3324	1210.2759	1277.6946	1286.2867	1297.2655	1337.3273	1361.6805	1451.933	1488.0571	2344.4159	3090.6875	3123.0867	3174.766	3185.9429	3204.9869	3216.4613	3808.0235
OC1C2C3CC3(C#N)C12	O[C@H]1[C@H]2[C@@H]3C[C@]3(C#N)[C@@H]12	
InChI=1S/C7H7NO/c8-2-7-1-3(7)4-5(7)6(4)9/h3-6,9H,1H2	InChI=1S/C7H7NO/c8-2-7-1-3(7)4-5(7)6(4)9/h3-6,9H,1H2/t3-,4-,5+,6-,7+/m0/s1
