13
gdb 26573	2.40837	1.88244	1.05658	6.1419	64.62	-0.2159	-0.031	0.1848	1021.4296	0.088752	-493.738273	-493.730385	-493.729441	-493.770675	29.058	
O	 0.0386408722	 1.3390649972	-0.004580873	-0.428162
C	-0.0175554218	-0.0095481156	-0.006912719	 0.344711
C	-1.1954159463	-0.6764445392	-0.0005612903	 0.077799
O	-2.3943731057	-0.0364566575	 0.0079573641	-0.422961
C	-1.2064280615	-2.1413997242	-0.0029741076	 0.334215
O	-2.2284548786	-2.8092339428	 0.0024513653	-0.37194
C	 0.1469662491	-2.7185755968	-0.0127004492	-0.259621
C	 1.2473235026	-1.9565656803	-0.0183203793	 0.049966
O	 1.1987953726	-0.5960965373	-0.0155066682	-0.223281
H	 0.9627102038	 1.6152491239	-0.0110650198	 0.315278
H	-2.2375123622	 0.9151028174	 0.010948103	 0.306697
H	 0.2353521208	-3.7976832452	-0.0151805746	 0.129164
H	 2.2707824851	-2.3057095696	-0.0254944114	 0.148135
107.6908	145.7008	200.8664	283.3766	301.2473	340.9809	356.252	491.8479	501.1608	523.9059	568.315	605.9332	695.8862	739.0379	838.5485	853.7002	943.463	1007.4738	1036.4002	1157.0695	1230.7964	1269.2371	1304.0952	1363.448	1414.4299	1461.7901	1647.6778	1733.9274	1751.4754	3216.8384	3240.1941	3806.7017	3818.3105
OC1=C(O)C(=O)C=CO1	Oc1c(O)c(=O)cco1	
InChI=1S/C5H4O4/c6-3-1-2-9-5(8)4(3)7/h1-2,7-8H	InChI=1S/C5H4O4/c6-3-1-2-9-5(8)4(3)7/h1-2,7-8H
