16
gdb 11644	3.2573	1.97619	1.54558	4.1557	70.77	-0.2378	0.0081	0.2459	859.6773	0.131073	-342.718324	-342.711214	-342.71027	-342.749483	27.27	
C	 0.0467105218	 1.50271812	-0.1624711439	-0.344015
N	 0.0180374959	 0.0536479698	 0.0185235867	-0.122395
C	-1.0400184823	-0.5609906529	 0.9270322024	-0.033492
C	-0.1195692531	-1.807975466	 0.9845272416	-0.239518
C	 0.7662185	-0.5480655114	 1.2052736184	 0.249309
C	-0.3192241327	-0.0237664842	 2.1972266599	-0.275757
C	 2.2018690865	-0.4718180461	 1.3331664185	 0.167012
N	 3.3501842973	-0.399072398	 1.4461456555	-0.348259
H	 1.025151465	 1.7769130076	-0.5684323879	 0.141947
H	-0.708870376	 1.7604827567	-0.9111186448	 0.130724
H	-0.1362109547	 2.1174770875	 0.7307636061	 0.104764
H	-2.0991473694	-0.518958844	 0.6768670987	 0.098815
H	-0.2341457794	-2.4756637296	 1.8384388794	 0.11145
H	 0.0420626174	-2.3207326938	 0.0375202543	 0.124876
H	-0.3409406718	 1.0488168469	 2.3799760846	 0.120646
H	-0.4468460045	-0.5841549627	 3.1261066404	 0.113892
128.959	162.237	192.5067	309.5764	347.2008	507.3049	521.5608	543.4849	560.6939	610.1634	745.3525	792.6379	812.2431	917.8681	939.6856	948.0487	995.1924	1064.1396	1070.99	1122.3523	1144.4866	1168.1091	1171.1399	1183.8089	1224.4739	1230.0843	1233.8414	1272.5129	1440.5866	1471.3682	1492.6115	1497.8859	1533.2992	2353.0663	2995.0424	3074.7757	3081.2069	3093.0999	3109.9226	3132.1292	3160.892	3177.7633
CN1C2CC1(C2)C#N	CN1[C@H]2C[C@@]1(C2)C#N	
InChI=1S/C6H8N2/c1-8-5-2-6(8,3-5)4-7/h5H,2-3H2,1H3	InChI=1S/C6H8N2/c1-8-5-2-6(8,3-5)4-7/h5H,2-3H2,1H3/t5-,6+
