18
gdb 52434	8.90756	0.43105	0.41937	3.7526	75.81	-0.2609	-0.0309	0.23	2420.7775	0.144482	-439.090239	-439.079866	-439.078922	-439.127972	33.958	
O	-0.6774103678	 0.8768773512	 0.7660870153	-0.230636
C	 0.0349496237	 1.075813797	-0.1821936731	 0.161003
C	 1.3252513891	 1.8665729431	-0.1452444148	-0.279572
C	 1.3426334219	 2.979073725	-1.2050590878	-0.213952
C	 2.6789211086	 3.7059642137	-1.2492882166	-0.04929
O	 2.6043641029	 4.6999329736	-2.2573903188	-0.238122
C	 3.7869907525	 5.450583168	-2.3633643359	-0.187188
C	 3.6326869906	 6.4475872348	-3.4268905212	 0.265931
N	 3.5417567332	 7.2425302537	-4.2588667502	-0.288936
H	-0.2234335167	 0.6718633692	-1.1896662043	 0.076076
H	 1.4605777219	 2.2609174852	 0.8661940549	 0.127054
H	 2.1446290668	 1.1600844171	-0.3464874341	 0.122956
H	 1.139941082	 2.5606301908	-2.1978869583	 0.122848
H	 0.5515146534	 3.7084812442	-1.0006561541	 0.131193
H	 2.901893578	 4.1689900235	-0.2736393714	 0.10097
H	 3.4969461692	 2.9995980235	-1.47060696	 0.096947
H	 4.0222167593	 5.9744692585	-1.4221382345	 0.141892
H	 4.6539771014	 4.8131514179	-2.6040353651	 0.140824
38.8946	59.0259	61.4017	91.0487	124.7854	139.9861	184.9456	271.3287	342.9123	384.542	443.5457	517.9057	585.6292	757.1262	816.3816	925.568	947.4438	1004.9684	1019.7064	1034.5262	1056.5638	1121.6205	1154.0622	1157.6725	1217.2082	1253.7674	1262.6512	1293.6146	1319.2641	1357.0804	1391.4108	1429.2699	1449.3398	1465.8962	1492.9366	1500.4698	1528.0069	1841.0073	2375.2141	2855.0754	2956.9873	2970.906	2987.9611	2995.0448	3007.9048	3042.939	3082.8108	3101.73
O=CCCCOCC#N	O=CCCCOCC#N	
InChI=1S/C6H9NO2/c7-3-6-9-5-2-1-4-8/h4H,1-2,5-6H2	InChI=1S/C6H9NO2/c7-3-6-9-5-2-1-4-8/h4H,1-2,5-6H2
