19
gdb 99943	3.63067	0.70365	0.67913	4.029	84.6	-0.2648	-0.0592	0.2056	1724.4646	0.154343	-422.992998	-422.981957	-422.981013	-423.030416	37.729	
C	-0.0796790686	 1.3702985661	 0.1297639505	-0.243671
O	 0.0155070888	-0.0319899641	-0.0183257326	-0.274747
C	 0.6789863803	-0.5272433565	-1.1872462645	 0.152952
C	-0.056011151	-0.1169503896	-2.4816929412	-0.417639
C	 2.1608543659	-0.0958161469	-1.2328298882	-0.417749
C	 0.620238171	-1.9887588584	-1.0581204379	 0.144757
C	 0.5995707252	-3.1947541269	-1.0008804166	 0.018605
C	 0.5470852434	-4.6283375262	-0.8831783747	 0.01651
O	 1.0086337728	-5.4014599591	-1.6915934472	-0.232472
H	 0.9017335095	 1.8583018966	 0.1987557371	 0.111241
H	-0.6517887277	 1.8454926906	-0.6783093434	 0.111209
H	-0.6116344734	 1.5355898422	 1.069588948	 0.135702
H	 0.032871096	 0.9595380452	-2.650551196	 0.121828
H	 0.3789271024	-0.6319258961	-3.3414674486	 0.137512
H	-1.113857033	-0.3808204026	-2.4127841531	 0.137396
H	 2.6537451607	-0.3444529055	-0.2901402579	 0.137394
H	 2.6782619217	-0.6104806873	-2.0458404057	 0.137545
H	 2.24371925	 0.9805090808	-1.4057172181	 0.121849
H	 0.0354779663	-4.9860376923	 0.0334916501	 0.101777
41.266	56.8025	72.5745	106.3791	181.9426	190.7592	252.0393	262.7386	281.7425	317.4508	330.6648	399.8349	400.6869	536.8888	578.5154	606.4904	722.9881	829.1769	920.8451	930.6468	1015.4018	1022.491	1064.5202	1109.0955	1165.403	1178.3788	1181.9481	1210.7131	1291.6162	1389.871	1409.2802	1420.6081	1472.3194	1475.8289	1479.8997	1498.599	1500.71	1505.3564	1514.8699	1766.6712	2329.1865	2920.1749	3000.227	3047.0535	3053.9523	3056.5304	3116.9594	3125.0318	3129.9041	3136.6907	3138.8631
COC(C)(C)C#CC=O	COC(C)(C)C#CC=O	
InChI=1S/C7H10O2/c1-7(2,9-3)5-4-6-8/h6H,1-3H3	InChI=1S/C7H10O2/c1-7(2,9-3)5-4-6-8/h6H,1-3H3
