16
gdb 44295	3.63883	1.86244	1.59038	3.9783	70.	-0.2333	-0.0088	0.2245	846.3194	0.126781	-400.70891	-400.702976	-400.702032	-400.739112	25.	
O	-0.0045612223	-0.0232624905	 0.146356976	-0.308106
C	-0.0614002155	 1.1673135107	 0.0353481429	 0.394488
C	-1.325651343	 2.04807824	 0.0530780789	-0.352717
C	-0.7303209602	 3.4338353553	 0.2698118969	-0.042496
C	 0.1130611205	 3.5942783797	 1.5487099348	-0.097127
C	 1.339545994	 4.046356887	 0.7760149202	-0.110622
C	 1.3132037081	 2.649510466	 1.3002736196	-0.042298
N	 1.1053770382	 2.0321161625	-0.0434735514	-0.154159
C	 0.6471511141	 3.4065018857	-0.4648203762	-0.036764
H	-1.8509979493	 1.9735739476	-0.9072609822	 0.130173
H	-2.0071526249	 1.6953908564	 0.8311405697	 0.134737
H	-1.3627085324	 4.2912688783	 0.0404067458	 0.082298
H	-0.2052903682	 3.8721543547	 2.5447280912	 0.096124
H	 2.044872819	 4.8523565865	 0.9064262072	 0.107292
H	 1.882823442	 2.1678417156	 2.0828993292	 0.113256
H	 0.7678834699	 3.6629127044	-1.5151886325	 0.085921
120.0065	297.7926	408.7711	524.5161	576.4519	615.8295	660.8877	739.6804	770.2013	800.7749	812.3106	834.478	860.3689	894.2336	899.7678	952.308	973.2991	1004.1456	1022.482	1027.9752	1040.4739	1047.6828	1072.7554	1107.2593	1140.2986	1175.7993	1189.9272	1214.5904	1241.6347	1266.3004	1278.5829	1332.2303	1355.3651	1452.325	1871.6647	3041.8418	3106.6705	3117.9713	3139.3797	3204.8924	3215.3681	3240.9421
O=C1CC2C3C4C3N1C24	O=C1C[C@H]2[C@@H]3[C@H]4[C@@H]3N1[C@@H]24	
InChI=1S/C7H7NO/c9-3-1-2-4-5-6(2)8(3)7(4)5/h2,4-7H,1H2	InChI=1S/C7H7NO/c9-3-1-2-4-5-6(2)8(3)7(4)5/h2,4-7H,1H2/t2-,4+,5+,6-,7+/m0/s1
