16
gdb 98030	4.95285	0.6149	0.56916	2.5278	80.13	-0.2575	-0.0282	0.2293	1907.4396	0.122462	-437.855077	-437.845276	-437.844332	-437.892141	32.63	
C	 0.8844467655	 1.3329563096	 0.0704206353	-0.339869
N	 0.7909748028	-0.0862457109	-0.2079630553	-0.310984
C	-0.1212390505	-0.6031671202	-1.0810404574	 0.255656
O	-0.9280183102	 0.0609978425	-1.707733299	-0.357048
C	-0.0441929476	-2.052787716	-1.2039463041	-0.005828
C	-0.010333302	-3.2505348088	-1.3401256462	 0.173992
C	-0.0091214221	-4.6773605321	-1.5039019499	-0.127361
C	 1.1263377982	-5.3794277567	-2.1376877389	-0.158039
O	 0.9382824385	-5.4319460217	-0.7309102052	-0.211595
H	 1.8750183467	 1.7232731484	-0.1877596838	 0.130047
H	 0.1329774134	 1.8353576068	-0.5392503763	 0.174934
H	 0.6878070009	 1.5444552632	 1.1272843874	 0.130826
H	 1.4040191322	-0.7282973898	 0.2673768381	 0.258013
H	-0.9932903745	-5.1385950588	-1.5732720547	 0.129849
H	 0.9341124078	-6.3049523162	-2.6783862919	 0.127551
H	 1.9806240609	-4.7980066695	-2.4782655182	 0.129855
27.5217	64.8869	75.8575	79.7473	151.6826	197.3679	276.7173	305.4346	385.1689	482.5643	531.0001	575.5389	598.4974	759.9567	786.681	840.3978	882.6386	962.2723	1035.8845	1082.9815	1141.3845	1151.4468	1156.5215	1168.7054	1175.0863	1251.9187	1284.8361	1400.9325	1439.9015	1490.3511	1498.794	1518.8759	1558.4622	1757.6669	2345.3882	3029.6425	3082.3625	3089.7332	3122.9968	3157.0494	3184.5584	3645.2364
CNC(=O)C#CC1CO1	CNC(=O)C#C[C@H]1CO1	
InChI=1S/C6H7NO2/c1-7-6(8)3-2-5-4-9-5/h5H,4H2,1H3,(H,7,8)	InChI=1S/C6H7NO2/c1-7-6(8)3-2-5-4-9-5/h5H,4H2,1H3,(H,7,8)/t5-/m0/s1
