19
gdb 40416	3.60642	1.26643	1.12254	1.8058	80.3	-0.2416	0.0038	0.2454	1149.5105	0.159855	-385.865607	-385.857934	-385.85699	-385.89789	30.581	
C	 0.057607481	 1.5394375426	-0.1454140112	-0.277925
C	 1.3365333571	 0.7522034065	-0.0411442186	-0.272475
C	 0.0054564858	 0.0393946481	 0.0278930127	-0.083193
C	-0.4795235547	-0.5631707875	 1.2984937998	 0.420635
O	-0.359755704	-2.0123106327	 1.3920841782	-0.311725
C	-1.6669086651	-1.433255186	 1.4259645717	-0.034546
C	-2.2453405308	-1.2697493105	 2.8262279698	-0.294956
C	-1.2692918994	-0.3131620579	 3.48141838	-0.076463
C	-0.3174122767	 0.0935154478	 2.6388328301	-0.152056
H	-0.2313317305	 2.1540354943	 0.7005323602	 0.117767
H	-0.224644065	 1.9498192618	-1.1084033146	 0.114984
H	 1.934880638	 0.6149537555	-0.9346481789	 0.116008
H	 1.9182623043	 0.8392485758	 0.869993842	 0.117835
H	-0.2671052661	-0.5429378545	-0.8463789142	 0.087927
H	-2.3103613188	-1.6837864742	 0.5857510609	 0.089877
H	-3.263035582	-0.8598079858	 2.7929997783	 0.111717
H	-2.3038429476	-2.2282849346	 3.3562438568	 0.125227
H	-1.3365395587	-0.041474718	 4.5289678878	 0.100631
H	 0.4927177633	 0.7700689493	 2.881516859	 0.100732
73.5424	154.8556	181.978	297.6821	356.3361	373.1804	481.9143	522.9754	597.5941	712.0486	742.1936	784.0435	798.3244	820.6803	860.3921	893.8929	918.8029	927.1075	942.7446	954.5297	983.3555	1004.8348	1041.6066	1062.0683	1066.132	1078.4614	1131.7	1137.6436	1185.3617	1197.5343	1220.5002	1265.886	1278.4793	1305.3553	1353.9395	1389.4589	1455.6906	1464.4897	1470.5848	1508.9419	1666.3834	3026.7755	3062.1732	3134.0839	3137.9799	3139.275	3159.7423	3189.1382	3212.4294	3215.9275	3227.5138
C1CC1C12OC1CC=C2	C1CC1[C@]12O[C@H]1CC=C2	
InChI=1S/C8H10O/c1-2-7-8(5-1,9-7)6-3-4-6/h1,5-7H,2-4H2	InChI=1S/C8H10O/c1-2-7-8(5-1,9-7)6-3-4-6/h1,5-7H,2-4H2/t7-,8-/m0/s1
