18
gdb 77099	2.83997	1.22678	0.99401	4.4898	77.11	-0.2532	0.0018	0.255	1226.2596	0.146378	-401.928603	-401.919849	-401.918904	-401.962564	32.501	
C	-0.2539377134	 1.3465168374	-0.0369192378	-0.415698
C	-0.0281994647	-0.1531387235	 0.062333071	-0.150784
C	 1.2233673054	-0.726788775	-0.669002735	-0.009947
O	 1.7524633573	-1.2661864212	 0.5568361884	-0.307231
C	 0.6619664078	-0.7111273623	 1.3093533821	 0.466044
C	 0.8812595882	-0.0968937315	 2.6507899916	-0.338907
C	 0.1099979263	-1.4044443918	 2.5040300714	-0.330885
C	 0.9796727872	-1.7529035422	-1.6841742781	 0.274854
N	 0.7679685604	-2.5486459514	-2.4949638587	-0.319637
H	 0.6547769183	 1.9020641231	 0.2149126212	 0.128956
H	-0.5616511117	 1.6284740259	-1.0488867503	 0.131803
H	-1.0445814542	 1.6655585652	 0.6498258815	 0.128905
H	-0.9363394775	-0.7033206946	-0.1950872046	 0.111006
H	 1.8849940356	 0.0409168619	-1.0891859717	 0.124137
H	 1.8849131243	-0.1533387004	 3.0583463102	 0.13218
H	 0.3354115123	 0.8046970787	 2.9097355814	 0.119758
H	-0.9644755598	-1.3960327413	 2.6576488522	 0.12105
H	 0.6076750282	-2.3158923071	 2.8170442652	 0.134396
37.5832	144.5466	188.3263	200.7596	222.9577	267.641	346.3502	361.3686	467.2596	510.0969	547.9729	627.0958	754.0346	759.3023	854.6002	879.0966	883.3986	951.5375	967.7345	991.2517	1041.1983	1052.3089	1071.792	1088.8163	1105.9335	1128.6443	1185.9045	1208.2763	1247.3793	1271.2456	1345.7744	1354.3699	1408.0731	1414.6462	1448.3719	1492.8228	1497.349	1504.0006	2357.4201	3029.9459	3036.8438	3080.5404	3105.9784	3113.6694	3128.9309	3131.1068	3212.3818	3226.0629
CC1C(OC11CC1)C#N	C[C@H]1[C@@H](OC21CC2)C#N	
InChI=1S/C7H9NO/c1-5-6(4-8)9-7(5)2-3-7/h5-6H,2-3H2,1H3	InChI=1S/C7H9NO/c1-5-6(4-8)9-7(5)2-3-7/h5-6H,2-3H2,1H3/t5-,6-/m0/s1
