15
gdb 48310	2.17119	1.96851	1.17996	1.2013	72.56	-0.2492	-0.0464	0.2027	1013.6804	0.109685	-420.514368	-420.506379	-420.505434	-420.547038	30.037	
O	-0.2089146788	 0.05433032	-0.2024505491	-0.247726
C	-0.0094222749	 1.1682967158	 0.2077624302	 0.074556
C	 1.2927601427	 1.9392565729	 0.0371693066	 0.050356
C	 1.6406248897	 2.5688638486	 1.2943747978	 0.251257
C	 1.8354470182	 3.0424798979	 2.3822962584	-0.398646
C	 2.4536666961	 1.3520657868	-0.8314885352	 0.021126
C	 1.6188036925	 1.5300413249	-2.1213111259	-0.244457
C	 1.5205914234	 2.8142250998	-1.2718331045	 0.010183
O	 2.9653766869	 2.7329331113	-1.0211334672	-0.29695
H	-0.7830238707	 1.7279465812	 0.7755838137	 0.098465
H	 2.0427593105	 3.4769103875	 3.3292114728	 0.200946
H	 3.1664671027	 0.5787218216	-0.5506492599	 0.116056
H	 2.2216059243	 1.6519508675	-3.0203257699	 0.118994
H	 0.7394065303	 0.9056584014	-2.2653860383	 0.133143
H	 1.0933895872	 3.792096523	-1.4923382192	 0.112697
83.6026	143.5149	156.887	204.8785	273.1871	407.5763	483.955	497.8903	524.8126	632.3763	643.6263	660.0404	679.0902	752.1662	795.581	868.6769	892.9451	926.8467	1015.7371	1031.996	1053.0357	1078.2234	1130.6693	1165.8289	1171.8555	1199.5809	1211.6731	1251.629	1274.6258	1421.3205	1492.6725	1819.2526	2231.4747	2907.9092	3103.2434	3128.9418	3142.9325	3185.1262	3500.6863
O=CC1(C#C)C2CC1O2	O=C[C@@]1(C#C)[C@H]2C[C@@H]1O2	
InChI=1S/C7H6O2/c1-2-7(4-8)5-3-6(7)9-5/h1,4-6H,3H2	InChI=1S/C7H6O2/c1-2-7(4-8)5-3-6(7)9-5/h1,4-6H,3H2/t5-,6+,7+
