18
gdb 97253	3.49787	1.22075	0.94576	2.6108	81.77	-0.2365	-0.0312	0.2052	1242.0766	0.148228	-439.088005	-439.079494	-439.07855	-439.121808	30.943	
C	-0.2172167897	 1.4664093359	-0.9538400509	-0.318449
N	-0.1245723813	 0.054269057	-0.6310150996	-0.293903
C	-0.9481508172	-0.4388639061	 0.2042186622	 0.366141
O	-1.9144723467	 0.3472070692	 0.7711470017	-0.255457
C	-2.6185295494	-0.0913819024	 1.9189398186	-0.000201
O	-3.4945547919	-1.1360978724	 1.6508438549	-0.223603
C	-2.9501397179	-2.4259572761	 1.8539616979	-0.144739
C	-1.644766747	-2.700800509	 1.1762763033	-0.093228
C	-0.8334613218	-1.8725719396	 0.5101221611	-0.101203
H	-0.4112575971	 2.0967735267	-0.0770062037	 0.116883
H	 0.715373217	 1.7846836783	-1.4269884291	 0.116609
H	-1.032700767	 1.6484781402	-1.6669039969	 0.127106
H	-1.9111928546	-0.3565708974	 2.7184869409	 0.101961
H	-3.2171694283	 0.7724880115	 2.2142545302	 0.127182
H	-2.8380950578	-2.626023782	 2.935259075	 0.111671
H	-3.7089459218	-3.1288427839	 1.4897525315	 0.134798
H	-1.3290352181	-3.7389170456	 1.2671611405	 0.106892
H	 0.0721182505	-2.2805593842	 0.0747834122	 0.12154
59.7173	85.1383	150.7241	215.8247	226.4251	324.3853	364.3409	409.5106	460.1243	518.3361	639.1592	676.6191	754.6776	806.3207	846.1818	895.1223	991.5244	1020.1137	1031.0755	1045.0306	1060.955	1108.1284	1141.2938	1161.3787	1193.4872	1215.6578	1277.6687	1315.7666	1335.515	1407.0222	1418.6144	1435.9723	1454.6708	1481.348	1484.6436	1496.1067	1509.2145	1702.7668	1727.4013	2942.7098	2997.4378	3006.3829	3054.0788	3058.2529	3102.1685	3115.1604	3143.3549	3197.2096
CN=C1OCOCC=C1	C[N]C1=C[CH]COCO1	
InChI=1S/C6H9NO2/c1-7-6-3-2-4-8-5-9-6/h2-3H,4-5H2,1H3	InChI=1S/C6H9NO2/c1-7-6-3-2-4-8-5-9-6/h2-3H,4-5H2,1H3
