18
gdb 55779	3.82452	0.95444	0.8586	3.6218	73.78	-0.2445	-0.0108	0.2337	1378.3822	0.146742	-439.126372	-439.117143	-439.116199	-439.162362	31.801	
C	 0.354412357	 0.5621374033	-0.9110615409	-0.482927
C	-0.1254074254	 0.2199126541	 0.4817420165	 0.398747
O	 0.3162521036	 0.7453156873	 1.4749058069	-0.292569
C	-1.2508997815	-0.8171442521	 0.6001934794	-0.402404
C	-0.8561851805	-2.2079732086	 0.2046280479	 0.426381
N	 0.2295666593	-2.5731301584	-0.3433779196	-0.313624
C	 0.1453578259	-4.0305363451	-0.5179871825	-0.186097
C	-1.2390263467	-4.4148755926	 0.0662795908	-0.111814
O	-1.7945158015	-3.1497139141	 0.4953326	-0.253469
H	 1.10425017	 1.3521168408	-0.8577748468	 0.137591
H	 0.7759039213	-0.3360260142	-1.3718338766	 0.174962
H	-0.4859616548	 0.888259413	-1.5349871909	 0.12696
H	-1.5920798431	-0.831280556	 1.6388263192	 0.150785
H	-2.1056795846	-0.5153257716	-0.0197510735	 0.138798
H	 0.2393911914	-4.2862700743	-1.5785583412	 0.119394
H	 0.9731810296	-4.5166833794	 0.0080456613	 0.123086
H	-1.9191405182	-4.8554082996	-0.6676139908	 0.122038
H	-1.1802222721	-5.0740471924	 0.9364581909	 0.124162
33.3317	47.3377	90.2201	135.5374	158.1971	220.6117	301.0367	387.635	487.2815	555.6993	601.5189	723.7448	762.3497	805.5481	829.4737	878.9718	926.1046	977.4098	1000.3413	1013.1862	1043.1845	1065.8561	1121.7248	1176.4852	1191.2661	1216.7133	1247.2026	1249.6378	1316.2735	1353.9881	1379.8209	1396.0077	1450.9502	1469.137	1478.6497	1503.5725	1527.1448	1737.2589	1823.1183	3032.0525	3040.0379	3044.1527	3059.4871	3073.0552	3104.2213	3108.0057	3110.7266	3156.8854
CC(=O)CC1=NCCO1	CC(=O)CC1=NCCO1	
InChI=1S/C6H9NO2/c1-5(8)4-6-7-2-3-9-6/h2-4H2,1H3	InChI=1S/C6H9NO2/c1-5(8)4-6-7-2-3-9-6/h2-4H2,1H3
