16
gdb 18352	3.30566	2.4187	1.68347	2.8271	64.68	-0.2481	0.0069	0.255	781.7714	0.132663	-383.724766	-383.718344	-383.7174	-383.755264	25.332	
O	-0.0686195075	 1.4316374593	 0.1269107248	-0.434704
C	 0.047975394	 0.0298263209	-0.0124965079	 0.087216
C	 0.7559887724	-0.6492146337	 1.1468847989	-0.100656
C	 0.0383476693	-1.6265922478	 1.6996926902	-0.088123
C	-1.3089100072	-1.7932871126	 1.0464278619	-0.118835
C	-2.4622225367	-1.0033651771	 1.7108795806	-0.076765
O	-2.2937139745	 0.0921697518	 0.7774589958	-0.304859
C	-1.3381784316	-0.6654889764	-0.0120309407	 0.079184
H	-0.8308883349	 1.5631223547	 0.709842554	 0.288526
H	 0.5796786409	-0.1389596846	-0.9574827446	 0.084722
H	 1.7402491303	-0.327611308	 1.4686957353	 0.104135
H	 0.3481573716	-2.2319019812	 2.5453850292	 0.099861
H	-1.5424146749	-2.8138441047	 0.7371802246	 0.086004
H	-3.4532360406	-1.4608398608	 1.6032958564	 0.105119
H	-2.3129393576	-0.6883500461	 2.7491656445	 0.108873
H	-1.7331913229	-0.8834606939	-1.0080846629	 0.080302
113.0689	220.7949	279.0406	360.3123	486.9799	505.8228	547.1116	677.5023	753.8689	798.3913	831.7712	869.1521	884.5292	899.5069	971.2375	986.4864	1007.4786	1036.4227	1067.3221	1080.4934	1093.6199	1137.0642	1166.6415	1221.5302	1249.6897	1264.6357	1302.2213	1310.4551	1336.8736	1351.9551	1379.5841	1446.185	1517.0063	1676.8921	3021.3024	3026.0592	3069.4931	3075.1335	3094.5461	3179.1913	3208.0738	3726.8289
OC1C=CC2COC12	O[C@H]1C=C[C@H]2CO[C@@H]12	
InChI=1S/C6H8O2/c7-5-2-1-4-3-8-6(4)5/h1-2,4-7H,3H2	InChI=1S/C6H8O2/c7-5-2-1-4-3-8-6(4)5/h1-2,4-7H,3H2/t4-,5-,6+/m0/s1
