17
gdb 68957	2.67698	1.70179	1.26682	4.0876	74.23	-0.2301	-0.0226	0.2075	1005.4762	0.135692	-418.022647	-418.014489	-418.013545	-418.054893	31.271	
C	 0.1317791189	 1.4839305009	 0.0053821229	-0.501514
C	 0.0657630268	-0.0171106157	 0.0154832186	 0.305209
C	 1.237905912	-0.8860512885	-0.2659704344	-0.347334
C	 0.6594080095	-0.9771231095	 1.1410309882	 0.187132
C	 1.4563593028	-0.4788383324	 2.2780453469	 0.087689
O	 2.315279374	 0.3717083471	 2.1904586612	-0.286898
N	-0.3392218112	-1.9689256289	 1.4092906248	-0.296425
C	-1.3294643293	-1.7299390134	 0.6276275546	 0.027256
N	-1.2013685217	-0.6560433749	-0.2352058475	-0.328892
H	 1.0751709578	 1.8092088755	 0.4496840252	 0.168795
H	 0.081127946	 1.8752532047	-1.0172812682	 0.12858
H	-0.6872924089	 1.922409383	 0.5856523208	 0.120604
H	 1.1133263518	-1.7532520442	-0.906249445	 0.122933
H	 2.2018650639	-0.3904787196	-0.3055771319	 0.14221
H	 1.1833126041	-0.9417713728	 3.2499641605	 0.089073
H	-2.2326904864	-2.3303685398	 0.599262824	 0.131532
H	-2.00697417	-0.0912509416	-0.4607782306	 0.250051
135.3451	171.5576	200.7343	227.6077	267.1357	328.1596	381.0925	418.697	476.3395	531.6591	561.0935	610.1372	666.6693	773.2072	792.311	912.4563	938.7722	968.5311	978.9173	990.4642	1050.9086	1063.1661	1100.1974	1126.3163	1164.3937	1261.4847	1276.28	1338.9672	1359.1612	1409.1654	1416.3612	1435.8742	1476.0015	1494.8267	1497.8461	1640.1526	1790.7275	2913.7686	3029.4168	3090.141	3126.9067	3132.5783	3199.4728	3227.7012	3609.0006
CC12CC1(C=O)N=CN2	C[C@@]12C[C@]1(C=O)N=CN2	
InChI=1S/C6H8N2O/c1-5-2-6(5,3-9)8-4-7-5/h3-4H,2H2,1H3,(H,7,8)	InChI=1S/C6H8N2O/c1-5-2-6(5,3-9)8-4-7-5/h3-4H,2H2,1H3,(H,7,8)/t5-,6-/m1/s1
