16
gdb 133820	2.65635	1.92779	1.32312	3.0938	79.23	-0.2008	-0.0319	0.1689	954.3419	0.126416	-400.666597	-400.659538	-400.658593	-400.698348	27.465	
N	-1.2666268347	-0.9101804409	 1.0712047426	-0.13607
C	-0.5886786708	-1.0751851816	-0.2505675528	-0.118685
C	 0.6539189231	-0.6323442372	 0.5974077608	 0.082651
O	 1.6113056182	 0.3080378206	 0.2032582152	-0.215495
C	 1.3015039174	 1.4985376369	-0.3433528355	 0.058653
C	 0.2740235532	 1.839782022	-1.1409214833	-0.15619
C	-0.8098316235	 1.0288337503	-1.6502937552	-0.069112
C	-1.16879981	-0.2239712535	-1.3243234538	-0.103103
C	-0.3222067418	-0.3463529005	 1.8036010301	-0.214967
H	-2.2259327931	-1.116884823	 1.3255167242	 0.258554
H	-0.5498228699	-2.1230973806	-0.57541771	 0.094446
H	 1.2379918446	-1.5194445606	 0.8617859706	 0.116438
H	 2.0791878244	 2.2219387548	-0.1174465086	 0.119929
H	 0.2953924059	 2.8709763566	-1.4784367468	 0.095297
H	-1.4097986894	 1.5188719962	-2.4141487827	 0.097122
H	-2.0335762836	-0.6539487197	-1.8246787348	 0.090533
66.0724	160.4139	276.7114	335.3482	410.3301	424.1556	496.413	583.9367	675.4013	726.8137	757.3265	774.9524	816.0612	885.3914	906.4255	918.8611	928.3756	947.9386	963.541	1000.8499	1020.9236	1116.0067	1155.7912	1196.2383	1240.4351	1276.5318	1277.5438	1337.9058	1370.0375	1399.1575	1433.7169	1469.288	1485.2143	1664.1755	1702.8677	3019.7747	3068.1396	3137.7556	3157.9324	3172.1285	3191.9659	3541.5095
N1C2C3OC4C=CC2C134	N1[C@@H]2[C@@H](OC=CC=C2)[C]1	
InChI=1S/C7H7NO/c1-2-4-7-3(1)5(8-7)6(7)9-4/h1-6,8H	InChI=1S/C7H7NO/c1-2-4-9-7-5-8-6(7)3-1/h1-4,6-8H/t6-,7-/m0/s1
