19
gdb 56789	2.99599	1.04896	0.95492	1.7361	83.86	-0.2295	0.012	0.2415	1321.0113	0.157733	-385.85836	-385.848991	-385.848047	-385.893186	34.008	
C	-0.0131504182	 1.5406293847	-0.0366182337	-0.388926
C	-0.0159878689	-0.0067339118	 0.0385856495	-0.26864
C	 0.7318070521	-0.4684093166	 1.2120567171	 0.331798
C	 1.3392729623	-0.8302548046	 2.1841956085	-0.480896
C	-1.4191605446	-0.5664429808	 0.0302148111	 0.339175
C	-2.0124945564	-1.2619023962	-0.9349829872	-0.233849
C	-3.4192489964	-1.6036238657	-0.5387374468	-0.100536
O	-3.592530126	-1.0301493342	 0.7544561355	-0.266246
C	-2.3910725966	-0.3906060251	 1.1725770402	-0.153406
H	 1.0126954603	 1.9153137693	-0.0782156923	 0.128931
H	-0.548510249	 1.8715171391	-0.9307626595	 0.122501
H	-0.4971702457	 1.9764234771	 0.841100784	 0.132673
H	 0.4932868542	-0.3841907601	-0.8572926107	 0.11213
H	 1.8791426868	-1.1589204853	 3.0375601551	 0.198881
H	-1.5711451634	-1.5614006282	-1.8778440901	 0.09994
H	-4.167843316	-1.1900772279	-1.2336146903	 0.103706
H	-3.5892836536	-2.6917222095	-0.4943684487	 0.104904
H	-2.0168488139	-0.8502743871	 2.0998372285	 0.115587
H	-2.5947184971	 0.6685048229	 1.3963102298	 0.102274
48.0845	94.146	114.8766	175.4433	192.8544	226.5006	296.0042	338.1933	432.3148	514.241	560.5612	630.8059	637.3648	667.9028	772.8485	831.6597	847.993	909.5549	926.0652	969.7908	996.3794	1025.8968	1059.9667	1079.3984	1094.0667	1121.0099	1175.873	1211.1294	1226.3997	1271.2844	1316.1845	1337.3323	1372.3325	1397.1025	1403.8995	1490.321	1497.6289	1518.1883	1530.2273	1727.465	2234.0869	2966.7326	2977.6361	2982.1491	2999.9291	3024.6091	3047.1284	3126.1356	3127.9847	3208.1371	3502.9585
CC(C#C)C1=CCOC1	C[C@@H](C#C)C1=CCOC1	
InChI=1S/C8H10O/c1-3-7(2)8-4-5-9-6-8/h1,4,7H,5-6H2,2H3	InChI=1S/C8H10O/c1-3-7(2)8-4-5-9-6-8/h1,4,7H,5-6H2,2H3/t7-/m0/s1
