15
gdb 9101	4.17303	1.1693	1.04545	3.067	59.39	-0.2672	-0.0395	0.2277	1107.4786	0.117209	-436.937107	-436.928728	-436.927784	-436.970857	29.033	
O	 0.4370586429	 1.6248580706	 0.3105662534	-0.431308
C	 0.2140751126	 0.4381164376	-0.3975843942	 0.032892
C	 1.2635334845	 0.3264675251	-1.5222073259	-0.102569
O	 1.0844375841	-0.8570948643	-2.3140505972	-0.209924
C	 0.1928218222	-0.7953065038	-3.3195668858	 0.128184
N	-0.5232901854	 0.2173870735	-3.5616607328	-0.457011
C	 0.2790187212	-0.7555797226	 0.5326964952	 0.139676
O	 0.475985928	-0.6172226974	 1.7172304845	-0.26333
H	 0.5694648918	 1.3537413849	 1.2335455952	 0.296721
H	-0.7810177921	 0.439011677	-0.8715721475	 0.120993
H	 1.1936508656	 1.2168990524	-2.1493286094	 0.155506
H	 2.2651185047	 0.2479751843	-1.0937705446	 0.124468
H	 0.2075474702	-1.7452251454	-3.8618506292	 0.117762
H	-1.1155540055	 0.0555966663	-4.372434969	 0.237059
H	 0.1420307252	-1.7531229683	 0.0745715072	 0.110882
54.8385	87.5096	132.5062	165.0641	284.5924	322.3608	327.3281	411.6756	447.1084	490.6008	724.1828	737.0762	831.4624	834.443	898.9352	946.4827	1038.3454	1047.1737	1076.7464	1119.017	1160.7673	1255.853	1290.2901	1305.6036	1331.2473	1386.9473	1398.5595	1406.2387	1447.6804	1484.1729	1721.8525	1807.2787	2962.8965	2990.1713	3077.4808	3093.1587	3142.2416	3528.0206	3681.0624
OC(COC=N)C=O	O[C@@H](CO[CH][NH])C=O	
InChI=1S/C4H7NO3/c5-3-8-2-4(7)1-6/h1,3-5,7H,2H2	InChI=1S/C4H7NO3/c5-3-8-2-4(7)1-6/h1,3-5,7H,2H2/t4-/m1/s1
