15
gdb 20972	4.72123	1.61693	1.23647	4.2686	64.38	-0.2125	-0.0313	0.1813	943.0334	0.118383	-395.942722	-395.935057	-395.934113	-395.974971	27.208	
C	 0.0041376997	 1.399607831	-0.0018445659	-0.337365
N	 0.0159390921	-0.0208028711	-0.2908040321	-0.156421
C	 1.2108359042	-0.7460146975	 0.1229497655	-0.343457
C	-1.1948336539	-0.6649346326	-0.1549998446	 0.35554
C	-2.4605262856	-0.1911911847	 0.0465876306	-0.08306
O	-3.3038503471	-1.2396932852	 0.0263611323	-0.160356
N	-2.5267615709	-2.3845424093	-0.1685907696	-0.000317
N	-1.3155580532	-2.0350698942	-0.2730358726	-0.215784
H	 0.9693910787	 1.829747414	-0.2796777739	 0.133328
H	-0.7697846281	 1.8946733767	-0.5973711938	 0.132959
H	-0.1813207755	 1.6228793367	 1.0628537647	 0.113661
H	 1.341458992	-0.7589025728	 1.2171040407	 0.113577
H	 1.1513005101	-1.7753855298	-0.230066819	 0.165604
H	 2.0868157516	-0.2688752132	-0.3250313163	 0.125376
H	-2.8904709545	 0.7810986421	 0.2043730741	 0.156715
72.6876	148.9653	192.5199	202.2395	240.6749	368.0712	377.6911	502.8228	616.7045	636.9868	712.6641	745.9927	762.6798	945.5936	997.5585	1051.8343	1083.4589	1125.384	1131.7344	1176.7679	1218.7849	1240.8874	1345.0904	1362.7108	1444.7216	1451.0909	1472.9112	1485.6538	1495.719	1504.1405	1516.148	1660.1419	2961.1661	2978.0155	3067.5139	3085.8896	3118.5829	3154.2938	3307.8318
CN(C)C1=CON=N1	CN(C)c1conn1	
InChI=1S/C4H7N3O/c1-7(2)4-3-8-6-5-4/h3H,1-2H3	InChI=1S/C4H7N3O/c1-7(2)4-3-8-6-5-4/h3H,1-2H3
