18
gdb 65004	1.96503	1.50019	1.08468	1.678	82.83	-0.2485	0.0339	0.2824	1192.5437	0.144362	-364.71306	-364.70335	-364.702405	-364.74743	36.367	
C	-0.1427039449	 1.4938110829	-0.4121009927	-0.477353
C	-0.009121724	 0.0225722987	-0.0888463028	 0.332806
C	 0.9291146293	-0.8189864684	-0.8699931439	-0.278712
N	 1.2205535399	-0.4772061413	 0.5374013514	-0.346174
C	-1.2770099971	-0.6580530201	 0.4723210928	-0.402397
C	-1.7474464935	-0.0015545224	 1.6977879591	 0.340186
C	-2.1146574417	 0.5419954153	 2.7037155206	-0.451402
C	-2.3354605144	-0.7288175301	-0.54215067	 0.346049
C	-3.1837800831	-0.7904238098	-1.3901185656	-0.455922
H	 0.7822921149	 1.8779657058	-0.8528409957	 0.110351
H	-0.9557430639	 1.6620433807	-1.1251795914	 0.139445
H	-0.3635503758	 2.0699036795	 0.4919090431	 0.138181
H	 0.7100706155	-1.868168897	-1.049318287	 0.120891
H	 1.5023558145	-0.3383566915	-1.6583303954	 0.112486
H	 1.9148186717	 0.264497531	 0.5848146339	 0.230395
H	-0.978029079	-1.6812737173	 0.7353249318	 0.143778
H	-2.447308769	 1.0137642579	 3.5950684197	 0.198308
H	-3.9414316794	-0.8477685238	-2.132060458	 0.199085
62.0145	123.3925	134.6134	154.2982	217.8552	319.7909	331.203	344.7258	358.705	378.7717	515.4091	533.586	563.7842	633.0799	637.6847	645.966	648.6399	765.6979	860.5637	861.625	931.3001	961.3951	976.6141	1015.6901	1047.8481	1062.5785	1117.0258	1153.5598	1237.392	1263.7406	1299.7422	1331.9036	1388.7841	1417.7886	1481.9881	1502.7317	1517.8191	2238.634	2244.1135	3023.1528	3036.9313	3106.8472	3110.2194	3110.3901	3190.9219	3499.9303	3503.0508	3503.9382
CC1(CN1)C(C#C)C#C	C[C@]1(CN1)C(C#C)C#C	
InChI=1S/C8H9N/c1-4-7(5-2)8(3)6-9-8/h1-2,7,9H,6H2,3H3	InChI=1S/C8H9N/c1-4-7(5-2)8(3)6-9-8/h1-2,7,9H,6H2,3H3/t8-/m0/s1
