21
gdb 57313	2.92284	0.97335	0.87208	1.7802	83.52	-0.2528	-0.0149	0.2379	1443.0194	0.180685	-420.458887	-420.44828	-420.447336	-420.494734	38.541	
C	 0.1068814958	 1.5340108949	 0.4290874071	-0.39266
C	 0.0142038245	 0.0517056159	 0.0373027837	 0.108783
C	 0.5734137167	-0.8221917124	 1.1814464472	-0.410328
C	-1.4590024729	-0.3190539278	-0.2413570996	-0.410345
C	 0.8537262658	-0.1630379873	-1.2377084366	 0.429819
O	 1.4641532193	 0.7259907434	-1.7947789482	-0.363688
N	 0.871696796	-1.4620028775	-1.7232044792	-0.308493
C	 1.5675095851	-1.8531111387	-2.8553521254	 0.098892
N	 1.5341380755	-3.064911472	-3.2364511057	-0.467445
H	 1.1415763395	 1.8270507595	 0.620988986	 0.126808
H	-0.2720526611	 2.1769874799	-0.3685901327	 0.126793
H	-0.4815653756	 1.7159316533	 1.3340083193	 0.103753
H	 0.0086828579	-0.6332175935	 2.1000485593	 0.123554
H	 0.5008573897	-1.8931863699	 0.967507609	 0.110134
H	 1.6245634417	-0.5900009246	 1.3785392866	 0.130196
H	-1.8667606913	 0.2742628656	-1.0656039206	 0.130193
H	-1.5867777781	-1.3763981622	-0.4938653878	 0.110129
H	-2.0644179817	-0.1199627606	 0.6487534034	 0.12356
H	 0.3603740131	-2.1934968346	-1.2519488528	 0.259073
H	 2.0987201103	-1.0202558467	-3.3190069561	 0.139368
H	 2.0942058699	-3.1846136047	-4.078411107	 0.231905
35.3094	99.4048	149.944	178.5701	195.4571	236.7963	253.392	288.4733	290.886	328.8111	355.8311	375.9442	452.8111	528.2259	590.8913	639.0751	766.9113	814.098	831.7305	936.8035	938.619	945.4308	965.6691	1033.4619	1045.2939	1085.3508	1090.9464	1165.1334	1227.8301	1244.2799	1279.345	1307.0912	1392.921	1401.1641	1403.0693	1434.0406	1475.5499	1477.7335	1484.0361	1484.9049	1498.6477	1505.3157	1518.4693	1724.7595	1789.8667	3032.075	3034.9632	3046.6242	3099.5301	3103.8289	3108.1675	3109.1888	3119.0011	3129.1277	3131.0156	3506.4238	3623.2083
CC(C)(C)C(=O)NC=N	CC(C)(C)C(=O)NC=N	
InChI=1S/C6H12N2O/c1-6(2,3)5(9)8-4-7/h4H,1-3H3,(H2,7,8,9)	InChI=1S/C6H12N2O/c1-6(2,3)5(9)8-4-7/h4H,1-3H3,(H2,7,8,9)
