18
gdb 64064	2.51342	1.50639	1.19219	5.6591	72.67	-0.2316	-0.0616	0.17	1096.058	0.147261	-439.147661	-439.138687	-439.137743	-439.181373	33.269	
C	-0.1398379898	 1.5987050959	-0.0084443321	-0.431062
C	 0.0356973125	 0.0779347429	-0.031886926	 0.163139
C	-1.3336295588	-0.634902564	 0.015826494	-0.423201
C	 0.8770766011	-0.4296832564	-1.23366879	-0.214818
N	 1.7564244833	-1.4429572017	-0.6631449657	-0.321835
C	 1.8632420782	-1.4564075056	 0.6971259158	 0.319088
O	 2.5921492622	-2.137379166	 1.3789487032	-0.353117
C	 0.8364245248	-0.4078650556	 1.1808282038	 0.28989
O	 0.6968393545	-0.0573062712	 2.3202049672	-0.301929
H	 0.8249441276	 2.1136987284	-0.0522514916	 0.12305
H	-0.7446254591	 1.934428206	-0.8572598533	 0.117096
H	-0.6387942618	 1.9007951651	 0.9159636169	 0.144345
H	-1.9497907587	-0.3251194671	-0.8344039206	 0.122007
H	-1.2208024822	-1.7232403064	-0.0228066022	 0.129902
H	-1.8599270795	-0.3800066604	 0.9396703861	 0.142314
H	 0.2477556139	-0.8606262186	-2.0194513256	 0.117607
H	 1.4564408476	 0.388107383	-1.6814674744	 0.116514
H	 2.3727040342	-2.0074070385	-1.2276558353	 0.261009
51.0667	138.4233	201.2291	211.502	256.865	288.7427	324.7373	332.8458	356.0824	457.9331	539.6642	587.1778	588.9694	663.7269	728.8313	819.6043	853.2077	940.4453	956.0387	976.3279	1021.6377	1051.8372	1064.8701	1180.5623	1204.5939	1227.0882	1259.6702	1307.3161	1347.3297	1395.5556	1414.9627	1451.8728	1482.3308	1487.6431	1501.3059	1508.3839	1533.1407	1840.9118	1858.9417	3014.3167	3032.6319	3037.0454	3061.7467	3102.775	3104.9591	3119.5665	3124.3002	3629.2956
CC1(C)CNC(=O)C1=O	CC1(C)CNC(=O)C1=O	
InChI=1S/C6H9NO2/c1-6(2)3-7-5(9)4(6)8/h3H2,1-2H3,(H,7,9)	InChI=1S/C6H9NO2/c1-6(2)3-7-5(9)4(6)8/h3H2,1-2H3,(H,7,9)
