18
gdb 119544	3.07041	1.14594	0.93648	3.2169	73.63	-0.235	0.0049	0.2399	1290.1957	0.146464	-439.06583	-439.057012	-439.056068	-439.100079	32.321	
C	-0.1055326971	 1.5441020306	-0.0698445193	-0.39019
C	-0.0560376059	 0.0308415282	-0.1583663558	-0.068688
O	-1.3540192902	-0.4748355062	 0.1862078649	-0.286693
C	-1.4245698848	-1.8354738588	 0.1783752874	 0.309587
C	-1.6407512679	-2.6617839965	-1.1054244823	-0.349275
C	-2.6362983753	-2.7234917378	 0.0191202345	-0.09565
N	-2.1465464325	-3.5744565488	 1.1114765714	-0.343341
C	-0.9707403487	-2.807966623	 1.2720302205	 0.347328
O	-0.022470194	-2.9327764334	 1.9928221963	-0.344944
H	 0.868314893	 1.9682973567	-0.3313445634	 0.120123
H	-0.8557474526	 1.9468981166	-0.7564001366	 0.125985
H	-0.3614415807	 1.8617627895	 0.944624312	 0.134001
H	 0.2039614754	-0.2989382596	-1.1751978906	 0.095436
H	 0.6903023422	-0.3839753204	 0.530848121	 0.127219
H	-1.9219216754	-2.0466788371	-1.9562615711	 0.128611
H	-1.02403358	-3.5249622372	-1.3388527858	 0.121285
H	-3.6773353669	-2.4371858998	-0.0401124029	 0.127216
H	-2.1219932986	-4.5869667531	 1.0501378797	 0.241992
57.5392	76.7787	130.7081	201.5012	235.9883	294.2496	350.9786	366.1236	456.6994	519.9359	626.4009	681.7012	730.8249	788.3499	820.3598	867.6536	880.8608	927.4848	945.5243	985.6187	1015.002	1055.248	1073.8613	1084.4746	1127.0259	1140.9858	1185.9287	1238.2278	1284.4663	1295.4981	1319.8528	1379.8426	1406.9682	1437.8665	1482.8087	1485.5348	1500.6591	1526.9587	1895.0267	2995.6814	3046.222	3048.2869	3112.612	3121.0591	3124.9871	3205.2268	3217.246	3537.5278
CCOC12CC1NC2=O	CCO[C@]12C[C@H]1NC2=O	
InChI=1S/C6H9NO2/c1-2-9-6-3-4(6)7-5(6)8/h4H,2-3H2,1H3,(H,7,8)	InChI=1S/C6H9NO2/c1-2-9-6-3-4(6)7-5(6)8/h4H,2-3H2,1H3,(H,7,8)/t4-,6-/m1/s1
