19
gdb 71900	2.38188	1.81647	1.60475	0.906	74.54	-0.241	0.0631	0.3041	959.9825	0.158917	-422.980619	-422.972752	-422.971808	-423.012312	31.722	
C	 0.0324516972	 1.5388946883	 0.0202837722	-0.491786
C	-0.0247439475	 0.0302141967	 0.0030074192	 0.285108
C	 0.4407379231	-0.7269879339	-1.2773826715	-0.281086
C	-0.6816143954	-1.7715212785	-1.0776241945	 0.015439
O	-0.3565117231	-2.7148118403	-0.0340111923	-0.300348
C	-0.7326838175	-1.7935301445	 1.0120805182	 0.01543
C	 0.3780313148	-0.7540085252	 1.2883862229	-0.281088
C	-1.3596683505	-0.812808118	-0.0384894768	 0.314788
O	-2.5973102861	-0.2144427599	-0.0624106575	-0.471862
H	 1.0716111712	 1.888488932	 0.0492308986	 0.116242
H	-0.4386073494	 1.9655215309	-0.8717090964	 0.118707
H	-0.4816182251	 1.9469046527	 0.8971060437	 0.1187
H	 0.2457371452	-0.1235548536	-2.170982801	 0.099498
H	 1.4648026261	-1.1082416169	-1.3100773991	 0.101004
H	-1.1382338055	-2.2539528583	-1.9446096246	 0.075464
H	-1.2308765306	-2.2938537274	 1.8453836092	 0.075455
H	 1.399470371	-1.1363962846	 1.3630401077	 0.101007
H	 0.1392938211	-0.1694253199	 2.1838997833	 0.099495
H	-3.2759885489	-0.8993612797	-0.0854333515	 0.289834
181.9713	188.7267	210.0344	273.0957	294.5076	368.0515	407.8713	420.6162	433.8926	591.2743	636.0248	651.6536	772.2499	832.9042	853.5862	865.8745	916.3597	942.0463	958.4054	985.2836	987.4467	1032.339	1056.5044	1107.1682	1107.8083	1144.8588	1172.4784	1192.7912	1241.8506	1245.0793	1251.022	1272.6874	1286.87	1334.0886	1352.2239	1398.586	1413.876	1459.2627	1478.6268	1488.9484	1492.3567	3022.3594	3039.4148	3041.8938	3083.3656	3086.6097	3088.5382	3096.0179	3103.5508	3106.515	3786.8515
CC12CC3OC(C1)C23O	C[C@@]12C[C@H]3O[C@@H](C1)[C@@]23O	
InChI=1S/C7H10O2/c1-6-2-4-7(6,8)5(3-6)9-4/h4-5,8H,2-3H2,1H3	InChI=1S/C7H10O2/c1-6-2-4-7(6,8)5(3-6)9-4/h4-5,8H,2-3H2,1H3/t4-,5+,6-,7-
