19
gdb 72958	2.56893	1.50169	1.20425	5.2586	80.22	-0.2502	0.0311	0.2813	1100.5311	0.158983	-382.05251	-382.043337	-382.042392	-382.086044	34.625	
C	-0.0468891359	 1.5507223637	 0.0008587068	-0.502298
C	 0.0113939518	 0.0508949159	 0.0673871471	 0.304729
C	-1.2300189964	-0.8556952944	-0.0083355026	-0.295853
C	-0.5800504828	-1.8261206853	 1.0260166217	-0.245284
C	 0.6391287357	-0.9059102157	 1.0828338929	-0.12506
C	 1.2445997995	-0.7670528623	-0.3190718718	 0.09278
N	 1.2576110519	-1.7912551011	-1.32842271	-0.57939
C	 2.4775493175	 0.0030938517	-0.3013158455	 0.286236
N	 3.4624069711	 0.6096225311	-0.2741932201	-0.356738
H	 0.9252690873	 2.0038134628	 0.2096836495	 0.153676
H	-0.3634353199	 1.8837677125	-0.9946827912	 0.127351
H	-0.7692596091	 1.9392941397	 0.7267226822	 0.120916
H	-2.1091778908	-0.350377853	 0.3977136556	 0.116636
H	-1.4967428315	-1.2633016429	-0.9887614898	 0.09428
H	-1.1267835762	-1.8587918277	 1.9699342157	 0.116964
H	-0.3968519321	-2.8523868964	 0.693752304	 0.095477
H	 1.2446874434	-0.6872150162	 1.9544256547	 0.109287
H	 1.4240459851	-2.7140197035	-0.9470277044	 0.243424
H	 0.4128857515	-1.8062887689	-1.8832232445	 0.242868
81.7123	145.6572	158.7822	189.7804	235.5153	255.2361	298.18	335.3238	427.3516	454.8687	553.0918	560.5272	669.5208	675.6294	700.8141	729.8464	789.3936	891.0438	927.5148	945.099	969.167	996.1614	1013.0179	1075.2182	1115.4298	1154.6087	1201.0759	1216.2669	1222.7169	1241.9428	1258.6319	1287.5174	1296.4122	1403.8583	1425.5975	1477.1738	1490.2592	1494.5293	1503.6522	1649.4811	2346.5221	3029.8182	3046.2268	3057.6157	3088.0987	3101.4862	3121.3699	3123.4062	3185.7592	3538.5977	3628.9313
CC12CCC1C2(N)C#N	C[C@]12CC[C@H]1[C@]2(N)C#N	
InChI=1S/C7H10N2/c1-6-3-2-5(6)7(6,9)4-8/h5H,2-3,9H2,1H3	InChI=1S/C7H10N2/c1-6-3-2-5(6)7(6,9)4-8/h5H,2-3,9H2,1H3/t5-,6+,7-/m1/s1
