20
gdb 56742	2.84194	1.3002	1.06578	1.6822	84.31	-0.2263	0.049	0.2752	1195.9939	0.170372	-365.900313	-365.891561	-365.890617	-365.933971	33.737	
C	-0.0387407894	 1.5663841452	 0.0153828583	-0.39615
C	-0.0219082194	 0.0247628986	-0.0331802212	-0.299861
C	-1.3736830804	-0.5285792711	 0.0365050891	 0.325915
C	-2.4872778289	-0.9814854969	 0.0621550757	-0.477731
C	 0.6979411884	-0.4899618136	-1.2778979038	 0.341679
C	 2.1546037048	-0.233175209	-1.7388440496	-0.22597
N	 1.6233562517	-1.1493330485	-2.8540091409	-0.146519
C	 0.9827495165	-1.9473234836	-1.7036596681	-0.213252
C	 0.3526356033	-0.2838189569	-2.7729255709	-0.201524
H	 0.9828197209	 1.9577828945	-0.0017336062	 0.119093
H	-0.5804014812	 1.973740896	-0.8430204672	 0.13017
H	-0.5300473936	 1.9197553374	 0.925002999	 0.128663
H	 0.5408897461	-0.3382596004	 0.8392521158	 0.10626
H	-3.4695416769	-1.3831059231	 0.0998142222	 0.196648
H	 2.4200870823	 0.7680038853	-2.0896032921	 0.100695
H	 2.9658938302	-0.6801376687	-1.1566195743	 0.099306
H	 1.7055912481	-2.5232591428	-1.1183333595	 0.09754
H	 0.1369938299	-2.5646997308	-2.0158375461	 0.10809
H	-0.5393272598	-0.7783304013	-3.1651786269	 0.107956
H	 0.4804462076	 0.7134465697	-3.2029855933	 0.098992
51.068	111.393	177.5998	202.5309	228.7029	312.1407	375.7019	441.4719	539.0239	582.0344	594.9641	627.2878	634.3803	674.0435	792.2774	797.3446	839.7887	900.6075	933.8075	965.1519	975.6407	991.8932	1023.2717	1034.8649	1078.9876	1102.3419	1148.4327	1166.0588	1168.2134	1181.603	1197.8999	1199.1195	1258.5055	1307.965	1323.447	1333.4326	1406.4926	1492.8608	1499.6855	1509.9117	1511.4418	1564.1521	2232.3438	2999.5214	3042.9992	3044.616	3048.5602	3057.3529	3110.5625	3118.1205	3119.34	3123.0221	3126.5928	3504.2643
CC(C#C)C12CN(C1)C2	C[C@@H](C#C)[C@@]12CN(C1)C2	
InChI=1S/C8H11N/c1-3-7(2)8-4-9(5-8)6-8/h1,7H,4-6H2,2H3	InChI=1S/C8H11N/c1-3-7(2)8-4-9(5-8)6-8/h1,7H,4-6H2,2H3/t7-/m0/s1
