17
gdb 19370	3.84418	1.81114	1.52672	2.2995	67.48	-0.227	0.0589	0.2859	870.4867	0.142536	-363.765256	-363.758123	-363.757179	-363.796666	27.922	
O	 0.0074959647	 1.4513085761	-0.0100408356	-0.417223
C	 0.0132234027	 0.0335512808	-0.0420111635	-0.155608
C	-1.3813747965	-0.5034967726	 0.0744267827	 0.361494
C	-2.0647400919	-0.9807034278	 1.3196929429	-0.34538
C	-1.9645905967	-1.8962050761	 0.1208937705	-0.14503
C	-2.8890964611	-1.4602293387	-1.0300956656	-0.027715
C	-3.7035867162	-0.2586766869	-0.7649399227	-0.251091
N	-2.2742311593	-0.0835848003	-1.0938084253	-0.198024
H	-0.5934643633	 1.7264174376	-0.713593129	 0.293422
H	 0.4730191405	-0.336639827	-0.9719930533	 0.092293
H	 0.6295455834	-0.3051844164	 0.7967992672	 0.106238
H	-1.3630615971	-1.2324754308	 2.1096177832	 0.120754
H	-3.0052558876	-0.594450032	 1.6962489594	 0.11567
H	-1.4605903009	-2.8530821941	 0.1489881843	 0.098577
H	-3.0015832989	-2.0511192296	-1.9335803555	 0.102436
H	-4.3403516862	 0.084403152	-1.5758055043	 0.12464
H	-4.0841086557	-0.0192073643	 0.2207302148	 0.124548
73.6178	151.4916	261.4577	354.1532	408.479	426.2525	459.309	528.7818	653.2903	704.7335	750.8605	830.8321	849.4924	903.2647	909.6794	948.3061	970.735	1008.4704	1030.1773	1049.9049	1056.8028	1064.9703	1091.3154	1111.6216	1137.7104	1151.063	1221.0878	1252.8173	1271.1728	1351.2636	1377.466	1385.8197	1438.9411	1482.3955	1496.4654	1524.7151	2978.499	3079.0047	3123.2661	3135.1263	3159.0789	3198.9541	3204.8292	3216.3052	3782.1079
OCC12CC1C1CN21	OC[C@]12C[C@H]1[C@H]1CN21	
InChI=1S/C6H9NO/c8-3-6-1-4(6)5-2-7(5)6/h4-5,8H,1-3H2	InChI=1S/C6H9NO/c8-3-6-1-4(6)5-2-7(5)6/h4-5,8H,1-3H2/t4-,5+,6+,7?/m0/s1
