19
gdb 45233	3.18737	1.66132	1.47545	3.0702	78.13	-0.2299	-0.0133	0.2166	953.1767	0.163221	-385.91254	-385.906152	-385.905208	-385.943115	27.335	
O	-0.0142445514	-0.0326610318	-0.1876276378	-0.329949
C	-0.0336871939	 1.1621492893	-0.0336834894	 0.403232
C	-1.2784241524	 2.0612412766	 0.0756116168	-0.333042
C	-0.6728246154	 3.3782495215	 0.5845244491	-0.028452
C	-0.0113099414	 3.0874687971	 1.9702736757	-0.226809
C	 1.4130328372	 2.7910889756	 1.4658036074	-0.030224
C	 1.7154888878	 4.090161352	 0.6681083052	-0.236261
C	 0.6268701284	 3.5356858165	-0.2736402511	-0.03534
C	 1.1504094448	 2.1027023599	 0.0584612984	-0.117315
H	-1.7111418005	 2.1728289918	-0.9278033327	 0.121741
H	-2.0428291706	 1.620647389	 0.7210254998	 0.121799
H	-1.3536000896	 4.2299344273	 0.5680673875	 0.06828
H	-0.021957509	 3.9502720626	 2.6419777575	 0.099679
H	-0.4840371196	 2.2490407239	 2.490389379	 0.102491
H	 2.1254772837	 2.3590585293	 2.1678719762	 0.073868
H	 1.5452632709	 5.0477716213	 1.1703085543	 0.090571
H	 2.7033061416	 4.0827716065	 0.2011978959	 0.102083
H	 0.5008057904	 3.8780071264	-1.3016326902	 0.068016
H	 2.0586182492	 1.7593053153	-0.4343890216	 0.085632
124.0846	287.6076	366.1946	420.5508	493.24	555.1373	563.0061	597.258	720.2184	796.4107	823.9677	843.6146	857.7394	861.8573	885.7905	928.6803	951.5622	962.2414	989.2464	1006.1669	1022.904	1064.3884	1071.9923	1096.1773	1129.4371	1149.3141	1166.0831	1197.3878	1211.5244	1228.8045	1244.823	1268.2848	1283.3128	1287.6273	1312.6449	1317.7634	1342.3501	1452.6704	1498.4297	1517.6431	1843.9638	3028.502	3047.6488	3052.9985	3092.8103	3101.4867	3102.1004	3109.8518	3111.0976	3120.7069	3136.4279
O=C1CC2CC3CC2C13	O=C1C[C@H]2C[C@@H]3C[C@H]2[C@H]13	
InChI=1S/C8H10O/c9-7-3-4-1-5-2-6(4)8(5)7/h4-6,8H,1-3H2	InChI=1S/C8H10O/c9-7-3-4-1-5-2-6(4)8(5)7/h4-6,8H,1-3H2/t4-,5-,6-,8-/m1/s1
