17
gdb 50288	2.89823	1.32871	1.15018	3.4542	72.81	-0.2478	-0.0348	0.213	1093.6889	0.136505	-421.83728	-421.829689	-421.828745	-421.869884	28.774	
O	 0.0532130226	-0.0778088103	 0.0202414779	-0.249908
C	 0.0503715332	 1.1219662686	 0.1160263011	 0.14559
C	 1.2888765361	 1.9858698509	 0.1081190662	-0.075125
C	 1.2528220907	 3.0846823574	-1.0302131638	-0.260496
C	 1.3926207439	 4.3672245742	-0.1841245193	-0.131417
C	 2.477210621	 3.9427283843	 0.8602554373	-0.251483
C	 1.3992046201	 2.9155685464	 1.347068776	-0.158445
C	 0.417986836	 4.0487336625	 0.9662378537	 0.433699
O	-0.5480898716	 4.5545988291	 1.4514118037	-0.320295
H	-0.9049440943	 1.689992939	 0.2122852405	 0.089089
H	 2.1579907981	 1.3303308119	 0.0207117081	 0.100303
H	 2.0795070652	 2.9535829708	-1.7316349939	 0.122992
H	 0.319325086	 3.0642467535	-1.6012958315	 0.122619
H	 1.4019846755	 5.3271391734	-0.6950031392	 0.092775
H	 3.4001801418	 3.5191263011	 0.4579532957	 0.114874
H	 2.6927396252	 4.7158902581	 1.5993115471	 0.12608
H	 1.4176569407	 2.458152469	 2.3337019005	 0.099147
79.5393	104.0065	165.636	295.0389	362.3966	406.0709	439.6033	472.2384	635.0624	657.1289	781.6959	812.1505	828.451	886.4088	903.1918	926.4834	961.7763	1003.3073	1012.6748	1024.9073	1037.959	1088.5071	1096.2103	1146.4806	1158.9554	1196.3428	1224.7425	1243.3936	1246.1735	1297.8013	1304.6514	1324.6211	1431.6284	1490.4628	1505.0634	1833.4167	1903.0205	2859.5876	3057.243	3072.2511	3086.6221	3110.2111	3140.0866	3151.2495	3154.1087
O=CC1CC2CC1C2=O	O=C[C@H]1C[C@@H]2C[C@H]1C2=O	
InChI=1S/C7H8O2/c8-3-5-1-4-2-6(5)7(4)9/h3-6H,1-2H2	InChI=1S/C7H8O2/c8-3-5-1-4-2-6(5)7(4)9/h3-6H,1-2H2/t4-,5-,6-/m1/s1
