21
gdb 117752	2.1088	1.00917	0.92506	1.6188	80.57	-0.2592	0.0434	0.3026	1421.6567	0.179199	-424.182595	-424.17155	-424.170606	-424.218781	40.257	
C	 0.0931930393	 1.566134472	 0.0220356409	-0.423829
C	 0.0099335745	 0.0250547874	 0.0674504847	 0.008841
C	 0.8378409431	-0.4928168352	 1.278968965	-0.069615
O	 0.855857272	-1.900547341	 1.376357159	-0.423345
C	-1.4580857828	-0.4824509547	 0.1358160983	-0.20806
C	-2.3172475416	 0.0794011954	 1.2734517513	-0.084333
O	-3.6356628004	-0.4454290894	 1.2334203481	-0.417437
C	 0.6288224781	-0.5361887278	-1.1400315728	 0.323543
C	 1.1588738286	-1.0349792805	-2.0986990268	-0.483256
H	 1.1241166263	 1.8928549435	-0.1393075157	 0.126453
H	-0.5189488513	 1.9646218297	-0.7916948683	 0.129689
H	-0.2582963321	 2.0022360009	 0.9618233407	 0.122348
H	 1.8548767082	-0.078424657	 1.20770241	 0.093717
H	 0.3955781079	-0.1257766649	 2.2098049669	 0.111164
H	 1.2347810768	-2.2331378606	 0.5530394968	 0.286326
H	-1.9577663992	-0.2573659459	-0.8119435284	 0.111979
H	-1.4236470356	-1.5739193189	 0.2303018839	 0.105796
H	-1.8488280827	-0.1100738866	 2.2510647412	 0.09444
H	-2.4360226748	 1.1627401428	 1.1751103542	 0.113271
H	-3.5746215828	-1.3980930568	 1.3585019762	 0.282588
H	 1.6132400283	-1.4525974222	-2.9633283552	 0.199722
58.2228	80.3765	120.7198	129.244	201.4199	231.9853	242.3995	257.17	304.6427	335.2667	367.7357	414.8608	424.4013	460.8441	567.4375	601.0407	629.3462	648.5645	749.0564	778.6382	885.3323	920.3435	982.4206	1015.8616	1047.1169	1074.7138	1087.76	1122.8204	1162.0279	1189.8345	1236.1638	1257.6505	1323.6898	1344.0012	1386.854	1396.6065	1410.5849	1425.8843	1430.1587	1477.2804	1494.3517	1497.6935	1505.9084	1515.114	2221.2351	2989.013	2992.0186	3040.5756	3042.7581	3074.9083	3086.6397	3096.2438	3115.8001	3119.7654	3498.4768	3775.2825	3812.8171
CC(CO)(CCO)C#C	C[C@@](CO)(CCO)C#C	
InChI=1S/C7H12O2/c1-3-7(2,6-9)4-5-8/h1,8-9H,4-6H2,2H3	InChI=1S/C7H12O2/c1-3-7(2,6-9)4-5-8/h1,8-9H,4-6H2,2H3/t7-/m0/s1
