17
gdb 44838	2.38446	1.83947	1.38834	4.4082	71.94	-0.2429	-0.0481	0.1948	966.4547	0.137711	-421.885859	-421.878882	-421.877938	-421.917353	28.002	
O	 0.0140208067	 0.0032218291	 0.0097248528	-0.313326
C	-0.0153771387	 1.2026068887	 0.0079374266	 0.419002
C	-1.2619144504	 2.1067543106	 0.0121570416	-0.329816
C	-0.644354216	 3.5203004686	 0.065120896	-0.032884
C	 0.6090973573	 3.3364506746	-0.8296641601	-0.25283
C	 1.1955009752	 2.1581543757	-0.0096772471	-0.21539
C	 1.2107398591	 2.7822296324	 1.4009612947	 0.419004
O	 2.0064840016	 2.5701404722	 2.2734298045	-0.313328
C	 0.0031354744	 3.7365347676	 1.4494258137	-0.329817
H	-1.8263535275	 1.9410834562	-0.9122132079	 0.134233
H	-1.9216365267	 1.8578242883	 0.8483290836	 0.132485
H	-1.3260509487	 4.3153415338	-0.2363966034	 0.081717
H	 0.3690565345	 3.0590631767	-1.8598337477	 0.115706
H	 1.2640258122	 4.2120664346	-0.8430299258	 0.115706
H	 2.1308877072	 1.686279129	-0.2979062606	 0.102821
H	 0.3641704826	 4.7631775305	 1.5765347696	 0.134233
H	-0.6411864928	 3.5074336914	 2.3030915792	 0.132485
114.9521	115.229	360.2623	387.7022	418.3479	480.465	501.0024	548.5761	592.4468	650.4569	753.2304	762.962	796.4666	873.1442	895.1036	912.9239	935.0498	950.8865	982.9841	1037.4663	1042.0743	1122.8965	1132.8088	1134.1422	1153.8179	1206.2708	1212.2979	1259.4697	1260.2826	1310.7507	1314.6533	1341.3708	1445.6592	1459.3424	1510.8391	1842.9069	1873.7779	3051.7116	3052.4057	3059.1468	3098.7972	3102.1878	3109.476	3114.9104	3166.5306
O=C1CC2CC1C(=O)C2	O=C1C[C@@H]2C[C@H]1C(=O)C2	
InChI=1S/C7H8O2/c8-6-2-4-1-5(6)7(9)3-4/h4-5H,1-3H2	InChI=1S/C7H8O2/c8-6-2-4-1-5(6)7(9)3-4/h4-5H,1-3H2/t4-,5+
