16
gdb 124737	3.95781	1.10675	0.90679	13.0246	69.23	-0.1924	-0.0055	0.1869	1241.2342	0.123497	-471.177944	-471.169698	-471.168754	-471.211258	30.085	
C	 0.0898921437	 1.5016046455	-0.2124703321	-0.407322
C	 0.0279550823	-0.0100980195	-0.0459723702	-0.11597
N	 0.5358391334	-0.4619683476	 1.3249513059	-0.451138
H	-0.3600754274	-1.0572634382	 1.6640571198	 0.33496
H	 1.3807189742	-1.0254230457	 1.2735705993	 0.304238
H	 0.7032356904	 0.327570724	 1.9452471148	 0.301473
C	-1.3707940962	-0.5690495972	-0.065749309	 0.421394
N	-1.6782820892	-1.2920181367	 0.9905192884	-0.256123
O	-2.9895279096	-1.675915662	 0.7713574735	-0.27618
C	-3.372129445	-1.1035686928	-0.5009671955	 0.4236
O	-4.4768930538	-1.2927079682	-0.9266106531	-0.389076
N	-2.2922645005	-0.3994071286	-0.9948522802	-0.482592
H	 1.1198599126	 1.8710895641	-0.2282812189	 0.122545
H	-0.3945891715	 1.755842692	-1.1576183909	 0.191197
H	-0.4679347349	 2.0038223493	 0.5850190368	 0.141521
H	 0.6559804914	-0.5004967886	-0.7953507586	 0.137472
62.4603	116.9467	183.5991	250.6655	262.2375	292.091	341.6629	435.9471	464.535	565.9057	646.9159	723.8835	746.3265	790.557	820.659	826.9215	974.875	995.1753	1027.7155	1048.7601	1095.9514	1118.4909	1133.4354	1205.7704	1288.6295	1343.2008	1376.3677	1411.2068	1476.9929	1487.5136	1501.8238	1532.9326	1602.3638	1617.102	1885.0692	2121.1943	3040.1662	3072.868	3114.6844	3143.149	3492.1122	3570.0289
CC([NH3+])C1=NOC([O-])=N1	C[C@@H]([NH3])c1noc(=O)n1	
InChI=1S/C4H7N3O2/c1-2(5)3-6-4(8)9-7-3/h2H,5H2,1H3,(H,6,7,8)	InChI=1S/C4H8N3O2/c1-2(5)3-6-4(8)9-7-3/h2H,1,5H3,(H,6,7,8)/t2-/m1/s1
