15
gdb 129622	3.13875	1.34652	1.00373	3.0696	68.99	-0.2201	-0.0406	0.1795	1116.9977	0.113303	-450.131726	-450.123404	-450.12246	-450.165177	29.867	
N	-0.203877896	 1.3560738313	-0.4115030895	-0.613874
C	-0.0985493647	 0.01253606	-0.0986017647	 0.273904
C	-1.0376092449	-0.998457109	 0.0388537898	 0.249349
C	-2.534640193	-0.8974210725	-0.0076024825	-0.387704
C	-2.9646016931	-0.3246859134	-1.3473214425	 0.146066
O	-2.9265265601	 0.8567436862	-1.6020181185	-0.24899
N	-0.3782829811	-2.1727154726	 0.2576312073	-0.248067
N	 0.9010189323	-1.9626390275	 0.2872316824	-0.132171
N	 1.0813882555	-0.6333842628	 0.0607199333	-0.217513
H	 0.2689536144	 1.9880269545	 0.2208900642	 0.253714
H	-1.1620677128	 1.6359511768	-0.5899562437	 0.274263
H	-2.9529117338	-1.8954943673	 0.1429606311	 0.139284
H	-2.9113580039	-0.2300349493	 0.7775648341	 0.129456
H	-3.2843897905	-1.057810168	-2.1168758191	 0.10513
H	 2.0149487317	-0.2610131161	-0.0064759417	 0.277153
76.5952	86.4933	146.3502	231.0986	269.3373	304.7756	344.8552	427.7919	522.4232	539.4059	658.293	666.4634	725.902	741.4728	758.1862	912.6947	975.7556	1009.8759	1041.0813	1050.6405	1120.9663	1182.8214	1260.2974	1286.674	1297.9741	1342.469	1402.9957	1415.8483	1463.3624	1515.7123	1625.7976	1668.0242	1804.9874	2918.8583	3029.6884	3115.3438	3516.0642	3618.9976	3658.0739
NC1=C(CC=O)N=NN1	Nc1c(CC=O)nn[nH]1	
InChI=1S/C4H6N4O/c5-4-3(1-2-9)6-8-7-4/h2H,1H2,(H3,5,6,7,8)	InChI=1S/C4H6N4O/c5-4-3(1-2-9)6-8-7-4/h2H,1H2,(H3,5,6,7,8)
