13
gdb 23748	3.34224	2.3272	1.3732	1.0325	64.36	-0.214	-0.0149	0.1991	816.7641	0.09749	-402.811286	-402.804933	-402.803989	-402.841536	24.886	
N	-0.0227612318	 1.381838043	 0.1693696105	-0.56787
C	-0.0090075542	 0.0088254384	 0.0657875261	 0.277872
N	-1.171743565	-0.6419107121	 0.0452811392	-0.331468
C	-1.1510210682	-1.9797616466	 0.0035720692	-0.008427
C	 0.0094786329	-2.7378358719	-0.0284817662	-0.136549
C	 1.2344065516	-2.0611822512	-0.0214257838	-0.198134
C	 1.2118751828	-0.6887504964	 0.027324412	 0.21532
F	 2.3499101476	 0.0288676532	 0.0280053701	-0.09347
H	 0.801775199	 1.8645800031	-0.1500275748	 0.258929
H	-0.9014715935	 1.8074959785	-0.083113777	 0.258823
H	-2.1241745865	-2.4637996454	-0.0081500567	 0.106667
H	-0.0314776822	-3.8194234745	-0.0648497103	 0.10079
H	 2.1854440274	-2.5806004583	-0.0532010382	 0.117517
175.132	287.8744	306.2772	405.0363	455.2901	464.9173	523.352	552.3295	587.8742	591.2538	775.6326	781.0648	808.8618	895.8544	944.6052	967.3578	1037.7683	1082.8773	1151.785	1237.8521	1299.6459	1330.2051	1364.6724	1493.2658	1513.8364	1613.572	1621.1245	1662.6588	3160.4454	3197.4325	3213.3631	3585.2171	3704.6441
NC1=NC=CC=C1F	Nc1ncccc1F	
InChI=1S/C5H5FN2/c6-4-2-1-3-8-5(4)7/h1-3H,(H2,7,8)	InChI=1S/C5H5FN2/c6-4-2-1-3-8-5(4)7/h1-3H,(H2,7,8)
