22
gdb 58760	2.51505	1.3268	1.12711	2.9294	82.34	-0.2197	0.0651	0.2848	1219.2364	0.19344	-404.270541	-404.261077	-404.260133	-404.304801	36.143	
C	 0.0490599269	 1.3211338064	-0.5083803088	-0.412734
C	 0.0190393851	-0.1767395013	-0.2008151513	-0.029683
O	 0.7319396379	-0.9311871535	-1.18026905	-0.441238
C	 0.6658908936	-0.5119675361	 1.1236677446	 0.356024
C	 2.109736284	-0.2341608391	 1.608744506	-0.206043
N	 1.5033915408	-0.968593433	 2.8188640145	-0.168003
C	 0.2778072834	-0.0739624725	 2.5537611494	-0.242226
C	 0.9017265166	-1.9165436324	 1.7476619472	 0.048926
C	-0.2110535994	-2.8620926259	 2.1568684105	-0.448084
H	 1.0814573963	 1.6809699251	-0.5526037002	 0.128386
H	-0.4284711061	 1.5297467559	-1.472614187	 0.105447
H	-0.4882726489	 1.8909340394	 0.2566076328	 0.12104
H	-1.0327641674	-0.5105739934	-0.1605321646	 0.063207
H	 0.3591214394	-0.7249290813	-2.0432574969	 0.282543
H	 2.9263186455	-0.7783041166	 1.1281464989	 0.105751
H	 2.3903015896	 0.7988061923	 1.8319159046	 0.093002
H	 0.4451384848	 0.971337773	 2.8292133144	 0.096732
H	-0.651916645	-0.4384808943	 2.9922499013	 0.099197
H	 1.697980149	-2.4894430065	 1.2613152374	 0.077422
H	-1.0892633483	-2.3667468699	 2.5771466029	 0.115163
H	-0.5382221514	-3.4377163741	 1.2844854123	 0.124521
H	 0.1627116436	-3.5714482422	 2.9027884219	 0.130649
48.0859	132.9781	167.1087	184.5715	239.0227	255.8305	279.657	346.8331	370.7809	447.6831	487.998	573.8858	607.0187	656.5227	752.959	805.8469	824.2867	864.5879	910.8413	956.6652	979.2844	999.4649	1026.394	1049.3749	1078.1611	1099.561	1110.0221	1138.3806	1160.0017	1171.2522	1183.0642	1194.8826	1202.0195	1241.0128	1276.4506	1320.0495	1366.3209	1402.4344	1404.3972	1426.3656	1438.3988	1491.3542	1492.1105	1494.392	1501.427	1521.0067	1557.3365	2943.6185	3029.1753	3038.6637	3049.1919	3051.6669	3062.8317	3095.311	3101.2584	3114.8313	3115.759	3121.5994	3131.636	3816.7175
CC(O)C12CN(C1)C2C	C[C@@H](O)[C@@]12CN(C1)[C@H]2C	
InChI=1S/C7H13NO/c1-5-7(6(2)9)3-8(5)4-7/h5-6,9H,3-4H2,1-2H3	InChI=1S/C7H13NO/c1-5-7(6(2)9)3-8(5)4-7/h5-6,9H,3-4H2,1-2H3/t5-,6+/m0/s1
