22
gdb 78599	2.93782	1.41601	1.15913	1.4913	87.23	-0.2211	0.0931	0.3141	1182.8795	0.193113	-367.133016	-367.12408	-367.123136	-367.165864	35.07	
C	-0.1937778999	 1.5972046597	-0.0076963291	-0.423503
C	-0.0537876967	 0.0895190232	-0.0878784302	 0.058624
C	 0.8944104228	-0.5748983503	-1.0865573373	-0.126252
C	 2.0979969274	-0.245874256	-0.1589717938	-0.02127
C	 2.6042935495	-1.6916454391	-0.1163965149	-0.055872
C	 3.3873232258	-2.1672765209	 1.0977089994	-0.425205
C	 1.0657081708	-1.7780343795	-0.0998588036	 0.371487
C	 0.1967245057	-2.989378064	 0.0738674311	-0.524001
N	 0.9639480988	-0.5450812713	 0.8644992784	-0.209258
H	 0.7659348615	 2.1088143325	-0.1250856176	 0.115944
H	-0.8667124794	 1.9618464352	-0.7915439517	 0.115068
H	-0.6158766846	 1.8887366087	 0.9598131772	 0.125697
H	-1.0379405136	-0.3847642361	 0.0144735913	 0.064283
H	 0.8781718832	-0.6053790272	-2.182929978	 0.054411
H	 2.6675552623	 0.6823635977	-0.0981189813	 0.07616
H	 3.0536072249	-2.0323197205	-1.0574146304	 0.06192
H	 2.9201780733	-1.8126804596	 2.0202736675	 0.139213
H	 3.4348943572	-3.2613546703	 1.1336758298	 0.110974
H	 4.4175427282	-1.7956901103	 1.0696194034	 0.111856
H	 0.4367881283	-3.5020678074	 1.0109291596	 0.132123
H	-0.8657123841	-2.7270114039	 0.0947494439	 0.125557
H	 0.3544503684	-3.6937702605	-0.7501887738	 0.122045
170.4054	186.0199	192.783	206.6547	207.6088	219.9826	264.21	340.7375	382.7483	514.9276	564.2847	636.2244	714.7269	724.7327	811.4253	829.761	840.6603	850.4014	875.6671	925.6059	1018.484	1033.0072	1042.2599	1058.6312	1080.057	1099.2064	1105.3867	1125.5819	1147.3643	1166.8354	1187.2442	1218.1755	1248.3659	1263.2672	1289.4296	1316.219	1397.3414	1399.9442	1404.3962	1414.8001	1421.2772	1483.1938	1485.8758	1492.3204	1494.708	1498.2695	1503.316	3020.7536	3026.7497	3029.4991	3032.3825	3034.1946	3036.6878	3089.456	3098.4024	3100.3012	3103.1211	3105.8312	3113.557	3121.4811
CC1C2C3C(C)C2(C)N13	C[C@H]1[C@H]2[C@@H]3[C@@H](C)[C@@]2(C)N13	
InChI=1S/C8H13N/c1-4-7-6-5(2)9(7)8(4,6)3/h4-7H,1-3H3	InChI=1S/C8H13N/c1-4-7-6-5(2)9(7)8(4,6)3/h4-7H,1-3H3/t4-,5+,6+,7+,8-/m1/s1
