17
gdb 46994	2.69649	1.79794	1.45894	2.0165	66.83	-0.2416	-0.0257	0.2159	929.3298	0.138305	-458.99002	-458.983026	-458.982082	-459.021559	27.373	
O	-0.0195595306	-0.0149067463	 0.2205752468	-0.315224
C	-0.0300051657	 1.1739301747	 0.0158670958	 0.37405
C	-1.3491019018	 1.9414127512	-0.1575222745	-0.176386
O	-1.2678712484	 3.1509587697	-0.9054763063	-0.258578
C	-0.0367146319	 3.8310948113	-0.7957075929	 0.213442
C	 1.1086713104	 2.940881863	-1.2833127048	-0.27202
C	 1.2214282685	 2.0382142776	-0.0386212787	-0.148431
C	 1.1513411224	 3.1130163157	 1.0661229146	-0.098571
O	 0.2829725658	 4.1307992173	 0.5519622237	-0.263176
H	-2.0708563131	 1.2895022789	-0.6542597285	 0.141427
H	-1.7291116287	 2.1489386085	 0.8558154936	 0.133671
H	-0.1746979173	 4.7688219343	-1.3358480873	 0.099387
H	 0.8554572614	 2.4133977928	-2.2045076822	 0.124397
H	 2.0257614691	 3.5177232459	-1.4371367355	 0.116125
H	 2.1115731696	 1.4114789329	 0.0203982594	 0.096326
H	 0.7488874327	 2.7410286193	 2.0143886704	 0.120976
H	 2.1478173476	 3.5339803633	 1.2539638964	 0.112586
99.4981	158.6805	234.3045	362.9628	433.6343	436.7207	479.6378	553.587	616.3184	702.7837	771.909	844.7896	874.4322	924.3077	935.1667	954.0243	955.4972	993.1707	1042.7409	1063.4188	1068.7918	1115.2233	1152.6137	1192.4119	1225.8086	1248.2233	1251.8704	1303.9741	1308.9652	1340.5559	1357.6981	1386.4192	1396.7319	1470.5882	1488.7901	1528.7537	1829.5667	2985.3146	3016.4631	3060.8462	3070.2587	3110.3611	3115.1471	3119.7187	3126.3987
O=C1COC2CC1CO2	O=C1CO[C@@H]2C[C@H]1CO2	
InChI=1S/C6H8O3/c7-5-3-9-6-1-4(5)2-8-6/h4,6H,1-3H2	InChI=1S/C6H8O3/c7-5-3-9-6-1-4(5)2-8-6/h4,6H,1-3H2/t4-,6+/m0/s1
