18
gdb 11939	3.05204	1.97607	1.52846	2.8815	74.1	-0.2401	-0.0224	0.2177	896.8382	0.152913	-347.799962	-347.792046	-347.791102	-347.83189	29.83	
C	 0.0001074027	 1.4581330018	 0.2954283149	-0.493835
C	 0.0224094229	-0.021506089	 0.0504126847	 0.316312
C	-0.8492066412	-0.9731725891	 0.7853212895	-0.361009
C	 0.6446130563	-1.1370422194	 0.9805229959	 0.218957
C	 1.2708573528	-1.8125494972	-0.241730864	-0.303892
C	 0.6548789642	-0.7145272053	-1.1667714172	-0.274762
C	 1.2787997878	-0.8756296543	 2.2736985444	 0.052732
O	 0.771513816	-0.2450919071	 3.1779698841	-0.284408
H	 0.9386096755	 1.9299835862	-0.0148298976	 0.117597
H	-0.8136292104	 1.9329876516	-0.2663032234	 0.124367
H	-0.1532684857	 1.6693487726	 1.3577882534	 0.150224
H	-1.357975465	-0.5687511365	 1.6540145694	 0.14054
H	-1.3839838921	-1.7611322254	 0.2587339045	 0.10981
H	 2.3635193013	-1.7822951304	-0.2311073221	 0.109429
H	 0.9536831667	-2.8437648415	-0.427514713	 0.10183
H	-0.0509403068	-1.0563295401	-1.9309047334	 0.102615
H	 1.4188828437	-0.1013110107	-1.6500958182	 0.108485
H	 2.3153998113	-1.2742530661	 2.3695339483	 0.065009
112.2917	165.209	201.487	205.5519	255.7324	330.2194	383.969	429.33	503.5772	643.0654	693.8316	733.5265	793.4059	813.0616	935.5684	943.7614	978.231	982.0179	1019.2684	1040.5821	1075.8583	1093.6128	1123.1672	1178.063	1214.6755	1244.9018	1252.1665	1276.6012	1335.3051	1385.1784	1420.2162	1433.6254	1476.7175	1481.0959	1490.3725	1494.7934	1508.5634	1778.6937	2860.5349	3023.9005	3043.1071	3050.795	3083.3204	3093.1036	3103.9336	3111.3542	3112.7511	3210.8363
CC12CC1(CC2)C=O	C[C@]12C[C@]1(CC2)C=O	
InChI=1S/C7H10O/c1-6-2-3-7(6,4-6)5-8/h5H,2-4H2,1H3	InChI=1S/C7H10O/c1-6-2-3-7(6,4-6)5-8/h5H,2-4H2,1H3/t6-,7+/m0/s1
