21
gdb 92611	3.7829	1.18639	0.99175	1.3702	85.22	-0.2358	0.0177	0.2535	1260.8453	0.184431	-387.109024	-387.10083	-387.099886	-387.142	31.823	
C	-0.0353866042	 1.5861004361	 0.0077161267	-0.39548
C	 0.0438826537	 0.0563532432	 0.0176191325	-0.005227
C	 0.7972963563	-0.543511296	-1.2122995775	-0.264728
C	 1.4331446679	-1.825443398	-0.6668217653	 0.069167
O	 2.7670087997	-2.0969099334	-1.0909471813	-0.271628
C	 3.3819187274	-2.8320836507	-0.0311679202	-0.067021
C	 2.7244649042	-2.3705154959	 1.3136931607	-0.379751
C	 1.5817340919	-1.5444333313	 0.8055157617	 0.346901
C	 0.8352983963	-0.5138304317	 1.1885564555	-0.245204
H	 0.9665695678	 2.0293946411	 0.0115760118	 0.116104
H	-0.5593973166	 1.945890645	-0.8841829392	 0.113967
H	-0.5739626143	 1.9625079436	 0.884113004	 0.111093
H	-0.986245187	-0.3319043362	 0.035766479	 0.077944
H	 0.1491201239	-0.6994992226	-2.0786166539	 0.093436
H	 1.6065178715	 0.1342689439	-1.5060820994	 0.111563
H	 0.7992263702	-2.7108524966	-0.8590869911	 0.061964
H	 3.2254036224	-3.9117211268	-0.1767138634	 0.091778
H	 4.4565166008	-2.6363577336	-0.0727111694	 0.110062
H	 2.4023243857	-3.2333547378	 1.9070307994	 0.115431
H	 3.4111749353	-1.7874132575	 1.9335068887	 0.121464
H	 0.7959683171	-0.0777127249	 2.1817039607	 0.088166
67.5326	128.7885	170.0227	232.3603	286.8477	329.2102	408.5494	446.3791	557.2144	606.1989	685.579	709.6316	804.0259	834.3934	848.8226	873.9365	921.7191	931.4681	943.5753	979.0806	1014.4398	1047.0281	1063.4112	1098.1083	1108.5189	1139.1455	1175.4716	1204.2185	1212.3435	1242.937	1254.8509	1276.2786	1286.3326	1307.9624	1342.7191	1365.0146	1367.7599	1392.2608	1407.6228	1478.6224	1485.7094	1496.9387	1498.38	1517.5678	1743.2044	2923.858	2977.9297	2985.4152	3026.3123	3043.9221	3049.7203	3081.0615	3095.8325	3097.0511	3097.765	3104.7465	3180.095
CC1CC2OCCC2=C1	C[C@H]1C[C@H]2OCCC2=C1	
InChI=1S/C8H12O/c1-6-4-7-2-3-9-8(7)5-6/h4,6,8H,2-3,5H2,1H3	InChI=1S/C8H12O/c1-6-4-7-2-3-9-8(7)5-6/h4,6,8H,2-3,5H2,1H3/t6-,8-/m1/s1
