16
gdb 16363	2.6746	2.24577	1.41693	3.211	66.59	-0.236	-0.0188	0.2172	884.2894	0.129129	-383.731684	-383.723921	-383.722976	-383.763901	28.916	
O	 0.1322160969	 1.1777060293	-0.517510879	-0.429206
C	 0.0648334656	-0.1103573546	 0.0523267885	 0.006768
C	 0.066105954	-0.1973443883	 1.6188646113	-0.388505
C	-1.3155047723	-0.8804537293	 1.5288340829	 0.344426
O	-2.0504473204	-1.3982400064	 2.3234173962	-0.315901
C	-1.3601178705	-0.6764402315	 0.0458404166	 0.240325
C	-2.5440564581	-0.1238167417	-0.7236632671	-0.294197
C	-2.0785015791	-1.5173963	-0.9830736544	-0.323037
H	 1.0485059565	 1.4710416545	-0.4951105945	 0.28804
H	 0.7979512738	-0.7865971426	-0.4074421248	 0.075013
H	 0.8570573853	-0.7826745259	 2.0947473135	 0.124068
H	 0.0108527947	 0.7911661604	 2.0852314164	 0.134846
H	-3.4607094413	 0.0228347623	-0.1629824704	 0.135127
H	-2.3077308768	 0.6483147831	-1.4466291365	 0.142111
H	-1.5451415171	-1.7218170225	-1.9056688628	 0.124704
H	-2.6697870211	-2.3414342568	-0.5974970359	 0.135419
64.7326	170.3583	196.8302	220.7988	275.2204	329.4004	464.6138	493.0909	552.2383	611.6445	696.914	773.4938	799.1036	844.0991	891.7428	944.1055	990.0219	1005.9149	1044.1642	1064.6516	1078.6464	1097.3893	1155.4785	1174.671	1200.175	1211.1917	1262.041	1284.8681	1366.2447	1415.7147	1441.0375	1457.2799	1489.842	1878.9812	3008.566	3059.7129	3121.247	3129.2125	3141.0938	3216.3996	3237.5388	3820.5775
OC1CC(=O)C11CC1	O[C@H]1CC(=O)C21CC2	
InChI=1S/C6H8O2/c7-4-3-5(8)6(4)1-2-6/h4,7H,1-3H2	InChI=1S/C6H8O2/c7-4-3-5(8)6(4)1-2-6/h4,7H,1-3H2/t4-/m0/s1
