16
gdb 125244	3.9908	0.95331	0.81052	5.2611	75.94	-0.2477	0.0079	0.2556	1380.8348	0.125505	-396.977561	-396.968897	-396.967953	-397.012577	30.412	
C	 0.3270753434	 1.4336785489	-0.0300518207	-0.504153
C	 0.0965099209	-0.0417350545	-0.0498920034	 0.39519
C	 0.3781313883	-1.0047433893	-0.9986581486	-0.371459
C	-0.0693130602	-2.2203396458	-0.433849025	 0.352984
C	-0.0494506149	-3.6049868433	-1.025264936	-0.439427
C	 1.2518170018	-3.9724302427	-1.5871806756	 0.263458
N	 2.2747330342	-4.2546425249	-2.0440193443	-0.314419
N	-0.5906702931	-2.0384844197	 0.7747735837	-0.286754
N	-0.4820800787	-0.7105001566	 0.9821588494	-0.25127
H	 0.9827097257	 1.7308274237	 0.7962215014	 0.141926
H	 0.8009571119	 1.7496048744	-0.961210498	 0.149462
H	-0.610886553	 1.990746683	 0.0743578644	 0.139639
H	 0.8516996342	-0.8514106343	-1.9550114152	 0.117955
H	-0.3214648692	-4.3223013718	-0.2450566964	 0.172224
H	-0.7983568428	-3.7006901613	-1.8218441025	 0.161525
H	-0.8098389386	-0.3284987056	 1.8536216268	 0.273119
32.5187	53.3519	96.6382	197.2607	262.2189	341.0977	381.0844	388.6404	474.7548	516.2818	631.4498	671.4296	701.1632	783.9491	814.0147	937.6474	946.7271	990.7517	1010.4862	1046.7429	1063.8571	1167.1465	1178.7615	1219.3845	1308.2407	1324.7489	1413.6974	1437.0777	1453.7913	1465.0758	1483.0467	1491.0712	1513.1974	1615.6669	2365.2248	3033.1219	3033.3049	3084.39	3094.5973	3134.4002	3265.7429	3666.7053
CC1=CC(CC#N)=NN1	Cc1cc(CC#N)n[nH]1	
InChI=1S/C6H7N3/c1-5-4-6(2-3-7)9-8-5/h4H,2H2,1H3,(H,8,9)	InChI=1S/C6H7N3/c1-5-4-6(2-3-7)9-8-5/h4H,2H2,1H3,(H,8,9)
