20
gdb 8108	2.87824	1.96902	1.47919	1.438	75.53	-0.2265	0.0877	0.3142	961.9285	0.175608	-348.977321	-348.968748	-348.967804	-349.00958	32.713	
C	-0.2037140281	 1.2571300612	-0.7826456339	-0.424672
C	 0.1704708375	-0.2032687571	-0.640327438	-0.053776
C	 1.5725906597	-0.8070086378	-0.5850853106	-0.23228
C	 2.5195929386	-0.0088832869	 0.3069212724	 0.15764
C	 3.1373423151	 1.3118395837	-0.1102505758	-0.4184
O	 1.4989588498	 0.0906910505	 1.3459187025	-0.341355
C	 0.6563037647	-0.8319699322	 0.6291859746	 0.446247
C	 0.0026807326	-1.9122836754	 1.4287705178	-0.487504
H	 0.0925226382	 1.6638330161	-1.7556240444	 0.112551
H	-1.2888525028	 1.3773153994	-0.69136583	 0.110776
H	 0.2622468769	 1.8546517261	 0.0029885368	 0.137404
H	-0.4844232561	-0.8805582295	-1.1880104215	 0.08341
H	 1.8765156442	-1.6106581458	-1.2441499712	 0.088782
H	 3.3134649442	-0.6735502697	 0.6777428346	 0.078563
H	 3.5881314391	 1.8041286493	 0.7579955979	 0.125091
H	 3.932314973	 1.128668088	-0.8415635221	 0.116077
H	 2.4107440296	 1.9921039513	-0.5559201487	 0.125395
H	-0.7078161602	-1.4826098854	 2.1445075477	 0.13033
H	-0.548828257	-2.5939393523	 0.7747680201	 0.120669
H	 0.7421289708	-2.4888966535	 1.9937195218	 0.125054
165.1592	188.4839	195.4298	202.037	230.3967	235.6454	272.9899	346.5433	409.5033	556.3517	570.4196	669.6967	698.0796	758.6902	861.8012	868.5494	909.4758	929.0225	970.6775	1017.1295	1037.3463	1071.7414	1092.0863	1115.2683	1128.0154	1152.4647	1164.2763	1211.1822	1276.7808	1313.1318	1335.7764	1394.2082	1402.4374	1407.6563	1411.1981	1474.1808	1479.0764	1483.9113	1494.7243	1497.2635	1506.0761	1510.4612	2991.7505	3030.2873	3032.2099	3040.8349	3086.9289	3092.6033	3101.0075	3110.7918	3115.3848	3132.2279	3147.3887	3186.4077
CC1C2C(C)OC12C	C[C@H]1[C@H]2[C@@H](C)O[C@@]12C	
InChI=1S/C7H12O/c1-4-6-5(2)8-7(4,6)3/h4-6H,1-3H3	InChI=1S/C7H12O/c1-4-6-5(2)8-7(4,6)3/h4-6H,1-3H3/t4-,5+,6-,7-/m0/s1
