18
gdb 14484	4.56945	1.77107	1.69686	0.1618	75.73	-0.2131	0.0896	0.3028	868.6839	0.152654	-310.569375	-310.562106	-310.561162	-310.600216	28.943	
C	-0.0073414091	 1.5054629202	-0.0027393522	-0.523218
C	 0.0110758379	 0.0130800169	 0.01628994	 0.369965
C	 0.2323902434	-0.9894693166	-1.1099924891	-0.143123
C	 0.8339424853	-2.0071437594	-0.0989197841	-0.143114
C	 0.6164389595	-1.0089004107	 1.0337743555	-0.216624
C	-0.4731084248	-2.0155479404	 0.684761269	 0.369965
C	-1.101572925	-3.0872531053	 1.5120363734	-0.523218
C	-1.0794087032	-0.9929583051	-0.3315495033	-0.216609
H	 1.0074164818	 1.9211094684	-0.0202091662	 0.119147
H	-0.5315643943	 1.8731763052	-0.892123218	 0.1193
H	-0.5203519984	 1.9135603057	 0.8766000539	 0.118488
H	 0.4054454986	-0.8122699759	-2.1637646156	 0.079041
H	 1.5820152971	-2.7834800221	-0.1962299652	 0.079045
H	 1.1665616971	-0.8832069106	 1.9581584785	 0.077009
H	-1.8484896344	-2.6774084355	 2.2027617607	 0.118494
H	-1.6005595595	-3.8383186878	 0.8877641779	 0.119142
H	-0.3445765635	-3.6048232862	 2.1121238649	 0.119299
H	-2.0897400785	-0.8192985407	-0.68081979	 0.077011
177.3302	213.2264	215.7281	237.5748	304.0994	314.0272	535.6928	617.9525	659.6699	771.8664	779.7929	810.9675	825.6253	847.2024	848.8926	873.0155	885.0817	929.9289	975.0342	986.2558	997.5381	1072.2519	1093.7581	1101.5768	1126.7205	1144.664	1159.8355	1220.8768	1266.018	1267.2797	1398.2348	1408.6554	1436.9878	1439.4138	1480.8739	1480.9785	1498.6269	1499.3368	3014.4173	3015.3829	3072.3133	3072.569	3086.7401	3086.7725	3179.8096	3184.3034	3193.5603	3198.8458
CC12C3C4C1C4(C)C23	C[C@@]12[C@H]3[C@H]4[C@@H]1[C@@]4(C)[C@@H]23	
InChI=1S/C8H10/c1-7-3-4-6(7)8(4,2)5(3)7/h3-6H,1-2H3	InChI=1S/C8H10/c1-7-3-4-6(7)8(4,2)5(3)7/h3-6H,1-2H3/t3-,4-,5+,6-,7-,8+/m0/s1
