17
gdb 47287	3.36139	1.30342	1.00656	2.0737	71.8	-0.2723	0.	0.2723	1146.3311	0.138055	-455.163349	-455.155462	-455.154518	-455.196449	29.578	
N	-0.0072498316	 1.2590165915	 0.4902043868	-0.471145
C	-0.024089374	 0.074923797	 0.0507346695	 0.354999
C	-1.3276680851	-0.6342819734	-0.2262283045	-0.257707
C	-1.4192770002	-1.4404550551	-1.5393844905	-0.318669
C	-0.6574968844	-2.7398944493	-1.4942750814	 0.397112
N	-1.2353418666	-3.8515758026	-1.6582240197	-0.49688
O	 0.6871835553	-2.6814812757	-1.2085746522	-0.234463
C	 1.3518390954	-1.4402240653	-1.2204869267	 0.002066
O	 1.1439817316	-0.6530973986	-0.0692951153	-0.242415
H	 0.9561157309	 1.5534091679	 0.6653193	 0.225161
H	-1.5221218463	-1.3145066163	 0.6129044187	 0.14384
H	-2.1042044462	 0.1313944241	-0.2074808219	 0.143489
H	-2.4596131768	-1.7086467535	-1.7240912686	 0.148456
H	-1.0939106265	-0.8255817186	-2.3873555007	 0.127181
H	-0.5612037616	-4.61584076	-1.5769989207	 0.224671
H	 2.4142310019	-1.6837299348	-1.2156944201	 0.139989
H	 1.1010989943	-0.8706386873	-2.1231018928	 0.114315
57.0998	92.1962	178.1949	295.0693	347.7574	371.9295	421.7974	466.6596	526.9361	581.9818	689.0351	722.6715	745.0627	801.1131	912.8942	927.1148	941.3836	954.7771	1028.5898	1040.6512	1068.8603	1090.5724	1128.4725	1191.5741	1194.1466	1234.2047	1304.4148	1322.9854	1335.442	1367.6361	1377.7998	1457.608	1471.5794	1479.4853	1516.7102	1752.398	1760.147	3029.4878	3036.8663	3048.2949	3127.3088	3134.129	3138.7358	3462.8806	3464.3348
N=C1CCC(=N)OCO1	[NH][C]1CC[C]([NH])OCO1	
InChI=1S/C5H8N2O2/c6-4-1-2-5(7)9-3-8-4/h6-7H,1-3H2	InChI=1S/C5H8N2O2/c6-4-1-2-5(7)9-3-8-4/h6-7H,1-3H2
