16
gdb 91531	2.63153	1.55911	1.14972	5.7264	65.25	-0.2557	-0.0067	0.249	1054.7622	0.124598	-475.007904	-474.999867	-474.998922	-475.040743	30.221	
N	 0.3185558652	 0.8395470051	 0.1760992919	-0.536909
H	 0.5246009782	-0.1410242389	 0.3429797078	 0.250894
H	 1.5779003595	 2.0246345206	 1.5206885545	 0.314489
H	 0.0431879446	 0.9437571864	-0.7942669856	 0.244023
C	-0.7039636513	 1.2910247603	 1.098366829	-0.068244
C	-2.0216901041	 0.4877227875	 1.482586455	-0.280847
C	-1.4995541456	 0.4450101321	 2.9261844728	-0.068727
O	-0.2514284342	-0.2522305297	 2.8582233233	-0.283738
C	-0.2663579131	 1.1579602642	 2.5553455409	 0.316076
C	 0.7474504322	 2.0151741127	 3.249526437	 0.343224
O	 1.7128434387	 2.4300304359	 2.3999485711	-0.380011
O	 0.7332594595	 2.3155626798	 4.4088286416	-0.323969
H	-0.9598612783	 2.3276135902	 0.8604647161	 0.108139
H	-2.9295655944	 1.0775666766	 1.3409208698	 0.116344
H	-2.1391560849	-0.4974462764	 1.0260324566	 0.115745
H	-2.030839142	 0.4313058034	 3.8692444882	 0.133511
81.9225	131.0499	170.9473	197.6122	311.5225	378.9203	414.2559	450.988	481.5863	655.892	701.2455	726.3354	739.7201	775.7244	817.9026	857.9341	903.2932	936.8338	945.5102	993.252	1037.6833	1094.1411	1127.5777	1145.6594	1191.1069	1204.451	1246.4694	1266.9791	1284.3095	1388.1877	1418.6659	1452.0005	1478.9945	1648.8443	1881.0272	3071.3612	3077.104	3134.8823	3212.0356	3503.833	3565.6978	3588.7467
[NH3+]C1CC2OC12C([O-])=O	N[C@H]1C[C@H]2O[C@@]12C(=O)O	
InChI=1S/C5H7NO3/c6-2-1-3-5(2,9-3)4(7)8/h2-3H,1,6H2,(H,7,8)	InChI=1S/C5H7NO3/c6-2-1-3-5(2,9-3)4(7)8/h2-3H,1,6H2,(H,7,8)/t2-,3+,5-/m0/s1
