17
gdb 67250	3.05833	1.58798	1.30866	1.3392	72.05	-0.2291	0.0699	0.299	1007.0545	0.134966	-421.727811	-421.720374	-421.71943	-421.759518	29.272	
C	-0.0652539608	 1.5631436106	-0.0271318363	-0.531198
C	 0.0069902986	 0.0733936759	 0.0146760569	 0.298364
C	 0.0796504308	-1.0225569431	-0.9856339567	 0.038614
O	 1.208385962	-1.6874586197	-0.4094170956	-0.291812
C	 0.8830171156	-0.9796045587	 0.8201745802	-0.115799
C	-0.4287818556	-1.6387143828	 1.2667137069	 0.533763
C	-0.7078082997	-2.780554237	 2.1260323029	-0.282961
O	-0.9469207114	-1.4214781237	 2.5650724992	-0.291007
C	-1.0688826997	-1.0332417193	 0.0443047314	-0.297329
H	 0.9011525989	 2.0024486244	-0.2977499954	 0.130898
H	-0.8012706086	 1.889836869	-0.7693263709	 0.128287
H	-0.3670755309	 1.9744620481	 0.9419807026	 0.13645
H	-0.0597779931	-1.0505087851	-2.0589845533	 0.112246
H	 1.725248416	-0.8120357284	 1.4883633361	 0.094386
H	-1.6057268908	-3.3750998729	 1.9649069846	 0.117811
H	 0.106103401	-3.2953787903	 2.6343378463	 0.118984
H	-2.1156977222	-0.9683723569	-0.2220605189	 0.100304
114.0811	198.7077	225.9162	263.0624	314.7172	335.8673	486.4228	547.1855	597.5638	643.7676	759.0249	795.5227	844.8411	872.1632	891.0705	902.0519	908.9054	954.0259	983.9136	1016.6968	1027.8435	1080.7432	1108.3072	1113.8681	1134.4601	1143.2788	1173.7005	1186.6851	1198.2995	1234.498	1286.7566	1412.0223	1458.0257	1464.5059	1484.2172	1496.7777	1547.481	3028.1689	3085.2038	3093.0443	3098.6205	3150.1102	3172.1739	3198.6625	3210.2965
CC12C3OC1C1(CO1)C23	C[C@@]12[C@H]3O[C@@H]1[C@]1(CO1)[C@@H]23	
InChI=1S/C7H8O2/c1-6-3-4(6)9-5(6)7(3)2-8-7/h3-5H,2H2,1H3	InChI=1S/C7H8O2/c1-6-3-4(6)9-5(6)7(3)2-8-7/h3-5H,2H2,1H3/t3-,4+,5+,6-,7+/m1/s1
