19
gdb 13596	4.40144	1.19956	1.117	1.5632	73.95	-0.2263	-0.0219	0.2044	1160.2326	0.163556	-365.054161	-365.045075	-365.04413	-365.088267	32.439	
C	 0.4646501061	 1.5986007885	 0.2370853963	-0.379644
C	 0.9235835497	 0.1711197415	-0.0437921219	-0.287904
C	 0.1826375095	-0.4945294035	-1.1943301313	 0.38382
O	-0.6645247796	 0.0914060722	-1.8389410243	-0.328326
C	 0.5782955473	-1.9143782308	-1.4774880165	-0.100632
C	-0.423018737	-2.8138549888	-2.1454835492	-0.234404
N	 0.7707285496	-2.4240824054	-2.8515223491	-0.081834
C	 0.6429271505	-1.5268586066	-3.9981231917	-0.325852
H	 0.6044363188	 2.2323357525	-0.6422183657	 0.132443
H	-0.5989942283	 1.6241903322	 0.4877311014	 0.131284
H	 1.0276158216	 2.0296476713	 1.0695123108	 0.110228
H	 1.997712987	 0.1335750166	-0.2759844832	 0.127506
H	 0.8076650296	-0.4693972555	 0.8424108728	 0.124126
H	 1.2783091307	-2.3453851961	-0.7653746834	 0.090122
H	-0.4850342863	-3.8545032398	-1.8366437201	 0.118073
H	-1.3635015534	-2.3401848765	-2.4218693587	 0.132203
H	-0.1482454272	-0.776182573	-3.8973692791	 0.146199
H	 1.5982583857	-1.0160703581	-4.1548785226	 0.119346
H	 0.4434438457	-2.1460165007	-4.8782201146	 0.123247
50.8069	81.3504	176.5795	180.9854	195.6901	247.6754	287.6325	348.191	400.0127	410.2183	573.0331	660.3192	729.5451	785.8795	829.7297	873.6366	976.1981	1017.434	1020.5257	1045.2544	1080.7996	1099.8157	1121.3163	1129.4945	1150.5033	1172.5954	1216.0703	1275.7107	1332.2627	1355.8018	1403.8856	1414.0536	1443.7411	1449.3748	1485.9274	1492.2446	1495.0078	1497.5563	1510.9546	1780.2208	3011.3958	3027.2187	3036.784	3051.8187	3093.9897	3100.6446	3104.4068	3123.0075	3127.214	3131.5971	3186.5224
CCC(=O)C1CN1C	CCC(=O)[C@H]1CN1C	
InChI=1S/C6H11NO/c1-3-6(8)5-4-7(5)2/h5H,3-4H2,1-2H3	InChI=1S/C6H11NO/c1-3-6(8)5-4-7(5)2/h5H,3-4H2,1-2H3/t5-,7?/m1/s1
