20
gdb 36877	4.55156	0.92215	0.89861	2.6759	79.41	-0.234	0.0804	0.3144	1362.695	0.171158	-403.032875	-403.024883	-403.023939	-403.066394	30.787	
C	 0.6148150274	 1.596514145	 0.8612033708	-0.212134
C	 0.4103106107	 0.1008290963	 0.6790854914	 0.058036
C	-0.5708677721	-0.7407364867	 1.543633069	 0.022176
C	-1.7889634275	-0.1453589556	 0.7966036848	-0.231182
C	-0.6920813177	-0.5246370339	-0.2274155172	 0.040938
O	-0.5042319553	-1.7986039377	 0.5073762182	-0.308299
N	 1.3872345595	 2.1342944869	-0.2566035333	-0.05801
C	 0.6183173186	 2.6471213722	-1.3866140542	-0.218496
C	 1.316815764	 3.5763141161	-0.4558584639	-0.219764
H	-0.3413514316	 2.1312940048	 0.9927385478	 0.080503
H	 1.1984672542	 1.7623971962	 1.7758908454	 0.108205
H	 1.3690224699	-0.4047416721	 0.5443272498	 0.094642
H	-0.4814060587	-1.0534168044	 2.584920276	 0.091946
H	-2.667524773	-0.7909507295	 0.7774501695	 0.109461
H	-2.0437256314	 0.9058849644	 0.9442004234	 0.09468
H	-0.7471254522	-0.580069123	-1.3148736062	 0.093634
H	 1.0250456026	 2.4394523461	-2.3721205546	 0.118906
H	-0.4687259653	 2.61101178	-1.3247837204	 0.107939
H	 0.6946102598	 4.1567111717	 0.2241610734	 0.108071
H	 2.2445931781	 4.0597457333	-0.7480961098	 0.118748
53.2658	71.5358	139.5837	285.3081	333.8437	343.8211	416.8603	552.8424	633.6978	726.6521	765.4633	791.4521	836.7032	840.7701	880.2942	888.7759	921.8949	941.0751	999.5693	1011.1552	1023.1457	1042.4215	1074.8223	1102.5876	1105.3984	1117.3532	1121.6442	1159.4638	1170.1024	1172.5025	1186.991	1202.3573	1219.5924	1258.8114	1273.4815	1290.834	1320.4853	1355.0865	1417.1357	1482.2047	1489.5749	1499.8151	1520.808	2952.4747	3038.0809	3072.1149	3090.4018	3095.5736	3097.5437	3108.9866	3118.7459	3149.0879	3175.5924	3189.7719
C(C1C2CC1O2)N1CC1	C([C@H]1[C@H]2C[C@@H]1O2)N1CC1	
InChI=1S/C7H11NO/c1-2-8(1)4-5-6-3-7(5)9-6/h5-7H,1-4H2	InChI=1S/C7H11NO/c1-2-8(1)4-5-6-3-7(5)9-6/h5-7H,1-4H2/t5-,6+,7-
