21
gdb 86428	2.3865	1.56233	1.12292	0.7258	76.72	-0.2502	0.067	0.3172	1135.6385	0.184003	-424.221162	-424.212658	-424.211714	-424.253994	33.679	
O	-0.0269939105	 1.4074454584	-0.1447586607	-0.436594
C	 0.0299551417	 0.0097268931	 0.0911363047	 0.121983
C	 0.4872011293	-0.3968539406	 1.5032524817	-0.299974
C	-0.0578085517	-1.8296110182	 1.6550544424	 0.131074
O	-0.0430097875	-2.3515546062	 2.9689278736	-0.437213
C	-1.4427859443	-1.7791736053	 0.9756623071	-0.032751
C	-2.5576544535	-1.0178006632	 1.753922481	-0.239092
C	-2.5057840634	 0.1347125683	 0.7122874501	-0.217066
C	-1.3745702693	-0.6037797993	-0.0582266433	-0.023721
H	 0.8606997552	 1.7641052393	-0.042447414	 0.282543
H	 0.6963891298	-0.4677112316	-0.6458606344	 0.065323
H	 1.5698399403	-0.3389654287	 1.6495387249	 0.093688
H	 0.0158775832	 0.2672214615	 2.2397661343	 0.098123
H	 0.5819124277	-2.5135180954	 1.0841626927	 0.088043
H	-0.6243198692	-1.8058118123	 3.5095757756	 0.277379
H	-1.7482521392	-2.7592315744	 0.6056542221	 0.066377
H	-3.5096441907	-1.550500885	 1.8028789864	 0.103928
H	-2.298969482	-0.7224858264	 2.777473154	 0.07722
H	-3.4250961461	 0.2532320547	 0.1350238734	 0.099314
H	-2.2184045324	 1.1148936939	 1.0968186255	 0.115485
H	-1.6065865773	-0.8316813126	-1.0997304371	 0.065934
92.9922	149.3334	230.9188	238.8503	261.774	282.2267	342.6593	435.1746	488.9331	516.0304	570.0009	581.4155	746.9855	756.0381	813.5279	830.2572	904.75	921.2072	948.5555	976.105	989.2006	1017.5289	1071.0068	1091.798	1104.5925	1107.9563	1131.3431	1175.9347	1204.0802	1227.0809	1229.1629	1240.78	1260.3533	1265.3101	1275.8959	1307.8208	1324.6905	1341.7476	1348.3483	1378.1885	1422.0223	1433.0694	1482.2817	1490.6235	1508.1502	2957.7936	3027.6558	3032.3821	3038.0026	3072.6614	3083.0728	3089.6789	3093.5595	3102.5987	3128.6875	3803.2266	3821.7412
OC1CC(O)C2CCC12	O[C@H]1C[C@@H](O)[C@H]2CC[C@@H]12	
InChI=1S/C7H12O2/c8-6-3-7(9)5-2-1-4(5)6/h4-9H,1-3H2	InChI=1S/C7H12O2/c8-6-3-7(9)5-2-1-4(5)6/h4-9H,1-3H2/t4-,5+,6+,7-
