16
gdb 48739	4.33966	1.26608	1.17184	2.976	69.68	-0.2443	-0.0473	0.1971	1046.2775	0.1241	-437.804208	-437.79696	-437.796015	-437.836023	27.685	
O	-0.0210245915	 0.0003025219	-0.4047897064	-0.255161
C	 0.0933701193	 1.0282413163	 0.2171262255	 0.064829
C	 1.2232027236	 1.9708751578	 0.0627057765	 0.224976
C	 2.0483668787	 2.0125937469	-1.1721701738	-0.273965
N	 2.7024516739	 1.469172639	 0.0089609372	-0.165119
C	 3.0626828695	 2.5989981113	 0.9640147592	-0.021695
C	 3.3833491118	 4.0009621014	 0.422936891	-0.108045
O	 1.9720713931	 4.3580950154	 0.4211357675	-0.295175
C	 1.6200302353	 3.0956161878	 1.0302239641	 0.020597
H	-0.6726926	 1.3465671486	 0.9599464874	 0.077107
H	 1.8173140506	 1.2392837083	-1.8978230381	 0.154517
H	 2.318141239	 2.9814246619	-1.5787816051	 0.143658
H	 3.6277895917	 2.2113353883	 1.8082048628	 0.106367
H	 3.9464477648	 4.620423937	 1.1310360278	 0.116415
H	 3.8428368723	 4.0775317134	-0.5684408892	 0.117903
H	 1.0256549379	 3.1984296047	 1.9409767037	 0.09279
102.8838	166.0006	193.7781	262.7652	361.0832	374.3047	492.3399	593.5451	648.3862	715.6692	747.0669	818.3563	873.6243	879.067	944.5367	955.5547	971.12	987.819	1033.3274	1047.9657	1081.2636	1136.4932	1155.9134	1161.5276	1185.247	1230.607	1236.5562	1289.6502	1301.7228	1345.8183	1364.2219	1429.5466	1489.4558	1518.7686	1806.3746	2875.3894	3027.0703	3075.5098	3088.801	3133.1299	3144.6593	3226.6529
O=CC12CN1C1COC21	O=C[C@]12CN1[C@H]1CO[C@@H]21	
InChI=1S/C6H7NO2/c8-3-6-2-7(6)4-1-9-5(4)6/h3-5H,1-2H2	InChI=1S/C6H7NO2/c8-3-6-2-7(6)4-1-9-5(4)6/h3-5H,1-2H2/t4-,5+,6-,7?/m0/s1
