17
gdb 99232	3.87717	0.8636	0.85566	1.861	66.41	-0.2479	0.03	0.2779	1422.888	0.134964	-492.354013	-492.343862	-492.342918	-492.391242	34.607	
C	-0.2083149591	 1.1767998054	-0.4383388885	-0.331663
N	 0.0422599107	-0.2250855925	-0.1604043394	-0.316978
C	 0.9654299277	-0.9508568473	-0.8495975333	 0.413942
O	 1.6911946247	-0.4953861833	-1.7105553959	-0.369082
C	 1.061070441	-2.4158684798	-0.392832284	-0.185262
O	 1.7499953317	-3.2014314974	-1.3472772552	-0.237637
C	 1.0335236135	-3.4576576082	-2.4775473838	 0.510997
N	 1.81588941	-4.1199872776	-3.3785022785	-0.562564
O	-0.1344427168	-3.1827087358	-2.6195791964	-0.403156
H	 0.583153799	 1.5225734585	-1.1038309626	 0.171696
H	-1.1745120856	 1.3242365893	-0.9345223894	 0.131205
H	-0.1912719378	 1.7671240715	 0.4835093559	 0.124873
H	-0.5981351214	-0.7140255352	 0.44376075	 0.247579
H	 1.6594008415	-2.4713127918	 0.5208873528	 0.13645
H	 0.0652750081	-2.8278248773	-0.2026135487	 0.130262
H	 2.8145116279	-4.0422241901	-3.2775414116	 0.26929
H	 1.450267565	-4.1660708183	-4.3146167914	 0.27005
20.1369	67.2301	73.7159	81.037	147.3216	232.5142	299.4994	340.057	382.0205	432.8872	445.0021	483.6523	531.7598	597.9132	675.4574	721.888	791.2654	885.3977	901.417	1018.8646	1062.5655	1120.1616	1153.8487	1158.0568	1172.8634	1240.4922	1303.0821	1359.4035	1407.5487	1440.9635	1462.6013	1493.9457	1500.3998	1566.6074	1615.3247	1799.906	1838.5046	3029.8624	3054.7891	3084.7941	3110.3608	3156.6298	3608.0446	3639.1497	3733.4224
CNC(=O)COC(N)=O	CNC(=O)COC(=O)N	
InChI=1S/C4H8N2O3/c1-6-3(7)2-9-4(5)8/h2H2,1H3,(H2,5,8)(H,6,7)	InChI=1S/C4H8N2O3/c1-6-3(7)2-9-4(5)8/h2H2,1H3,(H2,5,8)(H,6,7)
