17
gdb 33784	3.63462	1.4099	1.22231	1.5894	74.06	-0.2493	0.0333	0.2827	1030.0949	0.13622	-421.762501	-421.755125	-421.754181	-421.793976	29.873	
C	-0.0438483774	-1.1868000546	-0.0838547295	-0.348886
C	-0.040759395	 0.0141956367	-0.0480626608	 0.186419
C	 0.010436737	 1.4577236605	 0.0387440083	 0.248908
C	-0.2119785576	 2.1772425252	 1.41154218	-0.310285
C	 0.6435185298	 3.3131025822	 0.785914789	 0.089319
C	 1.3754312785	 2.2164490182	-0.0335893526	-0.254792
O	-0.1316357169	 4.1083707419	-0.1112696476	-0.273193
C	-1.1937304841	 3.3656455666	-0.6702535219	 0.017822
O	-0.8421091486	 2.029241766	-0.9688911235	-0.313138
H	-0.0546654129	-2.248028469	-0.1240671095	 0.189378
H	-1.2302245502	 2.3770618622	 1.7471759855	 0.117931
H	 0.3383182564	 1.6609811293	 2.1989542862	 0.122051
H	 1.2053261492	 3.9956685242	 1.4233692117	 0.088209
H	 2.159845512	 1.7124528311	 0.5349880418	 0.109324
H	 1.7172544655	 2.487226567	-1.0329696938	 0.114534
H	-2.0572076913	 3.3785776299	 0.0128084385	 0.092561
H	-1.4713919346	 3.8432398426	-1.6131002818	 0.123838
140.3052	149.9849	295.9401	314.5741	414.1069	443.4766	463.1206	525.1627	541.6509	582.2099	626.8481	660.9305	672.3527	829.5065	851.5075	867.2617	907.8658	918.1369	962.2092	1010.5916	1016.1476	1071.3803	1085.3633	1135.626	1182.3669	1184.4148	1199.2321	1238.3978	1250.6744	1264.0566	1295.4183	1363.3068	1439.5028	1459.041	1491.6254	1541.6941	2244.0334	2973.4616	3075.6166	3089.8341	3097.6582	3116.6421	3147.8078	3150.6675	3502.0906
C#CC12CC(C1)OCO2	C#C[C@@]12C[C@@H](C1)OCO2	
InChI=1S/C7H8O2/c1-2-7-3-6(4-7)8-5-9-7/h1,6H,3-5H2	InChI=1S/C7H8O2/c1-2-7-3-6(4-7)8-5-9-7/h1,6H,3-5H2/t6-,7+
