20
gdb 6774	5.79033	0.77627	0.71786	2.9148	72.92	-0.2427	-0.0103	0.2324	1609.1001	0.173343	-386.155547	-386.145264	-386.14432	-386.192925	34.658	
C	-0.015972975	 1.3057736621	-0.1323131902	-0.382503
C	-0.2761194267	-0.2025738266	-0.1835394919	-0.183603
C	-1.7667429553	-0.5188898397	-0.3239150989	-0.044098
O	-2.050033494	-1.8983285906	-0.4924028776	-0.247384
C	-1.9541863135	-2.6722641009	 0.6774334741	-0.163704
C	-2.5038191337	-4.0832057473	 0.4524609608	 0.350764
C	-3.178027522	-4.3672502114	-0.8696644664	-0.465113
O	-2.3902626871	-4.9048936143	 1.3314371318	-0.297276
H	 1.0520793393	 1.5190876123	-0.0337405056	 0.120813
H	-0.3715983019	 1.8014472287	-1.0424018493	 0.118653
H	-0.5266402429	 1.770532531	 0.7183963757	 0.118512
H	 0.2535526374	-0.6520761216	-1.0316306345	 0.10822
H	 0.122447338	-0.6739917115	 0.7225542212	 0.103161
H	-2.3219247989	-0.1236109559	 0.543476267	 0.087862
H	-2.164681706	-0.0281457915	-1.2192889948	 0.106994
H	-0.9197300617	-2.7758469538	 1.0367145772	 0.123494
H	-2.5338848279	-2.2228617376	 1.5024340245	 0.11643
H	-2.4776467076	-4.1883689209	-1.6916397236	 0.149902
H	-3.5325438179	-5.3982319124	-0.8844676424	 0.13398
H	-4.0094444525	-3.6720866782	-1.0254067073	 0.144894
20.3492	49.5226	75.6245	97.0286	145.8551	194.8621	232.8664	269.1164	304.5846	424.7751	483.174	510.1918	557.365	756.6729	790.0879	863.6191	890.4688	895.486	978.6301	1022.0486	1041.7926	1093.2603	1122.1822	1149.9994	1204.0307	1236.5335	1247.7112	1290.231	1328.5353	1337.4588	1379.1377	1383.0948	1410.3195	1424.0808	1452.7224	1463.3365	1478.565	1486.9108	1497.6391	1501.5639	1513.1087	1818.7088	2962.3244	2967.4767	3013.7918	3031.7255	3034.6421	3046.8538	3056.0581	3074.4919	3100.363	3108.9851	3109.9334	3158.7035
CCCOCC(C)=O	CCCOCC(=O)C	
InChI=1S/C6H12O2/c1-3-4-8-5-6(2)7/h3-5H2,1-2H3	InChI=1S/C6H12O2/c1-3-4-8-5-6(2)7/h3-5H2,1-2H3
