20
gdb 39174	2.75021	2.12314	1.54213	2.3075	84.59	-0.2002	0.0408	0.241	922.2428	0.173141	-365.808884	-365.802343	-365.801399	-365.839138	29.036	
C	-0.0997556668	 1.6211437362	 0.2565254875	-0.282387
C	 1.4941544466	 1.7120571623	-0.0743746488	-0.173345
C	 2.0046565702	 2.3377374619	-1.4302717281	-0.21617
C	 1.8631035138	 1.2043052852	-2.5502809235	-0.306445
C	 0.6954356755	 0.5031710754	-1.8622477009	 0.109913
N	 0.0423651987	-0.8602820063	-1.4752678446	-0.246182
C	 1.4320742577	-1.225172092	-0.8963828445	-0.277095
C	 1.2816354208	 0.2505453771	-0.4634919041	 0.327367
C	-0.1066868996	 0.0312004085	-0.0380710928	-0.033242
H	-0.279337906	 1.7493178445	 1.3287812735	 0.112305
H	-0.7586073041	 2.3009130044	-0.2863660292	 0.118978
H	 2.0778366875	 2.0351158111	 0.7911532383	 0.068625
H	 1.4199610738	 3.2205989002	-1.7094009706	 0.106862
H	 3.045312146	 2.662428488	-1.3354470685	 0.106158
H	 1.6536067216	 1.6255641707	-3.5363139639	 0.100803
H	 2.7807203091	 0.6122453764	-2.6090298349	 0.105505
H	-0.1325864403	 1.2071258704	-1.9384266226	 0.089016
H	 1.4014357831	-1.9746571839	-0.1011218528	 0.103047
H	 2.1393613992	-1.5045500946	-1.6821527747	 0.107794
H	-0.4097949869	-0.6274782856	 0.7777689052	 0.078494
234.6348	304.8771	345.1633	386.0428	434.899	491.5866	564.165	590.2348	642.3683	722.4888	770.9137	800.2656	812.537	829.8581	851.1461	860.1752	903.603	936.6867	950.2039	967.0427	998.9665	1040.5636	1070.7934	1087.9278	1100.9346	1120.9884	1142.4653	1146.8734	1179.6573	1195.2797	1205.1839	1236.2297	1250.96	1268.2629	1280.0418	1285.7863	1306.3569	1333.1727	1458.4676	1472.775	1478.4259	1495.7022	1519.6071	3046.6921	3051.5889	3054.5919	3061.0328	3073.9843	3086.5869	3091.9254	3095.9242	3116.098	3120.4456	3127.1216
C1C2CCC3N4CC23C14	C1[C@@H]2CC[C@H]3N4C[C@@]23[C@@H]14	
InChI=1S/C8H11N/c1-2-6-8-4-9(6)7(8)3-5(1)8/h5-7H,1-4H2	InChI=1S/C8H11N/c1-2-6-8-4-9(6)7(8)3-5(1)8/h5-7H,1-4H2/t5-,6+,7+,8+/m0/s1
