17
gdb 16470	3.19169	2.81924	1.84575	2.0371	67.42	-0.228	0.0689	0.2969	749.4163	0.144173	-363.801905	-363.795616	-363.794672	-363.831803	26.041	
O	-0.0534099797	 1.3907925412	 0.0756358808	-0.486581
C	 0.0175989422	 0.0001502279	 0.0341231241	 0.437929
C	 0.9547119265	-0.7242602734	 0.9990709271	-0.323418
C	 0.5725716522	-2.1675849466	 0.6016105549	-0.162314
N	-0.4587342641	-1.9888126135	-0.4599472516	-0.130341
C	-1.316103738	-0.7993090733	-0.0358644084	-0.058097
C	-1.4766410402	-0.4330051261	-1.523653853	-0.240511
C	-0.0004803944	-0.815434905	-1.3158591157	-0.090984
H	 0.8417314843	 1.7445827409	 0.0484220241	 0.284249
H	 2.0075965874	-0.4829725533	 0.8121537273	 0.090791
H	 0.7324454169	-0.4781399085	 2.0417262138	 0.106918
H	 1.4083752512	-2.7426658361	 0.193175827	 0.105182
H	 0.1405934753	-2.7409037469	 1.4265135599	 0.107357
H	-2.0795413497	-0.8961084711	 0.7392665652	 0.075683
H	-2.0677663993	-1.1263628169	-2.1227048562	 0.102887
H	-1.6824137991	 0.6137376745	-1.7449286958	 0.111151
H	 0.7955252485	-0.9324530537	-2.0555782837	 0.070099
221.2528	263.0584	332.7487	339.1091	408.0927	459.4283	630.0784	700.5754	720.7978	735.1331	825.8439	855.9624	863.4741	907.1928	924.0061	970.2155	995.8641	1026.424	1036.0243	1091.1876	1113.9328	1121.3452	1143.0077	1159.3994	1204.5323	1210.942	1220.51	1241.2662	1257.3277	1282.4043	1296.0563	1334.7477	1384.046	1489.2664	1491.1881	1509.9789	3035.6982	3058.7716	3078.4662	3081.2436	3085.4178	3098.5003	3106.0136	3163.944	3810.1583
OC12CCN3C1CC23	O[C@@]12CCN3[C@@H]1C[C@@H]23	
InChI=1S/C6H9NO/c8-6-1-2-7-4(6)3-5(6)7/h4-5,8H,1-3H2	InChI=1S/C6H9NO/c8-6-1-2-7-4(6)3-5(6)7/h4-5,8H,1-3H2/t4-,5+,6+
