19
gdb 26104	3.18501	1.17964	1.04619	0.7445	76.68	-0.2249	0.0162	0.2412	1210.4979	0.158115	-423.058155	-423.049133	-423.048189	-423.091904	34.471	
C	 0.0399453487	 1.57362858	 0.1026947284	-0.424788
C	 0.0012225142	 0.0423444435	-0.003910274	 0.231344
C	 0.6114183653	-0.5999044691	 1.2489947765	-0.388742
O	-1.3623057164	-0.4085911429	-0.0158489684	-0.456211
C	 0.6990404179	-0.4510291865	-1.2511581332	 0.228849
C	 1.5466161345	 0.2148940276	-2.0828050161	-0.123491
O	 1.9614894883	-0.5867141605	-3.1008082952	-0.151411
C	 1.360268353	-1.7926417521	-2.9187805415	 0.004969
C	 0.5798042935	-1.7734390747	-1.810471925	-0.292533
H	 1.06570508	 1.9446841159	 0.1952047331	 0.115905
H	-0.4103979741	 2.0378725138	-0.7810641366	 0.107981
H	-0.5227384231	 1.8921253343	 0.9840028739	 0.122436
H	 0.0534897262	-0.2852434736	 2.1358911973	 0.118708
H	 0.5627774762	-1.6893253548	 1.1793805527	 0.123108
H	 1.6577804418	-0.3050826242	 1.3628604485	 0.115716
H	-1.7609522305	-0.0989606095	-0.8366179599	 0.276216
H	 1.9430946787	 1.2162848297	-2.0912193901	 0.135319
H	 1.585984533	-2.5429893167	-3.658498555	 0.136226
H	-0.0255210971	-2.5790309902	-1.4265825256	 0.120399
45.9726	149.5002	187.0174	225.6456	273.825	312.5627	329.0276	352.5927	365.4377	455.6653	497.4904	602.1898	621.4772	689.0551	741.2839	793.5399	843.1668	855.7435	893.5588	930.8387	955.0038	974.9249	1015.0003	1047.8365	1095.9724	1122.1477	1174.1181	1187.4227	1211.0605	1266.4929	1306.198	1366.0596	1392.7399	1398.9493	1415.7755	1477.941	1482.4488	1499.2275	1505.4703	1538.617	1623.7024	3034.2776	3045.9772	3102.686	3118.2685	3123.7597	3129.6604	3260.3347	3278.4325	3286.1329	3802.4474
CC(C)(O)C1=COC=C1	CC(C)(O)c1cocc1	
InChI=1S/C7H10O2/c1-7(2,8)6-3-4-9-5-6/h3-5,8H,1-2H3	InChI=1S/C7H10O2/c1-7(2,8)6-3-4-9-5-6/h3-5,8H,1-2H3
