20
gdb 73127	2.38154	1.81664	1.55069	3.121	77.4	-0.2329	0.0715	0.3044	984.5249	0.172876	-403.117898	-403.110297	-403.109352	-403.14957	30.754	
C	 0.2100919083	 1.5080529609	-0.0333940967	-0.491024
C	-0.0522473275	 0.0105473835	-0.0036063476	 0.284762
C	-1.4043755086	-0.4756675904	 0.5746053351	-0.103542
O	-0.7438044453	-1.3383477889	 1.523652948	-0.292666
C	 0.5569307701	-0.8394064157	 1.1548358399	 0.092354
C	 1.5166230867	-1.8901116029	 0.5654711124	-0.238976
C	 1.3290211593	-1.8124007718	-0.9420518776	-0.034545
N	-0.0479196922	-2.0984690027	-1.3841910345	-0.329005
C	 0.4016070847	-0.6948087878	-1.2780817851	-0.113503
H	 1.2570588554	 1.7230198399	-0.2767988884	 0.117473
H	-0.4120733602	 2.0040150031	-0.7876977126	 0.118016
H	-0.0097871872	 1.9680953096	 0.9349249461	 0.120901
H	-1.9863587491	 0.3084789825	 1.077474561	 0.084223
H	-2.0441167475	-1.0397553869	-0.1099346235	 0.111202
H	 1.0093437803	-0.2822781414	 1.9860183574	 0.065815
H	 2.5531874291	-1.6446647737	 0.8229348822	 0.094956
H	 1.2905781166	-2.8817203194	 0.9689084403	 0.122427
H	 2.1505845974	-2.0861035819	-1.5974928676	 0.083762
H	-0.0384506803	-2.3814809301	-2.3609636315	 0.229913
H	 0.5137766198	-0.112974976	-2.1886829173	 0.077455
125.4317	209.5655	225.9345	256.6572	320.622	372.0329	396.9105	497.8235	577.3833	659.6381	706.1714	791.6486	836.2985	850.4689	874.1152	896.5506	911.1259	938.5414	967.1756	991.6915	1016.8143	1029.8118	1055.6142	1087.1215	1125.6424	1144.4704	1162.5444	1177.9332	1188.8175	1217.4049	1243.1159	1269.1545	1278.6634	1323.8979	1338.2142	1366.98	1394.3758	1413.0487	1427.7083	1464.4354	1494.0948	1495.7724	1508.6589	3004.1715	3011.4076	3024.1006	3046.2386	3084.8816	3086.4081	3097.0009	3101.2843	3143.5912	3155.6461	3499.1991
CC12COC1CC1NC21	C[C@]12CO[C@H]1C[C@H]1N[C@@H]21	
InChI=1S/C7H11NO/c1-7-3-9-5(7)2-4-6(7)8-4/h4-6,8H,2-3H2,1H3	InChI=1S/C7H11NO/c1-7-3-9-5(7)2-4-6(7)8-4/h4-6,8H,2-3H2,1H3/t4-,5+,6-,7+/m1/s1
