17
gdb 73115	2.69023	1.58331	1.28612	3.8515	67.86	-0.2623	0.009	0.2713	1022.0228	0.135869	-458.999307	-458.991561	-458.990617	-459.031735	29.456	
C	-0.1299121664	 1.5676279486	 0.0502933356	-0.463216
C	 0.0431781855	 0.06785568	 0.0246080063	 0.340281
C	-1.1511297379	-0.8572261068	 0.3289695073	-0.114353
O	-0.3643618981	-1.6200885741	 1.2727471437	-0.292009
C	 0.7476037288	-0.7036506882	 1.174275275	 0.064752
C	 1.9816096498	-1.3261963874	 0.5581305213	-0.382786
C	 1.7867240567	-1.144644312	-0.9477792005	 0.412511
O	 2.4402711952	-1.5976804474	-1.8380776838	-0.324154
O	 0.7166885865	-0.3234662503	-1.1791812112	-0.255317
H	 0.8411442213	 2.0691393972	-0.0015227902	 0.132565
H	-0.7275779336	 1.8989068202	-0.8042880624	 0.141763
H	-0.6356624241	 1.8791803892	 0.96854482	 0.127746
H	-2.0009091342	-0.3602598305	 0.8130339611	 0.104959
H	-1.5011668442	-1.4621452908	-0.5131084271	 0.1235
H	 0.9182611807	-0.1651631734	 2.1115416396	 0.084901
H	 2.907398594	-0.8224214619	 0.8545648384	 0.141108
H	 2.080904	-2.3861082623	 0.8002218171	 0.157749
94.9639	111.212	212.3884	254.2513	317.8912	374.6645	417.5828	501.9255	557.7335	596.0275	671.1213	698.4021	826.4418	857.2578	881.6794	910.8741	968.5493	984.2115	1012.0998	1023.6812	1061.2201	1126.3481	1144.3009	1171.8429	1199.2324	1211.261	1258.3742	1285.1486	1299.8681	1351.4755	1373.3785	1415.4196	1442.3016	1484.612	1492.027	1511.473	1890.0761	3023.5067	3042.557	3057.3869	3071.4457	3088.7625	3115.4738	3121.6052	3127.6196
CC12COC1CC(=O)O2	C[C@]12CO[C@H]1CC(=O)O2	
InChI=1S/C6H8O3/c1-6-3-8-4(6)2-5(7)9-6/h4H,2-3H2,1H3	InChI=1S/C6H8O3/c1-6-3-8-4(6)2-5(7)9-6/h4H,2-3H2,1H3/t4-,6-/m0/s1
