19
gdb 82850	3.00333	1.72816	1.69017	1.8741	72.43	-0.2449	0.0682	0.3131	902.2111	0.163304	-423.031693	-423.025139	-423.024194	-423.062227	28.011	
O	-0.0018968203	 1.4707109729	-0.0571317673	-0.427944
C	 0.0073341512	 0.0630082718	 0.031445937	 0.131336
C	 0.2500297844	-0.6247955517	 1.4028978488	-0.130107
C	-0.4890748802	 0.1157286241	 2.54108142	-0.215842
C	-1.939533916	-0.352584738	 2.2896065617	 0.059381
C	-2.3923148617	 0.1431717302	 0.8996220482	-0.21839
C	-1.3838838413	-0.5982531044	-0.010205513	-0.099343
C	-0.8501400323	-1.6780140166	 1.0047827724	 0.108899
O	-1.7712357771	-1.7626919555	 2.0708284066	-0.255273
H	 0.9028409506	 1.7867981943	 0.031585942	 0.28407
H	 0.6629010739	-0.3717720493	-0.7367160962	 0.063917
H	 1.260367875	-0.9501441315	 1.6540520405	 0.059472
H	-0.1467899507	-0.2289757317	 3.5200501065	 0.100224
H	-0.3701974013	 1.1999079161	 2.4793214381	 0.103677
H	-2.6419659236	-0.1913670574	 3.1073474977	 0.072667
H	-3.4124814534	-0.1936309105	 0.6987745495	 0.100558
H	-2.3424648616	 1.2271437381	 0.7836433037	 0.119381
H	-1.7862951798	-0.8953370893	-0.9783977738	 0.066318
H	-0.5602981358	-2.6645089415	 0.6512080278	 0.076999
190.2528	251.616	277.5854	385.0485	458.1001	538.4414	568.1469	609.3834	641.9709	764.3216	797.0865	826.1403	845.6559	869.5217	878.4695	915.6116	921.5963	981.6237	993.2245	1027.7662	1030.6811	1066.9881	1078.8549	1095.7262	1099.0333	1152.724	1182.0649	1191.1195	1222.0615	1243.3916	1255.9061	1272.77	1294.0494	1307.993	1315.656	1345.8452	1351.8461	1372.4743	1428.4307	1470.2543	1487.2636	2993.6592	3065.3202	3069.4084	3096.9594	3108.6981	3118.9759	3122.4977	3130.4109	3151.8859	3817.7827
OC1C2CC3CC1C2O3	O[C@H]1[C@H]2C[C@H]3C[C@@H]1[C@@H]2O3	
InChI=1S/C7H10O2/c8-6-4-1-3-2-5(6)7(4)9-3/h3-8H,1-2H2	InChI=1S/C7H10O2/c8-6-4-1-3-2-5(6)7(4)9-3/h3-8H,1-2H2/t3-,4+,5-,6-,7+
