20
gdb 87738	4.48029	0.86257	0.81556	4.4267	85.22	-0.2781	0.0308	0.3089	1455.0521	0.170799	-366.010782	-366.001812	-366.000867	-366.044817	33.787	
C	 0.0366116543	 1.4970585822	-0.1353430485	-0.407008
C	 0.0783799626	-0.0085733755	-0.0029133314	-0.049077
C	 1.3922069139	-0.754015311	-0.0990661561	-0.36279
C	 0.6670828447	-0.6799431623	 1.2105760632	 0.357957
C	 1.0962272352	 0.0110435909	 2.5123860842	-0.309797
C	 0.1015131043	-0.9285702239	 3.2749044726	-0.131786
C	 0.0119337459	-1.8246259774	 1.9933100245	-0.308787
C	 0.5599066524	-1.5474926788	 4.5058312561	 0.265774
N	 0.9420199479	-2.0478422885	 5.4760988191	-0.329323
H	 0.9294999772	 1.9610954372	 0.2962249789	 0.118001
H	-0.0105490692	 1.7957790522	-1.1880508236	 0.123617
H	-0.8375033981	 1.9232670887	 0.3702778495	 0.116715
H	-0.7795839386	-0.5205108456	-0.4348405928	 0.085627
H	 1.4170000441	-1.7067894081	-0.6188769081	 0.113873
H	 2.2978685478	-0.1639357964	-0.20899517	 0.11286
H	 2.1355206643	-0.1923031504	 2.7835601372	 0.124777
H	 0.9059783084	 1.0817328742	 2.612678126	 0.11631
H	-0.8473673181	-0.4202021689	 3.4631224521	 0.124358
H	-0.9930731054	-2.1349579465	 1.6977651827	 0.114246
H	 0.6497106064	-2.7091626021	 2.0738357743	 0.124451
45.7754	123.9573	184.6165	189.0912	220.8129	251.7106	341.0065	406.2233	446.0001	470.86	558.8809	567.0365	693.2333	777.0462	833.7549	859.5696	881.115	911.8553	926.609	967.2517	1018.6706	1036.7143	1052.376	1076.1423	1105.5783	1113.3934	1130.3936	1184.4281	1204.5546	1222.988	1241.8566	1245.6404	1253.9864	1335.327	1350.8789	1408.4904	1429.5788	1476.4876	1489.3319	1491.6632	1497.5983	1505.7323	2352.2082	3027.0292	3058.5014	3064.5705	3078.6354	3088.7152	3095.4772	3114.8529	3117.0152	3119.9134	3125.3996	3201.3634
CC1CC11CC(C1)C#N	C[C@H]1C[C@]21C[C@@H](C2)C#N	
InChI=1S/C8H11N/c1-6-2-8(6)3-7(4-8)5-9/h6-7H,2-4H2,1H3	InChI=1S/C8H11N/c1-6-2-8(6)3-7(4-8)5-9/h6-7H,2-4H2,1H3/t6-,7-,8-/m0/s1
