17
gdb 18891	4.43984	2.30657	1.98099	1.7055	69.53	-0.2226	0.0745	0.2972	737.733	0.144114	-326.671383	-326.665328	-326.664384	-326.701036	25.271	
C	-0.0134069073	 1.4631642492	 0.0597055648	-0.49949
C	-0.0313758435	-0.0426620892	 0.0119104179	 0.314669
C	-1.2553239327	-0.8255243311	-0.4373702155	-0.216454
N	-0.8103160737	-2.2180449224	-0.3202669343	-0.124573
C	 0.6355205843	-2.2796958249	-0.605144033	-0.064914
C	 0.1449392065	-2.3185747858	 0.7990068827	-0.064864
C	 0.6899053132	-0.8836578075	 1.0458111063	-0.132742
C	 1.1911070059	-0.8441087034	-0.387747879	-0.132725
H	 0.9531377861	 1.8403392805	 0.4073517782	 0.120588
H	-0.1999977767	 1.8923597988	-0.931114388	 0.121494
H	-0.7828545761	 1.8462774859	 0.7393535301	 0.12149
H	-2.1253617859	-0.6588032264	 0.2073806648	 0.102229
H	-1.537678399	-0.6123918036	-1.4743439828	 0.102227
H	 1.0239941837	-3.0485763646	-1.2605362802	 0.091096
H	 0.0543626857	-3.1254245338	 1.5148382195	 0.091106
H	 1.1451039595	-0.5001207032	 1.9479245985	 0.085425
H	 2.10234553	-0.4246049685	-0.7899622901	 0.085436
208.2264	250.9518	284.4931	422.2126	550.775	570.9434	727.6976	733.713	780.8586	794.5192	802.1676	844.8677	865.2009	893.24	914.3737	948.7762	959.6424	1002.5837	1024.6184	1025.3924	1043.4599	1076.236	1130.9575	1149.8209	1194.2106	1208.8239	1216.5991	1252.0966	1279.4041	1293.0935	1329.1628	1412.513	1419.9223	1493.824	1496.3078	1501.2644	3027.4672	3039.7199	3084.0833	3087.3537	3101.6653	3186.2397	3198.7826	3209.8033	3220.5892
CC12CN3C4C3C1C24	C[C@]12CN3[C@@H]4[C@H]3[C@H]1[C@H]24	
InChI=1S/C7H9N/c1-7-2-8-5-3(7)4(7)6(5)8/h3-6H,2H2,1H3	InChI=1S/C7H9N/c1-7-2-8-5-3(7)4(7)6(5)8/h3-6H,2H2,1H3/t3-,4+,5-,6+,7+,8?
