25
gdb 112697	2.85089	0.98944	0.79077	0.2803	96.53	-0.224	0.0328	0.2569	1585.9803	0.228435	-352.390271	-352.379918	-352.378974	-352.425466	39.073	
C	 0.0827429909	 1.6129660029	-0.1386029696	-0.385918
C	 0.0235017409	 0.0847946347	-0.0567425837	-0.17503
C	-1.399465002	-0.4824525605	 0.0770957408	-0.00646
C	-1.4538176475	-2.0301587254	 0.0243386678	-0.24153
C	-2.6025402902	-2.4584009046	 0.9698304828	-0.064125
C	-2.3466268955	-3.7908440958	 1.6836138771	-0.400855
C	-2.7469440121	-1.2479149313	 1.8831989318	 0.329358
C	-3.5869226226	-1.2834261545	 3.1224543385	-0.495968
C	-2.0976395983	-0.1920516837	 1.38763757	-0.182825
H	 1.1130122669	 1.9634699773	-0.2565467465	 0.109781
H	-0.4944379542	 1.9854669116	-0.9925238454	 0.11235
H	-0.3226659559	 2.0830081318	 0.7634470559	 0.11681
H	 0.4851937737	-0.3418077516	-0.9570830351	 0.090737
H	 0.6251550228	-0.2659318477	 0.7921609144	 0.091341
H	-1.9983052182	-0.0617601467	-0.7481753366	 0.06767
H	-1.5695704355	-2.4191151608	-0.9916736211	 0.089469
H	-0.5088031318	-2.4290344736	 0.4159640831	 0.092488
H	-3.5368358797	-2.5649800341	 0.394428737	 0.071532
H	-1.4458362941	-3.7345230231	 2.3055717178	 0.112696
H	-3.1846582929	-4.074903132	 2.3284228149	 0.111015
H	-2.2011575844	-4.5978846205	 0.9576858872	 0.112085
H	-3.2119650557	-2.0176803402	 3.8459218337	 0.125578
H	-3.6150467546	-0.3078475251	 3.6155100282	 0.119548
H	-4.6200595979	-1.5764237791	 2.8921581081	 0.121038
H	-2.1019620123	 0.7937975119	 1.8426001188	 0.079216
62.1118	106.3737	139.1403	176.8968	204.2572	234.0666	244.7872	252.4506	326.9703	343.0823	420.3965	451.0909	548.6998	588.7426	622.5403	761.4373	788.5656	852.686	870.4087	910.1004	924.584	959.2222	998.7933	1018.4576	1023.6979	1052.4326	1066.3474	1082.389	1121.6984	1131.8407	1158.5468	1193.1389	1236.9814	1273.579	1274.6841	1295.5046	1326.844	1335.2997	1353.9553	1373.5961	1380.1738	1405.8643	1412.5955	1413.5551	1478.2924	1484.5947	1486.9922	1491.0536	1498.5351	1500.1041	1502.0826	1506.9604	1717.0958	2955.2651	2963.0174	3011.533	3014.1991	3022.6653	3027.0961	3030.7822	3046.5445	3060.6965	3082.7122	3094.5008	3096.4234	3097.2684	3101.5906	3107.6822	3175.0593
CCC1CC(C)C(C)=C1	CC[C@H]1C[C@@H](C)C(=C1)C	
InChI=1S/C9H16/c1-4-9-5-7(2)8(3)6-9/h5,8-9H,4,6H2,1-3H3	InChI=1S/C9H16/c1-4-9-5-7(2)8(3)6-9/h5,8-9H,4,6H2,1-3H3/t8-,9-/m1/s1
