17
gdb 24281	3.89737	1.59234	1.23355	2.2083	78.54	-0.1949	0.0431	0.238	990.6844	0.140113	-380.876015	-380.869432	-380.868488	-380.906636	27.406	
C	 0.0362266977	 1.4746787568	 0.0071303128	-0.247585
C	 1.2773225478	 0.6633227238	 0.0227019375	-0.015863
C	 1.9821264009	 0.382607328	 1.3659577038	-0.393859
C	 0.9020240003	-0.3497131968	 2.115517985	 0.257463
C	 0.6084355912	-0.9273715449	 3.3250665916	-0.237241
N	-0.6554870092	-1.4666883831	 3.2109346845	-0.242052
C	-1.1760294324	-1.2480893515	 1.9483247647	-0.232369
C	-0.2144758709	-0.5510564346	 1.2646710979	 0.264314
N	-0.0608518464	-0.006261381	-0.0438137227	-0.19852
H	-0.273292759	 1.9577828078	 0.9306252606	 0.116489
H	-0.2656942807	 1.9823246764	-0.9046649183	 0.11291
H	 1.8711732829	 0.6013479622	-0.8837741743	 0.091701
H	 2.8741970243	-0.2336886422	 1.2004849201	 0.113371
H	 2.3193732859	 1.3049178368	 1.853294851	 0.113401
H	 1.1656785512	-1.0216880219	 4.2433233426	 0.117842
H	-1.126285343	-1.9735213915	 3.9390765003	 0.258923
H	-2.1581023107	-1.5968747741	 1.6768484628	 0.121074
165.2262	224.0904	340.0608	414.5221	435.3079	454.9632	618.4683	622.6575	671.1389	684.2293	719.8196	747.208	762.5966	785.1982	832.6996	914.1263	934.3652	963.9363	1058.496	1061.238	1072.6198	1086.2406	1111.2337	1152.6479	1174.7213	1181.6577	1221.6944	1261.8491	1294.6583	1328.5475	1372.3512	1419.6512	1462.1175	1488.8297	1498.4704	1565.1537	1641.8995	3025.1717	3053.9025	3104.5476	3157.2937	3195.2829	3257.7334	3274.0731	3689.829
C1C2CC3=CNC=C3N12	C1[C@H]2Cc3c[nH]cc3N12	
InChI=1S/C7H8N2/c1-5-2-8-3-7(5)9-4-6(1)9/h2-3,6,8H,1,4H2	InChI=1S/C7H8N2/c1-5-2-8-3-7(5)9-4-6(1)9/h2-3,6,8H,1,4H2/t6-,9?/m1/s1
