22
gdb 96451	2.11207	1.84584	1.25984	0.9035	81.84	-0.2203	0.084	0.3044	1095.828	0.196224	-404.317674	-404.309389	-404.308445	-404.349958	33.215	
C	-0.1822451102	 1.5592399303	-0.0260821764	-0.403857
C	-0.0182381035	 0.0337167562	 0.0078032555	-0.019056
C	 0.4691723576	-0.5135991219	-1.3499080482	-0.075633
O	 1.658363145	 0.0880003519	-1.8268698599	-0.243948
C	 2.8576305879	-0.3157363793	-1.189399609	-0.068759
C	 3.0372004746	 0.2616323402	 0.2139137245	-0.162359
N	 2.2863789697	-0.4941591064	 1.2142788247	-0.087382
C	 1.5110646186	 0.2397579198	 2.2078499628	-0.262761
C	 0.8219030029	-0.5503886724	 1.147714167	-0.006191
H	 0.7539256641	 2.0709735715	-0.2586781562	 0.132152
H	-0.9016511968	 1.8385109817	-0.8036177503	 0.113028
H	-0.5578626464	 1.9369906204	 0.9287558046	 0.114176
H	-1.0218448444	-0.3924720862	 0.1495062221	 0.076196
H	 0.5926722132	-1.6074163902	-1.2853255032	 0.087405
H	-0.285873487	-0.3066196804	-2.1167029441	 0.100188
H	 2.9228722449	-1.4146186451	-1.1428428686	 0.096915
H	 3.664623425	 0.0467426498	-1.8345652716	 0.104668
H	 4.0983279923	 0.1989096733	 0.4892537476	 0.102327
H	 2.778570043	 1.3314947893	 0.1837422025	 0.095305
H	 1.5645093262	-0.1269687323	 3.2305183959	 0.109802
H	 1.484179829	 1.3247313692	 2.1217744688	 0.109308
H	 0.4621492442	-1.5372961397	 1.4404863513	 0.088475
138.7362	192.3707	204.9302	237.4268	286.4705	312.4664	383.2257	401.3373	451.7315	471.0221	574.8528	677.286	699.2282	758.9473	832.4613	870.5451	913.829	960.4888	984.2108	998.3365	1003.0452	1046.8204	1055.5862	1090.0021	1116.4789	1128.7928	1151.8055	1161.9206	1181.4234	1185.5796	1248.0259	1299.1321	1316.6071	1327.7446	1359.3216	1378.2413	1380.3613	1394.5471	1399.0733	1412.8077	1433.8063	1480.7506	1483.3852	1492.2279	1501.0284	1502.3408	1517.527	2969.8329	2978.9306	2987.0508	3000.7328	3034.1395	3040.8438	3061.8675	3076.6553	3089.0822	3091.2792	3104.0876	3129.1537	3170.478
CC1COCCN2CC12	C[C@H]1COCCN2C[C@@H]12	
InChI=1S/C7H13NO/c1-6-5-9-3-2-8-4-7(6)8/h6-7H,2-5H2,1H3	InChI=1S/C7H13NO/c1-6-5-9-3-2-8-4-7(6)8/h6-7H,2-5H2,1H3/t6-,7-,8?/m0/s1
