21
gdb 120670	4.27092	0.72841	0.68165	3.0087	79.56	-0.2402	0.0707	0.311	1678.6199	0.181525	-424.178595	-424.169001	-424.168057	-424.213901	34.685	
O	-0.0472062999	 1.4382416219	 0.1269219081	-0.421174
C	-0.0125598117	 0.0271802671	 0.2748814922	-0.064518
C	-1.3064999681	-0.534058009	-0.3053937483	-0.201853
C	-1.3837437132	-2.0422212472	-0.2093526325	-0.071786
C	-1.8714488734	-2.711508925	 1.0619034504	-0.354742
C	-2.7068846823	-2.7454414664	-0.1803563318	 0.281056
C	-4.1046828636	-2.1800419709	-0.4183898426	-0.136163
O	-4.4668693302	-3.3481849663	-1.1881782644	-0.276839
C	-3.1684844884	-3.9504629445	-0.9933324945	-0.136695
H	 0.7666423501	 1.7996485346	 0.4894633198	 0.285901
H	 0.8503467828	-0.4094792649	-0.254723673	 0.083413
H	 0.0744238182	-0.2650643668	 1.3334524424	 0.088855
H	-2.1500369666	-0.0771456215	 0.2261999189	 0.104689
H	-1.3862663228	-0.2116835612	-1.3509476615	 0.109711
H	-0.593261974	-2.5705576767	-0.7408447978	 0.083335
H	-1.3923522836	-3.6305471076	 1.3853226956	 0.112129
H	-2.2025184701	-2.0714097823	 1.8754027067	 0.113281
H	-4.7350567533	-2.0652364374	 0.4734266286	 0.099776
H	-4.1608436136	-1.261346066	-1.0172615917	 0.103635
H	-2.6463528306	-4.1187450037	-1.9451385369	 0.098805
H	-3.2350109656	-4.9016268661	-0.4476690476	 0.099185
67.232	84.8888	98.543	119.2002	200.1124	258.5311	263.8067	305.822	368.3045	441.0974	481.3178	592.4454	791.5309	841.2432	863.5263	880.2094	891.4298	927.5667	979.2702	997.8356	1023.4375	1030.0029	1053.6531	1072.4688	1096.6959	1108.7034	1134.4237	1151.7899	1160.7696	1177.06	1214.857	1239.3733	1253.1254	1303.9684	1314.0308	1316.2932	1336.9332	1384.4952	1442.1136	1461.1833	1490.2491	1503.9463	1509.6946	1528.0135	1534.9389	2961.8147	2990.7445	2992.0683	3004.4234	3028.488	3035.5202	3040.9485	3068.7486	3114.3526	3115.5976	3199.7631	3831.8084
OCCC1CC11COC1	OCC[C@H]1CC21COC2	
InChI=1S/C7H12O2/c8-2-1-6-3-7(6)4-9-5-7/h6,8H,1-5H2	InChI=1S/C7H12O2/c8-2-1-6-3-7(6)4-9-5-7/h6,8H,1-5H2/t6-/m0/s1
