15
gdb 131061	6.47445	0.8071	0.725	6.3863	67.98	-0.2441	-0.009	0.2351	1452.6037	0.115163	-450.175363	-450.167289	-450.166345	-450.210308	27.873	
O	-0.1326958311	 0.0483040487	-0.2094476329	-0.331028
C	 0.0731924091	 1.0778804015	 0.4010140933	 0.156851
N	 1.2785977773	 1.684772877	 0.502220658	-0.281998
C	 2.463821099	 1.1435418731	-0.1333834073	-0.235276
C	 3.5590083443	 2.1673544693	-0.1101279296	 0.348696
N	 4.6536980028	 2.0663725095	-0.8462351614	-0.268326
N	 5.3446666431	 3.1732245853	-0.4811857412	-0.176601
C	 4.6542745657	 3.8806594473	 0.4299800058	 0.019729
N	 3.5137402503	 3.2718224038	 0.6934651952	-0.314949
H	-0.7181952847	 1.6339054271	 0.9420387637	 0.07442
H	 1.3910152605	 2.5375996656	 1.0298561536	 0.265996
H	 2.797405987	 0.2298984097	 0.378131599	 0.142325
H	 2.2353968962	 0.8500831552	-1.1623567763	 0.155685
H	 6.2408174467	 3.3647446449	-0.8987145056	 0.288854
H	 5.0073042739	 4.805095062	 0.8609947156	 0.155621
21.6581	43.6886	137.6435	230.2021	266.3691	293.7745	427.4414	555.4484	561.6209	681.9899	685.8169	723.2566	853.2439	854.8942	999.6142	1003.9112	1018.6087	1034.5341	1053.4681	1106.0801	1171.4574	1229.8386	1233.1879	1292.8253	1336.0057	1367.0041	1424.6462	1476.4982	1486.0566	1508.4303	1523.2784	1569.0393	1801.0699	2936.9794	3012.3726	3081.9832	3263.4782	3618.3924	3664.7096
O=CNCC1=NNC=N1	O=CNCc1n[nH]cn1	
InChI=1S/C4H6N4O/c9-3-5-1-4-6-2-7-8-4/h2-3H,1H2,(H,5,9)(H,6,7,8)	InChI=1S/C4H6N4O/c9-3-5-1-4-6-2-7-8-4/h2-3H,1H2,(H,5,9)(H,6,7,8)
