18
gdb 23144	2.08746	1.12604	0.77989	1.1775	88.48	-0.2207	-0.018	0.2027	1483.8922	0.145299	-401.874003	-401.863966	-401.863022	-401.911332	35.187	
C	 0.0880258949	 1.1924972995	 0.3445582603	-0.506036
C	 0.0105325323	-0.2535486438	 0.2104798499	 0.153904
C	-0.0775518554	-1.4529221638	 0.112519316	-0.018794
C	-0.1270029604	-2.8726443729	-0.0339373047	 0.212919
N	-1.164391002	-3.4510059792	 0.4723677746	-0.202893
O	-1.1355638087	-4.8376735107	 0.2864100729	-0.393733
C	 0.9825778519	-3.5670056816	-0.736365889	-0.089389
C	 1.6838237207	-2.899919571	-1.9061007286	-0.268633
C	 2.4074097562	-3.0592927096	-0.6055552925	-0.268631
H	 1.0014009274	 1.5860288659	-0.1141076452	 0.152064
H	-0.7655316042	 1.6803561937	-0.1391711579	 0.155811
H	 0.0877736072	 1.492042583	 1.3985177045	 0.155817
H	-1.9560935036	-5.1108235072	 0.7094599328	 0.309109
H	 0.8531963383	-4.6379986019	-0.7956242993	 0.118998
H	 1.9563734697	-3.5349302329	-2.7414175403	 0.117591
H	 1.3530884541	-1.9044183806	-2.1785845706	 0.127153
H	 2.5626507368	-2.170830461	-0.0045634843	 0.127153
H	 3.1889325247	-3.8064067158	-0.5260634483	 0.117591
11.7516	63.7522	81.9926	115.5322	211.8222	257.2417	286.7175	290.4195	370.3438	407.7406	470.98	486.0669	582.0858	676.6573	677.8868	787.5726	833.1613	911.3725	912.2994	963.656	1013.7351	1048.6426	1054.0306	1066.7008	1086.4097	1115.7526	1138.6974	1203.819	1225.2042	1302.9727	1373.1159	1412.3148	1422.7522	1463.2842	1474.416	1475.7898	1497.1151	1661.447	2353.0772	3027.4002	3087.7405	3092.4462	3139.0005	3141.768	3219.2075	3221.9985	3237.9144	3823.1368
CC#CC(=NO)C1CC1	CC#CC(=NO)C1CC1	
InChI=1S/C7H9NO/c1-2-3-7(8-9)6-4-5-6/h6,9H,4-5H2,1H3	InChI=1S/C7H9NO/c1-2-3-7(8-9)6-4-5-6/h6,9H,4-5H2,1H3
