17
gdb 45290	2.92053	1.72541	1.3186	4.253	72.69	-0.2246	0.0116	0.2362	976.9305	0.137908	-417.969997	-417.962892	-417.961948	-418.001472	28.095	
O	 0.0961788639	-0.0090706722	 0.1126682593	-0.35504
C	 0.025328408	 1.1843721308	 0.0190211589	 0.387777
N	-1.0347167955	 2.0782308296	 0.1249055893	-0.343134
C	-0.2523149149	 3.2969482633	-0.0788089518	-0.052501
C	 0.4155846839	 3.9171931956	 1.1811753283	-0.203689
N	 1.560816276	 2.9592127108	 1.0993996002	-0.144516
C	 2.7280223874	 3.4536557053	 0.2887408028	-0.169868
C	 2.3093180141	 2.56994134	-0.918835296	-0.364323
C	 0.995283786	 2.3611835917	-0.1836782166	 0.215618
H	-1.9326345376	 1.950596204	 0.5710573904	 0.249659
H	-0.6219487362	 3.9501105181	-0.8708265491	 0.093994
H	 0.7180284719	 4.9619472026	 1.047129531	 0.107416
H	-0.1541942205	 3.8299397938	 2.1111550989	 0.109017
H	 2.6850510781	 4.5300948162	 0.0817747053	 0.099737
H	 3.6906422461	 3.2243492021	 0.7524180152	 0.117031
H	 2.2648820079	 3.0349248776	-1.9051159963	 0.1149
H	 2.8789935414	 1.6402845704	-0.9876746298	 0.137922
126.7969	152.1868	231.4482	299.9869	414.1555	446.9062	474.5137	594.7216	680.1372	689.6789	729.5441	795.1494	803.7463	846.1378	873.7485	914.7519	946.2729	987.0383	1009.2448	1038.2006	1097.6357	1111.1955	1131.0654	1153.1552	1183.7382	1207.7229	1228.1865	1250.3713	1287.808	1300.3092	1328.8138	1337.2044	1364.5031	1476.5027	1485.1603	1514.0387	1894.0434	3024.0747	3033.9996	3074.3485	3085.9327	3090.8269	3096.9321	3129.475	3593.1533
O=C1NC2CN3CCC123	O=C1N[C@H]2CN3CC[C@]123	
InChI=1S/C6H8N2O/c9-5-6-1-2-8(6)3-4(6)7-5/h4H,1-3H2,(H,7,9)	InChI=1S/C6H8N2O/c9-5-6-1-2-8(6)3-4(6)7-5/h4H,1-3H2,(H,7,9)/t4-,6+/m0/s1
