20
gdb 97374	1.95958	1.10643	0.74339	2.8284	85.39	-0.241	0.0316	0.2726	1565.9716	0.166795	-403.115394	-403.104626	-403.103682	-403.15196	38.023	
C	 0.0960490978	 1.1084238158	 0.6324555575	-0.312938
N	-0.0536875563	-0.1169453678	-0.1231349268	-0.21363
C	-1.0739717151	-0.8137300946	 0.1066575887	 0.136869
O	-1.2913040294	-1.9563904446	-0.5804374619	-0.212507
C	-2.4253998731	-2.7498660366	-0.2271175514	 0.104553
C	-3.013700674	-3.2970377171	-1.5215850294	-0.396812
C	-1.9924635036	-3.8813854037	 0.7305623206	-0.343587
C	-1.5627426711	-3.4027172565	 2.0375005267	 0.287371
C	-1.2235658802	-2.9888500144	 3.1137477411	-0.429852
H	 1.0377429144	 1.0829138912	 1.1929671437	 0.125706
H	 0.1590800927	 1.9606274265	-0.0542940572	 0.124514
H	-0.7231238929	 1.3010681821	 1.3452688047	 0.093485
H	-1.8568977601	-0.5685602775	 0.8395764954	 0.080308
H	-3.1656085946	-2.1192747701	 0.2831801857	 0.09407
H	-3.9014814395	-3.9025482377	-1.3170853226	 0.119304
H	-3.2957914345	-2.4755311021	-2.1843486776	 0.131323
H	-2.279220576	-3.9187221418	-2.0423939804	 0.134958
H	-2.8324127473	-4.5769506562	 0.8502317752	 0.131275
H	-1.1817875074	-4.4415759422	 0.2490065144	 0.145686
H	-0.9114805899	-2.6340735826	 4.0646928936	 0.199904
42.9718	71.398	113.4647	140.292	170.2956	205.8075	229.3957	293.8171	302.394	342.8036	360.3961	394.3987	491.1857	535.2503	584.3784	621.9181	647.0953	859.3932	900.6408	932.1831	976.0564	988.6189	1053.4204	1080.8848	1129.138	1141.4944	1147.4472	1158.1612	1237.6008	1261.5755	1305.1913	1372.4904	1373.1614	1410.2356	1425.103	1451.208	1456.9402	1482.0771	1486.7196	1498.3778	1505.8333	1777.1566	2239.4576	2963.6116	3005.0392	3019.9231	3028.9926	3046.537	3054.5299	3068.6972	3073.7738	3120.5483	3129.375	3505.8175
CN=COC(C)CC#C	CN=CO[C@@H](C)CC#C	
InChI=1S/C7H11NO/c1-4-5-7(2)9-6-8-3/h1,6-7H,5H2,2-3H3	InChI=1S/C7H11NO/c1-4-5-7(2)9-6-8-3/h1,6-7H,5H2,2-3H3/t7-/m0/s1
