19
gdb 126526	5.31833	0.74373	0.69414	2.5307	78.96	-0.2144	0.0298	0.2441	1652.7441	0.160214	-419.242704	-419.233479	-419.232534	-419.277787	33.728	
C	 0.1192867782	 1.6065015132	-0.0332034391	-0.381174
C	 0.0555101551	 0.0778373763	-0.0208948807	-0.154001
C	 0.6722842517	-0.5320816303	 1.2545102052	-0.309918
C	 0.6093300146	-2.0264904313	 1.2936529867	 0.407287
C	-0.3155479633	-2.8912776139	 1.8514174519	-0.409831
C	 0.1553868191	-4.1768396829	 1.5080342436	 0.434594
O	-0.4334075674	-5.344008971	 1.8450914021	-0.431325
N	 1.2739034952	-4.142249979	 0.7999752817	-0.340478
N	 1.529031049	-2.81136042	 0.679289966	-0.267236
H	 1.1544226175	 1.9626894873	 0.016922186	 0.114279
H	-0.3293391049	 2.0146005747	-0.9438481819	 0.117057
H	-0.4172533845	 2.0319346977	 0.8221694543	 0.117721
H	-0.985075696	-0.256522498	-0.1032420322	 0.110769
H	 0.5742225238	-0.3254374779	-0.899185531	 0.098196
H	 1.7162874309	-0.2028962953	 1.3449022575	 0.102959
H	 0.1505078895	-0.1369010321	 2.1327323131	 0.118711
H	-1.1930870436	-2.6377054685	 2.4220514351	 0.104409
H	 0.1133467467	-6.0495944744	 1.4772882644	 0.300876
H	 2.3541498085	-2.5191703345	 0.1855603174	 0.267107
32.1261	80.6633	96.691	238.9874	263.4014	284.3957	311.1023	358.6533	412.3364	452.0844	468.6683	639.1159	703.1318	724.0539	743.2289	777.715	794.8982	869.3222	896.523	1005.7225	1037.9205	1050.2489	1080.5688	1108.984	1147.8083	1188.6057	1228.9485	1251.2442	1307.2411	1315.4921	1349.0616	1380.9898	1412.4107	1446.5315	1481.9622	1492.5035	1498.6507	1509.9012	1530.8739	1562.0039	1617.9269	3017.9882	3029.3311	3032.7717	3058.9505	3078.2476	3099.046	3105.6073	3274.3008	3682.1364	3794.6991
CCCC1=CC(O)=NN1	CCCc1cc(O)n[nH]1	
InChI=1S/C6H10N2O/c1-2-3-5-4-6(9)8-7-5/h4H,2-3H2,1H3,(H2,7,8,9)	InChI=1S/C6H10N2O/c1-2-3-5-4-6(9)8-7-5/h4H,2-3H2,1H3,(H2,7,8,9)
