21
gdb 93419	2.98742	1.17349	0.88048	3.7471	86.59	-0.2363	-0.0464	0.19	1341.2158	0.183606	-387.13007	-387.121261	-387.120317	-387.163954	33.659	
C	-0.0767141034	 1.6122047189	-0.0773742578	-0.398172
C	-0.0268086212	 0.0782755764	-0.0305057059	 0.023264
C	 0.8718372054	-0.4789753618	-1.1461907464	-0.212487
C	 0.559519034	-1.9217645233	-1.5572907092	-0.310293
C	 0.8849020678	-3.0490043029	-0.5864138404	 0.356455
O	 1.2247807784	-4.1321505078	-1.0290425922	-0.326632
C	 0.7664293503	-2.9039456448	 0.8844198134	-0.141116
C	 0.578894601	-1.8328244158	 1.6677708947	-0.049233
C	 0.4065503231	-0.3718875009	 1.3709022152	-0.245326
H	 0.9253583672	 2.0408786456	 0.0442035899	 0.116122
H	-0.4753330724	 1.9644359481	-1.0337201713	 0.114735
H	-0.7092326489	 2.0169931801	 0.7197895155	 0.112022
H	-1.0455339083	-0.2972642171	-0.2033540391	 0.076457
H	 0.7464169464	 0.1454865519	-2.0384438192	 0.100842
H	 1.9274050804	-0.3823754653	-0.8580746782	 0.100208
H	-0.5165556216	-2.0029359143	-1.7719402076	 0.122231
H	 1.0725043709	-2.1797468668	-2.4879230425	 0.12187
H	 0.9134167048	-3.864644249	 1.3721620543	 0.103104
H	 0.5924621464	-2.0373019193	 2.7387430105	 0.104868
H	 1.3613698445	 0.1203050792	 1.6221088437	 0.120399
H	-0.3055734248	 0.0298345287	 2.1046455026	 0.110684
43.2306	109.3507	202.1599	230.8433	302.2869	310.0448	333.803	360.1017	405.3965	496.7269	520.3126	632.3227	665.1559	725.2954	818.0482	826.9871	888.1173	904.8457	919.2033	955.7706	1008.1985	1044.67	1061.9983	1083.7288	1104.0894	1164.4427	1178.0203	1212.4223	1270.499	1278.9987	1303.3326	1329.2537	1348.5641	1374.5386	1389.1185	1403.8181	1415.8471	1428.3001	1458.7353	1460.23	1489.9339	1498.5118	1500.6631	1700.3084	1747.2445	2974.3175	3000.7401	3008.3009	3019.8355	3026.9593	3028.0187	3059.1629	3091.6193	3092.4331	3103.3901	3119.9603	3163.4203
CC1CCC(=O)C=CC1	C[C@H]1CCC(=O)C=CC1	
InChI=1S/C8H12O/c1-7-3-2-4-8(9)6-5-7/h2,4,7H,3,5-6H2,1H3	InChI=1S/C8H12O/c1-7-3-2-4-8(9)6-5-7/h2,4,7H,3,5-6H2,1H3/t7-/m1/s1
