18
gdb 112106	2.53638	1.51686	1.09865	2.3487	76.66	-0.2498	-0.0032	0.2467	1138.9509	0.147648	-439.081264	-439.072425	-439.071481	-439.116349	31.562	
C	 0.0697372167	 1.3475027732	-0.076782846	-0.23938
O	-0.0361480711	-0.0601909384	 0.0604526371	-0.259343
C	 0.6767220159	-0.5956817773	 1.1752653121	 0.012635
C	 0.0589743447	-1.9246399503	 1.4864472413	-0.086797
C	 0.6503296615	-3.055134532	 1.123081856	-0.07002
C	 1.9645105851	-3.0956454815	 0.4182019388	-0.115245
O	 2.6212283179	-1.8375731686	 0.258492174	-0.258046
C	 2.1586248453	-0.703389571	 0.8507459092	 0.372089
N	 2.9178244717	 0.2948293889	 1.040854075	-0.507811
H	 1.1084966051	 1.6694634044	-0.2117964287	 0.138547
H	-0.5187454896	 1.6173896013	-0.9569882771	 0.121936
H	-0.3424518243	 1.8647226521	 0.8030098461	 0.103498
H	 0.5915050247	 0.0890133312	 2.0298283425	 0.09669
H	-0.910583704	-1.9198315418	 1.9729998526	 0.107408
H	 0.1947693288	-4.0233381239	 1.3126545362	 0.107556
H	 2.6610090759	-3.7570357626	 0.9535877123	 0.125961
H	 1.8399542867	-3.520840502	-0.5871252474	 0.133557
H	 3.866080489	 0.0777545184	 0.7239900661	 0.216765
20.6183	82.7493	118.1296	182.1431	225.0519	258.1461	376.7493	423.3882	452.948	529.799	583.147	690.9959	720.0168	793.5218	886.5306	917.1756	950.763	978.5878	993.3314	998.1522	1030.4269	1097.6453	1116.667	1143.2849	1185.0755	1212.2304	1222.2551	1256.6822	1318.0541	1348.262	1360.2358	1419.4287	1435.1324	1475.2107	1481.1096	1499.565	1514.1064	1732.834	1745.4726	2989.2943	3002.4953	3016.8972	3028.6174	3067.2809	3121.1244	3165.4784	3192.7375	3450.5325
COC1C=CCOC1=N	CO[C@H]1C=CCO[C]1[NH]	
InChI=1S/C6H9NO2/c1-8-5-3-2-4-9-6(5)7/h2-3,5,7H,4H2,1H3	InChI=1S/C6H9NO2/c1-8-5-3-2-4-9-6(5)7/h2-3,5,7H,4H2,1H3/t5-/m0/s1
