18
gdb 39553	2.76297	2.12063	1.68654	1.4037	79.99	-0.207	0.0097	0.2166	872.4109	0.15143	-364.8043	-364.797976	-364.797032	-364.834551	26.989	
C	-0.017281198	 1.5529433644	 0.0892669354	-0.258978
C	 1.3717237588	 2.1102424582	-0.1047482811	-0.08079
C	 2.2961067082	 1.4408068638	-0.7939075518	-0.042148
C	 1.9694218776	 0.1723904836	-1.4810453713	-0.065691
C	 1.8781312142	-1.1886921231	-0.8286646609	-0.087646
C	 1.8574242382	-1.2673628633	 0.6521013619	-0.079165
C	 0.8068968196	-0.6017060587	 1.1270809832	-0.073606
C	-0.0005397392	 0.0153250868	-0.0007089948	-0.048488
N	 0.6603295305	-0.4584705797	-1.2579923775	-0.130488
H	-0.4135935676	 1.8459087938	 1.0681377255	 0.105867
H	-0.7096399768	 1.9707244863	-0.6548135697	 0.118199
H	 1.6007056496	 3.0802527042	 0.3273668654	 0.09015
H	 3.2948795682	 1.8439013552	-0.9372919605	 0.087751
H	 2.2598087566	 0.1549816011	-2.5325937199	 0.095706
H	 2.1636660275	-2.0591521104	-1.4150085614	 0.089775
H	 2.6088802443	-1.7891242285	 1.2312836519	 0.100436
H	 0.5649091222	-0.4467883532	 2.172603056	 0.096097
H	-1.033881064	-0.3553849704	-0.0081567104	 0.083021
194.8744	231.9845	343.7072	422.9803	489.62	546.9552	605.8444	698.1763	716.9696	735.6035	760.2542	789.083	840.9739	869.6528	883.865	926.5711	943.1187	969.7454	985.9616	996.6521	1014.654	1040.8078	1065.6828	1100.2101	1116.7638	1130.826	1184.5229	1208.9443	1258.1478	1289.1646	1310.7317	1342.3365	1359.4574	1374.7859	1392.786	1422.947	1475.8521	1675.6277	1709.5067	3004.698	3017.8303	3058.911	3088.1401	3131.8534	3154.5803	3176.9345	3190.6357	3220.2581
C1C=CC2C3C=CC1N23	C1C=C[C@H]2[C@H]3C=C[C@@H]1N23	
InChI=1S/C8H9N/c1-2-6-4-5-8-7(3-1)9(6)8/h1,3-8H,2H2	InChI=1S/C8H9N/c1-2-6-4-5-8-7(3-1)9(6)8/h1,3-8H,2H2/t6-,7+,8-,9?/m1/s1
