15
gdb 5761	6.12692	1.46283	1.30173	1.1129	68.01	-0.2258	0.0101	0.2359	935.5998	0.120854	-362.68516	-362.678548	-362.677604	-362.716769	24.613	
C	-0.1102307703	 1.4185573031	-0.1477833345	-0.255939
C	 1.2814980123	 0.9117393161	 0.0700923463	-0.255947
C	 0.1194252933	-0.0653700587	 0.0769809541	-0.122376
C	-0.2983968079	-0.666644479	 1.3473360171	 0.419773
N	-0.2932409585	-0.1435141566	 2.5359094251	-0.327687
C	-0.7878209275	-1.1460991358	 3.3604326525	-0.110623
C	-1.0696649395	-2.2371677565	 2.6143075238	-0.051537
O	-0.7590727451	-1.9440627216	 1.3123682583	-0.180204
H	-0.5823589212	 1.9567160833	 0.6656446782	 0.140444
H	-0.4039530194	 1.7301710333	-1.1437266028	 0.118243
H	 1.9610799155	 0.8689300502	-0.773479353	 0.118237
H	 1.7440343073	 1.1095246502	 1.0298460791	 0.140472
H	 0.0120529224	-0.7261848611	-0.7746003511	 0.103881
H	-0.9019976388	-1.0041015729	 4.4233523159	 0.12137
H	-1.4590735727	-3.2211680739	 2.807706511	 0.141895
41.4997	171.0032	185.3886	396.4786	406.9191	626.4477	661.1767	736.4071	761.7839	793.7905	824.6368	863.8368	905.5693	910.3285	937.7826	963.4469	1065.8482	1084.6688	1090.2807	1106.6959	1126.4788	1145.9646	1180.6465	1203.5254	1207.233	1222.9214	1344.4131	1443.4018	1460.2052	1498.4834	1559.1102	1614.084	3140.4011	3143.1239	3188.012	3228.1284	3242.8245	3262.5299	3303.3479
C1CC1C1=NC=CO1	C1CC1c1ncco1	
InChI=1S/C6H7NO/c1-2-5(1)6-7-3-4-8-6/h3-5H,1-2H2	InChI=1S/C6H7NO/c1-2-5(1)6-7-3-4-8-6/h3-5H,1-2H2
