19
gdb 91608	2.21409	2.08805	1.48261	3.4236	75.07	-0.2061	0.0271	0.2332	961.0418	0.162598	-419.238436	-419.230991	-419.230047	-419.27005	29.905	
C	-0.1676046818	 1.4589667644	-0.0010874405	-0.331889
N	 0.0896002979	 0.0288299726	-0.0064751869	-0.054219
C	 0.8303956711	-0.4914585446	-1.1773241266	-0.170184
C	 1.8751040812	-1.4183098038	-0.5128491236	-0.02433
C	 1.0735863309	-1.9483898702	 0.6969069562	-0.221264
C	 0.7734954087	-0.5287286883	 1.1876938806	-0.120477
C	 2.1838366721	 0.1008121927	 1.2110789416	 0.413486
O	 2.5988006504	 1.0400707075	 1.8508915417	-0.391976
N	 2.8481635222	-0.573975888	 0.1940338389	-0.296856
H	 0.7436473842	 2.0810901159	-0.0107416602	 0.114483
H	-0.7713034054	 1.7191010468	-0.8763545355	 0.119063
H	-0.7424396488	 1.7218571842	 0.8922426774	 0.125971
H	 0.1650608476	-1.0317206434	-1.8627355294	 0.105637
H	 1.3289373811	 0.3071914423	-1.7441211274	 0.091207
H	 2.3511414389	-2.1498640812	-1.1649051883	 0.082854
H	 0.170949433	-2.494672309	 0.4183895935	 0.113428
H	 1.6901946122	-2.5331001848	 1.3809000185	 0.11554
H	 0.1937943734	-0.3859330995	 2.0977432954	 0.085954
H	 3.5914485811	-0.0973021935	-0.2976371355	 0.243569
139.7629	144.3826	216.3125	348.4379	387.8426	411.5108	446.6564	491.2581	526.1384	601.4526	678.9605	753.1977	788.054	828.4807	872.9928	902.7624	933.1441	974.6707	979.7059	992.8095	1045.4772	1066.6417	1119.4706	1150.3929	1162.1097	1205.2829	1213.1847	1223.0689	1236.3223	1269.038	1290.2417	1320.4232	1340.4386	1360.6381	1394.4675	1460.6739	1482.9997	1491.9155	1502.9483	1519.0982	1834.043	2962.1626	3001.1607	3038.3028	3064.4899	3082.8481	3105.2991	3123.7421	3140.7573	3145.9425	3600.2855
CN1CC2CC1C(=O)N2	CN1C[C@@H]2C[C@H]1C(=O)N2	
InChI=1S/C6H10N2O/c1-8-3-4-2-5(8)6(9)7-4/h4-5H,2-3H2,1H3,(H,7,9)	InChI=1S/C6H10N2O/c1-8-3-4-2-5(8)6(9)7-4/h4-5H,2-3H2,1H3,(H,7,9)/t4-,5-/m0/s1
