19
gdb 110073	1.661	1.50929	0.99999	2.0193	75.12	-0.2403	-0.0196	0.2207	1271.9995	0.155062	-460.142964	-460.132733	-460.131789	-460.178063	36.633	
C	 0.0414248476	 1.1058485524	-0.4939366785	-0.242681
O	-0.1077638684	 0.0495911919	 0.4406601489	-0.238864
C	-1.3133669641	-0.6187051076	 0.3217437109	 0.07575
C	-1.4601917004	-1.7639689602	-0.7071186628	-0.232037
C	-0.3524060715	-2.138738491	-1.6052320627	 0.151718
O	-0.5101724264	-2.6419416259	-2.695136844	-0.283566
C	-1.3864041205	-2.00303429	 0.8281626095	 0.317113
C	-0.1894396725	-2.6742307931	 1.4596589033	-0.460469
O	-2.6129120699	-2.3053300569	 1.4271648306	-0.452676
H	 1.0039402526	 1.5778755459	-0.2882428829	 0.136181
H	 0.0324708622	 0.733648382	-1.5277032095	 0.123783
H	-0.7578405433	 1.8519764946	-0.3830593843	 0.118012
H	-2.2052575299	-0.0039769327	 0.4475393082	 0.111611
H	-2.4486789802	-1.8925956382	-1.1350457593	 0.110116
H	 0.6677837058	-1.9274733597	-1.2202219439	 0.078873
H	 0.7493312635	-2.2786415678	 1.070286993	 0.143926
H	-0.2133872281	-2.4979604881	 2.5391955626	 0.136662
H	-0.2106768247	-3.7560521879	 1.2864357218	 0.118669
H	-2.7757542318	-3.2488670675	 1.3124132089	 0.287881
78.4919	119.2146	136.3153	173.2979	186.108	206.8744	234.3996	283.5202	322.7081	327.724	396.8668	440.7565	482.8336	536.6282	574.9742	691.3083	851.0695	905.9889	962.6467	1007.1513	1028.6539	1050.4406	1064.1644	1090.2395	1153.5084	1160.2739	1183.2673	1204.7082	1256.1108	1272.747	1298.7356	1356.0682	1411.5772	1440.9977	1457.1043	1481.6542	1486.304	1486.575	1504.8155	1521.9283	1793.9259	2901.0185	2995.5808	3038.5625	3050.8917	3103.9392	3104.3832	3131.3769	3146.8286	3178.7215	3790.5528
COC1C(C=O)C1(C)O	CO[C@H]1[C@@H](C=O)[C@]1(C)O	
InChI=1S/C6H10O3/c1-6(8)4(3-7)5(6)9-2/h3-5,8H,1-2H3	InChI=1S/C6H10O3/c1-6(8)4(3-7)5(6)9-2/h3-5,8H,1-2H3/t4-,5+,6+/m1/s1
