18
gdb 48846	2.95463	1.40357	1.14148	2.2573	73.46	-0.2192	-0.0189	0.2004	1094.6449	0.148044	-439.064908	-439.056898	-439.055954	-439.097525	30.775	
O	-0.036797281	-0.0244516451	 0.2868334009	-0.271612
C	 0.0881696082	 1.0785258158	-0.1815050839	 0.13545
C	 1.3233309908	 1.9017516422	-0.0837990314	 0.196129
C	 1.0307498585	 3.4085008294	 0.1534452295	-0.361839
C	 1.5526728735	 2.9424039212	-1.1680671722	 0.075808
O	 2.8625068096	 3.2755503751	-1.5130339443	-0.261724
C	 3.8183386797	 2.2490494145	-1.2582947312	-0.060188
C	 3.7581276944	 1.8106515626	 0.1976841652	-0.174551
N	 2.4556277213	 1.2087095218	 0.4400005395	-0.360521
H	-0.7560076682	 1.5910813401	-0.6998493078	 0.0655
H	-0.0029479324	 3.7269327782	 0.2349104031	 0.121241
H	 1.7320768239	 3.9377483975	 0.7876187918	 0.132942
H	 0.8769656637	 2.9377528106	-2.0221050279	 0.104327
H	 3.6414076658	 1.3832123652	-1.9125717435	 0.107779
H	 4.7909373158	 2.684450839	-1.4988918169	 0.114738
H	 4.5317768688	 1.0588529387	 0.3898603445	 0.111619
H	 3.9783859361	 2.6851876318	 0.8357244032	 0.090659
H	 2.3115906313	 0.9221344814	 1.3994062315	 0.234239
88.5829	123.9142	201.6857	238.8656	338.4665	364.215	412.483	455.6962	500.7949	525.4439	615.004	715.9661	728.128	808.6871	838.7009	900.9246	914.0346	982.4258	996.7241	1020.3119	1041.7288	1075.1601	1107.923	1124.3117	1144.4329	1183.9631	1231.8301	1264.391	1292.8847	1349.114	1369.8429	1382.9357	1416.3378	1440.2531	1462.4012	1483.2927	1496.9538	1510.6614	1821.1717	2854.9674	2940.3656	3007.353	3060.2003	3107.808	3111.3547	3134.989	3232.1011	3564.1088
O=CC12CC1OCCN2	O=C[C@]12C[C@H]1OCCN2	
InChI=1S/C6H9NO2/c8-4-6-3-5(6)9-2-1-7-6/h4-5,7H,1-3H2	InChI=1S/C6H9NO2/c8-4-6-3-5(6)9-2-1-7-6/h4-5,7H,1-3H2/t5-,6-/m1/s1
