18
gdb 123740	4.9079	0.9636	0.92291	2.8898	77.98	-0.2602	-0.0069	0.2534	1303.5414	0.149559	-401.93576	-401.928209	-401.927265	-401.968651	28.643	
C	-0.1407928338	 1.5102349762	 0.0048252602	-0.212896
C	 1.3957322758	 1.5084939661	-0.2103290238	-0.229392
C	 1.4612211087	 0.1437633261	 0.5440901942	-0.072872
C	-0.0653497658	-0.0179026219	 0.2623309224	-0.229387
C	 2.4076579361	-0.9068855113	 0.0768226738	 0.38758
N	 3.2532337273	-1.4552817315	 0.9206190118	-0.207729
O	 3.9861488851	-2.3846974929	 0.1846366252	-0.164915
C	 3.5550015548	-2.3644034928	-1.0836018209	 0.083061
C	 2.5594638728	-1.4578668644	-1.2339715761	-0.342976
H	-0.4219160502	 2.0590037139	 0.9080157042	 0.107709
H	-0.7681484433	 1.8554368062	-0.8196644821	 0.099472
H	 1.6553125337	 1.3903276955	-1.2667154323	 0.103327
H	 1.9809034237	 2.3335491608	 0.2015563959	 0.107037
H	 1.6338554944	 0.3086970217	 1.6103943899	 0.09436
H	-0.6767384262	-0.4428991999	 1.061313044	 0.107039
H	-0.2409809055	-0.5907421926	-0.6532598159	 0.103328
H	 4.0487011423	-3.0460996677	-1.7591528841	 0.149034
H	 2.01544307	-1.2147300514	-2.1312632363	 0.11822
56.1407	113.9342	141.2904	237.6081	381.4943	390.5073	557.86	615.4204	713.1176	721.2491	790.2163	802.4656	855.0044	870.8889	902.2602	913.0048	936.0439	944.8438	948.4655	986.2436	1024.4054	1031.7632	1090.5612	1124.2951	1159.7073	1205.0435	1238.3769	1254.7129	1262.4652	1274.9443	1287.2557	1300.0779	1354.1062	1449.3881	1477.644	1486.3731	1488.3483	1509.2985	1608.0471	3055.4632	3058.1725	3063.2782	3080.9941	3105.3616	3112.45	3125.5413	3258.3015	3284.2019
C1CC(C1)C1=NOC=C1	C1CC(C1)c1nocc1	
InChI=1S/C7H9NO/c1-2-6(3-1)7-4-5-9-8-7/h4-6H,1-3H2	InChI=1S/C7H9NO/c1-2-6(3-1)7-4-5-9-8-7/h4-6H,1-3H2
