23
gdb 123052	6.26506	0.52046	0.50497	2.1589	83.65	-0.2436	0.0767	0.3204	2232.0888	0.204368	-425.397609	-425.387089	-425.386145	-425.435126	36.259	
C	-0.1149802081	 1.5248311951	 0.0580140636	-0.384451
C	-0.0429040531	 0.0075244903	 0.0891393158	-0.029564
O	-1.3530723613	-0.509042114	-0.0218140504	-0.241569
C	-1.4038941575	-1.9168141672	 0.0006359182	-0.048638
C	-2.8584095532	-2.3549942149	-0.1227371566	-0.228796
C	-3.0213167569	-3.8683310279	-0.0871337958	-0.023073
C	-2.868707629	-4.5880704766	 1.2751890854	-0.076039
O	-4.1912054993	-5.1522048062	 1.1796293478	-0.270992
C	-4.459284641	-4.4336126892	-0.0412279797	-0.091453
H	 0.8868602955	 1.956484227	 0.1418844753	 0.114297
H	-0.5643968461	 1.8683233875	-0.8780448356	 0.126461
H	-0.7243527205	 1.8967400016	 0.8865756337	 0.126856
H	 0.5851196944	-0.367250835	-0.7374454799	 0.083999
H	 0.4243713191	-0.3384875639	 1.0271912836	 0.0844
H	-0.8066600508	-2.3385328069	-0.8275550971	 0.082554
H	-0.9638012497	-2.3026808702	 0.9376755127	 0.085387
H	-3.4348646864	-1.897482395	 0.690813971	 0.1092
H	-3.2652660609	-1.9561165047	-1.0600457073	 0.108032
H	-2.417810794	-4.3342971998	-0.8722471339	 0.078956
H	-2.0956601932	-5.3629661704	 1.3422389172	 0.100431
H	-2.771207284	-3.9147309287	 2.1389482405	 0.096002
H	-5.2440216291	-3.675910174	 0.0918827255	 0.09755
H	-4.7497643149	-5.1049554968	-0.8581803243	 0.100449
41.3407	61.2647	67.6139	97.58	130.2808	144.7904	219.9826	249.6018	298.4191	372.7248	453.4432	493.3809	752.4836	805.0605	823.2145	876.0198	894.9497	903.8294	962.5508	981.4508	1018.4437	1040.637	1053.823	1094.6577	1122.5776	1152.7256	1156.0747	1165.3466	1169.2676	1181.9152	1203.1923	1246.7977	1265.6278	1296.5155	1306.5905	1312.0236	1318.8955	1367.7007	1391.0432	1403.5067	1411.4527	1455.2434	1483.7341	1490.1936	1499.9599	1512.1039	1516.5955	1537.253	1538.8389	2935.5338	2953.7312	2961.0369	2974.326	2992.9956	3004.5751	3028.8364	3040.7926	3045.0395	3048.1082	3061.0036	3077.4243	3119.4282	3121.703
CCOCCC1COC1	CCOCCC1COC1	
InChI=1S/C7H14O2/c1-2-8-4-3-7-5-9-6-7/h7H,2-6H2,1H3	InChI=1S/C7H14O2/c1-2-8-4-3-7-5-9-6-7/h7H,2-6H2,1H3
