15
gdb 8698	2.4895	1.78982	1.32118	1.8644	57.44	-0.286	0.0076	0.2937	947.0806	0.117496	-436.934838	-436.926205	-436.92526	-436.96785	31.178	
O	 0.9260203168	-0.0843729502	-0.3676348732	-0.416102
C	-0.2059195968	 0.5471859727	 0.1768165852	-0.082705
C	-1.4403329593	-0.3710245413	 0.0545538413	 0.161669
O	-1.5822683959	-0.6724760187	-1.3211933477	-0.453587
C	-1.2626238073	-1.6886013062	 0.842038454	-0.110462
O	-2.2422019629	-2.6318555692	 0.4367096894	-0.426992
C	-2.6515789361	 0.3230810607	 0.5551143232	 0.242046
N	-3.6037701848	 0.8294476043	 0.9713784475	-0.330222
H	 0.6830634599	-0.3361819885	-1.2678504963	 0.296866
H	 0.0025206798	 0.7551118228	 1.2305414446	 0.128066
H	-0.4323760511	 1.499689609	-0.3228386735	 0.120672
H	-2.0523735499	-1.5201273012	-1.3548336632	 0.300406
H	-0.2898221641	-2.1043222755	 0.5726360998	 0.144288
H	-1.2864293865	-1.5002517926	 1.9219347871	 0.120242
H	-3.0834154219	-2.3902870562	 0.8425020519	 0.305815
97.6694	131.0049	152.3326	190.8091	245.5992	309.3816	356.3758	397.8092	447.2411	463.3439	510.8146	578.4104	588.0516	655.937	752.5365	910.2022	929.1742	1063.6809	1065.4792	1087.7981	1103.6023	1147.5769	1229.5092	1263.301	1371.2305	1385.3555	1396.3259	1410.609	1431.1033	1497.0179	1498.8838	2346.6935	3009.1704	3039.781	3094.1993	3129.0341	3712.6168	3780.7111	3794.5807
OCC(O)(CO)C#N	OCC(O)(CO)C#N	
InChI=1S/C4H7NO3/c5-1-4(8,2-6)3-7/h6-8H,2-3H2	InChI=1S/C4H7NO3/c5-1-4(8,2-6)3-7/h6-8H,2-3H2
