20
gdb 69549	2.59675	1.63123	1.40077	0.6121	78.4	-0.2266	0.0568	0.2834	1044.876	0.170234	-403.080818	-403.072514	-403.07157	-403.11303	32.919	
C	 0.1540180938	 1.4979595318	 0.0794197361	-0.499223
C	-0.0610705682	 0.0183005712	-0.0384166048	 0.341895
C	-0.9509661834	-0.7777268296	 0.8189961301	-0.302021
N	 0.5074729125	-0.9862160782	 0.9754221737	-0.226925
C	 1.0454203209	-1.8121364575	-0.1919761614	 0.314593
C	 2.5072967338	-2.1155222871	-0.0002063889	-0.47143
C	 0.1149326008	-2.8564010029	-0.8393744764	-0.1411
O	-0.4626551605	-1.8486053347	-1.7132000571	-0.300028
C	 0.4467898914	-0.840027131	-1.2157160779	-0.003399
H	 1.1634153336	 1.7837480955	-0.2367586066	 0.120866
H	-0.561503978	 2.0447371267	-0.5462060693	 0.126276
H	 0.021011319	 1.824083158	 1.1150008463	 0.131284
H	-1.377525022	-0.2813013177	 1.6859109686	 0.118265
H	-1.584644711	-1.5420050778	 0.3829365504	 0.132416
H	 2.642970907	-2.8283985894	 0.8209820802	 0.128546
H	 2.9452490194	-2.5436744683	-0.9073443398	 0.116392
H	 3.0570763794	-1.206628764	 0.2607683437	 0.127901
H	 0.6465337897	-3.6226724645	-1.4177685862	 0.10225
H	-0.6302459585	-3.3425128003	-0.1993095774	 0.107895
H	 0.9988899003	-0.3275659	-2.0076927133	 0.075549
145.1667	180.0159	208.8911	254.5049	263.8014	302.3232	336.0558	382.0007	479.3667	521.0048	591.3179	637.23	717.8278	766.9121	829.3479	880.8398	901.9167	927.1808	973.7503	977.1259	987.8051	990.674	1034.222	1087.6432	1118.6841	1122.5569	1142.4278	1157.0763	1195.4438	1216.3366	1248.4354	1289.9619	1307.7458	1372.8035	1391.4568	1414.0692	1420.9332	1480.6401	1483.0235	1491.6102	1493.5492	1509.113	1524.0644	3014.7492	3026.036	3033.3881	3063.4227	3078.4074	3086.6891	3100.3758	3111.3823	3114.6187	3126.8525	3211.5143
CC12CN1C1(C)COC21	C[C@]12CN1[C@@]1(C)CO[C@@H]21	
InChI=1S/C7H11NO/c1-6-3-8(6)7(2)4-9-5(6)7/h5H,3-4H2,1-2H3	InChI=1S/C7H11NO/c1-6-3-8(6)7(2)4-9-5(6)7/h5H,3-4H2,1-2H3/t5-,6+,7-,8?/m0/s1
