14
gdb 125466	5.46034	1.30416	1.05969	7.5063	70.85	-0.2227	-0.0077	0.2149	1060.2931	0.103522	-429.052463	-429.045237	-429.044293	-429.084138	26.956	
C	-0.0200405033	 1.4725917915	 0.0282619891	-0.50215
C	-0.0032942361	-0.0164497875	-0.0354084929	 0.32789
N	-0.0519128973	-0.741013691	-1.1255232452	-0.358572
C	-0.0087292044	-2.041191249	-0.6699554923	 0.322723
C	 0.0664317399	-2.0840293205	 0.7085375878	 0.440994
N	 0.1021732422	-3.3874048974	 1.0262680436	-0.367995
N	 0.0488130268	-4.129391279	-0.1516046554	-0.125633
N	-0.0170508512	-3.3118358964	-1.156851286	-0.276207
N	 0.0713949106	-0.7892916613	 1.1404750034	-0.453446
H	 0.89111528	 1.8696463733	 0.4907242659	 0.137077
H	-0.0907157899	 1.8607501994	-0.9880003508	 0.16889
H	-0.8748943473	 1.8449849716	 0.6045882313	 0.136535
H	 0.1561870491	-3.874633154	 1.9036705383	 0.278427
H	 0.1169105107	-0.4351370397	 2.0801038432	 0.271468
99.6341	152.1539	269.1973	288.6884	345.0473	377.4281	429.5478	529.4791	578.6881	668.1223	685.155	783.3212	789.3876	842.4595	900.7339	942.2232	1020.5519	1029.5433	1059.7571	1195.3661	1249.4791	1262.5589	1365.8773	1371.3545	1406.4616	1447.7156	1480.0781	1483.3338	1519.4756	1593.522	1645.7248	3031.0143	3081.102	3155.89	3675.4102	3685.4932
CC1=NC2=C(NN=N2)N1	Cc1nc2c([nH]nn2)[nH]1	
InChI=1S/C4H5N5/c1-2-5-3-4(6-2)8-9-7-3/h1H3,(H2,5,6,7,8,9)	InChI=1S/C4H5N5/c1-2-5-3-4(6-2)8-9-7-3/h1H3,(H2,5,6,7,8,9)
