21
gdb 40357	3.6556	1.3014	1.20788	1.5033	81.6	-0.2411	0.0849	0.326	1127.7759	0.184566	-387.063529	-387.055891	-387.054947	-387.09563	31.196	
C	-0.2852813684	 1.3188732835	-0.2600346707	-0.271025
C	 1.1281508431	 1.1431287325	 0.237885367	-0.267294
C	 0.2291694925	-0.0583720623	 0.0692498319	-0.122204
C	-0.2651049529	-0.7827114641	 1.2759215437	 0.436151
C	-1.7036178257	-1.3465813164	 1.4349299116	-0.273852
C	-1.3238362892	-1.0717044326	 2.9019544359	 0.078115
C	-0.2300516876	-2.1172136631	 3.203902279	-0.218991
C	 0.613211693	-1.8926020571	 1.9094382147	-0.255296
O	-0.5325523379	 0.0707906392	 2.4448967831	-0.332423
H	-0.9980120499	 1.7546717846	 0.4303769655	 0.124858
H	-0.4412535273	 1.5726216308	-1.3026419219	 0.105509
H	 1.9474508005	 1.2723599443	-0.4603642149	 0.107355
H	 1.3374561563	 1.463339126	 1.2519371442	 0.130587
H	 0.4469140998	-0.7154503731	-0.768775759	 0.082184
H	-2.4529612	-0.6478244455	 1.0621772956	 0.107829
H	-1.9142773674	-2.372137543	 1.119400789	 0.088252
H	-2.0503285464	-0.8240040112	 3.6755669469	 0.075834
H	 0.3191217181	-1.8687393338	 4.114347127	 0.106168
H	-0.6263572772	-3.1318681199	 3.3000591974	 0.096409
H	 0.6901287667	-2.7815323127	 1.2770966707	 0.094495
H	 1.6196210301	-1.5223094862	 2.1150247132	 0.10734
82.6975	164.3495	177.836	286.4246	374.7284	422.3865	456.2144	569.0067	598.4222	705.3557	791.9564	819.8532	826.6249	829.118	846.5159	870.0296	904.1854	919.3383	930.5791	954.2008	967.8559	1004.8596	1018.985	1064.6279	1078.7958	1087.7345	1104.6861	1129.9558	1158.2974	1165.3788	1177.7073	1204.5501	1220.9322	1225.7063	1238.5464	1274.0776	1289.6901	1306.8261	1330.7844	1434.2405	1460.3834	1480.6212	1483.3993	1501.166	1509.5334	3059.8869	3061.4045	3070.2476	3107.5235	3123.6562	3125.1144	3136.8613	3138.1591	3142.8	3144.021	3221.1102	3235.2278
C1CC1C12CC(CC1)O2	C1CC1[C@@]12C[C@@H](CC1)O2	
InChI=1S/C8H12O/c1-2-6(1)8-4-3-7(5-8)9-8/h6-7H,1-5H2	InChI=1S/C8H12O/c1-2-6(1)8-4-3-7(5-8)9-8/h6-7H,1-5H2/t7-,8+/m1/s1
