14
gdb 78135	2.50584	1.51444	1.23618	5.0886	64.45	-0.2667	-0.0442	0.2224	1017.1099	0.099354	-473.819516	-473.811411	-473.810467	-473.852931	28.839	
O	-0.2508483947	 1.4222340796	 0.0577526224	-0.412212
C	-0.1787448499	 0.0451013592	 0.0016997653	 0.129717
C	-1.3396095532	-0.8930196933	 0.0104330121	-0.09065
C	-0.4340696354	-0.8262444128	-1.2380877794	-0.288076
C	-1.6424107052	-0.3075756739	-1.9879815191	 0.424682
O	-1.9049478961	-0.0027095003	-3.1074498737	-0.304104
N	-2.4358007758	-0.3328864324	-0.7892969606	-0.137657
C	-3.5855125703	 0.3154527762	-0.3714078873	 0.137755
O	-4.3342436364	 0.9258416982	-1.087613395	-0.269607
H	-1.0206750114	 1.7350989828	-0.4314506585	 0.308043
H	 0.6818732773	-0.2954006906	 0.5710699435	 0.138873
H	-1.5118817311	-1.7276036874	 0.677506458	 0.135675
H	 0.2866552217	-1.5359087144	-1.6179835026	 0.134607
H	-3.7393723595	 0.182516909	 0.7189317047	 0.092952
51.6728	127.6888	164.2725	195.781	217.8816	298.3879	445.8119	450.7502	506.1505	668.1299	692.4196	749.9515	787.6324	817.356	862.5279	916.1672	965.5106	1017.3737	1033.5089	1065.2003	1103.3202	1143.6248	1171.0044	1252.7176	1279.3777	1326.3638	1359.2807	1427.6071	1450.3538	1809.9863	1923.1914	2929.808	3164.0072	3204.052	3229.8643	3802.7834
OC1C2C1C(=O)N2C=O	O[C@H]1[C@@H]2[C@H]1C(=O)N2C=O	
InChI=1S/C5H5NO3/c7-1-6-3-2(4(3)8)5(6)9/h1-4,8H	InChI=1S/C5H5NO3/c7-1-6-3-2(4(3)8)5(6)9/h1-4,8H/t2-,3+,4-/m1/s1
