15
gdb 24989	4.73441	1.27193	1.02103	3.9329	67.7	-0.1808	0.0421	0.2229	1093.1957	0.115905	-453.986416	-453.979344	-453.9784	-454.017855	27.337	
O	 0.0239508547	-0.0054875583	 0.1748728049	-0.405571
C	-0.0271940015	 1.2029111942	 0.1251069405	 0.413655
N	-1.1559638239	 2.0214587264	 0.038705439	-0.413588
C	-0.7545701693	 3.3449535487	-0.243179032	 0.089733
C	 0.5838751611	 3.3564010455	-0.1544655149	 0.444909
N	 1.0684684504	 2.0971880162	 0.1033506285	-0.454782
O	 1.1933141683	 4.5526992048	-0.0198797135	-0.275765
C	 0.094406478	 5.4977929964	-0.2362293596	-0.089278
C	-1.2465832278	 4.737628168	 0.0246070676	-0.332224
H	-2.0211624929	 1.5968301639	-0.2533839274	 0.262711
H	 2.0132022327	 1.7635951645	 0.0151923583	 0.274727
H	 0.2659614113	 6.3461905765	 0.4263757996	 0.129077
H	 0.1455376205	 5.8283974881	-1.2785046258	 0.124985
H	-2.0275670651	 5.1111471633	-0.6455961494	 0.115159
H	-1.6035440466	 4.8672797018	 1.0569835343	 0.116253
124.1577	194.7945	247.1655	324.2515	333.0183	434.422	501.925	548.5815	570.5281	656.0317	717.6107	747.0216	753.1057	845.7312	876.5121	930.8175	960.0199	972.7155	1053.804	1106.0028	1189.9864	1219.0525	1239.1153	1272.6422	1287.8034	1314.9298	1375.5244	1411.5776	1490.2245	1505.3681	1529.0756	1714.8651	1849.4783	2993.893	3051.8285	3067.3437	3137.7356	3651.647	3675.9946
O=C1NC2=C(N1)OCC2	O=C1N[C]2[C](N1)OCC2	
InChI=1S/C5H6N2O2/c8-5-6-3-1-2-9-4(3)7-5/h1-2H2,(H2,6,7,8)	InChI=1S/C5H6N2O2/c8-5-6-3-1-2-9-4(3)7-5/h1-2H2,(H2,6,7,8)
