17
gdb 73916	2.90629	1.40989	1.03516	3.9074	82.09	-0.2387	-0.0439	0.1948	1140.468	0.13702	-380.878525	-380.870505	-380.869561	-380.911089	30.168	
C	-0.0066145164	 1.4990829553	 0.1071145049	-0.518937
C	 0.0017542827	 0.0106509072	 0.0222392096	 0.247445
C	 0.0058155345	-0.7627984125	-1.0809472488	 0.074468
C	-0.051318248	-2.2401086713	-0.7114416105	-0.26621
N	-0.0044526632	-2.2789867618	 0.7641010651	-0.097484
C	 1.2267641617	-1.7448625119	 1.3440553755	-0.236745
C	 0.0209118943	-0.8705113921	 1.2230667603	-0.116837
C	 0.0592426279	-0.3010935852	-2.419422562	 0.196948
N	 0.0955722529	 0.0518284847	-3.5234800204	-0.347724
H	 0.8760784813	 1.863552292	 0.6460799557	 0.144418
H	-0.026921116	 1.9592372466	-0.8828467631	 0.156473
H	-0.8821053283	 1.8460564534	 0.6695152645	 0.143887
H	-0.9844425738	-2.7000136654	-1.0576769295	 0.133241
H	 0.77501226	-2.8188060938	-1.1391833945	 0.132627
H	 1.4899852126	-2.1714256879	 2.3078366305	 0.127042
H	 2.0661498439	-1.525471328	 0.6871213452	 0.120814
H	-0.565012936	-0.6031974393	 2.0985205074	 0.106574
121.5441	140.2803	158.9578	199.485	295.8134	321.0607	394.9895	510.9139	533.721	585.6894	621.9842	633.7625	734.6792	804.0163	838.5852	906.9507	988.2381	1019.7933	1030.4677	1067.8801	1070.5493	1102.581	1113.4332	1152.9819	1192.7071	1216.2456	1248.6771	1270.3574	1341.3781	1373.9358	1414.8894	1477.3319	1479.8904	1489.7804	1502.823	1684.3676	2327.5403	3027.6146	3032.151	3070.6282	3076.8751	3099.6224	3131.9572	3145.2352	3192.3254
CC1=C(CN2CC12)C#N	CC1=C(CN2C[C@@H]12)C#N	
InChI=1S/C7H8N2/c1-5-6(2-8)3-9-4-7(5)9/h7H,3-4H2,1H3	InChI=1S/C7H8N2/c1-5-6(2-8)3-9-4-7(5)9/h7H,3-4H2,1H3/t7-,9?/m0/s1
