17
gdb 38486	3.31632	1.74354	1.60414	1.9612	69.6	-0.2253	0.0517	0.2769	884.4756	0.137319	-421.749781	-421.743302	-421.742358	-421.780234	27.063	
C	-0.0283841647	 1.4245148311	 0.0046733695	-0.373299
C	 1.3477342155	 0.7912893134	-0.0775867515	 0.137611
C	 1.6766618308	 0.1009648536	 1.2533218582	-0.131587
O	 0.4141988239	-0.6317873865	 1.2621428309	-0.321972
C	 0.0931985352	-0.0642187994	-0.0104971054	 0.366711
C	 0.0150073352	-0.8806829356	-1.2695333923	-0.065377
O	-0.135578978	-0.0450464595	-2.4190957469	-0.246363
C	 1.1842705205	-0.5234502581	-2.1129390306	 0.052844
C	 2.0635129742	 0.5162551522	-1.396740035	-0.334817
H	-0.3361898713	 1.9098020303	 0.9265320708	 0.117954
H	-0.3886812775	 1.8753326585	-0.9112508376	 0.143608
H	 2.5238616915	-0.5914700339	 1.183678569	 0.107579
H	 1.7876136383	 0.7310751909	 2.1437465642	 0.109239
H	-0.4845714619	-1.8452124251	-1.2947905176	 0.106447
H	 1.6096789918	-1.1824393857	-2.868394059	 0.098884
H	 2.1990191368	 1.4055394999	-2.0208549286	 0.12257
H	 3.0582091198	 0.0944463339	-1.214373218	 0.10997
195.0765	254.3493	316.3182	373.5021	406.3865	464.6451	555.8684	645.4362	698.7059	781.0484	802.0209	831.2743	845.873	863.5858	915.4957	930.182	944.0878	951.8798	982.231	1004.7357	1050.8504	1081.0024	1090.6881	1141.7236	1153.1907	1189.4999	1229.0031	1237.709	1273.2417	1303.7851	1315.6354	1354.4198	1374.6159	1402.9123	1461.9341	1472.9576	1512.7291	3017.7347	3045.5759	3069.1356	3086.763	3125.7776	3127.2162	3156.7129	3238.6464
C1C23COC12C1OC1C3	C1[C@@]23CO[C@@]12[C@H]1O[C@H]1C3	
InChI=1S/C7H8O2/c1-4-5(9-4)7-2-6(1,7)3-8-7/h4-5H,1-3H2	InChI=1S/C7H8O2/c1-4-5(9-4)7-2-6(1,7)3-8-7/h4-5H,1-3H2/t4-,5-,6-,7+/m0/s1
