20
gdb 102299	2.62655	0.8658	0.7664	3.515	75.9	-0.2791	0.0296	0.3087	1567.3684	0.168701	-440.299588	-440.288848	-440.287904	-440.336056	37.973	
C	 0.0190084795	 1.579447497	 0.0485517959	-0.403426
C	 0.017223745	 0.0517647625	 0.0051814974	 0.111949
O	 0.6385050025	-0.5029083996	 1.1633272765	-0.43311
C	-1.4009373474	-0.5187618073	-0.024933699	-0.196064
C	-1.4398065406	-2.0588762001	-0.0903634101	-0.148323
C	-2.8754513155	-2.612663134	 0.0749186172	-0.075083
O	-2.9263406388	-4.0196899998	 0.0619042882	-0.416555
C	-0.8825965376	-2.5583939638	-1.3508481514	 0.261104
N	-0.4900989064	-2.9725126327	-2.357163039	-0.341896
H	 1.0444112561	 1.963142991	 0.0865797969	 0.111244
H	-0.4594563212	 2.000422678	-0.8416972418	 0.120987
H	-0.5115361701	 1.9382843211	 0.9362221147	 0.126039
H	 0.5471200939	-0.2818466222	-0.9014567553	 0.091498
H	 1.563920691	-0.2401321776	 1.1647765098	 0.28788
H	-1.9185442691	-0.2073231178	 0.8900489715	 0.114358
H	-1.9463034262	-0.0944943225	-0.8744315841	 0.113468
H	-0.8229825786	-2.4567776494	 0.7218212784	 0.15406
H	-3.2509003795	-2.2983616883	 1.0533858454	 0.122444
H	-3.5265446086	-2.1686483335	-0.6938276131	 0.101746
H	-2.6644282383	-4.3219674611	-0.8154060979	 0.29768
46.3532	80.8349	99.3909	136.5228	169.9315	239.2716	243.8799	275.7245	299.6485	308.3418	380.607	430.1076	461.0004	479.0681	562.4483	634.8747	782.0533	849.196	889.6861	946.703	1003.6639	1036.2888	1068.6626	1081.3283	1089.0547	1130.7087	1143.5766	1192.3811	1218.2965	1263.5147	1308.7062	1339.7625	1374.6715	1387.8495	1394.4767	1408.5247	1421.0227	1431.6552	1470.1564	1493.1419	1498.8605	1504.3256	2346.4606	2977.0291	2988.0451	3030.8359	3039.6073	3073.1591	3085.8966	3094.8079	3099.7197	3113.9802	3798.0407	3827.2391
CC(O)CC(CO)C#N	C[C@@H](O)C[C@@H](CO)C#N	
InChI=1S/C6H11NO2/c1-5(9)2-6(3-7)4-8/h5-6,8-9H,2,4H2,1H3	InChI=1S/C6H11NO2/c1-5(9)2-6(3-7)4-8/h5-6,8-9H,2,4H2,1H3/t5-,6-/m1/s1
