18
gdb 70372	2.37754	1.57537	1.3646	2.461	76.24	-0.23	0.0164	0.2464	1037.5485	0.147847	-398.091929	-398.083213	-398.082269	-398.124676	33.745	
C	-0.1079993576	 1.5672174203	 0.024027464	-0.438673
C	 0.0509271936	 0.049679761	 0.0245524253	 0.094837
N	 1.1614087357	-0.4830246792	-0.8538376459	-0.365175
C	 1.6851850452	-1.2861522051	 0.2781070289	-0.032217
C	 2.1753457941	-0.3286051337	 1.3187252655	-0.319223
C	 0.7030837998	-0.6668196142	 1.2588601561	 0.278875
N	 0.0426687858	-1.2262228879	 2.3760996118	-0.598527
C	-1.2231449186	-0.6100436998	-0.2742593842	 0.254427
N	-2.2216160836	-1.1534102762	-0.4910665746	-0.348941
H	 0.8499943083	 2.0380982935	 0.2526324271	 0.132482
H	-0.4403145104	 1.9227897687	-0.9553159645	 0.138709
H	-0.8465044415	 1.8767691262	 0.7701860964	 0.128749
H	 0.7834544327	-1.0738234053	-1.5884669534	 0.236999
H	 2.0351328313	-2.3029757751	 0.1564024264	 0.108831
H	 2.6640519422	-0.7812680627	 2.1746333879	 0.128829
H	 2.5588274209	 0.6401135015	 1.0137879863	 0.117037
H	-0.1886462773	-0.5264853498	 3.0742786445	 0.235391
H	-0.8104986505	-1.7088762821	 2.1107383923	 0.247589
131.8818	134.244	201.9877	215.3805	237.7117	309.9387	362.1982	382.431	445.1529	478.4666	538.8292	562.0427	645.8894	675.8328	771.7405	779.5509	849.0164	863.3255	910.9173	938.1918	960.2658	980.917	1027.3106	1060.5981	1093.5931	1134.0359	1147.8764	1186.3303	1207.8718	1278.8371	1305.8752	1355.5362	1403.6412	1418.5482	1480.0987	1485.8119	1497.437	1662.9054	2338.0386	3046.167	3117.3597	3126.1461	3137.2765	3202.2231	3224.0412	3491.6717	3519.9894	3572.0758
CC1(NC2CC12N)C#N	C[C@]1(N[C@H]2C[C@@]12N)C#N	
InChI=1S/C6H9N3/c1-5(3-7)6(8)2-4(6)9-5/h4,9H,2,8H2,1H3	InChI=1S/C6H9N3/c1-5(3-7)6(8)2-4(6)9-5/h4,9H,2,8H2,1H3/t4-,5-,6-/m0/s1
