20
gdb 26316	3.86406	0.95974	0.81917	0.982	81.96	-0.1792	0.0647	0.2439	1434.8206	0.17053	-403.190677	-403.181065	-403.180121	-403.225123	36.248	
C	 0.0989361644	 1.315472814	-0.4297720021	-0.372649
C	 0.0333840282	-0.1157831088	 0.1386049463	-0.075775
C	 0.6626564751	-0.170521259	 1.5366008131	-0.38966
C	-1.3775906669	-0.6482111112	 0.1168298894	 0.313158
C	-2.174047971	-0.9543215695	 1.1923966009	-0.202583
N	-3.3977501849	-1.3934586784	 0.710599461	-0.307626
C	-3.3751293602	-1.3691776927	-0.6510065591	 0.39855
O	-4.4943259545	-1.7761707593	-1.3051318133	-0.436647
C	-2.1487095551	-0.9147983985	-1.0673697375	-0.415141
H	 1.1341081176	 1.671758468	-0.4770466941	 0.101332
H	-0.3230149233	 1.3636715985	-1.4379079179	 0.110433
H	-0.471473762	 2.0056655482	 0.2015463492	 0.112852
H	 0.6395812693	-0.7531276803	-0.5219786273	 0.073985
H	 0.6530877725	-1.1879774515	 1.9391957978	 0.112416
H	 1.7009728644	 0.1746718162	 1.5074689358	 0.104146
H	 0.1203912127	 0.4755632694	 2.2366868467	 0.111941
H	-1.9889624132	-0.9067509911	 2.2518897425	 0.112254
H	-4.1832565375	-1.6984138492	 1.2575524513	 0.261973
H	-4.3331863013	-1.6992774522	-2.2500041652	 0.306293
H	-1.8284278744	-0.7903503027	-2.0910429375	 0.080747
41.9789	130.7998	181.7001	226.2196	238.1091	263.8016	283.0028	313.4603	369.091	404.6471	460.2635	478.6659	595.932	640.0994	681.3198	688.2358	722.2313	752.2955	878.9682	927.0686	962.9062	976.6533	1013.4341	1094.1221	1112.5684	1124.3201	1151.1565	1172.6736	1207.5227	1287.8484	1295.6363	1340.5468	1369.4263	1394.1514	1415.0909	1420.198	1486.2605	1491.7955	1500.6035	1512.1963	1542.6234	1573.6869	1637.453	2988.2627	3025.0047	3029.8407	3091.0468	3096.7999	3104.6835	3106.2436	3234.6083	3276.5608	3689.2736	3851.1339
CC(C)C1=CNC(O)=C1	CC(C)c1c[nH]c(O)c1	
InChI=1S/C7H11NO/c1-5(2)6-3-7(9)8-4-6/h3-5,8-9H,1-2H3	InChI=1S/C7H11NO/c1-5(2)6-3-7(9)8-4-6/h3-5,8-9H,1-2H3
