19
gdb 68245	2.82946	1.89949	1.478	2.5342	73.93	-0.2376	0.0805	0.318	947.1016	0.160652	-422.989121	-422.981987	-422.981043	-423.020248	29.262	
C	 0.0077053395	 1.4710759646	 0.2005569392	-0.510302
C	 0.0306250474	-0.0167742714	 0.0079828319	 0.39049
C	 0.8682948119	-0.7864665589	-1.0543740723	-0.277849
C	 0.7638547128	-1.8452080233	 0.0692895643	 0.051511
O	 0.7666693694	-0.7599899006	 1.0395173674	-0.31764
C	-0.7251183999	-2.2426403765	 0.018576887	-0.099443
C	-1.4757633625	-2.3048288715	 1.3654276991	-0.085219
O	-1.9716840288	-0.952331142	 1.2089872984	-0.295729
C	-1.3040305046	-0.8047035511	-0.0520803857	 0.096196
H	 1.0208819978	 1.8722886265	 0.2878309185	 0.126669
H	-0.4903476885	 1.9575674451	-0.6445627919	 0.12076
H	-0.5457867668	 1.7164175353	 1.112296377	 0.146427
H	 0.4270848707	-0.9999616797	-2.032864689	 0.095107
H	 1.8747881328	-0.377467335	-1.149900775	 0.112593
H	 1.5202719681	-2.6074700447	 0.2555222352	 0.081287
H	-0.9834140157	-2.9778407485	-0.742850836	 0.081021
H	-2.3006835339	-3.0259199773	 1.4009444448	 0.096517
H	-0.8476408927	-2.4077910577	 2.2557710479	 0.112878
H	-1.9757383268	-0.4880642133	-0.8564240807	 0.074727
182.2389	204.5625	232.8812	294.2405	322.1868	439.5255	459.161	580.613	644.0159	710.3889	790.6114	810.8111	836.514	873.1353	882.9715	884.5714	940.9748	958.6111	986.9048	1019.8191	1025.0957	1034.4441	1066.1173	1093.9986	1119.2999	1162.1275	1169.7791	1210.2788	1215.5858	1226.1261	1252.2422	1292.0625	1304.186	1320.9327	1348.7123	1362.0702	1413.0202	1478.6947	1486.4295	1495.0375	1506.6494	3026.9834	3039.5917	3054.6334	3061.0329	3083.5693	3111.0924	3116.9054	3120.3113	3126.4692	3139.718
CC12CC(O1)C1COC21	C[C@@]12C[C@@H](O1)[C@H]1CO[C@@H]21	
InChI=1S/C7H10O2/c1-7-2-5(9-7)4-3-8-6(4)7/h4-6H,2-3H2,1H3	InChI=1S/C7H10O2/c1-7-2-5(9-7)4-3-8-6(4)7/h4-6H,2-3H2,1H3/t4-,5-,6-,7+/m1/s1
