19
gdb 9410	3.21035	1.18308	1.01421	4.5709	70.25	-0.2367	0.0363	0.2731	1230.036	0.16373	-402.209971	-402.200249	-402.199305	-402.245678	32.736	
C	-0.0340323245	 1.3841983699	 0.1299082066	-0.228214
O	-0.0077110789	-0.0197741655	 0.0202850114	-0.225765
C	-1.2865698908	-0.6052307282	 0.02882209	-0.048904
C	-1.1063584104	-2.1225865738	 0.014872821	-0.20036
N	-0.4928920053	-2.6522523059	 1.2168003124	-0.021537
C	-1.310520058	-2.8431786759	 2.4012312599	-0.346313
C	 0.8565034817	-2.8542944783	 1.2853674755	 0.160868
O	 1.4635667307	-3.2194837447	 2.2702595207	-0.346774
H	 1.0017990022	 1.7307582999	 0.1217674317	 0.13425
H	-0.5724384934	 1.8495999636	-0.710623825	 0.105505
H	-0.511477055	 1.7102660456	 1.0670310995	 0.108089
H	-1.856486547	-0.2885621365	 0.918617143	 0.090954
H	-1.8696982252	-0.2985951574	-0.8567920868	 0.088762
H	-2.0812629345	-2.6021791263	-0.1343940394	 0.108448
H	-0.4767971864	-2.3827898217	-0.8423216542	 0.128502
H	-2.1394103801	-3.5292749057	 2.1902149065	 0.120939
H	-0.6720321045	-3.2661972104	 3.1768283257	 0.169834
H	-1.7290913299	-1.8967242083	 2.7648417288	 0.123076
H	 1.3468684992	-2.6566804905	 0.3141451929	 0.078641
43.536	61.723	94.1177	132.5042	179.4715	235.5845	247.6039	315.7932	329.6522	367.7665	411.6684	540.7208	653.6934	848.2989	859.8985	972.8957	1024.2938	1037.0978	1083.6127	1102.4865	1157.6007	1167.9348	1184.2434	1214.0438	1244.1395	1287.5155	1289.0672	1393.6431	1414.376	1430.2945	1438.6021	1445.4351	1475.6107	1480.541	1486.7181	1496.3726	1502.7596	1519.8963	1525.9372	1794.9419	2952.596	2960.3039	2974.9031	2982.9459	3018.3016	3019.3116	3036.1648	3067.5974	3088.3932	3120.1309	3156.308
COCCN(C)C=O	COCCN(C)C=O	
InChI=1S/C5H11NO2/c1-6(5-7)3-4-8-2/h5H,3-4H2,1-2H3	InChI=1S/C5H11NO2/c1-6(5-7)3-4-8-2/h5H,3-4H2,1-2H3
