16
gdb 128355	3.35377	1.29774	0.94784	6.5582	67.62	-0.2287	0.0289	0.2577	1193.7072	0.124485	-471.225589	-471.216724	-471.21578	-471.259353	31.192	
C	-0.0392161406	 1.4266093354	 0.0327059085	-0.325225
N	-0.0856794983	-0.0305839949	-0.0442498241	-0.399268
C	 0.6024446294	-0.6399467025	-1.0547341673	 0.517174
N	 1.1742514766	-0.016432841	-2.04261476	-0.239052
O	 1.6645326294	-1.0686606561	-2.8840952471	-0.240687
C	 1.3795991945	-2.2782819551	-2.3405683633	 0.506694
O	 1.6593262394	-3.3505877619	-2.8039714158	-0.408549
N	 0.7004444796	-2.0055405094	-1.1560217287	-0.207949
C	 0.1433549366	-3.026486643	-0.2972351897	-0.363033
H	 0.9714036573	 1.810682604	 0.2191215407	 0.138837
H	-0.388208441	 1.8413593755	-0.9149878504	 0.167427
H	-0.7071555689	 1.7534559456	 0.8314850176	 0.131051
H	-0.0362001843	-0.5099070513	 0.8429569355	 0.252675
H	 0.3222804306	-3.9830220399	-0.7916857774	 0.183672
H	 0.6330057285	-3.0408625838	 0.6829135558	 0.13764
H	-0.932485479	-2.8788940415	-0.1633033543	 0.148592
96.5127	137.8341	144.0647	163.1658	191.6468	230.4515	273.3188	368.4736	390.289	500.9998	581.7278	671.3516	695.47	769.1149	771.7742	786.2514	946.045	988.094	1083.9055	1146.0287	1152.0053	1160.0031	1181.676	1250.3021	1332.9694	1408.8377	1454.7459	1458.9675	1483.768	1495.6817	1511.2473	1515.6979	1586.9405	1671.5931	1878.9386	3028.0816	3031.8519	3095.9465	3109.0472	3146.6096	3148.0293	3602.9226
CNC1=NOC(=O)N1C	CNc1noc(=O)n1C	
InChI=1S/C4H7N3O2/c1-5-3-6-9-4(8)7(3)2/h1-2H3,(H,5,6)	InChI=1S/C4H7N3O2/c1-5-3-6-9-4(8)7(3)2/h1-2H3,(H,5,6)
