16
gdb 40893	4.02967	1.33017	1.31222	1.6091	67.81	-0.2203	0.0104	0.2307	1000.1357	0.125519	-437.846789	-437.83979	-437.838846	-437.878581	26.713	
C	 0.0404285749	 1.3239641793	-0.286754729	-0.080363
C	 1.4873819726	 1.5354809968	 0.216780724	-0.360284
C	 1.2988163499	 0.1505218193	 0.8133285713	 0.429715
O	-0.0292890622	 0.0064981437	 0.3211831133	-0.315391
C	 2.1974769184	-1.0400601315	 0.8616441905	-0.051196
O	 3.596182602	-0.7664570155	 0.8673035536	-0.210643
C	 3.8100159201	-0.0460560207	 2.002500006	 0.109123
N	 2.8360025557	 0.1870302211	 2.7860661309	-0.256733
C	 1.6725228487	-0.4072003128	 2.1605860314	-0.133616
H	-0.7134476127	 1.9975185235	 0.1333844472	 0.115112
H	-0.0821350759	 1.2693937359	-1.3732682368	 0.113593
H	 2.2498044844	 1.6072450989	-0.5606856546	 0.123137
H	 1.62630586	 2.3366026886	 0.9438762005	 0.130362
H	 1.9307410511	-1.9980912814	 0.433484735	 0.124321
H	 4.8360469868	 0.2662136545	 2.1516511186	 0.148396
H	 0.9098355963	-0.8333780397	 2.8021372282	 0.114467
86.6741	150.1736	171.8429	313.3677	399.6557	472.015	516.7737	669.3555	741.4639	796.9325	814.5265	862.5804	899.1697	915.6822	937.2882	960.1499	981.4207	1008.4604	1011.9177	1028.9299	1058.657	1093.5076	1142.6211	1161.833	1169.8893	1209.7722	1231.8715	1252.8258	1275.6649	1332.0325	1355.5113	1428.5067	1491.3857	1530.0076	1665.6973	3038.2417	3082.2014	3085.281	3138.4084	3181.4015	3197.8026	3234.945
C1CC2(O1)C1OC=NC21	C1C[C@@]2(O1)[C@H]1OC=N[C@@H]21	
InChI=1S/C6H7NO2/c1-2-9-6(1)4-5(6)8-3-7-4/h3-5H,1-2H2	InChI=1S/C6H7NO2/c1-2-9-6(1)4-5(6)8-3-7-4/h3-5H,1-2H2/t4-,5+,6+/m1/s1
