18
gdb 105356	2.24966	1.65779	1.18957	2.8342	72.26	-0.2406	-0.0394	0.2012	1085.8337	0.145633	-439.025546	-439.016803	-439.015859	-439.059142	31.994	
C	 0.366762921	 1.2230084099	-0.0217203053	-0.263095
O	 0.1854053748	-0.1711920785	 0.165972129	-0.28987
C	-1.157402841	-0.5905414765	 0.0951533722	 0.299532
C	-1.9477132151	-0.5068588532	-1.243122701	-0.238105
N	-2.1587088059	-1.9960000073	-1.2772108739	-0.118892
C	-0.8085940928	-2.5778206847	-1.329346392	-0.244465
C	-1.3065343928	-2.1068122802	-0.0225764719	-0.086221
C	-1.9267755832	-0.0633531676	 1.3044228661	 0.09911
O	-3.0834845202	 0.2644351068	 1.3103224655	-0.236365
H	 1.4378357628	 1.4159652152	 0.0643193248	 0.138212
H	 0.0241647964	 1.5470602952	-1.0140689912	 0.11831
H	-0.1606264976	 1.8194904557	 0.7367761496	 0.11929
H	-2.9008430437	 0.0091990012	-1.1253417388	 0.141797
H	-1.3994114972	-0.1190802333	-2.1064700267	 0.108446
H	-0.8147922542	-3.6506607822	-1.4949442716	 0.128461
H	-0.0091290665	-2.0357864834	-1.8276703838	 0.125417
H	-1.5631278466	-2.7746626837	 0.7931145515	 0.1054
H	-1.2958414483	-0.0239029732	 2.2219241873	 0.093039
83.7438	119.6551	146.1314	184.6423	201.7759	269.3282	315.37	417.5805	422.87	508.2992	584.9673	659.3453	758.5129	791.7687	837.496	912.7319	945.2057	972.5402	1001.9314	1052.4315	1079.2684	1106.7591	1110.8321	1129.8027	1172.2186	1181.2295	1197.0721	1213.1856	1232.4143	1250.1831	1283.9063	1364.4177	1398.9688	1471.8294	1480.4323	1490.2736	1501.7188	1507.313	1834.7941	2876.5679	2992.2081	3044.1719	3060.5936	3114.6007	3127.875	3141.4378	3167.3804	3207.7082
COC1(CN2CC12)C=O	CO[C@]1(CN2C[C@@H]12)C=O	
InChI=1S/C6H9NO2/c1-9-6(4-8)3-7-2-5(6)7/h4-5H,2-3H2,1H3	InChI=1S/C6H9NO2/c1-9-6(4-8)3-7-2-5(6)7/h4-5H,2-3H2,1H3/t5-,6+,7?/m0/s1
