18
gdb 17482	3.37705	2.48148	1.94305	1.4572	70.26	-0.2344	0.0945	0.3289	770.9736	0.155333	-347.783956	-347.777415	-347.776471	-347.814083	26.938	
C	 0.0330276686	 1.4947965392	 0.0878498853	-0.47879
C	-0.0448177706	-0.0084372174	 0.002144748	 0.421
C	 0.2521522564	-0.710170721	-1.3718342867	-0.279485
C	-0.9313000394	-1.6370229769	-1.0921048475	-0.075186
C	-0.8904496453	-2.1155117416	 0.3509142406	-0.067786
C	 0.4195835797	-1.9700532936	 1.1165570704	-0.107898
O	 0.7529492078	-0.5820636551	 1.0378936655	-0.299406
C	-1.4136703652	-0.7472224017	 0.0447528041	-0.125679
H	 1.0637381854	 1.8324825927	-0.0583225249	 0.126708
H	-0.5949770926	 1.9582247474	-0.6780237133	 0.116488
H	-0.3019976504	 1.8375479196	 1.0716269457	 0.124567
H	 0.0494980693	-0.0437158877	-2.2152001139	 0.098063
H	 1.250914012	-1.1448346281	-1.4861902494	 0.093452
H	-1.5260464825	-2.1577228748	-1.8333354781	 0.08297
H	-1.5823088139	-2.9033238863	 0.6248105218	 0.089708
H	 0.3069293868	-2.244200822	 2.1724348846	 0.10192
H	 1.2271576535	-2.5823031334	 0.6908564246	 0.095142
H	-2.3898915396	-0.3544236094	 0.2953160731	 0.084212
215.3201	218.2089	277.5825	318.9844	419.922	450.2357	597.2609	662.2288	734.4098	748.5645	785.2911	829.455	863.3029	894.3334	927.8683	954.584	984.6308	999.7457	1013.1356	1034.737	1048.0181	1077.6249	1119.6058	1132.1094	1161.947	1194.2949	1212.1311	1221.0217	1241.9123	1313.5913	1332.8183	1364.1397	1401.8858	1414.791	1482.0268	1492.2006	1494.3295	1527.3617	3000.007	3038.6442	3042.3458	3045.6685	3094.898	3111.3759	3119.1952	3176.5258	3187.1709	3205.6945
CC12CC3C(CO1)C23	C[C@@]12C[C@H]3[C@@H](CO1)[C@@H]23	
InChI=1S/C7H10O/c1-7-2-4-5(3-8-7)6(4)7/h4-6H,2-3H2,1H3	InChI=1S/C7H10O/c1-7-2-4-5(3-8-7)6(4)7/h4-6H,2-3H2,1H3/t4-,5+,6-,7-/m0/s1
