15
gdb 52474	4.49218	0.55248	0.50398	3.3039	94.4	-0.2488	-0.0301	0.2188	2118.2069	0.110959	-379.626386	-379.616162	-379.615218	-379.664852	34.147	
C	-0.0059697982	 1.4966091629	 0.0273832478	-0.518893
C	 0.0072298278	 0.0459375428	 0.0059835794	 0.252586
C	 0.0183514002	-1.1638817839	-0.0129038003	-0.193759
C	 0.0318695757	-2.5227585276	-0.0334311644	-0.211616
C	 0.0375026103	-3.7316757848	-0.0540430497	 0.404777
C	 0.0547148133	-5.192923353	-0.0770721914	-0.355594
N	-1.2914097767	-5.7403735698	 0.1338175169	-0.483603
C	 0.6983735657	-5.6757158116	-1.3284777269	 0.276307
N	 1.1589545496	-6.1036654865	-2.2983812187	-0.32084
H	 0.9376847078	 1.8931025889	 0.4182482067	 0.162324
H	-0.14990291	 1.9049597899	-0.9790599013	 0.162383
H	-0.8158940916	 1.8738250077	 0.6615890106	 0.161811
H	 0.6810405395	-5.5489924833	 0.753062525	 0.165643
H	-1.9020101218	-5.4331232899	-0.6179749254	 0.250587
H	-1.2518301517	-6.7552116716	 0.0902230416	 0.247888
6.1172	54.3175	72.2805	136.6156	179.291	215.6519	265.5946	305.0807	338.9145	381.3932	435.2099	489.1188	552.3647	566.6761	607.346	689.7471	827.9405	911.2023	972.3863	1046.9572	1047.3442	1100.3159	1190.453	1272.1822	1323.8283	1392.3997	1413.5558	1469.6644	1470.1713	1655.1687	2285.586	2348.5357	2391.6152	3013.8302	3026.783	3090.8308	3091.0266	3490.9482	3576.981
CC#CC#CC(N)C#N	CC#CC#C[C@@H](N)C#N	
InChI=1S/C7H6N2/c1-2-3-4-5-7(9)6-8/h7H,9H2,1H3	InChI=1S/C7H6N2/c1-2-3-4-5-7(9)6-8/h7H,9H2,1H3/t7-/m1/s1
