23
gdb 110858	2.14946	1.24365	1.08749	1.2287	85.89	-0.2371	0.0792	0.3164	1312.9709	0.204509	-388.264457	-388.254468	-388.253524	-388.298933	37.995	
C	-0.0408186871	 1.6655784164	-0.5743629453	-0.374577
C	 0.0976458308	 0.2007579142	-0.1397568473	-0.214659
C	-1.2408041136	-0.5162134273	-0.1379563883	-0.053824
C	-1.8917671309	-1.1968643978	-1.326102965	-0.133268
C	-0.8685195519	-2.0146997253	-2.1274920345	-0.2651
C	-0.6088241844	-2.9081999407	-0.8639449304	-0.012143
C	 0.8032530257	-3.2219835649	-0.3800292312	-0.427673
C	-1.5436855335	-1.9898330872	-0.0632091544	 0.332898
O	-2.4282401936	-2.4951950098	 0.8822970697	-0.463947
H	 0.9267562166	 2.1770525378	-0.5663151326	 0.108806
H	-0.4522940616	 1.7365512685	-1.5867078349	 0.120806
H	-0.7141458845	 2.2138839219	 0.0939453846	 0.112537
H	 0.8067960499	-0.3029281732	-0.8024456619	 0.103945
H	 0.5380339086	 0.1574100413	 0.865374617	 0.090519
H	-1.9960873314	 0.0216795858	 0.437584503	 0.081079
H	-2.8664146197	-0.8937418835	-1.6886985986	 0.08756
H	-1.3065265941	-2.5699916595	-2.9593142826	 0.101867
H	-0.004762165	-1.458459947	-2.5057703874	 0.095264
H	-1.1502805378	-3.8501563478	-1.0043198961	 0.083697
H	 1.4064301455	-2.3217147129	-0.2358755797	 0.117055
H	 0.7726031864	-3.7584076608	 0.5754706352	 0.112146
H	 1.3284698773	-3.8629256197	-1.097039918	 0.113444
H	-2.0779675616	-2.3043477485	 1.7584460087	 0.283567
74.9274	138.6408	166.445	190.7124	207.7344	232.7894	234.8297	292.8914	300.8867	384.7862	411.6073	521.3409	557.5904	634.8281	706.8041	739.7297	823.5985	830.9626	867.891	900.7677	937.6072	963.2559	998.1879	1013.8146	1047.7425	1086.2894	1105.0367	1120.9281	1129.7384	1154.1561	1176.287	1209.689	1232.9026	1246.4385	1290.1024	1295.6068	1324.547	1332.7497	1357.9439	1386.8351	1407.3335	1410.2354	1469.105	1484.7415	1497.1447	1498.783	1500.2776	1504.5361	1510.7652	3019.3784	3029.654	3030.5891	3044.6611	3048.6007	3077.342	3087.267	3095.6478	3104.2111	3105.1309	3106.0276	3117.6048	3184.8435	3805.5211
CCC1C2CC(C)C12O	CC[C@H]1[C@H]2C[C@@H](C)[C@@]12O	
InChI=1S/C8H14O/c1-3-6-7-4-5(2)8(6,7)9/h5-7,9H,3-4H2,1-2H3	InChI=1S/C8H14O/c1-3-6-7-4-5(2)8(6,7)9/h5-7,9H,3-4H2,1-2H3/t5-,6+,7-,8-/m1/s1
