17
gdb 37879	3.02694	2.22791	2.1471	2.6368	68.59	-0.2266	0.062	0.2886	764.5896	0.140347	-421.790918	-421.78572	-421.784776	-421.820154	23.61	
C	-0.045809086	 1.5705283608	 0.0119128799	-0.231351
C	 1.4753542852	 1.7743196081	 0.0010680259	-0.086406
C	 2.0185121737	 0.5870707573	 0.8959834732	 0.042867
O	 0.8749739299	-0.2095672585	 1.1644127747	-0.239019
C	 0.0637804441	 0.0348417263	 0.008538394	 0.048364
C	 0.97698555	-0.2617314877	-1.2284518592	 0.073531
O	 2.0343094325	-1.1729256735	-0.8395012364	-0.278905
C	 2.7668384332	-0.0341594653	-0.3604589088	 0.09013
C	 1.966120676	 0.9611617173	-1.220340312	-0.096908
H	-0.5570810875	 1.9441704964	 0.9022123559	 0.11001
H	-0.5224426127	 1.9759281865	-0.8869538892	 0.100397
H	 1.8768439582	 2.7714614062	 0.1693866332	 0.072569
H	 2.57043003	 0.7730469323	 1.8165491445	 0.080386
H	-0.8478668922	-0.5560720806	 0.0860763385	 0.08078
H	 0.4557648452	-0.5734888057	-2.1350294816	 0.083847
H	 3.8473335456	-0.1804406988	-0.3330442983	 0.075641
H	 2.2890706147	 1.4036323989	-2.1611140743	 0.074067
377.569	452.781	458.7518	588.5529	636.091	656.9567	750.5609	781.8583	800.6015	812.1693	845.0407	876.0703	885.2957	907.8234	934.067	944.4576	975.8969	992.0688	1000.9162	1014.941	1056.6749	1070.6686	1112.4372	1141.5556	1153.1161	1193.5402	1200.0257	1233.6989	1249.9586	1261.8991	1267.0448	1281.461	1300.59	1315.14	1339.8842	1357.0886	1482.0387	3053.3956	3097.9394	3104.5346	3114.2861	3121.9181	3125.9829	3134.1944	3143.7304
C1C2C3OC1C1OC3C21	C1[C@H]2[C@H]3O[C@@H]1[C@@H]1O[C@H]3[C@H]21	
InChI=1S/C7H8O2/c1-2-4-6-3(1)8-5(2)7(4)9-6/h2-7H,1H2	InChI=1S/C7H8O2/c1-2-4-6-3(1)8-5(2)7(4)9-6/h2-7H,1H2/t2-,3+,4-,5-,6+,7+/m1/s1
