16
gdb 47302	3.14596	1.36167	1.03359	1.331	66.57	-0.257	-0.0373	0.2197	1110.1019	0.124377	-475.036732	-475.028691	-475.027747	-475.070438	29.343	
N	 0.1659729077	 1.4589698269	-0.1801838335	-0.497887
C	-0.1264067005	 0.2334556197	-0.169852447	 0.429351
O	-1.3625549542	-0.1586600573	-0.5375308662	-0.221936
C	-1.5671679477	-1.3272394149	-1.3342734625	-0.091134
C	-0.986016609	-2.6394129373	-0.7832646371	-0.315418
C	 0.5022659884	-2.7715083462	-1.049949568	 0.363911
O	 1.0002572873	-3.7014134829	-1.6344991202	-0.289603
C	 1.3675500573	-1.6099286891	-0.5584570169	-0.203844
O	 0.6834474782	-0.7515911375	 0.348489944	-0.25291
H	 1.0878164389	 1.5900325292	 0.2334285768	 0.233483
H	-2.6535195377	-1.4147951322	-1.3913843115	 0.141029
H	-1.1958283166	-1.1395647042	-2.3512438889	 0.123931
H	-1.1756282684	-2.6861075813	 0.2949294706	 0.147157
H	-1.4847821548	-3.4844765136	-1.2647315933	 0.133581
H	 2.2287083845	-2.0175008862	-0.0234371838	 0.156585
H	 1.7478248766	-1.0499808233	-1.4242328426	 0.143703
33.6121	97.2147	170.9942	237.5903	289.6991	356.4534	448.7598	482.8146	542.6078	567.1721	625.4037	726.6016	770.6078	823.3804	887.4302	905.1149	948.6749	959.3879	1019.8263	1084.7992	1100.3469	1137.11	1182.5516	1241.3173	1272.3215	1296.0283	1301.0369	1347.0341	1365.2662	1425.1592	1446.254	1460.0025	1509.3379	1756.8333	1828.4546	3014.9695	3020.6089	3054.1444	3110.5262	3114.5575	3118.3975	3514.7436
N=C1OCCC(=O)CO1	[NH][C]1OCCC(=O)CO1	
InChI=1S/C5H7NO3/c6-5-8-2-1-4(7)3-9-5/h6H,1-3H2	InChI=1S/C5H7NO3/c6-5-8-2-1-4(7)3-9-5/h6H,1-3H2
