18
gdb 88319	2.77719	1.00057	0.93361	2.8565	74.75	-0.2505	-0.0322	0.2183	1342.4987	0.144863	-439.096257	-439.08661	-439.085666	-439.132601	33.438	
C	 0.1306872317	 1.3933044752	 0.7232754012	-0.4028
C	 0.2996491155	 0.078095336	 0.0006256268	 0.016963
C	 1.5962770944	-0.6886353477	 0.0777464933	-0.264684
N	 0.3957523259	-1.1650809956	 0.7330703111	-0.081398
C	 0.1599679853	-1.3661053018	 2.0770577227	 0.365991
O	-0.7840731818	-0.8849070111	 2.6689251139	-0.357411
C	 1.1344125214	-2.3203689768	 2.7661189706	-0.37399
C	 1.7274832172	-1.659191954	 4.0008373262	 0.160103
O	 2.9020742964	-1.650821342	 4.2597484157	-0.23739
H	 0.7944794055	 1.4606383439	 1.5896765953	 0.125096
H	 0.3628497501	 2.2208378872	 0.0456059209	 0.123845
H	-0.8951886546	 1.5102862885	 1.0808738239	 0.153216
H	-0.2635007092	-0.0121823177	-0.9271192086	 0.10788
H	 1.9428038827	-1.2721156751	-0.7713499167	 0.130221
H	 2.3838360113	-0.270305816	 0.7013321415	 0.138036
H	 0.5386769314	-3.1750216695	 3.1123225775	 0.157072
H	 1.9326634851	-2.6795080644	 2.11578416	 0.130493
H	 0.9737031016	-1.1722235291	 4.6534424246	 0.108758
21.0067	64.4297	102.6716	143.2617	183.7631	229.1011	237.5914	367.4238	379.8887	440.7626	469.4075	630.6209	632.1842	742.3033	828.5773	837.478	909.4779	920.9278	1024.2375	1047.998	1059.1229	1069.2355	1115.7937	1129.6469	1156.188	1162.0027	1192.3374	1210.7108	1280.7478	1386.8184	1409.7953	1414.0383	1439.2644	1450.4876	1482.8414	1492.5303	1515.6357	1766.7771	1835.1464	2928.3425	3040.0971	3045.4898	3100.6137	3109.3962	3122.9796	3131.5326	3136.5244	3190.1644
CC1CN1C(=O)CC=O	C[C@H]1CN1C(=O)CC=O	
InChI=1S/C6H9NO2/c1-5-4-7(5)6(9)2-3-8/h3,5H,2,4H2,1H3	InChI=1S/C6H9NO2/c1-5-4-7(5)6(9)2-3-8/h3,5H,2,4H2,1H3/t5-,7?/m0/s1
