22
gdb 91800	2.24434	1.74242	1.27006	3.2996	81.26	-0.2414	0.0671	0.3084	1101.9584	0.195406	-404.351908	-404.343133	-404.342189	-404.384549	35.211	
C	-0.923933115	 0.9706889005	-0.0908630131	-0.399528
C	-0.0018364354	-0.2458677823	-0.1563261465	-0.043561
C	 1.0550072825	-0.1874155102	-1.3044724136	 0.096247
O	 1.5626128694	 1.1160254128	-1.5184088141	-0.436638
C	 2.167345295	-1.1685345447	-0.8474285335	-0.241732
C	 2.1444163783	-1.0553883459	 0.6642596309	-0.0805
N	 2.0497521434	 0.356888803	 1.1260183153	-0.395628
C	 0.8354904758	-0.5052657006	 1.0978312722	 0.346951
C	 0.1646544516	-0.8754847892	 2.3943617366	-0.500712
H	-0.350680397	 1.8841704226	 0.0809436224	 0.126583
H	-1.4695629135	 1.0961627545	-1.0310754444	 0.116111
H	-1.6617726888	 0.8659569752	 0.7115867727	 0.102193
H	-0.6116364514	-1.1476547705	-0.3155056828	 0.067401
H	 0.6116549299	-0.4927172808	-2.2565129448	 0.073088
H	 1.9684573565	 1.3641856735	-0.6721700909	 0.287594
H	 1.9326434723	-2.1992312424	-1.1398975996	 0.096171
H	 3.1261892421	-0.8954341807	-1.2970431539	 0.109053
H	 2.6956550693	-1.7576366719	 1.2824439012	 0.082132
H	 2.395584281	 0.4285915017	 2.0797234754	 0.228005
H	-0.4405338985	-0.0484276015	 2.7821753631	 0.129451
H	-0.5003660117	-1.7355124164	 2.2582909741	 0.125463
H	 0.9013644744	-1.1399578965	 3.1609051335	 0.111856
129.6828	193.8472	204.2044	232.864	246.4129	270.5963	312.4894	409.2819	424.4261	473.6232	544.9859	605.3955	651.6944	664.0311	762.7934	815.373	838.7256	873.8031	883.787	921.841	970.8025	994.7006	1014.004	1045.0362	1052.4345	1078.3781	1107.2091	1128.6515	1141.0188	1150.6207	1210.9805	1257.4331	1270.494	1293.9853	1316.7677	1339.1088	1358.3469	1377.8206	1411.6364	1416.2312	1440.3789	1469.0978	1480.0752	1483.7732	1496.2832	1497.518	1503.1656	2997.4858	3024.2613	3036.2502	3040.4549	3070.9351	3088.9112	3093.8207	3095.2683	3101.2697	3130.2088	3156.5988	3498.3032	3673.6916
CC1C(O)CC2NC12C	C[C@H]1[C@@H](O)C[C@H]2N[C@@]12C	
InChI=1S/C7H13NO/c1-4-5(9)3-6-7(4,2)8-6/h4-6,8-9H,3H2,1-2H3	InChI=1S/C7H13NO/c1-4-5(9)3-6-7(4,2)8-6/h4-6,8-9H,3H2,1-2H3/t4-,5-,6+,7-/m0/s1
