17
gdb 67073	2.70838	1.56441	1.33084	2.9762	77.31	-0.2559	0.0078	0.2637	1015.0189	0.136729	-380.828122	-380.8204	-380.819456	-380.860185	29.728	
C	-0.1283700461	 1.5315234621	-0.0539324937	-0.530587
C	 0.061113527	 0.0570281503	 0.0040246282	 0.308973
C	 0.6767263803	-0.9749517708	-0.8632051433	-0.090079
C	 1.3992633245	-1.6482152888	 0.2977430225	-0.283907
C	 0.3269079432	-0.973884347	 1.2040493134	 0.128129
C	-0.9756896502	-1.6458998827	 0.71378102	-0.187996
N	-0.8147562926	-0.975388756	-0.6098931559	-0.180281
C	 0.5853470508	-0.6762501718	 2.5847519366	 0.158091
N	 0.7807981371	-0.4162692436	 3.6954025218	-0.342528
H	 0.781456789	 2.0597615964	 0.2487818168	 0.137569
H	-0.377881058	 1.8278217	-1.0772914164	 0.144578
H	-0.9430699269	 1.8545745537	 0.6026703565	 0.13929
H	 0.982511961	-0.9029079555	-1.898173457	 0.112119
H	 1.4566743283	-2.7400269911	 0.3390010741	 0.114118
H	 2.3889777369	-1.2128067527	 0.4500891548	 0.129501
H	-0.9985185494	-2.7405972334	 0.6962633456	 0.112853
H	-1.8710729649	-1.2562540994	 1.2016351758	 0.130158
119.2955	152.1903	191.6944	226.0746	290.3603	414.314	478.8318	515.7929	532.4865	548.2196	663.7204	705.8099	739.352	840.5364	894.8278	927.1382	940.8044	970.7126	990.2849	1061.1597	1079.1231	1092.9459	1111.2219	1148.1975	1154.4801	1170.2255	1239.7963	1246.4215	1269.2573	1319.1279	1399.9783	1448.5711	1476.2575	1488.592	1491.4969	1515.088	2345.0899	3035.0795	3048.2435	3058.0465	3101.384	3114.5973	3121.9398	3125.2705	3213.0914
CC12C3CC1(CN23)C#N	C[C@@]12[C@H]3C[C@@]1(CN23)C#N	
InChI=1S/C7H8N2/c1-6-5-2-7(6,3-8)4-9(5)6/h5H,2,4H2,1H3	InChI=1S/C7H8N2/c1-6-5-2-7(6,3-8)4-9(5)6/h5H,2,4H2,1H3/t5-,6-,7+,9?/m1/s1
