18
gdb 90209	3.18613	1.72201	1.52867	0.6992	76.55	-0.218	0.0274	0.2454	938.1825	0.146901	-401.757441	-401.750211	-401.749267	-401.788559	29.524	
C	-0.4612897802	 1.4400516192	-0.022487842	-0.40446
C	 0.0344906504	 0.0120983088	 0.0505834334	 0.034791
O	 1.1390118801	-0.273957215	-0.9245136297	-0.351689
C	 2.0396911481	-0.3961990327	 0.1955603864	 0.300433
C	 2.7493145381	 0.7246860566	 0.9363863729	-0.226769
N	 2.2417972195	-0.1442882941	 2.0900716258	-0.197353
C	 2.5645165763	-1.4387969504	 1.2795984202	-0.051944
C	 1.1695515119	-2.0185850361	 1.4818679025	-0.286955
C	 0.9446668013	-0.528895482	 1.1996031994	 0.15936
H	 0.3302122024	 2.1667935221	 0.1659620302	 0.132147
H	-0.8737348763	 1.6355752233	-1.0171129681	 0.13522
H	-1.2560243652	 1.5915189553	 0.7153713872	 0.129368
H	-0.7884294748	-0.6882719418	-0.1307382581	 0.10326
H	 3.8413632494	 0.7722869751	 0.888286056	 0.105097
H	 2.3175401485	 1.727703383	 0.9289587833	 0.110362
H	 3.5526672554	-1.8908914072	 1.4081352395	 0.086426
H	 0.8198443475	-2.7069018046	 0.7090233914	 0.113783
H	 0.9310242278	-2.3779036494	 2.4858887498	 0.108922
179.8179	200.0765	213.4121	332.337	381.981	405.2065	472.6002	488.6537	516.7357	717.5689	743.8799	784.2815	810.3559	846.5903	872.7638	901.828	915.0271	942.9793	1013.2216	1026.7905	1029.4802	1070.5044	1090.7923	1111.8319	1129.88	1148.8152	1152.6829	1204.7394	1208.0878	1232.972	1250.0799	1258.3722	1295.281	1363.2683	1407.6838	1480.212	1484.0948	1491.1614	1520.536	3042.7461	3047.9693	3055.8569	3059.9908	3075.4258	3111.5359	3120.268	3128.1418	3143.6167
CC1OC23CN4C2CC134	C[C@H]1O[C@]23CN4[C@H]2C[C@]134	
InChI=1S/C7H9NO/c1-4-6-2-5-7(6,9-4)3-8(5)6/h4-5H,2-3H2,1H3	InChI=1S/C7H9NO/c1-4-6-2-5-7(6,9-4)3-8(5)6/h4-5H,2-3H2,1H3/t4-,5+,6+,7-/m1/s1
