21
gdb 106050	2.60129	1.57571	1.22884	1.216	82.	-0.2264	0.0902	0.3165	1115.6205	0.182078	-387.02919	-387.02055	-387.019606	-387.062292	33.419	
C	-0.1670610088	-0.6059216954	 0.5660950925	-0.25451
O	-0.3415760232	-0.3766245452	-0.8214725901	-0.288922
C	 0.7605703345	-0.6768773389	-1.5872798122	 0.431009
C	 0.525379501	-1.2025043067	-3.0059541356	-0.118054
C	 1.7828989827	-0.9284106267	-3.824539393	-0.240082
C	 2.5575580952	-1.2102309574	-2.5066274848	-0.084423
C	 1.3044892341	-2.0301690303	-1.9942050364	-0.175905
C	 2.1567794088	-0.0536225112	-1.5285782356	-0.038941
C	 2.3853396184	 1.4107476626	-1.8814201711	-0.426763
H	 0.1093359869	-1.6498511445	 0.7685823979	 0.109361
H	 0.6030161833	 0.0487335948	 0.9964491733	 0.112524
H	-1.1233810483	-0.3860339981	 1.0458827588	 0.126439
H	-0.4894925924	-1.3708214282	-3.3431835531	 0.087995
H	 1.9526793345	-1.7225921186	-4.5573656008	 0.098012
H	 1.9150105272	 0.0452790158	-4.308417738	 0.088479
H	 3.5849339121	-1.5682672996	-2.5223462295	 0.066884
H	 1.167334667	-3.0343678829	-1.6221464976	 0.090023
H	 2.6059612316	-0.2766834101	-0.552886359	 0.066632
H	 1.9065566428	 1.6872121992	-2.8246868028	 0.12149
H	 1.9709213858	 2.0619047858	-1.1041529752	 0.117791
H	 3.4549082267	 1.6350965155	-1.9642682177	 0.110962
84.4826	160.549	165.052	192.4801	224.193	246.9261	360.7206	407.739	497.6306	595.3114	614.3373	686.56	751.8035	782.8869	825.4892	839.6892	902.1828	920.7635	950.303	969.8134	996.0514	1011.5315	1055.8662	1075.5697	1100.6864	1108.9926	1127.0678	1141.1886	1155.4634	1179.2555	1195.6404	1205.9357	1233.8412	1268.1317	1275.3352	1316.5839	1372.8285	1407.5817	1418.0207	1482.7293	1489.0091	1491.0596	1494.4773	1507.2027	1511.5496	2995.3419	3027.627	3031.9529	3039.4847	3050.027	3091.0092	3091.6147	3112.2515	3121.1063	3133.7331	3198.7278	3229.6979
COC12C3CC(C13)C2C	CO[C@]12[C@H]3C[C@H]([C@@H]13)[C@H]2C	
InChI=1S/C8H12O/c1-4-5-3-6-7(5)8(4,6)9-2/h4-7H,3H2,1-2H3	InChI=1S/C8H12O/c1-4-5-3-6-7(5)8(4,6)9-2/h4-7H,3H2,1-2H3/t4-,5+,6+,7-,8-/m1/s1
