15
gdb 23338	2.31166	1.54196	1.10563	3.3441	71.62	-0.2484	-0.0085	0.2399	1089.0427	0.111364	-453.830705	-453.822798	-453.821853	-453.863541	29.255	
O	-0.314471937	 1.2731779896	 0.3655860931	-0.391259
N	-0.1398175875	-0.1237070423	 0.3051655177	-0.310321
C	-1.2227528961	-0.713287934	 0.0595950455	 0.520616
C	-2.7323130755	-0.5570304939	-0.1738931325	-0.127281
C	-2.5570602184	-1.616889627	-1.308935063	-0.217838
C	-1.7136310142	-2.1456001644	-0.1063422788	-0.13669
N	-2.9065815268	-1.7475511709	 0.7555204245	-0.085949
C	-2.8944705839	-1.6458772019	 2.1356708475	 0.145665
O	-3.3622985296	-0.7235984597	 2.7579313084	-0.292078
H	 0.5724933636	 1.5758384554	 0.5890710088	 0.311452
H	-3.3704027329	 0.318320924	-0.1220787559	 0.134284
H	-3.4523075312	-2.2001646785	-1.5277477876	 0.124723
H	-2.0037415326	-1.3038053039	-2.1940180767	 0.126606
H	-1.1920400559	-3.0919254968	 0.0141977226	 0.115331
H	-2.4897045321	-2.5625838756	 2.6100937463	 0.082739
71.4166	152.9331	195.6617	208.4372	278.1962	326.0173	405.0767	465.2241	536.8688	619.6948	701.6694	750.32	780.5705	798.3912	885.5585	923.1952	965.3429	1010.4848	1023.4648	1045.8786	1069.7864	1113.7223	1130.0368	1163.2912	1212.9957	1214.5055	1223.2343	1307.6855	1412.9435	1415.2952	1483.1543	1801.1034	1825.5812	2933.4614	3085.9464	3161.7687	3171.1152	3197.0436	3816.0209
ON=C1C2CC1N2C=O	ON=C1[C@H]2C[C@@H]1N2C=O	
InChI=1S/C5H6N2O2/c8-2-7-3-1-4(7)5(3)6-9/h2-4,9H,1H2	InChI=1S/C5H6N2O2/c8-2-7-3-1-4(7)5(3)6-9/h2-4,9H,1H2/t3-,4+
