16
gdb 123347	6.98334	0.74103	0.69611	3.1916	76.55	-0.2546	0.0061	0.2607	1550.9045	0.125455	-396.92631	-396.917947	-396.917003	-396.960568	30.052	
C	 0.0192746446	-1.2035652815	 0.0420053735	-0.443698
C	-0.0010961249	-0.0035460893	 0.1089768699	 0.29768
C	 0.0071959005	 1.4516151694	 0.1788014062	-0.349357
C	 1.377778467	 2.057307144	-0.209378263	-0.291886
C	 1.3845570444	 3.5460486645	-0.0830851719	 0.342707
N	 1.628406609	 4.3516914837	-1.1073611904	-0.266122
N	 1.5302292281	 5.5785132465	-0.5387263132	-0.178453
C	 1.234996199	 5.4643504344	 0.7701799868	 0.016407
N	 1.1337520273	 4.1927747866	 1.0980401814	-0.30009
H	 0.0235204974	-2.2638131135	-0.0110349834	 0.192794
H	-0.7679878003	 1.8581909808	-0.4824957302	 0.133747
H	-0.2476978583	 1.7816453234	 1.1922471025	 0.153049
H	 2.1450670318	 1.6315859547	 0.4458738633	 0.131125
H	 1.6330290063	 1.7867338843	-1.2362694198	 0.131936
H	 1.6751824225	 6.4036027698	-1.096810124	 0.283076
H	 1.1083313856	 6.3123088724	 1.4266270725	 0.147084
46.2845	64.0162	100.6248	190.7082	317.6346	361.0448	384.9487	481.1502	540.9442	615.1039	640.311	682.0959	723.5891	767.502	799.9079	858.2506	967.9641	993.1995	999.3866	1024.9956	1031.2371	1101.2883	1155.49	1190.8939	1280.8054	1292.3179	1305.8091	1356.1472	1368.339	1469.7367	1472.0787	1481.084	1493.8807	1561.8762	2239.3004	3030.8553	3056.467	3069.4543	3119.2318	3257.4673	3507.9061	3667.171
C#CCCC1=NNC=N1	C#CCCc1n[nH]cn1	
InChI=1S/C6H7N3/c1-2-3-4-6-7-5-8-9-6/h1,5H,3-4H2,(H,7,8,9)	InChI=1S/C6H7N3/c1-2-3-4-6-7-5-8-9-6/h1,5H,3-4H2,(H,7,8,9)
