14
gdb 45936	2.86365	1.46093	0.99857	2.855	64.38	-0.2635	-0.0891	0.1745	1092.4123	0.101847	-473.910181	-473.902603	-473.901658	-473.942906	27.741	
O	 0.0036174665	-0.1030855864	 0.0175374534	-0.323954
C	-0.0553857847	 1.1014983399	 0.0508080252	 0.410514
C	-1.3503520077	 1.8926072167	 0.0777232511	-0.335726
C	-1.227490294	 3.2326751002	 0.8178465931	-0.334213
C	-0.0630489407	 4.0444957434	 0.2909409581	 0.309848
O	-0.0875375945	 5.226604796	 0.0819589896	-0.259673
C	 1.2504774731	 3.2545976721	 0.0500013293	 0.326691
O	 2.3173080745	 3.7965693861	-0.0815389636	-0.2997
N	 1.1129032353	 1.8703502121	 0.0325684425	-0.366993
H	-1.6441448543	 2.0657819767	-0.9656884923	 0.153855
H	-2.1148800511	 1.2517221965	 0.519483115	 0.153481
H	-2.1380952006	 3.829858563	 0.7413386628	 0.145946
H	-1.0414495397	 3.0460299091	 1.8848588435	 0.147927
H	 1.9757491278	 1.3445781346	-0.0617071976	 0.271997
63.269	128.1707	162.3389	326.506	364.1967	404.3282	415.5074	493.1417	563.6954	609.0081	648.4002	680.5777	770.3291	793.0735	830.529	916.9756	996.3873	1029.2029	1122.1662	1172.6844	1201.0472	1295.8225	1315.984	1329.2112	1361.1932	1411.7756	1464.4552	1471.5042	1816.9081	1830.1992	1844.9016	3023.8947	3042.6492	3119.5185	3125.9056	3560.118
O=C1CCC(=O)C(=O)N1	O=C1CCC(=O)C(=O)N1	
InChI=1S/C5H5NO3/c7-3-1-2-4(8)6-5(3)9/h1-2H2,(H,6,8,9)	InChI=1S/C5H5NO3/c7-3-1-2-4(8)6-5(3)9/h1-2H2,(H,6,8,9)
