13
gdb 130899	2.2306	1.62331	0.93955	5.1614	76.04	-0.247	-0.0561	0.1909	1139.7295	0.089606	-415.605104	-415.597422	-415.596478	-415.637582	28.096	
O	-0.0533669796	 0.0155242725	-0.0007531511	-0.255594
C	 0.0226667699	 1.219959704	 0.007494924	 0.076259
C	 1.2800303259	 1.9902736058	-0.0007283778	 0.148575
N	 2.4781156685	 1.4021649711	-0.0187656611	-0.246009
N	 3.3465589388	 2.4159928165	-0.0206340492	-0.170514
C	 2.767238828	 3.6397282228	-0.0046710711	-0.136426
C	 1.4003322059	 3.4169363148	 0.0087482248	 0.050682
C	 0.3692072836	 4.3817510031	 0.0276427329	 0.230123
C	-0.5152469251	 5.1986965604	 0.0438620588	-0.431424
H	-0.8826672889	 1.8628208611	 0.0225125155	 0.088001
H	 4.3325996823	 2.208210617	-0.0332856365	 0.290381
H	 3.3404432528	 4.5522986623	-0.0039921509	 0.159248
H	-1.2961424723	 5.9181793784	 0.0583170817	 0.196698
121.8949	126.572	167.5545	229.7907	269.4044	424.6092	475.3544	566.65	578.3038	596.546	599.6518	663.2092	682.2999	728.7426	803.969	820.5319	956.3368	1040.8586	1092.1972	1125.4191	1247.4094	1317.65	1352.2065	1431.3123	1459.6746	1495.0023	1571.1072	1808.8534	2235.8586	2912.6977	3275.8488	3501.6751	3653.4111
O=CC1=NNC=C1C#C	O=Cc1n[nH]cc1C#C	
InChI=1S/C6H4N2O/c1-2-5-3-7-8-6(5)4-9/h1,3-4H,(H,7,8)	InChI=1S/C6H4N2O/c1-2-5-3-7-8-6(5)4-9/h1,3-4H,(H,7,8)
