24
gdb 100048	2.35962	1.26994	1.06164	2.2017	86.26	-0.215	0.0792	0.2942	1304.853	0.214189	-405.501217	-405.490247	-405.489303	-405.537049	40.667	
C	 1.4004309645	 1.562068073	-0.2571776278	-0.241609
O	 1.198016784	 0.1753151935	-0.4112322977	-0.275782
C	 1.5128266156	-0.418119548	-1.6837477713	 0.348607
C	 0.7035702501	 0.24050592	-2.8185315697	-0.431272
C	 3.0126616493	-0.293228059	-2.0003345496	-0.442932
C	 0.9835025583	-1.853515755	-1.5400212375	 0.001922
C	 1.7647455919	-3.08646913	-1.863677704	-0.264335
N	 1.3329566707	-2.8168597288	-0.5030071203	-0.084691
C	 2.3210956702	-2.5463447092	 0.5292578315	-0.311215
H	 2.4507572525	 1.8586202807	-0.3871880873	 0.104158
H	 0.7844698329	 2.1609717221	-0.9422072667	 0.105826
H	 1.1030319027	 1.8026442355	 0.7669687925	 0.12745
H	 1.0586753737	 1.250512638	-3.0402284016	 0.112516
H	 0.7964327917	-0.351522141	-3.7341934776	 0.122918
H	-0.3553904094	 0.2939834863	-2.5498679107	 0.12489
H	 3.6377178683	-0.6907236282	-1.1992221296	 0.127106
H	 3.2541763248	-0.82373598	-2.9250319915	 0.121169
H	 3.2854940867	 0.7555856074	-2.1501117628	 0.114007
H	-0.0853557135	-1.8840014557	-1.7504092789	 0.084927
H	 1.2922798956	-3.9265216373	-2.3689558839	 0.107019
H	 2.8226698228	-2.9654634253	-2.0926754833	 0.102131
H	 3.2792146145	-2.1488383537	 0.1641072131	 0.097046
H	 1.9067665176	-1.8308965652	 1.2422250027	 0.135924
H	 2.5315310948	-3.48496842	 1.0533889819	 0.114219
49.5872	72.2231	149.3019	184.7577	200.697	233.7592	254.7432	280.3996	298.8646	319.2388	359.0421	382.1855	395.8648	438.9933	494.4579	602.647	700.793	767.6218	828.695	904.3036	917.3497	934.8176	1003.3354	1023.2453	1042.8303	1090.8459	1115.5181	1134.885	1149.2998	1160.4681	1179.45	1186.9487	1189.703	1204.91	1219.883	1280.384	1377.1169	1388.1255	1398.1254	1422.7853	1448.3264	1473.5243	1478.6955	1479.5738	1487.3024	1499.7453	1500.1293	1506.0944	1513.766	1515.7475	1522.0242	2993.0084	2993.8291	3037.5405	3044.7819	3052.8657	3064.9067	3085.4203	3096.0942	3106.0729	3109.6093	3116.6215	3119.9221	3128.4886	3142.0206	3163.7222
COC(C)(C)C1CN1C	COC(C)(C)[C@H]1CN1C	
InChI=1S/C7H15NO/c1-7(2,9-4)6-5-8(6)3/h6H,5H2,1-4H3	InChI=1S/C7H15NO/c1-7(2,9-4)6-5-8(6)3/h6H,5H2,1-4H3/t6-,8?/m1/s1
