18
gdb 95198	2.13741	1.89467	1.3725	4.8194	71.71	-0.225	-0.0184	0.2066	996.7189	0.149714	-439.07967	-439.071955	-439.071011	-439.11177	30.595	
O	 0.049678791	 1.4294252755	 0.074818075	-0.436473
C	 0.0285119258	 0.0136771768	-0.0268092543	 0.043741
C	 0.7665300229	-0.6144257285	 1.1657148008	-0.21675
N	 0.144104518	-0.0455686605	 2.3639075157	-0.329215
C	-1.2423295182	-0.4238105011	 2.5653715486	-0.011087
C	-2.2998736918	 0.5823998369	 2.2258264476	-0.295469
C	-2.0811528528	-0.6233467489	 1.3130340443	-0.122389
C	-1.4149929381	-0.5230209353	-0.0231508145	 0.391069
O	-1.9436400621	-0.9350294709	-1.0307525323	-0.32836
H	 0.15641731	 1.6079081559	 1.0223806956	 0.287332
H	 0.4782013768	-0.2712539101	-0.9821769092	 0.096584
H	 0.712521027	-1.7140215601	 1.1089638225	 0.101963
H	 1.820913821	-0.3204448163	 1.1474966741	 0.114293
H	 0.6929628269	-0.2083531561	 3.1962767041	 0.235774
H	-1.4358702354	-1.1104689741	 3.3863234646	 0.097289
H	-3.2253549695	 0.5896687878	 2.7904801453	 0.124031
H	-1.9705386375	 1.5487514982	 1.8656221231	 0.135418
H	-2.8610143742	-1.3761279492	 1.3326514287	 0.11225
86.6416	170.2289	238.0383	264.0155	362.663	422.2328	438.9433	451.003	553.3426	585.3567	635.058	665.2118	777.5584	787.0598	820.8605	864.4167	911.5323	957.1979	968.0626	999.0046	1048.1271	1060.3889	1082.967	1100.9865	1123.5331	1160.0609	1217.9576	1225.1756	1238.1628	1269.1374	1336.4336	1343.594	1363.9202	1413.5273	1434.208	1461.4514	1483.4403	1501.025	1804.8224	2970.7631	3074.4178	3082.3126	3125.3943	3146.1303	3177.9094	3242.9267	3584.2078	3685.5295
OC1CNC2CC2C1=O	O[C@H]1CN[C@H]2C[C@H]2C1=O	
InChI=1S/C6H9NO2/c8-5-2-7-4-1-3(4)6(5)9/h3-5,7-8H,1-2H2	InChI=1S/C6H9NO2/c8-5-2-7-4-1-3(4)6(5)9/h3-5,7-8H,1-2H2/t3-,4+,5+/m1/s1
