20
gdb 58001	3.96587	0.77578	0.72013	4.7917	78.79	-0.2461	-0.0276	0.2186	1638.6159	0.167815	-440.300909	-440.290322	-440.289378	-440.33778	36.781	
C	-0.1610664701	 1.578706353	 0.0952444068	-0.387998
C	-0.177857561	 0.036083908	 0.0261227301	-0.074498
C	 0.3889021515	-0.5916482534	 1.3039249492	-0.385723
C	-1.6173462487	-0.4125498873	-0.2137295167	 0.375511
O	-2.4096075947	-0.5927895727	 0.6790922903	-0.301093
C	-2.0096668662	-0.6279504043	-1.6786050556	-0.203615
O	-3.3982481301	-0.6779943181	-1.8966271433	-0.166221
C	-4.0507840516	-1.7742986671	-1.4418207218	 0.150316
N	-5.3019428237	-1.8464496986	-1.5702720969	-0.445225
H	 0.8640327049	 1.9377374502	 0.2247557569	 0.125784
H	-0.5650009936	 2.0366708675	-0.813277645	 0.12244
H	-0.7579800724	 1.9262374013	 0.9437169431	 0.142419
H	 0.4252379491	-0.2721656383	-0.8388653738	 0.081767
H	-0.2493541099	-0.3487292562	 2.1569253869	 0.144028
H	 0.4402519142	-1.6818274815	 1.2253045519	 0.117028
H	 1.3973567857	-0.2163157482	 1.5007808565	 0.114619
H	-1.6270499095	 0.1925278661	-2.2930086325	 0.143761
H	-1.5048033065	-1.5452188069	-2.0256617465	 0.128476
H	-3.3879303545	-2.5321309814	-1.0073313253	 0.088482
H	-5.6379231329	-2.732738032	-1.1997265041	 0.229744
34.6837	57.8038	81.8539	159.0772	199.1275	204.7199	220.4169	255.3737	292.1865	311.8305	357.2661	421.401	564.3355	615.9995	680.292	812.9029	831.2345	879.2059	931.7854	952.4695	974.5943	1006.1393	1032.9284	1043.6588	1114.6408	1127.3557	1183.1694	1199.8299	1243.2563	1320.9405	1324.4137	1368.8549	1391.0855	1397.9307	1418.0987	1421.1481	1466.6027	1486.2756	1489.3572	1501.8742	1511.819	1749.3935	1822.4686	2976.8783	3015.4446	3037.5207	3044.5938	3046.8616	3091.3422	3107.4745	3111.4836	3118.5865	3131.138	3521.2139
CC(C)C(=O)COC=N	CC(C)C(=O)CO[CH][NH]	
InChI=1S/C6H11NO2/c1-5(2)6(8)3-9-4-7/h4-5,7H,3H2,1-2H3	InChI=1S/C6H11NO2/c1-5(2)6(8)3-9-4-7/h4-5,7H,3H2,1-2H3
