16
gdb 55336	2.12746	1.63799	1.17145	5.3105	70.87	-0.258	0.0074	0.2654	1074.119	0.124437	-437.856866	-437.848661	-437.847717	-437.889913	30.72	
O	-0.1098861637	 0.5982516871	 1.4403587713	-0.379121
C	-0.0430235762	 1.1230697594	 0.2018582279	 0.439802
O	 0.8007691802	 0.7848233086	-0.5828684841	-0.334067
C	-1.1261708241	 2.1433355162	-0.1376764125	-0.16869
C	-2.5473969353	 1.6738705679	 0.2855147496	-0.192195
N	-2.3117884478	 2.3279491653	 1.5987292949	-0.331809
H	-3.1073616618	 2.7621096755	 2.0560772564	 0.235643
H	-0.8418587346	 1.0260485236	 1.9306109235	 0.312598
C	-1.3315165118	 3.2529057827	 0.9563976681	-0.189157
C	-0.2285976414	 3.7157163465	 1.7760009573	 0.341484
C	 0.6848298547	 4.1110387767	 2.4490047127	-0.41336
H	-0.9780597793	 2.4836945913	-1.1590634177	 0.112548
H	-3.325073653	 2.1554913746	-0.3211597411	 0.112308
H	-2.7361859024	 0.5991638094	 0.3391261043	 0.132478
H	-1.8247322508	 4.1145674644	 0.4827905628	 0.112544
H	 1.4994314773	 4.4461309908	 3.0430439863	 0.208994
83.7842	112.0618	161.9465	229.1646	259.5355	319.9193	410.0807	509.0537	538.2087	590.6153	642.7003	676.8955	708.8452	770.08	802.0885	813.8713	835.8823	949.7731	975.3297	1000.6101	1014.578	1056.5955	1106.8466	1138.5864	1181.2624	1231.2691	1262.2004	1306.1277	1337.5737	1356.0492	1378.3979	1423.0237	1522.1307	1864.8199	2240.7369	2991.5526	3020.7175	3102.3869	3158.0841	3500.9632	3515.0677	3521.9618
[O-]C(=O)C1C[NH2+]C1C#C	OC(=O)[C@H]1CN[C@H]1C#C	
InChI=1S/C6H7NO2/c1-2-5-4(3-7-5)6(8)9/h1,4-5,7H,3H2,(H,8,9)	InChI=1S/C6H7NO2/c1-2-5-4(3-7-5)6(8)9/h1,4-5,7H,3H2,(H,8,9)/t4-,5-/m0/s1
