16
gdb 78443	3.16689	1.55195	1.32043	3.9302	68.95	-0.2466	0.0001	0.2466	989.4289	0.124008	-437.818823	-437.811697	-437.810753	-437.850195	28.168	
C	-0.1545786581	 1.3478144149	-0.0479255235	-0.327542
N	 0.0547042984	-0.0932779957	 0.0346117462	-0.09527
C	 1.4348477538	-0.5545286643	-0.1831157055	-0.032558
C	 0.8400343791	-0.562424278	 1.1870482654	-0.032556
C	 0.7070424159	-2.0758953983	 1.4072775959	-0.085359
O	 1.961066497	-2.598788095	 0.8477647262	-0.288259
C	 1.5112947281	-2.0652201735	-0.4453167355	-0.085359
C	 0.111897759	-2.5505251478	 0.0452779894	 0.467702
O	-0.765002596	-3.2496282043	-0.3394321632	-0.315431
H	 0.6964163913	 1.9409321838	 0.3248672796	 0.105667
H	-0.3350473281	 1.6213595327	-1.091484912	 0.135688
H	-1.0412566389	 1.6119861968	 0.5355363718	 0.135688
H	 2.2019991089	 0.1415402206	-0.5020681555	 0.10692
H	 1.1279583618	 0.1272821595	 1.9720124472	 0.10692
H	 0.4556847097	-2.4813139316	 2.3844041453	 0.101875
H	 2.0551908482	-2.4600837498	-1.3000570417	 0.101875
133.7959	204.7869	252.0035	274.5754	346.7174	426.3814	479.2032	529.8571	617.8192	714.4475	760.0753	816.5097	833.7309	857.1528	866.4759	894.756	925.7107	965.7751	1003.0913	1042.6582	1043.2913	1117.182	1128.9567	1143.7315	1172.8218	1215.5395	1225.3216	1235.4004	1288.7511	1305.7142	1375.5623	1455.5804	1493.2897	1496.0839	1936.7114	2970.8842	3078.0146	3116.1059	3159.7117	3161.996	3178.8778	3188.2211
CN1C2C1C1OC2C1=O	CN1[C@H]2[C@@H]1[C@@H]1O[C@H]2C1=O	
InChI=1S/C6H7NO2/c1-7-2-3(7)6-4(8)5(2)9-6/h2-3,5-6H,1H3	InChI=1S/C6H7NO2/c1-7-2-3(7)6-4(8)5(2)9-6/h2-3,5-6H,1H3/t2-,3+,5+,6-,7?
