15
gdb 20564	4.5781	1.41819	1.38564	2.1876	62.98	-0.261	-0.0164	0.2447	939.9755	0.118775	-399.793712	-399.786157	-399.785212	-399.82611	27.341	
C	-0.1449748808	 1.571348732	-0.026090746	-0.403711
C	 0.0497108211	 0.0526571821	 0.0523514847	 0.014726
O	-1.1875995975	-0.6308584341	 0.2143199046	-0.423153
C	 0.8013345779	-0.4792245899	-1.1343756329	 0.4514
C	 1.9926995956	-1.1119974008	-1.3032817175	-0.357753
C	 2.0522405364	-1.3397546482	-2.7046805087	 0.039943
N	 0.9927771534	-0.8899360043	-3.3287993704	-0.139272
O	 0.1940638994	-0.3345286336	-2.3286547121	-0.228635
H	 0.818058346	 2.0907210571	-0.0484775087	 0.124909
H	-0.6960706417	 1.8419167626	-0.9322601739	 0.131583
H	-0.7111986697	 1.9097329781	 0.8450935764	 0.129732
H	 0.6319781455	-0.195025345	 0.9453396447	 0.107961
H	-1.6942410707	-0.5115894426	-0.597383069	 0.292084
H	 2.7122127687	-1.3810933402	-0.5484707784	 0.124049
H	 2.8313893964	-1.8204592532	-3.2795780126	 0.136136
48.4312	138.9906	191.9434	252.1691	314.8747	344.0906	407.1944	506.3464	646.9002	671.3511	741.4392	817.0695	895.1687	919.2512	924.7459	943.9529	996.6926	1025.6176	1052.505	1086.5557	1105.554	1208.3029	1249.8319	1289.6853	1329.1839	1387.4265	1402.2313	1423.7044	1489.3256	1490.7635	1515.3479	1636.4879	3041.2077	3069.7096	3115.5731	3129.2741	3243.652	3282.0148	3801.4975
CC(O)C1=CC=NO1	C[C@@H](O)c1ccno1	
InChI=1S/C5H7NO2/c1-4(7)5-2-3-6-8-5/h2-4,7H,1H3	InChI=1S/C5H7NO2/c1-4(7)5-2-3-6-8-5/h2-4,7H,1H3/t4-/m1/s1
