21
gdb 111059	3.39279	1.01029	0.90889	2.3383	78.9	-0.2407	0.0705	0.3113	1378.2413	0.181476	-424.157063	-424.147809	-424.146864	-424.191433	34.872	
C	-0.0524231844	 1.6652856462	 0.116334279	-0.372877
C	 0.1459477167	 0.1685441296	-0.156774096	-0.237741
C	 0.7646531643	-0.5555289647	 1.0307657537	 0.000109
C	-0.0260298082	-0.9432349336	 2.3170676175	 0.032075
C	-0.7469574224	-2.0827675006	 1.5667780986	-0.266365
C	 0.7606631017	-2.1063540515	 1.1990892098	 0.358674
C	 1.5666995085	-3.1861823558	 0.5384502964	-0.189083
O	 1.393506701	-4.4236756801	 1.2024939918	-0.415252
O	 1.0637505646	-1.8928593214	 2.6486441832	-0.358257
H	 0.895485732	 2.1488906871	 0.3757438411	 0.119559
H	-0.4592160777	 2.1765824394	-0.7611858984	 0.115822
H	-0.7449951073	 1.8284946799	 0.9489437969	 0.118487
H	-0.8110140188	-0.2803333885	-0.4423941656	 0.100671
H	 0.8092994626	 0.0436029881	-1.0224480429	 0.103637
H	 1.7426436555	-0.1368682607	 1.2892569976	 0.080534
H	-0.389620669	-0.3091033393	 3.1259103287	 0.093202
H	-1.0737078376	-2.911073601	 2.1951375939	 0.110885
H	-1.473458663	-1.8335922156	 0.7917218109	 0.097902
H	 1.2357266777	-3.3239664624	-0.4966864921	 0.115224
H	 2.6247036655	-2.8782047844	 0.5161746136	 0.097377
H	 1.5025095382	-4.2417238105	 2.1438335424	 0.295417
65.794	83.7447	138.5296	189.8315	217.1933	291.2894	295.071	345.112	409.5186	502.0075	560.0204	612.5012	670.2341	710.2493	756.9411	836.0501	871.1608	891.6186	919.2981	968.9399	976.0531	1018.2794	1035.111	1072.1015	1089.1661	1103.3914	1107.7623	1159.0324	1167.8771	1204.6748	1219.0822	1237.9333	1252.7657	1286.7561	1319.9974	1343.2967	1373.2429	1408.2896	1416.2944	1442.3638	1484.5261	1492.27	1499.5778	1502.9727	1511.8355	2977.0098	3026.2165	3033.8189	3057.7688	3072.2017	3072.4864	3085.0901	3102.8569	3107.5977	3116.4531	3157.7919	3789.5015
CCC1C2CC1(CO)O2	CC[C@H]1[C@H]2C[C@]1(CO)O2	
InChI=1S/C7H12O2/c1-2-5-6-3-7(5,4-8)9-6/h5-6,8H,2-4H2,1H3	InChI=1S/C7H12O2/c1-2-5-6-3-7(5,4-8)9-6/h5-6,8H,2-4H2,1H3/t5-,6+,7+/m0/s1
