17
gdb 55407	2.3863	1.60162	1.12983	2.9392	68.47	-0.2614	-0.0351	0.2263	1094.3106	0.135731	-459.034533	-459.026013	-459.025069	-459.068354	30.63	
C	-0.0000535686	 1.3913118017	 0.2748728593	-0.487243
C	 0.0525934512	-0.101060377	 0.0515567484	 0.374425
O	 1.0794281131	-0.7362015437	 0.0079108424	-0.29431
C	-1.3124378301	-0.7996570395	-0.1086644167	-0.24891
C	-1.2086031291	-2.2516377827	-0.5753337413	-0.252905
C	-1.2119857763	-3.0316772072	 0.748967342	-0.081872
O	-1.9071885143	-2.1980363744	 1.6995371248	-0.209512
C	-1.9591492384	-0.9145307151	 1.2853608097	 0.43313
O	-2.4307393708	-0.0323156836	 1.9447483764	-0.339604
H	 0.9848453325	 1.7652895841	 0.5557319894	 0.144389
H	-0.3246837854	 1.8838588881	-0.649878379	 0.143759
H	-0.744978231	 1.6283937486	 1.0410730843	 0.176745
H	-1.9613297438	-0.1689031415	-0.7209075063	 0.120894
H	-2.0761132294	-2.5196254632	-1.1834398538	 0.115957
H	-0.2980936318	-2.4368674055	-1.1459455513	 0.137313
H	-1.7430628173	-3.983770685	 0.7000979185	 0.127713
H	-0.1980308305	-3.2013258743	 1.1221542933	 0.140031
70.3299	82.7723	166.4785	172.6736	191.0603	274.2667	358.3651	467.6225	531.6551	573.0416	662.2735	683.3617	704.7059	791.0219	848.8025	912.4915	941.36	963.7993	1030.1973	1046.6382	1080.474	1104.6737	1163.6085	1185.0417	1204.0932	1238.926	1263.8325	1312.3859	1348.6617	1388.022	1403.7099	1466.3569	1475.4274	1478.4503	1523.7981	1811.911	1863.4837	3036.8491	3066.9514	3072.6856	3091.1136	3103.4495	3122.563	3140.7893	3158.7359
CC(=O)C1CCOC1=O	CC(=O)[C@H]1CCOC1=O	
InChI=1S/C6H8O3/c1-4(7)5-2-3-9-6(5)8/h5H,2-3H2,1H3	InChI=1S/C6H8O3/c1-4(7)5-2-3-9-6(5)8/h5H,2-3H2,1H3/t5-/m1/s1
