23
gdb 91383	2.26766	1.57229	1.34953	1.768	83.85	-0.2544	0.0614	0.3159	1112.5235	0.207418	-388.296042	-388.287246	-388.286302	-388.329207	34.918	
C	-0.7558185516	 1.441266183	 0.212153744	-0.425272
C	-0.0000906439	 0.1356550379	 0.000242657	 0.053119
C	 1.2749463958	 0.1487950782	-0.895994031	-0.275963
C	 2.0669426249	-0.6235476304	 0.2032823387	 0.00937
C	 3.2459491427	 0.0907317116	 0.8824361649	-0.262191
C	 2.6211086166	 1.103027149	 1.8677781669	 0.131009
O	 2.4165902866	 2.3976315403	 1.3013134245	-0.434718
C	 1.3121953254	 0.4162591111	 2.3274823913	-0.247855
C	 0.8370546467	-0.485738172	 1.1701766358	-0.036877
H	-0.1047966552	 2.2317950611	 0.5983662514	 0.123225
H	-1.1897567225	 1.7932759344	-0.73071292	 0.111062
H	-1.5767676621	 1.3148745251	 0.9271428512	 0.114771
H	-0.7027707404	-0.6168873533	-0.3725058896	 0.071369
H	 1.1783221795	-0.3667112566	-1.8551525558	 0.098767
H	 1.6658153504	 1.1489952153	-1.1188047315	 0.083014
H	 2.3206553094	-1.6422318008	-0.0964240612	 0.064186
H	 3.8371900267	-0.6389017061	 1.4484491427	 0.099195
H	 3.9271760557	 0.5848686375	 0.1816627651	 0.100268
H	 3.2799940092	 1.2897950704	 2.7208944835	 0.080109
H	 2.0909724787	 2.2953400187	 0.4032778274	 0.280429
H	 1.5348202426	-0.2135311888	 3.1968517376	 0.094129
H	 0.5770414987	 1.1579810353	 2.6506558845	 0.10793
H	 0.4124337661	-1.416642441	 1.5524457924	 0.060926
75.5373	146.8349	161.7285	222.7416	268.6963	326.2016	357.5534	388.1227	411.1939	476.6588	569.0114	717.3997	722.4807	765.5695	790.6409	834.242	854.9793	892.8005	903.6086	932.7483	958.4873	963.0783	1002.7419	1046.5033	1073.2857	1089.0583	1120.0417	1126.1868	1151.3983	1167.2875	1195.9377	1225.0965	1238.8583	1253.3064	1269.6278	1286.1983	1313.9871	1324.9381	1331.4532	1349.2928	1356.2528	1375.5836	1412.6302	1437.6046	1469.196	1480.6959	1497.3691	1501.2692	1511.4397	3025.1626	3030.7134	3033.622	3034.5574	3039.0209	3067.7083	3071.2861	3079.4289	3081.6652	3088.1926	3095.2348	3097.8842	3105.9408	3847.8921
CC1CC2CC(O)CC12	C[C@H]1C[C@H]2C[C@@H](O)C[C@@H]12	
InChI=1S/C8H14O/c1-5-2-6-3-7(9)4-8(5)6/h5-9H,2-4H2,1H3	InChI=1S/C8H14O/c1-5-2-6-3-7(9)4-8(5)6/h5-9H,2-4H2,1H3/t5-,6-,7+,8-/m0/s1
