13
gdb 131588	4.58105	0.99827	0.82383	0.9563	62.28	-0.2686	-0.0671	0.2015	1268.9459	0.087182	-489.859728	-489.851548	-489.850603	-489.893328	28.256	
O	 0.0277003189	 1.3762832646	 0.0091675694	-0.39627
C	-0.0186348881	-0.0240943415	 0.0020970034	-0.181678
C	-1.4721386479	-0.4729963812	 0.0113203799	 0.293011
O	-2.4112588807	 0.288066534	 0.0231538153	-0.293576
C	-1.6912954541	-1.9352679969	 0.0057835003	 0.157966
C	-2.8706644447	-2.6254711249	 0.0118853277	 0.0005
O	-2.6272992934	-3.9177366738	 0.004065018	-0.161689
N	-1.1664019319	-4.0474486519	-0.0096096889	 0.001759
N	-0.6964334099	-2.8930027824	-0.0069785443	-0.169943
H	 0.9516196105	 1.6422055899	 0.0028382898	 0.297048
H	 0.4617264458	-0.4713448735	-0.8848118798	 0.126003
H	 0.4758159967	-0.4807037384	 0.8764059437	 0.126023
H	-3.8966594411	-2.294939554	 0.0219738854	 0.200847
73.9602	93.6323	139.3365	199.6162	233.5876	285.2017	368.4504	482.0322	497.2577	548.0695	643.6124	713.2261	759.7623	909.1695	947.9647	980.6847	1013.3375	1067.4888	1147.2852	1161.7052	1227.211	1250.1078	1287.887	1348.839	1448.4571	1485.7873	1498.405	1574.8556	1802.9316	2964.5003	2986.3743	3287.8591	3839.9164
OCC(=O)C1=CON=N1	OCC(=O)c1conn1	
InChI=1S/C4H4N2O3/c7-1-4(8)3-2-9-6-5-3/h2,7H,1H2	InChI=1S/C4H4N2O3/c7-1-4(8)3-2-9-6-5-3/h2,7H,1H2
