15
gdb 43404	2.84951	1.48929	1.00941	6.7343	73.21	-0.252	-0.0716	0.1805	1106.2738	0.113865	-416.8313	-416.823561	-416.822617	-416.863885	28.642	
O	-0.0368035347	-0.0435361966	-0.1172382939	-0.305085
C	-0.0503188666	 1.1553650557	 0.0279347353	 0.412275
C	-1.2820674968	 1.9561348928	 0.1145157353	-0.15116
C	-1.2480837994	 3.2837053309	 0.2765863336	-0.030845
C	 0.0263875095	 4.040320046	 0.488456334	-0.221981
N	 1.0989571764	 3.1489626357	 0.9089853073	-0.312141
C	 1.2575190395	 1.9922957393	 0.0277872717	-0.246005
C	 2.4063094778	 1.1905894014	 0.4519168655	 0.299308
N	 3.3433241567	 0.602933555	 0.7821472853	-0.312436
H	-2.2096439012	 1.407676945	-0.0110873735	 0.123798
H	-2.1647736771	 3.8666420324	 0.255188439	 0.124772
H	 0.2522871861	 4.6013001257	-0.4424180527	 0.112996
H	-0.1213166279	 4.7951806498	 1.2694585773	 0.135653
H	 1.9757678682	 3.6507246581	 0.9899467655	 0.244532
H	 1.4291634195	 2.2682020689	-1.0338079295	 0.126319
73.7719	146.0856	171.3124	278.0537	316.9253	376.5925	425.0236	470.408	543.2696	570.1236	629.1703	709.0602	737.8251	833.7373	898.5768	912.5621	990.0485	1028.9013	1045.889	1071.2413	1123.479	1177.8567	1216.7251	1247.9133	1280.4105	1334.6224	1385.2179	1408.6021	1479.6588	1491.1947	1688.3464	1801.6212	2373.9769	2884.4134	2890.7207	3054.5008	3171.0838	3198.4461	3543.5371
O=C1C=CCNC1C#N	O=C1C=CCN[C@H]1C#N	
InChI=1S/C6H6N2O/c7-4-5-6(9)2-1-3-8-5/h1-2,5,8H,3H2	InChI=1S/C6H6N2O/c7-4-5-6(9)2-1-3-8-5/h1-2,5,8H,3H2/t5-/m0/s1
