22
gdb 118353	1.84774	1.16214	0.75683	2.5829	84.01	-0.2443	-0.0233	0.2211	1553.8843	0.191655	-404.327578	-404.317116	-404.316172	-404.364348	36.884	
C	-0.0197664482	 1.4548965368	 0.2804252011	-0.382158
C	-0.0082322778	-0.0634520487	 0.0793763828	-0.179963
C	-1.4202841567	-0.6368007822	-0.086137762	-0.174246
C	-1.4823742505	-2.1723661182	-0.2154296775	-0.059674
C	-2.9491867008	-2.5743538481	-0.3053412886	 0.158247
O	-3.6632944609	-2.7420983448	 0.6486332142	-0.256489
N	-0.8077656044	-2.637371791	-1.4242926218	-0.076906
C	 0.5837480211	-3.0591294848	-1.2955975976	-0.215203
C	-0.492870347	-4.0672131072	-1.476845521	-0.232566
H	 0.995095182	 1.847622739	 0.3963367613	 0.1132
H	-0.4778661858	 1.9633584569	-0.5750610319	 0.117703
H	-0.5898346742	 1.7324389659	 1.1738176364	 0.117235
H	 0.5934553968	-0.310277389	-0.8016735081	 0.112827
H	 0.4812380651	-0.5434944966	 0.9372125156	 0.093691
H	-2.0341525783	-0.3567570527	 0.7785210874	 0.113399
H	-1.8928229103	-0.1930582194	-0.9719163587	 0.105164
H	-1.0717441182	-2.6272447647	 0.7036822625	 0.076726
H	-3.3253375669	-2.6735120299	-1.3485830032	 0.087906
H	 1.2350204283	-2.7925263683	-2.1230839999	 0.121736
H	 1.0483618573	-2.9986395476	-0.3132948357	 0.117462
H	-0.7500584473	-4.6801837252	-0.6143611961	 0.119998
H	-0.6452572132	-4.5466704902	-2.4389803692	 0.121911
41.5856	80.6178	90.5852	98.5528	151.5087	200.3335	246.5744	257.6321	301.2874	330.9006	454.8944	484.5127	551.2298	734.0403	781.1156	831.2147	873.604	898.2639	908.9489	957.4118	1004.3672	1016.8503	1043.6361	1066.7603	1092.2955	1113.5586	1124.6083	1134.4181	1149.1581	1178.0477	1200.7772	1255.9601	1278.2626	1312.0554	1326.1417	1333.6571	1357.7011	1392.3785	1410.6526	1414.0514	1476.537	1491.1563	1493.0021	1499.4367	1509.7571	1518.3528	1835.3268	2883.896	2945.4506	3017.6862	3026.714	3031.7564	3059.157	3078.0866	3096.8056	3101.2811	3102.0996	3104.4075	3180.6616	3195.0306
CCCC(C=O)N1CC1	CCC[C@@H](C=O)N1CC1	
InChI=1S/C7H13NO/c1-2-3-7(6-9)8-4-5-8/h6-7H,2-5H2,1H3	InChI=1S/C7H13NO/c1-2-3-7(6-9)8-4-5-8/h6-7H,2-5H2,1H3/t7-/m0/s1
