15
gdb 130712	3.31362	1.67007	1.13331	4.4383	66.56	-0.202	0.0485	0.2505	1001.8961	0.116857	-450.166269	-450.158977	-450.158033	-450.198328	26.926	
O	 0.0122395446	-0.0464801179	 0.1965488536	-0.430572
C	 0.016020023	 1.1630447508	 0.1175636888	 0.444474
N	-1.0278257079	 2.0655973348	 0.1341779124	-0.324677
N	-0.6538431761	 3.4167349488	 0.0279293205	-0.364801
C	 0.6320420358	 3.3169521264	-0.0697631765	 0.50061
N	 1.6742803258	 4.2010840223	-0.2781763294	-0.402221
C	 2.9156217296	 3.4695740513	 0.062516197	-0.179783
C	 2.5423780484	 1.9768264474	-0.1787294801	-0.177194
N	 1.1060160093	 2.0374343246	-0.0081864039	-0.136223
H	-1.9922251798	 1.828331429	 0.2797570998	 0.276439
H	 1.5651692639	 5.1253236882	 0.1134590847	 0.260165
H	 3.743383293	 3.793053446	-0.5717469539	 0.13025
H	 3.1994404237	 3.6211869148	 1.1125318181	 0.121476
H	 2.8069970841	 1.6496566148	-1.1904180399	 0.136979
H	 3.0144967427	 1.3051999389	 0.5406454089	 0.145078
93.5699	152.7095	182.1049	239.9498	294.7954	435.7777	540.5978	601.6688	643.1593	696.5487	702.4146	746.4642	793.0808	823.1228	895.313	945.8057	1046.019	1064.125	1114.6278	1125.4226	1183.9996	1217.1417	1248.6644	1303.7535	1331.3653	1352.99	1378.6125	1419.2196	1495.8631	1526.4738	1538.8342	1715.2684	1844.9713	3014.1302	3045.0411	3103.9591	3116.8377	3611.2781	3708.816
O=C1NN=C2NCCN12	O=c1[nH]nc2NCCn12	
InChI=1S/C4H6N4O/c9-4-7-6-3-5-1-2-8(3)4/h1-2H2,(H,5,6)(H,7,9)	InChI=1S/C4H6N4O/c9-4-7-6-3-5-1-2-8(3)4/h1-2H2,(H,5,6)(H,7,9)
