17
gdb 72919	2.72638	1.86089	1.44211	3.008	66.25	-0.2465	0.0538	0.3004	924.6663	0.136349	-458.923751	-458.916507	-458.915562	-458.955175	28.815	
O	 0.1133134363	 1.3605516246	-0.2730862992	-0.476039
C	 0.0547798445	-0.0096446396	 0.0516933418	 0.342821
C	 0.1631417222	-0.9694084378	-1.1630424425	-0.121813
O	-1.2453919088	-1.2823956293	-1.0962437855	-0.283002
C	-1.4011796346	-0.534274166	 0.1263123168	 0.063564
C	-1.4701052793	-1.3912271401	 1.3771084655	 0.009838
O	-0.5175996435	-2.4619171547	 1.359807722	-0.244158
C	-0.1883637842	-1.2899899429	 2.1059816433	 0.049113
C	 0.7689968046	-0.3644630644	 1.3764453037	-0.338594
H	 1.0256531132	 1.581576561	-0.4909847462	 0.28172
H	 0.4254470055	-0.4696334218	-2.1029348042	 0.094782
H	 0.7838546932	-1.8587684944	-1.0117251433	 0.107556
H	-2.2007637419	 0.2107158817	 0.0674683143	 0.087901
H	-2.4158878752	-1.6171925544	 1.8619084173	 0.101069
H	-0.1124442299	-1.4266050224	 3.1823922684	 0.099474
H	 1.7478517299	-0.8333627605	 1.2274153332	 0.112057
H	 0.9137891277	 0.5552662911	 1.9532894646	 0.113709
125.1538	228.999	239.924	281.4596	348.4452	386.2056	419.4892	511.8905	642.6009	687.6167	702.7009	825.3597	856.4809	865.6396	892.9303	929.5673	946.3836	988.8152	994.4957	1021.4451	1053.177	1061.3686	1103.2958	1150.5319	1153.3039	1197.9679	1234.7938	1250.2244	1269.4363	1289.5654	1316.9046	1339.7677	1345.0399	1392.5535	1426.5358	1472.8182	1496.2672	3023.0218	3042.4864	3068.6932	3082.2263	3090.3544	3139.1861	3156.2518	3798.9383
OC12COC1C1OC1C2	O[C@]12CO[C@H]1[C@H]1O[C@H]1C2	
InChI=1S/C6H8O3/c7-6-1-3-4(9-3)5(6)8-2-6/h3-5,7H,1-2H2	InChI=1S/C6H8O3/c7-6-1-3-4(9-3)5(6)8-2-6/h3-5,7H,1-2H2/t3-,4-,5-,6+/m0/s1
