15
gdb 77770	2.90906	1.54594	1.17057	4.8928	65.94	-0.2483	0.0042	0.2525	1021.2657	0.111096	-457.686907	-457.679384	-457.67844	-457.71874	29.103	
O	-0.0606046653	 1.4423734806	-0.0438773461	-0.431758
C	 0.0146160606	 0.0490597191	 0.004541576	 0.163046
C	 0.0128787798	-0.6683700187	 1.4122104496	-0.354912
C	-1.4573439383	-0.1735701922	 1.4752515266	 0.462131
O	-2.2293358234	 0.303119097	 2.2385247921	-0.30508
C	-1.3723085807	-0.6624675412	 0.0001443654	-0.324312
C	-0.597447866	-1.8439062858	 0.6229374293	 0.533167
C	-0.0816247972	-3.1035473387	 0.1085927206	-0.308124
O	-1.1154334765	-3.0385551832	 1.125085153	-0.28733
H	 0.798714695	 1.8075362249	 0.1904664753	 0.293559
H	 0.7374577594	-0.370685047	-0.7038053714	 0.08884
H	 0.7911812996	-0.6849836991	 2.1710413434	 0.101968
H	-2.1183721386	-0.6696502669	-0.789267688	 0.109694
H	-0.4133501173	-3.4771075954	-0.8582786201	 0.130447
H	 0.8767183789	-3.4859029436	 0.4549365143	 0.128662
131.1429	173.1843	246.2616	259.0611	292.8932	416.0066	428.6365	480.0523	515.4558	593.7512	701.388	715.0772	780.2807	810.7733	892.0665	913.0314	928.0937	1016.7346	1019.3474	1070.2299	1109.1948	1112.3038	1124.6074	1127.8707	1152.323	1186.6869	1190.502	1222.4782	1304.6648	1419.0019	1462.2687	1555.7505	1942.2877	3048.5423	3092.1642	3158.7988	3171.3727	3181.1726	3819.8547
OC1C2C(=O)C1C21CO1	O[C@H]1[C@H]2C(=O)[C@@H]1[C@]12CO1	
InChI=1S/C6H6O3/c7-4-2-5(8)3(4)6(2)1-9-6/h2-4,7H,1H2	InChI=1S/C6H6O3/c7-4-2-5(8)3(4)6(2)1-9-6/h2-4,7H,1H2/t2-,3+,4-,6+
