16
gdb 128735	2.06348	1.67628	0.96998	4.3388	67.26	-0.2503	-0.0309	0.2194	1184.7681	0.124264	-471.145526	-471.136738	-471.135794	-471.179643	30.832	
C	 0.1466414538	 1.34201976	 0.0970556269	-0.250866
O	 0.1532629151	-0.0910497153	 0.0524455962	-0.266738
C	 0.6731594469	-0.6306603581	-1.050752754	 0.366913
N	 1.1467615929	 0.0298484588	-2.0703723483	-0.189137
O	 1.559042662	-0.9445052212	-2.9539394041	-0.173983
N	 1.334526201	-2.1984847545	-2.4522868329	-0.143641
C	 0.7877186139	-2.0395170902	-1.2822914275	 0.287387
C	 0.3642936687	-3.1644829482	-0.3897621992	-0.279192
N	 0.9852610166	-3.0235000072	 0.932356329	-0.51663
H	 1.167216798	 1.7304301496	 0.0323219908	 0.151449
H	-0.4426697211	 1.7467858917	-0.730878448	 0.149917
H	-0.3039578065	 1.6084227669	 1.0527668424	 0.140638
H	-0.7392816858	-3.1937630487	-0.3702396727	 0.106971
H	 0.7018265432	-4.099689363	-0.8448191087	 0.141038
H	 0.6103099014	-2.2007311614	 1.3955978599	 0.241178
H	 0.7324660499	-3.8206725391	 1.5076865502	 0.234697
67.1707	110.0709	144.7503	170.9512	202.7701	242.911	298.7714	339.4757	456.1873	524.8106	617.7785	647.9322	752.5122	778.275	855.7156	913.7898	939.0573	1010.5816	1039.435	1051.5845	1077.578	1164.8003	1180.2664	1218.1008	1285.2078	1312.7741	1427.5323	1451.896	1467.0074	1480.5098	1498.5429	1499.0087	1577.3684	1642.896	1663.2909	2945.5995	3043.8176	3092.5086	3117.6644	3161.293	3496.1373	3577.0541
COC1=NON=C1CN	COc1nonc1CN	
InChI=1S/C4H7N3O2/c1-8-4-3(2-5)6-9-7-4/h2,5H2,1H3	InChI=1S/C4H7N3O2/c1-8-4-3(2-5)6-9-7-4/h2,5H2,1H3
