15
gdb 65907	3.36416	1.20958	1.02757	4.4974	67.02	-0.2546	-0.0953	0.1593	1136.6876	0.111315	-453.924424	-453.915649	-453.914704	-453.959099	31.126	
O	 0.3333513496	 1.3914158335	 0.0586599488	-0.482693
C	 0.1172565379	 0.0080947272	 0.055172144	 0.296215
C	 0.1173914938	-0.6820352512	 1.4568685186	-0.216116
N	-1.3621323286	-0.6100745699	 1.4551251573	-0.325286
C	-1.376059496	-0.4452464273	-0.0168505618	-0.216233
C	 1.0368637991	-0.6098997978	-0.9759534228	 0.246022
O	 1.069497317	-1.7944660766	-1.2011504734	-0.281713
C	 1.9199602594	 0.3081079007	-1.7207761245	 0.275483
N	 2.6378532523	 0.9697959757	-2.3398299614	-0.310955
H	-0.2516863385	 1.7887950315	 0.7130618192	 0.302392
H	 0.5345954249	-1.6949177463	 1.4057696219	 0.122866
H	 0.6100987096	-0.1134294644	 2.2523909847	 0.117994
H	-1.8360252322	-1.4360060393	 1.802654198	 0.231167
H	-2.0717652285	 0.3115721752	-0.3939375124	 0.117933
H	-1.4863526697	-1.374446521	-0.5887148964	 0.122922
20.8122	101.4806	160.9397	204.1018	271.3052	301.1142	309.9015	382.873	419.364	439.0941	522.5504	674.5773	704.5776	730.1736	881.1104	907.363	936.2705	976.0618	1015.696	1056.1524	1056.4943	1127.2589	1146.5131	1176.759	1257.2378	1258.011	1337.5841	1375.0902	1401.6507	1491.6407	1516.7441	1790.17	2341.1745	3021.5926	3028.6881	3082.9542	3084.0258	3537.8822	3814.6025
OC1(CNC1)C(=O)C#N	OC1(CNC1)C(=O)C#N	
InChI=1S/C5H6N2O2/c6-1-4(8)5(9)2-7-3-5/h7,9H,2-3H2	InChI=1S/C5H6N2O2/c6-1-4(8)5(9)2-7-3-5/h7,9H,2-3H2
