17
gdb 32456	3.19981	1.24186	0.90513	1.3996	72.76	-0.1759	0.0505	0.2264	1254.2155	0.13628	-455.146453	-455.137227	-455.136282	-455.180137	33.88	
C	-0.0211681977	 1.3438237449	 0.0490702394	-0.248955
O	 0.0163844586	-0.0712302586	 0.0162980723	-0.26347
C	 0.6450785367	-0.5993411229	-1.0584544042	 0.295525
C	 1.252050513	 0.0039905827	-2.1160104167	-0.208825
O	 1.7514196799	-0.9775005932	-2.9627621402	-0.190209
C	 1.4299296278	-2.17078124	-2.4270437982	 0.403596
N	 1.8910040243	-3.3043182359	-3.0731317951	-0.594129
C	 0.7471548636	-2.0251008007	-1.2542863383	-0.056474
N	 0.2583499396	-3.0998088037	-0.4617016488	-0.628384
H	 0.9934698675	 1.7638368041	 0.0706292456	 0.12292
H	-0.5511001181	 1.744012002	-0.8258365377	 0.121684
H	-0.5526065983	 1.6268887623	 0.9590457172	 0.131776
H	 1.419996311	 1.0181142103	-2.4262495332	 0.125786
H	 1.790214548	-3.2597941209	-4.0799819694	 0.250856
H	 1.435188788	-4.1262159817	-2.6943271629	 0.260136
H	 0.7624742444	-3.167321413	 0.4187147243	 0.239158
H	-0.7157000783	-2.9488127756	-0.2150103342	 0.239009
90.3959	160.7359	184.215	193.4468	227.3733	239.8708	290.9384	298.5374	356.8204	394.6815	546.1445	565.1838	620.557	638.4174	704.4928	742.2003	773.0336	796.8032	872.8962	996.5709	1054.035	1124.1066	1161.3483	1182.6337	1212.9528	1228.295	1264.6005	1294.9311	1371.1024	1466.2955	1481.2949	1485.4115	1509.7101	1612.8796	1637.9093	1653.9336	1724.0402	2999.498	3055.4407	3134.5209	3305.3307	3478.8126	3523.9776	3539.3254	3624.1392
COC1=COC(N)=C1N	COc1coc(N)c1N	
InChI=1S/C5H8N2O2/c1-8-3-2-9-5(7)4(3)6/h2H,6-7H2,1H3	InChI=1S/C5H8N2O2/c1-8-3-2-9-5(7)4(3)6/h2H,6-7H2,1H3
