20
gdb 40359	3.74004	1.30819	1.20935	2.1389	78.29	-0.2336	0.0844	0.3179	1093.8565	0.172733	-403.089189	-403.081779	-403.080835	-403.121106	30.166	
C	-0.1837730856	 1.2347590819	-0.3730641614	-0.231693
C	 1.217250565	 1.0252964292	 0.0859803516	-0.23586
N	 0.2482352655	-0.0686577283	 0.1164697145	-0.166061
C	-0.2158298248	-0.5175678639	 1.3937038392	 0.329671
C	-0.5653685078	 0.3523040401	 2.6692984001	-0.29559
C	-1.2423485544	-0.9824540938	 3.060607577	 0.105649
C	-1.6254537446	-1.1588676103	 1.5719310029	-0.277404
O	-0.1365474365	-1.884217487	 3.2346656012	-0.277934
C	 0.6492927907	-1.603216679	 2.0588697076	-0.10567
H	-0.8270154594	 1.8397964997	 0.2617793234	 0.112402
H	-0.4158323751	 1.2798138402	-1.4331112764	 0.118921
H	 2.0259861602	 0.9192069333	-0.6310937529	 0.119232
H	 1.4994741003	 1.4841712071	 1.0313902736	 0.11703
H	 0.2476879375	 0.7008871044	 3.3103329091	 0.099364
H	-1.280260936	 1.1510256256	 2.4640317339	 0.100497
H	-1.9420428801	-1.086796568	 3.8869181621	 0.08267
H	-2.4305342172	-0.4964638032	 1.2481724663	 0.098647
H	-1.7783315991	-2.176802302	 1.2070291679	 0.103807
H	 0.7503749297	-2.498101062	 1.4350416192	 0.106219
H	 1.6469389017	-1.2460147439	 2.3410320612	 0.096102
74.5543	185.4828	211.3429	328.1307	394.3859	436.6663	486.7803	528.9283	552.8683	652.5394	801.8686	823.2852	852.395	885.8688	894.853	910.8565	921.2763	950.7884	965.051	999.4799	1014.5229	1022.9605	1046.8575	1105.6344	1117.7836	1120.3544	1125.4742	1154.284	1165.6697	1172.5268	1199.1879	1203.4934	1237.7675	1239.7565	1244.9566	1296.0287	1348.5898	1388.9814	1471.1902	1489.6265	1504.3883	1517.3839	1532.9807	3024.1097	3064.5556	3070.0502	3072.7149	3101.8946	3107.7417	3133.5272	3139.0815	3148.1769	3183.4879	3198.0879
C1CN1C12CC(C1)OC2	C1CN1[C@@]12C[C@@H](C1)OC2	
InChI=1S/C7H11NO/c1-2-8(1)7-3-6(4-7)9-5-7/h6H,1-5H2	InChI=1S/C7H11NO/c1-2-8(1)7-3-6(4-7)9-5-7/h6H,1-5H2/t6-,7-
