17
gdb 64949	4.31798	0.61224	0.58644	1.4196	79.93	-0.2504	-0.0338	0.2166	1878.8102	0.131807	-421.785736	-421.775787	-421.774842	-421.823636	33.957	
C	-0.3260619447	 1.4846120528	-0.3849600476	-0.467454
C	 0.0093038228	 0.0490022778	-0.0372797985	 0.224074
C	 0.9710689446	-0.7129999224	-0.8619068942	-0.209211
O	 1.3669419347	-0.1754454737	 0.394855508	-0.256486
C	-1.0017856675	-0.672045823	 0.7021529967	 0.051519
C	-1.867586668	-1.2253424024	 1.3311386593	 0.080973
C	-2.9085824107	-1.9495720323	 2.0438643752	-0.420845
C	-3.3422822592	-3.2210284345	 1.3082367075	 0.172987
O	-4.4789091225	-3.6020266351	 1.2539650918	-0.22796
H	 0.5022488282	 1.940339295	-0.9327375585	 0.130275
H	-1.2301139633	 1.5303645295	-0.9994578393	 0.133154
H	-0.5038071155	 2.0640295158	 0.5255668114	 0.138669
H	 0.895735691	-1.7978872514	-0.9075838661	 0.119443
H	 1.4043310432	-0.2341157842	-1.7397197791	 0.1171
H	-2.5359241798	-2.2665940781	 3.030259229	 0.161406
H	-3.7973178349	-1.3354730344	 2.2214545942	 0.1574
H	-2.5071849483	-3.7797976793	 0.8329467802	 0.094955
9.2549	47.6162	85.1763	118.5937	180.0439	206.5759	309.5836	325.3229	362.0596	440.8206	464.3218	549.3476	556.2852	632.5725	744.6802	797.6807	873.8605	924.8075	1024.7291	1033.9766	1039.8803	1072.5262	1097.7641	1137.171	1167.0984	1210.9763	1272.8999	1302.2818	1369.9433	1409.7206	1414.6779	1438.7818	1478.4414	1494.2799	1521.2684	1842.3194	2363.248	2902.7202	3002.7713	3045.3237	3081.2493	3082.4983	3117.1296	3130.7479	3173.3668
CC1(CO1)C#CCC=O	C[C@]1(CO1)C#CCC=O	
InChI=1S/C7H8O2/c1-7(6-9-7)4-2-3-5-8/h5H,3,6H2,1H3	InChI=1S/C7H8O2/c1-7(6-9-7)4-2-3-5-8/h5H,3,6H2,1H3/t7-/m1/s1
