23
gdb 90408	2.20369	1.51598	1.25902	1.6774	86.15	-0.2241	0.0799	0.304	1180.9442	0.203451	-388.261968	-388.251955	-388.251011	-388.295805	38.494	
C	-0.1658713057	 1.4629025678	-0.2638768633	-0.422042
C	 0.2369391507	 0.0040147049	-0.1609479935	 0.115211
O	 1.3827553596	-0.3930547645	-0.9714384657	-0.311645
C	 1.9020055328	-1.1508844203	 0.1235705863	 0.008076
C	 2.3351819118	-0.263209393	 1.2573329487	 0.251418
C	 3.0326563109	-1.0122044234	 2.3844278791	-0.460101
C	 2.9174227821	 1.1147456732	 0.9965569529	-0.472187
C	 0.8506158329	-0.6331244702	 1.0946081212	 0.183961
C	-0.0147578117	-1.2716485964	 2.1467068807	-0.498838
H	-0.3832440381	 1.7150481109	-1.3072802762	 0.127041
H	-1.0816385516	 1.6272994297	 0.3148165273	 0.116905
H	 0.6000122633	 2.1453480218	 0.1045680838	 0.125363
H	-0.6185179041	-0.6166226851	-0.4699812214	 0.075812
H	 2.2938661611	-2.1412494654	-0.0881119634	 0.09344
H	 4.1162118898	-1.0005505379	 2.2241737813	 0.117521
H	 2.8366668154	-0.5496375003	 3.3587279919	 0.118082
H	 2.7222893267	-2.0594428039	 2.4457963679	 0.11591
H	 2.6489775475	 1.4741651309	 0.0028083382	 0.138666
H	 2.5851702922	 1.8471747724	 1.7410339097	 0.108763
H	 4.0116291474	 1.0713717386	 1.0466726887	 0.106989
H	-0.5340176393	-0.5069569251	 2.7384195321	 0.120048
H	-0.7813364295	-1.9086411926	 1.6901748967	 0.117995
H	 0.5540903759	-1.8879009821	 2.8458970769	 0.123611
141.1741	155.6897	179.5112	182.4913	207.4279	219.4601	261.8711	298.1219	317.793	356.6537	402.9367	414.6479	541.9969	567.6724	629.0183	666.5417	733.1372	846.673	880.4184	899.9506	971.3982	975.4823	992.8262	1016.0722	1037.2546	1048.6001	1105.0188	1115.3799	1141.379	1154.3194	1206.4173	1211.2246	1240.6658	1283.6954	1316.9051	1395.5756	1402.9543	1407.0999	1414.9895	1427.3454	1443.5482	1483.9779	1487.3503	1490.0218	1491.7282	1498.2599	1503.5585	1513.5462	1520.7238	2975.9144	3021.0667	3025.2421	3029.8813	3041.3852	3072.5376	3079.5897	3087.0902	3099.8158	3101.7251	3123.1117	3138.8848	3152.6682	3155.2484
CC1OC2C(C)(C)C12C	C[C@H]1O[C@H]2C(C)(C)[C@@]12C	
InChI=1S/C8H14O/c1-5-8(4)6(9-5)7(8,2)3/h5-6H,1-4H3	InChI=1S/C8H14O/c1-5-8(4)6(9-5)7(8,2)3/h5-6H,1-4H3/t5-,6+,8+/m1/s1
