21
gdb 119271	2.37837	0.91609	0.71814	2.3624	75.81	-0.2563	0.0791	0.3354	1622.7256	0.179702	-461.319089	-461.308496	-461.307551	-461.355775	37.055	
C	-0.2313253915	 1.371328339	-0.5829183114	-0.223533
O	-0.1629753908	-0.0345052881	-0.5786692716	-0.234147
C	-1.3795974585	-0.6424876266	-0.2086686253	-0.113556
C	-1.2078068849	-2.1468503332	-0.2165123746	 0.372561
C	-0.0146787683	-2.662808144	 0.5679063382	-0.279397
C	 0.1798319827	-4.1810872521	 0.5563017294	-0.079217
O	 1.3820412536	-4.5647133003	 1.2065798069	-0.420695
C	-2.4109827698	-2.9562796178	-0.4645674205	-0.233761
O	-1.4410299776	-2.76032701	-1.4958412156	-0.266826
H	 0.7531326527	 1.7454217048	-0.8733905958	 0.130028
H	-0.9790220358	 1.7411128561	-1.3019286072	 0.107946
H	-0.4854851088	 1.7708310952	 0.4119993089	 0.104238
H	-1.6839318926	-0.3100160205	 0.8002606466	 0.087127
H	-2.1835736388	-0.3682041415	-0.9099465934	 0.093816
H	 0.8786431824	-2.1844339745	 0.1482247788	 0.119125
H	-0.0894098371	-2.3133218433	 1.6049457989	 0.108389
H	-0.6187117691	-4.6784736277	 1.1163139694	 0.106963
H	 0.1388645768	-4.5502530597	-0.4776462304	 0.111213
H	 2.1164573407	-4.2147993766	 0.691984599	 0.281173
H	-2.4824147373	-3.9680673314	-0.0715339937	 0.118765
H	-3.3691245781	-2.4620799279	-0.6258124466	 0.109789
58.2479	72.5022	92.2943	104.8236	142.7696	214.6739	232.5168	303.367	329.3263	341.7233	356.6241	396.5532	460.0718	584.0415	754.3788	780.5307	853.6572	909.95	963.9541	1002.4458	1008.9323	1045.1141	1079.8236	1099.9653	1129.186	1155.9794	1171.508	1181.8656	1195.4332	1218.9004	1232.8627	1271.0279	1316.7655	1344.2945	1379.325	1405.1459	1426.3072	1441.6283	1478.265	1481.4822	1485.4875	1495.2074	1518.2865	1520.0969	1535.8519	2943.4071	2971.0079	2995.606	3014.0411	3015.6344	3034.0874	3061.681	3081.9638	3087.1571	3117.2361	3170.4603	3814.6743
COCC1(CCO)CO1	COC[C@@]1(CCO)CO1	
InChI=1S/C6H12O3/c1-8-4-6(2-3-7)5-9-6/h7H,2-5H2,1H3	InChI=1S/C6H12O3/c1-8-4-6(2-3-7)5-9-6/h7H,2-5H2,1H3/t6-/m0/s1
