22
gdb 99637	2.26757	1.11363	0.85858	3.8788	86.61	-0.2835	0.0368	0.3203	1456.9867	0.193146	-367.227346	-367.217018	-367.216074	-367.263085	37.48	
C	 0.076433778	 1.5636714721	-0.1039102575	-0.400917
C	 0.1634316854	 0.039626549	-0.0085096803	-0.176981
C	 0.6409503275	-0.4759343836	 1.3704557266	-0.162605
C	-0.280736955	-0.0484645115	 2.4334790817	 0.288178
N	-1.0173890217	 0.2791324582	 3.2622347075	-0.339569
C	 0.7952143644	-1.9924283432	 1.3857876002	 0.009725
C	 2.076703628	-2.6330692723	 0.906331816	-0.315879
C	 1.6884289811	-2.7210150147	 2.3631125081	 0.002407
C	 2.4907973637	-2.0148774803	 3.4353605814	-0.416342
H	 1.0518481124	 2.0293513608	 0.0754704356	 0.116711
H	-0.2605175632	 1.8700761842	-1.0983674157	 0.120222
H	-0.627697662	 1.9679522069	 0.6295525635	 0.144513
H	-0.812229006	-0.4080851776	-0.2301283865	 0.11422
H	 0.8645148302	-0.3494169364	-0.7548815436	 0.110167
H	 1.6105926869	-0.0115863923	 1.5876966542	 0.117086
H	-0.1251402959	-2.506778158	 1.1221432556	 0.097238
H	 2.0150508758	-3.517362463	 0.2818438352	 0.116095
H	 2.9012896062	-1.9718031745	 0.6542910846	 0.110583
H	 1.2978679812	-3.6842918255	 2.6807129067	 0.091607
H	 2.9395299099	-1.0855362386	 3.0717153401	 0.114261
H	 1.8683014687	-1.7677185091	 4.3015431377	 0.137532
H	 3.3104008945	-2.6533249507	 3.781735389	 0.121748
51.3377	91.5138	113.5394	152.9375	177.004	199.4019	248.4127	279.514	310.4954	366.3934	422.4779	473.6333	543.4999	596.4841	761.8216	777.5703	835.0963	854.0905	876.2992	921.0209	947.2917	996.4309	1037.7306	1049.3695	1071.1487	1098.9928	1110.9668	1124.8426	1152.1163	1178.2952	1198.0152	1248.8246	1265.6904	1281.9857	1340.6135	1364.5739	1391.3869	1416.5457	1420.2819	1427.6717	1486.483	1492.1148	1495.0032	1499.7623	1506.6612	1506.9589	2351.2204	3033.2411	3036.0969	3037.0318	3043.3936	3077.5591	3097.6088	3104.7785	3106.2389	3117.0217	3123.0114	3136.3206	3146.5381	3208.8695
CCC(C#N)C1CC1C	CC[C@@H](C#N)[C@H]1C[C@H]1C	
InChI=1S/C8H13N/c1-3-7(5-9)8-4-6(8)2/h6-8H,3-4H2,1-2H3	InChI=1S/C8H13N/c1-3-7(5-9)8-4-6(8)2/h6-8H,3-4H2,1-2H3/t6-,7+,8+/m1/s1
