16
gdb 75065	2.32796	1.93064	1.15091	4.404	71.67	-0.2306	-0.0339	0.1967	1027.6968	0.125626	-434.07141	-434.063493	-434.062549	-434.103834	30.209	
N	 0.0178205307	 1.3423521703	 0.0872789005	-0.577354
C	 0.0053598314	-0.034202137	-0.0018917042	 0.283964
N	-1.0716473262	-0.7287726265	 0.0498632149	-0.301146
C	-0.7327135388	-2.1518691352	 0.0593772393	-0.287784
C	 0.7945765185	-2.2493552411	-0.0294280085	 0.351462
O	 1.4797942965	-3.234428348	-0.0992443891	-0.310022
C	 1.27291191	-0.8152249865	-0.0425099351	 0.153813
C	 2.5424066481	-0.3980706735	-0.7082945245	-0.285755
N	 2.4794229568	-0.4639542216	 0.745231286	-0.329389
H	 0.7023216515	 1.8201782744	-0.4812250933	 0.253024
H	-0.9052711028	 1.7499429936	 0.0128217677	 0.262324
H	-1.0959171582	-2.643101653	 0.9715299522	 0.139781
H	-1.2007950035	-2.6766927409	-0.7825782364	 0.137256
H	 3.1364492313	-1.1812933788	-1.1712502054	 0.151786
H	 2.5748648805	 0.5680639819	-1.2077483414	 0.113091
H	 2.3390512844	 0.4666861419	 1.1367066773	 0.244949
71.458	217.4567	233.7913	242.5282	262.013	313.8049	384.343	508.9942	554.4863	574.0445	627.1104	635.3229	717.3588	737.8455	814.3459	848.1978	941.0947	974.7543	991.6968	1006.4512	1046.1057	1094.247	1133.2753	1179.943	1186.0657	1238.2784	1280.2329	1297.1787	1370.0515	1446.2061	1457.9774	1497.5608	1625.8117	1708.1687	1860.4955	3027.2316	3057.2249	3099.7455	3194.53	3478.6786	3550.9872	3656.2732
NC1=NCC(=O)C11CN1	NC1=NCC(=O)[C@]21CN2	
InChI=1S/C5H7N3O/c6-4-5(2-8-5)3(9)1-7-4/h8H,1-2H2,(H2,6,7)	InChI=1S/C5H7N3O/c6-4-5(2-8-5)3(9)1-7-4/h8H,1-2H2,(H2,6,7)/t5-/m0/s1
