19
gdb 38251	3.17505	1.77484	1.45029	0.5411	73.89	-0.2414	0.0718	0.3132	944.4489	0.162403	-422.995925	-422.989289	-422.988344	-423.026843	27.873	
C	-0.0099701653	 1.6660744222	 0.0103268051	-0.303857
C	 1.4892918983	 1.3186765818	 0.0255208418	 0.096201
C	 1.1216050054	 0.1036963615	 0.951834835	-0.318472
C	-0.0815085633	 0.098900414	-0.0241181258	 0.406503
O	-1.2605120881	-0.6299314179	-0.026088732	-0.330534
C	-1.6356234357	-0.8164840125	-1.418494041	-0.090145
C	-0.5202168789	-0.1946132018	-2.3164245285	-0.316559
C	 0.6457499418	-0.2152637469	-1.3288658361	 0.122807
O	 1.6932676521	 0.7588520795	-1.3003034343	-0.30124
H	-0.3820198683	 2.0691159787	 0.9537613343	 0.104145
H	-0.3758523188	 2.243399066	-0.8404182885	 0.09918
H	 2.2817343508	 2.0246320858	 0.2604656033	 0.088574
H	 1.7854893703	-0.7636757518	 0.9533403371	 0.104304
H	 0.8883381554	 0.4272612557	 1.9672534648	 0.108773
H	-1.741057863	-1.8931264093	-1.5913146331	 0.112559
H	-2.6094070876	-0.3469103891	-1.5899039771	 0.113166
H	-0.3572694719	-0.7830181939	-3.2215503681	 0.108847
H	-0.7707371634	 0.827017315	-2.611256081	 0.118369
H	 1.08590149	-1.2212971771	-1.3057582558	 0.077377
100.8649	237.8044	347.5798	405.8862	468.4526	515.1592	547.5765	602.0248	633.5728	730.3234	804.6494	835.1073	854.3289	885.3088	904.3029	935.7601	942.3898	961.0624	975.8327	1004.978	1029.5652	1040.4371	1108.4985	1119.1581	1130.7821	1153.0975	1195.4829	1208.9914	1218.7542	1226.761	1235.1271	1272.7691	1283.1802	1297.9384	1343.2312	1390.334	1410.1119	1474.2872	1496.8879	1516.8671	1523.6227	3008.1191	3038.5027	3070.1153	3073.0294	3077.4129	3081.0931	3125.4789	3139.6052	3145.2548	3159.4115
C1C2CC11OCCC1O2	C1[C@H]2C[C@]31OCC[C@H]3O2	
InChI=1S/C7H10O2/c1-2-8-7-3-5(4-7)9-6(1)7/h5-6H,1-4H2	InChI=1S/C7H10O2/c1-2-8-7-3-5(4-7)9-6(1)7/h5-6H,1-4H2/t5-,6-,7-/m1/s1
