19
gdb 95715	2.80293	1.23894	0.95831	2.7803	71.58	-0.2361	-0.0199	0.2161	1228.3226	0.159414	-460.178101	-460.169441	-460.168497	-460.211711	32.706	
O	-0.6352029125	 1.4580534511	-0.7019139447	-0.427872
C	-0.0548478953	 0.3013879707	-0.1130498476	 0.105643
C	-1.2066394354	-0.4959319125	 0.4952057246	-0.207162
C	-0.7868618632	-1.809582322	 1.1906206699	-0.306301
C	-0.4810759267	-2.9321190129	 0.2137352329	 0.347975
O	-1.1737457897	-3.91763936	 0.1133417408	-0.298633
C	 0.7663775504	-2.8026320271	-0.6714358658	-0.179312
O	 1.4475053568	-1.5726702856	-0.610396504	-0.237668
C	 0.7467340209	-0.4738050421	-1.1679618221	-0.104013
H	 0.0752066167	 2.0405634879	-0.9896726711	 0.286307
H	 0.6425001086	 0.5781551121	 0.6947155025	 0.075388
H	-1.7027497024	 0.1472216552	 1.2282076347	 0.118545
H	-1.9474908401	-0.7015786117	-0.2872867739	 0.11761
H	 0.0963085324	-1.626747094	 1.8157410734	 0.120742
H	-1.597315336	-2.1657337878	 1.830311016	 0.123935
H	 1.4758502202	-3.5697561613	-0.3402633883	 0.140654
H	 0.4717763107	-3.057329415	-1.7008565937	 0.124373
H	 0.0783350118	-0.7942913921	-1.9812727287	 0.103203
H	 1.5019451629	 0.1927484872	-1.604103415	 0.096586
53.5052	120.1458	200.7439	262.9063	278.726	301.3606	360.3774	394.6572	420.1848	481.5826	489.2548	551.5997	615.783	731.9734	835.0571	883.6758	929.3781	961.4895	997.5622	1021.3535	1080.8097	1086.0593	1102.1368	1138.8744	1158.7843	1228.2682	1248.9299	1275.413	1294.723	1315.4667	1340.0895	1343.9766	1350.9508	1369.2569	1406.9992	1442.5741	1452.0388	1469.92	1489.1667	1501.2073	1812.4194	2967.8359	2993.3134	3000.4712	3034.2522	3040.8594	3048.8705	3071.9563	3088.7276	3112.7436	3816.0267
OC1CCC(=O)COC1	O[C@H]1CCC(=O)COC1	
InChI=1S/C6H10O3/c7-5-1-2-6(8)4-9-3-5/h5,7H,1-4H2	InChI=1S/C6H10O3/c7-5-1-2-6(8)4-9-3-5/h5,7H,1-4H2/t5-/m0/s1
