23
gdb 110010	2.00357	1.518	0.99421	1.5711	87.73	-0.2333	0.0257	0.259	1301.4143	0.205454	-388.314735	-388.30495	-388.304006	-388.348996	37.474	
C	-1.623277399	-0.3386663947	 0.2716890004	-0.387655
C	-0.1627934168	 0.0975743159	 0.1215827924	-0.177387
C	 0.7391994386	-0.3872178882	 1.2650014112	-0.098173
C	 0.858812885	-1.9354109464	 1.4014006374	 0.115674
O	 0.8058558456	-2.5933123282	 0.1403344781	-0.433497
C	 2.230958862	-2.1458106807	 2.0818218066	-0.280294
C	 3.0036343556	-0.9258288875	 1.6415739773	-0.190743
C	 2.2017284364	 0.0455586558	 1.1932918306	 0.324025
C	 2.618827519	 1.4113733208	 0.743426094	-0.502272
H	-2.0414886535	-0.0031862504	 1.2279247274	 0.106727
H	-2.2428021277	 0.0824884631	-0.5262928655	 0.107242
H	-1.7120195216	-1.4274244654	 0.2240780073	 0.135755
H	 0.2277385583	-0.2707658169	-0.8337276707	 0.090738
H	-0.1128782067	 1.1923372591	 0.0763115031	 0.090047
H	 0.316151917	 0.0024280301	 2.2066684413	 0.07433
H	 0.0339218604	-2.3645940061	 1.974836037	 0.081025
H	 1.5611302611	-2.2833053643	-0.3729987916	 0.278626
H	 2.1342890047	-2.1773247201	 3.1768418964	 0.104002
H	 2.6715399779	-3.1006933521	 1.7751495322	 0.104394
H	 4.0818184141	-0.84182234	 1.7334225725	 0.083295
H	 3.7029960838	 1.5384693951	 0.8089288281	 0.120663
H	 2.3158449405	 1.6097971476	-0.2916287306	 0.128123
H	 2.1491466853	 2.1912300834	 1.3572458152	 0.125357
84.8374	106.118	177.6348	187.2666	225.1114	245.387	282.7891	296.7905	375.8096	400.417	416.5842	498.1984	531.8068	642.2503	720.1226	783.7831	809.4121	846.984	870.8862	916.1502	957.4692	959.6533	1004.1794	1032.8522	1037.9592	1050.4554	1078.8748	1116.1604	1146.439	1173.7343	1194.9663	1244.1645	1258.2896	1282.2514	1303.4175	1316.1446	1347.1376	1350.8888	1383.9372	1408.0508	1414.672	1435.2727	1477.8129	1479.1024	1485.97	1490.2033	1498.3147	1511.953	1708.1297	2957.5371	3003.3184	3017.2039	3029.9186	3031.7318	3064.7666	3065.0555	3066.0541	3087.855	3096.3297	3107.8315	3118.3331	3180.8356	3790.1936
CCC1C(O)CC=C1C	CC[C@H]1[C@@H](O)CC=C1C	
InChI=1S/C8H14O/c1-3-7-6(2)4-5-8(7)9/h4,7-9H,3,5H2,1-2H3	InChI=1S/C8H14O/c1-3-7-6(2)4-5-8(7)9/h4,7-9H,3,5H2,1-2H3/t7-,8+/m1/s1
