19
gdb 91863	3.65206	1.15349	1.08362	3.713	76.29	-0.2448	-0.0187	0.226	1164.9168	0.159552	-423.040895	-423.032601	-423.031657	-423.073597	32.075	
O	-0.5667113007	 1.165708558	 0.9328603085	-0.424688
C	 0.0289093869	 0.1421997359	 0.1354807918	 0.089595
C	 0.8359698235	-0.8742421587	 0.9800602946	-0.248752
C	-0.1484893264	-1.9568992712	 1.3889322537	-0.053119
C	-1.4802730744	-1.5632697616	 1.9309585	-0.323186
C	-1.3629209893	-1.8515655461	 0.4420561507	 0.253879
C	-1.1222978452	-0.6730066144	-0.4904220214	-0.301251
C	-1.9569519374	-3.1037870472	-0.071969654	 0.057928
O	-2.2361508076	-4.0661850583	 0.6059390289	-0.275813
H	 0.139521041	 1.6366775984	 1.3869447819	 0.282858
H	 0.658171752	 0.6020006472	-0.6385919868	 0.072968
H	 1.633466314	-1.3143092555	 0.3699387775	 0.1061
H	 1.3181330223	-0.3826903781	 1.8338694658	 0.09724
H	 0.2244210215	-2.9454588764	 1.6326046667	 0.105567
H	-2.0162542339	-2.3191100117	 2.4941466525	 0.13455
H	-1.6498501767	-0.5316271593	 2.2135263606	 0.138465
H	-1.9963644974	-0.0290215069	-0.6238483628	 0.121582
H	-0.8266977529	-1.0419265523	-1.480003418	 0.102077
H	-2.1222045593	-3.119190032	-1.1745217604	 0.063998
97.6819	152.6634	181.2943	228.3824	309.1848	314.7241	390.24	399.5917	416.6162	508.7141	650.7975	729.5601	743.9273	809.5212	826.1335	882.019	897.2329	936.0338	967.9885	983.0941	1028.0454	1063.5061	1068.2162	1090.7747	1098.7121	1111.0376	1188.0273	1202.7487	1246.8127	1252.6283	1283.8543	1316.6522	1339.9674	1360.3335	1402.1575	1420.7585	1435.3404	1462.6366	1475.1862	1489.7713	1800.6203	2858.5332	3001.1529	3029.6486	3040.2856	3068.2097	3092.0406	3143.6275	3177.5791	3244.5045	3816.394
OC1CC2CC2(C1)C=O	O[C@H]1C[C@H]2C[C@]2(C1)C=O	
InChI=1S/C7H10O2/c8-4-7-2-5(7)1-6(9)3-7/h4-6,9H,1-3H2	InChI=1S/C7H10O2/c8-4-7-2-5(7)1-6(9)3-7/h4-6,9H,1-3H2/t5-,6-,7-/m0/s1
