17
gdb 108970	4.10789	1.2543	1.1167	1.3297	73.09	-0.2173	0.009	0.2263	1097.5395	0.13619	-421.767959	-421.76049	-421.759546	-421.800172	29.029	
O	 0.0207007399	 1.4031226432	-0.0567104584	-0.41306
C	-0.0047131108	-0.0117537337	-0.0019439796	-0.193182
C	-1.4169663126	-0.475804783	 0.1187833235	 0.309135
C	-2.5454156714	 0.2464527024	 0.0418084831	-0.151274
C	-3.7208126047	-0.6572544163	 0.068766413	-0.136826
C	-3.6194278475	-1.9426478187	-0.8397892788	 0.101152
O	-2.3093075358	-2.1601783213	-1.3090440918	-0.29515
C	-1.8106596311	-1.9324845527	 0.0819660811	-0.038463
C	-3.2753435244	-1.9997303058	 0.6036501369	-0.157389
H	 0.9337740404	 1.6812897368	-0.1695918847	 0.289899
H	 0.4476467645	-0.4577004725	-0.9055428497	 0.106934
H	 0.5834412144	-0.3892352163	 0.8547002411	 0.090389
H	-2.5956044325	 1.3141097788	-0.1222923264	 0.116137
H	-4.7235183219	-0.3033440245	 0.2763332894	 0.087317
H	-4.4429988543	-2.306102668	-1.4423521972	 0.110343
H	-1.0794151752	-2.6940086983	 0.3529818742	 0.075808
H	-3.676414857	-2.5366362503	 1.4536882443	 0.098231
72.3365	158.4157	190.3539	232.0308	373.7973	427.7884	488.0089	595.721	657.6094	697.0142	773.6987	791.1507	800.9268	840.8089	863.0732	871.2211	921.0436	956.7647	996.7359	1034.4376	1045.2775	1053.0657	1071.0808	1077.7006	1112.1674	1169.2792	1208.8157	1217.7809	1234.5792	1246.472	1270.053	1319.7025	1334.527	1374.8598	1465.9307	1508.6856	1683.8261	2931.2055	2949.5348	3118.0313	3184.3262	3187.867	3201.2586	3232.9118	3838.4134
OCC1=CC2C3OC1C23	OCC1=C[C@H]2[C@H]3O[C@@H]1[C@@H]23	
InChI=1S/C7H8O2/c8-2-3-1-4-5-6(3)9-7(4)5/h1,4-8H,2H2	InChI=1S/C7H8O2/c8-2-3-1-4-5-6(3)9-7(4)5/h1,4-8H,2H2/t4-,5-,6+,7-/m1/s1
