17
gdb 12510	3.52301	1.87368	1.3609	2.1512	70.49	-0.2327	0.0004	0.2331	925.0093	0.143217	-363.865656	-363.858088	-363.857144	-363.897559	28.097	
C	-0.5714872495	 1.4112398	 0.2021955234	-0.482095
C	 0.0747906948	 0.0808065877	-0.0578704136	 0.329194
C	-0.0485429155	-0.5730654302	-1.2142292644	-0.176705
C	 0.6108368584	-1.9033057403	-1.4395514211	-0.130285
O	 0.1075763007	-2.95486911	-0.5907042971	-0.219738
C	 0.222777609	-2.8210555292	 0.75238059	 0.142945
N	 0.5622868835	-1.8681279479	 1.5065323684	-0.264569
C	 0.8974537616	-0.5145630719	 1.077494496	-0.262501
H	 0.1775137441	 2.1604737897	 0.4898739661	 0.129195
H	-1.1063969507	 1.7821910094	-0.6759646254	 0.122913
H	-1.2800155932	 1.3455776152	 1.0374544581	 0.136216
H	-0.6470583895	-0.1599541179	-2.0214372521	 0.089196
H	 0.4320642234	-2.2704565254	-2.4515494025	 0.119979
H	 1.6983386262	-1.8398234324	-1.2957189633	 0.116663
H	-0.0532582998	-3.7736312561	 1.2073335957	 0.118184
H	 1.9676191433	-0.4684587852	 0.8197333106	 0.120368
H	 0.7901852034	 0.1229792845	 1.9616410013	 0.111039
82.8768	148.7045	202.997	251.4029	325.1258	351.956	404.7563	478.3321	532.2875	655.031	749.7843	814.134	858.0066	918.5222	934.0523	958.4029	989.2786	1001.4748	1055.4272	1070.1532	1097.6983	1163.3843	1200.1738	1258.7955	1289.5056	1347.4195	1387.1883	1401.8096	1411.9523	1438.3148	1476.0368	1482.055	1487.4114	1503.264	1738.0781	1759.1808	2978.8706	3009.2698	3017.0382	3052.1792	3065.4752	3113.0318	3114.0201	3126.6922	3163.6049
CC1=CCOC=NC1	CC1=CCOC=NC1	
InChI=1S/C6H9NO/c1-6-2-3-8-5-7-4-6/h2,5H,3-4H2,1H3	InChI=1S/C6H9NO/c1-6-2-3-8-5-7-4-6/h2,5H,3-4H2,1H3
