22
gdb 39627	3.9695	1.07348	1.01096	2.0364	86.01	-0.2223	0.0789	0.3012	1281.4915	0.196489	-367.1218	-367.113882	-367.112938	-367.1549	31.399	
C	-0.1035264617	 1.5176939096	-0.0290799916	-0.20865
C	 1.445842091	 1.5171488581	-0.1187567655	-0.231903
C	 1.4470547512	 0.1132353903	 0.5584657955	-0.126624
C	-0.0564424825	-0.0207603977	 0.169731604	-0.231844
C	 2.4203231979	-0.9271257646	 0.0833054956	 0.333979
C	 3.9662590811	-0.957013406	 0.2022430633	-0.211344
N	 3.6875165279	-2.2812989796	-0.5289246502	-0.145492
C	 2.5281443778	-2.424621954	 0.4716842256	-0.211213
C	 2.6876631209	-1.4528831543	-1.3534716009	-0.207252
H	-0.4558365757	 2.0305904717	 0.8705353048	 0.102791
H	-0.6614159017	 1.9018686317	-0.8861866128	 0.097066
H	 1.7890384937	 1.4549936191	-1.1566350199	 0.099962
H	 1.9909371551	 2.322575913	 0.3790488604	 0.097006
H	 1.5416061794	 0.2247883172	 1.6455546742	 0.06752
H	-0.7334627589	-0.4665062539	 0.9022677074	 0.097007
H	-0.1726740695	-0.5531957717	-0.7799242543	 0.099925
H	 4.5449205672	-0.2443160116	-0.3929202508	 0.097148
H	 4.4044090358	-1.0916508311	 1.1958702669	 0.095534
H	 2.8559406738	-2.6719323768	 1.4859701514	 0.095529
H	 1.7414955977	-3.1050846771	 0.1323404945	 0.097143
H	 1.9159710782	-2.0601219613	-1.8356885982	 0.096854
H	 3.1690940714	-0.7813246112	-2.0704220295	 0.09686
52.3439	111.705	144.2096	222.2372	354.0566	399.3914	532.2849	591.7374	594.9539	699.259	774.3161	788.9687	801.6447	823.6677	891.0879	921.8476	934.2629	944.2016	948.7006	971.7827	973.7676	980.9904	1025.2724	1025.6764	1049.5716	1097.3307	1155.1961	1165.025	1168.568	1172.5591	1198.5301	1199.7278	1207.2964	1243.8313	1256.6406	1260.9703	1270.6938	1281.6437	1287.917	1323.6114	1391.7176	1476.3132	1486.3732	1508.5671	1510.4383	1510.7398	1563.859	3028.6873	3037.8282	3039.119	3047.6038	3049.2817	3052.4449	3058.4381	3096.8872	3102.0924	3103.6586	3109.1052	3110.1437	3117.8638
C1CC(C1)C12CN(C1)C2	C1CC(C1)[C@@]12CN(C1)C2	
InChI=1S/C8H13N/c1-2-7(3-1)8-4-9(5-8)6-8/h7H,1-6H2	InChI=1S/C8H13N/c1-2-7(3-1)8-4-9(5-8)6-8/h7H,1-6H2
