19
gdb 114150	4.66926	0.93104	0.84634	4.5639	82.92	-0.2306	0.017	0.2476	1389.2875	0.159274	-382.042318	-382.033568	-382.032624	-382.075919	32.678	
C	-0.0970145003	 1.5726495271	-0.017106224	-0.380107
C	 0.0254276723	 0.0645982058	 0.1875237633	-0.131934
N	-1.2476978341	-0.6035250623	-0.0468592457	-0.067838
C	-1.7645289338	-0.73763511	-1.436551732	-0.240018
C	-1.9565487524	-2.2474905548	-1.2151079923	 0.184688
C	-0.6225796643	-2.8718390277	-0.8450174995	-0.334646
C	-1.3399408799	-2.0383460972	 0.1760650977	-0.051636
C	-3.0991776805	-3.0032330537	-1.5987624106	 0.186876
N	-4.03034867	-3.6090208271	-1.9253893901	-0.349501
H	 0.8563160237	 2.0677579917	 0.1896626974	 0.117973
H	-0.3771600655	 1.8108509631	-1.048908419	 0.12041
H	-0.8610214611	 1.9898036553	 0.6447304182	 0.129794
H	 0.8342521061	-0.3321741323	-0.4536934228	 0.080136
H	 0.3139378046	-0.1493306253	 1.2236638643	 0.109377
H	-2.6962932553	-0.1870005667	-1.5885267542	 0.132074
H	-1.0533747404	-0.480682784	-2.2326814004	 0.108205
H	-0.6565050988	-3.942774163	-0.6755182745	 0.1415
H	 0.2770218889	-2.5138196544	-1.3371000351	 0.124595
H	-1.6672126092	-2.4362511444	 1.1306307494	 0.120051
85.6507	101.8166	133.8064	207.9514	226.5638	281.6551	371.202	399.31	463.0458	544.5096	560.66	591.5845	684.8011	805.1455	822.0149	840.0475	910.0974	956.733	977.4696	1000.5965	1016.8252	1065.3064	1077.4454	1082.7931	1119.2756	1152.8629	1200.6743	1212.4676	1218.753	1282.9272	1309.6936	1321.6492	1382.306	1394.442	1412.4763	1480.4993	1488.0883	1491.8375	1506.1679	1514.5133	2346.6831	2929.1099	3016.2343	3039.0087	3049.6248	3091.7902	3106.6345	3122.1104	3124.1885	3172.9446	3219.002
CCN1CC2(CC12)C#N	CCN1C[C@]2(C[C@@H]12)C#N	
InChI=1S/C7H10N2/c1-2-9-5-7(4-8)3-6(7)9/h6H,2-3,5H2,1H3	InChI=1S/C7H10N2/c1-2-9-5-7(4-8)3-6(7)9/h6H,2-3,5H2,1H3/t6-,7+/m1/s1
