21
gdb 89024	4.04297	0.70702	0.64445	2.2998	80.51	-0.2199	0.0352	0.2551	1767.7707	0.180881	-420.414349	-420.403685	-420.402741	-420.452064	37.333	
C	-0.0372124619	 1.4836641722	-0.3995906876	-0.412553
C	 0.0050584361	 0.0121232963	-0.0475510208	 0.032052
C	 1.2931527805	-0.7365205642	 0.0141273125	-0.258491
N	 0.5132491354	-0.4983520248	 1.2279386995	-0.089384
C	 1.0636734881	 0.4298902386	 2.209423234	-0.137623
C	 1.866862584	-0.3491219589	 3.2520352888	-0.30679
C	 2.5262126486	 0.5740244298	 4.2716275689	 0.40851
N	 2.7681961918	 0.004575403	 5.4889879463	-0.52269
O	 2.8282402185	 1.7267023636	 4.0244980959	-0.362962
H	 0.8821839606	 2.0067626083	-0.1274239252	 0.127184
H	-0.1790358165	 1.6014525432	-1.4792043348	 0.120889
H	-0.8738598169	 1.9861728786	 0.0986378373	 0.123218
H	-0.8725833621	-0.538396262	-0.3859058698	 0.087009
H	 1.3634312199	-1.7687435968	-0.3198928905	 0.108825
H	 2.203593123	-0.1525299697	-0.1246702017	 0.105894
H	 1.7134144512	 1.2057755595	 1.7833071793	 0.113704
H	 0.2299383075	 0.9456185049	 2.6996670539	 0.107467
H	 1.2286639752	-1.0912650856	 3.7433047186	 0.110246
H	 2.6640918154	-0.9115061434	 2.7473693885	 0.129319
H	 2.5488172954	-0.9551261116	 5.6879230606	 0.257478
H	 3.2621237361	 0.5454310191	 6.1797041064	 0.258698
21.3668	63.3169	86.1559	100.2385	112.4305	186.0682	235.2699	262.4226	344.4233	410.2221	446.5631	507.5862	545.5009	603.7117	670.3881	754.4594	800.9802	809.1795	886.3097	907.4022	949.9314	1029.7443	1033.9003	1069.7007	1084.7219	1103.6282	1113.3809	1148.0695	1161.8981	1190.2042	1229.0097	1261.667	1315.5346	1337.1277	1370.4127	1399.8715	1414.0388	1422.9589	1465.0651	1490.6307	1495.4361	1502.3653	1515.6794	1616.1788	1792.1816	3013.8312	3027.5046	3036.1235	3059.0062	3079.9914	3081.9915	3092.531	3098.2726	3127.541	3167.7516	3603.5096	3742.3822
CC1CN1CCC(N)=O	C[C@H]1CN1CCC(=O)N	
InChI=1S/C6H12N2O/c1-5-4-8(5)3-2-6(7)9/h5H,2-4H2,1H3,(H2,7,9)	InChI=1S/C6H12N2O/c1-5-4-8(5)3-2-6(7)9/h5H,2-4H2,1H3,(H2,7,9)/t5-,8?/m0/s1
