19
gdb 68491	2.7459	1.69957	1.30811	1.0347	70.24	-0.2541	0.0665	0.3206	1000.2661	0.16082	-460.143168	-460.135687	-460.134743	-460.174484	30.854	
O	 0.0011548862	 1.4296990495	-0.0650836814	-0.475047
C	 0.0098025236	 0.0247341789	 0.0402233475	 0.372036
C	 0.2259574517	-0.6451236573	 1.432338171	-0.295858
C	-0.9173453163	-1.6332156501	 1.0558622887	 0.119167
C	-1.4134061181	-0.5784270474	 0.0300306008	-0.301395
O	-0.4593328632	-2.863360165	 0.5142248906	-0.257546
C	 0.168539893	-2.8204604491	-0.74112272	 0.018197
O	 1.2655825061	-1.9461646071	-0.810828735	-0.237987
C	 0.9344045365	-0.5836840902	-1.0311995942	-0.144882
H	 0.9047448326	 1.7505429301	 0.0334686751	 0.278232
H	 1.1991609013	-1.0861811932	 1.6522698095	 0.110572
H	-0.0818084475	 0.0342032614	 2.2314061253	 0.103082
H	-1.607866661	-1.9140145247	 1.8516374171	 0.087617
H	-2.1025823969	 0.1173319061	 0.5141253714	 0.117289
H	-1.8481480662	-0.9079198946	-0.9163625702	 0.103718
H	 0.5580687654	-3.8282146895	-0.9009625386	 0.118377
H	-0.5536812745	-2.5726998198	-1.5370185171	 0.083024
H	 0.4802316023	-0.4458722914	-2.0249503334	 0.10288
H	 1.892650685	-0.0511134767	-1.0224450071	 0.098523
207.5091	231.7376	281.4545	304.4681	353.2553	389.0175	415.7953	431.632	448.6567	516.2771	610.833	673.5488	810.5994	818.2351	868.0698	911.8951	945.9255	949.5649	964.3804	988.7242	1045.4717	1067.7229	1086.6578	1118.839	1170.5851	1189.6619	1194.0184	1212.0354	1253.0817	1260.2167	1278.9725	1288.3899	1327.1115	1372.8067	1386.5683	1405.0506	1445.7018	1453.2656	1484.5252	1492.1464	1518.5668	2960.7365	2987.0452	3059.0691	3067.1206	3071.7817	3105.0291	3107.2298	3125.8832	3139.2498	3795.6442
OC12CC(C1)OCOC2	O[C@@]12C[C@@H](C1)OCOC2	
InChI=1S/C6H10O3/c7-6-1-5(2-6)9-4-8-3-6/h5,7H,1-4H2	InChI=1S/C6H10O3/c7-6-1-5(2-6)9-4-8-3-6/h5,7H,1-4H2/t5-,6-
