20
gdb 30685	3.65925	0.98806	0.82876	1.143	80.32	-0.2384	0.0077	0.2461	1422.2786	0.171376	-403.191299	-403.182245	-403.181301	-403.225691	33.297	
C	 0.1187830953	 1.5433604316	-0.1350734335	-0.393493
C	 0.0634989088	 0.0188309152	-0.0046061745	-0.165443
C	 0.635039957	-0.5281483326	 1.3247713765	-0.080224
C	-0.1920772606	-0.1080981424	 2.5465981241	-0.407416
C	 0.7846381533	-2.0194401074	 1.2456284509	 0.25539
C	 0.2052669907	-3.00741984	 1.9724387944	-0.121481
O	 0.6611966659	-4.2144195219	 1.50918606	-0.14449
C	 1.5061552052	-3.8828219427	 0.5103044683	 0.069593
N	 1.6263063553	-2.6150386129	 0.3009258342	-0.306347
H	 1.1450399051	 1.9118059688	-0.0244858412	 0.115398
H	-0.2415111017	 1.8602247403	-1.1187433825	 0.113677
H	-0.498132023	 2.0473249523	 0.6156125366	 0.115181
H	-0.9725824647	-0.3294295718	-0.1112978502	 0.091343
H	 0.6282912804	-0.4367892452	-0.8242741694	 0.121472
H	 1.6481345507	-0.1142977363	 1.4330164695	 0.090765
H	-1.2227386695	-0.4732269767	 2.46736397	 0.115467
H	 0.2379310661	-0.5052903241	 3.4714085781	 0.11672
H	-0.2322323069	 0.9796149893	 2.6406079387	 0.119846
H	-0.4914994497	-3.0452156067	 2.7906854471	 0.144984
H	 1.9921799323	-4.6968060267	-0.0048004869	 0.149055
52.4912	93.8456	134.5754	197.5576	228.422	275.4122	287.6325	348.2596	411.721	470.2561	638.233	667.7821	735.5048	777.1847	787.2561	844.3421	849.5846	935.7154	962.0723	977.6829	998.5302	1038.4307	1096.6728	1097.5366	1131.1942	1141.7146	1177.2392	1237.3312	1251.6064	1289.0968	1325.3851	1340.4268	1363.7327	1382.2616	1411.3973	1416.3904	1486.9134	1495.4053	1502.6329	1507.8564	1511.3194	1561.184	1621.7321	2999.8917	3023.927	3032.5197	3034.4938	3074.8297	3097.7344	3099.4756	3105.3525	3121.0465	3272.9075	3301.498
CCC(C)C1=COC=N1	CC[C@@H](C)c1cocn1	
InChI=1S/C7H11NO/c1-3-6(2)7-4-9-5-8-7/h4-6H,3H2,1-2H3	InChI=1S/C7H11NO/c1-3-6(2)7-4-9-5-8-7/h4-6H,3H2,1-2H3/t6-/m1/s1
