23
gdb 123083	6.55189	0.42995	0.40956	3.8783	83.9	-0.2419	-0.0075	0.2344	2622.7682	0.202194	-425.4513	-425.439547	-425.438603	-425.490565	39.893	
C	-0.07133496	 1.5425519227	 0.0108304748	-0.472383
C	 0.0886443475	 0.0309829709	 0.0015511334	 0.376977
O	 1.1784698273	-0.4939121722	-0.0114296038	-0.288985
C	-1.2005022395	-0.7824413984	 0.0095013769	-0.304267
C	-0.9817503467	-2.2946283349	-0.0009691479	-0.167931
C	-2.2921302251	-3.0885118197	 0.0074702507	-0.193981
C	-2.0711214448	-4.6039301463	-0.0030164103	-0.165128
C	-3.3718857757	-5.3956213514	 0.005358971	-0.073376
O	-3.0462262635	-6.7775310597	-0.0054577185	-0.420933
H	 0.9095639725	 2.0191784171	 0.0050751632	 0.141918
H	-0.6459558749	 1.8715901081	-0.8623742233	 0.136219
H	-0.6313699669	 1.8625271796	 0.8967723801	 0.136164
H	-1.7873252692	-0.4754062946	 0.8877447449	 0.11585
H	-1.804239732	-0.4657547143	-0.8537175361	 0.115825
H	-0.3866407193	-2.5642870222	-0.8807827341	 0.111412
H	-0.3695780741	-2.5738821458	 0.8640153892	 0.111438
H	-2.8824120743	-2.810080582	 0.8921850949	 0.090675
H	-2.8995613585	-2.8004402339	-0.862425127	 0.090674
H	-1.4930540402	-4.8944567761	-0.8887571497	 0.10645
H	-1.475866469	-4.9041058597	 0.8679995789	 0.106451
H	-3.9615102562	-5.1321849404	 0.8994053985	 0.081269
H	-3.9788842226	-5.1224001208	-0.8740041784	 0.081268
H	-3.8658836846	-7.2800865461	-0.0000791476	 0.284393
31.4437	50.0631	74.0103	81.1306	109.0874	127.7693	159.9356	189.5582	248.7043	267.2811	343.5956	439.1232	478.2848	489.9168	597.3678	723.7583	757.2524	822.4977	827.5092	925.7796	933.6518	1003.6447	1004.8812	1034.3054	1063.1235	1077.4229	1098.2148	1148.2295	1173.9995	1199.5722	1227.8063	1260.5024	1282.7722	1309.1734	1325.189	1329.9209	1332.615	1379.6362	1388.6104	1403.5516	1450.6326	1463.5177	1465.5383	1477.3746	1484.5192	1492.8609	1508.3819	1529.6789	1811.8469	2954.4478	2978.6559	2999.7664	3006.2795	3026.8572	3030.9816	3031.6337	3036.5046	3044.9414	3073.074	3086.2803	3096.3758	3151.5214	3830.1847
CC(=O)CCCCCO	CC(=O)CCCCCO	
InChI=1S/C7H14O2/c1-7(9)5-3-2-4-6-8/h8H,2-6H2,1H3	InChI=1S/C7H14O2/c1-7(9)5-3-2-4-6-8/h8H,2-6H2,1H3
