20
gdb 65498	3.41625	1.07557	0.95722	2.2278	80.33	-0.2467	-0.0199	0.2268	1285.7007	0.169464	-403.123498	-403.114429	-403.113485	-403.157501	34.216	
C	-0.6017776038	 1.6343419168	-0.0748444272	-0.464174
C	 0.0816747712	 0.2813873532	 0.035021646	 0.221399
C	 1.3621144721	 0.0394326266	-0.851748462	-0.365638
C	 2.0742227988	-0.5109861034	 0.3853532389	 0.383807
C	 2.814468291	-1.7890105953	 0.4794636191	-0.305303
N	 3.4962419835	-0.4939845241	 0.6928372678	-0.367482
C	 0.9752852858	 0.0169487643	 1.3060919212	-0.340401
C	-0.886737099	-0.8620003714	-0.1531258787	 0.137914
O	-2.0683801174	-0.7454737512	-0.3562754251	-0.263329
H	 0.1200311436	 2.4443802237	 0.0667512608	 0.10902
H	-1.0733825501	 1.7563428655	-1.0544710039	 0.129361
H	-1.3882676319	 1.7358273641	 0.6786225683	 0.131792
H	 1.2552309825	-0.6253110274	-1.7145654832	 0.110208
H	 1.7773427281	 0.9932290875	-1.1928835658	 0.112753
H	 2.7269909477	-2.4077545818	 1.3688872972	 0.122361
H	 3.007320303	-2.3384784241	-0.4390938792	 0.113842
H	 4.0333596277	-0.2405033707	-0.1337492666	 0.230812
H	 1.2533404846	 0.9546514393	 1.7950047715	 0.118261
H	 0.5779539932	-0.6690957029	 2.0595261414	 0.11124
H	-0.4156428607	-1.8716097587	-0.0881500504	 0.073557
54.484	91.574	199.5287	230.5546	251.8807	295.4379	310.517	348.8072	390.5186	424.9704	437.3435	619.6853	742.137	794.5819	840.4052	858.3792	874.5458	901.8735	908.8483	962.9041	978.507	987.7601	1017.925	1046.8597	1095.6707	1122.4957	1139.1257	1149.6223	1191.9783	1235.9004	1260.7792	1267.2484	1291.8236	1329.7296	1410.4583	1415.9125	1436.331	1467.4202	1485.6163	1487.6753	1494.5017	1515.1743	1825.9119	2851.2641	3039.4476	3042.7593	3054.8467	3093.8328	3100.3843	3107.5278	3112.9954	3114.8515	3186.0156	3488.6793
CC1(CC2(CN2)C1)C=O	C[C@]1(C[C@]2(CN2)C1)C=O	
InChI=1S/C7H11NO/c1-6(5-9)2-7(3-6)4-8-7/h5,8H,2-4H2,1H3	InChI=1S/C7H11NO/c1-6(5-9)2-7(3-6)4-8-7/h5,8H,2-4H2,1H3/t6-,7-
