20
gdb 84765	2.21481	1.52025	1.22383	4.0283	83.68	-0.2558	0.0068	0.2627	1130.3986	0.171128	-366.048514	-366.039594	-366.03865	-366.08164	34.422	
C	-0.1612150261	 1.5911012282	-0.030648633	-0.41741
C	 0.0401074198	 0.0735464474	-0.0090944805	-0.038108
C	 0.8594549243	-0.4875285889	-1.1506397049	-0.068907
C	 1.6317389751	-1.5022846207	-0.7725677595	-0.082866
C	 1.48100382	-1.8066901991	 0.6970362709	-0.291397
C	 0.7884526464	-0.5153240333	 1.2514981267	 0.105898
C	 1.8626349747	 0.4439964877	 1.8077599459	-0.42978
C	-0.1661060754	-0.8284426027	 2.3179277772	 0.254332
N	-0.9225002636	-1.0672381345	 3.1594698606	-0.35445
H	 0.7879634621	 2.1327684036	-0.0670537501	 0.12293
H	-0.7377976329	 1.8748953918	-0.9167608006	 0.120722
H	-0.7198409114	 1.9301782833	 0.8474366288	 0.131763
H	-0.9582666492	-0.3865192805	-0.0429095359	 0.104544
H	 0.7667235104	-0.1056708722	-2.1615337766	 0.099482
H	 2.2705050443	-2.0879259909	-1.4235955334	 0.102284
H	 0.8540380695	-2.6940874171	 0.8521872213	 0.12913
H	 2.4299155561	-1.999509962	 1.2084111497	 0.115107
H	 2.5888880663	 0.6800778515	 1.0251569372	 0.12973
H	 1.4251976694	 1.3754165614	 2.172668558	 0.135025
H	 2.3916051801	-0.0289114632	 2.6394089782	 0.13197
89.7651	147.3967	190.7856	246.559	270.2425	276.7502	304.8512	368.5245	381.9916	489.3744	520.9023	565.8943	588.6888	687.6645	754.5403	767.2233	874.926	924.6048	932.3639	954.9048	970.1322	976.9637	1028.744	1072.7105	1102.0489	1127.1943	1152.9493	1169.1162	1183.4399	1244.7799	1299.5792	1333.7846	1348.2341	1371.4418	1404.9138	1415.2775	1484.4639	1490.8495	1492.6288	1503.7667	1511.5661	1689.6517	2349.9091	2994.3894	3027.0214	3039.1131	3049.7553	3069.3302	3104.6626	3116.2601	3123.5385	3134.5734	3185.0042	3210.6904
CC1C=CCC1(C)C#N	C[C@H]1C=CC[C@]1(C)C#N	
InChI=1S/C8H11N/c1-7-4-3-5-8(7,2)6-9/h3-4,7H,5H2,1-2H3	InChI=1S/C8H11N/c1-7-4-3-5-8(7,2)6-9/h3-4,7H,5H2,1-2H3/t7-,8+/m0/s1
