19
gdb 20089	3.23567	1.62	1.33907	2.7171	72.48	-0.2258	0.0785	0.3042	998.9818	0.16465	-365.008405	-364.999918	-364.998973	-365.041593	31.419	
C	-0.1348535982	 1.499074398	-0.0021057911	-0.398526
C	 0.014267204	-0.0055085198	-0.0158488723	-0.07909
C	 1.3583779758	-0.6581657631	-0.2721888606	 0.100098
O	 2.5028567169	 0.1262791643	-0.3956498206	-0.431523
C	 0.7247436235	-0.7648111272	 1.0965920955	-0.035388
N	 1.4055378053	-0.0041601352	 2.1115288586	-0.084417
C	 0.7192016706	 0.2032577494	 3.3843466062	-0.21609
C	 1.8733123394	-0.7323012702	 3.2886328175	-0.224378
H	 0.7952465414	 1.9880743107	 0.2916720848	 0.125078
H	-0.3980192826	 1.8625100445	-1.0009388041	 0.118144
H	-0.9217841656	 1.8196500961	 0.689025466	 0.109812
H	-0.8386627984	-0.5404168843	-0.4273007157	 0.081428
H	 1.3991502941	-1.5388216611	-0.9066439264	 0.09401
H	 2.6701903735	 0.4815686564	 0.4904989014	 0.289138
H	 0.2943968842	-1.7169788132	 1.4144237046	 0.072208
H	 0.8409040686	 1.1848798213	 3.8329786467	 0.121778
H	-0.2706848371	-0.233154456	 3.4967707998	 0.117619
H	 1.6616076335	-1.7985541188	 3.3374331213	 0.118145
H	 2.8491435412	-0.4439339116	 3.6680722085	 0.121955
68.6207	114.113	140.3741	168.8017	233.4374	313.6634	335.5174	467.0106	512.5963	573.2886	647.2137	747.7993	766.1812	808.6349	854.8404	894.0679	930.4988	984.3693	1011.0435	1037.9835	1071.1223	1109.7026	1112.2444	1121.407	1123.168	1143.5493	1158.8888	1176.7426	1208.0807	1236.5345	1314.8373	1341.5374	1368.8436	1393.5473	1418.4316	1460.4113	1490.4356	1491.4368	1501.1342	1518.7267	3037.5822	3064.9209	3092.5169	3102.0117	3106.8535	3125.3206	3139.8802	3150.0307	3184.5566	3199.1855	3699.3219
CC1C(O)C1N1CC1	C[C@H]1[C@@H](O)[C@H]1N1CC1	
InChI=1S/C6H11NO/c1-4-5(6(4)8)7-2-3-7/h4-6,8H,2-3H2,1H3	InChI=1S/C6H11NO/c1-4-5(6(4)8)7-2-3-7/h4-6,8H,2-3H2,1H3/t4-,5+,6-/m1/s1
