19
gdb 100441	5.56903	0.49563	0.46517	0.9675	102.09	-0.2287	-0.0085	0.2202	2386.8784	0.15531	-385.838614	-385.827334	-385.82639	-385.877686	37.714	
C	 0.0469775591	 1.4215651877	 0.0562487633	-0.230504
O	-0.0778864166	 0.0190905783	-0.0218485908	-0.241012
C	 0.6151145516	-0.5648086001	-1.1214106086	-0.092444
C	 2.1189984218	-0.720828466	-0.8363013902	-0.391198
C	-0.0029559676	-1.8566243125	-1.4111620401	 0.286067
C	-0.4841681248	-2.9336901538	-1.681692192	-0.137022
C	-1.0272987499	-4.1452139489	-1.9760588031	-0.207905
C	-1.5096528058	-5.2235660948	-2.2393094726	 0.238253
C	-2.0888231164	-6.5172228739	-2.5528933081	-0.518093
H	 1.0775564189	 1.7477102513	 0.2591785869	 0.106731
H	-0.2947354614	 1.9121023867	-0.8687552529	 0.106556
H	-0.587870989	 1.749166515	 0.8828162852	 0.132192
H	 0.4892806322	 0.082208804	-2.0074215387	 0.095184
H	 2.2650693543	-1.3491814406	 0.0454416714	 0.137185
H	 2.6201288771	-1.1869742725	-1.6888687639	 0.129008
H	 2.5805514719	 0.2544459669	-0.6584280951	 0.117917
H	-1.5959026192	-6.9710893257	-3.420163418	 0.156061
H	-1.9872073947	-7.2119474669	-1.711432643	 0.156572
H	-3.1561020116	-6.4287315543	-2.78545251	 0.156454
15.1668	48.8492	60.9237	82.7534	155.3105	179.9764	204.3978	235.2904	306.0564	327.1367	356.4846	378.5507	471.7662	502.7744	560.3842	583.1082	672.7501	832.5657	916.699	1024.551	1048.0072	1048.4789	1080.5849	1106.2922	1141.55	1180.1855	1215.5245	1277.2922	1343.029	1373.0138	1397.2782	1413.7673	1471.6846	1472.7413	1474.8699	1481.8004	1489.7197	1497.73	1510.699	2280.1994	2387.5611	2945.4498	2976.6289	3023.7412	3024.9796	3048.5848	3085.7496	3085.8738	3116.6377	3122.0816	3135.7972
COC(C)C#CC#CC	CO[C@@H](C)C#CC#CC	
InChI=1S/C8H10O/c1-4-5-6-7-8(2)9-3/h8H,1-3H3	InChI=1S/C8H10O/c1-4-5-6-7-8(2)9-3/h8H,1-3H3/t8-/m0/s1
