17
gdb 124656	4.37603	0.9929	0.89211	0.6689	70.33	-0.2614	-0.0178	0.2436	1321.1974	0.135461	-455.150487	-455.141986	-455.141042	-455.184213	30.741	
C	-0.0900289337	 1.5074220475	 0.0730883896	-0.399662
C	 0.0015226521	-0.0105238338	-0.0355026807	 0.138816
C	 0.8580511371	-0.4831291729	-1.1996906484	-0.395676
O	 0.6338505418	-0.5583318557	 1.1584660825	-0.263566
C	-0.114156633	-0.7001352565	 2.2369326156	 0.460712
N	-1.3877829983	-0.3840132399	 2.3263271564	-0.235063
O	-1.6993834712	-0.7444116164	 3.6531694123	-0.164447
C	-0.5739781751	-1.2223916466	 4.1791728541	 0.118733
N	 0.4429069712	-1.229109068	 3.3810312796	-0.322947
H	 0.9083267957	 1.9436873054	 0.1761650303	 0.125872
H	-0.5537526892	 1.9151744672	-0.8303484846	 0.122327
H	-0.6993144533	 1.8015734134	 0.9300470372	 0.146331
H	-1.0032885409	-0.4412571537	-0.1007009895	 0.116686
H	 1.8763328466	-0.0925625422	-1.1103846193	 0.131402
H	 0.9077245796	-1.5745012499	-1.2277677605	 0.13
H	 0.4332544538	-0.1292116703	-2.1433110023	 0.122844
H	-0.6140577931	-1.5553519477	 5.2063315177	 0.167638
71.8274	79.6124	159.9173	213.8724	250.7932	310.8933	318.0261	399.6607	453.0303	508.0613	612.5024	741.6232	778.3384	854.8126	910.4757	929.256	937.8636	946.5115	951.2508	979.401	1049.3075	1138.6365	1157.9296	1162.8184	1204.7726	1311.0663	1359.7872	1370.9999	1400.7754	1404.0115	1420.4448	1480.5198	1486.4548	1495.3654	1511.0362	1563.6488	1618.1883	3043.9048	3047.8956	3058.3529	3114.1813	3123.9065	3127.4245	3137.9749	3263.3192
CC(C)OC1=NOC=N1	CC(C)Oc1nocn1	
InChI=1S/C5H8N2O2/c1-4(2)9-5-6-3-8-7-5/h3-4H,1-2H3	InChI=1S/C5H8N2O2/c1-4(2)9-5-6-3-8-7-5/h3-4H,1-2H3
