17
gdb 5897	3.00117	1.21694	1.07399	4.1778	77.39	-0.2648	0.02	0.2848	1202.3079	0.139216	-326.724569	-326.714714	-326.71377	-326.760404	33.856	
C	-0.0141024402	 1.4813660875	 0.006603174	-0.498876
C	 0.0098170018	 0.0260900295	-0.0030123461	 0.031755
C	 0.0378952142	-1.1767225703	 0.0006887183	 0.130817
C	 0.0494756659	-2.6447986319	-0.0265737773	-0.103533
C	-1.3922585648	-3.1972118921	 0.127917496	-0.394087
C	 0.6788434579	-3.1534177156	-1.3505192497	-0.394087
C	 0.865839431	-3.1421727136	 1.1023155139	 0.291304
N	 1.4982427115	-3.5568342778	 1.9759439234	-0.344772
H	 0.5755525413	 1.8768817445	 0.8404881301	 0.158805
H	 0.4017215561	 1.8913711312	-0.9199755348	 0.152894
H	-1.0361374435	 1.8609259696	 0.1112048593	 0.152902
H	-2.0034086859	-2.840292954	-0.7046685762	 0.131614
H	-1.3806409189	-4.2903943273	 0.1204165255	 0.133122
H	-1.8396443153	-2.8549777234	 1.0629410362	 0.143704
H	 1.698483611	-2.7801906046	-1.4626923608	 0.143704
H	 0.6985660588	-4.2464286335	-1.3638437614	 0.133121
H	 0.0799910591	-2.796210458	-2.1918717702	 0.131614
16.9101	85.6082	112.193	187.9495	207.933	234.9258	272.7855	301.483	309.0877	346.6733	461.4516	506.1023	538.1977	590.6337	647.5269	824.6989	933.5388	943.7266	1039.0404	1051.521	1054.0718	1079.3565	1140.7282	1214.7073	1273.0334	1394.4469	1413.7795	1417.4949	1476.3719	1476.909	1478.6695	1482.1486	1493.0593	1505.8201	2356.6187	2376.0676	3031.055	3048.8079	3051.8347	3093.6468	3095.2003	3128.2495	3132.5935	3140.3382	3141.548
CC#CC(C)(C)C#N	CC#CC(C)(C)C#N	
InChI=1S/C7H9N/c1-4-5-7(2,3)6-8/h1-3H3	InChI=1S/C7H9N/c1-4-5-7(2,3)6-8/h1-3H3
