12
gdb 21495	5.26323	1.64022	1.25052	0.855	58.13	-0.2687	-0.0545	0.2142	876.8342	0.084852	-414.687288	-414.68043	-414.679486	-414.718712	24.519	
N	-0.1200005621	 1.3155135322	-0.0091498747	-0.537589
C	 0.0544446486	-0.0321062645	-0.0128961657	 0.317505
O	 1.1354599891	-0.5891148835	-0.0231798913	-0.353159
C	-1.2069296481	-0.8208859134	-0.0033379507	 0.359607
C	-1.4118167723	-2.1652130698	-0.0040197448	-0.305698
C	-2.8252908555	-2.2785555034	 0.00804552	 0.031147
N	-3.4202349515	-1.1085313528	 0.0158787103	-0.130278
O	-2.390802348	-0.175694843	 0.009119149	-0.227431
H	 0.6966036141	 1.9032367457	-0.0125496319	 0.271143
H	-1.0357773991	 1.7307992191	 0.0026263173	 0.280324
H	-0.6620363584	-2.9369816446	-0.0122654043	 0.150664
H	-3.4338179568	-3.1716863119	 0.0114125869	 0.143765
79.7931	184.3122	193.2058	226.4643	401.9255	489.3205	545.4009	642.4329	654.8453	664.3617	789.0432	857.9289	928.3797	929.576	945.7651	997.712	1040.7152	1091.5354	1176.6331	1240.3429	1352.6775	1369.1713	1501.8212	1608.0533	1641.4054	1792.6962	3249.988	3299.3795	3606.5694	3744.3567
NC(=O)C1=CC=NO1	NC(=O)c1ccno1	
InChI=1S/C4H4N2O2/c5-4(7)3-1-2-6-8-3/h1-2H,(H2,5,7)	InChI=1S/C4H4N2O2/c5-4(7)3-1-2-6-8-3/h1-2H,(H2,5,7)
