22
gdb 57218	2.50209	1.3013	1.12394	3.2251	82.82	-0.2304	0.0317	0.2621	1238.0255	0.191782	-404.369028	-404.358588	-404.357644	-404.404273	38.368	
C	 1.1006856038	 1.2440335696	-0.6427930391	-0.345809
N	 0.3788962627	 0.014129342	-0.3439368785	-0.127508
C	 0.5067870994	-0.6396476137	 0.8664257098	 0.392231
C	 1.1313272092	 0.1440488863	 2.0139082902	-0.5003
O	 0.1215484395	-1.7848535596	 1.0250640391	-0.372114
C	-0.1191098523	-0.7467392372	-1.4753799628	 0.370471
C	 0.907933418	-1.6473378565	-2.1360165443	-0.455893
C	-1.5479467669	-1.2030722295	-1.4090095407	-0.273183
C	-1.1685839415	-0.0672240164	-2.326855991	-0.326143
H	 2.1461066986	 1.0630101616	-0.9316110759	 0.12213
H	 0.6070546357	 1.7542958584	-1.4725100375	 0.134427
H	 1.0967841164	 1.9184911546	 0.2141814776	 0.132834
H	 2.1706181013	 0.4152384274	 1.8020741181	 0.134903
H	 0.5842480777	 1.0691378008	 2.2220560581	 0.13651
H	 1.1032372768	-0.4949180471	 2.8958380705	 0.146159
H	 1.2568756829	-2.3998700652	-1.4231537187	 0.144702
H	 0.4747438608	-2.1657775129	-2.9963827159	 0.114101
H	 1.7720923923	-1.0754114708	-2.4935116153	 0.108345
H	-1.78299252	-2.1704402473	-1.8385447313	 0.11523
H	-2.105644476	-0.9641864014	-0.5129131656	 0.125354
H	-1.490058146	 0.9294930195	-2.044485649	 0.11159
H	-1.1389339324	-0.2412440125	-3.3971611977	 0.111964
78.7845	91.4928	99.3461	165.5098	192.5088	210.9804	237.9621	300.1296	319.4329	359.6746	417.0495	448.5734	478.7982	601.979	610.9127	655.8957	772.3768	806.5916	879.1374	929.5396	939.3853	964.2227	1013.7265	1042.7033	1049.4287	1073.7782	1081.6654	1122.269	1146.8625	1169.4226	1186.3062	1216.423	1307.2456	1340.84	1368.4836	1400.5341	1410.9888	1458.1763	1462.0802	1475.8426	1489.2533	1489.5172	1496.2867	1500.61	1507.9351	1520.5614	1761.4561	3001.0295	3030.3903	3043.1575	3096.0875	3098.5816	3105.5652	3117.8301	3131.4445	3141.6841	3149.3622	3160.7439	3214.1119	3240.0898
CN(C(C)=O)C1(C)CC1	CN(C(=O)C)C1(C)CC1	
InChI=1S/C7H13NO/c1-6(9)8(3)7(2)4-5-7/h4-5H2,1-3H3	InChI=1S/C7H13NO/c1-6(9)8(3)7(2)4-5-7/h4-5H2,1-3H3
