19
gdb 38523	2.91722	1.98067	1.43506	1.222	80.51	-0.2327	0.0095	0.2423	941.148	0.162055	-385.854089	-385.847435	-385.846491	-385.884749	28.108	
C	-0.0623392257	 1.4268164796	 0.1711498347	-0.322871
C	 1.4858693428	 1.3797365534	-0.0273229586	 0.129872
O	 2.1920229707	 0.5857067935	 0.9610530324	-0.321966
C	 2.3318675855	-0.5566331645	 0.0490334283	 0.150656
C	 1.889630095	-1.9175748304	 0.6129010768	-0.22273
C	 0.4822160628	-2.3418745045	 0.085892786	-0.255015
C	-0.4458157003	-1.1597242012	 0.2367725426	-0.16619
C	-0.0335350057	-0.0158412414	-0.2995534155	 0.251085
C	 1.3541151651	 0.1251973135	-0.9216068955	-0.197019
H	-0.4563043392	 1.6311973649	 1.1699755709	 0.111541
H	-0.4914479474	 2.1356461283	-0.5481095403	 0.104853
H	 2.0184530218	 2.3006953972	-0.2785817306	 0.075984
H	 3.3676867419	-0.5940395212	-0.3112515058	 0.071243
H	 2.6281407618	-2.6871069256	 0.3623925253	 0.093418
H	 1.864418948	-1.8374993371	 1.7045519878	 0.119488
H	 0.5768673975	-2.6455039127	-0.9642770764	 0.109305
H	 0.1215997369	-3.2173845834	 0.6323037736	 0.100344
H	-1.2759715666	-1.2039222508	 0.9362803958	 0.088471
H	 1.4910242651	 0.0888655325	-2.0013655515	 0.079532
149.5084	256.6363	335.5802	367.0462	405.3554	461.0521	529.27	623.354	690.7995	754.4634	801.6502	834.2697	843.9024	865.1859	899.9107	924.1755	946.8023	954.8815	970.6012	996.1806	1020.8291	1062.3553	1068.1151	1095.0435	1115.5612	1164.3403	1178.6209	1204.8869	1215.9938	1249.1887	1261.635	1278.3493	1299.0262	1326.0817	1338.1774	1363.5596	1368.1909	1464.3101	1472.9052	1489.5396	1735.6502	3013.4644	3025.4654	3027.8672	3043.5655	3073.6987	3085.2318	3094.068	3102.9243	3120.0817	3164.5895
C1C2OC3CCC=C1C23	C1[C@H]2O[C@H]3CC[CH][C]1[C@@H]23	
InChI=1S/C8H10O/c1-2-5-4-7-8(5)6(3-1)9-7/h2,6-8H,1,3-4H2	InChI=1S/C8H10O/c1-2-5-4-7-8(5)6(3-1)9-7/h2,6-8H,1,3-4H2/t6-,7+,8+/m0/s1
