22
gdb 12281	2.85668	1.46216	1.24859	1.3875	77.46	-0.2486	0.0635	0.3121	1120.3605	0.199564	-350.200931	-350.191569	-350.190625	-350.234692	34.996	
C	 0.3097200517	 1.2792537148	 0.3917575546	-0.384435
C	 0.2671534183	-0.2202534812	 0.0817258337	-0.19859
C	 0.6066516858	-0.5349578361	-1.3761561643	-0.004177
C	 2.1174128671	-0.4561850741	-1.7588859248	-0.252706
C	 2.1915036146	-2.0112354217	-1.8525986529	-0.008976
C	 2.937229182	-2.7045619707	-0.7154346761	-0.415665
C	 0.6303298372	-2.0506373687	-1.7629476254	 0.115482
O	 0.0010877163	-2.9956344179	-0.9295444392	-0.425936
H	 1.2999865971	 1.7010661057	 0.1890751487	 0.118334
H	-0.4136361996	 1.8264478029	-0.2227381239	 0.116409
H	 0.0730267515	 1.4761161924	 1.4420656617	 0.111394
H	 0.9611479406	-0.7413156165	 0.7561808837	 0.085499
H	-0.7316534014	-0.6150861665	 0.3053250474	 0.106715
H	-0.0503748043	 0.0623518446	-2.0181603272	 0.063029
H	 2.3021612943	 0.0478327486	-2.7104087211	 0.097636
H	 2.7701808352	-0.0044564681	-1.0048517481	 0.092606
H	 2.5776330208	-2.3870643211	-2.8052388526	 0.067538
H	 2.6382483115	-2.3281907233	 0.2702761803	 0.107299
H	 2.7609281543	-3.7849667962	-0.7289266248	 0.125113
H	 4.015668596	-2.5366059745	-0.8041906272	 0.117607
H	 0.1858566294	-2.2087495033	-2.7495281523	 0.083931
H	 0.3584148918	-2.9036166593	-0.0408342001	 0.281893
75.9533	103.6539	167.1964	219.0484	225.2774	243.5576	277.8346	305.6865	339.8848	394.7296	524.0389	540.284	729.7678	772.4049	789.3141	809.4605	854.6227	909.7388	940.0944	984.282	996.8998	1033.3332	1061.0509	1083.2536	1114.5518	1144.5387	1174.6561	1180.9341	1227.6819	1263.6751	1269.5071	1275.512	1293.4195	1311.4659	1335.1198	1363.1289	1389.3362	1407.4098	1412.5494	1438.8001	1482.4621	1492.0075	1498.0061	1499.4322	1503.5306	1507.9635	3005.6464	3025.8892	3030.6386	3033.5498	3044.2134	3048.4184	3051.9909	3071.2344	3088.8931	3098.4831	3102.2718	3102.5139	3105.0764	3822.4942
CCC1CC(C)C1O	CC[C@H]1C[C@@H](C)[C@H]1O	
InChI=1S/C7H14O/c1-3-6-4-5(2)7(6)8/h5-8H,3-4H2,1-2H3	InChI=1S/C7H14O/c1-3-6-4-5(2)7(6)8/h5-8H,3-4H2,1-2H3/t5-,6+,7-/m1/s1
