18
gdb 41066	3.99773	1.83095	1.64132	1.9585	77.93	-0.2227	0.0721	0.2948	863.2591	0.15033	-364.684178	-364.678281	-364.677336	-364.713968	26.017	
C	-0.0245987077	 1.4408754153	-0.285632094	-0.257417
C	 1.4608781119	 1.5929932799	 0.2074226384	-0.355806
C	 1.2444061161	 0.2640085909	 0.9259919164	 0.387431
C	 1.8413745936	-1.015452046	 1.5062893802	-0.19474
C	 1.0704061852	-0.9490054784	 2.7681292145	-0.051868
C	 0.2617091962	 0.2285272675	 2.1875877228	-0.13539
C	-0.5131511085	-0.7508095034	 1.2693617275	-0.024035
C	 0.0464470428	-0.1028700737	 0.0108834439	-0.033235
N	 0.5499500094	-1.818471971	 1.6693872488	-0.164357
H	-0.7394307355	 1.9819388764	 0.3380036305	 0.110961
H	-0.2114130409	 1.6984197535	-1.3288958198	 0.106709
H	 2.1633855498	 1.5109516417	-0.628426906	 0.108551
H	 1.7240048378	 2.4672155575	 0.8091532181	 0.10056
H	 2.7261843996	-1.579941688	 1.2398659775	 0.092781
H	 1.269303209	-1.3085117708	 3.7712189335	 0.092554
H	-0.1067705518	 1.1211304859	 2.6865331244	 0.071071
H	-1.5225409273	-1.1354316828	 1.4188129989	 0.07033
H	 0.19241104	-0.7218436546	-0.8772694855	 0.0759
244.5172	274.4759	359.5255	530.4515	543.8246	668.0223	701.5642	726.5269	769.5033	794.6918	812.2108	850.8834	858.4556	874.4953	892.0654	903.0307	912.0615	943.8812	1007.5547	1012.5896	1038.8209	1056.7467	1075.4326	1090.5291	1120.3642	1141.8369	1178.2943	1192.9765	1197.6658	1208.0164	1236.3202	1248.8433	1252.4602	1273.6569	1306.9562	1323.4638	1347.6045	1474.9053	1490.9267	3045.4614	3075.166	3083.7823	3097.6768	3106.2449	3133.0182	3144.2109	3172.1692	3193.3906
C1CC23C4C5C2C(C13)N45	C1C[C@@]23[C@H]4[C@H]5[C@@H]2[C@@H]([C@@H]13)N45	
InChI=1S/C8H9N/c1-2-8-3(1)5-4(8)6-7(8)9(5)6/h3-7H,1-2H2	InChI=1S/C8H9N/c1-2-8-3(1)5-4(8)6-7(8)9(5)6/h3-7H,1-2H2/t3-,4+,5-,6-,7-,8+,9?/m1/s1
