21
gdb 86093	2.41498	1.2931	0.97752	0.9407	90.81	-0.2345	0.0221	0.2566	1306.3777	0.18115	-349.94646	-349.936862	-349.935918	-349.980595	36.519	
C	-0.8134199834	 1.2456155823	-0.0034783937	-0.411218
C	 0.0812658116	 0.0126799623	-0.0806244335	 0.024244
C	 1.2879105572	 0.1335468913	-1.0403606719	-0.305714
C	 2.3188045693	-0.8038082395	-0.4479474678	 0.338539
C	 3.5364666557	-1.2209635141	-1.2096663307	-0.493184
C	 1.9979065377	-1.1366099184	 0.8030792751	-0.175757
C	 0.7152976023	-0.4681827902	 1.275157924	-0.225977
C	 0.9997770115	 0.6016478681	 2.2330506205	 0.362454
C	 1.2472047407	 1.4732330245	 3.024640019	-0.50856
H	-0.2567916101	 2.1152909338	 0.3574080161	 0.12903
H	-1.222414959	 1.4860997049	-0.9906328872	 0.107995
H	-1.6563272901	 1.0857990893	 0.6769149399	 0.114187
H	-0.520163842	-0.8353684726	-0.4292289688	 0.080144
H	 1.0198048386	-0.1228974892	-2.0725058421	 0.097272
H	 1.6798511825	 1.1614043107	-1.0701074607	 0.107249
H	 4.1287449909	-0.34752428	-1.5117599175	 0.127476
H	 4.179469107	-1.8786105979	-0.6184995756	 0.123815
H	 3.2659087821	-1.7462984255	-2.1344549442	 0.124005
H	 2.5962175249	-1.7551081809	 1.4628164616	 0.092209
H	 0.0407162968	-1.1820248629	 1.7660672235	 0.099151
H	 1.4651697057	 2.2402020141	 3.7257068639	 0.192639
74.7121	116.7234	149.9072	186.8476	232.1783	254.8715	281.0074	349.548	401.4502	436.1005	487.4426	525.423	597.1257	609.1271	629.6981	695.242	802.1421	841.8094	876.7863	909.7417	931.2109	968.6268	995.8626	1028.2035	1043.1512	1080.3807	1129.4952	1141.1084	1176.917	1214.6509	1255.4237	1280.3317	1304.1206	1340.8452	1358.3768	1369.699	1412.7708	1413.1931	1478.5644	1484.5742	1487.8508	1495.4792	1498.1052	1723.0923	2224.6904	2997.6397	3009.4192	3016.8857	3029.2611	3034.222	3051.0088	3062.6578	3097.4679	3110.2957	3113.8329	3194.3225	3504.182
CC1CC(C)=CC1C#C	C[C@H]1CC(=C[C@H]1C#C)C	
InChI=1S/C9H12/c1-4-9-6-7(2)5-8(9)3/h1,6,8-9H,5H2,2-3H3	InChI=1S/C9H12/c1-4-9-6-7(2)5-8(9)3/h1,6,8-9H,5H2,2-3H3/t8-,9+/m0/s1
