14
gdb 129727	3.35729	1.30206	0.94287	2.3638	73.23	-0.2184	-0.0042	0.2143	1151.0679	0.101746	-432.846096	-432.837748	-432.836804	-432.878785	31.291	
N	-0.1980855114	 1.4427232244	-0.0929246005	-0.638629
C	-0.0261354461	 0.0331812558	-0.0535496544	-0.113622
C	-1.0931324052	-0.8387207761	-0.07021911	 0.470688
O	-2.4105198387	-0.5945348986	-0.1221315538	-0.431986
N	-0.5926814851	-2.0905983641	-0.0228535138	-0.282407
N	 0.7641499743	-2.112444024	 0.0254885722	-0.318453
C	 1.1147308861	-0.8216024471	 0.0063505027	 0.183831
C	 2.4692151076	-0.4078211472	 0.043982861	 0.263478
C	 3.5992912891	 0.0064192062	 0.0736247649	-0.414587
H	 0.2616883062	 1.8520911094	-0.9010585979	 0.248547
H	 0.204430289	 1.8905789911	 0.7252843388	 0.248555
H	-2.4898229943	 0.3716886592	-0.1479973795	 0.311351
H	-1.1038326992	-2.9567412173	-0.0200548918	 0.282251
H	 4.6041363777	 0.3483999183	 0.1000540721	 0.190982
117.7778	130.5861	196.8975	234.7409	270.6355	321.0127	404.8695	452.7202	515.7619	531.7477	532.7736	579.0365	604.5693	665.0156	698.6044	735.6496	753.4091	785.5991	871.2726	1064.9123	1146.8702	1193.6922	1220.7464	1274.1268	1391.5011	1410.0452	1465.8939	1582.9805	1637.4585	1686.176	2235.4981	3489.5191	3502.5934	3550.2789	3677.9121	3728.4822
NC1=C(O)NN=C1C#C	Nc1c(O)[nH]nc1C#C	
InChI=1S/C5H5N3O/c1-2-3-4(6)5(9)8-7-3/h1H,6H2,(H2,7,8,9)	InChI=1S/C5H5N3O/c1-2-3-4(6)5(9)8-7-3/h1H,6H2,(H2,7,8,9)
