17
gdb 52225	3.70381	0.7131	0.63134	3.2408	71.7	-0.253	-0.0385	0.2145	1690.7621	0.131824	-458.947199	-458.937611	-458.936666	-458.983609	32.497	
O	-0.0735658026	-0.0146378669	 0.1591466206	-0.232355
C	 0.084705064	 1.1553841978	-0.0621833391	 0.138
C	 1.4324413071	 1.7636318781	-0.4121545804	-0.150418
O	 1.2440917856	 3.1457863443	-0.6312624481	-0.251944
C	 2.4204405111	 3.8247246008	-0.9382966151	 0.125454
C	 2.9107380053	 3.8446605857	-2.3474154103	-0.331056
C	 2.2822697309	 5.1020628166	-1.7326452548	-0.14802
C	 0.9478143784	 5.52244666	-2.2322425487	 0.177575
O	 0.6039682615	 6.6732975095	-2.3374728838	-0.266494
H	-0.7452018633	 1.8944090792	-0.0280057319	 0.103446
H	 2.1324495907	 1.5757944667	 0.4179647802	 0.130019
H	 1.8377195395	 1.2572975953	-1.3016011643	 0.131378
H	 3.1578305504	 3.828390251	-0.1348319657	 0.10693
H	 3.9751160612	 3.8596854734	-2.549683904	 0.135662
H	 2.306621557	 3.3246131763	-3.0842458668	 0.134884
H	 2.9366263366	 5.9246772519	-1.4680414889	 0.116473
H	 0.2757975165	 4.68631009	-2.520243009	 0.080465
49.9605	62.5158	72.8455	98.3928	137.0226	228.4479	267.2981	344.4698	416.5665	465.2316	514.5037	605.7421	739.9444	803.0859	846.6843	872.4437	965.2917	1002.5467	1042.9336	1053.0569	1063.4139	1109.7212	1115.9739	1133.7978	1168.4203	1182.096	1234.4473	1244.6509	1336.6221	1342.3506	1395.9297	1417.8363	1440.2639	1471.9191	1486.0693	1820.6546	1846.7749	2905.9089	2907.4132	2980.8567	3017.6157	3099.5589	3136.0757	3186.7763	3230.04
O=CCOC1CC1C=O	O=CCO[C@H]1C[C@H]1C=O	
InChI=1S/C6H8O3/c7-1-2-9-6-3-5(6)4-8/h1,4-6H,2-3H2	InChI=1S/C6H8O3/c7-1-2-9-6-3-5(6)4-8/h1,4-6H,2-3H2/t5-,6-/m0/s1
