15
gdb 43744	4.68088	1.00499	0.94819	2.1159	71.25	-0.2767	0.0043	0.281	1213.1722	0.112466	-416.792063	-416.784227	-416.783282	-416.825057	29.032	
N	-1.0496600227	 0.9371265262	-0.370403758	-0.54742
C	-0.4342895895	-0.1207281969	-0.116139562	 0.448111
O	 0.9352570114	-0.4183865816	-0.2181836408	-0.311303
C	 0.6518933648	-1.8091718451	 0.0920843721	 0.456087
C	 1.3957093032	-2.817747423	-0.7395619864	-0.452278
C	 0.9489709432	-4.1832993526	-0.4767617654	 0.268108
N	 0.5796488919	-5.25449032	-0.2531673887	-0.30045
C	 0.1173948935	-1.9044906672	 1.472638033	-0.334198
C	-0.8106639958	-1.4990375612	 0.314150458	-0.244154
H	-0.4158089928	 1.675659688	-0.6793362969	 0.23598
H	 1.2610544243	-2.5888699705	-1.8027091096	 0.173161
H	 2.470346721	-2.7470431222	-0.5294752677	 0.173814
H	-0.0703882812	-2.9070517124	 1.8442854068	 0.155082
H	 0.4168256101	-1.1735523176	 2.2165567497	 0.13902
H	-1.7106291614	-2.0408367841	 0.0646929459	 0.14044
54.5946	115.2266	151.8677	290.4009	333.0188	389.3291	427.1592	440.8615	518.0415	640.6263	690.929	737.849	826.0353	865.7133	891.4744	914.8478	949.7651	976.8062	985.6086	993.2159	1033.5834	1075.3202	1091.7877	1129.4095	1209.8816	1236.2583	1277.787	1352.0712	1403.2135	1465.7995	1492.0669	1841.788	2370.4136	3037.8068	3078.5977	3129.7595	3224.7674	3238.3104	3484.9987
N=C1OC2(CC#N)CC12	[NH][C]1O[C@@]2(CC#N)C[C@@H]12	
InChI=1S/C6H6N2O/c7-2-1-6-3-4(6)5(8)9-6/h4,8H,1,3H2	InChI=1S/C6H6N2O/c7-2-1-6-3-4(6)5(8)9-6/h4,8H,1,3H2/t4-,6-/m0/s1
