21
gdb 107487	2.19803	1.69821	1.27123	1.2076	82.83	-0.2321	0.0934	0.3255	1108.6868	0.181746	-387.032394	-387.02361	-387.022666	-387.065554	34.043	
C	 0.0872974131	 1.4174724317	-0.1594774308	-0.254638
O	-0.0007775172	 0.0136780328	 0.0358864574	-0.279326
C	-1.2850930772	-0.484920294	 0.0493034454	 0.368697
C	-1.6352260082	-1.688294155	-0.7658262918	-0.324202
C	-2.4220930335	-0.4103946984	-0.982468349	-0.148255
C	-3.4445291227	-0.2190516647	 0.1478138342	-0.312212
C	-2.2941508998	-0.3184380318	 1.1759774561	 0.313354
C	-2.2897150282	-1.0025049299	 2.5125464662	-0.329461
C	-2.1260585942	 0.4995575985	 2.4194772244	-0.343302
H	 1.1476564281	 1.6755831879	-0.1096597903	 0.125571
H	-0.3081580742	 1.706285844	-1.1425997369	 0.109879
H	-0.4548996376	 1.9775121766	 0.6117753786	 0.117026
H	-0.9183728459	-1.9108794669	-1.5497821062	 0.113952
H	-2.0994864491	-2.5597067208	-0.3086353231	 0.10287
H	-2.4562723174	 0.072667091	-1.9507046226	 0.089138
H	-3.9135125353	 0.7691503172	 0.1362265266	 0.101776
H	-4.2258750471	-0.9839480064	 0.219258763	 0.095782
H	-3.2306759449	-1.389199529	 2.8907085812	 0.109421
H	-1.4196321808	-1.5921296675	 2.7837067755	 0.115832
H	-1.1428936472	 0.9062478305	 2.6327221598	 0.118709
H	-2.9508770307	 1.1308537841	 2.7358758722	 0.10939
116.466	126.3299	153.0081	181.4823	223.7159	263.2864	386.8904	415.0715	421.8779	523.8662	602.7645	620.6842	768.7193	786.0355	850.9122	856.3417	879.4246	917.2291	935.2878	963.8787	997.4398	1009.3549	1017.7163	1050.2899	1077.9491	1080.9435	1089.4849	1101.0443	1159.7221	1177.3984	1180.3964	1191.2883	1216.8491	1240.2627	1260.8542	1280.7918	1368.2823	1393.1535	1459.4527	1472.5931	1484.0768	1485.9808	1500.331	1505.2347	1510.4053	3006.2276	3034.2645	3066.6634	3088.2143	3102.6067	3120.2048	3122.1133	3124.5289	3189.9042	3199.6666	3203.7937	3214.6747
COC12CC1CC21CC1	CO[C@]12C[C@H]1CC12CC1	
InChI=1S/C8H12O/c1-9-8-5-6(8)4-7(8)2-3-7/h6H,2-5H2,1H3	InChI=1S/C8H12O/c1-9-8-5-6(8)4-7(8)2-3-7/h6H,2-5H2,1H3/t6-,8-/m1/s1
