16
gdb 48484	2.08832	1.63362	1.19769	4.0179	69.7	-0.2695	-0.0579	0.2116	1073.4342	0.123681	-437.905956	-437.897479	-437.896535	-437.939971	30.151	
O	-0.3871094702	 0.8230766563	 0.9878568076	-0.229726
C	 0.4126893515	 0.8591742447	 0.0964899318	 0.141638
C	 1.4297993673	 2.0109951796	-0.1130574218	 0.159033
C	 1.5635678333	 2.9239777009	 1.1272434368	-0.289182
C	 2.8128251266	 2.3549297944	 1.8201634494	-0.232254
C	 3.6375711084	 1.8673992008	 0.6304737022	-0.077512
O	 2.6799483641	 1.3427207388	-0.3000395422	-0.290338
C	 1.0592235592	 2.7474442759	-1.332912147	 0.247185
N	 0.7367192238	 3.3056541169	-2.2923792695	-0.324437
H	 0.5392620513	 0.0404147178	-0.638985841	 0.122826
H	 1.7185490638	 3.9597342272	 0.8185840129	 0.132404
H	 0.6583566826	 2.8657208193	 1.7328181737	 0.152761
H	 3.3353731191	 3.0991147508	 2.4245368423	 0.119705
H	 2.5440728574	 1.5130191748	 2.4651953399	 0.127906
H	 4.1956354267	 2.6914110874	 0.1641763242	 0.11383
H	 4.3349650549	 1.0602963244	 0.8662003906	 0.126161
51.2661	76.4742	164.81	176.8914	227.89	293.0081	345.9281	478.2803	510.3736	553.8637	595.888	669.2986	764.5295	858.9703	896.4249	929.1309	935.8411	970.2423	1007.1962	1052.4126	1084.9234	1151.7921	1164.5768	1215.1643	1227.6598	1268.1973	1321.8366	1340.3838	1384.0898	1399.1205	1481.4377	1495.3132	1521.4585	1844.4443	2349.1164	2949.1619	3010.926	3064.6766	3083.6806	3106.3744	3122.6947	3143.7524
O=CC1(CCCO1)C#N	O=C[C@]1(CCCO1)C#N	
InChI=1S/C6H7NO2/c7-4-6(5-8)2-1-3-9-6/h5H,1-3H2	InChI=1S/C6H7NO2/c7-4-6(5-8)2-1-3-9-6/h5H,1-3H2/t6-/m0/s1
