22
gdb 96849	3.23878	1.08835	0.89947	2.8756	85.67	-0.2374	0.0382	0.2755	1392.7425	0.193514	-404.382393	-404.372444	-404.3715	-404.418099	36.357	
C	 0.7412404177	 1.4034193292	 0.3647606514	-0.330537
N	 0.1253600138	 0.1254820111	 0.0431808964	-0.332608
C	 0.4265818888	-0.4544190916	-1.0331042628	 0.43268
C	-0.1296794854	-1.7766304815	-1.5100157484	-0.332202
C	 0.9209089602	-2.2431728842	-2.5287548319	 0.008305
C	 0.4338177454	-3.2482765167	-3.5689148529	-0.418094
C	 1.4415885185	-0.890679007	-3.0760281385	 0.109148
C	 0.6872342423	-0.3115095894	-4.2691860969	-0.397584
O	 1.3287465045	 0.0148811994	-1.9568542455	-0.2579
H	 1.008290217	 1.4113676817	 1.4267624336	 0.117995
H	 1.6331556348	 1.6357505351	-0.2284032591	 0.118952
H	 0.011878082	 2.20969959	 0.2155626119	 0.120581
H	-0.287274558	-2.4619315006	-0.6766365401	 0.130456
H	-1.1024419721	-1.6153142105	-1.9918768097	 0.120769
H	 1.7500302446	-2.6945650791	-1.9697350501	 0.087773
H	-0.4249394143	-2.8667240464	-4.1300443761	 0.121589
H	 1.223003971	-3.496417553	-4.2868501527	 0.117662
H	 0.1246916326	-4.1800580787	-3.0851560588	 0.122673
H	 2.5081405863	-0.9482286557	-3.3174789396	 0.086864
H	-0.3901369895	-0.2637943964	-4.0818171267	 0.122482
H	 1.0406115078	 0.7038451543	-4.467083922	 0.130676
H	 0.8551642921	-0.9138763899	-5.1669064414	 0.120319
26.8696	77.4302	117.7302	202.8216	233.9725	244.2539	257.5671	272.0703	322.974	406.2448	460.7288	512.3211	581.0016	640.908	687.6401	778.8829	827.7932	904.47	935.1949	948.8149	1011.6452	1039.2017	1048.2113	1082.3994	1108.6572	1123.4187	1136.7631	1154.478	1187.0371	1200.6096	1215.5102	1287.0924	1333.6205	1354.2325	1383.2732	1387.809	1412.7354	1416.7101	1437.9862	1477.8273	1486.0876	1492.3549	1494.0591	1499.2961	1503.6927	1505.0198	1801.7161	3012.2923	3020.0557	3033.1384	3036.9382	3042.6761	3051.657	3068.9015	3087.2691	3099.1052	3106.6432	3114.9579	3121.7694	3126.4003	26.8666	77.4304	117.7303	202.8217	233.9723	244.254	257.5672	272.0702	322.974	406.2448	460.7288	512.3211	581.0016	640.9079	687.64	778.8829	827.7932	904.47	935.1948	948.8148	1011.6451	1039.2017	1048.2112	1082.3993	1108.657	1123.4187	1136.763	1154.478	1187.0371	1200.6095	1215.5099	1287.0922	1333.6205	1354.2325	1383.2733	1387.8091	1412.7353	1416.7102	1437.9863	1477.8267	1486.0874	1492.355	1494.059	1499.2963	1503.6927	1505.0198	1801.7161	3012.2923	3020.0557	3033.1384	3036.9382	3042.6761	3051.6569	3068.9016	3087.2691	3099.1052	3106.6432	3114.958	3121.7694	3126.4004
CN=C1CC(C)C(C)O1	CN=C1C[C@@H](C)[C@@H](C)O1	
InChI=1S/C7H13NO/c1-5-4-7(8-3)9-6(5)2/h5-6H,4H2,1-3H3	InChI=1S/C7H13NO/c1-5-4-7(8-3)9-6(5)2/h5-6H,4H2,1-3H3/t5-,6-/m1/s1
