23
gdb 119045	2.4718	1.046	0.83781	2.2931	83.1	-0.2536	0.0764	0.33	1504.2172	0.202384	-425.405476	-425.394429	-425.393484	-425.442189	39.226	
C	-1.1791287913	-0.0143398972	-0.5701327212	-0.389414
C	-1.4786042374	-0.722015825	 0.7575003067	-0.258443
C	-0.253628159	-0.9269608755	 1.6291245043	 0.370189
C	 0.4303563285	 0.3348909014	 2.119191897	-0.115216
O	-0.5377889847	 1.2267095136	 2.6264301723	-0.234921
C	 0.0228404682	 2.4162547695	 3.1262316259	-0.223528
O	-0.3700581743	-1.9574430012	 2.6278839172	-0.304509
C	 0.5773870168	-2.1459953664	 1.5711499262	 0.024506
C	 0.3679011962	-3.3078748736	 0.6327305271	-0.427017
H	-0.441060789	-0.5649420855	-1.1633270155	 0.113115
H	-2.0892039497	 0.0759977392	-1.1705252456	 0.116365
H	-0.7936186221	 0.9963580329	-0.4055941215	 0.125275
H	-2.1975487538	-0.1312570081	 1.3337175005	 0.12617
H	-1.9457616403	-1.6926899208	 0.5745741913	 0.102849
H	 1.1591153087	 0.0637973085	 2.8988630702	 0.09428
H	 0.9874718847	 0.8089504536	 1.2915923605	 0.086568
H	-0.7992587306	 3.0416557186	 3.4823422736	 0.12866
H	 0.7112648159	 2.2225045248	 3.9638832842	 0.106944
H	 0.5775222719	 2.9657829089	 2.3483481578	 0.10146
H	 1.6142491355	-2.0379559286	 1.9028256988	 0.076991
H	-0.6616005249	-3.3724411254	 0.2770659635	 0.128966
H	 1.0332289706	-3.221011681	-0.2332804264	 0.12017
H	 0.6079783703	-4.2464135326	 1.1435344029	 0.130541
46.7462	80.0034	95.7877	136.8307	168.0145	201.2069	224.2054	245.6306	272.1233	304.4603	340.057	394.9069	451.9934	482.8357	579.795	730.1744	771.5079	801.8925	908.9218	941.9615	979.7545	1010.3959	1016.2537	1033.3552	1092.9495	1125.1431	1133.2479	1156.9058	1179.086	1186.6833	1227.4064	1254.085	1267.207	1296.965	1340.364	1375.7578	1408.4195	1409.1187	1418.5918	1469.7944	1477.6145	1481.5722	1485.3276	1494.4119	1497.4176	1499.8579	1507.0518	1516.9658	1520.4801	2945.6598	2968.5604	2999.1772	3012.1416	3036.7849	3038.9049	3060.8293	3063.3784	3093.2257	3098.1296	3107.1589	3115.0582	3116.6454	3139.202
CCC1(COC)OC1C	CC[C@@]1(COC)O[C@H]1C	
InChI=1S/C7H14O2/c1-4-7(5-8-3)6(2)9-7/h6H,4-5H2,1-3H3	InChI=1S/C7H14O2/c1-4-7(5-8-3)6(2)9-7/h6H,4-5H2,1-3H3/t6-,7-/m0/s1
