23
gdb 101470	3.3721	0.89776	0.74585	1.5332	81.64	-0.2394	0.0736	0.313	1551.1598	0.205677	-425.428109	-425.417967	-425.417023	-425.464007	36.689	
C	-0.0262439553	 1.5572519118	-0.0224272886	-0.40196
C	 0.0154362395	 0.0231085059	-0.0475517664	 0.012203
C	 0.7516107026	-0.4733585703	-1.295866253	-0.083989
O	 0.0635299288	 0.0070016964	-2.4420819455	-0.422151
C	 0.6430676815	-0.562278137	 1.2262640006	 0.005311
C	-0.0647220543	-0.1848286007	 2.5412516266	-0.248375
C	 0.4200657813	-1.2821557712	 3.4883730709	-0.070861
O	 0.5719577305	-2.4546524775	 2.6922064635	-0.26562
C	 0.6223428631	-2.1024813646	 1.3117884656	-0.078716
H	 0.9800525152	 1.9719707164	 0.1163475788	 0.105177
H	-0.4210034492	 1.9400917994	-0.9655190129	 0.135947
H	-0.6557442799	 1.9282533614	 0.7911461333	 0.111785
H	-1.0162185244	-0.3509805768	-0.1191036661	 0.080872
H	 1.7926889646	-0.1078831307	-1.2746445775	 0.082218
H	 0.7897758563	-1.5733285064	-1.3002994636	 0.09037
H	 0.5457090121	-0.275943623	-3.2240070472	 0.287085
H	 1.6870198839	-0.2228451936	 1.2901598256	 0.071631
H	 0.1815202322	 0.818100634	 2.8969493207	 0.104738
H	-1.1522665837	-0.2430363417	 2.4115743562	 0.104642
H	 1.3849308486	-1.0085459927	 3.9443289466	 0.087851
H	-0.2838291698	-1.5004512955	 4.2986415755	 0.102504
H	-0.2653833552	-2.5086637601	 0.8016949027	 0.091703
H	 1.5078518417	-2.5645069036	 0.8591402243	 0.097636
44.0163	80.651	114.893	147.0779	168.0856	234.78	243.6168	278.7153	328.9963	376.147	397.6147	499.3878	616.3734	680.7052	844.2741	871.4837	892.271	926.4019	929.3068	965.8274	977.7899	979.9382	1055.137	1063.7413	1086.0054	1122.7239	1131.5378	1172.1611	1179.8771	1191.3641	1226.3181	1241.174	1266.5404	1272.0333	1300.2609	1313.5593	1342.438	1360.2234	1367.9216	1389.2526	1402.52	1414.8038	1460.0364	1489.8042	1494.7776	1507.1488	1519.4062	1522.4512	1534.281	2954.5776	2971.904	2978.3034	2992.3649	2995.9923	3014.2535	3030.7929	3036.0049	3043.1752	3063.1788	3098.9456	3108.0066	3133.4134	3835.1845	44.0124	80.6509	114.8931	147.078	168.0856	234.7795	243.6178	278.7153	328.9963	376.147	397.6146	499.3878	616.3733	680.7053	844.2741	871.4836	892.2709	926.4015	929.3068	965.8273	977.7897	979.9381	1055.1369	1063.7413	1086.0054	1122.7235	1131.5377	1172.1611	1179.877	1191.364	1226.3181	1241.1739	1266.5403	1272.0331	1300.2607	1313.5591	1342.4377	1360.2233	1367.9215	1389.2524	1402.52	1414.8037	1460.0362	1489.8038	1494.7776	1507.1489	1519.406	1522.4511	1534.2809	2954.5777	2971.9039	2978.3033	2992.3649	2995.9923	3014.2535	3030.7929	3036.0049	3043.1751	3063.1787	3098.9457	3108.0066	3133.4133	3835.1847
CC(CO)C1CCOC1	C[C@@H](CO)[C@H]1CCOC1	
InChI=1S/C7H14O2/c1-6(4-8)7-2-3-9-5-7/h6-8H,2-5H2,1H3	InChI=1S/C7H14O2/c1-6(4-8)7-2-3-9-5-7/h6-8H,2-5H2,1H3/t6-,7-/m0/s1
