19
gdb 83668	2.34576	1.63813	1.30155	1.5985	80.27	-0.2431	0.0408	0.2839	1060.3157	0.158563	-385.822411	-385.813903	-385.812959	-385.85556	32.578	
C	 0.213103071	 1.5874428212	-0.2846854182	-0.406174
C	 0.1185063383	 0.0955671377	-0.0182131964	-0.006927
C	 0.5611800143	-0.8687832377	-1.1473473728	 0.109245
O	 1.6463916973	-0.3613555947	-1.948541187	-0.289032
C	 2.6256285037	-1.098652627	-1.1733968792	-0.085191
C	 1.5519402106	-1.5940968982	-0.1971711328	-0.096921
C	 1.1751043168	-0.5917266894	 0.9495330783	-0.219772
C	 2.2345670907	 0.2191820201	 1.5118583687	 0.353639
C	 3.1164671387	 0.8998983908	 1.9671328827	-0.480522
H	 1.1863537978	 1.8459263379	-0.7066182628	 0.138975
H	-0.5575624958	 1.8978825584	-0.9983631901	 0.112956
H	 0.0730041228	 2.1593255828	 0.6376569239	 0.117857
H	-0.8887480944	-0.1673602724	 0.3218393881	 0.076022
H	-0.2113062479	-1.3488417021	-1.7548464945	 0.073084
H	 3.0858826242	-1.8926738012	-1.7748825737	 0.099753
H	 3.4066128649	-0.4525389808	-0.7588405691	 0.119313
H	 1.5264620988	-2.6534445368	 0.0517608205	 0.081565
H	 0.6605737287	-1.1157056856	 1.7604847769	 0.104963
H	 3.8913495497	 1.4982505271	 2.3783876475	 0.197168
67.2483	136.1023	172.6777	193.2695	240.3696	327.511	348.9398	493.566	530.9295	573.4068	619.3901	632.2211	659.0462	741.5728	806.7237	844.8244	888.3455	898.151	964.1727	990.9352	1008.8612	1013.5218	1059.6	1101.0061	1128.4094	1129.1767	1157.3905	1186.3942	1201.8819	1236.4158	1272.0366	1290.9924	1317.8976	1332.8819	1352.3264	1370.2261	1411.9521	1486.9265	1497.0061	1521.1015	2226.7402	3016.7172	3038.8364	3043.5206	3058.7092	3068.9168	3075.8705	3103.6124	3125.5027	3134.8734	3502.2011
CC1C2OCC2C1C#C	C[C@H]1[C@H]2OC[C@H]2[C@H]1C#C	
InChI=1S/C8H10O/c1-3-6-5(2)8-7(6)4-9-8/h1,5-8H,4H2,2H3	InChI=1S/C8H10O/c1-3-6-5(2)8-7(6)4-9-8/h1,5-8H,4H2,2H3/t5-,6+,7+,8-/m1/s1
