19
gdb 77660	2.13818	1.3713	1.25404	3.0569	79.26	-0.2313	-0.0155	0.2158	1145.8789	0.157718	-423.015023	-423.006013	-423.005069	-423.048436	34.04	
C	-0.0713515934	 1.5690095234	 0.0526396269	-0.423764
C	 0.1003243927	 0.0636411766	 0.0566868673	-0.109341
C	 1.3368335244	-0.6756045283	-0.2573197246	 0.350622
O	 1.3101466918	-1.6180830333	-1.2539079017	-0.439934
C	 2.6078237572	-0.0425268873	 0.3079159527	-0.299115
C	 1.9825125677	-0.0305013508	 1.7387253679	-0.301252
C	 0.717808639	-0.7127708162	 1.2219881069	 0.165437
C	 0.0411852139	-1.8277848297	 1.8724655525	 0.048452
O	 0.3482818694	-2.28370049	 2.9540028584	-0.284624
H	 0.8122614238	 2.0903398276	 0.4287049182	 0.125268
H	-0.2605286339	 1.9271941666	-0.9646318084	 0.128058
H	-0.9216114821	 1.8616604667	 0.6767510083	 0.128191
H	-0.7615204208	-0.4734426631	-0.339820947	 0.106202
H	 2.0247269574	-2.2483365821	-1.1045876188	 0.29243
H	 3.4597717596	-0.726373551	 0.2462171417	 0.104599
H	 2.9052967812	 0.914815963	-0.1322632157	 0.109919
H	 2.5166671886	-0.6647911922	 2.4469757933	 0.130147
H	 1.8437269018	 0.95569797	 2.1899243018	 0.106328
H	-0.7909527984	-2.2715026799	 1.2780892803	 0.062377
91.3436	163.9364	177.7913	220.4276	229.2243	236.4449	282.3384	369.8497	420.5659	468.9621	506.2277	550.9979	619.623	689.6365	755.9138	788.9993	809.3915	945.598	967.5497	972.2702	1033.2454	1040.2447	1091.9836	1096.9868	1119.9872	1150.3198	1204.2748	1229.3885	1244.2695	1250.7199	1285.9132	1356.8971	1380.3686	1418.5472	1428.8799	1474.1214	1481.5357	1498.4994	1510.3041	1523.7751	1777.8807	2858.596	3040.2923	3045.1809	3068.2444	3091.2359	3102.769	3111.5218	3128.0847	3132.1115	3787.1348
CC1C2(O)CCC12C=O	C[C@H]1[C@@]2(O)CC[C@@]12C=O	
InChI=1S/C7H10O2/c1-5-6(4-8)2-3-7(5,6)9/h4-5,9H,2-3H2,1H3	InChI=1S/C7H10O2/c1-5-6(4-8)2-3-7(5,6)9/h4-5,9H,2-3H2,1H3/t5-,6-,7+/m1/s1
