20
gdb 13381	5.46911	0.97444	0.89298	1.3664	77.75	-0.2267	0.0317	0.2584	1329.9322	0.177803	-349.018235	-349.009577	-349.008633	-349.052144	31.355	
O	 0.0185852773	 1.4059389961	-0.0897337356	-0.418622
C	 0.0579628851	-0.0109395929	-0.1681028969	-0.064478
C	-1.3313896557	-0.5326509131	 0.2077991109	-0.295972
C	-1.4468759717	-2.0259835761	 0.1257560898	 0.335732
C	-1.6015995602	-2.872277249	 1.1469226063	-0.170097
C	-1.7405000771	-4.3085751942	 0.7061515981	-0.242427
C	-1.3140495973	-4.2554749469	-0.78384652	-0.202335
C	-1.4646405592	-2.7715463319	-1.198413918	-0.297736
H	 0.8906356175	 1.7435495007	-0.3133734569	 0.285096
H	 0.3254748973	-0.3450739234	-1.1828930607	 0.086054
H	 0.8043399633	-0.432605736	 0.5232406499	 0.088798
H	-1.5627330248	-0.1873520624	 1.2208680297	 0.108133
H	-2.0565401607	-0.0559111761	-0.4655741699	 0.108056
H	-1.6721435394	-2.5707404426	 2.1874061133	 0.081495
H	-1.1249574578	-5.0005655034	 1.2925635312	 0.098729
H	-2.7788631619	-4.6520618068	 0.8230330345	 0.102329
H	-0.263184613	-4.5501587464	-0.8694448521	 0.102108
H	-1.8909329364	-4.9345138016	-1.4168761079	 0.0946
H	-2.4161354846	-2.5840789118	-1.7181528784	 0.102507
H	-0.6769240006	-2.4495708022	-1.8891353472	 0.098028
62.1689	85.7028	106.872	163.5067	254.4896	287.8356	334.129	348.9836	499.8611	613.2801	705.1758	794.8611	817.1328	844.3388	886.9749	904.6051	919.344	955.3566	1008.4429	1036.8805	1057.8183	1070.557	1084.0838	1150.9372	1170.3575	1215.7336	1229.8229	1238.8416	1247.4894	1286.5534	1312.3216	1320.2813	1328.8322	1340.4889	1367.7698	1454.6261	1484.0769	1486.9303	1488.8353	1507.1598	1527.9634	1717.9214	2970.5314	2997.1622	2998.0762	2999.9504	3021.5633	3040.9481	3049.3185	3060.8174	3079.1477	3099.2975	3179.6996	3830.5481
OCCC1=CCCC1	OCCC1=CCCC1	
InChI=1S/C7H12O/c8-6-5-7-3-1-2-4-7/h3,8H,1-2,4-6H2	InChI=1S/C7H12O/c8-6-5-7-3-1-2-4-7/h3,8H,1-2,4-6H2
