15
gdb 64757	2.80374	1.29074	1.1122	4.2059	66.2	-0.2828	-0.0032	0.2795	1101.0046	0.111566	-453.947382	-453.938718	-453.937774	-453.981217	30.96	
O	 0.0104726409	 1.4433938259	 0.0372552844	-0.461504
C	 0.0269743316	 0.0442377744	 0.0029757995	 0.255734
C	 0.8752651113	-0.5540405358	 1.1441706003	-0.392006
C	 2.2343078492	-0.0176861919	 1.1411653171	 0.265292
N	 3.2936270465	 0.4431546141	 1.1374312388	-0.299058
C	-1.3875727698	-0.5560542856	-0.1421560814	-0.118998
O	-1.0132587516	-1.1465566108	-1.4271610427	-0.250807
C	 0.2435597883	-0.5848015109	-1.3745142975	 0.390623
N	 1.1954062881	-0.5777990927	-2.1847309262	-0.533995
H	 0.8792848442	 1.7602051357	-0.2427964528	 0.311651
H	 0.4036770984	-0.2971434904	 2.0993700498	 0.164259
H	 0.9116572672	-1.645735194	 1.0679690437	 0.162548
H	-1.6795821082	-1.326177719	 0.5753082256	 0.124327
H	-2.1693882783	 0.1955659507	-0.260637143	 0.143036
H	 0.9807231423	-1.0820257796	-3.0463467557	 0.238897
66.0388	94.8631	137.6897	186.1513	254.2274	325.699	343.1018	389.1612	393.5707	503.9691	526.9089	696.2451	749.1467	766.529	867.7337	901.8852	916.6065	963.7265	967.8211	1007.6137	1038.9753	1144.7622	1151.9649	1209.8774	1226.8156	1281.4139	1307.2594	1365.3081	1402.4721	1452.3739	1505.9514	1836.6358	2365.5024	3048.1758	3072.8879	3096.0109	3143.2013	3483.2863	3780.3406
OC1(CC#N)COC1=N	O[C@@]1(CC#N)CO[C]1[NH]	
InChI=1S/C5H6N2O2/c6-2-1-5(8)3-9-4(5)7/h7-8H,1,3H2	InChI=1S/C5H6N2O2/c6-2-1-5(8)3-9-4(5)7/h7-8H,1,3H2/t5-/m0/s1
