12
gdb 99431	1.74681	1.50281	1.31578	4.9482	63.68	-0.3303	-0.04	0.2904	1056.2589	0.075131	-431.66304	-431.653592	-431.652647	-431.697943	31.123	
O	-0.0629308577	 1.4141327241	 0.0102391607	-0.397192
C	 0.0319843439	 0.0193667484	 0.0016681451	-0.079943
C	-1.4402862978	-0.5119997333	 0.0129490082	-0.233841
C	-2.1535303312	-0.0270305038	-1.1871584642	 0.345586
N	-2.6918800482	 0.335882638	-2.1403362198	-0.299617
C	-1.403173409	-1.9881833297	 0.0047490211	 0.311464
N	-1.3241465378	-3.1389136639	-0.0021138054	-0.29519
C	-2.1303363592	-0.0398284033	 1.2315863228	 0.34556
N	-2.6499834993	 0.3131351805	 2.1987776996	-0.299627
H	 0.820886849	 1.7946870287	 0.0065280522	 0.315525
H	 0.5164536692	-0.3792212337	-0.8996849659	 0.143636
H	 0.5336444883	-0.3890426521	 0.8890953755	 0.143637
74.8903	108.2607	118.4301	134.2446	151.1111	171.2191	231.2337	355.349	368.4775	482.6949	508.2799	573.2669	579.1067	579.6058	673.5985	944.5761	1019.4885	1082.6334	1130.2654	1156.1882	1251.9229	1280.6034	1445.934	1516.5759	2376.4519	2376.7347	2384.0813	3008.867	3057.7916	3836.9968
OCC(C#N)(C#N)C#N	OCC(C#N)(C#N)C#N	
InChI=1S/C5H3N3O/c6-1-5(2-7,3-8)4-9/h9H,4H2	InChI=1S/C5H3N3O/c6-1-5(2-7,3-8)4-9/h9H,4H2
