17
gdb 6025	2.71731	1.81097	1.41341	4.7354	64.24	-0.285	0.0178	0.3028	941.0401	0.139114	-401.013005	-401.003652	-401.002708	-401.046243	34.24	
C	 0.0480489652	 1.5601879242	-0.1044509852	-0.436062
C	 0.0021983607	 0.0418204561	 0.0211743618	 0.112103
O	 0.5340955852	-0.3970536444	 1.2734744973	-0.45511
C	-1.4467955878	-0.5352828702	 0.0263265143	 0.221191
C	-1.4256106272	-2.0746520511	-0.0163142316	-0.424387
O	-2.1290937528	-0.0686705074	 1.1786996012	-0.460414
C	-2.1786764669	-0.0304044	-1.1519173927	 0.289901
N	-2.7204322183	 0.3358282021	-2.1038646327	-0.344288
H	 1.0789551528	 1.9170060349	 0.0008866672	 0.110472
H	-0.3163333113	 1.8832490011	-1.0826143611	 0.155732
H	-0.5704167881	 2.0237594261	 0.6684651833	 0.141055
H	 0.5563922036	-0.423954244	-0.8061817314	 0.089253
H	 1.2811369631	 0.164835693	 1.4993257412	 0.295939
H	-0.8321551138	-2.4449063938	 0.8222337075	 0.140842
H	-2.4452171337	-2.455593665	 0.0670441671	 0.141915
H	-0.9854926014	-2.438740871	-0.9491112043	 0.129315
H	-1.4850362194	-0.1662609906	 1.894868388	 0.292542
90.5217	151.525	200.4886	226.7612	236.124	238.9324	271.9458	314.3575	347.7807	413.8866	443.3975	460.9333	528.6093	581.914	615.3629	734.3373	869.5134	923.4125	957.2239	1017.5977	1068.8092	1108.065	1133.6217	1164.3397	1184.4869	1264.0263	1362.5859	1389.1415	1404.9532	1410.3713	1411.7672	1487.4415	1489.3702	1491.3324	1501.9374	2364.2664	3004.9541	3038.0332	3052.5519	3110.4192	3131.2617	3137.4032	3147.4809	3744.4025	3836.2686
CC(O)C(C)(O)C#N	C[C@@H](O)[C@@](C)(O)C#N	
InChI=1S/C5H9NO2/c1-4(7)5(2,8)3-6/h4,7-8H,1-2H3	InChI=1S/C5H9NO2/c1-4(7)5(2,8)3-6/h4,7-8H,1-2H3/t4-,5+/m1/s1
