16
gdb 127553	4.16702	1.12383	0.89101	3.4268	75.77	-0.2328	-0.0197	0.2131	1259.8425	0.126415	-430.267145	-430.258567	-430.257623	-430.301562	30.622	
C	 0.0087494424	 1.3978354099	 0.0823267564	-0.313881
N	-0.0332515896	-0.0492499895	 0.0328850281	 0.164738
N	-0.0384085787	-0.7178694563	-1.1195235296	-0.229512
C	-0.017549285	-1.9947361402	-0.7439750815	-0.123308
C	 0.0033654532	-2.0505327351	 0.6588514114	 0.346753
N	-0.0042515586	-0.7962181165	 1.1263492298	-0.347628
C	 0.0324781903	-3.2282114192	 1.5439616326	 0.244103
N	-0.0696730362	-2.9296310314	 2.8855293248	-0.557364
N	 0.1101644928	-4.3866162692	 1.0014017618	-0.522589
H	 1.0297053763	 1.7488330305	 0.2608775346	 0.151562
H	-0.3437258491	 1.7731358254	-0.8773492339	 0.166582
H	-0.6386227491	 1.7457881844	 0.8882641344	 0.157453
H	-0.0244012196	-2.8020936917	-1.4560884344	 0.150482
H	 0.1092443459	-1.9748972964	 3.1566614522	 0.265392
H	 0.2161885114	-3.6372335794	 3.5425996877	 0.246774
H	 0.1196076537	-5.1256264452	 1.7066975455	 0.200443
31.5501	76.0519	151.3989	171.7087	258.404	363.204	381.8201	411.2297	461.5601	534.2243	630.2472	643.5016	676.2021	753.2115	782.0604	855.9066	910.4564	1010.0067	1037.0294	1078.6464	1100.6343	1141.5561	1147.4532	1180.3122	1331.821	1341.6111	1383.9098	1424.4842	1448.1231	1474.7155	1483.3418	1505.9931	1561.4469	1632.2608	1713.2335	3055.3051	3132.7835	3177.6932	3295.7144	3456.1243	3580.983	3701.9981
CN1N=CC(=N1)C(N)=N	Cn1ncc(n1)C(=N)N	
InChI=1S/C4H7N5/c1-9-7-2-3(8-9)4(5)6/h2H,1H3,(H3,5,6)	InChI=1S/C4H7N5/c1-9-7-2-3(8-9)4(5)6/h2H,1H3,(H3,5,6)
