16
gdb 27068	3.19075	1.30481	0.98755	1.9602	73.92	-0.1875	-0.0266	0.161	1150.743	0.124021	-437.920759	-437.912344	-437.9114	-437.954002	31.106	
N	-0.1882270959	 1.295961685	-0.3919939145	-0.60077
C	-0.1363839059	-0.0532318078	-0.1298503058	 0.318418
C	-1.106379679	-1.0187220682	-0.0124854614	 0.159463
C	-2.592802112	-0.7753476393	-0.0173309749	-0.39629
C	-2.9586901898	-0.147527104	-1.3480208883	 0.156326
O	-2.9962418336	 1.0467348855	-1.5338576663	-0.25564
C	-0.3909140843	-2.2582382194	 0.1429946155	-0.279362
C	 0.927088394	-1.9547812619	 0.1392262109	-0.027328
O	 1.0973451334	-0.6007982539	-0.0373285616	-0.171783
H	 0.4575246478	 1.8666424959	 0.1349433616	 0.255978
H	-1.1257391539	 1.6715267668	-0.4435819615	 0.271627
H	-3.126100531	-1.7219305216	 0.1125219572	 0.116704
H	-2.8977053959	-0.0883373496	 0.7814612496	 0.121238
H	-3.1297391529	-0.8589382619	-2.1844349158	 0.091431
H	-0.8235551114	-3.2394293472	 0.267362153	 0.106795
H	 1.8333318603	-2.5239020885	 0.2512383224	 0.133194
78.5659	112.336	156.1811	238.0214	267.2458	301.6791	337.5759	442.3214	507.0162	571.4606	616.5473	643.6904	672.3662	725.9938	746.5124	819.3639	889.6437	907.2825	976.6069	1042.7759	1053.6528	1063.9788	1166.1185	1173.2146	1252.1908	1263.3491	1297.2489	1331.5929	1417.1361	1464.6167	1473.8861	1565.8956	1613.7028	1676.9968	1802.7085	2903.3125	3026.9625	3093.9985	3247.5265	3297.0058	3545.2527	3655.2097
NC1=C(CC=O)C=CO1	Nc1c(CC=O)cco1	
InChI=1S/C6H7NO2/c7-6-5(1-3-8)2-4-9-6/h2-4H,1,7H2	InChI=1S/C6H7NO2/c7-6-5(1-3-8)2-4-9-6/h2-4H,1,7H2
