16
gdb 65009	1.93035	1.72158	1.0597	3.1974	74.21	-0.2746	0.005	0.2796	1130.0168	0.121704	-400.702477	-400.693385	-400.692441	-400.736305	33.838	
O	-0.1978436917	 1.3188000589	-0.3612318599	-0.460394
C	-0.0187826629	-0.0151678746	 0.000988384	 0.417978
C	-0.3669481191	-0.4425379804	 1.3993834467	-0.319127
C	-1.273549501	-0.7908904487	 0.2293684697	-0.32064
C	 1.1816788993	-0.6396171802	-0.7499800389	-0.374795
C	 2.4128795939	 0.0913870731	-0.4327118605	 0.313206
C	 3.385345738	 0.7395454564	-0.1569274062	-0.430669
C	 1.3370555456	-2.0758785423	-0.4845087338	 0.295442
N	 1.4332850039	-3.2074660721	-0.2741266894	-0.329889
H	 0.561048617	 1.8168028797	-0.0311339458	 0.290643
H	 0.1973345726	-1.244955884	 1.8611665615	 0.139292
H	-0.6961099323	 0.3407292364	 2.0721186123	 0.123422
H	-2.1965531969	-0.2334759583	 0.1228912986	 0.133453
H	-1.3172536467	-1.8260134566	-0.089032478	 0.140449
H	 0.9723716055	-0.5252235853	-1.8226604759	 0.166793
H	 4.2626741346	 1.2912216481	 0.0780377954	 0.214837
65.1457	125.5056	143.2566	159.1277	310.3897	328.7222	361.542	370.0024	393.5346	441.5736	516.485	541.6965	576.8471	645.6092	681.1531	740.5619	778.8535	888.7339	934.9247	950.8498	966.9662	1007.083	1045.6158	1057.2773	1091.2007	1189.6923	1223.906	1267.5142	1300.1457	1311.6289	1392.6216	1452.7343	1503.3738	2242.5571	2365.03	3021.0807	3142.0143	3146.4004	3229.6935	3242.1565	3499.5972	3769.0089
OC1(CC1)C(C#C)C#N	OC1(CC1)[C@@H](C#C)C#N	
InChI=1S/C7H7NO/c1-2-6(5-8)7(9)3-4-7/h1,6,9H,3-4H2	InChI=1S/C7H7NO/c1-2-6(5-8)7(9)3-4-7/h1,6,9H,3-4H2/t6-/m0/s1
