17
gdb 41728	3.40809	1.77421	1.76667	0.3949	65.87	-0.2369	0.0853	0.3222	846.7421	0.139609	-458.952393	-458.946442	-458.945498	-458.982438	25.147	
C	-0.0124664537	 1.5889603471	-0.0087849908	-0.079185
O	 1.3948703065	 1.9278508937	-0.0007760014	-0.286154
C	 2.1016892882	 0.7154099082	-0.1703489207	 0.080632
C	 2.0298894531	-0.2156199658	 1.0665552352	 0.030681
C	 2.4157321681	-1.5594854024	 0.461500405	-0.079185
O	 1.7091216577	-1.5454579413	-0.8018339958	-0.286154
C	 1.1815369536	-0.2427466343	-0.9533529972	 0.080632
C	 0.018034643	 0.0661285687	 0.0227427233	 0.030681
O	 0.603959935	-0.2862780058	 1.2970675731	-0.293985
H	-0.4910304765	 2.0009302897	 0.8840917094	 0.119218
H	-0.4937756084	 2.0025559581	-0.9063475176	 0.097174
H	 3.0972776187	 0.9113500878	-0.5663438723	 0.093969
H	 2.5422964721	 0.0899499641	 1.9779601418	 0.090657
H	 3.4952696549	-1.6717879065	 0.2873584928	 0.097174
H	 2.0560097451	-2.3936533443	 1.0703808223	 0.119218
H	 0.994231099	-0.031598417	-2.005367109	 0.093969
H	-0.9274635163	-0.45756581	-0.1127952579	 0.090657
242.9116	286.2613	353.6647	387.034	453.4012	571.0667	641.3003	752.3828	760.0205	856.1989	861.9103	895.667	908.6957	914.8281	955.5843	971.8409	981.6633	995.0461	1016.0943	1066.0353	1074.5339	1108.7595	1116.8313	1184.4751	1184.4785	1206.5567	1234.5028	1256.1663	1262.8558	1278.8369	1308.5471	1330.362	1348.6283	1375.6308	1400.3171	1508.341	1510.2311	3005.2363	3006.1626	3087.0885	3087.5555	3128.2949	3130.3863	3133.1992	3141.6222
C1OC2C3COC2C1O3	C1O[C@H]2[C@@H]3CO[C@H]2[C@H]1O3	
InChI=1S/C6H8O3/c1-3-5-6(7-1)4(9-3)2-8-5/h3-6H,1-2H2	InChI=1S/C6H8O3/c1-3-5-6(7-1)4(9-3)2-8-5/h3-6H,1-2H2/t3-,4-,5-,6-/m0/s1
