21
gdb 53790	2.44691	1.29805	1.04748	1.9318	81.01	-0.2461	-0.0527	0.1934	1255.0951	0.180089	-420.443642	-420.433035	-420.432091	-420.478677	39.79	
C	-0.0868153714	 1.5308178634	-0.0980999106	-0.393396
C	-0.073970724	-0.0051974548	-0.0195185018	 0.14689
C	 0.6900608601	-0.4461455254	 1.2521073025	-0.420972
C	-1.5276507361	-0.5307145464	 0.0248248983	-0.421646
C	 0.6404078198	-0.5450447646	-1.2647153859	 0.377127
O	 1.1306339205	 0.1977640052	-2.0913721685	-0.334674
C	 0.7764271006	-2.0554842624	-1.5239689827	 0.26238
N	 1.3103579678	-2.2975015861	-2.7565727683	-0.525565
N	 0.395002904	-2.905708885	-0.6437854141	-0.507666
H	 0.9263651235	 1.9386499353	-0.1358130451	 0.118509
H	-0.6158190237	 1.8818295823	-0.9881281668	 0.116713
H	-0.5906373893	 1.9356136859	 0.7851909765	 0.103758
H	 0.2060060857	-0.0036049605	 2.1294232392	 0.111087
H	 0.6925608602	-1.5307093286	 1.3555497151	 0.154723
H	 1.7260187671	-0.090260385	 1.2315495395	 0.110308
H	-2.0802073001	-0.2394198309	-0.8753201838	 0.110499
H	-1.5531839966	-1.6161317503	 0.1168103232	 0.152366
H	-2.0410278309	-0.0876726549	 0.884869631	 0.111775
H	 1.7039706064	-1.4997140653	-3.2327492066	 0.271347
H	 1.6632714236	-3.2128730629	-2.9768577052	 0.251231
H	 0.5620758928	-3.8654894291	-0.9549495457	 0.205205
61.8883	82.2965	188.9554	216.9474	231.1895	247.1049	276.368	299.1579	319.2741	343.3885	367.4665	373.6722	433.8953	482.1135	546.408	562.8586	588.6188	670.7736	819.911	826.9545	875.4356	940.7811	943.1956	967.1654	1016.4115	1045.591	1070.8671	1104.9056	1150.9361	1219.2888	1245.328	1284.3887	1384.7395	1393.7722	1417.0034	1426.5381	1473.3142	1483.7349	1492.4004	1497.9882	1502.8003	1526.9314	1590.684	1710.4546	1769.1948	3031.7764	3033.3	3043.6008	3092.1496	3093.9898	3113.7948	3122.0079	3155.2607	3158.5146	3435.9421	3580.1565	3716.3488
CC(C)(C)C(=O)C(N)=N	CC(C)(C)C(=O)C(=N)N	
InChI=1S/C6H12N2O/c1-6(2,3)4(9)5(7)8/h1-3H3,(H3,7,8)	InChI=1S/C6H12N2O/c1-6(2,3)4(9)5(7)8/h1-3H3,(H3,7,8)
