13
gdb 23746	3.39208	2.25014	1.35444	2.2288	63.9	-0.2184	-0.0128	0.2056	823.7301	0.097434	-402.803351	-402.796939	-402.795995	-402.833682	24.86	
N	-0.0049337363	 1.413952293	 0.1475488261	-0.599212
C	-0.0081176639	 0.0280465403	 0.0475545392	 0.154892
C	-1.1788665504	-0.7418412709	 0.0268333105	-0.052961
N	-1.2067941211	-2.0731122604	-0.009569835	-0.264169
C	-0.0418872752	-2.7225573985	-0.0288941534	-0.007099
C	 1.1916405284	-2.0727280739	-0.0186941	-0.248629
C	 1.1879857914	-0.6935876792	 0.0185118364	 0.267317
F	 2.3383390758	-0.0035114529	 0.0182106115	-0.087854
H	 0.8466105424	 1.8522614538	-0.1714329057	 0.258309
H	-0.8297684529	 1.8685266473	-0.2154887457	 0.254854
H	-2.1418745022	-0.2333874194	 0.0426549499	 0.10061
H	-0.0875700276	-3.8073205963	-0.0560370703	 0.110154
H	 2.1291320216	-2.6150457228	-0.0424326735	 0.113789
186.8205	281.3703	289.1635	318.5269	437.4834	451.7954	538.5812	585.0585	611.8942	627.4301	764.3306	792.7293	843.9163	872.7361	925.133	957.6279	1062.821	1088.9633	1221.657	1248.803	1310.5681	1325.9344	1358.8515	1458.9594	1544.5568	1612.6083	1633.9366	1662.0395	3135.2442	3169.5738	3210.3693	3568.3964	3670.6956
NC1=CN=CC=C1F	Nc1cnccc1F	
InChI=1S/C5H5FN2/c6-4-1-2-8-3-5(4)7/h1-3H,7H2	InChI=1S/C5H5FN2/c6-4-1-2-8-3-5(4)7/h1-3H,7H2
