15
gdb 130216	3.20607	1.28934	0.99446	0.9763	72.35	-0.2143	0.0041	0.2184	1144.7765	0.113822	-412.959879	-412.951532	-412.950588	-412.992999	31.038	
N	 0.1571717187	 1.2944976408	-0.3793423358	-0.600818
C	 0.0858121073	-0.0685208707	-0.1346369478	 0.274043
N	-1.0630348387	-0.7115908492	 0.0712011883	-0.28226
N	-0.661899073	-1.9610626958	 0.3326329639	-0.090971
N	 0.6396375227	-2.1821001254	 0.3014743346	-0.266134
C	 1.1541904809	-0.9872317849	 0.009697014	 0.274851
C	 2.6344365156	-0.7574633941	-0.104725042	-0.459271
C	 3.0069478133	-0.0223251599	-1.3138805085	 0.295017
C	 3.2872008453	 0.6058142786	-2.3003061106	-0.457024
H	 0.9029029791	 1.5412061213	-1.0182169242	 0.256992
H	-0.7292850768	 1.681685323	-0.6739840669	 0.253897
H	-1.3203828554	-2.6922641293	 0.5395811468	 0.289749
H	 3.0007134218	-0.2028447962	 0.7707134274	 0.150246
H	 3.1363500023	-1.730637169	-0.0865463391	 0.158666
H	 3.5597039169	 1.1366780208	-3.1789148902	 0.203017
60.7158	112.4548	236.4061	263.9865	308.2187	334.4525	346.5109	403.8862	446.2054	471.3288	621.0995	645.1003	671.3868	698.1325	746.4216	748.5215	795.2668	935.4421	960.5839	992.2097	1104.9624	1191.4628	1196.5079	1246.7136	1273.5141	1332.1054	1409.331	1456.9982	1463.5034	1561.3177	1589.4537	1652.5302	2234.3251	3010.4949	3075.1984	3502.3415	3536.8942	3638.9327	3687.1477
NC1=NNN=C1CC#C	Nc1n[nH]nc1CC#C	
InChI=1S/C5H6N4/c1-2-3-4-5(6)8-9-7-4/h1H,3H2,(H3,6,7,8,9)	InChI=1S/C5H6N4/c1-2-3-4-5(6)8-9-7-4/h1H,3H2,(H3,6,7,8,9)
