18
gdb 28209	4.61976	1.21109	0.98088	1.1974	81.43	-0.1686	0.0394	0.208	1210.0173	0.150142	-401.975794	-401.967964	-401.967019	-402.008105	29.841	
C	 0.1231260311	 1.4431394057	-0.0331347094	-0.489529
C	-0.0871159171	-0.0259152559	-0.0150648784	 0.352297
C	-1.1726714636	-0.8295237503	-0.2129924695	-0.458725
C	-0.6997450987	-2.1818241099	-0.1266532458	 0.234227
C	 0.6191050706	-2.0736481175	 0.1417772858	 0.35267
N	 1.3075008168	-3.2455054154	 0.4472140187	-0.407605
C	 0.3481014471	-4.3039177745	-0.0082995804	-0.164898
C	-1.0733320133	-3.6362750661	-0.0452781055	-0.347388
O	 1.047556382	-0.8048266534	 0.2230743533	-0.241075
H	 0.8116932046	 1.7522929135	-0.8296114458	 0.129831
H	-0.8330687037	 1.9445969458	-0.2015737645	 0.132214
H	 0.5367106758	 1.8099568786	 0.9141348738	 0.132165
H	-2.1722171774	-0.4762478809	-0.4177812385	 0.102901
H	 2.2211916082	-3.3309855055	 0.0156279628	 0.236136
H	 0.6163240964	-4.6469570037	-1.0155998977	 0.105852
H	 0.3908362753	-5.1613933094	 0.6670476689	 0.113002
H	-1.6351029947	-3.8672910342	 0.8697751524	 0.111328
H	-1.6618186194	-4.020009967	-0.8851365502	 0.106597
122.5038	136.7721	167.3306	254.3971	266.401	284.4004	469.9036	528.7549	613.351	648.3559	677.8943	715.8898	780.4914	803.7057	838.3591	867.218	934.4201	941.4241	1009.6613	1020.3778	1063.2918	1076.1967	1121.1762	1158.9007	1196.2786	1233.3844	1254.2513	1296.318	1315.5732	1356.8359	1405.8844	1424.6165	1469.175	1479.2709	1496.6457	1504.6779	1521.2402	1613.293	1678.7382	3009.494	3017.4535	3018.3624	3059.242	3062.1685	3097.7658	3121.857	3244.5511	3526.5903
CC1=CC2=C(NCC2)O1	Cc1cc2c(NCC2)o1	
InChI=1S/C7H9NO/c1-5-4-6-2-3-8-7(6)9-5/h4,8H,2-3H2,1H3	InChI=1S/C7H9NO/c1-5-4-6-2-3-8-7(6)9-5/h4,8H,2-3H2,1H3
