17
gdb 73178	2.46874	1.51482	1.38595	1.5634	74.14	-0.2445	0.0154	0.2599	1034.4864	0.1337	-421.747928	-421.739521	-421.738577	-421.7809	31.7	
C	-0.25033446	 1.3492988056	-0.1693344017	-0.484963
C	 0.0259331191	-0.1076215027	 0.0711862052	 0.390111
O	-1.1533972587	-0.8735808415	 0.3696863186	-0.318687
C	-0.5145950651	-1.5266901916	 1.4995628486	-0.099837
C	 0.8072363027	-0.8022524591	 1.2105397074	 0.0119
O	 1.6452459137	-1.509944488	 0.2825656011	-0.302689
C	 1.0171226016	-0.8698522304	-0.8701358191	-0.133909
C	 0.4685854323	-1.7876766765	-1.8461946427	 0.351093
C	 0.0186706822	-2.5368227027	-2.6711082134	-0.434561
H	 0.6784308604	 1.9066012083	-0.3238257787	 0.125756
H	-0.8743006092	 1.464942309	-1.0625512834	 0.142632
H	-0.7884225631	 1.7847581233	 0.6769800753	 0.131516
H	-1.0066698299	-1.2540513496	 2.4412691518	 0.104622
H	-0.473836318	-2.6149214846	 1.3923413676	 0.121059
H	 1.365726134	-0.3295915483	 2.0200333262	 0.091077
H	 1.7378802298	-0.1922146307	-1.3481681099	 0.102814
H	-0.3861866618	-3.2017844106	-3.3936818528	 0.202064
79.0989	129.6777	194.1817	199.1952	258.7735	329.603	346.8844	407.8677	519.2178	557.8766	621.0071	654.2529	678.771	720.5521	836.199	847.804	899.9006	923.5192	958.2976	999.3992	1036.8782	1044.5881	1088.6739	1142.2952	1155.3135	1176.9468	1186.0359	1227.7827	1300.8515	1331.0921	1355.9111	1363.5632	1412.7588	1479.5523	1488.5978	1505.2867	2237.5683	3007.8009	3023.523	3037.8482	3090.3379	3101.7106	3107.2659	3121.1266	3501.9849
CC12OCC1OC2C#C	C[C@]12OC[C@H]1O[C@H]2C#C	
InChI=1S/C7H8O2/c1-3-5-7(2)6(9-5)4-8-7/h1,5-6H,4H2,2H3	InChI=1S/C7H8O2/c1-3-5-7(2)6(9-5)4-8-7/h1,5-6H,4H2,2H3/t5-,6+,7+/m0/s1
