23
gdb 102399	1.69439	1.50072	1.0116	2.8512	81.49	-0.2403	-0.0178	0.2225	1317.7094	0.202269	-425.436016	-425.424558	-425.423613	-425.473122	40.739	
C	 0.1589931331	 1.5567801851	-0.0095115205	-0.403639
C	 0.0394126961	 0.0293507829	-0.033856572	-0.211467
C	-1.4015366193	-0.5333169652	 0.0536884362	 0.147036
C	-2.1716074283	-0.1182530372	 1.3254016408	-0.207174
C	-1.4485211758	-0.3835309665	 2.6505546686	-0.406072
C	-2.2367926952	-0.0936700879	-1.1705202704	-0.10548
O	-1.5635236153	-0.4943921208	-2.3558336417	-0.430302
C	-1.3045788638	-2.0609777561	-0.0336420705	 0.162664
O	-2.0044376442	-2.829684949	 0.5763743296	-0.271975
H	 1.2117942595	 1.8519085839	-0.0555078401	 0.117316
H	-0.3436934693	 2.0162101564	-0.8659375847	 0.122375
H	-0.2638306889	 1.9908526994	 0.9017968401	 0.120126
H	 0.4909173945	-0.3460460522	-0.957752418	 0.12017
H	 0.6296695732	-0.3904137346	 0.7893279791	 0.10115
H	-2.4226863457	 0.9468949299	 1.2540664033	 0.090847
H	-3.1203803991	-0.6644719616	 1.3301051629	 0.113889
H	-1.203732429	-1.4431785987	 2.7621131238	 0.134516
H	-0.5226671095	 0.1932707916	 2.7396437691	 0.115143
H	-2.0901413721	-0.102608988	 3.491289459	 0.113896
H	-3.2326742782	-0.5565704881	-1.1027834105	 0.10203
H	-2.3762558531	 0.9973234323	-1.139715252	 0.093947
H	-2.1185494122	-0.275395156	-3.109562514	 0.292503
H	-0.5284572674	-2.4345028394	-0.7357764683	 0.088501
34.8031	68.6612	114.4538	129.4683	173.9545	222.5345	226.7948	242.6272	267.445	301.2238	313.0315	329.9311	397.9908	403.4526	512.1928	612.6807	728.8946	766.3064	798.7904	880.0759	921.6547	966.6617	1007.2319	1017.4224	1048.2867	1066.5763	1094.5938	1098.5116	1180.1031	1187.5882	1200.0489	1267.1726	1282.389	1322.7052	1325.9866	1372.9384	1388.3753	1410.8525	1412.8905	1430.9303	1447.8287	1476.4708	1483.1159	1500.1554	1503.4743	1507.4613	1512.1675	1525.6923	1821.1274	2899.3847	2980.2603	3013.1739	3031.8264	3036.1655	3041.0486	3044.2544	3075.1336	3077.1209	3105.3692	3106.1563	3111.7495	3122.2387	3836.3956
CCC(CC)(CO)C=O	CCC(CC)(CO)C=O	
InChI=1S/C7H14O2/c1-3-7(4-2,5-8)6-9/h5,9H,3-4,6H2,1-2H3	InChI=1S/C7H14O2/c1-3-7(4-2,5-8)6-9/h5,9H,3-4,6H2,1-2H3
