20
gdb 65140	3.33198	1.29335	1.20294	0.9047	78.5	-0.2254	0.0612	0.2866	1123.9047	0.171251	-403.07193	-403.063704	-403.06276	-403.105085	32.684	
O	 0.8141161794	 0.4162890886	 1.1142888872	-0.464055
C	 0.1085211436	 0.049062456	-0.0456139244	 0.385183
C	 0.4340144906	 0.8085110702	-1.3131445503	-0.315556
C	 0.9821921467	-0.5833463133	-1.0962081399	-0.302689
C	-1.2911047933	-0.4958013685	 0.1007537001	-0.044676
C	-2.0389160846	-0.8104485916	 1.3332448843	-0.052857
C	-1.8179085778	 0.1782883939	 2.4770089353	-0.24588
C	-2.1835518793	 1.2888011411	 1.4601596138	-0.160729
N	-2.5184298699	 0.2909897568	 0.3813377646	-0.167333
H	 0.5760963927	 1.3207714986	 1.3406886645	 0.282681
H	-0.3578730799	 0.9517975536	-2.0399687899	 0.126285
H	 1.129629125	 1.6358620353	-1.2239369065	 0.112841
H	 2.0316485348	-0.6709051103	-0.8421375305	 0.124833
H	 0.5815129946	-1.3998967432	-1.6863842298	 0.117174
H	-1.5220181511	-1.1833918645	-0.711550222	 0.093277
H	-2.5819726791	-1.7461789611	 1.4342423059	 0.09165
H	-2.5805675956	 0.0770625998	 3.2515034372	 0.10717
H	-0.8309667207	 0.1835935906	 2.9385778254	 0.117478
H	-3.0798653197	 1.8529134794	 1.7249524674	 0.112741
H	-1.4083963263	 2.0087781886	 1.1729861676	 0.082461
32.132	192.3032	210.1355	288.7967	306.09	331.8606	355.0571	403.6447	526.5217	547.6538	744.3642	764.3795	773.9108	784.8603	798.1756	803.658	902.6801	915.5599	928.0719	965.4187	978.0234	992.165	1013.7551	1043.8947	1054.3529	1075.2237	1081.2507	1127.8175	1167.3632	1190.2703	1218.3746	1226.9047	1257.7084	1273.7058	1292.0819	1309.1423	1349.813	1374.1623	1451.662	1458.1916	1484.7409	1493.7493	1515.8254	3034.0289	3080.884	3102.5703	3116.3136	3133.6267	3138.2629	3141.7128	3147.4892	3219.932	3236.6522	3813.4797
OC1(CC1)C1C2CCN12	OC1(CC1)[C@H]1[C@H]2CCN12	
InChI=1S/C7H11NO/c9-7(2-3-7)6-5-1-4-8(5)6/h5-6,9H,1-4H2	InChI=1S/C7H11NO/c9-7(2-3-7)6-5-1-4-8(5)6/h5-6,9H,1-4H2/t5-,6-,8?/m1/s1
