14
gdb 132055	2.38425	1.85718	1.05071	1.4537	69.03	-0.2349	-0.0556	0.1794	1040.635	0.100804	-478.014601	-478.006965	-478.006021	-478.046946	28.111	
C	-0.0527175405	 1.5438867331	 0.012194403	-0.485699
C	-0.0270536889	 0.0464010059	-0.0116915713	 0.037644
C	-0.125221386	-0.7052933064	-1.1298254175	 0.267137
F	-0.2553470007	-0.138897372	-2.3204096851	-0.053968
N	-0.1049478608	-2.0750406959	-1.1833236854	-0.318181
C	 0.0191670177	-2.6628397727	-0.0564879864	 0.133012
O	 0.1283858305	-2.0758550665	 1.1409959151	-0.213742
C	 0.1125832696	-0.665896118	 1.2463543379	 0.342344
N	 0.2159503377	-0.1121568626	 2.3790890815	-0.529238
H	 0.8660607656	 1.9342591744	 0.461324551	 0.149877
H	-0.1613443427	 1.9472831756	-0.9949749886	 0.13468
H	-0.8777989097	 1.9015892124	 0.6363345784	 0.149875
H	 0.0472822189	-3.7449308033	 0.0218199048	 0.156771
H	 0.3037477892	-0.8003822239	 3.1255364925	 0.229487
116.4786	135.2009	171.092	271.3747	277.9946	366.0937	490.968	507.783	517.6038	555.388	683.8341	687.0908	760.7326	842.9841	879.0897	893.9259	954.7962	1000.9735	1064.2749	1107.1646	1176.927	1214.9733	1300.3246	1376.4415	1412.9516	1426.2796	1476.584	1481.3026	1647.3771	1695.1038	1750.7104	3046.2085	3098.3419	3150.399	3200.3495	3508.6175
CC1=C(F)N=COC1=N	CC1=C(OC=N[C@H]1F)[NH]	
InChI=1S/C5H5FN2O/c1-3-4(6)8-2-9-5(3)7/h2,7H,1H3	InChI=1S/C5H6FN2O/c1-3-4(6)8-2-9-5(3)7/h2,4,7H,1H3/t4-/m1/s1
