21
gdb 105747	2.30109	1.37537	1.16541	4.5803	81.76	-0.2481	0.0342	0.2823	1201.0622	0.183953	-383.294311	-383.284874	-383.28393	-383.329477	34.732	
C	 0.0049153584	 1.5453348361	 0.150580762	-0.393201
C	 0.0123446404	 0.0214816382	 0.0082038566	-0.246546
C	 0.6639498361	-0.5019736015	-1.286733069	 0.115127
C	 0.6474298523	-2.0634393581	-1.3950973644	-0.252395
C	 0.5011571448	-2.3544576945	-2.909778861	-0.21929
C	 0.3283408859	-0.9531762487	-3.5609465288	-0.178449
N	-0.034897618	-0.0134211353	-2.4888511618	-0.299297
C	 2.0676377722	-0.0346918999	-1.3545745637	 0.318829
N	 3.1720894292	 0.3045152662	-1.3892353815	-0.360607
H	 1.0240754445	 1.9417308219	 0.1755684584	 0.145355
H	-0.5158735814	 2.0188154214	-0.6856635711	 0.132467
H	-0.4945779781	 1.8380817613	 1.0786322822	 0.115166
H	 0.5304519318	-0.434858057	 0.8588069495	 0.119504
H	-1.014085862	-0.3682998987	 0.0264172123	 0.098372
H	 1.5377669277	-2.5164043758	-0.9541542086	 0.123136
H	-0.2186513145	-2.4321845052	-0.8372368858	 0.102871
H	 1.3712862603	-2.8778599543	-3.3131770252	 0.115344
H	-0.3707489789	-2.9868583223	-3.0976577267	 0.105336
H	 1.2743622415	-0.6217048978	-4.0021074251	 0.131627
H	-0.4262120332	-0.9285768507	-4.350207049	 0.107296
H	-1.0327318988	-0.0798358051	-2.3043127594	 0.219356
24.866	105.9146	136.0229	175.1337	199.1073	210.7256	268.8656	387.703	401.2514	490.8194	585.6107	630.3726	657.0058	735.5631	777.728	805.3195	821.0328	869.0979	906.6563	948.279	978.0431	1003.8796	1019.7401	1063.4402	1092.8026	1115.5046	1139.7589	1164.7739	1232.0742	1258.0097	1272.4527	1293.6262	1322.0429	1339.3952	1354.0682	1370.3098	1416.7148	1456.5174	1482.5943	1490.089	1495.6227	1499.6886	1507.7285	1513.2155	2351.1924	3020.9232	3047.7172	3050.5633	3053.1131	3066.2726	3069.9703	3096.151	3110.5675	3117.1975	3121.1836	3126.9985	3495.1401
CCC1(CCCN1)C#N	CC[C@]1(CCCN1)C#N	
InChI=1S/C7H12N2/c1-2-7(6-8)4-3-5-9-7/h9H,2-5H2,1H3	InChI=1S/C7H12N2/c1-2-7(6-8)4-3-5-9-7/h9H,2-5H2,1H3/t7-/m0/s1
