15
gdb 123670	3.10129	2.29651	1.51769	4.8208	69.97	-0.229	-0.0576	0.1714	827.5149	0.115648	-412.872451	-412.866265	-412.865321	-412.902772	24.954	
C	-0.1010939701	 1.5511876814	-0.1024877478	-0.156546
C	 1.4676373751	 1.6924366447	 0.0174739516	-0.060942
N	 2.0470130281	 2.1551339422	 1.2920970922	-0.320286
C	 2.4714541767	 0.9751595061	 2.1340785734	-0.236673
C	 1.6285775066	-0.117310673	 1.515427811	 0.158672
C	 1.352356611	 0.2246991667	 0.238361184	 0.112233
N	 0.0110626448	-0.010444776	-0.0003577308	-0.085038
N	-0.4579434369	-0.6850887854	 1.1602199303	-0.117495
N	 0.5053108483	-0.7714440065	 2.0107866241	-0.169512
H	-0.6319398357	 1.9307144275	 0.7682947841	 0.161235
H	-0.562662959	 1.841344674	-1.0451752973	 0.143371
H	 1.9501345708	 2.1180357247	-0.864372853	 0.095989
H	 2.7861113543	 2.8344652349	 1.1656265386	 0.225378
H	 3.5525396853	 0.7890274734	 2.0777235871	 0.114148
H	 2.2094393606	 1.1397709453	 3.1833780626	 0.135466
156.6334	269.8852	313.9877	384.8872	476.1395	526.9375	644.3065	680.9982	704.6498	732.9373	775.993	849.3758	862.5258	889.131	941.8008	1001.0789	1011.9455	1043.0659	1054.2404	1113.9398	1135.9083	1166.1475	1197.3243	1217.5877	1248.9034	1285.5758	1329.2963	1354.7674	1369.9341	1436.9812	1455.8045	1515.8326	1584.9709	3004.9754	3079.1592	3086.0503	3100.089	3192.8341	3566.8826
C1C2NCC3=C2N1N=N3	C1[C@H]2NC[C]3[C]2N1N=N3	
InChI=1S/C5H6N4/c1-3-5-4(6-1)2-9(5)8-7-3/h4,6H,1-2H2	InChI=1S/C5H6N4/c1-3-5-4(6-1)2-9(5)8-7-3/h4,6H,1-2H2/t4-/m1/s1
