20
gdb 96874	2.24262	1.4314	0.94234	1.4401	79.01	-0.2495	0.0284	0.2778	1301.6093	0.169143	-440.314123	-440.304272	-440.303328	-440.349495	34.965	
C	 0.1298508185	 1.4346452495	 0.0284138168	-0.335391
N	 0.2919455375	-0.0100151236	 0.0556428666	-0.324946
C	 0.6314771663	-0.6225982708	-0.9872080388	 0.411596
O	 0.9063323728	-0.0745068375	-2.2105867287	-0.260547
C	 1.1799528157	-1.1494947543	-3.1256082203	 0.217359
C	 2.2960789673	-0.7705444464	-4.068753424	-0.404363
O	 1.5451222831	-2.2484569304	-2.3337811366	-0.266274
C	 0.8166093841	-2.1260356327	-1.1117327258	 0.01542
C	 1.5735153173	-2.7656705812	 0.0358400083	-0.399566
H	 0.8407694026	 1.8880178247	 0.728735881	 0.126452
H	 0.2739582824	 1.8867850778	-0.9594096276	 0.122447
H	-0.8733903873	 1.6874382348	 0.3893574101	 0.125326
H	 0.2426697925	-1.3586818012	-3.6701469907	 0.077787
H	 3.1987204051	-0.5403886018	-3.4979732768	 0.135697
H	 2.5024078632	-1.603946077	-4.7452084125	 0.134814
H	 2.0088206431	 0.1017493702	-4.6607899872	 0.132512
H	-0.1757945021	-2.5955362672	-1.2210587816	 0.095932
H	 2.5764949837	-2.3380413889	 0.1117399912	 0.127281
H	 1.0388527278	-2.5702369119	 0.9681086751	 0.145417
H	 1.6585404863	-3.8451849321	-0.1126222184	 0.123047
52.23	93.5983	103.8473	172.0429	190.748	207.1402	219.5619	279.6591	342.8351	441.5789	486.6376	522.8913	599.8884	699.6047	723.8083	793.2938	879.0099	911.4014	947.2631	1028.7356	1070.5871	1079.8053	1123.6888	1135.0842	1138.723	1145.6371	1170.5839	1175.9847	1236.7431	1326.2271	1361.1307	1386.3683	1398.5592	1404.414	1435.1783	1442.2487	1482.4756	1484.1414	1486.8365	1494.4984	1495.651	1497.3423	1820.2881	2953.1214	2962.5887	3017.2281	3053.2081	3055.6991	3078.3974	3088.0812	3130.2599	3135.9078	3140.9254	3141.8398
CN=C1OC(C)OC1C	CN=C1O[C@@H](C)O[C@H]1C	
InChI=1S/C6H11NO2/c1-4-6(7-3)9-5(2)8-4/h4-5H,1-3H3	InChI=1S/C6H11NO2/c1-4-6(7-3)9-5(2)8-4/h4-5H,1-3H3/t4-,5-/m0/s1
