20
gdb 50662	2.17055	1.59843	1.05536	2.0881	79.81	-0.2429	-0.023	0.2199	1172.6918	0.17202	-403.146634	-403.138195	-403.13725	-403.180516	31.993	
O	-0.1022924962	-0.0278278876	 0.0321026235	-0.2634
C	-0.0239172675	 1.1684580645	-0.0881188244	 0.157133
C	 1.2569147657	 1.9666905494	-0.0397028231	-0.135601
C	 1.3862975401	 2.9612018012	-1.2222388351	-0.240061
C	 2.0499623768	 4.212888672	-0.6185679644	-0.213337
C	 1.3963009905	 4.3152462491	 0.7658997144	-0.263669
C	 1.3062108442	 2.8636455818	 1.2276503025	 0.31946
C	 0.6931034127	 2.4551867992	 2.5185773227	-0.302227
N	 2.1580479885	 2.4710161938	 2.3591583114	-0.345509
H	-0.9383192307	 1.7935122148	-0.2265990682	 0.071525
H	 2.089737685	 1.2564461261	-0.0252830501	 0.092179
H	 1.9380062465	 2.5307271727	-2.061187533	 0.112181
H	 0.3860061181	 3.2219795536	-1.5932873913	 0.103951
H	 3.1288633009	 4.0514117881	-0.5113457384	 0.110534
H	 1.9082445449	 5.1042196667	-1.2353263485	 0.100741
H	 1.9561536189	 4.9193788125	 1.482807362	 0.115991
H	 0.3893956836	 4.742224918	 0.6728895592	 0.099503
H	 0.2965991843	 3.2131417797	 3.1894763673	 0.118412
H	 0.1879774846	 1.4942644982	 2.5734348096	 0.129227
H	 2.497920849	 1.5200195861	 2.2320153139	 0.232965
44.2673	70.5424	184.4667	246.0646	297.1901	327.8228	383.8858	430.5176	473.7325	525.1292	578.3015	736.8779	824.8656	853.1742	888.2657	912.7058	920.6877	938.2553	964.4577	984.3828	1010.8976	1026.6148	1063.9672	1098.3407	1121.3251	1136.9007	1171.2395	1192.3614	1232.0131	1263.2203	1272.7217	1294.693	1302.4754	1318.9356	1342.3072	1350.3643	1390.4987	1425.8981	1480.7762	1490.4248	1503.857	1513.2563	1823.3584	2848.0442	3021.2055	3027.4883	3043.9056	3058.9023	3097.3329	3103.1988	3104.5768	3112.5266	3189.8612	3489.1875
O=CC1CCCC11CN1	O=C[C@H]1CCC[C@]21CN2	
InChI=1S/C7H11NO/c9-4-6-2-1-3-7(6)5-8-7/h4,6,8H,1-3,5H2	InChI=1S/C7H11NO/c9-4-6-2-1-3-7(6)5-8-7/h4,6,8H,1-3,5H2/t6-,7-/m1/s1
