16
gdb 93325	2.26208	1.70858	1.12064	4.5185	69.83	-0.2643	0.0019	0.2663	1066.3575	0.126231	-434.088691	-434.080477	-434.079533	-434.121764	30.336	
N	-0.0251486073	 1.3904820878	 0.8094813771	-0.507218
C	 0.0126728339	 0.1464911426	 0.0631118509	-0.010724
C	 0.8391001833	-0.9078364585	 0.8102017578	-0.097651
O	-0.0873654499	-1.5827080109	 1.683094593	-0.243702
C	-1.3659439472	-1.4572917358	 1.2263559304	 0.427983
N	-2.3945576196	-1.9412957374	 1.7637375625	-0.52339
C	-1.3415510331	-0.6326901757	-0.0596737503	-0.282808
C	-2.4972385663	 0.2261756949	-0.2568740372	 0.302945
N	-3.3670259253	 0.9643777525	-0.4386197786	-0.326426
H	-0.6573691659	 2.0522115308	 0.3682833249	 0.253831
H	-0.3759923998	 1.2381775364	 1.7516481281	 0.243684
H	 0.4271613314	 0.3500316598	-0.9270288067	 0.110679
H	 1.2858672915	-1.6391236901	 0.1273368664	 0.122
H	 1.6189735875	-0.4567999206	 1.4251713417	 0.143145
H	-2.1571199992	-2.4679589864	 2.6058775476	 0.234168
H	-1.2783169641	-1.3340994294	-0.9024004176	 0.153485
75.5748	140.8303	154.3288	178.9166	300.5384	362.0254	382.1032	423.9997	502.5543	527.7223	608.3196	696.1262	754.9835	820.4196	872.9178	896.3117	903.1891	940.0358	979.3629	1037.9571	1047.1368	1093.1982	1128.0359	1196.8372	1222.1888	1248.4917	1258.7201	1319.0446	1340.4194	1399.1854	1425.9709	1514.7437	1666.2684	1786.5331	2367.1072	3029.5453	3044.9741	3089.4382	3131.3765	3481.3965	3490.4481	3569.7814
NC1COC(=N)C1C#N	N[C@H]1CO[C]([NH])[C@H]1C#N	
InChI=1S/C5H7N3O/c6-1-3-4(7)2-9-5(3)8/h3-4,8H,2,7H2	InChI=1S/C5H7N3O/c6-1-3-4(7)2-9-5(3)8/h3-4,8H,2,7H2/t3-,4-/m0/s1
