19
gdb 88004	2.92688	1.31003	1.13245	1.6907	76.29	-0.2312	0.0695	0.3007	1162.0767	0.157254	-422.966564	-422.957867	-422.956923	-423.000017	32.684	
C	-0.0844367839	 1.4712860228	-0.0948046827	-0.40269
C	 0.0763977919	-0.0324046997	-0.0530051905	-0.088943
C	 1.4668054021	-0.6566873061	-0.0418313264	-0.358694
C	 0.6093737669	-0.6876404831	 1.1811044248	 0.382587
O	 0.9276529257	 0.0416091095	 2.3742279396	-0.32301
C	 0.5511859333	-1.0768921637	 3.2162418298	-0.152409
C	 0.1351152069	-1.8726894171	 1.9817701	 0.289841
C	-0.9148740646	-2.8608852098	 1.7566002834	-0.262623
O	 0.4806870279	-3.2152320998	 1.7248939372	-0.261626
H	 0.6649798104	 1.9606773325	 0.5331337434	 0.134263
H	 0.0225258749	 1.8505510898	-1.1164963167	 0.117027
H	-1.0700490162	 1.7720541701	 0.2759710169	 0.118775
H	-0.6878551918	-0.5931269516	-0.5878272336	 0.085094
H	 1.63481918	-1.5917214715	-0.5662244578	 0.124463
H	 2.3151006074	 0.0203884978	-0.0214620872	 0.123349
H	 1.4078559879	-1.4971715276	 3.7552530662	 0.120503
H	-0.2429546329	-0.8094610624	 3.9218454846	 0.112429
H	-1.4779151326	-3.2574001775	 2.600624743	 0.120628
H	-1.4266412733	-2.9011252927	 0.7960691159	 0.121037
81.2665	121.6129	151.7099	180.9186	237.1771	285.142	334.7489	421.4204	450.1913	545.4539	575.3863	613.7063	795.5429	843.1545	868.9497	888.8681	890.6074	921.9945	964.2912	988.4522	1007.7384	1036.4843	1083.4194	1103.4025	1119.9819	1123.5814	1146.0914	1148.2458	1167.8597	1183.477	1227.4975	1295.5001	1328.6631	1402.4257	1417.2505	1459.0684	1483.2224	1491.6959	1502.2124	1515.1443	1552.4253	3028.8257	3034.5572	3080.1767	3081.8346	3095.2496	3110.5302	3125.7015	3128.0518	3168.7899	3216.9754
CC1CC11OCC11CO1	C[C@H]1C[C@]21OC[C@]12CO1	
InChI=1S/C7H10O2/c1-5-2-7(5)6(3-8-6)4-9-7/h5H,2-4H2,1H3	InChI=1S/C7H10O2/c1-5-2-7(5)6(3-8-6)4-9-7/h5H,2-4H2,1H3/t5-,6-,7+/m0/s1
