21
gdb 90321	2.41365	1.69915	1.21419	1.3697	84.69	-0.2299	0.0196	0.2495	1099.4273	0.183471	-387.071908	-387.063544	-387.0626	-387.104648	33.437	
C	-0.3475585117	 1.4846529893	-0.0285902641	-0.397805
C	-0.0143285676	-0.0024756585	-0.0688084146	-0.010997
C	 1.3392881251	-0.3176863421	-0.828028372	-0.346903
C	 1.9483848856	-0.502345105	 0.5406604056	 0.335387
C	 2.9333176569	-0.168578563	 1.3694521493	-0.271713
C	 2.4147341185	-0.2467528924	 2.8025445822	-0.272128
C	 0.8558412164	-0.127975584	 2.6563889496	 0.082482
O	 0.4069829334	 1.1971754278	 2.8830987175	-0.422499
C	 0.6237608097	-0.6794451982	 1.2189712189	-0.070096
H	 0.5360755186	 2.088000362	 0.211933924	 0.100018
H	-0.6963540262	 1.8140689197	-1.0135689402	 0.110729
H	-1.1220691178	 1.7088442746	 0.7079545136	 0.136085
H	-0.8749104166	-0.55790383	-0.4517857735	 0.073156
H	 1.2757612877	-1.2467119416	-1.4040306126	 0.110089
H	 1.7495603935	 0.4665112558	-1.4711124182	 0.106726
H	 3.933572319	 0.1617268915	 1.1137203628	 0.090489
H	 2.6920392603	-1.1921450039	 3.2892781662	 0.106368
H	 2.7900402154	 0.5572640728	 3.4459889223	 0.104619
H	 0.3354980737	-0.724847438	 3.4104320123	 0.082176
H	 0.9047729162	 1.779671068	 2.2998184763	 0.279256
H	 0.2909961401	-1.7238144347	 1.2698319748	 0.07456
59.9757	196.8217	210.2153	289.211	293.6815	330.0945	368.776	379.314	416.1175	528.1944	655.0236	713.2616	730.6483	777.3654	804.9467	824.6819	850.901	892.4619	920.8476	942.4705	967.1735	996.5541	1043.471	1053.2754	1082.9022	1100.1731	1131.7655	1149.2448	1172.5125	1203.2096	1225.2613	1228.7865	1261.3818	1273.4869	1293.6516	1318.1404	1344.7573	1362.8722	1410.5622	1437.5887	1476.4799	1479.3781	1489.8091	1508.4514	1731.6207	3010.8459	3018.0795	3024.9043	3042.8111	3059.6437	3062.9419	3077.1809	3084.3429	3094.2108	3125.5433	3195.5677	3810.7903
CC1CC2=CCC(O)C12	C[C@H]1C[C]2[CH]C[C@@H](O)[C@@H]12	
InChI=1S/C8H12O/c1-5-4-6-2-3-7(9)8(5)6/h2,5,7-9H,3-4H2,1H3	InChI=1S/C8H12O/c1-5-4-6-2-3-7(9)8(5)6/h2,5,7-9H,3-4H2,1H3/t5-,7+,8-/m0/s1
