16
gdb 36472	2.95292	1.09072	0.85502	2.7614	75.26	-0.2647	0.0067	0.2714	1305.6293	0.122874	-400.704534	-400.695627	-400.694683	-400.739356	31.478	
C	 0.0768531812	-1.2001264594	-0.135368441	-0.408371
C	 0.0222478007	-0.00023347	-0.1279366887	 0.289452
C	-0.0221052458	 1.4554479643	-0.1018515601	-0.385322
C	 1.3571461073	 2.0625908497	 0.1562669885	 0.137991
O	 2.2721175869	 1.8730902408	-0.9390904368	-0.270679
C	 2.4486954161	 3.2849272834	-1.1334818371	-0.073469
C	 1.5000657315	 3.616976118	 0.0514355498	-0.244706
C	 0.3099081388	 4.3900865875	-0.2526518166	 0.290947
N	-0.640008945	 5.0000024737	-0.5031965581	-0.327666
H	 0.1182614371	-2.2610154589	-0.1523784155	 0.19988
H	-0.415982402	 1.8433394135	-1.0484498066	 0.150597
H	-0.7055471202	 1.7988383799	 0.6861900618	 0.145761
H	 1.7713248459	 1.6613799725	 1.0883379713	 0.104262
H	 3.4868640029	 3.60066206	-0.9857686837	 0.12192
H	 2.0992647601	 3.6196494622	-2.1155726963	 0.130647
H	 2.0068889246	 4.0589637827	 0.9110022092	 0.138759
49.1985	70.004	95.8365	155.9736	223.1274	318.1714	342.5437	381.4595	505.5099	520.6797	586.1183	625.6039	651.5958	754.3314	826.1841	885.5771	896.9818	974.1506	1007.565	1035.9485	1063.1317	1089.5744	1129.7558	1166.1124	1196.806	1235.1857	1269.0287	1319.0477	1348.2989	1367.6159	1396.1143	1452.6357	1527.271	2244.6503	2355.1408	3025.9061	3034.9189	3041.3562	3071.4871	3084.6564	3103.4697	3506.8953
C#CCC1OCC1C#N	C#CC[C@H]1OC[C@H]1C#N	
InChI=1S/C7H7NO/c1-2-3-7-6(4-8)5-9-7/h1,6-7H,3,5H2	InChI=1S/C7H7NO/c1-2-3-7-6(4-8)5-9-7/h1,6-7H,3,5H2/t6-,7-/m1/s1
