21
gdb 70594	2.08011	1.8497	1.46197	1.2678	77.42	-0.2468	0.0664	0.3132	1037.6253	0.181185	-424.225282	-424.216218	-424.215273	-424.258007	35.989	
C	 0.044146907	 1.5367852248	-0.0732861508	-0.430686
C	-0.016796335	 0.0145863547	 0.0247078046	 0.30219
C	-1.4678190142	-0.4851115322	-0.0095885594	-0.411415
O	 0.7246836336	-0.5095108251	-1.091771699	-0.297079
C	 1.2467368313	-1.7941252001	-0.7519589013	-0.10658
C	 1.5072462258	-1.740840323	 0.7397266664	-0.104902
C	 2.2233638267	-0.4970480578	 1.2291832712	-0.362978
C	 0.7182302348	-0.5672762968	 1.2440750533	 0.375187
O	 0.0327084035	-0.6481052517	 2.4558107662	-0.473121
H	 1.0791231775	 1.8873220494	-0.0600384189	 0.118472
H	-0.4228324511	 1.8792876342	-1.0011563204	 0.124318
H	-0.4927939093	 1.9956242212	 0.7639420632	 0.104854
H	-1.9483913076	-0.1557537166	-0.9350328039	 0.113975
H	-1.5091802322	-1.5772455801	 0.0338472897	 0.116443
H	-2.034710735	-0.1012432753	 0.8420255035	 0.116568
H	 0.5324606023	-2.5973524837	-0.9904321668	 0.094559
H	 2.1450899899	-1.9457624279	-1.3601090872	 0.105973
H	 1.5743576957	-2.655581837	 1.3157823812	 0.097469
H	 2.7084742652	-0.5749819403	 2.1960187365	 0.111035
H	 2.7255643866	 0.135210357	 0.5039606948	 0.12044
H	 0.1102105147	 0.2040096465	 2.8984016971	 0.285275
142.2409	185.372	218.082	226.272	259.3272	283.1163	304.7708	344.7959	380.2136	418.2115	457.015	502.8183	593.2526	638.7415	696.041	809.8359	855.8828	866.7888	922.6718	937.0778	942.3514	963.2587	1007.8534	1015.9896	1053.0719	1080.0141	1092.1929	1116.2196	1167.2937	1203.4425	1220.5281	1236.6157	1253.9323	1324.4696	1332.7176	1369.7283	1393.1975	1400.2807	1413.6019	1473.1515	1478.5382	1479.0915	1496.9506	1504.661	1521.8849	2983.7807	3038.4246	3046.7584	3062.3316	3107.437	3117.0525	3122.783	3127.6158	3128.675	3191.879	3221.3762	3799.1694
CC1(C)OCC2CC12O	CC1(C)OC[C@H]2C[C@@]12O	
InChI=1S/C7H12O2/c1-6(2)7(8)3-5(7)4-9-6/h5,8H,3-4H2,1-2H3	InChI=1S/C7H12O2/c1-6(2)7(8)3-5(7)4-9-6/h5,8H,3-4H2,1-2H3/t5-,7+/m1/s1
