14
gdb 24391	3.80356	1.69286	1.17991	3.5871	67.35	-0.2074	0.0029	0.2102	951.8765	0.1051	-432.904781	-432.898365	-432.897421	-432.935699	24.913	
C	-0.0111738207	 1.4983519112	-0.0526830259	-0.275155
N	 1.3628849378	 1.9979744004	 0.1216214832	-0.246884
C	 2.3491721598	 1.235338047	 0.2702501273	 0.110632
O	 2.388496978	-0.1559486839	 0.3047094772	-0.252146
C	 1.1417212111	-0.6710465946	 0.1478213982	 0.396483
C	-0.0236681833	 0.0039771345	-0.0230583109	 0.161874
N	-1.0622604361	-0.8939873473	-0.1439487524	-0.323129
C	-0.5110405512	-2.0810700716	-0.0448769314	-0.006663
N	 0.8522319797	-2.0070533382	 0.1368598472	-0.371234
H	-0.6326955571	 1.9407176394	 0.7372795271	 0.130131
H	-0.3995929987	 1.9044033065	-0.9962236151	 0.130132
H	 3.3588935022	 1.6137968224	 0.3981065873	 0.135629
H	-1.0250200475	-3.0284275122	-0.0941243523	 0.134821
H	 1.5037153761	-2.7667886335	 0.2403350005	 0.27551
100.3223	237.5254	314.2305	411.3096	470.1205	488.5425	519.6716	634.8296	664.4858	697.4457	744.3696	773.8578	865.9538	932.2076	937.4511	960.1734	1033.7822	1049.3524	1088.9664	1165.5752	1232.966	1259.9751	1286.3336	1377.678	1390.1547	1398.7163	1478.4373	1501.3718	1537.8616	1667.5394	1753.4122	3011.1763	3026.4187	3190.9742	3261.3072	3669.0444
C1N=COC2=C1N=CN2	C1N=COc2c1nc[nH]2	
InChI=1S/C5H5N3O/c1-4-5(8-2-7-4)9-3-6-1/h2-3H,1H2,(H,7,8)	InChI=1S/C5H5N3O/c1-4-5(8-2-7-4)9-3-6-1/h2-3H,1H2,(H,7,8)
