20
gdb 122658	5.37156	0.67683	0.63182	0.9146	77.02	-0.2493	0.0201	0.2694	1772.4495	0.171108	-440.286543	-440.277112	-440.276168	-440.322355	32.674	
C	-0.0904049073	 1.3597245098	 0.0261131745	-0.227008
O	-0.0222386734	-0.0444766758	-0.0046215154	-0.233083
C	 0.6322553522	-0.5355966198	-1.155716057	-0.052148
C	 0.6118787877	-2.0572474473	-1.0991946452	-0.209719
C	 1.3548607575	-2.7099190409	-2.2671340849	 0.006116
C	 1.3275338561	-4.263957241	-2.2298632638	-0.125295
O	 0.7426195469	-4.6424741173	-3.5002422273	-0.220236
C	 0.4514257155	-3.4751033332	-4.1198782249	 0.125119
N	 0.7340898011	-2.3715662163	-3.5679922011	-0.270893
H	 0.9114149404	 1.8191900676	 0.0326762634	 0.100694
H	-0.6430207056	 1.7627050265	-0.8376498557	 0.104036
H	-0.6132829224	 1.6435807096	 0.94296662	 0.123981
H	 0.1343277476	-0.1834493	-2.0714908944	 0.112111
H	 1.6734171389	-0.1673483582	-1.1913501854	 0.078982
H	 1.0666452676	-2.3812918907	-0.1549872456	 0.105472
H	-0.4287493446	-2.4023934611	-1.0909099302	 0.109598
H	 2.3879412761	-2.339958458	-2.2804893288	 0.089379
H	 2.3170306086	-4.7220381273	-2.1612847168	 0.121202
H	 0.6924186073	-4.6603547619	-1.4313035629	 0.119525
H	-0.0215316804	-3.5924233446	-5.0889286086	 0.142168
50.1912	72.0753	86.487	115.5464	150.8668	232.0909	284.759	300.8981	392.848	479.1214	592.9921	727.5719	799.4526	860.2886	881.3232	954.9954	964.3075	966.7753	982.7016	1021.2568	1083.0287	1097.7387	1134.3607	1149.8985	1166.6446	1184.12	1218.8704	1227.6275	1241.5977	1292.3445	1307.0583	1316.6174	1327.0062	1374.3677	1385.3067	1427.3633	1481.9514	1484.8449	1486.3423	1505.8827	1518.9871	1533.3702	1708.2197	2943.7452	2967.2851	3007.9639	3010.9049	3018.3717	3031.3047	3051.5129	3078.0475	3104.7764	3110.2981	3213.3501
COCCC1COC=N1	COCC[C@H]1COC=N1	
InChI=1S/C6H11NO2/c1-8-3-2-6-4-9-5-7-6/h5-6H,2-4H2,1H3	InChI=1S/C6H11NO2/c1-8-3-2-6-4-9-5-7-6/h5-6H,2-4H2,1H3/t6-/m0/s1
