19
gdb 66851	2.58902	2.05328	1.82254	1.5245	76.9	-0.2225	0.0907	0.3133	884.6289	0.161205	-385.84745	-385.840752	-385.839807	-385.877991	28.538	
C	-0.0237687402	 1.51469543	 0.0109951133	-0.526212
C	 0.0260294558	 0.0106952583	-0.0340250227	 0.34872
C	 0.7093662708	-0.7619404073	-1.1834953674	-0.192753
C	 0.9627041699	-2.0543452968	-0.4917702618	 0.105009
O	 1.1732009409	-1.9090763316	 0.890526774	-0.261761
C	 0.3560418949	-0.818799615	 1.2920992435	 0.032569
C	-1.1299235115	-1.2614502241	 1.3695354279	-0.25238
C	-1.236451721	-0.9103225635	-0.1303960944	-0.089394
C	-0.4157285156	-1.817560808	-1.0755551188	-0.129294
H	 0.9787788874	 1.9397989899	 0.1401238582	 0.122319
H	-0.4439224006	 1.9257482126	-0.9134272143	 0.120846
H	-0.6434366061	 1.8688258044	 0.8426043198	 0.118355
H	 1.2546317522	-0.3602579452	-2.0282507134	 0.085746
H	 1.5850192432	-2.8251487609	-0.9293618578	 0.10375
H	 0.818126525	-0.3312791047	 2.1532103587	 0.071607
H	-1.3038127167	-2.2909040672	 1.6915639135	 0.09979
H	-1.7268836709	-0.5774567302	 1.9809091377	 0.096083
H	-2.1726412136	-0.5432265379	-0.5547569918	 0.063878
H	-0.823164264	-2.4679603528	-1.8414953442	 0.083121
219.1271	222.7463	248.0678	347.4234	425.6818	521.2765	588.111	640.4623	684.5932	715.7061	743.7527	798.7473	850.5582	859.3482	883.4062	905.4774	918.6965	948.715	968.7762	989.345	1021.8824	1042.1509	1059.5767	1095.3149	1112.392	1115.7143	1150.8567	1169.1775	1181.976	1190.784	1226.7112	1251.6429	1283.1476	1308.3199	1334.3844	1363.2268	1409.5961	1414.0091	1472.5963	1489.9592	1494.3676	3020.8284	3049.9483	3083.8977	3086.422	3090.4564	3091.7299	3111.7984	3168.1788	3187.2074	3202.4675
CC12C3C4OC1CC2C34	C[C@@]12[C@H]3[C@H]4O[C@@H]1C[C@@H]2[C@@H]34	
InChI=1S/C8H10O/c1-8-3-2-4(8)9-7-5(3)6(7)8/h3-7H,2H2,1H3	InChI=1S/C8H10O/c1-8-3-2-4(8)9-7-5(3)6(7)8/h3-7H,2H2,1H3/t3-,4-,5+,6-,7+,8+/m1/s1
