19
gdb 102126	2.36307	1.15307	0.82842	3.9134	71.42	-0.2448	-0.0274	0.2173	1366.1325	0.157128	-460.135688	-460.125923	-460.124979	-460.171562	33.602	
O	 0.0634347927	 1.4179420221	 0.2041662997	-0.419211
C	 0.0615116799	 0.0121097828	 0.0169311256	-0.101354
C	-1.4007099767	-0.4586124758	 0.0183696422	-0.111891
C	-2.1418692055	 0.1329836519	-1.1695206048	 0.149149
O	-2.8586321625	-0.5041898182	-1.9019445363	-0.249584
C	-1.5293332097	-1.9750324879	 0.0645378947	-0.024573
C	-1.1603408566	-2.6977563156	 1.3809694761	-0.099567
O	-2.4649035256	-3.2965288175	 1.4734217527	-0.273456
C	-2.9315637345	-2.5713572658	 0.3136712281	-0.08468
H	 0.9647715302	 1.7393299268	 0.1087938733	 0.294228
H	 0.5427055691	-0.2699431889	-0.9333772988	 0.100002
H	 0.6057695718	-0.5010205749	 0.824686209	 0.103574
H	-1.8599734367	-0.0155497488	 0.9168489173	 0.113515
H	-1.9735291742	 1.2181823871	-1.3258898368	 0.106212
H	-1.0462635067	-2.4146641853	-0.8119273511	 0.087845
H	-0.3638738731	-3.4494441013	 1.3221698264	 0.101807
H	-0.9523579249	-2.0305978016	 2.2308470523	 0.093687
H	-3.7061410343	-1.8385965093	 0.5736658099	 0.100202
H	-3.3204705426	-3.2359714898	-0.4634991493	 0.114098
59.8372	82.8059	91.3089	119.6887	142.7186	197.7233	252.947	295.4926	336.1553	389.6986	481.8227	635.1574	757.0841	851.0767	894.6288	915.6601	930.4523	981.3853	996.8188	1040.1343	1059.5221	1075.1687	1105.6497	1136.8892	1155.2149	1164.0631	1183.2458	1231.6802	1250.7536	1258.6702	1295.5521	1308.3777	1325.5963	1369.4691	1400.7829	1420.1329	1451.9662	1512.295	1524.8373	1536.7025	1816.8517	2930.0411	2969.2888	2987.3379	2990.0798	3005.5678	3020.6915	3041.476	3071.0045	3086.9552	3832.8239
OCC(C=O)C1COC1	OC[C@@H](C=O)C1COC1	
InChI=1S/C6H10O3/c7-1-5(2-8)6-3-9-4-6/h1,5-6,8H,2-4H2	InChI=1S/C6H10O3/c7-1-5(2-8)6-3-9-4-6/h1,5-6,8H,2-4H2/t5-/m1/s1
