20
gdb 65088	3.16723	1.33063	1.19725	2.9373	78.63	-0.2253	0.062	0.2874	1117.2417	0.170655	-403.044049	-403.035616	-403.034672	-403.077544	32.724	
O	-0.1173059946	 1.2785221018	 0.4937289004	-0.476334
C	 0.0246717843	-0.0600249455	 0.0894959393	 0.233431
C	 1.0660580621	-0.443708707	-0.9289369348	-0.332018
C	 1.2207852704	-0.866043949	 0.5237341508	-0.332033
C	-1.3261313845	-0.6973971409	 0.0481256279	 0.355536
C	-2.3529853572	-0.8686666806	 1.1942225816	-0.207582
N	-3.0970639489	-1.5006435365	 0.0033669474	-0.151909
C	-2.5642368567	-0.2924059137	-0.7887584278	-0.207591
C	-1.7351092151	-2.1392377083	-0.3273055807	-0.223846
H	 0.7519493917	 1.6900263423	 0.5209956329	 0.281772
H	 0.8266045736	-1.2018205021	-1.6671250694	 0.118388
H	 1.7181189607	 0.342281951	-1.2979021257	 0.109093
H	 1.9755188168	-0.3603193564	 1.1184738998	 0.109094
H	 1.0868460051	-1.9124266121	 0.7769887869	 0.118391
H	-2.1216041418	-1.581808831	 1.990594887	 0.095847
H	-2.8362316356	 0.0289398203	 1.586397293	 0.107996
H	-3.0630070067	 0.6475529325	-0.5423186548	 0.107997
H	-2.5327875113	-0.4601730667	-1.869120066	 0.095848
H	-1.6435888918	-2.448270601	-1.372726528	 0.09896
H	-1.4596590804	-2.9499198871	 0.3536497602	 0.098959
43.6224	129.5136	157.9195	170.3816	297.3661	340.5263	417.7253	510.8748	514.4638	595.3641	599.4009	758.0235	789.8093	796.884	823.4109	873.9771	900.5872	936.22	940.9534	974.0588	982.7232	1002.0068	1007.5757	1022.7338	1051.8511	1062.3593	1123.1107	1152.1836	1156.0372	1166.1866	1172.0152	1186.8367	1194.5316	1198.5936	1254.8059	1296.7277	1310.5614	1459.2592	1461.7151	1498.1986	1507.7111	1511.8798	1565.1899	3040.3441	3050.0843	3057.9678	3106.7978	3121.4269	3122.3861	3125.5694	3126.0364	3200.9766	3215.8484	3825.5771
OC1(CC1)C12CN(C1)C2	OC1(CC1)[C@@]12CN(C1)C2	
InChI=1S/C7H11NO/c9-7(1-2-7)6-3-8(4-6)5-6/h9H,1-5H2	InChI=1S/C7H11NO/c9-7(1-2-7)6-3-8(4-6)5-6/h9H,1-5H2
