18
gdb 65997	2.28475	1.55706	1.39522	5.0454	71.95	-0.2387	0.0208	0.2595	1035.188	0.148698	-435.244166	-435.235384	-435.23444	-435.277726	32.718	
N	 0.2012297075	 1.5989237055	-0.7547212233	-0.547775
C	-0.0167602141	 0.2471901522	-0.2898484886	 0.117532
C	 0.9032169552	-0.9243270469	-0.8313759023	-0.210401
N	 1.4405280087	-1.0296793102	 0.5276538139	-0.325733
C	 0.6582723678	-0.0538258442	 1.0857702002	 0.402796
O	 0.5342278105	 0.3670629049	 2.2069980687	-0.370887
C	-1.4980379631	-0.063072699	-0.3197082857	-0.019045
C	-2.1474542427	-0.934422678	 0.6930502772	-0.252807
N	-2.3906887321	 0.5170778133	 0.6866780983	-0.314503
H	 1.1891335783	 1.8140287051	-0.8415092761	 0.233041
H	-0.2331982312	 1.7484963387	-1.6600829613	 0.232654
H	 0.3722284712	-1.8178839959	-1.1750045163	 0.113858
H	 1.6389773406	-0.6137236976	-1.5804759079	 0.103323
H	 2.0386616664	-1.7184155572	 0.9593648389	 0.253456
H	-1.9150436282	-0.0573237143	-1.3285764846	 0.08693
H	-2.9979117979	-1.5460168469	 0.4045606895	 0.113291
H	-1.5389087047	-1.3510737928	 1.4901300271	 0.127575
H	-1.8252415221	 0.9547008434	 1.4130659523	 0.256695
69.0695	112.6178	150.7087	215.7105	231.2007	296.6293	326.8625	370.4642	458.1017	493.2537	545.6486	691.0012	743.6905	766.1192	809.3486	845.3879	877.2725	927.7513	944.9164	977.3066	996.2031	1015.1985	1069.4694	1119.9393	1153.7695	1155.3114	1177.1156	1211.4524	1224.1332	1271.3199	1279.4433	1319.8544	1360.7634	1388.2915	1416.6432	1512.2336	1520.8173	1655.7272	1878.9597	3034.0382	3081.6873	3086.7662	3113.2027	3198.0264	3486.5886	3495.2891	3582.4886	3612.9666
NC1(CNC1=O)C1CN1	N[C@]1(CNC1=O)[C@H]1CN1	
InChI=1S/C5H9N3O/c6-5(3-1-7-3)2-8-4(5)9/h3,7H,1-2,6H2,(H,8,9)	InChI=1S/C5H9N3O/c6-5(3-1-7-3)2-8-4(5)9/h3,7H,1-2,6H2,(H,8,9)/t3-,5-/m1/s1
