21
gdb 114692	3.88566	1.01541	0.91893	1.9666	78.8	-0.2342	0.0761	0.3102	1355.1477	0.181691	-424.216054	-424.206969	-424.206025	-424.249899	34.96	
C	 0.1205321169	 1.5196189961	-0.1727140959	-0.383729
C	 0.0796713253	-0.0068305011	-0.0619711701	-0.187264
C	 0.693634192	-0.5336518073	 1.2265820431	 0.164984
C	 0.6876875215	-2.0708209823	 1.392320046	-0.337964
C	 1.9937103653	-2.3462334111	 2.1454230351	 0.363988
O	 1.9487811835	-3.0532388537	 3.3468215047	-0.468967
C	 3.2759890452	-2.3137926525	 1.3391554585	-0.364684
C	 2.7762679365	-1.0760271178	 2.0592375968	 0.052251
O	 2.0821945953	-0.1452833811	 1.2781977567	-0.278519
H	 1.1509183314	 1.8805921261	-0.12310634	 0.13773
H	-0.3181481372	 1.8582407559	-1.1161830586	 0.108322
H	-0.4391359684	 1.989579266	 0.64370441	 0.111789
H	-0.9574753331	-0.3619711714	-0.1143711162	 0.095239
H	 0.6131094681	-0.4603644603	-0.9069132275	 0.097424
H	 0.1789996091	-0.0804299456	 2.0899888532	 0.070686
H	-0.1624967609	-2.4109072966	 1.9883649987	 0.110464
H	 0.6506025048	-2.5746092465	 0.4193772622	 0.096388
H	 1.9780071742	-3.9936882925	 3.1396779635	 0.282952
H	 4.1330418924	-2.8154006821	 1.777541715	 0.111352
H	 3.2214023826	-2.3250905946	 0.2554541076	 0.113166
H	 3.3269563454	-0.6717248075	 2.9025954469	 0.104393
59.991	110.0657	176.2572	228.4998	235.4848	299.7768	328.9004	388.8365	422.1276	447.267	462.6239	593.0896	632.9198	749.0368	772.1169	842.8928	870.3422	914.1701	927.3368	965.5424	974.6783	998.3033	1015.3846	1025.8687	1058.6853	1078.5109	1122.651	1140.8571	1152.1051	1198.4797	1251.7682	1264.1865	1285.5893	1299.9368	1324.5279	1339.0597	1373.4409	1405.9297	1408.3956	1412.6117	1471.6367	1474.201	1490.6667	1497.0231	1508.9874	2962.8226	3021.8871	3035.541	3037.0374	3060.1549	3101.301	3105.8359	3123.4504	3124.7549	3163.7545	3221.0478	3794.748
CCC1CC2(O)CC2O1	CC[C@H]1C[C@@]2(O)C[C@H]2O1	
InChI=1S/C7H12O2/c1-2-5-3-7(8)4-6(7)9-5/h5-6,8H,2-4H2,1H3	InChI=1S/C7H12O2/c1-2-5-3-7(8)4-6(7)9-5/h5-6,8H,2-4H2,1H3/t5-,6+,7+/m0/s1
