15
gdb 9861	5.57538	0.93774	0.86155	5.7128	82.06	-0.2636	-0.0362	0.2274	1304.5891	0.118245	-325.510396	-325.502255	-325.50131	-325.5432	29.341	
C	-0.0450419891	 1.5133272113	 0.0030314873	-0.458557
C	 0.0046483378	-0.0087800074	-0.0030986381	 0.134838
C	 1.3495606929	-0.6968605241	-0.2260409463	-0.282724
C	 0.7285707534	-0.7226319814	 1.1363177082	-0.282719
C	-1.1524508363	-0.6551430939	-0.5427200756	 0.083662
C	-2.1416977783	-1.1794243455	-1.0034775673	 0.020195
C	-3.251423688	-1.7797968157	-1.520542832	 0.193239
N	-4.1972959983	-2.2922368879	-1.9612800889	-0.342525
H	 0.8770581266	 1.9169640348	 0.4309723594	 0.123494
H	-0.1520214341	 1.9063400412	-1.0122200928	 0.138063
H	-0.8869229696	 1.8758442444	 0.6000684354	 0.138063
H	 1.3557985032	-1.6125681276	-0.8046075113	 0.137797
H	 2.1963158183	-0.0421867984	-0.4001987036	 0.129688
H	 1.1432477097	-0.0858562888	 1.9099325814	 0.129688
H	 0.3091790317	-1.6560176808	 1.491563214	 0.137796
82.6394	100.0502	208.8688	225.5202	250.7192	299.3266	334.4917	512.3263	527.9158	554.3884	587.292	592.0007	786.4467	822.1337	831.0327	943.5	955.9616	1049.9305	1070.8723	1083.8755	1088.867	1118.6737	1195.1816	1286.7592	1355.8449	1413.7975	1465.1072	1486.3811	1495.3446	1502.186	2258.5432	2388.3631	3040.8644	3114.4287	3117.0886	3141.4572	3145.1604	3227.9753	3242.0317
CC1(CC1)C#CC#N	CC1(CC1)C#CC#N	
InChI=1S/C7H7N/c1-7(4-5-7)3-2-6-8/h4-5H2,1H3	InChI=1S/C7H7N/c1-7(4-5-7)3-2-6-8/h4-5H2,1H3
