17
gdb 105441	2.42169	1.48034	1.1783	2.2654	74.63	-0.2277	0.0224	0.25	1088.9029	0.1361	-417.974686	-417.966104	-417.96516	-418.007843	32.463	
O	-0.0369040892	 1.416602784	 0.1269178192	-0.424945
C	-0.0591715807	 0.0026696085	 0.098629413	-0.101871
C	-1.5024714569	-0.5433169007	-0.0197405539	 0.04344
C	-1.5532669503	-2.0875511387	 0.2546469202	-0.208149
N	-1.9613209272	-2.2334740882	 1.6591929711	-0.246209
C	-2.3414947289	-1.0757618846	 2.0381257	 0.060578
N	-2.3168977353	-0.047388018	 1.1079945778	-0.305293
C	-2.054909419	-0.1444444647	-1.3129121131	 0.278319
C	-2.4421792722	 0.2084186108	-2.3957125445	-0.433704
H	-0.3717325643	 1.723803538	-0.7247122895	 0.291294
H	 0.551542773	-0.4057998911	-0.7192788643	 0.103807
H	 0.3653090121	-0.3341875852	 1.0495058922	 0.124127
H	-2.2838183887	-2.576306761	-0.3986275445	 0.125111
H	-0.5815802218	-2.5605455168	 0.0760634927	 0.115437
H	-2.7225209448	-0.8698870243	 3.0346608034	 0.127301
H	-2.0947058953	 0.8911307223	 1.4158978114	 0.249403
H	-2.8168949405	 0.4983940198	-3.3465887411	 0.201354
99.4704	112.4309	165.2013	180.0476	246.2896	362.9074	402.8341	456.1487	490.1112	522.0982	536.298	616.1914	641.3033	651.2203	707.3389	815.6477	879.0696	914.054	932.2978	957.8057	981.0117	1073.5125	1095.2282	1122.7926	1128.1571	1135.5076	1228.4289	1273.1166	1320.6643	1342.1083	1371.4383	1406.1131	1418.4339	1493.0655	1495.1778	1692.025	2229.1518	3003.6126	3040.4481	3076.8166	3089.2283	3182.3663	3498.1639	3575.5553	3780.1699
OCC1(CN=CN1)C#C	OC[C@]1(C[N][CH]N1)C#C	
InChI=1S/C6H8N2O/c1-2-6(4-9)3-7-5-8-6/h1,5,9H,3-4H2,(H,7,8)	InChI=1S/C6H8N2O/c1-2-6(4-9)3-7-5-8-6/h1,5,9H,3-4H2,(H,7,8)/t6-/m1/s1
