15
gdb 34011	3.56505	1.37449	1.17612	5.0253	70.6	-0.258	-0.0096	0.2484	1027.1517	0.114478	-416.814588	-416.807315	-416.806371	-416.846434	27.5	
N	 0.1914431163	-1.1596769415	-0.1806964452	-0.343112
C	 0.097475467	-0.0171565079	-0.0316433761	 0.249563
C	 0.0268947209	 1.4162768494	 0.1305034344	 0.193763
C	 0.2557216334	 2.2774037554	-1.1155847108	-0.31153
C	 1.3033028431	 2.2259341792	-0.0493117909	-0.09467
C	 1.4795953986	 3.3517680519	 0.9428010037	-0.102133
O	 0.2361911068	 3.8700819521	 1.4444475317	-0.223668
C	-0.777653533	 2.9921761943	 1.6185981865	 0.112508
N	-0.9493518072	 1.8567287127	 1.0836791873	-0.307513
H	 0.4512312424	 1.7639023786	-2.0493507065	 0.147708
H	-0.378756163	 3.1536043499	-1.1915419517	 0.146123
H	 2.2142251291	 1.6781403369	-0.2680985388	 0.126575
H	 2.0700568467	 2.9963930747	 1.7963938428	 0.131631
H	 1.994996001	 4.2086492814	 0.5003617397	 0.134338
H	-1.521195802	 3.3966862428	 2.3010545639	 0.140418
110.0132	153.763	180.2174	284.6836	352.053	422.4979	523.1325	559.7326	583.8825	640.7495	663.454	782.7722	853.6593	897.4775	898.4903	935.8975	959.051	989.1822	1060.6961	1070.8076	1101.2701	1112.991	1169.4287	1247.8525	1271.9555	1286.1083	1396.2289	1406.2441	1416.7323	1481.8512	1511.0755	1715.7167	2360.348	3031.8201	3090.6734	3143.8037	3168.9533	3175.5353	3239.342
N#CC12CC1COC=N2	N#C[C@]12C[C@H]1COC=N2	
InChI=1S/C6H6N2O/c7-3-6-1-5(6)2-9-4-8-6/h4-5H,1-2H2	InChI=1S/C6H6N2O/c7-3-6-1-5(6)2-9-4-8-6/h4-5H,1-2H2/t5-,6+/m0/s1
