17
gdb 37195	2.82299	2.05064	1.74149	1.4749	69.63	-0.2364	0.0355	0.2719	850.857	0.136982	-421.706746	-421.700261	-421.699317	-421.737134	27.183	
C	 0.0041207041	 1.4408320163	-0.0737930483	-0.296259
C	 1.3525803531	 0.7953571003	 0.0445728871	-0.115888
C	 0.0269822685	-0.0513078464	 0.0902643213	-0.135003
C	 0.4322599537	-0.7123310043	-1.2303151891	 0.324936
C	 0.1707002126	-0.1470588253	-2.6498740613	-0.169476
O	 1.4079280581	 0.6511599703	-2.572614482	-0.345161
C	 1.6906893753	 0.0881759979	-1.2657525358	 0.311674
C	 2.4138215314	-1.272815407	-1.2237270573	-0.147369
O	 1.1258835809	-1.97034424	-1.1494731241	-0.331498
H	-0.3156895246	 1.9824783389	 0.8103176826	 0.121684
H	-0.2964480637	 1.9071447362	-1.0066887007	 0.129921
H	 2.0462331059	 1.0478911643	 0.8383227983	 0.089847
H	-0.4393383565	-0.5519225675	 0.9298125217	 0.101815
H	 0.2220803519	-0.8993503166	-3.4427359362	 0.119135
H	-0.708599696	 0.4896668576	-2.7895311618	 0.112385
H	 2.9616305687	-1.5192652056	-2.1390529129	 0.118411
H	 3.0366117066	-1.4773526291	-0.3462856215	 0.110845
208.5524	272.4565	310.5477	351.1278	374.5694	505.1607	532.6922	668.327	680.905	744.2045	777.9812	847.756	891.7328	900.9954	918.2583	925.0816	945.6086	965.0945	988.554	1010.0859	1049.1615	1099.2948	1125.499	1130.5773	1143.9991	1154.3415	1176.1413	1190.7247	1229.9452	1250.1854	1297.0156	1316.9996	1331.7545	1350.4494	1489.3756	1500.6555	1504.6087	3032.4794	3039.2996	3090.2074	3098.3236	3130.8539	3173.1903	3190.5666	3212.9545
C1C2C1C13COC21CO3	C1[C@H]2[C@@H]1[C@@]13CO[C@@]21CO3	
InChI=1S/C7H8O2/c1-4-5(1)7-3-9-6(4,7)2-8-7/h4-5H,1-3H2	InChI=1S/C7H8O2/c1-4-5(1)7-3-9-6(4,7)2-8-7/h4-5H,1-3H2/t4-,5+,6-,7-/m0/s1
