15
gdb 67533	2.49571	1.89419	1.5406	5.224	63.62	-0.2657	0.0028	0.2685	904.2613	0.111669	-457.730984	-457.72373	-457.722786	-457.762556	27.757	
C	-0.0374257527	 1.5839820236	-0.0082903247	-0.499088
C	 0.0016441149	 0.0761198278	 0.0443917726	 0.071053
C	-1.2058617288	-0.6835703604	 0.6842179871	-0.021527
O	-1.0297147926	-2.0780683155	 0.4554690654	-0.214594
C	-0.3117549279	-1.4876875642	 1.5375322905	-0.00405
C	 0.9355242878	-0.7764193095	 0.9344819516	 0.037737
O	 1.5023480433	-1.428272678	-0.2338813289	-0.253814
C	 0.6826317534	-0.7156562508	-1.0926443082	 0.445863
O	 0.6598354675	-0.7620135297	-2.2772364385	-0.325309
H	 0.9511625626	 2.0004210389	-0.2219995574	 0.139705
H	-0.7199545101	 1.9163632153	-0.7971243228	 0.14818
H	-0.3871435362	 2.0026581342	 0.941115455	 0.127652
H	-2.21222132	-0.3126139826	 0.8395034324	 0.119827
H	-0.4421083327	-1.916817759	 2.5234939114	 0.121417
H	 1.6882870416	-0.3696394801	 1.6068325245	 0.106949
135.3717	195.4262	211.1645	257.4506	271.5817	364.066	490.145	591.2098	695.0772	701.3771	747.7026	804.2251	835.608	851.6295	882.3153	906.6824	931.0889	957.0302	1008.1645	1040.139	1070.6502	1137.2591	1170.8305	1183.02	1214.0149	1243.133	1286.3838	1329.3484	1377.1467	1414.4446	1491.3179	1492.0177	1943.716	3036.6486	3105.045	3113.4531	3143.69	3185.9099	3201.3727
CC12C3OC3C1OC2=O	C[C@]12[C@H]3O[C@H]3[C@H]1OC2=O	
InChI=1S/C6H6O3/c1-6-3-2(8-3)4(6)9-5(6)7/h2-4H,1H3	InChI=1S/C6H6O3/c1-6-3-2(8-3)4(6)9-5(6)7/h2-4H,1H3/t2-,3+,4-,6+/m1/s1
