18
gdb 22349	2.36468	1.31531	0.94661	2.2933	75.43	-0.2449	-0.027	0.2179	1243.7681	0.145987	-439.083596	-439.074653	-439.073709	-439.117668	33.343	
C	 0.0663378522	 1.6260221222	 0.0325693844	-0.393563
C	-0.0158424521	 0.0887007695	 0.0477953266	-0.076813
C	 0.6764155405	-0.5407792412	-1.1795413801	-0.333414
C	 2.1183521504	-0.8237125716	-0.7427932119	 0.390901
O	 3.0636561994	-0.9636954132	-1.4723640861	-0.304184
C	 2.1537598482	-0.8998745087	 0.7885083684	-0.420858
C	 0.7701075423	-0.489448539	 1.2163374727	 0.388376
N	 0.2357117804	-0.6082599887	 2.3640421092	-0.222438
O	 1.1405724276	-1.1473010918	 3.294245195	-0.392408
H	 1.1043694001	 1.9707573395	-0.0393237081	 0.12104
H	-0.4789521646	 2.0309703277	-0.8259913381	 0.120754
H	-0.3648383474	 2.0416863458	 0.9468053021	 0.134395
H	-1.0648989359	-0.2068440696	 0.1244781937	 0.098295
H	 0.2231779975	-1.5090527815	-1.4303912703	 0.134887
H	 0.6529494694	 0.0738860408	-2.0820696695	 0.129358
H	 2.4014720982	-1.9123222921	 1.126899899	 0.160231
H	 2.9398685403	-0.2498723856	 1.1892790291	 0.157296
H	 0.6009365434	-1.2153360526	 4.0893261539	 0.308145
67.3427	73.3827	171.0465	204.8762	251.597	317.3903	357.2979	430.9334	445.1166	457.1643	494.6346	554.7399	607.576	686.2137	755.1671	807.3957	820.2479	903.3551	943.6405	983.2248	1015.0168	1031.6867	1093.0025	1144.5142	1157.92	1195.7875	1236.0989	1238.815	1271.1411	1312.6158	1342.9603	1397.7491	1408.1698	1421.9532	1452.6922	1495.2492	1499.1366	1753.9675	1854.8681	3030.962	3033.0305	3050.81	3077.0843	3082.1415	3101.3468	3111.6915	3122.4764	3815.8588
CC1CC(=O)CC1=NO	C[C@H]1CC(=O)CC1=NO	
InChI=1S/C6H9NO2/c1-4-2-5(8)3-6(4)7-9/h4,9H,2-3H2,1H3	InChI=1S/C6H9NO2/c1-4-2-5(8)3-6(4)7-9/h4,9H,2-3H2,1H3/t4-/m0/s1
