18
gdb 83026	2.87851	1.47212	1.29037	2.0363	72.31	-0.2449	0.0318	0.2766	1056.0264	0.147665	-439.081515	-439.072995	-439.072051	-439.11487	31.677	
C	 0.3297148854	 1.3361567684	 0.1431964521	-0.450254
C	 0.0159652977	-0.117240206	-0.0495410009	 0.383929
N	 0.203141376	-0.7162014369	-1.1431592192	-0.290662
C	-0.0746080218	-2.1405736764	-1.2721239395	-0.175317
C	-0.8472986848	-2.7789978891	-0.1302749093	-0.144727
C	-0.1263818251	-3.1053416381	 1.1642054278	 0.079135
O	 1.2452371718	-2.8668773347	 1.2157901177	-0.416993
C	-1.0561600339	-1.923060978	 1.0891024654	 0.028995
O	-0.4679026976	-0.6481268293	 1.1296142995	-0.270376
H	 0.7572969239	 1.740670334	-0.7730788795	 0.146348
H	-0.5769080478	 1.8907232724	 0.4062178948	 0.136922
H	 1.0372270318	 1.4656668905	 0.9688435788	 0.133668
H	-0.6351662546	-2.2790939499	-2.2025084878	 0.112428
H	 0.8880346179	-2.6472184359	-1.4105653213	 0.130701
H	-1.6676538425	-3.4304754979	-0.4119525453	 0.098169
H	-0.4554599618	-3.9750530936	 1.7298347696	 0.094243
H	 1.3869673533	-2.0853823429	 1.7630178945	 0.296267
H	-1.998938218	-1.9303769966	 1.6248977627	 0.107524
67.4756	126.2369	144.8043	204.0558	245.4208	267.7062	336.6516	485.5679	512.6802	574.9141	594.2015	646.6968	749.7038	774.3011	795.8953	861.9278	936.6251	941.0252	968.7245	1053.3894	1062.0421	1069.1507	1088.8502	1121.5892	1152.7559	1175.3132	1213.5256	1245.0681	1282.4997	1337.0416	1351.8541	1359.2501	1367.692	1407.8195	1436.6795	1472.6879	1477.0123	1478.2681	1776.509	3034.6414	3045.8681	3066.1566	3101.6265	3119.982	3160.4699	3167.7585	3171.4865	3786.0323
CC1=NCC2C(O)C2O1	CC1=NC[C@H]2[C@@H](O)[C@H]2O1	
InChI=1S/C6H9NO2/c1-3-7-2-4-5(8)6(4)9-3/h4-6,8H,2H2,1H3	InChI=1S/C6H9NO2/c1-3-7-2-4-5(8)6(4)9-3/h4-6,8H,2H2,1H3/t4-,5+,6-/m0/s1
