19
gdb 83179	2.65897	1.4591	1.31027	2.9391	75.53	-0.2251	0.0313	0.2564	1060.3188	0.161113	-419.218047	-419.209576	-419.208632	-419.251549	31.548	
C	 0.1312055244	 1.7344338038	 0.109618424	-0.335083
N	 0.0770973908	 0.2813227442	 0.0351416268	-0.093134
C	 1.2183038855	-0.5236094235	-0.376025839	-0.029064
C	 2.5945546582	 0.0488560212	-0.655711623	-0.19113
N	 3.2033578519	 0.7327254513	 0.4736940249	-0.299303
C	 2.832707231	 0.7268396823	 1.7874235988	 0.375385
O	 3.4796138203	 1.3160851117	 2.634081778	-0.378453
C	 1.5792184199	-0.057695206	 2.1529300505	-0.339737
C	 0.710599678	-0.5817811884	 1.026770816	-0.039486
H	 1.0893768391	 2.1643980516	 0.4278909432	 0.124025
H	-0.1095678652	 2.139543198	-0.8785907159	 0.125582
H	-0.6449152961	 2.0758576799	 0.8015758321	 0.129491
H	 0.9642408313	-1.3233546796	-1.0702851029	 0.09502
H	 3.2355520647	-0.7826668348	-0.9840444768	 0.117364
H	 2.5376092237	 0.7478609311	-1.5021407843	 0.118246
H	 4.0557534956	 1.2474949399	 0.3028395138	 0.247501
H	 1.9219902477	-0.9103867855	 2.7513934195	 0.139084
H	 1.0064634551	 0.5712717057	 2.8432572922	 0.139636
H	 0.0847951542	-1.423841943	 1.3198872221	 0.094055
61.9535	113.204	130.5907	185.1141	227.7979	396.7824	419.7011	433.1379	515.2504	536.6941	597.9318	654.8644	722.7441	752.9693	773.7255	857.9615	914.3029	965.0814	992.1849	1021.5547	1062.1132	1114.4182	1146.4315	1154.1905	1165.7838	1195.1136	1239.7405	1279.9992	1312.6421	1334.1793	1355.1515	1367.2069	1409.1136	1433.3388	1450.8212	1473.8318	1491.1484	1494.0002	1507.2652	1531.4049	1786.1928	2989.9989	3014.2364	3017.5093	3043.3719	3077.6478	3080.1847	3100.9794	3103.027	3114.162	3601.7615
CN1C2CNC(=O)CC12	CN1[C@H]2CNC(=O)C[C@@H]12	
InChI=1S/C6H10N2O/c1-8-4-2-6(9)7-3-5(4)8/h4-5H,2-3H2,1H3,(H,7,9)	InChI=1S/C6H10N2O/c1-8-4-2-6(9)7-3-5(4)8/h4-5H,2-3H2,1H3,(H,7,9)/t4-,5+,8?/m1/s1
