25
gdb 64193	2.44178	1.32923	1.27876	0.0557	92.03	-0.261	0.0778	0.3389	1215.7353	0.228879	-352.345992	-352.336536	-352.335592	-352.379441	37.825	
C	-0.5637295236	 1.4246069832	 0.1881455398	-0.457189
C	-0.0251590965	 0.0125452193	-0.0187129206	 0.25788
C	-1.1012393322	-0.8861272895	-0.6376948642	-0.432252
C	 1.3297412991	-0.1028718386	-0.785726715	-0.254972
C	 1.8132800623	-1.1392109193	 0.260100645	-0.288385
C	 0.6714395751	-0.6767887032	 1.2062340288	 0.369866
C	 1.1307941162	 0.1289870994	 2.4559575038	-0.282341
C	 0.9050662338	-1.1470806	 3.308789355	-0.215226
C	 0.0109165124	-1.6982854399	 2.1664611741	-0.290548
H	 0.1959041299	 2.0910087322	 0.6087094762	 0.111065
H	-0.8915746275	 1.855788044	-0.7653014096	 0.108531
H	-1.4273670939	 1.4314524797	 0.8643881411	 0.10767
H	-1.4279151647	-0.4853346061	-1.6041963873	 0.107688
H	-0.7351340425	-1.9038679076	-0.8077347321	 0.110028
H	-1.9833333445	-0.9544339732	 0.0086635755	 0.109827
H	 1.2806356276	-0.4270231365	-1.8292579921	 0.08874
H	 1.9033194789	 0.8276453339	-0.7401267225	 0.093441
H	 1.6763445528	-2.1703094825	-0.0801416444	 0.096221
H	 2.8367536026	-1.0354446847	 0.6314907237	 0.0921
H	 2.1340570557	 0.5649528952	 2.4358408027	 0.090428
H	 0.4163556292	 0.9143516915	 2.7208350945	 0.097097
H	 1.8234908451	-1.7296097132	 3.4217156746	 0.102004
H	 0.4514715759	-1.0219058684	 4.2948360532	 0.092809
H	-1.0462946519	-1.469712009	 2.3391860318	 0.095602
H	 0.0981227906	-2.7584124969	 1.910747228	 0.089915
98.5665	131.5432	190.4541	220.3625	252.9607	281.8749	300.3312	343.4386	358.7445	398.7108	450.209	526.9352	611.3058	698.8932	743.3643	796.344	863.2419	873.4393	898.4209	904.6212	937.4883	941.5552	952.2905	962.655	978.6853	1004.8206	1021.0504	1051.9	1126.2832	1175.3956	1183.8105	1190.6435	1204.5185	1222.4869	1240.9456	1254.996	1261.5999	1270.0995	1273.7567	1290.3669	1297.745	1308.3474	1399.9022	1418.2021	1473.4873	1478.2861	1483.7803	1484.8676	1491.4222	1498.5211	1504.6744	1505.2446	1510.7491	3017.4881	3024.2683	3038.8414	3043.1639	3045.1	3050.4041	3059.3633	3077.9362	3085.2164	3086.3796	3088.7145	3092.1082	3094.8965	3098.0014	3105.4943	3114.5485
CC1(C)CCC11CCC1	CC1(C)CCC21CCC2	
InChI=1S/C9H16/c1-8(2)6-7-9(8)4-3-5-9/h3-7H2,1-2H3	InChI=1S/C9H16/c1-8(2)6-7-9(8)4-3-5-9/h3-7H2,1-2H3
