23
gdb 59257	2.39133	1.23908	1.07555	1.5281	85.97	-0.2373	0.0766	0.3139	1294.2437	0.204491	-388.267314	-388.257359	-388.256415	-388.302198	37.791	
C	 0.0251684288	 1.4773139278	-0.0764203287	-0.397913
C	 0.0435821186	-0.0381741784	 0.1364386591	 0.114101
O	 0.6798332575	-0.3797765061	 1.3709105108	-0.434953
C	-1.3492832882	-0.6343146781	 0.0518841766	-0.072761
C	-2.0022511326	-1.2048317062	-1.1865463757	-0.125282
C	-0.9954828592	-1.9662338395	-2.056886266	-0.228013
C	-0.6328676027	-2.8611789385	-0.8289170709	-0.288371
C	-1.6710320764	-2.1045278927	 0.0184552492	 0.342408
C	-2.5734831809	-2.7611280689	 1.0242890517	-0.500992
H	 1.0359274404	 1.8861802138	 0.0046157377	 0.119718
H	-0.3798881015	 1.730061597	-1.0618464978	 0.118006
H	-0.60303452	 1.9671975871	 0.678235539	 0.101959
H	 0.69004311	-0.4870837279	-0.6233693755	 0.086739
H	 0.1053866979	-0.0818315838	 2.0847599262	 0.272379
H	-2.068791609	-0.0826821597	 0.6609229712	 0.067112
H	-2.9673123977	-0.8434177725	-1.5253682006	 0.076915
H	-1.4844167468	-2.539692535	-2.8476327592	 0.100156
H	-0.189388631	-1.3816747834	-2.5123713971	 0.096113
H	-0.9116933153	-3.9059502993	-0.9882053063	 0.096077
H	 0.3986640152	-2.8308426864	-0.4663404386	 0.108791
H	-2.0148476811	-3.062828356	 1.9190951353	 0.121513
H	-3.3710565601	-2.0829292035	 1.3464950129	 0.112615
H	-3.045890356	-3.6606580599	 0.6121494068	 0.113681
38.4303	121.7242	171.646	203.4087	229.2782	236.0822	250.6711	285.2132	332.1043	382.9369	448.1543	500.6788	520.2041	617.2956	772.7092	795.2564	799.631	860.0023	894.2625	939.8375	947.5947	960.3738	981.7874	1003.5246	1041.6788	1064.9559	1087.8749	1097.319	1122.6408	1144.4049	1177.4164	1216.4367	1231.5107	1241.218	1251.2429	1286.7415	1307.1561	1330.3671	1366.7732	1400.2793	1413.8812	1417.6288	1471.3745	1483.0463	1487.5116	1491.1309	1496.2282	1499.0949	1511.814	3015.892	3023.841	3044.852	3054.7725	3062.3437	3073.602	3083.4555	3090.0508	3091.8115	3096.1497	3110.4228	3117.8448	3163.7623	3799.9958
CC(O)C1C2CCC12C	C[C@@H](O)[C@H]1[C@H]2CC[C@@]12C	
InChI=1S/C8H14O/c1-5(9)7-6-3-4-8(6,7)2/h5-7,9H,3-4H2,1-2H3	InChI=1S/C8H14O/c1-5(9)7-6-3-4-8(6,7)2/h5-7,9H,3-4H2,1-2H3/t5-,6-,7+,8-/m1/s1
