24
gdb 121934	4.31326	0.5966	0.55248	1.7192	86.66	-0.2449	0.0718	0.3167	2088.083	0.216158	-405.525711	-405.514745	-405.513801	-405.562888	39.335	
C	 0.199906013	 1.5564937684	-0.1044935013	-0.378957
C	 0.3314010483	 0.0312384789	-0.0801810348	-0.167221
C	 0.6038151726	-0.5249537859	 1.3211258242	-0.160152
C	 0.7413899864	-2.0498180538	 1.3550367716	-0.200459
C	 0.9413927747	-2.614613993	 2.7674150832	 0.086259
O	-0.1288963994	-2.2525457429	 3.6423238175	-0.429843
C	 1.1524898064	-4.1145128994	 2.7492458194	 0.005259
C	 2.5192219864	-4.682923756	 2.8655097588	-0.24207
N	 1.561133184	-4.8116871843	 3.9747294733	-0.31975
H	 1.1171490738	 2.0383734423	 0.2520469825	 0.113348
H	 0.0017689602	 1.9256795872	-1.1156610557	 0.110142
H	-0.6197397001	 1.8926522488	 0.5402160285	 0.114785
H	-0.5869107839	-0.4219580459	-0.4773283936	 0.092006
H	 1.1375280457	-0.2781482366	-0.7590857324	 0.092096
H	 1.5219668981	-0.0707379126	 1.7197699987	 0.089442
H	-0.2007473441	-0.2283718665	 2.0038364328	 0.108311
H	-0.1565017859	-2.512927426	 0.9182893468	 0.084699
H	 1.5839227597	-2.369094947	 0.7273288259	 0.098807
H	 1.8245328486	-2.1437659825	 3.2210933617	 0.077066
H	-0.9166113636	-2.7283647171	 3.3550848034	 0.279608
H	 0.4146343057	-4.6661115233	 2.1646038908	 0.082577
H	 2.7704717137	-5.6133348263	 2.3642918155	 0.118443
H	 3.3489478511	-3.9869328114	 2.9659565331	 0.109998
H	 1.7616115787	-4.124855695	 4.6987666804	 0.235605
50.4249	61.0344	90.7148	101.3433	143.2019	206.1008	248.7883	258.0634	281.8218	315.3933	329.0378	451.1763	508.4844	555.6658	737.2582	788.1765	815.3551	867.3878	892.7001	907.4415	935.2417	953.6952	989.1743	1023.9287	1051.583	1068.6537	1084.0003	1112.4366	1119.2685	1140.5661	1159.2907	1193.0032	1231.8224	1248.8563	1265.3443	1284.6906	1302.7607	1316.2844	1330.7391	1340.9625	1378.6911	1398.4975	1412.7561	1413.0556	1436.3256	1477.4865	1486.4351	1499.7732	1500.0512	1512.6239	1513.3006	2994.7128	3007.0744	3013.9351	3018.9986	3029.3413	3037.1933	3042.9338	3073.657	3094.0059	3096.2184	3101.1455	3104.6655	3188.9591	3493.5269	3795.1745
CCCCC(O)C1CN1	CCCC[C@@H](O)[C@H]1CN1	
InChI=1S/C7H15NO/c1-2-3-4-7(9)6-5-8-6/h6-9H,2-5H2,1H3	InChI=1S/C7H15NO/c1-2-3-4-7(9)6-5-8-6/h6-9H,2-5H2,1H3/t6-,7-/m1/s1
