21
gdb 83587	2.50705	1.61148	1.54258	0.825	76.21	-0.254	0.0641	0.3181	1003.4752	0.185983	-424.242607	-424.234893	-424.233949	-424.274315	31.353	
O	 0.0731139685	 1.4112680094	-0.0500159919	-0.461509
C	 0.0248921494	-0.0056630797	 0.0055558224	 0.150924
C	 0.5650232024	-0.6068732069	 1.3166725932	-0.048526
C	-0.5643783502	-0.2874642007	 2.3292611709	-0.22514
C	-1.8717398149	-0.2765089704	 1.4737732656	-0.225139
C	-1.3997569333	-0.590429846	 0.0310044614	-0.048523
C	-1.2862352774	-2.1107370594	-0.1787517889	-0.090187
O	-0.5674472309	-2.7330035464	 0.8758987649	-0.246354
C	 0.6939661845	-2.1273092825	 1.1170024844	-0.090187
H	-0.4147621022	 1.7653085091	 0.7001687173	 0.280662
H	 0.5941984136	-0.3374194085	-0.8687108935	 0.076295
H	 1.5352709674	-0.1877292363	 1.5985934605	 0.068964
H	-0.6087018664	-1.0311774595	 3.1284657269	 0.108791
H	-0.3926493196	 0.6816345744	 2.8088285771	 0.091777
H	-2.5950546218	-1.0145114395	 1.8286960138	 0.10879
H	-2.3685263913	 0.6982019515	 1.5158586857	 0.091777
H	-2.0415709165	-0.1577982691	-0.7419421363	 0.068964
H	-2.2745211347	-2.5811376286	-0.1837069677	 0.107387
H	-0.8059212943	-2.3202104448	-1.1497702077	 0.086922
H	 1.3889803099	-2.3385772382	 0.286473629	 0.086923
H	 1.0886196678	-2.609284188	 2.0169794329	 0.107387
162.011	203.1845	212.3332	264.9988	308.5861	347.0557	399.4519	435.1026	508.7324	656.3301	738.6617	775.0943	811.6642	824.2258	861.2439	874.002	917.2152	947.6182	980.598	987.1561	1004.4712	1039.1501	1063.3706	1096.4304	1121.6908	1146.7848	1166.686	1192.3873	1225.2346	1237.7564	1265.5116	1268.7751	1299.4007	1307.194	1320.3553	1334.1902	1336.8209	1359.1681	1388.628	1410.2304	1442.0375	1486.0869	1497.8314	1505.6089	1509.2122	2959.5182	2965.0879	3040.553	3052.6269	3058.7942	3069.7222	3073.9503	3076.5208	3080.9485	3088.3411	3107.061	3823.8592
OC1C2CCC1COC2	O[C@H]1[C@H]2CC[C@@H]1COC2	
InChI=1S/C7H12O2/c8-7-5-1-2-6(7)4-9-3-5/h5-8H,1-4H2	InChI=1S/C7H12O2/c8-7-5-1-2-6(7)4-9-3-5/h5-8H,1-4H2/t5-,6+,7-
