21
gdb 118919	2.72118	0.9594	0.94553	1.2489	79.75	-0.2495	-0.0271	0.2224	1422.9736	0.179511	-424.236826	-424.226644	-424.2257	-424.272393	36.604	
C	-0.2408632814	 1.541699341	-0.2087155296	-0.383504
C	-0.1345544602	 0.0183641384	-0.0950283786	-0.177339
C	 0.8706352425	-0.5727683127	-1.0923104851	-0.20344
C	 0.9051015368	-2.1044228819	-1.1104305899	 0.272869
C	 1.3847774161	-2.7479361511	 0.1847236055	-0.434733
O	-0.3801819372	-2.662284958	-1.5435276624	-0.325986
C	 0.1459816756	-3.2149467418	-2.7635255804	-0.194848
C	 1.5353893047	-2.6897807372	-2.3890449238	 0.306409
O	 2.6288964859	-2.7165676422	-2.8656011169	-0.285989
H	 0.7240226024	 2.023945564	-0.0159709315	 0.115016
H	-0.5656504542	 1.8424731887	-1.2108961291	 0.116618
H	-0.9627403547	 1.9424777842	 0.5094545032	 0.114553
H	 0.1526319822	-0.248572359	 0.9286581486	 0.098828
H	-1.1136365233	-0.439519625	-0.2747368005	 0.119565
H	 0.6180939444	-0.2210347879	-2.1008559902	 0.097589
H	 1.8839976605	-0.20826521	-0.8814817604	 0.109569
H	 0.7066582925	-2.5064617684	 1.0074699379	 0.136032
H	 1.422637928	-3.8362257044	 0.0865093181	 0.124047
H	 2.3862455135	-2.3874728464	 0.4384702192	 0.132654
H	 0.0560116477	-4.3074834681	-2.8178742009	 0.131179
H	-0.2942685318	-2.7730423421	-3.666800523	 0.130913
71.8849	84.7536	105.8536	124.8239	181.1562	227.8154	251.5304	279.794	310.7239	350.8613	420.6064	533.7278	563.9155	675.9603	744.1137	753.1072	846.1034	876.8899	890.5017	951.514	965.6158	1009.6853	1039.477	1041.2593	1051.823	1102.8391	1138.5836	1176.8239	1207.5963	1228.7233	1276.4659	1296.3886	1322.2571	1342.4701	1395.0057	1401.13	1413.6061	1469.7528	1482.6204	1485.2705	1493.9696	1495.8262	1500.8512	1510.3425	1918.0353	3014.1508	3019.6289	3029.5909	3037.3258	3045.2012	3054.9157	3058.7148	3075.977	3100.8405	3103.8953	3119.4548	3124.2913
CCCC1(C)OCC1=O	CCC[C@@]1(C)OCC1=O	
InChI=1S/C7H12O2/c1-3-4-7(2)6(8)5-9-7/h3-5H2,1-2H3	InChI=1S/C7H12O2/c1-3-4-7(2)6(8)5-9-7/h3-5H2,1-2H3/t7-/m1/s1
