19
gdb 39923	3.12888	1.5951	1.25698	1.4707	81.77	-0.2267	0.0175	0.2442	1040.5025	0.161031	-385.867727	-385.860422	-385.859477	-385.899442	29.379	
C	-0.1945666222	 1.4541963985	-0.0065978387	-0.301865
C	 1.2059183899	 0.9101323244	-0.0009320961	-0.324847
C	 0.0236080256	-0.0406576641	 0.025721937	 0.350974
C	-0.284560501	-0.8830037236	 1.2120772556	-0.13597
C	-0.65793173	-2.1209525194	 0.8767842103	-0.108829
C	-0.6966814874	-2.3127866965	-0.6160942932	-0.135141
C	-2.066448293	-2.070088238	-1.2964135635	-0.073756
O	-1.7035583874	-0.7154964496	-1.6348223763	-0.290186
C	-0.3439749567	-0.9043512576	-1.1720014454	 0.014837
H	-0.5682507174	 1.9282829844	 0.8948836683	 0.113575
H	-0.5871001514	 1.8745535018	-0.9257865376	 0.129142
H	 1.7831845852	 0.9638622322	-0.9188054871	 0.114493
H	 1.7968516633	 1.0084960577	 0.9037637392	 0.111586
H	-0.1980984265	-0.5059225519	 2.2260319014	 0.095446
H	-0.9254445463	-2.904831569	 1.5763444273	 0.094903
H	-0.1367862786	-3.1803491116	-0.9734441777	 0.08053
H	-2.2457040091	-2.6783879903	-2.1932550973	 0.093797
H	-2.9486740526	-2.1123744724	-0.6472239371	 0.101931
H	 0.3664475354	-0.8311602049	-2.0035204991	 0.06938
91.5373	197.5879	209.3532	280.1455	328.6436	443.9709	494.041	585.2851	701.9952	770.2087	776.5714	829.3578	832.8807	865.9467	891.6481	913.4086	937.7761	952.664	967.4949	990.4764	997.5839	1026.4383	1056.3052	1058.4213	1074.0116	1078.627	1119.2711	1164.7077	1189.3302	1222.1132	1235.2808	1281.0095	1301.3731	1324.1334	1328.325	1356.1718	1412.9216	1466.3772	1498.6675	1522.6314	1664.1894	3004.3291	3035.7967	3058.2477	3080.2513	3123.3147	3134.0441	3177.8107	3203.8809	3204.8325	3222.9807
C1CC11C=CC2COC12	C1CC21C=C[C@H]1CO[C@@H]21	
InChI=1S/C8H10O/c1-2-8(3-4-8)7-6(1)5-9-7/h1-2,6-7H,3-5H2	InChI=1S/C8H10O/c1-2-8(3-4-8)7-6(1)5-9-7/h1-2,6-7H,3-5H2/t6-,7+/m0/s1
