20
gdb 38862	2.73234	1.96988	1.85336	0.7784	76.53	-0.2046	0.0805	0.2851	883.6706	0.176102	-403.12876	-403.122413	-403.121469	-403.159039	27.488	
C	-0.033051002	 1.4615313458	 0.0786672581	-0.18409
C	 1.4946662102	 1.3998739997	-0.0635252269	 0.098886
O	 2.0771628375	 1.1639627377	 1.2194994895	-0.289409
C	 1.7929357003	-0.1706818485	 1.6766066514	 0.096513
C	 2.690807824	-1.133381657	 0.8951237749	-0.208314
C	 2.2362924607	-1.0856296411	-0.5865241736	-0.243757
C	 1.2351326604	 0.0457125468	-0.774394587	 0.008934
N	-0.058411364	-0.0487236765	 0.0322726773	-0.137403
C	 0.3151355883	-0.5213840047	 1.3895461857	-0.188724
H	-0.4296656986	 1.9079762778	 0.9943255254	 0.101272
H	-0.5485244672	 1.870453558	-0.7962153641	 0.099798
H	 2.0608036446	 2.2053413448	-0.5411727248	 0.069044
H	 2.0217207715	-0.1795924507	 2.7455185215	 0.074176
H	 3.728910992	-0.8080051197	 1.0044856861	 0.104931
H	 2.6157940948	-2.145562177	 1.3057594338	 0.095883
H	 3.0851798542	-0.9344569371	-1.2606819613	 0.107664
H	 1.7618642759	-2.025322163	-0.8901852519	 0.112704
H	 0.9707577846	 0.1841774015	-1.8264746532	 0.076987
H	 0.175823637	-1.6072911202	 1.4542126747	 0.099773
H	-0.3646670242	-0.0614704469	 2.1132896945	 0.105134
184.1653	305.0572	335.4716	420.4626	464.1022	497.8943	539.8882	658.9702	737.3081	767.8586	811.6505	825.2788	836.3198	873.9657	891.8786	914.1504	934.3346	958.9374	1009.3495	1022.4324	1052.3796	1075.6437	1091.1992	1117.5388	1133.9554	1146.8219	1227.1238	1239.8557	1248.6421	1254.8563	1270.9586	1291.9923	1304.3048	1322.7522	1343.4355	1350.2523	1362.7952	1390.3447	1393.0385	1474.1384	1486.2021	1494.5594	1510.8793	3028.3225	3038.115	3041.3829	3049.4498	3058.5445	3069.8721	3074.6002	3075.5037	3083.3343	3099.7946	3107.6425
C1C2OC3CCC2N1C3	C1[C@H]2O[C@@H]3CC[C@H]2N1C3	
InChI=1S/C7H11NO/c1-2-6-7-4-8(6)3-5(1)9-7/h5-7H,1-4H2	InChI=1S/C7H11NO/c1-2-6-7-4-8(6)3-5(1)9-7/h5-7H,1-4H2/t5-,6-,7-/m1/s1
