16
gdb 26519	3.8938	1.49777	1.24835	1.1993	76.04	-0.204	0.0126	0.2166	990.3909	0.125977	-400.709563	-400.702724	-400.70178	-400.740491	27.936	
O	-0.0038504953	 1.463109828	-0.083734987	-0.448881
C	-0.0054211586	 0.0989594935	 0.0553809888	 0.310026
C	-0.1497291923	-0.7878129431	-1.1556079451	-0.308274
C	-1.1425412582	-0.9329589554	-0.0132948498	-0.128551
N	-0.516396519	-1.6143641137	 1.1306222728	 0.03028
C	-0.132527724	-2.8488857405	 1.5886073339	-0.144118
C	 1.1532906398	-2.7027493477	 2.0800062652	-0.122831
C	 1.6197518118	-1.3815903553	 1.7835388372	-0.272127
C	 0.5519271492	-0.7360700521	 1.2004260846	 0.103788
H	-0.283623769	 1.8476473149	 0.7554789042	 0.291519
H	-0.5481794749	-0.2861310306	-2.034615615	 0.126452
H	 0.5679503125	-1.5769809038	-1.3583281448	 0.132026
H	-2.2147886922	-0.8188123769	-0.0973724829	 0.116939
H	-0.8084377195	-3.6884527466	 1.6313060238	 0.118046
H	 1.6934527741	-3.4532658083	 2.6400603782	 0.095089
H	 2.5985148956	-0.9830002525	 2.0010888159	 0.100618
146.8991	211.0764	271.7218	384.5597	406.2521	471.1648	520.4484	599.7219	631.6897	705.5235	738.7573	749.0418	798.4586	834.1247	856.1608	876.9532	914.9266	947.4848	966.7135	1003.907	1030.0718	1060.2875	1090.1606	1098.2176	1176.8469	1229.0509	1234.6405	1246.6604	1312.8831	1377.7002	1404.6814	1431.4539	1458.7184	1485.1352	1566.8399	3112.716	3203.7067	3211.2836	3227.6551	3254.0136	3262.25	3786.9689
OC12CC1N1C=CC=C21	O[C@]12C[C@H]1n1cccc21	
InChI=1S/C7H7NO/c9-7-4-6(7)8-3-1-2-5(7)8/h1-3,6,9H,4H2	InChI=1S/C7H7NO/c9-7-4-6(7)8-3-1-2-5(7)8/h1-3,6,9H,4H2/t6-,7+/m1/s1
