16
gdb 115263	3.38404	1.04492	0.83794	2.0325	75.5	-0.2512	-0.0396	0.2117	1326.1441	0.12389	-437.858129	-437.849565	-437.848621	-437.892062	31.039	
O	 0.0802605594	 1.3683434405	 0.1374085973	-0.419863
C	 0.0403494847	-0.0343819117	 0.0318281973	-0.053648
C	-1.4025032265	-0.5454725374	-0.052986055	-0.025148
C	-1.5417948367	-2.0876561317	-0.0561195087	-0.136236
O	-2.3808205445	-2.3724637632	 1.0882027582	-0.253919
C	-2.6090582099	-1.1709837106	 1.6839555715	 0.266145
N	-2.1347857562	-0.1145234697	 1.1512904769	-0.349206
C	-3.3829323924	-1.2176041333	 2.878494828	 0.268993
C	-4.0372277455	-1.2644986945	 3.8845736252	-0.35051
H	-0.5449480122	 1.6001628571	 0.8361144388	 0.298171
H	 0.5898724419	-0.3070076458	-0.8766208556	 0.107857
H	 0.5379021013	-0.5274036735	 0.8849550443	 0.085261
H	-1.874875632	-0.085383906	-0.9285945137	 0.101306
H	-2.0338189726	-2.4851286756	-0.9463247076	 0.128284
H	-0.5868013159	-2.6054813972	 0.0868369853	 0.121743
H	-4.6157774328	-1.2978146174	 4.7752890778	 0.210772
60.4715	109.8894	129.4836	167.3463	225.7711	324.7589	399.9985	466.3788	494.6742	545.5312	589.5302	662.271	674.3891	723.7695	738.7416	868.6101	921.9349	948.3699	1009.3259	1033.2444	1062.9827	1098.1302	1136.3304	1211.6363	1226.624	1246.1841	1324.3081	1326.7659	1381.6315	1387.3069	1439.3175	1504.2297	1516.3307	1686.8344	2253.3735	2956.1577	3039.1965	3043.2745	3063.8022	3106.867	3499.2319	3776.3241
OCC1COC(=N1)C#C	OC[C@H]1COC(=N1)C#C	
InChI=1S/C6H7NO2/c1-2-6-7-5(3-8)4-9-6/h1,5,8H,3-4H2	InChI=1S/C6H7NO2/c1-2-6-7-5(3-8)4-9-6/h1,5,8H,3-4H2/t5-/m0/s1
