15
gdb 64837	3.05209	1.17935	1.13007	3.9334	74.5	-0.2462	-0.0573	0.1888	1123.0042	0.110478	-420.616406	-420.607974	-420.60703	-420.649761	31.67	
O	-0.0439216839	 1.4306269417	 0.0331851245	-0.448774
C	-0.0064392582	 0.0010087213	 0.0269079476	 0.193413
C	-1.4588777816	-0.5191762502	-0.0843228438	-0.379736
C	-1.5016642011	-1.3715172174	-1.3601495442	 0.384134
O	-2.4494113503	-2.0043868555	-1.7566435836	-0.319986
C	-0.1666550782	-1.2623131471	-2.0008926592	-0.184892
C	 0.6508481695	-0.521826939	-1.2507192695	-0.089252
C	 0.7082496245	-0.5011997904	 1.2045236283	 0.289413
C	 1.3362879621	-0.8855436243	 2.155087633	-0.489649
H	 0.8339326698	 1.7496856201	 0.2714661384	 0.286542
H	-1.7784340438	-1.1031249678	 0.779916085	 0.143884
H	-2.1345101546	 0.3338007511	-0.1870595495	 0.15627
H	 0.0615420435	-1.7335096364	-2.9484499205	 0.126578
H	 1.6841926075	-0.2759086164	-1.4700204314	 0.122996
H	 1.8742330546	-1.2331036996	 3.0028807048	 0.209061
46.0804	142.1255	172.168	236.0129	277.8853	361.5934	412.6089	433.9434	476.5772	555.1613	580.8987	626.942	640.0447	672.5287	690.9763	806.186	828.6372	838.6585	904.5208	999.6147	1036.5212	1061.8032	1077.4858	1120.9059	1196.4051	1216.604	1268.5776	1338.2311	1375.277	1443.5881	1654.5804	1825.532	2229.4867	3083.3238	3137.6596	3194.4084	3228.1134	3497.5921	3805.0976
OC1(CC(=O)C=C1)C#C	O[C@]1(CC(=O)C=C1)C#C	
InChI=1S/C7H6O2/c1-2-7(9)4-3-6(8)5-7/h1,3-4,9H,5H2	InChI=1S/C7H6O2/c1-2-7(9)4-3-6(8)5-7/h1,3-4,9H,5H2/t7-/m1/s1
