19
gdb 111512	2.86368	1.46035	1.22097	2.7781	70.72	-0.2462	0.0725	0.3187	1082.9209	0.159387	-460.139687	-460.131377	-460.130433	-460.172414	31.933	
C	 0.166630167	 1.2731652777	-0.1793953128	-0.24008
O	-0.1508299943	-0.0673158424	 0.1410454152	-0.244567
C	 0.6199011374	-0.607444948	 1.1808080843	 0.100384
C	 0.1698526098	-2.0237474272	 1.4691536845	 0.013648
O	 0.6873671069	-2.9783151245	 0.5219838944	-0.269466
C	 1.3430741575	-2.8398656047	 1.7973845258	 0.042852
C	 2.5897161452	-1.9816453924	 1.7252111616	-0.269529
C	 2.1524122648	-0.7625423553	 0.8709889689	 0.067069
O	 2.3911826682	-0.9495711168	-0.506922521	-0.430323
H	 1.1671242697	 1.354169467	-0.6200117348	 0.132327
H	-0.573680511	 1.6088710558	-0.9094461123	 0.126695
H	 0.1064690609	 1.9233230637	 0.7078347996	 0.09773
H	 0.4992655319	-0.0071325411	 2.102184456	 0.06341
H	-0.8334302009	-2.2261943343	 1.8320866911	 0.104482
H	 1.2862098516	-3.7137199294	 2.440761039	 0.100505
H	 2.8838650301	-1.6796305168	 2.7379516838	 0.105126
H	 3.4412270692	-2.4874601617	 1.2617475471	 0.122624
H	 2.7086285197	 0.1352169936	 1.1510148844	 0.084777
H	 1.8161803163	-1.6774270932	-0.7791458546	 0.292334
115.8175	125.6121	197.0637	204.9959	278.1125	315.0036	388.0344	398.9653	491.6339	512.7313	568.6587	680.2425	793.8926	811.7221	855.5016	872.5948	881.9356	939.9012	986.4189	1023.3831	1032.0323	1066.0482	1098.9278	1131.5862	1162.747	1181.1136	1200.8254	1226.8516	1240.518	1261.6559	1279.1401	1313.3041	1339.1379	1352.7899	1391.0538	1436.7806	1457.9729	1474.5781	1478.8571	1485.7916	1513.2928	2929.4723	2980.3505	3038.3592	3062.9642	3083.4632	3099.3541	3118.8861	3151.9022	3167.7879	3762.863
COC1C2OC2CC1O	CO[C@H]1[C@H]2O[C@H]2C[C@H]1O	
InChI=1S/C6H10O3/c1-8-5-3(7)2-4-6(5)9-4/h3-7H,2H2,1H3	InChI=1S/C6H10O3/c1-8-5-3(7)2-4-6(5)9-4/h3-7H,2H2,1H3/t3-,4+,5-,6+/m1/s1
