19
gdb 63105	2.18467	1.68641	1.19776	3.8209	81.69	-0.2332	0.0067	0.2399	1104.1031	0.15911	-382.044722	-382.035815	-382.034871	-382.077785	33.923	
C	 0.00833063	 1.533974826	-0.0078043333	-0.464018
C	 0.0290302699	 0.0191339494	-0.0450483392	 0.275825
C	-1.2085389109	-0.6403929862	 0.5401816497	-0.464259
C	 0.6419141954	-0.7641863535	-1.1857224277	-0.178746
C	 1.9159332347	-0.1159757347	-1.7333357881	-0.196254
N	 2.4696277907	 0.0472923656	-0.3461358085	-0.370631
C	 1.3292484586	-0.7347373058	 0.1925875661	 0.206157
C	 1.5111737421	-1.7549855289	 1.1694608368	 0.19235
N	 1.6800974606	-2.5783726577	 1.9667988727	-0.359744
H	 0.9737537902	 1.9594849655	-0.2839955912	 0.147995
H	-0.7599593179	 1.9214047847	-0.6859707694	 0.117396
H	-0.232676179	 1.8823861208	 1.0021310745	 0.123425
H	-2.0987861545	-0.3331434347	-0.0189270235	 0.123607
H	-1.1490455744	-1.7320234786	 0.5058796107	 0.132567
H	-1.3479887307	-0.3467875709	 1.5853843591	 0.132978
H	 0.1093485453	-1.5809978921	-1.6570098536	 0.110739
H	 2.4968971874	-0.8154632357	-2.3411616178	 0.118108
H	 1.8062843436	 0.8278618206	-2.2772422726	 0.114587
H	 3.3397373488	-0.4627913638	-0.2380031748	 0.237916
122.3253	142.6981	175.4899	213.1045	237.482	271.5927	312.9194	354.2406	409.7997	474.1823	529.6257	572.1472	598.7872	686.7494	758.9249	796.2046	898.8363	935.1153	953.8952	974.1007	994.2463	1011.1935	1027.997	1073.1363	1108.4005	1154.5659	1181.0122	1200.0127	1231.9838	1288.7546	1316.5191	1352.5123	1404.5189	1423.4225	1436.4884	1479.2874	1488.3622	1499.2157	1512.5898	1517.6442	2334.9378	3033.9853	3038.0263	3044.5864	3092.5428	3094.395	3101.3736	3113.1564	3142.4418	3189.1017	3536.5816
CC1(C)C2CNC12C#N	CC1(C)[C@H]2CN[C@@]12C#N	
InChI=1S/C7H10N2/c1-6(2)5-3-9-7(5,6)4-8/h5,9H,3H2,1-2H3	InChI=1S/C7H10N2/c1-6(2)5-3-9-7(5,6)4-8/h5,9H,3H2,1-2H3/t5-,7-/m1/s1
