18
gdb 14363	4.07941	2.1822	1.89968	1.5273	71.46	-0.2471	0.0914	0.3384	773.4394	0.156638	-347.734499	-347.728391	-347.727447	-347.764559	25.242	
C	-0.0599086378	 1.5179819491	 0.0251214268	-0.251374
C	 1.4627522467	 1.2623961395	 0.014870225	-0.100754
C	 1.1966101237	 0.0847971971	 1.0325724664	-0.317842
C	 0.1002673098	-0.0400778801	-0.0677781759	 0.32334
C	-0.8973328526	-0.9296936999	-0.7670598046	-0.391094
C	-0.7007612314	-0.3965704627	-2.2377841841	-0.068298
O	 0.5285323832	 0.3748167725	-2.3117197764	-0.291455
C	 1.2061026972	 0.1835317231	-1.0911727626	 0.144305
H	-0.4861510036	 1.9000370372	 0.9564701434	 0.084018
H	-0.4731483135	 2.0223830363	-0.8480902429	 0.109209
H	 2.2662592675	 1.9974417856	 0.0761160554	 0.07373
H	 1.9449947385	-0.7116330204	 1.077767502	 0.096056
H	 0.8715416717	 0.3880922022	 2.0300008389	 0.099152
H	-0.6193393704	-1.985972643	-0.6954234901	 0.109746
H	-1.9340994121	-0.8225760056	-0.4381984626	 0.107788
H	-0.6490936922	-1.2222890688	-2.9567992338	 0.105122
H	-1.5218809466	 0.2639690742	-2.5354127024	 0.109705
H	 1.9858690819	-0.5843936963	-1.1838846426	 0.058644
109.1538	289.483	340.4518	417.002	513.6765	576.4057	686.6274	726.9791	775.297	833.2255	837.9046	885.6493	902.8075	920.0499	934.8803	974.2462	982.2258	1018.1381	1024.838	1071.7495	1094.6191	1096.4818	1136.3698	1157.9605	1168.9229	1200.5375	1213.3346	1223.8142	1230.1738	1257.4468	1278.1617	1319.1829	1370.5617	1395.5046	1487.8071	1491.6901	1519.3829	1531.4086	3009.8321	3030.9228	3052.9528	3055.4586	3063.9302	3070.4218	3105.3561	3106.4599	3124.2199	3142.2304
C1C2CC11CCOC21	C1[C@H]2C[C@]31CCO[C@@H]23	
InChI=1S/C7H10O/c1-2-8-6-5-3-7(1,6)4-5/h5-6H,1-4H2	InChI=1S/C7H10O/c1-2-8-6-5-3-7(1,6)4-5/h5-6H,1-4H2/t5-,6-,7+/m0/s1
