20
gdb 23021	2.71941	0.9775	0.7697	1.7721	79.3	-0.2371	0.0104	0.2475	1492.9396	0.168307	-440.224813	-440.214351	-440.213407	-440.261488	37.225	
C	 0.5440346097	 1.4360318474	-0.0709667678	-0.46896
C	 0.0358268413	 0.0345176316	 0.1552491727	 0.344007
N	-0.1991548701	-0.4501574996	 1.3154099175	-0.171129
O	 0.107456632	 0.4732187767	 2.330221978	-0.402291
C	-0.2183909609	-0.8148644551	-1.039834155	-0.095884
C	 0.8921743101	-1.6430895019	-1.6695733432	-0.281411
C	-0.3066006962	-2.3227870365	-1.0623391511	-0.037403
C	-0.1524344114	-3.222841155	 0.1468550583	-0.075781
O	 0.2661985912	-4.5316717672	-0.2258410256	-0.423149
H	 1.5407022671	 1.5542873288	 0.3672731898	 0.147771
H	 0.5989238046	 1.6689074465	-1.135756326	 0.119502
H	-0.1026773853	 2.1628677068	 0.4297371365	 0.147394
H	-0.1282094591	-0.0164057083	 3.1250397249	 0.305286
H	-0.8569405965	-0.3108839321	-1.7636505601	 0.095666
H	 1.0106224208	-1.6173704688	-2.7471677775	 0.111026
H	 1.8221690169	-1.7209732365	-1.1155016174	 0.123406
H	-1.0390910989	-2.7012445802	-1.7750003174	 0.075061
H	 0.6172563915	-2.8398225757	 0.8172564385	 0.118538
H	-1.0901999865	-3.2519680768	 0.7202788587	 0.092134
H	-0.4242850402	-4.9167636539	-0.7746206337	 0.276217
32.8503	67.7539	89.557	122.6467	172.5535	227.8173	272.367	303.2717	310.9223	361.2243	408.564	455.188	531.6608	576.9163	662.1483	764.2022	817.788	866.8465	901.3388	949.9497	972.1291	1022.0296	1027.0826	1049.6841	1054.8347	1066.6943	1093.7025	1136.1299	1154.5645	1203.6126	1233.8206	1269.6514	1363.4672	1382.7205	1398.5882	1399.3517	1422.9018	1438.76	1474.949	1482.7053	1489.0444	1501.5207	1723.4411	3002.1545	3044.3655	3100.2708	3102.4787	3116.3387	3130.238	3132.2024	3138.0629	3217.6092	3814.4966	3823.0308
CC(=NO)C1CC1CO	CC(=NO)[C@H]1C[C@H]1CO	
InChI=1S/C6H11NO2/c1-4(7-9)6-2-5(6)3-8/h5-6,8-9H,2-3H2,1H3	InChI=1S/C6H11NO2/c1-4(7-9)6-2-5(6)3-8/h5-6,8-9H,2-3H2,1H3/t5-,6+/m0/s1
