18
gdb 12555	3.49769	1.83518	1.30147	2.0142	70.68	-0.2467	0.0151	0.2618	960.1841	0.154457	-384.935407	-384.927762	-384.926818	-384.967546	28.748	
C	 0.4879790411	 1.6018283656	-0.0858332773	-0.395848
C	-0.1230102051	 0.2002041385	-0.0805656518	 0.074558
O	 0.3426747608	-0.4322310495	-1.2645565828	-0.237751
C	-0.0473345582	-1.7577126643	-1.4693280415	 0.011271
O	 0.8167600098	-2.6788605211	-0.8677337551	-0.223562
C	 0.5643672973	-2.9637554251	 0.491676629	-0.133309
C	 0.4438968303	-1.8055044856	 1.4428982864	-0.088262
C	 0.1609078698	-0.5241696718	 1.213517136	-0.051738
H	 1.5762980047	 1.5387091115	 0.0008979741	 0.13207
H	 0.2425716658	 2.1103783365	-1.0212029711	 0.124963
H	 0.1031019103	 2.1956469233	 0.7480232104	 0.113559
H	-1.2234468954	 0.3046981802	-0.1519587573	 0.079618
H	-1.0891546789	-1.9180991614	-1.1362701831	 0.073816
H	 0.0300065939	-1.9340238639	-2.5453506244	 0.113015
H	-0.3553263483	-3.5731512078	 0.5845382222	 0.102487
H	 1.3902240511	-3.6097081581	 0.8106306022	 0.12136
H	 0.5510226555	-2.1123920467	 2.4830276303	 0.093149
H	 0.0588149754	 0.1218103797	 2.0845169138	 0.090603
61.4588	151.0338	231.2322	277.82	302.1042	366.25	407.5055	454.8252	523.0127	634.3522	691.9894	781.6243	824.406	882.8221	923.6996	986.7112	1002.9726	1027.6247	1035.7503	1087.8433	1126.6365	1145.506	1163.0681	1215.9123	1277.899	1281.7569	1331.0685	1337.545	1372.6196	1405.8909	1409.1969	1425.1786	1449.8623	1482.3644	1485.7874	1498.3564	1503.5012	1743.2225	2907.2463	2921.9642	2939.1469	3047.4248	3058.0612	3094.9076	3119.7366	3124.2486	3130.309	3145.3252
CC1OCOCC=C1	C[C@H]1OCOCC=C1	
InChI=1S/C6H10O2/c1-6-3-2-4-7-5-8-6/h2-3,6H,4-5H2,1H3	InChI=1S/C6H10O2/c1-6-3-2-4-7-5-8-6/h2-3,6H,4-5H2,1H3/t6-/m1/s1
