16
gdb 55610	2.56813	0.8075	0.68789	1.8089	72.61	-0.1869	0.0089	0.1958	1601.2423	0.121714	-471.265985	-471.255249	-471.254305	-471.304879	35.682	
O	 0.3873104846	 0.4430363414	-1.050732792	-0.315588
C	 0.8084456475	 0.7052892888	 0.0048333216	 0.591656
O	 1.261056493	 0.9512448419	 1.0441130884	-0.279699
C	-1.9516286778	 2.4655747912	 0.3257599394	-0.470534
C	-2.7673031144	 1.3911904028	 0.3292805001	 0.42593
N	-3.5895724736	 1.0140546421	 1.3713361142	-0.556739
H	-4.3626566786	 0.4136316637	 1.0965630429	 0.276493
H	-3.83322602	 1.7661392636	 1.9964079598	 0.245215
N	-2.7539495517	 0.5075655297	-0.7694733848	-0.321189
C	-3.665428814	-0.4469780839	-1.1254748822	 0.111089
N	-4.7429803482	-0.7035662805	-0.4847204007	-0.483123
H	-1.9140204461	 3.1327107978	 1.1757991645	 0.094068
H	-1.3458246935	 2.7043076848	-0.5368395825	 0.087267
H	-1.9575037217	 0.6105992134	-1.3763825541	 0.268484
H	-3.3524298383	-0.9669499216	-2.0381226255	 0.099853
H	-5.2578763972	-1.453844445	-0.9350389891	 0.226817
26.7734	37.4308	56.3106	77.0347	103.1076	111.1464	231.4525	284.7758	407.4022	419.9925	458.3068	549.1715	635.079	648.9588	678.1609	686.4494	697.6484	728.24	761.8423	783.9228	888.2723	991.4937	1038.4773	1147.3439	1181.7606	1272.0914	1375.7371	1402.4295	1433.0867	1435.4298	1542.0671	1649.803	1708.3594	1727.9941	2431.3525	3055.9268	3182.1356	3270.013	3458.1831	3536.5326	3657.04	3657.6644
[O-]C(=O)CC(=[NH2+])NC=N	O=C=O.[CH2]C(=[NH2])NC=N	
InChI=1S/C4H7N3O2/c5-2-7-3(6)1-4(8)9/h2H,1H2,(H,8,9)(H3,5,6,7)	InChI=1S/C3H7N3.CO2/c1-3(5)6-2-4;2-1-3/h2H,1,5H2,(H2,4,6);
