20
gdb 14348	3.18068	1.92893	1.82599	1.3872	73.3	-0.2367	0.0762	0.3129	870.6075	0.178869	-349.007226	-348.999859	-348.998915	-349.03877	29.027	
C	 0.5944804108	 1.3063650881	 0.3168952398	-0.395832
C	-0.0421154694	-0.0219954211	-0.0998939832	 0.128157
C	 0.6104273951	-0.6889852322	-1.3351397766	-0.254947
C	 1.5426079567	-1.7586523431	-0.753319978	-0.022197
C	 2.9452636869	-1.3154471917	-0.2349503001	-0.235989
C	 2.4779753726	-1.5395861518	 1.2329841553	-0.237704
C	 1.0595657109	-1.9284364852	 0.718669466	 0.119476
O	 0.0248031414	-0.9930696474	 0.9519999848	-0.27282
H	 1.6760751741	 1.21788595	 0.4534902056	 0.119252
H	 0.410984861	 2.0704129085	-0.4465798847	 0.109426
H	 0.1584831947	 1.6509264571	 1.2588847877	 0.122431
H	-1.1098279103	 0.1548583202	-0.2767374224	 0.07844
H	-0.1596557538	-1.1612818468	-1.9524577063	 0.102727
H	 1.1371533045	 0.035967068	-1.9631012964	 0.100902
H	 1.5598093545	-2.6644461645	-1.3615867493	 0.068221
H	 3.7646193843	-1.9642482835	-0.5529011761	 0.099322
H	 3.217661076	-0.2869200858	-0.4867556171	 0.097215
H	 2.9969656472	-2.3533060395	 1.7462641051	 0.097152
H	 2.48284939	-0.6621309294	 1.8828043664	 0.105695
H	 0.697850013	-2.90937461	 1.0398957698	 0.071073
89.0979	125.9601	243.073	311.6717	358.0092	368.8191	428.0054	621.2742	709.3359	728.5152	744.1524	787.7919	847.3082	857.5752	910.1996	916.1884	930.3146	959.4937	995.8408	1052.3192	1058.7966	1080.7672	1110.1645	1146.8926	1156.4027	1198.4051	1217.5338	1232.7482	1257.3112	1269.9107	1276.767	1301.0336	1335.3418	1344.9165	1373.003	1394.5261	1404.6245	1465.675	1482.3739	1491.4228	1493.259	1500.955	3026.1818	3037.1065	3051.2173	3056.5242	3058.4737	3067.2579	3087.2713	3094.4306	3105.379	3107.2266	3120.3206	3125.1876
CC1CC2CCC2O1	C[C@H]1C[C@H]2CC[C@H]2O1	
InChI=1S/C7H12O/c1-5-4-6-2-3-7(6)8-5/h5-7H,2-4H2,1H3	InChI=1S/C7H12O/c1-5-4-6-2-3-7(6)8-5/h5-7H,2-4H2,1H3/t5-,6+,7+/m0/s1
