14
gdb 29054	2.80808	1.72129	1.06715	3.3411	82.39	-0.2243	-0.0867	0.1377	1033.1946	0.102535	-432.898332	-432.890806	-432.889861	-432.930699	27.99	
N	-0.0072329085	 1.3614316821	 0.0097441367	-0.532168
C	-0.0472733379	 0.0188281961	 0.0018090044	 0.228056
C	-1.2522560079	-0.67731011	 0.0053131779	-0.064036
N	-1.5198536958	-1.9860576466	-0.0004692831	-0.239878
C	-0.6650289254	-2.9796480018	-0.0106186131	 0.064832
N	 0.6876705143	-3.0226111462	-0.0177220215	-0.241453
C	 1.509438671	-2.015690552	-0.0172131519	-0.043262
C	 1.3117039166	-0.5709743026	-0.0099122213	 0.303113
O	 2.2795716502	 0.1924587492	-0.0129041215	-0.390694
H	 0.9172261978	 1.7719996277	 0.0028102652	 0.286463
H	-0.8345318964	 1.93057151	 0.0135786848	 0.2722
H	-2.1472090062	-0.051188449	 0.0142215957	 0.101806
H	-1.1209782067	-3.9677570654	-0.0138363317	 0.121267
H	 2.572682705	-2.2647389616	-0.0239186907	 0.133755
66.8399	120.5703	263.1359	331.5391	362.0674	379.4007	398.0173	479.9814	514.7159	630.1366	665.3192	686.0337	752.3176	774.8631	841.2451	909.6974	945.2481	988.9137	1023.6743	1089.9343	1201.7649	1282.6035	1377.301	1409.7848	1418.9247	1470.6652	1499.4019	1565.0845	1604.969	1629.7692	1683.6502	3095.4548	3114.1417	3150.1551	3553.1328	3727.2984
NC1=CN=CN=CC1=O	Nc1cncncc1=O	
InChI=1S/C5H5N3O/c6-4-1-7-3-8-2-5(4)9/h1-3H,(H2,6,9)	InChI=1S/C5H5N3O/c6-4-1-7-3-8-2-5(4)9/h1-3H,(H2,6,9)
