19
gdb 70853	3.5431	1.56929	1.3145	1.3882	77.45	-0.2139	0.0727	0.2866	1008.4655	0.159652	-385.844578	-385.837156	-385.836211	-385.875683	31.19	
C	-0.0026176668	 1.4606856915	 0.0984148562	-0.492917
C	-0.0519945108	-0.0417633962	 0.0072434642	 0.32563
C	-1.2895663707	-0.7704563226	-0.4800489104	-0.352358
C	-0.7893566247	-2.2005719436	-0.366422002	 0.384066
O	-1.6027343179	-3.2926370165	-0.6398103328	-0.479685
C	 0.1781102732	-2.3366274007	 0.7865618695	-0.120973
C	 0.6722890357	-0.8951173977	 1.0417920908	-0.126297
C	 1.1997101953	-0.823438786	-0.3814828753	-0.128731
C	 0.709549575	-2.2646803149	-0.6392156843	-0.167075
H	 0.9698952357	 1.8012007884	 0.4697970528	 0.115932
H	-0.163682638	 1.9257164821	-0.8810314556	 0.116385
H	-0.7701480414	 1.8448024641	 0.7800541935	 0.118154
H	-2.1625105706	-0.5945231743	 0.1590098875	 0.101442
H	-1.5525432405	-0.5019838929	-1.511584791	 0.08525
H	-1.722516311	-3.3444319441	-1.5945013267	 0.283104
H	 0.1656636716	-3.1711728775	 1.4735881871	 0.091428
H	 1.0976684354	-0.5042149259	 1.9568085002	 0.081567
H	 2.1024949518	-0.3620411164	-0.7603797884	 0.081094
H	 1.1805652789	-3.035706157	-1.2338404551	 0.083985
219.3005	223.1341	253.7808	286.9037	336.8929	380.8061	434.9942	533.3962	544.3954	582.6553	722.0292	759.4117	776.0973	801.1855	804.7878	858.0356	898.0143	906.5078	936.6777	952.1723	965.9187	991.926	1016.1798	1038.4317	1070.8729	1099.1079	1130.713	1169.4494	1180.2418	1201.2226	1206.2186	1244.9986	1295.6185	1320.0392	1328.4922	1387.0706	1420.1871	1430.5614	1491.0703	1491.8605	1501.518	3019.8293	3023.6798	3069.1539	3082.4454	3091.7661	3186.9423	3198.4269	3203.8694	3216.6726	3793.4496
CC12CC3(O)C4C1C2C34	C[C@]12C[C@]3(O)[C@@H]4[C@H]1[C@H]2[C@H]34	
InChI=1S/C8H10O/c1-7-2-8(9)5-3(7)4(7)6(5)8/h3-6,9H,2H2,1H3	InChI=1S/C8H10O/c1-7-2-8(9)5-3(7)4(7)6(5)8/h3-6,9H,2H2,1H3/t3-,4+,5-,6+,7+,8+
