19
gdb 17078	6.16115	1.02403	0.99378	2.6501	72.12	-0.2386	0.0857	0.3243	1221.089	0.165978	-365.001037	-364.993039	-364.992094	-365.034668	28.681	
C	-0.1763131179	 1.6073496758	 0.1003734389	-0.161116
C	-0.0942065008	 0.1062506535	-0.1324654779	-0.025141
C	 0.3088688295	-0.7413427702	 1.0930292325	-0.069402
O	-1.0083165878	-1.3309852848	 1.1739043718	-0.273642
C	-1.4304326093	-0.6617030441	-0.0300506971	-0.088284
N	 1.1553724623	 2.1720876728	 0.2841197588	-0.061188
C	 1.8351580223	 2.6351034899	-0.9223293709	-0.220332
C	 1.2890633227	 3.6066119429	 0.065239632	-0.219824
H	-0.7203354102	 2.0853218463	-0.7368779219	 0.078017
H	-0.7545319209	 1.8044245688	 1.0123527544	 0.108551
H	 0.483343882	-0.1022913275	-1.0366312574	 0.077274
H	 1.0830452904	-1.4971544595	 0.9105856237	 0.096735
H	 0.5688019263	-0.1752146916	 1.9948999554	 0.11005
H	-2.3258723919	-0.0462069426	 0.1314345906	 0.096365
H	-1.6316489609	-1.3686292904	-0.8455608861	 0.095927
H	 2.9019567278	 2.4376940901	-0.9734260355	 0.118647
H	 1.308350811	 2.5452826505	-1.8716738986	 0.108726
H	 0.3996462474	 4.1632056235	-0.2270330166	 0.109675
H	 1.9496468382	 4.1311095367	 0.7496490937	 0.11896
49.4614	78.3365	101.3696	160.8699	297.9882	354.6475	425.0347	464.7835	768.3647	793.4439	837.3669	872.2767	890.6143	899.0955	926.7096	975.746	1029.2214	1030.1295	1038.4976	1064.794	1105.946	1115.4871	1118.8417	1150.5252	1159.848	1164.606	1182.3092	1209.2506	1250.7727	1289.9958	1310.0705	1323.3036	1343.6294	1387.6056	1407.8497	1487.5166	1495.9431	1515.5946	1523.6888	1540.8505	2918.8653	2999.9133	3018.1458	3037.7355	3039.5101	3062.3114	3081.1502	3091.9306	3096.7696	3176.5199	3190.7759
C(C1COC1)N1CC1	C(C1COC1)N1CC1	
InChI=1S/C6H11NO/c1-2-7(1)3-6-4-8-5-6/h6H,1-5H2	InChI=1S/C6H11NO/c1-2-7(1)3-6-4-8-5-6/h6H,1-5H2
