16
gdb 14724	11.96283	0.54086	0.52248	4.5045	73.59	-0.2631	-0.0579	0.2052	1978.9256	0.127598	-383.713112	-383.703426	-383.702482	-383.749737	31.39	
O	-0.0422922269	 1.4515633545	 0.010418175	-0.419951
C	 0.0337155031	 0.0364874419	 0.0019854586	-0.074515
C	-1.3920776448	-0.4997473778	 0.0126172663	-0.161278
C	-1.4302472406	-2.0391672335	 0.0046861714	-0.365952
C	-2.7779451545	-2.5863154778	 0.0143248151	 0.066911
C	-3.8983805456	-3.0384016558	 0.0227064704	 0.067069
C	-5.2463597943	-3.5423148997	 0.0328027601	 0.016938
O	-5.5430096798	-4.7156250406	 0.0307408174	-0.230393
H	 0.8525399152	 1.8036366688	 0.0037930267	 0.289126
H	 0.5641476135	-0.3318000462	-0.8921078773	 0.088352
H	 0.581004836	-0.3414561859	 0.8817758729	 0.08835
H	-1.9095638336	-0.1203561904	 0.8993721039	 0.124163
H	-1.9263037267	-0.1107489563	-0.8599406864	 0.124158
H	-0.9022904382	-2.4249910122	-0.8782044475	 0.144841
H	-0.8854989709	-2.43437936	 0.873134347	 0.144845
H	-6.0243180519	-2.7516119091	 0.0432059767	 0.097335
24.2067	63.8575	69.4252	106.7493	165.2806	186.726	255.6922	261.2946	389.432	407.1896	518.5947	600.1802	749.0577	832.6715	859.1771	1018.2995	1022.3724	1028.8179	1086.4114	1110.6271	1161.3407	1211.5823	1230.5691	1294.9539	1301.4455	1311.6485	1371.7488	1423.1868	1459.4767	1467.497	1497.5167	1527.6904	1766.558	2331.3182	2915.6081	2955.2436	2980.5789	3012.2878	3040.7344	3056.6038	3103.5874	3831.6141
OCCCC#CC=O	OCCCC#CC=O	
InChI=1S/C6H8O2/c7-5-3-1-2-4-6-8/h6-7H,1,3,5H2	InChI=1S/C6H8O2/c7-5-3-1-2-4-6-8/h6-7H,1,3,5H2
