17
gdb 72734	2.71157	2.01751	1.59843	0.5895	67.7	-0.2377	0.0354	0.2731	874.6471	0.136268	-458.824071	-458.817326	-458.816382	-458.854626	28.696	
O	 0.1891339877	 1.3311967127	 0.1125846989	-0.46621
C	 0.1760064163	-0.0764148826	-0.018047324	 0.363714
C	 0.1436225775	-0.4285204076	-1.5462789613	-0.232273
O	-1.3518521281	-0.4422983897	-1.4580213341	-0.373849
C	-1.1788511718	-0.7249204351	-0.036318605	 0.294126
C	-1.4088449433	-0.2077151182	 1.4270746614	-0.33149
C	 0.1436223629	-0.6662244658	 1.4575358163	 0.026316
O	 0.0778896939	-2.0693797981	 1.3379138287	-0.257091
C	-0.8831129051	-2.2124830128	 0.2685821618	-0.12234
H	-0.4175848699	 1.696885082	-0.5456471472	 0.285967
H	 0.4913073986	 0.3675293463	-2.2085061955	 0.120665
H	 0.5294817763	-1.3955912043	-1.8714539025	 0.127967
H	-1.5390612032	 0.8622318464	 1.5383301679	 0.133543
H	-2.0777050524	-0.7812135063	 2.072270733	 0.107774
H	 0.8329961881	-0.3629464119	 2.2440047271	 0.102642
H	-1.7681950913	-2.7535305527	 0.6206005541	 0.11025
H	-0.4400883363	-2.7641089024	-0.5641556496	 0.110288
206.9362	287.5051	334.5458	388.4588	438.6087	464.8644	486.6511	501.3812	556.9361	602.9156	664.4558	746.4344	841.7201	873.1079	883.0794	904.4381	941.181	942.5194	970.4496	1008.6252	1044.6802	1073.9564	1088.7851	1125.3745	1140.9984	1157.9548	1179.3365	1187.0973	1193.1692	1241.9762	1272.6183	1289.3084	1347.9362	1371.2357	1478.0623	1498.2503	1539.2872	3041.5441	3069.6912	3089.4723	3095.458	3139.9185	3141.2551	3215.6135	3746.9972
OC12COC11CC2OC1	O[C@]12CO[C@@]31C[C@H]2OC3	
InChI=1S/C6H8O3/c7-6-3-9-5(6)1-4(6)8-2-5/h4,7H,1-3H2	InChI=1S/C6H8O3/c7-6-3-9-5(6)1-4(6)8-2-5/h4,7H,1-3H2/t4-,5+,6+/m1/s1
