18
gdb 9179	7.63666	0.78952	0.72822	2.3474	74.73	-0.246	-0.0143	0.2317	1534.7264	0.149944	-347.800479	-347.790613	-347.789669	-347.840208	33.701	
C	 0.1101603819	 1.5356158765	 0.0090573266	-0.374838
C	-0.0477931074	 0.0171409074	 0.0024067562	-0.27718
C	-1.4990387964	-0.4453052436	 0.0137633498	 0.372922
O	-2.42350788	 0.3361743452	 0.0271866624	-0.29552
C	-1.7264171718	-1.9522649759	 0.0078733594	-0.292889
C	-3.2162614834	-2.3303230324	 0.0202597087	-0.35617
C	-3.4220103511	-3.7729850997	 0.014425952	 0.284786
C	-3.5654374197	-4.9664733033	 0.0097136721	-0.430578
H	 1.1676706012	 1.8135774535	 0.0005541819	 0.110944
H	-0.3727333131	 1.9819145976	-0.8638559365	 0.132105
H	-0.3561157681	 1.9724726004	 0.8956714815	 0.13212
H	 0.439576051	-0.4294489888	-0.8754281873	 0.122315
H	 0.4561437907	-0.4387773487	 0.8659824634	 0.122336
H	-1.22827695	-2.3807394674	-0.8710103567	 0.133037
H	-1.2114036603	-2.3901002051	 0.8723041207	 0.133051
H	-3.6943009269	-1.8832471233	 0.8988285976	 0.14528
H	-3.7111756139	-1.87388534	-0.8440279922	 0.145263
H	-3.7103180426	-6.0181343224	 0.0059046804	 0.193019
0.6688	51.287	72.427	103.125	199.9362	209.5202	288.3602	343.6597	364.8688	469.7006	511.3353	619.063	639.6457	648.5675	703.8069	802.3775	825.4886	953.7414	967.1927	991.122	1021.5118	1076.8648	1095.4625	1129.1363	1183.2282	1277.3879	1289.5236	1309.7633	1364.9742	1385.0717	1414.9196	1444.2688	1456.8721	1468.9633	1493.4369	1498.45	1804.072	2239.7961	3016.3238	3034.0774	3042.3366	3047.98	3052.4868	3061.075	3083.3917	3123.8787	3128.6529	3508.201
CCC(=O)CCC#C	CCC(=O)CCC#C	
InChI=1S/C7H10O/c1-3-5-6-7(8)4-2/h1H,4-6H2,2H3	InChI=1S/C7H10O/c1-3-5-6-7(8)4-2/h1H,4-6H2,2H3
