17
gdb 66115	2.61527	1.50799	1.3402	1.3937	71.36	-0.2697	0.019	0.2886	1017.6416	0.137331	-418.005811	-417.997799	-417.996855	-418.038161	30.773	
N	-0.0659642429	 1.4593165888	 0.0473050093	-0.537468
C	-0.0103962805	-0.0003005176	 0.0087673755	 0.098144
C	 0.6405061318	-0.5781128852	 1.3004179284	-0.253186
C	-0.0042111433	-1.9646619832	 1.5134877427	-0.254022
C	-1.3843018955	-1.8111850736	 0.9054474723	 0.058449
O	-2.038354377	-0.5901667821	 1.2900902545	-0.254415
C	-1.4046324152	-0.6428579129	 0.019562713	 0.043786
C	 0.6977378953	-0.50754599	-1.192290896	 0.23588
N	 1.245697019	-0.8657444028	-2.1461787608	-0.339876
H	 0.8747023489	 1.8402822668	 0.1031431417	 0.242034
H	-0.4714350912	 1.8210495975	-0.8116580066	 0.241562
H	 1.729056534	-0.6184358224	 1.2305696127	 0.11716
H	 0.3652981724	 0.1002920548	 2.1091637384	 0.141274
H	 0.5392026833	-2.7485562897	 0.9736536759	 0.125214
H	-0.0346198911	-2.2482415401	 2.5693456086	 0.120369
H	-2.0386703853	-2.6659065382	 0.7593907739	 0.105048
H	-2.0476501328	-0.5472071803	-0.8517196536	 0.11005
110.1164	145.2159	210.4595	238.982	269.4346	353.9105	388.4465	474.5661	483.6093	558.0159	641.8912	692.5259	742.1579	832.9792	849.0272	876.4241	883.0581	935.8508	951.9609	1006.1947	1030.5683	1046.1059	1092.6335	1129.3599	1167.3908	1212.3598	1227.2622	1262.1952	1308.98	1316.6668	1337.2192	1362.9757	1436.7389	1480.7416	1490.8964	1659.9909	2336.234	3049.2283	3085.0538	3096.7812	3140.4774	3147.37	3163.0955	3488.8623	3567.2984
NC1(CCC2OC12)C#N	N[C@]1(CC[C@H]2O[C@@H]12)C#N	
InChI=1S/C6H8N2O/c7-3-6(8)2-1-4-5(6)9-4/h4-5H,1-2,8H2	InChI=1S/C6H8N2O/c7-3-6(8)2-1-4-5(6)9-4/h4-5H,1-2,8H2/t4-,5-,6-/m1/s1
