21
gdb 82499	2.63151	1.80639	1.43816	1.3753	81.92	-0.2359	0.0873	0.3232	1017.1934	0.1832	-387.063487	-387.055653	-387.054709	-387.095205	32.154	
C	-0.1421144107	 1.6057311806	-0.0749334878	-0.429367
C	 0.0218528321	 0.0969464643	 0.0012900481	 0.030141
C	 1.1986925742	-0.5996821953	-0.7359025171	 0.058933
O	 2.3476106026	 0.0918381255	-0.226983926	-0.301765
C	 2.2311172181	-0.3299964103	 1.1504053407	 0.421661
C	 3.0003131319	 0.5617703437	 2.0826292308	-0.502569
C	 2.4592084465	-1.8573814577	 1.0136804458	-0.276103
C	 1.1056783895	-1.7983672428	 0.2974823006	-0.068817
C	 0.6585358755	-0.6053167582	 1.2151454355	-0.124525
H	 0.8201377339	 2.1067057552	 0.0533879143	 0.131113
H	-0.5532633275	 1.9090444009	-1.0445054647	 0.111038
H	-0.8266276111	 1.9666362292	 0.7006086137	 0.10974
H	-0.9152258498	-0.4195186298	-0.2390003916	 0.069218
H	 1.2582113004	-0.7166897529	-1.8175675935	 0.071411
H	 2.6168307223	 1.58595847	 2.0534212892	 0.12724
H	 2.9284910707	 0.1949372847	 3.1106767542	 0.117315
H	 4.0579606781	 0.5855632968	 1.7996321077	 0.129003
H	 3.354833803	-2.1746645813	 0.4727441535	 0.09614
H	 2.3739740373	-2.3815159474	 1.9700709872	 0.095334
H	 0.4777875766	-2.6550720842	 0.0610247405	 0.070534
H	 0.1878699464	-0.7231051111	 2.1905980489	 0.064324
165.0809	192.7846	198.8415	241.9298	291.2744	327.3152	450.9198	509.6607	576.5099	617.8647	683.1767	704.6823	779.8006	814.817	840.1771	855.8776	886.1645	898.4285	953.664	956.9845	997.1444	1012.5196	1036.1879	1042.9566	1080.4846	1094.1331	1125.9109	1146.0382	1154.6313	1186.4123	1192.1588	1201.0779	1239.3603	1262.0994	1277.7346	1320.6142	1338.8536	1386.7462	1406.5747	1417.0996	1481.4863	1482.7057	1490.0319	1492.192	1505.6359	3030.8846	3038.2206	3041.0405	3051.6669	3088.9839	3107.4627	3112.6041	3116.0788	3122.3666	3123.2247	3126.2787	3139.7734
CC1C2OC3(C)CC2C13	C[C@H]1[C@H]2O[C@]3(C)C[C@H]2[C@H]13	
InChI=1S/C8H12O/c1-4-6-5-3-8(6,2)9-7(4)5/h4-7H,3H2,1-2H3	InChI=1S/C8H12O/c1-4-6-5-3-8(6,2)9-7(4)5/h4-7H,3H2,1-2H3/t4-,5+,6+,7-,8-/m1/s1
