19
gdb 109367	2.4574	1.36946	0.91152	2.0734	79.34	-0.2359	-0.0419	0.194	1271.5935	0.159807	-423.065589	-423.056793	-423.055849	-423.09929	32.742	
O	 0.0344377291	 1.4110321892	-0.0160830434	-0.42498
C	-0.0001112967	-0.0050603256	-0.0364575302	-0.155394
C	-1.4290189357	-0.4785322682	 0.0019018551	 0.165601
C	-2.4789297538	 0.3555566356	 0.0501552854	-0.123952
C	-3.9110630554	-0.0976801367	 0.056971152	-0.255059
C	-4.0678904773	-1.5272847386	-0.4751078474	-0.221342
C	-3.0392906643	-2.4611797875	 0.1711122827	-0.302384
C	-1.6139071135	-1.9496113423	 0.007919121	 0.329164
O	-0.6628819307	-2.7060638823	-0.0712594052	-0.334092
H	 0.9550018997	 1.6845370403	-0.0440509265	 0.292022
H	 0.482423372	-0.4128375318	-0.9380808401	 0.112624
H	 0.5416872809	-0.4388201003	 0.8185217748	 0.109964
H	-2.2863506518	 1.4237674846	 0.0888761277	 0.124303
H	-4.3000515638	-0.0310336029	 1.0856242048	 0.118447
H	-4.5198193036	 0.6018343105	-0.5279564546	 0.112047
H	-5.084150568	-1.8946152624	-0.2998995066	 0.101125
H	-3.9150146641	-1.5206369005	-1.561468678	 0.109937
H	-3.2321119578	-2.5340274088	 1.2519363913	 0.121207
H	-3.0835454654	-3.4779442022	-0.2275947927	 0.120762
76.0887	103.8365	190.507	207.6443	225.9613	286.1406	332.374	343.5371	461.364	475.6069	545.9751	612.9413	709.6418	739.3514	816.0589	867.5615	886.834	927.6103	983.6648	1041.6599	1059.0762	1080.9948	1087.7073	1131.115	1152.7839	1180.7125	1227.5827	1244.5639	1267.2812	1271.4868	1347.8326	1368.4611	1379.3609	1389.0942	1458.447	1461.4945	1472.817	1496.3964	1501.6109	1704.9856	1762.2565	2981.1444	2987.7951	3000.8891	3008.4918	3031.3713	3052.8981	3078.0497	3099.4409	3180.6189	3845.9436
OCC1=CCCCC1=O	OCC1=CCCCC1=O	
InChI=1S/C7H10O2/c8-5-6-3-1-2-4-7(6)9/h3,8H,1-2,4-5H2	InChI=1S/C7H10O2/c8-5-6-3-1-2-4-7(6)9/h3,8H,1-2,4-5H2
