17
gdb 37693	3.26433	2.16321	1.72765	1.6303	73.91	-0.2355	0.01	0.2454	816.6035	0.140213	-384.658483	-384.652989	-384.652045	-384.687918	24.81	
O	-0.0558023837	 1.4956026513	 0.0418724197	-0.298631
C	 1.4016834558	 1.3616483806	-0.0044495933	 0.038603
C	 1.7180472301	 0.7175513865	 1.3517348113	-0.07578
C	 2.0788310012	-0.7709319995	 1.3435554962	-0.085436
C	 2.6456747194	-1.3884789335	 0.1324034127	-0.079983
C	 2.2094368757	-0.9344455642	-1.0450219762	-0.112201
C	 1.1989492312	 0.1453391641	-0.9799296028	-0.062736
C	-0.0181767683	 0.0320977019	 0.0089342047	 0.038603
C	 0.617376726	-0.3130903755	 1.3621159957	-0.075777
H	 1.9248227927	 2.2721326681	-0.2929469647	 0.077952
H	 1.9793740842	 1.3319578475	 2.2033958191	 0.097745
H	 2.4393305938	-1.1463405485	 2.2963192477	 0.086614
H	 3.3842656431	-2.1762337491	 0.2331869032	 0.097755
H	 2.5565104435	-1.3147022062	-1.9989717852	 0.093333
H	 0.8468689264	 0.5116498987	-1.9426493447	 0.084244
H	-0.9638575905	-0.4328145214	-0.2657133465	 0.077952
H	-0.0042599407	-0.5254623308	 2.222104313	 0.097746
326.2163	378.183	488.5862	546.7803	582.8892	614.1355	709.529	749.4217	750.7774	770.4926	785.3395	851.5545	853.5927	882.2246	922.332	943.6499	943.6593	962.3432	991.7554	1012.5362	1013.8739	1042.4417	1087.78	1092.0294	1140.0738	1144.167	1152.7382	1194.2885	1234.1924	1250.3581	1282.2072	1302.5941	1317.5795	1371.6064	1393.1689	1436.6533	1690.7865	3128.0153	3132.2171	3138.3157	3155.8793	3179.984	3193.6755	3201.1419	3204.786
O1C2C3C4C=CC2C1C34	O1[C@H]2[C@@H]3[C@@H]4C=C[C@H]2[C@H]1[C@H]34	
InChI=1S/C8H8O/c1-2-4-7-5-3(1)6(5)8(4)9-7/h1-8H	InChI=1S/C8H8O/c1-2-4-7-5-3(1)6(5)8(4)9-7/h1-8H/t3-,4+,5+,6-,7+,8-
