18
gdb 36122	3.92189	1.11311	0.99106	3.8886	80.32	-0.2407	0.0088	0.2495	1204.8722	0.148988	-364.828416	-364.820565	-364.819621	-364.861131	30.36	
N	-0.0980393677	-1.0965582091	 0.4570356191	-0.312152
C	-0.0622311413	 0.0252846353	 0.1822898298	 0.272251
C	 0.0059263738	 1.4468192666	-0.17161648	-0.447793
C	 1.4256496307	 1.9852948686	-0.1523526835	 0.36028
C	 2.0035983778	 2.4764263961	 1.1491559149	-0.310836
C	 1.7056028315	 3.469910691	 0.0391793597	-0.142904
C	 2.8538151529	 3.7732081632	-0.864003561	-0.067965
C	 3.2665496616	 2.6854300623	-1.5187865106	-0.083762
C	 2.4131359906	 1.473730817	-1.209039189	-0.328974
H	-0.4395671575	 1.572366554	-1.1664828823	 0.150684
H	-0.624927462	 2.004824184	 0.5295015399	 0.148191
H	 1.3427980922	 2.4733719583	 2.0106936628	 0.115123
H	 3.0438185861	 2.2667268885	 1.3749201032	 0.120209
H	 0.9105224215	 4.1937927815	 0.1859800158	 0.089303
H	 3.3025092946	 4.7575083881	-0.9288855042	 0.100938
H	 4.1187310111	 2.6385347496	-2.1866422966	 0.099909
H	 3.0047913797	 0.6244009277	-0.8465158266	 0.127465
H	 1.8861398745	 1.1170089573	-2.1056866214	 0.110034
61.5741	110.4477	214.7315	297.5045	358.5878	379.4078	396.2085	452.1235	494.7057	674.2796	723.4715	747.8232	779.8986	858.638	886.7318	909.0875	930.5666	947.301	957.9644	974.5833	1005.4147	1020.1585	1049.4674	1075.5107	1080.73	1142.2875	1171.8625	1199.7195	1245.784	1292.2654	1328.5477	1333.3548	1372.4495	1398.968	1458.3836	1472.7993	1491.2528	1669.5017	2360.6306	3006.7735	3032.6665	3052.108	3074.3089	3124.0035	3161.6516	3192.0424	3213.5929	3216.2592
N#CCC12CC1C=CC2	N#CC[C@]12C[C@H]1C=CC2	
InChI=1S/C8H9N/c9-5-4-8-3-1-2-7(8)6-8/h1-2,7H,3-4,6H2	InChI=1S/C8H9N/c9-5-4-8-3-1-2-7(8)6-8/h1-2,7H,3-4,6H2/t7-,8-/m1/s1
