16
gdb 22931	2.56705	1.31509	1.09912	1.0636	70.15	-0.2215	0.0085	0.23	1130.5123	0.122282	-474.935798	-474.927084	-474.92614	-474.968947	32.99	
O	-0.2452268562	 1.3650400627	 0.1268899312	-0.390422
N	-0.0236974196	-0.0156092775	-0.0435078473	-0.277745
C	-1.1202175283	-0.6418987074	-0.1680804657	 0.350262
C	-2.5947993612	-0.322048527	 0.0370611149	-0.320838
C	-2.8537270987	-1.8343587765	 0.154254658	-0.190278
C	-2.4260682282	-2.5215357724	-1.0959037393	 0.067743
O	-2.6900584142	-1.9322249773	-2.3354736548	-0.421894
C	-1.3113751769	-2.1098773711	-0.1832951615	 0.255733
O	-0.3925402066	-3.0346146882	 0.2390895974	-0.444852
H	 0.6519754047	 1.7050640439	 0.2098056855	 0.306513
H	-2.7553430804	 0.2342994363	 0.9636564745	 0.128113
H	-3.0983798718	 0.1835521019	-0.7884643824	 0.136356
H	-3.4941435666	-2.3033287759	 0.8898087748	 0.108045
H	-2.5713050594	-3.6034664442	-1.0629513212	 0.103821
H	-1.9594860057	-2.1381732046	-2.9283135885	 0.292217
H	 0.1305649789	-2.6258252427	 0.9400749942	 0.297225
77.4603	169.8066	234.7133	247.1353	254.3289	282.9576	326.4662	368.8891	383.5711	473.2684	530.9752	555.2577	601.622	664.0987	747.5065	798.8046	877.3699	887.7778	957.4821	993.8471	1001.1156	1043.4894	1081.5399	1139.547	1146.243	1214.1734	1240.1913	1266.4792	1308.5717	1352.0115	1376.0559	1427.8336	1462.0451	1497.7057	1773.8839	3076.286	3091.3702	3129.1391	3204.3677	3779.292	3811.5159	3819.4037
ON=C1CC2C(O)C12O	ON=C1C[C@H]2[C@@H](O)[C@@]12O	
InChI=1S/C5H7NO3/c7-4-2-1-3(6-9)5(2,4)8/h2,4,7-9H,1H2	InChI=1S/C5H7NO3/c7-4-2-1-3(6-9)5(2,4)8/h2,4,7-9H,1H2/t2-,4+,5-/m0/s1
