16
gdb 23288	4.1778	1.08963	1.03467	1.0886	68.6	-0.2465	-0.0004	0.2461	1156.6159	0.124381	-474.945605	-474.938085	-474.937141	-474.97752	29.69	
O	-0.1713562813	 1.311939548	 0.0374054964	-0.388757
N	 0.0004754086	-0.0823404935	-0.0177437282	-0.278562
C	-1.1175358607	-0.6782415848	-0.0094436254	 0.486735
C	-2.5566159154	-0.1810187622	 0.0495925525	-0.325437
C	-3.2018509606	-1.5792395837	-0.0202364362	 0.010555
O	-2.3847716854	-2.3491283431	 0.9342124892	-0.326119
C	-1.3175967357	-2.1669213636	-0.0719061551	-0.083577
C	-2.4362449552	-2.3103111582	-1.157736521	 0.18989
O	-2.8485423652	-3.6179195072	-1.4090681311	-0.450466
H	 0.7381604106	 1.6302062574	 0.0421832781	 0.309221
H	-2.7788468887	 0.3313944854	 0.9891577126	 0.141109
H	-2.8116072051	 0.4838387965	-0.7809389063	 0.131146
H	-4.2759985525	-1.6849243644	 0.1280693533	 0.093035
H	-0.4686928185	-2.8405310303	 0.0191739614	 0.100979
H	-2.3023527103	-1.8071577569	-2.1183599316	 0.099291
H	-2.9555630646	-4.0391662794	-0.5453881085	 0.290957
101.1056	196.3015	252.246	312.8109	341.3222	403.326	438.8073	468.7799	518.5855	570.962	628.3804	698.7601	807.2863	830.3009	839.8153	915.6745	930.5937	938.8868	980.1405	981.2878	1017.7971	1092.2804	1134.6856	1170.0994	1185.536	1210.7734	1225.2074	1249.1286	1279.95	1299.2779	1326.4237	1410.7236	1443.532	1463.3143	1789.2067	3064.9619	3093.6479	3112.5089	3133.3966	3162.1302	3763.5831	3813.5467
ON=C1CC2OC1C2O	ON=C1C[C@@H]2O[C@H]1[C@H]2O	
InChI=1S/C5H7NO3/c7-4-3-1-2(6-8)5(4)9-3/h3-5,7-8H,1H2	InChI=1S/C5H7NO3/c7-4-3-1-2(6-8)5(4)9-3/h3-5,7-8H,1H2/t3-,4-,5+/m0/s1
