17
gdb 106010	3.36006	1.71792	1.47323	0.6646	70.01	-0.2307	0.0772	0.3079	925.3411	0.136043	-421.726246	-421.719258	-421.718314	-421.757668	27.837	
C	 0.0660408635	 1.3599027799	 0.0249334999	-0.261556
O	 0.0338337886	-0.0605178025	-0.020159674	-0.294963
C	-1.2189768423	-0.5911477787	-0.0014150053	 0.449979
C	-1.5125549033	-2.1158926927	-0.043052548	-0.199341
C	-2.8009842375	-1.780242381	-0.7586874499	-0.083318
C	-2.7568645977	-1.8303941429	 0.7662983708	-0.083316
C	-2.3971932779	-0.3409446719	 1.0315248165	-0.038601
O	-3.1313150865	 0.4651472239	 0.0886912691	-0.285065
C	-2.4544605204	-0.2758883775	-0.9458725138	-0.038621
H	 1.1178836296	 1.6500680277	 0.0050894067	 0.130966
H	-0.4500137716	 1.7989695426	-0.8381403156	 0.124608
H	-0.4005661396	 1.7414106514	 0.9418308765	 0.124665
H	-0.869306515	-2.9812535143	-0.0901231781	 0.10047
H	-3.4368012704	-2.4157140588	-1.3588250191	 0.095605
H	-3.3581683877	-2.5050915882	 1.3591461236	 0.095606
H	-2.3532804004	 0.0621635211	 2.0418289684	 0.081441
H	-2.4682859214	 0.192747402	-1.9283835876	 0.081441
98.5229	180.9508	183.1518	340.6982	391.7421	524.7461	567.3438	630.5421	743.9176	762.0711	811.1227	823.5374	828.8875	849.9218	894.1936	925.6259	928.7374	953.6416	994.3496	1002.5885	1033.4143	1046.8679	1081.8061	1103.287	1125.2507	1146.8391	1179.7287	1195.3966	1206.6042	1244.3253	1262.321	1290.1329	1341.7876	1383.8921	1488.651	1494.7254	1499.6314	3011.4138	3069.7317	3133.6235	3136.8061	3140.3601	3209.823	3215.7263	3237.5683
COC12C3C4C3C1OC24	CO[C@@]12[C@@H]3[C@H]4[C@@H]3[C@@H]1O[C@@H]24	
InChI=1S/C7H8O2/c1-8-7-4-2-3(4)6(7)9-5(2)7/h2-6H,1H3	InChI=1S/C7H8O2/c1-8-7-4-2-3(4)6(7)9-5(2)7/h2-6H,1H3/t2-,3+,4-,5-,6+,7-
