18
gdb 117120	2.545	1.00062	0.74219	1.5055	74.13	-0.2683	-0.0361	0.2322	1515.3409	0.143981	-439.099906	-439.089462	-439.088517	-439.13677	35.313	
C	-0.4845585678	 1.2954627742	-0.1500016045	-0.231637
O	 0.5457104759	 0.3359817786	-0.0458021083	-0.215577
C	 0.4923242942	-0.6233605449	-1.0525276082	-0.169951
C	 1.5789482963	-1.6633217568	-0.8348704618	 0.368834
O	 2.2674122935	-1.7082844484	 0.1472030984	-0.267388
C	 1.8115280139	-2.6724282214	-1.9986895693	-0.251476
C	 2.5039483631	-3.9546336698	-1.5061861528	-0.388345
C	 0.5876920619	-2.9614985478	-2.7462549558	 0.273821
N	-0.3847085958	-3.1951406092	-3.3265345131	-0.328178
H	-0.4259676832	 1.8563424857	-1.0955544396	 0.110368
H	-1.4804451671	 0.8312136974	-0.0848821277	 0.113543
H	-0.3598732284	 1.9898231503	 0.6832527343	 0.13816
H	-0.4784662075	-1.1514667288	-1.0785038835	 0.137749
H	 0.6171816787	-0.1847062403	-2.0605941868	 0.115939
H	 2.4869776887	-2.144755514	-2.6891791995	 0.158567
H	 3.3873972443	-3.680380979	-0.9289662503	 0.154238
H	 1.8362554413	-4.528896697	-0.8598337298	 0.145411
H	 2.7958577579	-4.5803557386	-2.3518462417	 0.13592
30.5343	85.9985	91.3335	109.4771	185.3143	196.2164	231.0804	241.5581	287.8274	339.2215	398.2782	466.8628	511.4003	571.1453	673.0254	804.0066	883.1109	948.8851	974.2726	1042.5596	1077.0093	1124.9653	1139.241	1174.8275	1183.6403	1240.7233	1246.964	1276.7508	1308.0491	1406.5632	1411.6258	1463.3136	1487.5928	1489.0741	1490.0296	1496.6925	1514.0694	1843.1339	2351.8685	2937.3815	2960.7908	2978.3086	3008.024	3026.002	3064.7503	3126.8911	3140.6971	3159.1342
COCC(=O)C(C)C#N	COCC(=O)[C@@H](C)C#N	
InChI=1S/C6H9NO2/c1-5(3-7)6(8)4-9-2/h5H,4H2,1-2H3	InChI=1S/C6H9NO2/c1-5(3-7)6(8)4-9-2/h5H,4H2,1-2H3/t5-/m0/s1
