19
gdb 63151	2.31906	1.6751	1.3486	1.9803	75.25	-0.2404	-0.0268	0.2135	1047.4348	0.157743	-423.0145	-423.00571	-423.004766	-423.047788	32.868	
C	 0.1979524228	 1.536700101	-0.0905458987	-0.44857
C	 0.0534669764	 0.0221940295	-0.0197943348	 0.155318
C	-1.3915567714	-0.41907432	 0.2641023071	-0.436809
C	 0.6783010685	-0.8306155025	-1.1709878246	 0.079989
O	 1.8737451513	-0.2567605102	-1.7358597349	-0.286543
C	 2.7262170339	-1.0758982257	-0.9055148529	-0.090047
C	 1.5126023763	-1.6732891976	-0.1559927996	-0.22681
C	 1.0020761289	-0.732719079	 0.947933088	 0.38077
O	 1.2343335987	-0.6286432285	 2.1176917361	-0.311299
H	 1.1934014934	 1.8149461819	-0.4433395482	 0.135548
H	-0.5391198167	 1.9675757448	-0.7769841142	 0.116161
H	 0.0396085847	 1.9770853055	 0.8988151514	 0.130786
H	-2.0622414297	-0.0336919421	-0.5111142801	 0.123822
H	-1.4919094741	-1.5101508619	 0.2855310427	 0.119301
H	-1.7224835531	-0.0351999126	 1.2333393419	 0.138192
H	 0.0045935105	-1.2368293855	-1.9290104521	 0.079035
H	 3.2743470792	-1.812285469	-1.5049014967	 0.114798
H	 3.4370072678	-0.4885015712	-0.31393297	 0.121784
H	 1.4692992524	-2.7498856069	-0.0007735704	 0.104574
77.0151	164.4415	183.8323	210.6676	233.6748	239.7471	277.0155	308.0914	447.4366	491.1556	622.5163	669.0069	723.1618	796.855	835.8241	890.3415	930.3363	954.0329	964.0691	985.3457	1010.1324	1023.2968	1042.4023	1067.1551	1144.9172	1164.2538	1173.2367	1188.8999	1230.0766	1245.5006	1276.5088	1309.0677	1352.6142	1392.9306	1414.1555	1481.8268	1484.631	1500.2774	1507.8197	1523.2393	1884.4757	3023.5591	3027.783	3036.6242	3073.0486	3085.5096	3094.0496	3102.1562	3114.2319	3129.591	3132.4283
CC1(C)C2OCC2C1=O	CC1(C)[C@H]2OC[C@H]2C1=O	
InChI=1S/C7H10O2/c1-7(2)5(8)4-3-9-6(4)7/h4,6H,3H2,1-2H3	InChI=1S/C7H10O2/c1-7(2)5(8)4-3-9-6(4)7/h4,6H,3H2,1-2H3/t4-,6-/m0/s1
