18
gdb 30506	2.48195	1.60409	0.98628	2.247	85.81	-0.2068	-0.0293	0.1775	1187.9282	0.149211	-398.1765	-398.167988	-398.167043	-398.20946	31.748	
C	-0.0277483725	 1.4404806095	 0.0337287583	-0.344326
N	-0.0247702569	-0.0070463926	 0.0487252682	-0.31745
C	 0.5329105996	-0.624899502	-0.9260469402	 0.345778
N	 1.1515798622	 0.0029055792	-2.0259579068	-0.370152
C	 1.7364080602	-0.6821212799	-3.0482991371	 0.099725
N	 1.7910420818	-1.9668476059	-3.1266952197	-0.28844
C	 1.2015960369	-2.6509465418	-2.0770422525	-0.085034
C	 0.5909706407	-2.0793382951	-1.0079908691	 0.207735
C	-0.0328581822	-2.8657843373	 0.1029837644	-0.476324
H	 0.9879417423	 1.8743444162	 0.0393862174	 0.103026
H	-0.5583322626	 1.8621114159	-0.8384027743	 0.102982
H	-0.5373493279	 1.8117620502	 0.9262277101	 0.128654
H	 1.1580895972	 1.0110171927	-2.0515543821	 0.262507
H	 2.1749215611	-0.06645842	-3.8307056853	 0.128082
H	 1.2544776559	-3.7334597422	-2.1549002485	 0.106917
H	 0.0762365649	-3.9399447024	-0.0668098529	 0.113986
H	 0.4225685339	-2.6056678633	 1.0642577592	 0.141237
H	-1.0965459146	-2.6236005412	 0.1987972209	 0.141095
116.8424	162.3287	177.9638	197.3953	214.0875	268.4638	308.2691	446.9193	502.5839	526.0401	529.334	613.7101	654.4697	751.4182	769.0115	877.3649	924.1337	963.5465	1014.541	1061.1629	1069.9801	1095.6092	1106.4661	1140.6245	1173.9004	1216.3534	1292.2373	1410.4738	1414.118	1421.8295	1433.2814	1463.1222	1464.602	1484.6684	1508.6271	1508.7304	1611.4684	1669.4564	1716.8605	2935.2103	2974.2699	3037.536	3092.0407	3098.1094	3122.6727	3158.081	3167.3552	3628.6344
CN=C1NC=NC=C1C	CN=c1[nH]cncc1C	
InChI=1S/C6H9N3/c1-5-3-8-4-9-6(5)7-2/h3-4H,1-2H3,(H,7,8,9)	InChI=1S/C6H9N3/c1-5-3-8-4-9-6(5)7-2/h3-4H,1-2H3,(H,7,8,9)
