17
gdb 49666	4.18152	1.19563	1.09629	2.3732	73.9	-0.2353	-0.0068	0.2285	1111.8431	0.137544	-417.973443	-417.966249	-417.965305	-418.005269	27.867	
O	 0.0695506492	 0.0437027523	 0.5289246417	-0.285992
C	 0.0046596521	 1.1764768963	 0.1205951135	 0.1353
N	 1.0089061097	 1.8221980354	-0.5854120327	-0.085679
C	 2.4135239797	 1.7226795488	-0.2423347213	-0.028543
C	 3.3771117839	 1.8384642944	-1.4184114075	-0.196594
N	 3.2421847058	 3.1934700915	-2.0051008458	-0.104278
C	 1.9608856231	 3.5094164922	-2.6473212379	-0.241713
C	 2.2047310507	 3.929364914	-1.2431513888	-0.047149
C	 1.6856674203	 3.0384650953	-0.1404255302	-0.054432
H	-0.9014385063	 1.8060327652	 0.2098764991	 0.088374
H	 2.6689448794	 1.1269110688	 0.629291619	 0.119368
H	 4.4041216747	 1.7318533153	-1.0540285675	 0.119308
H	 3.2058948748	 1.069185225	-2.1773856075	 0.126863
H	 2.0324614535	 4.2385268565	-3.4501146785	 0.116105
H	 1.2399573578	 2.7126688263	-2.8033717371	 0.133076
H	 2.4193870362	 4.9623422731	-0.985742972	 0.097144
H	 1.4023768255	 3.4658305496	 0.8159892236	 0.10884
97.3772	164.6538	215.4973	273.0837	350.0895	390.6482	501.7335	668.8268	701.9965	718.411	759.6209	790.6207	827.7948	859.3795	927.6456	972.1915	983.319	999.2491	1042.4288	1053.685	1064.3109	1089.0953	1106.6591	1129.0959	1158.2739	1165.7123	1232.4826	1267.3949	1278.3416	1328.6381	1334.7904	1376.2731	1414.791	1433.8662	1487.86	1506.6842	1800.5451	2953.1948	3049.8647	3094.7749	3111.0508	3151.3569	3162.2459	3175.4189	3203.8398
O=CN1C2CN3CC3C12	O=CN1[C@H]2CN3C[C@H]3[C@@H]12	
InChI=1S/C6H8N2O/c9-3-8-5-2-7-1-4(7)6(5)8/h3-6H,1-2H2	InChI=1S/C6H8N2O/c9-3-8-5-2-7-1-4(7)6(5)8/h3-6H,1-2H2/t4-,5-,6+,7?,8?/m0/s1
