15
gdb 127346	5.87072	0.95774	0.82771	5.2104	72.15	-0.2322	-0.0027	0.2295	1325.0075	0.114373	-450.173459	-450.165206	-450.164262	-450.207583	28.531	
C	-0.1979461551	 1.4114708292	 0.151435577	-0.319422
N	-0.023964253	-0.0139708763	-0.0132159964	 0.059215
C	 0.3298697014	-0.7180760362	-1.1024380415	 0.012114
N	 0.3777178071	-2.0124870164	-0.8368973099	-0.30478
C	 0.0321114356	-2.042345412	 0.4735202832	 0.480385
N	-0.0707207026	-3.1865319991	 1.2534702997	-0.398985
C	 0.1440837186	-4.5012843019	 0.8993514499	 0.150259
O	 0.4700433273	-4.9163969639	-0.1816444767	-0.274318
N	-0.2237037801	-0.8618019624	 1.0300414756	-0.352624
H	 0.0103438574	 1.9008127231	-0.8015605865	 0.146623
H	-1.2235035111	 1.634004592	 0.4571168214	 0.156459
H	 0.4895820931	 1.790544685	 0.9119143719	 0.156457
H	 0.5412747114	-0.2578811909	-2.056297894	 0.147278
H	-0.3414994281	-3.0086315654	 2.2092180877	 0.265036
H	-0.0300868719	-5.155336935	 1.7782383586	 0.076304
31.032	112.5499	152.7921	160.1512	231.2064	277.7311	390.5662	431.3236	591.3411	607.1635	639.7489	738.5348	772.4564	853.0177	875.9982	1018.2192	1021.0788	1048.3718	1082.6471	1153.8567	1155.2824	1239.8586	1330.3276	1359.8663	1439.9961	1442.8885	1454.8307	1471.8802	1484.8466	1520.7651	1534.5987	1615.0245	1839.0266	2922.7221	3052.4274	3121.6597	3147.8135	3255.3341	3624.8938
CN1C=NC(NC=O)=N1	Cn1cnc(NC=O)n1	
InChI=1S/C4H6N4O/c1-8-2-5-4(7-8)6-3-9/h2-3H,1H3,(H,6,7,9)	InChI=1S/C4H6N4O/c1-8-2-5-4(7-8)6-3-9/h2-3H,1H3,(H,6,7,9)
