17
gdb 130127	4.21295	1.07394	0.91838	2.2197	76.17	-0.2044	0.0249	0.2293	1269.5717	0.139144	-414.211146	-414.203145	-414.202201	-414.244065	30.427	
N	-0.2574716393	 1.0511075904	-0.7699209586	-0.584824
C	-0.0946534083	-0.1871922338	-0.1791337417	 0.387524
N	-0.7025799611	-0.5317614392	 0.9475553519	-0.302976
N	-0.2953903197	-1.8341872818	 1.0786908723	-0.271624
C	 0.5146136127	-2.1892490143	 0.0652734663	 0.414529
N	 0.6665682128	-1.1609571686	-0.7586261775	-0.381075
C	 1.1192026844	-3.5200651796	-0.078234974	-0.129541
C	 1.3036415566	-4.0969672759	-1.4699227564	-0.254524
C	 2.5004576288	-3.6375103062	-0.6956167973	-0.254987
H	 0.5318535298	 1.3215195591	-1.3378997408	 0.255204
H	-0.539500111	 1.7720795059	-0.1218802174	 0.254779
H	-0.6082177507	-2.377470726	 1.8648876995	 0.270491
H	 0.872930218	-4.2175544205	 0.7157704808	 0.08314
H	 1.1388024403	-5.1612053055	-1.5948316621	 0.115652
H	 0.9672735368	-3.474366696	-2.2902992546	 0.142719
H	 2.9663991438	-2.7072517585	-0.9977700129	 0.14017
H	 3.1712138261	-4.3808444196	-0.2797826077	 0.115344
59.7063	144.3214	154.2962	287.8948	316.0546	374.4503	401.8857	456.009	495.0177	621.4788	642.4359	731.2736	766.292	790.841	804.2597	826.0822	913.5513	921.7749	1024.1376	1044.9357	1070.1026	1085.5279	1092.2341	1121.6643	1132.0819	1176.0471	1206.8982	1222.4956	1251.9867	1394.7408	1424.4189	1459.3454	1480.0653	1510.468	1580.9172	1596.6422	1649.1296	3141.0964	3143.5034	3160.939	3229.5297	3243.556	3572.4295	3676.5554	3678.1444
NC1=NNC(=N1)C1CC1	Nc1n[nH]c(n1)C1CC1	
InChI=1S/C5H8N4/c6-5-7-4(8-9-5)3-1-2-3/h3H,1-2H2,(H3,6,7,8,9)	InChI=1S/C5H8N4/c6-5-7-4(8-9-5)3-1-2-3/h3H,1-2H2,(H3,6,7,8,9)
