21
gdb 119022	1.83138	1.29934	0.88025	0.9365	84.97	-0.2519	0.0539	0.3059	1409.2591	0.179621	-387.032835	-387.022541	-387.021596	-387.068686	37.432	
C	 3.2537535667	 0.355416445	-1.5760847319	-0.22327
O	 2.5983898976	-0.8770208565	-1.400134408	-0.239078
C	 1.1888453002	-0.7642146178	-1.4530985212	-0.130633
C	 0.5835147132	-2.1087748158	-1.1330732638	 0.361426
C	 0.8894869749	-2.6217773309	 0.2744436719	-0.43181
C	 0.2889978397	-1.8081799324	 1.3285710485	 0.319932
C	-0.2122424144	-1.1255454223	 2.1820660425	-0.466832
C	-0.7547205217	-2.4375854325	-1.7426020907	-0.309351
C	 0.4933391822	-3.1220965561	-2.2459997296	-0.310475
H	 3.0322681608	 0.8003658281	-2.5597005123	 0.10105
H	 2.9704857168	 1.0846714451	-0.8006131264	 0.106432
H	 4.328409215	 0.168388178	-1.5094260247	 0.125799
H	 0.8409318532	-0.0105248267	-0.7273217858	 0.100532
H	 0.8673115345	-0.4319251846	-2.4546549737	 0.078232
H	 0.5363961551	-3.6557386898	 0.3700213205	 0.121359
H	 1.9775068268	-2.6474504773	 0.4072092068	 0.147039
H	-0.6516610846	-0.5316677811	 2.9444910287	 0.19314
H	-1.4514997119	-3.0135435593	-1.1431463542	 0.117045
H	-1.22755163	-1.6965657947	-2.3786007295	 0.111808
H	 0.8798388928	-2.8395760499	-3.2191133989	 0.116431
H	 0.639124203	-4.1682716285	-1.9987054384	 0.111227
45.1275	88.4226	105.6093	138.4377	171.0357	230.1757	290.1639	314.8895	346.3607	353.5782	402.1367	443.2594	565.9858	612.9563	636.6511	767.0475	778.4933	881.9152	914.1547	926.074	956.7151	984.3927	992.6506	1022.291	1051.4185	1071.584	1083.2741	1153.0613	1184.2755	1184.3685	1213.261	1228.1508	1252.6782	1319.0434	1337.1695	1371.0415	1429.7286	1460.9494	1471.5127	1480.3941	1486.1853	1499.9779	1508.2706	1522.9381	2234.95	2953.3325	2969.7256	2989.8291	3011.4073	3028.9843	3067.4151	3111.8555	3129.9346	3134.23	3207.5917	3221.3537	3506.3014
COCC1(CC#C)CC1	COCC1(CC#C)CC1	
InChI=1S/C8H12O/c1-3-4-8(5-6-8)7-9-2/h1H,4-7H2,2H3	InChI=1S/C8H12O/c1-3-4-8(5-6-8)7-9-2/h1H,4-7H2,2H3
