16
gdb 41129	3.01319	2.24274	1.71745	0.9138	72.58	-0.2139	-0.0148	0.1991	814.7566	0.124902	-400.583601	-400.57741	-400.576466	-400.613604	26.688	
C	 0.0254087141	 1.4767350133	-0.2344728024	-0.267832
N	 1.5128271503	 1.5214001402	 0.0971231639	-0.393195
C	 1.3787247779	 0.2411290253	 0.8591635422	 0.202114
C	 1.1827567762	 0.2152446867	 2.3496621563	-0.152771
C	 0.248126603	-0.7250866911	 2.5430588906	-0.095915
C	-0.0763719772	-1.2469121995	 1.1526055328	-0.191667
C	 1.2933575267	-1.253600253	 0.3211074239	 0.018415
O	 0.6385795348	-0.8361188152	-0.8924258043	-0.340489
C	 0.0284504203	-0.004534478	 0.1773920934	 0.329032
H	-0.5267224026	 2.1351065367	 0.4403095044	 0.130484
H	-0.2425636798	 1.6837134987	-1.2733850504	 0.126597
H	 2.0644832829	 1.3980979518	-0.7468816844	 0.237913
H	 1.6980623207	 0.8344992609	 3.0701615102	 0.113021
H	-0.1734302142	-1.0907975521	 3.4684535101	 0.109612
H	-0.7960775123	-2.0501228566	 0.9971764674	 0.085891
H	 2.0504835791	-2.0451929981	 0.2516949461	 0.088789
220.8369	295.4352	365.5064	430.8667	512.3779	524.2661	617.4113	670.3884	688.4187	728.2719	744.1345	750.3166	833.138	842.4884	869.0889	910.8644	915.4186	943.4388	958.4122	989.5292	1038.9477	1071.7486	1094.6797	1115.5278	1131.6128	1158.6579	1201.3378	1241.2868	1257.6976	1277.543	1286.0026	1332.9432	1371.0953	1476.7404	1611.5979	3031.6446	3062.6882	3125.6369	3130.9536	3223.1505	3247.8514	3525.8449
C1NC23C=CC4C2OC134	C1N[C@]23C=C[C@@H]4[C@H]2O[C@]134	
InChI=1S/C7H7NO/c1-2-6-5-4(1)7(6,9-5)3-8-6/h1-2,4-5,8H,3H2	InChI=1S/C7H7NO/c1-2-6-5-4(1)7(6,9-5)3-8-6/h1-2,4-5,8H,3H2/t4-,5-,6-,7+/m1/s1
