17
gdb 111720	2.20117	1.50466	1.08649	2.4542	75.1	-0.2374	0.0092	0.2466	1144.5775	0.136058	-417.953967	-417.945384	-417.94444	-417.987499	31.169	
C	-0.3671686663	 1.0302592554	-0.1731769289	-0.243518
O	 0.5886233272	 0.016912194	 0.0975326342	-0.225322
C	 1.0099489606	-0.6428529969	-1.0347645586	 0.104267
C	 1.6044970602	-1.9948225241	-0.9459008543	-0.128696
N	 1.0131457701	-2.7566819516	 0.1532134794	-0.307729
C	-0.3355159866	-2.6814589252	-0.4969805902	-0.223316
C	 0.207994557	-1.7987158025	-1.6377721377	 0.095174
C	-0.201745844	-1.843251421	-2.9958567974	 0.184494
N	-0.5309394169	-1.880603153	-4.1067889408	-0.354767
H	 0.0468339198	 1.8049360929	-0.8344476668	 0.117386
H	-1.2705641362	 0.6169284208	-0.6417247371	 0.121526
H	-0.6303892732	 1.4807647056	 0.7854190398	 0.138239
H	 1.454918328	-0.0110430499	-1.8070521189	 0.11008
H	 2.5647437088	-2.2480905647	-1.3806149501	 0.121232
H	 1.3512677102	-3.7123711212	 0.1390529096	 0.235216
H	-0.6842301731	-3.6481404	-0.8660330828	 0.12874
H	-1.1021243457	-2.2270893488	 0.1363153108	 0.126995
94.6473	108.3212	158.9203	182.8537	209.4985	234.2463	332.9254	476.3103	485.6945	547.5358	572.3676	617.1851	767.2055	786.9325	863.8374	911.469	963.1282	989.8654	1025.2078	1032.645	1067.3709	1100.7303	1136.8808	1167.0109	1180.6699	1216.2436	1249.3552	1262.9293	1296.1601	1357.007	1375.6564	1457.7214	1487.4935	1493.4937	1501.0196	1511.2086	2331.1838	2994.3869	3050.6504	3061.5438	3086.6542	3118.4962	3133.2298	3185.5679	3539.1317
COC1C2NCC12C#N	CO[C@H]1[C@H]2NC[C@@]12C#N	
InChI=1S/C6H8N2O/c1-9-5-4-6(5,2-7)3-8-4/h4-5,8H,3H2,1H3	InChI=1S/C6H8N2O/c1-9-5-4-6(5,2-7)3-8-4/h4-5,8H,3H2,1H3/t4-,5+,6-/m1/s1
