17
gdb 117589	2.12541	1.09383	0.92043	4.9104	73.07	-0.29	-0.0108	0.2792	1333.1796	0.133866	-418.021803	-418.011602	-418.010658	-418.057329	35.366	
C	-0.0612559115	 1.5845119862	-0.106080503	-0.407926
C	-0.0214604396	 0.0354449849	 0.0037784407	-0.102508
C	 0.7075035076	-0.455897258	 1.2911117355	-0.185465
C	 0.0308774245	-0.0559799719	 2.6004866531	-0.105854
O	 0.8135492851	-0.6301265618	 3.631779693	-0.414817
C	-1.4018329768	-0.48806575	-0.0257014526	 0.308195
N	-2.4912149505	-0.8713787626	-0.0141337195	-0.328684
C	 0.7055458286	-0.4999124477	-1.16349705	 0.301055
N	 1.3096318949	-0.8939966872	-2.0651427645	-0.319243
H	 0.9568423208	 1.9763926512	-0.049203366	 0.149415
H	-0.5050461042	 1.8889410042	-1.0554904903	 0.159775
H	-0.654938804	 2.0055264517	 0.706680843	 0.149747
H	 0.7840646532	-1.5461186708	 1.2623512256	 0.148275
H	 1.7264909598	-0.0579929797	 1.2701647731	 0.137262
H	-0.0113573994	 1.0394622021	 2.697404531	 0.095486
H	-1.0026459644	-0.4322099677	 2.6169487593	 0.120293
H	 0.3855442658	-0.4495677929	 4.4738176717	 0.294994
69.1952	94.8605	121.3692	137.517	188.875	217.1552	245.6276	251.0384	300.889	337.8081	398.1845	482.0088	528.605	587.9706	610.2802	720.2556	797.8112	918.5488	948.9754	1003.9514	1026.4566	1082.7946	1137.4919	1177.0645	1193.0265	1260.1162	1262.1824	1325.4579	1345.7078	1413.0243	1468.618	1482.2036	1489.2107	1500.4441	1530.6832	2361.3878	2367.8937	2981.8216	3017.0687	3062.6504	3065.2991	3115.8905	3146.1787	3152.8085	3833.9825
CC(CCO)(C#N)C#N	CC(CCO)(C#N)C#N	
InChI=1S/C6H8N2O/c1-6(4-7,5-8)2-3-9/h9H,2-3H2,1H3	InChI=1S/C6H8N2O/c1-6(4-7,5-8)2-3-9/h9H,2-3H2,1H3
