20
gdb 80893	2.25264	1.90786	1.73097	1.5529	77.98	-0.2039	0.0837	0.2875	955.4423	0.170683	-403.081467	-403.073442	-403.072498	-403.113532	32.13	
C	 0.00138918	 1.5280777276	-0.0299787435	-0.319775
N	-0.0235004329	 0.0677804224	 0.0540740735	-0.074446
C	-1.1805945662	-0.7141237491	 0.530816961	-0.078001
C	-0.1819155807	-1.9133643072	 0.6042283879	-0.249854
C	 0.7648797787	-0.7332261101	 1.026128322	 0.282847
C	 2.2666665817	-0.7698285314	 0.903882614	-0.510358
C	 0.1180576455	-0.4141719015	 2.4196258766	-0.008703
O	-0.6349926531	 0.8056789163	 2.4665280748	-0.246617
C	-1.2975975015	-0.3985465636	 2.0561975303	 0.024063
H	 0.7381348711	 1.9636677748	 0.6511467492	 0.121544
H	 0.2568500964	 1.8307295948	-1.0538833736	 0.099197
H	-0.9660099486	 1.9668801776	 0.2290572935	 0.122802
H	-2.0861859455	-0.7245532395	-0.0765321912	 0.070142
H	-0.3795841664	-2.6933712097	 1.3442506242	 0.090959
H	 0.0659146285	-2.3288646158	-0.3728611694	 0.106787
H	 2.5673035108	-1.0735315322	-0.1027849298	 0.126085
H	 2.7011795421	 0.2151789401	 1.1079295521	 0.126428
H	 2.6969640828	-1.4756213039	 1.6225799303	 0.118379
H	 0.5266550827	-0.7723897806	 3.3595961801	 0.098007
H	-2.1142583954	-0.7448932788	 2.6813353279	 0.100513
98.0351	198.4928	224.6855	238.0682	282.1068	322.0721	401.7561	474.9455	505.4098	602.4993	694.6428	713.1238	752.2829	801.7933	806.747	846.229	885.4509	891.0926	901.5545	966.3502	994.1887	1010.5246	1060.2489	1084.2154	1114.4562	1127.3979	1157.0386	1192.9088	1201.0104	1226.1835	1228.2859	1244.3981	1272.4743	1291.878	1315.2659	1390.5963	1414.9827	1447.5683	1479.1349	1484.1991	1489.408	1493.7455	1508.7448	3009.039	3032.3494	3066.14	3074.4483	3095.9117	3108.547	3111.7474	3113.0021	3144.2912	3157.0409	3172.3343
CN1C2CC1(C)C1OC21	CN1[C@H]2C[C@]1(C)[C@H]1O[C@@H]21	
InChI=1S/C7H11NO/c1-7-3-4(8(7)2)5-6(7)9-5/h4-6H,3H2,1-2H3	InChI=1S/C7H11NO/c1-7-3-4(8(7)2)5-6(7)9-5/h4-6H,3H2,1-2H3/t4-,5-,6-,7+/m0/s1
