20
gdb 58904	3.02179	1.19981	1.15963	1.096	74.02	-0.2447	0.0644	0.3091	1175.2665	0.171328	-440.26184	-440.252949	-440.252004	-440.2955	33.581	
C	 0.0613756608	 1.4388326194	-0.2469836853	-0.426026
C	-0.0082602892	-0.0275157917	 0.1780962956	 0.042616
O	 0.6287785381	-0.2504623726	 1.4354357761	-0.430758
C	-1.4295690339	-0.557950302	 0.1852942897	 0.328103
C	-2.4493935428	-0.0585057866	 1.2012861244	-0.167187
O	-3.5339923785	-0.9808872593	 1.1395107499	-0.261531
C	-3.0002879476	-2.26311697	 0.8108212627	-0.110347
C	-1.7978766058	-1.9744364262	-0.066106299	-0.096614
N	-1.9842063443	-0.9606990439	-1.115996606	-0.382121
H	 1.1014909233	 1.773526003	-0.2893591298	 0.125113
H	-0.3920986067	 1.572333348	-1.2331141321	 0.139652
H	-0.4764681201	 2.0832467073	 0.4607697856	 0.107034
H	 0.5531558093	-0.6290876419	-0.5447536176	 0.097997
H	 0.4183696873	 0.489977983	 2.0132033147	 0.280375
H	-1.9934731251	-0.0417563325	 2.204127389	 0.093132
H	-2.857619408	 0.9347615584	 0.9847343288	 0.109516
H	-2.6840138564	-2.8143035133	 1.7109202347	 0.10288
H	-3.7972063603	-2.8303626412	 0.3180819977	 0.113423
H	-1.070516464	-2.7548750319	-0.2640386033	 0.099956
H	-2.9690197264	-0.7025028057	-1.171370336	 0.234788
56.2358	137.7632	193.5841	226.8402	251.7666	265.1691	293.9659	324.9723	421.0891	486.1135	520.057	613.1391	712.5375	758.6841	874.2124	885.5327	903.0308	940.8972	961.9034	1008.2154	1023.8312	1044.5385	1057.6461	1089.2376	1105.8374	1119.9301	1147.749	1183.2104	1223.1999	1259.8036	1284.4858	1303.3509	1306.7499	1340.008	1374.9864	1384.9072	1398.1092	1407.0003	1458.4312	1493.7446	1495.1563	1505.0791	1518.4277	2976.5521	2982.9384	3022.0733	3054.7828	3063.6047	3069.0546	3097.8772	3125.1475	3169.4954	3464.8178	3816.6569
CC(O)C12COCC1N2	C[C@@H](O)[C@]12COC[C@H]1N2	
InChI=1S/C6H11NO2/c1-4(8)6-3-9-2-5(6)7-6/h4-5,7-8H,2-3H2,1H3	InChI=1S/C6H11NO2/c1-4(8)6-3-9-2-5(6)7-6/h4-5,7-8H,2-3H2,1H3/t4-,5-,6-/m1/s1
