15
gdb 45940	2.29739	2.01096	1.1702	2.2011	68.09	-0.2538	-0.0508	0.203	999.2633	0.113566	-453.949471	-453.941898	-453.940954	-453.981853	28.172	
N	-0.1171424246	 1.2704243556	-0.0681364851	-0.561811
C	-0.0519090643	 0.0166966072	 0.0557366351	 0.359924
O	 1.0933999373	-0.7092778774	 0.2272609124	-0.248912
C	 0.8306505338	-2.1202567471	 0.2491184256	-0.213142
C	-0.6782602825	-2.2880186205	 0.0453195692	 0.332355
O	-1.2719524102	-3.3301037758	-0.0230793938	-0.300377
C	-1.2203248939	-0.8984980113	-0.0007816207	 0.118211
C	-2.5288681391	-0.5179760695	 0.6334859817	-0.253777
N	-2.4052946862	-0.5569014525	-0.8096550527	-0.331528
H	 0.8042635491	 1.7052237514	-0.0248708267	 0.233316
H	 1.3925293419	-2.6104089144	-0.5523495626	 0.155098
H	 1.1477321471	-2.5400800266	 1.2095609678	 0.152425
H	-3.1205105589	-1.3204165159	 1.0649914001	 0.148104
H	-2.5469257558	 0.4417412475	 1.1417220647	 0.149352
H	-2.2437676636	 0.3913898891	-1.154342885	 0.260764
74.498	158.1548	223.0803	234.6935	256.2928	339.5509	531.2755	568.4646	579.676	634.2251	690.6	706.6675	826.0965	868.7199	886.3379	939.7008	989.9914	1004.3525	1023.4589	1063.2473	1099.6007	1127.6959	1144.3318	1203.3705	1228.849	1300.1442	1320.7765	1359.824	1418.24	1481.9072	1487.3977	1780.0167	1866.1684	3049.5767	3096.7458	3114.0462	3217.5803	3455.7141	3498.6168
N=C1OCC(=O)C11CN1	[NH][C]1OCC(=O)[C@]21CN2	
InChI=1S/C5H6N2O2/c6-4-5(2-7-5)3(8)1-9-4/h6-7H,1-2H2	InChI=1S/C5H6N2O2/c6-4-5(2-7-5)3(8)1-9-4/h6-7H,1-2H2/t5-/m0/s1
