15
gdb 131607	4.28012	0.93669	0.90364	1.4597	64.29	-0.2733	-0.0529	0.2204	1274.0271	0.111648	-491.046095	-491.037721	-491.036777	-491.079987	30.04	
O	 0.1569763192	 1.3913918297	-0.1395063773	-0.415085
C	 0.1238373607	-0.0063312434	 0.0032552325	-0.068466
C	-1.3361725272	-0.4935923991	 0.0766274701	-0.027641
O	-2.0531041645	-0.0093774019	-1.0565137392	-0.432851
C	-1.4305807509	-1.9802016832	 0.2008941079	 0.424621
C	-1.7481439719	-2.8300506405	 1.2146666357	-0.220796
N	-1.628387149	-4.1071289659	 0.7182965282	-0.097229
N	-1.2783474088	-4.0976260478	-0.4824728614	-0.002633
O	-1.1262770918	-2.706220101	-0.874644793	-0.242639
H	-0.4866998945	 1.6026782827	-0.8283592936	 0.290632
H	 0.6270242526	-0.5242413427	-0.8309431018	 0.097582
H	 0.656323777	-0.2607979371	 0.925368179	 0.121457
H	-1.8130704212	-0.0329630737	 0.9467346428	 0.121934
H	-1.8146815337	-0.5577272916	-1.8144486564	 0.301095
H	-2.048902896	-2.6335226444	 2.2290357167	 0.150019
47.5345	114.3826	116.0316	210.2956	287.2322	351.4829	361.3541	411.8256	501.7525	503.7679	594.764	694.3067	738.6368	794.3504	827.5562	882.0752	983.3053	1033.7365	1069.9409	1077.985	1100.2574	1117.819	1198.6969	1242.827	1261.1448	1301.5719	1377.8786	1381.72	1419.9489	1434.2591	1474.7177	1505.0757	1604.958	2966.3264	3076.1566	3087.6632	3295.536	3770.7194	3788.1356
OCC(O)C1=CN=NO1	OC[C@@H](O)c1cnno1	
InChI=1S/C4H6N2O3/c7-2-3(8)4-1-5-6-9-4/h1,3,7-8H,2H2	InChI=1S/C4H6N2O3/c7-2-3(8)4-1-5-6-9-4/h1,3,7-8H,2H2/t3-/m1/s1
