17
gdb 54525	3.33729	1.33179	1.09132	2.403	68.82	-0.2503	-0.0333	0.217	1114.8453	0.13452	-458.964277	-458.955897	-458.954953	-458.997748	30.515	
C	 0.5862595407	 0.3810204899	-1.004276708	-0.483369
C	-0.1775521329	 0.323204151	 0.2999302998	 0.292673
O	 0.2004472889	 0.8654002067	 1.3152946511	-0.302252
C	-1.4759116946	-0.4296341203	 0.2998342514	 0.286415
C	-2.5137760069	-0.2054721588	 1.383545489	-0.142343
O	-3.4044380538	-1.3137570248	 1.2961887254	-0.25594
C	-2.7226915343	-2.4272440369	 0.7416310623	-0.100989
C	-1.6171456146	-1.8421717364	-0.1128502123	-0.048548
O	-2.0514013304	-0.7921679262	-0.9673874519	-0.278221
H	 1.5372273097	 0.8885623303	-0.8409956366	 0.143011
H	 0.7580449145	-0.6210301912	-1.4097303235	 0.141682
H	-0.0039868308	 0.9189992031	-1.7532914395	 0.15973
H	-2.0046304629	-0.1505604606	 2.3551161972	 0.123873
H	-3.1014197656	 0.7056273483	 1.2390622847	 0.125529
H	-2.2747174825	-3.0717111023	 1.51631222	 0.102085
H	-3.447113715	-3.0177523405	 0.1714094011	 0.126141
H	-0.7912406594	-2.4537776015	-0.4668861401	 0.110526
63.2198	117.4007	153.065	185.1411	221.6265	335.819	348.6785	438.9848	491.1422	586.4904	612.0576	702.4843	772.546	877.0743	899.3149	922.7601	941.5877	982.3822	987.1943	1033.8874	1066.3969	1100.1957	1118.6938	1135.2927	1218.6735	1239.5392	1270.7605	1300.769	1353.9699	1375.6921	1389.0587	1438.3521	1456.3958	1469.7591	1499.1416	1511.1389	1796.1852	2973.016	3024.4046	3047.6509	3075.6777	3092.0578	3108.8578	3153.5174	3159.1877
CC(=O)C12COCC1O2	CC(=O)[C@]12COC[C@H]1O2	
InChI=1S/C6H8O3/c1-4(7)6-3-8-2-5(6)9-6/h5H,2-3H2,1H3	InChI=1S/C6H8O3/c1-4(7)6-3-8-2-5(6)9-6/h5H,2-3H2,1H3/t5-,6-/m1/s1
