20
gdb 122471	3.58022	0.69502	0.62004	2.1227	83.58	-0.247	0.0359	0.2828	1821.0685	0.168679	-403.072402	-403.062231	-403.061286	-403.108651	36.104	
C	-0.2433336275	 1.3476763698	 0.1627076707	-0.227415
O	 0.2170323068	 0.0357913973	-0.04718411	-0.23
C	 0.6243302266	-0.6001953787	 1.1439997682	-0.045267
C	 1.0645826045	-2.0199474191	 0.8058946397	-0.220088
C	 1.5598261954	-2.7571524105	 2.0256530432	-0.012192
N	 0.5402393314	-3.2859804817	 2.9394160441	-0.321861
C	 1.4018629839	-4.2381163552	 2.1953945818	-0.255556
C	 0.7789123055	-5.0738803726	 1.2060509976	 0.383143
C	 0.2924678438	-5.7914139378	 0.3729791666	-0.444537
H	 0.5388575547	 1.9929373811	 0.5949664634	 0.099774
H	-0.5356429972	 1.7528172462	-0.8092944098	 0.125624
H	-1.1156944229	 1.3735632013	 0.8352992926	 0.103531
H	 1.4523886844	-0.0381555368	 1.613671493	 0.074032
H	-0.201902635	-0.6293577782	 1.8733123478	 0.100846
H	 0.223989519	-2.5623688038	 0.3652309037	 0.128305
H	 1.8595213701	-1.9793892281	 0.0519620056	 0.108782
H	 2.4615899818	-2.344207212	 2.4787797791	 0.088239
H	 0.8555948845	-3.2340532239	 3.904617963	 0.235774
H	 2.1901927591	-4.731830243	 2.7603110893	 0.109863
H	-0.1489303589	-6.4197879143	-0.3603773394	 0.199004
50.1499	75.7529	91.0072	121.4669	160.5936	217.5038	236.6479	305.7422	314.1211	450.7023	457.4679	552.1228	603.0789	622.4421	659.1541	787.1009	813.9592	837.6741	900.2374	963.61	986.8831	1022.5048	1053.3989	1077.7413	1138.6754	1164.4048	1178.9129	1197.8041	1220.1354	1230.0094	1248.4811	1268.4092	1308.2334	1310.8487	1404.5565	1425.8087	1461.5421	1481.3797	1483.0354	1485.7241	1505.1394	1533.6374	2240.6324	2935.676	2965.9114	2984.178	3007.8557	3047.7087	3095.5013	3111.5672	3113.0013	3124.3285	3502.8986	3504.367
COCCC1NC1C#C	COCC[C@H]1N[C@H]1C#C	
InChI=1S/C7H11NO/c1-3-6-7(8-6)4-5-9-2/h1,6-8H,4-5H2,2H3	InChI=1S/C7H11NO/c1-3-6-7(8-6)4-5-9-2/h1,6-8H,4-5H2,2H3/t6-,7+/m0/s1
