15
gdb 110172	2.5661	1.24172	0.91349	3.3848	68.96	-0.258	-0.008	0.2499	1248.3203	0.109818	-457.729929	-457.721	-457.720056	-457.764269	31.288	
C	-0.0560761763	 1.3588192005	 0.106340993	-0.251683
O	-0.1805639323	 0.0216246442	-0.3632339013	-0.239998
C	-1.3866519998	-0.5706296362	-0.0108601791	-0.071024
C	-1.4992554237	-2.0590775574	-0.4270952663	-0.082471
O	-1.6925877969	-2.4326672157	 0.9907669108	-0.24536
C	-1.5033457194	-1.143171676	 1.4196063886	 0.436945
O	-1.4378569462	-0.7464783977	 2.5375605743	-0.319772
C	-2.5982822327	-2.4599115598	-1.2742238431	 0.321441
C	-3.5074868478	-2.7764185372	-1.9924020685	-0.422064
H	 0.9144963981	 1.7206510491	-0.236900083	 0.139494
H	-0.8486190711	 1.9977709584	-0.3097871422	 0.116305
H	-0.0986986731	 1.4044399893	 1.2007076317	 0.14662
H	-2.2577080259	 0.0354942226	-0.2976442239	 0.116309
H	-0.5405104955	-2.450335229	-0.7759526587	 0.141114
H	-4.3104135576	-3.0643702251	-2.6260050423	 0.214143
68.321	91.6555	145.7483	159.6039	192.0992	248.5365	307.1985	381.3128	442.0338	494.7975	578.2985	640.5005	689.2547	711.5201	749.8255	891.3475	907.3639	1020.5646	1026.338	1062.6924	1123.5232	1167.7357	1182.3566	1212.5147	1239.3886	1261.7573	1348.5227	1386.6836	1479.8591	1487.6721	1510.4644	1936.8117	2245.9924	2998.0198	3013.7455	3071.9317	3090.7933	3137.6285	3500.1243
COC1C(OC1=O)C#C	CO[C@H]1[C@@H](OC1=O)C#C	
InChI=1S/C6H6O3/c1-3-4-5(8-2)6(7)9-4/h1,4-5H,2H3	InChI=1S/C6H6O3/c1-3-4-5(8-2)6(7)9-4/h1,4-5H,2H3/t4-,5-/m0/s1
