19
gdb 58540	2.10139	1.44067	1.40119	2.9949	70.58	-0.2665	-0.0073	0.2592	1094.9554	0.156976	-460.188174	-460.178511	-460.177567	-460.222601	35.309	
C	 0.0524462963	 1.578455267	-0.0105883488	-0.396353
C	-0.0026287998	 0.0424052759	 0.0072406737	-0.01068
C	-1.4528591895	-0.4416447345	 0.1511684549	-0.418579
C	 0.7089965833	-0.5329517512	-1.23056157	 0.229684
O	 2.0117303718	-0.0086579656	-1.2535186754	-0.470235
C	 0.5710175649	-2.0585420983	-1.4905848287	-0.141624
O	-0.2751417659	-1.7929409984	-2.654603942	-0.242458
C	-0.1061357921	-0.4340890167	-2.549116755	 0.388634
O	-0.4899023405	 0.4077191848	-3.2959923687	-0.328256
H	 1.0817812122	 1.9359575488	-0.0554465733	 0.134899
H	-0.4843696983	 1.9739695109	-0.8789550665	 0.137599
H	-0.4179685995	 1.9807605023	 0.8917515725	 0.1088
H	 0.5755098083	-0.3168359297	 0.869800281	 0.089097
H	-2.0712233418	-0.0957691059	-0.6841483056	 0.139649
H	-1.5389017098	-1.530235617	 0.2078379883	 0.116989
H	-1.8851772716	-0.0333844523	 1.0690183061	 0.122267
H	 2.4096493487	-0.1703718504	-2.1155739447	 0.293842
H	 1.5040564162	-2.5423401965	-1.790153376	 0.118916
H	 0.0440230769	-2.6629619833	-0.7520673816	 0.127808
64.0661	113.5716	134.0187	206.0025	223.8986	238.0651	283.7505	293.9024	362.7851	405.2643	421.3708	441.694	567.6166	683.8425	742.4341	783.9944	870.042	931.5985	936.3762	939.5529	969.2113	970.0591	1081.4653	1108.3222	1118.5801	1153.6738	1166.2468	1201.6823	1219.4956	1319.4789	1339.4665	1359.3235	1381.9178	1401.9013	1425.5393	1489.7049	1489.994	1501.0278	1515.2574	1523.9407	1926.5908	3013.5685	3039.0012	3045.7098	3071.1194	3106.1097	3111.0628	3113.4368	3141.9107	3144.5414	3811.5038
CC(C)C1(O)COC1=O	CC(C)[C@@]1(O)COC1=O	
InChI=1S/C6H10O3/c1-4(2)6(8)3-9-5(6)7/h4,8H,3H2,1-2H3	InChI=1S/C6H10O3/c1-4(2)6(8)3-9-5(6)7/h4,8H,3H2,1-2H3/t6-/m0/s1
