23
gdb 120873	4.62924	0.75025	0.71064	1.1003	86.27	-0.2452	0.0826	0.3277	1689.8586	0.204747	-388.26488	-388.255099	-388.254155	-388.299682	37.17	
C	 0.0296295054	 1.5860103741	-0.0400404361	-0.380161
C	-0.026034436	 0.0603122727	 0.074506335	-0.160138
C	-1.4402608611	-0.5077363989	-0.0974017489	-0.186101
C	-1.4973233613	-2.0280379495	 0.0207499604	 0.033135
C	-1.2648598546	-2.6990499905	 1.425223465	-0.321777
C	-2.6214785799	-3.4003957201	 1.2794972011	 0.40822
O	-2.8492405534	-4.7262737615	 1.6091679427	-0.465095
C	-3.7297342326	-2.3996696127	 1.1317897504	-0.342576
C	-2.8601356734	-2.7354812395	-0.0657811162	-0.138717
H	 1.0508106189	 1.9605089503	 0.0830678389	 0.109818
H	-0.3330132243	 1.9232382013	-1.0176105001	 0.112974
H	-0.5942015925	 2.0634111317	 0.7240290839	 0.112232
H	 0.6364652884	-0.3883958939	-0.6777684897	 0.092812
H	 0.3732808876	-0.2480792814	 1.049654361	 0.097829
H	-2.1072757718	-0.0482988231	 0.6442658779	 0.089111
H	-1.8328749529	-0.2115562758	-1.0803849516	 0.091204
H	-0.8066890029	-2.468338365	-0.7068520821	 0.072927
H	-0.4310772758	-3.4041523284	 1.4188289278	 0.107168
H	-1.1566818705	-2.0263851953	 2.2840230099	 0.085149
H	-3.1689351674	-4.7605676578	 2.5174321106	 0.283093
H	-4.7199015035	-2.8427488992	 1.0875288757	 0.110289
H	-3.6923818166	-1.4249792271	 1.613042814	 0.1013
H	-3.2958786496	-3.1502354603	-0.9669691993	 0.087305
74.3806	87.9882	107.1785	173.5242	246.9437	253.8874	287.3096	305.9812	401.3728	409.1464	437.3534	514.1667	614.8687	702.3252	741.4985	828.6378	839.595	875.9565	894.4418	924.9891	952.3076	963.5815	972.2755	1023.496	1044.7019	1052.6056	1071.7348	1092.9746	1100.5442	1132.0896	1188.393	1219.5026	1230.4587	1254.7481	1263.345	1281.3375	1312.3901	1319.2458	1330.3993	1372.5931	1391.3922	1410.8273	1415.2277	1476.6728	1480.4384	1492.5826	1500.0107	1507.0537	1509.7427	3004.2282	3014.6131	3027.7073	3028.5207	3034.2065	3040.4743	3056.9377	3094.1626	3099.5824	3105.6014	3110.6031	3181.2717	3199.3715	3792.2469
CCCC1CC2(O)CC12	CCC[C@H]1C[C@@]2(O)C[C@@H]12	
InChI=1S/C8H14O/c1-2-3-6-4-8(9)5-7(6)8/h6-7,9H,2-5H2,1H3	InChI=1S/C8H14O/c1-2-3-6-4-8(9)5-7(6)8/h6-7,9H,2-5H2,1H3/t6-,7-,8+/m0/s1
