20
gdb 124489	2.44579	1.30845	1.03207	2.1751	81.68	-0.2004	0.0303	0.2307	1252.9801	0.172078	-399.352822	-399.343081	-399.342137	-399.388269	35.433	
C	-0.0600344659	 1.6508377646	 0.1912574445	-0.390562
C	-0.0248429618	 0.1218109618	 0.0181772005	-0.092149
C	 0.8285818922	-0.5398443977	 1.1191973757	-0.378221
C	-1.399594588	-0.4735679055	-0.0628570317	 0.364604
C	-1.9301387947	-1.3861750359	-0.9625733023	 0.045472
N	-1.2471101102	-1.9387024983	-2.0757555224	-0.615343
C	-3.2707014022	-1.5671200544	-0.5500231538	-0.06324
N	-3.5654009299	-0.8323338718	 0.5195258539	-0.235833
N	-2.4149058139	-0.1947018432	 0.8028724057	-0.268584
H	 0.9532401349	 2.0633845134	 0.1585306423	 0.116562
H	-0.6504446928	 2.126062626	-0.5967905911	 0.128438
H	-0.4931083309	 1.937998106	 1.1570799443	 0.104092
H	 0.4422347149	-0.0985575898	-0.9494406136	 0.101831
H	 0.8875492861	-1.6231188784	 0.9786792428	 0.116089
H	 1.8474008087	-0.1381967684	 1.1154956145	 0.11325
H	 0.4002201585	-0.3578874844	 2.1113428627	 0.110786
H	-0.5664396101	-2.6382620356	-1.7987024829	 0.240337
H	-1.8958643534	-2.3867014759	-2.7119537644	 0.238511
H	-4.0286962925	-2.1941585833	-0.9989982766	 0.097403
H	-2.3927847589	 0.4333404107	 1.5876161317	 0.266559
26.0675	87.7111	136.896	165.355	227.4896	250.9108	279.6426	289.5448	378.2082	414.6155	496.8644	514.6727	614.4866	696.3269	717.78	723.8898	825.7471	865.6025	884.4859	929.8022	953.9575	962.2316	1079.0939	1101.2014	1120.4893	1149.2687	1169.344	1216.2953	1261.9575	1296.7997	1348.8084	1370.5636	1396.6624	1397.7356	1418.4675	1450.0528	1484.6378	1490.8469	1503.1295	1506.0763	1530.3174	1629.0504	1659.9985	3026.1744	3028.6097	3037.8845	3090.0569	3098.5863	3107.7204	3116.8628	3230.6303	3506.5383	3590.5254	3676.9377
CC(C)C1=C(N)C=NN1	CC(C)c1c(N)cn[nH]1	
InChI=1S/C6H11N3/c1-4(2)6-5(7)3-8-9-6/h3-4H,7H2,1-2H3,(H,8,9)	InChI=1S/C6H11N3/c1-4(2)6-5(7)3-8-9-6/h3-4H,7H2,1-2H3,(H,8,9)
