19
gdb 78700	5.40643	1.11569	1.10803	0.8324	80.91	-0.2129	0.0824	0.2953	1165.8847	0.159661	-381.930914	-381.923485	-381.92254	-381.96244	30.16	
C	 0.0676136675	 1.5201532836	-0.2184360758	-0.325929
N	 0.0334563892	 0.0709890218	-0.050957266	-0.120516
C	-1.1110341145	-0.4676347419	 0.7459692176	-0.004541
C	-0.2772128247	-1.7111477237	 1.193577371	-0.189415
C	 0.6553104739	-0.4546872207	 1.2017030864	-0.005681
C	-0.5399623033	-0.0630182286	 2.1632587878	-0.174495
C	-0.6599071087	-1.49955896	 2.6511116288	 0.414148
C	-1.5650265407	-2.212767285	 3.5639697089	-0.335021
N	-0.1113816347	-2.0652948861	 3.8697476986	-0.391172
H	 1.0653121233	 1.8183218838	-0.5574631983	 0.119454
H	-0.6470236334	 1.8089219828	-0.9964087886	 0.118672
H	-0.1693022209	 2.0917954948	 0.6947028208	 0.095954
H	-2.1469894604	-0.4463999718	 0.4041357584	 0.082713
H	-0.1242005467	-2.6220663196	 0.6158110194	 0.084427
H	 1.7261181972	-0.4134513425	 1.4059000623	 0.086968
H	-0.6891509447	 0.8601054944	 2.7196235097	 0.085476
H	-2.2236217469	-1.6689022447	 4.2361121059	 0.11908
H	-1.9337747392	-3.1918449804	 3.2666940176	 0.111326
H	 0.3718183877	-2.9396671062	 3.6748918055	 0.228553
137.3918	189.0694	222.5028	264.7563	332.091	352.3651	479.9747	590.9127	598.3136	739.8383	776.315	800.0676	812.1522	835.0867	873.9182	884.4778	915.0013	939.7472	958.7805	974.97	1026.6549	1040.7138	1089.9383	1105.413	1108.66	1131.4176	1145.648	1151.3232	1156.9705	1159.7907	1185.1371	1204.504	1246.8111	1262.3541	1277.4857	1317.6465	1445.6647	1457.7695	1491.6549	1497.0918	1530.914	2964.9377	3061.9192	3097.0218	3100.6085	3102.4426	3105.6547	3127.9875	3140.9459	3183.9913	3486.0845
CN1C2C3C1C2C31CN1	CN1[C@H]2[C@H]3[C@@H]1[C@@H]2[C@]13CN1	
InChI=1S/C7H10N2/c1-9-5-3-6(9)4(5)7(3)2-8-7/h3-6,8H,2H2,1H3	InChI=1S/C7H10N2/c1-9-5-3-6(9)4(5)7(3)2-8-7/h3-6,8H,2H2,1H3/t3-,4+,5-,6+,7-
