17
gdb 11614	5.68295	0.81807	0.76058	1.3503	75.84	-0.238	0.0221	0.26	1497.1377	0.141144	-363.801458	-363.792438	-363.791494	-363.83633	31.674	
C	 0.0672194117	 1.573360936	-0.1108930528	-0.384035
C	-0.0254338105	 0.0436445882	-0.0113702425	-0.019926
O	 0.4806190762	-0.5901973265	-1.1850550556	-0.413238
C	 0.6308079483	-0.4541900364	 1.2021934371	 0.081071
C	 1.2099510571	-0.8530498486	 2.1829291037	 0.045505
C	 1.9091169109	-1.3454264051	 3.3355008877	-0.160125
C	 1.2081886805	-2.2461459964	 4.3015265035	-0.224907
N	 2.2561687717	-2.7863695291	 3.4329232254	-0.305614
H	 1.1142806163	 1.8921525786	-0.1360958478	 0.1178
H	-0.4246807633	 1.9067943489	-1.0282724898	 0.126437
H	-0.4129644356	 2.0506786832	 0.7482213432	 0.1258
H	-1.0841532608	-0.2421555588	 0.0137082927	 0.117589
H	 1.4391860623	-0.4899272183	-1.1741920588	 0.282345
H	 2.6893495179	-0.6955135446	 3.7234555115	 0.116781
H	 1.4675747582	-2.1904603957	 5.3548882857	 0.126429
H	 0.1706932442	-2.4885886465	 4.0923742962	 0.125519
H	 1.8308584549	-3.275917789	 2.6488618906	 0.242568
29.3587	86.9571	105.0372	189.0386	216.1177	256.1499	295.907	382.1663	464.7424	509.4139	535.7621	586.9451	701.0346	811.6777	845.2644	900.0601	959.3278	984.1147	1017.1837	1058.4337	1090.4492	1111.6081	1130.5898	1160.3318	1218.9469	1257.2578	1282.4201	1299.7914	1336.9927	1395.5314	1398.5594	1417.8773	1487.8028	1491.667	1504.7068	2348.911	3036.0386	3040.5992	3115.0992	3115.6617	3128.0356	3137.9863	3206.8245	3503.4931	3802.9896
CC(O)C#CC1CN1	C[C@@H](O)C#C[C@H]1CN1	
InChI=1S/C6H9NO/c1-5(8)2-3-6-4-7-6/h5-8H,4H2,1H3	InChI=1S/C6H9NO/c1-5(8)2-3-6-4-7-6/h5-8H,4H2,1H3/t5-,6+/m1/s1
