16
gdb 24299	4.11999	1.59008	1.24842	4.8414	74.55	-0.2132	0.0248	0.2381	963.6446	0.129449	-396.94044	-396.93423	-396.933286	-396.970992	25.142	
C	-0.0374692899	 1.4802032596	 0.0026246594	-0.188181
C	 1.4368486831	 1.8890163094	-0.0369943413	-0.033279
N	 2.1881143766	 1.4898462243	 1.1645559621	-0.327902
C	 2.2801770353	 0.6560629232	-0.0705728532	-0.245082
C	 1.3354126311	-0.4766519034	-0.0524363631	 0.389582
C	 1.2015005878	-1.8402484192	-0.050909952	-0.226287
N	-0.131833442	-2.1814610356	 0.0268847806	-0.275312
C	-0.7940780958	-1.0421033973	 0.0789712638	-0.008931
N	 0.050648453	 0.0211219321	 0.0248653718	-0.027252
H	-0.5433564914	 1.8605525979	 0.89497642	 0.138318
H	-0.5730451684	 1.828072565	-0.8873651527	 0.124785
H	 1.7104689065	 2.7944615815	-0.566878095	 0.102791
H	 3.0233682752	 2.068335161	 1.237260598	 0.234713
H	 3.2173771579	 0.6068181463	-0.611058689	 0.10735
H	 1.9715102122	-2.5945933042	-0.0984668898	 0.107816
H	-1.8663533111	-0.9380076605	 0.1495160305	 0.126871
147.3809	197.5133	349.9838	428.2207	447.2764	611.2185	670.0515	702.7474	741.2441	785.5148	802.9178	815.7939	839.1937	859.3031	885.366	944.8928	956.1961	1017.2756	1079.7034	1118.2929	1131.5577	1143.5073	1186.6971	1220.246	1230.0474	1250.5786	1268.2502	1329.7114	1347.1429	1391.8724	1398.1811	1411.8032	1490.1746	1520.6342	1608.9119	3044.2033	3091.8556	3175.1197	3193.7233	3249.8033	3253.3241	3484.111
C1C2NC2C2=CN=CN12	C1[C@H]2N[C@H]2c2cncn12	
InChI=1S/C6H7N3/c1-5-6-4(8-6)2-9(5)3-7-1/h1,3-4,6,8H,2H2	InChI=1S/C6H7N3/c1-5-6-4(8-6)2-9(5)3-7-1/h1,3-4,6,8H,2H2/t4-,6-/m1/s1
