19
gdb 10853	4.7736	1.45238	1.17341	1.8158	73.19	-0.237	0.0342	0.2712	1061.7405	0.166097	-365.095604	-365.087359	-365.086415	-365.128041	30.552	
C	-0.0462701935	 1.5394880749	-0.019515843	-0.406075
C	 0.0268463781	 0.0123655946	-0.0147029959	-0.016192
C	 0.7893068203	-0.5200577481	-1.2230124016	-0.070944
O	 0.8866070891	-1.9480051482	-1.1993193971	-0.262088
C	 1.0721648423	-2.5261353814	 0.023578269	 0.394439
C	 1.3412363712	-3.9942839082	-0.1322118063	-0.451316
N	 1.0326594281	-1.9659160236	 1.1602549503	-0.31209
C	 0.7120104429	-0.5455881957	 1.2390535935	-0.15572
H	 0.9565109035	 1.9821124247	-0.0057524864	 0.11821
H	-0.5660442207	 1.9149552496	-0.9075198926	 0.115459
H	-0.5826513767	 1.9075757051	 0.8608579423	 0.122178
H	-0.9910772913	-0.3972409706	-0.0600882187	 0.087034
H	 0.2943515012	-0.2713438713	-2.1660596626	 0.112223
H	 1.8039330853	-0.0964425218	-1.2488389257	 0.103914
H	 2.2509571338	-4.1543559869	-0.7200090981	 0.13431
H	 1.4513608577	-4.4519640028	 0.8498679054	 0.142475
H	 0.5195439566	-4.4733656184	-0.6743415331	 0.135607
H	 1.6383733291	 0.0138265214	 1.4388434752	 0.102635
H	 0.0752834831	-0.3916005433	 2.1185637054	 0.10594
101.3829	138.9612	179.7034	211.7105	261.9625	271.5823	359.8803	418.9269	441.2291	532.9879	614.4335	702.816	803.8231	891.7993	896.1173	928.1222	973.4626	979.8151	1061.0508	1065.7588	1099.4914	1141.666	1169.3124	1180.8187	1236.8228	1243.8884	1303.2184	1326.7419	1359.6108	1374.5475	1406.0675	1410.7983	1426.0875	1475.5572	1477.0484	1486.6049	1497.6918	1499.4058	1512.2375	1753.9676	2994.9529	3001.573	3021.5977	3028.5476	3045.8041	3046.7977	3085.5182	3094.5568	3101.7736	3102.9672	3167.0183
CC1COC(C)=NC1	C[C@H]1COC(=NC1)C	
InChI=1S/C6H11NO/c1-5-3-7-6(2)8-4-5/h5H,3-4H2,1-2H3	InChI=1S/C6H11NO/c1-5-3-7-6(2)8-4-5/h5H,3-4H2,1-2H3/t5-/m1/s1
