18
gdb 6065	5.02295	0.90907	0.81359	1.882	69.65	-0.2473	-0.013	0.2343	1414.6332	0.149357	-384.991974	-384.982065	-384.981121	-385.028563	33.283	
C	 0.0240374596	 1.5025606365	 0.0068577423	-0.473711
C	-0.2299452062	 0.0064590319	 0.0211558162	 0.380698
O	-0.7209867928	-0.5492598961	 0.9780035767	-0.296981
C	 0.1530224356	-0.7460952561	-1.2460912782	-0.30478
C	 0.1370398347	-2.2618261188	-1.0856100083	-0.304793
C	-0.1442439393	-3.0103939002	-2.3815207167	 0.380718
C	 0.0900456058	-4.5093450175	-2.3463331152	-0.473712
O	-0.5445207482	-2.4493581254	-3.3767798608	-0.297002
H	 1.1039227652	 1.6927654814	 0.0059697612	 0.14163
H	-0.3781582181	 1.9584344196	-0.9041488047	 0.139296
H	-0.4220714835	 1.9659049642	 0.8875057647	 0.142812
H	-0.5602568582	-0.4633701085	-2.0325306649	 0.154154
H	 1.1231450655	-0.3825423194	-1.6051353578	 0.116886
H	 1.0681865718	-2.6367410907	-0.6444399113	 0.116885
H	-0.6446738338	-2.5356377584	-0.3637038467	 0.154157
H	-0.3936109301	-4.9600811712	-1.4731635073	 0.139276
H	-0.2846699568	-4.9678844726	-3.2620681012	 0.142818
H	 1.1636471887	-4.7120831887	-2.2534814781	 0.141649
32.6327	49.5173	84.9773	114.891	117.3954	161.1197	268.7008	307.6725	436.9274	472.425	482.6881	590.6056	594.396	734.2048	791.4545	856.4514	877.0218	951.2835	963.9986	997.9335	1091.4503	1097.2074	1167.8221	1182.7813	1196.7825	1265.3628	1340.1879	1377.9975	1384.1975	1388.5423	1454.4914	1457.0937	1464.5515	1465.5094	1476.8999	1476.9856	1806.7897	1811.1833	3028.3698	3032.2057	3037.6918	3038.8828	3056.9529	3073.2494	3097.2641	3097.4804	3153.0214	3153.0606
CC(=O)CCC(C)=O	CC(=O)CCC(=O)C	
InChI=1S/C6H10O2/c1-5(7)3-4-6(2)8/h3-4H2,1-2H3	InChI=1S/C6H10O2/c1-5(7)3-4-6(2)8/h3-4H2,1-2H3
