17
gdb 35847	3.33113	1.27742	0.96119	2.3103	77.13	-0.2526	0.0103	0.2629	1195.6389	0.13501	-421.772296	-421.764006	-421.763062	-421.805396	31.192	
C	-0.2302465348	-1.0607408288	-0.4529784643	-0.380164
C	-0.0779124134	 0.0877026537	-0.1413255611	 0.300942
C	 0.082389836	 1.50465788	 0.1928656141	-0.004665
O	-0.5805932769	 1.7444185613	 1.4071466575	-0.231363
C	-1.0226810341	 3.0725376347	 1.6123152949	-0.131651
C	-0.0032528792	 4.1730313455	 1.5012728376	-0.063923
C	 1.1649153217	 4.1916458033	 0.8619905472	-0.063924
C	 1.8346416076	 3.1180698707	 0.0486317791	-0.131651
O	 1.4562649343	 1.7768780051	 0.2924729304	-0.231373
H	-0.3592678806	-2.0811646433	-0.7179625867	 0.197651
H	-0.3651279767	 2.1247754527	-0.6068642864	 0.08155
H	-1.8553200934	 3.302523034	 0.9210911529	 0.108234
H	-1.4523129052	 3.073795997	 2.6196945848	 0.125996
H	-0.3274614218	 5.0944661919	 1.9831716403	 0.095057
H	 1.7228050247	 5.1271343894	 0.8611711969	 0.095057
H	 1.6955204609	 3.3591152723	-1.0221237308	 0.108232
H	 2.9143928308	 3.1433911906	 0.2299921633	 0.125994
70.9333	126.886	173.4104	191.9131	323.1083	352.1146	402.4214	406.3558	516.1219	586.3212	604.6372	654.0239	660.4197	680.6854	831.2321	835.2411	924.9371	972.1068	984.3461	1014.9299	1033.1004	1048.2905	1058.3454	1139.9926	1153.2921	1264.1493	1273.257	1294.7121	1374.4504	1396.7297	1408.46	1412.4755	1422.1641	1481.9057	1482.1243	1747.068	2255.5455	2923.1367	2931.8405	2934.2483	3067.4936	3068.1586	3126.1662	3149.1853	3504.123
C#CC1OCC=CCO1	C#C[C@H]1OCC=CCO1	
InChI=1S/C7H8O2/c1-2-7-8-5-3-4-6-9-7/h1,3-4,7H,5-6H2	InChI=1S/C7H8O2/c1-2-7-8-5-3-4-6-9-7/h1,3-4,7H,5-6H2
