18
gdb 61422	2.58014	1.14288	0.92785	3.8703	69.66	-0.2314	0.0276	0.259	1294.6564	0.147724	-472.488055	-472.47816	-472.477216	-472.523062	36.345	
C	-0.5367091545	 1.9981995506	 0.7303036076	-0.405077
C	-0.0569903495	 0.6419437412	 0.2289154081	-0.051095
N	 0.8674496546	 0.0439615914	 1.1951262347	-0.337388
C	 1.7930325878	-0.8934407729	 0.8189306476	 0.46519
N	 2.542140368	-1.4134589095	 1.859761612	-0.559466
O	 1.9425527231	-1.2655599509	-0.3399737815	-0.410315
C	-1.2535668523	-0.3067737362	-0.0403948475	 0.383694
N	-0.9344807525	-1.3659620617	-0.8292278414	-0.52146
O	-2.3622501753	-0.1038715263	 0.4195026551	-0.369357
H	 0.3152961623	 2.6479325229	 0.9469585271	 0.111749
H	-1.1661532628	 2.4768571932	-0.0230214486	 0.136477
H	-1.1479479533	 1.8810026906	 1.6294294064	 0.134336
H	 0.5118147006	 0.7513618595	-0.6984148592	 0.120713
H	 0.5914972172	 0.0811979917	 2.1647081712	 0.248455
H	 2.7305191791	-0.8208148576	 2.65381441	 0.253452
H	 3.3341992603	-1.9504271074	 1.5416227949	 0.265381
H	 0.0414632355	-1.5669001288	-1.0172222747	 0.282546
H	-1.6243343183	-2.0929477696	-0.9351570718	 0.252165
52.808	86.6512	128.9032	198.0738	221.1061	253.9417	305.6249	327.6487	384.2307	432.6043	459.4007	504.8715	514.576	541.8683	594.2713	655.5028	680.7875	768.1984	777.2498	821.4003	912.1919	1025.908	1055.5762	1100.5985	1125.3548	1159.7774	1183.1162	1291.4965	1298.7565	1377.7604	1393.	1410.7104	1483.98	1492.6619	1537.854	1623.9885	1629.1182	1762.5523	1799.4067	3051.8599	3080.3231	3128.1909	3134.2779	3502.7433	3580.2857	3617.9494	3678.3405	3695.789
CC(NC(N)=O)C(N)=O	C[C@@H](NC(=O)N)C(=O)N	
InChI=1S/C4H9N3O2/c1-2(3(5)8)7-4(6)9/h2H,1H3,(H2,5,8)(H3,6,7,9)	InChI=1S/C4H9N3O2/c1-2(3(5)8)7-4(6)9/h2H,1H3,(H2,5,8)(H3,6,7,9)/t2-/m1/s1
