17
gdb 76073	2.07663	1.59331	1.1567	2.9677	74.28	-0.2625	-0.0142	0.2483	1114.8707	0.133707	-418.027139	-418.017609	-418.016664	-418.061792	33.456	
C	 0.1542615567	 1.3997900759	 0.257121017	-0.416328
C	-0.0661373256	-0.0719276188	 0.0068898842	 0.002455
C	 0.6095573123	-0.8047654728	-1.1494812393	-0.20393
C	 1.5041762494	-0.0789805502	-2.0188507832	 0.313729
N	 2.2298760426	 0.4822716978	-2.7236522465	-0.337298
N	 0.9655272529	-1.0448704823	 0.2388199728	-0.092143
C	 2.1896790662	-0.8353213298	 0.8936173727	 0.386392
C	 3.3706804425	-1.5424442277	 0.2667115394	-0.492182
O	 2.2374858078	-0.2019903793	 1.9219322741	-0.329646
H	 1.1139224106	 1.741067008	-0.1371499341	 0.149127
H	-0.6425571001	 1.9790389128	-0.2184485945	 0.130716
H	 0.1428435043	 1.5972505629	 1.3314098007	 0.159684
H	-1.0650046973	-0.4354876814	 0.245083109	 0.118274
H	 0.0819549085	-1.6160810073	-1.645590039	 0.144887
H	 3.6982030068	-1.00477151	-0.629682308	 0.170113
H	 4.1893385408	-1.5643598765	 0.9856588773	 0.152844
H	 3.1048610416	-2.5592060315	-0.0351038125	 0.143308
82.1753	102.4669	123.4855	150.2528	159.4172	181.0228	259.6144	353.1982	387.8348	436.062	526.0348	587.7474	622.397	667.3311	677.3348	812.4507	862.8756	948.0297	1012.1403	1033.5615	1052.4976	1063.8222	1099.9666	1158.8027	1175.7338	1200.3446	1356.5668	1374.4095	1395.107	1416.0523	1432.2283	1470.3599	1478.4716	1484.193	1489.0841	1799.3723	2350.2503	3049.4265	3054.1221	3114.3594	3116.3394	3129.8565	3138.5041	3142.282	3163.129
CC1C(C#N)N1C(C)=O	C[C@H]1[C@@H](C#N)N1C(=O)C	
InChI=1S/C6H8N2O/c1-4-6(3-7)8(4)5(2)9/h4,6H,1-2H3	InChI=1S/C6H8N2O/c1-4-6(3-7)8(4)5(2)9/h4,6H,1-2H3/t4-,6+,8?/m0/s1
