13
gdb 27470	2.44544	1.78975	1.10427	2.8	70.12	-0.2618	-0.0958	0.166	1016.1422	0.090571	-452.781161	-452.774101	-452.773156	-452.812952	26.475	
O	-0.1229708527	 1.2452757877	-0.4197641775	-0.381997
C	 0.0503897735	-0.0380859613	-0.0587334575	 0.379669
N	 1.2180272318	-0.5529032587	-0.0920616888	-0.354766
C	 1.5308112034	-1.8698746617	 0.2701139765	 0.336875
O	 2.5531943066	-2.1266000095	 0.8642833988	-0.31883
C	 0.6259663978	-2.9384687248	-0.2120674199	-0.159001
C	-0.7208091881	-2.893347665	-0.1881765778	 0.010537
N	-1.545274992	-1.8865395903	 0.285622338	-0.211634
C	-1.2226622061	-0.6512657816	 0.3670034752	-0.022034
H	 0.7523129746	 1.5910494071	-0.652408771	 0.312804
H	 1.1164748493	-3.8676084112	-0.4871746302	 0.134821
H	-1.2769829891	-3.7797605977	-0.4828741795	 0.128775
H	-1.9719085891	 0.047103157	 0.7413348535	 0.144779
89.6237	165.4285	253.0305	330.892	390.8692	436.5031	458.1724	555.1266	600.4639	648.8854	658.6301	723.9744	822.0658	844.7828	878.6607	948.0987	993.8508	1001.8799	1012.982	1185.131	1244.1456	1277.4104	1371.9807	1428.8225	1449.9283	1607.3228	1665.7083	1706.4011	1786.3792	3128.3278	3159.8032	3186.4545	3744.2614
OC1=NC(=O)C=CN=C1	Oc1nc(=O)ccnc1	
InChI=1S/C5H4N2O2/c8-4-1-2-6-3-5(9)7-4/h1-3H,(H,7,8,9)	InChI=1S/C5H4N2O2/c8-4-1-2-6-3-5(9)7-4/h1-3H,(H,7,8,9)
