15
gdb 10676	2.52765	2.28827	1.35496	1.7206	63.07	-0.261	-0.0406	0.2204	895.5352	0.116723	-399.803825	-399.79563	-399.794686	-399.83685	28.846	
C	 0.8242388863	 1.0142299281	 0.4399584037	-0.477695
C	-0.2568222082	 0.0885240406	-0.0504177863	 0.315548
O	-1.3085663006	-0.0574940449	 0.5390485926	-0.319198
C	-0.0276061354	-0.715228104	-1.3157804894	 0.106789
C	-0.217724585	-2.2112643121	-1.132604859	-0.242272
N	-1.2076785083	-1.4402451368	-1.8392656827	-0.329954
C	 0.9257067953	-0.3034021656	-2.3891383402	 0.112701
O	 1.764174887	 0.5585206106	-2.3042442231	-0.267883
H	 1.7697467165	 0.4736772947	 0.5509256522	 0.147815
H	 1.0161277994	 1.793615033	-0.3023164113	 0.170982
H	 0.5176791809	 1.4490933947	 1.3918198433	 0.137441
H	 0.3783021848	-2.8903725896	-1.7371691405	 0.136895
H	-0.4169728559	-2.5345602822	-0.1144047701	 0.146388
H	-1.9716292543	-1.2134912743	-1.1992997514	 0.260346
H	 0.7833776575	-0.8951323922	-3.3192356577	 0.102097
56.4009	121.6801	141.5137	230.2095	269.5734	296.9629	345.5551	376.0693	489.188	605.796	620.5044	692.4607	809.0799	922.1123	932.6752	987.0729	1012.8268	1038.1036	1057.4825	1105.785	1128.3603	1188.8176	1286.069	1334.6241	1364.7965	1392.2832	1425.3085	1445.7387	1465.9769	1496.3581	1779.5281	1820.5857	2907.0363	3051.9597	3106.5446	3117.8611	3160.8805	3200.8596	3451.0396
CC(=O)C1(CN1)C=O	CC(=O)[C@]1(CN1)C=O	
InChI=1S/C5H7NO2/c1-4(8)5(3-7)2-6-5/h3,6H,2H2,1H3	InChI=1S/C5H7NO2/c1-4(8)5(3-7)2-6-5/h3,6H,2H2,1H3/t5-/m0/s1
