21
gdb 58287	2.49245	0.98133	0.89799	3.992	76.15	-0.2379	0.0607	0.2986	1431.0385	0.181012	-457.593259	-457.582392	-457.581448	-457.629355	39.761	
C	-0.2319091452	 1.5133922097	 0.0024071708	-0.409949
C	 0.0605282803	 0.0155671291	-0.0516169937	 0.120483
O	 0.9295665461	-0.3077389321	-1.142503588	-0.449345
C	 0.7561994202	-0.513943939	 1.2114901325	 0.067476
C	 0.8101984383	-2.0475095126	 1.2402931187	-0.40595
N	 2.0824007515	 0.0863439435	 1.2958906026	-0.340021
C	 2.7316610099	 0.1805609065	 2.5029725501	 0.457237
N	 4.0679747703	 0.5594293601	 2.3989868181	-0.567779
O	 2.2020438871	-0.0602286182	 3.5739475528	-0.402982
H	 0.6886352343	 2.0788607544	 0.1677871468	 0.127316
H	-0.6893084786	 1.8535444833	-0.9342002525	 0.101924
H	-0.9308199206	 1.7429358048	 0.8130270404	 0.124026
H	-0.8884621168	-0.5328259865	-0.1593077266	 0.068729
H	 0.5680471657	 0.0855703843	-1.9421409426	 0.285236
H	 0.2018126528	-0.1661925038	 2.087242713	 0.109116
H	-0.2001484118	-2.4707683358	 1.2315376341	 0.107051
H	 1.3491436845	-2.4320897781	 0.3698131504	 0.12348
H	 1.3130668855	-2.3803512751	 2.1510360949	 0.138319
H	 2.6278582013	 0.0224692213	 0.4494436229	 0.244545
H	 4.3220242302	 1.15921452	 1.6280068312	 0.244108
H	 4.4488394249	 0.8535690042	 3.2857191541	 0.256981
49.1806	83.9349	100.0656	171.9452	214.8283	237.0508	246.1578	276.2645	290.1127	341.3046	389.2208	420.377	468.7047	516.1222	529.1762	567.0632	631.2045	657.8733	780.3524	808.6738	903.2093	941.263	997.6395	1015.5928	1047.2288	1079.8509	1100.5574	1140.2436	1159.3811	1184.01	1238.9981	1300.4467	1340.8158	1380.1509	1387.0722	1396.9909	1405.3414	1421.9692	1488.6407	1491.7579	1499.2718	1501.3862	1527.4886	1626.1725	1793.6389	2979.042	3030.5546	3039.4802	3083.7038	3096.6002	3110.8559	3126.3345	3134.0745	3570.706	3618.8073	3685.3446	3830.8047
CC(O)C(C)NC(N)=O	C[C@@H](O)[C@@H](C)NC(=O)N	
InChI=1S/C5H12N2O2/c1-3(4(2)8)7-5(6)9/h3-4,8H,1-2H3,(H3,6,7,9)	InChI=1S/C5H12N2O2/c1-3(4(2)8)7-5(6)9/h3-4,8H,1-2H3,(H3,6,7,9)/t3-,4-/m1/s1
