15
gdb 131474	3.38503	1.65276	1.16789	1.1533	74.01	-0.2261	-0.0346	0.1915	990.4328	0.115604	-416.821247	-416.814433	-416.813489	-416.852486	26.645	
O	 0.1710543344	 1.4142164024	-0.1796096955	-0.410446
C	 0.0486903573	 0.0091493884	-0.0422940745	-0.061985
C	 0.5878850455	-0.5594951941	 1.2771418442	-0.173134
C	-0.352570151	-1.2912900831	 1.8838320405	-0.02
N	-1.5192597975	-1.2765672075	 1.0962578445	 0.047681
N	-2.7418268986	-1.803520044	 1.2544201638	-0.290916
C	-3.3970953857	-1.3657605633	 0.1752094764	 0.012833
C	-2.5875686284	-0.5573595237	-0.668379752	-0.392035
C	-1.3686917404	-0.5255512768	-0.0281973682	 0.369849
H	-0.3412348191	 1.819368474	 0.5296579984	 0.285914
H	 0.6144739671	-0.4025960999	-0.8870441006	 0.124831
H	 1.591214465	-0.3772458016	 1.631076988	 0.122975
H	-0.3443479088	-1.8446530351	 2.8105920118	 0.150983
H	-4.4311912692	-1.6441100371	 0.0333672476	 0.116874
H	-2.8671660007	-0.0811926185	-1.5936883044	 0.116576
139.2661	142.9545	281.6957	343.8007	365.8766	495.393	564.5678	646.9751	668.9214	700.7601	725.0355	773.6496	808.94	859.1165	883.4899	916.3639	952.8657	973.0239	1038.283	1068.743	1081.8792	1173.9365	1199.9962	1242.8811	1258.0563	1300.1804	1337.1266	1401.8737	1410.4435	1420.4644	1455.5217	1582.2502	1649.2031	3041.769	3246.0384	3248.5671	3271.4846	3275.2492	3797.6846
OC1C=CN2N=CC=C12	O[C@H]1C=Cn2nccc12	
InChI=1S/C6H6N2O/c9-6-2-4-8-5(6)1-3-7-8/h1-4,6,9H	InChI=1S/C6H6N2O/c9-6-2-4-8-5(6)1-3-7-8/h1-4,6,9H/t6-/m0/s1
