18
gdb 43920	4.28599	1.14031	1.05069	4.4378	79.56	-0.2407	-0.0276	0.2131	1173.1137	0.149263	-401.988974	-401.981213	-401.980269	-402.021458	30.299	
O	 0.4316604662	-0.0450253957	-0.0042021138	-0.384183
C	 0.2442472779	 1.152878132	 0.0057498481	 0.383779
N	-0.9788053065	 1.7950133896	 0.0278879356	-0.411689
C	-0.887578836	 3.2281344042	 0.0347088679	 0.327368
C	-1.670591795	 4.0661808038	-1.0339988293	-0.265805
C	-1.9698325642	 5.1219694229	 0.0615835433	-0.211928
C	-1.6383970739	 4.053797394	 1.1356857895	-0.265795
C	 0.605052554	 3.4329452152	 0.0137522216	-0.090884
C	 1.2458144353	 2.2638925265	-0.0025305147	-0.218951
H	-1.844713247	 1.282860095	 0.0371453768	 0.246095
H	-1.1240743274	 4.3738781483	-1.9279548909	 0.109816
H	-2.5753715101	 3.5336171664	-1.3403430704	 0.107544
H	-1.2435422386	 5.9388726801	 0.0554685548	 0.10989
H	-2.9717763042	 5.5535518745	 0.0789090223	 0.107465
H	-2.5337649842	 3.5176130885	 1.4626608252	 0.107553
H	-1.0655235818	 4.3513756571	 2.0164686704	 0.109813
H	 1.0418912059	 4.4239341134	 0.0130867343	 0.117588
H	 2.3102589495	 2.0790975142	-0.0193580207	 0.122322
64.7132	136.2428	195.2528	325.5988	329.0231	402.576	419.4073	507.1493	511.4468	677.9511	694.99	722.5538	791.2256	833.1438	862.2413	875.1301	917.6571	933.6855	940.5719	970.0862	995.8917	1019.8014	1042.5824	1077.7989	1151.5456	1198.3193	1203.7725	1231.3606	1245.8461	1268.4954	1271.6098	1328.6057	1343.3259	1416.1038	1472.9707	1488.5306	1506.9847	1651.2417	1822.6902	3058.7324	3062.5242	3069.7444	3110.314	3117.6083	3129.8164	3208.0505	3249.4333	3664.3702
O=C1NC2(CCC2)C=C1	O=C1NC2(CCC2)C=C1	
InChI=1S/C7H9NO/c9-6-2-5-7(8-6)3-1-4-7/h2,5H,1,3-4H2,(H,8,9)	InChI=1S/C7H9NO/c9-6-2-5-7(8-6)3-1-4-7/h2,5H,1,3-4H2,(H,8,9)
