18
gdb 97173	2.36912	1.59868	1.01452	3.	76.35	-0.2541	-0.0008	0.2533	1172.3819	0.147238	-439.092722	-439.08388	-439.082936	-439.127094	32.168	
C	-0.1297987219	 1.3102204571	-0.2070625071	-0.32838
N	 0.0915348053	-0.1194779886	-0.0738440944	-0.330693
C	 0.491614476	-0.6062189295	 1.0221674598	 0.394128
O	 0.7631106839	 0.1378429631	 2.1153822098	-0.258054
C	 0.9711516425	-0.5034280274	 3.3901564733	-0.120814
C	 0.2873308056	-1.8333152387	 3.5148514082	-0.098902
C	 0.1290824858	-2.5936925689	 2.437618599	-0.079733
C	 0.6764014343	-2.1161027411	 1.1159326606	 0.012729
O	 0.0748182234	-2.7565912631	 0.026738682	-0.440926
H	 0.7791404965	 1.8004473386	-0.5779584998	 0.127597
H	-0.9177425318	 1.4819475462	-0.9455183455	 0.123488
H	-0.4096624077	 1.7924108135	 0.7365939515	 0.122092
H	 2.0558680919	-0.5978433327	 3.5470224452	 0.128998
H	 0.5976376463	 0.2098064616	 4.1304143687	 0.13225
H	-0.0546208301	-2.1312540487	 4.5004079319	 0.108778
H	-0.3660166998	-3.5583043264	 2.4487308666	 0.118482
H	 1.7685173432	-2.3063148217	 1.1092116686	 0.099418
H	-0.1491596034	-2.0300588334	-0.5828079583	 0.289542
46.8746	80.8805	112.2339	206.3629	226.499	326.9311	343.5593	457.18	470.9009	507.9013	527.4725	590.164	656.3401	699.6865	817.9639	863.2894	941.3931	978.9809	996.0768	1037.7	1055.0987	1104.1827	1124.0765	1155.0515	1170.6152	1189.7703	1228.5812	1253.6386	1262.6859	1337.2132	1391.4684	1416.0943	1435.7295	1464.3108	1490.4132	1497.9481	1503.0364	1717.5265	1771.7154	2895.5697	2998.9691	3016.6462	3073.6574	3084.1386	3102.7039	3181.1717	3206.3492	3613.413
CN=C1OCC=CC1O	CN=C1OCC=C[C@H]1O	
InChI=1S/C6H9NO2/c1-7-6-5(8)3-2-4-9-6/h2-3,5,8H,4H2,1H3	InChI=1S/C6H9NO2/c1-7-6-5(8)3-2-4-9-6/h2-3,5,8H,4H2,1H3/t5-/m1/s1
