21
gdb 81889	2.97924	1.20978	1.02036	3.1292	84.39	-0.242	-0.0221	0.2199	1251.3532	0.181201	-387.084359	-387.075035	-387.074091	-387.118094	35.151	
C	-0.430933664	 1.5505320895	 0.3695991996	-0.406122
C	-0.0994462079	 0.0683138193	 0.2310593065	 0.004758
C	 0.2751748317	-0.4614871066	-1.1606010239	-0.090648
C	 1.5783439845	 0.0612190578	-1.643376456	-0.332766
C	 1.6201302022	-1.0265258951	-0.5947996766	 0.258646
C	 2.1551180641	-2.3590446501	-0.9061974447	 0.047671
O	 2.3729938608	-2.7778979539	-2.0213930899	-0.277651
C	 1.2630144333	-0.496756659	 0.8024895513	-0.087652
C	 2.251397398	 0.4369330725	 1.4931857555	-0.408146
H	 0.3478402793	 2.1924937539	-0.0524468607	 0.117183
H	-1.3666704421	 1.7835669985	-0.1498531655	 0.119324
H	-0.5571157945	 1.8281311314	 1.4214917867	 0.117567
H	-0.9269705316	-0.5180934927	 0.640707379	 0.079947
H	-0.3896935304	-1.0037357388	-1.8226584712	 0.106701
H	 1.8822025509	-0.2831981681	-2.6258986031	 0.144548
H	 1.9148278963	 1.0602686587	-1.383046523	 0.114239
H	 2.3324638078	-3.0008889403	-0.0115178073	 0.062296
H	 1.0470559338	-1.3398441082	 1.4681621254	 0.076931
H	 2.5207014852	 1.2929894344	 0.8676782804	 0.11707
H	 1.837716931	 0.8273638386	 2.4290809816	 0.116982
H	 3.1765240416	-0.0969904118	 1.736267566	 0.119119
100.1506	140.1593	175.8691	193.1983	214.3303	232.1288	239.4616	313.7613	342.6968	471.9833	524.9918	579.9051	662.3272	721.5325	765.4505	777.2164	854.9153	913.7152	945.8951	983.5329	1005.1003	1027.8328	1044.9682	1059.775	1071.9419	1091.2173	1127.7311	1140.863	1170.9103	1214.3654	1232.2544	1276.8347	1307.144	1363.7305	1366.8656	1394.9348	1409.1573	1419.5752	1433.5416	1481.6936	1488.5097	1492.0014	1503.3411	1504.7933	1792.4949	2854.3352	3031.8402	3035.1611	3036.675	3060.9992	3095.0329	3098.4562	3105.2137	3112.4799	3127.3151	3184.6301	3220.9765
CC1C2CC2(C=O)C1C	C[C@H]1[C@H]2C[C@@]2(C=O)[C@H]1C	
InChI=1S/C8H12O/c1-5-6(2)8(4-9)3-7(5)8/h4-7H,3H2,1-2H3	InChI=1S/C8H12O/c1-5-6(2)8(4-9)3-7(5)8/h4-7H,3H2,1-2H3/t5-,6+,7-,8-/m1/s1
