21
gdb 86177	2.31702	1.37492	1.19809	1.3925	73.89	-0.249	0.0714	0.3205	1160.8081	0.18054	-461.37125	-461.361236	-461.360292	-461.406121	38.099	
C	-0.3951554847	 1.5147310484	 0.0176587429	-0.453936
C	 0.0547516854	 0.0593102043	 0.0314739829	 0.376122
O	-1.0769006039	-0.8212234831	 0.1082248286	-0.489805
C	 0.9622914502	-0.3479102729	-1.1396521158	-0.252515
C	 1.5847077676	-1.689168198	-0.716463209	 0.140975
O	 2.9110721991	-1.748403171	-1.2280225657	-0.4375
C	 1.5020900771	-1.7010106684	 0.8418904688	-0.278333
C	 0.910776238	-0.3392564746	 1.2528907239	 0.116362
O	 1.9070272473	 0.665402756	 1.4032850519	-0.444813
H	 0.4611408485	 2.1891628642	 0.0751393728	 0.139781
H	-0.9482239082	 1.7363674245	-0.9032340878	 0.097676
H	-1.0566185927	 1.7126158368	 0.8664408285	 0.118139
H	-1.6134730784	-0.6717516385	-0.6770323626	 0.275584
H	 0.4210795092	-0.4041129664	-2.0894064112	 0.080528
H	 1.7715426287	 0.3792478864	-1.2498993419	 0.12625
H	 0.9955185132	-2.5242772371	-1.1166928776	 0.06685
H	 3.2503839537	-2.6345503245	-1.0691275784	 0.27831
H	 0.855017441	-2.5093027058	 1.1914257798	 0.109373
H	 2.4967425669	-1.8517593572	 1.2755187173	 0.081284
H	 0.284595455	-0.4074719019	 2.1529653976	 0.065266
H	 2.574931067	 0.3338863287	 2.0101109949	 0.284402
28.7835	136.2134	219.4656	222.6304	238.9946	263.9601	287.5473	313.1287	332.1945	347.012	399.0996	447.0126	472.0755	501.6139	585.1012	683.5133	796.3412	828.4212	872.3782	906.4846	944.2495	980.1834	997.6877	1030.7766	1051.0885	1091.7144	1102.0858	1148.1573	1157.5521	1185.9389	1226.2851	1256.8219	1271.9401	1297.2862	1309.8566	1336.0974	1367.9355	1370.4103	1405.5525	1419.5214	1433.9288	1460.8332	1474.2831	1489.9467	1498.9771	3006.6715	3008.7189	3030.1823	3045.6556	3054.0873	3097.1672	3102.5308	3108.2697	3139.0878	3812.5535	3818.6409	3833.2509
CC1(O)CC(O)CC1O	C[C@@]1(O)C[C@@H](O)C[C@H]1O	
InChI=1S/C6H12O3/c1-6(9)3-4(7)2-5(6)8/h4-5,7-9H,2-3H2,1H3	InChI=1S/C6H12O3/c1-6(9)3-4(7)2-5(6)8/h4-5,7-9H,2-3H2,1H3/t4-,5+,6+/m0/s1
