13
gdb 124347	2.93404	1.62845	1.05401	4.8369	61.25	-0.2708	-0.0425	0.2284	1039.9994	0.088594	-489.942827	-489.935095	-489.934151	-489.975731	27.271	
C	-0.0282007278	 1.5296690104	-0.0863971605	-0.485657
C	-0.021317529	 0.0296109194	 0.0789095445	 0.418137
O	-0.0333695462	-0.5577396395	 1.1250762581	-0.276732
N	 0.0018923129	-0.6922350775	-1.1481152006	-0.175868
N	 0.0162211086	-0.0441258222	-2.3778667645	-0.231312
C	 0.034987931	-1.0030080972	-3.2249286948	 0.112002
O	 0.0349660359	-2.2457821829	-2.6999284633	-0.203423
C	 0.0130609965	-2.0830384909	-1.3039045259	 0.517385
O	 0.0070566001	-2.9800164371	-0.5275970287	-0.331303
H	 0.8551835356	 1.8626993067	-0.6375997162	 0.160717
H	-0.9003194064	 1.851692667	-0.6616172074	 0.160707
H	-0.0447260946	 1.9735714707	 0.9081456064	 0.153125
H	 0.0504129135	-0.900355667	-4.2985008472	 0.18222
74.1869	121.859	154.2569	201.9055	262.3462	351.0779	465.4023	551.3392	577.9808	637.5205	649.4186	756.767	764.9483	874.0581	901.9844	942.3012	985.8988	1058.0106	1121.0784	1169.2132	1217.5906	1316.6208	1327.6799	1396.9292	1459.8191	1471.3451	1657.0825	1832.7847	1942.7959	3061.6034	3128.1423	3172.973	3281.4463
CC(=O)N1N=COC1=O	CC(=O)n1ncoc1=O	
InChI=1S/C4H4N2O3/c1-3(7)6-4(8)9-2-5-6/h2H,1H3	InChI=1S/C4H4N2O3/c1-3(7)6-4(8)9-2-5-6/h2H,1H3
