20
gdb 18570	3.53431	1.87889	1.53793	0.4709	81.13	-0.2201	0.026	0.2462	920.3633	0.178828	-311.859821	-311.852498	-311.851554	-311.891056	29.273	
C	-0.1558546472	 1.5328910766	-0.144351525	-0.391886
C	-0.0163369307	 0.020324518	-0.0488840964	-0.004666
C	 1.2324953123	-0.5537337404	-0.8333426472	-0.339147
C	 1.9226181482	-0.5895135519	 0.5091172274	 0.322697
C	 2.9820850037	-0.1811766914	 1.1986399568	-0.238051
C	 2.5683874861	 0.0781560114	 2.6464882371	-0.234326
C	 1.0139036753	 0.25599158	 2.5564581278	-0.246831
C	 0.6382867296	-0.5336574279	 1.2862426126	-0.037122
H	 0.7898623128	 2.0343458676	 0.0889563546	 0.119643
H	-0.4496437651	 1.8320211875	-1.1561860731	 0.112047
H	-0.9157998971	 1.9092253889	 0.5489291358	 0.11451
H	-0.9629536093	-0.4626411094	-0.3083620456	 0.065998
H	 1.0241485459	-1.545354624	-1.2488201116	 0.106148
H	 1.6724034908	 0.0711061969	-1.6158960968	 0.104624
H	 3.9782274475	 0.0215869847	 0.8218804054	 0.086918
H	 2.8376097211	-0.7574660281	 3.3085671222	 0.101369
H	 3.0602965001	 0.9655677489	 3.0603421925	 0.097992
H	 0.4977366293	-0.0877458105	 3.4574670521	 0.090055
H	 0.7814372378	 1.3191659827	 2.4326988863	 0.101646
H	 0.2155576388	-1.5192699195	 1.5176717451	 0.068382
100.6332	213.5573	231.2427	264.3066	342.1406	373.9423	458.9259	582.3185	641.8985	727.4748	784.7802	792.4994	820.7867	852.9179	887.8675	901.2117	927.5363	960.9075	999.7602	1013.1989	1051.7299	1078.9086	1092.5549	1127.0269	1142.7446	1178.648	1199.6343	1218.0824	1234.5194	1260.219	1275.3132	1306.9155	1330.3433	1339.194	1360.1871	1409.9712	1475.6906	1480.2987	1494.7478	1496.4583	1503.7591	1736.4336	3002.2887	3018.6509	3027.3744	3041.0753	3043.5411	3057.3722	3059.8095	3092.5379	3093.6141	3095.6075	3099.1732	3193.9988
CC1CC2=CCCC12	C[C@H]1C[C]2[CH]CC[C@@H]12	
InChI=1S/C8H12/c1-6-5-7-3-2-4-8(6)7/h3,6,8H,2,4-5H2,1H3	InChI=1S/C8H12/c1-6-5-7-3-2-4-8(6)7/h3,6,8H,2,4-5H2,1H3/t6-,8-/m0/s1
