20
gdb 99226	4.97215	0.62786	0.58394	2.6431	78.34	-0.2439	-0.0083	0.2356	1926.0956	0.167658	-440.34743	-440.33627	-440.335326	-440.386116	37.384	
C	-0.0977100689	 1.4672032413	 0.021731373	-0.333207
N	 0.3312493498	 0.0828357274	-0.0134070907	-0.31413
C	 0.3480859458	-0.6561291779	-1.1596329377	 0.420531
O	 0.0488084464	-0.1968823588	-2.2498029024	-0.378512
C	 0.7440737856	-2.1181755034	-0.9659413191	-0.324484
C	 1.3328932495	-2.7203495573	-2.2375760437	-0.296403
C	 1.2587115156	-4.2388630374	-2.2845802167	 0.378483
C	 2.0059282487	-4.9050585895	-3.4259361459	-0.473258
O	 0.6341897019	-4.880469035	-1.4694720787	-0.297953
H	 0.6818686737	 2.1135837614	 0.4395020984	 0.1243
H	-0.299696885	 1.7689906733	-1.0064753281	 0.171675
H	-1.0107267569	 1.5917644467	 0.6154440403	 0.125803
H	 0.5705512888	-0.3714939084	 0.8521352188	 0.245624
H	 1.4315839508	-2.22729173	-0.1201192809	 0.103407
H	-0.155421907	-2.6848790633	-0.6975596615	 0.152824
H	 0.7827654001	-2.3211901246	-3.1001408974	 0.158156
H	 2.3720527012	-2.4053068396	-2.3945550296	 0.115807
H	 3.0854421941	-4.7676214572	-3.2921449091	 0.14004
H	 1.7785508958	-5.9713968439	-3.4484202356	 0.141702
H	 1.7447154202	-4.4438874335	-4.3843519738	 0.139596
34.1976	36.2166	72.9053	84.7887	110.6135	135.2908	157.85	249.5444	275.3895	359.6967	444.0753	472.0019	488.0867	577.2208	628.3895	693.5697	767.1002	829.8388	907.5052	930.1562	959.217	1046.4952	1070.3996	1108.2843	1153.2999	1170.0231	1176.1909	1180.9889	1233.4749	1271.3692	1347.5219	1381.9951	1391.3167	1438.5747	1452.4534	1465.1085	1468.6881	1476.9037	1493.88	1500.682	1562.0159	1773.231	1807.78	3026.0547	3029.7152	3037.8633	3042.8017	3059.7536	3077.7675	3082.9783	3097.5879	3152.1313	3154.6423	3647.5967
CNC(=O)CCC(C)=O	CNC(=O)CCC(=O)C	
InChI=1S/C6H11NO2/c1-5(8)3-4-6(9)7-2/h3-4H2,1-2H3,(H,7,9)	InChI=1S/C6H11NO2/c1-5(8)3-4-6(9)7-2/h3-4H2,1-2H3,(H,7,9)
