19
gdb 36303	3.35424	1.11317	1.06252	1.7522	80.31	-0.2465	0.0602	0.3066	1213.7595	0.159753	-385.844725	-385.836405	-385.835461	-385.878071	31.848	
C	 0.0236100136	-1.0934000374	-0.4462808867	-0.458259
C	 0.0071299989	 0.046239244	-0.0637865997	 0.309335
C	 0.0133738241	 1.4325310483	 0.3942162817	-0.394536
C	 1.3698538613	 2.1014410054	 0.1853044055	-0.008602
C	 1.8134472639	 2.716725535	-1.1192072125	-0.068358
C	 0.7451529344	 3.1047972548	-2.124889744	-0.100376
O	-0.2396405594	 3.8438607049	-1.4006773217	-0.25376
C	 0.3792842415	 4.4640454556	-0.2751367053	-0.094763
C	 1.569391398	 3.5965611626	 0.0907303878	-0.104602
H	 0.0268482018	-2.1003630719	-0.7824091795	 0.192451
H	-0.7682928299	 1.9949476522	-0.1251772589	 0.157828
H	-0.2389797243	 1.4609436662	 1.4625215982	 0.126017
H	 2.1699619529	 1.5884944558	 0.7125644078	 0.096971
H	 2.8117306823	 2.5148622551	-1.4894874227	 0.090797
H	 1.1907213792	 3.717800264	-2.9242532123	 0.095495
H	 0.2322261644	 2.2557012117	-2.5889703966	 0.119817
H	 0.7253883996	 5.4807207747	-0.5211715224	 0.095358
H	-0.3845845769	 4.5463273667	 0.5062905026	 0.108455
H	 2.3843322947	 4.0564462024	 0.6380816986	 0.090731
50.97	112.776	206.6634	219.6959	236.6945	347.479	399.7049	473.5292	519.961	612.3452	633.6682	686.6432	734.6058	775.144	815.8505	886.619	917.6141	933.8397	952.4117	989.1819	1004.5677	1025.9773	1056.186	1093.703	1105.2901	1125.5747	1130.3829	1197.1686	1224.0845	1241.563	1256.2849	1314.41	1329.3496	1358.7566	1363.1182	1395.0389	1450.2082	1480.6061	1514.2835	1525.2736	2236.922	2975.3523	2981.9644	3020.9507	3057.1201	3068.3575	3080.0403	3141.9384	3172.3124	3183.6474	3507.4243
C#CCC1C2COCC12	C#CC[C@H]1[C@H]2COC[C@@H]12	
InChI=1S/C8H10O/c1-2-3-6-7-4-9-5-8(6)7/h1,6-8H,3-5H2	InChI=1S/C8H10O/c1-2-3-6-7-4-9-5-8(6)7/h1,6-8H,3-5H2/t6-,7+,8-
