20
gdb 72810	2.67432	1.58322	1.26174	3.1875	79.47	-0.2525	0.0264	0.2789	1075.6828	0.172495	-403.166986	-403.158838	-403.157894	-403.199636	31.819	
C	-0.3610868328	 1.4699908922	 0.1283053336	-0.482265
C	 0.0761573991	 0.0215903473	-0.0226055291	 0.328732
C	-1.0546800213	-1.0320308409	 0.2233842186	-0.278117
C	-0.3952575782	-1.4105379024	 1.5781327426	-0.217227
C	 0.874747778	-0.6231570275	 1.1521305304	-0.150604
C	 1.9095983558	-1.4787723405	 0.4579359202	 0.402409
N	 2.717455441	-2.259618664	 1.0344591135	-0.544301
O	 1.8315043986	-1.3180377729	-0.9009833251	-0.245731
C	 0.953571483	-0.2356977179	-1.2487337256	-0.147681
H	 0.5004163961	 2.1458613567	 0.1665429645	 0.119749
H	-0.9944522848	 1.7790119963	-0.7116367305	 0.120468
H	-0.9412030075	 1.6139215166	 1.0455379457	 0.12264
H	-2.0709592889	-0.6331291863	 0.2670601475	 0.100518
H	-1.03497762	-1.849005506	-0.5032401271	 0.11018
H	-0.892017392	-0.9440867897	 2.4319704221	 0.106535
H	-0.2505815574	-2.4704253654	 1.7928374471	 0.121484
H	 1.3390546931	 0.0195803115	 1.9020493528	 0.094967
H	 3.3134789578	-2.7282176073	 0.3495899149	 0.2194
H	 0.3865134062	-0.5354436199	-2.1355448842	 0.114922
H	 1.562236764	 0.6422921502	-1.5037504718	 0.103922
76.6014	142.469	218.3378	237.4729	276.8709	322.2415	360.6709	462.2046	552.2957	593.5613	671.8883	717.7771	739.8283	811.7736	870.2262	892.452	898.5887	948.033	949.1151	964.8235	992.7662	1004.6717	1032.8378	1076.26	1122.0564	1155.5651	1181.5495	1208.834	1229.175	1248.0999	1263.481	1271.6781	1281.8532	1289.087	1339.8773	1406.6273	1418.0126	1478.7521	1493.7111	1495.9165	1497.1766	1516.2528	1769.8732	3012.1617	3024.623	3057.3424	3071.0584	3078.6966	3088.6731	3097.5037	3098.8424	3107.4569	3130.9408	3468.1208
CC12CCC1C(=N)OC2	C[C@]12CC[C@H]1[C]([NH])OC2	
InChI=1S/C7H11NO/c1-7-3-2-5(7)6(8)9-4-7/h5,8H,2-4H2,1H3	InChI=1S/C7H11NO/c1-7-3-2-5(7)6(8)9-4-7/h5,8H,2-4H2,1H3/t5-,7+/m0/s1
