19
gdb 126431	3.60387	0.9595	0.80004	2.8434	79.1	-0.2117	0.0426	0.2543	1468.1984	0.159743	-419.227404	-419.218044	-419.2171	-419.262346	33.603	
C	-0.4039308216	 1.5967099597	-0.4103128877	-0.369334
C	-0.1786068868	 0.116427336	-0.0610760779	-0.282355
C	-1.4533125893	-0.6384192453	 0.1702330171	 0.362543
N	-1.7606386283	-1.0816666426	 1.3837564675	-0.297237
N	-2.9679946139	-1.6899803705	 1.2290614886	-0.29223
C	-3.4128519521	-1.6371799287	-0.0469235044	 0.495936
O	-4.5943888622	-2.2079414923	-0.3366563834	-0.25847
C	-4.993863069	-2.1107771272	-1.6969766934	-0.247638
C	-2.4611140578	-0.9588641387	-0.7811748724	-0.45008
H	 0.5497332937	 2.1085396498	-0.574040559	 0.109405
H	-1.0032625935	 1.7041717281	-1.3202422604	 0.112898
H	-0.932499156	 2.1101005939	 0.3986628105	 0.124097
H	 0.3901812201	-0.3621489664	-0.8684867296	 0.100907
H	 0.4271190536	 0.0356516599	 0.8465814119	 0.116753
H	-3.423704427	-2.1254696963	 2.0119932821	 0.271081
H	-4.2691106628	-2.6055649658	-2.3545073038	 0.132187
H	-5.9591636618	-2.6126522491	-1.7710558931	 0.140169
H	-5.0986900223	-1.0623707193	-2.0008240261	 0.132185
H	-2.4803809231	-0.730675355	-1.8332431165	 0.099183
43.9765	91.2214	126.4779	175.5559	200.0785	236.622	288.8657	357.9511	392.7976	474.4923	502.1214	593.9485	690.8428	713.4238	741.0059	762.3679	793.1877	961.74	1003.3864	1033.1801	1059.2185	1085.5278	1091.6257	1155.1729	1181.0866	1182.9746	1228.4623	1276.0002	1322.8436	1351.2344	1405.6848	1435.597	1463.6785	1479.3163	1485.8029	1486.9441	1496.9479	1506.4133	1512.0752	1542.1629	1626.0928	3017.0643	3026.3488	3035.0714	3080.343	3081.9034	3105.5906	3112.6967	3145.7899	3271.8455	3684.2755
CCC1=NNC(OC)=C1	CCc1n[nH]c(OC)c1	
InChI=1S/C6H10N2O/c1-3-5-4-6(9-2)8-7-5/h4H,3H2,1-2H3,(H,7,8)	InChI=1S/C6H10N2O/c1-3-5-4-6(9-2)8-7-5/h4H,3H2,1-2H3,(H,7,8)
