18
gdb 49272	2.4133	1.70643	1.09718	5.2618	83.44	-0.1982	-0.0286	0.1696	1097.9965	0.148728	-401.961152	-401.953049	-401.952105	-401.993865	31.002	
O	-0.1807366597	-0.016895508	 0.2041203428	-0.326574
C	-0.0502522414	 1.1950073709	 0.1274240808	 0.054647
C	 1.2003529784	 1.8988135687	 0.0487497563	 0.1142
C	 1.3142866048	 3.2473557277	-0.0663240016	-0.080479
N	 2.6066405309	 3.6632244012	-0.2060988535	-0.298516
C	 3.5165960949	 2.5380522396	 0.0723556635	-0.249855
C	 2.5815111457	 1.3148971054	 0.0109805352	 0.249472
C	 2.967579486	 0.0101038285	 0.6592256067	-0.313771
C	 2.9223492878	 0.1124496305	-0.8439651184	-0.305138
H	-0.9452519134	 1.8602382964	 0.1177224395	 0.051166
H	 0.5090368607	 3.9717412456	-0.0953142768	 0.1367
H	 2.8742253347	 4.6024497133	 0.040300739	 0.252205
H	 4.3247467721	 2.4983043066	-0.6651418401	 0.118326
H	 3.969345746	 2.6494901902	 1.0685141889	 0.110556
H	 3.9390612068	-0.0361834385	 1.1430167968	 0.100979
H	 2.1807196727	-0.5565898701	 1.1402884807	 0.145491
H	 2.1055280543	-0.3874691057	-1.3501879555	 0.137525
H	 3.8602824087	 0.1371022176	-1.3906967845	 0.103064
75.5986	151.6039	178.0621	251.2601	318.2806	341.6244	381.2129	439.4857	453.2501	590.0813	600.7718	714.7933	782.839	822.1311	854.9833	901.2767	919.8268	946.5807	980.5491	998.1749	1018.2691	1063.0658	1068.2549	1091.2434	1147.9466	1195.0809	1203.1963	1225.3954	1270.9765	1304.3716	1349.7041	1408.1647	1431.8365	1452.1737	1475.4152	1490.0839	1522.5835	1649.5422	1745.2492	2849.4327	2990.5373	3061.8631	3125.4897	3129.8588	3212.7339	3224.0007	3237.3656	3637.8532
O=CC1=CNCC11CC1	O=CC1=CNCC21CC2	
InChI=1S/C7H9NO/c9-4-6-3-8-5-7(6)1-2-7/h3-4,8H,1-2,5H2	InChI=1S/C7H9NO/c9-4-6-3-8-5-7(6)1-2-7/h3-4,8H,1-2,5H2
