21
gdb 65809	2.81774	1.14727	1.01446	0.9644	83.49	-0.2516	0.0355	0.287	1283.8295	0.180003	-387.03679	-387.027113	-387.026169	-387.071618	36.69	
C	 0.1957020271	 1.3920049209	-0.6874876585	-0.459922
C	-0.1696445068	 0.1028655175	 0.0436112724	 0.442184
C	 0.390801387	-1.1833545917	-0.6448484565	-0.251891
C	 1.5753080172	-1.1597862731	 0.358067041	-0.225968
C	 0.7516874775	-0.1947464075	 1.2533793659	-0.259549
O	-1.5323921166	 0.0665817421	 0.4579846468	-0.290881
C	-2.53191235	 0.3880674073	-0.4890948309	-0.233776
C	-2.6160030686	-0.5107578528	-1.6455081888	 0.318719
C	-2.704005772	-1.231361633	-2.6037499092	-0.474649
H	 1.2768321688	 1.435339535	-0.8491082786	 0.120983
H	-0.2807605465	 1.4555376783	-1.6708287382	 0.124429
H	-0.0930732995	 2.2672675008	-0.0955726946	 0.119694
H	-0.2796658479	-2.0260393539	-0.4666904133	 0.11076
H	 0.6165996126	-1.1271527572	-1.7121616151	 0.093557
H	 1.8703647972	-2.1128793806	 0.8008345162	 0.099945
H	 2.4674829517	-0.6848770923	-0.0587619282	 0.100822
H	 1.2629567989	 0.6550889117	 1.7133101731	 0.091925
H	 0.1873996147	-0.7310771058	 2.0198056954	 0.111437
H	-3.4740778035	 0.3436700251	 0.0684636529	 0.138576
H	-2.4268187304	 1.4215315011	-0.8500341209	 0.122273
H	-2.7807222407	-1.8731951219	-3.4464590109	 0.201335
36.9121	91.184	143.8416	197.1393	247.2845	279.1106	316.0151	350.3081	368.4017	408.0203	425.5081	600.7677	617.3135	629.4997	673.4969	710.881	792.4114	867.8252	890.6309	905.5718	922.3146	936.1848	937.9769	989.1454	1027.6224	1052.0124	1093.5239	1166.8553	1192.1943	1196.8477	1216.2512	1248.6801	1274.3258	1281.1011	1289.9198	1310.1475	1396.2628	1403.9547	1466.3559	1476.1018	1480.4204	1491.0363	1504.7534	1506.9845	2231.1388	3000.6039	3033.0898	3058.8155	3062.1937	3063.3078	3071.7513	3103.9912	3106.2938	3108.8244	3121.9115	3133.8718	3503.4183
CC1(CCC1)OCC#C	CC1(CCC1)OCC#C	
InChI=1S/C8H12O/c1-3-7-9-8(2)5-4-6-8/h1H,4-7H2,2H3	InChI=1S/C8H12O/c1-3-7-9-8(2)5-4-6-8/h1H,4-7H2,2H3
