19
gdb 90933	2.98393	1.43614	1.4087	0.856	73.77	-0.2221	0.0684	0.2905	1033.852	0.159854	-422.990015	-422.982291	-422.981347	-423.021768	31.239	
C	-0.0434956492	 1.5849840807	 0.0159741991	-0.413683
C	 0.0412877173	 0.0595296957	-0.003245453	 0.040932
C	 0.8486132462	-0.5278201227	-1.2034122623	-0.247915
C	 1.5946878126	-1.7200463522	-0.6086246267	-0.126917
C	 2.5141147483	-1.4203540148	 0.584501245	-0.003271
O	 2.1821090165	-0.1475098843	 1.1415848969	-0.30669
C	 0.7686748163	-0.544946977	 1.1983369073	 0.003897
C	 1.1489082364	-1.9973233366	 0.8002334189	 0.308395
O	 0.6309168819	-3.1917210016	 1.2425819355	-0.455232
H	 0.9578649502	 2.0170407118	 0.1035394614	 0.134733
H	-0.5023887605	 1.9663638967	-0.9019211623	 0.112569
H	-0.643485962	 1.9414636278	 0.8602889363	 0.108389
H	-0.9723141783	-0.3653116655	-0.0121289013	 0.075898
H	 0.1907358901	-0.8340304025	-2.0217308981	 0.101021
H	 1.5428321264	 0.2184090971	-1.6034768224	 0.10742
H	 1.8907781007	-2.5661786782	-1.2194511295	 0.092944
H	 3.5281097099	-1.7854846091	 0.696507874	 0.105972
H	 0.3394868408	-0.3496761901	 2.1845289202	 0.071883
H	 0.8675824764	-3.3021085452	 2.170646811	 0.289655
125.7412	217.6051	248.9732	252.0867	333.293	358.0906	377.0118	484.2846	523.1547	615.9966	631.8985	710.3075	763.5995	837.1511	853.9559	897.2692	916.141	938.1897	950.7306	978.4403	1007.1903	1018.2445	1043.246	1082.2595	1112.0514	1136.6365	1155.2216	1199.1847	1220.66	1247.8082	1272.5121	1291.7787	1310.2526	1324.98	1346.9718	1364.1477	1405.408	1487.6604	1493.6414	1499.7925	1505.453	3009.0674	3032.75	3048.1789	3083.9167	3089.9228	3097.0686	3113.9033	3177.6151	3189.0363	3787.1865
CC1CC2C3OC1C23O	C[C@H]1C[C@H]2[C@H]3O[C@@H]1[C@@]23O	
InChI=1S/C7H10O2/c1-3-2-4-6-7(4,8)5(3)9-6/h3-6,8H,2H2,1H3	InChI=1S/C7H10O2/c1-3-2-4-6-7(4,8)5(3)9-6/h3-6,8H,2H2,1H3/t3-,4-,5-,6+,7-/m0/s1
