21
gdb 92687	2.90803	1.23913	0.9059	3.2447	86.66	-0.2345	-0.0419	0.1926	1331.624	0.182457	-387.148083	-387.13891	-387.137966	-387.181766	34.823	
C	-0.0306122933	 1.5798183967	 0.0188687615	-0.402703
C	 0.0068711239	 0.0504833208	-0.0112110496	 0.007191
C	 0.7060556472	-0.4879201614	-1.2682059771	-0.249079
C	 0.9096758015	-1.9761956443	-1.2253287964	-0.153539
C	 0.9033337125	-2.7169401826	-0.1052695574	 0.225026
C	 1.0763772949	-4.2101699823	-0.091033646	-0.476494
C	 0.7313790424	-2.0590755937	 1.2195127612	 0.308798
O	 0.6692779589	-2.7102971891	 2.2446810693	-0.323686
C	 0.6851849722	-0.5367844478	 1.2336414451	-0.30449
H	 0.9824791808	 1.9979543942	 0.0498566336	 0.114211
H	-0.5304226499	 1.9813725013	-0.8692119579	 0.11315
H	-0.5684118272	 1.944559053	 0.8998995043	 0.118006
H	-1.0278693898	-0.3201356773	-0.0311414891	 0.083494
H	 0.1357554721	-0.2205764285	-2.166598635	 0.108276
H	 1.6840811122	 0.0068435996	-1.3874759874	 0.113863
H	 1.0741588755	-2.4717558854	-2.1812771055	 0.095279
H	 1.9430374735	-4.496971493	 0.5136629206	 0.137211
H	 0.2109472142	-4.6953293864	 0.3716340582	 0.140338
H	 1.2041723754	-4.6050215044	-1.1021645564	 0.111103
H	 1.7254557048	-0.1788753446	 1.2828019856	 0.116248
H	 0.1979031383	-0.2211001548	 2.1604524684	 0.117797
86.7429	125.0757	148.2488	240.6567	265.1565	271.3703	301.7388	341.2191	387.5191	406.5666	461.8703	552.2457	646.7034	690.2655	721.5576	814.9862	856.4235	915.4476	926.504	956.0923	990.6008	1044.9677	1070.4515	1083.3308	1105.8143	1129.9128	1157.699	1167.9337	1262.1066	1272.7213	1292.4626	1328.3237	1372.7459	1385.5663	1391.2758	1410.8712	1414.5759	1458.9589	1471.0044	1475.0069	1486.4867	1497.322	1498.662	1703.9181	1768.9396	2978.2442	2994.9275	3010.5921	3026.0205	3039.4779	3043.0332	3090.2931	3093.4704	3096.2255	3101.055	3121.1511	3136.6564
CC1CC=C(C)C(=O)C1	C[C@H]1CC=C(C)C(=O)C1	
InChI=1S/C8H12O/c1-6-3-4-7(2)8(9)5-6/h4,6H,3,5H2,1-2H3	InChI=1S/C8H12O/c1-6-3-4-7(2)8(9)5-6/h4,6H,3,5H2,1-2H3/t6-/m0/s1
