17
gdb 26689	2.27241	1.5817	0.94284	2.924	73.03	-0.1612	0.0453	0.2065	1202.0552	0.135181	-455.168579	-455.15872	-455.157776	-455.202658	35.993	
C	-0.0321789177	 1.5597631093	 0.1083659024	-0.509962
C	 0.034953542	 0.0772284193	-0.0071201152	 0.192603
C	 0.0707921233	-0.7500360626	-1.0976916544	 0.258109
O	 0.0535147991	-0.3791782703	-2.4071088801	-0.46074
C	 0.1307602241	-2.1140797168	-0.661770014	-0.063881
N	 0.178675441	-3.2105096163	-1.5679706114	-0.643887
C	 0.1292140632	-2.0689840785	 0.7160438781	 0.338381
O	 0.1732732805	-3.0444434654	 1.6606079491	-0.438262
N	 0.0716576623	-0.7714885197	 1.1113744008	-0.36885
H	 0.8324633571	 1.9855945543	 0.6361621394	 0.11474
H	-0.0488338671	 1.9922908196	-0.8948835967	 0.147403
H	-0.9345419407	 1.9059564774	 0.6312432198	 0.114945
H	 0.0905202317	-1.2089259968	-2.9042256638	 0.29011
H	-0.6194882654	-3.833097675	-1.5102011298	 0.236931
H	 1.0284407935	-3.7606420644	-1.5107578604	 0.236895
H	 0.2113436814	-3.8893697171	 1.1997670294	 0.295613
H	 0.0631499518	-0.473861767	 2.0706954168	 0.259852
114.5334	144.6611	181.9178	192.5572	222.9684	235.9705	245.4534	291.4413	295.1582	305.3201	416.7755	501.8781	555.5572	604.1749	618.2314	646.3233	695.8937	718.5697	759.2677	931.2362	994.1403	1064.2078	1127.2598	1172.4755	1190.2059	1238.9813	1252.6358	1337.3372	1393.7704	1417.938	1477.434	1480.2113	1499.8097	1563.4804	1628.4745	1650.0953	1708.3875	2996.907	3032.4076	3120.6962	3496.4741	3567.7733	3689.397	3738.4331	3820.9235
CC1=C(O)C(N)=C(O)N1	Cc1c(O)c(N)c(O)[nH]1	
InChI=1S/C5H8N2O2/c1-2-4(8)3(6)5(9)7-2/h7-9H,6H2,1H3	InChI=1S/C5H8N2O2/c1-2-4(8)3(6)5(9)7-2/h7-9H,6H2,1H3
