18
gdb 47454	2.95704	1.22817	0.97265	3.2682	78.25	-0.2534	0.0252	0.2786	1225.7423	0.147823	-401.935209	-401.926525	-401.925581	-401.969099	32.215	
N	-0.0819864135	 1.3101790078	-0.5134622828	-0.524152
C	-0.067478587	 0.0666105301	-0.3045337073	 0.411731
O	 1.0723778635	-0.6798867484	-0.1519044234	-0.241334
C	 0.7531684306	-2.0697438079	 0.0123456021	-0.08341
C	-0.6882954664	-2.216754293	-0.4940312704	-0.255529
C	-1.2867908748	-0.8321887564	-0.1883903931	-0.083542
C	-1.9169322777	-0.7757271537	 1.2310029922	-0.375164
C	-2.5537183009	 0.4922593296	 1.5566951438	 0.324437
C	-3.102498359	 1.5257756272	 1.8269587313	-0.435034
H	 0.870256502	 1.6806923444	-0.5327752007	 0.220793
H	 1.4809991869	-2.6530474803	-0.5567317114	 0.121752
H	 0.8498533752	-2.3361049665	 1.0723653365	 0.113155
H	-0.690352992	-2.3979376551	-1.5726641527	 0.118734
H	-1.2210934561	-3.039802118	-0.0114704543	 0.109205
H	-2.039271535	-0.5235453266	-0.9146497503	 0.116576
H	-2.6608202506	-1.5799411217	 1.2983157697	 0.131634
H	-1.150771381	-1.0065526799	 1.9827937915	 0.133491
H	-3.5691591444	 2.4509254084	 2.0579218694	 0.196657
59.4668	94.5638	137.1256	189.0651	232.6175	324.1227	340.1534	450.6313	479.8735	620.7474	639.4616	655.9937	667.805	691.6708	790.3123	863.2812	895.4362	919.7292	945.9262	966.5165	991.4018	1016.6359	1056.4766	1103.1103	1131.2869	1199.2708	1217.6422	1232.0626	1272.3721	1281.756	1330.7087	1352.3849	1363.1498	1407.4689	1471.461	1493.1661	1526.9258	1777.8393	2245.3137	3016.3471	3027.4522	3048.1631	3061.5133	3096.8332	3110.5037	3116.1973	3466.3558	3508.5525
N=C1OCCC1CC#C	[NH][C]1OCC[C@H]1CC#C	
InChI=1S/C7H9NO/c1-2-3-6-4-5-9-7(6)8/h1,6,8H,3-5H2	InChI=1S/C7H9NO/c1-2-3-6-4-5-9-7(6)8/h1,6,8H,3-5H2/t6-/m1/s1
