16
gdb 34178	4.53545	1.44976	1.31064	1.172	78.06	-0.2375	0.0356	0.2731	963.5668	0.125279	-363.517904	-363.511287	-363.510343	-363.548614	27.579	
C	 0.0732172464	-1.1245067874	-0.0172764722	-0.360256
C	 0.0358244893	 0.0780919371	-0.0094501117	 0.100885
C	-0.0361333766	 1.5030550464	-0.0209359852	 0.22044
C	-1.0852022901	 2.26561207	-0.8266225065	-0.241267
N	-0.7568781855	 3.6580966098	-0.5225387494	-0.124246
C	-0.2285684486	 3.7467590647	 0.8486589818	-0.075042
C	 0.6957564804	 3.7839607091	-0.3196332095	-0.075073
C	 1.2226166163	 2.3661118018	 0.0404059987	-0.136567
C	 0.2869951731	 2.3284668233	 1.2230158997	-0.136607
H	 0.1098096097	-2.1854891507	-0.0214109323	 0.182333
H	-0.9984103128	 2.0829518273	-1.9015121862	 0.118028
H	-2.1049375209	 2.0384163895	-0.5028836926	 0.11803
H	-0.5878026275	 4.5154723685	 1.5201351792	 0.100132
H	 1.2422057562	 4.5891223363	-0.7928742522	 0.100129
H	 2.223964406	 1.9774571915	-0.0691977635	 0.104539
H	 0.4232991546	 1.9049832827	 2.2068027719	 0.104539
149.6023	150.7164	386.9888	484.4559	492.7384	506.624	564.7608	591.8744	649.3575	728.4016	734.7781	770.4884	791.2507	809.7894	853.5364	855.0224	925.6209	928.7853	952.3743	1002.5476	1007.7172	1040.0071	1062.7925	1070.7928	1131.7863	1189.1203	1190.3314	1214.714	1239.5298	1256.2974	1279.6366	1316.9588	1389.0422	1497.9161	2237.8687	3060.0722	3110.4997	3192.8483	3205.1398	3226.8701	3237.4072	3503.9511
C#CC12CN3C4C3C1C24	C#C[C@]12CN3[C@@H]4[C@H]3[C@H]1[C@H]24	
InChI=1S/C8H7N/c1-2-8-3-9-6-4(8)5(8)7(6)9/h1,4-7H,3H2	InChI=1S/C8H7N/c1-2-8-3-9-6-4(8)5(8)7(6)9/h1,4-7H,3H2/t4-,5+,6-,7+,8+,9?
