18
gdb 24426	3.40666	1.55832	1.11317	1.6943	78.16	-0.1808	0.0359	0.2167	1072.4732	0.151741	-401.987969	-401.980923	-401.979979	-402.019285	28.562	
C	 0.0018756285	 1.5488325638	-0.0003533618	-0.206414
C	 1.4567915349	 2.0562779137	 0.0423027331	-0.162499
N	 2.2115653541	 1.5945678802	 1.2183512869	-0.3943
C	 1.8739172259	 0.294240318	 1.5631575128	 0.335899
C	 0.9184829313	-0.5109338682	 1.0204312828	 0.196188
C	-0.0523853174	 0.0064573888	-0.000451943	-0.332686
C	 1.0784618444	-1.7800091141	 1.6785440854	-0.307161
C	 2.0939244629	-1.6296835159	 2.5651536831	-0.027346
O	 2.6061117115	-0.3562724714	 2.4999599694	-0.195951
H	-0.5344726692	 1.9332143297	 0.8759712134	 0.100109
H	-0.4977661572	 1.9518493816	-0.8874673343	 0.096812
H	 1.985463464	 1.7074252251	-0.854366009	 0.115823
H	 1.4888856201	 3.1488472804	 0.029253542	 0.105069
H	 2.1715565752	 2.2405899324	 1.9986623154	 0.236063
H	-1.0730122196	-0.3301701626	 0.2166445146	 0.104528
H	 0.1847802206	-0.3754070576	-1.0035186285	 0.105701
H	 0.4991970545	-2.6774489146	 1.5210300269	 0.102317
H	 2.5591282753	-2.2773387594	 3.2883738007	 0.12785
111.4809	217.1634	296.797	308.1867	389.782	453.569	515.7004	592.1286	611.3421	676.2494	681.9475	710.936	766.064	817.7425	865.2158	877.5993	910.0187	934.4595	988.4941	1058.8214	1063.3808	1104.4429	1138.0628	1185.8691	1197.053	1216.5542	1270.2824	1284.6588	1300.6583	1351.616	1365.2702	1394.2977	1430.7934	1472.4175	1480.1828	1495.2892	1499.8279	1554.2356	1675.6669	3002.3146	3021.7193	3030.8779	3051.271	3081.1281	3094.6707	3244.572	3290.4678	3525.1854
C1CNC2=C(C1)C=CO2	C1CNc2c(C1)cco2	
InChI=1S/C7H9NO/c1-2-6-3-5-9-7(6)8-4-1/h3,5,8H,1-2,4H2	InChI=1S/C7H9NO/c1-2-6-3-5-9-7(6)8-4-1/h3,5,8H,1-2,4H2
