20
gdb 23125	1.85281	1.63908	0.92898	1.1597	86.38	-0.2192	-0.0255	0.1937	1288.1123	0.170859	-403.132823	-403.123641	-403.122697	-403.167315	34.326	
C	-0.0040752396	 1.5576459671	 0.1882947037	-0.386078
C	-0.0179228926	 0.0391596981	-0.0000859722	-0.172988
C	 0.6760306576	-0.45280008	-1.2882811259	-0.068662
C	 0.8143951786	-2.0047908704	-1.3216339502	-0.293763
C	-0.0104858703	-2.4385928021	-2.5038813548	-0.068486
C	-0.5198627303	-1.4034443833	-3.1833363143	-0.141185
C	-0.1090993115	-0.1447499052	-2.562920925	 0.37497
N	-0.3085712622	 1.0550483521	-2.962518846	-0.240998
O	-1.0603686076	 1.0830242563	-4.1544251268	-0.395761
H	 1.0236265872	 1.9334348628	 0.2512597372	 0.108285
H	-0.4895794139	 2.064019923	-0.6484476247	 0.143385
H	-0.5188022751	 1.837738705	 1.1129759434	 0.103781
H	 0.4839222451	-0.4363158876	 0.8523508286	 0.09238
H	-1.0510306176	-0.3325998181	 0.0061034597	 0.098114
H	 1.6621608085	 0.020186343	-1.3465096244	 0.091662
H	 1.8588728919	-2.3234639569	-1.4320965363	 0.114934
H	 0.4561199356	-2.4643745677	-0.3917220101	 0.111096
H	-0.1542536069	-3.4828785908	-2.7596735263	 0.104794
H	-1.1351216858	-1.4480738712	-4.0701246349	 0.120627
H	-1.1149737811	 2.0270907561	-4.3336724409	 0.303894
36.2607	118.0484	154.0363	220.2805	249.3783	264.6507	291.4719	365.4818	384.6883	421.7896	514.8717	633.4436	689.7142	764.3373	787.1098	807.8483	836.5889	890.7745	948.858	963.679	973.8184	992.3133	1021.1412	1056.1581	1108.5143	1109.6391	1126.4277	1206.4525	1236.4632	1260.9603	1286.6143	1312.5584	1352.4151	1366.6764	1370.5343	1403.1801	1413.2006	1480.6635	1487.0316	1496.3478	1510.4181	1651.6609	1716.4452	3013.5618	3021.4958	3033.7486	3038.5023	3049.2867	3059.3589	3095.811	3134.3295	3192.4799	3250.4039	3826.4779
CCC1CC=CC1=NO	CC[C@H]1CC=CC1=NO	
InChI=1S/C7H11NO/c1-2-6-4-3-5-7(6)8-9/h3,5-6,9H,2,4H2,1H3	InChI=1S/C7H11NO/c1-2-6-4-3-5-7(6)8-9/h3,5-6,9H,2,4H2,1H3/t6-/m0/s1
