18
gdb 15255	2.27213	1.82921	1.23611	3.0234	70.37	-0.2392	-0.0172	0.222	1042.2863	0.151353	-384.925448	-384.916406	-384.915462	-384.959288	31.753	
C	 0.0573547528	 1.0718927465	 0.54040771	-0.24286
O	-0.1188966657	 0.0311139964	-0.40475688	-0.230804
C	-1.3263070153	-0.6346544616	-0.2701136878	 0.09775
C	-1.4011255642	-2.0181777008	-0.7976060058	-0.075384
C	-0.2252861977	-2.6695300935	-1.4961077733	-0.411597
C	-1.4463243628	-1.8005453226	 0.7299397978	-0.168851
C	-0.3031427082	-2.1682314689	 1.5897380848	 0.160171
O	-0.4226989761	-2.6219182053	 2.7052304786	-0.281518
H	 1.0117008714	 1.5508535328	 0.3127429199	 0.134959
H	-0.7463875841	 1.8185816777	 0.4673985187	 0.114713
H	 0.0816481829	 0.6841766388	 1.5683553503	 0.123921
H	-2.2046982566	 0.0086534418	-0.3464566512	 0.097351
H	-2.3687357086	-2.3000408104	-1.2034681435	 0.104174
H	 0.7256727241	-2.236356722	-1.1839979936	 0.14162
H	-0.1999662178	-3.7467566922	-1.3054205212	 0.126617
H	-0.3116155794	-2.5221272654	-2.5775311341	 0.125848
H	-2.4073506298	-1.9394020914	 1.2141534441	 0.103612
H	 0.7018782252	-1.9949807498	 1.1520569663	 0.080277
78.0166	121.7737	143.9287	173.1323	182.2225	230.2259	239.8294	317.0061	423.9409	455.6202	556.727	609.0597	721.2999	848.2139	900.4975	960.5497	982.2073	1006.82	1052.3604	1094.804	1104.5755	1147.1861	1170.6661	1181.3691	1185.8254	1231.0541	1266.1957	1331.4866	1369.6176	1416.4925	1432.1172	1447.7538	1486.5523	1487.3627	1493.6826	1504.2526	1508.9247	1798.9907	2913.0004	2992.2722	3045.055	3046.9871	3084.6117	3102.5414	3128.719	3137.0696	3152.2015	3171.4854
COC1C(C)C1C=O	CO[C@H]1[C@@H](C)[C@H]1C=O	
InChI=1S/C6H10O2/c1-4-5(3-7)6(4)8-2/h3-6H,1-2H3	InChI=1S/C6H10O2/c1-4-5(3-7)6(4)8-2/h3-6H,1-2H3/t4-,5+,6-/m0/s1
