14
gdb 43458	2.93179	1.60474	1.13057	2.995	64.47	-0.2844	-0.0179	0.2665	1022.2845	0.101248	-473.870672	-473.863499	-473.862555	-473.902579	27.116	
N	-0.0629992047	 1.2805787458	 0.0119049499	-0.538762
C	-0.0345230187	 0.0265778836	 0.0046945013	 0.34038
O	 1.0937164461	-0.7720649116	-0.0070554467	-0.24122
C	 0.7252172544	-2.1040950341	-0.0121836578	 0.489709
O	 1.4919654541	-3.0066526099	-0.0221895679	-0.348442
O	-0.6207629165	-2.2034899641	-0.0040780142	-0.268783
C	-1.187768314	-0.9023931354	 0.0069298729	 0.338021
C	-2.4549028959	-0.6578027277	 0.7713970596	-0.310478
C	-2.4647140464	-0.6492981482	-0.7381825005	-0.31048
H	 0.8718204995	 1.686660208	 0.0081594112	 0.246361
H	-2.883097905	-1.5172396452	 1.2741453676	 0.146711
H	-2.5241890295	 0.2873421746	 1.2973673544	 0.155136
H	-2.540762187	 0.3017081691	-1.252525931	 0.155137
H	-2.8994774363	-1.5030425048	-1.2449765188	 0.146711
97.6747	157.2076	232.7784	232.8475	366.774	423.9172	524.966	611.3373	656.4692	691.1345	767.5147	772.4823	773.016	873.7859	917.8457	931.0126	953.8313	967.1073	1014.4262	1023.8936	1070.2774	1089.4538	1130.1268	1198.825	1287.9835	1299.1033	1396.0209	1442.9131	1484.8174	1809.8421	1956.2388	3145.3284	3145.4543	3236.8254	3249.4473	3510.2644
N=C1OC(=O)OC11CC1	[NH][C]1OC(=O)OC21CC2	
InChI=1S/C5H5NO3/c6-3-5(1-2-5)9-4(7)8-3/h6H,1-2H2	InChI=1S/C5H5NO3/c6-3-5(1-2-5)9-4(7)8-3/h6H,1-2H2
