17
gdb 47595	2.43912	1.83539	1.20814	2.8415	68.52	-0.2439	-0.0386	0.2053	1016.8796	0.137033	-458.953256	-458.945796	-458.944852	-458.985743	28.168	
O	-0.0020939346	-0.044769234	-0.1613007462	-0.300449
C	-0.0323003748	 1.1552501181	-0.0295600219	 0.374328
C	-1.3064264228	 1.9644616479	 0.0829889834	-0.308346
C	-1.192105103	 3.2033184859	-0.8225540947	-0.095021
O	-0.1362905088	 4.0366569942	-0.3795462129	-0.25889
C	 1.152264706	 3.4685708538	-0.4875990716	 0.048965
C	 1.9388387739	 3.743852871	 0.8007113798	-0.08684
O	 1.6694010838	 2.4054258426	 1.2858487914	-0.291516
C	 1.2498834413	 1.984944838	-0.0355852627	 0.021713
H	-2.1600016946	 1.3341065309	-0.1783975332	 0.123251
H	-1.4214945466	 2.3112451774	 1.1167047475	 0.143595
H	-1.048241466	 2.9030037353	-1.8730186207	 0.101723
H	-2.1005361148	 3.8086208868	-0.7707392202	 0.123854
H	 1.6133324199	 3.7187089357	-1.4504290057	 0.086132
H	 3.0137010241	 3.9101529652	 0.6564804003	 0.105384
H	 1.514436598	 4.5181658749	 1.4449686855	 0.123558
H	 2.0385714992	 1.4143256563	-0.5415066981	 0.088558
60.8569	127.948	207.1816	280.4366	369.4985	410.3947	459.3347	470.6647	565.1576	710.0682	753.5882	818.3623	865.7336	881.0018	918.2777	964.9241	988.0614	1014.6025	1042.6376	1075.7338	1086.9538	1136.7812	1176.6395	1197.7822	1247.9181	1257.6253	1273.7515	1284.5636	1326.4901	1335.7822	1342.3339	1369.8827	1405.4002	1448.225	1504.8239	1508.2634	1820.4741	2979.702	3023.0174	3029.3366	3044.7667	3047.8219	3097.5	3103.9392	3116.4422
O=C1CCOC2COC12	O=C1CCO[C@H]2CO[C@@H]12	
InChI=1S/C6H8O3/c7-4-1-2-8-5-3-9-6(4)5/h5-6H,1-3H2	InChI=1S/C6H8O3/c7-4-1-2-8-5-3-9-6(4)5/h5-6H,1-3H2/t5-,6-/m0/s1
