24
gdb 119157	3.09898	0.95056	0.81451	0.936	89.83	-0.218	0.0897	0.3077	1541.2811	0.216294	-368.368008	-368.357977	-368.357032	-368.403751	37.838	
C	-0.422136882	 1.4981343838	-1.2444815939	-0.377734
C	-0.1114418065	 0.0427168401	-0.8783505588	-0.191489
C	-1.3808288103	-0.7449054721	-0.5385685015	-0.210955
C	-1.2249454193	-2.1996834859	-0.109724684	 0.337072
C	-0.1189914841	-3.0639468662	-0.6813212768	-0.322211
C	-0.094223056	-2.637662055	 0.7739144308	-0.300524
N	-2.5430862003	-2.7364444562	 0.1865080425	-0.107645
C	-3.2889326544	-3.3824442369	-0.8889884733	-0.222385
C	-2.7814546318	-4.167701954	 0.2707311229	-0.237289
H	 0.4897607631	 2.0495847103	-1.4936071848	 0.109389
H	-1.0929787087	 1.5540058285	-2.1089631354	 0.114106
H	-0.9116037763	 2.0188216416	-0.4141394579	 0.115979
H	 0.4150194079	-0.4305989431	-1.715806605	 0.098266
H	 0.5816392178	 0.0290712812	-0.0285574064	 0.099174
H	-1.9234974028	-0.2293467283	 0.2642073856	 0.106171
H	-2.0499339482	-0.7240592144	-1.4103766914	 0.093977
H	-0.315670435	-4.107415998	-0.9018172134	 0.108031
H	 0.5949968747	-2.6095524009	-1.3586075804	 0.111106
H	 0.6463503308	-1.9112984277	 1.0885209292	 0.112649
H	-0.316810753	-3.3941200875	 1.519362028	 0.113257
H	-4.3403019912	-3.1197877131	-0.9670830185	 0.113624
H	-2.779507855	-3.5340520179	-1.8393020572	 0.110619
H	-1.9663383732	-4.8622688817	 0.080775504	 0.111922
H	-3.4537867064	-4.4770256465	 1.0666257656	 0.114891
35.2737	68.5708	113.0653	152.8624	239.3141	244.6202	278.4161	317.1248	333.4197	387.9788	488.3574	516.9345	654.9969	745.2156	768.039	796.7138	824.7507	839.8807	901.9248	926.5283	927.2744	942.5773	964.3422	995.1075	1039.6054	1046.113	1056.6108	1075.2036	1106.1144	1116.9635	1120.2367	1153.7888	1170.7607	1180.88	1185.6891	1213.1303	1275.4434	1311.9818	1331.0834	1331.4429	1354.9564	1401.7968	1410.7335	1459.571	1481.6393	1486.9378	1492.6981	1498.8071	1505.0623	1512.1182	1522.4214	3007.2513	3027.4153	3030.2588	3041.1471	3065.2958	3094.2993	3098.5818	3102.6363	3103.5621	3133.537	3138.1516	3174.5107	3188.7041	3209.2882	3222.374
CCCC1(CC1)N1CC1	CCCC1(CC1)N1CC1	
InChI=1S/C8H15N/c1-2-3-8(4-5-8)9-6-7-9/h2-7H2,1H3	InChI=1S/C8H15N/c1-2-3-8(4-5-8)9-6-7-9/h2-7H2,1H3
