25
gdb 122418	5.05436	0.54507	0.52331	1.3718	90.52	-0.2519	0.0787	0.3306	2209.3372	0.227983	-389.489971	-389.479286	-389.478342	-389.526571	39.328	
C	-0.1662539376	 1.5416920388	 0.0508976148	-0.379751
C	 0.0496143873	 0.02778797	-0.0241838398	-0.162733
C	 0.697561809	-0.5531579191	 1.2372811636	-0.156569
C	 0.9170090061	-2.0691946478	 1.1708091636	-0.206159
C	 1.5539391732	-2.6467141007	 2.4279119523	 0.043113
C	 0.7254375951	-2.6854860257	 3.7470189887	-0.243277
C	 1.3478365391	-4.061250185	 4.0501372064	 0.146083
O	 0.4492029004	-4.9855688293	 4.6196694828	-0.43257
C	 1.7191883663	-4.1891079869	 2.5469360501	-0.291256
H	 0.7835602844	 2.0708686324	 0.1878252955	 0.112099
H	-0.6322587347	 1.9262558877	-0.8618551767	 0.109767
H	-0.8148671187	 1.807453467	 0.8931930986	 0.113117
H	-0.9127478226	-0.4716399996	-0.1985042339	 0.093885
H	 0.6751565636	-0.2111827431	-0.8946686877	 0.092568
H	 1.6612393935	-0.0538844132	 1.4122119713	 0.088555
H	 0.0719196194	-0.3134548242	 2.1081480224	 0.096614
H	-0.0454813263	-2.5702579266	 0.9952313841	 0.088868
H	 1.5474702125	-2.308188704	 0.3025044617	 0.089628
H	 2.5170585434	-2.154425594	 2.6098102778	 0.0654
H	 0.8557038818	-1.886645463	 4.4802374026	 0.094875
H	-0.3421119914	-2.8092845654	 3.5361509104	 0.107411
H	 2.2524784887	-3.956153601	 4.6671920111	 0.062436
H	 0.9190818977	-5.8126873491	 4.7664181451	 0.279667
H	 0.9181853972	-4.7121087534	 2.0138138343	 0.101103
H	 2.6819644927	-4.6332528146	 2.279880071	 0.087128
51.1357	68.8444	91.984	120.1057	153.8616	243.759	256.3028	273.441	295.8931	367.201	411.9162	458.6039	468.1113	605.2324	736.7711	784.522	799.6229	810.68	896.6634	905.851	933.6995	956.507	999.674	1018.1656	1023.0898	1056.088	1067.0545	1077.5039	1127.8037	1139.6694	1178.9219	1214.0059	1217.3666	1249.6181	1253.193	1265.9478	1276.4319	1289.109	1319.2953	1330.4802	1334.966	1355.2003	1388.9423	1400.6148	1413.6396	1430.4409	1470.1482	1481.3298	1486.6229	1498.3848	1499.9434	1503.0395	1513.0585	2986.6836	2998.3766	3003.7965	3015.4804	3019.6514	3027.3257	3028.6733	3039.7983	3044.4627	3053.285	3058.7291	3094.4228	3099.8375	3103.8427	3113.3855	3814.8111
CCCCC1CC(O)C1	CCCC[C@H]1C[C@@H](O)C1	
InChI=1S/C8H16O/c1-2-3-4-7-5-8(9)6-7/h7-9H,2-6H2,1H3	InChI=1S/C8H16O/c1-2-3-4-7-5-8(9)6-7/h7-9H,2-6H2,1H3/t7-,8+
