19
gdb 115523	2.66802	1.07525	1.02641	2.2152	77.58	-0.2529	0.0379	0.2908	1278.3677	0.15687	-422.96652	-422.956805	-422.955861	-423.001332	35.742	
C	-0.1236758285	 1.5701554232	-0.1005428566	-0.457109
C	-0.0568298757	 0.0413735448	 0.0290302446	 0.043872
C	 1.2139206462	-0.576062221	-0.6322628851	-0.09859
O	 1.8240252756	-0.8210019891	 0.6480493238	-0.307907
C	 0.5930289553	-0.5133271907	 1.3456052572	 0.102642
C	 0.8673869289	 0.3748145403	 2.5450321298	-0.083946
O	 1.7382411578	-0.2913405363	 3.4415860814	-0.420141
C	-1.3232533347	-0.5708365437	-0.3334653792	 0.280131
C	-2.3733542689	-1.0765772922	-0.6294273473	-0.4579
H	 0.8473967283	 2.0241116901	 0.1135502436	 0.127658
H	-0.4103408401	 1.8414471267	-1.1206310023	 0.130927
H	-0.8667387223	 1.9936934997	 0.580725491	 0.132583
H	 1.0254423351	-1.5048324362	-1.1825182322	 0.112736
H	 1.8072901097	 0.107033234	-1.2502036933	 0.108868
H	 0.1047794228	-1.436187774	 1.683747581	 0.089256
H	 1.2888359218	 1.3375321794	 2.2230779644	 0.087589
H	-0.0623268077	 0.5740894723	 3.0891251832	 0.1145
H	 2.5118497849	-0.5487932355	 2.9257682665	 0.2964
H	-3.2993382885	-1.5263198621	-0.8905124003	 0.198431
57.428	88.7025	143.027	165.6345	190.8734	261.9511	300.8389	351.5389	385.9748	427.3075	466.4296	534.2149	580.0171	609.4668	629.4926	636.9296	818.6881	877.4632	910.3659	954.0033	967.7732	1027.2977	1049.8719	1067.1383	1107.9579	1153.563	1159.4684	1205.9806	1221.1915	1224.2386	1297.6385	1340.4701	1359.1906	1402.8695	1411.4238	1435.5963	1492.1716	1494.43	1502.196	1522.9936	2233.8325	3003.4106	3022.8028	3030.3976	3044.6128	3076.8556	3077.4625	3117.2881	3123.7742	3500.8376	3792.7256
CC1(COC1CO)C#C	C[C@]1(CO[C@H]1CO)C#C	
InChI=1S/C7H10O2/c1-3-7(2)5-9-6(7)4-8/h1,6,8H,4-5H2,2H3	InChI=1S/C7H10O2/c1-3-7(2)5-9-6(7)4-8/h1,6,8H,4-5H2,2H3/t6-,7+/m0/s1
