17
gdb 81487	3.32462	1.53034	1.44459	1.7551	65.88	-0.2521	0.057	0.3091	946.2171	0.138153	-458.901525	-458.894963	-458.894019	-458.93225	27.14	
O	 0.0614010884	 1.4617681565	 0.0860751324	-0.458613
C	 0.0637896306	 0.0633711845	 0.1065300395	 0.184989
C	-1.3211073331	-0.5800489952	-0.1967034323	-0.003216
O	-1.0569569445	-0.2856312223	-1.6235355909	-0.330958
C	 0.3382959425	-0.6036434055	-1.2635740371	-0.006976
C	 0.2169078211	-2.1165665308	-0.9870538202	 0.121541
O	 0.9478669708	-2.6166368224	 0.1571705827	-0.299617
C	-0.2689996621	-2.7508067775	 0.9316169441	-0.108666
C	-1.1114705556	-2.1019176084	-0.1859978605	-0.069939
H	-0.4369206324	 1.7188852796	-0.7013098678	 0.287355
H	 0.6404931466	-0.2555463981	 0.9731321113	 0.106715
H	-2.2526739328	-0.1542042234	 0.1759552747	 0.088174
H	 1.0778189906	-0.2287676881	-1.9705277279	 0.08678
H	 0.3340760739	-2.7496089307	-1.8698419552	 0.089082
H	-0.5068907997	-3.8052460653	 1.1132626247	 0.110499
H	-0.2137256093	-2.225272043	 1.8921726265	 0.108802
H	-1.9740107249	-2.6544485199	-0.5550683741	 0.094048
196.0162	213.3028	317.4448	335.4058	401.7899	522.853	534.7975	586.3795	658.9528	799.0778	839.9864	848.4533	869.9966	873.5557	915.9574	944.6201	972.0722	988.3728	1014.0973	1032.5053	1043.65	1069.6545	1116.8601	1159.7345	1174.1973	1182.984	1209.2021	1232.6657	1249.4514	1252.7404	1290.3327	1318.6752	1329.8269	1343.5064	1357.9778	1455.0552	1525.2761	3023.413	3067.5172	3082.0854	3121.7131	3130.326	3133.1131	3141.7918	3764.6137
OC1C2OC1C1OCC21	O[C@H]1[C@H]2O[C@@H]1[C@H]1OC[C@@H]21	
InChI=1S/C6H8O3/c7-3-4-2-1-8-5(2)6(3)9-4/h2-7H,1H2	InChI=1S/C6H8O3/c7-3-4-2-1-8-5(2)6(3)9-4/h2-7H,1H2/t2-,3-,4-,5-,6-/m0/s1
