20
gdb 116235	1.84724	1.7148	0.93338	3.6002	78.2	-0.2477	0.0189	0.2666	1270.976	0.171818	-440.306602	-440.297414	-440.29647	-440.34134	33.231	
C	-0.0054321108	 1.3669169228	-0.2205844163	-0.335797
N	-0.0575851749	-0.0844624218	-0.3236513507	-0.350942
C	-1.1100572232	-0.7008820725	 0.0100846962	 0.47097
O	-2.2503790858	-0.1042158348	 0.4603825517	-0.246169
C	-3.235186729	-1.1059878058	 0.7796501919	-0.092869
C	-2.8164560392	-2.3524467292	-0.0078726045	-0.253906
C	-1.2879019009	-2.2066295685	-0.0560268588	-0.132647
C	-0.5843426556	-2.8183133109	-1.2762110676	-0.066295
O	 0.8074265583	-2.6319732162	-1.2294075071	-0.425131
H	 1.0221620267	 1.6709495963	-0.0025936237	 0.124946
H	-0.284964032	 1.8225913495	-1.1787519974	 0.127848
H	-0.6698785485	 1.7695564668	 0.5518240662	 0.125533
H	-3.2193673923	-1.2824584683	 1.8623388934	 0.116296
H	-4.2133430329	-0.7070628906	 0.5030375519	 0.124253
H	-3.155058929	-3.278367283	 0.4611029157	 0.116921
H	-3.2300217519	-2.3131643896	-1.0222509146	 0.117255
H	-0.8345376663	-2.6370005612	 0.8470604692	 0.109964
H	-0.7709036019	-3.8982093781	-1.3043126524	 0.100622
H	-1.0306445204	-2.3849482982	-2.1888714674	 0.078723
H	 0.9327767794	-1.6792887567	-1.0701478957	 0.290425
48.0064	90.2827	156.4679	175.7105	189.6305	219.6204	263.0009	378.3304	398.3302	528.151	601.7954	652.5556	668.2257	716.5114	781.2445	886.031	946.1921	963.437	997.8821	1047.3949	1056.701	1090.2291	1109.7306	1119.1454	1138.6785	1163.7584	1206.3686	1219.2693	1228.2699	1236.9786	1285.8905	1335.5831	1357.9498	1393.6772	1400.1791	1439.8973	1489.6441	1491.2129	1492.5462	1500.8405	1509.5144	1525.0072	1782.7464	2946.1772	3018.3211	3023.7998	3031.0184	3048.0913	3055.2359	3077.299	3103.4232	3107.5983	3118.1463	3607.8583
CN=C1OCCC1CO	CN=C1OCC[C@H]1CO	
InChI=1S/C6H11NO2/c1-7-6-5(4-8)2-3-9-6/h5,8H,2-4H2,1H3	InChI=1S/C6H11NO2/c1-7-6-5(4-8)2-3-9-6/h5,8H,2-4H2,1H3/t5-/m0/s1
