15
gdb 49900	3.61598	1.18788	0.9256	2.5083	72.49	-0.2147	-0.0294	0.1853	1180.3363	0.114405	-454.011985	-454.004269	-454.003325	-454.044668	28.533	
O	-0.110243502	-0.0727342518	 0.1282105932	-0.320208
C	-0.0521959414	 1.1315224853	 0.0283123955	 0.152329
N	 1.1132469231	 1.8460702799	-0.1198013266	-0.097458
C	 1.1181347808	 3.3055725738	-0.1120589146	-0.29401
C	 2.1988303845	 3.9043929141	-1.0180910885	 0.408881
O	 2.0856228104	 4.9967204841	-1.5301818277	-0.353434
N	 3.3214055698	 3.126050761	-1.1348896442	-0.34386
C	 3.4264737776	 1.8289532904	-0.6128823257	-0.074482
C	 2.3532551421	 1.1922170163	-0.1374310001	-0.02182
H	-0.9391111865	 1.7924879842	 0.0465207024	 0.084657
H	 0.1529909273	 3.6853998893	-0.4493094581	 0.155956
H	 1.2977236119	 3.6924109115	 0.9030917427	 0.142746
H	 4.081254794	 3.5237583189	-1.6661153853	 0.264255
H	 4.4108882923	 1.3846826469	-0.6251873561	 0.138607
H	 2.3596191862	 0.177923756	 0.2305636629	 0.15784
69.5442	136.0025	207.0527	248.4404	303.2135	391.7227	454.7083	482.4042	554.7125	567.0181	636.2857	694.1739	741.6135	823.707	867.2253	886.7234	954.3118	1013.6179	1019.0877	1076.8688	1173.6399	1205.5163	1293.9769	1322.0205	1339.1303	1384.2361	1431.6253	1445.0367	1460.742	1483.583	1729.3183	1796.6519	1813.6543	2957.5785	2987.3037	3127.8873	3241.0742	3266.7339	3630.0076
O=CN1CC(=O)NC=C1	O=CN1CC(=O)NC=C1	
InChI=1S/C5H6N2O2/c8-4-7-2-1-6-5(9)3-7/h1-2,4H,3H2,(H,6,9)	InChI=1S/C5H6N2O2/c8-4-7-2-1-6-5(9)3-7/h1-2,4H,3H2,(H,6,9)
