19
gdb 40419	3.44845	1.32225	1.17244	0.2751	80.65	-0.2158	0.0143	0.23	1114.235	0.161242	-382.017691	-382.010114	-382.00917	-382.049896	30.091	
C	 0.3635876152	 1.5770349906	 0.1516196077	-0.241705
N	 1.1692682858	 0.4477142414	-0.3447652103	-0.322176
C	-0.2195536913	 0.2132586937	 0.0895040671	-0.121708
C	-0.3934428394	-0.6386131418	 1.3059188457	 0.371114
C	-1.1150291639	-1.9454379908	 1.2528722246	-0.285966
N	-1.7590698272	-0.784818692	 1.8790941458	-0.149259
C	-1.6081625362	-0.7226228929	 3.3510894174	-0.212851
C	-0.1231686342	-0.5811583037	 3.6095530024	-0.097895
C	 0.5471822135	-0.5113949695	 2.4602298774	-0.15515
H	 0.6874649917	 1.9793711295	 1.1073718583	 0.12115
H	 0.0036497365	 2.3190973733	-0.5559451832	 0.112504
H	 1.2222345718	 0.4702169957	-1.3591441551	 0.233672
H	-0.9700078613	 0.0404023648	-0.6788297976	 0.083451
H	-1.5897370182	-2.2726418658	 0.3301660642	 0.108003
H	-0.7412447021	-2.7466617624	 1.8871804709	 0.11013
H	-2.1748708928	 0.1360311875	 3.7359106436	 0.113198
H	-2.0404661119	-1.6188425447	 3.8148114478	 0.112737
H	 0.3085631268	-0.5652725451	 4.6036831098	 0.099893
H	 1.6142580471	-0.3949535078	 2.3261142037	 0.120857
73.6467	158.4527	184.7585	295.6274	364.4234	377.6981	480.3556	525.3714	624.9219	738.7325	760.0809	775.851	810.1212	871.4462	880.8271	905.0944	923.0748	932.9724	961.3211	969.3427	981.2264	1012.5208	1048.916	1086.9208	1107.1451	1114.5518	1119.711	1152.8499	1167.527	1216.744	1250.2509	1277.2573	1288.9512	1304.3206	1339.9248	1378.2026	1454.7295	1484.5867	1498.7925	1513.2469	1669.7676	3009.8291	3041.3701	3088.1234	3110.0166	3131.4235	3176.1893	3195.9535	3196.4233	3234.0132	3511.268
C1NC1C12CN1CC=C2	C1N[C@H]1[C@]12CN1CC=C2	
InChI=1S/C7H10N2/c1-2-7(6-4-8-6)5-9(7)3-1/h1-2,6,8H,3-5H2	InChI=1S/C7H10N2/c1-2-7(6-4-8-6)5-9(7)3-1/h1-2,6,8H,3-5H2/t6-,7+,9?/m1/s1
