18
gdb 116698	3.79576	0.97494	0.89133	1.6928	75.6	-0.2185	0.0202	0.2387	1353.5938	0.146444	-439.019558	-439.01075	-439.009806	-439.0541	31.311	
C	 0.0489445382	 0.5704881387	-0.4859123766	-0.250826
O	-0.2101415885	 0.182419746	 0.8590563	-0.19287
C	 0.4794862942	-0.8858043628	 1.2958858452	 0.148594
N	 0.2760328413	-1.3342520302	 2.4584942232	-0.251893
C	 1.0518129706	-2.4598994197	 2.8763046579	-0.000657
C	 0.4622626295	-3.8469797495	 3.011841388	-0.145243
C	-0.3821791273	-4.147590004	 1.7779254655	-0.090136
O	 0.7192240931	-3.8163307425	 0.8856654979	-0.29014
C	 1.5740527974	-3.5751190835	 2.0068853347	 0.038533
H	-0.2544684597	-0.2106560224	-1.1927661136	 0.133793
H	-0.5442329312	 1.467704413	-0.6660148019	 0.145297
H	 1.1093186454	 0.8046733358	-0.6391255512	 0.127237
H	 1.1956644883	-1.2996746208	 0.5760189153	 0.100381
H	 1.7145280695	-2.230906712	 3.7099100951	 0.101635
H	 0.4537551694	-4.4079345753	 3.9367431924	 0.098505
H	-0.6523385888	-5.2028061422	 1.6688441288	 0.109997
H	-1.257847219	-3.5109360985	 1.6101092848	 0.117704
H	 2.6040300875	-3.9091451899	 1.9322410746	 0.10009
53.8146	88.3122	111.6491	153.8354	204.7327	267.0439	294.7007	405.9468	459.2117	554.6871	734.2548	746.697	792.3615	809.3524	921.4122	962.1456	968.8283	987.3685	1025.6435	1036.3052	1053.0363	1067.88	1078.9308	1122.9162	1151.3385	1168.9406	1177.3742	1198.8947	1257.4375	1284.6168	1314.8039	1350.286	1402.8334	1427.9396	1485.333	1494.5589	1501.3735	1507.2405	1754.2957	3016.3839	3035.1116	3055.0851	3082.253	3087.2659	3119.7663	3145.5618	3160.8011	3201.0189
COC=NC1C2COC12	COC=N[C@H]1[C@H]2CO[C@@H]12	
InChI=1S/C6H9NO2/c1-8-3-7-5-4-2-9-6(4)5/h3-6H,2H2,1H3	InChI=1S/C6H9NO2/c1-8-3-7-5-4-2-9-6(4)5/h3-6H,2H2,1H3/t4-,5+,6-/m1/s1
