19
gdb 67622	2.82993	1.72362	1.41239	1.4712	77.85	-0.2193	0.0962	0.3155	1006.1423	0.159301	-385.844079	-385.836459	-385.835514	-385.875664	30.773	
C	-0.0510532187	 1.5157068117	 0.0374085724	-0.516862
C	 0.0313655317	 0.0206857737	 0.0319477869	 0.313415
C	 0.1443725912	-0.8740269807	-1.1897914026	 0.026009
O	 1.1099150705	-1.8770677933	-1.0379908195	-0.23192
C	 1.0082099578	-2.1293289436	 0.3358462321	 0.026011
C	 0.657435832	-0.8785564458	 1.1216020386	-0.25642
C	-0.405033384	-1.9502695104	 0.8617957486	 0.31341
C	-1.1354284839	-2.8734416833	 1.7871001446	-0.516862
C	-1.0232834591	-1.0565299014	-0.2368109759	-0.256426
H	 0.9483203496	 1.9671856356	 0.019795637	 0.123318
H	-0.5952906218	 1.8806532701	-0.8401178773	 0.118845
H	-0.5707469842	 1.8896449156	 0.9270196481	 0.120546
H	 0.0334568669	-0.5055762414	-2.2012860835	 0.103181
H	 1.6808268533	-2.8929519781	 0.7041476303	 0.103181
H	 1.1370901895	-0.559794861	 2.0378104579	 0.083931
H	-1.8997288237	-2.3441279917	 2.3676100718	 0.120547
H	-1.6344443543	-3.6769440776	 1.2318905381	 0.123318
H	-0.4459062328	-3.3405051818	 2.498326993	 0.118846
H	-2.0686474102	-0.9772846366	-0.5052310207	 0.083932
175.1559	199.1433	204.3413	236.6589	280.4584	301.8254	531.7479	549.6406	609.0901	637.0411	710.9162	753.6102	803.0551	818.3368	845.7365	874.9009	895.7573	900.722	941.8539	993.7525	1000.2357	1004.1907	1045.7073	1063.7069	1085.783	1114.9659	1124.3576	1131.4729	1166.35	1224.4349	1261.0379	1269.7095	1302.6253	1413.47	1413.9294	1435.6016	1439.4378	1484.6254	1484.8541	1499.3981	1500.3411	3018.8763	3019.8762	3077.6833	3078.0748	3092.244	3092.2453	3196.5636	3196.5773	3209.0391	3214.1064
CC12C3OC4C1C4(C)C23	C[C@@]12[C@H]3O[C@H]4[C@@H]1[C@@]4(C)[C@@H]23	
InChI=1S/C8H10O/c1-7-3-5(7)9-6-4(7)8(3,6)2/h3-6H,1-2H3	InChI=1S/C8H10O/c1-7-3-5(7)9-6-4(7)8(3,6)2/h3-6H,1-2H3/t3-,4+,5+,6+,7+,8-/m1/s1
