20
gdb 77120	2.62297	1.34936	1.16675	1.6476	79.9	-0.2039	-0.0313	0.1726	1155.1428	0.168868	-403.109196	-403.100033	-403.099088	-403.143685	34.037	
C	-0.1072759413	 1.7650542066	-0.2233096283	-0.348462
N	-0.0643778189	 0.3294078669	-0.0349500418	-0.116103
C	-1.2191015062	-0.4236314393	 0.5375783025	-0.061074
C	-0.2284594044	-1.3107874025	 1.3246887888	-0.338555
C	 0.8389162319	-0.2819559447	 0.9462426081	 0.388771
C	 2.3125724913	-0.4549325156	 0.7883352296	-0.328662
C	 1.7593909178	 0.4386525543	 1.8902391993	-0.327418
C	-2.1532341209	 0.4037792169	 1.4082148578	 0.14144
O	-2.2501357638	 0.3091957205	 2.6053715033	-0.236527
H	 0.8479306145	 2.0988963524	-0.6428934487	 0.127052
H	-0.886301409	 2.01635655	-0.9509924547	 0.123616
H	-0.2915627781	 2.3461800186	 0.6969096014	 0.108495
H	-1.8290714841	-0.9054061482	-0.2403081508	 0.086688
H	-0.4581422143	-1.4008717684	 2.3864289405	 0.132236
H	-0.076507463	-2.2964947954	 0.8813565801	 0.108896
H	 2.749615038	-1.4100550103	 1.0621080377	 0.114023
H	 2.794025907	 0.0310196434	-0.0546430175	 0.113611
H	 1.8906092733	 1.5094402626	 1.7733113926	 0.11385
H	 1.8129871582	 0.0954052905	 2.9184924882	 0.117576
H	-2.7715693381	 1.1407501917	 0.846036552	 0.080547
43.4009	66.6763	196.6077	203.7831	231.9154	251.0638	302.5662	330.9122	403.4362	487.6364	563.7082	618.7388	693.5284	764.0464	795.5247	830.0683	898.1877	907.13	920.8308	978.2312	1008.371	1045.4832	1050.0371	1066.4271	1076.4669	1145.8889	1159.6789	1174.1103	1183.8645	1205.0519	1246.3637	1261.8606	1298.0961	1350.8961	1379.7674	1421.7723	1449.5418	1454.8406	1482.2641	1486.159	1502.2051	1508.4437	1823.8754	2866.6532	2948.4445	2996.9271	3055.6437	3082.5178	3094.3418	3122.0698	3125.8519	3146.0954	3200.8618	3215.4706
CN1C(CC11CC1)C=O	CN1[C@@H](CC21CC2)C=O	
InChI=1S/C7H11NO/c1-8-6(5-9)4-7(8)2-3-7/h5-6H,2-4H2,1H3	InChI=1S/C7H11NO/c1-8-6(5-9)4-7(8)2-3-7/h5-6H,2-4H2,1H3/t6-/m0/s1
