19
gdb 38512	2.56467	2.44459	2.30145	1.3429	82.32	-0.2	-0.0283	0.1717	786.9379	0.163697	-348.69533	-348.689804	-348.688859	-348.724613	25.833	
C	-0.0863490551	 1.4829161113	 0.0724399158	-0.195709
C	 1.3756613611	 1.9625899696	-0.1400530635	-0.037499
C	 1.8994154924	 1.6871151525	-1.631138107	-0.25446
C	 1.7455294069	 0.1792464243	-1.4868208343	 0.044115
C	 0.4386962145	-0.1996151233	-1.4502552532	-0.11929
C	 0.0273091925	-0.1003236893	 0.0065086111	-0.078815
C	 1.3280241252	-0.3405929652	 0.7982144274	-0.0608
C	 2.1569734284	 0.9407445896	 0.7211454532	-0.060924
C	 2.4433733881	-0.2175606978	-0.1977227811	-0.083864
H	-0.4062148309	 1.7622366095	 1.0843019584	 0.10205
H	-0.8022173312	 1.9013924325	-0.6438345499	 0.091959
H	 1.52166151	 3.0043004216	 0.1548258342	 0.069203
H	 1.2529691007	 2.1368738887	-2.3887752538	 0.100569
H	 2.9222416322	 2.0614752718	-1.7485160403	 0.095818
H	-0.2677241762	 0.1405968202	-2.2063124088	 0.089417
H	-0.8632343627	-0.6205716674	 0.3677856386	 0.062056
H	 1.3601668715	-0.9963450103	 1.6591658995	 0.079716
H	 2.8208408268	 1.2457913907	 1.5208416866	 0.078384
H	 3.3577593759	-0.799097819	-0.1765608727	 0.078074
380.2362	401.41	478.6272	553.3211	583.8823	644.9727	691.6506	725.7065	757.7977	790.2797	801.1384	815.5407	847.5925	881.9914	895.8968	913.8548	922.7293	933.1826	944.0698	986.6473	1015.2282	1021.47	1057.6179	1072.5251	1081.1545	1085.2932	1104.6741	1130.016	1172.7513	1203.3714	1250.9048	1260.959	1266.1991	1278.8431	1293.3604	1317.5347	1338.8269	1363.4933	1469.564	1488.4482	1541.4043	3027.0367	3038.4414	3074.7294	3079.5483	3090.2061	3109.3232	3128.3099	3167.9881	3180.9748	3193.9468
C1C2CC3=CC1C1C2C31	C1[C@@H]2C[C]3[CH][C@H]1[C@@H]1[C@H]2[C@H]31	
InChI=1S/C9H10/c1-4-2-6-3-5(1)8-7(4)9(6)8/h1,4,6-9H,2-3H2	InChI=1S/C9H10/c1-4-2-6-3-5(1)8-7(4)9(6)8/h1,4,6-9H,2-3H2/t4-,6-,7+,8-,9+/m1/s1
