21
gdb 91154	2.35827	1.76503	1.35125	1.5886	83.09	-0.2367	0.0132	0.2499	1052.5053	0.184133	-387.088988	-387.080899	-387.079955	-387.121061	32.869	
C	-1.1223925832	 1.0960787514	 0.1503105959	-0.413558
C	-0.1065273333	-0.0410972178	-0.0286870764	-0.017695
C	 0.8876640956	 0.1125453201	-1.1686470543	-0.088081
C	 2.1063075736	-0.3404214521	-0.857764158	-0.10638
C	 2.1876956392	-0.8489891267	 0.5632185917	-0.067527
C	 2.9680314548	 0.0576483681	 1.5554234535	-0.25928
C	 1.6536411205	 0.8449764069	 1.8308599777	 0.123596
O	 1.6026080413	 2.1213559032	 1.2257722954	-0.424577
C	 0.8381026744	-0.3278223688	 1.1560836638	-0.060071
H	-0.6326439488	 2.0397899136	 0.393083793	 0.141718
H	-1.7148971669	 1.2283055543	-0.7618359705	 0.104776
H	-1.8197784469	 0.8598122074	 0.9611356524	 0.110002
H	-0.6887698375	-0.9563282349	-0.225913621	 0.082361
H	 0.5968948166	 0.5011555728	-2.1402490129	 0.092302
H	 2.9529774416	-0.3699898469	-1.5369647386	 0.093056
H	 2.4136191234	-1.9199152402	 0.6082680934	 0.070099
H	 3.326032259	-0.4909359525	 2.4315636465	 0.099442
H	 3.7916599994	 0.6564201046	 1.1549586433	 0.095471
H	 1.4125029023	 1.0158031627	 2.8827179935	 0.084459
H	 1.8385003935	 2.0095019181	 0.297166234	 0.276924
H	 0.3879169314	-0.9695168133	 1.9171495478	 0.062963
123.5017	205.1758	209.231	230.7411	273.6084	366.9118	411.1855	445.0583	492.4232	540.8327	656.545	721.421	744.3869	781.9287	800.46	867.9227	873.9627	902.4798	927.6823	976.6409	983.0399	1001.5514	1035.6289	1041.146	1086.0564	1102.7814	1120.2875	1143.2036	1163.0465	1172.4441	1226.4831	1249.1022	1258.2146	1274.795	1301.1094	1326.2991	1337.0731	1344.3292	1380.0982	1409.7129	1448.07	1475.885	1494.3998	1515.9668	1658.6001	2959.1417	3035.0188	3039.6222	3049.6685	3073.1596	3087.0081	3091.5739	3103.8398	3145.7461	3165.226	3190.5979	3782.8607
CC1C=CC2CC(O)C12	C[C@H]1C=C[C@H]2C[C@@H](O)[C@@H]12	
InChI=1S/C8H12O/c1-5-2-3-6-4-7(9)8(5)6/h2-3,5-9H,4H2,1H3	InChI=1S/C8H12O/c1-5-2-3-6-4-7(9)8(5)6/h2-3,5-9H,4H2,1H3/t5-,6-,7+,8-/m0/s1
