23
gdb 120904	3.09731	0.8895	0.80052	1.3908	85.88	-0.2478	0.0815	0.3293	1534.8608	0.205584	-388.254253	-388.24453	-388.243586	-388.289207	36.563	
C	 0.3270572505	 1.6471540599	-0.6948161632	-0.419672
C	 0.3946640518	 0.1664466116	-0.377782098	 0.019642
C	 1.6231638579	-0.6966936428	-0.445373948	-0.074464
C	 2.8562873589	 0.0194295781	 0.1264319361	-0.265213
C	 2.1353282826	 0.1169263786	 1.5174978861	 0.035742
C	 2.0559658348	 1.4331167828	 2.2877797848	-0.203702
C	 3.4005922596	 1.8494009617	 2.8720449468	-0.070545
O	 3.2193339319	 3.0750968242	 3.5664011244	-0.421608
C	 0.8774738887	-0.5012574115	 0.8872218589	-0.111653
H	 1.2573591154	 2.1731771367	-0.47247489	 0.122279
H	 0.1194720656	 1.7940120657	-1.7609340637	 0.110849
H	-0.4739153325	 2.137775465	-0.1309195568	 0.117367
H	-0.4734592102	-0.3696137927	-0.7609333674	 0.08282
H	 1.6673673517	-1.5813047777	-1.0700256228	 0.079608
H	 3.7489143072	-0.6087857512	 0.1555882456	 0.099017
H	 3.1244671631	 0.9668708696	-0.3535648748	 0.094106
H	 2.5826812163	-0.6372090946	 2.1767141299	 0.070937
H	 1.6885825256	 2.2465508386	 1.6555095683	 0.107346
H	 1.3375302772	 1.3315110385	 3.1112136455	 0.101763
H	 3.7718247216	 1.0602175351	 3.5473167958	 0.080409
H	 4.141878665	 1.9571307127	 2.0629322954	 0.0856
H	 4.0686558963	 3.3438306065	 3.9282532413	 0.283476
H	 0.2365641209	-1.2055594749	 1.4073492856	 0.075894
70.4824	84.1473	106.3745	178.0002	233.977	247.6318	271.886	313.204	347.2648	395.6484	473.1202	599.4211	701.5283	713.7717	784.3589	788.5978	851.7706	875.2417	923.9844	973.1092	992.705	1002.6717	1009.9972	1040.1154	1062.2682	1068.5913	1084.1026	1108.2726	1121.6643	1147.9634	1187.3821	1217.8439	1227.1178	1235.4078	1249.7429	1274.5951	1300.1872	1312.2456	1324.9931	1357.0651	1395.7061	1414.5896	1448.3318	1459.3342	1485.7393	1492.5398	1502.8394	1507.5077	1527.1372	2954.5242	2979.7527	3020.7007	3031.713	3035.8473	3042.9933	3086.182	3095.925	3103.3394	3106.1933	3128.9301	3157.1764	3176.1902	3829.3506
CC1C2CC(CCO)C12	C[C@H]1[C@H]2C[C@@H](CCO)[C@@H]12	
InChI=1S/C8H14O/c1-5-7-4-6(2-3-9)8(5)7/h5-9H,2-4H2,1H3	InChI=1S/C8H14O/c1-5-7-4-6(2-3-9)8(5)7/h5-9H,2-4H2,1H3/t5-,6+,7+,8+/m0/s1
