18
gdb 19793	2.83591	2.63736	1.80593	1.4751	69.43	-0.2429	0.0683	0.3111	792.7258	0.155842	-347.775863	-347.769133	-347.768189	-347.806345	27.639	
O	-0.1652275898	 1.4556984502	 0.1689016015	-0.430951
C	-0.005911324	 0.044324393	 0.0392255244	 0.081303
C	 0.7486796697	-0.6161129426	 1.206134943	-0.076328
C	 0.2671812534	-0.3460668957	 2.6110995036	-0.298019
C	-0.1879423637	-1.5890657039	 1.8887397082	-0.034501
C	-1.5027244796	-1.5943471347	 1.1249893488	-0.040043
C	-2.3623741187	-0.3555916868	 1.0874616737	-0.290268
C	-1.3838446915	-0.6212111877	-0.0278534161	-0.033458
H	 0.7064360036	 1.8326368353	 0.3259351044	 0.27972
H	 0.5347237193	-0.1816410375	-0.8924661222	 0.063137
H	 1.7979160498	-0.8503274014	 1.0571997422	 0.076901
H	 0.9898393135	-0.4776106766	 3.4100694477	 0.10509
H	-0.4242477177	 0.4703537425	 2.7791552796	 0.124413
H	 0.1709280702	-2.5457560537	 2.2514046114	 0.081234
H	-1.987471729	-2.5555403944	 0.9965925074	 0.079695
H	-3.4132115946	-0.4930645077	 0.8542388593	 0.105329
H	-2.1731929726	 0.4641507387	 1.7684744286	 0.125579
H	-1.7784428083	-0.8512679469	-1.0109597556	 0.081168
144.9503	204.5048	268.5247	348.9992	414.3925	506.6684	546.8407	664.5137	698.7602	712.2199	785.1558	827.509	830.1881	839.041	942.0411	963.4583	970.2127	1005.4526	1023.6632	1031.6167	1048.2096	1066.9828	1076.728	1106.4397	1107.9654	1112.0955	1135.4957	1191.8594	1218.261	1243.3858	1315.9896	1338.4726	1361.6541	1377.4884	1393.4467	1415.6271	1482.0644	1505.6209	2979.7287	3134.3096	3140.4764	3152.3212	3162.0981	3168.1898	3178.5289	3219.7808	3228.9318	3816.0786
OC1C2CC2C2CC12	O[C@H]1[C@H]2C[C@H]2[C@H]2C[C@@H]12	
InChI=1S/C7H10O/c8-7-5-1-3(5)4-2-6(4)7/h3-8H,1-2H2	InChI=1S/C7H10O/c8-7-5-1-3(5)4-2-6(4)7/h3-8H,1-2H2/t3-,4+,5-,6+,7-
