19
gdb 97804	3.85989	0.63522	0.57721	2.4784	82.84	-0.2494	0.0235	0.2729	1953.7312	0.156911	-422.974341	-422.964063	-422.963119	-423.011528	35.661	
C	 0.0956852007	 1.6678570335	 0.0362188885	-0.366154
C	 0.0431305186	 0.1290887656	 0.0375100202	-0.320212
C	 0.6678666935	-0.4671286233	-1.1378664019	 0.134558
C	 1.1930189329	-0.946963189	-2.1110326781	 0.05756
C	 1.8122016523	-1.4717466516	-3.2981016134	-0.163233
O	 3.0039926386	-2.2689120686	-3.1479464633	-0.253667
C	 1.8234065896	-2.9108375583	-3.6419980096	 0.04843
C	 1.2517293863	-3.9757653482	-2.7406715351	-0.096138
O	 2.077838888	-5.1283591142	-2.7339383908	-0.417791
H	 1.1298464608	 2.0212069219	 0.0104100986	 0.132365
H	-0.4220342657	 2.0739189381	-0.8369109451	 0.129681
H	-0.3829832319	 2.0644630395	 0.9362475188	 0.118066
H	 0.5376940792	-0.2561310987	 0.9383582324	 0.1367
H	-1.0005689609	-0.204602111	 0.1019547487	 0.133486
H	 1.8684244573	-0.7706732917	-4.1310906215	 0.113889
H	 1.8750082463	-3.1743274841	-4.6997983793	 0.101303
H	 1.1115309749	-3.5644796399	-1.7321594823	 0.105375
H	 0.2745295112	-4.2979141031	-3.1163872284	 0.112462
H	 2.9463161582	-4.8435723869	-2.4274673585	 0.293319
28.1868	60.2056	76.1849	118.3305	143.3901	217.755	235.2479	315.697	364.5819	407.3146	464.8609	500.8497	545.562	584.316	732.9193	785.0266	802.1615	882.4626	920.4689	977.647	1040.1692	1071.8856	1077.8996	1103.4776	1108.1495	1137.6355	1186.3877	1229.8198	1285.2459	1286.0547	1349.9381	1352.5072	1385.1966	1410.764	1425.0618	1461.1782	1471.9534	1493.8091	1495.2587	1505.3636	2361.5681	3019.8343	3022.0434	3046.5654	3050.0348	3077.4063	3099.2384	3110.4485	3120.5963	3126.1037	3801.1228
CCC#CC1OC1CO	CCC#C[C@H]1O[C@H]1CO	
InChI=1S/C7H10O2/c1-2-3-4-6-7(5-8)9-6/h6-8H,2,5H2,1H3	InChI=1S/C7H10O2/c1-2-3-4-6-7(5-8)9-6/h6-8H,2,5H2,1H3/t6-,7+/m1/s1
