15
gdb 34689	2.76423	1.91931	1.48008	4.048	68.4	-0.2561	0.0024	0.2585	887.5244	0.113852	-416.71981	-416.713014	-416.71207	-416.750957	26.451	
N	-0.5083670116	-1.1408835477	-0.2252063859	-0.348631
C	-0.2258097793	-0.0373778649	-0.0257963378	 0.311123
C	-0.0072813896	 1.3858596316	 0.0925287044	-0.141687
C	 0.502924316	 2.1315324492	 1.2613963753	-0.062333
C	 1.6822839182	 1.4580119032	 1.9832823564	 0.098947
O	 1.685896977	 0.0196786111	 2.0113568156	-0.287481
C	 2.5474769597	-0.0383449551	 0.8338823341	-0.108112
C	 2.4403946984	 1.4824271133	 0.658189929	-0.027193
N	 1.2655334852	 2.1368214897	-0.0676040333	-0.175737
H	-0.783946122	 1.9227543777	-0.4501747817	 0.156241
H	-0.0150338994	 3.0167697752	 1.6191237458	 0.11352
H	 2.0072845693	 1.9189874448	 2.9176080263	 0.100556
H	 3.560937033	-0.3530306665	 1.1112517231	 0.116092
H	 2.1571896398	-0.696257863	 0.0562318872	 0.146241
H	 3.3393458851	 2.0620611213	 0.4617402315	 0.108454
133.5843	166.0786	249.377	310.5275	397.9659	455.5557	596.7953	620.3603	683.6451	709.14	742.1903	854.8499	888.1613	909.8476	924.6339	934.9997	966.5764	995.3536	1058.9269	1070.9077	1077.2423	1103.3995	1161.9199	1205.7989	1237.8736	1249.6619	1293.4409	1311.1336	1350.0201	1351.1089	1412.9805	1517.704	2351.4989	3032.5984	3097.514	3124.9531	3126.8123	3143.227	3156.7966
N#CC1C2C3OCC3N12	N#C[C@H]1[C@H]2[C@H]3OC[C@H]3N12	
InChI=1S/C6H6N2O/c7-1-3-5-6-4(2-9-6)8(3)5/h3-6H,2H2	InChI=1S/C6H6N2O/c7-1-3-5-6-4(2-9-6)8(3)5/h3-6H,2H2/t3-,4+,5-,6-,8?/m0/s1
