14
gdb 21722	5.39593	1.32235	1.08165	2.2668	60.15	-0.2432	0.001	0.2441	1034.1342	0.10838	-415.847577	-415.840246	-415.839302	-415.879496	26.82	
N	-0.4642537337	 1.3102139713	 0.2155345342	-0.505299
C	 0.3543048555	 0.1410055214	-0.1028338572	-0.271824
C	 0.8871816408	-0.4707025468	 1.1526633412	 0.468461
C	 0.495402608	-0.4025486885	 2.4518340695	-0.424796
C	 1.4417578068	-1.2352849403	 3.10932476	 0.468895
O	 1.4666370204	-1.4878113894	 4.4272554764	-0.418217
N	 2.3237712978	-1.7560687939	 2.2900905105	-0.263537
O	 1.9693960961	-1.2591686203	 1.027739308	-0.225058
H	 0.1271295644	 2.0661309582	 0.5472280792	 0.236112
H	-0.9248525117	 1.6453111818	-0.6238562728	 0.236989
H	-0.2857123186	-0.5919471517	-0.6114824412	 0.137313
H	 1.2046980862	 0.3277780158	-0.779047433	 0.115026
H	-0.3326891211	 0.1403973246	 2.8708065426	 0.135136
H	 2.210218159	-2.0821134824	 4.5956233226	 0.310799
74.4256	150.4694	201.7636	264.4086	373.9769	399.3009	457.9352	468.5652	612.3793	649.9441	724.4185	758.0782	817.9277	855.0298	955.7016	990.0086	1013.8612	1038.4052	1088.0392	1150.3101	1183.0162	1224.8384	1267.7375	1340.5563	1430.0648	1494.7945	1540.9894	1552.9884	1650.1323	1670.5572	2970.1824	3035.5857	3302.6533	3501.327	3583.489	3779.5575
NCC1=CC(O)=NO1	NCc1cc(O)no1	
InChI=1S/C4H6N2O2/c5-2-3-1-4(7)6-8-3/h1H,2,5H2,(H,6,7)	InChI=1S/C4H6N2O2/c5-2-3-1-4(7)6-8-3/h1H,2,5H2,(H,6,7)
