15
gdb 123451	3.89312	1.22814	1.15367	3.7987	65.64	-0.2654	-0.0562	0.2092	1065.5474	0.114417	-446.219592	-446.212252	-446.211307	-446.252568	26.129	
C	-0.0717794529	 1.5483800655	 0.8999188972	-0.190578
C	-0.650905766	 0.2241335955	 0.4264045259	 0.011959
C	-0.4687374511	-0.277131211	-0.9563791725	-0.239114
N	 0.1847845107	-0.9486803968	 0.1815515404	-0.31148
N	 1.0911518606	 1.9867363128	 0.138219273	 0.156462
N	 2.2844322747	 1.4148525273	 0.2108860964	-0.126497
N	 3.025289722	 2.061604428	-0.6377180178	-0.075688
N	 2.2838822072	 3.0224358742	-1.2199020146	-0.078925
N	 1.0778844031	 2.9771128845	-0.7413971137	-0.10708
H	-0.8096623357	 2.3473737992	 0.803444129	 0.167019
H	 0.235573727	 1.4792803831	 1.9475072767	 0.161558
H	-1.5813612938	 0.0027205858	 0.9465846607	 0.113109
H	-1.2629355369	-0.8429863377	-1.4338330691	 0.132358
H	 0.1420979812	 0.3061244114	-1.6401043273	 0.131282
H	 1.1726944899	-0.7028158718	 0.2161909256	 0.255614
54.5451	98.8024	119.9816	280.6122	325.9755	365.149	517.4065	706.9864	754.3624	766.1095	792.5625	850.6825	913.5273	959.2852	975.9664	984.2267	1033.9026	1089.2683	1120.268	1125.7789	1144.7413	1159.7536	1215.5777	1252.845	1263.5987	1296.1247	1312.8691	1367.7506	1396.7372	1419.5233	1426.409	1475.7016	1519.3052	3071.0568	3117.6087	3124.9674	3131.4175	3202.3081	3489.733
C(C1CN1)N1N=NN=N1	C([C@H]1CN1)n1nnnn1	
InChI=1S/C3H6N6/c1-3(4-1)2-9-7-5-6-8-9/h3-4H,1-2H2	InChI=1S/C3H6N6/c1-3(4-1)2-9-7-5-6-8-9/h3-4H,1-2H2/t3-/m1/s1
