17
gdb 89943	2.72431	1.42527	1.12012	4.2429	74.3	-0.2357	-0.0065	0.2291	1114.4902	0.135651	-417.961227	-417.953044	-417.9521	-417.994074	30.382	
C	-0.1165789771	 1.5389711299	 0.180872868	-0.332781
N	 0.0359899652	 0.1000113202	 0.1311650292	-0.079703
C	-1.1654442409	-0.726295129	 0.3947143215	-0.223789
C	-0.3386024234	-1.6166284954	 1.3519854426	 0.300979
O	 0.4670371505	-2.6113396814	 0.7002485833	-0.326203
C	 1.6355188637	-1.7404509364	 0.6868727776	-0.082827
C	 0.8014461367	-0.559902203	 1.2057514201	-0.09949
C	-0.9416704141	-2.0717441127	 2.588847858	 0.23978
N	-1.4272445613	-2.407388887	 3.5829644183	-0.337671
H	 0.8605632529	 2.0181948081	 0.0647042343	 0.128784
H	-0.7484658619	 1.8661545433	-0.6508228059	 0.132816
H	-0.5729823362	 1.9041882546	 1.1196431257	 0.100907
H	-1.9584247449	-0.1863975495	 0.9326637232	 0.113574
H	-1.5859166815	-1.2329971274	-0.4787964893	 0.128869
H	 2.4010948222	-2.108473721	 1.3799362859	 0.11611
H	 2.0465268378	-1.618232538	-0.3184654522	 0.12162
H	 1.1794261525	 0.0723555847	 2.0110811897	 0.099026
84.7224	148.8133	196.7864	204.4962	269.6043	300.8243	363.5832	409.7027	492.5485	547.8845	576.1942	683.9074	760.1994	886.0011	930.0141	950.1662	987.5112	1013.7969	1032.1023	1075.4874	1086.4002	1103.5122	1154.0198	1159.1201	1179.4814	1213.3623	1231.6815	1264.8977	1312.319	1338.7779	1354.5059	1456.0829	1483.0611	1499.5852	1502.2487	1502.7317	2352.5709	2935.513	2999.119	3032.5966	3064.7476	3087.6188	3099.9099	3107.3336	3108.4412
CN1CC2(OCC12)C#N	CN1C[C@]2(OC[C@@H]12)C#N	
InChI=1S/C6H8N2O/c1-8-4-6(3-7)5(8)2-9-6/h5H,2,4H2,1H3	InChI=1S/C6H8N2O/c1-8-4-6(3-7)5(8)2-9-6/h5H,2,4H2,1H3/t5-,6-/m1/s1
