16
gdb 128415	5.31964	0.93398	0.80647	3.399	74.27	-0.2346	-0.0916	0.1429	1380.9182	0.12464	-430.208867	-430.200574	-430.19963	-430.242675	29.052	
C	-0.2409297611	 1.465876237	 0.1973594244	-0.310432
N	-0.2388250775	 0.0116936869	 0.1824781367	-0.28668
C	 0.9346030081	-0.5674837403	 0.7954609774	-0.219868
C	 0.7984601436	-2.0515115289	 0.9891339259	 0.410923
N	-0.4154008869	-2.5947961465	 1.0352532887	-0.268121
C	-0.3975137463	-3.9091738681	 1.2273351338	 0.114865
N	 0.6945003228	-4.6601475653	 1.3744540632	-0.173949
N	 1.8692307255	-4.0447690683	 1.3374088839	-0.05306
N	 1.9406813681	-2.746756479	 1.1428046916	-0.208561
H	 0.5849848666	 1.8430423137	-0.4167093944	 0.125948
H	-1.1734889191	 1.8321959367	-0.2399840279	 0.125266
H	-0.1332238807	 1.9082270756	 1.2044650805	 0.097417
H	-1.070968028	-0.3627745365	 0.6231787638	 0.236078
H	 1.8218268866	-0.3859321812	 0.176792154	 0.144256
H	 1.1811799789	-0.1421238572	 1.7923356753	 0.115419
H	-1.3495479606	-4.4320657485	 1.2719079031	 0.150501
57.9287	92.4669	135.2695	185.6889	245.0043	308.2988	333.9894	393.087	487.6597	657.9664	705.9808	764.8625	820.0052	877.8294	959.7284	982.5996	999.7082	1020.211	1042.5312	1147.7477	1156.3572	1162.9794	1198.7374	1252.7782	1274.9974	1315.9607	1375.6904	1431.5856	1461.2671	1481.0608	1487.0918	1504.0541	1518.2086	1539.5247	1571.15	2876.093	2942.0226	3052.5267	3055.773	3110.5308	3175.2409	3548.4506
CNCC1=NC=NN=N1	CNCc1ncnnn1	
InChI=1S/C4H7N5/c1-5-2-4-6-3-7-9-8-4/h3,5H,2H2,1H3	InChI=1S/C4H7N5/c1-5-2-4-6-3-7-9-8-4/h3,5H,2H2,1H3
