22
gdb 17973	2.41185	2.23299	1.37594	1.1173	77.69	-0.2373	0.0842	0.3215	991.0755	0.203465	-350.211153	-350.203384	-350.20244	-350.242751	30.96	
C	-0.0092851752	 1.5183662008	 0.0939595739	-0.172056
C	 1.4389116455	 2.0495642829	 0.0288630523	-0.182148
C	 2.3605677015	 1.441005097	-1.0387670493	-0.208183
C	 1.8881725453	 1.580441747	-2.4880020013	-0.05968
O	 0.6022578895	 1.0470564098	-2.7499409524	-0.242456
C	 0.4359386432	-0.3399071369	-2.4897803444	-0.07014
C	-0.5568592734	-0.5780012148	-1.3507882421	-0.183624
C	-0.1686263974	-0.0203006503	 0.0305030618	-0.191301
H	-0.4415508351	 1.8836461645	 1.0330889823	 0.083307
H	-0.6000664774	 1.9663485939	-0.7095088221	 0.110628
H	 1.4023111308	 3.1388783836	-0.1049239	 0.091614
H	 1.9157847651	 1.8838458869	 1.0038416321	 0.090929
H	 3.3469275737	 1.9183827315	-0.9718616028	 0.092355
H	 2.536612149	 0.3823594897	-0.8130849288	 0.098379
H	 1.814460685	 2.6401254258	-2.7590750865	 0.10239
H	 2.6361090494	 1.1226643224	-3.1574943586	 0.082815
H	 0.0504557805	-0.8066695623	-3.406927419	 0.094928
H	 1.4002534243	-0.8190820844	-2.2716143587	 0.089165
H	-1.5176081957	-0.1384499758	-1.6488433557	 0.10418
H	-0.7232684825	-1.6607321172	-1.2724012787	 0.087271
H	 0.7448825933	-0.5126666206	 0.3903347104	 0.089104
H	-0.9552436394	-0.3236867333	 0.7308345077	 0.092522
144.2539	197.4938	220.6945	244.4308	313.0361	330.0475	391.1785	453.0687	494.4749	540.8028	735.2134	776.5208	819.3845	835.6527	857.9882	890.1947	935.6276	970.9055	982.7317	1037.6437	1050.2803	1084.6559	1119.0285	1133.6389	1173.6996	1197.1601	1229.3405	1260.889	1281.2837	1295.9436	1314.1786	1329.0913	1363.5807	1383.4811	1386.3087	1397.5241	1404.8008	1410.2585	1424.1817	1472.9727	1480.573	1484.7911	1494.6865	1497.5774	1499.7785	1515.3439	2959.3475	2996.698	3008.6964	3013.9064	3015.6371	3025.1442	3032.1742	3035.1331	3040.7736	3049.856	3054.4741	3061.8194	3069.3354	3091.4708
C1CCCOCCC1	C1CCCOCCC1	
InChI=1S/C7H14O/c1-2-4-6-8-7-5-3-1/h1-7H2	InChI=1S/C7H14O/c1-2-4-6-8-7-5-3-1/h1-7H2
