20
gdb 121868	3.09111	0.85495	0.74021	5.4693	71.76	-0.2421	0.0212	0.2634	1546.0005	0.170031	-477.44658	-477.436365	-477.435421	-477.482639	36.35	
C	 0.4858515974	 1.0467343191	-0.8882095714	-0.392462
C	 0.0516870643	-0.2598588436	-0.2166234738	-0.123309
N	 0.9506783511	-0.8432121234	 0.791758211	-0.330782
H	-0.6916490365	-1.3932456791	 1.5598763517	 0.297834
H	 1.6900695569	-1.3824104048	 0.3558598185	 0.24217
C	 1.5661532605	 0.0798207974	 1.7483052018	-0.1354
C	 2.478916168	-0.6978203925	 2.6827632412	-0.085362
O	 3.4891057116	-1.2918165835	 1.8753721919	-0.422209
C	-1.3658972797	-0.1346972115	 0.3889145402	 0.434568
O	-2.2168071625	 0.5956226296	-0.0431099649	-0.338675
O	-1.5656241752	-0.9602832252	 1.4272224225	-0.374346
H	 1.4525637636	 0.9249501462	-1.3859666654	 0.111859
H	-0.2624877291	 1.3340126432	-1.6287004558	 0.148255
H	 0.5637505634	 1.8667192666	-0.1695520271	 0.127943
H	-0.0518902715	-1.0261026955	-0.9969812848	 0.117405
H	 2.1573748425	 0.8677040869	 1.2591607285	 0.111721
H	 0.7803971575	 0.5703474237	 2.3345318348	 0.119372
H	 2.9107012976	-0.0125648276	 3.4270346855	 0.097787
H	 1.896374895	-1.4633518105	 3.2160943909	 0.098337
H	 3.995571455	-1.9037171055	 2.4165960448	 0.295292
53.9791	63.7066	108.8802	146.1507	194.6733	212.5788	258.6108	272.0808	304.5272	364.2344	456.943	492.4383	556.5033	598.6398	745.0673	774.2381	801.3543	865.2161	895.2402	926.0018	958.7889	1029.5309	1081.844	1092.4214	1104.1512	1138.4338	1185.784	1202.6817	1218.3614	1263.1325	1302.9988	1318.937	1367.509	1383.5036	1403.0868	1430.464	1457.9936	1480.2112	1487.7894	1502.0743	1504.5996	1513.5477	1869.207	2986.6592	2998.484	3022.5397	3027.5506	3049.3476	3066.2	3119.3404	3143.132	3445.513	3547.398	3840.7929
CC([NH2+]CCO)C([O-])=O	C[C@@H](NCCO)C(=O)O	
InChI=1S/C5H11NO3/c1-4(5(8)9)6-2-3-7/h4,6-7H,2-3H2,1H3,(H,8,9)	InChI=1S/C5H11NO3/c1-4(5(8)9)6-2-3-7/h4,6-7H,2-3H2,1H3,(H,8,9)/t4-/m1/s1
