13
gdb 131559	3.16048	1.65476	1.18063	3.4545	60.36	-0.2459	-0.0591	0.1868	960.389	0.089632	-489.825699	-489.818739	-489.817794	-489.857373	25.988	
O	-0.0209389229	 1.4877557308	-0.0462781677	-0.410972
C	 0.0874554702	 0.0823962826	 0.0443303399	-0.039687
C	-1.2929988338	-0.6897264841	-0.0307842467	-0.125466
O	-1.4147381079	-1.3618565426	-1.3283380699	-0.270702
C	-0.1646616308	-1.3008093798	-1.8208988393	 0.360664
C	 0.7418654796	-0.580574995	-1.1278600892	 0.245059
O	 1.9002158598	-0.6142110286	-1.7706277143	-0.226261
N	 1.639240833	-1.4430917421	-2.952298609	-0.021448
N	 0.4277128896	-1.812597246	-2.929895111	-0.216075
H	-0.2969797003	 1.7176668694	-0.9415238271	 0.29222
H	 0.5716857891	-0.1038728276	 1.0057781923	 0.129776
H	-1.3470704306	-1.4629282392	 0.7403449954	 0.139522
H	-2.129988055	 0.0022980522	 0.0747380266	 0.143368
93.6366	149.5425	295.7374	338.5132	350.5272	418.6484	481.3705	544.1116	638.853	667.5366	720.6626	758.6121	776.9276	881.5449	964.5238	991.2485	1003.8931	1087.7202	1170.4055	1224.8583	1241.4552	1285.3965	1318.0508	1365.6635	1408.4206	1430.6542	1479.6159	1502.7484	1658.8604	3068.0475	3092.7838	3140.1711	3793.0666
OC1COC2=C1ON=N2	O[C@H]1COc2c1onn2	
InChI=1S/C4H4N2O3/c7-2-1-8-4-3(2)9-6-5-4/h2,7H,1H2	InChI=1S/C4H4N2O3/c7-2-1-8-4-3(2)9-6-5-4/h2,7H,1H2/t2-/m0/s1
