15
gdb 25485	5.332	0.97756	0.83692	2.1133	78.2	-0.2629	-0.0291	0.2337	1299.137	0.114863	-416.859602	-416.852265	-416.851321	-416.892097	27.112	
N	-2.4652870629	 1.1880822353	 0.1889512422	-0.417087
C	-2.2708710311	-0.0082820463	-0.1463013973	 0.10586
O	-1.2221563138	-0.6850461698	 0.3998958652	-0.218963
C	-1.1775411721	-2.0494638532	 0.298010083	 0.416741
C	 0.0794144633	-2.641052757	 0.2034895582	-0.224737
C	 0.1460863061	-4.026555417	 0.1353723088	 0.021402
N	-0.9219319935	-4.8320683658	 0.1502506622	-0.271248
C	-2.1139431851	-4.2427328161	 0.2507191298	 0.022769
C	-2.3065296667	-2.8651234153	 0.3351204025	-0.254776
H	-3.2444899557	 1.576940686	-0.3386851403	 0.239983
H	-2.8315203105	-0.5997502354	-0.8778479952	 0.11238
H	 0.9691812489	-2.0239205589	 0.1823512596	 0.120024
H	 1.1140390166	-4.5158058106	 0.0603305203	 0.117824
H	-2.9766772827	-4.9043150601	 0.2752125766	 0.116336
H	-3.3022256107	-2.4560987656	 0.4546644643	 0.113492
72.1128	105.7112	187.4406	278.886	397.5884	402.1293	464.2331	556.2154	655.5872	676.1393	762.4518	830.6586	845.5178	869.7114	883.2717	982.7916	1002.2749	1009.02	1049.0871	1053.1935	1079.0517	1107.6219	1239.4425	1255.6526	1294.2007	1305.1913	1358.2826	1410.1576	1446.4438	1525.95	1615.0169	1623.6602	1748.963	3067.4802	3157.0841	3161.7024	3206.706	3213.2839	3519.0769
N=COC1=CC=NC=C1	[NH][CH]Oc1ccncc1	
InChI=1S/C6H6N2O/c7-5-9-6-1-3-8-4-2-6/h1-5,7H	InChI=1S/C6H6N2O/c7-5-9-6-1-3-8-4-2-6/h1-5,7H
