20
gdb 89721	2.51678	1.42072	1.06149	2.6976	82.08	-0.2274	0.0072	0.2346	1189.5394	0.17122	-403.13709	-403.128207	-403.127263	-403.170853	34.103	
C	-0.2469798305	 1.4563740083	 0.0229706833	-0.516152
C	-0.130796973	-0.0361028582	-0.0282068781	 0.27078
C	-0.1568295696	-0.8015650751	-1.1256054886	-0.230635
C	 0.0585585975	-2.2659788746	-0.829269845	 0.086993
O	 1.3105803468	-2.7339291768	-1.3384371655	-0.435405
C	-0.0592304889	-2.3343912003	 0.7157628704	-0.317051
C	 0.0286683253	-0.8847867663	 1.1969402379	 0.264585
C	 0.8450243586	-0.4383810257	 2.3632815439	-0.294315
N	-0.6163326791	-0.5500052311	 2.4815881097	-0.360155
H	 0.636316359	 1.9154133552	 0.4834460278	 0.132488
H	-0.3579223468	 1.8757365466	-0.9796782837	 0.134997
H	-1.1150222176	 1.7766135081	 0.6131260343	 0.129786
H	-0.2447115489	-0.4302888698	-2.1411527988	 0.093898
H	-0.6787204515	-2.9105275396	-1.3181958863	 0.087262
H	 1.98140632	-2.0959648691	-1.0701570792	 0.272029
H	-1.0277843361	-2.7452726351	 1.0149710608	 0.117717
H	 0.7178486965	-2.9816284534	 1.1298942975	 0.107663
H	 1.4070838694	-1.1776078537	 2.9285677488	 0.120521
H	 1.29680441	 0.5503344993	 2.3419699881	 0.107619
H	-1.038134011	 0.3751442513	 2.4386428129	 0.227374
46.839	119.3759	172.4284	261.1254	263.3756	318.7673	339.4515	351.3303	428.982	471.8609	529.7088	597.5564	647.8995	754.2637	797.9201	860.3089	867.3783	897.1302	937.7532	954.5093	979.775	1005.79	1052.3054	1056.5447	1064.8347	1073.9612	1106.1938	1152.07	1200.3272	1253.8658	1261.9839	1275.8021	1277.9988	1326.1487	1354.6143	1388.1904	1415.435	1430.3608	1477.4281	1481.2372	1487.1427	1511.9149	1701.4707	3021.4702	3054.9366	3066.7854	3068.0221	3101.2869	3109.5705	3119.361	3185.1407	3189.9462	3490.322	3796.8286
CC1=CC(O)CC11CN1	CC1=C[C@@H](O)C[C@]21CN2	
InChI=1S/C7H11NO/c1-5-2-6(9)3-7(5)4-8-7/h2,6,8-9H,3-4H2,1H3	InChI=1S/C7H11NO/c1-5-2-6(9)3-7(5)4-8-7/h2,6,8-9H,3-4H2,1H3/t6-,7-/m1/s1
