18
gdb 61284	2.16816	1.08859	0.83257	4.1807	73.26	-0.2561	0.0291	0.2853	1405.7456	0.147101	-435.328701	-435.318633	-435.317688	-435.364866	35.82	
C	-0.0800200026	 1.5912706102	-0.0169031759	-0.403982
C	-0.0076740484	 0.0598836144	-0.0326599067	 0.054557
C	-1.4216967049	-0.5567868219	 0.0423735055	-0.367444
C	-1.4151168263	-2.0176653016	 0.0747438365	 0.272451
N	-1.4143383179	-3.1726292531	 0.0988253707	-0.304975
N	 0.6929829031	-0.4623824444	-1.195386955	-0.336702
C	 2.0735287122	-0.5481935876	-1.1807852574	 0.465416
N	 2.619670676	-0.9207506013	-2.4017783757	-0.570112
O	 2.7462376253	-0.29979023	-0.1982448347	-0.38967
H	 0.9316203099	 2.0021441235	-0.0352828773	 0.151962
H	-0.6279597253	 1.9712502637	-0.8872657938	 0.109536
H	-0.5821615294	 1.9544773629	 0.885697181	 0.12082
H	 0.5726694525	-0.2736034099	 0.8306053227	 0.140942
H	-1.9334496291	-0.1846357171	 0.9360743385	 0.158342
H	-2.0212390139	-0.2295850415	-0.8170722523	 0.143384
H	 0.2503643689	-0.3329404942	-2.0934399444	 0.238515
H	 2.0819883133	-1.5583370446	-2.9708222503	 0.25333
H	 3.5934480466	-1.1731871476	-2.3208637015	 0.26363
32.2183	60.7932	108.3588	152.7471	190.2236	251.9974	301.5748	364.585	394.1316	401.987	426.5292	463.5364	495.8471	559.6581	581.9923	660.3551	778.7937	862.5044	887.0396	924.5433	968.7479	1039.7631	1089.9915	1108.4766	1129.5539	1178.4984	1244.2578	1303.3256	1322.953	1361.9869	1395.2328	1405.1018	1464.206	1487.0192	1500.7137	1533.2767	1628.5351	1802.7591	2366.2264	3030.8037	3033.9452	3082.4091	3091.6909	3110.8643	3133.3382	3570.1172	3603.9503	3682.5242
CC(CC#N)NC(N)=O	C[C@@H](CC#N)NC(=O)N	
InChI=1S/C5H9N3O/c1-4(2-3-6)8-5(7)9/h4H,2H2,1H3,(H3,7,8,9)	InChI=1S/C5H9N3O/c1-4(2-3-6)8-5(7)9/h4H,2H2,1H3,(H3,7,8,9)/t4-/m0/s1
