16
gdb 65433	4.51477	0.79767	0.75186	2.7997	71.45	-0.2718	-0.0527	0.2191	1469.5065	0.120956	-437.890271	-437.880785	-437.879841	-437.925714	32.631	
C	 0.0544444097	 1.5812137487	-0.1563432644	-0.472457
C	-0.0299026053	 0.0937133228	 0.068521733	 0.263672
O	 1.1841612189	-0.6864550492	 0.0058897001	-0.266972
C	 0.5189638781	-0.6145650102	 1.2520283221	 0.012811
C	 1.217284984	 0.1159168132	 2.3897450231	-0.377177
C	 2.1219508407	-0.7689739562	 3.1242635197	 0.26582
N	 2.8248297025	-1.4783747637	 3.7044801667	-0.290759
C	-1.1787699894	-0.6104422544	-0.6033216021	 0.127465
O	-2.1175340895	-0.0426125575	-1.096062412	-0.243315
H	 0.9230671573	 2.0214484355	 0.3339211828	 0.128812
H	 0.1234605345	 1.7889831151	-1.2276156131	 0.151322
H	-0.8539870493	 2.0651935196	 0.2119479554	 0.149728
H	 0.0388570223	-1.5455814936	 1.5592416188	 0.120113
H	 1.7881719334	 0.9642373684	 2.0055041524	 0.168103
H	 0.4685590344	 0.50733388	 3.0887901324	 0.167122
H	-1.0750788724	-1.7177931285	-0.6101393648	 0.095711
42.0584	87.7316	97.6045	120.4453	218.2208	251.8974	269.7109	357.577	381.0519	436.2554	446.3684	533.3952	598.1022	750.1769	819.4656	873.4638	924.1656	953.546	994.931	1039.4447	1086.5687	1109.1686	1134.2831	1236.3178	1268.8878	1316.878	1338.9076	1402.8119	1421.1897	1445.139	1459.2206	1480.8521	1499.2983	1831.6999	2368.215	2901.1555	3050.2905	3060.0299	3094.111	3116.234	3125.2435	3151.574
CC1(OC1CC#N)C=O	C[C@]1(O[C@H]1CC#N)C=O	
InChI=1S/C6H7NO2/c1-6(4-8)5(9-6)2-3-7/h4-5H,2H2,1H3	InChI=1S/C6H7NO2/c1-6(4-8)5(9-6)2-3-7/h4-5H,2H2,1H3/t5-,6-/m0/s1
