16
gdb 16427	3.34633	2.26227	1.68934	2.3974	64.12	-0.2287	0.0721	0.3008	795.5878	0.129389	-383.643649	-383.636623	-383.635679	-383.674448	27.41	
C	 0.0217956085	 1.4753792425	-0.0319048513	-0.534072
C	 0.042956399	-0.023120643	-0.0767284276	 0.299256
C	 0.5634516618	-0.9747321538	-1.1640910377	 0.049279
O	 1.9555228741	-0.8662945683	-1.3670637526	-0.440653
C	 0.0629539038	-1.9631421749	-0.0909219539	-0.14793
C	 0.4961740163	-1.0067883678	 1.0627937169	 0.054848
O	-0.803389829	-1.0163005848	 1.7263795042	-0.330951
C	-1.1097439265	-1.0154426437	 0.3000390316	 0.036407
H	 1.0332872482	 1.8815457628	-0.1316960128	 0.134835
H	-0.5882877111	 1.8892735288	-0.8421319867	 0.119596
H	-0.396452457	 1.8157403814	 0.9208746319	 0.135033
H	 0.0120765467	-0.9711336344	-2.1151391077	 0.064337
H	 2.2349364832	-1.5763424334	-1.9530924307	 0.285778
H	 0.0578962254	-3.05269027	-0.0738364529	 0.080978
H	 1.3972578797	-1.0041223792	 1.6726587811	 0.100989
H	-2.1534527233	-1.0255020023	-0.0128186218	 0.092269
191.9699	198.3843	229.6268	271.4731	280.0067	358.2521	558.61	571.9138	679.3563	745.6148	787.8535	817.4849	842.5379	869.4045	898.9346	926.2708	950.8117	997.7981	1070.2239	1098.4428	1112.2375	1137.9883	1155.7348	1160.5146	1172.0897	1205.5371	1263.9417	1268.3893	1326.8698	1354.1828	1405.0263	1451.7127	1488.6506	1492.9056	3001.3894	3032.3093	3098.6778	3108.9031	3117.9431	3127.5813	3145.3904	3822.4677
CC12C(O)C3C1OC23	C[C@@]12[C@@H](O)[C@H]3[C@@H]1O[C@@H]23	
InChI=1S/C6H8O2/c1-6-3(7)2-4(6)8-5(2)6/h2-5,7H,1H3	InChI=1S/C6H8O2/c1-6-3(7)2-4(6)8-5(2)6/h2-5,7H,1H3/t2-,3-,4-,5+,6+/m0/s1
