18
gdb 106489	2.73069	1.61515	1.25101	2.0028	70.94	-0.2274	-0.0254	0.202	1028.2865	0.149299	-439.059303	-439.051686	-439.050742	-439.09139	29.956	
O	 0.06320371	 1.4443724329	-0.0031446163	-0.424322
C	 0.0710101364	 0.0298065029	 0.0553205592	-0.193498
C	-1.3291991194	-0.5352808151	-0.0165202319	 0.185108
C	-2.2698397555	-0.5592343465	-1.2661787003	-0.220937
N	-3.0753499428	-1.6080552487	-0.5189195209	-0.127329
C	-1.7407097082	-2.0394029776	 0.0605090032	-0.240825
C	-3.5988568426	-0.7852484659	 0.6075856679	-0.282494
C	-2.3373328136	 0.0206145254	 0.981005044	 0.408555
O	-2.1756164689	 0.8807090222	 1.8108127207	-0.359652
H	-0.4431661683	 1.740734781	 0.7650194893	 0.299082
H	 0.6734205318	-0.3188396751	-0.7907916708	 0.109185
H	 0.5586710057	-0.3381269414	 0.9735789324	 0.095243
H	-2.8182748029	 0.3446392191	-1.5425258323	 0.120986
H	-1.7955602964	-1.0004836121	-2.1458580599	 0.121554
H	-1.2047584441	-2.6679895914	-0.6546787583	 0.122311
H	-1.7904307152	-2.5326551874	 1.0355724612	 0.114388
H	-4.4201505722	-0.1401397155	 0.2830914252	 0.137205
H	-3.952567894	-1.4135375567	 1.4299953775	 0.135441
103.5736	147.2999	188.2301	259.7467	407.3534	443.9383	455.1755	508.4547	537.16	622.0308	629.1789	683.8158	748.0911	839.0033	863.8717	891.5092	950.2596	989.525	994.0041	1016.5099	1040.0646	1063.019	1081.8625	1096.2855	1157.3755	1207.2132	1214.8855	1228.1468	1231.8175	1275.946	1291.6674	1356.1437	1387.9004	1446.3576	1466.6968	1499.55	1500.5761	1535.4121	1845.9001	2967.0279	3054.4269	3060.9921	3063.0001	3065.9775	3113.5729	3118.6288	3126.6619	3759.0645
OCC12CN(C1)CC2=O	OC[C@@]12CN(C1)CC2=O	
InChI=1S/C6H9NO2/c8-4-6-2-7(3-6)1-5(6)9/h8H,1-4H2	InChI=1S/C6H9NO2/c8-4-6-2-7(3-6)1-5(6)9/h8H,1-4H2
