12
gdb 131770	2.81794	1.50559	0.98727	3.1746	60.99	-0.2658	-0.1126	0.1532	1074.8047	0.074169	-505.841308	-505.833211	-505.832266	-505.874885	28.169	
O	 0.0226108338	 1.4135212524	 0.0064049373	-0.397244
C	-0.0034703674	 0.0121950162	 0.0017881492	-0.138915
C	-1.4245691852	-0.4768418544	 0.0121467993	 0.2315
N	-2.3952233015	 0.3759712401	 0.0235395242	-0.077829
O	-3.6627774201	-0.1113803331	 0.0327032421	-0.222441
N	-3.9494968122	-1.5272066416	 0.0303478075	 0.088544
N	-3.0219273019	-2.3317799847	 0.019484079	-0.146652
C	-1.644885542	-1.9182388405	 0.0088983868	 0.383784
O	-0.7714355162	-2.7497842345	-0.0021783744	-0.292122
H	 0.9421227163	 1.6944074494	-0.0014171218	 0.302986
H	 0.4857800095	-0.4271612267	-0.8835279862	 0.134206
H	 0.5006740471	-0.4331835527	 0.8756889871	 0.134183
49.4136	93.0611	186.7978	209.2966	269.8563	339.8108	396.1265	474.2804	502.1086	515.4601	571.9386	605.9942	760.3622	811.1327	900.3312	984.2766	1017.77	1087.4809	1151.311	1234.6472	1244.6473	1335.1355	1470.1195	1493.9556	1596.071	1640.5882	1811.9972	2970.7109	2989.24	3842.3255
OCC1=NON=NC1=O	OCc1nonnc1=O	
InChI=1S/C3H3N3O3/c7-1-2-3(8)4-6-9-5-2/h7H,1H2	InChI=1S/C3H3N3O3/c7-1-2-3(8)4-6-9-5-2/h7H,1H2
