19
gdb 113000	2.05364	1.42926	1.15985	4.1859	71.46	-0.2495	-0.0384	0.2111	1165.0142	0.15737	-460.144482	-460.135026	-460.134082	-460.179278	33.932	
C	-0.4930839112	 1.4802282386	 0.2573905971	-0.429307
C	-0.1838799765	 0.0022882385	 0.0545784403	-0.079355
C	 0.5340974819	-0.4915745708	-1.2317269139	 0.106293
C	 1.2775601818	 0.5040551877	-2.1126718365	-0.074341
O	 2.1905952253	-0.1939147162	-2.9361974843	-0.421807
O	 1.4964543737	-1.245526662	-0.4402137192	-0.294445
C	 1.0290022365	-0.6716259235	 0.7813914367	 0.027983
C	 2.0119686737	 0.2821041264	 1.4282403007	 0.140791
O	 3.0096262837	 0.70169455	 0.9026055603	-0.238021
H	 0.3879139921	 2.1149780479	 0.1312731217	 0.140467
H	-1.2504968662	 1.8123344088	-0.4600061108	 0.129759
H	-0.8949555285	 1.6597342225	 1.2599983253	 0.124504
H	-1.0871052574	-0.5860586723	 0.2325395287	 0.098052
H	-0.0482388897	-1.1716101029	-1.8636922197	 0.089521
H	 0.5766452036	 1.0261499913	-2.7737045205	 0.104377
H	 1.7943214472	 1.2507981203	-1.4948500766	 0.105082
H	 2.7666549992	-0.6771137304	-2.3302213698	 0.296136
H	 0.7555522338	-1.4361235692	 1.5229675289	 0.096345
H	 1.722213397	 0.5889543153	 2.4607362016	 0.077967
57.8778	91.7787	119.9362	171.3014	221.5218	236.9821	246.1393	302.7628	419.7844	461.3995	484.6363	506.4928	672.8753	779.0992	786.9208	843.1369	908.2723	928.8497	976.4246	998.5527	1043.2985	1074.213	1086.1665	1116.3493	1152.3316	1169.9334	1209.54	1221.7894	1276.2129	1298.7978	1342.3862	1358.0231	1381.9773	1410.8607	1416.9851	1421.5843	1436.8554	1491.9253	1500.0914	1504.5897	1832.1091	2857.3058	3005.4681	3012.7719	3040.0397	3042.8113	3074.9482	3079.0937	3100.9982	3121.5294	3781.663
CC1C(CO)OC1C=O	C[C@H]1[C@@H](CO)O[C@H]1C=O	
InChI=1S/C6H10O3/c1-4-5(2-7)9-6(4)3-8/h2,4-6,8H,3H2,1H3	InChI=1S/C6H10O3/c1-4-5(2-7)9-6(4)3-8/h2,4-6,8H,3H2,1H3/t4-,5+,6-/m1/s1
