17
gdb 39605	2.70887	1.67405	1.11608	1.2421	90.77	-0.2027	-0.0567	0.1459	1072.0388	0.137966	-347.524481	-347.516926	-347.515981	-347.556108	29.889	
C	 0.0403631126	 1.266626002	-0.0538353108	-0.318953
C	 1.2710283857	 2.1518971172	-0.0834961461	-0.03598
C	 1.9001962092	 2.7434569375	-1.1133064152	-0.079036
C	 1.7601277609	 2.618242856	-2.5685027503	-0.074878
C	 1.5304682981	 1.4973488688	-3.291584686	-0.228085
C	 1.3000316687	 0.2669131039	-2.6425203555	 0.155364
C	 1.117256665	-0.5946691797	-1.8085269825	-0.044717
C	 0.7071148871	-1.1050569102	-0.5494253894	-0.154827
C	 0.2269507556	-0.1991607008	 0.3206592231	-0.064415
H	-0.6473884768	 1.7121831755	 0.6762630039	 0.105179
H	-0.4562878477	 1.3078392026	-1.0276098016	 0.13591
H	 1.6397772076	 2.4179638697	 0.9062365677	 0.092416
H	 2.6732182196	 3.4608450676	-0.8345106986	 0.09085
H	 1.9643016298	 3.5295145991	-3.1278984285	 0.099856
H	 1.5234416672	 1.5521678958	-4.3759140641	 0.111535
H	 0.7970195347	-2.1563883269	-0.2986521018	 0.108136
H	-0.0894172172	-0.5152413682	 1.3104833257	 0.101645
152.5696	187.4856	211.3851	273.4122	320.5742	390.3415	426.6057	525.1365	565.6308	604.9513	666.8499	704.4614	734.9943	792.3014	796.7288	847.0204	902.6997	923.6921	969.2907	984.2758	1012.3224	1014.0369	1053.2534	1171.2954	1211.0193	1239.0382	1252.0847	1313.1675	1317.1777	1398.7148	1417.0959	1454.6095	1480.3606	1618.8576	1629.8795	1688.4679	2285.7399	3024.5924	3082.1967	3105.5322	3137.118	3144.0901	3166.4441	3172.9698	3189.4071
C1C=CC=CC#CC=C1	C1C=CC=CC#CC=C1	
InChI=1S/C9H8/c1-2-4-6-8-9-7-5-3-1/h1-4,7,9H,5H2/b3-1-,4-2-,9-7-	InChI=1S/C9H8/c1-2-4-6-8-9-7-5-3-1/h1-4,7,9H,5H2/b3-1-,4-2-,9-7-
