22
gdb 11561	4.645	0.90208	0.85722	1.2783	78.65	-0.2623	0.0778	0.3401	1427.6989	0.199151	-350.191268	-350.181574	-350.18063	-350.226121	35.331	
C	 0.0114606781	 1.5160886679	 0.2661978222	-0.392037
C	-0.0070184614	 0.0194939686	-0.0708624953	 0.049476
C	-1.4384607698	-0.5196265178	-0.0645008086	-0.079093
O	-1.9853411013	-0.3432475362	 1.2352910512	-0.424049
C	 0.6671502353	-0.2971821965	-1.419081437	-0.218526
C	 2.1452667231	 0.0310826259	-1.4748239003	 0.031137
C	 3.1580003862	-0.9346445828	-0.9100822277	-0.254108
C	 3.0582129439	-0.7291760384	-2.4026224963	-0.278201
H	 1.0316277025	 1.8888370475	 0.3928809712	 0.110565
H	-0.4630503241	 2.1008024747	-0.5322887205	 0.102423
H	-0.5374221491	 1.7019928287	 1.191851482	 0.132152
H	 0.5365521872	-0.5191568436	 0.7173642218	 0.083101
H	-2.0361310598	 0.0154892734	-0.8221277553	 0.079692
H	-1.4322916362	-1.585412738	-0.3454088587	 0.079119
H	-2.9079732078	-0.6118212239	 1.2128937178	 0.285277
H	 0.5407422934	-1.3660889992	-1.6398184707	 0.08458
H	 0.1423395936	 0.2434198198	-2.2204891384	 0.090873
H	 2.3830060437	 1.0838224655	-1.3516554293	 0.084294
H	 4.0238678484	-0.5385485924	-0.3911348687	 0.108953
H	 2.7903002416	-1.8719177383	-0.5041986828	 0.108437
H	 2.6257872364	-1.5289153759	-2.9956508559	 0.10737
H	 3.8550238562	-0.1898130991	-2.9030593605	 0.108565
59.4713	74.0209	123.7073	147.9208	228.4555	240.2618	265.1485	320.4382	340.8857	396.7456	434.7385	529.3793	774.9829	803.0421	822.9349	849.2961	886.5369	925.1202	937.1413	941.1014	994.099	1050.8774	1067.2226	1078.4345	1080.5629	1105.1894	1142.3328	1170.1403	1197.919	1199.6014	1227.0382	1231.2428	1266.074	1286.5034	1308.1266	1361.2633	1382.1058	1403.0005	1420.4121	1457.5651	1470.447	1482.0211	1494.7112	1506.7352	1509.4139	1521.4517	2952.6278	2981.4705	2995.0861	3016.865	3027.764	3037.7798	3098.1558	3126.3603	3129.1847	3131.4857	3146.7524	3203.7005	3219.266	3834.9211
CC(CO)CC1CC1	C[C@@H](CO)CC1CC1	
InChI=1S/C7H14O/c1-6(5-8)4-7-2-3-7/h6-8H,2-5H2,1H3	InChI=1S/C7H14O/c1-6(5-8)4-7-2-3-7/h6-8H,2-5H2,1H3/t6-/m1/s1
