21
gdb 84010	2.07915	1.58558	1.33602	2.3122	77.8	-0.2413	0.0747	0.316	1105.0784	0.183304	-424.211666	-424.202898	-424.201954	-424.24458	34.275	
C	-0.4104272143	 1.4675152235	-0.0996779962	-0.427412
C	-0.0605060564	 0.0007815742	 0.0276540046	-0.076948
C	 1.3025858295	-0.6046883582	-0.3115591815	-0.120091
C	 2.5269224466	 0.2472934076	-0.6278435034	-0.109381
O	 3.3633815564	 0.4672487086	 0.4989348558	-0.233092
C	 2.6664487111	 1.1000781654	 1.5503498868	-0.09031
C	 1.5747069858	 0.1903622051	 2.145747246	-0.298611
C	 0.8008018465	-0.6105582935	 1.1061661512	 0.388632
O	 0.4001493991	-1.8818629652	 1.5642883491	-0.465173
H	 0.4038798596	 2.1345541051	 0.1888365439	 0.122074
H	-0.68073733	 1.7137472891	-1.1329854503	 0.121303
H	-1.2715727483	 1.7144804552	 0.5315106027	 0.116563
H	-0.8794684588	-0.6586209164	-0.2495967868	 0.086786
H	 1.2657734474	-1.5675271924	-0.8092961781	 0.099558
H	 3.1535637662	-0.2640708036	-1.3624551371	 0.112232
H	 2.2352331523	 1.2172225676	-1.0630887995	 0.089014
H	 3.4096005654	 1.3354629478	 2.3177954885	 0.109291
H	 2.2449948418	 2.0571543279	 1.2033619455	 0.090099
H	 2.0601972263	-0.5538464671	 2.7849369179	 0.11961
H	 0.9066382637	 0.7827875696	 2.7851614555	 0.08917
H	-0.3178309198	-1.7526796605	 2.1942706852	 0.276686
126.3352	142.5531	186.7054	221.4587	239.8231	305.0495	353.6932	390.4704	450.4323	458.9407	498.9357	545.8747	630.3468	704.8904	780.8736	818.3197	886.5014	917.8558	960.1557	985.2455	1023.7038	1030.3608	1047.5401	1078.5517	1110.7622	1128.389	1149.0906	1160.9677	1214.5053	1240.1929	1260.6426	1288.4313	1324.7789	1340.1971	1357.3347	1363.5595	1389.8582	1414.0932	1423.6389	1459.1391	1483.353	1489.6799	1502.584	1505.4615	1514.1683	2968.3672	2976.4168	3019.228	3032.5886	3073.1338	3082.9582	3086.4243	3092.8095	3124.0197	3140.8447	3168.8014	3790.3085
CC1C2COCCC12O	C[C@H]1[C@H]2COCC[C@@]12O	
InChI=1S/C7H12O2/c1-5-6-4-9-3-2-7(5,6)8/h5-6,8H,2-4H2,1H3	InChI=1S/C7H12O2/c1-5-6-4-9-3-2-7(5,6)8/h5-6,8H,2-4H2,1H3/t5-,6+,7+/m0/s1
