17
gdb 42374	2.08883	1.42372	0.95719	3.6934	73.14	-0.2564	-0.043	0.2134	1227.5886	0.13441	-417.998152	-417.989017	-417.988072	-418.033421	32.026	
O	 0.7306579177	 2.3429146301	 2.0101959616	-0.27321
C	 0.1875492417	 2.0999934901	 0.9655737673	 0.370706
C	 1.0149281524	 1.8286900414	-0.3148211374	-0.405119
C	 1.0384414906	 0.410195698	-0.6532058585	 0.278054
N	 1.0605476876	-0.7191834545	-0.8984432516	-0.318625
C	-1.3329461387	 2.1190970613	 0.8248853317	-0.249204
N	-1.8025492948	 1.4172041235	-0.3531644186	-0.080779
C	-2.2646703297	 0.0418708623	-0.1628119794	-0.214436
C	-3.2353750239	 1.1392939146	-0.4195110108	-0.225407
H	 0.5819235184	 2.3784960386	-1.1560507127	 0.172867
H	 2.0333245099	 2.1765322867	-0.1243161929	 0.16756
H	-1.7606882713	 1.7606485148	 1.7752262394	 0.124145
H	-1.6096812449	 3.1799928439	 0.7345156674	 0.141701
H	-1.9858423508	-0.6543341374	-0.9461327447	 0.145977
H	-2.2287709101	-0.3665762151	 0.8454762566	 0.12238
H	-3.8553007876	 1.4637990938	 0.4144057931	 0.116184
H	-3.6896468867	 1.2585617479	-1.3985577605	 0.127207
48.3032	59.9903	95.3251	130.491	179.7644	322.5754	370.6397	381.7796	437.4062	452.0876	517.3061	595.774	778.6331	795.0858	845.9648	871.3626	914.3835	959.8671	1008.4886	1038.2343	1054.7031	1112.3328	1128.4332	1149.2667	1171.0294	1195.8325	1246.516	1259.9059	1292.2464	1328.2589	1356.3731	1435.9585	1455.0037	1493.1212	1520.2585	1834.8573	2358.8539	2977.3822	3027.5023	3063.7118	3100.404	3109.767	3124.2018	3188.8902	3211.0464
O=C(CC#N)CN1CC1	O=C(CC#N)CN1CC1	
InChI=1S/C6H8N2O/c7-2-1-6(9)5-8-3-4-8/h1,3-5H2	InChI=1S/C6H8N2O/c7-2-1-6(9)5-8-3-4-8/h1,3-5H2
