22
gdb 113242	4.31169	0.76773	0.73043	4.1396	87.37	-0.2808	0.0338	0.3146	1633.8569	0.192732	-367.229463	-367.219122	-367.218178	-367.265007	37.791	
C	-0.3010704366	 1.5596895144	 0.3959381243	-0.370523
C	 0.1381494033	 0.1579021228	-0.0446937221	-0.210009
C	 0.87920412	-0.5817319788	 1.0520497989	-0.036425
C	 0.1441298357	-1.3778180532	 2.1082395672	-0.320447
C	 1.0228505235	-2.0892811653	 1.1048141304	 0.329894
C	 0.3891509549	-2.9792223606	 0.0525791776	-0.471918
C	 2.3706732778	-2.6047079237	 1.6134526542	-0.408896
C	 2.2683306457	-3.9028738197	 2.2855569668	 0.273005
N	 2.17035812	-4.9274992791	 2.8111239866	-0.316326
H	 0.5609366315	 2.1728952519	 0.6808467395	 0.115067
H	-0.8282336197	 2.0799926458	-0.409483173	 0.11352
H	-0.970328237	 1.5082307077	 1.2609217056	 0.121066
H	-0.7423886013	-0.4142371893	-0.3560115003	 0.09908
H	 0.7800835761	 0.2384060155	-0.9317946538	 0.099273
H	 1.7484137515	-0.0345117371	 1.4150720165	 0.07821
H	 0.4710794936	-1.3155903431	 3.1410572008	 0.115309
H	-0.9294094802	-1.4919987717	 1.9932276999	 0.11453
H	-0.5939503697	-2.6135194147	-0.2502388644	 0.122798
H	 1.0146700076	-3.0419358205	-0.8460729823	 0.116737
H	 0.2579638974	-3.9957926853	 0.4384796929	 0.142582
H	 3.0794222786	-2.7051931507	 0.7814724788	 0.147524
H	 2.811253837	-1.8910799654	 2.3180447661	 0.145949
57.239	83.127	114.3479	158.7159	195.7801	218.8044	258.1619	295.0277	354.4577	359.0832	395.9828	432.1483	440.9696	606.8569	713.8076	781.982	814.7716	877.6339	906.2601	929.8599	936.7934	967.9498	975.273	1015.1113	1059.2191	1063.6837	1106.535	1126.2302	1135.2567	1196.7738	1218.7787	1260.816	1301.2168	1325.8893	1344.02	1366.956	1411.7548	1425.7377	1430.29	1460.0671	1481.2354	1494.5551	1497.0486	1499.315	1505.9794	1510.1535	2358.9701	3021.4576	3029.9109	3032.513	3033.4342	3063.5948	3076.6091	3090.0378	3100.7021	3107.8088	3111.844	3124.7534	3127.7369	3208.5386
CCC1CC1(C)CC#N	CC[C@H]1C[C@]1(C)CC#N	
InChI=1S/C8H13N/c1-3-7-6-8(7,2)4-5-9/h7H,3-4,6H2,1-2H3	InChI=1S/C8H13N/c1-3-7-6-8(7,2)4-5-9/h7H,3-4,6H2,1-2H3/t7-,8-/m0/s1
