20
gdb 89988	3.32134	1.1792	1.03148	2.5326	74.98	-0.2359	0.0559	0.2918	1223.42	0.170465	-440.236334	-440.227335	-440.226391	-440.270264	33.791	
C	-0.0212158056	 1.6214200211	 0.0667271787	-0.396306
C	 0.0276122181	 0.1050090788	 0.075818138	 0.018307
N	 1.0230424494	-0.5200480297	-0.8356851415	-0.378832
C	 1.3533734039	-1.550285209	 0.1522984142	 0.250419
C	 0.8967412641	-3.0246766493	 0.0333863326	-0.134178
O	 2.2189810075	-3.49279095	 0.3529837971	-0.272403
C	 2.7598385391	-2.1541699227	 0.2838460273	-0.140161
C	 0.735584775	-0.640985465	 1.2511784673	 0.069644
O	 1.659943814	 0.1083584729	 2.0011594527	-0.42706
H	 0.9656815674	 2.053852355	 0.2524911458	 0.108291
H	-0.3685130011	 1.9880117449	-0.9049636102	 0.117103
H	-0.7081197788	 1.9909780078	 0.8349554545	 0.122338
H	-0.9873453193	-0.2993001812	-0.0575177556	 0.065521
H	 0.6872038519	-0.8444100387	-1.7372726324	 0.21448
H	 0.1436801674	-3.380377769	 0.7482456136	 0.103115
H	 0.5898484524	-3.3144439004	-0.983460936	 0.088192
H	 3.3913643649	-2.0048315109	-0.6025392834	 0.097765
H	 3.3177192986	-1.882034957	 1.1871648298	 0.112499
H	 0.086048466	-1.1335358436	 1.9769667574	 0.091477
H	 2.2574430851	 0.5477850961	 1.3852205803	 0.289789
62.8195	91.1193	190.1245	195.7971	240.6643	276.756	326.1569	374.2641	382.0536	458.6179	522.5148	618.6015	696.5569	784.9319	836.0991	870.496	904.9105	944.1649	958.78	994.3373	1010.0719	1031.4447	1064.196	1101.1639	1140.0874	1144.6303	1151.5438	1155.2646	1195.8447	1226.3964	1243.7545	1277.2428	1295.7972	1311.6159	1364.6126	1375.8406	1396.799	1418.5167	1439.5534	1484.3534	1494.5432	1499.7879	1526.4864	2978.1423	2980.2248	3008.3686	3038.1012	3039.0306	3066.8685	3100.3637	3104.7542	3117.4174	3513.4859	3799.5119
CC1NC2(COC2)C1O	C[C@H]1NC2(COC2)[C@H]1O	
InChI=1S/C6H11NO2/c1-4-5(8)6(7-4)2-9-3-6/h4-5,7-8H,2-3H2,1H3	InChI=1S/C6H11NO2/c1-4-5(8)6(7-4)2-9-3-6/h4-5,7-8H,2-3H2,1H3/t4-,5+/m1/s1
