15
gdb 56083	4.4487	0.59711	0.57536	3.5147	84.53	-0.2447	-0.0218	0.2229	1875.3115	0.111232	-416.7897	-416.780061	-416.779117	-416.825532	34.386	
N	-0.3266077951	 1.2630640808	 0.2448521057	-0.559407
C	-0.1688124447	-0.1137314928	 0.2382001186	 0.458881
O	 0.5349964533	-0.7032797381	 1.0353658767	-0.380463
N	-0.8941751911	-0.7505905006	-0.7562239919	-0.334842
C	-1.0270532324	-2.2024010172	-0.7141807515	-0.317469
C	-2.3637178011	-2.6481212579	-0.3346269083	 0.419114
C	-3.484373023	-3.0027711845	-0.0463266655	-0.318503
C	-4.7426197599	-3.4021672649	 0.2832708426	 0.295855
C	-5.8597826735	-3.7565118181	 0.5737104055	-0.542798
H	 0.3695408043	 1.7318478301	 0.8041478665	 0.264642
H	-0.5324098263	 1.7212562218	-0.6300267144	 0.250573
H	-1.673580139	-0.2482986015	-1.153324377	 0.246437
H	-0.7623587968	-2.6333125022	-1.6885238673	 0.139343
H	-0.2851740047	-2.5499347434	 0.0127932123	 0.18507
H	-6.84075057	-4.0692430116	 0.832710238	 0.193568
28.7289	60.185	134.1574	145.1245	252.7139	276.3693	337.3803	385.8192	410.609	487.0397	518.4284	527.1525	549.3607	561.3864	587.8084	605.5066	654.5274	738.4665	775.0422	904.9482	1035.5715	1099.0157	1137.4995	1177.2057	1265.2969	1317.7623	1383.4475	1466.5565	1526.2314	1627.8845	1807.0622	2182.4274	2363.576	3019.3736	3081.9657	3504.9099	3577.5871	3618.7631	3692.4747
NC(=O)NCC#CC#C	NC(=O)NCC#CC#C	
InChI=1S/C6H6N2O/c1-2-3-4-5-8-6(7)9/h1H,5H2,(H3,7,8,9)	InChI=1S/C6H6N2O/c1-2-3-4-5-8-6(7)9/h1H,5H2,(H3,7,8,9)
