14
gdb 12345	3.17863	2.29446	1.39948	0.8572	57.97	-0.2582	-0.0313	0.2268	831.0703	0.10888	-415.893273	-415.886181	-415.885237	-415.924737	25.842	
N	-0.074979387	 1.4728863716	 0.113878093	-0.501204
C	-0.0260382093	 0.0348323022	-0.0699004449	-0.145535
C	-1.4304422121	-0.5868754992	-0.0432543429	-0.163352
N	-1.418004735	-2.017526759	-0.3148939231	-0.236994
C	-0.4901234163	-2.4604174148	-1.0376882055	 0.133187
O	 0.5209402854	-1.7509101395	-1.6592005159	-0.213811
C	 0.7056400312	-0.4208347123	-1.3315521752	 0.41226
O	 1.4235243248	 0.2528069287	-2.0076723602	-0.304869
H	 0.870225322	 1.8454732898	 0.1117977647	 0.24624
H	-0.5308746154	 1.9004044683	-0.6887451993	 0.23594
H	 0.5359110533	-0.4022776423	 0.7689474997	 0.129229
H	-1.8854831546	-0.4077715564	 0.9335471932	 0.139538
H	-2.0786046836	-0.0952953904	-0.7840429875	 0.123883
H	-0.4040602935	-3.5121883367	-1.2949681059	 0.145488
101.3388	153.8885	193.2001	285.5309	344.7392	445.7924	480.3696	508.8326	573.8208	675.9601	768.8789	877.0085	913.4099	942.9743	983.0616	1005.5227	1031.0947	1106.8982	1115.0542	1172.0401	1203.363	1259.1434	1331.9142	1362.7601	1400.5868	1411.4261	1488.1115	1671.0625	1750.1504	1876.567	3001.0717	3015.5599	3099.3137	3189.4336	3490.0423	3562.8105
NC1CN=COC1=O	N[C@H]1CN=COC1=O	
InChI=1S/C4H6N2O2/c5-3-1-6-2-8-4(3)7/h2-3H,1,5H2	InChI=1S/C4H6N2O2/c5-3-1-6-2-8-4(3)7/h2-3H,1,5H2/t3-/m0/s1
