13
gdb 127503	3.04745	1.34243	0.93745	6.0245	69.75	-0.2561	-0.0431	0.2129	1157.0781	0.090482	-448.94529	-448.937321	-448.936377	-448.978408	28.006	
C	-0.0319303257	 1.3749079967	-0.0533880964	-0.313182
N	 0.0143265812	-0.073379489	-0.0211707555	 0.142397
N	 0.1293789343	-0.7972815829	-1.1440777218	-0.328788
C	 0.1354140939	-2.0476264788	-0.7001209707	 0.315226
O	 0.2350758478	-3.1208640103	-1.4868104974	-0.406611
C	 0.0214523513	-2.0382813315	 0.7071340243	 0.146667
N	-0.0534155076	-0.7523065048	 1.0993882969	-0.279634
C	-0.0146307014	-3.1283498186	 1.6085028882	 0.247552
N	-0.0415646677	-4.0394129755	 2.3216802496	-0.341196
H	 0.8849698693	 1.764557142	-0.5015834436	 0.161932
H	-0.8901775947	 1.7047939453	-0.6433224155	 0.161919
H	-0.12565614	 1.7188238076	 0.9751261321	 0.175115
H	 0.2993059192	-2.8209967201	-2.4026594601	 0.318604
67.1934	139.3251	147.1509	202.5697	298.9119	352.6951	398.0682	425.6484	540.9494	556.8251	624.5503	664.1026	665.2431	772.0632	844.227	1027.0655	1082.7759	1150.6037	1201.3936	1280.2738	1331.4197	1382.7974	1431.4051	1452.9337	1475.7317	1508.4983	1549.5651	1609.5905	2357.3731	3062.9418	3132.9448	3183.806	3796.2994
CN1N=C(O)C(=N1)C#N	Cn1nc(O)c(n1)C#N	
InChI=1S/C4H4N4O/c1-8-6-3(2-5)4(9)7-8/h1H3,(H,7,9)	InChI=1S/C4H4N4O/c1-8-6-3(2-5)4(9)7-8/h1H3,(H,7,9)
