17
gdb 73772	2.36563	1.6607	0.98753	1.0655	80.67	-0.2586	-0.0654	0.1932	1164.3211	0.135664	-418.087895	-418.078677	-418.077733	-418.122447	32.813	
C	 0.0939206487	 1.5121447423	 0.0659968384	-0.492416
C	-0.0097792465	 0.0259931823	 0.004537523	 0.172229
C	-1.0891126702	-0.7780378812	 0.0280962292	 0.064953
C	-2.5444311187	-0.4710395739	 0.121753493	-0.49483
C	-0.6254741767	-2.2008872242	-0.0615144732	 0.377158
O	-1.2929059889	-3.2089044385	-0.0678574898	-0.351469
N	 0.7649000864	-2.1384628833	-0.1374998652	-0.420495
C	 1.2132132551	-0.8194848977	-0.1016408005	 0.331072
N	 2.3977320585	-0.3555503588	-0.1458313924	-0.518213
H	 0.7024651537	 1.8194938056	 0.9227723469	 0.151418
H	 0.6011609749	 1.8988320527	-0.8239610195	 0.151384
H	-0.8878139627	 1.9832972296	 0.1442073303	 0.125404
H	-3.0754812721	-0.8492123409	-0.7589063417	 0.148927
H	-2.9883867443	-0.9747832973	 0.9872848753	 0.149504
H	-2.7325087447	 0.6010365179	 0.2072413162	 0.128102
H	 1.3487010415	-2.9557438461	-0.204225012	 0.25971
H	 3.095632886	-1.0981388184	-0.218546368	 0.217562
53.8871	95.242	123.8471	132.5801	257.3009	258.8162	274.371	369.3254	422.8572	471.6089	530.3258	624.775	648.1607	690.4578	720.4669	782.9526	845.0681	880.2418	961.275	1044.515	1066.8486	1069.9663	1123.6176	1154.7139	1173.0226	1339.1901	1342.3058	1398.1143	1418.1245	1421.5215	1470.6176	1472.1623	1478.6089	1482.7468	1718.8933	1742.1937	1832.5228	3038.9013	3044.1951	3089.3979	3097.6978	3129.8405	3134.1891	3460.0371	3661.9196
CC1=C(C)C(=O)NC1=N	CC1=C(NC(=O)[C]1C)[NH]	
InChI=1S/C6H8N2O/c1-3-4(2)6(9)8-5(3)7/h1-2H3,(H2,7,8,9)	InChI=1S/C6H8N2O/c1-3-4(2)6(9)8-5(3)7/h1-2H3,(H2,7,8,9)
