19
gdb 122763	5.99997	0.56311	0.52147	3.5791	81.4	-0.265	-0.0569	0.2081	2089.5642	0.15477	-422.993573	-422.982855	-422.98191	-423.030852	36.514	
C	-0.0273316191	 1.5146171164	 0.0098716876	-0.384363
C	-0.0464252015	-0.0157983433	 0.0024561996	-0.18279
C	-1.4606406122	-0.5773662574	 0.0127769304	-0.031902
O	-1.3847060193	-1.9915004546	 0.0050315984	-0.229018
C	-2.6291552973	-2.6103970486	 0.0133972797	-0.165056
C	-2.465667074	-4.1243938463	 0.0038190712	 0.227885
O	-1.3995786349	-4.6892206089	-0.0092513449	-0.256382
C	-3.7313335472	-4.8455987733	 0.0119407241	 0.249022
C	-4.7823641334	-5.4320886696	 0.0188077256	-0.429947
H	 0.9987620269	 1.8926814063	 0.0022591983	 0.120483
H	-0.5385908536	 1.9259122176	-0.8675969719	 0.116535
H	-0.5222385283	 1.9171405285	 0.9006824276	 0.116534
H	 0.4728277953	-0.4002081838	-0.8824873395	 0.112972
H	 0.4891089776	-0.4089184056	 0.8737654051	 0.112968
H	-2.0077818356	-0.2305307676	 0.9066190439	 0.086443
H	-2.0242346323	-0.2217113969	-0.867270517	 0.086445
H	-3.2294489626	-2.3417688776	 0.9030015197	 0.116526
H	-3.2459637774	-2.3323969709	-0.8619138166	 0.116525
H	-5.7023513911	-5.9649117343	 0.0246604589	 0.21712
45.4863	53.2646	78.0622	127.8335	140.9194	158.8245	232.7341	232.749	251.1481	357.3104	399.4087	535.4765	580.1842	606.5323	661.3446	706.9553	765.6374	847.923	901.6244	920.0692	1013.3966	1019.1382	1056.3065	1106.1856	1150.6268	1191.2892	1198.8461	1246.9309	1271.2871	1317.7026	1333.8487	1388.251	1412.9314	1439.6957	1481.6845	1492.6166	1500.42	1508.0156	1529.5235	1793.6648	2212.2432	2932.1656	2950.3826	2952.491	2975.1955	3032.1131	3043.9983	3075.6231	3101.4434	3110.3968	3494.1658
CCCOCC(=O)C#C	CCCOCC(=O)C#C	
InChI=1S/C7H10O2/c1-3-5-9-6-7(8)4-2/h2H,3,5-6H2,1H3	InChI=1S/C7H10O2/c1-3-5-9-6-7(8)4-2/h2H,3,5-6H2,1H3
