25
gdb 104175	3.30517	0.96838	0.91962	1.2878	88.55	-0.2552	0.0687	0.3238	1464.9035	0.228419	-389.520622	-389.510255	-389.50931	-389.555958	39.648	
C	 0.0420643535	 1.6000378608	 0.1178789225	-0.407942
C	 0.0159971494	 0.0737401625	-0.017007335	-0.218621
C	-1.3928278571	-0.5378461079	-0.0621209686	 0.395159
O	-2.1099034992	-0.2250391632	 1.1430735469	-0.483187
C	-2.2289767302	-0.1260589409	-1.3131295135	-0.255432
C	-2.9945891997	-1.3971911203	-1.767569725	-0.215891
C	-2.7781256733	-2.4401909995	-0.6498734393	 0.052336
C	-2.9365085322	-3.8899765464	-1.1007498968	-0.413083
C	-1.3829655474	-2.0731315284	-0.1214744993	-0.224324
H	 1.0705678313	 1.9718895268	 0.1435376572	 0.117215
H	-0.4651907336	 2.0923107992	-0.7190863646	 0.11686
H	-0.44002394	 1.9251311307	 1.0462822355	 0.111589
H	 0.5540149095	-0.2238928026	-0.9257090994	 0.089602
H	 0.5524863919	-0.3724584068	 0.8289772397	 0.098971
H	-2.3216544714	 0.7134156213	 1.1276395765	 0.274372
H	-2.9104608416	 0.6901996202	-1.052458136	 0.087172
H	-1.5817326192	 0.2502723391	-2.1115630798	 0.094803
H	-4.0540312274	-1.2073731483	-1.9627220727	 0.092933
H	-2.5664647819	-1.7765898999	-2.7037004262	 0.091798
H	-3.4931619606	-2.2360411149	 0.1557199927	 0.085358
H	-2.2197894199	-4.1365190199	-1.893696291	 0.106688
H	-2.7690576029	-4.5872073156	-0.2727394218	 0.111005
H	-3.9419335084	-4.078554505	-1.4930962892	 0.109137
H	-0.6132186019	-2.4097193673	-0.8288734102	 0.083008
H	-1.1553653379	-2.5027720739	 0.8580440375	 0.100474
41.241	98.8862	122.4821	193.5055	234.3497	246.9288	283.0623	302.9877	349.736	362.6009	400.7517	423.021	466.3158	569.6108	611.9322	772.0064	781.7905	796.9594	851.1778	890.6113	920.8258	933.8586	960.7246	983.8609	1009.2207	1019.6869	1058.5355	1072.1514	1106.2643	1107.5799	1148.5357	1193.1142	1222.9467	1240.0291	1269.9035	1289.6905	1292.4346	1321.0257	1333.1651	1347.4835	1357.416	1388.428	1392.0954	1409.6688	1410.522	1474.1949	1475.027	1482.1182	1496.6267	1498.6016	1503.0583	1504.8678	1511.8586	3018.5074	3020.6826	3024.6531	3026.4188	3032.5668	3039.8073	3044.476	3060.7018	3072.6701	3085.1243	3090.8373	3092.241	3096.8986	3099.9711	3104.7483	3818.671
CCC1(O)CCC(C)C1	CC[C@@]1(O)CC[C@@H](C)C1	
InChI=1S/C8H16O/c1-3-8(9)5-4-7(2)6-8/h7,9H,3-6H2,1-2H3	InChI=1S/C8H16O/c1-3-8(9)5-4-7(2)6-8/h7,9H,3-6H2,1-2H3/t7-,8-/m1/s1
