23
gdb 57358	2.2447	1.44543	1.31539	1.6892	80.72	-0.2562	0.0594	0.3156	1153.8206	0.202546	-425.422502	-425.412058	-425.411114	-425.456729	40.595	
C	-1.4363078147	-0.3363907025	-0.1590527985	-0.403787
C	 0.0621098187	-0.0493744996	-0.0347052408	 0.321529
C	 0.2972722011	 1.4291164676	 0.2980498889	-0.440397
O	 0.5284965613	-0.8784972744	 1.0379581975	-0.471844
C	 0.8020410856	-0.4387872059	-1.3433763497	 0.423469
O	 0.2693617469	 0.4040256477	-2.3498169655	-0.493425
C	 2.362078728	-0.4838078401	-1.232772821	-0.297864
C	 2.3031817415	-2.0331567888	-1.1937888163	-0.203318
C	 0.823017928	-1.9704311861	-1.651408925	-0.279329
H	-1.8573413323	 0.2006601678	-1.010476595	 0.130996
H	-1.6162811875	-1.405574769	-0.2963646238	 0.117835
H	-1.9490230619	-0.0252222432	 0.7551054011	 0.111435
H	-0.2109918224	 1.6834543782	 1.2327007824	 0.114857
H	 1.3652239514	 1.6449004301	 0.4202172986	 0.10292
H	-0.0791376739	 2.070785621	-0.5005857661	 0.139567
H	 1.3585254367	-0.5121568474	 1.3587109453	 0.278671
H	 0.6717653107	 0.1599920376	-3.188900371	 0.27439
H	 2.8192797695	-0.1014493673	-2.1511791596	 0.091229
H	 2.8359779857	 0.0304695852	-0.3912217159	 0.084163
H	 2.9999233473	-2.5647799233	-1.8454347445	 0.092485
H	 2.3959595321	-2.4266835892	-0.1808689154	 0.110156
H	 0.1116165746	-2.5983276764	-1.113274573	 0.112393
H	 0.7033298038	-2.149262052	-2.7253676727	 0.083868
91.3865	135.9378	197.7509	224.5289	232.3884	259.5105	263.2545	264.7564	325.4753	329.7462	359.909	420.3941	445.6756	495.3927	508.1699	615.37	685.3486	770.2773	802.0395	863.4769	902.6308	936.4881	946.6753	976.3981	977.1874	991.6367	1032.8287	1056.5751	1091.2258	1136.1184	1164.0204	1205.6209	1212.0314	1227.2523	1233.933	1246.7322	1279.4572	1287.7095	1356.5118	1391.8049	1400.1779	1414.9459	1463.1542	1475.2538	1482.9303	1484.1391	1496.1477	1501.7792	1510.1982	3032.1292	3041.069	3048.4853	3055.363	3073.8511	3084.6036	3099.5594	3116.3214	3123.0099	3134.2185	3139.1924	3148.112	3818.7661	3820.1716
CC(C)(O)C1(O)CCC1	CC(C)(O)C1(O)CCC1	
InChI=1S/C7H14O2/c1-6(2,8)7(9)4-3-5-7/h8-9H,3-5H2,1-2H3	InChI=1S/C7H14O2/c1-6(2,8)7(9)4-3-5-7/h8-9H,3-5H2,1-2H3
