20
gdb 119257	2.15387	0.99743	0.74876	4.5099	75.88	-0.238	-0.0188	0.2192	1523.3669	0.168784	-440.255245	-440.245112	-440.244168	-440.291581	35.795	
O	-3.7906689293	 0.8164082875	-0.0706075562	-0.414946
C	-3.4292528567	-0.5108637639	-0.4117983872	-0.097786
C	-2.2006546047	-0.8637746441	 0.4210699465	-0.24192
C	-1.4950073909	-2.1734232621	 0.0900281389	 0.281247
C	-0.4607005576	-2.5886040206	 1.1304187979	-0.321401
C	 0.7009925482	-1.6172845608	 1.1964492494	 0.160359
O	 1.1471308948	-1.1453938675	 2.2107975081	-0.244605
C	-2.159415712	-3.2379678888	-0.7092985875	-0.28525
N	-1.0523711662	-2.4554482478	-1.2910205711	-0.343184
H	-4.5958740742	 1.0429593527	-0.5450219929	 0.289102
H	-4.2471482054	-1.2145694603	-0.1951615385	 0.095959
H	-3.2060832177	-0.5921355726	-1.4895553157	 0.080062
H	-1.4854816697	-0.0361424216	 0.3236704549	 0.125221
H	-2.4976906525	-0.8778173901	 1.4760281975	 0.121741
H	-0.9016533003	-2.685442653	 2.1271109242	 0.116872
H	-0.0455783523	-3.5610068244	 0.8357307857	 0.126694
H	 1.1352614919	-1.369588746	 0.2021098437	 0.089785
H	-1.9313691618	-4.2826960584	-0.5143947048	 0.11671
H	-3.1648123034	-3.0645969133	-1.0805538895	 0.114852
H	-1.42231193	-1.759515255	-1.9337295934	 0.230486
52.9347	67.3079	89.2582	101.7079	174.9499	231.3201	271.4213	313.5791	348.1874	383.7429	407.8848	480.7392	553.7021	726.7894	784.1009	809.8321	848.2122	930.1824	946.0137	982.2079	1004.9809	1042.4698	1051.3648	1079.9482	1087.0508	1122.2538	1142.5072	1206.0215	1237.0132	1245.5798	1267.6802	1285.7385	1311.8614	1326.9195	1378.0266	1389.5414	1418.5489	1450.0327	1469.3295	1488.1506	1514.9092	1528.7122	1831.9548	2887.988	2950.9865	2994.1814	3027.0553	3031.8669	3069.6542	3099.9052	3112.1951	3195.7091	3502.0526	3831.3355
OCCC1(CC=O)CN1	OCC[C@@]1(CC=O)CN1	
InChI=1S/C6H11NO2/c8-3-1-6(2-4-9)5-7-6/h3,7,9H,1-2,4-5H2	InChI=1S/C6H11NO2/c8-3-1-6(2-4-9)5-7-6/h3,7,9H,1-2,4-5H2/t6-/m0/s1
