21
gdb 107680	3.03882	1.23919	1.04157	0.6298	77.91	-0.241	0.0737	0.3147	1213.0216	0.183856	-424.211926	-424.203389	-424.202445	-424.244945	33.427	
O	 0.1650257296	 1.3459392336	 0.2816696414	-0.416334
C	 0.0043566393	 0.0200408835	-0.2025845343	-0.131047
C	-1.417429596	-0.4838314047	-0.0574879931	 0.259288
C	-1.7725966755	-1.115669193	 1.2802119071	-0.358741
C	-1.6133413076	-1.9775761263	 0.0511837919	 0.064658
O	-2.7523285073	-2.5963289059	-0.4730512964	-0.25933
C	-3.3995050367	-1.8863355306	-1.5212789819	-0.058416
C	-3.7477465908	-0.4641243841	-1.0916429437	-0.229484
C	-2.457421988	 0.3249431152	-0.824975326	-0.25732
H	-0.1197885777	 1.3499922854	 1.2020436979	 0.283029
H	 0.2865321546	 0.0618343198	-1.2611376821	 0.108285
H	 0.70144416	-0.6732739561	 0.2955199376	 0.081727
H	-1.0086548399	-1.1617211939	 2.0510147767	 0.103474
H	-2.7845034469	-1.0027043676	 1.6533339094	 0.117888
H	-0.7344539156	-2.6167321329	-0.0137962858	 0.089436
H	-2.7637095819	-1.8623548626	-2.4222310346	 0.086176
H	-4.2946930833	-2.4688941052	-1.7557839743	 0.107112
H	-4.3363893507	 0.0323466095	-1.8706913689	 0.09911
H	-4.3770441188	-0.5134973829	-0.1951973102	 0.105846
H	-2.6659898969	 1.2676357601	-0.3090366663	 0.104144
H	-2.0143648098	 0.5993818887	-1.7918611843	 0.1005
91.024	130.6253	165.673	260.4751	310.235	337.0876	365.9484	387.912	421.2474	490.6741	522.457	644.5954	692.8734	796.0143	872.9809	887.7524	896.2012	934.8564	951.0583	964.6944	1007.3394	1028.7365	1050.7986	1063.66	1067.6854	1113.9769	1122.3836	1183.8114	1198.7106	1206.9474	1255.6281	1272.3004	1301.3225	1325.868	1359.8602	1373.1931	1393.4964	1402.2284	1419.4084	1423.5947	1471.4634	1484.3047	1496.0629	1504.6804	1508.6929	2966.7227	2969.9951	3017.7649	3037.3153	3058.6163	3069.1188	3082.4327	3089.1497	3113.9951	3121.844	3213.0154	3803.005
OCC12CC1OCCC2	OC[C@]12C[C@H]1OCCC2	
InChI=1S/C7H12O2/c8-5-7-2-1-3-9-6(7)4-7/h6,8H,1-5H2	InChI=1S/C7H12O2/c8-5-7-2-1-3-9-6(7)4-7/h6,8H,1-5H2/t6-,7+/m1/s1
