18
gdb 36552	8.34581	0.48398	0.47365	1.2798	90.58	-0.2341	0.0281	0.2622	2253.3905	0.146067	-364.72293	-364.713056	-364.712112	-364.759994	34.583	
C	-0.0296295351	-1.1675411372	 0.1113974182	-0.437033
C	 0.013862799	 0.0298976554	 0.2057100469	 0.292973
C	 0.1040740254	 1.4808109216	 0.2989065965	-0.338217
C	 1.387209101	 2.0342601303	-0.3785811165	-0.349361
C	 1.4848294755	 3.4851137563	-0.2882280669	 0.012722
C	 1.5307850748	 4.6867594179	-0.194243356	 0.140261
C	 1.6158405665	 6.1177621439	-0.113432897	-0.159079
C	 1.566539296	 6.7951375469	 1.217965154	-0.226447
N	 2.8227924861	 6.7620613666	 0.4644151747	-0.305984
H	-0.0836052696	-2.225300219	 0.0364583952	 0.197471
H	-0.7727863342	 1.9434980809	-0.1680777402	 0.143071
H	 0.0930778044	 1.791988902	 1.3497289699	 0.140638
H	 2.2630175313	 1.5677004824	 0.0873891309	 0.142266
H	 1.3973440702	 1.720052134	-1.4287434982	 0.144075
H	 1.2199379884	 6.6571780153	-0.9702507985	 0.116198
H	 1.1030030611	 7.7745712874	 1.2954837476	 0.125155
H	 1.458630217	 6.1627657966	 2.0941249318	 0.121805
H	 3.4283546623	 6.0367461286	 0.8416440977	 0.239484
19.1341	50.9533	67.0614	132.7044	161.8684	210.7026	310.8174	357.6174	423.2302	472.8637	532.9852	543.0871	622.0477	650.7627	728.3696	763.2381	813.1821	880.8417	960.0093	964.7097	993.5064	1006.9514	1032.4869	1086.604	1120.4664	1156.4746	1192.8713	1218.3477	1257.1743	1283.0826	1299.8954	1304.3446	1364.3521	1397.6828	1470.2452	1480.9397	1503.7197	2239.762	2358.392	3032.2126	3042.2982	3060.1848	3082.1135	3113.597	3137.2048	3204.086	3504.033	3506.7285
C#CCCC#CC1CN1	C#CCCC#C[C@H]1CN1	
InChI=1S/C8H9N/c1-2-3-4-5-6-8-7-9-8/h1,8-9H,3-4,7H2	InChI=1S/C8H9N/c1-2-3-4-5-6-8-7-9-8/h1,8-9H,3-4,7H2/t8-/m0/s1
