19
gdb 128288	3.548	1.09247	0.85306	2.7786	81.7	-0.1773	0.0474	0.2248	1370.7568	0.160473	-415.400472	-415.390726	-415.389781	-415.435201	35.012	
C	-0.2505853421	 1.3350569184	-0.0390571865	-0.320791
N	 0.2611623294	-0.0181064241	 0.080354435	-0.369091
C	 0.7872571374	-0.6331332354	-1.0478281653	 0.424576
N	 0.7370504927	-1.9567625386	-1.1684999718	-0.387688
N	 1.4134921994	-2.2186161881	-2.3315798527	 0.010252
C	 1.5647618125	-3.576877099	-2.7866967876	-0.33037
C	 1.8293785326	-1.0853158269	-2.9430680247	 0.390215
N	 2.575487631	-1.1337723408	-4.1283558331	-0.611372
C	 1.4499319087	-0.0214158375	-2.141632407	-0.402906
H	 0.5644310775	 2.0239066364	-0.2849633757	 0.128516
H	-1.0346127516	 1.4526699863	-0.8047513567	 0.106127
H	-0.6587932955	 1.6466661231	 0.9257363539	 0.120564
H	-0.3523398356	-0.6465863445	 0.5805788417	 0.235861
H	 0.6969803308	-3.920489312	-3.3650327646	 0.124539
H	 2.4606728577	-3.6474575271	-3.4085626102	 0.142708
H	 1.6764389618	-4.2232833666	-1.9145485717	 0.15235
H	 2.0823381052	-1.5798511141	-4.8939718202	 0.249056
H	 2.8565980518	-0.207016065	-4.4199596528	 0.252253
H	 1.6283580464	 1.0245468254	-2.3271519301	 0.085201
69.9041	111.6061	133.75	168.9074	196.7681	202.2619	233.3786	287.5772	365.1567	391.8721	534.9229	567.3665	635.0898	657.0356	692.6284	719.0814	740.5353	792.3153	829.2122	1002.9417	1044.491	1086.5384	1116.0815	1150.3133	1155.0328	1183.7539	1207.9052	1263.1802	1313.4715	1403.6329	1442.4939	1454.0353	1481.6494	1487.6621	1493.9831	1510.5003	1518.187	1544.4354	1582.4687	1612.423	1657.7702	2970.2927	3014.8176	3064.7815	3097.2214	3112.8214	3144.099	3265.7545	3520.0549	3587.334	3620.066
CNC1=NN(C)C(N)=C1	CNc1nn(C)c(N)c1	
InChI=1S/C5H10N4/c1-7-5-3-4(6)9(2)8-5/h3H,6H2,1-2H3,(H,7,8)	InChI=1S/C5H10N4/c1-7-5-3-4(6)9(2)8-5/h3H,6H2,1-2H3,(H,7,8)
