18
gdb 8113	3.07633	1.88626	1.46599	1.9597	67.73	-0.2357	0.0647	0.3004	916.0931	0.152422	-384.901452	-384.893111	-384.892167	-384.933476	31.874	
C	-0.2519637641	 1.5632153354	 0.0279528159	-0.411876
C	 0.0433775305	 0.0675927267	 0.0157141718	 0.053857
C	 1.1541104153	-0.5014377282	-0.9324347514	-0.31983
C	 1.7841391355	-1.2149603309	 0.2717516674	 0.318877
O	 2.2108769831	-2.5345078734	 0.2627846868	-0.456435
C	 2.1998724576	-0.2327883156	 1.3242999174	 0.026687
O	 2.652457055	 1.0700882291	 1.0660545792	-0.412876
C	 0.7441199773	-0.5884031659	 1.2191458545	-0.164429
H	 0.6567050614	 2.1437721496	 0.1942129011	 0.141029
H	-0.6995636315	 1.8755926191	-0.9226833527	 0.103875
H	-0.9642049327	 1.8106524285	 0.8233798826	 0.108275
H	-0.884374349	-0.4814832551	-0.17636497	 0.077273
H	 0.7645472035	-1.2018015459	-1.6735469089	 0.104986
H	 1.7893533874	 0.2387260434	-1.4289189912	 0.087147
H	 3.122807254	-2.5604784895	-0.048124367	 0.281608
H	 2.6806150622	-0.7163735591	 2.1768080414	 0.089346
H	 3.5431413048	 1.0118862222	 0.7044359001	 0.283179
H	 0.2295600199	-1.0291042804	 2.065751243	 0.089308
155.3669	194.2113	201.7436	221.606	270.8314	276.5315	294.5455	373.2101	401.7096	514.6479	566.5248	655.8843	703.6012	801.379	849.9573	891.4235	901.2051	968.2162	994.1482	1018.3853	1074.4215	1091.902	1111.2343	1146.903	1184.0039	1224.8772	1233.5848	1254.7569	1288.7205	1305.3553	1323.3473	1348.4008	1373.2907	1406.3504	1463.1285	1491.2756	1498.038	1507.8462	3028.7997	3043.7024	3051.2299	3085.1823	3091.2252	3117.668	3141.8754	3173.9129	3786.3547	3803.1618
CC1CC2(O)C(O)C12	C[C@H]1C[C@@]2(O)[C@@H](O)[C@@H]12	
InChI=1S/C6H10O2/c1-3-2-6(8)4(3)5(6)7/h3-5,7-8H,2H2,1H3	InChI=1S/C6H10O2/c1-3-2-6(8)4(3)5(6)7/h3-5,7-8H,2H2,1H3/t3-,4+,5-,6-/m0/s1
