20
gdb 109608	1.92417	1.34454	1.00434	3.9174	81.13	-0.2693	0.0153	0.2846	1300.2494	0.168763	-403.154443	-403.144114	-403.14317	-403.189786	37.267	
C	-0.2529147027	 1.5118765591	-0.2039139748	-0.379848
C	 0.1769810546	 0.0683023282	 0.0825553542	-0.200987
C	 0.8241532616	-0.5846500105	-1.1231072038	-0.055421
C	 0.9128168168	-2.07893069	-1.3307144795	-0.103704
C	 0.3502146569	-3.088895418	-0.3547964072	-0.425489
C	-0.037673072	-1.2394933004	-2.189801529	 0.224294
O	-1.4089713129	-1.2733817843	-1.9197307348	-0.448407
C	 0.2921113384	-1.038810957	-3.5834363172	 0.247651
N	 0.5493318929	-0.9034063986	-4.703633722	-0.347958
H	 0.5967853949	 2.123123982	-0.5269308199	 0.116317
H	-1.007875335	 1.5413402203	-0.9951190043	 0.136256
H	-0.6791844496	 1.9779617577	 0.6894179782	 0.113959
H	 0.8968867737	 0.0503895348	 0.9105586926	 0.101542
H	-0.6899645043	-0.5118415264	 0.4061611698	 0.117006
H	 1.6641053016	-0.0228026262	-1.5238839814	 0.108077
H	 1.8064164675	-2.4112019732	-1.8517576418	 0.108373
H	-0.6404751287	-2.8020899464	 0.0021181939	 0.13535
H	 0.2661869614	-4.0734124567	-0.8268378643	 0.124304
H	 1.0074387606	-3.1946640116	 0.5143302111	 0.130168
H	-1.7822449756	-2.0613142128	-2.3318366	 0.298515
65.0581	100.6291	137.9742	153.1219	186.9058	195.1001	236.9143	292.8862	308.0623	322.4141	438.3748	469.3233	546.4783	576.9556	597.306	698.5115	772.8391	796.5248	841.6703	956.7307	984.0324	1025.3246	1053.1963	1066.6814	1069.9552	1126.2502	1140.9762	1189.0371	1237.1377	1260.5282	1300.203	1330.5553	1357.8009	1389.5879	1410.1314	1416.3767	1448.4156	1480.8073	1497.186	1498.6926	1504.7744	1507.5983	2342.0264	3030.745	3036.2848	3041.1362	3093.5703	3097.7782	3111.0583	3117.6441	3132.4664	3140.6445	3154.345	3791.6083
CCC1C(C)C1(O)C#N	CC[C@H]1[C@@H](C)[C@]1(O)C#N	
InChI=1S/C7H11NO/c1-3-6-5(2)7(6,9)4-8/h5-6,9H,3H2,1-2H3	InChI=1S/C7H11NO/c1-3-6-5(2)7(6,9)4-8/h5-6,9H,3H2,1-2H3/t5-,6+,7-/m1/s1
