21
gdb 57609	3.40319	1.00005	0.95162	4.0285	83.07	-0.2434	0.0346	0.278	1328.3469	0.180623	-383.260441	-383.250488	-383.249544	-383.295288	37.057	
C	 0.3211425808	 1.5965844631	 0.4046353603	-0.441162
C	 0.0978010767	 0.1004293117	 0.1199607328	 0.25127
C	 0.70832629	-0.7484926758	 1.2434243839	-0.403896
C	-1.4264025902	-0.1909042055	-0.0037347233	-0.346739
C	-2.1965501464	 0.1615348783	 1.1850453466	 0.270172
N	-2.7935987997	 0.4444825316	 2.1336913674	-0.325588
N	 0.6513355802	-0.4146740994	-1.1479369597	-0.080668
C	 0.8063054433	 0.4291127062	-2.3259325846	-0.234768
C	 1.996116312	-0.0657454636	-1.5752666484	-0.231478
H	 1.3857882447	 1.8431615279	 0.4442368996	 0.121282
H	-0.1549247176	 2.2347308828	-0.345726227	 0.119939
H	-0.1109013762	 1.8578036632	 1.3742421175	 0.147475
H	 0.2403198521	-0.5223748241	 2.2053105835	 0.137845
H	 0.5789633465	-1.8127868401	 1.0283641938	 0.125458
H	 1.7804231362	-0.5482284016	 1.3306030354	 0.117455
H	-1.831427865	 0.3618964691	-0.8589039145	 0.146681
H	-1.5621374329	-1.2550987308	-0.219106027	 0.157634
H	 0.5150397014	-0.0275439444	-3.2679542139	 0.119611
H	 0.5934813923	 1.4928362919	-2.2546692294	 0.114451
H	 2.5583210055	 0.6744811175	-1.0099244849	 0.114463
H	 2.5939612864	-0.8887909478	-1.957413018	 0.120563
60.3685	74.6045	134.195	216.6394	241.5771	253.8208	288.3701	320.3649	354.3029	384.7763	401.8292	435.451	488.4566	553.2424	709.2663	793.0023	823.6169	889.1588	915.489	940.25	956.3173	968.8732	993.0361	1026.3501	1044.3885	1110.1483	1121.7516	1142.8575	1168.8811	1177.6197	1187.5136	1244.3053	1287.577	1318.0099	1328.5453	1400.6123	1421.1405	1459.7145	1479.9858	1485.4344	1491.026	1507.1926	1512.0848	1523.5498	2357.6115	3041.9777	3045.3597	3050.5676	3096.2154	3100.545	3107.5127	3113.9626	3115.3839	3120.7696	3126.7943	3178.5034	3193.625
CC(C)(CC#N)N1CC1	CC(C)(CC#N)N1CC1	
InChI=1S/C7H12N2/c1-7(2,3-4-8)9-5-6-9/h3,5-6H2,1-2H3	InChI=1S/C7H12N2/c1-7(2,3-4-8)9-5-6-9/h3,5-6H2,1-2H3
