18
gdb 46667	2.82937	1.73148	1.30378	1.5394	75.84	-0.2156	-0.0272	0.1884	992.1435	0.149844	-401.866369	-401.859424	-401.85848	-401.897874	28.142	
O	-0.0306646989	-0.0169465784	 0.2123772441	-0.304739
C	-0.0041645606	 1.1766471936	 0.0760729398	 0.269115
C	-1.261922476	 2.1071261531	 0.0213598323	-0.308484
C	-0.7990495414	 3.5891079833	-0.193607668	-0.311207
C	 0.6136322863	 3.3914848394	-0.7647003233	 0.057588
N	 2.0034833726	 3.8863557976	-0.2163973672	-0.176767
C	 1.6264705958	 3.0930224287	 1.0442747714	-0.200248
C	 1.1482102772	 2.1379794163	-0.0908127344	 0.181126
C	 2.5073434591	 2.5161136802	-0.7404061395	-0.250362
H	-1.8692876	 1.7552512013	-0.8202290761	 0.141294
H	-1.8684243606	 1.9605868031	 0.9194051801	 0.135944
H	-1.4540519452	 4.1214022843	-0.8865893383	 0.111218
H	-0.8164778541	 4.1445453976	 0.7456805709	 0.123985
H	 0.6168476131	 3.4006826272	-1.8591121999	 0.08119
H	 2.4890110428	 2.7650053455	 1.6290440458	 0.11082
H	 0.8923517356	 3.5815291147	 1.6838959883	 0.111816
H	 2.5763101622	 2.4599849458	-1.8292124931	 0.113424
H	 3.4285255217	 2.1883888469	-0.2549647131	 0.114288
80.9717	162.841	296.3363	366.4734	461.5575	525.672	548.8399	588.9607	626.4572	637.6427	739.7959	791.4898	801.2175	850.3706	903.265	935.7166	951.5503	970.3461	1004.6032	1023.4969	1045.7318	1072.3473	1090.4446	1138.5431	1159.1185	1172.8664	1186.6147	1195.7757	1224.8533	1255.8268	1274.909	1288.9644	1308.9728	1396.6743	1447.0378	1492.253	1517.1499	1555.0136	1847.4252	3052.9829	3054.4446	3065.9058	3073.0172	3081.7712	3098.8535	3120.6583	3139.0718	3148.9648
O=C1CCC2N3CC12C3	O=C1CC[C@H]2N3C[C@@]12C3	
InChI=1S/C7H9NO/c9-6-2-1-5-7(6)3-8(5)4-7/h5H,1-4H2	InChI=1S/C7H9NO/c9-6-2-1-5-7(6)3-8(5)4-7/h5H,1-4H2/t5-/m1/s1
