22
gdb 103564	2.36001	1.18755	1.07896	3.8863	82.86	-0.2392	0.0389	0.2781	1295.7946	0.192382	-404.388923	-404.378593	-404.377649	-404.424101	38.298	
C	 0.1311214059	 1.6148884555	 0.1338307098	-0.397124
C	-0.0619857165	 0.1044549306	-0.047632166	-0.204679
C	 0.651165805	-0.4868316733	-1.2719447848	 0.342705
C	 0.1492651095	 0.1044682976	-2.5905813943	-0.442235
N	 2.1267871679	-0.4633979812	-1.1505566153	-0.368068
C	 2.3080021165	-1.8224281094	-1.1719648727	 0.444461
O	 3.2874229898	-2.5190876599	-1.1097382401	-0.375919
C	 0.7847465814	-2.06285945	-1.3005960415	-0.22085
C	 0.1357620517	-2.9438122686	-0.2422663394	-0.416275
H	 1.1942855634	 1.8739585475	 0.1901291237	 0.113093
H	-0.3132712276	 2.1919030391	-0.6822682013	 0.121315
H	-0.3352601822	 1.951404368	 1.0644072323	 0.120569
H	 0.3054938823	-0.4033011631	 0.8493990867	 0.102893
H	-1.1327765194	-0.1231147192	-0.1224849577	 0.099364
H	 0.3363729603	 1.181159566	-2.6493654349	 0.119248
H	 0.6522024548	-0.3680720215	-3.4392964534	 0.122065
H	-0.9294591334	-0.0519054057	-2.698848368	 0.121025
H	 2.7949263469	 0.2933234897	-1.182866627	 0.241881
H	 0.5464745373	-2.4465925457	-2.2980288655	 0.09592
H	 0.3922144056	-2.6323865751	 0.7735887036	 0.125892
H	-0.9550626155	-2.9479737865	-0.3347631853	 0.117228
H	 0.4875892761	-3.9724696847	-0.3654024589	 0.13749
54.1964	89.0169	162.8894	185.0431	215.0167	232.3247	238.9421	295.9074	336.3646	348.5128	366.9704	443.5867	492.9168	556.0925	632.5739	697.876	754.197	792.3962	832.8963	879.9391	917.7014	1004.5671	1009.4479	1034.1611	1068.8932	1073.503	1123.2152	1149.8685	1187.3915	1193.2934	1249.1326	1268.1155	1324.9571	1346.7446	1365.1196	1386.9348	1407.7373	1412.7701	1415.0316	1474.0841	1490.6204	1495.525	1497.0166	1501.5252	1505.2305	1512.5501	1886.1084	3029.6206	3035.2934	3037.3791	3041.1437	3058.2462	3077.9754	3102.6022	3102.9249	3107.8251	3110.151	3115.455	3119.0317	3599.4594
CCC1(C)NC(=O)C1C	CC[C@@]1(C)NC(=O)[C@H]1C	
InChI=1S/C7H13NO/c1-4-7(3)5(2)6(9)8-7/h5H,4H2,1-3H3,(H,8,9)	InChI=1S/C7H13NO/c1-4-7(3)5(2)6(9)8-7/h5H,4H2,1-3H3,(H,8,9)/t5-,7-/m1/s1
