18
gdb 34630	2.32778	1.67727	1.07584	4.3684	84.93	-0.2436	-0.0381	0.2055	1126.237	0.148981	-364.836587	-364.828535	-364.827591	-364.869452	30.742	
N	 0.11275747	-1.1235456625	-0.0134405348	-0.35216
C	 0.0286238771	 0.0315212653	 0.024160797	 0.20584
C	-0.0148905069	 1.4522082429	 0.0671207867	 0.173207
C	-1.1285060316	 2.1967160144	 0.1285636687	-0.177261
C	-0.8157336575	 3.6694889542	 0.1084960644	-0.263811
C	 0.7236396852	 3.7220900779	 0.3045104219	-0.302714
C	 1.220514285	 2.2980369889	 0.013274538	 0.262172
C	 2.5646834835	 1.7985427555	 0.4780585024	-0.323125
C	 2.3146724745	 2.0002126097	-0.9929682944	-0.311505
H	-2.135384392	 1.7981600078	 0.1504376784	 0.120485
H	-1.127791183	 4.1057759029	-0.8505687408	 0.123865
H	-1.3577337847	 4.221662546	 0.8836867871	 0.119387
H	 1.2016793737	 4.4678692129	-0.335244477	 0.109693
H	 0.9536851602	 3.9867199476	 1.3419505522	 0.11555
H	 3.2038067982	 2.5076571881	 0.9943203424	 0.116413
H	 2.6322027629	 0.7803887136	 0.8467285384	 0.135303
H	 2.2099818238	 1.1182615319	-1.6159127269	 0.131334
H	 2.7794215214	 2.8480150928	-1.4854715236	 0.117327
68.3139	133.5389	156.2734	250.105	303.533	325.0715	442.357	472.0554	552.9022	621.6411	657.9887	709.8737	780.6207	804.2409	856.7316	898.4027	905.4388	926.5374	946.3241	987.4162	1019.8557	1056.9545	1065.1988	1086.204	1113.2858	1177.7014	1193.5	1233.1944	1253.9708	1303.7655	1314.0865	1329.4089	1381.6193	1463.3092	1476.5536	1497.0444	1498.8683	1669.3434	2336.2688	3014.3836	3045.3518	3065.1321	3099.3018	3126.6611	3129.8264	3208.3322	3213.792	3222.8523
N#CC1=CCCC11CC1	N#CC1=CCCC21CC2	
InChI=1S/C8H9N/c9-6-7-2-1-3-8(7)4-5-8/h2H,1,3-5H2	InChI=1S/C8H9N/c9-6-7-2-1-3-8(7)4-5-8/h2H,1,3-5H2
