21
gdb 110992	2.57153	1.51924	1.1918	0.9564	83.98	-0.2233	0.0175	0.2408	1141.331	0.182054	-387.052779	-387.044081	-387.043137	-387.085844	33.899	
C	 0.2122273716	 1.3684313321	 0.1095887952	-0.243145
O	-0.2339452207	 0.0755897763	-0.2394413367	-0.259714
C	 0.5344305706	-0.5368141122	-1.2341582291	 0.15832
C	 1.8226372985	-1.340644361	-0.7674632388	-0.131002
C	 0.8170258925	-2.4255734903	-0.2656842938	-0.250198
C	 0.0314541929	-1.9957268472	-1.5577031047	 0.27013
C	-1.4305413659	-2.3038571669	-1.7745369333	-0.5174
C	 1.0658023479	-2.343598123	-2.6348643752	-0.131843
C	 2.225699858	-1.9177189929	-2.1208281129	-0.095392
H	 1.2200317368	 1.3521676687	 0.5491799698	 0.109713
H	 0.2274877461	 2.0384615326	-0.7636140368	 0.107661
H	-0.4880627189	 1.7652911823	 0.8483322974	 0.127479
H	 0.6786971863	 0.1351821144	-2.0931749221	 0.055771
H	 2.5882546504	-0.9046895503	-0.1264089233	 0.057859
H	 1.1774040885	-3.4563534364	-0.2233134543	 0.085425
H	 0.301831223	-2.1411853902	 0.6543327888	 0.104783
H	-2.0368437435	-1.8789068874	-0.9695803651	 0.129989
H	-1.7889088975	-1.8848497728	-2.7218825328	 0.11267
H	-1.6058659406	-3.3850708463	-1.8007188186	 0.115168
H	 0.8505259041	-2.7905246752	-3.5959832765	 0.096024
H	 3.21669901	-1.9171024845	-2.5528623872	 0.097701
84.7329	157.0928	177.2849	195.4215	255.1323	273.1181	349.2817	419.8136	465.434	540.0389	557.0768	634.0329	700.5314	718.5042	836.7572	853.562	899.2958	910.9004	923.0055	935.8584	962.1544	1022.1153	1034.1021	1062.8351	1091.8157	1110.6963	1143.6601	1172.4484	1182.5643	1206.8518	1213.0866	1228.8489	1235.3291	1252.8725	1282.7625	1352.4524	1374.2957	1410.2234	1478.6679	1486.73	1488.2235	1492.019	1496.4217	1508.6832	1619.675	2980.1885	2997.8377	3028.2449	3031.4087	3062.2361	3088.7655	3110.5647	3116.209	3120.085	3131.7486	3210.7398	3238.0504
COC1C2CC1(C)C=C2	CO[C@H]1[C@H]2C[C@]1(C)C=C2	
InChI=1S/C8H12O/c1-8-4-3-6(5-8)7(8)9-2/h3-4,6-7H,5H2,1-2H3	InChI=1S/C8H12O/c1-8-4-3-6(5-8)7(8)9-2/h3-4,6-7H,5H2,1-2H3/t6-,7+,8+/m1/s1
