21
gdb 114557	2.61361	1.55374	1.1989	0.862	78.83	-0.2457	0.0947	0.3404	1127.2765	0.182523	-424.209404	-424.200782	-424.199838	-424.242377	33.411	
C	-0.1698082686	 1.2896968582	 0.0814390646	-0.245249
O	 0.077693604	-0.10094285	-0.0189943797	-0.249545
C	 0.7032575694	-0.6411414206	 1.1016430723	 0.228418
O	-0.1322157443	-0.6012948563	 2.2717187514	-0.303253
C	-0.30761585	-2.0072961152	 2.5476433573	 0.097341
C	-0.5822050096	-2.6183393913	 1.1567920765	-0.266794
C	 0.9001814421	-2.1568871434	 0.9308277161	 0.253553
C	 1.7645042315	-2.623418403	-0.2145570735	-0.50619
C	 1.1347568358	-2.5517401353	 2.4285544443	-0.274143
H	 0.7633454644	 1.851350974	 0.2407304404	 0.10446
H	-0.6161843872	 1.6048150025	-0.8641587276	 0.124872
H	-0.8596956823	 1.5123964367	 0.9036015174	 0.130162
H	 1.6310651665	-0.0857446836	 1.31625429	 0.060271
H	-0.9480542223	-2.1340866226	 3.4185821206	 0.078648
H	-0.6749950391	-3.7061494443	 1.173885684	 0.094307
H	-1.3598370579	-2.1576797011	 0.5470733304	 0.112039
H	 1.3753060938	-2.2487972007	-1.1660145266	 0.135467
H	 2.7929833282	-2.2593920144	-0.1063595487	 0.115172
H	 1.8002915009	-3.7161681099	-0.2639324061	 0.11413
H	 1.911722456	-2.0279838664	 2.9921089401	 0.096897
H	 1.2147137088	-3.6325095832	 2.5634601167	 0.099436
102.3949	155.391	173.5691	208.8318	226.5297	279.5498	328.0475	421.893	485.7486	533.3617	545.7793	630.545	699.0308	823.2296	862.2888	875.3106	925.6939	938.4302	948.4563	970.1368	993.5851	1021.7381	1045.4527	1049.7576	1110.3964	1121.5996	1157.8637	1181.0554	1197.2276	1226.251	1229.297	1244.5982	1260.0946	1270.6463	1312.9296	1369.2371	1401.481	1411.812	1470.6485	1479.2467	1484.3737	1491.3411	1495.315	1508.5892	1514.0901	2968.1493	2990.5417	3030.3668	3059.1088	3065.4128	3077.8762	3093.7276	3111.4362	3124.557	3125.722	3139.591	3149.166
COC1OC2CC1(C)C2	CO[C@H]1O[C@H]2C[C@]1(C)C2	
InChI=1S/C7H12O2/c1-7-3-5(4-7)9-6(7)8-2/h5-6H,3-4H2,1-2H3	InChI=1S/C7H12O2/c1-7-3-5(4-7)9-6(7)8-2/h5-6H,3-4H2,1-2H3/t5-,6-,7+/m0/s1
