16
gdb 49099	1.95089	1.61586	0.90176	4.0254	81.29	-0.2687	-0.0956	0.1731	1227.0466	0.124847	-400.798597	-400.790313	-400.789369	-400.83197	29.694	
O	-0.021727538	-0.0487750238	-0.0150135626	-0.253255
C	-0.0017535396	 1.1609358564	 0.0334337198	 0.050373
C	 1.2476671908	 1.9369168981	 0.0489418603	 0.147869
C	 1.3308644142	 3.2846801508	 0.0670818268	 0.133957
C	 2.7696622406	 3.7631531448	 0.0343963702	-0.313459
C	 3.5673037116	 2.4725429085	 0.3491705397	-0.226223
C	 2.6145856669	 1.3019110308	 0.0025018364	-0.305231
C	 0.2322328281	 4.1858603633	 0.0717951019	 0.212193
N	-0.6356938529	 4.9537823789	 0.0786894832	-0.332409
H	-0.9355573511	 1.7582149574	 0.0711715678	 0.102983
H	 2.9976333515	 4.1637148015	-0.9622520684	 0.137461
H	 2.9539449456	 4.5740394921	 0.7450210594	 0.135591
H	 4.5121761824	 2.4251407769	-0.1955115129	 0.11672
H	 3.8047711169	 2.4465461247	 1.4167091419	 0.122192
H	 2.6941353005	 0.4539235037	 0.6876845837	 0.137816
H	 2.7969794624	 0.8994183159	-1.0025299073	 0.133421
113.9404	123.1614	130.6462	157.2554	214.0296	280.4339	427.7557	447.1229	509.6939	596.6064	608.4915	647.3529	751.1797	846.4987	886.2069	923.4701	993.196	1011.8251	1019.3434	1065.0478	1152.3721	1172.2469	1210.5796	1228.7713	1268.6656	1321.4773	1330.6916	1366.7644	1418.788	1477.7283	1478.771	1503.166	1659.7495	1779.7171	2331.2322	2928.9481	3026.9601	3030.7657	3061.9124	3086.1136	3094.8372	3118.0344
O=CC1=C(CCC1)C#N	O=CC1=C(CCC1)C#N	
InChI=1S/C7H7NO/c8-4-6-2-1-3-7(6)5-9/h5H,1-3H2	InChI=1S/C7H7NO/c8-4-6-2-1-3-7(6)5-9/h5H,1-3H2
