21
gdb 117862	3.65452	0.58094	0.51643	1.3938	102.8	-0.2384	-0.0071	0.2313	2147.9168	0.1794	-349.915607	-349.904619	-349.903675	-349.952343	39.431	
C	-0.0452552354	 1.6044454599	-0.0707560202	-0.385824
C	-0.0006583266	 0.075656598	 0.0132739604	-0.175227
C	-1.4002930543	-0.5457309891	 0.0790372323	-0.154949
C	-1.412951541	-2.0962443021	 0.0696217041	-0.218644
C	-0.7447682313	-2.7144464219	 1.3167043973	-0.385536
C	-2.7792604437	-2.5890289368	-0.0739235059	 0.417365
C	-3.9179127756	-2.9863017702	-0.1846294529	-0.255948
C	-5.1974868451	-3.4338329461	-0.3050748052	 0.293683
C	-6.3330256738	-3.8309018453	-0.4133840961	-0.56946
H	 0.9619853823	 2.0296544156	-0.1171752042	 0.113665
H	-0.5898471449	 1.9365621754	-0.9613582103	 0.11729
H	-0.5483713373	 2.0337572105	 0.8026358257	 0.117207
H	 0.532827589	-0.3240929925	-0.8596829187	 0.096432
H	 0.5852393341	-0.2191919385	 0.8915063905	 0.102138
H	-1.9238499168	-0.1957740199	 0.9779280546	 0.105401
H	-1.990057491	-0.1934570991	-0.7752612374	 0.108125
H	-0.8473824309	-2.4265609077	-0.8145795328	 0.109632
H	-1.2495357025	-2.38017416	 2.2283469134	 0.127129
H	-0.7965188453	-3.8054937446	 1.2816560243	 0.128938
H	 0.3073566054	-2.4246102826	 1.3764919716	 0.120994
H	-7.3311520854	-4.1798625731	-0.5063011403	 0.18759
59.7701	65.5012	87.8979	127.7537	180.8019	224.823	246.5081	252.3139	290.7626	324.831	370.9633	487.8686	495.5037	532.8626	543.4228	591.471	599.994	715.6765	745.6327	849.4335	874.8609	927.0962	1001.2417	1007.7584	1052.8525	1097.5439	1126.2486	1159.2645	1206.0997	1260.6167	1290.4956	1323.4269	1341.0846	1350.6932	1393.6441	1408.0864	1414.428	1481.266	1493.4008	1495.1588	1499.6163	1502.1842	1511.2795	2179.4582	2359.3956	2992.4772	3016.5259	3028.465	3032.6056	3044.6577	3050.99	3074.1164	3100.0695	3104.3225	3119.6248	3125.9679	3506.8628
CCCC(C)C#CC#C	CCC[C@@H](C)C#CC#C	
InChI=1S/C9H12/c1-4-6-8-9(3)7-5-2/h1,9H,5,7H2,2-3H3	InChI=1S/C9H12/c1-4-6-8-9(3)7-5-2/h1,9H,5,7H2,2-3H3/t9-/m1/s1
