23
gdb 114530	3.49051	1.10739	0.99931	1.5599	84.25	-0.2354	0.0746	0.31	1310.1901	0.20815	-388.290195	-388.281809	-388.280865	-388.323201	33.394	
C	-0.3414576562	 1.7693374671	 0.5405392633	-0.388206
C	-0.0414221526	 0.2771358375	 0.363647229	-0.192047
C	-1.2048824921	-0.5368404259	-0.2163944752	 0.082716
C	-1.6359172563	-0.0752703215	-1.6360875226	-0.237159
C	-2.3545276718	-1.225999094	-2.3546709421	 0.087418
C	-1.388389424	-2.3922181765	-2.6346939277	-0.23329
C	-1.7944977099	-2.7856484844	-1.2022386786	 0.089798
C	-0.921537264	-2.0630495036	-0.1677114533	-0.251283
O	-3.0459868842	-2.0503641917	-1.3669245547	-0.29592
H	 0.5071851135	 2.2904185472	 0.9945559249	 0.110794
H	-0.5534174692	 2.2571138324	-0.4162470146	 0.117825
H	-1.2110974251	 1.9222578627	 1.189627359	 0.114671
H	 0.8402566457	 0.1528265507	-0.2808474675	 0.088915
H	 0.2345367241	-0.1508087314	 1.336683779	 0.091703
H	-2.0788053007	-0.376853088	 0.4243719132	 0.086855
H	-2.2936381178	 0.7959072512	-1.554197544	 0.101681
H	-0.7711485186	 0.237782034	-2.2365446805	 0.092742
H	-3.0262349912	-0.8926841226	-3.1501211605	 0.072761
H	-1.77935539	-3.0847807342	-3.3820886566	 0.104023
H	-0.338708674	-2.1638065755	-2.8352151369	 0.090857
H	-1.9673425777	-3.8399589832	-0.9707248818	 0.073146
H	 0.1348715934	-2.2807869274	-0.3735116089	 0.092937
H	-1.1268404814	-2.4336138727	 0.8425843371	 0.099065
78.9013	114.1019	201.279	238.7316	301.9085	340.6871	404.2912	414.9879	443.9444	545.7272	612.5824	755.5144	791.132	832.1145	850.1559	879.9768	882.1113	935.3336	943.7205	953.8052	979.3936	992.127	1015.1244	1048.1238	1081.478	1097.5055	1121.4947	1130.9793	1152.6365	1174.4697	1229.2948	1250.2664	1262.3023	1291.6661	1306.6156	1319.1769	1333.9607	1337.9817	1354.9638	1373.7181	1387.095	1392.1642	1412.6842	1481.6257	1485.9788	1487.6059	1499.0447	1502.7222	1507.8974	3004.1657	3018.3426	3021.3894	3030.943	3031.975	3043.933	3060.7423	3063.9322	3073.3331	3075.8821	3081.0275	3097.8657	3104.4614	3128.1812
CCC1CC2CC(C1)O2	CC[C@H]1C[C@H]2C[C@@H](C1)O2	
InChI=1S/C8H14O/c1-2-6-3-7-5-8(4-6)9-7/h6-8H,2-5H2,1H3	InChI=1S/C8H14O/c1-2-6-3-7-5-8(4-6)9-7/h6-8H,2-5H2,1H3/t6-,7-,8+
