16
gdb 47207	2.68491	1.75611	1.14958	4.5645	72.97	-0.2448	-0.0076	0.2372	1031.8857	0.125746	-437.905394	-437.897857	-437.896913	-437.937709	28.717	
O	 0.0550309005	-0.0375686777	 0.1956134444	-0.371196
C	 0.031595178	 1.1715182034	 0.0704979599	 0.366134
N	-1.1332067479	 1.8651115641	-0.0861291155	-0.358994
C	-1.31942048	 3.2964332276	-0.2358059648	-0.208091
C	-0.0276518536	 4.0505297124	-0.2349349026	-0.090206
C	 1.1575832854	 3.4657712279	-0.0880842904	-0.106234
C	 1.2973931432	 2.0079288532	 0.0886574158	 0.269511
C	 2.4562038404	 1.4255379477	 0.7991672115	-0.214475
O	 2.3994810461	 1.4031133474	-0.6173023329	-0.26366
H	-1.9555891476	 1.278695751	-0.0798708281	 0.251324
H	-1.8592126167	 3.5057851514	-1.1726256346	 0.129379
H	-1.9656835396	 3.6763449386	 0.5713851443	 0.126792
H	-0.1081033149	 5.124948358	-0.3660246886	 0.108745
H	 2.0778607847	 4.041690105	-0.1100869133	 0.10715
H	 3.1968883263	 2.0958597698	 1.234733661	 0.111128
H	 2.3199419956	 0.4611336602	 1.2827709639	 0.142695
69.5544	125.9439	274.0885	292.1833	299.6691	405.0856	489.009	518.7902	551.1501	598.2568	649.6652	743.5152	752.0176	834.8145	886.7957	915.3582	933.7512	979.052	995.4965	1024.1491	1088.0749	1135.7625	1167.1724	1174.8823	1245.0473	1256.1986	1332.0153	1362.7377	1402.9162	1443.607	1486.5588	1501.0284	1522.8512	1736.1921	1795.6597	2976.3762	2988.8464	3083.8905	3170.0477	3189.2015	3191.4241	3607.3247
O=C1NCC=CC11CO1	O=C1NCC=C[C@]21CO2	
InChI=1S/C6H7NO2/c8-5-6(4-9-6)2-1-3-7-5/h1-2H,3-4H2,(H,7,8)	InChI=1S/C6H7NO2/c8-5-6(4-9-6)2-1-3-7-5/h1-2H,3-4H2,(H,7,8)/t6-/m1/s1
