17
gdb 67229	2.62141	1.9857	1.47815	2.2442	71.76	-0.234	-0.0059	0.2281	913.8564	0.137602	-421.808776	-421.801818	-421.800874	-421.839837	28.382	
O	 0.1150339384	 1.4227223734	 0.0993524631	-0.479515
C	 0.0470522826	 0.059324757	 0.0027721693	 0.315806
C	 0.3667404945	-0.7842432056	 1.2951129811	-0.076591
C	-1.1529900358	-0.8759008852	 1.5866083452	-0.248691
C	-1.2907879202	-0.8830518216	 0.0576021824	-0.101949
C	-0.3004527877	-1.9505421011	-0.5625272558	-0.172527
C	 0.646731671	-2.1607112823	 0.6458592611	-0.223226
C	 0.3685390334	-0.7390317736	-1.2350732073	 0.348376
O	 0.6666235098	-0.4196751192	-2.3545313327	-0.351726
H	 0.0554619751	 1.7812731683	-0.7956937546	 0.299961
H	 1.0733928653	-0.4004032661	 2.0294520465	 0.080762
H	-1.5177192787	-1.7321550569	 2.1624634796	 0.094518
H	-1.5471874772	 0.0526636285	 2.005491409	 0.118934
H	-2.1978056609	-0.6525085374	-0.4962826303	 0.090045
H	-0.6476186136	-2.8026652934	-1.1393601951	 0.089847
H	 1.6868555207	-2.3080165846	 0.3405193607	 0.110492
H	 0.3509154032	-2.9887209602	 1.2960627478	 0.105483
136.2939	205.2097	275.3044	361.4627	391.6773	433.6408	515.8728	555.7235	621.0401	654.8284	776.4281	793.0652	835.8226	870.274	909.2133	912.1984	931.9677	955.457	968.3285	1009.0971	1020.4627	1064.4079	1077.1067	1112.8095	1139.6072	1172.2774	1194.9616	1225.3371	1238.359	1261.234	1289.7944	1320.0955	1358.3723	1402.7454	1494.3668	1514.5345	1862.6538	3048.5543	3054.322	3100.2614	3116.0625	3131.0142	3148.4425	3168.1981	3771.6018
OC12C3CC1C(C3)C2=O	O[C@@]12[C@H]3C[C@@H]1[C@H](C3)C2=O	
InChI=1S/C7H8O2/c8-6-4-1-3-2-5(4)7(3,6)9/h3-5,9H,1-2H2	InChI=1S/C7H8O2/c8-6-4-1-3-2-5(4)7(3,6)9/h3-5,9H,1-2H2/t3-,4+,5-,7+/m1/s1
