17
gdb 24024	4.31709	1.04174	0.85276	0.4424	87.37	-0.2409	-0.002	0.2389	1313.8933	0.137065	-347.589789	-347.581839	-347.580895	-347.623503	30.415	
C	-0.3472110634	-0.9725294877	 0.9859854908	-0.439529
C	-0.1263191943	 0.0118791614	 0.3329246489	 0.301167
C	 0.1304688808	 1.2102693032	-0.4569616061	-0.462903
C	 1.5025070399	 1.8452332378	-0.2590856869	 0.307781
C	 2.265345413	 1.6211947795	 0.8867176596	-0.180922
C	 3.4971294714	 2.2517659974	 1.0503435446	-0.098394
C	 3.9816677337	 3.1132837176	 0.0704065544	-0.117407
C	 3.2263296837	 3.3398284619	-1.0784305061	-0.097123
C	 1.997082717	 2.7086239358	-1.2403196537	-0.181458
H	-0.5438652968	-1.8472857016	 1.5546510351	 0.196923
H	-0.0032324833	 0.9744301557	-1.5202691348	 0.141252
H	-0.6443709753	 1.9555341053	-0.2252726796	 0.148795
H	 1.893999022	 0.9435518918	 1.6474655166	 0.108557
H	 4.0797210791	 2.0650956821	 1.9467261231	 0.096074
H	 4.9421254753	 3.6014994653	 0.1974122495	 0.095096
H	 3.5963286519	 4.0048314205	-1.8520494249	 0.095263
H	 1.4148362452	 2.886437574	-2.1403631905	 0.086827
18.2961	124.563	203.5538	310.5918	326.7323	414.7945	422.5818	473.45	612.4697	614.346	630.4479	646.0978	715.223	750.2408	806.4501	868.9681	903.8593	956.8933	962.8017	971.9594	993.4889	1015.2451	1053.2403	1104.8376	1182.242	1202.8137	1206.9621	1228.211	1297.7832	1348.1207	1360.0249	1460.7944	1483.0736	1528.0838	1626.4686	1645.1383	2240.1092	3003.2322	3041.0851	3158.8483	3170.7003	3180.9939	3192.4913	3199.5029	3506.6165
C#CCC1=CC=CC=C1	C#CCc1ccccc1	
InChI=1S/C9H8/c1-2-6-9-7-4-3-5-8-9/h1,3-5,7-8H,6H2	InChI=1S/C9H8/c1-2-6-9-7-4-3-5-8-9/h1,3-5,7-8H,6H2
