14
gdb 25776	4.25128	1.09822	0.87748	2.7918	69.01	-0.2374	-0.0687	0.1688	1235.133	0.099935	-473.87232	-473.864178	-473.863233	-473.905614	29.225	
C	-0.1397272674	 1.4583470368	 0.0149971877	-0.485227
C	 0.0107403534	-0.0484137143	 0.0717068752	 0.302062
O	 1.081536486	-0.6091224824	 0.1204892111	-0.282822
C	-1.2463214198	-0.8395780665	 0.0651489191	 0.301924
N	-1.3861555274	-2.1377004493	 0.1068642578	-0.359514
C	-2.7373721168	-2.3418458138	 0.0772195749	 0.33249
O	-3.2783302847	-3.568684784	 0.1053936809	-0.424696
C	-3.3861440674	-1.1412861831	 0.0174918605	-0.142543
O	-2.4243945512	-0.1737126757	 0.0096613943	-0.159981
H	 0.8519750304	 1.9104309792	 0.0258470325	 0.14673
H	-0.6783071788	 1.7585752297	-0.8896691508	 0.148861
H	-0.7254152739	 1.8198819199	 0.8664111776	 0.148869
H	-2.5469270209	-4.19761385	 0.1485684827	 0.314117
H	-4.4133384517	-0.8284223166	-0.0214947533	 0.159728
66.5168	119.0192	156.8644	168.2342	338.5273	348.9878	393.2185	430.9484	514.778	559.1118	619.3922	675.5818	724.3208	730.4222	747.4973	933.466	992.7786	1040.3166	1041.7344	1123.4298	1146.9198	1203.1663	1265.7635	1344.7414	1384.2174	1412.0229	1461.6233	1470.771	1553.1488	1675.8267	1795.2696	3046.296	3108.8224	3161.9098	3310.88	3799.7615
CC(=O)C1=NC(O)=CO1	CC(=O)c1nc(O)co1	
InChI=1S/C5H5NO3/c1-3(7)5-6-4(8)2-9-5/h2,8H,1H3	InChI=1S/C5H5NO3/c1-3(7)5-6-4(8)2-9-5/h2,8H,1H3
