19
gdb 83549	3.23057	1.4819	1.29876	1.6978	74.91	-0.2399	0.077	0.317	1032.6054	0.160788	-422.981454	-422.974064	-422.97312	-423.012889	30.377	
O	 0.0989520202	 1.4698422975	 0.0705109324	-0.459056
C	 0.0307572313	 0.078034734	 0.0490225669	 0.189106
C	-1.3552588606	-0.6589736585	-0.1376415858	-0.227642
C	-1.8325993602	 0.0141144958	-1.4287252701	-0.097334
O	-0.5854199201	 0.0470992818	-2.1834589036	-0.30113
C	 0.3181022744	-0.6469575846	-1.289934245	-0.061859
C	-0.514780739	-1.7999721645	-0.740677617	 0.453479
C	-0.0405540216	-3.0607605149	-0.0966195972	-0.360689
C	-0.9023935774	-3.1040449306	-1.3482634096	-0.35883
H	-0.0502743111	 1.7596644962	-0.8397111577	 0.292445
H	 0.589847181	-0.3207022599	 0.8958936145	 0.096443
H	-2.0708499791	-0.7989302552	 0.6709708842	 0.074728
H	-2.5807708705	-0.5691679195	-1.9750854701	 0.107518
H	-2.2021109885	 1.0344102383	-1.2799180789	 0.102335
H	 1.2979169842	-0.7413860592	-1.7556103389	 0.08116
H	 1.0068655436	-3.3303275845	-0.1905001359	 0.117207
H	-0.4935383437	-3.3621042437	 0.8426959429	 0.116482
H	-1.9306840314	-3.4358507432	-1.2429671391	 0.115042
H	-0.4330927115	-3.3970606353	-2.2816754019	 0.120596
153.8946	220.3445	242.5158	254.4458	306.8192	448.8113	468.0858	509.8866	571.8289	682.7806	731.0121	777.1333	816.7019	823.4965	879.4149	905.5232	930.4723	946.4463	969.3839	978.4184	999.527	1035.2003	1051.7695	1065.9187	1081.3116	1107.7972	1127.7756	1175.8338	1182.8285	1195.3039	1213.984	1235.0645	1255.7248	1278.4183	1308.3911	1359.4794	1420.9566	1435.7994	1466.0298	1511.9893	1523.4698	3037.0822	3081.6652	3118.3006	3121.7047	3126.2065	3134.2012	3139.9889	3199.2636	3213.7246	3755.8507
OC1C2COC1C21CC1	O[C@H]1[C@H]2CO[C@@H]1C12CC1	
InChI=1S/C7H10O2/c8-5-4-3-9-6(5)7(4)1-2-7/h4-6,8H,1-3H2	InChI=1S/C7H10O2/c8-5-4-3-9-6(5)7(4)1-2-7/h4-6,8H,1-3H2/t4-,5+,6+/m1/s1
