13
gdb 21357	5.46592	2.17714	1.55698	2.6588	65.47	-0.2014	0.0129	0.2143	744.0731	0.100352	-357.670079	-357.664327	-357.663383	-357.69956	22.859	
N	-0.0212786577	 1.3893085142	 0.0101307638	-0.410994
C	 1.2857394314	 1.8341231658	 0.00002719	-0.046772
C	 2.1615306622	 0.7678175607	-0.0145602482	-0.323675
C	 1.3331951162	-0.3890908228	-0.0131093913	 0.391077
C	-0.0050093517	 0.0120541613	 0.0021256018	 0.249091
C	-0.7709532283	-1.17124791	 0.0027134696	-0.136469
N	 0.034090803	-2.233688682	-0.0111529708	-0.223492
N	 1.3033572196	-1.7505361505	-0.0206744565	-0.356549
H	-0.8316241409	 1.981264497	 0.0214559133	 0.263154
H	 1.4986987538	 2.8920054405	 0.0040223562	 0.122319
H	 3.2373791833	 0.8344469359	-0.0245984378	 0.100323
H	-1.840681626	-1.313313421	 0.0122262761	 0.105112
H	 2.0648380051	-2.4047353591	-0.0315297662	 0.266874
232.9326	312.9699	346.4615	405.5828	465.4562	609.3561	659.7613	693.3197	714.4395	753.6684	755.0778	804.8953	842.537	924.6477	978.5831	1079.7015	1094.6984	1112.8829	1186.9361	1250.1872	1295.4157	1361.6284	1395.7082	1413.3594	1491.9084	1516.4824	1566.9511	1619.7595	3250.0945	3251.6151	3268.9386	3694.7567	3698.5507
N1C=CC2=C1C=NN2	[nH]1ccc2c1cn[nH]2	
InChI=1S/C5H5N3/c1-2-6-5-3-7-8-4(1)5/h1-3,6H,(H,7,8)	InChI=1S/C5H5N3/c1-2-6-5-3-7-8-4(1)5/h1-3,6H,(H,7,8)
