18
gdb 13774	3.49945	1.46881	1.2207	4.5207	73.84	-0.2152	0.0292	0.2443	1039.9296	0.15339	-343.963754	-343.955155	-343.95421	-343.996985	31.378	
C	 1.0161224693	-0.2895088757	-1.0012944742	-0.352383
N	 0.0074144087	 0.0924840388	-0.0231564039	-0.059106
C	-0.1108002315	 1.541313597	 0.0831542108	-0.328395
C	-1.2724809412	-0.5434506485	-0.1329332158	 0.080419
C	-1.8011347167	-1.2858300311	-1.3313164208	-0.321582
C	-1.5050715896	-2.0523107919	-0.0386914986	-0.208086
C	-0.4359060761	-3.0056421333	 0.0101650134	 0.302889
N	 0.4155326013	-3.7885333395	 0.0624000858	-0.351485
H	 1.9729628905	 0.1508807743	-0.7066591134	 0.126743
H	 1.1481108489	-1.3721135469	-1.0238510562	 0.156787
H	 0.7832309212	 0.0615149991	-2.0232563385	 0.096078
H	-0.4678011915	 2.0237745394	-0.8452523345	 0.099896
H	-0.7984452012	 1.8041815838	 0.8924926212	 0.122178
H	 0.8689655276	 1.963536479	 0.3253366503	 0.125516
H	-2.0213204029	 0.0049581658	 0.4294009021	 0.107471
H	-2.8406255716	-1.1796813424	-1.6210171955	 0.126522
H	-1.12134914	-1.471193527	-2.1540848114	 0.1424
H	-2.360591495	-2.3491159408	 0.5592268994	 0.134137
50.096	131.6543	190.4328	227.1837	255.1415	279.5737	287.0462	394.8369	418.4824	485.9319	561.8896	655.7069	739.1865	749.1944	832.3077	911.7905	966.2795	1028.2154	1063.2964	1072.4959	1103.366	1118.7657	1122.7921	1153.6964	1180.2173	1219.9429	1242.9905	1336.4907	1374.5047	1425.4347	1447.514	1478.5457	1485.3162	1493.0966	1501.6253	1504.0151	1517.7693	2345.4411	2936.1363	2942.5362	3065.3582	3080.9468	3108.6557	3141.0886	3142.9668	3157.5649	3166.8258	3236.2311
CN(C)C1CC1C#N	CN(C)[C@H]1C[C@H]1C#N	
InChI=1S/C6H10N2/c1-8(2)6-3-5(6)4-7/h5-6H,3H2,1-2H3	InChI=1S/C6H10N2/c1-8(2)6-3-5(6)4-7/h5-6H,3H2,1-2H3/t5-,6-/m0/s1
