19
gdb 72557	2.36487	1.93052	1.48063	4.2728	73.68	-0.2569	0.019	0.2758	971.3653	0.161608	-423.093163	-423.085676	-423.084731	-423.124714	30.097	
C	-0.0290303574	 1.515728976	 0.0014191797	-0.480089
C	 0.0344507216	 0.0028127677	 0.0254602871	 0.145899
C	 0.7389973868	-0.67774583	-1.1958235666	-0.250833
C	 0.9307178075	-2.1525324111	-0.7286085815	-0.225339
C	 0.3185840227	-2.1102997637	 0.6829670122	 0.091315
C	 0.724366942	-0.72628923	 1.2011542401	-0.268139
O	-1.1193283778	-1.9658198786	 0.5112492465	-0.244105
C	-1.3351109018	-0.6807304214	 0.0933385496	 0.445384
O	-2.4191700411	-0.2521173929	-0.1764334065	-0.360408
H	 0.9722270636	 1.9483982803	-0.0915644901	 0.111868
H	-0.6343199243	 1.8585820337	-0.8426477369	 0.138309
H	-0.4890815819	 1.906783125	 0.9137983608	 0.126502
H	 0.144709004	-0.589507	-2.1083931025	 0.122304
H	 1.697764844	-0.1826850098	-1.3767725053	 0.106696
H	 0.4042441629	-2.8745092391	-1.3558908901	 0.121524
H	 1.9849861767	-2.4403032654	-0.6908759381	 0.107405
H	 0.4917336017	-2.9765981765	 1.3188886666	 0.090747
H	 1.8069266661	-0.5749422394	 1.2333142429	 0.105765
H	 0.2893627147	-0.4922806447	 2.1764679821	 0.115196
149.6646	193.7383	222.3356	267.4431	308.1286	405.3514	439.0481	516.1895	577.178	614.5671	726.7311	749.2908	813.3582	828.4621	860.4642	889.1487	907.3446	954.4406	962.03	971.9291	1023.7393	1037.9113	1089.1761	1093.1837	1153.4183	1185.9103	1189.1723	1227.1486	1264.825	1270.8458	1299.4939	1324.9682	1351.0051	1372.7576	1417.9469	1479.7294	1487.441	1491.3754	1495.0943	1510.4721	1885.2707	3039.3399	3055.2414	3060.1385	3069.4339	3102.0861	3108.3989	3115.4691	3116.2808	3123.772	3139.9456
CC12CCC(C1)OC2=O	C[C@@]12CC[C@@H](C1)OC2=O	
InChI=1S/C7H10O2/c1-7-3-2-5(4-7)9-6(7)8/h5H,2-4H2,1H3	InChI=1S/C7H10O2/c1-7-3-2-5(4-7)9-6(7)8/h5H,2-4H2,1H3/t5-,7+/m0/s1
