19
gdb 65898	2.7077	1.23422	1.11228	2.8216	82.3	-0.2566	-0.0548	0.2018	1195.7116	0.156769	-385.863047	-385.853519	-385.852575	-385.89787	35.034	
C	-0.1247946322	 1.5592273419	 0.1425866531	-0.465304
C	-0.0307504079	 0.0311621506	 0.0659502091	 0.236803
C	 1.052105569	-0.4640090104	-0.9596680883	-0.264707
C	 2.0026990622	-0.7520627224	 0.2343140191	-0.210864
C	 0.8039327864	-0.6095111193	 1.2102948802	-0.270592
C	-1.4029075233	-0.5803024069	-0.1491859427	 0.185148
O	-1.9274524253	-1.3507571811	 0.6264584464	-0.298151
C	-2.0675379329	-0.2060663149	-1.3927352037	 0.276121
C	-2.6058011156	 0.0992561483	-2.4256513733	-0.428905
H	 0.8739217487	 1.992980459	 0.2554416125	 0.121862
H	-0.5748637124	 1.9761231805	-0.7634046167	 0.130403
H	-0.7265204861	 1.8729549888	 1.0023598768	 0.127138
H	 0.7471813854	-1.3732653899	-1.4844996593	 0.111581
H	 1.3777668539	 0.2701641	-1.700472633	 0.104038
H	 2.5145207038	-1.7164249069	 0.224573885	 0.104574
H	 2.7532443773	 0.0308931478	 0.3680644541	 0.104869
H	 0.9538383626	 0.0096129751	 2.0979020562	 0.098238
H	 0.38069154	-1.5664344425	 1.5204196592	 0.124319
H	-3.0956588735	 0.3592405423	-3.3326142448	 0.213428
37.4128	96.0979	127.6081	178.3932	245.5431	262.5748	285.8913	318.4111	338.5504	473.6869	501.9717	642.5487	658.9507	701.6989	706.3165	760.9306	801.3908	840.0008	873.8891	927.8285	936.0638	947.7971	992.7152	1038.342	1079.2369	1159.2648	1189.7012	1215.0957	1235.985	1256.791	1273.8543	1278.0678	1311.0552	1405.0526	1477.9326	1484.1938	1492.3508	1499.2929	1507.1833	1759.1035	2206.6986	3031.2139	3058.5703	3065.1942	3072.9298	3100.5478	3103.6105	3110.4634	3118.7419	3133.7714	3493.2207
CC1(CCC1)C(=O)C#C	CC1(CCC1)C(=O)C#C	
InChI=1S/C8H10O/c1-3-7(9)8(2)5-4-6-8/h1H,4-6H2,2H3	InChI=1S/C8H10O/c1-3-7(9)8(2)5-4-6-8/h1H,4-6H2,2H3
