16
gdb 24561	2.09977	2.01129	1.10604	2.8036	89.86	-0.1936	-0.0428	0.1508	1066.4322	0.126577	-396.902768	-396.89514	-396.894196	-396.935249	28.894	
N	 0.2940802133	 1.2552012037	 0.5153127845	-0.335102
C	 1.0278341085	 2.3371324416	 0.0944638988	-0.0102
C	 1.2452161642	 2.9312502999	-1.1096656369	-0.015671
N	 0.8633506473	 2.7212288474	-2.3943062896	-0.226994
C	 0.9329342351	 1.6987401292	-3.168393284	-0.028382
C	 1.4247398829	 0.3421841955	-2.9578015198	-0.028379
N	 1.0959274163	-0.5745960694	-2.1205838733	-0.226995
C	 0.1552344857	-0.636353983	-1.1451299842	-0.015667
C	-0.1931103112	 0.1078595829	-0.061173543	-0.010209
H	 0.0527681191	 1.3192221306	 1.4913478115	 0.259424
H	 1.3881473664	 2.9092708725	 0.9434408299	 0.107831
H	 1.7406044072	 3.8958050106	-0.9998415847	 0.106299
H	 0.6730138952	 1.8962182993	-4.215236135	 0.104955
H	 2.13486339	 0.0253659652	-3.7309691876	 0.104959
H	-0.3636662264	-1.5946641688	-1.1599672177	 0.1063
H	-0.9235492437	-0.3660673871	 0.5867330111	 0.107831
82.3038	98.8268	230.9657	238.76	363.1939	376.1378	516.4571	541.7311	592.3045	643.6776	664.145	747.9039	762.9347	807.1342	809.175	870.1892	918.0987	927.6892	932.3051	932.3196	965.3014	1017.6347	1136.5365	1250.4221	1374.8545	1423.4327	1434.4171	1439.3481	1475.9187	1484.5395	1574.5975	1576.32	1659.6459	1670.4469	1716.942	3036.7846	3053.7337	3117.8319	3118.5319	3176.787	3177.6184	3622.9742
N1C=CN=CC=NC=C1	[nH]1ccnccncc1	
InChI=1S/C6H7N3/c1-2-8-5-6-9-4-3-7-1/h1-7H/b2-1-,4-3-,8-5-,9-6-	InChI=1S/C6H7N3/c1-2-8-5-6-9-4-3-7-1/h1-7H/b2-1-,4-3-,8-5-,9-6-
