23
gdb 114460	3.19926	1.20109	1.10107	0.2689	88.26	-0.2298	0.0788	0.3086	1246.9817	0.207125	-351.10292	-351.094574	-351.09363	-351.135781	33.714	
C	 0.3649696482	 1.6557194413	-0.1308538845	-0.374886
C	 0.338289971	 0.126416858	-0.2303363713	-0.203412
C	 0.7428599146	-0.5588897546	 1.0712714638	 0.046082
C	-0.1582475428	-0.4531531329	 2.3561363177	-0.284032
C	-0.0309112131	-1.9962853986	 2.5616344237	-0.010993
C	-1.1382189526	-2.9350420964	 2.0242885407	-0.05749
C	-1.8016791157	-2.3905447659	 0.7966660981	-0.287188
C	-0.4268269967	-2.9899236733	 0.6592863417	-0.059046
C	 0.7248373462	-2.1147774666	 1.2098197456	-0.056671
H	 1.3659036436	 2.018567188	 0.1292603097	 0.110786
H	 0.0768778663	 2.1229941465	-1.0778640622	 0.108774
H	-0.3252855746	 2.0147043315	 0.6403772041	 0.116609
H	-0.6575840126	-0.2026621205	-0.5447196017	 0.100532
H	 1.0240672233	-0.2004329199	-1.023783406	 0.091832
H	 1.7521255878	-0.214749414	 1.3304593726	 0.066549
H	 0.2742762449	 0.1469302061	 3.1602003342	 0.09355
H	-1.1776036169	-0.0953509564	 2.1849569297	 0.097938
H	 0.4364848017	-2.327268504	 3.4887966047	 0.064289
H	-1.5834523724	-3.7423901475	 2.5943399163	 0.080095
H	-2.5936399136	-3.0184596075	 0.398649608	 0.108518
H	-1.995155506	-1.3314696703	 0.6726101905	 0.107873
H	-0.2700748255	-3.8454446653	 0.0122007826	 0.080031
H	 1.690441405	-2.6208603477	 1.157477792	 0.060259
76.4627	139.6502	172.5016	230.572	291.9634	325.5636	404.6699	435.9814	553.1769	665.5341	709.7143	734.311	735.6041	775.2078	841.4315	861.2826	894.2003	909.3002	924.2834	946.6925	957.2575	986.5186	1009.8711	1023.1298	1048.3785	1063.3609	1081.2205	1088.6387	1106.9991	1134.2289	1142.8717	1184.475	1199.2628	1212.8644	1240.2179	1259.8299	1284.5877	1291.4954	1303.5639	1321.6682	1342.5374	1362.8317	1390.4827	1409.8791	1480.7434	1486.4685	1498.9344	1504.7141	1510.99	3013.2406	3020.2696	3028.1821	3055.7402	3067.8973	3086.6318	3096.6342	3099.5657	3100.205	3113.1331	3131.2538	3164.6556	3175.2108	3208.7677
CCC1CC2C3CC3C12	CC[C@H]1C[C@H]2[C@H]3C[C@H]3[C@@H]12	
InChI=1S/C9H14/c1-2-5-3-7-6-4-8(6)9(5)7/h5-9H,2-4H2,1H3	InChI=1S/C9H14/c1-2-5-3-7-6-4-8(6)9(5)7/h5-9H,2-4H2,1H3/t5-,6+,7-,8+,9-/m0/s1
