17
gdb 25494	4.09814	0.97622	0.8532	2.6404	83.42	-0.2415	-0.0297	0.2118	1333.9023	0.137151	-384.769254	-384.761309	-384.760365	-384.803747	29.123	
O	 0.1553460499	-0.2098881507	-0.2602895512	-0.23524
C	 0.077284709	 0.9884899395	-0.1951904191	 0.166553
C	 1.2654536396	 1.9278207065	-0.0435277769	-0.384163
C	 1.2977472437	 2.9370050496	-1.172233165	 0.29718
C	 1.7723681176	 2.5606347206	-2.433551398	-0.179964
C	 1.7777717381	 3.4669892375	-3.489062989	-0.089447
C	 1.3028304498	 4.7636566221	-3.3007278093	-0.117979
C	 0.8237048409	 5.1466916668	-2.0509581129	-0.088028
C	 0.8213692416	 4.2381237665	-0.9950726986	-0.198681
H	-0.9050025986	 1.5101242376	-0.2584295732	 0.080007
H	 1.1564188531	 2.446739102	 0.9173580676	 0.122817
H	 2.1741556625	 1.3209997854	-0.0080047237	 0.128553
H	 2.1407392146	 1.5503484758	-2.5848073897	 0.105185
H	 2.1540441623	 3.1608507566	-4.4596122213	 0.101131
H	 1.3082829206	 5.4710828959	-4.1230872737	 0.100164
H	 0.4551419687	 6.1551258459	-1.8942531502	 0.099491
H	 0.4533989367	 4.5455042423	-0.0205238958	 0.092421
20.7017	53.8242	142.0645	290.9163	323.3789	414.5989	443.3411	518.454	576.5293	630.8523	720.0012	766.4067	779.8504	852.177	867.7992	924.0339	957.6994	992.4035	1009.3131	1016.4763	1051.1979	1058.1904	1109.469	1182.988	1190.0729	1205.3292	1217.6233	1287.891	1341.2727	1351.6704	1420.728	1462.3511	1483.1801	1526.7372	1624.0743	1642.7844	1832.9457	2873.9239	3032.5739	3104.5447	3164.8768	3169.117	3179.4351	3188.3848	3199.9384
O=CCC1=CC=CC=C1	O=CCc1ccccc1	
InChI=1S/C8H8O/c9-7-6-8-4-2-1-3-5-8/h1-5,7H,6H2	InChI=1S/C8H8O/c9-7-6-8-4-2-1-3-5-8/h1-5,7H,6H2
