18
gdb 71162	2.66643	1.87511	1.47943	1.1213	74.71	-0.2243	0.0679	0.2922	948.2736	0.147256	-401.848856	-401.841362	-401.840418	-401.880366	30.257	
C	-0.0851559805	 1.5211447555	 0.0194470263	-0.529226
C	 0.0821386156	 0.0371312129	 0.0903739395	 0.302317
O	-1.1529148556	-0.724460056	-0.1228070953	-0.323873
C	-0.5595732375	-1.7537019617	 0.6721726769	 0.091361
C	 0.9172908058	-1.8851694801	 0.2660775505	-0.22465
C	 0.4483494825	-0.8847335499	 1.3290974259	-0.193913
C	 1.1040712191	-0.771919384	-0.7364165335	 0.399547
C	 1.4083601163	-0.7192541045	-2.1734769161	-0.314363
N	 2.4183189349	-0.3075940325	-1.1568991127	-0.383975
H	 0.8656142323	 2.0306932078	 0.2062513193	 0.125949
H	-0.4500044715	 1.8135841062	-0.9713320645	 0.136868
H	-0.8106318593	 1.8620293964	 0.7626183643	 0.1402
H	-1.1794633426	-2.5633511445	 1.0337494506	 0.110895
H	 1.5035628612	-2.7841800037	 0.3992219761	 0.099495
H	 0.7509830026	-0.6991738685	 2.3499104781	 0.104057
H	 1.6599744717	-1.6253608332	-2.7177289666	 0.120406
H	 0.9311167237	 0.0515341339	-2.7740941728	 0.111653
H	 2.4692878313	 0.7086879158	-1.118705376	 0.22725
155.4804	187.8043	210.4882	237.5996	317.1635	377.6229	480.8653	593.6943	612.0891	645.428	767.0857	776.7999	794.5157	806.6932	852.2537	887.2594	905.145	935.1076	941.6269	970.6535	993.0213	1016.1102	1028.5226	1054.841	1078.3731	1111.193	1123.9602	1141.3278	1170.7865	1238.2587	1245.9976	1259.7439	1345.0404	1361.5686	1418.8538	1438.0904	1477.7424	1489.8471	1520.0629	3036.5555	3103.9312	3105.4836	3119.6671	3188.8285	3203.9001	3209.6284	3222.9948	3478.1955
CC12OC3C(C13)C21CN1	C[C@]12O[C@H]3[C@H]([C@@H]13)[C@]12CN1	
InChI=1S/C7H9NO/c1-6-3-4(5(3)9-6)7(6)2-8-7/h3-5,8H,2H2,1H3	InChI=1S/C7H9NO/c1-6-3-4(5(3)9-6)7(6)2-8-7/h3-5,8H,2H2,1H3/t3-,4+,5-,6+,7+/m1/s1
