21
gdb 101371	3.36492	1.00646	0.89908	1.1591	78.35	-0.2366	0.0639	0.3005	1388.3543	0.181099	-424.180337	-424.170982	-424.170038	-424.214729	35.177	
C	-0.0395469113	 1.5936704404	-0.0824128061	-0.385411
C	-0.1304557061	 0.0764273509	-0.2613425726	-0.192882
C	 0.8467207498	-0.4624314159	-1.309416827	 0.105485
O	 2.2090189898	-0.189336238	-0.984568093	-0.432171
C	 0.6823917317	-1.963288171	-1.5245100275	 0.121098
O	-0.6624229301	-2.3691498028	-1.9174861052	-0.308749
C	-0.1232598334	-3.1239952224	-3.0100497308	 0.109475
C	 0.5365721724	-2.2237278744	-4.0014225658	-0.297791
C	 1.2855954607	-2.6462348481	-2.7512596916	-0.144591
H	 0.9820458193	 1.8949358937	 0.1656428309	 0.123402
H	-0.3230410899	 2.1148914032	-1.0033299445	 0.116302
H	-0.7042261263	 1.9392762317	 0.7147928974	 0.110393
H	 0.0711241284	-0.4282440504	 0.6960873845	 0.080397
H	-1.1429175045	-0.2209058699	-0.5553495532	 0.124037
H	 0.6768684535	 0.0561314343	-2.2600139806	 0.087114
H	 2.3713691646	-0.530219844	-0.0972856794	 0.278186
H	 0.9596708329	-2.4932035455	-0.5998163523	 0.067326
H	-0.5504310202	-4.0993234996	-3.2103152108	 0.103552
H	 0.8900868789	-2.7048136742	-4.9083110744	 0.115785
H	 0.1722008958	-1.2092042211	-4.1332712081	 0.117988
H	 2.2282849542	-3.173575747	-2.77995163	 0.101055
69.9307	92.9138	132.6997	181.5458	224.2763	255.4916	293.8871	358.9421	410.0676	435.0147	497.9545	560.6281	745.245	773.0938	783.5357	815.232	888.8223	948.8092	964.8378	982.4189	992.9098	997.3975	1039.5922	1045.4566	1049.7089	1074.9415	1084.2589	1090.8326	1127.7384	1160.3444	1199.2961	1242.8765	1253.7702	1273.1117	1297.5283	1330.1352	1358.3893	1381.3718	1403.567	1413.7978	1416.2384	1475.6096	1484.0189	1496.4127	1508.6662	2980.1481	2995.8564	3037.4168	3053.3298	3074.0771	3103.3341	3117.9331	3119.9887	3183.7742	3206.7824	3217.2397	3790.2553
CCC(O)C1OC2CC12	CC[C@@H](O)[C@H]1O[C@H]2C[C@@H]12	
InChI=1S/C7H12O2/c1-2-5(8)7-4-3-6(4)9-7/h4-8H,2-3H2,1H3	InChI=1S/C7H12O2/c1-2-5(8)7-4-3-6(4)9-7/h4-8H,2-3H2,1H3/t4-,5-,6+,7+/m1/s1
