20
gdb 101930	2.0288	1.35824	1.06022	2.8316	75.6	-0.238	-0.0217	0.2164	1248.5837	0.168536	-440.260639	-440.250404	-440.24946	-440.296703	35.793	
C	-0.7942908009	 0.7976654037	 0.3169053275	-0.244895
O	-0.0750313162	-0.3925453026	 0.0576607546	-0.249106
C	 0.7947707726	-0.3073346892	-1.0536279528	-0.008466
C	 1.8088181099	-1.4399214454	-0.9547076764	-0.011105
C	 2.3619062983	-1.8488011348	 0.3559535164	-0.24705
N	 1.4187847758	-2.7288861113	-0.3654285291	-0.321778
C	 0.0540560939	-0.4165115278	-2.4054443657	 0.355021
C	-1.1060576217	-1.3866578324	-2.481158437	-0.483769
O	 0.4468456725	 0.2184415239	-3.3557432323	-0.298945
H	-0.1154568892	 1.6378801868	 0.5201641885	 0.121277
H	-1.4481509542	 1.0766409266	-0.5219820514	 0.118109
H	-1.411065871	 0.6134784263	 1.1991855732	 0.135343
H	 1.3281939859	 0.6549392086	-1.0668205413	 0.09521
H	 2.4368769443	-1.5222302797	-1.8389411281	 0.110516
H	 3.3815210683	-2.2174758781	 0.4186977467	 0.119397
H	 1.9963709015	-1.3307595928	 1.2367993542	 0.121378
H	 0.5028123976	-2.6147260294	 0.0649507164	 0.242518
H	-0.7529668416	-2.3967763666	-2.2431111374	 0.161231
H	-1.8720113717	-1.1404393265	-1.7402505867	 0.144207
H	-1.5312913842	-1.3704390892	-3.4850473594	 0.140907
41.4983	93.686	107.9464	142.5671	156.5212	176.4533	197.1968	275.4832	331.8549	344.1522	467.5981	535.0761	581.0256	631.7856	780.9358	808.675	850.3798	940.0281	968.2233	988.9581	1015.3007	1021.233	1085.8433	1117.4472	1145.7989	1150.9315	1183.4532	1192.9688	1226.5655	1239.8125	1275.0471	1288.1188	1314.1626	1355.7962	1382.7129	1407.8749	1460.2295	1471.8586	1481.2867	1489.2303	1500.3797	1508.455	1815.1611	2989.2621	3001.3288	3043.215	3044.3239	3109.5789	3118.9352	3124.0844	3137.5979	3157.683	3210.3588	3492.7525
COC(C1CN1)C(C)=O	CO[C@@H]([C@H]1CN1)C(=O)C	
InChI=1S/C6H11NO2/c1-4(8)6(9-2)5-3-7-5/h5-7H,3H2,1-2H3	InChI=1S/C6H11NO2/c1-4(8)6(9-2)5-3-7-5/h5-7H,3H2,1-2H3/t5-,6-/m1/s1
