21
gdb 95519	2.5176	1.57822	1.27738	1.175	84.84	-0.2282	0.0234	0.2516	1098.6348	0.183365	-387.086081	-387.077735	-387.076791	-387.118496	33.4	
C	-0.0602188282	 1.5814548532	 0.0382415695	-0.407065
C	 0.0423456896	 0.051411727	 0.0320205875	 0.018932
O	 0.683207497	-0.4364657665	-1.1483039533	-0.268446
C	 2.0429881249	-0.0631282486	-1.2796646792	-0.129297
C	 2.8244362516	-0.1838066819	-0.0019021983	-0.094769
C	 2.2225658875	-0.405471305	 1.1657908156	-0.129898
C	 0.7466449374	-0.5070382392	 1.2648761406	 0.365177
C	 0.0795020571	-0.3646636591	 2.6154410194	-0.318555
C	 0.1600847198	-1.7186696629	 1.9691484874	-0.314826
H	 0.9157582588	 2.0518174796	 0.1878540516	 0.123786
H	-0.4755792231	 1.9290148872	-0.9121903883	 0.119287
H	-0.7178542169	 1.9176250183	 0.8448880405	 0.114654
H	-0.9695078866	-0.3650574919	-0.0260692103	 0.077869
H	 2.4587454584	-0.7320678114	-2.0434350233	 0.116186
H	 2.1363394108	 0.96169721	-1.682874281	 0.096494
H	 3.9037351844	-0.0822829862	-0.0733048569	 0.089412
H	 2.8006817838	-0.519365317	 2.0801454185	 0.084828
H	 0.7110505505	-0.1605736892	 3.47423973	 0.112025
H	-0.8877102871	 0.1261562153	 2.6524615999	 0.11276
H	-0.7469424817	-2.1464627064	 1.5544945912	 0.117355
H	 0.8496116921	-2.4474395953	 2.3809742788	 0.114091
103.1397	195.5937	225.7799	233.0356	266.0753	293.2533	378.9682	435.386	449.5333	537.9887	564.8707	676.8584	727.0697	778.2606	834.913	846.4459	905.8189	922.6588	944.596	948.5816	981.3373	988.7156	1027.0927	1046.105	1060.4377	1065.7515	1081.0375	1121.4683	1146.5055	1191.0207	1194.6695	1263.118	1280.8878	1337.0983	1359.6397	1364.2925	1399.3673	1406.6617	1433.9729	1469.9284	1487.0055	1489.5837	1501.1893	1507.6949	1716.5377	2937.7037	3040.415	3043.4433	3044.3086	3116.5006	3120.338	3124.1034	3130.933	3143.8817	3173.3089	3202.7809	3220.2349
CC1OCC=CC11CC1	C[C@H]1OCC=CC21CC2	
InChI=1S/C8H12O/c1-7-8(4-5-8)3-2-6-9-7/h2-3,7H,4-6H2,1H3	InChI=1S/C8H12O/c1-7-8(4-5-8)3-2-6-9-7/h2-3,7H,4-6H2,1H3/t7-/m1/s1
