15
gdb 44450	3.15792	1.85336	1.64617	4.4634	63.15	-0.2448	0.0035	0.2483	842.5235	0.115553	-457.785539	-457.779535	-457.778591	-457.815836	24.606	
O	-0.0202290814	 0.0031053386	-0.2904295007	-0.338725
C	 0.0100601857	 1.1614709796	 0.0087993298	 0.459901
O	-1.1282810175	 1.8309020596	 0.3527860912	-0.228322
C	-0.9816385548	 3.1997052783	 0.6777731179	 0.069953
C	 0.0192769532	 4.060025595	-0.0712300676	-0.155586
C	 1.0042680829	 3.2524538869	-0.8969458817	-0.248606
C	 1.2367472722	 2.0613272838	 0.0586090692	-0.099901
O	 1.2811472285	 2.6431314994	 1.3719813643	-0.248621
C	 0.2835071602	 3.6329390322	 1.361948902	 0.061502
H	-1.9382489073	 3.6176589202	 0.9632893044	 0.125405
H	-0.2410552528	 5.0732424377	-0.3495615701	 0.106743
H	 0.6150818586	 2.9273959131	-1.8656841826	 0.132949
H	 1.9310552524	 3.8108219054	-1.0565053371	 0.124178
H	 2.1434737356	 1.4824472448	-0.1034224045	 0.119237
H	 0.3083731744	 4.2753000255	 2.2322116056	 0.119895
146.2823	291.7995	365.8653	435.8061	516.3931	544.8971	660.4166	699.573	762.3707	775.3257	791.9095	813.3787	859.901	930.2508	945.1818	968.4849	1002.9181	1046.3121	1057.4863	1076.2697	1085.2133	1116.8947	1152.1131	1186.3122	1230.0178	1240.9739	1285.4151	1321.8601	1333.6695	1363.2548	1420.8806	1488.6696	1874.9676	3060.6471	3110.0741	3153.3938	3194.4935	3200.2461	3212.0912
O=C1OC2C3CC1OC23	O=C1O[C@@H]2[C@@H]3C[C@H]1O[C@H]23	
InChI=1S/C6H6O3/c7-6-3-1-2-4(8-3)5(2)9-6/h2-5H,1H2	InChI=1S/C6H6O3/c7-6-3-1-2-4(8-3)5(2)9-6/h2-5H,1H2/t2-,3-,4+,5-/m1/s1
