17
gdb 90757	2.42829	1.74565	1.45018	2.774	67.56	-0.2384	-0.0248	0.2136	960.8806	0.136065	-458.960743	-458.953034	-458.95209	-458.993341	29.544	
O	-0.6163475408	 1.2234708162	 0.8794366837	-0.421001
C	-0.0986011269	 0.1213673867	 0.1647763659	 0.069265
C	 0.5311246318	-0.9754364877	 1.0746729761	-0.269436
C	-0.8134474541	-1.7529103181	 1.018842559	-0.176698
C	-1.2712470394	-0.8740633758	-0.1581253046	 0.122646
O	-2.5945002049	-0.4305687958	 0.0583506091	-0.2554
C	-2.9102809879	-0.5200606872	 1.4385428577	-0.175286
C	-1.8144150089	-1.3596624535	 2.1075429418	 0.368923
O	-1.7583281696	-1.6406490714	 3.2750863427	-0.309562
H	 0.1215058386	 1.6865295883	 1.2896066288	 0.290023
H	 0.5064957268	 0.4452339604	-0.6918423644	 0.070656
H	 1.3423615974	-1.5199795907	 0.585242271	 0.111428
H	 0.8636149119	-0.6493916723	 2.0637211868	 0.114564
H	-0.7756482766	-2.8394487827	 0.9166886074	 0.10356
H	-1.2093429649	-1.297774833	-1.1620945317	 0.088369
H	-2.9382740872	 0.469537785	 1.9094171138	 0.140794
H	-3.8892047852	-0.9985556284	 1.561882757	 0.127156
48.835	169.9642	210.937	253.6527	301.9341	402.1262	440.4476	529.7717	555.6489	606.8194	679.8053	735.3565	790.9024	837.381	875.9089	933.4669	941.2966	964.9299	998.2712	1050.7221	1081.0419	1103.2819	1121.0082	1168.4663	1183.2127	1207.5453	1221.5359	1241.9849	1255.856	1300.0919	1309.3933	1328.1724	1371.1064	1406.9993	1472.2865	1474.5349	1852.2914	3013.7832	3030.7587	3060.7197	3071.976	3089.5291	3100.0243	3117.5663	3814.4716
OC1CC2C1OCC2=O	O[C@H]1C[C@@H]2[C@H]1OCC2=O	
InChI=1S/C6H8O3/c7-4-1-3-5(8)2-9-6(3)4/h3-4,6-7H,1-2H2	InChI=1S/C6H8O3/c7-4-1-3-5(8)2-9-6(3)4/h3-4,6-7H,1-2H2/t3-,4-,6+/m0/s1
