24
gdb 118494	2.54059	0.93462	0.74772	2.4672	86.09	-0.2371	0.0785	0.3156	1635.781	0.216187	-405.515366	-405.504466	-405.503522	-405.552219	38.792	
C	-0.1744747584	 1.8082918494	-1.3925678104	-0.381629
C	-0.1449114277	 0.384420196	-0.8305906042	-0.175642
C	 0.7905505951	-0.5442381792	-1.610072325	-0.157316
C	 0.8233377131	-1.9805739453	-1.073990196	 0.052119
O	-0.4813303734	-2.5459550347	-1.2022068459	-0.251944
C	-0.9930953614	-3.1435496522	-0.0292406091	-0.239166
C	 1.8366209704	-2.826582786	-1.8325914098	 0.024896
C	 1.6699206474	-4.2881306429	-2.0030568913	-0.254148
N	 1.483564185	-3.3770463575	-3.1496278802	-0.321601
H	 0.8205320506	 2.2666369109	-1.3670915095	 0.112741
H	-0.5131253014	 1.8148656359	-2.4345084124	 0.116628
H	-0.8509405512	 2.4496245062	-0.8189604762	 0.110727
H	 0.1662619174	 0.4135811278	 0.2227521727	 0.087337
H	-1.1542800797	-0.0412221445	-0.8443990814	 0.108871
H	 0.4892020835	-0.5771104935	-2.6648089063	 0.107054
H	 1.8134577016	-0.1460034862	-1.5926134994	 0.093152
H	 1.1093852078	-1.9552641691	-0.0108019107	 0.070342
H	-1.9709828018	-3.5618556672	-0.2822459545	 0.127745
H	-0.3483843901	-3.953490806	 0.3409388336	 0.109478
H	-1.1225335776	-2.4073978572	 0.7773367277	 0.111414
H	 2.8498814207	-2.4301278902	-1.7846601389	 0.085637
H	 2.5449944656	-4.9294534282	-2.0618703946	 0.112913
H	 0.7864130344	-4.7564842495	-1.581479929	 0.113523
H	 0.4805890202	-3.2479042967	-3.2779991989	 0.236868
52.0342	84.4838	89.0818	115.9158	136.8762	173.2538	238.8682	253.6381	268.6566	318.9824	348.9164	387.7235	554.1144	622.9091	745.3434	791.7454	836.5572	852.2167	904.5632	927.2868	958.7039	987.0552	1017.0268	1042.258	1067.8303	1110.8494	1123.0541	1145.4887	1150.1778	1161.3213	1181.8683	1193.8926	1227.2572	1264.4811	1283.0124	1283.3588	1312.455	1330.6535	1351.6089	1388.6583	1398.8195	1411.9705	1416.2545	1474.7855	1482.0539	1488.2343	1494.8885	1498.6038	1502.7602	1509.1046	1512.5861	2977.0048	2989.1107	3013.0504	3022.3021	3029.4789	3037.0164	3055.0327	3072.2821	3098.2067	3101.3178	3110.4251	3113.8611	3119.524	3203.9144	3478.3869
CCCC(OC)C1CN1	CCC[C@@H](OC)[C@H]1CN1	
InChI=1S/C7H15NO/c1-3-4-7(9-2)6-5-8-6/h6-8H,3-5H2,1-2H3	InChI=1S/C7H15NO/c1-3-4-7(9-2)6-5-8-6/h6-8H,3-5H2,1-2H3/t6-,7-/m1/s1
