16
gdb 42655	2.67722	1.99642	1.79079	2.3633	71.95	-0.2343	-0.0368	0.1975	843.2087	0.127771	-400.758444	-400.752322	-400.751378	-400.788673	25.686	
O	-0.0157372561	 0.0397556704	-0.0444499616	-0.329415
C	-0.0207115324	 1.2401071595	 0.0046191647	 0.460109
C	-1.2130231753	 2.1553616453	-0.0036597851	-0.177508
C	-1.027437443	 3.3510623124	 0.9010551595	-0.055282
C	 0.1311840059	 3.3591534268	 1.8302914653	-0.05121
C	 1.2604598144	 2.7771679676	 1.4143368708	-0.108483
C	 1.1954836564	 2.1950276207	 0.024008309	-0.218655
C	 0.6434573458	 3.3106631056	-0.9098180364	-0.166826
N	-0.7896633909	 3.4549310614	-0.5614111145	-0.120821
H	-2.1958176064	 1.7654760836	-0.2389274038	 0.113725
H	-1.9308778218	 3.8631468178	 1.2155993265	 0.105184
H	 0.0300685179	 3.8578996734	 2.7871732859	 0.103996
H	 2.1742482626	 2.744097853	 1.9950553685	 0.108554
H	 2.1083253927	 1.7074128779	-0.3110078692	 0.095117
H	 1.1577169491	 4.2658693442	-0.7836462893	 0.118104
H	 0.696304161	 3.0089961303	-1.9598338602	 0.123411
149.6576	338.6722	363.7247	445.2259	511.4855	522.2032	593.9148	669.9501	723.5097	756.3641	771.5802	790.5731	801.5959	876.2282	927.4621	947.0304	961.393	977.9091	998.287	1031.5989	1084.6602	1091.08	1133.3689	1173.3452	1191.0227	1220.6079	1242.3388	1277.5534	1305.5352	1320.6271	1375.0332	1397.052	1495.6399	1674.8587	1857.4818	3062.7155	3117.5552	3143.3551	3164.328	3190.9423	3194.9208	3212.4744
O=C1C2C3C=CC1CN23	O=C1[C@H]2[C@H]3C=C[C@@H]1CN23	
InChI=1S/C7H7NO/c9-7-4-1-2-5-6(7)8(5)3-4/h1-2,4-6H,3H2	InChI=1S/C7H7NO/c9-7-4-1-2-5-6(7)8(5)3-4/h1-2,4-6H,3H2/t4-,5-,6-,8?/m1/s1
