21
gdb 109511	1.8872	1.45169	1.05518	3.2922	84.7	-0.2434	0.0161	0.2596	1276.7184	0.180147	-383.269687	-383.259311	-383.258367	-383.304746	37.829	
C	 0.2408910355	 1.5726103671	 0.0429802773	-0.377798
C	-0.1988978137	 0.1153916634	-0.0720127146	-0.13124
N	 0.5583452035	-0.555170624	-1.1314582309	-0.119939
C	 1.8270157058	-1.2285088632	-0.8075268705	-0.221163
C	 2.2853455695	-1.321914532	 0.5557898304	 0.299324
N	 2.6598161409	-1.37627771	 1.6498513314	-0.351258
C	 0.604141107	-2.0077199412	-1.2469859233	 0.298889
C	-0.1156779107	-2.9052845218	-0.2570446769	-0.463814
C	 0.580670757	-2.5125443251	-2.6775269092	-0.437891
H	 1.2870772598	 1.6398809741	 0.3571252929	 0.130882
H	 0.1376711046	 2.0843015809	-0.9177267291	 0.126122
H	-0.3667071483	 2.0956366849	 0.7874039156	 0.117676
H	-0.1039009985	-0.3743186035	 0.9070186239	 0.111934
H	-1.2543815856	 0.0611023926	-0.3615285367	 0.108085
H	 2.631026214	-1.0566147876	-1.5194024445	 0.127497
H	 0.0247533392	-2.6001228896	 0.7803888573	 0.146703
H	-1.1894547071	-2.9166390524	-0.4737506942	 0.126586
H	 0.2513908397	-3.9317790866	-0.3529926795	 0.13159
H	 1.072135187	-3.4878828632	-2.7567758867	 0.122982
H	-0.4537801304	-2.627824092	-3.0197133679	 0.124817
H	 1.0799089106	-1.8072135807	-3.3455017647	 0.130016
68.9803	137.6517	139.4297	168.2063	185.7074	195.71	227.0251	264.649	318.507	355.0063	387.4158	421.6702	499.199	560.1162	627.6811	697.1623	745.8012	816.1034	856.1199	954.8563	957.5656	983.438	1018.0764	1037.5746	1074.3428	1110.1646	1138.2895	1171.5083	1181.3451	1271.4558	1309.1305	1328.8618	1379.0772	1396.6075	1408.118	1416.4267	1425.7524	1478.6304	1484.5938	1489.9249	1492.8113	1500.0828	1507.5735	1509.4221	2341.7362	3005.4683	3034.3465	3043.4418	3043.9256	3061.8859	3098.0002	3103.6505	3115.1079	3123.7665	3128.2268	3133.6749	3144.56
CCN1C(C#N)C1(C)C	CCN1[C@@H](C#N)C1(C)C	
InChI=1S/C7H12N2/c1-4-9-6(5-8)7(9,2)3/h6H,4H2,1-3H3	InChI=1S/C7H12N2/c1-4-9-6(5-8)7(9,2)3/h6H,4H2,1-3H3/t6-,9?/m0/s1
