17
gdb 83355	2.2174	2.09171	1.62025	2.4476	67.28	-0.2464	-0.0017	0.2447	898.4276	0.136679	-458.947026	-458.939597	-458.938652	-458.978275	30.329	
O	 0.0699916366	 1.3670329602	-0.0941371163	-0.447219
C	-0.002029913	-0.0254396956	-0.0297246093	 0.138843
C	 0.3335728136	-0.6296421128	 1.3476784277	-0.007938
O	-0.7107097542	 0.0072679507	 2.1652719237	-0.294042
C	-1.905394174	-0.0317248039	 1.3728183394	-0.150318
C	-1.441260631	-0.656569333	 0.017770155	 0.311175
O	-2.2386551983	-0.3800476874	-1.094856014	-0.494373
C	-1.0782915558	-2.0943529589	 0.3188237187	-0.157559
C	-0.0132478338	-2.0800556951	 1.1312567906	-0.076389
H	-0.1453888556	 1.7000485647	 0.7865610918	 0.293155
H	 0.5797848121	-0.4398112693	-0.853841369	 0.100291
H	 1.2923549302	-0.3837797877	 1.7996566315	 0.084421
H	-2.6774019778	-0.6273198002	 1.8736714568	 0.096663
H	-2.2804313703	 0.9852311184	 1.2044513915	 0.1071
H	-3.1119832895	-0.760041108	-0.9527034176	 0.282839
H	-1.6455003833	-2.9503917727	-0.0277888206	 0.102896
H	 0.4757473042	-2.9200821893	 1.6065871301	 0.110455
187.2309	228.9413	246.7941	286.632	352.868	401.2517	419.3553	481.9437	537.5146	583.2197	647.9146	685.1603	739.6317	779.9117	819.5727	854.8761	926.9601	943.8518	970.2614	979.982	1012.759	1056.5189	1068.2387	1131.2784	1138.4945	1184.8171	1217.8266	1239.9126	1264.4465	1291.529	1308.2514	1325.6817	1354.4762	1391.7407	1430.8786	1520.3953	1632.6248	3018.5348	3065.3116	3120.0685	3146.6518	3193.8115	3224.1768	3773.9144	3808.9295
OC1C2OCC1(O)C=C2	O[C@H]1[C@H]2OC[C@]1(O)C=C2	
InChI=1S/C6H8O3/c7-5-4-1-2-6(5,8)3-9-4/h1-2,4-5,7-8H,3H2	InChI=1S/C6H8O3/c7-5-4-1-2-6(5,8)3-9-4/h1-2,4-5,7-8H,3H2/t4-,5-,6+/m0/s1
