15
gdb 67228	2.69594	1.99561	1.47677	0.9099	64.	-0.2366	-0.0239	0.2128	879.0544	0.113081	-457.72421	-457.717405	-457.716461	-457.755227	27.168	
O	 0.1116361268	 1.4334776273	 0.0727463776	-0.471847
C	 0.0254064175	 0.0732104009	-0.0141696959	 0.292999
C	 0.3006325152	-0.7947773971	 1.2738157089	 0.015652
C	 0.6549935731	-2.1575825827	 0.6371979581	-0.221899
C	-0.2878156308	-1.9541506183	-0.5785418938	-0.223681
C	-1.2589524322	-0.8782546298	 0.1103329992	 0.017055
O	-1.1216082758	-0.9637413285	 1.5256836422	-0.280702
C	 0.3812056391	-0.742795714	-1.2389214203	 0.355478
O	 0.7466658267	-0.4324702289	-2.3392201961	-0.342036
H	 0.1568276912	 1.7806294604	-0.8277932358	 0.302842
H	 0.8617256972	-0.4051381414	 2.1211894937	 0.102353
H	 1.7032737331	-2.272069162	 0.3500749789	 0.118173
H	 0.3559981123	-2.9754322783	 1.2950462928	 0.12428
H	-0.6475554413	-2.8047704278	-1.1477705917	 0.100115
H	-2.2567977921	-0.6986792	-0.2806707075	 0.111215
142.9058	189.5398	283.8547	348.943	401.4341	443.7639	554.8324	582.6781	646.9771	654.9058	779.0777	794.4883	853.3789	887.6154	912.5294	921.8769	933.2297	971.2553	1004.9848	1031.7427	1037.5888	1083.8344	1138.3249	1155.9429	1193.8811	1222.695	1238.6654	1293.5776	1319.2202	1360.0807	1421.2133	1486.9337	1877.256	3071.5002	3130.9361	3147.1462	3165.3271	3183.1527	3769.5632
OC12C3CC(C1O3)C2=O	O[C@@]12[C@@H]3C[C@@H]([C@H]1O3)C2=O	
InChI=1S/C6H6O3/c7-4-2-1-3-6(4,8)5(2)9-3/h2-3,5,8H,1H2	InChI=1S/C6H6O3/c7-4-2-1-3-6(4,8)5(2)9-3/h2-3,5,8H,1H2/t2-,3+,5-,6-/m1/s1
