20
gdb 16250	2.77765	2.19281	1.44235	1.4957	74.3	-0.2513	0.0717	0.323	929.7545	0.178341	-349.00454	-348.996557	-348.995613	-349.037436	30.781	
O	 0.1764909325	 1.0906677867	-0.6589600039	-0.440575
C	 0.0574822458	-0.1991167013	-0.0850132471	 0.056675
C	 0.4916445599	-0.311100778	 1.3845917306	-0.235637
C	-0.1637122594	-1.6266931399	 1.8508952165	-0.21111
C	-1.465427309	-1.7671595896	 1.0008543289	-0.294895
C	-1.4001130522	-0.6405030766	-0.0331747451	 0.390607
C	-2.4894387752	 0.4006879054	-0.1190335634	-0.302307
C	-2.2838142589	-0.5873968625	-1.2441345519	-0.337177
H	 1.1120783753	 1.2902375576	-0.7543761821	 0.283949
H	 0.6280056322	-0.9298490758	-0.6856938551	 0.0599
H	 1.5783261889	-0.3011854617	 1.5184804063	 0.08062
H	 0.0779355925	 0.5483929682	 1.9243002492	 0.106804
H	 0.5058672696	-2.4704057273	 1.6551326065	 0.099664
H	-0.3640765853	-1.6291464182	 2.925107791	 0.100302
H	-1.5041767469	-2.7494766403	 0.5174165161	 0.098144
H	-2.3655592304	-1.6861161477	 1.6173915244	 0.10024
H	-3.356611113	 0.2736058044	 0.5214749944	 0.099073
H	-2.1942582389	 1.4276882544	-0.2950654106	 0.129509
H	-1.8529035958	-0.207232302	-2.1648039491	 0.113846
H	-3.0158339017	-1.3775523957	-1.3798626455	 0.102367
27.5484	157.4738	226.6689	250.3397	275.1441	346.3877	391.0047	510.2002	550.5926	581.6143	723.8953	783.6898	789.217	848.676	889.7252	919.6442	929.0673	952.4621	982.1482	1012.8192	1029.692	1059.2674	1083.9978	1095.5936	1119.5612	1176.2734	1195.3066	1198.8713	1227.0801	1248.3252	1271.0324	1295.9811	1317.0623	1337.5328	1348.1782	1386.6933	1438.1628	1458.3345	1489.4231	1492.7144	1502.0682	1513.5576	2936.7542	3036.1579	3038.862	3052.2429	3073.2336	3083.8321	3102.6988	3121.5637	3133.6084	3205.2161	3230.7667	3834.6359
OC1CCCC11CC1	O[C@H]1CCCC21CC2	
InChI=1S/C7H12O/c8-6-2-1-3-7(6)4-5-7/h6,8H,1-5H2	InChI=1S/C7H12O/c8-6-2-1-3-7(6)4-5-7/h6,8H,1-5H2/t6-/m0/s1
