16
gdb 44185	5.09013	1.0309	0.93277	1.5231	76.	-0.2451	-0.0369	0.2081	1217.8396	0.122911	-400.677933	-400.669981	-400.669037	-400.710958	30.066	
O	 0.19438289	 0.0710064764	-0.7355772316	-0.278939
C	 0.0497657401	 1.1463882736	-0.239099422	 0.386707
C	-1.1465912398	 1.9730857866	 0.2806235474	-0.306452
N	-0.2088931859	 3.059044376	 0.7046571183	-0.132488
C	 0.3285581618	 2.8303204894	 2.1033745667	-0.160818
C	 1.6583331984	 2.2431006565	 1.5287345486	-0.271013
C	 0.9868394403	 2.3095655128	 0.1414299212	-0.102309
C	 0.4314029919	 4.0258913431	 2.9177331844	 0.315559
C	 0.5413753049	 5.006665338	 3.6037301402	-0.406411
H	-1.8183657776	 2.3014697922	-0.5205434963	 0.14255
H	-1.7492337423	 1.5225205238	 1.0768620979	 0.13385
H	-0.2577062654	 2.0752950627	 2.6431534758	 0.105001
H	 2.4994133695	 2.9295930931	 1.6257581915	 0.133881
H	 1.9516511232	 1.2570300865	 1.8915548398	 0.128888
H	 1.5463189805	 2.7598424953	-0.6827485227	 0.111528
H	 0.6293328303	 5.8772872839	 4.2055400407	 0.200467
48.5398	115.1555	171.1424	236.0806	362.4318	407.2823	463.5783	497.2325	517.2992	621.9134	645.8857	659.0267	705.2099	797.3165	826.4098	880.0253	903.1338	954.2135	974.8207	1022.094	1040.5616	1080.4087	1097.3449	1120.4941	1173.4106	1193.5671	1243.503	1247.451	1258.2155	1291.2959	1362.7114	1452.4536	1483.0816	1903.5363	2238.5894	3014.2689	3037.1286	3077.9158	3087.6126	3088.4973	3147.5663	3503.2343
O=C1CN2C(CC12)C#C	O=C1CN2[C@@H](C[C@@H]12)C#C	
InChI=1S/C7H7NO/c1-2-5-3-6-7(9)4-8(5)6/h1,5-6H,3-4H2	InChI=1S/C7H7NO/c1-2-5-3-6-7(9)4-8(5)6/h1,5-6H,3-4H2/t5-,6+/m1/s1
