23
gdb 109781	2.54354	1.12254	1.03641	1.552	85.9	-0.2558	0.0783	0.3341	1338.6838	0.204705	-388.257749	-388.247727	-388.246782	-388.292867	37.053	
C	-1.5015868744	 2.1575528461	-1.7615111818	-0.37628
C	-0.8998892651	 1.2161653401	-0.7107511955	-0.203757
C	-1.8557258432	 0.1061598661	-0.3138330696	-0.025463
C	-1.9627053173	-1.2020373216	-1.0764314826	-0.02975
C	-1.1868957166	-1.5035592683	-2.3439376751	-0.420516
C	-1.3774997047	-1.1866515951	 0.3228885819	-0.088411
C	 0.0536057513	-1.4296139388	 0.691932684	 0.069603
C	 0.821543242	-2.6041253247	 0.2488140907	-0.182382
O	 1.0870985111	-1.305989849	-0.2891577882	-0.227163
H	-0.8105826735	 2.9701058511	-2.0074532278	 0.109075
H	-1.7325041257	 1.6206609409	-2.6872170285	 0.118766
H	-2.4328268082	 2.6097714919	-1.4017117512	 0.109386
H	 0.0408308092	 0.7987433111	-1.0786300678	 0.126933
H	-0.640242901	 1.795538088	 0.1854802158	 0.091567
H	-2.7988484282	 0.4846739998	 0.0773299346	 0.07537
H	-2.9712473565	-1.6098181137	-1.106035564	 0.079658
H	-0.1706109316	-1.1128121699	-2.31655636	 0.14818
H	-1.1186594504	-2.5855302202	-2.5066993842	 0.107648
H	-1.703175438	-1.0803998653	-3.2130338916	 0.11015
H	-2.0314775875	-1.5849910432	 1.097462721	 0.084446
H	 0.3349275863	-1.0019629186	 1.6573740289	 0.092726
H	 1.6083023567	-3.0130291698	 0.8810930154	 0.113682
H	 0.3624727151	-3.3074814971	-0.4432742142	 0.116533
73.8889	85.4277	111.0701	161.8687	205.6822	222.1046	249.1242	272.702	311.0539	345.9937	505.4543	558.9148	651.0831	717.5021	759.9401	766.4552	818.8216	862.4638	897.6253	954.5604	956.9973	998.5735	1028.7868	1058.321	1071.0583	1094.3479	1102.1231	1131.282	1144.2972	1160.4764	1164.9235	1177.8823	1198.7449	1263.9796	1291.7007	1303.6699	1341.3777	1379.0281	1403.127	1411.5134	1420.5155	1435.8654	1458.6838	1487.7916	1496.1509	1499.1811	1506.4046	1517.2098	1524.12	3019.1393	3029.8514	3030.8008	3074.3579	3077.2604	3084.7792	3087.984	3100.1611	3105.0364	3107.9164	3112.9164	3126.1113	3161.2097	3177.5032
CCC1C(C)C1C1CO1	CC[C@H]1[C@@H](C)[C@H]1[C@H]1CO1	
InChI=1S/C8H14O/c1-3-6-5(2)8(6)7-4-9-7/h5-8H,3-4H2,1-2H3	InChI=1S/C8H14O/c1-3-6-5(2)8(6)7-4-9-7/h5-8H,3-4H2,1-2H3/t5-,6+,7-,8-/m1/s1
