20
gdb 40209	3.00698	1.42589	1.08474	0.9415	91.	-0.2089	-0.0265	0.1824	1152.9987	0.174075	-366.004471	-365.996698	-365.995754	-366.03677	31.212	
C	-0.1738695787	 1.5258794223	-0.0222528876	-0.286901
N	 1.1740395403	 0.9598586629	 0.0834581053	-0.347245
C	 0.0004623652	 0.0408201023	 0.0158573149	 0.31429
C	-0.2828301551	-0.6755601599	 1.319763087	-0.272137
C	 0.5552016467	-1.9498250164	 1.5301144006	-0.26003
C	 0.1005783502	-3.1304408174	 0.720414537	-0.082681
C	-0.2960837539	-3.1138236549	-0.5617109544	-0.069363
C	-0.3411314756	-1.9894273171	-1.48753304	-0.094228
C	-0.1953688613	-0.6705554289	-1.2653385428	-0.125673
H	-0.5262906199	 2.0408510991	 0.8674095235	 0.117544
H	-0.4833590149	 1.9824889482	-0.959158699	 0.111956
H	 1.6362759514	 0.9898481944	-0.8229681039	 0.229828
H	-0.0680663467	 0.0246668314	 2.1327154613	 0.10204
H	-1.3490298009	-0.9253087178	 1.3732052898	 0.103376
H	 1.6056487737	-1.7133083698	 1.304972513	 0.124758
H	 0.5317706676	-2.2191213517	 2.5914805093	 0.098449
H	 0.0954963416	-4.0902164048	 1.2317761836	 0.087579
H	-0.5870527782	-4.0650958027	-1.0018851923	 0.08238
H	-0.5042731488	-2.2770318769	-2.5242643941	 0.085779
H	-0.2235092527	-0.0180784423	-2.1372106614	 0.080279
64.0269	184.2844	238.0041	308.6934	327.3431	368.6337	430.2435	463.0196	554.9409	619.9265	681.8742	720.1396	800.8317	822.7008	845.1645	889.0551	897.3406	926.7559	962.9635	973.0365	989.7082	996.0263	1009.4306	1047.8931	1076.4244	1093.4751	1138.1333	1188.4341	1233.7869	1258.5585	1275.0369	1277.7261	1330.3626	1344.7801	1367.1499	1413.5123	1437.5241	1466.6208	1476.5859	1480.0361	1510.1127	1667.368	1706.0009	3004.6119	3036.9477	3062.7145	3087.1202	3103.6301	3122.299	3136.0922	3150.0082	3164.6402	3188.578	3489.8353
C1NC11CCC=CC=C1	C1N[C@]21CCC=CC=C2	
InChI=1S/C8H11N/c1-2-4-6-8(5-3-1)7-9-8/h1-3,5,9H,4,6-7H2	InChI=1S/C8H11N/c1-2-4-6-8(5-3-1)7-9-8/h1-3,5,9H,4,6-7H2/t8-/m0/s1
