20
gdb 73710	2.66463	1.96944	1.35029	2.1651	78.82	-0.2106	0.0722	0.2828	986.131	0.173136	-403.087592	-403.080319	-403.079375	-403.118677	30.647	
O	-0.008457301	 1.4218160565	 0.1261512049	-0.490673
C	 0.0372293673	 0.0200083178	-0.0102873899	 0.466036
C	 1.0885959338	-0.6009677695	 0.9051214747	-0.299235
C	 1.410085899	-2.0287745282	 0.4565472702	-0.212048
C	 0.1092992898	-2.7111028226	 0.0226799978	-0.155818
N	-0.774296501	-1.8497349227	-0.7806336026	-0.115298
C	-1.3640888558	-0.6487018401	-0.0638776743	-0.06502
C	-1.5810899006	-0.0322931957	-1.468447979	-0.229389
C	-0.1528071394	-0.6245821063	-1.4459755154	-0.117252
H	 0.8952891632	 1.7540156175	 0.1338953487	 0.274181
H	 1.9975051136	 0.0163534429	 0.8881697322	 0.082328
H	 0.7186196108	-0.5759289439	 1.9378496099	 0.108365
H	 2.0922469824	-1.9890645994	-0.4011611235	 0.101552
H	 1.923113125	-2.5980303013	 1.2387680039	 0.093819
H	 0.3267934446	-3.6112044797	-0.5637954032	 0.100875
H	-0.4690355678	-3.038708191	 0.8965632243	 0.100296
H	-2.0821296216	-0.7699046171	 0.7511319232	 0.071993
H	-2.2885403552	-0.5721510331	-2.0977198463	 0.098719
H	-1.6669897725	 1.049755018	-1.5251965969	 0.115354
H	 0.556936545	-0.7137325119	-2.2716608686	 0.071216
191.6573	213.0134	265.1935	350.5864	372.8074	407.9221	423.1646	494.0819	553.6607	641.4905	684.6072	753.2727	773.5314	826.5928	886.5196	904.3039	912.1975	920.9692	925.1846	989.1395	1041.8006	1049.8525	1075.8295	1091.9894	1121.9506	1147.07	1166.9898	1174.7348	1200.6114	1211.582	1219.5811	1226.8166	1255.0588	1262.8881	1298.4376	1358.7	1372.4306	1376.0722	1396.1983	1479.1783	1484.0176	1490.2202	1501.9222	3005.9543	3020.0986	3028.8215	3048.6758	3057.5476	3077.8289	3082.569	3085.0556	3104.5281	3188.2747	3804.9387
OC12CCCN3C1CC23	O[C@@]12CCCN3[C@@H]1C[C@@H]23	
InChI=1S/C7H11NO/c9-7-2-1-3-8-5(7)4-6(7)8/h5-6,9H,1-4H2	InChI=1S/C7H11NO/c9-7-2-1-3-8-5(7)4-6(7)8/h5-6,9H,1-4H2/t5-,6+,7+
