18
gdb 78426	5.15076	1.27588	1.24397	2.7793	75.32	-0.2275	0.0799	0.3075	1047.0217	0.148723	-401.84142	-401.83475	-401.833805	-401.87212	27.891	
C	-0.0982857351	 1.4416732303	-0.0188860365	-0.316604
N	 0.0433847657	-0.008185356	 0.0369915794	-0.105137
C	 1.4191026048	-0.4990886308	-0.1828015975	-0.05816
C	 0.8287398706	-0.5040624592	 1.1855691673	-0.058163
C	 0.6503531943	-1.9862399987	 1.4447996698	-0.064801
C	 0.2322733229	-2.6668226537	 0.108825443	 0.059616
O	 1.0056943656	-3.8776193926	 0.4381048965	-0.322364
C	 1.8663778625	-2.7585474633	 0.8135018211	 0.048383
C	 1.4892028367	-1.9791760052	-0.4995167651	-0.064802
H	 0.7801613446	 1.9903595184	 0.3622231675	 0.097964
H	-0.2667494565	 1.7465741919	-1.0565700337	 0.125699
H	-0.9696968936	 1.7406648505	 0.5721958469	 0.125699
H	 2.1897423815	 0.2016524007	-0.486516317	 0.089694
H	 1.1347167749	 0.1927692298	 1.958853869	 0.089696
H	 0.2226677505	-2.3565398973	 2.3746295462	 0.081065
H	-0.7596133356	-2.7922849938	-0.3195683754	 0.100483
H	 2.8462100709	-2.9884286365	 1.2354049399	 0.090666
H	 1.8731374354	-2.3426395744	-1.4508890617	 0.081065
178.5543	224.826	270.1668	381.0332	382.8531	494.88	505.3118	697.2971	751.2387	759.821	788.5141	820.0676	853.1849	862.0894	888.4258	912.7101	923.286	977.9467	986.4004	997.9935	1013.1306	1072.1282	1121.4596	1128.1873	1134.8754	1154.4635	1158.5681	1164.9275	1181.6277	1222.3574	1231.418	1257.3704	1271.3418	1332.3325	1343.6131	1391.7555	1455.3314	1494.2346	1497.8894	2957.7792	3066.5518	3103.5136	3104.3563	3137.8215	3141.0222	3150.8787	3163.4339	3173.0181
CN1C2C1C1C3OC1C23	CN1[C@H]2[C@@H]1[C@H]1[C@@H]3O[C@H]1[C@H]23	
InChI=1S/C7H9NO/c1-8-4-2-6-3(5(4)8)7(2)9-6/h2-7H,1H3	InChI=1S/C7H9NO/c1-8-4-2-6-3(5(4)8)7(2)9-6/h2-7H,1H3/t2-,3+,4-,5+,6-,7+,8?
