21
gdb 86082	2.31664	1.47794	1.14492	1.5034	79.82	-0.2191	0.0603	0.2794	1185.6874	0.182056	-420.45103	-420.44141	-420.440466	-420.484772	37.166	
C	-0.5332760806	 1.3898605816	 0.0311443548	-0.412185
C	 0.1528264629	 0.0417803334	-0.0844600774	 0.092686
O	 1.2750253376	 0.152325013	-0.9985488882	-0.268688
C	 2.2263538092	-0.6693234907	-0.4780709475	 0.451138
N	 3.3348133343	-0.8008580902	-1.2722031409	-0.582783
N	 2.0474500163	-1.1833872028	 0.6748195353	-0.376868
C	 0.7917151973	-0.6012105721	 1.1944984979	 0.268856
C	 1.1435262743	 0.4171578003	 2.2913222723	-0.410995
C	-0.10803804	-1.7009615695	 1.7657002533	-0.419687
H	 0.1442396074	 2.15274835	 0.4214066052	 0.129571
H	-0.891804575	 1.7183798011	-0.9485719186	 0.124587
H	-1.3974650381	 1.316225127	 0.6988262304	 0.122106
H	-0.5430108916	-0.6824113595	-0.5306793933	 0.076616
H	 3.1629393358	-0.7347374154	-2.2638054952	 0.259011
H	 3.9415533942	-1.5579006023	-0.9982364297	 0.265235
H	 1.7689018017	 1.223859045	 1.8978942629	 0.116625
H	 0.2477027997	 0.8584074731	 2.7408758975	 0.103531
H	 1.71093358	-0.0873118772	 3.0780579351	 0.123281
H	 0.3744781101	-2.1785359797	 2.623040299	 0.122414
H	-1.069416265	-1.2922516212	 2.0982390543	 0.104372
H	-0.3000468906	-2.4722135241	 1.0139903429	 0.111179
72.0195	159.0005	207.8098	232.6618	264.4712	270.904	281.8496	309.7348	344.2159	404.169	443.648	499.158	511.3712	564.9529	600.8966	680.6644	738.9285	745.7611	880.7172	908.9894	936.1172	965.1975	986.8189	1004.6368	1057.5576	1096.3189	1135.6111	1155.5982	1196.7947	1225.4242	1257.3316	1345.5008	1373.2776	1394.9895	1409.4015	1416.2147	1439.2048	1473.9913	1480.7296	1488.0268	1496.4181	1499.6445	1511.1031	1615.4481	1748.7715	3002.2987	3028.6779	3035.5435	3046.4441	3099.1847	3105.8163	3113.2328	3114.4535	3118.701	3131.4149	3585.9267	3699.7612
CC1OC(N)=NC1(C)C	C[C@H]1O[C](N)[N]C1(C)C	
InChI=1S/C6H12N2O/c1-4-6(2,3)8-5(7)9-4/h4H,1-3H3,(H2,7,8)	InChI=1S/C6H12N2O/c1-4-6(2,3)8-5(7)9-4/h4H,1-3H3,(H2,7,8)/t4-/m1/s1
