20
gdb 79864	2.84459	1.61093	1.39392	0.902	78.57	-0.2287	0.0768	0.3056	1020.9178	0.171942	-403.096593	-403.088636	-403.087692	-403.128482	31.897	
C	-0.0045953591	 1.4792194524	-0.0273709259	-0.53048
C	 0.0721387718	-0.0195166175	-0.0057032346	 0.319612
C	 0.6367629551	-0.9600302433	-1.0809515187	 0.088845
O	 2.0312572293	-0.9069341252	-1.2354571015	-0.442107
C	 0.018051964	-1.8643085303	 0.0075395378	-0.087784
C	 0.6273466752	-0.9640041289	 1.1217871404	-0.044519
C	-0.3749867727	-0.9274503943	 2.2691670705	-0.267931
C	-1.6704732041	-0.8986667603	 1.4118437987	-0.164581
N	-1.1767108765	-0.9166915406	 0.0121221652	-0.164452
H	 0.9982807912	 1.905261945	-0.1318210717	 0.134873
H	-0.6139004517	 1.8202244353	-0.8704505721	 0.129988
H	-0.445272554	 1.873791103	 0.8944474451	 0.119952
H	 0.0988475643	-0.9495384615	-2.0358073353	 0.075781
H	 2.2925903475	-1.5902688286	-1.8597241664	 0.287591
H	-0.1242580591	-2.9477108285	 0.0137683879	 0.06746
H	 1.6944668911	-0.9933726946	 1.3397779236	 0.077514
H	-0.3055965583	-1.8085207701	 2.9148342582	 0.097567
H	-0.2568565162	-0.042182786	 2.9025085502	 0.097902
H	-2.3142579667	-1.7677828036	 1.5755869432	 0.102232
H	-2.2751482813	-0.0009021224	 1.5704311354	 0.102538
176.6095	204.6521	209.085	237.8712	254.2574	266.9016	349.6953	501.6176	538.2282	634.7084	716.2386	723.4962	750.0255	822.8023	829.4341	845.3073	912.7615	937.6578	946.3144	987.7656	998.137	1024.4562	1040.2412	1077.8721	1114.4832	1149.0162	1163.8475	1184.0663	1197.9417	1202.1997	1242.9456	1255.284	1272.8265	1276.792	1316.1382	1320.4403	1347.1238	1403.7746	1453.038	1483.1629	1486.5015	1495.7031	1512.6077	3033.1108	3044.4323	3044.9144	3056.7388	3079.2898	3084.3629	3099.9069	3102.9158	3109.938	3126.5437	3827.6101
CC12C(O)C3C1CCN23	C[C@@]12[C@@H](O)[C@H]3[C@@H]1CCN23	
InChI=1S/C7H11NO/c1-7-4-2-3-8(7)5(4)6(7)9/h4-6,9H,2-3H2,1H3	InChI=1S/C7H11NO/c1-7-4-2-3-8(7)5(4)6(7)9/h4-6,9H,2-3H2,1H3/t4-,5+,6-,7-/m0/s1
