16
gdb 6729	7.24524	0.71329	0.67055	1.4808	71.02	-0.2421	-0.0139	0.2282	1642.6127	0.126325	-383.720626	-383.71064	-383.709695	-383.758488	32.541	
C	-0.1203576024	 1.5157142303	 0.1663225683	-0.478195
C	 0.1017436342	 0.0151841432	 0.089338317	 0.390894
O	 1.1817170532	-0.490688124	 0.2549943573	-0.268004
C	-1.163064365	-0.808449276	-0.220826534	-0.486401
C	-0.9738880071	-2.2476951333	-0.1939611741	 0.060027
C	-0.8227437422	-3.439966007	-0.1616838983	 0.156889
C	-0.6050421704	-4.8800851672	-0.1339481786	-0.217768
O	-1.6737548181	-5.5136327979	 0.5608210634	-0.410734
H	 0.8365068184	 2.0225846094	 0.2932665366	 0.14634
H	-0.6207928093	 1.884246223	-0.7357586337	 0.137447
H	-0.7736642623	 1.7549767138	 1.0134605024	 0.143771
H	-1.9450148933	-0.5081422273	 0.4907475174	 0.150599
H	-1.5329791271	-0.4770132253	-1.2022921718	 0.148944
H	-0.5266035608	-5.2533754107	-1.1682608365	 0.114879
H	 0.3631467697	-5.0832945472	 0.3516596529	 0.122066
H	-1.4830434376	-6.4570245539	 0.5777526218	 0.289246
14.2659	26.7056	76.9578	101.5391	146.9077	212.9515	242.9362	307.238	356.1931	416.5656	467.6651	534.1522	603.1577	789.034	805.7669	828.7026	964.2419	1027.5337	1048.8296	1052.2237	1158.9615	1168.7105	1225.183	1245.3003	1257.7879	1335.5	1382.4581	1437.5151	1460.5211	1464.7744	1476.8334	1503.6573	1831.8613	2383.9132	2963.2843	2982.8953	3006.0523	3033.8733	3037.1132	3097.1259	3155.1969	3818.1585	14.2688	26.706	76.9579	101.5398	146.9079	212.954	242.9385	307.2383	356.1955	416.5663	467.6653	534.1525	603.1579	789.0342	805.7669	828.7027	964.2419	1027.5339	1048.8301	1052.2237	1158.9616	1168.7105	1225.1832	1245.3006	1257.788	1335.5	1382.458	1437.5152	1460.5212	1464.7743	1476.8333	1503.6578	1831.8614	2383.9136	2963.2844	2982.8954	3006.0523	3033.8733	3037.1132	3097.1259	3155.1969	3818.1592
CC(=O)CC#CCO	CC(=O)CC#CCO	
InChI=1S/C6H8O2/c1-6(8)4-2-3-5-7/h7H,4-5H2,1H3	InChI=1S/C6H8O2/c1-6(8)4-2-3-5-7/h7H,4-5H2,1H3
