20
gdb 87865	3.06064	1.37089	1.23439	2.4212	78.18	-0.2237	0.0741	0.2979	1092.8485	0.172304	-403.110131	-403.102192	-403.101248	-403.142302	31.941	
O	-0.6766462691	 1.3302191964	-0.574996561	-0.420653
C	-0.3640261859	-0.0139187815	-0.3539479043	 0.06354
C	-0.1885564449	-0.5288311622	 1.052903866	-0.410251
C	-1.4298661971	-0.8772305742	 0.2646267529	 0.31073
C	-2.7998470785	-0.2968301835	 0.6078181927	-0.301477
C	-3.7408843004	-1.086518938	-0.2904117759	-0.009538
C	-3.3687474899	-1.218391554	-1.7216409007	-0.251454
N	-3.0782108722	-2.3152911861	-0.7833423649	-0.101248
C	-1.7007046434	-2.2899125628	-0.2583834308	-0.231191
H	 0.095900951	 1.8597360831	-0.352385549	 0.290017
H	 0.2480281332	-0.4703819544	-1.1338507918	 0.083643
H	 0.5510391694	-1.302348145	 1.2380633861	 0.11067
H	-0.3034734241	 0.1921238909	 1.8567296868	 0.113276
H	-3.0503539071	-0.4803020978	 1.6596041143	 0.100682
H	-2.8393364936	 0.7810738354	 0.4334624321	 0.12658
H	-4.7795923849	-1.1881701895	 0.0107262183	 0.085563
H	-4.1293114934	-1.4529449214	-2.4606627855	 0.110802
H	-2.5479625425	-0.609330619	-2.0928601693	 0.124637
H	-0.9887208634	-2.6049371249	-1.0296799877	 0.101282
H	-1.6485817031	-3.0197500215	 0.5591267816	 0.104389
96.6381	173.3646	234.0794	274.774	313.4345	363.3801	400.6105	442.7974	499.7141	544.5525	669.0443	753.1041	790.5353	811.1339	839.3197	882.8741	890.3253	918.1523	966.6282	994.3418	1012.8104	1038.508	1052.3955	1085.4046	1095.7693	1110.4839	1121.5968	1169.0278	1172.9865	1201.3536	1229.8969	1247.839	1266.0063	1290.6309	1309.6415	1326.1348	1352.5276	1394.1105	1423.0177	1485.4653	1489.2893	1499.5785	1509.3187	3023.1015	3034.9437	3066.4391	3082.0778	3103.8968	3108.3034	3116.8419	3147.388	3193.3449	3204.948	3808.6933
OC1CC11CC2CN2C1	O[C@H]1C[C@]21C[C@H]1CN1C2	
InChI=1S/C7H11NO/c9-6-2-7(6)1-5-3-8(5)4-7/h5-6,9H,1-4H2	InChI=1S/C7H11NO/c9-6-2-7(6)1-5-3-8(5)4-7/h5-6,9H,1-4H2/t5-,6-,7+,8?/m0/s1
