13
gdb 18178	4.98565	1.61498	1.3145	4.7076	65.58	-0.2693	-0.0579	0.2114	877.6296	0.096696	-361.465398	-361.459114	-361.45817	-361.495902	23.69	
N	 0.0752776308	-1.1455295321	-0.0304055894	-0.333273
C	 0.0098033834	 0.0108488183	-0.0086000871	 0.197148
C	-0.0299185247	 1.4293271572	 0.0000909874	 0.233304
C	-1.1292075969	 2.1983273617	 0.0842507585	-0.166104
C	-0.7975090926	 3.6706096417	 0.0288671639	-0.286565
C	 0.725757393	 3.6856607331	-0.0233248135	 0.04205
O	 1.3520392395	 3.1054007629	 1.122263953	-0.241841
C	 1.2015091743	 2.2918250157	-0.0528850199	-0.083741
H	-2.1379395858	 1.821866748	 0.2029365306	 0.133107
H	-1.2365438467	 4.1441157472	-0.8585156013	 0.1318
H	-1.1826350819	 4.2106616254	 0.902049126	 0.144435
H	 1.2617689449	 4.5080362337	-0.4875076333	 0.110758
H	 2.1190422327	 1.9500800671	-0.5194522451	 0.118923
139.6936	165.4864	299.681	376.6678	453.1111	512.6249	561.1935	664.3086	746.0387	823.538	837.9588	867.5702	888.5011	930.4006	957.9378	1014.5901	1045.9617	1100.821	1176.9445	1183.9389	1253.7059	1268.4885	1315.1437	1341.7897	1408.1628	1449.8862	1656.0632	2340.2684	3033.5935	3069.7894	3161.673	3183.2705	3216.0464
N#CC1=CCC2OC12	N#CC1=CC[C@H]2O[C@@H]12	
InChI=1S/C6H5NO/c7-3-4-1-2-5-6(4)8-5/h1,5-6H,2H2	InChI=1S/C6H5NO/c7-3-4-1-2-5-6(4)8-5/h1,5-6H,2H2/t5-,6+/m1/s1
