15
gdb 24908	4.87315	1.32617	1.04922	2.9563	73.16	-0.1908	0.0141	0.2049	1070.0589	0.115478	-416.844984	-416.838072	-416.837128	-416.87625	27.296	
N	 0.0003824581	 1.2275047706	 0.006866235	-0.520734
C	-0.0196223671	-0.0274534451	 0.0005639064	 0.39584
C	-1.2678797524	-0.9288329903	 0.0028325045	-0.453476
C	-0.646569376	-2.2948504249	-0.0073553999	 0.206476
C	 0.6976416636	-2.1050695701	-0.0136038277	 0.421091
N	 1.3674028787	-3.2808627509	-0.0230551943	-0.399191
C	 0.4009210009	-4.2879722092	-0.0237247827	-0.079324
C	-0.848706076	-3.7061778781	-0.0132394979	-0.32408
O	 1.1506775054	-0.8159669158	-0.0095253142	-0.26525
H	 0.956489692	 1.5845956125	 0.0035754115	 0.231067
H	-1.8743883654	-0.7005968525	 0.886387625	 0.146096
H	-1.8839239433	-0.6918039952	-0.8717649236	 0.146087
H	 2.3631561216	-3.4122196747	-0.0289444692	 0.271688
H	 0.6984608832	-5.3229887983	-0.0310606795	 0.122671
H	-1.7839824533	-4.2442440279	-0.0107673333	 0.101039
102.25	195.5854	296.2585	337.8647	401.8123	532.4346	535.7972	551.985	613.9393	628.8955	703.8302	726.7479	791.267	816.0822	835.6841	890.4122	937.7296	973.129	990.1154	1063.2785	1082.2209	1155.7383	1158.133	1225.3022	1269.3099	1287.0857	1349.8726	1440.5325	1471.0016	1495.3479	1565.2741	1643.9413	1799.2904	3041.1948	3068.7848	3250.5676	3281.2232	3486.9682	3692.0293
N=C1CC2=C(NC=C2)O1	[NH][C]1Cc2c([nH]cc2)O1	
InChI=1S/C6H6N2O/c7-5-3-4-1-2-8-6(4)9-5/h1-2,7-8H,3H2	InChI=1S/C6H6N2O/c7-5-3-4-1-2-8-6(4)9-5/h1-2,7-8H,3H2
