23
gdb 121112	3.55827	0.81541	0.70893	1.0823	82.99	-0.2517	0.0915	0.3432	1694.9069	0.204907	-425.446288	-425.436145	-425.435201	-425.482508	36.48	
C	 0.0642866577	 1.5662712882	-0.0490632684	-0.38239
C	 0.0003154037	 0.0370545416	-0.0511546431	-0.165324
C	-1.4354361335	-0.4992394396	-0.0471033562	-0.201391
C	-1.5149076483	-2.0172688567	-0.0696562467	 0.104691
C	-2.9442798758	-2.6078483271	-0.0887376527	-0.109752
O	-2.8853204892	-3.6710119158	-1.0323530547	-0.269521
C	-1.5368792799	-3.7877169578	-1.4623510862	 0.235987
C	-1.4783784296	-4.2022162151	-2.9149453045	-0.403869
O	-0.9578108298	-2.518293423	-1.2821423551	-0.264872
H	 1.0994408695	 1.921301117	-0.0540528115	 0.112835
H	-0.4347587533	 1.9843707141	-0.9303759284	 0.11553
H	-0.4268309211	 1.984688968	 0.8369345531	 0.111393
H	 0.5202773748	-0.3584157093	-0.9303642406	 0.118502
H	 0.5345900129	-0.3554995497	 0.8242609667	 0.092516
H	-1.9652039062	-0.139508772	 0.8455597169	 0.095904
H	-1.9824201388	-0.1138200845	-0.917205248	 0.103917
H	-0.9545883951	-2.4337118563	 0.7847797692	 0.067176
H	-3.2473593221	-2.9799503945	 0.897873732	 0.099253
H	-3.6840792459	-1.8717452425	-0.4275045731	 0.101331
H	-1.017235358	-4.5242603764	-0.8184494835	 0.055405
H	-1.981843745	-3.4530633676	-3.5306033385	 0.129056
H	-0.4381302279	-4.2957714756	-3.2373137338	 0.125096
H	-1.9756981888	-5.1665165856	-3.0450776928	 0.128528
39.6458	80.7569	95.9904	128.9809	160.3498	217.3499	247.8275	297.4058	322.3911	387.0127	479.2341	504.5842	680.5825	711.0825	747.0337	839.5316	859.8164	893.5489	907.6077	926.778	1008.2839	1033.8677	1049.6206	1060.4071	1110.4215	1116.1111	1137.9174	1154.6627	1166.0437	1188.3925	1223.0563	1270.594	1293.3297	1327.2482	1337.8539	1366.7809	1373.841	1394.0948	1402.1299	1410.95	1415.9966	1446.9208	1473.0619	1484.9793	1487.7171	1493.9886	1500.5152	1510.3454	1528.0245	2907.261	2954.6214	3011.5846	3016.618	3022.7939	3029.0416	3050.6813	3054.0027	3055.6622	3073.2421	3098.0438	3102.7004	3133.6476	3139.3121
CCCC1COC(C)O1	CCC[C@H]1CO[C@@H](C)O1	
InChI=1S/C7H14O2/c1-3-4-7-5-8-6(2)9-7/h6-7H,3-5H2,1-2H3	InChI=1S/C7H14O2/c1-3-4-7-5-8-6(2)9-7/h6-7H,3-5H2,1-2H3/t6-,7+/m1/s1
