21
gdb 60083	2.35722	1.15897	0.99084	4.4653	84.29	-0.222	0.0389	0.2608	1334.3538	0.181516	-383.257988	-383.248058	-383.247113	-383.292945	36.415	
C	 0.6044121237	-0.1123932926	 1.2792801411	-0.31788
N	 0.1422087191	-0.2980373337	-0.0866979929	-0.038865
C	 0.9399051047	-1.2853670749	-0.7961510231	-0.322708
C	-1.2859066441	-0.5490081273	-0.1470029839	-0.216612
C	-1.8784862471	-0.3708287495	-1.5417464301	 0.154569
C	-2.0528219059	-1.5767275798	-2.4577290088	-0.280751
C	-3.2547602575	-0.9650490106	-1.8091371532	-0.30433
C	-1.5890868567	 0.8928738963	-2.1750207282	 0.26037
N	-1.3782466723	 1.9053731674	-2.6932794716	-0.350081
H	 1.66187847	 0.1682515276	 1.2721309476	 0.123907
H	 0.0425536634	 0.6961308857	 1.756648145	 0.123378
H	 0.4997167901	-1.0197029452	 1.9054621968	 0.090872
H	 0.8399721469	-2.3057224769	-0.3754470163	 0.085958
H	 0.6550846887	-1.3205777556	-1.8497891336	 0.132289
H	 1.9953243771	-1.0028977743	-0.7447317461	 0.12459
H	-1.5584876428	-1.5651959991	 0.2066702147	 0.075598
H	-1.7760511407	 0.1610689642	 0.528449907	 0.11675
H	-1.9078039359	-1.4252764926	-3.5206125607	 0.141607
H	-1.6886311782	-2.5244952868	-2.0773136864	 0.129611
H	-3.71961753	-1.4889811373	-0.9810129963	 0.128843
H	-3.9358589825	-0.388774265	-2.422948351	 0.142885
60.5031	84.4468	137.0075	197.5635	227.5838	250.0044	254.6765	305.3444	335.7713	353.1628	400.8306	468.145	572.0756	586.8152	717.5699	790.5123	843.5508	878.683	943.2117	954.29	970.2988	1039.7484	1066.6888	1073.8023	1075.5016	1096.7181	1124.9283	1173.4979	1197.2233	1221.0488	1277.5526	1294.6228	1312.7067	1356.5797	1405.7693	1445.1618	1464.9024	1471.4517	1482.9721	1488.2994	1495.4882	1500.8194	1504.332	1512.8795	2352.1655	2885.9293	2911.2313	2924.4718	3056.5253	3063.7572	3077.269	3108.8838	3125.312	3141.506	3144.9001	3228.0626	3241.6233
CN(C)CC1(CC1)C#N	CN(C)CC1(CC1)C#N	
InChI=1S/C7H12N2/c1-9(2)6-7(5-8)3-4-7/h3-4,6H2,1-2H3	InChI=1S/C7H12N2/c1-9(2)6-7(5-8)3-4-7/h3-4,6H2,1-2H3
