16
gdb 35843	3.40673	1.27129	0.96695	4.8154	78.71	-0.2418	-0.051	0.1908	1167.7798	0.125317	-400.752381	-400.744674	-400.74373	-400.784872	29.083	
N	-0.2002393367	-1.0545646504	-0.3981299284	-0.314408
C	-0.0874146422	 0.0671416767	-0.1493983301	 0.283699
C	 0.0778106829	 1.5013424329	 0.1390225552	-0.09265
O	-0.6488719762	 1.7924546235	 1.3315909728	-0.24292
C	-1.2318208353	 3.0777456765	 1.3512115272	-0.137202
C	-0.3075686229	 4.2398806588	 1.1352724219	-0.081174
C	 1.0082187751	 4.2501190732	 0.8675422368	-0.076324
C	 1.8987167655	 3.1252725255	 0.6014767051	-0.081286
C	 1.5356045873	 1.8838423494	 0.2577652507	-0.075464
H	-0.3700675269	 2.0551683149	-0.702750327	 0.13393
H	-2.0720768186	 3.1454603013	 0.6366000993	 0.111493
H	-1.6776179297	 3.1590939141	 2.3510464598	 0.138693
H	-0.8058032478	 5.2005810491	 1.2570982742	 0.104314
H	 1.4871224015	 5.2255504914	 0.8220265236	 0.099575
H	 2.9616538483	 3.3457517078	 0.6573255878	 0.106852
H	 2.2775064856	 1.1158333455	 0.0713758811	 0.122873
70.9938	145.5113	218.4952	262.4473	326.2592	373.0238	409.5191	495.5819	551.2306	582.1822	647.6529	704.5145	792.4834	845.8994	887.956	944.1165	955.9246	991.9541	1010.7033	1018.0361	1046.1467	1066.8215	1145.0185	1234.3698	1259.2841	1265.1835	1290.584	1359.0608	1396.9813	1413.7715	1451.5384	1476.0004	1674.4078	1708.8019	2370.5317	2942.4159	2970.3594	3044.9688	3135.3904	3153.9133	3166.7219	3200.9995
N#CC1OCC=CC=C1	N#C[C@H]1OCC=CC=C1	
InChI=1S/C7H7NO/c8-6-7-4-2-1-3-5-9-7/h1-4,7H,5H2	InChI=1S/C7H7NO/c8-6-7-4-2-1-3-5-9-7/h1-4,7H,5H2/t7-/m0/s1
