23
gdb 96081	2.56724	1.47543	1.10042	1.2088	85.75	-0.2425	0.0847	0.3272	1211.4616	0.206619	-388.298114	-388.289209	-388.288265	-388.331078	35.436	
C	-0.0713737509	 1.5286625577	-0.0164502112	-0.397736
C	 0.055722913	 0.011057879	 0.0149732483	 0.107481
O	 0.7117958938	-0.3849544258	-1.1836830589	-0.257039
C	 0.8365997443	-1.7935425041	-1.2714103885	-0.0724
C	 1.8559803268	-2.3429338807	-0.2674350316	-0.291863
C	 1.6992434043	-1.7132681615	 1.1220676201	 0.3427
C	 1.7543302641	-2.6868087268	 2.2820979144	-0.470631
C	 2.2942964368	-0.3369915613	 1.3263864499	-0.324032
C	 0.7972656978	-0.4991107538	 1.2404862894	-0.061448
H	 0.9175880371	 1.9955848212	-0.0131343133	 0.123887
H	-0.6031551878	 1.8463244384	-0.9175901128	 0.119066
H	-0.6240618455	 1.8825767228	 0.8592097595	 0.11083
H	-0.9572305551	-0.4326405218	 0.0178750869	 0.058708
H	-0.1481868624	-2.2607565692	-1.1014935341	 0.083558
H	 1.138575409	-2.0163146851	-2.2991875314	 0.101534
H	 1.7260091597	-3.4294766177	-0.1991401207	 0.094209
H	 2.8718889241	-2.1731109987	-0.6427797058	 0.103942
H	 2.7067397419	-3.2308255236	 2.2941160956	 0.115115
H	 1.6553545295	-2.1697533541	 3.2422403647	 0.110336
H	 0.9503711319	-3.4300534092	 2.2184199225	 0.112042
H	 2.7345761632	-0.1024501711	 2.290118541	 0.100733
H	 2.79223394	 0.1196320814	 0.4768563827	 0.115582
H	 0.2369960244	-0.3991288659	 2.1670450031	 0.075426
101.4692	160.4472	223.2762	239.5006	244.7842	302.2497	343.2283	361.3444	376.4856	453.6258	471.6968	579.8585	644.4921	716.0368	765.0427	851.9943	879.8944	890.4069	907.6466	948.4601	979.418	1007.9224	1016.3535	1054.8535	1075.7366	1081.2889	1111.2702	1124.9441	1136.9898	1151.8906	1183.2634	1215.9662	1283.3673	1300.9327	1308.9827	1355.9609	1365.8879	1380.8774	1406.4701	1408.6753	1419.7137	1423.7623	1476.8126	1483.8369	1489.1659	1493.7863	1496.4648	1501.7208	1503.4573	2925.7729	2961.9614	3015.9438	3027.4756	3042.9556	3064.4805	3075.2719	3080.8561	3093.3488	3116.9392	3121.9909	3122.8643	3133.7536	3209.8913
CC1OCCC2(C)CC12	C[C@H]1OCC[C@@]2(C)C[C@@H]12	
InChI=1S/C8H14O/c1-6-7-5-8(7,2)3-4-9-6/h6-7H,3-5H2,1-2H3	InChI=1S/C8H14O/c1-6-7-5-8(7,2)3-4-9-6/h6-7H,3-5H2,1-2H3/t6-,7+,8+/m1/s1
