19
gdb 99670	2.67471	1.2279	0.99964	2.8302	75.61	-0.2456	0.0295	0.2751	1258.1765	0.159464	-419.187347	-419.177921	-419.176977	-419.222284	33.253	
C	 0.2553652992	 1.3167451957	 0.3155526224	-0.32868
N	-0.1129623887	-0.0103669228	-0.1678242419	-0.274232
C	 0.5740002587	-0.4456807129	-1.3714104289	-0.130573
C	 2.0532548795	-0.47063597	-1.2304644302	 0.278138
N	 3.2006212284	-0.4740767426	-1.0858197377	-0.345703
C	 0.039185238	-1.831748943	-1.7578783146	 0.139255
C	 0.8074729641	-2.6697457876	-2.8003300668	-0.316243
C	 1.0463378594	-3.6449139186	-1.6283790351	-0.058921
O	 0.3066572696	-2.7932435685	-0.717292884	-0.296822
H	 1.3291919927	 1.4383787051	 0.528273925	 0.125445
H	-0.0291259294	 2.0674229783	-0.4302334858	 0.124527
H	-0.3050859939	 1.5270262963	 1.2300401193	 0.129317
H	 0.0365717485	-0.7114968874	 0.5514413801	 0.244746
H	 0.3371609066	 0.2543644862	-2.1846271508	 0.124381
H	-1.0379207958	-1.7223090033	-1.9300396754	 0.097288
H	 0.1965334959	-3.0551321336	-3.6168851915	 0.117703
H	 1.7059406444	-2.2024267369	-3.2054841582	 0.133095
H	 0.5770448089	-4.630075562	-1.7244064891	 0.109973
H	 2.0873417439	-3.7644932924	-1.3124997869	 0.127307
71.2055	77.4498	121.4592	148.6214	175.6395	193.0525	263.9626	335.0416	373.1831	416.4097	602.0209	665.1307	756.6026	789.9312	798.8045	867.2272	916.2736	955.1275	974.099	1003.3255	1026.4545	1107.4568	1111.952	1147.9838	1161.3953	1166.1215	1196.3729	1219.7573	1264.3039	1276.2714	1310.1473	1324.8013	1362.8102	1379.0203	1460.4091	1487.9422	1489.253	1498.5713	1521.0522	1526.749	2340.4032	2983.5597	3022.5133	3035.4418	3043.5445	3065.8892	3085.9534	3089.4327	3114.7551	3146.2637	3525.6419
CNC(C#N)C1CCO1	CN[C@@H](C#N)[C@H]1CCO1	
InChI=1S/C6H10N2O/c1-8-5(4-7)6-2-3-9-6/h5-6,8H,2-3H2,1H3	InChI=1S/C6H10N2O/c1-8-5(4-7)6-2-3-9-6/h5-6,8H,2-3H2,1H3/t5-,6+/m0/s1
