15
gdb 17940	3.44607	2.39725	2.13464	1.9203	65.41	-0.2199	0.0075	0.2274	708.0673	0.120668	-362.610707	-362.604696	-362.603752	-362.640294	25.107	
O	-0.1144658718	 1.4074770464	-0.0200587832	-0.460551
C	 0.0306434622	 0.0441566641	-0.0014840757	 0.371464
C	-1.0059695215	-1.006673711	 0.010727288	-0.074106
N	-0.4919181331	-1.6678337806	-1.1560411317	-0.289098
C	 0.8114359961	-0.8831107424	-1.0240602822	-0.120925
C	 1.7594247131	-1.6845585715	-0.1801735576	-0.128892
C	 1.2946401552	-1.7157572727	 1.0847154846	-0.071124
C	 0.1016692994	-0.8637540913	 1.1989899707	-0.195303
H	 0.6542913966	 1.7996491661	 0.4105864258	 0.289529
H	-2.0557543982	-1.0001575345	 0.2763157435	 0.109711
H	-0.3498565336	-2.6740247812	-1.0471015928	 0.210465
H	 1.1600911937	-0.476002424	-1.9725379688	 0.078999
H	 2.5920965723	-2.2520648943	-0.5764646057	 0.095572
H	 1.6823161275	-2.3238245352	 1.8933097608	 0.09747
H	-0.3147708381	-0.5323117779	 2.1426205341	 0.08679
244.4776	311.3129	362.2434	388.5454	452.8086	560.7817	587.4064	644.7578	735.0491	753.1703	775.6098	820.5907	865.8206	906.0911	927.6965	945.2918	960.6662	1004.5285	1028.2521	1063.2599	1113.2928	1132.8996	1133.4505	1187.1334	1210.6495	1268.3515	1298.7047	1318.2667	1359.9663	1371.4904	1491.8231	1606.0807	3120.0331	3188.8941	3196.6853	3201.6108	3219.9093	3424.585	3784.9669
OC12C3NC1C=CC23	O[C@@]12[C@H]3N[C@@H]1C=C[C@@H]23	
InChI=1S/C6H7NO/c8-6-3-1-2-4(6)7-5(3)6/h1-5,7-8H	InChI=1S/C6H7NO/c8-6-3-1-2-4(6)7-5(3)6/h1-5,7-8H/t3-,4-,5+,6-/m1/s1
