20
gdb 71677	2.714	2.22448	1.6634	1.7454	80.97	-0.2196	0.085	0.3046	896.7215	0.173814	-365.954797	-365.948168	-365.947224	-365.985248	28.563	
C	 0.0381592019	 1.4868565097	 0.0206793631	-0.509491
C	 0.0370358542	-0.0232503564	 0.0335482045	 0.335081
C	-1.263888406	-0.8439222154	 0.2623288893	-0.283508
C	-0.2984632931	-1.9469211	 0.6833370246	 0.001787
C	 0.7496461561	-0.9074879792	 1.1604878743	-0.110237
C	 1.8300329052	-1.6365277053	 0.331166205	 0.001056
C	 2.2322699379	-0.759406911	-0.8547054629	-0.257996
C	 0.7150513217	-0.7919819344	-1.1155517	-0.031051
N	 0.6557177128	-2.1997727708	-0.4853784247	-0.166073
H	 1.0527478083	 1.8917934525	-0.0596559961	 0.11806
H	-0.5397256614	 1.8702197208	-0.8290957945	 0.118237
H	-0.4091867491	 1.8942551629	 0.9334822076	 0.11674
H	-1.8403952508	-0.4703275488	 1.1143876949	 0.097235
H	-1.9277022102	-1.0158406141	-0.5920222903	 0.095308
H	-0.5916246142	-2.8547414143	 1.2090622005	 0.070673
H	 0.8597163966	-0.5105120707	 2.169624617	 0.060763
H	 2.505405799	-2.3396018988	 0.8209049521	 0.071064
H	 2.7138593983	 0.2048421563	-0.6731908262	 0.094798
H	 2.7886925128	-1.3291908817	-1.6023820695	 0.111585
H	 0.2951332499	-0.6750975712	-2.1163823785	 0.06597
196.1647	253.7248	257.0439	391.287	431.8965	463.3581	580.369	698.4076	722.724	771.1773	778.3449	817.5747	840.6069	872.6316	892.1527	912.0701	934.6183	951.4051	976.7976	987.3187	999.3569	1002.6835	1039.5979	1074.8657	1095.938	1132.7739	1147.94	1170.7414	1189.4383	1211.7024	1225.7746	1235.9027	1239.3421	1250.5355	1271.9049	1280.9629	1320.7737	1348.2768	1414.1495	1482.7993	1487.24	1491.9383	1497.1617	3022.6421	3038.3937	3062.2641	3084.8439	3093.3361	3094.3678	3097.5832	3100.706	3111.3322	3123.313	3125.1557
CC12CC3C1C1CC2N31	C[C@]12C[C@@H]3[C@H]1[C@@H]1C[C@H]2N31	
InChI=1S/C8H11N/c1-8-3-5-7(8)4-2-6(8)9(4)5/h4-7H,2-3H2,1H3	InChI=1S/C8H11N/c1-8-3-5-7(8)4-2-6(8)9(4)5/h4-7H,2-3H2,1H3/t4-,5+,6+,7+,8+/m0/s1
