21
gdb 119525	4.08495	1.00885	0.91552	1.004	84.16	-0.2267	0.0213	0.248	1366.4899	0.182171	-387.081831	-387.073052	-387.072108	-387.115538	33.749	
C	 0.1310886075	 1.5102111865	-0.0379909269	-0.38638
C	 0.2175183168	-0.0038379744	 0.045934894	-0.053854
O	 0.3988639023	-0.5122210251	-1.2697597982	-0.298003
C	 0.557500256	-1.8918956492	-1.3271426805	 0.449629
C	 1.9040890845	-2.4810878832	-0.9926107532	-0.336635
C	 1.3960872414	-2.4893249253	-2.4335086101	-0.159093
C	 0.6728883822	-3.7238743355	-2.8528588537	-0.07011
C	-0.4448884242	-3.9046528198	-2.1441373246	-0.082902
C	-0.6830070698	-2.7791303376	-1.1595010842	-0.33186
H	 1.0481780989	 1.9236756901	-0.4673811395	 0.124969
H	-0.708327772	 1.8129491752	-0.6704675543	 0.1267
H	-0.0116250316	 1.9398752129	 0.9581348069	 0.113509
H	 1.0577479462	-0.3132933422	 0.6864208053	 0.089581
H	-0.700670195	-0.417515015	 0.4912935319	 0.090114
H	 2.6866267563	-1.7640183145	-0.7665092347	 0.112258
H	 1.9704198364	-3.4268062201	-0.4636453627	 0.108467
H	 1.9032182636	-1.8597863349	-3.1556223574	 0.095922
H	 1.0453131164	-4.3915387333	-3.6214360756	 0.094735
H	-1.1177005137	-4.7498258197	-2.2340575198	 0.092712
H	-0.8128294694	-3.1445326317	-0.1333543578	 0.107007
H	-1.5864200928	-2.2058479032	-1.4096641147	 0.113237
66.6173	95.3428	133.6265	238.2779	261.9598	310.5682	353.8333	395.699	434.7933	490.665	655.5248	714.8256	744.1854	777.5966	819.9148	852.5381	891.7305	915.5576	935.082	953.5986	966.808	997.8021	1017.5966	1039.4404	1057.331	1064.8199	1094.9835	1141.1071	1144.1976	1174.2432	1188.1005	1240.7417	1254.9906	1293.876	1308.214	1364.5426	1379.5325	1402.2603	1429.3276	1462.8861	1480.7393	1483.0181	1500.348	1527.9233	1666.9879	2976.8781	3005.8217	3014.8895	3044.187	3049.0623	3118.3956	3120.0715	3120.7169	3178.0487	3186.8614	3210.4439	3214.6107
CCOC12CC1C=CC2	CCO[C@]12C[C@H]1C=CC2	
InChI=1S/C8H12O/c1-2-9-8-5-3-4-7(8)6-8/h3-4,7H,2,5-6H2,1H3	InChI=1S/C8H12O/c1-2-9-8-5-3-4-7(8)6-8/h3-4,7H,2,5-6H2,1H3/t7-,8-/m1/s1
