14
gdb 11727	5.43912	1.40929	1.25022	1.4539	59.43	-0.2659	-0.0463	0.2196	929.5096	0.105553	-419.640695	-419.633488	-419.632544	-419.672324	26.501	
O	-0.0263107647	 1.4251493958	-0.1590507186	-0.426945
C	 0.0342450366	 0.0369712099	-0.0254826276	 0.141433
C	 0.4204811543	-0.5809115196	 1.3751948378	-0.352384
C	-0.9399397567	-1.2692774595	 1.392444294	 0.318201
O	-1.9477893535	-0.2483426021	 1.2531956161	-0.281135
C	-1.3181381758	-0.7015027296	 0.0625183434	-0.077569
C	-1.3554929601	-2.5722339089	 1.9451140867	 0.063976
O	-0.5902619756	-3.3584468692	 2.446321127	-0.253358
H	-0.6721689256	 1.7385714211	 0.4865469412	 0.291827
H	 0.6688907338	-0.3416486726	-0.8294042923	 0.108725
H	 1.254872587	-1.2814562704	 1.3208447909	 0.137178
H	 0.585490879	 0.1363527122	 2.1817263598	 0.118222
H	-1.9574162602	-1.1006301875	-0.7178896583	 0.120064
H	-2.4435526386	-2.7734611195	 1.8420132697	 0.091765
95.3793	155.1336	166.4731	287.8517	369.2266	425.9538	466.1892	488.5753	625.7865	696.3507	752.4673	805.0666	853.3046	919.7714	962.0009	973.4638	1016.4017	1037.5982	1111.4793	1135.3817	1195.6475	1206.5185	1255.1431	1286.4919	1326.0239	1369.3993	1427.9387	1438.9523	1472.9783	1811.2815	2906.8861	3081.4053	3100.3761	3146.5035	3181.1609	3781.9657
OC1CC2(OC12)C=O	O[C@H]1C[C@]2(O[C@@H]12)C=O	
InChI=1S/C5H6O3/c6-2-5-1-3(7)4(5)8-5/h2-4,7H,1H2	InChI=1S/C5H6O3/c6-2-5-1-3(7)4(5)8-5/h2-4,7H,1H2/t3-,4-,5-/m0/s1
