12
gdb 5684	5.51022	2.37482	1.65957	4.1656	60.29	-0.2208	0.002	0.2228	700.1568	0.08746	-377.55284	-377.547608	-377.546664	-377.581994	20.746	
O	-0.0549074164	 1.3087935909	 0.0096246925	-0.213884
C	 1.245109041	 1.7724319019	-0.0001205456	-0.046261
C	 2.1277182461	 0.75200362	-0.0142371333	-0.136147
N	 1.3594082061	-0.4098215487	-0.0133943767	-0.032559
C	 1.3587490659	-1.7967181509	-0.0210099718	-0.164899
C	 0.0236399259	-2.1309894004	-0.009928798	-0.084136
N	-0.8098068508	-1.0214257856	 0.0039605222	-0.392131
C	 0.0431415041	-0.039567126	 0.0012273271	 0.49714
H	 1.3688723885	 2.8405658805	 0.0046337055	 0.160829
H	 3.2032878563	 0.761431369	-0.0244712525	 0.161891
H	 2.2607528834	-2.3824077115	-0.0329252548	 0.134586
H	-0.39344085	-3.1265537891	-0.0113330346	 0.115572
206.7405	334.219	495.2355	578.8169	613.7261	678.8752	708.4664	726.479	754.5377	762.9466	782.8324	848.5314	918.1349	956.2043	1059.7443	1089.1886	1142.0937	1168.9165	1201.7343	1278.218	1304.774	1420.8679	1454.198	1504.3424	1597.9678	1645.7903	3253.2775	3291.5739	3296.0152	3316.1293
O1C=CN2C=CN=C12	o1ccn2ccnc12	
InChI=1S/C5H4N2O/c1-2-7-3-4-8-5(7)6-1/h1-4H	InChI=1S/C5H4N2O/c1-2-7-3-4-8-5(7)6-1/h1-4H
