21
gdb 31697	5.20719	0.80542	0.74081	1.3387	88.77	-0.1662	0.0547	0.2209	1618.741	0.183255	-383.304315	-383.294445	-383.293501	-383.339609	36.369	
C	-0.3328013327	 1.4800414446	 0.042421132	-0.362857
C	 0.1192010835	 0.010823326	-0.0508379429	-0.298084
C	 0.8791841612	-0.4657261356	 1.1471480652	 0.348204
C	 2.221180191	-0.7368217373	 1.3108730822	-0.358101
C	 2.4314147924	-1.1319538805	 2.6673123967	 0.315517
N	 3.673909063	-1.4411490098	 3.237083875	-0.381267
C	 3.6627908549	-2.0744287824	 4.5417486044	-0.317004
C	 1.203439212	-1.0941207795	 3.295942334	-0.182504
N	 0.2741799311	-0.6767633674	 2.3578725539	-0.316453
H	 0.5294606496	 2.1427183106	 0.1612063996	 0.12604
H	-0.8781588126	 1.7807984633	-0.8580890578	 0.109217
H	-0.9920761267	 1.6403485766	 0.9019854421	 0.108253
H	-0.7605797212	-0.6262266376	-0.2188588337	 0.098146
H	 0.757696595	-0.1173381366	-0.9307104607	 0.112436
H	 2.9780457973	-0.6536723942	 0.5445205024	 0.078036
H	 4.2781265459	-1.9195208446	 2.583336045	 0.226651
H	 4.6859285614	-2.3267875372	 4.8318730735	 0.114623
H	 3.2694505709	-1.373595317	 5.287375777	 0.125559
H	 3.0469946968	-2.9893645724	 4.5875043445	 0.10031
H	 0.9124708101	-1.3202966917	 4.3072071922	 0.102797
H	-0.7087227328	-0.5724105473	 2.5350389754	 0.25048
37.2237	73.9309	147.0824	170.8613	212.1599	235.2054	301.6373	321.1956	331.0613	426.823	470.3858	555.4884	622.7171	653.3702	672.611	699.9024	738.4743	777.8089	784.843	946.3556	979.0571	1008.0901	1060.3911	1079.1587	1085.7203	1134.0367	1148.5686	1163.4175	1199.7496	1260.4365	1303.8871	1317.106	1354.2259	1402.0379	1411.7058	1457.2896	1471.1408	1480.835	1486.7225	1494.7975	1502.7016	1506.5702	1524.0884	1563.1654	1647.1465	2953.5504	3007.4201	3033.1867	3051.677	3072.7355	3101.96	3110.3165	3113.6159	3234.2714	3278.2793	3573.3034	3688.0806
CCC1=CC(NC)=CN1	CCc1cc(NC)c[nH]1	
InChI=1S/C7H12N2/c1-3-6-4-7(8-2)5-9-6/h4-5,8-9H,3H2,1-2H3	InChI=1S/C7H12N2/c1-3-6-4-7(8-2)5-9-6/h4-5,8-9H,3H2,1-2H3
