19
gdb 107861	2.66304	1.48279	1.14508	3.2846	79.84	-0.2384	0.0078	0.2462	1126.5723	0.159064	-385.843694	-385.835676	-385.834732	-385.876494	31.021	
C	 0.0188785055	 1.5232763276	 0.0792816097	-0.381212
C	-0.0749913909	-0.0028058775	-0.0329401297	-0.315051
C	-1.4951904334	-0.5092642641	-0.056488094	 0.378772
C	-2.6325449901	-0.2035272343	-1.060647287	-0.321331
C	-3.2576748786	-1.1740886023	-0.0461721745	-0.039435
C	-1.9383340643	-2.0284878879	 0.0676524429	-0.247882
C	-1.977476186	-1.8798071295	 1.5842670633	 0.445461
O	-1.7156863691	-2.4991076831	 2.5708476018	-0.33512
C	-2.5076853534	-0.5118966489	 1.17118553	-0.235059
H	 1.0622683183	 1.8514320308	 0.079770764	 0.119032
H	-0.4850195508	 2.0146591866	-0.759599535	 0.120502
H	-0.4454245237	 1.8814621321	 1.0038912238	 0.121771
H	 0.4336706091	-0.3383516932	-0.9461245132	 0.104703
H	 0.4538714206	-0.4737129621	 0.8057046891	 0.114295
H	-3.0232447689	 0.8186647175	-1.0719162143	 0.100568
H	-2.4976713207	-0.5731387461	-2.0822962712	 0.098676
H	-4.2667213225	-1.5821611233	-0.0037029169	 0.09172
H	-1.6332456398	-2.8451367242	-0.5844337058	 0.089417
H	-2.8377036613	 0.3527449718	 1.744040047	 0.090174
73.1866	121.1285	184.7978	215.6989	318.5851	338.0239	400.5299	526.6825	593.7197	636.5684	692.6873	769.4695	790.684	805.073	832.7898	863.2701	931.9611	963.771	980.7008	982.6419	1013.9122	1044.3635	1061.147	1079.9252	1105.9746	1119.6982	1137.4039	1158.6203	1192.8028	1213.7136	1228.3517	1260.2792	1309.3708	1312.9556	1373.9193	1411.5681	1477.9126	1499.2413	1506.234	1520.9244	1909.2654	3018.5598	3036.4041	3039.8003	3052.625	3095.6563	3104.8944	3110.9432	3121.0467	3137.8469	3143.5374
CCC12CC3C1C(=O)C23	CC[C@@]12C[C@H]3[C@@H]1C(=O)[C@@H]23	
InChI=1S/C8H10O/c1-2-8-3-4-5(8)7(9)6(4)8/h4-6H,2-3H2,1H3	InChI=1S/C8H10O/c1-2-8-3-4-5(8)7(9)6(4)8/h4-6H,2-3H2,1H3/t4-,5+,6-,8+
