18
gdb 12965	2.24788	2.20382	1.79062	0.9407	67.78	-0.2465	0.0726	0.3191	876.1395	0.15263	-384.904165	-384.895846	-384.894902	-384.936194	31.801	
C	-0.068217922	 1.542538469	-0.0504793049	-0.417752
C	 0.0813427301	 0.0409804243	 0.0964382027	-0.067237
C	 1.3338554093	-0.7644223826	-0.1797379954	-0.128954
C	 2.5827190351	-0.0129960932	 0.2911074004	-0.280315
C	 2.0069965478	-0.0464782464	 1.75200022	 0.045293
O	 1.816434742	 1.1562485224	 2.4708860113	-0.435139
C	 0.7351827979	-0.7017294238	 1.2315837739	 0.36156
O	 0.088221195	-1.7159542809	 1.9210224457	-0.463615
H	 0.7690156512	 2.0853309149	 0.3890223798	 0.137026
H	-0.1540994688	 1.8232672333	-1.1065494433	 0.10878
H	-0.9754964472	 1.8871514009	 0.4580290083	 0.111719
H	-0.796656223	-0.5162207991	-0.2291600003	 0.086462
H	 1.3296963488	-1.5994799343	-0.8690481434	 0.090982
H	 3.5094078162	-0.5817228253	 0.1863205513	 0.099866
H	 2.7292903147	 0.9856224413	-0.1293952236	 0.099284
H	 2.5584232198	-0.7802459916	 2.3546262277	 0.080947
H	 2.6666134117	 1.4339714842	 2.8263429616	 0.28353
H	-0.6465222587	-1.3268333031	 2.4073841882	 0.287563
141.5342	177.3882	212.2283	225.3134	273.1271	284.8239	308.3123	369.6822	425.8361	511.5709	585.1491	647.2883	714.5477	758.6092	834.5938	900.3368	942.0056	966.1092	997.7434	1042.2372	1067.508	1100.1039	1124.9819	1134.3109	1163.4218	1190.3021	1228.3888	1237.4441	1261.0133	1313.0525	1325.2058	1346.4715	1416.119	1426.6809	1464.6452	1493.0648	1505.0298	1509.6856	3016.3563	3031.6483	3058.7854	3084.9192	3110.4124	3115.225	3147.1524	3192.0292	3799.191	3815.4514
CC1C2CC(O)C12O	C[C@H]1[C@H]2C[C@@H](O)[C@@]12O	
InChI=1S/C6H10O2/c1-3-4-2-5(7)6(3,4)8/h3-5,7-8H,2H2,1H3	InChI=1S/C6H10O2/c1-3-4-2-5(7)6(3,4)8/h3-5,7-8H,2H2,1H3/t3-,4+,5+,6+/m0/s1
