19
gdb 78014	2.80063	1.25436	1.03625	2.2679	78.59	-0.2451	-0.0216	0.2235	1205.5951	0.157991	-423.009762	-423.000816	-422.999872	-423.043151	33.691	
C	-0.301406116	 1.5669956696	 0.0971502891	-0.415083
C	 0.0263036156	 0.0789183869	 0.0479033007	 0.040866
C	 1.1384909555	-0.4438414046	-0.9200316064	-0.320372
C	 1.7995017197	-1.1944133745	 0.2371636987	 0.199441
C	 2.2752623096	-2.5776700807	 0.2039550204	 0.050618
O	 2.333003762	-3.2633729956	-0.7916003861	-0.274392
C	 2.1830023456	-0.2332882857	 1.3466276177	 0.054069
O	 2.6469290184	 1.052356971	 1.0678053875	-0.408573
C	 0.7489973897	-0.5673300328	 1.2439641065	-0.156475
H	 0.5975765445	 2.1621894712	 0.2658153974	 0.143082
H	-0.7624654082	 1.8875075085	-0.8437313463	 0.112499
H	-1.0111145163	 1.7833775734	 0.903500906	 0.111994
H	-0.8896300764	-0.4902303442	-0.1386502026	 0.084931
H	 0.7718116066	-1.1171575392	-1.6950122157	 0.126726
H	 1.7628941466	 0.3278440406	-1.3775483363	 0.099676
H	 2.5870406777	-2.9789331531	 1.1977290521	 0.058666
H	 2.6844723008	-0.7216649873	 2.1847151948	 0.098697
H	 3.5424482167	 0.9799048734	 0.719265353	 0.293055
H	 0.249107958	-1.081991047	 2.0576194895	 0.100574
93.8015	163.5693	168.9447	214.1476	226.9631	275.3505	307.0759	314.1479	379.54	455.1519	523.5851	601.5263	674.1259	748.3616	764.7019	853.3975	877.5887	903.8859	976.6116	990.3048	1020.6399	1047.8245	1080.437	1095.6499	1121.1462	1148.7456	1187.7862	1241.5264	1248.2939	1265.6553	1293.2552	1333.1971	1348.8008	1376.8646	1408.2973	1428.2912	1473.5811	1490.755	1497.6276	1506.7494	1793.1246	2844.0682	3032.9063	3054.0419	3070.1922	3086.3807	3091.0348	3136.7248	3141.1948	3171.526	3801.1304
CC1CC2(C=O)C(O)C12	C[C@H]1C[C@@]2(C=O)[C@@H](O)[C@@H]12	
InChI=1S/C7H10O2/c1-4-2-7(3-8)5(4)6(7)9/h3-6,9H,2H2,1H3	InChI=1S/C7H10O2/c1-4-2-7(3-8)5(4)6(7)9/h3-6,9H,2H2,1H3/t4-,5+,6-,7-/m0/s1
