17
gdb 131608	4.17098	0.90132	0.8585	3.3694	70.31	-0.241	0.013	0.254	1351.3523	0.137482	-455.153037	-455.144404	-455.14346	-455.187123	31.584	
O	 0.1280041402	 1.4468633381	-0.0936400117	-0.425454
C	 0.1179486883	 0.0410201586	 0.0220744838	-0.042233
C	-1.3137580238	-0.5062698772	 0.0355263758	-0.040651
O	-1.8856265988	-0.0293254797	-1.1884979556	-0.443882
C	-1.3681276978	-1.9994340876	 0.1318066918	 0.191613
C	-1.6834649119	-2.7773425314	 1.2297036072	-0.149059
N	-1.5741228299	-4.0673800281	 0.8322421435	-0.177693
N	-1.2168220088	-4.1967104961	-0.4596204191	-0.221405
C	-1.0879749632	-2.9451790007	-0.8867804916	-0.077514
H	-0.4604010815	 1.6505199552	-0.830789366	 0.291402
H	 0.6689849304	-0.4435953771	-0.8001260875	 0.09203
H	 0.6176448658	-0.2163062223	 0.9607587666	 0.107611
H	-1.8346879068	-0.0561787314	 0.8945507061	 0.070993
H	-2.7966242959	-0.3355042272	-1.234073678	 0.287773
H	-1.9674644921	-2.5125276136	 2.2363735617	 0.138577
H	-1.7370050887	-4.8966578036	 1.3777769433	 0.276921
H	-0.8114111956	-2.7506178459	-1.9122059901	 0.12097
45.4289	115.3405	117.5282	214.1909	263.4568	309.5772	363.109	422.1087	456.9196	525.432	534.3411	672.6264	707.2651	779.2173	798.408	886.6273	900.1735	953.6529	1010.2241	1034.6024	1059.9455	1076.7595	1095.6644	1168.6472	1191.3608	1237.3738	1275.4926	1291.7029	1347.4929	1367.8938	1391.6919	1409.5795	1427.4296	1440.9239	1493.5536	1496.1848	1607.6541	2974.7636	2990.4021	3088.4955	3254.0176	3257.0302	3675.1534	3790.9372	3827.0293
OCC(O)C1=CNN=C1	OC[C@@H](O)c1c[nH]nc1	
InChI=1S/C5H8N2O2/c8-3-5(9)4-1-6-7-2-4/h1-2,5,8-9H,3H2,(H,6,7)	InChI=1S/C5H8N2O2/c8-3-5(9)4-1-6-7-2-4/h1-2,5,8-9H,3H2,(H,6,7)/t5-/m1/s1
