17
gdb 82729	2.88768	1.87315	1.38567	3.9077	71.91	-0.2381	0.0065	0.2446	941.9836	0.13804	-417.991737	-417.984541	-417.983597	-418.023312	27.946	
C	-0.0605176584	 1.3964001727	-0.134456749	-0.350924
N	-0.0177673122	-0.0024279284	 0.23712916	-0.069096
C	-1.1824199904	-0.8683102297	 0.1276783242	-0.062349
C	-1.2002969714	-1.5501854025	-1.2707199182	-0.162368
N	-0.4160889161	-2.7179285474	-0.7481337381	-0.151212
C	-0.6923143026	-2.244988876	 0.6435687243	-0.04434
C	 0.6946306324	-2.1976231808	 0.1447681161	-0.158229
C	 1.1303743377	-0.7555992263	 0.0593266943	 0.4202
O	 2.2521052336	-0.3274219918	-0.1076676077	-0.394915
H	 0.9627306639	 1.7745867479	-0.1037809397	 0.167047
H	-0.4593760359	 1.5444802449	-1.1479352531	 0.121813
H	-0.6796572366	 1.9619651671	 0.5690397271	 0.12675
H	-2.088118593	-0.4092688723	 0.5212197568	 0.091298
H	-2.1865253118	-1.9212978521	-1.5590266813	 0.121348
H	-0.7432434896	-1.0027888487	-2.1019640768	 0.114472
H	-1.0870820177	-2.8696601757	 1.4356073383	 0.108191
H	 1.4328848883	-2.9539942009	 0.3739530227	 0.122313
137.7824	151.5148	172.326	286.8307	370.8909	445.038	470.2713	583.8634	673.8431	703.5653	772.1099	799.4313	818.1324	869.0722	884.2463	921.7053	965.2344	993.4896	1017.5953	1053.3477	1093.5378	1137.4172	1162.1011	1165.919	1182.821	1214.2832	1245.3144	1270.21	1287.2029	1308.1535	1346.296	1407.5572	1448.0653	1491.3857	1493.1284	1513.3985	1814.789	3005.347	3045.5735	3076.562	3113.3208	3127.3318	3144.0488	3188.5382	3219.9331
CN1C2CN3C2C3C1=O	CN1[C@H]2CN3[C@H]2[C@@H]3C1=O	
InChI=1S/C6H8N2O/c1-7-3-2-8-4(3)5(8)6(7)9/h3-5H,2H2,1H3	InChI=1S/C6H8N2O/c1-7-3-2-8-4(3)5(8)6(7)9/h3-5H,2H2,1H3/t3-,4+,5+,8?/m0/s1
