21
gdb 115607	3.16275	1.03219	0.95509	3.1454	75.22	-0.249	0.0658	0.3148	1341.9891	0.18004	-461.331712	-461.321549	-461.320605	-461.367056	36.653	
C	 0.2778557698	 1.4024102954	 0.0926553373	-0.240492
O	-0.2576294341	 0.1581835838	-0.3037770627	-0.239003
C	 0.5470273722	-0.5242230255	-1.2238429473	 0.021874
C	 1.7376187814	-1.3257658027	-0.6485084595	-0.103928
O	 1.1342681797	-2.580919569	-1.0259031661	-0.337356
C	-0.0211140048	-1.9079813913	-1.6289407191	 0.352678
C	-1.3194075011	-2.3443981012	-0.977655573	-0.428959
C	 0.0186678055	-2.1970687061	-3.1322148715	-0.089482
O	 0.0530222842	-3.5895820949	-3.3660313769	-0.422854
H	 1.2424509246	 1.291290047	 0.6102924626	 0.110305
H	 0.4235983863	 2.0719530533	-0.7692641056	 0.109274
H	-0.4382020966	 1.8580567448	 0.7800150668	 0.133935
H	 0.8011374816	 0.1294178535	-2.0717533633	 0.068356
H	 2.7090808757	-1.1711881285	-1.1328709772	 0.101882
H	 1.8516407618	-1.2378873137	 0.4386353131	 0.107662
H	-1.2683724592	-2.2260586301	 0.1053867838	 0.126174
H	-2.1536479694	-1.742529229	-1.3509679523	 0.120258
H	-1.5081506388	-3.3924817452	-1.2239519932	 0.132141
H	-0.8773647161	-1.8041198093	-3.6254354531	 0.108587
H	 0.8948119463	-1.6967827408	-3.5770829754	 0.077008
H	 0.7703658109	-3.9227644506	-2.8107464474	 0.29194
61.0123	95.4465	115.4434	160.8028	196.9053	207.0468	237.3658	314.914	334.6005	343.0399	403.5814	468.1029	505.5366	588.7602	694.9023	825.9332	867.8395	901.9411	943.4821	970.0736	1016.4588	1038.8571	1057.8149	1078.4192	1132.2895	1159.3351	1180.5647	1183.6915	1188.0235	1209.383	1247.1987	1283.0943	1286.893	1334.6214	1379.7024	1398.2999	1409.5419	1431.8258	1478.7449	1483.8891	1487.3293	1488.7828	1500.763	1508.1582	1510.485	2961.6573	2976.519	2988.4426	3018.0967	3026.627	3050.8	3067.1982	3069.1653	3121.3308	3122.4911	3147.6021	3767.6537
COC1COC1(C)CO	CO[C@H]1CO[C@]1(C)CO	
InChI=1S/C6H12O3/c1-6(4-7)5(8-2)3-9-6/h5,7H,3-4H2,1-2H3	InChI=1S/C6H12O3/c1-6(4-7)5(8-2)3-9-6/h5,7H,3-4H2,1-2H3/t5-,6+/m0/s1
