17
gdb 82853	3.16818	1.7995	1.79533	2.7697	65.37	-0.2389	0.0784	0.3172	846.7279	0.139092	-458.958343	-458.95204	-458.951096	-458.98876	26.477	
O	 0.0915733627	 1.4118441866	-0.0477284233	-0.440025
C	 0.0060615545	 0.0267217866	 0.0090113836	 0.176685
C	 0.2176909563	-0.6958774111	 1.3672063802	 0.028108
O	-0.5036512264	 0.0381086245	 2.3819949997	-0.283032
C	-1.862076029	-0.32916681	 2.1740052249	 0.173073
C	-1.8120736956	-1.8558739147	 2.0684790144	-0.244545
C	-0.8204280388	-1.7847013322	 0.9156221596	-0.111188
C	-1.3899710333	-0.6531469836	-0.0130066403	 0.028108
O	-2.2613386204	 0.0848408231	 0.8729742639	-0.283043
H	-0.4950965269	 1.7410131466	 0.6455932354	 0.290058
H	 0.6589663803	-0.3900938836	-0.7643857865	 0.088231
H	 1.2138032915	-0.9366929762	 1.7390507496	 0.081118
H	-2.4894837061	 0.1550099838	 2.9197916728	 0.09674
H	-1.4134835516	-2.3260761102	 2.9692437645	 0.11566
H	-2.776632466	-2.2898353664	 1.7989509346	 0.115659
H	-0.4465773971	-2.6928727166	 0.452044013	 0.087273
H	-1.9150734443	-0.8535267067	-0.9471460462	 0.081118
180.0895	200.7957	366.6765	460.9821	487.8059	530.8407	591.6655	598.3656	724.5749	781.9365	825.3711	827.9962	849.7032	873.9738	901.1604	953.956	960.9573	976.1054	990.159	1034.2027	1046.7482	1094.6858	1110.003	1147.8422	1149.2035	1204.2398	1209.381	1244.8117	1255.5517	1288.279	1293.4697	1300.0733	1329.6537	1359.2495	1364.6042	1446.8647	1478.0858	3070.4207	3080.4395	3110.0681	3111.9315	3141.2414	3154.653	3167.185	3778.343
OC1C2OC3CC2C1O3	O[C@H]1[C@H]2O[C@@H]3C[C@H]2[C@H]1O3	
InChI=1S/C6H8O3/c7-4-5-2-1-3(8-5)9-6(2)4/h2-7H,1H2	InChI=1S/C6H8O3/c7-4-5-2-1-3(8-5)9-6(2)4/h2-7H,1H2/t2-,3+,4+,5+,6-
