15
gdb 69646	3.97295	1.14994	1.13082	3.7477	67.	-0.244	-0.0449	0.1991	1094.6089	0.109641	-457.677447	-457.669604	-457.66866	-457.709765	29.888	
O	-0.1244202344	 1.408896277	 0.1353123948	-0.449066
C	-0.0796577526	 0.0375120429	 0.0257784669	 0.356514
C	-0.2949338713	-0.7399150464	-1.2439557991	-0.350918
C	-1.2520776272	-0.9105735139	-0.0803507318	-0.206732
C	-0.6262236387	-1.7959578608	 1.0450116212	 0.319299
O	 0.7060558112	-2.1871556743	 0.6790934878	-0.248127
C	 0.5254531539	-0.8686424019	 1.1546069549	-0.110003
C	-1.330231321	-2.5155326353	 2.1272528876	 0.055917
O	-0.8050666147	-3.2733025318	 2.9031858521	-0.254676
H	 0.655193815	 1.7764486355	-0.2973934491	 0.294088
H	-0.705495238	-0.1344062685	-2.0460062108	 0.124375
H	 0.3664993213	-1.5422295887	-1.5462521695	 0.141874
H	-2.3073548498	-0.6810221153	-0.1394529609	 0.113287
H	 1.0719520903	-0.5481062969	 2.0349464647	 0.133321
H	-2.415593454	-2.2747259915	 2.1822758212	 0.080846
91.9198	158.5252	198.9235	288.6325	320.9125	362.8214	389.2933	422.6988	497.6879	554.8354	650.1368	737.6843	785.449	832.0674	853.4963	871.881	925.8561	961.9419	989.5318	1003.9929	1036.4284	1066.114	1093.7835	1114.3253	1171.6405	1210.7933	1275.9417	1293.0941	1389.7577	1410.0265	1431.4428	1486.6047	1813.4657	2880.8738	3139.6733	3186.1805	3212.3064	3235.5515	3780.745
OC12CC1C1(OC21)C=O	O[C@]12C[C@H]1[C@]1(O[C@@H]21)C=O	
InChI=1S/C6H6O3/c7-2-6-3-1-5(3,8)4(6)9-6/h2-4,8H,1H2	InChI=1S/C6H6O3/c7-2-6-3-1-5(3,8)4(6)9-6/h2-4,8H,1H2/t3-,4+,5-,6-/m1/s1
