20
gdb 102355	1.79773	1.4733	1.09333	2.2734	79.27	-0.2736	-0.051	0.2226	1246.2973	0.167648	-403.181017	-403.170217	-403.169272	-403.217583	37.555	
C	 0.0644713813	 1.6219218786	 0.2381395793	-0.416427
C	 0.0152469489	 0.1087911539	 0.0148500873	-0.201243
C	 0.7382489635	-0.3848672636	-1.2674683892	-0.011322
C	 0.694729889	-1.9461184063	-1.3279698168	-0.201198
C	 1.3851518047	-2.5743471043	-2.5412196326	-0.417049
C	 0.0100134856	 0.1496275674	-2.522808414	 0.160562
O	-1.1875563281	 0.1498321759	-2.6113989626	-0.253814
C	 2.1306531427	 0.0746450725	-1.2923679016	 0.278719
N	 3.2261306807	 0.442585301	-1.3303932676	-0.347925
H	 1.0941941042	 1.9831379723	 0.3169735002	 0.14281
H	-0.4267293585	 2.1627791612	-0.5765618691	 0.132159
H	-0.4541363078	 1.8815340801	 1.1652169015	 0.125108
H	 0.4567971582	-0.4125215265	 0.870555887	 0.113197
H	-1.0229695613	-0.2238023149	-0.0729256348	 0.130473
H	 1.1472941028	-2.3220274433	-0.404488794	 0.119929
H	-0.3642608411	-2.2229677644	-1.3072807871	 0.12811
H	 0.906714291	-2.2801646501	-3.4810758279	 0.128626
H	 2.4400541085	-2.289249646	-2.5932644669	 0.147288
H	 1.3348729758	-3.6647431705	-2.4764720499	 0.128996
H	 0.65908102	 0.507475337	-3.3483664712	 0.113001
33.6084	96.4952	98.294	139.9227	156.6987	197.9501	217.1443	236.2005	283.5401	303.6992	381.3194	401.302	524.0737	558.488	602.0254	722.7504	781.488	789.0372	890.0343	944.0186	974.1015	998.4955	1054.9103	1071.624	1102.9272	1126.7404	1182.3997	1208.8531	1291.6121	1336.37	1341.8077	1379.2272	1417.5578	1417.6677	1424.0796	1472.0061	1485.2817	1501.6425	1502.0536	1504.0417	1505.3853	1830.6969	2349.4101	2919.5093	3040.7981	3043.2454	3044.7013	3051.7934	3087.1923	3096.4292	3111.8661	3115.2994	3119.851	3121.0908
CCC(CC)(C=O)C#N	CCC(CC)(C=O)C#N	
InChI=1S/C7H11NO/c1-3-7(4-2,5-8)6-9/h6H,3-4H2,1-2H3	InChI=1S/C7H11NO/c1-3-7(4-2,5-8)6-9/h6H,3-4H2,1-2H3
