25
gdb 101741	2.95252	0.90316	0.72879	0.9057	90.42	-0.2412	0.0813	0.3225	1666.5405	0.227451	-389.48719	-389.476605	-389.475661	-389.52378	39.043	
C	 0.0692976007	 1.5538736426	-0.2624167333	-0.384418
C	-0.0076881129	 0.0275404439	-0.1893134984	-0.173861
C	-1.4336862858	-0.5027596552	-0.0237755059	 0.142222
C	-1.4853504974	-2.0327727916	-0.05877518	-0.399205
O	-1.9261215718	 0.0184781509	 1.2076482513	-0.266105
C	-3.3169034736	 0.0168928241	 1.3830371668	 0.177056
C	-4.0096979239	-1.169504424	 2.1184907078	-0.240386
C	-4.8761039645	-0.1229124495	 2.8705938878	-0.222932
C	-3.8204900196	 0.9552013842	 2.5002200703	-0.247075
H	 1.1055243041	 1.8934788059	-0.3537846145	 0.107017
H	-0.4836508776	 1.9363408191	-1.128166629	 0.106695
H	-0.3623246661	 2.0019518064	 0.635707094	 0.131894
H	 0.4209168807	-0.4168203768	-1.0957182339	 0.090694
H	 0.5917917787	-0.3382411409	 0.6538057388	 0.101383
H	-2.0560456766	-0.1064919116	-0.8456857737	 0.060314
H	-2.5099329902	-2.4010571697	 0.0408891603	 0.11733
H	-1.0840830338	-2.4083750019	-1.0058559791	 0.11019
H	-0.890293165	-2.4514721099	 0.7593168206	 0.11974
H	-3.8220714606	 0.2288005768	 0.4280376931	 0.062164
H	-4.5174823354	-1.9306280506	 1.5205590213	 0.091021
H	-3.2956108289	-1.6560374655	 2.788979828	 0.107475
H	-5.8325260788	 0.0521209236	 2.3701785015	 0.101986
H	-5.0675091847	-0.2963966275	 3.9310618056	 0.100423
H	-3.0517176222	 1.0448988527	 3.2729997952	 0.111634
H	-4.1619881347	 1.9539371445	 2.2187240354	 0.094744
32.7971	68.1699	110.0269	123.7157	201.5101	216.2766	228.5664	257.7436	303.631	402.1287	434.2704	471.4119	500.1392	645.0166	757.092	783.3901	791.3488	832.514	900.3269	917.3253	925.0769	938.8199	976.2528	987.4482	1009.5343	1040.3511	1050.8608	1127.0295	1130.5762	1167.9098	1168.2237	1192.0044	1202.9129	1244.1738	1247.1926	1257.0363	1273.8647	1297.1238	1302.114	1330.7568	1362.5279	1393.6958	1402.0588	1404.7584	1425.2514	1470.7721	1474.5207	1486.4019	1489.9687	1495.6734	1498.6085	1510.2775	1511.018	2944.9888	2981.2694	3027.2093	3034.6687	3037.623	3054.894	3060.5474	3064.8462	3065.7417	3098.286	3105.3389	3107.7342	3113.2881	3117.3966	3126.4688	3126.7681
CCC(C)OC1CCC1	CC[C@@H](C)OC1CCC1	
InChI=1S/C8H16O/c1-3-7(2)9-8-5-4-6-8/h7-8H,3-6H2,1-2H3	InChI=1S/C8H16O/c1-3-7(2)9-8-5-4-6-8/h7-8H,3-6H2,1-2H3/t7-/m1/s1
