23
gdb 121822	3.63979	0.71461	0.69531	2.7755	83.15	-0.2505	-0.0246	0.226	1767.4298	0.200684	-425.43986	-425.428107	-425.427163	-425.481123	40.726	
C	 0.1665736232	 1.5078253696	-0.0902888226	-0.383962
C	 0.006669355	-0.0125510565	-0.0198630898	-0.176824
C	-1.4549104835	-0.4427416808	 0.0161745792	-0.053776
O	-1.489565263	-1.857037093	 0.0803740116	-0.298502
C	-2.7610466777	-2.4968919314	 0.1238401159	 0.279598
C	-3.5623500301	-2.1447564495	 1.3889906843	-0.426481
C	-3.5922947713	-2.2581107801	-1.1483531851	-0.426507
C	-2.3952090805	-3.9861375162	 0.18640419	 0.142895
O	-3.2048196154	-4.8742183335	 0.2333428896	-0.26374
H	 1.2228294766	 1.7903268059	-0.1150572801	 0.119264
H	-0.3074831204	 1.9190082498	-0.9884470446	 0.116726
H	-0.2873832592	 1.9987073751	 0.7777250152	 0.116722
H	 0.4870581582	-0.4869997438	-0.8831637834	 0.106372
H	 0.5070205651	-0.4078227662	 0.8715248178	 0.106363
H	-1.9552302781	 0.0040359647	 0.8889847998	 0.089295
H	-1.9753894616	-0.0758773871	-0.8817295313	 0.089319
H	-3.9521065372	-1.1241161503	 1.3432953085	 0.118621
H	-4.4064232807	-2.8324008955	 1.4828164764	 0.141662
H	-2.9343108333	-2.2394527112	 2.2798260441	 0.124519
H	-2.9849865889	-2.4314524061	-2.0417239436	 0.124519
H	-4.4368671003	-2.9513927166	-1.1610879699	 0.141702
H	-3.9829694232	-1.2374297246	-1.1841666016	 0.11856
H	-1.2995630535	-4.1724090228	 0.1846157695	 0.093656
1.4396	40.4535	67.9041	112.3396	144.7499	218.1033	233.0809	239.2816	263.3288	297.4637	300.2137	343.5822	384.1379	429.143	481.696	643.1685	761.0743	766.1813	889.6574	902.1933	910.6667	911.6234	954.575	992.2095	1035.3732	1049.8746	1108.0648	1143.0761	1190.3074	1198.2473	1209.5337	1262.8748	1269.1375	1318.3473	1336.0643	1379.8006	1383.5177	1407.1045	1413.0205	1431.1376	1482.0033	1485.2431	1492.0897	1500.4982	1500.8258	1505.6021	1509.0114	1529.7671	1837.3665	2907.2883	2976.9897	3007.4131	3031.5585	3038.9958	3042.2057	3045.36	3072.1801	3099.8774	3108.6863	3115.3162	3117.6756	3128.1112	3132.4966
CCCOC(C)(C)C=O	CCCOC(C)(C)C=O	
InChI=1S/C7H14O2/c1-4-5-9-7(2,3)6-8/h6H,4-5H2,1-3H3	InChI=1S/C7H14O2/c1-4-5-9-7(2,3)6-8/h6H,4-5H2,1-3H3
