20
gdb 73039	3.20456	1.03692	0.92229	4.4049	83.79	-0.2603	0.0418	0.302	1335.3912	0.171204	-366.006645	-365.997765	-365.996821	-366.040634	33.472	
C	-0.1651647591	 1.5681052626	 0.1099142799	-0.496029
C	-0.0348553913	 0.0725083797	 0.0409663734	 0.31526
C	-1.2313612857	-0.8960318616	 0.0402383394	-0.288875
C	-0.4291175309	-1.882358494	 0.9472313331	-0.232175
C	 0.7550203346	-0.9106485216	 0.9308619405	-0.097792
C	 1.2056204894	-0.6102506996	-0.4737429867	-0.046653
C	 1.2420152193	-1.618907253	-1.6175110742	-0.379487
C	 2.4333263774	-2.4674974071	-1.5670980297	 0.265803
N	 3.3820566002	-3.125339928	-1.5142341199	-0.310595
H	 0.7992367013	 2.0423360467	 0.3190710574	 0.121358
H	-0.5376251046	 1.9804702995	-0.8360797878	 0.121335
H	-0.8647378448	 1.8691818351	 0.8980875058	 0.119808
H	-2.0947772475	-0.474091721	 0.560225287	 0.107162
H	-1.572420398	-1.2620694348	-0.9344341101	 0.093836
H	-0.8758347177	-1.9822064418	 1.9381257519	 0.110212
H	-0.2424318362	-2.8885564464	 0.5576346557	 0.103967
H	 1.400377989	-0.6992921533	 1.7758801845	 0.089934
H	 2.0622803005	 0.0597346438	-0.492589878	 0.101416
H	 0.3604766352	-2.2664700203	-1.6081701388	 0.151682
H	 1.2322751492	-1.096495485	-2.5816360233	 0.149833
43.6998	116.7286	195.9217	213.495	248.2467	253.0587	318.3534	389.1241	423.2285	479.0811	574.1604	615.4166	726.0261	789.6335	806.6324	888.6685	904.2193	938.418	950.3538	958.2546	979.3353	1011.5201	1019.1696	1073.369	1111.9002	1142.1459	1156.4981	1209.8867	1224.0177	1239.6493	1249.4005	1276.0557	1308.1025	1314.8056	1356.2549	1416.8637	1461.0704	1467.5048	1485.2395	1492.3438	1498.7479	1514.5872	2360.1576	3019.4806	3040.3766	3044.3744	3051.4723	3077.2843	3093.5806	3094.3044	3097.136	3114.8933	3139.0174	3176.4975
CC12CCC1C2CC#N	C[C@]12CC[C@H]1[C@H]2CC#N	
InChI=1S/C8H11N/c1-8-4-2-6(8)7(8)3-5-9/h6-7H,2-4H2,1H3	InChI=1S/C8H11N/c1-8-4-2-6(8)7(8)3-5-9/h6-7H,2-4H2,1H3/t6-,7+,8-/m0/s1
