18
gdb 76154	2.11063	1.47342	1.19307	2.4565	73.88	-0.2551	0.	0.2551	1129.142	0.144413	-439.079416	-439.06937	-439.068426	-439.113688	36.854	
C	-0.0359678271	 1.5366927828	 0.0602328881	-0.441215
C	 0.0095305693	 0.0240152689	-0.0292771568	 0.184641
C	-1.2438668913	-0.6142672134	-0.5991124706	-0.458821
C	 1.3212989918	-0.6704069119	-0.3155345693	 0.049012
O	 2.5118462417	 0.0244806362	-0.4532724498	-0.427617
C	 0.7226852823	-0.7359607292	 1.0975031242	 0.165783
O	 1.3859952241	 0.0709669436	 2.0420462336	-0.465758
C	 0.1857446363	-1.9613426767	 1.6259619057	 0.244727
N	-0.2166619768	-2.9578848913	 2.0567624805	-0.350197
H	 0.8942675495	 1.9656985741	 0.4315581272	 0.127172
H	-0.2249202137	 1.9523381355	-0.9349304903	 0.128251
H	-0.8455056777	 1.8602862325	 0.7218688562	 0.129025
H	-1.4294788167	-0.2296842861	-1.6074975601	 0.127123
H	-1.160273507	-1.7024491916	-0.6638473581	 0.137133
H	-2.1177870403	-0.3846595875	 0.0197423698	 0.132245
H	 1.3008968311	-1.5679705776	-0.9263551135	 0.120913
H	 2.6730623802	 0.4741049989	 0.3881342993	 0.291537
H	 1.9956066244	-0.4900501872	 2.537372674	 0.306044
119.6292	120.962	145.0292	189.3363	204.3278	237.1259	268.5901	286.0067	305.3692	352.294	428.0548	459.7106	497.3566	555.6222	584.8728	608.3536	701.1247	736.2067	861.7332	966.1571	977.5853	1018.6644	1049.5595	1093.0215	1147.1883	1171.1723	1184.6164	1264.0189	1286.9126	1333.8627	1387.4709	1412.8905	1425.4461	1452.0229	1477.8424	1488.2289	1500.1161	1510.2278	2337.2179	3034.666	3045.7897	3100.3739	3105.236	3116.1002	3150.9323	3161.7739	3741.7635	3787.2376
CC1(C)C(O)C1(O)C#N	CC1(C)[C@@H](O)[C@]1(O)C#N	
InChI=1S/C6H9NO2/c1-5(2)4(8)6(5,9)3-7/h4,8-9H,1-2H3	InChI=1S/C6H9NO2/c1-5(2)4(8)6(5,9)3-7/h4,8-9H,1-2H3/t4-,6-/m1/s1
