19
gdb 41984	2.49267	2.07331	1.63085	1.2487	73.02	-0.229	0.0724	0.3014	907.6421	0.162861	-423.01356	-423.006644	-423.0057	-423.044997	27.807	
C	-0.0980239691	 1.440086277	-0.2536209229	-0.100062
O	 1.0516759212	 2.0398661918	 0.3428194324	-0.279541
C	 1.8890671129	 1.0656661537	 0.9783838245	 0.090774
C	 1.8213309274	 1.2704203515	 2.4975387334	-0.230396
C	 0.3662513333	 1.1803080252	 2.948695042	-0.060878
O	-0.304863879	-0.0135566437	 2.5352731652	-0.271633
C	 0.0813314202	-0.6406677459	 1.3509922357	 0.120413
C	 0.0027963714	-0.0588771769	-0.0462790409	-0.117523
C	 1.3456583182	-0.3115040107	 0.6137568306	-0.137843
H	-1.0020156889	 1.8722887771	 0.1967949303	 0.106359
H	-0.11256024	 1.6740877757	-1.3266428222	 0.10123
H	 2.9131283294	 1.1959115855	 0.6108417778	 0.077015
H	 2.4393710467	 0.5126171785	 2.9938283936	 0.100624
H	 2.2108859481	 2.2564224639	 2.7703268534	 0.106869
H	 0.2926518796	 1.1898208796	 4.040210421	 0.103653
H	-0.1737107973	 2.0562794606	 2.5679139599	 0.111538
H	-0.1894003684	-1.6905724106	 1.4151961554	 0.099714
H	-0.3666226962	-0.7034029926	-0.8362513666	 0.090817
H	 2.0383855403	-1.0828740199	 0.2983129475	 0.08887
94.8893	137.3164	251.1454	351.034	458.2946	492.0017	567.1748	665.652	715.362	737.01	759.3994	792.6751	833.8026	867.3809	917.3468	940.4849	964.8071	998.7395	1036.6831	1052.2683	1064.4869	1073.9985	1091.2763	1112.0363	1119.86	1148.9075	1199.3659	1227.6617	1239.856	1278.0706	1314.8692	1337.6308	1342.7961	1367.2579	1369.7853	1392.5917	1410.3225	1451.1376	1471.1798	1516.0621	1529.2043	3001.8345	3024.7549	3030.5587	3031.3232	3043.0227	3079.7232	3090.5768	3148.8292	3167.3152	3177.93
C1OC2CCOC3C1C23	C1O[C@H]2CCO[C@H]3[C@@H]1[C@@H]23	
InChI=1S/C7H10O2/c1-2-8-7-4-3-9-5(1)6(4)7/h4-7H,1-3H2	InChI=1S/C7H10O2/c1-2-8-7-4-3-9-5(1)6(4)7/h4-7H,1-3H2/t4-,5-,6-,7-/m0/s1
