18
gdb 95860	2.4848	1.42574	1.14252	2.7159	71.86	-0.2773	0.014	0.2913	1128.7612	0.148257	-439.107203	-439.098837	-439.097893	-439.140148	31.442	
C	 0.0490783717	 1.5206639357	-0.0006589706	-0.409552
C	 0.0475565309	 0.0105829318	-0.0547217036	 0.208403
O	 0.7658589625	-0.404100289	-1.1871096865	-0.243628
C	 0.8113818962	-1.8209950567	-1.2944836657	-0.097266
C	 1.468887264	-2.4181129509	-0.0496551414	-0.223321
C	 0.7590891782	-1.8725417955	 1.2049212678	-0.035071
O	 0.6518057168	-0.4622077895	 1.1480681604	-0.25148
C	-0.5686393016	-2.5073692683	 1.3926734025	 0.267735
N	-1.5995582947	-3.0087533376	 1.5389718312	-0.325953
H	 1.0778299318	 1.8835444974	 0.060526664	 0.137125
H	-0.4179251845	 1.921389022	-0.9028094956	 0.132692
H	-0.5050272977	 1.863343674	 0.8756199954	 0.13389
H	-0.9791117271	-0.394608442	-0.1064211025	 0.08292
H	-0.2059810157	-2.2244307605	-1.4213117032	 0.115459
H	 1.3844362918	-2.0499029836	-2.1957685804	 0.121151
H	 1.4358834864	-3.5114495249	-0.0676597723	 0.123853
H	 2.5139866008	-2.0991051946	-0.0009924503	 0.125588
H	 1.3489258802	-2.0907868678	 2.1005286509	 0.137453
110.3041	114.1669	203.0628	206.2058	278.8158	315.1451	331.4832	415.4029	448.0834	529.9042	580.4156	635.3929	689.2391	812.4903	862.3222	867.6915	904.9223	955.8747	981.0961	1067.4933	1077.1543	1098.7752	1123.2913	1158.5897	1181.0111	1246.9971	1270.6292	1313.9805	1368.0216	1370.3249	1391.0271	1393.4787	1418.3337	1436.0273	1464.0077	1482.3729	1488.2962	1502.9884	2351.4589	2948.357	2987.0584	3057.3793	3060.98	3071.1948	3103.726	3113.272	3143.0565	3145.8403
CC1OCCC(O1)C#N	C[C@H]1OCC[C@@H](O1)C#N	
InChI=1S/C6H9NO2/c1-5-8-3-2-6(4-7)9-5/h5-6H,2-3H2,1H3	InChI=1S/C6H9NO2/c1-5-8-3-2-6(4-7)9-5/h5-6H,2-3H2,1H3/t5-,6+/m0/s1
