22
gdb 93101	2.13164	1.75222	1.2495	2.2842	81.62	-0.2426	0.0283	0.2709	1118.1885	0.194139	-404.377162	-404.367821	-404.366876	-404.410449	36.148	
C	-0.0389454791	 1.5465095256	-0.1387111556	-0.421916
C	 0.0326468401	 0.0371449882	 0.0343925003	 0.140291
O	 0.6374523731	-0.4721796658	-1.1769390093	-0.24297
C	 1.0400911626	-1.7637721165	-1.1475859014	 0.117245
N	 1.1114514117	-2.5550773373	-0.1653152509	-0.272761
C	 0.7552155551	-2.0361386795	 1.1511822464	-0.173921
C	 0.7840119881	-0.4944832736	 1.2768890041	 0.206664
C	 2.2404607174	 0.0019491744	 1.3187615105	-0.419446
C	 0.0510787117	-0.0846591773	 2.5630390828	-0.432491
H	 0.958422179	 1.9872591372	-0.2101409871	 0.130413
H	-0.5799531143	 1.7848558801	-1.0583627005	 0.129263
H	-0.5685167221	 2.007734313	 0.6985342455	 0.122775
H	-0.9909200302	-0.3644428324	 0.0703739078	 0.082296
H	 1.3343872591	-2.0839707897	-2.1460155647	 0.119682
H	-0.2429876156	-2.4144175607	 1.412688644	 0.103044
H	 1.4436818596	-2.4760348207	 1.8830099824	 0.105143
H	 2.7900053752	-0.2702037116	 0.4139857702	 0.131552
H	 2.2936791818	 1.0886665545	 1.4328831327	 0.112656
H	 2.7624000168	-0.4431422028	 2.1721040164	 0.114066
H	 0.4814349676	-0.6053390486	 3.42554609	 0.118877
H	 0.1311025472	 0.9894742734	 2.7564133668	 0.116555
H	-1.012954515	-0.34331891	 2.5182548095	 0.112984
117.6114	149.1535	185.4771	225.0445	244.5561	277.1009	283.1453	342.166	358.3485	407.7533	457.0515	482.2245	549.3702	560.6589	716.1121	831.6558	867.75	898.3351	927.5344	954.1384	957.0438	980.6797	1000.7158	1015.9222	1062.1335	1101.3804	1151.7661	1171.2289	1198.3774	1228.8347	1238.969	1309.4873	1355.5064	1377.3531	1381.7002	1402.7911	1405.5075	1414.4418	1428.0682	1478.2517	1483.3851	1488.1878	1491.9624	1505.3768	1507.6475	1512.9627	1737.2126	2990.9624	3007.2898	3026.6461	3040.7604	3044.8885	3054.425	3091.8822	3099.8825	3104.4593	3120.9275	3125.8206	3134.6226	3152.542
CC1OC=NCC1(C)C	C[C@H]1OC=NCC1(C)C	
InChI=1S/C7H13NO/c1-6-7(2,3)4-8-5-9-6/h5-6H,4H2,1-3H3	InChI=1S/C7H13NO/c1-6-7(2,3)4-8-5-9-6/h5-6H,4H2,1-3H3/t6-/m1/s1
