17
gdb 56730	2.43512	1.34696	1.07204	1.7589	74.67	-0.258	-0.0427	0.2152	1163.8861	0.131969	-421.779178	-421.769729	-421.768785	-421.813588	34.284	
C	-0.2621406681	 1.5766289008	 0.4515807117	-0.401899
C	-0.1542690901	 0.0901669835	 0.0408568269	-0.255884
C	 0.8202557376	-0.614477874	 0.8684409655	 0.316689
C	 1.634098514	-1.170218167	 1.5568728935	-0.448004
C	-1.5368723178	-0.5613577357	 0.0581721507	 0.295226
C	-1.8228042631	-1.8689625985	 0.6904201672	-0.220707
O	-2.2168421169	-0.6576363712	 1.3175731131	-0.261427
C	-2.4606901716	-0.1795766799	-1.0615285104	 0.130428
O	-2.113139431	 0.3687327549	-2.0759567872	-0.262348
H	 0.7218539495	 2.0490014203	 0.4177886779	 0.130404
H	-0.9273148651	 2.108681827	-0.2327892946	 0.135925
H	-0.6535100073	 1.6582045291	 1.4683961558	 0.141969
H	 0.1754831533	 0.0507173661	-1.0051225547	 0.133638
H	 2.3598488514	-1.6596883845	 2.1582819294	 0.19958
H	-2.636658901	-2.4885959207	 0.3148380374	 0.12087
H	-0.9901081513	-2.3918359407	 1.1536327248	 0.147907
H	-3.5195603826	-0.4556745896	-0.8628426968	 0.097633
50.5161	130.0648	153.7693	180.1565	216.9328	227.9942	270.8618	351.0989	362.8047	458.9486	493.6653	553.7578	623.5436	627.4103	646.6531	714.2311	853.8741	880.5083	894.218	961.1752	1027.4099	1034.1464	1090.9354	1128.0897	1141.4011	1170.0989	1227.5427	1312.3316	1340.851	1357.2715	1402.7754	1420.7255	1497.8963	1499.5442	1513.2405	1823.1194	2236.3136	2901.3309	3036.8537	3055.3871	3089.0645	3135.9305	3138.3872	3192.6584	3502.3448
CC(C#C)C1(CO1)C=O	C[C@@H](C#C)[C@]1(CO1)C=O	
InChI=1S/C7H8O2/c1-3-6(2)7(4-8)5-9-7/h1,4,6H,5H2,2H3	InChI=1S/C7H8O2/c1-3-6(2)7(4-8)5-9-7/h1,4,6H,5H2,2H3/t6-,7+/m0/s1
