21
gdb 102817	1.76439	1.44335	0.90025	4.1517	79.7	-0.2359	0.0214	0.2573	1360.7265	0.18251	-420.410687	-420.400699	-420.399755	-420.446106	35.868	
C	 0.0036832028	-0.1379312636	 1.1847949141	-0.386649
C	 0.1715054368	-1.111165058	 0.0148032743	-0.201128
C	 0.7689184589	-0.4764123517	-1.249038497	 0.00894
N	 2.1250333411	 0.0123893432	-0.9765506752	-0.268112
C	 2.6643389735	 1.0773281008	-1.6185104361	 0.165661
O	 2.1038283672	 1.7338813384	-2.4762223138	-0.335295
C	 0.7420911224	-1.4333908437	-2.4278757598	 0.015799
C	-0.3567900297	-1.3399402385	-3.4227241129	-0.242186
N	 1.0097949439	-0.9370373894	-3.7823942456	-0.326224
H	 0.9595806469	 0.3049081777	 1.4801802268	 0.116158
H	-0.6701089821	 0.6832009905	 0.9185846603	 0.125274
H	-0.4155771288	-0.6457010973	 2.05823417	 0.118778
H	 0.7989956877	-1.9617456658	 0.3176003378	 0.096248
H	-0.7994790334	-1.5383089669	-0.258043644	 0.115924
H	 0.188397263	 0.4127811409	-1.5208985277	 0.105392
H	 2.7060839068	-0.4990463608	-0.330384572	 0.247302
H	 3.6882813693	 1.3057799183	-1.2644973707	 0.08422
H	 1.1791095723	-2.4115830583	-2.2249841796	 0.079857
H	-0.7221635242	-2.2349499686	-3.9186678718	 0.115081
H	-1.1093589084	-0.5680518644	-3.275349982	 0.110115
H	 1.1039098439	 0.0771643074	-3.7523981049	 0.254843
71.2711	86.351	105.6635	164.0865	178.5597	186.5349	241.9199	306.0603	312.8838	406.798	468.8005	503.1656	539.7179	751.9974	787.4347	832.4103	877.6782	916.1744	941.5616	970.0966	979.9785	1030.3196	1041.8323	1082.034	1113.1674	1131.7738	1145.2748	1161.2045	1204.3628	1228.6239	1264.5598	1289.1702	1301.9261	1334.6277	1356.7931	1378.9531	1415.4663	1426.6351	1436.7499	1481.8939	1497.4431	1506.0925	1511.2514	1522.2408	1784.1817	2947.6496	3009.8021	3039.7793	3050.242	3069.9444	3099.5321	3101.7915	3108.039	3113.7751	3184.5866	3485.9995	3625.8097
CCC(NC=O)C1CN1	CC[C@@H](NC=O)[C@H]1CN1	
InChI=1S/C6H12N2O/c1-2-5(8-4-9)6-3-7-6/h4-7H,2-3H2,1H3,(H,8,9)	InChI=1S/C6H12N2O/c1-2-5(8-4-9)6-3-7-6/h4-7H,2-3H2,1H3,(H,8,9)/t5-,6-/m1/s1
