17
gdb 99432	3.17957	0.73421	0.61431	0.973	97.35	-0.2452	-0.0165	0.2287	1781.0194	0.131971	-347.467543	-347.457312	-347.456368	-347.503124	36.846	
C	-0.0199426973	 1.5478772706	-0.0538305727	-0.393513
C	 0.0071155286	 0.0206978963	-0.0056155929	-0.166817
C	 0.7004873133	-0.5336685117	 1.2757198844	-0.401907
C	-0.002321582	-0.126876572	 2.4980660952	 0.351887
C	-0.5884199278	 0.2194370357	 3.4875869987	-0.464546
C	 0.8387232199	-1.9895073131	 1.2095020782	 0.418595
C	 0.9576003603	-3.19030126	 1.127447771	-0.217028
C	 1.0870496518	-4.5420163108	 1.0372983407	 0.292375
C	 1.2036560162	-5.7410638317	 0.9562516249	-0.562227
H	 0.9937620888	 1.9638135731	-0.0475303284	 0.116918
H	-0.516081512	 1.8931365429	-0.9653768549	 0.118791
H	-0.5584871401	 1.9601981355	 0.8039425682	 0.136251
H	-1.0083919974	-0.3850925372	-0.0464749066	 0.121798
H	 0.5481874452	-0.3811579135	-0.8682493348	 0.114434
H	 1.7129380758	-0.1020924731	 1.3098600955	 0.14031
H	-1.1002912417	 0.5159132982	 4.3696688243	 0.20306
H	 1.3041501484	-6.7956281291	 0.8865894392	 0.191618
65.0581	74.7141	111.8445	157.0876	202.4535	216.6699	254.5326	324.1843	345.9785	432.0109	497.5176	523.7199	538.9001	549.5182	595.1569	601.8963	634.4256	648.6898	750.6294	800.0495	871.3045	951.9435	1045.6781	1097.1277	1107.6067	1183.4371	1260.0987	1292.9427	1334.9286	1362.6523	1412.133	1485.8055	1496.5676	1506.0293	2183.2204	2240.3252	2366.7974	2985.7926	3037.4344	3051.9209	3089.694	3109.2066	3122.0227	3503.4815	3505.5486
CCC(C#C)C#CC#C	CC[C@@H](C#C)C#CC#C	
InChI=1S/C9H8/c1-4-7-8-9(5-2)6-3/h1-2,9H,6H2,3H3	InChI=1S/C9H8/c1-4-7-8-9(5-2)6-3/h1-2,9H,6H2,3H3/t9-/m1/s1
