15
gdb 131734	5.19254	0.88813	0.76731	2.7858	72.79	-0.255	-0.0629	0.1921	1394.3408	0.113373	-453.972035	-453.96367	-453.962726	-454.006096	29.382	
O	 0.0495639008	 1.3496725668	 0.3740504001	-0.416912
C	 0.0041406563	-0.0028930011	-0.0536712831	-0.179868
C	-1.420836757	-0.4585378608	 0.0147030792	 0.35575
N	-1.7193612308	-1.7558495915	 0.1619150679	-0.271989
N	-3.0512022535	-1.8048961532	 0.1504472509	-0.237363
C	-3.6305261012	-0.5817260081	 0.0127532345	 0.300369
C	-5.0788779878	-0.433254047	-0.0060855226	 0.083242
O	-5.8456988057	-1.3693884064	 0.090399402	-0.295004
C	-2.584176626	 0.3260246061	-0.0814255704	-0.366578
H	 0.9358568195	 1.6838938803	 0.2097680738	 0.293349
H	 0.3746963318	-0.1017353011	-1.0869094569	 0.107792
H	 0.6212466109	-0.6605649965	 0.575417698	 0.115071
H	-3.5402522468	-2.6799242439	 0.2551317426	 0.290088
H	-5.4389208471	 0.6096957462	-0.1165584845	 0.090107
H	-2.6475166034	 1.3956891602	-0.1904500616	 0.131946
39.1666	104.6582	145.3162	216.4668	241.9734	267.3001	327.3789	460.7017	489.7748	597.4932	666.7139	702.5008	722.1469	787.1672	846.8239	1001.8367	1030.1548	1035.136	1046.7661	1085.2909	1144.7188	1203.8029	1236.9477	1243.9708	1318.5679	1375.8859	1417.1238	1454.1078	1473.3662	1508.9547	1518.0852	1591.9383	1774.582	2928.1984	2968.8182	3012.7895	3283.0208	3657.7336	3837.6367
OCC1=NNC(C=O)=C1	OCc1n[nH]c(C=O)c1	
InChI=1S/C5H6N2O2/c8-2-4-1-5(3-9)7-6-4/h1-2,9H,3H2,(H,6,7)	InChI=1S/C5H6N2O2/c8-2-4-1-5(3-9)7-6-4/h1-2,9H,3H2,(H,6,7)
