18
gdb 78654	2.45985	1.74483	1.41547	2.7793	75.91	-0.2091	0.0061	0.2152	1004.7431	0.146494	-401.900633	-401.89239	-401.891446	-401.933131	31.452	
C	 0.0699979996	 1.5270519825	-0.0042794835	-0.336587
N	 0.0361506718	 0.0702759746	 0.0627148754	-0.082177
C	-0.8878087816	-0.5652340708	 1.0068958456	-0.07742
C	 0.0773355789	-1.6294292953	 1.364525796	-0.143353
C	 1.1335496692	-0.6081348599	 0.8072994346	-0.15824
C	 1.0959254413	-0.0413017477	 2.2557254411	 0.378801
O	 1.9326232026	 0.3569662099	 3.0200978435	-0.345775
C	-0.3001472181	-0.5466682415	 2.4359290296	 0.18575
C	-1.0853293045	-0.6815650258	 3.7021791833	-0.511837
H	 0.9074087685	 1.8355669244	-0.637677195	 0.128902
H	-0.8544286025	 1.8833161385	-0.4694759984	 0.123713
H	 0.1797119135	 2.0204718693	 0.9756864858	 0.11329
H	-1.9597386594	-0.6161736434	 0.8492573785	 0.106489
H	 0.0471542427	-2.704533643	 1.4408948401	 0.124126
H	 2.0683369459	-0.8105225578	 0.2891704497	 0.093224
H	-1.4800405591	 0.2890999172	 4.0203362013	 0.136724
H	-1.9356864125	-1.3594068153	 3.5752665007	 0.123841
H	-0.4577071262	-1.067506076	 4.5118795514	 0.140532
132.5174	150.9638	168.7914	209.6004	221.6981	302.2014	347.7473	429.3819	559.6066	632.568	656.3119	684.2742	764.4288	794.7798	833.9076	841.46	861.1266	910.4817	947.1066	965.5651	1054.1031	1070.5129	1089.3266	1125.0843	1150.4715	1162.028	1177.9554	1190.7956	1232.3658	1274.9944	1304.0052	1402.2736	1422.2455	1448.3578	1482.8017	1487.8424	1494.718	1499.2329	1863.2915	2969.1033	3032.5958	3070.689	3097.98	3102.781	3109.3686	3148.5683	3173.5473	3251.8666
CN1C2C3C1C(=O)C23C	CN1[C@H]2[C@H]3[C@@H]1C(=O)[C@@]23C	
InChI=1S/C7H9NO/c1-7-3-4(6(7)9)8(2)5(3)7/h3-5H,1-2H3	InChI=1S/C7H9NO/c1-7-3-4(6(7)9)8(2)5(3)7/h3-5H,1-2H3/t3-,4-,5+,7-/m1/s1
