15
gdb 8658	2.27432	1.82786	1.46656	3.3235	61.9	-0.2802	-0.0609	0.2193	942.0222	0.115152	-399.813786	-399.804576	-399.803632	-399.847923	31.565	
C	-0.1129401331	 1.4330197228	 0.1667803715	-0.425567
C	-0.1060791157	-0.0725942833	-0.1013494443	-0.194682
C	 0.7724615801	-0.4893182978	-1.2951902809	 0.128158
O	 2.1512885831	-0.2208098066	-1.1093134819	-0.448531
C	 0.7153777125	-2.0260306999	-1.5085707271	 0.156847
O	-0.2298318174	-2.7023098951	-1.2244018038	-0.225657
C	 0.295217876	 0.1364705526	-2.5491410567	 0.250115
N	-0.0584510211	 0.6395413133	-3.5282536167	-0.327189
H	 0.8892225411	 1.8053033972	 0.4066253048	 0.115164
H	-0.492034017	 1.9935957611	-0.6933615408	 0.146591
H	-0.7526449347	 1.6607883418	 1.0232959589	 0.135216
H	 0.276358998	-0.615417401	 0.7692177559	 0.122925
H	-1.1175121323	-0.4437124218	-0.2895605075	 0.140859
H	 2.2879259412	 0.7328162653	-1.1110841941	 0.303973
H	 1.6526738694	-2.4273266186	-1.9439399473	 0.121777
59.1781	92.4802	147.3267	177.9861	203.7384	245.7269	258.3605	296.1611	385.4119	415.1915	496.4166	590.0505	662.3492	694.3066	784.0705	905.4703	982.4849	1005.7846	1036.0114	1099.5079	1158.8696	1180.3649	1302.8319	1325.5622	1372.3514	1387.4837	1416.6097	1471.2771	1501.0352	1507.2362	1853.8844	2343.7431	2942.5339	3036.2961	3057.9141	3094.1605	3114.5891	3121.5217	3819.7632
CCC(O)(C=O)C#N	CC[C@@](O)(C=O)C#N	
InChI=1S/C5H7NO2/c1-2-5(8,3-6)4-7/h4,8H,2H2,1H3	InChI=1S/C5H7NO2/c1-2-5(8,3-6)4-7/h4,8H,2H2,1H3/t5-/m0/s1
