15
gdb 32355	5.07606	1.04364	0.87047	6.851	72.59	-0.2175	-0.0574	0.1602	1257.1264	0.114021	-453.99104	-453.983293	-453.982349	-454.023696	28.609	
C	 0.1095192191	 1.403598571	 0.0066586983	-0.250747
O	 0.0220755725	-0.0075252486	 0.0028834094	-0.259957
C	-1.2255249039	-0.5452289679	 0.010616525	 0.27477
C	-2.4123785185	 0.1233504003	 0.0219910097	-0.085326
N	-3.5644087629	-0.608896463	 0.0283541838	-0.346641
C	-3.6321018711	-2.0156156342	 0.0237466543	 0.443367
O	-4.7087509079	-2.5717432048	 0.0314019474	-0.386893
N	-2.4003105532	-2.6699163883	 0.0127066374	-0.312424
C	-1.3044647858	-1.9736363779	 0.0066132776	-0.010234
H	 1.1722857108	 1.6480048384	-0.0007094587	 0.147045
H	-0.368470394	 1.8373677105	-0.8827541919	 0.124811
H	-0.3547653926	 1.8317384524	 0.9060049255	 0.124812
H	-2.5179490493	 1.1995595862	 0.0265018127	 0.135683
H	-4.4611667103	-0.1448918153	 0.0369393381	 0.269759
H	-0.3593597229	-2.5192183088	-0.0023006386	 0.131975
73.0937	114.1452	222.4366	242.4807	358.5615	396.5984	401.6347	477.8885	504.4007	562.2302	650.9289	667.5309	777.2232	803.5651	840.5184	873.7525	1003.4716	1004.1551	1071.9094	1105.1637	1179.2387	1204.5251	1223.7405	1298.5804	1369.8215	1431.9037	1462.0445	1488.0395	1488.7977	1506.8075	1577.8871	1705.1258	1809.6525	2993.5639	3049.5642	3121.7801	3142.6589	3226.9028	3617.3042
COC1=CNC(=O)N=C1	COc1c[nH]c(=O)nc1	
InChI=1S/C5H6N2O2/c1-9-4-2-6-5(8)7-3-4/h2-3H,1H3,(H,6,7,8)	InChI=1S/C5H6N2O2/c1-9-4-2-6-5(8)7-3-4/h2-3H,1H3,(H,6,7,8)
