18
gdb 15118	8.4439	0.72636	0.69765	4.5731	73.71	-0.2453	0.0367	0.282	1566.5393	0.153783	-343.969463	-343.96089	-343.959945	-344.003556	30.156	
N	 0.0464975007	-1.1322615371	-0.3074028876	-0.303418
C	 0.0148798232	 0.0061593921	-0.1117362692	 0.257819
C	-0.005764365	 1.446964832	 0.1299946195	-0.340893
C	 1.3925100844	 2.0855602888	 0.026205602	-0.178803
C	 1.3424084977	 3.5950375203	 0.2651938848	-0.144787
N	 2.6818409658	 4.1631448811	 0.2101655793	-0.062186
C	 3.1417348299	 4.6118287867	-1.1015963329	-0.220925
C	 2.7667573536	 5.5958475069	-0.049248648	-0.22091
H	-0.6912494276	 1.9074101789	-0.5916307852	 0.151154
H	-0.4332227336	 1.6248098952	 1.1240024495	 0.153005
H	 2.0657639292	 1.6267974493	 0.756118611	 0.134634
H	 1.8122451303	 1.8814693042	-0.9645106613	 0.123615
H	 0.6589055229	 4.0668660575	-0.4671732369	 0.079522
H	 0.9311763423	 3.8007100345	 1.2619067652	 0.107362
H	 4.1847918147	 4.4156340618	-1.3309636195	 0.122831
H	 2.4606160373	 4.5053548688	-1.9451247055	 0.109768
H	 1.8370549292	 6.1446055305	-0.1928624571	 0.110429
H	 3.530941655	 6.1315594686	 0.5061215321	 0.121784
57.2568	86.2609	100.2928	141.3886	219.5501	314.5527	391.8977	398.1424	426.5239	568.3845	751.7622	768.7796	832.6415	869.6853	900.1956	945.0524	1019.0583	1028.1513	1046.9901	1075.2589	1111.03	1118.7346	1121.2346	1167.2538	1178.6187	1233.8728	1272.9104	1305.0628	1319.4067	1328.1432	1363.6465	1410.9996	1469.5535	1486.176	1493.8935	1506.2377	1523.7706	2363.3905	2914.5698	3035.9424	3036.6303	3057.8183	3070.3599	3092.9511	3098.4529	3107.1006	3179.6725	3193.6729
N#CCCCN1CC1	N#CCCCN1CC1	
InChI=1S/C6H10N2/c7-3-1-2-4-8-5-6-8/h1-2,4-6H2	InChI=1S/C6H10N2/c7-3-1-2-4-8-5-6-8/h1-2,4-6H2
