19
gdb 92292	2.95096	1.56042	1.20487	2.6969	76.52	-0.2198	0.033	0.2528	1070.7697	0.161183	-419.191575	-419.183744	-419.1828	-419.224035	29.868	
C	-0.0629856109	 1.5647406004	 0.0750314626	-0.326825
N	-0.0119192521	 0.1215726276	 0.0967017565	-0.069689
C	-1.237894858	-0.6324307573	 0.4129209527	-0.186584
C	-0.3691042937	-1.6484610643	 1.1831335715	 0.102502
O	-0.048774763	-2.7899303251	 0.3910572455	-0.245835
C	 1.2002440338	-2.8974198881	-0.1351487477	 0.138065
N	 2.2206608958	-2.1723114998	 0.0156616291	-0.264698
C	 2.1356122377	-1.0071461866	 0.8852095903	-0.172626
C	 0.7192777314	-0.5490645832	 1.1936981239	-0.012539
H	 0.9428240257	 1.970875264	-0.0753766965	 0.124918
H	-0.6861310551	 1.9029988995	-0.7593590334	 0.12516
H	-0.4732766393	 1.9981279926	 1.0080481451	 0.088975
H	-1.925513307	-0.0961312555	 1.0885717732	 0.085406
H	-1.79454771	-1.0135438677	-0.4488858842	 0.113203
H	-0.7423032163	-2.0115902249	 2.1410341496	 0.094409
H	 1.239346167	-3.7841601778	-0.765245771	 0.122037
H	 2.6595305567	-1.2413356487	 1.8223118659	 0.111061
H	 2.6970691844	-0.1877671311	 0.419654849	 0.113737
H	 0.6823000128	 0.024778876	 2.135591668	 0.059324
98.9083	112.3791	211.8575	237.5133	295.0828	347.2586	418.1766	485.3148	497.0509	624.8833	717.3967	796.4151	811.4125	867.2675	911.053	952.4789	967.7868	977.5301	1026.748	1047.4675	1072.5895	1095.6931	1139.0983	1172.7884	1179.0559	1205.9193	1241.0008	1244.7673	1278.8344	1296.8062	1332.376	1359.6997	1368.0217	1390.8443	1420.2773	1452.8098	1470.7814	1486.897	1497.0376	1508.8137	1745.6599	2918.1064	2946.4826	2964.5026	3014.2892	3046.5751	3058.756	3074.1129	3100.4863	3105.8276	3158.3899
CN1CC2OC=NCC12	CN1C[C@H]2OC=NC[C@@H]12	
InChI=1S/C6H10N2O/c1-8-3-6-5(8)2-7-4-9-6/h4-6H,2-3H2,1H3	InChI=1S/C6H10N2O/c1-8-3-6-5(8)2-7-4-9-6/h4-6H,2-3H2,1H3/t5-,6-/m1/s1
