18
gdb 51555	2.63619	1.39103	1.06969	3.5471	73.06	-0.2247	0.0221	0.2468	1149.8038	0.147265	-439.068773	-439.060141	-439.059197	-439.102764	31.503	
O	 0.4750552061	 1.298960085	 1.5940739027	-0.319934
C	 0.2838931254	 1.6296417593	 0.4439749478	 0.155254
N	 1.2316831132	 1.6633795285	-0.5353419015	-0.281474
C	 2.5620289449	 1.1601940017	-0.3621012725	-0.063414
C	 3.7117412163	 1.9302242772	-0.9958134681	-0.403651
C	 3.5469752212	 1.9093042214	 0.4874630457	 0.482565
C	 3.3038911948	 3.0204552116	 1.4992890705	-0.357927
C	 4.1917086963	 2.1453211851	 2.4121839078	-0.071572
O	 4.4479637254	 1.2093102864	 1.332377944	-0.305296
H	-0.7035599124	 1.9640075295	 0.0651310217	 0.075675
H	 0.9197642084	 1.8642237435	-1.4741751826	 0.247752
H	 2.6597643847	 0.076716125	-0.3324872714	 0.116425
H	 4.5195340184	 1.3479732591	-1.4253721375	 0.131336
H	 3.4756752789	 2.8523518701	-1.5184789886	 0.11704
H	 3.7380946264	 3.9853673072	 1.2300097622	 0.108152
H	 2.2717339488	 3.1424821599	 1.822977663	 0.141319
H	 5.1186551487	 2.5992488978	 2.7765167186	 0.105883
H	 3.6628750145	 1.6633187918	 3.2407810682	 0.121866
66.3486	81.3741	127.066	171.281	260.3606	272.7285	363.7658	435.7409	479.4545	545.2469	583.3149	782.5599	798.3012	825.0133	870.5107	882.0738	897.6656	966.5414	1010.6508	1027.9248	1035.4324	1053.054	1080.6205	1114.923	1121.4911	1165.8371	1199.1807	1220.3777	1245.2821	1258.7907	1327.4199	1367.8553	1406.419	1431.3506	1474.9744	1481.5972	1506.7648	1528.0467	1806.9177	2925.9116	3039.0329	3080.0154	3090.7006	3125.016	3126.3919	3158.7754	3220.7676	3600.8986
O=CNC1CC11CCO1	O=CN[C@H]1C[C@]21CCO2	
InChI=1S/C6H9NO2/c8-4-7-5-3-6(5)1-2-9-6/h4-5H,1-3H2,(H,7,8)	InChI=1S/C6H9NO2/c8-4-7-5-3-6(5)1-2-9-6/h4-5H,1-3H2,(H,7,8)/t5-,6-/m0/s1
