19
gdb 38489	3.30856	1.66649	1.55419	1.7676	76.57	-0.2152	0.0632	0.2784	936.8872	0.161481	-385.822218	-385.815492	-385.814548	-385.852805	28.75	
C	-0.0367540202	 1.5132427716	 0.0802022468	-0.300147
C	 1.301902847	 0.8244264845	-0.0093583791	-0.029866
C	 2.0511672757	 0.5021768263	 1.3040122087	-0.328938
C	 1.1666450073	-0.5012004687	 2.0269483347	 0.388787
C	-0.1915173793	-0.255515625	 2.5963535658	-0.387303
C	-0.0511473336	-0.8307256227	 1.1934527545	 0.154551
C	 0.4658493078	-2.268823451	 1.2918674351	-0.138513
O	 1.5587299722	-1.8788268992	 2.1747919947	-0.322586
C	 0.0001281601	 0.0110469827	-0.0545907078	-0.111832
H	-0.3446953781	 1.9658052261	 1.0166857525	 0.112037
H	-0.3629521339	 2.0727615292	-0.790411705	 0.113393
H	 1.896979573	 0.9982459678	-0.900012551	 0.084651
H	 3.0056475262	 0.0160895233	 1.0836457783	 0.123972
H	 2.2674797287	 1.4006897813	 1.891680644	 0.107544
H	-0.5388553952	-0.9003985938	 3.3987807176	 0.117247
H	-0.5265444723	 0.7717035801	 2.6702085901	 0.122081
H	-0.1882069696	-3.0175960966	 1.7546866935	 0.103339
H	 0.851936698	-2.6545781835	 0.3409352375	 0.105952
H	-0.358144034	-0.4232305025	-0.981533301	 0.08563
207.4392	215.2555	302.2126	377.0088	418.4729	450.8036	545.0923	630.9587	651.8371	763.8949	774.3294	783.0887	805.5703	847.3364	874.7613	918.8853	936.7107	940.6937	967.4761	989.2082	1019.1254	1030.5883	1057.2188	1069.0548	1081.5291	1101.2345	1140.0155	1153.9856	1194.0132	1204.6908	1224.7857	1252.7376	1291.9036	1324.8573	1357.2255	1371.2796	1390.3151	1469.6664	1480.9554	1500.4792	1514.1814	3016.4339	3049.5056	3066.3001	3099.0369	3125.1194	3131.6154	3158.2375	3168.4102	3208.1236	3228.3348
C1C2CC34CC3(CO4)C12	C1[C@H]2C[C@@]34C[C@@]3(CO4)[C@@H]12	
InChI=1S/C8H10O/c1-5-2-8-3-7(8,4-9-8)6(1)5/h5-6H,1-4H2	InChI=1S/C8H10O/c1-5-2-8-3-7(8,4-9-8)6(1)5/h5-6H,1-4H2/t5-,6-,7+,8+/m0/s1
