18
gdb 22231	2.85012	1.08507	0.81252	4.8528	76.64	-0.1816	-0.039	0.1427	1389.3562	0.14611	-472.366304	-472.357117	-472.356172	-472.400221	33.833	
C	-0.1969636702	 1.334117368	 0.8760442028	-0.321025
N	-0.5549027644	-0.0833009797	 0.7865666262	-0.315027
H	 0.1951995953	-0.6486945614	 1.1766203235	 0.239168
H	-1.9853160523	-0.7842288841	 1.3475670026	 0.319226
C	-0.8174406819	-0.5481745831	-0.5970051654	-0.247971
C	-1.3490251886	-1.9561398001	-0.6001103096	 0.138263
N	-0.8376363559	-2.7959392708	-1.5248261724	-0.091939
O	-1.3189526683	-3.9629873457	-1.6349917569	-0.415874
C	-2.3430714659	-2.3251213344	 0.3455186603	 0.411853
N	-2.9326547944	-3.5077892254	 0.2770463165	-0.5238
O	-2.6891412551	-1.5151635736	 1.3311671089	-0.391928
H	 0.0233958802	 1.5920822155	 1.9150138325	 0.131486
H	 0.6726647447	 1.5963155526	 0.2557248807	 0.120719
H	-1.0446161342	 1.9419625999	 0.5457341117	 0.138654
H	-1.5485365323	 0.1594912751	-1.0147473887	 0.116366
H	 0.0719463293	-0.5115040307	-1.239908603	 0.124822
H	-2.5379311245	-4.0963079508	-0.4845541987	 0.303203
H	-3.5410854414	-3.8098143413	 1.020910209	 0.263804
93.4406	132.9194	147.048	199.5294	265.6684	294.7948	303.4636	338.7032	365.7448	381.9719	459.5243	504.7967	516.0079	751.0225	770.7742	793.417	841.1451	872.2663	953.4974	990.1235	1079.442	1106.475	1118.6163	1147.8882	1177.4842	1255.1544	1271.1862	1283.3407	1344.8015	1379.1927	1452.9427	1461.6065	1475.0235	1492.8183	1500.6244	1509.1195	1516.8878	1549.8209	1708.5523	2850.3177	2994.2057	3002.2613	3041.4413	3079.5465	3083.4272	3121.7982	3496.4162	3658.626
C[NH2+]CC(=N[O-])C(N)=O	CNCC(=C(N)O)[N][O]	
InChI=1S/C4H9N3O2/c1-6-2-3(7-9)4(5)8/h6,9H,2H2,1H3,(H2,5,8)	InChI=1S/C4H9N3O2/c1-6-2-3(7-9)4(5)8/h6,8H,2,5H2,1H3
