18
gdb 9149	4.84712	0.7815	0.69566	3.0653	73.98	-0.2503	0.026	0.2763	1617.1904	0.151766	-384.909572	-384.899741	-384.898797	-384.946365	34.041	
C	 0.049260876	 1.4882483449	 0.1394068469	-0.365442
C	-0.0365781929	-0.0241249123	-0.1384636847	-0.316622
C	-1.4014012232	-0.536655388	-0.0752739407	 0.097963
C	-2.5383004257	-0.9359349098	-0.0384321331	 0.018296
C	-3.906050486	-1.4300030208	 0.0770980599	-0.067798
O	-3.9645298523	-2.8570414783	 0.2318993793	-0.431355
C	-4.6616519417	-0.7755178367	 1.2490335374	-0.051762
O	-5.9509776127	-1.3280076378	 1.3653417911	-0.419348
H	 1.0881232847	 1.8256711727	 0.0820299827	 0.118335
H	-0.5372859085	 2.0512261172	-0.5913681116	 0.131718
H	-0.3360059996	 1.7232685967	 1.1351450181	 0.129954
H	 0.3885666846	-0.2416725798	-1.1264373591	 0.134328
H	 0.5867632664	-0.5653700844	 0.5846645264	 0.131467
H	-4.4683597402	-1.2296057901	-0.8424901179	 0.12108
H	-3.256522277	-3.10628367	 0.8371618751	 0.287251
H	-4.0669209409	-0.9102548449	 2.1687859731	 0.080426
H	-4.7687472358	 0.2995835643	 1.0745195388	 0.115053
H	-5.8284329352	-2.2819510728	 1.2688015683	 0.286457
10.0511	71.592	97.4319	166.6101	191.8536	224.0214	286.5028	318.2904	352.8917	419.9777	492.1931	520.7606	538.7753	566.2795	780.9881	786.5969	866.6093	967.6752	1043.8263	1066.0725	1081.1497	1095.5213	1105.241	1162.7728	1202.9462	1270.5378	1284.8881	1299.1935	1348.3027	1375.8875	1408.8844	1417.4588	1436.3273	1476.0452	1494.4588	1503.1946	1505.8022	2359.169	2960.058	3022.656	3046.5613	3047.4695	3050.7515	3084.2815	3121.	3126.0572	3761.203	3800.8414
CCC#CC(O)CO	CCC#C[C@@H](O)CO	
InChI=1S/C6H10O2/c1-2-3-4-6(8)5-7/h6-8H,2,5H2,1H3	InChI=1S/C6H10O2/c1-2-3-4-6(8)5-7/h6-8H,2,5H2,1H3/t6-/m1/s1
