21
gdb 120306	2.82617	1.12485	1.0189	1.4575	79.62	-0.2213	0.0747	0.2961	1317.8099	0.180447	-424.179507	-424.169901	-424.168957	-424.214462	35.1	
C	-0.2508618207	 1.3684038527	 0.0228117103	-0.385884
C	-0.5017365824	-0.0695979102	-0.3954518512	-0.033461
O	-1.1439601159	-0.7401523382	 0.6833885098	-0.250948
C	-1.4142535563	-2.0752781175	 0.426111238	 0.061666
C	-2.6900348956	-2.6805741744	 0.943528374	-0.251266
C	-3.8148273594	-1.6767629107	 0.7208819321	-0.084432
O	-3.4785830636	-1.5351556288	-0.6858756178	-0.319582
C	-2.4547677072	-2.5283216168	-0.5643798855	 0.412641
C	-2.2747352657	-3.4757715276	-1.7049837791	-0.489509
H	 0.2408403131	 1.9196574195	-0.7843744934	 0.113684
H	-1.1951533695	 1.8673099633	 0.2584237889	 0.12868
H	 0.388247284	 1.4067739632	 0.9096702122	 0.124019
H	-1.1417224595	-0.1122482208	-1.2873519024	 0.107612
H	 0.4479942888	-0.5731537499	-0.638873823	 0.081766
H	-0.5488774188	-2.7410120959	 0.4863618367	 0.082093
H	-2.7266473432	-3.5486798422	 1.5886984755	 0.0971
H	-4.8149549419	-2.1091434439	 0.8310969486	 0.104388
H	-3.746790635	-0.7269349823	 1.2591474157	 0.116616
H	-1.9905763166	-2.9307300947	-2.6125423609	 0.132435
H	-1.4851526504	-4.1996690407	-1.4833881845	 0.123621
H	-3.2002845441	-4.0214057143	-1.9144811841	 0.12876
61.8901	72.1799	114.0404	189.358	228.1151	235.8045	267.7439	301.766	314.7799	414.4523	522.5074	598.0195	701.9793	775.4664	800.4565	821.864	880.142	922.3777	934.5322	973.8983	991.7392	997.2981	1045.6582	1066.8665	1102.3963	1128.5677	1151.6982	1164.9125	1178.7587	1190.6262	1218.6654	1273.7065	1295.3239	1318.9638	1342.7673	1395.7557	1408.6372	1420.252	1471.2731	1473.7583	1483.718	1498.7669	1499.8711	1508.1233	1524.0166	2971.8158	3027.6163	3031.1196	3039.1879	3044.4464	3069.5065	3094.6016	3095.8316	3114.5624	3118.3975	3121.6626	3194.7434
CCOC1C2COC12C	CCO[C@H]1[C@H]2CO[C@@]12C	
InChI=1S/C7H12O2/c1-3-8-6-5-4-9-7(5,6)2/h5-6H,3-4H2,1-2H3	InChI=1S/C7H12O2/c1-3-8-6-5-4-9-7(5,6)2/h5-6H,3-4H2,1-2H3/t5-,6+,7-/m1/s1
