22
gdb 59808	3.69517	0.86684	0.84287	2.7481	86.9	-0.2389	0.0344	0.2733	1536.1028	0.194178	-404.381671	-404.371971	-404.371027	-404.417964	35.499	
C	-0.0635401051	 1.4466732526	-0.0950031162	-0.367498
C	 0.030644011	-0.0831470728	-0.0345389282	 0.050709
C	 0.8558562811	-0.6362092934	-1.2021491155	-0.367692
N	 0.6889053445	-0.4602292258	 1.2167233991	-0.336684
C	 0.0631472957	-1.0988054646	 2.1020455933	 0.434698
C	 0.6232763162	-1.5269889046	 3.4438589663	-0.316925
C	-0.3352074214	-2.6448335636	 3.8757511205	-0.230026
C	-1.6404303704	-2.205545704	 3.1993952502	-0.075133
O	-1.2421907128	-1.5233993729	 2.002134276	-0.249237
H	 0.9330241573	 1.8928524096	-0.0153702864	 0.117976
H	-0.5154829114	 1.7696412175	-1.0387846015	 0.104054
H	-0.6741614639	 1.8331607153	 0.7266729507	 0.108621
H	-0.9846076257	-0.496916076	-0.0958819105	 0.080914
H	 1.8790678154	-0.2489468221	-1.1622667483	 0.117419
H	 0.9066519058	-1.7284754174	-1.160989038	 0.108315
H	 0.4112995161	-0.3497198886	-2.1611177557	 0.102913
H	 1.6675591268	-1.8262452844	 3.3557686684	 0.133836
H	 0.5781930517	-0.678577218	 4.1372772326	 0.127205
H	-0.0078089523	-3.6078986979	 3.471939792	 0.118278
H	-0.4387215725	-2.746711427	 4.9578144914	 0.110802
H	-2.2940372467	-3.0330927655	 2.9132095804	 0.118522
H	-2.2114475094	-1.5127262364	 3.8317503194	 0.108934
11.3895	91.4102	145.048	156.3556	216.2656	222.1759	253.1964	304.8033	427.8591	439.1768	479.5534	588.8967	644.9146	710.8326	800.5386	849.1406	880.6452	892.3216	929.6543	935.692	954.7677	969.0995	1004.5698	1070.0907	1093.8501	1135.0751	1148.2258	1176.8692	1194.5816	1205.4685	1212.9121	1257.546	1311.1457	1339.4936	1365.7496	1377.7372	1392.07	1396.9699	1411.7066	1474.4699	1481.6132	1487.1321	1493.8796	1496.8413	1509.3187	1525.1156	1794.9749	3014.4007	3017.9356	3029.5392	3034.0083	3043.2414	3059.6948	3097.4265	3101.421	3105.9592	3106.3572	3111.4395	3117.4693	3134.3347
CC(C)N=C1CCCO1	CC(C)N=C1CCCO1	
InChI=1S/C7H13NO/c1-6(2)8-7-4-3-5-9-7/h6H,3-5H2,1-2H3	InChI=1S/C7H13NO/c1-6(2)8-7-4-3-5-9-7/h6H,3-5H2,1-2H3
