17
gdb 14934	4.51687	1.45653	1.14164	5.9331	75.95	-0.2057	-0.0169	0.1888	1020.5233	0.144498	-363.902675	-363.895209	-363.894265	-363.934459	27.9	
O	-0.1725701954	-0.0430440005	-0.02093094	-0.320157
C	-0.060248157	 1.1699223205	-0.0180371032	 0.080227
C	 1.1917139749	 1.8924014712	 0.0109405968	 0.142987
C	 1.168454331	 3.2506779989	-0.0166103074	-0.01893
N	 2.280042848	 4.0270943693	-0.0202059198	-0.293303
C	 3.600063733	 3.4346614048	 0.1613407723	-0.15535
C	 3.6406077786	 2.0474244467	-0.492093254	-0.212064
C	 2.5072435417	 1.1518620919	 0.0341267737	-0.306144
H	-0.9656178492	 1.8241976428	-0.0382312622	 0.036591
H	 0.2235131497	 3.7863534212	-0.0613490464	 0.114972
H	 2.1801937975	 5.0215108965	 0.0850311773	 0.25264
H	 4.3441502361	 4.0993027231	-0.2885343688	 0.111947
H	 3.8390532415	 3.3494892382	 1.2323782703	 0.111637
H	 3.5392259168	 2.1692610493	-1.5764998652	 0.11348
H	 4.6181130128	 1.5927228918	-0.3060034604	 0.104491
H	 2.736684465	 0.810534715	 1.0526128703	 0.11003
H	 2.418009945	 0.2422441293	-0.5677454632	 0.126948
89.8798	172.4689	204.543	278.7191	296.2056	379.2813	426.0296	469.0749	556.4698	608.36	736.693	790.6187	868.189	886.0094	926.0543	965.3359	1016.2158	1029.3133	1064.7857	1100.6734	1195.6092	1210.7622	1232.3937	1277.6602	1304.7687	1333.7941	1368.5548	1377.6652	1406.2661	1440.1889	1482.2396	1486.679	1504.7284	1536.4942	1688.1351	1763.3274	2827.1327	2987.1626	3015.6456	3042.8057	3074.2664	3080.8451	3093.1723	3166.9464	3665.0082
O=CC1=CNCCC1	O=CC1=CNCCC1	
InChI=1S/C6H9NO/c8-5-6-2-1-3-7-4-6/h4-5,7H,1-3H2	InChI=1S/C6H9NO/c8-5-6-2-1-3-7-4-6/h4-5,7H,1-3H2
