19
gdb 112595	3.30752	0.9548	0.86664	1.4132	78.62	-0.2508	0.0292	0.2801	1398.9619	0.155921	-422.965812	-422.956038	-422.955094	-423.000513	36.229	
C	 0.1689658146	 1.248354739	-0.2848688742	-0.241632
O	 0.0199905232	-0.0118730741	 0.3302007289	-0.237155
C	-1.2730828812	-0.5365479022	 0.2101613087	 0.170129
C	-1.7046820445	-1.1447519934	-1.1557864012	-0.301478
C	-2.2990243767	-2.3577187995	-0.3836436518	 0.235923
O	-1.9647505562	-3.5894833077	-0.9949676592	-0.458002
C	-1.4420659654	-1.9231313877	 0.8564387136	-0.320742
C	-3.7350312455	-2.2555305957	-0.1408277298	 0.297864
C	-4.9167830004	-2.2072787001	 0.0783553337	-0.504238
H	 1.1967738893	 1.5755652523	-0.1112118385	 0.12801
H	-0.0083009697	 1.2012187559	-1.3698923263	 0.109509
H	-0.5192974339	 1.9937505691	 0.1440178555	 0.104779
H	-2.0177552824	 0.1855216258	 0.5772831399	 0.071953
H	-2.3766559819	-0.5851845451	-1.8070456086	 0.108336
H	-0.8287340832	-1.4862844118	-1.7133378846	 0.124032
H	-2.4644618022	-4.2864570577	-0.5555460593	 0.282419
H	-0.4921128326	-2.4622511597	 0.8334001343	 0.123139
H	-1.8951477398	-1.9870173648	 1.8463861436	 0.105697
H	-5.9618647014	-2.1572814127	 0.2613725253	 0.201456
61.1284	101.4341	148.4414	173.2702	203.8995	256.1778	274.3363	346.8923	377.0776	420.584	450.5386	523.7357	570.2101	616.6137	632.5253	669.2625	719.2691	830.8875	874.725	943.4439	978.8643	1014.7549	1017.4302	1073.4725	1101.973	1152.8093	1177.5689	1185.1319	1214.5217	1244.854	1260.9211	1270.2817	1293.3461	1369.2592	1393.6329	1457.595	1478.9174	1485.9906	1492.5134	1509.5182	2227.4829	2973.8917	2991.1414	3022.4603	3071.8449	3077.3415	3116.1242	3142.0504	3144.2745	3500.4149	3806.3879
COC1CC(O)(C1)C#C	CO[C@H]1C[C@@](O)(C1)C#C	
InChI=1S/C7H10O2/c1-3-7(8)4-6(5-7)9-2/h1,6,8H,4-5H2,2H3	InChI=1S/C7H10O2/c1-3-7(8)4-6(5-7)9-2/h1,6,8H,4-5H2,2H3/t6-,7+
