19
gdb 8687	2.1795	1.74312	1.53108	3.8426	71.7	-0.2429	0.0296	0.2725	1004.1806	0.164948	-361.240184	-361.230512	-361.229568	-361.273978	35.014	
C	-0.1888827507	 1.4480856618	 0.0460987019	-0.337572
N	 0.0148502188	 0.0031383567	-0.0352819353	-0.300329
C	 0.7419652342	-0.5087988655	-1.2063643621	 0.075341
C	 2.2156514571	-0.0544913184	-1.3005324835	-0.417968
C	 0.6673372161	-2.0705653667	-1.1369834954	-0.16924
N	-0.6612051602	-2.6499726929	-1.1257413962	-0.502764
C	 0.0267762794	-0.0803240551	-2.4246862968	 0.304747
N	-0.5146980322	 0.2221055218	-3.4000414155	-0.352704
H	 0.7350697851	 2.0473177643	 0.0600687141	 0.105126
H	-0.7934532204	 1.7785271604	-0.8033101201	 0.153509
H	-0.7482403676	 1.6683945709	 0.9593909965	 0.127751
H	 0.5031301879	-0.3233976656	 0.7932051341	 0.223095
H	 2.7622369916	-0.4195203879	-0.4245431269	 0.11855
H	 2.6952801379	-0.4571103345	-2.1972163048	 0.137063
H	 2.2995510013	 1.0340459101	-1.3332874709	 0.137002
H	 1.2376675806	-2.4875488271	-1.9727297449	 0.118692
H	 1.1936842957	-2.3600224457	-0.2167884446	 0.103113
H	-1.2295024798	-2.1429857492	-0.451865718	 0.235797
H	-1.1040973549	-2.5144804872	-2.0302505516	 0.24079
101.3784	122.3825	152.7724	187.8434	212.0494	229.4197	254.631	281.1229	345.0038	380.4033	417.6291	462.9722	586.8418	633.1986	668.5078	738.4995	873.9987	882.8469	923.1966	951.7474	1054.4935	1094.5813	1120.5661	1148.6082	1153.1266	1173.2576	1205.1689	1293.2711	1367.8034	1400.1482	1405.1365	1459.8307	1466.4261	1479.1388	1487.2326	1497.4725	1510.0343	1523.5546	1674.4833	2353.0587	2981.1469	3013.8644	3041.0395	3079.6437	3086.3861	3113.7846	3120.0781	3129.1823	3487.4715	3513.1745	3564.0408
CNC(C)(CN)C#N	CN[C@@](C)(CN)C#N	
InChI=1S/C5H11N3/c1-5(3-6,4-7)8-2/h8H,3,6H2,1-2H3	InChI=1S/C5H11N3/c1-5(3-6,4-7)8-2/h8H,3,6H2,1-2H3/t5-/m0/s1
