16
gdb 27171	3.02684	1.44488	1.04084	0.5504	71.52	-0.2074	0.0018	0.2092	1109.22	0.126903	-434.063536	-434.055677	-434.054733	-434.09658	29.09	
N	-0.4258846391	 0.8376845379	 1.2034778924	-0.608425
C	-0.1761499951	-0.1974170321	 0.2989504738	 0.167534
C	-1.0142859167	-0.7778311374	-0.6064598347	 0.282133
O	-0.2913993235	-1.7847207732	-1.2260992439	-0.181847
C	 0.9134801877	-1.7511024412	-0.6361768638	 0.067619
N	 1.0526819282	-0.8407409591	 0.274421816	-0.299129
C	-2.4133353427	-0.554636018	-0.9930956093	-0.144308
C	-3.5026522788	-1.3530892047	-0.3558291185	-0.222221
N	-3.3198871121	 0.0593918026	-0.0020003359	-0.325475
H	 0.4310528911	 1.1286705073	 1.6563954516	 0.256633
H	-0.8887545852	 1.6346504253	 0.7857531569	 0.259721
H	 1.6446346289	-2.4698861045	-0.9717813394	 0.149541
H	-2.5844351053	-0.2019740303	-2.0095741918	 0.10621
H	-4.4033550335	-1.5718179761	-0.9225001935	 0.121359
H	-3.2116140239	-2.1136266715	 0.3625706627	 0.120544
H	-2.8407415398	 0.124058965	 0.8942934176	 0.25011
51.3503	132.8404	160.1616	250.3136	294.5123	356.0286	402.4314	482.2817	638.4284	667.0368	699.4725	728.8268	790.372	832.6249	845.0436	891.1264	957.8685	974.9926	1007.7441	1044.7348	1104.8355	1131.1438	1139.731	1178.4923	1191.9604	1260.4923	1285.1745	1303.3732	1320.7918	1382.8265	1445.1547	1505.7864	1550.485	1640.8323	1693.9237	3104.3127	3113.9373	3203.7795	3272.7722	3489.5951	3541.7823	3634.7036
NC1=C(OC=N1)C1CN1	Nc1c(ocn1)[C@H]1CN1	
InChI=1S/C5H7N3O/c6-5-4(3-1-7-3)9-2-8-5/h2-3,7H,1,6H2	InChI=1S/C5H7N3O/c6-5-4(3-1-7-3)9-2-8-5/h2-3,7H,1,6H2/t3-/m1/s1
