20
gdb 124482	2.41518	1.31598	1.05322	3.2446	81.98	-0.2403	-0.0013	0.2391	1254.5934	0.169907	-403.164808	-403.155191	-403.154247	-403.199987	34.606	
C	-0.0684035647	 1.5731551706	 0.0489256814	-0.38404
C	 0.0006348443	 0.0337484112	 0.0507505873	-0.092221
C	 0.7492147434	-0.4908824341	 1.2912857964	-0.384039
C	-1.3669951372	-0.5688218377	-0.0502908737	 0.385278
C	-1.9841797076	-1.3672227862	-0.9706385384	 0.035254
C	-1.4558451042	-1.9297278811	-2.2530301315	-0.515011
C	-3.2836223475	-1.5455525476	-0.411695063	-0.025614
N	-3.438852512	-0.9215793904	 0.7272342574	-0.147232
O	-2.2180272856	-0.2964172704	 0.9624693728	-0.230751
H	 0.939172036	 1.9984289152	 0.0878940989	 0.113864
H	-0.5642636159	 1.9471690455	-0.851502747	 0.120036
H	-0.6270044912	 1.9347952979	 0.9169501176	 0.13769
H	 0.5493341088	-0.2865629943	-0.8425237647	 0.087627
H	 0.2221295893	-0.208825609	 2.2072057486	 0.137691
H	 0.8334743231	-1.5813302574	 1.2723257552	 0.120036
H	 1.7581906173	-0.0691448454	 1.3323929804	 0.113863
H	-1.4798850095	-3.0251795669	-2.2524498807	 0.135506
H	-2.0459565627	-1.5944750698	-3.1132459105	 0.135508
H	-0.4206929606	-1.6242750007	-2.4260770738	 0.130521
H	-4.1117037735	-2.1149235095	-0.8127294129	 0.126034
38.3897	77.3281	139.7105	176.3801	222.4845	246.7497	257.9996	271.9003	364.8185	397.2146	503.1523	611.7527	651.8601	696.4727	738.6024	882.7234	909.4295	932.5497	934.1067	955.959	965.7123	1002.7711	1066.6893	1072.0751	1120.5746	1136.9776	1198.3201	1208.3401	1264.5522	1330.7349	1359.7288	1396.2536	1396.5131	1418.9139	1429.1117	1483.9453	1486.8343	1491.1487	1493.9331	1500.3708	1506.7848	1524.3819	1671.1634	3031.8297	3038.4752	3040.7092	3041.8692	3082.2201	3110.018	3113.2369	3113.3034	3118.3841	3122.9913	3231.9562
CC(C)C1=C(C)C=NO1	CC(C)c1c(C)cno1	
InChI=1S/C7H11NO/c1-5(2)7-6(3)4-8-9-7/h4-5H,1-3H3	InChI=1S/C7H11NO/c1-5(2)7-6(3)4-8-9-7/h4-5H,1-3H3
