21
gdb 80983	2.20878	1.7833	1.56193	1.6216	82.29	-0.2301	0.0096	0.2398	1026.311	0.182703	-387.090438	-387.082111	-387.081167	-387.12251	33.616	
C	-0.2239902792	 1.6284235964	-0.0320780912	-0.435745
C	 0.016465311	 0.1299579436	 0.0129130293	-0.008271
C	 1.1437159583	-0.5751730449	-0.7816854122	 0.064214
C	 2.4777502883	 0.1878636611	-0.7542662449	-0.269477
C	 2.8000641691	 0.5594924248	 0.6768349437	-0.074553
C	 1.9462438391	 0.2001879846	 1.6347150075	-0.083194
C	 0.7236726124	-0.5942906518	 1.2046597285	 0.362874
C	-0.083821807	-1.1845295858	 2.3348018873	-0.493837
O	 1.185954994	-1.6055519335	 0.2430695496	-0.331181
H	 0.6757535462	 2.2001000743	 0.208035505	 0.123398
H	-0.5673135492	 1.9332450255	-1.0271991219	 0.114912
H	-1.003642035	 1.9181304801	 0.6814367262	 0.115677
H	-0.9146019295	-0.4090585706	-0.1905149799	 0.07935
H	 0.9114452526	-0.982940324	-1.7699363349	 0.068636
H	 3.2723919303	-0.4408763688	-1.1767606431	 0.115501
H	 2.4239746537	 1.0839600094	-1.3881449228	 0.10525
H	 3.71627393	 1.1039558151	 0.8871393631	 0.092442
H	 2.0958703986	 0.4420628687	 2.6824416536	 0.085571
H	-0.4821958581	-0.3895535463	 2.9747988754	 0.11811
H	-0.9179026232	-1.7740578561	 1.9456445161	 0.121936
H	 0.5411447776	-1.8363578216	 2.9547293157	 0.128387
186.3335	192.6779	203.3256	230.2908	239.9345	302.1295	349.7081	442.1903	507.9769	516.6277	550.3313	654.9058	690.1702	716.1016	801.1403	844.97	873.8692	880.707	916.0327	946.1951	968.6299	991.5301	1003.5414	1040.8804	1095.0777	1125.5616	1141.5552	1147.3124	1172.653	1206.1243	1253.1488	1272.7154	1302.9299	1323.748	1362.1205	1381.668	1404.5371	1409.8004	1416.0285	1461.9668	1479.7085	1492.6924	1493.711	1502.0852	1696.059	3013.1031	3030.4616	3033.6249	3043.218	3051.2558	3067.4051	3088.0038	3100.5505	3116.524	3119.9007	3158.512	3183.5494
CC1C2CC=CC1(C)O2	C[C@H]1[C@H]2CC=C[C@]1(C)O2	
InChI=1S/C8H12O/c1-6-7-4-3-5-8(6,2)9-7/h3,5-7H,4H2,1-2H3	InChI=1S/C8H12O/c1-6-7-4-3-5-8(6,2)9-7/h3,5-7H,4H2,1-2H3/t6-,7+,8-/m0/s1
