17
gdb 54938	4.68214	0.87857	0.80219	3.5259	69.32	-0.2342	-0.0213	0.2129	1386.734	0.135212	-455.161359	-455.152037	-455.151093	-455.19681	32.477	
N	-0.1927222494	 1.4564698609	-0.0793713796	-0.522893
C	-0.0082226071	 0.1182081492	 0.0734953439	 0.397647
O	 1.0659314657	-0.3762200361	 0.3665151468	-0.366967
C	-1.2501829179	-0.7379984953	-0.1737883016	-0.067041
C	-1.4552052954	-1.109527222	-1.6745290492	-0.27594
C	-0.9810044198	-2.5237737017	-1.2761402091	-0.037085
N	-1.0354214162	-2.159341032	 0.1685180849	-0.341334
C	-1.9145755969	-3.6729904684	-1.5890384703	 0.16382
O	-2.7485835549	-3.6596233439	-2.457441964	-0.243832
H	 0.5912351752	 2.0738720268	 0.053819288	 0.266539
H	-1.0923257588	 1.8527359255	-0.2883158133	 0.265032
H	-2.1170541981	-0.289654334	 0.3277127318	 0.088388
H	-2.4923473946	-1.0906469707	-2.0108156674	 0.132372
H	-0.8316037652	-0.5710139826	-2.3884775124	 0.119236
H	 0.0249696485	-2.7799324986	-1.6379711677	 0.103906
H	-0.1397505722	-2.2679590116	 0.6392247188	 0.236368
H	-1.7822017628	-4.5512410953	-0.9169711194	 0.081785
47.3893	61.2145	96.5414	141.0553	158.9164	252.3532	278.9248	352.7665	441.3118	562.0379	589.3475	630.159	701.7928	739.5935	776.2667	836.1002	900.8556	926.6544	985.7488	1032.8054	1056.7413	1081.3875	1089.5912	1129.9408	1149.7421	1233.2022	1249.5056	1280.6684	1290.622	1338.4697	1371.823	1408.44	1443.8233	1491.9358	1619.1251	1788.4383	1831.4155	2880.8737	3007.2771	3021.8118	3090.2715	3147.6865	3495.8091	3603.117	3737.5104
NC(=O)C1CC(N1)C=O	NC(=O)[C@H]1C[C@@H](N1)C=O	
InChI=1S/C5H8N2O2/c6-5(9)4-1-3(2-8)7-4/h2-4,7H,1H2,(H2,6,9)	InChI=1S/C5H8N2O2/c6-5(9)4-1-3(2-8)7-4/h2-4,7H,1H2,(H2,6,9)/t3-,4-/m1/s1
