21
gdb 63952	2.69472	1.70512	1.52414	1.1986	76.93	-0.2394	0.0857	0.3251	998.0911	0.183437	-424.239083	-424.231029	-424.230085	-424.271002	32.751	
C	-0.0974918953	 1.5512462768	 0.0046205477	-0.427827
C	-0.0242990495	 0.0253532687	 0.0380914615	 0.382799
C	-1.4284071681	-0.5772857944	-0.0568359012	-0.428495
O	 0.7671335633	-0.4403146428	-1.1030006032	-0.331995
C	 1.8873502045	-1.1518862171	-0.563728392	 0.079516
C	 2.7998910904	-0.1360133799	 0.1338572157	-0.087633
O	 2.0362109276	 0.2223011791	 1.3070627405	-0.282593
C	 0.8158933567	-0.5307094259	 1.2205162747	 0.051401
C	 1.2959754379	-1.8750218909	 0.6556256738	-0.251199
H	 0.8898232753	 1.9956830834	 0.1304695592	 0.132976
H	-0.5167433901	 1.8785499121	-0.9512151589	 0.11792
H	-0.7439834433	 1.9237669423	 0.8063759156	 0.108402
H	-1.8858791168	-0.2879356631	-1.0077038831	 0.127558
H	-1.4144263426	-1.6686374851	-0.0143961641	 0.113725
H	-2.0660593	-0.2081308386	 0.7532629893	 0.113261
H	 2.3489317052	-1.7436925708	-1.3538896102	 0.081667
H	 3.7669214681	-0.5574437995	 0.4372128627	 0.098044
H	 2.9681542333	 0.7461794707	-0.4926414281	 0.106669
H	 0.3255084095	-0.5121007841	 2.1934654458	 0.078511
H	 0.5092277707	-2.5807995744	 0.3922136557	 0.11054
H	 2.0373165931	-2.3527319765	 1.2990312988	 0.106752
149.0861	174.9544	215.3562	237.8145	329.1908	358.7917	384.0198	451.6348	487.0009	511.0217	573.3366	695.1913	801.4313	813.8165	845.4042	892.1339	910.2766	924.9463	937.349	962.0822	969.0949	975.1023	1007.4209	1017.1849	1065.226	1082.4005	1128.7265	1168.9272	1203.0009	1216.831	1220.8698	1257.3266	1277.2939	1299.7522	1321.3548	1336.9096	1373.75	1399.4109	1416.8839	1474.5545	1479.7124	1486.95	1500.0235	1505.8627	1515.3144	3017.724	3039.0179	3046.1989	3072.6862	3088.172	3105.3412	3112.5467	3121.9888	3125.1708	3130.2663	3151.2376	3154.4765
CC1(C)OC2COC1C2	CC1(C)O[C@H]2CO[C@@H]1C2	
InChI=1S/C7H12O2/c1-7(2)6-3-5(9-7)4-8-6/h5-6H,3-4H2,1-2H3	InChI=1S/C7H12O2/c1-7(2)6-3-5(9-7)4-8-6/h5-6H,3-4H2,1-2H3/t5-,6-/m1/s1
