16
gdb 69804	2.67993	1.91067	1.31861	2.1475	68.55	-0.2382	-0.045	0.1932	946.2336	0.124314	-437.849048	-437.841697	-437.840753	-437.880619	29.166	
O	 0.0311107222	 1.4227706353	-0.0128565303	-0.467718
C	-0.0287177753	 0.0419062866	-0.0658489065	 0.343533
C	-0.4433912198	-0.6466666011	-1.3434082611	-0.363794
C	-1.2801367793	-0.8051025164	-0.0934047126	-0.08404
N	-1.1235959506	-1.986340331	 0.7898362522	-0.098968
C	-0.166040399	-3.0013650885	 0.3687959576	-0.250436
C	 0.2439301719	-1.9499908183	 1.3489799796	-0.134332
C	 0.8911174885	-0.6690987703	 0.8992935149	 0.32641
O	 1.8521061676	-0.1288345791	 1.395577694	-0.341094
H	 0.8261581198	 1.6252612068	 0.502928481	 0.297627
H	-0.855517253	 0.0399681454	-2.0763020133	 0.138549
H	 0.1304352788	-1.4571376499	-1.7757402165	 0.124539
H	-2.2746552882	-0.3761593869	-0.0737250678	 0.121455
H	-0.3658435344	-3.997992466	 0.7523873996	 0.134434
H	 0.246747059	-2.9871697546	-0.6329474928	 0.128978
H	 0.3784548518	-2.2022066121	 2.396450082	 0.124857
104.2848	193.1475	279.3383	306.2651	337.4894	413.3722	464.0606	494.7102	587.6361	611.029	653.7371	738.7534	780.7519	840.1787	856.2223	895.1684	927.6376	968.1852	1002.1398	1024.1137	1055.1172	1063.5466	1095.9727	1104.214	1144.49	1158.2223	1212.3289	1257.5865	1275.2994	1343.1254	1370.4994	1425.6117	1477.5969	1517.7636	1816.8497	3125.2281	3137.5502	3161.7633	3187.0093	3212.3237	3223.4671	3723.5996
OC12CC1N1CC1C2=O	O[C@]12C[C@H]1N1C[C@H]1C2=O	
InChI=1S/C6H7NO2/c8-5-3-2-7(3)4-1-6(4,5)9/h3-4,9H,1-2H2	InChI=1S/C6H7NO2/c8-5-3-2-7(3)4-1-6(4,5)9/h3-4,9H,1-2H2/t3-,4+,6+,7?/m0/s1
