18
gdb 47505	2.7929	1.39317	1.05265	2.6688	71.69	-0.2364	-0.0194	0.2169	1139.0627	0.148206	-439.077946	-439.070016	-439.069072	-439.110928	30.535	
O	 0.1888982957	 0.6295220923	-1.1888579048	-0.303838
C	 0.011355677	 1.3207149997	-0.2161610999	 0.381907
C	-1.3408523605	 1.9794787329	 0.0701527662	-0.268024
N	-1.2754395232	 2.7673428121	 1.2942972825	-0.30665
C	-0.2232812873	 3.7772961422	 1.2146717752	-0.254315
C	 1.1400518724	 3.0846328691	 1.1989266031	 0.434563
C	 2.3599818086	 3.8729704816	 0.9906522811	-0.235886
O	 2.0169056175	 3.3798297345	 2.2906162289	-0.273704
C	 1.0842042129	 1.608151446	 0.8223484356	-0.372304
H	-1.6100405684	 2.5607082088	-0.8319311063	 0.112215
H	-2.0876429267	 1.184712195	 0.1731246223	 0.136409
H	-2.1707475549	 3.1979651927	 1.4903731844	 0.230145
H	-0.3182345692	 4.4149358151	 0.3148002561	 0.088917
H	-0.2683392902	 4.4272745576	 2.0922061522	 0.125427
H	 3.2313804416	 3.4120154837	 0.5271318138	 0.117723
H	 2.2917966309	 4.9543268935	 0.8700061578	 0.113509
H	 0.7980982661	 1.0580450385	 1.7290806231	 0.150822
H	 2.0467755079	 1.2290578649	 0.4762535487	 0.123083
58.2663	86.615	282.6514	316.3508	351.1562	373.3119	398.	457.8427	480.1052	537.4412	561.1555	703.7031	779.2186	806.3119	838.3292	906.1027	935.9359	952.8643	980.4942	1006.3828	1084.349	1127.5301	1131.0965	1163.9852	1167.2481	1182.9994	1234.7088	1273.3341	1280.1113	1288.3729	1308.5322	1379.7717	1424.6753	1447.6104	1460.6742	1478.4057	1492.0181	1531.0369	1829.7735	2913.7639	2932.3044	3031.2585	3070.7203	3075.1932	3095.4403	3126.1968	3161.3709	3550.022
O=C1CNCC2(CO2)C1	O=C1CNC[C@]2(CO2)C1	
InChI=1S/C6H9NO2/c8-5-1-6(4-9-6)3-7-2-5/h7H,1-4H2	InChI=1S/C6H9NO2/c8-5-1-6(4-9-6)3-7-2-5/h7H,1-4H2/t6-/m0/s1
