19
gdb 31522	3.04758	1.13125	0.8793	1.4092	80.8	-0.1885	0.0184	0.2068	1370.4928	0.15903	-419.260234	-419.250456	-419.249511	-419.295597	34.759	
C	-0.3522079714	 1.4357548417	-0.174189687	-0.377519
C	 0.1926537499	 0.0075925619	-0.0010226251	-0.288594
C	 0.9295786774	-0.4870169715	-1.1979476252	 0.38245
N	 2.1859215104	-0.8014223367	-1.2936982	-0.348201
C	 2.3540476437	-1.1854117029	-2.6173908815	 0.162754
N	 3.6214463432	-1.5403038324	-3.0850176803	-0.602277
C	 1.1697975169	-1.0792917207	-3.2784320491	 0.272257
C	 0.7126761114	-1.317201693	-4.6686879408	-0.502885
O	 0.2417357107	-0.630956142	-2.3508559788	-0.218343
H	 0.4621331292	 2.1461517116	-0.3444749404	 0.129088
H	-1.0344522893	 1.491353334	-1.0267851355	 0.131579
H	-0.8972411545	 1.7486368835	 0.7210951325	 0.116114
H	 0.8848875328	-0.0419393999	 0.8428569828	 0.131175
H	-0.6385358203	-0.6745920974	 0.2170569543	 0.119176
H	 4.232645498	-1.7675952989	-2.3113517579	 0.251483
H	 3.6101307617	-2.2993506363	-3.7529699171	 0.243079
H	-0.0042760151	-2.1449050778	-4.7422857412	 0.131182
H	 0.2310033542	-0.4288514642	-5.0944210586	 0.137301
H	 1.571530811	-1.5593192391	-5.3009271712	 0.13018
38.4327	93.4465	120.2406	176.3006	197.8098	233.5684	250.1997	282.819	313.6577	397.2319	499.5198	605.6294	643.6568	674.8076	731.196	774.4605	796.0061	803.8267	964.8304	968.7582	1024.5414	1064.3111	1067.6756	1083.5497	1109.9653	1185.3431	1269.5548	1280.5739	1334.6039	1367.3702	1400.0547	1409.1407	1436.3976	1471.5304	1473.8156	1495.4278	1497.2591	1507.304	1611.0366	1642.0145	1710.3632	3016.0615	3033.6011	3043.7593	3063.075	3102.9664	3111.824	3116.0317	3126.9913	3544.737	3638.7161
CCC1=NC(N)=C(C)O1	CCc1nc(N)c(C)o1	
InChI=1S/C6H10N2O/c1-3-5-8-6(7)4(2)9-5/h3,7H2,1-2H3	InChI=1S/C6H10N2O/c1-3-5-8-6(7)4(2)9-5/h3,7H2,1-2H3
