20
gdb 8716	2.66609	1.64674	1.33205	1.494	66.47	-0.2595	0.057	0.3165	1019.2219	0.174319	-423.256793	-423.246791	-423.245847	-423.291193	36.163	
C	-0.0151156039	 1.3605986043	 0.0364711945	-0.270993
O	 0.0592628317	-0.0542983097	-0.08045182	-0.301293
C	 0.7130463001	-0.6082173875	-1.2512858837	 0.264643
C	 0.6128810009	-2.1211398329	-1.0528001519	-0.39999
C	-0.0395617433	-0.1653412148	-2.5163593199	-0.079946
O	-1.4222843027	-0.4482659823	-2.4291330516	-0.429664
C	 2.1801740111	-0.1505820997	-1.2837996886	-0.079987
O	 2.8397196249	-0.4191764409	-0.062148589	-0.429667
H	 0.9741191492	 1.833177926	 0.084223625	 0.124274
H	-0.5836495088	 1.8227303296	-0.7804769893	 0.124282
H	-0.5378678841	 1.5571374298	 0.9758448757	 0.136032
H	-0.4333316413	-2.4276259447	-0.9996615765	 0.126282
H	 1.0827591957	-2.6411894025	-1.8926852579	 0.11647
H	 1.1238425321	-2.4172872839	-0.1349047255	 0.126303
H	 0.1347358882	 0.9065989287	-2.7021163893	 0.084552
H	 0.3528035503	-0.708323287	-3.382824268	 0.111062
H	-1.6709789882	-0.2945493824	-1.5093514746	 0.29101
H	 2.7138831193	-0.6930611015	-2.0714649919	 0.111069
H	 2.234844529	 0.9204176489	-1.5366055088	 0.08454
H	 2.1888076098	-0.2675846576	 0.6341368112	 0.291018
70.8509	118.5213	121.4221	180.1373	201.5856	247.6957	290.2227	312.9211	339.0034	377.1945	408.5628	408.6729	434.4647	503.535	641.5339	734.8851	872.6359	896.2902	953.6544	1004.5288	1061.2929	1084.7798	1093.9339	1163.7672	1180.4116	1189.0603	1195.7553	1216.4941	1249.2231	1286.2231	1347.444	1371.8695	1408.1247	1429.7236	1442.579	1477.6078	1486.375	1486.8494	1494.4087	1509.906	1520.6657	1527.3535	2969.2546	2980.1028	3010.7389	3055.3068	3064.2719	3067.666	3073.3995	3115.332	3128.7222	3146.2473	3780.285	3783.7806
COC(C)(CO)CO	COC(C)(CO)CO	
InChI=1S/C5H12O3/c1-5(3-6,4-7)8-2/h6-7H,3-4H2,1-2H3	InChI=1S/C5H12O3/c1-5(3-6,4-7)8-2/h6-7H,3-4H2,1-2H3
