22
gdb 114113	4.15559	0.90131	0.83987	2.3213	83.36	-0.2419	0.0838	0.3257	1488.8527	0.193588	-404.304699	-404.295081	-404.294136	-404.339405	35.585	
C	 0.1998661263	 1.5428983412	 0.1284164713	-0.378923
C	-0.0851824942	 0.0478800958	-0.0681915944	-0.276713
C	 0.5257084282	-0.4929119627	-1.3289710713	 0.363477
C	 0.0514363132	-0.2077615504	-2.7665548239	-0.344423
C	 0.4735861131	-1.6762886504	-3.1399662529	 0.128086
O	 1.4936545608	-1.8538136239	-4.0908906273	-0.244367
C	 1.0725858548	-1.6180631952	-5.4160309275	-0.23568
C	 0.9504524768	-1.8892622786	-1.706309731	-0.141362
N	 1.9339087307	-0.8756505297	-1.33363892	-0.358713
H	 1.2776675353	 1.7259677559	 0.1778134977	 0.128686
H	-0.2052387974	 2.1378726382	-0.6974604648	 0.113722
H	-0.2502830758	 1.9107668607	 1.0553176421	 0.111703
H	 0.3135164565	-0.5194443083	 0.7796807927	 0.109982
H	-1.1690831657	-0.1242674776	-0.0900274051	 0.092735
H	-1.0256796452	-0.0441867108	-2.8581004941	 0.10292
H	 0.5818627822	 0.5960620176	-3.2880723384	 0.097293
H	-0.4022638062	-2.2918447357	-3.3931652431	 0.06975
H	 0.2599353541	-2.3006029465	-5.7100128335	 0.105509
H	 0.7220247698	-0.5850522951	-5.5603661409	 0.107871
H	 1.9326062316	-1.7922396508	-6.066983377	 0.128906
H	 0.9258463066	-2.8186301412	-1.1483163775	 0.088045
H	 2.4448354645	-0.5381977626	-2.1476084311	 0.231494
78.8252	82.6638	131.4487	153.8504	200.5136	223.7026	280.6471	336.2345	353.5107	438.7456	466.2941	578.8602	665.786	750.3508	789.0362	824.3887	857.6688	932.3268	945.5942	990.5414	998.568	1009.2111	1032.7178	1069.4534	1097.7197	1123.8432	1146.8378	1163.9271	1184.0168	1197.8017	1210.883	1236.6772	1241.4108	1277.4415	1289.205	1335.8538	1353.2417	1377.0382	1406.2518	1447.3753	1475.8797	1480.6356	1486.1661	1488.1061	1498.5135	1508.7203	1509.8739	2975.7226	2994.1911	3023.8579	3024.8083	3034.4201	3044.0806	3071.4347	3101.6204	3103.1851	3112.3875	3115.9257	3175.3838	3469.9376
CCC12CC(OC)C1N2	CC[C@]12C[C@@H](OC)[C@H]1N2	
InChI=1S/C7H13NO/c1-3-7-4-5(9-2)6(7)8-7/h5-6,8H,3-4H2,1-2H3	InChI=1S/C7H13NO/c1-3-7-4-5(9-2)6(7)8-7/h5-6,8H,3-4H2,1-2H3/t5-,6-,7+/m1/s1
