21
gdb 119288	2.35939	1.2013	0.94327	0.8822	85.32	-0.2516	0.0372	0.2888	1361.987	0.179962	-387.041861	-387.031921	-387.030977	-387.076908	36.861	
C	 0.0822704362	 1.5688245076	 0.1940390095	-0.383549
C	-0.0549962322	 0.0627040241	 0.0506926934	-0.057899
O	 0.7426580021	-0.3463756277	-1.0528156338	-0.283268
C	 0.7033751505	-1.7232428452	-1.3488157637	 0.252589
C	-0.6230736826	-2.2890854191	-1.9725802862	-0.268727
C	 0.2337283636	-2.9902390384	-3.0590138678	-0.216061
C	 1.4105080056	-2.0474422691	-2.6967619472	-0.268058
C	 1.1947221452	-2.5480293232	-0.2421180097	 0.32225
C	 1.5980170571	-3.2329646399	 0.6607386689	-0.508786
H	 1.1264365431	 1.8427683432	 0.3694239133	 0.128064
H	-0.2567643167	 2.0765720972	-0.7135422436	 0.123123
H	-0.5171992617	 1.9260913371	 1.0368246419	 0.114016
H	 0.2753294745	-0.4486209216	 0.9657756519	 0.103446
H	-1.1069741078	-0.2155216723	-0.1198286732	 0.08838
H	-1.260359703	-2.906196879	-1.3376881798	 0.105803
H	-1.2036482558	-1.459324085	-2.384887098	 0.109335
H	 0.4483733353	-4.0293500967	-2.7993008896	 0.114528
H	-0.1359310209	-2.9547268686	-4.0850460151	 0.102729
H	 1.4184799645	-1.1422252217	-3.3084434699	 0.115048
H	 2.4170926792	-2.4634620842	-2.6419378903	 0.10989
H	 1.9585172338	-3.8348179278	 1.4581705191	 0.197147
67.4796	99.4428	114.448	144.2612	183.7569	213.5046	249.979	347.7596	393.5203	410.1453	498.5574	557.3972	612.6738	666.1081	682.0518	693.8899	795.813	823.2812	854.3676	891.08	925.922	936.9481	982.5167	1041.6949	1044.5684	1080.4411	1136.4949	1163.3055	1188.9151	1193.9841	1207.1875	1248.4272	1277.23	1280.3362	1282.2479	1299.1289	1400.1114	1426.9769	1464.5045	1480.946	1483.6619	1500.7281	1501.4596	1528.6145	2223.7495	2980.1904	3024.2975	3044.1411	3064.7028	3072.7672	3076.4976	3117.9402	3118.2931	3121.4227	3132.4711	3141.8839	3499.9017
CCOC1(CCC1)C#C	CCOC1(CCC1)C#C	
InChI=1S/C8H12O/c1-3-8(9-4-2)6-5-7-8/h1H,4-7H2,2H3	InChI=1S/C8H12O/c1-3-8(9-4-2)6-5-7-8/h1H,4-7H2,2H3
