21
gdb 79398	2.42536	1.50644	1.44691	1.1776	83.07	-0.2495	0.0734	0.3228	1085.5157	0.181126	-387.028846	-387.019958	-387.019014	-387.061554	35.005	
C	-0.164602717	 1.6049585911	-0.0190068769	-0.436416
C	-0.0416213467	 0.0879199863	-0.0042632192	-0.06653
C	 1.1891834834	-0.5900629425	-0.6548667324	-0.094345
C	 2.1356229787	-0.2891553236	 0.5542300177	-0.124941
C	 2.5795157588	-1.7588799778	 0.6716917181	-0.324655
C	 1.0870411503	-1.8553644781	 0.2806304253	 0.317649
C	 0.2509773607	-3.0874873412	 0.0652123212	-0.524464
C	 0.7118515263	-0.6111867371	 1.1519146692	 0.366166
O	 0.3594657796	-0.7255082098	 2.4856034147	-0.481467
H	 0.7844980209	 2.0930953963	 0.2273069609	 0.112216
H	-0.4756270466	 1.9671871653	-1.004945574	 0.11801
H	-0.9155825174	 1.9470923696	 0.7028857943	 0.111496
H	-0.9996473456	-0.3821559179	-0.2597957519	 0.063376
H	 1.4870843042	-0.5998203204	-1.70239423	 0.070193
H	 2.7228437388	 0.6173260968	 0.7037891993	 0.065355
H	 3.3041321093	-2.114775626	-0.0685746699	 0.083956
H	 2.8447894952	-2.1137341121	 1.6722823237	 0.096869
H	 0.2021823412	-3.68677482	 0.9808251251	 0.127452
H	-0.775124736	-2.8333353229	-0.2216086641	 0.119809
H	 0.6741088545	-3.7168088337	-0.7255229371	 0.116485
H	 0.3582961474	 0.1533799778	 2.8800051659	 0.283789
175.3656	188.9902	194.1304	203.6815	212.6302	246.277	296.1462	311.5631	417.4646	495.8051	528.2053	644.2592	658.7592	717.4874	758.7503	842.0282	866.6396	900.0307	917.4856	929.5256	958.0029	1011.9832	1020.8638	1040.4518	1075.2999	1090.0562	1113.6503	1145.4016	1162.6927	1169.9507	1192.4044	1217.4835	1236.1079	1261.2307	1274.84	1309.218	1382.8726	1406.7897	1409.0742	1416.1638	1485.9936	1493.4036	1495.6768	1501.3584	1508.6176	3023.879	3026.1485	3030.1331	3036.923	3085.0531	3092.6601	3094.7151	3095.388	3096.4815	3106.8561	3128.0539	3804.033
CC1C2C3CC2(C)C13O	C[C@H]1[C@H]2[C@@H]3C[C@@]2(C)[C@]13O	
InChI=1S/C8H12O/c1-4-6-5-3-7(6,2)8(4,5)9/h4-6,9H,3H2,1-2H3	InChI=1S/C8H12O/c1-4-6-5-3-7(6,2)8(4,5)9/h4-6,9H,3H2,1-2H3/t4-,5-,6-,7+,8-/m0/s1
