17
gdb 14161	3.45265	2.3264	1.89531	0.7931	68.03	-0.2119	0.0089	0.2208	769.6452	0.142703	-363.809196	-363.802144	-363.8012	-363.839749	28.537	
C	-0.119541269	 1.5121060284	-0.0488040772	-0.480088
C	-0.0165860774	-0.0056524802	-0.0205018294	 0.476426
O	-1.2589859381	-0.5925978942	-0.2964137729	-0.474683
C	 1.2861066111	-0.6233039552	-0.7114938548	-0.129932
N	 1.9934638928	-0.1487198617	 0.5272463418	-0.308946
C	 0.7453015818	-0.6356661196	 1.2096328271	-0.105135
C	 0.7011112489	-2.1296518643	 0.842123406	-0.083558
C	 1.0656927196	-2.1187651427	-0.4437993066	-0.08122
H	 0.834870433	 1.977193393	 0.1928089315	 0.152874
H	-0.4271357008	 1.8515544212	-1.0472379039	 0.105218
H	-0.8774702271	 1.8491841306	 0.6670591424	 0.11952
H	-1.7559651432	 0.0100388385	-0.8573826384	 0.279644
H	 1.6666536387	-0.2913564527	-1.6786812979	 0.05886
H	 2.7803804625	-0.7603923638	 0.7451898376	 0.202793
H	 0.5636091223	-0.3238139354	 2.2390762087	 0.062729
H	 0.3765122215	-2.9442903955	 1.4727782969	 0.103651
H	 1.1207089035	-2.9241285463	-1.1617702809	 0.101848
182.0385	236.4977	237.4296	274.477	372.4411	401.3276	538.6985	576.3977	578.0478	627.6712	726.9862	785.0498	822.2997	837.3978	875.0506	909.0365	916.1518	959.5088	965.9808	999.4088	1069.8474	1096.2736	1114.4701	1145.6194	1153.5487	1214.8828	1228.4696	1266.3776	1278.7833	1300.8247	1322.8802	1389.4457	1398.4193	1487.6793	1504.0725	1612.1879	3017.1073	3079.6872	3105.4665	3110.133	3162.7402	3225.9784	3253.1294	3450.8117	3828.6491
CC1(O)C2NC1C=C2	C[C@@]1(O)[C@H]2N[C@@H]1C=C2	
InChI=1S/C6H9NO/c1-6(8)4-2-3-5(6)7-4/h2-5,7-8H,1H3	InChI=1S/C6H9NO/c1-6(8)4-2-3-5(6)7-4/h2-5,7-8H,1H3/t4-,5+,6+
