18
gdb 45564	3.22512	1.41186	1.21805	3.8996	71.37	-0.2383	0.0334	0.2717	1052.8946	0.150873	-439.143495	-439.136095	-439.135151	-439.175982	28.606	
O	 0.0019230739	-0.0717376693	 0.0474323722	-0.375709
C	-0.0378133677	 1.1369575425	 0.0916265065	 0.397572
C	-1.2733293882	 2.0283493663	 0.227944932	-0.35189
C	-0.7420211357	 3.4536509443	 0.4344050276	 0.109347
O	-0.7940083909	 3.8666266969	 1.799570806	-0.266514
C	 0.5099974107	 3.8284691169	 2.3712729397	-0.079621
C	 1.4589858336	 4.1285153118	 1.2096761713	-0.230129
C	 0.7700364593	 3.4005622956	 0.0449915532	-0.031986
N	 1.0439678925	 1.9772217106	 0.0064074694	-0.302599
H	-1.8658545081	 1.9377031571	-0.6881739346	 0.129684
H	-1.8995131107	 1.7066913959	 1.0618937455	 0.144783
H	-1.2963722657	 4.1928200863	-0.150374142	 0.087839
H	 0.5466853919	 4.5702843572	 3.1733579903	 0.113603
H	 0.7205047933	 2.8395704572	 2.8048649991	 0.103801
H	 1.4857808177	 5.2036416813	 1.0057276709	 0.112367
H	 2.4819759059	 3.7830111474	 1.3799288126	 0.104629
H	 0.9744648406	 3.8755028514	-0.9210854543	 0.085207
H	 1.9626684477	 1.5979077807	-0.1623577954	 0.249615
69.5742	83.8651	212.8776	344.337	390.8233	467.4604	493.0213	586.1635	595.5869	646.0069	659.205	812.64	830.4617	857.9829	882.868	905.388	932.5804	991.0321	1005.2367	1038.597	1046.7601	1101.0074	1135.6321	1175.0576	1211.634	1232.4907	1243.7366	1264.856	1296.5394	1324.1352	1324.7811	1368.3276	1381.1571	1403.4971	1432.4863	1450.8982	1481.8818	1520.6204	1833.1519	2996.6744	3034.1062	3057.2292	3061.2387	3073.4856	3093.1048	3111.1939	3128.5225	3635.5369
O=C1CC2OCCC2N1	O=C1C[C@H]2OCC[C@H]2N1	
InChI=1S/C6H9NO2/c8-6-3-5-4(7-6)1-2-9-5/h4-5H,1-3H2,(H,7,8)	InChI=1S/C6H9NO2/c8-6-3-5-4(7-6)1-2-9-5/h4-5H,1-3H2,(H,7,8)/t4-,5-/m1/s1
