19
gdb 24592	4.89847	1.06939	0.91887	2.2251	84.27	-0.168	0.0575	0.2255	1282.1077	0.161938	-382.079226	-382.071222	-382.070278	-382.112546	30.56	
C	-0.1024366905	 1.6150232163	 0.1027793501	-0.230832
C	 1.4359806877	 1.5799574234	-0.0761808558	-0.160844
N	 1.4239970498	 0.17096253	 0.3516232745	-0.171679
C	-0.0388743991	 0.0680514331	 0.1234968368	-0.177526
C	 2.331904462	-0.7410099386	-0.1765603837	 0.36206
C	 3.4334479885	-0.5760685649	-0.9914649017	-0.242762
C	 4.0296615999	-1.863438997	-1.1574936239	-0.135332
C	 3.2784013818	-2.7685092628	-0.4549200784	-0.100708
N	 2.2438543369	-2.0744597007	 0.1435266585	-0.309946
H	-0.4108799868	 2.0410081747	 1.058878942	 0.115268
H	-0.680533905	 2.0705194691	-0.7008984018	 0.110499
H	 1.7375288126	 1.7048633186	-1.1268568239	 0.100103
H	 2.0447043525	 2.2406026897	 0.5489446394	 0.108451
H	-0.5912010072	-0.4507931201	 0.9141078569	 0.100099
H	-0.2889685434	-0.3859307856	-0.8463070158	 0.100881
H	 3.7747411438	 0.3554456619	-1.4138071648	 0.082436
H	 4.9081252946	-2.0909560158	-1.741829877	 0.086547
H	 3.3717295708	-3.8349481643	-0.3322193442	 0.10812
H	 1.5739569412	-2.4604083771	 0.7848820828	 0.255168
40.7426	109.3951	158.4608	205.8038	337.7679	428.3972	447.5246	479.7027	621.0843	653.791	701.8675	734.2679	757.3752	832.1516	851.494	873.4035	897.2923	931.5741	942.9403	987.9977	1047.9075	1061.6202	1100.4461	1116.8955	1133.7771	1145.6413	1159.8324	1211.0415	1221.0358	1269.3071	1284.7674	1294.933	1318.1289	1348.7106	1422.4303	1470.2291	1488.7801	1506.7353	1527.1497	1532.6104	1622.8106	2988.858	2997.1844	3057.7002	3067.0842	3088.7861	3144.8662	3241.8342	3258.318	3273.9152	3686.4056
C1CN(C1)C1=CC=CN1	C1CN(C1)c1ccc[nH]1	
InChI=1S/C7H10N2/c1-3-7(8-4-1)9-5-2-6-9/h1,3-4,8H,2,5-6H2	InChI=1S/C7H10N2/c1-3-7(8-4-1)9-5-2-6-9/h1,3-4,8H,2,5-6H2
