19
gdb 52552	3.66516	0.71475	0.65459	2.2224	84.48	-0.2611	-0.0274	0.2337	1806.5177	0.155401	-423.046618	-423.035675	-423.034731	-423.085258	37.05	
C	 0.108605443	 1.4227308633	-0.0346297786	-0.508305
C	 0.0766107609	-0.0292406991	-0.0142560494	 0.228069
C	 0.0497369387	-1.233503434	 0.0013989147	-0.072465
C	-0.0641654336	-2.6722214527	 0.0296506934	 0.262027
O	-1.1121186765	-3.2688078627	 0.1132051257	-0.367908
O	 1.1482119854	-3.2505387015	-0.0536511452	-0.247374
C	 1.1821774842	-4.7054970254	-0.0461225286	 0.148401
C	 2.4620756145	-5.0953280944	-0.7699876052	-0.396141
C	 1.1169155596	-5.2109283381	 1.3914225674	-0.397391
H	 1.1338815073	 1.8011361652	 0.030691604	 0.158976
H	-0.335318493	 1.8059898954	-0.959820819	 0.162754
H	-0.4621521479	 1.8372676879	 0.8031992203	 0.162246
H	 0.30423086	-5.0553745116	-0.5962578353	 0.111006
H	 3.3396765187	-4.7130689274	-0.2395256357	 0.126323
H	 2.5417490691	-6.1848723886	-0.827900402	 0.120082
H	 2.4715482199	-4.6930056435	-1.7863718691	 0.126113
H	 1.957404475	-4.821581673	 1.9747040121	 0.121919
H	 0.181850616	-4.903791664	 1.8643688037	 0.143077
H	 1.1651123288	-6.3043141455	 1.4052534468	 0.118591
11.3902	53.6609	76.9851	82.3727	173.8436	208.8779	218.4279	259.4848	291.2952	356.1457	384.2648	414.1166	450.343	486.5842	588.7904	775.023	824.8149	850.9929	926.4613	934.3712	950.4104	1046.8562	1054.0692	1093.1537	1138.2908	1163.4368	1203.0514	1281.4299	1360.7629	1386.6708	1400.8004	1410.6896	1416.925	1470.7033	1473.9368	1480.853	1486.2979	1495.3803	1510.7462	1777.639	2361.8323	3032.9835	3040.9381	3045.202	3074.5282	3096.7847	3100.1208	3110.4103	3120.9101	3123.3741	3135.8221
CC#CC(=O)OC(C)C	CC#CC(=O)OC(C)C	
InChI=1S/C7H10O2/c1-4-5-7(8)9-6(2)3/h6H,1-3H3	InChI=1S/C7H10O2/c1-4-5-7(8)9-6(2)3/h6H,1-3H3
