23
gdb 111312	2.27946	1.3338	1.13666	1.7007	85.04	-0.2482	0.0831	0.3314	1258.407	0.203714	-388.265047	-388.255236	-388.254292	-388.299222	37.557	
C	-0.0834289378	 1.655623347	 0.1084146857	-0.386193
C	 0.0214804948	 0.1321051167	-0.0265288787	-0.19463
C	 0.7190186436	-0.5162605075	 1.1646162423	-0.054684
C	-0.0707152123	-0.6065894043	 2.4808202856	 0.018421
O	-1.1916912886	-1.4744743685	 2.2506704642	-0.256209
C	 0.0792718471	-2.0658886141	 2.5405302548	 0.000044
C	 0.9026824528	-2.1022516283	 1.2346730945	 0.269828
C	 0.295347661	-2.9353617385	 0.1097737526	-0.448179
C	 2.3585124103	-2.4860070222	 1.4991117336	-0.449629
H	 0.9068493289	 2.1186712992	 0.1866372845	 0.110837
H	-0.5892492964	 2.0958117767	-0.756412251	 0.113072
H	-0.652122619	 1.9371131308	 1.0013585414	 0.118885
H	-0.9800385857	-0.2974605019	-0.1307176677	 0.113634
H	 0.5674156928	-0.1163571805	-0.9454159657	 0.092546
H	 1.6903130144	-0.0366102989	 1.3348590706	 0.066273
H	-0.1730121699	 0.1224198814	 3.2769614632	 0.098008
H	 0.1302703621	-2.7393984047	 3.3903189841	 0.094404
H	-0.7688965871	-2.7212432799	-0.0092315434	 0.133118
H	 0.7962291601	-2.7409367501	-0.8451439644	 0.110869
H	 0.4034466111	-4.0049206409	 0.3246626777	 0.107312
H	 2.4485010261	-3.5543649168	 1.7279930518	 0.112386
H	 2.9812422385	-2.2801406429	 0.6215123026	 0.11726
H	 2.7751927031	-1.9271991119	 2.3444073615	 0.112626
80.1526	128.1185	164.5871	220.2309	223.6182	251.5887	271.8516	292.4743	295.608	334.5777	465.9445	522.9365	568.451	641.2175	758.9294	804.8684	844.6766	860.1333	869.0565	899.3418	953.3268	956.1991	978.4743	991.2334	1018.7766	1054.3121	1057.5295	1091.6725	1135.8921	1180.7027	1199.7633	1216.1163	1242.6353	1269.1191	1285.1712	1307.3536	1344.2435	1380.2628	1390.7077	1400.5452	1410.9199	1421.1609	1481.3077	1488.6598	1490.1714	1500.3546	1501.3939	1505.838	1511.7297	3020.4426	3026.0857	3028.7011	3030.5831	3036.7826	3074.3572	3084.6895	3088.9441	3093.5381	3099.4205	3102.5965	3125.7789	3162.2413	3182.0843
CCC1C2OC2C1(C)C	CC[C@H]1[C@H]2O[C@H]2C1(C)C	
InChI=1S/C8H14O/c1-4-5-6-7(9-6)8(5,2)3/h5-7H,4H2,1-3H3	InChI=1S/C8H14O/c1-4-5-6-7(9-6)8(5,2)3/h5-7H,4H2,1-3H3/t5-,6+,7+/m0/s1
