17
gdb 95117	2.43315	1.60336	1.19787	5.446	72.8	-0.2592	0.0166	0.2758	1058.2093	0.137006	-417.996253	-417.988127	-417.987183	-418.028905	30.751	
O	-0.1123391251	 1.4887629601	 0.1452353337	-0.428898
C	-0.0410294098	 0.0828395452	 0.0112087403	 0.056946
C	 0.6786897738	-0.63601365	 1.1775098434	-0.290567
C	-0.100641524	-1.9529264054	 1.3548263101	-0.16136
N	-1.4841298412	-1.739267004	 0.8688134927	-0.128298
C	-2.1211098022	-0.5320855758	 1.3876675375	-0.272628
C	-1.4531515746	-0.5050552057	 0.0505380119	 0.201756
C	-2.2257227061	-0.4743893339	-1.1656608796	 0.220871
N	-2.8288013833	-0.4253195224	-2.150668258	-0.341244
H	 0.7240303139	 1.866189474	-0.1433562638	 0.293003
H	 0.4146019403	-0.1907451695	-0.9503642357	 0.093558
H	 1.7379403966	-0.8055275143	 0.9703057152	 0.111275
H	 0.6168752867	 0.0030538829	 2.0626388157	 0.123909
H	 0.3291039013	-2.7522105704	 0.7431675222	 0.123968
H	-0.1276381036	-2.3053627618	 2.3899455813	 0.121907
H	-3.2041377348	-0.576155181	 1.4301223099	 0.143097
H	-1.6485995279	 0.0301580219	 2.1880156033	 0.132705
99.4284	148.828	175.8335	210.0063	256.5878	346.6467	402.642	489.6148	506.8906	564.697	604.8617	650.1213	680.2003	810.589	848.3208	895.5779	927.8742	960.7629	984.0168	1024.6215	1076.5421	1107.9457	1119.3009	1158.2699	1197.0812	1225.4246	1239.1128	1252.4341	1301.5417	1329.6832	1348.4042	1377.2931	1439.8472	1488.2265	1499.1279	1518.8913	2359.5401	3009.8023	3054.5122	3065.8702	3096.3636	3115.3271	3124.2275	3215.2783	3830.5545
OC1CCN2CC12C#N	O[C@H]1CCN2C[C@@]12C#N	
InChI=1S/C6H8N2O/c7-3-6-4-8(6)2-1-5(6)9/h5,9H,1-2,4H2	InChI=1S/C6H8N2O/c7-3-6-4-8(6)2-1-5(6)9/h5,9H,1-2,4H2/t5-,6-,8?/m0/s1
