18
gdb 78632	5.8236	0.95733	0.93742	2.6236	78.27	-0.2247	-0.0257	0.199	1275.2417	0.146659	-401.850272	-401.842486	-401.841542	-401.882729	29.843	
C	-0.0237345577	 1.5762184746	-0.1692849909	-0.329474
N	 0.0021965762	 0.1204418293	-0.0628074724	-0.115059
C	-1.0899448875	-0.5014242882	 0.7406917034	-0.012189
C	-0.196378724	-1.7229268887	 1.1036276832	-0.073243
C	-0.5710553557	-1.6372810072	 2.6072154268	-0.125569
C	 0.4435234716	-2.1070391562	 3.6033794301	 0.15667
O	 0.1932827027	-2.773140168	 4.5770900371	-0.258698
C	-0.4843646924	-0.1526461091	 2.1520731265	-0.092148
C	 0.6904096159	-0.4395968402	 1.138590083	-0.019608
H	 0.9504858023	 1.9260263297	-0.5257918627	 0.123558
H	-0.7735881288	 1.8675463053	-0.9118221115	 0.123625
H	-0.2527051666	 2.1000113121	 0.7737197752	 0.097481
H	-2.1391638413	-0.5034261792	 0.4411076286	 0.089024
H	-0.0296086084	-2.6027749542	 0.4839776024	 0.095884
H	-1.5661642112	-2.0000736677	 2.8791872333	 0.087969
H	 1.4905345351	-1.7887443495	 3.385528854	 0.066554
H	-0.6532357191	 0.7313831327	 2.7655850325	 0.092866
H	 1.7664504288	-0.3559653656	 1.2935661313	 0.092357
80.6622	138.7309	214.7388	227.6669	286.0595	334.5636	426.8072	486.9996	570.5194	744.8424	756.2884	810.114	821.6065	845.5937	865.4454	896.1123	948.7122	973.7112	1014.0376	1046.3864	1089.2838	1104.8288	1108.3622	1136.6985	1139.7486	1163.5962	1167.8372	1175.6709	1187.1628	1210.4629	1226.9644	1275.8112	1310.6982	1337.305	1441.024	1448.9028	1492.542	1498.2829	1824.2599	2851.7971	2967.6804	3066.1855	3081.1981	3102.0604	3104.592	3109.9611	3126.7907	3136.3535
CN1C2C3C(C=O)C2C13	CN1[C@H]2[C@@H]3[C@@H](C=O)[C@H]2[C@H]13	
InChI=1S/C7H9NO/c1-8-6-4-3(2-9)5(6)7(4)8/h2-7H,1H3	InChI=1S/C7H9NO/c1-8-6-4-3(2-9)5(6)7(4)8/h2-7H,1H3/t3-,4-,5+,6-,7+
