19
gdb 56193	4.89329	0.7035	0.65137	3.8964	73.23	-0.25	-0.0167	0.2333	1718.0038	0.155858	-460.139869	-460.129929	-460.128985	-460.177032	33.585	
C	 0.2741006843	 1.4497821473	-0.0619484042	-0.483823
C	-0.1808935777	 0.0035849399	 0.034232158	 0.361183
O	-0.6925281288	-0.458624342	 1.0212080435	-0.266756
C	 0.065974245	-0.8298222657	-1.2228583717	-0.170806
O	-0.2603201809	-2.1693819848	-0.989219913	-0.228055
C	-0.1532194493	-2.9836737703	-2.124263588	 0.094732
C	 1.2520047185	-3.5008967032	-2.5243719276	-0.094474
O	 0.8157720546	-4.8682169527	-2.3922106583	-0.271717
C	-0.4533912584	-4.4614945976	-1.836137101	-0.100327
H	 1.3687768021	 1.4943977514	-0.0160539852	 0.147503
H	-0.0268816306	 1.9054033234	-1.011263312	 0.133924
H	-0.1375209373	 2.0180472744	 0.7727371583	 0.150196
H	-0.5417948028	-0.3995327514	-2.0405301933	 0.110489
H	 1.1203986555	-0.7048566329	-1.527422329	 0.108697
H	-0.7209082398	-2.5588237719	-2.9642505836	 0.07689
H	 1.6057416618	-3.278433327	-3.5376364281	 0.10222
H	 2.0303388459	-3.2391031359	-1.7943951133	 0.102622
H	-0.5282742427	-4.6692322404	-0.7618827422	 0.120319
H	-1.2998153594	-4.9142423608	-2.3630444393	 0.107182
37.5499	49.1069	82.2924	83.9803	118.5484	151.0252	264.0637	310.8771	433.1437	463.565	484.4142	592.4429	736.5305	839.4971	865.0245	872.5251	890.8075	950.1535	996.0614	1027.7655	1048.9324	1089.8082	1095.798	1144.0017	1157.5988	1170.8084	1192.8292	1217.0847	1258.975	1276.0684	1303.2286	1346.4899	1380.6714	1389.3487	1427.6655	1463.0899	1476.3157	1490.4244	1498.9167	1526.0189	1838.8093	2938.6788	2964.229	3000.5572	3005.0857	3029.1632	3036.6752	3063.1987	3081.8624	3097.7446	3154.1574
CC(=O)COC1COC1	CC(=O)COC1COC1	
InChI=1S/C6H10O3/c1-5(7)2-9-6-3-8-4-6/h6H,2-4H2,1H3	InChI=1S/C6H10O3/c1-5(7)2-9-6-3-8-4-6/h6H,2-4H2,1H3
