18
gdb 45152	2.86144	1.5734	1.19771	3.6088	76.3	-0.2393	0.0289	0.2682	1054.0194	0.148756	-401.940282	-401.932718	-401.931774	-401.972418	29.916	
O	 0.016242124	 0.026523824	 0.1266714317	-0.363736
C	 0.0337557929	 1.2230067665	 0.0234711368	 0.431687
N	-0.9726386067	 2.1753531886	 0.0028006642	-0.325853
C	-0.0773435826	 3.3340343213	-0.0085491086	 0.027918
C	 0.3917353144	 3.8368510179	 1.3881797019	-0.327866
C	 1.5291771566	 2.8010227085	 1.3483830459	 0.384841
C	 2.9374615377	 2.9963227949	 1.8292226793	-0.338905
C	 2.0560747873	 1.9456541004	 2.4626924386	-0.314769
C	 1.1169821123	 2.3203738182	-0.0572803143	-0.2903
H	-1.9206199281	 2.0969168406	 0.3469574364	 0.244133
H	-0.2854992464	 4.0681255265	-0.7868175767	 0.08938
H	 0.748448648	 4.8709617581	 1.3660822336	 0.108516
H	-0.3452948981	 3.7339220641	 2.1896929608	 0.10144
H	 3.7462414653	 2.6667872946	 1.1846794702	 0.117107
H	 3.1583104646	 3.893569416	 2.3991937485	 0.113039
H	 1.6795096833	 2.1317078259	 3.4635067189	 0.11347
H	 2.2559898758	 0.9017342911	 2.2465331695	 0.135194
H	 1.8636580295	 2.2709077529	-0.8479650367	 0.094704
84.0804	126.065	244.409	301.0041	356.0968	390.919	475.5094	496.8534	549.7573	686.0641	754.228	777.7347	820.0815	840.7171	863.6173	881.3446	911.8188	942.0632	976.0551	1000.527	1013.0181	1054.8678	1063.2156	1079.4937	1133.0881	1141.3263	1160.7898	1187.0645	1206.606	1212.5674	1253.657	1263.0235	1332.1534	1362.9576	1376.523	1465.7658	1473.8285	1502.2817	1886.5664	3048.3842	3098.7909	3111.1858	3122.0475	3130.7868	3134.9175	3202.7108	3220.0257	3579.9548
O=C1NC2CC3(CC3)C12	O=C1N[C@H]2CC3(CC3)[C@@H]12	
InChI=1S/C7H9NO/c9-6-5-4(8-6)3-7(5)1-2-7/h4-5H,1-3H2,(H,8,9)	InChI=1S/C7H9NO/c9-6-5-4(8-6)3-7(5)1-2-7/h4-5H,1-3H2,(H,8,9)/t4-,5+/m0/s1
