20
gdb 126418	2.88243	1.23139	0.9333	1.5627	82.87	-0.207	0.0327	0.2397	1314.5061	0.171596	-399.360807	-399.350809	-399.349865	-399.396041	35.943	
C	 0.1293091447	 1.5241618026	 0.1236127961	-0.368861
C	-0.0757173507	 0.0208288658	-0.1303813599	-0.29214
C	 0.7268997968	-0.4961409473	-1.2862576688	 0.310543
N	 0.1411111891	-0.8012294922	-2.4421372524	-0.303607
N	 1.1529551668	-1.2039384483	-3.2408091344	-0.27409
C	 2.3669646826	-1.1918939991	-2.6318634852	 0.372998
C	 3.6374338917	-1.6176014751	-3.2843159542	-0.511476
C	 2.129620568	-0.7238937859	-1.3509430494	-0.019772
N	 3.126473607	-0.570619924	-0.3469131011	-0.617559
H	 1.1796720417	 1.7495791181	 0.3358585007	 0.104221
H	-0.1658057145	 2.1074514121	-0.7536382064	 0.12639
H	-0.4662901381	 1.8638079244	 0.9769994275	 0.109947
H	 0.1802970022	-0.5368346239	 0.7806873971	 0.092605
H	-1.1317455705	-0.1810859052	-0.3330362861	 0.11955
H	 0.9431875634	-1.4926255319	-4.1808657269	 0.264421
H	 4.0104435213	-0.8751741087	-4.0006282591	 0.130343
H	 4.3993389613	-1.7509870975	-2.512375244	 0.154988
H	 3.5212483096	-2.565037094	-3.8223456965	 0.126606
H	 3.5337068187	 0.3597519521	-0.3535103979	 0.23856
H	 2.7357165991	-0.7132729221	 0.5780037407	 0.236332
53.2325	92.0979	112.6338	163.5388	197.3174	230.6873	247.0983	287.0813	307.7201	412.6157	478.0144	491.514	581.6305	675.1044	714.2601	731.8053	770.0532	792.5478	837.9897	968.5838	996.6344	1035.3403	1063.9114	1068.8821	1085.2352	1181.4873	1220.473	1243.6591	1283.4282	1316.3602	1351.5258	1401.758	1408.5742	1437.3795	1478.2796	1481.5619	1489.5633	1492.691	1497.5799	1513.7839	1528.2329	1626.6172	1666.7283	3015.2298	3023.3837	3034.4879	3074.8346	3080.2609	3104.1958	3113.4366	3124.0773	3493.3413	3570.1789	3673.2105
CCC1=NNC(C)=C1N	CCc1n[nH]c(C)c1N	
InChI=1S/C6H11N3/c1-3-5-6(7)4(2)8-9-5/h3,7H2,1-2H3,(H,8,9)	InChI=1S/C6H11N3/c1-3-5-6(7)4(2)8-9-5/h3,7H2,1-2H3,(H,8,9)
