18
gdb 40060	3.33141	1.53667	1.44582	1.8945	69.94	-0.2503	0.0707	0.321	962.4601	0.15055	-439.059384	-439.052588	-439.051644	-439.090501	27.712	
C	 0.0303169074	 1.5214355757	-0.0040539394	-0.311555
N	 1.2560564018	 0.6975223437	 0.0505012791	-0.371432
C	-0.0537380716	 0.0458522969	 0.0274467532	 0.38594
C	-0.4668139857	-0.8335295823	 1.2202069748	-0.313741
C	-1.0957565045	-2.0148546741	 0.4531101377	 0.180247
O	-2.3754829137	-1.6164918784	-0.0393308191	-0.275337
C	-2.0771699392	-0.7879999197	-1.1748842217	-0.083412
C	-0.5337680958	-0.7858405199	-1.1628123787	-0.061208
O	-0.2851971416	-2.1268819787	-0.705100592	-0.24696
H	-0.1725592134	 2.1009185935	 0.8925363633	 0.123519
H	-0.2142974094	 2.0334304798	-0.9328959672	 0.109386
H	 1.6957703752	 0.6593982478	-0.8667070954	 0.229674
H	 0.41313454	-1.1415075312	 1.7901756162	 0.1232
H	-1.1873440825	-0.3600900779	 1.8898491539	 0.114783
H	-1.1805868293	-2.9701876773	 0.968782225	 0.097165
H	-2.4798911188	-1.2490119832	-2.0836897232	 0.10731
H	-2.5104181793	 0.2093243341	-1.0467549439	 0.107019
H	-0.0427734396	-0.5998877688	-2.1181833325	 0.0854
112.8488	224.9315	298.8645	317.6335	390.9025	452.9169	538.8133	622.6317	695.3167	814.0467	823.8255	843.2554	862.1738	887.2198	923.7172	941.5367	962.5947	968.2649	989.3762	1011.1804	1037.2294	1049.3765	1069.7718	1100.5648	1138.9683	1171.3067	1190.5237	1238.998	1260.7978	1269.1618	1276.1319	1290.1447	1324.626	1334.436	1376.7165	1416.4834	1477.3807	1515.788	1518.8061	3032.4737	3072.1832	3080.1502	3097.0431	3124.8634	3127.8826	3143.351	3181.645	3484.9517
C1NC11CC2OCC1O2	C1N[C@]21C[C@H]1OC[C@@H]2O1	
InChI=1S/C6H9NO2/c1-5-8-2-4(9-5)6(1)3-7-6/h4-5,7H,1-3H2	InChI=1S/C6H9NO2/c1-5-8-2-4(9-5)6(1)3-7-6/h4-5,7H,1-3H2/t4-,5-,6-/m0/s1
