19
gdb 115450	3.38883	0.99572	0.85149	3.8275	72.49	-0.2427	-0.0337	0.209	1386.8534	0.157553	-460.171045	-460.16169	-460.160746	-460.206586	32.837	
C	 0.0935003202	 1.4413178593	 0.4623378766	-0.384347
C	-0.0517672368	-0.0591871681	 0.2016234272	-0.188475
C	-1.4504244879	-0.448933591	-0.2804483841	 0.118407
C	-1.6785296663	-1.959702293	-0.3780430248	-0.126121
O	-2.1383142028	-2.3037814035	 0.9290228057	-0.261796
C	-2.799086641	-1.1730087934	 1.4577047894	 0.118959
O	-2.4632579519	-0.0562125008	 0.6618174144	-0.282373
C	-4.3150154596	-1.3739447245	 1.3711812438	 0.156453
O	-5.051025122	-1.3490141635	 2.3192490837	-0.231316
H	 1.0959124575	 1.6807784429	 0.82834158	 0.11598
H	-0.0753528269	 2.0198002557	-0.452853762	 0.114941
H	-0.6333602581	 1.775846179	 1.2068977991	 0.136578
H	 0.6695761161	-0.3813970295	-0.5606400876	 0.098621
H	 0.1773889247	-0.628976534	 1.1106873443	 0.111835
H	-1.6833822857	 0.0621772884	-1.2208204498	 0.091903
H	-2.4292532852	-2.208393504	-1.1396125448	 0.106833
H	-0.7675480018	-2.5302969883	-0.5738987006	 0.122852
H	-2.5017088277	-1.0410993797	 2.5062310963	 0.102534
H	-4.6762892948	-1.5565446521	 0.334055033	 0.078531
39.1225	67.3481	100.3866	136.6761	205.9681	242.588	310.2394	352.7654	383.1251	418.9265	492.0762	743.9188	767.1302	784.778	846.2424	911.6334	960.6786	987.7247	994.3404	1010.9639	1036.4755	1074.7902	1087.4024	1116.3049	1156.7126	1175.0807	1237.9563	1289.8916	1300.448	1317.038	1331.4596	1356.5657	1383.8789	1403.7494	1413.0193	1418.366	1480.5825	1497.2455	1508.7527	1517.7558	1848.2355	2885.2446	3016.5111	3022.8571	3032.638	3038.5222	3049.6257	3068.8748	3104.4355	3105.3584	3125.2808
CCC1COC(O1)C=O	CC[C@H]1CO[C@@H](O1)C=O	
InChI=1S/C6H10O3/c1-2-5-4-8-6(3-7)9-5/h3,5-6H,2,4H2,1H3	InChI=1S/C6H10O3/c1-2-5-4-8-6(3-7)9-5/h3,5-6H,2,4H2,1H3/t5-,6-/m0/s1
