19
gdb 9639	3.85934	1.18408	1.07352	4.3969	77.14	-0.277	0.0389	0.3159	1182.6574	0.164492	-327.942662	-327.933579	-327.932635	-327.976279	32.938	
C	 0.1996996066	 1.5443520308	 0.1255242299	-0.374592
C	-0.1814855011	 0.0777589646	-0.1133813393	-0.211768
C	 0.5722115987	-0.5164177838	-1.2860258262	-0.007773
C	 1.9224786204	-1.1541828338	-1.1292872125	-0.313094
C	 0.7233474482	-2.0259168248	-1.4897771047	 0.138698
C	 0.184309232	-3.0351493415	-0.4860452705	-0.460318
C	 0.6517329742	-2.4741404948	-2.8596848408	 0.23913
N	 0.5842731546	-2.8399428461	-3.9557100978	-0.349942
H	 1.2687163233	 1.6441873982	 0.3397007485	 0.121846
H	-0.0215190067	 2.1580377044	-0.7541215973	 0.12168
H	-0.3552882723	 1.9607067584	 0.9713415226	 0.117364
H	 0.0154693913	-0.4993816916	 0.7962505813	 0.100203
H	-1.2604609953	 0.0051502803	-0.2987043358	 0.109651
H	 0.4334721659	 0.0334391941	-2.2134956696	 0.108616
H	 2.6796185107	-0.9855210774	-1.8856521269	 0.135688
H	 2.3084189931	-1.2857050996	-0.1231233112	 0.121718
H	 0.3137412698	-2.6776637972	 0.5371957116	 0.12545
H	-0.8803020887	-3.2258367845	-0.6510344449	 0.13802
H	 0.7164146354	-3.986356706	-0.5793542962	 0.139425
78.0076	132.3861	136.5101	175.585	222.9717	236.5289	282.2682	334.2101	409.6761	427.9372	576.8817	590.0908	675.2617	776.0577	808.2306	870.5286	927.0883	944.1343	958.9605	1007.7123	1059.3254	1071.6899	1108.7568	1120.8634	1136.73	1199.8372	1267.4968	1297.0545	1306.0157	1348.5653	1410.5548	1418.7116	1425.6524	1480.2663	1487.0034	1492.7478	1498.5996	1501.4767	1508.6969	2345.7055	3029.3112	3035.8183	3047.3662	3068.0574	3105.6744	3110.4613	3112.2293	3132.2265	3135.7302	3143.3282	3226.6229
CCC1CC1(C)C#N	CC[C@H]1C[C@]1(C)C#N	
InChI=1S/C7H11N/c1-3-6-4-7(6,2)5-8/h6H,3-4H2,1-2H3	InChI=1S/C7H11N/c1-3-6-4-7(6,2)5-8/h6H,3-4H2,1-2H3/t6-,7+/m0/s1
