20
gdb 62917	2.69055	1.73717	1.57271	1.964	77.34	-0.2414	0.0164	0.2577	970.6147	0.172462	-403.147348	-403.139434	-403.13849	-403.179126	31.879	
C	-0.0665523278	 1.4891922938	 0.0409407183	-0.450867
C	-0.0318322385	-0.0435803769	 0.0065264366	 0.292952
C	-1.4341584575	-0.5619438168	-0.2980820238	-0.456048
C	 1.16272252	-0.5974517534	-0.8383828866	 0.08803
C	 2.0721066175	-0.3966531692	 0.3946981746	-0.264695
C	 0.7753291296	-0.6666887791	 1.2157414289	-0.030522
N	 0.579365023	-2.121972247	 1.2567800553	-0.250145
C	 0.7154905384	-2.667596853	 0.1203352599	 0.087377
O	 0.9869584417	-2.0204033815	-1.041532301	-0.237692
H	 0.8980512728	 1.949739875	 0.2629585871	 0.116589
H	-0.4085469825	 1.8851819868	-0.9221063564	 0.117592
H	-0.7752063796	 1.8279872456	 0.8044518459	 0.122686
H	-1.7764035904	-0.1781602121	-1.2660138813	 0.112305
H	-1.4951997702	-1.6495426895	-0.328340884	 0.133091
H	-2.1392361682	-0.2111660733	 0.4636225913	 0.117042
H	 1.4077339878	-0.1773340234	-1.8146197907	 0.081181
H	 2.8885367003	-1.1082386786	 0.5276110771	 0.111006
H	 2.4471129942	 0.6213223104	 0.4765732331	 0.112547
H	 0.6550429982	-0.2366338778	 2.2108887124	 0.069451
H	 0.6154346312	-3.7390505502	-0.0332767266	 0.128122
142.6639	192.0484	205.6114	267.4465	301.6063	389.313	398.9176	453.7633	484.5388	527.4668	586.2567	676.7742	772.5932	839.7161	854.6418	871.7905	925.6617	932.8586	957.8137	965.0548	985.975	1008.8139	1021.1274	1108.6651	1130.4907	1137.4271	1141.5312	1206.227	1211.0956	1241.8314	1248.7612	1297.6621	1309.0458	1351.0247	1384.6267	1405.9032	1426.5985	1480.9621	1484.0351	1495.7052	1509.6359	1512.8809	1697.2337	3031.5205	3037.3086	3088.1866	3089.7973	3093.2064	3099.0799	3108.4779	3123.9961	3147.4797	3162.4102	3176.9079
CC1(C)C2CC1N=CO2	CC1(C)[C@H]2C[C@@H]1[N][CH]O2	
InChI=1S/C7H11NO/c1-7(2)5-3-6(7)9-4-8-5/h4-6H,3H2,1-2H3	InChI=1S/C7H11NO/c1-7(2)5-3-6(7)9-4-8-5/h4-6H,3H2,1-2H3/t5-,6+/m0/s1
