22
gdb 57916	3.18982	1.06126	0.87184	3.3348	84.93	-0.2335	0.0315	0.265	1414.4555	0.193754	-404.367755	-404.357568	-404.356624	-404.403909	36.106	
C	 0.3476905198	 1.4258669589	 0.227272807	-0.342887
N	 0.1516021289	-0.003964066	 0.0591988216	-0.089003
C	 0.069080907	-0.764873531	 1.2888130442	-0.333605
C	 0.0225602517	-0.5165679835	-1.209780533	 0.408262
O	 0.0582307481	 0.2026326439	-2.1976025332	-0.384789
C	-0.1909032441	-2.0182371374	-1.3487703499	-0.103775
C	-1.6382969769	-2.5745649848	-1.13051947	-0.222004
C	-1.4402203273	-3.4704671076	-2.38150022	-0.215133
C	-0.2454039031	-2.5706285173	-2.7955543805	-0.226505
H	 1.274868144	 1.624830929	 0.7799911245	 0.117102
H	 0.4041054884	 1.8820012859	-0.7592580809	 0.169366
H	-0.4846405554	 1.8700379366	 0.7890044558	 0.116991
H	-0.739668737	-0.3809618313	 1.9254473433	 0.124178
H	-0.1300000073	-1.8158198001	 1.0929154243	 0.141833
H	 1.0044720261	-0.6892534003	 1.8603092176	 0.122832
H	 0.531372715	-2.5745172938	-0.7445075076	 0.083377
H	-1.8549074054	-3.0642032548	-0.1774201174	 0.094451
H	-2.3874700322	-1.7959447206	-1.3001245614	 0.113923
H	-1.1223370796	-4.4810209755	-2.1089126359	 0.099223
H	-2.2780822463	-3.5486303968	-3.0779158764	 0.100327
H	-0.5331570747	-1.7744665925	-3.4839612564	 0.131287
H	 0.6540844703	-3.060074801	-3.1750795758	 0.094547
40.966	86.545	89.6546	124.9242	149.5878	185.346	233.9139	290.117	335.8036	390.5306	452.686	562.317	656.5747	706.391	757.7806	792.6232	863.283	908.8494	937.6983	964.5254	974.2801	1033.462	1050.914	1080.7063	1117.6449	1132.0314	1163.4691	1180.8295	1208.394	1230.7038	1257.4227	1260.3642	1274.8081	1283.5539	1288.4141	1346.3756	1424.0218	1435.2303	1473.7632	1477.9449	1482.1973	1488.2608	1502.1036	1504.1592	1509.5941	1544.5529	1741.9556	3001.1209	3011.2023	3040.5304	3052.7499	3054.3063	3058.2054	3060.0137	3075.9703	3098.8433	3113.7501	3138.9591	3171.5751	3173.7649
CN(C)C(=O)C1CCC1	CN(C)C(=O)C1CCC1	
InChI=1S/C7H13NO/c1-8(2)7(9)6-4-3-5-6/h6H,3-5H2,1-2H3	InChI=1S/C7H13NO/c1-8(2)7(9)6-4-3-5-6/h6H,3-5H2,1-2H3
