15
gdb 98140	4.76045	0.83005	0.70989	1.1348	67.44	-0.2441	-0.0785	0.1656	1497.0744	0.110563	-491.108139	-491.098556	-491.097612	-491.143558	32.414	
O	-0.1463405915	 1.4994619807	 0.0119706008	-0.40086
C	-0.0287065292	 0.1026365717	 0.0030845519	-0.168659
C	-1.4083161238	-0.5139483162	 0.0132793345	 0.294511
O	-2.4407471075	 0.1116134164	 0.0268952804	-0.294186
C	-1.4113569544	-2.0622004722	 0.0047580429	 0.333404
O	-0.3807231439	-2.6937989514	-0.0088813294	-0.315821
N	-2.700173466	-2.5385796442	 0.0147895092	-0.324809
C	-3.1578136303	-3.8531558376	 0.0119474468	 0.085158
N	-2.3948748598	-4.8638101847	-0.0007037805	-0.394435
H	 0.7402561819	 1.8713504	 0.0055544455	 0.298225
H	 0.4974469869	-0.2915210943	-0.8819956785	 0.137233
H	 0.5147755677	-0.3012370012	 0.873181606	 0.137237
H	-3.3908136262	-1.7974293001	 0.0255982751	 0.274182
H	-4.2544405871	-3.8773001692	 0.0220556494	 0.104526
H	-2.9533115268	-5.7160901076	-0.000175504	 0.234295
54.8097	90.4439	103.3809	133.4849	177.2304	233.975	235.1005	299.6118	333.4623	412.2265	502.0672	572.1523	695.6229	730.5705	769.7066	831.5383	925.9466	947.7647	999.5014	1068.3913	1107.5013	1154.0894	1213.4312	1229.1601	1254.1896	1264.3701	1428.8467	1444.5479	1473.7316	1554.4252	1727.8926	1814.9091	1821.2566	2978.0649	2998.0737	3042.1323	3499.6514	3567.4749	3840.7912
OCC(=O)C(=O)NC=N	OCC(=O)C(=O)NC=N	
InChI=1S/C4H6N2O3/c5-2-6-4(9)3(8)1-7/h2,7H,1H2,(H2,5,6,9)	InChI=1S/C4H6N2O3/c5-2-6-4(9)3(8)1-7/h2,7H,1H2,(H2,5,6,9)
