17
gdb 53079	4.77344	0.85141	0.75832	1.873	88.46	-0.2201	-0.0228	0.1973	1513.2045	0.135213	-384.661629	-384.653066	-384.652122	-384.69701	30.891	
C	-0.0850508336	 1.4631413909	 0.0117671824	-0.507532
C	-0.0096420442	 0.0111198353	 0.0097037613	 0.197573
C	 0.0651874657	-1.1941874033	 0.0159845903	-0.134151
C	 0.0958358343	-2.6068692659	 0.0008374961	 0.245525
C	 1.1550738702	-3.4171429213	 0.1893898794	-0.206986
C	 0.7987225993	-4.8809448859	 0.0640306147	-0.280625
C	-0.7081548815	-4.8533959128	-0.1615609307	 0.042097
O	-1.4500674368	-4.282217644	 0.9185915319	-0.251018
C	-1.1366193471	-3.4466209161	-0.2133634301	-0.100979
H	 0.4824968401	 1.8934037934	-0.821391835	 0.150663
H	-1.120996881	 1.8077310646	-0.078488842	 0.151389
H	 0.3238013593	 1.8797721018	 0.9393320176	 0.152865
H	 2.1534395726	-3.0748537256	 0.433665908	 0.102732
H	 1.3177078346	-5.3550594921	-0.7797694534	 0.115976
H	 1.0641809977	-5.4535394887	 0.9614348602	 0.128671
H	-1.2078586943	-5.6516750913	-0.7032820489	 0.09598
H	-1.9883036252	-3.0736245989	-0.7731105217	 0.097821
11.555	87.6488	97.6036	245.4274	285.4592	310.4008	382.4782	433.5852	447.7423	519.6204	656.7782	736.2688	816.1041	826.1847	860.9146	866.0488	925.7079	956.4845	967.7933	1021.678	1041.924	1048.6608	1053.1694	1104.0793	1181.7212	1246.0935	1253.6085	1268.9182	1319.7856	1340.5221	1408.9365	1413.8577	1457.6918	1475.2645	1475.7664	1656.9975	2348.7002	3021.0242	3023.8714	3055.972	3082.2618	3088.043	3150.1054	3172.0325	3207.2906
CC#CC1=CCC2OC12	CC#CC1=CC[C@H]2O[C@@H]12	
InChI=1S/C8H8O/c1-2-3-6-4-5-7-8(6)9-7/h4,7-8H,5H2,1H3	InChI=1S/C8H8O/c1-2-3-6-4-5-7-8(6)9-7/h4,7-8H,5H2,1H3/t7-,8+/m1/s1
