19
gdb 101066	2.15775	1.38839	0.97263	4.6037	76.77	-0.2337	0.0103	0.2439	1265.4132	0.157564	-419.181693	-419.171865	-419.170921	-419.216643	35.472	
C	 0.0959922801	 1.3115187689	 0.3493057782	-0.321587
N	 0.0917701311	-0.1071805516	 0.0258381539	-0.273039
C	 0.6222890943	-0.4674844884	-1.2850322213	-0.035266
C	 2.1432104274	-0.3102307047	-1.4375840964	-0.431198
C	 0.1453254399	-1.89531326	-1.5562922547	 0.237352
C	 0.9455045238	-2.9294653074	-2.2427848584	-0.216616
O	 0.813859674	-2.9317448181	-0.8228414385	-0.256444
C	-1.3035899917	-2.0391833116	-1.6073393718	 0.289964
N	-2.4496002761	-2.1518984761	-1.7010315256	-0.335127
H	 1.0892102102	 1.7916782745	 0.3458844878	 0.098882
H	-0.5367723857	 1.8482222905	-0.3661633933	 0.129596
H	-0.3392358817	 1.4509890482	 1.342686547	 0.129347
H	 0.5636290133	-0.6458445758	 0.7445991506	 0.228896
H	 0.1206194068	 0.1789682523	-2.0172451009	 0.100912
H	 2.4653955794	-0.4206739931	-2.4775905192	 0.120637
H	 2.447793183	 0.6859080509	-1.1073741243	 0.127722
H	 2.6689766174	-1.0501718921	-0.8262400494	 0.136298
H	 0.4282681905	-3.7345127278	-2.7602419348	 0.140419
H	 1.9313888539	-2.6759770583	-2.6230352288	 0.129253
52.1502	97.5161	143.6197	186.6228	216.028	241.4533	255.2037	295.5126	326.6948	399.2898	411.2872	500.3753	577.2125	599.3299	701.1546	747.2508	852.9685	866.9567	911.4458	963.9455	1023.9394	1067.4754	1076.4694	1133.0295	1149.0935	1165.1453	1179.0566	1207.186	1226.0008	1347.1528	1361.489	1364.175	1398.9606	1460.1115	1483.5386	1492.0661	1498.7094	1505.3586	1520.136	1526.9015	2361.8698	2958.6201	3028.8493	3041.1525	3061.4451	3104.8747	3109.533	3111.817	3123.6895	3200.5143	3528.2855
CNC(C)C1(CO1)C#N	CN[C@@H](C)[C@]1(CO1)C#N	
InChI=1S/C6H10N2O/c1-5(8-2)6(3-7)4-9-6/h5,8H,4H2,1-2H3	InChI=1S/C6H10N2O/c1-5(8-2)6(3-7)4-9-6/h5,8H,4H2,1-2H3/t5-,6+/m0/s1
