23
gdb 76321	1.998	1.50222	1.1827	2.6977	85.65	-0.2286	-0.0119	0.2168	1228.1772	0.202952	-388.316785	-388.306162	-388.305218	-388.351858	39.494	
C	 0.1156086375	 1.7069244068	 0.0947105538	-0.415169
C	 0.1199013148	 0.1858565455	 0.0169994511	-0.104559
C	 0.7458575901	-0.5969573134	-1.2003761266	-0.055366
C	 1.6885141515	 0.2149127375	-2.083565648	-0.408216
C	 1.4246542759	-1.6102668938	-0.1916851523	 0.191893
C	 0.5895321388	-2.8905284978	-0.0258643691	-0.435801
C	 2.9051737633	-1.9513109295	-0.3442834224	-0.447805
C	 1.0954355041	-0.5868200754	 0.912778252	 0.368911
O	 1.551738965	-0.3822337202	 2.0032404713	-0.319685
H	 1.1078029935	 2.1258017012	-0.093927515	 0.122933
H	-0.5806463297	 2.1424317702	-0.6290492337	 0.116773
H	-0.19099778	 2.0273489399	 1.0948498495	 0.134051
H	-0.8931729944	-0.1916332231	 0.2049810465	 0.101466
H	-0.0082479437	-1.0789890265	-1.8292321282	 0.066868
H	 2.4615244872	 0.7319903947	-1.505920591	 0.121833
H	 2.1961368178	-0.4268123053	-2.8107666276	 0.118096
H	 1.1350124269	 0.9761816284	-2.6427862541	 0.117858
H	 0.6918069108	-3.5236537094	-0.9144491488	 0.118556
H	 0.9273128939	-3.4655441542	 0.8422005207	 0.128194
H	-0.4749151376	-2.6731343348	 0.1080903672	 0.115971
H	 3.5279676329	-1.0600330945	-0.453249382	 0.119469
H	 3.2544946616	-2.4869567306	 0.5438463676	 0.130571
H	 3.07380101	-2.5949151355	-1.2148338309	 0.113159
53.6187	155.2151	173.1758	178.596	207.1802	232.3844	235.3418	245.8088	278.9641	283.9283	332.4572	411.7033	468.219	538.6912	573.4405	699.7185	738.6346	773.3512	793.278	916.587	958.1794	978.2335	997.0318	1006.0968	1029.1969	1038.8895	1063.3979	1139.9358	1167.2046	1174.9256	1204.304	1227.1395	1250.2817	1297.2766	1339.9599	1365.2553	1398.7318	1404.9179	1414.9006	1422.9694	1480.1462	1482.8014	1489.2366	1492.7013	1499.772	1503.2768	1508.6045	1511.2929	1873.7109	3026.1109	3029.4613	3032.7543	3036.5337	3041.7474	3057.7889	3094.7253	3099.9812	3100.5475	3102.9016	3106.2126	3108.7185	3117.8697	3119.5342
CC1C(C)C(C)(C)C1=O	C[C@H]1[C@@H](C)C(C)(C)C1=O	
InChI=1S/C8H14O/c1-5-6(2)8(3,4)7(5)9/h5-6H,1-4H3	InChI=1S/C8H14O/c1-5-6(2)8(3,4)7(5)9/h5-6H,1-4H3/t5-,6+/m0/s1
