14
gdb 18341	3.5881	2.28936	1.61882	3.4634	56.59	-0.2688	-0.0006	0.2683	767.1379	0.109078	-419.696357	-419.690156	-419.689211	-419.727057	22.973	
O	-0.0714548267	 0.0109471178	 0.0868605078	-0.339552
C	-0.0277966562	 1.205427551	 0.124517004	 0.446482
O	-1.1311579079	 1.9698463819	 0.3577429309	-0.2208
C	-0.8534459425	 3.3752113885	 0.2538282605	-0.101759
C	 0.6661509531	 3.51708313	 0.221901269	 0.103845
O	 1.2615601132	 3.5453802535	 1.5359942629	-0.288264
C	 1.960698924	 2.302845468	 1.2949171346	-0.079398
C	 1.195260736	 2.0985977592	-0.0321545386	-0.238554
H	-1.3182825034	 3.7549521351	-0.6629636397	 0.119195
H	-1.2859876827	 3.8816393808	 1.1201529492	 0.13976
H	 1.0123660679	 4.3446986686	-0.4043518355	 0.093062
H	 3.0373256862	 2.4619209771	 1.164030986	 0.115243
H	 1.7914228088	 1.5628481421	 2.0832395367	 0.132247
H	 1.7687392602	 1.8511917864	-0.9231904478	 0.118494
100.3372	167.6805	246.5099	365.739	474.0108	615.2445	705.1787	742.8332	789.4251	835.9146	880.4748	909.8624	976.9548	1002.9103	1010.0121	1066.4781	1078.8258	1093.1978	1153.3605	1177.8329	1213.8034	1230.2794	1266.9384	1290.0054	1334.8592	1359.2542	1399.2373	1501.7029	1526.3783	1881.2659	3030.7889	3043.1006	3068.2266	3087.7275	3112.2686	3140.9517
O=C1OCC2OCC12	O=C1OC[C@H]2OC[C@@H]12	
InChI=1S/C5H6O3/c6-5-3-1-7-4(3)2-8-5/h3-4H,1-2H2	InChI=1S/C5H6O3/c6-5-3-1-7-4(3)2-8-5/h3-4H,1-2H2/t3-,4-/m1/s1
