20
gdb 87484	4.06591	1.15871	1.05761	2.2485	80.91	-0.2281	0.082	0.3102	1222.9735	0.169352	-403.038159	-403.029596	-403.028652	-403.070926	33.234	
C	-0.0947021615	 1.5911595985	 0.0545148361	-0.436203
C	-0.0503424567	 0.0750550512	 0.0549263487	 0.041909
C	 1.1386884047	-0.6385971869	-0.657818601	-0.077407
O	 2.0419554039	-0.1637684893	 0.4225588426	-0.3171
C	 0.8213021277	-0.6510355085	 1.1225287377	-0.07814
C	 0.857476324	-1.8808987974	 0.2065864048	 0.490499
C	 0.1226455236	-3.1456570913	 0.0126565128	-0.363664
N	 1.5561375616	-3.1099483986	 0.3748604038	-0.161734
C	 2.5163565267	-3.4992605413	-0.6493233604	-0.319497
H	 0.9009602968	 2.0024313034	 0.2315985566	 0.139483
H	-0.4647507395	 1.9693056354	-0.9045393104	 0.11435
H	-0.7695525158	 1.9596819999	 0.8345439042	 0.115673
H	-1.0305311267	-0.3796583889	-0.1226363403	 0.074188
H	 1.490759759	-0.5449229162	-1.6854193178	 0.094801
H	 0.8033413153	-0.5861742018	 2.2102780857	 0.097973
H	-0.5465813727	-3.5421542283	 0.7718227574	 0.11984
H	-0.1335762189	-3.4203438358	-1.0109029769	 0.108344
H	 2.199557751	-3.2316687214	-1.6710684609	 0.095844
H	 3.470948646	-3.006212823	-0.4448787486	 0.138239
H	 2.6680909514	-4.5820885398	-0.6098641142	 0.122604
122.0398	144.5074	196.4319	217.2176	234.0143	271.2533	335.2798	410.8236	435.6861	503.9725	595.4029	719.5895	751.2793	758.0452	795.3122	843.5252	868.1731	892.7139	947.2118	1025.0331	1046.6367	1060.464	1083.7884	1103.2663	1105.5306	1118.6277	1136.0678	1147.5975	1176.1574	1188.8591	1202.149	1213.5806	1228.591	1263.264	1388.4679	1406.6675	1442.9776	1455.1192	1493.0389	1494.4911	1495.7049	1505.1773	1533.6651	2965.6132	3036.3767	3058.3983	3073.8636	3083.515	3093.4474	3114.6335	3116.9455	3127.2484	3136.4363	3172.8525
CC1C2OC1C21CN1C	C[C@H]1[C@H]2O[C@@H]1[C@]12CN1C	
InChI=1S/C7H11NO/c1-4-5-7(3-8(7)2)6(4)9-5/h4-6H,3H2,1-2H3	InChI=1S/C7H11NO/c1-4-5-7(3-8(7)2)6(4)9-5/h4-6H,3H2,1-2H3/t4-,5+,6-,7+,8?
