23
gdb 80921	2.61116	1.40348	1.25141	0.2625	91.16	-0.2611	0.0898	0.3509	1176.6589	0.205144	-351.096347	-351.087314	-351.08637	-351.129285	36.05	
C	-0.1930167376	 1.552893365	-0.0203289111	-0.450517
C	 0.0325313056	 0.047969822	 0.0100667705	 0.032373
C	 1.2287760223	-0.626619747	-0.742421293	-0.150657
C	 2.1750518612	-0.1078658354	 0.3815969521	-0.273128
C	 0.9050545051	-0.6386192252	 1.1285091368	 0.242893
C	 0.6474797805	-0.6643044863	 2.6110616095	-0.522996
C	 0.983550065	-1.8448305515	 0.1632870021	 0.442773
C	 0.146923843	-3.0655139916	 0.0115470104	-0.376777
C	 1.6530180135	-3.1683965062	 0.2710672872	-0.381955
H	 0.7188752813	 2.1369557662	 0.1265742844	 0.116084
H	-0.6248941994	 1.8538209198	-0.9815251805	 0.115297
H	-0.9040153419	 1.8490116146	 0.7596402685	 0.11444
H	-0.918858984	-0.4707049438	-0.1555639791	 0.062007
H	 1.4170556725	-0.6314318524	-1.8174595623	 0.063621
H	 3.0935730627	-0.6789754747	 0.5386685918	 0.089912
H	 2.3706331405	 0.9648519041	 0.4224108054	 0.085169
H	 0.6337690619	 0.3486966443	 3.0278287402	 0.120425
H	-0.3187548574	-1.130565023	 2.8354252299	 0.117645
H	 1.4246879519	-1.229681066	 3.1377146973	 0.118923
H	-0.5204144254	-3.3518812981	 0.8193484109	 0.107803
H	-0.2141131777	-3.3382293718	-0.9756576316	 0.109379
H	 2.2830286049	-3.5090063265	-0.5452358961	 0.109444
H	 1.9690395716	-3.5220094765	 1.2484032368	 0.107841
167.4087	170.2681	178.9934	186.1219	199.1575	222.4287	333.1904	372.3031	419.9073	466.181	590.8068	626.9939	656.0432	735.0544	778.3556	787.424	792.6868	894.7074	910.4847	924.6787	959.8419	988.8431	1013.2709	1023.5115	1029.3531	1043.2917	1076.8964	1097.3032	1103.8518	1120.8907	1155.3116	1166.8426	1179.2633	1195.1966	1199.9187	1229.4282	1238.7807	1317.2234	1394.7986	1406.0566	1408.503	1427.7288	1460.7929	1488.5501	1490.0498	1495.7143	1497.1729	1513.5438	1535.5598	3022.2208	3029.2524	3037.1544	3063.7523	3084.5176	3087.9143	3091.3012	3097.8886	3112.1439	3113.5556	3117.2103	3128.5537	3188.5414	3203.0137
CC1C2CC1(C)C21CC1	C[C@H]1[C@H]2C[C@]1(C)C12CC1	
InChI=1S/C9H14/c1-6-7-5-8(6,2)9(7)3-4-9/h6-7H,3-5H2,1-2H3	InChI=1S/C9H14/c1-6-7-5-8(6,2)9(7)3-4-9/h6-7H,3-5H2,1-2H3/t6-,7+,8-/m0/s1
