25
gdb 60389	3.51144	0.66131	0.60761	1.2782	89.97	-0.2518	0.0813	0.3331	1952.8587	0.226849	-389.482993	-389.471906	-389.470962	-389.52017	40.818	
C	 0.223923539	 1.4936586724	-0.2001285863	-0.381429
C	 0.0131445905	 0.0055900592	 0.1145399769	 0.0444
C	 0.5392491321	-0.3264172353	 1.5177252989	-0.388262
C	-1.4588007044	-0.4231528211	-0.0253601227	-0.157878
C	-2.0276105148	-0.3308365474	-1.4478732951	-0.216062
C	-3.4428227933	-0.8627423517	-1.5459804822	-0.01025
C	-4.6222713634	 0.0107139423	-1.1533736887	-0.325394
C	-4.3904396038	-0.3623109658	-2.5970427332	 0.085972
O	-3.9001170196	 0.5989629675	-3.4890342952	-0.417496
H	 1.2770059523	 1.7726269468	-0.0871285097	 0.107136
H	-0.0757208302	 1.7459025071	-1.2213042679	 0.11716
H	-0.3593665907	 2.1224544875	 0.4841414481	 0.10737
H	 0.5995672087	-0.5782280598	-0.6105382711	 0.068474
H	-0.015430637	 0.2280462081	 2.2845915737	 0.109234
H	 0.4366009367	-1.3936846492	 1.7413909557	 0.10688
H	 1.597214063	-0.0621020385	 1.6196474818	 0.106456
H	-1.5549292109	-1.4600932838	 0.3253113205	 0.083003
H	-2.0766993478	 0.1815547867	 0.6536894787	 0.088913
H	-2.0139988007	 0.7018527375	-1.8074292669	 0.110289
H	-1.3829402279	-0.8985197942	-2.13324046	 0.093305
H	-3.5429166726	-1.9183848599	-1.3032377124	 0.081899
H	-5.4602911994	-0.4265549955	-0.6211454601	 0.106834
H	-4.3958230071	 1.03695356	-0.8802383395	 0.110407
H	-5.0689493363	-1.0880732067	-3.0461309157	 0.082178
H	-4.6037592724	 1.2350394739	-3.6528504774	 0.28686
31.834	62.3185	100.2958	119.5209	208.0396	219.081	245.3928	252.6528	296.5058	334.1515	376.6852	416.436	435.5325	475.3074	584.23	759.9117	769.9127	814.7074	841.2139	893.8413	920.9977	926.0066	954.1891	966.4368	986.8594	1018.5123	1045.3968	1055.189	1092.1669	1130.1096	1151.7709	1177.4206	1190.7518	1195.4984	1239.039	1244.3702	1278.0347	1301.8038	1318.816	1349.7553	1369.2317	1382.0754	1399.3311	1404.6476	1421.5373	1424.7359	1477.3909	1486.9926	1489.9101	1494.7375	1502.1334	1504.6983	1510.6463	2991.3803	3000.99	3014.489	3020.9945	3026.7016	3037.1424	3084.1895	3087.5997	3090.7049	3091.2755	3095.9231	3108.1977	3124.0873	3130.8853	3212.5571	3809.2163
CC(C)CCC1CC1O	CC(C)CC[C@H]1C[C@H]1O	
InChI=1S/C8H16O/c1-6(2)3-4-7-5-8(7)9/h6-9H,3-5H2,1-2H3	InChI=1S/C8H16O/c1-6(2)3-4-7-5-8(7)9/h6-9H,3-5H2,1-2H3/t7-,8+/m0/s1
