19
gdb 63420	3.11144	1.20441	1.0996	3.4257	81.32	-0.2389	-0.0059	0.233	1185.5437	0.159128	-382.090289	-382.0813	-382.080356	-382.12385	34.161	
C	 0.104501525	 1.5850328884	-0.0348026618	-0.398855
C	-0.0721597321	 0.0598808223	 0.0491813755	 0.237367
C	-1.5693303398	-0.3009359014	 0.1452614003	-0.426682
N	 0.5949377233	-0.5790774227	-1.1163164297	-0.338551
C	 1.3651742615	-1.7509369437	-0.679184814	-0.153839
C	 1.4926993119	-1.5319694995	 0.8163017187	-0.08683
C	 0.7016723559	-0.5398406994	 1.2020499141	-0.067466
C	 0.7052361189	-3.0426571895	-0.9766444189	 0.257446
N	 0.170729863	-4.0356827318	-1.2334369422	-0.332518
H	 1.1643290339	 1.8420945747	-0.1009248446	 0.122482
H	-0.3972578006	 1.9774649436	-0.9253443113	 0.115448
H	-0.3273555986	 2.0807198194	 0.8413516368	 0.109591
H	-2.1118176745	 0.0864479062	-0.7248592422	 0.116643
H	-1.7089357751	-1.3847353859	 0.1882482515	 0.136145
H	-2.024367471	 0.1392958324	 1.0386151196	 0.119044
H	-0.0527249106	-0.7991038499	-1.8623960182	 0.230355
H	 2.3469766942	-1.7776789457	-1.1738356339	 0.127793
H	 2.1341703269	-2.1458343125	 1.4340921117	 0.122296
H	 0.5868906478	-0.1775887851	 2.2167675385	 0.110131
58.7422	127.9491	198.9212	227.7967	265.1582	272.9694	333.6288	362.8822	385.3295	473.2166	508.7218	576.286	637.0431	669.9434	763.8165	808.0923	850.8978	915.7324	925.2644	928.6039	964.5795	968.921	1002.5021	1018.1934	1095.5544	1138.5271	1176.0278	1221.4274	1233.2999	1298.6736	1337.1723	1342.1099	1393.9361	1411.9321	1445.2954	1479.3077	1483.7841	1501.6698	1507.0467	1695.5778	2341.5637	2994.9024	3027.502	3034.8704	3094.3645	3103.0389	3116.2787	3124.472	3204.0687	3234.8972	3566.6208
CC1(C)NC(C=C1)C#N	CC1(C)N[C@@H](C=C1)C#N	
InChI=1S/C7H10N2/c1-7(2)4-3-6(5-8)9-7/h3-4,6,9H,1-2H3	InChI=1S/C7H10N2/c1-7(2)4-3-6(5-8)9-7/h3-4,6,9H,1-2H3/t6-/m0/s1
