13
gdb 27497	2.1715	1.89096	1.01133	4.8483	66.9	-0.2331	-0.0231	0.21	1070.7712	0.089657	-489.948197	-489.940583	-489.939639	-489.980526	28.466	
N	 0.0444457252	 1.3684671666	-0.0726759957	-0.566175
C	-0.1189877025	 0.0171468534	-0.0974981811	 0.458207
C	-1.2520487347	-0.6824174505	 0.1077948786	-0.304022
C	-1.2421058861	-2.1077935233	-0.0339603243	 0.408512
N	-2.2267166988	-2.882664051	 0.1209403402	-0.532077
O	 0.0204510006	-2.6614852318	-0.3803724219	-0.265117
C	 1.1459044787	-1.9569857354	-0.5615641647	 0.476151
O	 2.1886919088	-2.4553790752	-0.8338481582	-0.335832
O	 1.0602724008	-0.5909845615	-0.4198860243	-0.253025
H	 0.9883019611	 1.7011097813	 0.0491122891	 0.27828
H	-0.6737965578	 1.9113808313	 0.3777942036	 0.276971
H	-2.1811910427	-0.1991574837	 0.3687026736	 0.123693
H	-1.9595218426	-3.85408299	-0.033811735	 0.234434
114.561	124.7121	169.5127	325.999	373.5012	376.9378	441.2145	491.7804	536.5115	594.5358	651.9381	659.1574	686.2498	761.4433	796.6952	853.4231	868.9054	965.5814	1024.4412	1111.5087	1123.9404	1132.4788	1288.3552	1340.4073	1428.1541	1629.8435	1730.0408	1768.0951	1914.3999	3250.7857	3508.0861	3597.0243	3714.5406
NC1=CC(=N)OC(=O)O1	N[C]1C=C([NH])OC(=O)O1	
InChI=1S/C4H4N2O3/c5-2-1-3(6)9-4(7)8-2/h1,5H,6H2	InChI=1S/C4H4N2O3/c5-2-1-3(6)9-4(7)8-2/h1,5H,6H2
