21
gdb 56197	4.59728	0.71728	0.65559	2.06	80.34	-0.2645	0.02	0.2844	1754.4808	0.18121	-424.258668	-424.248686	-424.247742	-424.295851	34.819	
C	-0.1985046331	 1.4312057228	-0.1235732436	-0.477272
C	 0.0498515099	-0.043622677	 0.088300529	 0.430301
O	 1.1226892882	-0.5525219101	 0.2942216273	-0.350393
O	-1.1053881695	-0.7367819176	 0.014403193	-0.244732
C	-0.9964151216	-2.1635580681	 0.1937565306	-0.084457
C	-2.3810176724	-2.7518822111	 0.0599651755	 0.029853
C	-3.0703988645	-2.7556786303	-1.3336278486	-0.214769
C	-3.5876413816	-4.1882014521	-1.0310423539	-0.209131
C	-2.5110255003	-4.3016288456	 0.0830277946	-0.237951
H	 0.7414447352	 1.9741210209	-0.0329809921	 0.146959
H	-0.6311916373	 1.5988949206	-1.1141276114	 0.148691
H	-0.9183090283	 1.8017006714	 0.6115735519	 0.147795
H	-0.3130104724	-2.5668118112	-0.5621146663	 0.113509
H	-0.5568648009	-2.3692619633	 1.176306154	 0.117883
H	-3.0406548263	-2.3008691999	 0.8089453697	 0.078943
H	-3.8068281103	-1.975702831	-1.5375991535	 0.100444
H	-2.330170075	-2.7535960623	-2.1405772094	 0.099452
H	-4.5992991879	-4.1755475522	-0.6156536719	 0.103841
H	-3.5563314012	-4.9213082342	-1.8400586441	 0.098602
H	-1.5994501019	-4.7844301226	-0.2850304738	 0.102556
H	-2.7938399486	-4.7727941572	 1.0272048229	 0.099876
32.6625	46.374	62.0394	99.174	143.9684	190.1267	257.2153	308.065	411.1184	467.2341	607.4249	615.554	659.4226	766.5258	786.7839	889.0016	906.7297	918.9237	935.6692	969.4836	973.4885	989.8848	1055.8223	1064.2265	1077.1976	1129.0952	1181.4672	1206.0974	1231.9453	1257.2512	1258.5717	1264.8311	1276.5284	1279.864	1299.5442	1361.7393	1391.3332	1420.8255	1469.6	1476.0907	1477.1125	1485.5896	1503.21	1512.5368	1823.4568	3035.1148	3046.4533	3048.066	3054.4601	3056.9067	3060.0482	3081.2844	3100.6173	3107.1916	3120.853	3121.4297	3168.9323
CC(=O)OCC1CCC1	CC(=O)OCC1CCC1	
InChI=1S/C7H12O2/c1-6(8)9-5-7-3-2-4-7/h7H,2-5H2,1H3	InChI=1S/C7H12O2/c1-6(8)9-5-7-3-2-4-7/h7H,2-5H2,1H3
