15
gdb 56709	2.04589	1.61251	1.07017	3.8232	71.29	-0.2661	-0.0078	0.2584	1116.8838	0.110581	-416.74258	-416.733535	-416.732591	-416.776508	32.981	
N	-1.4390891915	 1.0979072003	-0.9972053677	-0.511383
C	-0.2785300936	 0.4505464297	-0.4032457639	-0.237974
C	-0.6737881255	-0.4598052451	 0.6684833284	 0.344016
C	-0.9988709085	-1.2369060891	 1.5241064244	-0.441583
C	 0.6185192039	-0.3089169241	-1.4213757995	 0.244783
C	 0.0509191151	-1.0043222029	-2.5873919997	-0.207141
O	 0.6812901024	 0.2731284639	-2.7235184567	-0.257958
C	 1.8925124019	-0.7611615916	-0.8911122799	 0.277458
N	 2.899821834	-1.1031399045	-0.4398816225	-0.321917
H	-1.1672999091	 1.5495331447	-1.8658107438	 0.250128
H	-2.1671146836	 0.4216561723	-1.1998283912	 0.239726
H	 0.3599128584	 1.2380816335	 0.0210125098	 0.138025
H	-1.2775103998	-1.9130497846	 2.2948412185	 0.212564
H	 0.5904310885	-1.8401395939	-3.0252382552	 0.147695
H	-1.0286071727	-1.0065358785	-2.718859821	 0.123562
57.268	111.7001	166.0827	209.9985	252.4324	269.5228	318.3655	345.994	435.6349	459.9041	551.6183	583.633	601.5142	645.2998	676.8461	712.8313	852.0129	871.4564	889.387	933.6173	986.1869	1124.2606	1131.5332	1169.7739	1178.3076	1218.7053	1313.0644	1378.4737	1408.506	1512.1934	1652.8799	2247.0481	2359.6012	3012.878	3104.7816	3201.4627	3499.4896	3501.5574	3593.6774
NC(C#C)C1(CO1)C#N	N[C@@H](C#C)[C@]1(CO1)C#N	
InChI=1S/C6H6N2O/c1-2-5(8)6(3-7)4-9-6/h1,5H,4,8H2	InChI=1S/C6H6N2O/c1-2-5(8)6(3-7)4-9-6/h1,5H,4,8H2/t5-,6+/m0/s1
