18
gdb 113161	3.33744	1.13224	0.96168	15.9227	70.58	-0.1745	-0.0229	0.1516	1234.0271	0.144401	-476.158494	-476.149169	-476.148224	-476.193161	33.804	
C	 0.7424580411	 1.1440008425	-0.1173656412	-0.528297
C	-0.0181638129	-0.0946322383	 0.293686025	 0.251322
O	 0.8198351585	-1.2975232433	 0.6643542029	-0.322597
C	-0.0130220015	-0.6559105494	 1.6489393507	 0.001747
C	 0.8527932473	-0.0686276754	 2.769074441	-0.251392
N	 2.2569321012	-0.0959324599	 2.2190547657	-0.439299
H	 2.0344547386	-0.7334718132	 1.3282566298	 0.363595
H	 2.5819079142	 0.8189856844	 1.9139612764	 0.312463
H	 2.9370484358	-0.5081336482	 2.8514739019	 0.312457
C	-1.2953075472	-0.4963223319	-0.5818285277	 0.348926
O	-1.5154195936	 0.291280915	-1.5109684452	-0.462341
O	-1.8637317878	-1.510230851	-0.1557586443	-0.467778
H	 0.967762892	 1.8392567901	 0.7049116009	 0.070992
H	 1.6722801114	 0.8894570638	-0.6384508939	 0.123233
H	 0.0927511317	 1.6482140749	-0.8383813826	 0.197966
H	-0.8852192945	-1.2406658916	 1.9295214054	 0.157283
H	 0.5750394467	 0.9517303882	 3.038364003	 0.170333
H	 0.830963049	-0.6921272367	 3.6644298022	 0.161387
51.9729	85.5197	143.0938	158.6316	196.5738	271.3172	333.3448	369.6619	403.3116	452.1702	478.0062	579.165	629.2148	698.8094	763.6265	803.4803	851.674	892.0104	907.292	970.9741	1012.2983	1039.508	1064.8917	1097.1461	1147.7289	1191.9349	1238.7501	1248.596	1313.3056	1322.6763	1367.5614	1387.1474	1436.688	1470.498	1496.9728	1510.0026	1609.288	1672.0113	1816.9516	2252.2233	2983.596	3070.7577	3088.2552	3115.2849	3142.564	3169.7039	3497.9903	3580.3128
CC1(OC1C[NH3+])C([O-])=O	C[C@]1(O[C@H]1C[NH3])C(=O)[O]	
InChI=1S/C5H9NO3/c1-5(4(7)8)3(2-6)9-5/h3H,2,6H2,1H3,(H,7,8)	InChI=1S/C5H9NO3/c1-5(4(7)8)3(2-6)9-5/h3H,2H2,1,6H3/t3-,5+/m0/s1
