17
gdb 63344	2.58946	1.45675	1.15881	1.3963	71.21	-0.2593	-0.0146	0.2447	1091.7565	0.1361	-455.207447	-455.198888	-455.197943	-455.24068	32.544	
C	 0.1188158847	 1.5351541487	 0.0074638308	-0.433602
C	-0.0501033171	 0.0106500255	-0.0407572668	 0.28325
O	-1.4187195689	-0.3493103955	-0.0551275066	-0.472399
C	 0.6935203284	-0.6453158143	-1.2170402171	-0.321114
C	 1.9584433715	-1.2357849689	-0.6183288958	 0.388639
N	 2.9467778212	-1.6584640829	-1.2876470842	-0.524975
N	 1.7827869597	-1.2254458732	 0.7731475151	-0.366778
C	 0.6217415733	-0.6166681867	 1.1955664472	 0.377997
O	 0.1919208291	-0.5773278562	 2.3245996457	-0.378419
H	 1.1735595897	 1.8260647141	-0.0400224385	 0.122753
H	-0.4069409039	 1.9804608035	-0.8415443939	 0.133457
H	-0.3060628936	 1.9319614879	 0.9341649945	 0.132269
H	-1.7337054326	-0.2599087569	 0.8546227323	 0.291613
H	 0.0778742849	-1.4551840026	-1.6190751576	 0.153833
H	 0.9330415536	 0.036421491	-2.0338385626	 0.137186
H	 3.6872228909	-2.0297088805	-0.6896495509	 0.213253
H	 2.4200005589	-1.6668905629	 1.4212144985	 0.263037
57.4631	133.4783	216.1943	257.2341	283.9462	329.3312	350.1526	405.5818	419.6834	529.274	571.5815	605.0172	617.8126	643.6947	744.8185	764.7053	875.6228	891.3609	910.343	945.5228	982.7256	1088.466	1104.9926	1136.2587	1168.9683	1231.9798	1244.0365	1318.6714	1360.2712	1380.5227	1397.0312	1403.1806	1464.1727	1488.1758	1493.7993	1768.3875	1845.1664	3036.6726	3075.9489	3111.125	3124.105	3133.6286	3457.1397	3610.0065	3762.5604
CC1(O)CC(=N)NC1=O	C[C@@]1(O)C[C]([NH])NC1=O	
InChI=1S/C5H8N2O2/c1-5(9)2-3(6)7-4(5)8/h9H,2H2,1H3,(H2,6,7,8)	InChI=1S/C5H8N2O2/c1-5(9)2-3(6)7-4(5)8/h9H,2H2,1H3,(H2,6,7,8)/t5-/m1/s1
