18
gdb 81305	2.74257	1.55175	1.2461	2.6974	71.71	-0.2387	0.0324	0.2711	1034.294	0.150498	-439.112527	-439.104978	-439.104033	-439.144305	30.021	
O	-0.049894888	 1.3754032485	 0.0518610356	-0.451284
C	 0.0209527595	-0.0329187732	 0.0057319071	 0.15053
C	-1.4112228061	-0.6120097995	-0.0971695825	-0.033597
C	-1.2967186388	-0.4421454965	-1.6384391764	-0.23658
C	 0.2376947241	-0.612078216	-1.4307413295	-0.168559
C	 0.5612295419	-2.0937947385	-1.3043966759	 0.391773
O	 1.4749647948	-2.649942244	-1.8806267251	-0.385898
N	-0.2960782819	-2.7467692241	-0.4549104891	-0.303778
C	-1.3838181172	-2.0963918237	 0.2679926535	-0.178919
H	 0.830984862	 1.7242665336	-0.1202768356	 0.286431
H	 0.668644699	-0.4273660391	 0.8010766304	 0.072273
H	-2.200054375	-0.0850150788	 0.4419902124	 0.081843
H	-1.8073504084	-1.1669000449	-2.2768721962	 0.10367
H	-1.5445464686	 0.5733167837	-1.9458176236	 0.120951
H	 0.9475328291	-0.1305196435	-2.1027530118	 0.080841
H	-0.1367951927	-3.7363118059	-0.3412572821	 0.247182
H	-1.2429343255	-2.211835718	 1.3517340257	 0.111235
H	-2.344304958	-2.5630638801	 0.0098794933	 0.111887
118.6047	196.3444	254.6036	299.1824	327.7706	372.2026	431.1777	467.7614	510.0783	546.4352	677.6684	743.4607	785.892	858.7915	888.6687	910.4142	933.1325	943.9383	990.8358	1025.8565	1087.777	1098.5853	1115.3866	1124.2392	1143.5656	1189.7393	1226.6719	1246.904	1272.6702	1293.5717	1299.8541	1319.2448	1341.7712	1384.0989	1426.6426	1471.7985	1494.2952	1528.333	1803.8352	2998.8218	3002.3399	3027.8336	3074.5149	3103.0772	3121.9258	3145.3856	3623.8406	3811.46
OC1C2CC1C(=O)NC2	O[C@H]1[C@H]2C[C@@H]1C(=O)NC2	
InChI=1S/C6H9NO2/c8-5-3-1-4(5)6(9)7-2-3/h3-5,8H,1-2H2,(H,7,9)	InChI=1S/C6H9NO2/c8-5-3-1-4(5)6(9)7-2-3/h3-5,8H,1-2H2,(H,7,9)/t3-,4-,5-/m0/s1
