20
gdb 59906	4.346	0.72543	0.67659	5.3524	78.43	-0.2495	-0.0292	0.2203	1708.6302	0.168321	-440.347077	-440.336573	-440.335629	-440.383928	36.66	
C	-0.0199552918	 1.7137022506	 0.3711243745	-0.39139
C	 0.0430309766	 0.2030859065	 0.109286961	 0.055257
C	 0.7410044083	-0.5327592886	 1.2599167563	-0.399492
C	-1.3553934668	-0.3837022272	-0.1323222554	-0.335196
C	-1.9851488592	 0.0580102698	-1.4520420404	 0.434436
O	-1.3822768491	 0.5977903472	-2.3430200973	-0.300675
N	-3.3538771111	-0.2610161521	-1.5337371611	-0.350685
C	-4.2263973885	-0.0476587089	-2.5981685431	 0.16664
O	-3.9633781705	 0.4582003115	-3.6526377498	-0.25092
H	 0.9850131304	 2.1237684571	 0.5119315324	 0.11488
H	-0.4826905737	 2.2405589538	-0.4666182505	 0.138894
H	-0.5953978352	 1.9310415967	 1.2797847524	 0.103376
H	 0.6176457677	 0.0445982273	-0.8103126592	 0.103083
H	 0.1872246449	-0.4165939219	 2.199649693	 0.109888
H	 0.8323834817	-1.6054272517	 1.0572705087	 0.109933
H	 1.7481461491	-0.1356786435	 1.4207596152	 0.117521
H	-1.3073125025	-1.4820736884	-0.1545146433	 0.126915
H	-2.0284051535	-0.1292116399	 0.6986301803	 0.109627
H	-3.7614362081	-0.7072229008	-0.7246828	 0.254539
H	-5.2387338386	-0.4201317875	-2.3357971537	 0.083369
32.873	51.3294	99.8172	128.0223	216.1907	223.4529	230.6677	259.0423	282.6553	345.4095	407.214	431.7223	556.3753	573.6302	638.5284	800.9494	833.4725	902.3066	933.6568	940.3979	968.2283	975.2796	1028.2251	1079.4607	1120.3916	1146.9744	1171.4564	1199.4581	1254.7732	1311.5122	1363.165	1390.1024	1402.2959	1422.2899	1446.4458	1454.4708	1488.2875	1493.564	1499.7469	1505.9961	1514.2965	1810.5409	1873.8832	2913.7981	3004.8476	3022.3297	3027.1531	3036.3425	3052.8107	3087.1142	3095.4474	3102.2406	3126.1801	3607.5434
CC(C)CC(=O)NC=O	CC(C)CC(=O)NC=O	
InChI=1S/C6H11NO2/c1-5(2)3-6(9)7-4-8/h4-5H,3H2,1-2H3,(H,7,8,9)	InChI=1S/C6H11NO2/c1-5(2)3-6(9)7-4-8/h4-5H,3H2,1-2H3,(H,7,8,9)
