18
gdb 126672	6.49888	0.73936	0.67214	2.7456	74.44	-0.2323	0.0146	0.2469	1661.4502	0.149072	-435.292861	-435.284097	-435.283153	-435.327366	31.135	
C	-0.033307413	 1.4827606635	 0.0451213497	-0.384385
C	 0.0326251984	-0.0437681089	-0.0512797135	-0.18978
C	 0.7502937491	-0.5027324894	-1.3099096374	-0.039119
O	 0.7605305001	-1.936032385	-1.3087445724	-0.25524
C	 1.3541230803	-2.5192027621	-2.3476616705	 0.448024
N	 1.9186400358	-1.8612644762	-3.3520682398	-0.317507
N	 2.3648600226	-2.8944660984	-4.1247536832	-0.198554
C	 2.051412233	-4.070994584	-3.5563607613	 0.031485
N	 1.4071266314	-3.8782617622	-2.4221485134	-0.330598
H	 0.9684786527	 1.925638017	 0.0659548915	 0.118717
H	-0.5683933279	 1.9144046158	-0.8078386037	 0.118706
H	-0.5530999901	 1.7944137199	 0.9553042684	 0.119514
H	 0.551147033	-0.4583457976	 0.820595036	 0.111559
H	-0.9771065496	-0.4695858853	-0.046655202	 0.111551
H	 0.2456668169	-0.1439220177	-2.2158628589	 0.113748
H	 1.7826589168	-0.1322571042	-1.3436913925	 0.113723
H	 2.8506767136	-2.7018191967	-4.9840635396	 0.28022
H	 2.3054360268	-5.0261265184	-3.9913558873	 0.147936
56.5186	75.8475	114.4736	151.9735	235.0183	297.3514	342.009	347.1656	466.9209	537.5298	666.5049	764.1564	777.2692	778.0158	858.7789	895.9123	914.6331	990.0344	997.3744	1049.5007	1084.6131	1101.5093	1144.091	1186.9935	1190.1536	1268.9109	1302.3567	1314.0396	1331.2764	1360.191	1413.2597	1422.9053	1477.8345	1492.214	1501.759	1504.9363	1517.853	1539.2825	1588.383	3019.196	3033.8735	3042.3261	3053.4374	3078.4788	3103.4416	3111.3875	3256.6822	3676.5494
CCCOC1=NNC=N1	CCCOc1n[nH]cn1	
InChI=1S/C5H9N3O/c1-2-3-9-5-6-4-7-8-5/h4H,2-3H2,1H3,(H,6,7,8)	InChI=1S/C5H9N3O/c1-2-3-9-5-6-4-7-8-5/h4H,2-3H2,1H3,(H,6,7,8)
