23
gdb 118007	3.35599	0.80799	0.68785	4.1343	87.86	-0.2321	0.0331	0.2652	1698.3386	0.203966	-384.473701	-384.462606	-384.461662	-384.5105	39.566	
C	 0.0528188614	 1.5689758808	 0.0738534069	-0.383414
C	-0.1047599127	 0.0481650263	-0.0196595622	-0.190947
C	 0.6555269343	-0.5269224958	-1.2195986435	-0.113341
N	 0.7172272831	-1.9918290236	-1.2293729337	-0.08333
C	-0.6119352805	-2.5883207021	-1.3539535812	-0.345177
C	 1.6247536497	-2.5028079673	-2.2665602042	-0.061341
C	 3.0622113998	-1.9552497535	-2.1650033814	-0.41465
C	 1.6971522046	-3.9741129708	-2.1784421386	 0.282725
N	 1.7871812896	-5.125229908	-2.1364454086	-0.334317
H	 1.102371356	 1.8549209339	 0.2039583629	 0.116752
H	-0.3157120371	 2.0638669895	-0.8315893455	 0.117463
H	-0.508786972	 1.9706421557	 0.9221616546	 0.118472
H	 0.2727265225	-0.4299262342	 0.8916681103	 0.111502
H	-1.1703244801	-0.1944915013	-0.0857816199	 0.104162
H	 0.2096338124	-0.1369736528	-2.158080931	 0.074048
H	 1.6765764669	-0.1413853768	-1.1739303418	 0.105188
H	-1.1336837503	-2.2777752813	-2.2792309263	 0.093607
H	-0.5338249256	-3.677311609	-1.3540698182	 0.152005
H	-1.2301854213	-2.303291214	-0.5018291974	 0.130178
H	 1.2415773795	-2.2752343063	-3.2826026877	 0.100214
H	 3.1125094855	-0.9095613619	-2.471669046	 0.132462
H	 3.4281581873	-2.049258427	-1.139502302	 0.145563
H	 3.7178845573	-2.5282125606	-2.8244692755	 0.142176
43.2136	68.6579	100.2471	136.8394	192.3407	216.6918	227.6582	239.947	275.8856	329.8771	356.0383	384.1386	417.5485	453.2135	576.8485	612.3997	764.9831	796.4563	858.2749	896.7318	922.1126	983.0705	1039.5692	1065.7591	1088.101	1100.9654	1119.1345	1137.125	1168.4045	1218.672	1262.1684	1286.4406	1327.8621	1340.1346	1348.3486	1353.3368	1403.9347	1413.3946	1424.8943	1466.0912	1485.6243	1494.279	1498.9385	1500.7801	1503.0325	1505.7816	1506.9583	1516.3817	2359.0715	2886.4193	2892.3683	2930.7441	3031.7004	3040.7391	3058.7555	3071.8559	3091.9019	3100.2372	3104.9238	3109.388	3136.2022	3142.0047	3145.1844
CCCN(C)C(C)C#N	CCCN(C)[C@@H](C)C#N	
InChI=1S/C7H14N2/c1-4-5-9(3)7(2)6-8/h7H,4-5H2,1-3H3	InChI=1S/C7H14N2/c1-4-5-9(3)7(2)6-8/h7H,4-5H2,1-3H3/t7-/m0/s1
