22
gdb 118435	2.11726	1.23484	0.85851	5.3545	80.14	-0.2393	0.0167	0.256	1418.8614	0.192663	-441.518073	-441.507378	-441.506434	-441.554716	38.263	
C	 0.0078877449	 1.6432801127	-0.0194504676	-0.377376
C	-0.1243885289	 0.116289244	-0.0166453187	-0.169336
N	 0.5491419249	-0.5364266999	-1.1381414058	-0.065347
C	 2.0085651587	-0.7074145998	-1.0402580232	-0.208996
C	 2.4771156649	-2.1465193962	-0.7758582065	-0.027515
O	 2.5583959702	-2.9395460712	-1.9318176198	-0.431318
C	-0.0831520461	-0.938977389	-2.275219841	 0.409782
C	-1.5649886666	-0.6351508632	-2.4268035209	-0.502758
O	 0.5142280266	-1.5394834371	-3.167227086	-0.398814
H	 1.0573626823	 1.9518449528	 0.0012346074	 0.130345
H	-0.4510448705	 2.0766151777	-0.913179778	 0.128038
H	-0.4855056472	 2.0681790355	 0.8603514549	 0.123703
H	 0.2976498327	-0.2921255084	 0.9088748121	 0.118982
H	-1.1777617297	-0.168114246	-0.0181616857	 0.12312
H	 2.4730724524	-0.3561207591	-1.9674314568	 0.133616
H	 2.3472492738	-0.0603684912	-0.2262820686	 0.103857
H	 3.4836333776	-2.1022178361	-0.3376926286	 0.095024
H	 1.8156313304	-2.5930125561	-0.0105547277	 0.07175
H	 1.861980851	-2.6304222741	-2.5362321331	 0.304967
H	-1.8080817801	 0.4106424501	-2.2216263479	 0.136973
H	-1.8410571466	-0.878756518	-3.4520710587	 0.153334
H	-2.1617382946	-1.2574858675	-1.7513075901	 0.147969
30.4335	87.3678	107.7379	132.1119	170.8445	187.7458	223.4784	262.1994	310.2407	385.371	423.2147	464.918	515.0629	569.8577	592.053	624.717	703.0584	788.4503	864.6286	902.593	959.1866	1006.1382	1051.5841	1065.1518	1077.9571	1094.7358	1115.5821	1171.7828	1213.745	1266.319	1304.4768	1325.0529	1374.0874	1384.8005	1394.5306	1400.169	1410.8228	1451.248	1468.7997	1477.358	1488.7125	1491.2374	1497.0591	1500.5042	1510.8111	1518.8303	1718.1985	2933.4178	3022.9119	3039.6432	3042.4398	3047.0396	3054.1842	3103.1232	3104.2698	3112.4233	3114.1175	3125.6587	3163.295	3621.7348
CCN(CCO)C(C)=O	CCN(CCO)C(=O)C	
InChI=1S/C6H13NO2/c1-3-7(4-5-8)6(2)9/h8H,3-5H2,1-2H3	InChI=1S/C6H13NO2/c1-3-7(4-5-8)6(2)9/h8H,3-5H2,1-2H3
