15
gdb 28925	2.31994	1.85298	1.03382	2.1211	71.23	-0.2132	0.0087	0.2219	1069.3451	0.11369	-457.83112	-457.823489	-457.822545	-457.862767	30.331	
O	 0.0605658969	 1.3473098204	-0.0153554875	-0.441202
C	 0.0579738469	-0.011015874	-0.0374887478	 0.339662
C	-0.0116109164	-0.6969029983	-1.2488340424	-0.236552
C	-0.020232989	-2.0894244703	-1.2366188864	-0.079795
C	 0.0232996344	-2.8140513596	-0.0481978771	-0.236541
C	 0.0928974302	-2.1248340878	 1.1612659127	 0.339793
O	 0.1291960874	-2.8025672799	 2.338027351	-0.441161
C	 0.1321984508	-0.7298846449	 1.1563023518	 0.021593
O	 0.1765269195	-0.0394173697	 2.372934981	-0.470659
H	-0.0095376581	 1.6108509776	 0.9123824176	 0.295846
H	-0.0628795951	-0.1333485349	-2.1722511397	 0.103636
H	-0.0752965096	-2.6245930324	-2.178710175	 0.098791
H	-0.00073608	-3.8967524074	-0.0380372353	 0.103635
H	 0.0543172411	-2.1432837245	 3.0414644658	 0.295875
H	 1.100506231	 0.1123186159	 2.6094092213	 0.30708
170.6949	232.0877	276.9382	291.0894	298.4204	313.1256	508.1403	510.9616	526.3243	534.4303	581.2313	585.4112	626.9601	708.3933	725.4883	791.862	831.004	860.8838	945.5559	1046.6808	1071.9936	1170.0384	1176.6287	1223.1827	1227.9209	1308.0509	1314.4049	1392.6904	1399.2271	1529.0076	1533.5116	1648.2538	1662.3602	3182.0488	3207.1073	3212.3056	3757.6099	3758.3472	3763.8708
OC1=CC=CC(O)=C1O	Oc1cccc(O)c1O	
InChI=1S/C6H6O3/c7-4-2-1-3-5(8)6(4)9/h1-3,7-9H	InChI=1S/C6H6O3/c7-4-2-1-3-5(8)6(4)9/h1-3,7-9H
