21
gdb 53504	4.30022	0.66734	0.64264	2.5434	84.53	-0.2491	0.0459	0.295	1839.594	0.179302	-424.209731	-424.19852	-424.197576	-424.247285	39.646	
C	 0.0077246942	 1.4219985859	-0.230120329	-0.500045
C	 0.0209789041	-0.0266657886	-0.0764371752	 0.121822
C	 0.0698684623	-1.2227442081	 0.0695164859	-0.017069
C	 0.045347846	-2.675074953	 0.2051110121	-0.373575
C	-1.3890989432	-3.235635097	 0.0775091441	 0.122582
O	-2.0231665706	-2.7476091926	-1.0983214457	-0.452842
C	-1.3812289668	-4.7674440346	-0.056848149	 0.147343
C	-2.790010945	-5.3580574997	 0.0296213496	-0.410129
O	-0.735389752	-5.132865396	-1.268573311	-0.442756
H	 0.7980485435	 1.8872561189	 0.3690550342	 0.153235
H	 0.1672619296	 1.7157090314	-1.2733655725	 0.149962
H	-0.9471163696	 1.8503750107	 0.0937390782	 0.149358
H	 0.6602977992	-3.1443510891	-0.5714371764	 0.144826
H	 0.4627213493	-2.9778158247	 1.1734533912	 0.125547
H	-1.9652063139	-2.9461874953	 0.970026041	 0.071014
H	-1.8012208061	-1.8105481949	-1.1733139195	 0.287808
H	-0.7628779225	-5.1815999303	 0.7492238608	 0.079864
H	-3.4369940604	-4.9131420039	-0.7320923271	 0.129923
H	-2.7495957717	-6.4381975726	-0.1320929528	 0.120424
H	-3.237563534	-5.1684544865	 1.0114079529	 0.107051
H	-1.1304734224	-4.5660619	-1.9447785818	 0.285658
31.0888	52.497	77.2977	108.682	200.2417	219.7731	240.403	278.9243	294.2294	318.7366	388.0085	409.048	418.9646	458.7224	488.9647	556.9164	671.3961	761.723	839.9132	885.2535	942.8252	1005.6205	1025.2162	1051.9742	1055.7627	1089.1768	1109.5118	1156.3083	1164.7256	1207.4668	1247.3632	1292.3111	1330.9027	1350.2837	1381.8154	1402.4312	1415.0429	1429.4253	1436.6981	1471.4248	1478.0083	1479.2882	1491.6171	1499.4525	2362.0413	2983.2861	3028.275	3028.6179	3036.901	3039.1544	3074.8719	3089.2854	3090.6626	3109.4705	3126.5125	3758.1493	3761.6778
CC#CCC(O)C(C)O	CC#CC[C@@H](O)[C@@H](C)O	
InChI=1S/C7H12O2/c1-3-4-5-7(9)6(2)8/h6-9H,5H2,1-2H3	InChI=1S/C7H12O2/c1-3-4-5-7(9)6(2)8/h6-9H,5H2,1-2H3/t6-,7-/m1/s1
