19
gdb 42073	2.43327	1.63852	1.10202	0.9759	82.82	-0.2306	-0.0014	0.2293	1120.6429	0.160751	-385.841466	-385.83322	-385.832276	-385.873972	31.933	
C	 0.0114076105	 1.5342554697	 0.0846116192	-0.04209
C	 1.5113673462	 1.9384800713	 0.1227723464	-0.343575
C	 2.0708804213	 1.6634582436	-1.1958136199	 0.046915
C	 2.1384616094	 1.2393446128	-2.3211369629	 0.06159
C	 1.7594754046	 0.5444759558	-3.5481612234	-0.386627
C	 0.2934758817	 0.1166395558	-3.4487572729	-0.039824
C	-0.3636676771	-0.3208701578	-2.3702824081	-0.066313
C	 0.1949702403	-0.6673674328	-1.006329733	-0.103855
O	-0.2485826153	 0.1440046839	 0.0873908856	-0.265536
H	-0.4808934447	 1.9045455171	 0.9903940711	 0.104282
H	-0.4518231162	 2.0220397516	-0.7842533579	 0.101634
H	 1.580764179	 3.0007061584	 0.3891560664	 0.122996
H	 2.0249852879	 1.3775920071	 0.912578933	 0.131095
H	 1.8810812455	 1.1873937889	-4.4277145598	 0.132328
H	 2.407022805	-0.3246930356	-3.7315517312	 0.140005
H	-0.265964978	 0.220093853	-4.3764223489	 0.09472
H	-1.4284214568	-0.5189484659	-2.4828746108	 0.092775
H	-0.1805248502	-1.6632899251	-0.7417407285	 0.107825
H	 1.2849364869	-0.7286855817	-1.0287538944	 0.111655
102.392	170.1427	213.7666	230.8211	299.9824	333.9718	357.9825	398.4029	440.292	519.439	559.574	669.072	700.2035	791.2911	814.1748	871.9898	943.6427	948.8752	958.9013	985.6076	1009.9232	1056.881	1091.0589	1115.3079	1159.5089	1210.6457	1216.338	1257.3272	1292.4678	1311.1052	1331.8057	1346.7605	1385.9765	1410.516	1425.6545	1466.2273	1469.7668	1488.9187	1499.3561	1705.4235	2351.4018	3008.0774	3009.7514	3026.4038	3036.8206	3048.5802	3064.494	3073.6909	3093.9181	3131.2444	3155.4685
C1CC#CCC=CCO1	C1CC#CCC=CCO1	
InChI=1S/C8H10O/c1-2-4-6-8-9-7-5-3-1/h3,5H,1,6-8H2/b5-3-	InChI=1S/C8H10O/c1-2-4-6-8-9-7-5-3-1/h3,5H,1,6-8H2/b5-3-
