19
gdb 94605	3.2111	1.01976	0.83871	5.4816	72.17	-0.2441	0.0261	0.2702	1359.8139	0.160978	-456.352812	-456.344036	-456.343091	-456.386866	32.74	
N	 0.4291442553	 1.4433967106	-0.1267445213	-0.508929
C	 0.1077940965	 0.0481360551	 0.0306080539	 0.019393
C	-0.103872133	-0.4626345809	 1.4746579369	-0.183433
N	-1.291693664	-1.2699555995	 1.0475497091	-0.340628
H	-1.0464293763	-2.2496109727	 0.9487362727	 0.239243
H	-3.059360382	-1.1730194483	 1.2315414282	 0.306143
C	-1.3014507586	-0.5818508391	-0.29345549	-0.020224
C	-2.473254909	 0.3954294751	-0.4059583189	-0.337004
C	-3.8496157004	-0.2607038306	-0.2423935377	 0.395129
O	-3.957312183	-1.0709765315	 0.8204847813	-0.372773
O	-4.7723464921	-0.0475945088	-0.9832989306	-0.330598
H	 0.5598495324	 1.6896575874	-1.1021344842	 0.236599
H	-0.3018923085	 2.0427902973	 0.2426087372	 0.232549
H	 0.8853122944	-0.534050654	-0.4734186252	 0.092181
H	 0.7074390277	-1.0368352186	 1.927837317	 0.120329
H	-0.3979716628	 0.3289028101	 2.1720882531	 0.119078
H	-1.3175227099	-1.2793214064	-1.1369319046	 0.089551
H	-2.3908944148	 1.1619260186	 0.3769040734	 0.114336
H	-2.4608574219	 0.9066085761	-1.3703622903	 0.129059
67.896	99.4587	130.963	175.2702	260.2558	279.4587	369.0769	402.7452	469.0112	518.0348	610.8986	682.8212	692.718	821.6888	838.9258	860.1934	868.6139	899.5238	928.2932	971.5877	980.5227	998.6271	1023.4167	1088.8714	1124.0304	1172.369	1190.5067	1224.8543	1262.697	1280.6818	1286.1939	1301.9339	1333.9766	1353.3056	1398.2716	1435.0464	1465.4328	1488.1168	1508.537	1659.9112	1861.5335	3020.197	3047.823	3052.1972	3065.2546	3108.3396	3120.2086	3241.4718	3503.6026	3529.3364	3586.6454
NC1C[NH2+]C1CC([O-])=O	N[C@H]1CN[C@H]1CC(=O)O	
InChI=1S/C5H10N2O2/c6-3-2-7-4(3)1-5(8)9/h3-4,7H,1-2,6H2,(H,8,9)	InChI=1S/C5H10N2O2/c6-3-2-7-4(3)1-5(8)9/h3-4,7H,1-2,6H2,(H,8,9)/t3-,4-/m0/s1
