17
gdb 113517	2.84511	1.15018	1.07116	3.6528	69.98	-0.2583	0.0071	0.2655	1196.7488	0.13483	-458.955804	-458.947196	-458.946252	-458.989557	30.887	
C	-0.3389007398	 1.1048232498	-0.2118974587	-0.243883
O	 0.5056234888	 0.007125988	 0.0954549583	-0.231602
C	 0.9874289359	-0.640341785	-1.029440287	 0.0683
C	 1.5631450815	-1.9966313029	-0.8316103866	-0.384477
C	 0.2367710112	-1.8591957197	-1.5408354804	 0.077385
C	-1.1458609329	-2.3778351944	-1.1837020241	-0.142619
O	-1.3911713281	-2.6266727555	-2.609880032	-0.256869
C	-0.1275564629	-2.1856377284	-2.9548858028	 0.426885
O	 0.358473109	-2.1291318706	-4.0394049065	-0.343227
H	 0.1943210931	 1.8652175267	-0.7999439893	 0.120343
H	-1.2290607495	 0.7918141814	-0.7743157229	 0.117425
H	-0.6492299772	 1.542159712	 0.738954289	 0.137056
H	 1.4301427073	 0.0053924784	-1.7889114078	 0.113226
H	 2.4226191326	-2.2891286854	-1.4244307599	 0.14442
H	 1.5269496737	-2.3977410611	 0.175733848	 0.139933
H	-1.1846625741	-3.310964559	-0.617006831	 0.128924
H	-1.8597540684	-1.6547039344	-0.7844892963	 0.128781
97.321	104.7695	132.3629	169.4656	200.8322	270.5062	294.9551	417.7349	459.9975	599.3446	625.0757	709.9115	789.3747	822.4625	860.0783	909.8567	949.0184	1021.3096	1057.1712	1072.698	1083.03	1098.5782	1134.6008	1139.7617	1182.6741	1184.0224	1204.904	1250.2692	1308.8833	1363.9902	1414.1923	1467.3485	1486.5768	1494.556	1509.6216	1520.8794	1931.8076	2995.5652	3049.8356	3069.7271	3101.2967	3127.8643	3131.0765	3137.0209	3231.0698
COC1CC11COC1=O	CO[C@H]1C[C@]21COC2=O	
InChI=1S/C6H8O3/c1-8-4-2-6(4)3-9-5(6)7/h4H,2-3H2,1H3	InChI=1S/C6H8O3/c1-8-4-2-6(4)3-9-5(6)7/h4H,2-3H2,1H3/t4-,6+/m0/s1
