13
gdb 129736	2.46515	1.54289	0.9495	1.4315	84.35	-0.171	-0.0926	0.0784	1120.0818	0.085673	-486.037965	-486.028696	-486.027752	-486.071978	33.169	
N	-0.0281341924	 1.3273579326	 0.0913818598	-0.560869
C	-0.0862685241	-0.039251414	 0.0328326577	 0.112827
C	-1.3502270161	-0.7425323983	 0.0138789304	 0.399807
O	-2.4038262553	 0.1220307056	-0.0055844889	-0.406545
O	-1.5095205703	-1.951399718	 0.0040277792	-0.399093
N	 1.2800788124	-3.1903091915	-0.0560602822	-0.140531
N	 1.0620631065	-2.0911430365	-0.0106858167	 0.170028
C	 1.1582980868	-0.6892563214	 0.0107726275	 0.359419
N	 2.3266469201	-0.0993264786	 0.0134281372	-0.609264
H	 0.8791628601	 1.7194712458	-0.1234911504	 0.279214
H	-0.8463122523	 1.8421637221	-0.1887211617	 0.271372
H	-3.1973031105	-0.431042132	-0.0274223897	 0.303189
H	 3.117014905	-0.7301027558	-0.0484280423	 0.220446
68.0492	112.0695	167.9512	201.9818	231.6879	289.7939	304.534	407.6548	415.401	422.8262	443.7223	498.486	557.4894	567.4541	608.0689	626.6274	714.1661	747.2846	939.5126	1068.3994	1122.9689	1168.8152	1298.5915	1364.6187	1464.9096	1605.1945	1632.8873	1749.0667	2199.7953	3553.3311	3573.9684	3702.8708	3775.8153
NC1=C(O)ON=NC1=N	N[C](C(=O)O)C(=N)[N][N]	
InChI=1S/C3H4N4O2/c4-1-2(5)6-7-9-3(1)8/h5,8H,4H2	InChI=1S/C3H4N4O2/c4-1(3(8)9)2(5)7-6/h5H,4H2,(H,8,9)
