13
gdb 20467	6.52904	1.40819	1.25117	4.7343	60.28	-0.2545	-0.0109	0.2436	913.6183	0.097324	-394.74805	-394.741628	-394.740684	-394.779419	23.015	
C	 0.129759229	 1.5524403848	 0.0235768482	-0.166663
O	 1.1667062373	 0.5941861951	-0.1725969836	-0.212979
C	-0.1568961447	 0.1033769294	 0.0228801301	-0.053893
C	-0.3837429636	-0.6417360654	 1.2741602848	 0.352148
C	 0.3741807656	-0.8010133183	 2.4127969956	-0.146804
N	-0.3043513256	-1.5950158398	 3.287051915	-0.18223
N	-1.4412552938	-1.9419955152	 2.760089954	-0.108328
N	-1.4967395258	-1.3713928618	 1.5379296996	-0.2656
H	 0.1545362506	 2.0811275519	 0.974250505	 0.131555
H	-0.1289386436	 2.1496777438	-0.8495469744	 0.12719
H	-0.620223035	-0.3188377107	-0.8702052945	 0.106895
H	 1.3530633907	-0.4085734714	 2.6313007414	 0.138179
H	-2.310625451	-1.5208315324	 0.9625797988	 0.280529
57.2001	164.9	177.2359	399.8384	445.3957	572.8013	663.8657	709.7575	727.3748	860.0999	870.9063	896.348	989.7063	1003.4636	1063.0403	1071.4833	1092.9108	1133.4209	1157.3626	1165.9259	1216.3396	1278.1934	1327.5411	1349.8269	1424.7164	1459.4964	1521.1332	1611.452	3088.2674	3097.8393	3185.3596	3284.8216	3652.4689
C1OC1C1=CN=NN1	C1O[C@H]1c1cnn[nH]1	
InChI=1S/C4H5N3O/c1-3(4-2-8-4)6-7-5-1/h1,4H,2H2,(H,5,6,7)	InChI=1S/C4H5N3O/c1-3(4-2-8-4)6-7-5-1/h1,4H,2H2,(H,5,6,7)/t4-/m1/s1
