18
gdb 86640	2.28016	1.39369	0.96711	4.0359	73.34	-0.2467	-0.0259	0.2208	1229.5495	0.147596	-439.150593	-439.141787	-439.140843	-439.184852	32.045	
C	 0.0783052132	 1.5215540381	-0.2662499828	-0.39816
C	 0.0834826112	 0.0145349224	-0.0270106721	 0.046822
C	 0.6948297336	-0.8065493795	-1.190235538	-0.24284
C	 1.4462206247	-1.9617060694	-0.5220267394	-0.223974
C	 2.7834419136	-2.319918137	-1.1438486006	 0.152684
O	 3.211557722	-1.8284443339	-2.1561407243	-0.242093
C	 1.6466963519	-1.5159241381	 0.9442299201	 0.402791
O	 2.3195459997	-2.0780926568	 1.7800638254	-0.38161
N	 0.9272435389	-0.3693238549	 1.1001952445	-0.313508
H	 1.0946012528	 1.8872512068	-0.4419378334	 0.131231
H	-0.5335087871	 1.7617925976	-1.1413880587	 0.127725
H	-0.3402847078	 2.0612722289	 0.5899130655	 0.117034
H	-0.9503274149	-0.3158860854	 0.1559260094	 0.084195
H	-0.0704159934	-1.1388712759	-1.8936758189	 0.11506
H	 1.4120771362	-0.1983880144	-1.7494118899	 0.134816
H	 0.8621824448	-2.8916481902	-0.4760139389	 0.125021
H	 3.3549617223	-3.0782257515	-0.5715505421	 0.11202
H	 0.8375649083	 0.0425817429	 2.0166633743	 0.252787
52.484	97.8404	114.6887	202.1528	247.0319	290.2383	308.0166	443.663	468.339	538.4338	558.3981	644.0937	650.3772	703.0404	795.6044	876.1299	915.4164	954.3111	983.9314	997.2994	1067.7523	1090.0795	1141.4658	1163.4732	1197.9757	1230.1232	1264.0514	1298.7622	1337.5581	1348.4535	1397.2591	1410.9061	1413.039	1435.6152	1492.8034	1497.3033	1501.4928	1816.0878	1832.9497	2936.6263	2977.9912	3022.0986	3034.2769	3068.8808	3103.4489	3115.5281	3120.8853	3628.7612
CC1CC(C=O)C(=O)N1	C[C@H]1C[C@@H](C=O)C(=O)N1	
InChI=1S/C6H9NO2/c1-4-2-5(3-8)6(9)7-4/h3-5H,2H2,1H3,(H,7,9)	InChI=1S/C6H9NO2/c1-4-2-5(3-8)6(9)7-4/h3-5H,2H2,1H3,(H,7,9)/t4-,5-/m0/s1
