19
gdb 17689	4.7349	1.49444	1.45249	2.0131	75.17	-0.2257	0.0833	0.309	949.5075	0.167411	-327.831377	-327.82443	-327.823486	-327.862862	27.545	
C	-0.1627558179	 1.4110633378	-0.1621079365	-0.267655
C	 1.253267445	 0.9725435137	 0.1082960123	-0.267675
C	 0.1447754028	-0.05210325	 0.0530262333	-0.145429
C	-0.3075047712	-0.744350838	 1.2960130008	 0.336591
C	-0.4119455334	-0.2074108108	 2.74737922	-0.210645
N	-0.9003227131	-1.6560627327	 2.9167077649	-0.146304
C	-1.6779485516	-1.3972730698	 1.6155942429	-0.20726
C	 0.2686150374	-2.0105342086	 1.9824992414	-0.207468
H	-0.6878240319	 1.9377240458	 0.6278167743	 0.11231
H	-0.4209362583	 1.7386618368	-1.1628224259	 0.113258
H	 1.9677803049	 0.9989667655	-0.7066799255	 0.113267
H	 1.6772031844	 1.2052801336	 1.0794547518	 0.112353
H	 0.1202053037	-0.6791028322	-0.8350830159	 0.082039
H	 0.5143518664	 0.0035824663	 3.289874828	 0.098058
H	-1.1812155476	 0.5378253908	 2.9702793782	 0.098041
H	-2.5436677601	-0.7415385723	 1.7470337709	 0.09713
H	-1.9503288994	-2.3124534055	 1.0815619709	 0.096108
H	 0.1454975805	-2.9727186202	 1.4765419652	 0.096114
H	 1.2490667594	-1.9365408703	 2.4620622187	 0.097167
60.1601	175.1933	177.4374	372.0794	420.995	568.5104	593.003	607.4961	776.9784	788.1605	798.8355	831.5145	858.8337	914.2096	926.2389	945.9287	971.2968	973.4428	1007.7969	1025.5505	1058.4023	1075.0964	1080.2625	1132.9135	1152.4153	1161.4392	1169.0568	1170.9814	1197.7278	1200.8382	1202.2328	1219.6976	1271.3105	1320.8962	1423.5446	1468.974	1504.8859	1510.6847	1511.2863	1565.1167	3039.878	3039.9526	3051.1047	3104.0913	3110.4391	3111.6282	3131.7028	3131.8688	3137.5783	3210.0554	3225.1925
C1CC1C12CN(C1)C2	C1CC1[C@@]12CN(C1)C2	
InChI=1S/C7H11N/c1-2-6(1)7-3-8(4-7)5-7/h6H,1-5H2	InChI=1S/C7H11N/c1-2-6(1)7-3-8(4-7)5-7/h6H,1-5H2
