15
gdb 30638	4.64552	1.12156	0.90863	2.7729	68.93	-0.2412	-0.0284	0.2128	1219.96	0.113935	-454.013383	-454.005379	-454.004435	-454.046724	28.087	
C	-0.0475285331	 1.3569271843	-0.0470147971	-0.24014
O	 0.027025927	-0.0747867337	 0.0390130535	-0.245977
C	 0.6666491394	-0.5403449968	 1.1182988312	 0.558858
O	 1.1649534972	 0.123394004	 1.9874778376	-0.384033
N	 0.6830771542	-1.9415183612	 1.1041066279	-0.143345
C	 1.2717752184	-2.7326792062	 2.0847880391	-0.095518
C	 1.060478283	-4.0153230512	 1.6858112471	-0.092162
N	 0.3592715575	-4.0540289427	 0.4880113409	-0.276034
C	 0.1492623711	-2.8100935609	 0.1667547679	 0.034181
H	 0.9547606966	 1.789175027	-0.0865144474	 0.151557
H	-0.592359906	 1.5646835412	-0.9671273644	 0.145055
H	-0.5790929975	 1.7635718119	 0.8161237275	 0.151634
H	 1.7597599205	-2.2825848194	 2.931046962	 0.159553
H	 1.36706304	-4.9230488091	 2.1818432116	 0.121525
H	-0.3681813782	-2.4456914372	-0.7053885673	 0.154848
88.0186	98.2288	125.019	171.5978	204.3916	320.723	421.2148	523.9533	614.273	667.9531	768.9153	785.6956	816.034	840.6096	882.7612	908.5668	979.8034	1035.1387	1083.8794	1125.3412	1182.1037	1188.4103	1225.3331	1271.394	1318.6299	1336.6178	1423.4149	1480.9914	1482.6533	1499.0274	1516.0101	1571.0387	1838.6202	3059.2399	3138.4508	3170.0899	3259.1492	3282.2788	3306.2136
COC(=O)N1C=CN=C1	COC(=O)n1ccnc1	
InChI=1S/C5H6N2O2/c1-9-5(8)7-3-2-6-4-7/h2-4H,1H3	InChI=1S/C5H6N2O2/c1-9-5(8)7-3-2-6-4-7/h2-4H,1H3
