14
gdb 50187	2.21317	1.78052	1.24387	5.2161	65.52	-0.2614	-0.046	0.2155	991.5182	0.099474	-436.648321	-436.640482	-436.639537	-436.681663	27.917	
O	-0.7211757074	 1.044825191	 0.6110186265	-0.238231
C	 0.2631945683	 0.6738034451	 0.0281133612	 0.126823
C	 1.4739831376	 1.5787485287	-0.1392530983	 0.022824
O	 2.5460197748	 1.0275972915	-0.9546024679	-0.283546
C	 2.5825545881	 2.2183006916	-1.7271590594	 0.094166
C	 1.2967359027	 2.4192762782	-2.498409989	-0.213627
C	 0.5038642825	 1.3195137465	-2.9738171843	 0.310366
N	-0.1309073863	 0.4301526515	-3.3532536464	-0.335229
C	 1.3952466993	 2.8239244626	-1.0276935556	-0.156
H	 0.3689332375	-0.341517054	-0.4036399261	 0.123969
H	 1.8594036046	 1.8342999605	 0.8556805284	 0.133878
H	 3.5446047181	 2.6027267817	-2.0427710945	 0.133972
H	 1.3177265036	 3.2783730687	-3.1630242929	 0.148362
H	 1.1798342966	 3.8297773664	-0.6982820516	 0.132274
45.1585	117.859	136.1148	209.1948	255.414	389.1187	448.5241	489.3205	630.4717	643.7689	755.5576	764.215	802.0731	901.2944	920.1274	977.9878	1007.8468	1013.2118	1043.1539	1059.1082	1069.6626	1112.2098	1164.3998	1231.4525	1267.9659	1315.1852	1333.6918	1398.0745	1410.2346	1829.1124	2354.8248	2942.7173	3039.0913	3162.2355	3196.5341	3227.0197
O=CC1OC2C(C#N)C12	O=C[C@H]1O[C@H]2[C@@H](C#N)[C@@H]12	
InChI=1S/C6H5NO2/c7-1-3-5-4(2-8)9-6(3)5/h2-6H	InChI=1S/C6H5NO2/c7-1-3-5-4(2-8)9-6(3)5/h2-6H/t3-,4+,5-,6-/m0/s1
