19
gdb 67212	2.6644	1.68512	1.31052	2.3333	74.88	-0.2315	0.0755	0.307	1024.8569	0.15802	-422.965209	-422.95689	-422.955946	-422.997256	33.663	
C	-0.0111726838	 1.5706674486	-0.0018659523	-0.469293
C	 0.0697307675	 0.0501006461	 0.0315982445	 0.43782
O	-1.2327363689	-0.5084138572	 0.1640548171	-0.479946
C	 0.766001407	-0.7101143166	-1.0914451386	-0.139329
C	 2.2779238622	-0.8136346424	-0.7275724125	-0.165896
C	 2.477618901	-0.1257367703	 0.6230308664	-0.248394
C	 1.07443491	-0.6673123467	 0.9978127694	-0.20653
C	 1.2537082946	-1.7652418499	-0.1561599916	 0.390042
O	 1.078852048	-3.1190753578	-0.222106646	-0.451129
H	 0.9537851937	 2.035537956	-0.215440168	 0.121732
H	-0.7188007774	 1.8802742455	-0.777118268	 0.125416
H	-0.3696344632	 1.9635602372	 0.9584030789	 0.102236
H	-1.6093522192	-0.1757153151	 0.9862347739	 0.272009
H	 0.4317509284	-0.8322656552	-2.1137993021	 0.091021
H	 3.0041034257	-0.9996151662	-1.5090615273	 0.087174
H	 3.2695762326	-0.6141772226	 1.1993888419	 0.092952
H	 2.6296738376	 0.9576701682	 0.6581156363	 0.090604
H	 0.7826239977	-0.8429551311	 2.032846656	 0.060644
H	 1.8211597765	-3.5470091003	 0.2198070621	 0.288868
147.6179	208.3869	217.1923	280.955	308.7018	329.8198	354.8231	396.5304	408.6151	485.7881	545.4508	599.2518	648.9206	728.4989	794.4006	854.4689	896.4067	916.7397	930.0757	956.6359	960.3038	988.7322	1017.8963	1035.7303	1083.5246	1094.8039	1111.2249	1144.6312	1153.5736	1192.1043	1205.3612	1237.6963	1265.8439	1289.822	1310.2806	1396.1071	1403.6646	1485.4492	1486.6092	1499.8005	1515.0746	3023.6312	3042.9058	3088.1592	3094.2527	3121.5743	3126.9368	3193.1718	3204.7512	3783.1222	3796.6348
CC1(O)C2C3CC1C23O	C[C@@]1(O)[C@H]2[C@H]3C[C@@H]1[C@@]23O	
InChI=1S/C7H10O2/c1-6(8)4-2-3-5(6)7(3,4)9/h3-5,8-9H,2H2,1H3	InChI=1S/C7H10O2/c1-6(8)4-2-3-5(6)7(3,4)9/h3-5,8-9H,2H2,1H3/t3-,4+,5-,6+,7-/m1/s1
