18
gdb 58008	4.12278	0.78936	0.70533	3.3629	71.86	-0.262	-0.0438	0.2182	1586.4486	0.144358	-476.227203	-476.217058	-476.216114	-476.263768	35.184	
C	 0.0017441217	 1.512014744	-0.0032977042	-0.404339
C	-0.2064089663	-0.0048388079	 0.1641983821	 0.056238
O	 0.1381075835	-0.4128974882	 1.4609122652	-0.432662
C	-1.6571992996	-0.3935417706	-0.1260122389	 0.348012
O	-2.3750380747	-0.7667614547	 0.7740408443	-0.308918
C	-2.1478367039	-0.3379231809	-1.5699748837	-0.201944
O	-3.5489019027	-0.3520344864	-1.6865179743	-0.165036
C	-4.1746424778	-1.5306342663	-1.4420695768	 0.148483
N	-5.4314888944	-1.580744579	-1.4832638811	-0.439134
H	 1.0221318132	 1.7552159051	 0.301446212	 0.144535
H	-0.1352904449	 1.8383678939	-1.0388019234	 0.117237
H	-0.6892884385	 2.0659890702	 0.6388985269	 0.136853
H	 0.4365575927	-0.5280081883	-0.5626313377	 0.092534
H	-0.696393066	-0.6625665452	 1.8881196516	 0.295444
H	-1.8034034528	 0.578150414	-2.0561524882	 0.151611
H	-1.6806375286	-1.1795116105	-2.1075221404	 0.136652
H	-3.4855693448	-2.3611573115	-1.2451686083	 0.091207
H	-5.7495233461	-2.5299146277	-1.300438855	 0.233226
32.4533	61.4973	75.1609	151.9194	201.0053	213.3147	246.7972	317.9187	363.1065	365.3623	407.238	445.5867	577.0504	633.2026	687.8701	814.8303	842.225	916.0116	945.2852	988.0062	1034.8478	1045.7878	1060.7033	1103.0011	1175.7267	1181.667	1240.2963	1288.0557	1322.947	1346.8432	1390.0176	1400.966	1419.5081	1434.6488	1467.0191	1489.4171	1497.5097	1752.1953	1807.0313	2972.2476	2986.6373	3042.3829	3042.8914	3106.0386	3119.4689	3132.2369	3524.1161	3695.7156
CC(O)C(=O)COC=N	C[C@@H](O)C(=O)CO[CH][NH]	
InChI=1S/C5H9NO3/c1-4(7)5(8)2-9-3-6/h3-4,6-7H,2H2,1H3	InChI=1S/C5H9NO3/c1-4(7)5(8)2-9-3-6/h3-4,6-7H,2H2,1H3/t4-/m1/s1
