20
gdb 18260	4.13146	1.4935	1.24952	1.516	73.54	-0.2264	0.0832	0.3096	1036.2431	0.178336	-348.995921	-348.988208	-348.987264	-349.027882	29.89	
C	-0.0058925422	 1.5512805116	 0.0751592056	-0.385199
C	-0.0200581084	 0.0201588764	 0.0012750744	-0.183792
C	 0.6874981672	-0.5422662635	-1.2365687836	 0.009579
C	 2.2048477769	-0.2271933941	-1.290887743	-0.103479
O	 2.836182092	-1.2913064877	-1.9997929415	-0.258351
C	 2.0339657409	-2.4365550791	-1.8661258232	 0.115608
C	 1.6058890957	-2.8635214194	-0.4858608351	-0.330708
C	 0.6683692164	-2.0604172754	-1.3777836474	-0.09308
H	 1.0145612966	 1.9438919837	 0.1395499664	 0.119736
H	-0.4750301932	 1.9940840258	-0.8107066703	 0.114891
H	-0.551346708	 1.9094597019	 0.9536260127	 0.114001
H	 0.4463960288	-0.3991097931	 0.9020386181	 0.096166
H	-1.0587371322	-0.3325182532	 0.0051772545	 0.096276
H	 0.207273074	-0.125549934	-2.1325818346	 0.074314
H	 2.4413417747	 0.7049034796	-1.8107988181	 0.110277
H	 2.6119320419	-0.1531722525	-0.2704542705	 0.091675
H	 2.2311640233	-3.1638603764	-2.6446298081	 0.098811
H	 1.3684115567	-3.9122605507	-0.3425641439	 0.111582
H	 2.06150398	-2.3908239902	 0.3778462209	 0.115775
H	-0.2299484212	-2.5336015997	-1.7574047532	 0.085918
101.9842	135.7561	192.0705	247.8481	278.0442	387.994	418.9172	474.5564	628.8112	695.8941	762.0877	779.3977	810.7772	866.7252	933.8401	947.0364	958.3379	975.8911	1011.5511	1020.1971	1043.145	1067.7223	1086.6781	1100.2817	1137.2298	1165.2267	1177.6394	1200.5848	1241.8315	1284.8772	1309.6228	1318.3164	1340.7252	1380.0387	1387.8691	1406.9511	1413.6156	1477.3565	1486.9936	1501.9446	1507.1814	1527.1077	2980.9151	3008.7547	3023.1	3031.3737	3055.1564	3086.2322	3098.1691	3103.6795	3131.0246	3170.0121	3185.5801	3215.9831
CCC1COC2CC12	CC[C@H]1CO[C@H]2C[C@@H]12	
InChI=1S/C7H12O/c1-2-5-4-8-7-3-6(5)7/h5-7H,2-4H2,1H3	InChI=1S/C7H12O/c1-2-5-4-8-7-3-6(5)7/h5-7H,2-4H2,1H3/t5-,6-,7-/m0/s1
