19
gdb 41174	3.08033	1.87545	1.57022	1.8728	78.04	-0.2293	0.0123	0.2416	909.7813	0.162817	-385.858612	-385.852288	-385.851344	-385.888783	27.762	
C	 0.0520295129	 1.4979091611	-0.2169401211	-0.150437
O	 1.4737819696	 1.4927628911	 0.1305408688	-0.372455
C	 1.2843616551	 0.2507592003	 0.8147230449	 0.45972
C	 0.8426976241	 0.298245268	 2.2979342103	-0.269266
C	 0.2371546514	-1.1176281084	 2.205837658	-0.070073
C	-0.8715367403	-0.8272530148	 1.0997080812	-0.267885
C	-0.0512383015	-0.0214463562	 0.0776462519	-0.03309
C	 1.4324325885	-1.854432726	 1.5928565049	-0.08387
C	 2.1110714196	-1.0073673798	 0.8000232259	-0.173374
H	-0.5191522387	 2.1517722249	 0.4538916855	 0.102414
H	-0.1003259624	 1.8116613859	-1.2531438094	 0.109924
H	 1.6885805417	 0.3730105055	 2.9836243745	 0.099869
H	 0.1107062517	 1.0811922355	 2.5159341527	 0.091791
H	-0.1643536259	-1.5617388531	 3.1170466745	 0.063914
H	-1.2967148996	-1.7377611421	 0.6723634376	 0.100076
H	-1.6873085475	-0.2591198085	 1.556848398	 0.104471
H	 0.1131608856	-0.5751737289	-0.8475118125	 0.085108
H	 1.6298910413	-2.9106150434	 1.7275603791	 0.096823
H	 2.9463935044	-1.2197551912	 0.1460250852	 0.10634
223.0408	329.7052	350.8409	392.6106	468.2845	512.9656	550.3149	649.9166	704.3244	721.3698	770.5183	801.1146	842.1194	851.2278	893.0745	918.1815	935.0672	939.7071	954.2989	980.27	1038.5018	1062.6975	1085.0539	1103.6008	1111.3957	1143.174	1163.265	1171.2295	1195.7287	1211.3514	1238.9487	1275.5797	1292.3502	1310.0095	1319.3047	1365.1079	1380.858	1484.4802	1500.8712	1517.0783	1605.3361	3022.0697	3057.226	3063.3965	3083.9783	3098.971	3109.1161	3113.1372	3126.1626	3200.7227	3228.8555
C1OC23CC(CC12)C=C3	C1O[C@@]23C[C@@H](C[C@@H]12)C=C3	
InChI=1S/C8H10O/c1-2-8-4-6(1)3-7(8)5-9-8/h1-2,6-7H,3-5H2	InChI=1S/C8H10O/c1-2-8-4-6(1)3-7(8)5-9-8/h1-2,6-7H,3-5H2/t6-,7+,8+/m1/s1
