23
gdb 115496	3.86257	0.82256	0.77965	1.7156	82.27	-0.2464	0.077	0.3234	1585.1874	0.205979	-425.436299	-425.426366	-425.425422	-425.471818	36.552	
C	-0.6339290386	 1.2291218231	-0.0534287124	-0.382196
C	-0.0363746318	-0.1802134467	-0.0537177429	-0.196516
C	 0.7072556468	-0.5166400118	-1.3387217462	 0.173258
C	 1.3306983814	-1.9322676217	-1.3981856852	-0.292924
C	 1.0846267056	-2.3976355194	-2.8575240882	 0.022533
C	 0.1515442025	-3.6031620043	-2.9123655781	-0.086438
O	-0.0081734779	-3.9766775974	-4.2732713859	-0.424055
C	 0.4356620458	-1.1545005436	-3.5020697639	-0.094479
O	-0.2011293683	-0.4694052464	-2.436186699	-0.262542
H	 0.1487541188	 1.9895809028	-0.1531398978	 0.1104
H	-1.3267543941	 1.3517665837	-0.8897345892	 0.136697
H	-1.1760128566	 1.4284887366	 0.8759787249	 0.107106
H	 0.6602372794	-0.2964775721	 0.7861591074	 0.094035
H	-0.8289437153	-0.9260847418	 0.0865735687	 0.097714
H	 1.5025316808	 0.2331660188	-1.5046620496	 0.055861
H	 2.3911439805	-1.9183243624	-1.1355369413	 0.101752
H	 0.8284887106	-2.5984393623	-0.6869590567	 0.097373
H	 2.0141213461	-2.6641092149	-3.3686561421	 0.079441
H	 0.5770866433	-4.4293618829	-2.3204289304	 0.084079
H	-0.8128573828	-3.3283130606	-2.45534371	 0.093872
H	-0.675377539	-4.6671254515	-4.3212351847	 0.287178
H	 1.2004787941	-0.5140759879	-3.9709739743	 0.080448
H	-0.3150570213	-1.4083706273	-4.253140483	 0.117402
34.8826	102.643	130.1098	174.442	200.5002	234.8002	257.4681	262.3271	334.177	397.1892	462.217	485.2614	636.0796	714.1966	773.2608	830.1243	853.7352	916.5966	951.9549	954.2531	997.7048	1006.9171	1036.7111	1066.2379	1080.1837	1099.7931	1138.7933	1152.8354	1156.697	1197.516	1242.3464	1248.6986	1267.0784	1294.4151	1305.4242	1306.8242	1341.1979	1348.8968	1374.567	1392.9693	1407.4603	1415.4559	1453.8427	1475.1921	1495.7676	1496.6616	1509.0953	1518.8627	1521.7773	2928.4388	2963.9736	2969.9111	2996.1985	3023.1842	3036.1578	3039.8482	3060.5503	3069.3571	3099.4577	3100.5242	3112.25	3123.8961	3834.2363
CCC1CC(CO)CO1	CC[C@H]1C[C@@H](CO)CO1	
InChI=1S/C7H14O2/c1-2-7-3-6(4-8)5-9-7/h6-8H,2-5H2,1H3	InChI=1S/C7H14O2/c1-2-7-3-6(4-8)5-9-7/h6-8H,2-5H2,1H3/t6-,7-/m0/s1
