21
gdb 102454	2.43643	1.06684	0.86748	3.6419	83.05	-0.2295	-0.0657	0.1638	1428.0137	0.180955	-420.413621	-420.403136	-420.402192	-420.44983	37.203	
C	 0.1769577056	 1.2543718104	-0.7099890414	-0.405039
C	-0.1578404666	 0.1427939575	 0.2829316449	-0.120603
N	-1.5733254857	-0.2438705983	 0.262944525	-0.087934
C	-2.1499606212	-0.6051213206	-1.0351859282	-0.178704
C	-1.5458862882	-1.8660099228	-1.6693369495	-0.377932
C	-2.051111756	-0.8575778452	 1.4056481659	 0.261714
N	-1.2959125694	-1.1666651777	 2.3929600993	-0.513446
C	-3.560218535	-0.9970428115	 1.529294377	 0.093636
O	-4.0699430036	-1.6610624047	 2.3951932296	-0.240871
H	 1.2052028339	 1.5869525819	-0.5406926509	 0.124759
H	 0.1099170513	 0.9293085082	-1.752586665	 0.120377
H	-0.4849217936	 2.1155735899	-0.5752243463	 0.125476
H	 0.4894363818	-0.7298690539	 0.1125412008	 0.107999
H	 0.0530723972	 0.4694390669	 1.3024951946	 0.142536
H	-3.2257520336	-0.7511994427	-0.9135631681	 0.112665
H	-2.0356810534	 0.245489878	-1.7133331731	 0.117504
H	-0.4789605561	-1.7433511398	-1.8764537158	 0.129109
H	-1.66519341	-2.7320388526	-1.0109959872	 0.132801
H	-2.0472662226	-2.0842100113	-2.6175464863	 0.121053
H	-1.8867231518	-1.514250103	 3.1510603513	 0.234524
H	-4.178269223	-0.3977317787	 0.8310111632	 0.100376
59.5592	69.8591	92.1627	113.1233	168.4792	232.1254	252.7426	277.305	336.2313	363.9366	391.9344	442.4925	487.2705	584.098	647.6906	784.7629	794.4018	820.8417	883.5645	912.4817	944.8234	1023.0697	1027.0421	1071.8263	1095.5018	1113.3658	1151.1447	1222.7655	1241.4881	1314.6582	1332.5837	1373.0845	1400.7612	1403.614	1413.0237	1416.9643	1471.3701	1483.9269	1489.2201	1498.3585	1501.075	1509.0319	1522.4032	1664.1695	1817.3831	2924.9143	3001.9404	3041.2978	3041.4435	3065.0287	3097.7913	3101.595	3113.3113	3115.0776	3121.9646	3125.2777	3462.6292
CCN(CC)C(=N)C=O	CCN(CC)C(=N)C=O	
InChI=1S/C6H12N2O/c1-3-8(4-2)6(7)5-9/h5,7H,3-4H2,1-2H3	InChI=1S/C6H12N2O/c1-3-8(4-2)6(7)5-9/h5,7H,3-4H2,1-2H3
