20
gdb 105488	2.09483	1.64805	1.14386	5.2389	74.42	-0.2554	0.0197	0.2751	1143.3095	0.171803	-440.304261	-440.295425	-440.294481	-440.337637	33.54	
C	 0.1483247159	 1.5749958588	 0.1604555265	-0.392515
C	 0.0655304427	 0.0612565286	 0.3908002462	-0.25843
C	-1.255244289	-0.5571898461	-0.0494792174	 0.141919
C	-1.6577913255	-0.4487867728	-1.5571934211	-0.209733
N	-2.1971926236	-1.8297528094	-1.4625526476	-0.345874
H	-3.5184712997	-1.1962838833	-0.2941574175	 0.312408
H	-2.092490887	-2.4239815621	-2.2778983655	 0.232386
C	-1.3025188127	-2.1010479555	-0.3079389044	-0.21589
C	-2.4254157177	-0.1540164455	 0.8654091351	 0.423943
O	-3.6305190987	-0.6317552447	 0.5057134432	-0.38839
O	-2.2935368964	 0.5286849607	 1.8478478648	-0.342616
H	 1.1279085579	 1.9555481443	 0.4643801121	 0.11403
H	 0.0124699262	 1.8272798632	-0.8976447492	 0.107273
H	-0.6152611231	 2.0955704187	 0.7412720359	 0.152033
H	 0.8759546102	-0.4375413821	-0.1554596974	 0.083595
H	 0.2142855205	-0.1534029713	 1.4539521605	 0.120274
H	-2.3887446885	 0.3092938193	-1.851656978	 0.125217
H	-0.7661539439	-0.3636397101	-2.192529007	 0.108095
H	-0.3117060876	-2.4785414877	-0.5927444804	 0.106858
H	-1.7322863002	-2.7470988031	 0.4628789714	 0.125418
100.019	113.5053	200.0225	206.5845	247.8547	257.2874	296.8571	372.2975	417.265	462.2707	551.2367	666.956	727.3425	759.1314	779.9506	852.0939	894.2149	925.8845	965.3703	971.3397	991.6632	1021.3254	1031.1049	1053.5278	1115.9459	1131.2779	1181.6523	1192.966	1230.2809	1252.4109	1275.2821	1331.8251	1360.173	1366.5539	1373.7705	1406.1123	1453.1652	1476.2444	1496.6179	1504.8302	1513.6591	1533.3388	1847.4943	3011.3417	3015.7577	3027.7343	3035.7036	3078.594	3088.1557	3089.6513	3100.9409	3139.3643	3390.4047	3526.5507
CCC1(C[NH2+]C1)C([O-])=O	CCC1(CNC1)C(=O)O	
InChI=1S/C6H11NO2/c1-2-6(5(8)9)3-7-4-6/h7H,2-4H2,1H3,(H,8,9)	InChI=1S/C6H11NO2/c1-2-6(5(8)9)3-7-4-6/h7H,2-4H2,1H3,(H,8,9)
