22
gdb 58046	1.90815	1.42025	0.86928	3.9879	86.33	-0.2956	0.0381	0.3337	1385.8068	0.193052	-367.225016	-367.214879	-367.213935	-367.260192	37.49	
C	-0.017024325	 1.5469780417	-0.0056572021	-0.409366
C	 0.0484114099	 0.0140531265	-0.0198010789	 0.02919
C	 0.7959222733	-0.4858736777	-1.262351983	-0.399005
C	 0.6886020176	-0.5379555548	 1.2880160714	-0.162672
C	-0.0428230768	-0.0404152382	 2.4636926877	 0.29011
N	-0.6299659316	 0.3363526779	 3.3856051512	-0.34066
C	 0.7583166721	-2.0612444268	 1.3532481308	 0.022086
C	 2.0049966564	-2.7946566352	 0.9252315709	-0.274171
C	 1.6306615977	-2.7304622491	 2.3833584572	-0.272974
H	 0.9895821041	 1.9811014428	 0.0261542778	 0.114179
H	-0.5071287275	 1.9160926607	-0.911624985	 0.116855
H	-0.5736007313	 1.9222853981	 0.8570941872	 0.144337
H	-0.9789973382	-0.3724434499	-0.0562117812	 0.090973
H	 1.8399907805	-0.1505948926	-1.2545792202	 0.113013
H	 0.7930415322	-1.5754483483	-1.3361101293	 0.126241
H	 0.3286973881	-0.084203945	-2.1667568205	 0.117348
H	 1.7117788411	-0.141516862	 1.3601395702	 0.114092
H	-0.1903459646	-2.5466343739	 1.141043588	 0.099202
H	 1.8890191075	-3.7362523297	 0.4000361296	 0.119305
H	 2.8528500912	-2.2051738062	 0.5924461783	 0.116817
H	 2.2221365564	-2.0938115838	 3.0330236573	 0.122883
H	 1.2563187268	-3.6265123745	 2.8643948726	 0.122217
64.4333	85.9592	144.3915	159.2168	187.8781	230.1234	258.4004	323.2713	329.9852	385.5124	417.683	434.3968	528.9993	564.7384	766.6672	826.6504	834.0623	866.8001	913.2337	933.821	935.2599	965.9156	987.5605	1017.0897	1064.466	1084.2263	1102.5763	1137.1874	1142.637	1190.3106	1195.6412	1197.4119	1228.0745	1269.4269	1296.7592	1350.0559	1367.0469	1403.2103	1405.6648	1425.343	1471.9817	1487.9592	1491.8113	1503.929	1506.3769	1512.888	2351.5457	3004.623	3021.0649	3029.8688	3035.9222	3094.8206	3101.392	3120.2843	3125.9816	3133.1234	3138.4634	3146.7338	3211.8778	3227.4162
CC(C)C(C#N)C1CC1	CC(C)[C@@H](C#N)C1CC1	
InChI=1S/C8H13N/c1-6(2)8(5-9)7-3-4-7/h6-8H,3-4H2,1-2H3	InChI=1S/C8H13N/c1-6(2)8(5-9)7-3-4-7/h6-8H,3-4H2,1-2H3/t8-/m1/s1
