17
gdb 99587	2.46017	1.16187	0.90639	3.2433	70.63	-0.2594	-0.0514	0.208	1289.3255	0.134016	-455.147806	-455.138011	-455.137067	-455.182929	34.118	
C	 0.1867011811	 1.5139958344	 0.1075044954	-0.330618
N	-0.1193439549	 0.1127045981	-0.1657872449	-0.276463
C	 0.6446689765	-0.4958744694	-1.2392932739	-0.144977
C	 2.1148929178	-0.4360919744	-1.0541614293	 0.287018
N	 3.2534827279	-0.3439141081	-0.8780092729	-0.32241
C	 0.1733196478	-1.9567445936	-1.3914970115	 0.031569
O	 0.4135581111	-2.6732487667	-0.2151499978	-0.430368
C	-1.3164727757	-1.9666192127	-1.7123850949	 0.151559
O	-2.0792686853	-2.6657315578	-1.0951956412	-0.256737
H	 1.2444153638	 1.7005502321	 0.3479400375	 0.133022
H	-0.076647818	 2.1227016461	-0.7644073116	 0.127433
H	-0.4263485369	 1.8505198243	 0.9469853625	 0.134278
H	 0.0030628966	-0.4569400436	 0.6655152937	 0.243231
H	 0.41986608	 0.0334623469	-2.1757513135	 0.128365
H	 0.7017333973	-2.4077111972	-2.2500175127	 0.116063
H	-0.427750386	-3.1104362826	-0.0013019367	 0.302912
H	-1.648375463	-1.3284908157	-2.5548167883	 0.106122
68.7573	108.1969	118.3455	143.6505	182.8938	212.3224	257.5886	292.4509	343.9524	347.9877	454.0606	498.9855	591.0814	685.0344	753.7235	791.2379	853.6271	899.6777	951.3724	1015.5826	1052.6477	1130.0776	1160.9825	1177.9408	1199.928	1266.3994	1297.355	1340.0697	1353.3716	1398.1035	1435.1384	1460.8456	1485.9333	1495.0905	1518.7076	1822.3944	2347.8651	2944.2969	2962.4956	2992.2115	3022.1162	3070.9469	3119.7281	3531.5965	3669.6548
CNC(C#N)C(O)C=O	CN[C@@H](C#N)[C@@H](O)C=O	
InChI=1S/C5H8N2O2/c1-7-4(2-6)5(9)3-8/h3-5,7,9H,1H3	InChI=1S/C5H8N2O2/c1-7-4(2-6)5(9)3-8/h3-5,7,9H,1H3/t4-,5-/m0/s1
