12
gdb 7022	9.23079	0.93407	0.85265	3.288	58.38	-0.2979	-0.0456	0.2523	1225.7189	0.082215	-414.697873	-414.689812	-414.688867	-414.731679	26.476	
N	-0.2993148362	 1.3363027872	 0.0139202132	-0.408097
C	-0.0453900183	 0.1078930214	 0.0033005456	 0.118107
O	-1.1194687179	-0.7617495709	 0.0091705509	-0.208461
C	-0.8602464503	-2.1012745645	-0.0021406829	 0.488211
O	 0.2261146409	-2.5991345308	-0.0166264088	-0.307643
C	-2.1947031527	-2.8375152154	 0.0064699902	-0.482493
C	-2.0489098499	-4.287413487	-0.0011342606	 0.292602
N	-1.9654633385	-5.4382408973	-0.0068258093	-0.287618
H	 0.5671301251	 1.872725672	 0.0082198255	 0.249111
H	 0.9146377274	-0.4071941067	-0.0101342522	 0.15496
H	-2.7623318534	-2.5178397161	 0.8875614871	 0.195642
H	-2.7773130062	-2.5103746817	-0.8620644088	 0.19568
36.3573	106.7027	118.4396	128.3804	233.2299	367.0517	371.0583	448.2305	532.0653	569.3675	756.5551	854.2977	936.7656	954.5628	955.2542	1028.422	1069.4679	1173.789	1218.2745	1252.5291	1350.7462	1388.477	1433.08	1751.8373	1861.5646	2382.8303	3056.793	3092.5965	3147.5445	3511.7838
N=COC(=O)CC#N	[NH][CH]OC(=O)CC#N	
InChI=1S/C4H4N2O2/c5-2-1-4(7)8-3-6/h3,6H,1H2	InChI=1S/C4H4N2O2/c5-2-1-4(7)8-3-6/h3,6H,1H2
