16
gdb 33673	3.12591	1.46547	1.3792	4.2196	73.86	-0.2613	0.0157	0.277	979.9255	0.126892	-400.736745	-400.729963	-400.729019	-400.767962	26.786	
N	-0.0734524095	-1.1413156264	 0.0729679584	-0.356987
C	-0.0489492407	 0.0159306564	 0.0295384045	 0.133191
C	 0.0022151631	 1.4316648414	-0.0075246681	 0.262859
C	-0.7326565828	 2.5080223998	 0.8060574957	-0.127715
C	 0.5805070241	 3.2483030005	 1.0656909508	-0.252206
C	 1.2382175972	 2.3868235563	-0.0614768971	 0.016814
O	 1.2010784932	 3.0260447816	-1.3171159947	-0.253796
C	-0.1781062898	 3.2632681074	-1.6280134622	-0.103953
C	-0.9721166152	 2.3687023673	-0.681385727	-0.133368
H	-1.5328098254	 2.3435340649	 1.5170916102	 0.115066
H	 0.6066080173	 4.3317314224	 0.9176841482	 0.111007
H	 0.9890956169	 3.0026612054	 2.048951735	 0.120418
H	 2.23472572	 1.984629422	 0.1072040284	 0.11123
H	-0.4225270869	 4.3249661992	-1.492743206	 0.111634
H	-0.3477846602	 2.9998289223	-2.6769449798	 0.123752
H	-1.9330232711	 1.9778173796	-0.9920646462	 0.122053
131.4013	159.1763	237.3497	395.5225	413.3173	513.1751	536.4055	553.7386	671.9696	728.6667	749.772	831.1155	871.9554	900.4725	934.1436	936.3817	977.9327	1014.549	1030.3484	1070.2618	1084.4391	1112.9317	1148.2214	1163.6993	1184.6129	1222.7364	1226.5562	1275.1347	1303.2535	1338.4559	1377.3102	1430.6434	1490.3943	1523.6536	2343.0538	3018.8145	3057.1529	3074.2404	3114.2613	3151.7056	3194.4353	3205.8903
N#CC12C3CC1OCC23	N#C[C@@]12[C@H]3C[C@@H]1OC[C@@H]23	
InChI=1S/C7H7NO/c8-3-7-4-1-6(7)9-2-5(4)7/h4-6H,1-2H2	InChI=1S/C7H7NO/c8-3-7-4-1-6(7)9-2-5(4)7/h4-6H,1-2H2/t4-,5+,6-,7-/m0/s1
