14
gdb 16086	4.66027	1.79432	1.52992	1.6286	68.35	-0.2482	-0.008	0.2401	821.758	0.107757	-341.527596	-341.520983	-341.520039	-341.558124	25.638	
C	-0.005513481	-1.175487405	-0.0056471014	-0.368987
C	 0.0260501121	 0.0261877863	-0.0105327295	 0.202516
C	-0.0052029084	 1.458666679	 0.0019597797	 0.117021
C	 0.4149466489	 2.2461673291	-1.1917286971	-0.267761
N	 1.2959446095	 2.21212341	 0.000097645	-0.151577
C	 0.9969275047	 3.3075686002	 0.8713048797	 0.041486
N	-0.1296741082	 3.3586083477	 1.4548909068	-0.199146
C	-0.8980331864	 2.1797391956	 1.0291755464	-0.234868
H	-0.0158093551	-2.2373909502	-0.0048424467	 0.196329
H	 0.8081083526	 1.7224346155	-2.0565115963	 0.137365
H	-0.1116181572	 3.1747650469	-1.3989344692	 0.131791
H	 1.7737238916	 4.0535552638	 1.0129995268	 0.134339
H	-1.8667603594	 2.4885474515	 0.62349721	 0.126685
H	-1.0925496138	 1.5326729698	 1.8906537158	 0.134807
143.0733	161.005	299.2099	346.8533	486.515	515.3482	542.2747	566.8654	619.4212	656.175	727.4423	798.1136	845.0346	921.9301	936.2145	947.1479	974.4727	1022.8936	1050.39	1127.5941	1149.7631	1200.6015	1224.0251	1291.764	1321.3136	1364.0198	1481.8788	1498.5352	1683.8528	2242.8024	3050.8379	3087.8791	3111.3926	3187.8368	3212.8488	3502.6744
C#CC12CN1C=NC2	C#C[C@]12CN1C=NC2	
InChI=1S/C6H6N2/c1-2-6-3-7-5-8(6)4-6/h1,5H,3-4H2	InChI=1S/C6H6N2/c1-2-6-3-7-5-8(6)4-6/h1,5H,3-4H2/t6-,8?/m0/s1
