22
gdb 62861	2.73638	1.79573	1.40459	1.4999	85.2	-0.2203	0.0944	0.3147	1024.2474	0.196238	-367.139846	-367.132049	-367.131105	-367.171505	32.873	
C	-0.0607380866	 1.5233839368	 0.0773622392	-0.459032
C	-0.0370005083	-0.0197655254	-0.0055312249	 0.36189
C	-1.5027704524	-0.4497083058	 0.2446134327	-0.497719
C	 0.7566732023	-0.6037142956	-1.2232522775	-0.092867
C	 2.0656414407	-0.1450908705	-0.4820433128	-0.219515
C	 1.2238794793	-0.6191379463	 0.7505889693	-0.045288
N	 1.3593032832	-2.0892965156	 0.5057182265	-0.113423
C	 0.1565699814	-2.8451728505	 0.1294700626	-0.255934
C	 0.9097432488	-2.1077312531	-0.9246897662	-0.037175
H	 0.9093767752	 2.0158164549	 0.0365592197	 0.116018
H	-0.6763864603	 1.9322605226	-0.7320480794	 0.115999
H	-0.5320016303	 1.8221438575	 1.0206337218	 0.116823
H	-2.1700046204	 0.4082090378	 0.1179645013	 0.10507
H	-1.8460424489	-1.2167197779	-0.4519721597	 0.127166
H	-1.6590492191	-0.817720577	 1.2643980543	 0.125627
H	 0.5296067054	-0.3179358858	-2.2517709155	 0.059023
H	 2.961416131	-0.7392868309	-0.6686493479	 0.104205
H	 2.2985461658	 0.913282567	-0.5452440045	 0.097365
H	 1.4585167109	-0.3432535579	 1.7797842944	 0.066246
H	 0.3313640281	-3.9188240616	 0.1702324154	 0.111276
H	-0.8200696532	-2.5608542267	 0.4787334453	 0.121101
H	 1.5200774174	-2.6789463262	-1.6212513042	 0.093142
102.7214	216.2918	270.6843	297.7425	351.5502	380.4687	439.8176	458.9175	540.625	604.0317	657.3754	666.5942	738.5241	771.3899	800.5196	851.265	874.1839	879.1217	961.0274	983.4293	999.4304	1002.96	1013.2599	1024.3385	1056.519	1085.9902	1094.7088	1110.8999	1120.3628	1149.6325	1180.2094	1185.6105	1206.2101	1224.7974	1238.4623	1250.9811	1260.3211	1296.8426	1368.8745	1406.1263	1424.2712	1489.3865	1495.7402	1504.4009	1513.0267	1530.2906	1536.5989	3029.8474	3036.7764	3083.6801	3089.7639	3093.1545	3100.1104	3107.5348	3116.6588	3119.8084	3128.4354	3143.2542	3184.2364	3288.5385
CC1(C)C2CC1N1CC21	CC1(C)[C@H]2C[C@@H]1N1C[C@@H]21	
InChI=1S/C8H13N/c1-8(2)5-3-7(8)9-4-6(5)9/h5-7H,3-4H2,1-2H3	InChI=1S/C8H13N/c1-8(2)5-3-7(8)9-4-6(5)9/h5-7H,3-4H2,1-2H3/t5-,6-,7-,9?/m0/s1
