13
gdb 26806	3.71762	1.17266	0.89302	1.7174	77.78	-0.1894	-0.0297	0.1597	1201.9737	0.088221	-452.737147	-452.728717	-452.727773	-452.770025	30.855	
N	 0.254115358	 1.3855845135	-0.1127459178	-0.611875
C	 0.0330268361	 0.0207096932	-0.0383133129	 0.256021
C	-1.078926476	-0.7737208782	-0.0529918228	 0.249544
O	-2.3672349617	-0.3567802862	-0.0542266358	-0.449237
N	-0.7131568394	-2.0878709913	-0.0760803317	-0.383375
C	 0.5956087941	-2.0735408621	-0.063823373	 0.20389
O	 1.1135008177	-0.8056989507	-0.0529273112	-0.187521
C	 1.4895145208	-3.1552691399	-0.0426560147	 0.263068
C	 2.2602074581	-4.0807009376	-0.0288564116	-0.375119
H	 0.8836487379	 1.7331241307	 0.6028390194	 0.26039
H	-0.6188701159	 1.8966937926	-0.0859010001	 0.267447
H	-2.9176793386	-1.148434998	-0.0694014375	 0.307897
H	 2.9350747288	-4.9004625259	-0.0166439803	 0.198872
125.7786	138.8024	158.3866	243.5336	259.0826	280.1221	343.6046	422.7833	460.4715	545.7031	557.8058	610.2766	657.2912	681.7118	699.9744	723.4183	752.0069	840.9786	996.7856	1078.571	1145.3373	1232.7347	1350.4867	1358.0594	1463.1971	1546.0937	1635.8419	1725.5199	2231.3727	3502.7713	3516.0841	3624.3043	3815.6504
NC1=C(O)N=C(O1)C#C	Nc1c(O)nc(o1)C#C	
InChI=1S/C5H4N2O2/c1-2-3-7-5(8)4(6)9-3/h1,8H,6H2	InChI=1S/C5H4N2O2/c1-2-3-7-5(8)4(6)9-3/h1,8H,6H2
