21
gdb 121287	2.64145	1.12092	0.86528	0.8849	82.36	-0.2419	0.0192	0.2611	1424.0317	0.181039	-424.239609	-424.229814	-424.22887	-424.274976	35.1	
C	-0.1768190591	 1.4573825522	-0.2195545164	-0.38511
C	-0.0262424221	-0.0463031449	-0.0685897279	-0.036364
O	 0.6440332942	-0.5463166468	-1.2187825702	-0.254491
C	 0.886396366	-1.9300192646	-1.1849553833	 0.135411
O	-0.3005577995	-2.696702792	-1.2773001066	-0.270812
C	-0.376891745	-3.3215806605	-2.557823512	-0.121435
C	 0.9617646861	-3.0720406627	-3.1874685154	-0.205587
C	 1.7040003069	-2.2962151265	-2.4032891163	 0.303278
C	 3.0778917582	-1.7515390281	-2.6084860862	-0.497172
H	 0.8019746839	 1.9368223877	-0.3135314271	 0.121711
H	-0.7612834252	 1.6963119846	-1.1126331402	 0.126889
H	-0.6878761322	 1.8779609556	 0.6518558185	 0.113767
H	 0.5552183848	-0.2909059874	 0.836019092	 0.083587
H	-1.0066933639	-0.5303617213	 0.0307879184	 0.108236
H	 1.3661662713	-2.1819467094	-0.2226942688	 0.062339
H	-0.5923795988	-4.3894967993	-2.4133743053	 0.109751
H	-1.2028751595	-2.8979026386	-3.1503958999	 0.109096
H	 1.2433238844	-3.4682074584	-4.1554963559	 0.101233
H	 3.4981609644	-2.0667052531	-3.5667670302	 0.123567
H	 3.0593901094	-0.6567788243	-2.5757106854	 0.145994
H	 3.7577196458	-2.0807696223	-1.8123935417	 0.126112
55.7131	92.0191	111.1361	150.9595	165.8406	241.0647	250.8296	267.8299	355.2251	373.4601	525.6726	579.1248	643.5872	784.563	810.9263	820.078	899.7985	941.345	951.7227	954.8284	1027.6872	1040.8491	1047.4994	1066.6368	1083.7916	1121.4885	1147.6079	1187.0456	1196.7269	1208.1181	1287.9663	1294.4708	1362.0748	1372.6657	1389.2423	1403.3876	1410.4592	1440.9619	1476.2054	1483.5451	1492.0174	1500.7094	1516.5151	1528.379	1739.6327	2945.2326	2968.7707	2983.0547	3018.0334	3025.5427	3034.6746	3043.0916	3080.5342	3116.8849	3119.7195	3119.9096	3210.1854
CCOC1OCC=C1C	CCO[C@H]1OCC=C1C	
InChI=1S/C7H12O2/c1-3-8-7-6(2)4-5-9-7/h4,7H,3,5H2,1-2H3	InChI=1S/C7H12O2/c1-3-8-7-6(2)4-5-9-7/h4,7H,3,5H2,1-2H3/t7-/m0/s1
