21
gdb 60089	2.72826	1.12161	0.91684	2.6352	80.28	-0.2426	-0.0243	0.2182	1358.2618	0.178905	-424.223787	-424.213704	-424.212759	-424.259125	37.173	
C	 1.7486712706	-0.1340400543	-0.1906250346	-0.402933
C	 0.4804321085	-0.9874995081	-0.2296762251	 0.13388
C	 0.5694264341	-2.1089253025	-1.257560192	-0.389714
O	 0.2102284972	-1.6341857178	 1.024576147	-0.308432
C	-0.1672233198	-0.8230160868	 2.0891846297	 0.304056
C	-1.4491476237	-0.0100586375	 2.0317143325	-0.309797
C	-1.4122168068	-1.2584459875	 2.8526480983	-0.282367
C	 0.9422355805	-0.3091255101	 2.9451171531	 0.104693
O	 0.7977462184	 0.4771954052	 3.8507813051	-0.275877
H	 2.6174076875	-0.7457141969	 0.0730818299	 0.124181
H	 1.9280393021	 0.3129277843	-1.1737371333	 0.119382
H	 1.6672267362	 0.6850387337	 0.5301906655	 0.126967
H	-0.3718742899	-0.3375691058	-0.4771977198	 0.072604
H	 1.4065251313	-2.7741966631	-1.0236721605	 0.12537
H	-0.3488174523	-2.7017942109	-1.2570914019	 0.121988
H	 0.7221753541	-1.6997948789	-2.2603855674	 0.115482
H	-1.4285183926	 0.9427883007	 2.5481644738	 0.142902
H	-1.9984479542	-0.033598371	 1.0981406164	 0.126489
H	-1.8991721814	-2.1426880441	 2.4589860571	 0.131156
H	-1.3783244095	-1.1672184971	 3.9319152083	 0.136257
H	 1.9329805399	-0.7474570015	 2.6962621678	 0.08371
41.4615	79.7669	156.6151	198.297	219.3943	239.9689	263.1224	301.045	324.9341	340.538	407.9724	472.6366	496.9574	634.8151	728.6686	787.8317	822.9068	841.5494	908.2892	926.5903	945.2271	964.8561	987.1306	1038.5934	1056.078	1068.6501	1093.9048	1146.3826	1165.3482	1200.107	1206.3096	1276.8328	1297.592	1365.5871	1384.7499	1400.524	1411.8689	1417.8783	1442.3492	1474.441	1481.0128	1484.5441	1496.0257	1509.882	1808.3991	2902.8441	2994.7038	3035.4982	3044.3806	3106.9144	3111.7425	3118.7986	3124.4746	3144.3265	3145.1529	3234.6391	3248.9115
CC(C)OC1(CC1)C=O	CC(C)OC1(CC1)C=O	
InChI=1S/C7H12O2/c1-6(2)9-7(5-8)3-4-7/h5-6H,3-4H2,1-2H3	InChI=1S/C7H12O2/c1-6(2)9-7(5-8)3-4-7/h5-6H,3-4H2,1-2H3
