14
gdb 24207	4.30985	1.60267	1.40147	2.1157	66.05	-0.2237	-0.007	0.2166	888.3885	0.10378	-436.630148	-436.624232	-436.623287	-436.66086	23.452	
C	-0.0445777494	 1.5863141176	-0.0648496673	-0.210199
C	 1.4975837204	 1.314987782	 0.0035765352	-0.089965
O	 1.1749051582	 0.1809391261	 0.8877793831	-0.279185
C	-0.0133774008	 0.0219419524	 0.0114131897	-0.070393
C	 0.6732329294	-0.3230814207	-1.3114860634	 0.279956
C	 1.6933497125	 0.5561134598	-1.3045584492	 0.337646
O	 2.4239697779	 0.4052711669	-2.4286155633	-0.206596
C	 1.7584686507	-0.6149954361	-3.0769084613	 0.010319
N	 0.7104663131	-1.0828340142	-2.4609688421	-0.361382
H	-0.4206605505	 2.0419642479	 0.854143196	 0.117854
H	-0.4563840643	 2.0601470927	-0.958346345	 0.110041
H	 2.2327477452	 2.0135605505	 0.3944873741	 0.105515
H	-0.8099297377	-0.5851195981	 0.4331543136	 0.103462
H	 2.1777570953	-0.9248866168	-4.0203140002	 0.152926
66.1348	309.8398	401.7465	475.5944	534.1431	632.5656	684.7938	689.9014	752.0465	775.6671	819.1823	839.7192	874.5971	913.1247	939.1221	1008.8977	1035.5821	1043.279	1070.3066	1127.7598	1156.1914	1212.1338	1239.7354	1243.3971	1267.0229	1277.584	1365.6747	1409.078	1484.0921	1488.7307	1596.8224	3064.6804	3137.7666	3163.7392	3166.7954	3286.681
C1C2OC1C1=C2OC=N1	C1[C@H]2O[C@@H]1c1c2ocn1	
InChI=1S/C6H5NO2/c1-3-5-6(4(1)9-3)8-2-7-5/h2-4H,1H2	InChI=1S/C6H5NO2/c1-3-5-6(4(1)9-3)8-2-7-5/h2-4H,1H2/t3-,4+/m0/s1
