14
gdb 42677	2.62045	1.72847	1.19995	3.2672	73.23	-0.2601	-0.0242	0.2359	994.1005	0.099835	-399.421013	-399.413892	-399.412948	-399.452661	27.702	
O	-0.0322908198	-0.0640124953	-0.0358601736	-0.311942
C	-0.0227015766	 1.124248616	-0.0060345971	 0.513177
C	-0.9714949171	 2.3157752814	 0.0279437597	-0.224013
N	 0.0219408013	 3.070435395	 0.9677038971	-0.171569
C	 0.0006349024	 4.259431828	 0.0099363796	-0.229409
C	-0.0389677663	 3.0987456959	-0.9855704181	 0.259987
C	-0.0838804786	 3.0914232984	-2.419347487	 0.063686
C	-0.1214546409	 3.0960630703	-3.6213753465	-0.341723
C	 0.943599555	 2.3018260211	-0.0319760188	-0.224013
H	-2.0483106242	 2.4211266738	 0.1430196429	 0.115281
H	-0.8925886651	 4.883030417	 0.1033929199	 0.120669
H	 0.9069344167	 4.8699222472	 0.0470888948	 0.120669
H	-0.1546666847	 3.0966897085	-4.6830501298	 0.19392
H	 2.0269218181	 2.3914436126	 0.0155131069	 0.115281
96.5567	168.3672	202.9499	340.036	467.2746	476.0889	522.4484	550.6859	643.6447	645.3946	667.5485	691.4191	778.6609	798.6432	844.8089	853.3552	928.0298	1014.2424	1035.2325	1056.5351	1075.8912	1091.7585	1104.0312	1149.9369	1191.7128	1207.4309	1258.6458	1291.6566	1528.1592	1934.2886	2233.1003	3054.0304	3117.5516	3149.7595	3153.2964	3499.2535
O=C1C2N3CC2(C#C)C13	O=C1[C@H]2N3C[C@@]2(C#C)[C@H]13	
InChI=1S/C7H5NO/c1-2-7-3-8-5(7)4(9)6(7)8/h1,5-6H,3H2	InChI=1S/C7H5NO/c1-2-7-3-8-5(7)4(9)6(7)8/h1,5-6H,3H2/t5-,6+,7-
