14
gdb 48659	2.49395	1.44157	1.10456	3.2357	69.65	-0.2808	-0.0696	0.2113	1082.0008	0.09924	-436.66479	-436.65685	-436.655906	-436.697646	28.716	
O	-0.6589787136	 0.7416494741	 0.5847022277	-0.242049
C	 0.2600165192	 0.9223265918	-0.1734979969	 0.079946
C	 1.2711306567	 1.9837617252	 0.0365523994	 0.230666
C	 1.4023180849	 3.0059139526	 1.1662529908	-0.295369
C	 1.95279858	 4.042135805	 0.1279111426	-0.293977
C	 1.8055691417	 2.9715686576	-0.9684127204	 0.226972
O	 2.5524274401	 1.8272193336	-0.5830532376	-0.283115
C	 1.4978385641	 3.1528406944	-2.3532590749	 0.232081
N	 1.2446699197	 3.3437850219	-3.4653840761	-0.326998
H	 0.4190023756	 0.3195882363	-1.090975653	 0.109816
H	 0.4336388101	 3.2883024337	 1.5791058842	 0.14774
H	 2.0770548275	 2.7062910759	 1.9690511595	 0.134274
H	 1.2834372021	 4.8900264708	-0.0219048035	 0.14231
H	 2.9765358819	 4.3933377271	 0.2654190381	 0.137703
86.2861	140.6083	159.0245	210.165	238.138	349.6288	458.4906	482.4161	534.2343	570.1055	600.48	724.9283	762.6315	785.0547	850.5452	938.7295	975.1358	1030.781	1049.833	1121.0422	1167.3349	1210.3362	1223.5516	1236.7415	1303.3495	1375.1008	1435.177	1464.5116	1486.9234	1811.3133	2356.2035	2932.5479	3088.0483	3095.1836	3146.0242	3160.7355
O=CC12CCC1(O2)C#N	O=C[C@]12CC[C@]1(O2)C#N	
InChI=1S/C6H5NO2/c7-3-5-1-2-6(5,4-8)9-5/h4H,1-2H2	InChI=1S/C6H5NO2/c7-3-5-1-2-6(5,4-8)9-5/h4H,1-2H2/t5-,6+/m0/s1
