19
gdb 119850	4.52742	0.8959	0.79249	1.7914	78.1	-0.2341	0.0109	0.2449	1467.0983	0.158549	-422.999772	-422.991151	-422.990207	-423.033677	31.648	
C	-0.0732737099	 1.4165199061	 0.0328494417	-0.22404
O	 0.0100701182	 0.0126313809	-0.0181952695	-0.227553
C	-1.2494625288	-0.6121498059	 0.0219468808	-0.17194
C	-1.0900391628	-2.0961957222	-0.0060484195	 0.303144
C	 0.0431266964	-2.8036083278	 0.0410350192	-0.168165
C	-0.2063374175	-4.2977529667	-0.0084752677	-0.290395
C	-1.7277266672	-4.3933671089	-0.0207328798	 0.045987
O	-2.3661222739	-3.8552825409	 1.1396410983	-0.255983
C	-2.2662411115	-3.023092483	-0.0398765352	-0.07883
H	 0.9469697797	 1.8053380402	-0.0050819854	 0.129089
H	-0.640799226	 1.8237947886	-0.8191161707	 0.104381
H	-0.552678489	 1.7646434446	 0.9614304755	 0.106667
H	-1.8037319949	-0.3124508038	 0.9316268653	 0.104543
H	-1.8737257867	-0.2841465482	-0.831618152	 0.091493
H	 1.0303584539	-2.3710478497	 0.1399465191	 0.111807
H	 0.2239433807	-4.7568302364	-0.9082981691	 0.110984
H	 0.2254848813	-4.8218030137	 0.8529298052	 0.124449
H	-2.2323779731	-5.2396183621	-0.4791975038	 0.094335
H	-3.2165656088	-2.7448386011	-0.4879354524	 0.090026
73.8841	82.9022	135.6827	206.1635	237.1004	297.8525	350.6825	375.5646	394.9313	590.1009	685.5706	753.2931	815.1587	828.5174	864.8945	902.1494	930.4377	950.7086	998.6056	1014.9188	1039.3711	1048.0487	1100.4309	1154.0482	1182.0031	1183.7448	1185.4316	1226.0327	1250.9934	1258.708	1266.3135	1310.5847	1344.6688	1410.5397	1432.5213	1462.0003	1480.2433	1485.7677	1497.657	1521.561	1707.5848	2918.7205	2932.5272	2970.5601	3014.3817	3024.0093	3059.8908	3116.9633	3143.5169	3155.3587	3221.6946
COCC1=CCC2OC12	COCC1=CC[C@H]2O[C@@H]12	
InChI=1S/C7H10O2/c1-8-4-5-2-3-6-7(5)9-6/h2,6-7H,3-4H2,1H3	InChI=1S/C7H10O2/c1-8-4-5-2-3-6-7(5)9-6/h2,6-7H,3-4H2,1H3/t6-,7+/m1/s1
