18
gdb 6507	2.86366	1.84311	1.39181	5.1168	72.84	-0.2456	0.0316	0.2772	956.071	0.152229	-343.986168	-343.976972	-343.976028	-344.019238	33.893	
C	 0.0187090548	 1.5039179243	 0.022877565	-0.452124
C	 0.0155163096	-0.0118077752	-0.0003078708	 0.297436
C	-1.2557319008	-0.6182499105	-0.5640522862	-0.458802
C	 1.3142996607	-0.7318846985	-0.2464619737	-0.352363
C	 0.74129561	-0.7378804179	 1.1607035004	 0.107544
N	 1.4545444512	-0.0550815896	 2.2110146551	-0.56323
C	 0.1491902194	-1.9779679735	 1.6227367559	 0.297455
N	-0.3489218541	-2.9536781616	 1.9948704393	-0.358914
H	 0.9270895552	 1.9126503192	 0.4714665489	 0.104848
H	-0.0554981579	 1.8975977229	-0.9967244324	 0.128214
H	-0.8381100543	 1.8887689444	 0.5877725561	 0.123885
H	-1.3918923401	-0.3082763144	-1.6064456551	 0.118553
H	-1.2388637894	-1.7099416518	-0.5359654468	 0.143181
H	-2.1329813148	-0.2845703545	 0.001025581	 0.125275
H	 1.2987268965	-1.6630281123	-0.8013812281	 0.137264
H	 2.2181741365	-0.1458906976	-0.3854731413	 0.118422
H	 2.2265545404	 0.4905244721	 1.8530634643	 0.240691
H	 0.8483692871	 0.5524895843	 2.7510404884	 0.242662
118.9129	147.5877	159.1221	181.1508	200.427	263.0379	280.1	358.51	384.3724	416.2676	455.8946	574.9963	583.	661.3063	714.8559	768.075	864.3144	908.8561	954.4975	972.4869	992.5786	1037.0619	1079.6224	1117.1216	1144.262	1233.436	1281.3374	1322.8622	1369.6875	1411.9322	1425.9423	1478.6497	1480.6967	1489.951	1501.1669	1509.7432	1650.874	2347.1359	3029.6576	3033.898	3088.9093	3091.924	3119.1979	3125.0304	3127.1879	3217.9583	3522.5915	3622.7236
CC1(C)CC1(N)C#N	CC1(C)C[C@]1(N)C#N	
InChI=1S/C6H10N2/c1-5(2)3-6(5,8)4-7/h3,8H2,1-2H3	InChI=1S/C6H10N2/c1-5(2)3-6(5,8)4-7/h3,8H2,1-2H3/t6-/m0/s1
