20
gdb 112340	2.24234	1.30036	0.87071	5.988	84.7	-0.2139	-0.0073	0.2065	1347.4075	0.171366	-403.205656	-403.196324	-403.19538	-403.239968	35.145	
C	 0.8257929836	-0.2943305704	 1.28596464	-0.384345
C	 0.0232112211	 0.0257617781	 0.0216808525	-0.186557
C	 0.7387872843	-0.4035014829	-1.2755487539	-0.072709
C	 0.8340527638	-1.9322664434	-1.4620221271	-0.348552
C	 0.1247130253	-2.2430262276	-2.797050444	 0.396013
O	-0.0037234778	-3.3571114331	-3.2630074569	-0.367638
C	-0.332146688	-0.9769749235	-3.3472369312	-0.345137
C	 0.0100925272	 0.0523427386	-2.5322492012	 0.390586
N	-0.182665919	 1.3797653496	-2.7486705345	-0.579106
H	 1.0233938277	-1.3669324534	 1.3754695948	 0.129109
H	 1.7928744061	 0.2207676491	 1.279356995	 0.115877
H	 0.2857218256	 0.020182691	 2.1840067695	 0.116746
H	-0.9562272968	-0.4675957471	 0.0608649439	 0.109653
H	-0.1813811682	 1.1045714756	 7.7354*^-6	 0.080995
H	 1.7382331834	 0.0538939867	-1.2739281495	 0.087702
H	 1.8649438752	-2.2943815513	-1.5059231099	 0.124089
H	 0.3388324762	-2.4851638267	-0.657480817	 0.121534
H	-0.8575046667	-0.8984403568	-4.2905165977	 0.088091
H	-0.7945723071	 1.6757451379	-3.4910112768	 0.264169
H	-0.0779500259	 2.0256388596	-1.9851918913	 0.259479
56.1871	109.6231	160.2286	188.6712	235.7627	283.3004	310.5291	363.2078	395.1202	468.7378	528.0016	562.0623	594.1746	603.6707	666.0949	780.983	825.7503	852.3938	857.4342	935.9214	958.4428	988.074	1060.4392	1074.5267	1093.9457	1128.6499	1196.414	1208.2837	1246.9467	1282.2085	1286.6646	1301.9954	1351.0037	1371.5162	1401.9562	1414.5021	1462.7428	1486.12	1498.9166	1506.3848	1634.9587	1679.3909	1795.6759	3003.9844	3011.8177	3035.3625	3052.3459	3058.7836	3100.2438	3103.1046	3112.0072	3212.3069	3605.4741	3718.0349
CCC1CC(=O)C=C1N	CC[C@H]1CC(=O)C=C1N	
InChI=1S/C7H11NO/c1-2-5-3-6(9)4-7(5)8/h4-5H,2-3,8H2,1H3	InChI=1S/C7H11NO/c1-2-5-3-6(9)4-7(5)8/h4-5H,2-3,8H2,1H3/t5-/m0/s1
