20
gdb 9344	7.57177	0.73448	0.68363	1.5808	72.73	-0.2672	0.0196	0.2868	1683.1544	0.174853	-386.187331	-386.177241	-386.176296	-386.223653	34.078	
C	-0.0837782074	 1.5233647221	-0.1124500141	-0.381075
C	-0.0025246132	-0.0018871593	-0.0088378375	-0.169361
C	 0.748840011	-0.4742210126	 1.239784093	-0.15041
C	 0.8290185116	-1.9970959545	 1.3417629133	-0.332142
C	 1.5707083177	-2.4732203385	 2.5736588929	 0.445337
O	 2.0654217217	-1.7682249146	 3.4171525134	-0.356049
O	 1.6123725565	-3.8226272827	 2.6146646126	-0.234195
C	 2.2939731779	-4.3799636147	 3.7442849596	-0.238745
H	 0.9157224938	 1.9702324905	-0.1519872233	 0.116059
H	-0.6243792226	 1.8349220621	-1.0115642627	 0.111072
H	-0.6012213478	 1.9509280362	 0.7534003252	 0.116058
H	-1.0164670824	-0.4242359124	-0.0059475914	 0.09367
H	 0.4889362383	-0.4050867451	-0.9045843907	 0.093671
H	 1.7635240361	-0.0593783694	 1.244574723	 0.109505
H	 0.2639701314	-0.0783746157	 2.1397351373	 0.109499
H	-0.1711702002	-2.448198002	 1.3579319823	 0.129125
H	 1.325828286	-2.4292438655	 0.4639464128	 0.129123
H	 1.8133161146	-4.0730003175	 4.6768412046	 0.138915
H	 2.2350969949	-5.4618377901	 3.6234471856	 0.131046
H	 3.3372226318	-4.054288176	 3.7665557141	 0.138897
32.7652	68.9385	105.7012	123.909	127.1101	175.3423	244.3959	257.2313	306.444	347.4471	487.2127	585.8683	699.9082	734.5269	806.0589	883.7897	922.	938.5442	1005.9678	1046.6737	1075.0935	1130.161	1130.6116	1179.5723	1198.1674	1216.0606	1235.8927	1298.4213	1310.9945	1327.9202	1375.3635	1405.0345	1415.7869	1458.8415	1473.7683	1482.1556	1485.2565	1496.2959	1498.7429	1499.7076	1512.3733	1819.9526	3010.8719	3029.9573	3032.1257	3036.8996	3042.4959	3050.1794	3058.585	3083.3023	3098.6227	3102.8204	3123.3764	3156.381
CCCCC(=O)OC	CCCCC(=O)OC	
InChI=1S/C6H12O2/c1-3-4-5-6(7)8-2/h3-5H2,1-2H3	InChI=1S/C6H12O2/c1-3-4-5-6(7)8-2/h3-5H2,1-2H3
