16
gdb 27116	3.06567	1.30898	0.92178	3.1984	78.93	-0.183	0.0134	0.1963	1214.1314	0.125957	-434.079657	-434.071156	-434.070212	-434.114078	31.092	
N	-0.2038928005	 1.4343857229	 0.0001938528	-0.624012
C	 0.0276487854	 0.0281660463	-0.0197444771	 0.041917
C	-0.9928501644	-0.8852597109	-0.0063132631	 0.484435
N	-2.3449526062	-0.6173282959	 0.0270825368	-0.393027
C	-3.427688265	-1.4650066648	 0.042251508	 0.071525
N	-3.3466077278	-2.7354552042	 0.026873006	-0.443663
O	-0.5252508136	-2.1437268144	-0.0301349149	-0.153638
C	 0.8457120507	-2.0532347643	-0.0601755441	-0.030281
C	 1.2343554612	-0.7546313347	-0.0552624514	-0.244323
H	 0.2266989566	 1.8717595367	 0.8097044894	 0.240622
H	 0.1894144832	 1.8886914608	-0.8189125491	 0.240622
H	-2.5208925334	 0.3766788156	 0.0414312052	 0.263631
H	-4.3590716777	-0.8855350995	 0.0693053586	 0.086884
H	-4.2814539872	-3.1370478373	 0.0435197005	 0.220764
H	 1.3633965407	-2.9963761485	-0.0816388952	 0.134654
H	 2.2493234281	-0.3877359979	-0.0743781624	 0.103891
18.0025	150.3244	164.7877	213.147	249.1403	274.3548	333.2457	442.6552	571.008	609.9426	618.957	678.3846	687.9941	718.3403	796.9753	815.9434	829.6613	864.5761	903.5502	1038.863	1057.1456	1072.3567	1138.1431	1171.9009	1214.8303	1233.8101	1286.5332	1348.2088	1413.0014	1484.4736	1499.6376	1572.5607	1644.5917	1702.0965	1728.0805	3036.5812	3248.9607	3296.3759	3484.5353	3510.4094	3546.0285	3618.4016
NC1=C(NC=N)OC=C1	Nc1c(NC=N)occ1	
InChI=1S/C5H7N3O/c6-3-8-5-4(7)1-2-9-5/h1-3H,7H2,(H2,6,8)	InChI=1S/C5H7N3O/c6-3-8-5-4(7)1-2-9-5/h1-3H,7H2,(H2,6,8)
