20
gdb 104750	2.2026	1.29546	0.9583	3.0845	82.2	-0.2362	0.0394	0.2755	1296.9857	0.168534	-403.084964	-403.074684	-403.07374	-403.120105	37.669	
C	-0.2564694228	-0.7284572885	 1.3327485035	-0.370297
C	-0.5585441764	-0.3992654618	-0.1319214699	-0.264694
C	 0.6631346617	-0.2952825436	-1.0454653291	 0.302093
C	 0.5060667963	 0.7647659022	-2.1240570516	-0.164621
O	 1.6860760623	 0.8189132503	-2.9100632472	-0.419773
N	 1.987466529	-0.4651716392	-0.4461447741	-0.361074
C	 1.4886400523	-1.4981130493	-1.394738134	-0.291097
C	 1.2006704336	-2.8140958126	-0.895863903	 0.363431
C	 0.9445554944	-3.9318962331	-0.5320025914	-0.410948
H	 0.2459139121	-1.6925882388	 1.4284828405	 0.139917
H	 0.3938975836	 0.0279932029	 1.7785854942	 0.121981
H	-1.1891699947	-0.7666061435	 1.9046162888	 0.099632
H	-1.2408654108	-1.1502287233	-0.5491948701	 0.111145
H	-1.0985697847	 0.5563275495	-0.175975021	 0.089468
H	-0.3774606673	 0.529192267	-2.7380883598	 0.10262
H	 0.3182869909	 1.7337478816	-1.6335751174	 0.099076
H	 1.5973949419	 1.5294707287	-3.5505372039	 0.297493
H	 2.6548845315	 0.1135848088	-0.9535809309	 0.241647
H	 1.9285067909	-1.4793198276	-2.3881059417	 0.121772
H	 0.728072346	-4.9162725796	-0.1982947718	 0.19223
67.8988	116.455	124.8955	146.2588	199.46	214.857	244.9243	269.9119	335.3556	362.7912	416.9324	531.9907	550.8149	594.5899	602.3114	650.309	697.8058	779.2363	822.1709	903.7985	947.9338	988.6239	1020.0678	1044.8182	1082.121	1103.1453	1118.2412	1139.4604	1206.4032	1225.4165	1252.4208	1280.0077	1320.2984	1350.7553	1389.0475	1416.5518	1444.1475	1452.6833	1486.7552	1494.7103	1506.4327	1516.5497	2234.6485	2965.8955	2998.3864	3012.6256	3047.9745	3049.456	3117.6153	3141.5727	3149.8981	3487.4734	3503.8279	3849.0521
CCC1(CO)NC1C#C	CC[C@@]1(CO)N[C@H]1C#C	
InChI=1S/C7H11NO/c1-3-6-7(4-2,5-9)8-6/h1,6,8-9H,4-5H2,2H3	InChI=1S/C7H11NO/c1-3-6-7(4-2,5-9)8-6/h1,6,8-9H,4-5H2,2H3/t6-,7-/m0/s1
