23
gdb 90479	2.76882	1.19958	1.01852	0.2394	90.13	-0.244	0.0867	0.3307	1305.4263	0.206569	-351.110794	-351.10196	-351.101016	-351.144606	34.726	
C	 0.2949806508	 2.0489327951	 3.2578528704	-0.411645
C	 0.1340802187	 0.6429641054	 2.6888624895	 0.045507
C	-0.0906324604	 0.4082780845	 1.1537202453	-0.266295
C	 1.0361387186	-0.6361359615	 1.1622024437	-0.084709
C	 2.3483715252	-0.0267497692	 1.5703423832	 0.005147
C	 2.8666191912	 1.3097876344	 1.1296298568	 0.013228
C	 4.1538260373	 1.8478666701	 1.7075266694	-0.268578
C	 4.1112207503	 1.3743302501	 0.2759873455	-0.279736
C	 1.3252869165	-0.3281416955	 2.641973917	-0.104081
H	 1.1032194046	 2.6035053825	 2.7754193949	 0.119919
H	-0.629364124	 2.6256418313	 3.1368282544	 0.108336
H	 0.5199089576	 2.0078925092	 4.3297215077	 0.111816
H	-0.6839863529	 0.1473571845	 3.2230957466	 0.073754
H	-1.0733770002	-0.0136977862	 0.9333313592	 0.098044
H	 0.0624574696	 1.2708915677	 0.4966009322	 0.094776
H	 0.9818549428	-1.5995376587	 0.6684674875	 0.078886
H	 3.140952124	-0.7755665527	 1.5944481016	 0.075959
H	 2.1117165342	 2.0520893289	 0.8966858017	 0.083089
H	 4.2328594176	 2.9126061651	 1.8988441892	 0.107649
H	 4.6754259252	 1.2290156426	 2.4305348547	 0.108995
H	 4.606827521	 0.4385746903	 0.0367789425	 0.108334
H	 4.1584480273	 2.1141368657	-0.515609606	 0.108203
H	 1.5658377848	-1.0239907934	 3.4391433329	 0.073401
45.5209	145.3996	153.26	206.5631	229.1276	290.3366	325.7307	404.4731	486.5065	569.3774	679.2342	736.1818	776.8223	791.9441	818.7309	837.4707	861.4294	880.7619	928.5782	940.254	969.2222	980.0589	998.8551	1016.0904	1056.7415	1071.9292	1076.5407	1084.447	1105.8096	1123.5405	1129.4603	1139.1983	1191.0599	1198.1627	1226.3408	1244.5339	1245.6161	1273.4802	1303.2708	1328.6378	1368.4185	1380.54	1409.9176	1469.9316	1474.0715	1494.0549	1495.9508	1500.3022	1507.2368	3028.7255	3037.0645	3046.5146	3086.5639	3099.5766	3104.2778	3123.7087	3125.703	3130.5172	3156.2373	3166.4946	3174.5473	3203.1475	3219.2416
CC1CC2C(C3CC3)C12	C[C@H]1C[C@H]2[C@@H](C3CC3)[C@@H]12	
InChI=1S/C9H14/c1-5-4-7-8(5)9(7)6-2-3-6/h5-9H,2-4H2,1H3	InChI=1S/C9H14/c1-5-4-7-8(5)9(7)6-2-3-6/h5-9H,2-4H2,1H3/t5-,7+,8-,9+/m0/s1
