17
gdb 100608	3.76697	0.85408	0.77045	3.7174	67.66	-0.2526	-0.0243	0.2284	1454.0497	0.135757	-492.305561	-492.29617	-492.295226	-492.340581	33.542	
O	 0.0086940394	 1.1043235491	-1.0123367283	-0.421144
C	 0.0669064242	-0.2627687453	-0.6153587634	-0.100341
C	-1.0424375737	-0.5573210589	 0.4092410728	 0.059508
O	-2.2703875792	-0.0275268041	-0.0640331384	-0.455881
C	-1.1595380006	-2.0588406433	 0.6352961326	 0.334471
N	-0.2657011932	-2.6525577006	 1.3112311439	-0.513763
N	-2.2719157128	-2.6196907708	-0.0094105077	-0.333237
C	-2.6178165968	-3.9451248248	-0.0362148954	 0.162727
O	-1.991437003	-4.8490985103	 0.4713367414	-0.300491
H	 0.3821224462	 1.6400154117	-0.3037123198	 0.296124
H	-0.1103397362	-0.8437823017	-1.5260876989	 0.122181
H	 1.0416984466	-0.5454070046	-0.2052151031	 0.133969
H	-0.7712037926	-0.1040110991	 1.3733778694	 0.09971
H	-2.0259286657	 0.747898844	-0.590176299	 0.296102
H	-0.4434077071	-3.6569246218	 1.3401930616	 0.253153
H	-2.8853609756	-1.9418400903	-0.4446977125	 0.271631
H	-3.56110337	-4.1072378192	-0.5919229353	 0.095281
45.5668	86.1056	123.9136	188.7192	232.2825	264.6873	280.9263	332.4663	357.5188	429.2703	550.9957	557.163	586.057	668.0794	723.0878	811.2208	898.3213	930.7191	957.5051	1018.4207	1028.7186	1070.1625	1082.0725	1129.1709	1182.987	1192.6474	1279.7262	1327.6187	1348.4432	1373.1093	1405.4857	1426.9191	1436.7253	1495.1223	1518.2281	1730.1495	1809.1684	2953.1133	3005.8223	3049.3629	3105.1763	3490.1361	3571.9349	3728.5525	3807.0741
OCC(O)C(=N)NC=O	OC[C@@H](O)C(=N)NC=O	
InChI=1S/C4H8N2O3/c5-4(6-2-8)3(9)1-7/h2-3,7,9H,1H2,(H2,5,6,8)	InChI=1S/C4H8N2O3/c5-4(6-2-8)3(9)1-7/h2-3,7,9H,1H2,(H2,5,6,8)/t3-/m1/s1
