23
gdb 115480	2.51293	0.98659	0.74049	1.5029	89.49	-0.2229	0.0346	0.2575	1600.9648	0.205449	-388.307399	-388.297305	-388.296361	-388.342851	37.079	
C	-0.2157929017	 1.5688779792	-0.0481093914	-0.386702
C	-0.0653571408	 0.045754213	 0.0029995318	-0.174717
C	 0.7744694846	-0.4633689323	 1.1861551391	-0.00164
C	 0.8046543574	-2.0119513394	 1.2957660634	-0.230757
C	 2.215266519	-2.3712495196	 1.8196156633	-0.313578
C	 3.0288624389	-1.1436044067	 1.4660562949	 0.30584
C	 4.5194032356	-1.1511447621	 1.5570453419	-0.177156
O	 5.0338032581	 0.1275116238	 1.2300407682	-0.414283
C	 2.2474064673	-0.1163298655	 1.1325073868	-0.158627
H	 0.7526125933	 2.0670911632	-0.1597049946	 0.120616
H	-0.8429821304	 1.8760318577	-0.8910665062	 0.108987
H	-0.6804001967	 1.9511474261	 0.8679437445	 0.111857
H	-1.0615824171	-0.4127457921	 0.0607162126	 0.089686
H	 0.385060521	-0.3146668923	-0.9312942799	 0.09197
H	 0.3393584328	-0.0337789212	 2.1040807437	 0.068372
H	 0.0013839467	-2.4085183258	 1.9228222411	 0.091954
H	 0.6723021098	-2.4365138653	 0.293890391	 0.098264
H	 2.2182812707	-2.5336395517	 2.907709596	 0.100659
H	 2.6098414746	-3.2929981676	 1.3739732897	 0.094986
H	 4.8179439762	-1.4556811956	 2.5770201677	 0.091406
H	 4.9183529775	-1.9289347071	 0.8805684399	 0.091898
H	 5.9927351902	 0.0842488896	 1.2778644601	 0.288096
H	 2.6202728632	 0.8701548216	 0.8874795162	 0.102869
73.7077	87.8894	113.5743	145.5078	179.9565	229.0566	238.8886	249.2374	382.1447	396.6423	430.2987	489.5146	609.7406	644.2926	781.5204	839.89	853.5067	871.3524	918.8225	949.1663	969.9947	985.0512	1017.3354	1044.9348	1056.0167	1082.9388	1122.8958	1129.611	1171.2144	1194.448	1218.0652	1239.5484	1256.7422	1274.0776	1284.6983	1294.2887	1329.25	1346.4228	1366.9255	1378.359	1413.7068	1467.8105	1483.5685	1487.3592	1499.7696	1499.8693	1507.3399	1508.289	1725.3555	2932.5493	2943.156	2957.0346	2997.4666	3011.0003	3030.8423	3031.4272	3045.5449	3046.0968	3091.717	3096.2626	3102.5348	3216.1069	3839.3281
CCC1CCC(CO)=C1	CC[C@H]1CCC(=C1)CO	
InChI=1S/C8H14O/c1-2-7-3-4-8(5-7)6-9/h5,7,9H,2-4,6H2,1H3	InChI=1S/C8H14O/c1-2-7-3-4-8(5-7)6-9/h5,7,9H,2-4,6H2,1H3/t7-/m0/s1
