21
gdb 89797	3.097	1.35351	1.11953	1.9931	82.4	-0.2333	0.0767	0.3101	1167.4952	0.184937	-383.234109	-383.226036	-383.225092	-383.266402	32.534	
C	 0.0524761813	 1.580185955	 0.0336011162	-0.404197
C	 0.0283600226	 0.0517959878	 0.0258845795	 0.036707
C	 0.7404055501	-0.5845167997	-1.1990695773	-0.335838
C	 1.2329375359	-1.9480884509	-0.7134240965	 0.40633
C	 0.7220384476	-3.2188744993	-1.2873464691	-0.302506
N	 2.121802833	-2.7996992365	-1.5076641297	-0.370261
C	 1.4727595454	-1.7937034133	 0.7606932056	-0.113759
N	 2.2093255485	-0.5485141338	 1.0911893168	-0.346088
C	 0.7360566815	-0.5912574661	 1.2157557008	-0.043104
H	 1.0849410564	 1.9409627744	 0.0775277316	 0.132119
H	-0.4156047765	 1.9906729765	-0.8674138316	 0.109621
H	-0.484896003	 1.9826689743	 0.8992780168	 0.106609
H	-1.0141088769	-0.2941821523	 0.0457539131	 0.07152
H	 0.0868711014	-0.6572147503	-2.0730907506	 0.091138
H	 1.6040266104	 0.0306559319	-1.4728637652	 0.120315
H	 0.6055984131	-4.1014628691	-0.6626074255	 0.11179
H	 0.0167203897	-3.156450854	-2.112716118	 0.106836
H	 2.2263964821	-2.4132955276	-2.4433090763	 0.228097
H	 1.6115410853	-2.6723749902	 1.3814045677	 0.084729
H	 2.6268795104	-0.6514043097	 2.0127407448	 0.230143
H	 0.2897423716	-0.5289831271	 2.2038329768	 0.0798
102.8842	171.8378	234.0429	240.8987	290.7156	348.7288	384.6666	432.4979	519.4047	566.1776	615.8336	776.7126	805.7563	847.1439	866.7391	884.5261	911.4083	914.5094	936.1663	939.8251	957.1043	985.2677	1021.8866	1050.2432	1083.0069	1114.0181	1118.9679	1135.207	1148.0916	1158.7511	1213.2746	1257.2435	1264.829	1298.4481	1302.67	1336.0857	1349.1584	1359.8783	1399.4658	1411.4066	1447.6828	1482.9349	1496.311	1502.357	1515.6041	3012.1014	3029.6261	3047.0808	3092.5641	3093.9731	3097.1698	3108.6081	3151.7806	3171.8373	3180.3726	3489.4193	3502.9459
CC1CC2(CN2)C2NC12	C[C@H]1C[C@]2(CN2)[C@H]2N[C@@H]12	
InChI=1S/C7H12N2/c1-4-2-7(3-8-7)6-5(4)9-6/h4-6,8-9H,2-3H2,1H3	InChI=1S/C7H12N2/c1-4-2-7(3-8-7)6-5(4)9-6/h4-6,8-9H,2-3H2,1H3/t4-,5-,6-,7-/m0/s1
