23
gdb 87707	2.82966	1.08772	1.00944	1.497	85.75	-0.252	0.0677	0.3197	1337.1983	0.204285	-388.271642	-388.261695	-388.260751	-388.306083	38.035	
C	 0.1155221643	 1.4231208385	-0.4901771468	-0.405166
C	 0.2862098594	-0.0619283463	-0.2572701063	-0.06226
C	 1.6481407771	-0.643154119	 0.0560411785	-0.358141
C	 0.5796917118	-0.6004088754	 1.1137244626	 0.381671
C	 0.6817191305	 0.1609890777	 2.4440857817	-0.358543
C	 0.4748333857	-1.2009143967	 3.1640944963	 0.160279
O	-0.3265441435	-1.267901699	 4.3165559822	-0.433795
C	-0.0315037129	-1.8266199132	 1.818744365	-0.123377
C	-1.5506212682	-1.9434645828	 1.7112205486	-0.409554
H	 0.7816545597	 2.0034439593	 0.1566420989	 0.115999
H	 0.3445895118	 1.6918308618	-1.5274357792	 0.116521
H	-0.9109727346	 1.7465956819	-0.2822429381	 0.113268
H	-0.3534859777	-0.6885134294	-0.875939626	 0.078606
H	 1.9126947702	-1.6049059568	-0.3733725901	 0.10627
H	 2.4819470589	 0.0476056778	 0.1488289945	 0.105288
H	 1.6034410677	 0.7071104872	 2.6607659481	 0.100908
H	-0.167029657	 0.8363011621	 2.6099154622	 0.090074
H	 1.4340645552	-1.6389006994	 3.4516526734	 0.09305
H	-1.1703507795	-0.8484063972	 4.1197773424	 0.278558
H	 0.4283629557	-2.7882948442	 1.5675848264	 0.065999
H	-2.0509740573	-0.9857153435	 1.9002641502	 0.103129
H	-1.8487285097	-2.2640130814	 0.7080334604	 0.117774
H	-1.9374407177	-2.6752137122	 2.427836085	 0.123441
68.0444	129.8686	172.0622	183.7037	221.4386	233.9834	251.4116	303.0558	355.926	394.7563	422.6729	468.5158	519.9983	593.4453	717.7931	784.9866	798.8607	867.0039	897.3057	907.9368	940.0242	975.3477	988.775	1023.3372	1051.898	1073.5795	1092.4387	1110.4543	1128.0459	1134.7599	1149.7578	1184.2415	1209.8497	1227.1509	1249.7798	1282.4777	1309.0945	1334.8468	1355.6716	1405.2393	1409.6302	1427.2876	1438.3567	1482.1833	1488.8181	1490.9337	1497.3349	1501.9458	1506.2553	3022.6019	3024.3172	3028.5363	3041.8322	3076.862	3084.3207	3088.1687	3093.9105	3096.7703	3103.8055	3110.9441	3124.0486	3195.3359	3816.8844
CC1CC11CC(O)C1C	C[C@H]1C[C@]21C[C@@H](O)[C@H]2C	
InChI=1S/C8H14O/c1-5-3-8(5)4-7(9)6(8)2/h5-7,9H,3-4H2,1-2H3	InChI=1S/C8H14O/c1-5-3-8(5)4-7(9)6(8)2/h5-7,9H,3-4H2,1-2H3/t5-,6+,7+,8+/m0/s1
