16
gdb 125255	3.92965	1.05828	0.8381	1.792	76.18	-0.2254	-0.0067	0.2187	1326.8905	0.125172	-434.076118	-434.067687	-434.066743	-434.109805	30.391	
C	 0.2304298077	 1.5533841729	-0.002746009	-0.491168
C	 0.0038192362	 0.0843323434	 0.0495539344	 0.453792
C	-1.1123773741	-0.6874564612	-0.0388719539	-0.431124
C	-0.6013055803	-2.0100994249	 0.0908304053	 0.497477
N	-1.2712266748	-3.2217476676	 0.0773200036	-0.386322
C	-2.6208513382	-3.4351649069	-0.0665261696	 0.086474
N	-3.4757123493	-2.5024832754	-0.2142096522	-0.453759
N	 0.7071682694	-2.0306025826	 0.2437722242	-0.250703
O	 1.0914041093	-0.6906216708	 0.2170428453	-0.212498
H	 0.8967759021	 1.8177298628	-0.8304009697	 0.149742
H	-0.7187213431	 2.0743226598	-0.1396865998	 0.144052
H	 0.6954959708	 1.911226801	 0.921664403	 0.149736
H	-2.1385521413	-0.4014932945	-0.1730249084	 0.154174
H	-0.6789596689	-4.0295042273	 0.1886379102	 0.265901
H	-2.8506985937	-4.5064199596	-0.0362921108	 0.097635
H	-4.4091430918	-2.8961751691	-0.3007251427	 0.226591
71.3112	95.1668	156.0714	162.8426	248.4894	297.7349	393.7082	410.9174	524.4697	555.2093	632.1673	710.5388	723.7028	799.445	819.2647	840.4808	948.7318	1005.2185	1025.7208	1035.0566	1045.2487	1065.6251	1124.9988	1156.7847	1241.016	1309.6843	1409.9615	1414.0815	1458.9331	1474.0586	1481.1895	1510.1572	1584.4807	1660.9633	1730.2582	3042.4131	3053.5987	3098.648	3140.5137	3321.4126	3522.7402	3641.2824
CC1=CC(NC=N)=NO1	Cc1cc(NC=N)no1	
InChI=1S/C5H7N3O/c1-4-2-5(7-3-6)8-9-4/h2-3H,1H3,(H2,6,7,8)	InChI=1S/C5H7N3O/c1-4-2-5(7-3-6)8-9-4/h2-3H,1H3,(H2,6,7,8)
