17
gdb 80703	2.24847	1.52306	1.29947	3.4695	69.35	-0.2415	-0.0312	0.2104	1056.65	0.132938	-458.913348	-458.904552	-458.903608	-458.946623	32.482	
C	-0.1083609528	 1.5179940883	-0.1705118192	-0.438037
C	 0.0249244818	 0.0250305162	 0.03475469	-0.097516
C	 1.299589125	-0.7525744962	-0.1611337786	 0.027398
O	 2.4418331727	 0.0008749262	 0.2695205056	-0.278065
C	 1.9947916176	-0.0470267508	 1.635229678	-0.009273
C	 1.9806936596	 1.243997457	 2.4084662961	 0.136549
O	 2.2991794728	 2.3275250447	 1.9936539705	-0.24289
C	 0.6604451597	-0.7018005541	 1.2097391073	 0.243509
O	 0.0472949205	-1.6941794134	 1.9407414091	-0.446884
H	 0.84157057	 2.024430227	 0.005037832	 0.169544
H	-0.4201794189	 1.7253901235	-1.1994569343	 0.119383
H	-0.8599352009	 1.9513887766	 0.4981345628	 0.112202
H	-0.8237023456	-0.5679876926	-0.3082222094	 0.098515
H	 1.4634518999	-1.5549857263	-0.8699697526	 0.117686
H	 2.5815373807	-0.7808479396	 2.2105315317	 0.114119
H	 1.6322011851	 1.0987998238	 3.4596396441	 0.07792
H	-0.7752499674	-1.3482088905	 2.3035307668	 0.295839
105.6066	137.377	177.1117	202.5574	238.9658	272.5543	284.0397	333.1114	362.1215	500.2372	577.2676	631.1253	701.7734	751.0168	774.0071	858.3052	915.4686	964.5142	989.7207	1007.7688	1047.3213	1079.0853	1111.1794	1127.0793	1142.6284	1181.0926	1227.374	1251.3883	1313.3614	1349.717	1356.5086	1416.739	1420.255	1475.1614	1501.2732	1510.4036	1833.8909	2842.8151	2991.888	3037.6957	3093.8279	3112.326	3150.3271	3193.984	3800.9311
CC1C2OC(C=O)C12O	C[C@H]1[C@H]2O[C@@H](C=O)[C@@]12O	
InChI=1S/C6H8O3/c1-3-5-6(3,8)4(2-7)9-5/h2-5,8H,1H3	InChI=1S/C6H8O3/c1-3-5-6(3,8)4(2-7)9-5/h2-5,8H,1H3/t3-,4-,5+,6-/m0/s1
