16
gdb 29959	3.45179	1.24107	0.9198	7.9809	77.34	-0.215	-0.0223	0.1927	1212.568	0.124978	-434.111889	-434.103186	-434.102242	-434.145362	31.147	
C	-0.0608920644	 1.4655657206	 0.0376330475	-0.353112
N	 0.0017283388	 0.0188854586	 0.0091312994	-0.038445
C	 0.019098607	-0.801143128	-1.1070523301	-0.003511
N	 0.0267313394	-2.0617512624	-0.8010683796	-0.30152
C	 0.0296418175	-2.1097589345	 0.5867256127	 0.13402
C	 0.0657166335	-3.3307395797	 1.3665730003	 0.079202
O	 0.0730814756	-4.4648498378	 0.9427238657	-0.28502
C	 0.0121381093	-0.8128421809	 1.096080186	 0.241695
N	-0.0862885244	-0.296704585	 2.3817180501	-0.608302
H	 0.9067397006	 1.9094452261	 0.2991454095	 0.141346
H	-0.3496036287	 1.8270548074	-0.9506065132	 0.154937
H	-0.8081025637	 1.790575568	 0.7669173933	 0.160143
H	 0.0279238255	-0.3804302299	-2.1025977153	 0.13228
H	 0.0967546961	-3.1446471383	 2.4713469523	 0.022693
H	-0.0792501755	-1.017585363	 3.0902866143	 0.266642
H	 0.6031421934	 0.4124067288	 2.6030508972	 0.256953
100.3238	108.1685	179.7553	193.9999	228.5643	273.5575	276.262	340.3018	388.6474	520.1563	647.6288	671.3781	701.5554	743.8052	758.5635	807.9672	828.3593	996.4416	1016.2945	1063.0091	1151.5913	1175.2311	1222.3749	1287.1703	1337.2853	1381.0754	1443.4961	1453.7515	1484.2071	1499.9628	1513.6874	1570.6388	1584.016	1658.7206	1794.9978	2781.0027	3031.7777	3100.061	3143.4313	3239.4931	3528.3818	3631.7954
CN1C=NC(C=O)=C1N	Cn1cnc(C=O)c1N	
InChI=1S/C5H7N3O/c1-8-3-7-4(2-9)5(8)6/h2-3H,6H2,1H3	InChI=1S/C5H7N3O/c1-8-3-7-4(2-9)5(8)6/h2-3H,6H2,1H3
