19
gdb 87916	4.02474	1.06747	0.96706	4.1413	76.58	-0.2281	0.0636	0.2918	1263.4355	0.160651	-419.246772	-419.23824	-419.237296	-419.27979	32.796	
C	 0.0234588445	 1.5604683657	-0.1575771787	-0.409117
C	 0.0230713729	 0.0550906212	-0.0006794303	-0.064636
C	 1.311984264	-0.7478083453	-0.1067540641	-0.346249
C	 0.5901482268	-0.6170180114	 1.212249631	 0.376501
C	 1.1834050491	 0.1375775037	 2.405595051	-0.229597
N	 1.3339994166	-0.9384467206	 3.3739785137	-0.347858
C	 0.4869962343	-2.002281691	 3.0898379326	 0.425544
O	 0.2669209837	-2.963182855	 3.7914360376	-0.409444
N	-0.0635104582	-1.7397067574	 1.8385712875	-0.402412
H	 0.9246789584	 2.009978646	 0.27167258	 0.11709
H	-0.0099860934	 1.8421580597	-1.2153844927	 0.123533
H	-0.8425769605	 2.0145158798	 0.3362162187	 0.124516
H	-0.8555697851	-0.4350632945	-0.414856392	 0.089442
H	 1.2809864022	-1.7064409539	-0.6152135696	 0.112312
H	 2.2425941048	-0.2028965201	-0.2380907355	 0.114145
H	 2.1418711715	 0.6061132486	 2.1650045088	 0.115766
H	 0.4939886189	 0.9207336493	 2.7562759185	 0.108538
H	 1.511942496	-0.7445676325	 4.3462269239	 0.252511
H	-0.3632505565	-2.5354013224	 1.2972871198	 0.249413
89.7717	146.7256	183.2413	196.6506	241.8567	324.2498	410.1166	443.5023	475.9851	518.99	529.5553	553.1531	713.3435	760.4244	773.2331	851.8961	877.4547	916.5415	938.6613	982.6935	1010.6273	1033.3049	1065.8693	1091.1523	1106.7066	1130.4906	1182.6059	1215.6964	1247.1535	1259.2541	1305.9516	1361.3452	1392.2155	1418.4659	1427.5933	1452.3415	1490.3998	1493.1692	1509.8105	1527.8866	1852.5058	2982.6121	3030.4326	3071.6651	3093.5941	3097.7274	3116.4788	3130.328	3204.5211	3639.1473	3648.5028
CC1CC11CNC(=O)N1	C[C@H]1C[C@]21CNC(=O)N2	
InChI=1S/C6H10N2O/c1-4-2-6(4)3-7-5(9)8-6/h4H,2-3H2,1H3,(H2,7,8,9)	InChI=1S/C6H10N2O/c1-4-2-6(4)3-7-5(9)8-6/h4H,2-3H2,1H3,(H2,7,8,9)/t4-,6+/m0/s1
