22
gdb 107478	2.14696	1.66011	1.24112	1.5447	85.72	-0.2216	0.0838	0.3054	1145.5874	0.194043	-367.15745	-367.148557	-367.147613	-367.190756	34.745	
C	 0.1341605855	 1.6092137306	 0.1213921706	-0.379778
C	 0.0210832048	 0.0814300522	 0.0281827028	-0.30037
C	 0.6078523924	-0.4929940875	-1.2353622555	 0.271664
C	 1.5770744526	-1.6113118056	-1.2729808777	-0.290677
N	 2.0619773076	-0.2654237139	-1.6442209857	-0.170242
C	 1.5930566564	-0.0447432833	-3.0593487185	-0.24184
C	 0.1283726324	-0.2338163002	-2.6532596865	 0.330788
C	-0.9912398915	-0.9045379629	-3.3966612955	-0.333304
C	-1.047291943	 0.5779728101	-3.1016230632	-0.337171
H	 1.1830169862	 1.9115181808	 0.0554020152	 0.136441
H	-0.4078567968	 2.1069104218	-0.6878527413	 0.11955
H	-0.2715433749	 1.9729292223	 1.0703527553	 0.108737
H	 0.5258143207	-0.3712013041	 0.8892498964	 0.103899
H	-1.0311524757	-0.2276850631	 0.0983788032	 0.098008
H	 1.9853277052	-1.9585468	-0.3279793477	 0.113913
H	 1.5009931098	-2.376057789	-2.044291107	 0.105858
H	 1.8379673361	 0.9726352673	-3.3761509477	 0.11033
H	 2.0147422584	-0.7583797651	-3.7772872537	 0.099805
H	-0.8073730045	-1.2167743438	-4.4198427191	 0.112525
H	-1.6561570242	-1.5604078505	-2.843093605	 0.11208
H	-1.7582582647	 0.9160935681	-2.3545938946	 0.116211
H	-0.903338683	 1.2745445057	-3.9221640948	 0.113571
92.5731	127.1227	159.389	189.8958	240.4046	255.406	372.3602	396.3166	459.7107	515.9973	582.1782	619.3478	730.5637	775.9928	797.004	840.4952	858.2879	877.6922	904.6644	936.6482	977.329	996.0151	1015.9038	1046.6232	1054.4042	1077.5497	1091.7031	1097.0565	1121.6602	1131.4207	1187.6988	1191.9733	1197.5934	1266.9155	1283.0368	1320.0975	1322.9356	1392.6664	1405.6126	1410.1853	1462.9764	1474.4694	1491.025	1495.39	1504.7463	1509.3473	1511.2815	3015.4711	3028.5201	3044.2477	3058.9007	3091.5243	3093.1146	3112.3695	3119.6594	3121.7768	3123.7267	3186.4397	3197.1572	3212.3743
CCC12CN1CC21CC1	CC[C@]12CN1CC12CC1	
InChI=1S/C8H13N/c1-2-8-6-9(8)5-7(8)3-4-7/h2-6H2,1H3	InChI=1S/C8H13N/c1-2-8-6-9(8)5-7(8)3-4-7/h2-6H2,1H3/t8-,9?/m1/s1
