19
gdb 76813	2.74797	1.59752	1.33386	2.9819	76.31	-0.2212	0.0489	0.2701	1025.6472	0.157604	-422.872094	-422.863916	-422.862972	-422.904225	32.556	
C	-0.0095196425	 1.5691161584	 0.164078877	-0.427872
C	 0.0704665448	 0.059458312	 0.0297593401	-0.134055
C	 1.1956216773	-0.5965188762	-0.948516066	 0.025621
O	 2.3323854975	 0.1873449368	-1.2038613035	-0.405558
C	 1.347415662	-1.7596327966	 0.110070418	-0.037615
C	 2.0492773626	-1.9441432009	 1.4955084171	-0.006212
C	 2.1906304672	-0.4346017907	 1.6558449224	-0.262044
C	 0.7721104452	-0.7823108179	 1.1059211464	 0.382226
O	 0.6738682785	-1.8497007768	 2.1524759904	-0.385451
H	 0.9715792546	 1.9927156437	 0.3980564256	 0.130222
H	-0.3673247066	 2.0297720051	-0.7644242408	 0.110267
H	-0.7021145567	 1.8571492705	 0.9611636775	 0.131525
H	-0.8953178124	-0.3766625357	-0.2440780225	 0.094054
H	 0.7653306478	-0.9736436215	-1.8847537291	 0.084655
H	 2.078135642	 0.9022737679	-1.796950354	 0.291413
H	 0.6801910576	-2.5853014052	-0.1404285349	 0.086494
H	 2.6692074761	-2.7637870237	 1.8675039	 0.09106
H	 2.1985227124	-0.0826637208	 2.6874874157	 0.101215
H	 2.8808894627	 0.0910831815	 0.9997110005	 0.130056
157.1731	189.7237	201.2858	240.5951	250.8083	267.8374	403.1364	469.1719	508.7536	552.5903	587.87	658.492	694.292	754.0841	803.7741	843.3082	895.0716	935.85	973.604	983.7493	1018.9259	1036.3577	1047.1091	1084.6572	1129.6972	1140.9878	1149.3641	1164.1426	1189.3907	1198.4857	1223.816	1254.9903	1267.6079	1304.0036	1340.8138	1365.8407	1400.4333	1417.8073	1492.0296	1494.3264	1499.5276	3012.3655	3029.5782	3066.7533	3078.3876	3093.9704	3096.4719	3106.5471	3114.3461	3181.5331	3808.8063
CC1C(O)C2C3CC12O3	C[C@H]1[C@@H](O)[C@H]2[C@H]3C[C@@]12O3	
InChI=1S/C7H10O2/c1-3-6(8)5-4-2-7(3,5)9-4/h3-6,8H,2H2,1H3	InChI=1S/C7H10O2/c1-3-6(8)5-4-2-7(3,5)9-4/h3-6,8H,2H2,1H3/t3-,4+,5+,6+,7+/m0/s1
