15
gdb 60711	3.30839	0.69769	0.60459	2.3409	76.13	-0.2619	-0.0456	0.2164	1759.2405	0.108338	-420.558232	-420.548352	-420.547408	-420.595493	33.913	
O	 0.8119408711	 1.5702026667	-0.2232860738	-0.409189
C	 0.1566886951	 0.3751302879	 0.1006312887	-0.113767
C	 0.2704389845	-0.6250417794	-1.0572789421	 0.146581
O	 0.8862518733	-0.3503069562	-2.0543327377	-0.249145
C	 0.6787996589	-0.27625081	 1.3071302093	 0.099342
C	 1.1132072164	-0.8394323638	 2.2773466315	 0.06096
C	 1.6446146783	-1.501635822	 3.4699782157	-0.491782
C	 2.181839389	-2.8375795538	 3.2058269808	 0.312657
C	 2.6225851342	-3.9348416174	 2.9999696717	-0.437512
H	 1.2583903573	 1.3959711486	-1.0681107675	 0.298018
H	-0.9211833886	 0.5690437963	 0.2437433325	 0.124392
H	-0.2296892394	-1.6005843088	-0.9101032727	 0.118371
H	 2.430792381	-0.8716648106	 3.9084094474	 0.17101
H	 0.8582891962	-1.5684381091	 4.2342845237	 0.165528
H	 3.0148028427	-4.9041997882	 2.8149492224	 0.204535
13.0914	49.8911	101.5263	123.6431	204.6966	304.4801	311.8572	322.1557	328.7797	396.9876	436.149	527.0952	589.2323	628.0328	655.4496	713.9891	795.7161	867.4572	932.8757	951.5786	1016.7783	1117.4473	1163.8605	1230.5453	1239.8182	1327.1228	1335.3522	1388.6072	1432.113	1450.1208	1822.6259	2248.9838	2369.072	2951.5338	2969.6537	3011.9284	3037.6476	3506.0454	3680.7857
OC(C=O)C#CCC#C	O[C@@H](C=O)C#CCC#C	
InChI=1S/C7H6O2/c1-2-3-4-5-7(9)6-8/h1,6-7,9H,3H2	InChI=1S/C7H6O2/c1-2-3-4-5-7(9)6-8/h1,6-7,9H,3H2/t7-/m1/s1
