18
gdb 41127	2.8948	2.21527	1.70509	1.9041	80.3	-0.1972	-0.0139	0.1833	855.464	0.149059	-364.65604	-364.649691	-364.648746	-364.686097	27.882	
C	-0.0116329408	 1.5496228496	-0.2008575029	-0.329625
C	 1.5653262756	 1.5305966267	 0.0546028669	-0.339662
C	 1.341642564	 0.2212378549	 0.8744872891	 0.273139
C	 1.0710354841	 0.2533896757	 2.3517295847	-0.154893
C	 0.1355427693	-0.6861976234	 2.5234632407	-0.079708
C	-0.0806458195	-1.2049585178	 1.1221745331	-0.113812
N	 1.3610002933	-1.3663478204	 0.5149309053	-0.203573
C	 0.7553077551	-0.9632286534	-0.8232576124	-0.206648
C	 0.0464462291	 0.0270649675	 0.1097379507	 0.216459
H	-0.5209741925	 2.1233081918	 0.5780978592	 0.118774
H	-0.3686422289	 1.8679544605	-1.1837049418	 0.104533
H	 2.1408270031	 1.4209441652	-0.8651169999	 0.12439
H	 1.9731726059	 2.3687942021	 0.624941096	 0.109688
H	 1.57035076	 0.8785891356	 3.0792304497	 0.106009
H	-0.3406268593	-1.0470352374	 3.4234032449	 0.11081
H	-0.7403920358	-2.0543622262	 0.9335269967	 0.072609
H	 1.4900795123	-0.5873966931	-1.5395879807	 0.097799
H	 0.149583265	-1.7508354078	-1.2809399794	 0.093713
222.2431	300.1385	370.8741	431.7347	469.1382	493.0227	596.6154	667.7956	674.1715	695.9194	723.9217	793.0646	813.972	836.9102	850.2333	901.7589	906.1427	918.8905	937.5883	970.5389	998.7519	1045.9334	1091.9169	1109.9281	1112.0457	1145.6592	1156.5789	1202.0539	1204.4772	1211.6322	1230.58	1246.9513	1262.1422	1297.0648	1338.791	1460.6123	1472.1825	1535.1928	1616.9186	3050.5443	3056.9468	3073.7632	3102.4571	3106.76	3115.8379	3138.504	3220.3983	3250.2007
C1CC23C=CC4N2CC134	C1C[C@]23C=C[C@@H]4N2C[C@]134	
InChI=1S/C8H9N/c1-2-8-4-3-7(8)5-9(8)6(1)7/h1-2,6H,3-5H2	InChI=1S/C8H9N/c1-2-8-4-3-7(8)5-9(8)6(1)7/h1-2,6H,3-5H2/t6-,7-,8-/m0/s1
