15
gdb 29842	3.98482	1.11046	0.87493	8.0098	76.79	-0.2208	-0.0103	0.2105	1251.9493	0.114617	-413.045665	-413.037249	-413.036305	-413.07881	30.357	
C	-0.0396843681	 1.4574636252	 0.0348291529	-0.353904
N	-0.0012185204	 0.0082494099	-0.0062620281	-0.023282
C	 0.0149107043	-0.7912510382	-1.1270121777	-0.198085
C	-0.0034941724	-2.0815652255	-0.6592584351	 0.168647
N	-0.0089177059	-2.1005940117	 0.7264506481	-0.37256
C	-0.0064279837	-0.837469642	 1.0755396347	 0.381474
N	-0.096989292	-0.3500846127	 2.3743321935	-0.605003
C	-0.0087367002	-3.2643495496	-1.4429083745	 0.209977
N	-0.0114289151	-4.2164305141	-2.1023346444	-0.349061
H	 0.9651170718	 1.88840731	 0.1091470829	 0.145088
H	-0.5153158618	 1.8343042793	-0.8722482251	 0.155493
H	-0.6284140937	 1.7719503652	 0.8995985833	 0.164439
H	 0.038477745	-0.3841380911	-2.1235022373	 0.150409
H	-0.1232817399	-1.124699935	 3.0260255076	 0.270733
H	 0.6465075721	 0.2893541303	 2.6300098993	 0.255634
105.2949	122.4771	149.9171	197.4198	268.8268	282.0075	308.2746	434.7141	513.0667	525.7991	608.2757	659.1302	662.5351	715.587	755.9755	804.3158	822.8252	1009.6229	1073.8175	1139.3424	1152.5925	1185.9882	1266.6143	1311.57	1389.1903	1442.03	1487.6559	1508.8185	1511.7055	1572.1382	1592.8213	1656.1147	2347.7622	3036.7729	3110.1163	3145.2491	3282.9376	3527.9646	3623.9639
CN1C=C(N=C1N)C#N	Cn1cc(nc1N)C#N	
InChI=1S/C5H6N4/c1-9-3-4(2-6)8-5(9)7/h3H,1H3,(H2,7,8)	InChI=1S/C5H6N4/c1-9-3-4(2-6)8-5(9)7/h3H,1H3,(H2,7,8)
