17
gdb 81062	2.51978	1.62014	1.18153	6.5874	69.19	-0.2523	0.0078	0.26	1047.2503	0.137764	-455.097082	-455.089239	-455.088295	-455.129595	30.306	
N	 0.0491684784	 1.2639576514	 0.007181232	-0.553224
H	-0.0379318977	 0.3224764935	-0.3591336893	 0.247056
H	 1.676920439	 1.3345167378	 1.3018732403	 0.311585
H	-0.2156891713	 1.9037212319	-0.7327433224	 0.248561
C	-0.7455367968	 1.4752634864	 1.2076653833	-0.00968
C	-1.847133468	 0.5175077598	 1.7785514823	-0.069141
C	-0.7396302959	-0.5285385311	 2.0683178541	-0.247131
C	-0.2082926124	 0.8640515112	 2.534202827	 0.192451
N	-1.563447361	 1.0552762601	 3.174229457	-0.33088
C	 1.1285487466	 1.1938286648	 3.1396195643	 0.295978
O	 2.080541138	 1.3634187658	 2.1936696406	-0.383036
O	 1.3611540128	 1.3005825665	 4.3100593139	-0.322531
H	-0.990459278	 2.5392236887	 1.2900736918	 0.08696
H	-2.8681886677	 0.3455608345	 1.4348828062	 0.089608
H	-0.9565742211	-1.2216856722	 2.8801650097	 0.132871
H	-0.2392368497	-1.0138492935	 1.2294530421	 0.097414
H	-1.7820482251	 2.0569050745	 3.2159527173	 0.213139
74.0855	165.7067	191.4073	260.1252	326.6577	332.864	410.4412	490.642	580.4643	629.6299	706.5455	730.2734	763.3533	784.4076	832.0808	878.8159	885.0014	922.3283	957.4319	982.2444	1034.7432	1090.3691	1103.2784	1135.3402	1160.2223	1173.409	1202.6818	1211.2245	1226.1045	1275.6048	1289.9551	1326.6793	1414.5979	1438.4119	1508.6598	1653.1398	1876.8933	3064.4007	3088.0387	3108.0934	3165.0863	3376.1618	3516.2298	3526.7574	3600.8506
[NH3+]C1C2CC1(N2)C([O-])=O	N[C@H]1[C@H]2C[C@@]1(N2)C(=O)O	
InChI=1S/C5H8N2O2/c6-3-2-1-5(3,7-2)4(8)9/h2-3,7H,1,6H2,(H,8,9)	InChI=1S/C5H8N2O2/c6-3-2-1-5(3,7-2)4(8)9/h2-3,7H,1,6H2,(H,8,9)/t2-,3+,5+/m1/s1
