22
gdb 57415	3.24973	1.02043	0.95274	2.8395	83.08	-0.2215	-0.0207	0.2008	1349.6531	0.190718	-404.34659	-404.336556	-404.335612	-404.381129	38.068	
C	-0.0996346712	 1.5307446717	 0.1975427685	-0.396742
C	 0.0462410206	 0.0033644581	 0.104276346	 0.26181
C	 0.7796303348	-0.524804697	 1.3580064471	-0.419461
C	-1.3458575282	-0.6418338595	 0.0112804271	-0.396742
N	 0.7483342313	-0.291444252	-1.1545548226	-0.092218
C	 1.0560471176	-1.6814618034	-1.5603741754	-0.300975
C	 2.397367635	-1.1570314178	-2.0915046011	 0.399061
O	 3.2741005235	-1.6019747625	-2.7676209703	-0.281606
C	 2.1276634806	 0.1867084054	-1.400208753	-0.300975
H	 0.8769811539	 2.0206400066	 0.269833876	 0.112864
H	-0.6109052489	 1.9196171025	-0.6876008203	 0.120687
H	-0.6762655901	 1.8089683103	 1.084817237	 0.111992
H	 0.2141421027	-0.277935955	 2.2619962586	 0.117795
H	 0.89412855	-1.6131077166	 1.3333285396	 0.113357
H	 1.7738242432	-0.0795031921	 1.4648103439	 0.113357
H	-1.8740497788	-0.2824652397	-0.876393829	 0.120687
H	-1.276026318	-1.7327631864	-0.051956161	 0.112864
H	-1.9426877741	-0.3988210354	 0.895534998	 0.111992
H	 1.2084189192	-2.4020625956	-0.7404833385	 0.116255
H	 0.3691182869	-2.1233178634	-2.290508809	 0.129873
H	 2.2120515846	 1.08950454	-2.0150603096	 0.129873
H	 2.7632677454	 0.3085341318	-0.5080934419	 0.116255
75.8753	83.9332	195.0968	199.9479	246.9061	248.1394	269.0066	322.4919	337.5722	364.9668	437.7786	439.2911	471.5394	524.2382	581.1322	730.0297	784.0291	798.2509	908.7779	925.4538	933.633	953.7595	1016.9406	1032.9667	1055.8512	1060.2878	1098.8725	1116.9143	1118.3313	1171.0768	1236.2456	1243.6339	1262.7399	1286.0851	1301.9161	1392.1881	1396.5797	1424.6557	1459.2464	1477.0655	1478.8727	1487.6016	1491.0899	1499.3625	1504.382	1518.3705	1920.9478	2971.4771	2981.0046	3033.3511	3034.2938	3041.9377	3059.673	3060.1355	3100.7605	3100.9923	3106.0932	3108.3299	3113.7065	3119.872
CC(C)(C)N1CC(=O)C1	CC(C)(C)N1CC(=O)C1	
InChI=1S/C7H13NO/c1-7(2,3)8-4-6(9)5-8/h4-5H2,1-3H3	InChI=1S/C7H13NO/c1-7(2,3)8-4-6(9)5-8/h4-5H2,1-3H3
