19
gdb 69558	2.85081	1.54067	1.36186	3.0287	74.89	-0.2376	0.064	0.3016	1044.3083	0.157471	-422.968643	-422.960392	-422.959448	-423.000869	32.358	
C	-0.1295265292	 1.555647668	 0.0800986969	-0.504985
C	 0.1260787488	 0.0865920242	-0.0059972674	 0.410267
O	-0.7569801552	-0.8038735502	 0.6830189421	-0.267598
C	 0.6415160405	-0.9068520016	 0.964800777	-0.115556
C	 1.3103823677	-1.7282070057	-0.1836729115	 0.448615
C	 2.7631012337	-2.0793440721	-0.0109795785	-0.484583
O	 0.4997308713	-2.7941810648	-0.7179695277	-0.322293
C	-0.088180088	-1.9141565837	-1.7106529388	-0.091103
C	 0.7285117803	-0.7087389827	-1.1997834838	-0.234804
H	 0.7529813475	 2.1234794713	-0.2320114597	 0.124921
H	-0.9619246908	 1.8442463275	-0.5720153513	 0.132701
H	-0.3859508623	 1.8378140394	 1.1046714811	 0.136545
H	 0.9416376939	-0.8155161033	 2.0048899219	 0.095728
H	 2.8678715217	-2.8856893429	 0.7238751843	 0.133517
H	 3.198305875	-2.4192458781	-0.9547760393	 0.127174
H	 3.333321942	-1.2161855588	 0.3490341703	 0.119114
H	 0.1721690918	-2.2385740776	-2.7248844225	 0.096187
H	-1.173988393	-1.8439199225	-1.6035323668	 0.114422
H	 1.359491064	-0.1542502564	-1.8931389961	 0.081731
141.6462	195.9245	207.1779	243.3509	257.5754	293.4649	326.019	355.7754	504.6778	566.8962	582.7008	676.1895	747.56	799.0632	833.1148	881.1559	891.9157	917.9054	962.3691	987.9241	999.0291	1011.5495	1058.8587	1087.9548	1111.3682	1148.4036	1164.4473	1170.2025	1206.8629	1220.9444	1284.829	1324.3766	1349.474	1403.1076	1407.6621	1456.607	1478.8899	1481.5065	1489.7346	1492.1648	1505.376	3028.135	3031.421	3032.947	3092.6189	3094.9489	3098.3883	3114.6757	3121.2136	3125.509	3156.0616
CC12OC1C1(C)OCC21	C[C@]12O[C@H]1[C@@]1(C)OC[C@@H]21	
InChI=1S/C7H10O2/c1-6-4(3-8-6)7(2)5(6)9-7/h4-5H,3H2,1-2H3	InChI=1S/C7H10O2/c1-6-4(3-8-6)7(2)5(6)9-7/h4-5H,3H2,1-2H3/t4-,5+,6+,7-/m1/s1
