19
gdb 105839	2.11327	1.53964	1.20474	2.8745	76.3	-0.2354	-0.0068	0.2286	1137.5866	0.157771	-423.020165	-423.011036	-423.010091	-423.054168	34.007	
C	-0.1835722353	 1.5502057245	-0.1203991159	-0.379625
C	 0.0926092204	 0.0478939949	 0.0444196395	-0.297996
C	 0.7964701752	-0.5332373203	-1.153285025	 0.161936
C	 0.0673615198	-1.0640767077	-2.382480967	 0.064804
O	 0.3490306154	-0.6595587316	-3.6894621276	-0.416065
C	 0.982760771	-2.0035296934	-1.7034228496	-0.17012
C	 2.4339300854	-1.7065324869	-2.1135167798	-0.348523
C	 2.2380832289	-0.2997393832	-1.5067481798	 0.373511
O	 3.0005283572	 0.5817807052	-1.2169240447	-0.326661
H	 0.7514828938	 2.0924675604	-0.2837556882	 0.149191
H	-0.8408811766	 1.7393690106	-0.9762778604	 0.10525
H	-0.668542575	 1.9595409794	 0.7708431652	 0.114246
H	 0.7087329374	-0.1113437013	 0.9378135718	 0.111412
H	-0.8467708289	-0.4926877995	 0.2141906263	 0.09897
H	-0.9932802253	-1.2297427267	-2.1825346685	 0.095953
H	 0.0707474434	 0.2567655015	-3.7902263745	 0.292852
H	 0.644953244	-2.9183339275	-1.2333691011	 0.107093
H	 3.1800459929	-2.2660052596	-1.5426616396	 0.126895
H	 2.6590383562	-1.7641423189	-3.1794528511	 0.136875
68.0197	98.0658	141.5189	200.1888	255.6873	281.6858	295.0075	333.0425	412.0968	464.8591	548.3828	608.0038	672.214	702.4648	780.1891	786.1504	864.8811	883.1666	957.469	982.648	999.0968	1010.5007	1059.427	1064.1089	1098.665	1134.7022	1167.7957	1218.0338	1239.7366	1257.7417	1303.724	1333.2487	1342.3987	1362.9587	1406.5139	1441.9452	1472.5092	1483.5603	1497.4098	1511.3143	1865.5822	3023.0866	3035.5194	3057.2614	3073.1183	3084.6382	3102.4525	3124.8483	3133.5901	3199.428	3812.7546
CCC12C(O)C1CC2=O	CC[C@]12[C@@H](O)[C@H]1CC2=O	
InChI=1S/C7H10O2/c1-2-7-4(6(7)9)3-5(7)8/h4,6,9H,2-3H2,1H3	InChI=1S/C7H10O2/c1-2-7-4(6(7)9)3-5(7)8/h4,6,9H,2-3H2,1H3/t4-,6+,7+/m1/s1
