18
gdb 86580	2.98313	1.16392	0.92061	4.0877	68.37	-0.25	0.0146	0.2646	1261.9885	0.147379	-476.238265	-476.229222	-476.228278	-476.272571	33.08	
C	-0.3531522383	 1.4455202357	 0.015061305	-0.399544
C	 0.0371031086	-0.0255080513	 0.0157432059	 0.028803
N	 1.2547121169	-0.35955545	-0.7912308653	-0.361167
H	 2.0346065978	-2.1227878497	-1.0802196037	 0.302819
H	 1.5363003945	 0.3632291734	-1.4461408453	 0.231008
C	 2.0924121765	-0.4676186416	 0.4290018525	-0.158203
C	 0.7852232867	-0.5112886223	 1.2879417973	 0.106105
O	 0.6880091989	 0.3574648	 2.3778751295	-0.419396
C	 2.9541722221	-1.7199260787	 0.4802117837	 0.413737
O	 2.7178737424	-2.5673790385	-0.5314036729	-0.370489
O	 3.7286312619	-1.9475418436	 1.3725226558	-0.350885
H	 0.4820798504	 2.0847807894	 0.3139802033	 0.129649
H	-0.6864598751	 1.7453359856	-0.9844191724	 0.116785
H	-1.1743993476	 1.6240744274	 0.7145460736	 0.138923
H	-0.8228071559	-0.6401535137	-0.2700166502	 0.088146
H	 2.6970047515	 0.4086849669	 0.6791661143	 0.108517
H	 0.5171056719	-1.5391209425	 1.5620317482	 0.094512
H	 1.1912277068	-0.0156542665	 3.1093272507	 0.300679
53.5891	97.1503	151.8466	218.0191	230.473	259.9431	287.5364	355.7137	388.0336	486.3129	550.8443	638.0611	709.1441	727.7559	808.8668	833.0405	880.0558	925.4417	935.0394	998.7603	1026.2881	1050.9415	1097.5443	1111.5982	1154.0666	1216.4504	1225.9801	1237.2814	1283.6989	1311.8738	1330.5055	1346.6236	1398.2573	1407.8164	1429.0274	1440.7594	1488.4946	1492.9649	1864.9565	3023.7932	3039.0277	3049.3911	3077.3075	3110.1921	3124.7834	3479.9082	3519.7052	3817.1438
CC1[NH2+]C(C1O)C([O-])=O	C[C@H]1N[C@@H]([C@H]1O)C(=O)O	
InChI=1S/C5H9NO3/c1-2-4(7)3(6-2)5(8)9/h2-4,6-7H,1H3,(H,8,9)	InChI=1S/C5H9NO3/c1-2-4(7)3(6-2)5(8)9/h2-4,6-7H,1H3,(H,8,9)/t2-,3+,4+/m1/s1
