18
gdb 93300	2.2407	1.83585	1.12907	4.8441	72.61	-0.2319	-0.0213	0.2106	1072.8812	0.148056	-439.084585	-439.076259	-439.075315	-439.117537	31.754	
O	 0.021198719	 1.3923071445	-0.1715507893	-0.436705
C	 0.0185527742	-0.0140468134	-0.0168514757	 0.015592
C	 0.5856704381	-0.5356729798	 1.3204511656	-0.261821
C	-0.0349664493	-1.9371843918	 1.4689237083	-0.333951
C	-1.4016211535	-1.8299243012	 0.7806794166	 0.364866
O	-2.3205368214	-2.5992526914	 0.8899212558	-0.316715
C	-1.4011035832	-0.5523174971	-0.0223655115	 0.231079
C	-2.5945233458	 0.3474600544	 0.0489577567	-0.267068
N	-2.3113603996	-0.4186527227	-1.166395384	-0.360411
H	 0.9284410527	 1.681760995	-0.3088722522	 0.290159
H	 0.5713333617	-0.4846840283	-0.8486614576	 0.077119
H	 1.6791419509	-0.5392237966	 1.3423335638	 0.097401
H	 0.2336376207	 0.1279754559	 2.1177097752	 0.119554
H	 0.5497770266	-2.6917806154	 0.9263339082	 0.133515
H	-0.1347796229	-2.2895415418	 2.4977234746	 0.13339
H	-3.4569662046	-0.0010592414	 0.6093974992	 0.135725
H	-2.405075142	 1.4153123885	 0.0569999679	 0.139839
H	-1.8675409316	 0.2014509025	-1.8435528814	 0.238433
65.3963	159.9416	228.2358	241.9019	259.7538	278.6255	321.4869	484.5849	490.8939	531.0484	578.7857	638.7078	678.8885	807.7237	847.8083	885.324	918.6719	974.0676	986.2979	1010.0058	1024.6095	1059.0422	1089.8168	1132.8122	1138.5825	1162.2469	1212.1398	1226.8675	1282.5495	1289.819	1304.4193	1326.3137	1343.813	1392.9208	1443.2955	1453.8326	1489.3161	1500.1017	1848.4843	2946.0628	3034.0408	3048.8017	3096.558	3113.3031	3123.0229	3224.1059	3469.4582	3824.6207
OC1CCC(=O)C11CN1	O[C@H]1CCC(=O)[C@]21CN2	
InChI=1S/C6H9NO2/c8-4-1-2-5(9)6(4)3-7-6/h4,7-8H,1-3H2	InChI=1S/C6H9NO2/c8-4-1-2-5(9)6(4)3-7-6/h4,7-8H,1-3H2/t4-,6+/m0/s1
