17
gdb 40541	4.66104	1.05049	0.97223	3.1413	74.85	-0.2396	-0.0117	0.2279	1215.3498	0.13621	-421.787318	-421.779884	-421.778939	-421.819776	28.511	
C	 0.2661840228	 1.4111818521	-0.0436305192	-0.187446
O	 1.1837238924	 0.3398928925	-0.2241543234	-0.230254
C	-0.1962133831	 0.0098733588	 0.0145003184	-0.018959
C	-0.5110889354	-0.6770167383	 1.2804881923	 0.337668
C	-1.4440968519	-1.6263057244	 1.4413020934	-0.22317
C	-1.4073648702	-2.1665055621	 2.8305062868	 0.010926
O	-0.1428342549	-2.7948125993	 3.1561940805	-0.255754
C	-0.3419375255	-1.4341185912	 3.53729067	 0.03471
C	 0.2501505944	-0.4142790555	 2.57167462	-0.346926
H	 0.384347082	 1.9824528792	 0.8755314293	 0.116123
H	 0.048111966	 2.0018830041	-0.9327169915	 0.119715
H	-0.7152012491	-0.376307328	-0.8628100047	 0.094221
H	-2.1050595242	-1.9971014602	 0.6671608325	 0.100697
H	-2.2756739206	-2.60348836	 3.3134630829	 0.097669
H	-0.3520230267	-1.2438493296	 4.6071127913	 0.096449
H	 1.3284242883	-0.5463774506	 2.435563815	 0.144865
H	 0.093124366	 0.6080270826	 2.9388907166	 0.109466
63.6057	131.4896	182.5517	286.975	362.7614	410.1351	519.6167	535.3859	634.6058	718.8387	812.5091	830.8117	847.872	849.9997	876.3352	910.8183	928.2308	964.2248	984.3323	1022.0377	1030.9351	1095.8033	1108.6077	1147.9383	1168.071	1179.0308	1203.5462	1253.3335	1272.3579	1285.019	1311.9146	1365.0033	1401.7131	1422.7586	1461.3335	1521.3374	1684.784	3030.6784	3082.3153	3085.3272	3111.4573	3148.4482	3167.882	3170.799	3205.6633
C1OC1C1=CC2OC2C1	C1O[C@H]1C1=C[C@H]2O[C@H]2C1	
InChI=1S/C7H8O2/c1-4(7-3-8-7)2-6-5(1)9-6/h1,5-7H,2-3H2	InChI=1S/C7H8O2/c1-4(7-3-8-7)2-6-5(1)9-6/h1,5-7H,2-3H2/t5-,6+,7-/m1/s1
