21
gdb 119380	3.09714	1.06998	0.93266	1.5013	80.05	-0.2457	0.0818	0.3275	1360.2638	0.181581	-424.170995	-424.161833	-424.160888	-424.205298	34.701	
C	-0.1611170555	 1.4696559177	 0.0450528043	-0.386152
C	-0.031793027	-0.0434706582	 0.042632772	-0.063317
O	-1.3388835914	-0.6006887138	 0.0070471618	-0.299214
C	-1.3805430376	-1.9724684276	 0.0136804406	 0.435837
C	-0.8834061281	-2.9716967411	-1.0847260982	-0.298494
C	-1.5530216677	-3.8382329582	 0.0148268956	-0.114238
C	-0.8165303308	-2.9767896672	 1.0812257012	-0.295532
C	-2.6972908541	-2.7708800263	 0.0312363907	 0.095117
O	-3.4876302118	-2.6092988594	 1.1789793421	-0.442936
H	 0.8281742281	 1.9362339866	 0.074659563	 0.11305
H	-0.6806000512	 1.8121262336	-0.8543931378	 0.126621
H	-0.7303992438	 1.8036044742	 0.9169958945	 0.129993
H	 0.5468125426	-0.3826027618	-0.8303990689	 0.092099
H	 0.4990181926	-0.3895552965	 0.9423796352	 0.096273
H	-1.3812471798	-2.9237819706	-2.0575449432	 0.090801
H	 0.1972738122	-3.0874429553	-1.1867369314	 0.095932
H	-1.6620929436	-4.9204349767	 0.0100202244	 0.076155
H	 0.2693699151	-3.092498932	 1.121318333	 0.085561
H	-1.2686476305	-2.9336627722	 2.0708575985	 0.113076
H	-3.2956097487	-2.708110111	-0.887854958	 0.063879
H	-4.190711199	-3.2652532745	 1.1538135906	 0.285487
68.9515	71.5894	134.6436	242.6863	247.2585	266.4512	309.8493	343.6321	407.1971	476.0969	532.9632	628.08	680.0408	776.4857	819.2779	828.1176	887.9463	909.8376	938.0765	949.2743	974.5099	1012.7077	1045.0666	1074.8787	1083.477	1124.1159	1132.4937	1145.1353	1157.4664	1187.2831	1191.9816	1206.4084	1214.7242	1240.0838	1291.245	1297.3676	1329.6698	1401.4364	1425.7987	1446.4266	1483.9489	1488.7838	1500.4796	1525.4465	1538.6891	2980.0183	3011.2012	3012.6855	3045.1297	3055.3024	3070.3754	3118.9999	3123.2382	3125.6595	3141.8919	3156.8895	3825.5192
CCOC12CC(C1)C2O	CCO[C@@]12C[C@@H](C1)[C@H]2O	
InChI=1S/C7H12O2/c1-2-9-7-3-5(4-7)6(7)8/h5-6,8H,2-4H2,1H3	InChI=1S/C7H12O2/c1-2-9-7-3-5(4-7)6(7)8/h5-6,8H,2-4H2,1H3/t5-,6-,7-/m1/s1
