14
gdb 61110	2.43221	1.2636	1.02988	4.8326	73.76	-0.2856	-0.0115	0.2741	1167.9309	0.096215	-399.47347	-399.463751	-399.462807	-399.508008	34.773	
O	-0.0976102172	 1.4169745417	 0.0497718051	-0.424888
C	-0.0502003208	-0.0036047185	-0.0109503639	-0.048374
C	-1.433301371	-0.4923073516	-0.0505441759	 0.392151
C	-2.5525479625	-0.9233711038	-0.056012835	-0.451086
C	 0.6886361702	-0.4570679363	-1.2008033244	 0.293133
C	 1.3474168369	-0.7941031919	-2.146863294	-0.426604
C	 0.6785192712	-0.5737942804	 1.2551901987	-0.360178
C	 0.0706072671	-0.1220932491	 2.5024803572	 0.278226
N	-0.3899994738	 0.2222573166	 3.5038339486	-0.300398
H	 0.7651297077	 1.7508087523	-0.2234751065	 0.294984
H	-3.5493715327	-1.2914326523	-0.0635980822	 0.214388
H	 1.906820574	-1.0966941454	-2.9984294447	 0.213625
H	 0.6718287901	-1.6669239269	 1.2162522992	 0.170517
H	 1.7234501808	-0.2481988544	 1.2229714177	 0.154504
70.2251	111.8749	123.9707	175.1699	194.0149	227.1224	267.3129	356.953	397.0709	443.9599	489.2439	512.2586	550.9942	616.135	657.726	664.561	683.7382	686.942	746.3193	900.2942	947.9214	1041.7656	1067.9696	1086.7225	1228.3306	1316.5467	1390.7495	1454.123	2237.4902	2252.7206	2370.5864	3058.3469	3107.0387	3496.2226	3499.3709	3801.7208
OC(C#C)(C#C)CC#N	OC(C#C)(C#C)CC#N	
InChI=1S/C7H5NO/c1-3-7(9,4-2)5-6-8/h1-2,9H,5H2	InChI=1S/C7H5NO/c1-3-7(9,4-2)5-6-8/h1-2,9H,5H2
