16
gdb 15590	3.66482	1.71479	1.32603	3.4561	64.69	-0.2581	0.0264	0.2845	913.8817	0.132692	-379.928435	-379.920787	-379.919843	-379.960806	27.734	
N	-0.1361699542	 1.5093773719	 0.4550163218	-0.512038
C	-0.0264473834	 0.1096642166	 0.0548225613	-0.036747
C	 0.7203750919	-0.6939494619	 1.1470480683	-0.066336
O	-0.2502177884	-1.4156749713	 1.9041938011	-0.253391
C	-1.536521219	-0.9165925905	 1.5966618822	-0.077062
C	-1.4300111752	-0.5581794313	 0.0995068135	-0.14537
C	-2.5036348695	 0.2763891207	-0.4183264707	 0.268105
N	-3.3490044327	 0.9441669526	-0.8378300792	-0.332314
H	 0.7870180982	 1.9202227114	 0.547872072	 0.235018
H	-0.6319688663	 2.0463158363	-0.2506659278	 0.247411
H	 0.4358798799	-0.0426450022	-0.931247071	 0.078431
H	 1.4210358145	-1.4194614807	 0.7201236485	 0.109325
H	 1.2788803398	-0.0068260837	 1.7963681962	 0.104538
H	-2.2689254687	-1.6999019695	 1.8035592248	 0.124562
H	-1.78235189	-0.0188584448	 2.1787672341	 0.12553
H	-1.3997932468	-1.4866670536	-0.4808769251	 0.130337
61.0463	144.7034	152.2687	255.559	291.8277	385.8391	395.5677	517.3493	541.3648	646.3214	717.2523	830.2266	859.4033	900.3205	950.6117	1003.1968	1019.7108	1047.5685	1073.8851	1123.0381	1137.7351	1205.2321	1235.2359	1250.363	1292.4652	1314.8145	1340.3567	1366.5277	1390.0853	1411.5341	1504.4767	1517.4246	1659.2476	2357.074	2985.9034	3014.336	3025.8041	3060.7347	3068.942	3111.9398	3498.4855	3579.0932
NC1COCC1C#N	N[C@H]1COC[C@H]1C#N	
InChI=1S/C5H8N2O/c6-1-4-2-8-3-5(4)7/h4-5H,2-3,7H2	InChI=1S/C5H8N2O/c6-1-4-2-8-3-5(4)7/h4-5H,2-3,7H2/t4-,5+/m1/s1
