16
gdb 107609	2.73575	1.54681	1.12177	4.6196	64.54	-0.2471	0.0044	0.2515	1059.7889	0.125187	-475.02924	-475.021224	-475.02028	-475.061963	29.549	
O	 0.4179799026	 0.0348536367	 1.0394164677	-0.4284
C	-0.2059822238	 0.4039791751	-0.1814665639	-0.195247
C	-1.5136809594	-0.3345019493	-0.26081631	 0.164485
N	-2.3353324083	-0.5559896624	 0.9587199037	-0.368816
C	-1.7894227048	-1.70607795	 0.2171494709	-0.117851
C	-2.8221561071	-2.2866120345	-0.7274097779	-0.081326
O	-3.186277603	-1.2174458577	-1.6257581579	-0.235128
C	-2.392612202	-0.1256921863	-1.463199529	 0.452384
O	-2.410650846	 0.8140284895	-2.206306612	-0.355993
H	 1.1677668845	 0.6172699977	 1.1881415681	 0.301567
H	-0.4085235151	 1.4832988711	-0.2298993874	 0.125177
H	 0.4183133793	 0.1462333573	-1.0497906242	 0.11338
H	-1.7098588857	-0.3695999124	 1.743552657	 0.250682
H	-1.0250901327	-2.3301421107	 0.6637122235	 0.120312
H	-2.4167557697	-3.1111907582	-1.3231459027	 0.120582
H	-3.7279228986	-2.6162791058	-0.211845126	 0.134193
100.1765	150.0884	180.6656	213.8844	239.5452	302.8332	351.1459	442.0189	551.6866	609.8024	692.2247	726.417	792.175	852.8675	882.3671	923.9053	989.5145	1024.8568	1055.2322	1062.7208	1088.4944	1103.5436	1135.8621	1183.7604	1219.2389	1236.7298	1253.1305	1328.2984	1357.1618	1402.4092	1437.0438	1475.4066	1504.0268	1518.6607	1874.4202	2992.1493	3027.8171	3049.5562	3104.5335	3195.9114	3471.6366	3846.9968
OCC12NC1COC2=O	OC[C@]12N[C@H]1COC2=O	
InChI=1S/C5H7NO3/c7-2-5-3(6-5)1-9-4(5)8/h3,6-7H,1-2H2	InChI=1S/C5H7NO3/c7-2-5-3(6-5)1-9-4(5)8/h3,6-7H,1-2H2/t3-,5-/m0/s1
