18
gdb 43665	5.44521	0.75115	0.71981	2.4091	74.19	-0.2653	0.0242	0.2895	1560.047	0.147243	-439.061108	-439.052638	-439.051694	-439.095457	30.876	
N	 0.0912396162	 0.7697695416	 1.2630823516	-0.536506
C	-0.011804771	-0.0879850513	 0.356388921	 0.442118
C	-1.1664022545	-0.7199697945	-0.3922294514	-0.383357
C	-0.0572486436	-1.5138906757	-1.1154559231	 0.131254
C	 0.1376496292	-1.2856251567	-2.6026633085	-0.254899
C	 1.4522735289	-1.8404591118	-3.1021919222	 0.097341
C	 1.560679979	-3.1849035798	-3.6846413576	-0.176071
O	 1.5715754874	-2.0206902716	-4.5127658545	-0.235127
O	 0.9580753622	-0.8084649306	-0.3147790002	-0.267753
H	 1.0681768962	 0.9312401079	 1.5136276712	 0.229327
H	-1.8521892933	-1.2999483804	 0.2267377527	 0.139839
H	-1.7346858543	-0.0297933093	-1.0189909967	 0.139087
H	-0.0276295093	-2.5797357836	-0.8681180535	 0.096534
H	-0.6864836408	-1.7589229874	-3.1494927991	 0.11578
H	 0.0921454448	-0.2092737177	-2.8099283995	 0.117724
H	 2.3384065056	-1.4187198123	-2.627868697	 0.112701
H	 2.5024241004	-3.7283952657	-3.6266900287	 0.120427
H	 0.6707008869	-3.8082792011	-3.7690777945	 0.111581
58.8588	64.2032	111.852	148.1331	302.4542	338.2697	415.2925	458.4564	490.4109	510.3883	717.227	818.8506	830.7148	864.3247	869.4518	877.3507	932.6695	944.4447	990.3342	1017.3675	1041.302	1077.18	1096.946	1125.3189	1156.9355	1162.2045	1181.2896	1220.018	1237.91	1247.7469	1284.5439	1303.6716	1348.3914	1404.5588	1442.104	1465.2169	1472.5006	1530.0569	1828.8729	3030.9912	3059.134	3079.6385	3081.6254	3086.6631	3118.0004	3142.4263	3168.1113	3477.9197
N=C1CC(CC2CO2)O1	[NH][C]1C[C@@H](C[C@H]2CO2)O1	
InChI=1S/C6H9NO2/c7-6-2-4(9-6)1-5-3-8-5/h4-5,7H,1-3H2	InChI=1S/C6H9NO2/c7-6-2-4(9-6)1-5-3-8-5/h4-5,7H,1-3H2/t4-,5+/m1/s1
