21
gdb 120884	4.76769	0.79303	0.74889	1.7325	79.87	-0.2482	0.082	0.3302	1575.0692	0.18101	-424.177992	-424.168445	-424.167501	-424.212682	35.378	
C	 0.0046891385	 1.3811661616	-0.0167193337	-0.223398
O	 0.1289785737	-0.0191219041	-0.0264169833	-0.232101
C	 0.5777134959	-0.5430365956	 1.2068550419	-0.069605
C	 0.6825288074	-2.0497035128	 1.0697447019	 0.010229
C	 1.7810787575	-2.6428359495	 0.1204959112	-0.311375
C	 2.3230632731	-3.4518752115	 1.3072041837	 0.407741
O	 2.704389812	-4.7806162236	 1.2334157989	-0.46429
C	 2.7540044463	-2.546897304	 2.42273508	-0.34378
C	 1.2774851848	-2.8525135095	 2.2360566131	-0.141399
H	 0.9668791755	 1.8777376579	 0.1891503261	 0.100394
H	-0.3446840155	 1.6876614012	-1.0059777812	 0.125209
H	-0.7219962659	 1.7234100515	 0.7377993776	 0.10149
H	 1.551611678	-0.0998114576	 1.4761512856	 0.080175
H	-0.1272916221	-0.2822378913	 2.0162094212	 0.082801
H	-0.300931972	-2.4381977481	 0.7912637248	 0.085785
H	 1.3535425552	-3.2800055677	-0.6556699618	 0.111263
H	 2.4696020721	-1.9283353558	-0.3427444498	 0.091456
H	 3.6492954334	-4.8140241786	 1.0478832952	 0.283878
H	 3.1982241762	-3.0675438604	 3.265496993	 0.11204
H	 3.1673136208	-1.5587910275	 2.2345093514	 0.102595
H	 0.7081699251	-3.3302376346	 3.0241758243	 0.090894
68.0511	94.4633	112.5894	170.0572	230.0532	247.939	307.7883	315.6161	401.9518	411.7145	461.5829	515.496	620.119	703.9109	841.5691	850.1406	910.9164	912.0713	956.6466	970.026	992.6216	1018.1978	1061.519	1070.9221	1089.1578	1104.1791	1153.5167	1173.3756	1193.1573	1216.8996	1223.0055	1235.949	1255.0918	1265.1764	1292.3902	1316.3527	1360.5969	1400.6494	1430.7442	1477.9102	1480.8283	1484.5455	1500.9132	1507.2231	1525.5135	2943.3979	2965.9768	2973.4397	3006.6572	3048.432	3069.3123	3106.8969	3110.0621	3119.8586	3184.3197	3200.496	3792.1181
COCC1CC2(O)CC12	COC[C@H]1C[C@@]2(O)C[C@@H]12	
InChI=1S/C7H12O2/c1-9-4-5-2-7(8)3-6(5)7/h5-6,8H,2-4H2,1H3	InChI=1S/C7H12O2/c1-9-4-5-2-7(8)3-6(5)7/h5-6,8H,2-4H2,1H3/t5-,6+,7-/m1/s1
