17
gdb 44014	4.3944	1.54848	1.34474	2.966	76.47	-0.2355	-0.0131	0.2224	943.8908	0.137985	-384.627796	-384.621611	-384.620667	-384.658146	26.155	
O	-0.0403688225	 0.0046494174	-0.0014373269	-0.317222
C	 0.0145466214	 1.203062829	-0.0044158732	 0.416972
C	-1.205403383	 2.1984287794	-0.0666929734	-0.476725
C	-0.3718614016	 3.4548891434	-0.0333332992	 0.332783
C	-0.2331624991	 4.9908382957	-0.0340812892	-0.35176
C	 1.2370210441	 4.4567119109	 0.0377790114	-0.08887
C	 0.8255798373	 3.2782585532	 0.9657136361	-0.050389
C	 1.2605937961	 2.1029531936	 0.0500528707	-0.185967
C	 0.914194879	 3.2693468306	-0.9135562358	-0.050385
H	-1.7814395079	 2.0370846823	-0.9828914103	 0.125857
H	-1.8651973107	 2.0455014446	 0.7926986437	 0.125853
H	-0.5216408937	 5.5145951481	-0.9509027919	 0.101442
H	-0.6064004129	 5.5231263008	 0.8465238785	 0.101442
H	 2.1576816693	 5.03889347	 0.078430969	 0.07847
H	 0.7384092967	 3.2873611702	 2.053353373	 0.080693
H	 2.2257055442	 1.6011775797	 0.0979383371	 0.077111
H	 0.9297542133	 3.2681196212	-2.0046101198	 0.080694
129.4614	336.7359	356.8756	397.7885	496.7111	578.8393	617.532	704.1254	739.0956	763.9303	794.8648	846.0766	854.0852	877.9403	916.9519	937.2495	975.5645	975.6754	998.573	1044.3237	1058.5847	1071.1813	1126.3407	1142.3856	1150.0313	1170.3021	1182.7283	1187.848	1190.9607	1217.3441	1229.6364	1277.8063	1306.7708	1319.9321	1472.2265	1509.6226	1861.7616	3041.4062	3055.6184	3098.3855	3099.6445	3100.857	3102.7996	3115.8545	3136.0652
O=C1CC23CC4C2C1C34	O=C1C[C@@]23C[C@H]4[C@@H]2[C@@H]1[C@@H]34	
InChI=1S/C8H8O/c9-4-2-8-1-3-6(8)5(4)7(3)8/h3,5-7H,1-2H2	InChI=1S/C8H8O/c9-4-2-8-1-3-6(8)5(4)7(3)8/h3,5-7H,1-2H2/t3-,5+,6+,7-,8-
