21
gdb 105780	2.17299	1.46733	1.11849	2.2997	78.31	-0.2376	-0.0262	0.2113	1203.2363	0.181342	-424.250549	-424.240976	-424.240031	-424.28577	34.782	
C	-0.2471315359	 1.6156517004	-0.0805372947	-0.400575
C	-0.0952262712	 0.09148388	-0.1050078496	-0.220643
C	 0.7716389582	-0.4417128737	-1.2613417797	 0.305726
C	 0.8341902936	-1.9824232411	-1.3089648777	-0.280138
C	 0.8428543801	-2.2764418035	-2.815765284	-0.233908
C	-0.038923705	-1.1464111949	-3.3522777114	-0.070119
O	 0.2323026567	-0.0162813351	-2.523410676	-0.307788
C	 2.1787342103	 0.1608477579	-1.1679254147	 0.131336
O	 3.0415286106	-0.2412624056	-0.4307283563	-0.263053
H	 0.7084087778	 2.1171606824	 0.1066975469	 0.122144
H	-0.639159023	 1.9772732897	-1.0346968069	 0.137009
H	-0.9367549761	 1.9202238512	 0.7119462146	 0.1154
H	 0.3441041184	-0.2657472328	 0.8340821576	 0.115146
H	-1.0821533166	-0.3768022621	-0.1979719729	 0.099331
H	 1.71164523	-2.3530893433	-0.7765679221	 0.131586
H	-0.0585751162	-2.4062195744	-0.8371672433	 0.101027
H	 1.8575246497	-2.1908973265	-3.2193087526	 0.114345
H	 0.4609851644	-3.2688208373	-3.0662023252	 0.106949
H	 0.1781307571	-0.8692616733	-4.3883333777	 0.109506
H	-1.1043620937	-1.4152213288	-3.2866270898	 0.094277
H	 2.3400488807	 1.0168144408	-1.8594015245	 0.092442
43.5952	71.9826	102.2264	179.9839	215.0498	236.9366	280.2891	323.1348	386.1163	405.5844	546.9342	583.3173	670.3051	763.5897	775.3444	870.8854	892.5608	920.0238	930.3379	946.7461	992.289	1002.3172	1056.9714	1069.0088	1089.3858	1138.8296	1167.1398	1188.5778	1218.4885	1235.2567	1261.8824	1317.0659	1322.8724	1337.8746	1364.4629	1387.5554	1396.6399	1410.132	1472.2997	1490.5316	1499.2926	1501.1608	1507.9899	1528.2631	1827.2453	2896.3328	2986.3096	3029.4985	3039.7362	3048.7855	3054.4586	3071.2508	3078.5224	3105.1002	3110.9033	3124.5957	3126.0142
CCC1(CCCO1)C=O	CC[C@]1(CCCO1)C=O	
InChI=1S/C7H12O2/c1-2-7(6-8)4-3-5-9-7/h6H,2-5H2,1H3	InChI=1S/C7H12O2/c1-2-7(6-8)4-3-5-9-7/h6H,2-5H2,1H3/t7-/m0/s1
