17
gdb 55132	2.55081	1.54675	1.15512	6.7799	68.59	-0.2205	0.0226	0.243	1068.0588	0.136842	-455.11651	-455.108348	-455.107404	-455.149366	31.423	
N	-0.1908560567	 1.0886845916	-0.065057663	-0.61077
H	-0.0870293847	 0.0944341604	-0.2425261409	 0.242909
H	 0.6757961813	 1.5536432261	-0.3073314958	 0.246071
H	-2.1374399081	 2.0397111877	-0.4574676341	 0.307556
C	-0.6178697174	 1.3758139787	 1.2656517263	 0.27135
C	-0.0281982917	 2.4631546528	 2.1214818022	-0.301465
C	-0.2635964638	 1.1124370298	 2.738703837	-0.076843
N	-1.6946475287	 1.0586208299	 3.113038337	-0.314969
C	-2.0726231489	 1.1224591336	 1.668202827	-0.159665
C	-3.0916701374	 2.1536448802	 1.2071012151	 0.423018
O	-3.9549862316	 2.6430061938	 1.8763218929	-0.320567
O	-2.9418612094	 2.4639020824	-0.1053692567	-0.383796
H	 1.0107535103	 2.6816034248	 1.8869605642	 0.108966
H	-0.615565473	 3.315992081	 2.4535334656	 0.138406
H	 0.496445666	 0.5215133248	 3.2351052114	 0.101509
H	-1.9504977562	 0.1610990606	 3.5099939984	 0.227384
H	-2.3946634401	 0.1436239018	 1.2859082335	 0.100907
76.6452	130.5813	157.2813	284.0044	303.8328	366.6623	420.3913	429.8993	491.2347	553.0942	649.2206	715.2832	722.6293	760.3117	820.2619	831.8147	858.5843	903.8822	950.1398	957.8367	1008.3253	1019.9901	1060.0932	1073.9232	1108.2623	1157.1424	1185.2893	1202.5215	1262.1855	1310.8211	1355.6722	1369.0272	1398.1064	1410.1668	1490.8513	1648.3441	1884.3377	3009.8296	3104.3515	3188.3134	3196.5647	3502.5381	3532.9962	3597.3634	3605.9752
[NH3+]C12CC1NC2C([O-])=O	N[C@]12C[C@H]1N[C@H]2C(=O)O	
InChI=1S/C5H8N2O2/c6-5-1-2(5)7-3(5)4(8)9/h2-3,7H,1,6H2,(H,8,9)	InChI=1S/C5H8N2O2/c6-5-1-2(5)7-3(5)4(8)9/h2-3,7H,1,6H2,(H,8,9)/t2-,3+,5-/m1/s1
