19
gdb 40225	2.2632	1.96	1.30271	1.104	74.95	-0.2322	0.0831	0.3153	1025.0871	0.158886	-422.989571	-422.981591	-422.980647	-423.022353	31.28	
C	-0.0867518875	 1.623396	 0.1273497801	-0.323243
C	 1.2259348775	 0.8575183871	 0.0219738587	-0.337681
C	-0.0788063424	 0.1338212394	-0.0353028683	 0.39442
O	-0.474817665	-0.63948576	 1.0843275262	-0.309074
C	-1.2369563322	-1.7255560592	 0.5877787036	 0.009653
O	-1.6924413807	-1.3622904935	-0.6934956538	-0.273482
C	-0.6245426916	-0.6114226093	-1.2273252884	 0.339169
C	-0.7501535552	-0.1105656047	-2.619036337	-0.346664
C	 0.2230836435	-1.2376531086	-2.3050779999	-0.330654
H	-0.3641563529	 2.0034658812	 1.1041398474	 0.124457
H	-0.3969581357	 2.2391081342	-0.7101490981	 0.115548
H	 1.8123978731	 0.956130236	-0.8864538492	 0.113373
H	 1.8113605111	 0.739221665	 0.9266440086	 0.127345
H	-0.6075488494	-2.6311043391	 0.53769186	 0.087259
H	-2.1017858685	-1.898189337	 1.2352930935	 0.117317
H	-1.6609251325	-0.3639172781	-3.149603453	 0.131866
H	-0.3490625043	 0.8706099936	-2.8516011985	 0.119272
H	 1.2859937153	-1.0237658	-2.3253757078	 0.117974
H	-0.0541715825	-2.2354135671	-2.6259123542	 0.123146
47.3563	169.8296	213.4037	221.7025	305.8992	359.3716	413.5952	510.0022	564.2367	573.4629	740.8189	761.5059	766.4178	842.5797	873.1218	880.8532	905.78	953.6425	969.4827	980.1843	1000.6841	1030.3447	1049.5627	1055.0505	1072.7156	1079.0691	1108.4567	1169.8683	1178.3941	1187.3279	1190.0763	1233.6053	1260.0552	1325.7167	1417.1456	1431.9084	1447.0525	1452.629	1495.3227	1509.0812	1544.9886	2948.9404	3081.6504	3126.3724	3131.8274	3133.339	3136.7115	3213.4689	3217.7423	3228.1391	3232.3631
C1CC11OCOC11CC1	C1CC21OCOC12CC1	
InChI=1S/C7H10O2/c1-2-6(1)7(3-4-7)9-5-8-6/h1-5H2	InChI=1S/C7H10O2/c1-2-6(1)7(3-4-7)9-5-8-6/h1-5H2
