13
gdb 12169	3.8287	1.54049	1.19585	1.6869	62.98	-0.2689	0.001	0.2699	956.8018	0.093577	-398.548468	-398.540643	-398.539699	-398.580903	27.972	
O	 0.3274467854	 1.1337494727	 0.4342314352	-0.412151
C	 0.2143360869	-0.1856857922	 0.0129509211	 0.008754
C	-1.2052361828	-0.821632274	-0.2224114352	-0.089476
O	-0.7709630349	-1.2099210924	-1.5796431834	-0.256295
C	 0.4094043534	-0.5104900773	-1.457642004	 0.376454
N	 1.2735127875	-0.1891466392	-2.3057616247	-0.535564
C	-1.610992379	-1.9409150752	 0.592340929	 0.31921
C	-1.9312093837	-2.8590899844	 1.2981508539	-0.426332
H	 0.2611701442	 1.7080153668	-0.3368489088	 0.300898
H	 0.8147577399	-0.8145728121	 0.6753996063	 0.139175
H	-1.9883675811	-0.0608940927	-0.2955682213	 0.126093
H	 1.0395123809	-0.5346687904	-3.2381856212	 0.23687
H	-2.2208320668	-3.6729538396	 1.9166603831	 0.212365
80.9222	134.3575	152.8404	215.9149	275.51	358.8169	412.7322	480.1638	559.0766	632.8857	677.9752	687.4107	722.8271	871.8856	883.5682	912.2855	984.2574	1019.1939	1056.6128	1145.7483	1185.837	1221.646	1276.7035	1322.0177	1365.7712	1425.4229	1827.5781	2241.4396	3067.6112	3089.7248	3477.6478	3500.8567	3808.213
OC1C(OC1=N)C#C	O[C@H]1[C@@H](O[C]1[NH])C#C	
InChI=1S/C5H5NO2/c1-2-3-4(7)5(6)8-3/h1,3-4,6-7H	InChI=1S/C5H5NO2/c1-2-3-4(7)5(6)8-3/h1,3-4,6-7H/t3-,4-/m0/s1
