16
gdb 56783	2.91154	1.33374	1.09217	2.9489	68.61	-0.2573	0.0052	0.2625	1108.5402	0.123419	-437.839713	-437.831378	-437.830434	-437.873024	30.702	
O	 0.293304399	 1.5466978428	 0.005104031	-0.396702
C	 0.1421293083	 0.1419812112	 0.0374225304	-0.136803
C	 0.6737294065	-0.494038349	-1.1894456777	 0.26694
N	 1.1193600212	-0.9813993644	-2.1375842017	-0.326575
C	 0.7737960847	-0.4892993636	 1.2500096107	 0.473946
C	 2.2378956355	-0.7490152496	 1.4668729331	-0.35039
C	 1.2398398985	-1.8839329235	 1.5970245448	-0.185792
C	 0.4266997888	-1.6869302869	 2.872017009	-0.094111
O	 0.1022850872	-0.3157085164	 2.4975145878	-0.32942
H	 1.2314072469	 1.745239086	 0.1136598433	 0.296311
H	-0.9383925332	-0.0340047941	 0.0752669583	 0.151608
H	 2.8528887021	-0.8018120792	 0.5739285454	 0.14204
H	 2.7197356594	-0.3336555095	 2.3474202408	 0.126122
H	 1.2859837811	-2.7770223254	 0.9896764777	 0.126815
H	-0.4826816137	-2.2949415348	 2.9161777785	 0.120449
H	 0.9598988676	-1.7393838335	 3.8274637286	 0.115564
61.9197	119.0016	168.8117	212.8531	295.2102	310.9651	379.4305	412.2674	426.8986	526.3074	596.4237	734.5206	761.7898	855.8861	888.2847	953.2228	958.277	977.4225	999.0399	1009.7447	1027.7098	1070.4382	1078.8864	1128.8035	1144.2991	1173.9461	1260.6461	1280.7235	1311.9966	1349.9783	1387.6902	1421.1856	1477.7359	1519.1165	2355.863	3036.4314	3067.707	3088.9555	3119.661	3212.6308	3219.182	3792.7888
OC(C#N)C12CC1CO2	O[C@@H](C#N)[C@]12C[C@H]1CO2	
InChI=1S/C6H7NO2/c7-2-5(8)6-1-4(6)3-9-6/h4-5,8H,1,3H2	InChI=1S/C6H7NO2/c7-2-5(8)6-1-4(6)3-9-6/h4-5,8H,1,3H2/t4-,5-,6-/m0/s1
