23
gdb 122424	5.05844	0.59675	0.56829	1.5849	84.27	-0.2489	0.0776	0.3266	2023.4173	0.204049	-425.408393	-425.397948	-425.397004	-425.444969	37.636	
C	-0.1102903837	 1.4596163659	-0.1876862738	-0.38401
C	-0.0442415245	-0.0438059105	 0.0224036027	-0.023264
O	-1.3565224793	-0.5635385203	-0.0172027314	-0.246516
C	-1.4127890776	-1.9619534991	 0.1649745873	-0.067263
C	-2.8584606989	-2.4026953487	 0.0878090991	 0.019693
C	-3.5806447035	-2.341740713	-1.2872988951	-0.236731
C	-4.2557899662	-3.6839268245	-0.9462449358	 0.145126
O	-4.3555074858	-4.5714649333	-2.0352687177	-0.430884
C	-3.1595786114	-3.927062455	 0.130706644	-0.291455
H	 0.8937871549	 1.8936862748	-0.1631425937	 0.112763
H	-0.5660344076	 1.691525437	-1.154498597	 0.126448
H	-0.7118031557	 1.9301903217	 0.5952965441	 0.125174
H	 0.5767235738	-0.5164052578	-0.7581130369	 0.083602
H	 0.4290533833	-0.2786195185	 0.9916137628	 0.082212
H	-0.8194018679	-2.4758442199	-0.6124340447	 0.078911
H	-0.976320024	-2.2423585657	 1.1407247668	 0.080386
H	-3.4332026384	-1.8675415036	 0.8501908342	 0.077375
H	-4.2163048173	-1.4827786288	-1.507836633	 0.101643
H	-2.8729400673	-2.4861818315	-2.1098717588	 0.108676
H	-5.2356300368	-3.5241108058	-0.4727671585	 0.064329
H	-4.7987137882	-5.3714015709	-1.735166704	 0.280191
H	-2.3393211365	-4.5068978911	-0.3056705557	 0.102583
H	-3.4506942714	-4.3735050414	 1.0850063851	 0.09101
45.1333	65.6654	89.0774	117.7983	157.8356	245.4171	262.1029	281.5031	316.1633	374.0472	418.5575	466.808	488.4367	619.2027	801.3777	810.4425	821.8338	897.5664	905.9981	947.8102	956.8436	1024.0544	1026.1245	1068.1657	1085.9235	1121.7945	1144.8379	1161.8906	1181.1951	1186.6337	1212.059	1219.863	1250.1735	1261.6138	1267.7531	1291.2477	1298.3457	1329.0985	1357.968	1391.4598	1407.5632	1430.8248	1453.5819	1469.6424	1483.2868	1498.0889	1500.2436	1512.6635	1535.7651	2933.2505	2952.04	2961.0239	2972.2984	2989.3338	3044.2866	3046.4656	3058.0708	3063.1106	3106.8012	3118.4136	3120.7692	3124.6746	3815.0873
CCOCC1CC(O)C1	CCOC[C@H]1C[C@@H](O)C1	
InChI=1S/C7H14O2/c1-2-9-5-6-3-7(8)4-6/h6-8H,2-5H2,1H3	InChI=1S/C7H14O2/c1-2-9-5-6-3-7(8)4-6/h6-8H,2-5H2,1H3/t6-,7+
