17
gdb 41671	3.00012	2.09275	1.68355	3.2333	70.41	-0.2155	0.0134	0.2289	844.0958	0.140318	-417.981902	-417.975717	-417.974773	-418.012219	25.61	
C	 0.0670580658	 1.3537839813	-0.0591847448	-0.080827
C	 1.426516451	 2.0877268829	 0.1573924386	-0.197603
N	 2.3561656274	 1.2050454547	 0.8757351185	-0.073102
C	 2.1856461983	 1.1545984018	 2.2716365633	 0.049982
N	 2.0776361478	 0.0089300462	 2.8232093254	-0.235532
C	 1.9803786529	-0.9260014	 1.7311204223	-0.049691
C	 0.8874201247	-0.7011803792	 0.6798435545	 0.063067
O	-0.0899337467	 0.2774288795	 0.8634682741	-0.235894
C	 2.2772007777	-0.1843259633	 0.4370177936	-0.115561
H	-0.7752459769	 2.0270028441	 0.1137145901	 0.119129
H	-0.0022091883	 0.9759171308	-1.0881542929	 0.10128
H	 1.8597813215	 2.3851710986	-0.803169426	 0.113955
H	 1.2926704227	 2.9958466161	 0.7521365223	 0.118375
H	 2.1785822212	 2.0924206927	 2.8189450073	 0.124936
H	 2.2941263303	-1.9456452419	 1.9142240781	 0.102262
H	 0.5510389635	-1.5896928032	 0.1497621046	 0.098035
H	 2.9269496369	-0.4958774412	-0.3736380188	 0.097188
162.5967	262.6045	303.0184	410.4581	492.2926	571.5446	663.2397	686.2579	746.3737	776.9961	805.7884	821.8832	861.5886	895.2857	926.8044	954.8351	986.0439	1011.7469	1042.4333	1061.3321	1087.2201	1097.6706	1106.4935	1164.6398	1193.2221	1199.9602	1277.3112	1292.8439	1310.8176	1330.5682	1339.7136	1369.372	1373.7376	1403.2973	1498.1305	1508.1665	1664.9722	3010.2654	3045.9449	3089.1116	3111.6419	3126.5737	3158.2703	3189.8716	3199.7129
C1CN2C=NC3C(O1)C23	C1CN2C=N[C@H]3[C@@H](O1)[C@@H]23	
InChI=1S/C6H8N2O/c1-2-9-6-4-5(6)8(1)3-7-4/h3-6H,1-2H2	InChI=1S/C6H8N2O/c1-2-9-6-4-5(6)8(1)3-7-4/h3-6H,1-2H2/t4-,5+,6-/m1/s1
