18
gdb 61899	3.48567	0.80254	0.6848	4.7746	74.82	-0.2505	0.01	0.2604	1593.0311	0.145564	-439.077849	-439.067929	-439.066985	-439.113765	35.253	
C	-0.121215813	 1.6414563668	-0.1519351068	-0.396245
C	 0.0067358908	 0.1296396992	 0.0482828814	-0.102665
N	 0.7432092302	-0.2912937069	 1.2515744034	-0.330913
H	 0.5115256734	 0.3208562582	 2.0292798985	 0.237052
H	-0.6009522692	-1.6253207392	 1.3302871099	 0.301821
C	 2.2063440762	-0.3306809407	 1.0998813192	-0.288891
C	 2.8576479496	-0.6607160166	 2.3615310414	 0.26359
C	 3.3845380019	-0.9115115499	 3.4112147011	-0.405267
C	-1.3808412186	-0.5541499608	 0.0379832535	 0.423845
O	-2.2836990787	-0.1932471466	-0.6682057748	-0.341068
O	-1.4660338711	-1.604169819	 0.8627865385	-0.367162
H	 0.8599291939	 2.1087767455	-0.276275844	 0.116421
H	-0.726281874	 1.8474730986	-1.0364323251	 0.158406
H	-0.619369624	 2.1042154275	 0.707180981	 0.124053
H	 0.5375817835	-0.3008162367	-0.8119073819	 0.121756
H	 2.4461414822	-1.0933053386	 0.3483143691	 0.148083
H	 2.6172153659	 0.6201361999	 0.7216761974	 0.130042
H	 3.8567463309	-1.1422480106	 4.3342991882	 0.207142
49.9715	56.2551	102.3078	134.9125	208.5449	248.6899	268.2256	331.7804	358.2679	404.854	452.1439	568.7597	596.7125	624.6194	675.7362	734.8722	775.8329	832.0563	901.4397	927.8279	970.5807	1005.4631	1069.3392	1077.7743	1138.988	1169.3558	1210.6581	1255.2086	1306.6857	1329.2883	1396.7036	1402.4297	1428.6223	1479.8337	1489.4491	1497.6237	1500.5056	1869.0125	2246.6753	2964.8518	3025.4461	3040.71	3042.0154	3108.0312	3143.8441	3462.2808	3503.6998	3506.4036
CC([NH2+]CC#C)C([O-])=O	C[C@@H](NCC#C)C(=O)O	
InChI=1S/C6H9NO2/c1-3-4-7-5(2)6(8)9/h1,5,7H,4H2,2H3,(H,8,9)	InChI=1S/C6H9NO2/c1-3-4-7-5(2)6(8)9/h1,5,7H,4H2,2H3,(H,8,9)/t5-/m1/s1
