17
gdb 106135	2.87467	1.5479	1.38317	1.6474	71.56	-0.2283	-0.0043	0.2241	987.9662	0.136527	-421.770218	-421.762852	-421.761908	-421.802154	29.109	
O	 0.1841491035	 1.3687660909	-0.1462324643	-0.411416
C	 0.0539200395	-0.0265402372	 0.0854936994	-0.19943
C	-1.3686281809	-0.48464597	 0.0649429404	 0.239052
C	-2.0463796169	-1.8015573663	-0.0411763938	 0.038509
O	-2.9156997598	-1.6113588549	 1.0430298209	-0.297356
C	-2.5371632236	-0.1608012212	 1.0527051456	-0.002485
C	-3.6004450064	 0.5235504298	 0.2402014184	-0.1013
C	-3.450377783	 0.134958605	-1.0361243125	-0.062695
C	-2.2383879299	-0.7055692822	-1.1637604347	-0.201277
H	-0.306602542	 1.5739753937	-0.949305393	 0.287103
H	 0.6302294973	-0.6174711743	-0.6459774756	 0.08973
H	 0.5034860901	-0.2053547248	 1.0686469902	 0.117469
H	-1.7183738844	-2.8095178993	-0.2661502195	 0.115808
H	-2.3295340198	 0.1729990279	 2.067727746	 0.089471
H	-4.4368792695	 1.062485309	 0.6642499367	 0.105388
H	-4.1449140132	 0.3139704454	-1.8477889565	 0.106116
H	-1.770825301	-0.9252323014	-2.1172790976	 0.087314
90.459	117.2886	261.1115	328.7694	374.6703	410.1789	452.574	597.3714	610.6507	681.8781	758.4297	763.0015	801.2309	815.0989	886.0974	901.1975	921.7776	927.3291	977.4698	990.0861	1026.6329	1048.2425	1070.8513	1089.2277	1123.9667	1149.2057	1200.1505	1211.6387	1247.9905	1272.0491	1313.7684	1358.6525	1369.0845	1419.0142	1459.1632	1499.9833	1622.6098	2966.403	3062.9735	3137.824	3177.5318	3190.6587	3203.9567	3231.9393	3808.2701
OCC12C3OC1C=CC23	OC[C@@]12[C@H]3O[C@@H]1C=C[C@@H]23	
InChI=1S/C7H8O2/c8-3-7-4-1-2-5(7)9-6(4)7/h1-2,4-6,8H,3H2	InChI=1S/C7H8O2/c8-3-7-4-1-2-5(7)9-6(4)7/h1-2,4-6,8H,3H2/t4-,5-,6+,7+/m1/s1
