25
gdb 63965	2.85038	1.28139	1.26666	0.1509	90.97	-0.2787	0.0751	0.3538	1202.6558	0.230877	-352.369216	-352.360422	-352.359478	-352.4018	36.258	
C	 0.1269863081	 1.4539402973	-0.2571023381	-0.42537
C	-0.032581723	-0.0643060893	-0.0421824278	 0.310829
C	-1.5220919652	-0.3585208471	 0.1943398713	-0.426045
C	 0.5161804917	-0.8781614155	-1.2518934639	-0.252825
C	 1.9909068808	-1.2026864616	-0.9651537054	 0.001991
C	 3.0572797697	-0.1007246951	-1.2416112809	-0.227044
C	 3.2616769567	 0.0945011631	 0.2886197255	-0.227048
C	 2.1970631493	-1.0058982559	 0.5777847009	 0.001991
C	 0.8366352463	-0.5723168634	 1.1466337456	-0.252823
H	 1.1625947742	 1.7520549329	-0.4334632962	 0.118441
H	-0.4625368274	 1.7850841404	-1.119621119	 0.106586
H	-0.2302537889	 2.0068176593	 0.6191617502	 0.106586
H	-2.1290394831	-0.0453531394	-0.6630463117	 0.107203
H	-1.6956055381	-1.4284803043	 0.3539595782	 0.105443
H	-1.8968592871	 0.1762438879	 1.074763994	 0.107203
H	-0.0463273602	-1.8163417002	-1.331685483	 0.086857
H	 0.3763434058	-0.3476301561	-2.2010113806	 0.088926
H	 2.2686623053	-2.1801949749	-1.3660850469	 0.058182
H	 3.944416303	-0.4649907183	-1.765946469	 0.09359
H	 2.6871080002	 0.772702176	-1.7854058467	 0.094886
H	 4.2656752446	-0.1581180137	 0.639043431	 0.093588
H	 3.0159267265	 1.0867939652	 0.6766639737	 0.09489
H	 2.6010856788	-1.8628962428	 1.121603254	 0.058183
H	 0.9293682931	 0.1801983874	 1.9384435398	 0.088925
H	 0.3450971689	-1.4428002517	 1.5978701451	 0.086856
143.1608	145.213	220.1459	239.2284	297.9553	314.1795	348.3292	365.4294	392.2784	419.2524	580.2873	603.6523	725.7461	751.1895	760.0458	830.6051	842.6648	880.3355	885.0401	925.8587	927.508	945.9193	956.664	996.4496	999.7206	1047.2531	1055.3809	1093.978	1105.7247	1153.0074	1171.39	1191.9696	1224.8894	1227.8584	1243.8298	1264.7712	1266.3691	1281.8818	1312.5511	1318.9507	1325.8806	1343.9041	1361.9657	1400.023	1424.1656	1475.9993	1481.2706	1482.5698	1491.0141	1501.6536	1501.7518	1511.0778	1512.5992	3018.2151	3020.9033	3023.7751	3031.8982	3052.6144	3057.8292	3059.8606	3064.9269	3066.7951	3078.9692	3083.3166	3089.5153	3090.6002	3094.0591	3111.7836	3127.7654
CC1(C)CC2CCC2C1	CC1(C)C[C@H]2CC[C@H]2C1	
InChI=1S/C9H16/c1-9(2)5-7-3-4-8(7)6-9/h7-8H,3-6H2,1-2H3	InChI=1S/C9H16/c1-9(2)5-7-3-4-8(7)6-9/h7-8H,3-6H2,1-2H3/t7-,8+
