18
gdb 62479	2.36001	1.54627	1.30612	2.0597	72.53	-0.2466	-0.0358	0.2108	1056.4818	0.14533	-439.061339	-439.052198	-439.051254	-439.09499	34.096	
C	-0.0654166864	 1.5980125446	 0.0077573242	-0.420919
C	-0.0613924433	 0.0731510256	 0.0279428659	 0.22899
O	-1.3781133223	-0.3876404292	-0.1627813348	-0.469437
C	 1.0341095757	-0.5697283518	-0.8620845554	 0.326984
O	 1.0151269024	-0.9444567701	-1.9993949522	-0.301987
C	 1.9677249156	-0.8062597751	 0.3400409223	-0.424021
C	 0.7324503665	-0.5447128438	 1.2161887116	 0.285145
C	 0.5548947459	-0.2889156904	 2.655114681	-0.315725
N	 0.1597661656	-1.5856964366	 2.0588327304	-0.35645
H	 0.9278816814	 2.006341375	 0.2144462041	 0.121297
H	-0.4026663326	 1.9596240594	-0.9673499821	 0.136632
H	-0.7547169726	 1.9679823602	 0.7730876054	 0.132537
H	-1.3507988303	-1.1441274686	-0.7602897839	 0.298284
H	 2.4116509443	-1.8021436665	 0.400301387	 0.146348
H	 2.7535647996	-0.0491953979	 0.4285504042	 0.133999
H	 1.4059593803	-0.3382568221	 3.3292094394	 0.123256
H	-0.226290264	 0.4037661299	 2.9602181157	 0.118011
H	-0.8491264759	-1.5949577225	 1.9052898173	 0.237056
66.9515	148.8294	193.0122	202.6037	221.6131	243.53	293.2542	324.407	407.333	461.4172	504.5923	540.3943	603.6509	694.0078	784.8004	822.6308	850.962	921.3481	949.7921	985.1633	989.1757	1016.8181	1064.2964	1103.7338	1118.5197	1136.9127	1145.6862	1192.2742	1234.8947	1282.3109	1299.2874	1354.7366	1402.0029	1412.2866	1439.7665	1479.9043	1491.1853	1514.5615	1883.4271	3041.2675	3058.8305	3102.1344	3115.7302	3124.1131	3125.4473	3186.7656	3459.3859	3796.9383
CC1(O)C(=O)CC11CN1	C[C@@]1(O)C(=O)C[C@]21CN2	
InChI=1S/C6H9NO2/c1-5(9)4(8)2-6(5)3-7-6/h7,9H,2-3H2,1H3	InChI=1S/C6H9NO2/c1-5(9)4(8)2-6(5)3-7-6/h7,9H,2-3H2,1H3/t5-,6-/m1/s1
