21
gdb 83368	2.10419	2.00834	1.5756	2.2271	76.83	-0.2427	0.0821	0.3248	997.4806	0.18365	-424.248553	-424.240386	-424.239442	-424.280586	32.733	
C	-0.1219591078	 1.5491924773	-0.040059591	-0.4351
C	 0.0377417602	 0.0332365756	-0.0250144928	-0.028249
C	 1.0802813122	-0.5937729533	-0.9827504105	-0.106724
C	 2.3871640405	-0.0633512719	-0.3629475551	-0.082778
O	 2.1028860436	-0.0502359296	 1.0486732275	-0.299787
C	 0.7807084669	-0.5739175871	 1.184909176	 0.507583
C	 0.2925056852	-0.3634176352	 2.593647639	-0.472453
O	 0.7986946054	-1.9685455006	 0.881902408	-0.305
C	 0.9643567064	-2.0627066059	-0.5471052746	-0.08455
H	 0.8129031206	 2.0603477294	 0.2019876043	 0.134561
H	-0.4600772644	 1.8979709194	-1.0214870873	 0.113658
H	-0.8703532719	 1.8646192059	 0.6942225487	 0.120049
H	-0.9367511334	-0.4511324211	-0.1450283173	 0.077867
H	 0.9638577828	-0.4133937105	-2.0517276417	 0.073417
H	 3.2425909482	-0.7192222948	-0.5648302198	 0.102311
H	 2.6412077187	 0.949867104	-0.6970345992	 0.097587
H	 0.2788682409	 0.7017663484	 2.8347160268	 0.127407
H	-0.713057323	-0.7743817946	 2.7081922052	 0.125232
H	 0.9607907624	-0.8715435186	 3.2928728511	 0.139125
H	 0.093534828	-2.565001421	-0.989043181	 0.095051
H	 1.8611609987	-2.6508894661	-0.7754161765	 0.100793
176.9623	190.7661	205.7725	222.161	247.7327	320.9085	352.1472	413.0781	499.2379	573.7371	622.2062	638.7799	769.4004	779.6875	849.5211	863.6608	883.7065	940.6402	943.7741	972.8544	1000.7275	1006.1445	1045.0503	1085.1435	1115.096	1127.9937	1152.4887	1155.9723	1195.5101	1200.3897	1227.5366	1278.9634	1302.3149	1336.0269	1360.828	1377.044	1399.2013	1412.9476	1421.9842	1479.2989	1488.7907	1495.8906	1505.9499	1525.1912	1541.7277	3008.6832	3020.0417	3039.0119	3050.9546	3056.2105	3058.0337	3059.2687	3097.1	3116.9398	3126.086	3136.2383	3139.3831
CC1C2COC1(C)OC2	C[C@H]1[C@H]2CO[C@]1(C)OC2	
InChI=1S/C7H12O2/c1-5-6-3-8-7(5,2)9-4-6/h5-6H,3-4H2,1-2H3	InChI=1S/C7H12O2/c1-5-6-3-8-7(5,2)9-4-6/h5-6H,3-4H2,1-2H3/t5-,6-,7+/m0/s1
