23
gdb 90171	3.24626	1.29955	1.23673	0.4773	88.52	-0.2135	0.0791	0.2927	1168.8006	0.207571	-351.13543	-351.127238	-351.126293	-351.167783	33.68	
C	 0.0890429336	 1.6353553079	 0.0172002183	-0.404022
C	 0.0784206773	 0.1078502148	 0.0077036765	 0.062242
C	 0.8204669724	-0.5414181911	-1.2078188395	-0.325797
C	 1.2145147737	-1.9248062495	-0.7204886651	 0.274135
C	 2.4565891755	-2.1055543541	 0.1057294684	-0.365845
C	 1.142818226	-1.9338521659	 0.8146585181	 0.274134
C	 0.3238333006	-3.2372944117	 0.7845934087	-0.281861
C	 0.3970095506	-3.2280629216	-0.7822127846	-0.281861
C	 0.7043078146	-0.5560733349	 1.2793749478	-0.325797
H	 1.1155741534	 2.0180772453	 0.0673972615	 0.110161
H	-0.3742349094	 2.0454151352	-0.8867299828	 0.111502
H	-0.4566891566	 2.0350122162	 0.8787778819	 0.111502
H	-0.9665133348	-0.2293147543	-0.0430845886	 0.069532
H	 0.1783040891	-0.5735890114	-2.0938444995	 0.097808
H	 1.7008049954	 0.0555965923	-1.479028444	 0.094024
H	 2.9589351817	-3.0710580397	 0.1235005648	 0.100743
H	 3.1325310207	-1.2568230818	 0.1422985218	 0.106498
H	 0.765664231	-4.0979002366	 1.2993012727	 0.092067
H	-0.6971166377	-3.1068988057	 1.152914437	 0.098468
H	-0.5852396076	-3.0927864712	-1.2425266982	 0.098468
H	 0.8853630053	-4.0827992963	-1.2635834986	 0.092067
H	 1.5552104866	 0.0372269927	 1.6384511157	 0.094024
H	-0.0176186216	-0.5983064485	 2.1012558276	 0.097808
76.4043	193.8043	237.1503	267.7996	297.604	335.0032	400.0261	419.44	534.669	553.0377	626.124	755.471	763.9144	783.1327	798.8131	823.0107	847.7402	908.0251	918.6441	940.8946	941.6812	968.6352	983.6845	1024.5101	1051.7123	1083.1732	1087.6655	1115.2943	1141.5968	1197.4351	1224.9929	1237.1673	1245.7489	1247.1732	1283.6972	1286.747	1316.469	1327.2356	1348.8324	1366.752	1377.8555	1408.7893	1476.7315	1476.8011	1482.885	1486.6767	1496.5151	1497.686	1504.3166	2998.0586	3018.8887	3020.6294	3025.7851	3030.5903	3038.6965	3075.3162	3077.9339	3084.1361	3089.3387	3093.9484	3096.1972	3103.6361	3190.6084
CC1CC23CC2(CC3)C1	C[C@H]1C[C@@]23C[C@@]2(CC3)C1	
InChI=1S/C9H14/c1-7-4-8-2-3-9(8,5-7)6-8/h7H,2-6H2,1H3	InChI=1S/C9H14/c1-7-4-8-2-3-9(8,5-7)6-8/h7H,2-6H2,1H3/t7-,8-,9+
