18
gdb 18963	6.26831	1.40751	1.40106	1.02	72.68	-0.2448	0.0941	0.3389	958.8908	0.154164	-347.714489	-347.707508	-347.706564	-347.745809	26.835	
C	 0.1884616978	 1.3303746021	 0.1753241934	-0.238256
O	-0.3135662915	 0.081613323	-0.2439092118	-0.256186
C	 0.4527815391	-0.5121593928	-1.2570628084	 0.150427
C	 1.7177232163	-1.3095047393	-0.8669976244	-0.087036
C	 0.8663447559	-2.517911384	-0.3328952058	-0.029522
C	 1.641624311	-3.532774732	-1.1957760265	-0.262827
C	 1.5267023354	-2.2790205856	-2.0854070054	-0.047862
C	 0.0784455319	-1.9606021412	-1.5726950022	-0.086866
H	 1.1949198988	 1.2461346961	 0.6123327961	 0.105302
H	 0.2355001555	 2.0500085835	-0.6574521662	 0.102833
H	-0.4932304639	 1.7179597044	 0.9363096219	 0.125732
H	 0.560930267	 0.1699643739	-2.1165583333	 0.054702
H	 2.6737592138	-0.9668883521	-0.4682338368	 0.067471
H	 0.4725677465	-2.62790914	 0.6762039264	 0.079272
H	 2.6464304807	-3.8052875472	-0.8565143113	 0.090489
H	 1.093799092	-4.4218756377	-1.5251041139	 0.09145
H	 1.8959319534	-2.1125114815	-3.0984142613	 0.069261
H	-0.8537042098	-2.3554190096	-1.9785002107	 0.071615
84.5988	163.7523	181.8299	278.5857	368.8872	471.5376	544.5679	731.5025	788.9893	845.6758	851.2534	863.2813	905.8107	919.7042	950.6541	969.9506	1005.758	1021.5711	1028.4334	1069.2958	1116.9134	1136.1719	1145.97	1156.7967	1161.7877	1169.793	1184.3858	1192.1912	1226.089	1241.8079	1259.9066	1291.7768	1312.3026	1397.8915	1482.9641	1487.6678	1508.8444	1510.8713	2965.132	2975.8667	3020.0585	3034.9083	3091.128	3095.7553	3103.0317	3111.0053	3113.233	3130.4437
COC1C2C3CC2C13	CO[C@H]1[C@H]2[C@@H]3C[C@H]2[C@H]13	
InChI=1S/C7H10O/c1-8-7-5-3-2-4(5)6(3)7/h3-7H,2H2,1H3	InChI=1S/C7H10O/c1-8-7-5-3-2-4(5)6(3)7/h3-7H,2H2,1H3/t3-,4+,5-,6+,7-
