14
gdb 19348	4.36456	1.8285	1.53042	2.8945	64.17	-0.2204	-0.0307	0.1897	813.5079	0.106836	-378.615231	-378.608782	-378.607838	-378.645808	24.96	
O	-0.1750510692	 0.0406000505	 0.0840101834	-0.27767
C	-0.0067057583	 1.2357514676	-0.0081043828	 0.057049
C	 1.293359053	 1.8918110872	 0.0188544392	 0.257638
N	 1.4817605012	 3.3242417289	 0.3711294411	-0.332225
C	 1.7638743345	 2.9218070548	-0.993277514	-0.104976
C	 3.1371777878	 2.1846789805	-1.0627744703	-0.05344
N	 3.7299059689	 2.1616092105	 0.2944610321	-0.308719
C	 2.6770870246	 1.1893850435	-0.0686566864	-0.119351
H	-0.8619106707	 1.9400219254	-0.147508184	 0.058802
H	 0.5582182829	 3.760813492	 0.3880512289	 0.240798
H	 1.2149741324	 3.3087853389	-1.8426254821	 0.11714
H	 3.7273190892	 2.0600304486	-1.9601594122	 0.107089
H	 4.6189250517	 1.6675072284	 0.2097195747	 0.237494
H	 2.813050572	 0.1184830032	-0.0248609577	 0.12037
126.6675	173.3745	270.8667	398.7192	428.6473	497.5549	630.6006	673.2935	744.3548	759.3026	821.8989	839.8564	867.1409	909.2164	917.9361	928.0705	1012.3776	1028.0056	1067.4477	1085.9645	1100.2963	1142.8561	1230.3042	1234.8332	1280.9089	1340.9485	1358.6526	1401.0178	1433.3978	1787.2833	2841.4131	3197.5016	3211.2462	3229.6648	3455.2599	3468.6419
O=CC12NC1C1NC21	O=C[C@]12N[C@H]1[C@H]1N[C@@H]21	
InChI=1S/C5H6N2O/c8-1-5-3-2(6-3)4(5)7-5/h1-4,6-7H	InChI=1S/C5H6N2O/c8-1-5-3-2(6-3)4(5)7-5/h1-4,6-7H/t2-,3+,4-,5+/m0/s1
