16
gdb 29240	3.18613	1.42072	0.98854	1.4239	77.46	-0.2384	-0.028	0.2105	1148.1488	0.126043	-434.112942	-434.104888	-434.103944	-434.145674	30.39	
C	-0.1885433391	 1.5231929261	 0.0394857435	-0.472126
C	 0.0064762578	 0.0368323686	 0.0193871679	 0.184382
C	 0.0989192678	-0.6687030331	-1.111766013	-0.023052
O	 0.2765340704	-2.0223815804	-1.1855399028	-0.229564
C	 0.3748324634	-2.7706391624	-0.0395887087	 0.466887
N	 0.5393208138	-4.0245958552	-0.0479727272	-0.571478
N	 0.2820573641	-2.0622497034	 1.1398138474	-0.409406
C	 0.1015390813	-0.6865381252	 1.2914704291	 0.335603
N	 0.021010856	-0.0719231228	 2.409294141	-0.536054
H	 0.6314269268	 2.0130544162	 0.5731572698	 0.147654
H	-0.2416819937	 1.9260173955	-0.9753258761	 0.115012
H	-1.1068335854	 1.784965095	 0.5736519073	 0.147662
H	 0.0425050671	-0.2396774435	-2.1044594992	 0.136965
H	 0.5850184285	-4.3738429814	-1.0020179847	 0.232091
H	 0.3576078038	-2.6374696255	 1.9661003176	 0.267097
H	 0.1047673073	-0.7095456785	 3.2028539881	 0.208325
86.9455	124.5675	162.9934	285.6105	298.9456	371.4115	381.2772	452.4048	548.7195	577.8176	584.8084	708.975	733.4095	739.4309	793.3421	799.8135	851.4735	904.7775	906.235	1020.0108	1072.1423	1078.8381	1150.8644	1187.7898	1227.1899	1317.0373	1397.0282	1417.0034	1418.9198	1452.942	1466.3146	1490.4973	1696.5371	1731.6411	1777.2051	3044.0466	3105.4143	3123.4891	3218.283	3460.4619	3538.0566	3621.7599
CC1=COC(=N)NC1=N	CC1=C(N[C@H](OC1)[NH])[NH]	
InChI=1S/C5H7N3O/c1-3-2-9-5(7)8-4(3)6/h2H,1H3,(H3,6,7,8)	InChI=1S/C5H9N3O/c1-3-2-9-5(7)8-4(3)6/h5-8H,2H2,1H3/t5-/m1/s1
