21
gdb 97920	3.13309	0.62384	0.55756	1.9357	84.75	-0.2455	0.0386	0.2841	2037.934	0.178916	-424.183535	-424.172022	-424.171077	-424.222679	39.144	
C	 0.1091013612	 1.5351818019	 0.2906600108	-0.236201
O	 0.1042445193	 0.146161508	 0.0594530609	-0.238318
C	 0.7186468418	-0.6284243604	 1.0763847704	 0.147799
C	-0.2253147804	-0.8631041798	 2.2585696489	-0.402736
C	 1.1325403696	-1.9566954258	 0.417061048	-0.366657
C	 2.1679670521	-1.8045554119	-0.597350536	 0.017825
C	 3.0312198005	-1.6612652416	-1.4255079467	 0.103784
C	 4.0974462096	-1.5361761617	-2.4172313649	-0.192504
O	 5.3933894933	-1.815095507	-1.9002051683	-0.404614
H	 1.1319961411	 1.9206958806	 0.4214025552	 0.10885
H	-0.3344127636	 2.0077028342	-0.5893251313	 0.128361
H	-0.4826732064	 1.8221435636	 1.1727415122	 0.103421
H	 1.6283266153	-0.1160078292	 1.428078536	 0.075355
H	 0.2693056871	-1.4462827595	 3.0419565917	 0.115358
H	-0.5452050151	 0.0835704307	 2.7024554142	 0.118899
H	-1.118318734	-1.4049864886	 1.9307945622	 0.124001
H	 1.4779670176	-2.6470036057	 1.1966517829	 0.124064
H	 0.2347069493	-2.4065575015	-0.0257499099	 0.135977
H	 3.8678048758	-2.1787964379	-3.2826747303	 0.114805
H	 4.1447118394	-0.5083408046	-2.7943057914	 0.137572
H	 5.3410461765	-2.6611653337	-1.4437458943	 0.284962
16.2958	51.2913	63.5632	98.0407	136.2852	191.0452	216.2284	244.1823	288.4407	296.9249	331.3382	348.8016	412.8641	466.2234	528.4995	579.3007	783.0263	813.9199	889.9859	923.3924	988.849	1041.1407	1063.4132	1109.7993	1118.6488	1159.9107	1165.0038	1183.6993	1207.4746	1214.7888	1270.229	1311.6061	1356.2164	1378.7223	1384.9329	1405.3444	1419.3522	1455.0003	1479.6151	1483.9675	1493.1768	1493.9559	1502.0801	1511.7028	2363.713	2972.1006	2973.654	2981.6124	3023.8217	3024.3797	3039.6494	3059.4922	3061.3789	3110.4388	3112.1454	3117.0859	3817.284
COC(C)CC#CCO	CO[C@@H](C)CC#CCO	
InChI=1S/C7H12O2/c1-7(9-2)5-3-4-6-8/h7-8H,5-6H2,1-2H3	InChI=1S/C7H12O2/c1-7(9-2)5-3-4-6-8/h7-8H,5-6H2,1-2H3/t7-/m0/s1
