17
gdb 112396	3.39346	1.11269	0.86986	0.8334	68.63	-0.2496	-0.0542	0.1955	1268.9795	0.134679	-459.010096	-459.001542	-459.000597	-459.044455	31.429	
O	-0.2795099619	 1.6070854116	-0.3447265618	-0.422767
C	 0.011398188	 0.2335934699	-0.2529347234	-0.067654
C	-1.2272504405	-0.6030207922	 0.1027042308	-0.133601
C	-1.0205990955	-2.1261633836	 0.1569746062	-0.353828
C	-1.9494627806	-2.6535372851	 1.2582468338	 0.391171
O	-2.234019281	-3.8069144132	 1.4376147967	-0.294751
C	-2.4500217077	-1.4705866208	 2.0918320322	-0.433993
C	-1.7874693065	-0.2441636216	 1.4850490615	 0.395159
O	-1.6825653143	 0.8381055762	 2.0145165348	-0.32671
H	-0.6529288958	 1.8582636688	 0.5115585207	 0.296731
H	 0.3972281058	-0.079622468	-1.2289805369	 0.112928
H	 0.8015812917	 0.0273059958	 0.4898956895	 0.088557
H	-2.018020937	-0.3566039972	-0.6206332942	 0.12412
H	-1.204167444	-2.6486614878	-0.7840836229	 0.144271
H	 0.008686654	-2.3674974703	 0.459303831	 0.142962
H	-3.5406585486	-1.3906783028	 1.9970184447	 0.170858
H	-2.236910216	-1.5834746797	 3.1583637674	 0.166546
36.6132	65.2448	160.9615	207.0912	287.1687	351.3678	415.5092	433.425	501.171	555.2467	566.5289	596.5043	634.2949	730.2138	788.9644	818.7568	903.9753	957.5475	1003.5588	1076.0135	1096.8215	1127.4954	1143.007	1171.5037	1203.5499	1217.041	1229.2928	1258.0163	1295.848	1335.3901	1389.7782	1396.3747	1450.6852	1456.387	1508.1448	1813.2342	1862.3122	2955.1461	3013.934	3023.3613	3046.8005	3067.9186	3107.1466	3113.0608	3744.8402
OCC1CC(=O)CC1=O	OC[C@H]1CC(=O)CC1=O	
InChI=1S/C6H8O3/c7-3-4-1-5(8)2-6(4)9/h4,7H,1-3H2	InChI=1S/C6H8O3/c7-3-4-1-5(8)2-6(4)9/h4,7H,1-3H2/t4-/m1/s1
