21
gdb 90170	3.32222	1.32706	1.27466	1.7781	80.9	-0.2168	0.0679	0.2847	1113.0827	0.183577	-387.04886	-387.040946	-387.040002	-387.08095	32.152	
C	 0.0328316413	 1.6078563955	 0.0169322597	-0.407579
C	 0.0609754287	 0.0815169002	-0.0210600325	 0.051192
C	 0.8308438371	-0.5266011935	-1.2422357662	-0.315839
C	 1.2397960415	-1.9162123307	-0.7869805041	 0.150453
C	 2.4971751228	-2.14558223	 0.0354729451	-0.371279
C	 1.1940290455	-1.9280703867	 0.728047601	 0.394443
C	 0.7053850123	-0.5911590615	 1.2381417736	-0.31823
O	 0.4002736386	-3.1248856875	 0.7922786172	-0.328045
C	 0.3224022467	-3.1355436615	-0.6641274833	-0.136064
H	 1.0486475158	 2.0157652435	 0.0839114256	 0.111389
H	-0.4325560534	 2.0212596208	-0.8842120293	 0.114507
H	-0.5315360493	 1.9775389945	 0.8795750483	 0.115559
H	-0.9734482865	-0.2830642831	-0.0804274107	 0.080316
H	 0.2086549566	-0.538380614	-2.1428805363	 0.102963
H	 1.7130653774	 0.0815316744	-1.4781497632	 0.099861
H	 2.9494556812	-3.1332885305	 0.0584802275	 0.116353
H	 3.2001723524	-1.3187563078	 0.053717156	 0.115443
H	 1.5383629495	 0.0131102048	 1.6175037321	 0.101034
H	-0.0117273987	-0.7070113121	 2.0546516068	 0.117782
H	-0.7039007021	-2.9432976391	-1.0003290431	 0.103312
H	 0.6724584525	-4.0856752654	-1.0864670942	 0.10243
84.1798	216.8369	245.5972	274.0364	309.1297	357.0554	404.7844	412.561	548.1558	558.926	640.5302	775.4136	791.3637	814.482	832.538	857.1925	905.1235	917.807	936.1336	950.6478	982.6182	1002.484	1022.7907	1041.5763	1075.4524	1103.8325	1139.8682	1151.5875	1207.2132	1220.7176	1249.7956	1287.9631	1298.3483	1310.8694	1334.7354	1351.8703	1369.2719	1381.723	1409.7671	1469.4743	1472.4735	1485.973	1495.8391	1498.5192	1516.5635	3009.1911	3012.3066	3023.2515	3029.3915	3037.0695	3060.1196	3080.1677	3089.8456	3096.9133	3104.4653	3114.8987	3209.5739
CC1CC23CC2(C1)OC3	C[C@H]1C[C@@]23C[C@]2(C1)OC3	
InChI=1S/C8H12O/c1-6-2-7-4-8(7,3-6)9-5-7/h6H,2-5H2,1H3	InChI=1S/C8H12O/c1-6-2-7-4-8(7,3-6)9-5-7/h6H,2-5H2,1H3/t6-,7-,8-/m0/s1
