22
gdb 59435	2.5973	1.08961	1.00366	3.2398	82.25	-0.2394	0.0282	0.2676	1340.9358	0.193031	-404.375307	-404.364923	-404.363978	-404.411132	38.502	
C	-2.1976257247	-1.7006063388	 1.6378867866	-0.409034
C	-1.352000139	-0.5321060798	 1.1120788597	 0.034289
C	-1.9757262809	 0.8040478043	 1.5454389019	-0.397938
C	 0.12170235	-0.5678330195	 1.5244559937	 0.011723
C	 0.6900807277	-1.4790798566	 2.5918953698	-0.324801
C	 1.0736528052	-1.6767002919	 1.1444974221	-0.132709
C	 0.6222055374	-2.8465150001	 0.3021327336	 0.372848
N	 0.6275220913	-4.0601702355	 0.9337782383	-0.512153
O	 0.2953878766	-2.7202901628	-0.8626028577	-0.36541
H	-2.2841065983	-1.6657265237	 2.7301371569	 0.108534
H	-3.2100628102	-1.6407429457	 1.2262567	 0.111731
H	-1.7911020916	-2.6765268358	 1.3605695575	 0.127677
H	-1.3716783261	-0.5776481826	 0.0156303951	 0.104551
H	-1.9532897159	 0.9123788976	 2.6363733131	 0.111592
H	-1.4382245766	 1.655086875	 1.114170036	 0.110154
H	-3.0203056484	 0.871522935	 1.2246447678	 0.109032
H	 0.5820016773	 0.4165071701	 1.4853022585	 0.083412
H	 1.4323444174	-1.0859776387	 3.2785637833	 0.109628
H	 0.0182046757	-2.2052592425	 3.0367643958	 0.115151
H	 2.0667492038	-1.3495916478	 0.8470750141	 0.112255
H	 1.0300402868	-4.1697218642	 1.8478637654	 0.260708
H	 0.4460912823	-4.8819420062	 0.3800396384	 0.258763
42.5464	55.1532	116.3952	205.6621	233.7021	246.3361	266.3503	275.088	304.5838	360.4565	418.2511	489.2848	507.1486	554.4725	629.2409	709.0935	745.2397	790.8241	848.6695	898.0477	930.4761	941.9114	966.9448	1010.69	1034.0174	1078.3816	1094.2198	1113.0421	1129.0609	1142.8291	1172.1924	1200.607	1243.1734	1311.5481	1337.1001	1364.4944	1394.945	1400.5732	1409.4959	1430.1503	1486.3613	1492.2072	1495.5384	1506.7431	1513.4155	1609.3571	1786.7938	3023.5474	3025.2702	3033.657	3090.2275	3096.4427	3100.7919	3119.2616	3127.4813	3130.4298	3142.7021	3213.3529	3597.542	3737.3935
CC(C)C1CC1C(N)=O	CC(C)[C@H]1C[C@H]1C(=O)N	
InChI=1S/C7H13NO/c1-4(2)5-3-6(5)7(8)9/h4-6H,3H2,1-2H3,(H2,8,9)	InChI=1S/C7H13NO/c1-4(2)5-3-6(5)7(8)9/h4-6H,3H2,1-2H3,(H2,8,9)/t5-,6-/m1/s1
