16
gdb 43057	3.35253	1.96852	1.72555	4.0449	70.23	-0.2341	-0.0002	0.2339	820.4737	0.12771	-400.717522	-400.711718	-400.710774	-400.747503	24.574	
O	 0.0607465006	 0.0416005358	 0.3062320885	-0.332568
C	-0.0379154436	 1.2075155567	 0.0649106985	 0.428232
C	-1.1238441083	 2.2436504877	-0.0762071417	-0.207731
C	-1.1456872116	 3.1361398214	 1.2261859113	-0.082729
C	 0.2594341055	 3.472106303	 1.7288103455	-0.065939
C	 1.4383546286	 2.6221450923	 1.251312055	-0.210006
N	 1.0023175066	 2.2096797889	-0.1008533905	-0.164147
C	-0.0259903973	 3.2254871421	-0.5760421941	-0.008761
C	-0.3130054279	 4.2222918843	 0.5686503326	-0.087531
H	-2.0953679378	 2.0726316217	-0.5381588792	 0.090155
H	-2.0045968796	 3.2230444611	 1.8784352706	 0.10427
H	 0.3012712441	 3.9643412824	 2.6945852746	 0.098977
H	 2.3590123706	 3.2152906277	 1.2133614849	 0.109696
H	 1.6264140534	 1.7267851267	 1.8495515001	 0.137352
H	 0.094611926	 3.543791726	-1.6076608957	 0.092717
H	-0.4558852592	 5.2912293921	 0.4949192197	 0.098013
153.3176	302.507	424.1193	489.6617	605.8566	667.2688	676.8952	733.4572	762.4837	816.276	828.8297	842.013	865.7309	894.5184	913.6297	933.2	956.9587	1016.9132	1020.3356	1036.7393	1069.9734	1080.8469	1090.4335	1127.4786	1169.6968	1190.5408	1207.7116	1225.6396	1255.3145	1270.2508	1292.2479	1318.5146	1394.5228	1508.4443	1901.2536	3039.8117	3104.8526	3123.3661	3155.8735	3176.8813	3199.44	3214.6147
O=C1C2C3C4CN1C2C34	O=C1[C@H]2[C@H]3[C@H]4CN1[C@@H]2[C@@H]34	
InChI=1S/C7H7NO/c9-7-5-3-2-1-8(7)6(5)4(2)3/h2-6H,1H2	InChI=1S/C7H7NO/c9-7-5-3-2-1-8(7)6(5)4(2)3/h2-6H,1H2/t2-,3+,4-,5+,6-/m1/s1
