21
gdb 108342	2.50363	1.68227	1.32686	1.1884	81.18	-0.2234	0.0787	0.3021	1066.7017	0.182771	-387.024539	-387.016378	-387.015433	-387.056955	32.672	
C	 0.0478186443	 1.3368074663	 0.1786732318	-0.253992
O	-0.1387365648	-0.0283976768	-0.1343347906	-0.297035
C	 0.6152174668	-0.5211820331	-1.2001974072	 0.458459
C	 0.6817268139	-2.0703687237	-1.2044411224	-0.295609
C	 2.2417079331	-1.9996379838	-1.301626217	-0.241788
C	 2.1771683943	-0.4433018204	-1.2933351225	-0.103617
C	 2.0380206077	 0.3123836677	-2.6390658706	-0.054605
C	 1.2527778803	-0.4619310683	-3.6594787839	-0.297574
C	 0.5075440033	 0.2352965255	-2.5562352058	-0.12661
H	 1.0964912766	 1.5615957286	 0.4193808639	 0.108385
H	-0.2692691817	 2.0020717099	-0.635427233	 0.110463
H	-0.5657034415	 1.5430641662	 1.0588124217	 0.126532
H	 0.3244863868	-2.4732493053	-0.2547260986	 0.109387
H	 0.1593699141	-2.5757210945	-2.0200750859	 0.098621
H	 2.7465305629	-2.4126746321	-0.4255911849	 0.100334
H	 2.6867889867	-2.4484233525	-2.1929616209	 0.100945
H	 2.7680075083	 0.0784438772	-0.5406665939	 0.068977
H	 2.6636199185	 1.1476339525	-2.932154899	 0.081948
H	 1.1718896573	 0.017939818	-4.6305317525	 0.110376
H	 1.3036391661	-1.5443408353	-3.7211991168	 0.11184
H	-0.2400046331	 0.9886755739	-2.7762755017	 0.084565
94.5479	169.1084	174.8082	248.3768	300.6669	324.1136	398.6999	457.93	504.2439	586.7186	683.613	733.2964	759.0603	778.3096	846.5162	905.981	922.1378	938.5344	939.2964	953.1784	986.6934	1029.239	1058.5374	1070.9946	1089.801	1091.8188	1105.7657	1121.2797	1160.3351	1179.1195	1190.8897	1214.3672	1226.8987	1239.7844	1250.0545	1275.031	1295.5361	1314.8342	1357.6418	1472.0672	1480.6971	1485.2439	1487.2131	1506.5212	1508.3919	2996.3432	3047.8051	3063.8216	3070.0417	3104.7214	3113.7506	3116.4088	3123.7281	3129.8215	3166.918	3176.0834	3199.6745
COC12CCC1C1CC21	CO[C@]12CC[C@H]1[C@H]1C[C@@H]21	
InChI=1S/C8H12O/c1-9-8-3-2-6(8)5-4-7(5)8/h5-7H,2-4H2,1H3	InChI=1S/C8H12O/c1-9-8-3-2-6(8)5-4-7(5)8/h5-7H,2-4H2,1H3/t5-,6+,7-,8-/m1/s1
