17
gdb 17261	3.22736	2.09108	1.77822	1.8307	68.85	-0.2375	0.0675	0.305	823.9798	0.141582	-363.7627	-363.75549	-363.754545	-363.793713	28.236	
C	 0.0359051839	 1.4832351568	 0.0829263372	-0.51842
C	-0.0241425784	-0.0053166747	-0.0476743195	 0.299959
C	 0.6142241599	-0.9533473022	-1.1072171452	-0.262204
C	 0.0551254689	-1.8198215168	 0.0447832539	-0.027684
O	 0.6128385266	-0.8406523462	 1.0099589558	-0.341412
C	-1.2235795494	-0.9752199095	 0.0202083545	 0.407073
C	-2.4979596213	-0.9690208979	 0.7352422352	-0.341674
N	-2.4336662334	-1.124483203	-0.7536534601	-0.395664
H	 1.0741005694	 1.827742478	 0.0784102321	 0.139921
H	-0.4872519833	 1.9606281704	-0.7522223417	 0.1249
H	-0.4323418045	 1.8053306647	 1.0180821996	 0.136292
H	 0.1343941115	-1.0303359924	-2.0862661271	 0.103584
H	 1.7033133304	-0.9083549564	-1.1573706216	 0.102788
H	 0.1984381187	-2.8779861817	 0.2564563757	 0.099064
H	-2.8438201878	-1.8518315892	 1.2651882662	 0.126913
H	-2.8601840953	-0.0270340649	 1.1399745065	 0.11556
H	-2.6885261058	-0.2489407849	-1.2062584716	 0.231004
165.0169	183.7387	212.4173	233.4753	339.8874	397.6023	479.6779	589.8703	641.4487	676.2761	718.56	791.496	862.9056	889.9658	912.0571	925.9083	968.303	970.6106	1014.0779	1032.2796	1057.4969	1106.0802	1118.7615	1149.8817	1187.4251	1215.3064	1225.5064	1248.0511	1252.9706	1333.0622	1408.9833	1450.3139	1476.3114	1484.9865	1490.1886	1539.8655	3038.174	3062.3336	3107.2083	3109.9602	3116.6329	3139.666	3145.5497	3191.983	3484.8823
CC12CC(O1)C21CN1	C[C@@]12C[C@@H](O1)[C@]12CN1	
InChI=1S/C6H9NO/c1-5-2-4(8-5)6(5)3-7-6/h4,7H,2-3H2,1H3	InChI=1S/C6H9NO/c1-5-2-4(8-5)6(5)3-7-6/h4,7H,2-3H2,1H3/t4-,5+,6+/m1/s1
