18
gdb 30072	3.01603	1.2622	0.99074	1.3175	81.32	-0.2045	-0.0263	0.1783	1201.701	0.147681	-401.994505	-401.985682	-401.984738	-402.028679	31.813	
C	 0.0692537404	 1.4162935308	 0.199498837	-0.361672
N	 0.0750319102	-0.0334419374	 0.1085584053	-0.025957
C	 0.0413061107	-0.7429572797	-1.0655027024	-0.099873
C	-0.0556127529	-2.0825386621	-0.768641157	-0.159995
C	-0.0913972075	-2.1920241222	 0.6451360252	-0.234472
C	-0.0214408427	-0.9161500583	 1.1679723337	 0.263515
C	 0.0318699816	-0.4603684282	 2.5959339649	-0.389111
C	 1.4700128547	-0.1149398225	 2.9559671576	 0.158322
O	 1.8869076121	 1.0058589735	 3.108803504	-0.241703
H	 0.7122009772	 1.7533202382	 1.014803223	 0.170482
H	 0.4477861058	 1.8296378673	-0.737191204	 0.140244
H	-0.9430950385	 1.8035438855	 0.366269844	 0.135639
H	 0.0828471017	-0.2282469332	-2.0126977075	 0.114679
H	-0.0922114542	-2.8888913708	-1.4845513784	 0.09649
H	-0.1601608753	-3.1000298933	 1.2257109013	 0.092509
H	-0.6001499439	 0.4118327398	 2.7905792228	 0.122758
H	-0.3039359461	-1.2851730624	 3.2332674988	 0.128817
H	 2.1467190367	-0.9961112249	 3.0171836717	 0.089327
64.4179	92.2597	120.4002	156.6731	197.5746	274.2283	337.5722	410.6698	487.4746	619.2386	634.9894	675.3332	713.0411	724.5439	778.4927	839.2824	863.1572	903.5226	992.1859	1039.634	1055.0948	1079.502	1116.7816	1154.2566	1164.7064	1215.4722	1272.2247	1290.5083	1335.106	1403.0306	1416.7921	1451.7184	1458.6893	1466.5544	1495.5685	1517.162	1530.672	1585.7351	1817.8209	2889.4704	3029.5689	3044.435	3100.2776	3109.0957	3146.3061	3237.3821	3248.8972	3266.7606
CN1C=CC=C1CC=O	Cn1cccc1CC=O	
InChI=1S/C7H9NO/c1-8-5-2-3-7(8)4-6-9/h2-3,5-6H,4H2,1H3	InChI=1S/C7H9NO/c1-8-5-2-3-7(8)4-6-9/h2-3,5-6H,4H2,1H3
