14
gdb 53993	1.92145	1.51545	1.3556	4.4508	65.26	-0.245	-0.0477	0.1973	1046.0973	0.09602	-473.81115	-473.801151	-473.800207	-473.846485	34.939	
N	 0.037590727	 1.3904173427	 0.2929229967	-0.53437
C	 0.1380043376	 0.0844264623	-0.0488108564	 0.3924
O	 1.1522093006	-0.4816028996	-0.3863830561	-0.3524
C	-1.2223426038	-0.666925624	-0.0008029591	-0.002879
O	-2.2405066778	 0.0631728987	 0.6943172683	-0.463989
C	-1.7932865967	-0.7951184116	-1.444859307	 0.165775
O	-1.2364972496	-0.4354191246	-2.4386900133	-0.213185
C	-1.063593777	-2.0086494229	 0.5413546563	 0.297242
C	-1.0108714796	-3.1161049371	 1.0051514191	-0.454764
H	 0.8495351086	 1.9778035637	 0.2028772193	 0.26922
H	-0.8559198276	 1.7822460353	 0.5357511074	 0.272444
H	-2.2930093377	-0.2841310195	 1.5917050871	 0.300507
H	-2.8112652688	-1.2368187157	-1.4362394702	 0.107506
H	-0.9307543052	-4.0949279277	 1.4112582177	 0.216492
51.6175	64.8687	139.0913	159.9591	175.1558	215.9288	292.4054	332.6264	358.5233	417.6559	457.2875	475.0961	509.2487	618.7752	643.4271	650.5134	673.2204	681.1721	796.3563	965.6842	995.4949	1083.2695	1091.5663	1134.8163	1322.5547	1346.1883	1407.8854	1591.7682	1819.5981	1859.232	2233.5132	2925.7796	3496.9556	3604.1678	3744.3566	3812.0221
NC(=O)C(O)(C=O)C#C	NC(=O)[C@@](O)(C=O)C#C	
InChI=1S/C5H5NO3/c1-2-5(9,3-7)4(6)8/h1,3,9H,(H2,6,8)	InChI=1S/C5H5NO3/c1-2-5(9,3-7)4(6)8/h1,3,9H,(H2,6,8)/t5-/m0/s1
