18
gdb 105623	2.09185	1.34702	1.1869	2.2228	72.19	-0.2678	0.0131	0.2809	1160.6019	0.14649	-439.074967	-439.065606	-439.064662	-439.109188	33.785	
C	-0.4764932647	 1.398944688	-0.0340974406	-0.420728
C	 0.2165616845	 0.0543132962	-0.067220719	 0.119266
O	 1.5442414285	 0.1045728253	-0.6307253607	-0.286786
C	 2.0517984399	-0.8040880442	 0.363037334	-0.105216
C	 0.7851211495	-0.6027008525	 1.2377777974	 0.060865
C	 1.0383400922	 0.350666724	 2.4227617279	-0.12452
O	 1.8789337756	-0.236798759	 3.3916591486	-0.417426
C	 0.1099768932	-1.8014993601	 1.7119118563	 0.223673
N	-0.4238313472	-2.740253323	 2.126683429	-0.342016
H	 0.1044480674	 2.1486457078	 0.5074807926	 0.130895
H	-0.6128565659	 1.7543738084	-1.0600565584	 0.141969
H	-1.4655147412	 1.3097940914	 0.426636148	 0.131953
H	-0.4025557234	-0.6711410626	-0.6142366485	 0.091755
H	 2.1709478541	-1.8221607423	-0.0263835631	 0.118971
H	 2.9885122524	-0.463604522	 0.8125777851	 0.134309
H	 1.5686423382	 1.2319907417	 2.0528868563	 0.1315
H	 0.0810892704	 0.6807586924	 2.8500515414	 0.110651
H	 1.3999528367	-0.9625068597	 3.8084503736	 0.300882
86.8343	112.0549	149.4807	163.2159	198.042	225.3351	287.968	334.6483	389.5298	431.0169	491.4355	542.8409	566.1387	647.8373	773.6291	881.4325	916.5117	935.2917	1014.3786	1022.2417	1046.2241	1086.2774	1102.2175	1132.4742	1157.3989	1170.5737	1212.6124	1274.5545	1300.3595	1354.8205	1384.794	1393.5681	1411.454	1420.2475	1481.8105	1495.6628	1505.1953	1526.6962	2345.9894	2999.2473	3008.1038	3031.0638	3045.6332	3097.7881	3101.7022	3114.2602	3133.0103	3798.1186
CC1OCC1(CO)C#N	C[C@H]1OC[C@]1(CO)C#N	
InChI=1S/C6H9NO2/c1-5-6(2-7,3-8)4-9-5/h5,8H,3-4H2,1H3	InChI=1S/C6H9NO2/c1-5-6(2-7,3-8)4-9-5/h5,8H,3-4H2,1H3/t5-,6-/m1/s1
