19
gdb 94278	2.8508	1.58918	1.19803	1.221	74.99	-0.2313	0.0605	0.2919	1057.7345	0.159249	-422.935344	-422.927597	-422.926652	-422.967424	30.998	
O	 0.5945071325	 0.8389096343	-0.6749203725	-0.423951
C	 0.1901402956	-0.2575893985	 0.11009112	 0.046469
C	 0.0027610168	-0.104263333	 1.6431995157	-0.261968
C	-1.2049761655	-1.0816018519	 1.554104076	-0.319031
C	-1.2592727204	-0.8060356593	 0.0398964702	 0.387768
C	-2.4613718509	-0.0510948258	-0.5968808503	-0.028053
C	-1.9866067803	-0.4969912883	-1.9993726857	-0.237461
C	-1.9217427065	-1.7012818526	-1.0292835218	-0.048445
O	-3.2486993489	-1.3004477078	-0.4879707333	-0.318763
H	 0.0352064158	 1.589971741	-0.4491604043	 0.280599
H	 0.9072020126	-1.0548131886	-0.1138948892	 0.096699
H	 0.844209991	-0.3701194432	 2.2857733374	 0.104839
H	-0.3229314681	 0.9115197026	 1.8942060497	 0.094179
H	-0.9175828036	-2.1135818955	 1.7753575492	 0.107258
H	-2.0980070624	-0.8397018838	 2.1311063431	 0.116307
H	-2.9506013176	 0.8740399889	-0.285401827	 0.089023
H	-2.7761036428	-0.5595358639	-2.749216894	 0.103883
H	-1.049070865	-0.0824213687	-2.3730728509	 0.120548
H	-1.7655645824	-2.7600551558	-1.2407251123	 0.090102
104.1995	165.4898	199.8743	277.0857	323.021	364.9323	444.0583	477.9222	593.6983	637.507	689.5256	739.0686	792.5836	807.8048	862.9047	882.1636	918.515	928.0265	958.9991	1014.9264	1023.3179	1055.3547	1066.331	1109.9028	1128.0926	1144.0541	1146.195	1178.586	1183.4104	1207.9804	1228.6684	1233.3025	1256.2336	1273.1421	1288.1405	1310.4597	1340.1511	1428.8445	1479.4857	1484.0057	1496.2545	3044.0541	3056.2637	3065.1719	3075.7424	3095.9692	3111.4753	3113.8208	3129.3347	3160.028	3806.3129
OC1CCC11C2CC1O2	O[C@H]1CC[C@]21[C@H]1C[C@@H]2O1	
InChI=1S/C7H10O2/c8-4-1-2-7(4)5-3-6(7)9-5/h4-6,8H,1-3H2	InChI=1S/C7H10O2/c8-4-1-2-7(4)5-3-6(7)9-5/h4-6,8H,1-3H2/t4-,5-,6+,7+/m0/s1
