19
gdb 66226	4.37147	0.69367	0.66771	1.1509	78.61	-0.2622	0.026	0.2882	1706.3355	0.155091	-422.955778	-422.945635	-422.944691	-422.991968	35.908	
C	 0.8633714488	 1.2093097287	 0.641215841	-0.464344
C	 0.1537941745	-0.0246946549	 0.1390204394	 0.405091
C	-0.7489871979	-0.7214878242	 1.1356923923	-0.111569
O	-1.7731242797	 0.1783374688	 1.5132227054	-0.250521
C	-2.6233255537	-0.3572209296	 2.5092083222	-0.20149
C	-3.6507063609	 0.6131151082	 2.8621736139	 0.279215
C	-4.5081538294	 1.3942923992	 3.1721764227	-0.410597
C	-0.0999534101	-0.2204026866	-1.2944742422	-0.216456
O	 0.9442111548	-0.9406006899	-0.6296119787	-0.281994
H	 1.4786796724	 1.6510419262	-0.1459659132	 0.12402
H	 0.1334845821	 1.9471283398	 0.9849258647	 0.143912
H	 1.5148930884	 0.9576408159	 1.485506214	 0.122394
H	-1.1650446116	-1.6345984227	 0.6826925391	 0.098025
H	-0.160557357	-1.0278981494	 2.0180337417	 0.093093
H	-3.0977607025	-1.2870317503	 2.1513533579	 0.12092
H	-2.0414454792	-0.6269456363	 3.4073814698	 0.121038
H	-5.2643678631	 2.0893891341	 3.4420361946	 0.202043
H	-0.949011785	-0.8197326964	-1.6202038039	 0.112571
H	 0.2348563791	 0.5337884292	-2.0049533206	 0.114648
38.9167	80.4861	86.7518	118.9364	192.2432	213.9685	294.0694	334.0716	361.7734	367.8821	414.8417	456.8472	579.992	609.6697	678.4866	743.343	843.3527	927.4939	932.5383	966.8973	998.8395	1026.3914	1035.8599	1065.2991	1123.8507	1133.6641	1145.561	1167.7058	1228.9358	1256.1259	1295.1406	1373.0616	1402.2033	1420.0603	1446.7361	1481.4388	1495.6314	1500.9331	1519.9124	1536.8625	2248.9375	2950.5345	2959.3348	2972.3719	3002.9175	3040.7807	3084.5175	3109.2591	3134.3281	3171.1377	3506.0199
CC1(COCC#C)CO1	C[C@@]1(COCC#C)CO1	
InChI=1S/C7H10O2/c1-3-4-8-5-7(2)6-9-7/h1H,4-6H2,2H3	InChI=1S/C7H10O2/c1-3-4-8-5-7(2)6-9-7/h1H,4-6H2,2H3/t7-/m1/s1
