13
gdb 132621	3.17884	1.35441	0.95065	4.2059	64.97	-0.2166	-0.0269	0.1897	1095.5481	0.089542	-502.062744	-502.055599	-502.054655	-502.094286	27.599	
N	-0.0148705618	 1.4233235663	 0.1547965595	-0.599399
C	-0.0385901663	 0.0342159556	 0.0490069773	 0.152133
C	-1.2072805913	-0.7296638799	 0.0377599884	-0.135203
C	-1.1375740288	-2.1194605246	-0.0054627622	-0.265041
C	 0.1233759523	-2.6934065991	-0.0346364098	 0.324874
F	 0.2427821024	-4.018333379	-0.0757066695	-0.073531
N	 1.2495602198	-2.0069388194	-0.0293274354	-0.365569
C	 1.1525172116	-0.7029372565	 0.0099661619	 0.302452
F	 2.2976535388	-0.0100623608	 0.006510054	-0.082261
H	 0.8578826793	 1.8362725005	-0.1409091791	 0.259739
H	-0.8106297006	 1.8923861697	-0.25288098	 0.252402
H	-2.1719124095	-0.2331750114	 0.0665012901	 0.11074
H	-2.024987766	-2.7384784114	-0.0162498554	 0.118665
139.7414	250.7038	288.4992	298.4367	353.2045	378.0942	474.7194	488.766	545.7623	586.9461	632.6422	669.1558	742.515	762.1982	820.0579	844.0256	946.6662	1009.8365	1074.5174	1150.5662	1246.7727	1297.2372	1336.051	1392.1845	1476.8853	1518.5445	1631.8682	1641.0943	1669.5264	3183.3718	3222.4979	3565.1259	3666.3806
NC1=CC=C(F)N=C1F	Nc1ccc(F)nc1F	
InChI=1S/C5H4F2N2/c6-4-2-1-3(8)5(7)9-4/h1-2H,8H2	InChI=1S/C5H4F2N2/c6-4-2-1-3(8)5(7)9-4/h1-2H,8H2
