16
gdb 131054	3.90161	1.04238	0.88258	1.7338	70.57	-0.2384	0.0168	0.2552	1265.6017	0.127075	-434.109703	-434.10158	-434.100636	-434.143626	29.04	
O	 0.7605242833	 0.9912285917	-1.4407545469	-0.332862
C	 0.35798366	 1.4197772987	-0.3764108899	 0.160291
N	 1.0804483929	 1.4452604514	 0.7703967662	-0.254138
C	 2.4829125301	 1.0206824344	 0.802043852	-0.313397
C	 3.451571238	 2.0458035291	 0.2879200527	 0.209526
C	 3.6334304946	 2.4417427445	-1.0254942291	-0.115462
N	 4.6004101051	 3.386715933	-1.006065814	-0.172942
N	 5.0776761697	 3.6420790137	 0.2276044946	-0.226284
C	 4.3782559051	 2.8286635371	 1.0138651032	-0.092363
H	-0.664948105	 1.8216756742	-0.2365791795	 0.08003
H	 0.7047138652	 1.9452116243	 1.5603955896	 0.250423
H	 2.725462695	 0.7594277222	 1.8355779178	 0.114709
H	 2.5431731237	 0.1065343985	 0.205721472	 0.146623
H	 3.1365745535	 2.1261594482	-1.9286257441	 0.164998
H	 4.9832317129	 3.8901404448	-1.7884257396	 0.276159
H	 4.5656268561	 2.8233887342	 2.0787994249	 0.10469
49.3607	69.9566	131.6998	222.7339	264.8749	325.4634	429.4388	500.0935	546.7354	645.3069	699.2053	734.1834	763.8758	839.722	888.5754	942.965	953.2679	1003.9317	1018.2096	1032.4179	1063.4112	1166.1932	1203.6008	1230.6583	1288.9891	1325.2164	1376.9248	1400.4945	1420.5146	1427.2773	1466.3367	1497.7439	1521.8392	1602.0614	1792.0255	2939.9621	3064.3842	3111.3684	3233.4958	3276.5814	3635.5779	3672.9287
O=CNCC1=CNN=C1	O=CNCc1c[nH]nc1	
InChI=1S/C5H7N3O/c9-4-6-1-5-2-7-8-3-5/h2-4H,1H2,(H,6,9)(H,7,8)	InChI=1S/C5H7N3O/c9-4-6-1-5-2-7-8-3-5/h2-4H,1H2,(H,6,9)(H,7,8)
