18
gdb 94360	2.81037	1.15104	0.99551	3.9966	74.55	-0.241	-0.0215	0.2195	1237.72	0.146075	-439.047131	-439.038241	-439.037297	-439.08111	32.751	
O	 0.3545513371	 0.9400481912	-0.5876923822	-0.418063
C	 0.1148428342	-0.2497781947	 0.1109125226	 0.075837
C	-0.0205147271	-0.22436353	 1.6645639522	-0.260316
C	-1.2777306198	-1.1366614037	 1.5394258693	-0.312934
C	-1.3346755261	-0.7547153069	 0.0537311959	 0.326941
N	-2.3866087069	 0.0063156993	-0.5772809477	-0.353718
C	-2.1180149822	-1.3740507025	-1.0601258236	-0.219064
C	-1.5305499111	-1.4477284943	-2.4246747155	 0.173915
O	-1.5946284589	-2.4205496224	-3.1359694198	-0.269606
H	 1.3039456062	 1.0946890733	-0.6105019823	 0.289385
H	 0.8028321087	-1.0496074056	-0.2011194693	 0.079599
H	 0.8192740537	-0.5988448011	 2.2532209873	 0.100485
H	-0.2850091136	 0.7819351356	 1.9979645263	 0.119701
H	-1.0564884118	-2.1956412771	 1.6976678632	 0.11867
H	-2.1486056877	-0.8658460472	 2.1418125146	 0.110222
H	-3.225765205	 0.0102177672	-0.0014906934	 0.239395
H	-2.8023475811	-2.1790153875	-0.8021414652	 0.100714
H	-1.0073148787	-0.5163548336	-2.7301025523	 0.098833
74.9538	89.3417	144.8634	202.0368	240.4862	256.6711	344.1936	399.3409	405.27	475.6682	570.5414	584.9116	711.5035	781.3886	842.9164	902.6185	919.706	941.0596	972.9703	997.7298	1034.236	1063.8806	1077.0856	1110.8522	1164.53	1186.0991	1201.063	1216.975	1236.8423	1251.5271	1273.0552	1296.9614	1329.5235	1395.831	1434.8471	1462.0489	1473.7754	1501.0221	1818.0585	2914.585	2989.0911	3057.9281	3069.4819	3106.6549	3131.9879	3144.3879	3494.6774	3824.4062
OC1CCC11NC1C=O	O[C@H]1CC[C@]21N[C@H]2C=O	
InChI=1S/C6H9NO2/c8-3-4-6(7-4)2-1-5(6)9/h3-5,7,9H,1-2H2	InChI=1S/C6H9NO2/c8-3-4-6(7-4)2-1-5(6)9/h3-5,7,9H,1-2H2/t4-,5-,6-/m0/s1
