21
gdb 122938	5.81291	0.52092	0.49764	1.981	78.33	-0.2544	-0.0388	0.2156	2205.6321	0.178915	-461.36539	-461.354523	-461.353579	-461.402786	37.382	
C	 0.0678058644	 1.5465767698	-0.0558431914	-0.38468
C	-0.0282766686	 0.0303538374	-0.0602502511	-0.029841
O	 0.7087435303	-0.4650295213	-1.1599970714	-0.246399
C	 0.6812485362	-1.8705319864	-1.2604008478	-0.051526
C	 1.4549381989	-2.272000467	-2.5101786156	-0.223051
C	 1.4958858379	-3.7982109688	-2.6880101925	 0.045321
O	 0.2087182881	-4.3422871557	-2.8035449254	-0.434121
C	 2.3319172863	-4.1651342985	-3.896729073	 0.137334
O	 1.8878478932	-4.8357937429	-4.7969746398	-0.259505
H	 1.1104405026	 1.8648660889	 0.0326744169	 0.12527
H	-0.3383881822	 1.9590374365	-0.9837649896	 0.126957
H	-0.4952215794	 1.9620280111	 0.785227161	 0.114807
H	 0.3688576177	-0.3853113668	 0.8818124541	 0.084216
H	-1.0808762016	-0.2917366885	-0.1328354719	 0.087852
H	 1.1377379829	-2.3324499759	-0.366352945	 0.080737
H	-0.3524712475	-2.2418035508	-1.3265186405	 0.112679
H	 0.9820979097	-1.8170197717	-3.3874290004	 0.119749
H	 2.4765916889	-1.8790568462	-2.4406761901	 0.106012
H	 2.0159141511	-4.2324391411	-1.8119426433	 0.093135
H	 0.2048893041	-4.8281820503	-3.6436780315	 0.295044
H	 3.3730382269	-3.7828283218	-3.9104421315	 0.10001
48.5202	61.2802	77.4352	113.4401	139.2008	155.9613	235.5639	248.9917	279.1298	332.5507	385.3579	438.9062	484.2682	516.214	750.8571	803.6296	821.7321	842.4234	902.3557	964.9717	974.2341	1044.164	1081.0443	1123.4092	1145.3805	1164.9405	1178.1132	1191.483	1238.3026	1256.0496	1295.9697	1304.74	1313.8609	1357.3034	1388.0882	1400.1173	1409.1927	1440.3405	1451.6989	1479.2533	1483.868	1499.6775	1518.3586	1540.4094	1814.3595	2918.7381	2935.9645	2942.3741	2955.928	2978.047	3008.7143	3036.1546	3045.0653	3087.5467	3119.6299	3121.4692	3687.6135
CCOCCC(O)C=O	CCOCC[C@@H](O)C=O	
InChI=1S/C6H12O3/c1-2-9-4-3-6(8)5-7/h5-6,8H,2-4H2,1H3	InChI=1S/C6H12O3/c1-2-9-4-3-6(8)5-7/h5-6,8H,2-4H2,1H3/t6-/m1/s1
