14
gdb 27485	2.14645	1.84983	0.99972	3.689	68.75	-0.2657	-0.0573	0.2084	1108.936	0.100305	-473.887765	-473.87989	-473.878946	-473.920798	28.526	
C	 0.0718257684	 1.4939533028	 0.0634605767	-0.473867
C	-0.0807571322	 0.0163581179	-0.0505886145	 0.411138
C	-1.1685352944	-0.7008521817	 0.2730647152	-0.379675
C	-1.1707694118	-2.137570814	 0.1087244116	 0.447924
O	-2.0494391129	-2.9101138937	 0.3491658425	-0.31546
O	 0.0338050414	-2.6607809673	-0.4024281248	-0.257102
C	 1.1230346009	-1.9173623637	-0.7264719136	 0.468253
N	 2.1946304981	-2.3798817867	-1.1843992306	-0.529252
O	 1.0439773584	-0.5617542414	-0.537956816	-0.232993
H	 0.9119563484	 1.7340403159	 0.7233105626	 0.163745
H	 0.2982761698	 1.9241363075	-0.9176172812	 0.16375
H	-0.8380423257	 1.9481843611	 0.4563815952	 0.148232
H	-2.0611546537	-0.2334587367	 0.6608675091	 0.138182
H	 2.1287210854	-3.3910082603	-1.2775949521	 0.247127
72.3984	130.275	150.2132	182.3574	296.9042	377.7009	482.2006	532.0516	557.1276	575.0029	643.586	709.3573	740.21	833.9915	844.5322	861.1006	918.6207	1017.9188	1059.788	1065.0217	1077.7072	1141.8369	1210.1674	1336.6758	1383.6129	1420.4871	1467.0702	1477.8737	1703.7933	1778.8012	1879.0224	3047.5023	3106.2718	3155.7985	3252.0428	3539.8109
CC1=CC(=O)OC(=N)O1	CC1=CC(=O)O[C]([NH])O1	
InChI=1S/C5H5NO3/c1-3-2-4(7)9-5(6)8-3/h2,6H,1H3	InChI=1S/C5H5NO3/c1-3-2-4(7)9-5(6)8-3/h2,6H,1H3
