14
gdb 7626	4.88461	1.35623	1.20253	5.5414	58.58	-0.2511	0.0098	0.2609	969.3008	0.107015	-415.911828	-415.903843	-415.902899	-415.945262	28.165	
N	-0.0145640487	 1.3360434352	-0.0147318689	-0.521852
C	 0.0700514108	-0.0235962419	 0.0049403364	 0.389053
O	 1.1231332792	-0.6282652628	 0.0238476952	-0.352502
C	-1.2798657657	-0.7414555703	 0.0302474794	-0.078383
C	-2.0300276592	-0.8457364562	-1.3382207061	-0.401077
C	-1.704721101	-2.3588640545	-1.2442041635	 0.431374
O	-1.8385337102	-3.3122657002	-1.9564972756	-0.338306
N	-1.1644937842	-2.1965346064	 0.0194582896	-0.304014
H	 0.837342571	 1.8686923489	-0.0812477784	 0.26856
H	-0.8919860579	 1.8179574869	-0.1060755439	 0.264256
H	-1.8907071979	-0.3553140826	 0.8548885164	 0.103594
H	-3.0915188398	-0.5940517393	-1.3219382656	 0.135418
H	-1.5409209449	-0.3466755244	-2.1767720093	 0.141836
H	-0.4297523014	-2.7378177826	 0.4548691445	 0.262043
32.4279	82.1538	176.7052	197.6105	306.8898	387.8949	420.4886	488.136	547.6068	568.3338	620.7824	693.6573	762.3988	789.5752	930.6314	985.2359	1015.1906	1062.0889	1089.89	1111.149	1177.8378	1193.9913	1268.6714	1303.4307	1360.6015	1406.0265	1458.0877	1619.133	1803.6407	1907.2777	3035.5063	3086.8277	3147.5163	3600.8989	3601.1051	3734.777
NC(=O)C1CC(=O)N1	NC(=O)[C@H]1CC(=O)N1	
InChI=1S/C4H6N2O2/c5-4(8)2-1-3(7)6-2/h2H,1H2,(H2,5,8)(H,6,7)	InChI=1S/C4H6N2O2/c5-4(8)2-1-3(7)6-2/h2H,1H2,(H2,5,8)(H,6,7)/t2-/m1/s1
