17
gdb 51434	3.97131	1.03437	0.98636	2.0153	69.38	-0.2665	-0.0009	0.2656	1220.5569	0.136641	-458.962357	-458.954768	-458.953823	-458.995413	28.284	
O	-0.1736235266	-0.0380472944	-0.0968049236	-0.269062
C	-0.1057161314	 1.1523674431	-0.0965390412	 0.168157
O	 1.0424999077	 1.8167001507	 0.1573995142	-0.199364
C	 1.0261241586	 3.2321387993	 0.1349329388	 0.143653
C	 1.7033795188	 4.0018324646	 1.2895102245	 0.027111
C	 3.0948218302	 3.3523025992	 1.4076774297	-0.218644
C	 3.4428680898	 3.3320478656	-0.1157561051	-0.218654
C	 2.1419884059	 3.9765033688	-0.6298839228	 0.027123
O	 1.9257917008	 5.0702176598	 0.3162535256	-0.296907
H	-0.9561018311	 1.8314229476	-0.2996213386	 0.084666
H	 0.0345380241	 3.6270519429	-0.0969031358	 0.106565
H	 1.174877539	 4.3173108584	 2.1881502565	 0.08892
H	 3.7700735174	 3.979850076	 1.991561117	 0.112868
H	 3.0543876414	 2.3559335945	 1.8524797334	 0.120887
H	 4.3083323491	 3.9484575769	-0.3641542797	 0.112855
H	 3.5936886374	 2.3245284427	-0.5086875763	 0.120904
H	 2.0579944189	 4.2662898842	-1.6764828869	 0.088922
47.5566	135.8689	143.3326	261.6708	322.7496	388.9203	444.1427	525.5097	722.1701	740.2473	834.543	853.1787	854.8735	862.6492	878.0076	924.5075	1000.3476	1002.3213	1004.6974	1041.7591	1043.2942	1126.2053	1134.2895	1175.2035	1178.8804	1198.9541	1234.2493	1254.2666	1272.0387	1307.1503	1311.6524	1345.4233	1382.6055	1438.3022	1472.3351	1493.1012	1871.1772	2954.8784	3077.6516	3084.614	3093.7123	3125.6164	3133.9687	3138.5162	3141.4287
O=COC1C2CCC1O2	O=CO[C@H]1[C@H]2CC[C@@H]1O2	
InChI=1S/C6H8O3/c7-3-8-6-4-1-2-5(6)9-4/h3-6H,1-2H2	InChI=1S/C6H8O3/c7-3-8-6-4-1-2-5(6)9-4/h3-6H,1-2H2/t4-,5+,6+
