21
gdb 102599	3.19078	0.69451	0.60213	3.3907	84.1	-0.2418	0.0543	0.2961	1874.6228	0.179985	-424.196809	-424.185525	-424.184581	-424.235237	38.99	
C	 0.0375202659	 1.4992670647	-0.0136466583	-0.498564
C	 0.0190627017	 0.0429992233	-0.0281198865	 0.105763
C	 0.0148809122	-1.1615101142	-0.036353902	 0.029148
C	-0.0054498724	-2.620931529	-0.0339770746	-0.376739
C	-1.4234155353	-3.2399841572	-0.0099839789	-0.012753
C	-2.2173687153	-2.7997961118	-1.2401895147	-0.082991
O	-3.5425122599	-3.3325738954	-1.1477107625	-0.425225
C	-1.3279576659	-4.7730771494	 0.0888846871	-0.051487
O	-2.553625469	-5.3974473445	 0.3993448388	-0.436292
H	 0.8575942655	 1.8800408745	 0.605247732	 0.148681
H	 0.1673076262	 1.9085622743	-1.0217324614	 0.145539
H	-0.8961455582	 1.9058458233	 0.3906570879	 0.147627
H	 0.5385587308	-2.9985575261	-0.9117680989	 0.124285
H	 0.5466288212	-2.9899441254	 0.8396321254	 0.131836
H	-1.9497329569	-2.8792192985	 0.8818730017	 0.10064
H	-2.2463976968	-1.704092954	-1.2949382437	 0.11051
H	-1.7152776451	-3.1712938477	-2.1484341857	 0.088743
H	-4.0074036983	-3.1447464781	-1.9679012538	 0.2938
H	-0.8986367418	-5.1626702533	-0.8536936403	 0.071731
H	-0.6284905293	-5.0442611856	 0.8891053572	 0.097145
H	-3.2162796192	-4.9920857298	-0.1763160485	 0.288603
19.9038	50.399	72.2663	101.6903	167.1519	215.0472	238.3429	249.6111	272.3025	309.7421	383.0618	387.098	412.7062	430.0239	548.5419	592.657	769.0003	828.9421	908.1979	921.9488	1030.0655	1052.4439	1054.0156	1061.7429	1098.6081	1099.4249	1134.6029	1169.7949	1196.0614	1228.458	1266.1477	1274.4913	1305.1343	1356.0505	1370.4501	1395.3709	1415.6359	1457.6203	1474.6369	1475.1506	1479.1835	1479.463	1508.5512	1523.3243	2370.6397	2922.982	2971.1911	3004.1969	3025.5488	3035.3457	3039.436	3042.644	3057.8126	3085.3582	3086.1155	3741.2069	3836.797
CC#CCC(CO)CO	CC#CCC(CO)CO	
InChI=1S/C7H12O2/c1-2-3-4-7(5-8)6-9/h7-9H,4-6H2,1H3	InChI=1S/C7H12O2/c1-2-3-4-7(5-8)6-9/h7-9H,4-6H2,1H3
