25
gdb 107622	2.02831	1.48369	1.19334	0.2101	91.61	-0.2524	0.0808	0.3331	1250.2137	0.230132	-352.373909	-352.364447	-352.363503	-352.407731	37.347	
C	 0.7838520972	-0.3232453119	-1.4788075498	-0.380768
C	 0.0820342191	-0.0575822457	-0.1403073296	-0.280429
C	-1.3804900033	-0.4599328517	-0.1022112214	 0.393605
C	-1.9678693686	-0.9430398321	 1.2065537784	-0.356214
C	-1.8106092651	-1.9048934179	 0.0513242331	-0.071599
C	-3.0306895699	-2.1483029262	-0.8242991836	-0.22325
C	-3.5926660204	-0.7363891333	-1.1007868697	-0.238435
C	-2.3710765435	 0.2148657382	-1.0618608153	-0.02358
C	-2.7274444093	 1.660198877	-0.7054165534	-0.404688
H	 1.8470321579	-0.0703495967	-1.4168716578	 0.10922
H	 0.7058200837	-1.37864862	-1.7612543926	 0.115122
H	 0.3546443818	 0.2702943346	-2.2920650374	 0.117672
H	 0.6126815394	-0.6004526272	 0.6516547749	 0.090747
H	 0.1774591135	 1.0067258779	 0.1155232621	 0.094975
H	-1.2796579059	-1.0547715144	 2.0383174018	 0.101536
H	-2.9629213198	-0.6301858285	 1.5070784941	 0.103419
H	-1.0716629787	-2.6947862054	 0.1449362849	 0.073001
H	-2.7150897537	-2.6260001686	-1.7599743393	 0.095359
H	-3.7738435902	-2.8080955642	-0.3623293866	 0.092855
H	-4.131230385	-0.6762387584	-2.0508287351	 0.09263
H	-4.3087117767	-0.4520708964	-0.3215097772	 0.098629
H	-1.9096993037	 0.2141121346	-2.0589250816	 0.068173
H	-3.1693447515	 1.719699698	 0.2954589119	 0.112751
H	-1.8444397178	 2.3080779724	-0.7178568482	 0.110907
H	-3.4501746293	 2.0756890059	-1.4160436627	 0.108362
71.6933	137.8945	175.6912	208.4763	234.1269	262.0087	264.6128	348.4572	394.6742	433.6682	526.4672	541.9319	630.7961	651.0304	772.4154	816.8203	837.134	852.8032	902.2363	920.4311	940.4158	961.3008	988.8303	991.6226	1035.0618	1053.4941	1064.7561	1072.3515	1091.1137	1110.6124	1139.4217	1146.4567	1198.1925	1227.6552	1260.3434	1268.8759	1307.7758	1323.2996	1338.5439	1349.2517	1360.3501	1376.6772	1407.7179	1409.3389	1415.4689	1481.0028	1487.0182	1492.1302	1497.606	1499.5693	1500.6923	1508.7524	1513.4236	3004.8995	3011.1426	3026.1878	3026.7115	3034.7762	3041.0712	3045.1202	3063.5891	3088.2027	3093.2042	3096.0421	3101.3929	3104.4191	3122.483	3152.6648	3201.7804
CCC12CC1CCC2C	CC[C@]12C[C@H]1CC[C@H]2C	
InChI=1S/C9H16/c1-3-9-6-8(9)5-4-7(9)2/h7-8H,3-6H2,1-2H3	InChI=1S/C9H16/c1-3-9-6-8(9)5-4-7(9)2/h7-8H,3-6H2,1-2H3/t7-,8-,9-/m1/s1
