19
gdb 74778	2.95541	1.40315	1.38128	3.1554	80.63	-0.2179	-0.0121	0.2058	1052.0357	0.161006	-385.930081	-385.922561	-385.921617	-385.961857	30.274	
C	 0.0142546504	 1.4783601807	 0.0344920897	-0.511827
C	-0.0628925083	-0.0094242725	-0.0225418271	 0.35115
C	-0.0823923994	-0.8202195775	-1.0889870551	-0.20449
C	-0.0273902546	-2.2641584233	-0.5961086474	-0.147884
C	-0.8033403813	-2.129747345	 0.7351616049	-0.230127
C	 0.0164727858	-0.9070700575	 1.2177347732	-0.113443
C	 1.4520859303	-1.5038106783	 1.2137148624	-0.328368
C	 1.4201074482	-2.3819668288	-0.0587388294	 0.433191
O	 2.3271477943	-3.0154162624	-0.5271065789	-0.331976
H	 0.936726768	 1.8056313637	 0.5329500302	 0.130559
H	-0.0065659698	 1.9232845067	-0.9640275108	 0.128783
H	-0.8159783396	 1.8986186682	 0.6161926522	 0.129054
H	-0.0171274041	-0.5333446122	-2.130953149	 0.102598
H	-0.303467729	-3.0455341706	-1.3009753995	 0.077661
H	-1.8592599642	-1.8990530897	 0.5747382594	 0.104831
H	-0.708992866	-3.0012524874	 1.3925515181	 0.098465
H	-0.2877715228	-0.4496703142	 2.1602191372	 0.065111
H	 2.2505831347	-0.759660181	 1.1695497314	 0.124216
H	 1.6419476074	-2.1468846287	 2.0805318883	 0.122496
107.9264	182.1118	197.9132	300.0879	361.0057	432.2288	487.8229	498.4697	575.8607	613.4775	667.2239	738.312	794.3463	842.0458	845.944	896.6067	920.3662	935.3107	953.4956	997.8558	1002.8698	1016.775	1061.1972	1097.6513	1120.1009	1147.7691	1153.9645	1214.944	1219.9301	1259.1578	1262.6026	1292.1528	1309.0618	1342.0522	1414.191	1457.6372	1477.412	1485.3314	1494.8295	1688.6482	1853.9872	3012.9021	3044.4174	3051.0919	3058.2675	3101.4181	3108.2581	3110.4467	3110.9952	3143.7029	3211.1875
CC1=CC2CC1CC2=O	CC1=C[C@@H]2C[C@H]1CC2=O	
InChI=1S/C8H10O/c1-5-2-7-3-6(5)4-8(7)9/h2,6-7H,3-4H2,1H3	InChI=1S/C8H10O/c1-5-2-7-3-6(5)4-8(7)9/h2,6-7H,3-4H2,1H3/t6-,7+/m0/s1
