23
gdb 112806	2.37215	1.1038	0.89387	2.8193	81.36	-0.2433	0.0686	0.312	1424.6737	0.204682	-425.413522	-425.403218	-425.402274	-425.449153	37.844	
C	-0.1519021803	 1.8189228562	 0.0921735433	-0.390842
C	-0.0217259107	 0.3040865961	 0.2909648433	-0.197005
C	-1.3525965422	-0.4315640782	 0.1439763748	-0.072387
C	-1.9459794759	-0.753529562	-1.2627857231	 0.150614
C	-1.1147877188	-0.5428880645	-2.5153630953	-0.406804
O	-2.0610155135	-2.1616043004	-0.9227603397	-0.326844
C	-1.427850401	-1.9636688103	 0.3677375657	 0.094723
C	-0.1547920077	-2.7969107498	 0.4358142445	-0.067995
O	-0.4650085923	-4.1544204742	 0.1854418509	-0.425039
H	 0.8129287954	 2.3183859743	 0.2218243197	 0.11671
H	-0.5193991441	 2.0644201867	-0.9095721025	 0.120879
H	-0.8522325565	 2.2517449012	 0.8151059564	 0.117548
H	 0.722903088	-0.0939337548	-0.4064862518	 0.102759
H	 0.3733855181	 0.1092795626	 1.296411133	 0.101972
H	-2.0977547386	 0.0793647561	 0.7615791185	 0.078717
H	-2.9453572181	-0.3258125277	-1.4158408146	 0.077848
H	-0.1004525638	-0.9356298169	-2.4043952479	 0.120992
H	-1.5869928242	-1.0650055414	-3.3537530034	 0.128243
H	-1.0533776486	 0.5198121035	-2.7721957421	 0.118976
H	-2.1013224647	-2.2804507567	 1.174348432	 0.08067
H	 0.5883574321	-2.4204622775	-0.2841174406	 0.079912
H	 0.290105156	-2.7446222351	 1.4358484922	 0.104801
H	-0.9951929385	-4.1510754172	-0.6219829734	 0.291552
53.5967	99.8284	113.8617	136.1581	189.1505	230.3256	260.7478	271.5066	308.3985	387.1629	454.0876	480.8558	489.0985	548.9777	732.8155	776.9068	820.1241	839.1544	890.8588	941.995	983.3527	1015.8485	1042.8357	1044.0993	1064.2776	1080.3374	1093.1901	1142.0452	1167.7211	1188.7905	1215.4672	1244.7136	1282.4147	1296.7968	1322.5029	1344.8652	1348.7114	1381.2881	1399.326	1406.89	1414.3484	1415.8516	1439.2142	1479.0021	1486.6022	1495.5431	1500.3322	1501.3459	1508.6087	2982.2571	3011.0926	3020.9591	3026.3066	3034.0855	3037.6998	3053.2302	3066.288	3072.9623	3102.4561	3105.9863	3108.7976	3118.0778	3772.7581
CCC1C(C)OC1CO	CC[C@H]1[C@@H](C)O[C@H]1CO	
InChI=1S/C7H14O2/c1-3-6-5(2)9-7(6)4-8/h5-8H,3-4H2,1-2H3	InChI=1S/C7H14O2/c1-3-6-5(2)9-7(6)4-8/h5-8H,3-4H2,1-2H3/t5-,6+,7+/m1/s1
