22
gdb 87151	2.73187	1.21003	1.17821	1.421	82.11	-0.228	0.0836	0.3117	1222.8896	0.191213	-404.301423	-404.29135	-404.290406	-404.33597	37.855	
C	 0.4853310338	 1.8529290588	 1.1681897901	-0.316352
N	-0.1414004702	 0.5401739674	 1.1270696843	-0.106826
C	-0.2692852963	-0.1233691233	-0.1640514088	-0.293414
C	 0.6567306847	-0.6647437425	 0.8777133277	 0.238019
C	 2.1565622336	-0.6011242415	 0.6411789719	-0.471223
C	 0.2451627981	-1.8327204055	 1.7576924859	 0.383074
C	 0.3956422544	-1.6015544804	 3.2457358356	-0.466606
C	-0.6945622928	-2.8540242074	 1.2722659512	-0.222741
O	 0.71192643	-3.1111996554	 1.290782334	-0.286024
H	 1.2548522671	 2.0200693867	 0.399454282	 0.101767
H	-0.2915203287	 2.6125138146	 1.0337052843	 0.125314
H	 0.9419714632	 2.0094952039	 2.1508227153	 0.122847
H	-1.2309778641	-0.5849583261	-0.3709876288	 0.109228
H	 0.1959857938	 0.3520397158	-1.0282517018	 0.102157
H	 2.433094562	 0.1851076813	-0.0636468537	 0.116648
H	 2.7017675914	-0.427537347	 1.5757464931	 0.119918
H	 2.4919448336	-1.5585567336	 0.2342329422	 0.146539
H	-0.2399798934	-0.7687423552	 3.5581395312	 0.138232
H	 0.1167379168	-2.4983389817	 3.8042259353	 0.121533
H	 1.4320283235	-1.3539974918	 3.4995009953	 0.119993
H	-1.2825200673	-3.4231161272	 1.9923822943	 0.107746
H	-1.137222663	-2.7702124798	 0.2821234494	 0.110171
56.346	148.8229	175.6226	187.6277	195.353	227.0168	282.4111	294.8384	322.4016	352.6142	423.3588	445.573	498.0748	530.3082	627.631	782.7693	793.9212	836.4137	906.8669	922.2409	938.3964	982.2114	1021.3008	1060.2538	1089.893	1102.538	1124.4827	1135.7888	1147.1337	1163.0663	1173.8604	1196.8283	1217.7072	1294.6646	1381.4062	1399.6657	1406.356	1409.2485	1451.0261	1478.4943	1486.8555	1489.005	1497.3879	1500.8222	1511.069	1513.0599	1530.5435	2985.0812	3039.2761	3043.3319	3067.4547	3080.3037	3082.8589	3100.1524	3106.7055	3110.2365	3130.7792	3133.6059	3166.2795	3173.3602
CN1CC1(C)C1(C)CO1	CN1C[C@]1(C)[C@@]1(C)CO1	
InChI=1S/C7H13NO/c1-6(4-8(6)3)7(2)5-9-7/h4-5H2,1-3H3	InChI=1S/C7H13NO/c1-6(4-8(6)3)7(2)5-9-7/h4-5H2,1-3H3/t6-,7-,8?/m1/s1
