20
gdb 80242	2.41126	1.56838	1.25687	3.8401	78.97	-0.2349	0.0235	0.2584	1102.5332	0.171989	-403.165905	-403.15753	-403.156586	-403.198353	32.969	
C	-0.1823111283	 1.5678845521	 1.0241204106	-0.438508
C	-0.085993802	 0.1008091416	 0.6386149849	 0.032074
C	 0.9480436824	-0.3953907704	-0.4256825714	-0.04788
N	 2.251641078	 0.0195589468	 0.1407349819	-0.311693
C	 2.0919078141	-0.230341019	 1.5073435212	 0.408069
O	 2.8288995438	 0.0789308195	 2.4095961756	-0.382217
C	 0.7238884391	-0.9296775093	 1.5211423869	-0.183978
C	 0.8465165607	-1.8113734474	 0.2219117893	 0.052348
C	-0.3148585516	-2.7269876333	-0.1399743539	-0.439493
H	 0.7944350023	 2.0108703774	 1.2389860332	 0.128696
H	-0.6481730767	 2.1478111245	 0.2196728736	 0.115791
H	-0.8014709598	 1.6903858888	 1.9189768162	 0.1269
H	-1.0840485205	-0.2869937955	 0.4267301577	 0.080246
H	 0.8557706782	-0.2158173532	-1.4968043105	 0.074332
H	 2.7167528148	 0.8656108275	-0.1539454717	 0.24723
H	 0.3785841276	-1.3055213651	 2.4820090677	 0.080559
H	 1.7852465089	-2.3680627115	 0.1499650174	 0.087218
H	-1.2934739914	-2.245072517	-0.0773791277	 0.122197
H	-0.1955081786	-3.1051937635	-1.1612721933	 0.121836
H	-0.3311013209	-3.5932961131	 0.5297320622	 0.126273
147.3008	174.9123	192.1955	225.3213	238.9596	289.0637	358.2281	416.8752	487.8796	516.2021	589.6458	672.6244	722.7281	745.4516	809.7593	830.6492	843.3623	898.8109	969.9878	995.9321	1029.6382	1046.3357	1061.472	1078.2319	1100.1423	1111.588	1150.662	1177.864	1192.7748	1236.8588	1247.9729	1260.6408	1309.3792	1359.3793	1386.7791	1401.1302	1415.261	1423.4473	1495.0895	1495.4545	1496.1992	1501.3328	1861.0611	3034.1085	3036.5122	3064.7186	3086.7608	3095.4228	3096.4512	3112.2105	3118.7508	3122.1392	3146.0227	3616.5583
CC1C2NC(=O)C1C2C	C[C@H]1[C@H]2NC(=O)[C@@H]1[C@H]2C	
InChI=1S/C7H11NO/c1-3-5-4(2)6(3)8-7(5)9/h3-6H,1-2H3,(H,8,9)	InChI=1S/C7H11NO/c1-3-5-4(2)6(3)8-7(5)9/h3-6H,1-2H3,(H,8,9)/t3-,4-,5-,6+/m1/s1
