19
gdb 108035	3.4572	1.38176	1.32131	1.3643	79.67	-0.2193	0.0033	0.2226	1063.1697	0.159666	-385.853563	-385.845915	-385.844971	-385.885679	30.583	
C	-0.0593030864	 1.4935248041	-0.1602444737	-0.373517
C	-0.0528923524	-0.0073742371	 0.1605827633	-0.300447
C	-1.4210185756	-0.6072408197	 0.0915800941	 0.502914
O	-2.400034765	-0.1246978667	 0.985607904	-0.336848
C	-3.2034277838	-1.3627145729	 0.7397045809	 0.044017
C	-4.1971335301	-0.9798384203	-0.3250879378	-0.107524
C	-3.5105940366	-0.7758121641	-1.4600661479	-0.057668
C	-2.0878010034	-1.1290901619	-1.256217456	-0.174546
C	-1.9860132719	-1.9785851377	-0.0057499419	-0.241827
H	 0.9445595218	 1.9169380345	-0.0642486668	 0.110078
H	-0.4110633433	 1.6735417962	-1.180847523	 0.11857
H	-0.7247565725	 2.0290264579	 0.5222262629	 0.139607
H	 0.5989686793	-0.5451029629	-0.5378809536	 0.102559
H	 0.3544475974	-0.1709870166	 1.1662008609	 0.110061
H	-3.5551419697	-1.7797501361	 1.6816420744	 0.081544
H	-5.2283884696	-0.7190284735	-0.1286259298	 0.100807
H	-3.8934643125	-0.3307895696	-2.3704890227	 0.101131
H	-1.4060148578	-1.302228823	-2.0803011533	 0.084227
H	-1.5624596178	-2.9725695405	 0.072241086	 0.096862
84.0413	131.7049	196.1496	310.6476	342.4052	411.7007	449.4508	584.2082	632.2197	681.5288	720.3008	759.836	795.6913	805.4575	833.3329	866.3868	881.6662	904.6738	928.126	970.3141	979.4397	992.5285	1023.2566	1037.2955	1068.3112	1105.3372	1123.5265	1171.8135	1203.7315	1253.721	1270.3375	1282.798	1321.3175	1340.6095	1362.9217	1407.2086	1442.6642	1476.6776	1495.2085	1509.9247	1623.451	3026.1391	3042.9709	3064.596	3112.5824	3122.9827	3133.9444	3178.5692	3188.1562	3202.8569	3230.5914
CCC12OC3C=CC1C23	CC[C@@]12O[C@H]3C=C[C@@H]1[C@@H]23	
InChI=1S/C8H10O/c1-2-8-5-3-4-6(9-8)7(5)8/h3-7H,2H2,1H3	InChI=1S/C8H10O/c1-2-8-5-3-4-6(9-8)7(5)8/h3-7H,2H2,1H3/t5-,6+,7-,8-/m1/s1
