14
gdb 129433	4.6048	1.05671	0.86029	1.5704	67.28	-0.241	-0.0439	0.1971	1249.1968	0.101735	-470.035623	-470.027338	-470.026394	-470.068727	30.395	
N	-0.1449517882	 1.3136819881	-0.0137869455	-0.537843
C	 0.04997564	-0.0312294078	-0.0212713253	 0.31797
O	 1.1403509103	-0.5710522572	-0.0263663974	-0.356862
C	-1.2021114797	-0.8346753137	-0.0227792107	 0.388472
C	-1.3837040966	-2.1785959526	-0.0488239694	-0.397748
C	-2.8038469624	-2.3208885826	-0.0399033159	 0.425396
N	-3.5238938321	-3.495056919	-0.1290822729	-0.589947
N	-3.4143030667	-1.1508959425	-0.0014787598	-0.22191
O	-2.3877305953	-0.1998895751	-0.0014295689	-0.242726
H	 0.661501618	 1.9149637839	-0.0148505206	 0.269011
H	-1.0687169224	 1.7111839272	-0.0131660248	 0.280066
H	-0.6225976531	-2.9391173687	-0.081101078	 0.141993
H	-3.1048822494	-4.2840436822	 0.3402500941	 0.260278
H	-4.5017565924	-3.3858664478	 0.1026419351	 0.263849
70.057	143.3255	164.6351	214.8925	297.4564	349.1819	360.2119	404.7238	515.0628	541.1406	615.5288	638.6861	646.5462	725.5978	748.0094	784.7294	849.203	950.8207	992.3625	1024.1464	1091.3811	1118.6732	1140.0392	1289.8543	1360.4986	1493.7173	1536.6482	1609.1393	1642.2405	1672.8007	1791.1431	3289.7374	3565.0238	3606.4776	3667.6097	3745.0609
NC(=O)C1=CC(N)=NO1	NC(=O)c1cc(N)no1	
InChI=1S/C4H5N3O2/c5-3-1-2(4(6)8)9-7-3/h1H,(H2,5,7)(H2,6,8)	InChI=1S/C4H5N3O2/c5-3-1-2(4(6)8)9-7-3/h1H,(H2,5,7)(H2,6,8)
