22
gdb 102625	1.95793	1.11501	0.86631	5.2371	79.57	-0.2415	0.0218	0.2633	1462.0862	0.192803	-441.515949	-441.505447	-441.504503	-441.552307	37.614	
C	 0.1895165259	 1.4830851612	-0.1614902949	-0.394899
C	 0.1198777404	-0.0334240722	-0.328599567	-0.130846
N	-1.2140332278	-0.5969288634	-0.0490590039	-0.100537
H	-1.4139984718	-0.4305409193	 1.8678882088	 0.294283
C	-2.1825802496	-0.3378215132	-1.1260051411	-0.127457
C	-3.6349122857	-0.4126950249	-0.6578220249	-0.392867
C	-1.1199507836	-2.0120712563	 0.3163901389	-0.308024
C	-0.8478109605	-2.1913197615	 1.8184689277	 0.410503
O	-1.1386877743	-1.0960593175	 2.5371318074	-0.36217
O	-0.4488521924	-3.2144802378	 2.3028243975	-0.333737
H	 1.2104262822	 1.8293971331	-0.3485964658	 0.125626
H	-0.4675010627	 2.0131439139	-0.8570122667	 0.124862
H	-0.0884478608	 1.7731089371	 0.856246421	 0.128407
H	 0.4575205612	-0.324324667	-1.3387725532	 0.096274
H	 0.8207082762	-0.4936624645	 0.3754376585	 0.1228
H	-1.9913394047	 0.6685044928	-1.5071135392	 0.11018
H	-2.0168026645	-1.0266663092	-1.9724380493	 0.094305
H	-3.9032580075	-1.4057882913	-0.2847293477	 0.12708
H	-3.819102727	 0.3093527008	 0.1431528504	 0.12694
H	-4.3081224869	-0.1847241756	-1.4897490901	 0.123442
H	-2.072728977	-2.5103939668	 0.1142717316	 0.138229
H	-0.3508262892	-2.5606316386	-0.244418718	 0.127608
59.6215	79.5837	84.2297	100.349	167.8939	222.5165	259.5676	282.3834	307.3712	391.8841	415.0528	458.9481	528.6711	577.9549	642.9573	788.0325	805.2567	829.3287	860.1163	875.6414	920.027	1007.9499	1012.5969	1075.2961	1088.527	1105.1889	1135.9753	1189.2549	1210.901	1235.7482	1281.5555	1316.962	1329.4315	1364.9523	1398.5567	1399.4114	1417.6684	1423.1433	1429.323	1472.1368	1488.1943	1490.1381	1498.2483	1501.1726	1508.4687	1516.2877	1878.6209	2954.5282	2958.9664	3019.4257	3042.8386	3043.8845	3067.962	3086.3615	3092.6117	3113.3045	3115.4148	3117.8042	3119.2533	3465.1507
CC[NH+](CC)CC([O-])=O	CCN(CC)CC(=O)O	
InChI=1S/C6H13NO2/c1-3-7(4-2)5-6(8)9/h3-5H2,1-2H3,(H,8,9)	InChI=1S/C6H13NO2/c1-3-7(4-2)5-6(8)9/h3-5H2,1-2H3,(H,8,9)
