16
gdb 54774	3.80256	1.1456	1.08173	3.0925	71.22	-0.2471	-0.0159	0.2312	1140.1335	0.12237	-437.850444	-437.842165	-437.841221	-437.88396	30.062	
C	-0.0659373687	 1.4603421303	-0.1402906084	-0.483983
C	-0.008835935	-0.0553011102	-0.0758319405	 0.368808
O	 0.9370222308	-0.7086437894	-0.4622462704	-0.343705
N	-1.098530803	-0.6485111869	 0.5573060532	-0.115018
C	-2.5591973241	-0.415348281	 0.2064333274	-0.178815
C	-2.382852538	-1.4241955165	-0.9760083501	-0.236582
C	-1.5588283665	-2.0434877387	 0.2053951753	-0.151431
C	-2.7920096365	-1.6830584833	 1.0781241426	 0.488788
O	-3.5272049586	-2.1305863132	 1.8908131979	-0.300234
H	 0.9453668647	 1.8454255977	-0.2720982027	 0.153097
H	-0.6692492795	 1.7722555441	-1.0007778448	 0.14083
H	-0.517021209	 1.8867346804	 0.7589334007	 0.142335
H	-3.0221720087	 0.5678418875	 0.2252104765	 0.116967
H	-3.2658837103	-1.9619321132	-1.3306271924	 0.124975
H	-1.7597776742	-1.0556938419	-1.791635439	 0.139897
H	-0.8832632032	-2.8924415156	 0.2082009847	 0.134071
86.7035	99.1505	107.4498	158.0509	203.8517	385.2432	446.8248	508.3173	557.0876	623.1828	663.5225	687.7394	750.1013	818.4356	832.0101	880.5343	942.8691	991.7719	995.2765	1015.3703	1052.4223	1071.8536	1108.3721	1134.2323	1158.8288	1196.8373	1205.2166	1232.1106	1337.841	1390.4545	1469.8943	1481.1446	1492.8223	1781.9642	1954.0452	3043.7982	3067.6293	3113.732	3152.3614	3159.6584	3164.2647	3191.4154
CC(=O)N1C2CC1C2=O	CC(=O)N1[C@H]2C[C@@H]1C2=O	
InChI=1S/C6H7NO2/c1-3(8)7-4-2-5(7)6(4)9/h4-5H,2H2,1H3	InChI=1S/C6H7NO2/c1-3(8)7-4-2-5(7)6(4)9/h4-5H,2H2,1H3/t4-,5+
