19
gdb 63147	2.3504	2.01782	1.587	1.6012	68.9	-0.2482	0.0761	0.3243	930.906	0.160777	-460.167631	-460.160017	-460.159073	-460.199136	30.955	
C	-0.0806640993	 1.572824724	-0.0068016916	-0.45632
C	 0.0232600191	 0.0562665022	 0.0026312984	 0.414465
O	-1.2902388885	-0.4537003754	-0.1138680786	-0.507044
C	 1.0445509956	-0.5906535956	-0.9920916754	-0.139213
C	 2.3672334908	-0.0763539184	-0.4094065383	-0.091676
O	 2.1251627001	-0.1056576656	 1.0209897266	-0.268998
C	 0.8063046446	-0.5719643841	 1.1751247698	 0.161665
O	 0.7175515156	-1.9648713019	 0.8836318908	-0.297939
C	 0.9316367655	-2.0612236537	-0.5528669073	-0.106087
H	 0.8802833421	 2.0565675095	 0.1722212779	 0.13244
H	-0.4785127243	 1.917273041	-0.9661522522	 0.125632
H	-0.778097923	 1.8892277224	 0.7736727046	 0.128679
H	-1.2938779793	-1.3213074443	 0.3089051279	 0.290621
H	 0.8844856891	-0.4040266074	-2.0531943486	 0.084124
H	 3.2188626661	-0.7254618502	-0.6424429684	 0.108337
H	 2.6129367996	 0.9448275032	-0.7207070318	 0.105729
H	 0.4742167577	-0.4043098508	 2.1986450064	 0.096616
H	 0.0829439445	-2.5787384434	-1.0109310539	 0.108258
H	 1.8437682541	-2.6355712416	-0.7459245163	 0.110709
158.3459	223.2806	226.5568	258.8332	352.8895	365.433	444.3687	481.2658	514.5559	554.217	640.9441	647.2097	765.4412	863.6793	900.0663	907.2939	917.1544	952.5176	966.7755	973.2408	983.6272	1024.2513	1081.137	1105.6707	1122.1408	1171.293	1185.447	1195.759	1215.3333	1254.4563	1285.7641	1298.4188	1318.3232	1370.3479	1389.5837	1401.8717	1422.6488	1483.1	1499.5959	1522.5589	1538.252	3028.9429	3039.7571	3051.5927	3066.8112	3083.1614	3115.1364	3131.596	3145.6297	3146.9056	3779.8969
CC1(O)C2COC1OC2	C[C@@]1(O)[C@H]2CO[C@@H]1OC2	
InChI=1S/C6H10O3/c1-6(7)4-2-8-5(6)9-3-4/h4-5,7H,2-3H2,1H3	InChI=1S/C6H10O3/c1-6(7)4-2-8-5(6)9-3-4/h4-5,7H,2-3H2,1H3/t4-,5+,6-/m1/s1
