15
gdb 14412	3.60622	2.10294	1.77691	2.7751	65.22	-0.2339	-0.0067	0.2272	784.1409	0.119159	-362.616481	-362.609874	-362.60893	-362.647074	25.478	
C	 0.0739912127	 1.5463611585	 0.015765698	-0.529458
C	-0.0509071011	 0.0616067122	-0.0175528636	 0.351061
C	 0.4954853453	-0.9627118127	-0.9928090274	-0.221017
N	 0.922956213	-0.936980785	 0.4510812484	-0.171485
C	-0.169511283	-1.6609233529	 1.2035753432	-0.161113
C	-1.2150498362	-0.9676732375	 0.3199776105	-0.249241
C	-0.8816507186	-1.550586647	-1.0701332906	 0.443115
O	-1.5325134017	-2.0504753837	-1.942902526	-0.335077
H	 1.093406883	 1.8410744868	-0.2490163096	 0.144846
H	-0.6170124414	 2.0121098922	-0.6940053113	 0.139173
H	-0.1470017513	 1.939086291	 1.0137301555	 0.13578
H	 1.2667768869	-0.8598420115	-1.7436229472	 0.120344
H	-0.1122247453	-2.7546894467	 1.172877896	 0.115329
H	-0.151100523	-1.3125489567	 2.238553327	 0.120181
H	-2.2437477593	-0.7706492171	 0.6095888271	 0.097563
127.9149	198.6565	257.6358	302.8846	426.4501	478.5789	589.1681	608.7733	725.9433	754.8382	757.7337	816.7384	893.5995	930.1473	957.8377	1005.3096	1018.1611	1054.8906	1072.3608	1104.5225	1134.4787	1171.7103	1175.2522	1216.51	1234.6029	1307.1103	1393.4149	1429.8467	1479.9575	1490.9873	1509.7435	1883.5556	3036.9236	3044.0379	3102.4818	3111.846	3118.6035	3161.2247	3220.4888
CC12C3N1CC2C3=O	C[C@@]12[C@H]3N1C[C@@H]2C3=O	
InChI=1S/C6H7NO/c1-6-3-2-7(6)5(6)4(3)8/h3,5H,2H2,1H3	InChI=1S/C6H7NO/c1-6-3-2-7(6)5(6)4(3)8/h3,5H,2H2,1H3/t3-,5+,6-,7?/m1/s1
