14
gdb 130643	3.26679	1.74126	1.15211	4.1198	69.66	-0.2668	-0.0676	0.1993	975.3165	0.104798	-432.915365	-432.908841	-432.907897	-432.946759	24.262	
O	-0.0242713514	-0.0292122637	 0.0033488353	-0.297075
C	 0.0141837716	 1.1724895247	 0.008634194	 0.304314
C	-1.2143255697	 2.1188541448	 0.0317315089	-0.338511
C	-0.6726587833	 3.5707458947	 0.0312497721	-0.189049
N	 0.7662018704	 3.3478459874	 0.0086766399	 0.068695
N	 1.7944261953	 4.1932652054	-0.0022652117	-0.260703
C	 2.8331633575	 3.3405794347	-0.0220013556	 0.024854
N	 2.5154276601	 2.0242979544	-0.0239317382	-0.342568
C	 1.1878859978	 2.0669932917	-0.0041242962	 0.279296
H	-1.8389610123	 1.9083903603	-0.8399200555	 0.155847
H	-1.8130461266	 1.8992629534	 0.9191683562	 0.155855
H	-0.9772004583	 4.1451470877	-0.8472722742	 0.150415
H	-0.950816562	 4.1358418029	 0.9244378634	 0.150418
H	 3.8503659712	 3.7031552116	-0.0352230485	 0.138212
89.6275	175.3414	216.4749	318.3662	527.379	542.8503	603.7772	651.8521	677.9202	726.8706	760.7301	845.935	914.8047	982.9429	995.0874	1040.2596	1049.5242	1139.3262	1198.759	1203.4937	1233.9095	1266.4292	1283.5333	1310.9043	1345.5152	1415.4822	1453.9744	1471.7286	1524.7984	1546.195	1843.5367	3068.0441	3079.6466	3107.5904	3126.9236	3261.5821
O=C1CCN2N=CN=C12	O=C1CCn2ncnc12	
InChI=1S/C5H5N3O/c9-4-1-2-8-5(4)6-3-7-8/h3H,1-2H2	InChI=1S/C5H5N3O/c9-4-1-2-8-5(4)6-3-7-8/h3H,1-2H2
