17
gdb 61089	5.58224	0.58609	0.55885	1.3255	78.52	-0.2485	-0.033	0.2155	1895.6513	0.133186	-455.177129	-455.167215	-455.166271	-455.213527	33.218	
C	-0.136536948	 1.4719664638	 0.0995246103	-0.339224
N	-0.0316063605	 0.0187592851	 0.0127513435	-0.089716
C	 0.0272960888	-0.7456313785	 1.1641895771	 0.170396
O	-0.0008551237	-0.3057884679	 2.2869081597	-0.312843
C	 0.0086344491	-0.5933455649	-1.2261653021	 0.12081
N	-0.0400319584	 0.0685625437	-2.3058690164	-0.260676
C	-0.0018761176	-0.6697860661	-3.5476416793	-0.233549
C	-1.1827013958	-0.2919541685	-4.4355868334	 0.157524
O	-1.6382024283	-1.0111719324	-5.2840297952	-0.232565
H	 0.7127368656	 1.9372005872	-0.4060352423	 0.149203
H	-1.0527897731	 1.8095009929	-0.3904887293	 0.148388
H	-0.1469696508	 1.7354546243	 1.1556377236	 0.167427
H	 0.1048540189	-1.8248467085	 0.9375485796	 0.094568
H	 0.0884801681	-1.6865591599	-1.1721440815	 0.110874
H	 0.9008122572	-0.3793691756	-4.1083903052	 0.140888
H	 0.0209405013	-1.7650161856	-3.4379626072	 0.115897
H	-1.5837170228	 0.7266217408	-4.2400168921	 0.092598
40.0115	70.758	97.6139	121.0229	145.2224	188.8749	305.0249	317.6722	331.3143	377.8098	412.3335	472.0933	582.6454	740.0283	777.435	886.5409	989.3901	1028.3867	1036.6119	1073.6413	1102.418	1108.3257	1160.0073	1231.4539	1306.3902	1318.6625	1368.1905	1403.579	1426.4001	1447.5364	1456.6676	1459.5401	1488.5711	1510.461	1740.0648	1824.4571	1841.8341	2900.0387	2965.04	2977.483	3019.9171	3040.1995	3062.6685	3127.1244	3180.4446
CN(C=O)C=NCC=O	CN(C=O)C=NCC=O	
InChI=1S/C5H8N2O2/c1-7(5-9)4-6-2-3-8/h3-5H,2H2,1H3	InChI=1S/C5H8N2O2/c1-7(5-9)4-6-2-3-8/h3-5H,2H2,1H3
