16
gdb 71113	2.66124	2.02761	1.60647	1.7644	66.79	-0.2468	-0.0336	0.2132	864.5623	0.126473	-437.888223	-437.881579	-437.880635	-437.918892	27.303	
O	 0.0469399277	 1.3818904202	-0.0245662572	-0.496913
C	 0.0009729993	 0.0018074968	-0.0832335451	 0.272721
C	-1.3668750481	-0.7278163947	-0.0071339675	-0.290857
C	-0.7915813741	-2.1426399887	-0.0375548851	-0.03075
C	 0.5422570212	-2.1428291383	 0.671635199	-0.172446
N	 0.4513172675	-2.1559020493	-0.8229627538	-0.124958
C	 0.6577274147	-0.7398975109	-1.2625970063	-0.205185
C	 0.7351302981	-0.7181584142	 1.0658607617	 0.399363
O	 1.2829887816	-0.1793995363	 1.9919817404	-0.354529
H	 0.5184070039	 1.6017868462	 0.7942141647	 0.291785
H	-1.9088569299	-0.5015923657	 0.9152128153	 0.12039
H	-2.0115017734	-0.5104543416	-0.8637560689	 0.118634
H	-1.4063122546	-3.0344596234	-0.0720899218	 0.111262
H	 0.9796627138	-2.9948550445	 1.1734973232	 0.119148
H	 0.1608328499	-0.5767235523	-2.222507518	 0.119653
H	 1.7257550425	-0.5291199933	-1.3651030005	 0.122681
156.3888	254.2956	341.457	385.7103	399.4646	444.2211	507.5363	605.3645	650.0468	658.1988	747.3448	774.0881	792.6759	827.0039	901.9057	924.1346	936.9696	993.0864	997.0846	1045.521	1111.8272	1115.4936	1143.8755	1159.9111	1201.4979	1209.2727	1218.533	1269.972	1286.4655	1338.1223	1379.1184	1419.4661	1490.9996	1512.288	1867.3017	3058.3056	3062.9816	3110.1974	3117.1807	3183.1844	3216.778	3699.8053
OC12CC3C(N3C1)C2=O	O[C@@]12C[C@@H]3[C@@H](N3C1)C2=O	
InChI=1S/C6H7NO2/c8-5-4-3-1-6(5,9)2-7(3)4/h3-4,9H,1-2H2	InChI=1S/C6H7NO2/c8-5-4-3-1-6(5,9)2-7(3)4/h3-4,9H,1-2H2/t3-,4-,6+,7?/m1/s1
