18
gdb 85814	2.57047	1.27717	1.07669	3.1412	72.43	-0.2724	0.0106	0.283	1171.0863	0.145435	-439.08188	-439.072251	-439.071307	-439.116042	35.48	
C	-0.163033643	 1.4607976439	 0.0337484898	-0.390695
C	 0.0135049044	-0.0520652374	-0.0550713495	-0.077997
C	 1.1838756045	-0.5218507467	-0.9644790751	 0.138324
O	 1.5701793793	 0.4275155098	-1.9257157493	-0.421464
C	 2.0769027373	-0.7037598334	 0.2936585664	-0.337487
C	 0.7807321382	-0.672805588	 1.1667499366	 0.25665
O	 0.7677113056	 0.1438926944	 2.3120822995	-0.454048
C	 0.30740906	-2.0272108495	 1.4923758862	 0.234663
N	-0.0434450396	-3.0954493952	 1.7629723768	-0.340138
H	 0.7750859255	 1.9744780057	 0.2524584242	 0.129241
H	-0.5366669668	 1.8382734661	-0.9212542722	 0.129422
H	-0.8792683984	 1.713792712	 0.8189034	 0.128856
H	-0.9470198497	-0.5278932943	-0.2635906543	 0.096375
H	 0.9549771959	-1.4888554181	-1.4306599025	 0.08656
H	 2.2512656481	 0.0398782945	-2.4837981537	 0.289292
H	 2.7213492334	-1.5819309957	 0.3632513097	 0.112534
H	 2.6507758713	 0.2051797419	 0.4887684672	 0.126272
H	 1.2857469241	-0.28352718	 3.0036348601	 0.293641
70.123	141.1685	182.2376	197.3528	229.4853	242.4754	256.7382	265.8693	380.276	394.7269	442.0857	469.3875	572.0424	596.2945	646.2028	733.0882	815.2928	885.3976	908.1431	956.8697	1015.1871	1050.0247	1072.9273	1095.6747	1135.5194	1186.3325	1200.1215	1233.7987	1241.4844	1288.3951	1320.6358	1337.3249	1367.6586	1407.5233	1433.133	1475.8382	1490.2234	1491.6511	2344.6998	3015.7665	3057.8516	3072.0392	3083.9365	3130.9103	3136.5133	3140.2577	3803.0365	3824.8562
CC1C(O)CC1(O)C#N	C[C@H]1[C@@H](O)C[C@]1(O)C#N	
InChI=1S/C6H9NO2/c1-4-5(8)2-6(4,9)3-7/h4-5,8-9H,2H2,1H3	InChI=1S/C6H9NO2/c1-4-5(8)2-6(4,9)3-7/h4-5,8-9H,2H2,1H3/t4-,5-,6-/m0/s1
