18
gdb 44801	2.79909	1.48907	1.15502	3.4629	76.93	-0.2322	-0.016	0.2162	1098.5668	0.147574	-401.904994	-401.896936	-401.895992	-401.938168	30.796	
O	 0.537428873	 0.2603138532	 0.8970460458	-0.321593
C	 0.2835894004	 1.3760550556	 0.5423906319	 0.401977
C	-1.0422949458	 2.1256227245	 0.2249811253	-0.339371
C	-0.1592964895	 3.2150682586	-0.3971181194	-0.123628
N	 0.6538152323	 3.7279019176	 0.7135619926	-0.372699
C	 1.1222005582	 2.500862959	-0.0362671057	 0.250585
C	 2.4567652924	 2.429937189	-0.6704420181	-0.141507
C	 3.5897639966	 1.7026360311	 0.022388283	-0.264842
C	 2.9804022637	 1.1232827846	-1.2256875918	-0.279274
H	-1.6384694606	 1.5517252553	-0.4901692588	 0.129594
H	-1.6580820596	 2.4361143356	 1.0714837548	 0.133367
H	-0.3614802567	 3.7999235188	-1.2849873039	 0.11004
H	 1.2336419791	 4.4897386948	 0.3570792803	 0.233599
H	 2.7290635853	 3.3275235855	-1.2214189109	 0.079207
H	 4.580531582	 2.1394209071	-0.0330884924	 0.113265
H	 3.3611171752	 1.2090032274	 0.9597557157	 0.138905
H	 2.3596785498	 0.2430022993	-1.1105516533	 0.139837
H	 3.5467974641	 1.163418483	-2.149222425	 0.112538
49.6345	121.6365	164.7484	181.323	346.8805	396.8542	441.5665	477.4012	561.1971	645.8267	668.9297	777.9964	805.7184	819.1059	855.7395	869.9496	920.0764	933.094	947.9874	1000.4822	1018.5502	1037.0747	1067.7006	1091.0345	1092.6932	1125.57	1129.2968	1168.4284	1192.8218	1201.3142	1223.5711	1263.2281	1331.9522	1371.0387	1439.5579	1463.9819	1464.8975	1502.8353	1877.7631	3068.3849	3124.5628	3130.3116	3139.6792	3145.0214	3205.1129	3225.2377	3239.1745	3450.669
O=C1CC2NC12C1CC1	O=C1C[C@H]2N[C@@]12C1CC1	
InChI=1S/C7H9NO/c9-6-3-5-7(6,8-5)4-1-2-4/h4-5,8H,1-3H2	InChI=1S/C7H9NO/c9-6-3-5-7(6,8-5)4-1-2-4/h4-5,8H,1-3H2/t5-,7-/m1/s1
