19
gdb 114329	2.27646	1.27121	1.12853	2.8038	71.15	-0.2378	0.0641	0.3019	1185.5938	0.157569	-460.112714	-460.103233	-460.102288	-460.146743	35.451	
O	-0.043152418	 1.586237369	 0.030718523	-0.420685
C	 0.0377238208	 0.1710094902	 0.1677102831	-0.109973
C	-1.3223982328	-0.4955626227	 0.0006034903	-0.044987
C	-1.9765479371	-0.6063912876	-1.4190466849	-0.265379
C	-2.202559925	-2.1067729299	-1.1954196723	-0.175304
C	-0.8840903018	-2.7994602394	-0.9721722222	 0.021616
O	 0.3105884352	-2.4210915397	-1.6012984472	-0.418424
C	-1.4608128154	-2.0166908724	 0.1596027659	 0.329961
O	-1.8092803087	-2.617339452	 1.3584412069	-0.459697
H	-0.2779642555	 1.7733319809	-0.8835635213	 0.281407
H	 0.7625324589	-0.2626989624	-0.5319975778	 0.111144
H	 0.4102077681	-0.004366341	 1.1839730984	 0.100269
H	-2.0308151634	-0.0153318142	 0.6826644184	 0.091121
H	-2.9008331921	-0.0347697737	-1.5139580055	 0.108681
H	-1.3192154867	-0.363344478	-2.2605862426	 0.087651
H	-3.0961656516	-2.6595639167	-1.4596477184	 0.09411
H	-0.989531618	-3.8743177918	-0.8147648296	 0.092066
H	 0.2447415614	-2.6599091937	-2.5324959897	 0.287439
H	-1.0102672381	-2.9623506451	 1.7714710855	 0.288983
84.0418	141.6949	159.3254	177.7564	246.4524	268.4707	287.5371	308.5584	325.3928	374.0498	466.6672	524.3433	585.4384	635.3618	777.4284	810.1023	836.2569	880.3104	907.2701	984.2433	1004.5977	1037.7801	1049.7617	1086.4612	1114.0431	1134.6414	1154.2151	1185.6596	1224.6028	1231.4116	1246.5503	1288.6725	1296.4311	1322.1912	1344.0913	1349.581	1398.2848	1417.2796	1467.9226	1497.3335	1511.3423	3027.3411	3047.7635	3058.9522	3077.531	3094.6837	3116.7189	3184.8553	3795.9596	3799.3482	3818.051
OCC1CC2C(O)C12O	OC[C@H]1C[C@H]2[C@@H](O)[C@@]12O	
InChI=1S/C6H10O3/c7-2-3-1-4-5(8)6(3,4)9/h3-5,7-9H,1-2H2	InChI=1S/C6H10O3/c7-2-3-1-4-5(8)6(3,4)9/h3-5,7-9H,1-2H2/t3-,4+,5-,6-/m1/s1
