15
gdb 132525	3.1178	1.3776	0.9611	1.5673	71.98	-0.228	-0.0196	0.2084	1145.5842	0.112995	-461.997392	-461.989659	-461.988715	-462.029873	29.09	
C	-0.0695771726	 1.5276218008	 0.046676276	-0.499854
C	-0.0147738412	 0.0258576126	-0.026568817	 0.105029
C	-0.058365115	-0.6999603301	-1.2193744472	-0.130156
C	-0.0037674517	-2.0867479184	-1.220594652	-0.220742
C	 0.0962111871	-2.7241038327	 0.0160643868	 0.438974
O	 0.1522847792	-4.0705115952	 0.0654081336	-0.417758
N	 0.1404031401	-2.0675770386	 1.173445369	-0.41964
C	 0.0856047866	-0.7544067171	 1.1231968761	 0.285475
F	 0.1322981192	-0.1312317955	 2.3011216264	-0.069359
H	 0.8243194627	 1.9394214013	 0.5269426077	 0.140022
H	-0.146790032	 1.9607060595	-0.9538338189	 0.12316
H	-0.929160876	 1.8703060185	 0.6323217776	 0.14002
H	-0.1364654049	-0.1637101544	-2.1604007221	 0.110561
H	-0.0359684504	-2.6690817796	-2.1318804684	 0.112408
H	 0.2181829689	-4.3057610512	 1.0006445124	 0.30186
82.2106	133.1343	244.292	273.4133	327.8445	347.0804	466.5416	486.446	518.3381	544.689	580.8845	700.8455	752.6431	776.3035	780.8627	843.1689	970.1104	991.9383	1022.7974	1066.6734	1128.8043	1201.9265	1218.8011	1295.7364	1345.8895	1383.137	1420.0139	1463.9796	1481.3185	1506.2604	1513.0988	1637.6714	1665.8506	3036.5571	3090.504	3118.529	3178.4924	3222.2884	3780.043
CC1=CC=C(O)N=C1F	Cc1ccc(O)nc1F	
InChI=1S/C6H6FNO/c1-4-2-3-5(9)8-6(4)7/h2-3H,1H3,(H,8,9)	InChI=1S/C6H6FNO/c1-4-2-3-5(9)8-6(4)7/h2-3H,1H3,(H,8,9)
