16
gdb 49406	4.65453	1.41769	1.37905	0.8871	71.14	-0.2356	-0.0298	0.2058	937.788	0.125168	-400.6602	-400.653692	-400.652748	-400.691408	25.657	
O	-0.7111619334	 1.0004232427	-0.4698289767	-0.250109
C	 0.2125518671	 1.0211870264	 0.3073662284	 0.129822
C	 1.3811275637	 1.9625599722	 0.2250661788	-0.115107
C	 1.4457371367	 2.82663683	-1.0595653649	-0.06258
C	 2.5315702942	 3.8821406781	-0.7784899107	-0.064372
C	 1.5687248429	 4.9550143064	-0.4358421592	-0.059181
C	 0.4516456656	 3.8818198064	-0.4263015127	-0.069949
C	 1.0565165677	 3.3331099455	 0.8981801884	-0.004559
N	 2.2701244614	 4.2189808963	 0.6668097053	-0.155037
H	 0.2351925285	 0.3314106578	 1.1820441292	 0.081231
H	 2.2958746507	 1.4731774958	 0.5769449764	 0.093669
H	 1.3265784238	 2.4086064769	-2.0554896008	 0.090887
H	 3.556467216	 3.9318053171	-1.1233977334	 0.100696
H	 1.5984872507	 6.0324013189	-0.5408622839	 0.101353
H	-0.5987506105	 3.9607633606	-0.6835045215	 0.095973
H	 0.6346074149	 3.4262850988	 1.8976988673	 0.087262
79.738	164.8681	235.1744	360.9321	529.8549	659.0373	742.6324	746.9911	786.7707	802.082	830.2886	859.6068	880.5624	903.1755	915.8409	924.292	953.2258	994.3962	999.2583	1032.1249	1053.3743	1059.3009	1080.2709	1148.497	1159.5201	1176.3828	1187.6936	1226.6577	1232.0516	1253.8139	1274.6379	1313.351	1357.4953	1424.9387	1811.7408	2868.8978	3057.2327	3128.5331	3158.0856	3179.0589	3188.9579	3200.944
O=CC1C2C3C4C2C1N34	O=C[C@H]1[C@@H]2[C@H]3[C@H]4[C@@H]2[C@@H]1N34	
InChI=1S/C7H7NO/c9-1-2-3-4-5(2)8-6(3)7(4)8/h1-7H	InChI=1S/C7H7NO/c9-1-2-3-4-5(2)8-6(3)7(4)8/h1-7H/t2-,3-,4-,5+,6-,7+,8?/m0/s1
