23
gdb 63845	2.75239	1.45226	1.43151	1.235	84.63	-0.2324	0.079	0.3114	1093.4721	0.206854	-388.289517	-388.281061	-388.280117	-388.322313	34.656	
C	 0.0938386867	 1.5091196371	 0.0540708089	-0.409252
C	-0.0346868347	-0.0179669617	-0.0234062523	 0.393286
C	-1.5128496187	-0.4185532893	 0.0720909046	-0.409243
C	 0.6033170217	-0.5621039914	-1.3482123261	-0.271196
C	 1.7638384219	-1.5277499562	-1.0931273173	-0.013733
C	 1.3395837915	-2.5599425664	-0.010582502	-0.246577
C	 1.6768989485	-1.4355682315	 1.0053556699	 0.139466
C	 2.7130357752	-0.9132519386	-0.0260117142	-0.246542
O	 0.601022009	-0.5365615241	 1.1743895369	-0.321299
H	 1.1422597574	 1.8154689617	 0.0003453926	 0.11414
H	-0.445399974	 1.9868443357	-0.7711076732	 0.107378
H	-0.3196529179	 1.8746763878	 0.998433917	 0.118562
H	-2.0875173484	 0.0168086559	-0.7526146198	 0.107377
H	-1.6258019758	-1.5055191391	 0.0312491213	 0.114143
H	-1.9381676874	-0.0673675409	 1.0166529161	 0.118564
H	-0.1670569461	-1.0693688329	-1.9399582777	 0.096948
H	 0.9588313561	 0.2803737242	-1.9522004204	 0.096947
H	 2.1912140155	-1.8929894259	-2.0301742221	 0.059286
H	 0.3177215558	-2.9473638842	-0.0204113699	 0.094711
H	 2.0470926488	-3.3902157837	 0.0622833562	 0.096145
H	 2.0050051345	-1.699787835	 2.0129088264	 0.070051
H	 3.6574837065	-1.4594442466	 0.0441863698	 0.096139
H	 2.9105717038	 0.161378445	-0.0495347748	 0.094702
45.5643	216.6735	245.7008	281.533	321.4135	370.8789	390.995	402.2998	426.3361	476.138	486.3248	584.0439	707.8931	803.7332	811.9601	868.0639	876.4896	910.369	913.5026	931.6157	931.8069	974.0503	1003.0686	1004.4427	1030.2789	1070.2185	1093.8001	1103.9198	1122.7407	1185.8246	1191.2582	1205.8055	1242.0355	1245.7103	1262.1064	1267.8375	1321.4351	1335.5021	1370.8391	1383.2765	1396.3599	1418.1472	1470.7978	1477.2699	1485.7056	1492.0034	1499.8591	1504.9429	1513.0244	3029.8368	3031.4251	3038.7279	3055.4294	3057.5445	3068.7697	3074.6999	3088.6538	3102.991	3109.4757	3111.9352	3116.0673	3117.2013	3120.0685
CC1(C)CC2CC(C2)O1	CC1(C)C[C@@H]2C[C@@H](C2)O1	
InChI=1S/C8H14O/c1-8(2)5-6-3-7(4-6)9-8/h6-7H,3-5H2,1-2H3	InChI=1S/C8H14O/c1-8(2)5-6-3-7(4-6)9-8/h6-7H,3-5H2,1-2H3/t6-,7+
