23
gdb 107005	2.54668	1.21394	1.08522	1.307	85.87	-0.2426	0.0738	0.3164	1281.8011	0.20481	-388.264138	-388.254207	-388.253263	-388.298484	37.742	
C	-0.4252288705	 1.5434600979	 0.3841085935	-0.404979
C	-0.1323741018	 0.0696749963	 0.122520578	 0.01045
C	 0.3072633162	-0.3536166253	-1.286254736	-0.105729
C	 1.6668936514	 0.1944585392	-1.6254609409	-0.358117
C	 1.5740346143	-1.0074265514	-0.7270533302	 0.384386
C	 2.1985821913	-2.320517419	-1.0786033747	-0.204687
O	 1.4253975549	-3.3653048565	-0.4951681765	-0.420881
C	 1.1791668063	-0.5969532947	 0.7039550903	-0.057231
C	 2.1621874067	 0.2214138847	 1.5345550843	-0.413629
H	 0.3969232427	 2.1917524382	 0.0665575627	 0.111053
H	-1.3221524982	 1.8597345842	-0.1601338076	 0.111636
H	-0.601613878	 1.729740039	 1.4493387417	 0.110709
H	-0.9973793607	-0.5229590144	 0.4356418515	 0.073749
H	-0.3535191213	-0.7312060125	-2.058454416	 0.081076
H	 2.0022302172	-0.0117929194	-2.6377818302	 0.105795
H	 2.0030632784	 1.1549960127	-1.2450703204	 0.103373
H	 2.2436698209	-2.4251888873	-2.1751952874	 0.081932
H	 3.2371862364	-2.3533729988	-0.7080003099	 0.085312
H	 1.9178721827	-4.1862605327	-0.5853303056	 0.285474
H	 0.9012637835	-1.4949997167	 1.2612444046	 0.087679
H	 2.5070085927	 1.1204663835	 1.0143279997	 0.11002
H	 1.7093798852	 0.5409480437	 2.4797612092	 0.111807
H	 3.0481513796	-0.3745350008	 1.7816784498	 0.110804
80.0848	127.0624	185.9019	206.9065	208.3824	218.834	235.2397	257.2225	298.3127	400.8907	467.0875	506.8798	564.6568	629.4764	691.1177	745.8456	812.5026	845.7457	921.2411	955.5704	969.8888	1005.2201	1017.5091	1027.8784	1054.1384	1063.4482	1080.3569	1086.8821	1116.831	1148.0688	1168.6946	1211.8763	1215.786	1239.7833	1278.5534	1289.4989	1327.5424	1365.9334	1371.0108	1398.7787	1407.8638	1416.7306	1466.8676	1489.9865	1492.084	1496.4031	1505.4697	1508.4297	1511.4098	2952.1289	2979.7367	3027.2484	3030.5099	3048.6891	3075.0077	3087.6052	3091.3085	3099.5563	3106.5144	3115.8218	3171.2969	3193.9256	3829.983
CC1C2CC2(CO)C1C	C[C@H]1[C@H]2C[C@@]2(CO)[C@H]1C	
InChI=1S/C8H14O/c1-5-6(2)8(4-9)3-7(5)8/h5-7,9H,3-4H2,1-2H3	InChI=1S/C8H14O/c1-5-6(2)8(4-9)3-7(5)8/h5-7,9H,3-4H2,1-2H3/t5-,6+,7-,8-/m1/s1
