13
gdb 132105	3.11553	1.43708	0.98949	5.1567	65.18	-0.2567	-0.0776	0.179	1089.9751	0.087394	-497.909473	-497.90148	-497.900536	-497.943817	27.867	
C	-0.0283484669	 1.5683111263	 0.0090130902	-0.504181
C	-0.0060584978	 0.0644206861	 0.0042715584	-0.036515
C	 0.0350102848	-0.6808455955	-1.1369391547	 0.402026
F	 0.0582374562	-0.1288982564	-2.3270131866	-0.024183
O	 0.0552858679	-1.9753625981	-1.1820060256	-0.23834
C	 0.0334906784	-2.7752345334	 0.0924598579	 0.462553
O	 0.0551863883	-3.9487196535	-0.0738391901	-0.302827
N	-0.0073849807	-2.0431339069	 1.2333031619	-0.336611
C	-0.0250813951	-0.7359093081	 1.1734083903	 0.006911
H	 0.8605326486	 1.9907374451	-0.4700971776	 0.147857
H	-0.9027468822	 1.9647520071	-0.5166867234	 0.147857
H	-0.0609643822	 1.9388841516	 1.0367618995	 0.138478
H	-0.0580115193	-0.2233422543	 2.1356715198	 0.136976
17.2707	86.8981	191.6771	254.5507	277.8585	311.5643	445.2958	467.3474	482.5082	596.6159	664.2238	734.9579	754.2998	783.7705	837.8485	984.5487	1003.0358	1030.3467	1074.7971	1229.8934	1319.2201	1407.9942	1424.2813	1438.7336	1483.39	1492.4682	1541.7096	1710.0233	1926.9799	3040.6356	3098.0374	3120.2623	3128.5005
CC1=C(F)OC(=O)N=C1	Cc1c(F)oc(=O)nc1	
InChI=1S/C5H4FNO2/c1-3-2-7-5(8)9-4(3)6/h2H,1H3	InChI=1S/C5H4FNO2/c1-3-2-7-5(8)9-4(3)6/h2H,1H3
