21
gdb 39249	2.79826	1.75602	1.27799	0.1814	88.06	-0.2138	0.0288	0.2425	1048.6709	0.18611	-349.971032	-349.96385	-349.962906	-350.002342	30.167	
C	-0.1257366878	 1.4083085197	-0.0872952679	-0.356352
C	 1.3165776662	 0.979767145	 0.0213683889	-0.082445
C	 1.9441482282	 0.8747725733	 1.4149087797	-0.234247
C	 1.5430953114	-0.5310115595	 1.9263737191	-0.207262
C	 0.1630910239	-0.8193216401	 1.293434355	-0.060764
C	-0.1297139168	-2.2977332918	 0.9079310269	-0.300709
C	-0.195129692	-2.2822039451	-0.6042811312	-0.077924
C	-0.0251461467	-1.0596746392	-1.1136262175	-0.178553
C	 0.2050054473	-0.0604479357	-0.0516897839	 0.378789
H	-0.6063457292	 1.8488152885	 0.7832641307	 0.102806
H	-0.4533349368	 1.8289910006	-1.0338179698	 0.105686
H	 1.9632759807	 1.1559136768	-0.8315664695	 0.081601
H	 3.0302022994	 0.9997244963	 1.3808273877	 0.098169
H	 1.5576689447	 1.6578941033	 2.0791113653	 0.096593
H	 2.2638631746	-1.2657648608	 1.5463604366	 0.097707
H	 1.5452181261	-0.6098703181	 3.018595526	 0.08918
H	-0.630770934	-0.4289006321	 1.9394439877	 0.066809
H	 0.6524173155	-2.9772689722	 1.2735115972	 0.100921
H	-1.0688555242	-2.659948649	 1.3446717287	 0.103454
H	-0.3574939937	-3.1825860423	-1.1868468901	 0.087809
H	-0.0350370466	-0.8085754877	-2.1688486297	 0.088731
123.0658	178.3237	249.5544	362.6415	399.3047	454.0825	535.9133	552.1264	606.5343	737.3464	764.0769	792.1791	821.8886	824.1976	863.2716	915.1005	932.1646	941.7799	955.4033	965.2286	971.571	995.9984	1046.1447	1054.6836	1058.3292	1080.9465	1113.6018	1124.9727	1173.7841	1210.8667	1227.3616	1249.5644	1261.1174	1280.1736	1311.3168	1321.3469	1329.4368	1348.7547	1362.1	1421.3292	1481.2719	1486.8329	1492.3693	1501.9854	1670.3253	3011.903	3026.2435	3027.4341	3029.4197	3045.861	3077.4472	3087.4967	3102.8793	3163.0083	3178.117	3189.7633	3202.9214
C1C2CCC3CC=CC123	C1[C@H]2CC[C@@H]3CC=C[C@]123	
InChI=1S/C9H12/c1-2-7-3-4-8-6-9(7,8)5-1/h1,5,7-8H,2-4,6H2	InChI=1S/C9H12/c1-2-7-3-4-8-6-9(7,8)5-1/h1,5,7-8H,2-4,6H2/t7-,8+,9+/m0/s1
