18
gdb 79537	3.96466	1.14074	1.00472	1.8125	84.17	-0.2188	0.017	0.2359	1223.5148	0.146015	-364.690182	-364.681913	-364.680968	-364.722557	32.729	
C	-0.0121211451	 1.4660759004	-0.0220035097	-0.4278
C	 0.0066377512	-0.0503187026	-0.0097282534	-0.034475
C	 1.3693225476	-0.6799097626	-0.1426610542	-0.011712
C	 0.6576716072	-0.6937194813	 1.1862582537	-0.123491
C	 0.6995556861	-2.2406627185	 1.1108123672	 0.090684
C	 0.1478928684	-2.8083821361	-0.1488657019	-0.279136
N	 1.4798878873	-2.1926758427	-0.2061521092	-0.178038
C	 1.1047546406	-3.0371852622	 2.2198823846	 0.24939
C	 1.4209424288	-3.6785656646	 3.1878893914	-0.396255
H	 0.8898066728	 1.879003704	 0.4418120897	 0.121808
H	-0.0663848383	 1.8478547	-1.0467021946	 0.124718
H	-0.875799841	 1.8514163128	 0.5296972335	 0.12476
H	-0.871701472	-0.4949210535	-0.4663850238	 0.086206
H	 2.2395786785	-0.1251038265	-0.4693608424	 0.104729
H	 0.8892195278	-0.1614750388	 2.0989145379	 0.097498
H	 0.2025846504	-3.8893738724	-0.2374216295	 0.134608
H	-0.7037955926	-2.3660119434	-0.6520060942	 0.124645
H	 1.7098483823	-4.253853352	 4.0322660148	 0.191859
128.2642	134.7131	217.2067	256.0999	257.0496	327.6656	428.9505	458.7972	517.3585	538.639	585.2046	611.0024	657.3363	706.1295	798.1974	814.4572	830.3666	876.0518	916.2047	945.0013	980.4468	1031.6861	1045.8546	1072.9079	1095.3622	1116.4952	1139.8228	1144.8449	1179.7444	1217.2196	1259.8274	1277.2341	1337.1932	1411.7283	1419.1621	1495.779	1497.2503	1506.1354	2230.9388	3032.0632	3099.0889	3100.4077	3128.1471	3151.9118	3189.86	3207.8918	3216.7311	3502.6339
CC1C2C1C1(CN21)C#C	C[C@H]1[C@H]2[C@@H]1[C@]1(CN21)C#C	
InChI=1S/C8H9N/c1-3-8-4-9(8)7-5(2)6(7)8/h1,5-7H,4H2,2H3	InChI=1S/C8H9N/c1-3-8-4-9(8)7-5(2)6(7)8/h1,5-7H,4H2,2H3/t5-,6-,7+,8-,9?/m1/s1
