22
gdb 7838	3.96534	1.06044	0.93379	1.3853	78.67	-0.251	0.0724	0.3233	1338.3669	0.1984	-350.197427	-350.18757	-350.186625	-350.232519	36.111	
C	 0.101904979	 1.5412818223	 0.142976863	-0.401482
C	 0.0135671145	 0.0139567855	 0.1681613579	 0.142774
O	 0.4572673767	-0.5042718993	 1.4190876112	-0.424547
C	-1.3908903165	-0.4896416547	-0.203312946	-0.223645
C	-1.4864881215	-1.9990491346	-0.2828987626	 0.028036
C	-1.8337290467	-2.8356035638	 0.9234645777	-0.276156
C	-2.8000077809	-2.7525403941	-0.2336248244	-0.013584
C	-4.1409775031	-2.0652562072	-0.0882808556	-0.402619
H	 1.106027073	 1.866626176	 0.4279269497	 0.122431
H	-0.1247781635	 1.9391660848	-0.8516856239	 0.113178
H	-0.6128957106	 1.9834881501	 0.8488973749	 0.103462
H	 0.7307607843	-0.3931169373	-0.5566553349	 0.085907
H	-0.1492087531	-0.1861148826	 2.0969452804	 0.273175
H	-2.1068515604	-0.0947360934	 0.5306772317	 0.080199
H	-1.6699881607	-0.0435846413	-1.1680842963	 0.094182
H	-0.7409852768	-2.4340579002	-0.9457578183	 0.077083
H	-1.2890271425	-3.7563636776	 1.1005332144	 0.107753
H	-2.1039319973	-2.3052392797	 1.8320507672	 0.094223
H	-2.8350076392	-3.6324685684	-0.8717683939	 0.079022
H	-4.094062354	-1.2167691025	 0.6004339578	 0.111757
H	-4.5090979863	-1.6911449439	-1.0506674242	 0.113595
H	-4.8912017743	-2.7604943782	 0.3048479243	 0.115256
33.1666	96.1626	121.4413	186.7118	230.2393	240.2891	256.1359	294.2744	345.1357	411.1286	442.3804	479.4426	518.0672	761.3399	825.8519	836.1015	864.0608	877.809	921.5085	950.7379	967.236	1020.6723	1052.081	1072.2223	1103.8936	1112.3934	1122.0101	1150.2381	1175.4009	1197.6453	1230.2956	1251.6807	1305.911	1338.2498	1370.3256	1395.3866	1402.3121	1416.2026	1422.0453	1432.4928	1473.6544	1491.0498	1493.7661	1495.5491	1496.3629	1506.4403	3004.3126	3020.2068	3026.1697	3027.518	3043.9808	3083.4039	3091.2962	3101.5025	3117.5371	3119.0633	3124.5529	3134.5135	3207.7354	3798.4217
CC(O)CC1CC1C	C[C@@H](O)C[C@H]1C[C@H]1C	
InChI=1S/C7H14O/c1-5-3-7(5)4-6(2)8/h5-8H,3-4H2,1-2H3	InChI=1S/C7H14O/c1-5-3-7(5)4-6(2)8/h5-8H,3-4H2,1-2H3/t5-,6-,7-/m1/s1
