21
gdb 98655	4.56087	0.7932	0.76833	3.036	80.03	-0.2614	-0.024	0.2374	1572.0257	0.181019	-424.237309	-424.227559	-424.226615	-424.273007	35.559	
C	-0.8234312658	 0.9092791955	-0.0301932456	-0.41162
C	 0.2945282841	-0.1049301609	 0.1462681114	 0.072789
C	 1.4865952364	-0.0860016098	-0.8514316722	-0.243148
C	 2.4727528762	-0.2947239897	 0.3322262027	-0.110938
C	 1.3045669883	 0.103153929	 1.3087451842	-0.241435
C	 2.8985806941	-1.7223902073	 0.5468314025	 0.356623
O	 2.2549881973	-2.6794762132	 0.1608737063	-0.336814
C	 4.1860774155	-1.9698389485	 1.3214175927	-0.135514
O	 4.393933879	-3.3297919051	 1.5499416609	-0.421112
H	-0.4264659479	 1.9299622038	-0.0833724236	 0.109239
H	-1.3848935244	 0.7219954829	-0.9522540624	 0.11911
H	-1.5331573085	 0.8703706177	 0.8038184825	 0.116923
H	-0.1166134972	-1.1171400488	 0.1962234191	 0.094894
H	 1.4979253227	-0.8561520324	-1.6243919442	 0.11642
H	 1.6239186743	 0.8963956916	-1.3124983988	 0.097446
H	 3.3465686886	 0.36119381	 0.3717821852	 0.080162
H	 1.3886088656	 1.1530456144	 1.6036902544	 0.104931
H	 1.1770120734	-0.5043516077	 2.2083825043	 0.109228
H	 5.0120952517	-1.5220661639	 0.7404514868	 0.11373
H	 4.1402270176	-1.4055000214	 2.2676449849	 0.11591
H	 3.665071049	-3.7717310062	 1.083912719	 0.293174
29.8224	68.6218	112.6866	190.8688	210.8652	231.2368	276.9563	332.7087	375.1041	419.381	444.2871	564.0384	626.3791	691.7097	802.637	829.6061	856.2513	904.0813	913.9108	935.2819	965.6564	1000.7379	1058.1311	1093.5422	1112.9397	1143.8305	1146.0231	1155.1053	1207.1572	1235.1991	1243.6272	1259.7888	1275.3234	1299.9064	1307.1452	1364.1031	1389.7486	1411.3152	1452.2349	1465.5115	1487.675	1490.6033	1495.2925	1496.6309	1781.6359	2956.8336	2984.317	3021.7573	3052.5396	3056.6589	3065.1157	3072.6137	3090.866	3092.7585	3110.3611	3126.7603	3672.4718
CC1CC(C1)C(=O)CO	C[C@H]1C[C@@H](C1)C(=O)CO	
InChI=1S/C7H12O2/c1-5-2-6(3-5)7(9)4-8/h5-6,8H,2-4H2,1H3	InChI=1S/C7H12O2/c1-5-2-6(3-5)7(9)4-8/h5-6,8H,2-4H2,1H3/t5-,6-
