21
gdb 59603	2.66978	1.20554	1.08023	4.2497	77.87	-0.2622	0.0166	0.2788	1246.1937	0.182557	-424.28971	-424.28044	-424.279496	-424.324053	34.519	
C	 0.0473463788	 1.4992590954	 0.0757183894	-0.396664
C	-0.0251954255	-0.033726861	 0.1120455727	 0.024715
C	 0.589064058	-0.5825282632	 1.4072188879	-0.407246
C	-1.4674882727	-0.5112974898	-0.1253993263	 0.121223
C	-1.6723150183	-2.0466424493	-0.1970729027	-0.265172
C	-2.333936432	-2.3992319252	 1.1386567522	-0.356151
C	-2.8410449217	-1.067865659	 1.681213313	 0.428464
O	-3.5672949657	-0.8759472579	 2.6124877088	-0.336921
O	-2.3273311816	-0.0505886705	 0.9400621165	-0.227458
H	 1.0798488741	 1.8428289028	 0.1908629759	 0.111977
H	-0.3350257655	 1.8942790217	-0.8714998811	 0.110908
H	-0.5484566913	 1.9326233331	 0.8844721275	 0.139484
H	 0.5522029933	-0.4255979784	-0.7379712264	 0.076984
H	 0.6119143706	-1.6767554667	 1.4265989763	 0.110957
H	 1.6207664593	-0.2344117722	 1.5139330186	 0.119686
H	 0.0317762705	-0.2352755511	 2.2829468137	 0.13734
H	-1.8386168494	-0.0312124579	-1.0369273521	 0.090538
H	-2.3331339407	-2.2941072058	-1.0314547871	 0.117676
H	-0.7285850838	-2.570254591	-0.3627855571	 0.116121
H	-3.164252981	-3.1030286109	 1.0607274837	 0.140305
H	-1.6312299254	-2.8105456831	 1.8699682267	 0.143234
71.209	86.0196	117.9008	216.3092	229.09	250.3829	274.3848	350.1242	423.1081	487.8935	544.6988	565.6506	661.0904	745.8166	761.2615	818.0618	870.9478	915.9246	930.1476	966.1836	992.4862	1008.9159	1037.6116	1063.156	1116.8647	1135.4058	1174.3244	1184.6587	1207.3474	1239.1803	1290.0027	1324.0872	1331.1896	1346.0589	1377.5438	1397.0565	1404.9236	1427.333	1463.0825	1487.8955	1494.2355	1500.9799	1512.3215	1515.5742	1878.7742	3002.9572	3034.6174	3038.5709	3047.0585	3069.1489	3072.389	3101.43	3104.5635	3110.0928	3111.333	3117.011	3126.9075
CC(C)C1CCC(=O)O1	CC(C)[C@H]1CCC(=O)O1	
InChI=1S/C7H12O2/c1-5(2)6-3-4-7(8)9-6/h5-6H,3-4H2,1-2H3	InChI=1S/C7H12O2/c1-5(2)6-3-4-7(8)9-6/h5-6H,3-4H2,1-2H3/t6-/m1/s1
