17
gdb 97182	2.66999	1.39825	0.96164	3.8282	73.29	-0.2567	0.0025	0.2592	1204.3401	0.13697	-455.20383	-455.195163	-455.194218	-455.238119	30.901	
C	-0.1666263833	 1.4515296288	 0.052323882	-0.337721
N	-0.1603392243	-0.0007113554	 0.1144876096	-0.280964
C	 0.6028550988	-0.6128206117	 0.9037183045	 0.413458
C	 0.6288837464	-2.1098996945	 1.019179037	-0.294906
C	 2.0757844266	-2.5937795333	 1.0849025484	-0.16955
N	 2.7536736101	-1.8402983462	 2.1253946134	-0.360535
C	 2.5160741317	-0.5339780785	 2.4311518654	 0.464484
O	 3.1493201872	 0.1137441515	 3.2201712739	-0.369741
O	 1.4618791317	 0.0605317679	 1.7647516825	-0.25714
H	 0.6197937044	 1.9362963734	 0.6382987153	 0.137395
H	-0.0760571988	 1.754399796	-0.9960327475	 0.129098
H	-1.1406161015	 1.8127249066	 0.4018174384	 0.133501
H	 0.1120467413	-2.4064954759	 1.9402954982	 0.13551
H	 0.0941095735	-2.5329641806	 0.1694225253	 0.141523
H	 2.1156852592	-3.6567535956	 1.3379518938	 0.124967
H	 2.5656515872	-2.4657019367	 0.1089331831	 0.124364
H	 3.5844943096	-2.2106143258	 2.5573663066	 0.266259
63.4128	72.9569	107.0773	179.4928	216.2395	299.9932	408.7291	459.8986	499.9537	506.9967	576.0875	623.8645	702.9427	753.7196	784.8829	926.5868	966.9881	979.155	1039.3079	1081.9635	1098.2759	1135.1876	1145.464	1196.2833	1234.0794	1259.6965	1339.0735	1360.9671	1399.5642	1437.9548	1465.4282	1478.3964	1492.1395	1497.395	1525.6192	1789.7821	1868.5137	3001.5885	3027.6264	3041.5629	3085.802	3086.0867	3107.656	3145.784	3652.8376
CN=C1CCNC(=O)O1	CN=C1CCNC(=O)O1	
InChI=1S/C5H8N2O2/c1-6-4-2-3-7-5(8)9-4/h2-3H2,1H3,(H,7,8)	InChI=1S/C5H8N2O2/c1-6-4-2-3-7-5(8)9-4/h2-3H2,1H3,(H,7,8)
