23
gdb 109912	2.13417	1.4298	1.07388	1.3469	86.44	-0.2347	0.0291	0.2638	1249.0899	0.205838	-388.300536	-388.290804	-388.28986	-388.334593	37.339	
C	 0.8620189062	 1.5338550814	-0.4034346056	-0.403804
C	 0.1706215613	 0.2201183136	 0.0049589075	-0.021519
C	 0.3127849	-0.8504816073	-1.053910853	-0.074029
C	 1.1039079725	-1.8506816877	-0.6723730074	-0.072438
C	 1.658592771	-1.6554359512	 0.7217484314	-0.05676
C	 3.1756891373	-1.3832169632	 0.6943568365	-0.396264
C	 0.7514319179	-0.5040165649	 1.2644413429	 0.010113
C	 1.3868549763	 0.3917968966	 2.3167520804	-0.1143
O	 0.3784766971	 1.277025218	 2.7957533892	-0.422349
H	 1.9286614306	 1.3868742932	-0.6025997926	 0.111799
H	 0.4119545736	 1.9325050389	-1.3189877026	 0.105903
H	 0.751142022	 2.2847977792	 0.3835165673	 0.124695
H	-0.8846822822	 0.4582127439	 0.183503697	 0.080405
H	-0.1570214143	-0.7628542932	-2.028721622	 0.085188
H	 1.3812154529	-2.7020245481	-1.2861914216	 0.085378
H	 1.5062035093	-2.5551855021	 1.3328004241	 0.071883
H	 3.4157599903	-0.4890838839	 0.1108254364	 0.120751
H	 3.5838698386	-1.2556394956	 1.7025377663	 0.111039
H	 3.7021098715	-2.2258664325	 0.2332145604	 0.110522
H	-0.1019121989	-0.9870483457	 1.7542036054	 0.085598
H	 1.7828692778	-0.2288388734	 3.1368601958	 0.084023
H	 2.2333209215	 0.9538640255	 1.8968648357	 0.089311
H	 0.7802219377	 1.8692058785	 3.4381388084	 0.284852
80.9794	137.676	184.7505	202.2709	245.0897	255.3336	260.9164	293.0488	310.678	355.3584	444.4218	507.9897	556.3553	693.1419	728.2977	762.6677	781.5431	839.1739	900.7752	937.4914	978.6908	985.5626	1024.9789	1044.3103	1058.3261	1082.4982	1091.0255	1113.0635	1130.1002	1142.6392	1166.3201	1254.2768	1260.77	1270.4303	1310.1839	1318.2358	1350.6012	1359.0405	1369.093	1374.5406	1401.3169	1407.2447	1459.3124	1492.737	1495.3711	1500.7807	1504.3533	1527.2986	1688.5026	2969.0185	3003.431	3010.1764	3025.1683	3029.2624	3031.807	3045.618	3093.2207	3094.9687	3106.4767	3115.3497	3166.9228	3193.1701	3828.4858
CC1C=CC(C)C1CO	C[C@H]1C=C[C@@H](C)[C@H]1CO	
InChI=1S/C8H14O/c1-6-3-4-7(2)8(6)5-9/h3-4,6-9H,5H2,1-2H3	InChI=1S/C8H14O/c1-6-3-4-7(2)8(6)5-9/h3-4,6-9H,5H2,1-2H3/t6-,7+,8-
