16
gdb 129781	3.28313	1.51178	1.05071	4.0395	71.96	-0.2091	0.0264	0.2355	1080.17	0.127292	-434.068968	-434.061016	-434.060072	-434.102527	28.945	
N	 0.1374574517	 1.4118002126	 0.1643339593	-0.607717
C	-0.0412130095	 0.0303616437	 0.0574645201	 0.172832
C	-1.153331839	-0.7815261992	-0.0006288473	 0.167083
C	-2.6425971435	-0.838895147	-0.0705688171	-0.201894
O	-2.9397688193	-2.2477316462	-0.1242697243	-0.285183
C	-1.7609814562	-3.0689626953	-0.0956392081	-0.170682
C	-0.6376369967	-2.0858632143	-0.0130862163	 0.290966
N	 0.6794367782	-2.1473444353	 0.0282883405	-0.341136
N	 1.0263145899	-0.823390277	 0.0760122565	-0.242093
H	 0.8289713666	 1.7801178994	-0.4784592177	 0.252096
H	-0.7305698837	 1.9144555829	 0.0395408832	 0.257477
H	-3.1453841502	-0.4060476133	 0.8070229451	 0.106305
H	-3.0656445072	-0.354780328	-0.9639060173	 0.102313
H	-1.8075834384	-3.7428948836	 0.7707036442	 0.11673
H	-1.7253790179	-3.688510852	-1.0022169879	 0.115973
H	 1.9944670751	-0.5763737573	 0.192693977	 0.266931
26.6908	144.2067	172.1428	225.8311	264.8535	329.822	428.4951	525.8519	597.3405	633.5468	652.109	682.2138	755.4835	810.9211	853.07	893.6875	1020.5372	1045.1159	1064.572	1085.2062	1090.1416	1147.9534	1167.0573	1213.87	1250.0037	1330.2864	1343.5437	1382.3484	1450.5698	1508.5229	1517.8421	1531.8434	1565.2361	1643.7579	1682.8783	2977.8795	2996.0322	3002.3705	3027.2566	3531.6872	3630.9088	3671.2451
NC1=C2COCC2=NN1	Nc1c2COCc2n[nH]1	
InChI=1S/C5H7N3O/c6-5-3-1-9-2-4(3)7-8-5/h1-2H2,(H3,6,7,8)	InChI=1S/C5H7N3O/c6-5-3-1-9-2-4(3)7-8-5/h1-2H2,(H3,6,7,8)
