15
gdb 71383	2.71022	1.83534	1.31898	4.3215	65.99	-0.2373	0.0028	0.2401	939.3885	0.112345	-453.87925	-453.871597	-453.870653	-453.911012	29.935	
N	-0.0521140879	 1.4215104615	 0.082896716	-0.627401
C	 0.0758921794	 0.0225863944	 0.0699486644	 0.111885
C	-0.1778019932	-1.0827837061	-1.0005215422	-0.139541
N	 0.49738651	-2.0720339628	-0.0642711556	-0.214706
C	-0.8210306404	-2.2063308991	 0.6884292689	-0.259227
C	-1.2167270919	-0.8898998955	 0.0289308176	 0.338765
O	-2.4480661215	-0.3046772708	-0.1333988771	-0.453682
C	 1.0952522715	-0.8864631687	 0.6530217731	 0.395098
O	 2.0739016008	-0.8279593498	 1.3254592459	-0.311444
H	 0.5757638336	 1.8837059857	-0.5642404084	 0.248736
H	-1.0049169553	 1.7059387284	-0.1194223126	 0.238533
H	-0.1011605955	-1.064402073	-2.0766982182	 0.125703
H	-1.3896949358	-3.061054738	 0.3126024325	 0.12623
H	-0.7142988523	-2.2596054298	 1.7773865305	 0.120596
H	-2.7859006415	-0.0538085261	 0.7354705351	 0.300455
111.7042	228.8037	236.522	275.3421	299.9199	373.3837	406.045	475.1967	541.1282	569.2711	653.7664	705.99	730.6528	756.1339	822.4554	832.7761	892.6965	905.5244	932.5848	974.2055	1008.1716	1075.8936	1113.9232	1146.1947	1185.3574	1252.156	1261.1752	1312.7795	1417.1156	1451.9806	1510.7288	1653.4523	1920.4605	3043.5275	3109.8767	3243.8075	3510.2705	3593.0824	3779.6723
NC12C3N(CC13O)C2=O	N[C@]12[C@H]3N(C[C@@]13O)C2=O	
InChI=1S/C5H6N2O2/c6-5-2-4(5,9)1-7(2)3(5)8/h2,9H,1,6H2	InChI=1S/C5H6N2O2/c6-5-2-4(5,9)1-7(2)3(5)8/h2,9H,1,6H2/t2-,4-,5-/m0/s1
