18
gdb 28579	3.86121	1.10838	0.92942	1.9595	80.93	-0.2141	0.0114	0.2255	1288.6608	0.148393	-401.983356	-401.975056	-401.974112	-402.016895	30.631	
C	-0.1618044128	 1.4010864426	 0.1694432109	-0.489769
C	-0.051192559	-0.0651059765	-0.0417397364	 0.377558
N	 0.1449214266	-0.7138342146	-1.1432380844	-0.297428
C	 0.1625074718	-2.0530658217	-0.764627876	-0.228417
C	-0.0276005274	-2.1511091017	 0.5742579806	 0.353357
O	-0.1673941357	-0.8710291193	 1.0538734323	-0.21956
C	-0.1056363968	-3.2615265366	 1.5244585289	-0.111219
C	 0.442835841	-3.1271162064	 2.932800541	-0.265728
C	-1.0413651676	-3.2070145666	 2.7176111081	-0.26575
H	 0.6117025441	 1.7628265809	 0.8552760816	 0.142243
H	-0.0480554168	 1.9037617284	-0.7912531216	 0.156667
H	-1.1332246094	 1.6681433074	 0.5990632697	 0.142255
H	 0.3103033486	-2.844640392	-1.4818732661	 0.116091
H	 0.0155557114	-4.2280131182	 1.0475549869	 0.098669
H	 0.9557438433	-3.9838281915	 3.3550893814	 0.11796
H	 0.861395955	-2.1658134132	 3.2071260478	 0.127544
H	-1.6191489801	-2.2993580946	 2.847511548	 0.12757
H	-1.5598055964	-4.1192493063	 2.9903872872	 0.117954
67.0239	111.9842	139.6144	144.0217	249.4017	327.9834	418.9692	437.7652	605.0804	688.1742	701.0781	712.9208	792.6906	820.5604	834.7987	907.1175	908.7364	965.8536	982.4265	1033.5402	1063.9927	1065.2311	1070.9435	1084.332	1124.4877	1153.8975	1203.0287	1209.2856	1240.5788	1254.8995	1352.2462	1389.627	1412.9286	1464.2695	1475.4469	1482.2479	1497.6132	1623.9337	1650.2039	3040.6533	3093.1647	3139.2423	3142.6299	3156.4516	3171.9604	3222.925	3238.1129	3262.8858
CC1=NC=C(O1)C1CC1	Cc1ncc(o1)C1CC1	
InChI=1S/C7H9NO/c1-5-8-4-7(9-5)6-2-3-6/h4,6H,2-3H2,1H3	InChI=1S/C7H9NO/c1-5-8-4-7(9-5)6-2-3-6/h4,6H,2-3H2,1H3
