18
gdb 62485	2.22178	1.73408	1.24378	2.0838	72.07	-0.2437	-0.0345	0.2091	1055.3615	0.146601	-439.15811	-439.148879	-439.147935	-439.192533	33.593	
C	-0.0365767599	 1.5538943711	 0.0036283632	-0.415854
C	-0.0250632304	 0.0147345277	 0.0045078098	 0.001468
C	-1.4592555609	-0.5441947652	 0.0014800986	-0.415861
C	 0.7653250675	-0.5202939859	-1.1897299648	 0.389714
O	 0.5121671912	-0.3475713617	-2.3520630379	-0.312171
C	 1.9630529512	-1.3342423815	-0.6726468293	-0.280127
N	 1.8206157467	-1.2388008344	 0.7626276833	-0.335635
C	 0.7513480654	-0.513307587	 1.2192421937	 0.418603
O	 0.4750058824	-0.3243198726	 2.3835362864	-0.389948
H	 0.9771705867	 1.9665941458	-0.0050276196	 0.120844
H	-0.5634429647	 1.9209280529	-0.881041839	 0.13538
H	-0.540806623	 1.9127888959	 0.9043907414	 0.14309
H	-1.9941219792	-0.1896844034	-0.8835001536	 0.135398
H	-1.4675038709	-1.6386910285	-0.0081961064	 0.120843
H	-1.980357197	-0.2094076957	 0.901924877	 0.143068
H	 1.9023792744	-2.3639475561	-1.048164898	 0.141973
H	 2.8980755861	-0.8976455993	-1.046950105	 0.141978
H	 2.4545062045	-1.6682129223	 1.4183208901	 0.257237
30.9797	136.3415	192.4898	199.8444	216.4729	229.39	284.8024	292.1838	398.9001	511.9447	547.2072	581.9878	601.9637	665.5684	707.5527	758.0973	816.313	944.5196	962.5286	971.707	1038.6266	1074.1145	1086.4091	1157.2817	1196.8666	1201.3926	1241.1139	1289.9163	1343.1036	1386.7995	1413.2148	1436.4806	1479.7126	1484.5207	1497.9126	1502.483	1509.0919	1817.9762	1865.4696	3017.1074	3040.7829	3042.619	3049.5202	3112.42	3114.5251	3130.712	3133.8046	3635.7352
CC1(C)C(=O)CNC1=O	CC1(C)C(=O)CNC1=O	
InChI=1S/C6H9NO2/c1-6(2)4(8)3-7-5(6)9/h3H2,1-2H3,(H,7,9)	InChI=1S/C6H9NO2/c1-6(2)4(8)3-7-5(6)9/h3H2,1-2H3,(H,7,9)
