17
gdb 74090	2.65232	1.57591	1.1354	6.1011	77.35	-0.2155	-0.0238	0.1917	1080.1778	0.136759	-418.019691	-418.011465	-418.010521	-418.051977	32.1	
C	-0.0156826707	 1.5339720661	 0.0070062912	-0.498861
C	 0.1102984484	 0.0330020593	-0.0098433051	 0.215958
N	-0.782956074	-0.8286351354	 0.8144225058	-0.361616
C	 0.688483296	-0.7845155733	 1.07404755	-0.220514
C	 1.443673067	-1.9412718313	 0.4198848233	 0.445369
O	 2.0984779873	-2.772010268	 1.0144855353	-0.364134
C	 1.2211217835	-1.8046947796	-1.0187747837	-0.34869
C	 0.4780217954	-0.6985497815	-1.2826551533	 0.386716
N	 0.0858721413	-0.2038306203	-2.4881096391	-0.594075
H	 0.8802151324	 2.0096792069	-0.4042359879	 0.142331
H	-0.8771669512	 1.8808903604	-0.5770193234	 0.118796
H	-0.1512069885	 1.8944519494	 1.0310821028	 0.128466
H	-1.2361766086	-0.2379546341	 1.5145475351	 0.22691
H	 1.0493602308	-0.363881994	 2.0056674762	 0.102023
H	 1.5650356175	-2.5333256101	-1.7409703604	 0.093391
H	 0.170126758	-0.7983643366	-3.2975845834	 0.265733
H	-0.6919057146	 0.4350377824	-2.5132030834	 0.262198
135.5058	158.2262	219.0838	258.685	293.4459	327.1953	382.0261	418.6713	481.152	502.8482	570.2197	595.0786	665.8627	705.7904	748.8413	823.489	847.2539	862.3301	885.4683	976.6611	1022.8696	1055.7816	1081.3822	1108.6126	1126.8565	1190.4498	1266.9978	1301.5351	1311.3116	1401.7344	1420.3768	1436.3335	1487.1723	1498.5952	1629.7085	1678.7254	1800.7516	3024.3562	3085.6305	3111.6731	3184.9944	3218.7664	3437.1741	3590.3332	3700.1201
CC12NC1C(=O)C=C2N	C[C@]12N[C@H]1C(=O)C=C2N	
InChI=1S/C6H8N2O/c1-6-4(7)2-3(9)5(6)8-6/h2,5,8H,7H2,1H3	InChI=1S/C6H8N2O/c1-6-4(7)2-3(9)5(6)8-6/h2,5,8H,7H2,1H3/t5-,6+/m0/s1
