18
gdb 51804	3.89713	1.03645	0.92474	3.7022	72.69	-0.2393	0.0274	0.2667	1266.6496	0.148952	-439.092762	-439.084617	-439.083673	-439.127157	30.245	
O	 0.0578630831	-0.3466290789	 0.221464624	-0.322312
C	-0.0678168261	 0.8595308032	 0.2251761154	 0.152148
N	 0.9377493102	 1.7534085466	 0.0230950227	-0.282924
C	 2.3217496316	 1.3617240704	-0.1756722848	 0.013341
C	 2.7911236068	 1.4950770364	-1.6529682852	-0.110603
O	 4.1777589919	 1.80762696	-1.6216733965	-0.251959
C	 4.4573952063	 2.4281790155	-0.3926531167	 0.127247
C	 3.6167926717	 3.6023685069	 0.032335946	-0.345123
C	 3.3365766101	 2.2048020499	 0.5771260935	-0.103277
H	-1.0378456651	 1.3667258449	 0.3983311776	 0.075344
H	 0.72330915	 2.7373845166	 0.0736401032	 0.247882
H	 2.3881524879	 0.3213262253	 0.1496074477	 0.129339
H	 2.6588109479	 0.5745327453	-2.226467109	 0.129207
H	 2.2171885931	 2.2907144187	-2.1503115831	 0.092581
H	 5.507258882	 2.3665939587	-0.134073047	 0.109907
H	 4.063519587	 4.312940361	 0.7189149179	 0.121578
H	 2.9391617857	 4.0481274223	-0.6889151698	 0.115919
H	 3.5065862359	 1.9985502072	 1.626662484	 0.101706
16.5617	103.7785	182.3431	213.6496	254.3738	391.8922	429.1235	476.2082	531.8959	614.8784	688.931	752.792	796.5814	826.7822	900.8707	944.3559	971.6764	977.2272	1029.4325	1034.1999	1040.7985	1065.8101	1082.6038	1108.5687	1131.2598	1166.5383	1198.4954	1216.0726	1233.4565	1313.6901	1314.303	1346.2658	1384.7617	1398.6396	1430.4921	1476.5128	1521.5539	1526.1691	1804.8185	2936.1256	2994.5174	3093.6696	3106.0987	3131.1607	3184.2997	3193.9859	3218.2956	3625.6654
O=CNC1COC2CC12	O=CN[C@H]1CO[C@H]2C[C@@H]12	
InChI=1S/C6H9NO2/c8-3-7-5-2-9-6-1-4(5)6/h3-6H,1-2H2,(H,7,8)	InChI=1S/C6H9NO2/c8-3-7-5-2-9-6-1-4(5)6/h3-6H,1-2H2,(H,7,8)/t4-,5-,6-/m0/s1
