17
gdb 85388	1.93274	1.91646	1.02725	3.8813	72.27	-0.2731	0.003	0.276	1143.4336	0.136468	-455.180326	-455.172159	-455.171215	-455.213243	30.817	
C	-0.1538286608	 1.4242321609	 0.0110179307	-0.405515
C	-0.0723955064	-0.0828874973	 0.0022205804	 0.196717
O	 0.6115992944	-0.486480816	-1.1759543045	-0.244754
C	 0.93400425	-1.8174659183	-1.2626786711	 0.400644
N	 1.4587168343	-2.3261334894	-2.2900442251	-0.507272
C	 0.6319226862	-2.6148084568	-0.0172817695	-0.386744
C	 0.9547485931	-1.8309058316	 1.2314386037	 0.400644
N	 1.4964248522	-2.3505691461	 2.2443959961	-0.507272
O	 0.6310750526	-0.499089834	 1.1644322557	-0.244754
H	 0.854090222	 1.8452865984	 0.004868474	 0.147339
H	-0.6933594263	 1.7705325282	-0.8730238486	 0.139306
H	-0.678488808	 1.7609387272	 0.9076268676	 0.139307
H	-1.0722352782	-0.5409881592	 0.0080720593	 0.096209
H	 1.5686222622	-1.6215314923	-3.0220718724	 0.226143
H	-0.4402854003	-2.8591962939	-0.0096801669	 0.150766
H	 1.1833671036	-3.5515003416	-0.0269159613	 0.173095
H	 1.6185556695	-1.6538859882	 2.9820438717	 0.226143
106.8866	110.6719	161.706	220.8481	275.4667	386.5052	435.3341	465.156	519.3564	531.85	558.5269	581.0849	711.6816	851.992	854.7989	908.1682	913.294	935.8509	962.9932	980.3173	1069.1963	1077.3465	1125.7652	1151.9963	1179.1802	1184.5148	1285.1357	1309.0588	1361.6955	1394.3202	1395.0551	1427.3138	1455.5687	1482.5889	1488.3392	1766.8346	1787.7035	2999.3318	3018.0778	3062.2439	3146.6039	3146.8999	3175.19	3469.994	3470.1949
CC1OC(=N)CC(=N)O1	C[C@H]1O[C]([NH])C[C]([NH])O1	
InChI=1S/C5H8N2O2/c1-3-8-4(6)2-5(7)9-3/h3,6-7H,2H2,1H3	InChI=1S/C5H8N2O2/c1-3-8-4(6)2-5(7)9-3/h3,6-7H,2H2,1H3
