17
gdb 30870	2.63679	1.31248	0.92658	2.2518	72.04	-0.1905	0.0573	0.2478	1249.6665	0.135299	-455.178983	-455.169665	-455.168721	-455.213291	33.373	
C	 0.0877283113	 1.0493672527	-0.4276077411	-0.24867
O	-0.4909221667	 0.2254160598	 0.5882921576	-0.270701
C	 0.3946580888	-0.5118816796	 1.2968354748	 0.278242
C	 0.8242489816	-1.8005552793	 1.1815067343	 0.177882
C	 0.4477803807	-2.8126873005	 0.1532258717	-0.49347
N	 1.7133349399	-2.0897652298	 2.21941888	-0.416808
C	 1.794597573	-0.9943810207	 2.9182916161	 0.434765
O	 2.5284970079	-0.798695241	 4.0290207196	-0.427686
N	 1.0392803685	 0.0178937743	 2.4246076415	-0.369801
H	 0.6431752538	 0.4436129407	-1.1526473657	 0.126766
H	-0.7402496805	 1.556320224	-0.927213279	 0.132983
H	 0.7645660547	 1.7983192597	 0.0029648094	 0.114372
H	 1.3151731174	-3.1285316885	-0.4377316092	 0.125956
H	 0.0331072118	-3.7123668874	 0.621205172	 0.131071
H	-0.3039481886	-2.4038211624	-0.5271949932	 0.122029
H	 2.9727110321	-1.6383664937	 4.203343048	 0.311648
H	 0.8767044444	 0.9155722116	 2.8477113833	 0.27142
64.0033	142.2727	147.557	148.2631	220.9207	248.3699	279.213	329.4454	407.553	433.352	468.2558	537.3432	620.581	638.2154	701.8408	732.9014	808.8144	988.004	1024.3183	1062.1085	1066.5495	1157.7842	1172.8043	1182.8787	1209.7429	1252.0494	1293.0376	1395.5576	1423.9467	1475.4363	1479.1053	1486.519	1496.229	1502.5371	1564.2936	1624.8517	1680.7568	3011.264	3028.8484	3078.0205	3079.6842	3117.2576	3132.157	3674.7363	3799.9603
COC1=C(C)N=C(O)N1	COc1c(C)nc(O)[nH]1	
InChI=1S/C5H8N2O2/c1-3-4(9-2)7-5(8)6-3/h1-2H3,(H2,6,7,8)	InChI=1S/C5H8N2O2/c1-3-4(9-2)7-5(8)6-3/h1-2H3,(H2,6,7,8)
