20
gdb 88730	3.48356	0.88214	0.76352	3.4026	81.88	-0.2441	-0.0237	0.2203	1516.6383	0.169704	-403.117289	-403.107919	-403.106975	-403.152496	34.32	
C	 0.3859365079	 1.5661172112	-0.2478185466	-0.408977
C	 0.1824426027	 0.0798195072	-0.0484076135	-0.000848
C	 1.3509289759	-0.8727176958	-0.0337377745	-0.303475
C	 0.5533221595	-0.6454638217	 1.2315369231	 0.004009
C	 1.1649662839	 0.0636318128	 2.3960657037	-0.021462
N	 0.3961572657	 0.1273229044	 3.6320060247	-0.341307
C	 1.6641627155	-0.6341201071	 3.6387782568	-0.134815
C	 1.5361733325	-2.104812622	 3.8236423404	 0.179921
O	 2.4297737564	-2.8076401496	 4.2259631284	-0.262196
H	 1.3409057237	 1.9112514833	 0.1598937084	 0.114228
H	 0.3866886886	 1.812144623	-1.3151207522	 0.121917
H	-0.4110488758	 2.1485282752	 0.227707308	 0.121398
H	-0.7207288815	-0.299585843	-0.5194451276	 0.090246
H	 1.268671869	-1.831492341	-0.5333998126	 0.116601
H	 2.3450133974	-0.4367965866	-0.0771313203	 0.111707
H	-0.1250824578	-1.4406173906	 1.5218515548	 0.093049
H	 1.7612069808	 0.9366922648	 2.1357564852	 0.092062
H	 0.5194110618	 1.0158359555	 4.1090015967	 0.242738
H	 2.5435682911	-0.2069101694	 4.1151615186	 0.101987
H	 0.5352274626	-2.5141214406	 3.5668094886	 0.083217
33.1544	79.572	134.5813	192.9381	213.445	233.4407	304.2043	366.6657	408.6098	437.8527	483.5923	569.6179	764.7711	795.8679	830.8957	856.74	891.3112	921.3837	938.835	973.4257	998.7207	1037.9916	1042.6283	1070.7605	1082.0527	1108.5441	1144.5053	1153.4811	1192.7961	1206.3114	1222.4552	1229.0514	1271.8502	1334.4084	1367.0959	1401.148	1421.1507	1432.3016	1477.7357	1494.9259	1495.5834	1510.8693	1821.2627	2901.5868	3030.8412	3091.6457	3097.8603	3119.2087	3126.4807	3138.78	3143.9847	3165.7701	3211.5905	3515.2834
CC1CC1C1NC1C=O	C[C@H]1C[C@H]1[C@H]1N[C@H]1C=O	
InChI=1S/C7H11NO/c1-4-2-5(4)7-6(3-9)8-7/h3-8H,2H2,1H3	InChI=1S/C7H11NO/c1-4-2-5(4)7-6(3-9)8-7/h3-8H,2H2,1H3/t4-,5+,6-,7+/m0/s1
