15
gdb 9335	3.40343	1.19007	0.91155	2.8607	60.45	-0.2494	-0.0737	0.1757	1201.9121	0.117543	-436.965395	-436.956693	-436.955749	-436.999862	29.584	
O	-0.1235856856	 1.4928274889	-0.4958721888	-0.413643
C	-0.1119413812	 0.1052427959	-0.186949537	-0.076343
C	-1.5079886088	-0.4065061293	 0.1623328046	-0.165906
N	-2.4379752881	-0.0755550618	-0.8964988108	-0.302531
C	-3.4046043434	-0.9074428718	-1.3328577816	 0.306307
O	-3.6576732425	-2.0208239451	-0.9042504074	-0.364885
C	-4.2241842073	-0.3222649742	-2.4871362129	 0.102745
O	-4.0391916977	 0.7728146596	-2.9516199652	-0.245291
H	-0.2738540519	 1.9815809067	 0.3202679622	 0.28957
H	 0.2515260284	-0.3951463616	-1.0897997334	 0.12802
H	 0.58335482	-0.126252801	 0.6321859511	 0.102842
H	-1.5125798581	-1.4925748357	 0.2909268905	 0.145624
H	-1.8368178245	 0.0358798376	 1.1153339895	 0.10782
H	-2.3381560898	 0.8171468401	-1.3614551544	 0.270047
H	-5.0088576895	-1.0172429483	-2.8464701465	 0.115622
44.8004	87.8407	107.8517	175.9043	202.2721	276.1246	321.4785	356.6321	501.2576	525.5499	587.4019	689.5714	693.4868	828.2107	909.1788	985.0473	1026.6831	1057.466	1095.9584	1137.4751	1209.6475	1232.584	1287.771	1363.3762	1385.8203	1389.1511	1414.7241	1496.7769	1499.8086	1544.9577	1783.573	1824.3859	2953.6154	2989.0217	3010.8826	3089.6372	3102.3881	3596.0517	3810.9981
OCCNC(=O)C=O	OCCNC(=O)C=O	
InChI=1S/C4H7NO3/c6-2-1-5-4(8)3-7/h3,6H,1-2H2,(H,5,8)	InChI=1S/C4H7NO3/c6-2-1-5-4(8)3-7/h3,6H,1-2H2,(H,5,8)
