15
gdb 71319	3.43572	1.49939	1.1974	3.9303	70.11	-0.2699	0.0214	0.2913	997.2844	0.112729	-416.717771	-416.710476	-416.709532	-416.749485	28.076	
O	-0.0007230632	 1.3813519081	 0.1727858156	-0.450305
C	 0.0891104689	 0.0124923861	 0.1072308612	 0.345638
C	 0.7724983688	-1.0034588019	 1.0232588517	-0.244873
N	 0.0624406398	-1.9163032959	 0.0265015652	-0.157135
C	-1.1320775003	-0.9317285098	-0.0276240674	-0.044178
C	-1.108941494	-0.9656453181	-1.5701060565	-0.17013
C	-1.6468780615	 0.1538000897	-2.3218821064	 0.268377
N	-2.0806256371	 1.0253379644	-2.945042406	-0.328327
C	 0.3657114402	-0.931261743	-1.1204575759	-0.082849
H	 0.867960461	 1.7694635104	 0.0184108816	 0.293068
H	 1.8628341886	-1.091235668	 0.9877786176	 0.10872
H	 0.4022882704	-1.1062689083	 2.0473779116	 0.117344
H	-1.9814221936	-1.0412207976	 0.6461535498	 0.107278
H	-1.4249318365	-1.9191048473	-2.0021334474	 0.136216
H	 1.2667623484	-1.0339601086	-1.7257390346	 0.101155
113.902	147.8542	228.097	298.5768	351.1071	434.7693	443.5767	507.2323	568.4475	644.9249	734.3496	812.5746	873.6355	878.281	910.5824	920.6372	931.2856	1026.0933	1037.2315	1054.815	1082.5464	1107.702	1119.4501	1154.8149	1175.5405	1209.3168	1246.9031	1264.2885	1293.2719	1348.2242	1384.856	1519.278	2359.7215	3048.4837	3083.9377	3113.5859	3118.4842	3129.0727	3805.075
OC12CN3C1C(C#N)C23	O[C@@]12CN3[C@@H]1[C@@H](C#N)[C@@H]23	
InChI=1S/C6H6N2O/c7-1-3-4-6(9)2-8(4)5(3)6/h3-5,9H,2H2	InChI=1S/C6H6N2O/c7-1-3-4-6(9)2-8(4)5(3)6/h3-5,9H,2H2/t3-,4-,5+,6+
