19
gdb 72769	2.73941	1.76766	1.48991	1.3029	80.79	-0.2292	0.0016	0.2308	973.1599	0.160142	-385.845224	-385.837767	-385.836823	-385.876593	30.504	
C	-0.2422828954	 1.5696023563	-0.1606796718	-0.453102
C	 0.0583359052	 0.0863308908	-0.015772832	 0.425937
O	-1.0901375274	-0.5844969762	 0.6604070669	-0.342827
C	-0.3604000565	-0.6422051718	 1.9230399248	-0.155579
C	 0.9020947038	-0.4036422531	 1.1305690534	 0.098369
C	 2.0018972989	-1.0541762384	 0.7496295411	-0.19595
C	 2.0652378327	-1.0832327779	-0.7484977781	-0.06988
C	 0.9894444228	-1.9829356153	-1.3290288047	-0.286879
C	 0.7236150117	-0.5071337601	-1.2436655042	-0.110064
H	 0.6309772924	 2.1052846809	-0.5463752584	 0.121336
H	-1.0714164156	 1.7121391282	-0.8621996822	 0.125646
H	-0.5256275936	 2.0135069869	 0.7972791183	 0.118124
H	-0.6758586585	 0.1602847761	 2.6022887021	 0.104023
H	-0.4633766838	-1.6098309647	 2.4239919701	 0.11503
H	 2.6292424754	-1.6849106786	 1.369880729	 0.10009
H	 2.9874440135	-0.9421053684	-1.3015422854	 0.088684
H	 1.1557769402	-2.382188547	-2.3241104038	 0.11202
H	 0.4549794499	-2.6431760506	-0.6546620519	 0.124
H	 0.6885815146	 0.0540010827	-2.1702771034	 0.081024
158.0189	211.9802	225.1425	256.197	341.3234	414.406	429.3623	504.1128	595.9649	664.5507	693.0789	794.762	807.8739	832.6242	848.4203	857.4541	903.9252	915.5741	959.6526	982.618	1018.0716	1038.8546	1058.464	1072.0511	1090.972	1099.099	1118.794	1139.3542	1189.9399	1193.3703	1234.2811	1303.5528	1321.3817	1330.1047	1374.4674	1403.7731	1475.8168	1485.946	1487.9503	1515.9891	1710.7396	3013.3297	3035.3932	3078.0572	3104.839	3117.4218	3130.3475	3165.7067	3177.4691	3191.6196	3220.16
CC12OCC1=CC1CC21	C[C@]12OC[C]1[CH][C@H]1C[C@@H]21	
InChI=1S/C8H10O/c1-8-6(4-9-8)2-5-3-7(5)8/h2,5,7H,3-4H2,1H3	InChI=1S/C8H10O/c1-8-6(4-9-8)2-5-3-7(5)8/h2,5,7H,3-4H2,1H3/t5-,7+,8-/m0/s1
