20
gdb 9269	6.35011	0.77666	0.72552	1.4375	77.93	-0.2537	0.0598	0.3135	1574.8525	0.174133	-348.978776	-348.968793	-348.967849	-349.013744	35.974	
C	 0.0323912391	 1.5786932865	 0.094628321	-0.38091
C	-0.0065440565	 0.0518330555	-0.0019403778	-0.193717
C	 0.6968200236	-0.4930654155	-1.2510756996	 0.136367
O	 2.0621406883	-0.0757625044	-1.3082796308	-0.428549
C	 0.576577855	-2.0171716621	-1.3661744818	-0.196769
C	 1.2399851759	-2.564585685	-2.6452719352	-0.355882
C	 1.196363842	-4.0183403309	-2.7319879868	 0.293027
C	 1.1476992116	-5.2187849733	-2.7773152241	-0.441805
H	 1.0629012991	 1.941211807	 0.056450013	 0.127208
H	-0.5106729045	 2.0386965717	-0.738291448	 0.115173
H	-0.4240395117	 1.928987289	 1.0250882764	 0.110217
H	 0.4670444025	-0.3932144556	 0.8859537564	 0.086262
H	-1.0451249453	-0.3016316478	 0.0007206514	 0.098863
H	 0.2426924698	-0.0339179415	-2.1401820885	 0.085624
H	 2.502239465	-0.4169291314	-0.5208058267	 0.277503
H	 1.0414345759	-2.4862787244	-0.4885054881	 0.098476
H	-0.4804591941	-2.3053245809	-1.3474738782	 0.108952
H	 0.7462891574	-2.1298831973	-3.5246405149	 0.127129
H	 2.2775420713	-2.2143533289	-2.6792126312	 0.141641
H	 1.1121746559	-6.2783793106	-2.8314368063	 0.19119
60.44	89.5276	114.2308	133.2355	210.0832	224.7177	289.2583	321.9676	346.9114	358.4896	455.3685	487.846	570.1277	613.3453	633.6913	765.8756	784.6326	863.6149	942.3088	965.5213	1000.4772	1014.2899	1058.334	1083.4542	1110.6746	1144.1411	1172.6597	1260.4905	1264.0313	1298.4241	1327.8267	1361.6069	1378.1607	1390.6021	1408.5294	1422.3587	1471.8964	1481.268	1491.7926	1496.3253	1509.6287	2238.0869	2998.8473	3013.4517	3020.1274	3030.5214	3038.3909	3050.7045	3062.8082	3082.2132	3103.0462	3123.1021	3507.9439	3787.9229
CCC(O)CCC#C	CC[C@@H](O)CCC#C	
InChI=1S/C7H12O/c1-3-5-6-7(8)4-2/h1,7-8H,4-6H2,2H3	InChI=1S/C7H12O/c1-3-5-6-7(8)4-2/h1,7-8H,4-6H2,2H3/t7-/m1/s1
