16
gdb 128637	2.47938	1.49436	0.9435	3.5337	67.9	-0.2142	0.0373	0.2515	1197.2172	0.124777	-471.229948	-471.220973	-471.220028	-471.264154	31.195	
C	-0.0311988527	 1.3842408317	 0.0931233583	-0.239814
O	-0.0453312176	-0.047140132	 0.0641511447	-0.271964
C	-1.2538426079	-0.6026896689	 0.0030039479	 0.512536
N	-2.4251502008	 0.0092259324	-0.0334119461	-0.476018
C	-3.2799654694	-1.0537385174	-0.0900334547	 0.426405
O	-4.6093865042	-0.8894719091	-0.1418789277	-0.409079
N	-2.7366885023	-2.2503951535	-0.0912318679	-0.338053
N	-1.3912955949	-1.9380198986	-0.029152939	-0.061513
C	-0.3855128011	-2.9719139665	-0.0086360753	-0.331488
H	 1.0204260781	 1.667029493	 0.1412057141	 0.13759
H	-0.4961403295	 1.7919623307	-0.8085059365	 0.14533
H	-0.5679114203	 1.7566682837	 0.9698260969	 0.145267
H	-4.7691729487	 0.0613253852	-0.1292831601	 0.308375
H	-0.4504935167	-3.5815566952	-0.9143280919	 0.148923
H	 0.5947547159	-2.4970761991	 0.0420624545	 0.154551
H	-0.5246467279	-3.6182806463	 0.8625608727	 0.148952
88.6607	90.8094	138.6592	158.619	194.7989	256.3125	280.2915	378.0272	399.8146	416.6643	583.8211	651.6358	671.067	704.5655	769.1068	876.8681	1027.6707	1065.261	1074.2118	1156.4711	1182.0783	1210.4474	1220.9926	1251.4586	1316.4478	1439.2508	1449.4626	1467.6479	1477.754	1479.4981	1496.2734	1508.2468	1545.0106	1611.6761	1666.0221	3047.1614	3048.5179	3110.3971	3122.1425	3158.0546	3158.2612	3820.7245
COC1=NC(O)=NN1C	COc1nc(O)nn1C	
InChI=1S/C4H7N3O2/c1-7-4(9-2)5-3(8)6-7/h1-2H3,(H,6,8)	InChI=1S/C4H7N3O2/c1-7-4(9-2)5-3(8)6-7/h1-2H3,(H,6,8)
