19
gdb 90258	3.39205	1.52721	1.26209	1.0353	74.4	-0.2305	0.0514	0.2818	1038.9749	0.159526	-422.965412	-422.957765	-422.956821	-422.99736	30.197	
C	-0.0127579944	 1.5464586119	 0.048015244	-0.392708
C	 0.054064802	 0.026358918	 0.0182503396	-0.010393
C	 1.0897568289	-0.627957407	-0.9778636239	-0.364194
C	 1.9025806969	-1.0493627281	 0.2324197512	 0.437826
O	 2.7866206895	-2.1449164153	 0.3817817739	-0.335646
C	 3.5606234348	-1.4090407032	 1.3781529285	-0.117096
C	 2.744847566	-0.1189242146	 1.118906824	-0.002358
O	 1.6569008054	 0.1472350911	 2.024118619	-0.301859
C	 0.7723186831	-0.6784304452	 1.2254019526	 0.020672
H	 0.9725501436	 1.990495039	 0.2139505264	 0.12522
H	-0.4048248154	 1.9333396396	-0.8982051389	 0.113643
H	-0.6669782831	 1.8944571844	 0.8536462712	 0.12316
H	-0.9480097659	-0.3881024955	-0.1212277221	 0.082056
H	 0.6632742134	-1.4827251581	-1.5105011095	 0.117278
H	 1.5809391119	 0.0285311261	-1.7020319729	 0.102408
H	 3.4426547655	-1.8186602774	 2.3865515527	 0.117423
H	 4.6197133658	-1.3742717006	 1.1018980503	 0.111523
H	 3.2841290892	 0.7788083361	 0.8093666422	 0.089625
H	 0.1809265928	-1.3699767413	 1.8283171118	 0.083419
101.8448	189.982	213.8865	229.3181	344.2035	366.0751	399.2302	476.022	582.6945	661.9993	765.9024	798.5779	824.1641	845.0816	860.1278	920.698	945.3149	960.6997	973.5463	1011.8041	1046.3924	1071.1862	1098.286	1114.1588	1136.3375	1155.7105	1170.4805	1172.4335	1208.1727	1260.1652	1272.4171	1293.0639	1319.2067	1330.8312	1355.2851	1365.729	1413.089	1482.0349	1492.2929	1495.4834	1502.8817	3035.2785	3038.3964	3051.8512	3063.8512	3085.786	3097.51	3098.4777	3103.2667	3105.0244	3117.7849
CC1CC23OCC2OC13	C[C@H]1C[C@@]23OC[C@@H]2O[C@@H]13	
InChI=1S/C7H10O2/c1-4-2-7-5(3-8-7)9-6(4)7/h4-6H,2-3H2,1H3	InChI=1S/C7H10O2/c1-4-2-7-5(3-8-7)9-6(4)7/h4-6H,2-3H2,1H3/t4-,5-,6-,7+/m0/s1
