18
gdb 61996	2.76031	0.95388	0.78043	5.1655	74.28	-0.2523	0.0163	0.2686	1455.5307	0.145826	-439.079713	-439.069934	-439.06899	-439.115343	35.184	
C	 1.8355940713	 1.3187617212	 0.2920685027	-0.396127
C	 0.7280085567	 0.4358134808	-0.29839422	-0.138331
N	 1.3055936972	-0.4773102799	-1.3060967881	-0.313823
H	 1.4351440764	 0.5034494939	-2.9720394187	 0.302924
H	 1.9620597927	-1.1006655059	-0.8488979173	 0.23682
C	 0.3227993652	-1.2395576333	-2.0805635535	-0.318022
C	-0.0900419064	-0.4829326	-3.3532789597	 0.424359
O	 0.7537808333	 0.510452501	-3.6779331351	-0.363483
O	-1.0552182655	-0.767771841	-4.0064132486	-0.328901
C	-0.0074406208	-0.2759179947	 0.7561722256	 0.344213
C	-0.5847860232	-0.8880606621	 1.6151605421	-0.471846
H	 2.5786584827	 0.7069874074	 0.8134343434	 0.127236
H	 2.3359295227	 1.8742576526	-0.5051230664	 0.12801
H	 1.4166029961	 2.0251570002	 1.0120999051	 0.139073
H	 0.0212947657	 1.081339374	-0.8361807296	 0.131643
H	 0.7772941203	-2.1805012058	-2.4070652315	 0.141845
H	-0.5821806191	-1.4983970698	-1.5187294261	 0.14666
H	-1.1071873853	-1.4190396886	 2.3727192558	 0.20775
48.1886	70.7825	90.8703	154.5626	211.3868	245.01	276.2132	324.9188	371.8933	511.7491	550.9282	569.3646	582.1631	642.298	655.8881	666.8594	756.6489	829.0494	852.0601	879.9897	915.3758	1001.1955	1065.0916	1094.0188	1131.2856	1147.4225	1210.6456	1267.2003	1323.214	1334.521	1359.7217	1406.6678	1416.045	1470.3429	1473.5543	1488.619	1500.6197	1881.3945	2228.6663	3027.113	3044.004	3046.4039	3092.1792	3120.1287	3136.5922	3499.654	3503.52	3534.3602
CC([NH2+]CC([O-])=O)C#C	C[C@@H](NCC(=O)O)C#C	
InChI=1S/C6H9NO2/c1-3-5(2)7-4-6(8)9/h1,5,7H,4H2,2H3,(H,8,9)	InChI=1S/C6H9NO2/c1-3-5(2)7-4-6(8)9/h1,5,7H,4H2,2H3,(H,8,9)/t5-/m1/s1
