15
gdb 28638	5.90858	1.0292	0.88135	2.6197	86.46	-0.2503	-0.0491	0.2012	1270.8083	0.112664	-379.695122	-379.686962	-379.686018	-379.729207	29.484	
C	-0.0024663859	 1.530474797	 0.010401518	-0.50098
C	-0.0049708062	 0.0271715157	 0.0022158864	 0.256729
C	-0.0078912728	-0.7205774227	-1.1765811836	-0.066085
N	 0.0127542381	-2.0501820224	-1.2040912068	-0.277834
C	 0.0345982143	-2.6670452916	-0.0127531811	 0.182414
N	 0.0268324439	-2.0632650055	 1.185408533	-0.277846
C	 0.0059500656	-0.7334154796	 1.1726848578	-0.066142
C	 0.0632962812	-4.099732875	-0.0207810644	 0.255105
C	 0.0881907578	-5.3017453611	-0.0274024059	-0.351371
H	 1.020225778	 1.9262767391	 0.0028018849	 0.146292
H	-0.5138057769	 1.9336745543	-0.86842721	 0.137373
H	-0.4969685106	 1.9239183631	 0.9031565807	 0.137297
H	-0.0322827671	-0.2207629296	-2.1441946794	 0.113604
H	-0.0069983893	-0.2442024216	 2.1459183984	 0.113598
H	 0.1101588799	-6.3636332401	-0.0324318279	 0.197845
19.7926	88.0162	151.1036	247.1155	320.8348	398.1961	414.8287	458.6589	545.0496	557.9128	644.0203	648.4929	671.7691	710.3095	833.5395	853.5115	942.2449	1003.5536	1007.7344	1054.1775	1071.5741	1242.0832	1251.5651	1283.6492	1311.3736	1409.8216	1416.4153	1462.2447	1484.8761	1488.5872	1572.7432	1627.8102	2239.9872	3032.4096	3091.4814	3117.5473	3136.8461	3139.494	3502.6101
CC1=CN=C(N=C1)C#C	Cc1cnc(nc1)C#C	
InChI=1S/C7H6N2/c1-3-7-8-4-6(2)5-9-7/h1,4-5H,2H3	InChI=1S/C7H6N2/c1-3-7-8-4-6(2)5-9-7/h1,4-5H,2H3
