13
gdb 130805	8.06715	0.65399	0.60495	3.9264	84.8	-0.2477	-0.0672	0.1805	1682.61	0.090545	-415.609233	-415.60143	-415.600486	-415.642815	27.004	
O	-0.1262705235	-0.0398193156	 0.000376386	-0.239559
C	-0.028769703	 1.1686324682	 0.0083417818	-0.008305
C	 1.2104560043	 1.888568621	 0.0000271623	 0.161169
C	 2.2448193356	 2.5208195378	-0.0066503813	-0.056535
C	 3.444160793	 3.249496774	-0.0144788567	 0.102994
C	 4.7424764466	 2.7471926969	-0.0328958045	-0.149615
N	 5.5587838915	 3.8157177578	-0.0337964684	-0.171002
N	 4.9031406118	 4.9989777746	-0.0173244117	-0.198424
C	 3.6246023174	 4.6638766108	-0.005600257	-0.116374
H	-0.9268591122	 1.8199745341	 0.0232435065	 0.095453
H	 5.1079171534	 1.7331658748	-0.0448071808	 0.16094
H	 6.5653916927	 3.8196687799	-0.0450393623	 0.288472
H	 2.8588908826	 5.4245127857	 0.0088488562	 0.130785
68.461	73.6117	118.13	202.201	257.7103	413.5971	503.0197	514.2325	566.194	666.5636	693.7333	700.808	813.6366	896.8816	943.6395	958.1431	1017.4764	1031.4052	1081.9182	1169.3546	1238.6109	1331.7294	1370.8616	1418.0163	1428.9223	1499.0191	1591.5572	1752.9422	2305.5458	2912.6603	3260.4707	3274.04	3669.6114
O=CC#CC1=CNN=C1	O=CC#Cc1c[nH]nc1	
InChI=1S/C6H4N2O/c9-3-1-2-6-4-7-8-5-6/h3-5H,(H,7,8)	InChI=1S/C6H4N2O/c9-3-1-2-6-4-7-8-5-6/h3-5H,(H,7,8)
