18
gdb 110659	3.70841	1.40159	1.24049	1.5701	78.76	-0.2117	-0.0447	0.1671	1054.9085	0.147137	-401.808912	-401.80126	-401.800315	-401.8412	29.604	
C	-0.4480149764	 1.2019143172	-0.147062081	-0.244312
O	-0.0811188223	-0.1631572151	-0.0951794231	-0.23428
C	 0.7558762844	-0.5545635796	-1.1275487727	 0.123391
C	 1.3967630321	-1.9878318615	-1.0689703154	-0.101964
C	 1.2652864939	-2.1401522712	-2.5367295637	-0.081093
N	 0.7282823995	-3.1973772692	-1.7082803773	-0.119945
C	-0.73523424	-3.1939196655	-1.9936919621	-0.17616
C	-1.0355335071	-1.7292318852	-2.2813213407	-0.093649
C	 0.1375070636	-1.0881591621	-2.4535203926	-0.068202
H	 0.4358221091	 1.8571111398	-0.1284182537	 0.111048
H	-1.0298270731	 1.429753741	-1.0513775214	 0.11931
H	-1.0602057444	 1.4053441697	 0.7339724262	 0.131741
H	 1.5816489972	 0.1652252683	-1.2503624127	 0.079345
H	 2.2438602103	-2.2368455789	-0.4389095215	 0.10786
H	 2.0139861647	-2.2895226762	-3.3046136579	 0.094566
H	-0.9034369009	-3.9250528273	-2.7945356608	 0.118523
H	-1.3213756466	-3.509699827	-1.1230735095	 0.124476
H	-1.8990004241	-1.2554247772	-1.8252940902	 0.109346
78.9144	141.2065	168.7606	265.2881	319.7831	372.4123	489.1638	539.6447	621.7781	682.4257	759.8937	788.3284	801.0257	860.1816	882.8832	894.8366	910.0956	936.0393	976.0164	1003.6104	1033.197	1054.4143	1072.0157	1147.1389	1178.1008	1190.481	1198.1635	1202.3639	1225.1476	1231.3717	1281.3852	1287.46	1323.2739	1387.2412	1470.0467	1483.1442	1486.7033	1508.083	1574.2193	2967.0954	2986.8323	3023.7807	3039.1528	3071.8307	3124.5712	3174.036	3178.0386	3194.0445
COC1C2C3N2CC=C13	CO[C@H]1[C@@H]2[C@H]3N2C[CH][C]13	
InChI=1S/C7H9NO/c1-9-7-4-2-3-8-5(4)6(7)8/h2,5-7H,3H2,1H3	InChI=1S/C7H9NO/c1-9-7-4-2-3-8-5(4)6(7)8/h2,5-7H,3H2,1H3/t5-,6-,7+,8?/m0/s1
