19
gdb 104370	2.24785	1.51627	1.31592	3.227	70.45	-0.2678	0.0033	0.2711	1089.5174	0.158983	-460.215008	-460.206059	-460.205115	-460.248482	33.557	
C	-0.1224915296	 1.4882167083	 0.1402339082	-0.403596
C	-0.0905608817	-0.0251175474	-0.0859366374	-0.213896
C	 0.8433247074	-0.4780657669	-1.2334272308	 0.261251
O	 2.1645590915	-0.030803318	-1.0180315587	-0.484601
C	 0.7745212288	-1.9927530241	-1.4677019078	-0.28215
C	-0.3894226803	-2.1206951035	-2.4617087671	-0.094201
O	-0.405514	-0.8823580691	-3.2102596127	-0.220018
C	 0.3369326833	 0.0514599413	-2.5824770077	 0.416346
O	 0.577521277	 1.1334118572	-3.0453869755	-0.366375
H	 0.8785389574	 1.860615181	 0.374464186	 0.126479
H	-0.4848625416	 2.023554154	-0.7415919307	 0.139522
H	-0.7770034425	 1.7340914723	 0.981244752	 0.114521
H	 0.2691353434	-0.5273877816	 0.8199892246	 0.110109
H	-1.1047912856	-0.4015229892	-0.2730395553	 0.099251
H	 2.2444332185	 0.8119882159	-1.4865372853	 0.294825
H	 1.7134886037	-2.317447556	-1.9236651254	 0.129191
H	 0.6094262371	-2.5707345882	-0.5560860939	 0.115563
H	-0.2689549283	-2.9331204811	-3.1804948556	 0.132964
H	-1.3580181784	-2.2334043449	-1.9638065868	 0.124815
91.2736	119.9387	177.697	202.6507	237.6721	272.5305	307.1508	357.3875	401.4195	449.5465	544.4685	619.5031	670.7007	720.1963	751.5546	796.3398	839.9158	930.9318	960.0066	1009.1019	1014.4557	1043.6155	1058.8984	1123.0837	1145.9112	1173.2144	1217.1383	1238.506	1242.0738	1299.742	1338.2755	1352.3297	1403.6451	1407.3236	1419.0197	1473.6794	1492.4637	1497.0896	1512.0576	1523.9201	1861.1251	3021.7723	3047.9567	3053.3492	3062.3494	3070.8867	3113.6074	3116.5306	3125.7721	3127.9987	3747.6638
CCC1(O)CCOC1=O	CC[C@@]1(O)CCOC1=O	
InChI=1S/C6H10O3/c1-2-6(8)3-4-9-5(6)7/h8H,2-4H2,1H3	InChI=1S/C6H10O3/c1-2-6(8)3-4-9-5(6)7/h8H,2-4H2,1H3/t6-/m1/s1
