18
gdb 60884	2.21207	1.36042	1.15161	5.1943	74.35	-0.2442	-0.0343	0.21	1159.1544	0.145532	-439.103314	-439.093902	-439.092957	-439.13794	33.513	
C	 0.793872577	 1.2589974402	 0.0757623339	-0.359564
N	 0.187637534	-0.0666380955	 0.022007946	-0.093775
C	-0.5474335864	-0.5122002558	 1.0922162764	 0.155212
O	-0.6249127568	 0.0404271778	 2.1662142695	-0.334543
C	 0.0677482013	-0.7082740206	-1.2480248883	 0.206823
C	 1.338577381	-1.1812544754	-1.9517077385	-0.301513
C	 0.4133838561	-2.1912019953	-1.3703611138	-0.300777
C	-1.0242084566	-0.2191235594	-2.1415503584	 0.14717
O	-1.8091262884	 0.6440048778	-1.8457813669	-0.264247
H	 1.8241614723	 1.223188385	-0.2914572567	 0.118342
H	 0.2220129296	 1.9724894393	-0.5261710728	 0.146771
H	 0.7859330853	 1.5807314528	 1.1167458176	 0.168805
H	-1.0544349471	-1.4694462421	 0.8683925649	 0.076393
H	 1.3853102099	-1.0690076005	-3.0293184859	 0.133799
H	 2.2650332751	-0.976821712	-1.429147926	 0.144665
H	 0.7063237678	-2.683896462	-0.4519450207	 0.147645
H	-0.1963728239	-2.7914191703	-2.0368517407	 0.135838
H	-1.0578647103	-0.7272377041	-3.1338656095	 0.072956
56.388	113.5354	134.0517	146.9043	206.3619	243.1835	315.9344	326.9083	336.4013	388.2795	514.8005	520.2717	627.7522	782.8061	832.9888	848.7747	893.2264	963.1167	970.5033	1036.1672	1046.6718	1058.7343	1076.8268	1097.4609	1155.548	1191.3682	1200.0198	1273.3828	1351.3739	1380.1297	1425.4637	1440.8175	1446.5655	1459.7249	1491.4118	1492.5356	1516.3443	1802.2391	1828.3923	2858.0978	2958.5238	3039.6246	3100.0305	3144.6386	3147.7514	3162.8583	3231.4763	3244.8969
CN(C=O)C1(CC1)C=O	CN(C=O)C1(CC1)C=O	
InChI=1S/C6H9NO2/c1-7(5-9)6(4-8)2-3-6/h4-5H,2-3H2,1H3	InChI=1S/C6H9NO2/c1-7(5-9)6(4-8)2-3-6/h4-5H,2-3H2,1H3
