16
gdb 47388	2.58507	1.40251	1.1428	4.3073	69.16	-0.2559	0.0123	0.2682	1087.1483	0.127486	-434.129945	-434.121936	-434.120992	-434.162986	29.67	
O	 0.0122705862	-0.0550460561	-0.134328051	-0.399551
C	-0.0286312854	 1.1507547917	 0.0109822547	 0.445261
N	-1.2018320885	 1.8482157392	 0.1730144326	-0.336693
C	-1.3267672309	 3.2945601891	 0.0881565565	-0.1693
C	-0.0729436525	 3.9421532567	 0.6699258075	-0.213861
C	 1.1792287429	 3.3554485344	-0.0056911266	-0.140681
N	 1.135514039	 1.9096240029	 0.1015753182	-0.325519
C	 1.2881053451	 3.8184612944	-1.4100255677	 0.281322
N	 1.3766094002	 4.1714091875	-2.5070488203	-0.319454
H	-2.0172787012	 1.2795182273	 0.0085453315	 0.257407
H	-1.4708058436	 3.6315247643	-0.9493226021	 0.132009
H	-2.2064435449	 3.6092798999	 0.6580425484	 0.122616
H	-0.1007281955	 5.0248465846	 0.5297489951	 0.132275
H	-0.0028996571	 3.728628816	 1.7402562764	 0.132736
H	 2.0714708164	 3.7179568935	 0.517359175	 0.139353
H	 1.9544168098	 1.3868251547	-0.1695456883	 0.262081
65.7759	108.5612	170.7775	231.9663	323.7586	403.5072	440.1766	480.4443	508.7005	550.3566	604.6067	620.8095	729.065	761.1851	811.3036	884.9632	914.2935	979.6931	1022.9505	1087.7391	1129.4233	1162.1859	1206.5206	1242.0893	1309.8453	1339.2029	1368.2694	1383.4143	1424.5017	1457.9948	1474.072	1483.7576	1528.0448	1815.9801	2350.2652	2994.7504	3044.89	3065.7797	3077.7108	3125.6402	3632.1241	3642.8471
O=C1NCCC(N1)C#N	O=C1NCC[C@@H](N1)C#N	
InChI=1S/C5H7N3O/c6-3-4-1-2-7-5(9)8-4/h4H,1-2H2,(H2,7,8,9)	InChI=1S/C5H7N3O/c6-3-4-1-2-7-5(9)8-4/h4H,1-2H2,(H2,7,8,9)/t4-/m1/s1
