17
gdb 23557	2.39468	1.59312	1.08571	0.9787	77.99	-0.2318	0.0035	0.2353	1113.476	0.136122	-417.901197	-417.893249	-417.892305	-417.933597	30.788	
O	-0.0908860914	 1.3006955984	 0.1290555871	-0.394524
N	 0.0154511409	-0.0958191426	-0.0191580716	-0.281311
C	-1.1255837364	-0.6415465626	-0.1008223889	 0.359385
C	-2.555524464	-0.2314996197	 0.013696734	-0.153119
C	-3.3739044887	-0.8993126601	-1.0769041109	-0.289132
C	-2.9393837411	-1.7363113677	 0.0814205479	-0.134868
C	-1.4696260207	-2.1056734205	-0.0896822287	 0.300391
C	-0.8000653756	-3.2354852296	-0.7740511416	-0.30293
N	-0.7760100774	-3.115378911	 0.697908943	-0.376215
H	 0.832244725	 1.5681164372	 0.1917551956	 0.306482
H	-2.9286182708	 0.6077723157	 0.583173379	 0.115016
H	-4.4196344571	-0.6081748496	-1.0853488781	 0.123729
H	-2.9443826463	-1.0587312559	-2.0618998681	 0.121936
H	-3.6171247434	-2.2178453765	 0.7727875375	 0.113173
H	-1.389694216	-4.0660437221	-1.1527102959	 0.12199
H	 0.1069033031	-3.016470195	-1.3312807065	 0.125199
H	 0.11909261	-2.7402619884	 1.0058034063	 0.244799
125.0863	148.2504	167.5738	266.0335	280.7423	323.646	401.9495	482.9524	538.8085	586.0959	666.4953	720.1652	798.5775	828.118	877.8815	900.3687	935.1688	937.3103	975.1478	979.6332	1000.1547	1015.9842	1051.3643	1076.1621	1094.4579	1119.7421	1155.4804	1182.935	1260.3287	1267.7234	1284.9993	1306.0988	1395.5825	1439.8977	1487.0544	1510.2267	1784.802	3107.1173	3118.2122	3197.0773	3204.6126	3214.5957	3225.1124	3492.4996	3818.6326
ON=C1C2CC2C11CN1	ON=C1[C@H]2C[C@H]2[C@]21CN2	
InChI=1S/C6H8N2O/c9-8-5-3-1-4(3)6(5)2-7-6/h3-4,7,9H,1-2H2	InChI=1S/C6H8N2O/c9-8-5-3-1-4(3)6(5)2-7-6/h3-4,7,9H,1-2H2/t3-,4+,6-/m0/s1
