12
gdb 24739	3.67862	1.27814	0.94856	3.1273	71.54	-0.2693	-0.0879	0.1815	1119.909	0.077337	-435.489239	-435.481813	-435.480869	-435.52187	26.374	
O	 0.0355105209	-0.0559045502	 0.0048702241	-0.297153
C	-0.0288220432	 1.1600428862	 0.0081893237	 0.14112
C	 1.1542050937	 1.9997823033	 0.0018160932	 0.281569
C	 2.1522542301	 2.6714537435	-0.003631074	-0.42045
C	-1.3221387058	 1.8455916273	 0.0189773431	 0.252095
C	-2.6067637259	 1.3839572849	 0.0270143368	-0.154854
N	-3.4783910001	 2.4519965114	 0.035696567	-0.253663
C	-2.6998327136	 3.4919780576	 0.0326146534	 0.074936
O	-1.3848167528	 3.2177821903	 0.022674313	-0.169907
H	 3.0377591484	 3.2598490175	-0.0083503933	 0.219086
H	-2.9433649237	 0.3600507935	 0.0269929509	 0.161615
H	-2.980429648	 4.5339005647	 0.0370526821	 0.165606
70.6848	114.8908	181.453	233.6522	272.4292	444.4882	491.5126	627.7305	660.0156	661.0224	675.7556	705.7551	780.928	866.52	915.4867	934.8639	953.8842	1063.6146	1133.998	1163.1806	1247.5833	1295.402	1347.3704	1504.4217	1603.0656	1725.9243	2219.4643	3276.9547	3281.2047	3493.5631
O=C(C#C)C1=CN=CO1	O=C(C#C)c1cnco1	
InChI=1S/C6H3NO2/c1-2-5(8)6-3-7-4-9-6/h1,3-4H	InChI=1S/C6H3NO2/c1-2-5(8)6-3-7-4-9-6/h1,3-4H
