21
gdb 70310	2.95363	1.51727	1.25713	1.3963	81.2	-0.2171	0.0803	0.2974	1090.4727	0.183556	-387.06123	-387.053087	-387.052143	-387.093813	32.735	
C	-0.3823132038	 1.4733394723	 0.1566851261	-0.460081
C	 0.0512010596	 0.0328606781	-0.0400268027	 0.294229
C	-0.6604332801	-1.017515272	 0.7994448035	-0.3641
C	 0.7723163568	-0.6395463298	 1.0968744003	 0.091649
O	 1.817071094	-1.5532860801	 0.9215654417	-0.262978
C	 2.2595247673	-1.8687800139	-0.3665175911	 0.121859
C	 1.4535990807	-2.7758962087	-1.2631716797	-0.328039
C	 1.6110880485	-1.3027916804	-1.5969287575	-0.058424
C	 0.4774524736	-0.2945227749	-1.4699344691	-0.308609
H	 0.4255047441	 2.1700515666	-0.0962452603	 0.115798
H	-1.2417821025	 1.7123650798	-0.4817930847	 0.116187
H	-0.6787384476	 1.6656904825	 1.1927363117	 0.112729
H	-1.4334380279	-0.6861492223	 1.4858510438	 0.105604
H	-0.8437458131	-1.9930703388	 0.3638709999	 0.113513
H	 0.9588047274	-0.0523545626	 1.9917635584	 0.093702
H	 3.3383716783	-1.9908246213	-0.3588135888	 0.095804
H	 1.98057144	-3.499550797	-1.8761181603	 0.109123
H	 0.4948887261	-3.1205015296	-0.8932093572	 0.118071
H	 2.2861501725	-1.0904818199	-2.4203925617	 0.088898
H	-0.3913743102	-0.6073875736	-2.0638188052	 0.103358
H	 0.8284621865	 0.6405749753	-1.9222197671	 0.101708
56.2599	183.8132	226.898	265.4077	326.5078	353.3525	395.7634	421.9489	495.3607	536.8021	637.6658	729.53	767.9245	788.4567	820.9951	857.8395	897.5016	920.0763	931.3469	965.5835	1002.6272	1018.1936	1035.0543	1055.5356	1058.9505	1090.4019	1125.3251	1132.2337	1136.4948	1152.4555	1204.0051	1250.111	1265.3081	1282.5107	1338.0605	1360.303	1378.0421	1411.0644	1417.5171	1430.7721	1477.3264	1483.167	1493.0404	1496.2042	1508.6713	3012.1144	3018.67	3047.4127	3078.4926	3096.4039	3127.7235	3133.49	3140.4809	3142.2387	3153.0913	3215.3857	3223.6857
CC12CC1OC1CC1C2	C[C@]12C[C@H]1O[C@H]1C[C@H]1C2	
InChI=1S/C8H12O/c1-8-3-5-2-6(5)9-7(8)4-8/h5-7H,2-4H2,1H3	InChI=1S/C8H12O/c1-8-3-5-2-6(5)9-7(8)4-8/h5-7H,2-4H2,1H3/t5-,6-,7+,8-/m0/s1
