21
gdb 105465	2.63742	0.89079	0.75021	1.9064	84.85	-0.2555	0.0582	0.3137	1568.4396	0.180438	-387.04094	-387.030769	-387.029825	-387.076621	37.717	
O	-0.0219763871	 1.4335965027	-0.5936848008	-0.416003
C	 0.0060609039	 0.1082269443	-0.0852047237	-0.130957
C	-1.379212484	-0.4941133045	 0.061715019	 0.346189
C	-2.3414425457	 0.2684340584	 0.9588759131	-0.261775
C	-1.9451882779	 0.2355033094	 2.4524746611	-0.361152
C	-2.9227446057	 0.8988145662	 3.3060099461	 0.297592
C	-3.7479535348	 1.4492993567	 3.9851012357	-0.439554
C	-1.9481638643	-1.1706938998	-1.1689784096	-0.333586
C	-1.4861892606	-1.9984915173	 0.0049685761	-0.309566
H	-0.4986442106	 1.4088201182	-1.430595846	 0.282269
H	 0.6239415055	-0.5507723374	-0.7163614411	 0.081713
H	 0.5084743749	 0.1819728821	 0.8855722166	 0.112255
H	-2.394573414	 1.3112165237	 0.6299079401	 0.119299
H	-3.3480568815	-0.1504409853	 0.856859767	 0.103236
H	-1.8246338626	-0.8072355056	 2.7737759408	 0.128437
H	-0.9670813234	 0.7125336281	 2.5886934724	 0.136971
H	-4.4667881293	 1.9353615226	 4.5966050365	 0.19175
H	-3.0144682291	-1.0909111552	-1.3513480068	 0.116208
H	-1.3443895892	-1.1934788515	-2.0713717522	 0.108078
H	-0.5759610024	-2.5788150199	-0.1063894945	 0.113125
H	-2.2423995721	-2.475962346	 0.6194015904	 0.115472
55.6472	64.9263	121.3843	134.202	214.3494	240.0429	319.2586	329.2686	356.1595	357.6584	429.417	498.4323	542.0696	615.1992	635.6971	743.8958	771.0733	792.8571	884.2485	924.0224	942.1118	958.7191	972.0938	1016.0157	1036.9728	1048.1729	1062.3987	1077.6214	1084.5015	1184.2692	1191.3914	1208.6435	1284.1985	1306.1678	1325.8859	1353.5223	1374.7338	1403.8339	1427.1565	1466.767	1472.5767	1487.35	1500.339	1511.7818	2238.432	2973.0651	3022.7611	3046.4618	3054.4393	3066.6834	3093.4387	3122.8917	3128.6866	3201.9578	3215.8593	3508.0528	3803.3975
OCC1(CCC#C)CC1	OCC1(CCC#C)CC1	
InChI=1S/C8H12O/c1-2-3-4-8(7-9)5-6-8/h1,9H,3-7H2	InChI=1S/C8H12O/c1-2-3-4-8(7-9)5-6-8/h1,9H,3-7H2
