20
gdb 124532	3.9128	0.95289	0.92292	0.3795	82.72	-0.2447	0.0041	0.2488	1400.6014	0.171235	-399.350619	-399.340924	-399.33998	-399.388155	33.957	
C	 0.0174771046	 1.5615780629	 0.1934943431	-0.385574
C	-0.0484536751	 0.0336944932	 0.0152347888	-0.077866
C	 0.8243487353	-0.6847165287	 1.0592390543	-0.386902
C	-1.4675238214	-0.4598492439	 0.051491828	 0.317918
N	-2.0588640954	-0.991051882	-1.0243553035	-0.31919
N	-3.2876373645	-1.2845451143	-0.6100296121	 0.156767
C	-4.2534432341	-1.9363799745	-1.4690434706	-0.310077
N	-3.550699702	-0.9945898121	 0.6581417896	-0.225877
C	-2.4076806839	-0.4661461615	 1.0988529133	-0.142772
H	 1.0513186617	 1.9144630716	 0.1186071758	 0.112321
H	-0.5754405719	 2.074198039	-0.5694005582	 0.122134
H	-0.3674719198	 1.8605135565	 1.1748042608	 0.114877
H	 0.3350306485	-0.2111597691	-0.9814984788	 0.09414
H	 0.475434732	-0.4764692713	 2.0767984793	 0.114947
H	 0.8052518455	-1.7686706296	 0.9138985754	 0.121452
H	 1.8637712144	-0.3479904958	 0.9891999367	 0.112865
H	-3.9993957427	-2.9920369993	-1.6047029612	 0.148088
H	-5.2293605433	-1.8523319192	-0.992919151	 0.161011
H	-4.2622066372	-1.4431298546	-2.4424909435	 0.154062
H	-2.3187383506	-0.1201016773	 2.1163584137	 0.117678
6.05	35.8747	125.9398	176.4305	207.8372	222.8698	256.4949	293.5019	383.657	425.938	495.1635	632.7405	677.6181	744.7461	751.2897	872.2299	891.8756	930.8147	964.3072	1016.6529	1034.9512	1068.0273	1079.4514	1123.5544	1148.4154	1187.1011	1216.9122	1313.0834	1345.9916	1346.8439	1369.5257	1397.7566	1418.4242	1429.9811	1443.344	1447.8884	1481.4925	1486.0199	1489.8014	1501.6524	1504.5251	1508.8807	1554.1714	3029.7311	3033.1786	3047.1763	3054.1681	3095.4126	3102.9678	3110.1756	3112.3409	3127.3881	3175.1036	3265.8657
CC(C)C1=NN(C)N=C1	CC(C)c1nn(C)nc1	
InChI=1S/C6H11N3/c1-5(2)6-4-7-9(3)8-6/h4-5H,1-3H3	InChI=1S/C6H11N3/c1-5(2)6-4-7-9(3)8-6/h4-5H,1-3H3
