19
gdb 32087	2.87165	1.26174	0.93776	1.734	85.18	-0.24	-0.031	0.209	1297.2736	0.160026	-382.147338	-382.138342	-382.137398	-382.182795	32.172	
C	 0.191674077	 1.5321951726	 0.1551404833	-0.370888
C	-0.0686825084	 0.0295227412	-0.0413515584	-0.26997
C	 0.6696568395	-0.5214705608	-1.2349678761	 0.320242
C	 1.7397473067	-1.4049024923	-1.1142089884	-0.190073
C	 2.3455730575	-1.82473156	-2.2920950843	 0.012389
N	 1.9436370027	-1.4186150711	-3.4945276208	-0.287938
C	 0.9056623792	-0.5676214338	-3.513544207	 0.342775
C	 0.4397141673	-0.1003198516	-4.8650249994	-0.458634
N	 0.2563423025	-0.1056811419	-2.4414794814	-0.320836
H	 1.2498872388	 1.7261465722	 0.3579606504	 0.117263
H	-0.088385498	 2.0839610261	-0.7458270944	 0.14069
H	-0.3917027606	 1.9190130746	 0.9956569026	 0.115411
H	 0.2174700659	-0.5260630863	 0.857774787	 0.100265
H	-1.1409459628	-0.1304675047	-0.2002366704	 0.122479
H	 2.0836539117	-1.7515539194	-0.1466582079	 0.101492
H	 3.1860745899	-2.5161173618	-2.270397795	 0.113347
H	 0.1657157156	-0.9575413768	-5.4879348038	 0.139554
H	-0.4160097061	 0.5671459577	-4.7629055537	 0.132966
H	 1.2503223917	 0.421274336	-5.3840917324	 0.139466
31.7638	34.3141	131.0265	185.8155	210.7002	283.5575	324.0885	423.1043	448.1241	538.7469	586.3857	646.0568	745.2104	785.2315	815.6414	862.2522	913.5145	987.2916	1005.1982	1008.5227	1018.3837	1067.3903	1085.4429	1092.7546	1131.8072	1241.1171	1252.5739	1293.5035	1313.4702	1360.5444	1396.4498	1401.3004	1428.3345	1468.6447	1478.7555	1479.1858	1488.0465	1495.6266	1509.7622	1603.7979	1616.3013	3039.9533	3041.4199	3047.5862	3082.0525	3104.3796	3110.8687	3127.5971	3145.3131	3156.0077	3198.5404
CCC1=CC=NC(C)=N1	CCc1ccnc(C)n1	
InChI=1S/C7H10N2/c1-3-7-4-5-8-6(2)9-7/h4-5H,3H2,1-2H3	InChI=1S/C7H10N2/c1-3-7-4-5-8-6(2)9-7/h4-5H,3H2,1-2H3
