21
gdb 89573	4.21772	1.07261	1.00174	1.5707	85.03	-0.2347	0.0163	0.251	1287.1291	0.18307	-387.098071	-387.089598	-387.088654	-387.131552	32.843	
C	-0.805271728	 1.229543043	 0.3448287467	-0.397836
C	 0.037137962	 0.0005276739	 0.0666555326	 0.166333
C	 0.6712677422	-0.1535171146	-1.3290994713	-0.371608
C	 2.0291412239	-0.1989410237	-0.5722989968	 0.448833
C	 2.8252903051	-1.5252156424	-0.5473393913	-0.288313
C	 4.1461974143	-1.25187014	-1.307016769	-0.264115
C	 4.2077070502	 0.2561625744	-1.3473622059	-0.069042
C	 3.0705066838	 0.8189001369	-0.9433864247	-0.127918
O	 1.3447930297	 0.0715792365	 0.685157178	-0.343874
H	-0.301288323	 2.1346462564	-0.0088163947	 0.115069
H	-1.7762694437	 1.1514341875	-0.1570953392	 0.112828
H	-0.9843725853	 1.3353679639	 1.4195827203	 0.125592
H	-0.4946570992	-0.9005179896	 0.404832069	 0.068754
H	 0.4119050097	-1.0517329257	-1.8924332688	 0.103774
H	 0.5490117658	 0.7218427115	-1.9719190316	 0.103079
H	 3.0315663244	-1.7469282022	 0.5039366108	 0.121805
H	 2.2596189243	-2.3666005132	-0.9558186081	 0.09341
H	 5.0193882629	-1.696390526	-0.8157627501	 0.10664
H	 4.1259703151	-1.6657622448	-2.3242180173	 0.108331
H	 5.0823634489	 0.7942190656	-1.6975903141	 0.095531
H	 2.8590703368	 1.8816322224	-0.9027490744	 0.092729
55.0407	79.5492	215.2811	232.4705	268.5888	340.959	380.2193	417.2979	487.8979	513.6742	695.3438	744.304	771.0822	800.2353	851.4038	889.8151	909.7116	916.06	928.7353	950.4247	970.4854	980.9668	1009.7459	1054.1469	1088.1134	1104.2742	1117.8876	1162.2503	1188.9446	1200.4462	1231.3169	1248.8874	1269.1917	1285.6345	1316.5539	1325.743	1381.0366	1392.9631	1409.8705	1477.4918	1482.8739	1490.1975	1495.395	1497.3651	1682.5023	2992.935	3017.9525	3030.4494	3051.1462	3061.2183	3066.1873	3102.4695	3105.1793	3109.1745	3123.2324	3179.763	3206.2371
CC1CC2(CCC=C2)O1	C[C@H]1C[C@]2(CCC=C2)O1	
InChI=1S/C8H12O/c1-7-6-8(9-7)4-2-3-5-8/h2,4,7H,3,5-6H2,1H3	InChI=1S/C8H12O/c1-7-6-8(9-7)4-2-3-5-8/h2,4,7H,3,5-6H2,1H3/t7-,8-/m0/s1
