13
gdb 132874	3.07406	1.44436	0.98368	5.5458	67.12	-0.2017	-0.0546	0.1471	1083.8213	0.090322	-494.08612	-494.078687	-494.077743	-494.118009	28.249	
N	 0.0448501984	 1.4237945903	 0.1553982817	-0.576282
C	-0.0361718653	 0.0344328659	 0.0484492236	 0.325453
C	-1.2016444194	-0.6704445862	 0.0195686506	-0.084081
N	-1.1412066885	-2.0486961945	-0.0151380807	-0.335803
C	 0.0207212497	-2.8001119102	-0.0209492206	 0.29827
O	 0.0438822866	-4.0170734903	-0.0516809021	-0.384635
C	 1.1893613339	-1.8998377731	 0.0092713461	 0.219749
F	 2.3561125398	-2.5140197602	-0.004498207	-0.039496
N	 1.1710575286	-0.6213674467	 0.0389769775	-0.331563
H	 0.9390312696	 1.7705664942	-0.1637399895	 0.259365
H	-0.7226026595	 1.9282418395	-0.2647523668	 0.24937
H	-2.1860060487	-0.2238105284	 0.0294910612	 0.128056
H	-1.9947643052	-2.5891851702	-0.0383571339	 0.271598
107.6033	225.1325	241.0972	309.6936	337.1665	352.3452	442.0826	490.8811	537.798	604.2568	625.0176	679.1485	699.2498	711.79	781.4115	783.3792	839.2779	1007.6261	1096.4122	1158.8095	1233.9509	1330.4108	1360.0833	1413.0117	1479.8895	1614.4663	1642.5588	1693.3013	1790.5036	3225.6632	3558.9411	3612.0872	3661.6635
NC1=CNC(=O)C(F)=N1	Nc1c[nH]c(=O)c(F)n1	
InChI=1S/C4H4FN3O/c5-3-4(9)7-1-2(6)8-3/h1H,(H2,6,8)(H,7,9)	InChI=1S/C4H4FN3O/c5-3-4(9)7-1-2(6)8-3/h1H,(H2,6,8)(H,7,9)
