19
gdb 70623	2.39406	1.8843	1.30084	0.3524	74.37	-0.2518	0.0798	0.3316	1022.8796	0.158911	-423.009405	-423.001329	-423.000385	-423.041698	31.651	
C	-0.0680622572	 1.4984261225	 0.0251805938	-0.506189
C	 0.0955149244	 0.0071543497	-0.027376246	 0.349329
O	-0.4801252821	-0.7645535125	 1.0467494261	-0.309558
C	 0.9442150751	-0.8010225041	 0.8653063061	-0.012857
C	 1.4267083042	-2.0505004286	 0.1545471427	-0.25181
C	 0.4790046729	-2.1711273049	-1.0665025353	-0.307608
C	 0.0002501003	-0.7465504183	-1.3347322834	 0.391483
C	-0.867762864	-0.3652187661	-2.4501409393	-0.256556
O	 0.5321502493	-0.0594036193	-2.4789874087	-0.279527
H	 0.5779558139	 1.9741566631	-0.7171072075	 0.143413
H	-1.1034691223	 1.7834540817	-0.1913602979	 0.12671
H	 0.1828737563	 1.8769335444	 1.018632888	 0.128497
H	 1.5258646472	-0.3532940463	 1.6678544547	 0.092724
H	 2.4662732625	-1.9031453677	-0.1602547188	 0.112434
H	 1.3973418196	-2.9350935776	 0.7974384694	 0.111372
H	 0.9676999126	-2.5857947352	-1.9504013224	 0.115598
H	-0.3766721522	-2.8038774935	-0.8185448508	 0.123115
H	-1.1923971671	-1.1276169529	-3.157537909	 0.115318
H	-1.5322451634	 0.4930826356	-2.3623287715	 0.114112
100.8509	170.8375	223.2882	248.6176	259.9463	351.2343	388.7648	447.6075	456.8771	570.7415	620.8212	688.0981	770.0392	817.4711	842.697	867.7734	907.8203	924.5282	967.7827	987.1282	1019.1851	1035.4582	1104.7948	1106.9048	1127.2409	1137.0533	1168.8475	1190.0118	1229.0041	1288.6433	1305.9299	1322.7965	1333.1087	1405.4774	1427.42	1453.7547	1470.5378	1481.5737	1489.0124	1502.0938	1533.3095	3042.3796	3044.7969	3071.6716	3081.5765	3091.0702	3108.5699	3124.6282	3135.4671	3142.7512	3165.8865
CC12OC1CCC21CO1	C[C@]12O[C@H]1CC[C@]12CO1	
InChI=1S/C7H10O2/c1-6-5(9-6)2-3-7(6)4-8-7/h5H,2-4H2,1H3	InChI=1S/C7H10O2/c1-6-5(9-6)2-3-7(6)4-8-7/h5H,2-4H2,1H3/t5-,6-,7+/m0/s1
