25
gdb 109165	2.66291	1.09418	0.93593	0.2195	94.96	-0.2245	0.0327	0.2572	1440.9192	0.228956	-352.386751	-352.376553	-352.375609	-352.421706	38.852	
C	-0.3821854988	 1.8487589956	 0.366479093	-0.371717
C	-0.0768930618	 0.4280383666	-0.1414317242	-0.295542
C	-1.2662219062	-0.4888023721	-0.1070387747	 0.350974
C	-1.8771105002	-1.0350537745	-1.1616769584	-0.187454
C	-3.0348270383	-1.9176250363	-0.7692521449	-0.262059
C	-3.2814807266	-1.5136739531	 0.7063896783	 0.037552
C	-3.9374598923	-2.592371832	 1.5663801117	-0.413001
C	-1.903529672	-0.9653504662	 1.1947503929	-0.093641
C	-1.0074223169	-1.9974870855	 1.9051779388	-0.394637
H	 0.510349314	 2.4801869905	 0.3152263521	 0.110858
H	-1.1659402251	 2.3178502967	-0.2366628608	 0.118598
H	-0.722900766	 1.8395637737	 1.406604494	 0.11857
H	 0.3037881507	 0.4843886251	-1.1676926829	 0.098846
H	 0.736591669	 0.0062681634	 0.4652024746	 0.100758
H	-1.5682117891	-0.8918634089	-2.1927986725	 0.078568
H	-3.9253140682	-1.7696452603	-1.391845246	 0.095677
H	-2.7727299337	-2.9830338623	-0.8621982929	 0.096737
H	-3.9550147796	-0.6475260452	 0.680111094	 0.073225
H	-3.3289312462	-3.5012161923	 1.6153670339	 0.115142
H	-4.1024454915	-2.2451471734	 2.5924498755	 0.109218
H	-4.9127904946	-2.8728193508	 1.1539171668	 0.109692
H	-2.0629765418	-0.1338527967	 1.893443649	 0.064668
H	-0.8241829926	-2.8714778636	 1.2710922364	 0.116164
H	-0.0342068175	-1.5617850158	 2.153434124	 0.110795
H	-1.4596548748	-2.3434617625	 2.8397460222	 0.112009
61.0112	84.7205	165.3294	196.5862	235.5965	246.3986	262.3563	283.4274	287.4676	343.3113	408.5954	474.0757	555.5863	645.9286	653.2981	761.963	793.6319	820.2323	842.1401	891.5516	937.1837	960.3392	984.1856	1004.3105	1035.9345	1061.3546	1067.6301	1085.9481	1105.1325	1124.2256	1163.5364	1184.7045	1214.9165	1265.77	1286.8513	1304.3297	1324.792	1354.0263	1356.718	1362.3223	1376.0381	1404.9201	1408.568	1414.245	1479.536	1491.3134	1491.6218	1494.964	1498.3095	1505.047	1506.7532	1509.8713	1714.298	2987.4318	3005.7079	3008.7423	3021.5034	3028.0928	3032.7119	3036.393	3047.3982	3056.7205	3090.1419	3097.0205	3101.9482	3104.3089	3105.9227	3109.0677	3174.2217
CCC1=CCC(C)C1C	CCC1=CC[C@@H](C)[C@H]1C	
InChI=1S/C9H16/c1-4-9-6-5-7(2)8(9)3/h6-8H,4-5H2,1-3H3	InChI=1S/C9H16/c1-4-9-6-5-7(2)8(9)3/h6-8H,4-5H2,1-3H3/t7-,8-/m1/s1
