21
gdb 92193	3.10345	1.54872	1.29826	1.709	82.08	-0.2332	0.0813	0.3145	1063.3412	0.184316	-387.032021	-387.024549	-387.023604	-387.063442	31.279	
C	-0.0003436431	 1.6404116703	-0.0402744233	-0.421009
C	 0.0343464368	 0.1223669453	 0.0166332475	-0.101294
C	 1.0150686242	-0.6961652203	-0.9339237401	-0.301362
C	 1.1295182164	-1.7449150399	 0.2231851182	 0.018491
C	 2.2230308509	-2.4220389991	 1.0905552987	-0.300822
C	 2.0001833801	-1.498746092	 2.3485405501	 0.060862
C	 2.1399304276	-0.1093673714	 1.7148422196	-0.268242
C	 0.7867209336	-0.5967472703	 1.1488910867	 0.449266
O	 0.5418288377	-1.2517849308	 2.4383449122	-0.36466
H	 1.0013133815	 2.0658457039	 0.0821450755	 0.116428
H	-0.3947821598	 1.9880260895	-1.0010124607	 0.116849
H	-0.638877877	 2.0502750997	 0.7495839932	 0.12419
H	-0.9729766058	-0.2942608603	-0.0923739964	 0.09112
H	 0.6005249476	-1.0448281511	-1.8813028507	 0.102838
H	 1.9351554318	-0.1389574764	-1.1275155849	 0.106419
H	 0.2593195278	-2.4025733241	 0.1475446031	 0.084857
H	 2.0073402102	-3.4752424099	 1.2815456158	 0.103599
H	 3.2528265624	-2.3392948022	 0.7320787184	 0.103847
H	 2.4429005853	-1.7825297809	 3.3028576004	 0.07943
H	 1.9979643788	 0.6949227032	 2.4374670736	 0.106947
H	 2.9796643428	 0.091218997	 1.044516733	 0.092245
160.1875	202.0903	209.7212	292.6066	384.9176	414.3165	452.5164	548.8306	573.311	631.6364	646.6097	758.1149	784.7251	820.4247	849.9566	867.7024	890.8188	944.118	953.0429	957.9803	1005.9421	1029.9354	1057.0689	1066.2744	1093.432	1130.6126	1138.3622	1166.494	1170.1908	1192.4289	1216.8077	1222.6083	1240.3997	1257.0645	1268.9886	1293.5166	1320.04	1365.3715	1395.8927	1410.8461	1479.4462	1487.3968	1495.2737	1495.9725	1500.6359	3030.0861	3052.0121	3060.8276	3062.8125	3068.505	3071.3073	3098.0363	3101.081	3116.9392	3128.8219	3129.323	3140.8089
CC1CC2CC3CC12O3	C[C@H]1C[C@H]2C[C@H]3C[C@@]12O3	
InChI=1S/C8H12O/c1-5-2-6-3-7-4-8(5,6)9-7/h5-7H,2-4H2,1H3	InChI=1S/C8H12O/c1-5-2-6-3-7-4-8(5,6)9-7/h5-7H,2-4H2,1H3/t5-,6-,7-,8+/m0/s1
