16
gdb 20627	3.96365	2.038	1.38114	2.9404	72.37	-0.2235	0.0342	0.2577	888.6376	0.132669	-342.774983	-342.767801	-342.766857	-342.807599	25.738	
C	-0.0907598167	 1.5689815019	 0.0350588818	-0.509124
C	 0.0689824235	 0.0805389899	-0.0044987357	-0.00446
C	 0.1267102352	-0.8015369614	-1.0733775315	 0.328328
C	 0.1335716138	-1.3320232386	-2.5043420012	-0.381579
C	 0.3115021332	-2.7574817174	-1.8367338172	-0.167368
N	 0.2779206637	-2.0313223384	-0.5609128199	 0.08991
N	 0.333068238	-2.10602589	 0.7710555932	-0.315913
C	 0.2042504558	-0.8076619205	 1.1030732261	-0.050024
H	-0.0926699788	 1.9271321451	 1.0684725331	 0.127121
H	 0.7220429534	 2.0854231757	-0.488331619	 0.125373
H	-1.0299728214	 1.8957442053	-0.4258212807	 0.125377
H	-0.7958822214	-1.2103592521	-3.0655264404	 0.129533
H	 0.9740105223	-1.0187161603	-3.1281288283	 0.129531
H	-0.5197540135	-3.4534980319	-1.9757617408	 0.134133
H	 1.2605930579	-3.260695373	-2.0386207061	 0.134134
H	 0.211108175	-0.5299073744	 2.1484811066	 0.105027
28.878	95.3685	217.1084	249.6921	301.6415	499.3741	629.5047	652.5169	658.	715.606	813.214	851.198	858.7455	896.0941	997.8764	1053.1176	1068.7015	1069.2595	1134.6526	1159.173	1172.1945	1205.1574	1221.0112	1276.5211	1314.8308	1363.7338	1403.1881	1422.1661	1474.889	1486.909	1489.1923	1504.2944	1531.2827	1613.2214	3026.7197	3061.2991	3070.518	3074.7325	3106.7179	3110.9581	3124.6848	3230.9761
CC1=C2CCN2N=C1	Cc1c2CCn2nc1	
InChI=1S/C6H8N2/c1-5-4-7-8-3-2-6(5)8/h4H,2-3H2,1H3	InChI=1S/C6H8N2/c1-5-4-7-8-3-2-6(5)8/h4H,2-3H2,1H3
