20
gdb 124503	4.09537	0.92592	0.90935	2.8885	82.88	-0.246	0.0022	0.2482	1424.2842	0.169829	-403.169452	-403.159897	-403.158953	-403.204272	34.721	
C	-0.0188269519	 1.5374859376	-0.0002834511	-0.386
C	-0.042142718	-0.0028072295	-0.0166833992	-0.091644
C	-1.4854901967	-0.5410879871	-0.0393162377	-0.385895
C	 0.7522877064	-0.5422199284	-1.166011757	 0.479966
C	 1.8597286177	-1.3259554728	-1.2557848565	-0.452603
C	 2.0853147286	-1.458094838	-2.6579585959	 0.395815
C	 3.1671076595	-2.2116266765	-3.3631457627	-0.493242
N	 1.1818119553	-0.8034025448	-3.3489386768	-0.204832
O	 0.3331175435	-0.2201694876	-2.4049450066	-0.229317
H	 1.0051658298	 1.9177206427	 0.0575474764	 0.121061
H	-0.478163264	 1.9402292225	-0.9075924319	 0.13746
H	-0.5749987662	 1.9159115028	 0.8628017251	 0.114276
H	 0.4499636898	-0.3672554227	 0.8925650557	 0.090626
H	-2.002918843	-0.2195548434	-0.9477529344	 0.137405
H	-1.5012819268	-1.6344207219	-0.010246574	 0.121054
H	-2.0434920075	-0.1663754315	 0.8242112898	 0.114288
H	 2.4335517048	-1.7490579657	-0.4475279592	 0.110502
H	 3.1338682029	-3.275877118	-3.1076716018	 0.135985
H	 3.0529617375	-2.108001981	-4.4437996978	 0.149136
H	 4.1556664086	-1.8371823266	-3.0776028546	 0.13596
42.3301	113.4699	133.4349	170.8244	219.5605	253.4312	258.2386	284.7209	358.2827	421.7168	481.5926	607.6054	666.7734	715.1092	735.6758	811.9061	879.3192	932.8622	940.2924	966.3691	983.6931	1015.4116	1046.4546	1066.5934	1072.9848	1120.1975	1142.4004	1197.7671	1290.4119	1334.1309	1348.7764	1396.1747	1405.9877	1418.2288	1452.4815	1481.2225	1482.3646	1486.3115	1491.1616	1499.6933	1508.6084	1537.1756	1643.9275	3038.3755	3040.9215	3041.4461	3041.8925	3096.97	3110.4009	3113.7137	3117.6376	3122.4188	3139.1753	3267.779
CC(C)C1=CC(C)=NO1	CC(C)c1cc(C)no1	
InChI=1S/C7H11NO/c1-5(2)7-4-6(3)8-9-7/h4-5H,1-3H3	InChI=1S/C7H11NO/c1-5(2)7-4-6(3)8-9-7/h4-5H,1-3H3
