14
gdb 29062	2.72128	1.82934	1.20096	2.4677	75.95	-0.2422	-0.0667	0.1756	975.6767	0.104239	-429.079381	-429.072064	-429.07112	-429.111388	27.482	
N	 0.0243651907	 1.2550353484	 0.5051866834	-0.500957
C	-0.0176906514	-0.0121062971	 0.0838023421	 0.401697
N	-1.1675855003	-0.6076088913	-0.0864120638	-0.32663
C	-1.2920115767	-1.9184826893	-0.3954665563	 0.093263
N	-0.535628896	-2.9498412359	-0.1464084093	-0.264126
C	 0.7111951684	-2.8236602036	 0.3915310552	 0.08204
N	 1.5842116009	-1.8710130141	 0.3327276355	-0.284255
C	 1.3356439075	-0.6198364299	-0.1962723575	 0.272949
N	 2.1940080508	 0.1350175478	-0.7659307359	-0.522655
H	 0.8924848081	 1.7556846362	 0.3909312193	 0.290745
H	-0.8396425109	 1.7552857125	 0.6410454672	 0.276119
H	-2.2469140843	-2.1502834707	-0.8697899668	 0.12563
H	 1.048496626	-3.727117082	 0.9022521831	 0.125332
H	 3.0777447873	-0.3698376509	-0.8654220163	 0.230849
67.7059	158.8912	301.0724	318.2221	340.4314	391.7034	453.0115	479.7434	574.0556	604.3319	658.834	711.1542	765.0446	816.6583	893.7596	933.5819	987.5589	1012.602	1029.6257	1047.2975	1124.7134	1289.7071	1338.4443	1429.8183	1448.9456	1465.0091	1516.0367	1598.7801	1635.5432	1674.477	1692.0926	3120.3104	3124.1268	3458.5691	3578.7442	3715.2372
NC1=NC=NC=NC1=N	NC1=NC=NC=N[C]1[NH]	
InChI=1S/C4H5N5/c5-3-4(6)9-2-7-1-8-3/h1-2H,(H3,5,6,7,8,9)	InChI=1S/C4H5N5/c5-3-4(6)9-2-7-1-8-3/h1-2H,(H3,5,6,7,8,9)
