17
gdb 71420	4.68959	1.17017	1.06489	5.266	76.86	-0.2487	0.0158	0.2645	1138.385	0.136596	-380.806809	-380.79921	-380.798266	-380.838731	29.444	
C	 0.013464684	 1.4860089281	-0.0264334875	-0.508816
C	-0.0352622746	-0.0126318566	-0.0311330628	 0.300648
C	-1.2296318827	-0.9385335625	-0.2034060244	-0.225487
N	-0.3994571488	-2.0811971213	 0.3531553067	-0.165825
C	 0.53734167	-0.9994707709	 0.945669624	-0.067608
C	 1.1879629593	-0.8836340633	-0.4026985804	-0.115005
C	 0.6218297818	-2.2516476833	-0.766404505	-0.143269
C	 1.53279568	-3.3601393958	-0.492644674	 0.297842
N	 2.2749480309	-4.2245644318	-0.3002352926	-0.324319
H	 0.9857666576	 1.8512112988	 0.3195991597	 0.12895
H	-0.1558089998	 1.8924202808	-1.0297200873	 0.129798
H	-0.7528828552	 1.8999156476	 0.6377949528	 0.129483
H	-2.0359518478	-0.714218921	 0.500144812	 0.117412
H	-1.6505484771	-1.1189883238	-1.1996459603	 0.10371
H	 0.8912339288	-0.9621693322	 1.9655401789	 0.113463
H	 2.145158123	-0.4513141462	-0.6631842976	 0.111164
H	 0.1745599409	-2.3959204467	-1.7564994823	 0.117859
123.1594	145.1392	210.0212	254.911	295.4932	404.3542	448.4456	481.6092	539.9633	623.3113	775.0949	801.6049	835.3009	867.5604	878.3003	892.9135	916.8105	948.6151	974.6507	1025.9646	1027.9792	1051.1072	1084.2332	1134.2586	1145.548	1176.2251	1210.5471	1227.6475	1264.3636	1299.8465	1354.1181	1410.4251	1431.8768	1487.7022	1499.1074	1514.1894	2361.6134	3028.8102	3032.0496	3049.0372	3092.3717	3098.9307	3101.305	3203.0125	3229.1061
CC12CN3C1C2C3C#N	C[C@]12CN3[C@H]1[C@H]2[C@H]3C#N	
InChI=1S/C7H8N2/c1-7-3-9-4(2-8)5(7)6(7)9/h4-6H,3H2,1H3	InChI=1S/C7H8N2/c1-7-3-9-4(2-8)5(7)6(7)9/h4-6H,3H2,1H3/t4-,5-,6+,7-/m1/s1
