19
gdb 7676	3.57348	1.81086	1.64744	2.4227	70.38	-0.2067	0.0689	0.2756	882.4103	0.165247	-365.014367	-365.006577	-365.005632	-365.04626	30.405	
C	 0.2891121053	 1.4825277701	-0.1508068764	-0.457971
C	 0.0328389269	-0.0130451613	-0.0270195873	 0.386236
O	-1.359682619	-0.2857571386	-0.0544721488	-0.475442
C	 0.8890646273	-0.952905413	-0.9374589654	-0.228201
N	 1.4736832722	-1.6545946652	 0.2437473739	-0.122454
C	 2.7215981423	-1.0036657349	 0.7629075556	-0.165413
C	 1.9231968877	-0.2524418027	 1.8620004725	-0.25955
C	 0.6496862063	-0.7844785501	 1.1746747496	 0.008227
H	 1.3546040514	 1.724088966	-0.1057197933	 0.119397
H	-0.0847273895	 1.8482111983	-1.1158352925	 0.107151
H	-0.2291806645	 2.0285698306	 0.6436049361	 0.127055
H	-1.7246848525	 0.0994669179	-0.8588453621	 0.274398
H	 0.2725146151	-1.6258623005	-1.5418858561	 0.101474
H	 1.6292587007	-0.4662380501	-1.5842054853	 0.08951
H	 3.4548543066	-1.7312976871	 1.1232031539	 0.105671
H	 3.2169588647	-0.3574244506	 0.0273040636	 0.092822
H	 2.0648045667	-0.6679680602	 2.8618315613	 0.110664
H	 2.0468079678	 0.831128022	 1.9206124555	 0.102987
H	-0.1048378954	-1.2739413705	 1.7953137653	 0.083438
61.3415	214.8654	252.6936	264.5411	294.4348	371.5673	379.1761	419.5155	475.5752	622.1389	711.3182	761.8439	800.6588	863.0714	895.4589	907.9219	943.0712	959.6414	979.2833	1002.1761	1024.7281	1071.7448	1115.1079	1163.6034	1180.8702	1191.2959	1211.9266	1226.7371	1244.0097	1265.7593	1287.5488	1307.138	1332.3856	1378.4709	1407.0533	1478.4169	1480.0629	1489.4147	1498.2256	1514.6424	3016.7033	3021.3628	3024.9466	3066.3378	3072.9473	3078.783	3080.1303	3089.4641	3116.2205	3120.7942	3798.1416
CC1(O)CN2CCC12	C[C@@]1(O)CN2CC[C@@H]12	
InChI=1S/C6H11NO/c1-6(8)4-7-3-2-5(6)7/h5,8H,2-4H2,1H3	InChI=1S/C6H11NO/c1-6(8)4-7-3-2-5(6)7/h5,8H,2-4H2,1H3/t5-,6+/m0/s1
