20
gdb 82539	2.28885	1.64619	1.40258	1.7128	79.62	-0.2309	0.0838	0.3146	1060.0121	0.169396	-403.082193	-403.073378	-403.072434	-403.115132	33.863	
C	-0.082809354	 1.5279656063	 0.0771535327	-0.324993
N	 0.1170622531	 0.0833950067	 0.1215913552	-0.126055
C	 1.3843544256	-0.5521083128	-0.1585452393	-0.100884
C	 2.5911533852	 0.2577156254	 0.3576500948	-0.356286
C	 1.9442993253	 0.194293744	 1.7529364871	 0.399863
C	 2.5992831734	 0.1212053139	 3.0581045085	-0.264118
O	 1.8417921777	 1.2763500823	 2.6707136738	-0.278321
C	 0.7573938719	-0.6058516601	 1.2281866577	 0.257033
C	 0.0196719362	-1.6824171524	 1.9678732325	-0.506543
H	 0.7367849348	 2.1304024999	 0.4873121738	 0.128543
H	-0.2466242262	 1.8222764108	-0.964427229	 0.118912
H	-0.9885396437	 1.7671209766	 0.642193325	 0.12634
H	 1.4242554996	-1.3270574864	-0.9166801393	 0.094393
H	 3.531211252	-0.2975555337	 0.3063505122	 0.111138
H	 2.7397488781	 1.2516358315	-0.0726262625	 0.112848
H	 2.1612073864	-0.4748433851	 3.8581289799	 0.115338
H	 3.6764047289	 0.2698263153	 3.1290503318	 0.114192
H	-0.5892403822	-1.255626285	 2.7736614687	 0.128221
H	-0.6504876713	-2.2130479805	 1.2872709116	 0.134029
H	 0.7107699493	-2.4038020367	 2.416538135	 0.11635
114.9771	167.0656	182.7455	210.8235	232.1981	238.9878	315.7298	367.9707	414.98	501.1246	530.4108	609.3927	679.9346	728.2897	807.8505	845.7836	877.584	921.585	941.6792	953.2549	1000.8016	1043.8819	1107.4075	1110.9697	1121.137	1136.8974	1149.145	1166.9412	1178.7369	1188.4648	1223.0647	1263.7674	1272.0013	1395.6835	1424.8599	1433.2833	1460.1414	1479.9015	1484.9739	1495.4797	1498.0036	1510.556	1534.4801	3020.3567	3030.1679	3060.6818	3076.2585	3085.4473	3089.1948	3106.9996	3110.8925	3123.3253	3161.2625	3168.5666
CN1C2CC3(CO3)C12C	CN1[C@H]2C[C@]3(CO3)[C@@]12C	
InChI=1S/C7H11NO/c1-6-5(8(6)2)3-7(6)4-9-7/h5H,3-4H2,1-2H3	InChI=1S/C7H11NO/c1-6-5(8(6)2)3-7(6)4-9-7/h5H,3-4H2,1-2H3/t5-,6-,7-,8?/m0/s1
