20
gdb 87735	3.29776	1.13042	0.97481	0.9118	82.56	-0.2235	0.0078	0.2314	1271.4466	0.170876	-403.123994	-403.115276	-403.114332	-403.157468	33.75	
C	-0.1733132703	 1.479754267	 0.0429024973	-0.313739
N	-0.0169191418	 0.0344319637	 0.1065558912	-0.129302
C	 1.2875380797	-0.5089907042	-0.2466300592	-0.299258
C	 0.8151618322	-0.5346477404	 1.1750627576	 0.328547
C	 1.4856553542	 0.284457938	 2.2873959096	-0.347394
C	 1.653819153	-0.7031077559	 3.4793792593	 0.098597
O	 1.3215980675	-0.1476077495	 4.7457710211	-0.432584
C	 0.7964259821	-1.8840877273	 3.0842960801	-0.143731
C	 0.339432034	-1.7795008156	 1.8372096951	-0.11742
H	 0.7361029816	 2.0464980462	 0.2997360993	 0.10289
H	-0.4679959488	 1.7563878609	-0.9744205311	 0.124634
H	-0.9742201191	 1.7914462856	 0.7213804425	 0.121799
H	 1.2824551236	-1.4113821703	-0.853903279	 0.11082
H	 2.0893762247	 0.1917430538	-0.4811462141	 0.104273
H	 2.4317311298	 0.7393430172	 1.9879465259	 0.10855
H	 0.8257660655	 1.096489948	 2.614427083	 0.105341
H	 2.7030293308	-1.0023409911	 3.5914168576	 0.09699
H	 0.3711134899	 0.0133733339	 4.7461737685	 0.273432
H	 0.6154274639	-2.7051846948	 3.7686458154	 0.101317
H	-0.2875667425	-2.4921883351	 1.3138508699	 0.106238
50.0114	153.2263	194.8593	221.8382	275.8615	322.146	362.8583	420.9326	433.7337	442.9098	505.7878	593.8802	695.2379	760.3788	808.0301	830.685	865.4161	907.4582	929.8651	972.7055	978.6412	1047.231	1056.4841	1080.3787	1105.4756	1122.0334	1141.1926	1154.3216	1185.5725	1208.7313	1243.0444	1265.0654	1296.8505	1322.3869	1336.4046	1408.8322	1429.9077	1451.5192	1482.0568	1492.961	1498.7139	1507.3397	1675.6924	2974.8032	3033.901	3045.3576	3066.1801	3076.6534	3099.917	3107.7473	3164.6681	3190.0892	3214.6143	3793.4762
CN1CC11CC(O)C=C1	CN1C[C@]21C[C@@H](O)C=C2	
InChI=1S/C7H11NO/c1-8-5-7(8)3-2-6(9)4-7/h2-3,6,9H,4-5H2,1H3	InChI=1S/C7H11NO/c1-8-5-7(8)3-2-6(9)4-7/h2-3,6,9H,4-5H2,1H3/t6-,7+,8?/m0/s1
