14
gdb 131944	2.84209	1.71377	1.07627	5.8145	70.42	-0.2594	-0.0839	0.1755	1030.7036	0.101966	-469.953809	-469.946288	-469.945344	-469.98647	27.012	
C	-0.0338836935	 1.4905107021	 0.0128955123	-0.327275
N	-0.0109642163	 0.0295952457	 0.0417232925	-0.055739
C	-0.0258887095	-0.769423376	-1.0684260396	-0.103903
C	 0.0048972905	-2.0726040194	-0.6180799089	-0.089664
N	 0.0384778911	-2.1013694511	 0.7405270726	-0.268627
C	 0.0281121446	-0.8395794694	 1.1017156021	 0.453581
N	 0.0550229721	-0.4040560531	 2.475870435	 0.360639
O	 0.0888797711	-1.2598401874	 3.3409682539	-0.328865
O	 0.0411827611	 0.8145177432	 2.6731592275	-0.396155
H	 0.8555108386	 1.896229334	 0.4945945791	 0.169228
H	-0.0641758091	 1.7991433724	-1.0329918273	 0.137249
H	-0.9105703062	 1.8693740885	 0.5378195844	 0.169238
H	-0.0565015044	-0.3450165895	-2.0589129254	 0.148857
H	 0.0043811698	-2.97872937	-1.2038864782	 0.131435
54.8994	173.2765	190.5093	242.0375	247.2112	359.0835	447.3255	554.7463	633.6161	666.7563	704.15	768.8247	785.959	851.7923	871.4949	926.3234	1069.1761	1106.3124	1152.4904	1180.2274	1218.3446	1315.3902	1370.4011	1397.476	1412.578	1455.3644	1475.6088	1503.968	1531.5519	1533.5866	1632.4093	3074.0857	3160.0669	3160.1959	3254.538	3276.2331
CN1C=CN=C1N(=O)=O	Cn1ccnc1N(=O)=O	
InChI=1S/C4H5N3O2/c1-6-3-2-5-4(6)7(8)9/h2-3H,1H3	InChI=1S/C4H5N3O2/c1-6-3-2-5-4(6)7(8)9/h2-3H,1H3
