14
gdb 45743	3.03509	1.61803	1.24561	2.2399	61.72	-0.2676	-0.0466	0.221	962.7159	0.101768	-473.839062	-473.831952	-473.831008	-473.871268	25.805	
O	-0.160965075	 0.0188719252	 0.0089935885	-0.312951
C	-0.0678046238	 1.2045738798	 0.0124866058	 0.395186
O	-1.1772989219	 2.0538338811	 0.0305462971	-0.206959
C	-0.6565211737	 3.3247408628	 0.0286343341	 0.101834
N	 0.6031978177	 3.4682967813	 0.0126829548	-0.285995
C	 1.1445416005	 2.1192709474	 0.0001209012	 0.08769
C	 2.2756171832	 1.8004779362	 1.0157216308	-0.094709
O	 3.2279998758	 1.5535306587	-0.0296652392	-0.261885
C	 2.2483617441	 1.8087341445	-1.0475216324	-0.094702
H	-1.39634298	 4.1156235363	 0.0416381499	 0.164603
H	 2.5451227944	 2.6560045875	 1.6429236766	 0.127142
H	 2.092349898	 0.911978221	 1.6301117301	 0.126802
H	 2.0488361279	 0.9251580979	-1.6639441421	 0.126802
H	 2.5012976928	 2.6692790703	-1.6747593952	 0.127142
81.2884	108.9389	199.9038	276.9936	310.2162	444.0224	552.7861	590.9958	723.6156	734.7244	816.0001	851.4449	893.7481	945.2029	966.0959	981.4447	1007.837	1053.422	1064.8716	1131.4031	1159.0015	1169.4359	1229.1779	1260.2233	1310.1719	1340.7803	1370.4292	1491.564	1518.5802	1684.6847	1917.6661	3028.1698	3038.0425	3092.8631	3094.062	3231.3151
O=C1OC=NC11COC1	O=C1OC=NC21COC2	
InChI=1S/C5H5NO3/c7-4-5(1-8-2-5)6-3-9-4/h3H,1-2H2	InChI=1S/C5H5NO3/c7-4-5(1-8-2-5)6-3-9-4/h3H,1-2H2
