20
gdb 76858	2.36758	1.75785	1.50625	2.6024	77.27	-0.2167	0.0538	0.2705	997.8697	0.171577	-403.064049	-403.055856	-403.054912	-403.09634	32.417	
C	-0.1450431632	 1.6255920398	 0.0565234822	-0.423943
C	 0.0622393499	 0.1164369696	 0.0298497997	-0.016846
C	 0.9473261052	-0.5843794996	-1.0807905037	 0.046553
O	 1.8050350362	 0.2075455075	-1.8756101729	-0.412292
C	 1.6651143047	-1.4035598008	 0.0335978263	-0.048839
C	 2.9288121997	-0.8440618925	 0.704373317	-0.025929
C	 2.9574833965	 0.6199976652	 0.8128125118	-0.24584
N	 2.1201724709	-0.1177789456	 1.7853230214	-0.163734
C	 0.8622972444	-0.6536473485	 1.1212862437	 0.003075
H	 0.7857023819	 2.1915429363	 0.1056546979	 0.131798
H	-0.6910426758	 1.9561995645	-0.8350374868	 0.106146
H	-0.7448398424	 1.9076916384	 0.9281721288	 0.124984
H	-0.9284583986	-0.3536850352	-0.0093141559	 0.076204
H	 0.3361043094	-1.2325114278	-1.7230496013	 0.070656
H	 1.2721968527	 0.6320653731	-2.5552175918	 0.287052
H	 1.641273677	-2.4876658312	-0.0670394966	 0.070274
H	 3.7801219421	-1.464114247	 0.9684371734	 0.092228
H	 3.824941766	 1.0545646228	 1.3025354139	 0.114285
H	 2.5316179183	 1.2250453632	 0.0265037545	 0.137598
H	 0.2724657151	-1.1741439423	 1.8763731885	 0.076571
126.931	167.2505	190.7124	225.5675	262.7771	277.0247	372.044	487.1044	538.0397	611.5016	649.4389	700.2533	723.794	754.4113	839.1538	859.8619	896.803	906.7049	944.4874	993.7967	1017.2157	1029.8521	1063.5657	1112.5922	1118.2691	1137.2297	1147.5216	1166.6544	1176.4301	1195.4254	1219.5387	1240.8674	1266.8566	1303.5567	1320.4292	1328.7659	1359.8491	1368.1541	1411.3251	1432.5594	1492.6355	1498.619	1517.8972	2995.2646	3022.8217	3035.0547	3090.5206	3098.4606	3118.7223	3130.9966	3138.8339	3153.8392	3254.5955	3821.0809
CC1C(O)C2C3CN3C12	C[C@H]1[C@@H](O)[C@H]2[C@H]3CN3[C@@H]12	
InChI=1S/C7H11NO/c1-3-6-5(7(3)9)4-2-8(4)6/h3-7,9H,2H2,1H3	InChI=1S/C7H11NO/c1-3-6-5(7(3)9)4-2-8(4)6/h3-7,9H,2H2,1H3/t3-,4-,5+,6+,7-,8?/m1/s1
