18
gdb 79607	2.28678	1.79229	1.42721	3.5085	75.69	-0.2275	-0.0269	0.2006	996.6019	0.149009	-401.924332	-401.916701	-401.915757	-401.956382	30.015	
C	-0.2610754375	 1.5302031191	 0.2793510056	-0.414512
C	-0.0064527164	 0.0721136696	-0.0459947893	-0.007354
C	 0.5553283808	-0.5599900247	-1.2952293504	-0.065118
C	 1.4263335282	 0.2031467281	-2.2874846009	-0.046855
N	 1.7047920091	 1.6094737744	-1.9509683545	-0.3294
C	 2.7131850618	 0.5611350042	-1.639208803	-0.165379
C	 2.6616655043	 0.0328484428	-0.2114219152	 0.431829
O	 3.6009801557	 0.0094835328	 0.545001412	-0.325371
C	 1.3332669356	-0.6552976488	 0.0148695703	-0.194719
H	-1.1594073385	 1.8809554242	-0.2412012626	 0.113243
H	-0.4418110618	 1.6310828657	 1.3553015135	 0.11133
H	 0.5630912513	 2.1765177306	-0.0090733541	 0.154958
H	-0.780420042	-0.5655165885	 0.3802416353	 0.09577
H	 0.0438946373	-1.4285250745	-1.6956333055	 0.090939
H	 1.3760317773	-0.0837390277	-3.3319758415	 0.096117
H	 2.0159965044	 2.1016482625	-2.7859932472	 0.239988
H	 3.6766397623	 0.5878166857	-2.1352108816	 0.107147
H	 1.392324418	-1.5547982954	 0.6174292491	 0.107388
103.5316	145.4671	184.1869	279.8979	332.0151	393.0395	451.1337	564.7306	586.18	664.6815	692.977	745.9187	785.9396	816.1921	858.0378	871.5696	911.1218	926.1271	981.5236	989.5163	1019.3287	1065.0647	1078.6436	1099.6313	1136.3658	1145.6746	1161.3976	1192.7809	1236.9834	1257.9303	1324.2984	1352.2488	1374.3253	1397.3862	1419.866	1438.7904	1489.6013	1506.3933	1826.3429	3034.9391	3086.9599	3105.652	3161.6005	3172.5292	3177.039	3185.813	3187.8035	3488.4023
CC1C2C3NC3C(=O)C12	C[C@H]1[C@H]2[C@H]3N[C@H]3C(=O)[C@@H]12	
InChI=1S/C7H9NO/c1-2-3-4(2)7(9)6-5(3)8-6/h2-6,8H,1H3	InChI=1S/C7H9NO/c1-2-3-4(2)7(9)6-5(3)8-6/h2-6,8H,1H3/t2-,3+,4-,5+,6+/m0/s1
