17
gdb 123438	4.96154	0.90646	0.83904	1.6394	73.61	-0.2463	-0.0057	0.2406	1362.1396	0.139254	-414.16266	-414.154837	-414.153893	-414.196944	28.381	
C	 0.0234587105	 1.4370555318	 0.4555665014	-0.356808
C	-0.0865469851	-0.0434369438	 0.1296194093	 0.043962
C	-1.3932455497	-0.6333017722	-0.2453056126	-0.248135
N	-0.319759371	-0.4977207094	-1.2493925433	-0.310681
C	 1.3764707011	 2.0066987888	 0.1513964119	 0.317142
N	 2.3503918264	 2.0351873121	 1.0671814899	-0.26442
N	 3.3723973811	 2.5708985627	 0.4130792266	-0.069751
N	 3.1617931132	 2.9053204154	-0.8509680622	-0.191691
C	 1.8907145229	 2.5511463576	-1.0415257146	-0.123897
H	-0.7426953119	 1.986395891	-0.1056375841	 0.102656
H	-0.1868114681	 1.5875766352	 1.5200662302	 0.129446
H	 0.6249981699	-0.6663618123	 0.667873064	 0.105172
H	-1.6357702462	-1.6551954551	 0.0316089288	 0.121174
H	-2.2508885519	 0.0329241763	-0.3049348939	 0.108934
H	-0.5133412412	 0.3015582731	-1.849328471	 0.223938
H	 4.2605611382	 2.7299924528	 0.8605150487	 0.293407
H	 1.4130857818	 2.7029647061	-1.9966440792	 0.119552
22.3898	71.7323	119.7072	293.7038	320.5843	356.3899	440.9347	526.8838	688.2952	724.3368	777.8026	796.2838	826.565	880.2209	919.8126	937.7276	973.4423	997.6192	1030.2317	1050.3198	1119.5576	1130.1171	1163.3691	1173.6065	1206.7591	1242.5609	1253.1118	1271.5301	1307.9645	1319.4473	1364.6065	1410.0418	1424.0631	1466.0405	1484.6752	1512.3801	1564.8508	3029.1793	3078.1111	3105.6237	3132.3456	3190.817	3265.3763	3485.3227	3669.1722
C(C1CN1)C1=NNN=C1	C([C@H]1CN1)c1n[nH]nc1	
InChI=1S/C5H8N4/c1(4-2-6-4)5-3-7-9-8-5/h3-4,6H,1-2H2,(H,7,8,9)	InChI=1S/C5H8N4/c1(4-2-6-4)5-3-7-9-8-5/h3-4,6H,1-2H2,(H,7,8,9)/t4-/m0/s1
