21
gdb 60136	3.8824	0.95325	0.89259	2.0109	79.67	-0.2362	0.0766	0.3128	1401.0482	0.180503	-424.152409	-424.143319	-424.142374	-424.186985	34.311	
C	 0.0946267595	 1.4204891506	-0.5430685043	-0.390994
C	-0.0468371471	 0.0135217276	 0.0415319768	 0.146786
C	-1.5027195029	-0.4114926616	 0.1878120358	-0.391172
O	 0.5778204997	-0.9711193325	-0.7863907669	-0.27601
C	 1.9673880002	-0.9704989065	-0.7836951558	 0.169632
C	 2.6761224243	-2.0874793234	-1.5858800681	-0.001904
C	 2.2628144733	-1.405784167	-2.9126796053	-0.225256
C	 2.8039723925	-0.3281478426	-1.9446101478	 0.007353
O	 3.894742333	-1.2473663344	-1.5578031563	-0.310201
H	 1.1439279954	 1.7191847093	-0.6187057035	 0.120366
H	-0.3503307735	 1.4632582607	-1.5426094301	 0.122236
H	-0.4150934899	 2.1506478611	 0.0935450426	 0.11652
H	 0.4379974618	-0.0108619031	 1.0314275572	 0.071769
H	-1.9998921725	-0.4073382056	-0.7874162577	 0.123331
H	-1.5664397537	-1.4216533774	 0.600277556	 0.12336
H	-2.0387769351	 0.2728224361	 0.851847969	 0.114401
H	 2.3976754687	-0.7941241066	 0.209704235	 0.080336
H	 2.7857197923	-3.1457253851	-1.3480199759	 0.093329
H	 2.908419833	-1.6258471371	-3.7636707447	 0.104233
H	 1.2007959237	-1.3823505768	-3.1590059858	 0.112688
H	 3.0718190973	 0.7114759643	-2.1361060104	 0.089197
40.6722	73.878	147.221	211.9076	253.4252	300.6762	311.6326	351.3584	435.2872	476.0357	557.1702	623.5096	743.2208	826.893	835.4228	870.4403	891.8346	922.3397	927.3174	944.302	948.7728	960.8033	1013.7267	1067.3847	1103.7599	1125.9933	1148.2157	1166.9807	1173.7352	1176.3421	1201.889	1203.2655	1226.4871	1261.5649	1289.7855	1347.2943	1367.9454	1397.7776	1405.6952	1417.0006	1479.1099	1480.2656	1486.0089	1494.2559	1510.0659	2966.762	3036.9879	3042.598	3043.7763	3081.5845	3108.2214	3111.2963	3115.8318	3117.3806	3122.2403	3124.2551	3162.2305
CC(C)OC1C2CC1O2	CC(C)O[C@H]1[C@H]2C[C@@H]1O2	
InChI=1S/C7H12O2/c1-4(2)8-7-5-3-6(7)9-5/h4-7H,3H2,1-2H3	InChI=1S/C7H12O2/c1-4(2)8-7-5-3-6(7)9-5/h4-7H,3H2,1-2H3/t5-,6+,7+
