15
gdb 51296	4.79827	1.00498	0.8821	4.6587	67.99	-0.2563	-0.0306	0.2258	1257.7078	0.113423	-453.945564	-453.937937	-453.936993	-453.979141	27.449	
O	 0.0986870068	-0.0184241838	-0.0185201577	-0.250713
C	 0.0135290281	 1.1623387322	 0.0953140593	 0.165891
O	 1.1212654711	 1.9621487191	-0.0938804371	-0.24235
C	 0.9747328809	 3.3152407488	-0.0322926802	 0.502326
N	-0.127561457	 3.9389003319	 0.0465623484	-0.312228
C	 0.1642311071	 5.3845388277	 0.0299639227	-0.159193
C	 1.6856004585	 5.5262950353	-0.0065198648	-0.048351
N	 2.3251082874	 4.9385914907	 1.1858108922	-0.324708
C	 2.2171091332	 4.1405832372	-0.0675421001	-0.189551
H	-0.8807161144	 1.7421275272	 0.3551200916	 0.146006
H	-0.3083895657	 5.8324724359	-0.8516550698	 0.118273
H	-0.2689559872	 5.8559780877	 0.9178765435	 0.131846
H	 2.1617006676	 6.3551821947	-0.5177695386	 0.105098
H	 3.2793086833	 5.2891362913	 1.2525941389	 0.240372
H	 3.1043755003	 3.8195161344	-0.5985014683	 0.117281
27.9981	102.4106	182.8402	253.5886	292.7181	395.924	413.2648	513.6451	684.7094	751.1577	787.1685	823.3961	854.1976	892.9644	912.7462	946.3641	1006.898	1039.3191	1057.2419	1073.5109	1085.0675	1132.1041	1156.9091	1219.8392	1250.9323	1260.3254	1342.6508	1369.1584	1391.7878	1425.2142	1477.2589	1710.1267	1876.4822	3043.4709	3083.5342	3085.8395	3179.441	3200.4329	3484.3209
O=COC1=NCC2NC12	O=COC1=NC[C@H]2N[C@@H]12	
InChI=1S/C5H6N2O2/c8-2-9-5-4-3(7-4)1-6-5/h2-4,7H,1H2	InChI=1S/C5H6N2O2/c8-2-9-5-4-3(7-4)1-6-5/h2-4,7H,1H2/t3-,4-/m1/s1
