20
gdb 91687	2.29663	1.67318	1.30457	3.972	79.66	-0.2363	0.0217	0.258	1067.4207	0.172645	-403.156831	-403.148842	-403.147898	-403.18934	31.192	
C	 0.1032452069	 1.5567258262	 0.0928125939	-0.426679
C	 0.1652224876	 0.0327687297	 0.0467280754	 0.043115
C	 1.1799429221	-0.5585319841	-0.9978661428	-0.242176
C	 2.02169615	-1.437437559	-0.0413542236	-0.008269
C	 0.9317156722	-2.1194121511	 0.8348419079	-0.231643
C	 0.7524224708	-0.6527515573	 1.3168387069	-0.037445
N	 2.2222855486	-0.532317901	 1.1208783324	-0.034514
C	 3.0760100552	 0.5202036073	 1.244577371	 0.128669
O	 4.0819790095	 0.679389168	 0.5844405149	-0.333215
H	 1.0893037252	 1.9995265314	 0.2667039829	 0.132663
H	-0.2664097158	 1.9566378809	-0.8571515061	 0.122509
H	-0.5695219878	 1.9050409713	 0.8843181372	 0.113498
H	-0.8437799742	-0.355937527	-0.1291296829	 0.077738
H	 0.6970942387	-1.1417741159	-1.7859874336	 0.102121
H	 1.7921972214	 0.216950783	-1.46456427	 0.125621
H	 2.8923555858	-1.9608312151	-0.4293110535	 0.098908
H	 0.0897063553	-2.5916715309	 0.3255521063	 0.101226
H	 1.3552549774	-2.7658505132	 1.6032651836	 0.115225
H	 0.3388940125	-0.3912516173	 2.2910148936	 0.082402
H	 2.7855955985	 1.1888263441	 2.0816055764	 0.070246
86.0769	140.7655	230.9123	231.7972	276.8143	326.7451	420.6099	445.3968	537.6306	611.2488	691.2704	768.0599	797.3161	836.8351	851.595	897.012	928.225	947.4283	1012.9433	1022.1289	1034.9013	1041.459	1053.979	1074.4115	1113.7169	1138.1172	1193.0341	1198.0243	1226.837	1232.3134	1267.2104	1276.5403	1301.2065	1317.6478	1373.438	1383.8886	1414.0587	1426.439	1486.5413	1496.3958	1499.8661	1501.5087	1782.3597	2915.8121	3031.2306	3041.9234	3066.5665	3082.2963	3096.4462	3105.4771	3116.7662	3122.5081	3152.4718	3156.2682
CC1CC2CC1N2C=O	C[C@H]1C[C@@H]2C[C@H]1N2C=O	
InChI=1S/C7H11NO/c1-5-2-6-3-7(5)8(6)4-9/h4-7H,2-3H2,1H3	InChI=1S/C7H11NO/c1-5-2-6-3-7(5)8(6)4-9/h4-7H,2-3H2,1H3/t5-,6+,7+/m0/s1
