20
gdb 116399	2.63569	1.42469	1.02321	4.9457	76.02	-0.2373	0.0572	0.2945	1210.3297	0.172574	-440.340284	-440.331396	-440.330452	-440.374471	32.556	
C	-0.0436435325	 1.5277195297	 0.0821867135	-0.378017
C	-0.0033974836	 0.0035760541	-0.0484010961	-0.143929
N	 0.7046580833	-0.4569582797	-1.243099087	-0.146784
C	-0.0837347848	-0.6290376041	-2.4582820285	-0.151812
C	 0.8195759641	-0.7431369742	-3.6797688803	-0.238145
C	 1.9842574511	-1.6477795217	-3.3189664976	-0.069105
O	 2.7264794645	-1.0870936576	-2.2349202661	-0.248626
C	 2.0660461747	-0.598960079	-1.1476032741	 0.475377
O	 2.6965642093	-0.3109752114	-0.1565518157	-0.404542
H	 0.9724384154	 1.9179838067	 0.1756086615	 0.149632
H	-0.521298139	 1.9962789579	-0.7850749214	 0.109814
H	-0.6096093123	 1.8178436227	 0.9731909341	 0.116045
H	 0.4965853432	-0.4278063264	 0.8204504642	 0.140074
H	-1.0186543206	-0.408022122	-0.0926812336	 0.096535
H	-0.7111407589	-1.5291744401	-2.3677681212	 0.10828
H	-0.7666627476	 0.2226945624	-2.5646956305	 0.11422
H	 0.259619884	-1.14551802	-4.5290227027	 0.112503
H	 1.2080325629	 0.2402308517	-3.9653910758	 0.124356
H	 1.6291117506	-2.6505916094	-3.0423630696	 0.110695
H	 2.6990066863	-1.7536962396	-4.1381976729	 0.123428
68.0354	80.5442	129.4441	156.2285	228.2424	312.8415	361.1042	376.7799	467.2001	490.8396	557.9853	639.8189	721.7133	763.1301	782.7519	903.3728	907.2597	933.0877	980.9162	985.5577	1080.2877	1104.2868	1121.3451	1143.2527	1167.9616	1225.3407	1228.6473	1262.5137	1299.9876	1306.4243	1371.6715	1379.6882	1392.4463	1408.3568	1421.3224	1459.3693	1478.8198	1483.8233	1489.955	1506.3142	1516.0542	1531.8685	1808.8265	2981.642	3010.9339	3033.1577	3036.6639	3040.9845	3054.7442	3097.558	3101.2651	3104.9944	3119.6619	3134.3257
CCN1CCCOC1=O	CCN1CCCOC1=O	
InChI=1S/C6H11NO2/c1-2-7-4-3-5-9-6(7)8/h2-5H2,1H3	InChI=1S/C6H11NO2/c1-2-7-4-3-5-9-6(7)8/h2-5H2,1H3
