22
gdb 100126	3.96607	0.73099	0.71967	2.1781	83.7	-0.2418	0.0328	0.2745	1700.5696	0.189612	-441.48171	-441.470198	-441.469253	-441.518586	40.654	
C	 0.0780564491	 1.3490163581	-0.0494598422	-0.313033
N	 0.0618614231	-0.0975342615	-0.092132631	-0.213792
C	-1.0624017903	-0.6614774413	-0.0248226987	 0.12455
O	-1.1519499879	-2.0029647435	-0.0587140017	-0.255361
C	-2.4570734701	-2.6289791382	 0.0193006188	 0.343898
C	-3.140470147	-2.3191119175	 1.3547430355	-0.41883
C	-3.3267596452	-2.2448103378	-1.1817478232	-0.418629
C	-2.0825262356	-4.1182088219	-0.0516269889	-0.104173
O	-3.2757235577	-4.881282369	 0.0137584419	-0.421577
H	 0.6858025696	 1.6874471156	 0.7979515243	 0.124602
H	 0.554189292	 1.7406512655	-0.9560634555	 0.124603
H	-0.9209892261	 1.808591808	 0.0394443921	 0.091238
H	-2.0166088458	-0.124539977	 0.063219839	 0.076351
H	-3.4740452296	-1.2795131738	 1.4134650864	 0.112769
H	-4.012748838	-2.9660778559	 1.4715939743	 0.143694
H	-2.4524392113	-2.510222214	 2.183551056	 0.125809
H	-2.7681617448	-2.3854103382	-2.111806193	 0.125811
H	-4.2102801108	-2.8865421716	-1.2070562018	 0.143603
H	-3.6595378844	-1.2045167723	-1.1308952774	 0.112729
H	-1.5350558078	-4.2941338446	-0.9884834422	 0.100237
H	-1.4049525995	-4.3457829971	 0.7835433708	 0.100201
H	-3.0411560217	-5.8119384121	-0.0317805035	 0.2953
57.1201	69.3868	119.4045	121.9347	201.8687	208.9526	214.4105	233.9103	249.6234	313.0704	325.5087	342.3666	361.1166	397.5571	453.4106	522.3288	626.2673	768.4517	911.8643	917.6279	963.4233	981.0224	986.8617	1045.7267	1065.6674	1089.8612	1140.6526	1147.9024	1172.0105	1198.962	1238.4461	1243.4852	1299.6683	1305.2177	1393.5755	1397.3189	1416.0947	1450.3818	1453.3596	1480.0522	1481.7619	1485.5048	1496.4523	1505.033	1507.6448	1524.6614	1769.0055	2958.9671	2992.4704	3019.011	3032.1854	3044.8462	3050.1083	3052.5629	3071.8585	3115.786	3118.8962	3133.7113	3137.8592	3845.7009
CN=COC(C)(C)CO	CN=COC(C)(C)CO	
InChI=1S/C6H13NO2/c1-6(2,4-8)9-5-7-3/h5,8H,4H2,1-3H3	InChI=1S/C6H13NO2/c1-6(2,4-8)9-5-7-3/h5,8H,4H2,1-3H3
