15
gdb 27856	2.0172	1.88286	0.97508	4.7884	73.81	-0.2019	-0.0008	0.201	1129.9093	0.115662	-450.220453	-450.21256	-450.211616	-450.252455	31.034	
N	 0.0523142399	 1.3467940101	 0.1463766559	-0.564976
C	-0.0153160374	-0.0188188361	 0.0596738265	 0.404176
C	-1.2149335369	-0.6981384283	 0.0137093135	-0.3437
C	-1.2325295126	-2.1234697698	-0.0142838681	 0.416095
O	-2.1805578219	-2.8893296485	-0.044633993	-0.410948
N	 0.0884820065	-2.6783737597	 0.0008222434	-0.397588
C	 1.2170565024	-1.9313681118	 0.0348524698	 0.486318
N	 2.4172202548	-2.5953376011	 0.0979149781	-0.570538
N	 1.2140486435	-0.625306677	 0.052993625	-0.405206
H	 0.9466538169	 1.7511831726	-0.079563582	 0.25644
H	-0.757734017	 1.8801493911	-0.1214399594	 0.257824
H	-2.1652609885	-0.1813946897	 0.0132977085	 0.089871
H	 0.1193127962	-3.6875859598	 0.0364593903	 0.253544
H	 2.4765371214	-3.5023846703	-0.3380224096	 0.259389
H	 3.2113806326	-1.9957584616	-0.0678250889	 0.2693
161.64	177.6912	215.2288	324.2869	355.7244	363.577	415.1202	450.5381	517.1223	536.2223	551.5947	574.0135	606.1391	651.9646	706.8001	732.3593	775.4923	815.6632	948.383	985.5585	1050.3814	1095.7618	1172.1585	1219.924	1286.8035	1324.8208	1475.3669	1515.2402	1597.1433	1624.7908	1655.7356	1665.2153	1796.0645	3217.3101	3583.2323	3599.4505	3607.4943	3696.5496	3721.0375
NC1=CC(=O)NC(N)=N1	Nc1cc(=O)[nH]c(N)n1	
InChI=1S/C4H6N4O/c5-2-1-3(9)8-4(6)7-2/h1H,(H5,5,6,7,8,9)	InChI=1S/C4H6N4O/c5-2-1-3(9)8-4(6)7-2/h1H,(H5,5,6,7,8,9)
