20
gdb 78695	5.31966	1.11545	1.10057	1.6727	84.76	-0.232	0.0809	0.3129	1196.6256	0.170888	-365.897142	-365.889464	-365.88852	-365.928892	31.157	
C	-0.2350380875	 1.5931533088	-0.0097690322	-0.427492
C	-0.0241061621	 0.0890156689	 0.0177615423	-0.000351
C	 1.2135598796	-0.5249137353	-0.6525408371	-0.007584
C	 2.1852152039	-0.1639882978	 0.5192093017	-0.193858
C	 0.8032476464	-0.5495937477	 1.1427931799	-0.007587
N	 1.1237335876	-1.7888889192	 0.2542784311	-0.216897
C	 2.581242532	-1.6181271318	 0.5897005528	 0.44365
C	 3.6984771053	-2.4364084257	 0.0493011761	-0.361048
C	 3.357806305	-2.456920348	 1.5400664163	-0.361052
H	 0.6892094079	 2.1384110424	 0.2089524683	 0.116298
H	-0.5907886529	 1.9205257865	-0.9925694892	 0.119894
H	-0.9842733143	 1.8968578172	 0.7291748511	 0.119894
H	-0.9467760283	-0.4608107052	-0.200668504	 0.081515
H	 1.4638435768	-0.6279661806	-1.710172381	 0.080104
H	 2.7800595164	 0.7423211249	 0.6676181202	 0.067774
H	 0.5699527022	-0.6817316027	 2.2010743525	 0.080104
H	 3.4445800706	-3.3176417333	-0.5309556666	 0.121551
H	 4.6123160388	-1.9389556142	-0.2600201527	 0.111768
H	 4.0436465266	-1.9731841773	 2.2284440781	 0.111767
H	 2.8823857259	-3.3514914	 1.9292338324	 0.121551
139.4826	164.9499	213.9194	252.4503	304.623	313.6164	473.1994	582.871	587.6214	717.3903	762.2997	776.1355	818.5065	838.0116	838.6526	869.4279	879.0615	897.9403	960.3236	1008.4355	1025.1884	1025.8758	1041.9375	1049.1468	1073.6858	1097.1231	1103.7868	1132.8548	1139.5634	1167.9017	1182.03	1183.609	1223.1568	1235.5801	1243.4479	1305.7588	1392.9055	1411.8737	1417.564	1451.2965	1495.1815	1500.9948	1515.1152	3030.3935	3046.5788	3055.795	3094.7736	3095.3709	3100.1639	3102.1102	3123.7923	3126.3968	3203.8834	3217.4321
CC1C2C3C1N2C31CC1	C[C@H]1[C@H]2[C@H]3[C@@H]1N2C13CC1	
InChI=1S/C8H11N/c1-4-6-5-7(4)9(6)8(5)2-3-8/h4-7H,2-3H2,1H3	InChI=1S/C8H11N/c1-4-6-5-7(4)9(6)8(5)2-3-8/h4-7H,2-3H2,1H3/t4-,5-,6-,7+
