17
gdb 67649	3.29808	1.77986	1.5877	2.1722	69.55	-0.236	0.0726	0.3086	879.397	0.137861	-421.773322	-421.766931	-421.765987	-421.803655	27.159	
O	-0.128626341	 1.4236964129	-0.0700276753	-0.464852
C	 0.0254368061	 0.0545851839	-0.0258774875	 0.381851
C	-0.0821807217	-0.8404534779	 1.1702265835	-0.14791
C	 1.1158570106	-1.7770128822	 1.2698794071	-0.229999
C	 1.4384489517	-2.0432414257	-0.2022135425	 0.082462
O	 0.4175975169	-2.936534556	-0.7320954217	-0.310765
C	-0.3455700657	-1.7859980589	-1.1466475559	 0.12495
C	-1.0546213692	-1.0169644844	-0.0108100735	-0.153071
C	 0.8513641027	-0.8256094761	-1.0065982542	-0.19306
H	 0.5648674738	 1.8276200713	 0.4636690204	 0.286788
H	-0.5439149087	-0.436079337	 2.0649848166	 0.089873
H	 1.9476117387	-1.2818241227	 1.7876579158	 0.089061
H	 0.9027545544	-2.7208181901	 1.7797940743	 0.114562
H	 2.4451298906	-2.4102327287	-0.412992067	 0.075149
H	-0.9158140448	-1.945156793	-2.0633284254	 0.082422
H	-2.1219572437	-0.9221427148	 0.1465492048	 0.090394
H	 1.3871489993	-0.3983607004	-1.8496907094	 0.082145
211.5794	285.76	302.4882	365.7665	429.2892	552.3577	560.5827	656.4634	698.9097	715.3716	824.0527	838.7205	853.2977	876.4233	901.1429	912.853	922.8456	961.649	985.1992	1013.3096	1034.5052	1055.9278	1066.59	1091.601	1150.3694	1182.9063	1190.6367	1214.7014	1247.7637	1261.2489	1282.3319	1301.7961	1322.0239	1338.8704	1341.2565	1472.0179	1479.9745	3024.268	3088.2404	3092.0083	3098.8618	3158.1741	3170.8969	3190.5748	3788.2228
OC12C3CC4OC(C13)C24	O[C@@]12[C@@H]3C[C@H]4O[C@@H]([C@H]13)[C@@H]24	
InChI=1S/C7H8O2/c8-7-2-1-3-5(7)6(9-3)4(2)7/h2-6,8H,1H2	InChI=1S/C7H8O2/c8-7-2-1-3-5(7)6(9-3)4(2)7/h2-6,8H,1H2/t2-,3-,4-,5+,6+,7+/m1/s1
