14
gdb 26802	3.79438	1.0897	0.84899	4.9125	77.05	-0.1964	-0.0163	0.1801	1251.3568	0.102022	-432.910838	-432.902153	-432.901209	-432.944161	31.344	
N	 0.1332762829	 1.3945475715	 0.1283880075	-0.61607
C	 0.0023143841	 0.0058562371	 0.0204211047	 0.24041
C	-1.1272998976	-0.8007450877	 0.0092557315	 0.290569
O	-2.3893351373	-0.274414735	 0.0175473709	-0.459724
C	-0.7090706464	-2.1455835376	-0.0370129501	-0.381484
C	 0.6812590177	-2.1386488513	-0.0614671132	 0.230126
N	 1.0904245729	-0.8185595286	-0.024387148	-0.357513
C	 1.5989124569	-3.2015679748	-0.1250445636	 0.196791
N	 2.3666962453	-4.0713202435	-0.1744778889	-0.35862
H	-0.7612271886	 1.8058726248	 0.3691806047	 0.263077
H	 0.4595780111	 1.8310189283	-0.7291460919	 0.253013
H	-3.0167731138	-0.9677960472	 0.2405299164	 0.303399
H	-1.32954382	-3.027408867	-0.0769428524	 0.118288
H	 2.0442790229	-0.509560489	 0.0565104524	 0.27774
121.359	126.011	146.6636	176.7038	243.5848	262.2483	334.9998	432.7006	453.1886	511.2922	520.5738	605.2089	654.8182	659.8307	675.2291	794.3047	800.277	846.0701	1008.717	1120.1087	1146.8227	1184.579	1253.3168	1313.8802	1385.8376	1431.7785	1505.4916	1558.0499	1646.5169	1674.9557	2322.4304	3253.9027	3494.3049	3593.2389	3677.274	3846.4128
NC1=C(O)C=C(N1)C#N	Nc1c(O)cc([nH]1)C#N	
InChI=1S/C5H5N3O/c6-2-3-1-4(9)5(7)8-3/h1,8-9H,7H2	InChI=1S/C5H5N3O/c6-2-3-1-4(9)5(7)8-3/h1,8-9H,7H2
