18
gdb 83486	2.94909	1.51734	1.46271	3.6425	70.68	-0.2318	0.013	0.2448	986.2585	0.150765	-439.125381	-439.118083	-439.117138	-439.156894	28.973	
C	-0.1171233313	 1.5420242031	 0.0169406086	-0.434822
C	 0.0527216031	 0.0275112132	 0.0316720299	 0.011761
C	 1.0616542711	-0.5885188282	-0.963308821	 0.081903
C	 2.4068314134	-0.0427049968	-0.465283168	-0.188773
N	 2.1892463783	-0.0013094633	 1.0049842935	-0.303371
C	 0.8327517826	-0.5749805033	 1.2157384781	-0.156697
C	 0.8981218094	-2.0375324105	 0.7708706914	 0.435801
O	 0.910193556	-3.0570496331	 1.3958643108	-0.354867
O	 1.0378619846	-1.9923013581	-0.5980535755	-0.240822
H	 0.8094500661	 2.0555043603	 0.2816956665	 0.146202
H	-0.4397062528	 1.8884966008	-0.9707773319	 0.11943
H	-0.883334373	 1.8441959678	 0.7373666126	 0.126672
H	-0.9151669972	-0.4691930001	-0.0866712445	 0.096343
H	 0.8572397847	-0.5022893767	-2.0291760228	 0.094504
H	 3.2221429488	-0.7098133378	-0.7599511886	 0.120274
H	 2.6152769755	 0.9579520486	-0.8612383144	 0.111758
H	 2.890054191	-0.5353199702	 1.5056740561	 0.238638
H	 0.4644178397	-0.4243114156	 2.2282423093	 0.096064
148.8835	180.8886	252.4798	258.8	288.6345	427.5924	460.5694	537.8995	609.9286	695.5896	756.9267	761.3464	817.6211	861.6	893.8303	922.3468	944.756	963.6029	995.4804	1016.6733	1058.2302	1071.4819	1097.6717	1121.9617	1167.1755	1198.8087	1211.2522	1256.6323	1276.44	1299.3163	1334.9126	1356.5701	1389.5979	1412.633	1425.2221	1492.8617	1502.4488	1517.6408	1888.2293	3035.0689	3041.774	3068.5287	3086.2978	3102.4982	3134.0734	3138.8064	3148.8344	3547.637
CC1C2CNC1C(=O)O2	C[C@H]1[C@H]2CN[C@@H]1C(=O)O2	
InChI=1S/C6H9NO2/c1-3-4-2-7-5(3)6(8)9-4/h3-5,7H,2H2,1H3	InChI=1S/C6H9NO2/c1-3-4-2-7-5(3)6(8)9-4/h3-5,7H,2H2,1H3/t3-,4+,5-/m0/s1
