15
gdb 124128	7.18038	0.73349	0.66883	3.416	84.94	-0.2247	-0.0283	0.1964	1634.6862	0.11233	-416.78604	-416.777205	-416.776261	-416.82216	31.121	
C	-0.1102327597	 1.4552371768	 0.0204868762	-0.512539
C	-0.012011533	 0.0061575186	 0.0050198146	 0.286338
C	 0.0661471868	-1.1973673422	-0.009074777	-0.125278
C	 0.1601519882	-2.6015801659	-0.0242945492	 0.313466
C	 1.2290480959	-3.4496276065	-0.063101111	-0.435983
C	 0.6338351687	-4.7427097415	-0.0649740811	 0.400758
N	 1.2823386878	-5.9618706397	-0.1701513289	-0.603069
N	-0.6815534161	-4.674960402	-0.0207850204	-0.20931
O	-0.9893752832	-3.3143594494	-0.0063763092	-0.225397
H	 0.8827776494	 1.9168057594	 0.0037201303	 0.157489
H	-0.6654135888	 1.8223441513	-0.8497200604	 0.160434
H	-0.628359198	 1.8064526598	 0.9196277766	 0.159843
H	 2.2732625392	-3.1895510446	-0.1000125916	 0.118986
H	 2.1543236642	-6.0114248415	 0.3369138045	 0.254255
H	 0.6789494787	-6.7435221526	 0.0497136167	 0.260005
6.5684	86.8184	88.2541	232.7458	281.299	308.9516	357.69	391.507	453.3645	473.3191	549.1517	638.4558	694.7469	724.856	745.6717	808.1883	942.5556	960.7879	1017.9393	1048.3109	1051.8134	1057.4731	1142.8502	1213.1268	1284.2961	1411.6932	1471.7733	1473.7498	1496.0591	1537.2435	1629.9141	1656.4802	2361.8929	3029.6598	3091.3172	3096.1527	3280.5252	3555.0642	3654.9738
CC#CC1=CC(N)=NO1	CC#Cc1cc(N)no1	
InChI=1S/C6H6N2O/c1-2-3-5-4-6(7)8-9-5/h4H,1H3,(H2,7,8)	InChI=1S/C6H6N2O/c1-2-3-5-4-6(7)8-9-5/h4H,1H3,(H2,7,8)
