19
gdb 88236	4.29956	0.71224	0.65654	1.3156	88.91	-0.228	0.026	0.254	1730.1838	0.159001	-381.977939	-381.968598	-381.967654	-382.013695	33.529	
C	-0.2318485424	 1.3862033724	-0.1744338096	-0.310114
N	 0.0314247008	-0.0366484702	-0.0032166144	-0.077869
C	 1.4017292	-0.4773526334	-0.1783690824	-0.236984
C	 0.786563463	-0.4656216736	 1.1923446883	-0.181138
C	 1.2504398354	 0.4672685594	 2.1814597645	 0.107271
C	 1.6072424297	 1.2337615795	 3.0441117878	 0.069416
C	 2.0578185449	 2.121173484	 4.0775335719	-0.163166
C	 1.2351503695	 3.3147532803	 4.4451165513	-0.225781
N	 1.3326559332	 2.1859084176	 5.37263065	-0.304889
H	 0.5819037027	 2.0355391782	 0.1805910723	 0.113643
H	-0.3973514643	 1.5796948719	-1.2386377015	 0.124565
H	-1.1442528792	 1.6506464592	 0.3686100225	 0.124888
H	 1.5423003182	-1.4231136194	-0.6951304078	 0.120996
H	 2.164966472	 0.274942872	-0.3712373763	 0.117503
H	 0.4331373917	-1.412822168	 1.594359535	 0.114764
H	 3.1361285803	 2.1954766667	 4.194744937	 0.116999
H	 1.73880322	 4.2210458104	 4.7692288305	 0.12595
H	 0.3112301992	 3.4702437098	 3.8962476004	 0.123364
H	 0.4941184752	 1.6139017232	 5.3029634803	 0.240581
25.5596	74.767	96.9015	176.6291	195.0678	224.2337	333.4751	368.4247	441.4188	505.2141	533.087	593.8427	699.2725	754.6422	810.2378	836.7647	887.7035	952.7926	970.2793	1000.8555	1028.6099	1059.8503	1106.4268	1114.1557	1124.3522	1130.8433	1158.5425	1173.7429	1209.0801	1226.6606	1258.358	1299.3039	1322.2954	1365.4911	1403.7864	1449.4821	1489.6023	1494.6393	1503.6733	1507.5026	2343.5296	2994.9525	3077.9113	3093.6055	3109.4203	3114.5728	3123.7694	3135.5563	3183.4904	3205.3567	3503.5385
CN1CC1C#CC1CN1	CN1C[C@H]1C#C[C@H]1CN1	
InChI=1S/C7H10N2/c1-9-5-7(9)3-2-6-4-8-6/h6-8H,4-5H2,1H3	InChI=1S/C7H10N2/c1-9-5-7(9)3-2-6-4-8-6/h6-8H,4-5H2,1H3/t6-,7+,9?/m0/s1
