18
gdb 51254	4.26885	1.09553	1.00534	3.6142	80.78	-0.2012	-0.0054	0.1958	1210.4647	0.149767	-401.943768	-401.936323	-401.935379	-401.976008	29.316	
O	-0.2793465328	 0.0582957988	 0.0347104996	-0.299362
C	-0.0516272948	 1.2464014159	 0.031012996	 0.138604
N	 1.198359334	 1.8080946861	 0.0039272695	-0.444962
C	 2.3981412213	 1.1073193021	-0.0234427243	 0.444817
C	 2.694571207	-0.2001718192	-0.0314354949	-0.187113
C	 4.2335053321	-0.1801609694	-0.0656281929	-0.060851
C	 4.5389327345	 0.9328337399	 0.9960266271	-0.202083
C	 3.7667729631	 1.8039630922	-0.0530983847	-0.144673
C	 4.491509728	 0.9351521198	-1.1373910244	-0.202084
H	-0.8420093222	 2.0219639322	 0.0494494702	 0.07907
H	 1.2490420643	 2.8152489081	 0.0040659182	 0.252533
H	 2.0432130753	-1.0562733816	-0.0179139163	 0.129943
H	 4.7605651151	-1.1331104721	-0.0783768033	 0.063796
H	 4.0905553544	 0.8214437722	 1.9857362554	 0.096431
H	 5.5999059741	 1.1922990603	 1.0709530938	 0.093038
H	 3.7937165081	 2.895740672	-0.0525117361	 0.053422
H	 5.5481168364	 1.1948360586	-1.2588306081	 0.093037
H	 3.9995879522	 0.8258898541	-2.1064365243	 0.096434
68.2559	166.7727	180.1558	319.2781	330.3179	495.3869	516.7694	547.3396	587.3249	628.3652	780.0545	782.7595	825.7766	839.3965	846.6908	878.0083	924.4592	932.0433	1003.7971	1006.9499	1015.9358	1066.1255	1069.7593	1105.1096	1106.6384	1132.3269	1207.136	1218.0782	1224.6917	1232.2161	1259.0779	1276.5511	1313.7792	1431.2777	1478.0261	1514.7782	1536.5087	1680.1283	1803.8339	2942.4249	3042.1257	3051.5735	3092.4579	3116.42	3121.3053	3127.1221	3291.3377	3623.5312
O=CNC1=CC2CC1C2	O=CNC1=C[C@@H]2C[C@H]1C2	
InChI=1S/C7H9NO/c9-4-8-7-3-5-1-6(7)2-5/h3-6H,1-2H2,(H,8,9)	InChI=1S/C7H9NO/c9-4-8-7-3-5-1-6(7)2-5/h3-6H,1-2H2,(H,8,9)/t5-,6+
