18
gdb 87387	2.22205	1.62938	1.1341	4.39	74.97	-0.2285	-0.0275	0.201	1116.0778	0.145264	-439.048993	-439.039961	-439.039017	-439.082789	33.489	
C	 0.0299217855	 1.4654608206	-0.3014752932	-0.306753
N	 0.1236783106	 0.0265584311	-0.0662844798	-0.125901
C	 1.4395560934	-0.5694685595	-0.0521810307	-0.300697
C	 0.6346779992	-0.4306112513	 1.2100270208	 0.277545
C	 1.0590531318	 0.331913907	 2.4844987875	-0.028629
O	 0.1994797828	 1.4332733199	 2.707062203	-0.424692
C	 0.7056266834	-0.9363985652	 3.3276275676	-0.378727
C	 0.1205143375	-1.5807449261	 2.0473761952	 0.343953
O	-0.4669754418	-2.5962213935	 1.8171936479	-0.302099
H	 0.8841519682	 2.0360853013	 0.090252382	 0.107799
H	-0.0358488712	 1.6270899994	-1.3815816841	 0.123163
H	-0.8776966743	 1.8459314363	 0.1707702176	 0.142417
H	 1.5314213378	-1.5470617768	-0.5183872258	 0.134411
H	 2.3100093032	 0.0819502057	-0.1397285468	 0.113176
H	 2.1127571423	 0.633354906	 2.5234294976	 0.075638
H	 0.3954259279	 1.7938598728	 3.5779292059	 0.289084
H	 1.5604803148	-1.483507866	 3.7354416747	 0.129554
H	-0.0266153311	-0.7596979717	 4.1198213906	 0.130758
62.8823	123.6052	165.2457	206.0731	247.1247	284.2606	300.174	342.6955	389.8454	466.0683	513.9627	576.2906	618.1455	743.8463	752.5944	840.5639	878.2564	917.3996	1003.9014	1020.2735	1056.4345	1066.8122	1104.2994	1109.8212	1138.9868	1155.9416	1173.7955	1198.7783	1211.4897	1233.506	1302.8626	1384.0768	1410.7118	1436.7073	1451.8922	1484.4237	1491.8059	1504.3172	1894.1806	2998.4828	3025.797	3062.7191	3079.0965	3084.5986	3122.5852	3133.4335	3178.6283	3814.2363
CN1CC11C(O)CC1=O	CN1C[C@]21[C@@H](O)CC2=O	
InChI=1S/C6H9NO2/c1-7-3-6(7)4(8)2-5(6)9/h4,8H,2-3H2,1H3	InChI=1S/C6H9NO2/c1-7-3-6(7)4(8)2-5(6)9/h4,8H,2-3H2,1H3/t4-,6-,7?/m0/s1
