21
gdb 104000	2.53545	1.33471	1.21628	1.6563	78.18	-0.2449	0.0632	0.3081	1176.0532	0.179545	-424.199989	-424.190233	-424.189289	-424.233993	37.024	
C	-0.0008379335	 1.5283964027	 0.161972424	-0.408368
C	-0.1039043682	 0.0195939873	-0.0882358453	-0.224313
C	 0.7154268953	-0.4633782648	-1.2814420786	 0.340935
O	 0.2673917495	 0.0864430117	-2.5093123049	-0.491718
C	 2.2929016733	-0.4393346421	-1.1532659132	-0.314698
C	 2.2763261853	-1.9563183396	-1.3545212635	-0.046168
O	 1.4604763451	-2.506002013	-0.3040483677	-0.299539
C	 0.8106625318	-1.9998635769	-1.4783952495	 0.408366
C	-0.1329703572	-2.8733242347	-2.2349568754	-0.514817
H	 1.0355971504	 1.8390117331	 0.3343606464	 0.120664
H	-0.3910474759	 2.1086668425	-0.6826892238	 0.106198
H	-0.583184674	 1.8189645395	 1.0410521315	 0.121849
H	 0.2336749938	-0.5314554171	 0.7947117975	 0.117557
H	-1.1529669576	-0.2524533593	-0.2595831227	 0.098549
H	 0.3722451731	 1.0424822093	-2.4676094046	 0.280276
H	 2.7366193908	 0.1027312238	-1.9916211447	 0.103437
H	 2.7241827032	-0.0987504929	-0.2082821053	 0.101276
H	 3.0387321979	-2.6041517294	-1.772804766	 0.099853
H	-1.0749307456	-2.9975232305	-1.688822333	 0.127816
H	-0.3602900741	-2.4240574568	-3.2051069806	 0.144305
H	 0.3032773365	-3.8639355525	-2.3892664106	 0.128539
92.7714	139.9649	155.5994	196.022	222.6907	235.5128	270.3697	283.861	348.8373	404.7175	452.2896	488.7776	532.9639	627.5838	688.7363	777.8066	785.1327	864.1879	874.8341	935.1251	947.7676	969.9323	990.705	1018.9731	1042.8883	1084.2863	1103.4938	1123.8146	1186.4173	1202.246	1227.266	1245.8202	1270.4408	1301.0199	1337.5981	1381.4712	1399.8221	1409.4404	1449.6671	1476.6787	1482.1196	1484.8742	1497.5616	1501.0506	1509.2098	3025.4986	3032.0508	3038.1994	3059.7375	3077.4147	3099.4187	3103.3699	3106.4366	3122.9588	3129.9988	3179.2095	3814.6424
CCC1(O)CC2OC12C	CC[C@@]1(O)C[C@H]2O[C@@]12C	
InChI=1S/C7H12O2/c1-3-7(8)4-5-6(7,2)9-5/h5,8H,3-4H2,1-2H3	InChI=1S/C7H12O2/c1-3-7(8)4-5-6(7,2)9-5/h5,8H,3-4H2,1-2H3/t5-,6-,7-/m1/s1
