18
gdb 64845	3.29165	0.99674	0.87619	3.8107	83.39	-0.2706	0.0155	0.2861	1346.452	0.146325	-364.78976	-364.780649	-364.779705	-364.823555	34.266	
C	-0.1352406691	 1.6125210726	-0.0085872735	-0.447309
C	-0.0380346676	 0.0800911935	-0.0027249945	 0.153811
C	 1.1249372259	-0.4676912132	-0.8982834904	-0.265048
C	 2.0209489235	-0.5805747052	 0.3763146541	-0.172567
C	 0.7251547165	-0.4848573767	 1.2434569081	-0.265048
C	 2.8605481096	-1.7497763445	 0.523664912	 0.308008
C	 3.5413333264	-2.7337622898	 0.6428563467	-0.436443
C	-1.3469315328	-0.5130433755	-0.251800917	 0.235169
N	-2.3823990114	-0.988904928	-0.4488978608	-0.342577
H	 0.8476941796	 2.0550064182	 0.1784361512	 0.127237
H	-0.4962258373	 1.975802645	-0.974868797	 0.139402
H	-0.821538351	 1.9618341046	 0.7679174966	 0.139402
H	 0.8947639693	-1.4502152639	-1.3115491295	 0.137767
H	 1.4706646571	 0.1920847732	-1.6963270146	 0.119451
H	 2.6248956498	 0.3243580314	 0.4963019438	 0.111326
H	 0.7578144979	 0.1614759264	 2.1225996095	 0.119451
H	 0.3642426036	-1.4729951968	 1.5305942626	 0.137767
H	 4.14478299	-3.6011605112	 0.7485510028	 0.200204
63.0156	146.6649	182.3871	190.0088	224.3448	252.793	331.0187	352.7848	467.9079	494.9113	542.2846	586.6592	589.6207	628.3865	639.0547	704.6657	842.4622	881.1462	913.6913	925.9891	959.3598	999.0685	1059.2527	1068.1586	1142.292	1168.7809	1194.3372	1243.6865	1252.2522	1269.0787	1301.6132	1362.9946	1413.9357	1473.6264	1490.7099	1492.4853	1499.964	2237.1948	2349.8735	3042.097	3054.3897	3078.5509	3082.2586	3117.2689	3120.8135	3144.7325	3146.8394	3503.9234
CC1(CC(C1)C#C)C#N	C[C@]1(C[C@@H](C1)C#C)C#N	
InChI=1S/C8H9N/c1-3-7-4-8(2,5-7)6-9/h1,7H,4-5H2,2H3	InChI=1S/C8H9N/c1-3-7-4-8(2,5-7)6-9/h1,7H,4-5H2,2H3/t7-,8+
