19
gdb 108008	3.60265	1.55938	1.3908	0.9913	77.8	-0.2256	0.092	0.3176	991.1022	0.159893	-385.803653	-385.796438	-385.795494	-385.835223	29.354	
C	 0.0442273448	 1.3549787664	 0.0993329064	-0.258062
O	-0.087001802	-0.040397789	-0.0800609345	-0.302283
C	-1.3805138016	-0.5230768065	-0.0236701592	 0.448752
C	-2.5642767088	-0.0176318709	-0.8972904699	-0.317748
C	-3.4316213881	-0.7530550916	 0.152552083	-0.059826
C	-2.9868288774	-2.2359538529	 0.1651767918	-0.070047
C	-2.1256565853	-2.0894965686	 1.4012206966	-0.100981
C	-1.4750657311	-2.0630784533	 0.0365326561	-0.127939
C	-2.3246775582	-0.5512905273	 1.2573873061	-0.139316
H	 1.1142677246	 1.5742350599	 0.1096820543	 0.127211
H	-0.4250919014	 1.9209432272	-0.7169654262	 0.112526
H	-0.395231878	 1.6853074515	 1.051368015	 0.107882
H	-2.6953805426	 1.0671847443	-0.8275488253	 0.094453
H	-2.6160664121	-0.3359884083	-1.9430355814	 0.093623
H	-4.4810341951	-0.5115468039	 0.309814791	 0.066803
H	-3.5110728328	-3.107791689	-0.2041770652	 0.084221
H	-1.9747757478	-2.7479609693	 2.2456980872	 0.08537
H	-0.8214034662	-2.7836783815	-0.4361041885	 0.087236
H	-2.3598859808	 0.2052145527	 2.0369471625	 0.068126
87.6487	172.4007	217.8607	326.0364	371.4426	456.3679	548.3828	598.7971	733.1632	741.25	784.4996	795.2731	831.0974	852.0635	863.1851	896.2692	915.9919	949.1131	983.5335	994.7171	1017.0421	1032.3137	1043.3453	1067.7017	1083.7207	1094.8616	1151.694	1170.9749	1174.823	1180.1031	1211.0246	1216.8861	1241.4505	1260.3986	1279.4368	1322.6661	1363.518	1479.8902	1487.5768	1490.6385	1506.9037	2992.3759	3040.6399	3047.8209	3100.4115	3119.113	3130.8175	3151.0719	3192.6781	3199.8149	3214.0242
COC12CC3C4C(C14)C23	CO[C@@]12C[C@H]3[C@@H]4[C@@H]([C@H]14)[C@@H]23	
InChI=1S/C8H10O/c1-9-8-2-3-4-5(6(3)8)7(4)8/h3-7H,2H2,1H3	InChI=1S/C8H10O/c1-9-8-2-3-4-5(6(3)8)7(4)8/h3-7H,2H2,1H3/t3-,4+,5+,6-,7+,8+/m0/s1
