15
gdb 132005	2.36332	1.84936	1.04427	6.6534	74.51	-0.2087	-0.014	0.1947	1071.0846	0.113438	-458.129784	-458.121799	-458.120855	-458.16237	29.625	
C	 0.0053267352	 1.5147598162	-0.0050481462	-0.504238
C	-0.0357539002	 0.0203269909	 0.0026104409	 0.215622
C	-1.1502833432	-0.7291070149	-0.1067946724	 0.17353
F	-2.3335659048	-0.1324761529	-0.2339697282	-0.058138
C	-1.1269759786	-2.1927762159	-0.092804972	 0.254247
N	-2.2113702946	-2.8622906299	-0.1993820619	-0.535212
N	 0.1494759682	-2.7804157116	 0.0434720069	-0.325494
C	 1.1849224328	-2.0284768625	 0.144709291	 0.08846
N	 1.170325388	-0.6657843293	 0.1328861687	-0.367526
H	 0.6169463462	 1.8893276142	-0.8346607112	 0.140714
H	-1.0026739624	 1.913691321	-0.1127563034	 0.166633
H	 0.4343890022	 1.9034730328	 0.9263050252	 0.14074
H	-1.9776577304	-3.8567868631	-0.1674742106	 0.215509
H	 2.1716232532	-2.4762981239	 0.2500804168	 0.129898
H	 2.0302430885	-0.1485201911	 0.2173162262	 0.265255
101.3332	136.2414	169.2539	284.2059	314.1988	320.463	386.6483	502.2336	514.3655	534.2332	542.8274	568.2553	693.4536	781.3925	879.6378	893.0333	958.616	962.6023	1004.3173	1063.9408	1120.9723	1176.8723	1271.7409	1280.3857	1378.7649	1416.1099	1430.2587	1483.0062	1486.3201	1527.1689	1666.4797	1686.7361	1735.3566	3027.5909	3076.8523	3149.1897	3161.4914	3462.3349	3644.6928
CC1=C(F)C(=N)N=CN1	CC1=C(F)C(=NCN1)[NH]	
InChI=1S/C5H6FN3/c1-3-4(6)5(7)9-2-8-3/h2H,1H3,(H2,7,8,9)	InChI=1S/C5H7FN3/c1-3-4(6)5(7)9-2-8-3/h7-8H,2H2,1H3
