19
gdb 60630	2.83342	1.1168	0.92844	4.484	72.25	-0.2395	0.0154	0.2549	1296.7042	0.158962	-456.337856	-456.32838	-456.327436	-456.372833	34.481	
C	-0.3663474579	 1.4055388344	-0.1646154875	-0.318148
N	-0.0065020624	 0.0076807385	 0.0178577625	-0.093201
C	 1.3835673198	-0.3662862766	-0.2168156152	-0.245324
C	 0.8184360403	-0.4071109373	 1.1576608331	 0.010991
C	 1.3112067831	 0.5488809197	 2.2307603718	-0.157334
N	 0.3531790873	 0.5698711362	 3.3505051056	-0.546483
H	 1.6675316946	-0.5434170529	 4.174047976	 0.306994
H	 0.3812361327	 1.4565035903	 3.843070815	 0.249359
H	-0.5962278612	 0.4313470299	 3.022524976	 0.252045
C	 2.6804232933	 0.0420071921	 2.7368031302	 0.434766
O	 3.7024134175	 0.2038658064	 2.1262842077	-0.341823
O	 2.6080793074	-0.618576713	 3.8989693093	-0.365569
H	 0.4431485466	 2.1224383641	 0.0447021525	 0.107784
H	-0.6699704539	 1.5484923219	-1.2060817965	 0.133445
H	-1.2229092563	 1.653112513	 0.4717366457	 0.11562
H	 1.5510194069	-1.2858789718	-0.7700269023	 0.123472
H	 2.1017434333	 0.4262757724	-0.4211765025	 0.128035
H	 0.5226099024	-1.373227663	 1.5669818099	 0.103582
H	 1.4946997565	 1.5362628058	 1.7958312186	 0.101789
52.3702	65.9915	129.7397	192.2542	230.7045	259.5763	301.5597	329.2968	365.1158	421.826	468.0992	564.8793	672.1138	707.8296	750.9395	841.2779	859.5594	882.7189	903.0494	950.3676	1030.261	1039.0586	1075.0749	1112.4222	1129.6709	1141.5472	1163.7295	1203.183	1212.6227	1250.345	1299.6141	1324.3355	1336.7028	1423.028	1426.4498	1450.5932	1487.4588	1504.329	1516.2451	1651.1866	1869.9585	2975.5651	3059.8093	3066.0529	3099.4373	3101.4351	3104.7897	3187.6913	3477.3151	3512.8668	3594.3318
CN1CC1C([NH3+])C([O-])=O	CN1C[C@H]1[C@@H](N)C(=O)O	
InChI=1S/C5H10N2O2/c1-7-2-3(7)4(6)5(8)9/h3-4H,2,6H2,1H3,(H,8,9)	InChI=1S/C5H10N2O2/c1-7-2-3(7)4(6)5(8)9/h3-4H,2,6H2,1H3,(H,8,9)/t3-,4+,7?/m0/s1
