20
gdb 17816	4.01327	1.46765	1.29237	1.6394	75.14	-0.2455	0.0799	0.3253	1035.4148	0.177394	-348.974472	-348.966254	-348.96531	-349.007496	30.508	
C	 0.0886870742	 1.5461542683	-0.1707687117	-0.419791
C	 0.0789339985	 0.041107093	-0.0001302234	-0.000102
C	 1.3589612313	-0.7635441462	-0.0456134587	-0.297513
C	 0.5866880127	-0.6489641697	 1.2454545576	-0.025581
C	 1.1584792659	 0.0791333525	 2.4371911662	 0.126872
C	 2.1790649073	-0.6901748222	 3.312697258	-0.28517
C	 3.1111585744	 0.5009129485	 3.0248140221	-0.061168
O	 2.1553114507	 1.0844639267	 2.1147792727	-0.284873
H	 0.9642342083	 1.9945615159	 0.3026202586	 0.150867
H	 0.0975357726	 1.8122464577	-1.2339036397	 0.108668
H	-0.8047329333	 2.0000758699	 0.2738000613	 0.107793
H	-0.7815981478	-0.4449746601	-0.4548918816	 0.077743
H	 1.3713929353	-1.7118063053	-0.5720684008	 0.101259
H	 2.2832469172	-0.1981164295	-0.1008197973	 0.121639
H	 0.0234856167	-1.5275902641	 1.5559812693	 0.080698
H	 0.3474811239	 0.5328560848	 3.0258759167	 0.073497
H	 1.9015935547	-0.8522716865	 4.3551288206	 0.106722
H	 2.5055841678	-1.6325330822	 2.8690393832	 0.112905
H	 3.3046384423	 1.1580778154	 3.8824029671	 0.100644
H	 4.0622934174	 0.274934773	 2.5295547298	 0.104891
73.5829	80.7331	157.845	211.4737	244.656	280.4894	363.7523	485.9829	583.808	698.745	768.562	803.2477	843.4034	852.7101	907.2604	920.7492	962.0547	964.4056	1003.0337	1030.2766	1064.1736	1088.0806	1110.5516	1114.0865	1144.0894	1151.0228	1170.5248	1201.6307	1218.4577	1238.1557	1257.5353	1281.8892	1353.1005	1373.823	1391.3344	1414.0281	1426.1094	1484.9228	1488.489	1506.1335	1507.3329	1531.4528	2987.6004	3014.8028	3028.3111	3058.6895	3078.8874	3080.2579	3114.2909	3123.2698	3130.8826	3136.2793	3141.8664	3218.0932
CC1CC1C1CCO1	C[C@H]1C[C@H]1[C@H]1CCO1	
InChI=1S/C7H12O/c1-5-4-6(5)7-2-3-8-7/h5-7H,2-4H2,1H3	InChI=1S/C7H12O/c1-5-4-6(5)7-2-3-8-7/h5-7H,2-4H2,1H3/t5-,6+,7+/m0/s1
