16
gdb 77152	2.91721	1.14354	0.98964	4.1238	67.91	-0.251	-0.0021	0.2488	1219.7968	0.124358	-471.221436	-471.212178	-471.211234	-471.256898	32.821	
N	 0.5777418555	 1.2210629525	 0.3092784994	-0.522362
C	 0.3591918986	-0.1302080661	-0.1403339321	-0.119847
C	-1.0605272798	-0.7422852669	 0.0195132931	 0.033875
O	-1.0520709107	-1.124676983	-1.3914298477	-0.264269
C	 0.1454332124	-0.4657161446	-1.6133295125	 0.417737
N	 0.7529318048	-0.2077698967	-2.6766520759	-0.546851
C	-1.1571464006	-1.9720060296	 0.9199689729	 0.411788
N	-2.2554289401	-2.0130910538	 1.7219002079	-0.531686
O	-0.2939181866	-2.8260037727	 0.9176458319	-0.357885
H	 1.5707158985	 1.423231841	 0.3409301814	 0.248403
H	 0.1682845804	 1.8868667006	-0.339113697	 0.238332
H	 1.0954522055	-0.8030310828	 0.3053467726	 0.143054
H	-1.8435771774	-0.0000549837	 0.2047114496	 0.083686
H	 0.2659256902	-0.5788430993	-3.4942708201	 0.23173
H	-2.9973635162	-1.3392709594	 1.6529183818	 0.265902
H	-2.3836188347	-2.8149380156	 2.3182070248	 0.26839
19.7962	76.1619	166.6681	182.1531	227.3044	246.6573	260.2163	342.9025	390.6824	472.5994	583.7648	617.5516	674.7007	711.7713	776.5772	811.5794	864.9406	895.9808	919.0956	976.9456	998.8071	1039.0014	1087.8611	1171.4248	1181.4429	1223.0375	1232.7839	1291.4338	1301.7142	1413.1409	1427.8394	1620.2739	1672.5181	1806.3377	1829.2471	3059.0504	3101.9679	3476.2375	3507.5014	3587.8164	3601.1081	3738.1078
NC1C(OC1=N)C(N)=O	N[C@H]1[C@@H](O[C]1[NH])C(=O)N	
InChI=1S/C4H7N3O2/c5-1-2(3(6)8)9-4(1)7/h1-2,7H,5H2,(H2,6,8)	InChI=1S/C4H7N3O2/c5-1-2(3(6)8)9-4(1)7/h1-2,7H,5H2,(H2,6,8)/t1-,2+/m0/s1
