17
gdb 82064	2.91797	1.45637	1.2598	2.3403	66.97	-0.2489	0.0658	0.3147	1027.2832	0.135523	-458.886828	-458.879096	-458.878152	-458.919523	29.262	
O	 0.2685549538	 1.3748822479	-0.006313334	-0.428169
C	 0.1089351664	-0.0136121939	 0.0145138458	 0.043392
C	 0.301476878	-0.713049856	 1.3703426288	-0.016542
O	-0.7191471226	-0.161082764	 2.2201972181	-0.261579
C	-1.073043911	-1.2394581979	 1.3333535325	-0.067889
C	-1.3593525088	-0.6021274687	-0.0207589257	 0.242423
C	-2.5912975313	 0.2728212764	-0.2880633706	-0.131414
O	-2.9825779035	-0.5471740427	-1.4125678247	-0.273597
C	-1.854275901	-1.4216443615	-1.2267902797	-0.147265
H	-0.1403118931	 1.7058592826	 0.804233032	 0.293031
H	 0.7267329558	-0.4302655595	-0.7862069552	 0.097332
H	 1.1994724418	-1.082485176	 1.8515032915	 0.112847
H	-1.4952890182	-2.1312503334	 1.7821933895	 0.114097
H	-3.3503618091	 0.2833570368	 0.503772813	 0.106064
H	-2.3597066971	 1.3020470497	-0.5883018292	 0.112386
H	-1.1860831841	-1.4301002627	-2.0983294842	 0.104593
H	-2.1622837361	-2.4531221172	-1.006947868	 0.100291
71.8853	106.3078	206.3763	239.8474	276.174	411.7485	453.2952	496.3889	575.1477	652.5795	768.3423	844.621	854.3575	865.5756	869.6782	904.8456	968.9299	981.8729	1001.7106	1038.8662	1047.1423	1101.8779	1121.8912	1147.1551	1158.5388	1178.6625	1198.985	1219.5039	1253.0424	1282.9748	1307.4276	1313.781	1371.6422	1384.9779	1433.5433	1505.6684	1531.2915	2995.5057	3016.9912	3037.3658	3062.6092	3080.1015	3182.0243	3196.916	3769.6983
OC1C2OC2C11COC1	O[C@H]1[C@H]2O[C@H]2C21COC2	
InChI=1S/C6H8O3/c7-4-3-5(9-3)6(4)1-8-2-6/h3-5,7H,1-2H2	InChI=1S/C6H8O3/c7-4-3-5(9-3)6(4)1-8-2-6/h3-5,7H,1-2H2/t3-,4+,5-/m1/s1
