18
gdb 83671	2.25401	1.6698	1.11985	5.5101	77.38	-0.2295	0.0194	0.2488	1113.8922	0.148353	-398.078669	-398.070374	-398.06943	-398.111639	31.06	
C	 0.0210430797	 1.5729039881	 0.0981713114	-0.336971
N	 0.0195306112	 0.1284322054	 0.1660884925	-0.068772
C	-1.0310454107	-0.5696430074	 0.9399833089	-0.006823
C	-1.6113555473	-1.8001516475	 0.2064682446	-0.166273
N	-0.3829013102	-2.5632695807	 0.5662774734	-0.296796
C	 0.0505677761	-1.5259741531	 1.5133614477	-0.047402
C	 1.1013793924	-0.5345841127	 0.926024535	-0.122204
C	 2.2113391914	-1.0633557955	 0.1351847058	 0.309523
N	 3.1086392294	-1.4755986359	-0.4648819944	-0.331046
H	 0.8950250149	 1.9111633453	-0.4673061979	 0.13925
H	-0.8723434313	 1.9154741755	-0.4329788335	 0.129706
H	 0.0429269714	 2.062612671	 1.0901335081	 0.093923
H	-1.6888563524	 0.0663538056	 1.5371695556	 0.078195
H	-2.5286768066	-2.1745428864	 0.6799880256	 0.094724
H	-1.7710533641	-1.689411403	-0.8701900032	 0.115996
H	-0.5330962924	-3.4794776808	 0.9671716927	 0.22876
H	 0.1685767339	-1.8068117769	 2.5602394787	 0.085199
H	 1.5122717446	 0.103330209	 1.7263007991	 0.101012
92.4152	135.4109	160.0059	208.3893	263.8277	303.1411	364.0466	398.4298	515.1441	546.0492	624.5904	712.234	770.9118	821.5414	844.2957	936.6368	962.0502	983.079	1010.0733	1033.2583	1057.6741	1086.296	1139.6073	1147.5025	1160.1316	1188.2892	1218.6971	1223.7422	1265.8261	1280.6063	1327.097	1355.0964	1364.3793	1396.5969	1454.8997	1491.8449	1498.8823	1500.2541	2358.9446	2927.9932	2963.8295	3011.0417	3065.377	3078.6073	3084.9696	3105.2328	3108.9763	3571.4639
CN1C2CNC2C1C#N	CN1[C@H]2CN[C@H]2[C@H]1C#N	
InChI=1S/C6H9N3/c1-9-4(2-7)6-5(9)3-8-6/h4-6,8H,3H2,1H3	InChI=1S/C6H9N3/c1-9-4(2-7)6-5(9)3-8-6/h4-6,8H,3H2,1H3/t4-,5+,6+/m1/s1
