19
gdb 91613	2.18005	1.97438	1.44369	4.2299	73.99	-0.2278	-0.0054	0.2223	978.7695	0.161418	-423.063403	-423.055892	-423.054948	-423.095265	30.325	
O	-0.0203026095	 1.4313766072	-0.0540317283	-0.42746
C	 0.0250815868	 0.0169988994	 0.0066434324	 0.127671
C	 0.659009526	-0.55582314	 1.31851861	-0.251795
C	-0.50811929	-1.3302881861	 1.9675950318	-0.016202
C	-1.211418358	-1.9091142983	 0.7126722905	-0.244291
C	-1.4223061373	-0.5360443622	 0.0336782686	-0.13715
C	-2.1589406654	 0.2142352274	 1.1495733586	 0.446506
O	-3.057975456	 1.0015730099	 1.0346811245	-0.329056
C	-1.5553295569	-0.3126333772	 2.4663729621	-0.328355
H	 0.8825129271	 1.7620441576	-0.0903077813	 0.285408
H	 0.5418739024	-0.3862691282	-0.8759249837	 0.073162
H	 1.4975604558	-1.2219564011	 1.0938298827	 0.095946
H	 1.0318638858	 0.2557725872	 1.950715531	 0.099049
H	-0.2013479988	-2.0586674534	 2.7196826703	 0.066925
H	-0.5713076718	-2.5797438967	 0.1314731058	 0.101302
H	-2.149609165	-2.4262264885	 0.9350623226	 0.106717
H	-1.9366311912	-0.495675932	-0.9248375249	 0.082418
H	-2.3473742941	-0.7895004001	 3.0549455945	 0.123704
H	-1.1469247098	 0.5065099051	 3.0650551226	 0.125502
95.302	135.3701	286.6769	335.1806	388.5911	420.0742	441.2665	486.5464	514.568	611.4366	668.7777	766.5324	799.1606	819.9429	872.9325	913.9277	921.3193	940.7311	960.8263	970.3805	1017.9147	1060.6379	1077.4536	1098.8174	1134.9375	1150.4398	1176.0017	1202.8967	1216.8011	1251.8954	1266.9262	1295.1879	1309.0429	1323.5215	1343.7081	1359.5463	1417.442	1450.0193	1485.4867	1508.4231	1863.1454	2988.7599	3047.7366	3048.3681	3052.8458	3093.8887	3099.0116	3101.1606	3101.472	3138.2693	3823.0277
OC1CC2CC1C(=O)C2	O[C@H]1C[C@@H]2C[C@H]1C(=O)C2	
InChI=1S/C7H10O2/c8-6-2-4-1-5(6)7(9)3-4/h4-6,8H,1-3H2	InChI=1S/C7H10O2/c8-6-2-4-1-5(6)7(9)3-4/h4-6,8H,1-3H2/t4-,5+,6-/m0/s1
