17
gdb 107562	2.68698	1.63645	1.15301	1.7264	69.4	-0.2253	0.0193	0.2445	1053.6974	0.137187	-455.136668	-455.128603	-455.127659	-455.168998	31.342	
N	-0.1097072953	 1.3122322264	 0.3210198325	-0.580879
C	-0.0875761433	-0.0341068309	 0.0987702667	 0.347205
N	-1.103886585	-0.7577763112	-0.2006570908	-0.314945
C	-0.686372481	-2.1659551289	-0.2163316113	-0.189268
C	 0.8207614491	-2.1854137839	 0.0136976641	-0.055382
O	 1.5457465493	-1.4555448121	-0.9872969807	-0.301771
C	 1.2099667581	-0.7905571038	 0.258110983	 0.31561
C	 2.3757617012	-0.255052856	 1.0352488507	-0.19418
O	 2.8797893202	 0.9312398438	 0.4209190167	-0.414924
H	 0.7654499212	 1.8011527714	 0.204160307	 0.264767
H	-0.9516709377	 1.7985291943	 0.0538866254	 0.257298
H	-1.20435809	-2.7269975975	 0.5730709533	 0.107271
H	-0.9515241532	-2.6330286368	-1.1722892248	 0.119674
H	 1.3399760155	-3.0402168884	 0.4393342637	 0.100318
H	 2.0667481646	 0.0356727458	 2.0435469781	 0.129386
H	 3.1548792385	-1.0242325491	 1.1165759616	 0.110486
H	 3.1714334178	 0.6825257471	-0.4642981652	 0.299335
108.996	151.9133	224.9589	264.7759	297.0463	360.1209	406.3293	453.18	466.509	519.5824	573.4583	648.9147	706.4105	719.0402	785.1532	814.815	895.1292	949.2035	974.4675	992.3432	1008.1434	1039.8943	1092.568	1165.7432	1182.629	1211.8624	1241.0532	1275.0357	1325.627	1362.3235	1415.2006	1434.8115	1449.2638	1478.1939	1485.3145	1621.0147	1717.9914	3019.2734	3021.8681	3058.7307	3096.0121	3149.6654	3565.8631	3691.7093	3795.9092
NC1=NCC2OC12CO	NC1=NC[C@H]2O[C@@]12CO	
InChI=1S/C5H8N2O2/c6-4-5(2-8)3(9-5)1-7-4/h3,8H,1-2H2,(H2,6,7)	InChI=1S/C5H8N2O2/c6-4-5(2-8)3(9-5)1-7-4/h3,8H,1-2H2,(H2,6,7)/t3-,5-/m1/s1
