15
gdb 5089	3.37766	1.97424	1.26238	0.8497	64.67	-0.1783	0.0411	0.2194	924.9676	0.118259	-399.820741	-399.812437	-399.811493	-399.853124	30.07	
C	-0.0403740973	 1.5160614243	 0.0086393064	-0.505773
C	 0.0126310264	 0.0221932093	-0.0046536422	 0.177926
C	-0.0089063638	-0.8144376882	-1.072426011	-0.13145
O	 0.0457475047	-2.1286322688	-0.6657357669	-0.177001
C	 0.0984925856	-2.1226911633	 0.6860963897	 0.318275
N	 0.2207218439	-3.3502736534	 1.3259118064	-0.600225
C	 0.0812135907	-0.8409312558	 1.1484670613	 0.056027
O	 0.0313711207	-0.4848514755	 2.4787225515	-0.45168
H	 0.8799043916	 1.9531838695	 0.4160148871	 0.119125
H	-0.1758277528	 1.9160454869	-0.9996592648	 0.126336
H	-0.8664736205	 1.8769734126	 0.6314522332	 0.135224
H	-0.0641793459	-0.6606924927	-2.1365755467	 0.127462
H	-0.4348330767	-4.0403075135	 0.9754667216	 0.252176
H	 0.0958554823	-3.234243929	 2.3243532396	 0.257286
H	 0.8415538311	-0.0169944924	 2.7084838548	 0.296292
123.3327	144.9067	170.2548	224.1122	240.1177	283.0724	314.6107	340.045	527.1516	566.006	618.9146	663.5528	674.8642	726.0774	764.5928	808.6297	994.4675	1016.0734	1063.5675	1102.3221	1153.1886	1216.7805	1258.8331	1313.1878	1357.7316	1418.8769	1464.046	1481.3125	1500.1852	1618.1759	1634.9945	1714.8816	3022.8678	3072.9258	3113.4697	3282.8191	3516.0832	3616.0246	3786.7546
CC1=COC(N)=C1O	Cc1coc(N)c1O	
InChI=1S/C5H7NO2/c1-3-2-8-5(6)4(3)7/h2,7H,6H2,1H3	InChI=1S/C5H7NO2/c1-3-2-8-5(6)4(3)7/h2,7H,6H2,1H3
