21
gdb 101081	2.54216	1.09545	0.88532	3.2899	78.88	-0.2516	-0.0246	0.227	1368.7721	0.180246	-424.220782	-424.210667	-424.209723	-424.255849	37.202	
C	 0.3396359178	 1.2438624319	 0.5974718801	-0.434959
C	-0.0871322749	-0.1053682548	 0.0111461012	-0.094613
C	-1.6167583249	-0.1723330975	-0.1806615082	-0.064846
O	-2.3445830134	-0.0574973974	 1.030714921	-0.41979
C	 0.6013800853	-0.4889034376	-1.2988230774	 0.255111
C	 0.5749417484	 0.4267951934	-2.5196913014	-0.285136
C	 1.8664853614	 0.2022221404	-1.8162792133	-0.302805
C	 0.5622382513	-1.9469368814	-1.6214092499	 0.096773
O	 0.9424649984	-2.4352397614	-2.6591605465	-0.275944
H	 1.4013726058	 1.2555685817	 0.8562887662	 0.127693
H	 0.1489320389	 2.0722840748	-0.095070347	 0.116637
H	-0.2147144016	 1.4430801214	 1.5195743248	 0.113679
H	 0.1642985928	-0.877782994	 0.7520924172	 0.085773
H	-1.9294414774	 0.5887243139	-0.91245881	 0.091591
H	-1.8919395932	-1.1467779457	-0.599557392	 0.111879
H	-2.3525866855	 0.8675949361	 1.2913548402	 0.285939
H	 0.4244139159	-0.0645945359	-3.4740623985	 0.140618
H	 0.0873123704	 1.3884647129	-2.4052453742	 0.11717
H	 2.2799557621	 1.0046396819	-1.2182127451	 0.120398
H	 2.5920515733	-0.4476846859	-2.291536271	 0.13765
H	 0.162766109	-2.5912906966	-0.8051331459	 0.077183
65.1142	103.5048	122.3638	188.4763	225.9373	239.7311	270.0984	293.6699	310.2557	334.8509	391.3236	427.5344	476.4027	655.1209	736.4121	800.033	824.7358	856.5006	902.5598	926.4601	952.7861	988.6805	1058.0796	1066.3902	1073.2173	1088.1409	1101.2243	1108.5007	1129.0414	1206.7979	1224.1237	1261.971	1316.5698	1324.681	1381.3664	1390.7528	1409.1387	1426.3817	1434.8308	1449.8352	1483.1604	1495.094	1501.8524	1516.4596	1807.3989	2869.483	2984.648	3006.2899	3035.4675	3064.5283	3100.6017	3114.3386	3138.8945	3147.4171	3227.7098	3243.6853	3838.1755
CC(CO)C1(CC1)C=O	C[C@@H](CO)C1(CC1)C=O	
InChI=1S/C7H12O2/c1-6(4-8)7(5-9)2-3-7/h5-6,8H,2-4H2,1H3	InChI=1S/C7H12O2/c1-6(4-8)7(5-9)2-3-7/h5-6,8H,2-4H2,1H3/t6-/m0/s1
