18
gdb 63570	2.62366	1.49432	1.17459	2.6758	74.26	-0.2427	0.0155	0.2583	1093.6189	0.146523	-439.071077	-439.062469	-439.061525	-439.103996	33.023	
C	-0.1319846282	 1.515056455	-0.0834516527	-0.432371
C	 0.0335793692	 0.0178271033	-0.021970502	 0.38094
O	-1.1001745075	-0.6350621169	-0.4939134017	-0.472274
C	 1.3904080065	-0.5995852929	-0.2332778325	-0.408502
C	 0.7660697649	-0.6225401384	 1.1451324396	 0.08937
C	 1.2157725288	-0.1494890705	 2.5232091731	-0.165981
O	 0.6252389534	-1.371175301	 3.0987709102	-0.265405
C	 0.2239757989	-1.7997513156	 1.8531924818	 0.437562
N	-0.4418854923	-2.7994635375	 1.4746294253	-0.59304
H	 0.766145819	 2.0303148207	 0.2680189496	 0.112222
H	-0.3243191915	 1.8236520358	-1.1156990122	 0.137301
H	-0.9828632454	 1.8310011821	 0.5276179325	 0.129753
H	-1.1342446245	-1.5286552689	-0.1121906781	 0.305187
H	 1.4467987687	-1.5505186447	-0.7535395615	 0.13595
H	 2.2407238381	 0.0598551511	-0.3780506361	 0.11958
H	 2.2932021688	-0.1192533392	 2.7041361615	 0.126757
H	 0.7273450011	 0.7393827579	 2.9298050393	 0.128721
H	-0.7278860981	-3.4026736904	 2.2450440841	 0.23423
124.2911	129.1305	163.4708	213.8804	245.5782	317.7463	383.5839	426.6281	445.1139	485.0893	506.7317	628.5292	663.4175	758.7595	774.0183	831.1944	857.8096	900.7483	923.4412	950.8724	991.7496	1016.0981	1047.1023	1075.1661	1100.7041	1139.4649	1155.6642	1202.4517	1247.7119	1274.4592	1340.9936	1404.851	1406.7738	1454.3777	1477.0427	1486.6954	1508.25	1515.9259	1805.998	3040.7268	3060.1948	3110.545	3118.64	3120.3425	3123.6196	3216.5468	3500.9744	3643.2491
CC1(O)CC11COC1=N	C[C@@]1(O)C[C@]21CO[C]2[NH]	
InChI=1S/C6H9NO2/c1-5(8)2-6(5)3-9-4(6)7/h7-8H,2-3H2,1H3	InChI=1S/C6H9NO2/c1-5(8)2-6(5)3-9-4(6)7/h7-8H,2-3H2,1H3/t5-,6+/m1/s1
