18
gdb 35432	3.27465	1.39661	1.33722	4.1885	74.66	-0.2675	0.0208	0.2883	1020.9191	0.150316	-401.94553	-401.938285	-401.93734	-401.977204	28.803	
N	 0.7809468843	-0.7858610331	 0.9097393405	-0.337306
C	 0.3640687034	 0.192122771	 0.4559842908	 0.287862
C	-0.1903662137	 1.4293187775	-0.1400155574	-0.026691
C	-1.0975311947	 2.1832106116	 0.8805515517	-0.251957
C	-0.3160244123	 3.3390111621	 1.5228774871	-0.01871
C	 0.1568652134	 4.2986701045	 0.3925590855	-0.228521
C	 1.3065765341	 3.2833471946	 0.1829419723	 0.131516
C	 1.1790226475	 2.9310834604	 1.6886467661	-0.26989
O	 0.8643519316	 2.2220524198	-0.6698326626	-0.272173
H	-0.7875158386	 1.11038326	-1.0007432026	 0.135619
H	-1.9772760212	 2.5757644014	 0.3604983021	 0.115274
H	-1.4522736328	 1.4735211695	 1.6334029563	 0.129946
H	-0.8502482923	 3.7555423091	 2.3787398165	 0.073336
H	-0.5091196148	 4.4745701214	-0.4563119637	 0.09835
H	 0.5210573525	 5.2510134812	 0.7861053477	 0.104874
H	 2.2628802276	 3.6081729849	-0.2280470376	 0.086759
H	 1.7261462583	 3.654926934	 2.2967925162	 0.109874
H	 1.4300250277	 1.9209864499	 2.0166751111	 0.131839
97.7262	155.2226	261.3933	311.8808	397.3351	434.2462	467.108	504.259	593.262	686.6187	783.5248	810.5422	829.9562	850.116	883.6895	927.8907	941.6375	943.5258	976.5967	1033.8774	1051.1257	1090.9087	1100.3666	1126.9111	1141.0347	1193.6822	1227.7836	1247.5543	1263.1622	1290.2488	1297.2302	1343.094	1352.6855	1362.4752	1388.2668	1473.8523	1492.3322	1508.3915	2350.5432	3046.5156	3057.5484	3058.5905	3074.9925	3090.5719	3097.5486	3110.3751	3119.0849	3133.8947
N#CC1CC2CC(C2)O1	N#C[C@H]1C[C@@H]2C[C@@H](C2)O1	
InChI=1S/C7H9NO/c8-4-7-3-5-1-6(2-5)9-7/h5-7H,1-3H2	InChI=1S/C7H9NO/c8-4-7-3-5-1-6(2-5)9-7/h5-7H,1-3H2/t5-,6+,7-/m1/s1
