20
gdb 80925	2.76211	1.41592	1.27349	1.6721	79.9	-0.2346	0.0747	0.3094	1105.3159	0.170813	-403.066723	-403.058212	-403.057268	-403.099217	33.754	
C	-0.1905233807	 1.5925835813	-0.0435380363	-0.449082
C	 0.0045729439	 0.0851362119	 0.0017509203	 0.030885
C	 1.1911372301	-0.6205244984	-0.7544195	-0.181009
C	 2.1594960582	-0.1014401123	 0.3555925638	-0.311035
C	 0.8695340469	-0.5971704668	 1.1023238175	 0.327868
O	 0.5799941556	-0.5672814448	 2.448912686	-0.476698
C	 0.9238788245	-1.8195473095	 0.1673963871	 0.378018
C	 0.177132835	-3.0750241627	 0.0599713808	-0.358272
N	 1.6380691179	-3.0554054976	 0.4027639134	-0.421648
H	 0.7344764359	 2.159053277	 0.0851669104	 0.11952
H	-0.6323075639	 1.8908203516	-1.0005304925	 0.114772
H	-0.8805743534	 1.9037723707	 0.7477859396	 0.128413
H	-0.9551581612	-0.4205653815	-0.152675236	 0.069027
H	 1.3685270655	-0.6357238667	-1.8278787082	 0.077362
H	 3.0644774491	-0.6913557984	 0.5181658382	 0.097754
H	 2.3717897876	 0.9669480378	 0.3754598593	 0.096471
H	 1.1501229215	-1.2107590804	 2.8865298681	 0.291454
H	-0.4686688648	-3.4109282122	 0.8670185202	 0.122476
H	-0.1093669013	-3.4312838285	-0.9265845533	 0.113712
H	 2.1842556735	-3.3272021505	-0.4120620483	 0.230012
165.6635	171.6772	178.8781	201.0124	239.839	305.6383	359.7968	403.5092	465.3446	483.1229	599.5664	659.8309	684.5968	741.9608	805.2721	831.9688	886.7446	930.2884	939.1161	957.0563	967.2227	1000.4383	1038.4972	1053.5246	1070.277	1103.2627	1111.1936	1134.8059	1151.8275	1173.1057	1202.1793	1214.9912	1247.0558	1256.3029	1302.8894	1367.2004	1410.2684	1423.2507	1453.1434	1495.6211	1499.7255	1517.8357	1544.966	3037.0769	3044.3987	3075.249	3095.4693	3103.4521	3121.018	3138.6939	3148.181	3186.8978	3485.178	3792.0163
CC1C2CC1(O)C21CN1	C[C@H]1[C@H]2C[C@]1(O)[C@]12CN1	
InChI=1S/C7H11NO/c1-4-5-2-7(4,9)6(5)3-8-6/h4-5,8-9H,2-3H2,1H3	InChI=1S/C7H11NO/c1-4-5-2-7(4,9)6(5)3-8-6/h4-5,8-9H,2-3H2,1H3/t4-,5+,6+,7+/m0/s1
