16
gdb 114167	4.28775	0.99577	0.88969	3.836	70.97	-0.2696	-0.0133	0.2563	1272.2915	0.123847	-437.844099	-437.835882	-437.834938	-437.877243	30.495	
O	-0.0517694223	 1.3796731902	-0.2579876024	-0.414058
C	 0.0486478762	 0.0327198868	 0.1579141861	-0.08521
C	-1.3067636046	-0.644858335	 0.0940070293	 0.108635
O	-1.8571017425	-0.6184246352	-1.2679873236	-0.343169
C	-2.1279756732	-2.0191598475	-1.1984842607	 0.356865
C	-0.8581224878	-2.8120608968	-1.0736650817	-0.336389
C	-1.4457283475	-2.1657241492	 0.1575870073	-0.203323
C	-3.3696468534	-2.5144715972	-1.6993276193	 0.219006
N	-4.370260749	-2.9304111424	-2.1045625718	-0.341646
H	-0.4219880714	 1.3700410236	-1.1486453156	 0.298793
H	 0.7826334613	-0.5255478502	-0.4414902893	 0.092812
H	 0.4030266782	 0.0431989399	 1.1946274284	 0.119557
H	-2.0134158842	-0.1391122675	 0.7610006615	 0.111626
H	-0.9775178883	-3.8896607959	-1.110786064	 0.147893
H	 0.03327851	-2.425204219	-1.5559843133	 0.137351
H	-1.7680468516	-2.7344608646	 1.0181040491	 0.131256
86.5863	109.6716	142.3805	218.8541	264.8264	399.5925	417.4925	450.2373	493.6733	532.0001	575.5387	620.0219	737.5033	855.8523	857.6758	900.9703	952.0807	1002.6187	1010.174	1028.4096	1059.8838	1081.2112	1100.5065	1122.0474	1167.1394	1220.9261	1272.5873	1294.637	1346.7538	1366.3402	1402.9714	1435.5052	1474.0742	1497.4407	2351.3151	2998.8901	3055.4072	3076.9404	3135.2567	3220.2857	3230.1746	3796.0082
OCC1OC2(CC12)C#N	OC[C@H]1O[C@]2(C[C@@H]12)C#N	
InChI=1S/C6H7NO2/c7-3-6-1-4(6)5(2-8)9-6/h4-5,8H,1-2H2	InChI=1S/C6H7NO2/c7-3-6-1-4(6)5(2-8)9-6/h4-5,8H,1-2H2/t4-,5+,6+/m0/s1
