19
gdb 100928	2.52427	0.99607	0.83422	2.1774	68.3	-0.2429	-0.0181	0.2249	1412.389	0.155926	-497.288877	-497.278195	-497.277251	-497.325104	37.27	
O	-0.0680170929	 1.3457666279	-0.1837743715	-0.434751
C	 0.0266944647	-0.0466710615	 0.1206181401	-0.123213
C	-1.3866327154	-0.6019471223	-0.0517613923	 0.119191
O	-1.8821857172	-0.2758548367	-1.3416115679	-0.450872
C	-1.4644969294	-2.1282182808	 0.109784959	-0.082024
C	-2.9089696455	-2.607357055	 0.2054560831	-0.111528
O	-2.8619635252	-4.0123366804	 0.4117296626	-0.425196
C	-0.7567901153	-2.8192327844	-1.0547182618	 0.194529
O	 0.440482475	-2.9137248092	-1.149643121	-0.26988
H	 0.8053780217	 1.6651099822	-0.4249097467	 0.297863
H	 0.7159593355	-0.5599025668	-0.558135378	 0.129009
H	 0.3698825091	-0.2051054495	 1.153384665	 0.095228
H	-2.0212056979	-0.1376870964	 0.7231413756	 0.074249
H	-1.5914942824	 0.6322012103	-1.500868647	 0.291674
H	-0.9332560404	-2.4105006046	 1.0265400608	 0.107521
H	-3.4197956763	-2.0935157225	 1.0338101922	 0.093013
H	-3.4389342408	-2.3503312241	-0.7230840767	 0.114474
H	-3.7519947374	-4.3649237649	 0.3220135889	 0.291551
H	-1.4284729801	-3.2307960513	-1.8369751643	 0.089161
70.006	85.7471	97.1207	122.2342	167.3719	222.6649	250.4344	256.8866	279.5895	296.1545	351.563	413.4009	501.7988	530.64	567.4223	646.5886	857.9333	898.9556	966.3059	995.0477	1010.1847	1060.6904	1078.2829	1088.0192	1133.3893	1144.5168	1211.548	1231.8106	1244.0674	1269.272	1271.8939	1309.8414	1346.2959	1390.6111	1412.3308	1438.0768	1451.8812	1458.7498	1513.2547	1526.3944	1826.4059	2911.1988	2948.7422	2984.6999	3000.5391	3022.8929	3054.6468	3081.2052	3760.8874	3834.0749	3849.3312
OCC(O)C(CO)C=O	OC[C@@H](O)[C@@H](CO)C=O	
InChI=1S/C5H10O4/c6-1-4(2-7)5(9)3-8/h1,4-5,7-9H,2-3H2	InChI=1S/C5H10O4/c6-1-4(2-7)5(9)3-8/h1,4-5,7-9H,2-3H2/t4-,5-/m1/s1
