13
gdb 26060	3.27477	1.25664	1.03057	4.4763	63.54	-0.2713	-0.0296	0.2417	1106.6765	0.08994	-452.772319	-452.764605	-452.763661	-452.805558	27.268	
O	 0.2216562147	 1.4760335791	-0.1262075543	-0.394837
C	 0.0521443908	 0.0935730458	 0.016046592	-0.100261
C	 0.5294015006	-0.6479197086	-1.1809434597	 0.264976
N	 0.8958834405	-1.2228205617	-2.1131147009	-0.310747
C	 0.7728551266	-0.4004963474	 1.2434688772	 0.391188
N	 1.6793804465	 0.2585883991	 1.8853189587	-0.320546
C	 2.0609772249	-0.598514782	 2.9128152097	-0.102891
C	 1.344330642	-1.7413425925	 2.8160249766	-0.037554
O	 0.5052710469	-1.6232465067	 1.738014476	-0.167145
H	 1.0619155539	 1.7014024879	 0.300281861	 0.31187
H	-1.0208264257	-0.1142160697	 0.1170048376	 0.159863
H	 2.8133771352	-0.3245905652	 3.6340926247	 0.142727
H	 1.289142643	-2.6627830582	 3.3685951614	 0.163356
45.9555	101.2171	190.9322	226.7324	292.0726	367.5675	428.5133	477.5357	603.1814	628.1912	707.4511	773.6734	823.0824	870.0799	924.6932	932.8743	990.8439	1091.0962	1105.5693	1144.611	1169.2452	1225.594	1299.1416	1337.209	1384.2504	1451.482	1551.6009	1619.0149	2359.4844	3039.4812	3274.5854	3309.1849	3733.0472
OC(C#N)C1=NC=CO1	O[C@@H](C#N)c1ncco1	
InChI=1S/C5H4N2O2/c6-3-4(8)5-7-1-2-9-5/h1-2,4,8H	InChI=1S/C5H4N2O2/c6-3-4(8)5-7-1-2-9-5/h1-2,4,8H/t4-/m0/s1
