19
gdb 41633	2.7179	1.88563	1.54005	2.2684	72.97	-0.2462	0.0626	0.3087	931.3476	0.162388	-422.997501	-422.990649	-422.989704	-423.028896	27.509	
C	 0.3213958304	 1.5924411652	-0.2095768786	-0.086104
O	 1.4827340219	 1.4186186309	 0.6352855835	-0.285961
C	 1.2876984559	-0.0115499561	 0.6986637804	 0.114373
C	-0.0308365027	 0.0909195342	-0.1240001535	-0.068811
C	 0.1199402639	-0.7780211742	-1.3794294279	-0.259738
C	 1.6099644592	-1.0961130841	-1.4943508409	 0.13058
O	 2.3966950021	-0.0451526436	-2.1088388334	-0.301019
C	 3.2844971752	-0.0019232356	-0.9645742721	-0.077684
C	 2.3001668425	-0.8389167956	-0.1288318046	-0.111749
H	-0.4018158956	 2.2805109186	 0.2430383468	 0.099809
H	 0.5940534544	 1.9502846617	-1.2085357051	 0.115503
H	 1.2273080314	-0.3484302467	 1.7385108561	 0.074249
H	-0.952878328	-0.1110738431	 0.4224435526	 0.077964
H	-0.4380909869	-1.714527823	-1.2624984314	 0.100288
H	-0.2484488275	-0.2905101307	-2.2880768589	 0.117179
H	 1.8085483606	-2.0614315231	-1.9770491491	 0.069639
H	 4.2325622536	-0.5137899706	-1.1741320676	 0.091955
H	 3.466415633	 1.0189604865	-0.6236567457	 0.127472
H	 2.7022425267	-1.6893576807	 0.4230004995	 0.072054
102.5337	134.2839	303.8457	331.1227	358.7553	499.6356	605.3355	664.7858	748.4838	798.8505	829.5369	846.5091	881.541	892.5484	912.4058	954.4471	979.1724	995.5728	1019.8154	1023.1896	1066.7198	1085.6175	1099.6564	1102.5804	1166.9572	1175.965	1190.8486	1202.4703	1232.5298	1263.9542	1270.9158	1306.7888	1313.3955	1325.5746	1348.8428	1368.8054	1369.6778	1380.5778	1466.8279	1509.9435	1518.4516	3015.0071	3021.0802	3025.0338	3040.9573	3048.3044	3073.6687	3085.6503	3100.9562	3105.1926	3114.8416
C1OC2C1CC1OCC21	C1O[C@H]2[C@@H]1C[C@H]1OC[C@@H]21	
InChI=1S/C7H10O2/c1-4-2-9-7(4)5-3-8-6(1)5/h4-7H,1-3H2	InChI=1S/C7H10O2/c1-4-2-9-7(4)5-3-8-6(1)5/h4-7H,1-3H2/t4-,5-,6-,7+/m1/s1
