19
gdb 12542	3.39978	1.77869	1.24265	2.2825	72.86	-0.2375	0.0225	0.2601	994.8424	0.167037	-365.074247	-365.066375	-365.065431	-365.106537	29.495	
C	 0.0181357911	 1.5853939046	-0.0209371326	-0.39931
C	-0.0059440673	 0.0509012342	-0.0228151034	 0.006958
C	 0.7769930623	-0.5175914776	-1.2098275997	-0.201162
C	 0.5359761127	-2.0014534933	-1.4424124849	-0.072937
O	 1.1175870471	-2.8947506073	-0.4894913231	-0.227262
C	 0.7938327319	-2.8381035096	 0.83263549	 0.118455
N	 0.5031865739	-1.894086449	 1.6126613624	-0.257312
C	 0.5265868077	-0.4735197943	 1.3216311479	-0.137146
H	 1.0440271052	 1.9631853547	 0.0619091823	 0.11617
H	-0.4103827229	 1.9886925432	-0.943914666	 0.112228
H	-0.553965039	 1.9914984366	 0.8193814993	 0.116914
H	-1.0513933629	-0.2769963344	-0.1207157454	 0.075729
H	 0.4757906139	 0.000725858	-2.1296182539	 0.098488
H	 1.8523413024	-0.3338957748	-1.0825611614	 0.103666
H	-0.5452439158	-2.1967302642	-1.4864769024	 0.104879
H	 0.972010585	-2.3139465682	-2.3949383494	 0.114734
H	 0.8631695462	-3.8484223303	 1.2401303084	 0.11408
H	 1.5703234648	-0.1369103346	 1.4305217607	 0.109174
H	-0.0284407163	 0.0220925462	 2.1266484313	 0.103654
82.1133	117.7147	210.4163	266.7039	305.8217	320.2195	403.2509	414.5501	500.0136	542.7114	733.9483	819.5815	840.029	888.2635	942.3524	956.3388	971.062	990.9373	1006.153	1054.8175	1103.571	1149.1564	1157.6977	1188.3369	1231.1122	1299.2291	1302.3193	1337.8538	1357.3614	1378.0218	1404.0504	1413.0174	1426.2776	1440.4356	1469.0194	1486.7566	1497.3669	1497.6086	1502.0734	1767.0146	2980.978	2999.4828	3005.6461	3015.7744	3028.4046	3045.942	3058.6126	3093.4154	3094.4323	3103.1802	3119.8343
CC1CCOC=NC1	C[C@H]1CCOC=NC1	
InChI=1S/C6H11NO/c1-6-2-3-8-5-7-4-6/h5-6H,2-4H2,1H3	InChI=1S/C6H11NO/c1-6-2-3-8-5-7-4-6/h5-6H,2-4H2,1H3/t6-/m0/s1
