14
gdb 128642	2.85588	1.43545	0.96111	4.6358	66.6	-0.2618	-0.0495	0.2124	1143.1487	0.101774	-470.035081	-470.027116	-470.026172	-470.068228	27.474	
C	 0.025717275	 1.3634222285	 0.0072412896	-0.244934
O	-0.0415193034	-0.0735757474	 0.0034708602	-0.265692
C	-1.2622849862	-0.5821721678	 0.0111063801	 0.545296
N	-2.4076160357	 0.0434230728	 0.0215716457	-0.386211
C	-3.3041841318	-1.0041734241	 0.0251406682	 0.05371
N	-2.7938694933	-2.208650232	 0.0177212318	-0.218084
N	-1.438965911	-1.9475240341	 0.0083140664	-0.133112
C	-0.4479704596	-2.9422868313	-0.0021666568	 0.177603
O	-0.6704949321	-4.1173446359	-0.0040576691	-0.253405
H	 1.0881334461	 1.6034835794	-0.0003896598	 0.147271
H	-0.4698410216	 1.7671378083	-0.8786207063	 0.155632
H	-0.4558131023	 1.7617951626	 0.9032059093	 0.155614
H	-4.3724595721	-0.8445665962	 0.0336112325	 0.143194
H	 0.5549186582	-2.4849238128	-0.0083335317	 0.123117
90.4465	144.9261	150.1947	171.1096	226.3811	266.7303	355.1264	413.7049	590.9051	668.9406	731.4056	750.6243	839.6078	925.69	964.6867	1022.1113	1032.149	1143.4942	1181.0057	1193.051	1228.1268	1290.8073	1337.6989	1394.0742	1449.8111	1458.6202	1480.4364	1497.1532	1552.5839	1633.1597	1848.1247	3015.0495	3057.2356	3137.6538	3171.2217	3259.6291
COC1=NC=NN1C=O	COc1ncnn1C=O	
InChI=1S/C4H5N3O2/c1-9-4-5-2-6-7(4)3-8/h2-3H,1H3	InChI=1S/C4H5N3O2/c1-9-4-5-2-6-7(4)3-8/h2-3H,1H3
