18
gdb 67864	2.60369	1.64989	1.39977	2.4946	77.63	-0.2298	-0.0261	0.2037	1004.2989	0.147446	-401.95417	-401.946197	-401.945252	-401.986548	30.726	
C	-0.2388863197	 1.4736382699	 0.0796979648	-0.440554
C	 0.0312922596	-0.0179426524	-0.0755791865	 0.153543
C	-1.2012154468	-0.8761824729	-0.2191974537	-0.120118
C	-1.2465324859	-1.8068591007	 0.7327930656	-0.075187
C	-0.0441576986	-1.7157746905	 1.643866914	-0.234084
N	 0.8188780621	-0.6921668335	 1.0278473939	-0.130784
C	 1.8310906398	-1.2178911165	 0.0715385296	-0.302126
C	 1.1733855483	-0.4002684104	-1.046824543	 0.361456
O	 1.4400405312	-0.1312459705	-2.1789426175	-0.293193
H	 0.6901185464	 2.0164148482	 0.2736011661	 0.12666
H	-0.6856518953	 1.8708696228	-0.8374212907	 0.130569
H	-0.9279316263	 1.6558835083	 0.9098250351	 0.124187
H	-1.9440313998	-0.7032469878	-0.9882711457	 0.111506
H	-2.0466447023	-2.5238536091	 0.877888766	 0.105762
H	-0.3362336552	-1.4329724632	 2.6652714642	 0.114653
H	 0.5006146816	-2.6657204146	 1.7317571603	 0.110763
H	 2.865494485	-0.9490281589	 0.3104179151	 0.133312
H	 1.7816485259	-2.3020801583	-0.1056737676	 0.123636
90.9645	164.4616	179.8502	225.4857	288.7837	315.7555	444.7253	501.4845	540.0243	614.7576	637.2007	723.894	748.3663	788.5932	828.6055	915.2768	940.6439	950.1541	963.7869	968.031	1033.7515	1049.5264	1080.3828	1112.6019	1155.8846	1177.3393	1193.4592	1211.5362	1234.2593	1269.037	1328.6937	1349.2926	1399.6374	1460.1208	1481.2447	1489.7174	1501.7462	1666.8613	1905.2428	2999.6207	3005.0594	3028.9368	3038.4148	3070.3596	3113.0993	3119.8317	3194.036	3220.6862
CC12C=CCN1CC2=O	C[C@]12C=CCN1CC2=O	
InChI=1S/C7H9NO/c1-7-3-2-4-8(7)5-6(7)9/h2-3H,4-5H2,1H3	InChI=1S/C7H9NO/c1-7-3-2-4-8(7)5-6(7)9/h2-3H,4-5H2,1H3/t7-/m1/s1
