18
gdb 126179	4.02289	0.96551	0.86142	1.3882	73.37	-0.2604	-0.0111	0.2492	1364.7759	0.148935	-435.273237	-435.264337	-435.263393	-435.30797	32.028	
C	-0.0442378811	 1.5887926249	 0.0606344117	-0.385945
C	-0.0758556108	 0.0685117306	 0.2221118063	-0.173387
C	-1.4485228593	-0.5328969883	-0.1430557969	 0.005823
O	-1.8198873146	-0.2057000776	-1.4720137046	-0.432444
C	-1.4635606337	-2.0222492808	 0.073329855	 0.324733
N	-1.255553155	-2.8561472563	-0.9477717172	-0.301977
N	-1.300458464	-4.0569035792	-0.3841415164	-0.067588
N	-1.5220691775	-4.0875966185	 0.9201764283	-0.192285
C	-1.6277830614	-2.79621313	 1.2371621477	-0.136952
H	 0.9510667123	 1.9876025365	 0.2776869101	 0.109555
H	-0.3153126161	 1.8679828603	-0.9604184227	 0.136369
H	-0.7542995977	 2.0733779077	 0.7404827403	 0.111414
H	 0.6812626393	-0.4001980806	-0.4194777884	 0.099084
H	 0.1699670956	-0.2144546329	 1.2536228925	 0.094187
H	-2.207895658	-0.0765761243	 0.5064367126	 0.091973
H	-1.4860754695	-0.9098683686	-2.0408844756	 0.29536
H	-1.1926512241	-4.900594689	-0.9235084182	 0.295175
H	-1.8166259945	-2.4893187536	 2.2534172955	 0.126904
28.5211	102.5335	122.412	210.6046	244.7472	283.0011	304.3825	359.0069	434.5665	511.9885	513.572	717.9495	727.0236	767.5753	808.7181	880.5317	901.5687	991.7584	999.6838	1035.8887	1067.7218	1120.1667	1124.7606	1162.9675	1202.3964	1232.4503	1268.9753	1293.59	1337.0207	1355.1606	1378.8127	1406.6611	1414.6892	1433.9167	1476.1496	1491.2711	1496.6855	1510.2391	1561.5089	3015.3275	3023.3058	3036.5159	3061.3563	3101.7577	3127.6656	3270.5051	3669.8062	3787.4656
CCC(O)C1=NNN=C1	CC[C@@H](O)c1n[nH]nc1	
InChI=1S/C5H9N3O/c1-2-5(9)4-3-6-8-7-4/h3,5,9H,2H2,1H3,(H,6,7,8)	InChI=1S/C5H9N3O/c1-2-5(9)4-3-6-8-7-4/h3,5,9H,2H2,1H3,(H,6,7,8)/t5-/m1/s1
