19
gdb 93744	1.99152	1.63809	0.99304	2.2546	88.16	-0.2256	-0.0182	0.2074	1225.5407	0.157652	-385.884058	-385.874535	-385.873591	-385.91829	35.481	
C	 0.0431207162	 1.4741203922	 0.0611394493	-0.511262
C	 0.0824280733	-0.0155156463	-0.0312978226	 0.223503
C	-0.0391610649	-0.759851104	-1.1495753424	 0.040231
C	-0.2256991007	-0.2761464909	-2.4669267589	 0.227045
C	-0.3965725173	 0.1046324331	-3.5981129062	-0.426891
C	 0.1398087717	-2.2460486875	-0.8646749848	 0.026838
O	 1.3604948362	-2.7471477496	-1.4024170104	-0.425503
C	 0.0488788717	-2.3182977312	 0.6807051963	-0.247011
C	 0.2936869133	-0.8800806429	 1.1898461222	-0.299872
H	 0.9701594726	 1.8621727061	 0.5026600771	 0.129068
H	-0.0942532667	 1.9339393534	-0.9198404598	 0.14138
H	-0.7723680008	 1.802535801	 0.7180761391	 0.131083
H	-0.5406104612	 0.4406116714	-4.594810192	 0.188319
H	-0.6317051314	-2.8546474255	-1.3450505816	 0.090963
H	 2.0575047459	-2.1212775561	-1.176325523	 0.275385
H	-0.9527231859	-2.6483620845	 0.9719215606	 0.108613
H	 0.7614408213	-3.0503777785	 1.0673516382	 0.108273
H	 1.3066151279	-0.7334522718	 1.5918385842	 0.10953
H	-0.3881121911	-0.6034112985	 2.0031153345	 0.110309
72.0247	132.8345	139.3691	156.4254	176.4285	293.5166	304.0505	385.8572	397.7225	411.0789	506.585	564.3407	576.0056	624.858	635.4685	674.2261	781.8302	799.4119	906.5067	923.4208	981.3691	1019.275	1038.7741	1061.7914	1094.1898	1159.5809	1175.0571	1216.366	1250.5198	1274.7148	1301.8775	1332.4783	1350.6037	1410.7259	1430.8856	1475.3273	1479.0996	1481.836	1493.5229	1685.6477	2217.0262	3005.944	3018.8873	3043.5336	3059.4532	3063.83	3075.173	3112.7857	3126.9367	3503.2092	3798.8408
CC1=C(C#C)C(O)CC1	CC1=C(C#C)[C@@H](O)CC1	
InChI=1S/C8H10O/c1-3-7-6(2)4-5-8(7)9/h1,8-9H,4-5H2,2H3	InChI=1S/C8H10O/c1-3-7-6(2)4-5-8(7)9/h1,8-9H,4-5H2,2H3/t8-/m0/s1
