18
gdb 19659	4.3761	1.98239	1.86647	1.7706	69.92	-0.2364	0.0899	0.3263	793.2537	0.156165	-347.762598	-347.756404	-347.75546	-347.792573	25.751	
C	-0.2164518575	 1.6300231861	-0.0422100214	-0.429733
C	 0.0370183679	 0.1291879268	-0.0015612506	 0.036741
C	 1.0953403392	-0.5752305781	-0.9067658388	-0.111992
C	 2.4126594967	 0.1246499275	-0.5204645736	-0.211434
C	 2.3656514093	-0.3873203888	 0.9325105842	 0.06863
O	 2.5000707648	-1.8267017876	 0.7144007773	-0.29654
C	 1.1636567559	-1.7268115105	 0.2156829851	 0.113092
C	 0.8023819374	-0.5540810119	 1.1471713685	-0.092344
H	 0.6842911428	 2.2178134013	 0.1542191083	 0.116944
H	-0.610299961	 1.9378872841	-1.017343811	 0.11691
H	-0.9574534271	 1.9106981741	 0.7144183762	 0.116598
H	-0.9193320307	-0.3979996028	-0.1129717963	 0.072867
H	 0.8992004806	-0.7852366993	-1.9569936297	 0.06299
H	 3.2926505655	-0.2747841761	-1.0282870689	 0.107473
H	 2.3855627159	 1.2091998588	-0.637995801	 0.096566
H	 3.0445923464	 0.008091146	 1.6863670506	 0.078756
H	 0.6258090567	-2.6649353496	 0.0891659438	 0.083005
H	 0.4332335772	-0.6755185101	 2.1645251375	 0.071472
176.9568	214.9414	286.3272	462.0796	523.777	546.073	658.5489	719.0866	739.6649	796.2221	838.9368	853.6076	903.7569	922.086	931.2971	944.3535	974.1502	998.4292	1026.7163	1060.2319	1069.9015	1082.9011	1122.8569	1156.9735	1167.2819	1169.2599	1207.8211	1220.7411	1248.6876	1263.42	1315.6086	1317.0335	1333.9798	1399.4743	1413.9621	1480.2562	1495.8973	1508.7847	3022.8972	3032.9473	3079.137	3090.901	3110.4646	3124.2075	3127.3788	3131.3962	3134.8607	3142.4562
CC1C2CC3OC2C13	C[C@H]1[C@H]2C[C@@H]3O[C@H]2[C@H]13	
InChI=1S/C7H10O/c1-3-4-2-5-6(3)7(4)8-5/h3-7H,2H2,1H3	InChI=1S/C7H10O/c1-3-4-2-5-6(3)7(4)8-5/h3-7H,2H2,1H3/t3-,4+,5-,6+,7+/m0/s1
