14
gdb 24530	3.97814	1.7157	1.19872	6.0296	81.52	-0.1961	-0.0801	0.116	942.3741	0.105611	-395.768386	-395.762445	-395.761501	-395.79851	24.314	
N	-0.0042900043	 1.3646881682	 0.009897028	-0.384691
C	 1.1678677915	 2.0394106254	 0.0020255965	-0.023643
C	 2.3661801468	 1.3503841293	-0.0134658848	-0.069734
N	 2.4498005961	 0.0001915963	-0.0215699533	-0.32013
C	 1.3116490152	-0.6581811168	-0.0139425348	 0.290489
C	 0.9970240945	-2.0457511544	-0.0182210791	-0.132159
N	-0.3163047755	-2.2264229837	-0.0064441661	-0.221954
C	-0.9527359422	-0.9963920623	 0.006434828	-0.184345
C	-0.0154427577	 0.0001896599	 0.0026415243	 0.300911
H	-0.8740403408	 1.8796534276	 0.0212063731	 0.279551
H	 1.1093177526	 3.1193208682	 0.0084239261	 0.143268
H	 3.2968464893	 1.9054807497	-0.019608674	 0.119517
H	 1.6947525793	-2.8712086312	-0.0294452427	 0.109108
H	-2.0308605948	-0.9315804461	 0.0173349686	 0.093811
213.9734	246.5956	413.0793	436.1634	550.0947	575.1626	610.5889	650.2368	707.1489	744.9293	762.8749	772.6818	815.2271	843.8613	868.0947	914.1929	916.0203	1071.0443	1079.4653	1140.4976	1198.5556	1253.1727	1281.6482	1324.4641	1338.0851	1386.0634	1472.7409	1505.9102	1514.8307	1622.8075	1638.0429	3197.54	3229.8258	3231.9491	3233.69	3596.3944
N1C=CN=C2C=NC=C12	[nH]1ccnc2cncc12	
InChI=1S/C6H5N3/c1-2-9-6-4-7-3-5(6)8-1/h1-4,8H	InChI=1S/C6H5N3/c1-2-9-6-4-7-3-5(6)8-1/h1-4,8H
