23
gdb 78468	3.09708	1.38434	1.36875	0.0592	88.01	-0.2492	0.0898	0.339	1111.2525	0.209972	-351.159615	-351.152242	-351.151297	-351.190818	31.752	
C	 0.0964379178	 1.6182059907	 0.0706353223	-0.428745
C	 0.0133647155	 0.1066552834	 0.0164423552	-0.017528
C	 1.2755829029	-0.6725488301	-0.2695400169	-0.04092
C	 0.6613131692	-0.6888106919	 1.1252904555	-0.040925
C	 0.3222642452	-2.1784805069	 1.3604660011	-0.025179
C	-0.8474962113	-2.6441385567	 0.4608860548	-0.217375
C	-0.2163577615	-2.6274357679	-0.9722310704	-0.217374
C	 1.2329588583	-2.1543750474	-0.7074380837	-0.02518
C	 1.5213463366	-2.8566511249	 0.646005478	-0.201827
H	 1.0511413776	 1.9472914565	 0.4950805427	 0.112895
H	 0.0099470874	 2.0561905653	-0.9300228411	 0.114991
H	-0.7040140151	 2.0373331856	 0.6905025415	 0.11499
H	-0.9199612942	-0.2580199817	-0.398833359	 0.079186
H	 2.1802827681	-0.1110078735	-0.4817358955	 0.07236
H	 1.1107764772	-0.1393203476	 1.946801139	 0.07236
H	 0.186562919	-2.4236277363	 2.4154861973	 0.052247
H	-1.1543639266	-3.6561309714	 0.7421283088	 0.090293
H	-1.729277808	-2.0046216575	 0.5504513346	 0.097854
H	-0.2073847079	-3.6310707074	-1.4081563252	 0.090293
H	-0.7511261899	-1.9787371649	-1.6706260837	 0.097854
H	 1.9216602913	-2.3777025796	-1.5243802695	 0.052247
H	 2.4870796597	-2.5735614767	 1.0746093415	 0.087305
H	 1.4517336587	-3.9502412191	 0.6026022125	 0.080178
202.8315	206.8827	241.8165	305.7344	369.9377	372.4384	467.7416	503.8745	604.5036	745.811	752.775	792.4728	804.1804	836.3046	851.3419	891.4829	894.0935	927.6332	943.4837	944.5011	989.4897	996.1056	1013.0939	1014.786	1061.5834	1078.6009	1105.6192	1114.8636	1137.1335	1142.805	1155.7762	1174.0655	1217.6672	1226.197	1251.8737	1274.7274	1293.5051	1295.8053	1318.8944	1319.9759	1344.3606	1347.5318	1415.5123	1436.2278	1494.3401	1494.3968	1495.0889	1501.1517	1518.3994	3024.9797	3034.9986	3047.1031	3057.8927	3085.3199	3088.2473	3091.5831	3092.5425	3093.1632	3097.4877	3104.4444	3144.1164	3152.7015	3163.2751
CC1C2C1C1CCC2C1	C[C@H]1[C@H]2[C@@H]1[C@H]1CC[C@@H]2C1	
InChI=1S/C9H14/c1-5-8-6-2-3-7(4-6)9(5)8/h5-9H,2-4H2,1H3	InChI=1S/C9H14/c1-5-8-6-2-3-7(4-6)9(5)8/h5-9H,2-4H2,1H3/t5-,6+,7-,8+,9-
