19
gdb 82078	2.50782	1.5102	1.15148	4.0401	74.95	-0.2395	-0.0134	0.2261	1124.151	0.156678	-423.004724	-422.995549	-422.994605	-423.039721	33.402	
C	-0.231463372	 1.5335232773	 0.0091986552	-0.414625
C	-0.0006007412	 0.0290067496	 0.0331189971	-0.033324
C	 0.6481889965	-0.5796680956	-1.2223798579	 0.023583
O	 1.9558451528	-0.013359417	-1.3340421914	-0.238629
C	 1.7777151594	-1.1316386286	-0.4606490359	 0.031378
C	 1.2169326543	-0.6016805284	 0.8605131175	-0.172973
C	 2.1580293413	 0.236875149	 1.7127473579	 0.383781
C	 1.5645986458	 0.9215344209	 2.9319912486	-0.48445
O	 3.3357172731	 0.3137259427	 1.4496955577	-0.291148
H	 0.6926002281	 2.0631302593	-0.2370652267	 0.144682
H	-0.978574825	 1.7863388399	-0.7514984616	 0.119217
H	-0.6064255283	 1.9050062764	 0.9676804134	 0.116552
H	-0.9232226298	-0.4995741647	 0.2914959569	 0.080732
H	 0.1702173989	-0.9200608348	-2.133879834	 0.104579
H	 2.3962035104	-2.0029664136	-0.6354501306	 0.110819
H	 0.8248955596	-1.4099520228	 1.4897373662	 0.098688
H	 2.3679366264	 1.3026765099	 3.5640092092	 0.143636
H	 0.9302088164	 1.757862035	 2.6197521805	 0.148373
H	 0.9301719134	 0.2346539057	 3.5023933178	 0.129129
25.0178	98.7206	122.7013	166.1426	222.0403	256.7461	282.8017	389.1413	429.47	518.9713	582.9478	640.3274	715.9762	755.7881	848.4637	860.2805	872.1009	909.8152	945.0665	973.9172	1007.8491	1019.2341	1046.6997	1064.3261	1094.4252	1125.0554	1178.9097	1198.462	1233.931	1243.5196	1277.6251	1338.9341	1359.4245	1378.8615	1394.5165	1411.2601	1462.8713	1475.1212	1498.0263	1501.753	1806.2047	3035.595	3037.1929	3042.461	3064.3072	3096.4639	3104.8586	3124.2766	3149.626	3181.9864	3203.6307
CC1C2OC2C1C(C)=O	C[C@H]1[C@H]2O[C@H]2[C@H]1C(=O)C	
InChI=1S/C7H10O2/c1-3-5(4(2)8)7-6(3)9-7/h3,5-7H,1-2H3	InChI=1S/C7H10O2/c1-3-5(4(2)8)7-6(3)9-7/h3,5-7H,1-2H3/t3-,5-,6-,7+/m1/s1
