17
gdb 36028	1.93812	1.40004	0.96165	4.4711	76.02	-0.3174	0.0159	0.3333	1237.9791	0.135563	-380.891306	-380.882322	-380.881378	-380.925807	32.375	
N	-0.4302915135	 3.2246763552	 2.6242037309	-0.306006
C	-0.2811782439	 2.6878887386	 1.6118633424	 0.269304
C	-0.0474523331	 2.0108592731	 0.3339000849	-0.424941
C	 1.4215072869	 2.0544882849	-0.0813249781	 0.371595
C	 2.3694063029	 1.3086907444	 0.8553860025	-0.424944
C	 2.0997216724	-0.1309866927	 0.8835666364	 0.269306
N	 1.8573043134	-1.2607790376	 0.8871492713	-0.306005
C	 1.7294465319	 2.0508959305	-1.5566405803	-0.313046
C	 1.9373928606	 3.3061859231	-0.7435472099	-0.313046
H	-0.3901033878	 0.9723770763	 0.4187139059	 0.176033
H	-0.6676122644	 2.4882626915	-0.4316143616	 0.154097
H	 3.4062885811	 1.4625905556	 0.5396156896	 0.154094
H	 2.2860558065	 1.7017556269	 1.875976562	 0.176038
H	 2.6034357719	 1.5019836846	-1.8894254904	 0.131729
H	 0.8984897838	 2.0193265287	-2.2525780042	 0.127029
H	 1.244087259	 4.1288234141	-0.8795808905	 0.131733
H	 2.9532319823	 3.6178437629	-0.5273189609	 0.127031
48.7533	90.1168	130.7434	142.8215	306.2129	322.3506	333.6633	389.2454	393.1331	399.6948	496.8525	592.9388	754.7906	779.7524	870.6483	906.685	913.8854	924.1838	969.4459	981.2994	1012.713	1019.4742	1063.3556	1089.8499	1184.8623	1209.2608	1209.6129	1313.0736	1316.0322	1339.3337	1389.3881	1460.5047	1461.8843	1475.6014	1507.736	2361.5926	2361.6102	3041.9131	3043.4113	3086.8466	3087.5686	3137.0511	3140.5288	3215.8905	3228.8428
N#CCC1(CC#N)CC1	N#CCC1(CC#N)CC1	
InChI=1S/C7H8N2/c8-5-3-7(1-2-7)4-6-9/h1-4H2	InChI=1S/C7H8N2/c8-5-3-7(1-2-7)4-6-9/h1-4H2
