20
gdb 79751	2.51205	1.74176	1.39244	1.7917	78.07	-0.2135	0.0658	0.2794	1025.8995	0.170566	-403.103817	-403.095503	-403.094559	-403.136142	32.675	
C	-0.4421744589	 1.4358651299	-0.014772499	-0.313806
N	 0.0645856738	 0.069850036	 0.02339297	-0.121374
C	 1.3871338295	-0.3888184049	-0.3621107662	-0.111738
C	 2.6004466654	 0.5222115385	-0.3564891387	 0.027304
O	 2.3612594593	 1.8865250844	 0.0146035355	-0.249792
C	 2.8457641915	 0.9875789633	 1.0184497587	 0.03966
C	 1.7846924634	 0.3924883718	 1.9385304757	-0.327355
C	 0.8895190894	-0.5122152939	 1.0634379105	 0.305175
C	 0.3789803437	-1.79190721	 1.6876743334	-0.460261
H	-0.4289890392	 1.7905126722	-1.0491814979	 0.124054
H	-1.4859792769	 1.4124043537	 0.3185832516	 0.109745
H	 0.1119265172	 2.1578703974	 0.5896785046	 0.124292
H	 1.4106491407	-1.2265157385	-1.0570617427	 0.080688
H	 3.3872660376	 0.3695836289	-1.0904508707	 0.095656
H	 3.831671122	 1.2322211503	 1.4078607912	 0.096524
H	 2.2758671398	-0.2212888486	 2.7014421637	 0.107825
H	 1.2202057937	 1.1677352577	 2.4690340017	 0.118048
H	-0.2794778729	-1.5787803341	 2.5385262737	 0.117532
H	-0.1963416882	-2.362252764	 0.9547366651	 0.127465
H	 1.2035402492	-2.4140936302	 2.0538642398	 0.110358
132.2925	183.2353	190.6034	223.7764	262.8695	298.0834	353.4286	384.0521	456.9013	573.3088	636.5548	715.0099	730.0533	735.9306	822.8336	862.3194	876.0628	924.2714	935.882	987.7038	998.1775	1025.306	1059.1212	1095.3438	1119.3757	1144.097	1158.8541	1169.506	1213.7903	1229.9808	1260.8821	1304.8428	1316.3965	1334.0547	1401.6463	1419.0401	1428.131	1459.2274	1472.8821	1487.2329	1493.8137	1497.0448	1497.2911	3024.3605	3029.096	3043.8433	3080.0641	3083.7027	3094.685	3115.7603	3116.0499	3123.8301	3133.7905	3153.6188
CN1C2C3OC3CC12C	CN1[C@H]2[C@H]3O[C@H]3C[C@@]12C	
InChI=1S/C7H11NO/c1-7-3-4-5(9-4)6(7)8(7)2/h4-6H,3H2,1-2H3	InChI=1S/C7H11NO/c1-7-3-4-5(9-4)6(7)8(7)2/h4-6H,3H2,1-2H3/t4-,5-,6-,7+,8?/m0/s1
