20
gdb 111879	2.65722	1.46753	1.30367	1.2448	75.05	-0.2068	0.0648	0.2716	1087.9918	0.172034	-440.229429	-440.220887	-440.219943	-440.262645	32.297	
C	-0.0071617382	 1.1861722226	 0.3929889731	-0.233446
O	-0.231045921	 0.1574448473	-0.5580160665	-0.230389
C	-1.3966667154	-0.5475559816	-0.3060805381	 0.064734
C	-1.425315046	-2.0147648387	-0.7155960026	-0.114243
N	-0.2450385206	-2.62201627	-1.2708923601	-0.288852
C	 0.512748582	-3.3817158652	-0.2827618179	-0.173042
C	 0.9054530234	-2.4279196441	 0.8362337099	-0.044033
O	-0.2323583498	-1.8879331934	 1.5130852202	-0.268191
C	-1.3765555474	-1.639722806	 0.7507842465	 0.053968
H	 0.9273649981	 1.6789623374	 0.1134389189	 0.122175
H	-0.8179918424	 1.9303788105	 0.377215365	 0.102208
H	 0.0812026203	 0.7792546267	 1.4075954956	 0.127156
H	-2.3194964014	 0.0266315488	-0.4217570887	 0.073607
H	-2.3782311013	-2.3833677327	-1.0910301887	 0.085996
H	-0.4674852414	-3.1707815255	-2.0885741852	 0.22536
H	-0.0434977005	-4.235369186	 0.1454606498	 0.083913
H	 1.4218287915	-3.7722046271	-0.7522717714	 0.102216
H	 1.4861899981	-2.946228054	 1.6053892187	 0.100316
H	 1.508458925	-1.616168213	 0.411998688	 0.113993
H	-2.266900433	-1.7894161761	 1.3551530836	 0.096555
97.8533	121.2839	136.3854	185.5271	249.1122	306.5956	342.2991	418.5891	499.297	575.4072	626.9909	671.712	738.0875	764.5261	782.7685	841.7041	922.4558	949.2965	1037.8156	1044.397	1064.7734	1098.5127	1109.9477	1118.3964	1120.4609	1171.5941	1184.2498	1195.6429	1229.3808	1256.4679	1270.6243	1291.6878	1339.1956	1357.6655	1383.7641	1412.4678	1450.2011	1478.2027	1487.2227	1491.3529	1497.3517	1500.7375	1509.2211	2935.0386	2987.1419	3031.4078	3058.2573	3062.5027	3069.7838	3087.799	3107.0929	3117.1161	3141.1023	3585.64
COC1C2NCCOC12	CO[C@H]1[C@H]2NCCO[C@@H]12	
InChI=1S/C6H11NO2/c1-8-5-4-6(5)9-3-2-7-4/h4-7H,2-3H2,1H3	InChI=1S/C6H11NO2/c1-8-5-4-6(5)9-3-2-7-4/h4-7H,2-3H2,1H3/t4-,5+,6-/m1/s1
