24
gdb 7543	2.96449	1.19575	1.00439	0.0735	86.05	-0.2538	0.0865	0.3403	1329.4031	0.221807	-314.274216	-314.264035	-314.263091	-314.309112	37.648	
C	 0.0841711839	 1.5960087855	-0.0575010181	-0.379711
C	 0.2199054715	 0.0712839208	-0.0985990604	-0.161457
C	 0.4573716326	-0.5396759235	 1.291254265	-0.249107
C	 0.6565638066	-2.0497174317	 1.2904787336	 0.367209
C	-0.5565637852	-2.8492975027	 0.8440216758	-0.458747
C	 2.0190390636	-2.5958703777	 0.9145901307	-0.327724
C	 1.5343399324	-2.7032611714	 2.3430076079	-0.03797
C	 2.2213087051	-1.9617536719	 3.4697919758	-0.413473
H	 0.9885228963	 2.0643817628	 0.347413511	 0.11133
H	-0.0857457436	 2.010091758	-1.0564195425	 0.109222
H	-0.7556285608	 1.9022374851	 0.5765743492	 0.112344
H	-0.6835869372	-0.3586238071	-0.5467337396	 0.096815
H	 1.0504861996	-0.2084210044	-0.7592482494	 0.096624
H	 1.3312331075	-0.049284764	 1.734231661	 0.088965
H	-0.3925571507	-0.2876627093	 1.9424486864	 0.087588
H	-0.8379220139	-2.6224258817	-0.190054155	 0.115563
H	-0.3629643739	-3.9252277699	 0.9001603742	 0.10928
H	-1.4255484634	-2.634942731	 1.4785059236	 0.109939
H	 2.0748969505	-3.4936927864	 0.3071842499	 0.101649
H	 2.8096975681	-1.8786803868	 0.7122493669	 0.101164
H	 1.196117709	-3.695390308	 2.6356080943	 0.075518
H	 2.6316873381	-1.0009909841	 3.1471669225	 0.116126
H	 1.5354030022	-1.7675117476	 4.3025071416	 0.114076
H	 3.0567311715	-2.552987653	 3.8616137658	 0.114777
64.5169	88.2308	127.1611	189.8919	193.7151	235.8172	246.6143	263.4389	318.2202	365.0296	425.8449	435.6721	503.0265	716.1744	744.0062	775.5103	867.7814	878.472	887.3181	926.2842	938.8389	988.8874	1023.7971	1047.2787	1050.0473	1066.289	1101.2749	1132.2218	1134.3463	1159.3082	1192.8505	1248.4127	1296.5078	1301.9775	1333.3454	1346.8824	1392.5184	1408.2372	1410.873	1417.2431	1430.4461	1474.6926	1488.7351	1493.0659	1493.5731	1496.4338	1499.404	1502.5622	1509.5742	1510.9439	3001.1149	3020.0353	3025.2642	3027.2438	3028.125	3049.7267	3068.6869	3081.3962	3082.7316	3093.7449	3096.2394	3099.47	3104.0431	3116.7224	3125.3113	3198.7746
CCCC1(C)CC1C	CCC[C@@]1(C)C[C@H]1C	
InChI=1S/C8H16/c1-4-5-8(3)6-7(8)2/h7H,4-6H2,1-3H3	InChI=1S/C8H16/c1-4-5-8(3)6-7(8)2/h7H,4-6H2,1-3H3/t7-,8+/m1/s1
