15
gdb 10023	3.41222	1.0811	0.85506	3.6374	70.28	-0.2671	0.0152	0.2823	1311.6789	0.116843	-362.645429	-362.63605	-362.635106	-362.681098	31.254	
C	-0.0058875965	 1.4798048156	-0.0032528305	-0.499824
C	 0.0194095059	 0.0251757124	-0.0276911249	 0.10385
C	 0.0554915651	-1.1768489261	-0.0531535959	 0.063576
C	 0.0402973795	-2.6367930308	-0.063519526	-0.331073
C	-1.3973701266	-3.2032420386	 0.1685295335	-0.063254
O	-1.4078599141	-4.6057307824	 0.2243314482	-0.408845
C	 0.5632620211	-3.186452023	-1.3250092422	 0.276147
N	 0.9212458249	-3.6666419915	-2.3133653908	-0.326224
H	 0.6264680937	 1.8732570821	 0.7995649692	 0.156284
H	 0.3583527539	 1.8932575206	-0.9496246553	 0.160317
H	-1.0222478519	 1.8551973343	 0.1562097365	 0.155469
H	 0.6705590792	-3.0305338857	 0.7447590272	 0.159821
H	-1.7435699252	-2.838873875	 1.1386711609	 0.133077
H	-2.0619179203	-2.8015284654	-0.6077996036	 0.118986
H	-1.2159224288	-4.9473072465	-0.6568081463	 0.301693
25.1571	82.3589	95.4665	120.0717	188.9395	269.4292	287.7267	367.773	387.6894	400.4105	473.9607	542.5863	577.0367	802.8451	854.2276	1018.4251	1025.4782	1052.4944	1054.4003	1093.6211	1169.14	1199.9448	1272.7116	1331.1751	1387.2901	1412.8194	1414.7712	1475.7034	1476.2367	1502.019	2356.5255	2380.6459	3018.5651	3033.1742	3033.6475	3096.8644	3098.2306	3110.404	3798.2791
CC#CC(CO)C#N	CC#C[C@@H](CO)C#N	
InChI=1S/C6H7NO/c1-2-3-6(4-7)5-8/h6,8H,5H2,1H3	InChI=1S/C6H7NO/c1-2-3-6(4-7)5-8/h6,8H,5H2,1H3/t6-/m1/s1
