19
gdb 32947	4.14053	0.86427	0.75344	0.8626	82.2	-0.2107	0.0153	0.226	1558.7716	0.158037	-423.051905	-423.042489	-423.041544	-423.087118	33.229	
C	 0.1050123614	 1.2578965624	 0.2647840793	-0.220033
O	-0.0020666713	-0.1371235625	 0.1136690171	-0.23103
C	 0.5827473316	-0.5940531299	-1.0950584698	-0.188255
C	 0.5020438182	-2.0724058973	-1.1764050571	 0.349526
C	-0.2604337158	-2.9249943317	-1.911516427	-0.257687
C	 0.1371843408	-4.2495497001	-1.5402119779	-0.255491
C	 1.1154905248	-4.1102517751	-0.6031934737	 0.35118
C	 1.9314953116	-5.078186416	 0.1757660119	-0.493245
O	 1.3497392532	-2.7873583296	-0.3765646969	-0.206418
H	 1.1557375238	 1.5902642374	 0.2782206007	 0.102617
H	-0.4128832368	 1.8007719894	-0.5428317305	 0.100626
H	-0.359777845	 1.5189712649	 1.2184721109	 0.128015
H	 0.0615507496	-0.1643836102	-1.9655331728	 0.098015
H	 1.6352099968	-0.2671374332	-1.1469530107	 0.097753
H	-1.0165890458	-2.6430130202	-2.6278842976	 0.107967
H	-0.2522051438	-5.1819028911	-1.9186397542	 0.104644
H	 1.6520721958	-6.0993099644	-0.0927306237	 0.134234
H	 3.0023923267	-4.9522537052	-0.020761478	 0.137029
H	 1.7807894041	-4.9530441377	 1.25400877	 0.140553
52.859	83.2219	100.4321	132.3283	221.844	228.379	266.2751	336.9779	378.7634	401.8451	634.9101	642.349	672.8397	779.7454	798.435	835.7879	943.7535	977.133	983.3321	1014.0484	1030.3543	1048.2093	1064.6354	1140.3583	1180.7742	1217.8072	1221.566	1241.0195	1253.0601	1278.8343	1399.1821	1408.9501	1418.2308	1472.7823	1476.9463	1484.0709	1491.9363	1494.8893	1515.354	1598.7434	1658.2012	2954.8262	2966.944	2995.3392	3005.9351	3030.6667	3081.029	3115.2494	3129.5436	3247.9936	3261.712
COCC1=CC=C(C)O1	COCc1ccc(C)o1	
InChI=1S/C7H10O2/c1-6-3-4-7(9-6)5-8-2/h3-4H,5H2,1-2H3	InChI=1S/C7H10O2/c1-6-3-4-7(9-6)5-8-2/h3-4H,5H2,1-2H3
