17
gdb 51264	4.29874	1.10045	0.9397	4.147	78.63	-0.2089	-0.0118	0.1971	1221.1563	0.137721	-418.011844	-418.004194	-418.00325	-418.044434	29.219	
O	 1.9800889539	 4.1053254455	 0.1534558452	-0.299511
C	 1.0797357499	 3.3047036849	 0.048291772	 0.142663
N	 1.2204594486	 1.947725515	-0.0910062494	-0.389969
C	 2.4138829588	 1.225352755	-0.1313232099	 0.393319
C	 2.5211961513	-0.1075249731	-0.2155847482	-0.234274
C	 3.9541693934	-0.4857874524	-0.3302474871	-0.048192
C	 4.6697213833	 0.0363430653	-1.5317195389	-0.23511
N	 4.7480873167	 0.7649156963	-0.2617334833	-0.099911
C	 3.7877780245	 1.8775243226	-0.1167116976	-0.248557
H	 0.0101803266	 3.5912054124	 0.04819274	 0.086165
H	 0.3649945767	 1.4159659415	-0.161964527	 0.25503
H	 1.7046291624	-0.8186606635	-0.2269657217	 0.090648
H	 4.3331096829	-1.3517650431	 0.206933454	 0.095102
H	 5.6111467754	-0.4047794363	-1.8492701317	 0.114914
H	 4.0544541875	 0.4429441052	-2.3323633902	 0.107358
H	 3.9130237634	 2.6159216408	-0.9137974765	 0.135284
H	 3.9696828146	 2.4032911639	 0.8257713103	 0.135042
60.7426	150.949	176.72	288.8591	348.9896	368.1936	478.4264	505.2941	577.1456	601.4987	703.2794	771.4796	810.5364	824.8624	846.3812	899.408	932.5189	999.2023	1019.552	1038.3429	1057.618	1081.2548	1106.1729	1126.3014	1156.6667	1214.5297	1249.7445	1275.1015	1297.0844	1363.3835	1365.008	1443.0837	1476.1584	1495.9423	1510.8854	1701.0478	1810.2954	2947.8726	3056.1267	3092.0686	3094.0894	3135.2441	3182.5512	3206.3936	3605.4971
O=CNC1=CC2CN2C1	O=CNC1=C[C@H]2CN2C1	
InChI=1S/C6H8N2O/c9-4-7-5-1-6-3-8(6)2-5/h1,4,6H,2-3H2,(H,7,9)	InChI=1S/C6H8N2O/c9-4-7-5-1-6-3-8(6)2-5/h1,4,6H,2-3H2,(H,7,9)/t6-,8?/m0/s1
