22
gdb 112425	2.43439	1.19491	0.88444	3.973	82.44	-0.2345	0.0385	0.273	1380.8187	0.195007	-404.411406	-404.401927	-404.400983	-404.445676	35.922	
C	-0.0420703693	 1.6450475822	-0.0367072615	-0.388842
C	-0.0621493221	 0.1128602843	-0.0124469142	-0.195823
C	 0.730505777	-0.5155811028	-1.1606855994	 0.032138
C	 2.2489997657	-0.2604255047	-1.1484766887	-0.351037
C	 2.8427439802	-1.4443581031	-1.9169127253	 0.403402
O	 3.9712260074	-1.5608451626	-2.3410670392	-0.382392
N	 1.8399503696	-2.3733691019	-2.0300173047	-0.300967
C	 0.6233689516	-2.0678435996	-1.2869175981	-0.002569
C	 0.5494477269	-2.8405066445	 0.0363019257	-0.388502
H	 0.9760868058	 2.0341114922	 0.0652579884	 0.123884
H	-0.4523666253	 2.0319867946	-0.9760131988	 0.116843
H	-0.6379956374	 2.058445313	 0.7824455586	 0.114939
H	 0.3337365461	-0.2386956606	 0.9482545099	 0.100142
H	-1.1027669091	-0.2342271777	-0.0617321297	 0.095814
H	 0.3400575974	-0.1094071005	-2.1029290106	 0.084098
H	 2.5521415444	 0.6819630854	-1.6073229492	 0.129341
H	 2.6608539882	-0.2731843829	-0.1311200503	 0.122912
H	 2.055981508	-3.2990405795	-2.3676536791	 0.244893
H	-0.2551674278	-2.3276057756	-1.8901295208	 0.083227
H	 1.3835472856	-2.584210795	 0.697253322	 0.123479
H	-0.3869251826	-2.6364190655	 0.5637909678	 0.121858
H	 0.5951669599	-3.9178278752	-0.1543732429	 0.113163
100.9771	103.8485	111.2082	177.5794	234.9584	266.0539	290.8385	362.1717	422.0994	455.122	490.6538	500.9701	581.8102	643.7044	703.1241	774.0086	794.3118	861.1717	935.145	942.1922	968.8349	991.7614	1042.9113	1056.6291	1092.7861	1117.9828	1136.0164	1167.6663	1198.6076	1248.3587	1271.771	1304.4231	1316.0599	1322.706	1374.1852	1392.1306	1399.3894	1410.8466	1415.1933	1431.9412	1471.169	1484.7636	1494.6992	1500.024	1502.0434	1508.6525	1830.8994	3010.5729	3016.5144	3028.0328	3034.505	3035.2016	3039.1239	3055.8799	3101.9793	3103.6187	3107.7157	3114.8991	3119.3867	3626.4458
CCC1CC(=O)NC1C	CC[C@H]1CC(=O)N[C@H]1C	
InChI=1S/C7H13NO/c1-3-6-4-7(9)8-5(6)2/h5-6H,3-4H2,1-2H3,(H,8,9)	InChI=1S/C7H13NO/c1-3-6-4-7(9)8-5(6)2/h5-6H,3-4H2,1-2H3,(H,8,9)/t5-,6-/m0/s1
