21
gdb 95360	2.85519	1.49245	1.07999	1.4922	84.33	-0.2341	0.0174	0.2515	1168.79	0.1846	-387.11037	-387.102234	-387.10129	-387.143124	31.773	
C	-0.1692328414	 1.5273292477	 0.0767104789	-0.389876
C	 0.0209271073	 0.013273061	 0.013924359	 0.029416
O	 0.785068392	-0.3585893414	-1.1567625167	-0.28723
C	 2.0444256002	-0.9266359449	-0.7769693317	-0.100217
C	 1.7946819695	-1.5621361062	 0.5946287802	-0.067607
C	 2.8784051861	-1.6102647839	 1.688616164	-0.244945
C	 2.1305252922	-1.177053418	 2.9855271993	-0.243011
C	 0.9806623708	-0.3418212338	 2.4494971643	-0.24877
C	 0.7970586128	-0.5743659552	 1.1534656229	 0.339324
H	 0.794710179	 2.033891798	 0.1769482936	 0.11859
H	-0.6597469317	 1.8838281596	-0.8330040904	 0.12346
H	-0.7934847709	 1.7983384903	 0.9349712719	 0.112812
H	-0.9633178864	-0.4671473534	-0.0908157643	 0.088555
H	 2.3339470333	-1.628371387	-1.564512264	 0.103577
H	 2.8204542842	-0.1473015212	-0.7030734324	 0.085318
H	 1.3248962466	-2.5463392449	 0.4521807637	 0.080468
H	 3.3628081056	-2.5855547789	 1.781929242	 0.096928
H	 3.6585393825	-0.8742236042	 1.4618388847	 0.102644
H	 1.7640342801	-2.0475431985	 3.5488675106	 0.106137
H	 2.774234149	-0.6173260668	 3.6732768872	 0.102858
H	 0.4135709189	 0.3465425819	 3.066368777	 0.091567
77.164	161.3975	167.4949	215.1692	277.2569	330.378	422.589	468.4969	566.7239	580.9231	654.5516	720.7952	805.3527	838.2403	854.981	882.6969	912.6317	946.8747	971.6685	985.6076	1003.0696	1064.1888	1073.1106	1086.1763	1101.0644	1114.1686	1163.1373	1181.7949	1223.946	1227.6863	1262.9126	1296.6089	1309.7393	1318.7182	1332.2403	1351.8231	1372.4736	1388.5934	1401.1231	1484.5704	1485.2239	1490.9314	1499.5561	1518.2094	1741.466	2967.5262	2986.1361	2995.8371	3003.1931	3038.1603	3039.1545	3059.9942	3080.645	3099.5116	3110.0711	3124.0196	3192.305
CC1OCC2CCC=C12	C[C@H]1OC[C@H]2CCC=C12	
InChI=1S/C8H12O/c1-6-8-4-2-3-7(8)5-9-6/h4,6-7H,2-3,5H2,1H3	InChI=1S/C8H12O/c1-6-8-4-2-3-7(8)5-9-6/h4,6-7H,2-3,5H2,1H3/t6-,7-/m1/s1
