17
gdb 88039	2.43307	1.34603	1.05567	3.8065	73.25	-0.2606	0.0076	0.2682	1178.3975	0.135221	-417.975353	-417.966694	-417.96575	-418.008961	31.606	
C	-0.0353644004	 1.5490707318	-0.1296799704	-0.420799
C	 0.0144705247	 0.0516089109	 0.001050004	-0.010579
O	 1.3232748736	-0.5703343828	-0.0693939191	-0.281583
C	 0.6258741616	-0.6246526525	 1.1425672696	 0.401632
C	 1.1190243803	-0.1066965385	 2.4944182579	-0.258617
N	 0.3693201367	-1.2187057766	 3.1412780354	-0.314505
C	 0.2167629891	-1.9368529541	 1.8512528193	-0.221115
C	-1.1148929875	-2.4799106888	 1.586876762	 0.309737
N	-2.1645340554	-2.8998195031	 1.346371054	-0.33033
H	 0.7511449997	 2.0230788661	 0.4631378822	 0.129186
H	 0.0962736946	 1.8462890849	-1.1747277809	 0.138661
H	-1.0067313674	 1.9252617733	 0.207891521	 0.136335
H	-0.7503357033	-0.5011821481	-0.5453925734	 0.119475
H	 2.2117441626	-0.1723826118	 2.5776763698	 0.11626
H	 0.7920126435	 0.8897813886	 2.8062536941	 0.124436
H	 0.8805474465	-1.7361420831	 3.8465912263	 0.235953
H	 0.964230451	-2.7199440661	 1.6624872784	 0.125853
89.7068	100.3528	166.9254	181.3358	205.4403	267.6613	363.9955	434.3162	455.0807	520.3154	577.2488	580.6269	687.3165	802.2202	855.1645	891.8222	965.7977	978.6356	1006.0258	1030.8627	1065.7694	1100.3342	1119.1535	1130.0863	1137.6802	1198.3698	1216.9001	1302.4085	1343.5105	1367.3724	1385.3311	1411.8539	1474.0424	1489.536	1510.9401	1534.5164	2356.2631	3012.0018	3020.14	3041.4276	3080.0168	3108.6041	3108.9612	3129.8001	3549.4005
CC1OC11CNC1C#N	C[C@H]1O[C@]21CN[C@H]2C#N	
InChI=1S/C6H8N2O/c1-4-6(9-4)3-8-5(6)2-7/h4-5,8H,3H2,1H3	InChI=1S/C6H8N2O/c1-4-6(9-4)3-8-5(6)2-7/h4-5,8H,3H2,1H3/t4-,5+,6+/m1/s1
