15
gdb 48658	2.08393	1.80732	1.1373	3.7523	75.61	-0.2536	-0.0528	0.2008	1067.9793	0.109475	-420.558384	-420.550069	-420.549125	-420.591484	30.706	
O	-0.0535726642	 0.2592271897	-0.7713616435	-0.251013
C	 0.1244157853	 1.0886170187	 0.0831184455	 0.071009
C	 1.2798623929	 2.0147758001	 0.1330306398	 0.230094
C	 1.7180706812	 2.9681280531	 1.2545219247	-0.301015
C	 2.1816586121	 3.9946160655	 0.1688674705	-0.302062
C	 1.7209364833	 3.0090572591	-0.9219346108	 0.187096
O	 2.4070801447	 1.7807754607	-0.7024393401	-0.282802
C	 1.1953061749	 3.3010316441	-2.2079445299	 0.237618
C	 0.7576728678	 3.6048362267	-3.2858423861	-0.369915
H	-0.5991230972	 1.2454932822	 0.9144389209	 0.07938
H	 0.8803048514	 3.3382903603	 1.8497851937	 0.120679
H	 2.4892579337	 2.565821941	 1.9140583377	 0.125359
H	 1.5981510178	 4.9163978113	 0.1790289963	 0.127383
H	 3.2468270144	 4.2304250683	 0.1307034942	 0.126265
H	 0.370672922	 3.8530754391	-4.243558533	 0.201923
75.5374	132.3801	163.7581	205.5	229.3342	328.7688	421.5319	457.4207	535.543	558.879	624.9682	635.5179	677.9037	743.8412	768.9846	790.0765	833.9553	944.8302	984.9782	1029.015	1044.0497	1112.1014	1171.1994	1189.9038	1220.869	1230.1363	1288.3616	1408.4925	1429.4447	1464.5771	1486.3543	1815.4088	2240.4995	2879.6547	3073.5173	3082.4253	3128.0627	3146.2199	3499.8209
O=CC12CCC1(O2)C#C	O=C[C@]12CC[C@]1(O2)C#C	
InChI=1S/C7H6O2/c1-2-6-3-4-7(6,5-8)9-6/h1,5H,3-4H2	InChI=1S/C7H6O2/c1-2-6-3-4-7(6,5-8)9-6/h1,5H,3-4H2/t6-,7-/m1/s1
