18
gdb 54123	3.33475	1.29288	1.09424	5.3861	71.68	-0.2448	0.0229	0.2677	1128.009	0.148796	-439.091395	-439.083288	-439.082344	-439.124049	31.521	
N	 0.0926816712	 1.0260282997	 0.0695639373	-0.615564
H	-0.2598064899	 0.1846974221	-0.3717642379	 0.249392
H	 1.0810977983	 0.8993550854	 0.2533203116	 0.249384
H	-0.537279706	 2.7193406252	-0.530560618	 0.302528
C	-0.6544677404	 1.3876003454	 1.2584091426	 0.11198
C	-1.4524026303	 0.4106719988	 2.1006855122	-0.065141
C	-0.7631062762	-0.9561798839	 2.152276904	-0.252277
C	 0.5108244078	-0.2686120189	 2.7430380327	-0.252477
C	-0.2107128928	 1.0807943447	 2.6759757786	-0.065054
C	-1.3302797025	 2.7421903309	 1.1404376719	 0.428286
O	-1.1075079949	 3.3455275828	-0.0333328824	-0.384056
O	-2.0016444164	 3.2303913045	 2.0140129267	-0.358396
H	-2.490958192	 0.6233650037	 2.3172079732	 0.117048
H	-1.2368753244	-1.6310139817	 2.8674419543	 0.119657
H	-0.6499001243	-1.4909855573	 1.2030083466	 0.088964
H	 0.7086705067	-0.5801010894	 3.7702608884	 0.119691
H	 1.4418913549	-0.3629762692	 2.1736420154	 0.08902
H	-0.1554373588	 1.883691127	 3.3991908327	 0.117014
74.0185	174.3905	203.0599	233.8993	298.3947	320.2655	388.2203	429.2955	497.9165	619.0346	726.0647	733.4449	758.8792	779.2935	825.5726	855.6104	855.8212	887.9625	936.8029	970.1093	989.6281	1022.7071	1023.3837	1078.3142	1102.0752	1150.4538	1216.2943	1222.3544	1226.3088	1248.114	1251.9731	1287.3024	1293.4337	1380.1443	1431.5958	1482.269	1503.819	1647.7084	1851.6069	3039.4709	3047.5596	3104.4291	3121.0111	3201.9675	3210.7478	3488.433	3521.6913	3600.8959
[NH3+]C1(C2CCC12)C([O-])=O	N[C@]1([C@H]2CC[C@@H]12)C(=O)O	
InChI=1S/C6H9NO2/c7-6(5(8)9)3-1-2-4(3)6/h3-4H,1-2,7H2,(H,8,9)	InChI=1S/C6H9NO2/c7-6(5(8)9)3-1-2-4(3)6/h3-4H,1-2,7H2,(H,8,9)/t3-,4+,6-
