18
gdb 106723	2.50633	1.46077	1.18293	3.0679	71.86	-0.234	0.0677	0.3017	1093.5766	0.147524	-439.006475	-438.998076	-438.997132	-439.039614	32.331	
O	 0.2723728232	 1.2167033722	-0.4710261381	-0.414221
C	 0.0167791502	-0.0336668776	 0.1654524322	-0.1763
C	-1.4183814569	-0.4638885443	 0.1218030387	 0.22758
C	-2.0947966843	-0.9657744625	-1.1436822736	-0.375947
C	-1.9730968253	-1.9185161669	-0.0005435261	 0.395763
O	-1.2755475528	-3.0970351723	-0.1470840574	-0.460151
C	-2.9759170102	-1.6172312689	 1.081335856	-0.152541
N	-2.2035034446	-1.1939743237	 2.2864703375	-0.350961
C	-2.4614000149	-0.222039167	 1.1900224654	-0.132384
H	-0.2311697231	 1.8894364074	-0.0021145184	 0.277718
H	 0.6310755094	-0.7632252551	-0.3736004489	 0.112751
H	 0.3589722282	-0.0250900439	 1.2112030885	 0.099728
H	-3.0611396227	-0.5773012651	-1.4539493418	 0.10653
H	-1.4106698632	-1.1665862567	-1.9624142365	 0.131609
H	-0.9260150144	-3.3295923745	 0.7221529957	 0.295074
H	-3.994160027	-1.9770156519	 1.1754226556	 0.097519
H	-2.8847347061	-1.006139246	 3.0246569455	 0.225005
H	-3.0486840255	 0.6715705268	 1.370343436	 0.09323
62.9048	128.6685	203.3919	227.8717	273.1345	317.5223	395.4073	441.7862	450.2632	567.6459	617.5245	621.8952	758.6147	805.8859	813.9462	849.2778	855.8887	920.4188	938.6861	961.4909	982.8781	1037.7013	1047.8751	1091.8173	1108.298	1123.263	1128.275	1159.4028	1241.066	1262.3702	1286.373	1324.2485	1364.0529	1378.5322	1385.2679	1413.8571	1422.9547	1493.7424	1505.4419	2994.0277	3069.1653	3115.3166	3170.3212	3183.8574	3206.2826	3448.5306	3780.1389	3818.1485
OCC12CC1(O)C1NC21	OC[C@@]12C[C@]1(O)[C@H]1N[C@@H]21	
InChI=1S/C6H9NO2/c8-2-5-1-6(5,9)4-3(5)7-4/h3-4,7-9H,1-2H2	InChI=1S/C6H9NO2/c8-2-5-1-6(5,9)4-3(5)7-4/h3-4,7-9H,1-2H2/t3-,4+,5-,6+/m1/s1
