18
gdb 64794	2.59791	1.20688	0.95343	2.3351	79.14	-0.2441	-0.0579	0.1862	1266.9151	0.145082	-401.90093	-401.891339	-401.890395	-401.936611	34.763	
C	 0.297160265	 1.617037695	 0.0808602249	-0.462736
C	-0.1602431602	 0.1732293118	 0.0307068229	 0.331407
C	-1.6045181112	-0.0799927852	 0.4697956879	-0.346497
C	-1.7971269154	 0.2635621652	 1.9408700731	 0.230639
O	-2.0176680877	 1.3957639307	 2.3198450551	-0.291735
C	-1.6689277082	-0.835340456	 2.8799777628	 0.308961
C	-1.585462163	-1.7502398665	 3.6578938222	-0.445553
C	 0.4351700595	-0.7266565747	-0.9918340094	-0.28753
N	 0.7762261928	-0.8913127612	 0.4331627368	-0.33636
H	 1.3364382932	 1.7033160071	-0.2523650111	 0.108367
H	-0.3196544358	 2.2456319022	-0.5704530345	 0.1274
H	 0.2204260835	 2.0256354737	 1.0924981184	 0.146478
H	-2.279283098	 0.5594727736	-0.1087671699	 0.123944
H	-1.8552460431	-1.128343961	 0.2934090233	 0.117655
H	-1.5035736635	-2.5534479316	 4.349209529	 0.215778
H	-0.1497731738	-1.5373159468	-1.4186331693	 0.117007
H	 1.1788876182	-0.3052640154	-1.663645045	 0.112484
H	 1.6945164378	-0.4963796808	 0.6207455627	 0.230292
21.517	62.4153	150.6243	169.1841	225.8525	250.8064	318.1315	343.9288	388.6273	439.2225	447.821	609.3857	638.4444	656.3048	712.7772	747.0456	798.2388	875.1477	903.7122	927.1783	945.9404	986.6955	1016.5655	1051.4826	1117.0759	1119.2307	1160.3546	1240.5167	1265.9604	1303.7365	1339.5873	1385.5627	1424.2369	1461.4033	1485.6403	1499.9612	1517.3918	1756.3097	2210.739	3034.0007	3054.5196	3099.6546	3103.8977	3115.0048	3119.1959	3188.0257	3496.3187	3498.1108
CC1(CC(=O)C#C)CN1	C[C@@]1(CC(=O)C#C)CN1	
InChI=1S/C7H9NO/c1-3-6(9)4-7(2)5-8-7/h1,8H,4-5H2,2H3	InChI=1S/C7H9NO/c1-3-6(9)4-7(2)5-8-7/h1,8H,4-5H2,2H3/t7-/m1/s1
