16
gdb 64840	3.39043	1.13264	1.11006	2.1774	72.95	-0.2537	-0.0565	0.1972	1139.7264	0.12319	-437.943419	-437.934859	-437.933915	-437.977124	31.272	
C	-0.0144743321	 1.674356039	-0.0496029227	-0.424623
C	 0.0271145584	 0.1452980362	-0.0858690623	 0.112773
N	 0.8485067691	-0.4071509868	-1.142743677	-0.350799
C	 1.816883015	-1.2940914512	-0.7027703856	 0.398058
O	 2.6040039765	-1.9015298305	-1.3922309257	-0.374839
C	 1.6582687954	-1.304965155	 0.7845141227	-0.197865
C	 0.6689375881	-0.4828403355	 1.136992572	-0.093125
C	-1.3914306224	-0.4560188129	-0.2059878511	 0.138526
O	-2.4097736844	 0.1645250539	-0.0696081317	-0.237207
H	 0.9938048448	 2.0772666995	 0.067413987	 0.131552
H	-0.4517938716	 2.0668686261	-0.9719669653	 0.131136
H	-0.6402503055	 2.0128339974	 0.7790828595	 0.142172
H	 0.7178493686	-0.206441731	-2.120767578	 0.258889
H	 2.2994479402	-1.8940397323	 1.4245831494	 0.134749
H	 0.3088415265	-0.2607615582	 2.1333291992	 0.133431
H	-1.3754337267	-1.5420040686	-0.4438095904	 0.097173
57.5075	77.6275	198.7663	210.7288	258.3276	330.7962	371.4568	417.9889	432.407	499.1673	512.6397	683.2874	716.5712	725.4842	836.995	852.8017	920.0955	923.6229	979.952	984.3436	1009.3835	1088.5238	1156.7396	1182.1973	1201.6554	1268.8097	1337.4285	1386.4011	1405.8232	1411.3193	1484.6887	1489.8432	1643.6703	1829.508	1834.2101	2901.8245	3053.3461	3127.184	3142.6539	3218.9307	3251.446	3657.8982
CC1(NC(=O)C=C1)C=O	C[C@]1(NC(=O)C=C1)C=O	
InChI=1S/C6H7NO2/c1-6(4-8)3-2-5(9)7-6/h2-4H,1H3,(H,7,9)	InChI=1S/C6H7NO2/c1-6(4-8)3-2-5(9)7-6/h2-4H,1H3,(H,7,9)/t6-/m1/s1
