18
gdb 26208	3.87714	1.12765	0.88682	1.636	77.39	-0.1732	0.0454	0.2187	1303.8436	0.147999	-435.292342	-435.282919	-435.281975	-435.326614	33.902	
C	-0.0265004242	 1.402657983	 0.0389973287	-0.331912
N	-0.0307690225	-0.0354939741	-0.1614814385	-0.17235
C	 1.1913316241	-0.7514345574	 0.1571258336	-0.340094
C	-1.2315383673	-0.676319959	-0.0770080147	 0.545001
N	-2.4167165435	-0.1281680211	-0.0435462891	-0.423769
C	-3.28569817	-1.2128037497	-0.0343230419	 0.270816
N	-4.6569960326	-0.9821426379	-0.0734968512	-0.599405
C	-2.5812936909	-2.3702666034	-0.0446777818	-0.150861
O	-1.2249298003	-2.0204208418	-0.0693852387	-0.213074
H	 0.8386334179	 1.8323951331	-0.4749684111	 0.120845
H	-0.9416129411	 1.8241909072	-0.3759778543	 0.165511
H	 0.0297859003	 1.6759151549	 1.1039054433	 0.114912
H	 1.4022745788	-0.7654324641	 1.2380554225	 0.117111
H	 1.1223101384	-1.7800451246	-0.1954813086	 0.155644
H	 2.0298739401	-0.2630080582	-0.347979221	 0.125959
H	-4.8870143795	-0.0771652212	 0.3150419594	 0.250336
H	-5.2084656142	-1.7109591885	 0.3573264792	 0.243959
H	-2.8049344334	-3.4203179474	-0.0368151159	 0.12137
72.7335	110.7063	154.9523	169.9555	206.546	232.1594	265.8178	352.9878	362.8741	390.286	547.5349	554.5147	589.5971	644.9497	714.2747	746.5675	770.2705	933.9161	1010.0205	1041.3311	1077.5046	1090.3421	1126.9792	1131.2523	1178.7416	1226.5242	1273.8167	1298.087	1385.2767	1442.8264	1448.0583	1471.6373	1486.093	1497.7035	1502.538	1518.3234	1630.6575	1658.2846	1690.4833	2982.4949	2990.4936	3078.2223	3080.2505	3154.1023	3156.3588	3313.2438	3551.5804	3650.1226
CN(C)C1=NC(N)=CO1	CN(C)c1nc(N)co1	
InChI=1S/C5H9N3O/c1-8(2)5-7-4(6)3-9-5/h3H,6H2,1-2H3	InChI=1S/C5H9N3O/c1-8(2)5-7-4(6)3-9-5/h3H,6H2,1-2H3
