14
gdb 105169	2.8818	1.14642	0.96796	3.0213	64.29	-0.2822	-0.078	0.2042	1185.5926	0.0982	-473.803958	-473.795154	-473.79421	-473.837942	30.77	
O	 0.1892442786	 1.3568301443	-0.4446099386	-0.413926
C	 0.1214279968	 0.0409040761	 0.0503542839	-0.14394
C	-1.3047618768	-0.4832648837	 0.0778328008	 0.254376
O	-1.8318948095	-1.1186941522	-1.0966405759	-0.244163
C	-1.6163971438	-1.9409940326	 0.0376209347	-0.163491
C	-0.5461800276	-2.9132414023	-0.0324496186	 0.318291
N	 0.2938560949	-3.7060240784	-0.0620805291	-0.313636
C	-2.3272572171	 0.3703166341	 0.7769539143	 0.131392
O	-2.0412593849	 1.3524990762	 1.4135949436	-0.253554
H	-0.2258181883	 1.9259608096	 0.2147126132	 0.303764
H	 0.7171665025	-0.5897118817	-0.6142221194	 0.144388
H	 0.5392783195	-0.0460742546	 1.0645005231	 0.118526
H	-2.5180099079	-2.3081175566	 0.5269109206	 0.149933
H	-3.3760384364	 0.0295518516	 0.6453069276	 0.112039
84.6357	106.3741	118.014	186.2464	215.1217	282.1699	310.8251	376.9555	430.7522	488.7026	522.327	583.6481	619.2993	792.4371	818.2804	915.7376	952.7483	1023.4722	1044.0954	1074.3153	1096.5159	1202.8856	1285.9673	1312.9182	1383.6505	1393.975	1425.7578	1451.1029	1479.9825	1818.9339	2363.9502	2919.0819	3000.9269	3108.1402	3122.1247	3792.7239
OCC1(OC1C#N)C=O	OC[C@]1(O[C@H]1C#N)C=O	
InChI=1S/C5H5NO3/c6-1-4-5(2-7,3-8)9-4/h2,4,8H,3H2	InChI=1S/C5H5NO3/c6-1-4-5(2-7,3-8)9-4/h2,4,8H,3H2/t4-,5+/m0/s1
