19
gdb 102278	1.84034	1.32596	0.87189	1.9392	73.58	-0.2521	-0.0333	0.2187	1361.1981	0.157882	-456.401616	-456.391439	-456.390495	-456.437442	36.247	
C	 0.0535071115	 1.5462447444	-0.3015749094	-0.378941
C	 0.0403503986	 0.0270865587	-0.1228594836	-0.181523
C	 0.8179198997	-0.7227562258	-1.2310111544	-0.057789
N	 2.2322894788	-0.4104704349	-1.2668882666	-0.349417
C	 2.7135123237	 0.4067887453	-2.275185114	 0.458296
N	 4.0931426553	 0.3931035027	-2.3920761011	-0.563622
O	 1.9952169914	 1.0679928679	-3.0035072332	-0.393227
C	 0.6400470023	-2.2148832007	-1.0387352918	 0.158051
O	 1.5518116728	-2.9884450108	-0.8777416276	-0.259844
H	 1.0735505264	 1.9361128491	-0.2597433215	 0.130932
H	-0.3689002192	 1.8357138081	-1.2677416385	 0.135058
H	-0.527557491	 2.0286591874	 0.4903297539	 0.109333
H	 0.4712390706	-0.2412858181	 0.8498344497	 0.104423
H	-0.9948821659	-0.3382515064	-0.1214553636	 0.099661
H	 0.3736847124	-0.4482159116	-2.1987677899	 0.131155
H	 2.809539957	-1.2006068836	-1.0035700311	 0.248551
H	 4.6378322742	 0.1868784335	-1.5688649621	 0.251946
H	 4.4512361383	 1.1476075138	-2.9566524086	 0.261929
H	-0.415913347	-2.5585934691	-1.0263101068	 0.095028
61.8047	75.7678	101.2629	118.7676	188.427	220.1312	262.021	293.9218	388.0709	415.4303	429.3819	483.8099	512.3026	592.1228	654.83	720.2801	774.7834	793.0366	839.3538	937.9919	993.6924	1001.0368	1041.2927	1093.6881	1115.1437	1145.4743	1204.0467	1268.0979	1293.684	1325.9171	1373.2955	1378.7702	1412.5389	1419.4015	1477.1904	1492.1272	1502.5476	1522.9617	1626.0693	1796.0855	1820.4147	2912.3302	3016.1029	3021.2742	3046.5584	3059.6238	3115.9712	3128.421	3553.5396	3582.3283	3699.0134
CCC(NC(N)=O)C=O	CC[C@@H](NC(=O)N)C=O	
InChI=1S/C5H10N2O2/c1-2-4(3-8)7-5(6)9/h3-4H,2H2,1H3,(H3,6,7,9)	InChI=1S/C5H10N2O2/c1-2-4(3-8)7-5(6)9/h3-4H,2H2,1H3,(H3,6,7,9)/t4-/m1/s1
