21
gdb 109149	3.6368	0.91924	0.87377	1.9143	80.56	-0.2329	0.0283	0.2612	1426.1321	0.181131	-424.23905	-424.229403	-424.228459	-424.27342	36.764	
C	-0.0314157494	 1.5045651367	 0.0217885954	-0.44582
C	 0.0610542536	-0.0211268612	 0.0018434813	 0.391684
O	-1.253893759	-0.5892495827	-0.0141686865	-0.472811
C	 0.8964407572	-0.5808864205	-1.1898559863	-0.294282
C	 1.6256551404	-1.7588107919	-0.5993238237	-0.170625
C	 1.5395578315	-1.7908921232	 0.731508235	 0.287268
C	 2.1487214236	-2.8105844565	 1.6460514643	-0.166658
O	 2.7471812715	-3.9054019316	 0.9765770895	-0.408654
C	 0.735119614	-0.6258314856	 1.2608742778	-0.331461
H	 0.9595652446	 1.9642577976	 0.0896434371	 0.115263
H	-0.5073040657	 1.8769505877	-0.8938858625	 0.103597
H	-0.6307134447	 1.8380742513	 0.8742588474	 0.122967
H	-1.6958260046	-0.2791248833	-0.8120099361	 0.271516
H	 0.2382040473	-0.8529707812	-2.0252423611	 0.09058
H	 1.5996272311	 0.1683915678	-1.5801825931	 0.101034
H	 2.1840790206	-2.4704270664	-1.1963059055	 0.091236
H	 2.9489771543	-2.352378117	 2.2432791829	 0.120354
H	 1.3877996965	-3.1485543319	 2.3716843866	 0.09497
H	 2.0615644804	-4.3172081738	 0.4398623055	 0.282893
H	 1.3829143878	 0.106207178	 1.7615543823	 0.100933
H	-0.0340469113	-0.9201250523	 1.9834006301	 0.116015
52.7043	116.6024	179.3465	205.8955	260.1044	292.6696	301.0876	341.148	353.0656	414.5168	419.5363	435.8406	497.9196	610.4804	684.4022	792.1546	816.3709	879.5297	908.9978	924.8671	958.3846	961.6797	1000.5602	1007.5634	1064.9242	1105.3217	1118.3805	1139.9766	1175.522	1197.6519	1217.2178	1259.876	1276.3799	1309.2488	1333.3617	1382.1145	1389.2119	1407.1978	1423.7963	1468.1833	1477.3416	1491.7132	1492.5875	1495.3562	1722.4852	2949.09	3005.2733	3016.6356	3024.763	3028.9791	3037.0495	3067.6462	3090.2426	3113.2522	3200.0159	3802.3293	3808.9455
CC1(O)CC=C(CO)C1	C[C@@]1(O)CC=C(CO)C1	
InChI=1S/C7H12O2/c1-7(9)3-2-6(4-7)5-8/h2,8-9H,3-5H2,1H3	InChI=1S/C7H12O2/c1-7(9)3-2-6(4-7)5-8/h2,8-9H,3-5H2,1H3/t7-/m1/s1
