18
gdb 65706	2.61724	0.99882	0.8822	2.1348	76.79	-0.2582	-0.0324	0.2258	1371.8463	0.144588	-439.078629	-439.069097	-439.068153	-439.11354	34.105	
C	 0.0083245225	 1.5467764399	-0.4172069046	-0.454945
C	-0.0003638749	 0.0802790757	-0.0520152823	 0.39482
C	 1.2242775614	-0.7508401694	-0.1289965153	-0.345652
C	 0.6238707977	-0.4581552744	 1.2463799076	-0.166219
C	 1.3343938291	 0.4316440517	 2.1927630432	 0.15814
O	 1.2317543093	 0.3643477394	 3.3929056267	-0.262315
O	-1.1658180572	-0.5946771531	-0.4717201279	-0.218621
C	-2.2921057319	-0.3814310344	 0.2539795919	 0.111156
N	-3.391602729	-0.8354464075	-0.1610654179	-0.433986
H	 0.9671715678	 2.012647234	-0.1793696634	 0.129327
H	-0.1683683939	 1.6510532023	-1.4919784469	 0.146384
H	-0.7763592945	 2.0969755365	 0.1118108205	 0.132143
H	 1.1235051848	-1.7656095877	-0.4936173077	 0.149062
H	 2.156407152	-0.2555728023	-0.3807070355	 0.129239
H	 0.0781715298	-1.2649367019	 1.7230212674	 0.124183
H	 2.0016873099	 1.1873452513	 1.7172299784	 0.069263
H	-2.1146033643	 0.1742570049	 1.1829358117	 0.103698
H	-4.1308092284	-0.616987235	 0.5040071241	 0.234323
69.039	89.5639	122.9204	148.9902	208.8173	237.049	271.7945	358.4059	380.272	391.6429	471.1481	550.3705	567.2192	720.4548	825.4974	852.1399	894.669	924.2751	949.3868	1017.5093	1049.0225	1052.4744	1075.8066	1080.3454	1099.0582	1120.2437	1176.577	1240.4425	1278.2143	1309.3586	1369.2183	1414.9045	1419.2603	1444.4472	1472.6973	1483.2169	1502.6471	1746.359	1815.1575	2857.9016	3042.5842	3047.0657	3109.9859	3130.0007	3140.0678	3183.7829	3237.1872	3517.7259
CC1(CC1C=O)OC=N	C[C@]1(C[C@H]1C=O)O[CH][NH]	
InChI=1S/C6H9NO2/c1-6(9-4-7)2-5(6)3-8/h3-5,7H,2H2,1H3	InChI=1S/C6H9NO2/c1-6(9-4-7)2-5(6)3-8/h3-5,7H,2H2,1H3/t5-,6+/m0/s1
