18
gdb 38037	3.34509	1.65084	1.33133	1.7452	76.8	-0.2283	0.0019	0.2302	981.0294	0.151008	-401.919153	-401.912323	-401.911379	-401.950434	27.525	
C	 0.1210912756	 1.3231460844	 0.2750155287	-0.058056
C	 1.5206901984	 1.8946304904	-0.0802024822	-0.340881
C	 2.2465515973	 0.6006759315	-0.2364645301	 0.247495
C	 3.2899919725	-0.000594565	 0.3333227589	-0.197591
C	 3.1009317707	-1.4874973449	 0.2769445874	-0.076623
N	 1.9231100529	-1.8682992633	 1.111273121	-0.326081
C	 1.7688986261	-1.7318030138	-0.3505866647	-0.094937
C	 1.2613335811	-0.3820984586	-0.8424658092	 0.111675
O	-0.0216192086	 0.0815312629	-0.4306617874	-0.281961
H	 0.0543183663	 1.1447697929	 1.3563715119	 0.110652
H	-0.7003539774	 1.9819594249	-0.0241034192	 0.102406
H	 1.4726736227	 2.4570408136	-1.020849814	 0.112457
H	 1.917846968	 2.5478156763	 0.6992527648	 0.113715
H	 4.069362392	 0.4773873935	 0.9152927266	 0.099654
H	 3.9277936179	-2.1833935498	 0.1860497016	 0.09087
H	 1.9787651502	-2.8636715904	 1.3234604997	 0.228614
H	 1.577255201	-2.6214360611	-0.9397104112	 0.086016
H	 1.2871383834	-0.3849195033	-1.9445254424	 0.072575
108.9028	158.5629	237.313	355.202	459.6996	500.3796	616.6469	648.5392	689.0054	737.0543	810.7915	838.8324	856.2216	868.9828	893.8421	909.991	925.7299	957.2269	987.9639	999.9542	1064.2383	1076.9135	1101.699	1125.5598	1155.9182	1176.1868	1183.6944	1220.8983	1246.4841	1282.5956	1292.4045	1324.451	1358.3587	1373.554	1386.9188	1409.4675	1481.3749	1518.95	1729.0571	2961.1744	3014.5704	3030.6874	3075.6564	3114.7736	3167.4525	3177.5682	3199.6517	3473.5606
C1CC2=CC3NC3C2O1	C1C[C]2[CH][C@H]3N[C@H]3[C@H]2O1	
InChI=1S/C7H9NO/c1-2-9-7-4(1)3-5-6(7)8-5/h3,5-8H,1-2H2	InChI=1S/C7H9NO/c1-2-9-7-4(1)3-5-6(7)8-5/h3,5-8H,1-2H2/t5-,6-,7+/m1/s1
