14
gdb 76366	2.11413	1.44041	1.19653	3.6501	69.88	-0.2575	-0.0127	0.2448	1078.5411	0.100171	-432.860628	-432.851646	-432.850702	-432.894218	32.326	
N	 0.1739802949	 1.3976929052	 0.0516157361	-0.495592
C	 0.0560345663	 0.0010519856	 0.0582402626	-0.026872
C	-0.4596116111	-0.6840543555	 1.258636869	 0.061784
O	-0.8404434729	 0.1457582421	 2.2905994465	-0.398881
C	-1.3791314708	-0.7517061299	-0.0056220228	-0.092215
C	-2.5311148753	 0.0941627985	-0.016521964	 0.245246
N	-3.4363962251	 0.8150941003	-0.0089491026	-0.333863
C	-1.4426539977	-1.9927740507	-0.7132527323	 0.237767
N	-1.4275752021	-3.0064153692	-1.2726783952	-0.330597
H	 0.0180595604	 1.8129215771	-0.8583073288	 0.26024
H	-0.4104122334	 1.8421648165	 0.7489583924	 0.271031
H	 0.7919609972	-0.5327378658	-0.5341662288	 0.148753
H	-0.0258701271	-1.6430643497	 1.5370721069	 0.138477
H	-1.5599266533	-0.2613143847	 2.7867389609	 0.314722
101.7007	130.1163	152.3308	153.6892	244.7909	298.2223	333.4746	348.3763	395.8819	473.5924	502.3417	578.9541	591.0656	645.7351	654.1617	710.618	786.2492	908.4777	978.1317	1084.1021	1104.0932	1172.673	1234.4974	1250.0837	1300.6948	1318.5775	1399.0518	1496.819	1652.2051	2342.025	2349.1095	3125.8542	3175.3167	3539.3058	3631.0183	3806.5716
NC1C(O)C1(C#N)C#N	N[C@H]1[C@@H](O)C1(C#N)C#N	
InChI=1S/C5H5N3O/c6-1-5(2-7)3(8)4(5)9/h3-4,9H,8H2	InChI=1S/C5H5N3O/c6-1-5(2-7)3(8)4(5)9/h3-4,9H,8H2/t3-,4+/m0/s1
