18
gdb 62913	2.89305	1.56033	1.20421	3.5829	74.08	-0.2443	0.006	0.2503	1053.0345	0.146558	-439.034073	-439.025818	-439.024874	-439.066538	32.093	
C	-0.2730512288	 1.410082925	-0.1419630651	-0.45475
C	 0.1075450141	-0.0621004605	-0.0842315615	 0.464007
O	-1.029671788	-0.7725214621	-0.4882615092	-0.488284
C	 1.4981555255	-0.5831433648	-0.6007667135	-0.120894
C	 2.1806042568	 0.0842662863	 0.6254576264	-0.232604
C	 0.9140739035	-0.6322169511	 1.1684217073	-0.109686
N	 1.3294840918	-1.7894100954	 0.2970896468	-0.056373
C	 0.6335998112	-2.9242755068	 0.0051920517	 0.109672
O	 0.4545648078	-3.3605143394	-1.1189855765	-0.340147
H	-0.4494014369	 1.7012962845	-1.18151954	 0.13315
H	-1.214936884	 1.5417021897	 0.3983602001	 0.13904
H	 0.4674210729	 2.0825906059	 0.2901235718	 0.118207
H	-0.777462117	-1.5494064796	-1.003568795	 0.306419
H	 1.8599904804	-0.6830998857	-1.6230308824	 0.112169
H	 3.1212220623	-0.3769769767	 0.9220807129	 0.121749
H	 2.2174018768	 1.1695019035	 0.6619972061	 0.112989
H	 0.5890461888	-0.7761899834	 2.1988771085	 0.099216
H	 0.3107179528	-3.4595591596	 0.9189531218	 0.08612
122.9448	147.6035	177.0351	247.9301	262.2494	366.1123	395.9307	418.6187	481.4313	499.4099	608.5485	640.4858	696.8585	748.668	767.1334	843.9139	888.4926	957.813	979.5238	1022.764	1031.023	1040.342	1087.5003	1108.4229	1122.3194	1147.5866	1164.4332	1204.2402	1206.944	1243.9439	1276.3629	1363.2547	1385.5505	1412.2372	1424.732	1482.1428	1489.1396	1512.9029	1750.6231	2951.3152	3054.5529	3110.7658	3116.8435	3126.3287	3139.9465	3150.2256	3192.1594	3762.1084
CC1(O)C2CC1N2C=O	C[C@@]1(O)[C@H]2C[C@@H]1N2C=O	
InChI=1S/C6H9NO2/c1-6(9)4-2-5(6)7(4)3-8/h3-5,9H,2H2,1H3	InChI=1S/C6H9NO2/c1-6(9)4-2-5(6)7(4)3-8/h3-5,9H,2H2,1H3/t4-,5+,6-
