12
gdb 8727	2.65394	1.86856	1.22248	3.1948	63.33	-0.2708	-0.0806	0.1902	939.6045	0.079598	-381.269679	-381.261306	-381.260362	-381.302858	29.569	
O	 0.0445088986	 1.4916005771	-0.098526465	-0.409155
C	 0.0219491314	 0.0936622696	-0.0500571955	-0.117815
C	 0.6797375198	-0.5342245051	-1.2024981832	 0.326614
C	 1.2306035469	-1.0425606274	-2.1412424825	-0.471874
C	 0.7185798881	-0.3894491785	 1.245475202	 0.211794
O	 1.2814012307	 0.4188611485	 1.9516693476	-0.303899
C	 0.6454094606	-1.7948708612	 1.5467221416	 0.292563
C	 0.5429309074	-2.9675520164	 1.7958672224	-0.39281
H	 0.6658640855	 1.7637880602	 0.597362455	 0.299778
H	-1.0216419487	-0.2552737345	-0.0054568671	 0.1307
H	 1.7111340963	-1.486674817	-2.9781176349	 0.208286
H	 0.4632929435	-4.0038044651	 2.0212739295	 0.225818
52.6543	110.9237	159.4046	215.0808	260.0623	323.7402	405.1746	420.9831	460.4927	586.3778	599.8548	637.1766	656.6314	680.267	699.8926	720.041	867.2437	971.3869	1087.9565	1149.523	1240.6054	1331.1137	1426.2798	1766.9351	2219.0525	2234.1919	2988.843	3492.8004	3501.4747	3673.4806
OC(C#C)C(=O)C#C	O[C@@H](C#C)C(=O)C#C	
InChI=1S/C6H4O2/c1-3-5(7)6(8)4-2/h1-2,5,7H	InChI=1S/C6H4O2/c1-3-5(7)6(8)4-2/h1-2,5,7H/t5-/m0/s1
