14
gdb 25488	5.34396	0.99884	0.85619	2.1518	73.79	-0.2581	-0.0549	0.2032	1261.4673	0.10293	-432.905191	-432.897923	-432.896979	-432.937721	26.239	
N	-2.4490561808	 1.1727073613	-0.1630220879	-0.416991
C	-2.2684565478	-0.0008845958	 0.2476002187	 0.107362
O	-1.2071743105	-0.7135642747	-0.2314262056	-0.217183
C	-1.166135177	-2.0629975811	-0.007828913	 0.288308
C	 0.0640418437	-2.6522536461	 0.278039091	-0.040343
N	 0.1856908503	-3.9634274061	 0.4663874382	-0.24033
C	-0.9365937915	-4.6816761377	 0.3727952977	 0.076521
N	-2.1560446904	-4.2242632076	 0.0931022829	-0.236102
C	-2.2669179106	-2.910112349	-0.1079830588	-0.070927
H	-3.2439581261	 1.5943949797	 0.3131128845	 0.24268
H	-2.8525328406	-0.5520460648	 0.9933337096	 0.112323
H	 0.957789857	-2.0368797212	 0.3462125113	 0.138098
H	-0.8436486778	-5.7517195466	 0.5359605517	 0.127669
H	-3.2510502879	-2.5271054304	-0.3682284103	 0.128917
68.0243	110.5337	172.5462	271.7155	399.8629	431.9484	453.3114	530.771	626.7077	701.5289	751.093	828.2481	868.1407	935.5379	983.5154	1006.2287	1034.3361	1049.4931	1053.1713	1148.5417	1213.5534	1239.8802	1256.2931	1300.0504	1364.4766	1409.5902	1454.8523	1469.2463	1594.7748	1616.0248	1750.3885	3059.0511	3157.2232	3167.6852	3179.6028	3522.8983
N=COC1=CN=CN=C1	[NH][CH]Oc1cncnc1	
InChI=1S/C5H5N3O/c6-3-9-5-1-7-4-8-2-5/h1-4,6H	InChI=1S/C5H5N3O/c6-3-9-5-1-7-4-8-2-5/h1-4,6H
