22
gdb 60480	5.97216	0.46956	0.44979	5.4388	84.53	-0.2726	0.0407	0.3133	2383.8198	0.192175	-404.376113	-404.365066	-404.364121	-404.413565	38.769	
C	-0.0007986997	 1.5820017998	-0.0610238635	-0.404094
C	-0.0086846695	 0.0539292086	-0.0169410682	 0.12956
O	 0.6677157334	-0.4984342187	-1.1451243323	-0.433797
C	 0.6962428449	-0.4941573115	 1.2239153609	-0.175125
C	 0.6573427358	-2.0226082913	 1.3183618139	-0.185884
C	 1.3980500869	-2.5592900601	 2.5459268085	-0.18393
C	 1.3559481868	-4.0989794909	 2.6164100609	-0.341312
C	 2.0524871306	-4.6318971016	 3.7852478954	 0.256112
N	 2.6069101872	-5.034850082	 4.7157780737	-0.306992
H	 1.0269415837	 1.9587857819	-0.0658455832	 0.12575
H	-0.5022327277	 1.9489149379	-0.9641428238	 0.104814
H	-0.5244460117	 2.0050909261	 0.8025030232	 0.116771
H	-1.0561942748	-0.2952428071	-0.0041491781	 0.062223
H	 0.2417948467	-0.1670307467	-1.941636725	 0.282329
H	 1.7390865883	-0.1513922776	 1.2044769461	 0.104597
H	 0.2322620774	-0.051312194	 2.114028857	 0.094673
H	-0.3884263328	-2.3598506093	 1.3473377545	 0.09175
H	 1.0922448625	-2.4430461659	 0.4051347482	 0.12265
H	 2.4439604008	-2.2324335572	 2.5268138726	 0.120863
H	 0.9613855893	-2.1485360049	 3.4637513995	 0.116688
H	 0.3171700287	-4.449056247	 2.6432160654	 0.149712
H	 1.807483253	-4.5309240986	 1.7155326542	 0.152642
40.9083	66.6414	77.6161	115.85	148.2426	169.9514	241.5266	268.7108	279.8505	315.6299	400.1852	414.9426	465.2549	494.6139	563.4541	736.0038	779.7493	848.8763	896.0831	926.1567	952.3929	1014.0097	1024.5446	1036.9781	1065.4418	1085.6284	1136.2661	1141.0104	1175.595	1250.4586	1260.3946	1300.6079	1315.7022	1327.344	1331.859	1366.9869	1386.0117	1399.7459	1406.6851	1429.3847	1467.8541	1474.2821	1489.8371	1492.6302	1499.0636	1509.5423	2361.622	2944.7196	3010.6462	3021.6612	3028.2	3033.6718	3043.2405	3057.3699	3063.5684	3077.879	3093.4041	3094.5508	3112.1775	3822.0172
CC(O)CCCCC#N	C[C@@H](O)CCCCC#N	
InChI=1S/C7H13NO/c1-7(9)5-3-2-4-6-8/h7,9H,2-5H2,1H3	InChI=1S/C7H13NO/c1-7(9)5-3-2-4-6-8/h7,9H,2-5H2,1H3/t7-/m1/s1
