25
gdb 101704	3.37101	0.69792	0.64569	1.3356	89.94	-0.2612	0.078	0.3393	1860.1631	0.227207	-389.480639	-389.46946	-389.468516	-389.517591	40.832	
C	 0.3214142451	 1.4900533033	-0.2335446909	-0.39266
C	-0.0332368054	 0.026894934	 0.0619265109	 0.05244
C	 0.6983321073	-0.4640223213	 1.3125587804	-0.080593
O	 2.0984216255	-0.3746612858	 1.0849078507	-0.424071
C	-1.549062279	-0.2060072235	 0.2162052933	-0.226401
C	-2.3484001296	 0.0811389969	-1.0394103465	 0.006635
C	-2.4435870937	-0.9396186704	-2.1515507846	-0.291024
C	-3.6727559944	-0.5846991252	-1.3484282357	-0.005684
C	-4.3331142725	-1.5944384431	-0.4343846704	-0.404048
H	 1.4057544812	 1.6187179457	-0.250969663	 0.13204
H	-0.0771470707	 1.8166851856	-1.1980075469	 0.111032
H	-0.0860997655	 2.1534518336	 0.5400746725	 0.102
H	 0.3231542663	-0.5906392184	-0.7738587253	 0.08338
H	 0.3978259454	 0.1489384052	 2.1795387749	 0.079533
H	 0.4025206696	-1.5036177726	 1.5285468793	 0.078915
H	 2.5515987301	-0.6124894404	 1.8985074335	 0.285143
H	-1.7116402294	-1.2454495249	 0.5246565426	 0.087147
H	-1.9250672125	 0.4189385146	 1.0397009985	 0.089773
H	-2.2859710447	 1.1147614302	-1.3688965848	 0.082256
H	-2.3687080583	-0.6106420399	-3.1824501036	 0.105562
H	-1.998596493	-1.9138235595	-1.9673378316	 0.104658
H	-4.3853159124	 0.059176781	-1.8589578475	 0.079366
H	-3.6078667334	-2.2734644837	 0.0228148261	 0.115504
H	-4.8847783648	-1.1036385062	 0.3757795387	 0.114037
H	-5.0460221213	-2.2112907652	-0.9930226506	 0.115062
43.0059	66.7934	105.6212	129.3466	186.2747	215.4163	239.6044	241.8137	261.1347	318.4373	357.6664	402.8951	438.2892	447.6222	558.9187	759.7431	816.957	840.598	864.3191	875.7858	918.6178	931.6415	951.8827	963.9976	1035.9375	1061.8236	1071.4722	1092.141	1107.0012	1116.759	1154.5874	1170.7279	1191.7874	1199.5608	1229.0007	1249.0811	1264.1583	1284.0307	1309.3849	1359.9084	1382.9097	1397.1929	1405.6766	1418.2894	1431.6249	1457.1901	1479.624	1493.8767	1494.9326	1496.5864	1506.7371	1509.0226	1520.4478	2951.8365	2980.2665	2999.1858	3019.4645	3027.874	3030.0065	3053.5079	3083.49	3097.9192	3103.838	3119.7495	3126.9191	3129.7626	3142.1722	3203.762	3834.6402
CC(CO)CC1CC1C	C[C@@H](CO)C[C@H]1C[C@H]1C	
InChI=1S/C8H16O/c1-6(5-9)3-8-4-7(8)2/h6-9H,3-5H2,1-2H3	InChI=1S/C8H16O/c1-6(5-9)3-8-4-7(8)2/h6-9H,3-5H2,1-2H3/t6-,7-,8+/m1/s1
