21
gdb 57574	2.70626	1.30683	1.09409	1.7236	77.96	-0.2641	0.0824	0.3466	1203.5464	0.180899	-424.19241	-424.183066	-424.182122	-424.226379	35.866	
C	-0.0760473999	 1.7077506564	-0.1111320116	-0.40426
C	-0.0080392047	 0.1831505375	 0.0065777171	 0.292041
O	 0.7288995354	-0.1181263762	 1.1830621233	-0.474501
C	-1.4199261884	-0.4057236301	 0.0675204879	 0.011404
C	-1.6963729168	-1.73031716	 0.7293732267	-0.279113
C	-2.1748869862	-0.4499058743	 1.3686453797	-0.277488
C	 0.7285556438	-0.4064153092	-1.1991394876	 0.063023
C	 2.1917969029	-0.4318610244	-1.2732582458	-0.193154
O	 1.4487444313	-1.6166187723	-0.9334857778	-0.256445
H	 0.9293283357	 2.1355192001	-0.1474458076	 0.117384
H	-0.6175642689	 2.0063907413	-1.0145130437	 0.110336
H	-0.6006054406	 2.1217269782	 0.7538291083	 0.131017
H	 1.0929263622	-1.0044840391	 1.0426024575	 0.291917
H	-2.0091702374	-0.1880540714	-0.8203657478	 0.07562
H	-2.423407795	-2.3893326588	 0.2682429533	 0.10866
H	-0.8728812845	-2.2448010574	 1.2111658367	 0.110461
H	-1.643725913	-0.1205199884	 2.2542788649	 0.125742
H	-3.2356014552	-0.2253808338	 1.3588340248	 0.105697
H	 0.1626045126	-0.4206088351	-2.1308097628	 0.093316
H	 2.6851446661	-0.4629706478	-2.2425285552	 0.120032
H	 2.7700770009	-0.0066273054	-0.4568697003	 0.128311
71.4972	101.9009	173.6648	208.5258	240.3375	246.9546	299.2366	375.507	390.2072	400.0545	547.8064	568.8621	599.2736	719.0585	788.2148	812.1094	831.6311	868.8507	910.1351	939.7432	947.7744	972.3269	1015.2247	1059.0016	1069.2504	1087.3781	1092.0478	1115.4348	1139.8115	1157.3287	1168.8706	1182.3391	1198.985	1231.1409	1244.4844	1290.8056	1368.5924	1397.7902	1409.6676	1434.3591	1459.6784	1484.8252	1493.0506	1501.3671	1515.5213	3042.3501	3099.6226	3111.3363	3114.7066	3126.2153	3130.8654	3136.9284	3141.5123	3194.4851	3216.9576	3231.6679	3728.418
CC(O)(C1CC1)C1CO1	C[C@@](O)(C1CC1)[C@H]1CO1	
InChI=1S/C7H12O2/c1-7(8,5-2-3-5)6-4-9-6/h5-6,8H,2-4H2,1H3	InChI=1S/C7H12O2/c1-7(8,5-2-3-5)6-4-9-6/h5-6,8H,2-4H2,1H3/t6-,7-/m1/s1
