18
gdb 10052	3.34271	1.248	0.9754	2.6576	74.24	-0.2489	-0.0236	0.2254	1207.7251	0.150112	-347.785125	-347.77548	-347.774535	-347.820256	33.566	
C	-0.0127029327	 1.5648295988	 0.0554105357	-0.394829
C	-0.0276075833	 0.0387442199	-0.065705526	-0.194574
C	 0.7506922303	-0.4958708297	-1.2908967079	-0.050548
C	 0.9209538218	-2.0304165135	-1.2075665786	-0.386345
C	 1.6650441973	-2.5856358263	-2.3317952425	 0.283504
C	 2.2784437674	-3.0096354356	-3.2742681248	-0.420266
C	-0.004567763	-0.1187861215	-2.5533510936	 0.1767
O	 0.2395205148	 0.8318474392	-3.2486948921	-0.249819
H	 1.0090934028	 1.937717955	 0.1804869039	 0.123079
H	-0.4294876064	 2.0444148575	-0.834753224	 0.139544
H	-0.5971535961	 1.8894030802	 0.9213769907	 0.116496
H	 0.4079089435	-0.4093149114	 0.8358740477	 0.104993
H	-1.0635632174	-0.3250075836	-0.1125610789	 0.102992
H	 1.7332166531	-0.0155394503	-1.3383771844	 0.106222
H	 1.4250544882	-2.2804340907	-0.2664049064	 0.136812
H	-0.0705622164	-2.5012706748	-1.154335132	 0.133281
H	 2.8189807585	-3.3925410236	-4.1042098729	 0.200226
H	-0.8709532525	-0.7875814697	-2.7777930339	 0.072532
55.8852	68.2391	94.7925	118.5359	212.8526	243.8932	300.8923	337.9346	345.863	381.9518	478.089	578.9017	630.2517	646.3952	775.9545	840.0951	891.2584	954.2835	970.7491	1009.9847	1033.8603	1092.3026	1119.1234	1156.402	1219.2549	1263.1734	1291.6146	1350.702	1354.3289	1368.5026	1419.9131	1428.3558	1469.5486	1489.066	1497.8983	1506.2314	1835.6465	2240.0905	2839.1706	3011.8296	3016.4162	3040.9491	3048.7194	3053.4752	3074.6367	3108.3193	3118.6515	3506.4735
CCC(CC#C)C=O	CC[C@@H](CC#C)C=O	
InChI=1S/C7H10O/c1-3-5-7(4-2)6-8/h1,6-7H,4-5H2,2H3	InChI=1S/C7H10O/c1-3-5-7(4-2)6-8/h1,6-7H,4-5H2,2H3/t7-/m0/s1
