17
gdb 85466	2.42243	1.44226	1.07196	4.3578	73.64	-0.2663	0.0088	0.2751	1145.9743	0.134924	-421.842143	-421.833575	-421.832631	-421.875471	32.046	
C	-0.6544811441	 1.3785652905	 0.0067909582	-0.41945
C	 0.0827170117	 0.047195668	-0.0722093323	 0.001145
C	 1.2514090571	-0.0270594099	-1.0593706453	-0.372271
C	 2.1117095588	-1.1562254622	-0.5084855201	 0.431098
O	 2.9556173539	-1.7988612094	-1.0567821832	-0.327758
O	 1.7695575567	-1.3775499088	 0.7992092549	-0.212623
C	 0.7795635514	-0.4209862713	 1.2386872958	-0.094502
C	 1.420641386	 0.6506896453	 1.9975349063	 0.366905
C	 1.9436153196	 1.5336328587	 2.6224818147	-0.47644
H	 0.0280914473	 2.1940091592	 0.2611974138	 0.135871
H	-1.1247166834	 1.6102762713	-0.9535813669	 0.124019
H	-1.4432852427	 1.3506417276	 0.7656263615	 0.123782
H	-0.6311755912	-0.7446533141	-0.3285529903	 0.098309
H	 0.9701170421	-0.2322472368	-2.0928407191	 0.140043
H	 1.8446475814	 0.8954701905	-1.0473816767	 0.144713
H	 0.0871373348	-0.9644657381	 1.887978472	 0.125969
H	 2.4125008306	 2.3057569496	 3.1819529366	 0.211188
84.7881	111.3883	151.9242	226.4543	256.1927	276.8603	376.3611	473.2426	503.3503	515.5739	577.7791	641.6211	642.7405	678.7495	729.0428	838.1392	848.6159	919.7389	929.1362	979.5327	1029.1749	1071.8805	1122.8166	1156.6029	1168.4118	1185.2949	1274.5027	1300.1129	1339.4459	1372.6072	1384.0293	1416.1884	1462.8339	1496.6016	1497.4383	1892.5393	2236.8616	3033.8736	3040.4252	3052.1987	3071.3499	3106.5804	3120.9536	3131.6184	3499.0954
CC1CC(=O)OC1C#C	C[C@H]1CC(=O)O[C@H]1C#C	
InChI=1S/C7H8O2/c1-3-6-5(2)4-7(8)9-6/h1,5-6H,4H2,2H3	InChI=1S/C7H8O2/c1-3-6-5(2)4-7(8)9-6/h1,5-6H,4H2,2H3/t5-,6-/m0/s1
