22
gdb 91938	2.09998	1.70384	1.28834	0.5457	80.71	-0.2371	0.0715	0.3086	1113.3502	0.194266	-404.336952	-404.327844	-404.3269	-404.370184	36.267	
C	 0.0945399975	 1.5996472197	-0.1294707586	-0.421788
C	 0.1002546966	 0.0777452115	-0.0011042228	 0.011135
C	 0.6946111027	-0.6627429545	-1.2281359972	-0.237385
C	 1.184436115	-1.9966352092	-0.6778288708	-0.045552
N	 2.4966670843	-1.8771594086	-0.0073552073	-0.341927
C	 1.2619010226	-1.9061279382	 0.8002928182	-0.061891
C	 0.7933872552	-0.5257914152	 1.2752542026	 0.365449
C	 1.9381083266	 0.3113224513	 1.8479704494	-0.434053
O	-0.1762581848	-0.7849081559	 2.2978130942	-0.482781
H	 1.1066583771	 2.0001186448	-0.2474780903	 0.121486
H	-0.486810526	 1.909974836	-1.0042304359	 0.113627
H	-0.356893569	 2.0813504062	 0.7457466316	 0.101763
H	-0.9370532667	-0.2643990277	 0.099480223	 0.080869
H	-0.0604986444	-0.7942943288	-2.0089862114	 0.096304
H	 1.5315701996	-0.1094723559	-1.6688334641	 0.105452
H	 0.9414724369	-2.9246475745	-1.1851035157	 0.08508
H	 2.9420931771	-2.7907581366	 0.037529366	 0.229427
H	 1.0705362478	-2.744675899	 1.461278062	 0.089705
H	 2.7252354042	 0.460554632	 1.1064003523	 0.138528
H	 1.5805984303	 1.2922355333	 2.1812431181	 0.097149
H	 2.3729957463	-0.2033653116	 2.7098340432	 0.114934
H	-0.4388423789	 0.0618619408	 2.6728723437	 0.274468
62.1217	223.4793	232.7471	247.1893	261.4273	279.1953	284.4632	363.2933	387.4107	435.0916	475.0101	508.7304	570.9226	665.6171	702.7347	814.6224	856.6265	872.8399	919.1298	923.0029	941.6563	950.7255	983.7903	1001.3384	1069.2807	1090.7706	1113.4823	1128.1473	1138.4635	1142.8804	1190.5327	1208.6137	1237.8358	1253.0145	1302.5202	1326.2288	1344.4786	1373.3438	1393.1022	1403.1415	1410.5331	1428.0024	1482.4266	1487.4763	1493.1257	1503.6015	1505.9294	3024.7493	3026.3181	3036.8588	3041.6524	3085.8724	3087.7971	3100.5597	3102.9728	3136.0959	3158.4605	3173.1164	3493.4885	3814.7041
CC1CC2NC2C1(C)O	C[C@H]1C[C@H]2N[C@H]2[C@]1(C)O	
InChI=1S/C7H13NO/c1-4-3-5-6(8-5)7(4,2)9/h4-6,8-9H,3H2,1-2H3	InChI=1S/C7H13NO/c1-4-3-5-6(8-5)7(4,2)9/h4-6,8-9H,3H2,1-2H3/t4-,5+,6+,7+/m0/s1
