21
gdb 120660	2.95525	0.98706	0.85004	1.5354	80.06	-0.2348	0.0751	0.3099	1450.3378	0.180953	-424.175292	-424.165819	-424.164875	-424.210395	34.368	
C	-0.201580002	 1.3989152292	-0.0991413633	-0.387194
C	-0.2983453801	-0.0945934041	-0.3554823277	-0.040623
O	-1.299330683	-0.6309604941	 0.5010588916	-0.247408
C	-1.4815295605	-2.0004534022	 0.3405037696	 0.065495
C	-2.7431293219	-2.5824252219	 0.9037861975	-0.398444
C	-2.5556699026	-2.4955021548	-0.5858892014	 0.262045
C	-3.3558045371	-1.681394656	-1.5939372379	-0.130902
O	-3.1761863119	-2.7133846537	-2.5925378132	-0.277268
C	-2.4992505285	-3.5799064695	-1.6546221986	-0.138926
H	 0.571301791	 1.8442010398	-0.7325501039	 0.117198
H	-1.1544511089	 1.8894220824	-0.3174982889	 0.127278
H	 0.0512230441	 1.5923536646	 0.9470928896	 0.128979
H	-0.5475828921	-0.2972251862	-1.4079167964	 0.097681
H	 0.6664898049	-0.5867935959	-0.1509142523	 0.090199
H	-0.5663827712	-2.5928890715	 0.41575065	 0.082664
H	-2.693372346	-3.5530302499	 1.3871807304	 0.116565
H	-3.4416887067	-1.8832329308	 1.3529291026	 0.127667
H	-4.4157588918	-1.5341534275	-1.3458945165	 0.100299
H	-2.9265038642	-0.7212232872	-1.9044893558	 0.106892
H	-1.5004310156	-3.8713228089	-2.0061528303	 0.099321
H	-3.0829834359	-4.4864182818	-1.4417225152	 0.098482
58.2792	81.8348	124.2647	133.4284	188.4315	248.2267	271.239	323.6715	402.4249	443.9363	502.5705	619.8682	802.8829	821.5033	845.9565	868.0874	885.3398	922.0428	974.1391	999.3407	1024.3303	1041.6093	1063.9139	1083.0657	1119.7053	1128.5256	1146.3616	1156.7394	1159.6579	1188.4989	1204.1348	1226.4965	1295.7236	1303.4133	1320.3776	1373.1801	1400.3053	1416.0161	1439.0336	1483.535	1494.5436	1499.9323	1511.5282	1530.1384	1538.5667	2971.0494	2992.4102	3005.3393	3007.9429	3035.2643	3045.899	3052.9932	3070.6617	3120.4415	3122.8602	3124.4873	3213.21
CCOC1CC11COC1	CCO[C@H]1CC21COC2	
InChI=1S/C7H12O2/c1-2-9-6-3-7(6)4-8-5-7/h6H,2-5H2,1H3	InChI=1S/C7H12O2/c1-2-9-6-3-7(6)4-8-5-7/h6H,2-5H2,1H3/t6-/m0/s1
