22
gdb 82923	2.44382	1.77293	1.37657	1.2504	84.98	-0.2164	0.0853	0.3017	1054.9976	0.19537	-367.186071	-367.177685	-367.176741	-367.218292	33.788	
C	 1.1164855828	 2.6182263015	-0.1610543319	-0.317761
N	 0.9064329905	 1.1955157935	-0.3774295432	-0.098882
C	 2.0160349279	 0.2483168598	-0.3802791627	-0.02747
C	 3.3624151389	 0.6607900968	 0.2229732465	-0.264736
C	 3.0941034854	 0.8141629898	 1.7175990077	-0.061472
C	 2.6657771313	-0.4298576696	 2.4604175507	-0.346183
C	 1.6233640313	 0.5693529411	 2.0124219199	 0.356923
C	 0.8380492473	 1.344268538	 3.0466901286	-0.486764
C	 0.973318933	 0.2107124584	 0.698129408	-0.112991
H	 1.8695994298	 2.8814118615	 0.5942647539	 0.110647
H	 1.4153561608	 3.0737868949	-1.1110874116	 0.118442
H	 0.1649134124	 3.0704772558	 0.1371417288	 0.121354
H	 2.0183399333	-0.4499777563	-1.2135736501	 0.084396
H	 4.1189167564	-0.1052689702	 0.0171132492	 0.100501
H	 3.7331347188	 1.5940156522	-0.218216895	 0.100859
H	 3.6387611557	 1.5735355091	 2.2698581574	 0.078232
H	 2.7327782083	-1.3874732723	 1.9518833364	 0.10739
H	 2.8810391753	-0.4736282965	 3.5232301034	 0.10625
H	 1.4593864846	 1.5773942384	 3.9175093969	 0.113269
H	 0.4567026068	 2.2888392582	 2.6453137813	 0.119257
H	-0.0223732483	 0.7651167118	 3.4021805641	 0.118065
H	 0.1619131078	-0.5161271658	 0.7059642116	 0.080671
162.6192	172.8892	201.7227	210.4291	277.951	297.5267	338.3599	419.0233	478.0727	515.9715	569.8554	717.3281	739.9102	765.208	814.3017	833.7253	877.3707	905.1984	947.2165	967.9892	980.762	1022.1867	1040.1802	1058.0052	1071.2304	1098.4905	1116.5657	1126.0228	1137.0579	1157.3104	1179.8139	1225.3893	1254.0162	1281.9379	1308.6577	1320.9599	1345.8787	1390.3044	1400.5747	1420.3836	1451.6118	1485.4761	1488.8287	1491.9485	1495.4822	1502.7155	1509.4559	3001.8427	3026.0708	3028.2137	3059.3879	3068.1326	3086.4512	3094.0826	3100.646	3108.212	3117.2373	3134.4961	3155.9745	3202.8616
CN1C2CC3CC3(C)C12	CN1[C@H]2C[C@@H]3C[C@]3(C)[C@@H]12	
InChI=1S/C8H13N/c1-8-4-5(8)3-6-7(8)9(6)2/h5-7H,3-4H2,1-2H3	InChI=1S/C8H13N/c1-8-4-5(8)3-6-7(8)9(6)2/h5-7H,3-4H2,1-2H3/t5-,6+,7+,8+,9?/m1/s1
