21
gdb 81698	2.54394	1.55913	1.27156	1.4773	82.84	-0.2388	0.0324	0.2712	1087.6912	0.184904	-387.089208	-387.081288	-387.080344	-387.121115	32.239	
O	 0.393801372	 1.0758453214	-0.3998029691	-0.446305
C	 0.0490702854	-0.2400796705	-0.0137682325	 0.150719
C	 0.1725350233	-0.5402906862	 1.5105389308	-0.042014
C	-1.3646519199	-0.3310409075	 1.6430911686	-0.25983
C	-1.4795690205	-0.5207099846	 0.1019491255	-0.042015
C	-1.8799744093	-1.9318253521	-0.3199727198	-0.268329
C	-1.1210147688	-3.0826557075	 0.2896305033	-0.047356
C	-0.1045948549	-3.0947023251	 1.1562345542	-0.047356
C	 0.6330241416	-1.9616092056	 1.8226162648	-0.268329
H	-0.0812427079	 1.6938771548	 0.1659335301	 0.276792
H	 0.6130865925	-0.8947238494	-0.6843902257	 0.083134
H	 0.8046679089	 0.1741826743	 2.0473758921	 0.06227
H	-1.9084674868	-1.0415072174	 2.2710437781	 0.102086
H	-1.6278014175	 0.68068074	 1.9657977808	 0.087974
H	-2.0996982877	 0.2086048012	-0.4288973907	 0.062269
H	-2.9492729701	-2.0793837822	-0.1050322508	 0.106109
H	-1.7982228193	-2.0113115526	-1.4148909306	 0.10995
H	-1.479046937	-4.0541757893	-0.0495164666	 0.082087
H	 0.2735031355	-4.0749470384	 1.4447153192	 0.082087
H	 1.7000688421	-2.0527725705	 1.5677586646	 0.10995
H	 0.5877643086	-2.1213050029	 2.9106516136	 0.106109
134.5444	203.8493	243.7274	270.017	331.482	334.8915	387.5731	407.2121	417.3693	587.4154	677.8208	752.3309	808.6616	822.53	838.4273	862.6148	881.8584	884.7795	952.5434	1007.4314	1012.8718	1029.0497	1059.112	1080.3456	1093.6141	1108.6236	1128.5349	1158.6023	1195.2557	1222.4968	1238.1812	1272.8879	1279.9349	1284.1626	1318.3288	1321.4873	1361.9879	1377.1213	1395.954	1435.1665	1435.782	1464.8717	1467.0972	1489.5109	1731.5677	2988.8574	2988.977	3009.8999	3010.849	3045.097	3052.7458	3060.7831	3071.6664	3101.905	3116.3697	3141.2024	3805.5021
OC1C2CC1CC=CC2	O[C@H]1[C@H]2C[C@@H]1CC=CC2	
InChI=1S/C8H12O/c9-8-6-3-1-2-4-7(8)5-6/h1-2,6-9H,3-5H2	InChI=1S/C8H12O/c9-8-6-3-1-2-4-7(8)5-6/h1-2,6-9H,3-5H2/t6-,7+,8+
