17
gdb 68524	2.85065	1.75236	1.43059	4.3391	71.86	-0.2463	-0.0218	0.2245	952.8862	0.13716	-421.871935	-421.864835	-421.863891	-421.903065	28.879	
C	-0.1156551728	 1.4795464546	-0.0021400796	-0.49028
C	 0.0690534215	-0.0154260971	-0.0060684019	 0.385403
C	 0.7555713207	-0.7146624201	-1.1964666983	-0.25879
C	 0.4618264054	-2.11876836	-0.6058463359	-0.213179
C	 1.0270823073	-1.9417710478	 0.8046782582	-0.09302
C	 0.7974481418	-0.6778895014	 1.1656912705	-0.110257
C	-1.0636605513	-1.9592534816	-0.4245818147	 0.452231
O	-1.9386321264	-2.7644555377	-0.5505439084	-0.353166
O	-1.27041206	-0.6586575551	-0.0716354959	-0.276531
H	 0.8597766795	 1.9749550006	 0.0181759089	 0.126843
H	-0.6564033389	 1.8063751933	-0.8941454598	 0.134899
H	-0.681975782	 1.797151396	 0.8779903716	 0.137975
H	 0.2518934332	-0.5105420655	-2.1461340655	 0.114901
H	 1.8227534867	-0.499660368	-1.2703493975	 0.114045
H	 0.7440357157	-3.0112730732	-1.1574636445	 0.095056
H	 1.4443019012	-2.7452629209	 1.3962069639	 0.121213
H	 0.9863929083	-0.2013655263	 2.118216709	 0.112657
159.3155	201.997	272.752	284.8573	402.7399	461.2537	482.5564	533.3404	607.2028	648.4537	705.3581	756.706	781.4911	839.4273	858.0983	895.645	907.8022	927.3536	956.0134	962.1873	1001.4724	1078.7968	1082.3165	1094.3076	1161.1139	1221.0549	1229.4201	1246.2308	1282.3414	1294.5082	1358.5952	1417.8205	1481.5347	1489.4938	1493.4245	1639.6364	1887.9082	3045.655	3062.4368	3118.4785	3124.4035	3132.7959	3163.1034	3214.9256	3239.9005
CC12CC(C=C1)C(=O)O2	C[C@@]12C[C@@H](C=C1)C(=O)O2	
InChI=1S/C7H8O2/c1-7-3-2-5(4-7)6(8)9-7/h2-3,5H,4H2,1H3	InChI=1S/C7H8O2/c1-7-3-2-5(4-7)6(8)9-7/h2-3,5H,4H2,1H3/t5-,7+/m1/s1
