15
gdb 46808	2.65333	1.66294	1.19916	5.727	71.54	-0.2758	-0.0016	0.2741	1011.1136	0.114488	-416.826183	-416.81881	-416.817866	-416.858127	27.917	
N	-0.0560199029	 1.2381576136	 0.3060634405	-0.528823
C	-0.0158656358	 0.0136166288	 0.0219327088	 0.365415
O	 1.1162652596	-0.7077999047	-0.2530296906	-0.248146
C	 0.7999832785	-1.9603873836	-0.88445519	-0.108319
C	-0.6639664407	-2.2244822063	-0.5893610423	-0.112192
C	-1.0777429552	-2.1430166595	 0.8404034465	-0.310594
C	-1.2001422932	-0.9018350581	-0.0482910148	 0.117201
C	-2.4940461961	-0.3816432301	-0.3744434717	 0.232938
N	-3.5520476208	-0.000755843	-0.641837656	-0.340454
H	 0.8741435356	 1.6557502061	 0.2575197177	 0.234187
H	 0.9784357005	-1.8749650595	-1.9624163882	 0.130881
H	 1.4713827822	-2.7189786606	-0.4717227179	 0.132764
H	-1.2464706737	-2.8081092912	-1.2901926818	 0.133412
H	-2.0129798146	-2.6120579975	 1.1200204596	 0.154028
H	-0.3191242035	-2.1168939944	 1.6154399103	 0.147701
116.86	147.4305	183.3702	248.8448	370.5285	396.5524	495.4958	553.4076	576.5641	653.4211	700.2493	738.5808	833.9915	879.0844	899.3684	919.7126	957.1642	977.0994	1035.8596	1070.1723	1075.6809	1100.9134	1127.9188	1202.1403	1229.1636	1262.9008	1330.5734	1381.6498	1415.3999	1486.5345	1519.4679	1787.0265	2366.019	3040.9466	3092.9272	3143.5671	3207.6823	3241.5912	3488.6171
N=C1OCC2CC12C#N	[NH][C]1OC[C@H]2C[C@@]12C#N	
InChI=1S/C6H6N2O/c7-3-6-1-4(6)2-9-5(6)8/h4,8H,1-2H2	InChI=1S/C6H6N2O/c7-3-6-1-4(6)2-9-5(6)8/h4,8H,1-2H2/t4-,6+/m1/s1
