21
gdb 77528	2.29339	1.74301	1.25726	2.4399	77.79	-0.2417	0.0728	0.3145	1076.919	0.182188	-424.220529	-424.211614	-424.21067	-424.253138	35.719	
C	-0.1433448632	 1.5335575171	-0.0012721933	-0.432299
C	 0.0190893155	 0.0202640423	 0.013011537	-0.033783
C	 1.1389478297	-0.5969800115	-0.8756870859	 0.42862
O	 1.2742312937	-0.1125630819	-2.1746956543	-0.489967
C	 2.1491699645	-0.2747069307	 0.2726964818	-0.386192
C	 0.8920679675	-0.6042488496	 1.1411671804	 0.428672
O	 0.7095336822	-0.1290977418	 2.4378142023	-0.489972
C	 0.7150296047	-2.115514944	 0.8779552363	-0.281844
C	 0.9049676099	-2.1099228598	-0.6736473475	-0.281831
H	 0.8002281243	 2.0718993336	 0.1135311535	 0.11844
H	-0.5916510243	 1.8533006907	-0.9468892937	 0.122769
H	-0.8026242492	 1.8472875371	 0.8138018934	 0.122857
H	-0.9640367885	-0.4501114761	-0.1089818338	 0.059293
H	 2.0018083948	-0.5795111389	-2.5998118461	 0.276906
H	 3.031974861	-0.9139962426	 0.3784413336	 0.074954
H	 2.4315118377	 0.7760433266	 0.3110802026	 0.108085
H	 1.3137963848	-0.599281774	 3.0225562531	 0.276912
H	 1.4709391331	-2.7165796515	 1.3955299091	 0.085587
H	-0.2730143626	-2.4661420449	 1.1890462726	 0.103603
H	 0.0214530823	-2.4574945236	-1.2163649908	 0.103603
H	 1.7639379219	-2.7079409066	-0.9978535602	 0.085588
160.1358	194.3704	214.2256	237.2936	243.877	279.0587	287.3005	372.8839	433.0558	455.5503	491.3371	547.5005	588.4691	607.1405	695.9784	791.724	793.0552	854.0163	903.809	953.7752	958.9877	991.2912	1009.4779	1070.9187	1097.1412	1116.8267	1126.4088	1138.4204	1151.3803	1196.5092	1213.7004	1223.3794	1231.6308	1258.9717	1313.6681	1325.0408	1357.7896	1374.9934	1413.5427	1421.04	1488.7787	1490.4032	1496.0646	1504.7174	1524.9326	3026.6394	3034.1545	3043.233	3044.7683	3052.5199	3083.0842	3101.2906	3108.9808	3120.5377	3150.5431	3802.247	3802.5212
CC1C2(O)CC1(O)CC2	C[C@H]1[C@@]2(O)C[C@]1(O)CC2	
InChI=1S/C7H12O2/c1-5-6(8)2-3-7(5,9)4-6/h5,8-9H,2-4H2,1H3	InChI=1S/C7H12O2/c1-5-6(8)2-3-7(5,9)4-6/h5,8-9H,2-4H2,1H3/t5-,6-,7+
