19
gdb 36885	5.00521	0.91298	0.87132	1.759	76.49	-0.2379	0.0785	0.3165	1376.1365	0.158524	-422.922899	-422.914969	-422.914025	-422.956424	30.468	
C	-0.1772098518	 0.9539347836	-0.5556730565	-0.284489
C	 1.04002772	 1.2530663069	 0.2977067968	-0.287086
C	 0.4599638864	-0.1220962321	 0.2852301374	 0.13718
O	-0.1789577423	-0.5336668421	 1.4601616242	-0.267314
C	-1.1882157874	-1.476386139	 1.2479565071	 0.160891
C	-0.8815710111	-3.0113722688	 1.2517968344	 0.008767
C	-0.5314119376	-2.9273211624	 2.75587335	-0.22559
C	-1.8266226123	-2.1199032178	 2.4981431315	 0.000613
O	-2.3027867072	-3.2071491617	 1.6119191	-0.309489
H	-1.1265037175	 1.3482019042	-0.2108670854	 0.123339
H	-0.066429187	 0.9081582858	-1.6333470828	 0.11607
H	 1.9960158032	 1.4164884302	-0.1863663039	 0.11599
H	 0.8792046388	 1.8333845718	 1.1989600182	 0.127896
H	 1.0091269521	-0.9129380747	-0.2249122026	 0.088909
H	-1.9021031739	-1.1715698788	 0.4757976791	 0.086999
H	-0.4711227833	-3.6532802456	 0.471937507	 0.091197
H	-0.6715088242	-3.8546939618	 3.3122863473	 0.105948
H	 0.3623971954	-2.3720967006	 3.0419727184	 0.115124
H	-2.5395253203	-1.695592927	 3.2051475599	 0.095044
48.806	73.0904	141.5965	251.6045	347.9703	390.3313	457.2238	556.5902	613.3015	744.6878	760.1675	818.4004	826.7822	838.8788	873.058	894.8594	922.0186	936.6996	984.9185	992.752	1016.5751	1052.3996	1069.0206	1073.3546	1105.8189	1122.5965	1128.6934	1160.4055	1175.012	1193.1729	1194.0429	1204.4649	1231.4394	1241.6144	1262.2333	1290.605	1355.5227	1408.6953	1453.9017	1476.931	1497.5349	3066.8449	3082.6819	3104.359	3116.1593	3124.5635	3137.4542	3143.3489	3163.1662	3221.6501	3236.0276
C1CC1OC1C2CC1O2	C1CC1O[C@H]1[C@H]2C[C@@H]1O2	
InChI=1S/C7H10O2/c1-2-4(1)8-7-5-3-6(7)9-5/h4-7H,1-3H2	InChI=1S/C7H10O2/c1-2-4(1)8-7-5-3-6(7)9-5/h4-7H,1-3H2/t5-,6+,7+
