20
gdb 97120	2.75922	1.11199	0.83816	1.5256	78.57	-0.2486	0.0282	0.2768	1400.494	0.16907	-440.280486	-440.270355	-440.269411	-440.316143	35.812	
C	 0.1564994347	 1.3891517186	-0.057393578	-0.340706
N	 0.3094642555	-0.0596268861	-0.0824578893	-0.331143
C	 0.5747924595	-0.6649912127	 0.9797597314	 0.464389
O	 0.7589650305	-0.1911798889	 2.2690629683	-0.268452
C	 0.9622953839	-1.5484510493	 2.7760008588	-0.101199
C	 0.7703306988	-2.1210653177	 1.3572166127	-0.176094
C	-0.4254535741	-3.0552987038	 1.1446305541	 0.123961
C	-0.6380922819	-3.3799316418	-0.3307287724	-0.416488
O	-0.2833460746	-4.2243564154	 1.9465154663	-0.431885
H	 0.8961099012	 1.8393904213	-0.7287365186	 0.12742
H	-0.8319337158	 1.6511712344	-0.4503719572	 0.126927
H	 0.2690585929	 1.8337502576	 0.9380472416	 0.127971
H	 1.954845477	-1.6537523909	 3.2195201999	 0.117927
H	 0.1903375659	-1.820569711	 3.4995148345	 0.129656
H	 1.6750303868	-2.5622921265	 0.925568841	 0.092456
H	-1.3210254495	-2.5598897819	 1.5397250309	 0.095009
H	 0.2288610714	-3.9198083454	-0.7338214887	 0.103411
H	-1.5234052369	-4.0083881013	-0.4590778629	 0.122169
H	-0.7551595752	-2.4601657973	-0.9106475885	 0.156657
H	 0.38694554	-4.7819911118	 1.5356893861	 0.278016
72.4893	74.8536	103.5356	117.0452	199.5477	230.3585	255.0323	282.0261	308.8979	351.3154	384.0257	480.1274	575.1956	667.9015	737.8145	820.4518	916.7322	941.413	962.8864	984.4613	1038.8345	1070.1769	1076.1951	1114.7387	1121.5327	1132.3942	1150.7046	1180.0187	1191.0155	1223.1334	1263.4352	1318.3721	1346.66	1389.6971	1406.6329	1418.9363	1439.8428	1492.4019	1494.9953	1496.2763	1497.3575	1518.9379	1839.7489	3018.5263	3021.0037	3035.5015	3059.42	3067.6655	3082.8463	3089.4721	3098.2042	3126.2669	3130.6559	3795.6122
CN=C1OCC1C(C)O	CN=C1OC[C@H]1[C@@H](C)O	
InChI=1S/C6H11NO2/c1-4(8)5-3-9-6(5)7-2/h4-5,8H,3H2,1-2H3	InChI=1S/C6H11NO2/c1-4(8)5-3-9-6(5)7-2/h4-5,8H,3H2,1-2H3/t4-,5+/m1/s1
