13
gdb 130506	4.01942	1.67716	1.18338	3.6354	77.87	-0.2319	-0.0922	0.1396	938.9241	0.091139	-415.562049	-415.556041	-415.555097	-415.592314	24.151	
O	-0.1006985462	 1.2186494992	 0.0094423816	-0.206397
N	 0.9887439381	 2.0848014158	 0.0038939876	-0.096568
C	 2.1809531192	 1.5626399163	-0.0101805316	-0.035521
C	 2.4072042691	 0.1721132538	-0.019986574	 0.20918
C	 3.4677228466	-0.6882730411	-0.0349724644	-0.282577
C	 2.9389828038	-2.0391134126	-0.0370417917	-0.072669
C	 1.5687374411	-2.0293704601	-0.0237055008	-0.217765
C	 1.1817848239	-0.6444143632	-0.0128956306	 0.364281
N	-0.0122604456	-0.1463690797	 0.001157606	-0.165608
H	 2.9816881118	 2.2976306635	-0.0138937561	 0.143555
H	 4.5171857692	-0.4288039031	-0.0436699182	 0.116306
H	 3.5571005025	-2.9276626559	-0.0476878284	 0.118692
H	 0.8940510265	-2.8710812531	-0.0216008793	 0.12509
193.4055	227.4082	409.5929	409.8569	554.1189	576.0696	588.7723	595.9322	741.8747	744.0493	774.9112	806.2824	838.0759	859.5336	928.2904	945.5352	949.256	955.5296	1025.1213	1097.4796	1230.128	1259.1604	1305.6281	1373.1624	1402.2949	1483.8066	1556.1327	1635.747	1648.7682	3170.3442	3219.2765	3235.5624	3264.4221
O1N=CC2=CC=CC2=N1	o1ncc2cccc2n1	
InChI=1S/C6H4N2O/c1-2-5-4-7-9-8-6(5)3-1/h1-4H	InChI=1S/C6H4N2O/c1-2-5-4-7-9-8-6(5)3-1/h1-4H
