13
gdb 64557	2.99856	1.49363	1.12582	1.0341	59.52	-0.2683	-0.0694	0.1989	1007.6906	0.086033	-493.627719	-493.62012	-493.619175	-493.659932	28.341	
O	 0.0159640741	 1.401797284	 0.007825258	-0.472054
C	 0.0342144274	 0.0276498114	-0.0241629529	 0.389013
C	 1.0328067571	-0.48945279	-1.0363702983	 0.079039
O	 1.6963402008	 0.2775334166	-1.6917960566	-0.263333
C	-0.0359101179	-0.7065745452	 1.3679664811	-0.138087
O	-1.453353974	-0.2770912176	 1.4779933538	-0.291878
C	-1.363916821	-0.6918079666	 0.0546093924	-0.137862
C	-0.6553112398	-1.9345609401	 0.6525669702	 0.446746
O	-0.7166875674	-3.1174463496	 0.7012883863	-0.304741
H	 0.6767247808	 1.6835878803	-0.646330955	 0.302224
H	 1.1270742791	-1.5866056554	-1.1464619056	 0.127339
H	 0.6035420788	-0.5911030358	 2.2394816151	 0.131807
H	-2.241371878	-0.559816312	-0.5734214085	 0.131786
104.539	133.118	227.3203	265.1635	329.9055	377.19	451.8983	456.5818	528.0282	548.0452	689.9683	714.9951	781.8732	796.4764	835.6612	886.4751	960.4173	1031.7298	1039.4141	1088.8697	1118.3299	1132.2531	1159.8089	1225.0575	1320.0243	1389.9792	1452.4554	1807.1782	1940.0818	2959.7553	3165.2801	3169.1279	3677.1261
OC1(C=O)C2OC1C2=O	O[C@@]1(C=O)[C@H]2O[C@@H]1C2=O	
InChI=1S/C5H4O4/c6-1-5(8)3-2(7)4(5)9-3/h1,3-4,8H	InChI=1S/C5H4O4/c6-1-5(8)3-2(7)4(5)9-3/h1,3-4,8H/t3-,4+,5-
