18
gdb 37903	3.08564	2.20838	2.03835	1.2091	79.34	-0.1977	-0.0348	0.1629	793.5455	0.150777	-364.68951	-364.683783	-364.682839	-364.719056	25.642	
C	-0.0413046566	 1.424529247	-0.330289272	-0.215067
C	 1.4820543801	 1.5293285779	 0.03038633	-0.020173
C	 1.3161629682	 0.1745587718	 0.8119300347	-0.047081
C	-0.0123026603	-0.1025178396	-0.0019845889	-0.114314
C	 0.8930531809	-0.6676112368	-1.1399131904	 0.067894
C	 1.040742202	-0.1214279328	-2.3565582755	-0.134239
C	 2.3179188783	 0.7425797996	-2.3081794567	-0.201835
N	 2.5759589505	 0.8949017133	-0.846522485	-0.121879
C	 2.1594968307	-0.427169359	-0.3149580424	-0.030454
H	-0.5806737792	 1.9725731147	 0.4539310413	 0.097114
H	-0.4103058247	 1.736250158	-1.3106066884	 0.095436
H	 1.8133561356	 2.4719403219	 0.4647504753	 0.081575
H	 1.4527126555	 0.030801185	 1.8798104607	 0.073508
H	-0.895707346	-0.6013232609	 0.3950013332	 0.074839
H	 0.2444326862	 0.0872072119	-3.0638743909	 0.099277
H	 3.2177047778	 0.3146546914	-2.7703637455	 0.11529
H	 2.1303697748	 1.7076199783	-2.793403171	 0.112633
H	 2.9216086461	-1.2039916216	-0.2094032086	 0.067476
265.9735	345.9879	428.3513	466.6956	594.8205	637.8298	694.909	738.4255	744.0297	807.0634	816.847	843.5239	876.1765	889.0726	899.1567	919.2582	928.8331	954.0834	979.1651	1002.5935	1020.9874	1049.3175	1089.1047	1098.4107	1123.1819	1162.879	1177.0609	1196.6496	1203.6105	1215.8751	1232.3116	1263.305	1271.9547	1277.2305	1290.7022	1312.7056	1469.8137	1477.1699	1599.668	3016.1631	3018.7242	3064.962	3067.2434	3095.6799	3110.2237	3111.2692	3157.4454	3176.8172
C1C2C3C1C1=CCN2C31	C1[C@H]2[C@H]3[C@@H]1[C]1[CH]CN2[C@@H]31	
InChI=1S/C8H9N/c1-2-9-6-3-5-4(1)8(9)7(5)6/h1,5-8H,2-3H2	InChI=1S/C8H9N/c1-2-9-6-3-5-4(1)8(9)7(5)6/h1,5-8H,2-3H2/t5-,6-,7+,8+/m0/s1
