14
gdb 8630	2.51256	1.7665	1.41632	2.9695	62.14	-0.3101	-0.0152	0.2949	922.8554	0.105746	-378.738326	-378.729693	-378.728749	-378.77128	30.219	
C	-0.0382598397	 1.572789677	 0.0012292339	-0.406622
C	-0.0022071141	 0.0245709311	 0.0118209415	-0.099325
C	 0.7423948657	-0.4998369481	 1.295901683	-0.075704
O	 2.0613400088	-0.0328319582	 1.3531467213	-0.407379
C	-1.365237328	-0.5261100785	 0.0056966654	 0.29203
N	-2.4382649006	-0.9497514656	 0.0584666592	-0.31613
C	 0.7415293947	-0.4707545282	-1.159478904	 0.286029
N	 1.3957766347	-0.8528989228	-2.0315560795	-0.323184
H	 0.9812159486	 1.9459011385	 0.1066644575	 0.162663
H	-0.4733687998	 1.9473208354	-0.9265082583	 0.155151
H	-0.6393094263	 1.9249771732	 0.8428313396	 0.147725
H	 0.2169116325	-0.0993877143	 2.1669788924	 0.143509
H	 0.6762990697	-1.5944238903	 1.3213175041	 0.133517
H	 2.5892039338	-0.5155484092	 0.7061162438	 0.307719
112.7592	134.6924	149.084	190.5146	230.5202	239.5328	307.5064	389.924	419.2654	490.6368	526.1639	579.3579	598.7705	700.8117	901.0554	925.4531	974.5063	1088.7539	1116.187	1146.9072	1195.0582	1272.8436	1388.4822	1408.2784	1416.8496	1486.8131	1492.3307	1500.6502	2358.8656	2365.6389	3032.504	3063.2992	3107.709	3146.0768	3161.6483	3797.8608
CC(CO)(C#N)C#N	CC(CO)(C#N)C#N	
InChI=1S/C5H6N2O/c1-5(2-6,3-7)4-8/h8H,4H2,1H3	InChI=1S/C5H6N2O/c1-5(2-6,3-7)4-8/h8H,4H2,1H3
