14
gdb 35658	3.96363	0.9971	0.88049	2.9531	77.18	-0.2727	-0.0592	0.2135	1266.3938	0.100165	-399.523083	-399.514925	-399.513981	-399.556529	29.308	
C	 0.078068922	-1.1343064115	 0.2796149236	-0.457914
C	 0.0162181282	 0.049710455	 0.0865891162	 0.333478
C	-0.0445431337	 1.4948974226	-0.1605474834	-0.087806
O	-0.7394077585	 2.1960517571	 0.8753440318	-0.257625
C	 0.1591260012	 3.0045678391	 1.6229648396	-0.165038
C	 1.4513921222	 2.9709242229	 0.8325938494	 0.180089
C	 1.3328771089	 2.1185861477	-0.1858980906	-0.193174
C	 2.5928310964	 3.7355968967	 1.1848949884	 0.21145
N	 3.5041166344	 4.376752313	 1.5005851503	-0.32218
H	 0.125007374	-2.1815635373	 0.4527588679	 0.210836
H	-0.5823675485	 1.6691185393	-1.1041906171	 0.13112
H	-0.2538376711	 4.0170868455	 1.7096004881	 0.135621
H	 0.3021536763	 2.6082438401	 2.6391324408	 0.132184
H	 2.0885713682	 1.8591394999	-0.9135962651	 0.148958
58.9277	103.2109	158.1824	193.2688	237.931	362.9083	473.2766	510.3506	540.9411	560.8451	589.9435	636.6813	683.2574	787.9868	858.4493	901.4419	919.6486	980.0622	1010.1694	1046.4705	1090.7922	1192.4282	1200.7765	1268.8815	1299.4618	1344.7516	1375.5566	1518.8206	1691.6809	2236.1309	2344.5198	2995.9359	2999.2313	3047.9866	3246.8629	3499.4108
C#CC1OCC(=C1)C#N	C#C[C@H]1OCC(=C1)C#N	
InChI=1S/C7H5NO/c1-2-7-3-6(4-8)5-9-7/h1,3,7H,5H2	InChI=1S/C7H5NO/c1-2-7-3-6(4-8)5-9-7/h1,3,7H,5H2/t7-/m1/s1
