19
gdb 72023	2.79732	2.08933	1.85127	1.384	76.42	-0.2445	0.0987	0.3432	863.5709	0.161967	-385.876845	-385.870464	-385.86952	-385.907069	27.869	
C	 0.0384129064	 1.4857612385	-0.0610216879	-0.512677
C	-0.0224844509	-0.015600036	-0.0314045167	 0.427891
O	 0.7778964324	-0.6152449022	-1.0499459131	-0.288404
C	 0.7025627538	-1.9736526017	-0.5882365521	 0.043335
C	 1.3761192448	-1.8505655631	 0.7951761761	-0.21722
C	 0.340495522	-0.8382935697	 1.3032072137	-0.127512
C	-1.0127911418	-1.5605640414	 1.1544273123	-0.083548
C	-0.8027269002	-2.1664955205	-0.2266745435	-0.076964
C	-1.3688443095	-0.7731661366	-0.0811663463	-0.125725
H	 1.0618829422	 1.8350492827	 0.1052774464	 0.12566
H	-0.2990775419	 1.8637587957	-1.0315987977	 0.127907
H	-0.6041989273	 1.9101486208	 0.7157501186	 0.121312
H	 1.1299747113	-2.6499098928	-1.3259619298	 0.071561
H	 1.368541246	-2.7798925414	 1.3725396781	 0.094262
H	 2.3945884927	-1.4627955423	 0.7130797615	 0.099645
H	 0.5461793375	-0.2685429181	 2.2070323078	 0.066048
H	-1.6438822511	-1.9798744348	 1.927095285	 0.083248
H	-1.4042830267	-2.9868953761	-0.5922419405	 0.087874
H	-2.3212538899	-0.4385103709	-0.4734431217	 0.083305
211.4314	249.8555	279.9741	442.6543	544.3363	574.803	593.2082	670.482	702.4598	780.9183	791.9992	822.3655	831.2895	872.3737	882.7493	892.8938	909.6979	929.3787	947.8975	981.1453	981.8746	1022.0609	1032.7622	1048.3816	1062.8204	1105.1765	1144.6869	1158.7287	1162.8152	1208.967	1234.2942	1241.9352	1262.6593	1307.3675	1314.8548	1341.5796	1364.4922	1417.3601	1475.3604	1482.4729	1493.9108	3038.7313	3057.1687	3108.2166	3115.7687	3117.0534	3139.5315	3144.318	3183.1026	3196.6874	3218.353
CC12OC3CC1C1C3C21	C[C@@]12O[C@H]3C[C@@H]1[C@@H]1[C@H]3[C@H]21	
InChI=1S/C8H10O/c1-8-3-2-4(9-8)6-5(3)7(6)8/h3-7H,2H2,1H3	InChI=1S/C8H10O/c1-8-3-2-4(9-8)6-5(3)7(6)8/h3-7H,2H2,1H3/t3-,4+,5-,6+,7-,8-/m1/s1
