17
gdb 8048	3.42956	1.85362	1.49547	2.0585	75.31	-0.2303	0.0255	0.2557	897.3976	0.141603	-326.615703	-326.608223	-326.607279	-326.64706	29.215	
C	-0.018778094	 1.5090627514	 0.0341885225	-0.520314
C	 0.0400574285	 0.0037459945	 0.0260420159	 0.302291
C	 0.519970224	-0.969491716	-1.0752385195	-0.202673
N	 0.0814820075	-1.9499145692	 0.0262969822	-0.150186
C	 0.7845381981	-0.9634992309	 0.9790573292	-0.217425
C	-1.1472525425	-1.0055822496	 0.163832018	-0.200506
C	-1.9202785795	-1.0795209566	 1.384701472	 0.334241
C	-2.594145446	-1.1133725507	 2.380643654	-0.432305
H	 0.9836587772	 1.9413316384	-0.0545098473	 0.123021
H	-0.622957577	 1.8844950592	-0.7987979737	 0.122297
H	-0.4643468459	 1.8732161001	 0.9658409054	 0.13199
H	-0.0696253513	-1.0476733123	-1.9938434101	 0.098277
H	 1.5915946938	-1.0146543521	-1.2846149332	 0.101056
H	 1.8748176785	-1.0052810045	 0.9091861642	 0.098273
H	 0.445295031	-1.0363910116	 2.0137404643	 0.118455
H	-1.8051089316	-1.0822472675	-0.7084277549	 0.096712
H	-3.1851338207	-1.1547105326	 3.2621466709	 0.196793
122.8973	169.6899	198.8109	287.7054	299.6902	440.542	489.5727	535.6389	616.3088	625.1151	632.0959	652.6655	756.7735	805.0657	887.3558	898.9174	911.4385	929.1261	1011.3684	1034.861	1063.6403	1099.6783	1129.7421	1174.116	1194.9174	1198.9612	1203.4935	1256.4104	1327.4627	1385.0481	1408.2607	1487.6155	1488.8407	1510.7086	1550.1287	2229.1828	3029.6476	3045.6095	3051.6891	3062.5544	3098.779	3102.7843	3116.2104	3133.5725	3501.7623
CC12CN(C1)C2C#C	C[C@@]12CN(C1)[C@H]2C#C	
InChI=1S/C7H9N/c1-3-6-7(2)4-8(6)5-7/h1,6H,4-5H2,2H3	InChI=1S/C7H9N/c1-3-6-7(2)4-8(6)5-7/h1,6H,4-5H2,2H3/t6-/m0/s1
