17
gdb 66297	2.44678	1.51011	1.24598	4.0109	69.35	-0.2531	-0.0546	0.1985	1063.1867	0.133232	-458.994774	-458.985806	-458.984861	-459.028917	32.096	
C	 0.0033170865	 1.6172278398	-0.0339536518	-0.421557
C	 0.0153273365	 0.0860639079	-0.0600660815	 0.15899
O	 0.7342813047	-0.4637225532	-1.1543473454	-0.297395
C	 2.0625559112	-0.8104098869	-0.7408808667	-0.099663
C	 1.929175324	-1.2701110026	 0.7089930072	-0.336627
C	 0.7374206253	-0.4562901738	 1.207463531	 0.351079
O	 0.4134763323	-0.2371537734	 2.3401433609	-0.290801
C	-1.4013150221	-0.4849953865	-0.123659087	 0.141347
O	-2.3716572615	 0.0597249488	 0.3257169759	-0.237443
H	 1.0168214932	 2.0170039426	 0.0596995678	 0.118214
H	-0.4424779257	 2.0000316044	-0.9549458328	 0.135257
H	-0.5920884079	 1.9524279612	 0.8172351747	 0.162357
H	 2.4222062966	-1.5828206994	-1.4232354793	 0.124928
H	 2.7300213177	 0.0596527947	-0.8204143527	 0.109627
H	 1.6571827523	-2.3312471695	 0.7671195027	 0.146856
H	 2.8070506824	-1.1079049565	 1.336331465	 0.142675
H	-1.4429864553	-1.4713731175	-0.634603108	 0.092156
68.6825	74.7596	171.3462	181.4273	199.2084	254.6413	269.0146	398.2887	455.4898	499.8267	530.6921	655.224	672.0813	714.6421	835.0114	850.9966	929.0763	964.4015	991.2897	1024.9559	1054.4336	1101.9651	1147.4377	1179.6168	1190.8559	1213.1781	1245.3604	1283.0881	1379.9058	1392.3916	1397.0042	1446.6783	1478.9421	1488.0597	1524.1229	1821.8982	1872.2273	2902.5649	3004.28	3046.2765	3052.602	3109.9101	3127.4954	3129.4683	3151.1662
CC1(OCCC1=O)C=O	C[C@]1(OCCC1=O)C=O	
InChI=1S/C6H8O3/c1-6(4-7)5(8)2-3-9-6/h4H,2-3H2,1H3	InChI=1S/C6H8O3/c1-6(4-7)5(8)2-3-9-6/h4H,2-3H2,1H3/t6-/m0/s1
