17
gdb 108244	2.27788	1.54388	1.16587	3.7143	64.51	-0.2266	0.0311	0.2577	1085.4832	0.13353	-496.026298	-496.017172	-496.016228	-496.06043	33.711	
O	 0.1047228737	 1.2517948898	 0.4188226686	-0.41849
C	-0.0250374183	 0.0299995176	-0.2916611119	-0.180857
C	-1.3856164054	-0.5871884999	-0.1763349056	 0.338359
O	-2.4132541413	-0.3228038292	-1.1446914842	-0.319838
C	-2.9133197322	-1.6888878131	-1.0480861616	-0.137137
C	-1.9541101696	-1.9814087464	 0.0833338354	 0.260539
O	-1.3976055393	-3.2152989185	 0.3200229407	-0.453424
C	-2.064419066	-0.8980468999	 1.1375783049	-0.082423
O	-1.1370950433	-1.0689106402	 2.1887534767	-0.444261
H	-0.0372826124	 1.0441852825	 1.3491462295	 0.292002
H	 0.1693312259	 0.2559155427	-1.344144338	 0.128901
H	 0.7249597708	-0.7050861264	 0.0362020917	 0.100458
H	-3.9874620679	-1.7263190586	-0.8335778753	 0.107925
H	-2.6918559008	-2.251761317	-1.9618916711	 0.122426
H	-0.8879527969	-3.133717996	 1.1373880706	 0.286923
H	-3.0020712569	-0.4064603104	 1.4027412273	 0.096513
H	-1.5895867999	-1.5015133169	 2.9208951426	 0.302384
43.0113	115.684	187.8909	235.9326	247.7333	269.5091	315.3258	350.2312	404.0523	430.6343	446.4777	553.8498	574.3931	691.2048	722.3007	803.9479	882.6499	935.8057	968.8799	1012.9331	1055.5796	1062.7279	1091.1094	1116.5815	1138.5299	1151.1992	1221.2653	1255.6682	1278.9577	1323.2028	1351.5831	1385.0609	1426.1854	1431.5257	1473.9947	1481.2325	1520.1647	2995.4584	3027.6996	3079.665	3085.8036	3093.2071	3762.2531	3805.5367	3806.3633
OCC12OCC1(O)C2O	OC[C@@]12OC[C@]1(O)[C@H]2O	
InChI=1S/C5H8O4/c6-1-5-3(7)4(5,8)2-9-5/h3,6-8H,1-2H2	InChI=1S/C5H8O4/c6-1-5-3(7)4(5,8)2-9-5/h3,6-8H,1-2H2/t3-,4+,5+/m1/s1
