19
gdb 91456	2.4844	1.9704	1.44425	1.6247	74.2	-0.2381	0.005	0.243	962.2043	0.160395	-423.029369	-423.021721	-423.020777	-423.060969	31.411	
C	 0.0394811861	 1.4965334668	 0.0048676879	-0.484028
C	-0.0088505624	-0.0115512928	 0.0517404195	 0.294093
O	 0.761217575	-0.6144568376	-1.016845617	-0.291846
C	 0.3980484001	-1.9755302322	-0.7407663747	 0.013767
C	 0.9152855796	-2.1475386577	 0.7194872803	-0.266366
C	 0.7005881805	-0.7058711502	 1.2764265197	 0.144326
O	 1.9216200249	-0.063449536	 1.5943376536	-0.443261
C	-1.1230747936	-1.8860529937	-0.643831539	-0.086843
C	-1.3672926553	-0.6833478447	-0.1297205876	-0.117953
H	 1.0548738243	 1.8610917221	 0.1707184967	 0.126593
H	-0.3175897207	 1.8572124677	-0.9633532904	 0.127507
H	-0.5991725296	 1.9160854226	 0.7885060749	 0.119699
H	 0.8220020274	-2.6457201378	-1.4875548751	 0.08086
H	 0.3794001822	-2.9214359895	 1.2721315728	 0.104112
H	 1.9823506259	-2.3823662789	 0.7456207543	 0.103739
H	 0.0989053455	-0.672666012	 2.1866612237	 0.084357
H	 2.444315266	-0.0634112416	 0.7825391181	 0.279744
H	-1.8141648052	-2.6930261671	-0.8468787939	 0.106541
H	-2.3100696405	-0.2556003073	 0.1841148563	 0.10496
124.5409	174.0785	269.7499	324.2716	350.7511	403.9918	409.186	468.1283	540.8143	614.4645	641.7284	721.8927	737.4676	816.3514	830.0635	854.4851	878.3342	892.4525	906.3355	934.2057	941.9989	998.66	1017.6121	1072.5911	1102.7126	1133.0699	1145.5645	1163.6716	1198.8747	1256.95	1282.0217	1288.8	1316.4481	1330.4154	1345.7818	1413.5482	1432.4584	1483.933	1489.9029	1492.5249	1652.2803	3049.7967	3069.6841	3097.0284	3117.8037	3121.7752	3128.4917	3138.6052	3212.447	3238.3683	3778.041
CC12OC(CC1O)C=C2	C[C@@]12O[C@@H](C[C@H]1O)C=C2	
InChI=1S/C7H10O2/c1-7-3-2-5(9-7)4-6(7)8/h2-3,5-6,8H,4H2,1H3	InChI=1S/C7H10O2/c1-7-3-2-5(9-7)4-6(7)8/h2-3,5-6,8H,4H2,1H3/t5-,6-,7+/m1/s1
