15
gdb 27772	2.09261	1.82945	0.982	1.316	74.35	-0.2256	-0.0375	0.1881	1141.354	0.112969	-454.002031	-453.994147	-453.993203	-454.034464	29.723	
C	 0.0255935647	 1.4974494789	 0.0168454868	-0.464059
C	-0.0289716588	 0.0013317794	 0.0059131842	 0.308188
C	-1.1817793059	-0.698686345	-0.1100613906	-0.213099
C	-1.1766638982	-2.1375451589	-0.1141747874	 0.382129
N	-2.1801927787	-2.9002885944	-0.2153367458	-0.532586
O	 0.1245927929	-2.7025973941	 0.0132031238	-0.278387
C	 1.1961596151	-1.8955200059	 0.1215118418	 0.492583
O	 2.3264598567	-2.5893366311	 0.2317891358	-0.380141
N	 1.2110467392	-0.6199863707	 0.1270756093	-0.393834
H	 0.6599258867	 1.8530768172	-0.8023586166	 0.146147
H	-0.9670878306	 1.9408539187	-0.0793610097	 0.127264
H	 0.4886604679	 1.8472818581	 0.9458194633	 0.146178
H	-2.1456831263	-0.2183593187	-0.2032654985	 0.120133
H	-1.9091350011	-3.8824293222	-0.1915732845	 0.22262
H	 2.1087190965	-3.5304358612	 0.2072431879	 0.316865
133.9327	150.6611	183.6794	200.1442	297.9608	352.6836	471.2023	487.572	552.7869	563.6099	576.4496	633.764	695.4747	764.0453	823.5394	868.1492	878.1112	957.9809	1004.1797	1046.6278	1063.3184	1082.4905	1192.2687	1247.0436	1259.8302	1390.1295	1403.3875	1424.3051	1469.2377	1479.2806	1647.0703	1705.3254	1770.413	3039.8322	3096.0444	3138.5701	3234.6141	3504.628	3797.4395
CC1=CC(=N)OC(O)=N1	C[C@@H]1C=C([NH])OC(=N1)O	
InChI=1S/C5H6N2O2/c1-3-2-4(6)9-5(8)7-3/h2,6H,1H3,(H,7,8)	InChI=1S/C5H7N2O2/c1-3-2-4(6)9-5(8)7-3/h2-3,6H,1H3,(H,7,8)/t3-/m1/s1
