18
gdb 116532	3.4081	0.86934	0.81007	3.9586	76.06	-0.2589	-0.0145	0.2444	1474.9533	0.146149	-435.273155	-435.262894	-435.26195	-435.309131	36.347	
C	-0.1957963471	 1.6764603917	 0.3550577113	-0.367057
C	 0.1862552205	 0.2163866768	 0.0806753314	-0.158184
N	 0.8050664954	-0.3973226744	 1.2444421793	-0.263054
C	 0.1003377497	-1.0440842799	 2.0795335798	 0.333624
N	-1.2797617723	-1.2301380206	 2.1113532608	-0.566901
C	 0.7971388958	-1.5944075516	 3.3250265525	-0.057083
O	 0.4366448354	-0.8806361728	 4.4912685346	-0.401911
C	 0.5033929729	-3.0401537301	 3.4816470871	 0.249673
N	 0.2140099811	-4.1537852878	 3.5934244058	-0.327297
H	 0.678368551	 2.2372613353	 0.6964281735	 0.13713
H	-0.5814744302	 2.1505833569	-0.5526179719	 0.117126
H	-0.9636717284	 1.7467099482	 1.1322141724	 0.11821
H	-0.6961149342	-0.3383611371	-0.2838489093	 0.075502
H	 0.9207705873	 0.1848260237	-0.731218225	 0.116015
H	-1.7859877499	-0.9386307447	 1.2882601074	 0.262128
H	-1.5873223017	-2.132796465	 2.4514500635	 0.270964
H	 1.8697368312	-1.4592873445	 3.1789433693	 0.16219
H	-0.5212978863	-0.7634349541	 4.4754976777	 0.298926
46.2934	60.0793	110.2982	156.9796	191.4747	231.4422	245.2722	328.5186	344.6098	388.4912	416.4894	433.8913	520.3101	587.5475	613.9988	667.7455	755.2927	813.9255	864.2894	877.6928	956.5572	1032.5541	1058.1042	1098.0953	1138.6198	1179.5726	1258.1325	1295.1978	1309.821	1328.1521	1363.7388	1406.0876	1417.0405	1490.3984	1498.6029	1529.7593	1644.9077	1755.2695	2348.2439	2946.3963	3040.0472	3056.4203	3110.5931	3120.8042	3123.2501	3546.3734	3654.9103	3789.8234
CCN=C(N)C(O)C#N	CCN=C(N)[C@@H](O)C#N	
InChI=1S/C5H9N3O/c1-2-8-5(7)4(9)3-6/h4,9H,2H2,1H3,(H2,7,8)	InChI=1S/C5H9N3O/c1-2-8-5(7)4(9)3-6/h4,9H,2H2,1H3,(H2,7,8)/t4-/m0/s1
