21
gdb 74901	2.72444	1.4617	1.07298	1.062	86.48	-0.2198	0.0234	0.2432	1190.9543	0.18411	-387.083309	-387.07499	-387.074045	-387.116057	32.76	
C	-0.024539681	 1.6745353455	-0.272774777	-0.467454
C	-0.0124616864	 0.1928777845	 0.0147179054	 0.258794
C	-1.0843698217	-0.5660467	-0.2403117378	-0.139043
C	-1.3353729901	-2.0125609644	-0.0277921744	-0.053764
C	-0.5609806354	-3.1088685203	-0.7574138915	-0.287591
C	-0.4396933413	-2.9630736455	 0.7320716975	-0.035057
C	 0.871589857	-2.512176333	 1.3403430942	-0.113822
O	 1.6062775234	-1.6479495955	 0.4991411849	-0.234376
C	 1.2933534967	-0.2770614516	 0.6167511947	-0.166209
H	 0.7276872436	 1.942197542	-1.0266412762	 0.122947
H	-1.0009136668	 2.0070606605	-0.6330717533	 0.122198
H	 0.2183917748	 2.2572791999	 0.6261640082	 0.120189
H	-1.9389208526	-0.0507644522	-0.6778895369	 0.075056
H	-2.3959267001	-2.227249464	 0.0744527113	 0.082884
H	-1.1150595282	-3.9467731695	-1.1662611677	 0.105947
H	 0.2884244977	-2.7797058936	-1.3440023694	 0.130072
H	-0.9543287305	-3.7038201372	 1.3405873315	 0.080492
H	 0.7002012488	-2.0379123341	 2.3207709535	 0.088754
H	 1.5101917191	-3.3886593498	 1.5074928462	 0.106032
H	 2.1170841779	 0.2513090039	 0.1196770337	 0.108628
H	 1.3311161452	 0.0270337142	 1.680025483	 0.095322
81.2649	147.5604	198.9492	264.1905	299.2562	333.3014	376.6453	401.4017	471.7605	496.552	607.3307	677.6287	751.8681	789.8242	843.9266	854.3728	894.6167	922.507	962.9685	1005.5287	1020.5052	1035.0757	1062.9213	1080.3341	1089.4354	1112.1538	1137.5686	1144.8505	1169.9303	1198.0928	1240.9884	1285.8061	1334.9885	1379.1817	1394.6996	1397.5523	1410.6173	1423.1318	1427.363	1474.6929	1479.8235	1491.1184	1494.5713	1498.7614	1741.785	2926.2158	2968.8624	3009.437	3036.4211	3043.2428	3052.2679	3113.6952	3119.5668	3126.7626	3135.3492	3142.217	3233.6812
CC1=CC2CC2COC1	CC1=C[C@H]2C[C@H]2COC1	
InChI=1S/C8H12O/c1-6-2-7-3-8(7)5-9-4-6/h2,7-8H,3-5H2,1H3	InChI=1S/C8H12O/c1-6-2-7-3-8(7)5-9-4-6/h2,7-8H,3-5H2,1H3/t7-,8-/m0/s1
