18
gdb 71286	2.69081	2.00624	1.45623	2.0238	75.56	-0.234	0.0135	0.2475	927.8312	0.148799	-401.90446	-401.89732	-401.896376	-401.935436	29.721	
O	 0.0304179194	 1.3575668718	-0.0720339827	-0.495745
C	 0.0455851898	-0.0485338167	 0.0117023294	 0.366939
C	 0.2892731386	-0.7907978489	-1.3607620357	-0.310835
C	-1.1086236671	-1.4166515427	-1.2340374577	-0.047405
C	-1.3988234698	-0.6126920813	-0.001338905	-0.083308
N	-1.3436124021	-2.0519947202	 0.0536518175	-0.093271
C	-0.2955123884	-2.7483563968	 0.8214859892	-0.213516
C	 0.6858156567	-1.8531412732	 1.5334719962	-0.069836
C	 0.8419131597	-0.58259578	 1.1688614439	-0.136972
H	 0.9376338322	 1.6617347127	-0.1846793119	 0.277263
H	 0.3267358931	-0.0559143378	-2.1693391751	 0.10881
H	 1.1459190102	-1.4680746694	-1.4326855312	 0.092526
H	-1.7575852666	-1.6938230327	-2.0574902656	 0.092974
H	-2.2763002498	-0.0712609377	 0.3342192018	 0.096453
H	-0.8003905168	-3.3833734779	 1.5608652512	 0.117794
H	 0.2252548991	-3.437204583	 0.1432020597	 0.119297
H	 1.221517429	-2.2747157416	 2.3792279049	 0.093329
H	 1.5104734628	 0.0951384354	 1.693089861	 0.085503
161.4917	253.7408	268.431	325.8817	381.1499	425.4293	482.1373	501.371	570.953	639.716	690.8577	702.508	817.8442	846.8793	881.6218	910.7875	935.1289	941.796	965.0249	974.439	1004.1793	1027.6202	1050.6506	1071.5394	1110.1937	1137.5305	1186.4277	1201.3959	1230.7697	1239.0468	1259.4078	1271.9395	1337.4966	1368.2519	1386.6389	1405.2814	1467.4597	1485.0243	1705.3216	3015.2399	3039.2766	3046.7393	3109.6011	3153.6222	3167.083	3177.2346	3181.201	3801.6656
OC12CC3C1N3CC=C2	O[C@]12C[C@@H]3[C@H]1N3CC=C2	
InChI=1S/C7H9NO/c9-7-2-1-3-8-5(4-7)6(7)8/h1-2,5-6,9H,3-4H2	InChI=1S/C7H9NO/c9-7-2-1-3-8-5(4-7)6(7)8/h1-2,5-6,9H,3-4H2/t5-,6-,7-,8?/m1/s1
