15
gdb 5590	3.43723	1.92669	1.25254	1.6364	63.98	-0.1888	0.038	0.2268	932.2324	0.120424	-396.001527	-395.993552	-395.992608	-396.034231	28.234	
C	-0.0450734198	 1.3984912361	 0.069852684	-0.232904
O	-0.0029847903	-0.0228055787	 0.0460945924	-0.281119
C	-1.2032882306	-0.6434202327	 0.0193051764	 0.341723
C	-1.3712535274	-2.0111876133	-0.00604816	 0.12165
N	-0.5114626282	-3.1263156987	-0.013124284	-0.617141
N	-2.7515622924	-2.1702012667	-0.0275032568	-0.249038
C	-3.3142662992	-0.940898091	-0.0144889552	 0.001061
N	-2.3982521148	 0.0127573178	 0.0141137272	-0.348223
H	 0.9954655682	 1.7280192894	 0.0895575061	 0.119391
H	-0.5476804047	 1.7973095763	-0.8176934163	 0.128459
H	-0.5716576564	 1.7669381896	 0.9566277057	 0.128445
H	 0.1047476514	-3.1176690194	-0.8200327672	 0.246833
H	 0.082822455	-3.1448882427	 0.8098992728	 0.246835
H	-3.2147120001	-3.063567325	-0.0488419289	 0.266065
H	-4.3819855507	-0.7842567911	-0.0264073663	 0.127965
65.9143	122.1758	170.2901	201.9321	248.8858	323.9675	338.1867	536.6287	556.5922	634.5067	668.4338	735.5724	765.2253	772.3874	815.8663	950.4629	1059.9949	1117.3638	1179.9519	1181.5157	1206.549	1217.8537	1275.5597	1322.5047	1393.0125	1456.8798	1479.4984	1492.7435	1504.8953	1523.2891	1649.2318	1671.5197	3028.648	3092.7523	3134.1523	3253.8384	3494.1049	3552.2711	3664.7174
COC1=C(N)NC=N1	COc1c(N)[nH]cn1	
InChI=1S/C4H7N3O/c1-8-4-3(5)6-2-7-4/h2H,5H2,1H3,(H,6,7)	InChI=1S/C4H7N3O/c1-8-4-3(5)6-2-7-4/h2H,5H2,1H3,(H,6,7)
