20
gdb 106105	2.95408	1.37648	1.15752	1.5864	78.42	-0.2372	0.0732	0.3104	1142.0251	0.171532	-403.082115	-403.073722	-403.072778	-403.115172	32.457	
C	-0.1258501689	 1.4535611104	 0.0229045884	-0.424518
C	 0.0609284851	-0.030280361	-0.2346197047	 0.094987
C	 0.892439589	-0.5798472058	-1.4128883443	-0.14362
C	 2.2967285456	 0.0446970959	-1.2003556207	-0.251263
C	 2.3263855157	-0.7451272853	 0.1067103112	-0.10268
N	 0.9459585379	-0.7909610722	 0.7216358656	-0.214377
C	 1.3221499975	-1.7142349524	-0.3940299088	 0.349959
C	 1.1363938197	-3.1899035329	-0.3007999723	-0.222193
O	-0.2332921132	-3.5449725122	-0.1686841515	-0.414684
H	 0.8221425423	 1.9963490983	 0.0498279161	 0.121898
H	-0.7551744875	 1.900935575	-0.7544760695	 0.117018
H	-0.6214513176	 1.6047954351	 0.9873638752	 0.126646
H	-0.9097845885	-0.5366220476	-0.2083330819	 0.080029
H	 0.4776256772	-0.7025853609	-2.4115971239	 0.075226
H	 3.0228532254	-0.3687777959	-1.9050888047	 0.107569
H	 2.3892678303	 1.1342999901	-1.1790383492	 0.096638
H	 3.1495663282	-0.9041157688	 0.791386281	 0.097976
H	 1.4932592302	-3.6869468369	-1.2090677884	 0.11473
H	 1.7348873742	-3.5682923834	 0.5428183857	 0.098838
H	-0.5479962326	-3.1071242895	 0.6306209667	 0.29182
75.7751	114.8892	184.6967	225.1053	260.1967	320.9696	373.0944	435.8386	514.0804	555.8353	666.8285	699.2798	714.3207	804.8593	831.0311	880.647	922.7497	945.8308	968.2757	987.5907	1002.1766	1045.5001	1062.0068	1076.7298	1098.1335	1108.1701	1128.0478	1149.6207	1169.8536	1222.6155	1233.6213	1251.4283	1282.9724	1308.8041	1362.0347	1391.8916	1407.9784	1415.7333	1448.8134	1485.9187	1487.879	1491.9376	1513.292	2984.0324	3037.0062	3049.5522	3056.3614	3073.322	3102.1506	3106.5481	3123.391	3134.2529	3201.3572	3798.734
CC1C2CC3N1C23CO	C[C@H]1[C@H]2C[C@H]3N1[C@@]23CO	
InChI=1S/C7H11NO/c1-4-5-2-6-7(5,3-9)8(4)6/h4-6,9H,2-3H2,1H3	InChI=1S/C7H11NO/c1-4-5-2-6-7(5,3-9)8(4)6/h4-6,9H,2-3H2,1H3/t4-,5+,6+,7-,8?/m0/s1
