17
gdb 23358	2.85142	1.5265	1.18926	1.367	76.62	-0.2306	0.0114	0.2421	1061.7344	0.135524	-417.909237	-417.901273	-417.900329	-417.941468	30.777	
C	 0.0207706283	 1.567595701	 0.0279744474	-0.497492
C	 0.0276304467	 0.0700033862	 0.0023926896	 0.228465
C	-1.2473367493	-0.7957465767	 0.184781606	-0.282617
C	-0.2964448684	-1.8005057305	 0.8107606389	-0.031413
C	 1.0070273867	-1.7872817296	 0.0624666537	-0.156675
N	 0.7161058236	-0.7718296149	 1.1674702943	-0.183191
C	 0.8820279157	-0.7254664081	-0.9548633648	 0.464317
N	 1.4242998397	-0.3847874749	-2.046111291	-0.305352
O	 2.2900077968	-1.3968648411	-2.5175094441	-0.397616
H	 1.0414834624	 1.9591203578	 0.032667212	 0.140398
H	-0.4867392032	 1.9545541554	-0.8619440664	 0.136722
H	-0.5030046901	 1.938333135	 0.9138696034	 0.125957
H	-1.9090391968	-0.3661959889	 0.9421945304	 0.114133
H	-1.8194609995	-1.0654707037	-0.7077280044	 0.110931
H	-0.5290250045	-2.6118546668	 1.4920861839	 0.105215
H	 1.7656436088	-2.5499842206	 0.1677421072	 0.121559
H	 2.6464867431	-0.9984114998	-3.3183537461	 0.306657
127.7421	159.5261	189.366	248.6621	281.57	328.9924	391.4431	422.4255	537.2709	611.8081	673.2925	721.1829	738.7975	771.5322	828.3364	865.1821	892.8773	967.0795	978.0591	1009.0967	1015.6427	1029.8537	1083.3673	1105.9631	1133.0927	1156.463	1223.3809	1245.04	1297.8755	1344.6269	1349.5503	1410.2866	1422.0297	1479.0856	1487.0527	1495.5551	1805.9419	3041.205	3051.6083	3108.1001	3111.553	3123.0192	3175.1303	3226.0878	3822.2614
CC12CC3C(N13)C2=NO	C[C@]12C[C@H]3[C@H](N13)C2=NO	
InChI=1S/C6H8N2O/c1-6-2-3-4(8(3)6)5(6)7-9/h3-4,9H,2H2,1H3	InChI=1S/C6H8N2O/c1-6-2-3-4(8(3)6)5(6)7-9/h3-4,9H,2H2,1H3/t3-,4-,6+,8?/m0/s1
