23
gdb 38359	2.29003	1.869	1.31412	0.789	90.2	-0.2215	0.0119	0.2333	1073.9613	0.209374	-351.123759	-351.116127	-351.115182	-351.155177	32.509	
C	-0.1126898906	 1.6268033671	-0.1495054386	-0.242179
C	 1.4441507319	 1.6439124051	 0.0526375863	 0.041931
C	 1.3305308556	 0.1639983616	 0.5498125762	-0.226687
C	-0.1447242854	 0.0672297641	 0.0503206984	 0.030443
C	-0.3448396308	-0.8051624814	-1.2344794563	-0.266851
C	 0.3399839852	-0.0388343063	-2.3233150723	-0.059882
C	 1.6670117884	 0.079357011	-2.3985105139	-0.053531
C	 2.2704316415	 1.441761403	-2.5360812233	-0.241977
C	 2.4526713957	 2.0008357638	-1.0784958347	-0.215807
H	-0.6158972845	 2.1396208754	 0.6752151398	 0.089645
H	-0.512027394	 2.032601363	-1.0795257722	 0.094065
H	 1.7226888693	 2.3112781823	 0.8751730265	 0.068198
H	 2.0398248546	-0.5583350868	 0.1400113475	 0.089462
H	 1.38930938	 0.1011892009	 1.6406781514	 0.089589
H	-0.8500395641	-0.2658810778	 0.8183075525	 0.061643
H	 0.102805986	-1.7905558955	-1.0589267138	 0.101472
H	-1.4123164732	-0.9540821736	-1.4306942949	 0.091737
H	-0.2540089373	 0.7630552614	-2.7598313462	 0.081428
H	 2.3032195501	-0.6964649981	-1.9740046956	 0.081022
H	 3.2417550107	 1.4704391382	-3.0431761927	 0.090901
H	 1.5884462981	 2.0929321506	-3.0943716144	 0.098973
H	 2.5184402916	 3.0944467332	-1.1469044825	 0.096079
H	 3.4333969712	 1.6704489689	-0.7102278672	 0.100326
150.6807	249.5581	272.0913	313.7842	339.0175	345.2813	412.5421	469.7878	524.5412	599.2088	676.3777	758.9977	772.8277	803.8465	830.8314	863.5091	881.3523	914.9304	924.0629	962.2064	985.0328	1006.5575	1033.9398	1056.6545	1071.2479	1092.9083	1119.6225	1132.6404	1165.2201	1176.7313	1214.2926	1219.9124	1239.8958	1266.0766	1271.3206	1289.9389	1294.7912	1324.3023	1335.9761	1347.5302	1363.5343	1369.4795	1392.8965	1471.5227	1476.3531	1485.5448	1493.8777	1499.4803	1708.5436	3006.2572	3026.6374	3027.2427	3032.3604	3043.3025	3045.2799	3054.3316	3067.4457	3072.6275	3073.3199	3104.8967	3115.0972	3128.5557	3136.0624
C1C2CC1CC=CCC2	C1[C@H]2C[C@@H]1C[CH][CH]CC2	
InChI=1S/C9H14/c1-2-4-8-6-9(7-8)5-3-1/h1-2,8-9H,3-7H2/b2-1-	InChI=1S/C9H14/c1-2-4-8-6-9(7-8)5-3-1/h1-2,8-9H,3-7H2/t8-,9+
