17
gdb 56699	2.78543	1.28975	1.02716	1.5905	80.3	-0.2604	0.0208	0.2812	1184.9168	0.131684	-384.596576	-384.587007	-384.586063	-384.630828	35.564	
C	-0.4439291204	 1.5997009683	-0.4309801642	-0.392783
C	-0.0594823405	 0.1354182292	-0.126759981	-0.245813
C	-1.2382288467	-0.6485819059	 0.232482588	 0.334891
C	-2.2204134745	-1.2647358696	 0.5493115241	-0.477432
C	 0.7156644777	-0.466823533	-1.3138106138	 0.196311
C	 0.4778982849	-1.8422841877	-1.7956438042	-0.220431
O	-0.0616213729	-0.7202554709	-2.4927694361	-0.260933
C	 2.0133588664	 0.1313387249	-1.5383169121	 0.286486
C	 3.0923535505	 0.6396691364	-1.6877527853	-0.398524
H	 0.4520831118	 2.1861749008	-0.6491752092	 0.131961
H	-1.1102474422	 1.6384153499	-1.2960534715	 0.144567
H	-0.9572439386	 2.0428798483	 0.425125174	 0.126726
H	 0.6308580822	 0.1286391888	 0.7273244766	 0.119867
H	-3.0878851633	-1.8103473186	 0.8281143601	 0.199251
H	 1.2850411064	-2.3644945646	-2.3056649771	 0.121995
H	-0.2486639302	-2.4593930373	-1.2732438174	 0.134577
H	 4.0465467892	 1.0823019811	-1.836044601	 0.199284
51.6724	129.2916	166.0256	189.4889	217.3561	238.8824	273.3906	340.5611	408.6266	489.729	533.5482	548.1036	588.0661	621.6512	626.2134	650.1271	671.3919	708.5485	839.6659	860.9644	913.1596	966.3395	1026.4021	1090.5982	1114.5941	1136.2784	1173.155	1196.7535	1305.8471	1332.2168	1369.574	1403.9837	1493.2353	1500.7006	1510.587	2234.6605	2238.7945	3021.7376	3053.552	3097.0926	3133.397	3137.1377	3196.4956	3500.5412	3502.4641
CC(C#C)C1(CO1)C#C	C[C@@H](C#C)[C@]1(CO1)C#C	
InChI=1S/C8H8O/c1-4-7(3)8(5-2)6-9-8/h1-2,7H,6H2,3H3	InChI=1S/C8H8O/c1-4-7(3)8(5-2)6-9-8/h1-2,7H,6H2,3H3/t7-,8+/m0/s1
