20
gdb 33234	6.03903	0.679	0.61846	1.8502	82.51	-0.1885	0.0321	0.2206	1808.1059	0.171556	-403.169372	-403.160202	-403.159258	-403.204138	33.747	
C	 0.0243809024	 1.5436931356	-0.0305039709	-0.380118
C	-0.0506163394	 0.0169831612	 0.0447981389	-0.193224
C	 0.7505686757	-0.554538041	 1.2129830784	-0.111807
N	 0.6268951693	-2.0024066518	 1.2787331211	-0.405553
C	 1.3400540516	-2.6675332786	 2.273154283	 0.279665
C	 1.9574964337	-2.1445349892	 3.3750685014	-0.096121
O	 2.4874806526	-3.1513216025	 4.142559664	-0.153432
C	 2.2143755033	-4.313095158	 3.5095700374	 0.018555
C	 1.5157675539	-4.0933182064	 2.3668100701	-0.295186
H	 1.0580115136	 1.8867048472	-0.1484407863	 0.118053
H	-0.5517509995	 1.9261098226	-0.8780651801	 0.11662
H	-0.3762081541	 2.0043976099	 0.878951548	 0.119081
H	-1.0932630848	-0.3075903183	 0.1404549667	 0.110957
H	 0.3245138189	-0.414844546	-0.8936603209	 0.093358
H	 1.8056540725	-0.2332157544	 1.1392262284	 0.088214
H	 0.3671970605	-0.1421721303	 2.1560602864	 0.109818
H	 0.7204439269	-2.442364153	 0.3728192678	 0.227292
H	 2.0936804585	-1.1465182189	 3.7512082814	 0.121601
H	 2.5755982466	-5.2079171172	 3.9897294555	 0.130922
H	 1.1572215577	-4.8379322208	 1.6728647896	 0.101305
59.7481	79.933	101.0632	148.0332	240.7004	278.5207	324.0528	332.6704	467.5014	588.0927	607.1953	636.7422	692.6637	746.7578	760.217	766.4917	809.4771	887.0672	901.75	917.9808	1000.1198	1044.0622	1062.3633	1087.4124	1110.3885	1146.7635	1169.4443	1220.8444	1256.0501	1272.6341	1302.1933	1318.7064	1337.6259	1388.4371	1412.5292	1424.427	1491.9665	1499.7501	1503.2584	1506.7443	1525.9169	1550.0621	1656.9436	2935.5529	3010.757	3027.3705	3034.2552	3062.5375	3100.7963	3108.4978	3247.9994	3278.7095	3296.9355	3565.4824
CCCNC1=COC=C1	CCCNc1cocc1	
InChI=1S/C7H11NO/c1-2-4-8-7-3-5-9-6-7/h3,5-6,8H,2,4H2,1H3	InChI=1S/C7H11NO/c1-2-4-8-7-3-5-9-6-7/h3,5-6,8H,2,4H2,1H3
