15
gdb 25269	3.18395	1.78428	1.15406	2.9872	74.46	-0.1938	-0.0225	0.1713	987.2482	0.11604	-416.871622	-416.864886	-416.863942	-416.902746	26.556	
O	 0.0014917055	-0.0266270416	-0.0137165848	-0.349403
C	-0.0185496513	 1.1756873187	-0.0135999711	 0.40961
C	-1.2435977948	 2.1077543671	 0.0174962271	-0.298604
N	-0.7079124632	 3.4672329749	-0.1351799974	-0.420124
C	 0.6830120587	 3.3706189295	-0.0454281506	 0.401572
C	 1.8003500284	 4.152944633	-0.0125742233	-0.320813
C	 2.9191104941	 3.2369397275	 0.0085289049	-0.119567
C	 2.4577970456	 1.9518867419	-0.017841391	-0.134014
N	 1.0682086906	 2.0391665485	-0.0435292179	-0.070147
H	-1.9282784668	 1.8408138316	-0.7934829283	 0.152809
H	-1.7719955141	 1.959898208	 0.9667367619	 0.14635
H	-1.1322141206	 4.1708846418	 0.4519811102	 0.251816
H	 1.8447964183	 5.2297050575	-0.0088584729	 0.101068
H	 3.9600176487	 3.5244118073	 0.0330978403	 0.107287
H	 2.9511083109	 0.9959068143	-0.0266459571	 0.14216
140.3277	158.8654	279.6222	309.7599	538.7295	550.0842	570.5148	611.1038	638.7635	666.64	683.7683	716.4057	753.4423	786.858	858.0605	915.3502	989.5661	1026.0231	1046.83	1070.0111	1091.2444	1167.7617	1196.4743	1256.8049	1289.2654	1312.9224	1386.9537	1416.7601	1460.6552	1482.7884	1533.4318	1648.4906	1855.0573	3042.2198	3085.5859	3242.4281	3266.0303	3297.7083	3592.2942
O=C1CNC2=CC=CN12	O=C1CNc2cccn12	
InChI=1S/C6H6N2O/c9-6-4-7-5-2-1-3-8(5)6/h1-3,7H,4H2	InChI=1S/C6H6N2O/c9-6-4-7-5-2-1-3-8(5)6/h1-3,7H,4H2
