15
gdb 46218	3.21504	1.53288	1.22545	4.8638	65.4	-0.2507	0.0023	0.253	992.8602	0.112952	-457.727765	-457.720647	-457.719703	-457.759655	26.651	
O	 0.0112961905	 0.054686387	-0.2829764518	-0.338973
C	 0.0604223453	 1.2165457917	-0.0390969214	 0.445622
O	-0.9609611102	 2.0320443694	 0.4141015846	-0.254028
C	-0.0766012227	 3.1961421573	 0.4961159318	-0.164919
C	 1.0638560744	 2.3354840577	-0.0298044026	 0.104536
C	 2.5201050299	 2.3556246709	 0.3812584772	-0.226661
C	 3.2167920578	 1.1648060524	-0.2805906482	-0.088862
O	 2.7419646511	 1.5804334423	-1.5971335083	-0.272501
C	 2.1278443266	 2.7202666108	-1.0250192353	 0.035093
H	-0.4288615089	 3.9996948867	-0.1554064646	 0.130004
H	 0.0078333295	 3.5447996175	 1.5284920756	 0.128553
H	 2.881470577	 2.9504824628	 1.2093706263	 0.115813
H	 4.3084400779	 1.2227530928	-0.2369948159	 0.121642
H	 2.8683645816	 0.1635557939	-0.0150064413	 0.143667
H	 2.1130805402	 3.6480300169	-1.5863214462	 0.121015
126.5959	135.7782	145.8775	297.4107	356.8971	409.2369	463.6919	666.3505	722.4495	790.3508	815.7357	837.4685	882.0011	928.1651	943.2381	957.6546	996.7708	1022.3391	1059.5015	1064.478	1085.5745	1109.377	1147.9833	1156.866	1177.8393	1236.8028	1253.41	1321.7526	1349.9607	1433.0211	1505.3825	1517.4052	1933.545	3052.9571	3060.1815	3115.8634	3117.4797	3177.5998	3205.3651
O=C1OCC11C2COC12	O=C1OC[C@]21[C@H]1CO[C@@H]21	
InChI=1S/C6H6O3/c7-5-6(2-9-5)3-1-8-4(3)6/h3-4H,1-2H2	InChI=1S/C6H6O3/c7-5-6(2-9-5)3-1-8-4(3)6/h3-4H,1-2H2/t3-,4+,6-/m0/s1
