17
gdb 85195	2.53738	1.22334	0.88365	7.1775	73.59	-0.2593	0.0171	0.2765	1282.0794	0.135571	-418.046928	-418.037826	-418.036882	-418.081624	32.374	
C	-0.0782451473	 1.5761376119	-0.1324315421	-0.401351
C	 0.028973884	 0.0634965835	-0.0011179061	 0.037295
N	 1.0703843826	-0.5678511341	-0.8239006226	-0.333825
C	 1.7617357946	-1.1487064275	 0.2109407789	 0.436499
O	 2.7451015177	-1.8337375419	 0.260987265	-0.346902
C	 0.7635568418	-0.5533875079	 1.24246063	-0.177282
C	 1.3493522352	 0.3960646372	 2.2956724061	-0.36459
C	 2.0040538856	-0.3232919585	 3.3874813947	 0.2758
N	 2.4997134783	-0.8853170646	 4.2664120436	-0.298173
H	 0.891217561	 2.0641164766	 0.0011068498	 0.126975
H	-0.4528998549	 1.8454099913	-1.125231441	 0.126773
H	-0.7813497534	 1.9808073717	 0.6029949492	 0.128629
H	-0.9572144495	-0.3917049536	-0.1529172396	 0.095011
H	 1.1696191592	-0.6641386857	-1.8242482092	 0.253239
H	 0.1741815664	-1.3335879048	 1.7295115338	 0.124887
H	 2.0761418046	 1.0803479761	 1.8458888362	 0.160771
H	 0.5545414341	 1.0147189801	 2.7290054935	 0.156243
57.3753	68.566	121.1749	197.2151	214.5388	245.0949	344.1637	388.5435	411.1754	488.1676	508.2813	517.561	696.67	734.4424	799.206	871.6295	906.6028	946.0282	994.3733	1035.7739	1076.3189	1129.5795	1142.2886	1171.8141	1185.292	1233.663	1290.6494	1316.6591	1375.2822	1385.8886	1395.7807	1414.6398	1464.0447	1489.9425	1501.0663	1901.243	2367.9652	3028.746	3037.6833	3043.308	3081.8913	3098.5587	3104.0572	3120.2325	3605.6983
CC1NC(=O)C1CC#N	C[C@H]1NC(=O)[C@H]1CC#N	
InChI=1S/C6H8N2O/c1-4-5(2-3-7)6(9)8-4/h4-5H,2H2,1H3,(H,8,9)	InChI=1S/C6H8N2O/c1-4-5(2-3-7)6(9)8-4/h4-5H,2H2,1H3,(H,8,9)/t4-,5+/m1/s1
