18
gdb 30057	3.01842	1.40227	1.01367	1.3042	79.74	-0.2054	0.0298	0.2352	1166.4789	0.148407	-401.956692	-401.948232	-401.947288	-401.990749	30.788	
C	-0.287885726	 1.4854462006	-0.0471070012	-0.347585
N	-0.0943957372	 0.0485485873	-0.0230828539	-0.042961
C	-0.1680911735	-0.7852816851	-1.1077734955	-0.105624
C	 0.0842318438	-2.0725706458	-0.6898495499	-0.159888
C	 0.3269057711	-2.0150350606	 0.706182682	-0.238072
C	 0.2131614551	-0.6956640244	 1.0980200061	 0.31169
C	 0.3271924954	-0.0713639246	 2.427880531	-0.091672
C	 1.342243447	-0.5091343671	 3.393476148	-0.161129
O	 1.5097105895	 0.7215395523	 2.6982224502	-0.234731
H	 0.5150928983	 1.9837178979	 0.5013596259	 0.166708
H	-0.2738843218	 1.8291203081	-1.0827858909	 0.138539
H	-1.2478662354	 1.7701204803	 0.3992460748	 0.134489
H	-0.3831216932	-0.3877066507	-2.087471601	 0.113912
H	 0.0998399576	-2.9501485078	-1.317309354	 0.094986
H	 0.5514725617	-2.8427976484	 1.3617210578	 0.09291
H	-0.5740491646	 0.392947331	 2.8329511888	 0.097198
H	 1.1384889507	-0.4239463079	 4.4601341136	 0.111155
H	 2.0319160415	-1.302661265	 3.1118049282	 0.120074
46.6516	81.6207	142.072	171.4565	196.637	318.6509	401.118	498.1969	602.1651	620.6822	695.0537	722.8612	734.5364	788.0361	824.2234	843.768	893.3271	928.4589	1008.5996	1029.4824	1075.6025	1094.5075	1113.3691	1151.8695	1157.4809	1161.5075	1196.8565	1259.8384	1292.0401	1334.9873	1397.0263	1415.5183	1452.1205	1469.285	1487.0925	1512.9722	1522.4463	1529.0096	1596.2388	3031.9655	3081.463	3087.4631	3103.7517	3142.3198	3173.6356	3239.5646	3249.6728	3265.7679
CN1C=CC=C1C1CO1	Cn1cccc1[C@H]1CO1	
InChI=1S/C7H9NO/c1-8-4-2-3-6(8)7-5-9-7/h2-4,7H,5H2,1H3	InChI=1S/C7H9NO/c1-8-4-2-3-6(8)7-5-9-7/h2-4,7H,5H2,1H3/t7-/m1/s1
