16
gdb 28250	4.7383	1.20988	0.97899	1.6072	72.18	-0.1648	0.0536	0.2185	1147.746	0.126375	-437.902772	-437.895118	-437.894174	-437.93472	29.331	
O	 0.2216250638	 1.3039479284	 0.1979718859	-0.431838
C	 0.0794087026	-0.0321450116	 0.0081896246	 0.405578
C	-0.0621568045	-0.7956356937	-1.1377561553	-0.487133
C	-0.0483949911	-2.1331235977	-0.6561120538	 0.40259
C	 0.113889771	-2.1527254948	 0.6945025613	 0.138122
C	-0.2133273886	-3.5093807514	 1.2310486421	-0.355766
C	-0.1218259573	-4.2921368092	-0.1210500721	-0.080364
O	-0.3175371632	-3.3520621945	-1.2104076485	-0.288827
N	 0.1300952661	-0.8270798849	 1.1219433549	-0.401619
H	 0.2451815686	 1.7308584272	-0.6635342391	 0.308601
H	-0.1598540973	-0.4333354812	-2.1481639415	 0.096039
H	 0.4916309894	-3.9271351506	 1.9586627937	 0.103974
H	-1.2182405197	-3.5695047929	 1.6763528136	 0.106081
H	 0.8782106787	-4.7296491254	-0.2276333679	 0.109611
H	-0.8703256409	-5.0800037936	-0.2244122242	 0.11382
H	 0.4342547423	-0.4827739741	 2.0167038363	 0.261132
127.4279	171.6268	220.24	251.8459	303.3694	319.1934	438.4037	511.3261	532.7042	648.2191	671.6916	707.4275	712.1461	735.4278	832.0155	863.2495	931.2516	987.935	1020.665	1070.8695	1115.9516	1165.6214	1182.103	1188.7032	1229.2895	1264.1652	1304.0321	1363.7869	1406.3956	1488.2018	1496.3895	1514.4423	1533.2575	1575.5465	1645.1512	2978.6287	3026.3646	3048.0788	3113.1057	3256.8787	3669.4614	3849.4445
OC1=CC2=C(CCO2)N1	Oc1cc2c(CCO2)[nH]1	
InChI=1S/C6H7NO2/c8-6-3-5-4(7-6)1-2-9-5/h3,7-8H,1-2H2	InChI=1S/C6H7NO2/c8-6-3-5-4(7-6)1-2-9-5/h3,7-8H,1-2H2
