16
gdb 56875	3.34592	1.01424	0.82024	4.1359	71.82	-0.2525	0.0143	0.2667	1333.9313	0.122118	-437.863455	-437.854283	-437.853339	-437.898033	33.262	
O	 0.1279509313	 1.5604359147	-0.0433789838	-0.411953
C	 0.0542275723	 0.1418515719	-0.0033804142	-0.051743
C	 0.6149018369	-0.4815867172	-1.2049505828	 0.27173
C	 1.1321768435	-0.9806767813	-2.1690016586	-0.435001
C	 0.7393331171	-0.4023393508	 1.2623619532	 0.039915
C	 0.0206169398	-0.0946355241	 2.6062118411	-0.407612
C	-0.145780418	-1.6303864203	 2.7368370287	 0.42926
O	-0.6140907877	-2.3903666881	 3.5381222917	-0.352046
N	 0.4939647453	-1.8193318611	 1.5302145979	-0.324481
H	 1.0128661877	 1.8022863297	-0.3385740394	 0.290505
H	-1.0143302089	-0.0968857421	 0.0631612884	 0.125252
H	 1.563612069	-1.4199193014	-3.0349904543	 0.207842
H	 1.8026088049	-0.1340061964	 1.242604314	 0.086243
H	 0.6434686595	 0.3539690358	 3.3811391425	 0.134529
H	-0.9118105707	 0.464981907	 2.5156285832	 0.141465
H	 0.7565955081	-2.6523169963	 1.0242122226	 0.256093
58.0251	69.6391	126.5538	200.3936	245.3082	266.4428	351.3388	398.5299	406.8179	475.1996	529.7493	562.0997	589.0061	642.2566	682.679	766.9403	844.7448	907.8209	970.3042	997.4426	1026.4704	1074.3673	1079.7054	1135.2923	1170.9147	1192.3013	1251.5563	1271.6013	1299.2553	1374.503	1389.7223	1414.876	1460.8795	1901.3486	2230.2882	3028.3106	3047.1604	3092.4577	3150.4538	3499.2623	3613.4663	3807.9814
OC(C#C)C1CC(=O)N1	O[C@@H](C#C)[C@H]1CC(=O)N1	
InChI=1S/C6H7NO2/c1-2-5(8)4-3-6(9)7-4/h1,4-5,8H,3H2,(H,7,9)	InChI=1S/C6H7NO2/c1-2-5(8)4-3-6(9)7-4/h1,4-5,8H,3H2,(H,7,9)/t4-,5+/m1/s1
