18
gdb 14036	4.56889	1.66168	1.54222	1.6596	72.16	-0.2386	0.0282	0.2668	892.2687	0.154819	-347.80009	-347.79298	-347.792036	-347.83194	27.235	
C	-0.1601149958	 1.0992150023	-0.2832640858	-0.067909
C	 1.2564481717	 1.6194671888	 0.0176850981	-0.351394
C	 1.4530259511	 0.2769394771	 0.7599801502	 0.449767
C	 2.4873387573	-0.7358862141	 0.2165856399	-0.310782
C	 2.8786754794	-1.5377149582	 1.432376915	-0.062401
C	 2.4348283007	-0.9803358169	 2.5580034575	-0.062401
C	 1.6693924808	 0.2912828532	 2.2909525471	-0.310781
O	 0.0919566259	-0.1290972578	 0.4243532923	-0.316189
H	-0.9834548102	 1.6697390934	 0.1643375113	 0.099587
H	-0.3895982169	 0.9239765697	-1.3417357497	 0.099587
H	 1.8994443361	 1.7639269919	-0.8528406818	 0.107131
H	 1.3068408078	 2.5081184705	 0.650051531	 0.107131
H	 2.037527501	-1.3350935493	-0.5824933689	 0.116013
H	 3.3563157279	-0.2206902056	-0.2178052069	 0.102642
H	 3.4706055618	-2.4440171277	 1.37088487	 0.090671
H	 2.6080488113	-1.3608264582	 3.5583872091	 0.090671
H	 2.2445087539	 1.1755061892	 2.6018121245	 0.102642
H	 0.7024811762	 0.3414444917	 2.8032739271	 0.116013
63.1714	80.0518	265.3461	367.7164	376.6987	431.7533	461.519	683.8828	770.9141	770.9656	793.228	852.0348	867.5264	899.1222	945.6702	974.3379	980.0418	983.9834	984.6625	1028.8739	1068.4298	1122.1174	1149.738	1162.4862	1163.6953	1202.7552	1228.428	1236.1175	1265.0485	1286.9886	1340.4237	1358.8944	1368.9512	1460.6121	1467.0373	1488.843	1532.4959	1686.2188	3003.1941	3004.8844	3011.6113	3048.0612	3066.6168	3066.938	3070.7815	3124.3864	3182.5311	3207.734
C1CC2(CC=CC2)O1	C1C[C@]2(CC=CC2)O1	
InChI=1S/C7H10O/c1-2-4-7(3-1)5-6-8-7/h1-2H,3-6H2	InChI=1S/C7H10O/c1-2-4-7(3-1)5-6-8-7/h1-2H,3-6H2
