19
gdb 90403	2.27046	1.53665	1.33469	1.5688	71.49	-0.2211	0.0629	0.284	1065.8312	0.156859	-460.123899	-460.114577	-460.113633	-460.156994	36.209	
C	-0.0561993202	 1.5798594634	-0.0708358771	-0.469126
C	 0.0735212025	 0.0822514681	 0.0911798848	 0.317067
O	-1.1301242553	-0.6084345732	-0.211310362	-0.489874
C	 1.3066921163	-0.7471656656	-0.2234708891	-0.22571
C	 2.5760264059	-0.0356974674	 0.2540730251	-0.270225
C	 2.0270825429	-0.0544694337	 1.7117832536	 0.054029
O	 2.0171594441	 1.2024697385	 2.3579390543	-0.431954
C	 0.7245619637	-0.6639666222	 1.2189823996	 0.358428
O	 0.0264995653	-1.5505690866	 2.0056643727	-0.473832
H	 0.8008761913	 2.1073867025	 0.3482853211	 0.149072
H	-0.1554186503	 1.8503245487	-1.1298140953	 0.100898
H	-0.9531764879	 1.9272016535	 0.4514183094	 0.122616
H	-1.2185826947	-0.6676245727	-1.168059702	 0.288904
H	 1.2634742441	-1.5504660201	-0.9504362962	 0.083329
H	 3.4830140498	-0.6315486588	 0.137798156	 0.109344
H	 2.7569072466	 0.9640337789	-0.1499939946	 0.107308
H	 2.5605116947	-0.8024461889	 2.3145070451	 0.086646
H	 1.565431597	 1.0989196006	 3.2021409966	 0.287649
H	-0.8190017955	-1.6965598651	 1.5580236681	 0.295432
143.4766	186.7404	199.0025	224.634	232.8356	260.5359	287.0097	315.7817	393.3143	408.3184	450.1504	470.0072	538.3827	608.2044	662.6797	670.4802	743.3273	855.2081	912.2935	924.3844	953.3209	990.808	1023.3092	1079.6643	1088.8277	1113.6757	1137.9109	1195.4038	1208.9186	1231.5995	1238.1592	1268.1793	1298.7114	1325.364	1404.6857	1417.9576	1431.2088	1456.6569	1485.137	1500.4631	1509.0907	3009.101	3025.0484	3064.3816	3092.5501	3117.7444	3151.175	3174.3818	3747.6856	3812.4878	3812.8522
CC1(O)C2CC(O)C12O	C[C@@]1(O)[C@H]2C[C@@H](O)[C@@]12O	
InChI=1S/C6H10O3/c1-5(8)3-2-4(7)6(3,5)9/h3-4,7-9H,2H2,1H3	InChI=1S/C6H10O3/c1-5(8)3-2-4(7)6(3,5)9/h3-4,7-9H,2H2,1H3/t3-,4-,5-,6-/m1/s1
