21
gdb 103858	2.76524	1.17232	0.96137	1.8889	79.35	-0.2602	0.0769	0.3371	1321.4067	0.180056	-424.191272	-424.181438	-424.180494	-424.226381	35.897	
C	-0.7117708288	 1.1395599803	 0.2980554938	-0.383066
C	 0.1964455472	-0.0350818969	-0.0926281517	-0.265547
C	 1.0205536078	-0.5615540287	 1.0702960628	 0.393515
C	 2.0239238152	 0.4015751372	 1.6742240565	-0.460514
O	 0.2804705982	-1.3193854317	 2.0568278009	-0.294071
C	 1.2512907748	-2.0087024447	 1.2771101136	-0.03359
C	 0.7883348544	-3.146764456	 0.4169930612	 0.041574
C	-0.3518746126	-3.9826115809	 0.8243132748	-0.175012
O	-0.4587760934	-3.0619479123	-0.2635241796	-0.223356
H	-0.1444238251	 2.0237402171	 0.6046804537	 0.11241
H	-1.3411926225	 1.4310449883	-0.5478412685	 0.113972
H	-1.3697579217	 0.8551432545	 1.1249842056	 0.131287
H	-0.4148662429	-0.8470987446	-0.4850925932	 0.145936
H	 0.8835721509	 0.2737292835	-0.8913161675	 0.091764
H	 1.5234178615	 1.2939549653	 2.0611763565	 0.131482
H	 2.5627316663	-0.0665658571	 2.5016377435	 0.12347
H	 2.7511352991	 0.7243044538	 0.9213051062	 0.119786
H	 2.1583886691	-2.2815440592	 1.8267023834	 0.082259
H	 1.5871072825	-3.6121683665	-0.1635998735	 0.097946
H	-0.3793315386	-5.0353851963	 0.5491657431	 0.115685
H	-0.9066752412	-3.7021505249	 1.7166709383	 0.134072
56.9986	78.04	143.5438	167.559	195.4129	213.876	256.7762	303.4146	345.5623	381.1368	456.0955	574.3913	662.321	693.3191	759.0806	789.0767	839.5036	898.8398	922.7675	962.5029	990.8567	1004.5049	1016.2474	1061.9112	1094.5478	1119.3004	1132.1204	1147.3961	1166.6636	1169.3081	1248.8612	1284.8805	1322.2472	1328.9328	1389.8481	1407.2563	1413.3057	1423.2973	1470.4038	1478.3437	1491.6503	1503.7478	1505.9642	1510.5645	1517.6985	3028.525	3039.0408	3041.8829	3050.9093	3091.9618	3098.6802	3102.073	3109.2797	3112.8171	3123.9457	3145.0753	3191.0277
CCC1(C)OC1C1CO1	CC[C@@]1(C)O[C@H]1[C@H]1CO1	
InChI=1S/C7H12O2/c1-3-7(2)6(9-7)5-4-8-5/h5-6H,3-4H2,1-2H3	InChI=1S/C7H12O2/c1-3-7(2)6(9-7)5-4-8-5/h5-6H,3-4H2,1-2H3/t5-,6+,7-/m1/s1
