19
gdb 76667	2.73245	1.09464	0.99547	1.3356	72.3	-0.2488	0.0062	0.255	1293.9892	0.155739	-460.178684	-460.168274	-460.16733	-460.215525	35.98	
C	-0.0745834693	 1.4531006169	 0.302923998	-0.407665
C	 0.0976244711	-0.032636041	 0.0868537861	-0.074261
C	 1.4472821894	-0.6047763796	-0.324197238	 0.062458
O	 2.5448395977	 0.2476437069	-0.4487504445	-0.4259
C	 0.9011399561	-0.8794537984	 1.0470418411	 0.054957
O	 1.6363408198	-0.227895485	 2.0685864202	-0.260595
C	 1.0476046501	-0.1708969675	 3.2953912964	 0.434302
C	 1.9451689934	 0.5419742413	 4.2758354179	-0.484001
O	-0.0303719807	-0.6442780001	 3.53247603	-0.336324
H	 0.8781723747	 1.9280436825	 0.5442459995	 0.122881
H	-0.4566548103	 1.9273075057	-0.6062552985	 0.122605
H	-0.7818783956	 1.654790878	 1.1138020597	 0.125054
H	-0.7685403822	-0.5429408672	-0.3264308391	 0.093547
H	 1.4661911813	-1.4223363026	-1.0407237946	 0.100117
H	 2.9647118448	 0.3061771542	 0.4170591693	 0.297113
H	 0.5499695121	-1.8631334568	 1.3351298034	 0.117698
H	 2.1711812822	 1.5499103511	 3.9167389377	 0.152072
H	 1.451371562	 0.5938188731	 5.2451531927	 0.153534
H	 2.8952816835	 0.0083828182	 4.3708754726	 0.152407
32.204	62.2916	91.5171	123.6256	133.7049	189.4967	234.2907	266.4555	278.9283	376.4091	500.2563	583.3131	602.0881	612.5285	667.2552	772.0345	783.8231	889.4279	936.4682	969.9218	1006.3223	1035.8605	1062.8546	1083.3501	1108.6169	1144.1488	1156.7865	1165.5441	1238.6554	1252.654	1341.9784	1360.3715	1381.5449	1396.0268	1413.0929	1448.5996	1469.4597	1476.1166	1494.9542	1498.6755	1839.8881	3042.6797	3057.298	3102.6928	3122.1051	3128.0642	3132.7817	3146.9578	3171.2448	3181.4804	3794.5327
CC1C(O)C1OC(C)=O	C[C@H]1[C@@H](O)[C@H]1OC(=O)C	
InChI=1S/C6H10O3/c1-3-5(8)6(3)9-4(2)7/h3,5-6,8H,1-2H3	InChI=1S/C6H10O3/c1-3-5(8)6(3)9-4(2)7/h3,5-6,8H,1-2H3/t3-,5+,6-/m0/s1
