19
gdb 102254	2.62129	0.99632	0.75915	3.6339	77.41	-0.241	-0.0356	0.2054	1501.4833	0.156737	-419.231792	-419.22126	-419.220315	-419.268425	36.251	
C	-0.3237975714	 1.5370451512	-0.1725037823	-0.330539
N	 0.1105701265	 0.158240169	 0.0454590583	-0.297584
C	 0.7688996991	-0.4418780571	-1.1123182009	-0.112473
C	 1.251045231	-1.8667918761	-0.7794443769	-0.317566
C	 2.3996767374	-1.9014165337	 0.2223645165	 0.376403
C	 3.0527307522	-3.2506984955	 0.4378908171	-0.473312
O	 2.7673554037	-0.9074638024	 0.810582885	-0.295977
C	-0.1641955236	-0.5083383221	-2.2515552695	 0.303089
N	-0.8753565809	-0.5740524414	-3.1596859089	-0.330042
H	 0.4811995391	 2.2116329119	-0.5118144098	 0.102585
H	-1.1219061653	 1.561103938	-0.9206145764	 0.146845
H	-0.7289466242	 1.9301822093	 0.7633079394	 0.126681
H	 0.7991805798	 0.1418470377	 0.7913275169	 0.245538
H	 1.6412586892	 0.1456483345	-1.4554165449	 0.113003
H	 0.41284725	-2.4409458798	-0.3653389087	 0.155743
H	 1.5607341018	-2.3893107365	-1.6914461481	 0.140298
H	 3.554048139	-3.5723755789	-0.4823054959	 0.150004
H	 3.7821247487	-3.1856396758	 1.2456334595	 0.150754
H	 2.300342668	-4.0117970523	 0.6710668397	 0.14655
40.2252	87.0709	107.6497	110.152	134.232	189.3794	233.8794	260.8412	300.2749	323.1518	434.1779	468.3232	560.985	586.1689	608.3673	779.7418	818.596	854.7386	902.0088	959.1494	1010.0161	1054.0282	1075.2492	1142.5457	1164.693	1181.6659	1193.5053	1247.7351	1306.2651	1347.8837	1378.6659	1389.5976	1434.7382	1461.2451	1462.1898	1474.785	1491.3561	1500.9536	1525.0674	1801.2364	2360.5997	2927.1594	2959.2309	3036.8668	3045.159	3077.277	3083.004	3100.8016	3120.6291	3156.799	3529.4696
CNC(CC(C)=O)C#N	CN[C@@H](CC(=O)C)C#N	
InChI=1S/C6H10N2O/c1-5(9)3-6(4-7)8-2/h6,8H,3H2,1-2H3	InChI=1S/C6H10N2O/c1-5(9)3-6(4-7)8-2/h6,8H,3H2,1-2H3/t6-/m0/s1
