23
gdb 76736	1.96511	1.71063	1.12258	1.0105	85.71	-0.2359	0.0749	0.3108	1212.5452	0.203514	-388.273191	-388.262926	-388.261981	-388.307388	39.169	
C	-0.6736980436	 1.5051292215	-0.5106360071	-0.409452
C	-0.261118547	 0.0490011662	-0.3210944171	-0.044779
C	 1.0395063423	-0.5055586432	-1.0339497962	-0.053655
C	 1.880284636	 0.394821124	-1.9327109452	-0.4164
C	 1.5743049597	-0.8965128218	 0.349073929	 0.350875
O	 2.2475276551	-2.0820100174	 0.6090928651	-0.470791
C	 1.6493283708	 0.2859916131	 1.2762848418	-0.412214
C	 0.3132801867	-0.3946191795	 1.0387365584	 0.291248
C	-0.4898739664	-1.0053507194	 2.1509403832	-0.49984
H	 0.1248428522	 2.2042690611	-0.2444389945	 0.112545
H	-0.9539548294	 1.7044990837	-1.5508123774	 0.112288
H	-1.5407742477	 1.7449120607	 0.1147554096	 0.113725
H	-1.1103874547	-0.592004221	-0.5825491876	 0.06903
H	 0.7805987565	-1.4188013831	-1.5793177551	 0.076622
H	 2.1930227745	 1.3123483566	-1.4245706019	 0.112017
H	 2.7869985507	-0.1265681924	-2.2603625406	 0.110286
H	 1.3282322291	 0.6867941801	-2.8326795975	 0.113822
H	 3.1942393323	-1.9069402987	 0.5842155989	 0.283498
H	 2.0906811644	 0.0561542554	 2.2418670267	 0.107346
H	 1.8597191638	 1.29160265	 0.921320919	 0.099705
H	-1.0795094843	-0.2513256649	 2.6862433128	 0.115537
H	-1.1864498469	-1.7594981196	 1.7664933544	 0.115103
H	 0.1621962259	-1.4970409214	 2.8799215914	 0.123482
117.3549	165.3338	180.5242	189.7776	198.0331	222.9159	233.4549	258.551	261.5439	333.7017	400.6139	479.6417	488.4201	586.8855	613.7501	679.4843	713.8529	775.7576	822.5383	870.4001	960.9082	969.013	1002.2356	1015.2918	1044.6634	1056.7218	1067.1928	1098.9905	1140.9194	1154.9466	1198.3745	1208.2048	1227.615	1249.685	1305.6084	1336.4025	1361.1724	1369.603	1406.345	1410.2497	1412.346	1432.9499	1486.0936	1489.2801	1491.2913	1497.0475	1501.1153	1504.1194	1515.8645	3019.6614	3027.305	3030.2213	3032.9838	3055.3764	3076.6884	3087.9996	3091.5855	3097.4316	3098.8944	3104.8002	3110.9077	3193.8153	3798.0727
CC1C(C)C2(O)CC12C	C[C@H]1[C@@H](C)[C@@]2(O)C[C@@]12C	
InChI=1S/C8H14O/c1-5-6(2)8(9)4-7(5,8)3/h5-6,9H,4H2,1-3H3	InChI=1S/C8H14O/c1-5-6(2)8(9)4-7(5,8)3/h5-6,9H,4H2,1-3H3/t5-,6+,7-,8-/m0/s1
