21
gdb 103110	1.91875	1.50236	1.1911	1.1481	86.23	-0.2263	0.0498	0.2761	1207.3123	0.178558	-387.040835	-387.030204	-387.02926	-387.075775	39.128	
C	-0.3505625372	 1.2424199453	-0.0698024452	-0.252929
O	 0.2416342672	-0.0411073548	 0.0553558749	-0.27489
C	 0.7550150316	-0.5774776499	-1.1231986408	 0.420544
C	 1.933573714	 0.1632858678	-1.7195931375	-0.461189
C	 0.7106135678	-2.0735275693	-1.186127919	-0.08637
C	 0.1745994172	-2.9014902099	-0.0420396677	-0.408058
C	-0.2371050364	-1.2582965305	-2.0839883996	-0.326024
C	-1.6457023883	-1.2438538656	-1.8336369698	 0.357341
C	-2.8361961741	-1.241002245	-1.6534064366	-0.460382
H	 0.3964949689	 2.0213710334	-0.2743687205	 0.10711
H	-1.1130287204	 1.2578613554	-0.8572865491	 0.125742
H	-0.8247051589	 1.4592700562	 0.8900379944	 0.127113
H	 2.7281783981	 0.2662881886	-0.9728893561	 0.127477
H	 2.3376404314	-0.381514305	-2.5770257426	 0.120175
H	 1.6563680458	 1.1644877906	-2.0647867134	 0.123082
H	 1.534693583	-2.5307016482	-1.7282613493	 0.087518
H	-0.6302988048	-2.380721358	 0.4768318402	 0.143988
H	-0.210596078	-3.859450139	-0.4059664616	 0.11695
H	 0.9681632544	-3.1083809319	 0.6835803858	 0.116285
H	 0.0307455843	-1.214973471	-3.1365077883	 0.105421
H	-3.8847844055	-1.2339387293	-1.4885831484	 0.191093
115.5338	120.6516	130.3087	158.7112	181.9319	193.6165	221.0634	236.7431	304.0647	360.1848	382.8347	405.786	517.3445	565.2526	599.7003	626.3762	647.0101	700.0563	783.5432	817.6962	930.7198	954.0038	1011.3358	1035.4265	1098.2005	1110.9779	1122.7254	1135.02	1147.9674	1180.6677	1209.019	1249.4993	1305.1643	1352.8791	1410.0689	1415.3848	1440.174	1476.503	1481.4157	1490.7095	1491.8313	1499.2745	1505.3763	1508.9787	2228.4498	3003.516	3035.8278	3041.6916	3070.3184	3098.6282	3101.1448	3115.281	3122.7095	3129.474	3139.3007	3155.2091	3504.6481
COC1(C)C(C)C1C#C	CO[C@@]1(C)[C@@H](C)[C@H]1C#C	
InChI=1S/C8H12O/c1-5-7-6(2)8(7,3)9-4/h1,6-7H,2-4H3	InChI=1S/C8H12O/c1-5-7-6(2)8(7,3)9-4/h1,6-7H,2-4H3/t6-,7+,8-/m0/s1
