18
gdb 50099	4.14038	0.80277	0.74662	2.2455	74.79	-0.2471	-0.0427	0.2044	1521.9838	0.145609	-439.029535	-439.020649	-439.019705	-439.064346	31.766	
O	-0.1658848349	 0.4080305113	 0.8561376705	-0.243497
C	 0.3706006658	 0.8136246604	-0.1430418805	 0.138949
C	 1.316912947	 1.970460144	-0.1502105097	-0.056686
O	 2.2076813802	 2.0474706702	-1.2694897968	-0.241157
C	 1.2184058459	 3.0616435476	-1.1513834029	 0.080931
C	 0.1579281033	 3.1488730584	-2.2237426229	-0.192004
N	 0.648729422	 3.9777671685	-3.3162806272	-0.069543
C	 1.4060151877	 3.2832472843	-4.3565136518	-0.213508
C	 0.0226445697	 3.7671149458	-4.6176334429	-0.223462
H	 0.2121482963	 0.3431049921	-1.1371385523	 0.090723
H	 1.7482352801	 2.2043643009	 0.8222626795	 0.119753
H	 1.6125957603	 4.0310846679	-0.8436951813	 0.117472
H	-0.1310250897	 2.1371875757	-2.5541095288	 0.090682
H	-0.7348216385	 3.6295180347	-1.8041241916	 0.120442
H	 2.2621719261	 3.8215043771	-4.7514645141	 0.12289
H	 1.551861599	 2.2107954654	-4.2465997227	 0.122897
H	-0.7627052682	 3.0164055367	-4.690537523	 0.11256
H	-0.1488174421	 4.6627857289	-5.2072592516	 0.12256
57.969	74.9118	86.0081	154.5544	260.6375	284.0877	357.2118	373.3993	447.5618	484.5678	534.7792	767.5756	820.5077	833.9573	862.166	905.4787	959.9329	990.2526	1027.4449	1034.6059	1068.0709	1084.963	1112.9357	1119.7677	1138.9173	1166.7188	1175.32	1194.495	1269.2292	1284.5242	1322.3682	1332.5176	1366.9107	1410.3145	1474.2885	1477.511	1495.806	1523.6812	1823.9207	2904.0461	2967.0853	3049.0871	3098.4037	3108.8159	3110.6114	3133.1714	3183.9452	3199.7912
O=CC1OC1CN1CC1	O=C[C@H]1O[C@H]1CN1CC1	
InChI=1S/C6H9NO2/c8-4-6-5(9-6)3-7-1-2-7/h4-6H,1-3H2	InChI=1S/C6H9NO2/c8-4-6-5(9-6)3-7-1-2-7/h4-6H,1-3H2/t5-,6+/m0/s1
