16
gdb 123652	4.11133	1.56309	1.23561	3.1489	74.04	-0.1895	0.0384	0.228	973.1515	0.129165	-396.918447	-396.912043	-396.911099	-396.948956	26.448	
C	 0.0235763563	 1.5016597618	 0.0819090305	-0.301916
C	 1.3231637352	 0.7319175436	-0.0010200054	-0.003621
N	 2.048137902	 0.3448770903	 1.2165780476	-0.415491
C	 1.130845217	-0.4312685111	 1.9314107062	 0.402137
C	-0.0250296544	-0.7469325853	 1.2557484576	 0.224266
C	-0.7122213807	-1.6111844222	 2.1292889353	-0.166354
N	-0.0353589064	-1.8042961679	 3.2637739618	-0.242877
N	 1.1076834631	-1.060527886	 3.1205426967	-0.334688
C	-0.0148597869	-0.0129821854	-0.0380587717	-0.204786
H	-0.2736363363	 1.9398920078	 1.0288143879	 0.114952
H	-0.2397957683	 2.0833369736	-0.7953361467	 0.114068
H	 1.9469838238	 0.8436300187	-0.8802373317	 0.101266
H	 2.4700650598	 1.1197703844	 1.7150646702	 0.239956
H	-1.6647251719	-2.1046395657	 2.0010240392	 0.106609
H	 1.7863849263	-1.0668461736	 3.8612777103	 0.268635
H	-0.3781701987	-0.4645560128	-0.9536577976	 0.097845
160.5513	255.0297	361.9111	422.119	435.5504	451.4911	588.4479	656.374	663.5827	704.9106	745.7779	791.7702	811.2222	840.816	885.2453	947.909	972.681	981.8004	1036.5876	1055.5192	1065.2521	1095.5969	1134.3168	1176.7889	1192.783	1228.8333	1284.0399	1307.6342	1356.2918	1374.9146	1421.418	1464.0063	1467.216	1586.5763	1606.7347	3126.8674	3170.9691	3179.0376	3218.6687	3240.8353	3542.8861	3685.8292
C1C2NC3=C(C=NN3)C12	C1[C@H]2Nc3c(cn[nH]3)[C@@H]12	
InChI=1S/C6H7N3/c1-3-4-2-7-9-6(4)8-5(1)3/h2-3,5H,1H2,(H2,7,8,9)	InChI=1S/C6H7N3/c1-3-4-2-7-9-6(4)8-5(1)3/h2-3,5H,1H2,(H2,7,8,9)/t3-,5-/m1/s1
