21
gdb 114200	2.59145	1.23529	0.99117	2.5684	78.59	-0.2307	0.07	0.3007	1279.3789	0.181323	-424.191365	-424.18199	-424.181046	-424.225815	35.445	
C	-0.494541764	 1.4488963229	 0.06416663	-0.416625
C	-0.1813819015	-0.0352654828	-0.0709725772	-0.153091
C	 0.9127455992	-0.5269408388	-1.0592369894	 0.102414
C	 1.8832654518	 0.4670650671	-1.6774146031	-0.068314
O	 3.0137090829	-0.2200344101	-2.1800419377	-0.423424
O	 1.591088691	-1.2570865222	 0.0051331083	-0.339706
C	 0.6979059152	-0.7126440199	 0.9821026048	 0.468135
C	 1.1952499979	-0.200198959	 2.2957438442	-0.333942
C	 0.3470044838	-1.4648685416	 2.2181505749	-0.337112
H	 0.4004271932	 2.0438384226	 0.2639640119	 0.126999
H	-0.9660788894	 1.8358271188	-0.8451519345	 0.121741
H	-1.1944011988	 1.6173986779	 0.8898105293	 0.119429
H	-1.1108530109	-0.5922702643	-0.2239563401	 0.087395
H	 0.5666502531	-1.2239713854	-1.8310075939	 0.08522
H	 1.4182658658	 0.9868117564	-2.5226007561	 0.105839
H	 2.176850476	 1.2232516897	-0.9335700387	 0.086049
H	 3.3248252661	-0.7727806804	-1.4519934341	 0.29164
H	 2.2529943679	-0.3217305155	 2.5038121202	 0.122771
H	 0.7509223019	 0.6988153253	 2.7109962473	 0.115037
H	-0.6767564566	-1.4273912142	 2.5774612855	 0.114371
H	 0.8494566555	-2.4131583663	 2.3764257383	 0.125174
46.4814	107.8214	175.0576	197.8423	208.6947	233.4436	307.2408	368.296	413.7834	468.3366	502.2198	528.8392	597.5184	749.0115	760.4291	835.4405	867.65	881.2988	929.1307	942.8219	976.6068	1001.7417	1038.6993	1047.5286	1067.1513	1082.1787	1090.6531	1148.501	1154.7317	1186.9142	1211.9238	1228.6212	1257.7257	1301.5052	1340.8322	1362.9531	1391.6048	1409.67	1416.2113	1439.5725	1447.9295	1492.7491	1498.2233	1500.8491	1505.8205	2988.5693	3036.2071	3038.2637	3057.6324	3071.9914	3096.8756	3116.9736	3125.2596	3127.8504	3208.2246	3222.3805	3778.9174
CC1C(CO)OC11CC1	C[C@H]1[C@@H](CO)OC21CC2	
InChI=1S/C7H12O2/c1-5-6(4-8)9-7(5)2-3-7/h5-6,8H,2-4H2,1H3	InChI=1S/C7H12O2/c1-5-6(4-8)9-7(5)2-3-7/h5-6,8H,2-4H2,1H3/t5-,6+/m0/s1
