22
gdb 6846	3.12035	1.7841	1.54569	0.1441	82.47	-0.2352	0.0332	0.2684	969.7418	0.201366	-313.099736	-313.091536	-313.090592	-313.131387	33.036	
C	-0.1503183678	 1.5706066846	 0.0350133612	-0.411431
C	-0.0199672794	 0.0355893405	 0.0032793762	 0.277549
C	-1.4249224365	-0.5854757412	 0.0041765538	-0.422139
C	 0.7427032615	-0.4197190416	-1.2610772054	-0.205404
C	 2.1782651519	 0.1222949433	-1.3284721463	-0.270377
C	 2.8856801909	 0.0090304048	-0.004669228	-0.037163
C	 2.2528389913	-0.249122159	 1.1391709878	-0.060059
C	 0.7626658643	-0.4509378046	 1.2461618375	-0.257219
H	 0.8220382713	 2.0605884194	 0.13575529	 0.120796
H	-0.6253323849	 1.9433346044	-0.8796011333	 0.104953
H	-0.7686475745	 1.8872874502	 0.8823024897	 0.106048
H	-2.0179015099	-0.2229738174	-0.8432287358	 0.106323
H	-1.3761076076	-1.6779080906	-0.0650800043	 0.10634
H	-1.9679749224	-0.3324565473	 0.9220380919	 0.106172
H	 0.7788767923	-1.5169796592	-1.2642257408	 0.09165
H	 0.185488854	-0.1235477679	-2.1582549816	 0.08535
H	 2.7425496665	-0.4181321438	-2.0994320816	 0.099111
H	 2.1790755113	 1.1721671744	-1.6569221486	 0.106808
H	 3.9636305477	 0.1544397078	-0.0046414186	 0.079386
H	 2.8225847471	-0.3303436314	 2.0624072097	 0.079606
H	 0.3840239487	 0.0607620934	 2.1416730904	 0.095001
H	 0.5557126239	-1.5184324188	 1.4167116261	 0.098699
145.6433	198.0422	236.3679	259.1261	292.596	332.7218	387.105	398.1734	412.7164	485.5768	520.8758	670.1802	698.1455	771.7277	870.5667	893.101	897.6795	933.5493	952.6606	974.9295	993.5739	1004.6885	1031.7742	1047.6411	1060.7191	1145.9468	1155.1515	1202.8962	1208.2246	1257.0229	1288.1377	1311.7595	1348.441	1368.7633	1381.2141	1401.9705	1413.8391	1427.3392	1471.8237	1474.3333	1482.969	1491.088	1498.6859	1504.6739	1514.0686	1725.5367	2989.678	2999.2007	3013.2631	3019.8855	3025.0221	3029.656	3036.0455	3056.8291	3085.6251	3090.0094	3091.2191	3111.172	3136.7914	3161.1727
CC1(C)CCC=CC1	CC1(C)CCC=CC1	
InChI=1S/C8H14/c1-8(2)6-4-3-5-7-8/h3-4H,5-7H2,1-2H3	InChI=1S/C8H14/c1-8(2)6-4-3-5-7-8/h3-4H,5-7H2,1-2H3
