21
gdb 69596	3.28162	1.27942	1.17015	2.9417	82.44	-0.2318	0.0716	0.3034	1161.1716	0.184598	-383.239504	-383.231325	-383.230381	-383.271811	32.915	
C	 0.0270822383	 1.4998908738	-0.081896099	-0.465406
C	-0.0273977246	-0.000351348	 0.0536152065	 0.33676
C	-1.3021934374	-0.7290663992	-0.3737926884	-0.271626
C	-1.1976382167	-2.1407813613	 0.247188775	-0.350091
C	-0.2901808106	-1.9570401175	 1.4668603067	 0.378704
C	-0.7578016879	-2.2547761843	 2.8446889693	-0.29637
N	 0.2681434872	-3.1005072558	 2.2006366435	-0.36689
C	 0.5860456045	-0.7713704637	 1.1747551718	-0.12321
N	 1.2444027281	-0.715208771	-0.1428685895	-0.379865
H	 0.9849910077	 1.8818930337	 0.2787782159	 0.130128
H	-0.0796729385	 1.8008645427	-1.1307563356	 0.116739
H	-0.7791215175	 1.9765515608	 0.4869676103	 0.111707
H	-2.1671853482	-0.1940372751	 0.0357093258	 0.105422
H	-1.4270488949	-0.7532947078	-1.4624499223	 0.1
H	-2.1719932552	-2.5613206415	 0.5095743405	 0.105253
H	-0.7345206398	-2.8405875532	-0.4595209269	 0.107021
H	-0.398849962	-1.6670443493	 3.6859332714	 0.11786
H	-1.7632943445	-2.6502644662	 2.9673576188	 0.107735
H	-0.1566513712	-3.9645677162	 1.8703504754	 0.227038
H	 1.1343424628	-0.3108975165	 1.9912933993	 0.08531
H	 1.1263283803	-1.5883760243	-0.6514747583	 0.22378
104.8714	187.8736	201.1819	246.8366	326.076	347.3013	375.6017	401.7426	469.9575	553.085	581.102	703.2718	763.7909	809.4784	851.3991	881.4953	910.3241	918.0463	940.0736	978.8165	982.6713	1012.5542	1021.8178	1045.7346	1059.6179	1106.3229	1111.0746	1136.5522	1155.8971	1189.5166	1233.0807	1257.322	1269.0145	1295.1155	1314.9163	1333.2993	1336.4902	1393.6986	1415.2193	1448.1428	1485.5786	1489.2037	1498.6804	1503.46	1512.2217	3026.5679	3028.4222	3033.1122	3068.152	3086.3937	3091.7379	3099.2811	3123.0982	3155.1521	3183.6117	3484.7042	3489.5966
CC12CCC3(CN3)C1N2	C[C@]12CC[C@]3(CN3)[C@H]1N2	
InChI=1S/C7H12N2/c1-6-2-3-7(4-8-7)5(6)9-6/h5,8-9H,2-4H2,1H3	InChI=1S/C7H12N2/c1-6-2-3-7(4-8-7)5(6)9-6/h5,8-9H,2-4H2,1H3/t5-,6-,7-/m0/s1
