19
gdb 69007	3.00039	1.26526	1.17368	1.9529	76.66	-0.2203	0.0716	0.2918	1147.6193	0.158289	-422.96178	-422.953334	-422.95239	-422.994932	32.713	
O	-0.2234486097	 1.3940291205	 0.6352991097	-0.453563
C	-0.1013397741	 0.1103771275	 0.1450446959	 0.251199
C	-0.1183544141	-0.2454227069	-1.3288986216	-0.413247
C	-1.1534379744	-0.8325977377	-0.3963142977	 0.430128
O	-0.5802725449	-1.9523572674	 0.2994014051	-0.324206
C	 0.3928562627	-1.0866554837	 0.9496172381	-0.140147
C	-2.6226377888	-0.8020587144	-0.5624287426	-0.105242
C	-3.3710679138	-2.0984176795	-0.7784652205	-0.269674
C	-3.5189950465	-1.3485867817	 0.5208038943	-0.265911
H	 0.516042594	 1.9175570428	 0.3071356961	 0.289035
H	-0.4924773726	 0.5555743479	-1.9605515631	 0.115918
H	 0.6461299929	-0.8782892024	-1.773941515	 0.109731
H	 1.4219442942	-1.4339614895	 0.7981131745	 0.099685
H	 0.1770830401	-0.993108742	 2.0197608359	 0.114236
H	-2.979315183	 0.0651111409	-1.1087741241	 0.089174
H	-4.1972150102	-2.0972030649	-1.4806490571	 0.1094
H	-2.7905230454	-3.0134936617	-0.7597180445	 0.130844
H	-3.0348695414	-1.7729543572	 1.3925382656	 0.124018
H	-4.4494333148	-0.8291587406	 0.720334241	 0.108621
67.0643	121.9339	170.8884	247.6341	293.9248	311.7721	375.7402	419.654	465.6586	559.7104	597.8888	701.7933	772.2287	790.9913	823.5913	867.0478	901.873	916.8637	944.2845	976.019	989.5496	1022.3387	1049.3562	1059.1105	1068.4421	1085.4658	1124.3495	1137.3992	1147.1281	1201.8529	1218.1529	1231.713	1268.168	1297.8877	1330.7159	1400.0651	1436.0826	1460.375	1490.8888	1508.3713	1534.1759	3022.637	3078.9416	3102.1896	3137.9902	3141.2379	3160.9357	3200.4355	3221.8396	3236.071	3790.4334
OC12CC1(OC2)C1CC1	O[C@]12C[C@]1(OC2)C1CC1	
InChI=1S/C7H10O2/c8-6-3-7(6,9-4-6)5-1-2-5/h5,8H,1-4H2	InChI=1S/C7H10O2/c8-6-3-7(6,9-4-6)5-1-2-5/h5,8H,1-4H2/t6-,7-/m0/s1
