17
gdb 50602	2.27063	1.45876	0.99336	2.1529	84.11	-0.23	-0.0347	0.1953	1192.266	0.134715	-384.686042	-384.677379	-384.676435	-384.720086	31.72	
O	-0.7153657277	 1.2421177847	-0.9367909434	-0.240295
C	-0.0660084966	 1.2488774302	 0.0770198271	 0.152656
C	 1.3455930482	 1.811317606	 0.2032664941	-0.211295
C	 1.8404173824	 2.5548154749	-1.0563392554	-0.237812
C	 1.7208444916	 4.0665117748	-0.7275871151	-0.252635
C	 1.568657857	 4.0995589949	 0.7680232923	-0.165707
C	 1.3770103473	 2.8825648064	 1.2993873467	 0.162597
C	 1.1834258398	 2.5627863231	 2.6638501874	 0.233819
C	 1.0222122996	 2.2345846137	 3.8125992807	-0.421139
H	-0.4745129674	 0.8343720041	 1.0246090207	 0.0932
H	 1.9852271981	 0.9624827122	 0.4830887443	 0.104821
H	 2.8835272859	 2.2949192978	-1.2518758851	 0.107781
H	 1.2495845299	 2.2669295767	-1.9273850088	 0.131983
H	 2.5928874952	 4.6372303562	-1.066653691	 0.113365
H	 0.8498135506	 4.5277129934	-1.2128608459	 0.1259
H	 1.594716116	 5.0149936137	 1.3476960341	 0.106165
H	 0.8776300101	 1.9658987673	 4.8297132471	 0.196596
53.7593	88.4446	139.7431	163.7934	259.2385	275.0933	381.3129	493.8358	530.1163	586.0187	613.2464	628.6869	645.353	725.333	773.1092	819.4605	870.4825	922.3993	932.2529	991.9455	1020.8147	1064.5268	1082.7483	1147.0842	1173.3818	1233.7658	1250.873	1281.0304	1303.6853	1334.2862	1344.2972	1420.5777	1475.5689	1496.0755	1671.8927	1827.0878	2219.4423	2896.3299	3012.8455	3018.3391	3053.2988	3076.166	3128.1581	3205.0651	3502.1333
O=CC1CCC=C1C#C	O=C[C@H]1CCC=C1C#C	
InChI=1S/C8H8O/c1-2-7-4-3-5-8(7)6-9/h1,4,6,8H,3,5H2	InChI=1S/C8H8O/c1-2-7-4-3-5-8(7)6-9/h1,4,6,8H,3,5H2/t8-/m1/s1
