21
gdb 66145	3.38026	0.97014	0.86282	1.9444	79.35	-0.2439	0.0861	0.33	1424.8653	0.180186	-424.17805	-424.168475	-424.16753	-424.213401	35.373	
C	 0.384720233	 1.5753623112	 0.2220428822	-0.447866
C	-0.1407422094	 0.1819621256	-0.0413942437	 0.436244
C	 0.6396134475	-0.7884692006	-0.8941384131	-0.328044
C	 0.5037591049	-1.0083201755	 0.6014193565	-0.306916
O	-1.5435138058	 0.0990524984	-0.1059748705	-0.295268
C	-2.1299644217	 0.5083565178	-1.3341545064	-0.112903
C	-3.0073328889	-0.5993429887	-1.8573360416	 0.092095
C	-3.2168654672	-0.8003810609	-3.2956549161	-0.182303
O	-2.3458534364	-1.6578345698	-2.5554216524	-0.223579
H	 1.4739654588	 1.5699400564	 0.3223261629	 0.115261
H	 0.1297116529	 2.2590727879	-0.5960868621	 0.112535
H	-0.0450342758	 1.9772801051	 1.1455885753	 0.123138
H	 0.0656188467	-1.4353847339	-1.5479686127	 0.142074
H	 1.602182484	-0.4750306843	-1.2847403063	 0.105957
H	 1.3704099333	-0.8477665331	 1.2336033441	 0.107124
H	-0.1606664119	-1.8000505825	 0.9265458329	 0.123052
H	-2.7355874397	 1.4115416554	-1.1674311157	 0.09905
H	-1.362670423	 0.7409992717	-2.0817478886	 0.105249
H	-3.7782628965	-0.9401273509	-1.1656306885	 0.102912
H	-4.1381895063	-1.2597842459	-3.6501124101	 0.118056
H	-2.7259610985	-0.1395207234	-4.0093967362	 0.114133
41.1373	62.7719	99.747	198.4617	228.2265	266.4629	309.337	341.1471	385.3795	397.2707	476.9251	550.1663	709.1304	783.1072	791.1762	861.5199	868.4899	906.2641	931.8774	956.4105	965.1201	987.6165	1036.3612	1061.588	1080.2998	1090.643	1096.4965	1129.7666	1159.8055	1161.1281	1180.3126	1192.0287	1270.2923	1290.2972	1302.3321	1341.1025	1377.8018	1418.4016	1454.735	1456.8079	1483.2215	1484.6889	1491.6809	1507.6869	1531.6585	2995.1509	3028.3027	3059.9005	3083.6035	3090.5103	3110.8737	3115.1019	3131.1254	3137.7329	3169.6452	3220.3199	3233.3912
CC1(CC1)OCC1CO1	CC1(CC1)OC[C@H]1CO1	
InChI=1S/C7H12O2/c1-7(2-3-7)9-5-6-4-8-6/h6H,2-5H2,1H3	InChI=1S/C7H12O2/c1-7(2-3-7)9-5-6-4-8-6/h6H,2-5H2,1H3/t6-/m1/s1
