15
gdb 44041	3.39241	1.78421	1.53446	4.1048	69.55	-0.2571	-0.0149	0.2422	870.189	0.113025	-420.501843	-420.495602	-420.494658	-420.532284	25.525	
O	-0.1328557569	 0.136282789	-0.496685062	-0.302835
C	 0.0116236453	 1.2305671702	-0.0726187727	 0.381322
O	-1.0044235216	 2.0874773107	 0.4159130352	-0.286512
C	 0.0092832212	 3.0128632197	 0.8899105794	 0.335944
C	 0.7347254353	 2.8950799149	 2.2290973729	-0.300176
C	 1.8265771702	 3.1865129008	 1.1788311688	-0.096428
C	 0.8942209123	 4.1883027881	 0.3371691308	-0.097414
C	 1.1503315738	 3.4573380477	-0.9841654371	-0.280065
C	 1.0996355788	 2.3177363973	 0.0674684841	-0.00331
H	 0.5423196892	 3.6667539931	 2.9777382155	 0.110111
H	 0.7625142395	 1.8984624712	 2.6782061597	 0.117577
H	 2.9010372887	 3.3080228691	 1.3244961436	 0.100779
H	 0.7884352656	 5.2585210925	 0.5324421498	 0.088491
H	 0.3367552811	 3.4811287453	-1.7135355472	 0.121592
H	 2.1146488275	 3.6191640904	-1.4709455808	 0.110924
135.1025	309.8759	329.6029	381.7489	448.3421	511.0448	633.7461	681.9718	724.0331	777.2104	789.407	863.7754	874.3033	897.3288	920.1474	941.4203	998.8954	1004.7013	1023.8493	1059.3754	1078.3904	1116.7397	1139.1987	1149.2328	1167.8591	1192.6918	1207.2944	1227.7825	1249.4564	1269.0562	1504.4646	1507.9754	1935.1292	3060.1945	3062.4514	3081.3475	3106.7617	3124.4853	3125.6852
O=C1OC23CC4C2CC134	O=C1O[C@]23C[C@@H]4[C@H]2C[C@]134	
InChI=1S/C7H6O2/c8-5-6-1-4-3(6)2-7(4,6)9-5/h3-4H,1-2H2	InChI=1S/C7H6O2/c8-5-6-1-4-3(6)2-7(4,6)9-5/h3-4H,1-2H2/t3-,4-,6+,7-/m1/s1
