14
gdb 7222	5.16446	1.1676	0.96338	0.6083	64.64	-0.2457	-0.0898	0.1558	1146.3474	0.102291	-382.536306	-382.527229	-382.526285	-382.571257	30.738	
C	 0.2431800719	 1.4840878705	 0.0707350406	-0.475042
C	 0.1593870412	-0.0199287815	 0.0354376394	 0.306237
O	 0.0837593568	-0.7259776968	 1.0138048761	-0.272884
C	 0.1741488325	-0.6672650918	-1.3730537042	 0.275901
O	 0.2490617034	 0.0220526597	-2.3575711344	-0.256571
C	 0.0879345077	-2.1931362311	-1.3759181911	-0.484431
C	 0.1027770607	-2.785061123	-2.700564149	 0.31309
C	 0.1151101389	-3.273856273	-3.7969107072	-0.412544
H	 1.1569005326	 1.8198137368	-0.4299958617	 0.160097
H	-0.5881659029	 1.9185341433	-0.4935781344	 0.160097
H	 0.225058185	 1.8296558714	 1.1043088028	 0.144524
H	 0.9110823219	-2.5704718255	-0.7548046839	 0.170553
H	-0.8153988861	-2.4728221939	-0.8177979342	 0.170553
H	 0.1259402863	-3.7074232452	-4.7661224488	 0.200421
41.647	48.0831	110.8899	120.0652	228.2616	316.9089	330.2089	347.8574	401.5627	518.339	590.1258	602.4473	633.4335	650.773	802.9598	888.8221	893.0775	995.9218	1035.8412	1059.5404	1193.3924	1238.1985	1341.8335	1384.6028	1418.4933	1452.1738	1459.7249	1805.747	1819.5539	2251.2019	3032.0704	3050.2598	3054.031	3111.3593	3163.8804	3507.1995
CC(=O)C(=O)CC#C	CC(=O)C(=O)CC#C	
InChI=1S/C6H6O2/c1-3-4-6(8)5(2)7/h1H,4H2,2H3	InChI=1S/C6H6O2/c1-3-4-6(8)5(2)7/h1H,4H2,2H3
