16
gdb 48962	3.19849	1.67266	1.41698	3.4861	68.63	-0.242	-0.0415	0.2005	926.4714	0.125417	-437.830327	-437.823575	-437.822631	-437.861723	26.59	
O	-0.1750731731	 0.1232312385	-0.2759108755	-0.240613
C	 0.0112415334	 1.2222355905	 0.1802521351	 0.051321
C	 1.2832972191	 1.9856654589	 0.0313453023	 0.377994
O	 1.5136533097	 3.037686924	 0.9652831344	-0.329967
C	 2.5421818017	 3.4855406656	 0.0324586011	 0.041114
C	 3.6040551205	 2.3837840507	 0.2100398763	-0.223957
C	 2.675078277	 1.2854703007	-0.3562600736	-0.090339
N	 2.4228062927	 1.7072980182	-1.7629026121	-0.296588
C	 1.7183533202	 2.8457940786	-1.1876742284	-0.098134
H	-0.7717099277	 1.7711866168	 0.7484222553	 0.089426
H	 2.7964312044	 4.5389977988	 0.1303707672	 0.089238
H	 4.5084610047	 2.504156709	-0.3933436094	 0.099244
H	 3.8683790745	 2.271725416	 1.2633231729	 0.119882
H	 2.8727153517	 0.232324358	-0.1712066838	 0.097937
H	 3.2657915998	 1.9345045329	-2.2896152103	 0.215469
H	 1.0661567714	 3.4692188527	-1.7974559516	 0.097972
89.5513	165.9276	211.7777	439.2136	466.3675	500.4541	531.196	646.9361	711.5837	751.6618	819.5375	828.2028	858.1265	905.5744	920.1524	947.5807	971.7196	995.0335	1015.5837	1028.2265	1059.1987	1096.0658	1110.3621	1130.9263	1167.1831	1223.5328	1239.5829	1255.6474	1281.9627	1306.5729	1339.1305	1340.7354	1414.1371	1476.9424	1823.747	2895.3416	3064.787	3127.9329	3134.0796	3147.7465	3154.9517	3456.8168
O=CC12OC3CC1NC23	O=C[C@@]12O[C@H]3C[C@@H]1N[C@@H]23	
InChI=1S/C6H7NO2/c8-2-6-4-1-3(9-6)5(6)7-4/h2-5,7H,1H2	InChI=1S/C6H7NO2/c8-2-6-4-1-3(9-6)5(6)7-4/h2-5,7H,1H2/t3-,4-,5+,6+/m0/s1
