16
gdb 51122	3.58656	1.14337	1.01201	2.3701	68.67	-0.2307	-0.0348	0.1959	1166.5953	0.121962	-437.782615	-437.77471	-437.773765	-437.816335	29.349	
O	 0.0809460714	-0.1829767463	-0.0831633366	-0.232452
C	 0.0318389757	 1.0161571645	-0.0069533469	 0.156993
C	 1.237113814	 1.9376524183	-0.0761963274	-0.396421
C	 1.1390059891	 2.8759416418	-1.2418806777	 0.422041
O	 1.7284362472	 4.171504567	-1.1681008246	-0.258304
C	 0.3447759996	 4.0797913687	-1.514826995	-0.062397
C	 0.2208096556	 3.6718652623	-3.0273277719	-0.091264
N	 1.5908579684	 3.5588193869	-3.577971895	-0.308553
C	 1.0271293496	 2.4600993183	-2.7622673472	-0.148074
H	-0.9392561381	 1.5484319173	 0.1154527139	 0.080752
H	 1.2662526519	 2.5400559153	 0.8404562376	 0.138519
H	 2.1456924515	 1.3297921801	-0.1309835797	 0.133843
H	-0.3692662128	 4.6342233603	-0.9175004538	 0.112299
H	-0.6501504605	 3.8090419802	-3.6534149715	 0.104659
H	 1.4884155175	 3.2760941395	-4.5535245352	 0.235894
H	 0.92039172	 1.449790806	-3.134604359	 0.112465
40.0137	65.1665	151.3288	257.4811	330.1142	420.9261	456.4304	500.2637	592.9697	667.4636	757.0212	799.0368	804.4711	820.0733	848.3978	878.5961	909.6353	922.991	983.6351	996.0072	1031.1398	1071.1686	1099.4343	1101.9406	1137.4838	1208.0411	1219.8001	1284.0133	1288.7481	1297.7896	1344.3661	1422.4629	1455.032	1455.8746	1836.968	2871.7035	3035.744	3098.3671	3188.3926	3202.6991	3216.2173	3465.8746
O=CCC12OC1C1NC21	O=CC[C@]12O[C@H]1[C@H]1N[C@@H]21	
InChI=1S/C6H7NO2/c8-2-1-6-4-3(7-4)5(6)9-6/h2-5,7H,1H2	InChI=1S/C6H7NO2/c8-2-1-6-4-3(7-4)5(6)9-6/h2-5,7H,1H2/t3-,4+,5-,6+/m0/s1
