22
gdb 109951	2.13005	1.48896	1.07173	2.0911	82.86	-0.2384	0.0685	0.307	1238.7371	0.193351	-404.302664	-404.293033	-404.292089	-404.337058	35.925	
C	-0.5442797706	 1.6341960756	 0.0250013836	-0.241408
O	-0.3561382592	 0.2805331004	 0.3800453801	-0.240212
C	-1.4316268083	-0.5527973583	 0.041023888	 0.065405
C	-1.5112841633	-1.2020065861	-1.3887390955	-0.037206
C	-0.1785564692	-1.2404030367	-2.1301941045	-0.387536
C	-1.8861490735	-2.5515570274	-0.6932976156	-0.315093
C	-1.3702591411	-1.9611008053	 0.6211422894	 0.332559
C	-0.2957106975	-2.4600989512	 1.5042047454	-0.293153
N	-1.6983990851	-2.4016819396	 1.9695376722	-0.385364
H	 0.3328335091	 2.1856289357	 0.3721076263	 0.128284
H	-0.6382420888	 1.7688924673	-1.0620531355	 0.111451
H	-1.4424766077	 2.05526434	 0.5028186625	 0.106371
H	-2.3858428755	-0.0610994969	 0.294926054	 0.062409
H	-2.2918443337	-0.7862029127	-2.0315361822	 0.064164
H	 0.6193072079	-1.6341167759	-1.4936678726	 0.126818
H	-0.2531172902	-1.8800045011	-3.0160141664	 0.111471
H	 0.1278000001	-0.2431723225	-2.4615599745	 0.113391
H	-2.9633023643	-2.7385707551	-0.6697177335	 0.106116
H	-1.3793421317	-3.4453912801	-1.0657806314	 0.102809
H	 0.0959693153	-3.4647406663	 1.3664272645	 0.113822
H	 0.4140071462	-1.7323375795	 1.8862894405	 0.125494
H	-1.8247818889	-1.5939304042	 2.5765617651	 0.229406
77.208	104.2692	157.6828	177.5377	216.3276	237.9048	248.8168	300.5598	342.589	388.768	489.5033	521.1067	625.5798	796.2545	810.3931	815.9203	883.7578	897.7632	939.3327	951.9539	975.7566	1021.1849	1032.2309	1063.6072	1087.8899	1115.804	1122.5715	1160.6328	1178.2141	1185.9683	1201.6593	1234.0385	1253.3668	1264.9567	1283.0836	1311.4924	1357.3375	1389.2401	1413.2058	1421.2176	1479.395	1484.6774	1489.3736	1495.4286	1495.9935	1509.9079	1511.0023	2956.2543	2980.5591	3031.0418	3035.3653	3054.927	3065.2935	3099.3778	3107.9987	3108.5604	3113.5813	3115.757	3199.2698	3480.9379
COC1C(C)CC11CN1	CO[C@H]1[C@@H](C)C[C@]21CN2	
InChI=1S/C7H13NO/c1-5-3-7(4-8-7)6(5)9-2/h5-6,8H,3-4H2,1-2H3	InChI=1S/C7H13NO/c1-5-3-7(4-8-7)6(5)9-2/h5-6,8H,3-4H2,1-2H3/t5-,6-,7+/m0/s1
