19
gdb 52151	5.22091	0.80558	0.79388	3.7388	78.53	-0.2432	0.0331	0.2763	1472.7576	0.161215	-419.145665	-419.137489	-419.136545	-419.180112	30.331	
O	-0.2875916111	 0.3513866013	 0.3725369962	-0.326462
C	-0.02349367	 1.160531027	-0.4926096689	 0.154629
N	 1.2224498757	 1.4259057691	-0.962053274	-0.270186
C	 2.4229690709	 0.8047230492	-0.4255171433	-0.219718
C	 3.4684252156	 1.8823071898	-0.1920387803	 0.077107
C	 5.0009115699	 1.6612244088	-0.2570079031	-0.084734
C	 4.809917458	 1.5561325136	-1.7850263403	-0.177422
N	 3.8763339383	 2.7306685677	-1.4276005423	-0.16851
C	 5.0457980368	 3.1815625621	-0.5309235705	-0.164021
H	-0.7922817117	 1.776867871	-0.9995203957	 0.074953
H	 1.3508861042	 2.1526023539	-1.650541181	 0.262089
H	 2.145947017	 0.333349595	 0.5211800181	 0.147796
H	 2.775405389	 0.0079365473	-1.0895648047	 0.11344
H	 3.1243172973	 2.534561334	 0.6183432987	 0.084648
H	 5.6362436475	 1.0620004233	 0.4035265958	 0.072547
H	 5.6459168588	 1.8564344619	-2.4218695182	 0.105907
H	 4.3047242452	 0.6864766595	-2.205342829	 0.106708
H	 4.7451929226	 3.8622982788	 0.2699270747	 0.106081
H	 5.894049116	 3.5758460968	-1.0958270821	 0.105149
26.7634	64.5856	140.2717	212.5447	286.9479	378.9396	416.3058	577.288	595.5547	600.0221	744.0859	768.1515	786.6186	810.1038	893.2857	904.6883	925.9922	988.4523	1028.9087	1035.756	1042.7959	1055.3623	1093.5325	1129.6377	1153.7895	1166.7106	1181.9055	1201.3534	1215.4932	1230.1983	1248.1411	1252.7204	1289.3162	1355.6254	1427.6849	1441.2083	1501.0948	1521.697	1525.2936	1557.7209	1802.7614	2937.2456	3035.8518	3045.0514	3048.7687	3059.249	3074.6119	3104.965	3123.3902	3137.9045	3619.0708
O=CNCC1C2CN1C2	O=CNC[C@H]1[C@H]2CN1C2	
InChI=1S/C6H10N2O/c9-4-7-1-6-5-2-8(6)3-5/h4-6H,1-3H2,(H,7,9)	InChI=1S/C6H10N2O/c9-4-7-1-6-5-2-8(6)3-5/h4-6H,1-3H2,(H,7,9)/t6-/m0/s1
