19
gdb 119219	1.99619	1.27416	0.87961	2.6617	79.83	-0.2557	0.0283	0.284	1387.1086	0.154667	-422.95672	-422.946307	-422.945363	-422.992586	36.74	
C	-0.2899554286	 1.3802839524	-0.1035244815	-0.223023
O	-0.2786247299	-0.0228854949	-0.2119709527	-0.225367
C	 0.8100697326	-0.5027586688	-0.9621699615	-0.133334
C	 0.7575855559	-2.0165250125	-0.9683015496	 0.156188
O	-0.1097168669	-2.6174415186	-1.9509904209	-0.27773
C	 1.2932905667	-2.8162620616	-2.1005501722	 0.039418
C	 1.9678935911	-2.2610431662	-3.3299357137	-0.431813
C	 0.7305498561	-2.6293247155	 0.3413950629	 0.311744
C	 0.7414132359	-3.1438365444	 1.4271926076	-0.438252
H	 0.6175353514	 1.7587498355	 0.3936705855	 0.104429
H	-0.3696266388	 1.8668436346	-1.0887486407	 0.104715
H	-1.1616246804	 1.6522643209	 0.4958321131	 0.132507
H	 0.7684804922	-0.1243906282	-1.9930567923	 0.094225
H	 1.7659628527	-0.1756584275	-0.5169728291	 0.093777
H	 1.6179590876	-3.8230309534	-1.8308753427	 0.097827
H	 1.6052548506	-1.2655782035	-3.5897078522	 0.132083
H	 3.0520665644	-2.2165304068	-3.1818247521	 0.12897
H	 1.7751383952	-2.9220460918	-4.181485459	 0.13584
H	 0.7341298823	-3.5945463396	 2.3887595512	 0.197795
65.5923	78.0433	124.0241	140.3812	161.8535	173.9833	227.572	269.4952	332.4612	375.3383	408.7568	489.9487	550.383	574.2351	615.4044	665.291	732.3367	799.6216	911.9908	960.8072	1003.5293	1013.1722	1052.9286	1123.6522	1161.7111	1167.0181	1186.0998	1226.8558	1241.4791	1286.0101	1330.4542	1406.0751	1422.6295	1451.4743	1475.9915	1485.0549	1485.836	1494.6222	1502.3855	1517.7473	2239.981	2954.4483	2970.0809	3012.0036	3021.1362	3042.3338	3091.8937	3102.3646	3119.9564	3141.9425	3502.6116
COCC1(OC1C)C#C	COC[C@]1(O[C@H]1C)C#C	
InChI=1S/C7H10O2/c1-4-7(5-8-3)6(2)9-7/h1,6H,5H2,2-3H3	InChI=1S/C7H10O2/c1-4-7(5-8-3)6(2)9-7/h1,6H,5H2,2-3H3/t6-,7+/m0/s1
