23
gdb 74267	2.49291	1.40539	1.17681	0.3238	91.91	-0.2177	0.0298	0.2475	1216.1318	0.205211	-351.170142	-351.160863	-351.159919	-351.203223	36.976	
C	-0.0744668463	 1.508458552	 0.0884520573	-0.49577
C	-0.0114256904	 0.0149513779	 0.0148249398	 0.316353
C	 0.1031796298	-0.7454223132	-1.0796088164	-0.223397
C	 0.0818153105	-2.2395357958	-0.7905659689	 0.259639
C	-1.2420490063	-2.8556087806	-1.2885065573	-0.417011
C	 1.2647284505	-2.9827401591	-1.436959405	-0.416494
C	 0.1154903805	-2.2649406683	 0.7481124512	-0.055106
C	 1.2570209371	-1.6140607639	 1.4843402912	-0.307121
C	-0.0251785776	-0.8387237107	 1.2452689241	-0.132254
H	 0.753789728	 1.9127876211	 0.6841007015	 0.126055
H	-0.0374424494	 1.9640505267	-0.9047934393	 0.120923
H	-0.9990881545	 1.8398850919	 0.5784313228	 0.123499
H	 0.2023959001	-0.3645572621	-2.0919379194	 0.077541
H	-1.3407352099	-2.7497315085	-2.3742683391	 0.106852
H	-1.2884287705	-3.9252444055	-1.0505152825	 0.105239
H	-2.1001404926	-2.3626108845	-0.8219781122	 0.114242
H	 2.2243478927	-2.585942646	-1.094666633	 0.112197
H	 1.2335604002	-4.0506769622	-1.194268443	 0.108926
H	 1.23372013	-2.8900224274	-2.5285358262	 0.10691
H	-0.4007270844	-3.0776299782	 1.248203383	 0.075745
H	 1.4501898332	-1.9692282779	 2.4918091335	 0.105145
H	 2.14169798	-1.303408663	 0.9379991331	 0.109624
H	-0.6443874007	-0.5653315126	 2.0937381746	 0.078263
123.4281	183.9326	200.897	221.812	231.2689	260.7969	292.4318	330.7434	379.0883	407.5693	473.3498	568.7716	594.4374	618.0453	753.4677	800.1346	837.1965	855.6108	888.5304	934.553	940.1877	947.1546	983.0935	1015.759	1022.5506	1044.3233	1058.9902	1069.2	1088.0524	1102.2704	1154.3572	1178.1931	1198.5541	1234.6019	1259.4564	1281.6074	1367.1347	1376.5408	1393.5271	1412.6092	1417.9087	1475.281	1479.0181	1483.2022	1486.7267	1490.0453	1501.6214	1506.648	1705.0562	3016.3685	3020.591	3027.9322	3061.8678	3085.4825	3091.2393	3105.8423	3109.8634	3110.026	3121.0616	3153.8935	3162.9602	3172.0846	3208.4491
CC1=CC(C)(C)C2CC12	CC1=CC(C)(C)[C@H]2C[C@@H]12	
InChI=1S/C9H14/c1-6-5-9(2,3)8-4-7(6)8/h5,7-8H,4H2,1-3H3	InChI=1S/C9H14/c1-6-5-9(2,3)8-4-7(6)8/h5,7-8H,4H2,1-3H3/t7-,8-/m0/s1
