22
gdb 77008	2.6902	0.98311	0.90646	4.1932	87.15	-0.2717	0.0396	0.3113	1426.2861	0.192197	-367.228841	-367.218269	-367.217325	-367.264513	38.57	
C	-0.3217860853	 1.0648723846	-1.8157445842	-0.423345
C	-0.0863327321	-0.1408105272	-0.9293949213	-0.038209
C	 1.2871312688	-0.5491680243	-0.4306711239	-0.054713
C	 2.5466685443	 0.2445727179	-0.7530957045	-0.375628
C	 3.0955817256	-0.1039234663	-2.0658344412	 0.267099
N	 3.518136407	-0.3914531766	-3.1023499133	-0.310721
C	 0.236697048	-0.060441038	 0.552765782	 0.285793
C	 0.3834538422	 1.2843320873	 1.2431040629	-0.454821
C	-0.3835958063	-1.1162226902	 1.4525584892	-0.446997
H	 0.3106937193	 1.9186650828	-1.5607717904	 0.112863
H	-0.1252011341	 0.8161789257	-2.8639320214	 0.136482
H	-1.3618624855	 1.4007728235	-1.7433829296	 0.122075
H	-0.7201969644	-0.9824245111	-1.200275025	 0.085894
H	 1.4769381277	-1.6191393577	-0.4123868049	 0.096518
H	 2.3655891965	 1.3224492042	-0.7384770972	 0.146812
H	 3.3192710059	 0.0526765299	 0.0014028378	 0.151396
H	 0.7910366781	 2.0661916218	 0.5992682076	 0.113341
H	-0.5919104897	 1.6365240234	 1.5980186513	 0.120938
H	 1.0372660197	 1.2013405278	 2.1193392628	 0.117846
H	 0.2209383981	-1.274492003	 2.3537476643	 0.114618
H	-1.386801589	-0.8143205616	 1.7761954685	 0.116937
H	-0.4750037649	-2.0781552726	 0.9388813703	 0.115823
42.6962	101.9222	151.6655	171.125	205.4095	217.4114	221.2667	269.4003	279.0749	357.2755	386.8169	442.5355	456.4468	489.2807	583.1526	686.4585	773.2306	827.2857	920.5352	934.8813	967.2611	979.4794	997.3577	1010.382	1043.736	1073.4208	1130.506	1151.1401	1168.6809	1179.3333	1228.8083	1271.5934	1314.3409	1333.2831	1386.5536	1410.8202	1416.6814	1428.0286	1453.4035	1465.1621	1482.349	1490.2799	1494.5362	1500.2469	1505.6227	1520.7923	2360.115	3019.7059	3029.2676	3037.3558	3043.2089	3079.0737	3083.0297	3095.1113	3095.6314	3099.6838	3107.873	3122.6663	3128.9499	3141.2097
CC1C(CC#N)C1(C)C	C[C@H]1[C@@H](CC#N)C1(C)C	
InChI=1S/C8H13N/c1-6-7(4-5-9)8(6,2)3/h6-7H,4H2,1-3H3	InChI=1S/C8H13N/c1-6-7(4-5-9)8(6,2)3/h6-7H,4H2,1-3H3/t6-,7+/m0/s1
