16
gdb 84490	3.0134	1.47251	1.10713	4.3635	72.62	-0.237	-0.0355	0.2015	1074.6532	0.124127	-437.871286	-437.863183	-437.862238	-437.904415	30.316	
O	 0.192309852	 1.3964510986	-0.2541429177	-0.414323
C	 0.056008353	 0.009896736	-0.0202604248	-0.006689
C	 0.688793705	-0.5126358341	 1.2475755656	-0.14821
C	-0.1427049329	-1.2869835284	 1.9531652051	-0.155236
C	-1.4820247674	-1.3795225355	 1.3283816377	 0.193257
C	-2.3518999927	-2.5958833814	 1.3439187703	-0.273353
N	-2.7450349066	-1.4122572048	 2.1013650258	-0.334732
C	-1.417195676	-0.4724971243	 0.1159184651	 0.297884
O	-2.3327955507	-0.1566683607	-0.5932300759	-0.294521
H	-0.2984081637	 1.8660997828	 0.4295317322	 0.286454
H	 0.4924111141	-0.4712976433	-0.9059553448	 0.124578
H	 1.7147799328	-0.2830725501	 1.5088450689	 0.115098
H	 0.100253699	-1.7936604966	 2.8818344937	 0.108989
H	-2.9636401671	-2.7952473812	 0.4682025494	 0.143731
H	-1.9809929382	-3.4727604217	 1.8692320252	 0.120556
H	-2.5234334708	-1.5349697453	 3.0882920242	 0.236516
41.5298	168.1967	207.0219	242.6516	274.2352	296.4119	358.0063	457.2132	534.3703	587.6776	666.119	701.7399	755.4231	788.6642	869.1061	888.0804	954.1183	968.915	978.8257	986.6898	1033.004	1076.0128	1106.9001	1136.9038	1149.6137	1241.5269	1256.7449	1267.9625	1311.6329	1338.6786	1408.1467	1418.1807	1495.759	1657.5417	1862.022	3025.8696	3103.8787	3177.842	3197.8359	3212.9904	3479.0586	3802.5549
OC1C=CC2(CN2)C1=O	O[C@H]1C=C[C@]2(CN2)C1=O	
InChI=1S/C6H7NO2/c8-4-1-2-6(3-7-6)5(4)9/h1-2,4,7-8H,3H2	InChI=1S/C6H7NO2/c8-4-1-2-6(3-7-6)5(4)9/h1-2,4,7-8H,3H2/t4-,6-/m0/s1
