17
gdb 61687	2.1991	1.18237	0.95513	2.2413	80.78	-0.2506	-0.0303	0.2203	1282.9869	0.130401	-384.624555	-384.614279	-384.613335	-384.659971	36.925	
C	 0.0249074264	 1.5247434971	 0.0733177212	-0.402974
C	-0.0641924889	-0.0229692736	-0.0229217283	-0.170015
C	 0.5758350903	-0.6757442023	 1.2465028721	-0.287288
C	-0.1035059096	-0.2850721709	 2.5438277657	 0.146193
O	 0.4890486382	 0.0604473972	 3.5337494615	-0.243458
C	-1.4722905141	-0.4338449146	-0.146850489	 0.35577
C	-2.6264162015	-0.7561626167	-0.2329070098	-0.482579
C	 0.6818456067	-0.4825333519	-1.2029683009	 0.341112
C	 1.3231716262	-0.8443021482	-2.1517944022	-0.44841
H	 1.070186642	 1.828890968	 0.1707556217	 0.135279
H	-0.3947137493	 1.9843217488	-0.8232077709	 0.141573
H	-0.5316457581	 1.8837697025	 0.9432856296	 0.134838
H	 0.5013003249	-1.7656037549	 1.1456327188	 0.141945
H	 1.6335404187	-0.408926869	 1.3060935843	 0.133978
H	-1.2123633648	-0.3591581192	 2.5306409324	 0.096034
H	-3.6446401665	-1.045919417	-0.3212811289	 0.205969
H	 1.8767400494	-1.1688767453	-2.9982280573	 0.202031
59.4471	89.3292	126.4531	139.0678	172.0001	219.5565	246.9158	293.5928	358.457	441.0007	470.1714	491.8168	563.5454	581.1033	642.6657	644.1189	649.0524	651.8636	691.2858	807.7899	919.5286	950.882	980.3277	1055.4598	1120.4841	1164.4643	1184.9626	1260.5838	1308.6356	1407.4862	1424.9392	1452.5103	1483.2546	1495.9575	1829.5753	2234.557	2241.4227	2905.2714	3041.6198	3049.9869	3116.7184	3128.2291	3142.9882	3499.2466	3500.9129
CC(CC=O)(C#C)C#C	CC(CC=O)(C#C)C#C	
InChI=1S/C8H8O/c1-4-8(3,5-2)6-7-9/h1-2,7H,6H2,3H3	InChI=1S/C8H8O/c1-4-8(3,5-2)6-7-9/h1-2,7H,6H2,3H3
