23
gdb 102322	1.79652	1.10881	0.82536	2.1462	83.52	-0.241	-0.0284	0.2126	1545.8962	0.201148	-425.44184	-425.430363	-425.429418	-425.479662	40.252	
C	-0.1082324676	 1.4321258812	 0.1115801759	-0.388602
C	 0.0532001129	-0.0802446641	-0.0562245003	-0.194402
C	 0.8535124404	-0.4533067753	-1.31364247	 0.040138
O	 2.1563031104	 0.075625358	-1.1831136563	-0.27228
C	 2.9220684122	 0.1412943046	-2.3926562275	 0.143605
C	 2.5541822548	 1.3819327278	-3.2089183498	-0.387853
C	 4.3885759768	 0.1362002602	-1.9779381722	-0.389919
C	 0.9072471569	-1.9746001305	-1.438301714	 0.138234
O	 0.0368003199	-2.6494234593	-1.9221932573	-0.249519
H	 0.8681454174	 1.9198544711	 0.1572462794	 0.134412
H	-0.6649048002	 1.864071098	-0.7273224496	 0.114405
H	-0.6539915192	 1.6642094844	 1.0308389811	 0.115474
H	 0.5661224564	-0.5019872313	 0.8169851013	 0.108113
H	-0.9236737694	-0.5705856897	-0.1252034971	 0.118365
H	 0.3339584454	-0.0581898041	-2.1990751672	 0.088881
H	 2.7181985132	-0.7580277938	-2.9965285664	 0.074735
H	 3.1392143364	 1.4189230498	-4.1333156363	 0.117463
H	 1.4959946901	 1.3866490686	-3.4860073453	 0.119683
H	 2.7610836423	 2.2878543347	-2.6305090337	 0.124661
H	 4.6245693093	-0.7680387276	-1.4109362141	 0.120805
H	 5.039111865	 0.1794643688	-2.8562738509	 0.115909
H	 4.6041684404	 1.0027525428	-1.3447790628	 0.125588
H	 1.8318750766	-2.4191729445	-0.9998448172	 0.082104
36.4912	60.0617	79.3989	101.8098	163.0012	211.669	215.2529	237.5382	245.4347	298.239	339.6071	396.269	424.8792	463.6803	478.7552	591.4629	767.5603	837.0209	871.1986	923.8689	926.9606	946.5838	975.2295	1015.1351	1050.9068	1095.698	1136.4634	1145.4877	1155.0288	1176.9201	1205.8122	1275.1103	1299.6878	1338.3738	1363.4716	1372.6223	1387.9289	1396.9824	1403.7888	1412.5137	1417.5074	1477.9041	1479.96	1484.1828	1494.3979	1496.0943	1507.5612	1509.6786	1835.3616	2859.6797	2967.0385	3003.2017	3034.3755	3038.2435	3039.7797	3043.666	3080.9794	3105.6568	3110.0194	3112.9254	3118.2109	3123.2968	3130.2767
CCC(OC(C)C)C=O	CC[C@@H](OC(C)C)C=O	
InChI=1S/C7H14O2/c1-4-7(5-8)9-6(2)3/h5-7H,4H2,1-3H3	InChI=1S/C7H14O2/c1-4-7(5-8)9-6(2)3/h5-7H,4H2,1-3H3/t7-/m1/s1
