19
gdb 95364	2.80679	1.56464	1.10303	1.7171	77.67	-0.2395	0.0118	0.2513	1112.616	0.160896	-423.028674	-423.020735	-423.019791	-423.061498	30.531	
O	-0.1523804729	 1.4149305632	-0.1582318948	-0.426848
C	 0.0025933584	 0.0155841088	 0.0258924796	-0.042629
C	 0.558028835	-0.4040053968	 1.4350983401	-0.102149
O	-0.5002934312	-1.0144693562	 2.1716813917	-0.269321
C	-1.3584920663	-1.6242034712	 1.2039606371	 0.062331
C	-2.8434696136	-1.6975176369	 1.5887297465	-0.247834
C	-3.5916229125	-1.2370123125	 0.2996405535	-0.251973
C	-2.5495341537	-0.4000271264	-0.4207524943	-0.210508
C	-1.3376015781	-0.6464971753	 0.0623808457	 0.333149
H	 0.7205972334	 1.7929799903	-0.3033700325	 0.284411
H	 0.651146731	-0.3986744864	-0.7614681998	 0.077381
H	 1.3953658231	-1.1099623507	 1.3151936443	 0.084185
H	 0.9083958058	 0.4689216575	 1.9934633724	 0.108831
H	-0.9533635105	-2.6155133313	 0.9307456871	 0.062334
H	-3.1583911028	-2.682470413	 1.9412916665	 0.09635
H	-3.0129616515	-0.9756432641	 2.3932719123	 0.121734
H	-3.913535222	-2.0947882774	-0.3073320621	 0.108161
H	-4.4989607647	-0.6658708552	 0.5245822225	 0.107953
H	-2.7939065468	 0.3291476736	-1.1841728859	 0.104441
60.2029	149.2792	160.0449	274.4252	287.3256	346.5549	414.8435	493.0839	585.7464	614.3804	685.204	745.1141	834.0362	838.3237	871.3022	903.5271	916.252	958.285	980.3953	1013.2216	1026.9708	1066.6163	1091.1312	1110.8008	1164.4561	1177.2718	1213.4078	1232.728	1248.0536	1265.4977	1284.6193	1300.3644	1321.3007	1351.7852	1362.97	1381.8604	1434.2516	1482.1258	1497.7685	1499.3829	1749.8174	2928.7262	2962.6931	2983.872	3010.4256	3056.4645	3066.601	3085.6787	3113.7095	3203.9592	3818.1559
OC1COC2CCC=C12	O[C@H]1CO[C@H]2CCC=C12	
InChI=1S/C7H10O2/c8-6-4-9-7-3-1-2-5(6)7/h2,6-8H,1,3-4H2	InChI=1S/C7H10O2/c8-6-4-9-7-3-1-2-5(6)7/h2,6-8H,1,3-4H2/t6-,7-/m0/s1
