20
gdb 90300	2.87023	1.67786	1.35515	1.1647	84.52	-0.2235	0.0141	0.2377	1021.6029	0.173216	-365.965077	-365.957607	-365.956663	-365.996606	30.685	
C	-0.1467282084	 1.553377521	-0.1692200588	-0.389543
C	-0.0013504221	 0.0421343819	-0.054805497	-0.014844
C	 1.249873468	-0.5606534371	-0.814848894	-0.332908
C	 1.9038617207	-0.6326060433	 0.5437789375	 0.280303
C	 2.9644908463	-0.2025103774	 1.2300527244	-0.218079
C	 2.5034492481	 0.2312791823	 2.5905735514	-0.066941
N	 1.6758871988	 1.4673166834	 2.4832197532	-0.329614
C	 0.9991812984	 0.1564170039	 2.594137041	-0.089681
C	 0.6036190736	-0.5334065055	 1.2996654213	-0.040297
H	 0.7746789698	 2.0646236179	 0.1164917243	 0.147894
H	-0.4074101409	 1.8324625523	-1.196413318	 0.102312
H	-0.9415030111	 1.9195031508	 0.4891902465	 0.108834
H	-0.9406362799	-0.4484262582	-0.3263322847	 0.06931
H	 1.0229339676	-1.5381147971	-1.2527582947	 0.10517
H	 1.7282770156	 0.0674036984	-1.5708606083	 0.109103
H	 3.9542755134	 0.0108058549	 0.844385253	 0.09358
H	 3.0963670307	 0.0879356567	 3.4883494735	 0.08554
H	 1.6326080896	 1.9130142949	 3.3983049198	 0.225638
H	 0.4602429328	-0.0591490086	 3.5105857733	 0.080914
H	 0.1371564992	-1.5013185211	 1.5194528364	 0.073306
122.5373	186.8145	247.3343	289.064	346.1811	365.1989	471.5995	526.5464	654.3442	687.8993	741.8893	780.6465	800.9254	818.0522	839.0872	859.6534	890.5427	894.7177	933.2023	964.0729	1000.6268	1049.3899	1073.4027	1084.3936	1090.2991	1104.1447	1138.3864	1146.8319	1170.2462	1204.1825	1224.3543	1234.7851	1265.4374	1282.0679	1340.684	1354.0067	1368.403	1398.7827	1419.8444	1474.4489	1492.9164	1501.4327	1704.1438	3025.2718	3032.0922	3043.634	3058.9823	3091.5166	3101.9613	3136.7226	3155.8704	3166.0699	3201.4544	3475.7808
CC1CC2=CC3NC3C12	C[C@H]1C[C]2[CH][C@H]3N[C@H]3[C@@H]12	
InChI=1S/C8H11N/c1-4-2-5-3-6-8(9-6)7(4)5/h3-4,6-9H,2H2,1H3	InChI=1S/C8H11N/c1-4-2-5-3-6-8(9-6)7(4)5/h3-4,6-9H,2H2,1H3/t4-,6+,7-,8+/m0/s1
