23
gdb 68445	2.64764	1.6312	1.22944	0.1616	90.44	-0.2343	0.0374	0.2717	1122.7037	0.208046	-351.168158	-351.160041	-351.159097	-351.200015	33.764	
C	 0.0416872342	 1.5916226533	 0.1732812362	-0.459163
C	 0.03146137	 0.0857058943	-0.0710602779	 0.329677
C	 1.257825654	-0.4977022869	-0.8399684353	-0.264809
C	 1.3119152317	-1.6636576371	 0.1869118862	 0.000744
C	 0.4271034813	-0.8135499259	 1.1415243697	-0.26481
C	 0.6563538755	-2.9549486343	-0.2937573389	-0.265076
C	-0.7345348073	-2.8548054741	-0.8608903725	-0.047818
C	-1.5245512554	-1.7914092008	-1.022593837	-0.054205
C	-1.3014806428	-0.3380415071	-0.6974378112	-0.2891
H	 0.9884663918	 1.9113276078	 0.6211340974	 0.105945
H	-0.0892816589	 2.147980384	-0.7627539493	 0.109651
H	-0.7662189731	 1.8905509831	 0.8520878948	 0.109653
H	 1.1101724597	-0.7617208053	-1.8914126946	 0.094181
H	 2.1305780395	 0.1574906975	-0.7632600364	 0.087584
H	 2.3099273059	-1.8992841523	 0.5677595963	 0.05962
H	 1.0250885801	-0.2628229647	 1.8736257238	 0.087584
H	-0.3819243696	-1.3290274751	 1.6676408549	 0.094182
H	 1.3022352963	-3.4217510636	-1.0535878778	 0.102774
H	 0.6347802928	-3.675545265	 0.5385192425	 0.102773
H	-1.1387523114	-3.8139678241	-1.183223706	 0.078973
H	-2.5038162201	-1.9781048737	-1.4628805499	 0.079406
H	-2.1176719609	-0.0135469369	-0.0324694951	 0.101116
H	-1.450692323	 0.2399968968	-1.6233194199	 0.101118
151.2054	209.7268	246.9251	252.4098	348.5874	358.7483	376.1265	387.6467	405.7733	520.8084	620.1427	680.1059	772.8536	816.666	828.9591	841.665	874.9576	894.8534	895.5963	920.24	960.196	990.6405	1021.531	1023.1329	1043.5703	1087.0531	1099.8967	1129.2151	1139.7307	1187.3487	1202.7255	1245.5491	1258.334	1273.8955	1277.9435	1305.1018	1307.7429	1359.6899	1386.0774	1397.5536	1411.8877	1435.6031	1460.6282	1465.8136	1470.8478	1493.8573	1496.1416	1500.3553	1736.7278	2978.117	2984.4692	2999.1336	3005.2245	3017.3419	3042.6971	3044.514	3059.3195	3081.1497	3089.4754	3096.5557	3099.489	3112.8879	3138.3402
CC12CC(C1)CC=CC2	C[C@@]12C[C@@H](C1)CC=CC2	
InChI=1S/C9H14/c1-9-5-3-2-4-8(6-9)7-9/h2-3,8H,4-7H2,1H3	InChI=1S/C9H14/c1-9-5-3-2-4-8(6-9)7-9/h2-3,8H,4-7H2,1H3/t8-,9+
