18
gdb 79215	2.68316	1.59731	1.29324	1.1527	82.2	-0.2344	0.0297	0.2641	1039.7015	0.147084	-364.715899	-364.707969	-364.707025	-364.74799	31.541	
C	-0.0518435244	 1.5754347613	 0.015167497	-0.429705
C	 0.0942577565	 0.0669031517	 0.052959513	 0.054556
N	 1.1184174481	-0.5593547457	-0.8467037956	-0.161745
C	 2.3847558031	-0.6251078304	-0.0276765068	-0.052199
C	 2.1506071656	-0.0468150755	 1.3643176695	-0.292819
C	 0.7279845825	-0.6793324489	 1.2673694524	 0.201019
C	-0.0252706638	-1.0223405576	 2.4357212551	 0.033439
C	-0.67596595	-1.3116043609	 3.4061261483	-0.337857
C	 1.3244369548	-1.6415888352	 0.1446813371	-0.101044
H	 0.893670668	 2.0934186834	 0.1923136656	 0.122741
H	-0.4207124188	 1.8851374002	-0.9678111533	 0.1305
H	-0.7741310901	 1.9062186872	 0.7690430319	 0.126992
H	-0.8605581712	-0.4087894106	-0.1923633091	 0.091445
H	 3.3079707168	-0.6895699898	-0.5871649288	 0.104781
H	 2.7542912225	-0.5766043246	 2.104540629	 0.1193
H	 2.2207819791	 1.030949895	 1.5331167995	 0.103488
H	-1.2466021267	-1.5655666794	 4.2648072585	 0.181694
H	 1.241162358	-2.7011235303	-0.0569819433	 0.105414
123.4876	150.6847	176.5245	244.8513	299.3348	425.7491	485.9665	515.257	547.6887	588.9745	616.9061	644.0679	698.2345	729.6896	798.9951	840.8722	863.8679	912.9853	937.0582	965.0413	977.8404	1014.8174	1060.591	1101.8373	1114.7943	1129.6259	1151.0872	1166.1576	1203.4625	1212.1754	1263.4143	1303.1848	1335.8523	1393.2547	1412.0813	1484.2843	1490.2798	1513.4192	2230.5489	3040.8267	3058.2796	3064.1971	3107.4129	3117.8355	3127.0918	3202.6259	3217.3941	3501.7012
CC1N2C3CC1(C#C)C23	C[C@H]1N2[C@H]3C[C@]1(C#C)[C@@H]23	
InChI=1S/C8H9N/c1-3-8-4-6-7(8)9(6)5(8)2/h1,5-7H,4H2,2H3	InChI=1S/C8H9N/c1-3-8-4-6-7(8)9(6)5(8)2/h1,5-7H,4H2,2H3/t5-,6+,7+,8+,9?/m1/s1
