19
gdb 117402	5.81117	0.6176	0.596	0.7742	78.46	-0.232	-0.0202	0.2118	1923.1068	0.156746	-456.361818	-456.351289	-456.350345	-456.398674	35.709	
C	 0.89306488	 0.840916355	 0.1648855026	-0.321031
N	-0.3364726414	 0.3206031213	-0.4311677506	-0.260432
C	-0.1138457093	-0.5974334327	-1.5232937697	-0.293316
C	 0.4206004714	-1.9665943971	-1.1144692341	 0.443505
O	 0.4718181272	-2.3881257286	 0.0093380737	-0.34241
O	 0.8045608746	-2.6719299156	-2.2242436197	-0.219429
C	 1.2617573629	-3.9591297773	-2.0520149755	 0.114145
N	 1.6150590726	-4.6056292896	-3.0653085736	-0.189337
C	 2.091668754	-5.9589569476	-2.8547772474	-0.31883
H	 1.5790182253	 0.0662810958	 0.5411543738	 0.114345
H	 1.4281727605	 1.4413500274	-0.5795156618	 0.122059
H	 0.6340578847	 1.5012228672	 0.9970587072	 0.123873
H	-0.8819577757	-0.1479285766	 0.2849011328	 0.229431
H	-1.0512809321	-0.7787253085	-2.0669434097	 0.141727
H	 0.5746339062	-0.1593666608	-2.2541949828	 0.142702
H	 1.266799185	-4.287909943	-1.0106050554	 0.133119
H	 1.4696133889	-6.6526276362	-3.4305671597	 0.136481
H	 3.1111329605	-6.0457845951	-3.2456852865	 0.136528
H	 2.0907956946	-6.2775385479	-1.8011213234	 0.10687
39.6611	73.9306	95.947	116.3914	130.1477	196.7645	214.2805	269.4761	309.0327	330.4299	384.6618	427.6458	561.094	573.4733	708.0352	774.8735	913.9941	952.1246	989.1656	1001.2605	1062.3311	1104.4838	1141.1701	1147.3189	1155.3583	1176.4244	1185.0694	1210.285	1307.7698	1360.2794	1376.8564	1441.5827	1447.4926	1460.4753	1481.1924	1487.8767	1501.5599	1503.0596	1526.5119	1778.1938	1833.8876	2985.0159	2985.5056	3024.3984	3063.5348	3071.8416	3080.4714	3090.015	3108.5683	3113.9421	3528.8944
CNCC(=O)OC=NC	CNCC(=O)OC=NC	
InChI=1S/C5H10N2O2/c1-6-3-5(8)9-4-7-2/h4,6H,3H2,1-2H3	InChI=1S/C5H10N2O2/c1-6-3-5(8)9-4-7-2/h4,6H,3H2,1-2H3
