18
gdb 6919	3.95578	1.19989	1.13386	3.9786	69.62	-0.2693	0.0031	0.2724	1123.5464	0.151132	-384.954629	-384.945685	-384.944741	-384.988387	31.988	
C	-0.0074761332	 1.479890374	 0.3424091795	-0.458363
C	 0.0545848543	-0.0176892184	 0.1143114489	 0.301662
C	-1.2276540407	-0.6406595923	-0.4041525007	-0.450909
C	 1.3728484445	-0.6120186812	-0.3516714646	-0.353264
C	 0.8973941268	-0.8595988379	 1.0455725551	 0.07428
O	 1.656621206	-0.2401938745	 2.0691097401	-0.183926
C	 1.0657329478	-0.1478585854	 3.2791073189	 0.174295
O	 1.6032625737	 0.3517446729	 4.2206509016	-0.272891
H	 0.9290298604	 1.8679087446	 0.7489141138	 0.137514
H	-0.2115931974	 2.0013924616	-0.5991595697	 0.121416
H	-0.8107738786	 1.7379749385	 1.0427403427	 0.117818
H	-1.4875367079	-0.233006235	-1.3877532647	 0.123703
H	-1.1358491863	-1.7262893789	-0.510675257	 0.115024
H	-2.0663845534	-0.438387558	 0.2719829803	 0.119362
H	 1.3660822569	-1.4421633679	-1.0497743053	 0.117912
H	 2.2153343468	 0.062836906	-0.456103568	 0.132328
H	 0.5487310501	-1.8536653176	 1.3137971738	 0.105519
H	 0.0497964103	-0.5875942106	 3.2950991553	 0.078517
56.7352	127.5885	132.6096	204.6759	223.6261	249.2183	326.8802	342.9464	364.1619	436.6434	509.2035	642.7322	716.3714	829.9894	889.2289	916.7155	974.4603	988.3566	1036.2596	1050.5297	1056.2454	1092.4503	1123.5003	1156.0048	1168.2086	1189.4677	1284.3865	1336.3642	1398.7925	1411.6696	1425.6877	1432.8007	1482.8338	1485.7333	1493.2401	1501.6758	1514.7385	1868.8369	2953.8641	3023.1326	3029.5318	3084.7719	3087.9126	3098.3478	3124.6481	3133.4844	3137.8873	3224.3301
CC1(C)CC1OC=O	CC1(C)C[C@H]1OC=O	
InChI=1S/C6H10O2/c1-6(2)3-5(6)8-4-7/h4-5H,3H2,1-2H3	InChI=1S/C6H10O2/c1-6(2)3-5(6)8-4-7/h4-5H,3H2,1-2H3/t5-/m1/s1
