20
gdb 23224	3.27191	1.29253	1.09563	1.0053	81.92	-0.2334	0.0215	0.2549	1157.4076	0.173188	-403.114351	-403.106419	-403.105475	-403.147383	31.427	
O	-0.0927334532	 1.3372270663	 0.2480404515	-0.402505
N	 0.0268525964	-0.0688180918	 0.2746813148	-0.238913
C	-1.0691471849	-0.6332768992	-0.0566764702	 0.420687
C	-2.3419560705	 0.0991714215	-0.4325611442	-0.293373
C	-3.5242359419	-0.8475100069	-0.7913499509	-0.228048
C	-3.1472271255	-2.3310091154	-0.6884551389	-0.003132
C	-2.4074408512	-2.6087745928	 0.6488969918	-0.231338
C	-1.1111869523	-2.130033562	-0.078974779	-0.091448
C	-1.7941678929	-2.5954070237	-1.4042021756	-0.231367
H	 0.7895234833	 1.6158509129	 0.5137083138	 0.304022
H	-2.6047871627	 0.7656296601	 0.3956377416	 0.132377
H	-2.109567869	 0.775306138	-1.2620320826	 0.132373
H	-4.3732079993	-0.647111238	-0.1283623893	 0.100305
H	-3.8719937885	-0.6362096876	-1.8086389607	 0.100293
H	-3.9966166706	-2.9685097836	-0.9463143574	 0.061051
H	-2.7260002762	-2.066365827	 1.5439615054	 0.096001
H	-2.3571363566	-3.677498392	 0.8726709857	 0.100699
H	-0.1488644251	-2.555210926	 0.2057225783	 0.075608
H	-1.6255714789	-3.661555327	-1.5764713704	 0.100706
H	-1.5715702304	-2.0412225959	-2.3208025536	 0.096002
35.0352	135.3347	237.2347	319.3227	376.4793	380.0364	405.565	438.9549	547.4948	552.4432	625.5551	754.0703	800.2989	824.9977	827.9741	901.5872	902.9586	934.1082	936.2934	965.7412	1000.757	1050.9151	1061.9675	1088.851	1089.5848	1122.635	1140.973	1209.2454	1247.8662	1253.4656	1257.0645	1273.2313	1293.5025	1308.9803	1326.5409	1349.9158	1377.8827	1412.4831	1464.615	1482.8355	1497.7851	1516.4622	1732.7843	3032.1056	3049.8427	3051.9561	3053.3761	3060.4201	3073.8625	3083.2734	3107.1419	3107.2859	3115.7468	3823.8726
ON=C1CCC2CC1C2	ON=C1CC[C@@H]2C[C@H]1C2	
InChI=1S/C7H11NO/c9-8-7-2-1-5-3-6(7)4-5/h5-6,9H,1-4H2	InChI=1S/C7H11NO/c9-8-7-2-1-5-3-6(7)4-5/h5-6,9H,1-4H2/t5-,6+
