20
gdb 85313	2.0706	1.97098	1.2585	3.932	78.6	-0.2353	0.0223	0.2576	1065.6392	0.173262	-403.178836	-403.170826	-403.169882	-403.211518	31.095	
C	 0.5535877929	 1.4796571743	-0.3202035243	-0.400834
C	-0.0233712642	 0.1016845884	 0.0194554247	-0.02174
C	 0.2481694739	-0.9239890049	-1.1128320291	-0.333682
C	 1.6003113946	-1.5477431524	-0.7222464765	 0.359433
O	 2.4941956817	-1.9129444494	-1.4512935427	-0.364963
N	 1.6164730314	-1.5568300157	 0.6559829002	-0.075626
C	 2.7352457498	-1.1049092422	 1.5096502068	-0.177366
C	 1.8115592418	 0.0120056918	 2.0836781279	-0.262375
C	 0.6520532549	-0.6028914443	 1.2354429593	 0.027556
H	 1.6221313139	 1.4272767575	-0.5579257753	 0.127877
H	 0.0459804973	 1.8948073419	-1.1964228533	 0.12175
H	 0.4252679663	 2.18597738	 0.5059521475	 0.118304
H	-1.0961035679	 0.2100407949	 0.2025425863	 0.07613
H	-0.519003546	-1.7059176559	-1.140668694	 0.12359
H	 0.3132441904	-0.4811011917	-2.1080060835	 0.125403
H	 3.0497971634	-1.8595290989	 2.2358253035	 0.117852
H	 3.6046497584	-0.7828300878	 0.9297918725	 0.129924
H	 1.6576294732	-0.0104018449	 3.1635475615	 0.110543
H	 2.1059172509	 1.019820057	 1.7888278448	 0.116474
H	-0.1022714968	-1.1001449178	 1.8566306939	 0.08175
73.7398	124.3653	198.623	268.4914	274.9695	360.7989	387.572	473.2214	585.2308	649.3581	662.047	698.2599	737.7736	793.8452	870.5423	896.0801	923.4466	936.6393	984.9265	1019.8151	1047.5292	1063.7365	1084.8363	1115.8724	1144.6844	1178.4661	1212.0242	1221.6015	1240.441	1258.2611	1277.9222	1304.2557	1312.2319	1332.3533	1367.9531	1382.2586	1413.9566	1468.7911	1483.7776	1499.7795	1502.6584	1517.9198	1820.3233	3021.6471	3030.9788	3048.9192	3054.7967	3064.1616	3086.8339	3100.3274	3102.0972	3105.3344	3123.9969	3142.8709
CC1CC(=O)N2CCC12	C[C@H]1CC(=O)N2CC[C@@H]12	
InChI=1S/C7H11NO/c1-5-4-7(9)8-3-2-6(5)8/h5-6H,2-4H2,1H3	InChI=1S/C7H11NO/c1-5-4-7(9)8-3-2-6(5)8/h5-6H,2-4H2,1H3/t5-,6-/m0/s1
