16
gdb 61145	3.20713	1.01395	0.89067	2.8846	79.05	-0.2466	-0.0452	0.2014	1307.5668	0.122409	-396.897834	-396.887989	-396.887044	-396.933802	34.082	
C	-0.268437642	 1.3485507821	 0.0632850749	-0.357762
N	 0.0274307183	-0.0708075221	-0.0239845122	-0.087248
C	-0.0658679746	-0.8386986162	 1.2161812703	-0.327919
C	-1.4349695171	-0.9486918544	 1.7225285831	 0.323906
C	-2.5596758775	-1.0149466248	 2.139573882	-0.45916
C	 0.113941166	-0.7594257831	-1.2037365768	 0.32681
N	 0.1768217728	-2.0395377601	-1.2615237224	-0.532779
C	 0.1685015747	 0.0529121017	-2.4112125671	 0.224713
N	 0.2187404583	 0.6216188321	-3.4171828554	-0.33651
H	-0.137024715	 1.8236211473	-0.9087595369	 0.170287
H	-1.2976836961	 1.5163641199	 0.4032653826	 0.146412
H	 0.4133022022	 1.8256626067	 0.7764006874	 0.134882
H	 0.3429998915	-1.8320569882	 1.0181683808	 0.186355
H	 0.5673270956	-0.3506516663	 1.9680003498	 0.137405
H	-3.5534895916	-1.0925303545	 2.50642914	 0.207169
H	 0.2917026644	-2.3605189701	-2.21835009	 0.243436
32.2892	60.5972	97.5996	146.866	178.0808	246.6619	305.555	337.9421	350.1803	387.0997	468.4701	548.4211	622.8078	649.8784	674.9133	716.49	746.4166	789.6918	920.9525	955.1152	1011.8417	1088.9926	1158.0112	1213.6448	1231.2973	1333.1175	1385.2237	1444.0956	1457.9701	1475.2658	1481.1056	1526.9865	1667.4347	2238.7853	2344.2019	3022.3532	3027.8654	3076.06	3110.0232	3152.4804	3503.6028	3544.735
CN(CC#C)C(=N)C#N	CN(CC#C)C(=N)C#N	
InChI=1S/C6H7N3/c1-3-4-9(2)6(8)5-7/h1,8H,4H2,2H3	InChI=1S/C6H7N3/c1-3-4-9(2)6(8)5-7/h1,8H,4H2,2H3
