16
gdb 92948	2.3022	1.53812	1.30519	4.0081	70.27	-0.2736	-0.0184	0.2552	1033.7593	0.123931	-437.898803	-437.890273	-437.889329	-437.932301	31.644	
O	-0.0574807949	 1.3686232168	-0.0253072482	-0.428264
C	 0.0167325772	-0.0401479376	 0.1146410486	 0.028379
C	 0.5241534553	-0.3581770985	 1.5345401534	-0.266317
C	-0.7025013801	-0.8165041539	 2.2793361835	-0.062717
C	-1.7576419179	-0.9914199249	 1.489353757	-0.129582
C	-1.4552108581	-0.6555045163	 0.0415553717	 0.201602
O	-2.3738910593	 0.2531446213	-0.5348604451	-0.458972
C	-1.4664891675	-1.8661034862	-0.79589255	 0.271366
N	-1.4233325712	-2.834223824	-1.425383928	-0.336285
H	-0.2065805596	 1.5627396324	-0.9574976046	 0.298048
H	 0.6539200257	-0.4705705187	-0.6635221372	 0.099634
H	 1.2927433866	-1.1398947038	 1.5154987558	 0.128758
H	 0.9851741289	 0.5322742073	 1.9737916353	 0.132401
H	-0.6942402339	-0.9957686156	 3.3487050613	 0.113399
H	-2.7441090122	-1.3286757726	 1.7815498761	 0.121663
H	-2.188255359	 1.0981282243	-0.1010930194	 0.286888
53.1842	137.1957	151.2091	171.8608	277.5511	328.1192	402.4927	467.0693	488.6677	532.779	562.8215	588.3896	638.4652	755.5355	765.087	816.8333	896.0716	957.7578	968.9705	987.4791	1021.3503	1089.0629	1105.183	1123.6591	1152.3882	1200.3891	1253.9176	1301.686	1323.2352	1365.891	1403.9581	1429.2359	1474.1446	1688.1375	2357.1488	3039.4081	3062.4301	3083.3332	3194.8568	3225.253	3748.3458	3809.0562
OC1CC=CC1(O)C#N	O[C@H]1CC=C[C@]1(O)C#N	
InChI=1S/C6H7NO2/c7-4-6(9)3-1-2-5(6)8/h1,3,5,8-9H,2H2	InChI=1S/C6H7NO2/c7-4-6(9)3-1-2-5(6)8/h1,3,5,8-9H,2H2/t5-,6-/m0/s1
