16
gdb 51959	5.39824	0.83063	0.76131	4.516	67.97	-0.2566	-0.0268	0.2298	1450.9805	0.12213	-475.029798	-475.020784	-475.019839	-475.065092	30.75	
O	 0.9837943904	 0.2553025722	 0.6485493983	-0.234239
C	 0.9696335323	 1.0508391781	-0.2502137998	 0.15368
C	 0.6107486517	 2.5172976401	-0.0438777958	-0.149656
O	 0.8242081611	 3.3031761201	-1.2163179309	-0.249139
C	 2.1296546236	 3.4491549534	-1.5547781226	 0.480191
O	 3.0443976329	 2.9513813	-0.943408646	-0.38567
N	 2.2412790988	 4.174990937	-2.7256605573	-0.125714
C	 1.7868594465	 5.5471961715	-2.874267428	-0.223737
C	 3.2465460589	 5.2027555639	-2.8885579888	-0.216683
H	 1.1803987389	 0.7703881936	-1.3053168504	 0.098399
H	-0.4596182222	 2.5959026044	 0.1673339773	 0.145589
H	 1.1765924803	 2.9059053838	 0.807048637	 0.154587
H	 1.2678571199	 5.7711503593	-3.801209883	 0.135248
H	 1.3932229415	 6.0443179092	-1.9922455885	 0.137832
H	 3.839825107	 5.4579466026	-2.0151222037	 0.144207
H	 3.7892983583	 5.1804900408	-3.8284109578	 0.135103
41.2368	70.7225	88.6546	153.4158	195.8751	210.6618	302.6287	370.103	435.2482	586.9078	610.5526	713.5001	785.4435	817.7683	844.0137	950.5704	979.3086	1036.2617	1048.2644	1084.7677	1111.775	1134.4573	1139.6203	1172.0611	1177.8728	1221.9128	1280.3212	1349.561	1403.2293	1413.5096	1453.7089	1497.8891	1525.5302	1805.0623	1846.3693	2900.3109	3065.6812	3118.3825	3122.0121	3122.8287	3203.6762	3217.1424
O=CCOC(=O)N1CC1	O=CCOC(=O)N1CC1	
InChI=1S/C5H7NO3/c7-3-4-9-5(8)6-1-2-6/h3H,1-2,4H2	InChI=1S/C5H7NO3/c7-3-4-9-5(8)6-1-2-6/h3H,1-2,4H2
