17
gdb 116980	3.84915	0.52939	0.48397	4.3886	76.57	-0.2651	-0.0024	0.2627	2211.5607	0.132364	-458.929884	-458.919431	-458.918487	-458.96833	33.855	
C	-0.4609847229	 1.0089675141	-0.6318173354	-0.22155
O	-0.30302363	-0.3885454797	-0.5270818456	-0.228835
C	 1.0348773505	-0.7875354372	-0.7395397663	-0.200222
C	 1.1488700753	-2.2357111301	-0.6353151587	-0.016314
C	 1.2671124093	-3.4303061563	-0.5542850356	 0.183337
C	 1.3889944409	-4.8773382254	-0.4665394886	-0.253762
O	 1.4477910352	-5.5144870597	-1.7574004498	-0.167755
C	 0.2680399488	-5.7198702112	-2.3806336359	 0.182039
O	 0.1952161843	-6.2086082716	-3.4663298859	-0.26731
H	 0.1450579807	 1.5461519678	 0.1148445296	 0.107691
H	-0.1820226542	 1.3780746147	-1.6313260521	 0.109495
H	-1.5161426732	 1.2269940699	-0.455143949	 0.135382
H	 1.3851161542	-0.4648219023	-1.7357317398	 0.124846
H	 1.7053591345	-0.3103782878	-0.0031391533	 0.120662
H	 2.3193245938	-5.1639684664	 0.030475394	 0.159464
H	 0.559673882	-5.2954523385	 0.1189430499	 0.146317
H	-0.602614199	-5.3999348002	-1.7761936174	 0.086517
25.0868	38.3789	74.5653	98.5043	114.4483	175.1979	231.6744	275.5991	312.9233	353.4278	372.4402	468.4321	544.6628	683.1143	815.0105	978.2539	985.5569	1024.2184	1027.2489	1044.2035	1136.2039	1148.6155	1178.3726	1183.1433	1220.9889	1255.32	1297.1902	1388.8261	1410.7371	1432.4929	1477.3677	1481.375	1485.3309	1492.74	1515.0923	1872.2735	2373.1079	2947.1521	2954.8736	2965.6722	2972.743	3017.5121	3027.6931	3097.6552	3125.6075
COCC#CCOC=O	COCC#CCOC=O	
InChI=1S/C6H8O3/c1-8-4-2-3-5-9-6-7/h6H,4-5H2,1H3	InChI=1S/C6H8O3/c1-8-4-2-3-5-9-6-7/h6H,4-5H2,1H3
