18
gdb 37830	3.0128	1.91304	1.72744	1.4677	75.15	-0.234	0.061	0.2949	874.2425	0.14944	-401.826795	-401.820204	-401.81926	-401.857498	27.403	
C	-0.0826555553	 1.5943910447	 0.0977513599	-0.30949
C	 1.403655209	 1.2524956102	-0.0012616928	-0.063581
N	 1.2440674742	-0.0078956821	 0.8976975315	-0.20483
C	 1.9670823965	-0.8597650593	-0.1471939197	-0.248221
C	 1.1446983906	 0.0782585127	-1.0236979027	 0.340827
O	 0.6758739048	-0.0755582561	-2.3238770525	-0.318102
C	-0.6707949426	-0.6235681348	-2.2099774049	-0.083811
C	-0.9877204532	-0.9018924241	-0.6883254859	-0.398077
C	-0.0193439152	 0.0700739996	-0.0616754598	 0.305734
H	-0.4338776464	 1.9718304605	 1.0613809579	 0.107435
H	-0.5075924579	 2.1563177321	-0.7374922479	 0.109247
H	 2.2893123202	 1.8786668505	 0.11682861	 0.085918
H	 3.053758881	-0.7377201476	-0.1232045746	 0.10302
H	 1.695344557	-1.9194901241	-0.1099082664	 0.101229
H	-1.3721466002	 0.1072079188	-2.6280018044	 0.113876
H	-0.724312931	-1.5356599542	-2.8117829246	 0.115819
H	-2.0415198482	-0.7306288078	-0.4581070042	 0.116951
H	-0.7424467832	-1.9363418692	-0.4320300189	 0.126054
118.1039	255.8272	303.1134	383.8831	436.6489	490.4847	543.5731	683.3874	727.7331	742.0461	802.0424	831.7811	869.1828	870.1418	899.9291	928.4872	934.6602	952.6088	978.5226	1013.1641	1071.5847	1092.6363	1099.6837	1132.5814	1145.0007	1158.2327	1190.0544	1207.405	1218.566	1228.8065	1250.3155	1277.9365	1297.2146	1313.9533	1381.9912	1476.0157	1492.6292	1517.3662	1519.1573	3038.4678	3045.8134	3061.2665	3066.1393	3086.4495	3107.1337	3108.9205	3120.0073	3126.0656
C1C2N3CC22OCCC132	C1[C@H]2N3C[C@@]42OCC[C@@]134	
InChI=1S/C7H9NO/c1-2-9-7-4-8-5(7)3-6(1,7)8/h5H,1-4H2	InChI=1S/C7H9NO/c1-2-9-7-4-8-5(7)3-6(1,7)8/h5H,1-4H2/t5-,6+,7+/m1/s1
