20
gdb 71769	3.14473	1.81102	1.59054	1.6643	80.35	-0.2191	0.0911	0.3101	936.3781	0.174432	-366.007957	-366.001169	-366.000225	-366.038572	28.927	
C	-0.0446198802	 1.4991535628	-0.0006980762	-0.492809
C	 0.0030351875	-0.0090861336	-0.0242070061	 0.324462
C	 0.9841518002	-0.7089062772	-0.9603531862	-0.227248
N	 0.4976715928	-2.0791351909	-1.1862297191	-0.120515
C	 0.1934851125	-2.8324213594	 0.0440446993	-0.041222
C	 0.3969279204	-2.1360885673	 1.3804581312	-0.252314
C	-0.31794195	-0.8016875636	 1.2215036224	-0.110533
C	-1.2458602986	-0.8735891149	 0.0162085551	-0.113666
C	-0.9027288413	-2.1539773584	-0.7137476591	-0.056587
H	 0.9040564645	 1.9227924895	 0.3497747907	 0.118472
H	-0.2409492195	 1.9064695439	-0.9993791196	 0.117945
H	-0.8320192555	 1.8604710769	 0.6684555446	 0.116145
H	 1.0224974785	-0.194285602	-1.9282278099	 0.100836
H	 2.0067978105	-0.7390014758	-0.5647911907	 0.102016
H	 0.3878347686	-3.899496289	-0.0259121597	 0.085166
H	-0.0599516449	-2.7314202302	 2.1797947522	 0.103464
H	 1.4590657824	-2.0203081793	 1.6316186309	 0.103697
H	-0.6100253671	-0.2494737719	 2.1091771074	 0.077609
H	-2.2472375506	-0.4632007409	 0.010050696	 0.080044
H	-1.6270745404	-2.6617674691	-1.3403308934	 0.085037
203.9159	229.6739	282.4323	304.643	438.1128	441.7241	558.7797	657.0054	709.0089	714.666	743.6726	766.696	825.0869	850.4696	874.4041	923.86	943.5747	949.4022	984.1695	997.2657	1023.6216	1037.3384	1047.5611	1071.6301	1083.9394	1105.2038	1129.4255	1191.9638	1206.613	1229.4785	1258.3542	1275.9255	1286.3171	1305.4038	1315.141	1341.6939	1386.9316	1417.3302	1438.8404	1483.8876	1490.2374	1499.0099	1508.0496	3020.1023	3023.4059	3027.0144	3058.8465	3060.2586	3079.9949	3097.0046	3138.0925	3155.8513	3173.8939	3199.8282
CC12CN3C4CC1C2C34	C[C@@]12CN3[C@H]4C[C@@H]1[C@@H]2[C@@H]34	
InChI=1S/C8H11N/c1-8-3-9-5-2-4(8)6(8)7(5)9/h4-7H,2-3H2,1H3	InChI=1S/C8H11N/c1-8-3-9-5-2-4(8)6(8)7(5)9/h4-7H,2-3H2,1H3/t4-,5+,6-,7+,8-,9?/m1/s1
