19
gdb 78272	2.28402	1.65356	1.23032	0.9059	76.01	-0.2052	0.067	0.2722	1081.3723	0.157141	-422.926291	-422.91729	-422.916346	-422.95961	34.691	
C	-0.1618881514	 1.5836121998	-0.0348109112	-0.455906
C	 0.1131557993	 0.0938298495	 0.0192579385	-0.065486
C	 1.2933564672	-0.7878488899	-0.3878893424	-0.156758
C	 2.7316056116	-0.5055633449	 0.133172712	-0.135192
C	 2.9942574211	 0.6416723666	 1.0576681526	 0.089065
O	 2.5890061914	 1.9764853979	 0.956702736	-0.407515
C	 2.1883956728	-0.490642325	 1.5899792376	-0.177135
C	 0.7614852634	-0.8090514318	 1.0271951453	 0.34628
O	 0.0849032782	-1.8636654003	 1.6253132253	-0.45013
H	-0.222459826	 1.9166373579	-1.0779494122	 0.106585
H	-1.1372582679	 1.7849113865	 0.4239912572	 0.103839
H	 0.5913910695	 2.1730449538	 0.4779854958	 0.157463
H	-0.7624793503	-0.4604487007	-0.3280826102	 0.096795
H	 1.1542525255	-1.5450050827	-1.1495703402	 0.096495
H	 3.5563408029	-1.0954229293	-0.2512639135	 0.088987
H	 4.0147345082	 0.5617033786	 1.4457860213	 0.096151
H	 2.996536233	 2.3446711656	 0.1650045529	 0.285902
H	 2.5372562622	-1.0832164105	 2.4277663155	 0.095818
H	-0.4785909506	-1.5000856009	 2.3181599497	 0.284741
81.6145	133.652	193.4203	213.2928	260.0094	287.0345	293.855	359.1703	408.3834	512.1151	556.4534	580.6672	642.8287	671.6009	692.8205	733.291	851.1901	896.0852	923.1989	955.6795	963.4775	991.7085	1018.9126	1066.9357	1084.4004	1096.1375	1128.6314	1145.4565	1190.7836	1233.9117	1251.9585	1294.4588	1297.1396	1320.927	1356.1207	1370.3573	1407.1769	1457.7714	1480.4772	1506.1901	1516.8205	3026.0697	3050.2547	3073.9961	3080.92	3165.2338	3181.0985	3189.3401	3200.3404	3780.0765	3803.2724
CC1C2C3C(O)C3C12O	C[C@H]1[C@H]2[C@H]3[C@@H](O)[C@H]3[C@@]12O	
InChI=1S/C7H10O2/c1-2-4-3-5(6(3)8)7(2,4)9/h2-6,8-9H,1H3	InChI=1S/C7H10O2/c1-2-4-3-5(6(3)8)7(2,4)9/h2-6,8-9H,1H3/t2-,3+,4-,5-,6+,7+/m0/s1
