21
gdb 119583	2.79369	1.06296	0.94552	1.5135	79.6	-0.2479	0.0792	0.3271	1378.5857	0.180378	-424.180955	-424.171299	-424.170355	-424.216004	35.102	
C	-0.1339711015	 1.4631412999	-0.4674849415	-0.220467
O	-0.2563423205	 0.1264809962	-0.8926092533	-0.236749
C	 0.8513448774	-0.6676325778	-0.5240930048	-0.193163
C	 0.5847824998	-2.0745860214	-0.9534880208	 0.413939
O	 1.7070235548	-2.964728128	-1.0013522277	-0.302819
C	 0.9074887716	-2.8096087223	-2.1869206177	-0.039776
C	-0.3126721661	-3.7224053221	-2.0283032093	-0.266771
C	-0.6753594719	-2.9334053927	-0.7125904982	-0.037326
C	-0.760571031	-3.7022984363	 0.5975981817	-0.412817
H	-0.0450945644	 1.5366739629	 0.6280809636	 0.105873
H	 0.743517186	 1.9556891355	-0.9153774892	 0.106235
H	-1.0360391872	 1.9909915918	-0.7856674486	 0.128616
H	 1.7811009541	-0.3117243154	-0.9967600263	 0.100175
H	 1.0063299974	-0.6283383737	 0.5689883249	 0.094116
H	 1.4221220902	-2.4896574242	-3.0860465629	 0.101164
H	-1.0581087057	-3.5979949148	-2.817004257	 0.105993
H	-0.0768607601	-4.7831351847	-1.9088712884	 0.106915
H	-1.56926978	-2.3251417377	-0.8743400908	 0.091162
H	 0.1657909399	-4.2560208392	 0.7760669789	 0.129913
H	-0.9260385168	-3.0279186119	 1.4452840629	 0.112659
H	-1.5886680063	-4.4188118741	 0.5796131945	 0.113128
57.1742	82.6076	125.5036	172.7053	210.8363	224.8123	240.6391	325.8908	359.6655	396.5989	470.8432	583.824	683.606	719.1331	797.9139	854.1916	880.5607	912.9263	950.3491	988.5349	997.2559	1052.7907	1068.3445	1109.4695	1113.9359	1152.8253	1177.5472	1186.4886	1199.2394	1220.3127	1227.8549	1243.8532	1270.9119	1294.4923	1364.9683	1392.8869	1402.9568	1464.7369	1478.3474	1485.4507	1490.3416	1495.6774	1502.2985	1504.3079	1521.6737	2945.9264	2971.3616	2990.1982	3015.2354	3030.5487	3062.8676	3076.324	3092.5587	3113.3212	3116.5987	3122.4668	3181.9485
COCC12OC1CC2C	COC[C@]12O[C@H]1C[C@H]2C	
InChI=1S/C7H12O2/c1-5-3-6-7(5,9-6)4-8-2/h5-6H,3-4H2,1-2H3	InChI=1S/C7H12O2/c1-5-3-6-7(5,9-6)4-8-2/h5-6H,3-4H2,1-2H3/t5-,6+,7-/m1/s1
