17
gdb 41449	2.78926	2.27885	1.72266	1.9587	71.45	-0.222	0.0545	0.2765	833.9573	0.137352	-421.690341	-421.684186	-421.683242	-421.720396	26.354	
C	 0.0875994884	 1.52693474	 0.2263427502	-0.181009
O	 1.4768787434	 1.5284668765	-0.2969077068	-0.343722
C	 1.1612195414	 0.2704083693	-0.9077011377	 0.357257
C	 0.3071818444	 0.1261429693	-2.1832820565	-0.298939
C	-0.1772514091	-0.9800251202	-1.2265949311	-0.151997
C	 1.3620623207	-1.2841592437	-0.8200478768	-0.137372
C	 1.3409012877	-1.6507810783	 0.6503178742	-0.10826
O	 0.3738907479	-0.7139159781	 1.1506017511	-0.300347
C	-0.0267705102	-0.0042882777	-0.0097373278	 0.310065
H	 0.0596622116	 1.8105120138	 1.2789034638	 0.136861
H	-0.556311292	 2.1725454392	-0.3750407976	 0.121195
H	-0.4028773649	 0.9273106529	-2.3972968189	 0.103597
H	 0.8229147916	-0.1989427264	-3.0885196988	 0.102419
H	-0.9228204717	-1.7533534483	-1.4205391152	 0.08634
H	 2.0065599364	-1.8355488251	-1.5067406329	 0.083254
H	 1.0079570693	-2.6805606849	 0.8296984176	 0.105378
H	 2.304610485	-1.4972539183	 1.1501711433	 0.115281
242.189	297.0375	360.9659	380.9232	450.608	518.114	568.2057	680.5306	702.077	802.3352	817.295	856.1747	875.4381	911.011	922.4534	955.8867	973.2287	976.948	1008.3876	1030.6303	1038.5913	1089.9008	1100.8878	1127.6133	1153.258	1169.2775	1176.6268	1198.6612	1212.6954	1234.1828	1245.3436	1292.1188	1314.9905	1367.7992	1485.6092	1518.1883	1523.3302	3022.6909	3062.1924	3067.8449	3073.8855	3095.312	3112.1243	3132.4444	3144.7415
C1OC23CC4C2COC134	C1O[C@@]23C[C@H]4[C@@H]2CO[C@@]134	
InChI=1S/C7H8O2/c1-4-5-2-8-7(4)3-9-6(1,5)7/h4-5H,1-3H2	InChI=1S/C7H8O2/c1-4-5-2-8-7(4)3-9-6(1,5)7/h4-5H,1-3H2/t4-,5-,6-,7+/m0/s1
