15
gdb 125265	6.90768	0.82545	0.7511	6.2307	70.59	-0.248	-0.0026	0.2454	1445.2689	0.112588	-453.992312	-453.983783	-453.982839	-454.026668	29.573	
C	-0.1348359934	 1.4720844366	 0.0714383336	-0.502229
C	 0.0441862777	-0.0041386294	-0.0652726079	 0.407187
C	 0.0118601918	-0.8325651164	-1.1712312843	-0.426276
C	 0.264751645	-2.115575493	-0.6478226144	 0.454522
O	 0.3533008438	-3.2570400123	-1.3933033089	-0.221379
C	-0.1130549824	-4.4216764214	-0.8482994036	 0.164379
O	 0.0246784773	-5.4647697271	-1.4056215758	-0.262543
N	 0.4480971792	-2.1173375058	 0.6625841536	-0.30603
N	 0.2957967732	-0.8135836654	 0.9953957804	-0.258045
H	 0.786261788	 1.9625485062	 0.4061569969	 0.144748
H	-0.4129191207	 1.9057838509	-0.890756006	 0.150335
H	-0.9228420763	 1.7186649856	 0.7914509839	 0.141064
H	-0.1692767423	-0.5593086094	-2.1968429931	 0.120908
H	-0.611736623	-4.2590118771	 0.1190020764	 0.117041
H	 0.403614762	-0.548211682	 1.9596062392	 0.276318
51.4542	62.8966	124.1679	163.1684	231.1739	299.4948	398.912	432.9416	476.1538	524.6446	666.7337	677.3434	722.823	798.3637	851.3247	990.4876	1021.0462	1041.1575	1045.9166	1062.395	1103.5736	1179.2696	1210.2776	1303.7929	1408.4983	1413.9234	1436.4037	1475.7357	1483.1225	1505.0984	1520.3993	1613.2971	1874.0283	3034.8571	3037.942	3087.2146	3136.015	3280.6235	3673.6011
CC1=CC(OC=O)=NN1	Cc1cc(OC=O)n[nH]1	
InChI=1S/C5H6N2O2/c1-4-2-5(7-6-4)9-3-8/h2-3H,1H3,(H,6,7)	InChI=1S/C5H6N2O2/c1-4-2-5(7-6-4)9-3-8/h2-3H,1H3,(H,6,7)
