19
gdb 127055	5.62812	0.73078	0.65474	2.1152	78.42	-0.2311	0.0291	0.2602	1698.1915	0.160141	-419.219646	-419.210467	-419.209523	-419.255793	32.202	
C	 0.0489074297	 1.3301018517	 0.7121936462	-0.387326
C	-0.0480291504	 0.0372551555	-0.0794954851	-0.020941
O	-1.3198784926	-0.5349141767	 0.1465521899	-0.245744
C	-1.5162624281	-1.7479741502	-0.5467496178	-0.185059
C	-2.885354368	-2.2658460658	-0.2400302957	 0.189762
C	-3.8289669572	-1.6828227475	 0.5795301408	-0.106731
N	-4.9109973171	-2.4999028131	 0.5580445439	-0.18417
N	-4.7440715006	-3.5834901704	-0.2213406389	-0.22674
C	-3.5137379456	-3.4436181133	-0.7075668956	-0.091595
H	 1.0251060882	 1.7993195139	 0.5581702577	 0.116043
H	-0.7276424653	 2.032546215	 0.3962649985	 0.126403
H	-0.0781693128	 1.1358729628	 1.7810219153	 0.126406
H	 0.0952974331	 0.2303065068	-1.156401135	 0.086856
H	 0.7446109115	-0.6661099512	 0.2279719921	 0.086856
H	-1.3936815288	-1.5908088656	-1.6333754825	 0.09743
H	-0.7466108751	-2.4842439563	-0.2534534409	 0.097429
H	-3.7986486625	-0.7726470487	 1.1542754359	 0.14415
H	-5.7827466248	-2.3797392727	 1.0444586454	 0.272534
H	-3.1180340137	-4.1932357642	-1.3780960742	 0.104436
16.8094	71.9035	100.7329	110.2256	242.1696	269.1129	269.8895	346.4391	489.369	511.0728	639.9436	694.969	740.0185	801.1165	821.5533	879.0776	908.7682	955.127	1012.1592	1042.4107	1051.7571	1065.3838	1143.3983	1164.6231	1167.8063	1189.5232	1235.0956	1253.222	1296.1216	1317.6054	1347.8997	1395.3457	1409.809	1421.0926	1457.8388	1483.8995	1497.754	1499.778	1512.7733	1537.1115	1621.5515	2935.1865	2949.9465	2955.2121	2977.0328	3044.5225	3119.3784	3120.5712	3236.9264	3283.5909	3678.9896
CCOCC1=CNN=C1	CCOCc1c[nH]nc1	
InChI=1S/C6H10N2O/c1-2-9-5-6-3-7-8-4-6/h3-4H,2,5H2,1H3,(H,7,8)	InChI=1S/C6H10N2O/c1-2-9-5-6-3-7-8-4-6/h3-4H,2,5H2,1H3,(H,7,8)
