18
gdb 86740	2.9133	1.35616	1.1655	5.2496	73.33	-0.2394	-0.001	0.2384	1102.0424	0.149067	-439.133223	-439.124761	-439.123816	-439.166448	32.34	
N	 0.3450915002	 0.9975775786	-0.0457889439	-0.520744
C	-0.0856232477	-0.2005561223	 0.4252989602	 0.42804
O	 0.5894950101	-0.8719868368	 1.1918785624	-0.373055
C	-1.481012354	-0.6389191246	-0.0391807905	-0.163893
C	-1.5310965466	-2.159326934	-0.3377594979	-0.260022
C	-1.9784091776	-2.820536403	 0.9917464339	 0.10221
O	-0.90275899	-3.273679841	 1.7926524472	-0.443478
C	-2.7372026427	-1.6906764334	 1.6650663952	-0.078488
C	-2.4565881806	-0.5084705802	 1.1206757489	-0.074063
H	 1.2508418733	 1.331825555	 0.2416468836	 0.266086
H	-0.1834756924	 1.5353000794	-0.708950278	 0.264283
H	-1.7856646964	-0.039866009	-0.9048921383	 0.067805
H	-2.2842452288	-2.3352199984	-1.1116438334	 0.10055
H	-0.5794449439	-2.5698395095	-0.6804297471	 0.115557
H	-2.6021487581	-3.7024006417	 0.8125992399	 0.077103
H	-0.2707409378	-2.534901084	 1.8330458929	 0.29342
H	-3.3572710409	-1.8508055338	 2.539619662	 0.100633
H	-2.8067063461	 0.4564518287	 1.4708120929	 0.098055
56.7846	153.1208	176.5378	221.1949	246.4648	322.8564	379.3702	420.1687	501.112	591.3901	627.2179	633.6592	736.2284	751.0685	775.1797	805.5745	817.8596	878.0587	945.3368	971.0241	977.0772	1003.2638	1052.441	1074.4589	1106.9356	1131.829	1202.151	1222.3077	1265.6845	1303.7974	1308.2573	1331.5335	1367.2627	1398.8537	1471.3105	1488.9774	1618.5225	1673.8965	1767.4541	3034.1918	3052.3919	3067.474	3123.4061	3183.3913	3211.8664	3602.9613	3639.1609	3741.7484
NC(=O)C1CC(O)C=C1	NC(=O)[C@H]1C[C@@H](O)C=C1	
InChI=1S/C6H9NO2/c7-6(9)4-1-2-5(8)3-4/h1-2,4-5,8H,3H2,(H2,7,9)	InChI=1S/C6H9NO2/c7-6(9)4-1-2-5(8)3-4/h1-2,4-5,8H,3H2,(H2,7,9)/t4-,5+/m1/s1
