14
gdb 53919	1.85652	1.59288	1.25091	5.3052	68.95	-0.2724	-0.0505	0.2219	1079.0014	0.095671	-436.660089	-436.650182	-436.649238	-436.695175	34.564	
C	 0.7085022262	 1.1905022145	 0.2094388229	-0.48036
C	-0.3527838994	 0.1482116935	-0.0304925837	 0.385184
O	-1.258283824	-0.1021280554	 0.7135461119	-0.265055
C	-0.1908135571	-0.6736539557	-1.3718686563	-0.072323
O	 0.3154003903	 0.2219572572	-2.3463385693	-0.423058
C	 0.7364940214	-1.7763796458	-1.0998058901	 0.332492
C	 1.5295638967	-2.6496197897	-0.8732629357	-0.458818
C	-1.5070608007	-1.2090176611	-1.7854445105	 0.304746
N	-2.5171998212	-1.6137881718	-2.1707261976	-0.328739
H	 1.7053348384	 0.7649536048	 0.0626298179	 0.15543
H	 0.5985941734	 1.9981702255	-0.5201075663	 0.171325
H	 0.6008945643	 1.5805940035	 1.2216341143	 0.150394
H	 0.5747677899	-0.2891478515	-3.1224131447	 0.304855
H	 2.2189347819	-3.434142838	-0.6746976926	 0.223928
45.625	117.6216	131.8561	151.5788	159.2256	231.8609	274.1092	303.5643	363.3479	413.3792	454.7025	517.1792	569.1158	591.6442	612.301	662.4417	675.004	689.4939	910.1977	969.3816	1018.9173	1102.0006	1117.7425	1178.7623	1344.9109	1382.4203	1456.5713	1465.2354	1849.0054	2234.1705	2365.6593	3055.2047	3122.8098	3164.1134	3494.5806	3798.8727
CC(=O)C(O)(C#C)C#N	CC(=O)[C@@](O)(C#C)C#N	
InChI=1S/C6H5NO2/c1-3-6(9,4-7)5(2)8/h1,9H,2H3	InChI=1S/C6H5NO2/c1-3-6(9,4-7)5(2)8/h1,9H,2H3/t6-/m1/s1
