21
gdb 114005	4.43689	0.59643	0.56853	3.0761	81.32	-0.2507	-0.0218	0.229	1979.7721	0.179538	-424.22222	-424.211788	-424.210844	-424.259683	36.045	
C	 0.6759910414	 1.3680432105	 0.2872943473	-0.374962
C	-0.2497342315	 0.2326535552	-0.1684042262	-0.216221
C	 0.2828167381	-0.4601217188	-1.3995275167	 0.077758
O	 1.4075673699	-1.3373938951	-1.2318947345	-0.267662
C	 0.1741183786	-1.8985025983	-1.6974358337	 0.056822
C	-0.4824278824	-2.9307597943	-0.810803111	-0.244294
C	 0.323488763	-4.2451871963	-0.800526456	-0.262434
C	-0.2451973779	-5.2462561573	 0.1767966591	 0.154954
O	-0.5993497592	-6.3626629859	-0.1009074059	-0.235428
H	 1.6703442879	 0.9793804982	 0.5259597759	 0.135201
H	 0.7910671581	 2.1246463738	-0.4963950106	 0.117491
H	 0.2800993883	 1.8655367193	 1.1772556164	 0.115659
H	-0.3748271555	-0.4873660345	 0.6453831856	 0.104913
H	-1.2462833526	 0.6309105589	-0.3997355471	 0.103738
H	 0.3854600737	 0.2015448591	-2.26425865	 0.087197
H	 0.2011430131	-2.1816559124	-2.7530617194	 0.090476
H	-0.5720997158	-2.5509688604	 0.2113003773	 0.110188
H	-1.4989107038	-3.1207510784	-1.1773829049	 0.116398
H	 0.3625144414	-4.7043647176	-1.7924922561	 0.121307
H	 1.3499578562	-4.0106974645	-0.4859345444	 0.138985
H	-0.3254351209	-4.8651799713	 1.2232156249	 0.069913
38.4806	56.6953	73.2076	80.9898	134.5579	187.2827	228.5144	276.7116	307.2452	440.6992	485.7447	494.7506	574.6561	739.1709	771.2506	809.9262	824.2557	861.3946	946.7784	974.2739	1004.5878	1037.1915	1054.5003	1076.0122	1119.7742	1130.6942	1172.6758	1186.6481	1212.6271	1261.6082	1290.0997	1302.6517	1314.4691	1340.3811	1364.9476	1408.1413	1419.2138	1430.1843	1460.8855	1471.2684	1483.1941	1496.1988	1499.1765	1509.9009	1837.2707	2845.1918	3022.9454	3029.2492	3037.4306	3037.8754	3061.6605	3074.9256	3081.5331	3091.173	3106.3275	3110.6045	3118.2011
CCC1OC1CCC=O	CC[C@H]1O[C@H]1CCC=O	
InChI=1S/C7H12O2/c1-2-6-7(9-6)4-3-5-8/h5-7H,2-4H2,1H3	InChI=1S/C7H12O2/c1-2-6-7(9-6)4-3-5-8/h5-7H,2-4H2,1H3/t6-,7+/m1/s1
