13
gdb 133187	3.12876	1.4484	0.99614	3.1107	64.14	-0.2576	-0.088	0.1696	1074.5113	0.088928	-494.066428	-494.058881	-494.057937	-494.098875	27.505	
C	-0.0337447624	 1.5061649941	 0.0137726606	-0.484036
C	-0.0054694666	 0.0084787153	-0.0276158579	 0.223568
N	-0.0297884755	-0.6185264909	-1.1622235579	-0.351194
C	-0.0025340159	-2.0190900173	-1.1817016506	 0.460724
O	-0.0216377245	-2.6919254534	-2.184230927	-0.365296
N	 0.0505985894	-2.6278049679	 0.0826795149	-0.27433
N	 0.0768005338	-2.0128787229	 1.2701514237	-0.209836
C	 0.0493521366	-0.7323690221	 1.2110816775	 0.293158
F	 0.0734791609	-0.0583805585	 2.354253346	-0.052546
H	 0.8543608693	 1.8911447564	 0.5265145075	 0.155393
H	-0.0745248334	 1.8992959941	-1.0015009816	 0.160602
H	-0.9011882195	 1.8564163989	 0.5836005163	 0.155383
H	 0.0717262378	-3.6379841659	 0.1129443788	 0.28841
85.5186	125.0374	203.7689	276.1769	370.1507	387.1967	408.6893	502.1752	531.6258	604.4289	623.5913	715.5515	717.5594	799.6139	805.6169	921.2979	1041.2609	1052.0407	1142.2554	1201.7088	1305.7241	1399.4391	1416.3107	1452.5286	1463.8083	1473.0141	1586.8715	1683.2618	1824.5687	3044.0092	3100.2407	3165.0928	3604.8114
CC1=NC(=O)NN=C1F	Cc1nc(=O)[nH]nc1F	
InChI=1S/C4H4FN3O/c1-2-3(5)7-8-4(9)6-2/h1H3,(H,6,8,9)	InChI=1S/C4H4FN3O/c1-2-3(5)7-8-4(9)6-2/h1H3,(H,6,8,9)
