20
gdb 120687	2.5665	0.77459	0.62769	1.5199	86.47	-0.2357	0.042	0.2777	1823.9403	0.168529	-403.08264	-403.071929	-403.070985	-403.12097	36.297	
C	-0.3686892386	 1.3184110654	 0.0398559753	-0.223399
O	-0.2551157834	-0.0803028447	-0.0537279578	-0.235973
C	 0.7520423511	-0.4860723379	-0.9567928524	-0.060163
C	 0.7735462336	-1.9893521018	-0.9863967688	-0.019423
N	-0.0585769652	-2.6449583492	-1.9975586802	-0.320191
C	 1.419353136	-2.7474619102	-2.1034223748	-0.266818
C	 2.0647426513	-2.1064066072	-3.2176389954	 0.134853
C	 2.6406653616	-1.58827347	-4.1401842391	 0.087756
C	 3.3214144329	-0.961339768	-5.2634706831	-0.500012
H	 0.5670312019	 1.7833745992	 0.3911413226	 0.10012
H	-0.6327102121	 1.7735652258	-0.9279270344	 0.105633
H	-1.1617165847	 1.5356905159	 0.7597064173	 0.125143
H	 0.5590990726	-0.1013035866	-1.9687386493	 0.105497
H	 1.7360032136	-0.1023908495	-0.6337783252	 0.084954
H	 0.8339040291	-2.4467637513	-0.0002265934	 0.093673
H	-0.4335746335	-3.5196567448	-1.639401974	 0.235288
H	 1.8655941797	-3.6981277048	-1.8165296062	 0.104866
H	 3.9868531793	-1.6695580871	-5.7694812379	 0.149045
H	 2.6033855096	-0.5945843019	-6.0052977877	 0.152054
H	 3.9289662151	-0.1088119211	-4.9398001857	 0.147096
17.8112	58.6828	74.8381	87.205	136.8474	168.4655	231.7093	257.9622	316.3013	360.1056	394.355	464.0655	524.7971	590.5152	730.1084	837.5265	876.285	919.5592	990.5614	1006.035	1024.5632	1052.0904	1053.4136	1106.4478	1154.6701	1158.3943	1181.2256	1201.7328	1224.8826	1235.8613	1262.3364	1282.6956	1371.1999	1414.1991	1422.6499	1469.7117	1477.1135	1478.3625	1484.3534	1485.7178	1498.7894	1520.9819	2370.6323	2950.3578	2967.0225	3008.8468	3018.998	3025.8043	3085.5495	3088.1005	3111.5048	3113.1633	3126.7164	3503.9149
COCC1NC1C#CC	COC[C@H]1N[C@H]1C#CC	
InChI=1S/C7H11NO/c1-3-4-6-7(8-6)5-9-2/h6-8H,5H2,1-2H3	InChI=1S/C7H11NO/c1-3-4-6-7(8-6)5-9-2/h6-8H,5H2,1-2H3/t6-,7+/m0/s1
