22
gdb 93923	3.41491	0.97635	0.8811	3.2864	82.64	-0.2403	0.037	0.2773	1418.7545	0.194998	-404.410858	-404.400863	-404.399919	-404.448016	36.282	
C	-0.0714965254	 1.5698104679	 0.0855434428	-0.411214
C	 0.0974958656	 0.0537217666	 0.0258544796	 0.061904
C	 0.8062692874	-0.4741913384	-1.2316065124	-0.205148
C	 1.1373739715	-1.9283592904	-0.8679608377	-0.224527
C	 1.5133957762	-1.8855402777	 0.64949899	-0.08141
C	 0.9458280959	-0.5346255644	 1.1731274682	-0.222082
C	 0.9054870726	-3.081778858	 1.3741680548	 0.400796
N	 1.7658287984	-4.1097768485	 1.6326248205	-0.529872
O	-0.2736084292	-3.133780069	 1.6742779448	-0.373332
H	 0.9007732373	 2.0752071516	 0.0370651846	 0.107133
H	-0.6800866171	 1.9379798066	-0.7474193634	 0.110181
H	-0.5607306096	 1.8801390919	 1.015032884	 0.114102
H	-0.8933916335	-0.4172026533	 0.0716973328	 0.087935
H	 0.1965935341	-0.3923305844	-2.1370491271	 0.093024
H	 1.7281241704	 0.0983089108	-1.4051420954	 0.087781
H	 0.2435552973	-2.5472244972	-0.998440224	 0.119857
H	 1.9317827235	-2.3633182519	-1.4806104942	 0.089915
H	 2.6027331581	-1.9032374417	 0.7590594176	 0.058429
H	 1.7736625246	 0.1456225156	 1.405571054	 0.085102
H	 0.3605500955	-0.6722255994	 2.0844287165	 0.11684
H	 2.7386218374	-4.0742277007	 1.3867477103	 0.256597
H	 1.4021586888	-4.9424595061	 2.0663766637	 0.257988
15.6715	27.4273	105.9777	165.5231	214.8228	234.8674	273.2328	308.6178	360.8386	428.1259	527.6535	588.0299	602.2479	649.0326	746.22	791.1289	820.6139	863.7675	915.3995	929.1151	957.5234	971.5681	1008.9322	1032.6878	1073.1003	1087.5887	1109.5929	1161.3704	1168.6751	1218.0784	1265.7625	1271.9681	1294.9629	1307.3258	1323.2718	1346.2845	1352.6852	1391.7141	1408.4318	1409.7234	1478.2226	1486.8523	1496.6934	1498.4024	1501.9862	1614.8643	1788.0733	3010.0474	3019.3363	3022.5774	3031.8211	3046.8382	3048.6918	3077.7399	3088.0021	3094.8068	3098.6578	3112.6167	3604.1646	3744.1107
CC1CCC(C1)C(N)=O	C[C@H]1CC[C@@H](C1)C(=O)N	
InChI=1S/C7H13NO/c1-5-2-3-6(4-5)7(8)9/h5-6H,2-4H2,1H3,(H2,8,9)	InChI=1S/C7H13NO/c1-5-2-3-6(4-5)7(8)9/h5-6H,2-4H2,1H3,(H2,8,9)/t5-,6-/m0/s1
