17
gdb 68100	3.28384	1.26542	1.06836	2.9339	82.12	-0.2346	0.0072	0.2418	1158.8978	0.134066	-384.63471	-384.626144	-384.6252	-384.667608	32.595	
C	-0.0049246793	 1.4979389674	 0.0067291292	-0.511976
C	-0.0047084322	-0.0019961517	-0.0018182925	 0.167883
C	 0.5934493152	-0.9748902015	-1.0829394618	-0.296426
C	 0.0082686264	-1.9701598934	-0.013139842	 0.099616
C	 0.6142002231	-0.9870654045	 1.0563631344	-0.296421
C	 0.0321664327	-3.3957540892	-0.0214841012	 0.052761
C	 0.031766776	-4.5987068853	-0.0283299638	-0.341574
C	-1.1908151582	-0.9772129017	 0.0041046555	 0.399283
O	-2.3799130261	-0.9796215625	 0.0159906173	-0.318468
H	 1.0145581004	 1.8966399426	-0.0002495183	 0.126817
H	-0.5287252853	 1.8908371782	-0.8704660112	 0.135771
H	-0.5126891664	 1.8807611107	 0.8977012487	 0.135785
H	 0.1369124984	-0.9817427377	-2.074295878	 0.119606
H	 1.6850272855	-0.9757002371	-1.1329130379	 0.112902
H	 1.7065426476	-0.9883089115	 1.0851434111	 0.112918
H	 0.1769821886	-1.005257851	 2.0562477447	 0.119615
H	 0.0275389335	-5.6605251816	-0.0343338442	 0.181909
122.6874	133.6614	160.8787	202.1106	208.5025	305.0631	377.387	503.2987	515.6928	527.836	575.7641	617.3547	645.9388	667.2492	755.0235	772.0224	808.4817	829.5219	934.9039	952.0602	1004.9085	1032.3563	1052.2536	1112.5807	1126.1298	1134.4689	1165.5365	1193.8507	1298.2263	1376.0384	1421.0405	1487.161	1488.6859	1493.2085	1535.4237	1916.9837	2235.9703	3036.5461	3064.2299	3064.6556	3105.0556	3107.4206	3138.9846	3139.539	3501.6355
CC12CC(C1)(C#C)C2=O	C[C@@]12C[C@](C1)(C#C)C2=O	
InChI=1S/C8H8O/c1-3-8-4-7(2,5-8)6(8)9/h1H,4-5H2,2H3	InChI=1S/C8H8O/c1-3-8-4-7(2,5-8)6(8)9/h1H,4-5H2,2H3/t7-,8+
