17
gdb 84081	2.34933	1.63105	1.03603	1.3275	70.72	-0.239	-0.0347	0.2043	1134.78	0.135433	-455.18075	-455.171792	-455.170848	-455.214274	33.373	
C	-0.2566896337	 1.5351223862	-0.0083228569	-0.378839
C	 0.078007883	 0.0458612865	 0.0140121831	-0.066525
N	 0.7872329946	-0.3944624238	-1.1987233285	-0.297337
C	 1.7681764129	-1.1595750565	-0.8742688487	 0.345983
N	 2.6330598498	-1.7370066139	-1.7557858279	-0.568211
C	 1.8950148991	-1.4822339462	 0.6007347978	-0.039704
O	 3.2027823608	-1.500131657	 1.1095993744	-0.446135
C	 1.0274166093	-0.3485089232	 1.1503076861	 0.340698
O	 1.2171666042	 0.1810397461	 2.2148798724	-0.319317
H	 0.6526916884	 2.1300184838	-0.1321666599	 0.122446
H	-0.9267477994	 1.75436526	-0.8427921181	 0.127448
H	-0.7391649231	 1.8318520914	 0.9267048713	 0.127635
H	-0.8573002431	-0.5258118113	 0.1309068119	 0.104548
H	 2.6449783027	-1.3389340627	-2.6836449716	 0.259776
H	 3.5349798034	-1.9866773254	-1.3786589273	 0.271244
H	 1.3853981693	-2.4422187241	 0.8008164153	 0.117157
H	 3.1874510817	-0.9445100897	 1.9032936666	 0.299134
68.3874	156.6434	187.8177	207.475	231.7643	278.8611	338.1598	348.2182	438.021	472.6858	506.5064	567.4738	593.9427	611.2406	688.55	695.8709	865.2827	889.2756	929.8127	994.5838	1050.8076	1093.3121	1137.7036	1157.7547	1188.7531	1223.8544	1271.1623	1332.8764	1340.4585	1369.7784	1401.9441	1451.1349	1484.57	1495.0892	1622.7142	1707.4428	1850.6654	2945.4372	2970.0695	3049.1981	3124.1466	3133.2886	3569.4979	3685.4988	3720.356
CC1N=C(N)C(O)C1=O	C[C@H]1[N][C](N)[C@@H](O)C1=O	
InChI=1S/C5H8N2O2/c1-2-3(8)4(9)5(6)7-2/h2,4,9H,1H3,(H2,6,7)	InChI=1S/C5H8N2O2/c1-2-3(8)4(9)5(6)7-2/h2,4,9H,1H3,(H2,6,7)/t2-,4+/m1/s1
