17
gdb 32290	2.66467	1.50119	0.97154	3.231	79.51	-0.2246	-0.0497	0.1749	1185.9868	0.137509	-418.078329	-418.070199	-418.069255	-418.11156	30.339	
C	-0.0703466204	 1.5553142378	-0.0797740719	-0.380438
C	 0.0233047175	 0.0368742044	 0.039373508	-0.248878
C	 0.7522793431	-0.4538858072	 1.2597501531	 0.19951
N	 1.2505768033	 0.3790666146	 2.1252739191	-0.298482
C	 1.9099659199	-0.0976966989	 3.2289134367	-0.062967
C	 2.0625646396	-1.4259973977	 3.452102051	-0.00408
N	 1.542034393	-2.3078817508	 2.547767861	-0.338876
C	 0.8561674996	-1.9232723517	 1.3969630309	 0.38191
O	 0.4069516341	-2.7444256251	 0.615001882	-0.383491
H	 0.9224324507	 2.011617439	-0.1171658373	 0.124766
H	-0.6122701535	 1.830267331	-0.9891930433	 0.106998
H	-0.5915733323	 1.9885061771	 0.7780606643	 0.124785
H	-0.9742406891	-0.4232843332	 0.0385885822	 0.128909
H	 0.5136649054	-0.4005713123	-0.8409733118	 0.128911
H	 2.3066688091	 0.635388777	 3.9197761512	 0.117585
H	 2.5756274378	-1.8430194914	 4.3095213458	 0.137304
H	 1.6353785421	-3.3060071426	 2.6794246491	 0.266534
52.1595	127.992	190.6103	208.4077	276.2097	334.282	439.9104	527.119	549.1275	554.0406	570.5933	713.8168	735.9455	750.2389	808.1881	830.2852	895.4848	919.0499	992.9125	1042.4427	1094.5864	1099.0019	1123.6055	1199.1603	1252.6326	1269.2743	1270.5141	1382.9411	1413.2983	1416.9899	1452.4995	1489.1679	1492.1352	1499.462	1582.6466	1653.9412	1772.3454	3023.2133	3040.1276	3047.9852	3118.4923	3121.5361	3202.8733	3221.4247	3600.9709
CCC1=NC=CNC1=O	CCc1ncc[nH]c1=O	
InChI=1S/C6H8N2O/c1-2-5-6(9)8-4-3-7-5/h3-4H,2H2,1H3,(H,8,9)	InChI=1S/C6H8N2O/c1-2-5-6(9)8-4-3-7-5/h3-4H,2H2,1H3,(H,8,9)
