18
gdb 90325	2.63639	1.70743	1.2577	2.722	72.01	-0.2537	0.0138	0.2675	1026.3713	0.148353	-439.060369	-439.052408	-439.051464	-439.092683	30.915	
C	-0.4840229549	 1.4616802959	-0.1060758262	-0.384867
C	 0.0410365174	 0.0466746403	-0.0651076028	 0.075584
O	 1.4220783638	-0.0455025187	-0.6587091991	-0.288213
C	 1.8896037459	-0.3985337407	 0.5683214688	 0.426191
N	 2.9707569939	-0.2521506004	 1.2092038917	-0.324721
C	 2.5151510284	-0.4475876315	 2.6233946414	-0.198889
C	 0.9947246115	-0.0273878938	 2.6467692144	 0.078079
O	 0.8509856966	 1.3709511793	 2.7975538326	-0.42938
C	 0.5903492899	-0.5939340495	 1.2564357682	-0.179719
H	 0.1675375128	 2.1533979958	 0.4276473594	 0.1293
H	-0.5820367755	 1.7935174389	-1.1437329775	 0.133135
H	-1.4716331755	 1.4970900907	 0.3642636403	 0.133977
H	-0.6086350838	-0.6378322	-0.6156558242	 0.104513
H	 2.6518127598	-1.4872257061	 2.9479905612	 0.111316
H	 3.0997949767	 0.1909293237	 3.2922202148	 0.118765
H	 0.4367968265	-0.4795309657	 3.4704384694	 0.091899
H	 1.5571389572	 1.7953273228	 2.2961902665	 0.295083
H	 0.2757845192	-1.6365598409	 1.3521900308	 0.107945
89.7315	175.4949	225.9425	238.641	287.008	381.0456	387.9218	429.5708	473.5108	569.3758	683.6854	716.343	762.76	784.2444	815.4633	834.5391	924.4304	972.8131	978.6297	1010.2875	1045.4746	1053.6727	1118.911	1141.5254	1161.2188	1191.37	1220.886	1245.3332	1278.475	1289.7994	1341.9779	1362.5421	1374.2078	1416.325	1432.3614	1478.9169	1489.8406	1491.2774	1758.6071	3026.1307	3051.9053	3071.5686	3085.0557	3090.6729	3092.9968	3117.928	3156.591	3792.2355
CC1OC2=NCC(O)C12	C[C@H]1O[C]2[N]C[C@@H](O)[C@@H]12	
InChI=1S/C6H9NO2/c1-3-5-4(8)2-7-6(5)9-3/h3-5,8H,2H2,1H3	InChI=1S/C6H9NO2/c1-3-5-4(8)2-7-6(5)9-3/h3-5,8H,2H2,1H3/t3-,4-,5-/m1/s1
