20
gdb 50046	3.54248	1.08597	0.97279	3.8534	80.6	-0.247	0.0016	0.2487	1273.4306	0.17195	-403.161853	-403.153365	-403.152421	-403.195909	31.805	
O	 0.0891676379	 0.2666557612	-0.6539419614	-0.29155
C	 0.0663733429	 1.3763732494	-0.1777470252	 0.133273
N	 1.0935390043	 1.9554890175	 0.5408181714	-0.094834
C	 2.4945192521	 1.7926342682	 0.2237212889	-0.305412
C	 1.8586161783	 3.1517059552	 0.1888599246	 0.324633
C	 1.606666745	 3.8867614924	-1.1291510164	-0.276323
C	 0.9971495839	 5.2252378369	-0.6825994575	-0.206643
C	 1.8194985164	 5.5752104719	 0.5729401067	-0.201937
C	 2.0490043435	 4.2179250754	 1.2816034505	-0.278709
H	-0.8290590566	 2.0275463377	-0.209470386	 0.080089
H	 3.1415028283	 1.5219181545	 1.0545770179	 0.122074
H	 2.7288517087	 1.3059149853	-0.7207976004	 0.131725
H	 2.5689887912	 4.0702959244	-1.6237119906	 0.110951
H	 0.9861527889	 3.3165539461	-1.825336383	 0.112651
H	 1.0433357399	 5.9972207265	-1.4549975952	 0.101143
H	-0.0584913177	 5.0865821555	-0.4181342484	 0.103919
H	 2.7794156521	 6.0082152896	 0.2689211053	 0.10357
H	 1.3271382121	 6.3074099194	 1.2177312517	 0.102959
H	 1.3127134179	 4.0482883434	 2.0719241857	 0.120323
H	 3.0382395307	 4.1555763395	 1.7437178914	 0.108099
36.1497	90.0103	156.9745	205.3695	272.1449	329.3105	366.6086	450.0429	485.5972	558.0886	643.6918	722.2498	832.0545	847.1228	867.2009	903.3677	907.8965	931.0682	965.9147	980.5094	1028.8091	1040.6332	1057.6999	1124.0752	1133.5464	1158.6068	1187.794	1210.3238	1229.7988	1242.4655	1267.6226	1309.8692	1331.6951	1342.1729	1345.9575	1415.6988	1425.6624	1483.9002	1485.3133	1494.6971	1509.4444	1515.3993	1794.118	2941.7016	3027.7654	3035.0772	3042.4213	3059.9033	3091.7973	3095.331	3099.5808	3100.5087	3109.0263	3187.4837
O=CN1CC11CCCC1	O=CN1CC21CCCC2	
InChI=1S/C7H11NO/c9-6-8-5-7(8)3-1-2-4-7/h6H,1-5H2	InChI=1S/C7H11NO/c9-6-8-5-7(8)3-1-2-4-7/h6H,1-5H2
