17
gdb 71973	2.79562	1.6811	1.21312	3.2904	77.76	-0.2456	0.0124	0.258	1024.1021	0.136862	-380.814825	-380.807191	-380.806247	-380.846733	29.626	
C	-0.0388320804	 1.4903711409	 0.0432264644	-0.513315
C	 0.0571392379	-0.004086414	 0.0012598132	 0.265845
C	 0.9003241263	-0.9027240145	-0.8915703796	-0.225467
N	 0.0284947993	-2.0805932994	-0.4985804819	-0.167389
C	 0.4065588017	-2.2569614511	 0.9533426551	-0.234328
C	-0.2324498839	-0.9040216329	 1.2519493185	 0.161654
C	-0.6535638168	-0.3541151856	 2.4935441989	 0.171737
N	-0.9878906129	 0.0847434513	 3.5121341343	-0.357794
C	-1.0156229304	-1.0438418165	-0.0423605186	-0.111009
H	 0.8919146424	 1.9326229056	 0.4139249667	 0.13724
H	-0.2298745051	 1.8914953338	-0.9575663494	 0.130489
H	-0.847330726	 1.8210441754	 0.7015931591	 0.146952
H	 0.748650339	-0.6783181776	-1.9509801076	 0.12031
H	 1.9685793248	-1.0333492567	-0.6881972486	 0.10827
H	-0.1608348743	-3.0833572894	 1.3864468201	 0.130244
H	 1.4763296447	-2.3968240774	 1.1377544236	 0.115188
H	-2.0762691363	-1.0577404419	-0.2502365783	 0.121373
131.5805	146.8965	199.5281	256.0302	302.3726	410.0485	478.8644	514.8518	538.4486	566.0981	640.5308	700.5818	795.3506	852.8138	855.9533	916.7504	934.2527	957.3768	983.7573	1033.4873	1076.491	1104.7092	1123.6595	1139.4083	1162.6163	1184.9089	1223.5366	1244.2451	1289.8677	1348.2834	1401.2224	1428.3013	1486.0628	1496.5426	1500.9806	1521.64	2339.2262	3035.4694	3041.6437	3053.6616	3099.49	3103.3578	3113.4801	3118.8481	3222.0749
CC12CN3CC1(C#N)C23	C[C@@]12CN3C[C@]1(C#N)[C@@H]23	
InChI=1S/C7H8N2/c1-6-3-9-4-7(6,2-8)5(6)9/h5H,3-4H2,1H3	InChI=1S/C7H8N2/c1-6-3-9-4-7(6,2-8)5(6)9/h5H,3-4H2,1H3/t5-,6+,7-/m1/s1
