19
gdb 88387	2.12712	1.40822	1.25414	2.1429	75.83	-0.2383	0.0107	0.249	1137.5636	0.156832	-419.179081	-419.169209	-419.168265	-419.213348	36.399	
C	-0.828781437	 0.9406552471	-0.0177114734	-0.340642
N	 0.0722307633	-0.2066111637	-0.0228617057	-0.084378
C	 1.4484632716	-0.0348529709	-0.4664482646	-0.285018
C	 1.1344746821	-0.3829259109	 0.9527398492	-0.029537
C	 1.4870150255	 0.5276537251	 2.1399988327	 0.176865
C	 0.4446263569	 0.4177108077	 3.2586866319	-0.398899
O	 2.7111810594	 0.0631170403	 2.7046626996	-0.430633
C	 1.6667117209	 1.9476720425	 1.7532785025	 0.27178
N	 1.8547840887	 3.0510760873	 1.4636116678	-0.357234
H	-0.3590495145	 1.9024175628	 0.2241306689	 0.138221
H	-1.273961697	 1.0219532569	-1.0139532079	 0.131221
H	-1.6401079533	 0.7553429588	 0.6934957796	 0.12693
H	 1.8316978697	-0.7884423174	-1.1501489564	 0.120301
H	 1.7992106519	 0.9789003773	-0.6580650207	 0.133277
H	 1.2569286451	-1.4166809092	 1.2760633107	 0.110193
H	 0.3274056218	-0.6350914321	 3.5270936615	 0.137652
H	 0.7827598357	 0.9709033453	 4.1374496418	 0.146147
H	-0.5192304595	 0.8137198531	 2.9339580408	 0.139733
H	 3.3832362787	 0.0733400101	 2.0124489917	 0.29402
74.0843	142.4582	172.1672	191.2574	211.4125	233.9496	256.3743	331.5168	334.5344	368.2218	376.0437	451.5909	500.5614	598.5048	646.5323	662.332	758.7573	895.5648	921.6297	941.8692	1008.1326	1037.2421	1062.3884	1110.3787	1130.5524	1139.527	1159.2122	1174.195	1206.6143	1230.7304	1346.6371	1354.4654	1391.9122	1410.4193	1453.733	1480.2864	1490.4735	1495.4265	1506.7742	1516.8339	2346.737	3017.981	3058.7015	3085.7899	3089.2861	3103.6854	3105.6318	3139.3624	3149.0578	3175.449	3794.28
CN1CC1C(C)(O)C#N	CN1C[C@H]1[C@@](C)(O)C#N	
InChI=1S/C6H10N2O/c1-6(9,4-7)5-3-8(5)2/h5,9H,3H2,1-2H3	InChI=1S/C6H10N2O/c1-6(9,4-7)5-3-8(5)2/h5,9H,3H2,1-2H3/t5-,6-,8?/m0/s1
