19
gdb 70731	2.73183	1.56901	1.1659	0.7945	77.76	-0.23	0.016	0.246	1083.4278	0.159894	-423.004828	-422.996793	-422.995849	-423.037152	31.945	
O	 0.194881609	 1.3900115809	 0.0976018833	-0.471714
C	 0.0305091532	-0.0054775239	-0.0271311644	 0.357838
C	-0.924167115	-0.4633301283	-1.1236043702	-0.343152
C	-1.3587018877	-0.4596449404	 0.3220471588	-0.064227
C	-1.6393308321	-1.7641357347	 1.0394703591	-0.12303
O	-0.892863544	-2.8547363886	 0.5379432218	-0.236367
C	 0.3818325205	-3.0304272019	 1.1196696805	-0.140422
C	 1.4246497884	-2.0015853306	 0.777825854	-0.079283
C	 1.2654747695	-0.764969041	 0.3054468122	-0.109656
H	 0.7252407145	 1.6909605805	-0.648689649	 0.280587
H	-1.3202416963	 0.3052825251	-1.7786590672	 0.108428
H	-0.7311625142	-1.4281570604	-1.5775824332	 0.129385
H	-2.014326801	 0.3544441488	 0.6188192478	 0.098768
H	-1.4768482609	-1.6517304298	 2.1234208965	 0.095378
H	-2.6935868007	-2.0276370889	 0.8903033803	 0.11037
H	 0.2878263523	-3.1026631057	 2.2194407333	 0.100696
H	 0.7266563965	-4.0134329121	 0.7761057019	 0.11579
H	 2.4428752145	-2.3431948733	 0.9581922588	 0.089697
H	 2.1675330434	-0.1790290258	 0.1353532359	 0.080914
79.9422	190.7075	251.2164	281.9341	319.5283	363.5184	377.6984	403.5426	473.351	521.6521	636.6171	663.8464	706.957	788.0122	810.6687	886.3149	923.8239	930.4908	944.3081	968.0433	994.2778	1029.531	1052.3986	1091.2388	1098.5168	1115.797	1170.2774	1201.0776	1247.089	1275.6107	1283.003	1332.6819	1346.3495	1389.9054	1410.0047	1418.2494	1431.0897	1475.2773	1486.5807	1493.6495	1734.9231	2930.6936	2976.799	3044.8039	3049.3363	3124.3035	3133.2157	3147.6194	3152.3437	3234.173	3792.3702
OC12CC1COCC=C2	O[C@]12C[C@H]1COCC=C2	
InChI=1S/C7H10O2/c8-7-2-1-3-9-5-6(7)4-7/h1-2,6,8H,3-5H2	InChI=1S/C7H10O2/c8-7-2-1-3-9-5-6(7)4-7/h1-2,6,8H,3-5H2/t6-,7+/m0/s1
