13
gdb 35660	4.42433	0.98685	0.85257	5.1137	70.57	-0.2741	-0.0715	0.2027	1253.5851	0.091107	-411.812502	-411.80476	-411.803816	-411.845399	27.44	
N	-0.2628183341	-1.1621181548	-0.1993489736	-0.308422
C	-0.1064827932	-0.0225998384	-0.0972268654	 0.291304
C	 0.0445155962	 1.4250244993	 0.0595437714	-0.12046
C	-0.5722997611	 1.9608472472	 1.3940436132	-0.201236
N	 0.4203834546	 2.9808185925	 1.7522093989	-0.352591
C	 1.5616278037	 2.6765451708	 1.0336801525	 0.294714
N	 1.4671365234	 1.8364598093	 0.0705427276	-0.286937
C	 2.7904112232	 3.347769354	 1.3623347224	 0.272876
N	 3.7575937185	 3.8999444717	 1.6685126965	-0.302031
H	-0.4355368583	 1.9073620311	-0.8020489103	 0.153127
H	-1.5626602296	 2.3951150704	 1.248760672	 0.145225
H	-0.6347852749	 1.1707000492	 2.1509978875	 0.144312
H	 0.5132592316	 3.2663972577	 2.7164326873	 0.270119
72.4831	134.2051	150.6684	205.1952	270.6042	421.611	483.3989	496.3798	536.9072	569.8045	628.6373	678.057	736.4072	861.0628	967.8343	1017.1811	1043.8562	1054.7169	1064.7049	1200.6875	1254.5219	1286.6114	1304.3721	1357.7318	1466.418	1522.2666	1667.0961	2370.1854	2371.998	3025.1441	3042.5721	3117.2889	3610.5581
N#CC1CNC(=N1)C#N	N#C[C@H]1CN[C]([N]1)C#N	
InChI=1S/C5H4N4/c6-1-4-3-8-5(2-7)9-4/h4H,3H2,(H,8,9)	InChI=1S/C5H4N4/c6-1-4-3-8-5(2-7)9-4/h4H,3H2,(H,8,9)/t4-/m0/s1
