18
gdb 89870	3.63857	0.96111	0.84908	1.8603	79.5	-0.2423	0.0318	0.2741	1363.3602	0.145866	-401.868317	-401.859431	-401.858487	-401.902205	33.928	
O	 0.6498821449	 0.5819079943	-1.0187443722	-0.430702
C	 0.0018821756	-0.2673419006	-0.1104406389	 0.167225
C	 0.2102182394	-0.064605011	 1.4207908807	-0.329884
C	-1.2872273491	-0.3219277916	 1.5976269058	 0.356498
C	-1.540773253	-0.135708084	 0.096541608	-0.356266
N	-1.7896591455	-1.407087524	 2.4285692257	-0.36121
C	-2.1812697871	-0.0030422979	 2.7462771996	-0.341429
C	-1.675495516	 0.5738854461	 3.9596980428	 0.384396
C	-1.2496488381	 1.0961742742	 4.955704851	-0.442612
H	 0.4875871456	 1.4919932692	-0.7477429246	 0.278025
H	 0.26911593	-1.282754987	-0.4138583879	 0.102429
H	 0.8920024164	-0.7408749427	 1.9386480555	 0.121383
H	 0.4786074266	 0.9704201696	 1.6621739964	 0.103207
H	-1.8940755542	 0.8728281115	-0.1468398201	 0.103278
H	-2.1832692687	-0.8644629656	-0.4060679183	 0.10664
H	-2.5752608676	-1.8682274244	 1.9727390267	 0.232943
H	-3.1970467973	 0.2926457626	 2.4893148311	 0.108097
H	-0.8740515318	 1.5419072814	 5.8432095388	 0.197981
50.2452	106.698	148.4389	264.0206	289.5977	333.637	341.1908	393.834	437.6307	469.4006	547.1705	594.4787	621.9247	659.7446	726.1693	799.5223	819.7417	879.1477	924.1788	945.7366	960.4553	1009.2613	1042.307	1065.5549	1071.4293	1127.5408	1174.883	1197.3215	1207.4136	1240.7353	1248.3635	1284.7686	1332.5294	1352.9996	1430.5672	1454.6859	1457.5547	1485.6096	2238.6452	3037.1041	3045.8274	3079.0829	3099.3679	3118.9968	3125.564	3479.805	3503.5301	3803.5611
OC1CC2(C1)NC2C#C	O[C@H]1C[C@@]2(C1)N[C@H]2C#C	
InChI=1S/C7H9NO/c1-2-6-7(8-6)3-5(9)4-7/h1,5-6,8-9H,3-4H2	InChI=1S/C7H9NO/c1-2-6-7(8-6)3-5(9)4-7/h1,5-6,8-9H,3-4H2/t5-,6-,7-/m0/s1
