23
gdb 63049	2.72212	1.56139	1.55359	0.1477	88.17	-0.2555	0.0857	0.3413	1047.4325	0.206997	-351.124656	-351.116602	-351.115657	-351.156352	33.75	
C	-0.1183097351	 1.5887274232	 0.0077307287	-0.45661
C	 0.023582351	 0.070113138	 0.012272868	 0.337535
C	-1.3423000963	-0.5900058236	-0.2113675132	-0.435757
C	 1.0652899683	-0.5943586796	-0.943258702	-0.060026
C	 2.4848577818	 0.0271441684	-0.9098660185	-0.252717
C	 2.7744534215	-0.6769427777	 0.4382917444	-0.030351
C	 2.0806636409	-0.0028968016	 1.6471986459	-0.252721
C	 0.7222635256	-0.6198915091	 1.2269464698	-0.06001
C	 1.4879258276	-1.5578060688	 0.2245728112	-0.036958
H	 0.8347683725	 2.1003024581	 0.1643795281	 0.113126
H	-0.5273951292	 1.9384269804	-0.9478257742	 0.109068
H	-0.8033545772	 1.9178571913	 0.7983736223	 0.109068
H	-1.7709828487	-0.2854737823	-1.1730876989	 0.106863
H	-1.2634603308	-1.6825316882	-0.2117504993	 0.113378
H	-2.047752087	-0.3060612821	 0.5780176595	 0.106864
H	 0.6879832219	-0.9233314873	-1.9141342496	 0.052561
H	 3.1007310786	-0.4032430326	-1.7058570392	 0.095984
H	 2.581921559	 1.1170528786	-0.9552571983	 0.088442
H	 3.7782179078	-1.0747752332	 0.5922795462	 0.058868
H	 2.4226075582	-0.4536335508	 2.5842390943	 0.095981
H	 2.1550273676	 1.0853302502	 1.745272934	 0.088444
H	 0.0651500941	-0.9696874554	 2.0263382954	 0.05256
H	 1.4525260477	-2.6445118959	 0.2061944454	 0.056408
182.6633	186.4848	228.5421	265.412	319.9688	332.4517	378.9787	400.3417	471.3891	588.4135	629.9607	704.2817	806.9201	811.4298	842.6734	842.6974	877.2776	925.3605	949.102	953.2424	963.226	966.8998	1017.098	1018.9186	1032.0208	1059.4401	1083.9214	1107.6873	1114.677	1158.8152	1184.9188	1196.0616	1211.2823	1229.3559	1250.3976	1252.8019	1264.9302	1282.3839	1294.0739	1325.1147	1345.5848	1399.3067	1418.7335	1474.7414	1480.2256	1487.303	1495.6795	1503.9516	1510.2663	3018.0673	3023.7012	3036.8622	3038.1208	3071.9163	3073.9865	3078.9597	3083.2644	3084.9796	3087.9997	3092.7402	3095.7199	3108.5088	3138.7538
CC1(C)C2CC3CC1C23	CC1(C)[C@H]2C[C@H]3C[C@@H]1[C@@H]23	
InChI=1S/C9H14/c1-9(2)6-3-5-4-7(9)8(5)6/h5-8H,3-4H2,1-2H3	InChI=1S/C9H14/c1-9(2)6-3-5-4-7(9)8(5)6/h5-8H,3-4H2,1-2H3/t5-,6-,7+,8+
