17
gdb 51710	5.19645	0.80342	0.72451	3.225	69.11	-0.2634	-0.0402	0.2232	1475.1766	0.135346	-459.018103	-459.009534	-459.00859	-459.052954	30.163	
O	-0.7330148196	 0.8991973281	 0.6368086629	-0.231394
C	-0.0137234206	 1.0496671049	-0.315724054	 0.159923
C	 1.3199956845	 1.7669851313	-0.2875594589	-0.303108
C	 1.3315984292	 2.988033277	-1.21784505	-0.02199
C	 0.380026571	 4.119690044	-0.7784519032	-0.086021
O	 0.9278718789	 5.3265565816	-1.3262406697	-0.215526
C	 2.2510455572	 5.1736677945	-1.6187819704	 0.432331
O	 2.9196580423	 6.0657437706	-2.0478166915	-0.328419
C	 2.665050552	 3.7390971669	-1.3016071214	-0.384785
H	-0.3043075176	 0.6633094894	-1.3213643146	 0.078706
H	 1.543998835	 2.0534419299	 0.7447683474	 0.126952
H	 2.0876753779	 1.0569534314	-0.6245953353	 0.12876
H	 1.0456608837	 2.6713486436	-2.228790625	 0.099896
H	-0.6394388968	 4.0117545392	-1.1548237336	 0.133696
H	 0.3406717298	 4.2081219552	 0.3147517953	 0.125488
H	 3.1867461113	 3.7432467245	-0.3363516769	 0.141227
H	 3.3615204218	 3.3665950481	-2.0536181009	 0.144264
37.2464	62.7099	115.0131	181.5249	192.8658	307.1863	395.8883	487.6787	514.8434	547.3334	621.0598	691.9483	802.9219	843.766	891.2255	917.3155	961.4788	1015.5377	1064.9451	1074.3936	1111.1863	1124.4108	1169.3079	1178.0717	1214.4966	1254.6444	1271.2111	1302.9328	1352.1351	1369.5157	1409.698	1428.5028	1462.9492	1468.8072	1519.6665	1837.2995	1891.207	2854.497	3022.3782	3024.9141	3033.3076	3046.475	3095.9361	3109.7965	3129.9221
O=CCC1COC(=O)C1	O=CC[C@H]1COC(=O)C1	
InChI=1S/C6H8O3/c7-2-1-5-3-6(8)9-4-5/h2,5H,1,3-4H2	InChI=1S/C6H8O3/c7-2-1-5-3-6(8)9-4-5/h2,5H,1,3-4H2/t5-/m1/s1
