22
gdb 110874	2.60281	1.18917	1.04986	2.0793	81.09	-0.2254	0.0661	0.2915	1274.2749	0.195345	-404.323367	-404.314316	-404.313372	-404.357408	34.736	
C	-0.1425955892	 1.5214270843	 0.6932049642	-0.411757
C	 0.0030847354	 0.0087663315	 0.5425087447	 0.064912
C	 0.6194618432	-0.4617362635	-0.8000954985	-0.267518
C	 1.2840522394	-1.7912999702	-0.4512991466	-0.050606
C	 2.6288058333	-1.8230819683	 0.1816988621	-0.025446
C	 3.588062335	-0.659081508	 0.2326374521	-0.08581
O	 4.4706913292	-0.7522448827	 1.3437391093	-0.424212
N	 1.4083777365	-1.9231927908	 1.0215651707	-0.1234
C	 0.9019550597	-0.6609711779	 1.6085221543	-0.19487
H	 0.8295578497	 2.0216954297	 0.6087124686	 0.116725
H	-0.7983340412	 1.9370380714	-0.0788509054	 0.117334
H	-0.5698218279	 1.7860405564	 1.6663192463	 0.117366
H	-0.9907562537	-0.4488693044	 0.6248926893	 0.082582
H	-0.1421590988	-0.59422694	-1.5729950436	 0.104352
H	 1.3319819353	 0.2764395776	-1.183573804	 0.105375
H	 0.9368332166	-2.6793913455	-0.9739456713	 0.088886
H	 3.1620621954	-2.7731531532	 0.1530340719	 0.096
H	 4.2263179723	-0.6851344405	-0.6577978225	 0.113856
H	 3.0694621347	 0.3087430171	 0.2222877343	 0.088927
H	 3.9359597306	-0.9190203452	 2.1268865682	 0.290047
H	 1.7133161203	 0.0127088989	 1.9147500804	 0.089932
H	 0.3378028142	-0.9079050866	 2.5131894055	 0.107324
53.5627	94.8924	175.2287	235.3224	257.1987	301.2525	309.9919	333.478	415.5629	515.3607	524.774	571.9618	679.3123	743.6273	799.3056	835.9616	879.525	901.3556	938.8637	953.5713	981.7723	1026.5147	1052.4405	1064.0805	1092.7286	1124.4569	1150.0355	1151.5038	1167.3478	1191.5622	1223.1798	1255.5164	1291.2583	1302.1888	1318.7018	1337.5171	1348.0369	1366.5392	1386.4942	1413.6245	1415.0927	1447.2797	1496.1795	1497.0539	1499.94	1507.1889	1526.1274	3006.6223	3017.1403	3021.9299	3026.5327	3049.2568	3063.7353	3070.7771	3089.3308	3095.163	3098.4564	3106.8931	3131.4078	3814.9725
CC1CC2C(CO)N2C1	C[C@H]1C[C@H]2[C@@H](CO)N2C1	
InChI=1S/C7H13NO/c1-5-2-6-7(4-9)8(6)3-5/h5-7,9H,2-4H2,1H3	InChI=1S/C7H13NO/c1-5-2-6-7(4-9)8(6)3-5/h5-7,9H,2-4H2,1H3/t5-,6-,7+,8?/m0/s1
