19
gdb 38991	3.01978	1.6743	1.23571	1.8882	74.59	-0.2309	0.0725	0.3034	1022.5951	0.161602	-422.985913	-422.978858	-422.977914	-423.017165	28.891	
C	 0.0392253127	 1.4889159098	 0.1043238153	-0.370892
C	 1.3278967193	 0.7255962026	 0.0342538791	 0.047068
O	 1.635787847	 0.1397355344	 1.3023795156	-0.303524
C	 0.4394364671	-0.6892735185	 1.2133425224	 0.056987
C	 0.795780812	-2.1581847283	 0.9521396669	-0.102203
O	-0.1843837429	-2.783639794	 0.1405818573	-0.243943
C	-0.2100451583	-2.2357908102	-1.16855393	-0.072372
C	-0.7045437852	-0.7811986704	-1.1604268783	-0.330054
C	 0.005392818	-0.0100120951	-0.0850543864	 0.292004
H	-0.2612961932	 1.9464324155	 1.0437346922	 0.113783
H	-0.2125144119	 2.0573138138	-0.787130192	 0.112228
H	 2.145774743	 0.9198783888	-0.6506092507	 0.102848
H	-0.2064610308	-0.5679668742	 2.0906779211	 0.081816
H	 1.7833639759	-2.1884980838	 0.4659108392	 0.098939
H	 0.8485363698	-2.7331126135	 1.8802868488	 0.109795
H	 0.7973434669	-2.2898054643	-1.6137839627	 0.089511
H	-0.8773352441	-2.872438679	-1.7558920345	 0.107394
H	-0.5599393688	-0.3245266929	-2.1468170875	 0.099466
H	-1.7839139367	-0.7756468707	-0.9595695258	 0.111152
147.6809	167.3756	313.4095	359.56	384.52	437.9125	468.189	483.0236	592.194	643.93	790.0939	793.977	868.0249	876.8943	925.1709	943.6715	972.2713	988.5943	997.2564	1021.981	1044.8369	1069.0265	1082.9631	1111.9168	1128.6785	1132.7352	1185.7208	1241.7259	1244.1335	1286.2793	1295.6853	1319.3785	1347.2222	1366.3086	1377.5362	1411.8292	1417.2743	1475.4268	1484.0579	1490.1804	1501.4031	2969.1996	2988.8002	3018.9614	3040.9332	3062.4424	3089.8898	3097.0025	3105.8141	3174.9457	3197.2276
C1C2OC3COCCC123	C1[C@H]2O[C@@H]3COCC[C@]123	
InChI=1S/C7H10O2/c1-2-8-4-6-7(1)3-5(7)9-6/h5-6H,1-4H2	InChI=1S/C7H10O2/c1-2-8-4-6-7(1)3-5(7)9-6/h5-6H,1-4H2/t5-,6-,7+/m1/s1
