19
gdb 80947	2.448	1.33936	1.2246	2.985	81.11	-0.2559	0.0184	0.2743	1142.1337	0.159183	-382.027604	-382.018885	-382.01794	-382.060637	33.186	
C	-0.0691584948	 1.6105128195	-0.0009174204	-0.440575
C	 0.0002137858	 0.0953018225	 0.0026236145	 0.007149
C	 1.2388142451	-0.6300617068	-0.5950033073	-0.046934
N	 2.0325021964	-0.1173677844	 0.5860502429	-0.352438
C	 0.7317818769	-0.6490340471	 1.1719422254	 0.31569
C	 0.4318887144	-0.6367660025	 2.6410299744	-0.521854
C	 0.8585772066	-1.9051027697	 0.2261140375	-0.186902
C	-0.3141175929	-2.6965313331	-0.1132618384	 0.263061
N	-1.2481539707	-3.327758863	-0.3731312013	-0.339755
H	 0.8892263101	 2.0510294347	 0.2774473337	 0.145102
H	-0.3488861012	 1.9775674293	-0.9942170538	 0.119357
H	-0.8343929152	 1.9605362519	 0.7005612149	 0.117639
H	-0.9553559007	-0.3552386799	-0.2763695863	 0.098774
H	 1.6278336124	-0.6012495021	-1.6130545598	 0.095901
H	 2.7987641439	-0.7644336915	 0.7987657229	 0.206762
H	 0.4504819676	 0.388776168	 3.0220749046	 0.141364
H	-0.5587563479	-1.0606642272	 2.8326893038	 0.141906
H	 1.1681311533	-1.223000958	 3.2010091757	 0.126319
H	 1.7040203308	-2.5582782006	 0.4611163373	 0.109433
125.7158	138.8095	190.8791	191.5981	205.6823	294.3432	330.7996	355.8805	446.8582	531.389	540.6014	636.6069	656.4586	758.2086	789.7331	807.371	879.0641	900.3573	948.8769	1019.9104	1036.914	1043.8341	1070.0625	1108.3287	1128.9088	1139.1459	1183.2299	1207.0549	1213.7147	1272.2216	1274.9841	1321.0071	1371.2358	1401.4978	1411.0891	1436.1795	1482.5384	1486.3442	1495.1739	1505.7652	2344.6336	3036.6131	3037.9604	3072.499	3086.0458	3092.9498	3106.2196	3116.3756	3117.8635	3144.0781	3379.6183
CC1C2NC1(C)C2C#N	C[C@H]1[C@H]2N[C@]1(C)[C@H]2C#N	
InChI=1S/C7H10N2/c1-4-6-5(3-8)7(4,2)9-6/h4-6,9H,1-2H3	InChI=1S/C7H10N2/c1-4-6-5(3-8)7(4,2)9-6/h4-6,9H,1-2H3/t4-,5-,6+,7-/m0/s1
