19
gdb 92058	2.86409	1.53221	1.08764	3.7236	76.41	-0.2172	0.0332	0.2504	1122.4644	0.161313	-419.227032	-419.218873	-419.217929	-419.259632	32.028	
C	-0.0143842357	 1.541986274	-0.0275173722	-0.400321
C	 0.0077880193	 0.018909579	 0.0077707274	-0.081493
N	 0.738257601	-0.5188184357	-1.1469620513	-0.313411
C	 0.7035117894	-1.954020066	-1.2211212099	-0.003552
C	 2.0048731842	-2.7068916071	-1.0417202509	-0.307068
C	 0.9929501538	-2.6332306872	 0.0854291084	 0.014568
N	 1.1916951121	-1.7590332079	 1.1968036508	-0.323989
C	 0.6966874894	-0.4859189871	 1.2878343676	 0.445504
O	 0.8067931064	 0.1835852967	 2.2966478649	-0.381864
H	 1.0026308551	 1.9343368759	-0.1109071413	 0.131221
H	-0.5989310189	 1.8979800802	-0.882535028	 0.100369
H	-0.4572513236	 1.9301448006	 0.8903035174	 0.144049
H	-1.0345324767	-0.3529764044	 0.0489855514	 0.078807
H	 0.4239748908	-0.0911881266	-2.0090697435	 0.224257
H	-0.0646854774	-2.4121996394	-1.8443732448	 0.085787
H	 2.132668709	-3.6605563255	-1.5419720897	 0.111712
H	 2.8929596358	-2.0944045562	-0.9444480205	 0.126837
H	 0.437699824	-3.5397502392	 0.3130974756	 0.102348
H	 1.6933245919	-2.0864573941	 2.0099948988	 0.246239
82.0274	139.4186	200.9206	279.9063	310.4119	366.7195	420.0169	468.2617	481.0694	528.4781	565.7119	649.3055	693.5402	736.5786	800.4245	838.1697	855.4777	897.5801	959.7464	1022.519	1039.6523	1059.885	1064.869	1114.2179	1129.7465	1152.253	1158.0473	1183.2904	1248.9444	1292.5087	1335.7915	1345.6917	1395.8375	1405.3094	1420.3112	1441.8959	1472.4119	1485.4849	1497.7432	1503.5642	1795.1632	2907.3468	3044.4997	3089.0948	3114.7778	3127.9485	3140.3174	3151.3855	3240.6919	3550.9104	3602.2384
CC1NC2CC2NC1=O	C[C@H]1N[C@H]2C[C@H]2NC1=O	
InChI=1S/C6H10N2O/c1-3-6(9)8-5-2-4(5)7-3/h3-5,7H,2H2,1H3,(H,8,9)	InChI=1S/C6H10N2O/c1-3-6(9)8-5-2-4(5)7-3/h3-5,7H,2H2,1H3,(H,8,9)/t3-,4+,5-/m1/s1
