19
gdb 66808	3.56728	1.76124	1.75471	0.152	80.38	-0.2358	0.0853	0.3211	889.9624	0.161679	-348.701738	-348.695417	-348.694473	-348.731943	27.617	
C	-0.0918482101	 1.5423132471	 0.0035207233	-0.518658
C	-0.0034515028	 0.0452517835	 0.0275184977	 0.357975
C	-0.0920831589	-0.8702929247	-1.1760159367	-0.127166
C	 0.9725210926	-1.956724398	-1.0885471302	-0.071458
C	 0.6976398773	-2.8407247129	 0.1084286318	-0.085975
C	 1.7791283314	-1.7718856441	 0.1797831981	-0.08861
C	 0.8391246384	-0.8422815657	 0.9903053955	-0.128964
C	-0.2757197421	-1.9437340368	 0.9196962297	-0.062764
C	-1.0822705859	-1.0324521072	-0.0378525341	-0.142546
H	 0.8721563769	 1.9931866476	-0.2628411968	 0.117713
H	-0.8294656177	 1.8824911073	-0.7313963105	 0.116495
H	-0.3880304714	 1.9456084016	 0.9790270018	 0.115204
H	-0.4246629198	-0.473784647	-2.127326911	 0.077257
H	 1.4388627464	-2.3713785204	-1.9728209158	 0.080093
H	 0.778365961	-3.921074014	 0.1071023235	 0.079191
H	 2.8562733559	-1.86796699	 0.2456007254	 0.078795
H	 1.1641710517	-0.4369045217	 1.946240871	 0.061923
H	-0.7392638739	-2.3270214189	 1.8254828596	 0.064364
H	-2.1577614589	-0.9444239157	-0.1433413022	 0.077131
203.1209	214.8655	268.3131	539.4918	553.6392	584.0398	694.3717	755.6552	762.0196	769.2606	778.8346	808.1222	815.9704	866.9348	881.8148	896.4908	909.6831	914.7541	941.7314	958.7834	998.0671	1015.8926	1020.6861	1047.6925	1052.0674	1057.9071	1108.8675	1127.4386	1169.7975	1184.4072	1203.7702	1224.6395	1233.8183	1257.7886	1275.8965	1303.9153	1350.5108	1409.9933	1437.3778	1486.2188	1497.9802	3016.5719	3074.0583	3089.409	3134.3995	3145.0448	3169.7154	3173.9216	3183.2211	3192.4696	3207.223
CC12C3C4C5C4C1C5C23	C[C@@]12[C@H]3[C@@H]4[C@H]5[C@@H]4[C@@H]1[C@H]5[C@@H]23	
InChI=1S/C9H10/c1-9-6-3-2-4(3)7(9)8(9)5(2)6/h2-8H,1H3	InChI=1S/C9H10/c1-9-6-3-2-4(3)7(9)8(9)5(2)6/h2-8H,1H3/t2-,3+,4-,5+,6-,7+,8-,9+/m1/s1
