16
gdb 112381	3.40512	1.21702	0.92748	2.1467	67.72	-0.2631	-0.0214	0.2416	1215.9934	0.123752	-475.063357	-475.054945	-475.054001	-475.097078	30.166	
C	-0.1553901555	 1.4757773628	 0.0298800476	-0.253077
O	-0.0111792547	 0.0791436952	-0.195449035	-0.24017
C	-1.1749824505	-0.6665754453	 0.0106109017	-0.011796
C	-1.0396141711	-2.0775860402	-0.5603256062	-0.335127
C	-1.7658491422	-2.9418353588	 0.4394387185	 0.406951
N	-2.1953370166	-4.1073737475	 0.2656162707	-0.510129
O	-1.888429542	-2.2422661617	 1.6396645163	-0.209941
C	-1.4787261329	-0.9325799684	 1.4980724385	 0.408151
O	-1.4040394883	-0.1885565656	 2.4259325401	-0.310131
H	 0.8050111421	 1.929373604	-0.2223831667	 0.135194
H	-0.933714027	 1.8996464411	-0.6225118222	 0.109377
H	-0.4029341506	 1.692572004	 1.0733138024	 0.149668
H	-2.0561030187	-0.1507982298	-0.4081059322	 0.108877
H	-1.4380440666	-2.2094245249	-1.5652472641	 0.150541
H	 0.0223737656	-2.3461738365	-0.5728111828	 0.162246
H	-2.6397006812	-4.4684615885	 1.1112692234	 0.239365
57.76	121.8271	134.3131	181.087	247.6885	308.0163	362.1537	421.0748	514.1009	546.5466	628.297	637.078	726.0062	812.8316	892.335	916.1744	954.3841	1029.8012	1058.2434	1064.1557	1130.4285	1163.9599	1176.3769	1182.8036	1236.2743	1279.665	1300.6929	1324.3824	1380.5255	1466.492	1478.7515	1484.9064	1515.779	1798.9273	1909.9894	2962.0243	2994.243	3066.0405	3087.4436	3136.4906	3148.2247	3482.4098
COC1CC(=N)OC1=O	CO[C@H]1C[C]([NH])OC1=O	
InChI=1S/C5H7NO3/c1-8-3-2-4(6)9-5(3)7/h3,6H,2H2,1H3	InChI=1S/C5H7NO3/c1-8-3-2-4(6)9-5(3)7/h3,6H,2H2,1H3/t3-/m0/s1
