15
gdb 5312	4.56855	1.61574	1.27536	2.6073	62.53	-0.2476	-0.0032	0.2444	931.2273	0.119081	-399.832118	-399.824544	-399.823599	-399.864612	27.22	
C	-0.3070515269	 1.5273983378	 0.1154918022	-0.39059
C	 0.0899255055	 0.0590286341	-0.0742772104	 0.051594
O	 0.8844552474	-0.0854308217	-1.2313165221	-0.438889
C	 0.8348481793	-0.4826168018	 1.1104433281	 0.380538
N	 2.0177864241	-1.0097506592	 1.0880264807	-0.330409
C	 2.2680860354	-1.3664134553	 2.4094350278	-0.110308
C	 1.1992549937	-1.0263042799	 3.1627026021	-0.045282
O	 0.266155829	-0.4545161951	 2.3359735918	-0.178225
H	 0.5847522609	 2.1453269646	 0.2523729865	 0.127016
H	-0.8354591266	 1.8729910251	-0.7764083423	 0.131148
H	-0.9622574086	 1.6461409936	 0.9831045019	 0.123496
H	-0.8325037953	-0.5353585472	-0.1876005005	 0.09732
H	 1.692622956	-0.5457790728	-0.9658279921	 0.299031
H	 3.1909576791	-1.8358922864	 2.7093147038	 0.132252
H	 0.938655787	-1.1011759558	 4.2039154326	 0.151309
41.5277	151.7337	201.2134	245.6817	261.8687	343.7108	449.8278	494.1389	627.5773	673.6697	752.4223	770.0534	862.9762	910.0575	933.2082	970.1841	1043.8289	1097.1873	1102.2189	1142.0865	1152.667	1172.2907	1242.2832	1307.295	1356.3907	1374.9234	1402.7577	1447.7834	1489.583	1497.6624	1559.9953	1613.8523	2959.7992	3046.2895	3126.3162	3130.5205	3268.9887	3304.7287	3741.0827
CC(O)C1=NC=CO1	C[C@@H](O)c1ncco1	
InChI=1S/C5H7NO2/c1-4(7)5-6-2-3-8-5/h2-4,7H,1H3	InChI=1S/C5H7NO2/c1-4(7)5-6-2-3-8-5/h2-4,7H,1H3/t4-/m1/s1
