22
gdb 73812	2.38764	1.57982	1.09378	1.4435	89.31	-0.2134	0.0302	0.2436	1207.0279	0.193524	-367.218348	-367.208885	-367.207941	-367.25185	36.42	
C	 0.1186984645	 1.5144087524	-0.1038595859	-0.492638
C	 0.0128237265	 0.0253693122	 0.0026627789	 0.207026
C	-1.0926664735	-0.7290919857	 0.1098205592	 0.20709
C	-2.5222903135	-0.2869792296	 0.1667015073	-0.511485
C	-0.7345986555	-2.193822938	 0.1017813637	 0.255853
C	-1.55703262	-3.201460762	 0.862743811	-0.497803
N	-0.1147892276	-2.5805709233	-1.204199465	-0.373495
C	 0.7426258234	-2.2490186886	-0.039939351	-0.095742
C	 1.2728900802	-0.8253558406	-0.0552296571	-0.302174
H	 0.78482537	 1.9180734013	 0.6701437393	 0.119586
H	 0.5516845504	 1.8090033852	-1.0687595253	 0.127447
H	-0.8481645536	 2.0140002516	-0.0073172796	 0.120548
H	-2.620013156	 0.8009587613	 0.17693417	 0.121848
H	-3.0835712561	-0.6651979594	-0.6978200987	 0.130788
H	-3.0280120531	-0.6735806701	 1.0605167617	 0.120822
H	-2.5568936609	-3.3157862029	 0.4280831803	 0.123935
H	-1.0747960912	-4.1845974269	 0.8520933659	 0.11184
H	-1.6829582575	-2.9027219201	 1.9093934949	 0.123933
H	-0.147706054	-3.5971916044	-1.2851110175	 0.215978
H	 1.3273991978	-3.0438302164	 0.4123227039	 0.078865
H	 1.8607516658	-0.6168357377	-0.9583562305	 0.111425
H	 1.930209624	-0.6298035385	 0.8039838845	 0.096354
128.1228	146.4652	174.2201	176.9892	224.0956	258.1753	272.4978	297.5206	391.3079	427.483	444.5424	545.9519	580.103	636.4345	679.0537	766.6934	836.5227	873.6722	911.2771	932.1674	977.1721	984.8218	1030.1828	1058.3002	1072.1652	1079.5257	1111.0788	1118.6223	1145.2217	1184.3803	1193.763	1228.8395	1319.7815	1340.0852	1364.1276	1407.9208	1412.0816	1420.3821	1429.7217	1467.6547	1478.3409	1481.3202	1483.1891	1488.7908	1493.4001	1502.7957	1728.2128	3005.8465	3014.0775	3016.7209	3023.8583	3044.821	3055.6817	3059.1456	3084.9985	3095.6347	3112.4501	3119.3829	3156.8011	3452.6422
CC1=C(C)C2(C)NC2C1	CC1=C(C)[C@@]2(C)N[C@H]2C1	
InChI=1S/C8H13N/c1-5-4-7-8(3,9-7)6(5)2/h7,9H,4H2,1-3H3	InChI=1S/C8H13N/c1-5-4-7-8(3,9-7)6(5)2/h7,9H,4H2,1-3H3/t7-,8+/m0/s1
