19
gdb 119222	1.88754	1.21287	0.85056	2.3522	78.65	-0.242	0.0472	0.2892	1393.2541	0.155832	-422.96459	-422.954277	-422.953333	-422.999977	37.587	
O	-0.0803982304	 1.4920144068	 0.0991144978	-0.420758
C	-0.0111528384	 0.083799724	 0.2700556927	-0.074268
C	-1.3044212751	-0.5064961867	-0.2807943384	-0.254683
C	-1.3634338721	-2.0234018823	-0.1475613463	 0.105262
C	-1.7579195002	-2.620083477	 1.2107585579	-0.36087
C	-2.7154289443	-2.6888117129	 0.0574042786	 0.058685
O	-3.8360633863	-1.8596658743	 0.0280203562	-0.417331
C	-0.4025014432	-2.7589169795	-0.9280145341	 0.288904
C	 0.4017006135	-3.3658904762	-1.5861870331	-0.457209
H	 0.7569698694	 1.8694858115	 0.382887395	 0.284917
H	 0.8499093134	-0.3445883362	-0.2643300257	 0.098282
H	 0.0966324239	-0.1851821322	 1.3336744233	 0.081076
H	-2.1572583795	-0.0657400451	 0.2403589408	 0.120703
H	-1.3971703404	-0.2280375809	-1.3359116474	 0.115483
H	-1.2622759552	-3.5261078777	 1.5386044256	 0.124635
H	-1.9823809817	-1.9014423446	 1.9923085466	 0.120813
H	-2.8444744787	-3.6532935169	-0.4314610506	 0.103182
H	-4.4392188682	-2.1486184674	 0.7207927151	 0.292014
H	 1.1092999537	-3.9013540223	-2.1689821338	 0.191164
78.113	90.3712	135.279	146.0433	162.8627	239.3172	251.662	275.8081	321.3661	387.2107	425.2974	489.1234	541.2104	575.2283	596.8066	643.8464	716.2613	798.311	825.1764	904.4204	941.0553	986.5169	1026.5972	1048.7443	1053.4117	1083.3955	1116.8957	1176.8091	1212.8285	1246.9184	1265.1589	1285.763	1309.1665	1325.5525	1345.354	1416.5323	1461.9518	1472.354	1494.7392	1530.1006	2230.7891	2966.1135	3006.4504	3057.6151	3114.2552	3116.0825	3134.1148	3230.1513	3503.638	3806.8131	3832.9684
OCCC1(CC1O)C#C	OCC[C@]1(C[C@H]1O)C#C	
InChI=1S/C7H10O2/c1-2-7(3-4-8)5-6(7)9/h1,6,8-9H,3-5H2	InChI=1S/C7H10O2/c1-2-7(3-4-8)5-6(7)9/h1,6,8-9H,3-5H2/t6-,7+/m1/s1
