19
gdb 61863	1.88228	1.25323	0.87876	3.5565	74.65	-0.2516	0.0195	0.2711	1377.7748	0.157223	-456.384021	-456.373536	-456.372592	-456.420963	36.603	
C	-0.1109422648	 1.6930193287	 0.1203925095	-0.401675
C	-0.0074609427	 0.1753607969	 0.0369272677	 0.127923
C	-1.3706912648	-0.5180824255	 0.0623662183	-0.313048
C	-1.2252748371	-2.0324393693	 0.2127519216	 0.420561
N	-2.2097932446	-2.7716851589	-0.3698644562	-0.520468
O	-0.3172442226	-2.5365608517	 0.8489935435	-0.368686
O	 0.6452218535	-0.150005813	-1.1996298911	-0.206179
C	 1.6721840244	-1.0259747915	-1.1719707243	 0.116387
N	 2.2521146211	-1.3386647575	-2.249475003	-0.45335
H	 0.8846156236	 2.142477667	 0.0826363774	 0.130319
H	-0.6943364523	 2.0882243228	-0.7168386246	 0.129524
H	-0.5937807799	 1.9955015312	 1.0545975973	 0.117561
H	 0.5855111389	-0.2140980488	 0.8717854533	 0.109435
H	-1.9460265137	-0.1569435283	 0.9237295208	 0.132754
H	-1.9339460335	-0.2547506244	-0.8392403357	 0.112708
H	-2.8583790919	-2.3675662114	-1.0226390281	 0.262561
H	-2.1193675072	-3.7749944236	-0.3468947145	 0.264315
H	 1.9029096171	-1.399525036	-0.1682233984	 0.113691
H	 3.0007744965	-1.9995845065	-2.0518722436	 0.225668
35.3196	60.8561	69.7449	123.6616	166.4105	218.0349	265.9386	285.7127	302.9312	359.9274	461.502	496.7481	522.1868	587.1713	608.4574	687.4865	815.6584	849.0232	886.4026	915.9326	946.7073	1034.4786	1064.5241	1077.4631	1119.818	1142.1599	1155.1937	1234.6058	1272.3367	1303.1343	1344.6972	1387.5659	1408.0539	1412.6513	1436.5422	1449.328	1485.8892	1499.0136	1621.066	1737.1792	1788.1993	3037.5464	3043.8791	3052.6796	3065.9965	3086.8598	3117.0379	3124.4831	3514.6137	3597.6978	3732.4082
CC(CC(N)=O)OC=N	C[C@@H](CC(=O)N)O[CH][NH]	
InChI=1S/C5H10N2O2/c1-4(9-3-6)2-5(7)8/h3-4,6H,2H2,1H3,(H2,7,8)	InChI=1S/C5H10N2O2/c1-4(9-3-6)2-5(7)8/h3-4,6H,2H2,1H3,(H2,7,8)/t4-/m0/s1
