14
gdb 24076	7.29852	0.78809	0.71974	3.5099	69.27	-0.2229	0.009	0.2319	1452.1461	0.102402	-432.900911	-432.892999	-432.892055	-432.934755	27.87	
N	-0.0143725136	-1.1021022059	-0.2412595351	-0.289888
C	 0.0197835261	 0.0326535212	-0.0310148956	 0.256242
C	 0.0621616287	 1.4655285124	 0.2670007535	-0.265961
N	 1.3977006895	 1.9963981267	 0.0452416483	-0.411063
C	 1.5257023212	 3.3595489489	 0.02195158	 0.529217
N	 0.5802276251	 4.2424553722	-0.07983434	-0.359013
C	 1.2745056533	 5.4530992026	-0.1292028473	-0.106239
C	 2.5991111147	 5.2231794374	-0.0410333576	-0.051347
O	 2.7804010592	 3.8527223137	 0.0587819243	-0.201198
H	-0.6269635518	 1.9999402862	-0.393666859	 0.196141
H	-0.3014982774	 1.6257400935	 1.2931205963	 0.158962
H	 2.1584931022	 1.4993398374	 0.4848144753	 0.268403
H	 0.7570631168	 6.3947969955	-0.2188569188	 0.127868
H	 3.4915097863	 5.8224149682	-0.0265761646	 0.147877
31.9944	96.5229	126.6541	227.4271	303.0684	379.4289	424.137	472.6621	583.4004	613.4953	703.7481	756.8287	797.4121	863.3609	928.262	946.077	978.0967	1014.0925	1076.9823	1124.5957	1143.2089	1184.1005	1235.8203	1269.6146	1344.0804	1400.6942	1487.4163	1528.6516	1586.3713	1658.1909	2373.4706	3000.2087	3093.8361	3267.1474	3312.4056	3615.6305
N#CCNC1=NC=CO1	N#CCNc1ncco1	
InChI=1S/C5H5N3O/c6-1-2-7-5-8-3-4-9-5/h3-4H,2H2,(H,7,8)	InChI=1S/C5H5N3O/c6-1-2-7-5-8-3-4-9-5/h3-4H,2H2,(H,7,8)
