20
gdb 116646	1.88508	0.92525	0.64913	3.2349	88.27	-0.2416	0.0246	0.2663	1771.9128	0.167029	-403.120175	-403.108658	-403.107713	-403.159452	38.153	
C	 0.1982861106	 0.7017067735	 0.7986209991	-0.249708
O	-0.5569366069	 0.1320087617	-0.2628211535	-0.19705
C	-1.2756540261	-0.9618441159	 0.0626673875	 0.13562
N	-1.9848118345	-1.5266220963	-0.810063875	-0.24462
C	-2.7557855002	-2.7213432679	-0.4640378027	-0.089195
C	-2.3702005574	-3.8480431779	-1.4420890628	-0.366104
C	-2.6637255813	-3.1816457693	 0.9299864873	 0.098362
C	-2.5820334683	-3.5664064713	 2.0694709538	 0.003261
C	-2.5026140656	-4.0469343067	 3.4423776072	-0.498406
H	 0.7246880286	 1.5584498262	 0.3760481176	 0.144206
H	-0.4493100644	 1.0460138313	 1.6143001724	 0.126338
H	 0.9329644232	-0.0085343727	 1.1976323537	 0.125993
H	-1.1814022998	-1.2846750551	 1.1071782191	 0.087612
H	-3.8066863715	-2.4661959798	-0.6623500408	 0.11333
H	-2.4721872025	-3.4866412273	-2.4681600456	 0.126934
H	-1.3316636285	-4.1492400505	-1.2799267713	 0.121522
H	-3.0136333376	-4.719948713	-1.2972959611	 0.116025
H	-3.1066267624	-4.9508350877	 3.5784928519	 0.151499
H	-1.4723761401	-4.2944377836	 3.7212382432	 0.14712
H	-2.8679504953	-3.2962240776	 4.1518555501	 0.14726
20.353	45.3506	69.1792	85.8942	129.1269	152.4722	179.3841	237.6153	264.7581	298.0848	307.4435	394.7889	433.7595	484.4039	550.5045	636.5399	737.2831	916.6059	997.8151	1006.4518	1051.8793	1054.3781	1064.0714	1088.5861	1097.4221	1174.2439	1177.5718	1184.4095	1277.4468	1317.1303	1339.4619	1398.0801	1405.4724	1414.5931	1478.1619	1479.4432	1485.1595	1486.0103	1494.6895	1495.3495	1501.4221	1770.2088	2357.9344	2998.324	3011.2442	3026.768	3043.0188	3046.6488	3074.962	3086.9045	3088.0668	3125.3411	3132.6551	3142.5684
COC=NC(C)C#CC	COC=N[C@@H](C)C#CC	
InChI=1S/C7H11NO/c1-4-5-7(2)8-6-9-3/h6-7H,1-3H3	InChI=1S/C7H11NO/c1-4-5-7(2)8-6-9-3/h6-7H,1-3H3/t7-/m0/s1
