19
gdb 50823	5.01215	0.75876	0.73461	1.697	82.08	-0.2553	-0.0204	0.2349	1593.7209	0.160548	-419.238232	-419.229224	-419.22828	-419.27365	32.443	
N	 1.112454386	-0.3813501093	-0.5030519653	-0.464832
C	 0.0698860516	 0.2867075794	-0.2189143289	 0.100979
N	-1.1239425303	-0.3659796053	 0.0449151439	-0.320958
C	-2.3046000431	 0.2829362759	 0.3652075067	 0.428366
O	-2.3754493293	 1.4948036771	 0.4353165162	-0.366038
C	-3.4905812241	-0.616863278	 0.6282816943	-0.103182
C	-4.2258086965	-0.406402898	 1.9901254272	-0.215095
C	-5.5805100081	-0.5156124823	 1.2440445591	-0.214752
C	-4.8248821233	-0.2272802191	-0.0787614012	-0.215804
H	 1.898078398	 0.2452509724	-0.6681074248	 0.232839
H	-0.0319459174	 1.3710534864	-0.1470903265	 0.140393
H	-1.0976309259	-1.3743387742	-0.0046186032	 0.261364
H	-3.2441570922	-1.6706717778	 0.4677972269	 0.064922
H	-4.0120713893	-1.1223627283	 2.7865554644	 0.101567
H	-4.0444519396	 0.607504516	 2.3541741165	 0.129712
H	-5.9805162439	-1.533200615	 1.2724625103	 0.103402
H	-6.3730137286	 0.1773825906	 1.5339269585	 0.104929
H	-4.8150591838	 0.8388644382	-0.3162272179	 0.131125
H	-5.1009667201	-0.7963291989	-0.9690264362	 0.101063
18.3978	106.1807	117.979	172.1572	188.2263	259.3061	305.2102	348.7139	493.8189	612.0869	637.0773	728.1368	732.8059	799.5507	834.29	834.4	906.0624	937.8097	949.3856	973.18	1039.2727	1040.0972	1086.4688	1091.2579	1132.7164	1169.5197	1210.4895	1249.7372	1251.4275	1261.8254	1282.4424	1283.6303	1301.0878	1380.5377	1393.8623	1472.6393	1485.2573	1490.797	1505.5309	1725.7825	1787.4115	3058.3105	3060.0674	3067.2497	3071.4618	3107.4702	3126.6063	3127.2795	3135.4009	3505.8979	3615.9549
N=CNC(=O)C1CCC1	N=CNC(=O)C1CCC1	
InChI=1S/C6H10N2O/c7-4-8-6(9)5-2-1-3-5/h4-5H,1-3H2,(H2,7,8,9)	InChI=1S/C6H10N2O/c7-4-8-6(9)5-2-1-3-5/h4-5H,1-3H2,(H2,7,8,9)
