16
gdb 5229	7.31149	1.14359	1.00648	1.8374	68.06	-0.1988	0.0328	0.2317	1152.3653	0.131794	-379.955412	-379.947694	-379.946749	-379.988214	27.724	
C	-0.0572064684	 1.5130330786	-0.1227554926	-0.396859
C	-0.0408916815	 0.0193492674	 0.1813033028	-0.111831
N	-1.3724511016	-0.5531292133	 0.0135435902	-0.400677
C	-1.5184096714	-1.9084176587	 0.0060531714	 0.513586
N	-0.6008220611	-2.8172540613	-0.1471237824	-0.3591
C	-1.3225168702	-4.0110549319	-0.1440876864	-0.10579
C	-2.6349161087	-3.755362705	 0.0211450689	-0.057903
O	-2.7824534472	-2.3814739538	 0.1222965492	-0.204959
H	 0.9450064613	 1.9340947221	-0.0047667782	 0.125997
H	-0.3954228172	 1.7003049596	-1.145859644	 0.131435
H	-0.7239421134	 2.0524572905	 0.5603137507	 0.114499
H	 0.6244386477	-0.5102392933	-0.5052119123	 0.145031
H	 0.3473003346	-0.1620387861	 1.1950411921	 0.105217
H	-2.1319082181	-0.056447004	 0.4561067465	 0.247065
H	-0.8314841943	-4.9647316429	-0.2575976612	 0.117323
H	-3.5360325805	-4.3373903179	 0.0925039054	 0.136966
47.8725	101.2884	147.4349	254.0466	305.8907	350.6047	435.2071	521.2896	611.879	687.6491	759.7562	779.5977	812.8224	860.3148	918.0783	936.2108	980.1718	1074.3531	1087.496	1132.0801	1148.5505	1168.2309	1193.6905	1253.575	1295.7321	1349.2293	1400.9224	1418.4718	1491.3782	1497.9259	1521.625	1530.9651	1586.9517	1663.063	2991.1068	3034.1823	3089.6779	3110.1619	3123.7898	3260.5021	3308.7331	3608.2884
CCNC1=NC=CO1	CCNc1ncco1	
InChI=1S/C5H8N2O/c1-2-6-5-7-3-4-8-5/h3-4H,2H2,1H3,(H,6,7)	InChI=1S/C5H8N2O/c1-2-6-5-7-3-4-8-5/h3-4H,2H2,1H3,(H,6,7)
