18
gdb 77295	3.31897	0.9411	0.7885	1.481	74.66	-0.2579	-0.033	0.2249	1426.8862	0.145782	-439.096901	-439.087594	-439.086649	-439.13224	32.791	
C	-0.2507533385	 1.5733078452	 0.1993294468	-0.409129
C	-0.102111763	 0.0615798214	 0.0866073954	-0.154556
C	 0.4502117676	-0.6024722061	-1.2083607575	 0.10344
C	 0.9700927532	 0.2748022587	-2.3398419803	-0.296401
C	 1.7421912376	-0.5316842798	-3.3679986752	 0.154463
O	 1.4920553102	-0.5431899314	-4.5453237934	-0.234024
O	 1.5514730643	-1.1878771742	-0.4313124615	-0.274198
C	 1.1181117809	-0.5721391468	 0.7283358422	 0.439433
N	 1.6090360319	-0.5620700102	 1.880271151	-0.541231
H	 0.6543410209	 2.1007884244	-0.1130931142	 0.127263
H	-1.0880670476	 1.9341619461	-0.4056702822	 0.125041
H	-0.4430532367	 1.841151821	 1.2416759638	 0.147719
H	-1.0209507001	-0.4296261532	 0.4203552308	 0.11582
H	-0.1826229331	-1.4046115398	-1.6004028582	 0.105859
H	 0.142768756	 0.7835933679	-2.8433811448	 0.130174
H	 1.6498949872	 1.0304490934	-1.9259446313	 0.129103
H	 2.5799170873	-1.1286388719	-2.9474485196	 0.100538
H	 2.4664054717	-1.1147510446	 1.9310240781	 0.230684
52.4429	66.0642	91.6257	160.9922	203.5956	222.3681	266.618	390.2434	414.8358	495.7307	530.9842	642.5554	735.6013	787.7331	842.1889	845.9377	868.7018	901.9707	1005.5033	1025.4408	1032.4737	1075.8047	1076.9078	1141.6641	1154.3837	1215.2259	1234.8575	1239.6347	1280.6886	1338.4317	1361.2167	1391.8713	1414.0204	1424.2999	1449.4457	1494.4799	1500.71	1827.571	1834.0937	2907.0722	3034.2431	3047.6243	3059.5895	3073.7262	3106.372	3118.9306	3125.9019	3478.6375
CC1C(CC=O)OC1=N	C[C@H]1[C@@H](CC=O)O[C]1[NH]	
InChI=1S/C6H9NO2/c1-4-5(2-3-8)9-6(4)7/h3-5,7H,2H2,1H3	InChI=1S/C6H9NO2/c1-4-5(2-3-8)9-6(4)7/h3-5,7H,2H2,1H3/t4-,5+/m0/s1
