13
gdb 21262	5.61418	1.65878	1.29087	3.9531	62.53	-0.24	-0.0585	0.1815	881.6608	0.097121	-394.790538	-394.783906	-394.782962	-394.821568	23.602	
C	-0.0281452652	 1.4160702682	 0.031369389	-0.243182
O	 0.0150682355	-0.016366687	-0.0259408922	-0.252734
C	 0.6162901752	-0.5653892984	-1.0781097472	 0.441123
C	 0.6679227114	-1.9756047938	-1.1507831666	-0.051539
N	 1.2473040103	-2.5836014936	-2.163759644	-0.164762
N	 1.7972712029	-1.8424215773	-3.1424548735	-0.204334
C	 1.7201100372	-0.5263135813	-3.0236748024	 0.106708
N	 1.1506477066	 0.1742349555	-2.0292864788	-0.341838
H	 0.9817854322	 1.8332518711	 0.0472451549	 0.147312
H	-0.5642916052	 1.8217058971	-0.8301776036	 0.147309
H	-0.5546348934	 1.6510515519	 0.9559836785	 0.142101
H	 0.231274909	-2.5939629635	-0.3733638852	 0.136893
H	 2.1722705436	 0.0482113511	-3.8276352291	 0.136945
117.9159	155.9642	223.5254	240.864	395.7288	450.4849	572.345	625.3671	680.7126	816.3346	875.0749	935.0455	998.507	1006.3626	1045.6938	1060.2526	1175.924	1192.1031	1220.5897	1293.3917	1335.881	1387.2953	1457.9786	1480.9981	1493.9674	1496.8251	1582.9668	1600.1681	3052.7837	3128.9823	3164.1737	3177.4586	3189.6291
COC1=CN=NC=N1	COc1cnncn1	
InChI=1S/C4H5N3O/c1-8-4-2-6-7-3-5-4/h2-3H,1H3	InChI=1S/C4H5N3O/c1-8-4-2-6-7-3-5-4/h2-3H,1H3
