20
gdb 107212	3.91078	1.26023	1.13215	2.3614	77.99	-0.2264	0.0802	0.3067	1143.2384	0.171493	-403.093219	-403.085168	-403.084224	-403.125604	31.807	
C	 0.0414224626	 1.3101797733	 0.3587696901	-0.253143
O	-0.0623848297	 0.0339124196	-0.2447410667	-0.279362
C	-1.3264284888	-0.5360650737	-0.1420304575	 0.443751
C	-1.7563194059	-1.1451086242	 1.1691663403	-0.363285
C	-1.4716694247	-2.0266047639	-0.0416375946	-0.084494
N	-2.5154365594	-2.5134313767	-0.9385421569	-0.101888
C	-3.9018898393	-2.1498238308	-0.6191217029	-0.248513
C	-3.1275310113	-1.3239772786	-1.5791259387	-0.011557
C	-2.4170671161	-0.0527188839	-1.1126912319	-0.330805
H	 1.0830041631	 1.6250651538	 0.2614228819	 0.127329
H	-0.5996049189	 2.0528813983	-0.1377924589	 0.10865
H	-0.2266539872	 1.2772004338	 1.4243268012	 0.108572
H	-0.9977702151	-1.1896921877	 1.9441079987	 0.117981
H	-2.7629435498	-0.9967228899	 1.5421526896	 0.112951
H	-0.5974376914	-2.6651096822	 0.0071425408	 0.107621
H	-4.6443815024	-2.8511955522	-0.9906887023	 0.115097
H	-4.1362918011	-1.7418412906	 0.3592125892	 0.111311
H	-3.3409387822	-1.4129291601	-2.6410812016	 0.093475
H	-3.1037785116	 0.6770833338	-0.67094239	 0.107063
H	-1.9205416608	 0.4292716819	-1.9601173798	 0.119244
100.3107	148.6291	183.9544	249.8395	283.6478	375.8554	400.8112	439.011	513.6343	624.0584	668.9541	717.2521	761.8635	811.3663	865.8689	883.9541	903.3936	930.7654	979.9923	995.4994	1029.2199	1051.339	1072.5717	1085.9178	1109.8255	1114.5983	1127.3973	1161.0292	1181.8244	1196.9151	1209.7704	1251.6779	1274.3397	1283.7786	1300.2336	1373.645	1387.8257	1467.1236	1481.013	1486.9247	1493.4955	1507.4467	1522.1677	2988.6386	3039.8154	3047.0902	3092.472	3112.5309	3118.152	3135.5133	3138.491	3180.9238	3192.8161	3221.4577
COC12CC1N1CC1C2	CO[C@]12C[C@H]1N1C[C@H]1C2	
InChI=1S/C7H11NO/c1-9-7-2-5-4-8(5)6(7)3-7/h5-6H,2-4H2,1H3	InChI=1S/C7H11NO/c1-9-7-2-5-4-8(5)6(7)3-7/h5-6H,2-4H2,1H3/t5-,6-,7-,8?/m1/s1
