16
gdb 46111	4.26478	0.9311	0.87289	3.1323	68.56	-0.28	-0.0029	0.2772	1296.5644	0.125367	-437.948567	-437.940496	-437.939552	-437.982106	29.127	
O	-0.0299689956	 0.5976433693	 1.1600059149	-0.325511
C	-0.0913506157	 1.4907811483	 0.3696532038	 0.434453
C	-1.2935400345	 1.954956066	-0.4519512776	-0.38685
C	-0.8883243536	 3.3513078372	-0.9396674165	-0.026814
C	-1.3601676759	 4.4446390366	 0.0470214031	-0.351919
C	-0.9544719687	 5.7843489037	-0.3718165436	 0.259501
N	-0.6172427259	 6.8304321604	-0.7284798665	-0.29833
C	 0.647404853	 3.2179305518	-0.9689203696	-0.094104
O	 0.9784638046	 2.2799931974	 0.0668196207	-0.216076
H	-1.4237801265	 1.2587795209	-1.2873783341	 0.147784
H	-2.2027616043	 1.9189771477	 0.1507166212	 0.142724
H	-1.2767910328	 3.5811535936	-1.9337112892	 0.112023
H	-2.4515959831	 4.4200848439	 0.1362693089	 0.159884
H	-0.9549480075	 4.2522858835	 1.0479322928	 0.169587
H	 0.9969706044	 2.8243214892	-1.9299063731	 0.125868
H	 1.1734306021	 4.1519650406	-0.760828855	 0.147779
62.0517	89.0227	149.7144	177.5409	326.2255	352.5868	395.9386	483.7389	544.9583	556.3254	690.3084	718.6188	827.3694	847.0328	895.3251	930.6488	959.381	1003.4332	1034.9049	1077.0237	1109.1671	1167.9033	1191.1696	1221.8248	1232.3577	1273.5292	1305.6705	1341.7561	1382.4818	1400.6755	1461.8984	1466.9405	1523.6188	1892.124	2363.245	3042.3092	3046.0902	3062.9556	3081.6154	3098.919	3116.5908	3124.864
O=C1CC(CC#N)CO1	O=C1C[C@@H](CC#N)CO1	
InChI=1S/C6H7NO2/c7-2-1-5-3-6(8)9-4-5/h5H,1,3-4H2	InChI=1S/C6H7NO2/c7-2-1-5-3-6(8)9-4-5/h5H,1,3-4H2/t5-/m1/s1
