17
gdb 7567	3.03423	1.86535	1.60077	2.5131	63.84	-0.232	0.0328	0.2648	882.0302	0.141542	-401.024646	-401.016243	-401.015299	-401.057756	30.709	
C	-0.2765258817	 1.692013873	-0.2866504003	-0.437004
C	-0.028312069	 0.2085409499	-0.0767457938	 0.337432
C	 0.8471512016	-0.5231910413	-1.128324867	-0.31411
C	 1.783475953	-0.8223058446	 0.0558675922	-0.074203
O	 0.9644647302	-0.044183113	 0.9619802843	-0.332353
C	-1.3551778644	-0.5137100149	 0.2020730192	 0.339351
N	-1.3904565758	-1.1601197737	 1.3927275669	-0.521107
O	-2.2658568107	-0.4893602111	-0.6055678943	-0.384148
H	 0.6504632661	 2.1989589035	-0.5679510395	 0.114137
H	-1.0225313514	 1.8265278505	-1.0736916434	 0.149643
H	-0.6558211439	 2.1489951553	 0.6330979092	 0.127004
H	 0.3812158612	-1.3804417911	-1.613909431	 0.129706
H	 1.2644090769	 0.1398201567	-1.8878455644	 0.115118
H	 1.8346321859	-1.8748574029	 0.3588899181	 0.1067
H	 2.7999567554	-0.4206886326	-0.0108450534	 0.1112
H	-0.5978432933	-1.0914494355	 2.0096545332	 0.272028
H	-2.2365665802	-1.623489868	 1.677957184	 0.260606
52.6222	86.7455	210.9408	243.0243	264.8561	311.4869	328.6589	370.3874	491.1836	507.4529	652.7321	662.562	770.6297	783.7619	843.6469	882.0665	919.6069	980.0059	1001.6468	1014.6792	1090.8497	1140.3209	1163.9626	1203.0498	1206.9305	1234.5401	1261.7898	1351.4546	1373.6306	1396.0941	1481.9172	1488.75	1496.9647	1529.2274	1583.4005	1795.5282	3026.3827	3041.8778	3072.0713	3087.874	3113.3171	3136.1169	3146.3933	3592.545	3736.1192
CC1(CCO1)C(N)=O	C[C@]1(CCO1)C(=O)N	
InChI=1S/C5H9NO2/c1-5(4(6)7)2-3-8-5/h2-3H2,1H3,(H2,6,7)	InChI=1S/C5H9NO2/c1-5(4(6)7)2-3-8-5/h2-3H2,1H3,(H2,6,7)/t5-/m0/s1
