18
gdb 111473	2.69599	1.56807	1.11039	4.4445	71.56	-0.2287	0.0072	0.2359	1106.092	0.148663	-439.095469	-439.087383	-439.086439	-439.12832	30.66	
C	-0.1942223418	 1.367320195	 0.0746582404	-0.326709
N	 0.0053419719	-0.0796374127	 0.007319058	-0.285293
C	 0.7411156203	-0.5282231091	-1.1728847683	-0.143153
C	 1.2391009163	-1.954524943	-1.0780003306	-0.102473
C	 0.1919992434	-3.0345041943	-0.84735407	-0.315014
C	 0.6201536241	-2.6820782157	-2.237343817	 0.089323
O	-0.2225267208	-1.8010466301	-2.9554532457	-0.215674
C	-0.2075130342	-0.5552297179	-2.3966270721	 0.455933
O	-0.8715380916	 0.3402026827	-2.8282580404	-0.330834
H	 0.7474122823	 1.9442308037	 0.0434133311	 0.091601
H	-0.8115748511	 1.6864276503	-0.7667011515	 0.163508
H	-0.7185156795	 1.6117152585	 1.0025581644	 0.116978
H	 0.5092123242	-0.3945107242	 0.829083374	 0.223429
H	 1.5810623668	 0.1442620466	-1.4281676034	 0.086609
H	 2.2653133242	-2.1369688892	-0.784677255	 0.103015
H	 0.5400389911	-3.9781074828	-0.4423248491	 0.123605
H	-0.7960232191	-2.7255431345	-0.5255116116	 0.147524
H	 1.1472653137	-3.3697767233	-2.885405773	 0.117624
79.1767	130.7597	186.3571	206.6048	268.6962	343.035	417.3012	459.828	501.2386	653.5092	694.3428	711.1609	754.6454	810.2941	825.7491	873.9263	961.078	965.3392	1016.6717	1038.4617	1061.8153	1068.406	1097.6997	1142.3858	1145.0978	1161.7851	1170.2162	1200.9927	1211.14	1305.2515	1332.4634	1364.5627	1390.6974	1455.6181	1473.2751	1481.277	1497.3325	1523.923	1880.394	2925.9393	2947.1122	3085.0599	3141.3638	3142.0557	3186.4102	3203.4001	3235.3873	3526.2842
CNC1C2CC2OC1=O	CN[C@H]1[C@H]2C[C@H]2OC1=O	
InChI=1S/C6H9NO2/c1-7-5-3-2-4(3)9-6(5)8/h3-5,7H,2H2,1H3	InChI=1S/C6H9NO2/c1-7-5-3-2-4(3)9-6(5)8/h3-5,7H,2H2,1H3/t3-,4+,5-/m0/s1
