23
gdb 117537	2.40458	0.90759	0.77619	1.2353	88.06	-0.2576	0.0444	0.3021	1628.9857	0.202379	-388.269278	-388.257978	-388.257034	-388.305791	41.266	
C	-0.0899806055	 1.6019487095	 0.0362539461	-0.379783
C	 0.0133022296	 0.0755292578	-0.025757204	-0.179829
C	 0.7075427381	-0.5183010042	 1.2025879217	-0.168506
C	 0.8181549777	-2.0599781204	 1.1911944269	-0.17291
C	 1.5722897869	-2.5402298102	 0.0327013112	 0.321703
C	 2.2522246474	-2.9300485195	-0.8812805817	-0.477375
C	 1.4850723977	-2.5843850159	 2.4979355496	 0.128481
C	 1.3798298341	-4.101762925	 2.6497754976	-0.411457
O	 2.8288236415	-2.1391454438	 2.5958449972	-0.433722
H	 0.9019907244	 2.0624040004	 0.1016798943	 0.116386
H	-0.585735409	 2.0037051085	-0.8528947736	 0.111314
H	-0.6623226555	 1.9275903695	 0.9121854683	 0.112516
H	-0.9921642929	-0.356689259	-0.120796352	 0.090356
H	 0.5592728743	-0.221810907	-0.928439028	 0.110155
H	 1.7155453113	-0.1034341933	 1.3088548286	 0.115588
H	 0.1559870173	-0.2327733157	 2.1079457387	 0.091905
H	-0.1963286446	-2.4807963399	 1.1444646815	 0.099494
H	 2.8195069844	-3.2756134603	-1.7101652339	 0.199301
H	 0.967830655	-2.1025816524	 3.3359530064	 0.086371
H	 1.8560724157	-4.610475828	 1.8049564236	 0.123251
H	 1.8792994829	-4.4163917586	 3.5697166419	 0.123826
H	 0.3339071651	-4.4241274238	 2.6934238026	 0.111072
H	 3.2929689439	-2.4752572286	 1.8182289069	 0.281862
72.544	83.2054	97.479	123.717	152.7035	217.2082	236.1639	248.0109	292.3825	301.8333	378.6573	389.7914	409.1806	482.7469	583.4072	629.4794	648.6649	665.0642	746.5238	808.2928	855.51	902.4839	923.7937	960.834	1009.8376	1045.2273	1067.4391	1083.7798	1116.4112	1138.5836	1164.8499	1241.8307	1252.4168	1292.6305	1326.7248	1333.613	1347.711	1369.7121	1394.3323	1404.9384	1414.036	1430.0869	1485.1151	1490.8691	1495.2866	1496.4488	1500.0755	1511.703	2219.7765	3007.529	3016.2599	3021.6383	3029.8748	3034.9414	3043.6024	3059.1105	3083.2795	3098.6716	3102.2854	3104.6274	3121.4898	3501.1284	3766.3666
CCCC(C#C)C(C)O	CCC[C@@H](C#C)[C@@H](C)O	
InChI=1S/C8H14O/c1-4-6-8(5-2)7(3)9/h2,7-9H,4,6H2,1,3H3	InChI=1S/C8H14O/c1-4-6-8(5-2)7(3)9/h2,7-9H,4,6H2,1,3H3/t7-,8-/m1/s1
