20
gdb 102757	2.31681	1.09883	0.7887	2.3273	77.2	-0.2363	-0.0326	0.2037	1459.2364	0.167766	-440.241251	-440.231124	-440.23018	-440.277745	35.094	
C	-0.37759654	 1.0684734223	 0.6118352881	-0.244012
O	-0.1514348014	-0.2953564601	 0.3191377873	-0.241244
C	 0.48529592	-0.5157476766	-0.9229751398	 0.024001
C	 1.2500028486	-1.8412479865	-0.8702180048	-0.163379
N	 2.4172317322	-1.7281371392	-0.0102802182	-0.069661
C	 2.2208350258	-2.0475319142	 1.4011330975	-0.209438
C	 2.9548605261	-2.9838029171	 0.5084314832	-0.228796
C	-0.5477071953	-0.5480516268	-2.0499698868	 0.13449
O	-0.2778913243	-0.7325355063	-3.2077996509	-0.24421
H	 0.5675208265	 1.6282638564	 0.6689123861	 0.119052
H	-1.0214776589	 1.5549738412	-0.1364755901	 0.109186
H	-0.8773949573	 1.1113776903	 1.5821463392	 0.132959
H	 1.2138225181	 0.2810309129	-1.1405986753	 0.10783
H	 0.5558753014	-2.6385101378	-0.5479237662	 0.091325
H	 1.5805520935	-2.0725984258	-1.8876980366	 0.129142
H	 2.7601303738	-1.4183835647	 2.1032726684	 0.114663
H	 1.2219384702	-2.3337017251	 1.7203879895	 0.120831
H	 2.4498753157	-3.9079750468	 0.2316561615	 0.110747
H	 4.0383122648	-3.0518447326	 0.5424316863	 0.11811
H	-1.5966897595	-0.4131201434	-1.6983774883	 0.088403
44.1104	68.2862	86.577	108.8228	178.0842	187.2072	238.1001	276.5464	337.0434	390.5419	444.6422	540.481	566.1176	762.6218	831.4147	866.4736	887.6948	909.2809	1021.2382	1033.4585	1064.1478	1081.9739	1102.7906	1116.7803	1117.829	1155.5728	1172.714	1181.2491	1189.7502	1229.8075	1262.08	1297.59	1325.1631	1351.7439	1384.4866	1405.0566	1480.473	1483.9724	1490.2535	1493.9707	1507.5383	1523.5796	1832.5147	2871.0039	2942.4997	2980.0318	2993.7208	3031.7881	3084.1333	3096.2372	3110.9499	3121.103	3181.0291	3198.6609
COC(CN1CC1)C=O	CO[C@@H](CN1CC1)C=O	
InChI=1S/C6H11NO2/c1-9-6(5-8)4-7-2-3-7/h5-6H,2-4H2,1H3	InChI=1S/C6H11NO2/c1-9-6(5-8)4-7-2-3-7/h5-6H,2-4H2,1H3/t6-/m0/s1
