19
gdb 102136	2.95178	0.80939	0.68404	5.4364	85.44	-0.2377	0.0285	0.2662	1665.5636	0.157472	-382.049551	-382.038654	-382.03771	-382.087336	36.842	
C	-0.0370463877	 1.494732747	 0.2068586308	-0.326982
N	-0.0743242754	 0.0521087162	-0.0183282417	-0.257863
C	 0.6779499558	-0.4443560292	-1.1724587826	-0.198289
C	-0.0517605022	-0.086782884	-2.4966040476	-0.331132
C	-1.4086702175	-0.6247440017	-2.5535733397	 0.271768
N	-2.4757867997	-1.0615986833	-2.6244983256	-0.310198
C	 2.0788211445	 0.0026126988	-1.2457648527	 0.079334
C	 3.219333515	 0.3904349	-1.2814570144	 0.080497
C	 4.6027498002	 0.8425992446	-1.3261102957	-0.500121
H	 0.9787668565	 1.9160950154	 0.2587496785	 0.110628
H	-0.5820946773	 2.016161933	-0.5867105877	 0.126905
H	-0.5543147226	 1.7107954129	 1.1451154819	 0.127298
H	 0.2575215074	-0.4269755154	 0.8105413806	 0.229829
H	 0.6661609391	-1.5378757951	-1.0915415226	 0.123868
H	-0.0882505601	 0.9995902656	-2.6218363783	 0.15617
H	 0.5245734109	-0.4807592375	-3.3391399866	 0.15927
H	 5.182207245	 0.2698831425	-2.0583397426	 0.153724
H	 4.6675753454	 1.8999551749	-1.6046247587	 0.152276
H	 5.0901234727	 0.7246772052	-0.3522425954	 0.153019
33.6372	51.4398	79.9402	82.5698	136.5739	182.5047	233.4435	276.3706	298.3364	341.6124	396.5667	400.3461	472.8228	537.7387	597.6282	725.8394	821.1596	849.4333	955.7356	975.5501	1024.9725	1052.8592	1053.7974	1135.9425	1151.2896	1155.6678	1182.5691	1239.413	1289.5695	1352.7027	1371.1307	1414.3283	1452.5326	1468.6239	1477.1472	1477.9401	1487.9456	1497.3927	1522.5278	2358.953	2366.001	2986.436	3029.9137	3036.0403	3065.4189	3073.9047	3092.1877	3092.389	3105.5804	3114.5065	3543.3902
CNC(CC#N)C#CC	CN[C@@H](CC#N)C#CC	
InChI=1S/C7H10N2/c1-3-4-7(9-2)5-6-8/h7,9H,5H2,1-2H3	InChI=1S/C7H10N2/c1-3-4-7(9-2)5-6-8/h7,9H,5H2,1-2H3/t7-/m1/s1
