17
gdb 30621	4.45885	1.00341	0.83002	5.2017	78.11	-0.2182	0.0047	0.223	1354.6523	0.137619	-418.078206	-418.069392	-418.068448	-418.112801	31.562	
C	 0.1030374293	 1.4505268084	 0.092812928	-0.330944
N	 0.1304661036	 0.0044584306	 0.0091970843	-0.331692
C	 0.5520421472	-0.6459251399	-1.1253481328	 0.323652
O	 0.8618380641	-0.0494888104	-2.1457165671	-0.390849
C	 0.5933729091	-2.1226467747	-1.0363770504	 0.183582
C	-0.0016369763	-2.9618133254	-0.1109329367	-0.194455
N	 0.3038790066	-4.2469921119	-0.4575267657	-0.241416
C	 1.0828315526	-4.2546584963	-1.5925897911	-0.070844
C	 1.2736745788	-2.9532131177	-1.9760229342	-0.223142
H	 0.9571049141	 1.8509757895	 0.6544014968	 0.119108
H	 0.1501662582	 1.8360856093	-0.9260445922	 0.169178
H	-0.8204712183	 1.7946964995	 0.5700963712	 0.117683
H	 0.0972813274	-0.5215721137	 0.8661045157	 0.237623
H	-0.6433174899	-2.7561952906	 0.7311651374	 0.121281
H	-0.0136510935	-5.0659752868	 0.0311389262	 0.264975
H	 1.4283398995	-5.1820171558	-2.0198243044	 0.125882
H	 1.8322380973	-2.5955830442	-2.8254664751	 0.120379
49.0733	67.0758	108.2804	152.1723	224.5034	311.7391	382.958	459.6806	497.1547	502.2893	635.0973	642.7597	694.231	752.9683	800.4967	802.638	873.8164	905.0004	944.0566	1028.7852	1081.5526	1098.2495	1150.6742	1162.8814	1167.3202	1207.4121	1269.9139	1336.6969	1409.9669	1436.8067	1458.4206	1488.5229	1500.7787	1523.4509	1557.957	1590.274	1756.5234	3015.9319	3073.1863	3154.4894	3255.8066	3262.406	3282.1556	3651.4327	3679.9525
CNC(=O)C1=CNC=C1	CNC(=O)c1c[nH]cc1	
InChI=1S/C6H8N2O/c1-7-6(9)5-2-3-8-4-5/h2-4,8H,1H3,(H,7,9)	InChI=1S/C6H8N2O/c1-7-6(9)5-2-3-8-4-5/h2-4,8H,1H3,(H,7,9)
