13
gdb 130930	4.72621	0.9964	0.89005	2.028	67.27	-0.2655	-0.1027	0.1628	1225.0391	0.088292	-448.905961	-448.898306	-448.897361	-448.93963	26.153	
O	-0.3236848748	 0.0651178334	 0.1514638756	-0.216214
C	-0.0456697942	 1.2223273761	 0.0057512923	 0.15511
C	 1.3743713926	 1.7118878042	-0.3046683161	-0.3586
C	 1.385828895	 2.8069774555	-1.326297757	 0.379135
N	 1.9748543957	 2.5954698397	-2.50307846	-0.249061
C	 1.9122559522	 3.6439462533	-3.3144387623	 0.115062
N	 1.3105027174	 4.8069730613	-3.0445601158	-0.166057
N	 0.7237706468	 4.9336022587	-1.866512449	-0.045931
N	 0.7603072415	 3.9501061816	-0.9902031467	-0.207749
H	-0.7957507395	 2.0340458408	 0.1068347673	 0.11715
H	 1.76423237	 2.1155351198	 0.6395761774	 0.1658
H	 1.9902830125	 0.8717663065	-0.6246825632	 0.154879
H	 2.3837226849	 3.5637301592	-4.2904160627	 0.156475
44.9628	75.7564	123.2312	222.1482	307.5417	363.9664	429.2893	528.9024	643.0539	704.5751	770.0568	855.6303	890.377	955.8604	999.3583	1019.1002	1037.2108	1048.9999	1159.6421	1181.0332	1256.7123	1292.821	1340.0452	1408.2921	1420.8783	1441.4753	1534.9369	1564.784	1843.9728	2924.9865	3036.0177	3150.2519	3180.0391
O=CCC1=NC=NN=N1	O=CCc1ncnnn1	
InChI=1S/C4H4N4O/c9-2-1-4-5-3-6-8-7-4/h2-3H,1H2	InChI=1S/C4H4N4O/c9-2-1-4-5-3-6-8-7-4/h2-3H,1H2
