20
gdb 9259	5.77545	0.77509	0.71506	1.3999	77.67	-0.2582	0.0575	0.3157	1562.7314	0.174095	-348.971922	-348.961775	-348.960831	-349.007323	36.027	
C	-0.0774299157	 1.5856231718	-0.1005544108	-0.394541
C	 0.0275189507	 0.0562262486	-0.0243308469	 0.039759
C	 0.7258529833	-0.4988411225	-1.2680609116	-0.085077
O	-0.0447129164	-0.152768206	-2.4100974007	-0.423583
C	 0.7500436221	-0.4382127612	 1.2390231822	-0.183651
C	 0.0104118685	-0.105497942	 2.5518498674	-0.367089
C	 0.6763974575	-0.6562455658	 3.7260227618	 0.293822
C	 1.2459636414	-1.1220850224	 4.6766943509	-0.435934
H	 0.9151313034	 2.0472460591	-0.0248998473	 0.107193
H	-0.5170098961	 1.8844877436	-1.0544755444	 0.136223
H	-0.6983837089	 1.9952524201	 0.7012705073	 0.111262
H	-0.989631227	-0.3614357262	-0.0275352116	 0.081679
H	 1.7446158224	-0.0808194466	-1.3343244662	 0.083116
H	 0.8246896575	-1.5924082552	-1.1777622152	 0.083626
H	 0.4340881691	-0.435095171	-3.1943063203	 0.287111
H	 0.8787532548	-1.5257387815	 1.1866174166	 0.105297
H	 1.7591310429	-0.009278826	 1.2837496316	 0.105839
H	-0.081551836	 0.9808141878	 2.6673178958	 0.134047
H	-1.0156664311	-0.493501085	 2.4988089607	 0.129047
H	 1.7390685175	-1.5282142995	 5.5245385806	 0.191854
57.536	77.2077	102.0182	126.3093	223.5318	231.867	242.5264	288.8733	342.9467	360.6943	416.0536	461.5851	565.7743	614.9064	634.6255	762.7676	844.9891	923.4529	939.8007	958.465	970.6863	1028.4571	1080.2787	1099.7052	1134.4991	1170.0866	1208.9071	1243.5033	1270.8074	1292.9632	1317.3907	1339.4957	1381.6468	1386.6414	1405.8757	1458.6296	1472.8197	1492.1478	1494.7548	1509.0986	1520.0107	2238.4151	2955.5064	2985.6311	3009.3939	3017.3783	3027.976	3031.857	3050.4567	3075.1114	3099.197	3129.8175	3508.218	3835.5325
CC(CO)CCC#C	C[C@@H](CO)CCC#C	
InChI=1S/C7H12O/c1-3-4-5-7(2)6-8/h1,7-8H,4-6H2,2H3	InChI=1S/C7H12O/c1-3-4-5-7(2)6-8/h1,7-8H,4-6H2,2H3/t7-/m1/s1
