16
gdb 73237	2.2942	1.93692	1.43228	3.032	63.82	-0.2566	-0.002	0.2546	941.4349	0.125757	-475.035384	-475.027834	-475.02689	-475.067435	28.677	
N	 0.0023790552	 1.4672358044	 0.0346999723	-0.591086
C	-0.0407241072	 0.0352436977	-0.0326508383	 0.09738
C	 0.2029760187	-0.7638012149	-1.3461273123	-0.126078
O	-0.9601625774	-1.5779325534	-1.0940179809	-0.291339
C	-1.3655978019	-0.7585831658	 0.02262387	 0.079328
C	-1.3301671633	-1.5208449637	 1.3398714448	-0.10747
O	 0.0413618093	-1.4892983298	 1.7870856326	-0.223892
C	 0.7620724691	-0.5524048626	 1.1319706443	 0.447304
O	 1.8770772274	-0.2430573559	 1.443003292	-0.356675
H	 0.9354623784	 1.7632578361	 0.3078843087	 0.25193
H	-0.2178906133	 1.8910877617	-0.859869914	 0.235131
H	 0.0831791542	-0.1421795383	-2.2449014646	 0.100386
H	 1.1228134654	-1.352421855	-1.4298413058	 0.125982
H	-2.3051694858	-0.2294016917	-0.1604650678	 0.092737
H	-1.952826199	-1.0493451549	 2.1073915802	 0.126256
H	-1.6238076898	-2.565112074	 1.2144670388	 0.140106
94.6679	176.3297	222.2598	261.9843	300.1727	332.6797	404.9083	511.1262	598.523	659.3019	741.9961	756.498	799.4068	835.4601	865.6502	915.3131	992.2142	1016.261	1045.7399	1063.4487	1068.2219	1085.9137	1150.419	1167.4254	1202.043	1246.8919	1285.5209	1330.5934	1356.4792	1364.0128	1405.9894	1497.539	1521.2098	1649.7019	1872.8888	2999.6016	3051.8935	3072.9517	3075.0922	3121.7645	3497.3715	3583.6886
NC12COC1COC2=O	N[C@]12CO[C@H]1COC2=O	
InChI=1S/C5H7NO3/c6-5-2-9-3(5)1-8-4(5)7/h3H,1-2,6H2	InChI=1S/C5H7NO3/c6-5-2-9-3(5)1-8-4(5)7/h3H,1-2,6H2/t3-,5+/m0/s1
