15
gdb 32064	3.75028	1.19578	0.9118	0.5078	73.07	-0.2452	-0.0624	0.1828	1202.4833	0.113329	-453.977537	-453.96965	-453.968705	-454.010402	28.971	
O	 0.1856847542	 1.3387380491	-0.0711469851	-0.418207
C	 0.0355629615	-0.0506959844	-0.0715244045	-0.127772
C	-1.4121542899	-0.4610729687	-0.0296749857	 0.403267
N	-2.3372066467	 0.4230951918	 0.0028329902	-0.356085
C	-3.6441550691	-0.0489722118	 0.0409972754	-0.011645
C	-3.9465990333	-1.3603459234	 0.0443848127	-0.145643
C	-2.8892125005	-2.347775263	 0.0070176318	 0.379224
N	-3.0506146475	-3.6011189388	 0.0066635827	-0.528022
O	-1.588352496	-1.7935269331	-0.0304349582	-0.248649
H	-0.7111733982	 1.7051812105	-0.0401497041	 0.298544
H	 0.4902457175	-0.5006221344	-0.9684268551	 0.128607
H	 0.5424607408	-0.5075977118	 0.793428501	 0.128476
H	-4.4129088749	 0.7154964946	 0.0682882497	 0.131597
H	-4.962856096	-1.7287347444	 0.0743013411	 0.136156
H	-2.1571299718	-4.0921513221	-0.0230736219	 0.230152
74.89	134.8254	167.9805	205.4236	330.2734	370.2527	389.9871	471.9971	532.8902	598.0747	644.4138	735.4173	778.2203	838.1551	860.7111	873.4351	973.2347	1003.8898	1033.5993	1034.8576	1117.4909	1137.2889	1204.0671	1244.8933	1260.006	1304.0011	1342.8959	1426.0335	1472.9467	1497.5092	1625.262	1676.8607	1763.8946	2983.8029	3000.0364	3195.0878	3237.9403	3497.7742	3705.3809
OCC1=NC=CC(=N)O1	OCC1=NCC=C([NH])O1	
InChI=1S/C5H6N2O2/c6-4-1-2-7-5(3-8)9-4/h1-2,6,8H,3H2	InChI=1S/C5H7N2O2/c6-4-1-2-7-5(3-8)9-4/h1,6,8H,2-3H2
