16
gdb 52297	3.40458	1.03945	0.83509	7.0092	66.93	-0.2641	0.0121	0.2762	1310.9039	0.123618	-475.057939	-475.049121	-475.048177	-475.092815	30.369	
O	 0.4313700343	 0.1557411655	 0.5545056545	-0.271405
C	 0.5243303049	 1.342435151	 0.6122190108	 0.187262
O	 0.7281761394	 2.1009268067	-0.4921575098	-0.183727
C	 0.8438978542	 3.513843869	-0.3242439674	-0.110863
C	 2.3062808722	 3.924951145	-0.2191375662	-0.148615
C	 2.6100211964	 5.4397894323	-0.012834439	-0.187981
N	 3.2428736544	 5.0709956664	 1.2567604002	-0.317575
C	 2.9579840765	 3.7308652473	 1.1783531805	 0.424999
O	 3.1194230753	 2.8081524239	 1.9314092507	-0.356342
H	 0.444441879	 1.9403143901	 1.537353669	 0.09083
H	 0.3785647792	 3.9607791073	-1.2074547497	 0.130976
H	 0.2807375656	 3.8441338426	 0.5590238412	 0.11713
H	 2.8803840758	 3.4638600547	-1.025712266	 0.125553
H	 3.2882216671	 5.8865128532	-0.7452175526	 0.124983
H	 1.7232608734	 6.0739943175	 0.098837155	 0.117291
H	 3.6301030123	 5.6286542975	 2.0036783487	 0.257483
50.9155	71.5782	107.1895	165.0262	180.0538	251.8461	352.8757	385.8772	458.5793	490.3847	664.5778	713.9867	766.5646	818.714	891.8793	990.0752	1018.5396	1027.8291	1040.3713	1075.2718	1127.2607	1148.7206	1170.0898	1177.7442	1213.8189	1288.5006	1296.4492	1349.2656	1397.6377	1404.2184	1435.7235	1501.9874	1528.0768	1872.8028	1889.8841	2985.4172	3021.1682	3037.8867	3085.3392	3090.1754	3105.8862	3611.7819
O=COCC1CNC1=O	O=COC[C@H]1CNC1=O	
InChI=1S/C5H7NO3/c7-3-9-2-4-1-6-5(4)8/h3-4H,1-2H2,(H,6,8)	InChI=1S/C5H7NO3/c7-3-9-2-4-1-6-5(4)8/h3-4H,1-2H2,(H,6,8)/t4-/m1/s1
