18
gdb 98336	2.32748	1.20431	0.93311	3.2471	74.35	-0.243	0.0177	0.2608	1305.2311	0.146599	-435.275277	-435.265111	-435.264167	-435.311691	34.781	
C	-1.3905152037	 1.4545184671	-0.8003029584	-0.224528
O	-1.8149767716	 0.1000411605	-0.6373525263	-0.259155
C	-1.1089024111	-0.6375242139	 0.2454740034	 0.516196
N	-0.1471735486	-0.1301120565	 0.9052748294	-0.5976
N	-1.6249027936	-1.9295296918	 0.3196586455	-0.122534
C	-0.9120639348	-2.905039452	 1.1279916287	-0.355222
C	-2.4368901412	-2.4516168121	-0.7660102822	-0.313869
C	-1.6439472805	-3.028929134	-1.8713635334	 0.264331
N	-0.9990184364	-3.4872559342	-2.713455851	-0.304797
H	-2.0465063334	 1.873883533	-1.5642360788	 0.127245
H	-1.4888684665	 2.0057507784	 0.1379650277	 0.141253
H	-0.3471165797	 1.4954986117	-1.1212951192	 0.145249
H	 0.3219896527	-0.8041681086	 1.499125069	 0.221037
H	-1.5259933268	-3.8042556747	 1.2173795081	 0.13595
H	 0.0588404519	-3.1903275935	 0.699453462	 0.1431
H	-0.7535211655	-2.5108639347	 2.1351193281	 0.144976
H	-3.0972813948	-3.2335584366	-0.3758379034	 0.152137
H	-3.0636237062	-1.654113978	-1.1631766992	 0.186231
34.5661	60.2132	113.2096	133.341	171.3363	178.0846	248.1395	273.3141	354.0725	383.3838	415.4117	502.3035	535.8683	654.5434	740.396	763.8257	837.3504	899.2751	954.8762	982.3491	1071.8558	1107.7777	1150.0599	1183.5611	1195.0642	1218.2714	1285.0997	1316.1211	1373.2168	1413.8443	1451.7581	1461.8741	1475.4892	1485.1083	1497.797	1503.9481	1515.4346	1718.4392	2355.2627	3009.2144	3052.9985	3055.7051	3089.1089	3124.3887	3130.5945	3147.2767	3152.9486	3571.3947
COC(=N)N(C)CC#N	COC(=N)N(C)CC#N	
InChI=1S/C5H9N3O/c1-8(4-3-6)5(7)9-2/h7H,4H2,1-2H3	InChI=1S/C5H9N3O/c1-8(4-3-6)5(7)9-2/h7H,4H2,1-2H3
