17
gdb 91593	3.14988	1.12567	0.96092	3.628	68.65	-0.2502	-0.0269	0.2233	1228.7393	0.133617	-458.928921	-458.920285	-458.919341	-458.963153	31.481	
O	 0.2847588219	 1.3172931631	-0.0834886678	-0.42944
C	 0.2419287801	-0.0611041986	 0.1593801361	 0.081404
C	 0.1646440747	-0.5748010221	 1.6504699177	-0.289459
C	-1.1914726943	-1.1891875758	 1.3042663728	-0.047596
O	-2.0183147027	-0.1099539123	 0.827458727	-0.302064
C	-1.1181495818	-0.7507885625	-0.1006798433	 0.37628
C	-1.6854981441	-1.2715414222	-1.3839559855	-0.419053
C	-2.0156907086	-0.1533704817	-2.367647575	 0.159531
O	-2.9305186616	-0.1997738899	-3.1462527411	-0.238121
H	-0.5060017631	 1.6852682566	 0.3328117199	 0.290812
H	 1.0710423348	-0.512032051	-0.3916971269	 0.097755
H	 0.9403526268	-1.3081559121	 1.8832606984	 0.113588
H	 0.1440707381	 0.1998769499	 2.4206010399	 0.115068
H	-1.7019174403	-2.0398365885	 1.7402254084	 0.114111
H	-0.9370601223	-1.9139082834	-1.8709848144	 0.135825
H	-2.5835076653	-1.8727836963	-1.2181348754	 0.139319
H	-1.3281391723	 0.7196399568	-2.3259058408	 0.102041
50.4649	81.1141	124.9037	172.8708	278.0229	298.2341	383.6822	451.418	475.9823	513.176	617.2082	704.731	718.5424	769.1089	818.333	885.2029	918.216	936.7405	977.2313	1031.9898	1047.4685	1068.9087	1116.7722	1146.3635	1157.8062	1195.7003	1236.885	1241.6713	1283.6188	1297.8469	1312.903	1422.3633	1430.8839	1437.8374	1457.9599	1483.6748	1838.7213	2900.9353	3016.3767	3068.0984	3087.9034	3104.0065	3128.2416	3193.5648	3767.3784
OC1CC2OC12CC=O	O[C@H]1C[C@H]2O[C@@]12CC=O	
InChI=1S/C6H8O3/c7-2-1-6-4(8)3-5(6)9-6/h2,4-5,8H,1,3H2	InChI=1S/C6H8O3/c7-2-1-6-4(8)3-5(6)9-6/h2,4-5,8H,1,3H2/t4-,5+,6-/m0/s1
