16
gdb 55774	4.14476	1.06851	1.00758	3.4512	65.21	-0.2392	0.0464	0.2856	1188.8154	0.123366	-475.009511	-475.001157	-475.000212	-475.043351	30.799	
N	-0.1492778202	 1.297487974	-0.1694510708	-0.570259
C	 0.0632845212	-0.0455890229	-0.0951054643	 0.46962
O	 1.1285711227	-0.6039333225	-0.1832197265	-0.385262
O	-1.1338110702	-0.6881319694	 0.083330776	-0.299646
C	-1.0492759598	-2.078387961	 0.0487437494	 0.412367
C	-1.3021381967	-2.8917459247	-1.1926055647	-0.342027
C	-2.1589407519	-3.0843065063	 0.0368481367	-0.007274
O	-1.4980550618	-3.9216775419	 0.989047278	-0.286227
C	-0.424438222	-2.9434012751	 1.1320441692	-0.132427
H	 0.6607953246	 1.887825201	-0.0955337873	 0.27299
H	-1.042295996	 1.6713963005	 0.1017794251	 0.269267
H	-1.7834842819	-2.3300968093	-1.9876830389	 0.121627
H	-0.6118353874	-3.6679941107	-1.510801423	 0.123608
H	-3.2390257611	-3.0108720205	 0.07303388	 0.115454
H	 0.5655600543	-3.3628225487	 0.9359151049	 0.125655
H	-0.4571638638	-2.4789269925	 2.1234544962	 0.112533
40.3136	85.1028	142.705	278.5518	307.2099	352.5338	368.1963	431.9429	453.6577	519.1989	602.5086	732.086	762.4871	778.199	855.1398	916.2691	937.5552	970.4064	982.6135	1002.9992	1018.7914	1074.062	1079.2245	1106.5257	1118.5628	1152.3505	1231.5858	1279.2456	1306.3492	1355.7115	1407.5471	1483.3111	1515.3834	1611.5018	1846.5528	3044.5885	3109.5026	3117.1817	3191.52	3214.2227	3618.7341	3749.3128
NC(=O)OC12CC1OC2	NC(=O)O[C@]12C[C@H]1OC2	
InChI=1S/C5H7NO3/c6-4(7)9-5-1-3(5)8-2-5/h3H,1-2H2,(H2,6,7)	InChI=1S/C5H7NO3/c6-4(7)9-5-1-3(5)8-2-5/h3H,1-2H2,(H2,6,7)/t3-,5+/m1/s1
