21
gdb 55016	2.81714	1.04676	0.9303	2.5	84.96	-0.2389	-0.0095	0.2294	1385.1553	0.181229	-387.090309	-387.080817	-387.079873	-387.125335	35.18	
C	-0.2760731763	 1.4853350111	-0.04696111	-0.483783
C	 0.0912284073	 0.0169082034	 0.0689096834	 0.394898
O	 0.3928869223	-0.4809860201	 1.1358181676	-0.330162
C	 0.0531056482	-0.7660612597	-1.1994251526	-0.136208
C	 0.8622401574	-2.049324948	-1.2873107583	-0.303769
C	-0.6243656906	-2.1508348842	-1.2282201008	-0.007399
C	-1.3381480523	-2.715704926	-0.0435067865	 0.01913
C	-2.8469688611	-2.7593299633	-0.0244499046	-0.271501
C	-2.0583805306	-4.036249824	-0.1772644654	-0.27625
H	 0.4158286079	 1.9957019936	-0.7270937942	 0.137938
H	-1.2790849364	 1.592771519	-0.4756710046	 0.139335
H	-0.2403484521	 1.9572205157	 0.9354078988	 0.139073
H	-0.0548386593	-0.1776809183	-2.1045770593	 0.082997
H	 1.375021276	-2.2567997353	-2.2197736008	 0.11344
H	 1.4101633153	-2.3005071383	-0.3852261543	 0.138712
H	-1.122209669	-2.3520533163	-2.1745842669	 0.085843
H	-0.8500031541	-2.5230232343	 0.9041370815	 0.117984
H	-3.3541935867	-2.5722702394	 0.9155230774	 0.113681
H	-3.3773705152	-2.3874559457	-0.8955831232	 0.10537
H	-2.0602495084	-4.5181454521	-1.1498305882	 0.107662
H	-2.0209503224	-4.726732428	 0.657941591	 0.113008
51.0964	76.1008	132.1157	143.5581	186.7915	254.9427	280.059	359.0335	391.3186	473.2729	597.6912	636.6394	736.1077	759.2502	799.3878	828.854	843.9669	887.663	912.8038	945.9425	961.5955	992.4989	1021.3455	1049.7189	1059.7567	1076.0045	1081.1168	1116.3355	1131.4671	1152.1763	1187.688	1201.4503	1205.5484	1222.8465	1255.7413	1318.9039	1374.7771	1409.1575	1448.7247	1463.8386	1470.2566	1475.1754	1481.3425	1508.8048	1783.3515	3033.2124	3093.0731	3125.4738	3126.734	3132.0922	3134.0139	3152.6628	3162.5865	3190.1063	3205.1599	3221.5637	3227.5542
CC(=O)C1CC1C1CC1	CC(=O)[C@H]1C[C@H]1C1CC1	
InChI=1S/C8H12O/c1-5(9)7-4-8(7)6-2-3-6/h6-8H,2-4H2,1H3	InChI=1S/C8H12O/c1-5(9)7-4-8(7)6-2-3-6/h6-8H,2-4H2,1H3/t7-,8+/m1/s1
