21
gdb 78303	3.0443	1.44287	1.20988	1.543	82.21	-0.2457	0.0947	0.3404	1130.5932	0.182871	-387.058198	-387.050155	-387.049211	-387.090136	32.845	
C	-0.0499002336	 1.4698096458	 0.0108787651	-0.428008
C	 0.0080890486	-0.0421515454	 0.0338599206	-0.015395
C	 1.3247407446	-0.7204966461	-0.259525966	-0.06907
C	 0.7630217269	-0.7220037561	 1.1514075033	-0.106055
C	 0.5520256689	-2.2507193181	 1.3160796592	 0.396589
C	-0.188035635	-2.7777055478	 2.5125582167	-0.498193
C	 1.9081861486	-2.8166377917	 0.7918228604	-0.256465
C	 1.2808322582	-2.2450485793	-0.5048043522	 0.041219
O	-0.024208829	-2.6292292707	 0.0195380315	-0.31916
H	 0.8792856649	 1.9148676667	 0.3830935413	 0.110409
H	-0.2113600183	 1.841619108	-1.006909591	 0.118166
H	-0.8693939388	 1.8422849987	 0.6353264704	 0.11742
H	-0.8836666525	-0.546084902	-0.3223577167	 0.102427
H	 2.1962094666	-0.1464087969	-0.5525539132	 0.082615
H	 1.1939701113	-0.1484266343	 1.9643038955	 0.079445
H	-1.1951763699	-2.3507875419	 2.5563071153	 0.130903
H	-0.274082773	-3.8669124046	 2.4722241206	 0.125386
H	 0.3367298146	-2.5031872779	 3.4336576131	 0.120554
H	 2.8398523949	-2.381284976	 1.1639533651	 0.088518
H	 1.9339306181	-3.9084114178	 0.8019147314	 0.10095
H	 1.4895575038	-2.6357637928	-1.5006678104	 0.077746
180.2529	193.3573	211.6672	224.1396	276.9088	320.5133	414.6716	422.6699	475.9747	600.6216	651.6674	729.6189	787.0379	816.9699	827.0974	835.7411	875.4618	919.9182	926.8599	945.5101	974.1857	1012.8994	1026.0066	1061.3659	1072.508	1083.613	1105.6089	1141.0665	1153.3332	1192.2944	1203.2999	1211.6019	1236.2689	1256.922	1279.5114	1295.2252	1324.0658	1410.6733	1414.1623	1424.5022	1479.225	1485.3021	1492.4277	1495.4643	1500.4203	3026.124	3037.6084	3056.7615	3090.1755	3092.1581	3106.5445	3117.5462	3120.5757	3130.6805	3170.2371	3171.435	3182.5473
CC1C2C1C1(C)CC2O1	C[C@H]1[C@H]2[C@@H]1[C@]1(C)C[C@H]2O1	
InChI=1S/C8H12O/c1-4-6-5-3-8(2,9-5)7(4)6/h4-7H,3H2,1-2H3	InChI=1S/C8H12O/c1-4-6-5-3-8(2,9-5)7(4)6/h4-7H,3H2,1-2H3/t4-,5+,6+,7+,8-/m0/s1
