18
gdb 47703	2.10283	1.70979	1.05596	5.5074	73.15	-0.2407	-0.0256	0.2152	1132.554	0.149418	-439.148667	-439.140442	-439.139498	-439.181939	30.998	
O	-0.0115973009	-0.0928203618	 0.0364805928	-0.289615
C	-0.0228330558	 1.1143855935	 0.0233762716	 0.380581
C	-1.3235418022	 1.9073678148	 0.0117104794	-0.294849
C	-1.5253966178	 2.8288108307	 1.2292312192	-0.195981
C	-0.4028609956	 3.8548236252	 1.4453201009	-0.172842
N	 0.8249237682	 3.2921315538	 1.9897179956	-0.285959
C	 1.6939437607	 2.4257967867	 1.3858453898	 0.370492
O	 2.7275136808	 2.0771007728	 1.9181520428	-0.348786
C	 1.2816764279	 1.9152263329	-0.0022075603	-0.397023
H	-1.3315968955	 2.5221914011	-0.8995327134	 0.114428
H	-2.143707601	 1.18929598	-0.060283393	 0.126523
H	-2.4682385512	 3.370773118	 1.0924844263	 0.110482
H	-1.6304536612	 2.2275046541	 2.1390940316	 0.12207
H	-0.2005154088	 4.3909494297	 0.5064168128	 0.11444
H	-0.740731049	 4.6088671502	 2.1605633324	 0.121186
H	 1.1394712464	 3.6124161005	 2.8931003694	 0.252081
H	 2.0853740004	 1.2664250435	-0.3457830519	 0.151536
H	 1.1796134046	 2.7697072842	-0.681857536	 0.121235
66.7233	100.1044	149.4745	271.5036	296.3416	381.0589	442.2075	455.6173	488.9739	529.1138	581.0305	633.7087	664.9635	801.0004	816.5214	866.4812	879.717	955.1595	960.7711	1017.3551	1067.0998	1122.921	1142.2347	1204.3587	1216.3508	1253.4262	1262.6319	1306.5167	1337.745	1359.3551	1387.3393	1407.9502	1456.5588	1463.2446	1474.1717	1484.8816	1502.3463	1795.2726	1819.2398	2998.934	3015.6288	3036.5509	3044.9125	3082.8273	3094.5391	3109.3977	3158.6242	3623.8645
O=C1CCCNC(=O)C1	O=C1CCCNC(=O)C1	
InChI=1S/C6H9NO2/c8-5-2-1-3-7-6(9)4-5/h1-4H2,(H,7,9)	InChI=1S/C6H9NO2/c8-5-2-1-3-7-6(9)4-5/h1-4H2,(H,7,9)
