19
gdb 113159	3.27943	1.05134	0.93542	6.3804	71.9	-0.245	0.0204	0.2654	1297.6857	0.159605	-456.353885	-456.34434	-456.343396	-456.388424	34.837	
C	 0.8638792945	 1.0401272226	-0.3175012719	-0.484747
C	 0.2196468853	-0.2294984187	 0.188006232	 0.141577
N	 1.0171328684	-1.3540282916	 0.7251353921	-0.400828
C	 0.185291858	-0.5707511965	 1.6491913741	-0.017788
C	 0.8384426139	 0.3250577963	 2.7076029731	-0.209368
N	 2.3030192243	 0.2974423261	 2.6180882794	-0.509624
H	 1.9866987445	-1.0570501574	 0.8392411532	 0.248098
H	 2.6990327388	 1.1273527601	 3.0445951037	 0.241814
H	 2.6734234346	-0.4972097467	 3.1296969033	 0.240749
C	-0.9618374082	-0.7115099456	-0.6342311624	 0.416803
O	-1.7048277559	 0.0310527614	-1.220436855	-0.348794
O	-1.116244439	-2.0457139485	-0.6297727088	-0.38371
H	 1.2647087726	 0.8886235894	-1.3249164922	 0.132037
H	 0.1125531696	 1.8308452395	-0.3831597405	 0.148516
H	 1.6796886662	 1.3589511505	 0.3331227983	 0.131855
H	-0.3231906073	-2.3997992694	-0.1746509243	 0.312093
H	-0.6878324617	-1.1120103639	 2.0064184254	 0.106795
H	 0.5071040235	 1.3589597811	 2.5628561182	 0.128199
H	 0.4616379677	 0.0133338114	 3.6917295323	 0.106325
77.7336	95.1172	141.2373	166.0858	211.4947	244.6573	257.3545	295.9099	381.2138	399.1948	527.0002	591.6624	623.8724	717.0761	738.3664	809.8156	841.3316	857.5378	874.1003	909.1398	968.8441	1036.4988	1060.151	1063.519	1124.7833	1154.2505	1172.9422	1204.3204	1211.8704	1331.6682	1336.3754	1358.3153	1401.7037	1410.9872	1426.0608	1429.2056	1488.6183	1503.3343	1505.6483	1660.0197	1861.7481	3000.2936	3050.5937	3065.931	3115.0314	3131.348	3146.7537	3461.4157	3508.2299	3518.9439	3589.2848
CC1(NC1C[NH3+])C([O-])=O	C[C@]1(N[C@H]1CN)C(=O)O	
InChI=1S/C5H10N2O2/c1-5(4(8)9)3(2-6)7-5/h3,7H,2,6H2,1H3,(H,8,9)	InChI=1S/C5H10N2O2/c1-5(4(8)9)3(2-6)7-5/h3,7H,2,6H2,1H3,(H,8,9)/t3-,5+/m0/s1
