23
gdb 104542	2.42804	0.90357	0.76427	0.2793	94.26	-0.2411	0.0592	0.3003	1647.7283	0.203538	-351.1292	-351.118235	-351.117291	-351.166687	39.277	
C	-1.4163001264	-0.011535011	-0.1191647741	-0.383228
C	 0.1009839842	-0.1570474952	 0.0504800488	-0.250454
C	 0.8152997167	-0.7130744839	-1.1726412244	 0.405635
C	 0.7506299626	 0.1499552918	-2.4357157199	-0.443218
C	 1.3378534173	 1.478324715	-2.2694914573	 0.083374
C	 1.8215530609	 2.570624504	-2.1156571991	 0.057752
C	 2.408041494	 3.8924689593	-1.9427062074	-0.496817
C	 2.0798902839	-1.5032544168	-0.952796794	-0.30629
C	 0.8113452354	-2.2094423185	-1.3754238027	-0.317289
H	-1.6689954717	 0.717456378	-0.8956978554	 0.120547
H	-1.8778811974	-0.9663252245	-0.3934830627	 0.113803
H	-1.8804240198	 0.3306862022	 0.8110557938	 0.110274
H	 0.5370009377	 0.8172471731	 0.3028826148	 0.108402
H	 0.3060814384	-0.8182266201	 0.9011071022	 0.088283
H	 1.264465271	-0.3766752754	-3.2501437871	 0.117711
H	-0.2935981346	 0.250779659	-2.7606807419	 0.124167
H	 3.005697966	 4.1805941599	-2.8148613523	 0.145524
H	 1.6365134759	 4.6582241406	-1.8042735734	 0.144743
H	 3.0663752541	 3.9255139634	-1.0673731099	 0.145698
H	 2.8779675527	-1.4069930554	-1.6816420641	 0.110411
H	 2.4271837707	-1.6414717808	 0.0657894398	 0.107206
H	 0.297865437	-2.8206041503	-0.6402121348	 0.107959
H	 0.7543244614	-2.5968453545	-2.3876745189	 0.105807
33.3776	41.1925	84.8572	102.4199	199.257	212.362	235.9534	273.2832	325.5057	343.9875	369.62	388.0463	450.2224	524.3834	709.2208	764.6489	780.8527	795.904	877.546	916.0452	927.1417	945.6731	996.1356	1021.0739	1050.7169	1053.398	1054.791	1077.9111	1086.7238	1120.7193	1163.5694	1185.6081	1209.7895	1271.0742	1323.1577	1326.6413	1358.4314	1399.8614	1411.4397	1415.9524	1465.329	1472.4914	1479.6297	1480.2472	1484.378	1501.1805	1506.6324	1510.3643	2370.4034	3012.2358	3024.8091	3025.8967	3034.0808	3041.6154	3060.1857	3084.0834	3084.6025	3101.8553	3105.1123	3124.0243	3129.0601	3200.912	3215.4037
CCC1(CC#CC)CC1	CCC1(CC#CC)CC1	
InChI=1S/C9H14/c1-3-5-6-9(4-2)7-8-9/h4,6-8H2,1-2H3	InChI=1S/C9H14/c1-3-5-6-9(4-2)7-8-9/h4,6-8H2,1-2H3
