21
gdb 57781	3.47656	0.72909	0.64367	1.6788	90.48	-0.2371	0.0425	0.2796	1812.0539	0.179941	-387.054436	-387.043799	-387.042855	-387.092166	38.223	
C	 0.0398363066	 1.4765537991	 0.0464300206	-0.372849
C	-0.0110329643	-0.0622050593	-0.0441595321	-0.126881
C	-1.4638015841	-0.5771214661	-0.0080230599	-0.373541
C	 0.6960717252	-0.5374278017	-1.2353533535	 0.13963
C	 1.2853565694	-0.8773048653	-2.2340604688	-0.015984
C	 1.954357158	-1.3716572507	-3.4008151779	-0.2288
C	 3.3294516168	-2.0332270973	-3.2701938256	-0.312023
C	 2.1194373732	-2.8830528128	-3.5177801638	 0.146842
O	 1.622082917	-3.7057737608	-2.5149721	-0.428049
H	 1.0717562979	 1.8366177315	 0.0501663831	 0.125292
H	-0.4747590078	 1.9292223237	-0.8067587712	 0.12469
H	-0.4508439022	 1.8174726057	 0.9636068864	 0.113335
H	 0.5092804441	-0.4652508111	 0.8361823708	 0.105987
H	-2.029004025	-0.195566716	-0.8639407909	 0.125077
H	-1.4968515916	-1.6694837338	-0.041022395	 0.12022
H	-1.9614581263	-0.2443871833	 0.9084762859	 0.113453
H	 1.7613236973	-0.8290096415	-4.321244919	 0.11181
H	 4.0374396909	-1.8721816221	-4.0758453211	 0.116106
H	 3.7560295641	-2.0722327396	-2.2748614647	 0.128296
H	 1.990824978	-3.3120953633	-4.5081901025	 0.101941
H	 1.0882705027	-3.1560817853	-1.9245259208	 0.285448
9.3002	72.9423	94.87	148.711	181.7076	228.9132	241.382	269.2186	339.0682	362.2728	398.6025	494.0205	507.7215	531.2759	611.5189	698.3	777.4891	807.6786	864.0874	924.2457	930.8179	962.71	989.057	1029.9961	1050.4948	1104.243	1114.2972	1119.7809	1148.1159	1164.283	1208.4766	1232.6048	1322.951	1345.4804	1365.494	1373.7837	1395.1915	1415.7823	1418.4134	1472.8413	1485.5781	1488.7011	1498.368	1509.6048	2342.2998	3004.1611	3035.9214	3039.8162	3107.4351	3112.8037	3117.054	3121.8085	3136.6346	3139.9141	3151.9563	3235.6733	3729.2227
CC(C)C#CC1CC1O	CC(C)C#C[C@H]1C[C@H]1O	
InChI=1S/C8H12O/c1-6(2)3-4-7-5-8(7)9/h6-9H,5H2,1-2H3	InChI=1S/C8H12O/c1-6(2)3-4-7-5-8(7)9/h6-9H,5H2,1-2H3/t7-,8+/m0/s1
