14
gdb 32050	4.02973	1.26967	0.97141	4.021	69.02	-0.2522	-0.0582	0.194	1144.2903	0.102205	-470.041017	-470.033309	-470.032365	-470.073848	27.32	
C	-0.0417420089	 1.3602503949	 0.0613355526	-0.235506
O	 0.037478588	-0.0720807178	-0.0591316413	-0.224813
C	 0.6426334508	-0.5439368756	-1.1234614156	 0.544918
N	 1.1578967204	 0.2082937643	-2.044789769	-0.413083
C	 1.7401725909	-0.5073571068	-3.0637528375	 0.072087
N	 1.8170303918	-1.7919845175	-3.181605026	-0.302164
C	 1.2563117693	-2.5602521833	-2.1788352124	 0.435888
N	 1.2104533023	-3.8150501667	-2.0807051349	-0.513329
O	 0.6410861371	-1.8675930711	-1.101244324	-0.203795
H	 0.9594893448	 1.7935557143	 0.0934709491	 0.155704
H	-0.5908505415	 1.7814602556	-0.7826506786	 0.1557
H	-0.5716237519	 1.5348457454	 0.9965850299	 0.151028
H	 2.1814015576	 0.0975668621	-3.8532304437	 0.13542
H	 1.673448607	-4.2168155477	-2.8942787044	 0.241944
80.8597	131.775	141.5642	216.1366	230.4071	402.7226	427.9977	515.1661	568.5926	638.1798	751.141	794.6301	818.6115	871.2866	884.0042	973.6834	1006.8142	1020.4286	1103.7556	1180.2723	1195.7315	1228.4355	1302.2487	1404.4363	1424.3005	1481.017	1481.1347	1493.2598	1585.1915	1669.4459	1762.8091	3065.414	3149.1927	3162.5591	3176.0822	3523.4329
COC1=NC=NC(=N)O1	CO[C@H]1N=CN=C([NH])O1	
InChI=1S/C4H5N3O2/c1-8-4-7-2-6-3(5)9-4/h2,5H,1H3	InChI=1S/C4H6N3O2/c1-8-4-7-2-6-3(5)9-4/h2,4-5H,1H3/t4-/m1/s1
