18
gdb 26938	2.96782	1.2795	0.95601	3.4748	80.65	-0.1979	0.0402	0.2381	1230.9041	0.148163	-401.966767	-401.958208	-401.957263	-402.000659	31.591	
C	-0.3012547316	 1.5470657031	 0.2715990763	-0.509162
C	-0.0635771942	 0.0895569665	 0.0445909398	 0.20425
C	 0.1921395608	-0.6338641954	-1.1068675746	 0.23024
C	 0.3608384508	-2.0013961003	-0.7285024052	-0.254799
C	 0.2086177376	-2.073677323	 0.6315319514	-0.083562
N	-0.04400126	-0.803151548	 1.0904904673	-0.294727
C	 0.2850922506	-0.0995328193	-2.4782182419	-0.040017
C	 1.322092893	-0.5271616201	-3.4359090672	-0.184821
O	-0.0154754116	-1.0061888064	-3.5531274712	-0.238817
H	 0.5708401486	 2.0519117285	 0.7072207377	 0.131215
H	-0.5296321743	 2.0510888222	-0.6703225353	 0.14045
H	-1.1485229081	 1.7173731471	 0.9467433025	 0.124493
H	 0.53739266	-2.8256761838	-1.4012738602	 0.105389
H	 0.2421190253	-2.9124608368	 1.3078764443	 0.117434
H	-0.2039993714	-0.556926984	 2.0518619002	 0.255522
H	-0.1293076366	 0.8986807771	-2.6250993691	 0.0782
H	 1.650161542	 0.1513307393	-4.2237920002	 0.10811
H	 2.0581348392	-1.2643011368	-3.1177681346	 0.110601
55.921	84.8087	165.4241	169.4087	235.0083	286.1323	433.997	467.0894	472.8706	603.4702	635.848	684.0135	719.2026	723.4586	831.2888	837.0538	893.3701	928.7074	977.6322	998.1057	1057.4877	1076.281	1094.4735	1110.2221	1146.5693	1164.7363	1169.7066	1267.8677	1275.2962	1322.1651	1405.9389	1417.9937	1446.7162	1480.6573	1484.3648	1496.3183	1521.4972	1527.9562	1633.6115	3015.4419	3062.1263	3073.1557	3096.8021	3119.7848	3163.5547	3253.1272	3272.8895	3676.4625
CC1=C(C=CN1)C1CO1	Cc1c(cc[nH]1)[C@H]1CO1	
InChI=1S/C7H9NO/c1-5-6(2-3-8-5)7-4-9-7/h2-3,7-8H,4H2,1H3	InChI=1S/C7H9NO/c1-5-6(2-3-8-5)7-4-9-7/h2-3,7-8H,4H2,1H3/t7-/m1/s1
