18
gdb 127274	3.37964	1.18634	0.90954	1.4529	77.26	-0.1934	0.0272	0.2206	1280.2945	0.149724	-435.280402	-435.271568	-435.270624	-435.314258	32.501	
C	-0.2719028274	 1.4254763346	-0.0496502856	-0.319278
N	-0.1158119208	-0.0103177205	-0.0159022847	 0.055734
C	 0.1892269779	-0.832988315	-1.0629833517	-0.139522
C	 0.3388377369	-2.0960785822	-0.5270952613	 0.192586
O	 0.6301385326	-3.2455359793	-1.1809553521	-0.452058
C	 0.1111215736	-1.9332099438	 0.8615527942	 0.237731
C	 0.1117731618	-3.0283523741	 1.8819575875	-0.276852
N	 1.1121978744	-4.0479861923	 1.4934080603	-0.523208
H	 1.0152488546	-4.8770469454	 2.0704200192	 0.239329
H	 0.8450509744	-3.8868706861	-0.4739272973	 0.295655
H	 2.0489243006	-3.6863845157	 1.6494716866	 0.242908
N	-0.1495387248	-0.6587438465	 1.1590194559	-0.338924
H	 0.6966515723	 1.9379338089	-0.0902141865	 0.134689
H	-0.8625531286	 1.7171932196	-0.9223960608	 0.135613
H	-0.7946696483	 1.7255662767	 0.8586954753	 0.155206
H	 0.270303203	-0.4705080843	-2.0743569045	 0.12486
H	 0.2684215942	-2.6038759917	 2.8833015888	 0.114008
H	-0.8623058663	-3.535183563	 1.8997153167	 0.121523
64.8962	95.7778	164.1209	206.4048	239.1776	304.2303	321.3581	361.7032	420.5462	515.5519	618.8836	629.3871	668.6528	721.4235	736.0095	760.5259	822.1827	897.8012	1006.0939	1012.2711	1038.1281	1082.6498	1145.4268	1161.1297	1178.5459	1221.8483	1290.1443	1349.7263	1375.3464	1408.4175	1417.6663	1457.7095	1486.3742	1491.674	1502.0604	1511.4097	1546.7039	1649.8396	1653.0107	3002.7784	3028.9616	3035.3763	3096.9444	3155.7817	3269.0423	3493.7516	3526.4579	3577.2283
CN1C=C([O-])C(C[NH3+])=N1	Cn1cc(O)c(CN)n1	
InChI=1S/C5H9N3O/c1-8-3-5(9)4(2-6)7-8/h3,9H,2,6H2,1H3	InChI=1S/C5H9N3O/c1-8-3-5(9)4(2-6)7-8/h3,9H,2,6H2,1H3
