25
gdb 101323	2.52466	0.92916	0.80464	1.0161	90.18	-0.235	0.0784	0.3135	1604.6115	0.226701	-389.472627	-389.461546	-389.460602	-389.509141	40.463	
C	-0.0794380109	 1.5556328662	-0.2986422484	-0.389682
C	-0.03581422	 0.0242420814	-0.3319876539	-0.158658
C	 1.0669908026	-0.5705639991	-1.2314025218	 0.02124
C	 2.4727298807	-0.1944695371	-0.7351212155	-0.404694
C	 0.9250014029	-2.0817066858	-1.3297662682	-0.032332
C	-0.2396263493	-2.6961524913	-2.0861826801	-0.344855
C	 1.1451669728	-2.8330512396	-2.6296802029	 0.116104
O	 1.4052391471	-2.1455372307	-3.8152566755	-0.233635
C	 2.7767931996	-2.1036629543	-4.1514512913	-0.242546
H	 0.8253288458	 1.9843889426	 0.1429228075	 0.115738
H	-0.183820929	 1.9692855312	-1.3083633568	 0.112523
H	-0.9300282267	 1.9088865169	 0.2930232737	 0.109851
H	 0.0905561276	-0.3616798462	 0.6894767287	 0.086903
H	-1.0049698181	-0.3524914254	-0.6789165949	 0.09517
H	 0.93661125	-0.1626222494	-2.2425122674	 0.08028
H	 3.2496739315	-0.6534259347	-1.3536193911	 0.114932
H	 2.6344160935	 0.8870022108	-0.7503021005	 0.11339
H	 2.6258347133	-0.5391712839	 0.2950593425	 0.108624
H	 1.2344516499	-2.6165210018	-0.432899946	 0.074697
H	-0.7422369069	-3.570464681	-1.6878874207	 0.108848
H	-0.885076729	-2.0099954132	-2.625521944	 0.121639
H	 1.6295982912	-3.8095605607	-2.5744371056	 0.078538
H	 3.372947075	-1.5665223155	-3.4012741791	 0.115055
H	 3.1937636938	-3.1162802031	-4.263556633	 0.106357
H	 2.8567223927	-1.5827382663	-5.1085896257	 0.126513
52.3079	83.2915	112.3395	134.3599	170.6228	205.7159	209.4167	246.4936	275.758	304.9732	371.4163	403.0919	443.6513	501.7251	601.2817	763.2236	780.4454	808.7472	836.7503	861.1809	960.4045	970.5242	986.4068	1012.3318	1040.5194	1049.06	1070.8859	1111.8654	1131.082	1146.8106	1161.5694	1182.4389	1183.2912	1197.7638	1229.3027	1257.3617	1283.5468	1303.8711	1350.0641	1376.5387	1394.3171	1407.4373	1414.1883	1417.2857	1473.4372	1482.5945	1486.0977	1492.9715	1495.3129	1499.7021	1505.3197	1509.8668	1512.5726	2985.5366	3008.5536	3022.9802	3030.8334	3031.7192	3040.8238	3056.535	3080.2184	3094.9845	3095.8498	3104.1751	3113.7394	3115.8824	3117.0829	3130.4563	3217.2404
CCC(C)C1CC1OC	CC[C@@H](C)[C@H]1C[C@H]1OC	
InChI=1S/C8H16O/c1-4-6(2)7-5-8(7)9-3/h6-8H,4-5H2,1-3H3	InChI=1S/C8H16O/c1-4-6(2)7-5-8(7)9-3/h6-8H,4-5H2,1-3H3/t6-,7-,8-/m1/s1
