12
gdb 50795	7.62074	0.6123	0.56677	6.0767	83.91	-0.2661	-0.0856	0.1804	1783.1249	0.074843	-435.469396	-435.460386	-435.459441	-435.504328	30.544	
O	-0.4040105047	 0.1140319681	 0.006212877	-0.245669
C	-0.0835347983	 1.2681844593	 0.0091763276	 0.164899
N	 1.2196409938	 1.7676431746	-0.0006968534	-0.344323
C	 2.4163874301	 1.0375463941	-0.0159011605	 0.225686
O	 2.4918620945	-0.1647055511	-0.0231296206	-0.28219
C	 3.581589334	 1.905686533	-0.0220938047	 0.247259
C	 4.5891974935	 2.5790045463	-0.0278812583	-0.08753
C	 5.7145895307	 3.3387635613	-0.0342926972	 0.281583
C	 6.7136336635	 4.0166011082	-0.0399419771	-0.532316
H	-0.8070731656	 2.1080544906	 0.0204973551	 0.093858
H	 1.3141070757	 2.7736867052	 0.0038055054	 0.268856
H	 7.5952633029	 4.6096583705	-0.0449740233	 0.209888
46.7007	63.4033	119.1582	194.93	219.7343	231.4092	300.7071	362.8433	497.9944	553.9104	559.1183	609.3238	618.3418	624.5302	635.749	761.0684	936.3729	976.6394	1027.5012	1148.9125	1215.7254	1444.7293	1499.5524	1784.2059	1861.3398	2178.159	2343.0066	2933.6376	3498.7981	3604.9048
O=CNC(=O)C#CC#C	O=CNC(=O)C#CC#C	
InChI=1S/C6H3NO2/c1-2-3-4-6(9)7-5-8/h1,5H,(H,7,8,9)	InChI=1S/C6H3NO2/c1-2-3-4-6(9)7-5-8/h1,5H,(H,7,8,9)
