15
gdb 46763	2.90668	1.86118	1.30394	2.0269	65.83	-0.266	-0.0029	0.2631	932.1802	0.115926	-453.971804	-453.965062	-453.964118	-454.003641	25.339	
N	-0.0633415283	 1.1323837986	 0.4349807318	-0.526159
C	-0.0035109006	-0.0763270163	 0.0840777177	 0.39975
O	 1.1383386266	-0.7989491276	-0.0865537732	-0.234575
C	 0.8790245152	-2.0639070016	-0.7161036961	-0.103968
C	-0.6305201626	-2.3303168848	-0.5784978416	-0.036441
N	-0.9577001379	-3.2045209946	 0.5612726703	-0.268235
C	-1.6540881422	-2.496887962	 1.3504843589	 0.119569
O	-1.9423988046	-1.2123482271	 1.0361702371	-0.211647
C	-1.2180361764	-0.9518780116	-0.1891876283	-0.008301
H	 0.8726932576	 1.515586359	 0.5802503284	 0.228339
H	 1.1864394502	-1.9997309721	-1.7657288219	 0.117726
H	 1.4710663004	-2.8285341751	-0.2106031757	 0.141284
H	-1.0377495313	-2.761002953	-1.4962966143	 0.103735
H	-2.0726630979	-2.8306353056	 2.2931833613	 0.152974
H	-1.9047760381	-0.4833015861	-0.8926069544	 0.125951
66.462	121.0375	245.4801	335.6051	440.1188	530.8065	581.6393	660.5579	721.8047	802.8528	855.3043	884.4551	902.471	904.9025	941.9003	968.3668	983.1549	1010.7559	1055.7374	1094.7696	1115.6753	1137.2525	1233.637	1248.0367	1276.2758	1295.4143	1314.7143	1333.9201	1350.6844	1407.9675	1515.2833	1694.4674	1779.1743	3043.8072	3080.9493	3124.4645	3131.2895	3223.0107	3471.5812
N=C1OCC2N=COC12	[NH][C]1OC[C@H]2N=CO[C@@H]12	
InChI=1S/C5H6N2O2/c6-5-4-3(1-8-5)7-2-9-4/h2-4,6H,1H2	InChI=1S/C5H6N2O2/c6-5-4-3(1-8-5)7-2-9-4/h2-4,6H,1H2/t3-,4-/m1/s1
