22
gdb 57334	2.00325	1.43973	1.28284	5.0337	81.55	-0.2788	0.0447	0.3235	1175.9309	0.190366	-404.374532	-404.36348	-404.362536	-404.409677	41.642	
C	-0.043781811	 1.5572474828	 0.1090992522	-0.454348
C	-0.0005109867	 0.0247045528	 0.0253979471	 0.338032
C	 0.6459119946	-0.5496098997	 1.2907694391	-0.417475
O	-1.3306411866	-0.494359801	 0.0304129088	-0.454345
C	 0.7340719234	-0.4784122306	-1.2873894103	 0.077987
C	-0.0251158359	-0.0496012938	-2.5662220724	-0.438651
C	 2.2000564515	 0.0071724811	-1.3834553214	-0.424082
C	 0.7470130291	-1.9526924058	-1.2652322249	 0.293402
N	 0.7905521848	-3.107694908	-1.2779412319	-0.358411
H	 0.9533107908	 1.9971191588	 0.1891326684	 0.126021
H	-0.5409391181	 2.0028845933	-0.7586255622	 0.112165
H	-0.6098103332	 1.8407039046	 1.0004822567	 0.133033
H	 0.054136025	-0.2451645805	 2.1575198485	 0.125475
H	 0.6626353273	-1.641155798	 1.2580038501	 0.153609
H	 1.6664139375	-0.1842596582	 1.4270002748	 0.115661
H	-1.8700882647	 0.0334232934	-0.5665388918	 0.281642
H	-0.0169155745	 1.0379836968	-2.6745026678	 0.123158
H	 0.4577503306	-0.4767706801	-3.4486518201	 0.13927
H	-1.0582693317	-0.4035813321	-2.5544233814	 0.130452
H	 2.7884764078	-0.2961337193	-0.5155823578	 0.137321
H	 2.6761115224	-0.4150081778	-2.2723607129	 0.136363
H	 2.2355482779	 1.0962482212	-1.4690497107	 0.123722
48.4383	154.0578	180.8428	193.3863	235.1832	252.1721	265.1089	275.3231	298.2128	311.0606	359.7734	367.5385	374.1721	423.8802	452.2769	480.6268	589.8239	594.7725	649.5891	808.2928	877.7554	931.6827	940.6007	947.1878	972.7044	1013.4186	1033.899	1108.3924	1158.2328	1176.61	1211.8392	1230.3835	1255.5851	1361.8874	1396.5486	1400.3373	1415.0882	1428.9009	1476.0165	1482.3786	1487.2679	1498.2774	1502.4355	1503.986	1510.6438	1518.0247	2351.8448	3042.5569	3050.8366	3054.2101	3058.6757	3110.2885	3120.4239	3124.5472	3126.3934	3131.8355	3133.0397	3136.9781	3142.1913	3822.4383
CC(C)(O)C(C)(C)C#N	CC(C)(O)C(C)(C)C#N	
InChI=1S/C7H13NO/c1-6(2,5-8)7(3,4)9/h9H,1-4H3	InChI=1S/C7H13NO/c1-6(2,5-8)7(3,4)9/h9H,1-4H3
