18
gdb 85566	2.77064	1.36306	0.95517	0.9383	72.59	-0.2497	-0.0301	0.2196	1199.4028	0.148011	-439.15439	-439.14573	-439.144786	-439.188268	32.049	
C	-0.3415637036	 1.4587544643	 0.0301018463	-0.388993
C	 0.0257266286	-0.0247436197	 0.0665704519	-0.132084
C	 0.7355392591	-0.4954296701	-1.2181659901	-0.309739
C	 1.0206871638	-1.9813778402	-1.1782322118	 0.376535
O	 0.9222283054	-2.7175881476	-2.1280714367	-0.299302
C	 1.4287602488	-2.5407501266	 0.1894235488	-0.260594
N	 1.5958706056	-1.5175290604	 1.2032482922	-0.32568
C	 0.885287613	-0.3488736223	 1.2935126818	 0.411455
O	 0.9645078026	 0.3756086377	 2.2667290928	-0.372103
H	 0.5494734347	 2.0762480503	-0.1203956417	 0.1249
H	-1.0421718719	 1.6606024903	-0.7853945527	 0.110864
H	-0.7950472716	 1.760845845	 0.9752867668	 0.143277
H	-0.9000414825	-0.610521514	 0.1758992643	 0.109023
H	 0.1552814074	-0.2743514094	-2.1172657853	 0.131631
H	 1.6968215421	 0.0305904424	-1.3100080497	 0.136037
H	 0.6734199431	-3.2927764419	 0.4655919939	 0.142694
H	 2.3705551489	-3.0827123486	 0.0548340544	 0.150216
H	 2.1174340065	-1.7493961994	 2.0364690848	 0.251863
47.7914	110.0129	144.8749	206.6944	279.6439	321.854	377.2025	419.2509	448.0228	525.0747	570.9389	585.5355	647.9033	723.055	777.8577	780.7959	886.7117	943.7663	958.5339	1050.4574	1090.4	1116.2963	1133.4888	1169.9284	1234.3457	1245.0589	1282.7154	1294.144	1331.6983	1352.7153	1387.8506	1411.0312	1455.2602	1460.186	1489.6839	1495.3719	1499.5883	1793.2586	1830.131	2990.0724	2991.7511	3019.7753	3046.6576	3074.355	3104.8229	3112.9949	3143.4329	3606.1078
CC1CC(=O)CNC1=O	C[C@H]1CC(=O)CNC1=O	
InChI=1S/C6H9NO2/c1-4-2-5(8)3-7-6(4)9/h4H,2-3H2,1H3,(H,7,9)	InChI=1S/C6H9NO2/c1-4-2-5(8)3-7-6(4)9/h4H,2-3H2,1H3,(H,7,9)/t4-/m0/s1
