17
gdb 74863	2.29564	1.77972	1.13816	4.9477	78.1	-0.2467	-0.0041	0.2426	1074.9731	0.137124	-380.869953	-380.86199	-380.861045	-380.902475	30.251	
C	 0.0709581643	 1.4776855863	 0.0311496435	-0.495065
C	-0.0130570825	-0.0114110582	-0.0338233108	 0.305434
C	-0.1387225441	-0.7920848617	-1.1104974033	-0.1539
C	-0.0817993114	-2.2383684186	-0.7574099448	-0.083779
N	 1.2226774316	-2.6136932935	-0.1401859788	-0.316698
C	 0.0699600225	-2.3056876605	 0.7188080301	-0.062352
C	 0.0567296207	-0.8649348698	 1.2453336381	-0.239399
C	 1.2030893122	-0.541618365	 2.0974095252	 0.295833
N	 2.0918138504	-0.2671769792	 2.7832974433	-0.338879
H	 1.0253726435	 1.7979631048	 0.4653779822	 0.157354
H	-0.0205612813	 1.9224203681	-0.9626684725	 0.130526
H	-0.7190803448	 1.8935193053	 0.6695566795	 0.128725
H	-0.2269629353	-0.4298757528	-2.1279003521	 0.105366
H	-0.6308181463	-2.9844400102	-1.321073574	 0.098697
H	 1.3341046164	-3.6257649844	-0.1733921055	 0.235996
H	-0.3722245104	-3.087760623	 1.3246222134	 0.104238
H	-0.8475792553	-0.6978674277	 1.8485194167	 0.127904
103.7745	133.3103	178.0353	195.2771	317.1719	362.9312	419.3097	483.4353	506.1907	586.2334	664.671	705.9314	806.888	826.7856	870.6676	876.0109	899.0153	964.4277	977.7552	1024.9134	1041.931	1062.3734	1082.0607	1129.8461	1157.6949	1188.3184	1250.378	1266.861	1292.8646	1316.1752	1368.0163	1410.4831	1418.8289	1476.4333	1486.6933	1711.408	2358.2482	3006.0655	3022.9161	3074.1114	3121.1649	3172.8002	3183.4128	3204.6124	3484.1047
CC1=CC2NC2C1C#N	CC1=C[C@H]2N[C@H]2[C@H]1C#N	
InChI=1S/C7H8N2/c1-4-2-6-7(9-6)5(4)3-8/h2,5-7,9H,1H3	InChI=1S/C7H8N2/c1-4-2-6-7(9-6)5(4)3-8/h2,5-7,9H,1H3/t5-,6+,7-/m0/s1
