17
gdb 43975	2.91182	1.68757	1.51623	3.8573	73.52	-0.2372	0.0156	0.2528	938.7936	0.137973	-417.953374	-417.946325	-417.945381	-417.984659	28.497	
N	-0.2525177454	 1.1764107034	-0.2593860278	-0.543823
C	-0.1162488094	-0.0710259262	-0.1459558082	 0.304759
N	 0.9827076116	-0.9804804099	-0.2212791715	-0.381266
C	 0.1065308425	-2.143905254	-0.0315358243	 0.200485
C	-0.7022145263	-2.0748095226	 1.2364979674	-0.361561
C	-1.0949103068	-1.2100581847	 0.0533188761	 0.273415
O	-2.1102369627	-1.6362073567	-0.7799314274	-0.283246
C	-1.4793136925	-2.4231938692	-1.8158921572	-0.085631
C	-0.2390917196	-3.1062333883	-1.155074313	-0.300374
H	 0.6498786632	 1.6377814549	-0.3940701413	 0.215983
H	 1.8163060646	-0.854549367	 0.344623115	 0.23219
H	-1.3847415973	-2.8970649277	 1.423091537	 0.132996
H	-0.2700702797	-1.6217499165	 2.1235264513	 0.123272
H	-2.226046062	-3.1232802672	-2.1990801515	 0.115852
H	-1.1603054887	-1.7650267999	-2.6349494659	 0.117714
H	 0.5850921845	-3.2124298421	-1.8631877973	 0.123149
H	-0.490630736	-4.0992198861	-0.7725513615	 0.116086
120.2609	161.5502	280.0898	361.5665	380.2551	453.6168	556.9277	604.3886	626.0709	659.5457	687.7847	749.5545	838.2827	847.7773	853.702	886.5673	903.2361	922.4029	958.4548	1002.2783	1011.3564	1037.9761	1079.5334	1113.0796	1183.5778	1216.8561	1232.3619	1277.4966	1301.0555	1317.6834	1322.2169	1347.7537	1389.3165	1463.4282	1478.0401	1513.9523	1793.716	3020.3561	3066.2566	3102.5113	3125.2353	3125.8551	3222.7116	3453.5982	3512.8625
N=C1NC23CC12OCC3	[NH][C]1N[C@@]23C[C@@]12OCC3	
InChI=1S/C6H8N2O/c7-4-6-3-5(6,8-4)1-2-9-6/h1-3H2,(H2,7,8)	InChI=1S/C6H8N2O/c7-4-6-3-5(6,8-4)1-2-9-6/h1-3H2,(H2,7,8)/t5-,6+/m0/s1
