21
gdb 105626	1.94264	1.3534	1.18669	1.6731	84.63	-0.2431	0.0493	0.2924	1228.9594	0.180491	-387.049609	-387.039688	-387.038744	-387.083878	37.782	
C	 0.2020835799	 1.424323238	 0.2467087372	-0.394427
C	 0.2088573922	-0.0797998918	-0.0373376684	-0.239855
C	 0.7551632626	-0.4596579299	-1.4300006932	 0.096279
C	 2.3211235641	-0.3680812231	-1.5193033392	-0.260193
C	 2.4219291064	-1.8810073427	-1.1953121578	-0.2777
C	 0.9321818094	-2.0276334735	-1.5877965119	 0.123531
O	 0.0938767444	-2.9029971023	-0.888469451	-0.422318
C	 0.007620927	 0.1876727461	-2.4928765705	 0.256676
C	-0.6061727266	 0.6995781742	-3.392967544	-0.447744
H	 1.2098088225	 1.8492605067	 0.1925623143	 0.116456
H	-0.4228753448	 1.9537573505	-0.4774119981	 0.136721
H	-0.1895629757	 1.6258116406	 1.2483658308	 0.112243
H	 0.8132768242	-0.5865640609	 0.7273378567	 0.082331
H	-0.8083356199	-0.4778531999	 0.0494451488	 0.115846
H	 2.6513604167	-0.1335698431	-2.5324875006	 0.116816
H	 2.7999444172	 0.3247864012	-0.8246388558	 0.106636
H	 3.1464631674	-2.478813654	-1.7515702797	 0.107
H	 2.5749268229	-2.0637265494	-0.1264816585	 0.097127
H	 0.8267690797	-2.2936563403	-2.6421820667	 0.10318
H	 0.2217582943	-2.7596243885	 0.0549288293	 0.282118
H	-1.148211604	 1.1523385023	-4.1857923316	 0.189276
102.1717	120.1359	146.9855	174.7852	184.7355	229.4851	294.2423	326.9031	357.0995	398.8804	489.2198	532.2986	584.1	589.909	614.6652	625.4698	692.6787	792.7973	799.0989	880.3012	930.4431	950.1187	972.669	1015.1463	1022.2516	1071.3239	1118.049	1146.048	1159.5195	1204.6993	1221.9011	1243.593	1260.2436	1291.3247	1320.3105	1338.1959	1360.5508	1412.9704	1437.271	1480.7648	1485.8186	1496.1915	1500.5263	1508.2287	2223.673	3012.2194	3039.8639	3051.3061	3064.636	3075.7296	3086.3584	3104.7096	3112.8857	3120.9854	3133.7882	3501.663	3814.5762
CCC1(CCC1O)C#C	CC[C@]1(CC[C@H]1O)C#C	
InChI=1S/C8H12O/c1-3-8(4-2)6-5-7(8)9/h1,7,9H,4-6H2,2H3	InChI=1S/C8H12O/c1-3-8(4-2)6-5-7(8)9/h1,7,9H,4-6H2,2H3/t7-,8+/m1/s1
