20
gdb 18158	3.46939	1.46698	1.28331	1.2194	74.81	-0.2474	0.0772	0.3246	1040.0882	0.177226	-348.966325	-348.957958	-348.957014	-348.999028	31.69	
C	 0.3780657407	 1.7048756603	-0.6567023437	-0.42002
C	 0.4210329411	 0.2172381255	-0.3682691388	 0.019508
C	 1.6358890299	-0.662464577	-0.4476731706	-0.072198
C	 2.8790222331	 0.0192456495	 0.1458257097	-0.257067
C	 2.1541634697	 0.0975831531	 1.5297328812	 0.056382
C	 2.0978522852	 1.3954386523	 2.3154395819	-0.1053
O	 3.4115268911	 1.6525230219	 2.7990304048	-0.424032
C	 0.8860696584	-0.4826709545	 0.8871761409	-0.12146
H	 1.3202884303	 2.2083360025	-0.431361893	 0.12277
H	 0.1674792192	 1.8758104071	-1.7186126528	 0.112263
H	-0.4114458861	 2.1996542518	-0.0798121228	 0.113096
H	-0.4544123386	-0.2969278799	-0.7644994185	 0.08319
H	 1.6658810764	-1.5371122858	-1.0869502791	 0.080292
H	 3.7579656283	-0.626897846	 0.1718979496	 0.104494
H	 3.1734458583	 0.9707429773	-0.3083148915	 0.09652
H	 2.5944132605	-0.6537800241	 2.1935090913	 0.0843
H	 1.7399037105	 2.2249625701	 1.6905095183	 0.084597
H	 1.3810777394	 1.2818213475	 3.1465019184	 0.080696
H	 3.4027725252	 2.4960587853	 3.2603224159	 0.28478
H	 0.2317342375	-1.1881833168	 1.3882298289	 0.077189
82.9603	129.1049	185.686	221.9532	263.1574	267.8228	338.1101	421.2414	444.6935	577.2457	705.796	714.7822	788.7258	835.4811	870.3249	903.4984	971.2974	987.3386	1002.5788	1026.9104	1058.1748	1064.3654	1077.9436	1097.9312	1116.5346	1143.1972	1175.8974	1217.1547	1227.3297	1253.2891	1264.3112	1278.1162	1306.0434	1347.0803	1379.5568	1414.5585	1446.0512	1459.2034	1488.0016	1498.2713	1504.2799	1522.702	2959.3454	3019.1158	3031.2379	3051.2507	3054.2149	3083.9522	3106.0305	3113.1558	3130.2291	3159.2011	3176.8556	3829.9752
CC1C2CC(CO)C12	C[C@H]1[C@H]2C[C@@H](CO)[C@@H]12	
InChI=1S/C7H12O/c1-4-6-2-5(3-8)7(4)6/h4-8H,2-3H2,1H3	InChI=1S/C7H12O/c1-4-6-2-5(3-8)7(4)6/h4-8H,2-3H2,1H3/t4-,5-,6+,7+/m0/s1
