14
gdb 128738	2.71444	1.61163	1.01773	1.0057	71.02	-0.2525	-0.0736	0.1789	1091.5675	0.100357	-469.923926	-469.916171	-469.915227	-469.9565	28.269	
C	 0.0610641911	 1.3715007079	 0.0379191704	-0.239391
O	 0.0946648573	-0.0607991187	 0.0007432506	-0.225717
C	 0.6042038562	-0.6273545769	-1.086391281	 0.484938
N	 1.0416112988	 0.1126205574	-2.0499202212	-0.194082
O	 1.5722304294	-0.5100457752	-3.1811828507	-0.230726
N	 1.6452892027	-1.8658168095	-3.3055402454	-0.053594
C	 1.2073316238	-2.5932888344	-2.3411232398	 0.006145
C	 0.6276896203	-2.0962902727	-1.1007996605	 0.13996
N	 0.181256819	-2.7845652968	-0.1190303497	-0.494425
H	 1.0711990083	 1.7833345983	-0.0375905335	 0.147447
H	-0.5427759689	 1.7648576413	-0.7844726748	 0.147447
H	-0.3864985821	 1.6227432881	 0.9988664848	 0.144324
H	 1.2936803705	-3.6655266927	-2.5012105593	 0.142079
H	 0.2828388322	-3.7846435362	-0.3138157705	 0.225596
91.1914	139.0441	189.8136	216.1682	314.1937	343.1147	423.0873	502.8148	539.3966	546.4658	619.6041	733.4404	775.3273	855.3239	886.1788	928.0293	947.8482	985.7958	1039.6653	1131.8357	1176.9767	1217.4819	1322.9455	1330.3316	1439.3554	1480.6512	1493.2046	1508.4197	1616.0995	1628.8188	1699.3047	3047.7876	3121.5272	3164.6896	3165.482	3430.1763
COC1=NON=CC1=N	COC1=NON=C[C]1[NH]	
InChI=1S/C4H5N3O2/c1-8-4-3(5)2-6-9-7-4/h2,5H,1H3	InChI=1S/C4H5N3O2/c1-8-4-3(5)2-6-9-7-4/h2,5H,1H3
