24
gdb 8947	3.65085	1.04591	0.86664	1.3036	81.8	-0.2617	0.0793	0.341	1410.9719	0.221258	-351.410262	-351.39935	-351.398406	-351.446793	39.176	
C	-0.0699040362	 1.5561948229	-0.1036160509	-0.39033
C	-0.0956871032	 0.0322896316	 0.0625088831	-0.171483
C	 0.7211946446	-0.5041069988	 1.2588884621	 0.048081
C	 0.0699422466	-0.0716790004	 2.5843460868	-0.409875
C	 0.920037114	-2.0413684219	 1.155603414	 0.039939
C	 1.7940837768	-2.4397768054	-0.045648314	-0.404043
C	 1.519355832	-2.6392338473	 2.4347011229	-0.093333
O	 1.6425157655	-4.0461928701	 2.2584697888	-0.422992
H	 0.9575329334	 1.9234448065	-0.2070520875	 0.112689
H	-0.619517145	 1.8566713175	-1.0014109031	 0.111069
H	-0.5243620968	 2.0784640086	 0.743527059	 0.116715
H	-1.1352385375	-0.3090445733	 0.1659526143	 0.090685
H	 0.2769032764	-0.4141370687	-0.863973205	 0.097049
H	 1.7206017335	-0.0440414734	 1.2104259811	 0.063614
H	 0.7098400013	-0.2715370543	 3.4478101651	 0.113446
H	-0.1401226729	 1.0012468809	 2.5882106913	 0.111641
H	-0.8816469762	-0.5937970983	 2.743741347	 0.112389
H	-0.0706110624	-2.5037800908	 1.0314579701	 0.074587
H	 2.7694684039	-1.9393743338	 0.0043021015	 0.103164
H	 1.9702011349	-3.5166867619	-0.0401263018	 0.136714
H	 1.334033084	-2.1782167697	-1.0012703801	 0.110615
H	 2.5033394374	-2.1776804461	 2.6298303006	 0.078612
H	 0.8758582039	-2.4232919334	 3.2969840502	 0.086342
H	 2.003017222	-4.4169728305	 3.0686362144	 0.284705
29.9576	57.0242	105.3264	176.3668	199.5061	220.3898	239.5127	253.1966	307.402	332.3028	344.9849	373.9934	411.8122	482.0024	537.5275	769.0169	813.732	846.4991	920.5472	928.7031	968.6106	990.5561	1004.0684	1042.3077	1064.0343	1072.1595	1144.6967	1166.1503	1182.745	1191.0181	1241.0821	1269.2063	1291.9169	1311.2387	1346.6263	1357.9579	1373.4452	1384.7009	1405.2479	1410.9039	1416.1325	1455.4331	1482.0019	1494.7556	1495.724	1499.9266	1506.383	1511.0201	1514.639	1525.9867	2949.6419	2980.2866	2999.6026	3017.4012	3026.2967	3031.694	3032.7782	3035.5034	3076.8551	3096.6021	3099.2674	3105.3038	3110.0193	3115.0205	3138.7818	3835.5988
CCC(C)C(C)CO	CC[C@@H](C)[C@@H](C)CO	
InChI=1S/C7H16O/c1-4-6(2)7(3)5-8/h6-8H,4-5H2,1-3H3	InChI=1S/C7H16O/c1-4-6(2)7(3)5-8/h6-8H,4-5H2,1-3H3/t6-,7+/m1/s1
