17
gdb 35186	3.45996	1.24055	1.11752	2.2636	79.8	-0.2296	0.0486	0.2781	1131.8582	0.134109	-384.589086	-384.581145	-384.580201	-384.621499	31.271	
C	 0.0209441956	-1.1586096723	-0.1095504894	-0.449228
C	 0.026843469	 0.0424086768	-0.0450832128	 0.342613
C	 0.021496517	 1.4717593778	 0.0219526801	-0.306433
C	 0.5853627445	 2.1894620683	 1.2630374258	-0.377303
C	 1.3159443518	 2.2551129423	-0.0259393179	 0.482955
O	 2.5891342059	 1.6230604407	-0.1933673738	-0.307631
C	 3.0499763882	 2.7699093167	-0.9247323925	 0.099255
C	 2.2626364599	 2.9576573615	-2.1799333562	-0.299863
C	 1.7025417303	 3.4517468094	-0.8557216689	-0.221353
H	 0.0264738904	-2.218474058	-0.1673811853	 0.193377
H	-0.8264924885	 1.9558429509	-0.456086911	 0.116408
H	 0.0583309716	 3.0687348528	 1.6186224919	 0.121515
H	 1.0104123741	 1.5552269489	 2.0323971513	 0.141357
H	 4.0588609667	 3.1141366522	-0.7349846479	 0.111405
H	 2.6151066523	 3.7450692269	-2.8392071846	 0.11713
H	 1.8278563947	 2.0938680646	-2.674005482	 0.128913
H	 1.4347910367	 4.4799170605	-0.655409557	 0.106883
93.6176	120.4298	183.9547	278.8698	316.131	419.2829	482.1691	491.7978	529.5344	576.1236	646.7783	655.2307	756.3536	784.5132	807.4642	867.9162	899.7343	910.8938	952.8706	965.3674	981.2783	1041.3669	1046.4995	1049.8232	1065.9825	1078.0122	1088.9968	1117.8458	1174.8228	1190.6045	1276.0773	1307.2531	1350.4852	1418.3034	1468.8044	1487.6217	2238.3393	3120.752	3133.1078	3136.357	3192.9483	3207.3664	3216.9275	3231.8061	3506.7451
C#CC1CC11OC2CC12	C#C[C@H]1C[C@]21O[C@H]1C[C@@H]21	
InChI=1S/C8H8O/c1-2-5-4-8(5)6-3-7(6)9-8/h1,5-7H,3-4H2	InChI=1S/C8H8O/c1-2-5-4-8(5)6-3-7(6)9-8/h1,5-7H,3-4H2/t5-,6+,7-,8+/m0/s1
