20
gdb 93238	2.8128	1.27757	0.92165	4.2119	75.59	-0.2468	0.0171	0.2639	1273.6487	0.172784	-440.340445	-440.331738	-440.330794	-440.37364	33.573	
C	 0.0449821325	 1.5765513683	 0.0064227936	-0.406029
C	 0.0213772809	 0.0464106903	 0.0437061036	 0.012674
C	 0.6563273098	-0.5305496285	-1.2285289561	-0.151939
N	 0.8444065318	-1.9783735378	-1.1483364931	-0.324175
C	 1.0295613987	-2.690947506	-0.00582479	 0.377855
O	 1.5007584938	-3.8190598987	 0.0086093836	-0.39724
C	 0.5626309068	-2.0444980711	 1.3036332518	 0.04504
O	 1.2564528859	-2.6266139344	 2.3748590809	-0.444814
C	 0.7291103763	-0.5268799145	 1.2780001629	-0.222786
H	 1.0734788927	 1.954809056	 0.0032605123	 0.121086
H	-0.4574898149	 1.9636849585	-0.886526244	 0.115616
H	-0.4608062645	 1.9936376788	 0.8821626765	 0.122974
H	-1.0266219981	-0.2832006739	 0.0720608581	 0.087094
H	 0.026026857	-0.308127459	-2.0968176599	 0.113577
H	 1.625962605	-0.0378842816	-1.401052001	 0.109244
H	 1.1883735491	-2.4470853345	-1.9758066299	 0.247992
H	-0.518726991	-2.2691249793	 1.3760545174	 0.087563
H	 1.5717308977	-3.4771309106	 2.0278630523	 0.291097
H	 1.7989841251	-0.2815057484	 1.2567688747	 0.105819
H	 0.3205487853	-0.0976097137	 2.1985628162	 0.109352
88.5095	141.1253	187.9051	238.0301	265.5523	321.9269	383.4818	402.131	421.2206	448.0131	506.9525	560.54	603.0852	696.0119	722.593	810.2905	862.5832	919.3806	946.5529	976.6066	1039.1571	1078.3703	1094.6618	1127.4293	1162.4165	1186.681	1193.0711	1284.0594	1284.7608	1302.172	1303.7338	1356.7331	1382.4011	1400.0089	1400.802	1413.5571	1461.5918	1483.9671	1496.5175	1498.0888	1505.8082	1527.7376	1773.3089	2919.5041	2981.0632	3009.7803	3028.793	3033.4162	3055.012	3080.6923	3097.1563	3108.6085	3587.4596	3682.5812
CC1CNC(=O)C(O)C1	C[C@H]1CNC(=O)[C@@H](O)C1	
InChI=1S/C6H11NO2/c1-4-2-5(8)6(9)7-3-4/h4-5,8H,2-3H2,1H3,(H,7,9)	InChI=1S/C6H11NO2/c1-4-2-5(8)6(9)7-3-4/h4-5,8H,2-3H2,1H3,(H,7,9)/t4-,5+/m1/s1
