21
gdb 121756	6.76224	0.51774	0.4882	1.9727	77.53	-0.246	-0.0112	0.2348	2253.4984	0.178193	-461.363497	-461.352047	-461.351103	-461.4029	38.163	
C	-0.0444621065	 1.4601901319	-0.0373095972	-0.384585
C	 0.0116386446	-0.056509461	 0.0136358499	-0.027913
O	 0.7079643056	-0.4388544404	 1.1848082606	-0.22287
C	 0.818946647	-1.8193260338	 1.3330580326	-0.147461
C	 1.5789636176	-2.1613311454	 2.6128027185	 0.339653
O	 2.0038630374	-1.3129867322	 3.358208875	-0.281247
C	 1.7583777093	-3.6482745473	 2.8744947293	-0.289591
C	 2.521049253	-3.9373565371	 4.1589413249	-0.075594
O	 2.6159981717	-5.3493262802	 4.2795731445	-0.425503
H	 0.9650632462	 1.8798001966	-0.056400246	 0.131633
H	-0.5776319115	 1.7912364065	-0.9334736822	 0.114217
H	-0.5615342765	 1.8535743588	 0.8421559804	 0.131621
H	-1.0058074419	-0.4837691818	 0.020492423	 0.086328
H	 0.5216427407	-0.4574754815	-0.8790666693	 0.08633
H	-0.1709524696	-2.3116709445	 1.3769647908	 0.104173
H	 1.3490761759	-2.2856626823	 0.481172096	 0.104175
H	 0.7733105249	-4.1319977797	 2.9101281261	 0.130599
H	 2.2775757313	-4.1068162562	 2.0225724573	 0.130569
H	 3.5117867157	-3.4638147226	 4.113235681	 0.103821
H	 1.9904266553	-3.489433773	 5.0108137695	 0.103843
H	 3.0967769998	-5.5466185246	 5.0885342753	 0.2878
17.2292	42.308	79.0248	87.1456	97.9762	132.8235	189.6523	244.6708	272.9667	287.5226	322.5413	392.2269	476.4528	490.4486	698.9454	756.5764	822.7617	879.6435	916.167	925.8587	991.0168	1051.246	1064.8488	1104.932	1106.0966	1155.6061	1187.533	1195.3238	1206.7542	1255.3649	1264.3519	1296.8453	1307.6917	1345.2024	1385.5583	1406.1763	1438.2306	1450.2026	1470.3736	1483.2264	1488.6062	1499.6157	1523.3705	1532.2402	1822.7843	2928.6375	2946.8869	2953.8782	2976.7897	2999.0921	3027.025	3029.3816	3047.122	3064.5396	3121.4652	3125.5975	3831.1618
CCOCC(=O)CCO	CCOCC(=O)CCO	
InChI=1S/C6H12O3/c1-2-9-5-6(8)3-4-7/h7H,2-5H2,1H3	InChI=1S/C6H12O3/c1-2-9-5-6(8)3-4-7/h7H,2-5H2,1H3
