18
gdb 84255	3.431	1.65863	1.43461	1.6442	77.2	-0.2095	-0.0056	0.2039	939.029	0.149777	-401.863765	-401.856874	-401.85593	-401.894671	28.548	
O	-0.0887222655	 1.4257101753	 0.3022979352	-0.431801
C	 0.0402329955	 0.0388768705	 0.0177831427	 0.087321
C	 0.6682970887	-0.7260307137	 1.2012026306	-0.196206
C	 0.0051165272	-1.8683754259	 1.4066980267	 0.102949
C	-0.8953462809	-2.3161233629	 2.5501761742	-0.217954
N	-2.0628219887	-1.9625454369	 1.6394336592	-0.146581
C	-2.1848355057	-0.4791554977	 1.3260318227	-0.173997
C	-1.3638452048	-0.5984453021	-0.0137235482	-0.053214
C	-1.1407873732	-2.0502236082	 0.4339718464	-0.02203
H	 0.7787452289	 1.8328866221	 0.2171891679	 0.286177
H	 0.5575316235	-0.0991063307	-0.945804511	 0.068533
H	 1.2917247401	-0.2093614107	 1.9236014916	 0.089933
H	-0.9398683811	-3.3896902672	 2.7532829188	 0.117097
H	-0.8273026326	-1.760814248	 3.4901899336	 0.113546
H	-3.2349837053	-0.2231537696	 1.1752991624	 0.114042
H	-1.7575720365	 0.1892690645	 2.0772443307	 0.118206
H	-1.9353861184	-0.3948204056	-0.9206431814	 0.069078
H	-1.219854291	-2.9210690533	-0.2190278921	 0.0749
139.9311	251.3669	264.9526	362.9331	391.0644	416.9887	520.0546	572.6783	671.3601	718.37	769.1391	793.6428	799.9575	860.0888	904.0291	915.6387	951.0446	963.9899	978.8443	1002.1306	1017.2434	1042.9694	1060.8165	1114.1997	1156.7394	1174.1029	1184.6706	1206.2209	1237.084	1239.2956	1262.2217	1289.615	1294.2164	1307.5237	1334.9255	1415.7702	1487.9141	1497.4236	1665.3671	2954.9239	3051.108	3068.918	3088.8571	3102.7597	3107.9871	3125.498	3183.0657	3824.987
OC1C=C2CN3CC1C23	O[C@H]1[CH][C]2CN3C[C@@H]1[C@@H]23	
InChI=1S/C7H9NO/c9-6-1-4-2-8-3-5(6)7(4)8/h1,5-7,9H,2-3H2	InChI=1S/C7H9NO/c9-6-1-4-2-8-3-5(6)7(4)8/h1,5-7,9H,2-3H2/t5-,6-,7+/m0/s1
