18
gdb 43008	2.28993	1.97468	1.35914	3.4878	76.02	-0.2316	-0.0128	0.2188	983.4161	0.15079	-401.94439	-401.937325	-401.936381	-401.975669	28.743	
O	-0.0073089803	 0.7560591237	-1.4076765936	-0.348317
C	-0.0390704607	 1.3597780649	-0.3532838294	 0.440575
C	-1.3210420943	 1.7857900571	 0.2669656587	-0.14303
C	-1.5886180549	 1.6341789981	 1.7652796238	-0.298252
C	-1.329699932	 2.9937135252	 1.202380769	-0.035795
C	-0.0415101092	 3.7628033668	 1.4575141432	-0.239473
C	 1.2450022147	 3.0075586213	 1.18288525	-0.022892
N	 1.3868796928	 1.6726486101	 1.7623527867	-0.336826
C	 1.2430733957	 1.8076628113	 0.2878610407	-0.149468
H	-2.1650620149	 1.6408600775	-0.397810435	 0.102774
H	-2.6096734686	 1.3827635883	 2.0309190143	 0.114039
H	-0.8191714334	 1.1692549123	 2.3644333605	 0.159773
H	-2.1989570809	 3.6370428468	 1.1010287418	 0.095447
H	-0.0377669637	 4.6534164219	 0.8160801054	 0.110569
H	-0.028218453	 4.1273016923	 2.4931864329	 0.11419
H	 2.1355076345	 3.6322433055	 1.1471630986	 0.09449
H	 2.3606676715	 1.4785066691	 1.9793551354	 0.241117
H	 2.1129656667	 1.6079366878	-0.3305296131	 0.101081
116.9785	238.0137	256.8123	351.1956	364.2825	430.8839	462.191	533.5175	622.2618	735.295	735.8369	792.3748	799.287	853.5755	891.7055	915.3894	927.7261	954.8151	991.6175	1013.9992	1040.1275	1086.3426	1118.6415	1124.6397	1135.6806	1164.4558	1186.2706	1218.8016	1253.903	1263.9735	1282.8961	1368.6524	1372.961	1390.2197	1406.9607	1455.764	1474.4827	1484.3747	1777.6194	3017.6875	3051.0908	3124.5707	3144.0822	3149.3001	3162.9655	3179.1297	3257.9058	3507.6983
O=C1C2CC2CC2NC12	O=C1[C@H]2C[C@H]2C[C@H]2N[C@@H]12	
InChI=1S/C7H9NO/c9-7-4-1-3(4)2-5-6(7)8-5/h3-6,8H,1-2H2	InChI=1S/C7H9NO/c9-7-4-1-3(4)2-5-6(7)8-5/h3-6,8H,1-2H2/t3-,4-,5+,6+/m0/s1
