16
gdb 90287	1.92163	1.4197	0.82427	2.9287	77.44	-0.2404	-0.0621	0.1783	1353.8665	0.121341	-437.86917	-437.85915	-437.858205	-437.905737	33.993	
N	 1.2919133457	 0.682636744	-0.6164403872	-0.725962
H	 1.2172925786	-0.1509597716	-0.0372524658	 0.257192
H	 2.2548009488	 0.9973141495	-0.5284124035	 0.236665
H	 1.1928406589	 0.3638852412	-1.5769014702	 0.236645
C	-1.216564491	 1.4978901185	 1.4369688085	-0.260133
C	-2.3519693225	 1.6277613221	 2.5069389311	-0.380041
C	-1.8950564285	 0.2107988316	 2.9040075822	 0.364217
C	-1.8072221522	-0.9709025673	 3.5311186665	-0.533582
C	-0.6978645494	-1.7076399979	 2.8556637232	 0.429914
O	-0.2301297167	-2.7854647851	 3.0350704079	-0.306421
O	-0.1618040954	-0.8524234998	 1.7964837863	-0.289528
C	-0.9066077582	 0.2604047622	 1.8752700707	 0.421359
H	-0.8398515646	 2.1475731799	 0.6615105202	 0.148328
H	-2.2098727344	 2.3943817971	 3.2752805618	 0.131554
H	-3.374963737	 1.6958210595	 2.1233589452	 0.131525
H	-2.3501226521	-1.4180308643	 4.3494663832	 0.138267
39.5856	56.5232	102.5344	111.7406	146.1522	169.6161	237.4137	284.9576	360.4087	384.077	582.1373	606.331	684.7465	735.0259	750.837	782.6059	835.743	845.4226	853.7052	937.1887	958.9102	1007.7927	1101.6189	1110.0293	1119.8656	1199.9372	1216.8864	1236.3047	1399.6594	1494.3852	1656.8288	1678.7	1691.7366	1710.0532	1907.2442	3045.9204	3090.5031	3257.1913	3257.2778	3460.1721	3575.7865	3579.0335
[NH3+]C1CC2=CC(=O)O[C-]12	N.C1=C2C(=CC(=O)O2)C1	
InChI=1S/C6H6NO2/c7-4-1-3-2-5(8)9-6(3)4/h2,4H,1,7H2/q-1/p+1	InChI=1S/C6H4O2.H3N/c7-6-3-4-1-2-5(4)8-6;/h2-3H,1H2;1H3
