18
gdb 5826	2.82552	1.67775	1.38525	1.8108	69.41	-0.2614	0.0333	0.2946	979.6524	0.148805	-384.903731	-384.893698	-384.892754	-384.937621	36.828	
C	-0.021855929	 1.5551069328	 0.0242574493	-0.426129
C	 0.0060163336	 0.0235660988	 0.0751110602	 0.339576
C	 0.6897052619	-0.4786043244	 1.3511048015	-0.433543
O	-1.3163139076	-0.5033388512	-0.0327667497	-0.462116
C	 0.7194516176	-0.512510659	-1.2016493099	-0.039235
O	 2.0378653813	 0.01898197	-1.3182868413	-0.429031
C	 0.7288704277	-1.973687214	-1.2740094868	 0.301749
C	 0.8149817152	-3.1714657262	-1.3309461559	-0.44969
H	 0.989923122	 1.9628899579	-0.0271188388	 0.135828
H	-0.5814627032	 1.8932850522	-0.8529851533	 0.119749
H	-0.5121267537	 1.9563249283	 0.9186335899	 0.098888
H	 0.1691104333	-0.0966953962	 2.2362887711	 0.105556
H	 0.678494999	-1.5705961145	 1.3866667996	 0.134207
H	 1.7254514986	-0.1291038823	 1.4041697669	 0.11535
H	-1.825293337	-0.1794503587	 0.7174808302	 0.278573
H	 0.15618566	-0.1208874377	-2.0572905732	 0.121005
H	 2.6403183644	-0.6043575714	-0.8998947916	 0.290168
H	 0.866138986	-4.2307108145	-1.3902678083	 0.199096
75.6815	142.3506	197.6588	204.0968	212.1634	246.7435	257.4734	268.5174	309.9572	352.6463	385.8475	443.1141	477.8935	563.6108	608.4648	631.3392	666.0429	769.4397	878.817	924.6975	961.8966	1007.2271	1011.9207	1069.4597	1137.2078	1190.1178	1220.1494	1262.5778	1339.1819	1370.7834	1390.2705	1407.6835	1409.8211	1478.996	1487.0033	1498.2418	1511.5345	2232.633	3031.7445	3036.8792	3040.8939	3098.3564	3103.2435	3128.4594	3135.1684	3502.509	3813.711	3823.5498
CC(C)(O)C(O)C#C	CC(C)(O)[C@@H](O)C#C	
InChI=1S/C6H10O2/c1-4-5(7)6(2,3)8/h1,5,7-8H,2-3H3	InChI=1S/C6H10O2/c1-4-5(7)6(2,3)8/h1,5,7-8H,2-3H3/t5-/m0/s1
