18
gdb 93769	3.00258	1.29569	0.93607	6.3671	78.66	-0.2261	-0.0287	0.1975	1215.0443	0.149141	-439.13773	-439.129414	-439.12847	-439.170324	32.644	
N	 0.0551773893	 1.3463483529	 0.1953228123	-0.558748
C	-0.0172169279	-0.0036371087	 0.026489187	 0.396443
C	-1.1958352877	-0.686641546	 0.0402722594	-0.289661
C	-1.2462148224	-2.1245001662	-0.0696233451	 0.356791
O	-2.277442365	-2.774282738	-0.2046420888	-0.397494
C	 0.086762758	-2.8861873974	-0.011622187	 0.058807
O	-0.0795186749	-4.1713198007	-0.5409939738	-0.451142
C	 1.1709918386	-2.1003602458	-0.7464904414	-0.237017
C	 1.3123993308	-0.7083385832	-0.1216395681	-0.315575
H	 0.8876319156	 1.8352754878	-0.087427937	 0.261252
H	-0.7941229718	 1.8877528266	 0.2009538815	 0.265024
H	-2.1442838305	-0.161451814	 0.1067233991	 0.082873
H	 0.3684016916	-2.9417390372	 1.058878172	 0.076598
H	-1.0458553169	-4.28813965	-0.5688210286	 0.287408
H	 2.1226387689	-2.6380482093	-0.700669549	 0.110739
H	 0.8919518229	-2.0172948371	-1.8029063348	 0.112683
H	 1.9901812276	-0.0832447755	-0.7162458429	 0.106445
H	 1.7688157438	-0.7876461282	 0.8752846053	 0.134573
95.2229	170.1834	214.7685	311.967	318.4485	356.4275	382.1396	403.3441	464.7502	499.453	523.0876	553.8357	591.1697	667.9709	716.9778	775.9857	840.5432	872.88	892.2991	1000.5992	1049.1912	1080.7208	1096.0303	1152.9021	1166.5209	1225.1068	1255.7367	1293.8897	1304.6435	1331.8937	1350.1656	1399.3594	1426.5048	1453.6884	1469.1338	1497.4318	1635.9758	1670.2085	1734.7054	2902.4345	3013.2096	3041.3624	3054.676	3094.3271	3169.1818	3597.0929	3633.4246	3713.9635
NC1=CC(=O)C(O)CC1	NC1=CC(=O)[C@@H](O)CC1	
InChI=1S/C6H9NO2/c7-4-1-2-5(8)6(9)3-4/h3,5,8H,1-2,7H2	InChI=1S/C6H9NO2/c7-4-1-2-5(8)6(9)3-4/h3,5,8H,1-2,7H2/t5-/m0/s1
