18
gdb 13603	4.43419	1.24363	1.17132	2.7604	71.53	-0.2224	0.018	0.2404	1106.5646	0.153235	-381.120715	-381.11171	-381.110766	-381.154715	31.723	
C	 0.9427770905	 1.5336566517	-0.026595038	-0.334157
N	 1.0554550001	 0.1052350989	-0.2429925139	-0.327329
C	 0.1646039831	-0.5976027036	-1.0014579032	 0.433968
O	-0.787715854	-0.0751254339	-1.5630289304	-0.389657
C	 0.4669279185	-2.0699576116	-1.0829221399	-0.119803
C	-0.6556918058	-2.9896583091	-1.4470385456	-0.235465
N	 0.4475645645	-2.7954474763	-2.3623125434	-0.086179
C	 0.1998290038	-2.080136906	-3.6134047895	-0.32561
H	 1.7943933783	 2.0734256508	-0.4563554926	 0.126992
H	 0.0283606757	 1.8646188656	-0.5200297355	 0.172802
H	 0.8819685254	 1.7694266598	 1.0415100187	 0.126222
H	 1.8321377618	-0.3867115329	 0.1658079152	 0.248168
H	 1.2403870252	-2.4255711261	-0.4032700863	 0.078162
H	-0.723902338	-3.966355212	-0.9743252411	 0.112377
H	-1.6005152371	-2.4979152674	-1.670030453	 0.135193
H	-0.5285140013	-1.2668422806	-3.5272155572	 0.148506
H	 1.1473774314	-1.6698076271	-3.9775428896	 0.116326
H	-0.1545475122	-2.8103621402	-4.3475654148	 0.119483
55.5208	88.5605	139.3625	187.9056	193.4741	252.9154	309.4077	372.376	405.9064	434.5021	483.5627	679.7523	726.0513	794.4669	863.9287	898.0714	1002.7427	1039.0411	1060.092	1108.1578	1124.2692	1131.0169	1154.5827	1169.1224	1177.1586	1214.0644	1232.0306	1336.8516	1403.1659	1438.9699	1444.2255	1485.9218	1492.618	1496.4869	1500.4961	1511.8511	1562.7923	1758.397	3025.9919	3027.4996	3079.394	3096.1659	3099.4804	3103.0207	3104.8567	3154.7037	3189.0119	3652.4313
CNC(=O)C1CN1C	CNC(=O)[C@H]1CN1C	
InChI=1S/C5H10N2O/c1-6-5(8)4-3-7(4)2/h4H,3H2,1-2H3,(H,6,8)	InChI=1S/C5H10N2O/c1-6-5(8)4-3-7(4)2/h4H,3H2,1-2H3,(H,6,8)/t4-,7?/m1/s1
