21
gdb 92458	2.21243	1.74393	1.43622	1.8481	76.34	-0.2516	0.071	0.3226	1029.2628	0.185358	-424.242134	-424.234082	-424.233138	-424.274182	32.784	
O	 0.0072053428	 1.4257672353	-0.0978838152	-0.4428
C	 0.0344884152	 0.0087560381	 0.0106947768	 0.142118
C	 0.6660340269	-0.5298114063	 1.3383640175	-0.245858
C	-0.4828473786	-1.3421812985	 1.9762650926	-0.050503
C	-1.5622744019	-0.3678564008	 2.4935392766	-0.219548
C	-2.1861570347	 0.2014104771	 1.1757600596	-0.219171
C	-1.4082746147	-0.5389504623	 0.0670279896	-0.0424
C	-1.1854017279	-1.9138319016	 0.7188068491	 0.138933
O	-0.3873689751	-2.7442103868	-0.1068776868	-0.452694
H	 0.9145658246	 1.7318002351	-0.1846883256	 0.280712
H	 0.553206459	-0.4218296843	-0.8533140504	 0.077598
H	 1.5334570737	-1.161432815	 1.1318422686	 0.092111
H	 0.9874279406	 0.2992533969	 1.9764642332	 0.088947
H	-0.157652296	-2.079059359	 2.7160289052	 0.045212
H	-2.312071212	-0.8941759311	 3.0926432845	 0.090983
H	-1.1332478881	 0.4133722027	 3.1271110686	 0.098491
H	-3.2545523034	-0.0238640232	 1.1128360724	 0.08961
H	-2.0664762844	 1.2807977774	 1.0853691616	 0.124688
H	-1.9057209982	-0.5502859631	-0.9036679015	 0.06407
H	-2.1365135927	-2.4089837667	 0.9647887469	 0.058181
H	-0.1750359254	-3.5417033537	 0.3875416965	 0.281318
114.5549	221.6589	260.0309	267.8327	284.8246	313.0904	362.282	410.6359	497.6698	568.0319	582.2049	734.1055	772.484	806.1597	830.4019	845.4342	886.5387	925.3099	948.0287	975.5363	999.9781	1017.3458	1048.6414	1065.9088	1096.9417	1105.098	1136.9468	1174.1881	1188.0553	1198.8978	1228.7643	1241.0012	1278.9713	1287.8255	1308.3248	1323.4861	1329.9063	1339.5112	1347.0733	1374.6273	1418.3458	1435.2196	1475.6185	1489.9549	1509.959	2991.7861	3029.8315	3044.4643	3051.6307	3062.6781	3071.6665	3088.0242	3102.5	3107.9186	3134.3803	3820.9841	3829.4172
OC1CC2CCC1C2O	O[C@H]1C[C@H]2CC[C@@H]1[C@H]2O	
InChI=1S/C7H12O2/c8-6-3-4-1-2-5(6)7(4)9/h4-9H,1-3H2	InChI=1S/C7H12O2/c8-6-3-4-1-2-5(6)7(4)9/h4-9H,1-3H2/t4-,5+,6+,7+/m1/s1
