15
gdb 43354	3.31052	1.60065	1.12837	2.1694	74.73	-0.2475	-0.0694	0.1781	1016.0175	0.114259	-420.64272	-420.635941	-420.634997	-420.674031	26.143	
O	 0.0639274353	-0.0040699337	 0.2282324605	-0.327765
C	 0.0211469168	 1.1853097963	 0.0154247249	 0.306133
C	-1.1880068629	 2.074782316	 0.0513636228	-0.165425
C	-0.8869611513	 3.3383357238	-0.2907576783	-0.121549
C	 0.5483419947	 3.4374757769	-0.7608684887	 0.048182
O	 1.3879100978	 4.4585731088	-0.2364045001	-0.281453
C	 2.6480828289	 3.8482429441	 0.0758681991	-0.114279
C	 2.3490900097	 2.3698161191	 0.2214635504	-0.211899
C	 1.1307983407	 2.142466395	-0.2603624869	 0.14614
H	-2.1603929488	 1.6956219791	 0.3418001605	 0.124905
H	-1.5796605329	 4.1717456071	-0.3254317246	 0.127344
H	 0.5482899123	 3.4995571294	-1.8649725206	 0.097181
H	 3.3910504651	 4.0546601903	-0.7128960185	 0.113684
H	 3.0266202352	 4.2858275073	 1.0077361397	 0.126831
H	 2.9925295394	 1.6730282207	 0.7431339299	 0.131968
124.0613	168.9534	258.496	307.8328	356.924	479.5756	582.6875	669.8509	695.6059	725.0403	751.2251	814.6916	867.253	892.7352	931.9622	977.3898	992.0526	999.4132	1024.829	1061.9433	1096.1132	1120.7865	1193.2518	1207.6012	1252.9157	1307.1975	1340.8636	1355.0073	1370.1495	1504.8188	1620.0473	1713.7423	1808.4189	2926.3763	2965.6812	3047.0494	3196.0846	3221.3367	3223.8522
O=C1C=CC2OCC=C12	O=C1C=C[C@H]2OC[CH][C]12	
InChI=1S/C7H6O2/c8-6-1-2-7-5(6)3-4-9-7/h1-3,7H,4H2	InChI=1S/C7H6O2/c8-6-1-2-7-5(6)3-4-9-7/h1-3,7H,4H2/t7-/m1/s1
