20
gdb 120807	2.34545	0.98267	0.79202	1.5205	81.08	-0.2286	0.0393	0.2678	1491.3963	0.168526	-403.066233	-403.056032	-403.055088	-403.102178	36.649	
O	-4.6831862889	-0.3163088491	-1.6688323527	-0.420724
C	-4.05523747	-1.3861543457	-0.9793325578	-0.070166
C	-2.547794774	-1.2353438505	-1.1618155535	-0.218166
C	-1.7857196999	-2.282696629	-0.3776390574	 0.014621
C	-1.4258253168	-3.6081051829	-0.9648662443	-0.25533
N	-0.3886342941	-2.6374515353	-0.6359293177	-0.107171
C	 0.3948042943	-1.9823556563	-1.6932483561	-0.284874
C	-0.0474291869	-2.1219840304	-3.0842784261	 0.30447
C	-0.3836990721	-2.2700247097	-4.2299195121	-0.461751
H	-5.6344982728	-0.4088596607	-1.5642550536	 0.285506
H	-4.3051482143	-1.3692449827	 0.0946237502	 0.083584
H	-4.3784943421	-2.3630473705	-1.372745185	 0.090043
H	-2.3134265159	-1.2900813094	-2.2273597882	 0.129856
H	-2.2634106709	-0.2318843713	-0.819654451	 0.1075
H	-1.9986501509	-2.258429356	 0.6921597074	 0.087406
H	-1.4333750584	-4.512024372	-0.3605826167	 0.110385
H	-1.6628624867	-3.7578702621	-2.016502752	 0.12267
H	 0.4755058139	-0.9184918846	-1.4397873257	 0.139475
H	 1.4117735807	-2.3890235083	-1.6241291118	 0.141285
H	-0.6833326042	-2.3828243336	-5.242666016	 0.201383
59.3687	75.0911	99.6846	112.0664	168.9809	249.5749	262.28	309.4545	328.1365	382.9444	448.307	497.5561	584.1696	614.209	663.6108	742.8433	806.7579	866.6992	905.2713	939.2437	964.265	1001.3413	1023.7811	1078.4663	1080.8651	1122.7875	1136.9072	1168.8343	1182.3965	1233.7787	1247.002	1281.7698	1311.5699	1331.2374	1332.3041	1367.648	1430.1572	1462.086	1468.9115	1495.2516	1512.295	1527.8728	2223.328	2959.793	2989.1862	3022.9462	3033.3206	3056.345	3085.4765	3096.4272	3115.6095	3180.4343	3502.3945	3831.1238
OCCC1CN1CC#C	OCC[C@H]1CN1CC#C	
InChI=1S/C7H11NO/c1-2-4-8-6-7(8)3-5-9/h1,7,9H,3-6H2	InChI=1S/C7H11NO/c1-2-4-8-6-7(8)3-5-9/h1,7,9H,3-6H2/t7-,8?/m0/s1
