17
gdb 15135	9.70878	0.71066	0.69189	2.5209	68.08	-0.2622	0.0221	0.2843	1579.454	0.140877	-400.967637	-400.958859	-400.957915	-401.002888	29.468	
N	-0.0391390467	 1.2200414526	-0.0044329549	-0.437748
C	-0.1185046673	-0.0194436982	-0.2287086871	 0.127062
O	-1.1349573524	-0.7346448788	 0.2887496503	-0.183327
C	-1.0846338057	-2.1487081291	 0.100779034	-0.06804
C	-2.4744059188	-2.7072047645	 0.3819417373	-0.235622
C	-2.5004570483	-4.2106064327	 0.2616037769	 0.089528
C	-3.6305622936	-4.9296687677	-0.3368768617	-0.177891
O	-2.4165532149	-4.7424086264	-1.0660503736	-0.236368
H	 0.7701817777	 1.6072411321	-0.4851829301	 0.228872
H	 0.5737699359	-0.6180570327	-0.8379002235	 0.084811
H	-0.783771648	-2.3904623637	-0.9265155823	 0.125745
H	-0.3442862053	-2.5863046061	 0.7853324554	 0.108444
H	-2.7816530024	-2.4120400037	 1.3920352915	 0.121936
H	-3.1866262261	-2.2647968617	-0.3215838992	 0.120115
H	-1.88769852	-4.7512553881	 0.9861390714	 0.095428
H	-3.8423927051	-5.9543563232	-0.0352728092	 0.118638
H	-4.487813839	-4.3668999281	-0.7040708953	 0.118418
33.1059	69.168	84.7924	119.0675	152.1556	253.7952	333.1351	455.4311	457.7621	641.5143	780.1671	816.5877	824.1407	878.0985	950.5706	992.1069	1026.0991	1045.9138	1071.5478	1112.7867	1142.0472	1155.9975	1160.9469	1178.8206	1238.3932	1288.8671	1298.7184	1313.8809	1318.5182	1407.8138	1431.1108	1452.1385	1478.4446	1518.3069	1531.2079	1748.8015	2999.1587	3018.8332	3044.6474	3051.714	3082.2687	3086.2413	3103.3588	3171.761	3518.0422
N=COCCC1CO1	[NH][CH]OCC[C@H]1CO1	
InChI=1S/C5H9NO2/c6-4-7-2-1-5-3-8-5/h4-6H,1-3H2	InChI=1S/C5H9NO2/c6-4-7-2-1-5-3-8-5/h4-6H,1-3H2/t5-/m0/s1
