19
gdb 58061	2.37489	1.33014	1.08036	3.6255	75.84	-0.238	0.0254	0.2634	1206.2474	0.157665	-419.174803	-419.165068	-419.164124	-419.209537	34.676	
C	-0.5417709144	-0.4327605842	-2.4028528207	-0.343068
N	-0.3876897845	-0.0609378058	-0.9961689973	-0.059074
C	-0.1752659065	 1.3728350037	-0.8334674162	-0.330784
C	-1.4346108492	-0.5770211888	-0.1243352481	-0.147509
C	-2.7974415808	-0.1202621523	-0.5043462441	 0.287786
N	-3.8292857481	 0.29069662	-0.8246735369	-0.342738
C	-1.3625912825	-2.0943981525	-0.0055548963	 0.0676
C	-2.5136865016	-2.9280441203	 0.3579354038	-0.191485
O	-2.0282676055	-2.8782678099	-0.9878054533	-0.218281
H	 0.3605712585	-0.1324752888	-2.9429097708	 0.122652
H	-0.6598133406	-1.5129318022	-2.4990157619	 0.154257
H	-1.4093358288	 0.0515765839	-2.8817212539	 0.12138
H	-1.0318892602	 1.983060613	-1.1682147426	 0.120602
H	 0.0222515156	 1.6035300146	 0.218268928	 0.120119
H	 0.701101601	 1.6704885544	-1.4160626807	 0.127978
H	-1.2397386375	-0.1757637337	 0.8794414487	 0.130705
H	-0.3581441676	-2.433012833	 0.2477543328	 0.113582
H	-2.3432245664	-3.8670369842	 0.8810107457	 0.124938
H	-3.4874398508	-2.468354134	 0.5128510436	 0.14134
83.4637	88.4463	127.9824	166.6774	188.0483	237.0173	247.3216	337.065	355.6332	362.3335	398.9467	462.0714	617.6729	649.0297	805.9195	846.2981	891.2973	912.9487	965.4525	1063.817	1070.3076	1096.4647	1098.2807	1125.8871	1167.4063	1167.8236	1191.0431	1210.2125	1279.8471	1304.64	1328.6705	1364.2204	1417.4879	1450.411	1478.6519	1483.2261	1499.4297	1503.3329	1518.7929	1525.7036	2345.0614	2962.5718	2973.2796	3025.5228	3067.0269	3084.0485	3096.1417	3110.4969	3120.6674	3144.048	3188.8408
CN(C)C(C#N)C1CO1	CN(C)[C@@H](C#N)[C@H]1CO1	
InChI=1S/C6H10N2O/c1-8(2)5(3-7)6-4-9-6/h5-6H,4H2,1-2H3	InChI=1S/C6H10N2O/c1-8(2)5(3-7)6-4-9-6/h5-6H,4H2,1-2H3/t5-,6+/m0/s1
