21
gdb 118254	4.53563	0.60639	0.58143	1.839	75.92	-0.2603	0.0655	0.3258	1926.8404	0.180071	-461.328927	-461.318417	-461.317473	-461.365592	37.194	
O	-0.0794776701	 1.4264435328	-0.0840552992	-0.423679
C	 0.0015648473	 0.0080818862	-0.0998796314	-0.07711
C	-1.4148990381	-0.5372764094	 0.031870467	-0.193887
C	-1.4690514821	-2.0660466173	 0.0645141666	 0.12239
O	-0.6877340061	-2.5993497342	 1.1366358315	-0.434506
C	-2.9099232039	-2.5966716461	 0.1203607426	-0.248062
C	-2.9660471327	-4.1014977586	 0.0240845835	 0.101673
C	-4.0923023276	-4.8041192695	-0.5999970987	-0.183361
O	-2.8542827613	-4.6497496194	-1.2955499625	-0.239394
H	 0.8141296856	 1.7770512208	-0.1387049044	 0.285683
H	 0.450021684	-0.3565108443	-1.0386390459	 0.086794
H	 0.6201304689	-0.3723993812	 0.7249802994	 0.096494
H	-1.8662891167	-0.1311116801	 0.9485110254	 0.093224
H	-2.0190473151	-0.1640290253	-0.8032624051	 0.109082
H	-0.9933661049	-2.465889416	-0.8396657839	 0.106729
H	-1.0352668766	-2.2325033016	 1.9580824869	 0.276492
H	-3.37526102	-2.2702848121	 1.0623978162	 0.089816
H	-3.4964589096	-2.1633959791	-0.697525859	 0.106365
H	-2.3765566495	-4.6330215316	 0.770452836	 0.102581
H	-4.335779406	-5.8212105404	-0.2953174869	 0.113336
H	-4.9277421154	-4.2298068737	-0.999991538	 0.109343
54.301	66.0175	93.1514	115.3403	129.4631	212.2922	267.1564	303.6689	320.4209	357.581	386.3086	437.3794	486.4718	592.1769	786.5477	801.4897	849.5633	879.3721	944.2265	958.2321	998.94	1043.5561	1061.8099	1078.3689	1099.564	1113.2796	1137.3496	1159.1419	1169.6484	1206.8505	1216.4722	1241.2177	1287.3874	1296.6533	1300.3064	1333.5679	1357.395	1386.0811	1420.2839	1445.2024	1460.0909	1461.0713	1487.8395	1531.2025	1532.4374	2968.1736	3003.1922	3011.7379	3018.9285	3044.0978	3065.9761	3077.7563	3078.9475	3123.2078	3164.0683	3787.7905	3831.25
OCCC(O)CC1CO1	OCC[C@@H](O)C[C@H]1CO1	
InChI=1S/C6H12O3/c7-2-1-5(8)3-6-4-9-6/h5-8H,1-4H2	InChI=1S/C6H12O3/c7-2-1-5(8)3-6-4-9-6/h5-8H,1-4H2/t5-,6+/m1/s1
