17
gdb 77172	2.90939	1.24565	1.01805	2.333	70.18	-0.2489	0.0192	0.2681	1189.2501	0.136212	-455.106427	-455.097906	-455.096962	-455.140199	31.077	
N	 0.3184680991	 1.1232653578	 0.389226593	-0.518854
C	 0.0396337783	-0.2093278454	-0.089461031	-0.12357
C	-1.4485973718	-0.6191158082	-0.2797511787	 0.099417
O	-1.1566867196	-1.0300822268	-1.653740264	-0.271871
C	 0.1448616617	-0.5683260207	-1.569165909	 0.416451
N	 1.0288248435	-0.4473820958	-2.448394065	-0.546877
C	-1.9821070877	-1.73583227	 0.5711542322	 0.044642
C	-2.4787912723	-2.990764542	-0.0060450358	-0.170455
O	-1.1917579673	-2.9213448106	 0.6166873387	-0.232935
H	 1.3132460056	 1.2294235394	 0.5588165221	 0.247196
H	 0.0749994599	 1.8133345934	-0.3157976869	 0.236859
H	 0.5650508011	-0.9398445748	 0.5306367908	 0.133983
H	-2.1353063935	 0.2344358701	-0.2773131135	 0.094847
H	 0.7010718499	-0.7667139774	-3.3618162448	 0.229212
H	-2.371834775	-1.40913871	 1.5366939439	 0.107053
H	-3.2277292778	-3.5692041777	 0.5321526111	 0.118798
H	-2.459919324	-3.1144991412	-1.0855876432	 0.136105
69.0482	85.7859	172.4455	196.3093	233.7486	254.8007	333.2364	395.5614	509.6123	620.4314	674.0243	724.4115	804.7535	830.6115	868.9787	891.9973	909.5802	939.5005	965.7745	1009.8788	1012.0763	1088.4544	1102.5608	1163.7401	1170.4627	1170.7389	1188.8492	1228.0581	1235.0346	1285.4116	1304.2159	1378.2495	1424.193	1433.6191	1520.849	1670.4743	1825.2299	3055.3848	3094.0808	3096.3262	3105.3127	3196.3108	3472.4949	3499.2178	3578.1645
NC1C(OC1=N)C1CO1	N[C@H]1[C@@H](O[C]1[NH])[C@H]1CO1	
InChI=1S/C5H8N2O2/c6-3-4(2-1-8-2)9-5(3)7/h2-4,7H,1,6H2	InChI=1S/C5H8N2O2/c6-3-4(2-1-8-2)9-5(3)7/h2-4,7H,1,6H2/t2-,3+,4+/m1/s1
