21
gdb 68891	2.39496	1.72971	1.22354	1.2444	83.73	-0.2218	0.0211	0.2428	1096.1651	0.182711	-387.096867	-387.088207	-387.087263	-387.129255	34.937	
C	-0.0429499071	 1.4943846218	 0.0505553374	-0.456454
C	 0.0489988711	-0.0179030261	 0.0062202026	 0.286154
C	 1.4233743632	-0.631286261	-0.1706488274	-0.395846
C	 0.7047808707	-0.7349570584	 1.1690272597	 0.330895
O	 1.1663541262	 0.0680838981	 2.2250470541	-0.474001
C	 0.1329435239	-2.0451552974	 1.5771734701	-0.091192
C	-0.7062144736	-2.7435088593	 0.8117314658	-0.082733
C	-1.155984691	-2.2380493752	-0.534743751	-0.287718
C	-1.1735464852	-0.69877278	-0.5961529658	-0.256333
H	 0.8035769338	 1.9281070647	 0.5850498308	 0.126843
H	-0.0661575994	 1.9087759992	-0.9641390807	 0.108393
H	-0.9579454473	 1.8142897334	 0.5620546933	 0.115368
H	 1.5481420947	-1.5361633976	-0.7557619921	 0.111202
H	 2.2604048007	 0.0587205045	-0.216629853	 0.106083
H	 2.0288905405	-0.2656510369	 2.4937259085	 0.281565
H	 0.4443984477	-2.4139776008	 2.5512301417	 0.080767
H	-1.0750883337	-3.70864702	 1.1467804978	 0.086219
H	-0.5010038776	-2.6378929942	-1.3218924954	 0.111
H	-2.1555801145	-2.6204320447	-0.7697848888	 0.101677
H	-2.0537225788	-0.3382972822	-0.0474396396	 0.102534
H	-1.3018541042	-0.3727573178	-1.635525828	 0.095578
155.0057	182.4852	198.5775	250.9039	272.2212	314.3592	332.8872	411.4905	435.7839	441.1098	523.7277	552.3817	660.665	685.3498	725.1744	755.2569	864.8693	897.0067	918.002	929.4969	945.8298	976.4777	980.3265	1032.115	1041.7072	1049.9791	1107.0793	1144.5164	1180.2889	1201.2618	1226.3478	1254.6499	1283.599	1306.4025	1351.9206	1378.1684	1401.4085	1409.4922	1421.9781	1473.8722	1481.5187	1490.0755	1496.9359	1507.3497	1711.1253	3004.8096	3015.4576	3028.3472	3052.1233	3059.3321	3083.0502	3122.9631	3134.5754	3150.9862	3175.231	3212.6256	3800.2358
CC12CC1(O)C=CCC2	C[C@@]12C[C@]1(O)C=CCC2	
InChI=1S/C8H12O/c1-7-4-2-3-5-8(7,9)6-7/h3,5,9H,2,4,6H2,1H3	InChI=1S/C8H12O/c1-7-4-2-3-5-8(7,9)6-7/h3,5,9H,2,4,6H2,1H3/t7-,8-/m1/s1
