15
gdb 132578	3.18258	1.38716	0.97224	2.4469	72.27	-0.2328	-0.0217	0.2111	1138.2276	0.112932	-458.162408	-458.154252	-458.153307	-458.195575	30.173	
C	-0.015218406	 1.4821381098	 0.0175081482	-0.458112
C	-0.0003609817	-0.0220513138	-0.0091186324	 0.345142
N	-0.0832023366	-0.6183954718	-1.1992968126	-0.300015
C	-0.0689469249	-1.962424825	-1.1900342748	-0.10373
C	 0.031414452	-2.6761437616	-0.0253883337	 0.174891
F	 0.0395534811	-4.0194652497	-0.0013015362	-0.087218
C	 0.1181069288	-1.9701309968	 1.1872686445	 0.28569
N	 0.2591482995	-2.6260821799	 2.3736755999	-0.571423
N	 0.0945169557	-0.6382109587	 1.1792772834	-0.350122
H	 0.915861706	 1.8637074998	 0.4491555959	 0.136699
H	-0.1334458825	 1.8752292101	-0.9921533529	 0.136307
H	-0.8311244815	 1.8440894633	 0.650828554	 0.134869
H	-0.1413486784	-2.4794064135	-2.1437605412	 0.123608
H	 0.0277793079	-3.604384014	 2.4070510477	 0.267608
H	 0.1024326504	-2.0808392283	 3.2057965902	 0.265806
47.0343	130.0658	218.1827	275.603	310.9209	363.6644	386.7452	436.0659	468.3777	503.7897	537.4224	586.9293	675.4575	752.8552	790.2201	797.2493	962.0909	966.8825	1008.4041	1066.0921	1115.3004	1234.1825	1268.5907	1306.3838	1360.1668	1396.3648	1445.1138	1475.6496	1479.882	1515.8844	1607.5056	1623.0763	1656.1393	3046.5941	3102.8047	3156.7592	3164.3023	3602.8477	3729.8029
CC1=NC=C(F)C(N)=N1	Cc1ncc(F)c(N)n1	
InChI=1S/C5H6FN3/c1-3-8-2-4(6)5(7)9-3/h2H,1H3,(H2,7,8,9)	InChI=1S/C5H6FN3/c1-3-8-2-4(6)5(7)9-3/h2H,1H3,(H2,7,8,9)
