23
gdb 58586	2.64385	1.23844	1.1152	1.3761	80.42	-0.2463	0.0728	0.3191	1246.2799	0.205427	-425.435673	-425.425866	-425.424922	-425.470477	37.411	
C	 0.1846129721	 1.5576878121	 0.1017350509	-0.397685
C	-0.0315630221	 0.0360887516	 0.034255593	-0.015004
C	-1.5062370321	-0.3013092907	 0.2996439478	-0.410513
C	 0.529754214	-0.5476014316	-1.2767579711	 0.420212
O	 1.9161054092	-0.1902833503	-1.3066749924	-0.490055
C	 0.412163462	-2.0892493675	-1.4478363308	-0.302487
C	 0.284566928	-2.2719661549	-2.981677157	-0.087707
O	 0.4146923966	-0.9669711611	-3.5556144584	-0.265792
C	-0.1133069724	-0.0649373959	-2.5888193022	-0.144705
H	 1.2257143446	 1.8131345396	-0.0993830281	 0.13695
H	-0.4449555069	 2.0807214504	-0.6281319372	 0.10704
H	-0.0838642912	 1.936748065	 1.0929049056	 0.105805
H	 0.5687790225	-0.4180159277	 0.8340894729	 0.084312
H	-2.1657610427	 0.1272089449	-0.4629499597	 0.11643
H	-1.6967453577	-1.3769707064	 0.3426401012	 0.115215
H	-1.8120342041	 0.1205737431	 1.2621911015	 0.116684
H	 2.2230168032	-0.3736575084	-2.2032290185	 0.281767
H	 1.3065929701	-2.5602906418	-1.0363884656	 0.115524
H	-0.45697935	-2.5030280152	-0.9341320532	 0.103148
H	 1.0613202472	-2.903453826	-3.4201932063	 0.111024
H	-0.6935298511	-2.6987141023	-3.2477436466	 0.096996
H	-1.2126272943	-0.1216037307	-2.5569192714	 0.087424
H	 0.1899303752	 0.9462008039	-2.8661152746	 0.115418
46.3353	71.0515	195.3858	216.853	237.1546	238.2739	277.1914	347.3414	384.8603	406.2342	450.7812	476.6167	502.8171	590.0256	698.2559	799.4147	819.7096	882.3416	924.9818	932.3534	948.1461	962.9033	967.7766	983.3783	1008.0947	1087.8019	1098.7431	1109.5397	1171.1733	1187.7881	1201.8324	1235.9618	1245.6295	1273.2833	1287.5089	1332.3121	1345.3877	1370.9417	1387.2203	1397.9305	1413.8508	1426.0797	1482.156	1490.527	1494.4781	1500.5146	1508.3579	1516.7753	1523.585	2985.0456	2996.0158	3014.6878	3031.7847	3039.8959	3081.5698	3090.0665	3090.8782	3101.801	3111.4143	3116.0703	3132.7775	3142.6768	3779.8261
CC(C)C1(O)CCOC1	CC(C)[C@@]1(O)CCOC1	
InChI=1S/C7H14O2/c1-6(2)7(8)3-4-9-5-7/h6,8H,3-5H2,1-2H3	InChI=1S/C7H14O2/c1-6(2)7(8)3-4-9-5-7/h6,8H,3-5H2,1-2H3/t7-/m1/s1
