17
gdb 133769	2.02963	1.60734	1.21247	3.0711	60.96	-0.2632	0.0634	0.3266	1077.6246	0.131948	-549.497417	-549.488515	-549.487571	-549.531519	32.755	
C	 0.707762035	 0.6589405662	-0.5053910352	-0.385765
C	 0.0161331432	-0.7102279513	-0.4328683852	-0.289292
C	-1.3980769879	-0.6831219966	 0.127348582	 0.14697
C	-1.8548695915	-1.7673922777	 1.0357517336	-0.282534
N	-1.6258033878	-0.4075666278	 1.5508866271	-0.336491
C	-2.4410861967	-0.0403860808	-0.7674887094	 0.289084
F	-2.4176299647	-0.6037382771	-1.9907011404	-0.085953
F	-3.6799058357	-0.1740923156	-0.2863344054	-0.068599
F	-2.2176663483	 1.274037357	-0.9354661127	-0.079496
H	 1.7404273732	 0.5411707488	-0.8462682307	 0.117043
H	 0.196664447	 1.3336739653	-1.194292026	 0.140489
H	 0.7330465611	 1.1445716753	 0.4758802443	 0.118785
H	-0.0093127397	-1.16726098	-1.4279920861	 0.123412
H	 0.6064688919	-1.3836084771	 0.1998482317	 0.099342
H	-2.8932449409	-2.08031033	 1.0348100377	 0.138282
H	-1.1366491336	-2.5490740949	 1.2672644384	 0.117758
H	-0.7308814044	-0.3529833937	 2.0315659763	 0.236964
48.8384	98.5368	193.9866	216.5888	246.4749	279.6243	323.5663	363.8268	410.4796	491.6668	522.5604	581.5195	609.648	738.5827	780.3104	863.5665	895.4004	926.3612	980.1494	1000.108	1041.0063	1098.8581	1115.6003	1156.7108	1178.2657	1192.4333	1210.3686	1257.0379	1290.3545	1335.5726	1381.8252	1418.2712	1436.0757	1478.6321	1499.8018	1508.8142	1510.4266	3033.893	3045.0854	3076.1092	3108.6536	3120.5501	3140.2684	3213.4081	3498.7048
CCC1(CN1)C(F)(F)F	CC[C@]1(CN1)C(F)(F)F	
InChI=1S/C5H8F3N/c1-2-4(3-9-4)5(6,7)8/h9H,2-3H2,1H3	InChI=1S/C5H8F3N/c1-2-4(3-9-4)5(6,7)8/h9H,2-3H2,1H3/t4-/m0/s1
