21
gdb 116485	3.06362	1.20333	0.92166	1.8551	81.22	-0.2444	0.0106	0.2551	1314.8944	0.182936	-424.221542	-424.212616	-424.211672	-424.255416	33.644	
C	 0.1511361451	 1.35712507	 0.2574327987	-0.239566
O	 0.0530558582	-0.0412039887	 0.0581201264	-0.241293
C	 0.6019487004	-0.4843195587	-1.1390266883	 0.174438
O	 2.0014288707	-0.2441726452	-1.1094446343	-0.253231
C	 2.6315402275	-0.2165668335	-2.37626199	-0.068969
C	 2.8590223823	-1.6022215815	-2.9858080531	-0.189019
C	 1.5775777752	-2.3467387893	-3.4001558315	-0.261556
C	 0.6573496539	-2.7375839916	-2.264938806	-0.069434
C	 0.2405620101	-1.9437667405	-1.2814188499	-0.059757
H	 1.194414436	 1.682895927	 0.3216859684	 0.128434
H	-0.3432821386	 1.9093550413	-0.556812044	 0.101531
H	-0.3593057061	 1.5781879512	 1.1971050806	 0.126125
H	 0.1848254506	 0.0991152791	-1.9892022566	 0.051944
H	 2.0498496438	 0.4100400261	-3.0754144854	 0.082975
H	 3.5951237037	 0.2781616153	-2.216869199	 0.105284
H	 3.4957965261	-1.4762689168	-3.8710575409	 0.092478
H	 3.4204834818	-2.2099192269	-2.2675122257	 0.111371
H	 1.0234638566	-1.7253203462	-4.1207608026	 0.109974
H	 1.8618605236	-3.2492994481	-3.950773304	 0.103417
H	 0.3040383636	-3.7660907145	-2.2700698028	 0.092318
H	-0.4297581744	-2.3169267382	-0.5134450801	 0.102536
60.4102	114.911	167.9408	191.5563	239.1449	298.5192	341.1255	368.3086	444.3178	465.0231	517.0761	581.9722	697.8852	717.6837	801.772	887.5849	920.613	950.4536	967.2545	996.6991	1033.2829	1052.6129	1078.9296	1106.1884	1129.2214	1171.2475	1180.1593	1212.3023	1219.5115	1254.0216	1271.9856	1309.8515	1350.0937	1368.5923	1387.8203	1388.7751	1419.8189	1425.1133	1472.0986	1476.8142	1479.8001	1481.8143	1493.5335	1513.1875	1729.9668	2852.434	2952.6852	2988.9125	2992.1606	3023.9805	3066.6209	3070.1955	3074.8287	3078.3078	3128.1417	3149.1517	3185.2729
COC1OCCCC=C1	CO[C@H]1OCCCC=C1	
InChI=1S/C7H12O2/c1-8-7-5-3-2-4-6-9-7/h3,5,7H,2,4,6H2,1H3	InChI=1S/C7H12O2/c1-8-7-5-3-2-4-6-9-7/h3,5,7H,2,4,6H2,1H3/t7-/m0/s1
