12
gdb 21933	5.44835	1.65597	1.28	2.4676	57.63	-0.2671	-0.1056	0.1615	863.3936	0.083828	-410.806923	-410.800033	-410.799088	-410.839557	23.588	
O	 0.380529872	 0.9015830986	-0.7645786423	-0.418928
C	-0.0022743076	 0.1152815388	 0.3257129667	-0.114572
C	-1.4057727214	-0.4204275565	 0.2216938299	 0.385711
N	-1.883319543	-1.1871524775	 1.2042743965	-0.252617
C	-3.1247597831	-1.5896151088	 0.9883189268	 0.114584
N	-3.8727156588	-1.289909389	-0.0858240524	-0.164276
N	-3.3339119615	-0.5285211893	-1.0137143609	-0.042297
N	-2.0961283273	-0.0845335376	-0.8729482682	-0.239661
H	-0.3719466824	 0.9333081288	-1.3724119977	 0.304482
H	 0.6702946963	-0.7487892004	 0.4473117263	 0.135337
H	 0.062530462	 0.6835243658	 1.2674159329	 0.13523
H	-3.5990055352	-2.2199847631	 1.7357226226	 0.157009
18.5462	152.6212	226.617	284.9296	311.1066	454.8799	473.8426	634.1475	708.9181	810.5973	859.2896	976.0423	993.8895	1032.2462	1039.7298	1126.667	1159.4253	1248.3772	1257.1381	1307.2121	1340.4795	1421.2364	1455.4781	1491.3287	1545.173	1569.1244	2984.7538	3000.9528	3182.7074	3728.7895
OCC1=NC=NN=N1	OCc1ncnnn1	
InChI=1S/C3H4N4O/c8-1-3-4-2-5-7-6-3/h2,8H,1H2	InChI=1S/C3H4N4O/c8-1-3-4-2-5-7-6-3/h2,8H,1H2
