20
gdb 107736	3.24996	1.39882	1.26572	0.9364	85.66	-0.2067	-0.0421	0.1647	1094.7708	0.170735	-365.893292	-365.88527	-365.884326	-365.925829	31.769	
C	 0.0541608502	 1.4881769189	 0.1224164653	-0.376406
C	-0.1180847448	-0.0129876893	-0.1401798665	-0.261151
C	 0.6527977871	-0.4849331516	-1.3445498879	 0.33137
C	 0.1320928263	-0.2950935837	-2.842230907	-0.314602
C	 1.2224358406	-1.3302386553	-3.1412254363	 0.023681
C	 2.4293643893	-0.8036410432	-3.4288428832	-0.109823
C	 3.1823693785	-0.6456541763	-2.1138863034	-0.182154
N	 2.1254652918	-0.8467427055	-1.0788005422	-0.159499
C	 1.217215305	-1.8106205751	-1.671158148	-0.150829
H	 1.1064618418	 1.7266513876	 0.3043266201	 0.128502
H	-0.2841190979	 2.0851786539	-0.7313389481	 0.113328
H	-0.522128256	 1.8022264204	 0.9979294667	 0.111753
H	 0.2139742592	-0.5835909353	 0.7327626439	 0.114009
H	-1.1801228815	-0.2461187727	-0.2933280658	 0.095998
H	-0.9093856321	-0.6381631763	-2.8662562573	 0.108206
H	 0.2206823347	 0.6745880488	-3.3393339976	 0.104251
H	 2.5788384299	-0.0893319567	-4.2338813168	 0.100678
H	 3.9893695421	-1.355537467	-1.8886962635	 0.11725
H	 3.6094852641	 0.3633919608	-2.0703708525	 0.116587
H	 1.0349659918	-2.7993698923	-1.2639593196	 0.088848
65.5165	137.6455	210.4112	273.0769	320.6446	343.3238	402.4634	468.5939	559.4123	623.192	681.1582	725.6957	780.6156	793.0446	847.0429	864.6536	893.3094	916.2796	947.3902	987.967	1004.6038	1016.7512	1029.7481	1063.2733	1069.6713	1082.9422	1126.196	1175.3088	1192.3778	1193.6906	1210.4597	1280.8598	1296.5243	1302.6729	1337.2917	1402.2705	1408.4627	1470.2189	1473.563	1497.2039	1500.0943	1507.0309	1581.1538	3014.9628	3020.4422	3025.6055	3035.6583	3061.528	3076.6401	3095.8844	3105.2217	3113.1714	3162.5339	3168.521
CCC12CC3=CCN1C23	CC[C@@]12C[C]3[CH]CN1[C@@H]23	
InChI=1S/C8H11N/c1-2-8-5-6-3-4-9(8)7(6)8/h3,7H,2,4-5H2,1H3	InChI=1S/C8H11N/c1-2-8-5-6-3-4-9(8)7(6)8/h3,7H,2,4-5H2,1H3/t7-,8+,9?/m1/s1
