23
gdb 95344	2.93302	1.30285	1.04295	1.6846	84.95	-0.2396	0.0797	0.3193	1245.8021	0.208398	-388.297265	-388.288908	-388.287964	-388.330053	33.211	
C	-0.253455729	 1.5578900628	 0.0278890705	-0.403035
C	-0.0114401396	 0.0461622196	 0.0033354188	 0.042347
C	 0.6841569062	-0.4027447587	-1.2924245176	-0.187734
C	 0.7651806795	-1.931155358	-1.3789785381	-0.248793
C	 1.3336958932	-2.5771378461	-0.128999977	 0.164279
O	 2.7724230242	-2.4518208995	 0.0167770563	-0.297754
C	 2.6151638831	-2.2580090847	 1.4386518641	-0.084026
C	 1.122371474	-1.9106023763	 1.256330545	-0.079911
C	 0.8368590246	-0.3966782516	 1.2078922365	-0.200341
H	 0.693895555	 2.1066009848	-0.0351223469	 0.113285
H	-0.8761828895	 1.874380429	-0.8155188468	 0.109454
H	-0.7551787511	 1.86762138	 0.9510755769	 0.108163
H	-0.9889553964	-0.4582475669	 0.0567633169	 0.063864
H	 0.1500679086	-0.0132373919	-2.1666432923	 0.08638
H	 1.6941376337	 0.0268208411	-1.3216922648	 0.103295
H	-0.243551245	-2.3371650165	-1.5347607319	 0.094861
H	 1.3662033187	-2.2497175615	-2.2390208029	 0.107515
H	 1.0596167124	-3.6435445577	-0.1046913124	 0.060861
H	 2.7955501891	-3.1896131595	 1.9946361481	 0.089673
H	 3.2739917391	-1.4726755888	 1.8257760078	 0.100367
H	 0.4206535581	-2.4261785159	 1.9163281227	 0.068515
H	 1.78798887	 0.1496838885	 1.1535959551	 0.098488
H	 0.3595086512	-0.083457732	 2.1435726621	 0.090247
102.7047	120.2103	211.6535	236.467	289.5608	328.114	383.7648	431.4358	454.3495	460.2021	635.617	754.9524	780.8011	831.153	852.1648	864.1956	908.1765	929.2081	970.6846	981.0887	993.4777	1004.2555	1049.0089	1076.3533	1102.3041	1126.046	1144.4311	1155.4278	1162.4865	1201.7401	1235.23	1243.6743	1290.8687	1302.9898	1317.5341	1332.8838	1359.1261	1365.5579	1376.6658	1387.6396	1398.617	1404.3891	1412.3353	1466.1643	1481.9692	1496.5696	1500.1174	1501.7918	1524.0678	2968.6333	2980.8661	2994.4786	3015.319	3019.3113	3021.0617	3026.4092	3053.5895	3059.6642	3060.4553	3068.7288	3081.3015	3090.1305	3096.0578
CC1CCC2OCC2C1	C[C@H]1CC[C@H]2OC[C@H]2C1	
InChI=1S/C8H14O/c1-6-2-3-8-7(4-6)5-9-8/h6-8H,2-5H2,1H3	InChI=1S/C8H14O/c1-6-2-3-8-7(4-6)5-9-8/h6-8H,2-5H2,1H3/t6-,7+,8+/m0/s1
