19
gdb 121221	2.75969	0.92198	0.775	4.3967	72.12	-0.2431	-0.0289	0.2142	1480.0601	0.157033	-460.134431	-460.124671	-460.123727	-460.170656	33.573	
O	-0.0515657233	 1.4524245605	 0.1100682883	-0.417586
C	 0.0210348287	 0.0374533617	 0.0966327522	-0.075656
C	-1.402262564	-0.4967583624	-0.0282486364	-0.211193
C	-1.4434428126	-2.0188504699	-0.0685842191	-0.067995
C	-1.152381079	-2.8038573888	 1.2330505235	-0.077195
O	-2.3816811488	-3.5487961335	 1.1179767023	-0.26459
C	-2.8169096415	-2.7666511966	 0.0058163345	 0.022826
C	-4.0212842937	-1.8947735513	 0.2981628648	 0.141199
O	-4.5179239919	-1.7470943299	 1.3824363998	-0.234775
H	 0.838033173	 1.8012484456	 0.2176488829	 0.288715
H	 0.6288069635	-0.3258374704	-0.7489778037	 0.08645
H	 0.4853296802	-0.3485677073	 1.0191276578	 0.092199
H	-1.9921890041	-0.1192695117	 0.8151007237	 0.128896
H	-1.8449051646	-0.0773068669	-0.9396687552	 0.113149
H	-0.8497579601	-2.3908352696	-0.9083702889	 0.090221
H	-0.2745765491	-3.4590699914	 1.228715177	 0.107587
H	-1.1385766161	-2.1859460623	 2.1405317025	 0.111904
H	-3.0508598597	-3.3833477649	-0.8753910939	 0.093721
H	-4.4197217369	-1.3755244708	-0.6063633722	 0.072124
48.2445	64.9557	96.4705	107.6755	142.3854	242.4135	267.3818	269.8294	338.244	415.4801	480.4255	707.5132	752.2798	803.3961	827.6543	899.2348	941.6727	966.6109	984.3598	1026.8573	1040.4268	1086.3073	1097.1533	1133.0138	1157.9925	1175.4282	1211.0428	1234.3195	1254.103	1271.0367	1316.7205	1322.9116	1345.0237	1362.9803	1399.0284	1418.3118	1465.5519	1493.6518	1523.7214	1527.1457	1839.8667	2844.9752	2956.7959	2982.2543	2992.1429	3014.777	3034.3246	3057.1261	3070.9504	3085.6695	3831.8963
OCCC1COC1C=O	OCC[C@H]1CO[C@H]1C=O	
InChI=1S/C6H10O3/c7-2-1-5-4-9-6(5)3-8/h3,5-7H,1-2,4H2	InChI=1S/C6H10O3/c7-2-1-5-4-9-6(5)3-8/h3,5-7H,1-2,4H2/t5-,6-/m0/s1
