23
gdb 118491	2.47635	0.87096	0.6889	3.2067	82.41	-0.252	0.0789	0.3309	1703.1354	0.204305	-425.405159	-425.394618	-425.393674	-425.441613	38.036	
C	-0.0654402073	 1.4766333521	-0.4216312038	-0.381848
C	-0.0021750548	-0.0292309158	-0.1511953902	-0.175356
C	-1.3790047802	-0.6338174446	 0.1517687193	-0.18585
C	-1.3700834984	-2.1518254477	 0.4148071979	-0.056814
C	-0.7759689611	-2.5217720923	 1.7883081944	-0.047687
O	-0.4875596313	-3.8993686331	 1.9018400558	-0.434584
C	-2.7837017953	-2.6928394639	 0.3062961438	 0.084395
C	-3.230240883	-3.5525660969	-0.7966041154	-0.185978
O	-2.9627185232	-4.1101250354	 0.4953061168	-0.255884
H	 0.9261391544	 1.8833865219	-0.6424058658	 0.114879
H	-0.7148173113	 1.6992536803	-1.2757428828	 0.113925
H	-0.4622800972	 2.0183906456	 0.4441178609	 0.115508
H	 0.4299106604	-0.5410139668	-1.0208880893	 0.099269
H	 0.6836833251	-0.2184651486	 0.6827224002	 0.106662
H	-1.8235347911	-0.1202843951	 1.0164989264	 0.096943
H	-2.0470768	-0.4238551737	-0.6947685509	 0.094752
H	-0.7490726091	-2.6481583747	-0.3423610855	 0.080254
H	 0.1706473121	-1.9945859636	 1.9449245615	 0.102379
H	-1.4670431128	-2.1815676164	 2.5809102753	 0.078927
H	-1.262405123	-4.3769142737	 1.5787372435	 0.295832
H	-3.5427595082	-2.1007276693	 0.8219637035	 0.097388
H	-4.2780710978	-3.5667202686	-1.0910035341	 0.121105
H	-2.5228265071	-3.8271902398	-1.5774743716	 0.121782
58.5889	63.9015	102.2304	114.9816	180.2413	233.0284	241.1076	252.7877	310.5903	361.8029	389.8668	476.2344	490.8055	581.5814	738.4714	803.3477	838.5881	853.7641	909.6357	931.1141	952.5468	995.9867	1037.9217	1072.2642	1086.358	1096.387	1114.1855	1154.6316	1157.9398	1161.7077	1182.7018	1240.0249	1251.1948	1291.9853	1296.0185	1315.4896	1341.9621	1345.0875	1389.0136	1399.1321	1413.4691	1446.5122	1461.9431	1484.3862	1493.6675	1499.6609	1510.4808	1512.4746	1526.0283	2940.0409	3002.365	3022.7157	3024.6365	3030.1269	3036.0725	3061.3834	3072.1182	3088.069	3092.9033	3097.5816	3104.1421	3178.1211	3765.5925
CCCC(CO)C1CO1	CCC[C@@H](CO)[C@H]1CO1	
InChI=1S/C7H14O2/c1-2-3-6(4-8)7-5-9-7/h6-8H,2-5H2,1H3	InChI=1S/C7H14O2/c1-2-3-6(4-8)7-5-9-7/h6-8H,2-5H2,1H3/t6-,7+/m0/s1
