19
gdb 114678	3.33149	1.36716	1.28887	1.7378	74.63	-0.2384	0.0134	0.2518	1067.4717	0.160744	-423.009102	-423.001499	-423.000555	-423.041245	29.886	
C	-0.0143936665	 1.370891074	-0.1017997667	-0.235484
O	-0.0206907429	 0.0005814871	 0.2243609922	-0.24784
C	-1.2802526651	-0.61325995	 0.0830708376	 0.150885
C	-1.7193891662	-0.9502857062	-1.3774048169	-0.259799
C	-1.8728746565	-2.5034702641	-1.2709894235	 0.017994
O	-2.3804777525	-2.634825932	 0.067397564	-0.249264
C	-1.2546938867	-2.0418900934	 0.719997553	-0.03443
C	-0.0794485268	-2.7866178133	 0.0997141293	-0.054445
C	-0.4716178727	-3.0849599317	-1.1385158095	-0.07961
H	 0.9949347047	 1.744897895	 0.0871623995	 0.126447
H	-0.2636444885	 1.5480218275	-1.1588670661	 0.106815
H	-0.7259203375	 1.9393257194	 0.5179106553	 0.104776
H	-2.0496635178	-0.0088237074	 0.5839723471	 0.072031
H	-2.6762539017	-0.4877766952	-1.6297859513	 0.102979
H	-0.9710791174	-0.6431297966	-2.1113203102	 0.106322
H	-2.5506047315	-2.9663959547	-1.9870950593	 0.079352
H	-1.3668226121	-2.07036197	 1.8025235663	 0.079769
H	 0.8868590524	-2.9289337717	 0.5609755091	 0.110635
H	 0.0978513353	-3.5330863768	-1.9412988598	 0.102869
102.2953	131.3235	187.2562	253.3669	343.6803	431.5591	474.2053	487.0556	592.5629	715.0972	738.9838	797.3545	819.0538	850.422	870.4856	922.4642	926.6321	937.4348	973.871	987.3817	1030.7486	1052.0603	1057.4614	1113.2258	1135.3177	1179.936	1186.1024	1187.7365	1236.8449	1247.4556	1270.5974	1290.7985	1322.181	1340.0633	1346.0083	1385.2779	1479.0514	1482.1265	1487.7638	1509.674	1643.6154	2973.2235	2999.721	3021.0825	3068.6629	3112.0893	3120.5662	3128.5039	3137.2416	3221.0282	3249.8387
COC1CC2OC1C=C2	CO[C@H]1C[C@@H]2O[C@H]1C=C2	
InChI=1S/C7H10O2/c1-8-7-4-5-2-3-6(7)9-5/h2-3,5-7H,4H2,1H3	InChI=1S/C7H10O2/c1-8-7-4-5-2-3-6(7)9-5/h2-3,5-7H,4H2,1H3/t5-,6+,7+/m1/s1
