17
gdb 55341	2.18397	1.53193	1.05392	4.7944	69.73	-0.2406	-0.039	0.2016	1157.9207	0.132863	-458.962503	-458.953267	-458.952322	-458.997866	31.897	
C	 0.0061098713	 1.5735367271	-0.1623889883	-0.486145
C	-0.106104129	 0.0763716088	 0.0306585911	 0.397917
O	-0.1783464813	-0.4349403654	 1.125810207	-0.294292
C	-0.0674836054	-0.7718851606	-1.2262044862	-0.189173
C	 1.3391746502	-1.3975261563	-1.4781581314	-0.069979
O	 0.8598263393	-2.7146366263	-1.1714346792	-0.278672
C	-0.5014459398	-2.256052199	-1.0719923826	 0.051263
C	-1.1891431333	-2.6943455451	 0.2143651835	 0.140813
O	-2.378894425	-2.5994162427	 0.3687418156	-0.258552
H	 0.851789803	 1.8202823062	-0.8143152527	 0.141367
H	-0.8967217817	 1.9450003938	-0.6617227333	 0.152841
H	 0.1189253287	 2.0694131362	 0.8018904649	 0.152033
H	-0.4906314115	-0.2456967318	-2.0828288345	 0.100291
H	 1.6884398003	-1.3125872172	-2.5140626781	 0.112463
H	 2.1364801411	-1.0800015595	-0.7964479504	 0.120589
H	-1.1133924657	-2.6023622001	-1.9152960172	 0.106953
H	-0.5095520214	-3.1563536781	 0.9578949618	 0.100286
36.109	70.9668	115.2547	142.7466	194.1648	226.7093	267.9679	344.2851	415.0249	492.6228	592.1483	619.9907	765.4281	807.0666	871.6185	930.7504	957.8432	977.1211	1022.23	1047.331	1058.0478	1095.8288	1111.1619	1170.3544	1187.3395	1218.398	1251.2298	1307.931	1348.525	1368.6264	1388.1659	1392.6402	1460.8267	1473.6046	1521.4491	1802.1505	1824.3489	2938.6796	3018.7791	3025.8774	3034.3732	3068.6325	3093.5628	3104.9455	3157.3311
CC(=O)C1COC1C=O	CC(=O)[C@H]1CO[C@H]1C=O	
InChI=1S/C6H8O3/c1-4(8)5-3-9-6(5)2-7/h2,5-6H,3H2,1H3	InChI=1S/C6H8O3/c1-4(8)5-3-9-6(5)2-7/h2,5-6H,3H2,1H3/t5-,6+/m1/s1
