17
gdb 49271	2.47469	1.7258	1.11449	2.9342	78.36	-0.2231	-0.0657	0.1574	1073.9213	0.135	-421.826506	-421.818435	-421.817491	-421.859552	30.148	
O	-0.1290309401	 0.0187852212	-0.1867178073	-0.273322
C	-0.015485418	 1.2193227897	-0.0673725243	 0.071326
C	 1.2612205181	 1.9360910148	-0.0188551772	 0.182107
C	 1.3835041533	 3.2633963025	 0.1130874254	-0.211963
C	 2.8349528512	 3.6348811671	 0.1234392316	-0.12969
O	 3.536864273	 2.4047657752	-0.0142819186	-0.310572
C	 2.612717778	 1.328701956	-0.1056308299	 0.359906
C	 3.0113829652	 0.0177639364	 0.5164831515	-0.324924
C	 2.9830862151	 0.1701470062	-0.9916665005	-0.324924
H	-0.9092657576	 1.8753781821	 0.0156519022	 0.082106
H	 0.5738744857	 3.9778264551	 0.200551319	 0.124226
H	 3.0939650662	 4.3168508315	-0.7025244389	 0.119364
H	 3.1270078047	 4.1385212262	 1.0590932046	 0.119357
H	 3.9807822271	 0.0051699422	 1.0019325631	 0.123051
H	 2.2408470393	-0.586302967	 0.9793455525	 0.135446
H	 2.1936308997	-0.3320430659	-1.5370358667	 0.135455
H	 3.9337402391	 0.2585132066	-1.5054790565	 0.123052
61.3095	117.9138	175.5724	232.9966	287.1809	325.5214	381.7851	439.898	596.1404	597.9531	711.1822	768.0066	796.969	807.8953	865.7642	901.6155	936.7347	953.492	980.1316	1029.4469	1038.9585	1055.5305	1075.9097	1092.2716	1171.7791	1195.1986	1195.953	1223.8824	1303.6762	1379.6304	1408.7405	1432.8189	1436.9548	1483.7774	1508.3993	1675.9359	1781.9103	2893.6364	2970.2822	2984.7694	3142.645	3143.5813	3214.2288	3234.0347	3246.1848
O=CC1=CCOC11CC1	O=CC1=CCOC21CC2	
InChI=1S/C7H8O2/c8-5-6-1-4-9-7(6)2-3-7/h1,5H,2-4H2	InChI=1S/C7H8O2/c8-5-6-1-4-9-7(6)2-3-7/h1,5H,2-4H2
