19
gdb 53331	3.07421	0.96856	0.87716	1.9327	85.07	-0.2273	0.0288	0.256	1437.155	0.156826	-385.825769	-385.816179	-385.815235	-385.86145	34.39	
C	 0.0507295034	 1.5013177809	-0.0451802315	-0.49979
C	 0.0124596964	 0.0487082625	 0.0286268862	 0.0751
C	-0.0163385274	-1.1537644594	 0.0960537344	 0.097967
C	-0.0549795779	-2.6026572945	 0.1606112715	-0.117042
O	 0.0913386968	-3.1591195307	 1.5088029258	-0.296289
C	-1.105750233	-3.9213617855	 1.3321415296	 0.060392
C	-2.2851648732	-3.0146421138	 1.1533034632	-0.350578
C	-1.395075078	-3.3400972198	-0.0306587716	 0.267261
C	-1.867928799	-3.9225107155	-1.328004961	-0.4975
H	 0.8500673471	 1.8468610506	-0.7097930426	 0.150258
H	-0.8952651522	 1.906723218	-0.4207066127	 0.149801
H	 0.2288757794	 1.9381043072	 0.9436176124	 0.154887
H	 0.7224387308	-3.0374457554	-0.481656044	 0.099944
H	-1.1251434293	-4.9313726299	 1.7252945436	 0.102294
H	-3.2542040108	-3.5047867961	 1.1241051416	 0.10949
H	-2.275254746	-2.0284776909	 1.6085774234	 0.122817
H	-2.2224299139	-3.1382679928	-2.0074936855	 0.128457
H	-1.0678237899	-4.4713739842	-1.8376266309	 0.120066
H	-2.6988511629	-4.6163900307	-1.166411962	 0.122466
27.5786	81.4772	88.8133	184.8005	206.1803	243.1782	299.7641	331.1559	378.708	447.4109	488.1799	517.8368	651.5261	737.7282	822.1433	844.5091	893.3159	937.7978	956.2487	998.0948	1012.3311	1031.2481	1050.3183	1054.0099	1074.5076	1100.1284	1123.4702	1187.1581	1223.5682	1254.2439	1279.7058	1356.1467	1399.3819	1413.246	1424.1308	1475.8555	1478.0042	1485.4357	1487.1793	1498.6927	2365.8909	3013.0292	3023.1267	3028.0764	3081.9765	3089.3556	3090.8104	3099.3673	3115.8155	3178.6374	3207.296
CC#CC1OC2CC12C	CC#C[C@H]1O[C@H]2C[C@@]12C	
InChI=1S/C8H10O/c1-3-4-6-8(2)5-7(8)9-6/h6-7H,5H2,1-2H3	InChI=1S/C8H10O/c1-3-4-6-8(2)5-7(8)9-6/h6-7H,5H2,1-2H3/t6-,7+,8+/m1/s1
