21
gdb 41630	2.75234	1.73202	1.45041	1.4048	80.07	-0.2348	0.0699	0.3047	1002.4401	0.185536	-387.073515	-387.066231	-387.065287	-387.105751	29.697	
C	 0.2896332204	 1.4316407845	-0.5565609107	-0.25554
C	 1.5136117808	 1.6018421374	 0.3874445326	-0.24074
C	 1.4699919835	 0.0794983526	 0.7026941288	-0.053172
C	 0.0574500903	 0.0160851789	 0.0568562967	 0.131089
O	-0.0346212457	-1.0994651078	-0.8035819447	-0.270671
C	 1.2447663134	-1.6736955716	-1.0220657952	 0.11275
C	 1.9752652656	-1.2384448334	-2.3226002205	-0.234658
C	 2.9899213585	-0.4172167631	-1.4759161082	-0.243456
C	 2.2937278631	-0.8956321012	-0.1620081594	-0.047573
H	-0.5237748117	 2.1531602445	-0.4502302714	 0.0978
H	 0.5631149382	 1.3710108453	-1.6125569668	 0.108076
H	 2.4336347741	 1.9983241674	-0.0478833325	 0.101358
H	 1.2751751617	 2.1978888971	 1.2718895588	 0.101033
H	 1.541969714	-0.1890443898	 1.7586125034	 0.067712
H	-0.7892826867	-0.0166528544	 0.748918802	 0.075507
H	 1.1586956188	-2.7548244535	-0.8745017868	 0.071857
H	 2.4204040757	-2.0680133179	-2.8777994757	 0.097478
H	 1.343199522	-0.6652092522	-3.0040534744	 0.107174
H	 4.0276587905	-0.7455358043	-1.5664223904	 0.100366
H	 2.9690548787	 0.6602730097	-1.6504509345	 0.102951
H	 2.9384136648	-1.5209340383	 0.4574842889	 0.07066
46.4486	120.21	270.6102	348.2248	407.5683	442.4103	596.7491	640.6923	702.2182	721.7862	735.7651	777.5113	807.2072	860.9732	875.4812	909.3151	927.3599	948.4469	963.6434	971.533	982.8709	1042.9535	1062.6884	1086.3916	1119.3863	1136.4897	1151.6496	1183.8179	1202.36	1223.6368	1235.9704	1250.2873	1254.8458	1263.8593	1270.2624	1276.1793	1279.1774	1326.4799	1341.7101	1355.2587	1382.6164	1469.2369	1477.1542	1487.9811	1502.8854	3047.5317	3057.4513	3060.6308	3063.6673	3066.0178	3071.0453	3075.2431	3094.3736	3104.4226	3109.2545	3123.1427	3127.9811
C1CC2C1OC1CCC21	C1C[C@H]2[C@@H]1O[C@H]1CC[C@@H]21	
InChI=1S/C8H12O/c1-3-7-5(1)6-2-4-8(6)9-7/h5-8H,1-4H2	InChI=1S/C8H12O/c1-3-7-5(1)6-2-4-8(6)9-7/h5-8H,1-4H2/t5-,6+,7-,8+
