19
gdb 94927	2.32973	1.47008	1.20585	3.6974	76.31	-0.2389	-0.0191	0.2198	1116.0217	0.159464	-423.031536	-423.02324	-423.022296	-423.064498	31.461	
C	-0.1067081275	 1.5265911419	-0.1027957055	-0.407106
C	-0.0203795783	 0.0148087759	 0.032640295	 0.124892
O	 0.6259174807	-0.526814236	-1.1245007524	-0.265578
C	 1.1663087712	-1.801032153	-0.7887425986	-0.105578
C	 1.5115109176	-1.7294802091	 0.6913281645	-0.092351
C	 2.2946003484	-0.5138286702	 1.179012914	-0.120562
C	 3.1236110417	 0.3423310134	 0.2879470312	 0.134457
O	 4.1420549661	 0.8740118651	 0.6664729415	-0.27754
C	 0.7639659604	-0.544203024	 1.2118338325	-0.087462
H	 0.8857035435	 1.9835864694	-0.1319490223	 0.132046
H	-0.6369985808	 1.7921185138	-1.021410053	 0.131384
H	-0.6558203166	 1.9484718432	 0.7444495376	 0.120293
H	-1.0437830815	-0.3947011981	 0.1046050997	 0.075108
H	 0.4258749265	-2.6008061455	-0.9495661105	 0.102621
H	 2.0173533336	-1.9842645807	-1.4519626091	 0.118467
H	 1.6094045893	-2.6537310816	 1.2482781772	 0.104072
H	 2.7562112947	-0.6324568096	 2.1546725536	 0.108374
H	 2.7635387716	 0.4610444016	-0.7512092189	 0.10152
H	 0.2943822995	-0.5393922564	 2.1885099437	 0.102942
78.9049	166.4529	185.5739	216.8019	245.795	276.4915	376.6616	400.1159	482.7134	556.3236	648.5529	738.6533	769.1589	835.8888	848.7789	890.9067	965.5069	975.8953	997.21	1032.4058	1071.6998	1080.3846	1084.0203	1104.9233	1121.5145	1133.8566	1159.5356	1213.4733	1242.5103	1321.7112	1331.3037	1338.0841	1353.5185	1389.1837	1413.8334	1418.5293	1445.64	1486.3227	1495.8305	1517.1811	1799.8789	2941.4207	2960.3278	2980.7623	3047.1612	3076.1881	3119.2413	3127.6478	3162.2282	3179.5481	3190.3474
CC1OCC2C(C=O)C12	C[C@H]1OC[C@H]2[C@@H](C=O)[C@@H]12	
InChI=1S/C7H10O2/c1-4-7-5(2-8)6(7)3-9-4/h2,4-7H,3H2,1H3	InChI=1S/C7H10O2/c1-4-7-5(2-8)6(7)3-9-4/h2,4-7H,3H2,1H3/t4-,5-,6+,7-/m1/s1
