21
gdb 95517	2.43913	1.56953	1.24597	1.8648	84.18	-0.2408	0.0107	0.2514	1112.2873	0.183526	-387.093857	-387.0855	-387.084556	-387.126407	33.193	
C	-0.1337708508	 1.5842671065	 0.032112882	-0.397896
C	 0.0186782716	 0.0543127398	 0.0249228566	-0.072483
C	 0.7547483269	-0.4601499017	-1.2270512904	-0.231148
C	 2.2181395195	 0.0063035568	-1.268903695	-0.262007
C	 2.8986445906	-0.1625430157	 0.0630350067	-0.061842
C	 2.2368458554	-0.3758765675	 1.2020505166	-0.106673
C	 0.7553553091	-0.4367312859	 1.2652399184	 0.430098
C	 0.0759772204	-0.4292841634	 2.5714942157	-0.249436
O	 0.2388765963	-1.6546667814	 1.8656839281	-0.294057
H	 0.8357945367	 2.0883854006	 0.0891504861	 0.124233
H	-0.6390467825	 1.927013449	-0.8769046649	 0.112091
H	-0.7265241923	 1.9157916177	 0.8901044954	 0.113512
H	-0.9800819587	-0.3957044825	 0.051221086	 0.081212
H	 0.7334696249	-1.5561275269	-1.2127106544	 0.11228
H	 0.2279959971	-0.1412548491	-2.1330646713	 0.090067
H	 2.7672292816	-0.5564811827	-2.0338413195	 0.107093
H	 2.2837034037	 1.0578792928	-1.5842541198	 0.111396
H	 3.9848271601	-0.1105573605	 0.0771200111	 0.090152
H	 2.7718030513	-0.531869628	 2.1349518291	 0.087325
H	 0.6595002644	-0.3302402656	 3.4871798231	 0.108368
H	-0.9470023351	-0.0575007421	 2.6386949005	 0.107714
90.3871	184.7668	222.1621	235.0892	281.3729	305.5403	373.4023	428.1675	436.0413	548.9083	558.2321	658.9586	731.9658	771.2466	824.6052	839.6579	874.966	925.2964	949.1031	966.8855	989.4133	1002.5468	1026.4131	1046.526	1113.0054	1117.4535	1132.9594	1160.5373	1166.8225	1217.7863	1245.3969	1304.2561	1318.6894	1330.6523	1372.0154	1376.9839	1382.294	1410.296	1446.3814	1470.3785	1488.9065	1498.5968	1508.2005	1525.0982	1712.2873	3003.4397	3029.4278	3036.9064	3043.2546	3048.7937	3066.8414	3075.748	3102.906	3110.9823	3147.3606	3150.2697	3171.9057
CC1CCC=CC11CO1	C[C@H]1CCC=C[C@]21CO2	
InChI=1S/C8H12O/c1-7-4-2-3-5-8(7)6-9-8/h3,5,7H,2,4,6H2,1H3	InChI=1S/C8H12O/c1-7-4-2-3-5-8(7)6-9-8/h3,5,7H,2,4,6H2,1H3/t7-,8+/m0/s1
