20
gdb 114182	3.49882	1.06444	0.90484	3.9425	81.55	-0.2312	-0.0267	0.2045	1351.4671	0.17016	-403.132668	-403.123472	-403.122528	-403.167127	33.935	
C	 0.3749395708	 1.7939218198	-0.2266258528	-0.385063
C	 0.351927043	 0.3006077924	 0.1157207678	-0.194206
C	 0.5168957621	-0.5883412663	-1.1181211574	-0.090029
C	 0.3998565864	-2.1411808719	-0.947995607	-0.377053
C	-0.6609925911	-2.1697114786	-2.062515698	 0.244228
C	-0.7386920823	-3.083073714	-3.2388226457	-0.286934
N	-1.8164767233	-3.0487164838	-2.2481711414	-0.348363
C	-0.685178305	-0.655873003	-2.091974391	 0.353262
O	-1.3761327836	 0.165570682	-2.6244260951	-0.308671
H	 1.3367300694	 2.0818360206	-0.6656815644	 0.111807
H	-0.4083641332	 2.0366783574	-0.949409469	 0.149945
H	 0.2209832949	 2.4036795357	 0.668747344	 0.111219
H	 1.1485890999	 0.0630047174	 0.8320627253	 0.099596
H	-0.5937834536	 0.0488170004	 0.6130202176	 0.101456
H	 1.4264586275	-0.3090652412	-1.6643192946	 0.100117
H	 1.3110762743	-2.7136753357	-1.1322759706	 0.110072
H	-0.0051569636	-2.4196225194	 0.0302045621	 0.111709
H	-0.9994309605	-2.672977501	-4.2105007946	 0.138987
H	-0.0545162586	-3.9282436009	-3.2564998957	 0.120074
H	-1.7373797734	-3.8413803899	-1.6139632096	 0.237848
44.1573	106.1249	158.1048	186.5228	231.292	243.5962	284.714	315.9871	358.2608	514.6188	568.5667	694.6787	716.9719	791.7392	805.9141	826.5694	894.8787	923.5779	957.3678	976.2781	986.5782	1007.9844	1013.3097	1077.4455	1100.1862	1123.9906	1147.7254	1164.7033	1213.9455	1237.6215	1259.0049	1270.2974	1294.1718	1332.2571	1363.7266	1394.0734	1413.5139	1484.4865	1489.2647	1498.6466	1502.4157	1512.3396	1880.5895	3017.1311	3034.2709	3036.004	3053.0619	3054.7097	3101.253	3103.6489	3113.4426	3125.8828	3196.0545	3488.0083
CCC1CC2(CN2)C1=O	CC[C@H]1C[C@]2(CN2)C1=O	
InChI=1S/C7H11NO/c1-2-5-3-7(4-8-7)6(5)9/h5,8H,2-4H2,1H3	InChI=1S/C7H11NO/c1-2-5-3-7(4-8-7)6(5)9/h5,8H,2-4H2,1H3/t5-,7-/m0/s1
