18
gdb 70260	2.85883	1.43818	1.18102	3.8337	75.3	-0.2598	0.0178	0.2776	1089.2191	0.147778	-401.955111	-401.946862	-401.945918	-401.988083	31.378	
C	-0.1555587444	 1.5316694209	 0.0868903345	-0.467524
C	-0.0243195411	 0.0348959161	 0.090055085	 0.431052
C	-0.9033295117	-0.8885615954	 0.887450693	-0.332884
C	 0.5869062856	-0.8016593483	 1.1789647257	-0.100915
C	 1.4930514673	-1.8229879005	 0.4962856561	-0.268265
C	 1.5656842224	-1.2818406522	-0.958334802	-0.042265
O	 0.3870509391	-0.5138139166	-1.1599183742	-0.28512
C	 2.7717596175	-0.4487362706	-1.1668369685	 0.274851
N	 3.7123244378	 0.2048410884	-1.321594566	-0.325323
H	 0.7981241102	 2.0056560779	-0.1649193184	 0.140629
H	-0.9012510534	 1.8514540199	-0.6480538235	 0.13309
H	-0.4733823561	 1.8894598268	 1.070420801	 0.119785
H	-1.5811410436	-0.4509135423	 1.6130865225	 0.116923
H	-1.275175286	-1.7777364074	 0.3891184891	 0.11784
H	 0.9130580895	-0.353634349	 2.1097264152	 0.103422
H	 2.4807684403	-1.8756830164	 0.9579588171	 0.13425
H	 1.0648778633	-2.8295160405	 0.497685638	 0.119155
H	 1.5746678133	-2.0795679306	-1.7067625345	 0.131297
61.4686	135.3295	213.5779	235.3004	246.229	324.5517	397.3034	413.9009	500.3866	552.0559	643.3552	733.6683	766.9472	807.1389	831.1585	866.7547	898.7506	946.1574	957.2362	990.9999	1037.1703	1053.0343	1059.7816	1086.5791	1117.9879	1135.9312	1213.4703	1236.3239	1251.5911	1289.0124	1327.5252	1365.2209	1392.3182	1425.2239	1477.5225	1479.8363	1492.8041	1501.5768	2351.7598	3038.3442	3060.4938	3078.0256	3107.3504	3117.2036	3119.8435	3126.6459	3183.6448	3218.4353
CC12CC1CC(O2)C#N	C[C@]12C[C@H]1C[C@@H](O2)C#N	
InChI=1S/C7H9NO/c1-7-3-5(7)2-6(4-8)9-7/h5-6H,2-3H2,1H3	InChI=1S/C7H9NO/c1-7-3-5(7)2-6(4-8)9-7/h5-6H,2-3H2,1H3/t5-,6-,7+/m1/s1
