15
gdb 124044	3.73891	1.64674	1.16201	1.0591	75.31	-0.1997	-0.0149	0.1847	986.1475	0.116421	-416.827022	-416.8204	-416.819456	-416.857989	26.162	
C	 0.0035337233	 1.4763708547	 0.12339933	-0.142492
O	 1.2883775867	 2.1168612684	 0.0166586106	-0.290217
C	 2.1294659809	 1.5126854513	-0.8579898845	 0.252885
C	 3.243249624	 2.002098001	-1.496283527	-0.170876
N	 3.7528421149	 0.930552158	-2.181053002	-0.190286
N	 3.0461247341	-0.2023904237	-2.0305674785	-0.314326
C	 2.05087819	 0.1457141476	-1.2138070336	 0.248532
C	 0.997785378	-0.6716502858	-0.6538641739	-0.13982
C	 0.0364941999	-0.032446783	 0.024899817	-0.113433
H	-0.3952167891	 1.7960609415	 1.0903297046	 0.123478
H	-0.6621279387	 1.8884974945	-0.6557086513	 0.111499
H	 3.7070917167	 2.9737578332	-1.5129521222	 0.137363
H	 4.5558363891	 0.9238265598	-2.7851533858	 0.275737
H	 1.0220362673	-1.749961537	-0.7628885542	 0.108682
H	-0.7842640169	-0.5662056006	 0.492917111	 0.103274
124.949	185.973	333.9118	421.6989	424.5803	457.4885	523.7597	604.5266	647.9985	686.7462	721.5957	747.8286	791.1296	850.7176	914.8541	951.6137	985.2294	1033.5274	1037.0675	1060.0621	1173.915	1195.1633	1222.957	1269.2629	1318.6961	1374.9893	1400.7073	1430.2568	1480.7913	1496.5396	1540.1222	1632.7042	1689.7539	2942.3272	3080.6054	3179.6174	3204.3874	3277.8415	3686.9007
C1OC2=CNN=C2C=C1	C1Oc2c[nH]nc2C=C1	
InChI=1S/C6H6N2O/c1-2-5-6(9-3-1)4-7-8-5/h1-2,4H,3H2,(H,7,8)	InChI=1S/C6H6N2O/c1-2-5-6(9-3-1)4-7-8-5/h1-2,4H,3H2,(H,7,8)
