18
gdb 92848	3.65099	1.27618	1.00072	2.9	72.71	-0.241	0.0238	0.2648	1155.8314	0.149784	-439.076328	-439.068661	-439.067716	-439.108356	29.89	
O	 0.0486155878	 1.4462736636	-0.0317026204	-0.435808
C	 0.0032016151	 0.0279685186	-0.0493764326	 0.116297
C	 0.8542758773	-0.5626524669	 1.1156282985	-0.1903
N	 0.4857980727	-1.8860305403	 1.6380177515	-0.308058
C	-0.504794196	-2.3931360758	 1.0635994022	 0.449595
O	-1.2847462518	-3.4559839437	 1.4536828397	-0.269153
C	-2.3950321187	-2.931638707	 0.6410368454	-0.132994
C	-1.4313640055	-1.9170016196	-0.0207466445	-0.143838
C	-1.4762361051	-0.3954358173	 0.0198101418	-0.250873
H	 0.9687890415	 1.7198872233	-0.1055869479	 0.285037
H	 0.4041195221	-0.3480639284	-1.0058810678	 0.068803
H	 1.911539561	-0.5762242989	 0.8199874253	 0.102288
H	 0.7776777137	 0.1418276455	 1.9543087073	 0.120782
H	-2.8200792626	-3.7071660433	 0.0014739072	 0.123886
H	-3.161827953	-2.4986615176	 1.2895037879	 0.127086
H	-1.1244737768	-2.2741907576	-1.0088334161	 0.110456
H	-1.9162371565	-0.0395037765	 0.9585144668	 0.115718
H	-2.0301335551	 0.056548502	-0.8072714343	 0.111075
113.8796	178.2893	261.8831	273.6072	303.3619	360.8386	404.4498	426.7088	468.8495	585.6997	674.9623	734.0637	822.8179	857.8877	894.5021	925.6024	960.9633	1000.9664	1041.0945	1061.6913	1100.7426	1121.7908	1134.4692	1150.9112	1179.9069	1187.0881	1236.6703	1251.315	1278.2305	1306.8013	1334.9591	1348.3981	1377.9291	1388.6515	1441.3013	1489.8917	1502.0276	1513.1288	1827.4761	2951.0431	3014.0737	3045.161	3047.7172	3060.7476	3061.9153	3100.963	3129.5246	3812.7227
OC1CN=C2OCC2C1	O[C@H]1C[N][C]2OC[C@H]2C1	
InChI=1S/C6H9NO2/c8-5-1-4-3-9-6(4)7-2-5/h4-5,8H,1-3H2	InChI=1S/C6H9NO2/c8-5-1-4-3-9-6(4)7-2-5/h4-5,8H,1-3H2/t4-,5-/m1/s1
