16
gdb 93307	2.11954	1.93873	1.28545	3.899	66.26	-0.2618	-0.0002	0.2617	998.9534	0.124112	-475.004693	-474.996659	-474.995715	-475.037549	29.955	
O	-0.2793762797	 1.4179925858	 0.8289810714	-0.428874
C	-0.0854384372	 0.2104741151	 0.1097253607	-0.008941
C	 0.7399396751	-0.8233711558	 0.8953945465	-0.118709
O	-0.1956425613	-1.5569153104	 1.7057522242	-0.248597
C	-1.456456583	-1.4531731621	 1.1914279858	 0.38248
N	-2.4788824775	-2.0550025463	 1.6155281926	-0.547759
C	-1.4279669929	-0.4923566689	 0.037435501	 0.351079
C	-2.6344952662	 0.0565139928	-0.5752795799	-0.232125
O	-1.8841276572	-0.9723844932	-1.2288323537	-0.273774
H	 0.5791603607	 1.8328094064	 0.963338722	 0.290162
H	 0.3237696294	 0.3888606245	-0.8918394294	 0.094346
H	 1.2548927609	-1.5189798703	 0.2218077068	 0.12353
H	 1.471317716	-0.3605293648	 1.5630446516	 0.114836
H	-2.2457099026	-2.6756840253	 2.3918816677	 0.228053
H	-3.5956630253	-0.2570021482	-0.1755136361	 0.148137
H	-2.5890358691	 1.0396951509	-1.0389941111	 0.126156
60.8277	156.9411	198.3527	261.6988	270.7935	289.5791	353.212	483.5401	504.6214	560.9338	700.8836	710.0611	776.9885	868.0346	878.4641	906.4093	911.7497	977.3085	988.0099	1026.1437	1085.0802	1116.9539	1133.1662	1159.6371	1186.4866	1218.6966	1240.2741	1300.9301	1321.5985	1386.697	1401.3238	1461.7912	1502.2716	1521.9507	1786.0273	3030.1073	3044.6436	3100.0437	3100.9524	3201.083	3482.5307	3812.1885
OC1COC(=N)C11CO1	O[C@H]1CO[C]([NH])[C@]21CO2	
InChI=1S/C5H7NO3/c6-4-5(2-9-5)3(7)1-8-4/h3,6-7H,1-2H2	InChI=1S/C5H7NO3/c6-4-5(2-9-5)3(7)1-8-4/h3,6-7H,1-2H2/t3-,5+/m0/s1
