15
gdb 10289	2.65332	1.67988	1.28453	4.3931	63.69	-0.2547	-0.0043	0.2504	989.5961	0.118031	-395.981176	-395.972357	-395.971413	-396.014916	30.796	
C	 0.1101108802	 1.3625727764	 0.0678268548	-0.251027
O	-0.2023298694	 0.0025141825	-0.1977751507	-0.246233
C	 0.5568434389	-0.577397588	-1.2354973987	-0.035106
C	 1.989717424	-0.6614821037	-0.8667501177	 0.282963
N	 3.1023820982	-0.6933286631	-0.5572190567	-0.326295
C	-0.0003472706	-1.9741285216	-1.5263757774	 0.319436
N	-0.3577744479	-2.6575407527	-0.3925373993	-0.526314
N	-0.005636773	-2.3515541231	-2.7426527816	-0.503348
H	 1.1491279545	 1.4790060879	 0.4005970653	 0.143054
H	-0.0535019265	 1.9850785569	-0.822530877	 0.123531
H	-0.5636146138	 1.6868764708	 0.8625168099	 0.141105
H	 0.4787061529	-0.0048856189	-2.168184007	 0.142807
H	-0.5767019161	-2.0963917701	 0.4169854395	 0.271124
H	-0.9055252208	-3.4958724965	-0.505562668	 0.254888
H	-0.357023481	-3.3062172467	-2.8397410357	 0.209413
58.9262	103.7737	140.8622	184.0165	203.1317	260.8792	368.941	407.2162	448.0191	462.4228	488.7784	587.8972	615.8622	687.6099	867.3511	900.1913	975.1703	1002.9038	1112.2841	1125.9327	1152.7067	1185.648	1219.7644	1296.676	1342.3764	1421.2633	1480.5439	1487.7886	1508.5744	1631.1198	1745.4421	2354.4518	3004.6541	3042.9268	3068.7241	3138.0788	3455.0039	3577.386	3694.1613
COC(C#N)C(N)=N	CO[C@@H](C#N)C(=N)N	
InChI=1S/C4H7N3O/c1-8-3(2-5)4(6)7/h3H,1H3,(H3,6,7)	InChI=1S/C4H7N3O/c1-8-3(2-5)4(6)7/h3H,1H3,(H3,6,7)/t3-/m0/s1
