17
gdb 48575	5.09859	0.91632	0.91013	1.71	75.59	-0.248	-0.0441	0.2039	1283.2614	0.134553	-421.791226	-421.78291	-421.781966	-421.82498	30.151	
O	-0.0250000707	-0.0019221762	-0.0969160622	-0.242142
C	 0.0524318348	 1.2008694502	-0.0677462384	 0.034839
C	 1.3367923019	 1.9555254345	-0.0615735767	 0.245417
C	 2.7738399768	 1.3716612089	-0.0711146146	-0.300182
C	 2.9401371848	 2.9321042308	-0.0648974769	 0.245409
C	 1.811454618	 3.0060139193	-1.1263733799	-0.300197
C	 1.8229043609	 2.9656353169	 1.0327552043	-0.307883
C	 4.2225467419	 3.6899853956	-0.0519916225	 0.034848
O	 4.5550906709	 4.4710489501	-0.9080865527	-0.242142
H	-0.8609910708	 1.8394634158	-0.0449743663	 0.074965
H	 3.0883165674	 0.838017415	 0.8279474102	 0.111095
H	 3.0888998072	 0.8587501557	-0.9816418045	 0.116988
H	 2.0440446885	 2.6133257827	-2.1178865754	 0.116987
H	 1.2531887051	 3.9428094542	-1.1787136441	 0.111089
H	 1.2694790399	 3.9029778395	 1.1248001146	 0.112972
H	 2.0695283053	 2.5355839533	 2.0062004934	 0.112976
H	 4.8762831679	 3.4806591137	 0.8263473317	 0.074961
61.742	76.0183	141.9838	173.5241	262.523	308.8571	423.0742	481.4356	533.2263	548.9453	700.8181	714.846	778.7449	832.6612	922.7003	962.1424	963.8293	997.7088	999.1197	1058.1874	1074.9556	1096.7488	1129.9018	1134.7665	1158.3897	1164.807	1168.1812	1184.6363	1286.716	1339.3995	1420.9651	1422.2274	1496.446	1497.7455	1553.9652	1818.7873	1818.8955	2863.3297	2865.2445	3061.2734	3068.9484	3074.4392	3133.8994	3141.5298	3143.6748
O=CC12CC(C1)(C2)C=O	O=C[C@@]12C[C@@](C1)(C2)C=O	
InChI=1S/C7H8O2/c8-4-6-1-7(2-6,3-6)5-9/h4-5H,1-3H2	InChI=1S/C7H8O2/c8-4-6-1-7(2-6,3-6)5-9/h4-5H,1-3H2/t6-,7+
