17
gdb 133609	2.77884	1.34265	1.21603	1.3053	59.98	-0.2296	0.0798	0.3094	1058.2891	0.134806	-549.526137	-549.517959	-549.517015	-549.559729	30.105	
F	-0.3757591095	-0.0674405138	 0.4644641275	-0.083153
C	-0.1014137256	 1.2256509733	 0.2108695905	 0.262677
F	 1.2391855543	 1.3481675961	 0.2053808894	-0.085859
F	-0.5341300087	 1.4904003892	-1.0320431293	-0.075394
C	-0.7279653794	 2.1721094332	 1.2375471552	-0.125967
C	-2.2344925813	 1.9239875197	 1.4103109979	-0.215856
C	-2.3205203557	 0.860756418	 2.5318354265	-0.205027
C	-0.9480548534	 0.91248268	 3.2520744735	-0.156819
N	-0.2128269128	 2.0013090316	 2.5843016594	-0.297717
H	-0.5143956973	 3.181225746	 0.8656799738	 0.101004
H	-2.7013967823	 2.8596794943	 1.7259276492	 0.114911
H	-2.7138349076	 1.6102084988	 0.4809278217	 0.117669
H	-3.1471194616	 1.0702648159	 3.2138932185	 0.105865
H	-2.4888932607	-0.1320180125	 2.1109623292	 0.116048
H	-1.0476143356	 1.140754349	 4.3187957205	 0.101899
H	-0.4402923313	-0.0577121038	 3.1700932345	 0.099381
H	 0.7926317184	 1.8846407848	 2.6087252322	 0.226339
61.0217	87.9405	151.8512	205.2873	261.593	343.0049	404.3145	527.231	564.0931	574.1156	644.6361	734.5781	795.0449	812.0155	847.498	909.2471	926.6825	953.2382	981.2747	1073.641	1090.4036	1145.9557	1170.2459	1189.0932	1205.3623	1228.6067	1246.3099	1271.0982	1291.5855	1312.1259	1333.7036	1382.1434	1395.5582	1458.1551	1489.9295	1505.9297	1538.0107	3006.7795	3043.0023	3049.9298	3073.4128	3081.4213	3112.3477	3130.474	3562.9661
FC(F)(F)C1CCCN1	FC(F)(F)[C@H]1CCCN1	
InChI=1S/C5H8F3N/c6-5(7,8)4-2-1-3-9-4/h4,9H,1-3H2	InChI=1S/C5H8F3N/c6-5(7,8)4-2-1-3-9-4/h4,9H,1-3H2/t4-/m1/s1
