12
gdb 128709	7.28028	0.92652	0.82623	4.0378	65.26	-0.2893	-0.0885	0.2008	1281.2458	0.077722	-468.797984	-468.790366	-468.789421	-468.830616	26.275	
C	-0.0192899257	 1.383521148	 0.0194772486	-0.25172
O	 0.0166173761	-0.0519904747	-0.0268094248	-0.241585
C	 0.6152812697	-0.5783216795	-1.0748115406	 0.452525
N	 1.1664250907	 0.1120089253	-2.0532294761	-0.205538
O	 1.6552543061	-0.8843291952	-2.90354661	-0.194046
C	 1.3366897721	-2.0504211212	-2.3256576259	 0.351672
N	 0.696711671	-1.9427511816	-1.2026777778	-0.347967
C	 1.7218722891	-3.2482881213	-2.9908709018	 0.278903
N	 2.0387160443	-4.215259577	-3.5383418238	-0.302955
H	 0.9958044593	 1.789948783	 0.0339758494	 0.154157
H	-0.5547774413	 1.7795940092	-0.8478072876	 0.154186
H	-0.5445950015	 1.6321643652	 0.9403122404	 0.152367
87.0245	143.7444	163.2877	181.2765	252.7391	353.5618	447.2267	484.6748	557.9768	642.8584	723.6161	737.1125	783.5711	947.7107	1021.7632	1037.792	1103.947	1180.3862	1223.6186	1275.5546	1396.3478	1461.0589	1483.0233	1496.1782	1598.3097	1616.2184	2372.0183	3048.2149	3123.855	3171.1672
COC1=NOC(=N1)C#N	COc1noc(n1)C#N	
InChI=1S/C4H3N3O2/c1-8-4-6-3(2-5)9-7-4/h1H3	InChI=1S/C4H3N3O2/c1-8-4-6-3(2-5)9-7-4/h1H3
