14
gdb 130263	3.41941	1.25432	0.92034	6.4137	71.31	-0.2327	-0.0644	0.1683	1173.6578	0.101327	-470.000745	-469.99251	-469.991566	-470.033501	30.234	
N	 0.0268310758	 1.3513978045	 0.1081669406	-0.601303
C	 0.059756947	-0.0350738196	 0.0222371095	 0.38732
N	-1.0149327634	-0.7871659242	 0.0548857724	-0.198368
O	-0.5804847975	-2.0977456444	 0.0296533491	-0.219721
C	 0.7792371445	-2.1141879035	-0.026787166	 0.306339
C	 1.4827973289	-3.3828494852	-0.0453915064	 0.072594
O	 0.9719257863	-4.479646047	-0.0289511711	-0.27315
C	 1.2524551696	-0.8238845947	-0.0300539668	 0.033021
N	 2.5273204066	-0.2934222171	-0.120015904	-0.619368
H	 0.5733036299	 1.8025508642	-0.6166406649	 0.260169
H	-0.921989881	 1.7063810869	 0.1048660938	 0.266946
H	 2.5909556349	-3.2608141677	-0.0746082915	 0.058725
H	 3.2805854546	-0.9461357316	 0.0439554717	 0.262336
H	 2.6464444639	 0.5473875494	 0.4318105736	 0.26446
104.8885	166.3684	197.5475	220.159	247.1382	331.8429	378.7758	389.9679	395.9895	549.4165	610.2382	641.6996	685.166	734.5105	781.1358	790.7911	811.9972	986.133	1006.7408	1023.4606	1155.5513	1212.7559	1242.8029	1359.7595	1433.1506	1518.9586	1573.2573	1623.8915	1652.2034	1691.6169	1786.6715	2847.0804	3524.1664	3539.5826	3618.955	3643.0502
NC1=NOC(C=O)=C1N	Nc1noc(C=O)c1N	
InChI=1S/C4H5N3O2/c5-3-2(1-8)9-7-4(3)6/h1H,5H2,(H2,6,7)	InChI=1S/C4H5N3O2/c5-3-2(1-8)9-7-4(3)6/h1H,5H2,(H2,6,7)
