19
gdb 23210	2.59441	1.32262	0.97015	0.942	81.62	-0.2078	0.0044	0.2122	1245.1709	0.157478	-419.118381	-419.109297	-419.108352	-419.152031	34.301	
C	-0.1677929988	 1.5358742851	 0.1404462415	-0.331214
N	 0.0293283052	 0.1024417127	 0.0818462527	-0.13757
C	-1.1729722978	-0.7523266933	 0.2999223608	-0.26733
C	-0.3647791804	-1.5529640951	 1.2988246272	 0.342001
N	-0.4847499897	-2.6162133811	 1.9723950912	-0.259945
O	-1.7339919333	-3.2223091463	 1.7365485282	-0.392993
C	 0.7403290549	-0.5663276095	 1.1908590934	 0.288686
C	 2.2183802732	-0.7801659711	 1.3135348326	-0.308121
C	 1.4961686923	 0.074911473	 2.3304315364	-0.328234
H	 0.7944304147	 2.0511198978	 0.0524178689	 0.121479
H	-0.7845396312	 1.8482796074	-0.7083312917	 0.124476
H	-0.6592446715	 1.8797949645	 1.069045857	 0.097212
H	-2.0221828702	-0.229156285	 0.7649862319	 0.115249
H	-1.5244877757	-1.2804623115	-0.5917826141	 0.129712
H	-1.6852959553	-4.0091209186	 2.2897926227	 0.307287
H	 2.5553338016	-1.7680953211	 1.608026459	 0.129174
H	 2.8467303877	-0.2760859437	 0.5865233988	 0.120922
H	 1.6537743678	 1.1475311079	 2.2907583904	 0.119395
H	 1.3297779967	-0.3232063621	 3.3255262532	 0.129813
81.4972	145.7709	156.7137	216.3065	230.7125	252.1538	330.6623	362.3106	376.4242	463.5895	527.3022	558.329	576.8773	717.2727	773.5112	802.2444	881.5543	918.8681	948.6671	970.5796	989.3756	1020.3939	1051.0442	1069.136	1106.2428	1119.7121	1161.0879	1183.6084	1193.0214	1211.3968	1253.5047	1316.2012	1356.5821	1428.9508	1449.8114	1453.7577	1481.9883	1486.3144	1499.074	1504.1546	1804.8975	2937.6672	2994.7606	3060.8842	3073.806	3099.7144	3130.2416	3133.1899	3214.3433	3228.9081	3819.5557
CN1CC(=NO)C11CC1	CN1CC(=NO)C21CC2	
InChI=1S/C6H10N2O/c1-8-4-5(7-9)6(8)2-3-6/h9H,2-4H2,1H3	InChI=1S/C6H10N2O/c1-8-4-5(7-9)6(8)2-3-6/h9H,2-4H2,1H3
