22
gdb 118044	2.66211	0.90221	0.8254	4.4682	81.35	-0.2349	0.0354	0.2703	1527.5906	0.191898	-441.499634	-441.488562	-441.487618	-441.536629	38.321	
C	-0.1671131277	 1.5375061592	-0.0578377464	-0.229823
O	-0.0152337069	 0.1363905985	-0.0418644917	-0.227524
C	-1.2442650282	-0.5495692292	 0.055792945	-0.053824
C	-1.0132715742	-2.0677691268	 0.0519193593	-0.013991
C	-0.2055648648	-2.5209612922	-1.1717003222	-0.394777
N	-0.4496469303	-2.5598472513	 1.3079871861	-0.035167
C	 0.950671322	-2.319047319	 1.6404286326	-0.352299
C	-1.2167956865	-3.284545944	 2.1724772693	 0.150722
O	-0.85103058	-3.7463989965	 3.2337001945	-0.349131
H	 0.8305713532	 1.9736704996	-0.1445175916	 0.131861
H	-0.7772630508	 1.8679027428	-0.9128747995	 0.108289
H	-0.6399248773	 1.906416009	 0.8652957474	 0.111417
H	-1.7764039744	-0.2628374354	 0.9773967907	 0.094843
H	-1.8933287895	-0.286721513	-0.7981809009	 0.088239
H	-2.014347415	-2.5112829521	-0.0146104721	 0.092617
H	 0.7782712733	-2.0487478078	-1.1949343289	 0.143509
H	-0.0789797808	-3.606864139	-1.1661136845	 0.123052
H	-0.730437902	-2.2395596254	-2.0896814946	 0.118364
H	 1.1974799614	-1.2672091927	 1.4912315835	 0.144974
H	 1.0888368395	-2.6020934893	 2.6838471542	 0.160852
H	 1.618094782	-2.9293655553	 1.0206798799	 0.122452
H	-2.2511213431	-3.41191129	 1.7938009098	 0.065345
40.1089	88.5936	101.8882	115.1427	156.3659	190.6175	232.417	243.4189	285.7567	317.0208	325.2487	353.955	373.7642	466.4362	620.4964	681.9633	836.9873	898.9811	936.9798	962.6262	1024.7081	1044.6043	1084.0294	1120.9105	1142.6335	1162.4481	1170.4464	1188.5594	1227.4577	1263.1992	1289.0171	1335.0249	1345.5426	1399.598	1421.2775	1433.6941	1445.3116	1455.4688	1480.0457	1487.0716	1488.5955	1495.9978	1499.8966	1507.1088	1523.4327	1526.6003	1793.3164	2922.4453	2948.6193	2977.0319	2991.9286	3023.5531	3033.8408	3038.4805	3049.9943	3117.1932	3118.0841	3119.9986	3140.8729	3166.8021
COCC(C)N(C)C=O	COC[C@@H](C)N(C)C=O	
InChI=1S/C6H13NO2/c1-6(4-9-3)7(2)5-8/h5-6H,4H2,1-3H3	InChI=1S/C6H13NO2/c1-6(4-9-3)7(2)5-8/h5-6H,4H2,1-3H3/t6-/m1/s1
