18
gdb 19493	3.18408	1.88869	1.73867	0.8859	76.76	-0.2384	0.0491	0.2875	863.442	0.155356	-310.640395	-310.633145	-310.6322	-310.671627	28.663	
C	 0.1283525995	-1.3033919543	 0.0675256365	-0.472603
C	 0.1218006485	-0.0994708376	 0.0795781503	 0.344909
C	 0.0654552974	 1.3325313182	 0.0613270657	-0.214267
C	 0.4485230995	 2.2220302939	 1.2416575163	-0.050072
C	 1.2698644468	 1.6285080939	 2.3757952023	-0.218269
C	 2.5046637695	 0.9722992554	 1.7052316247	-0.222988
C	 2.658070884	 1.6569527452	 0.3222232342	-0.218269
C	 1.2919703777	 2.2393104934	-0.0060534072	-0.050078
H	 0.139169285	-2.3649194636	 0.0605141246	 0.192278
H	-0.7805431363	 1.7142685683	-0.505280189	 0.110886
H	-0.2375840952	 3.0304098797	 1.4706982062	 0.085381
H	 1.5741085792	 2.4430176207	 3.0433115365	 0.098691
H	 0.7052934131	 0.9112677563	 2.9803836798	 0.106552
H	 3.4051368623	 1.0823814884	 2.3154714577	 0.092908
H	 2.3327635157	-0.0965948783	 1.5742222251	 0.124318
H	 3.3803588994	 2.480030794	 0.3713254427	 0.098691
H	 3.0177762548	 0.9586530469	-0.4404634633	 0.106552
H	 1.2383124391	 3.0606450296	-0.7126018831	 0.085379
118.9425	139.9338	202.6127	309.9233	340.5322	526.5964	546.756	580.3288	642.9408	662.4268	699.7116	749.0913	772.2746	809.8908	885.3218	887.6106	917.7607	971.7828	997.4484	1010.6843	1034.8026	1083.0285	1110.5577	1111.2167	1185.7195	1204.6614	1218.8572	1259.2196	1315.3008	1318.8152	1329.2528	1363.2043	1364.0625	1416.8292	1488.5105	1488.6683	1510.5319	2228.1734	3035.8755	3036.624	3071.9906	3074.5558	3076.36	3127.7127	3130.9599	3159.4754	3171.2272	3504.4451
C#CC1C2CCCC12	C#C[C@H]1[C@H]2CCC[C@@H]12	
InChI=1S/C8H10/c1-2-6-7-4-3-5-8(6)7/h1,6-8H,3-5H2	InChI=1S/C8H10/c1-2-6-7-4-3-5-8(6)7/h1,6-8H,3-5H2/t6-,7+,8-
