19
gdb 41824	2.29503	2.09219	1.51986	1.4174	70.01	-0.2434	0.0788	0.3222	937.4787	0.162494	-460.164616	-460.157576	-460.156632	-460.195894	28.551	
C	 0.1806553342	 1.5898877418	 0.187764184	-0.085515
O	 1.4616176278	 1.9844553165	-0.3183814917	-0.265561
C	 2.0940610322	 0.9006567179	-0.9733938872	 0.209533
C	 0.9800522807	-0.1340619585	-1.2055155705	-0.298565
C	 0.0929435852	 0.0632628513	 0.0287533829	 0.093688
O	 0.5129995952	-0.6201212769	 1.2043148034	-0.275676
C	 1.869613548	-1.0184506194	 1.3288733731	-0.088223
C	 2.9111611391	 0.0825616988	 1.1252949324	-0.097118
O	 3.1822220157	 0.4006448558	-0.2324827913	-0.250739
H	 0.0933157105	 1.8858005891	 1.2372132467	 0.115236
H	-0.607547197	 2.0901694295	-0.3921361183	 0.097293
H	 2.5456459431	 1.2683354921	-1.8988763349	 0.089831
H	 0.4086370555	 0.1414732709	-2.0975149041	 0.112598
H	 1.3615531607	-1.1456801489	-1.342091594	 0.121642
H	-0.9396249844	-0.2548964271	-0.1395222608	 0.087559
H	 1.9528515635	-1.3867907562	 2.3570966063	 0.111767
H	 2.1026384343	-1.8597598722	 0.65871709	 0.098508
H	 2.6125654116	 0.9819723738	 1.679726582	 0.113847
H	 3.8667213244	-0.2664622184	 1.5290636022	 0.109895
119.899	204.7636	309.787	329.5692	379.9119	401.2476	473.7209	523.0839	569.4673	758.3908	762.5977	813.3342	843.0692	855.3435	900.1103	935.6183	971.4748	979.2738	1014.1963	1048.6349	1075.4598	1086.241	1102.986	1132.47	1188.7556	1193.6937	1243.3127	1252.4272	1278.8445	1318.1066	1327.2095	1331.6816	1376.7284	1391.6418	1396.8163	1412.4892	1420.1478	1471.1311	1485.9658	1499.9991	1511.0054	2993.4247	3006.2373	3026.8744	3061.5375	3073.0585	3074.604	3082.8714	3087.1558	3088.9419	3141.5136
C1OC2CC1OCCO2	C1O[C@@H]2C[C@H]1OCCO2	
InChI=1S/C6H10O3/c1-2-8-6-3-5(7-1)4-9-6/h5-6H,1-4H2	InChI=1S/C6H10O3/c1-2-8-6-3-5(7-1)4-9-6/h5-6H,1-4H2/t5-,6-/m1/s1
