12
gdb 129026	4.03982	1.17664	0.91124	2.1401	72.61	-0.2702	-0.1062	0.164	1152.6954	0.075234	-468.757921	-468.750157	-468.749213	-468.790981	27.304	
N	-0.0695955101	 1.3207840387	 0.1656713839	-0.485481
C	-0.0858860599	 0.062806448	-0.0164341944	 0.398247
C	-1.2532115301	-0.7701166011	-0.0594934017	-0.257704
C	-1.1212620673	-2.1008721626	-0.265677135	 0.325435
O	 0.0402689328	-2.7198603618	-0.4374389626	-0.29308
N	 1.3075601166	-1.8370544703	-0.389063239	 0.052668
N	 1.1660319884	-0.6569666888	-0.2045603868	-0.10876
C	-2.3341297079	-2.9769648179	-0.3116974243	 0.113714
O	-2.3112376979	-4.1644324817	-0.48879815	-0.235718
H	 0.8907988889	 1.6695279922	 0.1526680604	 0.24425
H	-2.2298884018	-0.3239428875	 0.0741404942	 0.145099
H	-3.2755989317	-2.4055738472	-0.1623216447	 0.101328
73.5677	88.9897	149.9319	239.2374	335.8586	399.6862	415.7553	448.6402	537.9973	562.9696	675.5254	747.6635	812.1486	859.172	874.4154	916.9636	989.7013	1011.5234	1092.8283	1162.4867	1294.2772	1390.5188	1428.0027	1622.7941	1724.2797	1742.5201	1821.1389	2904.4214	3226.7686	3473.9405
N=C1C=C(ON=N1)C=O	[NH]C1=N[N]OC(=C1)C=O	
InChI=1S/C4H3N3O2/c5-4-1-3(2-8)9-7-6-4/h1-2,5H	InChI=1S/C4H3N3O2/c5-4-1-3(2-8)9-7-6-4/h1-2,5H
