21
gdb 122754	5.56852	0.51655	0.47965	2.6502	87.53	-0.2624	-0.0544	0.208	2274.2367	0.178888	-387.082272	-387.071315	-387.070371	-387.119654	38.219	
C	-0.0359558825	 1.6108629964	 0.0112074839	-0.380765
C	-0.0074305817	 0.0802297257	 0.0026075405	-0.163628
C	-1.4051802622	-0.548390971	 0.0125646394	-0.17265
C	-1.3777997177	-2.0800771369	 0.0039742015	-0.180504
C	-2.7760472468	-2.6964495137	 0.0140002004	-0.308759
C	-2.7746667268	-4.2148426897	 0.0057027282	 0.22576
O	-1.7640870823	-4.8835945583	-0.00777927	-0.287942
C	-4.0924299146	-4.8355055522	 0.0150707081	 0.247237
C	-5.190193099	-5.3294717247	 0.0229597585	-0.391904
H	 0.9750979325	 2.0297724606	 0.0038187373	 0.112317
H	-0.5647104171	 2.0020688133	-0.8652372573	 0.112992
H	-0.5478135997	 1.9924549152	 0.9018072441	 0.112992
H	 0.5401599501	-0.2727156556	-0.8811225554	 0.097114
H	 0.5569356237	-0.282252278	 0.8718042394	 0.097113
H	-1.9547616008	-0.1955884843	 0.8968692409	 0.091118
H	-1.9715478774	-0.1860510718	-0.8571718926	 0.091118
H	-0.8335116727	-2.4407299664	-0.876415069	 0.112139
H	-0.8168042579	-2.4502208282	 0.8698186906	 0.112132
H	-3.3521826306	-2.3710826748	 0.8920584833	 0.130558
H	-3.3688248972	-2.3616133846	-0.849301782	 0.130565
H	-6.1511633594	-5.7838956911	 0.0297182004	 0.212997
50.228	57.0768	75.6775	123.8305	138.5124	158.1077	226.9872	243.2339	244.7758	331.8064	402.4789	512.5716	567.5135	607.6432	643.5281	701.9388	731.5502	763.7196	826.878	853.3884	908.8749	972.2017	1009.4999	1048.7627	1068.0105	1092.4507	1118.2374	1143.1357	1225.5164	1269.677	1288.1087	1324.9428	1335.1853	1340.6737	1390.2324	1402.7036	1413.9472	1446.7497	1483.7359	1488.407	1499.5885	1501.2603	1513.951	1769.4772	2210.4436	3000.8849	3013.5046	3018.0087	3026.0332	3029.0924	3038.8831	3042.2659	3052.3857	3082.7578	3095.3356	3101.6703	3494.6313
CCCCCC(=O)C#C	CCCCCC(=O)C#C	
InChI=1S/C8H12O/c1-3-5-6-7-8(9)4-2/h2H,3,5-7H2,1H3	InChI=1S/C8H12O/c1-3-5-6-7-8(9)4-2/h2H,3,5-7H2,1H3
