17
gdb 33894	3.9755	1.28378	1.1628	1.009	79.38	-0.2318	0.0237	0.2555	1074.5853	0.135798	-384.593063	-384.585666	-384.584722	-384.624672	29.8	
C	 0.0499168535	-1.2142188561	-0.0551154569	-0.389087
C	 0.0304519507	-0.0103036538	-0.0285846584	 0.143699
C	-0.0097594895	 1.4090987114	 0.034001321	 0.182155
C	 0.2875570378	 2.2882371429	-1.1630102726	-0.336422
C	 1.1680849102	 2.4358725413	 0.0329851274	-0.110699
C	 0.4479642463	 3.2271239952	 1.1434811329	 0.109466
O	-0.4535637699	 4.2770839606	 0.7108652569	-0.299381
C	-1.603502965	 3.3944701107	 0.827521474	-0.109986
C	-0.6960801212	 2.2023062664	 1.1842518095	-0.130099
H	 0.0696431636	-2.2751357435	-0.0854749324	 0.184565
H	 0.7284207865	 1.7549051089	-1.9976079035	 0.129747
H	-0.3834179231	 3.0930670793	-1.4408879517	 0.135708
H	 2.230320956	 2.2267690744	 0.0019841052	 0.100978
H	 1.0501035428	 3.510951993	 2.0086972309	 0.085348
H	-2.2621121416	 3.714112771	 1.6439191553	 0.106101
H	-2.1818936331	 3.33366889	-0.1013503578	 0.107837
H	-0.9216627438	 1.6085070783	 2.06684503	 0.090071
122.7573	146.2139	237.9804	320.4136	381.8124	456.7195	509.0814	539.7682	561.3248	611.9849	652.2904	700.1845	776.4556	829.2155	859.8088	881.3427	915.1293	923.0349	963.8516	994.2939	1011.0675	1022.2316	1053.3307	1084.3875	1092.8475	1157.6332	1186.348	1190.3393	1232.968	1234.8601	1299.2213	1308.058	1347.2651	1377.1239	1485.785	1520.0234	2228.3303	3021.1314	3067.6913	3092.1958	3142.8937	3144.2811	3191.0089	3230.1118	3503.6616
C#CC12CC1C1OCC21	C#C[C@]12C[C@H]1[C@H]1OC[C@@H]21	
InChI=1S/C8H8O/c1-2-8-3-5(8)7-6(8)4-9-7/h1,5-7H,3-4H2	InChI=1S/C8H8O/c1-2-8-3-5(8)7-6(8)4-9-7/h1,5-7H,3-4H2/t5-,6+,7+,8-/m0/s1
