20
gdb 31120	2.00392	1.62303	0.94832	2.6633	83.71	-0.1931	0.0401	0.2331	1266.4358	0.170756	-403.193088	-403.183209	-403.182264	-403.227757	36.116	
C	 0.1357058403	 1.4905946332	-0.0116333094	-0.514257
C	 0.0939016873	-0.0014823241	-0.0882686322	 0.242765
C	 0.0156740932	-0.8484028081	-1.1815677646	 0.059375
C	-0.0165172125	-0.4208780717	-2.6194195512	-0.173972
O	 1.0539772243	 0.460108841	-2.9786383632	-0.413892
C	-0.0166220618	-2.1958117882	-0.6877320197	 0.193793
C	-0.101092156	-3.4563155201	-1.4966234154	-0.504969
C	 0.0390865661	-2.1185034857	 0.6832657923	-0.184491
N	 0.1060571259	-0.7901390027	 1.0333438752	-0.303072
H	 0.862492109	 1.8383329334	 0.7325735126	 0.115442
H	 0.4293681222	 1.8942185345	-0.9821768383	 0.160414
H	-0.8374405206	 1.9213899015	 0.2586128459	 0.125717
H	-0.0185637561	-1.310498053	-3.2669834902	 0.08918
H	-0.92762847	 0.1414847072	-2.8561978098	 0.108179
H	 1.8571109176	 0.0790304291	-2.6078816491	 0.274745
H	 0.7174010732	-3.5368165778	-2.2222571713	 0.119918
H	-0.0505176959	-4.3370198734	-0.8494999408	 0.116322
H	-1.0362074128	-3.5225322445	-2.0657435143	 0.12323
H	 0.0446715398	-2.8951893563	 1.4317149801	 0.111653
H	 0.1755071267	-0.4430173243	 1.9742085232	 0.25392
73.234	127.6712	136.5351	147.5191	190.5293	235.2971	259.9443	299.9881	346.7951	396.7528	472.9061	479.8671	573.1864	640.6367	676.353	708.1663	728.1943	770.4562	945.0503	989.5683	1002.3751	1020.7136	1061.2372	1065.1276	1092.6906	1112.3912	1213.1307	1218.6435	1261.3201	1333.7114	1356.8213	1406.64	1418.1771	1421.4208	1434.7677	1468.98	1483.2038	1495.6434	1499.6305	1512.0585	1515.4764	1560.6794	1629.808	2991.2398	3013.2723	3020.1051	3045.0292	3060.6679	3064.9782	3100.582	3136.0424	3256.135	3674.9713	3806.8428
CC1=C(CO)C(C)=CN1	Cc1c(CO)c(C)c[nH]1	
InChI=1S/C7H11NO/c1-5-3-8-6(2)7(5)4-9/h3,8-9H,4H2,1-2H3	InChI=1S/C7H11NO/c1-5-3-8-6(2)7(5)4-9/h3,8-9H,4H2,1-2H3
