13
gdb 15851	2.68967	2.14849	1.34407	4.4689	58.59	-0.2978	-0.0199	0.2779	876.324	0.095079	-398.639262	-398.631896	-398.630952	-398.671272	25.94	
C	-0.2757313825	 1.5101442843	-0.0347474493	-0.409457
C	 0.0777333761	 0.0435941085	-0.0050836839	 0.138012
O	 1.3002071572	-0.2491905007	-0.7751605716	-0.240881
C	 1.9705646695	-0.7194393708	 0.3118302815	 0.4702
O	 3.080948828	-1.1205607227	 0.390450229	-0.298321
C	 0.757143049	-0.5445036427	 1.2666881547	-0.375994
C	 0.9335363218	 0.3113234092	 2.4216880224	 0.30098
N	 1.0662479747	 1.0091669015	 3.3332032385	-0.314374
H	 0.5419824236	 2.123263769	 0.3526394526	 0.153183
H	-0.4910534412	 1.8183527197	-1.061250572	 0.146151
H	-1.1649490982	 1.6939396507	 0.5757488076	 0.145374
H	-0.73290422	-0.5850298357	-0.380117583	 0.119073
H	 0.3544293321	-1.5138418902	 1.5716381536	 0.166054
93.0347	131.219	169.0884	219.0792	325.2301	404.9047	438.2122	497.81	570.5171	693.3761	745.0141	818.9263	873.907	895.4408	1020.0228	1051.2665	1096.6448	1132.0831	1154.4055	1179.3672	1314.0936	1320.2007	1381.8418	1420.78	1480.3743	1492.3659	1956.4916	2363.1896	3050.1713	3087.3866	3097.0431	3125.7815	3135.5962
CC1OC(=O)C1C#N	C[C@H]1OC(=O)[C@H]1C#N	
InChI=1S/C5H5NO2/c1-3-4(2-6)5(7)8-3/h3-4H,1H3	InChI=1S/C5H5NO2/c1-3-4(2-6)5(7)8-3/h3-4H,1H3/t3-,4+/m1/s1
