23
gdb 96118	2.0956	1.74137	1.20259	1.446	84.99	-0.2357	0.0835	0.3193	1155.5836	0.206343	-388.291724	-388.282756	-388.281812	-388.324719	35.657	
C	-0.018788546	 1.5687284379	-0.0275839428	-0.402152
C	 0.0435270542	 0.0364763474	 0.0097882643	-0.030672
C	 0.6317571466	-0.540612448	-1.2907526931	-0.226456
C	 0.9290877454	-2.0277758364	-1.132087504	-0.074771
O	 1.9493882485	-2.2415322289	-0.1678622213	-0.25886
C	 1.6882597923	-1.684829847	 1.0887356979	 0.058339
C	 2.26716008	-0.324172395	 1.3929760643	-0.348522
C	 0.7652810008	-0.4981027887	 1.2510342259	 0.311996
C	-0.0490208756	-0.4425115794	 2.5312174302	-0.466013
H	 0.9870047467	 1.9988512091	-0.0817576045	 0.116619
H	-0.5787088113	 1.9135774955	-0.9037049547	 0.108699
H	-0.5091605982	 1.9773278594	 0.8612082541	 0.11341
H	-0.9885562218	-0.3394373856	 0.0775038814	 0.067386
H	-0.0724592194	-0.3797469517	-2.1154310909	 0.09452
H	 1.5622105967	-0.0244981438	-1.5598828432	 0.10209
H	 0.0099685022	-2.5702687342	-0.8531853572	 0.083355
H	 1.3078112561	-2.4633619346	-2.0612295601	 0.104237
H	 1.688741607	-2.435119953	 1.8775962024	 0.084906
H	 2.672227884	-0.1267715931	 2.3802754482	 0.103519
H	 2.8127967171	 0.1421243792	 0.57972155	 0.113055
H	-0.2884374938	 0.5898891264	 2.8105259778	 0.118155
H	-0.9943905495	-0.9874457036	 2.4231406836	 0.113711
H	 0.4976926478	-0.8866387119	 3.3690574417	 0.113449
94.492	186.0939	217.6708	231.9018	242.2755	268.5783	339.7445	354.7622	406.8289	458.5454	494.3743	511.2452	639.9461	659.825	782.2825	843.4038	878.442	901.3162	916.689	953.1393	987.6313	998.0742	1028.8501	1041.3892	1055.7584	1060.8301	1103.9175	1117.9881	1145.5418	1174.9833	1190.552	1209.8961	1268.8209	1282.0429	1333.607	1338.0393	1361.3662	1379.1512	1395.631	1407.799	1417.6467	1422.5858	1473.7963	1486.9365	1489.354	1497.6511	1499.1523	1502.7616	1504.9074	2964.4103	2984.2999	3021.1554	3023.9941	3031.9477	3068.43	3081.9417	3084.4436	3096.4192	3097.4263	3105.5236	3113.0182	3127.5217	3215.2079
CC1CCOC2CC12C	C[C@H]1CCO[C@H]2C[C@@]12C	
InChI=1S/C8H14O/c1-6-3-4-9-7-5-8(6,7)2/h6-7H,3-5H2,1-2H3	InChI=1S/C8H14O/c1-6-3-4-9-7-5-8(6,7)2/h6-7H,3-5H2,1-2H3/t6-,7-,8-/m0/s1
