20
gdb 104594	2.45774	1.20971	0.98258	3.7928	75.49	-0.233	0.0398	0.2728	1278.9815	0.16941	-440.298165	-440.288305	-440.287361	-440.333489	36.33	
C	 0.2036424284	 0.2780075908	 1.8801745169	-0.256998
O	-0.1415028201	 0.4150834236	 0.509953844	-0.28784
C	-1.0819214095	-0.5293184542	 0.0410400453	 0.412249
C	-2.513047602	-0.3072973229	 0.5000292447	-0.379837
C	-3.1977425041	 0.9628257134	-0.0251268618	 0.388165
N	-2.4017951886	 2.0663580792	-0.0849877451	-0.515852
O	-4.3779778296	 0.9743185899	-0.3190199529	-0.367532
C	-0.8163813071	-0.992144029	-1.3591801768	-0.308255
C	-0.5689171225	-1.9280032661	-0.1921679212	-0.322499
H	 1.000389989	 0.9987267717	 2.0766979471	 0.131637
H	-0.6416480244	 0.4975045186	 2.545755738	 0.118818
H	 0.5697505624	-0.73315515	 2.0986759538	 0.118889
H	-3.1393818688	-1.1423335648	 0.1806734804	 0.131065
H	-2.5610712478	-0.286634118	 1.5964103818	 0.12259
H	-1.4047002642	 1.9850856467	 0.0479624597	 0.269279
H	-2.7946334988	 2.9042536097	-0.481780522	 0.252977
H	-1.6664056205	-1.1766869512	-2.0065631202	 0.126946
H	 0.0541502264	-0.5748716481	-1.8512975562	 0.125171
H	 0.4650989137	-2.1256630388	 0.0674399243	 0.12085
H	-1.243690432	-2.7625092205	-0.0367230399	 0.120179
43.42	74.3482	117.6066	168.8703	210.6115	256.4202	320.	334.4062	365.2967	406.3522	459.5862	529.0358	553.693	596.2288	707.6194	757.7285	783.0514	852.7895	891.1017	916.1976	935.9839	976.7542	1020.4161	1050.8701	1081.4029	1092.3371	1121.9533	1181.1525	1182.3458	1189.619	1219.9076	1279.3768	1317.9505	1361.7613	1363.3579	1451.4148	1456.4195	1475.3789	1492.5685	1495.8775	1508.4971	1616.524	1798.5873	3005.4222	3038.9123	3063.4996	3118.343	3124.0111	3135.3464	3141.7188	3219.9151	3235.6989	3557.5577	3707.0697
COC1(CC(N)=O)CC1	COC1(CC(=O)N)CC1	
InChI=1S/C6H11NO2/c1-9-6(2-3-6)4-5(7)8/h2-4H2,1H3,(H2,7,8)	InChI=1S/C6H11NO2/c1-9-6(2-3-6)4-5(7)8/h2-4H2,1H3,(H2,7,8)
