14
gdb 44769	2.77293	1.71304	1.26554	5.7081	66.06	-0.2874	-0.0129	0.2745	956.2345	0.102646	-436.710559	-436.703773	-436.702829	-436.741861	26.19	
O	-0.0434767878	 0.0513932323	-0.0423250629	-0.328519
C	 0.0191945362	 1.23742929	-0.0102268681	 0.471405
O	-1.0494334828	 2.0938169137	 0.0145431833	-0.243071
C	-0.4037887257	 3.4031833823	 0.0513450697	 0.082555
C	 0.6903396385	 3.2622968268	-1.0281243898	-0.265334
C	 1.2192300267	 2.206740106	 0.017457839	 0.003469
C	 0.6903802324	 3.201560619	 1.1210435584	-0.265291
C	 2.548540538	 1.6560347481	 0.0018879442	 0.192101
N	 3.6280605603	 1.2444944166	-0.0097702366	-0.329637
H	-1.1602061596	 4.1815525496	 0.0733870915	 0.119396
H	 0.390261283	 2.894169779	-2.0100050301	 0.1428
H	 1.3493349289	 4.1273514635	-1.1059425649	 0.138646
H	 1.3493401369	 4.0608696493	 1.247568395	 0.138649
H	 0.3903601451	 2.7785601539	 2.0805820815	 0.142831
140.7679	150.1317	214.458	409.7445	465.8986	483.9693	518.763	539.48	607.2286	668.4835	751.7368	792.3263	863.458	925.4025	930.7787	943.3609	970.6815	995.9732	1057.3822	1060.552	1109.8387	1178.9938	1194.1482	1236.192	1243.0624	1293.269	1343.395	1477.5031	1513.227	1926.8513	2366.1017	3087.7432	3091.6234	3160.4008	3164.0677	3179.5
O=C1OC2CC1(C2)C#N	O=C1O[C@@H]2C[C@]1(C2)C#N	
InChI=1S/C6H5NO2/c7-3-6-1-4(2-6)9-5(6)8/h4H,1-2H2	InChI=1S/C6H5NO2/c7-3-6-1-4(2-6)9-5(6)8/h4H,1-2H2/t4-,6+
