20
gdb 120234	3.1193	0.97942	0.82163	2.2033	80.22	-0.2407	-0.022	0.2187	1454.0106	0.1702	-403.124865	-403.115833	-403.114888	-403.159368	33.304	
C	-0.2435273257	 1.6355310064	-0.0028234751	-0.384036
C	-0.1016536105	 0.1116910202	 0.0187190359	-0.162181
C	 0.7823214953	-0.3879861023	 1.1695574407	-0.206039
C	 0.9249884891	-1.9014138518	 1.1919739938	-0.089262
N	 1.6386036759	-2.5927613629	 0.0418514584	-0.123291
C	 3.0412254857	-2.2067467676	 0.1337358172	-0.242736
C	 2.5607115389	-3.2926368678	 1.0389999018	-0.159883
C	 1.8315110124	-2.6613885692	 2.1901736348	 0.393017
O	 1.813501675	-2.8331719743	 3.3745224931	-0.312665
H	 0.7307477465	 2.1232316644	-0.119791396	 0.114734
H	-0.8801169387	 1.9632441724	-0.8302333968	 0.11609
H	-0.6881234514	 2.0062501514	 0.9274474373	 0.116577
H	-1.0932503829	-0.3517649985	 0.1015728635	 0.100172
H	 0.3164162569	-0.2374586332	-0.9329157432	 0.115387
H	 1.7648050164	 0.0961575099	 1.1172938347	 0.098952
H	 0.3516785062	-0.086104487	 2.133044007	 0.119438
H	-0.0698482779	-2.3607105027	 1.2627184556	 0.116856
H	 3.6358994816	-2.5209198541	-0.718709468	 0.136875
H	 3.3222003356	-1.2424213499	 0.5477103608	 0.128207
H	 2.8771109915	-4.3245029333	 0.9402071744	 0.123787
63.902	83.4213	117.374	170.6292	241.7629	260.1022	296.0974	340.4883	491.3675	542.0318	630.8745	687.8381	738.1685	746.6162	792.6761	856.4413	876.4192	906.0451	945.9592	973.7683	1036.0066	1047.9774	1088.8288	1094.2654	1113.3658	1125.8805	1132.0616	1170.8781	1208.3834	1232.0135	1256.0803	1291.614	1312.4538	1327.7863	1366.3103	1396.6535	1415.5389	1478.2531	1492.0489	1500.0846	1505.5669	1511.5344	1891.0237	3022.266	3028.1097	3031.0452	3033.4191	3051.5209	3071.6312	3097.7197	3104.927	3118.6018	3188.6372	3204.8583
CCCC1N2CC2C1=O	CCC[C@H]1N2C[C@H]2C1=O	
InChI=1S/C7H11NO/c1-2-3-5-7(9)6-4-8(5)6/h5-6H,2-4H2,1H3	InChI=1S/C7H11NO/c1-2-3-5-7(9)6-4-8(5)6/h5-6H,2-4H2,1H3/t5-,6+,8?/m1/s1
