20
gdb 37118	3.59426	1.55073	1.44885	1.7499	80.98	-0.1919	0.0796	0.2715	985.8606	0.1738	-365.931379	-365.924509	-365.923564	-365.96204	29.675	
C	 0.0281142269	 1.447467569	-0.0860490047	-0.392793
C	 1.3512972101	 0.7360814761	 0.0227944672	 0.264034
C	 2.0253315499	 0.5354633252	 1.3633567947	-0.288525
C	 0.8831491656	 0.0479702705	 2.3002993147	-0.214962
C	-0.0924610128	-0.7360991404	 1.3764474965	-0.288522
C	 0.0350997183	-0.0542005961	 0.0309301905	 0.264028
C	 0.4892424016	-0.7720048022	-1.2767011587	-0.126097
N	 0.7299079886	 0.2555484548	-2.319417649	-0.333625
C	 1.759520342	-0.009219446	-1.2845954635	-0.126107
H	-0.2973973322	 1.9986474228	 0.7899817063	 0.106645
H	-0.246161133	 1.8945372285	-1.0321940108	 0.142593
H	 2.7858006037	-0.2501102711	 1.2650668603	 0.095566
H	 2.5339552228	 1.4218154963	 1.7590258294	 0.097498
H	 1.252227971	-0.558166659	 3.132753911	 0.095993
H	 0.3701291489	 0.90698164	 2.7450585008	 0.106437
H	 0.2425954958	-1.7771018927	 1.2807894031	 0.095564
H	-1.1102336369	-0.7662332837	 1.7815449735	 0.097497
H	 0.2640457995	-1.7964268346	-1.5477077781	 0.087997
H	 1.0222820405	-0.2401152856	-3.161229962	 0.228784
H	 2.7670875596	-0.2933839318	-1.5632673913	 0.087997
214.462	222.7432	291.3765	312.7587	440.8284	493.7794	531.3181	600.6053	608.2901	739.06	758.3424	774.5398	836.1552	839.3066	863.1934	872.0836	892.8778	922.6245	925.8701	941.834	969.2211	1002.0089	1031.8846	1038.5599	1085.0904	1098.5369	1108.8936	1183.8538	1198.3491	1219.4201	1241.277	1243.6241	1276.496	1300.067	1320.523	1331.2977	1349.7839	1356.832	1376.326	1457.5235	1489.3464	1493.1015	1509.9416	3021.1788	3023.1592	3045.6435	3059.7271	3064.0986	3094.1336	3142.8177	3175.2548	3188.966	3237.9623	3472.5749
C1C23CCCC12C1NC31	C1[C@@]23CCC[C@@]12[C@H]1N[C@@H]31	
InChI=1S/C8H11N/c1-2-7-4-8(7,3-1)6-5(7)9-6/h5-6,9H,1-4H2	InChI=1S/C8H11N/c1-2-7-4-8(7,3-1)6-5(7)9-6/h5-6,9H,1-4H2/t5-,6+,7-,8+
