17
gdb 60336	3.74935	0.86525	0.81393	2.4538	66.72	-0.2703	-0.0891	0.1812	1443.8212	0.132646	-496.128606	-496.118761	-496.117817	-496.164237	34.148	
C	 0.0507239172	 1.3583649657	 0.145583868	-0.399045
C	-0.1828127075	-0.1366760777	-0.0891139704	 0.132597
O	 0.1322917835	-0.9109325272	 1.0552376925	-0.430832
C	-1.6178862651	-0.3776669435	-0.563095179	-0.116285
O	-1.8751992716	-1.7804308295	-0.7828338896	-0.211612
C	-2.3166010097	-2.4781748774	 0.2568750531	 0.358101
O	-2.5325814453	-2.0645800576	 1.3728672645	-0.367028
C	-2.5725252889	-3.9497261733	-0.0929642441	 0.099481
O	-2.4029702767	-4.430435288	-1.176547956	-0.20852
H	 1.0732558065	 1.516296377	 0.495839686	 0.136233
H	-0.0956386185	 1.93838478	-0.7720053227	 0.116556
H	-0.6338752408	 1.7454717903	 0.9089829982	 0.117666
H	 0.5007720752	-0.491871358	-0.8699810211	 0.101985
H	-0.6189820263	-0.8834866435	 1.6605577099	 0.291589
H	-2.3379268359	 0.0046463271	 0.1672363379	 0.130334
H	-1.791202233	 0.0993328553	-1.5298716956	 0.130803
H	-2.937069683	-4.5141215697	 0.7881571384	 0.117976
50.2641	73.78	118.2861	131.3892	194.6256	226.3484	256.9389	319.346	369.2041	374.03	467.7994	507.1013	519.9621	609.1875	737.6308	837.9067	858.3215	928.0753	947.0374	1029.2218	1044.1837	1102.3534	1110.7778	1171.0615	1268.4352	1302.8707	1338.9975	1361.7741	1378.4302	1403.3282	1417.6695	1438.7961	1478.1054	1493.5824	1496.5314	1791.0547	1845.2318	2951.148	3031.5571	3040.3922	3061.7678	3099.3421	3127.9067	3128.0781	3785.0965
CC(O)COC(=O)C=O	C[C@@H](O)COC(=O)C=O	
InChI=1S/C5H8O4/c1-4(7)3-9-5(8)2-6/h2,4,7H,3H2,1H3	InChI=1S/C5H8O4/c1-4(7)3-9-5(8)2-6/h2,4,7H,3H2,1H3/t4-/m1/s1
