17
gdb 31005	3.06386	1.17838	0.88329	2.6466	71.86	-0.1961	0.0395	0.2356	1273.7132	0.136452	-455.190169	-455.181137	-455.180193	-455.223962	33.235	
C	 0.1847973288	 1.4909790767	 0.0014916521	-0.518518
C	 0.1272330497	 0.0032642604	-0.0751069788	 0.232756
C	 0.0305763245	-0.8760560335	-1.1223561067	 0.13938
C	-0.0341824888	-0.5837820163	-2.5926120584	-0.167773
O	 0.8328182133	 0.4720039048	-3.0031584263	-0.410384
N	-0.0134436641	-2.1916258853	-0.6630865587	-0.415878
C	 0.0502193127	-2.0900809317	 0.6339229574	 0.427569
O	 0.0476259625	-3.0942634232	 1.5285403142	-0.427262
N	 0.1375769489	-0.8066581424	 1.0629723361	-0.351799
H	 1.0389570538	 1.8394248924	 0.5962327777	 0.119276
H	 0.290912584	 1.8929603496	-1.0071205959	 0.164008
H	-0.7204999098	 1.9188090421	 0.4513983697	 0.125549
H	 0.1741710533	-1.5173220747	-3.1341187138	 0.107614
H	-1.0362808318	-0.2553879229	-2.8929962065	 0.115952
H	 1.7164028751	 0.2426319245	-2.6955432481	 0.278567
H	-0.0172162327	-3.9095682379	 1.0155533486	 0.313665
H	 0.2217696007	-0.5081213528	 2.0200402972	 0.267277
61.566	161.7594	180.9745	197.9461	231.4593	287.7942	322.9202	364.2858	397.2426	409.0343	485.9191	509.2967	622.3938	650.2667	722.7316	742.9023	797.7303	975.4891	995.4931	1046.6939	1068.0041	1071.8622	1166.6733	1184.743	1205.8555	1251.451	1280.8908	1370.5346	1408.1173	1417.6419	1430.0404	1491.9886	1496.4933	1505.6254	1561.3497	1626.3	1645.9044	3007.7605	3012.4207	3052.6944	3054.5399	3143.405	3666.4402	3805.1201	3805.7095
CC1=C(CO)N=C(O)N1	Cc1c(CO)nc(O)[nH]1	
InChI=1S/C5H8N2O2/c1-3-4(2-8)7-5(9)6-3/h8H,2H2,1H3,(H2,6,7,9)	InChI=1S/C5H8N2O2/c1-3-4(2-8)7-5(9)6-3/h8H,2H2,1H3,(H2,6,7,9)
