15
gdb 71571	3.07653	1.68781	1.5046	3.1562	64.17	-0.2326	-0.022	0.2105	892.9909	0.112678	-457.71952	-457.712679	-457.711735	-457.750529	27.378	
O	-0.1019869572	 1.417467818	-0.0785488931	-0.468543
C	-0.0051993328	 0.0427609791	-0.0765018036	 0.387294
C	 0.4831636502	-0.8074744559	-1.2696139445	-0.32665
C	-0.2923585219	-1.9632957576	-0.5462825832	-0.224791
C	-1.2370333463	-0.8654400623	 0.1044459675	 0.072743
O	-1.1001722928	-0.9332550286	 1.5345203063	-0.292236
C	 0.3263237188	-0.7417876468	 1.2800405907	-0.14083
C	 0.6373347001	-2.1138114531	 0.662587421	 0.48806
O	 1.3879436832	-2.9861605054	 0.9906699284	-0.332939
H	 0.7844304955	 1.7959144639	-0.0703207016	 0.290578
H	-0.0132045069	-0.4910272878	-2.1905543831	 0.122494
H	 1.553452001	-0.9475228815	-1.4442031962	 0.116285
H	-0.6482808113	-2.8448297088	-1.0691678066	 0.102051
H	-2.2432337777	-0.6991666373	-0.274785709	 0.106012
H	 0.897651948	-0.3474411958	 2.1172270372	 0.100472
142.8309	219.5029	272.1556	322.2621	410.2002	454.8144	502.9858	544.3477	669.1118	694.2359	755.3291	790.7981	807.3141	850.1034	914.5056	929.3717	947.0121	967.6762	1020.641	1046.2704	1102.8487	1106.2282	1124.8435	1147.2722	1185.3978	1207.588	1221.571	1241.2978	1298.8772	1300.6678	1403.6262	1499.1032	1893.6783	3057.8642	3119.3682	3147.2617	3158.8518	3181.3002	3800.6764
OC12CC3C1OC2C3=O	O[C@]12C[C@@H]3[C@H]1O[C@H]2C3=O	
InChI=1S/C6H6O3/c7-3-2-1-6(8)4(2)9-5(3)6/h2,4-5,8H,1H2	InChI=1S/C6H6O3/c7-3-2-1-6(8)4(2)9-5(3)6/h2,4-5,8H,1H2/t2-,4+,5-,6+/m0/s1
