13
gdb 9867	6.03434	0.92877	0.86146	4.7842	74.82	-0.2668	-0.0492	0.2176	1265.6749	0.094489	-361.429837	-361.422067	-361.421123	-361.46227	28.05	
O	-0.0494406449	 1.3748256236	-0.0740892612	-0.431424
C	-0.0014501882	-0.0218499807	-0.0101773623	 0.190102
C	-0.4777849832	-0.6994951092	 1.270700411	-0.30986
C	-1.3547501808	-0.6918253139	 0.050858096	-0.284078
C	 1.0560491926	-0.6382681144	-0.7595994767	 0.169487
C	 1.9750427931	-1.1246515057	-1.3787468853	-0.055444
C	 3.0037588837	-1.6854141899	-2.0768192115	 0.202416
N	 3.8815606941	-2.1647214899	-2.6689435728	-0.33697
H	 0.7448345392	 1.7233248851	 0.3477252925	 0.294742
H	-0.0006364428	-1.6261717759	 1.5665857023	 0.138124
H	-0.7296666599	-0.0213140129	 2.0778916623	 0.135649
H	-2.1939632893	-0.0064933334	 0.0331629081	 0.145744
H	-1.4899252236	-1.6125419627	-0.5029008523	 0.14151
85.7563	100.1045	235.7105	238.5024	317.4137	344.4136	384.0408	525.4647	542.7535	559.3604	598.2862	610.3895	775.3043	849.8629	873.3	935.0087	993.6067	1058.3219	1072.7562	1088.2666	1195.7258	1243.8896	1322.7619	1370.2649	1450.633	1483.1462	2258.4315	2388.3733	3144.1048	3151.5845	3235.9306	3250.9514	3791.6715
OC1(CC1)C#CC#N	OC1(CC1)C#CC#N	
InChI=1S/C6H5NO/c7-5-1-2-6(8)3-4-6/h8H,3-4H2	InChI=1S/C6H5NO/c7-5-1-2-6(8)3-4-6/h8H,3-4H2
