23
gdb 112661	3.15869	0.96806	0.78205	2.8151	86.18	-0.2334	-0.0116	0.2218	1536.7834	0.205073	-388.342677	-388.332827	-388.331883	-388.377616	36.844	
C	 0.1381832461	 1.6187023953	 0.1365682163	-0.386152
C	-0.0296106547	 0.1003521761	 0.0196746727	-0.188035
C	 0.5967186857	-0.5010198492	-1.2406622695	 0.033209
C	 0.5128575685	-2.0439433854	-1.3052204353	-0.243421
C	 0.8061786914	-2.3942319361	-2.7720555603	-0.080908
C	 0.3306417276	-3.7521242505	-3.2816641502	-0.406088
C	 0.2107929143	-1.2100395828	-3.5493359417	 0.399311
O	-0.0271250804	-1.1997506839	-4.7303019846	-0.323776
C	-0.044325165	-0.0591944283	-2.5705344915	-0.332162
H	 1.1971815813	 1.9003589636	 0.1368145146	 0.114754
H	-0.3431689527	 2.1422598125	-0.6959549837	 0.120196
H	-0.3051762842	 1.9945594355	 1.0637146244	 0.114222
H	 0.4155902517	-0.3824020067	 0.8995142166	 0.094509
H	-1.0981847479	-0.1551993891	 0.0414250614	 0.093354
H	 1.660239315	-0.2212969058	-1.2642912558	 0.072763
H	 1.1942912385	-2.5296258916	-0.6008584677	 0.099629
H	-0.5053178428	-2.3672057301	-1.0461958489	 0.097037
H	 1.8935722224	-2.3144510359	-2.9342430668	 0.101744
H	-0.738419177	-3.8895053599	-3.0863116236	 0.116468
H	 0.483756274	-3.8230831544	-4.3617316733	 0.137714
H	 0.8701284443	-4.5707603169	-2.7962635055	 0.112022
H	-1.1343946667	 0.0380502531	-2.4622113554	 0.126531
H	 0.3172555606	 0.8880922804	-2.977626082	 0.12708
70.7394	88.5192	114.8601	186.3082	200.3907	241.5119	251.5596	330.5696	373.6408	406.3623	489.6983	525.1697	561.5604	611.144	722.6485	783.9269	846.8176	879.4882	906.9235	923.2576	962.1258	1001.4769	1008.535	1046.0771	1065.4789	1094.3841	1145.8528	1155.4999	1169.4651	1191.2532	1225.6103	1258.5721	1273.9216	1297.092	1314.4188	1334.0032	1351.192	1370.7328	1391.6808	1406.5738	1414.0149	1447.0618	1484.5786	1494.245	1498.3089	1499.3976	1501.4934	1507.5818	1840.2536	2979.8217	2993.6023	3008.1395	3015.3748	3022.3106	3032.5313	3037.8286	3043.7694	3084.993	3098.6402	3101.9362	3103.8586	3105.8217	3122.2249
CCC1CC(C)C(=O)C1	CC[C@H]1C[C@@H](C)C(=O)C1	
InChI=1S/C8H14O/c1-3-7-4-6(2)8(9)5-7/h6-7H,3-5H2,1-2H3	InChI=1S/C8H14O/c1-3-7-4-6(2)8(9)5-7/h6-7H,3-5H2,1-2H3/t6-,7+/m1/s1
