18
gdb 108412	1.79653	1.46772	1.08658	2.9921	76.38	-0.2427	-0.0683	0.1744	1217.7677	0.143925	-439.015748	-439.005428	-439.004484	-439.05168	35.582	
C	-0.2398363186	 1.1301834979	-0.6188359681	-0.264026
O	-0.0358583033	-0.0851142614	 0.0889048094	-0.288674
C	-1.1718384717	-0.902374447	 0.1804369084	 0.334007
C	-2.1159587654	-0.4651896009	 1.2979542971	-0.229488
N	-3.3511207396	-1.2470374983	 1.2934682497	-0.512197
H	-3.1604599819	-2.2040790098	 1.5767117745	 0.22534
H	-3.9968397843	-0.8694237457	 1.9794826294	 0.23228
C	-0.9908134335	-2.3273770702	-0.1945692421	-0.294042
C	-1.6936258721	-1.6102102568	-1.0327891742	 0.176711
C	-2.3824239222	-1.5301894294	-2.3171109397	 0.050909
O	-2.5089265576	-0.5098731453	-2.9535912927	-0.257948
H	 0.746532542	 1.5730489974	-0.7760875551	 0.123719
H	-0.722005431	 0.9508960288	-1.5885206656	 0.137335
H	-0.854816486	 1.8429491013	-0.0512019535	 0.106244
H	-1.5489275428	-0.4980031786	 2.2434971744	 0.094338
H	-2.3872539659	 0.5836566444	 1.1325404085	 0.112803
H	-0.4984069826	-3.2612179643	 0.025376911	 0.155982
H	-2.7865201433	-2.4964514721	-2.6844007913	 0.096707
65.2875	88.2764	97.7426	126.9379	142.7968	185.2278	214.0584	278.5663	292.0051	380.4657	425.4871	501.8694	564.1887	595.3036	677.587	772.3341	826.8854	855.213	980.3056	1015.2692	1033.3295	1038.7887	1084.3606	1116.7415	1131.2937	1183.4186	1190.3209	1227.2468	1288.9244	1319.6867	1411.3475	1422.7142	1484.6973	1492.4415	1504.1008	1515.8029	1654.5845	1772.3057	1790.2504	2913.4268	2960.5642	2995.1418	3055.3146	3061.4818	3118.5861	3260.5308	3490.8548	3571.8931
COC12C[NH2+]C1[C-]2C=O	CO[C@]1(CN)C=C1C=O	
InChI=1S/C6H8NO2/c1-9-6-3-7-5(6)4(6)2-8/h2,5,7H,3H2,1H3/q-1/p+1	InChI=1S/C6H9NO2/c1-9-6(4-7)2-5(6)3-8/h2-3H,4,7H2,1H3/t6-/m0/s1
