16
gdb 131828	4.77371	0.83248	0.74557	1.7839	67.19	-0.234	0.0086	0.2426	1460.9642	0.125771	-471.222937	-471.214442	-471.213498	-471.257071	30.329	
O	 0.1045320453	 1.3835585572	 0.1773082248	-0.406241
C	 0.0732137532	-0.0303265879	 0.2046478669	-0.072066
C	-1.3451881723	-0.5539437597	-0.0701649473	-0.178971
N	-1.4080254284	-1.9997953957	-0.0450418401	 0.055491
C	-1.9773546221	-2.8236699353	 0.8493792542	 0.010975
N	-1.7684908904	-4.0891322761	 0.5202087423	-0.365812
C	-1.0384326607	-3.9668681558	-0.6190322628	 0.436402
O	-0.5990620101	-5.0256203836	-1.3108735878	-0.406628
N	-0.783414466	-2.7325011302	-1.0170851726	-0.332145
H	 0.0835784164	 1.6669948624	-0.7420633432	 0.291217
H	 0.7712603754	-0.4828384206	-0.5105632436	 0.128974
H	 0.384157486	-0.3321752923	 1.2101245642	 0.12085
H	-2.036258068	-0.1704396944	 0.6849141711	 0.132181
H	-1.6863633274	-0.2090263777	-1.0522146605	 0.126873
H	-2.5296476298	-2.4688237501	 1.7068159715	 0.147099
H	-0.9057876312	-5.8083727403	-0.8375063672	 0.3118
59.4081	90.0234	91.0342	262.1805	296.3553	313.7854	344.0048	398.4048	410.9904	487.6287	642.6848	705.8043	769.8441	789.5939	815.6017	849.4106	1023.2364	1033.922	1051.6483	1065.0627	1089.6532	1160.6838	1204.4919	1239.6132	1290.7979	1341.6176	1350.1946	1392.6213	1401.1334	1418.7284	1478.3314	1487.5042	1511.306	1525.8076	1638.6727	3031.5314	3051.0168	3084.547	3117.6101	3255.3602	3813.0632	3822.3602
OCCN1C=NC(O)=N1	OCCn1cnc(O)n1	
InChI=1S/C4H7N3O2/c8-2-1-7-3-5-4(9)6-7/h3,8H,1-2H2,(H,6,9)	InChI=1S/C4H7N3O2/c8-2-1-7-3-5-4(9)6-7/h3,8H,1-2H2,(H,6,9)
