18
gdb 47111	2.77473	1.67024	1.22524	5.391	70.18	-0.2334	0.0087	0.242	1026.3047	0.151529	-439.128963	-439.121581	-439.120637	-439.161966	28.069	
O	-0.0068924123	-0.0013811729	 0.0434980979	-0.333663
C	 0.0175499187	 1.1919913672	 0.0964293867	 0.452216
O	-1.1040205551	 1.9340618021	 0.2904578052	-0.216714
C	-0.8309880976	 3.3412022972	 0.3384096879	-0.095096
C	 0.667045196	 3.5536589974	 0.0108599568	-0.046582
C	 1.4724885745	 4.233716107	 1.1344172912	-0.228646
C	 1.9087723706	 3.0402833405	 2.0080272587	-0.179072
N	 2.1774027392	 1.9367421275	 1.0752773599	-0.276659
C	 1.241826726	 2.1108772541	-0.047384531	-0.166808
H	-1.4929622689	 3.8312759984	-0.3804862968	 0.12153
H	-1.0891959456	 3.7003572975	 1.3406774432	 0.116236
H	 0.7709694121	 4.0769852781	-0.9405688126	 0.086593
H	 2.3538652415	 4.731137341	 0.7148012033	 0.101153
H	 0.8941156924	 4.9871451329	 1.6779709552	 0.104241
H	 2.7871893138	 3.2429979014	 2.6251196552	 0.110747
H	 1.0967586626	 2.7470164523	 2.6866942629	 0.117463
H	 3.1264518176	 2.0099227118	 0.7281577036	 0.225489
H	 1.7312374345	 1.8548915164	-0.9891938873	 0.107573
31.5881	109.5984	197.1203	281.5077	371.9267	466.5617	562.968	615.5925	671.6066	705.4792	748.1738	768.7805	849.8813	867.2557	904.1045	925.5806	953.6861	982.3443	998.0438	1046.8769	1076.8157	1110.3702	1121.1439	1175.8366	1203.8647	1215.5403	1230.922	1248.2712	1285.9434	1311.3684	1343.9567	1352.947	1369.5883	1405.9134	1468.466	1493.368	1506.6877	1527.4929	1886.6378	3021.0185	3040.9971	3043.4525	3082.3008	3089.0493	3093.5026	3102.6876	3107.5194	3539.3286
O=C1OCC2CCNC12	O=C1OC[C@H]2CCN[C@@H]12	
InChI=1S/C6H9NO2/c8-6-5-4(3-9-6)1-2-7-5/h4-5,7H,1-3H2	InChI=1S/C6H9NO2/c8-6-5-4(3-9-6)1-2-7-5/h4-5,7H,1-3H2/t4-,5-/m1/s1
