19
gdb 74430	2.73022	1.43736	1.10279	1.8199	78.4	-0.2284	0.0138	0.2422	1152.5133	0.158292	-423.010774	-423.002157	-423.001213	-423.043578	33.423	
C	 0.0465190192	 1.5282489709	 0.1031834085	-0.481512
C	-0.0116881875	 0.0344646064	-0.0242284985	 0.295977
C	-1.1321505258	-0.6839637289	 0.0540374199	-0.239816
C	-1.0902768399	-2.1693191372	 0.0037338554	 0.326918
O	-1.6786916022	-2.8313276217	 1.0962931563	-0.462862
C	-1.0596495794	-2.9120766506	-1.3228714372	-0.362267
C	 0.1903376349	-2.7651485118	-0.4824961094	 0.051533
O	 1.1790743869	-1.9018181351	-0.9624417929	-0.256556
C	 1.3056840421	-0.6851002044	-0.2415882372	-0.159673
H	 0.7280534263	 1.8281660307	 0.9100271519	 0.129034
H	 0.4282858579	 1.9930207374	-0.8150145028	 0.128186
H	-0.9382470567	 1.9507592854	 0.3190810797	 0.124952
H	-2.0993017392	-0.2061998474	 0.199447646	 0.077677
H	-2.6336234172	-2.8184949208	 0.9667804201	 0.28176
H	-1.5310898979	-3.8888476385	-1.3515879314	 0.110184
H	-1.1023129388	-2.3297736517	-2.2360727495	 0.120308
H	 0.5650046416	-3.6428040256	 0.0402377816	 0.100255
H	 1.9832637219	-0.0637690606	-0.8372420381	 0.111783
H	 1.7978145037	-0.8537774666	 0.7327007176	 0.104119
120.6846	139.0891	195.3816	228.9032	280.4213	289.3449	385.6662	403.5916	434.6947	465.0676	491.0603	543.3433	611.0425	789.427	839.0833	855.4452	893.8167	923.676	931.7563	983.5542	1007.2656	1021.5953	1054.0086	1056.2088	1085.5053	1099.6147	1165.5045	1185.0094	1223.0969	1273.2229	1289.6078	1336.2883	1363.1885	1393.645	1411.4958	1413.6695	1472.0334	1478.4642	1489.0401	1493.6582	1737.0166	2949.6747	3014.9091	3060.576	3063.6963	3112.9776	3126.9433	3132.8222	3139.98	3232.7033	3793.8247
CC1=CC2(O)CC2OC1	CC1=C[C@@]2(O)C[C@H]2OC1	
InChI=1S/C7H10O2/c1-5-2-7(8)3-6(7)9-4-5/h2,6,8H,3-4H2,1H3	InChI=1S/C7H10O2/c1-5-2-7(8)3-6(7)9-4-5/h2,6,8H,3-4H2,1H3/t6-,7-/m1/s1
