19
gdb 114074	2.80857	1.14386	0.95778	1.3004	72.04	-0.2288	0.0692	0.2981	1264.6685	0.1571	-460.11395	-460.104453	-460.103509	-460.147977	35.719	
O	-0.1128703972	 1.4262527594	-0.0655378451	-0.423157
C	 0.0279279665	 0.0253543712	 0.1342688748	-0.100016
C	-1.3465134598	-0.5999664086	-0.0030229561	-0.033091
C	-2.0334998997	-0.6399332506	-1.4155571033	-0.306605
C	-2.1982597464	-2.1573142428	-1.2766982301	 0.311866
O	-3.3341026337	-2.8593196979	-1.6337538354	-0.464077
C	-0.8454985127	-2.8090361636	-1.107068736	-0.390057
C	-1.4783672043	-2.1249708122	 0.0763078534	 0.325213
O	-1.648032956	-2.8493988802	 1.2397914922	-0.455864
H	 0.758410741	 1.8282496305	-0.0019714285	 0.285868
H	 0.7189762969	-0.4114713357	-0.6036950094	 0.083293
H	 0.4327834947	-0.1988666699	 1.1343034868	 0.092067
H	-2.0183185594	-0.1216129276	 0.7190858943	 0.076139
H	-2.9886316265	-0.1117116641	-1.4303726314	 0.10957
H	-1.4177066057	-0.2909600695	-2.2513691517	 0.094532
H	-3.2072081712	-3.2221299759	-2.5171029099	 0.286064
H	-0.9001321214	-3.8898827135	-1.0174146564	 0.120583
H	 0.0469330186	-2.4324787603	-1.6030520012	 0.101016
H	-2.4568307937	-2.5452533687	 1.6674920029	 0.286655
84.2376	134.119	169.8721	171.8167	246.2988	267.5149	317.4291	327.4779	350.155	378.9892	455.6728	481.4957	567.87	623.4325	706.1437	777.3389	832.8538	847.0641	913.4593	959.3634	989.7531	1052.2885	1064.8955	1076.5293	1091.9855	1142.8039	1158.2762	1185.709	1209.8549	1227.1967	1255.2372	1269.1481	1286.3524	1320.8884	1362.9229	1372.1766	1420.7187	1462.4323	1479.5708	1515.9027	1526.5158	2967.2153	2994.334	3043.4035	3047.1578	3097.363	3116.5617	3199.7453	3788.4296	3793.4615	3827.6137
OCC1CC2(O)CC12O	OC[C@H]1C[C@@]2(O)C[C@@]12O	
InChI=1S/C6H10O3/c7-2-4-1-5(8)3-6(4,5)9/h4,7-9H,1-3H2	InChI=1S/C6H10O3/c7-2-4-1-5(8)3-6(4,5)9/h4,7-9H,1-3H2/t4-,5-,6-/m1/s1
