24
gdb 123009	5.12353	0.5078	0.4838	0.8966	87.63	-0.2207	0.0813	0.3019	2310.8149	0.215639	-405.514998	-405.503931	-405.502986	-405.552395	39.285	
C	 0.0964993414	 1.4929554674	-0.47467401	-0.411473
C	 0.0528394155	 0.0315940608	-0.0821449189	 0.031627
C	 1.2997172213	-0.7722813025	 0.0698112299	-0.254813
N	 0.4687682246	-0.465727588	 1.2307444614	-0.081116
C	 1.0057016384	 0.4520365836	 2.2291985435	-0.142396
C	 1.7154910719	-0.3308106348	 3.33586736	-0.179912
C	 2.2687134928	 0.5727419099	 4.4404190498	-0.166858
C	 2.9743185277	-0.205377236	 5.5428747517	-0.073503
O	 3.4486039933	 0.726188512	 6.5044842516	-0.422306
H	 1.0297395589	 1.9796200552	-0.182015279	 0.121068
H	 0.0019881852	 1.5868389326	-1.5617845373	 0.121259
H	-0.7329549716	 2.0491573027	-0.0235124534	 0.122276
H	-0.83064571	-0.4874696473	-0.4536523394	 0.087088
H	 1.3417170414	-1.8154078488	-0.2338836665	 0.109721
H	 2.2426521645	-0.2338305841	-0.0335558101	 0.100841
H	 1.7055753087	 1.193402715	 1.8070000595	 0.079959
H	 0.1661984368	 1.0143158248	 2.6575641185	 0.100053
H	 1.0093714579	-1.0583443191	 3.7536497567	 0.105575
H	 2.5307208331	-0.9149443285	 2.8881224405	 0.095584
H	 2.9783823582	 1.2974513308	 4.0219832868	 0.10251
H	 1.4592381976	 1.1577772406	 4.8946983315	 0.103956
H	 2.2730478304	-0.9247235494	 5.9969440855	 0.08425
H	 3.8040743167	-0.7899480711	 5.111917827	 0.082349
H	 3.8865253554	 0.2363733542	 7.2064225106	 0.284258
51.4912	61.7393	81.481	117.9666	140.3487	170.5193	209.2269	255.6123	266.098	333.6883	358.5688	438.4347	467.3908	545.2342	750.5583	755.1425	809.6456	817.7606	901.286	938.5077	952.7469	1003.5013	1034.1036	1047.5348	1056.7853	1067.2306	1094.638	1112.7563	1146.2746	1149.9792	1187.9995	1190.0521	1224.7644	1232.0386	1290.7409	1295.7719	1314.6497	1326.7787	1338.6234	1368.6325	1398.1179	1410.8751	1421.8597	1463.5015	1484.972	1491.5891	1493.242	1499.7068	1506.5683	1517.0518	1530.0733	2950.3667	2957.7111	2982.8909	3017.1055	3027.4099	3034.5756	3039.761	3055.0843	3078.292	3079.2567	3091.9487	3095.9905	3123.9261	3166.0607	3830.5414
CC1CN1CCCCO	C[C@H]1CN1CCCCO	
InChI=1S/C7H15NO/c1-7-6-8(7)4-2-3-5-9/h7,9H,2-6H2,1H3	InChI=1S/C7H15NO/c1-7-6-8(7)4-2-3-5-9/h7,9H,2-6H2,1H3/t7-,8?/m0/s1
