20
gdb 37567	3.64263	1.60881	1.37954	1.9642	82.65	-0.2172	0.0795	0.2966	995.6721	0.173648	-365.905591	-365.898748	-365.897804	-365.936824	28.576	
C	-0.0822442641	 1.6340110214	-0.047895817	-0.262707
C	 1.3955983759	 1.238522748	-0.0337098848	-0.042575
N	 1.139500598	 0.132142978	 1.0240089463	-0.192197
C	-0.0588519751	 0.1062042506	 0.013955729	-0.103546
C	 1.1918640931	-0.0387816378	-0.9253381302	 0.356341
C	 1.7761934622	-0.3091224896	-2.2951277899	-0.383026
C	 3.2256163269	-0.805454795	-1.8944291452	-0.19212
C	 3.3403640378	-0.8194675481	-0.3188029024	-0.26859
C	 1.8751686904	-0.8802176911	 0.111767201	 0.032024
H	-0.4474061262	 2.1446547203	 0.8469746711	 0.106852
H	-0.4714792026	 2.0865883768	-0.9630735986	 0.098002
H	 2.2739544039	 1.8818764244	 0.036776293	 0.079443
H	-0.8709205675	-0.6102892725	 0.150877083	 0.081341
H	 1.2328721063	-1.0985919513	-2.8240044132	 0.105452
H	 1.8035435126	 0.5668492793	-2.949191125	 0.102047
H	 3.3879712615	-1.8130844743	-2.2873020827	 0.106834
H	 3.998672426	-0.1712926478	-2.3357814391	 0.104505
H	 3.9496328529	-1.6548891853	 0.0339276347	 0.096617
H	 3.8177191678	 0.0998909902	 0.0324058114	 0.110389
H	 1.5070482701	-1.900491596	 0.2701860787	 0.064913
75.34	254.213	264.4266	304.297	481.5116	521.1	608.0919	667.9872	713.7592	760.5736	772.447	834.6681	843.7271	865.044	887.1062	896.043	923.5041	929.0306	983.0307	985.8196	1020.9878	1035.9068	1054.4387	1075.4099	1116.6231	1136.2604	1159.636	1183.9285	1193.4546	1208.9919	1217.8001	1227.5706	1249.5913	1266.7824	1276.7963	1309.8133	1312.7606	1346.813	1387.9869	1482.9191	1490.0018	1493.2865	1507.3823	3038.312	3047.6293	3057.2583	3059.7308	3065.4873	3085.2337	3097.2615	3101.4139	3104.1385	3116.1434	3123.3977
C1C2N3C1C21CCCC31	C1[C@H]2N3[C@@H]1[C@]12CCC[C@@H]31	
InChI=1S/C8H11N/c1-2-5-8(3-1)6-4-7(8)9(5)6/h5-7H,1-4H2	InChI=1S/C8H11N/c1-2-5-8(3-1)6-4-7(8)9(5)6/h5-7H,1-4H2/t5-,6-,7+,8-/m1/s1
