17
gdb 20035	4.02489	1.34289	1.18392	3.4942	64.61	-0.2476	0.066	0.3136	1040.5908	0.142319	-400.934966	-400.926924	-400.92598	-400.968056	29.072	
O	-0.0105664944	 1.0950570392	-0.8930200093	-0.423336
C	 0.0762868509	 0.0094139095	 0.0209518849	-0.089448
C	-1.2982894259	-0.554805012	 0.2964964275	-0.029619
N	-1.8595201729	-1.4025730051	-0.7766613613	-0.345345
C	-1.6070004772	-1.993194547	 0.5421537723	-0.065366
C	-0.6058621958	-3.1067131588	 0.6438010067	 0.078428
C	-0.4386720332	-4.0920912515	-0.4348570825	-0.175875
O	 0.5430948513	-3.0811437638	-0.1953957453	-0.221116
H	-0.3477643417	 0.7238494553	-1.7160763832	 0.287405
H	 0.7369855967	-0.7805078053	-0.3484692428	 0.130098
H	 0.5045676839	 0.4199261434	 0.9417516673	 0.103294
H	-1.9804187379	 0.1613732178	 0.7537181559	 0.090759
H	-2.8516104366	-1.2226889327	-0.8998937566	 0.235543
H	-2.4711803927	-2.17735041	 1.1818130541	 0.086568
H	-0.4016799026	-3.426258915	 1.6675024118	 0.095619
H	-0.1274860264	-5.1087826404	-0.2008410471	 0.114364
H	-1.0137906156	-3.9604100039	-1.3485620624	 0.128026
70.2632	82.0876	148.9256	212.1065	251.9405	326.7801	405.0538	466.9001	554.766	647.4342	732.3659	828.8906	865.5192	908.8941	914.6478	948.4169	994.7402	1010.397	1059.5688	1072.1849	1096.9944	1121.1183	1161.6642	1169.2781	1179.2022	1215.7542	1264.0696	1271.5326	1296.207	1370.0337	1403.0707	1422.1602	1443.4395	1483.341	1503.8969	1515.9739	3049.1153	3087.1414	3092.5871	3096.2298	3102.8246	3119.7858	3188.9038	3511.944	3802.5263
OCC1NC1C1CO1	OC[C@H]1N[C@H]1[C@H]1CO1	
InChI=1S/C5H9NO2/c7-1-3-5(6-3)4-2-8-4/h3-7H,1-2H2	InChI=1S/C5H9NO2/c7-1-3-5(6-3)4-2-8-4/h3-7H,1-2H2/t3-,4-,5-/m1/s1
