22
gdb 117956	3.41519	0.73531	0.70054	2.7516	81.42	-0.2409	0.0346	0.2756	1749.8665	0.191734	-441.511807	-441.50027	-441.499326	-441.550114	39.136	
C	-0.3342410575	 1.3947456549	 0.2233583793	-0.333766
N	-0.2011567377	-0.0459605733	 0.3156743981	-0.318437
C	 0.9398196179	-0.6539277214	 0.751766498	 0.415479
O	 1.9292891239	-0.0343294446	 1.1081131107	-0.391431
C	 0.9056400168	-2.1824740142	 0.7580442186	-0.12061
C	 1.8802457714	-2.7311747968	-0.2967992055	-0.387073
C	 1.2708211316	-2.6699868991	 2.1637938139	-0.045617
O	 1.1735305827	-4.0777880499	 2.1881898211	-0.238025
C	 1.5491195108	-4.629086846	 3.4271467852	-0.228896
H	-0.5415082739	 1.7117004448	-0.8048649881	 0.124955
H	-1.1361872986	 1.7652378188	 0.8718228643	 0.124681
H	 0.6136043569	 1.8267656242	 0.5464066372	 0.172277
H	-0.9773943805	-0.6238363252	 0.0408202408	 0.245805
H	-0.1071066678	-2.5409248868	 0.5348617953	 0.070386
H	 2.8787250591	-2.3170939857	-0.1298015259	 0.13699
H	 1.9313356941	-3.8194367976	-0.2270076617	 0.133021
H	 1.5631508602	-2.4584747238	-1.3081431016	 0.108783
H	 2.2894586098	-2.3360638647	 2.4119275272	 0.111951
H	 0.5901467728	-2.2273277177	 2.9113863395	 0.084282
H	 0.9060230654	-4.2698697164	 4.2465555513	 0.102841
H	 1.4459247086	-5.7141902606	 3.3482977496	 0.125195
H	 2.5928802842	-4.3876499991	 3.6824778423	 0.107208
25.1676	82.5553	87.5782	94.0816	109.84	170.019	221.111	226.0578	249.4123	270.5591	323.0375	350.1055	374.3445	482.5066	542.0725	702.572	765.4671	861.7069	908.7987	937.1105	994.7279	1055.7286	1069.0879	1115.5826	1154.517	1157.6314	1170.1879	1173.1365	1196.504	1210.8649	1236.9247	1266.6732	1344.1481	1359.5005	1394.545	1417.5675	1436.6056	1480.4827	1484.5265	1490.8199	1496.3379	1500.4484	1502.9391	1505.7432	1528.9333	1558.9764	1769.5203	2954.2739	2971.3834	3009.9638	3014.3249	3026.8629	3032.7667	3044.8681	3078.4053	3112.3271	3114.5059	3138.063	3153.6269	3653.3461
CNC(=O)C(C)COC	CNC(=O)[C@@H](C)COC	
InChI=1S/C6H13NO2/c1-5(4-9-3)6(8)7-2/h5H,4H2,1-3H3,(H,7,8)	InChI=1S/C6H13NO2/c1-5(4-9-3)6(8)7-2/h5H,4H2,1-3H3,(H,7,8)/t5-/m0/s1
