19
gdb 39711	3.31838	1.6852	1.48457	0.3857	83.32	-0.2175	0.0176	0.2351	956.4741	0.161217	-348.705565	-348.698847	-348.697903	-348.736229	28.865	
C	-0.135217968	 1.4827232728	 0.0138926047	-0.330687
C	 1.2105926958	 0.7768715914	-0.0131640281	-0.342777
C	-0.062654378	-0.0109091093	 0.0049144947	 0.438378
C	-0.4191536605	-1.0185988786	 1.0653095707	-0.171632
C	-1.7461659054	-1.760233932	 0.7260054588	-0.086331
C	-2.6685571114	-1.1524876859	-0.2771240602	-0.084118
C	-1.9742286199	-0.7912631147	-1.3612298269	-0.086816
C	-0.4995273614	-1.0261311024	-1.1016098181	-0.20594
C	-0.4645826662	-2.1168988727	 0.0263594408	-0.065754
H	-0.4331613257	 1.9787410297	 0.932311218	 0.108199
H	-0.4589751539	 1.9908777108	-0.888900227	 0.10744
H	 1.7824519793	 0.8106756073	-0.9357835727	 0.107848
H	 1.820778635	 0.7986578937	 0.8848395692	 0.108952
H	-0.0283346661	-1.0451009857	 2.0761327089	 0.083925
H	-2.1180268281	-2.40167868	 1.5172028325	 0.081472
H	-3.726586095	-0.9986900471	-0.1052266405	 0.092781
H	-2.3557336162	-0.2570031309	-2.2224820085	 0.093751
H	 0.1575716672	-1.1179363559	-1.9660257019	 0.065621
H	 0.0059632285	-3.0919507002	 0.0017542257	 0.085687
152.3167	230.9799	262.1894	408.9922	439.4602	522.1711	611.6206	706.1435	734.7147	754.672	773.3958	796.9569	805.2736	831.7403	867.9337	906.0255	919.1951	922.5415	944.4167	967.9108	980.5186	986.9651	996.7218	1048.8107	1055.5693	1068.6324	1073.7709	1088.2558	1122.8623	1164.3326	1183.096	1209.8484	1250.5696	1259.2217	1266.7558	1351.3941	1370.7887	1404.1017	1464.3416	1505.4009	1643.0412	3114.1168	3115.7756	3124.0548	3170.8587	3174.5708	3189.5671	3193.4621	3197.4129	3210.1098	3222.4591
C1CC11C2C3C=CC1C23	C1CC21[C@H]1[C@H]3C=C[C@@H]2[C@@H]13	
InChI=1S/C9H10/c1-2-6-7-5(1)8(7)9(6)3-4-9/h1-2,5-8H,3-4H2	InChI=1S/C9H10/c1-2-6-7-5(1)8(7)9(6)3-4-9/h1-2,5-8H,3-4H2/t5-,6+,7-,8-/m0/s1
