16
gdb 12577	3.10803	2.0447	1.26224	4.9768	68.66	-0.2624	-0.03	0.2324	943.3596	0.129806	-383.809397	-383.801304	-383.800359	-383.842098	28.666	
C	 0.0932571549	 1.5000178986	-0.1976012982	-0.498913
C	-0.0210422919	 0.0187065732	-0.0618820869	 0.189416
C	-1.1035845075	-0.7586950794	 0.0740911771	 0.048044
C	-2.5581060876	-0.4316547336	 0.1378180234	-0.495875
C	-0.6533666488	-2.1712274254	 0.1680955154	 0.408565
O	-1.3108105525	-3.166576674	 0.2960715886	-0.35161
O	 0.7171061243	-2.1961242297	 0.0834654403	-0.231892
C	 1.1988151224	-0.8653503651	-0.0624530477	-0.165859
H	 0.7011580051	 1.9226146277	 0.6118932396	 0.140738
H	 0.5902444389	 1.7709047406	-1.1373017513	 0.140742
H	-0.8835085816	 1.987631628	-0.1779629308	 0.13987
H	-2.7440826431	 0.6416801023	 0.0572574041	 0.121673
H	-3.1008314075	-0.9409313634	-0.6657151379	 0.148666
H	-2.9907093733	-0.7910288676	 1.0776441271	 0.148686
H	 1.7705357726	-0.7892481155	-0.9970651304	 0.128874
H	 1.8821867958	-0.6363219367	 0.7662236176	 0.128875
81.6775	125.6758	140.1872	236.8786	255.1473	272.8618	297.1853	485.4397	531.9617	579.9545	662.0354	761.3346	769.5785	892.2124	960.9931	965.6971	1061.8409	1070.6858	1085.1382	1088.3696	1137.7966	1199.224	1204.9992	1337.2831	1374.34	1415.8124	1420.3165	1473.0181	1479.7264	1482.1664	1486.3463	1496.6551	1741.6103	1862.7911	3013.4286	3025.7258	3039.8394	3044.7469	3072.2399	3093.3527	3124.2905	3127.878
CC1=C(C)C(=O)OC1	CC1=C(C)C(=O)OC1	
InChI=1S/C6H8O2/c1-4-3-8-6(7)5(4)2/h3H2,1-2H3	InChI=1S/C6H8O2/c1-4-3-8-6(7)5(4)2/h3H2,1-2H3
