15
gdb 32306	2.70961	1.57877	1.00392	1.9848	72.44	-0.2211	-0.0324	0.1887	1115.2255	0.114754	-453.99947	-453.991877	-453.990932	-454.031739	28.221	
C	 0.0579058959	 1.3926671805	 0.0070091005	-0.246502
O	-0.0131777337	-0.0226404624	 0.0033076726	-0.236591
C	-1.2361092167	-0.5851899686	 0.0112874958	 0.205723
C	-2.4383627367	 0.0642766846	 0.0227776876	-0.130139
N	-3.6599964693	-0.5717685609	 0.0302524391	-0.275802
C	-3.6381325051	-1.8617213168	 0.0257446854	 0.096531
N	-2.4892477629	-2.5951262343	 0.0144560916	-0.344515
C	-1.1950433268	-2.0518664015	 0.0066912887	 0.3836
O	-0.2088889139	-2.7589211403	-0.0043829441	-0.373263
H	 1.1194017452	 1.6418892992	-0.0005452201	 0.145248
H	-0.4246881735	 1.8193828573	-0.8816389721	 0.129877
H	-0.4107087602	 1.8140001645	 0.9056509099	 0.129872
H	-2.48761672	 1.1470294159	 0.0265416233	 0.113097
H	-4.5651338328	-2.4279439709	 0.0309022267	 0.134922
H	-2.5235772295	-3.6064195661	 0.0111512251	 0.267944
104.5306	147.8609	225.4565	237.9399	303.2127	352.4874	448.3791	511.4127	562.4919	592.8655	600.4876	726.4344	762.5544	795.8993	903.9194	909.7213	934.456	1045.7601	1106.61	1156.2484	1177.9172	1210.3817	1254.6885	1299.0662	1397.6685	1419.9735	1466.7398	1484.2429	1491.0264	1505.1459	1596.4244	1655.2288	1802.5409	3007.1382	3067.9304	3144.7619	3175.9664	3193.7312	3592.0053
COC1=CN=CNC1=O	COc1cnc[nH]c1=O	
InChI=1S/C5H6N2O2/c1-9-4-2-6-3-7-5(4)8/h2-3H,1H3,(H,6,7,8)	InChI=1S/C5H6N2O2/c1-9-4-2-6-3-7-5(4)8/h2-3H,1H3,(H,6,7,8)
