19
gdb 40580	4.2099	1.15917	1.08803	1.9248	78.59	-0.2481	0.0841	0.3322	1161.0147	0.160631	-385.808844	-385.801642	-385.800698	-385.841003	28.746	
C	-0.5133812122	 1.2073793059	-0.4567870098	-0.186252
O	 0.453045114	 1.770585396	 0.4279842938	-0.239515
C	 0.444605172	 0.3463366208	 0.2513326826	 0.063741
C	 0.0336423496	-0.4670002765	 1.4474233953	 0.010571
C	-0.248737555	-1.9654675951	 1.3226663193	-0.093052
C	 1.0741268785	-2.7224605032	 1.5432868344	-0.061486
C	 2.167339017	-1.6877477091	 1.7946350859	-0.235279
C	 1.0746163494	-0.8730944658	 2.5410451872	-0.084276
C	 0.2675408599	-2.225594808	 2.7173385737	-0.087859
H	-1.5464493755	 1.2555963079	-0.1129685397	 0.109454
H	-0.3678233623	 1.4264588239	-1.5139901427	 0.111878
H	 1.2918331483	-0.0270010844	-0.3243206758	 0.090955
H	-0.8136660055	 0.0287206102	 1.9334913302	 0.074963
H	-1.0836619395	-2.4457444118	 0.827774459	 0.083681
H	 1.1826833609	-3.744181337	 1.2021731208	 0.084278
H	 2.9121424079	-2.0718141999	 2.4971853428	 0.100148
H	 2.6804796627	-1.2208047577	 0.946505885	 0.09076
H	 1.3412087656	-0.1687331562	 3.3255001747	 0.076489
H	-0.1719409456	-2.7271430599	 3.5665972833	 0.0908
59.461	152.0411	183.0422	323.1151	398.9934	499.3415	518.941	728.6143	740.8553	788.6906	793.4001	810.2863	856.5113	864.3222	892.6494	937.6668	940.5496	991.1837	997.7878	1007.3284	1021.7577	1032.3404	1042.5234	1073.5059	1099.5297	1124.6367	1147.5685	1158.2517	1167.7366	1168.8075	1189.2686	1202.6472	1239.4507	1270.3886	1291.4227	1314.227	1329.9713	1364.0319	1459.3284	1506.3126	1530.1605	3037.3171	3051.4067	3077.4832	3093.6566	3110.1306	3144.0716	3163.0082	3188.1359	3196.6097	3228.3734
C1OC1C1C2C3CC1C23	C1O[C@H]1[C@H]1[C@H]2[C@H]3C[C@@H]1[C@@H]23	
InChI=1S/C8H10O/c1-3-6-4(1)8(6)7(3)5-2-9-5/h3-8H,1-2H2	InChI=1S/C8H10O/c1-3-6-4(1)8(6)7(3)5-2-9-5/h3-8H,1-2H2/t3-,4+,5-,6-,7+,8+/m1/s1
