21
gdb 92588	1.97757	1.79315	1.58827	2.3004	76.93	-0.2471	0.0736	0.3207	1026.6041	0.183988	-424.225216	-424.21702	-424.216076	-424.257532	32.918	
C	 0.1968221645	 1.6106847629	-0.0401380081	-0.497024
C	 0.0084677603	 0.1050341568	 0.0274476619	 0.303751
C	-1.4453986135	-0.3640879382	 0.0154395455	-0.156133
O	-1.4155979006	-1.6693804327	 0.5989819873	-0.269648
C	-0.5252317624	-1.5654262824	 1.7148610129	-0.099134
C	 0.6345308748	-0.6828919908	 1.2402797051	-0.081541
C	 1.6338712086	-1.3749710944	 0.2775254897	-0.263558
C	 0.9168752008	-0.7413726654	-0.9478545111	 0.096085
O	 0.2545322048	-1.6297464179	-1.8146415673	-0.437859
H	 1.2565377452	 1.8818977519	 0.0139788426	 0.118197
H	-0.1965275215	 2.0142057454	-0.980701999	 0.123707
H	-0.3183099578	 2.1179349076	 0.7836295797	 0.114094
H	-2.0801471306	 0.3110375218	 0.611913224	 0.089463
H	-1.8655579889	-0.4584912242	-0.9883441534	 0.12173
H	-1.045800929	-1.0986697837	 2.5658810616	 0.092154
H	-0.2307032676	-2.5793826651	 1.999728697	 0.109377
H	 1.0709255942	-0.0945479492	 2.0496969571	 0.06844
H	 2.6690361513	-1.0471963742	 0.4025042247	 0.100911
H	 1.6171598837	-2.469646763	 0.2828860684	 0.098083
H	 1.5590490461	-0.1267869525	-1.5847651308	 0.080909
H	-0.3217717423	-2.1797127727	-1.2654541077	 0.287996
93.6306	214.8326	226.2519	234.8765	283.3541	331.9026	384.2182	424.9806	495.0218	559.2466	584.9126	611.0627	709.1334	791.2401	828.9373	870.9044	884.6016	934.3552	946.109	965.4687	998.8937	1014.2821	1054.2519	1083.0578	1115.1274	1140.0763	1162.5543	1176.1873	1197.5012	1219.9993	1241.7339	1263.8984	1283.4238	1292.8701	1316.0078	1330.7737	1360.277	1398.5524	1411.6463	1453.6042	1471.4992	1493.1344	1493.6907	1499.1852	1511.2547	2974.9001	2982.9354	3021.133	3047.498	3069.5433	3085.3884	3088.2899	3088.8568	3091.4176	3107.001	3107.8446	3737.9387
CC12COCC1CC2O	C[C@]12COC[C@H]1C[C@H]2O	
InChI=1S/C7H12O2/c1-7-4-9-3-5(7)2-6(7)8/h5-6,8H,2-4H2,1H3	InChI=1S/C7H12O2/c1-7-4-9-3-5(7)2-6(7)8/h5-6,8H,2-4H2,1H3/t5-,6-,7+/m1/s1
