16
gdb 66730	2.87797	1.74658	1.3368	2.8895	73.57	-0.2283	-0.0345	0.1938	962.0567	0.122496	-400.640245	-400.632575	-400.631631	-400.672375	28.94	
C	-0.2375611552	 1.4268971583	 0.1875101215	-0.532423
C	-0.0101541572	-0.0396661247	 0.055981515	 0.288644
C	 0.8647406496	-0.9376432024	-0.8704364188	-0.117136
C	 0.8815822857	-2.0077384304	 0.1586102072	-0.049393
C	 0.0102172397	-1.1357083461	 1.0980219905	-0.20858
C	-1.0458487796	-1.173701563	-0.0073370634	 0.258333
C	-2.4999932217	-1.1046830405	 0.0644421266	 0.019214
O	-3.0951621898	-0.3824647345	 0.836736534	-0.284111
N	-0.1744887555	-2.02679013	-0.9135084725	-0.215209
H	 0.6472578196	 1.9343497834	 0.5876149738	 0.128949
H	-0.4808067375	 1.8789503572	-0.7800184042	 0.132026
H	-1.0778812068	 1.6085092493	 0.8643003989	 0.158774
H	 1.5166164696	-0.7232078876	-1.7085961756	 0.106304
H	 1.5536705178	-2.8389983943	 0.3301992363	 0.108328
H	-0.1481859606	-1.0847272922	 2.1657848108	 0.11895
H	-3.0307285283	-1.7608964224	-0.6594905602	 0.087331
118.0787	136.7558	188.5312	217.7957	269.477	307.6419	443.3124	615.3552	661.9219	713.9432	730.7774	768.94	812.1592	816.2918	866.8312	908.1781	921.401	944.5052	991.7927	1009.026	1048.0333	1065.8569	1092.5447	1138.7776	1156.7157	1213.7358	1230.8151	1294.2335	1324.4369	1402.9741	1415.2144	1451.2871	1483.4427	1495.5828	1774.8392	2895.1291	3029.7199	3091.3023	3114.181	3183.7078	3198.2599	3226.1524
CC12C3C4C1C2(C=O)N34	C[C@@]12[C@H]3[C@H]4[C@@H]1[C@]2(C=O)N34	
InChI=1S/C7H7NO/c1-6-4-3-5(6)8(3)7(4,6)2-9/h2-5H,1H3	InChI=1S/C7H7NO/c1-6-4-3-5(6)8(3)7(4,6)2-9/h2-5H,1H3/t3-,4+,5-,6+,7+,8?/m1/s1
