19
gdb 100202	1.97851	1.46355	1.13651	1.7185	72.1	-0.2484	-0.0397	0.2087	1180.0861	0.154979	-460.130016	-460.119934	-460.118989	-460.165464	35.541	
C	-0.3369339155	 1.2779022562	-0.4108896016	-0.251835
O	-0.3630058165	-0.0777441409	-0.0086680948	-0.279657
C	 0.4719606624	-0.4327729123	 1.0790790551	 0.228485
C	 1.9293383314	 0.0249733588	 0.9449772301	-0.442399
C	-0.1630150298	 0.0779233057	 2.3819281084	 0.113105
O	 0.4201516046	 0.1820430752	 3.4287934526	-0.246097
C	 0.4439858523	-1.9630069406	 1.1777391626	 0.068608
C	-0.5716707766	-2.7879885829	 0.5155772557	-0.179526
O	 0.7598185532	-2.6814869815	-0.0045112002	-0.241959
H	 0.6026552042	 1.5450748058	-0.9102749801	 0.12397
H	-1.1581288192	 1.4050991233	-1.1198130527	 0.135102
H	-0.4928340512	 1.968593479	 0.4312942434	 0.110941
H	 2.0125674433	 1.1128556277	 0.8865918324	 0.122236
H	 2.4880232721	-0.2979308843	 1.8260162421	 0.142987
H	 2.3725413615	-0.4209162443	 0.0515241146	 0.143376
H	-1.2487638333	 0.3043155547	 2.2800117574	 0.09191
H	 0.9233939777	-2.3353028372	 2.08365539	 0.110524
H	-0.8297216018	-3.7577456226	 0.9380545821	 0.115765
H	-1.3360582287	-2.3029404097	-0.0837277271	 0.134464
57.8601	77.4486	112.1597	180.9975	194.8646	221.7364	242.428	274.3506	315.9373	337.4222	389.6287	489.091	539.0691	632.4356	716.6426	839.7016	881.7848	928.1269	941.1814	1000.2985	1007.229	1100.4996	1111.3078	1151.2322	1163.9342	1176.8182	1179.5684	1194.2308	1225.4778	1239.8062	1297.8083	1380.2868	1398.9451	1419.6482	1477.7449	1485.9675	1488.7223	1503.2491	1513.0334	1517.4433	1830.536	2879.8259	2989.7057	3052.1655	3058.4998	3098.8501	3111.6568	3120.2975	3132.2559	3143.6975	3204.3252
COC(C)(C=O)C1CO1	CO[C@@](C)(C=O)[C@H]1CO1	
InChI=1S/C6H10O3/c1-6(4-7,8-2)5-3-9-5/h4-5H,3H2,1-2H3	InChI=1S/C6H10O3/c1-6(4-7,8-2)5-3-9-5/h4-5H,3H2,1-2H3/t5-,6+/m1/s1
