23
gdb 81333	2.3712	1.68219	1.29921	1.7169	84.42	-0.2404	0.0827	0.3231	1112.2998	0.206113	-388.278241	-388.269404	-388.26846	-388.310806	35.756	
C	-0.1486987772	 1.624196428	-0.0322483374	-0.444986
C	 0.0169511188	 0.111848747	 0.0095789605	 0.047319
C	 1.0792751109	-0.662417904	-0.8083553098	 0.055013
C	 2.4385832299	-0.1095532981	-0.3241768653	-0.283393
C	 2.1993071374	-0.2439970225	 1.2252014564	 0.345373
C	 3.0723279947	-1.3522820663	 1.8340933168	-0.433859
C	 2.3935952163	 1.0400876212	 2.0399297075	-0.466191
C	 0.7268432914	-0.7356462256	 1.1095728679	 0.008583
O	 0.8644704804	-1.7889957094	 0.098939502	-0.297841
H	 0.7967072996	 2.1640460411	-0.1116860648	 0.124027
H	-0.7551513213	 1.9033700706	-0.9008364784	 0.116962
H	-0.6706433062	 1.9902506035	 0.8585554037	 0.12161
H	-0.9479951985	-0.3705653194	-0.1685754365	 0.088168
H	 0.9578358161	-0.9103768422	-1.8638020363	 0.072764
H	 3.2682735406	-0.7289809612	-0.6732953994	 0.102486
H	 2.6210889333	 0.9190169755	-0.6492344224	 0.094664
H	 4.1334563634	-1.08648912	 1.7698375444	 0.105425
H	 2.8335808817	-1.5018934474	 2.893918917	 0.102528
H	 2.9186820416	-2.2966687484	 1.3091008942	 0.132604
H	 1.8008166259	 1.8809678038	 1.6786069471	 0.11439
H	 2.124098731	 0.8716316801	 3.0892929947	 0.11134
H	 3.4458425845	 1.3453189881	 2.0236585441	 0.115171
H	 0.2225050959	-1.0604473946	 2.0222026341	 0.067841
151.8311	182.2053	192.077	248.2482	263.3966	282.931	330.9057	359.1505	380.3782	450.6927	554.4545	589.1453	604.5171	714.8766	788.5404	816.7828	863.3443	874.6724	913.4272	927.6529	940.4397	960.2173	974.1114	1028.042	1031.117	1061.1833	1076.0609	1094.2873	1163.5741	1181.4576	1206.6488	1208.2378	1242.5513	1254.6203	1260.0363	1304.5769	1306.8321	1344.5741	1395.5914	1397.2128	1418.1476	1422.8882	1483.3633	1486.774	1492.3253	1499.941	1503.3587	1515.6043	1519.8575	3025.0834	3033.0484	3037.5193	3058.9256	3071.6094	3081.8353	3087.3742	3092.6305	3099.2608	3105.4861	3112.0857	3127.8047	3133.9021	3143.5351
CC1C2CC(C)(C)C1O2	C[C@H]1[C@H]2CC(C)(C)[C@@H]1O2	
InChI=1S/C8H14O/c1-5-6-4-8(2,3)7(5)9-6/h5-7H,4H2,1-3H3	InChI=1S/C8H14O/c1-5-6-4-8(2,3)7(5)9-6/h5-7H,4H2,1-3H3/t5-,6+,7+/m0/s1
