16
gdb 29207	3.08449	1.41728	0.97859	6.6831	76.92	-0.2038	-0.0461	0.1577	1150.8467	0.125804	-434.13428	-434.126052	-434.125108	-434.166923	31.184	
C	-0.0669563647	 1.4953880516	-0.0113104529	-0.488872
C	-0.0165668309	-0.0085557273	-0.0037318453	 0.314627
N	-0.0084144931	-0.6171033606	-1.1589485114	-0.374173
C	 0.0202156527	-2.0019722878	-1.2417479911	 0.426173
O	 0.0267581605	-2.6354157019	-2.276986184	-0.394336
N	 0.0392001675	-2.6744882784	-0.0058018099	-0.344165
C	 0.0565070645	-2.0520752758	 1.2044438647	-0.024202
C	 0.0211481154	-0.6927934812	 1.2662290974	 0.166844
N	-0.0733062981	 0.0342055858	 2.4725573727	-0.59442
H	 0.8582325328	 1.9217609601	 0.3989919387	 0.128141
H	-0.1882032404	 1.8497210303	-1.034388025	 0.154969
H	-0.8899326713	 1.8569631748	 0.6145068675	 0.147679
H	 0.0540988083	-3.681908517	-0.0670732187	 0.266324
H	 0.0844179419	-2.6898027138	 2.0812826354	 0.124453
H	 0.0660427838	-0.5478429666	 3.2893712366	 0.242075
H	 0.5696477111	 0.8159488478	 2.5154004755	 0.248885
90.8058	170.0017	202.3987	231.5369	299.288	339.0245	363.5731	405.9621	489.8251	533.7141	581.5657	607.8855	692.7139	732.1106	750.4544	800.5471	812.1967	883.0106	909.0659	1036.1987	1051.8569	1100.8317	1146.9879	1202.654	1235.7632	1354.282	1392.6391	1419.5679	1465.9726	1480.5972	1491.1993	1569.1305	1652.1891	1708.8674	1804.9405	3023.1473	3083.9397	3160.7823	3190.2062	3521.8716	3611.4671	3620.8008
CC1=NC(=O)NC=C1N	Cc1nc(=O)[nH]cc1N	
InChI=1S/C5H7N3O/c1-3-4(6)2-7-5(9)8-3/h2H,6H2,1H3,(H,7,8,9)	InChI=1S/C5H7N3O/c1-3-4(6)2-7-5(9)8-3/h2H,6H2,1H3,(H,7,8,9)
