17
gdb 37880	2.99285	2.21261	2.15461	0.966	67.91	-0.2333	0.0644	0.2976	763.6086	0.140613	-421.79574	-421.790565	-421.789621	-421.82496	23.581	
C	-0.000258549	 1.5707935841	 0.0168485428	-0.204431
C	 1.5146632584	 1.8179101475	-0.0329889526	-0.117074
C	 2.038938662	 1.3106963304	-1.4358484707	 0.089202
O	 0.9576049978	 0.7513024397	-2.215080865	-0.298719
C	 0.9099832856	-0.3509640215	-1.2663526404	 0.077792
C	 2.3589940462	-0.0417405586	-0.7698245803	-0.089615
C	 2.0603655182	 0.4872809072	 0.6440084238	 0.070476
O	 0.9319085054	-0.2485014367	 1.1000319463	-0.258896
C	 0.0566237154	 0.0298622995	-0.0033930435	 0.036662
H	-0.4456991186	 1.9133268519	 0.9533692931	 0.102299
H	-0.5267020912	 2.0021399766	-0.8344436052	 0.119062
H	 1.870218192	 2.7814328927	 0.3270017568	 0.072268
H	 2.7111576257	 1.9377592657	-2.0207940046	 0.078876
H	 0.659515995	-1.3003134303	-1.7399681675	 0.08618
H	 3.1763922246	-0.7152735065	-1.0177154529	 0.078119
H	 2.8344232643	 0.5291497085	 1.4068009905	 0.080873
H	-0.8803322318	-0.50996635	 0.1254840592	 0.076927
399.6805	445.351	503.8976	548.299	639.933	648.7197	752.5273	766.8188	803.0131	816.5479	845.3661	880.0009	893.6563	919.5696	935.7937	949.0322	970.0644	982.6855	999.3026	1007.9232	1049.8142	1070.8812	1103.3873	1118.787	1168.0071	1197.1409	1206.6432	1233.5629	1252.9216	1266.5648	1269.9327	1285.1955	1309.7444	1320.4213	1327.9075	1356.5013	1466.8776	3080.4008	3111.1073	3115.7643	3131.4824	3134.6099	3137.488	3146.157	3152.5647
C1C2C3OC4C3C2OC14	C1[C@@H]2[C@@H]3O[C@H]4[C@@H]3[C@@H]2O[C@@H]14	
InChI=1S/C7H8O2/c1-2-5-4-6(2)9-7(4)3(1)8-5/h2-7H,1H2	InChI=1S/C7H8O2/c1-2-5-4-6(2)9-7(4)3(1)8-5/h2-7H,1H2/t2-,3-,4+,5+,6-,7+/m0/s1
