21
gdb 37434	2.51252	1.9109	1.88328	0.2915	84.33	-0.2399	0.0251	0.265	918.2875	0.187585	-349.961745	-349.955169	-349.954225	-349.992049	29.18	
C	-0.0234097887	 1.5337405081	-0.1407409348	-0.328303
C	 1.2938733808	 0.8223059248	 0.0324604647	-0.009365
C	 0.0037947106	 0.0377767723	 0.0401516343	-0.009363
C	-0.2028634342	-0.6419037677	 1.4083821434	-0.069536
C	 0.999558679	-1.6294995786	 1.5564425699	-0.188545
C	 2.3293319667	-0.8208136058	 1.5485460137	-0.188546
C	 2.0042892606	 0.7003475011	 1.3952353744	-0.069533
C	 1.0608266942	 1.0616787983	 2.515589088	-0.078098
C	-0.0799536077	 0.3679274237	 2.5223864972	-0.078094
H	-0.3979626128	 2.1575362193	 0.6618990214	 0.112526
H	-0.2505643392	 1.8974965934	-1.1373129954	 0.101393
H	 1.9513127106	 0.7535448505	-0.8292080346	 0.078321
H	-0.2450811834	-0.5821266306	-0.816124869	 0.078321
H	-1.1520900711	-1.1820917552	 1.4453332221	 0.057019
H	 0.8951355024	-2.2017470716	 2.4826875893	 0.092397
H	 0.9768465076	-2.3481026808	 0.7299941164	 0.089489
H	 2.8934600078	-0.9864387258	 2.4708416502	 0.092397
H	 2.9706665095	-1.1356276702	 0.7181817806	 0.089488
H	 2.9208726948	 1.2948282633	 1.4210899763	 0.057018
H	 1.3145538851	 1.8219996669	 3.2464168561	 0.085506
H	-0.8653833826	 0.4963005844	 3.259403736	 0.085507
213.9214	308.3848	318.0796	365.4332	434.8962	508.7775	598.3971	631.3191	661.2319	730.2371	731.7412	799.5895	821.3508	833.7011	874.6279	881.0302	946.2048	965.0388	965.3128	970.4228	985.7695	1016.4015	1028.293	1073.8211	1081.0615	1095.6008	1112.488	1128.739	1140.2937	1179.2833	1192.5707	1213.9441	1256.7063	1265.129	1305.3006	1315.333	1328.7199	1341.3985	1354.8995	1399.4245	1403.4323	1480.1999	1487.3935	1507.3346	1679.8539	3033.2177	3046.5361	3070.2344	3073.5147	3073.714	3094.2334	3135.4371	3140.9165	3152.2915	3170.4869	3194.5846	3222.1534
C1C2C1C1CCC2C=C1	C1[C@@H]2[C@H]1[C@H]1CC[C@@H]2C=C1	
InChI=1S/C9H12/c1-2-7-4-3-6(1)8-5-9(7)8/h1-2,6-9H,3-5H2	InChI=1S/C9H12/c1-2-7-4-3-6(1)8-5-9(7)8/h1-2,6-9H,3-5H2/t6-,7+,8-,9+
