16
gdb 123716	3.59666	1.60026	1.12263	4.4324	74.97	-0.2372	0.0035	0.2407	1023.6125	0.12845	-396.951506	-396.944854	-396.94391	-396.982616	26.265	
C	-0.0217605675	 1.5237101435	-0.1370946212	-0.411219
C	 1.3702913091	 2.0653328331	 0.1063115103	-0.046865
C	 2.4491145991	 1.3244161643	 0.3634170654	-0.042018
C	 2.4777743195	-0.1828878411	 0.4580026778	-0.390995
C	 1.1138457609	-0.737351447	 0.2209305879	 0.271927
C	 0.0130375112	 0.0379109993	-0.0425512104	 0.322398
N	-0.9855212795	-0.8649419372	-0.1868531142	-0.283512
N	-0.5329006889	-2.1297830067	-0.022465026	-0.125444
N	 0.7428755666	-2.0493522133	 0.2249157727	-0.275272
H	-0.7244911951	 1.9553523544	 0.5915262391	 0.127584
H	-0.3856057412	 1.854277114	-1.1216631477	 0.127584
H	 1.4659263412	 3.1467052318	 0.0614267241	 0.093116
H	 3.4002201318	 1.8262477155	 0.5219378072	 0.094198
H	 3.1981778969	-0.5891573664	-0.2660386951	 0.131764
H	 2.8602976534	-0.4883883171	 1.4421865917	 0.131763
H	-1.9614806074	-0.7181563671	-0.3885854717	 0.274991
100.4882	234.0548	280.9739	388.0061	403.1003	473.2044	554.303	599.7274	683.1209	687.4354	727.6402	733.8232	881.9576	904.1603	978.3552	979.0962	985.4424	1016.2989	1028.3992	1054.1716	1189.2872	1201.6605	1206.6519	1208.6022	1241.3721	1279.3683	1324.6911	1383.5242	1399.606	1411.3038	1473.0076	1476.7821	1518.8555	1636.2961	1726.8154	2990.0314	3004.3062	3007.6381	3023.5653	3152.8462	3175.5487	3657.4941
C1C=CCC2=C1NN=N2	C1C=CCc2c1[nH]nn2	
InChI=1S/C6H7N3/c1-2-4-6-5(3-1)7-9-8-6/h1-2H,3-4H2,(H,7,8,9)	InChI=1S/C6H7N3/c1-2-4-6-5(3-1)7-9-8-6/h1-2H,3-4H2,(H,7,8,9)
