21
gdb 91771	2.30222	1.807	1.5799	2.6352	76.59	-0.235	0.0666	0.3016	985.9052	0.186374	-424.239318	-424.231862	-424.230918	-424.270675	31.108	
O	 0.1033837701	 1.3970940549	-0.2069053073	-0.4246
C	 0.0420896678	-0.0048612273	-0.0190344803	 0.107508
C	 0.7111717651	-0.5387315627	 1.289153099	-0.268755
C	-0.4062712827	-1.3286122904	 2.0194289544	 0.001766
C	-1.291010909	-1.7939707285	 0.8437373661	-0.230033
C	-1.4347183843	-0.4682195785	 0.0829703206	 0.108474
O	-2.2696200349	 0.424015258	 0.8049900665	-0.264414
C	-1.7833265726	 0.7894922094	 2.0939265642	-0.064107
C	-1.2678057145	-0.4083696369	 2.9059545817	-0.223444
H	 1.0284453953	 1.6404812663	-0.3092897269	 0.283257
H	 0.4837801471	-0.5182070286	-0.8865690763	 0.06758
H	 1.5539094828	-1.196003731	 1.0529072146	 0.092806
H	 1.0998587958	 0.2912560357	 1.8881132052	 0.097253
H	-0.0064034866	-2.1561115082	 2.6118420397	 0.059243
H	-0.7824683349	-2.5459573642	 0.2285626321	 0.088544
H	-2.2598838398	-2.1946992598	 1.15231492	 0.099747
H	-1.9007298981	-0.5600278738	-0.9007537225	 0.075219
H	-0.9876448807	 1.5365147127	 1.9791306773	 0.106251
H	-2.6239091613	 1.2725948028	 2.6008557771	 0.10027
H	-2.1094355181	-0.9857068378	 3.3065443633	 0.096426
H	-0.6925445763	-0.0355713621	 3.7621724015	 0.09101
148.9348	242.6392	281.1851	293.7545	350.5972	402.5288	428.9233	438.7306	523.791	571.2828	729.9967	761.383	803.4027	816.9172	841.0544	892.6246	902.2221	945.0814	960.2559	994.8094	1012.7224	1045.7242	1067.802	1093.574	1110.3247	1126.7029	1175.8817	1192.9148	1219.0215	1244.4648	1251.8831	1271.0296	1289.6382	1316.3938	1332.4579	1347.5085	1361.8267	1370.9467	1389.5433	1419.2503	1431.7195	1480.4488	1483.686	1497.8636	1521.6229	2976.4222	3024.2134	3026.8528	3036.2131	3041.6174	3064.6948	3066.8978	3084.1785	3087.4483	3090.1469	3101.8808	3823.2771
OC1CC2CC1OCC2	O[C@H]1C[C@@H]2C[C@H]1OCC2	
InChI=1S/C7H12O2/c8-6-3-5-1-2-9-7(6)4-5/h5-8H,1-4H2	InChI=1S/C7H12O2/c8-6-3-5-1-2-9-7(6)4-5/h5-8H,1-4H2/t5-,6+,7-/m1/s1
