16
gdb 49728	2.74851	1.35466	1.3482	3.7822	70.07	-0.243	-0.0312	0.2119	1026.5411	0.125515	-437.884536	-437.876938	-437.875994	-437.917163	27.944	
O	-0.167272241	 0.0970686486	 0.4741479198	-0.268961
C	-0.0885078465	 1.210164674	 0.0111726255	 0.156081
C	 1.1857719135	 1.9683733295	-0.0444481092	-0.137138
C	 1.5432278696	 2.9104256243	-1.1911705581	-0.110622
C	 0.5751445268	 3.2605554514	-2.3014233155	-0.099512
O	-0.6831276582	 3.7982219039	-1.8517246502	-0.226828
C	-0.7502514512	 4.3552475981	-0.6211323849	 0.119043
N	 0.0595978661	 4.2599191975	 0.347087972	-0.250018
C	 1.2526535253	 3.4949923099	 0.1507332517	-0.01694
H	-0.980724079	 1.7143810502	-0.4103552485	 0.092102
H	 2.014985085	 1.4117030604	 0.3799783154	 0.11522
H	 2.5750436517	 2.8585427937	-1.525182107	 0.112252
H	 1.0414133379	 4.0184867708	-2.9422008787	 0.129974
H	 0.320755099	 2.4002071163	-2.9274844929	 0.133457
H	-1.6746303105	 4.919264747	-0.5194587873	 0.136198
H	 2.0750716516	 3.8290647543	 0.7735244479	 0.115692
88.1294	109.1985	169.1757	187.143	362.927	382.6238	477.7632	522.7999	583.5889	657.9101	742.5776	835.0242	844.395	910.9124	936.1961	954.9141	973.5639	1000.4767	1046.0078	1075.7056	1096.9955	1130.399	1153.0223	1193.6148	1230.7901	1278.6043	1334.5302	1363.0513	1386.7651	1413.8222	1431.0944	1456.7782	1514.3577	1722.0974	1806.4558	2935.074	3034.5645	3081.9225	3154.7007	3165.9865	3171.8386	3177.3491
O=CC1C2COC=NC12	O=C[C@H]1[C@H]2COC=N[C@@H]12	
InChI=1S/C6H7NO2/c8-1-4-5-2-9-3-7-6(4)5/h1,3-6H,2H2	InChI=1S/C6H7NO2/c8-1-4-5-2-9-3-7-6(4)5/h1,3-6H,2H2/t4-,5+,6-/m0/s1
