12
gdb 23992	5.61702	0.96168	0.8211	5.1968	83.22	-0.2444	-0.061	0.1834	1270.2722	0.078857	-394.5502	-394.54277	-394.541826	-394.58233	27.282	
C	 0.1235416861	-1.1764077454	-0.0043246301	-0.397362
C	 0.0286981631	 0.0240758385	 0.0029972482	 0.222686
C	-0.0830879977	 1.4255893336	 0.0115508519	 0.182215
C	-1.182094872	 2.2750071547	 0.0313722871	-0.174984
N	-0.794463311	 3.57556736	 0.0323394217	-0.277796
C	 0.5296547259	 3.5486677295	 0.0134039128	 0.263014
N	 1.0058947395	 2.2681605247	 0.0003042717	-0.359823
C	 1.3963473505	 4.6714470612	 0.0066860966	 0.232135
N	 2.136956264	 5.5611809927	 0.0006024214	-0.327808
H	 0.2006593383	-2.2359128608	-0.0106981071	 0.206404
H	-2.222206437	 1.9893952277	 0.0447140916	 0.138349
H	 1.9727933503	 1.9839699237	-0.0148277657	 0.29297
116.024	117.6181	201.7355	208.6658	441.2179	491.0934	515.3211	525.1194	572.822	584.8328	596.1175	660.1882	689.8265	690.1263	730.9776	875.7855	1006.4602	1043.0528	1197.4242	1202.264	1305.0456	1371.9978	1425.8525	1465.3127	1576.9573	2234.8227	2349.7367	3265.3035	3499.0253	3653.4408
C#CC1=CN=C(N1)C#N	C#Cc1cnc([nH]1)C#N	
InChI=1S/C6H3N3/c1-2-5-4-8-6(3-7)9-5/h1,4H,(H,8,9)	InChI=1S/C6H3N3/c1-2-5-4-8-6(3-7)9-5/h1,4H,(H,8,9)
