17
gdb 70466	3.60188	1.01128	0.90538	4.709	73.04	-0.2295	0.0361	0.2656	1281.191	0.135743	-417.965263	-417.956736	-417.955792	-417.998769	31.895	
O	-0.0023881631	 1.4252718878	-0.0540703312	-0.455139
C	-0.0449632871	 0.0460617038	-0.0196347916	 0.340084
C	-0.4377203716	-0.8106647949	-1.19934365	-0.338326
C	-1.2165804962	-0.9124027401	 0.0849188981	-0.067487
N	-0.465220156	-1.8052161166	 0.9969308797	-0.3305
C	 0.6282942061	-0.7799312119	 1.0844895493	-0.033309
C	 2.0491757288	-1.3144447119	 0.8638211104	-0.34593
C	 2.503562082	-2.1480374454	 1.9742502615	 0.261042
N	 2.8424959106	-2.7945151642	 2.8701546475	-0.307081
H	 0.5493274438	 1.7003379609	-0.794342517	 0.290671
H	-0.935037045	-0.2460335	-1.9825132943	 0.119758
H	 0.1592940584	-1.6539199755	-1.5372075753	 0.116432
H	-2.2836694981	-0.750534027	 0.1643389211	 0.110975
H	-0.9322160547	-1.9068129979	 1.8920900281	 0.233671
H	 0.586065249	-0.2159306393	 2.0222312573	 0.105463
H	 2.0849229935	-1.9042564334	-0.0572827549	 0.151789
H	 2.7425401897	-0.4722141445	 0.7504405912	 0.147888
63.6355	115.152	168.0542	207.9914	259.9812	356.0789	383.6412	394.0535	459.2964	493.877	541.6744	637.3204	746.7791	805.2541	850.8904	870.2825	911.2627	941.6985	968.9505	999.6295	1011.5125	1031.0315	1074.5754	1099.1734	1117.4306	1191.0383	1209.2414	1239.5017	1261.9015	1305.1635	1340.2947	1375.4616	1388.0138	1416.6711	1453.0221	1492.8901	2361.855	3042.9946	3056.114	3096.159	3111.1097	3200.7691	3208.6939	3528.0836	3795.9837
OC12CC1NC2CC#N	O[C@]12C[C@H]1N[C@H]2CC#N	
InChI=1S/C6H8N2O/c7-2-1-4-6(9)3-5(6)8-4/h4-5,8-9H,1,3H2	InChI=1S/C6H8N2O/c7-2-1-4-6(9)3-5(6)8-4/h4-5,8-9H,1,3H2/t4-,5+,6-/m0/s1
