16
gdb 24225	3.91821	1.59945	1.2469	1.9389	73.36	-0.2192	0.005	0.2242	971.368	0.128089	-400.765805	-400.759575	-400.758631	-400.796304	25.42	
C	-0.0312439695	 1.4578896523	 0.0960228815	-0.278333
C	 1.2968851033	 0.7456057285	 0.0502221168	-0.0272
C	 2.0421992106	 0.4255149265	 1.3710755983	-0.37323
C	 1.0482440584	-0.4936546792	 1.9986893608	 0.291078
C	-0.0422007787	-0.7761254226	 1.2579357966	 0.253373
N	-0.8954414832	-1.6006770645	 1.9753152731	-0.344115
C	-0.2685969261	-1.7603765361	 3.100295282	 0.031818
O	 0.9281277004	-1.1048344706	 3.2083387343	-0.195406
C	-0.0173748867	-0.0518018631	-0.0346085117	-0.175986
H	-0.3743307611	 1.8788439747	 1.0359307248	 0.117113
H	-0.3032640536	 2.0364306099	-0.7811201426	 0.114561
H	 1.901850668	 0.8761449614	-0.8386599311	 0.09379
H	 3.010013574	-0.0543668093	 1.1788191005	 0.121001
H	 2.24106229	 1.3275501762	 1.9614481898	 0.125892
H	-0.5663636536	-2.3471750616	 3.9547943898	 0.146027
H	-0.3452070221	-0.5189887527	-0.9553325829	 0.099618
158.9508	225.8661	333.7807	417.766	439.6049	582.6855	645.6409	696.0572	735.4434	770.4443	787.1936	805.3389	811.0498	875.3278	947.1015	959.1513	988.6056	1033.654	1072.1294	1084.0431	1085.5149	1096.7091	1132.8698	1171.8849	1195.0907	1250.1626	1267.1961	1287.2459	1345.3259	1390.617	1425.0777	1476.6363	1491.2646	1521.1902	1653.3378	3024.8436	3058.6738	3123.0937	3181.2292	3186.8971	3211.7099	3278.0649
C1C2CC3=C(N=CO3)C12	C1[C@H]2Cc3c(nco3)[C@@H]12	
InChI=1S/C7H7NO/c1-4-2-6-7(5(1)4)8-3-9-6/h3-5H,1-2H2	InChI=1S/C7H7NO/c1-4-2-6-7(5(1)4)8-3-9-6/h3-5H,1-2H2/t4-,5-/m0/s1
