25
gdb 115617	2.20159	1.22217	0.94258	0.1015	93.5	-0.2503	0.0838	0.3341	1419.7389	0.228261	-352.343868	-352.333718	-352.332774	-352.379016	38.504	
C	 0.0477889444	 1.5859735115	-0.2332065828	-0.382099
C	 0.0650355818	 0.0712325718	-0.0009826759	-0.197904
C	-1.333267704	-0.5318966036	 0.0796105411	-0.021946
C	-2.1843994047	-0.560917913	-1.2291565186	-0.226945
C	-2.5767438318	-2.0370209394	-0.9364112267	-0.30577
C	-1.5022591657	-2.0658367136	 0.1584663213	 0.349984
C	-0.3981569863	-3.0840510592	 0.2695959631	-0.354246
C	-1.4432291993	-2.9674439496	 1.3578115308	-0.05224
C	-1.0800608655	-2.4352468412	 2.7264995236	-0.411882
H	 1.0623378526	 1.9915227203	-0.2971423562	 0.109842
H	-0.4703800552	 1.8383226687	-1.1646417289	 0.118124
H	-0.4684344523	 2.1050403224	 0.5821859314	 0.112628
H	 0.6208263128	-0.4210421138	-0.8097611195	 0.093647
H	 0.615890599	-0.1475059274	 0.9235256825	 0.093457
H	-1.8910761201	-0.043257574	 0.8898365729	 0.062094
H	-3.0012380227	 0.160172591	-1.3056256465	 0.094031
H	-1.5569792118	-0.4681261407	-2.1210643691	 0.097413
H	-3.5922098295	-2.1370267322	-0.5388364417	 0.096381
H	-2.4592674976	-2.7463589031	-1.7608069841	 0.095186
H	-0.4268058069	-3.9453421346	-0.3913192581	 0.102958
H	 0.6047614212	-2.733453149	 0.4964387627	 0.105825
H	-2.1908687445	-3.7587968312	 1.3710241868	 0.075452
H	-0.3235906546	-1.6467009519	 2.6598793378	 0.117234
H	-1.9532713532	-2.0114486694	 3.2359946712	 0.113771
H	-0.6745053959	-3.2272012187	 3.366119383	 0.115007
62.2304	87.3857	153.3812	157.0283	196.4296	209.7704	227.7218	293.1604	376.7996	412.3175	432.7507	476.6498	564.9618	720.2612	763.9101	784.36	807.3012	865.477	897.8704	919.3754	935.0257	944.9268	961.2032	977.8127	999.9317	1047.0081	1066.4061	1090.9668	1118.0276	1130.5916	1151.8267	1172.3014	1187.4399	1203.0096	1226.7135	1251.7916	1271.5967	1274.8454	1291.6866	1326.6467	1338.9429	1387.523	1410.1165	1410.3954	1427.5027	1477.641	1486.4734	1491.4992	1493.7425	1498.7287	1499.8129	1506.0036	1509.1756	3007.1609	3013.2083	3024.8075	3030.2159	3039.5432	3046.5982	3051.969	3082.8816	3084.7444	3094.3866	3096.8019	3101.7064	3109.8873	3115.9022	3120.0786	3198.7507
CCC1CCC11CC1C	CC[C@H]1CC[C@]21C[C@H]2C	
InChI=1S/C9H16/c1-3-8-4-5-9(8)6-7(9)2/h7-8H,3-6H2,1-2H3	InChI=1S/C9H16/c1-3-8-4-5-9(8)6-7(9)2/h7-8H,3-6H2,1-2H3/t7-,8+,9+/m1/s1
