15
gdb 87360	2.14516	1.32608	0.94186	1.2658	64.49	-0.267	-0.0533	0.2137	1210.8289	0.108338	-494.901881	-494.892664	-494.89172	-494.936472	32.017	
O	-0.0369735885	 1.2121988071	-0.0335559385	-0.41792
C	-0.0861484062	-0.1560006518	 0.1403861477	 0.131543
C	-0.7321784161	-0.7799385828	 1.3321877946	-0.367016
C	-1.4397389874	-0.8652260638	-0.0171887964	 0.212024
O	-2.4881681881	 0.040437564	-0.2871466588	-0.255849
C	-3.6775792543	-0.1681321094	 0.3488380464	 0.158277
O	-4.6113270409	 0.5501931618	 0.1853607916	-0.248737
C	-1.4788043478	-2.1483613264	-0.7593239428	 0.10326
O	-0.6878526728	-3.0414346506	-0.5759109136	-0.261225
H	-0.9393896226	 1.5384094827	-0.1481106221	 0.306877
H	 0.7617049087	-0.6686360305	-0.3023424752	 0.139984
H	-0.3347525909	-1.7187116782	 1.7023972515	 0.156553
H	-1.1759612027	-0.114580885	 2.0646791599	 0.138724
H	-3.6549869579	-1.0565836332	 1.0043614917	 0.104987
H	-2.2872653924	-2.2131924038	-1.519640946	 0.098517
68.2654	119.6723	133.7118	150.3873	205.9294	216.5628	259.3123	309.9921	408.831	454.9302	481.0592	584.0958	684.5813	770.595	796.5831	877.7216	967.857	1015.9825	1044.0966	1055.9146	1073.417	1114.9786	1130.4637	1170.5985	1247.637	1270.8297	1351.8864	1410.3373	1411.3962	1416.7719	1450.7003	1808.2236	1879.5973	2902.9124	2989.8317	3136.5999	3175.4845	3239.0801	3768.2243
OC1CC1(OC=O)C=O	O[C@H]1C[C@]1(OC=O)C=O	
InChI=1S/C5H6O4/c6-2-5(9-3-7)1-4(5)8/h2-4,8H,1H2	InChI=1S/C5H6O4/c6-2-5(9-3-7)1-4(5)8/h2-4,8H,1H2/t4-,5-/m0/s1
