21
gdb 88210	3.25672	1.18882	1.02367	1.3002	78.71	-0.2421	0.0777	0.3199	1227.7009	0.183899	-424.215494	-424.207097	-424.206153	-424.248136	33.328	
O	-0.0596843229	 1.4237292872	-0.0405711912	-0.421434
C	-0.0410127686	 0.0255106956	 0.0177731236	 0.025017
C	-0.5162898649	-0.686643894	 1.2635674439	-0.365531
C	-1.3651722241	-0.6731204749	 0.0045218132	 0.340896
C	-2.6581145037	 0.1270463905	-0.0023937107	-0.270775
C	-3.8202238032	-0.7839405039	 0.4236726287	-0.207911
C	-3.8174613407	-2.0703072734	-0.4072133615	-0.062435
O	-2.5768433223	-2.7540059126	-0.3204786955	-0.243313
C	-1.5004195367	-1.9590694643	-0.7888572986	-0.148392
H	 0.6472864829	 1.7527719758	 0.5239484308	 0.288417
H	 0.7736713302	-0.4374390957	-0.5421048534	 0.081295
H	-0.0244977703	-1.6082721937	 1.5583352035	 0.11112
H	-0.8455042927	-0.0611611826	 2.0873186685	 0.110204
H	-2.576643334	 1.0043945942	 0.6431480701	 0.104143
H	-2.8427827596	 0.5021865669	-1.0187834059	 0.097323
H	-3.7151438425	-1.0478601184	 1.4826740199	 0.10414
H	-4.7817758325	-0.2713150369	 0.3051834901	 0.091143
H	-4.577182601	-2.7741124113	-0.0549909297	 0.103097
H	-4.0411516334	-1.8320208469	-1.4627755787	 0.080997
H	-1.6486734061	-1.7176258928	-1.8571750482	 0.08454
H	-0.6018182039	-2.5783167288	-0.705587099	 0.097459
108.3711	165.1416	194.1449	268.8811	300.9411	311.4425	369.7967	411.0627	439.0569	485.141	515.9503	619.0483	708.472	817.3104	862.5515	879.2159	901.2821	916.8253	943.6868	982.5027	1006.525	1039.1146	1042.9865	1053.8735	1079.0564	1120.6857	1130.6625	1178.477	1206.0945	1227.3021	1258.8658	1272.6765	1320.1235	1324.4884	1336.4077	1364.0392	1373.2442	1398.1633	1419.6558	1431.5977	1474.8322	1484.8769	1488.8621	1495.1604	1504.907	2940.5577	2947.8484	3014.5668	3031.4997	3071.72	3075.9695	3080.9318	3083.9483	3099.4817	3122.6244	3211.1721	3808.64
OC1CC11CCCOC1	O[C@H]1C[C@]21CCCOC2	
InChI=1S/C7H12O2/c8-6-4-7(6)2-1-3-9-5-7/h6,8H,1-5H2	InChI=1S/C7H12O2/c8-6-4-7(6)2-1-3-9-5-7/h6,8H,1-5H2/t6-,7+/m0/s1
