25
gdb 120448	4.01363	0.71475	0.70426	0.8933	90.74	-0.2499	0.0818	0.3316	1792.3656	0.226805	-389.481288	-389.470533	-389.469589	-389.517406	39.784	
C	-0.0832348198	 1.4085607927	 0.1482380913	-0.222734
O	-0.0450207385	 0.003319449	 0.1406407165	-0.233155
C	-1.30588027	-0.5815691158	-0.10940665	-0.07214
C	-1.1595095359	-2.0877105388	-0.0788618402	 0.028103
C	-0.869318249	-2.7681837148	 1.2857871435	-0.261848
C	-1.9307128076	-3.8654550974	 0.9491960673	 0.355464
C	-1.2852263421	-5.1381672844	 0.3954225463	-0.434145
C	-2.9277255384	-4.1993548963	 2.0543790812	-0.44806
C	-2.4566637332	-2.9336399195	-0.1922987977	-0.290874
H	 0.9306565627	 1.7649166468	 0.3474009525	 0.124653
H	-0.418375812	 1.8152867133	-0.8197562908	 0.100587
H	-0.7554829192	 1.7971227116	 0.9304792628	 0.100572
H	-2.0368574744	-0.2558299097	 0.6531560212	 0.074829
H	-1.6961300055	-0.2513297961	-1.0892742834	 0.0806
H	-0.4214414148	-2.3811322921	-0.8312732794	 0.077342
H	 0.1532582837	-3.1073767732	 1.4698232172	 0.095361
H	-1.1800301601	-2.1385286687	 2.1261681666	 0.089979
H	-0.7496009199	-5.6803465557	 1.1833287223	 0.110012
H	-2.0417399218	-5.8134666031	-0.0211976907	 0.108476
H	-0.5663030548	-4.9131438902	-0.399605802	 0.111737
H	-3.3952363784	-3.2936703801	 2.4554402373	 0.104769
H	-3.7272939072	-4.8524649834	 1.6840715937	 0.109011
H	-2.4364448732	-4.7176884428	 2.8866360995	 0.110409
H	-3.3417768861	-2.3679102454	 0.1192703003	 0.089032
H	-2.6694125844	-3.402013436	-1.1575479854	 0.092021
48.9903	80.6212	98.3975	151.4367	227.1032	230.7647	265.2111	278.4239	302.3456	334.2732	374.3353	392.6949	436.401	451.3163	615.4651	755.2008	832.6439	875.9697	885.1773	930.3741	938.5321	958.9687	977.5128	990.8257	1007.0106	1068.4976	1092.0068	1108.7478	1158.2904	1176.953	1203.5387	1211.7332	1220.1999	1235.8851	1240.1064	1264.5267	1284.9175	1299.8673	1314.8349	1362.1524	1400.7486	1418.4666	1424.8312	1471.3567	1480.4139	1484.0862	1484.6036	1485.2857	1496.111	1502.199	1503.9705	1507.3779	1525.1336	2930.2349	2956.4021	2965.3528	3005.8766	3015.1039	3020.48	3037.3339	3046.5774	3059.8083	3079.117	3085.854	3087.7012	3092.4849	3094.0026	3102.7254	3109.9668
COCC1CC(C)(C)C1	COCC1CC(C)(C)C1	
InChI=1S/C8H16O/c1-8(2)4-7(5-8)6-9-3/h7H,4-6H2,1-3H3	InChI=1S/C8H16O/c1-8(2)4-7(5-8)6-9-3/h7H,4-6H2,1-3H3
