21
gdb 86783	2.80656	1.01071	0.89819	1.2489	83.81	-0.2501	0.045	0.2951	1391.1405	0.180646	-387.046018	-387.036094	-387.03515	-387.080974	37.261	
C	 0.7489184729	 1.4386979978	-0.156852727	-0.422606
C	 0.0231624576	 0.1083314682	 0.0283390507	-0.010289
C	 0.5366457717	-1.0648389482	-0.8624192899	-0.249371
C	 1.1855702389	-1.7452390814	 0.3784153803	-0.019929
C	 2.7200987174	-1.6761394849	 0.4516536882	-0.382842
C	 3.3625451962	-2.5525628155	-0.5203226257	 0.291908
C	 3.8658993531	-3.2808824729	-1.3336064286	-0.434268
C	 0.4307930417	-0.721158787	 1.2903005916	 0.108737
O	 1.1137071304	-0.0947651425	 2.3506515226	-0.423515
H	 1.840127986	 1.3253465119	-0.1573082985	 0.108849
H	 0.4815103872	 1.8887700877	-1.1183259124	 0.123595
H	 0.4837791755	 2.1504967356	 0.6320997788	 0.125931
H	-1.0544375091	 0.2859858797	-0.0375341748	 0.071914
H	-0.2640013621	-1.6566348653	-1.3111453975	 0.102841
H	 1.2344996329	-0.7829812193	-1.6562717024	 0.104745
H	 0.8855279406	-2.7842227182	 0.537592555	 0.080684
H	 3.068901438	-0.6483833786	 0.2825336904	 0.115424
H	 3.0425224797	-1.9417829873	 1.4659128505	 0.14169
H	 4.3234145489	-3.9230412903	-2.0444925827	 0.193284
H	-0.4408828025	-1.1910026794	 1.7538533361	 0.088886
H	 1.801227035	 0.4694599	 1.9833267754	 0.284332
56.6984	84.2702	122.7195	213.129	223.549	244.8756	295.7461	327.2002	346.1458	368.6317	468.0315	534.5285	538.714	622.9909	635.4599	730.1245	790.9923	824.8425	834.7562	894.1777	925.6075	959.9227	975.2706	1037.5053	1063.4085	1089.1966	1115.4035	1149.1546	1177.234	1208.6048	1235.6525	1260.4794	1270.3573	1286.3211	1306.5536	1318.6236	1361.2398	1380.3805	1408.409	1435.7927	1470.5096	1489.0472	1498.6686	1502.7139	2237.486	3013.0654	3024.5548	3048.2958	3050.5783	3058.7696	3065.7887	3078.1797	3088.2969	3102.173	3112.8991	3507.3277	3823.5149
CC1CC(CC#C)C1O	C[C@H]1C[C@@H](CC#C)[C@H]1O	
InChI=1S/C8H12O/c1-3-4-7-5-6(2)8(7)9/h1,6-9H,4-5H2,2H3	InChI=1S/C8H12O/c1-3-4-7-5-6(2)8(7)9/h1,6-9H,4-5H2,2H3/t6-,7+,8-/m0/s1
