22
gdb 117165	3.65284	0.72416	0.70199	2.3644	80.59	-0.24	0.0346	0.2746	1740.0374	0.192064	-441.521998	-441.510514	-441.50957	-441.561128	39.643	
C	-0.0498044533	 1.3508736126	-0.2317963326	-0.371838
C	 0.0242073569	-0.033198036	 0.417169131	-0.145171
N	-1.267664435	-0.6978704085	 0.4885293127	-0.321794
C	-1.607639996	-1.7453525257	-0.317480804	 0.413572
O	-0.8348152478	-2.2421367422	-1.1220505049	-0.395025
C	-3.0362192687	-2.2643524939	-0.1535254632	-0.09215
C	-3.863971969	-1.918851912	-1.402203384	-0.387569
C	-2.9825444518	-3.7776268246	 0.0807858592	-0.069755
O	-4.3100216641	-4.2328033125	 0.3016692315	-0.427057
H	 0.9416996667	 1.8141127718	-0.2575644565	 0.119837
H	-0.4215756928	 1.2760125781	-1.2576752233	 0.133833
H	-0.7163934183	 2.0189532456	 0.3249212756	 0.109955
H	 0.6689781468	-0.6951652109	-0.1645610846	 0.150478
H	 0.4442899448	 0.0431968603	 1.4274609844	 0.104003
H	-1.9705932993	-0.3172876307	 1.1008452057	 0.242443
H	-3.5068605508	-1.8095436869	 0.7274625179	 0.071118
H	-3.3601468336	-2.2949668058	-2.2974075104	 0.134947
H	-4.8516086038	-2.3785970696	-1.3321317932	 0.134641
H	-3.986725465	-0.8366179869	-1.5098791451	 0.107061
H	-2.5232048731	-4.2528034344	-0.7959575856	 0.113461
H	-2.3416086791	-3.9946932034	 0.9500711375	 0.086799
H	-4.2986121037	-5.1939056043	 0.3090905421	 0.288213
17.811	23.3414	78.4769	101.7409	182.0089	210.6634	226.1214	238.9985	252.4522	286.5622	338.3693	352.7245	433.9512	476.7402	509.9733	700.4997	763.8884	787.2696	863.9064	898.1905	932.8101	935.4195	1043.9016	1063.1255	1080.5426	1105.9891	1119.7542	1168.6112	1171.2479	1209.4937	1254.8865	1270.2194	1319.6942	1350.4741	1364.4131	1390.7088	1399.2698	1411.0082	1450.5227	1481.682	1492.1565	1495.1665	1501.3629	1504.795	1522.003	1542.2067	1764.4875	2974.6346	3020.9271	3032.2526	3033.7311	3042.0241	3044.1046	3096.1431	3112.7641	3116.5577	3127.2598	3138.1398	3641.1791	3836.9121
CCNC(=O)C(C)CO	CCNC(=O)[C@@H](C)CO	
InChI=1S/C6H13NO2/c1-3-7-6(9)5(2)4-8/h5,8H,3-4H2,1-2H3,(H,7,9)	InChI=1S/C6H13NO2/c1-3-7-6(9)5(2)4-8/h5,8H,3-4H2,1-2H3,(H,7,9)/t5-/m0/s1
