17
gdb 123833	3.62995	1.54809	1.11547	2.4199	82.31	-0.2038	-0.0196	0.1843	1051.1302	0.140836	-380.914078	-380.907306	-380.906361	-380.945097	27.271	
C	-0.0361774599	 1.4811136932	 0.0913081017	-0.263712
C	 1.3595421595	 2.1417182019	-0.0118940348	-0.34302
C	 2.1893502326	 1.4411086818	-1.0487569542	 0.158626
C	 1.9750838675	 0.0960796052	-1.3093623951	 0.349886
N	 2.9155486417	-0.2705844356	-2.2166961864	-0.309192
N	 3.7264045524	 0.7466820315	-2.573568072	-0.232181
C	 3.2894269511	 1.7847892756	-1.8546759242	-0.127547
C	 0.9342465638	-0.6877930091	-0.6798647692	-0.16253
C	-0.0055428584	-0.0318412318	 0.0178931135	-0.075727
H	-0.5324278507	 1.8046958611	 1.0118445053	 0.105045
H	-0.6691601815	 1.843668685	-0.7343117531	 0.118163
H	 1.2470090739	 3.2081576024	-0.2307596098	 0.108692
H	 1.8621505211	 2.0797863582	 0.96488515	 0.111451
H	 3.0383605624	-1.1665227218	-2.6576575908	 0.268549
H	 3.7854666898	 2.7400837637	-1.9515632708	 0.1066
H	 0.926263563	-1.7691038099	-0.7748010198	 0.090178
H	-0.8114243983	-0.5792305116	 0.4969955299	 0.096718
139.0352	199.9363	277.1031	377.9225	420.7971	487.7423	509.6232	582.9916	670.811	680.1081	693.6204	749.272	797.2504	870.7359	886.7952	921.5625	967.1105	973.2942	1018.5596	1040.8966	1123.3931	1168.377	1183.2218	1200.8375	1229.8336	1255.4893	1293.717	1335.3486	1358.7869	1380.2225	1430.75	1439.6635	1468.936	1487.6517	1536.5608	1606.8286	1675.0225	2981.4179	2995.6583	3069.6202	3072.227	3166.6641	3187.5728	3238.3583	3668.5859
C1CC2=C(NN=C2)C=C1	C1Cc2c([nH]nc2)C=C1	
InChI=1S/C7H8N2/c1-2-4-7-6(3-1)5-8-9-7/h2,4-5H,1,3H2,(H,8,9)	InChI=1S/C7H8N2/c1-2-4-7-6(3-1)5-8-9-7/h2,4-5H,1,3H2,(H,8,9)
