19
gdb 94375	2.98812	1.38806	1.22086	1.9431	74.31	-0.2454	0.0764	0.3218	1088.3033	0.158362	-422.964861	-422.956704	-422.95576	-422.998028	31.084	
C	-0.3579479364	 1.4075539383	 0.020397851	-0.404385
C	 0.1061648635	-0.0336527905	-0.0319283225	 0.106951
O	 1.3217187213	-0.1938013562	-0.8122120334	-0.298262
C	 2.0253177461	-0.7679976289	 0.3031091137	-0.144066
C	 0.7895188158	-0.6476332562	 1.2116359168	 0.27165
C	 0.8859469435	 0.0314991561	 2.6214326764	-0.346756
C	 0.2760749365	-1.2423587089	 3.2221944858	 0.03904
O	-0.9870822564	-1.4464102351	 2.576776583	-0.247996
C	 0.2007555629	-1.8831116734	 1.9010426248	-0.059788
H	 0.4159939265	 2.0571069679	 0.440861329	 0.116831
H	-0.5893415765	 1.7612479264	-0.9892092681	 0.126745
H	-1.2622567653	 1.4941497437	 0.6316611336	 0.12591
H	-0.6936785788	-0.6723106908	-0.4318780863	 0.078961
H	 2.3637600371	-1.7931820707	 0.0980526568	 0.098702
H	 2.8932653763	-0.1646799069	 0.6009005871	 0.099042
H	 1.9252026395	 0.1966460345	 2.9199845391	 0.108953
H	 0.3097858065	 0.9458849518	 2.7803884692	 0.115529
H	 0.4018541716	-1.6676214342	 4.2106510725	 0.107773
H	 0.2509312062	-2.923909667	 1.5995105917	 0.105167
51.4312	114.4443	189.5386	247.6567	270.0304	331.4145	413.1823	450.4444	487.6116	559.8802	771.9563	796.5984	843.5875	861.2457	870.8015	883.3584	895.7852	961.2052	981.4329	1024.7098	1031.5571	1035.9969	1079.6618	1099.199	1119.9682	1153.3311	1171.8626	1187.6325	1212.9009	1231.4527	1257.381	1275.3673	1301.0898	1367.2718	1379.1057	1389.4584	1401.7273	1468.9661	1486.5259	1491.647	1522.3767	2993.8739	3006.4559	3034.2389	3035.0461	3060.5597	3110.3742	3112.3373	3118.9584	3174.6664	3195.7124
CC1OCC11CC2OC12	C[C@H]1OC[C@]21C[C@H]1O[C@@H]21	
InChI=1S/C7H10O2/c1-4-7(3-8-4)2-5-6(7)9-5/h4-6H,2-3H2,1H3	InChI=1S/C7H10O2/c1-4-7(3-8-4)2-5-6(7)9-5/h4-6H,2-3H2,1H3/t4-,5-,6-,7+/m1/s1
