16
gdb 78009	3.30324	1.2497	1.06816	5.299	70.73	-0.2589	0.0093	0.2682	1112.5185	0.124486	-437.864731	-437.856659	-437.855715	-437.897127	31.018	
O	-0.093607935	 1.4134674942	-0.0178823942	-0.427045
C	-0.0863457307	 0.0308390458	 0.0415599211	 0.087851
C	-0.4562088666	-0.7578878832	 1.2535091207	-0.173568
C	-1.5770423054	-0.0623822719	 2.0174429135	 0.09072
O	-1.1522764438	 1.1792842245	 2.5650071647	-0.432561
C	-2.4758453012	-0.041502598	 0.7353112144	-0.337237
C	-1.3683145935	-0.7926477654	-0.01782959	 0.161699
C	-1.5661586878	-1.8564729447	-0.9415039361	 0.182562
N	-1.730681839	-2.7214652711	-1.6941734761	-0.348737
H	-0.3165838495	 1.7442112857	 0.8648281937	 0.303127
H	 0.7193939058	-0.40190572	-0.5456599264	 0.128085
H	 0.173077314	-1.544146524	 1.6516776168	 0.114678
H	-2.0057356803	-0.7013832288	 2.7964830618	 0.101061
H	-1.905316746	 1.6108669394	 2.9827210633	 0.297844
H	-3.3957017193	-0.615200191	 0.850832127	 0.128516
H	-2.6995913417	 0.9486707286	 0.330928906	 0.123007
121.4283	150.2702	200.8746	221.1484	319.2626	367.7579	411.5111	455.6529	492.0823	525.2232	553.2571	590.2199	678.2108	737.2963	805.8621	859.7141	898.1585	978.985	991.9446	1003.2541	1064.7358	1093.0621	1121.9219	1165.2974	1197.5239	1233.6679	1239.3413	1271.0287	1322.9138	1329.338	1390.7612	1427.8012	1463.14	1483.1324	2340.3769	3048.8945	3072.3091	3140.3319	3155.2817	3195.256	3710.9783	3813.8266
OC1C2C(O)CC12C#N	O[C@H]1[C@H]2[C@@H](O)C[C@@]12C#N	
InChI=1S/C6H7NO2/c7-2-6-1-3(8)4(6)5(6)9/h3-5,8-9H,1H2	InChI=1S/C6H7NO2/c7-2-6-1-3(8)4(6)5(6)9/h3-5,8-9H,1H2/t3-,4+,5-,6-/m0/s1
