16
gdb 54547	3.50505	1.50385	1.253	2.672	68.04	-0.2411	0.0126	0.2538	992.6151	0.124576	-437.84954	-437.842052	-437.841108	-437.88177	29.206	
N	-0.0567721815	 1.1720869775	-0.563953569	-0.531032
C	 0.0660676647	 0.0060368199	 0.1169897746	 0.263074
O	 1.0722813929	-0.3701491136	 0.6884734381	-0.369328
C	-1.1796023886	-0.8390818874	 0.096522727	 0.35918
C	-1.7070600453	-1.5949420535	 1.3422383741	-0.25702
C	-2.4459169954	-2.4754447676	 0.3361305582	-0.129577
C	-2.7954066899	-1.5242871833	-0.8257373814	 0.090866
O	-2.3775800083	-0.2068288487	-0.4579635398	-0.345522
C	-1.4446510133	-2.1408438557	-0.7648304125	-0.182367
H	 0.7219612467	 1.8083611093	-0.5953543108	 0.263413
H	-0.9314694134	 1.4054321449	-1.0037250962	 0.276802
H	-0.8937812195	-2.130155795	 1.8341574334	 0.133762
H	-2.2796463428	-0.997938405	 2.0583416237	 0.103233
H	-2.9694563959	-3.4081068269	 0.5010526238	 0.098961
H	-3.6264165688	-1.6414800971	-1.5079412363	 0.113493
H	-0.8403996216	-2.7309427879	-1.438300437	 0.112062
55.302	181.6096	193.3303	290.6998	372.7269	420.906	494.2272	547.6788	615.9504	645.0509	731.2615	762.61	768.6551	788.8718	818.8225	896.8793	928.4299	963.0729	992.1868	1019.9504	1024.1207	1041.6643	1054.1587	1084.7333	1104.4251	1140.3258	1169.3762	1192.7542	1270.2163	1278.9558	1357.0396	1412.6218	1488.5712	1601.0235	1798.3104	3058.7729	3139.5994	3202.788	3211.2885	3228.0702	3596.9488	3738.7196
NC(=O)C12CC3C(O1)C23	NC(=O)[C@@]12C[C@H]3[C@@H](O1)[C@@H]23	
InChI=1S/C6H7NO2/c7-5(8)6-1-2-3(6)4(2)9-6/h2-4H,1H2,(H2,7,8)	InChI=1S/C6H7NO2/c7-5(8)6-1-2-3(6)4(2)9-6/h2-4H,1H2,(H2,7,8)/t2-,3+,4-,6+/m1/s1
