15
gdb 124251	2.74385	1.56786	1.00399	3.2278	71.79	-0.2289	-0.058	0.171	1108.1511	0.113303	-453.992099	-453.983993	-453.983049	-454.025119	29.579	
C	 0.0586314158	 1.4758890052	 0.0038990933	-0.505381
C	 0.034636316	-0.0370593778	 0.035430368	 0.350369
O	 1.0749324852	-0.697166484	 0.0670064101	-0.378056
C	-1.2299699383	-0.7333942453	 0.0290152258	 0.126978
C	-1.3801901515	-2.1238022589	 0.0562367329	 0.253043
O	-0.3922689227	-3.0210976314	 0.0920684989	-0.420966
C	-2.7696740607	-2.350803007	 0.0375980155	-0.098321
N	-3.4370466062	-1.1932030152	 0.0018359264	-0.196234
N	-2.511226031	-0.2361308787	-0.0030265332	-0.29754
H	 1.0928271726	 1.820933317	 0.0125798577	 0.155633
H	-0.4412181727	 1.8512280717	-0.8963663575	 0.143404
H	-0.4683055302	 1.8883175312	 0.8719280931	 0.143529
H	 0.4353185457	-2.4960747387	 0.0949626417	 0.315149
H	-3.3008596211	-3.2893046397	 0.0486444774	 0.130409
H	-2.8055216708	 0.7251663317	-0.0283113902	 0.277985
88.2381	108.1089	172.6683	178.5568	314.9005	336.7752	422.1591	466.2648	499.259	567.8936	649.9163	689.2129	707.5257	724.0571	746.4445	862.3711	942.6751	959.5534	1042.2113	1091.3766	1147.8591	1211.3223	1277.8343	1309.6028	1359.2962	1380.3743	1432.8824	1468.9589	1476.6493	1479.53	1568.2062	1598.4437	1710.6926	3034.2052	3095.3926	3155.7972	3265.7558	3517.1397	3674.3194
CC(=O)C1=C(O)C=NN1	CC(=O)c1c(O)cn[nH]1	
InChI=1S/C5H6N2O2/c1-3(8)5-4(9)2-6-7-5/h2,9H,1H3,(H,6,7)	InChI=1S/C5H6N2O2/c1-3(8)5-4(9)2-6-7-5/h2,9H,1H3,(H,6,7)
