21
gdb 89109	5.51119	0.55806	0.53325	3.1521	81.23	-0.2547	-0.0258	0.2289	2067.1728	0.179137	-424.208829	-424.198301	-424.197357	-424.246353	36.203	
C	 0.0895066839	 1.5398769303	-0.2678875462	-0.407595
C	 0.0000154147	 0.0581323224	 0.0329903623	 0.000382
C	 1.226395325	-0.8195621593	 0.0361067903	-0.284231
C	 0.4829513229	-0.5652704998	 1.3260254574	-0.01304
C	 1.113066664	 0.2404929375	 2.4280964414	-0.075458
O	 1.9502150984	-0.6167639367	 3.1892623515	-0.247903
C	 2.5539507148	 0.0188663962	 4.2825700487	-0.140744
C	 3.3977156922	-1.0056087179	 5.0212048478	 0.139276
O	 4.0536362992	-0.7525478774	 5.9962675953	-0.238998
H	 1.0317804501	 1.9754165786	 0.076546965	 0.116874
H	 0.0295008809	 1.7138172014	-1.3478053987	 0.120847
H	-0.7281479528	 2.0974151409	 0.2027136037	 0.117782
H	-0.8983912749	-0.4058228058	-0.3664246531	 0.086913
H	 1.1754619755	-1.8069791198	-0.4088073315	 0.112658
H	 2.1883823629	-0.3295344392	-0.0825360272	 0.110475
H	-0.1165710158	-1.3898109931	 1.7018396398	 0.090431
H	 1.7048571192	 1.0765156121	 2.0240404473	 0.087533
H	 0.3403908284	 0.6784592546	 3.0830412524	 0.090127
H	 3.2041398793	 0.8561131198	 3.9741593016	 0.118722
H	 1.8116660585	 0.4363337015	 4.9855771033	 0.119137
H	 3.3520077735	-2.0228640262	 4.573574539	 0.09681
35.3163	53.5315	85.2582	98.5383	113.7727	175.0227	215.3275	254.6436	344.0573	374.4641	436.2536	503.5417	578.4505	741.3928	763.4611	837.2528	882.4071	890.9257	942.8959	988.5762	1019.9688	1057.1837	1072.6034	1093.8439	1110.8474	1116.6625	1151.2059	1164.156	1190.4699	1200.9135	1235.3482	1248.8017	1278.3134	1340.448	1374.1018	1400.4342	1412.4993	1423.3357	1450.0147	1482.9331	1492.5827	1494.5113	1509.0392	1520.7939	1844.6983	2899.6058	2950.0624	2959.6875	2978.8976	2996.8289	3030.7123	3088.4553	3103.5389	3127.82	3134.4281	3148.3874	3212.8918
CC1CC1COCC=O	C[C@H]1C[C@H]1COCC=O	
InChI=1S/C7H12O2/c1-6-4-7(6)5-9-3-2-8/h2,6-7H,3-5H2,1H3	InChI=1S/C7H12O2/c1-6-4-7(6)5-9-3-2-8/h2,6-7H,3-5H2,1H3/t6-,7-/m0/s1
