18
gdb 80033	4.15841	1.26778	1.1918	0.9451	82.73	-0.2184	-0.0037	0.2147	1091.3816	0.147162	-364.718834	-364.710953	-364.710009	-364.750728	31.638	
C	-0.145282547	-1.2707338292	-0.1582354498	-0.462999
C	-0.0384796642	-0.0786081576	-0.0422023395	 0.340431
C	 0.0475513034	 1.3613996447	 0.054834956	-0.186005
C	 0.0375711896	 2.0958213219	 1.4541227883	-0.063527
C	 1.2157689107	 1.3873297612	 2.1607188687	-0.083994
C	 2.1573390843	 1.3947707543	 1.2158199871	-0.083996
C	 1.440985257	 2.1068836416	 0.0457256635	-0.06353
N	 0.6829505741	 3.2233604339	 0.7026090257	-0.075408
C	 1.4037189635	 4.2539812673	 1.4289325421	-0.328685
H	-0.2323813429	-2.3246403454	-0.2534272811	 0.191722
H	-0.6469783759	 1.8489368571	-0.6334051006	 0.113753
H	-0.8838399683	 2.2983474461	 2.0000710087	 0.074328
H	 1.2250880084	 0.9751886551	 3.1589170789	 0.107837
H	 3.1587763952	 0.9904645397	 1.2183883353	 0.107837
H	 1.9820268071	 2.3209365694	-0.8759737188	 0.074328
H	 1.9288891712	 4.890860223	 0.7096537927	 0.11888
H	 0.6813395266	 4.880958481	 1.9617069744	 0.11888
H	 2.1359738073	 3.869770256	 2.1555188681	 0.10015
132.6345	138.7986	219.975	280.3154	298.0759	376.0536	447.1697	500.243	609.012	624.2713	633.9707	638.164	700.6198	767.4203	804.2816	809.4071	824.9647	859.9328	912.5303	914.0118	955.2863	988.8478	1042.9192	1098.224	1124.495	1155.7101	1173.3448	1188.935	1218.9069	1231.049	1238.3588	1280.4875	1303.2386	1345.2712	1439.6598	1482.9654	1505.8772	1618.1878	2235.6067	2986.7057	3067.7745	3088.31	3100.1764	3120.4823	3123.5691	3229.5692	3256.7001	3504.0654
C#CC1C2C=CC1N2C	C#C[C@H]1[C@H]2C=C[C@@H]1N2C	
InChI=1S/C8H9N/c1-3-6-7-4-5-8(6)9(7)2/h1,4-8H,2H3	InChI=1S/C8H9N/c1-3-6-7-4-5-8(6)9(7)2/h1,4-8H,2H3/t6-,7+,8-
