21
gdb 93770	2.87491	1.21871	0.95648	3.048	81.12	-0.2478	0.0071	0.2549	1285.149	0.183134	-424.250009	-424.24093	-424.239986	-424.283318	35.5	
C	 0.0414305192	 1.5299220634	 0.0394985234	-0.473666
C	 0.0207069638	 0.0277738466	-0.0338374959	 0.319715
C	-0.0677837791	-0.6265369765	-1.1983981707	-0.200736
C	-0.0987589744	-2.1223753968	-1.3262147136	 0.058757
O	 1.126945377	-2.6283641399	-1.8989851537	-0.449941
C	-0.3681961359	-2.8312944469	 0.0147299085	 0.131284
O	-0.110862067	-4.2150889398	-0.1084991385	-0.450444
C	 0.4527847523	-2.1838001849	 1.1335788149	-0.2381
C	 0.0805488875	-0.7047883565	 1.288304326	-0.299401
H	 0.967550727	 1.8877429844	 0.5071311148	 0.125984
H	-0.0448483888	 1.9888627397	-0.9485881266	 0.123773
H	-0.7819633282	 1.9017540496	 0.6627500512	 0.128405
H	-0.1028567954	-0.0660235872	-2.1302661287	 0.085084
H	-0.8682982215	-2.4296113332	-2.0433536995	 0.091868
H	 1.8479265292	-2.1074462884	-1.5285356286	 0.281447
H	-1.4354232086	-2.7222037012	 0.2512783229	 0.079283
H	 0.6320782966	-4.2759625945	-0.726110301	 0.281469
H	 0.2950084469	-2.7312280308	 2.0670801661	 0.104751
H	 1.5200402887	-2.2776365158	 0.8902742649	 0.081918
H	 0.7869040523	-0.1960842745	 1.9566490056	 0.103219
H	-0.8986338618	-0.6150957469	 1.7831712084	 0.11533
99.3788	138.286	198.0083	221.8062	290.6593	300.2914	319.5648	377.4164	391.4713	423.1707	493.1196	525.8043	533.0087	655.5091	704.2554	754.1755	808.8784	866.3157	909.8842	971.6609	985.0753	1027.5566	1041.0608	1068.4989	1079.7275	1108.7301	1131.7494	1169.3461	1187.3988	1234.2541	1241.4801	1285.1105	1330.7522	1335.1606	1351.4534	1388.2264	1402.3483	1412.4308	1415.764	1446.6331	1473.2287	1480.5952	1489.0925	1497.8635	1724.6304	2996.8028	3010.8249	3018.2782	3023.5898	3041.9577	3048.7105	3065.3239	3088.9509	3115.2844	3146.9473	3732.1607	3806.8486
CC1=CC(O)C(O)CC1	CC1=C[C@@H](O)[C@@H](O)CC1	
InChI=1S/C7H12O2/c1-5-2-3-6(8)7(9)4-5/h4,6-9H,2-3H2,1H3	InChI=1S/C7H12O2/c1-5-2-3-6(8)7(9)4-5/h4,6-9H,2-3H2,1H3/t6-,7+/m0/s1
