23
gdb 110057	2.14334	1.42878	1.06306	1.2701	80.99	-0.245	0.069	0.314	1261.8235	0.205723	-425.437826	-425.428004	-425.42706	-425.47282	37.061	
C	 0.0153024766	 1.6371555648	 0.0037995947	-0.39323
C	 0.0356810099	 0.1062049778	 0.0667195393	-0.179392
C	 0.7809282955	-0.5288990402	-1.1113381546	-0.052525
C	 2.2944894292	-0.1927305196	-1.1787949686	 0.131639
O	 2.9143026445	-0.1605883138	 0.0993031022	-0.440027
C	 2.8114531865	-1.3669748299	-2.0038330392	-0.12122
O	 2.1471967612	-2.481795683	-1.4228817464	-0.280379
C	 0.7779741914	-2.0968428126	-1.1957910935	 0.11649
C	 0.2786554544	-2.8717914943	 0.015015867	-0.397529
H	 1.0263163244	 2.0471123689	 0.0834088906	 0.133088
H	-0.4219453546	 1.9926496246	-0.9365104817	 0.108122
H	-0.5774007472	 2.0544304695	 0.8236609032	 0.110694
H	 0.4999963627	-0.2052762757	 1.006928077	 0.104091
H	-0.9947375056	-0.2692336277	 0.0827897706	 0.090676
H	 0.3312519667	-0.1474766549	-2.0370607379	 0.071923
H	 2.4881587624	 0.7798514498	-1.6372948553	 0.084396
H	 2.9508020274	-1.0736446558	 0.4097272501	 0.285328
H	 2.5562798814	-1.2539101615	-3.0705747334	 0.086795
H	 3.8892877967	-1.5192176477	-1.9071909876	 0.112293
H	 0.1869227861	-2.4011552864	-2.0733230786	 0.070778
H	 0.8274745474	-2.599540265	 0.9212589783	 0.114213
H	-0.7854573523	-2.6886265746	 0.1883403009	 0.118545
H	 0.4175421952	-3.943022453	-0.1554964071	 0.125231
37.8855	93.3942	177.1237	187.6034	212.6417	246.1418	280.7947	302.9997	405.3851	423.1489	431.0219	473.952	514.9703	708.7629	720.6889	766.4308	828.4419	857.3503	890.991	921.4075	948.5594	1006.8957	1041.0578	1046.8609	1062.7162	1087.0151	1094.8474	1131.4194	1169.0512	1180.7066	1231.6958	1254.9844	1267.2413	1301.0001	1321.8785	1343.1737	1347.4667	1381.8906	1385.5459	1398.4709	1410.4011	1416.0489	1433.2978	1476.0831	1490.4039	1496.5945	1499.4518	1506.0998	1508.7797	2969.0323	2971.9989	3021.0445	3031.5963	3032.4798	3045.0098	3080.821	3091.6603	3100.597	3101.6672	3113.6859	3117.9119	3120.6841	3782.847
CCC1C(O)COC1C	CC[C@H]1[C@@H](O)CO[C@H]1C	
InChI=1S/C7H14O2/c1-3-6-5(2)9-4-7(6)8/h5-8H,3-4H2,1-2H3	InChI=1S/C7H14O2/c1-3-6-5(2)9-4-7(6)8/h5-8H,3-4H2,1-2H3/t5-,6+,7-/m0/s1
