25
gdb 116495	2.70058	1.07626	0.84808	1.2498	88.99	-0.2411	0.0824	0.3234	1482.8143	0.230762	-389.501379	-389.491648	-389.490703	-389.536405	36.884	
C	 0.194596004	 1.5751947915	 0.0685659153	-0.394104
C	 0.0396531023	 0.0501215872	 0.0780745849	-0.176116
C	-1.410697384	-0.4703508594	-0.0231507143	 0.019964
C	-1.4132120571	-1.9944993871	-0.2611487855	-0.205127
C	-2.6735300329	-2.593786919	-0.9146473356	-0.207569
C	-4.0396034019	-2.1048561859	-0.3817603072	-0.192444
C	-4.065407868	-1.6027271612	 1.0648103525	-0.069693
O	-3.5973215037	-0.2703382866	 1.185618855	-0.248284
C	-2.1974781483	-0.0993616225	 1.2493574859	-0.071449
H	 1.2526242908	 1.8555451705	 0.0521037673	 0.112445
H	-0.2779662225	 2.0132136841	-0.8177330048	 0.11616
H	-0.2511464793	 2.0482935519	 0.9484232026	 0.121404
H	 0.6068764702	-0.3627843739	-0.7648777352	 0.094385
H	 0.5083719666	-0.3634423197	 0.9823995331	 0.093601
H	-1.8934212482	 0.0310778094	-0.8744571257	 0.072828
H	-0.5580748724	-2.2608731344	-0.8942247851	 0.087834
H	-1.2255475091	-2.4904047098	 0.7011283545	 0.091708
H	-2.6381681631	-2.4039124638	-1.9940817839	 0.097416
H	-2.6113955365	-3.6833790313	-0.8069280394	 0.094743
H	-4.4105049634	-1.2758396915	-0.994836367	 0.108068
H	-4.7728171259	-2.9137271074	-0.4869611656	 0.09097
H	-5.1021278879	-1.5761965506	 1.4180161225	 0.100746
H	-3.5075764255	-2.2734441257	 1.7389713975	 0.082875
H	-1.7809864563	-0.6749307007	 2.0963972846	 0.07849
H	-2.0632875179	 0.961403536	 1.4785285838	 0.101148
51.8918	75.0557	144.9067	173.2005	224.1353	242.0558	315.0681	340.989	386.5007	409.3604	442.0387	532.411	542.8945	742.369	772.0734	798.9317	858.3532	901.2207	911.4398	922.9675	983.7284	1007.7864	1018.1209	1041.1835	1058.395	1095.3007	1125.0376	1139.9814	1148.5506	1170.0971	1231.5811	1241.1844	1271.7672	1283.0765	1302.6483	1325.0093	1345.3177	1358.8791	1372.9197	1381.9417	1388.5962	1394.6722	1412.4229	1415.8494	1428.361	1475.5103	1480.5359	1489.1036	1492.8122	1498.6334	1501.	1507.3079	1511.7654	2938.0717	2972.557	3002.1944	3006.4464	3016.8226	3020.5868	3032.6927	3034.5772	3041.3457	3048.6385	3056.3927	3063.5122	3077.5859	3085.8973	3098.2505	3110.3363
CCC1CCCCOC1	CC[C@H]1CCCCOC1	
InChI=1S/C8H16O/c1-2-8-5-3-4-6-9-7-8/h8H,2-7H2,1H3	InChI=1S/C8H16O/c1-2-8-5-3-4-6-9-7-8/h8H,2-7H2,1H3/t8-/m0/s1
