19
gdb 113882	4.10062	0.71664	0.66157	2.9224	72.81	-0.253	-0.019	0.234	1702.8129	0.155778	-460.154728	-460.144499	-460.143555	-460.191849	35.454	
C	-0.0315294984	 1.3904265775	 0.5117880221	-0.477308
C	 0.0953945963	-0.0681153101	 0.1197495921	 0.390233
O	 1.15433401	-0.64983347	 0.1273646588	-0.288195
C	-1.2015973891	-0.7593983787	-0.3151527731	-0.354808
C	-1.1118761853	-2.2654847265	-0.2390125824	 0.074498
O	-1.64268735	-2.890090982	 0.9372908762	-0.269925
C	-2.2619962631	-3.1770021366	-0.3293939187	 0.018891
C	-3.7027417155	-2.7466749753	-0.4542971674	-0.082406
O	-4.5459306275	-3.5738353893	 0.3291666821	-0.417638
H	 0.9575146088	 1.8308605779	 0.6420385443	 0.146721
H	-0.5984227731	 1.9497347949	-0.2405216157	 0.136403
H	-0.5901993603	 1.4677611355	 1.4522291253	 0.1489
H	-2.0411997337	-0.3842219514	 0.2763954763	 0.126282
H	-1.3864692846	-0.4409049949	-1.3522131115	 0.136451
H	-0.1394446779	-2.6532893723	-0.5382462785	 0.117668
H	-2.0735338988	-4.1922384157	-0.6834879541	 0.10021
H	-3.8146788257	-1.6879410397	-0.1812814239	 0.086773
H	-4.0371078272	-2.8620931529	-1.4913788503	 0.113616
H	-4.2053271148	-3.5405914106	 1.2305287583	 0.293635
35.3827	44.7304	78.172	114.2357	137.7322	193.6003	255.5435	325.6316	403.1555	431.5646	459.0246	482.9016	548.3187	600.2447	774.7379	804.3081	850.2363	869.3382	929.7484	962.6085	1011.8122	1067.8548	1071.616	1089.768	1153.6134	1157.2534	1177.1874	1228.8108	1234.4033	1302.6765	1321.8747	1359.5282	1383.6696	1399.5816	1429.7611	1436.4426	1462.3715	1476.5698	1493.625	1497.2745	1818.5204	3006.1214	3012.9618	3035.287	3069.595	3093.5801	3097.7603	3099.2236	3134.7858	3154.0402	3799.9366
CC(=O)CC1OC1CO	CC(=O)C[C@H]1O[C@H]1CO	
InChI=1S/C6H10O3/c1-4(8)2-5-6(3-7)9-5/h5-7H,2-3H2,1H3	InChI=1S/C6H10O3/c1-4(8)2-5-6(3-7)9-5/h5-7H,2-3H2,1H3/t5-,6+/m1/s1
