21
gdb 89382	2.58311	1.46854	1.16655	1.9793	78.56	-0.2223	0.0761	0.2984	1155.9324	0.180634	-424.223941	-424.214481	-424.213537	-424.258847	36.219	
C	 0.4987062317	 1.4769797015	 0.1109521939	-0.391815
C	-0.0747139786	 0.0742973064	-0.0564454789	 0.13077
C	 0.4601110629	-0.6977754178	-1.2929685764	-0.331164
C	 1.1775989837	-1.9080632558	-0.7111572588	 0.336069
O	 1.101582488	-3.1208385535	-1.3978983189	-0.472722
C	 2.3535868757	-1.6443628998	 0.2118617529	-0.417037
C	 0.9522589594	-1.8709518143	 0.7669090097	 0.397942
C	 0.6203420399	-3.0667116308	 1.6120680164	-0.459135
O	 0.2317490611	-0.716036766	 1.1107808574	-0.315622
H	 1.5933128935	 1.4595173332	 0.1252359222	 0.116681
H	 0.1763243896	 2.12176828	-0.7138564388	 0.111369
H	 0.1524422572	 1.9183935606	 1.049621937	 0.125727
H	-1.1686693651	 0.1485563902	-0.107503704	 0.082505
H	-0.3565283439	-1.0577927526	-1.9246130821	 0.114228
H	 1.1088091931	-0.0662683485	-1.910295275	 0.096656
H	 1.8126588107	-3.1415195751	-2.0473970885	 0.282728
H	 3.0587407435	-2.4613201864	 0.3301459574	 0.110379
H	 2.7843858163	-0.6496718104	 0.2593776674	 0.109928
H	 1.124483118	-3.9540729369	 1.2222617455	 0.127057
H	 0.9318365119	-2.9120230294	 2.6499587923	 0.122201
H	-0.4586003787	-3.2496637545	 1.6026296092	 0.123254
15.373	162.2539	189.7445	213.3367	240.033	276.3672	289.5495	363.4531	397.4706	434.8434	443.0132	497.2144	558.3186	648.4346	728.5628	742.2168	826.7285	893.2813	910.0323	924.551	928.569	953.6292	989.3206	1018.9707	1069.1995	1092.8985	1117.6679	1123.5138	1171.3477	1210.4695	1242.1561	1255.1857	1293.9435	1331.5311	1358.8345	1386.9185	1401.3482	1408.5725	1422.0263	1476.3673	1480.4423	1486.9182	1493.7396	1498.7054	1513.1254	3011.5324	3032.3704	3040.2366	3041.0424	3094.0422	3103.6393	3104.9816	3117.0539	3121.7087	3129.7005	3216.1422	3796.6848
CC1CC2(O)CC2(C)O1	C[C@H]1C[C@@]2(O)C[C@@]2(C)O1	
InChI=1S/C7H12O2/c1-5-3-7(8)4-6(7,2)9-5/h5,8H,3-4H2,1-2H3	InChI=1S/C7H12O2/c1-5-3-7(8)4-6(7,2)9-5/h5,8H,3-4H2,1-2H3/t5-,6+,7+/m0/s1
