21
gdb 96054	3.12221	0.96976	0.84371	4.1336	78.94	-0.2438	-0.0147	0.229	1415.5785	0.181993	-424.2498	-424.24019	-424.239246	-424.285715	34.563	
O	-0.0976163228	 1.4559932926	 0.6442979869	-0.439995
C	-0.0153457747	 0.1430400056	 0.0961492691	 0.108294
C	 0.7527918678	-0.8147251845	 1.0170334384	-0.236476
C	-0.2470623066	-1.1695405426	 2.1490228617	-0.201527
C	-1.656189195	-0.8229872949	 1.5903415123	-0.206665
C	-1.4358747304	-0.4416178639	 0.1067529894	 0.013871
C	-2.5087869285	 0.4826091478	-0.4859976098	-0.29452
C	-3.8516954862	-0.2027763786	-0.5820830292	 0.162162
O	-4.8841705777	 0.217428555	-0.1272814027	-0.242868
H	 0.7975594021	 1.7915412676	 0.7509810633	 0.284149
H	 0.4063044809	 0.1784292867	-0.9198121165	 0.056209
H	 1.0324189702	-1.7093576847	 0.4485876127	 0.09923
H	 1.6832641515	-0.3702559922	 1.3862014571	 0.087125
H	-0.1642221621	-2.2226054174	 2.4302968306	 0.099621
H	-0.0392587478	-0.5866945889	 3.0494493023	 0.10806
H	-2.3650852121	-1.6487710828	 1.6972725547	 0.099481
H	-2.0788359632	 0.0317888684	 2.1256121604	 0.11963
H	-1.3963271443	-1.3618279669	-0.4932200402	 0.072418
H	-2.6083019457	 1.3995176422	 0.0978892136	 0.137098
H	-2.2158405759	 0.7598764705	-1.5099033249	 0.112194
H	-3.8266802193	-1.175335309	-1.1325567693	 0.062509
42.6318	59.5309	72.7802	141.0205	173.9824	283.1793	290.25	325.0633	402.6269	447.7328	556.8625	637.1898	707.2511	768.5807	815.0379	855.0713	864.9938	899.2613	921.4782	998.9425	1009.6433	1013.263	1044.8698	1062.9066	1105.587	1122.9361	1179.8898	1195.4244	1205.9209	1236.7024	1267.4684	1274.8244	1305.344	1314.3769	1332.8347	1350.9749	1357.3008	1391.2325	1422.1104	1430.6497	1462.8943	1482.7578	1487.4318	1511.4907	1835.8393	2830.5035	2983.777	3005.289	3010.2335	3037.5739	3055.7763	3067.8674	3073.1416	3091.6877	3112.7575	3124.0547	3824.8453
OC1CCCC1CC=O	O[C@H]1CCC[C@H]1CC=O	
InChI=1S/C7H12O2/c8-5-4-6-2-1-3-7(6)9/h5-7,9H,1-4H2	InChI=1S/C7H12O2/c8-5-4-6-2-1-3-7(6)9/h5-7,9H,1-4H2/t6-,7-/m0/s1
