17
gdb 108455	2.39693	1.64876	1.1968	2.0257	68.22	-0.2557	-0.0401	0.2157	1048.6839	0.135108	-458.936228	-458.928001	-458.927057	-458.969371	30.523	
O	-0.1149228609	 1.4952516598	 0.11433683	-0.420129
C	 0.0418626827	 0.08740459	 0.1246142855	-0.180196
C	-1.316657986	-0.5770506788	 0.0291596789	 0.157789
C	-2.265629039	-0.5609197637	 1.2534645515	-0.117631
O	-2.6031632978	-1.9567779977	 1.0842433384	-0.287217
C	-1.7320076994	-2.0895419298	-0.0495170836	 0.033968
C	-2.4700182082	-1.8526976519	-1.3951131171	-0.362148
C	-2.0594500307	-0.3720978134	-1.2927308574	 0.362666
O	-2.1396741795	 0.5799438607	-2.021695881	-0.316499
H	-0.5926517563	 1.7172349633	-0.6961334282	 0.29987
H	 0.6910601982	-0.2574523446	-0.6963724222	 0.094093
H	 0.5391511401	-0.1701527958	 1.0662586354	 0.114505
H	-1.7335302746	-0.3874910031	 2.1965981039	 0.119973
H	-3.140528068	 0.0961475264	 1.2070838393	 0.121158
H	-1.0480415619	-2.9366754949	 0.0265826669	 0.093267
H	-2.0099612332	-2.3393436213	-2.2622214282	 0.139754
H	-3.5404126554	-2.0710207353	-1.3860021021	 0.146779
89.3532	99.0173	145.677	209.0427	278.7868	326.0684	421.0711	464.9861	495.1584	514.8651	621.084	711.2853	776.8052	841.1841	913.8196	942.0548	945.7547	1002.1629	1011.7956	1048.3142	1055.1952	1077.9952	1113.2985	1134.5068	1159.0216	1168.1128	1220.8674	1258.398	1282.2356	1316.3603	1361.74	1377.0658	1413.8545	1440.2714	1506.6923	1523.0938	1862.8995	2973.4189	3023.6252	3055.1466	3063.7664	3076.3836	3100.2036	3122.3694	3760.6764
OCC12COC1CC2=O	OC[C@]12CO[C@H]1CC2=O	
InChI=1S/C6H8O3/c7-2-6-3-9-5(6)1-4(6)8/h5,7H,1-3H2	InChI=1S/C6H8O3/c7-2-6-3-9-5(6)1-4(6)8/h5,7H,1-3H2/t5-,6+/m0/s1
