14
gdb 124227	4.97812	1.03872	1.00705	3.4972	64.1	-0.2846	-0.0193	0.2653	1188.5364	0.100587	-470.005661	-469.997689	-469.996745	-470.039659	27.628	
C	-0.152652341	 1.4269626971	-0.0443587741	-0.4664
C	 0.1669620867	-0.0335653007	 0.0617791786	 0.383796
N	 0.8228487424	-0.6862355789	 0.9122230144	-0.481136
O	-0.3970391034	-0.7008742549	-1.0197344115	-0.275787
C	-0.2478575209	-2.0300055929	-1.0833707682	 0.575431
N	 0.5471514405	-2.6923606255	-1.8600266124	-0.346638
C	 0.1816641344	-3.9813238996	-1.5604948749	 0.060317
N	-0.7688275323	-4.1096972094	-0.67480558	-0.113983
O	-1.0711502678	-2.7775215211	-0.3484956088	-0.192595
H	 0.286925697	 1.977904168	 0.7875900796	 0.139838
H	 0.2313450042	 1.8264750016	-0.9876812221	 0.16331
H	-1.2367766012	 1.5744356063	-0.0445349801	 0.161576
H	 1.1861840471	-0.0837097252	 1.646411603	 0.239932
H	 0.6366371342	-4.8478018949	-2.0180292235	 0.152339
42.9018	72.3398	121.4983	140.0465	326.6914	349.2341	452.0134	551.7142	567.451	654.9579	701.5477	819.0669	858.2902	919.6543	924.5862	932.1095	975.8705	1007.272	1055.2064	1056.7041	1071.2274	1206.8298	1271.8279	1320.168	1334.958	1412.0514	1469.3149	1479.7155	1527.3232	1639.8121	1770.8514	3053.426	3118.1455	3154.022	3261.3315	3532.6275
CC(=N)OC1=NC=NO1	C[C]([NH])Oc1ncno1	
InChI=1S/C4H5N3O2/c1-3(5)8-4-6-2-7-9-4/h2,5H,1H3	InChI=1S/C4H5N3O2/c1-3(5)8-4-6-2-7-9-4/h2,5H,1H3
