16
gdb 54639	4.05645	1.13115	0.95331	2.6321	71.22	-0.252	-0.0445	0.2074	1191.4879	0.125005	-437.907256	-437.899467	-437.898523	-437.939947	29.769	
N	 0.7084673245	 0.2580991536	 0.9312562219	-0.537495
C	-0.2125425767	 0.307600229	-0.0858900907	 0.323082
O	-0.0953837968	 1.0561550669	-1.040519535	-0.354604
C	-1.3497286941	-0.6469715595	 0.0122020109	 0.235205
C	-1.4404119165	-1.7591749055	 0.7580686	-0.227785
C	-2.7747934241	-2.4003033956	 0.574375328	 0.013288
O	-3.866753939	-1.5363628837	 0.9633932693	-0.255293
C	-3.4984110355	-1.5785656711	-0.4164641612	 0.024966
C	-2.5812267714	-0.4451561441	-0.851802016	-0.321927
H	 1.4144286659	 0.9779830546	 0.9197326338	 0.260784
H	 0.4410359888	-0.1035103362	 1.8311886714	 0.258122
H	-0.6706426947	-2.1576238347	 1.4078615517	 0.106191
H	-2.9405270205	-3.4604907141	 0.7364920976	 0.101847
H	-4.2510005173	-1.9826552097	-1.0876565962	 0.101942
H	-3.0376219737	 0.5381827341	-0.6961930191	 0.13717
H	-2.3245468188	-0.508340654	-1.9148334464	 0.134508
61.5917	126.7261	193.0764	334.8063	345.6171	384.5126	412.0833	497.1926	540.784	552.7623	652.4693	717.9995	749.5127	832.1138	844.3899	860.2009	899.7317	929.9817	965.1283	1014.5072	1027.7292	1082.5867	1104.4724	1116.3564	1180.2651	1247.7393	1275.4786	1306.8112	1326.4214	1393.3893	1403.6999	1454.6199	1615.0393	1665.3737	1773.4992	3053.6202	3088.6998	3153.8352	3171.149	3206.5244	3589.9249	3718.4632
NC(=O)C1=CC2OC2C1	NC(=O)C1=C[C@H]2O[C@H]2C1	
InChI=1S/C6H7NO2/c7-6(8)3-1-4-5(2-3)9-4/h1,4-5H,2H2,(H2,7,8)	InChI=1S/C6H7NO2/c7-6(8)3-1-4-5(2-3)9-4/h1,4-5H,2H2,(H2,7,8)/t4-,5+/m1/s1
