20
gdb 115172	2.52229	1.37653	1.05318	3.885	76.96	-0.2522	0.0329	0.2851	1213.1874	0.170764	-440.299722	-440.290474	-440.28953	-440.333916	33.845	
C	 0.2720640724	 1.1351688609	 0.4972419523	-0.238237
O	 0.1475380048	-0.2254223489	 0.1509471039	-0.238388
C	 0.5505330963	-0.5309851169	-1.1677106299	 0.091394
C	 2.0750878322	-0.7005755657	-1.2815321236	-0.107871
O	 2.343441259	-2.055838968	-0.8954540335	-0.243574
C	 1.2056516206	-2.8100416156	-0.9883245651	 0.43428
N	 1.1298269884	-4.0343946851	-0.6943693628	-0.548495
C	 0.0703137801	-1.9510480905	-1.514365374	-0.11214
C	-1.3128016065	-2.355985316	-1.0172863706	-0.400998
H	 1.3156968241	 1.4831220945	 0.4769391391	 0.106899
H	-0.3177248996	 1.7774024651	-0.1751166664	 0.10911
H	-0.108389967	 1.2432914428	 1.5153323435	 0.136019
H	 0.1722389471	 0.2280710389	-1.8672724319	 0.069355
H	 2.4212391063	-0.5365782567	-2.3102611467	 0.108054
H	 2.6322301529	-0.0414943305	-0.6118646993	 0.120534
H	 2.034977955	-4.3867484462	-0.3786336636	 0.221037
H	 0.1031688382	-2.0346572796	-2.6102241669	 0.104746
H	-1.3935944889	-2.2017131149	 0.0594251259	 0.141151
H	-2.092506546	-1.768248563	-1.5112334533	 0.104919
H	-1.4790998294	-3.4143168046	-1.228594277	 0.142205
72.8035	108.7847	158.7399	188.3819	199.8823	224.9235	259.9541	326.5023	406.6723	457.9408	509.4249	595.6088	718.0464	765.228	784.3993	858.2361	892.7249	938.0491	954.7927	996.1153	1039.2921	1058.3129	1101.0126	1125.789	1149.4836	1171.3605	1184.2519	1210.7652	1249.6793	1267.4891	1273.7834	1320.3695	1354.529	1385.64	1403.4603	1416.1791	1480.6094	1488.8681	1491.5366	1500.8075	1504.7928	1511.2004	1780.4902	2976.3157	2998.9385	3011.4418	3023.8527	3028.6929	3053.1166	3105.046	3120.4737	3126.0319	3151.0524	3474.8346
COC1COC(=N)C1C	CO[C@H]1CO[C]([NH])[C@H]1C	
InChI=1S/C6H11NO2/c1-4-5(8-2)3-9-6(4)7/h4-5,7H,3H2,1-2H3	InChI=1S/C6H11NO2/c1-4-5(8-2)3-9-6(4)7/h4-5,7H,3H2,1-2H3/t4-,5-/m0/s1
