17
gdb 91273	3.06851	1.46294	1.20688	5.1492	67.48	-0.2912	0.0415	0.3327	1053.1815	0.137082	-459.011054	-459.003538	-459.002594	-459.04361	28.473	
C	-0.6734995754	 1.411997203	-0.0926108371	-0.407155
C	-0.0114617924	 0.0444275488	-0.0293108331	-0.001174
C	 1.3233733739	-0.1820417496	-0.8144267516	-0.282925
C	 1.9509917359	-0.8077789802	 0.457504122	 0.090142
O	 3.0403779277	-0.0841339391	 1.0189408364	-0.249342
C	 2.5714122667	 0.8382945123	 1.9025988852	 0.491639
O	 3.2435809631	 1.6372106831	 2.469325903	-0.366644
O	 1.2213929267	 0.7208181389	 2.0510080441	-0.253394
C	 0.7160916464	-0.3696010186	 1.2803653051	 0.06253
H	 0.0198270678	 2.2007269074	 0.2119205143	 0.136582
H	-1.0091404744	 1.6265944049	-1.1122886119	 0.121948
H	-1.5458695897	 1.4619970905	 0.566883336	 0.12581
H	-0.7370338509	-0.7362424746	-0.2812126515	 0.085769
H	 1.2675557087	-0.8303691324	-1.6906145837	 0.115454
H	 1.8300203023	 0.74513878	-1.0942182904	 0.125676
H	 2.212006355	-1.8647591082	 0.4179336824	 0.106885
H	 0.2138749886	-1.0679554261	 1.9526136408	 0.098196
60.2974	125.1305	216.8054	239.4363	338.7495	406.0974	463.0201	572.853	614.7843	711.3899	754.4985	774.9999	813.287	866.6209	901.7753	908.1317	939.9227	953.1978	1018.064	1059.4715	1120.3654	1122.9159	1144.2359	1146.7379	1184.3863	1227.414	1258.9443	1289.201	1301.362	1347.4229	1364.0888	1382.9321	1416.12	1477.7002	1493.947	1499.6744	1926.8316	3039.0457	3050.0622	3071.3374	3091.6817	3105.3252	3118.3825	3119.7693	3133.4492
CC1CC2OC(=O)OC12	C[C@H]1C[C@H]2OC(=O)O[C@@H]12	
InChI=1S/C6H8O3/c1-3-2-4-5(3)9-6(7)8-4/h3-5H,2H2,1H3	InChI=1S/C6H8O3/c1-3-2-4-5(3)9-6(7)8-4/h3-5H,2H2,1H3/t3-,4+,5-/m0/s1
