14
gdb 46463	4.05169	1.19732	1.08526	4.7906	69.28	-0.2517	-0.0149	0.2368	1084.8576	0.101077	-436.660104	-436.652648	-436.651704	-436.692109	28.279	
O	-0.0085236333	 0.0180040746	 0.2895225436	-0.339784
C	 0.01405179	 1.1866207012	 0.0427443697	 0.511935
O	-1.1145032612	 1.924371286	-0.1626739984	-0.23456
C	-0.8268501769	 3.2392880712	-0.6605136246	-0.130751
C	 0.6877895654	 3.4068242876	-0.5727318113	 0.163694
N	 1.1404634563	 3.2298895505	 0.8264063493	-0.357372
C	 1.2093876848	 2.0868744721	-0.1131050132	-0.284115
C	 1.3774642195	 4.2774455565	-1.4703979527	 0.16736
C	 1.9344241633	 5.0346188291	-2.2204020311	-0.35971
H	-1.1724488646	 3.3073774449	-1.696230832	 0.132636
H	-1.35638101	 3.9675947542	-0.0418725551	 0.14013
H	 2.0767014191	 3.6223132328	 0.9161992013	 0.251922
H	 2.160446602	 1.6680244072	-0.4135856698	 0.13533
H	 2.4327332255	 5.6966581221	-2.8853064458	 0.203287
108.696	145.2523	182.9101	274.0578	382.6859	426.5059	491.0287	531.7001	559.2093	613.367	659.5008	681.4334	717.924	796.2925	840.6703	863.8333	952.8552	1001.6933	1051.3655	1058.6428	1069.8869	1111.3032	1191.3453	1232.5373	1283.2591	1309.9777	1384.0142	1424.9896	1503.5853	1891.3665	2241.6299	3060.5239	3117.2094	3217.7236	3489.9806	3498.8698
O=C1OCC2(NC12)C#C	O=C1OC[C@]2(N[C@@H]12)C#C	
InChI=1S/C6H5NO2/c1-2-6-3-9-5(8)4(6)7-6/h1,4,7H,3H2	InChI=1S/C6H5NO2/c1-2-6-3-9-5(8)4(6)7-6/h1,4,7H,3H2/t4-,6+/m0/s1
