23
gdb 102309	1.99967	1.00236	0.78703	4.9715	86.76	-0.2361	0.0341	0.2703	1580.7307	0.203959	-384.477996	-384.46669	-384.465746	-384.515089	40.243	
C	 0.0799334882	 1.3198835092	-0.5406759278	-0.328515
N	-0.1085570685	 0.1608513388	 0.3191003081	-0.269488
C	-1.3851576008	-0.5397610388	 0.2155960509	-0.149944
C	-1.3480968343	-1.8687782922	-0.5793766039	-0.185468
C	-0.9914509427	-1.7405099587	-2.0710190616	 0.029345
C	-0.751277111	-3.1340294059	-2.669711742	-0.394726
C	-2.0674124469	-0.9905212872	-2.8690209889	-0.388962
C	-1.9087305554	-0.8184175067	 1.5730315875	 0.299285
N	-2.3188370434	-1.0585097332	 2.6264344199	-0.330155
H	 1.0679900979	 1.7461012618	-0.3448215168	 0.129802
H	 0.00444731	 1.1208207417	-1.6225081017	 0.105014
H	-0.6595718864	 2.0873547135	-0.2880929924	 0.132981
H	 0.6647280716	-0.4885279451	 0.2548366382	 0.225555
H	-2.1048645242	 0.1401625002	-0.2551485364	 0.1262
H	-0.6223387007	-2.5268615679	-0.0839482573	 0.108135
H	-2.3224492874	-2.363271834	-0.4767222912	 0.116306
H	-0.0506177473	-1.1789743926	-2.1495463001	 0.076245
H	-1.6579857205	-3.7475923087	-2.6106734842	 0.118776
H	-0.466097912	-3.0645949072	-3.724241735	 0.114934
H	 0.0453798444	-3.6664764427	-2.1399208658	 0.113495
H	-3.0306129302	-1.511131609	-2.8092122379	 0.118687
H	-2.2191602754	 0.0322532311	-2.5107929775	 0.114647
H	-1.7912496749	-0.9262965563	-3.9262883842	 0.117852
42.2328	77.0708	95.8837	122.5701	164.2354	215.7992	224.5316	249.3062	252.8712	324.6799	360.711	372.3563	421.4482	449.8861	552.0938	562.658	656.1574	815.7804	844.6802	930.4374	938.7047	960.3824	971.301	988.8941	1037.3769	1105.2136	1135.44	1156.5211	1167.7155	1192.1208	1210.6451	1256.0309	1289.9881	1336.4708	1363.2762	1373.1782	1385.589	1404.5269	1425.8122	1462.8703	1470.2802	1486.7386	1490.6862	1495.4413	1498.0863	1506.7564	1511.3807	1521.2575	2354.6156	2965.7739	3012.1369	3018.3106	3026.6847	3032.2823	3045.9655	3062.2942	3064.6394	3092.9069	3098.7848	3102.0608	3104.7824	3108.1631	3560.07
CNC(CC(C)C)C#N	CN[C@@H](CC(C)C)C#N	
InChI=1S/C7H14N2/c1-6(2)4-7(5-8)9-3/h6-7,9H,4H2,1-3H3	InChI=1S/C7H14N2/c1-6(2)4-7(5-8)9-3/h6-7,9H,4H2,1-3H3/t7-/m0/s1
