21
gdb 113301	2.4637	1.01513	0.82578	1.7097	86.41	-0.2401	0.0511	0.2912	1473.3108	0.179571	-387.040753	-387.030158	-387.029214	-387.07647	38.763	
C	 0.0103033538	 1.5478001575	-0.4012187442	-0.3804
C	-0.001596064	 0.1274770657	 0.1742864152	-0.255098
C	-1.3863117293	-0.5203605679	 0.1303629153	 0.118901
C	-1.8457564996	-1.1960308799	-1.1580191318	-0.306874
C	-1.5626493037	-2.0378698129	 0.051572389	-0.029958
C	-0.4070539496	-3.0045989941	 0.089728608	-0.112054
O	-0.8563465967	-4.2185614847	-0.5005918146	-0.418271
C	-2.3895570866	 0.1767274985	 0.8960634824	 0.293237
C	-3.2128966798	 0.7637926014	 1.5488485017	-0.466092
H	 1.0131013329	 1.9817520241	-0.3431570695	 0.109448
H	-0.2988623646	 1.5483619848	-1.4516809385	 0.116362
H	-0.6752667299	 2.198407569	 0.1489978851	 0.133395
H	 0.705526256	-0.4937550931	-0.3837538465	 0.095754
H	 0.3494474371	 0.148202229	 1.2130484894	 0.104805
H	-2.8733298815	-1.0595401813	-1.4721205052	 0.123737
H	-1.1230261518	-1.2254618835	-1.9678481658	 0.114725
H	-2.4353647604	-2.4113686583	 0.5781795147	 0.105346
H	 0.4584567476	-2.6016291766	-0.4559245235	 0.084913
H	-0.0911945384	-3.1668472879	 1.1327514915	 0.092078
H	-0.1549276071	-4.8705571761	-0.409805436	 0.285944
H	-3.9451226842	 1.2779426061	 2.1202312633	 0.190101
62.9434	91.8458	135.4936	140.6488	158.6737	213.1101	249.822	263.2887	315.107	337.9969	416.4919	457.7422	542.0362	575.417	631.5001	643.3389	658.7325	788.0037	840.719	884.1767	916.4806	926.9338	996.2071	1014.4994	1051.1337	1070.5516	1085.3361	1098.0678	1130.1625	1169.6726	1238.9164	1252.1488	1280.8322	1287.6019	1323.1559	1363.2033	1404.7517	1409.4164	1469.0074	1481.3382	1490.1114	1495.8154	1507.9644	1520.8871	2229.0338	2971.3826	3006.4896	3033.9964	3038.4357	3078.4122	3106.3764	3118.7975	3132.952	3161.8204	3226.201	3503.2728	3823.9359
CCC1(CC1CO)C#C	CC[C@]1(C[C@H]1CO)C#C	
InChI=1S/C8H12O/c1-3-8(4-2)5-7(8)6-9/h1,7,9H,4-6H2,2H3	InChI=1S/C8H12O/c1-3-8(4-2)5-7(8)6-9/h1,7,9H,4-6H2,2H3/t7-,8-/m0/s1
