19
gdb 71636	2.7519	1.62691	1.5452	2.0067	74.83	-0.2411	0.0747	0.3158	967.0427	0.161443	-422.981744	-422.974523	-422.973578	-423.013005	29.529	
O	-0.074366318	 1.3457699331	 0.0308004815	-0.477889
C	 0.0396228015	-0.0326602038	 0.0438482709	 0.387898
C	 0.6359586531	-0.9644171792	 1.134040435	-0.301209
C	 0.0628487876	-1.8998289294	 0.0341944529	-0.06917
C	-1.1941530963	-0.9676145682	-0.0218240729	-0.041813
C	-2.0039754811	-0.9692073414	-1.3107590015	-0.120947
O	-1.248978927	-1.4612331973	-2.4053393186	-0.249233
C	 0.0734045429	-0.9545201487	-2.4247740856	-0.114065
C	 0.6976720835	-0.9553836779	-1.0370775952	-0.080899
H	 0.8095097699	 1.7289809311	 0.0420520387	 0.282941
H	 1.7246614629	-0.959115503	 1.2472807845	 0.083847
H	 0.1242435322	-0.9750532982	 2.1003386371	 0.093271
H	 0.0726664133	-2.9867289885	 0.0316070103	 0.084853
H	-1.8281697123	-0.9599946477	 0.8703901124	 0.067018
H	-2.871639954	-1.6312331821	-1.2242862356	 0.105949
H	-2.3780279225	 0.0489076181	-1.5149985966	 0.097992
H	 0.6331049023	-1.6018473261	-3.1079738452	 0.105772
H	 0.0974918669	 0.0690452035	-2.8401940129	 0.087997
H	 1.7926820453	-0.9335418043	-1.0698080293	 0.057684
170.9078	196.7482	243.7536	274.2126	397.7814	403.3704	446.0624	520.5957	607.6999	648.4292	765.6747	775.3993	806.0982	864.1037	873.0082	929.0186	963.9516	976.5393	1002.9665	1016.228	1066.3558	1073.8296	1092.7142	1104.0865	1127.357	1143.4055	1173.0819	1194.0904	1210.8289	1218.227	1264.5147	1290.0136	1312.1996	1342.0812	1349.2226	1382.7757	1409.6606	1438.3845	1498.0341	1508.9827	1520.1523	2945.8319	2961.33	3041.392	3046.8834	3058.8136	3067.027	3073.3207	3111.4189	3151.3133	3805.4758
OC12CC3C1COCC23	O[C@@]12C[C@H]3[C@@H]1COC[C@@H]23	
InChI=1S/C7H10O2/c8-7-1-4-5(7)2-9-3-6(4)7/h4-6,8H,1-3H2	InChI=1S/C7H10O2/c8-7-1-4-5(7)2-9-3-6(4)7/h4-6,8H,1-3H2/t4-,5-,6+,7-
