21
gdb 64227	3.1904	0.9601	0.89562	1.3715	84.18	-0.2434	0.0502	0.2935	1407.0125	0.179457	-387.049227	-387.039115	-387.038171	-387.084544	37.463	
C	-0.1603408133	 1.5642577029	-0.0522419297	-0.426651
C	-0.0171553157	 0.0469925644	 0.0123104388	 0.404665
C	-1.282869758	-0.6565172705	-0.4592818256	-0.426584
O	 1.1334919124	-0.3831139972	-0.7744356178	-0.324294
C	 1.8417662705	-0.8335488373	 0.3961817973	-0.08074
C	 0.6286042651	-0.5561181709	 1.3019710111	-0.075347
C	 0.8392756859	 0.3194061927	 2.5428828522	-0.391943
C	 1.6184673821	-0.3688347987	 3.5669225518	 0.290194
C	 2.2654677296	-0.9621036963	 4.3881297994	-0.429252
H	 0.7689267012	 2.068084197	 0.2255526135	 0.118762
H	-0.4059528402	 1.8631620866	-1.076071147	 0.123021
H	-0.9610173874	 1.9189656449	 0.6057656889	 0.113059
H	-1.5324234865	-0.3498641488	-1.480238426	 0.123107
H	-1.1459264825	-1.7413279057	-0.4525833247	 0.118862
H	-2.1306230322	-0.4082895356	 0.1892451682	 0.112791
H	 2.1635991152	-1.8770893671	 0.3094816166	 0.104973
H	 2.7220895008	-0.2117891584	 0.6110647975	 0.098236
H	 0.1201657064	-1.4753006724	 1.6032051797	 0.087202
H	 1.3491358947	 1.2504565811	 2.2684346345	 0.132189
H	-0.1332661722	 0.613023677	 2.9592700596	 0.131821
H	 2.836435254	-1.4741418877	 5.1223553115	 0.19593
58.6048	62.3969	112.3806	196.0294	214.1914	261.2999	275.4551	342.324	349.9612	368.103	399.5378	485.8572	520.6377	621.8304	638.2461	643.8963	812.5086	861.765	880.152	917.4921	929.6018	962.025	986.3357	1003.6194	1024.297	1083.0594	1118.1775	1161.9626	1176.2514	1190.2096	1245.7996	1265.1251	1292.824	1321.9871	1351.9292	1394.8395	1400.5182	1412.9523	1466.6926	1475.7648	1483.9148	1493.6129	1506.3963	1529.7316	2237.9976	3004.2419	3020.4125	3030.6703	3038.0629	3052.9847	3057.5627	3082.3746	3099.8435	3107.5752	3115.1861	3118.7388	3506.7354
CC1(C)OCC1CC#C	CC1(C)OC[C@H]1CC#C	
InChI=1S/C8H12O/c1-4-5-7-6-9-8(7,2)3/h1,7H,5-6H2,2-3H3	InChI=1S/C8H12O/c1-4-5-7-6-9-8(7,2)3/h1,7H,5-6H2,2-3H3/t7-/m1/s1
