14
gdb 6426	3.85318	1.5668	1.35131	4.0871	64.	-0.2741	0.0056	0.2797	920.3766	0.10476	-382.536798	-382.529105	-382.528161	-382.568709	28.544	
C	-0.2668513667	 1.6655852074	-0.028363789	-0.434878
C	-0.0113024626	 0.1658295033	-0.077255725	 0.214584
C	 0.8368890409	-0.3538189778	-1.271260437	-0.458054
C	 1.8843478172	-0.6431927718	-0.2005542318	 0.447539
O	 2.9863415335	-1.0818945673	-0.1428190172	-0.311716
O	 1.1086720124	-0.1914508603	 0.8361929475	-0.260092
C	-1.1959440561	-0.6170739937	 0.2312542217	 0.33068
C	-2.1883712119	-1.2505902029	 0.4691255147	-0.460302
H	 0.6543154422	 2.2111124001	-0.2504874922	 0.131394
H	-1.0306457084	 1.9400655826	-0.7612436734	 0.138907
H	-0.6185663372	 1.9559984962	 0.9643522215	 0.148847
H	 0.4526091791	-1.2399028149	-1.7763165484	 0.155371
H	 1.1288103616	 0.4002401652	-2.0039203217	 0.146685
H	-3.0614713938	-1.8156459262	 0.6866053105	 0.211035
86.5748	175.2133	186.9942	231.6684	321.0227	390.0592	458.0086	505.0751	524.4084	581.8723	617.9817	639.381	679.3368	802.2014	839.9271	902.4841	948.6597	976.4501	1056.1037	1088.6597	1167.7169	1221.9396	1231.103	1274.4152	1408.6622	1451.3383	1479.9314	1489.263	1943.9165	2241.8583	3048.3134	3094.832	3126.9649	3134.5051	3158.4399	3499.0841
CC1(CC(=O)O1)C#C	C[C@]1(CC(=O)O1)C#C	
InChI=1S/C6H6O2/c1-3-6(2)4-5(7)8-6/h1H,4H2,2H3	InChI=1S/C6H6O2/c1-3-6(2)4-5(7)8-6/h1H,4H2,2H3/t6-/m1/s1
