17
gdb 48994	2.69621	1.68431	1.30641	2.7251	75.27	-0.2315	-0.0338	0.1977	1000.449	0.135497	-421.804845	-421.79713	-421.796186	-421.837097	29.396	
O	 0.0154750362	-0.1110753882	-0.2979270466	-0.253663
C	 0.0750236072	 0.9653393877	 0.2396333192	 0.117463
C	 1.2361727822	 1.9357471928	 0.1036232685	 0.272272
C	 2.5222646009	 1.2526861379	-0.5007576766	-0.27243
C	 2.0749444938	 1.7645121468	-1.9230975126	-0.312494
C	 1.2374540631	 2.7616439539	-1.1579201095	 0.209289
C	 1.1312817958	 4.0480984916	-0.852583926	-0.241235
C	 0.9398589372	 4.1630299932	 0.6510307122	-0.129303
O	 1.232273369	 2.8483313522	 1.1796244959	-0.325799
H	-0.7416476311	 1.3512314262	 0.8881510182	 0.089038
H	 3.4251576352	 1.7511995126	-0.1473130521	 0.120877
H	 2.5810923392	 0.1709853544	-0.373570966	 0.125333
H	 2.8342353872	 2.1665222046	-2.5950581131	 0.118488
H	 1.4901804466	 0.9993433276	-2.4389492987	 0.139927
H	 1.3169109485	 4.9055457311	-1.4869014025	 0.112496
H	 1.6448331176	 4.8817751106	 1.0885203761	 0.117873
H	-0.0725453886	 4.466642875	 0.9568263437	 0.11187
99.9008	132.2108	210.0697	239.84	281.7729	355.5575	425.4953	474.1583	644.0276	673.8788	731.1448	767.4484	802.5242	813.9459	899.5202	907.1033	928.4865	937.6382	1009.0627	1027.2685	1059.0231	1095.875	1122.9816	1147.9036	1167.942	1198.0462	1214.1926	1226.4311	1253.5996	1280.0986	1365.0106	1396.829	1450.8686	1476.2468	1520.1566	1728.9576	1819.2721	2899.2243	2990.8963	3034.3752	3075.0633	3084.0809	3132.2876	3161.0936	3215.0115
O=CC12CCC1=CCO2	O=C[C@@]12CC[C]1[CH]CO2	
InChI=1S/C7H8O2/c8-5-7-3-1-6(7)2-4-9-7/h2,5H,1,3-4H2	InChI=1S/C7H8O2/c8-5-7-3-1-6(7)2-4-9-7/h2,5H,1,3-4H2/t7-/m0/s1
