18
gdb 22913	2.45259	1.37911	1.05607	1.5953	70.79	-0.2566	-0.0084	0.2482	1167.3875	0.146099	-476.180704	-476.171498	-476.170554	-476.214567	34.006	
C	 0.7936000074	 1.266309817	-0.2437065406	-0.393885
C	-0.0810013372	 0.0826880876	 0.1552719062	 0.081406
O	-0.1474914116	-0.9267362199	-0.8651066703	-0.272762
C	 0.9613361639	-1.8084243316	-0.7263980602	-0.162331
C	 1.4054169762	-1.6507669887	 0.7022206514	 0.330374
N	 2.4262762637	-2.0943318904	 1.3086693136	-0.236716
O	 3.2085570085	-2.9138744121	 0.4825419261	-0.391653
C	 0.4562225405	-0.6928317535	 1.3834274545	 0.04904
O	 1.0433830625	 0.1131339216	 2.3725648922	-0.435652
H	 1.8348294508	 0.9640038851	-0.3964247502	 0.117063
H	 0.4202670928	 1.7054083028	-1.1725603765	 0.121336
H	 0.7811975587	 2.0247604035	 0.5426659593	 0.135389
H	-1.1108675377	 0.4147221815	 0.3122185803	 0.090781
H	 0.6383923635	-2.8289048007	-0.9607754326	 0.135714
H	 1.7855435562	-1.5573103724	-1.4103792123	 0.127901
H	 3.9391909472	-3.1610715274	 1.0599399726	 0.311364
H	-0.3790211007	-1.2741619731	 1.8089209672	 0.097316
H	 1.8500925651	-0.3355806493	 2.6555555994	 0.295316
69.8779	159.5237	181.3034	203.5611	223.7925	235.918	282.2935	332.3353	386.2986	407.0102	503.8284	545.5376	573.057	663.662	746.7213	805.4556	848.2823	902.7383	998.8725	1019.6762	1039.5548	1068.5936	1104.2643	1132.0599	1139.7812	1198.3355	1234.7794	1251.6853	1314.9973	1348.8222	1359.1357	1384.4715	1397.8471	1412.5101	1419.9301	1486.1236	1489.284	1499.667	1779.7768	2960.9343	3000.2642	3044.4891	3060.849	3073.6722	3116.3845	3133.4817	3772.9282	3815.5145
CC1OCC(=NO)C1O	C[C@H]1OCC(=NO)[C@H]1O	
InChI=1S/C5H9NO3/c1-3-5(7)4(6-8)2-9-3/h3,5,7-8H,2H2,1H3	InChI=1S/C5H9NO3/c1-3-5(7)4(6-8)2-9-3/h3,5,7-8H,2H2,1H3/t3-,5+/m1/s1
