18
gdb 112306	3.10807	1.24874	0.97591	2.8051	72.86	-0.2373	-0.0189	0.2184	1210.2502	0.147742	-439.072376	-439.064083	-439.063138	-439.10561	30.99	
C	 0.0737851938	 1.3128172118	 0.1578423713	-0.237467
O	-0.164088565	-0.0526415579	-0.1048224179	-0.247053
C	 0.5427534114	-0.5526104217	-1.2137974863	 0.15887
C	 2.0707589318	-0.7296101261	-1.0151117873	-0.382358
C	 2.4302174069	-1.9422111592	-1.8830678102	 0.447622
O	 3.4687603991	-2.132309285	-2.4617384831	-0.323386
C	 1.1965873911	-2.7968349309	-1.9743092266	-0.168316
N	 0.5649452517	-2.9673313442	-0.6326244426	-0.321092
C	 0.043270569	-1.9508070507	-1.5472399212	-0.07602
H	 1.1183450959	 1.5058766702	 0.4420435843	 0.111954
H	-0.1692771584	 1.9422487404	-0.7130162794	 0.104381
H	-0.5734279451	 1.597554144	 0.9904458088	 0.130858
H	 0.3660350509	 0.094764565	-2.0903845347	 0.072792
H	 2.6747056173	 0.1345533321	-1.2926528266	 0.121895
H	 2.2639811152	-0.9801186778	 0.0333776306	 0.153961
H	 1.129046558	-3.5826691022	-2.7168755526	 0.107931
H	-0.0327873885	-3.7900724446	-0.6705964434	 0.244163
H	-0.9436515852	-2.0732412132	-1.980193243	 0.101264
92.7415	101.6559	158.67	187.9958	257.9084	343.954	399.8462	457.6128	492.041	535.2593	636.3829	683.6576	803.9236	830.739	862.5397	878.8068	912.7988	968.9778	1008.0129	1034.7869	1061.2332	1114.8129	1145.5627	1155.2114	1180.4272	1186.6397	1198.1281	1225.1481	1251.1941	1257.8113	1345.9449	1356.5103	1384.4152	1413.7884	1449.2541	1481.8958	1489.6984	1509.0833	1847.2841	2953.0415	2976.4661	3027.9047	3065.334	3118.5472	3137.2839	3173.1557	3196.8242	3500.4567
COC1CC(=O)C2NC12	CO[C@H]1CC(=O)[C@H]2N[C@@H]12	
InChI=1S/C6H9NO2/c1-9-4-2-3(8)5-6(4)7-5/h4-7H,2H2,1H3	InChI=1S/C6H9NO2/c1-9-4-2-3(8)5-6(4)7-5/h4-7H,2H2,1H3/t4-,5+,6-/m0/s1
