14
gdb 129371	2.79666	1.59232	1.01522	3.2594	69.58	-0.2206	-0.0199	0.2007	1075.2544	0.100785	-466.190624	-466.182078	-466.181133	-466.223714	31.378	
N	-0.0667197402	 1.3269224536	 0.1322386452	-0.557799
C	 0.0323826789	-0.0408299197	 0.0347059458	 0.283234
N	 1.1188317304	-0.7392260313	-0.0142236385	-0.586645
C	-1.2278237306	-0.7614089297	 0.0325371171	 0.187139
C	-1.4099195027	-2.1507176239	 0.0140087195	 0.438972
N	-0.4617139803	-3.0864399276	-0.0002704796	-0.581248
O	-2.6846459897	-2.4388316302	 0.0121548882	-0.253481
N	-3.3928632904	-1.0481394226	 0.0308048588	-0.05746
N	-2.4737311738	-0.2198104345	 0.0407007313	-0.170022
H	 0.7353995443	 1.8743449745	-0.1337915915	 0.251606
H	-0.9652883303	 1.7417220179	-0.0597800172	 0.270808
H	 1.951381382	-0.1526314544	 0.0021541572	 0.204422
H	 0.4912552925	-2.7299532761	-0.0155730473	 0.295667
H	-0.69138341	-4.063283916	-0.0270332289	 0.274804
85.3959	124.4865	202.2305	238.7313	262.1702	288.8147	355.0993	396.8559	448.1041	454.7571	572.101	648.7955	652.8743	674.1724	690.5968	758.3642	792.0045	798.0943	951.7398	1083.6988	1089.6134	1142.9499	1234.7242	1320.7359	1434.8362	1510.2871	1522.62	1551.1599	1638.6453	1661.5191	1692.7378	3455.4542	3490.2248	3587.4633	3706.0109	3721.2801
NC(=N)C1=C(N)ON=N1	NC(=N)c1c(N)onn1	
InChI=1S/C3H5N5O/c4-2(5)1-3(6)9-8-7-1/h6H2,(H3,4,5)	InChI=1S/C3H5N5O/c4-2(5)1-3(6)9-8-7-1/h6H2,(H3,4,5)
