18
gdb 127126	3.98461	1.11783	0.88775	2.6605	76.64	-0.1825	0.044	0.2266	1300.3168	0.149142	-431.470399	-431.460996	-431.460052	-431.504446	33.882	
C	-0.0402309232	 1.4023711839	 0.1072861401	-0.333554
N	-0.0394352801	-0.0160013939	-0.1992546354	-0.154252
C	 1.1898412775	-0.7345189541	 0.0735522933	-0.322542
C	-1.2169161413	-0.7130534885	-0.0680522281	 0.471267
N	-1.2561323734	-2.0284966409	 0.1010498116	-0.342962
N	-2.6205693741	-2.2583766897	 0.1057110173	-0.262634
C	-3.2847682268	-1.0981195559	-0.039946339	 0.422433
N	-4.660638801	-1.0026656947	-0.1364150599	-0.601477
N	-2.439630542	-0.0896134309	-0.1410686336	-0.406879
H	 0.7866029661	 1.885970671	-0.4230999149	 0.114216
H	-0.9810119481	 1.8427682296	-0.2208640142	 0.156613
H	 0.0812138163	 1.603966326	 1.1849510824	 0.102385
H	 1.3702963548	-0.8766976733	 1.1515893173	 0.106375
H	 1.1488945746	-1.7199022674	-0.3928271656	 0.150754
H	 2.03016173	-0.1732882847	-0.3461691069	 0.112347
H	-2.9683402312	-3.2005814287	 0.1244661845	 0.268021
H	-5.174003988	-1.6007069291	 0.4965453519	 0.253263
H	-4.96318437	-0.0410282488	-0.0621606308	 0.266625
78.8366	124.2077	174.1667	183.2112	216.0755	251.8683	265.5978	305.	357.3465	391.8188	417.9859	549.4533	604.556	653.2726	739.6106	763.6878	783.7123	952.9967	1030.0616	1071.1916	1087.7854	1106.9229	1131.5899	1146.4344	1179.8348	1255.1895	1295.3863	1327.2577	1423.557	1443.5235	1458.1264	1483.5367	1489.6227	1501.6429	1507.5289	1544.2225	1600.2437	1630.6471	1662.9335	2963.4417	2975.4914	3067.2787	3074.6749	3138.9772	3156.7145	3556.4912	3655.1787	3686.9144
CN(C)C1=NNC(N)=N1	CN(C)c1n[nH]c(N)n1	
InChI=1S/C4H9N5/c1-9(2)4-6-3(5)7-8-4/h1-2H3,(H3,5,6,7,8)	InChI=1S/C4H9N5/c1-9(2)4-6-3(5)7-8-4/h1-2H3,(H3,5,6,7,8)
