22
gdb 114239	4.06364	0.85295	0.78867	2.3254	84.53	-0.2131	0.0846	0.2977	1562.6036	0.192089	-404.309178	-404.299423	-404.298479	-404.344015	36.091	
C	 0.1240929792	 1.5102705008	 0.1103006776	-0.379063
C	-0.0904186044	 0.0049741971	-0.0288709698	-0.12047
N	 0.6231074582	-0.535889587	-1.1686883345	-0.075523
C	 2.1023189673	-0.62211641	-1.0977637318	-0.257418
C	 2.0036397081	-2.0324634968	-1.6826709241	 0.416175
C	 0.4942188255	-1.9852955814	-1.4442063358	-0.255698
O	 2.5851776517	-2.4053910639	-2.9184622013	-0.289495
C	 2.9556617766	-3.1386936344	-1.7336872024	-0.021639
C	 4.3837920041	-3.0082716788	-1.2713171353	-0.41835
H	 1.1816685357	 1.7453308617	 0.2717109891	 0.118281
H	-0.2021269925	 2.0295451953	-0.7952990434	 0.126617
H	-0.4373876456	 1.9039005106	 0.9630326055	 0.112127
H	 0.2044477309	-0.5011298457	 0.9141039725	 0.067793
H	-1.157275704	-0.204233793	-0.1749713245	 0.102503
H	 2.6373083819	 0.1201297732	-1.6987148425	 0.115511
H	 2.501317865	-0.6116506829	-0.0692052645	 0.086983
H	 0.1798550312	-2.5803461342	-0.5709899769	 0.087297
H	-0.1435451884	-2.2344232715	-2.2991534021	 0.11494
H	 2.5480083336	-4.151740206	-1.7081664768	 0.08803
H	 4.710144178	-1.9654156369	-1.2999003188	 0.128508
H	 4.4897265415	-3.3802856618	-0.2462629003	 0.121697
H	 5.0517124067	-3.5938626444	-1.91139745	 0.131191
59.5845	92.6735	158.9676	182.997	194.6674	222.5404	261.6083	318.5898	360.0916	403.8116	456.544	495.9448	553.3934	722.8548	772.1537	809.9556	893.0543	922.7197	931.3548	966.2556	981.5649	1031.4983	1041.2743	1092.6072	1110.6701	1119.7088	1131.284	1150.0453	1171.0741	1198.4195	1203.8061	1230.2291	1275.1424	1309.8789	1322.5297	1366.4683	1393.7249	1410.1801	1413.5268	1477.006	1486.0604	1488.5002	1491.1219	1491.6248	1504.6694	1517.1646	1541.4873	2883.2349	2957.7441	2969.6009	3036.4162	3037.1687	3042.9584	3061.5849	3066.537	3082.9172	3100.5814	3104.4278	3118.6082	3124.5974
CCN1CC2(C1)OC2C	CCN1CC2(C1)O[C@H]2C	
InChI=1S/C7H13NO/c1-3-8-4-7(5-8)6(2)9-7/h6H,3-5H2,1-2H3	InChI=1S/C7H13NO/c1-3-8-4-7(5-8)6(2)9-7/h6H,3-5H2,1-2H3/t6-/m0/s1
