16
gdb 55615	2.48932	1.04613	0.84439	4.9801	75.52	-0.2657	-0.0324	0.2333	1381.4167	0.120383	-400.745241	-400.735266	-400.734322	-400.781304	34.45	
C	 0.008145865	 1.4882158494	-0.1586015103	-0.481025
C	 0.079118412	 0.0030239405	 0.1205956954	 0.394066
O	 1.0951533485	-0.5495218033	 0.4715396512	-0.28714
C	-1.2261924182	-0.7764682911	-0.0449653133	-0.317935
C	-0.9852238477	-2.3050684174	-0.1139894223	-0.318946
C	-2.2090177149	-3.0648613452	 0.1376113472	 0.298151
C	-3.2244264863	-3.6634512023	 0.3632748392	-0.392713
C	-0.395474362	-2.67108664	-1.4131271099	 0.293485
N	 0.0610423191	-2.93534059	-2.4403396547	-0.322434
H	 0.9307653193	 1.9725547527	 0.1621970513	 0.152862
H	-0.1288324952	 1.6473381604	-1.2348980058	 0.157021
H	-0.8532552543	 1.9425238045	 0.3426036713	 0.140411
H	-1.855155108	-0.5609560284	 0.8275121387	 0.151267
H	-1.782680368	-0.4277372434	-0.9198176475	 0.145493
H	-0.2332397711	-2.5403663334	 0.6500543188	 0.178762
H	-4.1154238381	-4.2079772329	 0.5586307805	 0.208675
45.0283	61.57	120.2408	122.3831	130.6458	216.8873	255.2293	347.845	360.4476	460.1658	487.0642	565.3846	578.8929	604.2148	646.3385	671.0855	798.3993	822.626	895.6121	965.785	1009.6472	1064.1065	1086.2335	1174.2228	1207.1137	1259.0322	1338.2869	1358.0948	1386.9867	1450.5095	1461.9989	1474.8421	1814.5957	2249.7904	2367.1904	3036.355	3040.8387	3048.2649	3096.6607	3101.6852	3156.9777	3502.5478
CC(=O)CC(C#C)C#N	CC(=O)C[C@@H](C#C)C#N	
InChI=1S/C7H7NO/c1-3-7(5-8)4-6(2)9/h1,7H,4H2,2H3	InChI=1S/C7H7NO/c1-3-7(5-8)4-6(2)9/h1,7H,4H2,2H3/t7-/m1/s1
