19
gdb 52777	2.50759	1.19907	0.93545	1.5997	84.91	-0.2266	0.0407	0.2673	1329.4764	0.157503	-385.830973	-385.821545	-385.820601	-385.866593	34.562	
C	-0.000681769	 1.4941535144	-0.0124491352	-0.502274
C	-0.0432404907	 0.0391157265	-0.010835286	 0.033087
C	-0.083836382	-1.1659880003	-0.0231939986	 0.066689
C	-0.0843895312	-2.607707316	-0.0325273526	 0.229125
O	 0.8693063109	-3.1973072404	-0.8858161354	-0.465384
C	-0.3816672274	-3.4369702607	 1.207821293	-0.119737
C	-1.4499301562	-2.7693056073	 2.0776763285	-0.245036
C	-2.4254964882	-2.7780393633	 0.8508791715	-0.243166
C	-1.3359188903	-3.4466826121	 0.0092874152	-0.088364
H	 0.6607697651	 1.8806905193	 0.7710189754	 0.146595
H	 0.3616652316	 1.8770273743	-0.9729704185	 0.151369
H	-0.9968285654	 1.9182492373	 0.1557222513	 0.150731
H	 1.7385050223	-2.9063840563	-0.5883482402	 0.282876
H	 0.3392742774	-4.1856697149	 1.514646201	 0.086857
H	-1.7985466633	-3.413589073	 2.887591319	 0.103384
H	-1.1877622019	-1.7904739308	 2.4892754988	 0.104694
H	-3.2866814419	-3.4292063744	 1.0131934119	 0.104455
H	-2.7761238209	-1.8057094951	 0.4940167499	 0.106915
H	-1.4717659791	-4.2014926572	-0.7557257388	 0.097183
17.3179	84.2531	109.561	223.1371	237.541	278.3834	313.1451	349.679	350.799	439.6576	538.2276	560.1561	605.3988	730.1	777.9291	833.585	875.4941	908.6875	945.3627	973.8166	1004.6255	1017.094	1051.3788	1054.3336	1060.1037	1091.3967	1116.4586	1158.7923	1223.2614	1237.5861	1247.3001	1281.7575	1297.9177	1318.5705	1412.1812	1421.2413	1474.0915	1476.2131	1479.256	1496.0761	2356.8688	3025.363	3055.5888	3062.6617	3084.709	3087.9651	3103.1587	3121.2642	3177.0051	3190.4453	3798.9102
CC#CC1(O)C2CCC12	CC#C[C@@]1(O)[C@H]2CC[C@@H]12	
InChI=1S/C8H10O/c1-2-5-8(9)6-3-4-7(6)8/h6-7,9H,3-4H2,1H3	InChI=1S/C8H10O/c1-2-5-8(9)6-3-4-7(6)8/h6-7,9H,3-4H2,1H3/t6-,7+,8+
