21
gdb 99173	5.22752	0.70985	0.6943	3.5379	82.38	-0.233	0.067	0.3001	1725.5982	0.182815	-420.437442	-420.427314	-420.42637	-420.473975	35.898	
C	-0.1798386934	 1.6239757109	 0.2328636726	-0.321417
N	-0.0981549354	 0.1974521433	-0.0228542203	-0.364921
C	-1.250006618	-0.5676928406	-0.0130725043	 0.495554
O	-2.3689941685	-0.0835097131	 0.0197403008	-0.408181
N	-1.0137638368	-1.9293373392	-0.0529387152	-0.385215
C	-2.0839735272	-2.8778172695	-0.2181436703	 0.096569
C	-2.2134378095	-3.695658185	-1.5358323405	-0.237341
C	-2.6700302593	-4.9041754271	-0.6737717269	-0.21045
C	-2.0231618263	-4.2183802128	 0.5608235281	-0.240429
H	 0.6227317226	 2.1449695181	-0.2973586014	 0.117468
H	-1.1435451882	 1.9732779829	-0.1377012497	 0.166992
H	-0.1151131616	 1.8711213464	 1.3013655018	 0.117295
H	 0.7580382551	-0.2592587042	 0.2495947822	 0.231677
H	-0.0889701732	-2.2392240146	-0.3098033091	 0.225978
H	-3.0064239698	-2.3354005484	-0.0076698473	 0.124445
H	-2.8855012008	-3.3158859405	-2.3087055072	 0.105573
H	-1.2296763782	-3.8766774467	-1.9839022315	 0.088216
H	-3.7589003843	-4.9502676274	-0.5867493657	 0.108751
H	-2.3015095328	-5.8928717759	-0.9533178165	 0.097971
H	-0.9862941181	-4.545188192	 0.6976578721	 0.089285
H	-2.536065466	-4.2739128647	 1.5239152783	 0.102178
36.6271	61.7772	80.8053	108.6262	149.6472	204.6636	303.6106	332.6638	346.535	408.9404	468.8386	487.3898	663.2211	734.6447	763.0376	784.9127	790.2768	905.9158	924.2709	944.0206	963.0486	985.3428	1037.8876	1101.4626	1140.3631	1151.3633	1172.2694	1194.8439	1211.6375	1227.7133	1248.4337	1253.6806	1258.502	1279.59	1296.4715	1372.305	1440.1045	1475.5294	1486.4426	1489.2866	1499.4083	1509.3651	1524.6701	1559.353	1782.6516	3010.4477	3039.8833	3045.3077	3065.6467	3083.222	3098.8522	3105.3167	3118.5099	3129.3552	3157.519	3609.4697	3620.8047
CNC(=O)NC1CCC1	CNC(=O)NC1CCC1	
InChI=1S/C6H12N2O/c1-7-6(9)8-5-3-2-4-5/h5H,2-4H2,1H3,(H2,7,8,9)	InChI=1S/C6H12N2O/c1-7-6(9)8-5-3-2-4-5/h5H,2-4H2,1H3,(H2,7,8,9)
