17
gdb 22656	4.90052	0.87907	0.79375	1.9704	72.97	-0.232	-0.0338	0.1981	1386.7586	0.135528	-455.109436	-455.100739	-455.099795	-455.143532	31.547	
O	-0.1658627726	 1.3074560358	 0.0740362207	-0.393555
N	 0.0067098384	-0.0850814307	-0.0383419825	-0.214583
C	-1.117073258	-0.6776617557	-0.033974605	 0.387282
C	-2.5040855845	-0.066382351	 0.0190508862	-0.249832
N	-3.4482650103	-1.1781177106	-0.1420179878	-0.314325
C	-2.712882646	-2.3421787227	-0.6214079306	-0.053354
C	-1.2352920074	-2.1787422876	-0.1395615914	-0.330835
C	-3.3031780613	-3.6330167054	-0.1044323932	 0.148931
O	-4.1162506324	-3.6875283173	 0.7837732548	-0.248236
H	 0.7407607011	 1.6297704843	 0.0338627265	 0.308671
H	-2.6705537172	 0.4810245283	 0.9528994215	 0.13322
H	-2.6031014076	 0.6694009754	-0.790230591	 0.135015
H	-3.9011433161	-1.4254080265	 0.7313440471	 0.236998
H	-2.7209893824	-2.3845075946	-1.7215184318	 0.099727
H	-0.49172676	-2.6183720622	-0.806453556	 0.132431
H	-1.111267987	-2.6324356963	 0.8525291152	 0.131324
H	-2.9083209567	-4.5544744233	-0.5844570125	 0.091122
51.4683	102.6736	126.876	191.4004	278.8682	282.7194	330.6084	379.5447	484.0204	510.384	613.5664	669.7263	711.7892	748.5582	828.3933	860.8686	897.1594	960.6139	977.4055	1021.9035	1035.6904	1084.1843	1136.6641	1194.9591	1222.999	1226.2671	1260.895	1316.3448	1330.7899	1337.205	1403.1081	1422.7867	1466.9149	1476.499	1486.4212	1760.1473	1822.8073	2901.1205	2987.9288	3019.4456	3025.8726	3068.3491	3117.9466	3535.401	3820.4257
ON=C1CNC(C1)C=O	ON=C1CN[C@@H](C1)C=O	
InChI=1S/C5H8N2O2/c8-3-5-1-4(7-9)2-6-5/h3,5-6,9H,1-2H2	InChI=1S/C5H8N2O2/c8-3-5-1-4(7-9)2-6-5/h3,5-6,9H,1-2H2/t5-/m0/s1
