19
gdb 26327	3.86029	0.9836	0.809	2.723	79.36	-0.1848	0.0503	0.2351	1409.6378	0.15985	-419.238044	-419.228565	-419.227621	-419.272431	35.557	
C	 0.1302275031	 1.3657344938	-0.4913752882	-0.391669
C	 0.0115845041	 0.0029826561	 0.1992984341	 0.023598
O	 0.4375667948	 0.0811314535	 1.5605984542	-0.42565
C	-1.3712212084	-0.5879029531	 0.0998261805	 0.260485
C	-1.9897214441	-1.3144976804	 1.0916688123	-0.19652
N	-3.2276302581	-1.699143546	 0.6262718447	-0.276197
C	-3.409465007	-1.2369482227	-0.6518978103	 0.306519
N	-4.6413076988	-1.4664289694	-1.300188342	-0.60833
C	-2.2740591258	-0.5448368216	-1.0106133892	-0.34486
H	 1.1408630722	 1.7609398848	-0.3576864291	 0.116337
H	-0.0731454521	 1.288454505	-1.5641394207	 0.113071
H	-0.5850902744	 2.0783232274	-0.0652815675	 0.107918
H	 0.7404851816	-0.6777007786	-0.2614627475	 0.095188
H	-0.2340250491	 0.5908646174	 2.02902279	 0.270152
H	-1.6374176038	-1.6040452557	 2.06712816	 0.123103
H	-3.9469948046	-2.1524307345	 1.1624715758	 0.256845
H	-4.7545205502	-0.8303836922	-2.0799123585	 0.246408
H	-4.7143782207	-2.4123269592	-1.6650463206	 0.243044
H	-2.1041962885	-0.0768755148	-1.968456778	 0.080557
50.0032	127.8541	145.5916	173.8476	242.8741	280.7073	325.0098	355.7252	370.8113	457.7249	482.9832	499.3288	610.2752	651.7261	691.3846	717.5414	731.7307	783.3805	831.207	891.5385	972.4585	1003.276	1033.1464	1084.6747	1101.5965	1123.8212	1155.4046	1191.3407	1259.7238	1276.8941	1324.6441	1355.0776	1399.0464	1414.1898	1426.7878	1475.1108	1491.5427	1492.0824	1549.8684	1624.4952	1656.8024	3011.5309	3031.9523	3102.0785	3118.4429	3242.7454	3278.5647	3487.2082	3595.056	3679.1922	3786.2437
CC(O)C1=CNC(N)=C1	C[C@@H](O)c1c[nH]c(N)c1	
InChI=1S/C6H10N2O/c1-4(9)5-2-6(7)8-3-5/h2-4,8-9H,7H2,1H3	InChI=1S/C6H10N2O/c1-4(9)5-2-6(7)8-3-5/h2-4,8-9H,7H2,1H3/t4-/m1/s1
