21
gdb 103515	2.77677	1.37645	1.31463	0.9235	83.8	-0.2304	0.0127	0.2432	1120.251	0.181845	-387.075546	-387.066664	-387.06572	-387.108944	34.518	
C	 0.1055663482	 1.3918975558	 0.0265800315	-0.242842
O	-0.002705495	-0.0129098138	 0.0466013887	-0.278699
C	-1.3266799569	-0.5670478598	 0.0218317762	 0.367279
C	-2.1269896344	-0.1459281564	 1.2625977891	-0.44858
C	-2.0759697537	-0.2581246837	-1.2748090955	-0.144229
C	-2.4055109686	-1.3631736398	-1.9444677793	-0.082893
C	-1.8964051921	-2.5921865302	-1.2689835472	-0.08515
C	-0.3841385512	-2.6817655271	-1.1701314435	-0.284804
C	-1.1755994707	-2.0927261659	-0.0349248663	-0.069368
H	 1.1750393075	 1.619167714	 0.0164960616	 0.124932
H	-0.3486169163	 1.8388706075	-0.8695217509	 0.102562
H	-0.3372557969	 1.8684624767	 0.9127559455	 0.103624
H	-2.3865418387	 0.9165684947	 1.2452463512	 0.112394
H	-3.061136901	-0.7125116458	 1.3111614092	 0.123381
H	-1.5462779233	-0.3477652904	 2.1691297315	 0.119393
H	-2.2912650979	 0.7550588902	-1.5928439495	 0.092699
H	-2.9421338921	-1.3892904589	-2.8870166041	 0.095802
H	-2.4830863156	-3.5038111792	-1.2690210368	 0.085284
H	 0.0502354371	-3.6624371803	-1.0047918262	 0.106193
H	 0.2078616673	-2.0136777376	-1.7844521048	 0.122736
H	-1.2199492756	-2.63718567	 0.9009989697	 0.080285
59.0307	132.8801	192.0063	208.6564	251.1718	315.134	353.162	368.0629	404.0074	475.059	580.3697	616.9887	714.3066	753.8726	794.1093	814.4972	846.8005	893.4355	927.5688	949.3319	973.5703	995.6348	1026.1204	1055.7763	1080.2265	1098.4911	1104.0298	1110.7236	1131.6841	1176.7093	1180.5869	1204.5274	1216.8775	1253.8619	1315.9919	1367.3974	1387.3601	1397.1825	1473.5649	1477.6702	1485.5273	1488.3055	1504.2702	1510.1124	1671.1823	2988.0258	3032.9061	3038.7408	3103.8642	3108.9261	3115.0781	3131.8018	3168.7857	3177.0485	3182.7191	3209.0916	3226.0314
COC1(C)C=CC2CC12	CO[C@@]1(C)C=C[C@H]2C[C@@H]12	
InChI=1S/C8H12O/c1-8(9-2)4-3-6-5-7(6)8/h3-4,6-7H,5H2,1-2H3	InChI=1S/C8H12O/c1-8(9-2)4-3-6-5-7(6)8/h3-4,6-7H,5H2,1-2H3/t6-,7+,8-/m0/s1
