14
gdb 131554	3.18811	1.59799	1.15062	2.753	63.11	-0.2373	-0.0047	0.2326	993.3211	0.102574	-473.796832	-473.789911	-473.788967	-473.828439	26.242	
O	 0.0792343909	 1.4776784881	 0.1653685593	-0.418733
C	 0.0566089047	 0.0732085083	-0.0360462809	-0.052432
C	 0.6424883789	-0.7399897184	 1.1849201798	-0.120704
O	-0.4593680662	-1.4586149329	 1.8511289896	-0.269399
C	-1.4677153088	-1.320748464	 0.9997342033	 0.520652
C	-1.3065743212	-0.5430904707	-0.1018416508	 0.03023
C	-2.5741700674	-0.6502898509	-0.72197394	-0.118715
N	-3.4002654297	-1.4236481471	-0.0484202265	-0.152357
O	-2.6553239336	-1.8718501124	 1.1056740482	-0.235733
H	-0.6495969156	 1.7010562154	 0.7557214178	 0.282441
H	 0.683544446	-0.0886416919	-0.9171366394	 0.110886
H	 1.3606153489	-1.4982018905	 0.8643707026	 0.137973
H	 1.0988006982	-0.0749609404	 1.9191452416	 0.142135
H	-2.943643085	-0.2042791726	-1.6355157846	 0.143756
99.6137	154.8961	283.537	324.76	347.659	440.7713	503.6626	618.7162	642.6218	720.9502	744.3747	775.6388	803.4806	881.9212	918.5205	951.8744	964.9538	994.8231	1077.8416	1167.8148	1195.5274	1222.0022	1246.0105	1290.0548	1340.8564	1410.4556	1419.8252	1436.9511	1489.4136	1565.3666	1655.0667	3071.008	3082.2983	3147.9256	3236.9105	3796.5965
OC1COC2=C1C=NO2	O[C@H]1COc2c1cno2	
InChI=1S/C5H5NO3/c7-4-2-8-5-3(4)1-6-9-5/h1,4,7H,2H2	InChI=1S/C5H5NO3/c7-4-2-8-5-3(4)1-6-9-5/h1,4,7H,2H2/t4-/m0/s1
