19
gdb 85357	2.9411	1.31843	1.07056	3.3711	78.49	-0.2427	-0.0578	0.1849	1166.2788	0.159279	-423.065221	-423.056555	-423.055611	-423.098374	33.234	
C	-0.1229930094	 1.552796922	 0.0183681122	-0.404708
C	 0.0572813643	 0.0288816661	 0.0082663768	-0.05029
C	 0.7897247023	-0.4469313025	-1.2229186692	-0.042239
C	 1.5870893648	-1.5244704553	-1.2530717848	-0.178219
C	 1.8031029823	-2.3803921016	-0.0652404748	 0.366275
O	 2.5421276943	-3.343603811	-0.0954011965	-0.328798
C	 1.018038508	-1.9948858282	 1.185863176	-0.339025
C	 0.7623872688	-0.4851615901	 1.2848751063	 0.094045
O	 1.9605780256	 0.229729318	 1.5590306683	-0.43315
H	 0.8436910908	 2.0576389297	 0.0853965499	 0.133019
H	-0.6343051444	 1.8934512849	-0.887421144	 0.113134
H	-0.719614316	 1.8638889246	 0.8812733934	 0.12081
H	-0.9446420024	-0.4295200254	-0.0114097183	 0.099105
H	 0.6480787248	 0.1377544172	-2.1306494589	 0.108968
H	 2.106677915	-1.8295556173	-2.156290394	 0.109693
H	 0.0555377242	-2.5243143266	 1.1389160345	 0.123848
H	 1.5532788304	-2.3637229455	 2.0638142869	 0.130625
H	 0.1204905601	-0.2797088743	 2.1480059518	 0.091821
H	 2.5762742865	 0.0757922052	 0.8330407444	 0.285087
74.8242	133.6311	209.2454	236.7096	267.6078	332.9995	344.4864	379.3836	405.7169	465.8065	568.4555	602.7255	629.3397	735.6866	745.2854	813.9959	890.9465	896.0686	937.1968	1001.544	1023.5098	1031.5724	1071.6258	1092.8271	1117.3116	1180.4562	1199.3927	1227.5116	1275.0324	1291.1505	1320.2424	1345.797	1366.7736	1400.8849	1412.5136	1433.2147	1447.5161	1492.1811	1501.7041	1671.4259	1779.2785	2977.3162	3020.2068	3041.7062	3057.2644	3108.5235	3110.4252	3127.0104	3140.1304	3186.1668	3792.8962
CC1C=CC(=O)CC1O	C[C@H]1C=CC(=O)C[C@H]1O	
InChI=1S/C7H10O2/c1-5-2-3-6(8)4-7(5)9/h2-3,5,7,9H,4H2,1H3	InChI=1S/C7H10O2/c1-5-2-3-6(8)4-7(5)9/h2-3,5,7,9H,4H2,1H3/t5-,7+/m0/s1
