17
gdb 34972	4.234	1.34255	1.28593	1.0801	76.83	-0.2417	0.0432	0.285	1005.7844	0.13729	-384.610453	-384.603707	-384.602762	-384.641452	27.98	
C	-0.1700957679	-1.3081687309	-0.1422374843	-0.440138
C	-0.0904584392	-0.1106833475	-0.0570258659	 0.301192
C	 0.0087728991	 1.3321961246	 0.0373554595	-0.181597
C	-0.1221533913	 2.0573969483	 1.4207097376	-0.106948
C	 0.9771959896	 1.3706486558	 2.2527221654	-0.216646
C	 2.1146599057	 1.9120343762	 1.3663714975	 0.070455
O	 1.9814502606	 3.3513167208	 1.5935054532	-0.292337
C	 0.7989841169	 3.2221304926	 0.8050247477	 0.092318
C	 1.3735283966	 2.0570162762	-0.024188752	-0.087633
H	-0.2412974476	-2.3648508966	-0.2191281046	 0.1942
H	-0.6601613544	 1.8008394671	-0.693763842	 0.104551
H	-1.0975950474	 2.2377196762	 1.866823622	 0.076342
H	 1.0738087903	 1.7551967181	 3.269409606	 0.109041
H	 0.8789764133	 0.2837298497	 2.2660978201	 0.117287
H	 3.1319779273	 1.5410311466	 1.4739445071	 0.085608
H	 0.3610978626	 4.1485871185	 0.4376980334	 0.089004
H	 1.9675034459	 2.1732923542	-0.9280214408	 0.085302
125.6804	152.8054	351.8403	401.6421	496.1599	518.0105	567.5746	621.798	633.4441	716.727	728.9303	762.0467	821.3866	843.2624	853.9287	913.539	931.0574	957.5607	970.963	988.5817	1011.6797	1040.8889	1070.1951	1074.2185	1127.384	1151.2793	1165.0828	1187.3945	1219.5698	1238.8392	1257.8657	1306.0128	1309.8418	1327.5111	1366.5759	1483.4554	2230.0801	3042.3618	3081.5192	3134.4939	3138.4563	3140.7571	3145.2413	3152.6626	3502.8581
C#CC1C2CC3OC2C13	C#C[C@H]1[C@H]2C[C@@H]3O[C@H]2[C@H]13	
InChI=1S/C8H8O/c1-2-4-5-3-6-7(4)8(5)9-6/h1,4-8H,3H2	InChI=1S/C8H8O/c1-2-4-5-3-6-7(4)8(5)9-6/h1,4-8H,3H2/t4-,5+,6-,7+,8+/m0/s1
