20
gdb 74214	2.25777	1.53838	1.01532	3.1468	83.42	-0.2336	-0.0448	0.1888	1208.7944	0.17213	-403.173415	-403.164682	-403.163738	-403.206889	33.288	
C	-0.1424981264	 1.504932799	 0.0641608494	-0.443262
C	-0.0211808824	 0.0145618664	-0.042748261	 0.277419
C	-0.0239553274	-0.6514590329	-1.2110699629	-0.2184
C	-0.0966229714	-2.1221409177	-1.3723006345	 0.36362
O	 0.168196686	-2.6372387361	-2.4426361237	-0.332211
C	-0.6205235418	-2.993567273	-0.2176912436	-0.318586
C	-1.676449314	-2.3250034009	 0.6822162013	-0.211518
C	-1.0626521204	-1.3440809844	 1.7056700689	-0.178962
N	 0.1442594464	-0.6544935876	 1.2144020161	-0.350539
H	 0.7633134135	 1.9297566246	 0.5111284016	 0.141024
H	-0.3237504014	 1.9746496734	-0.9048003471	 0.126881
H	-0.9668083523	 1.7632348955	 0.7406188161	 0.135064
H	-0.0082634731	-0.105484185	-2.1502943806	 0.099808
H	-1.0251968665	-3.8894772271	-0.6958909554	 0.126867
H	 0.2342637733	-3.3382150358	 0.3824167749	 0.111744
H	-2.3992225292	-1.8021047091	 0.0469575011	 0.111015
H	-2.2406461403	-3.0953445316	 1.2193436541	 0.104921
H	-1.8020665364	-0.5958607356	 2.0108724387	 0.112918
H	-0.7630405915	-1.8809549165	 2.6120720683	 0.10967
H	 0.8729095354	-1.3518951056	 1.1113796984	 0.232526
67.6654	127.0003	179.973	208.2736	252.796	302.6921	358.5831	375.2049	462.1259	507.1008	570.1791	614.2096	657.8029	751.5752	795.8035	819.3758	870.2911	898.8237	920.7737	945.508	1020.9312	1028.646	1053.6668	1092.6443	1107.5351	1148.3357	1215.2014	1219.2473	1264.9618	1283.8399	1336.5296	1345.5551	1369.8913	1384.3179	1407.7951	1459.2982	1468.5053	1474.6662	1478.4844	1482.6267	1495.8306	1685.7181	1754.9073	3010.3791	3028.3373	3036.9446	3045.2126	3071.067	3080.3297	3091.104	3096.9468	3130.4743	3171.759	3528.9149
CC1=CC(=O)CCCN1	CC1=CC(=O)CCCN1	
InChI=1S/C7H11NO/c1-6-5-7(9)3-2-4-8-6/h5,8H,2-4H2,1H3	InChI=1S/C7H11NO/c1-6-5-7(9)3-2-4-8-6/h5,8H,2-4H2,1H3
