12
gdb 21086	3.82751	2.04651	1.34486	3.4023	63.09	-0.284	-0.0597	0.2243	832.6318	0.086123	-373.737491	-373.730662	-373.729718	-373.769051	23.442	
C	 0.0366426612	 1.4217580007	-0.0182558247	-0.337666
N	 0.0394162166	-0.0294135705	 0.0157450511	-0.01645
N	 0.1637087653	-0.750302276	-1.1104692418	-0.225526
C	 0.1218091924	-2.0032371401	-0.6688976873	 0.023581
N	-0.0215002836	-2.1361068998	 0.6695372134	-0.305785
C	-0.0707206418	-0.8734878654	 1.0750934718	 0.289046
C	-0.2165199847	-0.4169739837	 2.4122612413	 0.253008
N	-0.3337482629	-0.0005457234	 3.4853726155	-0.335749
H	 0.9766643766	 1.7805372024	-0.4423599723	 0.16814
H	-0.794426147	 1.7726476488	-0.6334177849	 0.168149
H	-0.0748694241	 1.7952325861	 1.0000639702	 0.174853
H	 0.1978292019	-2.8441551091	-1.3411931123	 0.144399
79.7222	155.1427	167.3581	229.8648	358.6367	505.6063	557.8092	604.1223	681.1646	735.2647	742.9299	912.5178	990.7242	1048.4505	1153.4563	1180.1369	1223.3315	1306.6646	1323.4021	1404.0544	1448.8993	1476.4669	1479.2795	1509.4683	1534.2297	2357.1101	3064.4197	3140.3039	3164.2383	3268.7858
CN1N=CN=C1C#N	Cn1ncnc1C#N	
InChI=1S/C4H4N4/c1-8-4(2-5)6-3-7-8/h3H,1H3	InChI=1S/C4H4N4/c1-8-4(2-5)6-3-7-8/h3H,1H3
