17
gdb 19768	3.13706	2.81553	2.38377	0.8124	65.94	-0.2219	0.0865	0.3084	690.7541	0.146413	-363.85004	-363.844353	-363.843408	-363.879538	23.649	
C	 0.0243498221	 1.5335408639	 0.1093960295	-0.237548
C	 1.5103634807	 1.8289206258	-0.0071925079	-0.042116
C	 2.3988344549	 0.8417179712	 0.6591095883	-0.035071
C	 1.8082234158	-0.2221199412	 1.5662605748	-0.099488
O	 0.4648771889	-0.5628308298	 1.2353577933	-0.277118
C	 0.036667899	-0.0007968862	-0.0039400473	 0.086149
C	 1.1030517448	-0.2364466828	-1.085016045	-0.176891
N	 2.1704874611	 0.7493818659	-0.796307617	-0.126772
H	-0.4201646873	 1.8582643203	 1.0535983695	 0.111623
H	-0.529620265	 1.9962581692	-0.715420751	 0.103448
H	 1.8521418862	 2.8409126323	-0.1995794709	 0.088989
H	 3.4111814717	 1.13785378	 0.9265291262	 0.092041
H	 2.4346355892	-1.1268977716	 1.5179107241	 0.103321
H	 1.82907157	 0.1253118275	 2.6082974393	 0.108108
H	-0.9366387217	-0.4455287825	-0.2178569604	 0.08159
H	 1.4973922172	-1.2563784529	-1.0595772745	 0.113048
H	 0.7125430323	-0.040357539	-2.0892145709	 0.106688
161.9414	371.7306	400.3786	447.9485	482.6596	664.4462	687.3739	753.0626	778.7609	838.2615	878.4263	887.3804	904.9084	928.5207	949.9379	1017.3929	1035.8131	1055.8078	1086.0782	1105.036	1123.7023	1150.7502	1182.9179	1232.0719	1239.8906	1258.4276	1267.0439	1315.4197	1326.0657	1346.8304	1366.2401	1403.7543	1441.4527	1478.7788	1497.2586	1524.2106	2976.4806	3019.106	3042.2478	3048.7053	3098.763	3102.8977	3103.635	3125.7312	3159.6629
C1C2C3COC1CN23	C1[C@H]2[C@H]3CO[C@@H]1CN23	
InChI=1S/C6H9NO/c1-4-2-7-5(1)6(7)3-8-4/h4-6H,1-3H2	InChI=1S/C6H9NO/c1-4-2-7-5(1)6(7)3-8-4/h4-6H,1-3H2/t4-,5-,6+,7?/m0/s1
