12
gdb 9164	7.56677	0.78577	0.73507	3.233	64.8	-0.2849	-0.0818	0.2031	1445.0813	0.080938	-418.472083	-418.463423	-418.462479	-418.506794	27.349	
C	 0.080520385	 1.3731070181	 0.1243463287	-0.24569
O	 0.2076479473	-0.0577935988	 0.0556330669	-0.215217
C	 0.4557732079	-0.5461226569	-1.16624821	 0.275514
O	 0.5711487124	 0.1060802121	-2.1726418154	-0.343846
C	 0.5702151064	-1.9898658606	-1.1321733965	-0.01989
C	 0.6884369403	-3.1907111424	-1.1858085362	 0.18155
C	 0.79143946	-4.6305122235	-1.249516117	 0.016298
O	 1.8153191824	-5.2419279353	-1.0615670249	-0.212352
H	 1.0037840819	 1.8539214854	-0.2069277039	 0.152013
H	-0.7443878362	 1.7135207093	-0.505824303	 0.150653
H	-0.1164523978	 1.596908374	 1.1718370478	 0.145385
H	-0.1636624395	-5.1385187412	-1.4888942764	 0.115581
49.8376	80.5577	98.1201	127.025	168.3563	258.0875	304.7107	322.071	420.5755	587.4158	688.5318	770.685	843.5242	971.6557	1016.7761	1091.6988	1176.1122	1213.4797	1278.9703	1417.8648	1472.6947	1482.0744	1494.1974	1773.9849	1797.9557	2319.8021	2934.716	3058.0975	3136.1737	3171.7996
COC(=O)C#CC=O	COC(=O)C#CC=O	
InChI=1S/C5H4O3/c1-8-5(7)3-2-4-6/h4H,1H3	InChI=1S/C5H4O3/c1-8-5(7)3-2-4-6/h4H,1H3
