18
gdb 29897	4.08927	1.03331	0.83353	4.3449	82.98	-0.218	-0.0174	0.2007	1372.6215	0.147379	-402.013431	-402.004297	-402.003353	-402.048191	32.58	
C	 0.0045096198	 1.4530154964	 0.0131501647	-0.337768
N	-0.0059323464	 0.0030388126	-0.0058349093	 0.013337
C	 0.0746520418	-0.7758898016	-1.1433246039	-0.07588
C	 0.096710398	-2.092265151	-0.7622615794	-0.302216
C	 0.0283064139	-2.1238216157	 0.6663180326	 0.164665
C	-0.0309892465	-0.8040149804	 1.0874284121	-0.153417
C	 0.0114997435	-3.2738591846	 1.5811795602	 0.300711
C	 0.0818451599	-4.6602751435	 0.958956515	-0.49096
O	-0.0550351736	-3.1289988499	 2.7894112454	-0.333298
H	 1.0084590334	 1.8469965974	-0.1779070203	 0.145781
H	-0.677160573	 1.844165696	-0.7468003812	 0.145131
H	-0.328942924	 1.8019010733	 0.9917880273	 0.149906
H	 0.1071665792	-0.316000798	-2.1184245071	 0.121769
H	 0.1453656723	-2.9399004913	-1.4281480193	 0.103482
H	-0.089280692	-0.4064096055	 2.0874994755	 0.147185
H	-0.7637208724	-4.8222294748	 0.2812890277	 0.133753
H	 0.9961416087	-4.7714026362	 0.3656011855	 0.133619
H	 0.0653550975	-5.4108544332	 1.7497559644	 0.1342
51.9987	74.6992	131.064	156.6144	160.5357	237.644	323.4584	389.8512	506.6476	560.3295	607.016	623.5474	677.4009	699.0981	704.9098	813.6058	835.4054	923.8873	990.9661	1012.9811	1043.4641	1083.266	1098.3117	1118.2734	1150.0805	1237.6536	1259.3309	1368.3297	1381.9062	1409.3478	1426.4027	1454.5678	1467.9438	1476.746	1486.1826	1510.6715	1553.2204	1569.9252	1759.8112	3035.8697	3039.0262	3097.1371	3104.3175	3142.1852	3151.4269	3246.2278	3265.77	3272.9016
CN1C=CC(=C1)C(C)=O	Cn1ccc(c1)C(=O)C	
InChI=1S/C7H9NO/c1-6(9)7-3-4-8(2)5-7/h3-5H,1-2H3	InChI=1S/C7H9NO/c1-6(9)7-3-4-8(2)5-7/h3-5H,1-2H3
