19
gdb 83036	2.18454	1.73822	1.33509	3.905	81.79	-0.2325	-0.0447	0.1877	1051.6341	0.160778	-385.919198	-385.911178	-385.910234	-385.95164	31.178	
C	-0.3406918877	 1.3608770528	 0.3425560713	-0.422429
C	 0.0288454194	-0.0795182262	 0.0616846355	-0.011899
C	 0.5543055409	-0.5829856789	-1.2532548907	-0.075229
C	 0.8872830845	 0.3591379658	-2.3996821769	-0.290714
C	 2.0155126791	 1.3149437702	-2.142793559	-0.039054
C	 2.7941602122	 1.2995163364	-1.0550273594	-0.16343
C	 2.6420041344	 0.3066600806	 0.0304960652	 0.397657
O	 3.4741957981	 0.2083057839	 0.9150781302	-0.352243
C	 1.4615258987	-0.6060495993	-0.0279199045	-0.172443
H	 0.3098697759	 2.0734114553	-0.1669996333	 0.129039
H	-1.3697353071	 1.5570478062	 0.0208395271	 0.117837
H	-0.2854103421	 1.5698692559	 1.4160129595	 0.129353
H	-0.6265981249	-0.7850923178	 0.5664380974	 0.096622
H	 0.1715241677	-1.5465218673	-1.5752785016	 0.092185
H	 1.1436892005	-0.228800588	-3.2924146866	 0.126222
H	-0.0036200832	 0.9343546252	-2.6921801932	 0.12196
H	 2.1995793987	 2.0509226616	-2.9234636117	 0.106268
H	 3.6188098594	 1.9948623533	-0.9336946273	 0.10625
H	 1.6492122155	-1.5503927797	 0.470926988	 0.104049
96.1289	148.7142	186.3512	212.7822	310.0096	386.5535	434.6507	456.0617	510.3607	540.6194	663.4322	719.0288	748.4363	783.7938	829.7778	885.7011	914.9815	941.8956	958.8319	1008.8491	1031.6447	1042.6787	1067.1444	1092.5436	1138.9467	1151.1962	1178.4163	1233.9992	1244.6963	1274.4576	1362.9604	1373.2086	1377.9656	1413.0106	1422.6917	1437.4756	1463.7624	1501.1162	1503.4923	1690.3306	1758.3037	3001.2998	3021.2089	3036.9548	3091.8928	3125.505	3142.1203	3143.9833	3150.2778	3174.9614	3188.3017
CC1C2CC=CC(=O)C12	C[C@H]1[C@H]2CC=CC(=O)[C@@H]12	
InChI=1S/C8H10O/c1-5-6-3-2-4-7(9)8(5)6/h2,4-6,8H,3H2,1H3	InChI=1S/C8H10O/c1-5-6-3-2-4-7(9)8(5)6/h2,4-6,8H,3H2,1H3/t5-,6+,8-/m0/s1
