14
gdb 51450	3.1046	1.18297	0.97692	3.246	64.73	-0.2445	-0.0461	0.1984	1164.2033	0.099842	-473.809264	-473.801373	-473.800429	-473.842792	28.051	
O	-0.1447366698	 0.0464257094	-0.501871281	-0.315763
C	-0.0651460047	 1.2070725562	-0.1656463015	 0.159953
N	 1.0954795934	 1.8430239772	 0.1696971242	-0.278613
C	 2.3645216575	 1.1813714416	 0.1746383529	-0.123329
C	 3.5240743423	 1.8478565035	-0.5825345812	 0.021136
O	 3.7414655888	 3.0956353706	 0.072485674	-0.246242
C	 4.3903210854	 1.9193311761	 0.6194421139	-0.124253
C	 3.2881244223	 1.270994769	 1.453909821	 0.413927
O	 3.1831279334	 0.895317829	 2.5788150584	-0.282921
H	-0.9383884774	 1.8826941477	-0.0941894221	 0.088069
H	 1.0703117297	 2.8179351316	 0.4255186553	 0.26341
H	 2.1983941982	 0.1328613412	-0.0898966686	 0.153469
H	 3.8183882841	 1.7547322435	-1.6203837096	 0.133035
H	 5.4673896469	 1.9405498233	 0.7222659644	 0.138124
48.7873	104.6406	167.9683	197.3831	239.6289	316.9098	501.138	556.3717	565.0374	650.9971	705.1379	777.396	822.6461	849.6938	882.8925	942.3537	983.4592	1020.9132	1032.4579	1056.4026	1095.55	1183.804	1207.5265	1222.7759	1250.9338	1323.6179	1343.3425	1426.9677	1520.6704	1805.2819	1913.7148	2958.3194	3094.8972	3203.3617	3218.4295	3633.9547
O=CNC1C2OC2C1=O	O=CN[C@H]1[C@H]2O[C@H]2C1=O	
InChI=1S/C5H5NO3/c7-1-6-2-3(8)5-4(2)9-5/h1-2,4-5H,(H,6,7)	InChI=1S/C5H5NO3/c7-1-6-2-3(8)5-4(2)9-5/h1-2,4-5H,(H,6,7)/t2-,4-,5+/m1/s1
