21
gdb 76695	2.81571	1.10877	0.92159	0.8948	84.09	-0.2365	0.0307	0.2672	1352.399	0.179294	-387.029386	-387.018944	-387.018	-387.065185	37.856	
C	 1.2209234315	 1.9536526035	-0.3063316884	-0.403374
C	 0.6290203088	 0.6121869148	 0.0670648071	-0.047681
C	 0.4882365789	-0.5162501743	-0.9486944114	-0.071549
C	 0.9321630351	-0.3781788361	-2.3900951019	-0.400536
C	 1.4874272309	-0.631152337	 0.1676478224	 0.109407
O	 2.8394341231	-0.581399726	-0.2000117346	-0.235064
C	 3.7422655035	-0.6192716649	 0.8908233983	-0.228312
C	 3.739944276	 0.5683559451	 1.7485125283	 0.324398
C	 3.7600597649	 1.5325656338	 2.4658872575	-0.466764
H	 2.1324101514	 1.8413651395	-0.8964993279	 0.128101
H	 0.5090391888	 2.5526917676	-0.8851881925	 0.107873
H	 1.4870723463	 2.5171670894	 0.5927729993	 0.120194
H	-0.1740976704	 0.6720541068	 0.798082039	 0.077934
H	-0.3976864156	-1.1347336449	-0.8254652879	 0.081316
H	 1.8836552126	 0.1482416917	-2.4773000683	 0.132891
H	 1.0638945674	-1.3653614449	-2.8460363595	 0.115534
H	 0.1847495874	 0.1634656566	-2.9799540017	 0.112533
H	 1.2885249457	-1.3393438284	 0.9728099124	 0.079748
H	 3.5480158179	-1.50906075	 1.5116606821	 0.121484
H	 4.7343333644	-0.7464391175	 0.4446793591	 0.139524
H	 3.7781146414	 2.3857855352	 3.0981252487	 0.202344
43.4507	83.0119	142.7797	155.2689	173.753	183.452	229.8182	270.8019	311.3946	343.049	452.2984	519.0613	565.0526	613.2359	640.5292	676.7763	749.1761	774.8105	853.0635	929.9015	953.8756	967.2038	998.6632	1034.2371	1054.3236	1093.4301	1114.2688	1143.9246	1158.0952	1175.1118	1185.4363	1256.2285	1298.5487	1366.2668	1370.5637	1401.2831	1414.0547	1421.6021	1455.3892	1475.9334	1488.0138	1491.8117	1503.1311	1512.0826	2232.9205	2974.8108	3035.4108	3038.7955	3069.31	3087.3772	3090.1436	3098.7071	3116.8388	3128.5625	3134.5412	3146.1314	3503.0573
CC1C(C)C1OCC#C	C[C@H]1[C@@H](C)[C@H]1OCC#C	
InChI=1S/C8H12O/c1-4-5-9-8-6(2)7(8)3/h1,6-8H,5H2,2-3H3	InChI=1S/C8H12O/c1-4-5-9-8-6(2)7(8)3/h1,6-8H,5H2,2-3H3/t6-,7+,8-
