17
gdb 24131	5.12173	0.97584	0.87186	2.5516	75.03	-0.2398	0.0003	0.2401	1310.9157	0.137602	-418.000015	-417.992317	-417.991372	-418.03338	28.234	
C	-0.0575604325	 1.4765840229	-0.3102537395	-0.289319
N	-0.1396882761	 0.0165929219	-0.2271609777	-0.06331
C	-0.2123355854	-0.5433235084	 1.1200861053	-0.211253
C	-1.4150097349	-0.5175602925	 0.2438308963	-0.222168
C	 1.3461942605	 1.9607705786	-0.2345024432	 0.364454
C	 2.2249765938	 2.5009903981	-1.1134181975	-0.189781
N	 3.4277637352	 2.7706527793	-0.4701903184	-0.25662
C	 3.2213859112	 2.3850255771	 0.7450225374	 0.073335
O	 1.9868371359	 1.8845798605	 0.9792921755	-0.175728
H	-0.4719083103	 1.7865847684	-1.2751539033	 0.12543
H	-0.657643584	 1.9679893878	 0.4777271404	 0.099687
H	 0.3403204564	-1.4650269356	 1.2750903974	 0.121088
H	-0.1915605534	 0.1470786355	 1.9609556313	 0.117195
H	-2.2020148098	 0.190167002	 0.5008132776	 0.109935
H	-1.7591136992	-1.4185872758	-0.2550744708	 0.121103
H	 2.0808589847	 2.7149207534	-2.1605924596	 0.126796
H	 3.9000621178	 2.4132922367	 1.5830466888	 0.149156
51.5076	82.5182	120.5018	293.4321	311.9036	358.0734	421.6089	653.2197	669.1832	759.7231	774.3171	835.2106	838.9919	866.1514	910.4854	940.9021	953.4485	1001.4463	1028.0884	1044.0738	1112.8722	1119.0034	1124.5958	1136.9624	1169.6277	1178.444	1233.1628	1251.0172	1288.1057	1314.6374	1360.3478	1382.9097	1475.4713	1494.909	1522.6819	1548.5293	1642.6664	2931.4375	3075.1094	3096.0963	3105.8009	3182.2926	3197.1655	3265.3467	3276.1345
C(N1CC1)C1=CN=CO1	C(N1CC1)c1cnco1	
InChI=1S/C6H8N2O/c1-2-8(1)4-6-3-7-5-9-6/h3,5H,1-2,4H2	InChI=1S/C6H8N2O/c1-2-8(1)4-6-3-7-5-9-6/h3,5H,1-2,4H2
