18
gdb 62996	2.13473	1.70753	1.27571	1.4101	71.29	-0.2422	-0.0369	0.2053	1049.9131	0.144918	-439.038763	-439.029884	-439.02894	-439.072194	33.349	
C	 0.1718351886	 1.6317083642	-0.2434980087	-0.462871
C	 0.1427984424	 0.1202656265	-0.074927537	 0.384147
O	-1.1653001459	-0.3275542579	 0.2258714689	-0.473035
C	 0.6882626601	-0.7694312632	-1.1951628105	-0.044005
C	 2.1433574444	-0.6225782316	-1.3597720101	-0.26357
N	 1.6514903857	-1.5087801483	-0.2829607221	-0.149909
C	 1.217592591	-0.5968199667	 0.8314686201	-0.117247
C	 2.3120233679	 0.1744895842	 1.5224865577	 0.134811
O	 2.1158951399	 1.1595384366	 2.1911152433	-0.255499
H	 1.1473970498	 1.9951679514	-0.5744213461	 0.123092
H	-0.5812087407	 1.9285187616	-0.9798058543	 0.126534
H	-0.0456420505	 2.1255373013	 0.7092049656	 0.134602
H	-1.5096157224	 0.218628044	 0.9411586684	 0.284263
H	 0.0504555418	-1.2953100385	-1.8967934641	 0.11113
H	 2.6173130181	-1.1707536145	-2.1674875232	 0.132435
H	 2.6384344388	 0.31322467	-1.1073451458	 0.117283
H	 0.6916493181	-1.1902471297	 1.5866743057	 0.123874
H	 3.3352140027	-0.2445796894	 1.3855189323	 0.093966
70.6549	144.4021	173.2646	210.9997	254.1515	268.1212	303.8646	382.7913	423.7574	475.2643	512.407	578.7559	656.645	731.4653	783.7309	807.5498	884.3595	960.4242	970.7085	1003.6763	1029.8548	1056.9274	1083.5384	1114.2749	1115.5638	1137.6869	1176.3785	1183.3538	1218.1057	1237.2987	1305.3091	1336.7604	1397.9823	1405.9009	1412.0591	1482.3862	1490.7434	1508.4047	1814.8552	2872.9127	3041.4297	3061.8523	3105.4664	3112.6593	3125.6756	3181.1615	3200.8167	3805.3045
CC1(O)C2CN2C1C=O	C[C@@]1(O)[C@H]2CN2[C@H]1C=O	
InChI=1S/C6H9NO2/c1-6(9)4-2-7(4)5(6)3-8/h3-5,9H,2H2,1H3	InChI=1S/C6H9NO2/c1-6(9)4-2-7(4)5(6)3-8/h3-5,9H,2H2,1H3/t4-,5+,6-,7?/m1/s1
