18
gdb 12078	3.52683	1.75818	1.55915	2.7186	67.33	-0.2484	0.0823	0.3308	902.7842	0.151676	-384.887522	-384.879441	-384.878497	-384.919657	30.4	
C	 0.0876359845	 1.343346855	-0.0618245295	-0.248619
O	-0.022004709	-0.0465361294	 0.1542076863	-0.281836
C	-1.3174499513	-0.5824204298	 0.0512745812	 0.41196
C	-2.2631760813	-0.076859976	 1.1405551488	-0.45769
C	-1.9896472973	-0.600282056	-1.3870597809	-0.328283
C	-1.9828227289	-2.1299162818	-1.2969354941	 0.036926
O	-0.6131882521	-2.5258470772	-1.1883574234	-0.24172
C	-1.2872541867	-2.1203442599	 0.0006138371	-0.020092
H	 1.1552499047	 1.5749918091	-0.0827738663	 0.130438
H	-0.3550452959	 1.6466355651	-1.0220673025	 0.106718
H	-0.3808158089	 1.9354468988	 0.7373283733	 0.105881
H	-2.4960743459	 0.9844213376	 1.0135995913	 0.122118
H	-3.2082862551	-0.6278604888	 1.1174850086	 0.120572
H	-1.8067790936	-0.2154382337	 2.1260413899	 0.12555
H	-2.9822766656	-0.1444790423	-1.4038242124	 0.10275
H	-1.3787172003	-0.2058866871	-2.201317369	 0.114247
H	-2.6822158191	-2.8474572746	-1.7088784155	 0.103594
H	-1.3035899781	-2.8154113889	 0.8331924172	 0.097488
102.4146	152.5226	187.1459	236.4516	256.3881	303.6319	373.6467	417.5975	458.8296	575.8903	635.2491	800.104	827.9842	863.0461	894.5552	910.223	918.2088	970.7769	997.0372	1039.1842	1099.9114	1121.211	1155.604	1174.894	1181.0043	1210.2972	1225.7855	1243.4278	1261.4911	1302.9048	1385.6316	1402.709	1463.1991	1475.8958	1485.1218	1491.213	1504.156	1509.8478	2985.7359	3032.5538	3038.9095	3069.3385	3110.2366	3110.5429	3114.408	3130.9494	3174.8817	3195.4503
COC1(C)CC2OC12	CO[C@@]1(C)C[C@H]2O[C@@H]12	
InChI=1S/C6H10O2/c1-6(7-2)3-4-5(6)8-4/h4-5H,3H2,1-2H3	InChI=1S/C6H10O2/c1-6(7-2)3-4-5(6)8-4/h4-5H,3H2,1-2H3/t4-,5-,6+/m1/s1
