19
gdb 109114	3.1398	1.23254	0.90491	3.1142	77.87	-0.2384	-0.0058	0.2327	1291.0324	0.159179	-419.273609	-419.264297	-419.263353	-419.307961	33.321	
C	-0.0512577562	 1.5551745746	 0.0771892428	-0.369884
C	 0.0217088843	 0.0322294623	-0.0321797128	-0.29605
C	 0.7253611991	-0.440579184	-1.2685130163	 0.38575
N	 1.2277903802	 0.323352825	-2.1656576678	-0.302211
C	 1.8084465735	-0.554030759	-3.1795075643	-0.30112
C	 1.5542095055	-1.986393433	-2.7116636146	 0.386489
O	 1.8477572234	-3.0447990474	-3.2161827824	-0.375873
N	 0.8721547804	-1.8158680554	-1.5095321962	-0.138919
C	 0.4198846794	-2.9237392162	-0.6962545224	-0.356255
H	 0.9495347643	 1.9925172904	 0.0897778074	 0.137264
H	-0.581168683	 1.9814468521	-0.7775001668	 0.13728
H	-0.5726426493	 1.8441393497	 0.993739581	 0.109733
H	 0.5324842788	-0.392959445	 0.8426616978	 0.123529
H	-0.9865502554	-0.4039216234	-0.0176959579	 0.123536
H	 1.3517261015	-0.3832500617	-4.1608405064	 0.147604
H	 2.8829347403	-0.371823649	-3.2937455168	 0.147599
H	 0.7194626588	-3.83622736	-1.2161828462	 0.170371
H	 0.8814495586	-2.9101083031	 0.2964685406	 0.135581
H	-0.6686755943	-2.9199676069	-0.5791820086	 0.135576
73.3951	117.3925	135.2417	184.0365	186.4239	209.3876	267.8573	286.5882	371.4285	523.2833	530.9951	621.7225	629.4525	725.1335	734.0694	809.2394	931.8412	976.2015	990.0975	1039.4491	1092.9219	1108.1402	1110.279	1154.9142	1155.6022	1179.4457	1268.7242	1288.9735	1311.3051	1358.0084	1415.0029	1419.8782	1440.0264	1459.0962	1467.5558	1489.4351	1496.2316	1500.6749	1509.2511	1697.1332	1833.5355	3016.8703	3032.9869	3041.8303	3049.4363	3055.5137	3082.5633	3091.7068	3128.1225	3136.0981	3137.0379
CCC1=NCC(=O)N1C	CCC1=NCC(=O)N1C	
InChI=1S/C6H10N2O/c1-3-5-7-4-6(9)8(5)2/h3-4H2,1-2H3	InChI=1S/C6H10N2O/c1-3-5-7-4-6(9)8(5)2/h3-4H2,1-2H3
