17
gdb 37520	3.77526	1.95713	1.7412	1.2087	76.74	-0.2094	-0.0452	0.1641	817.4197	0.138229	-384.57266	-384.566989	-384.566044	-384.602219	25.23	
C	-0.0713154913	 1.5947196264	 0.1065967787	-0.275585
C	 1.4028611109	 1.97780985	-0.0370925894	-0.109711
C	 2.1137706365	 0.8754678458	 0.2664956866	 0.051907
C	 2.4448966571	-0.20029128	-0.7561870217	-0.127762
C	 2.0422680157	-1.3477234863	 0.1890129917	 0.087735
O	 1.1299655062	-1.9274332782	-0.758082465	-0.283904
C	 0.9131387453	-0.5661685467	-1.2019106048	 0.05541
C	 0.0765662826	 0.0384290279	 0.0034933736	-0.003099
C	 1.255728507	-0.217384467	 0.9636314738	-0.114467
H	-0.5737241213	 1.8670591568	 1.045139174	 0.114263
H	-0.6506002533	 2.0502021659	-0.7048189244	 0.108485
H	 1.722472463	 2.7342160495	-0.7477804251	 0.100666
H	 3.2209251024	-0.2373941585	-1.5181591398	 0.085114
H	 2.6945674679	-2.0517349776	 0.7018077256	 0.085851
H	 0.5455646449	-0.4861375829	-2.2255697702	 0.080828
H	-0.8472115298	-0.5321484502	 0.1397106648	 0.072294
H	 1.0913035261	-0.2332344049	 2.0392164116	 0.071976
293.8306	331.6876	416.8306	484.2965	598.5706	663.2837	684.1654	689.9192	750.7417	793.9833	822.9189	860.9137	865.6496	902.1857	911.5412	927.1847	945.7496	962.6724	977.3719	992.3083	1036.5016	1056.4744	1076.3882	1120.4877	1133.7548	1160.3745	1167.3646	1209.3193	1221.9654	1232.8603	1268.6661	1278.314	1288.1398	1308.6643	1331.9937	1470.7018	1596.0914	3007.5847	3061.7933	3070.4737	3116.5815	3132.2893	3137.7872	3148.0929	3166.9921
C1C=C2C3C4OC3C1C24	C1[CH][C]2[C@H]3[C@@H]4O[C@H]3[C@H]1[C@H]24	
InChI=1S/C8H8O/c1-2-4-5-3(1)6-7(4)9-8(5)6/h1,4-8H,2H2	InChI=1S/C8H8O/c1-2-4-5-3(1)6-7(4)9-8(5)6/h1,4-8H,2H2/t4-,5+,6-,7+,8-/m1/s1
