19
gdb 88806	3.18271	1.09702	0.89716	3.23	77.54	-0.228	0.0324	0.2603	1313.1875	0.159203	-419.190544	-419.181541	-419.180597	-419.225116	32.699	
C	-0.3767965237	 1.4021128449	-0.109540798	-0.313899
N	 0.0070324941	 0.0032424358	-0.0018913107	-0.092113
C	 1.3916946631	-0.3453860407	-0.2925382268	-0.251852
C	 0.864945807	-0.4462682068	 1.0991066253	 0.019874
C	 1.3839739594	 0.4590107597	 2.1846832827	-0.175503
C	 0.5916172123	 0.4983645835	 3.5311259164	-0.183524
N	 1.7833335371	-0.0601414857	 4.1737641749	-0.320658
C	 2.5490832603	-0.1348417352	 3.0367561134	 0.415104
O	 3.6663991766	-0.5179129096	 2.8222017649	-0.35717
H	 0.4266285808	 2.1223272215	 0.1129789569	 0.100378
H	-0.7126359866	 1.5904781219	-1.13419556	 0.127778
H	-1.2171094405	 1.6040093599	 0.5631078824	 0.121083
H	 1.5520336745	-1.2374976924	-0.8916693133	 0.119662
H	 2.0906882937	 0.4666061048	-0.4929036077	 0.111056
H	 0.5896773871	-1.4363833037	 1.4628190167	 0.094183
H	 1.6376154504	 1.4516257939	 1.8084565557	 0.102019
H	 0.3153013215	 1.4973452796	 3.8828778557	 0.113284
H	-0.2840886933	-0.1580886864	 3.5635862841	 0.117803
H	 1.9880831563	-0.2971610549	 5.1330128474	 0.252496
46.6257	91.8677	119.6943	188.4768	208.4092	244.4764	341.3213	417.8388	428.9151	462.6989	563.5258	670.5548	743.1001	755.3364	846.0522	900.9173	923.7537	957.1058	989.6595	1030.4745	1055.0815	1098.8448	1120.9425	1132.0213	1157.0317	1163.1014	1164.4619	1178.7992	1203.9158	1212.9955	1274.9979	1295.6378	1340.3891	1395.251	1431.302	1450.3735	1489.229	1503.5371	1513.5813	1527.5918	1896.0945	2974.5251	3039.044	3064.2506	3084.1122	3087.6291	3095.0453	3099.8469	3109.9847	3177.5172	3614.0285
CN1CC1C1CNC1=O	CN1C[C@H]1[C@H]1CNC1=O	
InChI=1S/C6H10N2O/c1-8-3-5(8)4-2-7-6(4)9/h4-5H,2-3H2,1H3,(H,7,9)	InChI=1S/C6H10N2O/c1-8-3-5(8)4-2-7-6(4)9/h4-5H,2-3H2,1H3,(H,7,9)/t4-,5+,8?/m1/s1
