18
gdb 14155	3.79709	1.62754	1.45183	0.8305	67.94	-0.2282	0.0798	0.308	931.769	0.154312	-384.924964	-384.917318	-384.916373	-384.957189	29.136	
O	 0.1062590828	 1.1885066817	-0.3017604798	-0.419889
C	-0.046412568	-0.1730370704	-0.0259352994	 0.021637
C	-0.5520083428	-0.6194420276	 1.3370876382	-0.408844
C	-1.4495574633	-0.6903120403	 0.1398221794	 0.439973
C	-2.6630762853	 0.2085551412	-0.1019423179	-0.309296
C	-3.5636027942	-0.6653553088	-1.0107663059	-0.210829
C	-2.6105820407	-1.7828642312	-1.4618348407	-0.092812
O	-1.7306739521	-1.9757679691	-0.3586549832	-0.280192
H	 0.8348871364	 1.5239545766	 0.2310147038	 0.288994
H	 0.6545820974	-0.8387799001	-0.5289265978	 0.092459
H	-0.1685762145	-1.551420385	 1.7382231284	 0.121952
H	-0.7653825823	 0.1535387792	 2.068889343	 0.113187
H	-3.1684894998	 0.471229288	 0.8309281572	 0.105341
H	-2.3549315033	 1.1380788065	-0.5850987034	 0.129747
H	-4.3903417668	-1.0915347184	-0.4357453933	 0.10813
H	-3.9885442916	-0.1118486855	-1.8514550316	 0.102253
H	-3.1024726911	-2.7364180395	-1.6681895972	 0.105377
H	-2.0450208207	-1.4780339373	-2.3566446999	 0.092813
50.6671	172.4354	210.3922	243.4094	287.6257	408.268	454.451	507.0456	532.8923	625.0275	779.1855	819.4958	845.1059	879.2952	890.1695	925.689	941.314	986.1222	1024.4526	1035.14	1060.9613	1096.443	1126.922	1172.7692	1199.3277	1224.8594	1233.2022	1256.715	1283.5155	1296.3225	1329.5031	1349.8869	1387.3206	1410.9136	1483.0711	1489.6182	1506.6739	1520.6487	2979.9345	3059.1554	3069.6216	3097.4307	3104.5715	3107.2878	3121.5733	3126.419	3221.3947	3800.8253
OC1CC11CCCO1	O[C@H]1C[C@]21CCCO2	
InChI=1S/C6H10O2/c7-5-4-6(5)2-1-3-8-6/h5,7H,1-4H2	InChI=1S/C6H10O2/c7-5-4-6(5)2-1-3-8-6/h5,7H,1-4H2/t5-,6-/m0/s1
