15
gdb 127978	4.86301	1.10895	0.91022	4.5773	76.85	-0.2283	-0.084	0.1443	1232.5804	0.112025	-450.092557	-450.084149	-450.083205	-450.126366	30.49	
C	 0.0443172617	 1.4190534682	 0.0432953587	-0.318105
N	 0.0218583816	-0.031981369	 0.0023453032	-0.292034
C	 0.5224900299	-0.6691867143	 0.9730245742	 0.476509
O	 1.0400136567	 0.0116831396	 2.0686225377	-0.281705
N	 1.763999983	-0.6342806467	 3.0835224501	-0.168224
C	 1.7778573882	-1.9226082438	 3.0217517083	 0.380464
N	 2.3701472066	-2.6418276885	 4.0408873033	-0.563306
C	 1.1195596494	-2.6512459393	 1.9392926753	-0.026226
N	 0.5354727785	-2.0623240821	 0.9685149435	-0.248673
H	 1.0467280482	 1.8169194735	 0.2499714818	 0.125516
H	-0.3013260842	 1.8061001444	-0.9177654509	 0.121329
H	-0.6181531283	 1.8068108202	 0.8292250826	 0.12891
H	 2.9147442182	-2.0759958799	 4.6783005677	 0.269617
H	 2.8466373438	-3.4862250364	 3.7578529396	 0.263933
H	 1.1253690666	-3.7420228659	 1.961557175	 0.131994
29.9753	117.3324	202.1252	209.2967	292.3655	320.3489	364.1359	401.024	481.1413	554.4772	569.2026	622.7303	662.1236	763.5235	776.5511	800.7688	923.4647	958.5294	1014.3922	1061.8553	1104.9856	1123.3143	1165.763	1214.1305	1354.6697	1434.82	1462.6923	1483.391	1496.1676	1619.7919	1646.3704	1706.4507	1734.3368	3002.4626	3052.0633	3111.0687	3120.1427	3554.6917	3660.6345
CN=C1ON=C(N)C=N1	C[N]C1=N[CH]C(=NO1)N	
InChI=1S/C4H6N4O/c1-6-4-7-2-3(5)8-9-4/h2H,1H3,(H2,5,8)	InChI=1S/C4H6N4O/c1-6-4-7-2-3(5)8-9-4/h2H,1H3,(H2,5,8)
