27
gdb 122439	4.19991	0.58733	0.56369	0.1043	98.1	-0.2539	0.0882	0.3421	2166.0666	0.250081	-353.564346	-353.55282	-353.551876	-353.601419	42.508	
C	-0.0174411947	 1.5865652186	-0.3092796521	-0.379616
C	-0.0119812671	 0.1035714599	 0.0716384162	-0.164661
C	-1.3945801875	-0.549566742	-0.0266163766	-0.147007
C	-1.3977293456	-2.0357042118	 0.3581416758	-0.2223
C	-2.7748248743	-2.6609097476	 0.2576903015	-0.01898
C	-3.296228919	-3.213054235	-1.0528718961	-0.326725
C	-3.0335254123	-4.1470970717	 0.1085995417	 0.332219
C	-1.8771626131	-5.1253459174	 0.010376815	-0.452358
C	-4.2397914926	-4.7106350285	 0.8382925248	-0.446211
H	 0.9816918387	 2.0260500045	-0.2267130328	 0.109295
H	-0.3596394331	 1.7291546034	-1.3404590174	 0.112671
H	-0.6877981481	 2.1593212112	 0.3414026645	 0.112398
H	 0.6909779822	-0.4386298784	-0.5749782952	 0.092133
H	 0.3706463665	-0.0106024019	 1.094784691	 0.092504
H	-2.0989273196	-0.0060828888	 0.618742641	 0.088857
H	-1.7796596877	-0.4422424085	-1.0496927578	 0.095047
H	-0.6900659331	-2.5707070646	-0.2861852539	 0.090729
H	-1.0157006191	-2.1426811912	 1.3834103885	 0.091148
H	-3.5183721719	-2.1416857319	 0.861063655	 0.072084
H	-4.3233397027	-3.0096573841	-1.3389948563	 0.101469
H	-2.6039759926	-3.2440145058	-1.8897109678	 0.100674
H	-1.0368934223	-4.7236593793	-0.561024804	 0.113525
H	-1.5041202951	-5.4003579614	 1.0044931169	 0.111302
H	-2.1988049636	-6.0487868556	-0.4858897209	 0.111203
H	-4.6228923354	-5.6067014994	 0.3348054265	 0.110418
H	-3.9843538855	-4.9940307151	 1.8666993286	 0.110727
H	-5.0553915615	-3.9822253277	 0.886499104	 0.109457
52.5183	75.1173	88.9907	134.6949	179.9297	203.6811	219.4397	247.7041	253.8673	273.4992	361.8056	380.8719	394.3408	469.4738	501.2005	694.2606	736.1353	788.0363	825.3482	878.9505	903.4464	911.4946	922.6924	968.9427	973.9769	1001.0274	1026.4462	1049.8889	1059.3257	1066.7478	1099.9247	1130.8457	1146.7708	1160.7494	1195.6094	1243.3249	1269.8847	1291.3848	1317.7172	1328.5013	1338.1141	1358.9073	1395.2173	1411.0949	1413.5522	1424.5529	1429.2138	1476.6535	1482.9952	1485.869	1493.3773	1494.0038	1499.1304	1500.2769	1501.6462	1512.6285	1515.6786	3003.4104	3005.6086	3015.0739	3015.7869	3023.0374	3028.4552	3029.7322	3046.3351	3064.2452	3073.0326	3076.6197	3094.7613	3095.3815	3099.6584	3110.2201	3113.3404	3117.569	3199.2351
CCCCC1CC1(C)C	CCCC[C@H]1CC1(C)C	
InChI=1S/C9H18/c1-4-5-6-8-7-9(8,2)3/h8H,4-7H2,1-3H3	InChI=1S/C9H18/c1-4-5-6-8-7-9(8,2)3/h8H,4-7H2,1-3H3/t8-/m0/s1
