19
gdb 115216	4.08554	0.99627	0.84126	3.9652	72.51	-0.2526	0.0085	0.2611	1371.306	0.159152	-460.200348	-460.191473	-460.190529	-460.234388	32.358	
C	-0.0774496593	 1.5990832094	 0.1398756041	-0.387186
C	-0.0619871375	 0.0696481627	 0.0757887732	-0.197343
C	 0.7793673745	-0.5602583137	 1.1807622517	 0.098002
C	 0.7463400221	-2.0787677624	 1.1440724857	-0.070829
O	 1.6298603572	-2.6749227457	 2.1123267543	-0.228616
C	 2.736328179	-2.0248910606	 2.5312677925	 0.385437
O	 3.4999229817	-2.5574699725	 3.2884477194	-0.321783
C	 2.9442886943	-0.5841768073	 2.0702794509	-0.219126
O	 2.1303125725	-0.1529915474	 1.0032716991	-0.252616
H	 0.9386509061	 1.9957789534	 0.0776164854	 0.139367
H	-0.6616276169	 2.0177184413	-0.6843432581	 0.117532
H	-0.5213465688	 1.9511667707	 1.0774518454	 0.115648
H	-1.0829575663	-0.3237467004	 0.1512856972	 0.103868
H	 0.337005218	-0.2611304279	-0.8905979329	 0.112648
H	 0.4179678519	-0.2143537185	 2.1659636262	 0.076524
H	-0.2496726679	-2.4663912778	 1.3753929904	 0.124219
H	 1.0405250446	-2.4314067285	 0.1485096785	 0.122108
H	 2.8013528165	 0.0480503729	 2.9627158698	 0.130172
H	 3.9861374884	-0.4819936477	 1.7590523872	 0.151975
71.451	98.4775	156.1356	164.7003	204.0722	265.935	350.8811	410.9747	448.2131	502.3298	536.882	566.0596	715.5417	764.9293	789.8164	896.1057	943.2641	992.0704	1018.7172	1024.374	1084.0677	1107.8886	1136.6951	1158.7002	1169.2249	1238.7524	1265.9831	1268.9246	1313.0577	1318.0223	1366.713	1397.764	1404.1627	1412.2782	1435.2977	1469.1229	1475.1827	1497.8692	1500.9191	1509.6093	1850.5671	2947.2892	2976.2641	3030.2685	3040.8626	3041.4673	3069.5961	3100.07	3108.4963	3113.3156	3130.2693
CCC1COC(=O)CO1	CC[C@H]1COC(=O)CO1	
InChI=1S/C6H10O3/c1-2-5-3-9-6(7)4-8-5/h5H,2-4H2,1H3	InChI=1S/C6H10O3/c1-2-5-3-9-6(7)4-8-5/h5H,2-4H2,1H3/t5-/m0/s1
