23
gdb 123056	2.76249	0.96727	0.75859	1.4794	83.78	-0.2391	0.0853	0.3244	1574.9358	0.204313	-425.394561	-425.384342	-425.383398	-425.431879	36.394	
C	-0.4977685896	 0.5039416297	-0.5329365747	-0.226563
O	-0.1581795337	-0.7527427657	 0.0023692754	-0.224683
C	 0.8022476539	-0.6708261834	 1.0324020077	-0.054811
C	 1.1482620892	-2.0697322938	 1.5242801387	-0.095342
O	 1.9792358338	-2.8101086375	 0.6574802061	-0.258112
C	 1.3565895591	-3.4761168688	-0.415572136	 0.184503
C	 1.3617635367	-2.8354798633	-1.83056397	-0.232097
C	 1.7005399965	-4.2394148687	-2.4039325231	-0.223746
C	 2.1684979881	-4.6602511299	-0.9834878256	-0.246597
H	 0.3743850601	 1.0090015882	-0.9767899496	 0.106558
H	-1.2450000082	 0.3379161897	-1.3127451784	 0.12681
H	-0.9254216765	 1.1700651911	 0.2334554755	 0.103568
H	 1.7180612101	-0.1713379348	 0.6758677032	 0.09423
H	 0.4070121434	-0.0805629263	 1.8786014712	 0.08177
H	 1.7016087075	-1.971699033	 2.465515659	 0.102665
H	 0.2140072602	-2.6137791839	 1.733273789	 0.098184
H	 0.3404109841	-3.7830683953	-0.1311756322	 0.067409
H	 0.4540554166	-2.3327126192	-2.1653340465	 0.099252
H	 2.2099070358	-2.1507278445	-1.9235173443	 0.098879
H	 0.8039933763	-4.7815144105	-2.7176648756	 0.100008
H	 2.4350100049	-4.2919529883	-3.2098819348	 0.09703
H	 3.2365844486	-4.471088018	-0.8419693026	 0.109064
H	 1.9343053529	-5.6655305037	-0.6250927324	 0.09202
16.6738	64.3184	85.6605	118.2883	143.0702	231.2396	243.9706	303.1007	342.7488	414.1435	447.8574	537.1426	621.5926	755.4123	781.8886	853.1333	904.1072	909.4282	921.9067	937.1531	972.8912	1044.427	1051.881	1068.3113	1115.5033	1155.2919	1160.8057	1180.3221	1186.3849	1189.3855	1231.1665	1241.6629	1244.035	1251.2191	1267.0456	1270.5217	1291.9585	1329.6275	1391.2664	1410.8526	1425.7673	1471.7722	1476.9636	1477.9646	1486.012	1487.396	1497.7567	1510.7861	1520.5019	2944.9454	2970.7741	2982.9341	2998.0786	3005.1291	3015.2771	3057.6919	3062.0889	3064.8517	3065.7847	3105.9485	3113.8879	3119.0661	3134.1478
COCCOC1CCC1	COCCOC1CCC1	
InChI=1S/C7H14O2/c1-8-5-6-9-7-3-2-4-7/h7H,2-6H2,1H3	InChI=1S/C7H14O2/c1-8-5-6-9-7-3-2-4-7/h7H,2-6H2,1H3
