19
gdb 62517	1.65695	1.55841	1.02009	3.1644	84.48	-0.2421	-0.0238	0.2183	1260.8961	0.1555	-385.863026	-385.853065	-385.852121	-385.897559	36.765	
C	-0.1040136428	 1.5650098979	 0.045076006	-0.459927
C	 0.0090747192	 0.0527634915	-0.0077818058	 0.285141
C	-1.1859873854	-0.6744285622	 0.5804241572	-0.445263
C	 0.6719160177	-0.6281765706	-1.2038915487	-0.160327
C	 1.2309748727	 0.1317634352	-2.3476809685	 0.153319
O	 1.1038372341	-0.218204631	-3.4967998049	-0.271225
C	 1.3621039994	-0.6009045613	 0.1771147574	-0.276634
C	 2.5546664004	 0.1652375183	 0.3971407557	 0.328412
C	 3.5577333463	 0.7944262332	 0.6105623183	-0.435377
H	 0.8111709515	 2.0670288363	-0.2718560744	 0.136496
H	-0.9278272093	 1.9131538797	-0.5869152171	 0.12607
H	-0.3132544313	 1.8841742693	 1.0718602544	 0.125245
H	-2.1008450899	-0.4209289221	 0.033700524	 0.128372
H	-1.0603162107	-1.7604096129	 0.5391164041	 0.121178
H	-1.3320394028	-0.3893846812	 1.6283363482	 0.126109
H	 0.254197686	-1.58423449	-1.5025852127	 0.108552
H	 1.7904933392	 1.0539215223	-2.0887062163	 0.087049
H	 1.3548743036	-1.562664384	 0.6834173168	 0.121618
H	 4.446298272	 1.3462575317	 0.7940739562	 0.201192
81.9617	123.6268	146.5465	174.5727	198.9594	230.0306	267.7004	339.0306	353.3517	361.6528	425.2837	479.7612	545.3823	573.4828	598.7156	659.2417	690.0098	811.126	881.0173	951.6345	972.4114	986.5005	1011.0534	1045.7695	1080.5292	1120.9334	1148.1606	1159.1182	1232.1027	1317.3344	1335.4624	1398.2988	1413.0882	1431.1714	1448.531	1481.2356	1490.7318	1501.363	1512.0392	1808.3558	2233.5816	2920.559	3028.451	3038.8047	3092.8002	3097.1837	3107.1582	3138.7463	3138.8908	3171.0854	3502.1595
CC1(C)C(C=O)C1C#C	CC1(C)[C@@H](C=O)[C@H]1C#C	
InChI=1S/C8H10O/c1-4-6-7(5-9)8(6,2)3/h1,5-7H,2-3H3	InChI=1S/C8H10O/c1-4-6-7(5-9)8(6,2)3/h1,5-7H,2-3H3/t6-,7+/m1/s1
