14
gdb 46871	2.54689	1.82226	1.24436	5.9795	63.28	-0.247	-0.0694	0.1775	963.9124	0.1019	-473.844751	-473.837452	-473.836508	-473.876885	27.101	
O	-0.0158478888	-0.0363415841	-0.1020040142	-0.340483
C	-0.0199054825	 1.1718924036	-0.027921926	 0.316017
N	-1.160994969	 1.9249213671	-0.0625617012	-0.325693
C	-1.2692193636	 3.3703211215	 0.0005516322	-0.195794
C	-0.0982739259	 3.9996429957	 0.7199702892	 0.043737
O	 0.3333232651	 3.3631701182	 1.9048795315	-0.230445
C	 1.2072280702	 3.3082445904	 0.7627548464	-0.063725
C	 1.2968173294	 1.975262848	 0.088260213	 0.304973
O	 2.3271724194	 1.5455856262	-0.3615404506	-0.280448
H	-2.010213631	 1.3852926997	-0.1529132641	 0.259205
H	-1.3409810508	 3.821092918	-1.0008635455	 0.129798
H	-2.1925381966	 3.6273809027	 0.5326839864	 0.138224
H	-0.1036897573	 5.0887696142	 0.7466058027	 0.120132
H	 2.1377427214	 3.8643717787	 0.8468692803	 0.124501
73.0586	141.6104	230.3385	327.1594	338.6141	425.1028	459.7539	500.1736	573.5602	614.6915	673.9143	760.6447	829.4563	841.1338	917.168	947.6108	969.8937	1081.1338	1100.9657	1116.7337	1204.16	1248.8014	1273.1501	1336.7985	1344.332	1386.3297	1449.2073	1480.5078	1513.7543	1804.9276	1827.6071	2994.4599	3056.5741	3124.9734	3155.6618	3604.8256
O=C1NCC2OC2C1=O	O=C1NC[C@H]2O[C@H]2C1=O	
InChI=1S/C5H5NO3/c7-3-4-2(9-4)1-6-5(3)8/h2,4H,1H2,(H,6,8)	InChI=1S/C5H5NO3/c7-3-4-2(9-4)1-6-5(3)8/h2,4H,1H2,(H,6,8)/t2-,4-/m1/s1
