17
gdb 117610	2.26725	1.21365	1.04413	3.7089	73.52	-0.2848	-0.0118	0.273	1232.2852	0.133507	-418.014808	-418.004583	-418.003639	-418.050446	34.964	
C	-0.5483211615	 0.9772711471	-0.0240541203	-0.259116
O	 0.6038859193	 0.1509144328	 0.1005040527	-0.239643
C	 0.9978899877	-0.5107110993	-1.0662306619	-0.081415
C	 0.668713065	-2.0455158279	-0.9848359909	-0.10486
C	 1.3473578631	-2.6715898414	 0.2596059292	-0.405239
C	-0.7901671989	-2.2368985007	-0.9052699666	 0.316567
N	-1.9341423347	-2.3703395846	-0.8186046113	-0.332333
C	 1.1716699247	-2.6793943473	-2.2143248354	 0.290531
N	 1.6122139071	-3.1408524121	-3.1770013169	-0.318245
H	-0.3837398608	 1.7727593129	-0.7633412616	 0.120332
H	-1.4384506261	 0.4024440542	-0.3023789247	 0.146356
H	-0.7087389291	 1.431643913	 0.9554874964	 0.141223
H	 0.5320910806	-0.087853013	-1.9641018165	 0.128848
H	 2.0862545612	-0.4283487632	-1.1698907824	 0.133409
H	 1.0178320373	-2.1285817027	 1.1460258091	 0.164069
H	 1.0859483901	-3.7265428495	 0.3551294779	 0.154077
H	 2.4320023451	-2.5811196883	 0.1639336831	 0.145439
59.0101	98.0015	121.0052	136.3404	165.6899	188.0412	233.4265	243.1597	292.9302	386.9079	415.049	490.32	530.9474	585.2621	598.5643	700.2802	894.6938	932.3527	965.912	984.8215	1110.7428	1141.1136	1172.9061	1185.0859	1211.9902	1233.5659	1330.5956	1393.2965	1412.6684	1476.7992	1487.0781	1490.8393	1493.1574	1503.354	1509.5994	2360.508	2365.3387	3007.9907	3025.8482	3063.1175	3079.2	3081.9405	3134.6985	3145.4853	3163.2382
COCC(C)(C#N)C#N	COCC(C)(C#N)C#N	
InChI=1S/C6H8N2O/c1-6(3-7,4-8)5-9-2/h5H2,1-2H3	InChI=1S/C6H8N2O/c1-6(3-7,4-8)5-9-2/h5H2,1-2H3
