21
gdb 69963	2.39922	1.81546	1.3516	1.4389	81.33	-0.2206	0.0684	0.2889	1041.0696	0.182391	-387.04029	-387.032032	-387.031087	-387.072245	34.029	
C	 0.0469943401	 1.4563658081	-0.1631953641	-0.507774
C	 0.0289858819	-0.0539564042	-0.0623199776	 0.299477
C	-1.3553295837	-0.7806225152	-0.0329996548	-0.300277
C	-0.944012829	-1.5006616044	 1.2919649194	-0.237686
C	 0.4428117489	-0.7847747	 1.2533014453	-0.055004
C	 1.6291896435	-1.4506851169	 0.5277929699	-0.159163
C	 1.1683358937	-2.2446337574	-0.6802197034	-0.331497
C	 1.2075094462	-0.762684691	-0.7881665769	 0.354414
O	 1.9399345721	-0.1987149032	-1.8181753415	-0.454672
H	 1.0316544932	 1.867280329	 0.0968410696	 0.103088
H	-0.1986807482	 1.7925449075	-1.17753337	 0.125076
H	-0.6791185717	 1.9041477867	 0.5231175991	 0.117528
H	-2.1967180773	-0.0930841095	 0.089914083	 0.093813
H	-1.5692669499	-1.4267830677	-0.8882769657	 0.101246
H	-1.5532484624	-1.2061515179	 2.1497030191	 0.096925
H	-0.9161212528	-2.5925596056	 1.2580211334	 0.101403
H	 0.7238790226	-0.202936995	 2.1330541753	 0.060516
H	 2.6078650727	-1.6248432436	 0.9601164264	 0.084026
H	 1.981410568	-2.724104524	-1.2166863977	 0.116949
H	 0.2445105865	-2.8155343636	-0.6819550054	 0.107942
H	 2.2534248857	 0.6653536981	-1.5294117132	 0.28367
148.5101	211.2028	228.125	266.9622	292.2041	333.0028	359.7052	426.7671	446.5702	489.6108	596.9886	624.487	731.2675	746.1699	796.0415	849.2205	868.4861	890.006	905.7141	940.1024	943.6357	976.5504	990.2929	1008.9972	1042.0617	1091.8844	1115.9617	1122.2229	1153.5671	1178.1871	1202.5801	1220.788	1238.2182	1249.2787	1281.1647	1285.4568	1304.5987	1339.5933	1400.5992	1416.6605	1473.4191	1488.3097	1491.5335	1497.6032	1507.0603	3011.2212	3053.0199	3062.9364	3071.2322	3087.256	3093.1326	3097.4792	3116.7199	3121.6301	3173.129	3203.0763	3797.9933
CC12CCC1C1CC21O	C[C@]12CC[C@H]1[C@H]1C[C@@]21O	
InChI=1S/C8H12O/c1-7-3-2-5(7)6-4-8(6,7)9/h5-6,9H,2-4H2,1H3	InChI=1S/C8H12O/c1-7-3-2-5(7)6-4-8(6,7)9/h5-6,9H,2-4H2,1H3/t5-,6+,7-,8-/m0/s1
