19
gdb 60944	3.39036	1.06191	0.95485	3.184	75.62	-0.2446	-0.0179	0.2267	1274.2216	0.157601	-422.987145	-422.97828	-422.977336	-423.021603	32.268	
C	-0.2993938052	 1.53140998	 0.1167981512	-0.394268
C	 0.0760382061	 0.0508085591	 0.0503958711	-0.104389
C	-1.1330487849	-0.8588855659	 0.1804397526	 0.150071
O	-2.2687413696	-0.4833114424	 0.3225235801	-0.24566
C	 0.8271588795	-0.3215155963	-1.2222789367	-0.043698
C	 2.2869726849	 0.0119819666	-1.494857189	-0.159762
C	 3.1232899783	-0.2316534048	-0.2444839196	-0.09578
O	 2.5634721095	-1.5639192987	-0.078835252	-0.282138
C	 1.8415435036	-1.4226408223	-1.3063964219	 0.07183
H	 0.5954074062	 2.1580865025	 0.0659211493	 0.111647
H	-0.9575646466	 1.804233806	-0.7135095195	 0.125957
H	-0.8342542236	 1.7567790305	 1.0426201866	 0.129501
H	 0.7231210166	-0.2203317586	 0.8971321892	 0.112847
H	-0.8896395819	-1.944791923	 0.1274165291	 0.081796
H	 0.2341181552	-0.2357668628	-2.1322244238	 0.100941
H	 2.6111823624	 0.5410512555	-2.3804086573	 0.10505
H	 4.1973260233	-0.2951703007	-0.4490463838	 0.116635
H	 2.9515364194	 0.4075497926	 0.629677746	 0.11034
H	 1.8017743369	-2.2800099974	-1.9686681818	 0.109076
48.1078	78.4124	154.359	170.8683	199.0056	269.6928	314.3078	355.3303	476.9701	565.0444	692.6963	747.8343	786.9785	809.2392	841.8157	901.4289	940.5295	958.4048	967.3039	992.8652	1018.9044	1053.9457	1068.7452	1078.1228	1113.1149	1123.4218	1148.8068	1165.1869	1204.7271	1260.4869	1269.6883	1318.3299	1338.4787	1359.561	1404.9098	1426.4655	1433.2901	1488.8316	1494.2328	1518.3974	1828.2894	2873.0291	3018.299	3028.3741	3046.5933	3077.3189	3115.6041	3122.4775	3125.3139	3176.9934	3207.7657
CC(C=O)C1C2COC12	C[C@@H](C=O)[C@H]1[C@H]2CO[C@@H]12	
InChI=1S/C7H10O2/c1-4(2-8)6-5-3-9-7(5)6/h2,4-7H,3H2,1H3	InChI=1S/C7H10O2/c1-4(2-8)6-5-3-9-7(5)6/h2,4-7H,3H2,1H3/t4-,5+,6-,7+/m0/s1
