21
gdb 105408	2.30686	1.24883	0.97924	3.7524	78.71	-0.2495	-0.0226	0.2269	1295.2039	0.180641	-424.212972	-424.203248	-424.202304	-424.248127	35.109	
C	 0.0277986573	 1.6201507846	 0.1107085165	-0.391868
C	-0.1458194836	 0.1070001353	-0.0642458472	-0.253296
C	 0.6638312892	-0.5041695095	-1.2094038799	 0.277697
C	 0.2201327813	 0.0353612841	-2.588204209	-0.331438
C	 0.9359029242	-0.611159676	-3.7589556763	 0.161238
O	 0.4218372725	-1.4137922273	-4.4963059936	-0.249299
C	 2.205165666	-0.5512110615	-1.0382640632	-0.11821
O	 2.2346253073	-1.9462235508	-1.3973204245	-0.274303
C	 0.8047667805	-2.0494943992	-1.2123951902	-0.130331
H	 1.0822464095	 1.8868490915	 0.2439773812	 0.120484
H	-0.3522690278	 2.1811895851	-0.7483178205	 0.123546
H	-0.5142102602	 1.970155412	 0.9940207085	 0.122031
H	 0.1507339092	-0.3949922026	 0.8653232918	 0.100322
H	-1.2080736309	-0.1280244003	-0.2121529007	 0.103385
H	-0.8526824453	-0.1399145544	-2.7209399038	 0.120931
H	 0.4063211289	 1.1160873831	-2.6310877956	 0.113082
H	 1.9895432912	-0.2911353017	-3.9139109834	 0.082607
H	 2.8231488007	 0.062523041	-1.7032591671	 0.103834
H	 2.532558866	-0.3907346338	-0.0006698811	 0.09647
H	 0.5542259972	-2.5139295658	-0.2486175097	 0.095371
H	 0.3234771767	-2.6023608838	-2.0250487622	 0.127747
68.2334	87.6058	109.1312	119.664	199.3105	228.1698	290.3474	313.7069	364.88	424.4975	459.6178	503.2052	631.7418	782.0911	823.4305	866.7124	907.5604	944.5927	950.8371	967.0179	1013.2494	1026.0611	1032.8698	1057.7749	1080.7396	1145.6767	1157.1438	1178.516	1203.2164	1240.8045	1258.2492	1305.862	1313.8062	1329.6093	1373.1285	1386.5361	1414.4731	1428.9049	1470.2088	1484.4937	1503.2987	1507.7721	1509.7634	1536.0068	1824.8993	2889.3216	2992.7056	3005.8779	3018.515	3027.1474	3036.4513	3050.798	3059.4299	3082.8838	3089.6044	3102.7021	3111.39
CCC1(CC=O)COC1	CCC1(CC=O)COC1	
InChI=1S/C7H12O2/c1-2-7(3-4-8)5-9-6-7/h4H,2-3,5-6H2,1H3	InChI=1S/C7H12O2/c1-2-7(3-4-8)5-9-6-7/h4H,2-3,5-6H2,1H3
