20
gdb 84921	2.45034	1.64777	1.1662	2.204	80.2	-0.2194	0.0171	0.2366	1100.8011	0.172481	-403.112356	-403.104166	-403.103222	-403.144902	32.382	
O	-0.2210328203	 1.4705346627	 0.3020241812	-0.433517
C	 0.022033242	 0.0804632419	 0.0668416851	 0.036403
C	 0.8971741357	-0.4880371124	 1.1652525343	-0.083678
C	 1.0327904757	-1.7377062615	 1.6075193383	-0.051074
C	 0.303149169	-2.9782584393	 1.1769428061	-0.271629
C	-0.4917562661	-2.9043084056	-0.1344412235	-0.150113
N	-1.596800899	-1.9523268034	-0.23255119	-0.099603
C	-2.1040599909	-1.2374094976	 0.9373188066	-0.258234
C	-1.3593835035	-0.5228061648	-0.1365947936	 0.018209
H	 0.6118820166	 1.9402993202	 0.194892139	 0.282923
H	 0.5608955252	-0.0288650419	-0.8922206087	 0.081794
H	 1.5225474188	 0.2756283397	 1.6260104123	 0.081113
H	 1.7553296281	-1.8992970623	 2.406384031	 0.088729
H	 1.028021772	-3.7989349504	 1.0816123675	 0.105415
H	-0.3690356979	-3.2953879793	 1.988620569	 0.116828
H	 0.1921741719	-2.6980634848	-0.9670624249	 0.106457
H	-0.912198748	-3.8998199918	-0.3218518982	 0.105419
H	-3.1859741767	-1.154551953	 1.0016403378	 0.110766
H	-1.5990648588	-1.3524545531	 1.8916915333	 0.119355
H	-1.9270504338	 0.0679808668	-0.8539894025	 0.094438
72.9346	212.8566	233.1035	240.4205	299.0838	325.3342	343.9387	425.0071	478.2064	544.1667	611.1078	657.2021	709.1829	775.6305	827.2076	874.5936	912.4676	926.1086	977.529	1003.8747	1029.5405	1049.9798	1059.955	1075.9455	1099.0732	1115.7657	1145.5755	1173.4503	1238.0725	1248.6494	1251.3605	1300.6706	1327.9601	1357.3929	1379.6285	1388.3861	1412.026	1416.7589	1447.2818	1471.6599	1494.6798	1513.6367	1733.82	2921.8778	2996.9311	3016.8168	3029.671	3058.5914	3109.1411	3115.2869	3120.5296	3144.7839	3195.5283	3820.1637
OC1C=CCCN2CC12	O[C@H]1C=CCCN2C[C@@H]12	
InChI=1S/C7H11NO/c9-7-3-1-2-4-8-5-6(7)8/h1,3,6-7,9H,2,4-5H2	InChI=1S/C7H11NO/c9-7-3-1-2-4-8-5-6(7)8/h1,3,6-7,9H,2,4-5H2/t6-,7-,8?/m0/s1
