22
gdb 9254	5.62954	0.7487	0.70724	0.1398	87.71	-0.2399	0.0613	0.3011	1698.5671	0.19754	-313.062528	-313.051723	-313.050779	-313.099927	37.351	
C	 0.1585533718	 1.5311704317	 0.0588837074	-0.39608
C	-0.0009350652	 0.0090963197	-0.0081560423	-0.163378
C	-1.4585687633	-0.4841640599	-0.0343020014	 0.053443
C	-2.2209264578	-0.0122646219	-1.2780844383	-0.388988
C	-1.486016275	-2.029766178	 0.0794118736	-0.36239
C	-2.8239045691	-2.5937272716	 0.2257740572	 0.029004
C	-3.9353319074	-3.0398813806	 0.3558665139	 0.104468
C	-5.2735156636	-3.5928291737	 0.5138997219	-0.498119
H	 1.2137338031	 1.8090506591	 0.1451279754	 0.111871
H	-0.23797641	 2.024468216	-0.8335145957	 0.119372
H	-0.3653270839	 1.9451136195	 0.9279722819	 0.113815
H	 0.5219943494	-0.3755640091	-0.8952572546	 0.091589
H	 0.5044131396	-0.4378478396	 0.8580573389	 0.090275
H	-1.968856248	-0.0858173262	 0.8536198282	 0.078212
H	-3.2349645785	-0.4210608832	-1.2874323431	 0.126479
H	-2.2973194709	 1.0778121067	-1.317201242	 0.112094
H	-1.7158405668	-0.3455580355	-2.1934546158	 0.107008
H	-0.9999155245	-2.4591769169	-0.8085637264	 0.118645
H	-0.8695419285	-2.3344791377	 0.9355949718	 0.118166
H	-5.2831578568	-4.4126682933	 1.2410122478	 0.145126
H	-5.9806449337	-2.8332602626	 0.865835105	 0.144783
H	-5.6585634008	-3.987615423	-0.4330617335	 0.144606
19.2874	54.5042	80.9182	95.439	210.2628	216.2198	230.1486	262.6161	282.3924	337.3855	387.6988	401.0642	419.5069	527.6503	766.5505	776.6216	828.1104	885.7577	914.0232	975.8468	1009.7565	1046.0618	1053.6696	1053.9277	1125.489	1145.9672	1168.604	1180.5902	1245.1035	1287.6488	1307.5512	1355.2117	1376.8736	1382.0965	1410.869	1413.6615	1415.9759	1469.0289	1479.5881	1480.0756	1484.7127	1496.0911	1499.3654	1506.9515	1511.654	2369.743	2999.0449	3002.73	3012.1719	3023.7508	3028.2282	3031.7689	3033.8751	3044.5624	3082.9617	3083.1368	3096.9704	3097.3566	3107.1149	3118.0129
CCC(C)CC#CC	CC[C@@H](C)CC#CC	
InChI=1S/C8H14/c1-4-6-7-8(3)5-2/h8H,5,7H2,1-3H3	InChI=1S/C8H14/c1-4-6-7-8(3)5-2/h8H,5,7H2,1-3H3/t8-/m1/s1
