20
gdb 22305	3.20646	1.09638	0.86378	0.5998	84.92	-0.2392	0.014	0.2533	1360.2656	0.171074	-403.133853	-403.124996	-403.124052	-403.167391	34.119	
C	-0.094359328	 1.5437673851	-0.0457754341	-0.401668
C	 0.0210480496	 0.0158364774	 0.045069761	-0.023569
C	 0.6498565208	-0.5736862443	-1.2339131693	-0.282711
C	 0.9829318831	-2.0310627086	-1.0736138537	 0.370534
C	 1.7958626081	-2.4282951421	 0.1328972777	-0.343322
C	 1.6175184972	-1.4735622593	 1.2846259523	-0.079038
C	 0.8149982184	-0.4108852184	 1.2577241158	-0.044181
N	 0.5535109899	-2.8316121569	-1.9712886791	-0.203118
O	 0.9538151693	-4.1601082338	-1.7317326371	-0.398909
H	 0.8949453261	 2.0061644925	-0.136819575	 0.117927
H	-0.6884002103	 1.8424765405	-0.9154800051	 0.114735
H	-0.5751775463	 1.9554563567	 0.8476863603	 0.113396
H	-0.998541088	-0.388577092	 0.1403895029	 0.092179
H	-0.0041575493	-0.4420211741	-2.0995484853	 0.112839
H	 1.581245089	-0.0235120844	-1.434535652	 0.10723
H	 1.5211857116	-3.4462753687	 0.4307760402	 0.14273
H	 2.8584936321	-2.4957900848	-0.147653936	 0.128834
H	 2.1657765838	-1.7145199267	 2.1922118159	 0.088474
H	 0.7117366788	 0.2047194534	 2.1490807748	 0.08268
H	 0.5257622641	-4.6295809512	-2.4549537143	 0.304958
75.6077	95.0984	225.1391	235.1276	295.4625	314.8836	333.8983	375.0203	419.5279	445.8562	501.8489	547.175	642.5534	709.0327	735.0532	823.7002	858.5518	928.3244	931.3521	965.7149	988.0868	994.3268	1005.1006	1064.0489	1102.1249	1136.8522	1171.982	1208.751	1244.274	1269.136	1305.6596	1336.2751	1341.5552	1352.8248	1402.5722	1409.2401	1420.6151	1454.9539	1474.1018	1495.8912	1499.0767	1723.3933	1737.319	2980.3729	2995.7602	3003.5709	3028.1212	3062.614	3096.2445	3099.5689	3102.8757	3138.3095	3163.4609	3824.8039
CC1CC(CC=C1)=NO	C[C@H]1CC(=NO)CC=C1	
InChI=1S/C7H11NO/c1-6-3-2-4-7(5-6)8-9/h2-3,6,9H,4-5H2,1H3	InChI=1S/C7H11NO/c1-6-3-2-4-7(5-6)8-9/h2-3,6,9H,4-5H2,1H3/t6-/m1/s1
