22
gdb 11453	3.84248	1.2456	0.9973	0.2557	85.55	-0.224	0.0337	0.2577	1262.3708	0.20051	-313.100727	-313.091777	-313.090833	-313.1342	33.474	
C	 0.0406639459	 1.585929495	 0.1681564885	-0.386107
C	 0.0241910521	 0.0599223691	 0.0411924504	-0.174735
C	 0.6586914935	-0.4693263308	-1.2559137088	 0.006256
C	 0.7498136773	-2.0192840375	-1.3072260283	-0.231474
C	 0.5147490609	-2.4069273579	-2.7853627919	-0.300077
C	-0.1889354629	-1.1929146235	-3.3593952004	 0.327059
C	-0.8262996953	-1.2234996129	-4.7125691968	-0.489752
C	-0.1004044913	-0.1533749984	-2.5267276878	-0.167061
H	 1.0644808326	 1.9747935007	 0.1278784902	 0.112421
H	-0.5258296016	 2.064794586	-0.6372019399	 0.116759
H	-0.3999357767	 1.9090379281	 1.1166545053	 0.109879
H	 0.5593929421	-0.3781026877	 0.894097137	 0.090671
H	-1.0085635762	-0.3075231575	 0.1053560193	 0.091514
H	 1.6702603868	-0.0351332331	-1.324847	 0.06755
H	 1.6938891555	-2.3996852672	-0.907472794	 0.091613
H	-0.0530732705	-2.4389479292	-0.6898486267	 0.097653
H	 1.4601142376	-2.584763041	-3.3193915041	 0.099349
H	-0.0712557476	-3.3278114969	-2.8950839706	 0.095271
H	-1.6169247521	-1.9834818406	-4.7626831539	 0.121882
H	-1.2657140354	-0.2575598175	-4.9766036977	 0.119972
H	-0.0959193642	-1.487860383	-5.4886786159	 0.122217
H	-0.4922667806	 0.8355229357	-2.7435471041	 0.07914
83.9703	109.764	157.5395	181.9125	210.5081	240.6913	317.8568	391.5718	409.467	486.9319	588.9057	614.5426	777.3902	836.8641	847.615	866.7148	892.8279	950.3917	965.3041	986.4491	1019.2472	1027.7164	1055.5535	1068.786	1129.0328	1130.0196	1182.3409	1196.3198	1246.3628	1274.5017	1284.9371	1295.1117	1331.202	1348.4115	1371.2717	1379.7365	1412.1193	1412.4791	1478.7477	1482.7452	1485.8639	1489.2002	1499.6221	1500.3868	1506.3761	1722.0195	2955.6429	2996.9073	3011.8689	3013.3689	3031.2392	3032.3084	3046.5644	3046.9849	3056.9543	3090.4927	3096.8341	3102.2247	3107.0843	3177.9315
CCC1CCC(C)=C1	CC[C@H]1CCC(=C1)C	
InChI=1S/C8H14/c1-3-8-5-4-7(2)6-8/h6,8H,3-5H2,1-2H3	InChI=1S/C8H14/c1-3-8-5-4-7(2)6-8/h6,8H,3-5H2,1-2H3/t8-/m0/s1
