22
gdb 13709	5.46427	0.74726	0.70237	1.3684	79.26	-0.2608	0.0809	0.3417	1654.3821	0.19916	-350.19174	-350.181877	-350.180933	-350.227086	35.322	
C	 0.0792558112	 1.5422510737	-0.2675124567	-0.403543
C	 0.0519281772	 0.0482220187	-0.0249685547	-0.006509
C	 1.3244066143	-0.7663280653	-0.0071761349	-0.290374
C	 0.5223434768	-0.5913903538	 1.262718942	 0.016191
C	 1.0738136509	 0.1964843043	 2.4341498928	-0.216097
C	 1.9474364705	-0.6634834155	 3.3561385095	-0.154492
C	 2.5028012601	 0.1117951401	 4.5428697468	-0.075824
O	 3.2837848503	-0.779837749	 5.3254482901	-0.422073
H	 0.9720651003	 2.0113964986	 0.1554594092	 0.114672
H	 0.0770395543	 1.7590874106	-1.3415922283	 0.115213
H	-0.7948413818	 2.0368643021	 0.1715349374	 0.114026
H	-0.8028241208	-0.4447720493	-0.4823401829	 0.079422
H	 1.3418810726	-1.7346754578	-0.4955670725	 0.106169
H	 2.2611367766	-0.2200842808	-0.078313741	 0.104116
H	-0.05122038	-1.4636494957	 1.5702267063	 0.077777
H	 1.6616265044	 1.0480115224	 2.0706759164	 0.092034
H	 0.2434314241	 0.6246288656	 3.0135069405	 0.092775
H	 1.3686378272	-1.513594447	 3.7379242898	 0.102383
H	 2.7850615237	-1.0870251075	 2.7896987452	 0.10797
H	 3.1087769636	 0.9599330111	 4.182362029	 0.080927
H	 1.6726407083	 0.5356856852	 5.1323529392	 0.081365
H	 3.6345073562	-0.2921118209	 6.0761362866	 0.283871
55.6523	81.0246	100.136	136.456	183.3066	220.8278	265.3818	278.6559	350.6264	410.0599	435.4098	539.739	751.3299	768.7036	825.4535	854.8762	866.2194	916.3873	952.6643	1014.675	1022.0263	1051.3077	1063.4193	1077.8789	1103.7958	1114.0543	1151.4081	1186.553	1198.9301	1224.5621	1234.1023	1250.582	1298.93	1307.8265	1317.3031	1370.219	1397.2461	1418.755	1431.1801	1461.2011	1482.5044	1493.6631	1495.6998	1502.6592	1507.3477	1528.4973	2953.4427	2977.6553	3006.4474	3028.2286	3032.3343	3048.6291	3078.8782	3084.3546	3103.3347	3118.9646	3120.8934	3133.7902	3204.5979	3830.5308
CC1CC1CCCO	C[C@H]1C[C@H]1CCCO	
InChI=1S/C7H14O/c1-6-5-7(6)3-2-4-8/h6-8H,2-5H2,1H3	InChI=1S/C7H14O/c1-6-5-7(6)3-2-4-8/h6-8H,2-5H2,1H3/t6-,7+/m0/s1
