14
gdb 14540	4.71553	1.60731	1.45243	2.561	62.82	-0.2542	0.014	0.2682	855.7488	0.107822	-378.673812	-378.66675	-378.665805	-378.704874	26.537	
N	-0.1225653197	 1.4502610173	-0.2565540745	-0.556198
C	-0.0648226143	 0.0224540365	-0.1479281504	 0.118395
C	 1.0959866118	-0.5622840845	 0.4922812719	 0.230274
N	 2.0430720507	-0.9886747902	 1.0042163524	-0.33847
C	-1.3484632284	-0.7867710048	 0.0741287594	-0.173946
C	-2.4653672505	-0.1256354471	-0.7297122265	-0.098055
O	-1.6753389736	-0.203735782	-1.9526112681	-0.277473
C	-0.6450746005	-0.8634651921	-1.2524835832	 0.09054
H	 0.0055586874	 1.8883149153	 0.6497417325	 0.245567
H	 0.597699293	 1.8009983929	-0.8792475739	 0.248807
H	-1.4517964799	-1.4981126927	 0.8811491929	 0.126451
H	-3.3571322394	-0.7531656438	-0.8173069163	 0.122433
H	-2.7273500214	 0.9036169554	-0.4756077377	 0.130181
H	-0.0679571453	-1.6285498602	-1.7584939485	 0.131494
149.3291	160.0187	233.0962	273.939	302.7377	440.2119	476.3421	552.1894	585.132	696.1934	761.5059	802.3673	856.496	914.2674	941.56	980.6365	996.5967	1057.3659	1070.3336	1105.6767	1139.5589	1165.6489	1242.0492	1264.8622	1281.008	1318.1421	1395.0734	1493.8209	1657.8512	2333.9492	3057.0219	3122.6702	3188.1193	3218.9586	3506.2343	3587.3319
NC1(C#N)C2COC12	N[C@@]1(C#N)[C@H]2CO[C@@H]12	
InChI=1S/C5H6N2O/c6-2-5(7)3-1-8-4(3)5/h3-4H,1,7H2	InChI=1S/C5H6N2O/c6-2-5(7)3-1-8-4(3)5/h3-4H,1,7H2/t3-,4+,5-/m0/s1
