19
gdb 59843	4.31833	0.55841	0.51194	3.4895	82.46	-0.2439	-0.0245	0.2194	2119.1393	0.154925	-423.009059	-422.998085	-422.997141	-423.048336	37.249	
C	 0.137440282	 1.427843841	 0.4264118917	-0.403896
C	-0.0884277601	-0.0815305153	 0.3356941904	 0.149764
O	-0.2976458938	-0.6582190818	 1.6148820779	-0.420913
C	-1.2424605314	-0.4194161838	-0.6378944361	-0.378356
C	-1.4615801012	-1.8506602089	-0.7998581577	 0.073954
C	-1.6221979159	-3.0350039554	-0.9449409174	 0.072859
C	-1.8332827295	-4.4722726833	-1.0331240318	-0.415444
C	-2.1026833675	-5.0975358875	 0.3382342481	 0.169341
O	-2.8872775552	-5.9880665675	 0.5212314585	-0.23383
H	 0.9441208759	 1.6434356722	 1.1314701325	 0.128964
H	 0.4025712034	 1.8525357695	-0.5472006486	 0.118329
H	-0.7690490099	 1.9369807714	 0.7777911405	 0.108379
H	 0.8221074395	-0.5645311886	-0.0359883977	 0.101313
H	-1.0814512723	-0.2504123746	 2.0003854246	 0.277761
H	-2.1613048524	 0.0627277056	-0.2723385121	 0.116924
H	-1.0295306753	 0.0381215767	-1.612895332	 0.129822
H	-2.6616988373	-4.7375010915	-1.6982700014	 0.151377
H	-0.9337916984	-4.9659591498	-1.4329437419	 0.152611
H	-1.4969949707	-4.6629697284	 1.1623380624	 0.101041
9.3345	42.1588	67.0259	81.3136	142.3518	232.2708	244.6063	281.2331	313.6792	317.7819	391.49	449.4421	463.5449	473.758	554.0722	723.8371	816.3489	841.758	895.9136	941.6901	1033.727	1044.1198	1062.0911	1091.4915	1147.9788	1163.8906	1199.6738	1211.2345	1289.8718	1307.448	1333.3158	1370.8281	1403.6032	1414.4259	1424.6874	1441.747	1463.9808	1491.4674	1494.6724	1839.4948	2371.5339	2907.299	2998.9112	2999.4563	3024.5361	3040.2832	3057.7526	3077.3406	3095.9559	3123.2323	3794.6769
CC(O)CC#CCC=O	C[C@@H](O)CC#CCC=O	
InChI=1S/C7H10O2/c1-7(9)5-3-2-4-6-8/h6-7,9H,4-5H2,1H3	InChI=1S/C7H10O2/c1-7(9)5-3-2-4-6-8/h6-7,9H,4-5H2,1H3/t7-/m1/s1
