18
gdb 65427	4.25085	0.78389	0.74884	1.747	78.54	-0.2625	-0.0309	0.2316	1508.822	0.14567	-401.968398	-401.958861	-401.957917	-402.003465	33.907	
C	-0.0080189516	 1.5518976763	-0.081358426	-0.469685
C	-0.0494771067	 0.0467528688	 0.0749037379	 0.199415
C	 1.2301934366	-0.7834166217	-0.020552998	-0.319088
C	 0.5342803232	-0.671457851	 1.2936108108	-0.036356
C	 1.1258455574	 0.1151591973	 2.4543780295	-0.373682
C	 2.0434325421	-0.7032941574	 3.2497218359	 0.267641
N	 2.7623834029	-1.3612934709	 3.8700645409	-0.298781
C	-1.2647057405	-0.6092995918	-0.4817228577	 0.12663
O	-2.1716937993	-0.0247875871	-1.0185011912	-0.261548
H	 0.9535181491	 1.9710255566	 0.2237766876	 0.114144
H	-0.1742694203	 1.8181697265	-1.1284580372	 0.145008
H	-0.7991598191	 2.0318853811	 0.5024797677	 0.135924
H	 1.1984771181	-1.7322087213	-0.5455143989	 0.133057
H	 2.1455667241	-0.2202932596	-0.1688987725	 0.133839
H	-0.0137643387	-1.553290736	 1.6151983791	 0.115754
H	 1.6717056193	 0.9938086797	 2.0986187551	 0.155765
H	 0.3313103951	 0.4836420358	 3.1138209783	 0.162237
H	-1.2800646815	-1.7191711153	-0.3667838915	 0.069723
48.1675	97.2275	110.6558	154.4119	217.3168	257.5838	269.2793	347.8571	388.9411	405.0861	436.3393	506.8166	602.248	760.2797	813.691	870.2603	885.5941	919.7518	938.8842	979.8157	1024.4581	1061.5792	1077.0346	1111.4447	1120.7985	1168.7813	1242.5141	1269.8216	1323.9524	1341.6464	1417.3404	1421.4188	1442.0875	1461.9465	1485.9749	1490.1171	1500.7906	1820.5043	2364.4595	2852.5382	3046.6214	3050.7907	3094.0503	3116.1369	3127.6261	3133.5117	3143.8515	3219.7796
CC1(CC1CC#N)C=O	C[C@]1(C[C@H]1CC#N)C=O	
InChI=1S/C7H9NO/c1-7(5-9)4-6(7)2-3-8/h5-6H,2,4H2,1H3	InChI=1S/C7H9NO/c1-7(5-9)4-6(7)2-3-8/h5-6H,2,4H2,1H3/t6-,7+/m1/s1
