21
gdb 122491	4.31573	0.58792	0.54681	2.8108	81.73	-0.259	-0.0397	0.2193	2048.6267	0.179533	-424.221138	-424.210788	-424.209844	-424.258139	36.112	
C	-0.1243183421	 1.5659596304	 0.0926677481	-0.381783
C	 0.1376464028	 0.0661893367	-0.0676989256	-0.168624
C	 0.761131624	-0.569552549	 1.1789326146	-0.157809
C	 1.0270844058	-2.0734970855	 1.0205927935	-0.23576
C	 1.6570128091	-2.6646644097	 2.259445688	 0.072401
O	 0.8151448358	-2.9541938109	 3.3678012081	-0.244709
C	 1.4749707128	-4.0596733985	 2.7382539279	-0.057115
C	 0.5933410455	-5.0304800622	 2.0235470893	 0.139958
O	 0.9212744147	-6.164997294	 1.7848428986	-0.245446
H	 0.8042010597	 2.1106092124	 0.2969197757	 0.115117
H	-0.5676770427	 1.9920555386	-0.8124790592	 0.114521
H	-0.8107784524	 1.761109007	 0.9238395716	 0.117474
H	-0.8035383641	-0.4479150594	-0.3029492732	 0.098801
H	 0.7979600316	-0.1021475755	-0.9289112703	 0.096362
H	 1.7035573898	-0.0571621258	 1.4174188085	 0.095709
H	 0.1016991551	-0.41455251	 2.0423603886	 0.113443
H	 0.0907072642	-2.5914129903	 0.7910418739	 0.106802
H	 1.7030250898	-2.2449879312	 0.1722891988	 0.11044
H	 2.6062130583	-2.2045570943	 2.5464215005	 0.103081
H	 2.2824017932	-4.520684994	 3.3059403224	 0.115483
H	-0.4022760908	-4.6273743847	 1.7398100302	 0.091655
38.8828	64.3048	80.5034	120.8574	125.3002	227.8676	242.1476	267.8991	330.4534	368.8423	448.0968	491.0361	534.7767	734.3521	780.4427	824.0407	861.7188	906.5822	939.8353	960.2625	1025.238	1033.3033	1047.9015	1067.7533	1104.9184	1128.194	1171.2681	1179.1932	1244.8405	1262.6939	1282.1725	1315.7875	1331.8706	1340.7677	1358.6765	1398.191	1410.8342	1413.8872	1463.8075	1474.4356	1485.3847	1497.6559	1499.6197	1511.6032	1822.8096	2906.7519	3009.0546	3016.2951	3026.7119	3030.8955	3038.3749	3058.9477	3073.3864	3091.685	3098.067	3104.3325	3130.1851
CCCCC1OC1C=O	CCCC[C@H]1O[C@H]1C=O	
InChI=1S/C7H12O2/c1-2-3-4-6-7(5-8)9-6/h5-7H,2-4H2,1H3	InChI=1S/C7H12O2/c1-2-3-4-6-7(5-8)9-6/h5-7H,2-4H2,1H3/t6-,7+/m1/s1
