15
gdb 52013	2.75499	0.80817	0.65071	1.7059	71.35	-0.2752	-0.0503	0.225	1598.0576	0.110578	-416.833032	-416.823538	-416.822594	-416.869049	31.644	
O	-0.6946925089	 0.769917628	 0.7100236058	-0.222854
C	 0.0442116037	 0.9667578109	-0.2167682233	 0.158463
C	 1.3112730807	 1.7975943397	-0.1432702633	-0.300811
C	 1.2995629216	 2.924435895	-1.1850675067	-0.207082
C	 2.6370801564	 3.7195864299	-1.2165209506	-0.295634
C	 3.7718112267	 2.8523038539	-1.5652385856	 0.308634
N	 4.641613194	 2.1359323569	-1.8163896499	-0.302737
C	 2.5470862853	 4.8557970781	-2.1439184221	 0.29804
N	 2.4352946654	 5.7527457226	-2.8617093367	-0.292334
H	-0.161708138	 0.5330544169	-1.2227280728	 0.086093
H	 1.4116446209	 2.1871283422	 0.8739614468	 0.13349
H	 2.157742071	 1.1255801243	-0.3427942787	 0.154426
H	 1.1116780191	 2.5242579143	-2.1864213369	 0.147781
H	 0.5017950627	 3.6401245855	-0.9660601113	 0.150063
H	 2.8288767995	 4.1247607318	-0.2141200547	 0.184463
50.2949	66.5508	100.2593	120.9187	137.2097	222.2165	268.4878	329.28	386.438	484.1176	528.2632	582.1864	595.2612	760.1134	820.6465	892.1461	993.5289	1003.3701	1039.5902	1091.3384	1108.4972	1189.5388	1260.6186	1294.9615	1314.2025	1344.5744	1380.553	1429.7479	1466.5607	1492.2711	1843.0045	2368.8797	2374.9914	2868.0533	3023.945	3036.1947	3059.6755	3095.2944	3114.3502
O=CCCC(C#N)C#N	O=CCCC(C#N)C#N	
InChI=1S/C6H6N2O/c7-4-6(5-8)2-1-3-9/h3,6H,1-2H2	InChI=1S/C6H6N2O/c7-4-6(5-8)2-1-3-9/h3,6H,1-2H2
