16
gdb 9699	3.12258	1.80311	1.63101	2.9054	69.31	-0.2553	0.0086	0.2639	867.8156	0.132065	-342.803719	-342.796171	-342.795227	-342.835857	28.34	
N	 0.1092160749	 1.578406755	-0.2089099463	-0.532968
C	-0.0399796332	 0.1425417816	 0.053085908	 0.138158
C	 0.523595356	-0.2305714391	 1.4642539707	-0.289431
C	-0.5312403446	-1.1372036134	 2.0442093887	-0.053037
C	-1.6431002334	-1.1548410468	 1.3141997859	-0.053036
C	-1.5502272705	-0.2635149446	 0.1026132774	-0.289426
C	 0.6481298646	-0.6712993962	-0.9752763263	 0.242475
N	 1.2007325128	-1.2618278493	-1.8025797265	-0.350385
H	 1.09597417	 1.8233154167	-0.2375708722	 0.241361
H	-0.2618739907	 1.8017363663	-1.1291879254	 0.241362
H	 1.5111722551	-0.698667294	 1.403384799	 0.12459
H	 0.6332815598	 0.6894906773	 2.0520820906	 0.125306
H	-0.3786605915	-1.6780383177	 2.970884658	 0.102569
H	-2.541873197	-1.7123636858	 1.5505911431	 0.102566
H	-2.1535037502	 0.6452313407	 0.2222947553	 0.125305
H	-1.8763353821	-0.7524834807	-0.82080094	 0.124591
45.5725	178.719	192.7669	274.1996	368.5881	400.0695	403.9331	489.8157	589.3429	633.4861	685.711	764.8844	784.1344	882.0441	908.3203	945.1482	959.1686	978.3505	987.9836	1037.9342	1082.2898	1130.9193	1164.9359	1178.1717	1263.4143	1281.0606	1315.0463	1344.9438	1373.2449	1478.4668	1485.6312	1662.8035	1697.2516	2337.8074	3029.5415	3031.1229	3077.0048	3078.0581	3192.4417	3216.8057	3480.7511	3557.8947
NC1(CC=CC1)C#N	N[C@]1(CC=CC1)C#N	
InChI=1S/C6H8N2/c7-5-6(8)3-1-2-4-6/h1-2H,3-4,8H2	InChI=1S/C6H8N2/c7-5-6(8)3-1-2-4-6/h1-2H,3-4,8H2
