19
gdb 109022	4.04955	1.13451	0.99587	1.6202	77.76	-0.208	0.0602	0.2681	1257.2646	0.15941	-419.217745	-419.208873	-419.207929	-419.251154	33.223	
C	-0.0796437669	 1.3922859374	 0.0230686122	-0.318446
N	 0.1224030321	-0.0450782287	-0.020940598	-0.376948
C	 0.6607603805	-0.6112983091	-1.1343097408	 0.481052
N	 1.2471573748	-0.0119696125	-2.105188411	-0.362435
C	 1.7417536725	-1.065607829	-2.9560880628	-0.059151
C	 2.7513663943	-2.0267401134	-2.3456215242	-0.353214
C	 1.2854168472	-2.3746297658	-2.3416556395	 0.396338
C	 0.6909145719	-3.5805676355	-3.0038308228	-0.472693
O	 0.5824935977	-1.9767160469	-1.160329021	-0.293722
H	 0.8452453727	 1.8852007015	-0.281915344	 0.161274
H	-0.8800240706	 1.7342514218	-0.6469330012	 0.123833
H	-0.3207475959	 1.6863792105	 1.0471684138	 0.122398
H	-0.5468388196	-0.6259308575	 0.4595200527	 0.250632
H	 1.7602294386	-0.8679849276	-4.0222095192	 0.092039
H	 3.3736307029	-2.5932828377	-3.0309179885	 0.111285
H	 3.2281188609	-1.7414474994	-1.4134191694	 0.118885
H	 1.2174049623	-3.7900434897	-3.9389359579	 0.124671
H	 0.7739812222	-4.466551642	-2.3648202223	 0.12815
H	-0.3674593578	-3.4198407865	-3.2325465963	 0.126053
95.2342	119.857	181.3285	193.9977	207.4785	251.1747	305.6359	411.2515	453.9196	485.4166	508.8357	640.9229	708.1246	734.9137	782.4139	823.3347	876.0952	946.0666	960.037	963.1795	1032.4623	1038.4355	1091.0951	1107.4449	1121.3718	1137.5295	1155.0592	1197.8011	1235.1402	1276.695	1314.6401	1383.6405	1422.512	1452.0491	1470.3213	1477.7262	1484.8572	1500.1221	1507.9102	1551.2182	1720.5316	3013.4741	3033.9045	3097.3556	3097.5208	3117.9251	3124.7005	3143.2499	3167.9369	3217.8933	3631.2554
CNC1=NC2CC2(C)O1	CNC1=N[C@H]2C[C@@]2(C)O1	
InChI=1S/C6H10N2O/c1-6-3-4(6)8-5(7-2)9-6/h4H,3H2,1-2H3,(H,7,8)	InChI=1S/C6H10N2O/c1-6-3-4(6)8-5(7-2)9-6/h4H,3H2,1-2H3,(H,7,8)/t4-,6+/m0/s1
