15
gdb 106029	2.69059	1.69094	1.2822	2.809	64.8	-0.2199	-0.0109	0.209	985.9742	0.110667	-457.682273	-457.674516	-457.673572	-457.715058	28.52	
C	-0.2414670794	 1.3257298063	-0.0230736346	-0.26513
O	 0.2148235261	-0.0257550538	 0.0459916612	-0.280604
C	 0.7908073184	-0.4652344244	-1.1034831356	 0.248607
C	 0.0099311855	-0.9955862637	-2.3221005888	 0.021119
O	 0.844769265	-0.9015790879	-3.4804661628	-0.287334
C	 1.9139141075	-1.4313241512	-2.6397112143	-0.085186
C	 0.873472374	-1.9536239015	-1.591193907	-0.197817
C	 2.187682266	-0.2790781863	-1.631807519	 0.401987
O	 3.1615763231	 0.3121682729	-1.2659222942	-0.338403
H	 0.5943179874	 2.0126469666	-0.1976860872	 0.14374
H	-0.9860164085	 1.4530416427	-0.8194365205	 0.118298
H	-0.6990833344	 1.5471346659	 0.9422558343	 0.138532
H	-1.0652835077	-0.9098214531	-2.4144055351	 0.131453
H	 2.6912486669	-1.979495373	-3.1636120084	 0.112488
H	 0.7428273703	-2.8638313495	-1.025736918	 0.138249
60.2817	153.6876	169.5758	181.5001	273.6552	392.971	461.8889	489.1161	631.6052	685.3777	748.076	790.5384	792.144	832.8506	884.4916	941.1643	951.289	965.3769	995.1329	1046.5687	1055.3587	1113.867	1162.8471	1176.5173	1197.5732	1216.8366	1246.6992	1319.8666	1411.0422	1485.9168	1495.8938	1504.4582	1888.2797	3013.3508	3081.3711	3140.8762	3175.9208	3204.9185	3238.2435
COC12C3OC(C13)C2=O	CO[C@]12[C@H]3O[C@H]([C@@H]13)C2=O	
InChI=1S/C6H6O3/c1-8-6-2-3(4(6)7)9-5(2)6/h2-3,5H,1H3	InChI=1S/C6H6O3/c1-8-6-2-3(4(6)7)9-5(2)6/h2-3,5H,1H3/t2-,3-,5+,6-/m1/s1
