17
gdb 22898	2.33259	1.53335	1.04814	2.1217	73.46	-0.2192	-0.0705	0.1487	1145.4391	0.135689	-455.111278	-455.102584	-455.10164	-455.144861	32.224	
C	 0.2297558062	 1.510260251	-0.1477196058	-0.369507
C	-0.0747627412	 0.0278215954	 0.1019985067	-0.076226
N	 0.3424189785	-0.8049070927	-1.0549947466	-0.303641
C	 1.7195743761	-1.2449361051	-0.7923438861	-0.292473
C	 1.8838135001	-1.3012379808	 0.7341888715	 0.324465
O	 2.7710520881	-1.8403562049	 1.3448489007	-0.296806
C	 0.7052681199	-0.5335382454	 1.2791440625	 0.288328
N	 0.3280009935	-0.328458533	 2.4831513354	-0.215336
O	 1.1273700593	-0.9310262643	 3.43482434	-0.346777
H	 1.2994800404	 1.6741489105	-0.3145693459	 0.117837
H	-0.3093622837	 1.8569108632	-1.0331086888	 0.125849
H	-0.0718966058	 2.1086603912	 0.7165815846	 0.128623
H	-1.1498192243	-0.0904009264	 0.2601163918	 0.098654
H	-0.2539489374	-1.6248317032	-1.0896710592	 0.228054
H	 1.9370980527	-2.2137884385	-1.2472172521	 0.136009
H	 2.4446297107	-0.5269316714	-1.1997506458	 0.138204
H	 0.6918465268	-0.6798366958	 4.257968597	 0.314743
58.3635	140.4715	173.1332	210.6069	242.658	285.5728	341.3568	433.9569	456.1598	496.8686	510.7939	614.2654	669.2986	688.0571	732.8893	813.6117	861.2839	957.987	1015.9813	1022.3904	1040.8442	1079.5219	1112.1147	1130.2043	1208.5782	1220.2045	1287.7278	1324.6726	1363.1353	1399.9983	1419.8109	1462.3461	1467.1085	1490.4903	1493.9726	1698.251	1830.1657	3017.9507	3040.5134	3074.7569	3110.0389	3113.4188	3127.6079	3523.4624	3798.0862
CC1NCC(=O)C1=NO	C[C@H]1NCC(=O)C1=NO	
InChI=1S/C5H8N2O2/c1-3-5(7-9)4(8)2-6-3/h3,6,9H,2H2,1H3	InChI=1S/C5H8N2O2/c1-3-5(7-9)4(8)2-6-3/h3,6,9H,2H2,1H3/t3-/m1/s1
