17
gdb 111826	2.73521	1.46956	1.12122	2.1276	69.16	-0.2319	-0.0361	0.1958	1107.5676	0.134489	-458.918361	-458.909947	-458.909003	-458.952073	30.06	
C	-0.3264691965	 1.1936067908	 0.0405649386	-0.247931
O	 0.2768830702	-0.0866286452	 0.1544218094	-0.239234
C	 0.7141682656	-0.5992703728	-1.0541925783	 0.054617
C	 1.4171818783	-1.9785273089	-1.0476266153	 0.048846
O	 0.771930141	-2.9526340644	-0.2129633695	-0.275058
C	 0.0749368343	-3.5376024751	-1.3338992328	-0.076269
C	 0.5842960232	-2.4338419356	-2.2913770614	-0.226734
C	-0.2667157837	-1.1595343575	-2.1224042755	 0.356709
O	-1.3003892346	-0.784793113	-2.5948653681	-0.303196
H	 0.3854428149	 1.9346270164	-0.3548891799	 0.106623
H	-1.207141709	 1.1670182077	-0.6114491531	 0.14107
H	-0.627079631	 1.4908336732	 1.0471444869	 0.133626
H	 1.3794125489	 0.1057265125	-1.5967817695	 0.087361
H	 2.5050169054	-1.9987494156	-0.9642728838	 0.089876
H	 0.4655387025	-4.5343692781	-1.5716800019	 0.113937
H	-1.007421514	-3.597184185	-1.1786852557	 0.127398
H	 0.9620325445	-2.7077334395	-3.2740170502	 0.108359
70.0535	95.8207	155.1537	169.2799	214.2373	247.4067	331.291	478.0262	505.2422	623.1353	681.0583	757.4463	829.0392	864.2001	932.0761	958.3397	991.6357	1023.0528	1043.7201	1054.7138	1077.8079	1132.3432	1163.1904	1171.7921	1180.957	1196.6575	1231.9989	1250.9529	1260.0239	1310.401	1357.0124	1366.0516	1481.3099	1487.8006	1511.9153	1524.0759	1885.9065	2888.5832	2986.813	3023.0653	3066.8731	3078.0929	3101.6069	3130.4715	3143.0442
COC1C2OCC2C1=O	CO[C@H]1[C@H]2OC[C@H]2C1=O	
InChI=1S/C6H8O3/c1-8-6-4(7)3-2-9-5(3)6/h3,5-6H,2H2,1H3	InChI=1S/C6H8O3/c1-8-6-4(7)3-2-9-5(3)6/h3,5-6H,2H2,1H3/t3-,5-,6+/m0/s1
