17
gdb 63334	2.55991	1.48362	1.17941	2.5993	69.44	-0.2605	-0.0053	0.2552	1083.9798	0.135826	-455.248324	-455.23941	-455.238466	-455.282019	32.982	
C	-0.0655422885	 1.5641018799	 0.0331149904	-0.40611
C	-0.0163074809	 0.0306888777	-0.0167132294	 0.116133
C	-1.4279909194	-0.5738571101	-0.0718094655	-0.411582
N	 0.8466130594	-0.463663433	-1.0857539084	-0.364696
C	 1.874707777	-1.2569949976	-0.6539745677	 0.456229
O	 2.6954956428	-1.8553610873	-1.3042345481	-0.391475
N	 1.791854311	-1.2331523091	 0.754854167	-0.398461
C	 0.7240249896	-0.5082690051	 1.2287075135	 0.440409
O	 0.4130720917	-0.324607586	 2.3795524301	-0.371536
H	 0.9430227306	 1.9855074085	 0.0364819198	 0.130641
H	-0.6022466393	 1.9579439036	-0.8357297964	 0.117511
H	-0.582651325	 1.8866263098	 0.9402183459	 0.147104
H	-1.9694252392	-0.2000836566	-0.9468490868	 0.118938
H	-1.3854663101	-1.6649869264	-0.1300507987	 0.130496
H	-1.9833008703	-0.2942148803	 0.826870421	 0.149225
H	 0.6116955961	-0.4339889403	-2.0635604802	 0.260011
H	 2.4565698646	-1.7170555478	 1.3376349536	 0.277164
51.5855	131.0597	211.0203	213.3819	236.9594	290.5785	323.3039	355.2545	403.6915	450.7193	575.2991	581.6804	627.5591	637.8225	747.6174	754.0464	772.3666	928.1375	945.7061	971.3858	1008.0619	1023.2787	1152.096	1187.3171	1224.6558	1277.5871	1340.7216	1382.0134	1394.3939	1401.5586	1422.7176	1480.6878	1481.5435	1500.1662	1506.9027	1843.8395	1882.8269	3039.7457	3044.2592	3112.8392	3117.3236	3130.3202	3134.7977	3655.351	3666.637
CC1(C)NC(=O)NC1=O	CC1(C)NC(=O)NC1=O	
InChI=1S/C5H8N2O2/c1-5(2)3(8)6-4(9)7-5/h1-2H3,(H2,6,7,8,9)	InChI=1S/C5H8N2O2/c1-5(2)3(8)6-4(9)7-5/h1-2H3,(H2,6,7,8,9)
