19
gdb 32975	2.79602	1.29782	0.95958	3.9412	78.3	-0.2098	0.036	0.2458	1259.7432	0.159486	-419.234177	-419.2248	-419.223856	-419.270013	32.874	
C	 0.1111246125	 1.2361773213	-1.1063116033	-0.378144
C	-0.1298241461	 0.2773626869	 0.049330723	-0.070785
O	 0.9246512978	-0.6969126642	 0.1913709318	-0.286416
C	 0.9053009289	-1.727862857	-0.6830300482	 0.311663
C	 1.3828452981	-1.8996463227	-1.9574825459	-0.182369
N	 1.1667651934	-3.193338431	-2.3735138817	-0.2718
C	 0.5743224579	-3.790837869	-1.3659068701	 0.001453
N	 0.3844402765	-2.954679939	-0.3023214258	-0.050887
C	-0.2250258127	-3.2644368788	 0.9744152775	-0.34331
H	 1.0708029979	 1.7472282621	-0.9876248525	 0.129797
H	 0.1125346253	 0.7047846538	-2.061811234	 0.1374
H	-0.6824937169	 1.9900765017	-1.136455175	 0.118005
H	-0.1408925916	 0.8116786788	 1.0035447438	 0.113124
H	-1.0915115887	-0.2397114345	-0.0647693361	 0.101857
H	 1.882726434	-1.1732623546	-2.578858992	 0.109618
H	 0.2650022969	-4.8257943458	-1.3348558944	 0.122191
H	 0.2639359798	-2.6815903891	 1.7570675561	 0.156814
H	-1.2954738397	-3.0304993372	 0.9806902426	 0.137512
H	-0.0977091035	-4.3276108517	 1.1882731143	 0.144278
29.8763	56.7779	84.4251	152.7213	194.7015	241.806	267.0654	368.3073	426.5658	502.4253	632.518	675.7693	700.1493	739.6167	794.1578	813.9233	837.4444	889.005	928.9895	1043.9108	1073.8947	1106.7808	1138.664	1152.8888	1190.2032	1225.3421	1258.0923	1298.1665	1324.359	1371.8105	1390.1253	1407.3293	1424.3863	1454.2071	1484.3758	1486.5686	1491.8423	1509.8316	1515.2052	1536.3692	1605.3227	3020.3374	3037.1788	3042.4549	3089.1936	3109.4516	3114.0691	3129.4162	3145.996	3238.361	3253.7931
CCOC1=CN=CN1C	CCOc1cncn1C	
InChI=1S/C6H10N2O/c1-3-9-6-4-7-5-8(6)2/h4-5H,3H2,1-2H3	InChI=1S/C6H10N2O/c1-3-9-6-4-7-5-8(6)2/h4-5H,3H2,1-2H3
