16
gdb 11420	4.36444	1.42362	1.12978	5.2389	61.05	-0.2892	0.0429	0.3321	1039.3848	0.131072	-420.937718	-420.93009	-420.929146	-420.970378	27.059	
C	 0.0007185383	 1.5690978841	 0.0066236983	-0.388657
C	 0.0008162193	 0.0397852501	-0.0562859325	-0.200078
C	-1.3865068984	-0.5670245437	 0.0813623141	 0.114142
C	-1.4331680919	-2.1044867695	 0.0488085312	-0.122684
O	-2.3581767891	-2.4416465167	 1.0835211401	-0.242017
C	-2.56204765	-1.3638250594	 1.8861084914	 0.500564
O	-3.1955218526	-1.3796441299	 2.8917236154	-0.370861
O	-1.9410390579	-0.2706353632	 1.3760365931	-0.257054
H	 1.0166332029	 1.9619717666	-0.0885074369	 0.121727
H	-0.6017004127	 1.9985397444	-0.8010885021	 0.119945
H	-0.412792344	 1.9173804697	 0.9566470222	 0.146368
H	 0.4199112814	-0.3012140219	-1.0121700997	 0.108341
H	 0.6376794772	-0.3748493685	 0.7345248421	 0.114497
H	-2.0640583495	-0.1389452388	-0.6688657574	 0.099502
H	-1.7979917106	-2.5067998777	-0.8980426303	 0.133836
H	-0.4583529625	-2.5500715255	 0.279582771	 0.12243
71.9419	103.5347	163.0922	206.4771	242.4248	385.7745	429.6021	551.7485	655.1544	723.9269	776.6804	792.4984	870.4631	925.6691	978.4898	1007.9583	1023.8929	1098.9569	1102.9972	1130.7418	1166.1818	1174.367	1235.4922	1300.3847	1326.6475	1377.8225	1400.3926	1413.6946	1423.824	1474.0195	1498.722	1508.0681	1523.6584	1927.434	3020.1114	3023.4036	3039.5484	3041.5591	3065.7804	3109.8471	3114.5297	3126.5548
CCC1COC(=O)O1	CC[C@H]1COC(=O)O1	
InChI=1S/C5H8O3/c1-2-4-3-7-5(6)8-4/h4H,2-3H2,1H3	InChI=1S/C5H8O3/c1-2-4-3-7-5(6)8-4/h4H,2-3H2,1H3/t4-/m0/s1
