21
gdb 107424	2.7	1.45878	1.33322	2.1892	81.28	-0.2185	0.0727	0.2911	1097.0849	0.184391	-383.227174	-383.21908	-383.218136	-383.259619	32.407	
C	-0.2216454843	 1.5563029905	-0.1436386207	-0.379525
C	 0.1687659164	 0.0833952852	 0.0319820538	-0.280761
C	 0.7618139914	-0.5374863401	-1.2160475284	 0.353011
C	 1.9017476898	-1.4909558664	-1.1697003134	-0.29873
N	 2.1248106757	-0.1065431369	-1.6232976773	-0.147867
C	 2.1317807592	 0.108071903	-3.0894349604	-0.171744
C	 0.7307864287	-0.1764354846	-3.6198715598	-0.035995
N	 0.3146427197	-1.5859501471	-3.4747815437	-0.34184
C	-0.1034010948	-0.5897621576	-2.4624418266	-0.107087
H	 0.6509067559	 2.1450151895	-0.4420637012	 0.131624
H	-0.9931193145	 1.6867372944	-0.9100520846	 0.109209
H	-0.6119190135	 1.9725556974	 0.7900345995	 0.111034
H	 0.9032406067	-0.0009960836	 0.8396929051	 0.105053
H	-0.7047270893	-0.5055997254	 0.3426152099	 0.094255
H	 2.3669148223	-1.7237513713	-0.2142423938	 0.100425
H	 1.9144769882	-2.2888313107	-1.9047375154	 0.136468
H	 2.3866548718	 1.1578688563	-3.2735808836	 0.105575
H	 2.8959119493	-0.5131638319	-3.5678899019	 0.113434
H	 0.3371735318	 0.4084388494	-4.4463819896	 0.08794
H	-0.4654531954	-1.7748602633	-4.1002769383	 0.230498
H	-1.1541538052	-0.3331668569	-2.3825762395	 0.085023
88.4459	141.2912	210.8997	255.6462	299.4613	342.7282	411.7719	453.4024	545.9615	581.6677	705.6257	737.427	762.3321	804.0219	818.8751	860.6399	871.0404	899.4906	918.6294	962.9087	995.3005	1012.4121	1037.7307	1069.9736	1093.6847	1105.9108	1126.19	1136.3717	1159.5911	1176.9824	1229.5082	1241.0036	1252.1324	1299.5744	1323.7198	1357.3814	1371.9638	1395.3071	1406.1348	1426.8795	1478.9493	1485.0574	1497.8697	1500.6089	1509.3396	3021.0759	3035.7491	3037.9599	3069.8129	3081.1724	3100.7621	3102.5347	3114.1744	3147.9635	3172.1918	3202.0022	3490.9291
CCC12CN1CC1NC21	CC[C@]12CN1C[C@H]1N[C@@H]21	
InChI=1S/C7H12N2/c1-2-7-4-9(7)3-5-6(7)8-5/h5-6,8H,2-4H2,1H3	InChI=1S/C7H12N2/c1-2-7-4-9(7)3-5-6(7)8-5/h5-6,8H,2-4H2,1H3/t5-,6-,7-,9?/m1/s1
