12
gdb 50788	7.34415	0.60911	0.56246	2.3312	80.52	-0.2732	-0.0995	0.1738	1770.5114	0.077031	-431.667812	-431.659078	-431.658134	-431.702768	29.272	
N	 0.0882945502	 1.4614648362	 0.0067122554	-0.453591
C	 0.0704611352	 0.1871148692	 0.0005093763	 0.221843
N	-1.1079768633	-0.5642328868	 0.0071955918	-0.331131
C	-2.4255395025	-0.1122624166	 0.0246675278	 0.16025
O	-2.7922078547	 1.0281807888	 0.0370241571	-0.243347
C	 1.2572392279	-0.6305829691	-0.014328202	 0.040309
C	 2.2825225662	-1.2724577656	-0.0269117332	 0.102995
C	 3.4379637965	-1.9985238536	-0.0410621726	 0.209782
N	 4.418397323	-2.621266956	-0.0531104293	-0.3169
H	 1.0486182227	 1.8023655186	 0.0000642197	 0.246878
H	-0.988882254	-1.5661013357	-0.0006356668	 0.27031
H	-3.1131055074	-0.9816800194	 0.0256982359	 0.092601
35.0593	68.8881	118.5463	202.1121	234.0484	240.4654	323.187	356.0671	536.0563	559.8041	577.8687	589.3873	623.0042	720.4665	871.7469	919.2157	948.331	1023.5714	1146.8702	1170.9192	1321.442	1446.9061	1535.8455	1676.5646	1851.3847	2258.5637	2388.8985	2935.9623	3506.3578	3625.0131
N=C(NC=O)C#CC#N	N=C(NC=O)C#CC#N	
InChI=1S/C5H3N3O/c6-3-1-2-5(7)8-4-9/h4H,(H2,7,8,9)	InChI=1S/C5H3N3O/c6-3-1-2-5(7)8-4-9/h4H,(H2,7,8,9)
