14
gdb 132619	3.15054	1.39121	0.96613	2.2674	69.46	-0.2003	-0.0178	0.1825	1112.849	0.102169	-478.043626	-478.036181	-478.035237	-478.075307	29.046	
N	-0.0023329845	 1.4326230912	-0.0839166312	-0.601049
C	-0.0403788219	 0.0337955704	-0.0312314469	 0.132571
C	-1.2210600157	-0.7134321158	-0.005711273	-0.130743
C	-1.1806649919	-2.1018714485	-0.019916396	-0.210032
C	 0.0680156656	-2.7179780292	-0.0649177695	 0.423424
O	 0.1488582493	-4.068404787	-0.0835888344	-0.424992
N	 1.2084614949	-2.0314399105	-0.0875804281	-0.412248
C	 1.1329775666	-0.7228121926	-0.0688835667	 0.291723
F	 2.2951160295	-0.0551606141	-0.0829685864	-0.086876
H	 0.8937909524	 1.8103734148	 0.190802183	 0.254724
H	-0.7537737042	 1.8818336687	 0.4209840394	 0.248176
H	-2.1761938953	-0.198009376	 0.0222948573	 0.104667
H	-2.082265446	-2.6998698042	 0.0014085149	 0.111053
H	 1.0902610611	-4.2834754069	-0.1137981321	 0.299603
139.1119	247.2496	255.2828	295.7504	344.1709	368.4768	461.6196	489.812	492.2431	543.666	587.35	667.6068	685.4149	749.4077	766.682	818.5783	845.9145	951.8614	1003.1002	1076.551	1154.528	1204.1253	1252.0679	1327.4714	1345.9339	1402.2268	1494.1976	1521.9765	1635.9377	1645.7826	1681.2377	3178.8588	3220.72	3553.5538	3651.855	3786.6593
NC1=CC=C(O)N=C1F	Nc1ccc(O)nc1F	
InChI=1S/C5H5FN2O/c6-5-3(7)1-2-4(9)8-5/h1-2H,7H2,(H,8,9)	InChI=1S/C5H5FN2O/c6-5-3(7)1-2-4(9)8-5/h1-2H,7H2,(H,8,9)
