20
gdb 91633	2.87807	1.782	1.55719	1.7548	77.27	-0.2357	0.0964	0.3321	955.4103	0.173985	-403.124354	-403.117376	-403.116432	-403.155254	29.542	
C	-0.1071538084	 1.5449043417	-0.0303273603	-0.404589
C	 0.0503145878	 0.0350814146	 0.0243216059	 0.162657
O	 0.8404853628	-0.4371730363	-1.1044265394	-0.303693
C	 1.8818131103	-1.2606540367	-0.5435052705	 0.092365
C	 1.1661569582	-1.9324576383	 0.634250682	-0.267963
C	 0.810091642	-0.5568744844	 1.2388861235	-0.026063
N	 2.0736748755	 0.2275631899	 1.31268558	-0.098179
C	 3.3122343882	-0.5357829507	 1.5215657716	-0.270283
C	 2.8381429198	-0.2823506537	 0.1366485748	-0.021018
H	 0.8522439047	 2.0444201822	 0.110883478	 0.139428
H	-0.5252497075	 1.8368953489	-0.9979117939	 0.119326
H	-0.7936433769	 1.8821148502	 0.7539719758	 0.107641
H	-0.9410991256	-0.4366352415	-0.0374403954	 0.070449
H	 2.2946845674	-1.888766829	-1.3324422708	 0.077918
H	 0.2876124602	-2.4881857259	 0.3028279386	 0.110793
H	 1.780166275	-2.5811395645	 1.2568381739	 0.103304
H	 0.2579844955	-0.5353549034	 2.1789636604	 0.07368
H	 4.1233484205	 0.0787350735	 1.9012055489	 0.120079
H	 3.2863894723	-1.53458656	 1.9434833854	 0.114094
H	 3.3208022281	 0.4593234034	-0.4926951586	 0.100055
171.5581	216.5539	261.2471	364.3633	393.3161	483.742	514.6436	541.2678	586.3432	705.141	764.85	808.3514	824.6163	845.1717	871.263	890.7379	936.5173	950.9434	983.6585	989.2288	1015.2224	1053.0431	1057.5911	1086.7394	1098.4948	1109.9075	1138.3812	1141.1994	1161.4242	1219.4175	1246.9246	1271.5081	1293.2362	1297.1176	1306.7097	1346.5899	1372.4411	1389.2184	1410.4623	1483.0302	1486.8382	1494.7832	1527.6154	2992.3093	3043.8311	3094.7274	3108.3374	3114.6433	3122.2233	3126.3704	3147.7166	3148.8851	3157.4337	3202.7756
CC1OC2CC1N1CC21	C[C@H]1O[C@@H]2C[C@H]1N1C[C@@H]21	
InChI=1S/C7H11NO/c1-4-5-2-7(9-4)6-3-8(5)6/h4-7H,2-3H2,1H3	InChI=1S/C7H11NO/c1-4-5-2-7(9-4)6-3-8(5)6/h4-7H,2-3H2,1H3/t4-,5-,6+,7-,8?/m1/s1
