20
gdb 9962	2.45544	1.73332	1.48082	1.9968	71.03	-0.2276	0.054	0.2815	1001.2632	0.17487	-386.121034	-386.111588	-386.110644	-386.154478	35.286	
C	 0.2610793587	 1.3532500311	 0.3531023034	-0.38448
C	-0.2242051872	 0.0069867936	-0.2001490644	-0.231269
C	 0.6082678463	-0.5228144706	-1.3579338446	 0.259088
C	 0.4440139721	 0.2102615994	-2.6770004908	-0.460037
C	 1.9921114957	-1.077148012	-1.0887512717	-0.012026
O	 2.4006670833	-1.1301842144	 0.2604862432	-0.42753
C	 0.8687992841	-2.0232783628	-1.4540855849	 0.042565
O	 0.4252178685	-2.893223722	-0.4585966791	-0.433908
H	 1.2828222554	 1.2663549479	 0.7327647135	 0.131286
H	 0.2488818121	 2.1374843126	-0.4111116162	 0.109573
H	-0.3803379383	 1.6878479149	 1.1747689921	 0.107455
H	-0.2424380216	-0.7321300044	 0.6044056016	 0.099946
H	-1.2623652667	 0.0988866966	-0.5453617702	 0.092472
H	 0.7557212416	 1.2579727612	-2.6007075459	 0.120019
H	 1.041608129	-0.2506013386	-3.4708972826	 0.109861
H	-0.6031727263	 0.1922964442	-3.0004192236	 0.119734
H	 2.7904846363	-0.8548278228	-1.7946375813	 0.084753
H	 3.1638333921	-1.7162112385	 0.3124423383	 0.296247
H	 0.8469944412	-2.4877153712	-2.43647145	 0.092982
H	 0.9487476735	-2.6853817041	 0.3281439731	 0.283268
86.51	139.7242	192.6734	202.5356	235.1627	258.6031	279.622	295.4792	314.3214	362.8009	497.5659	523.7226	570.431	662.4063	689.684	781.0016	825.9929	840.6654	953.1699	1008.3874	1025.7077	1046.4235	1060.8109	1087.3547	1125.3237	1149.2594	1182.1444	1222.4208	1251.0889	1305.9256	1316.0747	1338.7836	1372.8749	1405.1046	1410.2139	1415.8196	1468.3668	1484.7931	1495.4715	1500.1136	1505.2609	1511.3587	3021.424	3025.6688	3036.4042	3085.2981	3088.9873	3089.6316	3104.9886	3110.6722	3119.6696	3140.2269	3733.5466	3801.3058
CCC1(C)C(O)C1O	CC[C@@]1(C)[C@@H](O)[C@H]1O	
InChI=1S/C6H12O2/c1-3-6(2)4(7)5(6)8/h4-5,7-8H,3H2,1-2H3	InChI=1S/C6H12O2/c1-3-6(2)4(7)5(6)8/h4-5,7-8H,3H2,1-2H3/t4-,5+,6-
