17
gdb 56691	2.66372	1.32149	1.13689	2.763	69.5	-0.2515	0.0139	0.2655	1116.865	0.132771	-458.890211	-458.88083	-458.879886	-458.924508	34.515	
O	-0.2423865752	 1.3682675164	 0.094400213	-0.408119
C	 0.0113901897	-0.0225161967	 0.0126446606	-0.104609
C	 0.7484704739	-0.3922903189	-1.2028249088	 0.248144
C	 1.4101345216	-0.6974914391	-2.1604710457	-0.425747
C	 0.7476947129	-0.5799681368	 1.2540033822	 0.333597
O	 0.8155531147	-1.9805868409	 1.1911576836	-0.472517
C	 2.0409904331	 0.1718291507	 1.6615495763	-0.128926
O	 1.3966632239	 0.7214142472	 2.8237569279	-0.269771
C	 0.2088044892	-0.0691476556	 2.6023118861	-0.114204
H	 0.5934778752	 1.8374773631	-0.0049250031	 0.29573
H	-0.9766455807	-0.4976195673	-0.0075370933	 0.132852
H	 1.9672650812	-0.9586984028	-3.0269891251	 0.210282
H	 1.1837485859	-2.2221794387	 0.3312384699	 0.284278
H	 2.8630488457	-0.5088651021	 1.915368327	 0.106602
H	 2.4167366889	 0.9510207461	 0.9841985244	 0.084288
H	-0.6930677241	 0.5489312642	 2.563440289	 0.118096
H	 0.0956918339	-0.8710319988	 3.3408717458	 0.110024
64.741	83.4385	133.707	207.2803	257.4346	286.4566	306.5443	367.2724	387.0925	415.7342	456.8119	523.1599	597.161	639.5262	686.7603	702.0439	834.1808	898.2253	951.7333	971.4895	996.8487	1034.8807	1044.9092	1089.5854	1152.4952	1158.4678	1186.741	1247.3961	1270.4238	1297.6843	1308.244	1358.1017	1408.46	1410.4218	1494.8472	1524.2987	2222.7117	2999.9156	3034.5436	3047.9751	3051.7996	3094.7469	3497.8188	3764.5339	3810.9007
OC(C#C)C1(O)COC1	O[C@@H](C#C)C1(O)COC1	
InChI=1S/C6H8O3/c1-2-5(7)6(8)3-9-4-6/h1,5,7-8H,3-4H2	InChI=1S/C6H8O3/c1-2-5(7)6(8)3-9-4-6/h1,5,7-8H,3-4H2/t5-/m0/s1
