23
gdb 119731	3.19355	1.06846	0.94272	0.8518	86.02	-0.2352	0.0838	0.319	1387.3207	0.205219	-388.264662	-388.255217	-388.254272	-388.299994	35.409	
C	-0.0587064813	 1.5047401406	-0.2001813563	-0.38376
C	-0.0030859664	-0.0052906554	-0.0387800557	-0.063355
O	-1.3315131708	-0.5026912253	-0.0382891282	-0.30183
C	-1.4240600692	-1.8880415809	 0.104100235	 0.46523
C	-1.004665005	-2.7673508269	-1.1112098911	-0.288364
C	-2.4057527379	-3.4550529241	-1.0825012421	-0.223042
C	-2.8314707881	-2.5730693518	 0.1212761118	-0.086091
C	-2.5070827236	-3.1817889408	 1.5114057376	-0.223044
C	-1.1068995338	-2.4916858625	 1.5044783353	-0.288364
H	 0.9508794271	 1.9267168368	-0.2051646547	 0.112348
H	-0.5522240141	 1.7718477463	-1.1390298931	 0.125051
H	-0.6211193623	 1.9574754416	 0.6214423804	 0.125052
H	 0.5745813022	-0.4589913287	-0.8598014125	 0.089273
H	 0.5057166085	-0.2733379226	 0.9008430451	 0.089273
H	-0.8479717732	-2.1658042086	-2.0100072314	 0.104668
H	-0.1366687503	-3.4168788197	-0.9670742616	 0.09009
H	-2.9906986938	-3.2792429853	-1.9880796926	 0.102455
H	-2.4011318698	-4.5305981843	-0.8847400599	 0.094944
H	-3.7558388211	-2.0035705114	 0.0251767749	 0.067309
H	-3.1587717943	-2.8262569217	 2.3126800702	 0.102456
H	-2.4958578055	-4.274869302	 1.542681289	 0.094945
H	-0.2356214958	-3.1498245132	 1.566180121	 0.090089
H	-1.0152802415	-1.7149738502	 2.2677432788	 0.104667
32.1577	72.8053	107.4208	139.2636	245.563	276.4001	309.6947	385.574	398.6648	422.3795	612.2531	668.5694	742.7386	753.0511	822.2358	831.4137	868.9591	882.3649	906.5016	928.353	955.5139	982.2896	1013.8168	1033.1748	1071.9095	1106.1278	1132.0929	1162.2318	1168.6905	1176.1934	1189.6575	1226.7874	1227.8272	1230.9124	1246.5314	1271.1567	1288.2561	1299.4638	1301.9881	1321.8141	1400.3975	1429.1912	1464.0392	1473.4939	1482.4209	1483.4216	1499.5862	1500.7863	1528.403	2970.4922	2996.9772	3043.6078	3049.236	3051.52	3057.1725	3060.4214	3095.9099	3096.1384	3110.0319	3114.6058	3117.7533	3120.3367	3121.7736
CCOC12CCC1CC2	CCO[C@]12CC[C@H]1CC2	
InChI=1S/C8H14O/c1-2-9-8-5-3-7(8)4-6-8/h7H,2-6H2,1H3	InChI=1S/C8H14O/c1-2-9-8-5-3-7(8)4-6-8/h7H,2-6H2,1H3/t7-,8-
