18
gdb 78198	2.25729	1.62523	1.42191	1.5961	77.81	-0.2032	0.0344	0.2375	1026.8672	0.145775	-401.847767	-401.838899	-401.837954	-401.880817	33.817	
C	-0.2870880396	 1.5248580521	-0.0786479681	-0.329344
N	 0.0868358885	 0.1195053696	-0.0699520315	-0.088217
C	 0.6727754757	-0.4894286739	-1.2545095564	-0.081422
C	 2.1002414209	-0.1000790306	-1.5363907573	 0.101226
O	 2.6484181916	 1.1572560306	-1.2773793023	-0.412244
C	 1.8415424256	-1.0636357099	-0.4259813413	-0.151863
C	 1.2005356499	-0.3862947813	 0.7990862239	-0.151719
C	 1.9745152611	 0.5591424099	 1.5889437344	 0.366378
C	 2.5684852837	 1.3161926932	 2.3098638417	-0.479628
H	 0.5523974374	 2.2159719619	-0.2320688319	 0.114065
H	-1.0220293779	 1.6757597709	-0.8767953915	 0.113595
H	-0.7706892458	 1.7778117907	 0.8703122894	 0.123705
H	 0.0337097087	-0.9638866006	-1.9938590191	 0.090928
H	 2.5048298487	-0.600012549	-2.4202888337	 0.089835
H	 2.319766594	 1.7671869233	-1.9461908067	 0.286789
H	 2.2572619824	-2.0621299005	-0.4062058349	 0.102029
H	 0.7930166514	-1.145301219	 1.47938641	 0.111073
H	 3.1172853437	 1.9921864423	 2.9175789252	 0.194811
115.7664	131.7756	168.8451	205.5307	232.0281	292.6575	325.56	340.872	438.3648	546.9409	556.9796	607.7479	664.7544	669.3967	684.6574	773.7797	820.4727	840.0631	921.4805	974.215	1016.0012	1026.2358	1057.2523	1068.1057	1098.6902	1152.6769	1196.6009	1218.4221	1244.9238	1266.8319	1282.5946	1298.4078	1342.7966	1353.2052	1443.1988	1459.1386	1480.2401	1516.1476	2230.3112	3007.346	3011.459	3070.7647	3074.0594	3098.9115	3146.6817	3202.2373	3503.9763	3808.7894
CN1C2C(O)C2C1C#C	CN1[C@H]2[C@@H](O)[C@H]2[C@H]1C#C	
InChI=1S/C7H9NO/c1-3-4-5-6(7(5)9)8(4)2/h1,4-7,9H,2H3	InChI=1S/C7H9NO/c1-3-4-5-6(7(5)9)8(4)2/h1,4-7,9H,2H3/t4-,5+,6-,7+/m1/s1
