18
gdb 34945	3.6247	1.51414	1.33009	1.3999	80.99	-0.2298	0.0464	0.2762	993.0067	0.149765	-364.721563	-364.714737	-364.713793	-364.752508	28.582	
C	-0.0255882375	-1.1956707409	-0.062815026	-0.431228
C	 0.0085162687	 0.0046848913	 0.0083139237	 0.283857
C	 0.047149179	 1.4553128351	 0.0653574491	-0.160874
C	-0.3167158612	 2.0968147568	 1.432674158	-0.081117
C	 0.8074122273	 1.530652579	 2.3175089411	-0.172949
N	 1.7558418485	 2.3890018238	 1.529224338	-0.146402
C	 0.606592642	 3.3805903824	 1.3327472695	-0.000739
C	 1.0827481993	 3.614596195	-0.1003158486	-0.248761
C	 1.4623744821	 2.1254959481	 0.0363619526	-0.012926
H	-0.0578632047	-2.255256386	-0.1235025665	 0.191884
H	-0.5713523702	 1.8539131295	-0.7455451822	 0.101521
H	-1.3686474899	 2.1155485361	 1.7192835134	 0.07134
H	 0.7868351593	 1.9021743432	 3.3459518153	 0.105846
H	 0.9943475358	 0.4543744092	 2.3086588181	 0.119386
H	 0.4732672584	 4.1676148499	 2.0761772646	 0.081
H	 0.376312567	 3.9046554141	-0.8810059204	 0.097755
H	 1.9584752324	 4.2660903235	-0.1066574254	 0.116552
H	 2.2443402238	 1.6433947699	-0.5466640044	 0.085855
145.2627	152.067	356.4855	426.8384	434.8501	474.4287	534.5912	621.8425	631.4284	691.5737	736.2254	751.5461	821.3053	843.1866	868.7302	888.8367	937.5178	951.7691	972.9157	1002.4104	1017.1185	1035.3394	1052.028	1077.9091	1102.7822	1142.7944	1174.1152	1185.6301	1206.8836	1226.91	1245.0394	1252.7851	1284.3315	1291.5102	1314.0243	1366.7046	1484.887	1503.7338	2231.5887	3049.6334	3059.3641	3071.0845	3104.1774	3114.548	3120.1442	3134.1345	3142.4996	3503.672
C#CC1C2CN3C2CC13	C#C[C@H]1[C@H]2CN3[C@H]2C[C@H]13	
InChI=1S/C8H9N/c1-2-5-6-4-9-7(5)3-8(6)9/h1,5-8H,3-4H2	InChI=1S/C8H9N/c1-2-5-6-4-9-7(5)3-8(6)9/h1,5-8H,3-4H2/t5-,6+,7+,8-/m0/s1
