21
gdb 38904	3.41342	1.46609	1.15993	0.3854	88.41	-0.2184	0.0257	0.2441	1114.7963	0.186223	-349.96532	-349.958152	-349.957208	-349.996705	30.009	
C	 0.0548857691	 1.5573801557	 0.1597060846	-0.274196
C	 1.2948178713	 0.7407973165	-0.0811813731	-0.024269
C	 2.16641429	 0.3987123407	 1.1448292954	-0.278914
C	 1.4550296423	-0.8092689142	 1.8013592208	-0.014111
C	 1.3277402413	-0.9875819047	 3.3239446421	-0.240252
C	-0.0738400086	-1.6459480313	 3.4952359917	-0.24256
C	-0.8345995568	-1.1490662602	 2.2769161942	-0.251081
C	 0.0089029497	-0.682849433	 1.3578654023	 0.380291
C	-0.0577647101	 0.0460795319	 0.0658163864	-0.181167
H	-0.0831883209	 2.0202738351	 1.131967282	 0.110127
H	-0.3429015598	 2.1322488818	-0.6706167099	 0.107649
H	 1.7716866921	 0.8166378728	-1.0519012124	 0.081898
H	 3.1929845372	 0.1664212748	 0.8482181864	 0.096229
H	 2.2171907551	 1.2480258618	 1.8372948146	 0.097611
H	 1.8715660953	-1.7257696109	 1.3532243121	 0.074457
H	 2.1332490047	-1.5738102946	 3.7750865864	 0.089459
H	 1.3227450065	-0.0023092278	 3.8059849351	 0.09601
H	 0.0015867361	-2.7440196744	 3.50044041	 0.100401
H	-0.5554328644	-1.3689606866	 4.4398600681	 0.097721
H	-1.9158535536	-1.1804352794	 2.202953354	 0.084736
H	-0.5814690463	-0.3757430342	-0.7849870411	 0.08996
127.1129	150.6367	283.5189	344.4539	386.4424	429.5099	560.9082	588.1192	657.2925	693.4803	785.3873	798.9537	815.4934	832.701	867.6751	902.8221	914.8	936.9556	952.1235	982.0427	995.1147	1005.1345	1062.8347	1073.1164	1089.0725	1096.5446	1104.3356	1154.8511	1173.6702	1190.0562	1213.3591	1220.6323	1260.6761	1283.2125	1301.2401	1306.5622	1332.2549	1340.4448	1358.8628	1371.4181	1481.2541	1483.2112	1496.0404	1501.3919	1731.7352	2966.6027	2992.3093	3027.7968	3033.2462	3056.3925	3084.511	3091.6588	3120.0874	3162.2826	3170.7071	3191.8493	3207.65
C1C2CC3CCC=C3C12	C1[C@H]2C[C@H]3CCC=C3[C@@H]12	
InChI=1S/C9H12/c1-2-6-4-7-5-9(7)8(6)3-1/h3,6-7,9H,1-2,4-5H2	InChI=1S/C9H12/c1-2-6-4-7-5-9(7)8(6)3-1/h3,6-7,9H,1-2,4-5H2/t6-,7-,9+/m1/s1
