17
gdb 98093	4.30346	0.90835	0.79196	1.214	72.84	-0.2345	-0.0683	0.1662	1434.1376	0.134567	-455.131727	-455.122112	-455.121168	-455.167527	33.098	
C	 0.2008652614	 1.4105004993	 0.0549029262	-0.310718
N	-0.0446165511	-0.002430647	-0.1273683969	-0.289989
C	-1.2908588608	-0.5282163233	-0.0651025527	 0.254874
N	-2.3190564679	 0.1750627814	 0.2555284017	-0.537722
C	-1.3055596918	-2.0037707714	-0.4450553435	 0.329655
O	-0.3540718903	-2.512072869	-0.9944830996	-0.317175
C	-2.5540269038	-2.7908003257	-0.1476636927	-0.047289
C	-3.1874771954	-3.5605243253	-1.2432016761	-0.156611
O	-2.4195740188	-4.2027745722	-0.2440281596	-0.202965
H	 1.2778651983	 1.5884718843	 0.0499209106	 0.124254
H	-0.2685192415	 2.0134180455	-0.7331441923	 0.132878
H	-0.2137595033	 1.7426586083	 1.0111533209	 0.149329
H	 0.6551515186	-0.5951922267	-0.5449222448	 0.263293
H	-3.1654872814	-0.3872115713	 0.2647731676	 0.21824
H	-3.1744894607	-2.4462869912	 0.6763240615	 0.122211
H	-4.2618817762	-3.7341740439	-1.2111256001	 0.129964
H	-2.7305222054	-3.5260713819	-2.2304331902	 0.13777
43.6449	57.8116	100.0324	127.7998	172.375	249.0975	273.4409	327.8945	349.737	457.8384	479.8558	551.7786	723.0268	790.7464	797.8411	825.8482	877.6713	912.4199	969.2331	1021.4897	1095.576	1131.4245	1157.0682	1164.2805	1175.3211	1182.0212	1195.3117	1278.7094	1330.212	1416.2023	1455.0696	1475.2232	1511.3597	1513.879	1562.1378	1693.0946	1789.396	3021.3724	3086.5899	3089.8501	3135.3981	3141.51	3187.2658	3531.3568	3638.8693
CNC(=N)C(=O)C1CO1	CNC(=N)C(=O)[C@H]1CO1	
InChI=1S/C5H8N2O2/c1-7-5(6)4(8)3-2-9-3/h3H,2H2,1H3,(H2,6,7)	InChI=1S/C5H8N2O2/c1-7-5(6)4(8)3-2-9-3/h3H,2H2,1H3,(H2,6,7)/t3-/m1/s1
