21
gdb 79867	2.85582	1.53252	1.34359	1.3032	82.07	-0.2513	0.0747	0.3259	1070.36	0.183812	-387.064717	-387.056625	-387.05568	-387.096749	32.65	
C	-0.1988746181	 1.5923133896	-0.0144492672	-0.446679
C	-0.0054944681	 0.0827664763	 0.0087534937	-0.026942
C	 1.2334123742	-0.5870742286	-0.6504451355	-0.083097
C	 2.148042211	-0.1461957296	 0.5370794756	-0.084082
C	 3.197951285	-1.2256645773	 0.802836765	-0.240645
C	 2.3380229311	-2.50101137	 0.5739175909	-0.250366
C	 0.9961289676	-1.8523236975	 0.2393938429	-0.034912
C	 0.7812784227	-0.6170909873	 1.1538043174	 0.385824
O	 0.4526099469	-0.7334645796	 2.495686746	-0.482651
H	 0.7195877159	 2.1440326809	 0.2052841363	 0.114111
H	-0.5538238209	 1.9237266874	-0.9965030948	 0.118822
H	-0.9547556997	 1.8968703038	 0.7192094792	 0.112858
H	-0.949327705	-0.4211310167	-0.233170295	 0.061447
H	 1.5018298937	-0.5838322152	-1.7059159434	 0.069385
H	 2.4541543998	 0.8969112754	 0.6222860003	 0.055205
H	 4.0481217496	-1.1571044053	 0.1167039887	 0.092887
H	 3.5921629821	-1.1640800233	 1.8221472234	 0.098575
H	 2.7117173716	-3.1227028369	-0.245727191	 0.093032
H	 2.2744879727	-3.1318904809	 1.4654576384	 0.10543
H	 0.1374319453	-2.4899355699	 0.0200166574	 0.060272
H	 0.4529858826	 0.1462377447	 2.8880909216	 0.281527
173.9229	196.0653	202.2243	217.5841	245.4344	268.0822	390.6179	477.2313	507.157	642.1685	664.6583	730.4881	758.4551	792.734	830.2676	894.0201	911.8786	920.537	936.5533	970.648	996.239	1007.7311	1030.3267	1067.4489	1074.7862	1096.6828	1112.6395	1127.1562	1179.2149	1181.2274	1216.3296	1247.3706	1249.7451	1254.0031	1282.268	1287.2571	1313.3416	1332.9156	1392.1165	1413.4311	1436.9023	1486.1581	1494.9942	1502.5915	1508.7517	3025.8016	3031.0761	3042.8345	3053.2368	3076.8923	3083.8855	3097.0855	3098.9336	3102.9233	3114.8407	3126.8317	3807.4233
CC1C2C3CCC2C13O	C[C@H]1[C@H]2[C@@H]3CC[C@H]2[C@]13O	
InChI=1S/C8H12O/c1-4-7-5-2-3-6(7)8(4,5)9/h4-7,9H,2-3H2,1H3	InChI=1S/C8H12O/c1-4-7-5-2-3-6(7)8(4,5)9/h4-7,9H,2-3H2,1H3/t4-,5-,6+,7-,8-/m0/s1
