21
gdb 58040	1.91288	1.38311	0.96596	1.872	80.47	-0.2545	0.0383	0.2928	1317.7403	0.179154	-424.196821	-424.186061	-424.185117	-424.232376	40.084	
C	 0.0350307769	 1.5352145234	 0.2942107451	-0.38998
C	-0.0136131442	 0.0613541882	-0.0814715708	 0.13992
O	 0.8129679972	-0.6434439617	 0.8275549649	-0.439293
C	-1.4839198575	-0.4876131173	-0.0665734273	-0.210314
C	-2.1629039671	-0.0948789917	-1.2976272074	 0.317403
C	-2.6704336151	 0.1976632863	-2.3493543819	-0.469728
C	-1.5027369623	-2.0279574149	 0.1282052664	 0.108431
C	-2.8979312437	-2.6407443462	 0.0718336911	-0.411768
O	-0.606492264	-2.6601422111	-0.7869748035	-0.44505
H	 1.0558874329	 1.9152949699	 0.2054124983	 0.122757
H	-0.6183817771	 2.1212561572	-0.3578327436	 0.124814
H	-0.2900712961	 1.6703122604	 1.3311504233	 0.121259
H	 0.3649355239	-0.0641500152	-1.1047706763	 0.074012
H	 0.9577527902	-1.515443349	 0.4398990016	 0.296054
H	-2.0086365928	-0.0486353414	 0.7930351427	 0.103211
H	-3.1377166526	 0.4799638467	-3.2604634768	 0.199395
H	-1.0652047446	-2.2165132681	 1.1120221203	 0.103835
H	-3.5455532218	-2.2089572765	 0.8421350396	 0.118189
H	-3.3685493855	-2.4627014326	-0.9002667105	 0.125365
H	-2.8337145289	-3.7193633568	 0.2375736021	 0.124274
H	-0.9200906677	-2.4659318697	-1.6790302374	 0.287214
63.6332	77.6751	138.5605	173.9969	184.9137	241.8131	244.2006	305.2905	331.5148	375.2586	402.2829	421.8076	461.8228	511.4077	537.3033	578.4689	631.6857	648.2981	673.025	815.55	881.5006	919.379	947.1952	980.4907	1044.462	1057.5051	1082.5304	1115.2629	1133.4861	1176.2635	1245.3499	1258.9585	1301.3107	1339.7618	1349.8608	1381.7289	1399.9836	1406.0616	1437.7549	1444.9994	1485.196	1489.3062	1496.5372	1498.4418	2221.3327	3005.2333	3020.5943	3038.3276	3042.1252	3079.7238	3110.3784	3114.9356	3122.2256	3127.8558	3501.3897	3779.2551	3784.3442
CC(O)C(C#C)C(C)O	C[C@@H](O)[C@@H](C#C)[C@@H](C)O	
InChI=1S/C7H12O2/c1-4-7(5(2)8)6(3)9/h1,5-9H,2-3H3	InChI=1S/C7H12O2/c1-4-7(5(2)8)6(3)9/h1,5-9H,2-3H3/t5-,6-/m1/s1
