18
gdb 96711	2.94842	1.03196	0.81385	0.6436	83.78	-0.2464	-0.0239	0.2225	1432.9671	0.144496	-401.894125	-401.884409	-401.883464	-401.929477	34.796	
C	-0.3687694029	 1.3533284774	-0.062412676	-0.331425
N	-0.0893366566	-0.0642467363	 0.0120534992	-0.3135
C	 0.6141227441	-0.6350948141	-0.8733958414	 0.269644
O	 0.9061855882	-1.9591398096	-0.82148649	-0.255559
C	 0.3565374554	-2.6817207301	 0.2599916952	 0.165771
C	-0.920874961	-3.4321484829	 0.0332917461	-0.279165
C	 0.4057937888	-4.1656169253	 0.1096251048	-0.300488
C	 1.2166686594	-0.029050135	-2.0318822608	 0.287194
C	 1.7031798789	 0.5105351185	-2.9900003688	-0.42922
H	 0.0091680896	 1.8407098406	 0.843999752	 0.128972
H	 0.0620284889	 1.8577286092	-0.9367382609	 0.117745
H	-1.4545782223	 1.5034044128	-0.0704821189	 0.1294
H	 0.5324186556	-2.2184553953	 1.2233822817	 0.114344
H	-1.6206354824	-3.5131561354	 0.8572916386	 0.119411
H	-1.3762225262	-3.3398500617	-0.9459496899	 0.123556
H	 0.8129366784	-4.5494380835	-0.8187838921	 0.127605
H	 0.6303910317	-4.7619261011	 0.9865953324	 0.117823
H	 2.1378006527	 0.9780241017	-3.8394584711	 0.207891
53.4967	76.8166	113.4396	132.4231	176.3686	246.7364	285.4488	329.9418	367.1117	425.7785	524.0422	636.81	648.168	661.4094	720.4787	753.1531	789.5794	827.5664	849.7227	980.9065	983.78	1055.9086	1073.2778	1110.0709	1115.2933	1134.2552	1155.116	1180.8993	1191.3282	1234.2158	1286.0383	1391.1515	1443.1958	1455.8857	1488.485	1497.9138	1498.6271	1718.0502	2230.6521	3007.3517	3074.2369	3076.538	3139.9952	3142.9999	3182.9375	3223.3091	3237.4375	3498.0953
CN=C(OC1CC1)C#C	CN=C(OC1CC1)C#C	
InChI=1S/C7H9NO/c1-3-7(8-2)9-6-4-5-6/h1,6H,4-5H2,2H3	InChI=1S/C7H9NO/c1-3-7(8-2)9-6-4-5-6/h1,6H,4-5H2,2H3
