23
gdb 118784	3.0633	0.97065	0.82944	2.3527	83.68	-0.2514	0.0798	0.3312	1512.0409	0.201068	-425.409357	-425.397906	-425.396962	-425.446287	40.569	
C	-0.2832752895	 1.3639240765	-0.1320292517	-0.223945
O	-0.2311620228	-0.0414366892	-0.1422634743	-0.232573
C	 0.7934023568	-0.543335774	-0.9748645092	-0.113706
C	 0.7682001892	-2.0638426792	-0.9369693667	 0.307408
C	 0.6244893351	-2.6172464796	 0.4678525794	-0.466301
O	-0.0387208523	-2.6897767886	-1.9518895095	-0.328726
C	 1.388527311	-2.8424579094	-2.040021948	 0.335488
C	 2.0510662054	-2.1725568276	-3.2325968149	-0.458538
C	 1.9090055033	-4.2515362796	-1.8179820893	-0.455414
H	 0.6569585511	 1.805577274	 0.2363272654	 0.101741
H	-0.4822222412	 1.7731371671	-1.1352933356	 0.105866
H	-1.0967047589	 1.6566125096	 0.5361731436	 0.128531
H	 0.6481275123	-0.1839440427	-2.0012436185	 0.094206
H	 1.7775874045	-0.1804090107	-0.6256648172	 0.083515
H	-0.2634507798	-2.1895472709	 0.9371562811	 0.148595
H	 0.5310843846	-3.7021388797	 0.4709437403	 0.120751
H	 1.4903030672	-2.3378314189	 1.0790210055	 0.113418
H	 1.6349649106	-1.1901245487	-3.4527381127	 0.126103
H	 3.1283534804	-2.0651612199	-3.0639575585	 0.119028
H	 1.9182849125	-2.7971204234	-4.1228159021	 0.124007
H	 1.8104319716	-4.8283473496	-2.7442028144	 0.123202
H	 2.9714848721	-4.2341355641	-1.5509800449	 0.11799
H	 1.3626192671	-4.7806879015	-1.0383976379	 0.129352
56.6358	78.026	92.9744	141.972	145.9988	164.9745	187.358	236.1504	297.6771	316.6244	352.0149	377.2707	394.8646	463.0095	498.8201	545.0167	695.9995	745.3678	878.2955	911.3017	940.4356	951.654	992.2205	1003.7464	1033.3989	1102.3645	1150.9169	1155.8439	1172.7463	1190.1246	1212.8316	1226.3049	1256.7394	1287.6253	1398.859	1406.7871	1410.5118	1424.1405	1447.0974	1469.2706	1477.4541	1480.184	1483.2329	1485.5729	1495.8695	1497.7863	1507.6349	1519.7146	1529.9737	2938.2806	2967.4994	3010.3589	3032.9119	3036.5254	3041.7889	3048.5205	3090.9668	3097.0181	3114.9717	3123.3236	3149.4024	3150.4883	3165.2902
COCC1(C)OC1(C)C	COC[C@@]1(C)OC1(C)C	
InChI=1S/C7H14O2/c1-6(2)7(3,9-6)5-8-4/h5H2,1-4H3	InChI=1S/C7H14O2/c1-6(2)7(3,9-6)5-8-4/h5H2,1-4H3/t7-/m1/s1
