17
gdb 53199	4.01432	0.98368	0.88925	2.1513	81.04	-0.2456	-0.0016	0.244	1346.621	0.136355	-380.822481	-380.814024	-380.81308	-380.85737	30.297	
C	 0.0420242231	 1.5463662707	-0.0509866567	-0.498513
C	 0.0400312803	 0.0923764934	 0.0169147604	 0.054423
C	 0.0489123605	-1.1097350225	 0.0773270174	 0.117961
C	 0.0360724447	-2.5673898727	 0.1383588859	-0.190145
N	 0.5467977362	-3.0802470964	 1.4430919021	-0.193142
C	-0.326493354	-3.887551182	 1.8895889942	 0.033854
N	-1.5013921574	-4.1589307683	 1.1224738613	-0.125178
C	-2.3610070176	-2.9406554191	 1.0462923664	-0.242042
C	-1.356877666	-3.2105976588	-0.0046150616	-0.032559
H	 0.7150142639	 1.9075514852	-0.8363016095	 0.150165
H	-0.9588178836	 1.9374343004	-0.2647203493	 0.147666
H	 0.373692761	 1.9839979299	 0.8969553662	 0.153083
H	 0.6945789583	-2.9613243091	-0.6474508672	 0.118479
H	-0.2131974122	-4.4119379828	 2.8344486432	 0.130395
H	-3.4100022485	-3.1438361529	 0.8573687433	 0.127874
H	-2.1561392824	-2.1429286733	 1.7546973946	 0.138568
H	-1.6701277162	-3.5670545417	-0.9792764306	 0.109109
20.2061	79.8113	96.2824	213.1249	271.6254	342.2083	369.7587	456.2261	497.0225	544.9082	706.4399	782.886	798.7532	839.9985	865.1715	929.0875	962.2608	978.1925	1028.2639	1039.9229	1052.4571	1054.5554	1089.9301	1109.9145	1163.5966	1182.6628	1248.5555	1279.0889	1314.7012	1330.8476	1374.0221	1414.2521	1477.3664	1478.3492	1497.6302	1678.3118	2374.4746	3012.5053	3027.6321	3088.4323	3090.068	3118.5843	3174.9873	3183.8764	3213.7983
CC#CC1N=CN2CC12	CC#C[C@H]1N=CN2C[C@@H]12	
InChI=1S/C7H8N2/c1-2-3-6-7-4-9(7)5-8-6/h5-7H,4H2,1H3	InChI=1S/C7H8N2/c1-2-3-6-7-4-9(7)5-8-6/h5-7H,4H2,1H3/t6-,7+,9?/m1/s1
