23
gdb 109351	2.92085	1.10857	0.89745	0.1599	93.53	-0.2255	0.0222	0.2477	1409.6919	0.206955	-351.17167	-351.162405	-351.161461	-351.205942	35.543	
C	 0.2013502238	 1.5902138991	-0.1651345848	-0.369829
C	-0.1436209238	 0.1060986068	 0.0520622762	-0.263486
C	 0.5858998756	-0.5242491154	 1.2217493934	 0.308375
C	-0.1097450643	-0.9423955314	 2.2848747509	-0.129726
C	 0.3457767758	-1.5478593903	 3.5883609174	-0.236537
C	 1.8401301664	-1.413040267	 3.9242894701	-0.259678
C	 2.7222966157	-2.1302780323	 2.9357862226	-0.049953
C	 2.817172354	-1.7732468048	 1.6578017786	-0.051095
C	 2.098593938	-0.5925048735	 1.0445418398	-0.350259
H	 1.2674678119	 1.7342980832	-0.3677693388	 0.116794
H	-0.3536790034	 1.9975778411	-1.0161543164	 0.110907
H	-0.0530468213	 2.1811681149	 0.7207775672	 0.117322
H	-1.2243140615	 0.0084907857	 0.2011180786	 0.09583
H	 0.09733275	-0.4474563529	-0.8672262528	 0.095652
H	-1.192703514	-0.830451438	 2.2237540438	 0.069398
H	-0.240163405	-1.0849029069	 4.3948350382	 0.097073
H	 0.0671950679	-2.6124014588	 3.6069241654	 0.10706
H	 2.0980246827	-0.3450655858	 3.9513146608	 0.106859
H	 2.012819357	-1.7974932803	 4.93452919	 0.093669
H	 3.2833430105	-2.9912464443	 3.2909500963	 0.082773
H	 3.4649170271	-2.3401212918	 0.9936200878	 0.085154
H	 2.3080668962	-0.5769686903	-0.0309046634	 0.100349
H	 2.5465254809	 0.339700663	 1.4256312692	 0.123349
58.5188	82.0717	156.3344	219.8514	225.4683	305.9724	312.2385	350.3947	390.6201	475.7845	519.6943	618.5757	670.5241	702.1732	784.1425	816.202	850.8028	875.8469	906.3723	931.8144	962.5808	973.0172	990.6908	1031.6966	1060.1479	1070.5582	1081.4242	1122.7532	1161.4562	1195.558	1225.7111	1245.5144	1277.0419	1285.7828	1340.9842	1348.1619	1370.8871	1380.2578	1399.7968	1405.62	1419.5004	1470.1844	1474.4985	1482.9619	1489.1423	1498.3791	1508.4531	1730.182	1738.9476	2974.5801	2992.0395	3000.2262	3006.7302	3023.9304	3033.8558	3049.9522	3061.5859	3071.3274	3103.3937	3106.1169	3113.5355	3142.6669	3167.4356
CCC1=CCCC=CC1	CCC1=CCCC=CC1	
InChI=1S/C9H14/c1-2-9-7-5-3-4-6-8-9/h3,5,8H,2,4,6-7H2,1H3	InChI=1S/C9H14/c1-2-9-7-5-3-4-6-8-9/h3,5,8H,2,4,6-7H2,1H3
