14
gdb 80227	2.28211	1.62163	1.19239	2.6185	65.56	-0.2606	-0.0451	0.2155	1028.2711	0.09914	-473.789943	-473.781979	-473.781035	-473.822655	29.209	
O	 0.1817109615	 1.1264600455	-0.0110023615	-0.404989
C	-0.1461538931	-0.2026378911	 0.045467419	 0.100011
C	-0.7325328216	-0.8455838135	 1.2218206415	-0.020994
O	-1.5710442037	 0.1083909044	 1.9158849116	-0.293724
C	-2.4725938366	 0.1326006986	 0.8288184492	 0.381335
N	-3.5922222451	 0.6756599033	 0.7238269571	-0.543756
C	-1.6331319447	-0.738705725	-0.0321043404	 0.034945
C	-2.0195107206	-1.7468096847	-1.0287443695	 0.051788
O	-1.2518591158	-2.5736949474	-1.4670309705	-0.276849
H	-0.1858048806	 1.5572015769	 0.7725839158	 0.307903
H	 0.4879846504	-0.8245742071	-0.5795797667	 0.16414
H	-0.4177897705	-1.7283108246	 1.7632139318	 0.149074
H	-3.8588499791	 1.1810577213	 1.5692415505	 0.24162
H	-3.0760071906	-1.6909321168	-1.3605360879	 0.109496
108.0433	138.2493	159.9116	209.8796	249.2518	352.2337	400.5102	433.1755	568.8588	628.5292	659.5533	722.8744	733.276	806.8329	861.7143	886.0348	925.9701	968.2542	1001.962	1030.1287	1060.5782	1125.9697	1169.4163	1229.2706	1289.7118	1307.3749	1376.0711	1432.3864	1468.2568	1788.3986	1840.2855	2930.5906	3180.7704	3210.1479	3495.2778	3767.8314
OC1C2OC(=N)C12C=O	O[C@H]1[C@H]2O[C]([NH])[C@@]12C=O	
InChI=1S/C5H5NO3/c6-4-5(1-7)2(8)3(5)9-4/h1-3,6,8H	InChI=1S/C5H5NO3/c6-4-5(1-7)2(8)3(5)9-4/h1-3,6,8H/t2-,3+,5-/m0/s1
