18
gdb 113410	4.40219	0.99715	0.93117	1.9595	72.76	-0.2406	0.0694	0.31	1274.3924	0.147417	-438.966299	-438.958304	-438.957359	-438.999242	30.78	
O	 0.0663806369	 1.325697883	-0.6313805663	-0.4184
C	 0.0608539835	 0.2041242866	 0.2322402441	-0.059826
C	-1.3149721173	-0.4155439594	 0.316938407	-0.173425
N	-1.7334994717	-1.1032823832	-0.9470974993	-0.42471
C	-1.5473745367	-1.8658097507	 0.2578491356	 0.473527
C	-0.7591933336	-3.1717003923	 0.4590158289	-0.047687
C	-1.2714799363	-3.2125615793	 1.9206295948	-0.217289
C	-2.4589116854	-2.8631394339	 0.9888023906	-0.067785
O	-1.983288766	-3.9110806012	 0.0510800215	-0.310783
H	-0.2675108551	 1.0060879304	-1.4783959983	 0.291855
H	 0.7819733819	-0.5600242546	-0.0958401601	 0.089373
H	 0.3795017455	 0.5663273998	 1.2155400555	 0.108898
H	-2.0678642816	 0.193300591	 0.8155163047	 0.095845
H	-2.719980319	-0.9523657262	-1.1424633643	 0.239262
H	 0.1911565568	-3.494603972	 0.0368888375	 0.106134
H	-1.3206487627	-4.2130743437	 2.3499967058	 0.113834
H	-0.916272819	-2.451972748	 2.6202857171	 0.102131
H	-3.5274114303	-2.8179882765	 1.2019674451	 0.099048
70.0187	116.2668	178.6683	216.4587	332.3158	379.2369	439.0312	472.3866	511.763	643.8811	696.1461	752.4914	798.1418	833.6702	868.3652	906.7511	910.7003	940.0055	989.955	1004.5134	1027.7102	1057.7984	1067.362	1087.8257	1119.7659	1136.4056	1169.7033	1171.5446	1198.1172	1235.6294	1251.3915	1255.3416	1262.9987	1337.757	1387.772	1427.7035	1475.2452	1495.9717	1523.3567	2989.4188	3068.2513	3073.2867	3117.8521	3123.2005	3138.1117	3157.889	3503.3558	3787.1081
OCC1NC11C2CC1O2	OC[C@H]1N[C@]21[C@H]1C[C@@H]2O1	
InChI=1S/C6H9NO2/c8-2-3-6(7-3)4-1-5(6)9-4/h3-5,7-8H,1-2H2	InChI=1S/C6H9NO2/c8-2-3-6(7-3)4-1-5(6)9-4/h3-5,7-8H,1-2H2/t3-,4-,5+,6-/m1/s1
