21
gdb 119783	4.35129	0.87251	0.84118	2.0112	84.18	-0.2238	0.0088	0.2326	1483.9519	0.182883	-387.049567	-387.041001	-387.040057	-387.083486	32.75	
C	 0.08822131	 1.5346843176	 0.0759092653	-0.378586
C	 0.1446982525	 0.0053819196	 0.0648628665	-0.162601
C	 0.5516753564	-0.5652209371	-1.3088224418	-0.33596
C	 0.6466251543	-2.0519687004	-1.3283496624	 0.384431
C	-0.0300738392	-3.0008550519	-1.9836996164	-0.222056
C	 0.6569017582	-4.2820318816	-1.4809522174	 0.030724
C	 0.7144022716	-4.0291581588	 0.0560462792	-0.216353
C	 1.6452580542	-2.9226257173	-0.5223439802	-0.029942
O	 2.075108888	-3.8966314503	-1.5297812091	-0.286582
H	 1.0629078977	 1.9684812451	-0.1735121132	 0.116103
H	-0.636340223	 1.9091627484	-0.6557048498	 0.116269
H	-0.2044364479	 1.9150829672	 1.0593601496	 0.113497
H	 0.8538793007	-0.3419097507	 0.8270763073	 0.100279
H	-0.8318111767	-0.4074432423	 0.345571971	 0.101863
H	-0.1670556419	-0.2334128411	-2.0678219148	 0.103604
H	 1.5231156126	-0.1324895002	-1.5906744439	 0.107489
H	-0.8411227004	-2.9247014239	-2.6933374788	 0.103236
H	 0.4312089876	-5.2457904011	-1.9351993435	 0.078714
H	-0.200007642	-3.734326216	 0.5751323183	 0.095138
H	 1.2662646734	-4.8042391836	 0.5934719258	 0.105253
H	 2.4575765038	-2.4519833316	 0.0317142981	 0.07548
65.9965	86.0116	98.5944	242.2013	260.3127	295.228	353.9983	491.9652	558.8822	644.0746	684.1092	745.1036	788.1669	789.9551	835.1325	848.0651	879.4017	892.9014	903.6274	916.3649	935.1118	1022.1965	1037.8457	1058.4786	1074.0063	1099.7808	1110.5892	1158.1073	1198.1304	1217.5857	1234.1821	1255.1039	1259.6538	1295.6246	1306.1274	1311.5823	1330.661	1380.6801	1411.7663	1476.2842	1486.6598	1491.6717	1498.6884	1509.155	1682.9697	2996.2607	3023.8881	3030.3654	3045.3825	3061.2306	3064.9585	3098.321	3104.0324	3122.8477	3133.0812	3135.9756	3237.13
CCCC1=CC2CC1O2	CCCC1=C[C@@H]2C[C@H]1O2	
InChI=1S/C8H12O/c1-2-3-6-4-7-5-8(6)9-7/h4,7-8H,2-3,5H2,1H3	InChI=1S/C8H12O/c1-2-3-6-4-7-5-8(6)9-7/h4,7-8H,2-3,5H2,1H3/t7-,8-/m1/s1
