18
gdb 38366	2.62825	2.08315	1.50022	1.6672	72.72	-0.2238	0.0019	0.2257	909.1693	0.149949	-439.040766	-439.033928	-439.032984	-439.071577	28.061	
C	-0.1760830463	 1.5821554279	-0.0943183522	-0.265713
C	 1.3692829382	 1.6169442347	-0.0399395509	 0.102577
C	 2.0668746003	 2.1138586992	 1.2821764519	-0.099461
O	 2.5973654994	 1.0523472929	 2.1013350236	-0.201935
C	 1.720606764	 0.0397935926	 2.2066672835	 0.10818
N	 0.4725230411	 0.2538361725	 2.1935416635	-0.226357
C	-0.284698944	-0.6009597715	 1.3219427978	-0.192177
C	-0.0130089787	 0.0454825273	-0.0673433437	 0.126676
O	 1.4218748464	 0.1839987109	-0.2741608609	-0.279772
H	-0.7059977969	 2.0254938314	 0.7474859721	 0.123985
H	-0.5744962551	 1.9581303767	-1.0387893585	 0.102496
H	 1.8405918578	 2.1422685434	-0.8776798647	 0.086995
H	 2.9443240813	 2.7199641564	 1.0442129442	 0.113294
H	 1.359928513	 2.7227370321	 1.8524481897	 0.128668
H	 2.2297805888	-0.9329609677	 2.2284790104	 0.098151
H	 0.0432552983	-1.6551624827	 1.2975084331	 0.092502
H	-1.3568460657	-0.5705598832	 1.5438681488	 0.103301
H	-0.4722908619	-0.526705353	-0.8795073877	 0.078589
184.8223	258.0445	288.7973	350.8675	379.2709	392.6226	412.1479	582.0685	609.9778	699.0548	766.523	795.3403	883.5986	892.7543	924.7337	945.0977	970.883	998.1625	1000.8354	1019.8518	1059.6546	1082.6525	1115.8714	1156.0083	1185.4131	1228.6875	1238.7304	1268.7366	1282.6887	1298.9732	1333.2805	1343.2731	1366.7248	1376.4945	1408.497	1470.3006	1488.3721	1500.1193	1693.7675	2951.7854	3034.7978	3038.52	3060.8091	3061.2232	3071.119	3083.5424	3112.47	3152.1252
C1C2COC=NCC1O2	C1[C@H]2CO[CH][N]C[C@@H]1O2	
InChI=1S/C6H9NO2/c1-5-2-7-4-8-3-6(1)9-5/h4-6H,1-3H2/b7-4-	InChI=1S/C6H9NO2/c1-5-2-7-4-8-3-6(1)9-5/h4-6H,1-3H2/t5-,6+/m1/s1
