18
gdb 10267	1.99209	1.96804	1.07393	3.4218	70.01	-0.2532	-0.0574	0.1958	1104.2129	0.149658	-384.960606	-384.950968	-384.950023	-384.995846	33.047	
C	 0.0065551081	 1.55015165	 0.0043244065	-0.399216
C	-0.0085682161	 0.0155991873	 0.040941078	 0.001604
C	 0.7761722916	-0.5105001602	 1.2508218424	-0.399222
C	-1.4703805061	-0.5299768952	 0.0416316664	-0.140721
C	-2.207199463	-0.0368485046	-1.1951959326	 0.148575
O	-3.1959922312	 0.6462381507	-1.1765205188	-0.240905
C	-1.4547104736	-2.0515699576	 0.0242877804	 0.148568
O	-1.9275265968	-2.7512041806	 0.8796370223	-0.240915
H	 1.0366850833	 1.9189035656	-0.0151596589	 0.120701
H	-0.5104386662	 1.9500695797	-0.8728471455	 0.129954
H	-0.4814675552	 1.9648346007	 0.8930727945	 0.129505
H	 0.4778963209	-0.3556237116	-0.8730836882	 0.085035
H	 1.8041887488	-0.1360870968	 1.2280194842	 0.120703
H	 0.3175290348	-0.1747482189	 2.1872607753	 0.129512
H	 0.8167938114	-1.6033579776	 1.2765688111	 0.129944
H	-2.0134617749	-0.1952650484	 0.9297112976	 0.114155
H	-1.7449178028	-0.354580526	-2.1591700912	 0.081365
H	-0.946420463	-2.4929324665	-0.8649525535	 0.081358
53.6205	57.8806	87.2606	203.0563	205.2416	227.1379	263.9266	289.4412	356.8595	374.2292	458.4149	492.0737	551.3064	821.3358	912.2188	928.8437	932.4592	969.9648	983.2697	1042.3705	1109.8415	1151.5683	1165.6404	1186.0084	1246.7499	1261.732	1349.3937	1359.097	1407.5514	1421.1768	1428.942	1438.291	1482.8493	1492.4044	1504.4745	1506.294	1814.8747	1848.7582	2844.0366	2863.6514	2999.3346	3034.7726	3038.3861	3090.4055	3102.8702	3108.4634	3110.8406	3112.9541
CC(C)C(C=O)C=O	CC(C)C(C=O)C=O	
InChI=1S/C6H10O2/c1-5(2)6(3-7)4-8/h3-6H,1-2H3	InChI=1S/C6H10O2/c1-5(2)6(3-7)4-8/h3-6H,1-2H3
