13
gdb 49347	2.36412	1.87036	1.05118	2.9772	62.11	-0.2811	-0.0448	0.2363	1034.286	0.090002	-489.957256	-489.949701	-489.948756	-489.989935	26.686	
N	 0.0993659866	 1.3091101113	 0.0072398649	-0.402271
C	 0.0219719303	 0.0500634456	 0.0041773489	 0.084854
N	-1.2085924065	-0.6370186584	 0.0118856143	-0.227994
C	-1.2545442515	-2.0322897079	 0.0082766138	 0.407664
O	-0.3161265593	-2.7837463626	-0.0013322572	-0.340593
C	-2.7342143713	-2.3692364318	 0.0188186944	-0.211944
O	-3.4035367252	-1.1122333051	 0.0276798174	-0.238804
C	-2.5148571678	-0.0782401154	 0.0237147984	 0.528707
O	-2.8275709029	 1.0655904671	 0.0294222929	-0.322303
H	 1.078743516	 1.5928794806	 0.0003368184	 0.244967
H	 0.8423901862	-0.6721218903	-0.0043961529	 0.146301
H	-3.0132284203	-2.9402999476	-0.8718064803	 0.165711
H	-2.9993355545	-2.9454720256	 0.910355307	 0.165705
76.9567	145.9604	191.4024	212.8181	212.9031	370.5881	473.7837	578.8592	604.7277	628.6716	704.2376	760.5528	767.4476	850.8522	1023.502	1038.9129	1082.9321	1093.8839	1096.5801	1131.5706	1204.9801	1298.3264	1356.1935	1399.4163	1416.2918	1486.411	1735.7524	1852.9139	1940.2455	3061.1269	3103.8288	3108.1727	3495.4735
N=CN1C(=O)COC1=O	[NH][CH]N1C(=O)COC1=O	
InChI=1S/C4H4N2O3/c5-2-6-3(7)1-9-4(6)8/h2,5H,1H2	InChI=1S/C4H4N2O3/c5-2-6-3(7)1-9-4(6)8/h2,5H,1H2
