21
gdb 51861	3.80049	0.90065	0.76946	3.0087	85.62	-0.2449	-0.0213	0.2236	1494.9037	0.183103	-387.121499	-387.112612	-387.111668	-387.156035	33.132	
O	-0.1634076588	-0.0978525054	-0.0836144406	-0.242924
C	-0.0364975136	 1.0976850138	-0.0146979413	 0.159629
C	 1.2749447898	 1.8445211006	-0.0773964831	-0.283952
C	 1.3125196902	 2.8566421757	-1.2476146299	-0.033416
C	 2.5008965075	 3.8232208142	-1.1116410824	-0.208009
C	 2.6867229859	 4.6552147937	-2.3855669233	-0.216349
C	 2.9783454664	 3.7526248796	-3.5936057639	-0.237504
C	 2.0926587643	 2.5346145774	-3.6131525041	-0.06797
C	 1.3417507719	 2.1463396032	-2.5829768375	-0.041395
H	-0.9288651514	 1.7601466851	 0.0970950513	 0.068996
H	 1.3793636584	 2.3989440757	 0.8665918892	 0.112793
H	 2.0943275222	 1.1235239852	-0.1500071282	 0.120771
H	 0.3837341121	 3.4485821712	-1.188761081	 0.084019
H	 2.3530418503	 4.473108037	-0.2415090656	 0.091301
H	 3.4129868577	 3.2417522469	-0.9204276482	 0.100147
H	 1.7705437426	 5.2290801738	-2.5755670495	 0.1002
H	 3.492373472	 5.3848874805	-2.2526225912	 0.094199
H	 2.8548647322	 4.3153761133	-4.5275103295	 0.10408
H	 4.0318738816	 3.4348237755	-3.5842164382	 0.109128
H	 2.0780053084	 1.9527420997	-4.5321087026	 0.087916
H	 0.7180264402	 1.2599812932	-2.6780642403	 0.098339
51.0278	72.4573	107.1739	201.1807	270.7391	293.0288	327.1899	443.9054	460.8095	518.6639	552.7757	681.2544	735.9756	775.6769	835.0494	874.1441	900.8798	924.0957	970.1514	1005.3953	1010.931	1026.8063	1069.2082	1075.0324	1104.7183	1117.698	1160.318	1203.4851	1211.8967	1255.4733	1270.3257	1288.9723	1343.009	1346.5344	1370.2272	1376.1337	1379.6753	1426.902	1429.3909	1461.7516	1473.8257	1489.8058	1496.8256	1722.8363	1833.3808	2839.8718	2959.2194	2997.014	3011.6648	3016.9471	3022.8719	3041.7521	3063.4442	3073.3954	3098.9988	3139.0306	3162.0117
O=CCC1CCCC=C1	O=CC[C@H]1CCCC=C1	
InChI=1S/C8H12O/c9-7-6-8-4-2-1-3-5-8/h2,4,7-8H,1,3,5-6H2	InChI=1S/C8H12O/c9-7-6-8-4-2-1-3-5-8/h2,4,7-8H,1,3,5-6H2/t8-/m1/s1
