19
gdb 40461	3.94767	1.29532	1.21319	1.5195	78.44	-0.2499	0.0809	0.3308	1079.8649	0.160324	-385.813241	-385.806005	-385.805061	-385.845073	29.167	
C	 0.2957461934	 1.4813534478	 0.0564187773	-0.179689
O	 1.144793833	 0.3986468539	-0.3220974613	-0.235098
C	-0.2183169021	 0.1042010525	 0.0099313608	-0.078744
C	-0.4616782098	-0.6997812641	 1.2378577489	 0.360827
C	 0.4008147988	-0.5217769572	 2.5201664189	-0.287331
C	 0.0494328332	-1.9738139009	 2.8304684295	-0.066472
C	-1.4011029771	-2.2051009094	 2.3748728146	-0.063566
C	-1.9075590166	-0.8900823958	 1.7893162201	-0.284317
C	-0.2631833361	-2.2746591367	 1.3868371938	-0.131868
H	 0.5226875287	 1.9374942476	 1.0186905844	 0.114598
H	 0.0402856102	 2.1790068575	-0.7401114934	 0.11415
H	-0.8257139003	-0.1737007784	-0.8539165771	 0.08759
H	 1.4571215415	-0.4092615282	 2.2643627964	 0.116691
H	 0.0969035767	 0.2612930984	 3.2257022949	 0.083717
H	 0.516013111	-2.6321767511	 3.5517783411	 0.085992
H	-1.9842578164	-3.0269696026	 2.7696904432	 0.085057
H	-2.291115201	-0.1129208176	 2.461433491	 0.088875
H	-2.6265950329	-1.0661059432	 0.9831604578	 0.097279
H	 0.0782977758	-3.0460358225	 0.7123390691	 0.092309
76.6778	176.556	183.1804	357.6566	391.3001	433.276	491.2216	627.6981	726.8341	743.1848	787.8971	799.1081	853.6683	883.4056	893.6005	919.6709	941.1033	965.4867	993.2946	998.3334	1018.6309	1025.4914	1043.229	1086.3483	1092.0533	1112.61	1142.6379	1157.749	1166.3405	1170.9859	1173.2199	1242.7174	1248.3345	1282.8749	1290.5069	1332.9127	1366.3446	1443.8119	1490.4338	1508.8571	1527.7151	3021.2134	3028.6059	3082.4862	3085.5087	3089.7576	3107.1706	3171.0908	3193.7658	3200.5835	3226.8274
C1OC1C12CC3C(C1)C23	C1O[C@H]1[C@@]12C[C@H]3[C@@H](C1)[C@@H]23	
InChI=1S/C8H10O/c1-4-5-2-8(1,7(4)5)6-3-9-6/h4-7H,1-3H2	InChI=1S/C8H10O/c1-4-5-2-8(1,7(4)5)6-3-9-6/h4-7H,1-3H2/t4-,5+,6-,7-,8+/m1/s1
