19
gdb 48987	3.12376	1.44667	1.27835	2.952	74.08	-0.2533	-0.0278	0.2255	1046.441	0.161045	-423.054208	-423.046577	-423.045633	-423.086563	29.732	
O	-0.5825334314	 0.7461803105	-0.7100062067	-0.252776
C	 0.090674126	 1.155559786	 0.2004657837	 0.070859
C	 1.3602759959	 1.9447052041	 0.0270685885	 0.319437
C	 2.6481345628	 1.0886164898	 0.2184034189	-0.262992
C	 3.6544362973	 2.1821947338	 0.6875497424	-0.21947
C	 2.7564591114	 3.4391449634	 0.6849498827	 0.074093
C	 2.4879506359	 3.8978742282	-0.7657915778	-0.221921
C	 1.4967376456	 2.798463437	-1.2525576276	-0.258271
O	 1.4821700813	 2.9077628705	 1.0846727306	-0.297726
H	-0.1678504955	 0.9543843737	 1.2639477196	 0.090006
H	 2.496421466	 0.3302745169	 0.9913403418	 0.109267
H	 2.9422791564	 0.580770567	-0.7021324346	 0.115082
H	 4.0238248302	 1.9731650785	 1.6937386405	 0.11022
H	 4.5163184103	 2.2805900479	 0.0228744216	 0.104348
H	 3.0543382547	 4.2267305505	 1.3771079645	 0.079941
H	 2.0190054573	 4.8843103812	-0.7738910202	 0.109941
H	 3.4010893939	 3.953278157	-1.3637345445	 0.100965
H	 1.8693070026	 2.2188729982	-2.0989489891	 0.110289
H	 0.5284263495	 3.2149381558	-1.5356448243	 0.118707
74.4473	134.4561	196.382	261.4232	332.9628	395.6526	451.6322	553.5951	584.7318	702.4356	760.4069	810.8303	826.521	839.9258	870.3011	903.1914	930.5286	953.3809	975.4081	993.5059	1012.1384	1036.7453	1080.5896	1098.1847	1166.4021	1193.3927	1210.3625	1219.4514	1242.6054	1254.9453	1300.7482	1322.3539	1330.5658	1333.6451	1351.8025	1410.8479	1478.3687	1492.2479	1495.6081	1514.4972	1833.2847	2890.3966	3060.3415	3065.2721	3070.5555	3082.3834	3104.8508	3108.1993	3121.7345	3124.0455	3132.4784
O=CC12CCC(CC1)O2	O=C[C@@]12CC[C@@H](CC1)O2	
InChI=1S/C7H10O2/c8-5-7-3-1-6(9-7)2-4-7/h5-6H,1-4H2	InChI=1S/C7H10O2/c8-5-7-3-1-6(9-7)2-4-7/h5-6H,1-4H2/t6-,7+
