23
gdb 112572	3.26844	1.06371	1.01275	0.9034	88.33	-0.2438	0.014	0.2577	1346.6204	0.204466	-388.299885	-388.289983	-388.289038	-388.334458	37.502	
C	 0.1367123135	 0.7247518115	-0.704001041	-0.233721
O	-0.0463401451	-0.4290476294	 0.0813573544	-0.246334
C	 0.5660847681	-0.3587516751	 1.3717480758	 0.087192
C	 0.1892482935	-1.6283992222	 2.1571613144	-0.278494
C	 1.3835642479	-2.6146038897	 2.0000338671	 0.275508
C	 1.6757297	-3.3830566073	 3.2980619672	-0.437207
C	 1.1454530993	-3.6069242639	 0.841565531	-0.42154
C	 2.5072400854	-1.6609929608	 1.6357821624	-0.077786
C	 2.0801312157	-0.4428995766	 1.3110468642	-0.11246
H	 1.1882395318	 0.8806799346	-0.9872097181	 0.104143
H	-0.4515046824	 0.5927642017	-1.6158789058	 0.124341
H	-0.2164360135	 1.6305018701	-0.1844123844	 0.098712
H	 0.2135732652	 0.5597305066	 1.868168954	 0.058148
H	 0.0669041628	-1.3695218751	 3.2135976389	 0.0941
H	-0.7586411918	-2.0365345222	 1.798173043	 0.105692
H	 0.8196072174	-4.0043996873	 3.5840141138	 0.112552
H	 2.539966639	-4.0463068994	 3.1786400677	 0.1085
H	 1.8883070256	-2.6985242612	 4.1259186413	 0.111283
H	 0.8587487409	-3.0695123704	-0.0659990601	 0.133002
H	 2.0479740325	-4.1907369161	 0.6283378035	 0.10387
H	 0.3447624173	-4.3112465703	 1.0945223335	 0.107498
H	 3.543524601	-1.9873314165	 1.6215676862	 0.090511
H	 2.7096705756	 0.380762169	 0.994016311	 0.092491
59.6092	96.9693	157.5198	220.5636	237.4976	249.7079	273.0286	304.0317	334.0179	370.7332	410.824	433.1115	577.2797	622.6475	767.5245	782.851	803.9852	848.1926	908.2186	935.1928	949.9326	970.2568	983.0704	987.0281	1032.5272	1051.1819	1116.6045	1130.9085	1154.4876	1180.8148	1215.6384	1222.0462	1245.3433	1263.1964	1311.3109	1325.44	1365.6096	1386.8925	1394.6321	1418.7083	1473.3198	1476.2804	1486.2846	1486.9262	1489.6723	1502.741	1508.358	1510.8952	1682.3154	2964.904	2971.7496	3018.2517	3021.0716	3026.285	3054.8174	3086.0235	3091.7647	3096.0112	3107.549	3109.6671	3120.576	3165.0351	3200.429
COC1CC(C)(C)C=C1	CO[C@H]1CC(C)(C)C=C1	
InChI=1S/C8H14O/c1-8(2)5-4-7(6-8)9-3/h4-5,7H,6H2,1-3H3	InChI=1S/C8H14O/c1-8(2)5-4-7(6-8)9-3/h4-5,7H,6H2,1-3H3/t7-/m1/s1
