17
gdb 127028	6.32748	0.83185	0.74277	2.816	73.23	-0.1925	0.051	0.2435	1507.4713	0.136815	-451.337928	-451.329027	-451.328083	-451.37207	32.342	
C	-0.1312979696	 1.491479013	 0.0132071528	-0.394265
C	-0.011096611	-0.0187675569	 0.0184119374	-0.043699
O	-1.3486616703	-0.5607777529	 0.0035387196	-0.275959
C	-1.4254960294	-1.8855431142	-0.0155204155	 0.532083
N	-0.4495591015	-2.7314135769	-0.0335107505	-0.340036
N	-1.1070316897	-3.9766019328	-0.1291621776	-0.324848
C	-2.4897743152	-3.8592686011	-0.0054526537	 0.438089
N	-3.4427281287	-4.7028756288	 0.0786285705	-0.600012
N	-2.6629581714	-2.4745412982	-0.0334040538	-0.395571
H	 0.8665433472	 1.9392601896	 0.0254140355	 0.127805
H	-0.6544646509	 1.8383036122	-0.882150093	 0.133544
H	-0.6782062405	 1.8430593984	 0.8924218984	 0.132723
H	 0.5273470437	-0.3948836636	-0.8575949365	 0.130504
H	 0.5064305754	-0.388470696	 0.9099691036	 0.126771
H	-0.6089946593	-4.7620409575	 0.2555179106	 0.263312
H	-3.0904206761	-5.656907559	 0.0705348647	 0.208631
H	-3.5547800228	-2.0163356054	 0.0270726573	 0.28093
54.608	88.1155	142.737	178.9077	251.2778	346.8317	365.6904	369.9151	400.2708	428.5822	526.6456	687.7949	713.9628	720.0297	742.3419	782.3051	812.1953	905.33	1000.9963	1022.5087	1069.5652	1083.1937	1101.2694	1144.532	1184.4514	1286.1433	1291.5406	1353.6984	1379.5741	1392.1247	1418.7698	1484.704	1498.1388	1516.7594	1540.9538	1690.747	1762.3182	3046.7197	3048.8145	3086.5887	3124.6055	3128.4086	3521.8065	3660.395	3698.0987
CCOC1=NNC(=N)N1	CCOC1=NN[C@H]([NH])N1	
InChI=1S/C4H8N4O/c1-2-9-4-6-3(5)7-8-4/h2H2,1H3,(H3,5,6,7,8)	InChI=1S/C4H9N4O/c1-2-9-4-6-3(5)7-8-4/h3,5,7H,2H2,1H3,(H,6,8)/t3-/m1/s1
