15
gdb 18684	3.1676	2.3401	1.548	3.5046	61.15	-0.2342	-0.0247	0.2095	804.7185	0.120681	-399.78299	-399.776414	-399.775469	-399.813848	25.031	
O	 0.013853587	-0.0215534083	-0.256164883	-0.318483
C	 0.0026228214	 1.1758530842	-0.0952062312	 0.435752
C	-1.2765759455	 1.9893122355	 0.0960456416	-0.196494
O	-1.2599975276	 3.1135574589	-0.7723842381	-0.249554
C	-0.2796701255	 4.0783596522	-0.4335456132	-0.074509
C	 1.1137798471	 3.4884907936	-0.2399589617	-0.053817
N	 1.3716030192	 2.9032607208	 1.0745559379	-0.332064
C	 1.2495539419	 2.0049027602	-0.1072059859	-0.144833
H	-2.1334903008	 1.3734798356	-0.1820429752	 0.13356
H	-1.3718965299	 2.2947106679	 1.1500605174	 0.123012
H	-0.2728478631	 4.7909511597	-1.2631412984	 0.116109
H	-0.5663765708	 4.6134348108	 0.4853215087	 0.105948
H	 1.9290907886	 4.012793352	-0.7328650274	 0.103355
H	 2.3533490307	 2.9887980271	 1.325085208	 0.245107
H	 2.1375450872	 1.5035371698	-0.4797623794	 0.106912
94.0097	206.1603	260.7635	386.1224	417.9333	456.2635	492.9372	595.1318	719.0103	772.7609	826.2112	882.5816	911.3798	935.2326	960.3218	1000.6203	1032.8268	1109.9649	1125.7308	1156.2556	1197.4886	1231.9282	1248.1272	1273.8286	1318.0805	1355.1112	1381.2303	1409.873	1433.4186	1468.3083	1489.6533	1824.2545	2985.9476	2988.6901	3088.9167	3124.9507	3136.8619	3166.626	3507.5035
O=C1COCC2NC12	O=C1COC[C@H]2N[C@@H]12	
InChI=1S/C5H7NO2/c7-4-2-8-1-3-5(4)6-3/h3,5-6H,1-2H2	InChI=1S/C5H7NO2/c7-4-2-8-1-3-5(4)6-3/h3,5-6H,1-2H2/t3-,5-/m1/s1
