17
gdb 13380	6.15422	1.12193	1.00594	0.9589	66.93	-0.2434	0.0182	0.2616	1187.3222	0.142415	-400.999453	-400.991192	-400.990247	-401.033287	28.086	
C	 0.4993563992	 1.413645495	 0.1427089602	-0.221373
O	 0.7154768498	 0.0239799318	 0.0667726931	-0.229631
C	-0.062702442	-0.6912061272	 0.9980648336	-0.148382
C	 0.2484581926	-2.1516673904	 0.8804333087	 0.403286
N	-0.6096663588	-3.0684389971	 0.6912477322	-0.310491
C	 0.1347041225	-4.3380449021	 0.7084587926	-0.185204
C	 1.6197440363	-3.9190372525	 0.8614953567	-0.10949
O	 1.5559474915	-2.4846530253	 1.0325190934	-0.245278
H	 0.7585750872	 1.8127425007	 1.1363206089	 0.105912
H	 1.1419321795	 1.8823476524	-0.605907732	 0.131625
H	-0.5484957602	 1.6775273722	-0.0706742474	 0.107453
H	 0.1608647468	-0.3584938576	 2.0269349858	 0.10464
H	-1.1390833519	-0.5590741965	 0.8229856681	 0.120776
H	-0.2160402031	-4.9609753258	 1.5388236911	 0.116566
H	-0.0518310686	-4.8940904701	-0.2154867384	 0.119554
H	 2.1139923673	-4.3460094691	 1.7378210079	 0.119144
H	 2.2246485218	-4.1304588987	-0.0252585747	 0.120894
62.0192	80.4344	101.2088	134.0978	233.2798	291.9633	345.1594	385.0714	631.8371	751.9526	777.5833	832.571	919.1	962.8564	983.4244	1000.0363	1012.775	1066.8935	1120.7654	1157.6062	1184.3415	1213.7173	1226.6897	1240.9623	1248.8031	1277.2003	1337.3332	1385.8674	1427.0553	1478.3169	1485.9542	1495.6438	1502.2042	1517.6371	1525.9574	1743.8353	2955.2014	2971.6641	3015.2126	3034.9655	3040.2852	3054.6568	3073.3556	3105.4335	3120.2128
COCC1=NCCO1	COCC1=NCCO1	
InChI=1S/C5H9NO2/c1-7-4-5-6-2-3-8-5/h2-4H2,1H3	InChI=1S/C5H9NO2/c1-7-4-5-6-2-3-8-5/h2-4H2,1H3
