17
gdb 75404	2.49733	1.71047	1.09689	1.1972	76.84	-0.221	-0.0552	0.1658	1081.6964	0.137287	-418.033527	-418.025458	-418.024514	-418.066062	31.276	
N	 0.0830083196	 1.1633737167	 0.7799957718	-0.517203
C	-0.0116743478	-0.0360583804	 0.1222519321	 0.243751
N	-1.1420851913	-0.6263263726	 0.0265607289	-0.290447
C	-1.3705214287	-1.881695689	-0.6654436405	-0.209818
C	-0.3470501976	-2.9872980319	-0.4877108106	-0.056895
C	 0.9183813723	-2.8453651524	-0.8674915049	-0.076913
C	 1.409506712	-1.5505159119	-1.4792408906	-0.358924
C	 1.3532660303	-0.438950456	-0.453055506	 0.364425
O	 2.347791374	 0.1451970789	-0.0805451284	-0.316321
H	 1.0109359258	 1.4431982982	 1.0554294909	 0.267723
H	-0.6901929904	 1.4090591833	 1.3758924239	 0.25429
H	-2.3491456301	-2.2445551554	-0.3370366428	 0.111066
H	-1.484065186	-1.6845649934	-1.7471070326	 0.116536
H	-0.688231652	-3.9204904428	-0.0487462709	 0.10132
H	 1.6471613818	-3.6358418516	-0.7204807951	 0.107528
H	 2.438584145	-1.6216304183	-1.8336084149	 0.126601
H	 0.7668324633	-1.2732550514	-2.3279125101	 0.133281
71.0497	153.1744	231.9223	298.5767	346.5754	364.6	394.3682	449.6614	480.858	524.8546	560.4379	605.6622	652.5089	693.3421	768.7338	819.4768	895.8771	951.8129	963.6096	983.0344	998.0121	1033.5931	1125.2984	1191.8471	1226.8611	1231.6061	1248.5096	1301.3818	1366.686	1375.1267	1394.2243	1462.7118	1492.2042	1587.604	1714.9908	1718.2406	1784.8644	2938.8209	3004.7228	3063.9134	3124.9734	3164.4428	3190.555	3590.2746	3720.3781
NC1=NCC=CCC1=O	NC1=NCC=CCC1=O	
InChI=1S/C6H8N2O/c7-6-5(9)3-1-2-4-8-6/h1-2H,3-4H2,(H2,7,8)	InChI=1S/C6H8N2O/c7-6-5(9)3-1-2-4-8-6/h1-2H,3-4H2,(H2,7,8)
