19
gdb 62097	3.52134	0.78948	0.67962	4.6557	74.35	-0.2366	-0.0214	0.2152	1617.5062	0.157523	-456.387213	-456.376661	-456.375717	-456.424513	36.028	
C	-0.0780901511	 1.511266884	-0.0035493006	-0.358586
N	-0.0097855632	 0.0605850148	-0.019746598	-0.083316
C	 0.0311084278	-0.653620787	 1.2478733575	-0.181148
C	-1.3744141746	-0.9961507553	 1.7896414819	-0.270827
C	-1.2938008127	-1.8162047191	 3.0541841972	 0.153347
O	-1.726481108	-1.4773457934	 4.1263292074	-0.238664
C	-0.1125231867	-0.6963963272	-1.1638892595	 0.444612
N	-0.099008183	 0.0138497583	-2.3606319881	-0.570553
O	-0.2479457708	-1.9103113314	-1.1346999372	-0.414389
H	 0.913832664	 1.9841432363	-0.0540247555	 0.122421
H	-0.6848313836	 1.8746629167	-0.8361965955	 0.148387
H	-0.5577930907	 1.8448154286	 0.9208658045	 0.140941
H	 0.5932607366	-1.57759162	 1.0955398651	 0.141683
H	 0.5764903881	-0.0367897418	 1.9695352641	 0.111946
H	-1.9598304008	-0.0941510343	 1.9890912339	 0.113401
H	-1.875251538	-1.5958496187	 1.0198613649	 0.14763
H	-0.7755468514	-2.7961209689	 2.9316449892	 0.079423
H	 0.4857000549	 0.8333515885	-2.4233631499	 0.252007
H	-0.0114986669	-0.6078694101	-3.1507024614	 0.261686
42.8556	62.776	82.2143	89.0883	112.3281	141.987	265.7804	295.2324	352.8506	395.0628	440.315	515.4602	553.6964	572.2608	603.1542	771.195	784.184	787.7796	863.0858	975.8679	1041.4438	1085.9579	1097.0801	1103.6005	1147.6668	1184.5231	1265.5173	1273.8931	1288.4288	1357.6009	1407.455	1425.842	1434.6857	1458.9442	1472.86	1495.8249	1503.6762	1527.1548	1624.3284	1772.4453	1832.1737	2860.2745	2994.3776	3038.8941	3052.8801	3081.3532	3102.0623	3120.6116	3123.3052	3575.7278	3686.7199
CN(CCC=O)C(N)=O	CN(CCC=O)C(=O)N	
InChI=1S/C5H10N2O2/c1-7(5(6)9)3-2-4-8/h4H,2-3H2,1H3,(H2,6,9)	InChI=1S/C5H10N2O2/c1-7(5(6)9)3-2-4-8/h4H,2-3H2,1H3,(H2,6,9)
