16
gdb 46558	4.11527	1.16953	1.06582	3.9854	64.61	-0.2656	0.0442	0.3098	1117.1069	0.125688	-475.048282	-475.040716	-475.039772	-475.081108	27.896	
O	 0.0850865113	-0.0084559588	-0.0453196211	-0.381807
C	-0.0141251707	 1.1841163549	-0.0293260595	 0.460318
N	-1.1328309411	 1.9569119139	-0.253447299	-0.368112
C	-0.912994452	 3.3299094469	 0.1513991327	-0.248936
C	 0.6242689844	 3.3891091017	 0.0997472939	 0.349254
C	 1.2984612346	 4.1838054874	-1.0422278062	-0.120193
O	 1.7963686876	 5.1609647935	-0.1058983233	-0.268285
C	 1.3590232445	 4.37657057	 1.0210037738	-0.128597
O	 1.0403322376	 2.0320566869	 0.2136050697	-0.270113
H	-2.0296614909	 1.5061711345	-0.1739264841	 0.26629
H	-1.3735025323	 4.0475358163	-0.5332720232	 0.131206
H	-1.2808161378	 3.5352641264	 1.1673852687	 0.116916
H	 2.1034175002	 3.6231517189	-1.5319222815	 0.121779
H	 0.6396214471	 4.6286591677	-1.7967576505	 0.108587
H	 0.736659111	 4.9548934114	 1.7146548168	 0.107658
H	 2.1915499165	 3.9156903086	 1.565887193	 0.124036
71.1644	84.6997	168.5575	279.2212	344.4037	424.033	449.5297	498.0026	540.0388	724.0522	769.9781	800.5393	847.1016	924.034	932.99	963.9121	977.9985	1000.9811	1035.4367	1088.7612	1147.7711	1150.7755	1153.7928	1182.3554	1193.6697	1247.6426	1301.4652	1304.1798	1357.3272	1385.8991	1438.4269	1497.7801	1523.6792	1532.1311	1903.4092	2995.6746	3015.6964	3027.5132	3071.4888	3075.0086	3082.0136	3657.3523
O=C1NCC2(COC2)O1	O=C1NCC2(COC2)O1	
InChI=1S/C5H7NO3/c7-4-6-1-5(9-4)2-8-3-5/h1-3H2,(H,6,7)	InChI=1S/C5H7NO3/c7-4-6-1-5(9-4)2-8-3-5/h1-3H2,(H,6,7)
