17
gdb 68332	3.27164	1.20645	1.07837	4.8731	70.27	-0.257	0.0137	0.2707	1154.603	0.133849	-458.916695	-458.908345	-458.907401	-458.949986	30.849	
C	 0.0183052159	 1.4122845862	 0.3664197818	-0.517669
C	-0.1045462383	-0.0312978918	 0.0057866186	 0.37938
C	 0.699620791	-0.9167387683	-0.9798651174	-0.26844
C	-0.2100782534	-1.8348934423	-0.1366683768	-0.017043
O	 0.1613926319	-1.0536892772	 1.0647805173	-0.349642
C	-1.3744458353	-0.8441755235	-0.3882250505	 0.12918
O	-2.4838323212	-0.7413023314	 0.4717618539	-0.215174
C	-2.6356900844	-1.5794061978	 1.5256285571	 0.172167
O	-3.4885525245	-1.4076880751	 2.3424281811	-0.275293
H	 1.0198581594	 1.6277492106	 0.7492339376	 0.140751
H	-0.1611014867	 2.0374483296	-0.5136793391	 0.133168
H	-0.7160316243	 1.6729407771	 1.1337905891	 0.153409
H	 0.5058295999	-0.8201320047	-2.0511239199	 0.104587
H	 1.7583708066	-1.0065420724	-0.7399361194	 0.123392
H	-0.2041010647	-2.9211578903	-0.0604049754	 0.110438
H	-1.7389947199	-0.7415826183	-1.412782477	 0.100144
H	-1.9320249419	-2.4239004903	 1.521636269	 0.096645
72.6454	122.0202	181.3063	185.346	242.926	306.8183	347.9871	443.0178	458.0988	605.0729	646.0536	751.5727	757.6203	789.4029	875.8479	913.2992	913.5504	968.9375	1014.8563	1021.2944	1041.8452	1080.5953	1114.6898	1143.8457	1167.8414	1180.7535	1208.9001	1233.3978	1261.8256	1346.9333	1403.8163	1417.0015	1430.561	1476.2602	1487.0297	1494.519	1859.8177	3040.6611	3044.6906	3068.2806	3093.198	3119.5093	3124.8267	3133.5008	3161.1114
CC12CC(O1)C2OC=O	C[C@@]12C[C@@H](O1)[C@H]2OC=O	
InChI=1S/C6H8O3/c1-6-2-4(9-6)5(6)8-3-7/h3-5H,2H2,1H3	InChI=1S/C6H8O3/c1-6-2-4(9-6)5(6)8-3-7/h3-5H,2H2,1H3/t4-,5-,6+/m1/s1
