17
gdb 10087	3.03091	1.42516	1.18597	1.4529	61.51	-0.2562	0.022	0.2782	1042.7909	0.142216	-438.154027	-438.145266	-438.144322	-438.187837	31.137	
O	 0.1179904276	 1.3702298116	-0.3256439012	-0.431506
C	 0.0594202461	-0.0112234492	-0.0089874915	-0.08936
C	-1.3890928986	-0.5154127335	 0.0737911244	 0.003481
C	-2.1163647227	 0.0133281207	 1.3200804145	-0.092436
O	-2.153050608	 1.4434284099	 1.3604619207	-0.421957
N	-2.078724516	-0.1058280875	-1.1455399673	-0.284981
C	-3.1566226708	-0.7646004552	-1.6414939543	 0.148596
O	-3.7025972115	-1.7032782263	-1.0977756544	-0.32875
H	-0.4160296097	 1.8155924481	 0.349469641	 0.290069
H	 0.5916853398	-0.5355499108	-0.8092553851	 0.116548
H	 0.5731453546	-0.2363318415	 0.9378442372	 0.099878
H	-1.3981580645	-1.610513505	 0.1249788175	 0.110322
H	-3.127933758	-0.4063720463	 1.3575226952	 0.131991
H	-1.5797068416	-0.3007092633	 2.2209372024	 0.118459
H	-2.7777113815	 1.7263588203	 0.68344842	 0.29198
H	-1.6540072887	 0.6484941766	-1.6654156397	 0.257897
H	-3.4948115767	-0.3439653887	-2.6093765894	 0.079769
49.5053	125.984	143.1757	193.2126	237.5043	267.5008	298.898	342.9473	405.9562	492.0655	594.5075	687.2653	750.9147	756.7557	859.3889	917.5256	966.8174	979.8305	1034.3977	1061.1687	1097.8228	1122.8441	1187.6897	1211.893	1249.9863	1309.2516	1364.6949	1380.5033	1396.4807	1409.8471	1426.3096	1466.92	1495.862	1504.8624	1509.9772	1795.2638	2937.236	2993.8178	3039.6258	3055.3289	3077.449	3096.4495	3610.4605	3710.3847	3809.422
OCC(CO)NC=O	OCC(CO)NC=O	
InChI=1S/C4H9NO3/c6-1-4(2-7)5-3-8/h3-4,6-7H,1-2H2,(H,5,8)	InChI=1S/C4H9NO3/c6-1-4(2-7)5-3-8/h3-4,6-7H,1-2H2,(H,5,8)
