23
gdb 81962	2.38967	1.5931	1.21923	1.4523	84.56	-0.2563	0.0656	0.3219	1149.7588	0.206555	-388.297187	-388.288057	-388.287113	-388.330191	36.367	
C	-0.0290920284	 1.5968738856	-0.0345050413	-0.427844
C	 0.0827185904	 0.070312944	-0.023597233	 0.019201
C	 0.8087467235	-0.5385903068	-1.2195951611	-0.048436
C	 2.3210494024	-0.524865776	-1.222964149	-0.293518
C	 1.5748760083	-1.7461887374	-0.7389743069	-0.046169
C	 1.3334902229	-1.9001928423	 0.7612170809	 0.020535
C	 2.5168848657	-2.4392773378	 1.5672670866	-0.394303
C	 0.8080158191	-0.5167776183	 1.2232201261	 0.042767
O	 1.915124663	 0.2735103674	 1.6556198302	-0.41779
H	 0.9592624722	 2.064932817	-0.0715200194	 0.123537
H	-0.5867786626	 1.9382641537	-0.9121798826	 0.116988
H	-0.5580267295	 1.971271829	 0.851024391	 0.102626
H	-0.93512981	-0.3454439676	-0.0145394651	 0.069994
H	 0.293438657	-0.5422833556	-2.1748753663	 0.072791
H	 2.804641011	-0.601473951	-2.1913558448	 0.099225
H	 2.8445934765	 0.0893205088	-0.5009310719	 0.131927
H	 1.6285270474	-2.651323813	-1.3353321595	 0.072872
H	 0.4928143437	-2.5989683208	 0.8769615355	 0.069852
H	 3.3812599486	-1.7773575598	 1.4855718239	 0.132505
H	 2.2654783217	-2.5326457752	 2.6289608793	 0.106355
H	 2.8057940501	-3.4304902161	 1.202266533	 0.102759
H	 0.1037655564	-0.6309767738	 2.0603161436	 0.059278
H	 1.5731348805	 1.1209042959	 1.9553856209	 0.284848
116.219	175.2056	216.1521	225.952	237.2327	277.2967	287.2467	319.804	395.6414	435.1322	468.3236	572.9258	611.4338	730.9701	753.4238	800.0285	840.4845	876.6352	890.2435	947.0668	952.9677	986.2662	1008.6497	1043.0594	1072.195	1076.294	1081.3213	1109.2438	1112.4458	1134.6967	1149.623	1196.681	1211.1005	1217.3107	1294.275	1322.0857	1333.3248	1340.6205	1366.3801	1380.4436	1397.2502	1402.9647	1406.0656	1428.0178	1487.7029	1494.0985	1498.4424	1499.9777	1506.8541	2978.6586	2998.7019	3009.7122	3023.2039	3037.6308	3087.7873	3096.7566	3108.2327	3132.2249	3135.5462	3149.8771	3161.0482	3229.1332	3830.9402
CC1C2CC2C(C)C1O	C[C@H]1[C@H]2C[C@H]2[C@@H](C)[C@H]1O	
InChI=1S/C8H14O/c1-4-6-3-7(6)5(2)8(4)9/h4-9H,3H2,1-2H3	InChI=1S/C8H14O/c1-4-6-3-7(6)5(2)8(4)9/h4-9H,3H2,1-2H3/t4-,5+,6+,7-,8-
