16
gdb 29540	3.10805	1.53102	1.05278	13.1824	79.59	-0.1153	-0.0198	0.0955	1081.0301	0.126623	-437.810259	-437.802855	-437.801911	-437.842322	28.254	
O	-0.0055776809	-0.0164307963	-0.0050161456	-0.498579
C	-0.0255066655	 1.2281793856	 0.0078110451	 0.184764
C	-1.087708391	 2.1675829976	 0.0142984999	-0.263601
O	-0.6504361875	 3.5101087349	-0.0014167252	-0.209363
C	 0.6703258703	 3.432881868	 0.0063771471	 0.349927
C	 1.1399567517	 2.1594322953	 0.0147499109	 0.074787
C	 2.6156859247	 2.1478423624	 0.0009317869	-0.341701
N	 2.9074248932	 3.6291244872	-0.4226506881	-0.265437
H	 3.7896688639	 3.9811979192	-0.044363127	 0.291849
H	 2.9664912049	 3.6487805592	-1.4399808802	 0.313741
C	 1.7073543069	 4.4923896831	 0.0027691691	-0.339048
H	-2.1571057216	 2.0528317186	-0.0159889109	 0.097667
H	 3.1145023932	 2.0100006507	 0.9704921054	 0.147478
H	 3.1025374646	 1.4975714417	-0.7327825903	 0.158518
H	 1.5903847313	 5.3114675307	-0.7151096669	 0.153049
H	 1.9692738516	 4.9262338222	 0.9807461499	 0.14595
94.0109	164.0274	206.0578	248.5325	296.0045	504.6112	523.7716	575.5506	583.7246	618.6633	698.8469	709.8429	724.2987	781.8374	845.2105	891.8896	970.3079	1017.832	1045.4771	1054.7816	1111.5329	1132.0464	1215.8259	1223.1586	1246.7522	1301.3482	1340.7828	1345.4439	1368.473	1454.1502	1505.8115	1512.1435	1605.2884	1622.8214	1700.0415	2970.5965	3005.7905	3057.7515	3074.9575	3284.3749	3425.096	3521.444
[O-]C1=COC2=C1C[NH2+]C2	O=C1[CH]OC2=C1C[NH2]C2	
InChI=1S/C6H7NO2/c8-5-3-9-6-2-7-1-4(5)6/h3,7-8H,1-2H2	InChI=1S/C6H7NO2/c8-5-3-9-6-2-7-1-4(5)6/h3H,1-2,7H2
