14
gdb 18313	3.68648	2.19966	1.49531	3.529	64.15	-0.2404	-0.0286	0.2118	804.75	0.107455	-382.510995	-382.504585	-382.503641	-382.541711	24.197	
O	-0.0664365636	 0.014274917	 0.1949887666	-0.27368
C	-0.0352653878	 1.2006088712	 0.0558299806	 0.346414
C	-1.2617185285	 2.1760274651	 0.0414165786	-0.35666
C	-0.6658438139	 3.4219827331	 0.6741177552	-0.199331
C	 0.6568904721	 3.4010982867	 0.5161914837	 0.180425
C	 1.973462825	 3.5679051169	 1.2326474811	-0.149393
O	 2.2913099113	 2.1788259533	 0.8819277924	-0.299569
C	 1.1905699263	 2.1441776056	-0.0738217021	 0.011176
H	-1.6068000718	 2.3070336338	-0.9929650295	 0.137834
H	-2.0972190656	 1.7532483494	 0.6069530952	 0.138417
H	-1.2374856837	 4.0968162758	 1.2999364465	 0.113046
H	 2.6957797545	 4.2536155509	 0.7729310858	 0.117261
H	 1.937570325	 3.7351204662	 2.3138305819	 0.128935
H	 1.5663089407	 2.1350787949	-1.106789066	 0.105125
94.5762	211.9213	264.0544	324.3256	430.26	539.735	626.8514	648.439	769.6633	792.1431	805.0668	897.7579	908.796	946.4741	991.0648	998.847	1011.3052	1080.1211	1126.8112	1133.4484	1155.5911	1217.5176	1252.9965	1287.083	1310.962	1336.4698	1458.6024	1507.7521	1728.6793	1874.9388	3005.5462	3023.8164	3024.8572	3083.6413	3093.9002	3203.4556
O=C1CC=C2COC12	O=C1C[CH][C]2CO[C@@H]12	
InChI=1S/C6H6O2/c7-5-2-1-4-3-8-6(4)5/h1,6H,2-3H2	InChI=1S/C6H6O2/c7-5-2-1-4-3-8-6(4)5/h1,6H,2-3H2/t6-/m1/s1
