18
gdb 127462	3.36822	1.12722	0.87081	4.9136	75.21	-0.246	0.0063	0.2523	1329.5048	0.147799	-435.300669	-435.291063	-435.290119	-435.336692	32.937	
C	-0.2912175712	 1.4105281215	 0.0213072887	-0.326047
N	-0.0987218889	-0.0232431082	-0.00518953	-0.000353
N	-0.2207270871	-0.7017716893	-1.1796103467	-0.314429
C	 0.0425787286	-1.9443234724	-0.8193886723	 0.31792
C	 0.018481586	-3.1274712774	-1.742004936	-0.147172
O	 0.9832210353	-4.0890154053	-1.3669711482	-0.421244
N	 0.3310338164	-2.1040152752	 0.503338487	-0.374819
C	 0.2391324218	-0.8751328583	 0.9901887272	 0.348535
C	 0.4711944962	-0.482421791	 2.4108518359	-0.505821
H	-0.2296182464	 1.762684291	 1.0515464096	 0.143546
H	 0.4767082749	 1.9093017023	-0.5765540177	 0.154695
H	-1.2732817369	 1.6599250252	-0.3873028896	 0.157316
H	-0.9957089101	-3.5628593247	-1.7422783696	 0.101039
H	 0.2307868054	-2.803443384	-2.7652224463	 0.12451
H	 1.0291023623	-4.0578154626	-0.4027346727	 0.295225
H	 1.3026103145	 0.2238181141	 2.5083828747	 0.142931
H	-0.4152452118	-0.0183218292	 2.8562521896	 0.141962
H	 0.7131494712	-1.3797036167	 2.9809980163	 0.162205
33.6571	45.8984	110.3779	142.1331	198.4264	213.747	276.3701	321.2399	367.409	404.084	510.5899	641.976	667.6439	678.7927	748.1988	817.6532	1010.9104	1021.8466	1042.6919	1052.1562	1064.6996	1089.0957	1152.3931	1215.9036	1225.3223	1305.1392	1343.9673	1389.1313	1408.2524	1433.9573	1447.8287	1460.7948	1474.0646	1488.618	1498.9378	1508.4032	1517.7084	1555.0986	1572.3197	2953.5778	3039.4252	3053.9071	3081.8134	3093.0435	3120.7908	3151.8963	3155.0406	3769.4199
CN1N=C(CO)N=C1C	Cn1nc(CO)nc1C	
InChI=1S/C5H9N3O/c1-4-6-5(3-9)7-8(4)2/h9H,3H2,1-2H3	InChI=1S/C5H9N3O/c1-4-6-5(3-9)7-8(4)2/h9H,3H2,1-2H3
