20
gdb 116336	2.51803	1.61773	1.25504	1.0977	74.94	-0.2304	0.0878	0.3182	1080.6287	0.172181	-440.244457	-440.236112	-440.235168	-440.277393	31.725	
C	 0.6240489349	 1.1550897001	 0.2410946553	-0.244975
O	 0.6176345316	-0.2494673163	 0.0547927229	-0.243145
C	 0.4579950478	-0.63793484	-1.2880958947	 0.212484
O	 1.5179389281	-0.1767240923	-2.1046806691	-0.28072
C	 2.7210655223	-0.956300648	-2.1080017008	-0.054035
C	 2.7273839933	-2.0700230789	-1.0645692566	-0.187358
N	 1.561346598	-2.9304687053	-1.2990141814	-0.095872
C	 0.5808497553	-3.0351138077	-0.217988332	-0.248341
C	 0.3153768275	-2.1479357748	-1.3778475446	-0.061702
H	 1.4481596253	 1.6313337253	-0.3013743835	 0.12579
H	-0.3225654782	 1.6032228048	-0.0967698783	 0.107691
H	 0.738759219	 1.3333603437	 1.3123166409	 0.12523
H	-0.4310099665	-0.1437066944	-1.7061614884	 0.073106
H	 2.8363717644	-1.3945693501	-3.1078834838	 0.109824
H	 3.5593591295	-0.271768032	-1.9366279372	 0.103647
H	 3.6381681838	-2.6667538498	-1.1811615836	 0.103579
H	 2.7323899502	-1.631980311	-0.0583353186	 0.112647
H	 0.072099713	-3.9926159449	-0.1503047149	 0.113004
H	 0.8052513004	-2.5559411405	 0.7299365355	 0.131457
H	-0.3657936594	-2.4724530477	-2.1605951471	 0.09769
101.224	128.0811	165.699	194.608	242.1556	313.9234	394.3159	436.8113	496.9197	528.9606	589.5738	720.9988	779.7579	820.7324	844.8357	932.476	950.7676	967.3326	1007.5121	1052.1894	1081.4009	1092.6172	1104.5888	1121.1446	1134.9012	1159.9119	1176.6324	1180.7208	1217.0311	1262.4718	1276.592	1314.4365	1371.4183	1387.3449	1396.6727	1407.3247	1421.926	1473.0856	1483.1138	1488.6021	1510.0017	1514.2751	1517.0471	2992.36	3000.381	3017.8623	3020.8263	3063.1383	3069.2548	3072.8153	3113.6618	3126.7251	3134.1791	3205.4643
COC1OCCN2CC12	CO[C@H]1OCCN2C[C@@H]12	
InChI=1S/C6H11NO2/c1-8-6-5-4-7(5)2-3-9-6/h5-6H,2-4H2,1H3	InChI=1S/C6H11NO2/c1-8-6-5-4-7(5)2-3-9-6/h5-6H,2-4H2,1H3/t5-,6-,7?/m0/s1
