19
gdb 10502	2.53481	1.77972	1.33494	3.4151	72.	-0.2462	0.0295	0.2757	1014.1559	0.16459	-365.081096	-365.072207	-365.071263	-365.114769	32.405	
C	-1.5584068204	-0.0679207744	-0.2296273995	-0.384332
C	-0.0574334012	-0.1740566691	 0.0582113622	-0.235215
C	 0.7560347081	-0.6721672416	-1.1275315128	 0.372309
C	 2.0513681248	-1.3980288982	-0.8782689821	-0.279414
C	 0.8526900162	-2.1538155585	-1.3996216341	-0.323415
N	 0.7126001894	 0.1686928768	-2.3002933909	-0.33078
C	 1.3632449167	 1.3626668311	-2.3888258323	 0.146203
O	 2.0968837803	 1.8256662846	-1.5429145595	-0.320533
H	-1.7535795016	 0.6201615443	-1.0586739756	 0.111803
H	-1.9839737991	-1.042205102	-0.4944509678	 0.111773
H	-2.0991531195	 0.3077167161	 0.6439518521	 0.117327
H	 0.3409472199	 0.8014709578	 0.357702666	 0.129686
H	 0.1104522513	-0.8543550265	 0.9010916062	 0.094127
H	 2.8685410275	-1.207167296	-1.5625303556	 0.126688
H	 2.3512026102	-1.5479736464	 0.1526531204	 0.119128
H	 0.3258754818	-2.8222088312	-0.7272483957	 0.117442
H	 0.8747092111	-2.4826607784	-2.4331951736	 0.110648
H	 0.0580665982	-0.0610998007	-3.0322482279	 0.246049
H	 1.1505041165	 1.8713707723	-3.3520295994	 0.070506
55.5883	102.768	162.5835	192.7256	219.756	252.6074	330.1603	354.607	421.2734	493.3752	549.0145	667.6364	772.4677	786.5317	821.2641	899.2523	921.4872	949.8687	999.5371	1015.2629	1032.8361	1054.4192	1080.7182	1086.5023	1122.5192	1187.1707	1189.4236	1270.1826	1299.7021	1348.261	1378.3041	1409.6283	1432.1533	1460.7674	1482.9018	1499.3474	1499.7091	1502.7586	1508.57	1808.353	2917.4848	3033.4517	3037.8893	3075.74	3103.5924	3108.2454	3131.7055	3147.2471	3214.9355	3237.9069	3616.3533
CCC1(CC1)NC=O	CCC1(CC1)NC=O	
InChI=1S/C6H11NO/c1-2-6(3-4-6)7-5-8/h5H,2-4H2,1H3,(H,7,8)	InChI=1S/C6H11NO/c1-2-6(3-4-6)7-5-8/h5H,2-4H2,1H3,(H,7,8)
