21
gdb 39959	4.51224	1.01942	0.98347	1.5346	83.16	-0.2373	0.0731	0.3104	1297.4424	0.182485	-387.049306	-387.040944	-387.04	-387.082802	32.592	
C	 0.672301468	 1.437236098	-0.0568510789	-0.335936
C	 1.3345048814	 0.0794447901	-0.1664708759	-0.317994
C	-0.1514063005	 0.1908853944	 0.0170053495	 0.393814
C	-0.9481741875	-0.3752810052	 1.2002822353	-0.373861
C	-1.7399572962	-1.2317175404	 0.180316099	 0.471375
C	-1.5608886162	-2.7648202225	 0.1258469871	-0.342364
C	-3.0893451703	-2.8052888083	 0.3112814688	-0.077057
O	-3.1615827041	-1.3648891451	 0.3507425744	-0.316578
C	-1.2118330106	-0.3292126949	-0.9630571896	-0.37386
H	 0.8237135864	 2.0066792817	 0.8549217566	 0.11081
H	 0.6032865496	 2.0451878313	-0.9535965323	 0.11081
H	 1.7111975626	-0.2270212597	-1.1375574012	 0.109153
H	 1.9317520429	-0.2655469004	 0.6720424276	 0.109153
H	-0.403076538	-0.9053003665	 1.987200671	 0.094157
H	-1.606567274	 0.3707295981	 1.6579624834	 0.110809
H	-1.1918258558	-3.155205127	-0.8243581611	 0.109558
H	-0.9764786247	-3.1928274013	 0.9424081309	 0.109558
H	-3.662640262	-3.2203197759	-0.5263427428	 0.101743
H	-3.4468726511	-3.2579957205	 1.2438924409	 0.101743
H	-1.9570262699	 0.4319641694	-1.2175789563	 0.110809
H	-0.8743148298	-0.8229623452	-1.8793461062	 0.094157
56.6291	64.8012	220.3825	249.1404	304.6422	327.8233	385.2212	430.2677	433.8204	635.6119	776.1031	783.479	801.4203	830.7022	865.1047	877.0739	889.0424	919.5592	931.7424	963.363	969.3493	994.9083	1028.8467	1052.3151	1072.4557	1076.8054	1126.8648	1148.6313	1153.1947	1173.1087	1186.9956	1211.4507	1220.7345	1240.4454	1256.0629	1260.9556	1304.5244	1358.3704	1387.7077	1461.4099	1465.222	1482.7302	1489.9513	1506.306	1531.4667	3017.8198	3037.211	3043.1825	3056.9883	3074.4421	3094.179	3094.6873	3118.0931	3122.8123	3129.0613	3195.7797	3210.8275
C1CC11CC2(CCO2)C1	C1CC21CC1(CCO1)C2	
InChI=1S/C8H12O/c1-2-7(1)5-8(6-7)3-4-9-8/h1-6H2	InChI=1S/C8H12O/c1-2-7(1)5-8(6-7)3-4-9-8/h1-6H2
