19
gdb 78372	4.07611	1.17664	1.08182	1.0959	82.53	-0.2175	0.0182	0.2358	1165.7627	0.160549	-385.838553	-385.831087	-385.830143	-385.870167	30.489	
O	 0.0865438261	 1.1993120869	 0.135673157	-0.432276
C	-0.0850236427	-0.1795749426	-0.000939026	 0.104907
C	-1.5140428041	-0.5700314355	-0.1591124899	-0.113712
C	-0.5431153051	-0.6769247027	-1.3728318539	-0.245071
C	-0.6186878652	-2.1693160885	-1.2489704964	 0.312814
C	 0.0054605798	-3.3433995037	-1.2666731215	-0.246094
C	-0.6341424931	-4.2460314898	-0.2061858733	-0.233846
C	-1.3611317439	-3.2377685916	 0.7512699294	-0.260173
C	-1.7231339225	-2.1050403044	-0.2231691443	-0.028231
H	 0.9523528606	 1.4277400503	-0.2184760666	 0.288997
H	 0.6076393309	-0.7927623852	 0.5780213966	 0.088852
H	-2.2873362275	 0.1694514021	 0.0088399555	 0.096
H	-0.4479256539	-0.0447898581	-2.2464891805	 0.096444
H	 0.8573017636	-3.645281168	-1.8647923422	 0.089984
H	-1.3503073729	-4.9554389421	-0.6467599279	 0.102968
H	 0.1123341909	-4.8510401029	 0.32006733	 0.100912
H	-2.2145052121	-3.6838644347	 1.2697376591	 0.091377
H	-0.6514767889	-2.8860147979	 1.5081035182	 0.101912
H	-2.6973669602	-2.2872166616	-0.6978832934	 0.084235
131.3024	181.0483	279.6411	289.4303	318.4151	370.5971	458.572	494.65	610.3717	667.0091	712.0433	783.6234	813.8449	835.9297	871.5208	883.7152	896.1754	925.0222	951.0507	958.3901	1002.8821	1040.9027	1083.2159	1093.0709	1109.9094	1123.0788	1149.0045	1160.0251	1184.1049	1210.4346	1219.9167	1258.8396	1288.3449	1299.8363	1307.1875	1324.4438	1358.3252	1445.3184	1480.7363	1493.3969	1726.094	2998.6801	3005.8376	3043.6801	3063.4428	3081.3464	3097.408	3189.0221	3196.359	3198.2851	3807.2667
OC1C2C1C1=CCCC21	O[C@H]1[C@H]2[C@@H]1[C]1[CH]CC[C@@H]21	
InChI=1S/C8H10O/c9-8-6-4-2-1-3-5(4)7(6)8/h2,5-9H,1,3H2	InChI=1S/C8H10O/c9-8-6-4-2-1-3-5(4)7(6)8/h2,5-9H,1,3H2/t5-,6+,7-,8-/m1/s1
