12
gdb 21586	3.96699	2.0527	1.35315	6.0896	60.26	-0.2288	-0.0469	0.1819	822.6034	0.085931	-410.872163	-410.86567	-410.864726	-410.902598	24.657	
N	 0.0598452828	 1.3411033312	 0.0771493311	-0.56879
C	 0.0297614083	-0.0140526373	 0.0166255034	 0.396232
C	-1.1799507546	-0.7479301075	 0.0643995211	-0.053623
N	-1.1816576949	-2.0648124791	 0.0331768377	-0.16121
N	-0.0313115601	-2.7369538464	-0.0400616334	-0.264204
C	 1.0782778021	-2.0000737445	-0.0814674427	 0.487702
O	 2.2187171798	-2.6961762266	-0.1554047384	-0.384108
N	 1.185551261	-0.6680945496	-0.0624289011	-0.405188
H	 0.936523908	 1.7975125426	-0.1157015483	 0.268518
H	-0.7835459031	 1.8688852242	-0.064704527	 0.270154
H	-2.1462737698	-0.25745901	 0.1278602078	 0.110025
H	 2.9353459203	-2.0480239771	-0.1765341201	 0.304492
181.7294	220.5509	278.89	332.9439	461.062	491.7779	509.462	542.1119	573.2444	608.9075	731.0742	781.1573	821.5687	880.1466	1002.8093	1018.1928	1099.8617	1159.4831	1203.2364	1299.7375	1400.698	1461.6625	1514.2953	1587.1173	1604.2813	1650.0483	3175.6194	3606.772	3734.8799	3786.0582
NC1=CN=NC(O)=N1	Nc1cnnc(O)n1	
InChI=1S/C3H4N4O/c4-2-1-5-7-3(8)6-2/h1H,(H3,4,6,7,8)	InChI=1S/C3H4N4O/c4-2-1-5-7-3(8)6-2/h1H,(H3,4,6,7,8)
