19
gdb 79826	2.13959	1.90657	1.67756	1.3741	73.55	-0.2413	0.0739	0.3152	946.8535	0.160527	-423.006157	-422.998477	-422.997533	-423.037642	31.585	
O	 0.0052503369	 1.4617748147	 0.1659189834	-0.438724
C	-0.02649468	 0.0609930555	-0.0111800784	 0.102534
C	-1.3971917936	-0.5862953914	-0.0153120658	-0.093362
C	-2.0807222537	-0.4632928498	-1.366068347	-0.042999
C	-1.6585383821	 0.6573112281	-2.3205771973	-0.235512
C	-0.1431425816	 0.421180008	-2.5353567735	-0.254678
C	 0.2520558951	-0.5540694676	-1.4185434452	 0.351688
O	 1.5385633927	-1.1030544934	-1.50706696	-0.504519
C	-0.9912845871	-1.475657685	-1.1892531997	-0.163463
H	 0.9238334221	 1.7304107774	 0.2685930044	 0.284861
H	 0.626532654	-0.4488594274	 0.7094605696	 0.079085
H	-1.9601009909	-0.8536914695	 0.871038678	 0.082497
H	-3.1112532679	-0.8019573849	-1.377032695	 0.083189
H	-2.2120494265	 0.588496964	-3.2619693748	 0.092597
H	-1.8522679092	 1.6432569284	-1.8910899116	 0.118094
H	 0.0494836139	-0.0488493076	-3.5090536962	 0.078225
H	 0.441661414	 1.3428563734	-2.4820587496	 0.099548
H	 1.6612542277	-1.4409930068	-2.401043395	 0.275394
H	-1.0508548339	-2.5496003362	-1.3003367563	 0.085544
163.0296	225.0874	257.4917	287.7517	305.5417	348.7911	366.3316	497.1217	548.073	595.7806	636.3832	715.2156	756.7488	789.6281	817.3644	846.0185	902.2367	931.0697	959.6434	988.9349	1010.3235	1020.023	1056.4404	1073.2316	1094.3634	1118.9679	1152.2312	1185.4284	1193.3158	1206.253	1224.9918	1260.4932	1283.4753	1302.8232	1326.9035	1354.2007	1387.7001	1401.3386	1436.7866	1473.193	1498.1967	3015.9008	3020.8331	3055.1996	3092.2157	3107.2197	3167.1046	3180.0482	3210.2307	3797.7803	3817.7343
OC1C2C3CCC1(O)C23	O[C@H]1[C@H]2[C@H]3CC[C@]1(O)[C@@H]23	
InChI=1S/C7H10O2/c8-6-4-3-1-2-7(6,9)5(3)4/h3-6,8-9H,1-2H2	InChI=1S/C7H10O2/c8-6-4-3-1-2-7(6,9)5(3)4/h3-6,8-9H,1-2H2/t3-,4+,5-,6+,7+/m1/s1
