18
gdb 20201	3.65428	2.53685	1.98118	0.5592	76.62	-0.2204	-0.0001	0.2203	750.2823	0.157357	-310.633429	-310.627565	-310.626621	-310.662917	25.053	
C	 0.1169147542	 1.5609433433	 0.2130994828	-0.217889
C	 1.6356859912	 1.9357681994	-0.0106911581	-0.260764
C	 2.1759844711	 0.6273364566	 0.5108967212	 0.129043
C	 2.2944206278	 0.3661513656	 1.821137174	-0.112625
C	 1.4827751842	-0.8567613375	 2.211122876	-0.262587
C	 0.6784864878	-1.1031585092	 0.9318915593	-0.044999
C	 0.0431267517	 0.0168934906	 0.0399439007	-0.035991
C	 1.4322125499	-0.4882851147	-0.2031782033	-0.118734
H	-0.2004008168	 1.8994313952	 1.2045546561	 0.102872
H	-0.5375991043	 2.0403403821	-0.5237834867	 0.095311
H	 1.8374596143	 2.1148227488	-1.0717792305	 0.098542
H	 1.9439042409	 2.8125422035	 0.5633186344	 0.099181
H	 2.6027308192	 1.1013177045	 2.5585340809	 0.087094
H	 2.0623356838	-1.7527076519	 2.4787719407	 0.103172
H	 0.8649746	-0.6163265424	 3.0868734547	 0.104949
H	 0.1993900717	-2.0708235489	 0.8065182616	 0.075012
H	-0.7845548887	-0.3572179052	-0.5561345263	 0.080215
H	 1.801736682	-0.9771812601	-1.0977293176	 0.078199
215.5829	279.0274	374.6832	420.6151	603.8787	641.7102	654.6986	743.3281	760.0786	814.0872	842.3531	845.5923	861.1438	886.1044	922.4644	954.8031	981.2168	1004.9868	1019.5922	1048.2011	1063.3534	1095.8108	1116.1108	1134.8909	1157.2548	1197.782	1199.6721	1258.1118	1273.1144	1298.2567	1304.9802	1325.4385	1343.1453	1391.2984	1475.6601	1480.5668	1497.3091	1658.6647	2994.7164	3031.041	3034.2173	3048.5578	3078.4174	3112.8959	3138.5703	3147.6813	3166.7678	3173.0936
C1CC2=CCC3C1C23	C1C[C]2[CH]C[C@H]3[C@@H]1[C@@H]23	
InChI=1S/C8H10/c1-3-6-7-4-2-5(1)8(6)7/h1,6-8H,2-4H2	InChI=1S/C8H10/c1-3-6-7-4-2-5(1)8(6)7/h1,6-8H,2-4H2/t6-,7+,8-/m0/s1
