15
gdb 44650	2.57195	2.03239	1.23764	4.7808	72.92	-0.2602	-0.0547	0.2055	958.1137	0.11473	-416.837791	-416.83092	-416.829976	-416.869278	26.586	
N	-0.0135993996	 1.302035402	 0.0542270629	-0.511339
C	-0.042147155	 0.0493366263	 0.0591606941	 0.369963
C	-1.1580364551	-0.9881667065	 0.0446098498	-0.34283
C	-0.015824014	-2.0590358541	-0.0163947167	-0.025819
C	 0.3173038581	-2.8360067916	-1.2545603002	-0.098359
C	 1.394810378	-2.3113010262	-1.8506265378	-0.162954
C	 1.813659687	-1.0570518591	-1.1585032842	 0.342661
O	 2.6100955699	-0.2230358796	-1.506818183	-0.33582
N	 0.9832201183	-0.9676434603	-0.0040472404	-0.147684
H	 0.946533272	 1.6484471675	 0.0064941017	 0.247117
H	-1.7904041614	-1.0241187457	 0.9328430925	 0.140745
H	-1.7839742592	-0.9331823323	-0.8480983053	 0.144532
H	 0.0304723182	-2.6908013269	 0.8775856049	 0.114835
H	-0.2129874597	-3.7319946976	-1.5542373853	 0.12981
H	 1.8979467525	-2.6620260758	-2.7411353729	 0.135144
97.387	151.7214	237.7089	345.7355	464.5357	470.4339	521.9476	595.8966	703.4403	725.7673	743.962	787.0535	829.838	860.0698	897.2873	971.2898	984.0117	1011.3957	1034.3045	1041.0686	1088.5591	1123.8987	1138.5432	1180.5719	1220.4708	1233.8266	1287.1292	1324.6737	1356.737	1456.3193	1634.4697	1787.7642	1848.4013	3049.0425	3085.3431	3143.1099	3208.1034	3243.6954	3475.1326
N=C1CC2C=CC(=O)N12	[NH][C]1C[C@H]2C=CC(=O)N12	
InChI=1S/C6H6N2O/c7-5-3-4-1-2-6(9)8(4)5/h1-2,4,7H,3H2	InChI=1S/C6H6N2O/c7-5-3-4-1-2-6(9)8(4)5/h1-2,4,7H,3H2/t4-/m1/s1
