13
gdb 132584	3.14513	1.38441	0.96701	0.9973	63.53	-0.2686	-0.0474	0.2213	1103.4366	0.08815	-502.053665	-502.046162	-502.045218	-502.086505	26.937	
C	-0.0118926092	 1.486062632	 0.0174766087	-0.459985
C	 0.003528505	-0.0148857349	-0.012608933	 0.350833
N	-0.1009135222	-0.6238175373	-1.1941492201	-0.275001
C	-0.0839370073	-1.9623217031	-1.1915161753	-0.097014
C	 0.0353989275	-2.6890418626	-0.0249133827	 0.091678
F	 0.0526711522	-4.0167713872	-0.0130652857	-0.048529
C	 0.1379347506	-1.9503667932	 1.155254776	 0.224363
F	 0.2546178395	-2.5891178018	 2.3055148188	-0.040371
N	 0.1234089683	-0.6454325113	 1.1713466942	-0.321791
H	 0.9096945606	 1.8655784206	 0.4699452455	 0.146346
H	-0.1124003669	 1.8814170396	-0.9929199639	 0.142907
H	-0.8405853496	 1.8443850035	 0.6362110441	 0.146344
H	-0.1681754685	-2.4765629841	-2.1453267166	 0.14022
50.5814	127.3692	225.5601	280.1361	310.475	386.7188	464.4758	481.2543	550.0856	581.3423	671.159	754.9974	784.0341	801.4385	964.7593	966.0718	1042.0327	1066.5259	1226.0445	1269.2717	1285.3118	1351.2033	1396.222	1441.3877	1473.4109	1478.1873	1518.2928	1604.5608	1651.1552	3049.4741	3106.2708	3161.4106	3171.9476
CC1=NC=C(F)C(F)=N1	Cc1ncc(F)c(F)n1	
InChI=1S/C5H4F2N2/c1-3-8-2-4(6)5(7)9-3/h2H,1H3	InChI=1S/C5H4F2N2/c1-3-8-2-4(6)5(7)9-3/h2H,1H3
