19
gdb 52457	10.97983	0.39999	0.39329	1.7114	75.36	-0.2572	-0.0328	0.2244	2587.8255	0.154383	-460.16568	-460.154832	-460.153887	-460.204403	35.034	
O	-0.0382037003	-0.1428783656	-0.1922442972	-0.232348
C	 0.0404127918	 1.0568310782	-0.1543780208	 0.161019
C	 1.3336110823	 1.8419284815	-0.1381058106	-0.2775
C	 1.3758065932	 2.8926001226	-1.2588582187	-0.212954
C	 2.6193165563	 3.7679268789	-1.1797338568	-0.04727
O	 2.5745279309	 4.7010664721	-2.2394903505	-0.248707
C	 3.6847041542	 5.5588393673	-2.2835218948	-0.14664
C	 3.513145323	 6.4980298259	-3.4654365633	 0.139536
O	 4.3002297238	 7.3604771792	-3.7491288741	-0.235249
H	-0.8773412682	 1.6913107957	-0.1296601603	 0.073651
H	 1.3939676844	 2.3490474992	 0.8366868672	 0.12199
H	 2.1681360699	 1.1377838478	-0.2048441024	 0.126184
H	 1.3523331483	 2.4007799242	-2.237496794	 0.126056
H	 0.4903315828	 3.5373016806	-1.2066286043	 0.11725
H	 2.6595430973	 4.292051722	-0.2093792106	 0.092905
H	 3.5311101453	 3.1513156845	-1.2514815793	 0.09706
H	 3.7825659795	 6.1606566592	-1.3639186597	 0.123053
H	 4.6316320357	 5.0055744365	-2.4063341766	 0.123864
H	 2.5851876496	 6.3124283802	-4.0498396031	 0.0981
35.9318	52.5857	67.9888	68.3007	92.508	131.1917	142.6622	208.9174	267.4181	369.5135	459.2985	512.3685	580.091	740.2358	758.2772	818.1484	926.3662	995.454	1011.057	1055.674	1060.9162	1113.359	1127.2375	1156.2842	1175.7704	1216.8348	1238.9705	1262.3231	1293.8945	1318.0107	1341.7627	1364.0275	1402.1783	1429.9924	1438.0311	1465.9313	1481.9501	1499.6169	1528.9024	1840.2537	1846.4831	2852.7081	2900.9129	2952.1125	2963.0751	2982.3629	2989.8209	3007.7136	3039.7699	3080.186	3101.0304
O=CCCCOCC=O	O=CCCCOCC=O	
InChI=1S/C6H10O3/c7-3-1-2-5-9-6-4-8/h3-4H,1-2,5-6H2	InChI=1S/C6H10O3/c7-3-1-2-5-9-6-4-8/h3-4H,1-2,5-6H2
