19
gdb 78745	2.92279	1.59219	1.22658	0.6081	74.35	-0.2294	0.0772	0.3066	1053.5407	0.159848	-422.993932	-422.986099	-422.985154	-423.025757	31.268	
C	 0.0290804571	 1.4286349542	-0.0028568835	-0.494275
C	-0.0074562632	-0.0803410574	 0.0185692721	 0.299106
C	-1.3277595813	-0.7808786713	-0.3029881681	-0.145926
O	-1.2768851453	-2.046415563	 0.363573263	-0.266096
C	 0.0744127836	-2.2488841842	 0.7449830479	 0.026983
C	 0.6775528661	-0.8671132054	 1.0942152562	-0.119886
C	 1.2813973297	-0.8284970672	-0.3084638728	-0.121511
C	 1.0255735233	-2.3163736913	-0.5004974831	 0.090919
O	 2.2288358384	-3.0160523076	-0.2473761468	-0.43751
H	 1.0099327162	 1.8061201371	 0.301381972	 0.123985
H	-0.1765372809	 1.8167085813	-1.0070264268	 0.122823
H	-0.7196862189	 1.8502083448	 0.6770469582	 0.122204
H	-2.181334764	-0.2127234576	 0.0882607262	 0.100207
H	-1.4802228044	-0.9231162059	-1.3821688012	 0.097252
H	 0.1354809346	-3.0771146006	 1.4509227112	 0.079548
H	 1.0324985111	-0.4863997218	 2.0423278115	 0.088067
H	 2.1631887249	-0.3028828046	-0.6568696806	 0.088646
H	 0.5548806582	-2.6518281741	-1.4366039905	 0.063026
H	 2.0282072647	-3.9578598455	-0.2588974452	 0.282437
161.5246	206.6117	222.1564	269.5604	302.3556	312.8306	345.6411	409.7192	493.0975	576.1561	693.0219	765.746	810.4738	857.0376	867.5199	909.5011	948.4933	961.5872	975.0883	988.5269	1016.103	1033.7915	1062.5608	1086.764	1106.5619	1133.0653	1154.7747	1201.4044	1212.0594	1224.2588	1254.3443	1266.5162	1306.5477	1317.8505	1360.0258	1418.955	1422.653	1431.0428	1491.7174	1501.5032	1526.4124	2986.7617	3000.8816	3027.1689	3039.1595	3086.37	3104.1504	3122.0187	3179.0383	3204.9401	3809.2812
CC12COC3C1C2C3O	C[C@]12CO[C@@H]3[C@H]1[C@H]2[C@H]3O	
InChI=1S/C7H10O2/c1-7-2-9-6-4(7)3(7)5(6)8/h3-6,8H,2H2,1H3	InChI=1S/C7H10O2/c1-7-2-9-6-4(7)3(7)5(6)8/h3-6,8H,2H2,1H3/t3-,4+,5+,6+,7+/m0/s1
