16
gdb 62541	2.4321	1.44531	1.1989	2.3421	73.01	-0.2706	0.0029	0.2735	1088.5012	0.121269	-437.84583	-437.836712	-437.835767	-437.879512	33.766	
C	-0.0930897663	 1.5562112154	-0.0361151193	-0.423265
C	-0.0328540321	 0.0434985685	 0.0900503661	 0.267103
O	-1.3282374711	-0.4206220555	 0.2941933354	-0.44866
C	 0.8449572446	-0.673361605	-1.0187941735	-0.160998
O	 1.8659571621	-0.9516309385	-0.0008023496	-0.25887
C	 1.0748189165	-0.459229679	 1.0214522104	 0.376267
N	 1.2486817671	-0.4562449541	 2.2602854388	-0.540077
C	 0.2759391346	-1.8784182833	-1.5794345819	 0.334269
C	-0.2462579822	-2.8729923436	-2.0084036215	-0.416505
H	 0.8979652137	 1.9764299295	-0.225226196	 0.128522
H	-0.7639191892	 1.8310825633	-0.8549480309	 0.133439
H	-0.4804494781	 1.9792923743	 0.8937170297	 0.152478
H	-1.314642924	-1.3848341475	 0.3295546832	 0.29081
H	 1.2524232063	-0.0142363488	-1.7896084604	 0.118931
H	 2.1287596133	-0.9039884383	 2.5228577906	 0.232753
H	-0.6860183952	-3.7528636473	-2.4105779912	 0.213804
72.2247	128.3084	166.1636	213.6433	224.591	280.3719	321.4919	333.9201	378.666	463.6993	517.9866	617.3572	649.7915	680.6822	685.5454	693.7829	797.5349	848.511	874.4679	925.1642	987.2514	1004.6711	1043.9437	1102.5666	1140.719	1185.1163	1257.7929	1287.3084	1351.2501	1391.8728	1415.5768	1479.1915	1492.114	1829.2538	2234.1346	3049.5697	3081.0186	3128.1906	3135.7082	3473.2624	3498.6644	3788.0223
CC1(O)C(OC1=N)C#C	C[C@@]1(O)[C@@H](O[C]1[NH])C#C	
InChI=1S/C6H7NO2/c1-3-4-6(2,8)5(7)9-4/h1,4,7-8H,2H3	InChI=1S/C6H7NO2/c1-3-4-6(2,8)5(7)9-4/h1,4,7-8H,2H3/t4-,6+/m0/s1
