18
gdb 35913	2.72301	1.53323	1.21098	5.7047	75.69	-0.2317	0.0406	0.2722	1058.9453	0.151345	-398.112843	-398.105219	-398.104274	-398.14505	29.644	
N	-0.2113883281	-1.0915425218	-0.4507317496	-0.33628
C	-0.100617403	 0.0354728578	-0.2215501221	 0.302531
C	-0.0048144961	 1.4770190773	 0.026703499	-0.14299
C	-0.7330787052	 1.8886319272	 1.3315139071	-0.182912
N	 0.1061590042	 1.6036384701	 2.4783920444	-0.271674
C	 1.2451479655	 2.5051351927	 2.571810381	-0.171468
C	 2.067915631	 2.4542781387	 1.2993689449	-0.010845
N	 2.41070646	 1.1259743784	 0.7890897886	-0.296667
C	 1.4575083909	 1.9492931693	 0.0368300627	-0.056156
H	-0.5158035248	 1.9746409014	-0.8061716394	 0.118994
H	-0.9861750673	 2.9624000551	 1.2366728206	 0.082081
H	-1.6704142439	 1.3341888717	 1.4203453871	 0.122242
H	-0.4305307002	 1.6098372151	 3.3355040678	 0.229318
H	 0.9458137087	 3.5604539003	 2.7298057099	 0.0783
H	 1.8656102367	 2.2073041219	 3.4244846129	 0.112794
H	 2.8075752174	 3.247428933	 1.2097509308	 0.088633
H	 3.3186350293	 1.1316215903	 0.3336775365	 0.237164
H	 1.7967376649	 2.3838054913	-0.8995875021	 0.096933
82.9094	140.4001	225.7176	302.1027	365.0167	372.5154	422.9	448.9539	590.0954	606.7804	675.539	770.6734	798.7306	827.1065	887.2509	894.9329	923.1552	964.9357	974.5719	1050.3237	1074.052	1092.4261	1123.256	1161.9311	1177.6422	1194.9635	1242.2846	1270.365	1275.4079	1306.4093	1343.1108	1359.4273	1390.2952	1430.7312	1459.9845	1487.5867	1494.5662	1499.4654	2360.8452	2904.1045	2911.1874	3042.4299	3058.3461	3096.3066	3125.7701	3140.6223	3516.551	3568.1788
N#CC1CNCC2NC12	N#C[C@H]1CNC[C@H]2N[C@@H]12	
InChI=1S/C6H9N3/c7-1-4-2-8-3-5-6(4)9-5/h4-6,8-9H,2-3H2	InChI=1S/C6H9N3/c7-1-4-2-8-3-5-6(4)9-5/h4-6,8-9H,2-3H2/t4-,5+,6-/m0/s1
