23
gdb 103492	2.44368	1.34334	1.15753	1.3933	84.57	-0.2421	0.0701	0.3121	1220.8392	0.206375	-388.293631	-388.284286	-388.283342	-388.327529	36.233	
C	-0.3316652598	 1.4643059856	 0.0204391439	-0.393697
C	 0.0738439999	-0.0100127995	-0.1133074043	-0.243871
C	 0.7305719206	-0.558329066	 1.1393139681	 0.406627
O	 1.9472571354	 0.098813505	 1.4423210486	-0.477904
C	-0.0040785985	-1.0610489575	 2.3675667721	-0.114773
C	-1.4658116411	-1.4883916158	 2.3040002974	-0.228846
C	-1.5705559011	-2.5517077941	 1.1767050033	-0.220164
C	-0.1243222193	-3.04263685	 0.8920803674	-0.230159
C	 0.8163061934	-2.0148945155	 1.5077005925	-0.091658
H	 0.5398925924	 2.0982872084	 0.2147201812	 0.111565
H	-0.7980701834	 1.8287682227	-0.8995745073	 0.114551
H	-1.0456703605	 1.6088921727	 0.8386596207	 0.117249
H	-0.8030437265	-0.6031708362	-0.3808773914	 0.099382
H	 0.7878759605	-0.1168063883	-0.9394272793	 0.104762
H	 1.7309584318	 0.9583119647	 1.8192071573	 0.279031
H	 0.386480676	-0.7176589082	 3.3202097048	 0.076443
H	-1.7365005137	-1.9284658553	 3.2704711432	 0.101079
H	-2.1572377835	-0.6543586283	 2.1388133368	 0.096039
H	-2.2243899755	-3.3791384411	 1.4664395738	 0.096644
H	-2.016448549	-2.1187322444	 0.2778152906	 0.107868
H	 0.0554786931	-4.0069334659	 1.379894766	 0.101085
H	 0.0484061089	-3.1980354509	-0.1786220625	 0.098921
H	 1.79484684	-2.3442334322	 1.8388725672	 0.089827
71.6513	120.4286	154.4117	211.7789	246.7131	258.977	273.6941	331.5575	410.1319	432.8578	511.8118	646.7186	682.0215	700.4704	779.5993	794.1503	837.5224	863.0921	894.6601	908.3726	946.9987	981.2526	1002.3858	1018.6791	1055.6818	1062.3882	1083.4376	1096.8323	1117.6273	1176.3089	1178.369	1215.971	1251.7847	1279.6817	1284.344	1297.1316	1309.6466	1323.4272	1335.1403	1351.8932	1373.0936	1402.5277	1448.1923	1471.6985	1492.8529	1494.5125	1499.8869	1512.6808	1520.5787	3031.2207	3032.4302	3035.1379	3036.3201	3058.3422	3064.6881	3067.0635	3091.3039	3099.7667	3105.859	3118.3397	3156.1524	3174.6562	3801.2947
CCC1(O)C2CCCC12	CC[C@@]1(O)[C@H]2CCC[C@@H]12	
InChI=1S/C8H14O/c1-2-8(9)6-4-3-5-7(6)8/h6-7,9H,2-5H2,1H3	InChI=1S/C8H14O/c1-2-8(9)6-4-3-5-7(6)8/h6-7,9H,2-5H2,1H3/t6-,7+,8+
