18
gdb 29790	2.44419	1.52043	0.95152	2.6657	76.63	-0.1798	0.0456	0.2254	1213.2451	0.146089	-439.111299	-439.10142	-439.100475	-439.145809	35.597	
C	 0.0163911161	 1.4610374124	 0.0294115079	-0.335062
N	-0.035897231	 0.0170693528	 0.0251058874	-0.054856
C	 0.0164157752	-0.7594332752	-1.1222525986	-0.213053
C	 0.0755704765	-2.0738592893	-0.7304060733	 0.251536
O	 0.1149450103	-3.1747852971	-1.5320921148	-0.456936
C	 0.0724076462	-2.0897855786	 0.6889984803	 0.048662
O	 0.0462171287	-3.2565581683	 1.4323554659	-0.459749
C	-0.0020517097	-0.7870547679	 1.1417792817	 0.231627
C	-0.0471914943	-0.277590236	 2.5418435191	-0.5117
H	 1.0315425675	 1.8403033709	 0.2055834552	 0.129927
H	-0.3267098269	 1.8329031727	-0.9385008279	 0.139931
H	-0.6416608377	 1.8675321971	 0.8024020712	 0.136253
H	 0.0010857505	-0.3124175681	-2.1017117369	 0.114885
H	 0.0395331634	-3.9361169762	-0.9437524849	 0.293633
H	 0.9300699023	-3.4296944315	 1.7737872843	 0.296956
H	 0.8331625733	 0.3207974057	 2.8106866055	 0.122789
H	-0.9316205557	 0.3424664501	 2.7344088113	 0.129005
H	-0.0921092247	-1.1307971133	 3.2234940165	 0.136151
75.2979	132.9416	151.1427	170.5175	198.0544	243.1696	266.3044	289.3652	303.1824	338.9727	418.1631	563.9805	596.3649	604.485	609.3859	645.9711	700.7338	744.897	879.1814	1053.4918	1059.5107	1071.9811	1144.5918	1152.3276	1186.354	1212.6548	1248.5447	1306.6854	1411.332	1422.5447	1426.8196	1469.8208	1483.4949	1491.5113	1495.1548	1506.2453	1521.953	1602.519	1665.1412	3010.6292	3015.1114	3054.4652	3086.6806	3116.9036	3128.3624	3272.6896	3786.8314	3789.141
CN1C=C(O)C(O)=C1C	Cn1cc(O)c(O)c1C	
InChI=1S/C6H9NO2/c1-4-6(9)5(8)3-7(4)2/h3,8-9H,1-2H3	InChI=1S/C6H9NO2/c1-4-6(9)5(8)3-7(4)2/h3,8-9H,1-2H3
