16
gdb 37109	3.78046	1.73462	1.67502	1.3295	70.04	-0.2001	0.0067	0.2068	852.2427	0.12578	-400.659471	-400.653238	-400.652294	-400.68954	26.5	
C	 0.0177778281	 1.4787532445	-0.09600904	-0.292844
C	 1.3249013473	 0.7515151712	 0.0553720806	-0.115998
C	-0.0032349752	-0.0151667232	 0.0515788566	-0.102187
C	 0.4347712774	-0.747575224	-1.2422123902	 0.22663
C	 0.8251273617	 0.0740397378	-2.4368635765	-0.396322
C	 1.7551579649	 0.0550518057	-1.2577694484	 0.276914
O	 2.7722701106	-0.9310725503	-1.2223409659	-0.244141
C	 2.1027387611	-2.1300144968	-1.213754914	 0.083822
N	 0.8290632269	-2.1376573918	-1.1947556162	-0.297382
H	-0.2890523193	 2.0112585138	 0.7992257719	 0.123361
H	-0.2677070101	 1.9848338239	-1.0119602831	 0.116786
H	 2.0213511002	 0.957015816	 0.8577828594	 0.10242
H	-0.5237482241	-0.52210928	 0.8535814993	 0.102652
H	 1.1589463347	-0.4962539157	-3.296690113	 0.138473
H	 0.2898710707	 0.9799407983	-2.6936042206	 0.131602
H	 2.7449939751	-3.0032651495	-1.2460539201	 0.146214
250.6592	262.9781	351.3435	424.901	452.6823	512.0509	560.3399	621.8069	647.8185	731.3787	808.5717	833.8687	886.8281	905.4093	913.8695	937.6489	946.1363	961.8572	971.74	1017.4494	1045.0929	1049.385	1080.9013	1099.5859	1162.0638	1175.5977	1183.1061	1214.8053	1285.2659	1319.59	1328.9488	1350.6019	1456.3472	1504.497	1637.2523	3126.9301	3145.5249	3191.4505	3197.6347	3208.1878	3218.6163	3230.2349
C1C2C1C13CC21OC=N3	C1[C@H]2[C@@H]1[C@@]13C[C@@]21OC=N3	
InChI=1S/C7H7NO/c1-4-5(1)7-2-6(4,7)8-3-9-7/h3-5H,1-2H2	InChI=1S/C7H7NO/c1-4-5(1)7-2-6(4,7)8-3-9-7/h3-5H,1-2H2/t4-,5+,6+,7-/m1/s1
