18
gdb 64916	2.24135	1.45631	1.03971	2.2648	81.03	-0.2537	-0.0335	0.2202	1189.0357	0.143612	-401.907158	-401.897171	-401.896227	-401.941848	36.322	
C	-0.0334081991	 1.5668858159	-0.0578240355	-0.460704
C	-0.0153681631	 0.0575998768	 0.0190614635	 0.167643
N	 1.2854125314	-0.6245799266	-0.1672552782	-0.387901
C	 0.6587447853	-0.6959528417	 1.1608316347	 0.10007
C	 1.3621351835	 0.0650337067	 2.2741168339	-0.45515
C	 0.1061337591	-1.9601914885	 1.5942135602	 0.278785
C	-0.2956731571	-3.0140613195	 2.0126932634	-0.438491
C	-1.1974241114	-0.6166586599	-0.6057759539	 0.107096
O	-2.1313882414	-0.0240857506	-1.0845946583	-0.256326
H	 0.9321718914	 1.9902034896	 0.2168643497	 0.129924
H	-0.2694384504	 1.8755267373	-1.0797296452	 0.141958
H	-0.8083040886	 1.9790328692	 0.5945916427	 0.134695
H	 1.1614190886	-1.5071381472	-0.6634374028	 0.240765
H	 1.8641292202	 0.9509734495	 1.8861618161	 0.136384
H	 0.6475740233	 0.3633883565	 3.0463609336	 0.134479
H	 2.1139733644	-0.5806749593	 2.7367990929	 0.138271
H	-0.6675559044	-3.9432774672	 2.3687102798	 0.204462
H	-1.1404074318	-1.7265724011	-0.6222141966	 0.08404
87.0562	103.5069	120.6667	162.2674	169.4447	245.4723	276.4295	306.5692	365.4994	386.4214	458.2337	502.8157	560.0935	599.386	626.8972	661.7975	665.2172	753.7447	817.4224	912.2353	989.6933	1010.2762	1056.6934	1078.0763	1106.8422	1125.4697	1145.0079	1254.6252	1328.4697	1366.9996	1407.0866	1416.5814	1438.6174	1474.5775	1482.7022	1490.802	1502.8827	1815.5665	2228.8517	2903.906	3052.8948	3058.8022	3119.0794	3121.1214	3151.7484	3162.7174	3467.4183	3499.7365
CC1(NC1(C)C#C)C=O	C[C@]1(N[C@]1(C)C#C)C=O	
InChI=1S/C7H9NO/c1-4-6(2)7(3,5-9)8-6/h1,5,8H,2-3H3	InChI=1S/C7H9NO/c1-4-6(2)7(3,5-9)8-6/h1,5,8H,2-3H3/t6-,7+/m1/s1
