19
gdb 39970	3.58695	1.32474	1.10557	1.72	81.98	-0.2314	0.0126	0.244	1129.011	0.16025	-385.850768	-385.843298	-385.842354	-385.882643	29.912	
C	 0.0792057011	 1.5318727254	 0.097093395	-0.260121
O	 1.2439773394	 0.6866739027	 0.1028145538	-0.274024
C	-0.0249776509	 0.0759740978	 0.0278816387	 0.428743
C	-0.608006559	-0.9000375223	 1.0900894492	-0.421729
C	-1.4319540075	-1.430744855	-0.0637158206	 0.306479
C	-2.6556572293	-1.6982564581	-0.5031627845	-0.23177
C	-2.7250341087	-1.4188430037	-2.0032756078	-0.236604
C	-1.520288102	-0.4469691746	-2.2478762768	-0.245871
C	-0.5395572669	-0.8235105281	-1.1218842915	-0.128435
H	-0.1260880633	 2.0473837994	 1.034466779	 0.115277
H	-0.0541870075	 2.1312948372	-0.8024458475	 0.118109
H	 0.1660319719	-1.5925890638	 1.4401483786	 0.123958
H	-1.1322258209	-0.4818921139	 1.9526588049	 0.117987
H	-3.5165829474	-1.9968661583	 0.0838552917	 0.093563
H	-2.6216504562	-2.337412887	-2.5983832829	 0.107027
H	-3.6820533908	-0.9716334249	-2.2936449283	 0.102107
H	-1.0994972599	-0.5362005615	-3.2529994458	 0.097577
H	-1.8627543823	 0.5861431003	-2.1203186783	 0.100777
H	 0.26865287	-1.4873250918	-1.4569346569	 0.086952
90.5906	203.706	216.9942	278.643	346.7515	366.6273	486.9311	514.8012	623.0881	644.9005	767.1714	803.3772	842.1971	855.2086	869.7348	892.6332	911.7857	919.5144	960.9473	992.8304	1040.2019	1064.8792	1074.1799	1107.6705	1126.9042	1150.9574	1157.7397	1170.3516	1196.7281	1216.1536	1227.5645	1272.6652	1307.5869	1328.8032	1340.089	1425.6875	1470.5658	1481.2603	1495.456	1534.496	1743.1134	3006.3202	3017.0893	3041.2253	3042.5056	3063.2579	3081.2721	3098.5183	3105.5491	3167.8384	3196.5768
C1OC11CC2=CCCC12	C1O[C@]21C[C]1[CH]CC[C@@H]21	
InChI=1S/C8H10O/c1-2-6-4-8(5-9-8)7(6)3-1/h2,7H,1,3-5H2	InChI=1S/C8H10O/c1-2-6-4-8(5-9-8)7(6)3-1/h2,7H,1,3-5H2/t7-,8+/m1/s1
