23
gdb 76896	2.15961	1.73644	1.34874	1.4575	83.63	-0.237	0.0665	0.3035	1101.6265	0.207386	-388.29351	-388.284747	-388.283803	-388.326574	34.371	
C	-0.7121981419	 1.3531830241	-0.0555120327	-0.413461
C	-0.1044849681	-0.0444886501	-0.0046230138	-0.001336
C	 1.0893132336	-0.3976994663	-0.9665956067	-0.01401
C	 1.6200276011	 0.6408947702	-1.9464794586	-0.402173
C	 1.9774420875	-0.73647704	 0.2733804774	 0.097764
O	 3.0205137191	 0.1741172068	 0.5825797296	-0.254732
C	 2.5117981619	 1.233146897	 1.3874972251	-0.085524
C	 1.3153877963	 0.6528569468	 2.1606492544	-0.239278
C	 0.7827122947	-0.4417887818	 1.2267299905	-0.052102
H	 0.0335242914	 2.1470848662	 0.0469839556	 0.115023
H	-1.2309266371	 1.514660758	-1.0065459442	 0.115082
H	-1.4481638971	 1.4874500362	 0.745029268	 0.113252
H	-0.9186690749	-0.7655017545	-0.1282065737	 0.06817
H	 0.8640001412	-1.3155571265	-1.5204659561	 0.065932
H	 1.9022575954	 1.574783104	-1.4542290752	 0.119654
H	 2.5132377498	 0.263382866	-2.4545786117	 0.119122
H	 0.8735188544	 0.8755218611	-2.7128924748	 0.10826
H	 2.4144448696	-1.7388130399	 0.2729710514	 0.069872
H	 3.3232287316	 1.577594195	 2.035881338	 0.105654
H	 2.2008878828	 2.0824768318	 0.7604876115	 0.090853
H	 1.656903146	 0.2002714059	 3.0966578223	 0.104347
H	 0.5740977955	 1.4162585973	 2.4114267774	 0.102719
H	 0.392126847	-1.2943015972	 1.7850315963	 0.066913
82.8188	182.9002	195.894	223.3675	224.2121	247.8264	253.5497	432.9806	476.9195	504.9009	600.2126	670.4139	732.3918	766.4283	826.6506	849.2682	874.8144	892.3669	939.3037	964.7622	990.1405	1010.9415	1026.9014	1032.5879	1072.7415	1115.704	1141.048	1171.7919	1173.7271	1183.6835	1220.6964	1231.3647	1265.0902	1270.2917	1294.5496	1315.0207	1332.0584	1350.0435	1361.8082	1371.5867	1397.9106	1410.755	1416.6078	1482.4506	1488.631	1491.0787	1499.4252	1505.8676	1526.972	2988.2716	3029.0362	3031.1693	3038.1606	3048.2321	3052.012	3065.62	3076.1363	3090.5731	3091.9153	3098.5776	3102.177	3105.2802	3121.231
CC1C(C)C2OCCC12	C[C@H]1[C@@H](C)[C@H]2OCC[C@@H]12	
InChI=1S/C8H14O/c1-5-6(2)8-7(5)3-4-9-8/h5-8H,3-4H2,1-2H3	InChI=1S/C8H14O/c1-5-6(2)8-7(5)3-4-9-8/h5-8H,3-4H2,1-2H3/t5-,6+,7-,8+/m0/s1
