18
gdb 128779	4.83875	0.82452	0.71393	2.9015	76.44	-0.2473	0.0001	0.2474	1587.4117	0.146193	-439.077069	-439.067755	-439.066811	-439.112288	32.338	
C	 0.3683016355	 1.4028187065	-0.0364620384	-0.226146
O	 0.630048501	 0.0176640769	-0.0463186348	-0.229989
C	 0.1433702582	-0.6342645918	 1.0987761943	-0.170696
C	 0.4732201382	-2.0854473415	 0.9865084789	 0.422554
C	 1.1115038412	-2.8203267644	 0.0423623987	-0.401282
C	 1.0786842565	-4.1468944961	 0.5689951139	 0.388139
C	 1.63089193	-5.4001659185	-0.031093297	-0.495059
N	 0.4693897902	-4.1885266004	 1.7304796454	-0.203057
O	 0.080381409	-2.8712783078	 2.0012908488	-0.223402
H	 0.8436588869	 1.9005809236	 0.8228964683	 0.111163
H	 0.781397611	 1.8160184477	-0.9589814623	 0.134249
H	-0.7120317457	 1.6125162878	-0.0027736293	 0.111161
H	 0.5928015245	-0.2199823257	 2.0183544508	 0.116958
H	-0.9488284559	-0.507088172	 1.1996656062	 0.116974
H	 1.537568187	-2.4708775371	-0.8820351444	 0.124374
H	 2.7114857733	-5.3160300084	-0.1861013855	 0.137467
H	 1.4367594197	-6.248832444	 0.6273580187	 0.149176
H	 1.1747475994	-5.6005183048	-1.0060503525	 0.137417
50.9231	74.4219	118.0284	133.4473	179.773	233.8321	305.1784	338.3966	354.9221	427.7438	638.008	644.2755	675.8269	778.0046	822.2752	929.9242	979.4951	1005.5658	1032.6668	1046.6164	1047.0559	1066.9816	1144.4905	1171.7878	1185.2565	1229.1647	1245.6818	1272.135	1398.6435	1422.1073	1456.7687	1478.827	1482.4259	1483.4929	1486.882	1499.2897	1520.0588	1541.8503	1653.509	2949.2828	2968.6525	2977.6431	3023.9391	3042.6505	3098.6868	3124.1208	3139.8799	3290.5306
COCC1=CC(C)=NO1	COCc1cc(C)no1	
InChI=1S/C6H9NO2/c1-5-3-6(4-8-2)9-7-5/h3H,4H2,1-2H3	InChI=1S/C6H9NO2/c1-5-3-6(4-8-2)9-7-5/h3H,4H2,1-2H3
