25
gdb 122649	5.00253	0.62037	0.57579	0.1543	95.89	-0.2335	0.0293	0.2628	2039.3158	0.229642	-352.381104	-352.371046	-352.370102	-352.41701	37.308	
C	-0.1584598583	 1.5969165452	-0.0667014356	-0.379849
C	-0.073462393	 0.0690218129	-0.0162460026	-0.16237
C	 0.7319389555	-0.4522771744	 1.1793426018	-0.166783
C	 0.8186773647	-1.9816730524	 1.2323979011	-0.191844
C	 1.584005206	-2.5362130415	 2.4451290917	-0.012008
C	 1.5319939319	-4.0860635741	 2.5486678797	-0.227755
C	 2.9080740009	-4.5257535907	 3.1076221705	-0.254696
C	 3.7866239069	-3.3350204123	 2.8035799957	-0.070371
C	 3.0754223269	-2.2649377336	 2.4534211507	-0.05887
H	 0.8382347314	 2.0469745777	-0.1369377329	 0.112513
H	-0.7383953375	 1.9380122422	-0.9301328784	 0.109839
H	-0.6368900324	 1.9970569379	 0.8343161908	 0.11244
H	-1.0863815929	-0.3538436824	 0.0186266696	 0.092995
H	 0.3770804565	-0.3039503945	-0.9456413441	 0.093963
H	 1.7418389393	-0.0221823195	 1.1439503072	 0.093779
H	 0.278841299	-0.0817866395	 2.1098404851	 0.089947
H	-0.1994392317	-2.3952487889	 1.2436945337	 0.089205
H	 1.2903850685	-2.3565721038	 0.3134743871	 0.090822
H	 1.1383899119	-2.0877569259	 3.3483414007	 0.070566
H	 0.6916447397	-4.438697348	 3.1526683354	 0.092594
H	 1.4019201566	-4.5002733435	 1.5420698136	 0.099106
H	 2.8702975226	-4.7102105117	 4.1910328846	 0.102816
H	 3.270546124	-5.4552982388	 2.6538246651	 0.099513
H	 4.8662068425	-3.3624403969	 2.9075124532	 0.0869
H	 3.4923100511	-1.2882795335	 2.2320960663	 0.087548
59.0987	69.88	90.4013	125.605	161.9621	244.9267	265.4358	283.4636	326.4212	443.3121	512.9966	623.1222	730.9453	745.5435	760.777	796.446	849.3885	860.9788	901.911	928.4788	933.2541	968.3309	977.4768	1008.991	1022.8513	1061.9451	1071.7158	1082.3485	1121.9342	1134.6454	1149.6937	1183.9513	1229.4564	1238.7807	1266.865	1299.6964	1306.6438	1318.2365	1331.5368	1335.2441	1348.2939	1375.6742	1392.0952	1398.9902	1413.3977	1480.7156	1483.5868	1486.1627	1498.8046	1500.1917	1500.6168	1512.2788	1684.4547	2961.7709	3000.7879	3003.4778	3005.8533	3016.4988	3026.9695	3028.6697	3036.2166	3039.9306	3054.5069	3060.3874	3093.7879	3094.7447	3099.8449	3175.9006	3201.9111
CCCCC1CCC=C1	CCCC[C@H]1CCC=C1	
InChI=1S/C9H16/c1-2-3-6-9-7-4-5-8-9/h4,7,9H,2-3,5-6,8H2,1H3	InChI=1S/C9H16/c1-2-3-6-9-7-4-5-8-9/h4,7,9H,2-3,5-6,8H2,1H3/t9-/m1/s1
