18
gdb 110690	2.43331	1.67048	1.2705	4.2404	77.31	-0.2464	-0.0522	0.1942	1053.066	0.14844	-401.962874	-401.954926	-401.953982	-401.995411	30.398	
C	-0.3776671772	 1.3967844921	-0.22161582	-0.384345
C	 0.2419574003	 0.0351495464	 0.1269086947	-0.22174
C	 0.8717545759	-0.620256726	-1.0803105934	 0.012745
C	 0.9417063443	-2.1026543779	-1.3543379642	-0.114988
C	 0.0519841046	-3.0585304877	-0.6493304546	-0.082992
C	-1.2263590073	-2.8040298107	-0.9609558478	-0.174582
C	-1.2824683366	-1.5876790006	-1.81456181	 0.361318
O	-2.2490177512	-0.9500370362	-2.149613777	-0.337888
N	 0.0768758835	-1.240196735	-2.1662961524	-0.137003
H	 0.3729202222	 2.0784067728	-0.6357141709	 0.115719
H	-1.1750695301	 1.280420818	-0.9601037868	 0.15906
H	-0.8004830019	 1.8669666964	 0.6708726394	 0.115647
H	 1.0282342002	 0.1631595635	 0.8814969284	 0.103096
H	-0.5147620321	-0.6177194695	 0.5706125973	 0.114366
H	 1.7126075231	-0.0552724726	-1.483700155	 0.108626
H	 1.8377950832	-2.4905156459	-1.8336086493	 0.111001
H	 0.4199315459	-3.8533740469	-0.0122171408	 0.125138
H	-2.1156813568	-3.2971981301	-0.5928112177	 0.126823
103.3311	116.9105	193.5321	222.4946	253.9749	342.484	453.7382	492.9321	557.3495	665.9976	729.9012	741.2375	774.7828	798.4013	835.2705	856.4038	901.3536	949.9414	961.0269	983.5227	1031.5541	1061.0196	1085.2594	1101.2151	1124.1254	1149.3636	1184.0077	1274.5893	1287.9426	1327.3153	1344.2499	1374.4054	1410.8293	1428.8257	1486.0836	1500.3667	1511.0432	1629.7586	1821.7167	3032.6432	3040.0362	3085.1218	3104.1453	3112.3363	3129.2801	3136.7651	3209.2185	3239.8403
CCC1C2C=CC(=O)N12	CC[C@H]1[C@H]2C=CC(=O)N12	
InChI=1S/C7H9NO/c1-2-5-6-3-4-7(9)8(5)6/h3-6H,2H2,1H3	InChI=1S/C7H9NO/c1-2-5-6-3-4-7(9)8(5)6/h3-6H,2H2,1H3/t5-,6+,8?/m0/s1
