20
gdb 12530	3.29779	1.79592	1.22715	0.6114	84.21	-0.2101	-0.0202	0.1899	1027.1197	0.179045	-311.889577	-311.881793	-311.880848	-311.922071	30.263	
C	-0.1126909522	 1.5549857581	 0.0397427405	-0.400178
C	 0.0053447234	 0.0214421369	 0.0097209319	-0.02148
C	 0.6217999475	-0.4450650482	-1.324768273	-0.196462
C	 0.4259399324	-1.9237359304	-1.6751525831	-0.262761
C	 1.058462661	-2.9375745022	-0.7651717035	-0.068112
C	 1.4718006626	-2.7923962798	 0.5026143078	-0.064493
C	 1.3882002448	-1.6380936677	 1.3939095837	-0.090708
C	 0.7683954674	-0.4619292957	 1.2193961025	-0.053476
H	 0.8742014828	 2.0242779266	-0.0451996569	 0.117948
H	-0.7307020535	 1.9201180021	-0.7862841516	 0.109238
H	-0.5645031545	 1.8982766138	 0.9761129234	 0.112018
H	-1.016415905	-0.3861089224	 0.0671484471	 0.086852
H	 0.1790920662	 0.1482228274	-2.1339704093	 0.089653
H	 1.6929870209	-0.2102276634	-1.3186407312	 0.104229
H	-0.6493723315	-2.1444005186	-1.7604599114	 0.109897
H	 0.8212117475	-2.0885184366	-2.6871709912	 0.102958
H	 1.1982090358	-3.9187971012	-1.2157601545	 0.085251
H	 1.9277726911	-3.6673651289	 0.9620077856	 0.079569
H	 1.88041182	-1.7862921024	 2.3531170227	 0.080463
H	 0.8159577034	 0.2455661725	 2.0455559506	 0.079594
32.9393	216.0361	234.7802	269.5212	320.3523	349.1198	405.5709	431.1421	550.1602	614.2967	703.7162	752.4836	807.9312	844.4613	881.2929	887.1767	934.6323	956.2749	998.7421	1007.3764	1016.3188	1067.3702	1089.041	1105.0486	1147.0935	1200.7951	1257.6276	1283.3403	1289.0738	1319.9277	1341.2947	1373.1323	1388.3772	1406.9761	1434.7271	1459.8231	1466.5448	1486.0378	1498.8678	1501.9899	1683.2238	1713.7381	2974.1123	2990.905	3016.156	3027.254	3032.0971	3065.823	3096.1104	3104.0174	3122.5703	3129.9812	3145.859	3158.5034
CC1CCC=CC=C1	C[C@H]1CCC=CC=C1	
InChI=1S/C8H12/c1-8-6-4-2-3-5-7-8/h2-4,6,8H,5,7H2,1H3	InChI=1S/C8H12/c1-8-6-4-2-3-5-7-8/h2-4,6,8H,5,7H2,1H3/t8-/m1/s1
