17
gdb 56364	2.0368	1.45999	1.25912	3.0779	77.92	-0.2599	0.0034	0.2632	1114.9694	0.13408	-380.815151	-380.805745	-380.804801	-380.849217	34.412	
C	-0.0764826695	 1.4705873026	-0.0936090166	-0.405247
C	 0.0190426886	-0.0736391047	 0.05306978	-0.134719
C	 0.7257212044	-0.4243276116	 1.290587171	 0.3576
C	 1.3418969027	-0.6895492499	 2.2860851531	-0.453611
C	-1.3488921734	-0.6280858797	 0.092224575	 0.284624
N	-2.4246959177	-1.0497408997	 0.0762899808	-0.350111
C	 0.7854307771	-0.658792114	-1.1531923181	 0.015375
C	 0.5777202046	-2.0439492337	-1.6261221949	-0.248429
N	 0.133571209	-0.8932919474	-2.4403029737	-0.332523
H	 0.9325557925	 1.8880604292	-0.1183042992	 0.140447
H	-0.5915423009	 1.725971017	-1.0226240152	 0.144296
H	-0.6170058781	 1.9052440927	 0.749122324	 0.147014
H	 1.8764841971	-0.9339739826	 3.1711567475	 0.211538
H	 1.7773106833	-0.2190972787	-1.2282384649	 0.111816
H	 1.4131107843	-2.6034406197	-2.0354362169	 0.126582
H	-0.1799860853	-2.6438718272	-1.1302787162	 0.139104
H	-0.8768160287	-0.7919918427	-2.3571066157	 0.246246
76.8708	127.4261	143.6063	162.21	223.0624	231.7448	252.3102	366.0858	410.8783	475.063	500.0988	572.9449	613.6742	646.17	651.3927	670.468	826.4849	879.7791	932.0112	941.9303	967.2017	1001.9228	1071.3402	1111.5609	1149.8808	1170.5839	1187.7512	1246.8912	1260.9853	1307.8941	1388.5284	1410.215	1484.7001	1491.3731	1510.486	2243.4266	2355.8008	3055.7917	3119.6574	3135.263	3140.1733	3146.1118	3208.1388	3484.8474	3499.5798
CC(C#C)(C#N)C1CN1	C[C@@](C#C)(C#N)[C@H]1CN1	
InChI=1S/C7H8N2/c1-3-7(2,5-8)6-4-9-6/h1,6,9H,4H2,2H3	InChI=1S/C7H8N2/c1-3-7(2,5-8)6-4-9-6/h1,6,9H,4H2,2H3/t6-,7-/m1/s1
