14
gdb 18818	4.26794	2.25469	1.87547	3.5596	59.75	-0.2385	-0.0256	0.2129	711.4046	0.108514	-382.514708	-382.509001	-382.508057	-382.54449	22.827	
O	 0.0301222225	 0.0170599734	 0.144949545	-0.315974
C	-0.0081548243	 1.2116181322	 0.0357402994	 0.441823
C	-1.2643148129	 2.1068070964	 0.0086311093	-0.347572
C	-0.7388632414	 3.4603806606	-0.4357658476	-0.093773
C	 0.4392306734	 4.0316012243	 0.321227587	 0.105658
O	 1.0701553883	 3.0138705218	 1.104653308	-0.303511
C	 1.1769878007	 2.1766289596	-0.0974643281	-0.02427
C	 0.6828008361	 3.3323867897	-0.9837049817	-0.161876
H	-1.9827665522	 1.6963803821	-0.7076654124	 0.133594
H	-1.7410711264	 2.1063855065	 0.9936079966	 0.141349
H	-1.3996501485	 4.172469326	-0.9163623449	 0.1013
H	 0.5435282817	 5.0598720693	 0.6460671575	 0.113053
H	 2.1638848149	 1.7341428416	-0.2186085418	 0.100286
H	 1.048383468	 3.6602605765	-1.9457494063	 0.109913
117.2921	306.8099	421.7974	471.472	554.4939	636.1989	711.2597	737.4688	795.9327	800.2164	818.3326	876.9223	924.9787	963.6997	983.6278	1011.6385	1033.0746	1051.3946	1067.4986	1102.8028	1149.1481	1175.2214	1223.2453	1236.7433	1256.4212	1276.979	1318.5477	1396.5515	1451.9202	1860.0057	3059.1173	3101.5869	3143.5814	3182.9654	3191.2221	3222.1775
O=C1CC2C3OC1C23	O=C1C[C@H]2[C@H]3O[C@@H]1[C@@H]23	
InChI=1S/C6H6O2/c7-3-1-2-4-5(2)8-6(3)4/h2,4-6H,1H2	InChI=1S/C6H6O2/c7-3-1-2-4-5(2)8-6(3)4/h2,4-6H,1H2/t2-,4+,5-,6+/m1/s1
