19
gdb 108520	2.6898	1.49961	1.21571	1.1061	70.	-0.2573	0.0751	0.3325	1076.139	0.159987	-460.148035	-460.139852	-460.138908	-460.18112	31.151	
O	 0.0766642573	 1.3822731926	 0.192775135	-0.421003
C	 0.0524439547	-0.0283740941	 0.0775623253	-0.13568
C	-1.3629322407	-0.5547343033	-0.030429201	 0.384098
C	-2.2857618773	-0.4451483806	 1.2214033199	-0.288259
C	-2.5143031882	-1.9860157838	 1.1840972035	-0.253107
C	-1.6393345133	-2.0892883655	-0.0984489964	 0.033168
O	-2.3272941126	-2.2783111867	-1.323663971	-0.254573
C	-2.8426388593	-1.0180922936	-1.6901979062	 0.002163
O	-1.9238614095	-0.0465622622	-1.2399817053	-0.305159
H	-0.4092762098	 1.7252076928	-0.566038786	 0.294032
H	 0.6263068793	-0.3771136261	-0.7954849283	 0.094705
H	 0.5312599008	-0.4243344498	 0.9792522057	 0.105953
H	-1.7802207339	-0.064426242	 2.110865783	 0.115646
H	-3.1777368273	 0.1603552734	 1.0467404787	 0.109345
H	-2.0985168834	-2.5270340838	 2.0372521279	 0.108057
H	-3.545952168	-2.3129762513	 1.036631781	 0.111527
H	-0.7993968376	-2.7866962213	-0.0741510231	 0.087219
H	-2.9200812727	-0.964304516	-2.7794599179	 0.12363
H	-3.8341203584	-0.8526860685	-1.2327990249	 0.088238
72.6362	105.8933	164.9369	224.9159	322.2692	332.8378	420.0315	428.4628	453.714	640.4512	680.3734	727.0344	741.558	834.5402	883.2115	908.5769	945.4823	951.1791	990.786	1024.6047	1054.5975	1086.6124	1094.7927	1125.7852	1147.0004	1182.9625	1186.9453	1214.3753	1229.9079	1240.1387	1261.6109	1273.0012	1317.5942	1348.6638	1380.8781	1423.7695	1435.7442	1467.0308	1482.1782	1494.6389	1542.5596	2945.0917	2984.0469	3067.1658	3073.5704	3075.9954	3089.8792	3094.2814	3115.391	3133.7889	3802.5834
OCC12CCC1OCO2	OC[C@]12CC[C@H]1OCO2	
InChI=1S/C6H10O3/c7-3-6-2-1-5(6)8-4-9-6/h5,7H,1-4H2	InChI=1S/C6H10O3/c7-3-6-2-1-5(6)8-4-9-6/h5,7H,1-4H2/t5-,6-/m1/s1
