15
gdb 98647	3.51026	1.06306	0.93035	2.7133	62.54	-0.2866	-0.0194	0.2672	1244.1561	0.111233	-494.951496	-494.942819	-494.941875	-494.986284	29.634	
C	-0.3145181063	 1.3918913428	-0.3817622862	-0.242825
O	-0.2390110761	 0.1140798275	-1.0339387996	-0.223839
C	 0.9194794906	-0.5409814156	-0.887278727	 0.430253
O	 1.8597588928	-0.1509474563	-0.2439913012	-0.358657
C	 0.8909977022	-1.880853381	-1.5988411366	 0.022821
C	-0.1932224539	-2.881884906	-1.1372756641	-0.430001
C	-0.7173442305	-2.7063214688	-2.563255374	 0.458879
O	-1.6041971254	-3.1132933256	-3.235503952	-0.302806
O	 0.2743519031	-1.8206957509	-2.9226220269	-0.237354
H	-0.1822015134	 1.2789504389	 0.6968835457	 0.145541
H	 0.4595079502	 2.0600770238	-0.7659917541	 0.150332
H	-1.305825078	 1.7811391666	-0.6104013232	 0.144394
H	 1.907993716	-2.267098294	-1.658471908	 0.129351
H	 0.1565282147	-3.8876460689	-0.9024934015	 0.156007
H	-0.8751386158	-2.5296025225	-0.3631212414	 0.157903
46.1641	73.9636	111.0073	135.5809	220.3875	266.6188	323.3365	419.5617	500.2711	522.7461	657.961	749.2437	781.6791	834.4169	911.0574	959.5684	965.1877	1038.0191	1064.474	1113.2493	1134.3835	1179.3894	1211.0294	1223.0993	1284.1841	1311.6202	1345.09	1450.471	1475.5841	1482.6718	1495.641	1827.5113	1955.4261	3057.3383	3100.6052	3130.3498	3134.6806	3162.757	3169.5182
COC(=O)C1CC(=O)O1	COC(=O)[C@H]1CC(=O)O1	
InChI=1S/C5H6O4/c1-8-5(7)3-2-4(6)9-3/h3H,2H2,1H3	InChI=1S/C5H6O4/c1-8-5(7)3-2-4(6)9-3/h3H,2H2,1H3/t3-/m1/s1
