14
gdb 131558	3.1057	1.63796	1.16739	2.5912	63.57	-0.234	-0.029	0.205	985.418	0.102377	-473.785108	-473.778168	-473.777224	-473.816741	26.277	
O	-0.0325197401	 1.486574715	-0.1053349135	-0.41737
C	 0.0805792268	 0.0804906224	 0.023836978	-0.041911
C	-1.2955896758	-0.6904097705	-0.0023899255	-0.126801
O	-1.4486976162	-1.3738317704	-1.2876009371	-0.285515
C	-0.2046228069	-1.3430940255	-1.8217718171	 0.246471
C	 0.7056687159	-0.6133294406	-1.1426411717	 0.258531
O	 1.891927217	-0.6295863747	-1.7674028457	-0.216725
N	 1.7494483098	-1.4209231758	-2.9131136401	-0.127107
C	 0.4981445521	-1.8435540978	-2.9422944637	-0.112903
H	-0.2874499515	 1.6854382541	-1.0139201577	 0.288486
H	 0.5829744349	-0.0751074255	 0.9817738211	 0.121321
H	-1.3245804568	-1.4555659074	 0.7791812131	 0.13103
H	-2.1315215738	 0.0002464918	 0.1221852599	 0.136293
H	 0.1777238647	-2.4760611452	-3.7562619301	 0.146201
100.3852	145.9398	292.9458	334.4965	343.8703	413.2114	492.0157	630.6585	638.277	698.2498	750.8266	774.371	876.2799	886.2271	890.2017	959.1765	968.5988	999.2957	1079.39	1147.7207	1198.3774	1220.4981	1237.1027	1284.4524	1339.2977	1354.3759	1427.1121	1432.0528	1489.2812	1523.6509	1675.1091	3059.4312	3088.0338	3133.1612	3258.7452	3795.3705
OC1COC2=C1ON=C2	O[C@H]1COc2c1onc2	
InChI=1S/C5H5NO3/c7-3-2-8-4-1-6-9-5(3)4/h1,3,7H,2H2	InChI=1S/C5H5NO3/c7-3-2-8-4-1-6-9-5(3)4/h1,3,7H,2H2/t3-/m0/s1
