21
gdb 117565	2.15937	1.09704	0.77002	0.6934	85.97	-0.259	0.0405	0.2994	1539.8302	0.179505	-387.03371	-387.023367	-387.022423	-387.069845	37.371	
C	 0.1400839796	 1.4053026938	 0.0515192442	-0.383706
C	-0.1350877349	-0.0755174301	-0.1453035936	-0.039422
O	 0.8247512805	-0.5850189226	-1.0574505985	-0.244455
C	 0.7092792159	-1.9743150028	-1.3183640352	-0.074578
C	-0.5435718726	-2.3030815745	-2.019477087	 0.347579
C	-1.5621894871	-2.5655263354	-2.6016833031	-0.480383
C	 1.9180661324	-2.3923618794	-2.1282934994	 0.026728
C	 3.2154458804	-2.6847280497	-1.4252497376	-0.27546
C	 2.4196369697	-3.8092571473	-2.0396612111	-0.265196
H	 1.149457786	 1.5620775101	 0.4424577683	 0.124685
H	 0.0542049483	 1.9398048108	-0.8987497695	 0.128266
H	-0.5775269745	 1.8343421329	 0.7573490091	 0.11393
H	-0.0623691775	-0.6156442418	 0.8141547484	 0.081999
H	-1.1519603354	-0.2347260398	-0.5324774682	 0.101906
H	 0.7200626918	-2.5282875032	-0.3620451599	 0.082744
H	-2.461513524	-2.8022465216	-3.1147454816	 0.197134
H	 1.9743258714	-1.9053143145	-3.0962062548	 0.09882
H	 4.1360080147	-2.3762489084	-1.9074894481	 0.114873
H	 3.2337578637	-2.6048912319	-0.3433864008	 0.114234
H	 1.901624575	-4.4899854956	-1.3720298419	 0.115056
H	 2.7897056067	-4.2760190091	-2.9452098597	 0.115242
54.4986	74.5241	96.9976	132.9679	140.035	216.2141	255.539	292.8291	316.6783	409.0598	442.1315	508.1526	621.1746	630.8142	667.7661	767.6827	821.6621	829.084	873.5395	886.8364	921.262	957.928	1014.3787	1043.4362	1060.3191	1077.9983	1119.983	1129.9528	1143.2333	1188.5893	1193.9951	1202.7441	1225.5787	1295.2665	1297.3732	1341.6349	1400.0554	1413.3058	1436.3094	1471.6114	1483.7236	1500.4137	1507.7565	1528.6255	2228.5052	2934.5619	2960.2652	3015.0883	3044.5622	3118.608	3121.7746	3133.2771	3137.4585	3166.247	3211.2656	3226.0613	3502.1577
CCOC(C#C)C1CC1	CCO[C@@H](C#C)C1CC1	
InChI=1S/C8H12O/c1-3-8(9-4-2)7-5-6-7/h1,7-8H,4-6H2,2H3	InChI=1S/C8H12O/c1-3-8(9-4-2)7-5-6-7/h1,7-8H,4-6H2,2H3/t8-/m0/s1
