19
gdb 60809	2.88791	1.01496	0.93467	3.9469	73.64	-0.2398	-0.0284	0.2114	1329.7461	0.156752	-456.390007	-456.379434	-456.378489	-456.42636	36.888	
C	 0.030541278	 1.3250384129	 0.2763366936	-0.399311
C	 0.0092806968	-0.1780586581	-0.0014568799	-0.072424
C	-1.3902444727	-0.7749664995	 0.034924093	 0.151262
O	-2.3785543656	-0.1964804323	 0.4055188576	-0.244792
N	 0.6670858308	-0.575892514	-1.2437792738	-0.121036
C	 0.1308154677	-0.1149922726	-2.5165074496	-0.3619
C	 1.9057574487	-1.1858313339	-1.1471783709	 0.46893
N	 2.5391908222	-1.4304228281	-2.3539849058	-0.574577
O	 2.4314645105	-1.4572356891	-0.0797595407	-0.40921
H	 1.0621301415	 1.6773284482	 0.3499208922	 0.130129
H	-0.4809757292	 1.8912170677	-0.5078981375	 0.12002
H	-0.4857832112	 1.5350191947	 1.2157032613	 0.140087
H	 0.5784704645	-0.6974470721	 0.7811425974	 0.155123
H	-1.4283118188	-1.8312901744	-0.3186556091	 0.080012
H	 0.8244400571	 0.5558237159	-3.0368211815	 0.142645
H	-0.1148425435	-0.950124103	-3.1863295932	 0.126725
H	-0.7964711219	 0.4319875659	-2.3384759941	 0.152082
H	 1.9927490383	-1.5779136093	-3.1867352475	 0.252208
H	 3.3320218469	-2.0445812491	-2.2522808916	 0.264029
52.9355	67.1492	81.4799	136.5732	179.3961	204.7669	227.4883	265.7615	323.3286	389.5804	404.6733	413.3802	534.6218	539.0397	606.5469	649.8774	752.4953	774.1559	858.4666	932.7024	1005.408	1065.9	1101.0741	1116.5975	1142.5409	1146.0943	1200.9505	1286.5414	1331.7597	1354.6927	1397.8148	1411.0611	1419.8209	1482.7301	1486.0502	1489.7345	1499.4184	1524.3575	1624.8098	1776.6692	1831.5512	2870.855	3005.0249	3037.1519	3051.4397	3059.9422	3121.0063	3132.2969	3138.0865	3592.5425	3707.6794
CC(C=O)N(C)C(N)=O	C[C@@H](C=O)N(C)C(=O)N	
InChI=1S/C5H10N2O2/c1-4(3-8)7(2)5(6)9/h3-4H,1-2H3,(H2,6,9)	InChI=1S/C5H10N2O2/c1-4(3-8)7(2)5(6)9/h3-4H,1-2H3,(H2,6,9)/t4-/m0/s1
