20
gdb 133759	1.86343	1.39315	0.99013	1.976	68.19	-0.328	0.0848	0.4128	1285.871	0.165975	-534.6781	-534.667936	-534.666991	-534.714087	36.561	
C	 0.5082213328	 1.3759313719	 0.5463614047	-0.396259
C	 0.0379311517	 0.0369586019	-0.0324663533	-0.189695
C	 0.9082654814	-0.5336571109	-1.1781974744	-0.119601
C	 0.7770288788	-2.0715720089	-1.2528482236	-0.190254
C	 1.7123835764	-2.7973243032	-2.2268690655	-0.396968
C	 0.5499896376	 0.1235892725	-2.5076935983	 0.288975
F	 0.5475780934	 1.467656578	-2.4342116055	-0.079858
F	 1.4163817229	-0.1974134706	-3.4853201234	-0.081537
F	-0.6744280659	-0.2442061675	-2.9276628702	-0.085973
H	 1.5308074772	 1.2972370781	 0.932503244	 0.113484
H	 0.4922936797	 2.1708758986	-0.2004628469	 0.134989
H	-0.13537927	 1.6787985238	 1.3780540798	 0.114512
H	 0.025951875	-0.7073762716	 0.7710440804	 0.099322
H	-0.9983078318	 0.1175576954	-0.3812966658	 0.114324
H	 1.959559546	-0.276514555	-0.9954019596	 0.097128
H	 0.966703139	-2.4465715246	-0.2410175974	 0.102003
H	-0.2656627474	-2.3229655136	-1.4794452779	 0.114049
H	 1.4835009016	-2.5694844374	-3.2690235351	 0.133822
H	 2.7585107619	-2.5247599175	-2.0494422172	 0.115147
H	 1.6239603999	-3.8796207895	-2.0914048148	 0.112389
37.6093	67.8744	110.2188	195.2952	217.6382	224.1985	265.1342	287.7953	309.539	365.1438	445.3127	472.5121	536.8235	579.1321	630.4079	766.686	772.3892	850.1615	906.3123	934.225	1034.7823	1050.28	1064.8452	1081.0973	1105.9467	1158.8492	1187.3104	1198.5463	1265.8653	1273.401	1300.7917	1313.7889	1377.1263	1383.7006	1415.0158	1415.9226	1423.495	1483.0806	1495.9962	1501.5182	1502.5461	1510.4324	1514.1089	3031.7	3033.4073	3039.1461	3041.3153	3043.3221	3068.9463	3076.877	3100.5342	3102.6499	3139.804	3144.1927
CCC(CC)C(F)(F)F	CCC(CC)C(F)(F)F	
InChI=1S/C6H11F3/c1-3-5(4-2)6(7,8)9/h5H,3-4H2,1-2H3	InChI=1S/C6H11F3/c1-3-5(4-2)6(7,8)9/h5H,3-4H2,1-2H3
