19
gdb 73313	3.217	1.54391	1.34768	2.2176	74.46	-0.226	0.0678	0.2938	1015.1166	0.159146	-422.999171	-422.991345	-422.990401	-423.030753	31.889	
C	-0.0008394595	 1.4297499429	 0.0335334303	-0.477016
C	-0.0516211992	-0.0705051094	 0.0058136608	 0.475607
O	 0.9492521413	-0.6383843951	-0.8312046302	-0.309258
C	 0.4344655898	-1.8624315223	-1.3508789113	-0.105861
C	-0.6729118102	-2.2498330014	-0.3724220202	 0.368725
O	-1.4332296515	-3.3068508518	-0.8675706486	-0.487626
C	-0.0911909463	-2.3240450351	 1.0767224335	-0.299754
C	-0.4444285661	-0.8458311616	 1.2516487571	-0.131419
C	-1.3122403146	-0.864256922	-0.0153563427	-0.257183
H	 0.9782078006	 1.7715996471	 0.3845186538	 0.130919
H	-0.1652692791	 1.8412562598	-0.9669529536	 0.126169
H	-0.7647260025	 1.8309008771	 0.7055021744	 0.118724
H	 0.023552035	-1.7253703933	-2.3623420664	 0.096042
H	 1.2429277927	-2.5992552899	-1.3889594606	 0.108601
H	-2.0755232453	-3.5609624251	-0.1972072614	 0.28144
H	-0.7223139374	-2.9581041441	 1.7089138297	 0.090663
H	 0.9550734603	-2.6289509592	 1.1869651608	 0.102343
H	-0.6349270461	-0.3450408528	 2.1947352375	 0.08174
H	-2.3142320421	-0.5116927839	-0.2269867728	 0.087144
202.938	206.5715	226.6273	271.9453	296.4848	333.0084	396.1013	428.3082	498.696	571.4813	623.1574	650.625	724.1037	820.3571	834.754	860.6843	904.0518	926.3842	957.5113	981.5959	1002.1032	1034.1668	1070.3701	1084.2985	1097.8426	1113.4068	1129.3275	1165.4568	1211.7947	1223.0677	1241.5269	1253.4755	1288.6427	1369.424	1404.871	1410.4546	1433.1297	1478.9733	1483.7883	1503.771	1518.558	2994.3595	3031.3008	3038.9486	3078.9628	3084.9776	3105.187	3118.0546	3165.2596	3188.6311	3817.4259
CC12OCC3(O)CC1C23	C[C@@]12OC[C@@]3(O)C[C@@H]1[C@@H]23	
InChI=1S/C7H10O2/c1-6-4-2-7(8,3-9-6)5(4)6/h4-5,8H,2-3H2,1H3	InChI=1S/C7H10O2/c1-6-4-2-7(8,3-9-6)5(4)6/h4-5,8H,2-3H2,1H3/t4-,5+,6-,7+/m1/s1
