21
gdb 93038	2.7318	1.43292	1.0951	1.4466	83.08	-0.2328	0.0092	0.242	1159.6685	0.184601	-387.084185	-387.076026	-387.075082	-387.116497	33.1	
O	 0.2014795754	 1.2885072398	-0.3447985958	-0.435326
C	 0.0635310683	-0.0781706307	 0.0328793449	 0.135837
C	 0.8006078746	-0.3910263635	 1.361394227	-0.270416
C	 0.0115782822	-0.0881526536	 2.6162458207	-0.078065
C	-1.0543307557	-0.8009966464	 2.9900685032	-0.070516
C	-1.5651352423	-1.9558617871	 2.1956115292	-0.05024
C	-2.9448956474	-1.9492099457	 1.5745616749	-0.310153
C	-1.7240597365	-1.8149570957	 0.6948942421	-0.020294
C	-1.4241048551	-0.4726520213	 0.0530261737	-0.23104
H	-0.283457313	 1.8169834109	 0.2988080255	 0.276363
H	 0.5804352483	-0.6270905108	-0.7625578645	 0.084697
H	 1.0655481602	-1.4548622168	 1.3556545872	 0.109465
H	 1.7401828606	 0.1683314406	 1.3469311595	 0.103907
H	 0.3409699096	 0.7416090077	 3.2375016714	 0.086413
H	-1.572491535	-0.5595837882	 3.916726264	 0.08465
H	-1.236648199	-2.9311087989	 2.5530814416	 0.092308
H	-3.5013816382	-2.8799864901	 1.5610020835	 0.109323
H	-3.5597675555	-1.064753338	 1.7100441884	 0.111042
H	-1.4577277421	-2.6845705418	 0.0998003444	 0.080824
H	-1.9597540292	 0.3049109847	 0.6110406883	 0.088262
H	-1.8143191901	-0.4369504552	-0.9699332391	 0.102959
101.178	170.1719	255.1458	295.4222	296.801	331.3698	375.9463	416.4275	484.6484	515.0438	581.8962	715.0338	740.7371	812.0782	818.2861	834.7649	854.8754	907.5018	932.7735	965.7228	992.8211	1018.5275	1036.3876	1063.5353	1083.7825	1089.4649	1115.5372	1131.3357	1136.6758	1207.6543	1223.5744	1234.7089	1253.1217	1274.8158	1316.279	1341.525	1371.5816	1379.913	1414.8397	1426.4451	1429.0657	1474.2106	1477.5687	1490.2202	1701.023	3028.2127	3031.8663	3046.657	3075.1917	3090.7724	3104.1611	3125.3068	3130.8695	3138.7549	3158.9223	3211.2496	3797.9025
OC1CC=CC2CC2C1	O[C@H]1CC=C[C@H]2C[C@H]2C1	
InChI=1S/C8H12O/c9-8-3-1-2-6-4-7(6)5-8/h1-2,6-9H,3-5H2	InChI=1S/C8H12O/c9-8-3-1-2-6-4-7(6)5-8/h1-2,6-9H,3-5H2/t6-,7-,8-/m0/s1
