17
gdb 22583	3.96412	1.06143	0.88989	1.4435	74.43	-0.2445	-0.0063	0.2382	1289.8252	0.135462	-455.120828	-455.112033	-455.111089	-455.15481	31.907	
C	-0.0694221449	 1.4993201034	 0.0326717942	-0.448207
C	-0.0612943741	 0.0026755705	-0.0759632436	 0.402524
N	-0.0168487527	-0.5864995966	-1.1970556535	-0.309347
C	 0.021947619	-2.04213256	-1.2439858362	-0.236745
C	 0.3434710114	-2.6822337845	 0.0782348082	 0.322743
C	-0.2212513658	-1.979840147	 1.2800167865	-0.162257
O	-0.0987171899	-0.5552970428	 1.1679324096	-0.261859
N	 1.0563948151	-3.7385942092	 0.0948306871	-0.188237
O	 1.2379570419	-4.243786412	 1.3932623278	-0.395788
H	 0.7809897628	 1.8382552499	 0.6327360033	 0.140291
H	-0.0158824675	 1.9374480302	-0.9628464378	 0.146055
H	-0.9783850175	 1.8388639538	 0.539345914	 0.137398
H	-0.9574619152	-2.3995267633	-1.5977481534	 0.125972
H	 0.7505537324	-2.36160139	-1.9948922265	 0.135181
H	-1.2853183896	-2.229729996	 1.3973802914	 0.128769
H	 0.3028767774	-2.2703625916	 2.1897415891	 0.152842
H	 1.8365422573	-4.9825777247	 1.2404037098	 0.310664
59.4666	89.2449	143.1689	235.2505	236.7063	303.1631	344.1084	360.8445	422.5016	492.2719	562.7475	603.752	613.7051	751.185	790.7431	910.3621	914.8351	944.4012	985.9369	1043.085	1068.1028	1091.927	1134.1739	1224.5309	1239.8126	1267.7084	1280.997	1345.8131	1380.2861	1408.1263	1419.4851	1469.352	1476.7181	1477.2191	1498.1724	1745.6126	1759.7135	2990.3555	3010.4331	3049.04	3079.2264	3106.4057	3140.0368	3168.9595	3821.3967
CC1=NCC(CO1)=NO	CC1=NCC(=NO)CO1	
InChI=1S/C5H8N2O2/c1-4-6-2-5(7-8)3-9-4/h8H,2-3H2,1H3	InChI=1S/C5H8N2O2/c1-4-6-2-5(7-8)3-9-4/h8H,2-3H2,1H3
