16
gdb 53071	5.58104	0.77368	0.68527	4.6885	86.36	-0.2268	-0.0334	0.1934	1611.3534	0.124226	-396.934781	-396.925713	-396.924769	-396.970992	31.602	
C	-0.0625059353	 1.4405096586	 0.0109800325	-0.51038
C	 0.001193448	-0.0109118085	 0.0026836245	 0.261122
C	 0.0721156476	-1.213821441	-0.0042751188	-0.07928
C	 0.1232591113	-2.6349448871	-0.0123233327	 0.217322
N	 1.1907198418	-3.3492120579	-0.0219250256	-0.315814
C	 0.7421990923	-4.7452129763	-0.0271722697	-0.247258
C	-0.7843279152	-4.7245094058	-0.0189164779	 0.372685
N	-1.5531226734	-5.7351337848	-0.0203451199	-0.559082
N	-1.0730451533	-3.3619125325	-0.0099196662	-0.383041
H	 0.9421080233	 1.8756410411	 0.0039396217	 0.165817
H	-0.5989615586	 1.8162524505	-0.8670109791	 0.159793
H	-0.5824371463	 1.8068192314	 0.9027943643	 0.15983
H	 1.1236910991	-5.2678557838	-0.9114006427	 0.147115
H	 1.133070788	-5.2774802994	 0.8471629658	 0.147115
H	-2.5382946133	-5.4661404108	-0.0136180368	 0.205459
H	-1.992733666	-2.9544427438	-0.0027837793	 0.258594
10.9367	76.6612	84.5488	134.4306	273.8319	297.1836	370.1136	417.2697	431.4583	458.3503	531.1865	564.6794	678.3091	731.0401	850.4909	887.6107	930.0715	980.7025	1000.6802	1049.871	1051.4142	1076.0392	1098.3131	1179.8988	1242.002	1291.1163	1323.1283	1411.5033	1435.6733	1450.5469	1471.957	1473.0335	1660.3145	1762.0508	2368.2988	3031.9923	3047.0548	3077.0923	3094.2597	3100.6768	3457.0954	3666.0283
CC#CC1=NCC(=N)N1	CC#CC1=NC[C]([NH])N1	
InChI=1S/C6H7N3/c1-2-3-6-8-4-5(7)9-6/h4H2,1H3,(H2,7,8,9)	InChI=1S/C6H7N3/c1-2-3-6-8-4-5(7)9-6/h4H2,1H3,(H2,7,8,9)
