19
gdb 30737	3.0759	1.21534	0.9212	0.9798	80.67	-0.1849	0.034	0.2189	1304.7112	0.159446	-419.22752	-419.217889	-419.216945	-419.261953	35.169	
C	 0.0461433712	 1.198606324	 0.5612159531	-0.323253
N	-0.033434762	 0.0483657071	-0.3460604155	-0.391032
C	-1.1764816654	-0.7379389288	-0.2463434437	 0.265917
C	-1.3107757514	-2.0698519546	 0.014540908	 0.080681
N	-0.2752424833	-3.0006547568	 0.1799029337	-0.614016
C	-2.7211293009	-2.3650956205	-0.0126505988	 0.22145
C	-3.3575896478	-3.7003364085	 0.2070995958	-0.511442
C	-3.328014252	-1.179541874	-0.2910847985	-0.117183
O	-2.4292065482	-0.1787641808	-0.448743956	-0.185406
H	 1.0093318001	 1.6985855236	 0.4208307811	 0.114646
H	-0.755856663	 1.935374517	 0.4129571274	 0.118683
H	-0.0074987456	 0.8418006702	 1.593901692	 0.126924
H	 0.1575890278	 0.3352947693	-1.3010859799	 0.230869
H	 0.6134051135	-2.5255351334	 0.2928908959	 0.243231
H	-0.4277393513	-3.6236437949	 0.9641985103	 0.23848
H	-3.1902450074	-4.0735607668	 1.2258484361	 0.118682
H	-4.4389982101	-3.6521725924	 0.0515629458	 0.123994
H	-2.9502074644	-4.4522947339	-0.4785994621	 0.135005
H	-4.3660800297	-0.9075786055	-0.4020883045	 0.123768
70.1404	119.7808	141.3873	169.1115	224.2745	225.0491	279.2458	291.5254	340.3066	387.5521	532.9903	565.4078	625.5485	674.5406	710.665	730.3247	741.2468	781.1225	820.9916	953.741	1009.314	1054.2645	1064.7031	1127.3618	1142.2364	1174.9405	1183.2706	1225.2558	1306.5818	1313.2424	1418.3556	1443.6746	1455.6982	1472.432	1480.4809	1489.317	1503.8171	1520.6138	1611.3584	1636.7859	1718.1098	3002.5174	3017.1308	3066.4342	3075.6967	3108.1753	3112.5788	3258.1886	3495.8592	3511.9049	3603.5564
CNC1=C(N)C(C)=CO1	CNc1c(N)c(C)co1	
InChI=1S/C6H10N2O/c1-4-3-9-6(8-2)5(4)7/h3,8H,7H2,1-2H3	InChI=1S/C6H10N2O/c1-4-3-9-6(8-2)5(4)7/h3,8H,7H2,1-2H3
