15
gdb 48393	2.56697	1.53426	1.16267	5.8432	69.86	-0.2522	-0.0434	0.2088	1046.4415	0.112129	-416.772335	-416.764374	-416.76343	-416.805195	29.188	
O	-0.6227860594	 0.7076358944	 0.7794946418	-0.233906
C	 0.0439093593	 1.0290254321	-0.1665118442	 0.124493
C	 1.3147080174	 1.8699631984	-0.0818989434	 0.029791
C	 2.6297987732	 1.1891182931	-0.6801824284	-0.276552
C	 2.6982216176	 2.306596628	-1.7233321534	-0.023497
N	 1.4302025967	 2.2276186217	-2.4804009096	-0.337224
C	 1.4718845968	 2.9513341131	-1.1922743961	-0.095055
C	 1.5348622709	 2.4067409515	 1.2520675378	 0.253133
N	 1.7381753794	 2.8607642617	 2.2946776254	-0.330524
H	-0.2036506383	 0.7350581554	-1.2039303205	 0.121901
H	 3.4371728045	 1.2046647964	 0.0511044133	 0.14987
H	 2.4965745034	 0.1804703134	-1.0770563022	 0.131313
H	 3.584217958	 2.7491996101	-2.1582191876	 0.11555
H	 1.4562485822	 2.9294549244	-3.2188280742	 0.245168
H	 1.1842787383	 3.9904594062	-1.1025736687	 0.125539
77.5962	135.7208	170.6144	176.1526	284.922	351.7442	419.1017	489.597	521.7397	562.5342	729.3273	759.0732	826.6958	836.9374	865.467	913.8835	941.9854	980.0591	1013.5712	1069.6615	1079.9551	1088.0224	1123.4844	1151.2461	1233.0719	1255.1801	1283.3545	1319.1518	1377.5279	1406.0164	1469.0418	1828.8305	2363.2587	2966.6124	3081.3891	3155.4066	3204.4266	3217.223	3489.2125
O=CC1(CC2NC12)C#N	O=C[C@]1(C[C@H]2N[C@@H]12)C#N	
InChI=1S/C6H6N2O/c7-2-6(3-9)1-4-5(6)8-4/h3-5,8H,1H2	InChI=1S/C6H6N2O/c7-2-6(3-9)1-4-5(6)8-4/h3-5,8H,1H2/t4-,5-,6+/m1/s1
