24
gdb 118127	2.09699	1.15757	0.87564	1.984	86.95	-0.2141	0.0774	0.2914	1473.2317	0.214749	-405.511931	-405.500894	-405.49995	-405.548871	39.615	
C	 0.2177159575	 1.082438943	-0.6276737576	-0.388353
C	 0.0619013586	-0.2254036072	 0.1309702929	-0.039523
O	-1.1679256069	-0.816652405	-0.2487269328	-0.252512
C	-1.4307216424	-2.0898238609	 0.3292032055	 0.109364
C	-1.9212098397	-1.9572870844	 1.7773626801	-0.404939
C	-2.4717988226	-2.8294507724	-0.5039076805	-0.00288
C	-3.2607593562	-2.151998041	-1.5722535678	-0.244102
N	-2.3050703014	-3.2029565107	-1.906876228	-0.100382
C	-1.0914003981	-2.8301022524	-2.6233715473	-0.324208
H	 1.1554102472	 1.5733102356	-0.350109664	 0.115496
H	 0.2248995526	 0.9062839623	-1.7071890854	 0.127308
H	-0.609576015	 1.7597190705	-0.3973326224	 0.127832
H	 0.8957835278	-0.9091766592	-0.0991591533	 0.088365
H	 0.0887699735	-0.036819429	 1.2149455006	 0.092355
H	-0.4961823037	-2.6781130387	 0.3250096061	 0.069357
H	-2.8621338953	-1.3993942504	 1.8064289563	 0.128033
H	-2.0879722327	-2.9442828525	 2.2195667516	 0.118695
H	-1.1899286902	-1.4350227833	 2.3996676899	 0.116061
H	-2.9634341506	-3.6107369152	 0.0749637057	 0.084275
H	-4.3099219124	-2.3948445333	-1.7240333193	 0.104251
H	-2.9840374076	-1.1241790894	-1.7918545402	 0.123765
H	-0.7186618375	-1.8257635437	-2.3870174935	 0.121874
H	-0.3046265981	-3.5590441837	-2.3994550409	 0.112807
H	-1.2951084768	-2.883990359	-3.6978903857	 0.117061
47.0802	53.6536	85.7875	149.4259	173.4971	207.2955	225.3805	259.6103	288.2957	290.3502	374.6225	386.3162	437.0076	548.0869	594.2175	740.2968	808.7403	821.9357	859.5598	909.7053	954.9762	987.8082	1022.97	1053.7832	1073.1419	1106.6067	1111.9885	1131.1965	1141.9456	1155.0234	1168.8524	1187.4359	1201.1845	1208.9304	1298.6294	1340.6006	1347.4583	1362.8488	1401.4182	1403.0917	1412.6658	1435.7202	1443.0408	1484.229	1489.5098	1491.5238	1495.1803	1499.6801	1506.1939	1507.6759	1529.1357	2944.9865	2966.6396	3000.3564	3012.7897	3042.5014	3044.17	3078.8572	3090.9325	3098.811	3104.0428	3116.0502	3118.1696	3120.4953	3121.1452	3188.8472
CCOC(C)C1CN1C	CCO[C@@H](C)[C@H]1CN1C	
InChI=1S/C7H15NO/c1-4-9-6(2)7-5-8(7)3/h6-7H,4-5H2,1-3H3	InChI=1S/C7H15NO/c1-4-9-6(2)7-5-8(7)3/h6-7H,4-5H2,1-3H3/t6-,7+,8?/m0/s1
