18
gdb 102441	1.93773	1.29542	0.88035	3.102	74.63	-0.2738	-0.0893	0.1845	1349.0651	0.144182	-439.09516	-439.084731	-439.083787	-439.131391	35.455	
C	-0.6796749066	 0.9594360629	-0.5715496969	-0.388273
C	-0.1377981996	-0.4112516371	-0.1607353945	-0.207142
C	 0.7289191719	-0.334437305	 1.1093520145	 0.012892
O	-0.0745476469	 0.0925751488	 2.166993451	-0.225968
C	 0.6270487498	 0.524886823	 3.3214850831	-0.251356
C	 1.3601262345	-1.7012938586	 1.3946355782	 0.280589
O	 1.0981419505	-2.4041767363	 2.3343156516	-0.26369
C	 2.3690629825	-2.1284486456	 0.3939716311	 0.232313
N	 3.1605022618	-2.4379201205	-0.3905386764	-0.303362
H	 0.1350805184	 1.6459028056	-0.8261555077	 0.118747
H	-1.327690417	 0.8689717212	-1.4477219536	 0.122808
H	-1.2580707773	 1.4028799727	 0.2418728265	 0.141385
H	-0.963441342	-1.1023357093	 0.0434106989	 0.126853
H	 0.4565176023	-0.844703199	-0.9721710546	 0.127606
H	 1.564909793	 0.3683008052	 0.928663768	 0.093241
H	 1.1702093401	-0.2967536707	 3.801531498	 0.134186
H	 1.3327388505	 1.3326836654	 3.0771467067	 0.110508
H	-0.1226701359	 0.9082437673	 4.0162001659	 0.138662
49.7046	88.0878	110.2013	135.3567	161.1731	187.5615	217.4846	270.2873	283.2831	312.2812	351.6373	482.0575	498.897	599.2547	694.8546	768.4695	861.4013	921.3399	967.1437	1043.5253	1054.8909	1103.754	1139.7853	1175.7012	1181.3188	1237.8125	1271.5025	1317.5074	1371.6077	1378.7524	1408.6882	1475.6212	1481.9056	1488.0922	1495.1999	1508.573	1509.7519	1803.5302	2333.3676	2928.1472	2995.9263	3041.7209	3044.8829	3073.034	3086.142	3111.0521	3131.6985	3134.7718
CCC(OC)C(=O)C#N	CC[C@@H](OC)C(=O)C#N	
InChI=1S/C6H9NO2/c1-3-6(9-2)5(8)4-7/h6H,3H2,1-2H3	InChI=1S/C6H9NO2/c1-3-6(9-2)5(8)4-7/h6H,3H2,1-2H3/t6-/m1/s1
