21
gdb 75545	2.38873	1.66758	1.10069	1.7272	85.44	-0.2336	0.0156	0.2492	1160.0385	0.183564	-387.099153	-387.090771	-387.089827	-387.131812	33.249	
C	-0.024770212	 1.5224169973	 0.0417608696	-0.503334
C	 0.0345607531	 0.0181405732	-0.00250182	 0.292744
C	-0.0001474409	-0.6589261161	-1.156831381	-0.156109
C	-0.0168385317	-2.1589067035	-1.2803706999	-0.253008
C	-0.423616646	-2.8330639351	 0.0351184553	-0.216906
C	 0.353664117	-2.2148581678	 1.2001574918	-0.281516
C	 0.0996886132	-0.7207898684	 1.2975463673	 0.346542
C	 0.4507384017	-0.0370925428	 2.5555873634	-0.243602
O	-0.912200611	-0.3325019383	 2.2660104021	-0.281336
H	 0.9198373678	 1.9601309058	 0.3875830421	 0.121111
H	-0.2401714962	 1.9335368899	-0.94740032	 0.118361
H	-0.8082735225	 1.8548400534	 0.7312571278	 0.142688
H	-0.0299511095	-0.0950507913	-2.0874241439	 0.079854
H	-0.6995642236	-2.4510177645	-2.087665827	 0.103726
H	 0.9763749219	-2.5157518619	-1.595068625	 0.106486
H	-1.497248921	-2.6855500166	 0.2029446659	 0.111722
H	-0.2502994802	-3.912836711	-0.014707571	 0.091685
H	 0.080419907	-2.676577625	 2.1536676695	 0.105335
H	 1.4293914103	-2.3811831188	 1.0500644522	 0.099346
H	 0.8977394651	-0.6227543898	 3.3597638968	 0.106662
H	 0.7113676575	 1.0192651212	 2.563180164	 0.109548
77.0185	192.7494	224.0901	260.1397	291.9647	313.7236	368.1829	386.8753	445.2994	497.3336	596.224	638.1433	652.9592	771.328	823.7896	855.2195	872.5981	911.0345	933.9973	966.1713	994.4022	1041.7905	1070.2855	1086.649	1097.7492	1133.8792	1143.4217	1163.5547	1177.077	1198.304	1279.0649	1285.2983	1338.5902	1367.6081	1374.8339	1388.0305	1407.5044	1418.0096	1468.558	1478.4262	1480.9705	1494.2809	1500.0383	1529.8876	1723.011	2988.0099	3015.2019	3024.2931	3032.3828	3046.935	3076.6361	3079.8414	3081.8212	3085.7172	3118.5907	3140.8725	3164.9857
CC1=CCCCC11CO1	CC1=CCCC[C@]21CO2	
InChI=1S/C8H12O/c1-7-4-2-3-5-8(7)6-9-8/h4H,2-3,5-6H2,1H3	InChI=1S/C8H12O/c1-7-4-2-3-5-8(7)6-9-8/h4H,2-3,5-6H2,1H3/t8-/m1/s1
