16
gdb 35702	2.55717	1.45014	1.0905	3.5899	68.31	-0.2686	-0.0127	0.2559	1097.7044	0.124099	-437.841777	-437.833691	-437.832747	-437.875529	28.672	
N	-0.150136876	-1.0977120649	-0.3500629814	-0.322073
C	-0.1119502446	 0.0283616135	-0.0927818877	 0.291526
C	-0.0283178065	 1.4607448235	 0.2079121845	-0.069389
O	-0.0100390855	 1.7350515702	 1.6177084992	-0.274673
C	 1.3066299341	 2.3330974998	 1.5354630574	-0.133382
C	 1.3659552922	 2.1197574844	 0.0149460263	 0.199302
C	 2.5389571332	 1.4438634662	-0.7125135852	-0.1381
O	 2.6599638743	 2.5463012471	-1.6348699812	-0.267517
C	 1.5869063291	 3.2587392026	-0.9944889194	-0.12797
H	-0.8518766809	 1.9795471208	-0.2994707505	 0.129422
H	 1.299861657	 3.376890962	 1.8697437546	 0.119032
H	 2.0456930606	 1.7682821674	 2.1159416462	 0.1238
H	 3.4418438338	 1.312760823	-0.1023939018	 0.111629
H	 2.3043465889	 0.4992208581	-1.2168502299	 0.134725
H	 0.7507015098	 3.4560016	-1.677912806	 0.112512
H	 1.9204523404	 4.2078907264	-0.554231195	 0.111154
59.8565	69.5992	134.637	203.328	267.2822	349.6654	365.0448	465.4897	538.3343	591.5369	826.4399	855.0614	883.9996	897.1238	958.6016	979.5639	996.2066	1022.2088	1045.1232	1047.0439	1139.1273	1148.6116	1158.8113	1174.6091	1218.3309	1237.9845	1261.6753	1311.6543	1348.696	1358.5361	1389.3098	1504.9842	1518.444	1531.1142	2354.9087	3002.0133	3017.9719	3022.0048	3029.2566	3048.0043	3067.1175	3073.7893
N#CC1OCC11COC1	N#C[C@H]1OCC21COC2	
InChI=1S/C6H7NO2/c7-1-5-6(4-9-5)2-8-3-6/h5H,2-4H2	InChI=1S/C6H7NO2/c7-1-5-6(4-9-5)2-8-3-6/h5H,2-4H2/t5-/m1/s1
