23
gdb 115507	4.52111	0.77925	0.71619	2.9577	81.92	-0.2442	0.0756	0.3198	1654.795	0.206252	-425.437661	-425.427837	-425.426893	-425.473202	36.284	
C	-0.2730770983	 1.4945728098	 0.0728047241	-0.386889
C	 0.0526906911	-0.0013861758	-0.0007464832	-0.194592
C	 0.7194666435	-0.5507204487	 1.2618557625	 0.033338
C	-0.1475300202	-0.523466379	 2.5273195607	-0.084622
O	 0.4534143998	-1.4507898029	 3.4232819782	-0.288438
C	 1.12704366	-2.4816320061	 2.6714031586	 0.111777
C	 0.4327200833	-3.8085740115	 2.9653117126	-0.060103
O	 0.3884783522	-4.0665732506	 4.3523708559	-0.424719
C	 1.085910634	-2.0464651224	 1.1968879701	-0.286719
H	 0.6292786243	 2.0865545279	 0.2621056442	 0.117164
H	-0.7122503715	 1.8488838607	-0.8646693703	 0.11591
H	-0.9864722351	 1.7136287972	 0.8742161224	 0.120714
H	-0.8665642383	-0.5706753517	-0.1953055596	 0.096046
H	 0.7111540391	-0.1866204258	-0.8585856765	 0.099553
H	 1.6315153279	 0.026164352	 1.4656426381	 0.078058
H	-0.1788855151	 0.4492812131	 3.0263570021	 0.109057
H	-1.1836490057	-0.8176305736	 2.2870447178	 0.085174
H	 2.1537348698	-2.5302432738	 3.0560453015	 0.082175
H	-0.5797962206	-3.786126875	 2.5255605882	 0.077096
H	 0.9796011168	-4.6349404452	 2.4966178157	 0.103333
H	 0.0659196023	-3.2492773462	 4.7525736166	 0.288508
H	 0.3032354086	-2.5969111193	 0.6587824516	 0.099498
H	 2.0314573624	-2.2302113731	 0.6815661386	 0.108682
35.1803	97.7564	119.2261	135.6574	207.3108	232.1754	264.3703	325.0966	411.6408	449.0926	484.0778	494.8564	570.9936	681.3068	778.4291	819.6251	872.4527	886.884	952.7171	966.4211	1008.4636	1014.0739	1031.518	1074.4873	1077.663	1096.8639	1126.2316	1156.2548	1165.0787	1206.4966	1231.0875	1252.5917	1271.12	1295.1892	1325.329	1341.057	1349.6555	1366.1182	1380.1206	1396.7322	1406.4126	1415.3171	1439.895	1485.2346	1493.6174	1499.4374	1501.8062	1506.6169	1524.1241	2950.7518	2958.1787	3011.0533	3016.8473	3024.1204	3031.6345	3033.1564	3049.9086	3063.7678	3082.1009	3099.5942	3103.2372	3105.7509	3780.0221
CCC1COC(CO)C1	CC[C@H]1CO[C@@H](CO)C1	
InChI=1S/C7H14O2/c1-2-6-3-7(4-8)9-5-6/h6-8H,2-5H2,1H3	InChI=1S/C7H14O2/c1-2-6-3-7(4-8)9-5-6/h6-8H,2-5H2,1H3/t6-,7-/m1/s1
