17
gdb 6408	5.09226	1.03877	0.90453	7.0042	61.31	-0.251	0.028	0.279	1236.1378	0.142414	-438.170241	-438.161641	-438.160696	-438.203795	31.187	
N	-0.0140800236	 0.8937863457	 0.0438978108	-0.528383
H	-0.2893157192	-0.0521105537	-0.1935190205	 0.245536
H	 0.9968380989	 0.8922739705	 0.1382598706	 0.240971
H	-0.8274258297	 2.7449756925	-0.5987204796	 0.295821
C	-0.6531643947	 1.3333975126	 1.292320352	-0.178709
C	-0.6442442216	 2.8651592799	 1.3110083258	 0.121028
O	-1.1924952831	 3.3349959478	 0.0816488535	-0.445277
C	-1.4656253715	 3.464351489	 2.4500210714	-0.337241
C	-1.4103210074	 4.9926624837	 2.5517658523	 0.401073
O	-1.4245665655	 5.6580740919	 1.3831663173	-0.372349
O	-1.3823489058	 5.5732330133	 3.6034794842	-0.326765
H	-1.6933445562	 0.9903018191	 1.2791385799	 0.118563
H	-0.1813169005	 0.9423845587	 2.2054132539	 0.102006
H	 0.4024727438	 3.2053165865	 1.4011563624	 0.079947
H	-1.4197427854	 5.021608949	 0.6415817014	 0.318212
H	-2.5155213817	 3.1768705514	 2.307720659	 0.13469
H	-1.1390126868	 3.0683295522	 3.4137396956	 0.130876
76.4068	82.3895	159.6543	169.1312	267.4824	309.9878	358.6006	385.4565	469.7888	530.2474	594.7794	622.8928	696.1988	769.1537	839.3296	875.9401	886.7781	942.6338	987.969	1034.9727	1075.5173	1109.2184	1172.7704	1218.0687	1277.6795	1295.3082	1318.1486	1328.8516	1384.91	1405.62	1438.1092	1448.6481	1456.2262	1493.0216	1657.6421	1863.7286	2949.1915	2999.5338	3038.3577	3077.1261	3119.8862	3509.3008	3554.9504	3592.5939	3668.2016
[NH3+]CC(O)CC([O-])=O	NC[C@@H](O)CC(=O)O	
InChI=1S/C4H9NO3/c5-2-3(6)1-4(7)8/h3,6H,1-2,5H2,(H,7,8)	InChI=1S/C4H9NO3/c5-2-3(6)1-4(7)8/h3,6H,1-2,5H2,(H,7,8)/t3-/m0/s1
