21
gdb 100326	2.55742	1.08387	0.93738	1.9887	79.57	-0.2586	0.0387	0.2973	1336.9296	0.179195	-424.185532	-424.174648	-424.173704	-424.221255	40.111	
C	-0.0178775464	 1.5869356969	 0.0309635741	-0.42731
C	 0.0075049662	 0.0520815326	 0.0157126305	 0.21154
C	 0.6638625068	-0.4361511086	 1.3243904172	-0.113001
O	 0.3839844187	-1.8019349987	 1.6319109708	-0.436115
C	-1.4355675898	-0.5035839722	-0.0715826251	-0.075535
O	-2.1615568947	-0.3544585264	 1.1333797994	-0.434904
C	 0.7778431592	-0.4801264795	-1.2254606478	-0.405271
C	 2.1514352058	-0.0058432472	-1.3399680539	 0.306786
C	 3.2864072115	 0.3842180872	-1.4163623529	-0.440578
H	 0.9760393651	 2.0031455883	 0.2206569045	 0.124092
H	-0.3659752949	 1.9830142049	-0.9291477064	 0.111557
H	-0.7008739894	 1.9365507502	 0.810350998	 0.132966
H	 1.744860732	-0.2482657579	 1.2935022271	 0.112465
H	 0.2510607907	 0.1342009982	 2.1603662351	 0.118412
H	 0.8970704606	-2.3627556272	 1.0426114681	 0.289944
H	-1.9896399078	 0.0462276701	-0.8412527277	 0.103932
H	-1.4061820062	-1.5586676376	-0.3788892799	 0.080859
H	-1.8152986225	-1.0236561814	 1.7354865713	 0.296035
H	 0.7773317515	-1.5794101164	-1.2083616001	 0.11386
H	 0.2225122131	-0.2026696264	-2.1314940492	 0.133334
H	 4.2875945405	 0.7288570012	-1.4968916329	 0.196932
59.8082	89.0416	126.9641	138.1226	209.0998	233.2649	284.5591	304.5085	312.4998	340.3191	349.5793	372.4276	419.7724	507.1518	534.9727	617.8258	623.1786	640.8998	776.0282	869.2128	884.0081	907.9754	961.5522	972.4685	1010.6474	1059.8517	1084.7211	1131.831	1148.0229	1206.1935	1224.8124	1253.2704	1307.7376	1340.4785	1382.2413	1397.073	1416.3376	1420.7399	1433.3192	1468.3604	1490.4449	1497.6452	1501.3475	1506.9278	2233.8483	2995.1446	3004.2986	3026.9542	3034.4642	3036.1028	3062.014	3099.4639	3102.8771	3118.6285	3504.2991	3794.1812	3827.9419
CC(CO)(CO)CC#C	CC(CO)(CO)CC#C	
InChI=1S/C7H12O2/c1-3-4-7(2,5-8)6-9/h1,8-9H,4-6H2,2H3	InChI=1S/C7H12O2/c1-3-4-7(2,5-8)6-9/h1,8-9H,4-6H2,2H3
