19
gdb 97455	2.89598	0.8788	0.7007	8.4809	79.06	-0.2244	0.0148	0.2392	1593.405	0.157962	-456.355752	-456.345836	-456.344892	-456.391546	34.734	
C	-0.6367312037	 0.8652293444	-0.6444088609	-0.31213
N	 0.4260614787	-0.0539971086	-0.2747916692	-0.249809
H	 0.9524136391	 0.1966237196	 0.5615985508	 0.214613
C	 0.7060807415	-1.1560735843	-0.9629678125	-0.004267
N	 1.6995385573	-1.9051194867	-0.4930146123	-0.246194
C	 2.1694986019	-3.1237761042	-1.1621864654	-0.160468
C	 1.0541260635	-3.9895073851	-1.7734125052	-0.317968
C	 0.5700194355	-3.6064049278	-3.1836307419	 0.384186
O	 0.1284122413	-2.3661264818	-3.3448101723	-0.380096
O	 0.5837388289	-4.414005057	-4.0820774582	-0.344857
H	-0.2409804315	 1.8667716403	-0.847164884	 0.130292
H	-1.1143402094	 0.48458139	-1.5474355101	 0.166851
H	-1.3879859486	 0.9426271267	 0.1498186895	 0.129029
H	 0.2037483825	-1.8381058795	-2.4719067739	 0.282085
H	 2.2462484317	-1.6249793694	 0.3201201258	 0.212866
H	 2.9142415821	-2.8711743276	-1.9283051491	 0.130945
H	 2.6875013878	-3.7144611223	-0.4002866046	 0.113363
H	 1.4200862844	-5.0143336214	-1.8595572593	 0.128471
H	 0.197723147	-3.9961177553	-1.0888264871	 0.123087
56.0406	89.702	110.5903	116.7908	173.7002	232.7889	240.8563	266.196	329.4748	450.0535	518.334	554.6789	597.9864	603.449	704.8484	726.5837	819.0957	917.6771	964.9516	1038.4738	1053.3948	1065.5079	1085.8563	1156.4072	1187.0217	1194.7574	1272.2108	1314.3522	1343.7929	1355.1841	1363.6248	1405.9698	1456.9725	1459.1249	1488.2727	1499.5279	1508.9903	1539.9674	1553.388	1617.2801	1836.0671	2675.9793	3021.6456	3027.6995	3047.6433	3075.7665	3080.9264	3120.2263	3155.5265	3427.0332	3434.7265
C[NH+]=CNCCC([O-])=O	CN[C]NCCC(=O)O	
InChI=1S/C5H10N2O2/c1-6-4-7-3-2-5(8)9/h4H,2-3H2,1H3,(H,6,7)(H,8,9)	InChI=1S/C5H10N2O2/c1-6-4-7-3-2-5(8)9/h6-7H,2-3H2,1H3,(H,8,9)
