15
gdb 132424	3.18705	1.36411	0.96086	2.2028	74.46	-0.2125	-0.041	0.1715	1141.6382	0.112173	-461.954502	-461.946775	-461.945831	-461.986797	29.254	
C	-0.0168227575	 1.5222236805	-0.0190065187	-0.470699
C	-0.0471243494	 0.0226985674	-0.0188095442	 0.197763
C	-1.178792404	-0.7143290254	-0.1249115361	-0.142182
C	-1.1591041613	-2.1514091271	-0.1202454604	-0.379109
C	 0.0451800232	-2.7289754054	-0.0049577391	 0.397841
F	 0.2534681362	-4.0263239612	 0.0172033652	-0.040547
O	 1.1943767465	-2.0698782009	 0.1026339275	-0.246934
C	 1.2357075897	-0.6563787229	 0.1047748747	 0.340947
N	 2.3532537174	-0.0678974875	 0.2107479054	-0.52802
H	 0.6018115392	 1.8988173673	-0.8403134497	 0.144995
H	-1.0250100891	 1.932809188	-0.1154427648	 0.113678
H	 0.4372798911	 1.9026546752	 0.9018646118	 0.14506
H	-2.1365208312	-0.2122205157	-0.2169336481	 0.114171
H	-2.0510716607	-2.7537383625	-0.2034128627	 0.125204
H	 3.1207467799	-0.7344162996	 0.2851512892	 0.227831
111.817	156.2026	176.0384	295.2957	333.431	347.8531	422.5472	460.2771	523.2182	571.2842	665.0988	743.5056	744.1145	757.2806	794.1224	838.8776	931.0793	968.9917	986.447	1041.941	1073.0075	1116.6806	1184.3009	1233.1571	1305.1796	1396.8526	1410.8046	1418.9725	1467.6484	1487.4243	1635.0025	1699.3779	1747.0667	3038.2305	3093.6614	3123.3126	3185.5	3247.6619	3504.8239
CC1=CC=C(F)OC1=N	CC1=C(OC(=CC1)F)[NH]	
InChI=1S/C6H6FNO/c1-4-2-3-5(7)9-6(4)8/h2-3,8H,1H3	InChI=1S/C6H7FNO/c1-4-2-3-5(7)9-6(4)8/h3,8H,2H2,1H3
