21
gdb 63927	3.05219	1.39777	1.20971	1.2871	83.2	-0.2349	0.0246	0.2595	1118.5188	0.182791	-387.09725	-387.088839	-387.087895	-387.129856	33.799	
C	-0.9547300498	 1.3806652649	 0.0248661068	-0.45662
C	-0.148669809	 0.0920302075	-0.0051797952	 0.411229
O	-0.9975265506	-1.0360615143	-0.1981189618	-0.482899
C	 1.1059669857	 0.0375513211	-0.9326521838	-0.287197
C	 1.9321762832	-0.6166731418	 0.2126474025	-0.002758
C	 3.1861869829	 0.1470545182	 0.6827180483	-0.277664
C	 2.6330749641	 1.1076267285	 1.7118043795	-0.066206
C	 1.3482526151	 0.8826483342	 1.9938167266	-0.089068
C	 0.7741018064	-0.2614806915	 1.2055349894	-0.077211
H	-0.3195190859	 2.2403608635	 0.2559528342	 0.11972
H	-1.4230195583	 1.564036027	-0.9509420101	 0.100957
H	-1.7494840594	 1.3188579607	 0.775310466	 0.120035
H	-1.455560455	-0.9175263809	-1.0377234921	 0.271607
H	 0.9725826126	-0.556610177	-1.84054285	 0.0895
H	 1.4803095656	 1.0280164197	-1.2091121282	 0.09361
H	 2.1050860487	-1.6818567589	 0.0598437086	 0.071651
H	 3.9395593521	-0.516195985	 1.1297110973	 0.102277
H	 3.6886569384	 0.6631359148	-0.1464834827	 0.10002
H	 3.2429425441	 1.8767197361	 2.1749244903	 0.089802
H	 0.7674170134	 1.4436161306	 2.7186832217	 0.092002
H	 0.3490747756	-1.0525130373	 1.8308114325	 0.077213
73.5909	181.181	231.9049	272.4804	303.5639	316.2935	359.9782	383.2802	432.2651	509.0031	587.1715	706.1198	738.3013	772.2222	796.7098	862.861	873.231	909.6049	914.0649	946.8791	950.4184	977.8411	1004.9545	1023.8805	1044.6126	1091.5003	1113.3331	1133.7316	1165.5492	1180.9862	1203.3895	1219.0586	1258.6388	1271.7666	1291.6536	1311.1894	1326.7554	1360.436	1381.953	1402.1551	1464.9671	1483.8595	1486.5873	1492.9984	1675.0177	3007.424	3019.8918	3033.2932	3048.3016	3061.0753	3086.492	3098.2178	3112.4718	3116.2118	3172.6963	3198.023	3794.1514
CC1(O)CC2CC=CC12	C[C@@]1(O)C[C@H]2CC=C[C@@H]12	
InChI=1S/C8H12O/c1-8(9)5-6-3-2-4-7(6)8/h2,4,6-7,9H,3,5H2,1H3	InChI=1S/C8H12O/c1-8(9)5-6-3-2-4-7(6)8/h2,4,6-7,9H,3,5H2,1H3/t6-,7-,8-/m1/s1
