21
gdb 65496	3.90763	0.98843	0.92005	2.7433	84.08	-0.2446	-0.0197	0.2248	1345.1427	0.18071	-387.081275	-387.072044	-387.0711	-387.115471	35.072	
C	-0.2200843116	 1.6503429045	-0.021365363	-0.454638
C	-0.0100245139	 0.1422827515	 0.00993998	 0.243171
C	 1.1781909235	-0.365315012	-0.8884324784	-0.356422
C	 2.0240270177	-0.5461298745	 0.37553613	 0.402485
C	 3.2041483812	-1.4437113258	 0.5853440014	-0.334587
C	 3.3752912336	 0.0590637513	 0.6231182057	-0.316064
C	 0.7881015572	-0.3749646277	 1.2637495136	-0.356433
C	-1.291839009	-0.6156024868	-0.2257782875	 0.119401
O	-2.3730258871	-0.1208956418	-0.4194715054	-0.258401
H	 0.7242501577	 2.1748829874	 0.1521184954	 0.114005
H	-0.6206865925	 1.9669006274	-0.9887564318	 0.127464
H	-0.9351742142	 1.9591189483	 0.7466452614	 0.127464
H	 0.9536644039	-1.3117185184	-1.3934667564	 0.102295
H	 1.5303139644	 0.3529493972	-1.6339691429	 0.109123
H	 3.2719771969	-1.9893414573	 1.521458703	 0.113342
H	 3.5969574104	-1.9812975773	-0.2721669227	 0.113343
H	 3.8825076436	 0.5367522171	-0.2094657487	 0.113598
H	 3.5573592351	 0.5286306396	 1.5848933379	 0.113597
H	 0.8550310696	 0.3362517358	 2.0916455169	 0.109124
H	 0.4021012316	-1.3253599227	 1.649629627	 0.102297
H	-1.1672134783	-1.7255902659	-0.2082234657	 0.065834
52.4567	78.4888	211.0878	225.6037	253.2189	275.986	303.0188	342.5477	392.9891	416.0251	418.5165	620.4674	751.2897	774.5622	820.8321	824.9185	871.9017	878.3068	913.6914	938.4631	952.3691	961.4215	1002.1029	1040.8492	1052.7271	1077.8611	1097.9752	1152.0062	1165.6281	1186.695	1188.4292	1244.5565	1262.2683	1268.1078	1326.2533	1383.4037	1408.3789	1431.6917	1462.9442	1470.7109	1488.8112	1489.3605	1493.1586	1504.1526	1824.596	2839.6185	3032.6054	3036.7476	3041.5175	3093.3212	3093.785	3114.4427	3115.3387	3119.9591	3123.9629	3197.81	3212.7923
CC1(CC2(CC2)C1)C=O	CC1(CC2(CC2)C1)C=O	
InChI=1S/C8H12O/c1-7(6-9)4-8(5-7)2-3-8/h6H,2-5H2,1H3	InChI=1S/C8H12O/c1-7(6-9)4-8(5-7)2-3-8/h6H,2-5H2,1H3
