18
gdb 25697	3.37591	0.96637	0.75837	1.7969	92.63	-0.1928	0.025	0.2177	1501.279	0.147338	-364.840993	-364.831342	-364.830398	-364.877635	34.055	
C	-0.0366588327	 1.4717506665	 0.0184876507	-0.507795
C	 0.0010642047	 0.0174380003	-0.0076358967	 0.162452
C	 0.0391846293	-1.1893503859	-0.0299054588	-0.089542
C	 0.0483243873	-2.604054116	-0.0532797137	 0.096978
C	 1.1611075916	-3.4221835162	-0.1525099393	-0.210378
N	 0.73191544	-4.7177178239	-0.1400683621	-0.243376
C	-0.639798426	-4.754425079	-0.0345047005	-0.155698
C	-1.1050504729	-3.4642410766	 0.0221866618	 0.156976
C	-2.5281980813	-3.0170525072	 0.1394956718	-0.515677
H	 0.534125192	 1.8751041199	 0.863324168	 0.143354
H	 0.383262312	 1.9029900885	-0.8980051185	 0.14333
H	-1.0648398479	 1.8393034975	 0.1123929778	 0.145014
H	 2.2060681131	-3.1707574205	-0.2293476316	 0.122024
H	 1.3291960085	-5.5229610116	-0.1991992957	 0.262883
H	-1.1712666419	-5.6924616053	-0.0084190419	 0.117468
H	-2.6879685135	-2.4181783054	 1.0433907318	 0.129235
H	-2.8235476578	-2.389870283	-0.7093921784	 0.129241
H	-3.2089481746	-3.872349722	 0.1783444052	 0.11351
11.2677	81.7842	90.4848	115.5371	243.2131	247.7306	285.4719	349.763	450.415	464.6538	489.2816	544.0218	632.183	666.3571	677.5513	726.1458	764.3347	904.3102	970.359	1004.3271	1051.7263	1052.9712	1066.7656	1087.143	1136.0722	1213.1593	1260.9495	1355.7276	1368.0548	1414.1274	1419.6253	1473.0218	1476.5942	1479.1417	1479.8268	1494.9761	1559.2104	1613.1414	2353.5444	3018.0605	3026.7897	3072.7593	3076.2836	3080.2339	3106.0747	3258.1383	3270.2916	3690.2423
CC#CC1=CNC=C1C	CC#Cc1c[nH]cc1C	
InChI=1S/C8H9N/c1-3-4-8-6-9-5-7(8)2/h5-6,9H,1-2H3	InChI=1S/C8H9N/c1-3-4-8-6-9-5-7(8)2/h5-6,9H,1-2H3
