15
gdb 12045	3.96673	1.73475	1.54345	2.2315	66.98	-0.2337	0.0299	0.2636	853.0498	0.117401	-362.568125	-362.560604	-362.55966	-362.599509	28.99	
O	-0.0926449357	 1.4306683386	-0.0497205615	-0.459349
C	-0.0246073018	 0.0260639414	 0.0214697307	 0.264585
C	 0.2452110792	-0.6432526235	 1.4435669346	-0.296931
C	-1.112395576	-1.3364878063	 1.3145244171	-0.024866
N	-2.1050353967	-0.2413165231	 1.2535366696	-0.331081
C	-1.4008419803	-0.6597476265	 0.0205281421	-0.086903
C	 0.8569524667	-0.5231588556	-1.0060408436	 0.278305
C	 1.6086745408	-0.9362610257	-1.8490693359	-0.482614
H	 0.795232499	 1.7623646985	-0.2209290666	 0.284092
H	 1.1080912361	-1.309594622	 1.4362682986	 0.114358
H	 0.3103247939	 0.0771031475	 2.2613223874	 0.115838
H	-1.3834361134	-2.331620499	 1.6414178328	 0.095001
H	-3.0310847632	-0.6667225823	 1.2083761975	 0.230398
H	-1.9421280872	-0.9945295022	-0.8552794743	 0.09904
H	 2.2648334386	-1.3066034998	-2.5979293185	 0.200126
125.9154	160.9582	207.1446	248.1852	331.3481	423.4666	468.3	528.0826	541.2453	624.9319	663.4708	668.6067	770.1079	817.2414	843.3643	891.1538	933.7832	964.48	975.2974	1023.9314	1070.0752	1094.5894	1135.2492	1144.1174	1199.0406	1230.6003	1284.8952	1307.6821	1362.2486	1393.403	1461.6022	2229.0074	3077.2574	3148.1521	3193.6342	3208.1871	3470.4297	3498.2134	3813.6395
OC1(CC2NC12)C#C	O[C@]1(C[C@H]2N[C@@H]12)C#C	
InChI=1S/C6H7NO/c1-2-6(8)3-4-5(6)7-4/h1,4-5,7-8H,3H2	InChI=1S/C6H7NO/c1-2-6(8)3-4-5(6)7-4/h1,4-5,7-8H,3H2/t4-,5-,6+/m1/s1
