13
gdb 131602	4.64642	1.09923	0.89385	2.3029	61.78	-0.2959	-0.0827	0.2132	1189.5631	0.088837	-486.046381	-486.038432	-486.037488	-486.079846	27.06	
O	 0.028116637	 1.3637344096	 0.0093922759	-0.394364
C	-0.0317662989	-0.0358047197	 0.0024805502	-0.191881
C	-1.4999017484	-0.4252912245	 0.0131098839	 0.457419
O	-2.4340562988	 0.3104984005	 0.0245504408	-0.237195
N	-1.7005772008	-1.8620835435	 0.0066394759	 0.026994
N	-2.9009798468	-2.445285519	 0.0132869743	-0.203801
C	-2.568527219	-3.7198182022	 0.0040093882	 0.09437
N	-1.2175024285	-3.9191713621	-0.0099004907	-0.199168
N	-0.6822135883	-2.738852678	-0.0073241459	-0.104193
H	 0.9551246732	 1.6192584035	-0.0003783827	 0.30175
H	 0.4341863128	-0.491018475	-0.8847588933	 0.143264
H	 0.4493591502	-0.5003097341	 0.8767377309	 0.143189
H	-3.2884735138	-4.5219502855	 0.0055959725	 0.163616
69.8568	93.4977	164.2573	175.4799	199.4897	301.2883	384.2145	494.1131	553.2919	698.2375	723.7945	759.6535	913.9826	967.6407	1019.4815	1023.0407	1049.605	1131.5494	1146.3186	1185.3215	1240.1753	1253.8062	1283.8348	1316.2108	1360.5216	1457.3651	1483.6701	1507.6016	1892.5304	2993.0093	3020.0271	3291.2233	3840.9331
OCC(=O)N1N=CN=N1	OCC(=O)n1ncnn1	
InChI=1S/C3H4N4O2/c8-1-3(9)7-5-2-4-6-7/h2,8H,1H2	InChI=1S/C3H4N4O2/c8-1-3(9)7-5-2-4-6-7/h2,8H,1H2
