17
gdb 50835	3.06203	0.98591	0.84295	3.0998	69.99	-0.2563	-0.0479	0.2083	1358.4147	0.133501	-458.957327	-458.948134	-458.94719	-458.993929	31.006	
O	 0.9052591574	-0.1623578409	-0.7565783956	-0.230019
C	 0.4492596498	 0.9327200456	-0.5656045633	 0.163436
C	 1.2413426435	 2.0862690431	 0.0383518966	-0.376361
C	 1.0633834907	 3.3532351996	-0.8019756538	 0.355952
O	-0.0418438389	 3.790566173	-1.0244883245	-0.302616
C	 2.3274034505	 3.9668787916	-1.3616982421	-0.157827
C	 2.9698974783	 3.1811788739	-2.5449629509	-0.080258
O	 2.7054083528	 4.2622513125	-3.4502620143	-0.264097
C	 2.1502911438	 5.0866848366	-2.4004622491	-0.086412
H	-0.5971685869	 1.1946408959	-0.8245094517	 0.112518
H	 0.8046562642	 2.2968980228	 1.0235275977	 0.159667
H	 2.2837172118	 1.7872150289	 0.1642721506	 0.129101
H	 3.0225427277	 4.173736046	-0.5434766532	 0.107383
H	 4.0421198124	 2.97884914	-2.4344761258	 0.112657
H	 2.4622205735	 2.2541617709	-2.8405623835	 0.119593
H	 1.1092482812	 5.3618346286	-2.5935415469	 0.132752
H	 2.7506386582	 5.986951732	-2.2270930205	 0.104532
22.8001	51.9614	74.1941	101.3627	194.4634	203.8901	302.3611	375.63	472.5745	585.7027	619.2563	763.7455	814.3657	853.9617	880.4113	942.2762	967.4003	1028.8866	1034.0278	1052.3269	1067.1847	1109.7179	1117.9864	1160.2779	1167.7788	1188.5252	1220.4486	1279.3947	1309.9141	1359.3546	1377.8006	1408.3509	1445.758	1511.23	1535.4461	1793.1069	1839.5179	2931.2756	3011.9051	3034.286	3037.5317	3054.1199	3076.8699	3096.0699	3124.708
O=CCC(=O)C1COC1	O=CCC(=O)C1COC1	
InChI=1S/C6H8O3/c7-2-1-6(8)5-3-9-4-5/h2,5H,1,3-4H2	InChI=1S/C6H8O3/c7-2-1-6(8)5-3-9-4-5/h2,5H,1,3-4H2
