17
gdb 53525	2.92605	0.79676	0.72402	5.6346	81.14	-0.242	-0.0192	0.2228	1620.1807	0.133506	-417.994268	-417.983874	-417.98293	-418.03233	34.209	
C	-0.0458361576	 1.4533322862	-0.1441117115	-0.49711
C	-0.0344893779	-0.0008141896	-0.0909004133	 0.050977
C	-0.0260509106	-1.2033266591	-0.0384842159	 0.108618
C	-0.0332646519	-2.6636221457	 0.0106762898	-0.375879
N	-1.3807400935	-3.2494769696	 0.0710843807	-0.046833
C	-2.1555727864	-3.1530332406	-1.0932287583	 0.097319
N	-3.3179188903	-3.6377067319	-1.2249680976	-0.415026
C	-1.812547132	-3.7884672253	 1.2823869879	 0.168015
O	-2.8842357245	-4.2747423707	 1.5148189001	-0.270411
H	 0.5580467563	 1.8835233665	 0.6619550453	 0.155606
H	 0.3544846655	 1.8205752596	-1.095080185	 0.15326
H	-1.0649548974	 1.8404670741	-0.0389245487	 0.159034
H	 0.493979863	-3.0738253813	-0.8590954242	 0.148836
H	 0.5158162622	-3.0153018082	 0.8900399516	 0.151335
H	-1.6110480097	-2.6005953953	-1.8680922487	 0.104069
H	-3.6624384406	-3.4351589624	-2.1628968419	 0.230228
H	-1.0066289144	-3.7130623966	 2.0411537097	 0.077962
28.8604	31.0649	60.9249	89.5905	180.0919	200.1493	233.9325	259.732	334.5203	375.6437	380.9715	469.9644	509.7324	730.4252	771.6606	824.7446	908.1831	966.8508	1018.0589	1051.4017	1053.9654	1066.1838	1148.778	1174.2879	1211.0404	1258.5742	1377.7536	1411.6293	1415.1125	1443.7815	1456.9699	1475.9248	1477.1019	1491.1022	1718.7144	1843.0933	2374.5527	2914.2453	3030.795	3032.1002	3046.0409	3073.9482	3095.0716	3096.0859	3489.0558
CC#CCN(C=N)C=O	CC#CCN(C=N)C=O	
InChI=1S/C6H8N2O/c1-2-3-4-8(5-7)6-9/h5-7H,4H2,1H3	InChI=1S/C6H8N2O/c1-2-3-4-8(5-7)6-9/h5-7H,4H2,1H3
