20
gdb 82399	2.53734	1.61562	1.19592	3.6856	77.77	-0.2284	0.0331	0.2616	1089.8836	0.173565	-403.181002	-403.172769	-403.171825	-403.213837	32.233	
C	-0.270611795	 1.5092500051	 0.1029144232	-0.4052
C	 0.0432505815	 0.0057594878	-0.0249949861	-0.106188
C	 0.8037871983	-0.4017590602	-1.2927433569	-0.033524
C	 1.6492057591	 0.5455451376	-2.1080916629	-0.303239
C	 2.3107553779	-0.4773833679	-1.222084391	-0.017153
C	 2.9145944367	-0.048100722	 0.1067239383	-0.197275
N	 2.099504568	-0.5264761002	 1.2176306893	-0.301736
C	 0.7357506731	-0.4605487866	 1.2636870575	 0.390154
O	 0.1054843076	-0.7352521008	 2.2697628099	-0.388372
H	 0.6362835466	 2.1173937291	 0.1866757437	 0.114979
H	-0.8300174162	 1.8600963603	-0.7689718695	 0.119603
H	-0.8704262929	 1.6822859787	 1.0000291891	 0.139059
H	-0.9140795253	-0.5215815603	-0.0187750031	 0.104513
H	 0.3212842538	-1.1937270027	-1.8559924362	 0.093808
H	 1.682674047	 0.3963730567	-3.1815898796	 0.114135
H	 1.7092525846	 1.5854956753	-1.8052460141	 0.113898
H	 2.7908999405	-1.3257975906	-1.697435128	 0.090969
H	 3.9189386356	-0.4645967681	 0.2227761375	 0.117272
H	 3.0248733534	 1.0457833833	 0.1424049304	 0.10976
H	 2.5405003257	-0.7315014246	 2.1017722585	 0.244537
58.1192	157.5521	225.583	246.3288	274.9738	339.2342	424.6564	448.6727	474.6211	546.6601	565.8563	712.3523	746.1869	757.8685	804.9424	841.941	869.7835	920.8781	964.1124	976.5162	1044.3558	1053.7778	1071.5029	1076.0039	1125.7194	1132.2469	1146.1392	1163.6418	1244.8544	1274.2117	1301.6576	1314.502	1343.0451	1376.1236	1382.3791	1399.8503	1412.6646	1474.7547	1487.3858	1495.7597	1506.0454	1519.6511	1784.7784	2989.1516	3038.2055	3073.2727	3079.2184	3107.093	3124.9987	3134.2224	3152.1398	3164.1288	3217.8804	3617.8884
CC1C2CC2CNC1=O	C[C@H]1[C@H]2C[C@H]2CNC1=O	
InChI=1S/C7H11NO/c1-4-6-2-5(6)3-8-7(4)9/h4-6H,2-3H2,1H3,(H,8,9)	InChI=1S/C7H11NO/c1-4-6-2-5(6)3-8-7(4)9/h4-6H,2-3H2,1H3,(H,8,9)/t4-,5-,6+/m0/s1
