19
gdb 41543	4.10608	1.56009	1.46964	1.7577	77.8	-0.2419	0.0822	0.3241	947.0005	0.163014	-385.829789	-385.823662	-385.822718	-385.860083	26.196	
C	 0.0016292565	 1.4926431272	 0.3310936226	-0.092688
O	 1.3375277987	 1.6494174187	-0.199173887	-0.304846
C	 1.4332121289	 0.2309918989	-0.4952138208	 0.104685
C	-0.0278887063	-0.004532891	-0.0440825295	-0.098993
C	-0.6423137434	-0.3952284228	-1.3823467726	-0.019439
C	 0.0011212141	 0.4556607133	-2.5288328767	-0.049063
C	-0.1122136742	-0.7636777292	-3.4746840149	-0.246504
C	 0.367220349	-1.3426801305	-2.1241724037	-0.067812
C	 1.3425422831	-0.1188812518	-1.971663027	-0.022637
H	-0.0263247301	 1.6951245851	 1.4091321194	 0.097392
H	-0.7250793069	 2.141134265	-0.1739658995	 0.097872
H	 2.260944105	-0.2403665879	 0.0447686117	 0.070939
H	-0.229669464	-0.7083178338	 0.7647938043	 0.074351
H	-1.7094441495	-0.6197420492	-1.4351092811	 0.063742
H	-0.2018798363	 1.5022270596	-2.7575780126	 0.077999
H	-1.1183191053	-1.0440113685	-3.8000748907	 0.089239
H	 0.594838596	-0.8066710859	-4.3078046911	 0.091268
H	 0.5830218223	-2.3847186294	-1.8786829892	 0.068415
H	 2.2383528824	-0.070139458	-2.5927022717	 0.066081
171.5333	221.0605	345.6727	443.4033	488.1095	654.5292	705.1347	764.9523	810.9266	827.3138	878.9966	882.6073	891.9966	915.2393	921.7206	941.9333	978.0097	1004.0588	1005.6947	1017.2249	1046.7906	1060.8723	1071.6916	1090.9232	1104.3542	1133.3551	1158.9054	1169.8993	1191.3669	1198.5992	1228.8586	1237.1283	1250.1433	1266.9988	1282.7675	1318.761	1334.1407	1349.5989	1373.6086	1520.1423	1522.7555	3010.5054	3046.4185	3052.7777	3053.4208	3085.9306	3093.8023	3102.9768	3104.5727	3106.7056	3115.7963
C1OC2C1C1C3CC1C23	C1O[C@H]2[C@@H]1[C@H]1[C@@H]3C[C@H]1[C@H]23	
InChI=1S/C8H10O/c1-3-6-4(1)7(3)8-5(6)2-9-8/h3-8H,1-2H2	InChI=1S/C8H10O/c1-3-6-4(1)7(3)8-5(6)2-9-8/h3-8H,1-2H2/t3-,4+,5-,6-,7+,8-/m0/s1
