14
gdb 65845	2.79331	1.32533	1.22928	5.2252	62.13	-0.3124	-0.0131	0.2993	1050.4398	0.100464	-473.88259	-473.874592	-473.873648	-473.91562	28.608	
C	-0.0845655824	 1.5802509338	-0.0127450558	-0.435666
C	 0.0598112526	 0.0614208118	-0.0122431491	 0.189388
C	 0.8743526339	-0.5016733855	-1.2077731899	-0.132633
O	 1.7128354283	-1.4838791134	-0.6111583524	-0.237124
C	 1.7497480568	-1.3125177584	 0.734508019	 0.507389
O	 2.4571243259	-1.8982162657	 1.4823142612	-0.350083
O	 0.8507990701	-0.3511583211	 1.1105914043	-0.258717
C	-1.2654975308	-0.5864241504	 0.0794500988	 0.273432
N	-2.3106404312	-1.0758468772	 0.1211020224	-0.314511
H	 0.9080390237	 2.0364305351	-0.0315660966	 0.146275
H	-0.6480853123	 1.9045359544	-0.8920277445	 0.150661
H	-0.6135466582	 1.9123181128	 0.8824544143	 0.165184
H	 0.2528049651	-0.9727192357	-1.9693841426	 0.160834
H	 1.4906064285	 0.2817320495	-1.6608008793	 0.135571
67.2981	137.3329	187.0327	209.1987	235.198	307.7379	398.3576	495.1823	501.4289	606.6075	626.4846	728.273	768.6686	801.7158	885.3902	940.3242	966.7531	1019.5493	1104.95	1112.7191	1155.6352	1197.0198	1230.8387	1273.6264	1397.3711	1413.4566	1479.2674	1491.736	1519.297	1945.6649	2362.6866	3053.5424	3057.0228	3134.813	3138.4634	3148.1714
CC1(COC(=O)O1)C#N	C[C@]1(COC(=O)O1)C#N	
InChI=1S/C5H5NO3/c1-5(2-6)3-8-4(7)9-5/h3H2,1H3	InChI=1S/C5H5NO3/c1-5(2-6)3-8-4(7)9-5/h3H2,1H3/t5-/m1/s1
