18
gdb 85385	1.91757	1.67787	0.92753	3.2152	73.81	-0.2579	-0.024	0.234	1231.8504	0.14896	-439.182465	-439.174142	-439.173198	-439.215577	31.41	
C	-0.0304355529	 1.5661850934	 0.010835942	-0.401795
C	 0.0154550621	 0.036381233	 0.0024480798	-0.013672
C	 0.7149422462	-0.5051193258	-1.2516649262	-0.311628
C	 0.8474205391	-2.0170557751	-1.2674606512	 0.39942
O	 0.906748993	-2.6817307961	-2.2755896692	-0.336528
N	 0.9165644239	-2.6216585491	-0.0137059026	-0.350235
C	 0.8522399374	-2.0306976932	 1.2467927012	 0.399419
O	 0.9153740517	-2.7062775757	 2.2474136332	-0.336527
C	 0.7197575522	-0.51868013	 1.2479091593	-0.311628
H	 0.9809611417	 1.9888419773	 0.0111999164	 0.119242
H	-0.553073301	 1.9498126439	-0.8710251695	 0.122996
H	-0.5496978153	 1.9402103763	 0.8987946573	 0.122996
H	-1.0170820964	-0.3391109779	 0.0024007486	 0.094445
H	 0.1994788537	-0.2188513153	-2.1713559306	 0.137537
H	 1.7307592566	-0.0890363544	-1.3170379701	 0.132268
H	 1.0139915489	-3.6305104437	-0.0193667181	 0.263886
H	 1.7358349224	-0.1033252034	 1.3138621849	 0.132266
H	 0.2078595665	-0.2424030141	 2.1726330149	 0.137537
100.6239	124.2466	149.5782	234.7519	272.2318	352.8203	415.9097	432.7674	439.5372	560.0856	571.2813	625.0284	626.5044	762.607	852.7043	879.2771	887.4037	918.7076	960.6623	978.6162	1080.6942	1108.3072	1155.6071	1167.5624	1270.6796	1271.137	1296.4917	1306.6856	1356.2876	1371.4936	1389.88	1411.0951	1414.6714	1456.3047	1470.0876	1497.5558	1497.938	1810.4801	1823.1631	3006.7201	3018.4558	3026.5394	3032.1476	3097.9068	3106.7308	3109.0704	3110.417	3576.5297
CC1CC(=O)NC(=O)C1	CC1CC(=O)NC(=O)C1	
InChI=1S/C6H9NO2/c1-4-2-5(8)7-6(9)3-4/h4H,2-3H2,1H3,(H,7,8,9)	InChI=1S/C6H9NO2/c1-4-2-5(8)7-6(9)3-4/h4H,2-3H2,1H3,(H,7,8,9)
