17
gdb 39775	3.02569	1.89387	1.53017	2.2132	70.82	-0.2361	0.0612	0.2973	893.1932	0.138272	-417.896465	-417.890014	-417.88907	-417.926962	27.103	
C	-0.0073092014	 1.4867007046	-0.0286287061	-0.344168
N	 1.2829371986	 0.7627020791	 0.0731118076	-0.379205
C	 0.0606629627	 0.0183038128	 0.0153364814	 0.505245
C	-0.5278066845	-0.9786838607	 1.0196197329	-0.162482
N	-1.6746244163	-1.0749375283	 0.0303093992	-0.311118
C	-0.563014252	-0.9637678608	-0.9948096918	-0.176831
C	 0.2537059687	-2.2617683256	-0.7485527715	 0.025236
O	 1.4925936525	-2.0782447405	-0.0485539059	-0.241686
C	 0.2897996782	-2.2665698804	 0.7160235037	 0.041241
H	-0.2788241201	 2.0582163705	 0.8544789298	 0.122067
H	-0.282645335	 1.9519511906	-0.9723557159	 0.112921
H	 1.7850909632	 0.735623496	-0.8097237062	 0.235926
H	-0.7655976548	-0.7334695302	 2.0535408145	 0.07881
H	-2.0861686384	-2.0114864152	 0.0288411124	 0.207259
H	-0.8379851596	-0.694299035	-2.0148424388	 0.073514
H	 0.1779283245	-3.1354369123	-1.3880099414	 0.105909
H	 0.2548629736	-3.1476835646	 1.3483845259	 0.107363
185.665	245.7416	286.6707	379.5526	449.1791	514.2786	572.9922	684.3306	728.2572	788.2309	825.9996	840.5438	850.526	876.5134	892.6097	921.6973	929.8595	956.2416	979.1405	992.0466	1054.5618	1057.395	1080.9898	1091.5408	1132.1592	1141.5159	1210.1013	1213.7404	1229.1377	1240.9107	1257.8181	1276.0351	1279.1282	1333.9882	1390.2128	1458.4436	1533.75	3103.8943	3116.5287	3134.2044	3163.2182	3176.0685	3188.5056	3414.0755	3516.4223
C1NC11C2NC1C1OC21	C1N[C@]21[C@H]1N[C@@H]2[C@H]2O[C@@H]12	
InChI=1S/C6H8N2O/c1-6(7-1)4-2-3(9-2)5(6)8-4/h2-5,7-8H,1H2	InChI=1S/C6H8N2O/c1-6(7-1)4-2-3(9-2)5(6)8-4/h2-5,7-8H,1H2/t2-,3+,4+,5-,6-
