17
gdb 24578	3.64465	1.60333	1.12886	4.0289	79.01	-0.2105	0.0117	0.2222	1035.003	0.140359	-380.924529	-380.917657	-380.916712	-380.956164	26.792	
C	 0.0074902002	 1.4390910063	-0.1272544202	-0.205737
C	 1.3593283292	 2.0470597616	 0.1041670554	-0.06709
C	 2.4593690764	 1.3483708533	 0.3683543769	-0.050219
C	 2.5002049519	-0.1510020999	 0.4719851742	-0.382468
C	 1.1626055139	-0.7770930422	 0.237358622	 0.28274
C	 0.7132809441	-2.0744988482	 0.2217269079	-0.185251
N	-0.6334780723	-2.1259069834	-0.0486073275	-0.277323
C	-0.9993832184	-0.873329535	-0.1960270577	-0.005115
N	 0.0461089581	-0.009987195	-0.0340046046	-0.061321
H	-0.7112454391	 1.8334550407	 0.6049985338	 0.132983
H	-0.3708920892	 1.7312452458	-1.1169936898	 0.132941
H	 1.3941635719	 3.1305990082	 0.0428947202	 0.100056
H	 3.4002300905	 1.8687386005	 0.523804039	 0.098502
H	 3.2376059603	-0.5437205738	-0.2430048565	 0.13233
H	 2.8881019302	-0.4346771613	 1.4611847806	 0.132377
H	 1.288412319	-2.9728942597	 0.3907126056	 0.102223
H	-1.9970471167	-0.5236354378	-0.4191174092	 0.120371
66.347	167.6172	257.6709	385.0346	387.0086	485.1274	595.7673	636.9441	675.536	683.1406	719.5591	793.6932	831.0566	900.8396	930.6611	942.4804	970.441	992.4792	1005.7315	1024.6598	1145.1057	1185.3803	1205.0628	1211.6396	1245.7615	1250.9086	1282.232	1316.8911	1358.1098	1399.514	1423.6254	1436.2714	1474.4044	1496.1113	1527.8747	1595.6192	1741.236	3000.118	3001.0718	3012.9286	3020.3782	3161.7891	3184.0493	3239.5737	3243.0733
C1C=CCC2=CN=CN12	C1C=CCc2cncn12	
InChI=1S/C7H8N2/c1-2-4-9-6-8-5-7(9)3-1/h1-2,5-6H,3-4H2	InChI=1S/C7H8N2/c1-2-4-9-6-8-5-7(9)3-1/h1-2,5-6H,3-4H2
