16
gdb 37386	3.05576	2.11627	1.9026	2.1453	65.21	-0.2295	0.0685	0.2979	790.2116	0.128167	-437.835351	-437.829746	-437.828802	-437.864998	24.425	
N	-0.02421203	 1.5009382255	 0.0553221447	-0.332371
C	 1.2749146913	 0.7925203236	-0.026287043	-0.043731
C	 0.0021009156	 0.0320006322	-0.0197464899	-0.05816
C	-0.263990984	-0.5942114801	-1.3899479251	 0.156451
O	-0.2657564862	 0.38880733	-2.3992628523	-0.236027
C	 1.100679799	 0.6652912388	-2.6069427985	 0.039527
C	 1.8419892421	-0.5469713331	-2.1424233138	 0.039633
O	 0.8598644341	-1.4414869427	-1.6676262114	-0.264958
C	 1.963483512	 0.7664495353	-1.3562989024	-0.13197
H	-0.1894328686	 1.776605638	 1.0205277591	 0.232983
H	 1.9093173164	 0.7771535626	 0.8556552814	 0.089118
H	-0.281050603	-0.5622560312	 0.8436891934	 0.091803
H	-1.178400952	-1.1856553245	-1.4548629054	 0.097078
H	 1.2879921457	 1.2393595547	-3.5037342163	 0.1149
H	 2.6700931884	-1.0384842756	-2.6337912399	 0.112839
H	 2.8967339992	 1.3091655465	-1.4661397907	 0.092884
290.1041	300.1728	426.8755	518.7234	571.3851	634.685	707.5232	739.8784	756.1324	776.9075	810.622	856.1844	883.7409	898.6648	913.1885	952.0982	973.416	1009.6039	1028.8011	1056.1126	1063.4464	1076.4388	1109.5571	1120.4564	1145.1732	1168.2111	1194.5005	1241.3982	1263.6049	1308.4266	1347.5385	1371.0082	1390.9413	1400.5426	1452.9338	3110.1295	3138.8347	3157.5085	3163.5006	3209.9037	3219.001	3501.0688
N1C2C1C1OC3C(O1)C23	N1[C@H]2[C@@H]1[C@H]1O[C@@H]3[C@H](O1)[C@H]23	
InChI=1S/C6H7NO2/c7-2-1-4-5(1)9-6(8-4)3(2)7/h1-7H	InChI=1S/C6H7NO2/c7-2-1-4-5(1)9-6(8-4)3(2)7/h1-7H/t1-,2-,3-,4+,5-,6+/m1/s1
