14
gdb 27858	2.09917	1.99472	1.02296	5.6678	70.98	-0.2172	-0.01	0.2073	1077.8975	0.102216	-466.256617	-466.248062	-466.247118	-466.290298	30.844	
N	 0.0417356268	 1.3001962359	-0.061308224	-0.563477
C	-0.0409219887	-0.0441915441	-0.0295636501	 0.514752
N	-1.1923964485	-0.6466848876	-0.0217456417	-0.41595
C	-1.0917515445	-2.0188600385	-0.020019826	 0.438277
N	-2.2777748935	-2.6611988622	-0.0306305725	-0.551584
N	 0.0042918394	-2.738414094	-0.0150721234	-0.349953
C	 1.1934535264	-2.1012438044	-0.0185403645	 0.419122
N	 2.338375395	-2.6343228556	-0.0138768438	-0.542331
O	 1.1489024029	-0.6369463507	-0.0269409248	-0.264129
H	 0.9328902245	 1.7440449993	 0.0736162788	 0.277179
H	-0.8061332602	 1.8277822434	 0.0514044138	 0.279108
H	-3.1269745384	-2.1305196321	 0.0335207067	 0.268134
H	-2.2878612607	-3.6638123072	 0.0298414856	 0.273085
H	 3.0661747595	-1.9232866222	-0.018516134	 0.217767
57.3206	110.1627	168.8287	187.8451	201.411	322.6571	360.9699	524.7415	538.0307	545.2915	568.1249	583.0544	662.4764	719.8579	738.	790.187	805.107	810.9794	957.1984	999.3895	1042.7856	1161.1378	1188.0681	1270.7834	1444.3921	1475.04	1562.6081	1606.706	1663.2696	1685.2706	1797.0929	3526.9503	3625.1342	3632.1811	3760.7604	3773.9646
NC1=NC(N)=NC(=N)O1	NC1=N[C@@H](N)N=C([NH])O1	
InChI=1S/C3H5N5O/c4-1-7-2(5)9-3(6)8-1/h(H5,4,5,6,7,8)	InChI=1S/C3H6N5O/c4-1-7-2(5)9-3(6)8-1/h1,5H,4H2,(H2,6,8)/t1-/m0/s1
