14
gdb 42673	2.70859	1.68405	1.20052	2.331	73.03	-0.2364	-0.0075	0.2289	992.8503	0.100291	-399.428437	-399.421376	-399.420432	-399.46	27.689	
O	 0.0106848677	-0.0821504627	 0.0454202777	-0.320086
C	-0.0153018335	 1.1091725753	 0.0213795849	 0.463574
C	-1.0260060781	 2.2503879443	 0.0226715425	-0.275877
C	-0.0366247639	 3.1136562694	 0.8967824214	-0.044526
N	 0.0128589111	 4.2943491294	-0.0189599453	-0.376643
C	-0.0583383704	 3.093455186	-0.9245592961	 0.318235
C	-0.0867811142	 3.1534132796	-2.3518278024	 0.099647
C	-0.1256540168	 3.2074398839	-3.5522251892	-0.360022
C	 0.9497162168	 2.288406384	-0.0039242074	-0.250517
H	-2.113613164	 2.282078874	 0.0233017237	 0.105103
H	-0.0137871429	 3.1850265252	 1.9819944336	 0.110829
H	-0.8884366301	 4.780395426	-0.0210161084	 0.218597
H	-0.1527690294	 3.2540981846	-4.6132074171	 0.192765
H	 2.0324677177	 2.371328191	-0.0294072581	 0.118922
98.9122	171.0605	206.1634	372.9329	472.9152	476.3384	543.4348	576.3484	629.1838	647.6646	673.0095	682.3257	790.0697	791.0302	823.2155	859.5041	946.9795	969.6149	986.0051	1058.0322	1085.0774	1097.296	1120.2967	1124.8647	1184.7097	1226.1535	1269.0962	1293.3391	1315.1135	1925.0462	2238.3552	3143.1055	3152.9221	3174.4986	3399.5083	3498.3994
O=C1C2C3NC2(C#C)C13	O=C1[C@H]2[C@@H]3N[C@@]2(C#C)[C@H]13	
InChI=1S/C7H5NO/c1-2-7-3-5(8-7)4(7)6(3)9/h1,3-5,8H	InChI=1S/C7H5NO/c1-2-7-3-5(8-7)4(7)6(3)9/h1,3-5,8H/t3-,4+,5+,7-
