21
gdb 113799	3.24919	1.08068	0.98558	2.3535	80.22	-0.2321	0.0746	0.3067	1315.9741	0.18103	-424.182383	-424.173045	-424.1721	-424.216464	35.786	
C	 0.3176935278	 1.1957538478	 0.3140883459	-0.237581
O	-0.3708731207	 0.1470959111	-0.3459033769	-0.250007
C	 0.4235348291	-0.5168878714	-1.2911479382	 0.104992
C	 1.3772415281	-1.5982701094	-0.8429422682	-0.340031
C	 0.1018217813	-1.9532330133	-1.5835838482	-0.121918
C	-1.0181692285	-2.6590172012	-0.8660658542	 0.435423
O	-1.1057403687	-2.4020386526	 0.5070779044	-0.477952
C	-2.3082434574	-2.9179415114	-1.6121167527	-0.321247
C	-1.3757760565	-4.0610268182	-1.2546407795	-0.306937
H	 1.1900788279	 0.8207695626	 0.8659361629	 0.118929
H	 0.6572228498	 1.957128077	-0.4026144885	 0.113718
H	-0.3854367766	 1.6539760872	 1.0129818626	 0.130766
H	 0.7272445895	 0.1239484637	-2.1198630397	 0.089402
H	 2.3348323571	-1.6998444125	-1.3414444814	 0.109504
H	 1.3726399039	-1.8330866645	 0.2157077073	 0.133079
H	 0.2000750675	-2.2450018823	-2.6253383357	 0.087239
H	-1.1817110532	-1.4405758938	 0.5909439075	 0.284488
H	-3.2242920972	-2.8269557763	-1.0399220121	 0.114762
H	-2.3849350269	-2.6154730911	-2.651433264	 0.104524
H	-0.8132276825	-4.5428474482	-2.0470857373	 0.107446
H	-1.6791601838	-4.7173890829	-0.4471690041	 0.121402
66.3988	108.231	165.7908	189.504	220.1779	277.545	314.8388	341.8391	414.8029	446.5699	519.2379	562.1207	618.8635	717.9453	770.558	788.7723	833.2644	888.357	905.4099	936.9634	987.8364	995.5034	1006.2018	1047.6348	1058.318	1067.6043	1075.6101	1097.9834	1131.3216	1165.6523	1183.4525	1189.0661	1215.8992	1243.8705	1255.6368	1317.9108	1373.8314	1387.6179	1439.2893	1453.1553	1469.6478	1484.9494	1487.2406	1506.1495	1517.5409	2994.9613	3051.3899	3091.0415	3124.2501	3130.0301	3135.3247	3135.9658	3148.7972	3216.3247	3229.949	3230.7498	3728.1575
COC1CC1C1(O)CC1	CO[C@H]1C[C@H]1C1(O)CC1	
InChI=1S/C7H12O2/c1-9-6-4-5(6)7(8)2-3-7/h5-6,8H,2-4H2,1H3	InChI=1S/C7H12O2/c1-9-6-4-5(6)7(8)2-3-7/h5-6,8H,2-4H2,1H3/t5-,6+/m1/s1
