21
gdb 73635	2.27724	1.59251	1.41057	2.7399	81.62	-0.2318	-0.0174	0.2145	1073.6369	0.1831	-387.126417	-387.11795	-387.117006	-387.159355	33.155	
C	-0.158620014	 1.5091366434	 0.0425560337	-0.473925
C	-0.000087207	-0.006447593	 0.0119265101	 0.2153
C	-1.3291527966	-0.7865871856	-0.1037458926	-0.25135
C	-1.047426997	-2.1608120022	 0.5315813409	-0.223954
C	-0.0873330642	-1.8410582946	 1.6955021692	-0.214391
C	 0.8209076495	-0.7252304399	 1.1578676217	-0.055968
C	 1.9039406508	-1.1700206397	 0.1251878623	-0.367407
C	 1.0727748911	-0.5043544198	-0.9798731915	 0.381328
O	 1.1984910908	-0.3945017453	-2.1665024611	-0.312537
H	 0.8044990728	 2.0147892703	 0.1691037309	 0.116085
H	-0.5999788021	 1.8682868662	-0.8928177963	 0.133966
H	-0.8115564528	 1.8146084675	 0.8676008756	 0.115545
H	-2.0999829393	-0.2569163477	 0.4703802817	 0.097045
H	-1.6784056736	-0.849983078	-1.1385972567	 0.113573
H	-1.9569259631	-2.6715006972	 0.8590998904	 0.09959
H	-0.5580039714	-2.819427714	-0.1961926757	 0.108093
H	-0.6606958389	-1.4649846166	 2.5514251986	 0.09835
H	 0.472898118	-2.7153090963	 2.042544893	 0.097483
H	 1.2089499163	-0.0733068931	 1.9422414054	 0.068476
H	 2.8884683992	-0.7095559053	 0.2551034865	 0.129243
H	 2.0491665215	-2.2485048491	 0.0009213942	 0.125456
65.3463	169.2158	197.9075	216.1342	268.5562	280.0112	356.8427	476.3094	504.3608	548.475	569.7222	653.7248	711.7511	780.2318	821.4442	868.0902	884.8421	905.5812	940.4787	956.8031	993.0315	1011.7123	1043.6728	1071.5067	1087.8671	1118.1391	1150.5402	1169.248	1206.5421	1222.4308	1231.4506	1257.4053	1278.613	1315.7784	1332.2183	1347.3769	1357.0669	1407.5889	1433.3946	1482.0721	1488.3459	1491.7526	1495.6521	1505.0444	1880.2259	3024.4689	3027.7683	3030.9726	3036.5286	3046.81	3078.7485	3087.1794	3089.5656	3093.7694	3096.4614	3101.4508	3103.3377
CC12CCCC1CC2=O	C[C@]12CCC[C@H]1CC2=O	
InChI=1S/C8H12O/c1-8-4-2-3-6(8)5-7(8)9/h6H,2-5H2,1H3	InChI=1S/C8H12O/c1-8-4-2-3-6(8)5-7(8)9/h6H,2-5H2,1H3/t6-,8-/m0/s1
