19
gdb 85835	2.05528	1.50655	1.33129	0.6335	77.12	-0.2576	0.0197	0.2773	1114.9585	0.155716	-422.981129	-422.971315	-422.970371	-423.015308	36.795	
C	-0.4998182813	 1.340956614	-0.0722495444	-0.402307
C	-0.0243246415	-0.096814477	 0.0129581799	 0.104732
O	 1.1481903452	-0.356361497	-0.8076390973	-0.32507
C	 2.0042692082	-0.578653543	 0.3437172307	 0.170132
C	 2.7439194818	-1.9068459651	 0.2511635196	-0.447471
C	 2.9161731049	 0.5436582916	 0.5645668379	 0.320236
C	 3.6270811211	 1.4861483465	 0.8006460922	-0.464494
C	 0.7523571105	-0.5152606477	 1.2917707301	 0.034891
O	 0.7756126913	 0.3212477007	 2.4050347996	-0.425682
H	 0.2982577085	 2.0423139155	 0.1860340623	 0.117646
H	-0.8302177635	 1.5644941042	-1.0908925644	 0.126667
H	-1.3402625914	 1.5031377273	 0.6100019973	 0.12524
H	-0.834008625	-0.7830198727	-0.2640971524	 0.078763
H	 3.4361476397	-1.8985158706	-0.5952338727	 0.137508
H	 3.315224981	-2.0910434847	 1.1659422774	 0.132615
H	 2.0253043812	-2.7179974236	 0.1068347427	 0.123465
H	 4.2781359863	 2.3072498799	 0.9774756909	 0.207085
H	 0.4715299223	-1.5096163854	 1.6473552943	 0.099744
H	 1.3363182707	 1.080890267	 2.1990522862	 0.286299
66.6625	137.5251	178.777	199.4902	214.8623	240.656	260.6263	303.5885	359.9425	390.021	445.0166	517.6504	560.3606	604.4661	645.2992	661.2591	665.7738	794.6847	811.8423	878.245	928.7945	945.0499	1023.9629	1065.6244	1127.5296	1133.3571	1162.7836	1173.6094	1207.8632	1272.2736	1302.0212	1330.0961	1383.3882	1402.17	1408.8847	1446.529	1478.3599	1483.1907	1490.3233	1498.3029	2217.3803	3025.9895	3042.5369	3043.1943	3085.2382	3116.0721	3121.7477	3122.3429	3125.7945	3495.3378	3754.8112
CC1OC(C)(C#C)C1O	C[C@H]1O[C@@](C)(C#C)[C@H]1O	
InChI=1S/C7H10O2/c1-4-7(3)6(8)5(2)9-7/h1,5-6,8H,2-3H3	InChI=1S/C7H10O2/c1-4-7(3)6(8)5(2)9-7/h1,5-6,8H,2-3H3/t5-,6+,7+/m1/s1
