19
gdb 106589	3.21994	1.53126	1.35526	1.5204	78.04	-0.2168	-0.0162	0.2006	1029.8775	0.159447	-385.867456	-385.859793	-385.858849	-385.899292	31.245	
C	-0.1622808561	 1.5451876873	 0.0636771905	-0.383502
C	 0.0495088742	 0.0292126867	 0.0088922909	-0.298587
C	 0.8122643646	-0.5161204244	 1.1986694261	 0.327956
O	 0.1690086069	-0.2083243282	 2.4550320853	-0.26301
C	 1.1383520823	-0.8710626401	 3.2774842141	-0.056317
C	 1.1139350938	-2.2846234769	 2.6378179864	-0.088756
C	 0.9185365114	-2.0625356501	 1.3435256345	-0.119971
C	 2.4333808173	-0.1690147532	 2.793091646	-0.087563
C	 2.2328085375	 0.0478110446	 1.498344876	-0.110521
H	 0.7919659272	 2.0818954108	 0.0668448868	 0.115286
H	-0.7394549913	 1.8889840479	-0.799633326	 0.108257
H	-0.7005022391	 1.8229697552	 0.9732363826	 0.139882
H	-0.919093694	-0.4814088722	-0.0413393201	 0.109839
H	 0.5958679145	-0.2484852373	-0.901577092	 0.097331
H	 0.8887659193	-0.7933319115	 4.3346307439	 0.078794
H	 1.2880584473	-3.2129583006	 3.1626718411	 0.108818
H	 0.885039871	-2.7606061791	 0.5188077583	 0.106619
H	 3.3105119178	 0.0127045513	 3.3974639376	 0.108083
H	 2.9033655055	 0.45823039	 0.756482428	 0.107362
97.1652	168.848	196.3265	310.0845	366.1793	441.4431	455.3481	538.0029	616.9318	634.9331	680.47	731.8634	739.8243	767.8089	811.7303	842.0778	881.0651	898.0407	899.975	921.5341	925.9049	940.8818	987.9634	1011.7191	1062.2525	1101.0069	1118.4725	1158.7004	1222.357	1261.3862	1275.2758	1287.6444	1312.3518	1323.744	1385.681	1409.5316	1478.0143	1494.2784	1507.3762	1617.2681	1663.3285	3028.4504	3042.5325	3065.5155	3107.8724	3126.9864	3133.6939	3220.3975	3221.5742	3247.4911	3249.677
CCC12OC(C=C1)C=C2	CC[C@@]12O[C@@H](C=C1)C=C2	
InChI=1S/C8H10O/c1-2-8-5-3-7(9-8)4-6-8/h3-7H,2H2,1H3	InChI=1S/C8H10O/c1-2-8-5-3-7(9-8)4-6-8/h3-7H,2H2,1H3/t7-,8+
