17
gdb 79725	2.71725	1.76502	1.42861	4.7325	72.41	-0.2277	0.0325	0.2602	958.0106	0.137074	-417.963589	-417.956031	-417.955087	-417.995669	28.893	
C	-0.0691347063	 1.3614238325	-0.2179772639	-0.345074
N	-0.0370667412	-0.0423058007	 0.1065824783	-0.048926
C	-1.0820442575	-1.0575368675	 0.0763420752	-0.011794
C	-1.5928559041	-1.549369736	-1.318344605	-0.079312
N	-0.4649718189	-1.4039387806	-2.262547873	-0.330974
C	-0.5195990178	-2.5791889259	-1.3655319848	-0.039202
C	 0.0363200816	-2.1380849491	 0.0154269769	-0.221569
C	 1.0167409495	-0.9352342794	-0.0168100634	 0.416915
O	 2.2017038369	-0.7622052657	-0.1075160268	-0.376213
H	 0.9626050927	 1.7213421729	-0.2292217393	 0.158767
H	-0.510760912	 1.5313429496	-1.2078069429	 0.132395
H	-0.6349976616	 1.929866008	 0.5281874637	 0.121547
H	-1.8245999078	-1.0172245547	 0.8742133337	 0.086406
H	-2.6182994052	-1.5847187809	-1.6643142521	 0.097524
H	-0.7938215008	-1.7033956026	-3.1792225638	 0.23675
H	-0.530316824	-3.5852766835	-1.7634351943	 0.102832
H	 0.1495030866	-2.9060762965	 0.7766740716	 0.09993
115.5337	146.3177	151.0907	238.3017	291.5374	377.4288	486.8945	589.5766	667.3592	716.4552	757.0145	786.4463	815.4511	827.5835	889.4736	905.0931	941.2922	951.453	979.2951	1030.4416	1044.0363	1092.7195	1107.8903	1141.9893	1153.5098	1178.6608	1193.0231	1258.6333	1282.7772	1293.5444	1312.7861	1368.2497	1391.8494	1446.2312	1485.1117	1509.8631	1880.7111	3018.6558	3076.72	3104.585	3127.986	3153.7547	3188.4863	3206.1041	3486.5395
CN1C2C3NC3C2C1=O	CN1[C@H]2[C@H]3N[C@H]3[C@H]2C1=O	
InChI=1S/C6H8N2O/c1-8-5-2(6(8)9)3-4(5)7-3/h2-5,7H,1H3	InChI=1S/C6H8N2O/c1-8-5-2(6(8)9)3-4(5)7-3/h2-5,7H,1H3/t2-,3+,4+,5-/m1/s1
