21
gdb 114535	3.32313	1.26923	1.18292	1.709	77.75	-0.2348	0.082	0.3169	1148.8035	0.184313	-424.208648	-424.2006	-424.199656	-424.241173	31.687	
C	 0.1033025988	 1.5199526038	 0.1375414459	-0.239367
O	 0.2005788216	 0.1295565215	-0.0593777574	-0.241369
C	 0.6604868249	-0.6000642509	 1.0810564708	 0.105589
C	-0.4795484023	-0.8153464809	 2.1158422031	-0.221053
C	-1.1900968549	-2.1452140216	 1.8609701741	 0.093735
C	-1.2819552055	-2.4875016436	 0.3584066459	-0.253496
C	 0.1365283951	-3.0343165833	 0.6273399055	 0.090834
C	 1.2072162316	-1.9463675425	 0.5492521469	-0.221069
O	-0.2052323126	-3.2053084265	 2.0352675242	-0.302046
H	 1.0700949598	 1.9525700426	 0.4400238274	 0.104947
H	-0.1970925611	 1.9604444458	-0.8165505902	 0.127378
H	-0.6448193678	 1.7944524913	 0.896342711	 0.105204
H	 1.4762268817	-0.0264831254	 1.5450517195	 0.065216
H	-0.0687842841	-0.8424814238	 3.1311048199	 0.106721
H	-1.1812293657	 0.0244881773	 2.0701223454	 0.097316
H	-2.0675123343	-2.2902355495	 2.4974597586	 0.071241
H	-1.9960445412	-3.2907231947	 0.1709236982	 0.102851
H	-1.399792252	-1.6745523309	-0.3566121536	 0.121415
H	 0.4449260629	-3.9739872313	 0.1610884086	 0.072003
H	 1.5542639015	-1.7892839627	-0.4766653616	 0.10749
H	 2.0613071436	-2.2724104547	 1.1515958777	 0.106458
98.1265	130.274	196.9664	252.8678	322.6569	338.2415	383.7227	448.7066	488.9946	557.184	695.2939	801.2179	824.8514	849.5079	864.3001	872.9134	925.1701	938.8594	954.4871	975.2423	1036.0128	1083.5488	1088.9539	1095.516	1113.1653	1135.0215	1174.7043	1186.0734	1206.1758	1232.3163	1252.1695	1265.1323	1280.2177	1338.2132	1344.2283	1352.9022	1376.9714	1378.0612	1400.8082	1455.5373	1464.4005	1477.9392	1488.7068	1492.942	1512.3062	2972.9474	2985.4082	3019.7348	3040.984	3048.7236	3068.4466	3071.9836	3084.2772	3091.1897	3098.282	3110.9465	3159.6711
COC1CC2CC(C1)O2	CO[C@H]1C[C@H]2C[C@@H](C1)O2	
InChI=1S/C7H12O2/c1-8-5-2-6-4-7(3-5)9-6/h5-7H,2-4H2,1H3	InChI=1S/C7H12O2/c1-8-5-2-6-4-7(3-5)9-6/h5-7H,2-4H2,1H3/t5-,6-,7+
