19
gdb 101546	3.22535	0.83984	0.73372	4.6363	76.08	-0.231	-0.0635	0.1675	1551.7623	0.157338	-456.352976	-456.342642	-456.341698	-456.388847	36.52	
C	-0.0906375419	 1.5787787585	-0.0051973969	-0.395196
C	-0.0198827137	 0.0451550771	-0.0497747476	 0.06234
C	 0.769451777	-0.4707940658	-1.2508922831	-0.100661
O	 2.13065462	-0.0934569957	-1.0591487429	-0.426837
N	 0.5861442338	-0.5138850014	 1.1514708729	-0.324197
C	-0.0818738702	-0.6136238234	 2.3346361534	 0.288744
N	-1.3273653189	-0.3490310816	 2.4711721014	-0.525737
C	 0.7809328251	-1.1068152193	 3.4778007132	 0.108625
O	 0.3524097956	-1.2849172108	 4.586974066	-0.236841
H	 0.9137980157	 2.0102396554	 0.0099881282	 0.125138
H	-0.6175589295	 1.9616597779	-0.8854851557	 0.111265
H	-0.6354945591	 1.8977633024	 0.8855966945	 0.145089
H	-1.0380534146	-0.3530355083	-0.1052888564	 0.116031
H	 0.6718884643	-1.5641225011	-1.312160952	 0.098359
H	 0.35961967	-0.03395627	-2.1729117785	 0.097976
H	 2.6598194879	-0.4850868459	-1.7592357607	 0.295797
H	 1.5945457105	-0.5437867031	 1.15123559	 0.2491
H	-1.5906241037	-0.550695485	 3.4373303044	 0.231731
H	 1.8505283817	-1.2981491799	 3.2312865197	 0.079275
64.823	75.6382	101.0952	161.4846	176.4582	232.6878	263.3329	269.4377	280.5868	350.1741	411.1912	470.5896	476.5058	584.7629	613.7551	755.8608	835.1324	864.4407	936.4377	948.886	962.7344	1005.1406	1023.4458	1114.1047	1138.1164	1155.5896	1189.442	1224.0176	1273.5171	1302.4983	1361.3132	1381.7247	1397.2277	1432.1849	1452.4248	1493.117	1498.7189	1515.7384	1545.6609	1696.3018	1833.9135	2870.3121	2990.45	3029.3285	3043.7155	3070.448	3115.0489	3139.3544	3470.2504	3621.0266	3843.3055
CC(CO)NC(=N)C=O	C[C@@H](CO)NC(=N)C=O	
InChI=1S/C5H10N2O2/c1-4(2-8)7-5(6)3-9/h3-4,8H,2H2,1H3,(H2,6,7)	InChI=1S/C5H10N2O2/c1-4(2-8)7-5(6)3-9/h3-4,8H,2H2,1H3,(H2,6,7)/t4-/m0/s1
