17
gdb 48283	3.04811	0.99547	0.78859	4.0423	70.76	-0.2516	-0.0525	0.1991	1408.5359	0.131258	-458.939672	-458.930056	-458.929112	-458.976291	32.807	
O	-0.7214401159	 0.9236351516	 0.1161999043	-0.219436
C	 0.4219962309	 0.8886662085	-0.2421357262	 0.144587
C	 1.4596949896	 1.9591037168	 0.1033453511	-0.070106
O	 2.7764265406	 1.4580508534	 0.1037315541	-0.259307
C	 3.1603882042	 0.8381884631	 1.3020698213	 0.13929
C	 2.8983381304	-0.6308643417	 1.5133618583	-0.2896
C	 4.2970856138	-0.122648756	 1.2169212751	-0.289631
C	 1.4269984272	 3.0964312265	-0.9331521596	 0.131985
O	 0.4266258969	 3.6011079165	-1.3565619678	-0.218192
H	 0.831104686	 0.0778717371	-0.8848734967	 0.093458
H	 1.1785595528	 2.4022742234	 1.0714569521	 0.127029
H	 3.098128512	 1.4977107666	 2.1674313934	 0.098418
H	 2.662736626	-0.9730434067	 2.5148329689	 0.124752
H	 2.3973295353	-1.1708484218	 0.718401325	 0.124805
H	 4.6895814734	-0.3171966327	 0.225526001	 0.132477
H	 5.0374899145	-0.1191539542	 2.0082759473	 0.123998
H	 2.4495665024	 3.4032214699	-1.2426789916	 0.105473
30.8658	53.2322	70.7694	107.9385	155.7376	242.2919	288.7257	359.8161	375.2927	463.469	509.4756	609.3917	753.7627	820.2506	830.9443	846.8092	929.0768	975.3342	995.2493	1053.6415	1069.213	1078.9578	1095.0482	1119.7091	1131.7815	1192.4197	1199.9375	1235.3742	1248.3784	1300.8664	1372.9787	1393.5753	1411.3359	1454.3094	1497.7698	1820.068	1866.8311	2889.303	2907.866	2998.7	3105.5046	3141.6397	3146.3062	3225.9025	3239.5709
O=CC(OC1CC1)C=O	O=CC(OC1CC1)C=O	
InChI=1S/C6H8O3/c7-3-6(4-8)9-5-1-2-5/h3-6H,1-2H2	InChI=1S/C6H8O3/c7-3-6(4-8)9-5-1-2-5/h3-6H,1-2H2
