23
gdb 91457	2.3364	1.85778	1.36965	0.2274	88.84	-0.2302	0.0244	0.2546	1068.1789	0.20791	-351.176176	-351.168013	-351.167069	-351.207978	34.247	
C	-0.1288886757	 1.5470270947	-0.0221159497	-0.422794
C	 0.0305964298	 0.0234525318	 0.0035188779	 0.032201
C	 0.8948380154	-0.5163654405	-1.1821836259	-0.225774
C	 2.0021714857	-1.3611462886	-0.4730926053	-0.064214
C	 2.2641896418	-0.4811932999	 0.7681038821	-0.243849
C	 0.7976549749	-0.5465761932	 1.2687991426	 0.301443
C	 0.4722666901	 0.1008478719	 2.605206531	-0.499391
C	 0.5769777643	-2.0566556775	 1.1969504038	-0.110289
C	 1.2912041947	-2.5387951592	 0.177310039	-0.091804
H	 0.836732885	 2.0607055035	 0.0470140259	 0.11294
H	-0.6003231059	 1.8652755848	-0.9583128316	 0.112096
H	-0.7579686821	 1.9036806356	 0.7995744717	 0.112576
H	-0.9707932079	-0.4187927292	-0.0236269023	 0.064092
H	 0.3156476619	-1.1080834434	-1.8955054769	 0.092697
H	 1.349215392	 0.3131960529	-1.7353276401	 0.09011
H	 2.8568554805	-1.6024701854	-1.1064816643	 0.054121
H	 2.9654099847	-0.9345943385	 1.4739684164	 0.089956
H	 2.5985977895	 0.5330547975	 0.523270134	 0.083189
H	 0.7317578395	 1.1637857976	 2.6185195246	 0.114362
H	-0.5958284619	 0.0176770858	 2.8390777332	 0.110361
H	 1.0255955596	-0.3856963573	 3.4156622629	 0.113409
H	-0.1306870009	-2.5901902471	 1.8214332318	 0.085495
H	 1.2903876452	-3.5508035664	-0.2091734109	 0.089067
150.4019	216.1621	236.3132	282.4816	306.7926	331.0878	377.6268	407.5636	499.3969	520.308	602.1109	656.3955	722.9576	763.9532	795.6227	838.7106	866.6866	888.2629	903.6524	928.21	947.7563	952.704	966.8321	1006.3475	1035.9037	1079.3235	1089.4617	1106.2149	1117.7018	1174.6079	1182.2099	1198.7866	1223.1743	1246.557	1268.3391	1301.4315	1305.8787	1329.662	1362.439	1371.6595	1404.7529	1413.6678	1487.8563	1490.8681	1491.8726	1500.2865	1505.6681	1509.5035	1648.9851	3024.7869	3026.8212	3038.4105	3039.296	3045.1512	3086.4443	3090.6449	3092.9003	3097.1005	3102.0806	3103.0846	3103.8122	3184.2473	3212.2161
CC1CC2CC1(C)C=C2	C[C@H]1C[C@H]2C[C@]1(C)C=C2	
InChI=1S/C9H14/c1-7-5-8-3-4-9(7,2)6-8/h3-4,7-8H,5-6H2,1-2H3	InChI=1S/C9H14/c1-7-5-8-3-4-9(7,2)6-8/h3-4,7-8H,5-6H2,1-2H3/t7-,8-,9-/m0/s1
