17
gdb 62224	2.83681	0.88088	0.81982	2.6125	70.66	-0.2632	-0.0352	0.228	1441.786	0.131944	-458.913024	-458.903079	-458.902135	-458.949613	34.644	
O	 0.5347667753	 1.8032079753	-0.0272328678	-0.4346
C	 0.2385335657	 0.5689660823	-0.6174194364	 0.036892
C	 1.3703013717	 0.1759908573	-1.5916316396	-0.11512
O	 1.0913642601	-1.0630965008	-2.2267860913	-0.240241
C	 0.7667303232	-0.9854754032	-3.6041745544	-0.220305
C	-0.5013811505	-0.3093438296	-3.8898705531	 0.304389
C	-1.5378730054	 0.2535453051	-4.122295733	-0.453306
C	 0.0502176714	-0.4964327688	 0.44236975	 0.14043
O	 0.1347158066	-0.2298533539	 1.6189014588	-0.26886
H	 0.5268349338	 1.639121398	 0.9300210382	 0.295824
H	-0.6979425182	 0.6164076042	-1.1981058013	 0.109613
H	 1.4960112749	 0.9888647013	-2.3159935486	 0.122986
H	 2.3080520923	 0.0730461951	-1.0331482963	 0.118994
H	 1.5756952152	-0.4895232302	-4.1625900235	 0.129661
H	 0.7200852349	-2.0223953191	-3.953129053	 0.146077
H	-2.4539779178	 0.7481971252	-4.3340399597	 0.210076
H	-0.1623459032	-1.5193315683	 0.0823290111	 0.117488
22.9479	63.8473	92.2476	132.7024	182.3146	242.7146	314.4442	327.0686	349.4513	425.4466	437.5017	498.1971	584.0169	625.6828	688.2563	735.2044	834.0649	892.9026	915.7321	963.4108	1021.5074	1053.195	1113.5391	1127.73	1162.0574	1252.0799	1291.3463	1301.7929	1324.3818	1380.166	1390.9637	1401.2736	1445.8495	1477.06	1500.4648	1805.0052	2232.4264	2972.7822	2986.6569	2989.1466	3028.2582	3073.0284	3080.1783	3500.9686	3676.5755
OC(COCC#C)C=O	O[C@@H](COCC#C)C=O	
InChI=1S/C6H8O3/c1-2-3-9-5-6(8)4-7/h1,4,6,8H,3,5H2	InChI=1S/C6H8O3/c1-2-3-9-5-6(8)4-7/h1,4,6,8H,3,5H2/t6-/m1/s1
