16
gdb 47282	3.20116	1.28267	0.96583	2.7806	74.19	-0.2571	-0.0834	0.1736	1160.6456	0.126099	-437.943348	-437.935481	-437.934537	-437.976384	29.316	
O	-0.0029900011	-0.0182174352	 0.584090795	-0.310435
C	-0.0640713924	 1.0488017478	 0.0065068014	 0.363548
C	-1.4094607227	 1.7167046014	-0.2407192274	-0.300809
C	-1.5094334288	 2.4838760438	-1.5620991463	-0.194627
N	-0.8402579672	 3.7721477204	-1.5310953782	-0.319861
C	 0.4848614077	 4.0203691244	-1.328219894	 0.37452
O	 0.9446904556	 5.1496416885	-1.3961524197	-0.36813
C	 1.4075715581	 2.8845884358	-1.01892234	-0.129083
C	 1.1966542402	 1.6865340214	-0.4550433542	-0.157171
H	-2.1607918986	 0.9238102418	-0.1942302658	 0.133629
H	-1.6113804167	 2.405254063	 0.5900549277	 0.137968
H	-1.1267496654	 1.864342046	-2.3850135969	 0.126195
H	-2.5612780285	 2.6815227586	-1.7811198425	 0.12713
H	-1.3692526303	 4.5985797308	-1.7657348389	 0.254476
H	 2.4320240206	 3.174403629	-1.234060941	 0.138471
H	 2.0575534594	 1.0534010925	-0.255367209	 0.124181
55.3976	94.436	249.9945	260.3907	332.296	363.9481	425.5404	488.8039	520.5152	563.2637	612.2174	695.5299	741.9216	753.4053	839.7109	877.964	933.5604	946.1592	1048.678	1064.7299	1123.5712	1182.9169	1218.8519	1265.3554	1291.1239	1361.8174	1374.6586	1391.9504	1420.817	1446.172	1470.0835	1503.2771	1677.0572	1759.2868	1765.5642	3012.6477	3037.7962	3099.7167	3105.544	3164.5823	3186.9055	3622.9825
O=C1CCNC(=O)C=C1	O=C1CCNC(=O)C=C1	
InChI=1S/C6H7NO2/c8-5-1-2-6(9)7-4-3-5/h1-2H,3-4H2,(H,7,9)	InChI=1S/C6H7NO2/c8-5-1-2-6(9)7-4-3-5/h1-2H,3-4H2,(H,7,9)
