18
gdb 41113	3.46015	1.94919	1.55318	1.5483	79.61	-0.2269	0.0002	0.2271	884.501	0.150134	-364.742671	-364.736392	-364.735448	-364.772778	27.261	
C	-0.0193041597	 1.4569397131	 0.1516860392	-0.238631
C	 1.5054227151	 1.5911096921	-0.1766676235	-0.343808
C	 1.4826037404	 0.1519076343	-0.695464111	 0.311299
C	 2.3511667709	-1.042780069	-0.5177567246	-0.218892
C	 1.7495054282	-2.070317769	-1.1504151313	-0.093006
C	 0.5747021897	-1.577153086	-1.9089633673	-0.065286
C	 0.6603220251	-0.1137999539	-1.9942217259	-0.096613
N	-0.5237572465	-0.6422098025	-1.2426035616	-0.171049
C	 0.0644239265	-0.0926628595	-0.0196050071	 0.028936
H	-0.3196324923	 1.7911685584	 1.1461577028	 0.106382
H	-0.6761121615	 1.9212202971	-0.5874891035	 0.117202
H	 1.8089879175	 2.373049343	-0.8786411969	 0.099671
H	 2.1074490495	 1.6896223581	 0.7316032516	 0.107276
H	 3.1694145679	-1.1128690672	 0.1892865144	 0.102048
H	 2.0221257245	-3.1157439003	-1.085733599	 0.100933
H	 0.1020408877	-2.159435327	-2.6885657469	 0.100394
H	 0.5885184748	 0.5039517284	-2.8856481235	 0.087964
H	-0.0530167778	-0.6894864402	 0.8888869741	 0.06518
211.8734	279.9357	345.5189	383.4001	516.3338	577.3612	610.5507	679.5403	709.7251	727.6364	787.9993	802.6178	814.0023	855.0844	863.4423	894.3225	909.2751	935.9447	966.7397	991.7628	1009.0241	1064.8861	1088.718	1091.2633	1119.056	1153.1283	1192.5486	1215.5921	1217.2374	1234.8611	1251.9049	1274.7956	1293.9886	1326.8883	1361.7831	1388.3254	1472.1129	1492.5704	1597.6619	3049.6621	3068.9416	3074.7358	3096.8685	3131.192	3140.9678	3194.9315	3209.5396	3225.0533
C1CC23C=CC4C2N4C13	C1C[C@]23C=C[C@@H]4[C@H]2N4[C@H]13	
InChI=1S/C8H9N/c1-3-8-4-2-6(8)9-5(1)7(8)9/h1,3,5-7H,2,4H2	InChI=1S/C8H9N/c1-3-8-4-2-6(8)9-5(1)7(8)9/h1,3,5-7H,2,4H2/t5-,6-,7-,8+,9?/m1/s1
