21
gdb 86707	3.21472	1.1088	0.93657	3.0731	82.87	-0.2404	-0.0164	0.224	1307.1555	0.183123	-387.107597	-387.098964	-387.09802	-387.141115	33.211	
C	 0.028845871	 1.5756753692	-0.0465062901	-0.400151
C	 0.0540067488	 0.0471615518	 0.0226711412	 0.027887
C	 0.7682514828	-0.6188844844	-1.1800391264	-0.269879
C	 1.239454529	-2.007556483	-0.6724755239	-0.071274
C	 2.4601503327	-2.5027097279	-1.4131329121	 0.157018
O	 2.520928749	-3.5200176869	-2.0549844909	-0.25369
C	 1.4917778464	-1.7880715387	 0.820214935	-0.062242
C	 2.2682277542	-0.5577116369	 1.2384791685	-0.295148
C	 0.7609646791	-0.5342133551	 1.2434954735	-0.035246
H	 1.0450388661	 1.9850388516	-0.0415343364	 0.11553
H	-0.4695717107	 1.9234464399	-0.9576061209	 0.114188
H	-0.5061526981	 2.0019743815	 0.8083673272	 0.114675
H	-0.9827441395	-0.315700173	 0.0469253341	 0.077646
H	 0.124532184	-0.7025136471	-2.0589077437	 0.113139
H	 1.6328426757	-0.0148967791	-1.4827989531	 0.103202
H	 0.4498556425	-2.7544961045	-0.8039691755	 0.090803
H	 3.3463461106	-1.830550532	-1.319309433	 0.06694
H	 1.5353469941	-2.6628983104	 1.4589509479	 0.093715
H	 2.7657876499	-0.6031057183	 2.2007560942	 0.115384
H	 2.81122165	 0.0190363319	 0.4974062461	 0.113033
H	 0.2526320824	-0.4873370086	 2.2006516986	 0.084467
66.7969	104.9092	175.5432	235.3247	238.5593	343.1572	356.7024	395.3101	440.9607	512.1096	582.6166	660.7425	763.6288	823.8547	842.9262	884.6331	911.9331	941.5851	952.3655	980.4121	1017.9741	1037.8278	1060.3332	1068.8327	1081.7067	1101.7998	1113.7226	1139.6264	1173.0117	1203.708	1211.7137	1263.5647	1305.8482	1315.8723	1339.4682	1343.5879	1375.4948	1389.8876	1410.594	1428.539	1484.3435	1495.0644	1498.573	1509.4134	1830.0594	2847.7592	3007.4252	3028.7035	3034.9248	3060.3675	3096.8927	3099.0435	3102.413	3135.7188	3162.4752	3175.1741	3216.0252
CC1CC(C=O)C2CC12	C[C@H]1C[C@@H](C=O)[C@H]2C[C@@H]12	
InChI=1S/C8H12O/c1-5-2-6(4-9)8-3-7(5)8/h4-8H,2-3H2,1H3	InChI=1S/C8H12O/c1-5-2-6(4-9)8-3-7(5)8/h4-8H,2-3H2,1H3/t5-,6-,7-,8+/m0/s1
