19
gdb 82962	2.42768	1.70539	1.64145	3.4083	73.36	-0.2201	0.0717	0.2918	957.0742	0.16195	-423.005325	-422.998071	-422.997126	-423.03679	29.578	
O	-0.3704212643	 1.6578405554	 0.2809064573	-0.43691
C	-0.1427478585	 0.3011780902	 0.1056358156	 0.123874
C	-0.3511730259	-0.7419039431	 1.181474768	-0.110746
C	-0.9268764903	-0.4030469603	 2.549936441	-0.268467
C	-2.3382974562	 0.1404028937	 2.5661713157	 0.051266
O	-2.590635311	 1.3721832702	 1.8562379536	-0.269885
C	-3.1893838872	 0.1518787747	 1.3691175063	 0.051269
C	-2.7152912885	-0.378835326	 0.03447753	-0.268423
C	-1.2367971708	-0.7299233394	-0.0641570698	-0.110758
H	-1.1574896007	 1.772952618	 0.8420675724	 0.302427
H	 0.7346006327	 0.1626911554	-0.5195991668	 0.09648
H	 0.4001115946	-1.5254531594	 1.2262946139	 0.084013
H	-0.9373875067	-1.3135132495	 3.1624196461	 0.111234
H	-0.2748258249	 0.3078301076	 3.0757589959	 0.124926
H	-2.8244409696	 0.1177037966	 3.541144197	 0.099767
H	-4.2701129827	 0.1371900226	 1.5077925043	 0.099766
H	-3.3054685343	-1.2814537811	-0.1683914369	 0.111218
H	-2.9912332041	 0.3446124481	-0.7449421866	 0.124932
H	-1.0394745214	-1.5060383739	-0.7983897969	 0.084017
124.9306	161.0871	253.9453	327.7054	357.3654	467.6997	544.4797	550.6182	600.8955	651.4467	697.0207	754.8875	759.6341	784.25	842.8823	886.8275	909.3595	955.2732	961.1594	1033.4025	1046.9103	1069.8496	1102.8397	1109.7984	1134.1363	1154.1965	1178.361	1251.1667	1256.6621	1267.3156	1303.4047	1344.0358	1350.0699	1369.1609	1376.6151	1398.717	1427.5754	1468.9993	1472.5763	1486.4717	1508.9795	3015.1911	3015.3931	3048.8648	3049.2781	3109.7003	3122.0024	3131.1714	3137.3882	3155.1619	3600.9576
OC1C2CC3OC3CC12	O[C@H]1[C@H]2C[C@H]3O[C@H]3C[C@@H]12	
InChI=1S/C7H10O2/c8-7-3-1-5-6(9-5)2-4(3)7/h3-8H,1-2H2	InChI=1S/C7H10O2/c8-7-3-1-5-6(9-5)2-4(3)7/h3-8H,1-2H2/t3-,4+,5+,6-,7-
