25
gdb 101363	3.15501	0.97284	0.85492	0.252	92.34	-0.2481	0.0841	0.3322	1502.8269	0.228772	-352.335822	-352.325947	-352.325003	-352.370708	37.865	
C	-0.0356502929	 1.5784527708	-0.0945645157	-0.391475
C	 0.0624589299	 0.0541552046	 0.0257484158	-0.166683
C	 0.6868888546	-0.4527639103	 1.3398653486	 0.027326
C	-0.1767438458	-0.1236145782	 2.5655586047	-0.398676
C	 0.9457101809	-1.9607190826	 1.257920357	 0.039466
C	 2.0392317216	-2.5117743792	 0.2727505764	-0.266739
C	 2.7024249624	-3.2447688752	 1.4453725891	-0.044631
C	 3.1164177797	-2.2604476952	 2.5004796691	-0.275702
C	 1.6697163045	-2.6695731845	 2.416652233	-0.071353
H	 0.9496228836	 2.046806006	 0.0114359978	 0.11171
H	-0.4367578994	 1.869558171	-1.0706636461	 0.10977
H	-0.6903595479	 2.0094168593	 0.6691798534	 0.116899
H	-0.93793081	-0.3878284179	-0.085004963	 0.088478
H	 0.6548521668	-0.3278893184	-0.8152943826	 0.095752
H	 1.6558383201	 0.0533526815	 1.4628892939	 0.063011
H	-1.167401642	-0.5877411814	 2.4816343931	 0.106911
H	 0.2893110507	-0.4958794301	 3.4831559513	 0.117614
H	-0.3237942438	 0.9536664339	 2.6848334481	 0.111124
H	-0.0057542527	-2.4681611133	 1.0576145404	 0.065276
H	 1.6249619101	-3.1767431848	-0.488021923	 0.099681
H	 2.6652486387	-1.76293989	-0.2263630572	 0.090147
H	 3.1107668945	-4.2472383426	 1.4072219858	 0.081861
H	 3.6595752746	-2.679298238	 3.3418596414	 0.107193
H	 3.437625097	-1.2586047646	 2.2249524448	 0.103789
H	 1.1788777951	-3.1601110811	 3.2490842937	 0.079252
69.9255	77.2309	129.9995	170.461	212.1964	238.3728	274.7199	333.9417	370.3566	389.9876	456.7157	522.8195	684.9563	769.9905	782.2451	798.9574	815.2012	857.6256	918.4069	947.777	954.4772	968.7749	983.5605	1005.9095	1021.4521	1029.3134	1043.9582	1063.2303	1068.6422	1082.7372	1133.7178	1151.2749	1178.8465	1187.4212	1218.6477	1245.7171	1265.4013	1275.1466	1303.5399	1306.4913	1350.6426	1366.9112	1374.5147	1394.6463	1405.3209	1411.4717	1482.6561	1483.8989	1495.0422	1498.319	1499.5426	1507.0892	1510.3047	2991.615	3008.0537	3024.5624	3030.4641	3031.5366	3035.6398	3045.4945	3092.8769	3095.3389	3101.9332	3103.2277	3106.7053	3110.0775	3171.1717	3182.0468	3197.8938
CCC(C)C1CC2CC12	CC[C@@H](C)[C@H]1C[C@H]2C[C@@H]12	
InChI=1S/C9H16/c1-3-6(2)8-4-7-5-9(7)8/h6-9H,3-5H2,1-2H3	InChI=1S/C9H16/c1-3-6(2)8-4-7-5-9(7)8/h6-9H,3-5H2,1-2H3/t6-,7+,8-,9-/m1/s1
