16
gdb 46286	3.12958	1.40717	1.26646	2.9239	69.71	-0.2427	-0.0406	0.2021	1027.7489	0.124556	-437.903231	-437.8956	-437.894656	-437.936159	28.16	
O	-0.1623519599	 0.0064665834	 0.1547155525	-0.285188
C	-0.1261223921	 1.1926158581	 0.023306379	 0.343407
C	-1.1529707409	 2.2834029932	-0.3264393091	-0.34778
C	 0.041785103	 3.2552582104	-0.5703126869	-0.305504
C	 1.0258794915	 2.2298983735	 0.0620726538	 0.300612
C	 1.6369423312	 2.533642038	 1.4643427173	-0.253104
N	 3.0895847242	 2.4131364332	 1.2765327871	-0.25096
C	 3.2529830895	 2.0560095145	 0.0752439127	 0.112197
O	 2.1718647246	 1.8934810009	-0.733051151	-0.249743
H	-1.8012380555	 2.058076092	-1.1760795668	 0.141792
H	-1.7830719856	 2.5467280945	 0.5291316512	 0.139251
H	 0.2550116532	 3.4018493015	-1.6306930451	 0.130933
H	-0.0079107032	 4.2254625784	-0.0730948404	 0.114596
H	 1.3790933624	 3.5374427692	 1.8173313982	 0.124697
H	 1.3067617631	 1.8155333597	 2.2224880945	 0.136807
H	 4.2036571744	 1.8587404396	-0.406365307	 0.147986
65.1876	77.7212	160.8821	270.6538	309.9472	431.3753	490.9355	518.257	589.1315	702.081	751.7089	790.1094	835.8929	895.0369	927.8344	930.3226	961.8439	983.5222	1025.1375	1060.6196	1101.7525	1117.6375	1151.4398	1167.0274	1198.4734	1226.184	1239.0056	1274.0831	1315.6737	1332.3627	1440.4216	1479.2811	1490.3111	1715.3763	1898.1195	3041.9083	3063.0659	3079.4966	3080.2221	3118.4497	3140.0207	3225.3453
O=C1CCC11CN=CO1	O=C1CC[C@]21CN=CO2	
InChI=1S/C6H7NO2/c8-5-1-2-6(5)3-7-4-9-6/h4H,1-3H2	InChI=1S/C6H7NO2/c8-5-1-2-6(5)3-7-4-9-6/h4H,1-3H2/t6-/m1/s1
