21
gdb 76760	2.20336	1.53221	1.34605	2.0979	77.05	-0.2448	0.0553	0.3001	1095.2783	0.181316	-424.196999	-424.18766	-424.186716	-424.230572	36.066	
C	 0.5630150188	 1.6404012596	 0.0199803277	-0.417856
C	 0.135055766	 0.1821944319	 0.1208364935	-0.104876
C	 0.8162119108	-0.837793961	-0.8670189806	 0.125701
O	 1.6233920097	-0.3587896419	-1.9140076751	-0.426094
C	 1.4544096812	-1.5856979928	 0.3279481905	-0.102119
C	 2.7531282623	-0.9548411339	 0.9108523473	-0.243707
C	 1.9285083525	-0.2513642036	 2.0299984194	-0.292646
C	 0.6269786789	-0.6997189666	 1.3218977321	 0.412158
O	-0.376114222	-1.2960898764	 2.0977954754	-0.485078
H	 1.6482970825	 1.7696605627	 0.0897380594	 0.105811
H	 0.248338938	 2.0619480591	-0.939560628	 0.128885
H	 0.1140374272	 2.243995841	 0.8163294618	 0.111321
H	-0.9556764239	 0.1188039304	 0.0522568499	 0.073997
H	 0.0624472871	-1.4614875725	-1.3543616561	 0.094425
H	 2.3796007073	 0.1001431658	-1.534965331	 0.280274
H	 1.4086818758	-2.6747257503	 0.3328413568	 0.071665
H	 3.4849747555	-1.6808115958	 1.2687062438	 0.112569
H	 3.2825774678	-0.2730578517	 0.2365403258	 0.080595
H	 2.0242565918	-0.7683627458	 2.9881265807	 0.107803
H	 2.0914327168	 0.818232863	 2.1884770677	 0.091883
H	-0.8749716341	-0.5975209113	 2.5360764689	 0.27529
73.3562	185.9349	195.2493	217.8481	229.6172	247.1214	262.1558	300.3981	366.474	445.94	522.9062	541.5639	585.8106	662.1316	734.7667	772.5738	824.7564	870.6464	886.2887	953.1934	973.3464	1002.7123	1029.3126	1041.1093	1092.8118	1105.9088	1133.9994	1153.8517	1181.2626	1195.8608	1222.8576	1234.3111	1253.0107	1260.2469	1285.0573	1308.9042	1311.9919	1350.5814	1371.7517	1409.446	1435.6893	1473.9376	1488.6298	1498.7336	1504.0835	3032.3026	3040.0611	3046.7289	3056.5935	3075.1808	3094.175	3099.0589	3104.923	3110.3449	3119.4835	3792.787	3818.5332
CC1C(O)C2CCC12O	C[C@H]1[C@@H](O)[C@H]2CC[C@@]12O	
InChI=1S/C7H12O2/c1-4-6(8)5-2-3-7(4,5)9/h4-6,8-9H,2-3H2,1H3	InChI=1S/C7H12O2/c1-4-6(8)5-2-3-7(4,5)9/h4-6,8-9H,2-3H2,1H3/t4-,5+,6+,7+/m0/s1
