16
gdb 129299	3.19563	1.44629	1.0519	3.6772	70.93	-0.2235	0.0017	0.2252	1099.6512	0.125334	-434.038524	-434.030863	-434.029919	-434.071511	28.611	
N	-0.338152303	 1.0256828418	 0.823472893	-0.60251
C	-0.1336016858	-0.1119166966	 0.3102355573	 0.487168
O	 1.0594311691	-0.7529398519	 0.1024590664	-0.251118
N	 0.8337897229	-2.0119939473	-0.535554215	-0.143736
C	-0.4446851726	-2.071493725	-0.6685833992	 0.066685
N	-1.1085829864	-0.9860723665	-0.16898192	-0.104957
C	-2.5079624357	-0.6972004504	-0.2427817986	 0.03312
C	-3.4879903036	-1.7480767594	 0.2162144165	-0.291107
C	-3.2689880266	-0.5045263602	 1.0373225683	-0.242233
H	 0.5401535685	 1.4618140267	 1.0936398983	 0.233765
H	-0.9501721395	-2.9093325102	-1.1248709594	 0.166098
H	-2.7856440936	-0.0747051635	-1.0883738565	 0.1191
H	-4.4065533616	-1.8519317178	-0.3494123802	 0.128795
H	-3.0874298749	-2.6799157496	 0.599246333	 0.127118
H	-2.7072211588	-0.5951066446	 1.9581915759	 0.142697
H	-4.0345139284	 0.2615089644	 1.0462829702	 0.131116
50.3332	109.0323	170.5811	218.3651	342.7108	395.3782	516.3433	595.8619	621.6466	729.1408	757.3335	764.1292	782.5	834.889	877.7121	895.1657	902.3384	932.3092	971.0958	1026.8235	1064.5969	1082.1413	1093.8522	1124.5124	1192.1464	1210.5604	1225.9386	1258.1898	1304.9031	1399.8326	1444.1059	1465.3082	1500.407	1656.3724	1775.3331	3142.2498	3145.7522	3158.9964	3227.2023	3250.06	3264.198	3534.7081
N=C1ON=CN1C1CC1	[NH][C@H]1ON=CN1C1CC1	
InChI=1S/C5H7N3O/c6-5-8(3-7-9-5)4-1-2-4/h3-4,6H,1-2H2	InChI=1S/C5H8N3O/c6-5-8(3-7-9-5)4-1-2-4/h3-6H,1-2H2/t5-/m1/s1
