19
gdb 77710	2.28906	1.97375	1.58547	1.6227	79.18	-0.2208	0.0092	0.2299	958.9689	0.160261	-385.840119	-385.832618	-385.831674	-385.871505	30.388	
C	-0.1498958004	 1.4819387702	-0.0190566671	-0.426837
C	 0.0508145877	-0.0123764892	 0.0627948542	-0.087434
C	 1.3895047713	-0.6540894221	-0.1111768145	 0.365892
C	 2.7190745847	 0.0759331368	-0.042854061	-0.361008
C	 2.7532924597	 0.5200466782	 1.4192601226	-0.055624
C	 1.6907398889	 0.0995271489	 2.1236380611	-0.169725
C	 0.7479267061	-0.6671032379	 1.266257565	 0.087655
C	 0.7300533277	-2.1913729498	 1.0712859269	-0.136869
O	 1.2906827524	-2.0792949289	-0.2719339943	-0.323773
H	 0.6717518127	 2.0328535909	 0.4436926063	 0.126979
H	-0.2282308325	 1.8005724447	-1.0639482163	 0.121936
H	-1.0744047491	 1.7731426757	 0.490636082	 0.121885
H	-0.7741619488	-0.5953232835	-0.3427094525	 0.093778
H	 3.5437165943	-0.6045506042	-0.285845968	 0.127736
H	 2.7932286433	 0.9248781434	-0.7337664687	 0.113678
H	 3.552399197	 1.1416123383	 1.8136139134	 0.095285
H	 1.5353134669	 0.3025222104	 3.1781455194	 0.095507
H	 1.4163144863	-2.7259052105	 1.7372719912	 0.108381
H	-0.2457592184	-2.6917357913	 1.0639698503	 0.102557
191.4509	207.6599	213.1479	264.455	278.7574	379.0444	444.816	515.3279	559.5363	654.0708	683.094	755.3759	782.1876	829.7854	860.1633	917.5007	924.9923	959.9949	970.861	981.7378	989.9189	1028.1184	1079.806	1104.2667	1129.7218	1136.9537	1153.8882	1167.0282	1220.7983	1243.3046	1294.0298	1330.2636	1342.2255	1374.4261	1414.3354	1424.6536	1471.0262	1497.4151	1501.2432	1511.833	1635.8542	3019.665	3028.1649	3037.1564	3063.2208	3073.0076	3094.9667	3115.7768	3131.8497	3165.8535	3191.6522
CC1C23CC=CC12CO3	C[C@H]1[C@@]23CC=C[C@@]12CO3	
InChI=1S/C8H10O/c1-6-7-3-2-4-8(6,7)9-5-7/h2-3,6H,4-5H2,1H3	InChI=1S/C8H10O/c1-6-7-3-2-4-8(6,7)9-5-7/h2-3,6H,4-5H2,1H3/t6-,7-,8+/m1/s1
