20
gdb 89192	2.50425	1.54102	1.20772	2.6431	80.19	-0.2567	0.0311	0.2878	1125.0793	0.170647	-403.147146	-403.13837	-403.137426	-403.180322	33.551	
C	-0.8041086426	 1.2338179704	-0.0237323248	-0.408146
C	 0.0004157646	-0.0562247629	 0.0232756697	 0.019683
C	 1.1900590577	-0.2458084188	-0.9740459229	-0.308791
C	 2.1495095129	-0.5883487966	 0.2195127305	 0.2021
C	 2.9863276698	-1.8436415436	 0.1660032089	-0.496346
C	 0.9794084534	-0.2659572184	 1.1998602136	 0.049492
O	 1.6629457525	 0.9656631165	 1.6007102083	-0.276799
C	 2.751943871	 0.6736003567	 0.796218457	 0.406797
N	 3.8407448045	 1.2776030851	 0.6484805715	-0.557775
H	-0.1517614702	 2.1034294304	 0.0926161747	 0.132713
H	-1.3316551203	 1.3267074365	-0.9787453985	 0.116883
H	-1.5512124168	 1.2655165908	 0.7767057629	 0.117732
H	-0.6703871531	-0.9209811223	-0.0305090415	 0.079672
H	 1.0589618034	-1.0774183912	-1.6700847294	 0.107671
H	 1.4771139132	 0.6416477957	-1.5427791637	 0.116986
H	 3.7876958873	-1.7279852984	-0.5711036496	 0.143119
H	 3.453687222	-2.0549505509	 1.1327631906	 0.127732
H	 2.3824137011	-2.7100865635	-0.1227577899	 0.115401
H	 0.6904813374	-0.8514838491	 2.0735587658	 0.085846
H	 3.8836358121	 2.1193004137	 1.2257451669	 0.226031
82.6438	167.7102	195.855	212.5014	224.5984	252.0563	278.6877	373.661	411.2658	562.6179	593.1567	664.6922	707.4575	780.9213	818.182	862.7881	882.2959	887.4576	912.4914	935.4684	953.6221	993.8047	1024.3372	1067.1412	1113.4864	1154.5051	1169.8081	1189.0542	1213.1873	1227.6006	1248.2738	1284.2118	1322.2076	1358.737	1368.257	1409.9205	1414.4781	1485.1697	1489.6772	1492.6893	1493.4991	1499.1575	1819.2014	3033.8702	3034.6148	3043.253	3065.4082	3098.1351	3103.584	3106.7873	3107.6879	3118.1128	3121.574	3473.7643
CC1CC2(C)C1OC2=N	C[C@H]1C[C@]2(C)[C@H]1O[C]2[NH]	
InChI=1S/C7H11NO/c1-4-3-7(2)5(4)9-6(7)8/h4-5,8H,3H2,1-2H3	InChI=1S/C7H11NO/c1-4-3-7(2)5(4)9-6(7)8/h4-5,8H,3H2,1-2H3/t4-,5-,7+/m0/s1
