15
gdb 19346	5.3375	1.66649	1.50626	3.7928	66.01	-0.2364	-0.042	0.1944	840.9032	0.118303	-362.57695	-362.57027	-362.569326	-362.60773	25.72	
O	-0.0404692845	 0.0872982697	-0.513258518	-0.256783
C	 0.1291292943	 1.0471673853	 0.1993730552	 0.087359
C	 1.2443172384	 2.0093949095	 0.0469172582	 0.207475
C	 2.1001814247	 2.0078428329	-1.1719860607	-0.273003
N	 2.6961256621	 1.4991143226	 0.0565184192	-0.152337
C	 3.0148875114	 2.6376268937	 1.0116010389	 0.007653
C	 2.6599350131	 4.0403437637	 0.5995098166	-0.309733
C	 1.584176313	 3.1048705239	 1.0764085951	-0.129409
H	-0.5697429555	 1.2772301555	 1.0350160184	 0.073753
H	 1.876001674	 1.2076694104	-1.870645128	 0.153114
H	 2.4357914169	 2.9344750911	-1.6227702954	 0.127331
H	 3.7188706331	 2.4101852731	 1.8006619403	 0.113489
H	 2.9561030218	 4.7756040861	 1.3418756513	 0.126813
H	 2.7150358032	 4.4143539204	-0.4162287551	 0.121743
H	 0.965905754	 3.2943783019	 1.9442166142	 0.102535
107.8444	191.1904	209.3181	352.3382	453.9534	465.1765	557.5538	671.6234	704.1781	723.3867	789.1864	840.4998	898.2517	931.4999	946.6208	973.0632	1017.91	1042.0371	1064.1176	1070.1083	1090.935	1123.218	1150.2965	1171.4633	1210.0096	1291.9501	1310.897	1366.182	1431.1617	1466.3616	1517.1914	1804.2746	2876.0142	3129.4152	3141.5003	3194.7821	3204.0839	3212.9483	3226.3217
O=CC12CN1C1CC21	O=C[C@]12CN1[C@H]1C[C@@H]21	
InChI=1S/C6H7NO/c8-3-6-2-7(6)5-1-4(5)6/h3-5H,1-2H2	InChI=1S/C6H7NO/c8-3-6-2-7(6)5-1-4(5)6/h3-5H,1-2H2/t4-,5+,6+,7?/m1/s1
