20
gdb 79738	2.44615	1.73335	1.3701	2.2895	77.81	-0.2133	0.0696	0.2829	1032.4892	0.172001	-403.103909	-403.095827	-403.094883	-403.135877	32.549	
C	 0.0186079875	 1.4967426818	-0.0102699703	-0.484424
C	 0.0163518371	-0.0156958211	-0.0056542082	 0.300128
C	-1.316158598	-0.7261840046	-0.3171575698	-0.244728
N	-1.5697528949	-1.7757743461	 0.7000040931	-0.096008
C	-0.7694463209	-3.0007148637	 0.5571827175	-0.263439
C	-0.3285411604	-1.9223626359	 1.4872246198	-0.034984
C	 0.6694638342	-0.8610013708	 1.091623309	-0.157042
C	 1.2814043495	-0.7623002433	-0.2971177752	 0.038123
O	 1.2883198831	-1.7961443501	-1.2394298808	-0.413306
H	 0.9920205044	 1.8937201899	 0.2946046922	 0.113941
H	-0.1994117414	 1.8916752566	-1.0096216434	 0.123354
H	-0.7364028167	 1.8942192529	 0.6774975975	 0.121659
H	-2.1271579702	 0.006473371	-0.2524786315	 0.104969
H	-1.3354532371	-1.1535529783	-1.3253182775	 0.118288
H	-1.2456489105	-3.8902095324	 0.963857226	 0.103793
H	-0.2214991462	-3.1489647798	-0.3637573785	 0.126897
H	-0.452813264	-2.0639532692	 2.5582482032	 0.087046
H	 1.2200738563	-0.3921355959	 1.901166409	 0.08101
H	 2.1758100843	-0.1374469763	-0.3439646012	 0.084052
H	 1.9424994139	-2.4464441847	-0.9613514407	 0.290671
160.3004	196.332	218.5112	239.3276	273.7568	332.0559	358.6157	412.6309	508.317	564.0304	652.0402	679.8465	703.5065	768.1898	815.6733	829.6631	872.8602	947.9389	960.4986	974.3156	1006.2562	1036.9276	1062.3234	1079.2035	1104.7468	1125.0268	1131.3926	1158.8604	1174.7211	1231.856	1244.8832	1275.7911	1284.5347	1314.8881	1333.8362	1373.946	1381.4956	1417.4996	1473.6944	1487.0774	1490.6206	1500.3429	1511.3079	3022.6087	3041.8143	3072.4684	3079.9601	3084.0441	3099.4132	3110.4014	3128.3669	3158.7921	3230.5804	3801.5631
CC12CN3CC3C1C2O	C[C@]12CN3C[C@H]3[C@H]1[C@H]2O	
InChI=1S/C7H11NO/c1-7-3-8-2-4(8)5(7)6(7)9/h4-6,9H,2-3H2,1H3	InChI=1S/C7H11NO/c1-7-3-8-2-4(8)5(7)6(7)9/h4-6,9H,2-3H2,1H3/t4-,5-,6+,7-,8?/m0/s1
