25
gdb 59464	2.83953	0.97185	0.8018	0.0614	94.01	-0.2433	0.0868	0.3302	1563.4685	0.228091	-352.337709	-352.327452	-352.326508	-352.373209	39.015	
C	-0.0192772924	 1.4905213051	-0.3055431129	-0.386399
C	 0.066440543	 0.0355573155	 0.1796270509	 0.025388
C	 0.7148392719	-0.0480000478	 1.5694883537	-0.389931
C	-1.3094641352	-0.6101265509	 0.1803403447	 0.018713
C	-1.9153522355	-1.1747083526	-1.0825533968	-0.32836
C	-1.5313275622	-2.1029205376	 0.0481516362	-0.019202
C	-0.4159772519	-3.089938524	-0.1063011743	 0.026279
C	-0.0475353503	-4.0106618384	 1.0334015548	-0.26545
C	-0.7256043451	-4.5648754029	-0.1955541255	-0.281677
H	 0.9714319401	 1.9563487795	-0.3387433002	 0.105486
H	-0.4575947984	 1.5498709564	-1.3066507608	 0.11277
H	-0.6445803215	 2.0894062568	 0.3674894785	 0.108961
H	 0.7054881801	-0.5118056296	-0.5257301949	 0.066514
H	 0.1095078534	 0.485224567	 2.312535117	 0.107805
H	 0.8102774318	-1.0866107011	 1.8990488933	 0.123249
H	 1.7121672364	 0.4049890121	 1.5698495456	 0.104705
H	-2.0092920063	-0.1068559884	 0.8464784831	 0.072639
H	-2.9655833793	-1.0034860789	-1.2933679547	 0.104654
H	-1.2856667085	-1.1933113992	-1.9680004091	 0.105419
H	-2.3616911525	-2.493659291	 0.6333043436	 0.072764
H	 0.4113649737	-2.7528314887	-0.7237038167	 0.079746
H	 0.9992932165	-4.2435586565	 1.1955833647	 0.108536
H	-0.6316979083	-3.9413011809	 1.9454489789	 0.109376
H	-1.7643776853	-4.866681225	-0.1079510733	 0.109812
H	-0.1429626543	-5.1768956589	-0.8753984458	 0.108198
58.0973	64.8372	121.2875	176.2988	224.8719	240.9866	264.4633	281.1863	329.2594	345.1005	424.241	480.6925	583.1263	737.1305	756.2962	802.7762	821.7151	845.7521	889.3882	913.765	928.0449	934.9807	961.6883	979.0447	994.3641	1016.867	1055.8642	1063.9295	1071.4643	1075.973	1124.6414	1141.281	1145.5625	1187.1928	1198.2155	1203.8495	1222.0285	1225.494	1258.7995	1314.1455	1324.9304	1345.7138	1396.577	1412.2416	1423.85	1452.4848	1470.2915	1487.0156	1490.2072	1493.3965	1502.9846	1508.681	1511.5284	3015.4139	3022.4708	3027.4902	3085.2222	3091.951	3102.0537	3106.4553	3110.2485	3118.1194	3121.2999	3126.7577	3131.7901	3149.1041	3203.128	3204.2787	3220.1422
CC(C)C1CC1C1CC1	CC(C)[C@H]1C[C@H]1C1CC1	
InChI=1S/C9H16/c1-6(2)8-5-9(8)7-3-4-7/h6-9H,3-5H2,1-2H3	InChI=1S/C9H16/c1-6(2)8-5-9(8)7-3-4-7/h6-9H,3-5H2,1-2H3/t8-,9+/m1/s1
