21
gdb 122682	5.39352	0.67134	0.6203	1.7855	76.7	-0.2504	0.0886	0.339	1828.8937	0.181758	-461.350967	-461.341068	-461.340124	-461.387802	33.858	
C	-0.0422466648	 1.425825049	-0.0383809007	-0.227608
O	-0.0056316915	 0.0206898387	 0.0025140493	-0.230932
C	 0.6793962913	-0.5406195409	-1.0962384317	-0.05428
C	 0.6791519039	-2.0545849983	-0.9301152106	-0.232869
C	 1.3156646547	-2.7633746168	-2.1085358032	 0.219955
O	 2.6765766005	-2.3788957613	-2.2548511358	-0.270985
C	 3.4114192171	-3.5225754474	-2.6821648334	-0.086894
C	 2.3558062624	-4.6460951141	-2.7327481839	-0.112933
O	 1.3188440777	-4.1552103305	-1.8996866052	-0.247814
H	 0.9689518362	 1.8632089935	-0.0253109925	 0.103289
H	-0.5615574252	 1.7967713478	-0.9369835126	 0.101079
H	-0.5850649971	 1.7659515317	 0.8470594925	 0.125459
H	 0.1845609198	-0.255394972	-2.0421397255	 0.080536
H	 1.7129683442	-0.1641242544	-1.1461392566	 0.106062
H	 1.2237421958	-2.3321727033	-0.0229491693	 0.117681
H	-0.3518781244	-2.4078222373	-0.8266462577	 0.117339
H	 0.7780751431	-2.5317480722	-3.0497585277	 0.057977
H	 3.872614711	-3.3416778362	-3.6603722557	 0.104278
H	 4.2036321741	-3.728643041	-1.9532504233	 0.11104
H	 1.9920668238	-4.8025820218	-3.7595961066	 0.099408
H	 2.7044444074	-5.5994894233	-2.33079444	 0.120214
35.4757	58.9299	83.3511	102.9623	127.4092	207.7379	234.7704	284.3799	317.2245	459.2912	553.5394	693.2504	724.7521	800.8546	874.8702	892.7021	951.005	965.6969	1019.4298	1052.9216	1077.9186	1086.2255	1135.6851	1151.5145	1163.9225	1178.0302	1187.7508	1223.9527	1227.2564	1237.899	1249.0323	1299.6769	1307.504	1343.2394	1377.3321	1397.1498	1426.3983	1442.8154	1482.1711	1482.7608	1485.3467	1505.5101	1514.6977	1532.1934	1534.2797	2900.3208	2943.0216	2967.3841	2990.7605	2999.8396	3009.1913	3025.2871	3058.8512	3062.9533	3110.7986	3111.2794	3111.8771
COCCC1OCCO1	COCCC1OCCO1	
InChI=1S/C6H12O3/c1-7-3-2-6-8-4-5-9-6/h6H,2-5H2,1H3	InChI=1S/C6H12O3/c1-7-3-2-6-8-4-5-9-6/h6H,2-5H2,1H3
