19
gdb 46545	3.80123	1.17029	1.06931	4.2912	75.27	-0.2609	0.0162	0.2771	1179.5972	0.160591	-423.074495	-423.066711	-423.065767	-423.107016	30.339	
O	-0.4174598368	 0.1714305554	-0.6317486082	-0.335371
C	-0.2720181265	 1.2516030745	-0.1394484728	 0.412828
C	-1.3147112171	 2.1479642044	 0.5213376365	-0.362851
C	-0.6260315335	 3.5136090253	 0.5598634117	-0.287068
C	 0.8638528944	 3.1342512219	 0.602056618	 0.439557
C	 1.8755001336	 4.1952745964	 0.1213365976	-0.285633
C	 2.1827317576	 4.5208139401	 1.6102998375	-0.215261
C	 1.5419053193	 3.1601514977	 1.9994635297	-0.280249
O	 0.9385422978	 1.8755899036	-0.088285165	-0.260363
H	-2.2526353659	 2.1151928911	-0.0339709705	 0.139321
H	-1.5112004521	 1.7521911335	 1.5244325743	 0.140303
H	-0.8369874635	 4.0699649799	-0.3596444062	 0.116506
H	-0.9196774377	 4.1386281539	 1.405707958	 0.11464
H	 2.7221767561	 3.7139495838	-0.373899301	 0.123975
H	 1.4932846756	 4.9943157843	-0.5188703928	 0.10094
H	 3.2288781713	 4.6710141937	 1.8800992273	 0.110278
H	 1.6038134898	 5.3725787428	 1.9758924746	 0.108132
H	 0.8946383544	 3.1219864208	 2.8796352495	 0.098674
H	 2.2877259831	 2.3647034969	 2.0689366721	 0.121642
96.0158	122.4597	141.409	275.9798	351.7087	413.7851	443.4091	519.4313	539.8502	654.8977	700.7725	758.1058	790.125	811.3803	871.0039	913.2109	924.973	931.6933	974.5288	977.3894	1012.1615	1042.4663	1095.9344	1123.2711	1155.1228	1184.82	1203.9005	1214.7131	1241.4521	1250.3354	1274.0537	1298.8041	1303.7819	1313.2756	1341.5972	1465.4732	1469.6127	1485.6812	1498.5275	1507.1564	1884.5498	3050.405	3056.3964	3059.5597	3063.8239	3073.4441	3110.3703	3112.6203	3119.9272	3131.6877	3134.4001
O=C1CCC2(CCC2)O1	O=C1CCC2(CCC2)O1	
InChI=1S/C7H10O2/c8-6-2-5-7(9-6)3-1-4-7/h1-5H2	InChI=1S/C7H10O2/c8-6-2-5-7(9-6)3-1-4-7/h1-5H2
