19
gdb 96404	2.07981	1.71184	1.20167	1.8563	76.89	-0.2512	0.0501	0.3013	1106.5849	0.158966	-422.996522	-422.987899	-422.986955	-423.029492	33.086	
C	-0.0423861612	 1.5215112418	-0.1013262842	-0.412952
C	 0.0486612248	 0.0099605449	-0.0021377457	 0.126704
O	 0.6603597043	-0.4709127472	-1.1931369842	-0.244904
C	 0.7308210706	-1.8707871373	-1.2200317727	 0.022736
O	 1.4919881103	-2.4001102096	-0.1668362567	-0.228902
C	 0.9425207051	-2.0487012318	 1.0883210159	-0.099435
C	 0.8343997508	-0.5124335107	 1.2334697325	-0.204738
C	 2.1471932348	 0.106776382	 1.3779734533	 0.371383
C	 3.2291944257	 0.6107871435	 1.5187731388	-0.487808
H	 0.9563187398	 1.9584438942	-0.1718520566	 0.144909
H	-0.6135298971	 1.8021482408	-0.9900679648	 0.124403
H	-0.542365641	 1.932450401	 0.7810552923	 0.114467
H	-0.9673018592	-0.4182825025	 0.0722272332	 0.065387
H	-0.2920299934	-2.2961299691	-1.1891944466	 0.073357
H	 1.2309189269	-2.1505507655	-2.1488323102	 0.121302
H	-0.0645305942	-2.4855682062	 1.2010838208	 0.088597
H	 1.5962752212	-2.4734479252	 1.8524284924	 0.123639
H	 0.2363388216	-0.2967752601	 2.1294918592	 0.104035
H	 4.1874295601	 1.053247817	 1.6352362532	 0.197819
99.7992	143.2135	178.2967	220.8987	274.7108	303.65	369.076	381.5187	438.1291	471.0161	607.0335	626.1902	636.1756	655.949	721.2802	823.5718	859.5649	907.0707	946.4462	997.2486	1044.243	1063.1282	1065.9285	1103.6536	1153.468	1188.498	1214.248	1256.8874	1275.0814	1307.1877	1337.7766	1374.9641	1382.2068	1404.3844	1414.993	1446.5677	1482.1896	1491.5192	1498.7866	1507.7756	2235.8508	2907.0445	2938.2011	2963.5105	3018.8419	3048.9301	3110.6671	3119.0449	3121.5425	3136.3266	3503.8537
CC1OCOCC1C#C	C[C@H]1OCOC[C@H]1C#C	
InChI=1S/C7H10O2/c1-3-7-4-8-5-9-6(7)2/h1,6-7H,4-5H2,2H3	InChI=1S/C7H10O2/c1-3-7-4-8-5-9-6(7)2/h1,6-7H,4-5H2,2H3/t6-,7-/m1/s1
