16
gdb 35122	2.31933	1.63153	1.44335	4.9641	74.08	-0.2359	-0.0189	0.217	987.0237	0.1268	-396.93414	-396.926105	-396.925161	-396.966902	29.633	
N	 1.0243614511	-0.1569450684	 1.3451698695	-0.344024
C	 0.4501133605	 0.5110147553	 0.5957910724	 0.290712
C	-0.27011575	 1.3883062174	-0.3536979843	-0.176072
C	-1.4077980974	 2.11546936	 0.3552641002	-0.058091
C	-1.2134019279	 3.0466727233	 1.2846755632	-0.047692
C	 0.1630334844	 3.4708025106	 1.7389249444	-0.236125
N	 1.0001000192	 3.909489236	 0.6222675094	-0.281354
C	 1.1755094785	 3.2896540711	-0.5784232808	 0.120577
N	 0.6771796939	 2.2295290584	-1.0936085355	-0.261559
H	-0.7156993974	 0.7176743036	-1.0965016719	 0.132288
H	-2.4148355972	 1.845421704	 0.0524276867	 0.109937
H	-2.0666449627	 3.5339421582	 1.7469234536	 0.108706
H	 0.085006463	 4.3180676204	 2.424022385	 0.119201
H	 0.6483230191	 2.6552386948	 2.2948527934	 0.15547
H	 1.5905560244	 4.7059245306	 0.7916532467	 0.252877
H	 1.8740351584	 3.8420131547	-1.2120346121	 0.115149
69.7816	139.7379	182.5355	206.962	311.627	337.5995	371.1987	441.443	528.9791	579.5698	631.1336	698.4374	767.5048	795.0071	905.085	919.6388	951.5825	961.4773	989.3474	1013.5986	1043.6918	1070.9232	1228.6502	1258.1302	1291.0589	1328.1549	1335.1256	1370.1111	1404.3029	1449.7315	1500.622	1535.652	1724.7774	1730.2568	2343.6112	3000.8155	3044.9686	3095.8077	3100.2029	3163.4238	3186.0727	3650.3575
N#CC1C=CCNC=N1	N#C[C@H]1C=CCNC=N1	
InChI=1S/C6H7N3/c7-4-6-2-1-3-8-5-9-6/h1-2,5-6H,3H2,(H,8,9)	InChI=1S/C6H7N3/c7-4-6-2-1-3-8-5-9-6/h1-2,5-6H,3H2,(H,8,9)/t6-/m1/s1
