18
gdb 19590	2.98033	2.82718	2.04393	2.0014	71.14	-0.1942	0.0828	0.2771	749.8104	0.156131	-343.899697	-343.893184	-343.89224	-343.930128	26.552	
C	-0.0222004432	 1.545646235	-0.0906792559	-0.305926
N	-0.0450389061	 0.0912221935	 0.0464942491	-0.051108
C	-1.1879625122	-0.7069427558	 0.5397433802	-0.035339
C	-0.1639578184	-1.8897659034	 0.5907521729	-0.207772
C	 0.7506018081	-0.6925613995	 1.0156654535	-0.035338
C	 0.1388233927	-0.3968875699	 2.4187425827	-0.046917
N	-0.6488920878	 0.8558561917	 2.4833097956	-0.336799
C	-1.2996265199	-0.4075281735	 2.0656002745	-0.046921
H	 0.7140047793	 2.0043090808	 0.5741708039	 0.121959
H	 0.2297249009	 1.8078385274	-1.1275753152	 0.092587
H	-0.9884561174	 1.9919121125	 0.1574673584	 0.121988
H	-2.0987503547	-0.7299517856	-0.0599922635	 0.067335
H	-0.3385754739	-2.6793849307	 1.3258885013	 0.086678
H	 0.0807284624	-2.2866646081	-0.3939421518	 0.106297
H	 1.8357914603	-0.7007554654	 0.9059212822	 0.067334
H	 0.542020392	-0.8399577851	 3.3223979102	 0.087424
H	-0.8893859024	 1.0301051425	 3.4576242754	 0.227094
H	-2.0692144898	-0.8592553764	 2.6813496765	 0.087425
93.2825	256.2303	279.6347	382.6441	439.1877	506.5194	675.5311	703.7518	712.5278	760.5193	805.3888	847.0501	858.3924	877.1004	910.9936	923.1739	952.7137	1025.0398	1052.7961	1057.3532	1092.7054	1107.8111	1126.3149	1127.549	1137.0552	1206.7206	1220.1856	1227.4321	1231.8848	1252.6073	1273.7939	1322.8852	1324.3365	1382.3929	1449.5979	1476.0552	1485.613	1502.9885	3000.233	3070.0988	3079.6426	3105.2607	3107.9571	3118.1285	3153.4161	3168.844	3179.5252	3482.7336
CN1C2CC1C1NC21	CN1[C@H]2C[C@@H]1[C@H]1N[C@@H]21	
InChI=1S/C6H10N2/c1-8-3-2-4(8)6-5(3)7-6/h3-7H,2H2,1H3	InChI=1S/C6H10N2/c1-8-3-2-4(8)6-5(3)7-6/h3-7H,2H2,1H3/t3-,4+,5-,6+
