21
gdb 103776	3.27265	1.09796	0.99048	2.3429	79.56	-0.2197	0.065	0.2847	1307.4631	0.180156	-424.187266	-424.177526	-424.176582	-424.221927	36.202	
C	 0.0485346944	 1.5014444644	-0.1417553849	-0.391972
C	-0.0244635937	 0.0172120708	 0.2359319449	-0.225112
C	-1.421686815	-0.5588020591	 0.1015387981	 0.313165
O	-2.3770228273	 0.0071768105	 0.9556659048	-0.461187
C	-1.9076780064	-1.0510391734	-1.2617106684	-0.441044
C	-1.6075348692	-2.0233610691	-0.1558504916	 0.436806
C	-0.6040559439	-3.169938877	-0.0790164025	-0.361467
C	-1.7639177303	-3.9156748091	 0.61524414	-0.070825
O	-2.6433330166	-2.7766092433	 0.4679536924	-0.298813
H	 1.0661268304	 1.8877393742	-0.0334326913	 0.115629
H	-0.2640723887	 1.6630453282	-1.1793017783	 0.116555
H	-0.599956215	 2.1008591121	 0.5058313945	 0.114996
H	 0.6648776088	-0.5579232561	-0.3932874791	 0.094461
H	 0.3075230369	-0.1147120427	 1.2735342253	 0.104608
H	-2.6591743274	 0.8449410834	 0.5736706595	 0.283603
H	-2.9617005122	-0.9051047695	-1.4762024728	 0.122038
H	-1.2438656782	-0.9950517396	-2.1199622889	 0.107583
H	-0.2937541501	-3.5823472298	-1.041183414	 0.112838
H	 0.2770057275	-2.9863163018	 0.5388629549	 0.114984
H	-2.1497908798	-4.795459282	 0.0884191726	 0.105446
H	-1.6019524942	-4.1672453412	 1.6694980548	 0.107709
69.9161	95.3208	127.6094	162.0802	226.604	232.5647	269.9073	303.4426	382.6811	411.3245	438.0143	507.3963	674.3079	699.6963	785.3885	796.0645	865.6832	870.579	896.1709	911.9966	964.0368	987.0142	1013.0082	1028.0021	1047.9514	1090.0102	1112.5687	1149.8969	1164.7763	1187.0621	1214.0196	1243.8472	1255.9487	1305.645	1320.3768	1354.1601	1365.2013	1402.3606	1406.7312	1474.9354	1481.7274	1490.5495	1499.5177	1510.3964	1532.311	3024.0214	3026.5233	3032.5868	3062.2617	3069.2291	3072.8996	3101.1951	3107.5383	3114.7832	3125.9402	3210.9654	3802.7436
CCC1(O)CC11CCO1	CC[C@@]1(O)C[C@]21CCO2	
InChI=1S/C7H12O2/c1-2-6(8)5-7(6)3-4-9-7/h8H,2-5H2,1H3	InChI=1S/C7H12O2/c1-2-6(8)5-7(6)3-4-9-7/h8H,2-5H2,1H3/t6-,7+/m1/s1
