14
gdb 33436	2.20403	1.98551	1.176	5.0298	72.51	-0.2702	-0.0076	0.2626	1001.3235	0.099249	-399.442962	-399.435323	-399.434379	-399.475001	29.151	
C	-0.0805322142	-1.2474406727	-0.0984836071	-0.390065
C	-0.0525879911	-0.0474594137	-0.0505975336	 0.191029
C	-0.0178421923	 1.4014242402	 0.008140228	 0.063069
C	-0.9881264776	 2.0086249225	-0.9011394397	 0.236604
N	-1.7679109269	 2.445336868	-1.6328087207	-0.327549
C	 0.1338665325	 2.1403587463	 1.3986401229	 0.025783
C	 1.5778553975	 1.6072910079	 1.5249516431	-0.249617
C	 1.3654091857	 2.1634757487	 0.099909667	 0.025783
O	 0.6528592503	 3.3141381958	 0.6781910693	-0.29515
H	-0.1103906511	-2.308589741	-0.1457331372	 0.207886
H	-0.6438697799	 2.2943574847	 2.1449517006	 0.12646
H	 2.2238319579	 2.2233866346	 2.1484759572	 0.128201
H	 1.7332390734	 0.5364037468	 1.6532351181	 0.131104
H	 2.0664108859	 2.3452331419	-0.7131900479	 0.12646
136.8959	143.6709	183.5715	186.1233	394.9385	458.8608	490.8099	525.1026	532.1343	588.8515	646.0293	646.6491	672.5656	755.0514	813.5512	892.3942	908.5338	922.5026	1017.5487	1047.1537	1052.1218	1134.4086	1168.156	1175.3506	1197.8262	1206.0309	1242.9265	1279.6542	1483.3858	2240.0311	2364.0869	3096.9265	3139.9599	3144.5029	3178.9823	3498.09
C#CC1(C#N)C2CC1O2	C#C[C@@]1(C#N)[C@H]2C[C@@H]1O2	
InChI=1S/C7H5NO/c1-2-7(4-8)5-3-6(7)9-5/h1,5-6H,3H2	InChI=1S/C7H5NO/c1-2-7(4-8)5-3-6(7)9-5/h1,5-6H,3H2/t5-,6+,7-
