17
gdb 9922	3.10148	1.51025	1.43523	5.2817	69.92	-0.2307	0.0379	0.2686	967.3922	0.142385	-360.031565	-360.02253	-360.021586	-360.064797	32.7	
C	-0.1152193192	 1.5643554227	 0.0114787111	-0.454902
C	 0.0014746518	 0.0485410648	 0.0036689868	 0.124876
C	-1.1520359885	-0.6415247234	-0.5117002402	 0.241531
N	-2.0763681824	-1.2027745696	-0.9257916016	-0.353844
C	 1.3501084851	-0.6512573794	-0.2650677948	-0.09616
N	 2.4943960329	 0.198322141	-0.456329684	-0.515698
C	 0.7604573573	-0.6679464717	 1.1260022657	-0.011589
N	 1.3110588589	 0.1185609471	 2.1949172078	-0.519673
H	 0.8317722667	 2.0228551271	 0.2940587401	 0.138819
H	-0.3972567825	 1.935047996	-0.9783727571	 0.128004
H	-0.8791615213	 1.8808268642	 0.7265476662	 0.142427
H	 1.2774747091	-1.5712708418	-0.8458456166	 0.095546
H	 3.3489287359	-0.3269082357	-0.2979803584	 0.240384
H	 2.5340452748	 0.5533999461	-1.4063558012	 0.244813
H	 0.3186783644	-1.6008311519	 1.4580579193	 0.115024
H	 1.698628714	-0.4935306429	 2.9043212107	 0.236502
H	 2.0730369729	 0.6873153975	 1.8350677962	 0.243938
95.8347	132.7266	165.0244	192.3555	211.0668	232.4958	288.7776	297.7992	442.7817	454.3982	564.31	568.8409	619.2671	672.9327	782.6414	829.7412	892.3278	905.8682	963.4393	1016.6149	1088.41	1100.4279	1133.5883	1153.0113	1214.976	1247.225	1289.4286	1303.5681	1389.8836	1412.6934	1462.8974	1490.6107	1499.423	1649.3774	1657.2891	2340.5868	3053.3878	3087.9496	3116.9067	3158.4962	3176.7193	3491.929	3497.9563	3572.3316	3581.3234
CC1(C#N)C(N)C1N	C[C@@]1(C#N)[C@@H](N)[C@H]1N	
InChI=1S/C5H9N3/c1-5(2-6)3(7)4(5)8/h3-4H,7-8H2,1H3	InChI=1S/C5H9N3/c1-5(2-6)3(7)4(5)8/h3-4H,7-8H2,1H3/t3-,4+,5+
