19
gdb 89530	2.31916	1.76635	1.3193	3.3068	70.22	-0.238	0.0607	0.2987	1022.161	0.159285	-460.145924	-460.137581	-460.136637	-460.178687	32.633	
O	-0.4298730364	 1.4531425717	 0.5122526384	-0.417615
C	-0.0705855622	 0.1567926702	 0.0939099712	 0.089794
C	 0.4803246824	-0.8123651633	 1.1836550871	-0.340713
C	-0.7731679329	-1.7280694143	 1.0050589837	 0.386272
O	-0.5222024226	-3.0340401598	 0.5381307894	-0.488134
C	-1.8384722426	-1.6379969107	 2.1119355444	-0.30202
C	-2.5951812844	-0.3450619572	 1.7673534751	-0.087265
O	-2.556506298	-0.254249224	 0.3418032225	-0.245234
C	-1.3234091834	-0.7675359464	-0.0915603704	 0.069018
H	 0.3803821632	 1.941758224	 0.6891813473	 0.284918
H	 0.5581910571	 0.1884877291	-0.8059770322	 0.070286
H	 1.4131951205	-1.3133851983	 0.9143191767	 0.100854
H	 0.5812616104	-0.3525792841	 2.1712827308	 0.091699
H	-0.1490533253	-3.5460237742	 1.2637011205	 0.276746
H	-2.4989641015	-2.5046872598	 2.0116739898	 0.11222
H	-1.4188389675	-1.626605811	 3.1225331508	 0.094136
H	-3.6450389121	-0.3627621825	 2.0704006655	 0.108442
H	-2.1122198317	 0.5336400985	 2.2135493002	 0.108804
H	-1.4427096026	-1.1825507477	-1.0939409008	 0.087792
62.693	199.3865	247.833	267.5172	273.8732	284.4019	352.3668	382.4957	441.2014	544.8914	573.107	648.7817	689.8528	792.7563	838.8824	857.7644	902.4008	927.7705	947.788	977.6148	988.3471	1037.7286	1076.9314	1129.7253	1156.8529	1169.514	1183.2032	1217.3729	1220.8031	1230.6692	1247.631	1262.233	1303.9975	1324.1944	1339.4957	1380.052	1394.8225	1418.9797	1458.0478	1482.6305	1517.6376	3003.2747	3025.8885	3049.0097	3051.165	3093.581	3100.0489	3106.7594	3115.5039	3803.1954	3815.356
OC1CC2(O)CCOC12	O[C@H]1C[C@@]2(O)CCO[C@@H]12	
InChI=1S/C6H10O3/c7-4-3-6(8)1-2-9-5(4)6/h4-5,7-8H,1-3H2	InChI=1S/C6H10O3/c7-4-3-6(8)1-2-9-5(4)6/h4-5,7-8H,1-3H2/t4-,5-,6-/m0/s1
