17
gdb 104964	2.12499	1.6237	1.03957	1.9111	76.4	-0.2653	-0.0661	0.1992	1147.6098	0.133316	-421.786764	-421.777414	-421.77647	-421.821212	34.265	
O	 0.1454866044	 1.229863572	-0.8587208196	-0.419206
C	-0.0370764145	 0.1533049944	 0.0445900601	-0.182518
C	-1.4281540386	-0.4556516696	-0.0021580987	 0.208293
C	-1.7791061723	-1.3562762289	-1.1840334244	-0.26905
C	-1.5688931187	-1.9682621801	 0.1555121958	-0.28881
C	-2.5767914942	 0.3339281177	 0.5353308017	 0.2012
O	-3.715249123	-0.0901265649	 0.5853441725	-0.31276
C	-2.2834289642	 1.6840266864	 1.0092854411	 0.219538
C	-2.0610049366	 2.8022864414	 1.3991969629	-0.401163
H	-0.3530723295	 1.9796540414	-0.5160502285	 0.284831
H	 0.6885145143	-0.6117643401	-0.2491919251	 0.105798
H	 0.206049655	 0.4520603559	 1.0749750274	 0.099527
H	-2.7969075219	-1.2877670222	-1.5494237026	 0.14056
H	-1.0123104474	-1.4607527443	-1.9431579961	 0.1307
H	-0.6553871826	-2.520826009	 0.3463720214	 0.121009
H	-2.4448871768	-2.3059792136	 0.6965553065	 0.141993
H	-1.8916739534	 3.7899972035	 1.7554732656	 0.220056
43.5042	111.4102	143.8732	198.5095	232.9754	278.7104	297.3606	315.4226	387.0627	437.1786	496.3061	583.6298	653.5812	702.4624	704.4926	758.2576	792.9424	838.973	905.1465	931.4342	973.9898	1020.7375	1057.3851	1070.9934	1097.112	1109.2148	1198.7054	1202.9937	1308.8526	1350.571	1395.1684	1426.696	1455.2727	1482.023	1494.5442	1740.7999	2202.2652	2996.449	3075.8464	3139.377	3143.906	3229.2595	3243.0757	3488.3152	3802.1733
OCC1(CC1)C(=O)C#C	OCC1(CC1)C(=O)C#C	
InChI=1S/C7H8O2/c1-2-6(9)7(5-8)3-4-7/h1,8H,3-5H2	InChI=1S/C7H8O2/c1-2-6(9)7(5-8)3-4-7/h1,8H,3-5H2
