23
gdb 120618	4.38458	0.65643	0.62646	1.901	83.23	-0.2597	0.0744	0.3341	1838.1272	0.203359	-425.404832	-425.393715	-425.392771	-425.441402	39.982	
C	-0.0334084268	 1.6110410657	-0.0628813907	-0.466444
C	-0.0739278303	 0.0995405581	 0.0629433458	 0.34164
C	-1.3154352632	-0.5248142656	-0.5353344715	-0.139048
O	-1.3365537428	-0.251247653	-1.9321610806	-0.421572
C	 1.2097798919	-0.6894753675	-0.0590774123	-0.317802
C	 0.5011439953	-0.6049792765	 1.2754568023	-0.055364
C	 1.107786971	 0.1266476855	 2.4539654806	-0.210284
C	 2.0821393045	-0.7493536075	 3.234989737	-0.062054
O	 2.5808935143	 0.0159302533	 4.3223716482	-0.42268
H	 0.9177811146	 2.0289198371	 0.2744341484	 0.113153
H	-0.1757157512	 1.8954818356	-1.1090734424	 0.135101
H	-0.8327213208	 2.0805916568	 0.5237763479	 0.108055
H	-1.3116659813	-1.6106045992	-0.3488305384	 0.077618
H	-2.210338228	-0.1090474255	-0.0429480724	 0.082578
H	-2.1958421389	-0.5126963605	-2.2752682396	 0.285478
H	 1.1946568624	-1.6263488787	-0.6058636677	 0.108753
H	 2.130343445	-0.1251903129	-0.1736792972	 0.106208
H	-0.0359567988	-1.5072253717	 1.5655042453	 0.073388
H	 1.6442195928	 1.0234319175	 2.1282827716	 0.105903
H	 0.3224920589	 0.4653430621	 3.1414503481	 0.104127
H	 1.5647232237	-1.6561224872	 3.5903369681	 0.080401
H	 2.8953873511	-1.0799153566	 2.5695148617	 0.088627
H	 3.2063254464	-0.5273109094	 4.8103060579	 0.28422
63.1018	86.172	89.4463	127.5249	186.2769	199.3697	236.5005	259.3744	267.855	310.9388	319.5188	370.7689	400.6092	486.0078	591.6967	706.4906	796.0798	854.4846	884.6456	925.5554	944.4911	974.5201	1010.9858	1017.5376	1051.4349	1064.6169	1076.6256	1101.7014	1116.1266	1141.1265	1184.1445	1229.7003	1236.2091	1244.2919	1248.3803	1290.1097	1314.9263	1332.0704	1360.2787	1413.7862	1430.6501	1460.1609	1461.4563	1483.3926	1492.3857	1497.8242	1512.6451	1517.7677	1527.4527	2956.5914	2960.2427	2988.5076	2989.8879	3028.7549	3034.079	3080.1189	3098.6179	3109.217	3123.6641	3126.4267	3208.0755	3830.2566	3830.5062
CC1(CO)CC1CCO	C[C@@]1(CO)C[C@H]1CCO	
InChI=1S/C7H14O2/c1-7(5-9)4-6(7)2-3-8/h6,8-9H,2-5H2,1H3	InChI=1S/C7H14O2/c1-7(5-9)4-6(7)2-3-8/h6,8-9H,2-5H2,1H3/t6-,7+/m1/s1
