19
gdb 67470	2.57772	1.70837	1.58596	1.7344	73.93	-0.2134	0.0711	0.2845	971.3857	0.16067	-422.985879	-422.978395	-422.977451	-423.017427	29.929	
C	-0.0636388872	 1.5563591894	 0.0121858759	-0.510845
C	-0.0081629231	 0.0584235369	-0.0195345177	 0.210435
C	 0.5484971687	-0.974423922	-1.0004119676	-0.006263
O	 1.23235591	-1.7077272486	 0.0158618262	-0.307024
C	 0.660494816	-0.8368306938	 1.0407712707	 0.04897
C	-0.3313915395	-1.6006322198	 1.9113105551	-0.245297
C	-1.1997862582	-2.4909809442	 1.0116487195	-0.057796
O	-1.7602512654	-1.8023103174	-0.1053301336	-0.272335
C	-0.9385689462	-0.8717882544	-0.7445968605	 0.055126
H	 0.9261590842	 1.9913121588	 0.1937889947	 0.121688
H	-0.4357964386	 1.9565252881	-0.9363903236	 0.123772
H	-0.7352910465	 1.9128413529	 0.8028960661	 0.124645
H	 1.0306757946	-0.8966691962	-1.9698313313	 0.10067
H	 1.4579941531	-0.3478861083	 1.6090468702	 0.078892
H	 0.1845421547	-2.2353116747	 2.6401520797	 0.107296
H	-0.9426134861	-0.881300964	 2.4698788207	 0.107203
H	-0.5945984518	-3.3334508353	 0.6576283412	 0.1157
H	-2.0537009075	-2.8890539322	 1.5673227737	 0.102237
H	-1.4882835412	-0.4143041554	-1.5635271392	 0.102927
163.9899	186.6409	214.8659	270.2723	290.5791	359.1367	460.2405	494.6472	622.2111	652.8854	688.038	770.4729	799.4015	854.8052	886.6888	911.431	932.3705	964.0542	998.5415	1023.3395	1036.9464	1055.2628	1088.1141	1093.7187	1125.7554	1176.1173	1203.4293	1237.2555	1262.0801	1279.3569	1295.3937	1332.1498	1349.9443	1370.5947	1418.1296	1418.9685	1469.7642	1477.4938	1487.7939	1498.337	1506.869	3018.9504	3032.4917	3035.4843	3056.5369	3076.7835	3078.6723	3090.9881	3097.2078	3147.5647	3163.2244
CC12C3OC1CCOC23	C[C@@]12[C@H]3O[C@@H]1CCO[C@@H]23	
InChI=1S/C7H10O2/c1-7-4-2-3-8-5(7)6(7)9-4/h4-6H,2-3H2,1H3	InChI=1S/C7H10O2/c1-7-4-2-3-8-5(7)6(7)9-4/h4-6H,2-3H2,1H3/t4-,5-,6+,7-/m1/s1
