23
gdb 60211	3.61275	0.96637	0.85222	1.0137	86.51	-0.2404	0.082	0.3224	1466.7725	0.204573	-388.262035	-388.252472	-388.251527	-388.296987	36.329	
C	-0.0266494932	 1.5486021562	 0.0556691814	-0.388436
C	-0.0036091845	 0.0254659582	-0.0157902644	 0.150336
C	 0.6039651398	-0.5999835127	 1.2438934841	-0.387942
O	-1.3497011283	-0.3857245419	-0.2321458828	-0.269305
C	-1.5353204703	-1.7065474808	-0.673759928	 0.144563
C	-1.7943057766	-2.8532035587	 0.3759693125	-0.265584
C	-3.1357121587	-3.1273638605	-0.310045139	-0.050211
C	-3.9846926308	-1.8922528919	-0.2500801708	-0.268372
C	-2.9017811995	-1.9715797483	-1.2918504484	-0.075293
H	 0.9858343528	 1.9466724211	 0.1719905607	 0.109437
H	-0.4661172366	 1.9661865549	-0.8538329052	 0.120319
H	-0.6281585484	 1.8790189159	 0.9086070687	 0.121237
H	 0.6005333758	-0.282867526	-0.8868781049	 0.062036
H	 0.6467434163	-1.6902183384	 1.1726164854	 0.118946
H	 1.6248188385	-0.2342410802	 1.3961677717	 0.110332
H	 0.007975981	-0.3360338889	 2.1236944209	 0.119369
H	-0.723273754	-1.9920168073	-1.3577284626	 0.065244
H	-1.0698429853	-3.6675012055	 0.297016964	 0.096546
H	-1.858134268	-2.5296907088	 1.4191553368	 0.098299
H	-3.5489944559	-4.1063077483	-0.516644029	 0.084454
H	-4.9931147183	-1.9937140756	-0.6380785174	 0.107787
H	-3.8909937926	-1.2009425241	 0.582868931	 0.115989
H	-3.1263354033	-1.9083571583	-2.3498396149	 0.080248
42.146	83.8622	110.3955	207.0169	234.9537	267.8164	297.8873	322.1057	401.9066	455.7672	480.0979	545.9276	687.0319	784.6721	802.5242	830.062	850.2602	918.8637	925.4285	941.4665	956.6246	960.5222	977.1661	1019.806	1032.4258	1060.7928	1082.6926	1088.1062	1127.2629	1148.1074	1159.689	1172.549	1198.4882	1218.5324	1233.4414	1265.4794	1313.8472	1353.5776	1366.2639	1368.7657	1397.7895	1410.3901	1421.2176	1476.1287	1479.6369	1485.8126	1494.3856	1495.5807	1509.8036	2948.1871	2995.0401	3034.9799	3041.9136	3051.5019	3104.5953	3106.9803	3113.669	3115.8585	3118.3105	3122.6781	3178.3313	3192.1695	3207.85
CC(C)OC1CC2CC12	CC(C)O[C@H]1C[C@H]2C[C@@H]12	
InChI=1S/C8H14O/c1-5(2)9-8-4-6-3-7(6)8/h5-8H,3-4H2,1-2H3	InChI=1S/C8H14O/c1-5(2)9-8-4-6-3-7(6)8/h5-8H,3-4H2,1-2H3/t6-,7-,8+/m1/s1
