17
gdb 16632	3.23797	2.24107	1.4917	3.5675	68.74	-0.2274	0.0317	0.2591	859.5647	0.143697	-363.896429	-363.88917	-363.888226	-363.927873	27.474	
C	-0.0693779461	 1.4085777607	-0.0546458488	-0.347542
N	-0.0271946683	-0.0298931961	 0.0792002861	-0.058528
C	-1.2022756031	-0.8499979027	 0.0470379962	-0.000132
C	-1.4481871422	-1.633874482	-1.2210378122	-0.302636
C	-0.7303874871	-2.2785198175	-0.0518622719	-0.053472
C	 0.786030171	-2.2379818101	-0.0131490951	-0.352742
C	 1.1468763763	-0.7428882454	-0.0090213929	 0.389916
O	 2.2578982201	-0.2633811193	-0.0927376317	-0.387269
H	 0.9616375373	 1.7666790619	-0.0570169737	 0.164534
H	-0.5588022702	 1.7087567527	-0.9898688867	 0.123684
H	-0.610448381	 1.8667564791	 0.7813550642	 0.122674
H	-2.0225430978	-0.5394538121	 0.6856842252	 0.099399
H	-2.459228431	-1.9721700516	-1.4220229157	 0.11739
H	-0.8754138472	-1.3587535951	-2.1015948182	 0.120307
H	-1.2485355549	-3.05754189	 0.4929796435	 0.098428
H	 1.1869691419	-2.7034966312	 0.8930812508	 0.131571
H	 1.2730861125	-2.7205239214	-0.8653589889	 0.134418
125.1143	139.502	161.9223	291.3448	321.6828	450.1129	467.2429	579.7787	626.0945	671.2807	748.1972	810.4873	821.5623	901.0211	943.4444	987.7202	1021.4517	1061.0633	1064.1118	1091.3277	1116.8332	1132.3258	1159.9361	1191.3255	1206.0593	1265.0822	1296.319	1345.6119	1372.4783	1417.8939	1450.6657	1466.5876	1480.417	1493.7047	1518.6773	1807.0047	3015.5423	3058.6393	3067.2509	3098.6398	3123.7906	3142.3194	3160.6428	3187.6888	3215.7541
CN1C2CC2CC1=O	CN1[C@H]2C[C@H]2CC1=O	
InChI=1S/C6H9NO/c1-7-5-2-4(5)3-6(7)8/h4-5H,2-3H2,1H3	InChI=1S/C6H9NO/c1-7-5-2-4(5)3-6(7)8/h4-5H,2-3H2,1H3/t4-,5-/m0/s1
