18
gdb 66362	2.35695	1.45903	1.36283	5.0141	71.48	-0.2779	0.0366	0.3145	1061.1869	0.148568	-439.10036	-439.092025	-439.091081	-439.133041	31.43	
C	-0.0213044116	 1.5296340249	 0.0106958129	-0.432927
C	-0.0219129261	-0.0092769193	 0.0025438903	 0.035477
C	 0.7181326517	-0.5554796497	-1.24537547	-0.097969
O	 0.8681830898	-1.9576057369	-1.1796793052	-0.229108
C	 1.5514679086	-2.3483662868	-0.0170467409	 0.01632
O	 0.8788594443	-1.9699849243	 1.1558585152	-0.229108
C	 0.7294856827	-0.5686392633	 1.2377836697	-0.09797
C	-1.4067106797	-0.500448036	 0.0062722538	 0.290735
N	-2.5096105006	-0.8451113203	 0.0094877556	-0.338672
H	 1.0065483724	 1.905072296	 0.0079815008	 0.127049
H	-0.5362935435	 1.9242343944	-0.8691957718	 0.143511
H	-0.5281993368	 1.914862654	 0.8993966541	 0.14351
H	 0.1662509929	-0.3336640764	-2.1614270609	 0.133027
H	 1.7030137967	-0.0610756322	-1.2983008923	 0.095826
H	 1.5977396102	-3.4378437909	-0.0230334538	 0.131329
H	 2.5705273877	-1.9147159927	-0.0194076268	 0.080116
H	 1.7148347805	-0.0747792956	 1.2869386658	 0.095826
H	 0.1860157008	-0.3565741748	 2.1611441536	 0.133028
114.6827	148.5728	210.8842	215.6088	280.2438	286.6802	343.4621	426.5862	442.8807	459.6944	591.4122	612.06	654.0086	748.1126	904.5175	904.9144	957.4908	964.231	1021.1829	1036.6942	1068.9787	1113.7646	1151.3961	1199.0016	1213.9519	1247.1605	1258.0367	1336.8986	1340.9446	1374.578	1397.7693	1422.9626	1442.0917	1485.8506	1490.4309	1492.8784	1499.6727	1509.7688	2357.3196	2917.4885	2962.5151	2972.318	3044.1194	3106.3769	3107.3325	3119.3597	3125.0083	3131.8608
CC1(COCOC1)C#N	CC1(COCOC1)C#N	
InChI=1S/C6H9NO2/c1-6(2-7)3-8-5-9-4-6/h3-5H2,1H3	InChI=1S/C6H9NO2/c1-6(2-7)3-8-5-9-4-6/h3-5H2,1H3
