19
gdb 99118	3.52498	0.97626	0.89357	2.4134	72.55	-0.2523	0.0147	0.267	1374.1141	0.156703	-460.177775	-460.167814	-460.166869	-460.214007	35.361	
C	 1.4233578335	 1.7436282443	-0.681751678	-0.239075
O	 1.0752384959	 0.3541675284	-0.6315412208	-0.226621
C	 0.4423204688	-0.1173267755	-1.7244893827	 0.454634
O	 0.1478013161	 0.562608248	-2.6746564015	-0.3649
C	 0.1814478752	-1.6072901134	-1.60895096	-0.383641
C	 1.1734419	-2.3884122316	-2.4579676405	 0.427646
O	 2.514641569	-2.1852749458	-2.0988681933	-0.465628
C	 0.7850700066	-3.7373616108	-3.0116955027	-0.337953
C	 0.9489828804	-2.5367243148	-3.9275931056	-0.280944
H	 2.1002921943	 1.9390251818	-1.5171189416	 0.144234
H	 0.5297247513	 2.3610799257	-0.8026445795	 0.139757
H	 1.9138179954	 1.9620676069	 0.2669651572	 0.130033
H	 0.2522441681	-1.9188721473	-0.5616485517	 0.10943
H	-0.8353459686	-1.7993448041	-1.9607153098	 0.127717
H	 2.6427474445	-2.5343135209	-1.2093322892	 0.28155
H	 1.5647385636	-4.490131095	-3.0405937104	 0.116813
H	-0.212946169	-4.1182388135	-2.8220962085	 0.110996
H	 0.0671808467	-2.0799268285	-4.3604326061	 0.129234
H	 1.8337950882	-2.5066548137	-4.5521291553	 0.126719
29.4015	54.6113	105.1264	126.2969	202.1505	258.5144	287.2967	315.6665	339.8038	411.5729	433.2115	473.0362	629.1276	706.5416	770.8211	802.8465	870.1365	914.6393	925.9398	937.9835	988.0369	994.2021	1048.1526	1053.9285	1076.255	1149.2722	1179.0559	1185.5082	1209.8424	1242.3429	1275.3078	1301.5103	1349.7462	1404.2742	1454.7342	1465.3998	1474.7298	1481.6874	1496.4797	1504.9244	1822.8604	3051.1909	3052.4064	3111.1428	3127.6392	3132.0855	3149.4204	3157.8147	3220.384	3241.2674	3788.3722
COC(=O)CC1(O)CC1	COC(=O)CC1(O)CC1	
InChI=1S/C6H10O3/c1-9-5(7)4-6(8)2-3-6/h8H,2-4H2,1H3	InChI=1S/C6H10O3/c1-9-5(7)4-6(8)2-3-6/h8H,2-4H2,1H3
