17
gdb 55325	2.48936	1.34385	0.96726	6.284	74.69	-0.2571	0.009	0.2661	1220.7943	0.135175	-418.037002	-418.027708	-418.026764	-418.072286	31.891	
C	-0.0567065366	 1.485354846	 0.1197692418	-0.491777
C	 0.013346284	-0.0293248445	 0.1698132932	 0.370676
O	 0.9693263168	-0.6568604542	 0.581637865	-0.350623
N	-1.0987288219	-0.678507541	-0.3018379675	-0.06493
C	-2.5069371022	-0.2851214674	-0.4577282952	-0.175903
C	-2.8929127403	-1.7879673381	-0.3725356217	-0.26356
C	-1.3800681021	-2.1024472375	-0.1116502335	-0.118945
C	-0.7389166211	-3.0041415244	-1.0708872342	 0.304283
N	-0.2749863172	-3.731808149	-1.8389861344	-0.320361
H	 0.9306939938	 1.8860202868	 0.3465840561	 0.156846
H	-0.3836803068	 1.8389192833	-0.8626248272	 0.141397
H	-0.770370402	 1.8610868116	 0.8616656889	 0.140876
H	-2.8886613587	 0.3324253695	 0.3628115975	 0.1227
H	-2.7318432884	 0.2085557469	-1.4081777958	 0.129703
H	-3.5514922826	-2.0574653761	 0.451872904	 0.134188
H	-3.2741174428	-2.2108173923	-1.3006279847	 0.144623
H	-1.1491639919	-2.4485767695	 0.9018142976	 0.140808
64.2076	73.6642	88.0324	124.2423	145.3577	216.6369	264.0776	367.4472	495.3343	545.0602	577.5684	608.3824	661.183	765.1688	825.5591	905.8454	948.9976	968.3859	1027.6678	1052.7332	1081.4579	1121.5848	1149.4649	1183.7805	1219.5258	1243.4854	1272.0844	1321.0914	1367.3971	1375.7979	1412.2836	1469.2303	1480.5079	1487.6995	1524.3512	1778.7657	2361.484	3034.9267	3042.8077	3053.9289	3080.1316	3106.362	3107.9654	3164.4352	3169.0075
CC(=O)N1CCC1C#N	CC(=O)N1CC[C@H]1C#N	
InChI=1S/C6H8N2O/c1-5(9)8-3-2-6(8)4-7/h6H,2-3H2,1H3	InChI=1S/C6H8N2O/c1-5(9)8-3-2-6(8)4-7/h6H,2-3H2,1H3/t6-/m0/s1
