17
gdb 63286	2.17306	1.66626	1.2624	4.4773	69.61	-0.2431	-0.0391	0.204	1055.471	0.132333	-458.939145	-458.930213	-458.929269	-458.972702	33.365	
C	 0.0920759995	 1.5697799779	-0.0925100368	-0.465988
C	-0.0104128943	 0.0567755004	 0.013366788	 0.275898
O	-1.3558136657	-0.3856941141	-0.0066572749	-0.467255
C	 0.9055973901	-0.7997729873	-0.9331974312	-0.412236
C	 1.343504385	-1.6335262073	 0.2927124448	 0.340815
O	 1.9512763923	-2.6507679633	 0.4459792431	-0.299175
C	 0.6711290826	-0.6348522045	 1.2202117868	 0.351429
C	 1.2577179413	-0.0384752231	 2.4344257042	-0.250927
O	 0.1052527555	-0.8728993792	 2.483611129	-0.251989
H	 1.13117111	 1.9074255331	-0.0332166562	 0.120311
H	-0.315642746	 1.9175503088	-1.0493378259	 0.115857
H	-0.4800182839	 2.0452698499	 0.7100102109	 0.137008
H	-1.7572696697	-0.0783521938	-0.8269771528	 0.281219
H	 0.3699575078	-1.3644015012	-1.6994824512	 0.133803
H	 1.7374563024	-0.2564420921	-1.3918671892	 0.128716
H	 2.1693031844	-0.4690211864	 2.8455461188	 0.136461
H	 1.0854005288	 1.0162206421	 2.6424625825	 0.126053
53.909	161.7927	211.7285	217.1607	252.266	284.3776	291.5356	351.539	370.1135	457.1829	528.7132	579.3966	609.3798	643.956	790.4206	842.9165	848.9165	923.8832	960.3811	961.0412	1016.3048	1069.6241	1101.5059	1119.6934	1130.3112	1166.5951	1173.1894	1217.9515	1247.1272	1360.3266	1405.5252	1407.7892	1435.1966	1486.7651	1496.5256	1520.5436	1897.9467	3027.6038	3061.6859	3086.3113	3093.5903	3115.1157	3126.5495	3181.9635	3801.3042
CC1(O)CC(=O)C11CO1	C[C@@]1(O)CC(=O)[C@]21CO2	
InChI=1S/C6H8O3/c1-5(8)2-4(7)6(5)3-9-6/h8H,2-3H2,1H3	InChI=1S/C6H8O3/c1-5(8)2-4(7)6(5)3-9-6/h8H,2-3H2,1H3/t5-,6+/m1/s1
