19
gdb 104483	2.15088	1.89071	1.22241	1.7667	76.07	-0.2424	-0.0336	0.2089	1065.6941	0.158062	-422.965378	-422.956853	-422.955909	-422.998728	31.923	
C	-1.2581317065	-0.0173244548	 0.190277277	-0.261793
O	 0.1559163373	 0.0351364193	 0.0973307397	-0.303804
C	 0.6855722402	-0.6483842448	-1.0163207078	 0.384396
C	 0.3889827631	 0.1943200808	-2.2463994091	 0.08009
O	 0.0692667476	-0.2088410735	-3.3359486148	-0.251827
C	 2.150537195	-1.1592669018	-0.7991901052	-0.113602
C	 1.547089854	-2.2218384633	 0.1694409976	-0.234957
C	 0.6027944998	-2.2101002109	-1.0744117614	-0.110894
C	 1.893802291	-2.178014543	-1.9462972978	-0.239915
H	-1.7500065393	 0.3855720884	-0.7069309912	 0.119579
H	-1.6145348537	-1.0444916327	 0.3473287826	 0.117915
H	-1.5419372753	 0.5936144618	 1.0498309681	 0.133444
H	 0.4717956465	 1.2844275035	-2.030941553	 0.087635
H	 3.02741785	-0.5307842763	-0.6407142357	 0.081732
H	 2.1421989349	-3.1286799947	 0.2999199137	 0.094389
H	 1.1427274701	-1.8558187245	 1.1109998632	 0.113163
H	-0.2901642093	-2.810958784	-1.2454791149	 0.080885
H	 1.8059727964	-1.8038546568	-2.9638354408	 0.126311
H	 2.5036149785	-3.0823354326	-1.8990212999	 0.097251
78.1868	109.89	166.9968	174.6024	239.2157	276.6688	379.5009	437.3085	473.5078	553.8184	627.0605	696.5074	798.0073	804.7225	890.1687	899.8374	906.4826	984.2328	1018.2115	1024.3125	1046.953	1078.942	1092.5262	1093.8274	1109.8036	1163.0295	1185.5864	1191.0358	1198.1339	1200.6001	1229.869	1242.9403	1248.4559	1263.0496	1409.4762	1481.2616	1488.9997	1498.7775	1508.0489	1536.6665	1823.0084	2873.8598	2991.8533	3046.0697	3073.4626	3081.8867	3111.5281	3117.8827	3123.6774	3161.3287	3169.2122
COC1(C=O)C2CC1C2	CO[C@@]1(C=O)[C@H]2C[C@@H]1C2	
InChI=1S/C7H10O2/c1-9-7(4-8)5-2-6(7)3-5/h4-6H,2-3H2,1H3	InChI=1S/C7H10O2/c1-9-7(4-8)5-2-6(7)3-5/h4-6H,2-3H2,1H3/t5-,6+,7-
