20
gdb 83970	2.34479	1.75573	1.27813	3.5373	78.38	-0.2362	0.0154	0.2516	1064.8551	0.173385	-403.185863	-403.177756	-403.176812	-403.218574	31.14	
C	-0.328557226	 1.5823240048	 0.0420645757	-0.404171
C	-0.0457775811	 0.08567757	 0.023335214	-0.153726
C	 0.6881862582	-0.5656160881	-1.1960330561	 0.007246
C	 1.4790561865	 0.2897530205	-2.2157063512	-0.232908
C	 2.9205844333	 0.3747629653	-1.6504551986	-0.217383
C	 3.0688945735	-0.8839631804	-0.761443965	-0.189546
N	 1.7155736866	-1.0914801399	-0.2521846801	-0.098258
C	 1.1994184125	-0.3575483182	 0.8237734387	 0.390758
O	 1.6578131358	-0.1138656103	 1.9066726336	-0.354525
H	 0.5592183139	 2.1699084444	-0.2115142099	 0.123077
H	-1.1238835012	 1.8442593421	-0.663038722	 0.11959
H	-0.6461202325	 1.8870687619	 1.0433093084	 0.13968
H	-0.9461110972	-0.4706817824	 0.3019499951	 0.100436
H	 0.1150175556	-1.3534950516	-1.6911181056	 0.081658
H	 1.4795130306	-0.2180838342	-3.1849576746	 0.107583
H	 1.0381180431	 1.2767804408	-2.3743600411	 0.111476
H	 3.6756709168	 0.4316975784	-2.4385653606	 0.104186
H	 3.0313986416	 1.2660194872	-1.0235973006	 0.118238
H	 3.3910578102	-1.7559829518	-1.3411808099	 0.109647
H	 3.7586565097	-0.7490919185	 0.0742717799	 0.136941
91.3667	128.965	187.8366	217.9556	254.1838	273.7904	428.952	527.7638	578.9954	617.6045	654.425	738.2969	782.8374	807.5337	860.4779	879.3555	902.0155	933.2844	969.9365	1009.7749	1043.9847	1068.966	1078.9401	1122.8467	1157.5334	1190.206	1194.5153	1222.7415	1237.9783	1278.2592	1304.3263	1320.174	1325.6059	1344.1465	1359.6026	1369.4676	1410.2822	1486.2615	1490.9399	1494.4552	1499.9602	1511.6557	1873.8624	3038.6931	3043.1669	3049.9529	3053.4632	3060.3805	3074.4917	3099.4495	3107.1443	3110.7467	3115.6776	3121.7713
CC1C2CCCN2C1=O	C[C@H]1[C@H]2CCCN2C1=O	
InChI=1S/C7H11NO/c1-5-6-3-2-4-8(6)7(5)9/h5-6H,2-4H2,1H3	InChI=1S/C7H11NO/c1-5-6-3-2-4-8(6)7(5)9/h5-6H,2-4H2,1H3/t5-,6+/m0/s1
