18
gdb 113986	3.28213	0.94177	0.86143	4.0564	73.22	-0.2485	0.0085	0.257	1389.1324	0.145336	-439.045139	-439.035569	-439.034625	-439.080711	33.494	
C	-0.3864239622	 1.1702574643	-0.5275251526	-0.234516
O	 0.1032085051	 0.0192790108	 0.1401822838	-0.227951
C	 0.8081324911	-0.8318350756	-0.6943884509	 0.091187
C	 0.7982163294	-2.2845288892	-0.3164842908	-0.348282
C	 0.0590835907	-1.8196668606	-1.5551067467	 0.065237
O	-1.3379087154	-1.7268617102	-1.5329549536	-0.225797
C	-2.0051238355	-2.9086376469	-1.9021945734	-0.191313
C	-1.9309579626	-3.9814557857	-0.8900793565	 0.263305
N	-1.8891864145	-4.8271849225	-0.1042978089	-0.307323
H	 0.432886329	 1.7590522033	-0.9673080252	 0.103424
H	-1.0964541623	 0.9016592862	-1.3190724829	 0.12358
H	-0.8938072251	 1.7794437383	 0.2237223754	 0.129563
H	 1.7190561516	-0.4062008146	-1.120421665	 0.08776
H	 1.6991624521	-2.8765956943	-0.4277420298	 0.121532
H	 0.1799361	-2.5308580456	 0.5385776541	 0.154496
H	 0.4681149383	-2.0725576094	-2.5340528799	 0.091875
H	-3.0566620912	-2.6428323086	-2.0461182934	 0.162187
H	-1.6251824584	-3.3090215796	-2.8542198136	 0.141035
34.2883	87.4473	105.4479	156.6293	212.3281	226.632	236.483	337.0318	371.7233	397.288	480.9207	581.2596	683.2941	758.7752	810.8572	845.4803	905.1961	993.6414	1032.9442	1046.1685	1065.7229	1090.4615	1104.6332	1128.6317	1157.6201	1171.2736	1186.9596	1230.2505	1267.7794	1302.5349	1364.7483	1393.833	1412.9464	1465.314	1473.0845	1487.2184	1492.8398	1507.6621	2358.9583	2989.3681	3000.9235	3060.105	3076.4535	3091.0859	3095.0961	3124.6159	3147.6878	3243.5113
COC1CC1OCC#N	CO[C@H]1C[C@H]1OCC#N	
InChI=1S/C6H9NO2/c1-8-5-4-6(5)9-3-2-7/h5-6H,3-4H2,1H3	InChI=1S/C6H9NO2/c1-8-5-4-6(5)9-3-2-7/h5-6H,3-4H2,1H3/t5-,6+/m0/s1
