15
gdb 123815	5.64865	0.99938	0.90284	0.5968	67.07	-0.253	-0.0262	0.2268	1249.9916	0.114098	-450.082479	-450.075059	-450.074115	-450.115565	26.98	
C	-0.3614720585	 1.1327696769	-0.0601069157	-0.278228
C	 1.1242670819	 1.017189902	 0.226605008	-0.297484
C	 0.3117990679	-0.2049717018	-0.0337310297	 0.151532
O	 0.1093229541	-1.0360473523	 1.0965182183	-0.255222
C	-0.9146017541	-1.8807765991	 1.0224637372	 0.502255
N	-1.2316675508	-2.6691849014	 2.0446400574	-0.311817
N	-2.2651148786	-3.3226934316	 1.5173403858	-0.056683
N	-2.5773486102	-2.9847063837	 0.2827707413	-0.113906
N	-1.7170262907	-2.0532592027	-0.0584413985	-0.280152
H	-1.0070316165	 1.3746921399	 0.7761608813	 0.129159
H	-0.6899162172	 1.5186606666	-1.0181810719	 0.126511
H	 1.8360993822	 1.3281509093	-0.5291380059	 0.123341
H	 1.4435177407	 1.1789726951	 1.2496556566	 0.133695
H	 0.4336783929	-0.7609344245	-0.9566555918	 0.122927
H	-2.7764730432	-4.0269153926	 2.0274981876	 0.304072
56.2388	66.0954	155.2129	313.9994	359.179	401.8928	501.2394	560.6439	725.7227	728.3313	766.9615	779.7332	828.3435	857.9335	987.3771	992.9769	1029.4379	1058.4113	1076.949	1079.8079	1119.7843	1157.2103	1178.5538	1190.7085	1198.0544	1242.3986	1279.9647	1365.1842	1390.2878	1454.8027	1496.4056	1505.1817	1592.3886	3143.4929	3146.1668	3174.5117	3227.3339	3240.937	3653.2971
C1CC1OC1=NNN=N1	C1CC1Oc1n[nH]nn1	
InChI=1S/C4H6N4O/c1-2-3(1)9-4-5-7-8-6-4/h3H,1-2H2,(H,5,6,7,8)	InChI=1S/C4H6N4O/c1-2-3(1)9-4-5-7-8-6-4/h3H,1-2H2,(H,5,6,7,8)
