16
gdb 66204	2.37909	1.5441	1.41751	3.4297	68.92	-0.267	0.007	0.274	997.8807	0.126237	-434.079004	-434.07086	-434.069916	-434.111611	30.268	
N	-0.0277361669	 1.4498633527	 0.0695622435	-0.52852
C	 0.0252130662	-0.0099305612	-0.0208077971	 0.017807
C	 0.7355046732	-0.5490337259	 1.2349940583	-0.074569
O	 0.6895777278	-1.9714945216	 1.2956845966	-0.218527
C	-0.4866914722	-2.533649952	 0.9175742787	 0.139109
N	-1.4827890473	-1.9940191891	 0.3591368468	-0.262267
C	-1.4104914186	-0.5871594393	 0.0036653105	-0.1687
C	 0.7379107112	-0.4702875036	-1.2338107234	 0.268739
N	 1.3073932818	-0.7658073652	-2.1958567304	-0.336771
H	 0.8985489139	 1.8463934256	-0.0687484553	 0.24668
H	-0.6081523546	 1.8198664504	-0.6788208703	 0.248921
H	 1.7923211667	-0.2744914556	 1.2538662048	 0.132746
H	 0.2355795639	-0.116632873	 2.1086795804	 0.134559
H	-0.4830796483	-3.5948582876	 1.1543529155	 0.137434
H	-1.9875007805	 0.0091247942	 0.7205922641	 0.134798
H	-1.8828840862	-0.4563064187	-0.9759929125	 0.128561
107.0838	134.5407	199.1287	229.012	249.9743	322.1828	383.6465	441.1566	477.8794	503.705	613.7068	627.3252	700.4301	837.5761	885.5011	935.6487	946.8597	969.7377	988.5502	1016.0055	1067.6269	1143.4615	1163.8817	1191.7705	1242.0716	1303.4225	1322.1523	1360.0992	1396.2563	1413.5396	1482.6022	1507.6363	1663.9792	1740.9696	2343.1359	3034.3755	3051.0494	3073.315	3117.9528	3176.6995	3485.0825	3561.0219
NC1(COC=NC1)C#N	N[C@]1(COC=NC1)C#N	
InChI=1S/C5H7N3O/c6-1-5(7)2-8-4-9-3-5/h4H,2-3,7H2	InChI=1S/C5H7N3O/c6-1-5(7)2-8-4-9-3-5/h4H,2-3,7H2/t5-/m1/s1
