17
gdb 76056	2.58651	1.33256	1.12451	3.6272	73.63	-0.2305	0.0208	0.2513	1132.0736	0.135899	-417.9748	-417.965983	-417.965039	-418.008692	31.856	
N	 0.3152697365	 1.4559276841	 0.0995458168	-0.52358
C	 0.0898707978	 0.0411606298	 0.0089796748	-0.07601
C	-0.5332190398	-0.706789514	 1.1990602619	-0.306657
C	-1.0344858545	 0.0378937524	 2.3122608288	 0.303921
N	-1.4685450781	 0.6826814418	 3.1716983374	-0.354836
C	-1.258715843	-0.5794086571	-0.1409829883	 0.444018
C	-2.6129215483	 0.0519473965	-0.418514384	-0.36346
C	-2.8561070638	-1.2433521489	-1.2269982428	-0.076705
O	-1.5150545324	-1.7230486532	-0.9349349502	-0.303446
H	 0.047768976	 1.926728306	-0.7588284166	 0.238373
H	-0.2100751427	 1.8718942125	 0.8615757044	 0.253044
H	 0.9014526241	-0.5140853233	-0.4583228294	 0.120781
H	-0.1125820412	-1.6796325968	 1.4286419225	 0.145734
H	-3.253613812	 0.2063898711	 0.4504407331	 0.142264
H	-2.5728317542	 0.9700291889	-1.0086148589	 0.117193
H	-3.6179769723	-1.9161202013	-0.8210435309	 0.120904
H	-3.0090374421	-1.1196654986	-2.3031855486	 0.11846
82.1707	116.2911	130.1802	150.9262	181.137	246.7195	360.4745	411.1602	458.85	523.7989	604.7693	660.6447	771.8555	796.9238	849.8134	853.8289	890.0874	919.9423	960.654	1009.1734	1035.4121	1089.1497	1108.8761	1140.594	1163.0915	1192.1129	1210.8122	1242.1539	1272.0092	1307.6177	1340.8673	1368.2045	1440.537	1491.0931	1529.4118	1657.7839	2336.8217	3044.7051	3078.1752	3094.2431	3125.9077	3136.993	3179.7252	3502.3456	3584.7282
NC1C(C#N)C11CCO1	N[C@H]1[C@@H](C#N)[C@]21CCO2	
InChI=1S/C6H8N2O/c7-3-4-5(8)6(4)1-2-9-6/h4-5H,1-2,8H2	InChI=1S/C6H8N2O/c7-3-4-5(8)6(4)1-2-9-6/h4-5H,1-2,8H2/t4-,5+,6+/m1/s1
