20
gdb 82163	2.80208	1.58304	1.28441	2.6209	77.27	-0.2317	0.0673	0.299	1056.2869	0.172456	-403.11646	-403.108464	-403.10752	-403.148445	32.527	
C	 0.0162058803	 1.544471227	 0.0285814412	-0.493508
C	 0.0461380173	 0.0349095754	 0.0163454289	 0.364967
C	-0.8992087753	-0.7819810066	 0.8602957417	-0.336841
C	 0.5832166056	-0.8028993664	 1.1606318435	-0.111462
C	 1.4634838861	-1.9402431139	 0.60883331	 0.120758
O	 1.0923501108	-3.2458282028	 1.0096443334	-0.439149
C	 1.4373944555	-1.7666607139	-0.91507764	-0.072138
N	 0.087884088	-2.0391362552	-1.4564309323	-0.3574
C	 0.5409343842	-0.640215488	-1.2589084414	-0.109438
H	 0.9870315356	 1.9684751706	-0.2553833101	 0.114626
H	-0.7344272582	 1.9362089204	-0.6685322682	 0.11747
H	-0.2303839863	 1.9221171884	 1.0255513211	 0.118448
H	-1.5236010218	-0.2424550099	 1.5654881443	 0.101591
H	-1.3654009708	-1.6497207418	 0.4111810642	 0.126542
H	 0.9073772409	-0.3324316341	 2.0830885296	 0.079796
H	 2.4870393914	-1.8011141885	 0.972885496	 0.08297
H	 0.2927141576	-3.4524783713	 0.5092269931	 0.287992
H	 2.3044104072	-2.0464477401	-1.5048060704	 0.087838
H	 0.1566726179	-2.2863121975	-2.4401757998	 0.233796
H	 0.6996644041	-0.0243960817	-2.1386866945	 0.083145
126.5789	187.7632	210.453	263.582	306.2805	368.1013	400.0494	472.0266	515.076	543.1102	596.7229	718.2261	723.0621	793.7744	842.1161	852.8394	880.1837	915.509	946.838	951.5561	976.331	991.3271	1065.5353	1075.3954	1083.2046	1087.3831	1105.8882	1122.9603	1134.0999	1162.8309	1236.2935	1249.9695	1285.9742	1301.4467	1326.4675	1354.6527	1396.968	1416.4177	1424.1149	1440.4253	1486.8856	1489.3921	1501.594	3018.7732	3055.9919	3074.8724	3100.7626	3133.7632	3154.7801	3159.0762	3166.2218	3228.714	3503.9442	3772.9114
CC12CC1C(O)C1NC21	C[C@]12C[C@H]1[C@@H](O)[C@H]1N[C@@H]21	
InChI=1S/C7H11NO/c1-7-2-3(7)5(9)4-6(7)8-4/h3-6,8-9H,2H2,1H3	InChI=1S/C7H11NO/c1-7-2-3(7)5(9)4-6(7)8-4/h3-6,8-9H,2H2,1H3/t3-,4+,5+,6+,7-/m0/s1
