19
gdb 63276	2.10459	1.66352	1.27131	5.1921	76.56	-0.2368	0.024	0.2608	1091.3981	0.157973	-419.206331	-419.197128	-419.196184	-419.239921	34.758	
C	-0.0245777878	 1.5194213014	-0.0458802682	-0.427536
C	-0.0227095096	-0.0068793844	 0.0224035691	 0.264493
C	-1.4074409324	-0.5997018524	-0.2311387853	-0.43138
N	 1.0412479203	-0.6338356966	-0.7953629446	-0.404977
C	 1.771918474	-1.1559565144	 0.2528376276	 0.438669
O	 2.8107441991	-1.7549257221	 0.3121705445	-0.367605
C	 0.7372084573	-0.6156666887	 1.2383708317	 0.113659
C	 0.9280226699	-0.0715375267	 2.5989094678	-0.302847
N	 0.2106509027	-1.3417658303	 2.3848762625	-0.357005
H	 0.973150633	 1.9201836717	 0.1515718482	 0.128095
H	-0.3460041577	 1.8653324927	-1.0349290703	 0.117914
H	-0.7186349323	 1.9414112734	 0.688647635	 0.120442
H	-1.7800739771	-0.3093351514	-1.2193267069	 0.12083
H	-1.3788942831	-1.6911651676	-0.1820754955	 0.135011
H	-2.1292248438	-0.2338795706	 0.5082358768	 0.115329
H	 1.2861112708	-0.5038525628	-1.7660544546	 0.244264
H	 1.8959614193	-0.172067092	 3.0813322335	 0.141164
H	 0.3618968752	 0.8146087966	 2.8762465637	 0.116161
H	-0.7949195877	-1.1971371859	 2.4555635251	 0.235317
65.2979	166.3401	205.8785	221.1289	229.8463	253.1655	308.3975	329.0794	340.0693	399.1524	509.0357	558.8128	616.825	650.394	726.0544	801.9297	862.8594	899.9178	938.6932	947.9866	975.735	983.1679	1002.2295	1038.7012	1115.2282	1127.8985	1205.9534	1210.8587	1230.8308	1261.7959	1290.472	1361.5977	1400.3488	1411.0954	1426.4968	1478.4812	1486.0044	1501.004	1502.2686	1512.926	1898.4591	3028.1254	3033.4496	3090.6387	3096.9115	3106.3749	3118.5492	3122.0597	3196.4267	3485.3247	3611.7626
CC1(C)NC(=O)C11CN1	CC1(C)NC(=O)[C@]21CN2	
InChI=1S/C6H10N2O/c1-5(2)6(3-7-6)4(9)8-5/h7H,3H2,1-2H3,(H,8,9)	InChI=1S/C6H10N2O/c1-5(2)6(3-7-6)4(9)8-5/h7H,3H2,1-2H3,(H,8,9)/t6-/m0/s1
