18
gdb 29980	3.19192	1.63473	1.09593	1.6478	87.72	-0.1743	0.0034	0.1777	1090.8465	0.149862	-364.854163	-364.846448	-364.845504	-364.886594	29.78	
C	 0.0018515958	 1.4547587631	 0.0334235386	-0.344739
N	-0.0392343777	 0.0089128861	 0.0226547606	-0.124753
C	-0.0566179078	-0.7904043556	-1.1066383417	-0.095575
C	-0.0212755557	-2.1223866155	-0.7314229715	-0.358947
C	 0.0242005474	-2.1347894651	 0.6823050091	 0.273509
C	 0.0162480488	-0.8198583041	 1.109481802	 0.304266
C	 0.0562187408	-0.7400842172	 2.5578750081	-0.204747
C	 0.087442833	-2.0044371349	 3.0339441006	-0.085228
C	 0.0689230219	-3.0187505765	 1.8974627128	-0.412608
H	 1.0088428326	 1.832192927	 0.2472993627	 0.136467
H	-0.3095511057	 1.8310081599	-0.9431269386	 0.139637
H	-0.6848855607	 1.8499443525	 0.7878611459	 0.139485
H	-0.0934159068	-0.3385376573	-2.0857996578	 0.110894
H	-0.0375452617	-2.9605103467	-1.4118572855	 0.092363
H	 0.0619219248	 0.165331449	 3.1512383394	 0.091545
H	 0.1227255751	-2.2886468192	 4.0773318004	 0.091993
H	-0.7979217961	-3.6884889285	 1.9803976629	 0.123263
H	 0.9559165521	-3.6660171469	 1.931389592	 0.123174
61.1239	147.9516	203.2596	251.8992	280.62	424.6806	498.6728	595.506	610.3324	658.9934	662.1297	680.3443	734.8284	780.9149	796.1538	866.8655	921.2088	929.2914	932.8854	1022.1053	1042.6537	1101.0785	1129.6081	1136.1513	1150.7662	1210.0793	1219.7511	1271.8838	1349.1566	1366.1187	1425.1592	1444.6249	1463.1162	1474.8362	1486.0915	1516.0574	1530.7176	1554.0302	1606.3928	3020.385	3027.3266	3044.9166	3089.6443	3130.9761	3204.9829	3229.5382	3237.202	3258.7424
CN1C=CC2=C1C=CC2	Cn1ccc2c1C=CC2	
InChI=1S/C8H9N/c1-9-6-5-7-3-2-4-8(7)9/h2,4-6H,3H2,1H3	InChI=1S/C8H9N/c1-9-6-5-7-3-2-4-8(7)9/h2,4-6H,3H2,1H3
