14
gdb 56880	3.44183	1.03758	0.84371	4.4556	62.7	-0.2949	-0.0142	0.2807	1270.3786	0.099731	-473.847034	-473.838605	-473.837661	-473.880946	29.698	
O	 0.3326359078	 1.5507278989	-0.0624807732	-0.40562
C	 0.097187062	 0.1574407231	-0.0925403684	-0.032443
C	 0.6940148564	-0.4739133983	-1.283874645	 0.261101
N	 1.207707198	-0.9329986706	-2.2110324332	-0.300405
C	 0.5984517582	-0.5099095411	 1.1934440043	 0.111063
C	-0.1499814397	-0.127075165	 2.4790721959	-0.436229
C	-0.5731826902	-1.5976819073	 2.4683483419	 0.451523
O	-1.2202534495	-2.3410681931	 3.1249245185	-0.295093
O	 0.1197213921	-1.8844957647	 1.3055886803	-0.243959
H	 1.2692994902	 1.7126080037	-0.2255861707	 0.305151
H	-0.990069881	 0.0306371335	-0.1440014765	 0.152664
H	 1.6900598501	-0.4818575078	 1.2498348702	 0.115449
H	 0.4655811959	 0.157432367	 3.3330384682	 0.155815
H	-0.9663656803	 0.5875567915	 2.3621577777	 0.160985
61.6043	92.4181	130.3806	214.9513	257.2796	299.8007	368.7597	404.2421	495.598	522.0675	544.23	609.0392	773.694	835.3564	908.1509	959.1169	969.6985	1035.2004	1079.8972	1092.6358	1107.7982	1154.3242	1223.6901	1253.8656	1289.261	1312.0414	1390.7982	1416.2871	1457.4212	1957.1123	2361.0834	3060.6977	3084.4674	3096.6575	3154.3915	3802.6511
OC(C#N)C1CC(=O)O1	O[C@@H](C#N)[C@H]1CC(=O)O1	
InChI=1S/C5H5NO3/c6-2-3(7)4-1-5(8)9-4/h3-4,7H,1H2	InChI=1S/C5H5NO3/c6-2-3(7)4-1-5(8)9-4/h3-4,7H,1H2/t3-,4+/m0/s1
