15
gdb 132996	2.8995	1.34706	0.92499	4.7606	75.54	-0.2102	-0.0175	0.1927	1185.834	0.113011	-458.130408	-458.122336	-458.121392	-458.163595	29.339	
C	 0.0301030666	 1.4330560637	 0.0766739842	-0.328627
N	 0.0000419007	-0.0136832309	 0.1402273743	-0.320528
C	-1.1139366315	-0.6326936592	 0.0640827469	 0.364669
C	-1.1365548958	-2.0973346807	 0.1291822399	-0.158177
C	-2.2928132417	-2.769315	 0.0515135379	-0.005671
N	-3.4865473722	-2.065721746	-0.0928489169	-0.387942
C	-3.4128435144	-0.7076976441	-0.1482025292	 0.406617
F	-4.6115638175	-0.1535972808	-0.2861142663	-0.068938
N	-2.3746698189	 0.0079858007	-0.0836179315	-0.400348
H	 0.6708068625	 1.740253992	-0.7597475407	 0.116369
H	-0.9521167751	 1.9043633049	-0.0376364397	 0.125921
H	 0.5059696782	 1.8204134886	 0.9866136388	 0.116375
H	-0.1934570534	-2.6139643425	 0.2414139221	 0.122622
H	-2.3841452102	-3.8461651233	 0.0923764688	 0.140053
H	-4.3801010674	-2.5236062224	-0.1555097584	 0.277606
72.7948	102.3007	201.504	218.5711	236.2671	376.	428.3518	472.3985	485.3881	541.5943	603.7615	693.4598	750.4386	750.8938	820.5817	945.187	960.6657	1000.3363	1062.2981	1074.8369	1127.899	1170.1757	1204.2107	1252.2765	1296.8846	1417.9451	1430.1099	1488.2715	1495.6903	1508.819	1664.6201	1720.7047	1751.1373	3007.275	3055.6448	3085.9762	3223.4428	3242.0737	3665.4342
CN=C1C=CNC(F)=N1	CN=c1cc[nH]c(F)n1	
InChI=1S/C5H6FN3/c1-7-4-2-3-8-5(6)9-4/h2-3H,1H3,(H,7,8,9)	InChI=1S/C5H6FN3/c1-7-4-2-3-8-5(6)9-4/h2-3H,1H3,(H,7,8,9)
