23
gdb 58110	2.38006	1.29006	1.05495	1.0294	80.91	-0.2598	0.0689	0.3287	1262.05	0.202806	-425.407305	-425.396688	-425.395744	-425.442173	40.147	
C	 0.0302288309	 1.5657232856	 0.0190537683	-0.428049
C	 0.0405543733	 0.0376354134	-0.028703977	 0.127698
O	-1.2734427361	-0.4790300324	 0.177329869	-0.444025
C	 0.7006186385	-0.5801888651	-1.3050634245	 0.218637
C	 0.6620894341	-2.1151224842	-1.170930296	-0.417942
C	-0.0407695116	-0.1442805958	-2.5788059158	-0.450958
C	 2.1668610417	-0.1616484585	-1.3263945212	 0.081409
C	 2.9870730304	-0.0381465059	-2.5383256626	-0.194756
O	 2.5205971081	 1.1240142812	-1.846713108	-0.24405
H	 1.0338189524	 1.9846500963	-0.0787208853	 0.147278
H	-0.5769375131	 1.9813323341	-0.7939290355	 0.110202
H	-0.4021286428	 1.896888075	 0.9675335831	 0.118949
H	 0.614045461	-0.3340871501	 0.8311479357	 0.080199
H	-1.8835155796	 0.0526118105	-0.3437961513	 0.279526
H	-0.368250545	-2.4559257122	-1.0519518794	 0.133811
H	 1.0960761986	-2.5954360667	-2.0535775915	 0.105638
H	 1.2257664088	-2.4514536406	-0.2929033621	 0.107803
H	 0.1399194401	 0.9079501785	-2.8102372992	 0.135231
H	 0.2730576383	-0.7393350564	-3.441557548	 0.113807
H	-1.1175859428	-0.3023076077	-2.4639084971	 0.103188
H	 2.7010737017	-0.4114159952	-0.4056390262	 0.086968
H	 4.0603471863	-0.2149260071	-2.4816078606	 0.114341
H	 2.5440039667	-0.2021960467	-3.5180401648	 0.115094
79.8916	95.792	182.7558	212.8345	242.7344	252.7771	266.0971	273.5924	287.5147	324.9357	359.972	368.4279	381.4642	483.9875	543.8131	577.2014	712.9707	807.9223	865.1172	898.9847	935.8623	945.0455	957.1792	1003.9162	1031.3561	1046.9593	1086.2035	1100.8827	1112.0334	1158.2572	1176.6882	1200.7795	1218.8994	1257.7632	1302.1594	1310.2795	1368.7431	1393.2144	1405.2805	1413.4863	1422.4342	1441.2476	1484.8782	1491.2594	1495.3506	1500.8316	1508.7249	1520.8665	1530.5471	3014.7742	3031.5254	3036.8445	3044.7926	3070.5784	3090.3758	3093.9939	3102.3507	3103.6285	3128.9457	3133.5977	3137.4679	3177.3863	3815.5129
CC(O)C(C)(C)C1CO1	C[C@@H](O)C(C)(C)[C@H]1CO1	
InChI=1S/C7H14O2/c1-5(8)7(2,3)6-4-9-6/h5-6,8H,4H2,1-3H3	InChI=1S/C7H14O2/c1-5(8)7(2,3)6-4-9-6/h5-6,8H,4H2,1-3H3/t5-,6-/m1/s1
