21
gdb 119154	1.94515	1.3295	1.03252	2.6849	75.17	-0.2508	0.0584	0.3092	1296.0014	0.179721	-461.32774	-461.317391	-461.316446	-461.363345	37.39	
C	-0.1687995143	 1.3457500735	 0.9946224239	-0.230854
O	-0.1908648652	-0.0561084426	 1.1612199208	-0.245588
C	 0.8257292486	-0.7212543343	 0.4285378692	-0.140572
C	 0.763428249	-2.2052642089	 0.7356642034	 0.373753
C	 0.183454045	-3.1190216017	-0.2539118207	-0.227332
O	 1.6055459981	-2.9766261639	-0.128408683	-0.286573
C	 0.7643449939	-2.6216921405	 2.2059021106	 0.067291
C	 1.9330220386	-2.0262678359	 2.9955827793	-0.416637
O	-0.488176157	-2.3283478013	 2.8074672177	-0.440671
H	-0.3248278507	 1.6250456933	-0.0577321695	 0.11545
H	-0.9803853506	 1.7595902587	 1.5967301722	 0.135577
H	 0.7857965962	 1.7774807464	 1.3307747889	 0.114498
H	 0.7011558863	-0.5579081068	-0.6522309051	 0.101507
H	 1.8145237309	-0.3248738907	 0.7092695538	 0.104653
H	-0.22075826	-4.0740650327	 0.0761734157	 0.123808
H	-0.2434179446	-2.7231805287	-1.1740599254	 0.112535
H	 0.8560172582	-3.7138347299	 2.2186221133	 0.08899
H	 1.8584274346	-0.9351656587	 3.0494471402	 0.113745
H	 1.9174694889	-2.4129377075	 4.0177339043	 0.124166
H	 2.8914800063	-2.2893781012	 2.5355819752	 0.123249
H	-0.6771755522	-1.4030960165	 2.6018497753	 0.289007
58.7001	86.5804	102.4642	164.9242	209.6936	223.5552	264.6857	277.6164	319.6411	379.9598	395.7035	441.9399	478.9508	517.8702	541.6268	756.5619	877.4662	888.1449	937.7906	941.8603	987.7067	1024.6092	1070.9931	1106.604	1116.6887	1132.9101	1150.4225	1161.1192	1185.1978	1225.2212	1236.8085	1288.4108	1307.002	1349.6465	1393.3993	1400.1927	1440.3238	1454.9079	1481.9759	1485.7735	1492.3842	1496.1802	1505.8197	1522.9553	1533.1607	2976.0063	2986.8807	3015.3982	3035.2897	3035.8568	3045.8884	3088.3192	3107.609	3120.9389	3124.896	3177.8583	3757.2509
COCC1(CO1)C(C)O	COC[C@]1(CO1)[C@@H](C)O	
InChI=1S/C6H12O3/c1-5(7)6(3-8-2)4-9-6/h5,7H,3-4H2,1-2H3	InChI=1S/C6H12O3/c1-5(7)6(3-8-2)4-9-6/h5,7H,3-4H2,1-2H3/t5-,6+/m1/s1
