20
gdb 113711	2.57993	0.98066	0.79945	2.048	81.12	-0.2511	0.0504	0.3015	1477.539	0.169149	-403.083432	-403.073284	-403.07234	-403.119331	37.035	
C	 0.3309133165	 1.3368201121	 0.1625194313	-0.397176
C	-0.2179525255	-0.0949664233	-0.0042118491	-0.161507
C	-1.6801873232	-0.112758471	-0.0253348581	 0.332678
C	-2.881862154	-0.1148726069	-0.0617327214	-0.475729
C	 0.3444316002	-0.7309179658	-1.2715151222	-0.012312
N	 1.7114596627	-1.2657123916	-1.187552405	-0.359506
C	 0.5837985142	-2.1836339594	-1.4683246005	-0.03519
C	 0.3646980699	-3.2566256078	-0.4268377649	-0.06907
O	 1.4191323978	-4.2044473344	-0.4536391615	-0.42169
H	 1.4235595786	 1.3080504293	 0.1939776286	 0.128895
H	 0.0192917648	 1.9711967099	-0.6730611201	 0.122109
H	-0.0377833811	 1.7891161759	 1.0863942377	 0.126274
H	 0.1288552918	-0.6851013407	 0.8511979907	 0.112419
H	-3.9434361057	-0.124925496	-0.0827311426	 0.19639
H	 0.0826629217	-0.1754072708	-2.1718666999	 0.091853
H	 2.2315486869	-1.0612866224	-2.0357953049	 0.23527
H	 0.4969140326	-2.5461595617	-2.4914261059	 0.091519
H	 0.2581871179	-2.8112348077	 0.5717875063	 0.091749
H	-0.555630132	-3.8086925879	-0.6428018165	 0.114566
H	 2.2308002158	-3.6982991198	-0.3292050621	 0.288457
39.9689	63.7118	122.5918	155.237	204.8631	230.9897	253.4655	297.4661	386.9307	431.9269	455.3467	518.6519	524.8791	607.2561	630.5516	640.3041	803.4007	816.7357	875.7839	928.4622	961.0654	982.3521	997.7785	1048.2695	1067.9917	1085.3598	1112.8835	1153.7786	1181.7556	1237.9865	1268.6647	1274.6248	1293.7939	1322.2425	1366.6567	1395.2741	1403.3647	1437.3178	1478.38	1494.7331	1496.4843	1498.008	2235.0068	3010.5542	3042.1544	3049.1294	3080.5403	3106.9122	3117.9899	3124.6351	3127.1374	3504.126	3512.247	3790.2462
CC(C#C)C1NC1CO	C[C@@H](C#C)[C@H]1N[C@H]1CO	
InChI=1S/C7H11NO/c1-3-5(2)7-6(4-9)8-7/h1,5-9H,4H2,2H3	InChI=1S/C7H11NO/c1-3-5(2)7-6(4-9)8-7/h1,5-9H,4H2,2H3/t5-,6-,7+/m0/s1
