19
gdb 70860	2.76388	1.72827	1.32038	1.006	79.45	-0.2109	0.0176	0.2285	1014.7915	0.159219	-385.86257	-385.854822	-385.853878	-385.893998	32.123	
C	-0.0656496929	 1.5384554082	-0.0217879898	-0.495861
C	-0.0367087357	 0.0247685357	 0.0419941386	 0.287476
C	 0.3603043934	-0.7544241798	-1.2809666471	-0.332481
C	-0.7892940029	-1.7123507187	-0.9960723432	 0.385426
O	-1.4780641628	-2.4396813201	-1.9495087947	-0.463629
C	-0.8640228122	-2.1157369779	 0.5053924078	-0.158506
C	 0.3137916034	-1.8580152339	 1.3820230693	-0.092982
C	 0.758475745	-0.6166572293	 1.1686400287	-0.13984
C	-1.3871984591	-0.7834562254	 0.015381068	-0.173363
H	 0.9434005663	 1.9454547988	-0.1534286954	 0.115922
H	-0.6776740695	 1.8897272643	-0.859043191	 0.115923
H	-0.4791682099	 1.9627238879	 0.8999750827	 0.118549
H	 0.118605623	-0.1557278706	-2.163652544	 0.1058
H	 1.3841367216	-1.1373966894	-1.3545406383	 0.082523
H	-0.9972640354	-3.2591461845	-2.1108552127	 0.285071
H	-1.571079087	-2.9134806428	 0.7030228724	 0.084355
H	 0.7478985525	-2.5969476311	 2.0442728663	 0.094622
H	 1.6399183103	-0.1592420978	 1.6026603569	 0.091419
H	-2.395332918	-0.4056021735	 0.1389052055	 0.089576
197.8388	215.881	258.3107	275.3106	309.6542	367.5921	381.4688	445.9856	538.9716	590.7109	600.3739	717.3861	728.8267	756.3179	785.8761	853.6355	867.2211	907.7532	922.5764	939.4516	972.5248	992.619	1006.0582	1019.0508	1089.0638	1095.6282	1130.1406	1146.1847	1187.2792	1227.5387	1242.6924	1270.3216	1293.2978	1304.6894	1367.8407	1411.3964	1432.4124	1489.6075	1492.8484	1496.956	1647.7665	3024.5906	3034.6275	3090.1697	3095.7443	3100.9843	3176.7154	3184.9813	3192.2145	3218.2414	3793.6138
CC12CC3(O)C(C=C1)C23	C[C@@]12C[C@@]3(O)[C@@H](C=C1)[C@@H]23	
InChI=1S/C8H10O/c1-7-3-2-5-6(7)8(5,9)4-7/h2-3,5-6,9H,4H2,1H3	InChI=1S/C8H10O/c1-7-3-2-5-6(7)8(5,9)4-7/h2-3,5-6,9H,4H2,1H3/t5-,6-,7-,8+/m0/s1
