15
gdb 29343	1.97553	1.9082	0.9765	4.9175	75.04	-0.2101	0.0086	0.2187	1137.2987	0.113427	-416.872722	-416.864185	-416.863241	-416.905878	31.269	
C	-0.0649528291	 1.5033677971	 0.0435345993	-0.509602
C	-0.0172588632	 0.0091478152	 0.0062286219	 0.177495
C	-0.0398391075	-0.7971207289	-1.0947208776	-0.168742
N	 0.0225742811	-2.1250212642	-0.6763726912	-0.313043
C	 0.0846173892	-2.1666329389	 0.6727039108	 0.338811
O	 0.1516157363	-3.3549264495	 1.2934760877	-0.418543
C	 0.063441516	-0.8655166532	 1.1556590217	-0.028109
C	 0.1142817112	-0.5431666524	 2.5258500035	 0.163067
N	 0.1588325121	-0.326224132	 3.6659115098	-0.379385
H	 0.8258086313	 1.9219206312	 0.5252360765	 0.139387
H	-0.1266227584	 1.9160958949	-0.966875719	 0.124333
H	-0.9317215649	 1.8636993312	 0.6087897241	 0.13941
H	-0.0949212335	-0.5538645885	-2.1426127003	 0.132019
H	 0.0227295045	-2.9394143118	-1.2661086569	 0.277124
H	 0.1893825949	-3.2016540201	 2.2460854997	 0.325778
111.7077	113.5727	148.0745	211.0669	260.7456	320.9559	357.8969	420.719	483.559	529.5934	536.1493	588.4366	623.9441	673.8946	696.7021	725.8371	779.8278	1004.4283	1059.9676	1066.5151	1084.2795	1185.3751	1244.9807	1283.9284	1369.4264	1400.309	1423.75	1479.8305	1492.6859	1573.9651	1600.8797	1631.0675	2320.7184	3031.7994	3083.0319	3115.2797	3275.7501	3681.7122	3796.527
CC1=CNC(O)=C1C#N	Cc1c[nH]c(O)c1C#N	
InChI=1S/C6H6N2O/c1-4-3-8-6(9)5(4)2-7/h3,8-9H,1H3	InChI=1S/C6H6N2O/c1-4-3-8-6(9)5(4)2-7/h3,8-9H,1H3
