23
gdb 59725	3.03581	1.13299	0.98555	1.0257	87.17	-0.2416	0.0255	0.2671	1333.6806	0.205831	-388.307215	-388.297754	-388.29681	-388.341321	36.153	
C	 0.0861691323	 1.5177780621	 0.0548279696	-0.396364
C	-0.0777198478	-0.0069249713	-0.0294256536	 0.016837
C	-1.5629733877	-0.3972783583	 0.0127680416	-0.387015
C	 0.6484011061	-0.5553071626	-1.2689891055	 0.141397
C	 0.7948094606	-2.0824544752	-1.311691422	-0.272793
C	 1.2743719588	-2.5234682836	-2.670011895	-0.067492
C	 1.2221800474	-1.7135239938	-3.7240658616	-0.064789
C	 0.6392100049	-0.3308087971	-3.6317767999	-0.114684
O	-0.0533909869	-0.0977866018	-2.4222838504	-0.266341
H	 1.142965862	 1.8036109273	 0.0948040961	 0.103888
H	-0.3591873175	 1.9982984156	-0.8212442396	 0.129327
H	-0.403205192	 1.9165876107	 0.949037972	 0.105656
H	 0.4241122417	-0.4544084698	 0.8401375265	 0.067683
H	-2.08566056	-0.0131327874	-0.8671374192	 0.133329
H	-1.7063403178	-1.4813675187	 0.0426075414	 0.108599
H	-2.0400232321	 0.0211612084	 0.904724391	 0.105738
H	 1.6665332875	-0.1268068928	-1.283717677	 0.058268
H	 1.5060684989	-2.3992878379	-0.5377648887	 0.101321
H	-0.1573970038	-2.5729055366	-1.0711675768	 0.113368
H	 1.6769880314	-3.5285906055	-2.764638276	 0.087493
H	 1.6003481396	-2.0201353596	-4.6957435763	 0.088786
H	 1.4370965116	 0.4228350463	-3.7731724429	 0.094034
H	-0.0898471972	-0.1680201282	-4.4353034637	 0.113752
71.3928	107.2485	184.8149	193.2727	214.9232	243.3441	295.9861	331.8857	389.2873	434.468	493.897	532.0029	586.5518	670.6477	758.972	862.3979	872.7654	925.169	927.6445	950.6668	965.4741	986.5702	995.1151	1015.9896	1041.8473	1067.2246	1121.4801	1128.2011	1152.8158	1202.069	1213.6484	1223.5022	1263.8412	1304.7705	1348.2184	1354.5711	1375.1311	1391.208	1397.7433	1409.5612	1412.9095	1424.318	1468.6609	1487.7873	1489.0346	1494.096	1504.8439	1515.5725	1727.8034	2925.1507	2938.3552	3006.5151	3018.8501	3032.4321	3042.0847	3042.532	3049.8848	3096.9146	3103.8824	3114.0145	3123.9513	3149.9311	3173.6202
CC(C)C1CC=CCO1	CC(C)[C@H]1CC=CCO1	
InChI=1S/C8H14O/c1-7(2)8-5-3-4-6-9-8/h3-4,7-8H,5-6H2,1-2H3	InChI=1S/C8H14O/c1-7(2)8-5-3-4-6-9-8/h3-4,7-8H,5-6H2,1-2H3/t8-/m1/s1
