16
gdb 30636	4.55621	1.079	0.88479	3.3849	72.76	-0.2368	-0.0187	0.2181	1267.4191	0.126055	-434.135264	-434.12681	-434.125866	-434.169527	29.666	
C	 0.0165333446	 1.4719195648	-0.0888040767	-0.327177
N	-0.0497974341	 0.0203800353	-0.0925860039	-0.360884
C	-1.231287687	-0.620759916	 0.1155808588	 0.520648
O	-2.2863278912	-0.0791689174	 0.3564780692	-0.378441
N	-1.1359864407	-2.0416382098	 0.0441176671	-0.115471
C	-2.2352687977	-2.8774122539	-0.0772101576	-0.086392
C	-1.7325126841	-4.1438621015	-0.0987284872	-0.101856
N	-0.3537821119	-4.1280815577	 0.0203471317	-0.270617
C	-0.0304122732	-2.8664634078	 0.1037674318	 0.009988
H	 0.9852005082	 1.7950787922	 0.3006035496	 0.13339
H	-0.1243074396	 1.8946932668	-1.0908075036	 0.135966
H	-0.7773964307	 1.8467344982	 0.5569646726	 0.173403
H	 0.7024600942	-0.4872365383	-0.5272213002	 0.258112
H	-3.2275022177	-2.466049223	-0.1335364875	 0.158918
H	-2.2745084341	-5.0723128326	-0.1903905576	 0.118499
H	 0.968305065	-2.4851584994	 0.2533455434	 0.131916
51.5914	73.6383	107.2764	162.8584	216.6886	309.5397	399.7456	470.43	513.5937	624.1414	672.0347	763.376	770.3769	814.2029	815.3243	877.3	912.4886	995.0362	1055.8213	1090.0738	1132.6824	1153.0999	1176.572	1212.8968	1274.747	1302.572	1330.5086	1403.5436	1446.6682	1488.8786	1502.8141	1510.9632	1558.572	1563.0433	1816.0322	3031.9575	3101.931	3161.6974	3250.2226	3257.4596	3306.4213	3652.9962
CNC(=O)N1C=CN=C1	CNC(=O)n1ccnc1	
InChI=1S/C5H7N3O/c1-6-5(9)8-3-2-7-4-8/h2-4H,1H3,(H,6,9)	InChI=1S/C5H7N3O/c1-6-5(9)8-3-2-7-4-8/h2-4H,1H3,(H,6,9)
