21
gdb 116508	2.88377	1.15564	0.91386	1.1845	75.16	-0.2484	0.082	0.3304	1325.1363	0.183149	-461.343535	-461.334372	-461.333428	-461.377954	33.512	
C	-0.1313151098	 1.379232287	 0.0121613847	-0.241505
O	 0.0319876371	-0.0218972352	 0.0031282079	-0.245296
C	 0.7181720842	-0.5332394826	-1.1332620902	 0.114018
C	 1.3594132302	-1.8565514796	-0.7031453802	-0.258207
C	 2.4809152879	-2.3526677832	-1.6290642166	-0.080336
O	 2.3251125638	-2.0455652338	-3.0109175103	-0.235724
C	 1.0538018762	-2.2122372696	-3.5733760614	 0.016807
O	 0.2817837786	-1.0420683673	-3.5338834012	-0.228656
C	-0.2946713181	-0.7334891142	-2.2792896838	-0.09521
H	 0.8386316753	 1.8989865152	-0.0167429568	 0.108524
H	-0.7401836226	 1.7446512113	-0.8275516371	 0.109181
H	-0.6413335062	 1.6355831787	 0.9440933346	 0.128896
H	 1.4952841669	 0.1746688444	-1.4605937931	 0.081188
H	 1.7750265747	-1.7254934176	 0.3010153241	 0.113646
H	 0.5678797787	-2.609016473	-0.6094104167	 0.107175
H	 3.4276497201	-1.8779863444	-1.3533970769	 0.115369
H	 2.6101969772	-3.4375956083	-1.4968561246	 0.096486
H	 1.2093096817	-2.4229103991	-4.6344345215	 0.11536
H	 0.514625751	-3.0521956434	-3.1009663272	 0.0763
H	-1.007581894	-1.5163042942	-1.9721337835	 0.09407
H	-0.8604867129	 0.1879830688	-2.4393078402	 0.107913
73.371	84.2543	133.3849	184.4468	196.8454	268.6325	330.7569	357.4373	422.9951	437.6555	484.3043	566.9311	620.3102	820.0274	868.1467	916.0533	958.2827	965.4861	1010.6505	1014.5958	1093.8434	1116.1845	1125.5341	1134.317	1166.1522	1184.3974	1207.298	1222.2292	1246.5814	1281.0187	1290.0511	1339.6102	1341.6087	1348.4044	1392.6496	1409.3556	1425.1023	1444.1404	1479.9196	1485.8299	1492.0512	1497.5141	1505.5735	1510.0735	1516.5781	2949.6248	2973.9225	2980.063	2989.6168	2994.5938	3028.5873	3040.6091	3068.8818	3090.2578	3094.3369	3098.6168	3113.3972
COC1CCOCOC1	CO[C@H]1CCOCOC1	
InChI=1S/C6H12O3/c1-7-6-2-3-8-5-9-4-6/h6H,2-5H2,1H3	InChI=1S/C6H12O3/c1-7-6-2-3-8-5-9-4-6/h6H,2-5H2,1H3/t6-/m0/s1
