17
gdb 98706	2.82966	1.10746	0.93451	6.5219	75.65	-0.2608	0.0045	0.2653	1296.3781	0.135712	-418.042528	-418.03311	-418.032165	-418.077896	32.878	
C	-0.2945585508	 1.4793797887	-0.416222723	-0.335869
N	-0.3914187824	 0.0319247095	-0.4482744372	-0.33387
C	-1.2081076202	-0.6635177096	 0.3909738201	 0.450436
O	-1.8915672833	-0.1432526169	 1.2555527205	-0.37615
C	-1.2043220641	-2.153733594	 0.175248209	-0.145185
C	-1.7055559426	-3.0045738605	 1.3066158408	-0.281455
C	-2.5514578504	-2.8790993309	 0.0638245044	-0.167631
C	-3.7998655434	-2.1659584207	 0.070520808	 0.310284
N	-4.8332501142	-1.6488393234	 0.0301483677	-0.339162
H	 0.7429880312	 1.8012348476	-0.2784932505	 0.127935
H	-0.6837880481	 1.9265645283	-1.3376021256	 0.132579
H	-0.8942083146	 1.8262061552	 0.4256200663	 0.178543
H	 0.1038964264	-0.4687652616	-1.1670430555	 0.247317
H	-0.4235778883	-2.5586811169	-0.4606142613	 0.095031
H	-1.232423345	-3.9609885123	 1.4922053648	 0.129451
H	-2.0420953839	-2.4515142265	 2.1751159184	 0.169552
H	-2.5547133064	-3.7299672258	-0.6098217467	 0.138193
40.7956	75.9448	104.2518	141.8611	191.744	240.7318	289.6118	333.7544	409.7355	461.6943	540.6383	565.7837	670.0983	767.3498	791.1144	834.2545	865.6247	928.5835	987.8137	1057.0303	1071.1336	1102.2145	1123.2255	1144.8301	1154.2354	1174.1289	1216.5435	1237.3945	1380.4021	1405.6362	1441.9631	1468.7163	1493.0537	1499.5322	1564.8349	1775.9396	2360.4584	3032.1394	3086.6003	3151.2973	3157.5412	3159.4676	3167.748	3253.1495	3650.0248
CNC(=O)C1CC1C#N	CNC(=O)[C@H]1C[C@H]1C#N	
InChI=1S/C6H8N2O/c1-8-6(9)5-2-4(5)3-7/h4-5H,2H2,1H3,(H,8,9)	InChI=1S/C6H8N2O/c1-8-6(9)5-2-4(5)3-7/h4-5H,2H2,1H3,(H,8,9)/t4-,5-/m0/s1
