20
gdb 100889	2.32892	1.08563	0.78285	4.5602	76.71	-0.286	0.0168	0.3029	1485.4109	0.167874	-440.284932	-440.274075	-440.273131	-440.321261	37.885	
C	-0.015713276	 1.6364230795	 0.0084288627	-0.388358
C	 0.0248144261	 0.1065622384	 0.029196419	-0.202981
C	 0.6986232793	-0.4811771039	-1.2119022628	 0.115336
O	 2.0457264786	-0.0685302804	-1.3550306817	-0.420762
C	 0.6197372902	-2.0276136887	-1.2166523943	-0.049575
O	-0.7357506472	-2.4007990596	-1.2287520145	-0.232803
C	-0.9671697831	-3.7877596735	-1.0428165023	-0.249489
C	 1.3432402093	-2.5897527691	-2.3800524088	 0.286819
N	 1.868757738	-3.0727223344	-3.2885160117	-0.327608
H	 0.9887545871	 2.0539502787	-0.1012096824	 0.127491
H	-0.6191356742	 2.0003408285	-0.8298606842	 0.123368
H	-0.453206223	 2.0289332098	 0.9307187615	 0.115699
H	 0.5699628855	-0.2447008673	 0.9192681536	 0.08325
H	-0.984968877	-0.3074482992	 0.1031424637	 0.126372
H	 0.187647222	-0.1268113576	-2.1139854936	 0.116788
H	 2.5033839431	-0.2298692965	-0.5217450104	 0.284455
H	 1.1197189897	-2.407851609	-0.3073597294	 0.098842
H	-0.524433878	-4.3826363876	-1.8518269468	 0.140358
H	-0.5596997447	-4.1342622296	-0.0817152482	 0.113045
H	-2.0496848255	-3.9265481585	-1.0444663094	 0.139752
61.5106	92.2877	102.4175	127.5363	178.2139	196.5238	231.2875	245.1473	282.2336	320.822	340.0547	390.955	445.9371	472.4705	588.1201	618.368	787.8128	891.3404	918.3037	989.0932	1001.5382	1051.2952	1085.8456	1112.637	1146.5402	1154.2788	1184.4835	1208.9767	1254.2024	1272.166	1329.413	1352.8273	1363.2767	1388.5776	1408.3576	1419.6725	1479.7847	1487.6058	1489.0641	1497.3413	1508.4007	1509.6964	2355.6974	2944.0239	2992.8014	2994.7255	3041.8468	3059.9815	3063.7192	3089.6726	3108.9894	3123.1632	3134.4103	3792.6427
CCC(O)C(OC)C#N	CC[C@@H](O)[C@@H](OC)C#N	
InChI=1S/C6H11NO2/c1-3-5(8)6(4-7)9-2/h5-6,8H,3H2,1-2H3	InChI=1S/C6H11NO2/c1-3-5(8)6(4-7)9-2/h5-6,8H,3H2,1-2H3/t5-,6+/m1/s1
