23
gdb 104336	2.94285	1.19435	1.06312	1.462	86.27	-0.2333	0.0348	0.268	1253.4043	0.206309	-388.308758	-388.299362	-388.298418	-388.342199	36.781	
C	-0.1378424954	 1.6094880246	 0.0248550946	-0.423991
C	-0.0268613695	 0.0728012846	 0.012009779	 0.269921
C	-1.4357108894	-0.5333123572	 0.0037072588	-0.110962
O	-2.1073718399	-0.1677607923	 1.2023260624	-0.427909
C	 0.7172063153	-0.4172780104	-1.24909291	-0.228622
C	 2.1599008467	 0.104070219	-1.3263466467	-0.27023
C	 2.8706131109	-0.0110023659	-0.004586987	-0.038425
C	 2.2363756828	-0.2472451789	 1.1431650784	-0.063954
C	 0.7436682361	-0.4162599901	 1.2617847819	-0.253577
H	 0.8385602478	 2.0789644295	 0.1692375596	 0.118594
H	-0.5576710059	 1.9794421826	-0.9179892507	 0.099335
H	-0.7951381538	 1.9312274382	 0.8362272519	 0.129908
H	-1.9837825212	-0.1689412953	-0.8808908391	 0.079839
H	-1.359470921	-1.6297995387	-0.08208789	 0.078206
H	-2.9946521916	-0.5359094034	 1.1753295408	 0.287243
H	 0.740442778	-1.5150156372	-1.2371062158	 0.092321
H	 0.1642349995	-0.1242854585	-2.1500979884	 0.085939
H	 2.7110679282	-0.4507559244	-2.0963680994	 0.098937
H	 2.172416125	 1.1511290785	-1.6628079933	 0.108128
H	 3.9510171989	 0.1142092303	-0.0108442899	 0.078835
H	 2.8083901923	-0.331383502	 2.064819514	 0.07948
H	 0.3756089485	 0.111062707	 2.1487185973	 0.113566
H	 0.5137910378	-1.47677096	 1.4464743217	 0.097416
121.3428	139.0464	185.7965	205.236	235.7221	253.5434	324.2086	336.7018	387.1207	409.0496	411.3176	518.5315	557.2102	671.3256	705.6136	776.8839	873.7844	892.9369	913.2518	923.7585	960.6818	983.5915	1002.5686	1005.3294	1038.594	1052.4043	1082.3087	1134.7949	1148.0404	1188.7785	1199.0977	1217.0084	1243.7827	1263.8543	1304.7002	1326.3469	1351.9221	1371.2005	1379.8685	1402.3848	1417.5071	1457.2129	1469.7625	1476.4771	1486.8967	1500.0608	1508.758	1519.0548	1725.8718	2954.6906	2985.4938	2993.3063	3001.3551	3012.1016	3032.9085	3036.831	3054.9755	3060.0396	3103.2926	3127.0389	3136.7697	3161.2274	3837.9709
CC1(CO)CCC=CC1	C[C@@]1(CO)CCC=CC1	
InChI=1S/C8H14O/c1-8(7-9)5-3-2-4-6-8/h2-3,9H,4-7H2,1H3	InChI=1S/C8H14O/c1-8(7-9)5-3-2-4-6-8/h2-3,9H,4-7H2,1H3/t8-/m0/s1
