17
gdb 31799	4.8762	0.99367	0.84322	3.0625	78.43	-0.2389	-0.0321	0.2068	1347.6046	0.136448	-418.061406	-418.052588	-418.051644	-418.096826	30.914	
C	-0.0603314374	 1.4889489823	-0.0364750775	-0.459276
C	 0.0079639556	-0.0118367866	 0.0189137863	 0.352709
N	 0.4041072142	-0.644926089	-1.0949828594	-0.285895
C	 0.4602729194	-1.9737949471	-1.0445074796	-0.041768
C	 0.1293646992	-2.7029148527	 0.0984279405	 0.220414
C	 0.1573857775	-4.2078875996	 0.1337233309	-0.184315
O	 1.1587602259	-4.6696481834	-0.7584121019	-0.411556
C	-0.2480293065	-1.9389306306	 1.1966860408	-0.060834
N	-0.3184782884	-0.6074472257	 1.1724889969	-0.283349
H	 0.9425604445	 1.9077398155	-0.1728943301	 0.140514
H	-0.6573551583	 1.8103868091	-0.8948878898	 0.138699
H	-0.4904085795	 1.8841630362	 0.8840008491	 0.134645
H	 0.7918566237	-2.4890532686	-1.9414523247	 0.128569
H	 0.3455609486	-4.5453980087	 1.1655368172	 0.102063
H	-0.8325229098	-4.600057089	-0.1529821716	 0.109142
H	 1.0625152296	-5.6217613833	-0.8516195822	 0.294306
H	-0.5038431784	-2.4171987087	 2.1421815451	 0.105931
25.646	38.1002	110.7361	196.9912	246.1743	315.3833	363.5713	414.1816	420.0522	487.1822	580.5363	661.9129	752.5843	780.2901	860.803	942.4349	1004.3834	1010.9708	1044.3779	1055.0908	1071.1206	1084.1978	1209.0447	1238.2496	1255.6534	1267.0742	1296.6281	1310.6526	1404.4085	1414.3298	1456.597	1474.9535	1479.6823	1488.214	1513.6165	1591.1283	1637.8962	2959.278	2984.9155	3046.1317	3104.1272	3127.1794	3154.9403	3176.8707	3835.4791
CC1=NC=C(CO)C=N1	Cc1ncc(CO)cn1	
InChI=1S/C6H8N2O/c1-5-7-2-6(4-9)3-8-5/h2-3,9H,4H2,1H3	InChI=1S/C6H8N2O/c1-5-7-2-6(4-9)3-8-5/h2-3,9H,4H2,1H3
