16
gdb 25690	6.04325	0.75271	0.67306	3.2172	86.72	-0.1879	0.0188	0.2067	1639.2286	0.125175	-396.951781	-396.942657	-396.941712	-396.987369	32.425	
C	-0.0484136023	 1.4573415449	 0.0439253246	-0.510196
C	-0.0054612974	 0.004139937	 0.0065793575	 0.250098
C	 0.0245609753	-1.2014158327	-0.0254319874	-0.147127
C	 0.0574319723	-2.6155937093	-0.0609889891	 0.158808
C	 1.1628514345	-3.4190438054	-0.191348886	-0.213535
N	 0.6815502641	-4.715870656	-0.1677131958	-0.273633
C	-0.6758895098	-4.6365225124	-0.0270348219	 0.369138
N	-1.482325243	-5.772349163	-0.0481150253	-0.609287
N	-1.0923534789	-3.3984813513	 0.0493066469	-0.367241
H	 0.5333612693	 1.8558595282	 0.8833313865	 0.144355
H	 0.3557127223	 1.8960248023	-0.8759104966	 0.144747
H	-1.0774215304	 1.816652377	 0.1561089765	 0.150159
H	 2.2118077644	-3.1954928127	-0.2804552502	 0.128583
H	 1.2138849462	-5.552219737	-0.3368195688	 0.264576
H	-1.214370723	-6.472478331	 0.6341303933	 0.247431
H	-2.4458572135	-5.5006495087	 0.1046925759	 0.263123
14.63	87.2158	97.1792	232.5599	243.909	288.7538	316.8146	392.4644	450.5995	461.3744	496.3872	558.668	658.4298	707.6071	731.4463	737.4677	810.2521	938.897	1013.2856	1050.8252	1052.4134	1052.5261	1105.2899	1152.9514	1250.4726	1317.7276	1375.7716	1413.0456	1475.9414	1478.4457	1494.5955	1584.2419	1603.6481	1657.0406	2361.5945	3020.32	3075.819	3084.5136	3285.376	3524.6379	3621.5052	3668.6344
CC#CC1=CNC(N)=N1	CC#Cc1c[nH]c(N)n1	
InChI=1S/C6H7N3/c1-2-3-5-4-8-6(7)9-5/h4H,1H3,(H3,7,8,9)	InChI=1S/C6H7N3/c1-2-3-5-4-8-6(7)9-5/h4H,1H3,(H3,7,8,9)
