20
gdb 47515	2.56866	1.75967	1.29074	3.2057	80.01	-0.2513	0.0217	0.273	1036.2529	0.174699	-403.152839	-403.145466	-403.144522	-403.184484	30.011	
N	-0.0814921702	 1.313724958	-0.1230569998	-0.501871
C	-0.0115335776	 0.0588469964	 0.0452951398	 0.359647
O	 1.2092346801	-0.5674316193	 0.1176466779	-0.256932
C	 1.4083697369	-1.6611140718	 1.0239020554	-0.080724
C	 0.7296668422	-2.9774302624	 0.6392228194	-0.220114
C	-0.7793353378	-2.8763567161	 0.3814410052	-0.000305
C	-1.1121835597	-2.0428712033	-0.8875160956	-0.228923
C	-1.260162142	-0.7828631605	 0.0208885924	-0.051349
C	-1.4790801041	-1.7665279502	 1.21619531	-0.2554
H	 0.8607578438	 1.7119369986	-0.1080135634	 0.215186
H	 2.4923479432	-1.8012730069	 1.0436237794	 0.116376
H	 1.1051946173	-1.3501565853	 2.0311346127	 0.110333
H	 1.2188222185	-3.3973259393	-0.2482622388	 0.108429
H	 0.9224446412	-3.6749679492	 1.465054969	 0.101692
H	-1.2257329351	-3.8731860028	 0.4278436174	 0.067838
H	-0.3595970338	-2.0055023435	-1.6787931141	 0.107316
H	-2.0749090649	-2.3245508041	-1.3206407454	 0.102436
H	-2.0843878484	-0.1055481846	-0.1960906471	 0.09806
H	-2.5469904836	-1.9683141369	 1.3299339233	 0.106548
H	-1.0760408559	-1.505469637	 2.1974557724	 0.101757
97.8425	211.6379	268.5471	319.4954	351.932	369.1175	433.0115	502.263	618.4772	691.7416	729.8318	787.4456	802.6621	837.6388	885.0047	912.9116	923.096	946.9041	957.6596	981.8737	1048.7481	1061.537	1067.219	1099.7306	1124.2148	1160.198	1167.0006	1180.3366	1238.2228	1262.1953	1276.6329	1294.9946	1301.0267	1328.2893	1348.8551	1364.2711	1392.1397	1427.8854	1471.4238	1479.5807	1499.2614	1517.8232	1733.8549	3018.9871	3028.3144	3058.4616	3061.6965	3062.9918	3072.8362	3094.8918	3112.3686	3117.8667	3129.5361	3451.5733
N=C1OCCC2CC1C2	[NH][C]1OCC[C@@H]2C[C@H]1C2	
InChI=1S/C7H11NO/c8-7-6-3-5(4-6)1-2-9-7/h5-6,8H,1-4H2	InChI=1S/C7H11NO/c8-7-6-3-5(4-6)1-2-9-7/h5-6,8H,1-4H2/t5-,6+
