19
gdb 6207	3.69455	1.54896	1.45172	0.997	72.75	-0.2398	0.0327	0.2725	989.0455	0.164472	-365.102735	-365.094023	-365.093079	-365.136103	31.957	
C	 0.0099851197	 1.4726450833	-0.0107515376	-0.474359
C	-0.054534642	-0.0164323248	-0.0437739607	 0.398119
N	-1.0673533189	-0.737361856	 0.2132515885	-0.328938
C	-0.6591447922	-2.1500771253	 0.0508475968	 0.277982
C	-0.837476454	-2.8849174862	 1.385263647	-0.413429
C	-1.5134321783	-2.8009145499	-1.0441797742	-0.413419
C	 0.8423903237	-2.0431477052	-0.3632649469	-0.146034
O	 1.1146178057	-0.6285379507	-0.3902292303	-0.256046
H	 0.7727243789	 1.803014695	 0.7013551722	 0.143501
H	 0.2941818499	 1.8612569104	-0.9937589552	 0.143555
H	-0.9601353105	 1.8761684522	 0.2767586507	 0.150368
H	-1.885208625	-2.8568241499	 1.6969412847	 0.126366
H	-0.5296445439	-3.9329728876	 1.2981339363	 0.108359
H	-0.2379694121	-2.4141963503	 2.1704047293	 0.114884
H	-1.39668007	-2.2701733834	-1.9939782467	 0.114878
H	-1.2234823762	-3.8467226185	-1.1957875391	 0.10836
H	-2.5710632708	-2.771638927	-0.7680746956	 0.126365
H	 1.5217328463	-2.5110928523	 0.3561200964	 0.109744
H	 1.0447273799	-2.4519954439	-1.3582002156	 0.109743
40.6152	140.2276	171.7779	218.0717	246.0506	295.9781	328.486	331.0482	434.018	446.8759	597.2959	641.7301	669.5672	827.5994	882.7812	928.1939	937.3575	964.1147	975.3972	1025.1121	1033.2248	1065.1497	1067.4309	1197.9791	1199.543	1221.4622	1265.4097	1298.601	1378.3073	1397.5402	1410.7927	1421.4781	1475.6916	1476.9933	1477.2846	1485.7118	1495.9032	1504.5267	1522.3592	1741.4893	3029.892	3033.2349	3042.364	3050.7168	3085.3723	3100.1592	3104.1641	3107.6785	3115.9683	3119.9087	3166.1833
CC1=NC(C)(C)CO1	CC1=NC(C)(C)CO1	
InChI=1S/C6H11NO/c1-5-7-6(2,3)4-8-5/h4H2,1-3H3	InChI=1S/C6H11NO/c1-5-7-6(2,3)4-8-5/h4H2,1-3H3
