15
gdb 123587	4.24153	1.63131	1.41747	4.4209	70.3	-0.2315	-0.0096	0.2218	895.165	0.11616	-416.710807	-416.704968	-416.704024	-416.741045	23.931	
N	-0.033105096	 1.2839514758	-0.0152791694	-0.152273
C	 1.2211438472	 1.7189448816	-0.026597311	-0.181306
C	 2.1403655122	 0.6535894773	-0.0165528884	 0.18539
C	 1.3273911851	-0.4314844918	 0.0012880397	 0.453488
N	 2.0920964989	-1.6570688339	 0.0140316719	-0.24268
C	 3.1607085774	-1.1770263509	 1.0345160322	-0.17027
C	 3.4983101065	-0.0607607003	-0.0131043282	-0.195382
C	 3.1516650021	-1.2041181576	-1.0280426068	-0.170267
O	 0.0443008803	-0.1392840116	 0.0030533655	-0.240247
H	 1.3742113642	 2.7891918274	-0.0413666444	 0.13332
H	 2.7524778937	-0.8789066439	 2.0014923042	 0.126415
H	 3.9263401998	-1.9489107435	 1.1480141478	 0.120192
H	 4.4343992439	 0.4941634231	-0.0244992366	 0.087017
H	 3.9163639645	-1.9788022511	-1.127936754	 0.120189
H	 2.73493666	-0.9314530306	-1.9988991424	 0.126414
120.1619	302.0426	421.3394	504.0993	554.2589	618.887	667.5611	717.9917	753.0639	803.9336	807.484	823.2729	831.0146	906.3952	907.8204	960.5759	1003.4451	1024.9557	1045.5498	1089.3037	1115.8509	1181.6883	1181.9592	1202.1015	1238.4948	1238.9198	1293.1572	1377.4917	1385.8618	1488.4832	1489.5186	1528.157	1611.5072	3060.5313	3070.0566	3138.7835	3140.3866	3143.4112	3238.8835
N1=CC2=C(N3CC2C3)O1	n1cc2c(N3C[C@H]2C3)o1	
InChI=1S/C6H6N2O/c1-5-4-2-8(3-4)6(5)9-7-1/h1,4H,2-3H2	InChI=1S/C6H6N2O/c1-5-4-2-8(3-4)6(5)9-7-1/h1,4H,2-3H2
