15
gdb 23232	2.76004	1.58955	1.15688	1.6426	68.99	-0.2254	0.018	0.2434	1028.6227	0.111917	-453.803926	-453.796271	-453.795327	-453.835847	29.807	
O	-0.2187307721	 1.3943367221	 0.0235459382	-0.400682
N	-0.0126796303	-0.0021502188	-0.0710894505	-0.312837
C	-1.1121428938	-0.6245964819	-0.0697548737	 0.463054
C	-2.591918743	-0.3125454475	 0.1190312711	-0.17241
N	-3.1796992431	-0.8507605466	-1.1686446846	-0.325136
C	-2.8518068551	-2.1846197451	-0.6105254476	-0.104446
C	-2.7120177953	-1.7380872707	 0.8124443448	-0.14312
C	-1.4398244517	-2.0723586561	 0.0138818249	 0.290035
O	-0.6257447117	-3.1524339028	 0.2210075064	-0.449707
H	 0.6848586005	 1.7268403765	 0.0229049508	 0.305194
H	-2.9312880434	 0.6477701644	 0.4916270855	 0.10614
H	-4.1925197113	-0.7421211145	-1.0977670335	 0.219746
H	-3.1928478837	-3.125061827	-1.0258234044	 0.107471
H	-3.0302758114	-2.0922376133	 1.7833988979	 0.116359
H	-0.2018712646	-3.3823831289	-0.6139406854	 0.300339
134.1019	163.9667	248.0705	271.6268	307.7568	332.2089	391.7721	519.3198	531.9214	608.3322	703.5998	724.3932	739.7242	811.0954	831.8506	897.3152	912.0933	928.2678	955.8282	979.2139	1008.0875	1043.3813	1075.6463	1139.7662	1156.6299	1167.8722	1227.3703	1301.3237	1325.6094	1359.4516	1404.1524	1467.2628	1805.5949	3188.4261	3194.8467	3212.8597	3437.9437	3793.6846	3823.3274
ON=C1C2NC3C2C13O	ON=C1[C@H]2N[C@@H]3[C@H]2[C@]13O	
InChI=1S/C5H6N2O2/c8-5-1-2(4(5)7-9)6-3(1)5/h1-3,6,8-9H	InChI=1S/C5H6N2O2/c8-5-1-2(4(5)7-9)6-3(1)5/h1-3,6,8-9H/t1-,2-,3+,5+/m0/s1
