19
gdb 106855	2.52224	1.35235	1.05508	1.7296	84.77	-0.2288	0.041	0.2698	1211.5919	0.157062	-385.818546	-385.809361	-385.808417	-385.852529	34.526	
C	-0.3064446615	 1.2586427234	-0.0405250776	-0.257359
O	 0.2337518073	-0.0455004603	 0.1105224301	-0.27696
C	 0.7982562299	-0.5468430679	-1.0352453733	 0.397579
C	-0.0287346526	-1.068702286	-2.1720686989	-0.384892
C	 0.9007622075	-2.0303652119	-1.4350340119	 0.12254
C	 2.342185995	-1.7881922051	-1.9260802166	-0.282865
C	 2.2448065382	-0.293959711	-1.4752936136	-0.29541
C	 0.4331607592	-3.2018280928	-0.7808161627	 0.179037
C	 0.0650373998	-4.2030321793	-0.2226030991	-0.41421
H	 0.4701468556	 1.9934818445	-0.2945704046	 0.113869
H	-1.081416224	 1.2830569279	-0.8187358374	 0.113942
H	-0.7502162863	 1.5300015298	 0.9195090355	 0.131924
H	-1.077818185	-1.2083565682	-1.9346632426	 0.130291
H	 0.1823756161	-0.8051273883	-3.2067175088	 0.106236
H	 3.0809587325	-2.3533339079	-1.3565037701	 0.1199
H	 2.5007346709	-1.9651189307	-2.9939808547	 0.101183
H	 2.3969119396	 0.4716349433	-2.2425438638	 0.097084
H	 2.8946194901	-0.0832589238	-0.6234023395	 0.115016
H	-0.2670234621	-5.0815610059	 0.2718871096	 0.183095
69.7454	102.6437	151.2061	180.3848	201.6809	287.9682	345.3985	388.2099	431.6676	524.2312	535.2041	565.0019	621.7935	643.7119	712.6571	734.2413	793.7244	867.2532	931.0418	937.0235	977.9992	1006.2279	1062.4343	1083.5819	1120.9299	1131.2238	1178.5752	1205.2869	1211.1341	1227.998	1243.2577	1247.585	1327.9676	1381.8518	1469.8564	1478.8463	1484.7918	1489.2202	1504.9121	1514.3391	2231.6161	2995.1166	3048.1997	3051.3019	3059.7443	3100.8274	3109.5191	3126.1928	3130.3252	3211.7991	3504.8344
COC12CC1(CC2)C#C	CO[C@]12C[C@]1(CC2)C#C	
InChI=1S/C8H10O/c1-3-7-4-5-8(7,6-7)9-2/h1H,4-6H2,2H3	InChI=1S/C8H10O/c1-3-7-4-5-8(7,6-7)9-2/h1H,4-6H2,2H3/t7-,8-/m1/s1
