15
gdb 12768	3.04303	1.99951	1.55348	1.7763	61.01	-0.2298	-0.0292	0.2006	840.8882	0.11745	-399.743861	-399.736313	-399.735369	-399.776029	27.845	
O	 0.2760804916	 1.3202837993	 0.3932554335	-0.45773
C	 0.0480420239	-0.0133510788	 0.1422697946	 0.370999
C	-0.2582951259	-0.5749484063	-1.2259443016	-0.328845
C	-1.2427014839	-0.7624479502	-0.1020734309	-0.069129
N	-0.7971023665	-1.9248634686	 0.7132288548	-0.346723
C	 0.4310010735	-1.1462970737	 1.1055421972	-0.141524
C	 1.7471128436	-1.8577626427	 0.8859006207	 0.154828
O	 2.7420511228	-1.2955254032	 0.5015410105	-0.249965
H	 1.1329124981	 1.5497416147	 0.013457586	 0.295528
H	-0.5383721964	 0.1916411154	-1.9416167554	 0.120371
H	 0.2727104002	-1.4301818761	-1.6352451502	 0.118669
H	-2.2765578465	-0.4438682034	-0.1358689623	 0.108042
H	-1.4036861483	-2.0425889622	 1.5191953928	 0.227357
H	 0.3911172717	-0.7937165843	 2.1447420712	 0.112895
H	 1.7365828721	-2.9494926998	 1.1022973489	 0.085228
61.2609	133.0418	170.0653	306.1804	355.2413	366.6909	428.4515	465.3178	556.2923	686.9564	716.2234	801.3189	854.8178	897.0928	910.4014	972.4343	997.0026	1017.1489	1037.6314	1066.3977	1096.8567	1107.8272	1181.9796	1228.1936	1240.9317	1313.0419	1343.1684	1361.1184	1409.2854	1419.8102	1499.121	1821.6062	2886.3982	3027.1009	3114.5293	3198.7917	3213.3881	3511.7499	3779.6198
OC12CC1NC2C=O	O[C@]12C[C@H]1N[C@H]2C=O	
InChI=1S/C5H7NO2/c7-2-4-5(8)1-3(5)6-4/h2-4,6,8H,1H2	InChI=1S/C5H7NO2/c7-2-4-5(8)1-3(5)6-4/h2-4,6,8H,1H2/t3-,4+,5-/m1/s1
