21
gdb 121251	3.21573	0.77472	0.66894	3.6156	74.79	-0.2463	0.0635	0.3098	1678.8795	0.1816	-461.327691	-461.317582	-461.316638	-461.363897	35.775	
O	 0.2012565129	 1.4125368942	-0.015436581	-0.419089
C	 0.1328411438	 0.0089174514	 0.1717508171	-0.075603
C	-1.2553250957	-0.4514329603	-0.2604106611	-0.20281
C	-1.445224068	-1.9532492971	-0.0836268192	-0.061031
C	-1.6649894424	-2.5163268679	 1.3396477547	-0.083311
O	-2.8544095656	-3.2246059188	 0.9283299504	-0.305538
C	-2.8161383046	-2.614293608	-0.3914005773	 0.093323
C	-4.0563881787	-1.7531193689	-0.5810527652	-0.067165
O	-5.2128250034	-2.5516740315	-0.4161890424	-0.424963
H	 1.0727452183	 1.7127294667	 0.2584219304	 0.287451
H	 0.8985860317	-0.5137834819	-0.4252327307	 0.086725
H	 0.3049155905	-0.2619627078	 1.2270263799	 0.088382
H	-1.9970222866	 0.1085313464	 0.3195586585	 0.113582
H	-1.3977623421	-0.1709344485	-1.3109941533	 0.112138
H	-0.6410018493	-2.4858066316	-0.6009296664	 0.082915
H	-0.9012124645	-3.1989899921	 1.7283258075	 0.105772
H	-1.8833270257	-1.7564887433	 2.1029993346	 0.099856
H	-2.7986154351	-3.389589153	-1.1673365149	 0.083991
H	-4.0507102785	-0.9114318286	 0.1285950883	 0.084945
H	-4.0898398856	-1.3384013149	-1.5945142444	 0.108214
H	-5.0909535714	-3.0118227547	 0.4241414247	 0.292215
64.1004	75.44	99.8525	112.9088	118.8601	218.3067	265.524	287.3792	340.399	414.1739	477.3523	500.0993	524.3291	768.4919	804.3697	843.634	889.432	931.8488	965.0606	1010.7001	1022.4235	1044.329	1074.1757	1082.0172	1111.6884	1139.0307	1161.0312	1179.1269	1208.8797	1229.1591	1238.5491	1269.4243	1289.1552	1315.242	1322.7091	1341.7022	1358.7968	1398.7557	1404.1746	1437.2156	1463.7727	1489.5585	1500.5602	1525.793	1529.021	2954.8882	2979.7856	2983.4972	3003.5458	3028.279	3036.5483	3048.6723	3064.9327	3071.5634	3085.9969	3775.8579	3831.1608
OCCC1COC1CO	OCC[C@H]1CO[C@H]1CO	
InChI=1S/C6H12O3/c7-2-1-5-4-9-6(5)3-8/h5-8H,1-4H2	InChI=1S/C6H12O3/c7-2-1-5-4-9-6(5)3-8/h5-8H,1-4H2/t5-,6-/m0/s1
