15
gdb 12989	2.78487	2.6908	1.626	5.0031	60.84	-0.2482	0.0057	0.2539	796.123	0.119929	-399.818729	-399.811799	-399.810855	-399.849689	26.06	
C	 0.0125351517	 1.5475261629	 0.0192134868	-0.491725
C	 0.1196552157	 0.050552683	 0.0269956871	 0.157294
N	-0.7874651972	-0.8071509799	 0.8455196681	-0.357503
C	 0.663297732	-0.8191923628	 1.0950607866	-0.118292
C	 1.321605548	-1.9984694395	 0.4085033954	-0.078693
O	 1.0219022633	-1.8567719788	-0.9924314062	-0.232937
C	 0.4291714056	-0.6622928205	-1.268262566	 0.463551
O	 0.2313160227	-0.2773011455	-2.3839875009	-0.349038
H	 0.9369648093	 2.0052914377	-0.3454313918	 0.140898
H	-0.7962835592	 1.8634356292	-0.6461447415	 0.15364
H	-0.1879753324	 1.9316536032	 1.0242007815	 0.115977
H	-1.2388332878	-0.2063520746	 1.5342398333	 0.236253
H	 1.0680859228	-0.4284523964	 2.0217819686	 0.107626
H	 2.4098651662	-1.9887416648	 0.5328596414	 0.119875
H	 0.9228087495	-2.9592084431	 0.7450154875	 0.133075
146.8171	182.7216	220.4362	272.2115	301.9009	440.9368	496.0634	581.0269	683.4511	726.0171	794.2774	819.293	861.8139	916.1347	947.6598	1023.0324	1052.3204	1066.3168	1082.0335	1105.9431	1131.8393	1180.9882	1235.0339	1312.8691	1357.7818	1396.5375	1416.8843	1450.4689	1479.6623	1497.875	1505.3497	1881.8121	3040.7181	3047.2312	3101.9863	3111.9395	3116.3964	3180.8816	3476.2589
CC12NC1COC2=O	C[C@]12N[C@H]1COC2=O	
InChI=1S/C5H7NO2/c1-5-3(6-5)2-8-4(5)7/h3,6H,2H2,1H3	InChI=1S/C5H7NO2/c1-5-3(6-5)2-8-4(5)7/h3,6H,2H2,1H3/t3-,5-/m0/s1
