27
gdb 95756	2.25883	1.26981	1.03169	0.1056	95.49	-0.2842	0.0758	0.36	1372.3077	0.252975	-353.597713	-353.587755	-353.586811	-353.63135	40.202	
C	 0.0196276102	 1.5939392253	-0.0007177138	-0.400846
C	 0.0184432782	 0.0624958091	-0.0496620178	 0.027376
C	 0.751280742	-0.4651544935	-1.2938092243	-0.173642
C	 0.7880509172	-1.9982988112	-1.3307382197	-0.225454
C	 1.4031973501	-2.5721883036	-0.0466564165	-0.193612
C	 0.7128548282	-2.0811690564	 1.2484885061	 0.269422
C	-0.6949494607	-2.6936894242	 1.3854879242	-0.411001
C	 1.5489292174	-2.5226071153	 2.4618199106	-0.418665
C	 0.6412440018	-0.5349185467	 1.2245360563	-0.189412
H	 1.0431355189	 1.9836252349	 0.0581521699	 0.109755
H	-0.4465503699	 2.0209257559	-0.8953653415	 0.106726
H	-0.5271878629	 1.9663018718	 0.8724182707	 0.10719
H	-1.0284318741	-0.2675971323	-0.1128933462	 0.068896
H	 0.2785837866	-0.0723005756	-2.2022160474	 0.083972
H	 1.7811557194	-0.0776193736	-1.2885646382	 0.08594
H	-0.2300563818	-2.3851258459	-1.4668595957	 0.093987
H	 1.3617240904	-2.341852025	-2.1993526102	 0.088067
H	 1.3906904362	-3.6690563374	-0.076092678	 0.082935
H	 2.4616900121	-2.2784979203	-0.0063102508	 0.084573
H	-0.6385061802	-3.7873029645	 1.4260176998	 0.106529
H	-1.1769696763	-2.3525627415	 2.3086322284	 0.106738
H	-1.354896536	-2.4298640456	 0.555024061	 0.112666
H	 2.5645905656	-2.1147210116	 2.412841573	 0.1056
H	 1.0962901331	-2.1805106261	 3.3995869172	 0.104966
H	 1.6289199651	-3.6146499287	 2.5103760294	 0.104896
H	 1.6632057502	-0.1389469482	 1.3218653945	 0.081378
H	 0.0929766792	-0.1809665699	 2.1077178993	 0.081019
136.5958	147.798	211.2739	232.7283	244.306	276.5397	277.8538	317.5665	326.6398	394.175	413.0461	431.7345	458.0787	465.9327	552.2653	725.7085	802.0397	853.6966	863.2152	875.0453	916.1965	941.9039	946.6827	968.2223	985.7324	997.6917	1026.4804	1059.5489	1065.6869	1094.5719	1119.0962	1155.4216	1198.167	1218.1382	1241.1919	1269.6135	1307.5409	1317.6276	1324.4065	1340.2717	1372.9888	1376.2692	1384.1854	1393.0194	1399.5906	1411.7158	1423.1483	1475.6304	1475.9874	1483.8444	1487.8312	1495.4652	1497.0084	1500.5394	1502.7666	1505.0762	1514.2464	2990.4879	2993.8031	3003.3528	3006.3281	3019.2118	3020.5241	3022.5833	3029.9678	3037.3713	3046.077	3051.7055	3062.3954	3085.0715	3087.9841	3090.7091	3091.0046	3093.8377	3111.0685
CC1CCCC(C)(C)C1	C[C@H]1CCCC(C)(C)C1	
InChI=1S/C9H18/c1-8-5-4-6-9(2,3)7-8/h8H,4-7H2,1-3H3	InChI=1S/C9H18/c1-8-5-4-6-9(2,3)7-8/h8H,4-7H2,1-3H3/t8-/m0/s1
