20
gdb 115220	4.09294	0.97717	0.83211	3.0859	77.64	-0.2546	0.019	0.2736	1396.1	0.171741	-440.293349	-440.284339	-440.283395	-440.327641	33.038	
C	-0.0692044077	 1.4278167703	-0.0347885917	-0.243522
O	 0.097624279	 0.0271671153	 0.0357993908	-0.243136
C	 0.6986813116	-0.5579546351	-1.1025954786	 0.110265
C	 1.2758137756	-1.91134007	-0.7086830314	-0.240575
C	 1.8719157541	-2.5897134384	-1.9481800543	-0.278688
C	 0.9405333716	-2.6001740811	-3.1391466597	 0.383909
N	 0.9362380125	-3.5562220923	-3.9678068297	-0.498616
O	 0.187977694	-1.472383712	-3.3469729712	-0.253431
C	-0.3375635658	-0.7735068209	-2.2123484384	-0.096283
H	 0.8891612651	 1.9396365445	-0.2106875624	 0.110223
H	-0.7733744841	 1.7340405035	-0.8216288114	 0.110424
H	-0.4687924272	 1.7498973842	 0.9296416997	 0.133306
H	 1.5059022564	 0.0905628959	-1.4828963496	 0.071549
H	 2.0349864653	-1.7868907924	 0.0685440917	 0.10924
H	 0.4705665368	-2.5207776221	-0.2809432784	 0.115564
H	 2.7741871916	-2.0430586906	-2.2553632277	 0.127222
H	 2.1764718211	-3.6178293379	-1.7487132983	 0.135749
H	 0.2730933923	-3.3574731483	-4.7205855765	 0.218119
H	-1.1847812486	-1.3323126737	-1.7911386211	 0.114083
H	-0.7145261735	 0.1719852212	-2.608272662	 0.114597
65.7672	79.7046	157.1619	174.9969	186.6979	283.7579	359.0378	409.005	421.7556	487.9243	497.5577	559.9971	697.2319	780.483	832.6716	919.9965	929.5938	954.9434	973.8164	1019.0127	1061.5445	1109.0415	1123.5603	1134.7471	1153.6681	1181.7344	1200.9245	1224.2652	1245.3729	1287.4917	1307.2443	1334.7458	1349.9589	1375.1886	1393.5832	1428.2089	1472.9629	1480.1412	1493.8704	1498.476	1508.618	1515.4533	1751.1784	2963.5219	2983.5768	3016.6025	3022.1146	3032.7885	3042.3493	3094.184	3107.0242	3118.022	3125.3263	3457.0896
COC1CCC(=N)OC1	CO[C@H]1CC[C]([NH])OC1	
InChI=1S/C6H11NO2/c1-8-5-2-3-6(7)9-4-5/h5,7H,2-4H2,1H3	InChI=1S/C6H11NO2/c1-8-5-2-3-6(7)9-4-5/h5,7H,2-4H2,1H3/t5-/m0/s1
