18
gdb 31249	2.32226	1.38832	0.95428	2.3164	75.33	-0.217	0.0127	0.2297	1268.338	0.147137	-439.112457	-439.103276	-439.102332	-439.147561	32.16	
C	 0.1145673881	 1.6401851397	 0.0265970661	-0.367883
C	-0.1109811166	 0.1275560139	-0.1240571618	-0.296903
C	 0.5990395699	-0.4524839804	-1.30325227	 0.143553
C	 0.0913172842	-1.0941565019	-2.3855477642	 0.329489
O	-1.1440257432	-1.4824288011	-2.7074036732	-0.265348
C	-1.5950723953	-1.1064190995	-4.0148786305	-0.255742
O	 1.1243972932	-1.450663279	-3.2183515893	-0.186963
C	 2.2273041047	-0.9877571899	-2.5744360128	 0.063639
N	 1.9893772697	-0.4040921189	-1.4505501816	-0.30448
H	 1.1826421882	 1.8616556995	 0.1012794898	 0.137836
H	-0.2816022414	 2.184223691	-0.8369027149	 0.110976
H	-0.3803856816	 2.0201404468	 0.9255295945	 0.109016
H	 0.23297824	-0.3789309761	 0.7867391305	 0.115735
H	-1.1795338804	-0.0914243231	-0.2207420067	 0.109339
H	-1.5656670856	-0.0172252548	-4.1345594895	 0.127857
H	-0.9829368072	-1.5768683815	-4.7900573472	 0.141716
H	-2.6237710484	-1.4597545482	-4.0932263057	 0.141652
H	 3.1742418816	-1.1468515064	-3.0657796035	 0.14651
42.8415	68.8168	148.643	161.3635	175.1476	214.311	287.1551	326.6244	438.5271	524.1573	613.2587	666.4718	731.9189	741.4403	793.5572	809.7364	947.574	971.9437	1008.3103	1052.3238	1084.1044	1098.2514	1151.0714	1176.1713	1200.0104	1244.9495	1296.3383	1309.9773	1355.0942	1389.4395	1406.2695	1477.4091	1482.0967	1486.98	1496.2853	1503.8245	1509.3658	1564.94	1705.4281	3026.5266	3027.6016	3038.724	3075.6041	3103.0573	3107.4268	3122.4894	3149.523	3272.6107
CCC1=C(OC)OC=N1	CCc1c(OC)ocn1	
InChI=1S/C6H9NO2/c1-3-5-6(8-2)9-4-7-5/h4H,3H2,1-2H3	InChI=1S/C6H9NO2/c1-3-5-6(8-2)9-4-7-5/h4H,3H2,1-2H3
