18
gdb 18976	4.17553	2.22831	1.82348	1.33	70.91	-0.2368	0.0957	0.3325	777.1143	0.157477	-347.761861	-347.756027	-347.755083	-347.791441	24.64	
C	-0.0464250224	 1.6168372546	-0.0083682742	-0.238314
C	 1.4580504736	 1.246409671	-0.0023949448	-0.083697
C	 1.127076543	 0.1667819764	 1.0762226641	 0.015494
C	 2.0957259874	-1.0094756901	 1.1764967892	-0.26477
C	 2.0596007023	-1.7862579637	-0.141755284	-0.064912
O	 1.9877636681	-0.9120798396	-1.2602614926	-0.280555
C	 1.106790473	 0.1612425025	-1.0646189954	 0.172997
C	-0.0259296055	 0.0673063499	 0.0123518432	-0.112259
H	-0.4250097929	 2.0999860657	 0.895578384	 0.093832
H	-0.4372074581	 2.0940827454	-0.9118680171	 0.090068
H	 2.3144434563	 1.9230192421	-0.0088068412	 0.067303
H	 0.8282967394	 0.5656829495	 2.0507329846	 0.061125
H	 3.1059540659	-0.6364881081	 1.3862219751	 0.103354
H	 1.8229942311	-1.6796629183	 1.999649594	 0.098059
H	 2.9476851769	-2.4074037296	-0.2864928705	 0.10469
H	 1.1810420789	-2.4503451359	-0.1446145306	 0.092186
H	 0.8189423194	 0.5264974139	-2.0541645741	 0.075284
H	-0.8888865766	-0.6006533256	 0.0229927803	 0.070115
222.1772	264.5424	413.8716	420.1346	491.4707	562.5291	689.9956	775.8113	787.5991	827.1583	860.6245	892.3627	902.5356	930.028	968.4376	1010.9254	1027.8413	1044.9557	1064.2841	1077.0129	1098.5569	1119.0415	1133.6533	1160.3751	1175.379	1207.1847	1229.5746	1241.898	1257.8332	1270.7911	1284.3741	1347.1357	1365.307	1413.4548	1423.7825	1484.7408	1510.3566	1513.872	2979.5804	3025.37	3048.9124	3054.278	3068.6392	3075.0212	3087.9743	3094.9097	3102.6946	3115.3705
C1C2C3CCOC2C13	C1[C@H]2[C@@H]3CCO[C@H]2[C@H]13	
InChI=1S/C7H10O/c1-2-8-7-5-3-6(7)4(1)5/h4-7H,1-3H2	InChI=1S/C7H10O/c1-2-8-7-5-3-6(7)4(1)5/h4-7H,1-3H2/t4-,5-,6+,7+
