18
gdb 85144	2.1099	1.76339	1.14522	3.1952	72.87	-0.2329	-0.0338	0.1991	1098.2517	0.146097	-439.045266	-439.036612	-439.035668	-439.078955	31.42	
C	-0.2187870484	 1.5199265516	-0.0824561611	-0.338487
N	-0.0638329347	 0.0899658596	 0.0743339746	-0.12674
C	-1.2522141013	-0.7342656689	 0.3810769407	-0.29464
C	-0.3559060249	-1.5317557356	 1.3395419561	 0.340813
O	-0.4554411494	-2.5408369999	 1.9691248355	-0.289883
C	 0.741404591	-0.4761729155	 1.1668829285	 0.155242
C	 2.2322086887	-0.8201568563	 0.9983441288	-0.11635
O	 2.5804976192	-0.1443778272	 2.2226414725	-0.268142
C	 1.2314882619	 0.306174153	 2.4235268517	-0.131639
H	 0.7609486251	 1.9900129509	-0.2114187712	 0.133452
H	-0.8053924017	 1.7251596615	-0.9834687078	 0.131006
H	-0.7266486536	 2.0075526142	 0.7691868629	 0.101497
H	-2.0552462954	-0.2065860491	 0.9234184944	 0.11724
H	-1.6899407437	-1.2669623724	-0.4699230321	 0.133225
H	 2.4800509349	-1.8876310013	 1.0280644751	 0.119835
H	 2.6888057147	-0.3567416068	 0.1143324332	 0.108449
H	 1.1396055063	 1.3973947686	 2.3481595007	 0.106645
H	 0.8196365714	-0.0286547663	 3.3829118576	 0.118477
81.043	90.0663	160.0661	203.4934	228.5642	252.0071	280.5672	400.659	504.7492	563.3399	570.8598	634.0816	747.225	854.2581	892.8487	956.5892	957.5411	987.7971	1040.917	1045.4954	1072.0127	1116.9334	1135.9751	1157.5012	1159.4898	1169.8825	1199.6286	1240.0329	1278.2853	1298.7565	1316.5736	1366.8208	1452.5817	1478.5173	1491.0015	1496.6763	1505.5619	1521.9475	1916.6954	2942.3743	2967.0784	3007.5332	3018.9443	3060.9821	3065.1328	3065.457	3067.9398	3106.6324
CN1CC(=O)C11COC1	CN1CC(=O)C21COC2	
InChI=1S/C6H9NO2/c1-7-2-5(8)6(7)3-9-4-6/h2-4H2,1H3	InChI=1S/C6H9NO2/c1-7-2-5(8)6(7)3-9-4-6/h2-4H2,1H3
