12
gdb 131582	7.53874	0.65406	0.60412	4.4817	69.69	-0.2749	-0.0799	0.195	1690.2258	0.075719	-468.701456	-468.693245	-468.6923	-468.736419	27.418	
O	 0.0148817796	 1.4268643756	 0.009187861	-0.401593
C	-0.007934999	 0.0110382794	 0.0024200937	-0.224409
C	-1.3907172847	-0.4503236467	 0.0126726774	 0.273607
C	-2.5235970434	-0.8569596844	 0.0209395576	 0.002123
C	-3.8407988352	-1.355246234	 0.030487014	 0.239435
N	-4.9315082329	-0.6283918877	 0.0413074307	-0.145349
O	-5.9367341915	-1.525974929	 0.0472971352	-0.137294
N	-5.3983748314	-2.816822801	 0.0395872913	 0.021795
N	-4.1501920554	-2.7148037767	 0.0296030862	-0.197042
H	 0.9371427387	 1.7031251382	 0.0013241787	 0.299226
H	 0.4896180915	-0.4045433278	-0.8893836576	 0.134749
H	 0.5056647036	-0.413260276	 0.8809256418	 0.134752
22.1516	75.8419	107.9124	205.446	210.4096	302.7385	424.3532	490.5469	521.6584	626.7377	666.1091	668.411	780.234	951.6517	968.1271	1019.41	1059.1787	1077.4458	1111.4533	1244.5619	1249.4773	1278.954	1457.2667	1495.7118	1502.0927	1565.5722	2378.5289	2966.1873	2986.5279	3822.2146
OCC#CC1=NON=N1	OCC#Cc1nonn1	
InChI=1S/C4H3N3O2/c8-3-1-2-4-5-7-9-6-4/h8H,3H2	InChI=1S/C4H3N3O2/c8-3-1-2-4-5-7-9-6-4/h8H,3H2
