21
gdb 114897	2.78141	1.49883	1.21468	1.039	77.84	-0.2256	0.0714	0.2969	1113.6134	0.184014	-424.211598	-424.203319	-424.202375	-424.244589	31.867	
C	 0.1080839698	 0.529425227	-0.6157810704	-0.241313
O	-0.454033594	-0.1911219837	 0.46454319	-0.23264
C	 0.4791623705	-0.5269883038	 1.4542223975	 0.114717
C	-0.1455735406	-1.3777788964	 2.5835455162	-0.279699
C	 0.8582469509	-2.5334417944	 2.2943394498	-0.038961
C	 0.2878456178	-3.7754856117	 1.596545497	-0.231641
C	 0.1279347831	-3.3058674039	 0.1408708634	-0.087721
O	 1.2094269877	-2.3992293799	-0.0844301396	-0.252254
C	 1.4688862869	-1.706910563	 1.1177092943	 0.073413
H	 0.856951924	-0.0664207399	-1.1507042815	 0.128893
H	-0.7099899442	 0.773882168	-1.2978935008	 0.12244
H	 0.5730448717	 1.4667245094	-0.2710996989	 0.098675
H	 1.0078971687	 0.3719947627	 1.8095839512	 0.055615
H	-0.0773372472	-0.9402884659	 3.5816798255	 0.101906
H	-1.1911249123	-1.6258493528	 2.3816875206	 0.107655
H	 1.5274517224	-2.7788810547	 3.1195861117	 0.069419
H	 1.0053619886	-4.6004817437	 1.6493169876	 0.104378
H	-0.6558243599	-4.1155274516	 2.0328248334	 0.102122
H	 0.2142168915	-4.1121741104	-0.5924357159	 0.104595
H	-0.8316288056	-2.7938378885	-0.008302552	 0.109534
H	 2.5321406404	-1.4551111526	 1.1415871109	 0.070869
73.1009	137.8494	177.5233	218.948	260.722	287.9024	360.1459	427.1864	579.3184	626.8598	650.6051	743.9224	787.915	838.5746	865.1298	904.4688	935.0973	958.0923	976.2365	983.7837	1021.5019	1064.1147	1115.4005	1129.5377	1149.9752	1153.8407	1175.6386	1186.7813	1218.6452	1232.6002	1250.595	1259.2536	1272.5467	1290.0818	1312.3752	1330.1646	1349.9095	1372.9153	1393.5604	1471.8051	1479.5834	1484.7769	1485.9326	1512.8711	1519.3021	2965.8988	2981.7019	3020.7733	3049.2904	3061.4221	3062.4375	3073.7512	3090.4532	3098.4136	3104.1477	3116.507	3120.9498
COC1CC2CCOC12	CO[C@H]1C[C@H]2CCO[C@@H]12	
InChI=1S/C7H12O2/c1-8-6-4-5-2-3-9-7(5)6/h5-7H,2-4H2,1H3	InChI=1S/C7H12O2/c1-8-6-4-5-2-3-9-7(5)6/h5-7H,2-4H2,1H3/t5-,6+,7-/m1/s1
