21
gdb 102308	2.67721	0.93152	0.73123	3.3762	80.35	-0.227	0.0252	0.2522	1576.2947	0.180863	-420.398674	-420.387936	-420.386992	-420.435119	37.923	
C	 0.6885914169	 0.316557224	-0.5531786174	-0.330629
N	 0.1763305843	-0.3288010643	 0.6498517321	-0.057575
C	 0.2739501995	 0.5593049265	 1.8001983155	-0.31946
C	-1.173563056	-0.850066464	 0.4997057135	-0.156357
C	-1.2595648744	-2.1013092571	-0.4076419971	-0.152746
C	-2.4678542448	-2.99261558	-0.0119679305	-0.069275
O	-2.5916534115	-4.1409999572	-0.8134576189	-0.414743
C	-1.3851282611	-1.7802910249	-1.8309825295	 0.261258
N	-1.5500473112	-1.5695375449	-2.9565888422	-0.340754
H	 1.714823492	 0.6495406099	-0.3728652772	 0.121689
H	 0.7075657549	-0.3820193818	-1.3922249086	 0.141444
H	 0.0907599747	 1.1960410479	-0.8582673455	 0.099962
H	-0.3437578125	 1.4723751009	 1.7030493983	 0.09668
H	-0.0386288832	 0.0328941257	 2.7075045327	 0.118903
H	 1.3140731788	 0.8722995724	 1.9311484579	 0.123897
H	-1.514932032	-1.1580055606	 1.4944555754	 0.107239
H	-1.8906126921	-0.0872273047	 0.1404785831	 0.09675
H	-0.3441079475	-2.6873654818	-0.2708734437	 0.142815
H	-2.3068827284	-3.3448164253	 1.0111820453	 0.124519
H	-3.3828380087	-2.3805637125	-0.0184307571	 0.106779
H	-2.8030604377	-3.862170608	-1.7121962458	 0.299604
43.4687	75.4225	108.1357	146.6215	181.9414	227.7441	248.5686	259.2788	306.9312	335.5508	369.6496	380.6271	449.8373	468.9864	562.137	633.1799	810.3004	847.063	928.6371	1032.1513	1056.8103	1065.4809	1068.3655	1082.2559	1099.1019	1121.858	1175.2701	1204.2086	1217.4253	1245.1157	1307.2412	1315.6553	1371.8135	1390.1786	1405.5236	1425.8818	1447.5857	1474.1408	1483.1626	1493.0422	1498.7304	1502.4715	1508.1314	1513.1465	2344.9641	2921.0667	2928.8869	2939.4144	2989.9725	3054.249	3062.2624	3063.2975	3078.019	3090.6065	3107.0647	3127.2563	3793.9278
CN(C)CC(CO)C#N	CN(C)C[C@@H](CO)C#N	
InChI=1S/C6H12N2O/c1-8(2)4-6(3-7)5-9/h6,9H,4-5H2,1-2H3	InChI=1S/C6H12N2O/c1-8(2)4-6(3-7)5-9/h6,9H,4-5H2,1-2H3/t6-/m0/s1
