15
gdb 24465	3.95223	1.66851	1.17321	5.0927	85.02	-0.1953	-0.0319	0.1634	974.0713	0.118218	-379.743931	-379.737899	-379.736955	-379.774089	25.029	
N	-0.0049572194	 1.3197113566	 0.0095640492	-0.30386
C	 1.1196860314	 2.1083602678	 0.002897489	-0.004643
C	 2.3653583206	 1.5455537456	-0.0121817983	-0.26555
C	 2.4830282941	 0.1381152134	-0.0208601996	 0.304883
C	 3.5089886907	-0.7972559176	-0.0358285388	-0.329372
C	 2.8579215761	-2.0582123645	-0.036233534	-0.032401
N	 1.5203720524	-2.0008617746	-0.0229849756	-0.364027
C	 1.2544131089	-0.6636994552	-0.0132570463	 0.237937
C	 0.0359849928	-0.0393574944	 0.001887007	-0.078177
H	-0.9048448034	 1.7720903659	 0.0207036864	 0.272156
H	 0.9410998551	 3.1746575847	 0.0103343136	 0.12977
H	 3.2342452971	 2.193895666	-0.0171302992	 0.107162
H	 4.5735504151	-0.615908653	-0.0451902044	 0.087708
H	 3.3563373965	-3.0223402915	-0.046225167	 0.093364
H	-0.9109383881	-0.5635347692	 0.008255448	 0.145049
221.8088	245.1904	412.9515	421.5464	563.5453	563.6388	607.7665	614.7296	638.3947	754.1436	767.3379	777.8563	813.3182	895.6178	895.8122	903.5448	927.7687	939.0124	1022.0191	1050.617	1145.047	1207.4253	1242.0017	1257.6777	1312.9695	1325.6866	1395.4828	1421.4732	1440.1863	1523.4433	1575.7982	1624.1653	1662.6896	3186.1894	3193.4461	3221.4665	3231.7977	3240.3187	3648.0007
N1C=CC2=CC=NC2=C1	[nH]1ccc2ccnc2c1	
InChI=1S/C7H6N2/c1-3-8-5-7-6(1)2-4-9-7/h1-5,8H	InChI=1S/C7H6N2/c1-3-8-5-7-6(1)2-4-9-7/h1-5,8H
