15
gdb 130264	4.08819	0.98525	0.79855	2.8472	73.31	-0.2298	0.0026	0.2324	1352.9715	0.112048	-416.770889	-416.762467	-416.761523	-416.804617	31.189	
N	 0.1947370939	 1.4134033439	 0.0613662276	-0.58827
C	 0.1439523853	 0.0422623493	-0.1187629613	 0.419129
N	-0.5890575657	-0.4898258865	-1.0734767256	-0.232137
O	-0.3250088808	-1.8696956826	-1.0095356941	-0.224415
C	 0.5390039632	-2.1036834105	-0.0112751371	 0.470276
C	 0.9234351889	-3.5390081629	 0.1932939735	-0.484841
C	 1.8459067848	-3.7372315947	 1.3038070921	 0.312168
C	 2.606188699	-3.9063121544	 2.217678657	-0.437302
C	 0.8848163298	-0.9451838499	 0.6017729145	-0.405742
H	 0.2757576099	 1.7028199576	 1.0252670755	 0.255137
H	-0.5528568796	 1.9000987858	-0.4152273352	 0.260395
H	 0.0120565677	-4.1310306432	 0.3518489837	 0.162886
H	 1.3664267902	-3.9233094464	-0.7354099065	 0.164165
H	 3.2791548031	-4.0618578086	 3.0243501785	 0.203641
H	 1.5676024003	-0.8108925768	 1.4230529875	 0.124911
39.4479	107.2287	175.0635	268.3493	308.8254	325.6316	363.666	422.3521	449.5362	612.0955	627.5028	639.3153	657.0115	674.324	742.1198	773.641	799.0031	938.5085	955.4969	978.0274	1001.8459	1040.2944	1139.9276	1160.2581	1219.8273	1259.3263	1369.0592	1457.6731	1501.4604	1546.5799	1641.1165	1670.7555	2249.5522	3018.0752	3043.1745	3285.8168	3505.4696	3557.5192	3658.4523
NC1=NOC(CC#C)=C1	Nc1noc(CC#C)c1	
InChI=1S/C6H6N2O/c1-2-3-5-4-6(7)8-9-5/h1,4H,3H2,(H2,7,8)	InChI=1S/C6H6N2O/c1-2-3-5-4-6(7)8-9-5/h1,4H,3H2,(H2,7,8)
