12
gdb 129395	4.4705	1.15067	0.9156	2.9323	59.15	-0.2686	-0.0717	0.1969	1150.6937	0.077806	-505.961874	-505.954323	-505.953379	-505.99449	27.339	
N	-0.0063837517	 1.3196352013	 0.1312642027	-0.528386
C	 0.056429842	-0.0417125651	 0.0255238869	 0.281712
N	 1.1576037724	-0.6827317111	-0.045811592	-0.505323
C	-1.2742188696	-0.6976778091	 0.0350732698	 0.421908
N	-2.4107045006	-0.1023685659	 0.0472456175	-0.182002
O	-3.3597890102	-1.1465834047	 0.0250495862	-0.225202
C	-2.707499505	-2.3420795163	 0.0014938358	 0.515495
O	-3.184022132	-3.422969117	-0.0200322755	-0.342529
O	-1.3511657825	-2.0458009152	 0.0074949485	-0.233458
H	 0.8518145406	 1.8138715966	-0.0546524864	 0.272991
H	-0.8688594228	 1.7869986409	-0.0955697607	 0.280795
H	 1.0010673194	-1.6878066544	-0.0630253628	 0.243999
63.8299	142.3135	178.1967	288.9632	346.1464	390.0009	444.4425	461.6334	587.8459	603.6683	643.9493	754.4337	772.4759	782.8166	850.8858	887.8267	947.0886	996.6341	1117.1554	1130.7664	1159.0982	1317.4432	1473.9166	1621.8083	1652.2988	1728.0739	1965.0105	3528.1303	3595.7674	3720.0559
NC(=N)C1=NOC(=O)O1	NC(=N)c1noc(=O)o1	
InChI=1S/C3H3N3O3/c4-1(5)2-6-9-3(7)8-2/h(H3,4,5)	InChI=1S/C3H3N3O3/c4-1(5)2-6-9-3(7)8-2/h(H3,4,5)
