16
gdb 18509	5.95715	1.16477	1.09147	4.2508	66.49	-0.271	0.0115	0.2825	1080.6872	0.130429	-383.731186	-383.723884	-383.72294	-383.763788	26.538	
O	-0.1103354361	-0.0016723799	-0.1278854087	-0.277572
C	-0.0437112218	 1.1906087523	-0.1087576536	 0.165522
O	 1.0922953607	 1.8565458057	 0.162566935	-0.189486
C	 1.0677891251	 3.2867654325	 0.1686531215	 0.126208
C	 1.6159896906	 3.9679693744	 1.4594455289	-0.269112
C	 2.646732952	 4.6988469918	 0.5891040782	-0.041758
C	 3.5101120709	 3.6930372357	-0.108082133	-0.272493
C	 2.1395405025	 3.9694908605	-0.6661629239	-0.068838
H	-0.8992399705	 1.8662185008	-0.3101252319	 0.073884
H	 0.0589998385	 3.6325030418	-0.0798619244	 0.091014
H	 0.8761079725	 4.6163044728	 1.9330843181	 0.111256
H	 2.0256897712	 3.2839305522	 2.20799857	 0.116877
H	 2.9238430525	 5.7399310773	 0.6877941664	 0.095894
H	 4.3231870528	 4.0994569212	-0.7002321033	 0.118423
H	 3.7286612153	 2.7362799135	 0.3579804715	 0.128159
H	 1.9959191536	 4.3426750275	-1.672564851	 0.092022
41.2894	111.2868	153.5905	300.626	347.0542	391.9376	477.6425	642.7939	718.6923	783.4	809.535	872.7099	929.936	961.2892	978.1775	1021.4615	1029.6226	1044.9358	1056.9046	1068.6694	1087.8659	1117.9025	1146.0656	1199.0469	1213.8658	1241.0521	1264.652	1312.6377	1368.4647	1381.0303	1441.4576	1479.8841	1499.186	1864.8589	2935.6552	3050.2201	3061.846	3119.251	3122.875	3186.3079	3201.8561	3214.1063
O=COC1CC2CC12	O=CO[C@H]1C[C@H]2C[C@@H]12	
InChI=1S/C6H8O2/c7-3-8-6-2-4-1-5(4)6/h3-6H,1-2H2	InChI=1S/C6H8O2/c7-3-8-6-2-4-1-5(4)6/h3-6H,1-2H2/t4-,5-,6+/m1/s1
