14
gdb 129440	2.92956	1.53655	1.0083	6.4236	65.98	-0.2268	-0.0231	0.2037	1076.4449	0.103246	-470.068909	-470.061189	-470.060245	-470.101214	29.083	
N	 0.0892060668	 1.3073276477	-0.0414922912	-0.54763
C	 0.0176940046	-0.0544688072	-0.0613129428	 0.359456
O	 1.0404256633	-0.7436094441	-0.1315152295	-0.419586
C	-1.2946486044	-0.6890435825	-0.0257870984	 0.007048
C	-2.6013058348	-0.2226807923	 0.0124667308	-0.159469
N	-3.3867773411	-1.310882315	 0.0359706212	-0.182606
N	-2.7053905598	-2.4918293669	 0.0125321551	-0.312371
C	-1.4379026123	-2.1137547388	-0.0270278631	 0.396661
O	-0.438660568	-2.9901051939	-0.0631830984	-0.407754
H	 1.0069882877	 1.7109168552	 0.057870271	 0.265777
H	-0.7001988736	 1.8680275924	 0.2277982128	 0.25937
H	-3.0172182854	 0.7733019248	 0.0149407001	 0.139324
H	-4.3913413637	-1.3419716844	 0.0590159433	 0.282651
H	 0.3748374907	-2.4381778149	-0.105934741	 0.31913
86.1049	177.9303	208.4969	264.881	330.6349	359.9335	465.2814	479.239	530.5499	552.4638	646.585	678.2586	717.2716	745.5913	761.4975	766.5494	811.9929	939.8345	1070.9392	1084.8628	1129.3578	1229.6412	1290.1767	1332.4688	1423.8282	1488.8008	1507.3954	1542.0286	1611.3282	1641.1835	1732.0358	3248.3153	3445.9921	3600.8549	3684.9028	3732.4731
NC(=O)C1=CNN=C1O	NC(=O)c1c[nH]nc1O	
InChI=1S/C4H5N3O2/c5-3(8)2-1-6-7-4(2)9/h1H,(H2,5,8)(H2,6,7,9)	InChI=1S/C4H5N3O2/c5-3(8)2-1-6-7-4(2)9/h1H,(H2,5,8)(H2,6,7,9)
