21
gdb 79350	2.32148	1.87622	1.74918	1.4011	79.36	-0.2181	0.0779	0.296	958.5153	0.186371	-387.099872	-387.092625	-387.091681	-387.131108	30.18	
C	-0.0204302768	 1.5884355096	-0.0786064682	-0.414465
C	 0.0775143107	 0.0617800288	-0.0447618891	 0.022824
C	 0.7820914265	-0.6014809135	-1.2226085842	-0.123442
C	 2.2969771702	-0.7375504113	-1.0864566439	-0.075044
C	 3.0475988626	 0.0613191684	-0.0299918886	-0.226785
C	 2.2552353906	 0.1187802779	 1.3060887457	-0.210623
C	 0.884654834	-0.5452387243	 1.1313286092	 0.048721
O	 1.1050622183	-1.9109925514	 0.738673828	-0.26843
C	 1.3854343386	-1.8524757386	-0.6434550459	 0.088046
H	 0.955915	 2.0635351138	-0.2093660983	 0.120317
H	-0.6536773812	 1.9109910541	-0.9113257171	 0.115399
H	-0.4667584536	 1.9796266099	 0.8425637947	 0.113137
H	-0.9396589816	-0.3487656458	 0.0075736562	 0.077184
H	 0.3260035563	-0.577343436	-2.2056919703	 0.079559
H	 2.832968895	-0.9029609449	-2.0167321181	 0.079324
H	 4.0291423649	-0.3959174174	 0.1346405984	 0.103563
H	 3.2439856343	 1.0710271537	-0.4083692791	 0.099824
H	 2.7871070647	-0.4251058125	 2.0917719261	 0.105634
H	 2.1392252206	 1.14928987	 1.6556316753	 0.096431
H	 0.3269050484	-0.5629480768	 2.0709336176	 0.074247
H	 1.3728808875	-2.8286208438	-1.1122255583	 0.094581
152.3611	193.9461	236.5971	271.2687	396.8695	435.8802	527.3868	550.9275	613.5378	678.6368	760.9981	770.4095	801.2138	819.2537	867.3282	892.4234	906.9478	947.359	980.2295	1006.5816	1042.9646	1058.3883	1077.1042	1083.4219	1095.1095	1103.2472	1132.5114	1150.6902	1161.5003	1215.6948	1259.293	1270.6287	1290.0989	1320.5422	1334.9484	1346.972	1364.288	1382.2735	1387.2098	1415.0688	1434.3258	1479.9071	1497.1594	1502.1275	1512.0836	3013.7068	3029.4443	3033.4739	3052.5556	3059.8395	3081.7047	3093.3784	3095.1595	3113.1401	3144.3494	3170.9377	3191.8694
CC1C2C3CCC1OC23	C[C@H]1[C@H]2[C@H]3CC[C@@H]1O[C@@H]23	
InChI=1S/C8H12O/c1-4-6-3-2-5-7(4)8(5)9-6/h4-8H,2-3H2,1H3	InChI=1S/C8H12O/c1-4-6-3-2-5-7(4)8(5)9-6/h4-8H,2-3H2,1H3/t4-,5-,6+,7+,8-/m1/s1
