19
gdb 33194	6.13826	0.74227	0.67047	1.1869	79.65	-0.1911	0.0386	0.2297	1688.2941	0.158727	-423.051025	-423.041883	-423.040939	-423.086834	32.682	
C	-0.0318883084	 1.5174141989	 0.0091846553	-0.385303
C	-0.0700969232	-0.0131745538	 0.0032626391	-0.186895
C	-1.4934300659	-0.5464814399	 0.0136652745	-0.054769
O	-1.4183286199	-1.9786673442	 0.0073706318	-0.279145
C	-2.5647980176	-2.6630967563	 0.0142327375	 0.454478
C	-2.7862272592	-4.0064637476	 0.0104190714	-0.321686
C	-4.2152348597	-4.1519823373	 0.0221392753	-0.159664
C	-4.741125438	-2.9039674898	 0.0317728261	-0.036479
O	-3.7275206875	-1.970255803	 0.0270956703	-0.187239
H	 0.9991214582	 1.8814149572	 0.0014714799	 0.121424
H	-0.5379762958	 1.9336536366	-0.8686933666	 0.119983
H	-0.5222040988	 1.9264176298	 0.8993270586	 0.119985
H	 0.4446786646	-0.4035728274	-0.8818318872	 0.112029
H	 0.4601909674	-0.4107666941	 0.8759095748	 0.112034
H	-2.0377620087	-0.2103645683	 0.9050821177	 0.113281
H	-2.053334062	-0.2033936086	-0.8653565262	 0.11329
H	-2.0346881464	-4.7773188369	 0.0007076757	 0.10713
H	-4.7705315647	-5.07712734	 0.0230404887	 0.108702
H	-5.7385178341	-2.5008708553	 0.0419468633	 0.128844
21.3448	59.4095	113.0921	122.177	235.3953	289.0736	291.2273	342.7011	514.4181	607.1659	643.6139	701.0896	731.012	758.9579	765.7006	838.2916	896.1763	897.2982	913.7076	954.0375	1025.3617	1039.0726	1058.5182	1098.9756	1143.0472	1176.6704	1187.1597	1250.1501	1267.31	1299.0812	1315.9283	1335.1842	1411.1778	1420.4198	1430.5339	1492.4733	1502.0343	1506.301	1521.3968	1564.1048	1657.4641	3017.4762	3034.5768	3042.6146	3053.2464	3079.0725	3104.2322	3112.7269	3253.5176	3278.8469	3298.6751
CCCOC1=CC=CO1	CCCOc1ccco1	
InChI=1S/C7H10O2/c1-2-5-8-7-4-3-6-9-7/h3-4,6H,2,5H2,1H3	InChI=1S/C7H10O2/c1-2-5-8-7-4-3-6-9-7/h3-4,6H,2,5H2,1H3
