16
gdb 32381	6.48896	0.84862	0.75575	5.185	83.56	-0.1973	-0.018	0.1792	1441.812	0.126174	-396.974013	-396.9655	-396.964556	-397.007263	31.312	
C	-0.0207343383	 1.4339731644	-0.0944409387	-0.325075
N	 0.0235107685	 0.0077899205	 0.169094159	-0.388897
C	-1.1689132303	-0.7085320396	 0.0851206237	 0.337164
C	-2.4588337305	-0.1922985662	 0.0680060143	-0.159246
N	-3.3366892715	-1.2447973328	 0.0441816275	-0.329368
C	-2.6389150274	-2.4274603305	 0.0311649006	 0.256497
C	-1.2861899303	-2.1219241041	 0.0593457991	-0.365241
C	-3.2925415883	-3.6765977648	-0.0038608026	 0.204966
N	-3.8428393809	-4.6973343314	-0.0337914731	-0.353049
H	 0.9932344216	 1.8380527829	-0.0554799287	 0.126653
H	-0.4649567177	 1.6903659926	-1.0706785208	 0.109213
H	-0.6068876413	 1.9366252032	 0.6833875178	 0.131393
H	 0.7899229684	-0.4580923174	-0.2942933539	 0.236992
H	-2.8120767495	 0.8244698906	 0.0778798601	 0.126904
H	-4.3387633285	-1.1724583987	 0.0270786589	 0.276802
H	-0.4823936839	-2.8412250988	 0.0670119369	 0.114292
74.9617	133.0164	153.3259	200.281	236.8843	324.9228	404.5452	421.3082	510.3574	520.4592	578.2006	624.7153	639.5612	673.0877	715.2047	729.1319	810.7695	977.9291	998.2019	1082.011	1140.309	1146.1377	1162.3552	1205.9578	1279.9579	1338.7988	1403.0492	1460.616	1460.9388	1482.0706	1491.4319	1519.6839	1551.6586	1633.7822	2331.7874	2965.7131	3056.9863	3120.3754	3259.1249	3281.2241	3593.7171	3689.5175
CNC1=CNC(=C1)C#N	CNc1c[nH]c(c1)C#N	
InChI=1S/C6H7N3/c1-8-6-2-5(3-7)9-4-6/h2,4,8-9H,1H3	InChI=1S/C6H7N3/c1-8-6-2-5(3-7)9-4-6/h2,4,8-9H,1H3
