16
gdb 29825	3.27094	1.39635	0.98454	1.1204	79.45	-0.1846	-0.0544	0.1303	1142.6648	0.12569	-434.098448	-434.090405	-434.089461	-434.130928	30.542	
C	-0.0312358137	 1.4469430634	 0.0345033657	-0.32391
N	-0.0026061021	-0.0071480944	-0.0009191546	-0.082987
C	-0.0208312696	-0.6882602403	-1.1908416111	-0.085394
C	 0.0065423344	-2.0472906401	-1.1974557955	 0.34886
O	-0.0107534991	-2.7432038264	-2.3658340287	-0.435968
N	 0.0521713977	-2.7658212531	-0.0429357628	-0.315693
C	 0.0693964025	-2.1224631366	 1.083685257	-0.070273
C	 0.0437395309	-0.6714481823	 1.2276237584	 0.338829
N	 0.058501822	 0.0237472589	 2.315291884	-0.583847
H	 0.8543103443	 1.8226419873	 0.5546007626	 0.157923
H	-0.0648214614	 1.8308356596	-0.9855100018	 0.126318
H	-0.9038651395	 1.7871631456	 0.5990172585	 0.15781
H	-0.0570952756	-0.0991617916	-2.0963866512	 0.139582
H	 0.0148215882	-3.6752333915	-2.1167604349	 0.297794
H	 0.1059134784	-2.7055132184	 2.0022240839	 0.12146
H	 0.0927404429	-0.5980154301	 3.1211650204	 0.209497
96.2761	154.4299	180.911	319.7474	327.0044	357.9237	365.012	416.1057	455.5986	547.7791	580.9508	583.6258	751.4929	761.9755	767.2899	828.1354	843.6822	926.896	955.9663	1071.1659	1105.662	1152.4357	1172.7829	1212.7879	1295.776	1342.2616	1366.4005	1419.157	1455.2409	1459.5785	1475.3618	1515.541	1558.0357	1645.8535	1714.2711	3049.4396	3111.101	3146.5559	3152.1268	3230.9828	3497.8257	3800.1964
CN1C=C(O)N=CC1=N	Cn1cc(O)ncc1[NH]	
InChI=1S/C5H7N3O/c1-8-3-5(9)7-2-4(8)6/h2-3,6,9H,1H3	InChI=1S/C5H12N3O/c1-8-3-5(9)7-2-4(8)6/h4-7,9H,2-3H2,1H3
