15
gdb 11324	4.61906	1.49152	1.1444	1.4369	65.21	-0.2436	0.0044	0.248	998.6424	0.12008	-396.041858	-396.033957	-396.033013	-396.074528	27.846	
C	-0.0584169134	 1.4064188276	-0.0289674026	-0.341755
N	-0.0235560697	-0.04823548	-0.0309810909	-0.313129
C	 0.5679055732	-0.621512908	 0.9289464102	 0.424756
C	 0.6988056398	-2.1346088605	 1.0729165002	-0.254448
N	 1.3367998173	-2.2693438258	 2.3700806715	-0.355035
C	 1.7272228424	-1.0652518844	 2.9045298252	 0.46078
O	 2.3622382895	-0.8603183176	 3.9101436478	-0.395904
N	 1.2176259302	-0.0889750701	 2.0329587869	-0.406557
H	 0.9493298822	 1.8467144344	-0.0774190879	 0.114174
H	-0.6137908457	 1.7576343704	-0.901463188	 0.130851
H	-0.5554759909	 1.8109026241	 0.8663403646	 0.113189
H	-0.2861901835	-2.6106008551	 1.0340526504	 0.144987
H	 1.3064039561	-2.5409149801	 0.254875712	 0.140549
H	 1.761821462	-3.1169935888	 2.7029253492	 0.265031
H	 1.3160155405	 0.8892299638	 2.2424272212	 0.27251
86.7652	109.607	135.4576	196.5777	229.1729	378.9927	439.2624	489.4554	534.3641	613.4529	642.8477	723.6909	765.8677	892.9058	981.5686	1019.853	1035.0207	1084.5048	1110.6772	1168.3315	1193.9248	1207.5625	1305.3152	1353.7812	1384.0943	1430.3213	1441.3349	1494.0468	1508.7485	1511.3855	1788.5691	1872.6582	2974.3386	3022.3497	3030.2548	3073.6602	3107.5915	3683.2414	3687.2786
CN=C1CNC(=O)N1	CN=C1CNC(=O)N1	
InChI=1S/C4H7N3O/c1-5-3-2-6-4(8)7-3/h2H2,1H3,(H2,5,6,7,8)	InChI=1S/C4H7N3O/c1-5-3-2-6-4(8)7-3/h2H2,1H3,(H2,5,6,7,8)
