21
gdb 95560	2.33914	1.45794	1.05505	1.1116	86.84	-0.2192	-0.0144	0.2047	1201.4513	0.184418	-387.097228	-387.08874	-387.087796	-387.129873	33.755	
O	-0.1602757677	 1.4833872602	-0.1953683309	-0.436959
C	-0.0280155791	 0.0706958375	-0.0279672226	 0.113285
C	-1.4631582899	-0.447420086	 0.0842219156	-0.181132
C	-1.5735422283	-1.9828252238	 0.1113286983	-0.271186
C	-0.740677275	-2.6083165332	 1.1946122302	-0.055896
C	 0.5482252888	-2.9473116164	 1.0640321749	-0.080965
C	 1.3725717727	-2.8283797774	-0.1415522138	-0.086818
C	 1.4241864747	-1.8735206642	-1.083101044	-0.060272
C	 0.7684966687	-0.5197631382	-1.2065535857	-0.265097
H	 0.717298501	 1.8734393137	-0.1331212359	 0.277044
H	 0.510635986	-0.146484586	 0.9042497592	 0.077862
H	-1.9088998641	-0.0172003605	 0.9879247372	 0.10126
H	-2.0315385384	-0.0509148122	-0.765414041	 0.10332
H	-2.6259634913	-2.2574873687	 0.2417325767	 0.097418
H	-1.2563713659	-2.3811815049	-0.8594773096	 0.113468
H	-1.224178315	-2.7777763964	 2.1544219551	 0.086385
H	 1.0379531816	-3.4312808504	 1.9077430028	 0.085018
H	 2.0590336365	-3.6635405758	-0.2833442475	 0.086826
H	 2.110751622	-2.067419322	-1.9071961471	 0.087344
H	 0.1429705232	-0.4964167703	-2.1117149835	 0.114763
H	 1.5800686095	 0.191776835	-1.4243881281	 0.094331
123.1451	143.5921	239.4503	258.3344	290.0619	291.3067	342.993	398.6906	430.2992	485.6292	550.3558	604.2754	701.3329	776.7081	804.5952	836.3221	868.2051	875.9317	907.5767	991.5489	1003.7533	1016.2719	1024.1277	1028.9028	1075.0508	1087.0432	1120.9298	1175.2392	1209.3083	1235.4432	1271.3736	1282.1503	1305.1222	1345.2055	1349.4933	1357.7269	1404.2885	1418.0841	1437.7726	1455.2013	1467.4998	1489.231	1500.7671	1695.7176	1708.3179	2986.5625	3001.9982	3019.4756	3030.7178	3036.4407	3069.1554	3082.8179	3106.4759	3126.2305	3134.5647	3155.9016	3815.5972
OC1CCC=CC=CC1	O[C@H]1CCC=CC=CC1	
InChI=1S/C8H12O/c9-8-6-4-2-1-3-5-7-8/h1-4,8-9H,5-7H2/b3-1-,4-2-	InChI=1S/C8H12O/c9-8-6-4-2-1-3-5-7-8/h1-4,8-9H,5-7H2/b3-1-,4-2-/t8-/m1/s1
