12
gdb 131025	2.31401	1.74665	0.99535	3.1918	71.34	-0.2903	-0.0892	0.201	1065.9659	0.079037	-431.709996	-431.70283	-431.701886	-431.742093	25.461	
O	-0.0567220546	-0.0067781985	-0.0005522752	-0.236135
C	-0.007679795	 1.1846506451	 0.0080081052	 0.182051
N	 1.200637068	 1.9254486548	 0.0002557675	-0.125098
N	 2.4096391318	 1.3253961847	-0.0177296585	-0.199196
C	 3.2873472287	 2.3133306575	-0.0198699076	 0.032935
C	 2.6642476094	 3.5853921185	-0.0033600982	-0.326591
C	 1.3178357134	 3.3072175428	 0.0094700088	 0.340992
C	 0.2024534561	 4.1770546593	 0.0284352735	 0.224129
N	-0.7113643937	 4.8883977545	 0.0439602619	-0.334708
H	-0.8780346778	 1.8608061251	 0.0227826763	 0.142503
H	 4.3442495741	 2.0906519277	-0.0332528211	 0.148132
H	 3.1213564898	 4.5610640285	-0.0010252927	 0.150985
133.9459	137.4996	159.1646	256.4794	267.7142	463.8368	497.5918	561.8962	626.8976	660.2537	691.8686	840.4722	842.3459	926.1622	934.0102	1029.0847	1054.3659	1108.9474	1238.7337	1295.3374	1345.3254	1368.8043	1449.7554	1463.1038	1580.6929	1859.0093	2346.5984	3018.1426	3252.7374	3282.5506
O=CN1N=CC=C1C#N	O=Cn1nccc1C#N	
InChI=1S/C5H3N3O/c6-3-5-1-2-7-8(5)4-9/h1-2,4H	InChI=1S/C5H3N3O/c6-3-5-1-2-7-8(5)4-9/h1-2,4H
