18
gdb 105967	4.43513	1.12108	1.11409	3.1892	76.	-0.2095	0.06	0.2695	1167.7001	0.146055	-401.822443	-401.814132	-401.813188	-401.8553	31.561	
C	 0.0298876534	 1.5049462555	 0.0123768494	-0.523275
C	-0.0623732125	 0.0210152701	-0.0730534399	 0.364379
C	 0.5275117971	-1.0179622499	-1.0703995722	-0.254414
C	 0.7686048913	-1.9199132634	 0.1115006775	-0.059704
N	 0.2190453034	-0.8913530385	 1.0959842657	-0.216239
C	-1.0985129325	-0.9581097815	 0.3590788771	-0.182669
C	-0.54497834	-2.0244993801	-0.6212347387	 0.390079
C	-1.1649631698	-3.1349561205	-1.3860983487	-0.241322
O	-1.6795165208	-4.0927025738	-0.4678641126	-0.415652
H	 1.0746596398	 1.8354974923	 0.009313255	 0.127513
H	-0.4832812048	 1.9844067066	-0.8288252128	 0.121001
H	-0.4322852875	 1.853212916	 0.9413824826	 0.135669
H	 1.0246447077	-0.9400454022	-2.0278122411	 0.092936
H	 1.5367875571	-2.6488908025	 0.3371064257	 0.100284
H	-2.0490163309	-0.8360781351	 0.8657038302	 0.093663
H	-1.965781329	-2.7414014482	-2.0335780599	 0.091566
H	-0.4025195862	-3.5787574473	-2.0487761255	 0.089218
H	-2.1916937759	-4.7369237576	-0.9662483118	 0.286966
84.6755	127.4568	200.4094	211.3482	255.823	277.7441	320.9295	407.7526	593.9023	635.8357	678.7839	749.2936	781.3084	824.8522	838.5792	870.3019	880.8904	930.5116	969.1824	987.0628	990.9545	1022.275	1052.378	1062.2119	1085.1684	1123.561	1144.0349	1184.7598	1231.949	1248.792	1265.0935	1313.9511	1393.3669	1411.16	1439.7664	1477.359	1484.5592	1490.9871	1505.3722	2953.8047	2980.2168	3026.5193	3089.6269	3107.6689	3177.7988	3189.0364	3209.0347	3822.5461
CC12C3C4N1C2C34CO	C[C@@]12[C@H]3[C@H]4N1[C@@H]2[C@@]34CO	
InChI=1S/C7H9NO/c1-6-3-4-7(3,2-9)5(6)8(4)6/h3-5,9H,2H2,1H3	InChI=1S/C7H9NO/c1-6-3-4-7(3,2-9)5(6)8(4)6/h3-5,9H,2H2,1H3/t3-,4-,5+,6+,7+,8?/m1/s1
