18
gdb 37018	3.24841	1.78623	1.49704	1.6021	80.18	-0.2179	-0.0009	0.217	928.2102	0.150672	-364.798987	-364.792416	-364.791472	-364.829405	28.056	
C	-0.0449030516	 1.5637523591	 0.0514803115	-0.33606
C	 1.4080193881	 2.0128615693	 0.1530277161	-0.062997
C	 2.2777105875	 1.0100989474	-0.0117416866	-0.150385
C	 1.5430587688	-0.2722065263	-0.2059473146	 0.252277
N	 0.6997640942	-0.641021299	 0.9797230168	-0.400318
C	 0.0845250334	 0.0584365074	-0.1607446095	 0.2716
C	-0.6134119595	-0.7733189124	-1.2333598879	-0.372185
C	 0.5163719117	-1.630015392	-1.7906618416	-0.075679
C	 1.7026038478	-1.3246147339	-1.2487418436	-0.18267
H	-0.6070511522	 1.8068119163	 0.9606536237	 0.119251
H	-0.5616193299	 2.0505722984	-0.7864694788	 0.103283
H	 1.6781923387	 3.0401804791	 0.3741909943	 0.093838
H	 3.3569131781	 1.0969292679	 0.0238368125	 0.095351
H	 0.4816758991	-1.6353110898	 0.9199309122	 0.22058
H	-1.4393215665	-1.3803220765	-0.8395663414	 0.112657
H	-1.0479058043	-0.1324615251	-2.0120861616	 0.114753
H	 0.3442662361	-2.4177885965	-2.5164319135	 0.097474
H	 2.6487331505	-1.7896475634	-1.5000908481	 0.099228
215.5812	220.7907	342.4877	377.1074	455.9228	499.5268	557.5733	616.3034	630.2606	726.5025	737.5511	790.7082	818.8438	828.3548	884.641	922.8414	935.5803	936.2461	954.2192	957.325	992.0927	1033.6662	1060.4122	1099.7167	1121.9146	1147.4153	1149.5496	1208.7138	1240.3138	1266.7388	1292.6355	1338.0066	1356.2658	1382.3504	1411.2413	1462.9877	1474.4505	1640.2609	1656.7322	3016.0206	3020.0077	3044.9625	3061.5502	3182.1818	3182.6208	3208.6589	3212.1264	3465.5993
C1C=CC23NC12CC=C3	C1C=C[C@@]23N[C@@]12CC=C3	
InChI=1S/C8H9N/c1-3-7-5-2-6-8(7,4-1)9-7/h1-3,5,9H,4,6H2	InChI=1S/C8H9N/c1-3-7-5-2-6-8(7,4-1)9-7/h1-3,5,9H,4,6H2/t7-,8+
