13
gdb 132021	2.36116	1.88124	1.04801	5.6033	65.59	-0.224	-0.0309	0.1931	1025.387	0.089343	-497.886249	-497.878775	-497.877831	-497.91812	28.269	
N	 0.087626928	 1.3774690236	 0.1698972384	-0.567671
C	-0.002719713	 0.013335097	 0.0604450386	 0.316376
C	-1.1629714905	-0.6926798507	 0.02387547	 0.022343
F	-2.3075377744	 0.0092447037	 0.02174713	-0.083046
C	-1.2113079771	-2.141259698	-0.0175637587	 0.298413
O	-2.2400379339	-2.8001382639	-0.0540969435	-0.384171
C	 0.1442667547	-2.7224184489	-0.0204505568	-0.268382
C	 1.240187404	-1.9560183419	 0.0034342283	 0.058182
O	 1.2036265521	-0.5949042781	 0.045186075	-0.217076
H	 0.9151677027	 1.7856709392	-0.2400746993	 0.268348
H	-0.7687407623	 1.8629752167	-0.0520824871	 0.277523
H	 0.2350424306	-3.8009783825	-0.0510422938	 0.131409
H	 2.263403459	-2.307030966	-0.0049129411	 0.147752
122.3079	191.5562	274.1532	276.0675	313.0911	351.1678	486.6557	489.4523	519.0052	560.2656	573.2895	663.924	693.3873	735.1177	838.7743	850.002	947.9201	980.1103	1045.606	1148.8396	1243.3422	1273.9577	1322.7563	1415.0153	1452.1832	1620.8212	1644.8785	1720.6393	1750.6228	3215.3555	3237.5018	3573.5784	3685.5142
NC1=C(F)C(=O)C=CO1	Nc1c(F)c(=O)cco1	
InChI=1S/C5H4FNO2/c6-4-3(8)1-2-9-5(4)7/h1-2H,7H2	InChI=1S/C5H4FNO2/c6-4-3(8)1-2-9-5(4)7/h1-2H,7H2
