14
gdb 24023	4.27199	1.2193	1.03474	4.14	73.17	-0.2403	0.005	0.2452	1093.6926	0.103994	-395.736288	-395.729338	-395.728394	-395.768269	25.507	
N	-0.2186333041	-1.1885842219	-0.2752680728	-0.315049
C	-0.1243772113	-0.0425809462	-0.1614578973	 0.29544
C	-0.0164989091	 1.4028659857	-0.0147712933	-0.342297
C	-0.3073402064	 1.9692033607	 1.4399240653	-0.180963
N	 1.0776849529	 2.4833086871	 1.4194420656	-0.006438
C	 2.1621688356	 3.1548129613	 1.8906844426	-0.020185
N	 3.1313828674	 3.097378002	 0.9930950758	-0.254287
C	 2.6688339645	 2.3796473333	-0.0904995319	-0.21828
C	 1.380687159	 1.9973885215	 0.1815949759	 0.31341
H	-0.6153939405	 1.8907899834	-0.7888781768	 0.150568
H	-1.071728413	 2.7473161059	 1.4818001851	 0.148985
H	-0.4868298149	 1.208843039	 2.2013712158	 0.159849
H	 2.2105181132	 3.6477450393	 2.8482769084	 0.143954
H	 3.289080037	 2.1972670389	-0.9525913725	 0.125293
85.6552	118.9643	179.7045	290.9266	417.3546	497.8464	562.0744	657.5012	663.0581	749.3307	772.9839	793.0723	839.4122	860.6847	936.0068	1013.7036	1048.1298	1096.4742	1120.5968	1145.5103	1178.4515	1227.1056	1247.0781	1292.5102	1324.9656	1372.6743	1418.7416	1461.9253	1510.3767	1561.1213	2362.9044	3075.2372	3080.0979	3144.9389	3268.9101	3271.8617
N#CC1CN2C=NC=C12	N#C[C@H]1Cn2cncc12	
InChI=1S/C6H5N3/c7-1-5-3-9-4-8-2-6(5)9/h2,4-5H,3H2	InChI=1S/C6H5N3/c7-1-5-3-9-4-8-2-6(5)9/h2,4-5H,3H2/t5-/m0/s1
