17
gdb 74159	2.84484	1.48783	1.06238	5.8541	78.16	-0.2198	-0.0036	0.2162	1111.6556	0.137168	-418.045119	-418.037022	-418.036078	-418.077326	32.06	
N	 0.0929054871	 1.3497544469	-0.106770554	-0.600506
C	-0.0039296857	-0.0174410562	-0.0156631596	 0.329999
C	-1.1017078598	-0.8048175219	-0.0169343712	-0.366872
C	-0.6899833959	-2.2170954814	 0.0006698485	 0.399057
O	-1.3634765463	-3.2232451067	-0.0857550007	-0.395543
N	 0.7049918796	-2.2037570679	 0.1503043115	-0.422346
C	 1.2188080786	-0.8734887769	 0.0230696181	 0.332605
C	 2.4504451391	-0.5511381774	-0.7954824366	-0.312948
C	 2.4978189101	-0.4461171606	 0.7090784251	-0.323432
H	 0.9081258681	 1.7778687015	 0.3052840324	 0.254412
H	-0.7538050399	 1.8641685915	 0.0831835909	 0.262637
H	-2.1362234372	-0.4969117843	-0.0458648499	 0.099789
H	 1.2276566101	-3.0036661192	-0.1699284581	 0.242829
H	 2.9648837489	-1.3818362427	-1.2666475829	 0.126453
H	 2.437049569	 0.3606457433	-1.3830457438	 0.130264
H	 2.5497114853	 0.5368698968	 1.1678652221	 0.111394
H	 3.027254839	-1.2155290647	 1.2597701381	 0.132206
117.2042	178.1471	228.1073	247.7992	328.1802	347.74	407.1241	450.2699	517.455	543.5788	549.4438	609.6688	675.0327	732.9237	747.5151	775.7392	824.3412	890.155	926.1921	942.1995	953.0676	1003.5094	1054.138	1070.3194	1090.0381	1189.2421	1192.7687	1236.7435	1276.5865	1329.5972	1391.825	1455.215	1463.746	1496.9212	1638.631	1686.8721	1814.587	3124.2206	3132.0502	3209.2573	3225.5276	3245.387	3575.3527	3639.7983	3675.7471
NC1=CC(=O)NC11CC1	NC1=CC(=O)NC21CC2	
InChI=1S/C6H8N2O/c7-4-3-5(9)8-6(4)1-2-6/h3H,1-2,7H2,(H,8,9)	InChI=1S/C6H8N2O/c7-4-3-5(9)8-6(4)1-2-6/h3H,1-2,7H2,(H,8,9)
