18
gdb 32207	2.78668	1.44528	1.02633	0.9344	82.08	-0.2274	-0.0159	0.2115	1174.3684	0.149819	-402.031361	-402.023289	-402.022345	-402.064142	30.933	
C	-0.0765303733	 1.5734783072	 0.070603945	-0.373333
C	 0.062182066	 0.0406848841	 0.0576206531	-0.288588
C	 0.743515478	-0.4839705114	-1.1815250249	 0.188341
C	 2.0595276285	-0.9252022749	-1.194144057	-0.152552
C	 2.6464952581	-1.3900336948	-2.3734924974	-0.133337
C	 1.8737483112	-1.4000231301	-3.522920965	-0.010882
N	 0.6001155345	-0.9854011347	-3.5493707273	-0.362135
C	 0.0710192667	-0.5464063329	-2.4173691241	 0.369063
O	-1.2183713937	-0.1333420241	-2.4640814821	-0.417031
H	 0.90462926	 2.0565694614	 0.022902054	 0.115153
H	-0.6659615878	 1.9149925262	-0.7841861372	 0.136001
H	-0.5761522378	 1.9083108634	 0.9850060984	 0.112105
H	 0.6296364579	-0.2838782782	 0.9369901345	 0.097788
H	-0.9347334738	-0.4065552757	 0.138233003	 0.118415
H	 2.6308689842	-0.908462284	-0.2701327897	 0.100181
H	 3.6725637371	-1.7372142834	-2.3932123084	 0.096303
H	 2.278443562	-1.7539793257	-4.4673736753	 0.108732
H	-1.4994227077	-0.2610969824	-3.3809776897	 0.295775
74.7481	127.2556	209.7346	222.5006	308.1008	353.9177	451.2135	476.4119	539.0916	574.2124	587.4386	608.8276	740.6029	785.6265	803.2119	823.8005	883.5751	965.811	974.5755	977.1881	1059.3052	1080.259	1090.5148	1127.9191	1189.5106	1234.2642	1271.6091	1318.1373	1342.0784	1358.5403	1362.3064	1404.2625	1474.8976	1491.7578	1496.7348	1503.7725	1510.4458	1633.1703	1643.9666	3035.1343	3039.2136	3073.8596	3107.3439	3125.0057	3161.8028	3168.3661	3206.1804	3764.8501
CCC1=CC=CN=C1O	CCc1cccnc1O	
InChI=1S/C7H9NO/c1-2-6-4-3-5-8-7(6)9/h3-5H,2H2,1H3,(H,8,9)	InChI=1S/C7H9NO/c1-2-6-4-3-5-8-7(6)9/h3-5H,2H2,1H3,(H,8,9)
