13
gdb 48027	5.69668	0.48366	0.44703	3.0384	91.2	-0.2587	-0.0678	0.1909	2236.1246	0.085412	-382.206101	-382.196485	-382.19554	-382.242565	32.146	
O	-0.0307546074	-0.1536893769	 0.001318212	-0.224948
C	-0.0015679808	 1.0548869831	 0.0070095035	 0.027101
C	 1.2079039803	 1.8401790751	 0.0000263162	 0.015478
C	 2.198809899	 2.5279906851	-0.0054758639	 0.135633
C	 3.4160749507	 3.337231143	-0.0124721892	-0.539367
C	 3.1687422733	 4.7766349827	-0.0024909736	 0.426034
C	 2.9750152732	 5.9693030848	 0.0056873556	-0.269503
C	 2.7555629889	 7.3123666675	 0.0149306359	 0.296947
C	 2.5619448679	 8.5037319813	 0.023118479	-0.537491
H	-0.9312303666	 1.658650828	 0.0183085557	 0.105978
H	 4.0324829186	 3.0598636844	 0.8548590506	 0.183041
H	 4.0162039063	 3.0691997536	-0.8940402038	 0.183043
H	 2.3904776065	 9.5517115083	 0.0303265719	 0.198054
31.3026	42.9946	127.5205	138.4828	174.6305	189.7448	331.6081	333.3332	388.271	460.8704	534.2983	545.7092	600.6338	600.9479	613.3477	741.0037	829.0366	916.3346	1021.774	1133.9402	1182.2131	1224.5418	1334.8054	1421.1775	1433.4869	1770.6137	2187.4673	2340.2843	2375.5382	2926.3634	3005.1988	3030.3551	3503.8203
O=CC#CCC#CC#C	O=CC#CCC#CC#C	
InChI=1S/C8H4O/c1-2-3-4-5-6-7-8-9/h1,8H,5H2	InChI=1S/C8H4O/c1-2-3-4-5-6-7-8-9/h1,8H,5H2
