23
gdb 122932	5.76515	0.48399	0.46518	2.2147	84.83	-0.2716	-0.0362	0.2354	2383.0635	0.202874	-425.447633	-425.436521	-425.435577	-425.485183	39.037	
C	-0.0287734146	 1.6138538478	 0.0410644734	-0.380034
C	-0.0109872708	 0.0836915955	-0.0017501416	-0.163532
C	 0.7234491137	-0.4773555683	-1.2244506888	-0.164775
C	 0.732022398	-2.0081466138	-1.2754288742	-0.177319
C	 1.4714316897	-2.5661277684	-2.4954646518	-0.209907
C	 1.4105702666	-4.1035059753	-2.5624296973	 0.04707
O	 0.0896660624	-4.565820864	-2.6485835045	-0.432937
C	 2.2224379229	-4.6141081861	-3.73353785	 0.136734
O	 1.7352972033	-5.3040233443	-4.5969438835	-0.261849
H	 0.9879591923	 2.0217893987	 0.0693848589	 0.11229
H	-0.5250734904	 2.0287241806	-0.8434066219	 0.11378
H	-0.5597517153	 1.9833649816	 0.9239190714	 0.111588
H	 0.4594190434	-0.303979649	 0.9116550485	 0.093869
H	-1.0410935087	-0.2961995561	 0.0048641764	 0.097748
H	 0.2559515968	-0.0857803312	-2.1387992312	 0.09382
H	 1.757066159	-0.1026000709	-1.2303037992	 0.088404
H	 1.1963442883	-2.4035949055	-0.3610662491	 0.090832
H	-0.29621653	-2.3864983436	-1.2876877823	 0.12287
H	 1.0295522385	-2.1639816769	-3.4160843598	 0.10801
H	 2.5232816876	-2.2493485156	-2.4759941453	 0.092985
H	 1.8958366211	-4.503169312	-1.6511049084	 0.090263
H	 0.0530608682	-5.0996472696	-3.4580216864	 0.293804
H	 3.2905374179	-4.3147869434	-3.7597300132	 0.096288
49.77	61.1712	73.5897	119.4932	140.5868	151.5293	234.469	245.0373	270.7251	327.2794	371.4027	428.7111	459.4301	507.5431	734.4828	747.5486	764.0623	839.4665	842.5572	903.4855	946.1416	961.8229	1013.6179	1030.9956	1060.7216	1069.8284	1117.5063	1147.1631	1184.0079	1231.7908	1243.0242	1279.6655	1295.3526	1324.3718	1331.5032	1336.1028	1359.1911	1384.7644	1399.0955	1405.9178	1413.5028	1439.9781	1473.2208	1484.6603	1490.0871	1499.4057	1503.7499	1514.2849	1812.1031	2918.1646	2934.8339	3000.0731	3009.5951	3013.9083	3017.8647	3027.6123	3028.9669	3050.5879	3055.5744	3081.14	3094.7008	3101.0604	3691.2348
CCCCCC(O)C=O	CCCCC[C@@H](O)C=O	
InChI=1S/C7H14O2/c1-2-3-4-5-7(9)6-8/h6-7,9H,2-5H2,1H3	InChI=1S/C7H14O2/c1-2-3-4-5-7(9)6-8/h6-7,9H,2-5H2,1H3/t7-/m1/s1
