21
gdb 121764	7.01865	0.51555	0.48758	2.4482	78.07	-0.2477	-0.0128	0.2349	2269.7594	0.178048	-461.35051	-461.339104	-461.33816	-461.389525	37.546	
C	-0.0841630743	 1.3085473136	-0.1124815359	-0.228887
O	-0.0016827015	-0.093209969	-0.016074514	-0.236541
C	 0.6854918346	-0.51973137	 1.1404879909	-0.052695
C	 0.7077948777	-2.0410728461	 1.1309338814	-0.322372
C	 1.4262131192	-2.6283119353	 2.3357053442	 0.342622
O	 1.9187405289	-1.9437743677	 3.1982167846	-0.279061
C	 1.4786631423	-4.1543769951	 2.3739080109	-0.145983
O	 2.1544399514	-4.5898797576	 3.5122204716	-0.2104
C	 2.2320900829	-5.9936286865	 3.5991257408	-0.226241
H	 0.9127659095	 1.7747569531	-0.1606112438	 0.105387
H	-0.6279962048	 1.5424653788	-1.0309980279	 0.125627
H	-0.6240698002	 1.7464146231	 0.7420983451	 0.105392
H	 1.7127170558	-0.1238211215	 1.1576832104	 0.102544
H	 0.1898896378	-0.1517726595	 2.0521826994	 0.102601
H	-0.3186219167	-2.4289709479	 1.0966810664	 0.131312
H	 1.1875714025	-2.4014041461	 0.2116351757	 0.13124
H	 0.4415686069	-4.5381021293	 2.3372726486	 0.10502
H	 1.9642368485	-4.5080907816	 1.4447914155	 0.105043
H	 2.7727245677	-6.4279969426	 2.7431075502	 0.105202
H	 2.7744797326	-6.2303531317	 4.5170680395	 0.134988
H	 1.2337590292	-6.4572737311	 3.6448871365	 0.1052
24.3871	49.0057	86.7596	89.4697	94.1592	119.5904	196.3888	235.3865	238.2103	285.5039	322.7327	380.2248	475.226	493.8924	698.9375	759.5517	887.4403	926.8974	965.069	1000.0806	1066.2748	1105.0289	1107.7047	1165.3523	1175.1756	1178.7508	1184.9281	1218.4271	1232.4907	1242.1907	1264.3361	1304.7681	1331.5107	1407.3133	1424.7206	1458.1288	1469.7064	1483.5402	1485.4727	1486.9134	1492.1442	1505.2506	1516.6503	1526.8111	1823.9611	2929.8484	2948.0702	2967.5762	2969.8	2984.2451	3008.7967	3013.6186	3014.6207	3031.1644	3065.3034	3113.4209	3121.0718
COCCC(=O)COC	COCCC(=O)COC	
InChI=1S/C6H12O3/c1-8-4-3-6(7)5-9-2/h3-5H2,1-2H3	InChI=1S/C6H12O3/c1-8-4-3-6(7)5-9-2/h3-5H2,1-2H3
