18
gdb 112361	2.90803	1.23042	0.96466	2.5805	73.64	-0.2763	-0.0135	0.2628	1239.4665	0.147919	-439.15278	-439.144179	-439.143235	-439.18682	31.62	
C	-0.066324908	 1.5333713456	 0.1677180128	-0.387672
C	-0.0336953738	 0.0152381229	-0.014702455	-0.187358
C	 0.7469724312	-0.4548666679	-1.2651135244	-0.081694
C	 0.865016136	-1.9850690104	-1.3489126155	-0.386936
C	-0.1528997811	-2.395907318	-2.3980933517	 0.425551
O	-0.5660492711	-3.4764972666	-2.6786936262	-0.307862
O	-0.572120333	-1.2613341022	-3.0719836071	-0.214835
C	 0.0101079021	-0.1152427496	-2.5477272302	 0.404994
N	-0.0994455061	 1.0197752042	-3.0779020451	-0.510738
H	 0.9450720862	 1.932126372	 0.3026048542	 0.116437
H	-0.5030154704	 2.0282362155	-0.7024626383	 0.153198
H	-0.6520418295	 1.8001090635	 1.0524628929	 0.11426
H	 0.4364653447	-0.4528907615	 0.8586353973	 0.105385
H	-1.0557701093	-0.3832292508	-0.0622449898	 0.108661
H	 1.7216394943	 0.038847766	-1.2775868788	 0.113992
H	 1.8502797797	-2.3132474179	-1.6960915519	 0.152147
H	 0.6610096979	-2.5055647301	-0.4110160334	 0.146348
H	-0.6648050298	 0.9763842152	-3.9274616397	 0.236123
42.4243	117.7528	137.2494	195.1956	242.1404	304.0319	365.7422	380.2717	547.0435	555.663	627.4912	684.2789	693.6671	757.9913	828.4499	859.6659	909.8262	921.224	966.5547	1018.9553	1044.6381	1075.7467	1106.7207	1123.5136	1138.1636	1209.3556	1251.3189	1278.6889	1308.2685	1329.1061	1357.9055	1373.5541	1418.1672	1461.3698	1488.5092	1496.3938	1509.4726	1782.3292	1917.2214	3019.9149	3039.9695	3055.3308	3064.1603	3086.9869	3104.7559	3119.7763	3134.8855	3477.2102
CCC1CC(=O)OC1=N	CC[C@H]1CC(=O)O[C]1[NH]	
InChI=1S/C6H9NO2/c1-2-4-3-5(8)9-6(4)7/h4,7H,2-3H2,1H3	InChI=1S/C6H9NO2/c1-2-4-3-5(8)9-6(4)7/h4,7H,2-3H2,1H3/t4-/m0/s1
