17
gdb 22803	2.79893	1.42719	0.9958	3.7443	74.49	-0.2332	-0.0342	0.199	1159.5505	0.137763	-455.142377	-455.134218	-455.133274	-455.175484	30.806	
O	 0.0272673891	 1.3348723897	-0.0876195779	-0.348915
N	 0.0270952547	-0.0436024493	-0.0574178605	-0.18586
C	-1.1237042452	-0.5995436312	 0.0308453403	 0.269984
C	-1.1280433933	-2.1097105066	 0.0418191163	-0.282561
C	-2.1954959422	-2.6292228844	-0.9283596949	-0.210674
C	-3.5671057038	-2.1144582315	-0.4999121346	-0.14844
N	-3.5313777872	-0.6779509074	-0.2589609332	-0.328279
C	-2.4582026779	 0.1048537234	 0.0987383082	 0.346642
O	-2.6068576929	 1.2665077312	 0.4245125723	-0.355555
H	 0.9669206007	 1.5309315732	-0.1809955673	 0.310216
H	-0.1286314306	-2.4685055612	-0.213310934	 0.122504
H	-1.3582731462	-2.4720027165	 1.0543193042	 0.114074
H	-1.9688048486	-2.2854680923	-1.9440071706	 0.118206
H	-2.2088728855	-3.7230789318	-0.9447078239	 0.108183
H	-4.3155152976	-2.3212723213	-1.2728102525	 0.114717
H	-3.8888196518	-2.6473665479	 0.408766331	 0.109111
H	-4.4122015317	-0.195348576	-0.148436883	 0.246648
54.6908	121.6689	237.2694	242.1513	324.2368	354.008	412.4587	434.4324	470.1728	519.8161	597.1902	627.0035	673.6657	695.1705	787.6272	882.7703	901.1479	963.4375	993.5533	1037.1561	1097.3747	1113.0075	1187.1045	1203.1054	1226.6983	1289.401	1332.2819	1354.2986	1372.8692	1395.5601	1425.6738	1475.1458	1481.7565	1493.6365	1526.2816	1702.7833	1782.1328	2977.8641	3006.2818	3042.0718	3058.7675	3094.209	3107.2176	3600.7631	3794.9332
ON=C1CCCNC1=O	ON=C1CCCNC1=O	
InChI=1S/C5H8N2O2/c8-5-4(7-9)2-1-3-6-5/h9H,1-3H2,(H,6,8)	InChI=1S/C5H8N2O2/c8-5-4(7-9)2-1-3-6-5/h9H,1-3H2,(H,6,8)
