20
gdb 14972	4.18595	1.45809	1.14795	1.0297	76.67	-0.2419	0.0257	0.2675	1087.1671	0.177771	-349.019728	-349.011638	-349.010694	-349.052148	30.676	
C	-0.0189215363	 1.5624160752	 0.0240726701	-0.387048
C	-0.0113382849	 0.0327601254	-0.02442497	-0.186405
C	 0.7086388866	-0.5295246813	-1.2460078639	 0.143821
C	 0.8205606396	-2.0594763336	-1.2344008687	-0.25999
C	 1.2442117582	-2.5688523761	-2.5870461265	-0.0684
C	 1.1841794774	-1.7984746008	-3.6699743862	-0.064954
C	 0.6423100462	-0.3970569844	-3.6139082871	-0.11502
O	-0.0147098508	-0.1026995061	-2.3978644677	-0.262373
H	 1.0001293901	 1.9609766856	 0.0862018292	 0.108252
H	-0.4845514484	 1.9707301226	-0.8762103868	 0.133938
H	-0.572597583	 1.9274374342	 0.8943599022	 0.108029
H	 0.4687689121	-0.3740261988	 0.8742401244	 0.092326
H	-1.0403869733	-0.3474785196	-0.0329989722	 0.103364
H	 1.7296175883	-0.1085358934	-1.2906873919	 0.05988
H	 1.5447164201	-2.3676907152	-0.4691153777	 0.101337
H	-0.1421242612	-2.5025103296	-0.9408859479	 0.109384
H	 1.6139276608	-3.5887136549	-2.6536976089	 0.087487
H	 1.5235617282	-2.1531946861	-4.6396110309	 0.088773
H	 1.4565221968	 0.3285859513	-3.8015724319	 0.093599
H	-0.1013892865	-0.2427637746	-4.4054718974	 0.113999
93.4034	124.1906	188.1121	208.1584	253.8564	371.8776	386.8777	457.9315	497.0534	538.9913	668.3955	758.7327	790.5381	867.7247	924.5347	934.514	951.3852	986.499	997.9444	1035.7433	1041.0107	1078.0562	1120.6507	1133.6899	1154.7395	1208.9246	1224.2423	1263.5353	1300.6437	1308.9992	1358.5391	1375.449	1402.5265	1403.4141	1410.8488	1415.0376	1466.6374	1476.5348	1488.3069	1496.0875	1510.0354	1727.7236	2924.862	2936.7663	3005.3595	3026.4745	3035.4431	3042.7648	3043.7407	3064.2965	3099.9423	3125.9974	3150.4413	3174.0738
CCC1CC=CCO1	CC[C@H]1CC=CCO1	
InChI=1S/C7H12O/c1-2-7-5-3-4-6-8-7/h3-4,7H,2,5-6H2,1H3	InChI=1S/C7H12O/c1-2-7-5-3-4-6-8-7/h3-4,7H,2,5-6H2,1H3/t7-/m0/s1
