21
gdb 93920	3.62947	0.98717	0.85994	1.913	79.22	-0.2459	-0.0141	0.2318	1415.0459	0.181426	-424.261604	-424.251862	-424.250918	-424.29787	34.954	
C	-0.0172032144	 1.5495748606	 0.1618451433	-0.410086
C	 0.08532224	 0.0433020622	 0.0120898249	 0.155184
C	 0.8139590746	-0.4556138827	-1.2528279928	-0.261394
C	 1.5339056429	-1.7419449072	-0.7943796597	-0.104339
C	 1.2100334955	-1.7943285247	 0.7372776145	-0.100523
O	 0.8514915066	-0.4809267044	 1.0985454197	-0.252096
C	 1.0588637639	-3.015623356	-1.4880096898	 0.365674
C	 1.9367660977	-4.2398907019	-1.3009046816	-0.479523
O	 0.0324015873	-3.0596619883	-2.1268591439	-0.296485
H	 0.9795056783	 2.0017258703	 0.1470595864	 0.120632
H	-0.605389208	 1.9743739074	-0.6572207953	 0.11948
H	-0.5017754961	 1.8129430339	 1.1060655665	 0.125559
H	-0.9229806562	-0.4034101223	 0.0423457715	 0.072389
H	 0.1201628165	-0.6658780694	-2.0685229817	 0.128728
H	 1.5391284172	 0.290419993	-1.5898254105	 0.097646
H	 2.6174338882	-1.6586502506	-0.9215122739	 0.085861
H	 0.3758283238	-2.4918912037	 0.9240614307	 0.09642
H	 2.0606171459	-2.1005115314	 1.3513132618	 0.110405
H	 2.1382071539	-4.4159095196	-0.2380646564	 0.14064
H	 1.4571473386	-5.1161485366	-1.7382202857	 0.143281
H	 2.9082082338	-4.0755427386	-1.781923538	 0.142547
27.964	35.5926	124.4677	163.8163	200.7558	227.9933	274.6183	297.9888	373.1986	475.078	559.3767	577.5673	628.4045	650.2614	795.4711	841.4319	894.0423	907.0703	946.0425	959.6449	974.5628	1035.9934	1066.1865	1095.6107	1115.256	1140.5356	1153.0806	1188.5665	1226.7095	1248.5933	1289.8125	1302.0988	1353.7213	1358.8306	1381.5267	1388.7704	1400.8291	1416.6522	1461.5709	1476.0278	1483.6697	1485.2955	1498.9091	1512.7194	1810.0766	2954.5859	2960.7419	3033.0468	3040.9601	3053.4334	3067.0262	3092.8387	3093.4854	3114.7153	3119.1826	3127.6087	3152.7541
CC1CC(CO1)C(C)=O	C[C@H]1C[C@@H](CO1)C(=O)C	
InChI=1S/C7H12O2/c1-5-3-7(4-9-5)6(2)8/h5,7H,3-4H2,1-2H3	InChI=1S/C7H12O2/c1-5-3-7(4-9-5)6(2)8/h5,7H,3-4H2,1-2H3/t5-,7-/m0/s1
