16
gdb 98046	5.75306	0.52948	0.50547	3.8575	79.69	-0.2571	-0.0406	0.2165	2109.9567	0.121061	-437.892928	-437.882421	-437.881477	-437.931762	33.982	
C	-0.2611734859	 1.4348662204	-0.0014764688	-0.339959
N	-0.0385846046	 0.0048014312	-0.0790787089	-0.31103
C	 0.8029539766	-0.5577034319	-0.9941657807	 0.262874
O	 1.4400823035	 0.0724791567	-1.8197333081	-0.356836
C	 0.8770747912	-2.0101078579	-0.897918892	-0.017868
C	 0.9796176434	-3.2103740514	-0.8527110269	 0.116108
C	 1.1123480507	-4.6570474696	-0.8746800234	-0.426888
C	 1.1841032955	-5.2165016347	-2.302105573	 0.17058
O	 0.6789069052	-6.2555252141	-2.6242690856	-0.224515
H	 0.0269806127	 1.8285779743	 0.9794209056	 0.130174
H	 0.3555911961	 1.9030354463	-0.7690585184	 0.175481
H	-1.3120481331	 1.6841679497	-0.1855563038	 0.130688
H	-0.5222030163	-0.6091194344	 0.5555567995	 0.255004
H	 2.049209491	-4.9496153612	-0.3759091794	 0.16666
H	 0.2974659988	-5.1627157364	-0.3470770361	 0.159682
H	 1.7597321053	-4.5875291369	-3.01313763	 0.109846
14.087	49.5714	72.098	76.493	98.168	151.7251	206.8295	304.5985	355.4485	393.87	456.8902	485.2021	550.0703	595.5213	737.3865	760.1418	836.6816	998.6663	1027.6205	1041.5795	1138.0908	1151.7005	1173.2146	1208.3321	1256.8595	1287.2842	1413.4278	1437.0717	1439.7119	1490.3164	1498.6818	1558.0054	1758.2967	1842.4313	2348.8089	2919.2201	3005.4786	3029.2474	3081.9869	3084.1636	3156.9438	3647.8135
CNC(=O)C#CCC=O	CNC(=O)C#CCC=O	
InChI=1S/C6H7NO2/c1-7-6(9)4-2-3-5-8/h5H,3H2,1H3,(H,7,9)	InChI=1S/C6H7NO2/c1-7-6(9)4-2-3-5-8/h5H,3H2,1H3,(H,7,9)
