23
gdb 109172	3.87275	0.89881	0.75845	1.4322	88.74	-0.2233	0.0381	0.2615	1558.2911	0.206206	-388.313799	-388.30412	-388.303176	-388.348217	36.654	
C	-0.0243326797	 1.5791413656	-0.0237162881	-0.40324
C	 0.0185962298	 0.049302511	 0.0006301818	 0.042256
C	 0.6948992024	-0.5318656896	-1.2489139965	-0.194396
C	 0.6195771994	-2.0643983943	-1.2645225194	-0.305618
C	 0.9840211676	-2.6720117578	 0.0709840607	 0.277722
C	 1.2824752406	-4.1468045784	 0.0391011754	-0.149754
O	 1.518205008	-4.6469722574	 1.3417468029	-0.41468
C	 1.0345107559	-1.9522554942	 1.1920493043	-0.139146
C	 0.7235330031	-0.4804720903	 1.2605958645	-0.246869
H	 0.9876760389	 1.9984768725	-0.0769196007	 0.1105
H	-0.583346164	 1.9490781654	-0.8899927645	 0.107062
H	-0.5008192989	 1.9790930821	 0.8780450768	 0.108662
H	-1.0161237929	-0.3236109294	 0.0192065283	 0.06983
H	 0.2353485521	-0.1242103895	-2.1570131222	 0.085894
H	 1.7477791617	-0.2180339198	-1.2621637582	 0.093653
H	-0.3945903193	-2.385949182	-1.5477527566	 0.103239
H	 1.2780589226	-2.4646219623	-2.0481548323	 0.092986
H	 0.4355396255	-4.6706291575	-0.4414819367	 0.088015
H	 2.1555444585	-4.318461307	-0.6166168118	 0.089556
H	 1.7603672476	-5.5736369222	 1.2651733107	 0.287942
H	 1.3152359316	-2.4467116954	 2.1164862557	 0.099755
H	 1.6560887341	 0.0836848568	 1.4243197575	 0.098884
H	 0.1066982053	-0.2741893863	 2.1456669287	 0.097748
67.5619	108.4023	187.0199	203.6287	219.5011	238.9961	257.4809	305.2923	359.0978	413.7485	444.157	500.3696	528.2104	682.0295	771.9945	799.8539	824.8494	912.3326	915.1869	959.7598	967.1818	1015.0285	1038.5677	1047.0477	1079.108	1101.3992	1118.5047	1158.0432	1161.521	1176.8971	1227.3287	1249.6042	1264.3082	1280.705	1322.4833	1333.9545	1341.4936	1378.8325	1388.3171	1402.413	1412.4434	1460.8213	1474.5843	1479.66	1494.3877	1497.8393	1499.9024	1509.693	1748.7525	2929.8314	2941.809	2975.9451	2988.4866	2993.679	3010.3069	3021.4263	3026.3941	3027.9047	3059.0151	3088.0506	3093.7615	3184.4397	3842.4818
CC1CCC(CO)=CC1	C[C@H]1CCC(=CC1)CO	
InChI=1S/C8H14O/c1-7-2-4-8(6-9)5-3-7/h4,7,9H,2-3,5-6H2,1H3	InChI=1S/C8H14O/c1-7-2-4-8(6-9)5-3-7/h4,7,9H,2-3,5-6H2,1H3/t7-/m1/s1
