16
gdb 67396	2.91391	1.61661	1.44216	2.3248	69.9	-0.2423	0.0234	0.2657	947.6356	0.125907	-437.865439	-437.858538	-437.857593	-437.896495	28.04	
O	-0.0599624805	 1.3711651678	 0.0039504634	-0.4574
C	 0.0380066912	 0.0042593536	-0.0059982082	 0.37252
C	-1.0391563185	-1.037071346	 0.0699481193	-0.119396
C	-0.5005502683	-1.7657317609	-1.1579889474	-0.244494
C	 0.8051683353	-0.9282403781	-1.0031018832	-0.011837
O	 1.7667106485	-1.6596073517	-0.2316355772	-0.25146
C	 1.2738451771	-1.7926776724	 1.0496475308	 0.420795
N	 1.8091659431	-2.4786835787	 1.9654662887	-0.561706
C	 0.0636717967	-0.9393163771	 1.164163503	-0.223126
H	 0.7178712233	 1.7359213743	 0.4423882996	 0.296406
H	-2.0721892616	-0.928505575	 0.3752814363	 0.107876
H	-0.3689589522	-2.8505346888	-1.1133246866	 0.11393
H	-1.0537567327	-1.4903375251	-2.0597027887	 0.116254
H	 1.2910058223	-0.5210137612	-1.8866821844	 0.100937
H	 2.6586031083	-2.930187023	 1.6218627274	 0.220937
H	-0.270436172	-0.6223778475	 2.1423032471	 0.119762
138.0572	227.0827	301.3019	336.9348	399.7878	435.2068	470.3087	589.6157	625.6592	675.9857	695.93	798.0245	848.8812	870.2549	884.8195	906.6007	925.4059	946.4622	989.5809	1016.0418	1048.9633	1080.0099	1097.7284	1143.7327	1157.3092	1171.8808	1209.1617	1252.9799	1276.7425	1305.2828	1321.6155	1364.6763	1470.4208	1500.4795	1776.8061	3055.8062	3114.4681	3152.1877	3199.8884	3226.3232	3472.4127	3785.8012
OC12C3CC1OC(=N)C23	O[C@@]12[C@H]3C[C@@H]1O[C]([NH])[C@@H]23	
InChI=1S/C6H7NO2/c7-5-4-2-1-3(9-5)6(2,4)8/h2-4,7-8H,1H2	InChI=1S/C6H7NO2/c7-5-4-2-1-3(9-5)6(2,4)8/h2-4,7-8H,1H2/t2-,3-,4-,6-/m0/s1
