23
gdb 118999	2.67487	1.03135	0.94106	1.1588	81.63	-0.25	0.0831	0.3331	1421.3724	0.204733	-425.439152	-425.429065	-425.428121	-425.474831	36.817	
C	-0.0099059281	 1.5865949679	-0.1362781469	-0.382174
C	 0.0229632609	 0.0594702861	-0.0238877234	-0.173584
C	-1.3785747407	-0.5494302298	 0.0904399676	-0.196056
C	-1.4253112367	-2.0889211007	 0.0866496504	 0.365692
C	-0.766922589	-2.7170191141	 1.3128108239	-0.436298
C	-2.8722355816	-2.5886257916	-0.1355894482	-0.152929
O	-2.9807228213	-2.6775083442	-1.5475156089	-0.238566
C	-1.7229045811	-3.1511642786	-1.9542749944	 0.020035
O	-0.7575593469	-2.5679107864	-1.1037211467	-0.300887
H	 0.9994793775	 2.0010084242	-0.2220511056	 0.110703
H	-0.5773656444	 1.9067471372	-1.0173017659	 0.114379
H	-0.4823021874	 2.0414379879	 0.7419377504	 0.110222
H	 0.5191455585	-0.3704950136	-0.9001359556	 0.114936
H	 0.6283896008	-0.2236894522	 0.8458625222	 0.092489
H	-1.8687471672	-0.1873818312	 1.0049530127	 0.086323
H	-1.9901627544	-0.2030639425	-0.7523591367	 0.102359
H	-1.2788152376	-2.4047011017	 2.2296549152	 0.1146
H	-0.8062763099	-3.8081601077	 1.2497341214	 0.116973
H	 0.281857121	-2.4217115781	 1.3912328166	 0.131047
H	-3.0256131968	-3.5737470023	 0.3328050696	 0.088384
H	-3.6345527343	-1.8958614383	 0.2263912283	 0.116219
H	-1.6750341469	-4.2531449682	-1.8750311083	 0.08153
H	-1.5485499445	-2.8446786822	-2.9910358777	 0.114605
47.0044	76.449	108.0574	154.065	203.7729	244.7488	247.3538	310.0472	329.8151	339.5876	414.7445	487.7753	654.7443	733.956	748.6757	789.9044	863.4534	887.4742	909.435	948.9053	981.7925	1001.4421	1030.0226	1050.1346	1052.4715	1105.6798	1115.7198	1163.354	1191.5421	1195.4226	1227.9293	1234.5323	1275.0981	1289.371	1325.6835	1335.6266	1367.9486	1394.2313	1408.2399	1412.3503	1433.0772	1474.1896	1488.8082	1494.2527	1496.1802	1499.0946	1509.7935	1512.1487	1546.5232	2928.0574	2979.3394	3008.8866	3027.139	3031.4555	3040.1725	3051.6504	3067.8566	3074.616	3099.0055	3100.7718	3107.6398	3111.3067	3126.7893
CCCC1(C)COCO1	CCC[C@@]1(C)COCO1	
InChI=1S/C7H14O2/c1-3-4-7(2)5-8-6-9-7/h3-6H2,1-2H3	InChI=1S/C7H14O2/c1-3-4-7(2)5-8-6-9-7/h3-6H2,1-2H3/t7-/m0/s1
