18
gdb 23226	3.39039	1.33541	1.1324	1.0627	75.11	-0.2379	0.0117	0.2496	1097.1461	0.148743	-439.028808	-439.021136	-439.020191	-439.061128	30.156	
O	-0.1470821357	 1.3367689846	 0.186695091	-0.400923
N	 0.0257891383	-0.0632287754	 0.2053198623	-0.23922
C	-1.0715941294	-0.6590201661	-0.051329027	 0.382772
C	-2.3836409039	 0.0442952355	-0.3374634988	-0.148465
O	-3.476263908	-0.8364861162	-0.5972999289	-0.283666
C	-3.180516419	-2.2221024974	-0.5507379754	 0.135865
C	-2.380277711	-2.5966101642	 0.7247019215	-0.254402
C	-1.1168821178	-2.1529666012	-0.0834351106	-0.110082
C	-1.9073756686	-2.5659863791	-1.3681971091	-0.254397
H	 0.7387140022	 1.6531205826	 0.3914240658	 0.30824
H	-2.6385787619	 0.6879309373	 0.5143079914	 0.135013
H	-2.2517326266	 0.7130925789	-1.1977428753	 0.135017
H	-4.1194318535	-2.7321966347	-0.7703546635	 0.080809
H	-2.621128444	-2.0700662385	 1.6510753943	 0.107861
H	-2.3801008226	-3.6753435463	 0.8977168718	 0.107737
H	-0.1439690362	-2.5946198555	 0.1299364036	 0.08224
H	-1.8260560151	-3.6394642734	-1.5542961862	 0.107737
H	-1.7299256374	-2.012346881	-2.2930861569	 0.107862
72.3751	137.0516	229.3829	340.5402	389.0271	391.0401	423.393	451.7216	543.6312	551.6042	626.1609	768.7181	803.8633	845.1481	878.3769	903.5117	932.6579	969.7136	973.3484	1018.1961	1021.2524	1071.1889	1071.7162	1103.4977	1130.5257	1191.8426	1228.092	1239.9032	1257.9107	1268.3672	1281.2394	1321.5692	1349.4969	1387.8349	1417.7746	1470.4319	1487.2913	1503.4257	1743.2739	3020.0958	3042.6652	3062.8934	3066.8354	3104.7	3119.3657	3124.7804	3127.5196	3825.4809
ON=C1COC2CC1C2	ON=C1CO[C@@H]2C[C@H]1C2	
InChI=1S/C6H9NO2/c8-7-6-3-9-5-1-4(6)2-5/h4-5,8H,1-3H2	InChI=1S/C6H9NO2/c8-7-6-3-9-5-1-4(6)2-5/h4-5,8H,1-3H2/t4-,5+
