16
gdb 7311	3.58458	1.28429	1.00035	1.5583	62.95	-0.2606	-0.0316	0.229	1130.2382	0.126477	-420.921548	-420.912306	-420.911362	-420.956836	31.209	
C	 1.0774926081	 1.6770518523	-0.4779217368	-0.390343
C	 0.2845655434	 0.4396353462	-0.0769682999	 0.00557
O	 0.5016109122	-0.6232870031	-1.0180138158	-0.186196
C	-0.4654628547	-0.8896120547	-1.9195675244	 0.171342
O	-0.3557285941	-1.7351072056	-2.7533475809	-0.268404
C	 0.6441081882	-0.0513651553	 1.3396967473	 0.371225
C	 0.6994543148	-1.5427352628	 1.5763149141	-0.477976
O	 0.8401973044	 0.7635682642	 2.2092561184	-0.294795
H	 2.1335658878	 1.4237253069	-0.6043180276	 0.140696
H	 0.7027296473	 2.0867427616	-1.4194632474	 0.123703
H	 0.9903431779	 2.4300421369	 0.3069998717	 0.154563
H	-0.7909982718	 0.6760232332	-0.0498431237	 0.115326
H	-1.3582994347	-0.245823849	-1.7902878591	 0.082128
H	-0.2424318149	-2.0170503532	 1.2792965599	 0.144011
H	 1.4780537397	-1.9944680224	 0.9540957149	 0.164376
H	 0.8978191162	-1.7320315752	 2.6313555893	 0.144775
31.3322	51.3139	150.9731	163.8201	207.4759	218.3247	251.6259	351.0556	407.5916	437.4278	487.6206	605.8857	664.4247	774.4725	920.0973	963.551	976.9194	1044.1983	1080.6781	1120.8436	1124.1307	1188.9909	1223.5777	1319.1319	1351.401	1384.4773	1403.5336	1435.2589	1456.378	1468.8941	1487.3308	1495.5277	1817.5253	1870.9433	2941.4317	2988.4219	3045.8083	3054.9088	3108.2816	3128.0904	3151.9116	3161.2192
CC(OC=O)C(C)=O	C[C@@H](OC=O)C(=O)C	
InChI=1S/C5H8O3/c1-4(7)5(2)8-3-6/h3,5H,1-2H3	InChI=1S/C5H8O3/c1-4(7)5(2)8-3-6/h3,5H,1-2H3/t5-/m1/s1
