19
gdb 57670	2.19524	1.16527	0.93017	6.1398	78.21	-0.2701	0.0138	0.2838	1331.2917	0.156388	-419.226219	-419.215937	-419.214993	-419.261851	36.61	
C	-0.038883588	 1.5537177672	 0.0194172075	-0.419403
C	 0.0553729583	 0.0231496072	 0.0535673688	 0.325471
C	 0.7578861688	-0.483325291	 1.3185581289	-0.426401
C	-1.3721903719	-0.5636003407	-0.060739166	-0.354571
C	-1.4179347588	-2.0213486331	 0.0283495721	 0.280643
N	-1.4650914277	-3.1716803562	 0.1223752568	-0.311358
O	 0.695674759	-0.4678763387	-1.1452880173	-0.222476
C	 1.9856500549	-0.1612831297	-1.3908539994	 0.122789
N	 2.5084821296	-0.5143041885	-2.4839845757	-0.435241
H	 0.9533450699	 2.0099886981	 0.0653464198	 0.125861
H	-0.5270279955	 1.8880089465	-0.9002747096	 0.138053
H	-0.6121063156	 1.9223664116	 0.8752565591	 0.127333
H	 0.1654336081	-0.2277267205	 2.2024247207	 0.128028
H	 0.8760844091	-1.5687117887	 1.2831641283	 0.16272
H	 1.7426782848	-0.0263428348	 1.4427947235	 0.123344
H	-2.0013702224	-0.1455473665	 0.7317898798	 0.149886
H	-1.7986206276	-0.256173068	-1.0205287979	 0.165305
H	 2.4874846864	 0.3850675154	-0.5848337389	 0.090107
H	 3.4835519484	-0.2231320196	-2.5116694905	 0.229909
59.0825	84.3499	101.8901	148.1364	205.5559	229.1731	248.3495	319.8785	339.1298	362.5435	391.3809	425.7711	451.2992	555.587	614.539	789.6007	821.6773	884.4404	894.2347	933.6749	958.4389	1007.6102	1026.4809	1042.2789	1106.5103	1166.3758	1196.2642	1247.6282	1272.3556	1303.6362	1347.5472	1404.468	1412.953	1430.7732	1451.3265	1480.8131	1488.6585	1502.2745	1505.8399	1739.7379	2366.8657	3044.8398	3047.3365	3056.2713	3059.5959	3102.5544	3115.3791	3122.0582	3125.8534	3137.1862	3516.3312
CC(C)(CC#N)OC=N	CC(C)(CC#N)O[CH][NH]	
InChI=1S/C6H10N2O/c1-6(2,3-4-7)9-5-8/h5,8H,3H2,1-2H3	InChI=1S/C6H10N2O/c1-6(2,3-4-7)9-5-8/h5,8H,3H2,1-2H3
