18
gdb 95933	2.31122	1.50778	1.19202	4.1412	71.56	-0.2712	0.011	0.2822	1097.5791	0.147625	-439.108354	-439.099346	-439.098401	-439.142531	33.57	
O	 0.2049965198	 1.247028219	-0.3822515364	-0.439376
C	 0.0871567391	-0.102824431	-0.0370974579	 0.140628
C	 0.6114803931	-0.5038479195	 1.3526410887	-0.245673
C	 0.0250160236	-1.9092433513	 1.5785161573	-0.220836
C	-1.3129169819	-1.9456469111	 0.7806452718	-0.254069
C	-1.3896967342	-0.5973702866	 0.019714183	 0.215302
O	-2.0685058293	 0.4083149887	 0.7747857488	-0.474779
C	-2.0081895188	-0.7233060529	-1.3080210492	 0.227818
N	-2.5236726411	-0.8334888289	-2.3366990026	-0.337232
H	-0.46665648	 1.7199865456	 0.1258767034	 0.29248
H	 0.6106926529	-0.6746513939	-0.8115610513	 0.106717
H	 1.7020673234	-0.4747330114	 1.3976829947	 0.108657
H	 0.2245477724	 0.2068687768	 2.0901194118	 0.112891
H	 0.7061574472	-2.6719399886	 1.1899495784	 0.113955
H	-0.1250999219	-2.1301085125	 2.6372536606	 0.11235
H	-1.3413656208	-2.7843328979	 0.0809806348	 0.127372
H	-2.1884767749	-2.0355770391	 1.4286701483	 0.113881
H	-3.0171742986	 0.2495914446	 0.7288086857	 0.299915
33.8391	136.8695	154.5552	198.8269	257.8862	282.636	353.4859	382.7166	431.5115	484.0567	516.2065	574.0527	601.4077	638.7394	736.5333	789.1231	861.4143	917.4714	948.6563	1006.4578	1024.8661	1042.8097	1093.8658	1112.0955	1140.29	1189.4146	1211.0453	1257.5285	1291.8084	1301.2087	1311.7849	1335.7304	1364.9973	1371.782	1442.9584	1475.4889	1487.5954	1508.0699	2352.0868	3051.4816	3058.958	3061.6611	3068.9716	3099.539	3114.2331	3122.8043	3778.3302	3822.1501
OC1CCCC1(O)C#N	O[C@H]1CCC[C@]1(O)C#N	
InChI=1S/C6H9NO2/c7-4-6(9)3-1-2-5(6)8/h5,8-9H,1-3H2	InChI=1S/C6H9NO2/c7-4-6(9)3-1-2-5(6)8/h5,8-9H,1-3H2/t5-,6-/m0/s1
