15
gdb 48479	2.27228	1.62858	1.23706	3.1419	68.67	-0.236	-0.051	0.185	1032.2426	0.109754	-457.770527	-457.762119	-457.761175	-457.804173	29.619	
O	 0.2986729137	-0.1024685311	-0.3193724386	-0.235417
C	 0.1766457201	 1.0277198281	 0.0580874142	 0.133098
C	 1.3675166361	 2.0074255795	 0.1831575926	 0.171191
O	 2.6045914774	 1.334989756	 0.1360594828	-0.292528
C	 3.2650929263	 1.5975265534	-1.1053592085	-0.136209
C	 2.4509611523	 2.6851546807	-1.7477469754	-0.083052
C	 1.3691825908	 2.9355263578	-1.0197255865	-0.138529
C	 1.243188436	 2.7890917093	 1.4909161461	 0.108048
O	 0.2409912124	 3.3711255418	 1.8143321941	-0.255442
H	-0.8002108973	 1.4770007138	 0.3331599483	 0.109885
H	 4.3014122059	 1.8986980322	-0.9014381345	 0.119872
H	 3.296347578	 0.6856964163	-1.7193631606	 0.129452
H	 2.7278626304	 3.1661844357	-2.6768886474	 0.124836
H	 0.5804169258	 3.6515123288	-1.2021764517	 0.13459
H	 2.1665295321	 2.7658346379	 2.1077240551	 0.110206
76.2828	106.0571	115.1027	198.5519	207.8347	294.0908	314.1075	437.7883	458.1458	659.1131	686.4901	736.0811	788.1712	841.3921	892.8026	947.6376	957.2808	985.9106	1016.7773	1043.9881	1094.2356	1119.2342	1148.7331	1191.4131	1201.7085	1321.8663	1370.5837	1379.4366	1392.3031	1513.8855	1675.4977	1813.4202	1848.8227	2916.8328	2923.1176	3000.5175	3031.5769	3220.0546	3249.4
O=CC1(OCC=C1)C=O	O=CC1(OCC=C1)C=O	
InChI=1S/C6H6O3/c7-4-6(5-8)2-1-3-9-6/h1-2,4-5H,3H2	InChI=1S/C6H6O3/c7-4-6(5-8)2-1-3-9-6/h1-2,4-5H,3H2
