17
gdb 43870	4.87402	1.11938	1.06986	3.412	74.24	-0.2451	0.0299	0.2749	1142.9278	0.13684	-417.958672	-417.951335	-417.950391	-417.990635	28.971	
N	 0.0446899109	 1.1322330023	 0.7364352549	-0.542505
C	-0.0308321734	 0.0511983653	 0.1073945158	 0.418364
C	-1.1512968399	-0.8560420955	-0.3500758541	-0.431022
C	-0.0121743666	-1.7075641031	-0.9309859927	 0.478485
C	 0.3055632785	-3.1929226991	-0.5797526186	-0.302025
C	 0.4215420251	-3.4722078124	-2.0836375365	-0.038055
N	-0.8901234472	-3.0934099554	-2.6602067262	-0.336968
C	 0.1376719104	-2.0483893347	-2.4111216174	-0.143998
O	 0.9687489829	-0.7480228015	-0.4226646222	-0.291346
H	 1.0161003928	 1.4278122018	 0.8487011438	 0.226238
H	-1.7254880739	-1.3155699088	 0.4559736569	 0.139641
H	-1.8352681599	-0.4225207364	-1.0812535726	 0.142078
H	 1.2608476529	-3.2500116204	-0.0538132485	 0.126714
H	-0.4618962348	-3.755931988	-0.0437735443	 0.112552
H	 1.0674370556	-4.1835282762	-2.5816054335	 0.102036
H	-0.8596530449	-3.3028665559	-3.6580169462	 0.234929
H	 0.5052131016	-1.404691672	-3.2003297487	 0.104885
85.2397	121.3569	252.316	362.9216	385.1799	416.3279	471.4285	496.0252	565.4992	747.5244	787.9292	826.2455	835.4454	850.8105	870.216	894.4995	927.0307	958.2438	967.5469	996.7411	1015.613	1060.6935	1069.5664	1095.1902	1126.7614	1162.8197	1167.4696	1191.3643	1226.29	1268.4383	1289.0341	1312.3942	1340.1474	1381.8043	1460.424	1463.6474	1829.0562	3070.031	3090.1437	3134.8321	3143.3107	3194.2055	3207.533	3472.3684	3474.138
N=C1CC2(CC3NC23)O1	[NH][C]1C[C@]2(C[C@H]3N[C@@H]23)O1	
InChI=1S/C6H8N2O/c7-4-2-6(9-4)1-3-5(6)8-3/h3,5,7-8H,1-2H2	InChI=1S/C6H8N2O/c7-4-2-6(9-4)1-3-5(6)8-3/h3,5,7-8H,1-2H2/t3-,5-,6+/m1/s1
