16
gdb 42228	4.10993	1.09266	0.99488	4.5227	76.13	-0.2751	-0.0833	0.1918	1188.7199	0.124464	-400.736793	-400.728847	-400.727903	-400.770159	29.271	
O	 0.2108408687	-0.1065961622	-0.0884216497	-0.302515
C	 0.0227088052	 1.0875423508	-0.0325848623	 0.29714
C	 1.192152406	 2.0012365253	 0.0348967073	 0.218406
N	 2.098924345	 2.7171470562	 0.087623113	-0.30112
C	-1.2778928444	 1.7902828813	-0.0224038468	-0.128738
C	-2.5078415602	 1.3678473565	-0.8251521277	-0.071043
C	-2.6489693475	-0.1562162793	-0.9311962381	-0.226573
C	-2.679478837	-0.2353259163	 0.6302553853	-0.226571
C	-2.537655543	 1.2913855729	 0.6841835226	-0.071079
H	-1.1760518272	 2.869668378	 0.0342443971	 0.11841
H	-2.9534668035	 2.0999069122	-1.4883085652	 0.105927
H	-3.6060173933	-0.4360440531	-1.3763954021	 0.11139
H	-1.845775023	-0.691354728	-1.4379453334	 0.129531
H	-3.6526333452	-0.5568147253	 1.0071528898	 0.11133
H	-1.8955852106	-0.8204010138	 1.1113796745	 0.129606
H	-3.01063088	 1.9535814248	 1.3997732355	 0.105898
33.9106	136.7634	191.8372	219.3989	273.953	351.551	353.9948	497.6094	609.5194	675.9193	773.7548	775.57	781.6262	817.0427	869.9767	934.3315	941.2839	963.8462	990.9987	1018.5311	1058.8839	1082.27	1099.6454	1149.5093	1187.8081	1217.6536	1241.4193	1258.2444	1305.458	1343.6369	1438.9758	1472.5671	1494.2767	1770.386	2334.0218	3076.8418	3083.6426	3131.3574	3144.3531	3163.6642	3177.0165	3190.2008
O=C(C#N)C1C2CCC12	O=C(C#N)[C@H]1[C@H]2CC[C@@H]12	
InChI=1S/C7H7NO/c8-3-6(9)7-4-1-2-5(4)7/h4-5,7H,1-2H2	InChI=1S/C7H7NO/c8-3-6(9)7-4-1-2-5(4)7/h4-5,7H,1-2H2/t4-,5+,7-
