17
gdb 49020	2.83261	1.60796	1.34172	2.6505	71.57	-0.2547	-0.0335	0.2212	987.7568	0.13552	-421.764236	-421.756701	-421.755757	-421.797138	28.657	
O	-0.1080498866	-0.0052538115	-0.1457234969	-0.23792
C	-0.0050249586	 1.1750634053	 0.0753603989	 0.052841
C	 1.2776805569	 1.9412751423	 0.0255812055	 0.211803
C	 1.5467824254	 2.8527796131	-1.2038455043	-0.154415
O	 2.849914237	 2.2506890542	-1.3916291578	-0.293847
C	 2.6282000903	 1.3030163616	-0.313227303	 0.060945
C	 3.186468717	 1.6880902349	 1.0737640015	-0.05217
C	 3.1220924334	 3.173524956	 1.2740503678	-0.301941
C	 1.8515709736	 2.3821368989	 1.4027749758	-0.134625
H	-0.8993154348	 1.7881527798	 0.3381201536	 0.076973
H	 0.8906552986	 2.6556129751	-2.0609599241	 0.113528
H	 1.5990850192	 3.9323192795	-1.0235649413	 0.110043
H	 2.7304827506	 0.2622440904	-0.6225292282	 0.101335
H	 3.793626447	 1.0426425661	 1.6961481044	 0.09534
H	 3.5258161599	 3.5248479232	 2.2181041843	 0.119695
H	 3.3020641643	 3.8390465412	 0.4373941541	 0.135066
H	 1.2813293568	 2.3603087798	 2.3239557394	 0.097349
30.2168	162.9149	197.4429	256.2993	315.3372	397.561	472.3541	577.0558	667.7896	702.7312	764.23	809.4783	854.5397	902.5787	920.5841	935.6574	967.811	978.4894	987.3169	1012.6043	1042.3911	1057.5352	1087.6708	1110.6781	1144.3368	1170.9613	1179.5854	1192.1512	1263.371	1288.9967	1298.7268	1341.4064	1374.136	1423.6475	1487.3198	1516.5783	1819.5449	2853.5646	3015.4276	3066.8862	3112.7133	3136.6876	3177.8857	3191.294	3219.7537
O=CC12COC1C1CC21	O=C[C@]12CO[C@H]1[C@H]1C[C@@H]21	
InChI=1S/C7H8O2/c8-2-7-3-9-6(7)4-1-5(4)7/h2,4-6H,1,3H2	InChI=1S/C7H8O2/c8-2-7-3-9-6(7)4-1-5(4)7/h2,4-6H,1,3H2/t4-,5+,6-,7+/m0/s1
