18
gdb 6942	2.62412	2.24381	1.65177	2.4299	72.78	-0.2369	-0.0155	0.2213	876.4719	0.152615	-347.845027	-347.836843	-347.835899	-347.877449	30.795	
C	-0.0493704163	 1.5577913042	 0.0186916685	-0.415645
C	-0.0286478766	 0.0175228761	-0.0397881719	 0.12605
C	-1.4691241671	-0.5307771133	-0.0138439942	-0.415652
C	 0.7839323072	-0.5168126856	-1.1967645697	-0.090119
C	 1.8389069952	-1.2397684538	-0.818498131	-0.091222
C	 1.9594445675	-1.3449586227	 0.677534867	-0.375399
C	 0.7546383407	-0.5339093934	 1.177473785	 0.383593
O	 0.4553325772	-0.3482472557	 2.3285134514	-0.324123
H	 0.9624674062	 1.9729829149	-0.0158817888	 0.117225
H	-0.6118623165	 1.9663824157	-0.8273986303	 0.113274
H	-0.525667501	 1.8892738909	 0.9460245266	 0.135564
H	-2.0437612286	-0.1399779819	-0.8601769864	 0.113272
H	-1.4822667679	-1.6234086966	-0.0719633208	 0.117224
H	-1.9659878229	-0.2296411579	 0.9130475353	 0.135564
H	 0.5087138974	-0.3137050091	-2.2267422437	 0.096456
H	 2.5447031682	-1.7089659377	-1.4943607006	 0.100705
H	 1.9047774395	-2.373390281	 1.0577666863	 0.136613
H	 2.8898990076	-0.9239355132	 1.0803124671	 0.13662
55.3775	201.3009	211.7418	235.6202	237.3974	287.3291	331.733	469.65	499.7355	590.3923	608.6408	670.5152	742.3823	749.4975	872.8157	937.4641	955.7263	955.8147	977.7213	986.3598	1027.5821	1076.1727	1128.4884	1133.4833	1179.3051	1236.9773	1255.0878	1287.9355	1377.3788	1388.2107	1416.0882	1441.4641	1481.5434	1485.1831	1499.0975	1509.3007	1679.4391	1845.3442	3025.8678	3031.5125	3034.6103	3052.4144	3102.3771	3104.8354	3114.4011	3117.6544	3177.159	3204.1924
CC1(C)C=CCC1=O	CC1(C)C=CCC1=O	
InChI=1S/C7H10O/c1-7(2)5-3-4-6(7)8/h3,5H,4H2,1-2H3	InChI=1S/C7H10O/c1-7(2)5-3-4-6(7)8/h3,5H,4H2,1-2H3
