21
gdb 110201	2.27905	1.47541	1.06797	3.087	79.09	-0.2508	0.0687	0.3194	1201.2674	0.181787	-424.177699	-424.168453	-424.167509	-424.211271	35.947	
C	 0.7284833115	 1.3518201117	 0.2189874675	-0.509591
C	 0.2727168406	-0.076511475	 0.0949951263	 0.30584
C	 0.5223961762	-1.036356592	-1.1159457702	-0.321051
C	-0.2909538777	-1.8497911135	-0.0680026174	 0.379127
O	-0.8234230256	-3.1300847758	-0.1590628721	-0.481306
C	 0.6616495906	-1.2745299749	 1.0209729469	-0.342747
C	-1.2067462715	-0.6123794594	 0.0933782541	-0.044067
C	-2.1478748284	-0.5407236983	 1.285415618	-0.120147
O	-3.1810808373	-1.5093124551	 1.1569136694	-0.427576
H	 1.8196223026	 1.4229606972	 0.1533776788	 0.12041
H	 0.3034383914	 1.9704647263	-0.578700553	 0.122532
H	 0.4226606671	 1.7843670804	 1.1776582954	 0.12273
H	 0.0111495717	-0.7896873391	-2.0503303349	 0.094037
H	 1.5608908705	-1.337770041	-1.2838378698	 0.082499
H	-0.1066554667	-3.7734521869	-0.1414229418	 0.286155
H	 1.706798571	-1.5955576639	 0.9686270292	 0.083895
H	 0.3103684142	-1.2559053577	 2.0531501012	 0.09827
H	-1.7631386928	-0.3669494334	-0.8186883955	 0.07082
H	-1.6162668299	-0.6564958417	 2.24115734	 0.083768
H	-2.6471989097	 0.4343005223	 1.3170347806	 0.102779
H	-2.7531963578	-2.35155901	 0.9606676674	 0.293623
85.2912	130.5013	204.3296	218.7948	225.8389	264.4987	327.5429	364.4409	414.8621	435.4626	482.5726	568.5062	586.0977	594.2734	671.8325	753.0457	794.8776	862.7333	945.5602	965.167	991.7316	1022.3967	1039.059	1060.3464	1089.1166	1105.9543	1119.039	1133.2748	1146.8497	1155.9188	1186.3938	1197.7371	1230.9612	1284.0723	1331.2921	1346.601	1374.5419	1413.6129	1425.2904	1449.0801	1490.0217	1491.6344	1493.5945	1515.9945	1552.8003	2992.5663	3027.9808	3038.8744	3044.2195	3055.8726	3061.6062	3094.9345	3096.1339	3113.9855	3131.1896	3786.3036	3808.229
CC12CC(O)(C1)C2CO	C[C@@]12C[C@@](O)(C1)[C@H]2CO	
InChI=1S/C7H12O2/c1-6-3-7(9,4-6)5(6)2-8/h5,8-9H,2-4H2,1H3	InChI=1S/C7H12O2/c1-6-3-7(9,4-6)5(6)2-8/h5,8-9H,2-4H2,1H3/t5-,6-,7-/m0/s1
