20
gdb 113664	2.82004	1.04752	0.83295	4.0319	77.44	-0.2569	-0.0002	0.2567	1423.3585	0.169335	-440.287448	-440.277611	-440.276667	-440.322703	35.405	
C	-0.2208242456	 1.3712482726	 0.6170565525	-0.38975
C	-0.1227454783	-0.1137476782	 0.2476197991	-0.196766
C	-1.4610351048	-0.7251583782	-0.1095339713	 0.015314
C	-1.6942864996	-2.2101541913	-0.0094781948	-0.275877
N	-2.3377661768	-1.2851509625	 0.8984606121	-0.078692
C	-2.2662791302	-1.2231297665	 2.2652005837	 0.355655
O	-2.0594130345	-0.1978032918	 2.8920469248	-0.369289
C	-2.579935424	-2.5191639543	 3.0128951756	-0.125707
O	-2.6053936415	-2.2893193494	 4.3901556713	-0.420707
H	 0.7698725816	 1.7817819309	 0.8331356231	 0.113576
H	-0.6484449178	 1.9523881674	-0.2074158175	 0.11186
H	-0.8537157198	 1.5019623023	 1.4971622386	 0.160765
H	 0.5412437606	-0.2421260069	-0.6170789382	 0.105907
H	 0.3247471426	-0.6791602758	 1.0731972407	 0.105356
H	-2.0011279862	-0.2023287795	-0.8988394722	 0.106289
H	-2.3406921639	-2.7158272308	-0.7220577469	 0.130653
H	-0.8781212789	-2.8151629618	 0.3807219102	 0.131174
H	-3.5428202084	-2.9096720791	 2.649792151	 0.119949
H	-1.8171892959	-3.2709040139	 2.7505939893	 0.106169
H	-2.4070645487	-1.3427307432	 4.4842919691	 0.294119
73.5615	78.4587	118.8488	129.5222	180.2557	240.1671	256.9823	326.5685	388.3723	425.874	444.4491	495.4043	574.114	611.2429	773.1755	793.7218	828.7296	917.264	963.9762	997.6593	1030.2314	1066.991	1069.8822	1118.3428	1126.3727	1140.6317	1164.2012	1191.9894	1196.4726	1246.0022	1291.8931	1310.3179	1342.0285	1398.1988	1411.8155	1441.3849	1474.0468	1477.2982	1498.4907	1503.3633	1516.3683	1519.1074	1756.4342	2973.6758	3003.8782	3024.3876	3039.0814	3064.6055	3100.0345	3103.3135	3112.8704	3141.1615	3188.423	3667.6649
CCC1CN1C(=O)CO	CC[C@H]1CN1C(=O)CO	
InChI=1S/C6H11NO2/c1-2-5-3-7(5)6(9)4-8/h5,8H,2-4H2,1H3	InChI=1S/C6H11NO2/c1-2-5-3-7(5)6(9)4-8/h5,8H,2-4H2,1H3/t5-,7?/m0/s1
