17
gdb 75391	2.29778	1.70823	1.05136	1.6857	77.43	-0.2509	-0.0451	0.2058	1126.4251	0.137539	-418.058452	-418.050329	-418.049384	-418.091213	30.53	
C	 0.1088363414	 1.5059852736	 0.0316380813	-0.465392
C	-0.0183281539	 0.0102378814	-0.1103551999	 0.357947
N	-0.1501352142	-0.5079681291	-1.2620144802	-0.255778
C	-0.1173764561	-1.9655452245	-1.3836842485	-0.227973
C	-1.2490574894	-2.6640981264	-0.6760604089	-0.073505
C	-1.4995432528	-2.5450594996	 0.6301990633	-0.119236
C	-0.714872231	-1.7487177224	 1.5927028622	 0.364476
O	-0.7387209703	-1.9709439332	 2.7885382636	-0.360465
N	 0.0534501246	-0.6778476837	 1.1168308976	-0.375248
H	 1.0398999436	 1.7655085057	 0.5503078419	 0.134162
H	 0.1161850054	 1.9626777638	-0.9568780618	 0.154802
H	-0.7186640532	 1.9165654745	 0.6203589114	 0.141208
H	-0.1409165949	-2.208709366	-2.4483286385	 0.114816
H	 0.8390996504	-2.3431983108	-0.9873443715	 0.124155
H	-1.887346501	-3.3118975921	-1.2719839229	 0.114472
H	-2.2968868289	-3.1087010601	 1.1022640841	 0.120954
H	 0.41284837	-0.144258771	 1.8990920369	 0.250605
98.7256	129.3292	164.2367	241.1364	300.895	327.9514	396.7262	412.8597	501.7746	609.267	631.4355	654.7631	703.3162	748.6181	829.0599	874.8636	909.9843	982.5657	1004.8053	1018.1845	1046.1734	1063.4838	1095.488	1214.9319	1226.5584	1255.3782	1311.9168	1375.1514	1403.0881	1409.4413	1461.6073	1480.0229	1486.4936	1491.6236	1694.8019	1751.1009	1778.8247	2977.0845	3033.2819	3089.5113	3089.9965	3159.3264	3166.2693	3200.0485	3570.5201
CC1=NCC=CC(=O)N1	CC1=NCC=CC(=O)N1	
InChI=1S/C6H8N2O/c1-5-7-4-2-3-6(9)8-5/h2-3H,4H2,1H3,(H,7,8,9)	InChI=1S/C6H8N2O/c1-5-7-4-2-3-6(9)8-5/h2-3H,4H2,1H3,(H,7,8,9)
