25
gdb 97913	5.07645	0.5044	0.48243	0.104	99.89	-0.2388	0.0576	0.2963	2430.8503	0.226449	-352.350251	-352.33833	-352.337386	-352.389113	42.016	
C	 0.0148981562	 1.6163028411	-0.2328466812	-0.362122
C	-0.0012697314	 0.1379318443	 0.1972760086	-0.31441
C	-1.3404076231	-0.4439337486	 0.1958424538	 0.126995
C	-2.4590505849	-0.8928585049	 0.1895054074	 0.006094
C	-3.8001993596	-1.4682766262	 0.1736806668	-0.364179
C	-3.8239150546	-3.0161609798	 0.0927820682	 0.0539
C	-3.136908379	-3.6393616799	 1.3138749812	-0.389017
C	-5.2736153704	-3.5012255374	-0.0843220607	-0.162734
C	-5.4181248824	-5.0027124566	-0.3512738879	-0.396269
H	 1.0362371598	 2.0087761957	-0.2161496291	 0.111556
H	-0.3820461893	 1.730507974	-1.2452799239	 0.126214
H	-0.5987149586	 2.2225726738	 0.4390903605	 0.126587
H	 0.6506593512	-0.4419990899	-0.4689927001	 0.124862
H	 0.43751936	 0.0456615049	 1.1993918986	 0.124803
H	-4.348177534	-1.1520023278	 1.0730445874	 0.118552
H	-4.3595994678	-1.0589825728	-0.678080671	 0.118204
H	-3.2566310946	-3.3014076093	-0.8039819553	 0.078221
H	-3.0575070256	-4.7261802125	 1.2234495202	 0.112037
H	-2.127344794	-3.2376704511	 1.436172464	 0.126938
H	-3.6991866513	-3.4197501405	 2.2302101898	 0.106941
H	-5.8518159881	-3.2308400801	 0.8106236759	 0.091587
H	-5.7288231186	-2.9487245054	-0.916798403	 0.090155
H	-4.8406489358	-5.3046159825	-1.2324620749	 0.113823
H	-5.0719999556	-5.6042913454	 0.494416554	 0.119408
H	-6.4643558084	-5.2669092032	-0.5347530194	 0.111854
22.9488	53.8029	66.1467	94.2915	150.7821	182.6067	213.2051	239.2471	257.5976	276.0329	327.3763	378.2057	395.6274	418.1011	501.5753	532.4723	744.9696	776.6346	787.1352	827.2146	886.1472	908.9653	966.1268	976.6933	1010.6685	1046.8198	1079.5195	1104.6637	1124.822	1145.8961	1165.881	1180.9808	1244.9902	1286.0195	1287.9723	1308.1179	1350.9363	1356.1247	1376.7905	1381.8849	1408.227	1410.8113	1414.3333	1468.8809	1477.7977	1484.8041	1494.5102	1496.0677	1499.5548	1506.0709	1507.0629	1511.9675	2362.9341	2999.6688	3003.7998	3013.2669	3016.3185	3029.1644	3032.4691	3034.5521	3042.2458	3042.936	3045.5944	3097.707	3098.3945	3107.6066	3115.6154	3118.7884	3122.5193
CCC#CCC(C)CC	CCC#CC[C@@H](C)CC	
InChI=1S/C9H16/c1-4-6-7-8-9(3)5-2/h9H,4-5,8H2,1-3H3	InChI=1S/C9H16/c1-4-6-7-8-9(3)5-2/h9H,4-5,8H2,1-3H3/t9-/m0/s1
