13
gdb 44036	3.29624	1.76486	1.5463	2.2711	62.47	-0.2408	-0.0634	0.1774	845.0703	0.08628	-456.380935	-456.374366	-456.373422	-456.411997	25.713	
O	-0.0045909291	 0.0554103966	-0.4326995477	-0.248458
C	-0.0157320516	 1.1968489961	-0.112549374	 0.357137
C	-1.1177232976	 2.2004652619	 0.3803658907	-0.439432
C	 0.0136896572	 3.1325749863	 0.8400735726	 0.300131
O	 0.6777099879	 2.9785863531	 2.1377682014	-0.33359
C	 1.7964729417	 3.1030800841	 1.2245765933	-0.009649
C	 1.0571160436	 4.1206686443	 0.2460020737	-0.010624
O	 1.2725812831	 3.3345881302	-0.9562560467	-0.329961
C	 1.0826033287	 2.3140459183	 0.0788006215	 0.150252
H	-1.7135317588	 2.5961346068	-0.4466929058	 0.167489
H	-1.7843926961	 1.8258376968	 1.1595899999	 0.16592
H	 2.8099072109	 3.0848910106	 1.6305949189	 0.116962
H	 1.0958585302	 5.2098351747	 0.1708501623	 0.113822
81.1639	238.1579	310.0815	369.64	443.2984	496.9176	573.8986	604.0805	692.2059	706.7375	738.8991	807.3165	822.4569	891.8273	931.0401	947.939	979.47	1009.3063	1032.4693	1093.6585	1096.5621	1132.1273	1159.8689	1200.2214	1224.2695	1264.3397	1302.449	1400.5612	1904.5875	3075.7006	3091.9874	3109.5071	3139.765
O=C1CC23OC4C2OC134	O=C1C[C@]23O[C@@H]4[C@H]2O[C@]134	
InChI=1S/C6H4O3/c7-2-1-5-3-4(8-5)6(2,5)9-3/h3-4H,1H2	InChI=1S/C6H4O3/c7-2-1-5-3-4(8-5)6(2,5)9-3/h3-4H,1H2/t3-,4-,5+,6+/m1/s1
