19
gdb 80664	2.70336	1.74847	1.27542	3.6171	75.5	-0.2137	0.026	0.2397	1024.0611	0.161613	-419.20631	-419.198495	-419.197551	-419.238696	30.229	
C	-0.0431758765	 1.4387288111	 0.0225947302	-0.354305
N	 0.0026666777	-0.0104352655	 0.0171635796	-0.073914
C	-1.2318164497	-0.7973614204	 0.0452791255	-0.008265
C	-1.076391259	-1.9390615956	 1.0746965513	-0.178987
N	-0.3345438978	-2.7241093808	 0.0176697767	-0.125873
C	-1.1274619605	-1.9331637535	-0.9970493828	-0.178999
C	 1.0489198937	-2.2177172748	-0.0149674424	-0.292948
C	 1.1990643485	-0.6801146898	-0.0141864376	 0.389413
O	 2.2893313195	-0.1381705653	-0.0394103216	-0.394951
H	 0.9854385825	 1.798988153	-0.0016166749	 0.17104
H	-0.5811965929	 1.8222864758	-0.852956151	 0.12289
H	-0.5374594751	 1.8170072817	 0.9257931091	 0.122888
H	-2.0952147414	-0.1284830526	 0.0684731542	 0.078139
H	-0.5130663944	-1.7279869067	 1.9873643684	 0.113026
H	-2.0160402617	-2.4419517124	 1.3188119266	 0.113289
H	-2.0780428957	-2.4348345902	-1.1974456629	 0.113299
H	-0.6097466657	-1.7168012649	-1.9351329018	 0.113026
H	 1.5991136257	-2.6038519419	 0.8491840486	 0.135617
H	 1.5558060028	-2.5987511173	-0.907407065	 0.135615
92.9516	128.7967	148.3085	323.9543	347.8079	396.1223	421.4506	469.9875	497.5393	586.5518	643.3443	702.9417	820.7795	824.5269	895.9308	896.6505	946.8827	986.6528	996.2974	1049.6097	1070.8842	1113.7911	1115.5418	1147.9674	1155.8309	1223.7447	1244.8794	1255.9987	1258.3413	1270.7473	1301.8571	1322.9059	1331.6909	1423.2081	1454.5936	1467.8916	1484.9127	1498.3971	1511.9495	1521.2053	1777.919	3014.8437	3050.8326	3052.2555	3058.4575	3064.1109	3083.2462	3095.8779	3115.8403	3117.2769	3155.918
CN1C2CN(C2)CC1=O	CN1[C@@H]2CN(C2)CC1=O	
InChI=1S/C6H10N2O/c1-7-5-2-8(3-5)4-6(7)9/h5H,2-4H2,1H3	InChI=1S/C6H10N2O/c1-7-5-2-8(3-5)4-6(7)9/h5H,2-4H2,1H3
