18
gdb 78086	2.73429	1.21774	0.99868	5.4903	76.97	-0.2676	0.032	0.2996	1221.7811	0.14679	-401.931954	-401.923104	-401.92216	-401.965324	33.241	
C	-0.0005896109	 1.5360784894	-0.0008589886	-0.423774
C	 0.0987448006	 0.02647937	 0.0608169139	-0.088802
C	 1.3410886222	-0.8015166244	-0.2138337356	-0.130482
C	 2.5955024103	-0.0996070791	 0.3496758144	-0.157214
C	 1.9435373065	-0.1434252963	 1.7826946331	-0.319353
C	 0.6958383331	-0.794203807	 1.1698049192	 0.387611
O	 0.021259539	-1.8323652506	 1.7825232443	-0.456045
C	 3.8221175874	-0.8710472647	 0.2283737923	 0.269218
N	 4.7957885173	-1.4864975476	 0.1275785229	-0.326015
H	 0.8615744569	 2.0351495636	 0.4499966097	 0.122749
H	-0.0761205214	 1.8803278099	-1.0377140067	 0.128595
H	-0.8915870207	 1.8877697816	 0.5303505161	 0.12104
H	-0.7721502695	-0.4841989378	-0.3480494746	 0.09934
H	 1.3646965032	-1.5763381417	-0.9690216194	 0.115212
H	 2.7775925721	 0.9045599271	-0.0451878438	 0.120473
H	 2.4696287267	-0.8428126007	 2.4332625033	 0.14234
H	 1.8286720052	 0.8163024198	 2.2952671418	 0.105376
H	-0.761529848	-1.4782947914	 2.2180888076	 0.28973
94.2465	150.4811	174.2022	192.291	236.7778	265.4261	301.0192	373.3423	456.0012	486.0107	534.4993	555.7927	639.532	744.5245	765.3316	828.9608	899.1504	942.7729	972.9453	978.6756	1030.3928	1045.5934	1081.7395	1117.2855	1135.4605	1141.3133	1201.9824	1219.384	1236.2926	1274.5665	1305.3678	1339.7788	1356.0172	1417.1342	1461.4167	1489.972	1498.9654	1506.4735	2355.7333	3035.2214	3057.1165	3064.1659	3094.5045	3105.77	3129.1663	3136.9276	3203.2193	3800.3623
CC1C2C(CC12O)C#N	C[C@H]1[C@H]2[C@@H](C[C@@]12O)C#N	
InChI=1S/C7H9NO/c1-4-6-5(3-8)2-7(4,6)9/h4-6,9H,2H2,1H3	InChI=1S/C7H9NO/c1-4-6-5(3-8)2-7(4,6)9/h4-6,9H,2H2,1H3/t4-,5-,6-,7+/m0/s1
