21
gdb 103287	2.58694	1.27746	1.09958	0.3959	78.66	-0.2242	0.0663	0.2905	1230.7889	0.180441	-424.18138	-424.171926	-424.170981	-424.21516	36.275	
C	-1.6469574017	 1.646623422	 0.5662854245	-0.408933
C	-1.0043639322	 0.2880500405	 0.2529507617	-0.242192
C	-0.179380984	-0.2426146816	 1.4078796143	 0.373232
O	 0.7672401147	 0.6639195211	 1.9302080543	-0.471236
C	-0.7273392513	-1.1680818439	 2.4590750598	 0.009556
O	-1.6471413165	-2.1110485151	 1.9015390639	-0.307167
C	-0.5567117779	-2.7541562603	 1.1624543162	 0.144099
C	-0.8772847656	-3.1115272504	-0.2750502413	-0.416905
C	 0.4045981832	-1.6380003398	 1.5600549341	-0.207556
H	-0.890386209	 2.4211438708	 0.7291215224	 0.115781
H	-2.2764077	 1.9774371529	-0.2646489731	 0.118504
H	-2.2816574475	 1.5896477292	 1.4580962576	 0.118428
H	-1.7917248983	-0.4353362345	 0.0318165432	 0.122546
H	-0.3725469427	 0.3776339027	-0.6390571358	 0.098813
H	 0.2844332606	 1.3729757203	 2.368461088	 0.286973
H	-0.7763473497	-0.9578624672	 3.5223794748	 0.100269
H	-0.2815785375	-3.6687319639	 1.7068355516	 0.086558
H	-1.0906252941	-2.2366518332	-0.8905291839	 0.126188
H	-0.026218022	-3.6429176053	-0.7148193965	 0.120713
H	-1.7434205786	-3.780632573	-0.3082328029	 0.127958
H	 1.45697387	-1.7542625913	 1.7807107471	 0.104372
86.9404	152.481	159.886	203.7888	230.7795	258.3554	288.8332	333.7878	380.1478	398.3082	448.7974	516.3439	587.3877	684.3673	708.35	797.4155	821.0563	865.8621	911.2436	927.2241	956.0651	1004.8108	1017.2016	1034.675	1053.6363	1081.7846	1090.5242	1111.0717	1156.4552	1186.0349	1235.9345	1272.1257	1286.6776	1304.974	1324.746	1358.479	1395.3572	1403.371	1408.5597	1437.002	1476.7718	1488.0316	1495.3208	1501.1397	1513.7182	2998.2027	3030.0615	3035.5806	3042.4233	3091.7921	3103.811	3106.7078	3117.488	3145.0547	3165.5412	3207.9315	3803.9772
CCC1(O)C2OC(C)C12	CC[C@@]1(O)[C@H]2O[C@@H](C)[C@@H]12	
InChI=1S/C7H12O2/c1-3-7(8)5-4(2)9-6(5)7/h4-6,8H,3H2,1-2H3	InChI=1S/C7H12O2/c1-3-7(8)5-4(2)9-6(5)7/h4-6,8H,3H2,1-2H3/t4-,5+,6-,7-/m0/s1
