18
gdb 35904	3.16057	1.41302	1.09492	0.3108	77.9	-0.2245	0.0283	0.2528	1111.8222	0.148273	-401.87512	-401.867217	-401.866273	-401.907536	30.825	
C	-0.0728495366	-1.2056904306	-0.1383049028	-0.420026
C	-0.0473460656	-0.0114035147	-0.0138933657	 0.301972
C	 0.0193784586	 1.4423628145	 0.0965940986	-0.0915
O	-0.6250231491	 1.8551935394	 1.2947797033	-0.255758
C	-0.5794436832	 3.2711292486	 1.4069956303	-0.075652
C	 0.8425722851	 3.7492419915	 1.6944176716	-0.155232
N	 1.8579055688	 3.1128144091	 0.835124198	-0.111516
C	 2.3276848709	 1.7851481249	 1.2416953212	-0.238008
C	 1.4661340231	 1.9374484186	 0.0472352131	-0.018194
H	-0.1021646753	-2.262338702	-0.2414999095	 0.199225
H	-0.5198695845	 1.8839643115	-0.76094758	 0.09906
H	-0.9604583496	 3.7272035931	 0.4785826694	 0.09546
H	-1.2563382635	 3.5459578516	 2.220507472	 0.113511
H	 0.8972826679	 4.8343437089	 1.5440620578	 0.106977
H	 1.0931195728	 3.5547309215	 2.7430592348	 0.111331
H	 3.3950217979	 1.6109269957	 1.1350080261	 0.113109
H	 1.8689646328	 1.3340915487	 2.1192186475	 0.124184
H	 1.9065805095	 1.8915769695	-0.9467843856	 0.101056
85.9514	135.9977	185.764	287.0738	352.7779	381.9248	436.8354	458.4321	523.6575	613.2954	621.0955	675.965	685.7894	741.1346	829.0489	893.1469	898.1496	948.1932	962.5536	1037.8612	1053.9193	1078.2332	1113.3953	1123.4094	1129.0443	1153.1358	1178.1406	1264.1001	1286.3151	1310.85	1328.7714	1359.383	1373.1864	1403.0529	1418.2356	1490.2374	1499.5633	1512.1638	2243.7463	2936.3235	2973.74	3026.1151	3066.1616	3093.4412	3099.9476	3123.6067	3187.3012	3503.9868
C#CC1OCCN2CC12	C#C[C@H]1OCCN2C[C@@H]12	
InChI=1S/C7H9NO/c1-2-7-6-5-8(6)3-4-9-7/h1,6-7H,3-5H2	InChI=1S/C7H9NO/c1-2-7-6-5-8(6)3-4-9-7/h1,6-7H,3-5H2/t6-,7+,8?/m0/s1
