23
gdb 84397	2.99497	1.33626	1.06206	0.3308	91.17	-0.235	0.0259	0.2609	1243.0207	0.207096	-351.168001	-351.159218	-351.158274	-351.200993	35.173	
C	 0.3994541576	 1.5986633927	-0.0389038878	-0.387242
C	 0.0109889362	 0.1104142225	 0.0084007328	-0.048432
C	 0.3738924956	-0.5979279515	-1.2728730335	-0.067076
C	 0.7954159151	-1.8592679319	-1.3492621799	-0.067072
C	 0.9761602638	-2.777711715	-0.1665103146	-0.048431
C	 2.1769457639	-3.7202114101	-0.3610244266	-0.387242
C	 1.069104177	-2.012226763	 1.1471465731	-0.03433
C	 2.0690561956	-0.8909742658	 1.3051274711	-0.290869
C	 0.5917117124	-0.5837031123	 1.2336598504	-0.034329
H	 1.4837074038	 1.7166238196	-0.1338044476	 0.118781
H	-0.0719410293	 2.1013334618	-0.8903827237	 0.107635
H	 0.0838413341	 2.114985027	 0.873543685	 0.109083
H	-1.0863751852	 0.0684804378	 0.102747272	 0.083073
H	 0.2559582025	-0.0191916052	-2.1872264862	 0.079192
H	 1.0147244988	-2.2896748972	-2.3247314724	 0.079192
H	 0.0768486951	-3.4122900297	-0.108056549	 0.083073
H	 3.1113085707	-3.1537290046	-0.4287726286	 0.11878
H	 2.2670631773	-4.4179501784	 0.4779032372	 0.109083
H	 2.0702713795	-4.3089344995	-1.2785932913	 0.107635
H	 0.9076593077	-2.6298567517	 2.0267684603	 0.075968
H	 2.5762589977	-0.779120749	 2.2570149503	 0.103583
H	 2.675482467	-0.6360402435	 0.4419470618	 0.11398
H	 0.124408863	-0.286092943	 2.1687119271	 0.075968
70.9208	198.1105	224.5195	233.7062	247.2099	287.8441	320.935	379.2973	388.926	546.2361	576.929	588.5975	714.7908	731.3647	778.698	789.2893	848.3595	885.5876	903.6565	967.9235	977.2028	1000.6182	1020.1995	1026.0622	1066.2648	1077.7291	1086.7559	1110.2157	1110.9438	1139.0872	1156.4668	1174.5035	1211.7426	1231.8571	1321.4684	1326.2305	1342.485	1347.7959	1364.1922	1399.5954	1400.4263	1414.6966	1431.7726	1486.5038	1496.0058	1496.2758	1498.3783	1498.6042	1719.969	2965.0982	2965.6859	3029.1468	3029.5589	3097.2754	3097.7055	3104.5939	3104.7373	3128.0873	3129.1867	3129.4831	3140.4728	3152.7098	3213.9831
CC1C=CC(C)C2CC12	C[C@H]1C=C[C@@H](C)[C@H]2C[C@@H]12	
InChI=1S/C9H14/c1-6-3-4-7(2)9-5-8(6)9/h3-4,6-9H,5H2,1-2H3	InChI=1S/C9H14/c1-6-3-4-7(2)9-5-8(6)9/h3-4,6-9H,5H2,1-2H3/t6-,7+,8-,9+
