21
gdb 89259	2.3639	1.85043	1.33091	1.6164	81.58	-0.239	0.0787	0.3177	1059.5562	0.182153	-387.041889	-387.033575	-387.032631	-387.074063	33.506	
C	-0.3118191361	 1.5033307893	-0.1767479543	-0.421581
C	 0.1071955331	 0.0515280858	-0.0560309928	 0.138106
O	 1.2288850377	-0.3414199781	-0.9072083324	-0.361668
C	 1.8302603087	-1.1209147025	 0.1746623562	 0.463365
C	 1.9667076282	-2.5828406491	-0.1580213605	-0.483532
C	 3.0146718532	-0.434741727	 0.902211966	-0.101659
C	 2.8576257462	 1.049988432	 0.8840849378	-0.293773
C	 2.0025242994	 0.2529302031	 1.8388970325	-0.073279
C	 0.8308183612	-0.5161331095	 1.1822197103	-0.147344
H	-0.5166494906	 1.7476458657	-1.2243008439	 0.126766
H	-1.2348605287	 1.6647065156	 0.3910539145	 0.11456
H	 0.4439202622	 2.1935732342	 0.2006496941	 0.127405
H	-0.7565944655	-0.5846272346	-0.3040323197	 0.070162
H	 2.6807562026	-2.7158092399	-0.9789057444	 0.128643
H	 2.3360350799	-3.1443140517	 0.7065513231	 0.11805
H	 1.007869102	-3.0075204088	-0.4692516114	 0.121097
H	 3.9518917831	-0.9253129526	 1.1392698713	 0.079778
H	 3.6584237107	 1.598990851	 1.3702665267	 0.107867
H	 2.4525589249	 1.5289683172	 0.0024813403	 0.129915
H	 2.0822146784	 0.4116354304	 2.907505625	 0.086613
H	 0.2629100192	-1.1414980905	 1.8712465717	 0.070509
164.9397	196.3875	204.3039	214.0765	235.5969	292.598	358.4846	424.0265	506.9303	532.141	632.4022	679.4821	747.0356	755.7537	845.8467	870.5292	878.6826	889.687	927.5265	938.1653	971.3132	988.3102	1027.4252	1054.1278	1063.2013	1095.6951	1098.6416	1129.6151	1149.9816	1151.654	1182.422	1208.9369	1257.4717	1291.1684	1316.959	1326.2788	1362.1456	1398.7444	1407.9949	1412.6198	1480.9619	1482.3068	1487.3873	1491.4343	1499.2297	2973.2206	3030.1955	3040.6269	3097.5262	3101.275	3108.6782	3111.4553	3136.4464	3141.947	3170.0158	3183.3056	3230.558
CC1OC2(C)C3CC3C12	C[C@H]1O[C@@]2(C)[C@H]3C[C@H]3[C@@H]12	
InChI=1S/C8H12O/c1-4-7-5-3-6(5)8(7,2)9-4/h4-7H,3H2,1-2H3	InChI=1S/C8H12O/c1-4-7-5-3-6(5)8(7,2)9-4/h4-7H,3H2,1-2H3/t4-,5-,6+,7-,8+/m1/s1
