19
gdb 29577	2.85932	1.35422	0.97334	1.6834	82.64	-0.1729	0.0558	0.2287	1220.5345	0.161337	-382.085974	-382.077314	-382.076369	-382.119412	33.408	
N	 0.1955757202	 1.352270484	-0.1944506552	-0.611046
C	 0.0644530584	-0.0456321568	-0.0767920684	 0.15235
C	-1.0924949935	-0.7926714177	-0.071309169	-0.161652
N	-0.7333158935	-2.1087054173	 0.1525809006	-0.245914
C	 0.622199866	-2.2025139564	 0.2830316066	-0.175664
C	 1.161807802	-0.9397726021	 0.1450778615	 0.232671
C	 2.5852566112	-0.5395158414	 0.2341501334	-0.136456
C	 3.6868067908	-1.4753897871	-0.1926196703	-0.268159
C	 3.3933606331	-0.2516157444	-1.0221967564	-0.258073
H	 1.0532708094	 1.6027349471	-0.6721897944	 0.242347
H	-0.5842178277	 1.7761386561	-0.6811310971	 0.233755
H	-2.123389775	-0.5063903477	-0.2017995203	 0.101955
H	-1.3747215828	-2.878647178	 0.2010375321	 0.256754
H	 1.1044865549	-3.1487873737	 0.4686642129	 0.112469
H	 2.8275418564	 0.1064265933	 1.0761961915	 0.092586
H	 4.5994162865	-1.49398589	 0.3925420303	 0.106857
H	 3.3997964601	-2.4368101875	-0.6033733953	 0.109506
H	 2.9020911409	-0.4014327272	-1.9774244047	 0.110713
H	 4.1055917727	 0.5663800068	-1.0011679177	 0.105002
55.4403	144.9483	154.8495	218.056	278.2534	306.9961	349.0212	420.7858	497.0958	581.9228	621.5358	627.5257	707.6275	710.7934	748.4002	791.8455	809.9221	829.1375	894.9284	918.4682	926.0116	1053.4943	1067.5255	1080.567	1081.8275	1095.7108	1134.0536	1149.7603	1196.5101	1202.2467	1230.724	1273.7267	1341.0494	1405.8974	1427.9806	1465.4597	1481.2493	1499.6931	1571.7779	1633.5766	1656.2931	3112.6976	3129.3402	3138.0036	3211.3548	3226.4477	3259.2648	3262.5579	3521.8098	3612.5832	3702.1351
NC1=CNC=C1C1CC1	Nc1c[nH]cc1C1CC1	
InChI=1S/C7H10N2/c8-7-4-9-3-6(7)5-1-2-5/h3-5,9H,1-2,8H2	InChI=1S/C7H10N2/c8-7-4-9-3-6(7)5-1-2-5/h3-5,9H,1-2,8H2
