16
gdb 112214	2.55496	1.33572	0.97573	1.79	67.13	-0.2726	-0.006	0.2666	1184.7344	0.123213	-474.982537	-474.974155	-474.973211	-475.015986	30.656	
O	-0.0161630561	 1.4571922056	-0.1474692261	-0.412604
C	-0.0075538015	 0.1258445788	 0.3236091447	-0.076334
C	-1.323210299	-0.5693293929	 0.0375594084	 0.02345
O	-1.5426590378	-0.6699233394	-1.4204671522	-0.300493
C	-1.6544537368	-2.0524870438	-1.3743426455	 0.388397
N	-1.8830462693	-2.8977524314	-2.2667844114	-0.543832
C	-1.3941978374	-2.095979043	 0.1050117502	 0.276186
C	-0.6913028842	-3.0908989257	 0.9181425995	-0.254574
O	-2.1003497991	-2.860595115	 1.0457918762	-0.249258
H	-0.1968142653	 1.4185042578	-1.093891331	 0.296521
H	 0.8152633511	-0.4603710546	-0.1148448205	 0.096323
H	 0.1524678901	 0.1728914524	 1.4064647115	 0.122269
H	-2.1670580002	-0.0527926872	 0.5028426873	 0.120305
H	-2.015381566	-2.4646018558	-3.1818002633	 0.236217
H	-0.4138762252	-4.0390886349	 0.4629631756	 0.147293
H	-0.0867332334	-2.7655132107	 1.7630129766	 0.130134
81.2523	118.2003	138.5551	225.9301	239.2231	301.8794	354.2541	414.4718	465.9899	583.3821	607.1462	692.8568	754.0373	842.4463	862.6414	893.7874	921.4685	977.1286	1011.9182	1028.231	1090.5028	1104.2214	1127.4336	1146.6213	1166.184	1213.5346	1245.7443	1274.2128	1341.3811	1400.7138	1429.9831	1447.2252	1492.7218	1533.2182	1835.5424	2986.0097	3072.1881	3090.9163	3093.6354	3190.6159	3486.1751	3800.5199
OCC1OC(=N)C11CO1	OC[C@H]1O[C]([NH])[C@]21CO2	
InChI=1S/C5H7NO3/c6-4-5(2-8-5)3(1-7)9-4/h3,6-7H,1-2H2	InChI=1S/C5H7NO3/c6-4-5(2-8-5)3(1-7)9-4/h3,6-7H,1-2H2/t3-,5-/m1/s1
