20
gdb 133620	2.56631	1.03994	1.02563	2.03	67.82	-0.3236	0.0665	0.3901	1290.1918	0.165102	-534.679822	-534.669843	-534.668899	-534.714975	37.376	
C	-0.1310613734	 1.7810196391	-0.2634942988	-0.405805
C	-0.1909348146	 0.2689294153	 0.0260433739	 0.245422
C	 0.2061956112	 0.0029733475	 1.4907535024	-0.405804
C	-1.6388563711	-0.2176109565	-0.1886733609	-0.40395
C	 0.6891314524	-0.5391434539	-0.9622657878	-0.348856
C	 2.1850712736	-0.2851630114	-0.9923356621	 0.274652
F	 2.7865556811	-0.5448753105	 0.1819722584	-0.078441
F	 2.76537253	-1.0803113575	-1.9099032266	-0.077482
F	 2.4972679509	 0.9804163684	-1.3227661663	-0.078487
H	 0.8588923766	 2.1976030376	-0.0686997331	 0.126481
H	-0.3848100553	 1.9960517432	-1.3073171796	 0.10956
H	-0.8509730875	 2.3101295003	 0.3695897157	 0.109406
H	-0.5059857868	 0.4912342084	 2.1641175703	 0.109408
H	 0.1965706216	-1.0689626191	 1.7167162372	 0.10956
H	 1.2030500845	 0.3831120427	 1.7215498089	 0.126475
H	-1.9725395635	-0.0400966382	-1.2170345171	 0.11134
H	-1.7355796917	-1.2895390047	 0.0162837467	 0.111344
H	-2.3234743342	 0.3132183408	 0.4806270638	 0.114929
H	 0.5747094208	-1.6100581364	-0.7621555633	 0.12512
H	 0.3394059254	-0.3689932252	-1.9863403216	 0.125128
29.9249	124.138	183.1007	235.9282	268.7958	271.806	289.9423	297.28	320.3975	379.78	388.4873	419.3667	476.9683	541.5449	546.9982	676.2657	761.0212	843.4203	897.3875	927.6815	942.6277	952.7999	964.0852	1041.3822	1048.3119	1117.3739	1151.5218	1245.1445	1258.8872	1265.7695	1284.0336	1333.9947	1389.4825	1401.9648	1404.9423	1437.8591	1468.9427	1480.8529	1486.7839	1489.7004	1508.2718	1509.2717	1519.8971	3024.5213	3032.8927	3037.7672	3049.5016	3090.651	3092.7743	3095.6167	3098.0565	3103.2126	3129.0963	3132.9902
CC(C)(C)CC(F)(F)F	CC(C)(C)CC(F)(F)F	
InChI=1S/C6H11F3/c1-5(2,3)4-6(7,8)9/h4H2,1-3H3	InChI=1S/C6H11F3/c1-5(2,3)4-6(7,8)9/h4H2,1-3H3
