14
gdb 132008	2.34792	1.83915	1.03798	4.7466	68.47	-0.2434	-0.0423	0.2011	1059.9966	0.10006	-481.834496	-481.826767	-481.825823	-481.866927	28.402	
C	 0.0828672346	 1.5144202348	 0.0303180016	-0.482534
C	-0.0208514816	 0.0278355238	 0.0114059503	 0.2444
C	-1.1549865141	-0.688777051	-0.1393794189	 0.052019
F	-2.3137209824	-0.0488880671	-0.2884402296	-0.061156
C	-1.1952155565	-2.1566483166	-0.1499772966	 0.30328
O	-2.2228775469	-2.7999678255	-0.2865856535	-0.370265
C	 0.1407315069	-2.7302060236	 0.0224820088	-0.276052
C	 1.2218071381	-1.94765494	 0.1665765553	 0.07047
O	 1.1797637502	-0.5986767841	 0.1659930419	-0.221775
H	 0.7390247874	 1.8640524881	-0.7737735859	 0.151253
H	-0.9038821411	 1.9587163986	-0.0968469548	 0.159117
H	 0.5103714757	 1.8577189733	 0.9783307735	 0.15125
H	 0.2426708576	-3.8081313353	 0.0318776509	 0.131876
H	 2.2361366921	-2.3030940055	 0.297809167	 0.148116
116.0946	123.4457	181.2642	283.9171	308.1877	309.9558	482.2338	509.6791	510.1863	543.2315	556.6682	679.7596	756.7747	845.5081	854.8431	933.6857	962.0477	1031.9881	1063.2677	1100.763	1208.428	1220.2488	1289.1246	1391.8054	1415.4446	1441.4434	1477.7456	1478.2226	1640.345	1705.6348	1755.9515	3042.8704	3097.6977	3162.2837	3210.9114	3229.4729
CC1=C(F)C(=O)C=CO1	Cc1c(F)c(=O)cco1	
InChI=1S/C6H5FO2/c1-4-6(7)5(8)2-3-9-4/h2-3H,1H3	InChI=1S/C6H5FO2/c1-4-6(7)5(8)2-3-9-4/h2-3H,1H3
