17
gdb 9530	2.76721	1.90312	1.59518	4.3713	63.94	-0.2346	0.0109	0.2455	898.5033	0.141518	-401.010983	-401.00258	-401.001636	-401.043715	30.264	
C	-0.1236729266	 1.4947367673	-0.0104721964	-0.336753
N	 0.0978418733	 0.0473016771	 0.0170392394	-0.329785
C	 0.7578634038	-0.5087757625	-1.1583704438	 0.100208
C	 2.1751943538	-0.0047544133	-1.4471490137	-0.459998
C	 0.5521547098	-2.0378633032	-1.2748956083	-0.110313
O	-0.30624815	-1.8501211074	-2.4474853945	-0.240297
C	-0.1816207204	-0.4904761101	-2.3848939555	 0.472834
O	-0.6790795612	 0.3229612492	-3.0967820617	-0.33512
H	 0.7951867336	 2.101878153	-0.0298406466	 0.101082
H	-0.7149726632	 1.7495586334	-0.8931017403	 0.160343
H	-0.697019075	 1.776558891	 0.8770467438	 0.123328
H	 0.6342038642	-0.2017704042	 0.8431883034	 0.21888
H	 2.831702754	-0.2105057545	-0.5940261162	 0.117047
H	 2.6014206899	-0.4900097911	-2.3308214362	 0.129654
H	 2.1738996027	 1.0731233527	-1.628009343	 0.143556
H	 1.4306770325	-2.632238649	-1.5342766474	 0.1187
H	-0.0103611313	-2.4867427186	-0.455190893	 0.126633
101.6534	123.7406	164.8547	214.8588	223.5839	268.0798	316.4117	369.0295	420.4239	556.3698	678.4522	729.124	772.3156	789.2196	898.6547	915.9559	956.5255	968.1756	1079.7074	1103.8973	1138.1141	1152.2888	1165.2611	1202.7747	1235.2997	1274.2587	1357.1443	1405.2928	1457.5551	1468.0587	1485.4154	1496.3056	1502.4762	1508.6558	1524.9232	1928.1474	2978.2135	3032.816	3073.8114	3081.9873	3101.3081	3123.5848	3131.074	3143.4078	3500.2172
CNC1(C)COC1=O	CN[C@@]1(C)COC1=O	
InChI=1S/C5H9NO2/c1-5(6-2)3-8-4(5)7/h6H,3H2,1-2H3	InChI=1S/C5H9NO2/c1-5(6-2)3-8-4(5)7/h6H,3H2,1-2H3/t5-/m0/s1
