20
gdb 6379	4.7183	1.00302	0.92837	1.4909	72.18	-0.268	0.0177	0.2857	1339.5855	0.174454	-386.188414	-386.178409	-386.177464	-386.22425	34.645	
C	-0.1599698364	 1.3742101476	-0.0491250377	-0.239048
O	-0.1020728777	-0.0472872145	 0.1203519985	-0.231658
C	 0.7158716779	-0.4789357842	 1.1036603878	 0.444646
O	 1.3493598741	 0.2648007653	 1.8113395972	-0.359792
C	 0.7382434769	-1.9934599927	 1.1581907984	-0.320268
C	 1.3395546673	-2.5593139905	 2.4526373385	 0.054668
C	 0.4411467608	-2.2697540704	 3.6629202717	-0.389566
C	 1.6053017222	-4.062610512	 2.3059757897	-0.395706
H	 0.8282096358	 1.7764821054	-0.2867730994	 0.13918
H	-0.8509650675	 1.5472950494	-0.8743238252	 0.131704
H	-0.5232264069	 1.8573301339	 0.8615544431	 0.139647
H	-0.2795417192	-2.3651331882	 0.9922460655	 0.122708
H	 1.3205013034	-2.3278317604	 0.2888221152	 0.12707
H	 2.2958741889	-2.0480089584	 2.6139432681	 0.095189
H	 0.2847986196	-1.195599012	 3.7906324559	 0.1314
H	-0.5386145461	-2.7501423074	 3.5480803087	 0.105419
H	 0.8914133209	-2.6548058357	 4.5835913721	 0.111212
H	 2.2826160803	-4.2717882568	 1.4708734241	 0.108949
H	 2.0582887234	-4.470051798	 3.2153774488	 0.113144
H	 0.6741272723	-4.6132354503	 2.1253456889	 0.111102
25.9289	80.9072	117.2513	141.7073	180.1851	225.9795	251.0174	287.6605	318.1035	359.1034	416.537	456.8434	596.4683	710.1744	835.0088	893.47	902.0527	931.4738	965.6241	973.3919	1033.8221	1126.8789	1144.1853	1178.8653	1190.8981	1206.5066	1221.7371	1255.3633	1322.9906	1365.8184	1393.6925	1400.6429	1421.4179	1454.4384	1472.7617	1481.4465	1489.1662	1493.5712	1497.7391	1504.836	1513.3768	1814.3312	3022.7651	3025.0652	3028.9711	3040.7601	3050.7254	3071.0631	3087.2783	3094.3691	3100.8769	3119.4368	3124.306	3157.255
COC(=O)CC(C)C	COC(=O)CC(C)C	
InChI=1S/C6H12O2/c1-5(2)4-6(7)8-3/h5H,4H2,1-3H3	InChI=1S/C6H12O2/c1-5(2)4-6(7)8-3/h5H,4H2,1-3H3
