23
gdb 57645	2.61662	0.9861	0.89796	2.5652	85.97	-0.2454	-0.0173	0.2281	1447.6649	0.203022	-388.294849	-388.284384	-388.28344	-388.330629	38.675	
C	 0.0214929763	 1.6543538622	 0.1727326633	-0.41893
C	 0.0558597242	 0.1132284329	 0.0821707025	 0.155315
C	 0.8924384548	-0.4491652783	 1.2520059464	-0.424906
C	-1.3556412631	-0.5084191746	 0.0266444263	-0.219287
C	-2.2405886434	-0.2486126718	 1.2292441837	 0.007898
C	-3.1558420234	 0.952423424	 1.2854033457	-0.254476
C	-3.7330932587	-0.4288938512	 1.1050624027	-0.277694
C	 0.8126600761	-0.2274327442	-1.197760504	 0.152334
O	 0.3839561001	-0.8607991854	-2.1268170322	-0.2584
H	 1.0329916817	 2.0736895283	 0.1309024456	 0.113624
H	-0.5583999044	 2.0890880154	-0.6477630119	 0.122213
H	-0.4349303329	 1.9694311449	 1.1142448499	 0.133171
H	 0.4855947717	-0.1190350454	 2.2120209549	 0.126497
H	 0.9040777106	-1.5439417875	 1.2438128748	 0.124635
H	 1.929502409	-0.0993891621	 1.1990454477	 0.116225
H	-1.8592646406	-0.146302569	-0.8774368716	 0.101295
H	-1.2431799771	-1.5899549613	-0.1170978201	 0.106298
H	-1.8220833246	-0.5595763515	 2.1827721178	 0.081193
H	-3.3007752585	 1.4522818031	 2.2371135973	 0.108509
H	-3.1694673406	 1.6196232459	 0.4298170354	 0.110809
H	-4.1290392394	-0.6876150154	 0.1283140172	 0.11374
H	-4.2708863885	-0.8760093219	 1.9337084364	 0.109542
H	 1.8532623103	 0.1792603329	-1.2169575979	 0.070395
48.0021	85.9295	109.6711	143.1862	218.443	242.9359	255.4947	309.2131	311.2222	348.8497	371.5126	408.6208	470.9148	617.3841	739.3802	786.1944	822.8219	835.7402	884.9739	890.3988	932.6714	944.0373	959.7814	990.5382	1006.2153	1048.8203	1063.0653	1080.2035	1108.2016	1142.4547	1199.691	1201.9039	1221.0549	1234.2655	1262.3186	1299.9242	1349.1704	1391.9535	1407.3938	1419.6278	1430.535	1467.5568	1475.3097	1484.0307	1488.3686	1504.1149	1509.9227	1510.745	1831.4829	2835.297	3028.8443	3029.8392	3034.8228	3065.6	3096.1054	3098.6836	3110.2939	3120.6656	3128.1931	3132.6911	3142.2049	3205.7039	3221.1641
CC(C)(CC1CC1)C=O	CC(C)(CC1CC1)C=O	
InChI=1S/C8H14O/c1-8(2,6-9)5-7-3-4-7/h6-7H,3-5H2,1-2H3	InChI=1S/C8H14O/c1-8(2,6-9)5-7-3-4-7/h6-7H,3-5H2,1-2H3
