23
gdb 88208	3.11664	1.17069	1.00231	1.2217	85.51	-0.2484	0.0812	0.3296	1284.4089	0.207757	-388.29955	-388.290904	-388.289959	-388.332316	34.973	
O	-0.0691276714	 1.4349016493	-0.0446021226	-0.423211
C	-0.0446976359	 0.0358418049	 0.0062160309	 0.024398
C	-0.5107839143	-0.6796109008	 1.2539589489	-0.370702
C	-1.3597338089	-0.6821558242	-0.0104627044	 0.370621
C	-2.6519100577	 0.120720561	-0.0072440374	-0.254403
C	-3.8240110995	-0.7315072755	 0.5045993889	-0.192981
C	-3.9578037622	-2.0386398275	-0.291052142	-0.178176
C	-2.643914323	-2.8349526241	-0.2849325923	-0.187862
C	-1.4724465273	-1.9803364453	-0.7953367317	-0.268239
H	 0.6268234214	 1.7634344544	 0.5338233637	 0.286319
H	 0.7736703092	-0.419621831	-0.5541220687	 0.078498
H	-0.0022926062	-1.5902607822	 1.555522171	 0.10349
H	-0.8471308353	-0.0535387086	 2.0745413223	 0.107282
H	-2.5344617842	 1.0285397876	 0.5894816551	 0.09937
H	-2.8666710741	 0.4515721871	-1.0333954589	 0.092482
H	-3.6608808205	-0.9689964753	 1.5646463525	 0.091725
H	-4.7558286292	-0.1570329672	 0.4515670467	 0.086638
H	-4.773372417	-2.648961954	 0.1132638137	 0.086851
H	-4.2310470586	-1.8022061506	-1.329309909	 0.090205
H	-2.427410311	-3.1670398376	 0.7394153535	 0.093544
H	-2.7429002052	-3.7403727178	-0.8943907476	 0.086712
H	-1.6328028325	-1.7437480594	-1.8572385121	 0.093579
H	-0.5345920067	-2.5453246434	-0.7393103503	 0.083857
110.5643	166.9506	187.9821	261.9935	294.5098	301.8922	365.0912	406.232	429.2316	476.5321	488.7848	599.8512	681.5015	798.7696	805.48	842.704	862.1581	888.5613	913.3655	936.4667	970.4222	974.1387	1019.1622	1032.0541	1045.8613	1077.5397	1087.9544	1116.5032	1137.4136	1167.2064	1179.86	1228.9832	1267.8455	1279.1185	1291.2552	1314.6009	1336.5801	1363.756	1367.7725	1376.3092	1378.3529	1395.6346	1427.5394	1478.3756	1483.8612	1485.9613	1487.4817	1495.4991	1504.7558	3001.9153	3007.4636	3009.7971	3016.7841	3018.0584	3053.6122	3059.2154	3061.4237	3067.2767	3080.5863	3095.1738	3119.4696	3207.6032	3806.1626
OC1CC11CCCCC1	O[C@H]1CC21CCCCC2	
InChI=1S/C8H14O/c9-7-6-8(7)4-2-1-3-5-8/h7,9H,1-6H2	InChI=1S/C8H14O/c9-7-6-8(7)4-2-1-3-5-8/h7,9H,1-6H2/t7-/m0/s1
