16
gdb 43954	3.55045	1.46122	1.4116	3.1701	69.64	-0.2541	-0.0046	0.2495	947.6969	0.125934	-437.795869	-437.789374	-437.78843	-437.82661	26.764	
O	-0.2438629962	-0.0498987596	-0.421632976	-0.308338
C	-0.0809284037	 1.0956444801	-0.1475188175	 0.322423
N	-1.0141706943	 2.1819345434	-0.0012074691	-0.418467
C	-0.0103666914	 2.9515513314	 0.749868554	 0.245289
C	 0.9540635846	 4.190528434	 0.6795483192	-0.324987
C	 1.9753835957	 3.0280469306	 1.0861614789	 0.046629
O	 1.5863696379	 2.6986786912	 2.3989399677	-0.245614
C	 0.16276087	 2.5542275168	 2.2361384782	-0.101957
C	 1.0870364882	 2.1464881789	 0.0918952426	-0.147643
H	-1.9642975106	 2.017282228	 0.3146606273	 0.246293
H	 1.1046805462	 4.5937994773	-0.3203015986	 0.123651
H	 0.8372598354	 4.9830955091	 1.4230297896	 0.110002
H	 3.0565168863	 3.1219108975	 1.0067129803	 0.105002
H	-0.3680112183	 3.2105111749	 2.9345934072	 0.108799
H	-0.1272577419	 1.512601071	 2.4232146458	 0.115968
H	 1.2721003621	 2.5406570155	-0.9114352495	 0.122948
134.8136	239.3382	351.3675	406.8124	458.7868	528.0503	558.6036	590.8971	651.364	668.8779	740.6622	811.4072	835.0061	864.8254	935.4605	949.9234	966.5762	979.4633	1001.6927	1026.4444	1072.9364	1099.2016	1116.0636	1163.0282	1178.5542	1192.4048	1197.6574	1239.3897	1284.7489	1314.5524	1353.3919	1378.2788	1484.5619	1515.7443	1904.8536	3021.3587	3063.9036	3071.3673	3073.5171	3151.5363	3162.1989	3539.1542
O=C1NC23CC(OC2)C13	O=C1N[C@@]23C[C@@H](OC2)[C@@H]13	
InChI=1S/C6H7NO2/c8-5-4-3-1-6(4,7-5)2-9-3/h3-4H,1-2H2,(H,7,8)	InChI=1S/C6H7NO2/c8-5-4-3-1-6(4,7-5)2-9-3/h3-4H,1-2H2,(H,7,8)/t3-,4+,6+/m1/s1
