18
gdb 13113	3.99469	1.26111	1.03101	2.7085	70.11	-0.2313	0.024	0.2553	1164.1058	0.154213	-381.105799	-381.09741	-381.096465	-381.13928	30.044	
C	-0.1194036335	 1.4847041972	 0.0313078298	-0.390893
C	-0.1483892118	-0.036061725	 0.1379518887	-0.114123
N	 0.8896536804	-0.5086953721	 1.0606057265	-0.30397
C	 0.9152004451	-1.9499258192	 1.2074370778	-0.105872
C	 1.8587822822	-2.4827943639	 2.3065883693	-0.107547
O	 0.7147923875	-3.0116639598	 3.0474650721	-0.250403
C	-0.1698740064	-2.5203101878	 2.1125446404	 0.469039
N	-1.4221619446	-2.5555888777	 2.0733405058	-0.545793
H	 0.8388095804	 1.8375313166	-0.368861197	 0.106827
H	-0.9078801582	 1.8393178378	-0.6388408206	 0.118278
H	-0.2638136783	 1.9429809765	 1.0137025553	 0.129479
H	-1.1127602842	-0.3723173667	 0.5306723619	 0.14736
H	-0.0444890718	-0.485708145	-0.8673708056	 0.075933
H	 1.7981577416	-0.1989480251	 0.7246144611	 0.21471
H	 0.9903652472	-2.5041937357	 0.2560369772	 0.085353
H	 2.5460612724	-3.2834501988	 2.0245507821	 0.118735
H	 2.3691370058	-1.7054206132	 2.8796904049	 0.124434
H	-1.8089216339	-3.0200527281	 2.8972064602	 0.228454
74.5134	95.8208	112.8456	186.3911	243.1723	271.3238	378.0267	402.653	472.4803	679.4826	736.274	787.8655	822.6846	834.5867	869.8888	925.0261	957.0334	974.0412	1019.4867	1063.7831	1075.9819	1146.9693	1161.4553	1175.206	1190.1469	1237.1584	1258.2262	1306.0357	1339.4288	1383.4983	1394.5337	1415.4168	1480.2825	1497.6371	1499.906	1505.135	1525.9329	1824.9161	2926.7069	2950.6367	3030.8372	3065.8947	3080.5814	3102.6253	3121.2021	3130.1497	3470.8814	3486.8754
CCNC1COC1=N	CCN[C@H]1CO[C]1[NH]	
InChI=1S/C5H10N2O/c1-2-7-4-3-8-5(4)6/h4,6-7H,2-3H2,1H3	InChI=1S/C5H10N2O/c1-2-7-4-3-8-5(4)6/h4,6-7H,2-3H2,1H3/t4-/m0/s1
