23
gdb 66236	2.81599	1.2003	1.14576	1.6221	84.1	-0.2619	0.0732	0.3351	1233.8258	0.206639	-388.288137	-388.278969	-388.278025	-388.322221	35.066	
C	 0.2166330719	 1.4841201538	 0.215454055	-0.434048
C	-0.0301673808	-0.0167779983	-0.0216686431	 0.283021
C	 0.7234044535	-0.5227874229	-1.2732549045	-0.249956
C	 2.1719390093	-0.8115558054	-0.807355988	-0.213384
C	 2.1054496985	-0.9665552473	 0.7402139483	-0.21478
C	 0.6090102372	-0.8755004159	 1.0995837605	-0.229083
C	-1.5311744292	-0.2465636871	-0.0713654088	 0.045163
C	-2.3230652938	-0.3146386858	-1.3059212609	-0.191145
O	-2.0055451028	-1.4999240215	-0.5684746015	-0.245973
H	 1.2845947047	 1.7049083128	 0.3034702123	 0.118868
H	-0.1799514102	 2.0828376793	-0.6116478152	 0.113541
H	-0.2672113205	 1.8244844553	 1.1381104107	 0.111675
H	 0.2436988795	-1.4459867461	-1.6130888945	 0.116821
H	 0.6888008718	 0.1925482204	-2.1008109161	 0.086763
H	 2.5672654256	-1.7089210453	-1.2909450163	 0.099682
H	 2.8430216332	 0.0071794443	-1.0834028542	 0.097467
H	 2.5463331341	-1.9063324124	 1.0832575898	 0.097675
H	 2.6679621377	-0.1649580801	 1.2288515227	 0.098173
H	 0.4323568334	-0.4628902631	 2.0982603164	 0.087189
H	 0.1528891899	-1.8714100227	 1.0719020332	 0.113017
H	-2.0555191375	 0.0827962902	 0.8295927492	 0.084174
H	-3.3734173047	-0.026531262	-1.2941051041	 0.112133
H	-1.8291415308	-0.2245951201	-2.2714459709	 0.113011
62.4979	96.6177	150.3153	202.05	223.3553	245.0867	314.5455	347.9009	432.053	495.8718	590.316	639.3604	710.4222	805.227	819.9183	847.9355	882.6414	893.7368	929.6832	931.8786	956.6392	984.8392	1014.4316	1034.5593	1056.684	1069.9026	1099.9652	1156.124	1170.1146	1183.3447	1193.4284	1232.4975	1256.578	1261.0378	1271.9361	1307.9282	1318.0049	1335.0605	1341.1214	1366.9721	1408.1733	1435.0009	1485.5108	1488.7755	1491.3524	1502.5401	1507.7	1520.3593	1529.3263	3027.2022	3038.1005	3044.4075	3047.2631	3060.1422	3071.6047	3073.7856	3082.8253	3088.0081	3090.6094	3093.3883	3103.7445	3107.8603	3173.9155
CC1(CCCC1)C1CO1	CC1(CCCC1)[C@H]1CO1	
InChI=1S/C8H14O/c1-8(7-6-9-7)4-2-3-5-8/h7H,2-6H2,1H3	InChI=1S/C8H14O/c1-8(7-6-9-7)4-2-3-5-8/h7H,2-6H2,1H3/t7-/m1/s1
