20
gdb 73099	2.59468	1.54469	1.29788	3.2655	79.8	-0.2506	0.0326	0.2833	1080.5165	0.171867	-403.175636	-403.167441	-403.166496	-403.208446	32.165	
C	-0.0937981502	 1.5712100513	 0.0949986278	-0.4568
C	 0.029960369	 0.0635682421	 0.0593015502	 0.399959
C	-1.229879057	-0.8131873099	 0.2753466399	-0.259239
C	-0.398480137	-1.7565495271	 1.1902871021	-0.240691
C	 0.7654286762	-0.7184262196	 1.1938532018	-0.060708
C	 2.0932026896	-1.1468575584	 0.5846272803	-0.317996
C	 1.8418977978	-1.0596822519	-0.9092576173	 0.391904
N	 2.5655577944	-1.5739878625	-1.8070833015	-0.541828
O	 0.7131659051	-0.3255796762	-1.1523546324	-0.278242
H	 0.893913683	 2.0431490741	 0.0748264007	 0.123235
H	-0.6598202568	 1.9316196948	-0.7700543944	 0.130975
H	-0.6130603043	 1.8921782854	 1.0030463766	 0.116841
H	-2.0140224746	-0.2769412655	 0.81648494	 0.102856
H	-1.6553806798	-1.2416185798	-0.6340123171	 0.112706
H	-0.8330342449	-1.9865502644	 2.164730101	 0.104634
H	-0.1217063923	-2.6973935893	 0.7072781296	 0.114154
H	 0.8636255884	-0.1720773973	 2.1327875494	 0.075192
H	 2.9042798785	-0.4588758942	 0.848683014	 0.129493
H	 2.416538503	-2.1521044935	 0.8622038716	 0.134833
H	 2.1900243918	-1.3603809683	-2.7328887022	 0.218722
82.5924	93.1438	216.7524	243.0717	312.5804	363.2921	388.4549	464.244	521.6195	593.2134	645.3655	661.9331	748.6529	798.5563	838.7659	868.3985	893.9231	911.5562	933.8424	942.566	959.1599	998.7636	1057.3146	1090.1555	1106.3568	1139.7085	1178.2122	1196.7649	1206.3005	1231.2733	1239.0713	1275.5457	1296.6296	1316.5219	1322.5201	1352.9865	1410.7513	1468.4637	1471.4183	1484.1138	1490.4012	1491.5933	1771.7062	3035.0432	3050.9345	3063.4167	3066.7032	3098.4243	3107.0157	3112.1034	3112.6851	3116.3034	3130.6075	3469.2701
CC12CCC1CC(=N)O2	C[C@]12CC[C@H]1C[C]([NH])O2	
InChI=1S/C7H11NO/c1-7-3-2-5(7)4-6(8)9-7/h5,8H,2-4H2,1H3	InChI=1S/C7H11NO/c1-7-3-2-5(7)4-6(8)9-7/h5,8H,2-4H2,1H3/t5-,7-/m0/s1
