19
gdb 69369	4.99095	0.93885	0.87545	2.2887	76.27	-0.2465	0.0801	0.3266	1361.4055	0.157836	-422.968782	-422.96027	-422.959326	-423.002274	32.011	
C	 0.357066837	 1.5997904139	 0.2307410673	-0.500857
C	 0.0188533689	 0.1483161771	 0.1408867888	 0.424583
C	-1.2735536091	-0.509045796	-0.3766475712	-0.318725
C	-0.992615957	-1.7248220673	 0.5854493555	-0.035117
C	-0.815592128	-3.0862933158	-0.0231373013	 0.091144
C	-1.141541753	-4.3185775992	 0.7067722834	-0.188905
O	-2.0134026212	-3.8199532361	-0.3077271899	-0.240674
C	 0.2922737969	-0.9981503663	 1.0274466	-0.069144
O	 1.0790867116	-0.7790704481	-0.1534319054	-0.286711
H	 1.2899481485	 1.7416184805	 0.7827690891	 0.134818
H	 0.4834877146	 2.0311435667	-0.7687934151	 0.132972
H	-0.4403340861	 2.1538014704	 0.7364242808	 0.125125
H	-2.1830957987	 0.0310928802	-0.1042909178	 0.108873
H	-1.2842345261	-0.7252081382	-1.4477657939	 0.113138
H	-1.7351165696	-1.7670473592	 1.387295353	 0.08101
H	-0.0621793799	-3.140836396	-0.8082539205	 0.106078
H	-0.621751838	-5.245056133	 0.466052484	 0.115397
H	-1.5247130045	-4.255479923	 1.7251757813	 0.108171
H	 0.8263011137	-1.0646985507	 1.9694776117	 0.098823
67.6461	103.7239	156.9032	200.9586	289.6242	303.9463	331.3035	405.5011	460.0714	553.6124	659.0454	732.3575	803.1544	856.1921	861.9119	897.1271	921.4149	935.6577	943.8115	993.5558	1010.0774	1046.6506	1059.9353	1107.7555	1144.6149	1155.6771	1177.8372	1194.3068	1207.9547	1216.0794	1257.3208	1270.3093	1289.2773	1307.6126	1404.0721	1443.2408	1461.9448	1478.3279	1486.8634	1498.3008	1530.0253	3034.302	3065.9303	3073.9098	3077.9703	3096.4199	3121.2306	3122.1951	3126.2557	3163.6703	3174.2954
CC12CC(C3CO3)C1O2	C[C@]12C[C@@H]([C@H]3CO3)[C@H]1O2	
InChI=1S/C7H10O2/c1-7-2-4(5-3-8-5)6(7)9-7/h4-6H,2-3H2,1H3	InChI=1S/C7H10O2/c1-7-2-4(5-3-8-5)6(7)9-7/h4-6H,2-3H2,1H3/t4-,5+,6+,7-/m0/s1
