18
gdb 19789	2.96858	2.58924	1.80715	2.4679	70.36	-0.2213	0.0664	0.2878	796.6285	0.156424	-343.933695	-343.926988	-343.926043	-343.964174	27.225	
C	 0.0864005976	 1.5599395515	 0.0116691293	-0.389431
C	 0.0236413844	 0.0294776288	 0.0018407188	 0.011752
C	 0.6948841251	-0.617704726	-1.2195499515	-0.056184
N	 2.1301597973	-0.3161853555	-1.3785628988	-0.309338
C	 1.7189420038	-1.597668344	-0.7675820002	-0.044449
C	 1.7197628173	-1.6074364812	 0.7483964256	-0.044449
N	 2.1316505193	-0.3339292045	 1.3753946849	-0.309339
C	 0.6962006793	-0.6333865135	 1.2140627698	-0.056184
H	 1.1295931525	 1.8821478265	 0.0131822682	 0.156037
H	-0.4080731556	 1.9807012547	-0.8701967731	 0.102281
H	-0.4071174182	 1.9692978404	 0.899418004	 0.102281
H	-1.0257052325	-0.2947745175	 0.0003184492	 0.068018
H	 0.0981573178	-0.777647507	-2.1134337393	 0.078829
H	 2.3966581779	-0.4849681524	-2.3462003076	 0.226011
H	 1.9109407488	-2.5251623334	-1.2964815153	 0.079662
H	 1.9123296761	-2.5416677776	 1.2650909038	 0.079662
H	 2.3991925015	-0.515167333	 2.340488296	 0.226011
H	 0.1004411377	-0.8048381863	 2.1064570462	 0.078829
161.5678	208.8742	224.1015	326.4572	399.673	538.0491	556.6953	676.6355	693.6071	767.0243	821.6277	834.8761	858.1988	879.5789	891.436	911.8832	943.4483	948.222	1032.4184	1058.7183	1062.8882	1106.1621	1127.6037	1134.0623	1136.8556	1175.133	1190.764	1232.3383	1249.3806	1321.7519	1334.4676	1338.3309	1390.9437	1399.9888	1422.9423	1429.4547	1493.4108	1502.9038	3018.1691	3035.9686	3095.2501	3137.912	3139.1887	3142.2386	3160.1009	3174.1795	3487.6765	3489.0458
CC1C2NC2C2NC12	C[C@H]1[C@H]2N[C@H]2[C@H]2N[C@@H]12	
InChI=1S/C6H10N2/c1-2-3-5(7-3)6-4(2)8-6/h2-8H,1H3	InChI=1S/C6H10N2/c1-2-3-5(7-3)6-4(2)8-6/h2-8H,1H3/t2-,3+,4-,5+,6-
