17
gdb 73944	2.92712	1.25344	0.89195	0.4545	80.11	-0.2506	-0.0925	0.1581	1247.3656	0.134564	-421.888583	-421.879603	-421.878659	-421.923176	31.573	
C	 0.0726629579	 1.539007104	 0.0278060761	-0.501559
C	-0.0373759461	 0.051587301	 0.0196363542	 0.109832
C	-1.111823557	-0.7638984936	-0.0531851357	 0.118741
C	-0.7534832562	-2.2347685245	-0.0296685279	-0.316398
C	 0.78165839	-2.2534292219	 0.0736795471	-0.35375
C	 1.2024061283	-0.7823109996	 0.1030192497	 0.358835
O	 2.3278488301	-0.3478109966	 0.1795494974	-0.316244
C	-2.5195830477	-0.3460237747	-0.1478857703	 0.08396
O	-3.4381027614	-1.1339017897	-0.2104192415	-0.256439
H	 0.70232928	 1.8690981745	-0.8058000133	 0.155192
H	-0.8909349678	 2.0460402221	-0.0368677387	 0.131739
H	 0.5853098155	 1.8679949653	 0.9384210855	 0.155209
H	-1.2454256698	-2.733479234	 0.8116549621	 0.134576
H	-1.1282583598	-2.7327702462	-0.9297151792	 0.134578
H	 1.1471270583	-2.7511846142	 0.9767783071	 0.141168
H	 1.264866772	-2.7499205964	-0.7730380051	 0.141173
H	-2.7054239564	 0.7473759345	-0.1596076778	 0.079387
62.2586	79.1512	104.5613	163.3612	195.425	269.5213	292.8136	410.9064	446.0841	524.6692	600.5657	620.5779	663.2981	750.7147	824.9822	858.4169	967.5516	1008.2242	1042.1825	1046.127	1059.9697	1097.9601	1153.771	1177.1137	1224.9657	1264.7371	1310.0452	1363.5001	1411.4884	1426.9543	1448.6149	1468.3101	1473.6528	1484.0435	1686.9159	1775.532	1808.3153	2920.284	3041.6617	3053.9994	3065.9916	3080.6396	3091.5368	3105.4902	3140.03
CC1=C(CCC1=O)C=O	CC1=C(CCC1=O)C=O	
InChI=1S/C7H8O2/c1-5-6(4-8)2-3-7(5)9/h4H,2-3H2,1H3	InChI=1S/C7H8O2/c1-5-6(4-8)2-3-7(5)9/h4H,2-3H2,1H3
