19
gdb 35735	4.07076	0.99408	0.88253	1.7627	81.66	-0.2565	0.0527	0.3092	1331.0216	0.15879	-385.852094	-385.843612	-385.842668	-385.885754	32.736	
C	-0.094684727	-1.2035337903	-0.1561852944	-0.441566
C	-0.0387787242	-0.0065209853	-0.0577389914	 0.303667
C	 0.0348851654	 1.4396310993	 0.0782448523	-0.166984
C	-0.5627995393	 1.9960877919	 1.3972070906	-0.218239
C	-0.0308455363	 3.43624651	 1.4359150611	-0.300447
C	 1.3773304661	 3.3315148497	 0.845641922	 0.44386
C	 2.2207933521	 4.5007028351	 0.5780684143	-0.256251
O	 2.4801875924	 3.653518689	 1.7011758353	-0.272316
C	 1.4789554988	 2.0102040677	 0.0765720495	-0.301515
H	-0.1455611855	-2.2601532497	-0.2468660633	 0.192938
H	-0.5166824343	 1.8960304932	-0.7554965573	 0.103445
H	-1.6525635622	 1.9271109047	 1.4218321478	 0.107709
H	-0.171200083	 1.4169058567	 2.2402779467	 0.118775
H	-0.6523868933	 4.0829251799	 0.8043124772	 0.104894
H	-0.0023283307	 3.8730439995	 2.4365980458	 0.117508
H	 2.9634904401	 4.4630630385	-0.2188103348	 0.11091
H	 1.8560681291	 5.4994962019	 0.8196090907	 0.109526
H	 2.1464330049	 1.338943376	 0.6252179935	 0.132116
H	 1.880120637	 2.1247657823	-0.9330801958	 0.111969
36.5519	135.1452	139.5952	267.9955	316.9219	365.7416	405.9975	437.5753	509.5977	528.2834	544.5076	625.6227	631.762	726.0532	811.3527	828.3562	868.7346	912.7945	930.5923	975.4381	992.8707	1026.3293	1045.2328	1063.4003	1129.4564	1160.8618	1178.0899	1182.1665	1221.7569	1247.8672	1270.6338	1305.4501	1315.5547	1320.4761	1370.2466	1421.3319	1477.5225	1482.1734	1501.6247	1532.7552	2237.1605	3006.3511	3032.9421	3055.048	3062.9308	3070.3407	3106.9561	3110.5349	3114.5717	3154.4574	3505.186
C#CC1CCC2(CO2)C1	C#C[C@H]1CC[C@]2(CO2)C1	
InChI=1S/C8H10O/c1-2-7-3-4-8(5-7)6-9-8/h1,7H,3-6H2	InChI=1S/C8H10O/c1-2-7-3-4-8(5-7)6-9-8/h1,7H,3-6H2/t7-,8+/m0/s1
