23
gdb 59177	2.57001	1.27692	1.01443	1.948	85.92	-0.2286	0.0777	0.3063	1299.8905	0.203723	-388.237209	-388.227497	-388.226553	-388.271637	37.245	
C	-0.0418912554	 1.5122680003	 0.0949952696	-0.38316
C	-0.2052165487	-0.0155499654	 0.0603742256	-0.02586
C	-1.6908564133	-0.4054188913	 0.0085733943	-0.387343
C	 0.5441989854	-0.5995570897	-1.1349160848	 0.031924
C	 2.0926045731	-0.6538564257	-1.2455617058	 0.016942
C	 2.1549272718	-1.8151324844	-0.2305565022	-0.272391
C	 1.0110305649	-2.0913693432	-1.2467472996	 0.380867
C	 0.2209792997	-3.3426404295	-1.4763450324	-0.513718
O	 1.9409368503	-1.6525463925	-2.326604566	-0.34349
H	 1.0105215271	 1.8020248149	 0.1787299107	 0.113196
H	-0.4411180108	 1.9690446702	-0.818258823	 0.115174
H	-0.5785782707	 1.9459587453	 0.945253389	 0.110401
H	 0.2135458375	-0.4171534016	 0.9911614047	 0.071473
H	-2.1635400604	-0.0227818991	-0.9037008589	 0.11514
H	-1.8254570559	-1.4916460193	 0.0213846063	 0.113644
H	-2.2354380766	 0.009246601	 0.863267609	 0.111078
H	 0.0992342417	-0.2617594519	-2.0779651818	 0.07211
H	 2.8044527719	 0.1548227978	-1.4131961903	 0.087561
H	 3.0225436248	-2.4677426709	-0.3395209234	 0.102327
H	 1.9023678235	-1.6254675721	 0.8147072016	 0.093842
H	-0.3890228043	-3.5770233219	-0.5983670317	 0.126234
H	-0.4420139892	-3.2277786626	-2.3392452496	 0.131905
H	 0.8920779735	-4.1865570085	-1.6640388015	 0.132143
48.3125	130.0706	186.2869	215.203	219.9373	245.9285	262.2159	306.828	313.2872	437.836	451.0517	539.4523	597.3273	643.8926	710.6503	826.3139	858.2432	870.4812	892.1754	913.2172	929.5312	959.6912	969.7787	1013.6816	1022.3693	1057.3121	1077.9144	1132.6122	1141.7156	1169.8794	1188.4893	1198.8121	1217.6289	1231.9663	1261.1966	1300.5689	1329.9886	1345.056	1398.3894	1402.5224	1415.4589	1426.6075	1475.469	1485.4758	1488.4098	1492.0719	1498.6828	1505.2717	1508.792	3024.7551	3024.9121	3028.5739	3037.754	3051.5582	3070.7748	3090.1271	3097.1888	3099.5106	3102.2701	3111.8948	3113.4405	3114.3145	3143.0611
CC(C)C1C2CC1(C)O2	CC(C)[C@H]1[C@H]2C[C@]1(C)O2	
InChI=1S/C8H14O/c1-5(2)7-6-4-8(7,3)9-6/h5-7H,4H2,1-3H3	InChI=1S/C8H14O/c1-5(2)7-6-4-8(7,3)9-6/h5-7H,4H2,1-3H3/t6-,7+,8+/m1/s1
