17
gdb 126290	3.28431	1.15402	0.91489	5.9071	79.45	-0.222	-0.0351	0.1869	1273.4257	0.137645	-418.045054	-418.036811	-418.035867	-418.078542	30.539	
C	-0.142712504	 1.5624158883	-0.0042674632	-0.374342
C	 0.0316333461	 0.0332318665	 0.0199400368	-0.295171
C	 0.7787147766	-0.493732407	-1.1777204815	 0.445431
C	 2.0778241099	-0.8992039383	-1.168336725	-0.364749
C	 2.7204281502	-1.3578080107	-2.3873605329	 0.366305
O	 3.8817309546	-1.7387048979	-2.4796499579	-0.392945
C	 1.8107891255	-1.3226274536	-3.5506065115	-0.08767
N	 0.5730783336	-0.9367772367	-3.5372356056	-0.177275
N	 0.0825051793	-0.5299004884	-2.3528076802	-0.281982
H	 0.8295204452	 2.0625953797	-0.0227475161	 0.139374
H	-0.7031721159	 1.8911397721	-0.8851457257	 0.120874
H	-0.6859389854	 1.8985983595	 0.8831322178	 0.129319
H	 0.5784641854	-0.2640327863	 0.9183442414	 0.132969
H	-0.9517853579	-0.4512357133	 0.0768049233	 0.117215
H	 2.6501773471	-0.8826084839	-0.2484445151	 0.11238
H	 2.1999362098	-1.6491030509	-4.5105298239	 0.136238
H	-0.8840462601	-0.248112169	-2.3875374409	 0.274029
46.7085	131.2517	162.4144	204.1321	299.6309	322.2964	443.6772	472.2367	518.5134	536.7311	570.8454	669.5672	725.6661	760.7347	789.647	892.9169	907.2995	951.1697	980.6183	1039.676	1065.0467	1088.5599	1136.3249	1201.4653	1256.6374	1280.4629	1350.4491	1356.9395	1394.7138	1416.6371	1480.3944	1496.8599	1504.4434	1507.3105	1629.406	1647.8901	1739.9708	3029.6593	3043.2444	3093.8412	3116.9307	3124.554	3184.3504	3204.982	3642.181
CCC1=CC(=O)C=NN1	CCc1cc(=O)cn[nH]1	
InChI=1S/C6H8N2O/c1-2-5-3-6(9)4-7-8-5/h3-4H,2H2,1H3,(H,8,9)	InChI=1S/C6H8N2O/c1-2-5-3-6(9)4-7-8-5/h3-4H,2H2,1H3,(H,8,9)
