21
gdb 71617	2.95527	1.6652	1.55009	1.6963	80.22	-0.2331	0.0869	0.32	986.969	0.185526	-387.094325	-387.087149	-387.086205	-387.125373	30.367	
C	-0.1139158086	 1.4979997666	 0.0224898416	-0.502772
C	 0.0416248916	 0.0041602522	 0.0092544499	 0.414301
C	 0.4620518282	-0.7209518656	-1.2907608649	-0.254399
C	 0.4911479523	-2.1620985705	-0.7013086757	-0.044306
C	 1.9193805959	-2.4740978688	-0.2260202224	-0.21572
C	 2.195518557	-1.3437659026	 0.8151912543	-0.254096
C	 0.7928609966	-0.8124121708	 1.1223558355	-0.058143
C	-0.2634602204	-1.8230139336	 0.6286401721	 0.086669
O	-1.1796101234	-0.7465191617	 0.3306558414	-0.335592
H	 0.849002026	 1.9830480718	-0.169079997	 0.119665
H	-0.8159967343	 1.818903684	-0.7545111328	 0.127403
H	-0.4901645998	 1.8426290241	 0.9898393646	 0.125707
H	-0.3057306408	-0.5799996639	-2.0549108122	 0.102177
H	 1.4279259318	-0.4022648594	-1.6945246297	 0.08955
H	 0.0366348352	-2.9286885403	-1.3293078492	 0.062707
H	 1.9602706733	-3.4573371901	 0.2572690137	 0.095537
H	 2.6417693055	-2.4877557188	-1.0473727682	 0.097471
H	 2.6851564567	-1.7296019132	 1.7137071926	 0.100234
H	 2.8495948496	-0.5634487553	 0.4115280504	 0.100383
H	 0.6173796649	-0.4049112368	 2.117998723	 0.070064
H	-0.6881088774	-2.6312646574	 1.2242066331	 0.073161
185.4984	215.1679	228.9174	301.7591	383.7667	426.2054	525.0031	548.889	635.6984	700.2944	714.9951	803.3399	813.7659	838.6988	865.5492	882.3043	897.1148	915.5316	957.0064	970.7959	987.2236	1016.304	1035.6677	1068.1928	1073.8251	1122.8055	1145.9309	1177.9315	1198.7094	1220.7376	1237.7652	1242.203	1267.6349	1277.9955	1295.1784	1314.1492	1329.3109	1347.9917	1376.1966	1415.4819	1479.0403	1487.3816	1489.5648	1492.4976	1508.9769	3034.8878	3035.1716	3045.5967	3056.4051	3078.1108	3092.8199	3102.6254	3104.887	3112.4189	3113.7276	3115.5106	3125.4794
CC12CC3CCC1C3O2	C[C@@]12C[C@H]3CC[C@@H]1[C@H]3O2	
InChI=1S/C8H12O/c1-8-4-5-2-3-6(8)7(5)9-8/h5-7H,2-4H2,1H3	InChI=1S/C8H12O/c1-8-4-5-2-3-6(8)7(5)9-8/h5-7H,2-4H2,1H3/t5-,6-,7+,8-/m1/s1
