13
gdb 27721	2.9072	1.36924	0.93143	3.0466	74.45	-0.1901	0.0005	0.1906	1158.8927	0.088868	-452.753426	-452.745263	-452.744319	-452.785846	30.797	
N	 0.0752958912	 1.2727222512	-0.124121371	-0.595752
C	-0.0321958133	-0.0841537943	-0.0670125696	 0.469829
N	-1.1338555261	-0.7877573443	-0.0969659517	-0.412696
C	-0.6803779146	-2.0857102188	-0.0873016656	 0.228154
O	-1.5291546329	-3.1199836083	-0.1115532344	-0.415116
C	 0.6848874853	-2.13870043	-0.0454027611	 0.075612
O	 1.1022476748	-0.7866004523	-0.032360547	-0.21813
C	 1.6374378359	-3.1531577864	-0.0115566866	 0.246259
C	 2.4602139163	-4.0355805967	 0.017229248	-0.421919
H	 0.9292649271	 1.661836496	 0.2445159571	 0.273356
H	-0.7653005836	 1.7703408051	 0.1240237907	 0.276298
H	-2.4197377642	-2.7493808948	-0.145307825	 0.308225
H	 3.1779402642	-4.8169713363	 0.0429203761	 0.185881
132.9543	133.6452	230.538	305.6116	344.193	354.0262	390.8793	393.0806	414.938	502.1148	519.4352	556.5891	619.2109	667.9896	704.6879	712.5912	761.8322	831.4995	1039.6484	1065.3414	1133.7568	1184.797	1326.9619	1409.3628	1468.7469	1595.4739	1678.2297	1705.8905	2217.3906	3504.3662	3592.0652	3706.4979	3804.2339
NC1=NC(O)=C(O1)C#C	Nc1nc(O)c(o1)C#C	
InChI=1S/C5H4N2O2/c1-2-3-4(8)7-5(6)9-3/h1,8H,(H2,6,7)	InChI=1S/C5H4N2O2/c1-2-3-4(8)7-5(6)9-3/h1,8H,(H2,6,7)
