16
gdb 14009	4.26003	1.34715	1.22805	3.4875	67.37	-0.2371	-0.0208	0.2163	1007.2496	0.129202	-383.713146	-383.705547	-383.704603	-383.745671	27.527	
O	-0.1593678557	 0.0498161271	-0.4534455555	-0.267776
C	-0.0313076661	 1.1894759454	-0.0767851477	 0.163633
C	 1.249964543	 1.9132321823	 0.0218097047	-0.181799
C	 1.2529620186	 3.4473996843	-0.0973788306	-0.371297
C	 1.5021116482	 2.8296616447	 1.2163563612	 0.454751
C	 0.7597777999	 2.9220944667	 2.5473071682	-0.359568
C	 2.1803640973	 2.8593948277	 3.1499237711	-0.072752
O	 2.7808048897	 2.8442293888	 1.8290224209	-0.296971
H	-0.9180305704	 1.7909300983	 0.2401579234	 0.059236
H	 2.1200046735	 1.3817172184	-0.3482107572	 0.120539
H	 2.0949083307	 3.8868958722	-0.61999845	 0.140902
H	 0.2961853675	 3.932983343	-0.2682333674	 0.126557
H	 0.2315699363	 3.8636498016	 2.7087568939	 0.122907
H	 0.1024021151	 2.0874731121	 2.7931040558	 0.128524
H	 2.5018492612	 3.7329389937	 3.7254642829	 0.115731
H	 2.4146080612	 1.9465379738	 3.7076157564	 0.117383
65.7755	110.0918	155.686	220.5575	341.7242	371.2396	435.964	511.0772	562.9024	778.7495	828.6271	848.7708	876.4272	888.504	957.8061	979.9531	1016.9751	1044.9021	1056.5457	1065.9875	1104.6356	1162.4562	1165.7383	1198.7024	1215.3573	1252.046	1291.5371	1361.4269	1384.4087	1443.5423	1471.989	1489.4848	1531.7799	1813.6164	2831.4426	3039.2591	3080.7358	3087.216	3125.1528	3137.8943	3183.5373	3222.7472
O=CC1CC11CCO1	O=C[C@H]1C[C@]21CCO2	
InChI=1S/C6H8O2/c7-4-5-3-6(5)1-2-8-6/h4-5H,1-3H2	InChI=1S/C6H8O2/c7-4-5-3-6(5)1-2-8-6/h4-5H,1-3H2/t5-,6+/m1/s1
