13
gdb 34794	2.49779	1.52045	1.11706	3.8334	68.	-0.2933	-0.0333	0.26	1042.4555	0.089112	-415.551127	-415.543821	-415.542877	-415.583212	27.07	
N	-0.1440320122	-1.2416531647	-0.0448355107	-0.314183
C	-0.0830398273	-0.0875062981	-0.0342473789	 0.273936
C	-0.0080353239	 1.3607429036	-0.0046678698	-0.18279
C	 0.1396186398	 2.122271081	 1.3526114002	 0.029866
C	 1.5812675748	 1.5880156429	 1.5182643888	-0.278277
C	 1.3835517697	 2.0876970459	 0.0616131291	 0.331055
O	 0.6776588077	 3.2710263821	 0.5877870652	-0.316283
C	 2.3464958352	 2.2557388938	-0.9971724915	 0.191395
N	 3.1224185918	 2.3618758548	-1.8462915499	-0.32395
H	-0.7011685748	 1.833984543	-0.7001262945	 0.155288
H	-0.629007934	 2.3207084768	 2.0947921915	 0.137427
H	 2.2356781458	 2.2182733446	 2.1180574559	 0.144063
H	 1.7295506173	 0.5194072942	 1.6762012744	 0.152452
98.3682	170.0976	175.8786	219.7481	428.6859	448.6054	509.8377	521.0513	564.0342	581.3798	638.4047	731.8323	843.5253	907.5154	930.7119	958.0796	968.9758	1051.6837	1059.8171	1099.5392	1139.5237	1209.744	1216.2548	1227.1931	1268.4561	1352.3359	1491.0822	2358.3857	2365.8847	3096.3635	3130.5668	3168.5944	3183.2976
N#CC1C2CC1(O2)C#N	N#C[C@H]1[C@H]2C[C@@]1(O2)C#N	
InChI=1S/C6H4N2O/c7-2-4-5-1-6(4,3-8)9-5/h4-5H,1H2	InChI=1S/C6H4N2O/c7-2-4-5-1-6(4,3-8)9-5/h4-5H,1H2/t4-,5+,6+/m0/s1
