15
gdb 26551	2.42342	1.90326	1.07119	3.6187	74.53	-0.1936	-0.0226	0.171	1046.3845	0.115376	-450.157079	-450.149127	-450.148183	-450.18932	30.245	
N	 0.0726505386	 1.3817945726	 0.1176181379	-0.579971
C	-0.0370182795	 0.008844934	 0.0492999179	 0.355277
C	-1.1961016505	-0.6846958683	 0.002180737	 0.124045
N	-2.4355204646	-0.0019174005	-0.0604828137	-0.619844
C	-1.1508678424	-2.135174315	-0.064942338	 0.298282
N	-2.2317912525	-2.8146856511	-0.1785145669	-0.557953
N	 0.134375911	-2.72975186	-0.0153000219	-0.316069
C	 1.1526044322	-1.9801086212	 0.064399555	 0.109614
O	 1.1761530075	-0.6224608195	 0.1010527844	-0.211815
H	 0.9397873471	 1.7392565692	-0.261421902	 0.259312
H	-0.7447719334	 1.8344210519	-0.2762329183	 0.27019
H	-2.6655119229	 0.4415896501	 0.8246707727	 0.243427
H	-3.1536928493	-0.6974361123	-0.2509264373	 0.263397
H	-2.0070984048	-3.8083165354	-0.2286962465	 0.217962
H	 2.1634839234	-2.3723610744	 0.1176554995	 0.144146
121.4119	164.577	192.095	274.0275	299.2284	337.6995	392.5971	501.4144	522.4744	531.7796	546.1317	607.3439	700.188	739.8766	769.7135	869.6118	880.581	911.4674	949.0736	973.6808	1018.0292	1135.2519	1184.9137	1269.371	1296.8931	1336.4284	1421.9459	1452.9621	1618.1734	1644.5662	1672.413	1689.5307	1751.3331	3194.0586	3474.83	3487.7981	3523.8713	3550.5974	3636.2643
NC1=C(N)C(=N)N=CO1	N[C@@H]1C(=C([NH])N=CO1)N	
InChI=1S/C4H6N4O/c5-2-3(6)8-1-9-4(2)7/h1,6H,5,7H2	InChI=1S/C4H7N4O/c5-2-3(6)8-1-9-4(2)7/h1,4,6H,5,7H2/t4-/m0/s1
