15
gdb 56940	2.22081	1.31862	0.96968	5.4117	70.21	-0.2808	0.0013	0.2821	1201.2553	0.113147	-412.968817	-412.95989	-412.958946	-413.00323	31.47	
N	-0.1621641283	 1.4131408873	 0.1521510832	-0.498485
C	 0.1040723128	-0.0062240405	-0.0829543646	-0.142871
C	 0.9034084235	-0.2582153893	-1.3040861623	 0.259081
N	 1.5496795025	-0.3909442384	-2.2533284561	-0.31288
C	 0.8100828667	-0.6029004876	 1.1258914346	 0.015471
N	-0.0455090754	-0.997182493	 2.2311823222	-0.306179
C	 0.6843420212	-2.0483147786	 1.4937644203	-0.194429
C	-0.1237100994	-2.9633188634	 0.7219156804	 0.337461
N	-0.7574191792	-3.6972379562	 0.0928999761	-0.326583
H	 0.6987889451	 1.9482111121	 0.0774446827	 0.243124
H	-0.7855351661	 1.7711382346	-0.5649204421	 0.252652
H	-0.8574017412	-0.5178117433	-0.190909054	 0.159449
H	 1.7758660887	-0.1508593198	 1.3472394322	 0.116183
H	 0.3934406371	-0.8243309955	 3.131153947	 0.255242
H	 1.5513572819	-2.5114170883	 1.9566274405	 0.142763
48.6241	92.5647	141.9307	217.1257	233.2052	238.5503	267.1595	364.1592	432.1589	524.4027	574.4905	581.6472	654.2767	794.0123	847.9936	854.7508	914.1969	933.8562	991.7313	1010.3378	1081.5498	1137.9898	1155.0719	1196.6653	1234.937	1265.3477	1292.9626	1384.6819	1405.5027	1465.2512	1664.9266	2348.601	2363.5923	3077.4897	3124.9165	3154.0185	3496.2461	3522.018	3576.7327
NC(C#N)C1NC1C#N	N[C@@H](C#N)[C@H]1N[C@H]1C#N	
InChI=1S/C5H6N4/c6-1-3(8)5-4(2-7)9-5/h3-5,9H,8H2	InChI=1S/C5H6N4/c6-1-3(8)5-4(2-7)9-5/h3-5,9H,8H2/t3-,4-,5+/m0/s1
