21
gdb 61611	3.10668	0.91582	0.78645	1.1968	85.97	-0.2399	0.0382	0.2781	1527.4927	0.178917	-387.03232	-387.021971	-387.021027	-387.068257	38.058	
C	 0.4887042629	 1.4552795725	-0.3542922125	-0.394783
C	 0.0479811858	 0.0248761442	-0.0080214152	-0.033572
O	 0.4622219099	-0.9293941058	-0.9870235939	-0.259085
C	-0.3317366204	-0.9681376981	-2.1342533837	 0.13931
C	 0.0635866905	-0.1846907633	-3.3669397329	-0.322087
C	 0.2313552041	-1.6925158043	-3.3198739216	-0.041449
C	 1.6130119016	-2.3068298637	-3.2659558309	-0.395969
C	 0.5954808171	-0.4002856749	 1.2807448208	 0.317044
C	 1.0422695337	-0.7120051158	 2.3511130567	-0.445086
H	 1.5766537698	 1.4969914718	-0.4497147859	 0.132107
H	 0.0343370037	 1.7762669614	-1.2940981826	 0.128234
H	 0.1805382651	 2.1438806644	 0.4373414001	 0.126231
H	-1.0522477758	 0.0030238158	 0.061474487	 0.096382
H	-1.3965849854	-1.0812589122	-1.923934473	 0.083112
H	-0.7122716698	 0.249036472	-3.9893139884	 0.107254
H	 0.972023954	 0.4037777624	-3.295019579	 0.116952
H	-0.4952207418	-2.2642791011	-3.8913979545	 0.085679
H	 2.2763158254	-1.7211663228	-2.6257821161	 0.130404
H	 1.5757245098	-3.3229170318	-2.8590789574	 0.119373
H	 2.0549088483	-2.3601504977	-4.2666335467	 0.112121
H	 1.4345911712	-1.0010417031	 3.2946942097	 0.197828
32.8533	90.0414	107.5921	181.8271	195.5666	216.3722	247.9602	288.9004	329.7704	380.5911	449.6083	506.8568	545.5187	594.4492	622.0561	669.1932	752.7404	827.2384	833.8327	875.6691	918.9086	936.7837	993.9869	1029.1126	1060.6364	1083.323	1096.7924	1110.2592	1135.7551	1151.2844	1185.6528	1197.7334	1249.6147	1340.4884	1350.4457	1384.2252	1396.2293	1421.08	1422.6835	1483.3998	1486.4452	1493.8687	1494.9632	1505.7893	2243.7311	2965.4777	3036.5627	3050.788	3082.8305	3094.417	3123.1895	3127.5121	3128.8885	3137.7824	3143.2518	3218.1798	3504.8032
CC(OC1CC1C)C#C	C[C@@H](O[C@H]1C[C@H]1C)C#C	
InChI=1S/C8H12O/c1-4-7(3)9-8-5-6(8)2/h1,6-8H,5H2,2-3H3	InChI=1S/C8H12O/c1-4-7(3)9-8-5-6(8)2/h1,6-8H,5H2,2-3H3/t6-,7-,8+/m1/s1
