19
gdb 41330	2.86831	1.87604	1.72745	1.987	78.42	-0.2393	0.0167	0.256	896.6894	0.162537	-385.838339	-385.831914	-385.830969	-385.868589	27.89	
C	 0.0776037935	 1.5291168065	-0.1330272395	-0.19028
O	 1.491650339	 1.4709647207	 0.2448593026	-0.315644
C	 1.2113546106	 0.2241716491	 0.9378827256	 0.174152
C	 1.7691928808	-1.199751733	 0.7912192572	-0.149046
C	 0.4739753383	-1.9046160422	 1.4094709113	-0.206252
C	-0.7700231254	-1.0605747144	 0.8803842574	-0.311512
C	-0.005473357	-0.0014490911	 0.0546688822	 0.227974
C	 0.6183295642	-0.7276808286	-1.1329738821	-0.115265
C	 1.6713796871	-1.4234914228	-0.7029535414	-0.057644
H	-0.500718827	 2.1195398663	 0.5907440892	 0.097911
H	-0.0536635626	 1.9302871812	-1.1422366104	 0.106825
H	 0.9869501705	 0.4557849937	 1.9884872579	 0.068405
H	 2.6964548613	-1.4839331094	 1.2888669512	 0.065806
H	 0.4275948321	-2.9478930357	 1.0922414848	 0.107596
H	 0.5116114022	-1.887894331	 2.5028920514	 0.103595
H	-1.4655600035	-1.6688839671	 0.2988669249	 0.10208
H	-1.3186488195	-0.6183775839	 1.7165152334	 0.103498
H	 0.1904388933	-0.7110694963	-2.128372749	 0.091997
H	 2.2965955322	-2.101343502	-1.2703583965	 0.095802
252.4546	284.9934	309.8266	370.7053	406.3854	476.8355	611.3959	675.8894	719.8584	749.8607	784.3473	825.2212	839.4417	861.1362	878.4143	887.682	941.6697	945.7789	949.5987	970.5274	1016.9217	1032.3093	1049.0716	1104.4171	1114.7272	1143.148	1160.8013	1194.5185	1208.4742	1241.7771	1261.2841	1276.9582	1291.477	1300.713	1319.9311	1359.4848	1402.9096	1481.2541	1502.8278	1510.8088	1651.5475	3003.4835	3011.9689	3054.799	3065.9566	3087.3086	3104.8704	3115.9419	3122.8326	3191.6295	3219.517
C1OC2C3CCC12C=C3	C1O[C@@H]2[C@H]3CC[C@@]12C=C3	
InChI=1S/C8H10O/c1-3-8-4-2-6(1)7(8)9-5-8/h1,3,6-7H,2,4-5H2	InChI=1S/C8H10O/c1-3-8-4-2-6(1)7(8)9-5-8/h1,3,6-7H,2,4-5H2/t6-,7-,8+/m1/s1
