20
gdb 61982	3.56152	0.70762	0.60773	3.905	82.22	-0.2474	0.0293	0.2766	1796.7059	0.167957	-403.157781	-403.146761	-403.145817	-403.195468	38.821	
C	-0.0451840205	 1.5519090153	-0.1545519366	-0.385518
C	-0.0362532105	 0.0174576293	 0.0056971115	-0.16999
C	 0.7519783923	-0.4586110417	 1.2481713074	-0.163271
C	 2.2417208925	-0.1070291762	 1.2094041488	-0.32982
C	 3.0305488423	-0.8588760784	 2.2840488843	 0.409367
N	 4.1474341257	-0.2121873504	 2.7312475661	-0.522465
O	 2.7033954228	-1.9518821733	 2.7024931778	-0.35519
C	-1.4046015992	-0.4973120163	 0.0518187566	 0.317392
C	-2.5333309518	-0.9072532575	 0.1100770797	-0.455665
H	 0.9698053993	 1.9383365541	-0.2840547243	 0.111396
H	-0.6342242573	 1.845895979	-1.0269716581	 0.12739
H	-0.4871106498	 2.0274038151	 0.7267639073	 0.125229
H	 0.4523830504	-0.4110307937	-0.8820320181	 0.102565
H	 0.2918673285	-0.0321157157	 2.1471753758	 0.109641
H	 0.6635871806	-1.5433469067	 1.3432182138	 0.140143
H	 2.6680505562	-0.4012571851	 0.2394539722	 0.126628
H	 2.4081545391	 0.9711383542	 1.3066963016	 0.102717
H	 4.4566605096	 0.6599595705	 2.3405787614	 0.256597
H	 4.7545091094	-0.6991984775	 3.3701662541	 0.260428
H	-3.5269091795	-1.278933155	 0.1536585988	 0.192427
23.0849	63.376	88.86	114.0538	149.4517	188.0246	215.7798	253.5248	283.0763	366.1282	434.0159	510.4506	534.3019	548.7471	612.8927	627.351	633.6415	673.4526	779.8449	820.2948	871.5848	933.8676	953.38	1054.9018	1068.0024	1087.3132	1114.9494	1139.1372	1212.68	1251.6969	1306.6539	1314.2857	1341.4168	1369.076	1406.6332	1409.1942	1466.0852	1491.3732	1495.1457	1503.7601	1617.1498	1799.4696	2234.825	2994.0749	3013.5524	3040.9084	3048.3766	3068.5688	3113.1279	3113.7176	3120.872	3505.6368	3602.5704	3740.2493
CC(CCC(N)=O)C#C	C[C@@H](CCC(=O)N)C#C	
InChI=1S/C7H11NO/c1-3-6(2)4-5-7(8)9/h1,6H,4-5H2,2H3,(H2,8,9)	InChI=1S/C7H11NO/c1-3-6(2)4-5-7(8)9/h1,6H,4-5H2,2H3,(H2,8,9)/t6-/m1/s1
