18
gdb 84944	2.27166	1.68119	1.24581	4.2263	73.8	-0.2355	-0.0173	0.2182	1057.2618	0.149497	-439.107528	-439.099102	-439.098158	-439.14055	31.839	
O	-0.0926940408	 1.4148611337	-0.1068324754	-0.427472
C	 0.0207386844	-0.0107969052	-0.0094614038	-0.020937
C	 0.7904715806	-0.4513192805	 1.2178423866	-0.112604
C	 0.4352483387	-0.1012704546	 2.4532765359	-0.063204
C	-0.8119758993	 0.7012413979	 2.7396329325	-0.250895
C	-2.0859231843	-0.0695807922	 2.3828456663	-0.141247
N	-2.2736718035	-0.3783032716	 0.9652577935	-0.300346
C	-1.4166558029	-0.5610202338	-0.0868888885	 0.397062
O	-1.7971838536	-1.1090928003	-1.1059324857	-0.367787
H	 0.7954615361	 1.7744488161	-0.0063675037	 0.284826
H	 0.4976005318	-0.409946534	-0.9109935591	 0.095539
H	 1.6709153239	-1.0654248543	 1.0511774822	 0.100772
H	 1.0385715619	-0.4238666309	 3.2980060194	 0.09974
H	-0.8706009779	 0.9472039042	 3.8038169597	 0.101808
H	-0.7944278674	 1.6384249818	 2.1775242602	 0.140549
H	-2.1084888623	-1.0038328898	 2.9651946636	 0.108126
H	-2.951636568	 0.5241271728	 2.700296523	 0.112919
H	-3.1732176075	-0.7865305094	 0.7464709033	 0.24315
80.8261	121.5095	209.7388	219.7679	264.1155	315.9311	336.0081	413.0225	455.6737	575.2254	604.3595	642.7878	690.4728	753.1686	779.5689	847.4175	872.7015	938.9363	957.9348	990.846	1019.2159	1054.3236	1090.677	1135.8883	1215.6344	1229.0159	1255.3341	1282.0457	1352.1848	1361.942	1375.9366	1391.308	1415.3194	1424.6417	1477.1044	1496.923	1526.4135	1715.2344	1775.7674	2980.8528	3039.8345	3048.7454	3063.2756	3109.9882	3152.7932	3177.0737	3578.8699	3805.029
OC1C=CCCNC1=O	O[C@H]1C=CCCNC1=O	
InChI=1S/C6H9NO2/c8-5-3-1-2-4-7-6(5)9/h1,3,5,8H,2,4H2,(H,7,9)	InChI=1S/C6H9NO2/c8-5-3-1-2-4-7-6(5)9/h1,3,5,8H,2,4H2,(H,7,9)/t5-/m0/s1
