18
gdb 49512	3.9277	1.31453	1.26121	3.4222	75.75	-0.2371	-0.0174	0.2197	1035.4044	0.149588	-401.897371	-401.890425	-401.889481	-401.92882	28.083	
O	-0.6515734063	 0.7968611651	 0.6355044564	-0.251282
C	 0.1567470742	 1.0022934077	-0.2375556244	 0.106847
C	 1.3560069708	 1.8944093298	-0.1408766677	-0.059005
C	 1.2028787307	 3.2899661133	-0.8456944301	-0.074144
C	 0.4471155476	 3.7358370239	 0.4527770014	-0.228591
C	 1.4921408258	 2.7760847715	 1.1281561072	-0.052163
C	 2.7843013174	 3.5720467913	 0.8435996995	-0.043189
N	 3.6660698497	 2.9997851123	-0.2043821721	-0.340758
C	 2.5805644953	 3.9368065323	-0.57697979	-0.037605
H	 0.0647975454	 0.490903773	-1.2248262268	 0.073466
H	 2.2374220031	 1.327827255	-0.4540324796	 0.120485
H	 0.7733558416	 3.3877574221	-1.843043679	 0.069469
H	 0.4970092326	 4.7963065028	 0.7158819155	 0.089114
H	-0.577053055	 3.3692205824	 0.5202875022	 0.125809
H	 1.3377918605	 2.3613117305	 2.1222855597	 0.079095
H	 3.1952465506	 4.2446991841	 1.5871066001	 0.095253
H	 4.5464101356	 3.5112720576	-0.2016170589	 0.231123
H	 2.8220134705	 4.9056350252	-0.9984234136	 0.096078
90.143	180.4009	256.3071	345.5426	385.0136	465.2702	578.6486	670.3685	690.4445	775.9789	803.473	831.7622	858.7573	865.8505	900.6844	916.9762	922.2828	951.059	991.5126	1014.591	1051.4764	1068.5102	1080.2783	1090.0353	1109.1362	1126.2236	1137.4012	1189.0708	1217.7045	1230.667	1247.471	1256.4318	1293.4378	1330.2923	1353.1287	1391.4872	1428.1839	1505.2981	1812.8176	2853.678	3062.6194	3077.3908	3112.3351	3138.4902	3147.1681	3176.2955	3186.9053	3492.3738
O=CC1C2CC1C1NC21	O=C[C@H]1[C@H]2C[C@@H]1[C@H]1N[C@@H]21	
InChI=1S/C7H9NO/c9-2-5-3-1-4(5)7-6(3)8-7/h2-8H,1H2	InChI=1S/C7H9NO/c9-2-5-3-1-4(5)7-6(3)8-7/h2-8H,1H2/t3-,4+,5+,6+,7-
