12
gdb 130678	5.43086	1.32106	1.06258	1.3443	62.68	-0.2132	-0.0133	0.1998	1001.21	0.080006	-468.822896	-468.816215	-468.815271	-468.854049	25.093	
O	-0.025039036	-0.0473026978	 0.0034268029	-0.394972
C	-0.0066913489	 1.1588412625	 0.0096734322	 0.440149
N	-1.136966872	 2.0236246323	 0.0295456496	-0.483965
C	-0.6858572615	 3.3124176495	 0.0308034443	 0.510636
C	 0.6741336195	 3.3407392237	 0.0125917054	 0.188458
N	 1.099151996	 2.0112106561	-0.0007521146	-0.496391
C	 0.9662315137	 4.7171461666	 0.0159781787	-0.077262
N	-0.140195173	 5.4458276772	 0.0351876211	-0.164448
O	-1.2302106789	 4.5158410922	 0.0446479243	-0.231483
H	-2.079683775	 1.6750947764	 0.040648603	 0.288969
H	 2.0358060194	 1.649313544	-0.0145026012	 0.27792
H	 1.9135822268	 5.2358185272	 0.0059858442	 0.142389
123.5793	166.9067	297.9603	357.5104	371.9698	455.1871	565.1863	581.9897	596.5308	727.1311	752.2969	770.2564	810.2576	864.0998	886.7624	930.0262	981.3039	1124.2588	1196.9693	1268.4107	1293.1123	1312.8385	1416.6079	1520.3384	1587.8227	1652.2576	1863.1242	3252.8743	3690.8536	3700.1645
O=C1NC2=C(N1)C=NO2	O=c1[nH]c2c([nH]1)cno2	
InChI=1S/C4H3N3O2/c8-4-6-2-1-5-9-3(2)7-4/h1H,(H2,6,7,8)	InChI=1S/C4H3N3O2/c8-4-6-2-1-5-9-3(2)7-4/h1H,(H2,6,7,8)
