19
gdb 90013	2.89502	1.37821	1.11263	4.0118	74.91	-0.2684	0.0085	0.2768	1141.8773	0.159568	-423.047623	-423.039291	-423.038346	-423.080672	31.52	
C	 0.7843080251	 1.4478668314	 0.2302545881	-0.409708
C	-0.0659905457	 0.201962068	 0.0003484338	 0.034663
C	 0.5362430118	-0.800238695	-1.0311361376	-0.300482
C	 1.0291014148	-1.6848406775	 0.1441280594	 0.133241
C	 1.1717257039	-3.2123849632	 0.1069558618	-0.15802
O	 2.6032888553	-3.0969877105	 0.4075943323	-0.247369
C	 2.5243873616	-1.7280200864	 0.4509844731	 0.4376
O	 3.4030403622	-0.9533639406	 0.6661846675	-0.334747
C	 0.0966060388	-0.8931341295	 1.0982475527	-0.300477
H	 1.8265554077	 1.1800792079	 0.4337496145	 0.151735
H	 0.7670578963	 2.0999235846	-0.6497569108	 0.113308
H	 0.4093424056	 2.024333382	 1.0828874786	 0.113308
H	-1.1019543783	 0.4869937692	-0.2011036228	 0.071118
H	-0.2277167017	-1.314096007	-1.6214945536	 0.105283
H	 1.3054605175	-0.4139539314	-1.704581339	 0.118278
H	 0.6564065568	-3.7666598034	 0.8951616692	 0.124355
H	 1.0196734358	-3.689928536	-0.8640620313	 0.124355
H	 0.530150447	-0.577779075	 2.0506289332	 0.118278
H	-0.8295204246	-1.4412560177	 1.2933360007	 0.105283
85.1797	119.3986	167.6653	233.4296	275.7255	301.6047	358.2526	365.3228	497.5848	556.1457	732.7093	776.0853	787.5202	817.0999	817.4756	905.3687	905.6887	918.4694	944.9432	961.4956	1057.2803	1063.2785	1110.5326	1141.4833	1145.1553	1160.6275	1199.4939	1217.6515	1237.2013	1263.4862	1279.3617	1296.1481	1354.6175	1365.4845	1419.9073	1463.363	1482.1698	1502.0676	1509.2785	1512.7637	1920.3432	3028.1606	3053.0075	3053.4156	3061.7087	3066.9118	3095.6522	3106.9218	3111.2524	3113.6804	3122.5063
CC1CC2(COC2=O)C1	C[C@H]1C[C@]2(COC2=O)C1	
InChI=1S/C7H10O2/c1-5-2-7(3-5)4-9-6(7)8/h5H,2-4H2,1H3	InChI=1S/C7H10O2/c1-5-2-7(3-5)4-9-6(7)8/h5H,2-4H2,1H3/t5-,7+
