13
gdb 133355	3.22526	1.46427	1.00709	3.9631	66.74	-0.2131	-0.0564	0.1567	1058.744	0.090216	-490.228645	-490.220744	-490.2198	-490.261514	28.948	
N	-0.0125258611	 1.361365427	 0.0406646272	-0.562728
C	-0.0612424152	 0.0122161144	 0.0126507258	 0.30639
N	-1.1940907429	-0.6259777579	 0.0105447366	-0.396733
C	-1.1838837827	-2.0156630682	-0.0026493109	 0.430699
N	-2.1979631648	-2.7896875521	-0.0044689622	-0.572955
N	 0.0856483063	-2.6249759576	-0.0165034751	-0.258236
N	 1.2567613724	-1.986724625	-0.020725154	-0.205784
C	 1.1969200899	-0.7139760373	-0.0054437066	 0.274301
F	 2.3326347107	-0.0108041247	-0.0102494488	-0.07328
H	 0.8668226445	 1.8410394156	-0.0254251764	 0.278898
H	-0.8742535673	 1.8789313391	 0.0016563014	 0.276942
H	-3.0452544365	-2.2265120137	 0.0068970206	 0.219704
H	 0.1271319468	-3.6322929694	-0.0295612976	 0.282782
70.872	95.6121	204.5164	299.5463	352.8421	367.9391	373.8453	501.4774	533.4645	552.6169	595.9892	610.2039	715.2179	741.5751	766.3029	799.9286	816.0749	939.2331	1047.8247	1178.2366	1247.9931	1291.6853	1362.0651	1434.9542	1498.1138	1595.5196	1636.1838	1701.3944	1728.7423	3525.1131	3619.5051	3637.5585	3757.9725
NC1=NC(=N)NN=C1F	N[C@@H]1N=C([NH])NN=C1F	
InChI=1S/C3H4FN5/c4-1-2(5)7-3(6)9-8-1/h(H4,5,6,7,9)	InChI=1S/C3H5FN5/c4-1-2(5)7-3(6)9-8-1/h2,6H,5H2,(H,7,9)/t2-/m1/s1
