17
gdb 113024	2.24613	1.63448	1.13287	4.255	70.45	-0.2396	-0.0395	0.2001	1089.0324	0.134818	-458.962986	-458.954479	-458.953534	-458.996906	30.964	
O	-0.1036758314	 1.2351875133	-0.6556004454	-0.418499
C	-0.0599297459	-0.1447380065	-0.3811559669	-0.057607
C	-1.399180721	-0.6261772104	 0.2069826529	 0.036382
O	-2.4717351005	-0.1751209479	-0.6419194243	-0.261515
C	-3.0331944583	-1.2648879101	-1.3374374791	-0.02653
C	-2.6685967924	-1.2389429265	-2.8243424582	 0.151683
O	-1.868684455	-0.4861023857	-3.3110864335	-0.234587
C	-2.471262062	-2.4981068003	-0.6594499581	-0.121006
C	-1.5536117309	-2.1216883378	 0.2248988795	-0.085811
H	-0.8320766246	 1.3465822827	-1.2801804383	 0.294747
H	 0.1652282788	-0.7318287158	-1.2837657266	 0.095114
H	 0.7434646655	-0.310766416	 0.3455331249	 0.102638
H	-1.5451617146	-0.1579657201	 1.1891795944	 0.096486
H	-4.1338588529	-1.2183096987	-1.2737589844	 0.107113
H	-3.2122049376	-1.9949921574	-3.4368978306	 0.080519
H	-2.779960912	-3.5060774272	-0.9026348335	 0.120496
H	-0.9612021851	-2.7722774857	 0.8553710071	 0.120377
48.174	96.4201	142.4275	204.1196	245.8611	274.2166	377.9584	458.6158	483.604	519.0715	679.8934	726.4566	769.8502	797.4768	825.3854	872.8902	948.5595	968.2347	1006.9139	1016.1052	1041.3336	1069.9698	1091.3784	1129.7077	1153.1531	1228.2226	1254.0095	1287.1443	1338.2338	1347.9273	1359.7442	1402.5716	1411.9057	1437.0705	1495.3246	1676.3623	1838.2578	2866.3808	2964.2024	2995.7206	3026.3502	3071.4716	3212.9827	3236.9302	3779.5169
OCC1OC(C=O)C=C1	OC[C@H]1O[C@@H](C=O)C=C1	
InChI=1S/C6H8O3/c7-3-5-1-2-6(4-8)9-5/h1-3,5-6,8H,4H2	InChI=1S/C6H8O3/c7-3-5-1-2-6(4-8)9-5/h1-3,5-6,8H,4H2/t5-,6+/m1/s1
