19
gdb 19358	3.86808	1.79135	1.53772	1.4815	74.18	-0.2156	0.0764	0.292	912.9446	0.165499	-327.843055	-327.835561	-327.834617	-327.874645	29.584	
C	 0.0534881982	 1.5528979226	 0.0386903674	-0.379333
C	-0.0398420309	 0.0219367199	 0.0722233867	-0.280872
C	 0.758880664	-0.6142859203	 1.1790635357	 0.342974
C	 0.2720056257	-1.7404947234	 2.0038585977	-0.301529
N	 0.4024362796	-0.4040380288	 2.6315209613	-0.183118
C	 1.8645304784	-0.0892474327	 2.8868440736	 0.012926
C	 2.8939559787	-1.1069537904	 2.4862501598	-0.310001
C	 2.2427339097	-0.2488759754	 1.4340859507	-0.122437
H	 1.0740391897	 1.8950963832	-0.1596668104	 0.114484
H	-0.5895247786	 1.9628631656	-0.7457466237	 0.111539
H	-0.2632279006	 1.9741794733	 0.9972125377	 0.135092
H	-1.0881907868	-0.2747984389	 0.1907726317	 0.104074
H	 0.2948145443	-0.3965269823	-0.8874782171	 0.099304
H	-0.7706714105	-2.0195872003	 1.8780324175	 0.117326
H	 0.9057200367	-2.5640802353	 2.3105405951	 0.115861
H	 2.0691093515	 0.7087400766	 3.5891354254	 0.101007
H	 3.904908108	-0.792138186	 2.7298630575	 0.116252
H	 2.7581809599	-2.1802878342	 2.5542027014	 0.114196
H	 2.8047779331	 0.4148138569	 0.7910623622	 0.092253
82.9313	153.3643	210.3988	267.4657	342.1785	454.9284	482.8825	530.1551	593.6829	697.2107	720.2371	771.2841	803.2066	833.5367	897.6931	924.0936	941.8478	960.9784	998.087	1023.5781	1040.0032	1058.2393	1065.6424	1095.7153	1097.6229	1115.1066	1132.3872	1181.514	1228.2705	1270.9153	1308.5868	1333.2036	1351.0875	1402.9361	1406.8675	1470.2608	1476.2353	1497.6528	1507.5411	1524.1655	3012.5735	3040.5053	3060.6432	3107.3632	3117.6516	3120.5122	3133.0279	3187.513	3195.9871	3204.4492	3211.8931
CCC12CN1C1CC21	CC[C@]12CN1[C@H]1C[C@@H]21	
InChI=1S/C7H11N/c1-2-7-4-8(7)6-3-5(6)7/h5-6H,2-4H2,1H3	InChI=1S/C7H11N/c1-2-7-4-8(7)6-3-5(6)7/h5-6H,2-4H2,1H3/t5-,6+,7-,8?/m1/s1
