21
gdb 81343	2.60621	1.49558	1.18954	1.345	83.94	-0.2211	0.0276	0.2488	1135.0104	0.184005	-387.092599	-387.084419	-387.083474	-387.124691	33.144	
C	 0.0140943006	 1.5002984867	 0.052636924	-0.501632
C	-0.0049587402	 0.0014262881	-0.0004902378	 0.347676
C	 0.0013551381	-0.7163006864	-1.1284592884	-0.168078
C	-0.0092211926	-2.2279699383	-1.0684841717	-0.267253
C	-0.0200394173	-2.694878499	 0.3955863197	-0.028973
C	-1.0914765039	-1.9062239077	 1.2072582257	-0.224189
C	-0.0225296379	-0.7753175851	 1.3046946652	-0.158356
C	 1.0488603408	-1.9115613883	 1.2001292163	 0.160467
O	 1.3038733617	-2.5915207028	 2.4130409769	-0.452326
H	 0.8949601931	 1.8668398709	 0.5964475585	 0.12032
H	 0.0256840426	 1.9408482323	-0.9481907963	 0.119803
H	-0.8618918411	 1.8895676405	 0.587966991	 0.123754
H	 0.0074098233	-0.2350006699	-2.1032547096	 0.076508
H	-0.8839362904	-2.6280735896	-1.6010820762	 0.102809
H	 0.8692103022	-2.6366358531	-1.5882866282	 0.102808
H	 0.0074223348	-3.7826336869	 0.4885927063	 0.06756
H	-2.0342464797	-1.6604474344	 0.7129424331	 0.088745
H	-1.2766587294	-2.3746215853	 2.1742344267	 0.107666
H	-0.004877994	-0.1325394817	 2.1890707071	 0.046473
H	 1.9816278922	-1.6508238916	 0.680984581	 0.057132
H	 1.780559537	-1.9908190782	 2.9949660265	 0.279088
147.5475	194.5224	237.4166	261.77	312.7696	325.0034	355.2441	370.7464	463.3302	476.6771	573.1527	656.2602	771.2298	813.542	848.8271	885.4501	899.9697	925.5095	939.9538	952.4988	999.7678	1032.2309	1063.3105	1071.1234	1087.9395	1095.1597	1121.6187	1129.1531	1177.9787	1180.1811	1214.7553	1250.791	1279.1692	1288.4999	1306.1989	1333.328	1354.5644	1364.0099	1413.1517	1417.1666	1476.0215	1477.6792	1486.993	1489.6446	1725.3497	2998.3862	3001.1987	3010.5366	3021.5121	3054.9262	3064.5187	3072.1794	3087.7015	3107.2554	3136.2454	3155.8064	3811.5485
CC1=CCC2CC1C2O	CC1=CC[C@@H]2C[C@H]1[C@H]2O	
InChI=1S/C8H12O/c1-5-2-3-6-4-7(5)8(6)9/h2,6-9H,3-4H2,1H3	InChI=1S/C8H12O/c1-5-2-3-6-4-7(5)8(6)9/h2,6-9H,3-4H2,1H3/t6-,7-,8+/m1/s1
