18
gdb 97441	3.39851	0.77628	0.73018	2.8629	72.64	-0.2586	-0.0386	0.22	1599.7967	0.144679	-476.222007	-476.212038	-476.211094	-476.258044	34.524	
C	-0.0791864209	 0.274614607	 0.4446514775	-0.316887
N	 0.1110341997	-0.6578496125	-0.6483685193	-0.225699
C	 1.1882806675	-0.5942888831	-1.2967440643	 0.129545
O	 1.491706978	-1.3827805646	-2.3473164504	-0.231563
C	 0.4853964532	-2.304708572	-2.7839369064	-0.104425
C	 0.5075643262	-3.6161702863	-1.9724503321	 0.034146
O	-0.5251863923	-4.4464274845	-2.423846968	-0.432011
C	 1.8450275026	-4.3151123343	-2.0993159261	 0.139282
O	 1.9244017478	-5.4463790456	-2.5179761269	-0.264136
H	 0.771224348	 0.9570155621	 0.5996838091	 0.102425
H	-0.9750761598	 0.8778598633	 0.2610019671	 0.133385
H	-0.2522549159	-0.2784962553	 1.3743944311	 0.131314
H	 2.0163445478	 0.0981050921	-1.1059525981	 0.107548
H	-0.5062091474	-1.8586448515	-2.6883537187	 0.150066
H	 0.70367079	-2.509900088	-3.8344909876	 0.122548
H	 0.3686903956	-3.3498569691	-0.9118253939	 0.116424
H	-0.0923283047	-5.2718155836	-2.6964951252	 0.296482
H	 2.7391111847	-3.7386823043	-1.7959940778	 0.111555
42.041	68.2804	123.9917	134.0097	196.392	210.4266	260.6577	318.4933	338.9573	368.9002	427.4778	463.5822	494.0794	688.3175	736.7782	832.9667	901.1254	966.5875	989.2301	1042.3773	1062.2332	1118.3603	1142.4505	1146.2655	1160.969	1227.1476	1266.5382	1301.543	1325.9688	1383.2354	1391.9225	1403.5995	1446.5817	1451.5164	1482.0306	1483.3653	1505.6	1755.3241	1806.9892	2962.8765	2980.2606	2987.9983	3064.2746	3066.8062	3075.4296	3083.847	3139.1092	3680.0084
CN=COCC(O)C=O	CN=COC[C@@H](O)C=O	
InChI=1S/C5H9NO3/c1-6-4-9-3-5(8)2-7/h2,4-5,8H,3H2,1H3	InChI=1S/C5H9NO3/c1-6-4-9-3-5(8)2-7/h2,4-5,8H,3H2,1H3/t5-/m0/s1
