22
gdb 118138	2.7088	0.96695	0.78383	1.8067	80.02	-0.224	0.0673	0.2913	1537.0386	0.191352	-441.429784	-441.418939	-441.417995	-441.46646	38.25	
C	 4.5376274111	-1.2346541451	 1.3576311521	-0.224158
O	 3.6426374645	-2.1234363392	 0.7329700972	-0.230969
C	 2.47629971	-1.4904023987	 0.2620465396	-0.074175
C	 1.5593148722	-2.5386372776	-0.3755065454	 0.075483
O	 0.2945100354	-1.9475474347	-0.6706327736	-0.43817
C	 2.1847004222	-3.1572451991	-1.6060413689	-0.001889
C	 3.0127406691	-4.3927066924	-1.5212538978	-0.242383
N	 1.721787803	-4.4125022594	-2.194205084	-0.089745
C	 0.6296267039	-5.1435420721	-1.5647277061	-0.310424
H	 4.8869920673	-0.4525076705	 0.6649105607	 0.104406
H	 4.0802942782	-0.7399880561	 2.2290570592	 0.105849
H	 5.3981649329	-1.8182170552	 1.6936005976	 0.127765
H	 1.9295342355	-0.9969191023	 1.0811766435	 0.095722
H	 2.7258491206	-0.7101733141	-0.4814681693	 0.073162
H	 1.3544020708	-3.3053607142	 0.3769365502	 0.097214
H	 0.3965093867	-1.4170870409	-1.4688770521	 0.280751
H	 2.4568021823	-2.4111018083	-2.3580140014	 0.075665
H	 3.8906045407	-4.5159888176	-2.1499047334	 0.111829
H	 3.0877264079	-4.8594115341	-0.5398271009	 0.112385
H	 0.7210154097	-5.249977446	-0.4727257521	 0.101273
H	-0.3152313472	-4.6365819694	-1.7789557502	 0.132141
H	 0.592685493	-6.1493745629	-1.994883195	 0.118268
43.9158	74.5046	95.8059	148.1021	166.3379	212.7359	235.2251	243.4121	273.4591	318.7734	369.0466	396.6454	424.8546	515.9437	599.5484	756.3921	818.0111	911.8885	979.5455	1002.3075	1028.1203	1049.342	1081.7349	1102.3684	1120.1476	1127.9491	1158.5633	1170.3291	1177.573	1188.843	1203.5059	1226.7329	1240.3581	1261.3139	1327.8313	1338.0331	1401.622	1410.5889	1440.3574	1449.8061	1481.4871	1485.9325	1486.7536	1502.4605	1505.9587	1515.8541	1525.5109	2931.3841	2970.9335	2981.2387	2994.2659	3014.9631	3056.4887	3069.3564	3084.0217	3091.9477	3113.7844	3114.366	3177.1068	3798.4185
COCC(O)C1CN1C	COC[C@@H](O)[C@H]1CN1C	
InChI=1S/C6H13NO2/c1-7-3-5(7)6(8)4-9-2/h5-6,8H,3-4H2,1-2H3	InChI=1S/C6H13NO2/c1-7-3-5(7)6(8)4-9-2/h5-6,8H,3-4H2,1-2H3/t5-,6-,7?/m1/s1
