16
gdb 13314	5.72332	1.23205	1.07371	1.6738	66.62	-0.2509	0.0545	0.3054	1081.3415	0.129736	-383.704648	-383.696666	-383.695722	-383.738439	28.194	
C	 0.0167744719	-1.2227628591	 0.1614571488	-0.449233
C	-0.0071952093	-0.0362149791	-0.0242760479	 0.304135
C	-0.0291578242	 1.4044132982	-0.2314407101	-0.370392
C	 1.3466412348	 2.0522830494	-0.0616460641	 0.226596
O	 2.2316071608	 1.651683184	-1.094469819	-0.265031
C	 2.9046415183	 2.8089829093	-1.5832006229	-0.084752
C	 2.4598882564	 3.9214130362	-0.6228240432	-0.109049
O	 1.2041583445	 3.4488927203	-0.158786653	-0.249756
H	 0.0377155403	-2.2728191177	 0.3163136952	 0.196182
H	-0.3889288991	 1.6496886594	-1.2367662069	 0.139087
H	-0.7095516726	 1.8804560408	 0.4845497165	 0.141231
H	 1.7853588733	 1.7760574665	 0.9135344403	 0.077243
H	 3.9873990343	 2.6446785774	-1.5714068792	 0.110409
H	 2.5887914538	 3.0098714926	-2.6145705769	 0.108715
H	 3.1671582374	 4.0358729835	 0.2122230007	 0.103205
H	 2.3117428092	 4.8912770982	-1.1016432685	 0.12141
28.9748	70.1516	123.8234	214.1348	311.0696	348.9497	424.8958	518.6158	621.6556	648.9502	677.1183	731.3937	833.731	890.2739	952.2824	970.0416	1019.2796	1021.5985	1063.1026	1077.7062	1150.3972	1170.2786	1220.3888	1231.4576	1247.3983	1305.0762	1342.8193	1381.2725	1400.6557	1423.5726	1455.7544	1513.9578	1531.4257	2245.2537	2947.6633	2995.6526	3022.5756	3038.9579	3070.6761	3082.5417	3114.2906	3507.904
C#CCC1OCCO1	C#CCC1OCCO1	
InChI=1S/C6H8O2/c1-2-3-6-7-4-5-8-6/h1,6H,3-5H2	InChI=1S/C6H8O2/c1-2-3-6-7-4-5-8-6/h1,6H,3-5H2
