20
gdb 107792	2.52243	1.61005	1.28441	1.6542	77.29	-0.2495	0.0589	0.3084	1073.029	0.171249	-403.097699	-403.089273	-403.088329	-403.130535	32.751	
C	-0.0678068375	 1.5267884399	 0.0579916198	-0.389132
C	-0.0014556201	-0.0065869364	 0.0047792243	-0.305319
C	 0.7215634226	-0.4992389137	-1.2177193514	 0.316033
C	 0.145393256	-0.3453808197	-2.6428151577	-0.302745
C	 0.8877206078	-1.6391173874	-2.9209323977	-0.045597
C	 2.1791803531	-1.6360960098	-2.1662839125	-0.111753
C	 2.2604337809	-0.3497820039	-1.3730883312	 0.115598
O	 2.8402977663	 0.8188325992	-1.8966461088	-0.440917
N	 0.9003004773	-2.0403504429	-1.4755314505	-0.194258
H	 0.9328358359	 1.9671755459	 0.015964195	 0.137808
H	-0.6403672106	 1.9276910932	-0.7852761286	 0.117324
H	-0.5524123195	 1.8637524485	 0.9786820932	 0.115413
H	 0.5107464806	-0.3925726331	 0.894995436	 0.106068
H	-1.0131529952	-0.4305187835	 0.022275715	 0.103331
H	-0.9360843177	-0.5076871198	-2.6448284705	 0.11395
H	 0.3738282225	 0.5593846605	-3.2185693042	 0.08628
H	 0.6902369408	-2.3687003725	-3.6983459469	 0.098239
H	 2.9624746741	-2.3606375806	-2.3586640147	 0.094873
H	 2.7438867896	-0.5239795591	-0.4073390628	 0.100182
H	 2.5483040131	 0.9172730053	-2.8085301656	 0.284623
87.0438	135.5738	196.4317	215.2438	290.4798	310.2355	341.1939	358.0385	495.815	584.6434	653.8991	719.657	775.6915	795.617	814.4214	833.1283	849.3096	957.8582	964.7956	983.7045	1007.0676	1023.5299	1041.1657	1044.7192	1090.7715	1103.9786	1128.3266	1137.4904	1204.7735	1229.8551	1238.0704	1265.3687	1294.6635	1325.3949	1350.5359	1369.7047	1379.4916	1414.5747	1435.4518	1488.0768	1498.3259	1501.1465	1510.4953	3024.2941	3026.7388	3038.8306	3057.6757	3078.7235	3093.7836	3105.0668	3117.1453	3174.0972	3185.9933	3821.6698
CCC12CC3C(C1O)N23	CC[C@@]12C[C@H]3[C@@H]([C@H]1O)N23	
InChI=1S/C7H11NO/c1-2-7-3-4-5(6(7)9)8(4)7/h4-6,9H,2-3H2,1H3	InChI=1S/C7H11NO/c1-2-7-3-4-5(6(7)9)8(4)7/h4-6,9H,2-3H2,1H3/t4-,5-,6+,7+,8?/m0/s1
