18
gdb 52555	2.08759	1.08213	0.75507	3.4241	82.46	-0.2457	-0.0517	0.194	1515.5246	0.145671	-401.909555	-401.899502	-401.898558	-401.947313	34.013	
C	 0.6475986517	 0.6321558553	 1.0143355225	-0.502879
C	 0.2957416033	-0.6154065757	 0.3585041215	 0.040479
C	-0.0146647146	-1.6503716628	-0.1808302468	 0.070309
C	-0.3907668811	-2.8870461505	-0.8374573932	 0.234346
O	-1.51820652	-3.0826819244	-1.2392301344	-0.282226
C	 0.7169213143	-3.9277440525	-0.9752114942	-0.333224
C	 1.0386812647	-4.5943202488	 0.3516437177	 0.028512
C	 2.4189322246	-5.0578331479	 0.6388913462	-0.245546
N	 1.8520101095	-3.9113137281	 1.3690041047	-0.305779
H	 1.5640691178	 1.0563717671	 0.5903705087	 0.159122
H	-0.1511702865	 1.373692149	 0.9120213911	 0.164246
H	 0.8214858512	 0.467650641	 2.083404653	 0.168112
H	 0.3713588374	-4.6739636909	-1.697313914	 0.128651
H	 1.6196200121	-3.4448170791	-1.3694822009	 0.106627
H	 0.2090435863	-5.1570882288	 0.775020029	 0.106761
H	 2.5825201335	-5.9480854131	 1.2393947411	 0.122098
H	 3.1799096117	-4.8765657482	-0.116595416	 0.11072
H	 2.2122056539	-3.0382320816	 0.9913797141	 0.229672
24.6385	34.4024	62.4102	114.895	124.9727	187.1083	297.0487	340.9439	373.643	399.7281	449.4591	587.2844	636.7645	750.0536	813.3201	829.29	922.1291	938.3944	976.5548	1019.1885	1045.116	1052.1988	1053.1664	1117.3344	1128.3541	1165.323	1233.313	1251.8206	1276.4591	1300.3267	1316.0741	1409.5131	1412.1596	1458.6444	1469.5592	1473.7383	1512.8291	1763.6633	2334.8932	3030.5731	3032.8921	3094.7823	3096.2229	3101.7365	3105.8419	3130.7601	3191.2484	3501.2443
CC#CC(=O)CC1CN1	CC#CC(=O)C[C@H]1CN1	
InChI=1S/C7H9NO/c1-2-3-7(9)4-6-5-8-6/h6,8H,4-5H2,1H3	InChI=1S/C7H9NO/c1-2-3-7(9)4-6-5-8-6/h6,8H,4-5H2,1H3/t6-/m0/s1
