19
gdb 37919	3.04732	1.66633	1.23651	1.9213	80.47	-0.2344	0.0299	0.2643	1029.587	0.161985	-385.826009	-385.819163	-385.818219	-385.857165	28.273	
C	 0.1757102927	 1.4493784021	-0.465953884	-0.314388
C	 1.0841336668	 2.3808574189	 0.2763303084	-0.053281
C	 1.8252227255	 2.1591347831	 1.3583359088	-0.053282
C	 1.9807344125	 0.9093384495	 2.1693200224	-0.314384
C	 1.2339823412	-0.3650638998	 1.8083958508	 0.044181
C	 1.0996249915	-0.9932193428	 0.3918206509	-0.007914
O	 0.0275166706	-1.8568378593	 0.9490757845	-0.305667
C	-0.2712747974	-0.4865016665	 1.4346059307	-0.007968
C	-0.0168968814	 0.0091803248	-0.017921777	 0.044201
H	-0.8227350515	 1.9117966737	-0.5120781589	 0.114897
H	 0.5006871406	 1.4217690261	-1.5178536148	 0.114908
H	 1.1237395675	 3.379692926	-0.1564880428	 0.083415
H	 2.41813843	 2.9924281856	 1.7333632494	 0.083415
H	 3.0523703611	 0.6583128898	 2.2074310241	 0.114913
H	 1.7300530656	 1.1480565094	 3.2147961812	 0.114897
H	 1.4954072568	-1.1438392098	 2.5308127827	 0.084097
H	 1.8574532082	-1.4778495593	-0.2265361106	 0.086966
H	-1.1541411945	-0.3631331921	 2.0645728256	 0.086893
H	-0.717330236	-0.4818207192	-0.6998571417	 0.084099
102.4052	236.5205	329.7954	374.3338	377.9903	390.253	546.0514	654.8806	676.1823	718.3379	796.2549	803.0792	844.2765	865.2957	888.2416	911.4938	939.738	972.6229	978.5417	986.1412	1024.0878	1057.6008	1088.8508	1122.2786	1135.9919	1195.9094	1203.8928	1208.7175	1245.6605	1255.1547	1270.0926	1296.0237	1306.8975	1343.9616	1396.3813	1398.1666	1442.3888	1446.0722	1463.5938	1464.7402	1762.5978	2985.933	2986.1207	3001.0469	3001.3628	3068.8303	3069.68	3099.0276	3106.4627	3119.202	3144.0998
C1C=CCC2C3OC2C13	C1C=CC[C@@H]2[C@H]3O[C@@H]2[C@@H]13	
InChI=1S/C8H10O/c1-2-4-6-7-5(3-1)8(6)9-7/h1-2,5-8H,3-4H2	InChI=1S/C8H10O/c1-2-4-6-7-5(3-1)8(6)9-7/h1-2,5-8H,3-4H2/t5-,6+,7-,8+
