20
gdb 8034	3.46432	1.83708	1.49444	1.7188	74.42	-0.2353	0.0796	0.3148	941.0832	0.176641	-348.982744	-348.974665	-348.973721	-349.015069	31.048	
C	-0.6341863295	 1.3553684598	-0.0579690969	-0.413177
C	 0.0712770814	 0.0076755374	 0.0021017732	 0.041806
C	 1.3945100602	-0.1820319202	-0.8110019973	-0.296959
C	 2.0984447215	-0.7133360116	 0.4672346967	 0.465864
C	 2.8788361987	-1.999874415	 0.4170613084	-0.476711
O	 2.8127302675	 0.3488042103	 1.1515983307	-0.327241
C	 1.6768250965	 0.6298595274	 2.0009009241	-0.090233
C	 0.8092758683	-0.4291826834	 1.3033955584	-0.152065
H	 0.048100539	 2.1820389863	 0.1656646256	 0.121375
H	-1.042039885	 1.5326461758	-1.0592120328	 0.116431
H	-1.4664196178	 1.4044142684	 0.6534523192	 0.112785
H	-0.6422993193	-0.7776248422	-0.268894075	 0.073276
H	 1.3242299981	-0.8923327732	-1.6395045797	 0.09425
H	 1.8516293125	 0.7424445708	-1.1730773192	 0.105114
H	 3.7863942358	-1.8660334466	-0.1829953424	 0.127772
H	 3.1793196587	-2.3152355669	 1.4207607186	 0.12065
H	 2.2852149917	-2.7985101321	-0.0396532141	 0.114178
H	 1.9017729399	 0.4054194514	 3.0516915401	 0.097672
H	 1.3510944381	 1.6747315086	 1.9306861892	 0.097264
H	 0.3150274536	-1.1627485951	 1.9411971329	 0.067948
55.5832	209.5171	218.1226	224.1712	265.9586	306.8964	380.8574	404.5711	482.023	607.7144	650.7057	751.8103	825.4425	862.6483	889.5842	915.0279	919.6837	968.9139	1000.4724	1007.5456	1023.3967	1083.9004	1116.5849	1141.1203	1163.9956	1177.4322	1189.7321	1204.0543	1237.1961	1277.2879	1318.3342	1330.3672	1350.8388	1375.2335	1407.9609	1410.7227	1468.736	1480.3919	1488.6357	1492.4161	1497.6253	1530.1968	3009.0283	3026.9265	3029.5034	3040.1083	3050.4124	3054.6641	3091.169	3097.3407	3097.9842	3102.2454	3109.553	3113.9878
CC1CC2(C)OCC12	C[C@H]1C[C@@]2(C)OC[C@@H]12	
InChI=1S/C7H12O/c1-5-3-7(2)6(5)4-8-7/h5-6H,3-4H2,1-2H3	InChI=1S/C7H12O/c1-5-3-7(2)6(5)4-8-7/h5-6H,3-4H2,1-2H3/t5-,6-,7+/m0/s1
