19
gdb 81421	2.37143	2.01892	1.47603	1.9367	74.12	-0.2474	0.0626	0.31	958.3189	0.159736	-422.978715	-422.970927	-422.969983	-423.010435	31.387	
C	-0.0063572536	 1.4901119116	 0.0274324159	-0.492908
C	 0.0110702004	-0.0163667879	 0.0137487039	 0.356054
C	-0.8898794462	-0.855215489	 0.8884081188	-0.34743
C	 0.6064676063	-0.9111700614	 1.08777104	-0.08973
C	 1.3595606007	-1.902765316	 0.1811276149	-0.00704
O	 0.4094558923	-2.1703666258	-0.8916578915	-0.288279
C	 0.5868183604	-0.760240286	-1.2165969195	-0.037746
C	 2.0807935998	-0.9637443056	-0.8440242513	 0.128251
O	 2.8114649917	 0.1543701509	-0.4263500983	-0.423899
H	 0.9684213415	 1.8971064009	-0.2563639819	 0.137406
H	-0.7583674768	 1.885532263	-0.6664940055	 0.1111
H	-0.251860754	 1.8684903226	 1.024944479	 0.113346
H	-1.446342284	-0.3076903427	 1.6428289576	 0.10285
H	-1.4006800125	-1.7162536021	 0.4760733965	 0.124307
H	 1.0796548319	-0.5233772366	 1.9809871458	 0.088209
H	 1.8078390851	-2.8000046728	 0.6091904315	 0.075059
H	 0.247275496	-0.4850296284	-2.2157875761	 0.075789
H	 2.5979032356	-1.548205615	-1.6128059059	 0.083505
H	 3.7430865854	-0.0802942297	-0.3930469939	 0.291155
179.7702	191.8423	199.3941	213.0183	306.9678	345.2274	423.4422	470.0415	554.3881	617.7465	665.1219	761.0142	763.3659	836.9657	860.8202	870.2977	890.4166	921.3178	945.6868	969.0012	986.4457	1027.2433	1070.5268	1084.7603	1093.9509	1116.5343	1150.3604	1164.2809	1195.2275	1225.6823	1248.2039	1265.945	1283.1704	1298.6584	1313.0851	1382.8447	1417.1038	1433.2993	1475.5104	1491.2453	1505.1187	3024.9406	3054.3787	3085.4437	3112.4254	3114.0935	3118.3961	3135.3808	3193.1836	3226.7809	3835.7158
CC12CC1C1OC2C1O	C[C@]12C[C@H]1[C@H]1O[C@@H]2[C@H]1O	
InChI=1S/C7H10O2/c1-7-2-3(7)5-4(8)6(7)9-5/h3-6,8H,2H2,1H3	InChI=1S/C7H10O2/c1-7-2-3(7)5-4(8)6(7)9-5/h3-6,8H,2H2,1H3/t3-,4-,5+,6+,7-/m0/s1
