14
gdb 123672	4.35901	1.58955	1.39669	4.4551	66.44	-0.2357	-0.0071	0.2286	887.1441	0.104641	-432.786755	-432.780935	-432.779991	-432.817002	23.492	
C	-0.0579516189	 1.5864950101	-0.053417028	-0.214633
C	 1.4825337079	 1.3327634536	 0.0361196846	-0.074337
O	 1.1696041607	 0.1805975384	 0.8910454806	-0.27875
C	-0.0106065785	 0.0238691421	 0.0015261229	-0.067227
C	 0.6913466239	-0.2922083429	-1.3126581837	 0.342668
C	 1.7246127219	 0.612211074	-1.2902628578	 0.390834
N	 2.3885918587	 0.3770671857	-2.4268680033	-0.374293
N	 1.7848884812	-0.6382431017	-3.126999447	-0.135894
N	 0.7441744187	-1.0380564229	-2.4319063828	-0.315897
H	-0.4478735345	 2.0238385452	 0.8681337984	 0.121086
H	-0.4654052528	 2.0688130986	-0.9441819729	 0.114712
H	 2.2008280389	 2.0341876419	 0.4534145357	 0.102548
H	-0.8037322452	-0.5992637039	 0.4047560672	 0.107845
H	 3.218353718	 0.7968581017	-2.8142510939	 0.281338
122.9609	313.5433	411.2722	476.7474	547.3585	577.8804	683.4754	693.4119	705.6748	770.6751	824.3922	846.2628	883.2481	924.546	962.9338	1004.9371	1031.8331	1052.0426	1074.2496	1143.3145	1158.5927	1197.5149	1224.1178	1249.9033	1255.97	1277.3959	1353.7252	1422.0781	1482.6603	1497.3663	1558.0929	3068.9956	3142.3626	3158.4329	3173.5317	3660.6737
C1C2OC1C1=C2NN=N1	C1[C@H]2O[C@@H]1c1c2[nH]nn1	
InChI=1S/C5H5N3O/c1-2-4-5(3(1)9-2)7-8-6-4/h2-3H,1H2,(H,6,7,8)	InChI=1S/C5H5N3O/c1-2-4-5(3(1)9-2)7-8-6-4/h2-3H,1H2,(H,6,7,8)/t2-,3+
