20
gdb 63544	2.93884	1.34409	1.22285	1.8226	79.98	-0.2186	0.0776	0.2962	1123.4959	0.169843	-403.080852	-403.072163	-403.071219	-403.113685	34.304	
C	-0.1340083484	 1.5216220934	 0.0154511524	-0.451424
C	-0.0163920336	 0.0154886264	 0.0496739718	 0.349664
O	-1.1557661834	-0.6679854461	-0.4077023299	-0.462294
C	 1.3245020831	-0.6563216153	-0.1952560627	-0.44077
C	 0.682741205	-0.6750700543	 1.1713444119	 0.371395
C	 1.2995376331	-0.1180084119	 2.4811978576	-0.321311
C	 0.8222686896	-1.405689864	 3.1729889855	-0.040487
N	-0.651509087	-1.4380244678	 3.013483355	-0.332973
C	 0.2226339316	-1.9146787535	 1.9080067631	-0.131943
H	 0.7589906576	 2.001679855	 0.4257302893	 0.117504
H	-0.2595120766	 1.8801868014	-1.014230565	 0.103839
H	-1.0016771343	 1.847754502	 0.5973670533	 0.133346
H	-1.2401550316	-0.496453997	-1.3524872377	 0.277852
H	 1.3128721994	-1.5811168344	-0.763961073	 0.108807
H	 2.2044969322	-0.0369378593	-0.3444901925	 0.104599
H	 2.3881113465	-0.0342354768	 2.4256030523	 0.101649
H	 0.8726637807	 0.8060894504	 2.8796791899	 0.106808
H	 1.3099393392	-1.9400297198	 3.9784568427	 0.090831
H	-0.9841342219	-2.2713447807	 3.4998816986	 0.224351
H	 0.135297229	-2.9221847175	 1.5218272375	 0.090559
107.7161	153.3155	159.0844	226.5119	295.5976	316.5038	378.6894	401.8435	420.3716	457.7649	495.5484	618.4904	741.2061	764.4311	817.5469	831.7268	880.0546	893.4326	908.0092	929.8973	959.9605	979.3653	996.0979	1029.9486	1056.8268	1075.2116	1104.0667	1112.3867	1148.5583	1180.1499	1185.0303	1226.2927	1265.9321	1292.0045	1301.686	1330.2217	1370.8784	1409.5514	1427.0161	1471.2995	1482.3046	1485.8226	1517.2758	3021.7287	3055.5389	3087.2963	3112.1289	3112.3978	3115.8822	3187.2829	3200.7778	3203.7262	3461.6796	3788.2591
CC1(O)CC11CC2NC12	C[C@@]1(O)C[C@]21C[C@H]1N[C@@H]21	
InChI=1S/C7H11NO/c1-6(9)3-7(6)2-4-5(7)8-4/h4-5,8-9H,2-3H2,1H3	InChI=1S/C7H11NO/c1-6(9)3-7(6)2-4-5(7)8-4/h4-5,8-9H,2-3H2,1H3/t4-,5-,6-,7-/m1/s1
