15
gdb 48568	3.82383	1.6013	1.31988	2.3899	69.33	-0.2468	-0.0378	0.209	929.8708	0.113511	-416.760131	-416.753443	-416.752499	-416.791247	26.074	
O	-0.6754447116	 1.1008295653	-0.5512344575	-0.274186
C	 0.3207530783	 0.9233209725	 0.1116244629	 0.067987
C	 1.4693466382	 1.8535173007	 0.1363983761	 0.23707
N	 2.605942904	 1.5523994496	 0.9780229732	-0.245136
C	 3.2084191743	 2.6647991361	 1.1237955481	-0.001229
N	 2.6578785606	 3.8064984092	 0.4205592291	-0.187506
C	 3.0021063743	 3.4620151448	-1.0508818495	-0.191782
C	 1.6936727701	 2.7136965866	-1.161202199	-0.101958
C	 1.252449479	 3.3484090176	 0.1100357437	-0.048993
H	 0.4448766083	 0.0384107905	 0.7694618133	 0.096355
H	 4.1447768887	 2.781686228	 1.6595544727	 0.133457
H	 2.9988110916	 4.3859608393	-1.6311618359	 0.137723
H	 3.9493107278	 2.9311647968	-1.1891110869	 0.124925
H	 1.1158218287	 2.461974788	-2.0400879685	 0.130561
H	 0.3648764178	 3.8858761651	 0.4185616182	 0.122712
113.3002	195.3623	219.3505	361.1413	409.7185	491.2141	556.0289	676.8022	719.2863	782.777	807.9892	841.0507	866.3033	885.1493	915.8399	961.6066	966.7096	993.3012	1022.2002	1038.9394	1061.7508	1089.8934	1154.7846	1178.3265	1219.9143	1236.8431	1298.9854	1314.7487	1355.7302	1416.9654	1499.023	1649.9014	1801.0461	2925.4022	3054.005	3125.4499	3198.3345	3201.2445	3219.0652
O=CC12N=CN3CC1C23	O=C[C@@]12[N][CH]N3C[C@@H]1[C@@H]23	
InChI=1S/C6H6N2O/c9-2-6-4-1-8(3-7-6)5(4)6/h2-5H,1H2	InChI=1S/C6H6N2O/c9-2-6-4-1-8(3-7-6)5(4)6/h2-5H,1H2/t4-,5+,6-/m1/s1
