20
gdb 20125	4.30223	1.24837	1.10556	1.5444	75.11	-0.2634	0.073	0.3364	1145.1188	0.176637	-348.973252	-348.964624	-348.963679	-349.006702	32.309	
O	-0.2152707054	 1.5049182577	 0.1179788874	-0.435978
C	-0.0891492219	 0.0880150449	-0.0059449806	 0.085643
C	 0.6976960529	-0.302423358	-1.2392052364	 0.001469
C	 0.318878558	-1.5326323397	-2.0271444198	-0.266623
C	 0.076757257	-0.1610831078	-2.6041187405	-0.275432
C	 0.4948545086	-0.5410405589	 1.252643812	 0.023724
C	 1.5618256431	 0.1647805143	 2.0529815988	-0.268995
C	 0.166950536	 0.0128329903	 2.6111425377	-0.275751
H	 0.6307282134	 1.8956720748	-0.1228225675	 0.280463
H	-1.1209548581	-0.270592287	-0.1258023478	 0.07852
H	 1.7641067566	-0.0966620839	-1.161930529	 0.079175
H	 1.1137186711	-2.1393141061	-2.4463524441	 0.111775
H	-0.5430280605	-2.1018823347	-1.6939201489	 0.113548
H	-0.9457512484	 0.1983343951	-2.6505750824	 0.12051
H	 0.7023957673	 0.1705281512	-3.4252892123	 0.110162
H	 0.5921993415	-1.6210456882	 1.1788391734	 0.083068
H	 2.3640077543	-0.4280997064	 2.4779384312	 0.107386
H	 1.8598325329	 1.1618005678	 1.7463926492	 0.097127
H	-0.4455365165	 0.906601862	 2.638735485	 0.125196
H	 0.0074365178	-0.6809117972	 3.4291078746	 0.105013
71.9472	74.128	156.6963	210.9273	254.1519	264.6898	300.5321	419.8517	473.9864	603.0194	753.379	786.227	799.3813	823.0402	840.7936	864.8218	929.8288	942.201	957.0518	1012.7108	1035.2025	1056.2058	1060.4378	1079.1825	1083.1209	1117.2201	1137.6963	1139.3149	1174.4874	1197.6286	1199.4293	1224.3035	1227.6019	1280.6638	1321.9557	1387.9248	1403.1104	1433.2001	1454.9209	1471.4591	1499.8041	1506.2631	3011.189	3119.1682	3130.4445	3132.1207	3136.2732	3136.9285	3143.5013	3208.7618	3211.9876	3223.8464	3231.0321	3819.0043
OC(C1CC1)C1CC1	OC(C1CC1)C1CC1	
InChI=1S/C7H12O/c8-7(5-1-2-5)6-3-4-6/h5-8H,1-4H2	InChI=1S/C7H12O/c8-7(5-1-2-5)6-3-4-6/h5-8H,1-4H2
