21
gdb 92891	2.28622	1.60749	1.02136	2.4732	84.14	-0.2344	-0.01	0.2244	1220.9427	0.182305	-387.136702	-387.127497	-387.126553	-387.170628	34.796	
C	-0.047298868	 1.5647308938	-0.0125166916	-0.399407
C	 0.1006384454	 0.045470473	 0.0044203066	-0.087084
C	 0.7864812286	-0.5079024631	-1.2673327804	-0.256982
C	 1.1029626206	-1.9739166672	-1.1541927283	-0.085297
C	 1.1556540088	-2.6251895308	 0.005806173	-0.03813
C	 0.9592299196	-1.9779696264	 1.3601127702	-0.141606
C	 2.0376569732	-2.396348354	 2.3685670745	-0.392214
C	 0.8577650141	-0.4547546305	 1.2310983591	 0.381401
O	 1.3460542501	 0.2939221982	 2.0463008893	-0.319189
H	 0.9330404726	 2.0494007901	-0.0231350762	 0.128579
H	-0.6033581055	 1.8872282465	-0.898399999	 0.106135
H	-0.5747457419	 1.9196409478	 0.876236052	 0.124992
H	-0.8928746848	-0.4254314126	 0.0500958596	 0.094171
H	 0.1380308264	-0.3254588679	-2.133180887	 0.109998
H	 1.7066305821	 0.0621233326	-1.466011494	 0.119453
H	 1.2940257357	-2.5107774125	-2.0802057527	 0.091183
H	 1.381634157	-3.6893974014	 0.0205915658	 0.090263
H	-0.0172914224	-2.3064345268	 1.7566970434	 0.10698
H	 3.0320484382	-2.1089336557	 2.0145589477	 0.12489
H	 1.872438688	-1.9084472913	 3.3308214829	 0.134388
H	 2.0258862722	-3.4808361916	 2.5136119252	 0.107475
61.2344	112.3148	184.8393	198.4436	235.4129	263.6116	310.1491	334.8676	424.4116	439.4532	493.1154	580.4207	623.8973	698.7321	764.955	815.622	870.8234	893.4102	933.9577	989.0626	999.2661	1006.7601	1015.6585	1077.4508	1111.9427	1130.3748	1146.1403	1151.6493	1179.4002	1226.0782	1289.4843	1313.8194	1327.4119	1328.6168	1389.1877	1400.1604	1413.1794	1418.7342	1481.6965	1489.9152	1490.598	1493.4443	1496.6133	1726.4504	1807.8364	2956.8779	2993.5534	3004.5482	3042.4819	3044.7057	3045.9743	3113.3941	3113.7765	3123.834	3137.5511	3140.4398	3165.0222
CC1CC=CC(C)C1=O	C[C@H]1CC=C[C@@H](C)C1=O	
InChI=1S/C8H12O/c1-6-4-3-5-7(2)8(6)9/h3-4,6-7H,5H2,1-2H3	InChI=1S/C8H12O/c1-6-4-3-5-7(2)8(6)9/h3-4,6-7H,5H2,1-2H3/t6-,7+/m1/s1
