23
gdb 81470	3.23959	1.4989	1.43278	0.0911	88.19	-0.2662	0.0914	0.3576	1058.5204	0.210305	-351.100841	-351.093701	-351.092757	-351.131835	31.213	
C	-0.0799227535	 1.5730186141	 0.0014335038	-0.448491
C	 0.0332793187	 0.0479465734	 0.014281343	 0.082904
C	 1.2056355577	-0.5970883324	-0.8046258307	-0.033333
C	 2.0817424957	-0.2589447003	 0.4395403623	-0.227978
C	 0.7821690686	-0.6114176414	 1.224865134	-0.033342
C	 0.5636555783	-2.190192793	 1.1707834998	-0.027049
C	 1.7203236	-2.8385133834	 0.3459161918	-0.212388
C	 0.9881827872	-2.1758270955	-0.8638049077	-0.027051
C	-0.3039865895	-2.5595529865	-0.0744968588	-0.218715
H	 0.856325177	 2.099345251	 0.2008963104	 0.116485
H	-0.4457958223	 1.9140721738	-0.9740277017	 0.112427
H	-0.8068603027	 1.9018026646	 0.753207675	 0.112425
H	-0.9665930784	-0.323733221	-0.1969845258	 0.056939
H	 1.4691908193	-0.1812867913	-1.7804933153	 0.050359
H	 3.0043876986	-0.8018522154	 0.6282259275	 0.088973
H	 2.3120473495	 0.8042151853	 0.4950925017	 0.089615
H	 0.6323281988	-0.2096090367	 2.2302338911	 0.050362
H	 0.3033629933	-2.603236353	 2.147559569	 0.054761
H	 2.760427749	-2.6078590648	 0.5645686709	 0.090088
H	 1.6120515798	-3.9254215308	 0.3156498476	 0.087301
H	 1.1413693216	-2.5748803829	-1.8686626292	 0.054761
H	-0.4733449238	-3.6384678597	-0.1174527348	 0.086716
H	-1.2532393928	-2.065230074	-0.2690712239	 0.094232
162.5765	222.0487	271.4982	292.6646	468.3946	483.39	508.381	559.7541	605.65	753.4353	764.5185	811.1683	826.9954	838.4392	851.9969	855.5372	882.7701	889.9376	892.0221	990.1998	1003.3896	1014.9727	1032.6782	1044.5307	1067.0008	1071.7908	1098.0106	1099.7664	1102.5056	1110.8274	1135.1586	1147.0911	1215.0248	1230.4576	1242.839	1251.7498	1253.5953	1265.4082	1285.4759	1301.1431	1316.2782	1342.3098	1407.7228	1413.2826	1492.0396	1499.2622	1504.3071	1541.6985	1569.1315	3028.8619	3062.6241	3065.2681	3067.6297	3074.3492	3082.8462	3084.5538	3091.361	3098.3626	3111.5631	3118.8512	3132.0698	3146.6049	3157.6006
CC1C2CC1C1CC2C1	C[C@H]1[C@H]2C[C@@H]1[C@@H]1C[C@H]2C1	
InChI=1S/C9H14/c1-5-8-4-9(5)7-2-6(8)3-7/h5-9H,2-4H2,1H3	InChI=1S/C9H14/c1-5-8-4-9(5)7-2-6(8)3-7/h5-9H,2-4H2,1H3/t5-,6-,7+,8+,9-
