23
gdb 96586	2.27396	1.49151	1.05364	0.5423	82.45	-0.2318	0.0886	0.3204	1240.3309	0.207093	-425.425841	-425.416878	-425.415934	-425.459039	35.139	
C	 0.0356022412	 1.5738546069	 0.0967535874	-0.393998
C	-0.0047139835	 0.0506620127	 0.0025664532	 0.146244
C	 0.6657608124	-0.4552172768	-1.290670573	-0.192691
C	 1.0826304366	-1.9311687143	-1.2700286304	-0.222317
C	-0.0504082623	-2.9462880749	-1.0936512273	-0.065588
O	-0.8640356962	-2.7597651405	 0.0559472305	-0.244178
C	-0.1914751343	-2.797247209	 1.3037500318	-0.083887
C	-0.0856210972	-1.4014332871	 1.9212147118	-0.076858
O	 0.663050929	-0.4816061643	 1.155910687	-0.266873
H	 1.072171652	 1.9191824095	 0.1676403739	 0.120786
H	-0.4207021397	 2.03205095	-0.7872272651	 0.108659
H	-0.5019125488	 1.9231930408	 0.9830144985	 0.112747
H	-1.0458156703	-0.2878090863	 0.0129568897	 0.086788
H	-0.0164456087	-0.2618065332	-2.1291398508	 0.09292
H	 1.5639688646	 0.1470191229	-1.4781223556	 0.094008
H	 1.5885875297	-2.1760211109	-2.2127001193	 0.091815
H	 1.826603714	-2.0685756791	-0.4790474168	 0.112321
H	-0.7466051111	-2.8878449872	-1.9382207666	 0.103296
H	 0.3768300546	-3.9628618594	-1.0901909964	 0.086983
H	-0.7747751192	-3.4349265568	 1.9833758841	 0.097104
H	 0.8057008841	-3.2460424742	 1.2049178998	 0.098302
H	-1.1021662754	-1.0170217292	 2.0999942368	 0.094842
H	 0.4159890183	-1.4816091598	 2.8935749167	 0.099574
106.3393	146.6699	212.8644	231.4163	241.692	286.693	323.0435	346.8378	405.0774	463.418	472.1118	546.4547	555.1827	766.4383	818.1531	840.1377	872.8044	885.569	916.395	933.715	999.0981	1002.9731	1062.5977	1092.6078	1116.4916	1139.8688	1148.362	1161.7997	1181.8945	1241.5431	1262.9621	1295.759	1313.5485	1323.3004	1337.1552	1382.6895	1391.3603	1400.5002	1403.8577	1407.4938	1419.1906	1423.6909	1473.4084	1481.7966	1485.586	1487.9087	1492.6511	1496.8605	1501.867	2966.6912	2981.155	3000.1151	3014.0978	3033.1665	3035.116	3042.8915	3045.7189	3056.8803	3058.8037	3062.3997	3086.7992	3106.6642	3113.1766
CC1CCCOCCO1	C[C@H]1CCCOCCO1	
InChI=1S/C7H14O2/c1-7-3-2-4-8-5-6-9-7/h7H,2-6H2,1H3	InChI=1S/C7H14O2/c1-7-3-2-4-8-5-6-9-7/h7H,2-6H2,1H3/t7-/m0/s1
