21
gdb 89711	2.76243	1.13601	1.1075	1.7532	79.14	-0.2512	0.0668	0.3179	1254.4094	0.179357	-424.206564	-424.196785	-424.19584	-424.241121	36.999	
C	-0.1575992167	 1.4978379054	 0.2781015242	-0.454031
C	-0.0988202938	-0.0111174889	 0.1968725402	 0.283552
C	-1.3361937721	-0.6834066598	-0.3546520701	-0.454579
O	 1.151042361	-0.5417470856	-0.3055551689	-0.332064
C	 0.828778993	-0.7606976098	 1.0570847302	 0.417096
C	 1.6805740523	-0.2762125138	 2.2369668891	-0.318837
C	 1.2277332472	-1.5345860059	 3.0204497313	 0.118016
O	 0.2217386504	-1.1623374351	 3.9437340278	-0.436318
C	 0.6740490868	-2.1469904151	 1.6955688261	-0.349688
H	 0.7849293411	 1.9090364046	 0.6449567693	 0.12811
H	-0.353828055	 1.9253881286	-0.7114051051	 0.122303
H	-0.9634205796	 1.8187263796	 0.9473391745	 0.121788
H	-1.5559014101	-0.3099577027	-1.3609598266	 0.123366
H	-1.2024486459	-1.7653502642	-0.416513323	 0.12619
H	-2.2062215923	-0.4727162618	 0.2770742672	 0.119889
H	 2.7474701099	-0.2854485525	 1.9981505438	 0.111622
H	 1.4171777035	 0.6739334392	 2.7062115186	 0.116018
H	 2.0248262265	-2.1073506846	 3.5100639918	 0.066729
H	-0.1714079186	-1.9679523406	 4.2947765223	 0.282266
H	-0.3305924367	-2.5753116522	 1.7510256473	 0.098433
H	 1.3550838192	-2.8762362347	 1.2461967601	 0.11014
44.4255	147.873	157.0243	185.4436	199.8508	264.0723	307.9397	346.9635	383.797	389.9634	456.5211	463.4805	469.906	565.552	690.0781	807.4096	811.0712	840.6677	919.5893	936.6366	945.4225	948.3736	990.9472	1014.261	1059.5746	1108.6773	1119.6865	1163.7834	1172.2565	1191.8752	1224.1111	1241.0944	1251.8199	1273.2904	1324.6785	1406.2784	1414.4253	1416.374	1449.0157	1456.4643	1473.5963	1479.4485	1484.3273	1499.2856	1530.0898	3018.9801	3031.7514	3036.9944	3051.4632	3067.1868	3092.4092	3097.7367	3107.9376	3125.3986	3128.7945	3131.2162	3811.2283
CC1(C)OC11CC(O)C1	CC1(C)O[C@]21C[C@@H](O)C2	
InChI=1S/C7H12O2/c1-6(2)7(9-6)3-5(8)4-7/h5,8H,3-4H2,1-2H3	InChI=1S/C7H12O2/c1-6(2)7(9-6)3-5(8)4-7/h5,8H,3-4H2,1-2H3/t5-,7-
