18
gdb 110777	2.81595	1.34091	1.17948	4.0165	72.48	-0.2472	0.0533	0.3005	1129.7008	0.148135	-439.086299	-439.078183	-439.077239	-439.119664	30.521	
C	 0.0659566328	 1.6367998513	 0.1567511548	-0.375696
C	 0.4437402405	 0.1771988043	-0.1220326716	-0.218086
C	 0.8797735539	-0.5528628453	 1.1314865196	-0.086722
C	-0.0869070208	-1.1409552294	 2.1397728475	 0.041902
O	-1.4068046646	-1.3796993764	 1.6998362514	-0.224062
C	-1.3959626063	-2.3254069362	 0.7224761459	 0.486752
N	-2.4421440492	-2.7032381862	 0.1400044964	-0.576077
O	-0.1145280196	-2.7499898846	 0.4802447276	-0.24745
C	 0.7768684332	-2.0511693291	 1.3258228323	 0.013433
H	 0.9017589525	 2.1867636558	 0.6029556549	 0.11275
H	-0.2158700877	 2.1497481476	-0.7674359762	 0.11927
H	-0.7814366871	 1.6948145257	 0.8466413399	 0.132741
H	-0.4028206536	-0.3360134004	-0.5862265266	 0.133539
H	 1.2620391295	 0.1334099048	-0.8508635657	 0.107183
H	 1.7649728664	-0.138896645	 1.6124578301	 0.101538
H	-0.0231712795	-0.9720738363	 3.2067111565	 0.122764
H	-2.2208529635	-3.4092528853	-0.5575279556	 0.234193
H	 1.5882404932	-2.6689565351	 1.6882735388	 0.122025
54.5635	106.4388	150.4593	216.0903	274.2503	301.2869	462.5833	548.165	592.7648	712.8365	721.1149	758.3748	773.0124	790.5247	806.4077	810.1923	893.3	912.1995	985.9659	1007.0116	1051.1665	1057.368	1074.1674	1094.9574	1129.1475	1140.1333	1167.5549	1216.5596	1235.1176	1293.6181	1331.7051	1376.4046	1381.8079	1412.1784	1437.1999	1487.9957	1499.9765	1507.5342	1799.8899	3035.7771	3038.7829	3086.5307	3107.9037	3114.76	3126.522	3194.6012	3204.2385	3542.5498
CCC1C2OC(=N)OC12	CC[C@H]1[C@H]2O[C]([NH])O[C@@H]12	
InChI=1S/C6H9NO2/c1-2-3-4-5(3)9-6(7)8-4/h3-5,7H,2H2,1H3	InChI=1S/C6H9NO2/c1-2-3-4-5(3)9-6(7)8-4/h3-5,7H,2H2,1H3/t3-,4+,5-
