21
gdb 75568	2.388	1.60762	1.2187	1.6132	84.	-0.2255	0.0106	0.2361	1129.0272	0.184014	-387.085987	-387.077592	-387.076648	-387.118597	32.935	
C	-0.0431494683	 1.4672183498	 0.1532575595	-0.490974
C	 0.0616199689	-0.0268061493	-0.0249099275	 0.334242
C	 0.0055481275	-0.6051093317	-1.2307850205	-0.182137
C	 0.1328361142	-2.0849678724	-1.515714568	-0.249219
C	-0.9452420265	-3.0014560546	-0.8729917931	-0.182527
C	-1.6036850413	-2.495497319	 0.4257638264	-0.24593
C	-0.6521593252	-1.9909466383	 1.4982520456	 0.048258
O	 0.7533058457	-2.1032451612	 1.2669359014	-0.253518
C	 0.1753952241	-0.7886741396	 1.2538928347	-0.033383
H	 0.859282832	 1.8746149118	 0.627266995	 0.126301
H	-0.181902381	 1.973300549	-0.805006557	 0.123159
H	-0.8847229365	 1.7379796875	 0.8042713541	 0.123457
H	-0.1094255753	 0.0499504714	-2.0918995407	 0.079988
H	 0.1146021992	-2.2388788895	-2.5993382799	 0.087864
H	 1.1148629244	-2.4175615871	-1.1718620175	 0.133545
H	-1.7554960355	-3.1718049577	-1.5913557266	 0.094657
H	-0.4918120734	-3.9807037029	-0.6873851013	 0.104764
H	-2.2962396815	-1.6789592234	 0.1840294214	 0.10912
H	-2.2169650923	-3.3029074631	 0.8406779356	 0.098718
H	-0.9421795714	-2.1967168623	 2.5294025274	 0.089626
H	 0.4617576121	-0.1893050473	 2.119062341	 0.083988
122.17	141.1277	185.2288	256.1152	281.3448	293.3822	335.0965	374.1643	479.0005	560.1951	628.9256	672.406	733.3524	761.5959	838.6783	849.4838	871.4273	887.4812	944.7223	970.9256	1011.5716	1057.5401	1063.0652	1070.4906	1091.9371	1129.1782	1140.4235	1172.7046	1219.7143	1252.1254	1291.6065	1306.6391	1340.3754	1352.8292	1384.4612	1392.2211	1404.051	1414.1001	1454.6364	1477.8976	1478.472	1486.6924	1494.4501	1501.0752	1724.7122	3013.6536	3023.7243	3032.7392	3052.5816	3058.2237	3059.7439	3073.9699	3093.1534	3099.2873	3105.1713	3117.4081	3143.1697
CC1=CCCCC2OC12	CC1=CCCC[C@H]2O[C@@H]12	
InChI=1S/C8H12O/c1-6-4-2-3-5-7-8(6)9-7/h4,7-8H,2-3,5H2,1H3	InChI=1S/C8H12O/c1-6-4-2-3-5-7-8(6)9-7/h4,7-8H,2-3,5H2,1H3/t7-,8+/m1/s1
