13
gdb 5300	5.21758	1.68781	1.28522	3.0418	60.33	-0.2402	-0.0247	0.2155	870.2733	0.098142	-394.851246	-394.844563	-394.843618	-394.882385	24.752	
N	-0.0400189721	 1.3667228508	 0.0034515038	-0.559074
C	 0.0710121457	 0.0082894968	-0.1190770217	 0.482451
O	 1.1080289509	-0.5830242013	-0.2980039507	-0.355897
N	-1.1706902325	-0.6787286563	-0.0548641619	-0.094005
C	-1.2836477284	-2.0559781405	 0.0695054228	-0.085839
C	-2.6209201628	-2.3129674932	 0.0856611718	-0.099742
N	-3.3498350192	-1.141559105	-0.0381256701	-0.269793
C	-2.461717749	-0.1903246338	-0.1198864461	 0.017912
H	 0.8413218071	 1.8503260221	 0.07338194	 0.277212
H	-0.8113636239	 1.7680804346	 0.5105014589	 0.269915
H	-0.4032869111	-2.670682591	 0.13250458	 0.160867
H	-3.1127690851	-3.2689292277	 0.176775569	 0.120361
H	-2.6750364596	 0.8570238646	-0.2694395658	 0.135633
81.5864	157.4416	227.2755	402.455	426.2661	517.9045	527.1969	622.6165	669.7476	685.6231	767.0883	776.9344	818.312	880.0566	911.5113	1019.9003	1078.5471	1100.0177	1135.5205	1207.6155	1283.9469	1327.0308	1356.625	1428.3483	1512.5758	1563.8629	1623.4128	1834.76	3253.6183	3257.9072	3306.2988	3598.4879	3718.828
NC(=O)N1C=CN=C1	NC(=O)n1ccnc1	
InChI=1S/C4H5N3O/c5-4(8)7-2-1-6-3-7/h1-3H,(H2,5,8)	InChI=1S/C4H5N3O/c5-4(8)7-2-1-6-3-7/h1-3H,(H2,5,8)
