21
gdb 115910	3.18406	1.29775	1.14686	2.8586	77.62	-0.2436	0.0734	0.317	1147.9298	0.185026	-424.210328	-424.202285	-424.201341	-424.243221	31.71	
O	 0.0178105929	 1.4959661282	 0.104142166	-0.426099
C	 0.0863811719	 0.0950208609	 0.2771292609	-0.071276
C	-1.2674931724	-0.5508323461	-0.0260268797	 0.116945
O	-1.7070239986	-0.0933913277	-1.3183237026	-0.304881
C	-1.6998135969	-1.0191799342	-2.4073897016	-0.068402
C	-1.7292536359	-2.4738578106	-1.9429705473	-0.025615
C	-2.5843926948	-2.5761436	-0.6488081403	-0.232695
C	-1.3054786699	-2.0748845421	 0.0827184816	-0.044323
C	-0.4844117782	-2.7391829721	-1.0590756738	-0.231922
H	-0.4589464544	 1.6230187838	-0.7261839788	 0.286919
H	 0.8699484481	-0.3465266182	-0.3591435595	 0.081494
H	 0.3629553259	-0.0929359159	 1.3211637719	 0.100794
H	-1.996147791	-0.1289533252	 0.6807811871	 0.086052
H	-2.5897594117	-0.7848895587	-3.0045930756	 0.105141
H	-0.8172994083	-0.8493333762	-3.0438666518	 0.09292
H	-1.9382978842	-3.1412441239	-2.7826876868	 0.06688
H	-3.4868771606	-1.9631359079	-0.5770742244	 0.10387
H	-2.8177526605	-3.6132614527	-0.3970880321	 0.098864
H	-1.1230469586	-2.3883376488	 1.1135646365	 0.069413
H	-0.3333283432	-3.805268608	-0.8715802632	 0.098829
H	 0.4651843906	-2.2902591345	-1.3628444967	 0.097092
62.4221	113.2178	178.8631	282.7783	359.0528	383.756	414.2503	479.0297	497.2311	552.0142	626.3847	770.9001	830.3826	835.0159	878.1666	895.9535	922.1884	940.1707	979.0161	999.5529	1023.4679	1050.162	1083.7181	1097.2559	1102.8255	1118.4986	1126.0861	1152.9725	1186.6481	1225.2976	1240.9491	1247.0344	1271.6818	1292.1667	1320.495	1345.2008	1349.2959	1372.3001	1395.1129	1414.088	1443.9728	1481.8045	1502.9469	1509.88	1521.7008	2977.2427	2981.9614	3008.0258	3041.59	3054.2709	3057.7617	3061.5469	3078.5538	3081.5401	3108.655	3117.5799	3772.2438
OCC1OCC2CC1C2	OC[C@H]1OC[C@@H]2C[C@H]1C2	
InChI=1S/C7H12O2/c8-3-7-6-1-5(2-6)4-9-7/h5-8H,1-4H2	InChI=1S/C7H12O2/c8-3-7-6-1-5(2-6)4-9-7/h5-8H,1-4H2/t5-,6+,7-/m1/s1
