20
gdb 126140	3.72285	0.93497	0.91109	3.0227	81.72	-0.2498	-0.0047	0.2451	1400.462	0.170734	-403.15854	-403.149333	-403.148389	-403.193339	33.521	
C	-0.0687518307	 1.523160682	 0.1017169437	-0.395754
C	-0.0013825923	-0.0011118158	-0.0245690701	-0.166789
C	 0.7681802461	-0.5001593283	-1.2719706519	-0.098361
C	 2.2569056472	-0.1025651501	-1.2567685935	-0.395636
C	 0.6171498995	-1.9826723498	-1.4175157731	 0.461763
C	 0.0224410842	-2.7803001196	-2.348054404	-0.36406
C	 0.2489740775	-4.0937151295	-1.8591260771	 0.034345
N	 0.9200802351	-4.0975415956	-0.734734906	-0.143065
O	 1.1559419797	-2.751886915	-0.4511591914	-0.221445
H	 0.9191627439	 1.9689561825	 0.2502763525	 0.122598
H	-0.5092541789	 1.9774445836	-0.793255903	 0.114089
H	-0.6881405072	 1.8099460606	 0.95693067	 0.11876
H	 0.4617191701	-0.4334104623	 0.8700229604	 0.11714
H	-1.0199019694	-0.4044803694	-0.0669384596	 0.103491
H	 0.2991492808	-0.0571105758	-2.1595359046	 0.087976
H	 2.7600576753	-0.5211133949	-0.3801605374	 0.13666
H	 2.7685494439	-0.4757262613	-2.1485991291	 0.122627
H	 2.370310275	 0.9840137814	-1.2336936872	 0.11953
H	-0.4954778591	-2.4775166417	-3.2425852095	 0.115788
H	-0.0540973707	-5.0382078807	-2.2892020392	 0.130343
46.1115	80.0476	115.8804	182.9416	218.3278	268.6536	287.0032	347.3195	376.2986	474.6403	648.3147	690.3268	737.9174	781.4237	808.3816	845.3356	916.5276	919.9631	944.3702	961.1009	979.8874	1009.8465	1036.5177	1054.1243	1076.5752	1131.3879	1177.699	1213.5661	1259.6761	1284.7544	1307.1556	1347.9518	1367.6797	1395.5001	1408.7425	1414.5253	1485.7893	1493.2336	1498.1472	1504.7823	1510.4458	1517.2711	1630.2676	3028.5001	3033.2549	3035.3321	3045.8758	3069.9975	3101.1275	3110.5968	3116.8836	3125.8745	3241.1131	3278.6722
CCC(C)C1=CC=NO1	CC[C@@H](C)c1ccno1	
InChI=1S/C7H11NO/c1-3-6(2)7-4-5-8-9-7/h4-6H,3H2,1-2H3	InChI=1S/C7H11NO/c1-3-6(2)7-4-5-8-9-7/h4-6H,3H2,1-2H3/t6-/m1/s1
